# vtk DataFile Version 2.0
track0
ASCII
DATASET POLYDATA
POINTS 12140 float
-0.0205 0.001 1e-05
-0.0204881 0.0011 1e-05
-0.0204761 0.00119999 1e-05
-0.020464 0.00129996 1e-05
-0.0204518 0.00139992 1e-05
-0.0204394 0.0015 1e-05
-0.0204269 0.0016 1e-05
-0.0204143 0.00169998 1e-05
-0.0204015 0.00179994 1e-05
-0.0203885 0.00189988 1e-05
-0.0203754 0.002 1e-05
-0.0203621 0.0021 1e-05
-0.0203486 0.00219998 1e-05
-0.020335 0.00229992 1e-05
-0.0203212 0.00239985 1e-05
-0.0203071 0.0025 1e-05
-0.0203028 0.00253051 1e-05
-0.0202984 0.00256102 1e-05
-0.020294 0.00259152 1e-05
-0.0202896 0.00262202 1e-05
-0.0202854 0.00265115 1e-05
-0.0202752 0.00272092 1e-05
-0.020265 0.00279068 1e-05
-0.0202546 0.00286042 1e-05
-0.0202442 0.00293014 1e-05
-0.0202336 0.003 1e-05
-0.0202182 0.0031 1e-05
-0.0202027 0.00319996 1e-05
-0.0201869 0.00329989 1e-05
-0.0201709 0.00339978 1e-05
-0.0201546 0.0035 1e-05
-0.020138 0.0036 1e-05
-0.0201213 0.00369996 1e-05
-0.0201042 0.00379987 1e-05
-0.020087 0.00389974 1e-05
-0.0200694 0.004 1e-05
-0.02006 0.00405278 1e-05
-0.0200505 0.00410556 1e-05
-0.0200409 0.00415831 1e-05
-0.0200313 0.00421106 1e-05
-0.0200223 0.00425975 1e-05
-0.0200134 0.0043078 1e-05
-0.0200044 0.00435584 1e-05
-0.0199954 0.00440387 1e-05
-0.0199863 0.00445188 1e-05
-0.0199771 0.0045 1e-05
-0.0199579 0.0046 1e-05
-0.0199384 0.00469995 1e-05
-0.0199187 0.00479984 1e-05
-0.0198986 0.00489967 1e-05
-0.0198782 0.005 1e-05
-0.0198575 0.0051 1e-05
-0.0198366 0.00519994 1e-05
-0.0198154 0.00529982 1e-05
-0.0197938 0.00539964 1e-05
-0.0197719 0.0055 1e-05
-0.0197698 0.00550949 1e-05
-0.0197677 0.00551898 1e-05
-0.0197656 0.00552847 1e-05
-0.0197635 0.00553795 1e-05
-0.0197614 0.00554732 1e-05
-0.0197412 0.00563786 1e-05
-0.0197207 0.00572834 1e-05
-0.0197 0.00581876 1e-05
-0.0196791 0.00590913 1e-05
-0.0196577 0.006 1e-05
-0.019634 0.0061 1e-05
-0.01961 0.00619993 1e-05
-0.0195856 0.00629978 1e-05
-0.0195609 0.00639956 1e-05
-0.0195358 0.0065 1e-05
-0.0195291 0.00652624 1e-05
-0.0195225 0.00655247 1e-05
-0.0195158 0.0065787 1e-05
-0.019509 0.00660492 1e-05
-0.0195025 0.00663031 1e-05
-0.0194834 0.00670424 1e-05
-0.0194642 0.00677814 1e-05
-0.0194448 0.00685199 1e-05
-0.0194252 0.00692579 1e-05
-0.0194053 0.007 1e-05
-0.0193783 0.0071 1e-05
-0.0193509 0.00719991 1e-05
-0.0193232 0.00729974 1e-05
-0.0192953 0.00739948 1e-05
-0.0192667 0.0075 1e-05
-0.0192625 0.00751458 1e-05
-0.0192583 0.00752915 1e-05
-0.0192541 0.00754373 1e-05
-0.0192499 0.0075583 1e-05
-0.0192457 0.00757263 1e-05
-0.0192209 0.00765811 1e-05
-0.0191959 0.00774351 1e-05
-0.0191706 0.00782885 1e-05
-0.0191451 0.00791411 1e-05
-0.0191192 0.008 1e-05
-0.0190936 0.00808398 1e-05
-0.0190677 0.00816788 1e-05
-0.0190416 0.00825172 1e-05
-0.0190153 0.00833548 1e-05
-0.018991 0.00841185 1e-05
-0.0189854 0.00842948 1e-05
-0.0189797 0.00844711 1e-05
-0.0189741 0.00846473 1e-05
-0.0189684 0.00848235 1e-05
-0.0189627 0.0085 1e-05
-0.0189304 0.0086 1e-05
-0.0188977 0.00869989 1e-05
-0.0188647 0.00879967 1e-05
-0.0188314 0.00889934 1e-05
-0.0187973 0.009 1e-05
-0.0187855 0.00903445 1e-05
-0.0187737 0.00906888 1e-05
-0.0187618 0.00910331 1e-05
-0.0187499 0.00913771 1e-05
-0.0187384 0.00917094 1e-05
-0.0187155 0.00923676 1e-05
-0.0186924 0.00930251 1e-05
-0.0186691 0.00936822 1e-05
-0.0186458 0.00943388 1e-05
-0.018622 0.0095 1e-05
-0.0185952 0.00957433 1e-05
-0.0185681 0.0096486 1e-05
-0.0185409 0.00972279 1e-05
-0.0185135 0.00979692 1e-05
-0.0184878 0.00986584 1e-05
-0.0184777 0.00989267 1e-05
-0.0184676 0.0099195 1e-05
-0.0184575 0.00994631 1e-05
-0.0184473 0.00997311 1e-05
-0.0184371 0.01 1e-05
-0.018399 0.0101 1e-05
-0.0183605 0.0101999 1e-05
-0.0183217 0.0102996 1e-05
-0.0182826 0.0103992 1e-05
-0.0182425 0.0105 1e-05
-0.0182419 0.0105017 1e-05
-0.0182412 0.0105033 1e-05
-0.0182405 0.010505 1e-05
-0.0182399 0.0105067 1e-05
-0.0182392 0.0105084 1e-05
-0.0181997 0.0106067 1e-05
-0.0181598 0.0107049 1e-05
-0.0181196 0.0108029 1e-05
-0.0180791 0.0109008 1e-05
-0.0180376 0.011 1e-05
-0.0180286 0.0110213 1e-05
-0.0180196 0.0110427 1e-05
-0.0180106 0.011064 1e-05
-0.0180015 0.0110853 1e-05
-0.0179926 0.0111062 1e-05
-0.017959 0.011185 1e-05
-0.0179251 0.0112636 1e-05
-0.017891 0.0113422 1e-05
-0.0178567 0.0114207 1e-05
-0.0178218 0.0115 1e-05
-0.017807 0.0115332 1e-05
-0.0177922 0.0115665 1e-05
-0.0177774 0.0115997 1e-05
-0.0177625 0.0116328 1e-05
-0.017748 0.0116651 1e-05
-0.0177178 0.0117321 1e-05
-0.0176874 0.011799 1e-05
-0.0176568 0.0118658 1e-05
-0.0176261 0.0119326 1e-05
-0.0175948 0.012 1e-05
-0.0175769 0.0120384 1e-05
-0.017559 0.0120767 1e-05
-0.017541 0.012115 1e-05
-0.0175229 0.0121533 1e-05
-0.0175053 0.0121904 1e-05
-0.0174759 0.0122523 1e-05
-0.0174464 0.0123142 1e-05
-0.0174166 0.0123759 1e-05
-0.0173868 0.0124377 1e-05
-0.0173564 0.0125 1e-05
-0.0173381 0.0125375 1e-05
-0.0173197 0.012575 1e-05
-0.0173012 0.0126124 1e-05
-0.0172827 0.0126498 1e-05
-0.0172647 0.0126861 1e-05
-0.0172334 0.0127489 1e-05
-0.0172019 0.0128116 1e-05
-0.0171703 0.0128742 1e-05
-0.0171386 0.0129368 1e-05
-0.0171063 0.013 1e-05
-0.0170902 0.0130313 1e-05
-0.0170741 0.0130626 1e-05
-0.017058 0.0130939 1e-05
-0.0170418 0.0131251 1e-05
-0.0170259 0.0131556 1e-05
-0.01699 0.0132245 1e-05
-0.0169539 0.0132933 1e-05
-0.0169177 0.013362 1e-05
-0.0168812 0.0134306 1e-05
-0.0168441 0.0135 1e-05
-0.0168331 0.0135204 1e-05
-0.0168221 0.0135408 1e-05
-0.0168111 0.0135613 1e-05
-0.0168 0.0135817 1e-05
-0.0167891 0.0136018 1e-05
-0.0167458 0.0136814 1e-05
-0.0167023 0.0137609 1e-05
-0.0166585 0.0138403 1e-05
-0.0166144 0.0139195 1e-05
-0.0165694 0.014 1e-05
-0.0165663 0.0140054 1e-05
-0.0165633 0.0140108 1e-05
-0.0165603 0.0140162 1e-05
-0.0165572 0.0140215 1e-05
-0.0165542 0.0140269 1e-05
-0.0165076 0.0141093 1e-05
-0.0164607 0.0141916 1e-05
-0.0164136 0.0142737 1e-05
-0.0163662 0.0143556 1e-05
-0.0163212 0.0144328 1e-05
-0.0163133 0.0144462 1e-05
-0.0163054 0.0144597 1e-05
-0.0162975 0.0144731 1e-05
-0.0162896 0.0144865 1e-05
-0.0162816 0.0145 1e-05
-0.0162433 0.0145649 1e-05
-0.0162048 0.0146296 1e-05
-0.0161662 0.0146943 1e-05
-0.0161273 0.0147588 1e-05
-0.01609 0.0148205 1e-05
-0.0160682 0.0148564 1e-05
-0.0160463 0.0148923 1e-05
-0.0160243 0.0149281 1e-05
-0.0160023 0.0149639 1e-05
-0.0159801 0.015 1e-05
-0.0159562 0.0150386 1e-05
-0.0159323 0.0150772 1e-05
-0.0159083 0.0151157 1e-05
-0.0158842 0.0151541 1e-05
-0.0158607 0.0151916 1e-05
-0.0158219 0.0152533 1e-05
-0.015783 0.0153149 1e-05
-0.0157438 0.0153764 1e-05
-0.0157045 0.0154377 1e-05
-0.0156645 0.0155 1e-05
-0.0156582 0.0155096 1e-05
-0.015652 0.0155192 1e-05
-0.0156458 0.0155289 1e-05
-0.0156395 0.0155385 1e-05
-0.0156333 0.015548 1e-05
-0.0155882 0.0156175 1e-05
-0.0155429 0.0156867 1e-05
-0.0154974 0.0157559 1e-05
-0.0154516 0.0158249 1e-05
-0.0154077 0.0158908 1e-05
-0.0153931 0.0159126 1e-05
-0.0153784 0.0159345 1e-05
-0.0153637 0.0159563 1e-05
-0.015349 0.0159781 1e-05
-0.0153342 0.016 1e-05
-0.0153041 0.0160444 1e-05
-0.015274 0.0160887 1e-05
-0.0152438 0.016133 1e-05
-0.0152135 0.0161772 1e-05
-0.0151839 0.0162201 1e-05
-0.0151453 0.0162761 1e-05
-0.0151065 0.016332 1e-05
-0.0150675 0.0163878 1e-05
-0.0150285 0.0164435 1e-05
-0.0149887 0.0165 1e-05
-0.0149833 0.0165075 1e-05
-0.014978 0.0165151 1e-05
-0.0149726 0.0165226 1e-05
-0.0149673 0.0165302 1e-05
-0.0149619 0.0165377 1e-05
-0.0149179 0.0165996 1e-05
-0.0148737 0.0166615 1e-05
-0.0148293 0.0167232 1e-05
-0.0147848 0.0167848 1e-05
-0.0147417 0.0168441 1e-05
-0.014719 0.0168753 1e-05
-0.0146962 0.0169064 1e-05
-0.0146733 0.0169376 1e-05
-0.0146504 0.0169686 1e-05
-0.0146272 0.017 1e-05
-0.0146065 0.0170281 1e-05
-0.0145856 0.0170561 1e-05
-0.0145648 0.0170841 1e-05
-0.0145439 0.0171121 1e-05
-0.0145233 0.0171396 1e-05
-0.01448 0.0171974 1e-05
-0.0144365 0.0172551 1e-05
-0.0143929 0.0173126 1e-05
-0.0143491 0.0173701 1e-05
-0.0143067 0.0174256 1e-05
-0.0142952 0.0174405 1e-05
-0.0142838 0.0174553 1e-05
-0.0142723 0.0174702 1e-05
-0.0142608 0.0174851 1e-05
-0.0142493 0.0175 1e-05
-0.0142178 0.0175407 1e-05
-0.0141862 0.0175813 1e-05
-0.0141545 0.0176219 1e-05
-0.0141228 0.0176624 1e-05
-0.0140917 0.0177019 1e-05
-0.0140491 0.017756 1e-05
-0.0140063 0.01781 1e-05
-0.0139635 0.0178639 1e-05
-0.0139204 0.0179176 1e-05
-0.0138786 0.0179698 1e-05
-0.0138737 0.0179758 1e-05
-0.0138688 0.0179819 1e-05
-0.0138639 0.0179879 1e-05
-0.013859 0.0179939 1e-05
-0.0138541 0.018 1e-05
-0.0138167 0.0180462 1e-05
-0.0137792 0.0180923 1e-05
-0.0137416 0.0181384 1e-05
-0.0137039 0.0181844 1e-05
-0.0136671 0.0182292 1e-05
-0.0136251 0.01828 1e-05
-0.0135831 0.0183306 1e-05
-0.0135409 0.0183812 1e-05
-0.0134986 0.0184317 1e-05
-0.0134573 0.0184808 1e-05
-0.0134541 0.0184847 1e-05
-0.0134509 0.0184885 1e-05
-0.0134476 0.0184923 1e-05
-0.0134444 0.0184962 1e-05
-0.0134411 0.0185 1e-05
-0.0134028 0.0185454 1e-05
-0.0133643 0.0185906 1e-05
-0.0133257 0.0186358 1e-05
-0.0132871 0.018681 1e-05
-0.0132493 0.018725 1e-05
-0.013208 0.0187728 1e-05
-0.0131666 0.0188206 1e-05
-0.0131251 0.0188682 1e-05
-0.0130835 0.0189158 1e-05
-0.0130429 0.0189621 1e-05
-0.0130362 0.0189697 1e-05
-0.0130295 0.0189773 1e-05
-0.0130228 0.0189848 1e-05
-0.0130161 0.0189924 1e-05
-0.0130094 0.019 1e-05
-0.0129752 0.0190388 1e-05
-0.0129408 0.0190774 1e-05
-0.0129065 0.0191161 1e-05
-0.012872 0.0191547 1e-05
-0.0128381 0.0191924 1e-05
-0.0127975 0.0192376 1e-05
-0.0127568 0.0192827 1e-05
-0.012716 0.0193277 1e-05
-0.0126751 0.0193726 1e-05
-0.012635 0.0194165 1e-05
-0.0126197 0.0194332 1e-05
-0.0126044 0.0194499 1e-05
-0.012589 0.0194666 1e-05
-0.0125737 0.0194832 1e-05
-0.0125582 0.0195 1e-05
-0.0125333 0.019527 1e-05
-0.0125083 0.0195539 1e-05
-0.0124833 0.0195809 1e-05
-0.0124583 0.0196077 1e-05
-0.0124336 0.0196343 1e-05
-0.0123936 0.019677 1e-05
-0.0123536 0.0197197 1e-05
-0.0123134 0.0197623 1e-05
-0.0122732 0.0198048 1e-05
-0.0122338 0.0198464 1e-05
-0.0122045 0.0198771 1e-05
-0.0121752 0.0199078 1e-05
-0.0121459 0.0199385 1e-05
-0.0121165 0.0199691 1e-05
-0.0120867 0.02 1e-05
-0.0120765 0.0200106 1e-05
[...]
POINT_DATA 12140
 FIELD attributes 1
U 3 12140 float
-0.0325798 	-0.274104 	0 -0.0329034 	-0.274077 	0 -0.0332279 	-0.274049 	0 -0.0335518 	-0.27402 	0 -0.0338756 	-0.27399 	0 -0.0342026 	-0.273959 	0 -0.0346297 	-0.273925 	0 -0.0350591 	-0.27389 	0 -0.0354876 	-0.273854 	0 -0.0359137 	-0.273817 	0 -0.0363428 	-0.273778 	0 -0.0368561 	-0.273732 	0 -0.0373713 	-0.273685 	0 -0.0378862 	-0.273637 	0 -0.038401 	-0.273588 	0 -0.0389169 	-0.273537 	0 -0.039094 	-0.273519 	0 -0.0392727 	-0.2735 	0 -0.0394514 	-0.273482 	0 -0.03963 	-0.273463 	0 -0.0398024 	-0.273445 	0 -0.0402102 	-0.273403 	0 -0.0406196 	-0.27336 	0 -0.0410288 	-0.273316 	0 -0.041438 	-0.273272 	0 -0.0418497 	-0.273227 	0 -0.0424967 	-0.273154 	0 -0.0431424 	-0.273078 	0 -0.0437864 	-0.273002 	0 -0.0444301 	-0.272923 	0 -0.0450774 	-0.272844 	0 -0.045771 	-0.272755 	0 -0.0464654 	-0.272664 	0 -0.0471595 	-0.272573 	0 -0.0478521 	-0.272479 	0 -0.0485458 	-0.272383 	0 -0.0489312 	-0.272328 	0 -0.0493174 	-0.272271 	0 -0.0497035 	-0.272215 	0 -0.0500895 	-0.272158 	0 -0.0504467 	-0.272105 	0 -0.0507983 	-0.272053 	0 -0.0511507 	-0.272 	0 -0.051503 	-0.271947 	0 -0.0518552 	-0.271893 	0 -0.0522091 	-0.271839 	0 -0.0529751 	-0.271718 	0 -0.0537392 	-0.271595 	0 -0.0545017 	-0.27147 	0 -0.0552638 	-0.271343 	0 -0.0560304 	-0.271214 	0 -0.0568203 	-0.271076 	0 -0.0576104 	-0.270936 	0 -0.0584 	-0.270795 	0 -0.0591893 	-0.270652 	0 -0.0599824 	-0.270506 	0 -0.0600588 	-0.270492 	0 -0.0601356 	-0.270477 	0 -0.0602125 	-0.270462 	0 -0.0602894 	-0.270447 	0 -0.0603656 	-0.270432 	0 -0.0610999 	-0.270291 	0 -0.0618345 	-0.270149 	0 -0.0625686 	-0.270005 	0 -0.0633025 	-0.26986 	0 -0.064041 	-0.269713 	0 -0.0648713 	-0.269541 	0 -0.0657015 	-0.269368 	0 -0.0665312 	-0.269194 	0 -0.0673598 	-0.269018 	0 -0.0681923 	-0.268838 	0 -0.0684134 	-0.268789 	0 -0.0686349 	-0.268739 	0 -0.0688563 	-0.268689 	0 -0.0690777 	-0.26864 	0 -0.0692923 	-0.268591 	0 -0.0699179 	-0.26845 	0 -0.0705435 	-0.268309 	0 -0.0711689 	-0.268167 	0 -0.071794 	-0.268023 	0 -0.072423 	-0.267878 	0 -0.0732835 	-0.267674 	0 -0.0741437 	-0.267469 	0 -0.0750035 	-0.267262 	0 -0.0758627 	-0.267053 	0 -0.076727 	-0.26684 	0 -0.0768538 	-0.266808 	0 -0.0769809 	-0.266776 	0 -0.0771079 	-0.266744 	0 -0.0772349 	-0.266711 	0 -0.0773601 	-0.266679 	0 -0.0781069 	-0.26649 	0 -0.0788536 	-0.266299 	0 -0.0795999 	-0.266107 	0 -0.0803458 	-0.265914 	0 -0.0810976 	-0.265719 	0 -0.0818417 	-0.265521 	0 -0.0825856 	-0.265321 	0 -0.083329 	-0.265121 	0 -0.0840721 	-0.264919 	0 -0.08475 	-0.264734 	0 -0.0849067 	-0.264691 	0 -0.0850636 	-0.264649 	0 -0.0852205 	-0.264606 	0 -0.0853773 	-0.264563 	0 -0.0855347 	-0.26452 	0 -0.086435 	-0.264268 	0 -0.0873341 	-0.264015 	0 -0.0882315 	-0.26376 	0 -0.0891284 	-0.263503 	0 -0.0900348 	-0.263242 	0 -0.0903483 	-0.26315 	0 -0.0906619 	-0.263057 	0 -0.0909754 	-0.262965 	0 -0.0912888 	-0.262872 	0 -0.0915918 	-0.262782 	0 -0.0921929 	-0.262604 	0 -0.0927939 	-0.262426 	0 -0.0933946 	-0.262247 	0 -0.093995 	-0.262067 	0 -0.0946001 	-0.261885 	0 -0.0952873 	-0.261675 	0 -0.0959743 	-0.261464 	0 -0.0966609 	-0.261252 	0 -0.0973471 	-0.26104 	0 -0.0979856 	-0.260841 	0 -0.0982346 	-0.260764 	0 -0.0984838 	-0.260686 	0 -0.098733 	-0.260609 	0 -0.098982 	-0.260531 	0 -0.0992321 	-0.260453 	0 -0.100171 	-0.260156 	0 -0.101109 	-0.259857 	0 -0.102047 	-0.259557 	0 -0.102983 	-0.259255 	0 -0.103932 	-0.258948 	0 -0.103948 	-0.258943 	0 -0.103964 	-0.258937 	0 -0.10398 	-0.258932 	0 -0.103995 	-0.258927 	0 -0.104011 	-0.258922 	0 -0.104948 	-0.258614 	0 -0.105884 	-0.258306 	0 -0.106819 	-0.257996 	0 -0.107754 	-0.257684 	0 -0.108701 	-0.257367 	0 -0.108907 	-0.257297 	0 -0.109113 	-0.257227 	0 -0.109319 	-0.257157 	0 -0.109524 	-0.257087 	0 -0.109727 	-0.257017 	0 -0.110489 	-0.256759 	0 -0.111252 	-0.256499 	0 -0.112013 	-0.256239 	0 -0.112774 	-0.255977 	0 -0.113545 	-0.255712 	0 -0.11387 	-0.255598 	0 -0.114196 	-0.255484 	0 -0.114522 	-0.25537 	0 -0.114848 	-0.255256 	0 -0.115165 	-0.255144 	0 -0.115824 	-0.254914 	0 -0.116483 	-0.254684 	0 -0.117142 	-0.254452 	0 -0.1178 	-0.25422 	0 -0.118465 	-0.253984 	0 -0.118847 	-0.253848 	0 -0.119229 	-0.253711 	0 -0.119611 	-0.253574 	0 -0.119993 	-0.253437 	0 -0.120364 	-0.253303 	0 -0.120983 	-0.253082 	0 -0.121603 	-0.252859 	0 -0.122221 	-0.252637 	0 -0.12284 	-0.252413 	0 -0.123465 	-0.252187 	0 -0.123845 	-0.252048 	0 -0.124225 	-0.251909 	0 -0.124604 	-0.25177 	0 -0.124984 	-0.251631 	0 -0.125352 	-0.251495 	0 -0.125991 	-0.251262 	0 -0.126629 	-0.251028 	0 -0.127267 	-0.250793 	0 -0.127904 	-0.250558 	0 -0.128549 	-0.25032 	0 -0.128871 	-0.2502 	0 -0.129194 	-0.25008 	0 -0.129516 	-0.249959 	0 -0.129838 	-0.249839 	0 -0.130153 	-0.24972 	0 -0.130865 	-0.249456 	0 -0.131577 	-0.24919 	0 -0.132288 	-0.248924 	0 -0.132999 	-0.248657 	0 -0.133719 	-0.248386 	0 -0.133933 	-0.248305 	0 -0.134147 	-0.248224 	0 -0.134361 	-0.248142 	0 -0.134575 	-0.248061 	0 -0.134786 	-0.247981 	0 -0.135624 	-0.247665 	0 -0.13646 	-0.247348 	0 -0.137296 	-0.24703 	0 -0.138132 	-0.246712 	0 -0.13898 	-0.246387 	0 -0.139038 	-0.246365 	0 -0.139095 	-0.246343 	0 -0.139152 	-0.246321 	0 -0.13921 	-0.246299 	0 -0.139267 	-0.246277 	0 -0.140149 	-0.24594 	0 -0.141029 	-0.245603 	0 -0.141907 	-0.245264 	0 -0.142785 	-0.244924 	0 -0.143612 	-0.244602 	0 -0.143756 	-0.244547 	0 -0.1439 	-0.244491 	0 -0.144045 	-0.244435 	0 -0.144189 	-0.244379 	0 -0.144334 	-0.244323 	0 -0.145039 	-0.24405 	0 -0.145744 	-0.243776 	0 -0.146448 	-0.243501 	0 -0.147151 	-0.243226 	0 -0.147823 	-0.242962 	0 -0.148215 	-0.24281 	0 -0.148607 	-0.242657 	0 -0.148999 	-0.242504 	0 -0.149391 	-0.242351 	0 -0.149787 	-0.242196 	0 -0.150214 	-0.242028 	0 -0.15064 	-0.241861 	0 -0.151067 	-0.241693 	0 -0.151493 	-0.241524 	0 -0.151909 	-0.24136 	0 -0.152595 	-0.241092 	0 -0.15328 	-0.240823 	0 -0.153964 	-0.240554 	0 -0.154648 	-0.240285 	0 -0.155342 	-0.24001 	0 -0.155451 	-0.239967 	0 -0.155559 	-0.239924 	0 -0.155667 	-0.239881 	0 -0.155776 	-0.239838 	0 -0.155884 	-0.239795 	0 -0.156669 	-0.239487 	0 -0.157452 	-0.239178 	0 -0.158234 	-0.238868 	0 -0.159015 	-0.238556 	0 -0.159761 	-0.238258 	0 -0.160009 	-0.23816 	0 -0.160257 	-0.238061 	0 -0.160505 	-0.237963 	0 -0.160753 	-0.237865 	0 -0.161002 	-0.237766 	0 -0.161512 	-0.237563 	0 -0.162022 	-0.23736 	0 -0.162532 	-0.237156 	0 -0.163041 	-0.236953 	0 -0.163536 	-0.236755 	0 -0.164182 	-0.236499 	0 -0.164828 	-0.236243 	0 -0.165474 	-0.235986 	0 -0.166119 	-0.235729 	0 -0.166774 	-0.235467 	0 -0.166862 	-0.235432 	0 -0.16695 	-0.235397 	0 -0.167039 	-0.235361 	0 -0.167127 	-0.235326 	0 -0.167215 	-0.235291 	0 -0.167944 	-0.235003 	0 -0.16867 	-0.234713 	0 -0.169395 	-0.234422 	0 -0.170119 	-0.234131 	0 -0.170816 	-0.23385 	0 -0.171184 	-0.233704 	0 -0.171552 	-0.233557 	0 -0.171919 	-0.233411 	0 -0.172286 	-0.233264 	0 -0.172657 	-0.233116 	0 -0.172993 	-0.232982 	0 -0.173328 	-0.232847 	0 -0.173663 	-0.232713 	0 -0.173998 	-0.232578 	0 -0.174328 	-0.232446 	0 -0.175021 	-0.232172 	0 -0.175715 	-0.231897 	0 -0.176407 	-0.231622 	0 -0.177097 	-0.231344 	0 -0.177763 	-0.231074 	0 -0.177942 	-0.231003 	0 -0.178122 	-0.230931 	0 -0.178301 	-0.23086 	0 -0.17848 	-0.230788 	0 -0.17866 	-0.230716 	0 -0.179156 	-0.230518 	0 -0.179652 	-0.23032 	0 -0.180147 	-0.230122 	0 -0.180642 	-0.229923 	0 -0.181126 	-0.229729 	0 -0.181789 	-0.229467 	0 -0.182451 	-0.229204 	0 -0.183113 	-0.228942 	0 -0.183773 	-0.228679 	0 -0.184413 	-0.228421 	0 -0.184487 	-0.228391 	0 -0.184561 	-0.228362 	0 -0.184636 	-0.228332 	0 -0.18471 	-0.228303 	0 -0.184785 	-0.228273 	0 -0.18536 	-0.228044 	0 -0.185934 	-0.227815 	0 -0.186508 	-0.227586 	0 -0.187082 	-0.227357 	0 -0.187641 	-0.227133 	0 -0.188276 	-0.226882 	0 -0.188911 	-0.226632 	0 -0.189545 	-0.226381 	0 -0.190178 	-0.22613 	0 -0.190793 	-0.225884 	0 -0.190841 	-0.225865 	0 -0.190889 	-0.225846 	0 -0.190937 	-0.225827 	0 -0.190985 	-0.225808 	0 -0.191034 	-0.225789 	0 -0.19161 	-0.225561 	0 -0.192185 	-0.225333 	0 -0.19276 	-0.225105 	0 -0.193334 	-0.224876 	0 -0.193895 	-0.224653 	0 -0.194505 	-0.224414 	0 -0.195116 	-0.224175 	0 -0.195725 	-0.223936 	0 -0.196334 	-0.223696 	0 -0.196925 	-0.22346 	0 -0.197022 	-0.223422 	0 -0.197119 	-0.223384 	0 -0.197216 	-0.223345 	0 -0.197313 	-0.223307 	0 -0.19741 	-0.223269 	0 -0.197912 	-0.223072 	0 -0.198414 	-0.222874 	0 -0.198916 	-0.222676 	0 -0.199416 	-0.222479 	0 -0.199908 	-0.222284 	0 -0.200496 	-0.222057 	0 -0.201084 	-0.221829 	0 -0.201671 	-0.221601 	0 -0.202256 	-0.221371 	0 -0.202827 	-0.221143 	0 -0.203044 	-0.221059 	0 -0.203262 	-0.220974 	0 -0.20348 	-0.220889 	0 -0.203697 	-0.220804 	0 -0.203917 	-0.220718 	0 -0.204273 	-0.220579 	0 -0.20463 	-0.22044 	0 -0.204987 	-0.220301 	0 -0.205343 	-0.220162 	0 -0.205695 	-0.220024 	0 -0.206263 	-0.219808 	0 -0.206831 	-0.219591 	0 -0.207396 	-0.219371 	0 -0.20796 	-0.21915 	0 -0.208512 	-0.218932 	0 -0.20892 	-0.218775 	0 -0.209328 	-0.218618 	0 -0.209736 	-0.218461 	0 -0.210144 	-0.218304 	0 -0.210556 	-0.218144 	0 -0.210699 	-0.21809 	0 -0.210842 	-0.218034 	0 -0.210986 	-0.217979 	0 -0.211129 	-0.217924 	0 -0.211272 	-0.217869 	0 -0.211821 	-0.217663 	0 -0.212368 	-0.217452 	0 -0.212914 	-0.217241 	0 -0.213459 	-0.21703 	0 -0.213994 	-0.216822 	0 -0.21453 	-0.21662 	0 -0.215066 	-0.216418 	0 -0.215601 	-0.216215 	0 -0.216135 	-0.216013 	0 -0.216657 	-0.215809 	0 -0.216791 	-0.215758 	0 -0.216925 	-0.215707 	0 -0.217059 	-0.215656 	0 -0.217193 	-0.215605 	0 -0.217328 	-0.215554 	0 -0.217721 	-0.215405 	0 -0.218113 	-0.215257 	0 -0.218505 	-0.215108 	0 -0.218896 	-0.214959 	0 -0.219283 	-0.214812 	0 -0.219803 	-0.21462 	0 -0.220323 	-0.214428 	0 -0.22084 	-0.214232 	0 -0.221355 	-0.214035 	0 -0.221862 	-0.21384 	0 -0.222336 	-0.213664 	0 -0.222809 	-0.213488 	0 -0.223282 	-0.213311 	0 -0.223754 	-0.213135 	0 -0.224233 	-0.212955 	0 -0.224264 	-0.212944 	0 -0.224294 	-0.212932 	0 -0.224325 	-0.212921 	0 -0.224356 	-0.21291 	0 -0.224387 	-0.212898 	0 -0.22489 	-0.212712 	0 -0.225392 	-0.212525 	0 -0.225893 	-0.212337 	0 -0.226394 	-0.21215 	0 -0.226888 	-0.211965 	0 -0.227381 	-0.211787 	0 -0.227873 	-0.211608 	0 -0.228365 	-0.211429 	0 -0.228854 	-0.211244 	0 -0.229335 	-0.211062 	0 -0.229721 	-0.210921 	0 -0.230106 	-0.21078 	0 -0.230491 	-0.210639 	0 -0.230876 	-0.210498 	0 -0.231266 	-0.210355 	0 -0.23136 	-0.210321 	0 -0.231454 	-0.210286 	0 -0.231548 	-0.210252 	0 -0.231642 	-0.210217 	0 -0.231736 	-0.210183 	0 -0.232215 	-0.210012 	0 -0.232692 	-0.209837 	0 -0.233169 	-0.209663 	0 -0.233644 	-0.209488 	0 -0.234114 	-0.209315 	0 -0.234582 	-0.20915 	0 -0.235051 	-0.208984 	0 -0.235519 	-0.208817 	0 -0.235983 	-0.208645 	0 -0.236442 	-0.208475 	0 -0.236837 	-0.208334 	0 -0.237233 	-0.208192 	0 -0.237629 	-0.20805 	0 -0.238024 	-0.207909 	0 -0.238424 	-0.207765 	0 -0.238483 	-0.207744 	0 -0.238543 	-0.207722 	0 -0.238603 	-0.207701 	0 -0.238663 	-0.20768 	0 -0.238724 	-0.207658 	0 -0.239179 	-0.207498 	0 -0.239633 	-0.207336 	0 -0.240087 	-0.207173 	0 -0.24054 	-0.207011 	0 -0.240988 	-0.20685 	0 -0.241435 	-0.206697 	0 -0.241881 	-0.206543 	0 -0.242326 	-0.206387 	0 -0.242768 	-0.206226 	0 -0.243205 	-0.206068 	0 -0.243641 	-0.205916 	0 -0.244077 	-0.205765 	0 -0.244512 	-0.205613 	0 -0.244947 	-0.205462 	0 -0.245376 	-0.20531 	0 -0.24544 	-0.205287 	0 -0.245504 	-0.205264 	0 -0.245568 	-0.205242 	0 -0.245633 	-0.205219 	0 -0.245698 	-0.205197 	0 -0.246065 	-0.205069 	0 -0.246432 	-0.204942 	0 -0.246799 	-0.204814 	0 -0.247166 	-0.204686 	0 -0.24753 	-0.20456 	0 -0.247956 	-0.204418 	0 -0.248382 	-0.204275 	0 -0.248804 	-0.204126 	0 -0.249227 	-0.203978 	0 -0.249645 	-0.203831 	0 -0.250061 	-0.203691 	0 -0.250477 	-0.203552 	0 -0.250893 	-0.203412 	0 -0.251307 	-0.20327 	0 -0.251716 	-0.203125 	0 -0.251987 	-0.203033 	0 -0.252259 	-0.20294 	0 -0.25253 	-0.202848 	0 -0.252801 	-0.202756 	0 -0.253075 	-0.202663 	0 -0.253211 	-0.202617 	0 -0.253346 	-0.202572 	0 -0.253482 	-0.202526 	0 -0.253618 	-0.202481 	0 -0.253754 	-0.202435 	0 -0.25416 	-0.202303 	0 -0.254565 	-0.202166 	0 -0.25497 	-0.202029 	0 -0.255373 	-0.201892 	0 -0.255774 	-0.201756 	0 -0.256172 	-0.201628 	0 -0.25657 	-0.2015 	0 -0.256967 	-0.201368 	0 -0.257361 	-0.201233 	0 -0.257752 	-0.201099 	0 -0.258141 	-0.200973 	0 -0.258529 	-0.200846 	0 -0.258918 	-0.20072 	0 -0.259306 	-0.200594 	0 -0.259689 	-0.200463 	0 -0.259858 	-0.200407 	0 -0.260029 	-0.200351 	0 -0.260199 	-0.200295 	0 -0.26037 	-0.200239 	0 -0.260542 	-0.200183 	0 -0.260754 	-0.200114 	0 -0.260966 	-0.200045 	0 -0.261179 	-0.199976 	0 -0.261391 	-0.199907 	0 -0.261603 	-0.199839 	0 -0.261985 	-0.199722 	0 -0.262363 	-0.199599 	0 -0.262742 	-0.199475 	0 -0.26312 	-0.199352 	0 -0.263495 	-0.199229 	0 -0.263868 	-0.199115 	0 -0.26424 	-0.199001 	0 -0.264611 	-0.198883 	0 -0.26498 	-0.198761 	0 -0.265347 	-0.19864 	0 -0.26571 	-0.198528 	0 -0.266074 	-0.198415 	0 -0.266438 	-0.198303 	0 -0.266801 	-0.19819 	0 -0.267159 	-0.198072 	0 -0.267341 	-0.198015 	0 -0.267523 	-0.197958 	0 -0.267705 	-0.197901 	0 -0.267888 	-0.197844 	0 -0.268071 	-0.197787 	0 -0.268247 	-0.197733 	0 -0.268423 	-0.197679 	0 -0.268599 	-0.197625 	0 -0.268774 	-0.197571 	0 -0.26895 	-0.197517 	0 -0.269307 	-0.197415 	0 -0.269662 	-0.197305 	0 -0.270017 	-0.197196 	0 -0.270371 	-0.197087 	0 -0.270723 	-0.196978 	0 -0.271072 	-0.196879 	0 -0.271422 	-0.19678 	0 -0.271769 	-0.196675 	0 -0.272114 	-0.196567 	0 -0.272458 	-0.196461 	0 -0.272799 	-0.196364 	0 -0.27314 	-0.196267 	0 -0.27348 	-0.19617 	0 -0.27382 	-0.196071 	0 -0.274156 	-0.195966 	0 -0.27445 	-0.195882 	0 -0.274746 	-0.195798 	0 -0.275041 	-0.195715 	0 -0.275336 	-0.195631 	0 -0.275634 	-0.195546 	0 -0.275671 	-0.195535 	0 -0.275707 	-0.195525 	0 -0.275744 	-0.195515 	0 -0.275782 	-0.195504 	0 -0.27582 	-0.195494 	0 -0.276153 	-0.195404 	0 -0.276486 	-0.195312 	0 -0.276819 	-0.19522 	0 -0.277151 	-0.195128 	0 -0.277482 	-0.195036 	0 -0.27781 	-0.194957 	0 -0.278136 	-0.194873 	0 -0.278461 	-0.194784 	0 -0.278785 	-0.194695 	0 -0.279109 	-0.194606 	0 -0.279428 	-0.19453 	0 -0.279748 	-0.194454 	0 -0.280067 	-0.194377 	0 -0.280383 	-0.194291 	0 -0.280699 	-0.194206 	0 -0.28101 	-0.194134 	0 -0.281322 	-0.194062 	0 -0.281633 	-0.19399 	0 -0.281945 	-0.193917 	0 -0.282253 	-0.193838 	0 -0.282437 	-0.193797 	0 -0.282622 	-0.193756 	0 -0.282807 	-0.193715 	0 -0.282992 	-0.193674 	0 -0.283179 	-0.193633 	0 -0.2833 	-0.193607 	0 -0.283422 	-0.19358 	0 -0.283543 	-0.193554 	0 -0.283665 	-0.193528 	0 -0.283788 	-0.193502 	0 -0.284093 	-0.193445 	0 -0.284399 	-0.193383 	0 -0.284704 	-0.193322 	0 -0.285008 	-0.19326 	0 -0.285313 	-0.193199 	0 -0.285612 	-0.193153 	0 -0.285911 	-0.193106 	0 -0.286209 	-0.193051 	0 -0.286506 	-0.192996 	0 -0.286803 	-0.192941 	0 -0.287095 	-0.192903 	0 -0.287387 	-0.192866 	0 -0.287679 	-0.192828 	0 -0.287969 	-0.192781 	0 -0.288259 	-0.192734 	0 -0.288543 	-0.192705 	0 -0.288828 	-0.192677 	0 -0.289113 	-0.192648 	0 -0.289397 	-0.19262 	0 -0.28968 	-0.192583 	0 -0.289871 	-0.19257 	0 -0.290063 	-0.192558 	0 -0.290255 	-0.192546 	0 -0.290447 	-0.192533 	0 -0.29064 	-0.192521 	0 -0.290727 	-0.192515 	0 -0.290815 	-0.19251 	0 -0.290904 	-0.192505 	0 -0.290992 	-0.1925 	0 -0.291081 	-0.192495 	0 -0.29136 	-0.192493 	0 -0.29164 	-0.192489 	0 -0.291919 	-0.192484 	0 -0.292198 	-0.192479 	0 -0.292477 	-0.192475 	0 -0.29275 	-0.192495 	0 -0.293024 	-0.192511 	0 -0.293296 	-0.19252 	0 -0.293568 	-0.19253 	0 -0.29384 	-0.19254 	0 -0.294106 	-0.192577 	0 -0.294373 	-0.192615 	0 -0.29464 	-0.192648 	0 -0.294905 	-0.192674 	0 -0.29517 	-0.192701 	0 -0.295429 	-0.192757 	0 -0.295689 	-0.192814 	0 -0.295949 	-0.192871 	0 -0.296209 	-0.192925 	0 -0.296468 	-0.19297 	0 -0.29672 	-0.193049 	0 -0.296973 	-0.193128 	0 -0.297226 	-0.193207 	0 -0.297479 	-0.193286 	0 -0.297732 	-0.193364 	0 -0.297766 	-0.193377 	0 -0.2978 	-0.193392 	0 -0.297834 	-0.193406 	0 -0.297869 	-0.193421 	0 -0.297904 	-0.193436 	0 -0.298123 	-0.193527 	0 -0.298343 	-0.193619 	0 -0.298563 	-0.193711 	0 -0.298783 	-0.193802 	0 -0.299004 	-0.193895 	0 -0.299253 	-0.194043 	0 -0.299502 	-0.194178 	0 -0.299751 	-0.194314 	0 -0.3 	-0.19445 	0 -0.30025 	-0.194586 	0 -0.300492 	-0.194768 	0 -0.300735 	-0.194951 	0 -0.300978 	-0.19512 	0 -0.30122 	-0.195288 	0 -0.301464 	-0.195458 	0 -0.3017 	-0.195678 	0 -0.301937 	-0.195899 	0 -0.302173 	-0.19612 	0 -0.30241 	-0.196326 	0 -0.302648 	-0.196533 	0 -0.302877 	-0.196794 	0 -0.303107 	-0.197057 	0 -0.303337 	-0.197321 	0 -0.303568 	-0.197584 	0 -0.3038 	-0.197834 	0 -0.303998 	-0.198109 	0 -0.304197 	-0.198385 	0 -0.304397 	-0.198662 	0 -0.304597 	-0.198939 	0 -0.304797 	-0.199215 	0 -0.304822 	-0.199249 	0 -0.304848 	-0.199283 	0 -0.304873 	-0.199318 	0 -0.304899 	-0.199352 	0 -0.304926 	-0.199389 	0 -0.305152 	-0.199756 	0 -0.305379 	-0.200122 	0 -0.305606 	-0.200489 	0 -0.305834 	-0.200856 	0 -0.306064 	-0.201225 	0 -0.306283 	-0.201669 	0 -0.306504 	-0.202097 	0 -0.306726 	-0.202522 	0 -0.306947 	-0.202947 	0 -0.307171 	-0.203376 	0 -0.307384 	-0.203885 	0 -0.307598 	-0.204397 	0 -0.307814 	-0.20489 	0 -0.308029 	-0.205379 	0 -0.308248 	-0.205874 	0 -0.308454 	-0.206455 	0 -0.308662 	-0.207038 	0 -0.308871 	-0.207621 	0 -0.309081 	-0.208185 	0 -0.309294 	-0.208752 	0 -0.309494 	-0.209411 	0 -0.309697 	-0.210073 	0 -0.309899 	-0.210734 	0 -0.310102 	-0.211395 	0 -0.31031 	-0.212046 	0 -0.310456 	-0.212605 	0 -0.310604 	-0.213168 	0 -0.310752 	-0.21373 	0 -0.3109 	-0.214292 	0 -0.311048 	-0.214849 	0 -0.311099 	-0.215035 	0 -0.311151 	-0.215224 	0 -0.311204 	-0.215413 	0 -0.311256 	-0.215602 	0 -0.31131 	-0.215794 	0 -0.311508 	-0.216646 	0 -0.311708 	-0.217493 	0 -0.311909 	-0.218339 	0 -0.312112 	-0.219184 	0 -0.312318 	-0.220041 	0 -0.312508 	-0.221016 	0 -0.312702 	-0.221973 	0 -0.312898 	-0.222919 	0 -0.313095 	-0.223864 	0 -0.313296 	-0.224824 	0 -0.313481 	-0.225907 	0 -0.313668 	-0.226994 	0 -0.313857 	-0.228059 	0 -0.314049 	-0.229111 	0 -0.314246 	-0.23018 	0 -0.314424 	-0.23138 	0 -0.314606 	-0.232583 	0 -0.314788 	-0.233784 	0 -0.314973 	-0.234965 	0 -0.315165 	-0.236152 	0 -0.315339 	-0.237476 	0 -0.315514 	-0.238801 	0 -0.315691 	-0.240125 	0 -0.315869 	-0.241447 	0 -0.316055 	-0.24278 	0 -0.31612 	-0.243347 	0 -0.316187 	-0.243918 	0 -0.316253 	-0.244489 	0 -0.31632 	-0.24506 	0 -0.316388 	-0.245627 	0 -0.316498 	-0.246519 	0 -0.31661 	-0.247416 	0 -0.316723 	-0.248311 	0 -0.316836 	-0.249206 	0 -0.316953 	-0.250116 	0 -0.317122 	-0.25175 	0 -0.317298 	-0.253356 	0 -0.317476 	-0.25496 	0 -0.317655 	-0.25656 	0 -0.317841 	-0.2582 	0 -0.318003 	-0.259993 	0 -0.318169 	-0.261782 	0 -0.318342 	-0.263528 	0 -0.318516 	-0.265271 	0 -0.318698 	-0.26706 	0 -0.318855 	-0.269006 	0 -0.319014 	-0.270953 	0 -0.319176 	-0.272895 	0 -0.319345 	-0.27479 	0 -0.319523 	-0.276735 	0 -0.319674 	-0.278837 	0 -0.319828 	-0.280941 	0 -0.319984 	-0.283039 	0 -0.320142 	-0.285132 	0 -0.320313 	-0.287257 	0 -0.320387 	-0.288415 	0 -0.320462 	-0.289577 	0 -0.320539 	-0.290737 	0 -0.320615 	-0.291897 	0 -0.320692 	-0.293036 	0 -0.320772 	-0.294159 	0 -0.320854 	-0.295286 	0 -0.320936 	-0.296412 	0 -0.321019 	-0.297537 	0 -0.321105 	-0.298685 	0 -0.32125 	-0.30118 	0 -0.321405 	-0.303635 	0 -0.321562 	-0.306083 	0 -0.321722 	-0.308525 	0 -0.321891 	-0.311055 	0 -0.322028 	-0.313744 	0 -0.322168 	-0.316432 	0 -0.322319 	-0.319052 	0 -0.322474 	-0.321662 	0 -0.322639 	-0.324374 	0 -0.322769 	-0.327241 	0 -0.322903 	-0.330105 	0 -0.323039 	-0.332959 	0 -0.323184 	-0.335772 	0 -0.323344 	-0.338669 	0 -0.323467 	-0.341716 	0 -0.323595 	-0.344758 	0 -0.323726 	-0.34779 	0 -0.32386 	-0.35081 	0 -0.323995 	-0.353774 	0 -0.323997 	-0.353812 	0 -0.323999 	-0.35385 	0 -0.324001 	-0.353888 	0 -0.324003 	-0.353926 	0 -0.324005 	-0.353967 	0 -0.324134 	-0.357235 	0 -0.324269 	-0.360497 	0 -0.324406 	-0.363746 	0 -0.324547 	-0.366984 	0 -0.324699 	-0.370373 	0 -0.32481 	-0.373903 	0 -0.32493 	-0.377399 	0 -0.325062 	-0.380832 	0 -0.325197 	-0.384251 	0 -0.325343 	-0.387842 	0 -0.325447 	-0.391561 	0 -0.325556 	-0.395272 	0 -0.325669 	-0.398968 	0 -0.325