# vtk DataFile Version 2.0
track0
ASCII
DATASET POLYDATA
POINTS 12140 float
-0.0205 0.001 1e-05
-0.0204881 0.0011 1e-05
-0.0204761 0.00119999 1e-05
-0.020464 0.00129996 1e-05
-0.0204518 0.00139992 1e-05
-0.0204394 0.0015 1e-05
-0.0204269 0.0016 1e-05
-0.0204143 0.00169998 1e-05
-0.0204015 0.00179994 1e-05
-0.0203885 0.00189988 1e-05
-0.0203754 0.002 1e-05
-0.0203621 0.0021 1e-05
-0.0203486 0.00219998 1e-05
-0.020335 0.00229992 1e-05
-0.0203212 0.00239985 1e-05
-0.0203071 0.0025 1e-05
-0.0203028 0.00253051 1e-05
-0.0202984 0.00256102 1e-05
-0.020294 0.00259152 1e-05
-0.0202896 0.00262202 1e-05
-0.0202854 0.00265115 1e-05
-0.0202752 0.00272092 1e-05
-0.020265 0.00279068 1e-05
-0.0202546 0.00286042 1e-05
-0.0202442 0.00293014 1e-05
-0.0202336 0.003 1e-05
-0.0202182 0.0031 1e-05
-0.0202027 0.00319996 1e-05
-0.0201869 0.00329989 1e-05
-0.0201709 0.00339978 1e-05
-0.0201546 0.0035 1e-05
-0.020138 0.0036 1e-05
-0.0201213 0.00369996 1e-05
-0.0201042 0.00379987 1e-05
-0.020087 0.00389974 1e-05
-0.0200694 0.004 1e-05
-0.02006 0.00405278 1e-05
-0.0200505 0.00410556 1e-05
-0.0200409 0.00415831 1e-05
-0.0200313 0.00421106 1e-05
-0.0200223 0.00425975 1e-05
-0.0200134 0.0043078 1e-05
-0.0200044 0.00435584 1e-05
-0.0199954 0.00440387 1e-05
-0.0199863 0.00445188 1e-05
-0.0199771 0.0045 1e-05
-0.0199579 0.0046 1e-05
-0.0199384 0.00469995 1e-05
-0.0199187 0.00479984 1e-05
-0.0198986 0.00489967 1e-05
-0.0198782 0.005 1e-05
-0.0198575 0.0051 1e-05
-0.0198366 0.00519994 1e-05
-0.0198154 0.00529982 1e-05
-0.0197938 0.00539964 1e-05
-0.0197719 0.0055 1e-05
-0.0197698 0.00550949 1e-05
-0.0197677 0.00551898 1e-05
-0.0197656 0.00552847 1e-05
-0.0197635 0.00553795 1e-05
-0.0197614 0.00554732 1e-05
-0.0197412 0.00563786 1e-05
-0.0197207 0.00572834 1e-05
-0.0197 0.00581876 1e-05
-0.0196791 0.00590913 1e-05
-0.0196577 0.006 1e-05
-0.019634 0.0061 1e-05
-0.01961 0.00619993 1e-05
-0.0195856 0.00629978 1e-05
-0.0195609 0.00639956 1e-05
-0.0195358 0.0065 1e-05
-0.0195291 0.00652624 1e-05
-0.0195225 0.00655247 1e-05
-0.0195158 0.0065787 1e-05
-0.019509 0.00660492 1e-05
-0.0195025 0.00663031 1e-05
-0.0194834 0.00670424 1e-05
-0.0194642 0.00677814 1e-05
-0.0194448 0.00685199 1e-05
-0.0194252 0.00692579 1e-05
-0.0194053 0.007 1e-05
-0.0193783 0.0071 1e-05
-0.0193509 0.00719991 1e-05
-0.0193232 0.00729974 1e-05
-0.0192953 0.00739948 1e-05
-0.0192667 0.0075 1e-05
-0.0192625 0.00751458 1e-05
-0.0192583 0.00752915 1e-05
-0.0192541 0.00754373 1e-05
-0.0192499 0.0075583 1e-05
-0.0192457 0.00757263 1e-05
-0.0192209 0.00765811 1e-05
-0.0191959 0.00774351 1e-05
-0.0191706 0.00782885 1e-05
-0.0191451 0.00791411 1e-05
-0.0191192 0.008 1e-05
-0.0190936 0.00808398 1e-05
-0.0190677 0.00816788 1e-05
-0.0190416 0.00825172 1e-05
-0.0190153 0.00833548 1e-05
-0.018991 0.00841185 1e-05
-0.0189854 0.00842948 1e-05
-0.0189797 0.00844711 1e-05
-0.0189741 0.00846473 1e-05
-0.0189684 0.00848235 1e-05
-0.0189627 0.0085 1e-05
-0.0189304 0.0086 1e-05
-0.0188977 0.00869989 1e-05
-0.0188647 0.00879967 1e-05
-0.0188314 0.00889934 1e-05
-0.0187973 0.009 1e-05
-0.0187855 0.00903445 1e-05
-0.0187737 0.00906888 1e-05
-0.0187618 0.00910331 1e-05
-0.0187499 0.00913771 1e-05
-0.0187384 0.00917094 1e-05
-0.0187155 0.00923676 1e-05
-0.0186924 0.00930251 1e-05
-0.0186691 0.00936822 1e-05
-0.0186458 0.00943388 1e-05
-0.018622 0.0095 1e-05
-0.0185952 0.00957433 1e-05
-0.0185681 0.0096486 1e-05
-0.0185409 0.00972279 1e-05
-0.0185135 0.00979692 1e-05
-0.0184878 0.00986584 1e-05
-0.0184777 0.00989267 1e-05
-0.0184676 0.0099195 1e-05
-0.0184575 0.00994631 1e-05
-0.0184473 0.00997311 1e-05
-0.0184371 0.01 1e-05
-0.018399 0.0101 1e-05
-0.0183605 0.0101999 1e-05
-0.0183217 0.0102996 1e-05
-0.0182826 0.0103992 1e-05
-0.0182425 0.0105 1e-05
-0.0182419 0.0105017 1e-05
-0.0182412 0.0105033 1e-05
-0.0182405 0.010505 1e-05
-0.0182399 0.0105067 1e-05
-0.0182392 0.0105084 1e-05
-0.0181997 0.0106067 1e-05
-0.0181598 0.0107049 1e-05
-0.0181196 0.0108029 1e-05
-0.0180791 0.0109008 1e-05
-0.0180376 0.011 1e-05
-0.0180286 0.0110213 1e-05
-0.0180196 0.0110427 1e-05
-0.0180106 0.011064 1e-05
-0.0180015 0.0110853 1e-05
-0.0179926 0.0111062 1e-05
-0.017959 0.011185 1e-05
-0.0179251 0.0112636 1e-05
-0.017891 0.0113422 1e-05
-0.0178567 0.0114207 1e-05
-0.0178218 0.0115 1e-05
-0.017807 0.0115332 1e-05
-0.0177922 0.0115665 1e-05
-0.0177774 0.0115997 1e-05
-0.0177625 0.0116328 1e-05
-0.017748 0.0116651 1e-05
-0.0177178 0.0117321 1e-05
-0.0176874 0.011799 1e-05
-0.0176568 0.0118658 1e-05
-0.0176261 0.0119326 1e-05
-0.0175948 0.012 1e-05
-0.0175769 0.0120384 1e-05
-0.017559 0.0120767 1e-05
-0.017541 0.012115 1e-05
-0.0175229 0.0121533 1e-05
-0.0175053 0.0121904 1e-05
-0.0174759 0.0122523 1e-05
-0.0174464 0.0123142 1e-05
-0.0174166 0.0123759 1e-05
-0.0173868 0.0124377 1e-05
-0.0173564 0.0125 1e-05
-0.0173381 0.0125375 1e-05
-0.0173197 0.012575 1e-05
-0.0173012 0.0126124 1e-05
-0.0172827 0.0126498 1e-05
-0.0172647 0.0126861 1e-05
-0.0172334 0.0127489 1e-05
-0.0172019 0.0128116 1e-05
-0.0171703 0.0128742 1e-05
-0.0171386 0.0129368 1e-05
-0.0171063 0.013 1e-05
-0.0170902 0.0130313 1e-05
-0.0170741 0.0130626 1e-05
-0.017058 0.0130939 1e-05
-0.0170418 0.0131251 1e-05
-0.0170259 0.0131556 1e-05
-0.01699 0.0132245 1e-05
-0.0169539 0.0132933 1e-05
-0.0169177 0.013362 1e-05
-0.0168812 0.0134306 1e-05
-0.0168441 0.0135 1e-05
-0.0168331 0.0135204 1e-05
-0.0168221 0.0135408 1e-05
-0.0168111 0.0135613 1e-05
-0.0168 0.0135817 1e-05
-0.0167891 0.0136018 1e-05
-0.0167458 0.0136814 1e-05
-0.0167023 0.0137609 1e-05
-0.0166585 0.0138403 1e-05
-0.0166144 0.0139195 1e-05
-0.0165694 0.014 1e-05
-0.0165663 0.0140054 1e-05
-0.0165633 0.0140108 1e-05
-0.0165603 0.0140162 1e-05
-0.0165572 0.0140215 1e-05
-0.0165542 0.0140269 1e-05
-0.0165076 0.0141093 1e-05
-0.0164607 0.0141916 1e-05
-0.0164136 0.0142737 1e-05
-0.0163662 0.0143556 1e-05
-0.0163212 0.0144328 1e-05
-0.0163133 0.0144462 1e-05
-0.0163054 0.0144597 1e-05
-0.0162975 0.0144731 1e-05
-0.0162896 0.0144865 1e-05
-0.0162816 0.0145 1e-05
-0.0162433 0.0145649 1e-05
-0.0162048 0.0146296 1e-05
-0.0161662 0.0146943 1e-05
-0.0161273 0.0147588 1e-05
-0.01609 0.0148205 1e-05
-0.0160682 0.0148564 1e-05
-0.0160463 0.0148923 1e-05
-0.0160243 0.0149281 1e-05
-0.0160023 0.0149639 1e-05
-0.0159801 0.015 1e-05
-0.0159562 0.0150386 1e-05
-0.0159323 0.0150772 1e-05
-0.0159083 0.0151157 1e-05
-0.0158842 0.0151541 1e-05
-0.0158607 0.0151916 1e-05
-0.0158219 0.0152533 1e-05
-0.015783 0.0153149 1e-05
-0.0157438 0.0153764 1e-05
-0.0157045 0.0154377 1e-05
-0.0156645 0.0155 1e-05
-0.0156582 0.0155096 1e-05
-0.015652 0.0155192 1e-05
-0.0156458 0.0155289 1e-05
-0.0156395 0.0155385 1e-05
-0.0156333 0.015548 1e-05
-0.0155882 0.0156175 1e-05
-0.0155429 0.0156867 1e-05
-0.0154974 0.0157559 1e-05
-0.0154516 0.0158249 1e-05
-0.0154077 0.0158908 1e-05
-0.0153931 0.0159126 1e-05
-0.0153784 0.0159345 1e-05
-0.0153637 0.0159563 1e-05
-0.015349 0.0159781 1e-05
-0.0153342 0.016 1e-05
-0.0153041 0.0160444 1e-05
-0.015274 0.0160887 1e-05
-0.0152438 0.016133 1e-05
-0.0152135 0.0161772 1e-05
-0.0151839 0.0162201 1e-05
-0.0151453 0.0162761 1e-05
-0.0151065 0.016332 1e-05
-0.0150675 0.0163878 1e-05
-0.0150285 0.0164435 1e-05
-0.0149887 0.0165 1e-05
-0.0149833 0.0165075 1e-05
-0.014978 0.0165151 1e-05
-0.0149726 0.0165226 1e-05
-0.0149673 0.0165302 1e-05
-0.0149619 0.0165377 1e-05
-0.0149179 0.0165996 1e-05
-0.0148737 0.0166615 1e-05
-0.0148293 0.0167232 1e-05
-0.0147848 0.0167848 1e-05
-0.0147417 0.0168441 1e-05
-0.014719 0.0168753 1e-05
-0.0146962 0.0169064 1e-05
-0.0146733 0.0169376 1e-05
-0.0146504 0.0169686 1e-05
-0.0146272 0.017 1e-05
-0.0146065 0.0170281 1e-05
-0.0145856 0.0170561 1e-05
-0.0145648 0.0170841 1e-05
-0.0145439 0.0171121 1e-05
-0.0145233 0.0171396 1e-05
-0.01448 0.0171974 1e-05
-0.0144365 0.0172551 1e-05
-0.0143929 0.0173126 1e-05
-0.0143491 0.0173701 1e-05
-0.0143067 0.0174256 1e-05
-0.0142952 0.0174405 1e-05
-0.0142838 0.0174553 1e-05
-0.0142723 0.0174702 1e-05
-0.0142608 0.0174851 1e-05
-0.0142493 0.0175 1e-05
-0.0142178 0.0175407 1e-05
-0.0141862 0.0175813 1e-05
-0.0141545 0.0176219 1e-05
-0.0141228 0.0176624 1e-05
-0.0140917 0.0177019 1e-05
-0.0140491 0.017756 1e-05
-0.0140063 0.01781 1e-05
-0.0139635 0.0178639 1e-05
-0.0139204 0.0179176 1e-05
-0.0138786 0.0179698 1e-05
-0.0138737 0.0179758 1e-05
-0.0138688 0.0179819 1e-05
-0.0138639 0.0179879 1e-05
-0.013859 0.0179939 1e-05
-0.0138541 0.018 1e-05
-0.0138167 0.0180462 1e-05
-0.0137792 0.0180923 1e-05
-0.0137416 0.0181384 1e-05
-0.0137039 0.0181844 1e-05
-0.0136671 0.0182292 1e-05
-0.0136251 0.01828 1e-05
-0.0135831 0.0183306 1e-05
-0.0135409 0.0183812 1e-05
-0.0134986 0.0184317 1e-05
-0.0134573 0.0184808 1e-05
-0.0134541 0.0184847 1e-05
-0.0134509 0.0184885 1e-05
-0.0134476 0.0184923 1e-05
-0.0134444 0.0184962 1e-05
-0.0134411 0.0185 1e-05
-0.0134028 0.0185454 1e-05
-0.0133643 0.0185906 1e-05
-0.0133257 0.0186358 1e-05
-0.0132871 0.018681 1e-05
-0.0132493 0.018725 1e-05
-0.013208 0.0187728 1e-05
-0.0131666 0.0188206 1e-05
-0.0131251 0.0188682 1e-05
-0.0130835 0.0189158 1e-05
-0.0130429 0.0189621 1e-05
-0.0130362 0.0189697 1e-05
-0.0130295 0.0189773 1e-05
-0.0130228 0.0189848 1e-05
-0.0130161 0.0189924 1e-05
-0.0130094 0.019 1e-05
-0.0129752 0.0190388 1e-05
-0.0129408 0.0190774 1e-05
-0.0129065 0.0191161 1e-05
-0.012872 0.0191547 1e-05
-0.0128381 0.0191924 1e-05
-0.0127975 0.0192376 1e-05
-0.0127568 0.0192827 1e-05
-0.012716 0.0193277 1e-05
-0.0126751 0.0193726 1e-05
-0.012635 0.0194165 1e-05
-0.0126197 0.0194332 1e-05
-0.0126044 0.0194499 1e-05
-0.012589 0.0194666 1e-05
-0.0125737 0.0194832 1e-05
-0.0125582 0.0195 1e-05
-0.0125333 0.019527 1e-05
-0.0125083 0.0195539 1e-05
-0.0124833 0.0195809 1e-05
-0.0124583 0.0196077 1e-05
-0.0124336 0.0196343 1e-05
-0.0123936 0.019677 1e-05
-0.0123536 0.0197197 1e-05
-0.0123134 0.0197623 1e-05
-0.0122732 0.0198048 1e-05
-0.0122338 0.0198464 1e-05
-0.0122045 0.0198771 1e-05
-0.0121752 0.0199078 1e-05
-0.0121459 0.0199385 1e-05
-0.0121165 0.0199691 1e-05
-0.0120867 0.02 1e-05
-0.0120765 0.0200106 1e-05
[...]
POINT_DATA 12140
 FIELD attributes 2
p 1 12140 float
-0.00743557 -0.00816759 -0.00889829 -0.00962864 -0.0103589 -0.0110899 -0.0118105 -0.0125308 -0.0132508 -0.0139697 -0.0146898 -0.0154031 -0.0161163 -0.0168293 -0.0175422 -0.0182561 -0.0184724 -0.0186887 -0.0189048 -0.019121 -0.0193274 -0.0198222 -0.0203167 -0.0208112 -0.0213057 -0.0218009 -0.0225051 -0.0232084 -0.0239112 -0.0246138 -0.0253187 -0.0260177 -0.0267165 -0.027415 -0.0281131 -0.0288134 -0.0291802 -0.0295468 -0.0299133 -0.0302798 -0.0306181 -0.0309521 -0.031286 -0.0316198 -0.0319536 -0.0322879 -0.0329794 -0.0336702 -0.0343605 -0.0350506 -0.035744 -0.0364322 -0.03712 -0.0378074 -0.0384946 -0.0391853 -0.0392504 -0.0393155 -0.0393805 -0.0394455 -0.0395096 -0.04013 -0.0407501 -0.0413698 -0.0419893 -0.0426122 -0.0432955 -0.0439784 -0.0446609 -0.0453429 -0.0460292 -0.0462081 -0.0463869 -0.0465657 -0.0467444 -0.0469174 -0.0474212 -0.0479247 -0.048428 -0.048931 -0.0494367 -0.050117 -0.0507968 -0.051476 -0.0521548 -0.0528387 -0.0529379 -0.0530369 -0.053136 -0.053235 -0.0533323 -0.0539127 -0.0544927 -0.0550723 -0.0556514 -0.0562349 -0.0568051 -0.0573749 -0.0579443 -0.0585132 -0.059032 -0.0591517 -0.0592713 -0.0593909 -0.0595105 -0.0596302 -0.0603089 -0.0609868 -0.0616639 -0.0623405 -0.0630238 -0.0632579 -0.063492 -0.0637259 -0.0639598 -0.0641856 -0.0646322 -0.0650784 -0.0655244 -0.0659701 -0.0664189 -0.0669244 -0.0674294 -0.067934 -0.0684382 -0.068907 -0.0690892 -0.0692713 -0.0694533 -0.0696353 -0.0698178 -0.0704985 -0.0711782 -0.0718572 -0.0725352 -0.0732217 -0.0732332 -0.0732446 -0.073256 -0.0732674 -0.0732788 -0.0739488 -0.0746179 -0.0752862 -0.0759535 -0.0766296 -0.0767756 -0.0769216 -0.0770675 -0.0772135 -0.0773567 -0.0778943 -0.0784312 -0.0789676 -0.0795033 -0.080045 -0.0802731 -0.080501 -0.0807289 -0.0809566 -0.081178 -0.0816359 -0.0820934 -0.0825504 -0.0830069 -0.0834681 -0.0837319 -0.0839957 -0.0842593 -0.0845227 -0.084778 -0.0852023 -0.0856261 -0.0860494 -0.0864723 -0.0868995 -0.0871582 -0.0874167 -0.087675 -0.0879332 -0.0881837 -0.0886147 -0.0890452 -0.0894752 -0.0899047 -0.0903389 -0.0905555 -0.0907722 -0.0909886 -0.091205 -0.0914162 -0.0918902 -0.0923636 -0.0928363 -0.0933083 -0.0937863 -0.0939281 -0.0940699 -0.0942116 -0.0943533 -0.0944928 -0.0950424 -0.095591 -0.0961386 -0.0966853 -0.0972404 -0.0972778 -0.0973153 -0.0973528 -0.0973903 -0.0974279 -0.0979981 -0.0985672 -0.0991353 -0.0997021 -0.100236 -0.100328 -0.10042 -0.100512 -0.100604 -0.100697 -0.101147 -0.101596 -0.102045 -0.102493 -0.10292 -0.103167 -0.103414 -0.10366 -0.103906 -0.104154 -0.104422 -0.104691 -0.104959 -0.105226 -0.105487 -0.105912 -0.106336 -0.106759 -0.107182 -0.10761 -0.107677 -0.107745 -0.107812 -0.107879 -0.107946 -0.108425 -0.108903 -0.10938 -0.109856 -0.11031 -0.110459 -0.110608 -0.110756 -0.110905 -0.111054 -0.111361 -0.111668 -0.111974 -0.112279 -0.112576 -0.112958 -0.113339 -0.113719 -0.114098 -0.114483 -0.114536 -0.114588 -0.11464 -0.114692 -0.114744 -0.115167 -0.11559 -0.116011 -0.116431 -0.116836 -0.117045 -0.117254 -0.117462 -0.117671 -0.117881 -0.118072 -0.118263 -0.118455 -0.118646 -0.118834 -0.119221 -0.119607 -0.119993 -0.120378 -0.12075 -0.120847 -0.120945 -0.121043 -0.12114 -0.121239 -0.121511 -0.121784 -0.122055 -0.122326 -0.122591 -0.122945 -0.123299 -0.123651 -0.124003 -0.124344 -0.124382 -0.124421 -0.12446 -0.124498 -0.124537 -0.124839 -0.125141 -0.125442 -0.125743 -0.126035 -0.126358 -0.12668 -0.127002 -0.127322 -0.127634 -0.127657 -0.127681 -0.127705 -0.127729 -0.127753 -0.128041 -0.128328 -0.128614 -0.1289 -0.129178 -0.129471 -0.129764 -0.130056 -0.130346 -0.13063 -0.130675 -0.13072 -0.130765 -0.13081 -0.130855 -0.131091 -0.131327 -0.131562 -0.131797 -0.132027 -0.132291 -0.132555 -0.132818 -0.133081 -0.133339 -0.133432 -0.133526 -0.13362 -0.133713 -0.133808 -0.133965 -0.134121 -0.134277 -0.134433 -0.134586 -0.134823 -0.135059 -0.135295 -0.135531 -0.135762 -0.135924 -0.136085 -0.136246 -0.136406 -0.136568 -0.136626 -0.136683 -0.136741 -0.136799 -0.136857 -0.137065 -0.137276 -0.137486 -0.137695 -0.1379 -0.138091 -0.138282 -0.138473 -0.138662 -0.13885 -0.138894 -0.138939 -0.138984 -0.139029 -0.139075 -0.139211 -0.139346 -0.139481 -0.139616 -0.139749 -0.139913 -0.140077 -0.140242 -0.140408 -0.140569 -0.140707 -0.140845 -0.140982 -0.141118 -0.141256 -0.141265 -0.141273 -0.141283 -0.141292 -0.141302 -0.141441 -0.141581 -0.14172 -0.141858 -0.141995 -0.142114 -0.142234 -0.142353 -0.142475 -0.142596 -0.142678 -0.142761 -0.142843 -0.142925 -0.143008 -0.143029 -0.143051 -0.143072 -0.143093 -0.143114 -0.143209 -0.143305 -0.1434 -0.143495 -0.143588 -0.143664 -0.143739 -0.143813 -0.143892 -0.143968 -0.144019 -0.14407 -0.14412 -0.14417 -0.14422 -0.144228 -0.144236 -0.144244 -0.144253 -0.144263 -0.144312 -0.144364 -0.144414 -0.144464 -0.144514 -0.144542 -0.144571 -0.144603 -0.144637 -0.144671 -0.144683 -0.144696 -0.144707 -0.144719 -0.144732 -0.14473 -0.14473 -0.144729 -0.144729 -0.14473 -0.144734 -0.144739 -0.144743 -0.144747 -0.14475 -0.144733 -0.144717 -0.144705 -0.144693 -0.14468 -0.144646 -0.144612 -0.144576 -0.144543 -0.144514 -0.144481 -0.144447 -0.144413 -0.144378 -0.144342 -0.144327 -0.144312 -0.144298 -0.144283 -0.14427 -0.144204 -0.144145 -0.144086 -0.144026 -0.143967 -0.143882 -0.143797 -0.143716 -0.143639 -0.143564 -0.143461 -0.143359 -0.143257 -0.143154 -0.143061 -0.143007 -0.142954 -0.142901 -0.142847 -0.142795 -0.142735 -0.142674 -0.142613 -0.142553 -0.142492 -0.142356 -0.14223 -0.142104 -0.141977 -0.141851 -0.141698 -0.141544 -0.141394 -0.14125 -0.141106 -0.140935 -0.140764 -0.140593 -0.14042 -0.140259 -0.140163 -0.140066 -0.139969 -0.139873 -0.139775 -0.139686 -0.139598 -0.13951 -0.139422 -0.139335 -0.139126 -0.138929 -0.138731 -0.138533 -0.138337 -0.138107 -0.137878 -0.137659 -0.137444 -0.137229 -0.136982 -0.136736 -0.136489 -0.136246 -0.136016 -0.135781 -0.135546 -0.135311 -0.135076 -0.134839 -0.134811 -0.134783 -0.134755 -0.134727 -0.134699 -0.134423 -0.13415 -0.133877 -0.133603 -0.133332 -0.133024 -0.132725 -0.132433 -0.132142 -0.131851 -0.131525 -0.131199 -0.130875 -0.130566 -0.13026 -0.129916 -0.129572 -0.129228 -0.128883 -0.128553 -0.128333 -0.128113 -0.127893 -0.127673 -0.127452 -0.127312 -0.127173 -0.127035 -0.126896 -0.126759 -0.126376 -0.126003 -0.12563 -0.125257 -0.124885 -0.124472 -0.124066 -0.123675 -0.123284 -0.122895 -0.122465 -0.122034 -0.121603 -0.121194 -0.120786 -0.120336 -0.119888 -0.119439 -0.118989 -0.118561 -0.118238 -0.117915 -0.117592 -0.117269 -0.116944 -0.116802 -0.116661 -0.116519 -0.116378 -0.116237 -0.11575 -0.115273 -0.114796 -0.114319 -0.113845 -0.113323 -0.112815 -0.112319 -0.111823 -0.111328 -0.110787 -0.110248 -0.109717 -0.109204 -0.108693 -0.108134 -0.107575 -0.107015 -0.106462 -0.105931 -0.105352 -0.104775 -0.104198 -0.103621 -0.103051 -0.102967 -0.102884 -0.102801 -0.102718 -0.102635 -0.102127 -0.101619 -0.10111 -0.100602 -0.100093 -0.099455 -0.0988464 -0.0982378 -0.0976292 -0.0970214 -0.0963626 -0.0957027 -0.0950743 -0.0944459 -0.0938159 -0.0931365 -0.0924578 -0.0917792 -0.0911321 -0.0904864 -0.0897903 -0.0890927 -0.0883953 -0.087698 -0.0870292 -0.0863902 -0.085752 -0.085114 -0.0844762 -0.0838424 -0.0837629 -0.0836835 -0.0836044 -0.0835259 -0.0834498 -0.0827149 -0.0819847 -0.0812549 -0.0805254 -0.079794 -0.0790045 -0.0782501 -0.0775015 -0.0767533 -0.0760046 -0.0752006 -0.0743973 -0.0736266 -0.0728629 -0.0720958 -0.0712707 -0.0704484 -0.0696267 -0.0688374 -0.0680533 -0.0672141 -0.0663759 -0.0655386 -0.064702 -0.0638909 -0.0632442 -0.0625997 -0.0619556 -0.0613121 -0.0606802 -0.0604661 -0.0602529 -0.0600399 -0.0598269 -0.0596147 -0.058737 -0.0578712 -0.0570064 -0.0561428 -0.0552706 -0.0543423 -0.0534465 -0.0525655 -0.0516856 -0.0507972 -0.0498539 -0.0489118 -0.047999 -0.0471042 -0.0461976 -0.045236 -0.0442773 -0.0433202 -0.0423891 -0.0414665 -0.0404902 -0.0395155 -0.0385427 -0.0375718 -0.036605 -0.0362145 -0.0358253 -0.0354365 -0.035048 -0.034666 -0.0340637 -0.0334642 -0.0328655 -0.0322676 -0.031665 -0.0306274 -0.0296272 -0.0286293 -0.0276338 -0.0266184 -0.0255465 -0.0244856 -0.0234708 -0.0224585 -0.0214247 -0.0203359 -0.0192505 -0.0181682 -0.0171346 -0.0160796 -0.0149712 -0.0138676 -0.0127673 -0.0116703 -0.0105782 -0.0100008 -0.00942443 -0.00884899 -0.00827448 -0.0077129 -0.00716288 -0.00661355 -0.00606509 -0.00551749 -0.00496164 -0.00378559 -0.00264989 -0.00151799 -0.000389866 0.00077421 0.00198856 0.0031986 0.00435258 0.00550055 0.00669007 0.00792777 0.00915951 0.0103865 0.0115821 0.0127948 0.0140541 0.0153087 0.0165583 0.0178029 0.0190208 0.0190364 0.019052 0.0190675 0.0190831 0.0190984 0.0203755 0.0216437 0.0229066 0.0241642 0.0254747 0.0268325 0.0281631 0.0294508 0.0307329 0.0320748 0.03346 0.0348363 0.0362062 0.0375358 0.0389054 0.0401596 0.0414078 0.0426507 0.0438883 0.0450818 0.0452594 0.0454369 0.0456141 0.0457912 0.0459692 0.047419 0.0488446 0.0502633 0.051675 0.0531624 0.0547044 0.0562386 0.0577177 0.0591738 0.0607147 0.0623044 0.0638841 0.0654554 0.0670184 0.0686351 0.0690646 0.0694934 0.0699216 0.0703492 0.0707728 0.0719525 0.0731243 0.0742914 0.0754538 0.0766662 0.0783848 0.0800735 0.0817033 0.0833242 0.0850475 0.0868858 0.0887136 0.0905304 0.0923367 0.094219 0.0947116 0.0951974 0.0956825 0.0961668 0.0966413 0.098034 0.0994123 0.100784 0.10215 0.103579 0.105529 0.107457 0.109317 0.111151 0.113168 0.114114 0.115055 0.115992 0.116926 0.117839 0.119344 0.12083 0.122302 0.123761 0.125381 0.126161 0.126928 0.12769 0.128448 0.129182 0.130632 0.132039 0.133419 0.134774 0.136344 0.136609 0.136853 0.137096 0.137338 0.137558 0.138351 0.139075 0.139764 0.14042 0.140994 0.140967 0.140911 0.140853 0.140793 0.140701 0.140303 0.139854 0.139386 0.138899 0.138374 0.137083 0.135737 0.134366 0.13297 0.131131 0.131046 0.130958 0.130859 0.130759 0.130633 0.128222 0.125781 0.123319 0.120838 0.118361 0.115495 0.112595 0.109677 0.106742 0.103833 0.102958 0.102072 0.101184 0.100296 0.0993145 0.097046 0.0947654 0.0924791 0.0901875 0.0878987 0.0846989 0.081477 0.0782263 0.0749663 0.0717171 0.0686116 0.0654961 0.0623723 0.0592164 0.0560432 0.0531091 0.0501671 0.0472178 0.0442615 0.0413001 0.040997 0.0406943 0.0403915 0.0400889 0.0397748 0.0373242 0.0348686 0.0324092 0.0299462 0.0274844 0.0250669 0.0225689 0.0200666 0.0175601 0.015053 0.0129853 0.010877 0.00866734 0.00645382 0.00423847 0.00255466 0.000865558 -0.0009571 -0.0028654 -0.00477687 -0.00604307 -0.00731391 -0.00861546 -0.010219 -0.0118258 -0.0126515 -0.0134821 -0.0143163 -0.0154608 -0.0167791 -0.0171634 -0.0175525 -0.0179455 -0.0185212 -0.0195871 -0.0196077 -0.0196377 -0.0196716 -0.0197092 -0.0205692 -0.0204832 -0.0204184 -0.0203577 -0.0203011 -0.0209358 -0.0212891 -0.0216888 -0.0220933 -0.0225025 -0.0233831 -0.0251809 -0.027071 -0.0289671 -0.030869 -0.0330084 -0.0364896 -0.0401382 -0.0437909 -0.0475022 -0.0520281 -0.0533372 -0.0546468 -0.055957 -0.0572676 -0.0587737 -0.0696401 -0.080777 -0.0919171 -0.10306 -0.114532 -0.134998 -0.155416 -0.175834 -0.196253 -0.217132 -0.250565 -0.283423 -0.316279 -0.349132 -0.382535 -0.430214 -0.47692 -0.523628 -0.570338 -0.617597 -0.677923 -0.737342 -0.796774 -0.856218 -0.916129 -0.985193 -1.05413 -1.12309 -1.19207 -1.26138 -1.33387 -1.40805 -1.48225 -1.55647 -1.63084 -1.70205 -1.77611 -1.85122 -1.92633 -2.00141 -2.06859 -2.1376 -2.21032 -2.28304 -2.35562 -2.41619 -2.4765 -2.54256 -2.60919 -2.67557 -2.72318 -2.77034 -2.82003 -2.87246 -2.92445 -2.95342 -2.982 -3.01087 -3.04186 -3.07246 -3.08857 -3.1047 -3.12088 -3.13622 -3.15138 -3.15948 -3.16747 -3.17552 -3.18203 -3.18759 -3.18986 -3.19224 -3.19464 -3.19652 -3.19801 -3.19905 -3.20008 -3.20113 -3.20225 -3.20339