# vtk DataFile Version 2.0
track0
ASCII
DATASET POLYDATA
POINTS 12120 float
-0.0205 0.001 1e-05
-0.0204916 0.0011 1e-05
-0.020483 0.00119999 1e-05
-0.0204744 0.00129997 1e-05
-0.0204656 0.00139993 1e-05
-0.0204566 0.0015 1e-05
-0.0204475 0.0016 1e-05
-0.0204383 0.00169998 1e-05
-0.0204289 0.00179995 1e-05
-0.0204193 0.00189991 1e-05
-0.0204096 0.002 1e-05
-0.0203996 0.0021 1e-05
-0.0203895 0.00219998 1e-05
-0.0203792 0.00229994 1e-05
-0.0203687 0.00239988 1e-05
-0.0203579 0.0025 1e-05
-0.020347 0.0026 1e-05
-0.0203359 0.00269998 1e-05
-0.0203245 0.00279993 1e-05
-0.0203129 0.00289985 1e-05
-0.020301 0.003 1e-05
-0.0202979 0.00302597 1e-05
-0.0202948 0.00305193 1e-05
-0.0202916 0.0030779 1e-05
-0.0202884 0.00310386 1e-05
-0.0202854 0.0031285 1e-05
-0.0202762 0.0032028 1e-05
-0.0202669 0.00327708 1e-05
-0.0202574 0.00335135 1e-05
-0.0202478 0.0034256 1e-05
-0.0202381 0.0035 1e-05
-0.0202248 0.0036 1e-05
-0.0202113 0.00369997 1e-05
-0.0201975 0.0037999 1e-05
-0.0201834 0.00389979 1e-05
-0.0201691 0.004 1e-05
-0.0201545 0.0041 1e-05
-0.0201397 0.00419996 1e-05
-0.0201246 0.00429988 1e-05
-0.0201092 0.00439976 1e-05
-0.0200935 0.0045 1e-05
-0.0200792 0.00458928 1e-05
-0.0200648 0.00467852 1e-05
-0.0200501 0.00476773 1e-05
-0.0200352 0.0048569 1e-05
-0.0200223 0.00493318 1e-05
-0.02002 0.00494655 1e-05
-0.0200177 0.00495991 1e-05
-0.0200154 0.00497327 1e-05
-0.0200131 0.00498663 1e-05
-0.0200108 0.005 1e-05
-0.0199935 0.0051 1e-05
-0.0199758 0.00519995 1e-05
-0.0199579 0.00529985 1e-05
-0.0199397 0.0053997 1e-05
-0.0199212 0.0055 1e-05
-0.0199024 0.0056 1e-05
-0.0198833 0.00569995 1e-05
-0.019864 0.00579984 1e-05
-0.0198443 0.00589967 1e-05
-0.0198243 0.006 1e-05
-0.0198117 0.00606205 1e-05
-0.019799 0.00612408 1e-05
-0.0197862 0.00618609 1e-05
-0.0197733 0.00624808 1e-05
-0.0197614 0.00630473 1e-05
-0.0197531 0.00634379 1e-05
-0.0197448 0.00638283 1e-05
-0.0197364 0.00642187 1e-05
-0.019728 0.00646089 1e-05
-0.0197195 0.0065 1e-05
-0.0196977 0.0066 1e-05
-0.0196756 0.00669994 1e-05
-0.0196533 0.00679981 1e-05
-0.0196306 0.00689961 1e-05
-0.0196075 0.007 1e-05
-0.0195865 0.00708994 1e-05
-0.0195652 0.00717982 1e-05
-0.0195438 0.00726964 1e-05
-0.0195221 0.00735941 1e-05
-0.0195025 0.00743926 1e-05
-0.0194995 0.00745141 1e-05
-0.0194965 0.00746356 1e-05
-0.0194935 0.0074757 1e-05
-0.0194905 0.00748785 1e-05
-0.0194874 0.0075 1e-05
-0.0194625 0.0076 1e-05
-0.0194373 0.00769992 1e-05
-0.0194118 0.00779977 1e-05
-0.0193859 0.00789954 1e-05
-0.0193596 0.008 1e-05
-0.0193368 0.00808581 1e-05
-0.0193138 0.00817157 1e-05
-0.0192906 0.00825726 1e-05
-0.0192672 0.00834289 1e-05
-0.0192457 0.0084203 1e-05
-0.0192413 0.00843624 1e-05
-0.0192368 0.00845218 1e-05
-0.0192324 0.00846811 1e-05
-0.0192279 0.00848405 1e-05
-0.0192234 0.0085 1e-05
-0.0191952 0.0086 1e-05
-0.0191667 0.00869991 1e-05
-0.0191379 0.00879973 1e-05
-0.0191088 0.00889947 1e-05
-0.0190791 0.009 1e-05
-0.0190615 0.00905891 1e-05
-0.0190437 0.0091178 1e-05
-0.0190259 0.00917665 1e-05
-0.019008 0.00923546 1e-05
-0.018991 0.00929068 1e-05
-0.0189781 0.00933254 1e-05
-0.0189651 0.00937439 1e-05
-0.0189521 0.00941622 1e-05
-0.018939 0.00945803 1e-05
-0.0189258 0.0095 1e-05
-0.0188942 0.0096 1e-05
-0.0188622 0.0096999 1e-05
-0.01883 0.00979969 1e-05
-0.0187974 0.00989938 1e-05
-0.0187642 0.01 1e-05
-0.018759 0.0100154 1e-05
-0.0187538 0.0100309 1e-05
-0.0187487 0.0100463 1e-05
-0.0187435 0.0100617 1e-05
-0.0187384 0.0100769 1e-05
-0.0187099 0.0101615 1e-05
-0.0186812 0.0102461 1e-05
-0.0186522 0.0103305 1e-05
-0.018623 0.0104149 1e-05
-0.0185934 0.0105 1e-05
-0.0185722 0.01056 1e-05
-0.018551 0.0106199 1e-05
-0.0185297 0.0106798 1e-05
-0.0185082 0.0107396 1e-05
-0.0184878 0.0107961 1e-05
-0.018473 0.0108369 1e-05
-0.0184581 0.0108777 1e-05
-0.0184432 0.0109184 1e-05
-0.0184282 0.0109591 1e-05
-0.0184131 0.011 1e-05
-0.0183783 0.0110938 1e-05
-0.0183433 0.0111875 1e-05
-0.0183079 0.0112811 1e-05
-0.0182722 0.0113746 1e-05
-0.0182392 0.0114603 1e-05
-0.0182361 0.0114683 1e-05
-0.018233 0.0114762 1e-05
-0.0182299 0.0114841 1e-05
-0.0182268 0.0114921 1e-05
-0.0182237 0.0115 1e-05
-0.0181847 0.0116 1e-05
-0.0181454 0.0116999 1e-05
-0.0181057 0.0117996 1e-05
-0.0180657 0.0118992 1e-05
-0.0180248 0.012 1e-05
-0.0180184 0.0120157 1e-05
-0.0180119 0.0120314 1e-05
-0.0180054 0.0120471 1e-05
-0.017999 0.0120629 1e-05
-0.0179926 0.0120783 1e-05
-0.0179578 0.0121627 1e-05
-0.0179227 0.0122469 1e-05
-0.0178874 0.012331 1e-05
-0.0178518 0.0124151 1e-05
-0.0178156 0.0125 1e-05
-0.0178021 0.0125314 1e-05
-0.0177885 0.0125628 1e-05
-0.0177749 0.0125942 1e-05
-0.0177613 0.0126256 1e-05
-0.017748 0.0126562 1e-05
-0.017718 0.012725 1e-05
-0.0176878 0.0127937 1e-05
-0.0176574 0.0128623 1e-05
-0.0176269 0.0129308 1e-05
-0.0175959 0.013 1e-05
-0.0175778 0.0130401 1e-05
-0.0175596 0.0130803 1e-05
-0.0175414 0.0131204 1e-05
-0.0175231 0.0131604 1e-05
-0.0175053 0.0131992 1e-05
-0.0174777 0.0132594 1e-05
-0.0174499 0.0133195 1e-05
-0.017422 0.0133795 1e-05
-0.017394 0.0134395 1e-05
-0.0173655 0.0135 1e-05
-0.0173454 0.0135427 1e-05
-0.0173251 0.0135853 1e-05
-0.0173048 0.0136279 1e-05
-0.0172844 0.0136705 1e-05
-0.0172647 0.0137117 1e-05
-0.0172369 0.0137694 1e-05
-0.017209 0.013827 1e-05
-0.0171809 0.0138845 1e-05
-0.0171528 0.013942 1e-05
-0.0171242 0.014 1e-05
-0.0171045 0.0140397 1e-05
-0.0170848 0.0140794 1e-05
-0.0170651 0.014119 1e-05
-0.0170452 0.0141586 1e-05
-0.0170259 0.0141971 1e-05
-0.0169954 0.0142577 1e-05
-0.0169647 0.0143182 1e-05
-0.0169339 0.0143786 1e-05
-0.016903 0.014439 1e-05
-0.0168716 0.0145 1e-05
-0.0168551 0.0145318 1e-05
-0.0168385 0.0145636 1e-05
-0.016822 0.0145954 1e-05
-0.0168054 0.0146272 1e-05
-0.0167891 0.0146583 1e-05
-0.0167532 0.0147266 1e-05
-0.0167171 0.0147949 1e-05
-0.0166808 0.014863 1e-05
-0.0166444 0.0149311 1e-05
-0.0166073 0.015 1e-05
-0.0165967 0.0150196 1e-05
-0.016586 0.0150392 1e-05
-0.0165754 0.0150588 1e-05
-0.0165647 0.0150784 1e-05
-0.0165542 0.0150977 1e-05
-0.0165102 0.0151781 1e-05
-0.016466 0.0152585 1e-05
-0.0164215 0.0153387 1e-05
-0.0163768 0.0154187 1e-05
-0.0163311 0.0155 1e-05
-0.0163291 0.0155035 1e-05
-0.0163271 0.015507 1e-05
-0.0163251 0.0155105 1e-05
-0.0163232 0.015514 1e-05
-0.0163212 0.0155175 1e-05
-0.0162749 0.015599 1e-05
-0.0162285 0.0156804 1e-05
-0.0161817 0.0157616 1e-05
-0.0161347 0.0158426 1e-05
-0.01609 0.0159192 1e-05
-0.0160805 0.0159354 1e-05
-0.016071 0.0159515 1e-05
-0.0160615 0.0159677 1e-05
-0.016052 0.0159838 1e-05
-0.0160424 0.016 1e-05
-0.0160061 0.0160614 1e-05
-0.0159696 0.0161227 1e-05
-0.015933 0.0161839 1e-05
-0.0158962 0.016245 1e-05
-0.0158607 0.0163037 1e-05
-0.0158369 0.016343 1e-05
-0.015813 0.0163822 1e-05
-0.015789 0.0164214 1e-05
-0.0157649 0.0164605 1e-05
-0.0157406 0.0165 1e-05
-0.0157192 0.0165347 1e-05
-0.0156977 0.0165694 1e-05
-0.0156761 0.0166041 1e-05
-0.0156545 0.0166387 1e-05
-0.0156333 0.0166725 1e-05
-0.0155922 0.016738 1e-05
-0.015551 0.0168034 1e-05
-0.0155095 0.0168687 1e-05
-0.0154679 0.0169339 1e-05
-0.0154255 0.017 1e-05
-0.0154219 0.0170055 1e-05
-0.0154184 0.017011 1e-05
-0.0154148 0.0170165 1e-05
-0.0154113 0.017022 1e-05
-0.0154077 0.0170275 1e-05
-0.015363 0.0170967 1e-05
-0.015318 0.0171657 1e-05
-0.0152729 0.0172347 1e-05
-0.0152276 0.0173035 1e-05
-0.0151839 0.0173693 1e-05
-0.0151665 0.0173955 1e-05
-0.0151491 0.0174216 1e-05
-0.0151316 0.0174477 1e-05
-0.0151141 0.0174738 1e-05
-0.0150965 0.0175 1e-05
-0.0150696 0.0175399 1e-05
-0.0150426 0.0175798 1e-05
-0.0150156 0.0176197 1e-05
-0.0149885 0.0176595 1e-05
-0.0149619 0.0176983 1e-05
-0.0149206 0.0177587 1e-05
-0.0148791 0.0178189 1e-05
-0.0148375 0.017879 1e-05
-0.0147957 0.0179391 1e-05
-0.0147531 0.018 1e-05
-0.0147508 0.0180032 1e-05
-0.0147486 0.0180065 1e-05
-0.0147463 0.0180097 1e-05
-0.014744 0.0180129 1e-05
-0.0147417 0.0180161 1e-05
-0.0146981 0.0180782 1e-05
-0.0146542 0.0181401 1e-05
-0.0146102 0.018202 1e-05
-0.0145661 0.0182637 1e-05
-0.0145233 0.0183232 1e-05
-0.0144978 0.0183586 1e-05
-0.0144722 0.0183939 1e-05
-0.0144465 0.0184292 1e-05
-0.0144208 0.0184644 1e-05
-0.0143948 0.0185 1e-05
-0.0143772 0.018524 1e-05
-0.0143595 0.0185481 1e-05
-0.0143419 0.0185721 1e-05
-0.0143242 0.0185961 1e-05
-0.0143067 0.0186197 1e-05
-0.0142637 0.0186777 1e-05
-0.0142206 0.0187357 1e-05
-0.0141773 0.0187935 1e-05
-0.0141339 0.0188512 1e-05
-0.0140917 0.018907 1e-05
-0.0140776 0.0189256 1e-05
-0.0140635 0.0189442 1e-05
-0.0140494 0.0189628 1e-05
-0.0140352 0.0189813 1e-05
-0.014021 0.019 1e-05
-0.0139925 0.0190372 1e-05
-0.0139639 0.0190744 1e-05
-0.0139354 0.0191116 1e-05
-0.0139067 0.0191487 1e-05
-0.0138786 0.019185 1e-05
-0.0138363 0.0192395 1e-05
-0.0137939 0.0192938 1e-05
-0.0137513 0.0193481 1e-05
-0.0137087 0.0194022 1e-05
-0.0136671 0.0194548 1e-05
-0.0136599 0.0194638 1e-05
-0.0136527 0.0194729 1e-05
-0.0136455 0.0194819 1e-05
-0.0136383 0.0194909 1e-05
-0.0136311 0.0195 1e-05
-0.0135964 0.0195436 1e-05
-0.0135615 0.0195871 1e-05
-0.0135266 0.0196306 1e-05
-0.0134916 0.019674 1e-05
-0.0134573 0.0197163 1e-05
-0.0134157 0.0197676 1e-05
-0.013374 0.0198188 1e-05
-0.0133322 0.0198698 1e-05
-0.0132902 0.0199208 1e-05
-0.0132493 0.0199704 1e-05
-0.0132444 0.0199763 1e-05
-0.0132394 0.0199823 1e-05
-0.0132345 0.0199882 1e-05
-0.0132296 0.0199941 1e-05
-0.0132247 0.02 1e-05
-0.0131883 0.0200437 1e-05
-0.0131519 0.0200874 1e-05
-0.0131154 0.020131 1e-05
-0.0130788 0.0201746 1e-05
-0.0130429 0.0202172 1e-05
-0.0130019 0.0202655 1e-05
-0.0129609 0.0203138 1e-05
-0.0129197 0.020362 1e-05
-0.0128785 0.0204102 1e-05
-0.0128381 0.0204571 1e-05
-0.0128307 0.0204657 1e-05
-0.0128233 0.0204743 1e-05
-0.0128159 0.0204828 1e-05
-0.0128085 0.0204914 1e-05
-0.012801 0.0205 1e-05
-0.0127678 0.0205383 1e-05
-0.0127346 0.0205766 1e-05
-0.0127013 0.0206148 1e-05
-0.0126679 0.0206529 1e-05
-0.012635 0.0206904 1e-05
-0.0125947 0.0207361 1e-05
-0.0125544 0.0207818 1e-05
-0.0125139 0.0208274 1e-05
-0.0124734 0.020873 1e-05
-0.0124336 0.0209175 1e-05
-0.0124188 0.020934 1e-05
-0.012404 0.0209505 1e-05
-0.0123892 0.020967 1e-05
[...]
POINT_DATA 12120
 FIELD attributes 1
U 3 12120 float
-0.02477 	-0.29428 	0 -0.0251519 	-0.294259 	0 -0.0255346 	-0.294236 	0 -0.0259168 	-0.294212 	0 -0.0262989 	-0.294187 	0 -0.0266846 	-0.294162 	0 -0.0271805 	-0.294131 	0 -0.0276789 	-0.2941 	0 -0.0281743 	-0.294066 	0 -0.028669 	-0.294031 	0 -0.0291671 	-0.293996 	0 -0.0297527 	-0.293952 	0 -0.0303403 	-0.293908 	0 -0.0309277 	-0.293862 	0 -0.0315123 	-0.293814 	0 -0.0320989 	-0.293764 	0 -0.0327537 	-0.293706 	0 -0.0334098 	-0.293647 	0 -0.0340658 	-0.293586 	0 -0.0347215 	-0.293524 	0 -0.0353789 	-0.29346 	0 -0.0355615 	-0.293441 	0 -0.0357454 	-0.293421 	0 -0.0359292 	-0.293402 	0 -0.036113 	-0.293383 	0 -0.0362887 	-0.293364 	0 -0.0368142 	-0.293308 	0 -0.0373409 	-0.293251 	0 -0.0378675 	-0.293194 	0 -0.0383939 	-0.293135 	0 -0.0389226 	-0.293076 	0 -0.0396728 	-0.292988 	0 -0.0404206 	-0.292897 	0 -0.0411675 	-0.292804 	0 -0.0419142 	-0.29271 	0 -0.0426641 	-0.292614 	0 -0.0434425 	-0.292509 	0 -0.0442213 	-0.292403 	0 -0.0449998 	-0.292295 	0 -0.0457749 	-0.292185 	0 -0.0465531 	-0.292072 	0 -0.0472665 	-0.291964 	0 -0.0479802 	-0.291855 	0 -0.0486936 	-0.291744 	0 -0.0494068 	-0.291632 	0 -0.0500175 	-0.291535 	0 -0.0501242 	-0.291518 	0 -0.0502312 	-0.291501 	0 -0.0503382 	-0.291484 	0 -0.0504453 	-0.291467 	0 -0.0505529 	-0.291449 	0 -0.0513698 	-0.291312 	0 -0.0521858 	-0.291173 	0 -0.0530015 	-0.291032 	0 -0.0538169 	-0.29089 	0 -0.0546364 	-0.290745 	0 -0.0554673 	-0.290593 	0 -0.0562982 	-0.290439 	0 -0.0571287 	-0.290283 	0 -0.0579563 	-0.290125 	0 -0.0587881 	-0.289964 	0 -0.0593097 	-0.289859 	0 -0.0598313 	-0.289754 	0 -0.0603528 	-0.289648 	0 -0.0608742 	-0.289542 	0 -0.0613511 	-0.289444 	0 -0.06168 	-0.289376 	0 -0.062009 	-0.289308 	0 -0.062338 	-0.28924 	0 -0.062667 	-0.289171 	0 -0.0629969 	-0.289102 	0 -0.0638499 	-0.288919 	0 -0.0647012 	-0.288733 	0 -0.0655511 	-0.288546 	0 -0.0664007 	-0.288356 	0 -0.0672557 	-0.288164 	0 -0.0680298 	-0.287985 	0 -0.0688037 	-0.287805 	0 -0.0695773 	-0.287623 	0 -0.0703506 	-0.287441 	0 -0.0710388 	-0.287277 	0 -0.0711435 	-0.287252 	0 -0.0712484 	-0.287226 	0 -0.0713532 	-0.287201 	0 -0.0714581 	-0.287176 	0 -0.0715632 	-0.287151 	0 -0.072434 	-0.286937 	0 -0.0733034 	-0.286721 	0 -0.0741723 	-0.286503 	0 -0.0750409 	-0.286284 	0 -0.0759159 	-0.286061 	0 -0.0766703 	-0.285864 	0 -0.0774246 	-0.285667 	0 -0.0781786 	-0.285468 	0 -0.0789322 	-0.285268 	0 -0.0796138 	-0.285086 	0 -0.0797542 	-0.285048 	0 -0.0798948 	-0.285011 	0 -0.0800354 	-0.284973 	0 -0.080176 	-0.284935 	0 -0.0803169 	-0.284897 	0 -0.0812071 	-0.284654 	0 -0.0820952 	-0.284408 	0 -0.0829827 	-0.284161 	0 -0.0838699 	-0.283912 	0 -0.0847646 	-0.283659 	0 -0.0852937 	-0.283507 	0 -0.0858227 	-0.283354 	0 -0.0863516 	-0.283201 	0 -0.0868803 	-0.283047 	0 -0.0873769 	-0.282902 	0 -0.0877539 	-0.282792 	0 -0.088131 	-0.282681 	0 -0.0885079 	-0.28257 	0 -0.0888848 	-0.282459 	0 -0.0892632 	-0.282347 	0 -0.0901729 	-0.282075 	0 -0.0910821 	-0.281801 	0 -0.0919907 	-0.281526 	0 -0.0928981 	-0.281248 	0 -0.0938137 	-0.280966 	0 -0.0939553 	-0.280921 	0 -0.0940971 	-0.280877 	0 -0.0942389 	-0.280832 	0 -0.0943807 	-0.280788 	0 -0.0945205 	-0.280744 	0 -0.0952992 	-0.2805 	0 -0.0960776 	-0.280255 	0 -0.0968555 	-0.280009 	0 -0.097633 	-0.279761 	0 -0.0984176 	-0.27951 	0 -0.0989756 	-0.27933 	0 -0.0995334 	-0.279149 	0 -0.100091 	-0.278967 	0 -0.100648 	-0.278785 	0 -0.101175 	-0.278612 	0 -0.101556 	-0.278487 	0 -0.101936 	-0.278362 	0 -0.102317 	-0.278237 	0 -0.102697 	-0.278111 	0 -0.103079 	-0.277985 	0 -0.103964 	-0.27769 	0 -0.104848 	-0.277394 	0 -0.105731 	-0.277096 	0 -0.106614 	-0.276797 	0 -0.107424 	-0.276521 	0 -0.107499 	-0.276495 	0 -0.107575 	-0.276469 	0 -0.10765 	-0.276444 	0 -0.107725 	-0.276418 	0 -0.1078 	-0.276392 	0 -0.108756 	-0.276065 	0 -0.10971 	-0.275735 	0 -0.110664 	-0.275404 	0 -0.111616 	-0.275071 	0 -0.112581 	-0.274731 	0 -0.112733 	-0.274678 	0 -0.112885 	-0.274624 	0 -0.113037 	-0.27457 	0 -0.113189 	-0.274516 	0 -0.113339 	-0.274462 	0 -0.114155 	-0.274173 	0 -0.114971 	-0.273883 	0 -0.115787 	-0.273591 	0 -0.116602 	-0.273299 	0 -0.117426 	-0.273002 	0 -0.117734 	-0.27289 	0 -0.118042 	-0.272778 	0 -0.11835 	-0.272666 	0 -0.118658 	-0.272554 	0 -0.118958 	-0.272444 	0 -0.119633 	-0.272198 	0 -0.120309 	-0.271952 	0 -0.120983 	-0.271705 	0 -0.121658 	-0.271457 	0 -0.122339 	-0.271205 	0 -0.122738 	-0.271058 	0 -0.123136 	-0.270909 	0 -0.123535 	-0.270761 	0 -0.123934 	-0.270612 	0 -0.12432 	-0.270468 	0 -0.124919 	-0.270245 	0 -0.125519 	-0.270021 	0 -0.126117 	-0.269797 	0 -0.126716 	-0.269572 	0 -0.12732 	-0.269344 	0 -0.12775 	-0.269182 	0 -0.128181 	-0.269019 	0 -0.12861 	-0.268856 	0 -0.12904 	-0.268692 	0 -0.129456 	-0.268534 	0 -0.130039 	-0.268312 	0 -0.130622 	-0.268091 	0 -0.131204 	-0.267868 	0 -0.131786 	-0.267645 	0 -0.132374 	-0.267419 	0 -0.13278 	-0.267263 	0 -0.133186 	-0.267107 	0 -0.133592 	-0.26695 	0 -0.133998 	-0.266793 	0 -0.134392 	-0.26664 	0 -0.135013 	-0.266401 	0 -0.135634 	-0.26616 	0 -0.136255 	-0.265919 	0 -0.136875 	-0.265678 	0 -0.137502 	-0.265433 	0 -0.137833 	-0.265304 	0 -0.138163 	-0.265174 	0 -0.138493 	-0.265045 	0 -0.138824 	-0.264915 	0 -0.139146 	-0.264788 	0 -0.139858 	-0.26451 	0 -0.140569 	-0.264231 	0 -0.141279 	-0.263951 	0 -0.141989 	-0.263671 	0 -0.142708 	-0.263386 	0 -0.142914 	-0.263304 	0 -0.143121 	-0.263222 	0 -0.143328 	-0.26314 	0 -0.143534 	-0.263058 	0 -0.143738 	-0.262977 	0 -0.144588 	-0.262641 	0 -0.145437 	-0.262304 	0 -0.146285 	-0.261966 	0 -0.147133 	-0.261627 	0 -0.147994 	-0.261281 	0 -0.148031 	-0.261266 	0 -0.148069 	-0.261251 	0 -0.148106 	-0.261236 	0 -0.148144 	-0.261221 	0 -0.148181 	-0.261206 	0 -0.149055 	-0.260858 	0 -0.149927 	-0.260508 	0 -0.150798 	-0.260157 	0 -0.151668 	-0.259804 	0 -0.152491 	-0.25947 	0 -0.152664 	-0.2594 	0 -0.152838 	-0.259329 	0 -0.153012 	-0.259259 	0 -0.153185 	-0.259188 	0 -0.15336 	-0.259118 	0 -0.154028 	-0.258848 	0 -0.154695 	-0.258577 	0 -0.155361 	-0.258306 	0 -0.156027 	-0.258035 	0 -0.156667 	-0.257773 	0 -0.157095 	-0.257599 	0 -0.157523 	-0.257424 	0 -0.157952 	-0.25725 	0 -0.158379 	-0.257075 	0 -0.158811 	-0.256898 	0 -0.159195 	-0.256741 	0 -0.159578 	-0.256584 	0 -0.159961 	-0.256427 	0 -0.160344 	-0.25627 	0 -0.160719 	-0.256116 	0 -0.161444 	-0.255821 	0 -0.162169 	-0.255524 	0 -0.162893 	-0.255227 	0 -0.163617 	-0.254929 	0 -0.164351 	-0.254626 	0 -0.164413 	-0.254601 	0 -0.164474 	-0.254575 	0 -0.164536 	-0.25455 	0 -0.164598 	-0.254524 	0 -0.16466 	-0.254499 	0 -0.165438 	-0.254182 	0 -0.166214 	-0.253862 	0 -0.166989 	-0.253541 	0 -0.167763 	-0.25322 	0 -0.168504 	-0.252911 	0 -0.168799 	-0.25279 	0 -0.169093 	-0.252668 	0 -0.169387 	-0.252546 	0 -0.169682 	-0.252424 	0 -0.169978 	-0.252301 	0 -0.170433 	-0.252112 	0 -0.170889 	-0.251924 	0 -0.171344 	-0.251735 	0 -0.171799 	-0.251546 	0 -0.172243 	-0.251361 	0 -0.172933 	-0.251077 	0 -0.173623 	-0.250792 	0 -0.174312 	-0.250506 	0 -0.175 	-0.25022 	0 -0.175699 	-0.249928 	0 -0.175736 	-0.249913 	0 -0.175773 	-0.249897 	0 -0.175811 	-0.249882 	0 -0.175848 	-0.249866 	0 -0.175886 	-0.24985 	0 -0.176606 	-0.249553 	0 -0.177325 	-0.249254 	0 -0.178043 	-0.248955 	0 -0.17876 	-0.248655 	0 -0.179451 	-0.248365 	0 -0.179863 	-0.248194 	0 -0.180274 	-0.248023 	0 -0.180685 	-0.247851 	0 -0.181095 	-0.24768 	0 -0.18151 	-0.247506 	0 -0.181793 	-0.247388 	0 -0.182077 	-0.24727 	0 -0.18236 	-0.247152 	0 -0.182643 	-0.247034 	0 -0.182923 	-0.246918 	0 -0.183608 	-0.246635 	0 -0.184293 	-0.246352 	0 -0.184976 	-0.246067 	0 -0.185658 	-0.24578 	0 -0.186318 	-0.245502 	0 -0.186537 	-0.24541 	0 -0.186757 	-0.245318 	0 -0.186977 	-0.245226 	0 -0.187197 	-0.245134 	0 -0.187418 	-0.245041 	0 -0.187864 	-0.244855 	0 -0.18831 	-0.24467 	0 -0.188755 	-0.244484 	0 -0.1892 	-0.244298 	0 -0.189637 	-0.244115 	0 -0.19029 	-0.243844 	0 -0.190943 	-0.243574 	0 -0.191596 	-0.243302 	0 -0.192247 	-0.243031 	0 -0.192878 	-0.242763 	0 -0.192987 	-0.242717 	0 -0.193095 	-0.242672 	0 -0.193204 	-0.242626 	0 -0.193312 	-0.242581 	0 -0.193421 	-0.242535 	0 -0.193952 	-0.242315 	0 -0.194482 	-0.242094 	0 -0.195011 	-0.241873 	0 -0.19554 	-0.241651 	0 -0.196057 	-0.241435 	0 -0.196682 	-0.241176 	0 -0.197307 	-0.240917 	0 -0.197931 	-0.240658 	0 -0.198554 	-0.240398 	0 -0.19916 	-0.240142 	0 -0.199232 	-0.240112 	0 -0.199304 	-0.240082 	0 -0.199376 	-0.240051 	0 -0.199448 	-0.240021 	0 -0.199521 	-0.239991 	0 -0.200061 	-0.239766 	0 -0.200602 	-0.239542 	0 -0.201142 	-0.239317 	0 -0.201681 	-0.239091 	0 -0.202208 	-0.23887 	0 -0.202808 	-0.238623 	0 -0.203407 	-0.238375 	0 -0.204005 	-0.238127 	0 -0.204602 	-0.237879 	0 -0.205184 	-0.237633 	0 -0.20529 	-0.237589 	0 -0.205396 	-0.237544 	0 -0.205502 	-0.2375 	0 -0.205608 	-0.237455 	0 -0.205715 	-0.237411 	0 -0.206196 	-0.237212 	0 -0.206677 	-0.237012 	0 -0.207157 	-0.236813 	0 -0.207637 	-0.236613 	0 -0.208108 	-0.236416 	0 -0.208684 	-0.23618 	0 -0.20926 	-0.235943 	0 -0.209834 	-0.235707 	0 -0.210407 	-0.235467 	0 -0.210967 	-0.235231 	0 -0.211174 	-0.235144 	0 -0.211381 	-0.235058 	0 -0.211589 	-0.234972 	0 -0.211796 	-0.234885 	0 -0.212005 	-0.234798 	0 -0.212359 	-0.234652 	0 -0.212714 	-0.234506 	0 -0.213069 	-0.234359 	0 -0.213423 	-0.234212 	0 -0.213773 	-0.234067 	0 -0.214328 	-0.233842 	0 -0.214882 	-0.233616 	0 -0.215434 	-0.233387 	0 -0.215985 	-0.233157 	0 -0.216524 	-0.23293 	0 -0.216897 	-0.232776 	0 -0.217269 	-0.232623 	0 -0.217641 	-0.232469 	0 -0.218012 	-0.232315 	0 -0.218388 	-0.232159 	0 -0.218553 	-0.232091 	0 -0.21872 	-0.232023 	0 -0.218886 	-0.231954 	0 -0.219052 	-0.231886 	0 -0.219217 	-0.231818 	0 -0.219752 	-0.231603 	0 -0.220284 	-0.231384 	0 -0.220816 	-0.231164 	0 -0.221347 	-0.230943 	0 -0.221869 	-0.230726 	0 -0.222389 	-0.230514 	0 -0.22291 	-0.230301 	0 -0.223429 	-0.230088 	0 -0.223948 	-0.229875 	0 -0.224457 	-0.229663 	0 -0.224537 	-0.22963 	0 -0.224618 	-0.229596 	0 -0.224699 	-0.229563 	0 -0.22478 	-0.229529 	0 -0.224861 	-0.229496 	0 -0.225293 	-0.229319 	0 -0.225724 	-0.229143 	0 -0.226155 	-0.228967 	0 -0.226586 	-0.22879 	0 -0.227011 	-0.228615 	0 -0.227514 	-0.228413 	0 -0.228017 	-0.22821 	0 -0.228518 	-0.228006 	0 -0.229018 	-0.227798 	0 -0.22951 	-0.227593 	0 -0.229891 	-0.227437 	0 -0.230272 	-0.227281 	0 -0.230653 	-0.227125 	0 -0.231034 	-0.226969 	0 -0.231419 	-0.226811 	0 -0.231526 	-0.226768 	0 -0.231633 	-0.226724 	0 -0.231741 	-0.226681 	0 -0.231848 	-0.226637 	0 -0.231956 	-0.226594 	0 -0.232442 	-0.226399 	0 -0.232927 	-0.226201 	0 -0.233412 	-0.226003 	0 -0.233896 	-0.225805 	0 -0.234372 	-0.225609 	0 -0.234847 	-0.225419 	0 -0.235321 	-0.225228 	0 -0.235795 	-0.225038 	0 -0.236267 	-0.224844 	0 -0.236732 	-0.22465 	0 -0.236996 	-0.224542 	0 -0.23726 	-0.224435 	0 -0.237524 	-0.224327 	0 -0.237788 	-0.224219 	0 -0.238054 	-0.22411 	0 -0.238253 	-0.22403 	0 -0.238453 	-0.22395 	0 -0.238652 	-0.223869 	0 -0.238851 	-0.223789 	0 -0.239049 	-0.223709 	0 -0.239509 	-0.223528 	0 -0.239968 	-0.223343 	0 -0.240426 	-0.223156 	0 -0.240883 	-0.222969 	0 -0.241334 	-0.222785 	0 -0.241782 	-0.222606 	0 -0.242231 	-0.222426 	0 -0.242678 	-0.222247 	0 -0.243125 	-0.222066 	0 -0.243565 	-0.221882 	0 -0.243803 	-0.221786 	0 -0.244042 	-0.221689 	0 -0.24428 	-0.221592 	0 -0.244519 	-0.221494 	0 -0.244759 	-0.221397 	0 -0.244959 	-0.221317 	0 -0.245159 	-0.221237 	0 -0.245359 	-0.221157 	0 -0.245559 	-0.221076 	0 -0.245759 	-0.220997 	0 -0.246194 	-0.220827 	0 -0.246628 	-0.220652 	0 -0.247061 	-0.220476 	0 -0.247494 	-0.2203 	0 -0.247922 	-0.220126 	0 -0.248346 	-0.219958 	0 -0.248771 	-0.21979 	0 -0.249194 	-0.219621 	0 -0.249617 	-0.219449 	0 -0.250034 	-0.219276 	0 -0.250331 	-0.219156 	0 -0.250628 	-0.219036 	0 -0.250925 	-0.218916 	0 -0.251221 	-0.218796 	0 -0.251521 	-0.218675 	0 -0.251637 	-0.218628 	0 -0.251755 	-0.218582 	0 -0.251872 	-0.218535 	0 -0.251989 	-0.218489 	0 -0.252106 	-0.218442 	0 -0.252518 	-0.218281 	0 -0.25293 	-0.218116 	0 -0.25334 	-0.21795 	0 -0.253751 	-0.217785 	0 -0.254157 	-0.217621 	0 -0.254559 	-0.217463 	0 -0.254962 	-0.217305 	0 -0.255363 	-0.217145 	0 -0.255763 	-0.216981 	0 -0.256159 	-0.216818 	0 -0.256552 	-0.216661 	0 -0.256944 	-0.216504 	0 -0.257336 	-0.216347 	0 -0.257727 	-0.216189 	0 -0.258114 	-0.216032 	0 -0.258155 	-0.216015 	0 -0.258197 	-0.215998 	0 -0.258239 	-0.215981 	0 -0.258281 	-0.215964 	0 -0.258323 	-0.215947 	0 -0.258671 	-0.215809 	0 -0.259018 	-0.21567 	0 -0.259365 	-0.215532 	0 -0.259712 	-0.215393 	0 -0.260056 	-0.215256 	0 -0.260438 	-0.215108 	0 -0.26082 	-0.214959 	0 -0.2612 	-0.214804 	0 -0.26158 	-0.214649 	0 -0.261957 	-0.214496 	0 -0.262329 	-0.214349 	0 -0.262701 	-0.214201 	0 -0.263073 	-0.214054 	0 -0.263444 	-0.213904 	0 -0.263812 	-0.213751 	0 -0.264077 	-0.213644 	0 -0.264344 	-0.213536 	0 -0.26461 	-0.213429 	0 -0.264875 	-0.213321 	0 -0.265144 	-0.213212 	0 -0.265241 	-0.213174 	0 -0.265338 	-0.213135 	0 -0.265436 	-0.213097 	0 -0.265533 	-0.213058 	0 -0.265631 	-0.21302 	0 -0.265994 	-0.212878 	0 -0.266356 	-0.212733 	0 -0.266717 	-0.212588 	0 -0.267078 	-0.212443 	0 -0.267437 	-0.212299 	0 -0.267791 	-0.212161 	0 -0.268145 	-0.212023 	0 -0.268497 	-0.21188 	0 -0.268849 	-0.211736 	0 -0.269199 	-0.211592 	0 -0.269544 	-0.211454 	0 -0.269888 	-0.211317 	0 -0.270233 	-0.21118 	0 -0.270577 	-0.211042 	0 -0.270918 	-0.210898 	0 -0.271126 	-0.210813 	0 -0.271334 	-0.210729 	0 -0.271542 	-0.210644 	0 -0.27175 	-0.210559 	0 -0.27196 	-0.210473 	0 -0.272089 	-0.210422 	0 -0.272219 	-0.21037 	0 -0.272349 	-0.210319 	0 -0.272479 	-0.210267 	0 -0.272609 	-0.210216 	0 -0.272945 	-0.210085 	0 -0.273281 	-0.209949 	0 -0.273616 	-0.209814 	0 -0.273951 	-0.209678 	0 -0.274284 	-0.209543 	0 -0.274612 	-0.209415 	0 -0.27494 	-0.209287 	0 -0.275267 	-0.209153 	0 -0.275594 	-0.209017 	0 -0.275918 	-0.208883 	0 -0.276237 	-0.208755 	0 -0.276557 	-0.208627 	0 -0.276876 	-0.208498 	0 -0.277195 	-0.208369 	0 -0.277511 	-0.208234 	0 -0.277756 	-0.208133 	0 -0.278001 	-0.208032 	0 -0.278246 	-0.207931 	0 -0.278491 	-0.20783 	0 -0.278739 	-0.207728 	0 -0.278805 	-0.207702 	0 -0.278871 	-0.207675 	0 -0.278938 	-0.207649 	0 -0.279005 	-0.207622 	0 -0.279072 	-0.207595 	0 -0.279384 	-0.207471 	0 -0.279695 	-0.207345 	0 -0.280007 	-0.207218 	0 -0.280318 	-0.207092 	0 -0.280627 	-0.206966 	0 -0.280931 	-0.206847 	0 -0.281235 	-0.206726 	0 -0.281538 	-0.2066 	0 -0.281841 	-0.206473 	0 -0.282142 	-0.206347 	0 -0.282438 	-0.206228 	0 -0.282734 	-0.206109 	0 -0.28303 	-0.20599 	0 -0.283325 	-0.205865 	0 -0.283619 	-0.205739 	0 -0.283907 	-0.20562 	0 -0.284195 	-0.205501 	0 -0.284483 	-0.205382 	0 -0.28477 	-0.205262 	0 -0.285057 	-0.205141 	0 -0.285132 	-0.205108 	0 -0.285209 	-0.205076 	0 -0.285286 	-0.205043 	0 -0.285362 	-0.205011 	0 -0.28544 	-0.204978 	0 -0.285649 	-0.204893 	0 -0.285859 	-0.204808 	0 -0.286068 	-0.204723 	0 -0.286278 	-0.204637 	0 -0.286487 	-0.204552 	0 -0.286768 	-0.204443 	0 -0.28705 	-0.204326 	0 -0.287331 	-0.204209 	0 -0.287612 	-0.204091 	0 -0.287892 	-0.203975 	0 -0.288166 	-0.203865 	0 -0.28844 	-0.203756 	0 -0.288714 	-0.203642 	0 -0.288987 	-0.203525 	0 -0.28926 	-0.203408 	0 -0.289526 	-0.203299 	0 -0.289793 	-0.20319 	0 -0.290059 	-0.203082 	0 -0.290325 	-0.20297 	0 -0.290591 	-0.202853 	0 -0.29085 	-0.202745 	0 -0.291109 	-0.202637 	0 -0.291368 	-0.202528 	0 -0.291627 	-0.20242 	0 -0.291886 	-0.202311 	0 -0.29191 	-0.2023 	0 -0.291936 	-0.202289 	0 -0.291962 	-0.202278 	0 -0.291988 	-0.202267 	0 -0.292014 	-0.202257 	0 -0.292247 	-0.202162 	0 -0.292481 	-0.202067 	0 -0.292716 	-0.201973 	0 -0.292949 	-0.201878 	0 -0.293183 	-0.201784 	0 -0.293436 	-0.201688 	0 -0.29369 	-0.201585 	0 -0.293943 	-0.201481 	0 -0.294197 	-0.201377 	0 -0.29445 	-0.201273 	0 -0.294695 	-0.201179 	0 -0.294942 	-0.201085 	0 -0.295188 	-0.200985 	0 -0.295435 	-0.200883 	0 -0.295681 	-0.200781 	0 -0.29592 	-0.200689 	0 -0.296159 	-0.200598 	0 -0.296398 	-0.200506 	0 -0.296638 	-0.20041 	0 -0.296877 	-0.200311 	0 -0.297109 	-0.200222 	0 -0.297342 	-0.200134 	0 -0.297575 	-0.200045 	0 -0.297807 	-0.199957 	0 -0.298039 	-0.199866 	0 -0.298109 	-0.199839 	0 -0.298179 	-0.199813 	0 -0.29825 	-0.199787 	0 -0.29832 	-0.199761 	0 -0.298392 	-0.199735 	0 -0.298552 	-0.199678 	0 -0.298714 	-0.199622 	0 -0.298875 	-0.199566 	0 -0.299036 	-0.19951 	0 -0.299197 	-0.199454 	0 -0.299424 	-0.199384 	0 -0.299652 	-0.199309 	0 -0.29988 	-0.199233 	0 -0.300108 	-0.199157 	0 -0.300336 	-0.199081 	0 -0.300556 	-0.199021 	0 -0.300777 	-0.19896 	0 -0.300998 	-0.198892 	0 -0.30122 	-0.198823 	0 -0.301441 	-0.198755 	0 -0.301655 	-0.198704 	0 -0.301869 	-0.198653 	0 -0.302083 	-0.198603 	0 -0.302298 	-0.198543 	0 -0.302514 	-0.198484 	0 -0.302721 	-0.198445 	0 -0.302929 	-0.198406 	0 -0.303137 	-0.198367 	0 -0.303345 	-0.198328 	0 -0.303554 	-0.198281 	0 -0.303741 	-0.198258 	0 -0.303928 	-0.198235 	0 -0.304116 	-0.198213 	0 -0.304303 	-0.19819 	0 -0.304493 	-0.198168 	0 -0.304507 	-0.198166 	0 -0.304521 	-0.198165 	0 -0.304535 	-0.198163 	0 -0.30455 	-0.198161 	0 -0.304565 	-0.198161 	0 -0.304769 	-0.198158 	0 -0.304973 	-0.198155 	0 -0.305178 	-0.198152 	0 -0.305382 	-0.198149 	0 -0.305587 	-0.198147 	0 -0.305782 	-0.198175 	0 -0.305981 	-0.198195 	0 -0.306179 	-0.198215 	0 -0.306377 	-0.198234 	0 -0.306576 	-0.198254 	0 -0.306766 	-0.198309 	0 -0.306956 	-0.198366 	0 -0.307148 	-0.198413 	0 -0.307341 	-0.198459 	0 -0.307534 	-0.198506 	0 -0.307717 	-0.198594 	0 -0.307902 	-0.198683 	0 -0.308086 	-0.198773 	0 -0.308273 	-0.198852 	0 -0.30846 	-0.198931 	0 -0.308638 	-0.199058 	0 -0.308816 	-0.199186 	0 -0.308995 	-0.199315 	0 -0.309173 	-0.199443 	0 -0.309355 	-0.199562 	0 -0.309517 	-0.199724 	0 -0.309679 	-0.199888 	0 -0.309841 	-0.200052 	0 -0.310004 	-0.200216 	0 -0.310167 	-0.200382 	0 -0.310178 	-0.200392 	0 -0.310189 	-0.200403 	0 -0.3102 	-0.200413 	0 -0.31021 	-0.200424 	0 -0.310222 	-0.200436 	0 -0.310396 	-0.200668 	0 -0.310572 	-0.200902 	0 -0.310748 	-0.201136 	0 -0.310924 	-0.20137 	0 -0.311102 	-0.201606 	0 -0.311267 	-0.201917 	0 -0.311438 	-0.202215 	0 -0.311608 	-0.202512 	0 -0.311779 	-0.20281 	0 -0.311951 	-0.203111 	0 -0.312111 	-0.203496 	0 -0.312272 	-0.203885 	0 -0.312437 	-0.204256 	0 -0.312603 	-0.204627 	0 -0.312771 	-0.205002 	0 -0.312924 	-0.205474 	0 -0.31308 	-0.205949 	0 -0.313236 	-0.206422 	0 -0.313397 	-0.206878 	0 -0.31356 	-0.207339 	0 -0.313708 	-0.207909 	0 -0.313858 	-0.208482 	0 -0.314009 	-0.209055 	0 -0.314161 	-0.209625 	0 -0.314319 	-0.210185 	0 -0.314462 	-0.210865 	0 -0.314607 	-0.211549 	0 -0.314753 	-0.212233 	0 -0.314899 	-0.212917 	0 -0.315049 	-0.213607 	0 -0.315069 	-0.213723 	0 -0.315089 	-0.213843 	0 -0.31511 	-0.213964 	0 -0.315132 	-0.214086 	0 -0.315153 	-0.214208 	0 -0.315278 	-0.214901 	0 -0.315405 	-0.215597 	0 -0.315533 	-0.216293 	0 -0.315661 	-0.216989 	0 -0.315793 	-0.217695 	0 -0.31593 	-0.218673 	0 -0.316074 	-0.21963 	0 -0.316218 	-0.220587 	0 -0.316364 	-0.221543 	0 -0.316514 	-0.222516 	0 -0.316644 	-0.223654 	0 -0.316779 	-0.224792 	0 -0.316919 	-0.225902 	0 -0.31706 	-0.227012 	0 -0.317205 	-0.228142 	0 -0.317331 	-0.229453 	0 -0.317458 	-0.230768 	0 -0.317589 	-0.232074 	0 -0.317726 	-0.233351 	0 -0.317867 	-0.234656 	0 -0.317987 	-0.236153 	0 -0.31811 	-0.237653 	0 -0.318234 	-0.239152 	0 -0.318361 	-0.240642 	0 -0.318499 	-0.242136 	0 -0.318614 	-0.243833 	0 -0.318731 	-0.245534 	0 -0.318851 	-0.247231 	0 -0.318972 	-0.248925 	0 -0.319099 	-0.250661 	0 -0.319107 	-0.250798 	0 -0.319115 	-0.250945 	0 -0.319124 	-0.251092 	0 -0.319133 	-0.251239 	0 -0.319141 	-0.251386 	0 -0.319252 	-0.253168 	0 -0.319366 	-0.254954 	0 -0.319482 	-0.256737 	0 -0.319599 	-0.258516 	0 -0.319722 	-0.260345 	0 -0.319827 	-0.262552 	0 -0.319944 	-0.264711 	0 -0.320064 	-0.266864 	0 -0.320186 	-0.269011 	0 -0.320315 	-0.27123 	0 -0.320414 	-0.273679 	0 -0.320517 	-0.27613 	0 -0.32063 	-0.278528 	0 -0.320748 	-0.28091 	0 -0.320873 	-0.28338 	0 -0.320966 	-0.28608 	0 -0.321063 	-0.28878 	0 -0.321163 	-0.291471 	0 -0.321272 	-0.294119 	0 -0.321393 	-0.29685 	0 -0.321481 	-0.299808 	0 -0.321572