# vtk DataFile Version 2.0
track0
ASCII
DATASET POLYDATA
POINTS 12120 float
-0.0205 0.001 1e-05
-0.0204916 0.0011 1e-05
-0.020483 0.00119999 1e-05
-0.0204744 0.00129997 1e-05
-0.0204656 0.00139993 1e-05
-0.0204566 0.0015 1e-05
-0.0204475 0.0016 1e-05
-0.0204383 0.00169998 1e-05
-0.0204289 0.00179995 1e-05
-0.0204193 0.00189991 1e-05
-0.0204096 0.002 1e-05
-0.0203996 0.0021 1e-05
-0.0203895 0.00219998 1e-05
-0.0203792 0.00229994 1e-05
-0.0203687 0.00239988 1e-05
-0.0203579 0.0025 1e-05
-0.020347 0.0026 1e-05
-0.0203359 0.00269998 1e-05
-0.0203245 0.00279993 1e-05
-0.0203129 0.00289985 1e-05
-0.020301 0.003 1e-05
-0.0202979 0.00302597 1e-05
-0.0202948 0.00305193 1e-05
-0.0202916 0.0030779 1e-05
-0.0202884 0.00310386 1e-05
-0.0202854 0.0031285 1e-05
-0.0202762 0.0032028 1e-05
-0.0202669 0.00327708 1e-05
-0.0202574 0.00335135 1e-05
-0.0202478 0.0034256 1e-05
-0.0202381 0.0035 1e-05
-0.0202248 0.0036 1e-05
-0.0202113 0.00369997 1e-05
-0.0201975 0.0037999 1e-05
-0.0201834 0.00389979 1e-05
-0.0201691 0.004 1e-05
-0.0201545 0.0041 1e-05
-0.0201397 0.00419996 1e-05
-0.0201246 0.00429988 1e-05
-0.0201092 0.00439976 1e-05
-0.0200935 0.0045 1e-05
-0.0200792 0.00458928 1e-05
-0.0200648 0.00467852 1e-05
-0.0200501 0.00476773 1e-05
-0.0200352 0.0048569 1e-05
-0.0200223 0.00493318 1e-05
-0.02002 0.00494655 1e-05
-0.0200177 0.00495991 1e-05
-0.0200154 0.00497327 1e-05
-0.0200131 0.00498663 1e-05
-0.0200108 0.005 1e-05
-0.0199935 0.0051 1e-05
-0.0199758 0.00519995 1e-05
-0.0199579 0.00529985 1e-05
-0.0199397 0.0053997 1e-05
-0.0199212 0.0055 1e-05
-0.0199024 0.0056 1e-05
-0.0198833 0.00569995 1e-05
-0.019864 0.00579984 1e-05
-0.0198443 0.00589967 1e-05
-0.0198243 0.006 1e-05
-0.0198117 0.00606205 1e-05
-0.019799 0.00612408 1e-05
-0.0197862 0.00618609 1e-05
-0.0197733 0.00624808 1e-05
-0.0197614 0.00630473 1e-05
-0.0197531 0.00634379 1e-05
-0.0197448 0.00638283 1e-05
-0.0197364 0.00642187 1e-05
-0.019728 0.00646089 1e-05
-0.0197195 0.0065 1e-05
-0.0196977 0.0066 1e-05
-0.0196756 0.00669994 1e-05
-0.0196533 0.00679981 1e-05
-0.0196306 0.00689961 1e-05
-0.0196075 0.007 1e-05
-0.0195865 0.00708994 1e-05
-0.0195652 0.00717982 1e-05
-0.0195438 0.00726964 1e-05
-0.0195221 0.00735941 1e-05
-0.0195025 0.00743926 1e-05
-0.0194995 0.00745141 1e-05
-0.0194965 0.00746356 1e-05
-0.0194935 0.0074757 1e-05
-0.0194905 0.00748785 1e-05
-0.0194874 0.0075 1e-05
-0.0194625 0.0076 1e-05
-0.0194373 0.00769992 1e-05
-0.0194118 0.00779977 1e-05
-0.0193859 0.00789954 1e-05
-0.0193596 0.008 1e-05
-0.0193368 0.00808581 1e-05
-0.0193138 0.00817157 1e-05
-0.0192906 0.00825726 1e-05
-0.0192672 0.00834289 1e-05
-0.0192457 0.0084203 1e-05
-0.0192413 0.00843624 1e-05
-0.0192368 0.00845218 1e-05
-0.0192324 0.00846811 1e-05
-0.0192279 0.00848405 1e-05
-0.0192234 0.0085 1e-05
-0.0191952 0.0086 1e-05
-0.0191667 0.00869991 1e-05
-0.0191379 0.00879973 1e-05
-0.0191088 0.00889947 1e-05
-0.0190791 0.009 1e-05
-0.0190615 0.00905891 1e-05
-0.0190437 0.0091178 1e-05
-0.0190259 0.00917665 1e-05
-0.019008 0.00923546 1e-05
-0.018991 0.00929068 1e-05
-0.0189781 0.00933254 1e-05
-0.0189651 0.00937439 1e-05
-0.0189521 0.00941622 1e-05
-0.018939 0.00945803 1e-05
-0.0189258 0.0095 1e-05
-0.0188942 0.0096 1e-05
-0.0188622 0.0096999 1e-05
-0.01883 0.00979969 1e-05
-0.0187974 0.00989938 1e-05
-0.0187642 0.01 1e-05
-0.018759 0.0100154 1e-05
-0.0187538 0.0100309 1e-05
-0.0187487 0.0100463 1e-05
-0.0187435 0.0100617 1e-05
-0.0187384 0.0100769 1e-05
-0.0187099 0.0101615 1e-05
-0.0186812 0.0102461 1e-05
-0.0186522 0.0103305 1e-05
-0.018623 0.0104149 1e-05
-0.0185934 0.0105 1e-05
-0.0185722 0.01056 1e-05
-0.018551 0.0106199 1e-05
-0.0185297 0.0106798 1e-05
-0.0185082 0.0107396 1e-05
-0.0184878 0.0107961 1e-05
-0.018473 0.0108369 1e-05
-0.0184581 0.0108777 1e-05
-0.0184432 0.0109184 1e-05
-0.0184282 0.0109591 1e-05
-0.0184131 0.011 1e-05
-0.0183783 0.0110938 1e-05
-0.0183433 0.0111875 1e-05
-0.0183079 0.0112811 1e-05
-0.0182722 0.0113746 1e-05
-0.0182392 0.0114603 1e-05
-0.0182361 0.0114683 1e-05
-0.018233 0.0114762 1e-05
-0.0182299 0.0114841 1e-05
-0.0182268 0.0114921 1e-05
-0.0182237 0.0115 1e-05
-0.0181847 0.0116 1e-05
-0.0181454 0.0116999 1e-05
-0.0181057 0.0117996 1e-05
-0.0180657 0.0118992 1e-05
-0.0180248 0.012 1e-05
-0.0180184 0.0120157 1e-05
-0.0180119 0.0120314 1e-05
-0.0180054 0.0120471 1e-05
-0.017999 0.0120629 1e-05
-0.0179926 0.0120783 1e-05
-0.0179578 0.0121627 1e-05
-0.0179227 0.0122469 1e-05
-0.0178874 0.012331 1e-05
-0.0178518 0.0124151 1e-05
-0.0178156 0.0125 1e-05
-0.0178021 0.0125314 1e-05
-0.0177885 0.0125628 1e-05
-0.0177749 0.0125942 1e-05
-0.0177613 0.0126256 1e-05
-0.017748 0.0126562 1e-05
-0.017718 0.012725 1e-05
-0.0176878 0.0127937 1e-05
-0.0176574 0.0128623 1e-05
-0.0176269 0.0129308 1e-05
-0.0175959 0.013 1e-05
-0.0175778 0.0130401 1e-05
-0.0175596 0.0130803 1e-05
-0.0175414 0.0131204 1e-05
-0.0175231 0.0131604 1e-05
-0.0175053 0.0131992 1e-05
-0.0174777 0.0132594 1e-05
-0.0174499 0.0133195 1e-05
-0.017422 0.0133795 1e-05
-0.017394 0.0134395 1e-05
-0.0173655 0.0135 1e-05
-0.0173454 0.0135427 1e-05
-0.0173251 0.0135853 1e-05
-0.0173048 0.0136279 1e-05
-0.0172844 0.0136705 1e-05
-0.0172647 0.0137117 1e-05
-0.0172369 0.0137694 1e-05
-0.017209 0.013827 1e-05
-0.0171809 0.0138845 1e-05
-0.0171528 0.013942 1e-05
-0.0171242 0.014 1e-05
-0.0171045 0.0140397 1e-05
-0.0170848 0.0140794 1e-05
-0.0170651 0.014119 1e-05
-0.0170452 0.0141586 1e-05
-0.0170259 0.0141971 1e-05
-0.0169954 0.0142577 1e-05
-0.0169647 0.0143182 1e-05
-0.0169339 0.0143786 1e-05
-0.016903 0.014439 1e-05
-0.0168716 0.0145 1e-05
-0.0168551 0.0145318 1e-05
-0.0168385 0.0145636 1e-05
-0.016822 0.0145954 1e-05
-0.0168054 0.0146272 1e-05
-0.0167891 0.0146583 1e-05
-0.0167532 0.0147266 1e-05
-0.0167171 0.0147949 1e-05
-0.0166808 0.014863 1e-05
-0.0166444 0.0149311 1e-05
-0.0166073 0.015 1e-05
-0.0165967 0.0150196 1e-05
-0.016586 0.0150392 1e-05
-0.0165754 0.0150588 1e-05
-0.0165647 0.0150784 1e-05
-0.0165542 0.0150977 1e-05
-0.0165102 0.0151781 1e-05
-0.016466 0.0152585 1e-05
-0.0164215 0.0153387 1e-05
-0.0163768 0.0154187 1e-05
-0.0163311 0.0155 1e-05
-0.0163291 0.0155035 1e-05
-0.0163271 0.015507 1e-05
-0.0163251 0.0155105 1e-05
-0.0163232 0.015514 1e-05
-0.0163212 0.0155175 1e-05
-0.0162749 0.015599 1e-05
-0.0162285 0.0156804 1e-05
-0.0161817 0.0157616 1e-05
-0.0161347 0.0158426 1e-05
-0.01609 0.0159192 1e-05
-0.0160805 0.0159354 1e-05
-0.016071 0.0159515 1e-05
-0.0160615 0.0159677 1e-05
-0.016052 0.0159838 1e-05
-0.0160424 0.016 1e-05
-0.0160061 0.0160614 1e-05
-0.0159696 0.0161227 1e-05
-0.015933 0.0161839 1e-05
-0.0158962 0.016245 1e-05
-0.0158607 0.0163037 1e-05
-0.0158369 0.016343 1e-05
-0.015813 0.0163822 1e-05
-0.015789 0.0164214 1e-05
-0.0157649 0.0164605 1e-05
-0.0157406 0.0165 1e-05
-0.0157192 0.0165347 1e-05
-0.0156977 0.0165694 1e-05
-0.0156761 0.0166041 1e-05
-0.0156545 0.0166387 1e-05
-0.0156333 0.0166725 1e-05
-0.0155922 0.016738 1e-05
-0.015551 0.0168034 1e-05
-0.0155095 0.0168687 1e-05
-0.0154679 0.0169339 1e-05
-0.0154255 0.017 1e-05
-0.0154219 0.0170055 1e-05
-0.0154184 0.017011 1e-05
-0.0154148 0.0170165 1e-05
-0.0154113 0.017022 1e-05
-0.0154077 0.0170275 1e-05
-0.015363 0.0170967 1e-05
-0.015318 0.0171657 1e-05
-0.0152729 0.0172347 1e-05
-0.0152276 0.0173035 1e-05
-0.0151839 0.0173693 1e-05
-0.0151665 0.0173955 1e-05
-0.0151491 0.0174216 1e-05
-0.0151316 0.0174477 1e-05
-0.0151141 0.0174738 1e-05
-0.0150965 0.0175 1e-05
-0.0150696 0.0175399 1e-05
-0.0150426 0.0175798 1e-05
-0.0150156 0.0176197 1e-05
-0.0149885 0.0176595 1e-05
-0.0149619 0.0176983 1e-05
-0.0149206 0.0177587 1e-05
-0.0148791 0.0178189 1e-05
-0.0148375 0.017879 1e-05
-0.0147957 0.0179391 1e-05
-0.0147531 0.018 1e-05
-0.0147508 0.0180032 1e-05
-0.0147486 0.0180065 1e-05
-0.0147463 0.0180097 1e-05
-0.014744 0.0180129 1e-05
-0.0147417 0.0180161 1e-05
-0.0146981 0.0180782 1e-05
-0.0146542 0.0181401 1e-05
-0.0146102 0.018202 1e-05
-0.0145661 0.0182637 1e-05
-0.0145233 0.0183232 1e-05
-0.0144978 0.0183586 1e-05
-0.0144722 0.0183939 1e-05
-0.0144465 0.0184292 1e-05
-0.0144208 0.0184644 1e-05
-0.0143948 0.0185 1e-05
-0.0143772 0.018524 1e-05
-0.0143595 0.0185481 1e-05
-0.0143419 0.0185721 1e-05
-0.0143242 0.0185961 1e-05
-0.0143067 0.0186197 1e-05
-0.0142637 0.0186777 1e-05
-0.0142206 0.0187357 1e-05
-0.0141773 0.0187935 1e-05
-0.0141339 0.0188512 1e-05
-0.0140917 0.018907 1e-05
-0.0140776 0.0189256 1e-05
-0.0140635 0.0189442 1e-05
-0.0140494 0.0189628 1e-05
-0.0140352 0.0189813 1e-05
-0.014021 0.019 1e-05
-0.0139925 0.0190372 1e-05
-0.0139639 0.0190744 1e-05
-0.0139354 0.0191116 1e-05
-0.0139067 0.0191487 1e-05
-0.0138786 0.019185 1e-05
-0.0138363 0.0192395 1e-05
-0.0137939 0.0192938 1e-05
-0.0137513 0.0193481 1e-05
-0.0137087 0.0194022 1e-05
-0.0136671 0.0194548 1e-05
-0.0136599 0.0194638 1e-05
-0.0136527 0.0194729 1e-05
-0.0136455 0.0194819 1e-05
-0.0136383 0.0194909 1e-05
-0.0136311 0.0195 1e-05
-0.0135964 0.0195436 1e-05
-0.0135615 0.0195871 1e-05
-0.0135266 0.0196306 1e-05
-0.0134916 0.019674 1e-05
-0.0134573 0.0197163 1e-05
-0.0134157 0.0197676 1e-05
-0.013374 0.0198188 1e-05
-0.0133322 0.0198698 1e-05
-0.0132902 0.0199208 1e-05
-0.0132493 0.0199704 1e-05
-0.0132444 0.0199763 1e-05
-0.0132394 0.0199823 1e-05
-0.0132345 0.0199882 1e-05
-0.0132296 0.0199941 1e-05
-0.0132247 0.02 1e-05
-0.0131883 0.0200437 1e-05
-0.0131519 0.0200874 1e-05
-0.0131154 0.020131 1e-05
-0.0130788 0.0201746 1e-05
-0.0130429 0.0202172 1e-05
-0.0130019 0.0202655 1e-05
-0.0129609 0.0203138 1e-05
-0.0129197 0.020362 1e-05
-0.0128785 0.0204102 1e-05
-0.0128381 0.0204571 1e-05
-0.0128307 0.0204657 1e-05
-0.0128233 0.0204743 1e-05
-0.0128159 0.0204828 1e-05
-0.0128085 0.0204914 1e-05
-0.012801 0.0205 1e-05
-0.0127678 0.0205383 1e-05
-0.0127346 0.0205766 1e-05
-0.0127013 0.0206148 1e-05
-0.0126679 0.0206529 1e-05
-0.012635 0.0206904 1e-05
-0.0125947 0.0207361 1e-05
-0.0125544 0.0207818 1e-05
-0.0125139 0.0208274 1e-05
-0.0124734 0.020873 1e-05
-0.0124336 0.0209175 1e-05
-0.0124188 0.020934 1e-05
-0.012404 0.0209505 1e-05
-0.0123892 0.020967 1e-05
[...]
POINT_DATA 12120
 FIELD attributes 2
p 1 12120 float
-0.00340189 -0.00371336 -0.00402381 -0.00433403 -0.00464425 -0.00495514 -0.00526008 -0.00556431 -0.00586741 -0.00617031 -0.00647297 -0.00676141 -0.00704971 -0.00733799 -0.00762537 -0.00791283 -0.00819761 -0.00848225 -0.00876688 -0.00905149 -0.00933621 -0.00940881 -0.00948114 -0.00955346 -0.00962579 -0.00969417 -0.00990148 -0.0101086 -0.0103157 -0.0105229 -0.0107303 -0.011003 -0.0112749 -0.0115466 -0.0118183 -0.0120909 -0.0123578 -0.0126245 -0.0128913 -0.0131572 -0.013424 -0.0136576 -0.0138912 -0.0141247 -0.0143583 -0.0145581 -0.0145932 -0.0146283 -0.0146633 -0.0146983 -0.0147332 -0.0149907 -0.0152477 -0.0155047 -0.0157617 -0.0160197 -0.0162733 -0.0165267 -0.01678 -0.0170328 -0.0172868 -0.017442 -0.017597 -0.017752 -0.017907 -0.0180485 -0.0181462 -0.0182438 -0.0183414 -0.018439 -0.0185368 -0.0187836 -0.0190301 -0.0192764 -0.0195226 -0.0197704 -0.0199899 -0.0202094 -0.0204288 -0.0206482 -0.0208434 -0.0208733 -0.0209029 -0.0209326 -0.0209623 -0.0209917 -0.0212334 -0.0214746 -0.0217157 -0.0219568 -0.0221995 -0.0224054 -0.0226112 -0.0228168 -0.0230224 -0.0232081 -0.0232464 -0.0232846 -0.0233228 -0.023361 -0.0233992 -0.0236372 -0.0238748 -0.0241123 -0.0243498 -0.0245893 -0.024729 -0.0248686 -0.0250082 -0.0251478 -0.0252789 -0.0253781 -0.0254771 -0.0255761 -0.0256751 -0.0257743 -0.0260103 -0.0262459 -0.0264815 -0.0267169 -0.0269542 -0.0269908 -0.0270273 -0.0270637 -0.0271001 -0.0271357 -0.0273344 -0.027533 -0.0277315 -0.0279299 -0.0281301 -0.0282711 -0.0284121 -0.028553 -0.0286939 -0.0288271 -0.0289227 -0.0290182 -0.0291136 -0.0292089 -0.0293046 -0.0295251 -0.0297453 -0.0299653 -0.0301851 -0.0303866 -0.0304051 -0.0304236 -0.0304422 -0.0304607 -0.0304794 -0.0307138 -0.0309481 -0.0311822 -0.031416 -0.0316528 -0.0316899 -0.031727 -0.0317642 -0.0318014 -0.0318381 -0.032036 -0.0322336 -0.032431 -0.0326282 -0.0328275 -0.0329021 -0.0329765 -0.0330509 -0.0331252 -0.0331974 -0.0333586 -0.0335198 -0.0336807 -0.0338416 -0.0340041 -0.0340993 -0.0341945 -0.0342897 -0.0343849 -0.0344772 -0.0346185 -0.0347596 -0.0349006 -0.0350414 -0.0351835 -0.0352851 -0.0353865 -0.0354878 -0.0355891 -0.0356869 -0.0358222 -0.0359574 -0.0360925 -0.0362275 -0.0363638 -0.0364583 -0.036553 -0.0366475 -0.036742 -0.0368339 -0.0369763 -0.0371185 -0.0372605 -0.0374024 -0.0375456 -0.0376218 -0.0376978 -0.0377738 -0.0378497 -0.0379236 -0.0380841 -0.0382445 -0.0384047 -0.0385645 -0.0387264 -0.0387731 -0.0388201 -0.0388671 -0.038914 -0.0389605 -0.0391497 -0.0393385 -0.039527 -0.039715 -0.0399058 -0.0399144 -0.0399229 -0.0399313 -0.0399397 -0.0399479 -0.0401394 -0.0403306 -0.0405213 -0.0407116 -0.0408914 -0.0409286 -0.0409656 -0.0410025 -0.0410395 -0.0410763 -0.0412205 -0.0413645 -0.0415082 -0.0416516 -0.0417892 -0.0418786 -0.0419682 -0.0420577 -0.042147 -0.0422375 -0.0423188 -0.0424002 -0.0424814 -0.0425625 -0.0426418 -0.042791 -0.0429394 -0.0430875 -0.0432352 -0.0433847 -0.0433974 -0.0434103 -0.0434231 -0.043436 -0.043449 -0.0436053 -0.0437617 -0.0439177 -0.0440733 -0.0442224 -0.044279 -0.0443357 -0.0443924 -0.044449 -0.0445061 -0.0445961 -0.0446856 -0.0447749 -0.0448641 -0.0449507 -0.0450805 -0.0452099 -0.0453389 -0.0454675 -0.0455978 -0.0456047 -0.0456117 -0.0456189 -0.045626 -0.0456337 -0.0457656 -0.0458973 -0.0460286 -0.0461594 -0.0462855 -0.046356 -0.046427 -0.0464979 -0.0465686 -0.0466404 -0.0466907 -0.0467409 -0.046791 -0.0468411 -0.0468904 -0.0470049 -0.0471184 -0.0472316 -0.0473448 -0.0474535 -0.0474877 -0.0475218 -0.0475558 -0.0475898 -0.0476239 -0.047695 -0.0477666 -0.047838 -0.0479092 -0.0479796 -0.0480758 -0.0481719 -0.0482675 -0.0483626 -0.0484557 -0.0484696 -0.0484843 -0.0484989 -0.0485136 -0.0485291 -0.0486043 -0.0486792 -0.0487537 -0.0488279 -0.0489002 -0.0489796 -0.0490579 -0.0491358 -0.0492131 -0.049288 -0.0492962 -0.0493042 -0.0493123 -0.0493204 -0.0493284 -0.0493922 -0.0494566 -0.0495206 -0.0495843 -0.0496472 -0.0497078 -0.0497683 -0.0498283 -0.0498878 -0.0499471 -0.0499552 -0.0499643 -0.0499735 -0.0499826 -0.0499928 -0.0500382 -0.0500832 -0.0501279 -0.0501722 -0.0502154 -0.0502589 -0.050301 -0.0503426 -0.0503846 -0.0504252 -0.0504371 -0.0504488 -0.0504604 -0.050472 -0.0504834 -0.0505051 -0.0505279 -0.0505506 -0.0505731 -0.0505964 -0.0506195 -0.0506427 -0.0506667 -0.0506911 -0.0507151 -0.0507224 -0.050731 -0.0507393 -0.0507474 -0.0507568 -0.0507621 -0.0507672 -0.0507723 -0.0507773 -0.0507822 -0.0507874 -0.0507933 -0.050799 -0.0508042 -0.0508076 -0.0508006 -0.0507929 -0.0507848 -0.0507761 -0.0507684 -0.0507668 -0.0507637 -0.0507606 -0.0507575 -0.0507531 -0.0507407 -0.0507288 -0.0507165 -0.0507038 -0.0506918 -0.0506618 -0.0506331 -0.0506052 -0.050579 -0.0505547 -0.0505224 -0.0504907 -0.0504587 -0.0504264 -0.0503942 -0.0503878 -0.05038 -0.0503721 -0.0503642 -0.0503548 -0.0503066 -0.0502602 -0.0502134 -0.0501661 -0.0501187 -0.0500579 -0.049995 -0.0499316 -0.0498701 -0.0498094 -0.0497674 -0.049725 -0.0496823 -0.0496396 -0.0495959 -0.049564 -0.0495341 -0.0495042 -0.0494742 -0.0494464 -0.049359 -0.0492766 -0.0491944 -0.0491117 -0.0490306 -0.0489298 -0.0488308 -0.0487313 -0.0486333 -0.0485419 -0.0484802 -0.0484194 -0.0483584 -0.0482973 -0.0482366 -0.0481904 -0.0481423 -0.0480941 -0.0480457 -0.0479957 -0.0478724 -0.0477541 -0.0476358 -0.047517 -0.0473988 -0.047264 -0.0471268 -0.0469891 -0.0468551 -0.0467226 -0.0466162 -0.046509 -0.0464016 -0.046294 -0.0461845 -0.0461414 -0.0461007 -0.04606 -0.0460192 -0.0459811 -0.0458177 -0.0456597 -0.0455013 -0.0453424 -0.0451857 -0.0450049 -0.0448263 -0.0446495 -0.0444784 -0.0443111 -0.0441184 -0.0439263 -0.0437337 -0.0435408 -0.0433521 -0.0433271 -0.0433048 -0.0432825 -0.0432612 -0.0432406 -0.0430638 -0.0428865 -0.0427088 -0.0425308 -0.0423537 -0.0421338 -0.0419137 -0.0417005 -0.041487 -0.0412726 -0.0410379 -0.0408025 -0.0405667 -0.0403342 -0.0401095 -0.0399293 -0.0397464 -0.0395633 -0.03938 -0.0391923 -0.0391266 -0.0390615 -0.0389965 -0.0389314 -0.038867 -0.0386005 -0.038342 -0.0380832 -0.037824 -0.0375693 -0.0372839 -0.0369986 -0.0367223 -0.0364487 -0.0361774 -0.0358766 -0.0355784 -0.0352798 -0.0349813 -0.0346998 -0.0345057 -0.0343119 -0.0341179 -0.0339238 -0.0337285 -0.033614 -0.033497 -0.0333798 -0.0332627 -0.0331433 -0.0328128 -0.0324913 -0.0321694 -0.0318472 -0.031527 -0.0311784 -0.0308267 -0.0304862 -0.0301488 -0.0298108 -0.0294457 -0.0290807 -0.0287153 -0.0283528 -0.028005 -0.0277083 -0.0274086 -0.0271087 -0.0268085 -0.0265028 -0.0264236 -0.0263443 -0.0262649 -0.0261855 -0.026106 -0.0257064 -0.0253149 -0.0249232 -0.0245311 -0.0241439 -0.0237194 -0.023298 -0.0228906 -0.022483 -0.0220769 -0.021635 -0.0211956 -0.0207559 -0.0203306 -0.0199144 -0.0194603 -0.0190051 -0.0185496 -0.0180937 -0.0176466 -0.0175161 -0.0173882 -0.0172603 -0.0171323 -0.0170067 -0.0166667 -0.0163279 -0.0159889 -0.0156498 -0.0153131 -0.0148124 -0.0143306 -0.0138484 -0.0133659 -0.0128831 -0.0123635 -0.0118449 -0.0113416 -0.0108451 -0.0103521 -0.00982002 -0.00928508 -0.00874985 -0.00822351 -0.00771101 -0.00716061 -0.00661148 -0.00606207 -0.00551238 -0.00496954 -0.00491483 -0.0048575 -0.00479965 -0.00474126 -0.0046828 -0.00417711 -0.00366896 -0.00316058 -0.00265198 -0.00214301 -0.00153478 -0.000952587 -0.000373008 0.000206835 0.000782056 0.00140342 0.00202775 0.00263331 0.00323049 0.00382813 0.00446804 0.00510589 0.00574398 0.00636787 0.00697334 0.00762605 0.00828219 0.00893858 0.0095952 0.0102425 0.0104532 0.0106616 0.01087 0.0110785 0.0112851 0.0117479 0.0122075 0.0126671 0.0131269 0.0135823 0.0142904 0.0149769 0.0156637 0.0163506 0.0170383 0.0177741 0.0185028 0.0192028 0.019903 0.0205976 0.0213459 0.0220975 0.0228481 0.0235665 0.0242861 0.0250559 0.0258222 0.0265888 0.0273555 0.0280833 0.0288054 0.029531 0.0302568 0.0309826 0.0317158 0.031769 0.0318222 0.0318754 0.0319286 0.0319873 0.0327933 0.0335944 0.0343955 0.0351969 0.0359944 0.0368439 0.0376627 0.0384779 0.0392931 0.0401117 0.0409877 0.0418619 0.0427004 0.0435348 0.0443664 0.0452464 0.0461307 0.047015 0.0478628 0.0487103 0.0496159 0.0505201 0.0514243 0.0523284 0.0531936 0.0540499 0.05491 0.05577 0.05663 0.0574918 0.0575469 0.057602 0.057657 0.0577121 0.0577699 0.0587129 0.0596515 0.06059 0.0615284 0.0624668 0.0634601 0.0644109 0.0653604 0.0663098 0.0672645 0.0682784 0.0692903 0.070256 0.0712215 0.0721898 0.0732129 0.0742386 0.0752611 0.0762389 0.0772247 0.0782674 0.0793092 0.0803505 0.0813865 0.0823857 0.0834377 0.0844923 0.0855463 0.0865998 0.087658 0.0878171 0.0879763 0.0881355 0.0882946 0.0884532 0.0893713 0.090288 0.0912042 0.09212 0.0930426 0.0941763 0.0952677 0.0963583 0.0974481 0.0985536 0.0997161 0.100867 0.101973 0.103079 0.1042 0.105375 0.106551 0.107716 0.108836 0.109978 0.111172 0.112364 0.113555 0.114737 0.115895 0.117104 0.118314 0.119522 0.120729 0.121962 0.122055 0.122148 0.122241 0.122334 0.122427 0.123574 0.124721 0.125866 0.127009 0.128181 0.129498 0.130758 0.132014 0.133269 0.134565 0.135904 0.137241 0.138528 0.139801 0.141119 0.142476 0.143834 0.145189 0.146507 0.147855 0.149236 0.150614 0.15199 0.153362 0.154775 0.155091 0.155411 0.15573 0.15605 0.15637 0.157473 0.158578 0.15968 0.160781 0.161925 0.163439 0.16489 0.166333 0.167772 0.169286 0.170832 0.172377 0.173891 0.175366 0.176928 0.178518 0.180103 0.181683 0.183258 0.184875 0.185697 0.186523 0.187347 0.188169 0.188976 0.189807 0.190641 0.191474 0.192306 0.193169 0.194901 0.196569 0.198231 0.199889 0.201659 0.203369 0.205077 0.206766 0.208402 0.210159 0.211915 0.213667 0.215413 0.217153 0.219019 0.219129 0.219251 0.219377 0.219503 0.21963 0.221519 0.223413 0.2253 0.22718 0.229211 0.2315 0.23378 0.23599 0.238179 0.240549 0.242685 0.244805 0.246913 0.24901 0.251328 0.251438 0.25155 0.251664 0.25178 0.251898 0.255497 0.259096 0.262687 0.266272 0.270526 0.270827 0.271133 0.271439 0.271745 0.272054 0.276155 0.280248 0.28433 0.2884 0.293158 0.29319 0.293222 0.293255 0.293288 0.293322 0.297705 0.302077 0.306432 0.310772 0.314963 0.316031 0.317101 0.31817 0.319238 0.320355 0.323737 0.327109 0.330472 0.333828 0.337113 0.339996 0.342868 0.345735 0.348596 0.351778 0.353297 0.354812 0.356326 0.357837 0.359335 0.363707 0.368059 0.372395 0.376658 0.380828 0.381993 0.383144 0.384294 0.385442 0.386637 0.389434 0.392209 0.394978 0.39774 0.400454 0.403825 0.407159 0.410479 0.413785 0.417004 0.417627 0.41822 0.418812 0.419402 0.419994 0.421776 0.42352 0.425257 0.426988 0.428667 0.429868 0.43102 0.432176 0.433395 0.434555 0.434566 0.434531 0.43449 0.434442 0.434337 0.434324 0.434272 0.43422 0.434167 0.434076 0.432666 0.431295 0.429917 0.428533 0.427117 0.424561 0.421965 0.419444 0.417004 0.414541 0.411079 0.407583 0.404083 0.400588 0.397233 0.393415 0.389571 0.385725 0.381877 0.376388 0.376343 0.376298 0.376253 0.376209 0.37616 0.371359 0.366542 0.361726 0.356911 0.352089 0.346814 0.341608 0.336403 0.331201 0.325991 0.320493 0.315009 0.309543 0.30408 0.298608 0.293072 0.287512 0.281904 0.276298 0.270684 0.265296 0.259901 0.254297 0.248678 0.243053 0.238037 0.233017 0.227673 0.222199 0.216723 0.212369 0.208017 0.203244 0.198143 0.193045 0.189647 0.186255 0.182382 0.177927 0.173477 0.170966 0.168441 0.165452 0.161675 0.157886 0.155546 0.153147 0.150388 0.146849 0.143254 0.139679 0.135967 0.132081 0.127775 0.123336 0.116136 0.108679 0.101381 0.0944727 0.0873087 0.0729234 0.0581171 0.0440669 0.0314133 0.0183418 -0.00873955 -0.0364707 -0.0626169 -0.0868133 -0.111657 -0.158163 -0.205507 -0.250715 -0.294316 -0.338749 -0.405169 -0.472261 -0.537832 -0.602693 -0.668213 -0.741931 -0.815753 -0.890107 -0.964672 -1.03933 -1.11045 -1.18159 -1.25563 -1.33098 -1.40634 -1.48153 -1.55695 -1.63616 -1.71817 -1.80042 -1.8583 -1.91491 -1.97424 -2.03719 -2.09889 -2.1234 -2.14752 -2.17279 -2.20074 -2.22831 -2.23641 -2.24426 -2.25239 -2.26142 -2.27021