/*--------------------------------*- C++ -*----------------------------------*\
  =========                 |
  \\      /  F ield         | OpenFOAM: The Open Source CFD Toolbox
   \\    /   O peration     | Website:  https://openfoam.org
    \\  /    A nd           | Version:  6
     \\/     M anipulation  |
\*---------------------------------------------------------------------------*/
FoamFile
{
    version     2.0;
    format      ascii;
    class       volScalarField;
    location    "4";
    object      epsilon;
}
// * * * * * * * * * * * * * * * * * * * * * * * * * * * * * * * * * * * * * //

dimensions      [0 2 -3 0 0 0 0];

internalField   nonuniform List<scalar> 
130000
(
17.577
17.6495
17.4261
16.9675
16.3867
15.7936
15.2618
14.8256
14.4911
14.2481
14.0798
13.9691
13.901
13.8637
13.8487
13.8498
13.862
13.8809
13.903
13.9267
17.5711
17.6593
17.437
16.9725
16.3863
15.7909
15.2594
14.8254
14.4936
14.2531
14.087
13.9779
13.9108
13.8742
13.8594
13.8607
13.873
13.8922
13.9147
13.9379
17.5754
17.6655
17.442
16.9759
16.3883
15.7921
15.2605
14.8265
14.4948
14.2545
14.0884
13.9794
13.9128
13.8763
13.8613
13.8623
13.8744
13.8936
13.9162
13.9387
17.5826
17.6701
17.4434
16.9748
16.3856
15.7888
15.2573
14.8239
14.4929
14.2532
14.0877
13.9795
13.9138
13.8774
13.8619
13.8624
13.8742
13.8932
13.9158
13.939
17.5848
17.6693
17.4399
16.9691
16.3788
15.782
15.2511
14.8189
14.489
14.2504
14.0858
13.9783
13.913
13.8761
13.8607
13.862
13.8742
13.8932
13.9158
13.9386
17.5886
17.67
17.4369
16.9629
16.3708
15.7737
15.2435
14.8125
14.484
14.2467
14.0832
13.9766
13.9115
13.8749
13.8609
13.8626
13.8745
13.8931
13.9145
13.9367
17.5943
17.6715
17.4335
16.9559
16.3618
15.7644
15.235
14.8053
14.4783
14.2423
14.0798
13.9738
13.9095
13.8741
13.8602
13.861
13.8734
13.8923
13.9144
13.938
17.5955
17.669
17.4277
16.9472
16.3516
15.7542
15.2258
14.7976
14.4721
14.2375
14.0761
13.9707
13.9064
13.8722
13.8575
13.8598
13.8731
13.8925
13.9147
13.9384
17.5956
17.6674
17.4227
16.9392
16.342
15.7443
15.2168
14.7901
14.4661
14.233
14.0727
13.9679
13.9036
13.869
13.855
13.857
13.8703
13.8896
13.912
13.9361
17.5966
17.666
17.4185
16.9319
16.333
15.7353
15.2086
14.7832
14.4607
14.2288
14.0696
13.9654
13.9015
13.8672
13.8535
13.8553
13.8675
13.8864
13.9085
13.933
17.5989
17.6651
17.4159
16.9266
16.3262
15.7282
15.2021
14.7776
14.4561
14.2252
14.0667
13.9633
13.9001
13.8664
13.8535
13.8555
13.8676
13.8864
13.9083
13.9323
17.6027
17.6661
17.4141
16.9229
16.3213
15.7228
15.1967
14.7728
14.4521
14.2222
14.0647
13.9622
13.8998
13.8665
13.8533
13.8543
13.866
13.8848
13.907
13.9312
17.6073
17.6688
17.4139
16.9211
16.3179
15.7184
15.1921
14.7685
14.4486
14.2195
14.0628
13.9613
13.8994
13.8654
13.8511
13.8514
13.8631
13.8821
13.9045
13.9291
17.616
17.6757
17.4177
16.9212
16.3155
15.7144
15.1877
14.7644
14.4452
14.2171
14.0613
13.9601
13.8979
13.8637
13.8501
13.8519
13.8642
13.8835
13.9059
13.9303
17.6234
17.6811
17.4196
16.9197
16.3115
15.7093
15.1825
14.7599
14.4418
14.215
14.0604
13.9595
13.8985
13.8661
13.8535
13.8559
13.8684
13.8874
13.9094
13.9334
17.6275
17.6828
17.418
16.9153
16.3052
15.7023
15.1761
14.7547
14.4382
14.213
14.0604
13.9617
13.9023
13.8711
13.8593
13.8622
13.8747
13.8931
13.9141
13.9369
17.6301
17.6828
17.4159
16.9108
16.2987
15.695
15.1692
14.7494
14.4346
14.2111
14.06
13.9627
13.9043
13.8739
13.8627
13.866
13.8786
13.8965
13.9171
13.9397
17.6367
17.6868
17.4174
16.9103
16.2966
15.6921
15.166
14.7462
14.432
14.2092
14.0583
13.9612
13.9027
13.8727
13.8627
13.8667
13.8798
13.8979
13.9194
13.9424
17.6504
17.6979
17.4252
16.9151
16.2995
15.6934
15.1661
14.7454
14.431
14.2079
14.0568
13.9594
13.9007
13.8711
13.8624
13.8669
13.8804
13.8991
13.9213
13.9439
17.6638
17.7093
17.4337
16.9205
16.3024
15.6947
15.1664
14.7452
14.4305
14.2075
14.0565
13.9594
13.9014
13.8716
13.8619
13.8658
13.879
13.8976
13.9201
13.9427
17.6775
17.7217
17.4432
16.9268
16.306
15.6963
15.1669
14.7453
14.4306
14.2081
14.058
13.9616
13.9041
13.8743
13.8635
13.8672
13.8806
13.8993
13.921
13.9441
17.6939
17.7368
17.455
16.9348
16.3107
15.6984
15.1674
14.7453
14.4304
14.2076
14.0579
13.9623
13.9053
13.8763
13.8658
13.8704
13.8845
13.9034
13.9247
13.9479
17.7139
17.7545
17.4685
16.9438
16.3159
15.701
15.1683
14.7454
14.4301
14.2071
14.0567
13.961
13.9038
13.8753
13.8649
13.8708
13.8858
13.9064
13.9281
13.9514
17.7332
17.7715
17.4816
16.9526
16.3211
15.7037
15.1699
14.746
14.4303
14.2072
14.0564
13.9603
13.904
13.8751
13.8657
13.8711
13.8866
13.908
13.9306
13.9533
17.7517
17.7886
17.4949
16.9617
16.3267
15.7068
15.1713
14.7465
14.4305
14.2075
14.0571
13.9611
13.9048
13.8761
13.8662
13.8711
13.8862
13.9076
13.9304
13.9542
17.7727
17.8079
17.5101
16.9722
16.3332
15.7104
15.1731
14.7472
14.4308
14.2077
14.0576
13.9615
13.9045
13.876
13.8653
13.8699
13.885
13.9066
13.9291
13.9537
17.7988
17.8313
17.5284
16.9848
16.341
15.7148
15.1753
14.7481
14.4312
14.208
14.058
13.9625
13.9065
13.8778
13.8683
13.8733
13.8884
13.909
13.9318
13.9552
17.8261
17.8559
17.5475
16.998
16.3492
15.7194
15.1777
14.749
14.4312
14.2075
14.0575
13.962
13.9062
13.8779
13.8688
13.8744
13.8902
13.9104
13.9329
13.9558
17.8538
17.8809
17.567
17.0114
16.3576
15.724
15.1797
14.7495
14.4305
14.2058
14.0551
13.9592
13.9032
13.8748
13.8658
13.8715
13.8877
13.9074
13.9299
13.953
17.8824
17.9068
17.5871
17.0253
16.3662
15.7287
15.1818
14.75
14.4301
14.205
14.0544
13.9587
13.903
13.8749
13.8659
13.8713
13.8865
13.9071
13.9299
13.9531
17.9114
17.9332
17.6078
17.0398
16.3752
15.7336
15.1841
14.7506
14.4298
14.2045
14.0539
13.958
13.9024
13.8747
13.8657
13.8703
13.8851
13.9057
13.9285
13.9515
17.9411
17.9604
17.6294
17.0549
16.3848
15.7391
15.1867
14.7515
14.4298
14.204
14.053
13.957
13.9013
13.8732
13.8634
13.8673
13.8822
13.9028
13.9255
13.9486
17.9722
17.9889
17.6522
17.0713
16.3953
15.7453
15.19
14.753
14.4301
14.2035
14.0522
13.9569
13.901
13.8719
13.8628
13.8682
13.8835
13.904
13.9265
13.9493
18.0045
18.0188
17.6763
17.0887
16.4069
15.7524
15.1941
14.7553
14.4315
14.2045
14.053
13.9572
13.9019
13.8745
13.8665
13.8729
13.888
13.9075
13.9288
13.951
18.038
18.0498
17.7016
17.1073
16.4193
15.7602
15.1988
14.7582
14.4337
14.2068
14.0558
13.9608
13.906
13.8789
13.8709
13.8769
13.8908
13.9094
13.9304
13.9526
18.0729
18.0824
17.7283
17.1269
16.4326
15.7685
15.2037
14.7612
14.4357
14.2087
14.058
13.9629
13.9074
13.8796
13.8709
13.8768
13.8905
13.9095
13.9313
13.954
18.1101
18.1171
17.7569
17.1481
16.4469
15.7775
15.2089
14.7638
14.4368
14.2088
14.0572
13.9613
13.9049
13.8771
13.8688
13.8758
13.8911
13.9101
13.9322
13.9551
18.1494
18.1539
17.7874
17.1709
16.4625
15.7872
15.2144
14.7665
14.4375
14.208
14.0554
13.9593
13.904
13.877
13.869
13.8752
13.8907
13.9103
13.9329
13.9559
18.1906
18.1928
17.8197
17.1953
16.4794
15.7981
15.2208
14.7699
14.4389
14.2085
14.0555
13.9594
13.9042
13.8774
13.8687
13.8746
13.8896
13.9109
13.9341
13.9572
18.2338
18.2338
17.8542
17.2215
16.4977
15.81
15.2281
14.7739
14.4409
14.2091
14.0554
13.9588
13.9034
13.8758
13.8667
13.8734
13.8902
13.9124
13.936
13.9591
18.2799
18.2777
17.8913
17.2499
16.5178
15.8234
15.2364
14.7789
14.4434
14.2098
14.0548
13.9575
13.902
13.8749
13.8673
13.8748
13.8923
13.9149
13.9386
13.9617
18.3288
18.3245
17.931
17.2805
16.5397
15.8381
15.2459
14.7848
14.4471
14.2121
14.0564
13.9588
13.9033
13.8765
13.8692
13.8772
13.895
13.9179
13.9417
13.9647
18.3805
18.3742
17.9734
17.3134
16.5634
15.8543
15.2565
14.7916
14.4516
14.2152
14.0587
13.9609
13.9054
13.8788
13.8718
13.8801
13.8983
13.9214
13.9453
13.9682
18.4355
18.4272
18.0189
17.3489
16.5891
15.872
15.2683
14.7993
14.4567
14.2188
14.0616
13.9635
13.908
13.8815
13.8748
13.8834
13.9019
13.9253
13.9492
13.972
18.4946
18.4843
18.0679
17.3873
16.6172
15.8914
15.2813
14.808
14.4626
14.223
14.0649
13.9664
13.9109
13.8845
13.8781
13.8872
13.906
13.9296
13.9537
13.9763
18.5577
18.5452
18.1204
17.4286
16.6475
15.9127
15.2957
14.8177
14.4692
14.2278
14.0687
13.9698
13.9142
13.888
13.8819
13.8913
13.9105
13.9344
13.9585
13.9811
18.6242
18.6097
18.1763
17.4728
16.6802
15.9357
15.3115
14.8284
14.4766
14.2332
14.073
13.9736
13.918
13.8919
13.8861
13.896
13.9156
13.9398
13.964
13.9864
18.6939
18.6779
18.2357
17.5202
16.7155
15.9607
15.3287
14.8402
14.4849
14.2393
14.0779
13.978
13.9223
13.8963
13.8908
13.9011
13.9212
13.9457
13.97
13.9922
18.7689
18.7515
18.3
17.5716
16.754
15.9882
15.3479
14.8535
14.4942
14.2463
14.0835
13.983
13.9271
13.9013
13.8962
13.9069
13.9274
13.9523
13.9767
13.9987
18.8498
18.8312
18.37
17.6278
16.7963
16.0186
15.3692
14.8683
14.5048
14.2542
14.0899
13.9887
13.9326
13.9069
13.9021
13.9133
13.9343
13.9595
13.9839
14.0057
18.9393
18.9189
18.447
17.6897
16.8429
16.0523
15.3929
14.885
14.5167
14.2632
14.0972
13.9951
13.9388
13.9132
13.9088
13.9205
13.942
13.9675
13.992
14.0133
19.0372
19.0147
18.5309
17.7573
16.894
16.0894
15.4192
14.9035
14.5301
14.2733
14.1054
14.0024
13.9458
13.9204
13.9163
13.9285
13.9506
13.9765
14.001
14.022
19.1418
19.1174
18.6213
17.8303
16.9496
16.1299
15.448
14.9241
14.5451
14.2848
14.1147
14.0107
13.9538
13.9285
13.9248
13.9376
13.9602
13.9865
14.0112
14.0319
19.2536
19.2275
18.7183
17.9091
17.0097
16.174
15.4797
14.9468
14.5617
14.2976
14.1253
14.0202
13.9629
13.9376
13.9344
13.9478
13.971
13.9978
14.0226
14.043
19.3736
19.3458
18.823
17.9942
17.075
16.2221
15.5145
14.9719
14.5803
14.312
14.1373
14.0309
13.9732
13.948
13.9452
13.9593
13.9832
14.0105
14.0353
14.0554
19.5028
19.4735
18.9362
18.0866
17.1461
16.2748
15.5527
14.9998
14.6011
14.3283
14.1508
14.0431
13.9849
13.9598
13.9575
13.9723
13.9969
14.0247
14.0497
14.0693
19.6427
19.6119
19.059
18.1871
17.2238
16.3326
15.595
15.0308
14.6245
14.3467
14.1663
14.057
13.9983
13.9732
13.9715
13.987
14.0124
14.0408
14.0659
14.0851
19.7941
19.7618
19.1924
18.2966
17.3086
16.396
15.6417
15.0653
14.6506
14.3675
14.1838
14.0729
14.0136
13.9886
13.9874
14.0038
14.03
14.059
14.0841
14.1028
19.9581
19.9245
19.3375
18.416
17.4016
16.4659
15.6934
15.1038
14.68
14.391
14.2039
14.0911
14.0311
14.0061
14.0056
14.0228
14.05
14.0797
14.1049
14.1229
20.1362
20.1015
19.4956
18.5465
17.5036
16.5429
15.7508
15.1468
14.7132
14.4177
14.2267
14.1119
14.0512
14.0263
14.0264
14.0446
14.0728
14.1031
14.1285
14.1458
20.3304
20.2947
19.6685
18.6896
17.6158
16.6281
15.8146
15.195
14.7506
14.4482
14.2529
14.1358
14.0743
14.0495
14.0503
14.0695
14.0988
14.1299
14.1554
14.1718
20.5421
20.5056
19.8576
18.8466
17.7394
16.7224
15.8857
15.2491
14.793
14.4829
14.283
14.1634
14.1009
14.0761
14.0777
14.0981
14.1285
14.1605
14.186
14.2015
20.7733
20.7362
20.0649
19.0193
17.8759
16.827
15.9651
15.31
14.841
14.5226
14.3175
14.1952
14.1317
14.107
14.1094
14.131
14.1627
14.1955
14.221
14.2354
21.0262
20.989
20.2927
19.2095
18.0269
16.9434
16.054
15.3786
14.8957
14.568
14.3573
14.232
14.1674
14.1427
14.146
14.169
14.2021
14.2358
14.2613
14.2745
21.304
21.2672
20.5439
19.4199
18.1946
17.0734
16.154
15.4564
14.9581
14.6204
14.4035
14.2748
14.2089
14.1841
14.1886
14.2131
14.2476
14.2824
14.3078
14.3196
21.6097
21.5736
20.8213
19.6532
18.3813
17.2189
16.2666
15.5448
15.0296
14.6808
14.457
14.3246
14.2573
14.232
14.2379
14.2641
14.3003
14.3361
14.3613
14.3713
21.9468
21.9124
21.1288
19.9126
18.59
17.3824
16.3941
15.6457
15.1119
14.7508
14.5196
14.3831
14.3141
14.2889
14.296
14.324
14.3619
14.3987
14.4237
14.4319
22.32
22.2881
21.4708
20.2021
18.8239
17.5669
16.5391
15.7613
15.2069
14.8323
14.5927
14.4517
14.3809
14.3558
14.3642
14.394
14.4338
14.4718
14.4964
14.5027
22.7348
22.7065
21.8526
20.5266
19.0875
17.7761
16.7046
15.8944
15.3173
14.9277
14.6788
14.5327
14.4599
14.4349
14.4447
14.4765
14.5183
14.5575
14.5817
14.5856
23.197
23.1736
22.2802
20.8916
19.3855
18.0141
16.8944
16.0483
15.4461
15.0398
14.7805
14.6287
14.5535
14.5287
14.5399
14.574
14.618
14.6585
14.6821
14.6831
23.7138
23.6971
22.761
21.3037
19.724
18.2864
17.1133
16.2274
15.5972
15.1722
14.9013
14.7431
14.6653
14.6405
14.6534
14.6899
14.7363
14.778
14.8008
14.7983
24.2939
24.2862
23.304
21.7714
20.1104
18.5995
17.3672
16.4368
15.7754
15.3296
15.0456
14.8802
14.7993
14.7745
14.789
14.8282
14.8771
14.9201
14.9418
14.9352
24.948
24.9523
23.9204
22.305
20.5541
18.9618
17.6634
16.6836
15.9871
15.5179
15.2191
15.0454
14.9609
14.936
14.9523
14.9943
15.0459
15.0902
15.1105
15.0987
25.6887
25.7089
24.6234
22.9169
21.0665
19.3836
18.0115
16.9762
16.2403
15.7446
15.4291
15.2458
15.1572
15.1319
15.15
15.1948
15.2492
15.2947
15.313
15.2948
26.5317
26.5729
25.4301
23.6234
21.6623
19.8784
18.4238
17.326
16.5457
16.02
15.6853
15.4909
15.3972
15.3712
15.3909
15.4387
15.4959
15.5422
15.5577
15.5315
27.4968
27.5656
26.3616
24.4444
22.3604
20.4633
18.9159
17.7478
16.9172
16.3573
16.0005
15.7931
15.6931
15.6657
15.6868
15.7373
15.7971
15.8438
15.8554
15.8189
28.6081
28.7134
27.4445
25.4058
23.1849
21.161
19.509
18.2612
17.3733
16.7743
16.3919
16.1691
16.0613
16.0315
16.0533
16.1061
16.168
16.2143
16.2205
16.1712
29.8957
30.0493
28.713
26.5407
24.1673
22.0011
20.231
18.8926
17.9394
17.2953
16.8833
16.6418
16.524
16.4904
16.5118
16.5661
16.6292
16.6739
16.6725
16.6066
31.3986
31.6169
30.2118
27.8933
25.35
23.0238
21.12
19.6786
18.6505
17.9545
17.5076
17.2437
17.1129
17.0733
17.0924
17.1467
17.2095
17.2506
17.2383
17.1512
33.1672
33.4722
31.9994
29.5216
26.7894
24.2833
22.2281
20.6693
19.5555
18.7994
18.3116
18.0204
17.8728
17.824
17.8382
17.8899
17.9498
17.984
17.956
17.8412
35.2663
35.6886
34.153
31.5035
28.5621
25.8542
23.6277
21.9355
20.7235
19.8982
19.3627
19.0385
18.8688
18.8062
18.8117
18.8571
18.9099
18.9319
18.8803
18.7276
37.7809
38.3629
36.7754
33.9434
30.7718
27.8385
25.4191
23.5758
22.2523
21.348
20.7576
20.394
20.195
20.1123
20.1046
20.1377
20.1765
20.1772
20.0897
19.8836
40.8244
41.6249
40.0054
36.983
33.56
30.3763
27.7409
25.7278
24.2793
23.2868
22.6351
22.2279
21.9949
21.8836
21.8512
21.8626
21.8761
21.8409
21.6985
21.4167
44.5468
45.6465
44.0268
40.8106
37.1159
33.656
30.7806
28.5791
26.993
25.9047
25.1874
24.7333
24.4612
24.3117
24.2421
24.2196
24.1918
24.0987
23.8749
23.4871
49.1447
50.6537
49.0815
45.6743
41.6883
37.9255
34.7854
32.3781
30.645
29.4582
28.6767
28.1783
27.8674
27.6737
27.5536
27.4795
27.3901
27.201
26.8665
26.3414
54.8755
56.9406
55.4823
51.8922
47.5944
43.499
40.068
37.4386
35.5543
34.2756
33.4436
32.9177
32.5845
32.3606
32.1821
32.0286
31.8653
31.5597
31.0778
30.3491
62.0726
64.884
63.6246
59.8609
55.2238
50.7572
47.0026
44.1339
42.0997
40.7482
39.8983
39.385
39.0701
38.8466
38.6273
38.3895
38.1284
37.7005
37.0414
36.0412
71.1537
74.9497
73.9892
70.0536
65.0309
60.1337
56.006
52.8718
50.6908
49.2987
48.4881
48.0639
47.8573
47.7351
47.5846
47.3097
46.8914
46.3555
45.546
44.1845
82.6281
87.6971
87.1416
83.0112
77.5173
72.0875
67.4997
64.0477
61.7117
60.3165
59.6244
59.4042
59.4556
59.6165
59.7206
59.6532
59.3203
58.6626
57.6157
55.8391
97.1008
103.779
103.723
99.3224
93.197
87.0517
81.8422
77.9601
75.422
74.0479
73.5662
73.6987
74.2382
75.0405
75.7193
76.0836
76.0496
75.6579
74.568
72.4568
115.273
123.937
124.437
119.588
112.535
105.342
99.2058
94.6567
91.7805
90.4015
90.2245
91.0003
92.5316
94.3581
96.2454
97.9238
99.0639
99.2128
98.2685
96.0794
137.953
149.014
150.028
144.358
135.826
126.979
119.342
113.648
110.096
108.542
108.748
110.487
113.381
116.999
121.024
125.051
128.523
130.66
130.929
129.375
166.123
180.005
181.278
174.026
162.982
151.359
141.15
133.395
128.472
126.343
126.845
129.778
134.709
141.209
148.872
157.159
165.291
172.176
176.288
176.615
201.256
218.329
219.09
208.691
193.173
176.72
162.012
150.553
142.983
139.467
139.957
144.266
152.13
162.965
176.384
191.791
208.238
224.24
237.472
244.838
246.309
266.613
264.826
248.002
224.283
199.357
176.711
158.805
147.553
142.197
142.315
147.399
158.603
175.255
196.701
222.719
252.537
284.646
315.979
341.26
308.722
330.824
321.009
290.674
251.754
212.025
179.36
154.788
138.534
130.369
130.052
137.188
151.044
171.776
199.677
237.982
285.658
342.16
405.192
469.03
411.811
426.162
391.231
330.745
264.298
206.036
159.388
125.648
104.543
94.4855
93.8984
101.682
117.804
142.866
178.72
225.284
284.968
367.128
473.378
605.305
636.251
581.296
463.496
340.294
236.136
157.524
104.195
70.7373
53.1394
46.1515
46.6311
53.466
66.6887
87.7103
119.559
166.975
237.757
329.987
452.856
670.139
1043.25
703.63
438.456
240.248
120.72
62.7096
37.3714
28.4397
24.5176
22.7869
22.5209
23.6855
27.7573
35.7555
50.2107
76.5413
124.711
200.772
341.204
559.126
353.806
134.822
24.7741
25.6361
26.5972
21.4687
17.6114
15.8191
15.1893
15.1627
15.4782
16.0263
16.8111
17.7649
18.4509
17.1384
7.53257
5.53869
21.7264
339.125
14.312
14.2914
14.2356
14.1632
14.0848
14.0106
13.9474
13.8984
13.8639
13.8433
13.8353
13.8392
13.8548
13.8817
13.9191
13.9679
14.024
14.0803
14.1291
14.1657
14.3212
14.2991
14.2427
14.1698
14.0911
14.017
13.9542
13.9056
13.8714
13.8508
13.8427
13.8463
13.8614
13.8879
13.9249
13.9736
14.0293
14.0854
14.1342
14.1708
14.3173
14.2952
14.2388
14.1661
14.088
14.0151
13.9537
13.9063
13.8727
13.8524
13.8442
13.8475
13.8623
13.8888
13.9269
13.9753
14.0301
14.085
14.1331
14.17
14.318
14.2952
14.2385
14.1657
14.0877
14.0152
13.9543
13.9076
13.8744
13.8542
13.846
13.8491
13.8635
13.8895
13.9272
13.9755
14.0309
14.0859
14.1344
14.1711
14.3208
14.2976
14.241
14.1682
14.0899
14.0163
13.9537
13.907
13.8742
13.8543
13.8463
13.8495
13.864
13.8899
13.9274
13.9755
14.0308
14.0868
14.1358
14.1712
14.3219
14.2982
14.2415
14.1687
14.0906
14.0167
13.9527
13.9059
13.8732
13.8539
13.8464
13.8502
13.8652
13.8916
13.9293
13.9766
14.0294
14.0868
14.1354
14.1702
14.3208
14.2971
14.2402
14.1672
14.0887
14.0143
13.9509
13.9037
13.8713
13.8521
13.8448
13.8487
13.8639
13.8906
13.9286
13.9764
14.03
14.0852
14.1326
14.1679
14.3197
14.2955
14.2378
14.1638
14.0844
14.0093
13.9486
13.9027
13.8705
13.8512
13.8437
13.8476
13.8628
13.8896
13.9278
13.976
14.0301
14.083
14.1295
14.1635
14.3162
14.2895
14.2307
14.1565
14.0777
14.0042
13.9429
13.8974
13.8649
13.8455
13.8381
13.842
13.8575
13.8847
13.9232
13.9717
14.0272
14.0825
14.1289
14.1636
14.3127
14.2864
14.2273
14.1529
14.0739
13.9999
13.9377
13.8899
13.8567
13.8371
13.8296
13.8337
13.8494
13.877
13.9161
13.9655
14.0234
14.0798
14.1262
14.1625
14.3098
14.2846
14.2251
14.1503
14.0709
13.9969
13.9346
13.8867
13.8534
13.8337
13.8262
13.8302
13.8458
13.8734
13.9128
13.963
14.0215
14.0786
14.1274
14.1623
14.3091
14.2834
14.2234
14.1486
14.0695
13.9956
13.9335
13.8858
13.8528
13.8333
13.826
13.8301
13.8458
13.8732
13.912
13.961
14.0178
14.0766
14.1257
14.1609
14.3091
14.2828
14.2238
14.149
14.0695
13.9953
13.933
13.8853
13.8522
13.8328
13.8256
13.8298
13.8457
13.8733
13.9123
13.9611
14.0172
14.0738
14.1222
14.1588
14.3103
14.2836
14.2245
14.1479
14.0671
13.9923
13.9297
13.8817
13.8485
13.829
13.8218
13.8261
13.8422
13.8702
13.9098
13.9598
14.0162
14.0729
14.1218
14.1586
14.3092
14.2827
14.2222
14.1448
14.0642
13.9895
13.9269
13.8789
13.8457
13.8262
13.8191
13.8236
13.84
13.8685
13.9085
13.9588
14.0153
14.0721
14.1219
14.1564
14.3086
14.2827
14.224
14.1492
14.0695
13.9951
13.9327
13.8847
13.8515
13.832
13.825
13.8298
13.8467
13.8758
13.9166
13.9674
14.0237
14.0793
14.1267
14.1611
14.3128
14.2876
14.2308
14.1568
14.0774
14.0033
13.9411
13.8933
13.8597
13.8399
13.8327
13.8374
13.8542
13.8832
13.9236
13.9729
14.0285
14.0827
14.1292
14.1634
14.3168
14.2929
14.2354
14.1605
14.0809
14.0071
13.9451
13.8969
13.8623
13.8421
13.8347
13.8391
13.8556
13.8843
13.925
13.9731
14.0275
14.08
14.1261
14.1603
14.3216
14.2963
14.2351
14.1588
14.079
14.0059
13.9444
13.8961
13.8613
13.8417
13.8347
13.8391
13.8555
13.8841
13.9251
13.9743
14.0287
14.0832
14.1295
14.163
14.3236
14.2965
14.2342
14.1572
14.0772
14.0048
13.9446
13.8979
13.866
13.8475
13.8409
13.8455
13.8617
13.8894
13.9279
13.9761
14.031
14.0849
14.1308
14.1642
14.3263
14.2981
14.2365
14.1591
14.0789
14.0056
13.9461
13.8996
13.8674
13.8488
13.8423
13.847
13.8635
13.8917
13.9315
13.9798
14.0329
14.0852
14.1307
14.1648
14.3297
14.2997
14.2383
14.1631
14.0834
14.0091
13.9468
13.8976
13.8647
13.8458
13.8392
13.8441
13.861
13.89
13.9315
13.9808
14.0348
14.0876
14.1346
14.1703
14.3298
14.3016
14.2424
14.1676
14.0866
14.0116
13.9478
13.8998
13.8671
13.8484
13.8419
13.8467
13.8635
13.8921
13.9319
13.9811
14.0351
14.09
14.1384
14.1761
14.3304
14.3036
14.2441
14.1676
14.0859
14.0108
13.9475
13.8996
13.8671
13.8484
13.842
13.8469
13.8638
13.8925
13.9326
13.9821
14.0364
14.0921
14.1411
14.1794
14.3329
14.305
14.2448
14.1682
14.0867
14.0096
13.9466
13.899
13.8667
13.8483
13.8419
13.8469
13.8637
13.8923
13.9324
13.9823
14.0383
14.094
14.1421
14.1788
14.3361
14.3077
14.2473
14.1701
14.0882
14.0141
13.9527
13.9061
13.8745
13.8564
13.8502
13.855
13.8714
13.8993
13.9385
13.9878
14.043
14.0976
14.1438
14.1774
14.3397
14.311
14.2496
14.1735
14.0934
14.0197
13.9584
13.912
13.8806
13.8628
13.8569
13.8621
13.8789
13.9073
13.9469
13.9957
14.05
14.1032
14.1477
14.1795
14.3434
14.3155
14.2539
14.1759
14.0938
14.0187
13.9567
13.91
13.8786
13.8609
13.8553
13.861
13.8789
13.9089
13.951
14.0012
14.0562
14.1088
14.1517
14.1825
14.3456
14.3173
14.2546
14.1734
14.09
14.014
13.9515
13.9044
13.8726
13.8549
13.8495
13.8557
13.8743
13.9054
13.9493
14.0008
14.0573
14.11
14.1527
14.184
14.3466
14.3166
14.2544
14.1741
14.0911
14.0152
13.9526
13.905
13.8725
13.8546
13.8495
13.8567
13.8752
13.9054
13.9472
13.9983
14.0547
14.1074
14.1527
14.1845
14.3483
14.3171
14.2533
14.1732
14.0901
14.0144
13.9529
13.9057
13.8735
13.856
13.8509
13.8577
13.8748
13.9044
13.9461
13.9971
14.0525
14.1078
14.1541
14.1861
14.3505
14.318
14.2518
14.171
14.0876
14.012
13.9511
13.9045
13.873
13.8556
13.8501
13.8556
13.8721
13.9023
13.9445
13.9966
14.0543
14.1104
14.1569
14.1887
14.354
14.3214
14.2552
14.1745
14.0912
14.0151
13.9522
13.9047
13.873
13.8557
13.8507
13.8574
13.8766
13.9078
13.9501
14.0017
14.0589
14.1145
14.1607
14.1921
14.3578
14.3255
14.2604
14.1809
14.098
14.0219
13.959
13.9117
13.8804
13.8634
13.8589
13.866
13.8857
13.9168
13.9586
14.0094
14.0648
14.1191
14.1646
14.1957
14.3609
14.3284
14.263
14.1831
14.1
14.0236
13.9603
13.913
13.8819
13.8653
13.8609
13.8685
13.889
13.9203
13.9614
14.0121
14.0674
14.1221
14.168
14.1992
14.3636
14.3298
14.2624
14.1815
14.0973
14.0194
13.9553
13.9078
13.8774
13.8613
13.857
13.8647
13.8871
13.9187
13.9592
14.0117
14.0685
14.1245
14.1712
14.2027
14.3669
14.3322
14.2637
14.1816
14.0952
14.0169
13.9531
13.9061
13.8758
13.8597
13.855
13.8624
13.8843
13.9166
13.9595
14.0129
14.0701
14.1274
14.1748
14.2066
14.3709
14.3353
14.2654
14.1815
14.0968
14.0186
13.9546
13.9064
13.8744
13.8576
13.8534
13.8618
13.8825
13.915
13.9593
14.012
14.0721
14.1308
14.1788
14.2107
14.3756
14.3392
14.2682
14.183
14.0972
14.0188
13.9552
13.9071
13.8754
13.8586
13.8545
13.8626
13.8822
13.9143
13.958
14.0138
14.0756
14.1353
14.1838
14.2157
14.3811
14.3438
14.2715
14.1846
14.0959
14.0165
13.9533
13.9055
13.874
13.8571
13.8527
13.8599
13.879
13.9129
13.9598
14.0173
14.0802
14.1407
14.1896
14.2213
14.3874
14.3495
14.2763
14.1881
14.0981
14.017
13.9512
13.9024
13.8705
13.8537
13.8497
13.8582
13.8802
13.9155
13.9636
14.0221
14.086
14.1471
14.1962
14.2278
14.3947
14.3561
14.282
14.1929
14.102
14.0201
13.9536
13.9045
13.8724
13.8557
13.852
13.8609
13.8835
13.9196
13.9685
14.0278
14.0924
14.1541
14.2035
14.2349
14.4029
14.3636
14.2887
14.1986
14.1068
14.0242
13.9572
13.9078
13.8756
13.859
13.8554
13.8646
13.8877
13.9244
13.9741
14.0342
14.0996
14.1619
14.2116
14.2429
14.4119
14.372
14.2962
14.2051
14.1123
14.0289
13.9614
13.9117
13.8794
13.8628
13.8593
13.8689
13.8925
13.9299
13.9803
14.0413
14.1075
14.1704
14.2204
14.2516
14.4219
14.3812
14.3045
14.2123
14.1185
14.0343
13.9662
13.9162
13.8837
13.8672
13.8639
13.8738
13.898
13.936
13.9872
14.0491
14.1162
14.1799
14.2301
14.2611
14.4327
14.3914
14.3136
14.2203
14.1255
14.0404
13.9717
13.9213
13.8887
13.8722
13.8691
13.8794
13.9041
13.9428
13.995
14.0578
14.1259
14.1903
14.2409
14.2718
14.4447
14.4027
14.3239
14.2294
14.1334
14.0474
13.978
13.9272
13.8945
13.878
13.8751
13.8857
13.911
13.9505
14.0036
14.0675
14.1366
14.2018
14.2529
14.2837
14.458
14.4152
14.3353
14.2395
14.1423
14.0554
13.9852
13.934
13.901
13.8846
13.8818
13.8929
13.9187
13.9591
14.0132
14.0783
14.1484
14.2146
14.2661
14.2968
14.4727
14.4291
14.3481
14.2509
14.1524
14.0644
13.9935
13.9417
13.9086
13.8921
13.8896
13.9011
13.9276
13.9688
14.024
14.0902
14.1616
14.2287
14.2807
14.3114
14.4891
14.4446
14.3624
14.2638
14.1639
14.0747
14.0029
13.9506
13.9172
13.9008
13.8984
13.9103
13.9375
13.9797
14.0361
14.1036
14.1762
14.2444
14.297
14.3275
14.5073
14.4619
14.3784
14.2783
14.1768
14.0864
14.0137
13.9608
13.9271
13.9107
13.9085
13.9209
13.9489
13.9921
14.0496
14.1185
14.1925
14.2618
14.315
14.3454
14.5275
14.4813
14.3964
14.2946
14.1916
14.0997
14.026
13.9724
13.9384
13.9219
13.92
13.9329
13.9617
14.006
14.0649
14.1353
14.2108
14.2813
14.3351
14.3654
14.5502
14.503
14.4167
14.3131
14.2083
14.115
14.0401
13.9858
13.9514
13.9349
13.9332
13.9467
13.9763
14.0218
14.0821
14.1541
14.2312
14.303
14.3575
14.3877
14.5755
14.5274
14.4396
14.3341
14.2273
14.1324
14.0563
14.0011
13.9662
13.9496
13.9481
13.9623
13.9929
14.0397
14.1016
14.1753
14.2541
14.3273
14.3826
14.4126
14.604
14.5548
14.4654
14.3578
14.2491
14.1523
14.0749
14.0187
13.9832
13.9662
13.9648
13.9801
14.0119
14.0601
14.1237
14.1993
14.28
14.3547
14.4107
14.4405
14.636
14.5858
14.4947
14.3849
14.2739
14.1752
14.0963
14.0391
14.003
13.9859
13.9848
14.0009
14.0338
14.0835
14.1489
14.2265
14.3091
14.3855
14.4424
14.4719
14.6721
14.6208
14.5279
14.4158
14.3023
14.2016
14.1211
14.0628
14.0261
14.0087
14.008
14.0249
14.059
14.1103
14.1776
14.2574
14.3422
14.4203
14.4781
14.5073
14.713
14.6605
14.5657
14.451
14.335
14.2321
14.1498
14.0903
14.0529
14.0355
14.0351
14.0528
14.0882
14.1412
14.2106
14.2927
14.3798
14.4598
14.5184
14.5471
14.7593
14.7057
14.6089
14.4915
14.3727
14.2673
14.1831
14.1224
14.0843
14.0667
14.0667
14.0853
14.122
14.1768
14.2485
14.3332
14.4228
14.5048
14.5644
14.5927
14.8121
14.7573
14.6584
14.5381
14.4162
14.3082
14.2219
14.1598
14.1209
14.1031
14.1036
14.123
14.1612
14.218
14.2922
14.3796
14.4719
14.5562
14.6168
14.6448
14.8724
14.8164
14.7153
14.5918
14.4667
14.3558
14.2673
14.2036
14.1638
14.1458
14.1467
14.1672
14.207
14.266
14.3428
14.4332
14.5285
14.6151
14.6769
14.7043
14.9415
14.8844
14.781
14.6541
14.5254
14.4113
14.3203
14.2549
14.2142
14.196
14.1974
14.219
14.2605
14.3218
14.4015
14.4952
14.5937
14.683
14.746
14.7727
15.021
14.9628
14.857
14.7265
14.5939
14.4763
14.3827
14.3154
14.2736
14.2551
14.2571
14.2799
14.3233
14.3872
14.4701
14.5674
14.6694
14.7614
14.8256
14.8515
15.113
15.0537
14.9455
14.811
14.6742
14.5529
14.4562
14.3869
14.3439
14.3252
14.3278
14.352
14.3974
14.4641
14.5504
14.6516
14.7574
14.8525
14.918
14.9428
15.2198
15.1596
15.0488
14.9101
14.7688
14.6433
14.5434
14.4718
14.4275
14.4085
14.4119
14.4375
14.4851
14.5549
14.645
14.7504
14.8604
14.9587
15.0255
15.0489
15.3443
15.2833
15.1701
15.027
14.8807
14.7508
14.6473
14.5731
14.5274
14.508
14.5122
14.5394
14.5895
14.6627
14.7568
14.8668
14.9814
15.0831
15.1512
15.1728
15.4899
15.4288
15.3133
15.1655
15.0138
14.879
14.7716
14.6947
14.6473
14.6276
14.6327
14.6616
14.7144
14.7912
14.8899
15.0049
15.1243
15.2298
15.2991
15.3183
15.6618
15.6009
15.4833
15.3305
15.1731
15.033
14.9213
14.8412
14.792
14.7719
14.778
14.8089
14.8647
14.9454
15.0489
15.1694
15.2941
15.4035
15.4739
15.4901
15.866
15.8058
15.6865
15.5286
15.3649
15.219
15.1026
15.0191
14.9678
14.9473
14.9546
14.9875
15.0465
15.1314
15.2403
15.3667
15.497
15.6106
15.6819
15.6942
16.11
16.0516
15.931
15.7679
15.5977
15.4455
15.3239
15.2366
15.1829
15.1619
15.1704
15.2056
15.2679
15.3575
15.4721
15.6048
15.7412
15.8591
15.9309
15.9382
16.4041
16.3486
16.2277
16.0594
15.8823
15.7233
15.596
15.5044
15.4481
15.4264
15.4364
15.474
15.5399
15.6344
15.7549
15.8944
16.0373
16.1595
16.2314
16.2321
16.761
16.7105
16.5909
16.4178
16.2335
16.0672
15.9338
15.8374
15.778
15.7554
15.7669
15.8069
15.8766
15.9761
16.103
16.2496
16.3992
16.5257
16.5968
16.5888
17.1984
17.156
17.0399
16.8628
16.6712
16.4974
16.3572
16.2555
16.1924
16.1687
16.1818
16.2242
16.2975
16.4021
16.5355
16.6894
16.8457
16.9762
17.0453
17.0256
17.7402
17.7101
17.601
17.4214
17.2231
17.0416
16.8943
16.7865
16.7189
16.6937
16.7082
16.7527
16.8293
16.9388
17.0785
17.2396
17.4024
17.536
17.6012
17.5658
18.4184
18.4069
18.3103
18.131
17.9272
17.7383
17.5836
17.4692
17.3961
17.3685
17.3841
17.43
17.5092
17.6229
17.7683
17.9359
18.1044
18.2395
18.2975
18.2411
19.2769
19.2937
19.2178
19.0434
18.8366
18.6413
18.4795
18.3579
18.2779
18.2464
18.2624
18.3084
18.3888
18.5052
18.6549
18.8277
19
19.1337
19.1791
19.0945
20.3766
20.4351
20.3923
20.2302
20.0246
19.8253
19.6572
19.5281
19.4395
19.4017
19.4163
19.4603
19.5395
19.6562
19.8079
19.9834
20.1567
20.2852
20.3117
20.1885
21.7994
21.9182
21.9269
21.789
21.5917
21.3923
21.2197
21.0832
20.9835
20.9352
20.9457
20.9843
21.0589
21.1723
21.3221
21.4965
21.6664
21.7834
21.7813
21.6055
23.6543
23.8545
23.9453
23.8505
23.6724
23.479
23.3049
23.1615
23.048
22.9824
22.9823
23.0119
23.0773
23.1822
23.3249
23.4925
23.6525
23.7494
23.7056
23.4589
26.0864
26.3612
26.612
26.5881
26.4437
26.2641
26.0926
25.9438
25.8166
25.7216
25.6894
25.7152
25.7649
25.8541
25.9821
26.1354
26.2769
26.3425
26.2403
25.8999
29.3554
29.7562
30.1668
30.23
30.1317
29.9736
29.809
29.6586
29.5251
29.4062
29.3273
29.3189
29.339
29.4011
29.5043
29.6337
29.7462
29.7672
29.5871
29.1265
33.6914
34.2494
34.8509
35.0403
35.0105
34.884
34.7287
34.5732
34.4248
34.2841
34.1547
34.0722
34.0642
34.0871
34.1527
34.2462
34.3177
34.2797
33.9998
33.39
39.4354
40.192
40.9094
41.3557
41.427
41.3451
41.2022
41.0378
40.8648
40.6879
40.5082
40.3619
40.2885
40.2479
40.2553
40.2972
40.3129
40.1997
39.7963
39.0058
47.0032
48.0761
48.9999
49.6541
49.834
49.8076
49.6842
49.5121
49.3117
49.0942
48.8664
48.6413
48.4489
48.3195
48.2371
48.2065
48.146
47.935
47.3787
46.3714
56.8263
58.2971
59.518
60.4518
60.7954
60.8664
60.7888
60.6231
60.4021
60.1404
59.8454
59.5312
59.223
58.9428
58.709
58.5583
58.39
58.0318
57.2745
56.0067
69.5673
71.5426
73.2069
74.5016
75.1228
75.3766
75.4064
75.3035
75.1074
74.8266
74.4668
74.0473
73.5939
73.132
72.6708
72.2737
71.9239