/*--------------------------------*- C++ -*----------------------------------*\
  =========                 |
  \\      /  F ield         | OpenFOAM: The Open Source CFD Toolbox
   \\    /   O peration     | Website:  https://openfoam.org
    \\  /    A nd           | Version:  6
     \\/     M anipulation  |
\*---------------------------------------------------------------------------*/
FoamFile
{
    version     2.0;
    format      ascii;
    class       volScalarField;
    location    "4";
    object      k;
}
// * * * * * * * * * * * * * * * * * * * * * * * * * * * * * * * * * * * * * //

dimensions      [0 2 -2 0 0 0 0];

internalField   nonuniform List<scalar> 
130000
(
0.41571
0.417179
0.414731
0.409023
0.401476
0.39351
0.38613
0.379859
0.374855
0.371054
0.368289
0.366361
0.365082
0.364297
0.36388
0.363732
0.363772
0.36393
0.364145
0.364381
0.415657
0.417327
0.414884
0.40909
0.401454
0.393437
0.386045
0.379792
0.37482
0.371055
0.368322
0.366419
0.365159
0.364387
0.363977
0.363832
0.363873
0.364032
0.364247
0.364485
0.415712
0.417407
0.414949
0.409126
0.40146
0.393425
0.386026
0.379775
0.37481
0.371054
0.368327
0.366429
0.365172
0.364404
0.363996
0.363851
0.36389
0.364047
0.364261
0.3645
0.415799
0.417463
0.414965
0.409107
0.401418
0.393372
0.385973
0.379729
0.374773
0.371027
0.368308
0.366417
0.365165
0.364401
0.363996
0.363855
0.363892
0.364043
0.364258
0.364499
0.415839
0.417464
0.414929
0.409039
0.401333
0.393283
0.38589
0.379658
0.374716
0.370984
0.368278
0.366398
0.365157
0.364397
0.363992
0.363851
0.36388
0.364031
0.364252
0.364496
0.41589
0.417477
0.414893
0.408962
0.401231
0.393175
0.385788
0.37957
0.374644
0.370929
0.368238
0.366372
0.365145
0.364393
0.36399
0.363845
0.363878
0.364037
0.364257
0.36449
0.415955
0.417494
0.414855
0.408878
0.40112
0.393057
0.385677
0.379473
0.374565
0.370867
0.36819
0.366336
0.365113
0.364364
0.363964
0.363822
0.363862
0.364022
0.364237
0.364472
0.415972
0.417468
0.414789
0.408776
0.400997
0.39293
0.385558
0.37937
0.374479
0.370798
0.368136
0.36629
0.36507
0.364323
0.363924
0.363783
0.363824
0.363985
0.364203
0.36445
0.415984
0.417456
0.414734
0.408682
0.40088
0.392807
0.385442
0.379269
0.374396
0.370731
0.368083
0.366248
0.365035
0.364295
0.363901
0.363764
0.363806
0.363966
0.364181
0.364422
0.416008
0.417446
0.414687
0.408596
0.40077
0.392691
0.385333
0.379173
0.374316
0.370668
0.368032
0.366209
0.365003
0.36427
0.363882
0.363749
0.363796
0.363959
0.364173
0.364407
0.416037
0.417439
0.414655
0.408531
0.400683
0.392598
0.385244
0.379094
0.374249
0.370613
0.367989
0.366176
0.36498
0.364257
0.363875
0.363746
0.363797
0.363962
0.364176
0.364409
0.41608
0.417452
0.414635
0.408487
0.400621
0.392527
0.385171
0.379026
0.37419
0.370564
0.36795
0.366145
0.364958
0.364241
0.363862
0.363735
0.363783
0.363946
0.36416
0.364396
0.416133
0.417483
0.414636
0.408465
0.400579
0.392472
0.385112
0.378969
0.374139
0.370522
0.367918
0.366124
0.364941
0.36422
0.363842
0.363716
0.363766
0.36393
0.364145
0.364383
0.416228
0.417554
0.414675
0.408464
0.40055
0.392423
0.385055
0.378913
0.37409
0.370483
0.36789
0.366107
0.364933
0.364219
0.363848
0.363727
0.363782
0.36395
0.364168
0.364411
0.416313
0.417614
0.414701
0.408453
0.400509
0.392365
0.384992
0.378855
0.374042
0.370447
0.367867
0.366095
0.364933
0.364235
0.363875
0.363763
0.363822
0.363993
0.364212
0.364454
0.416381
0.417655
0.414708
0.408423
0.400446
0.392288
0.384917
0.378791
0.373993
0.370413
0.367849
0.366095
0.364949
0.364264
0.363911
0.363802
0.363858
0.36402
0.364232
0.364465
0.416459
0.417707
0.414726
0.408406
0.4004
0.392225
0.384853
0.378737
0.37395
0.370382
0.36783
0.366086
0.36495
0.364274
0.363926
0.363816
0.363866
0.364024
0.364234
0.364465
0.416591
0.417815
0.414796
0.408442
0.400409
0.392212
0.384822
0.378698
0.373914
0.370354
0.36781
0.36607
0.364937
0.364261
0.363914
0.363808
0.363865
0.364035
0.364252
0.364489
0.416787
0.417981
0.414922
0.408528
0.400461
0.392237
0.384825
0.378688
0.373899
0.370342
0.367802
0.366062
0.36493
0.364251
0.363908
0.363809
0.36388
0.364058
0.36428
0.364519
0.416983
0.418153
0.415056
0.408621
0.400521
0.392272
0.384848
0.3787
0.373903
0.370343
0.367804
0.366068
0.364941
0.36427
0.36393
0.363833
0.363906
0.364085
0.364307
0.364545
0.417184
0.418338
0.415205
0.408731
0.400596
0.392321
0.384879
0.378718
0.373916
0.370351
0.367813
0.366081
0.364959
0.364289
0.363952
0.363857
0.363932
0.364113
0.364336
0.364574
0.417409
0.418548
0.415378
0.408858
0.400682
0.392374
0.38491
0.378735
0.373926
0.370356
0.367815
0.366083
0.364965
0.364296
0.363966
0.363877
0.36396
0.364144
0.36437
0.364606
0.417673
0.418788
0.41557
0.408996
0.400773
0.392429
0.38494
0.378751
0.373935
0.370361
0.367817
0.366085
0.364971
0.364312
0.363989
0.363906
0.363994
0.36418
0.36441
0.364641
0.417938
0.419027
0.415761
0.409132
0.400861
0.392481
0.384968
0.378764
0.37394
0.370367
0.367829
0.366102
0.364991
0.364342
0.364028
0.363949
0.364039
0.364224
0.364453
0.364683
0.418205
0.419274
0.41596
0.409275
0.400956
0.392538
0.385001
0.378779
0.373948
0.370375
0.367841
0.366119
0.365014
0.364365
0.364056
0.363978
0.364066
0.364251
0.364476
0.364706
0.418506
0.419553
0.416186
0.409439
0.401065
0.392605
0.38504
0.378803
0.373962
0.370383
0.367848
0.366126
0.365022
0.364372
0.36406
0.363978
0.364059
0.364241
0.364469
0.364695
0.418861
0.419877
0.416448
0.40963
0.401193
0.392685
0.385086
0.378828
0.373976
0.370388
0.367846
0.36612
0.365012
0.364362
0.364045
0.363963
0.364049
0.364235
0.364463
0.364683
0.419235
0.42022
0.416724
0.409832
0.401329
0.392771
0.385137
0.378856
0.373988
0.370388
0.367837
0.366103
0.364991
0.364339
0.364023
0.363945
0.364043
0.364232
0.364459
0.364685
0.41962
0.420573
0.41701
0.410043
0.401473
0.392862
0.385192
0.378885
0.374002
0.370391
0.367833
0.366096
0.364983
0.364332
0.364016
0.363937
0.364031
0.364225
0.364456
0.364686
0.420018
0.42094
0.417308
0.410263
0.401623
0.392958
0.385248
0.378915
0.374015
0.370394
0.367833
0.366096
0.364984
0.364336
0.364022
0.363943
0.364035
0.364222
0.364446
0.364671
0.420424
0.421316
0.417616
0.410491
0.40178
0.393058
0.385307
0.378947
0.374029
0.370397
0.367829
0.366088
0.364975
0.364326
0.364013
0.363935
0.364025
0.364205
0.364431
0.364661
0.420839
0.421703
0.417935
0.410731
0.401946
0.393166
0.385372
0.378984
0.374047
0.370404
0.367826
0.366079
0.364962
0.364312
0.363999
0.363923
0.364017
0.364207
0.364436
0.364666
0.421273
0.422108
0.418272
0.410985
0.402124
0.393283
0.385445
0.379027
0.374072
0.370419
0.367837
0.366088
0.364971
0.364323
0.364012
0.363938
0.364034
0.364225
0.364453
0.364682
0.421726
0.422532
0.418626
0.411256
0.402316
0.393411
0.385527
0.379078
0.374104
0.370441
0.367856
0.366107
0.364994
0.364349
0.364042
0.36397
0.364065
0.364251
0.364475
0.364701
0.422194
0.422972
0.418997
0.411541
0.40252
0.393549
0.385617
0.379136
0.374142
0.37047
0.367883
0.366139
0.36503
0.36439
0.364083
0.364009
0.364094
0.364275
0.364498
0.364723
0.422682
0.423434
0.419388
0.411844
0.402739
0.393699
0.385714
0.379198
0.374182
0.370499
0.367908
0.366163
0.365056
0.364414
0.3641
0.364022
0.364106
0.364292
0.364517
0.364744
0.4232
0.423925
0.419806
0.41217
0.402976
0.393861
0.38582
0.379264
0.374222
0.370521
0.36792
0.366167
0.365054
0.364409
0.364096
0.364026
0.364118
0.364309
0.364537
0.364766
0.423748
0.424446
0.420251
0.41252
0.403231
0.394038
0.385936
0.379336
0.374263
0.370542
0.367927
0.366166
0.36505
0.364409
0.364104
0.364035
0.364131
0.364328
0.364559
0.364788
0.424322
0.424994
0.420723
0.412892
0.403506
0.39423
0.386064
0.379417
0.374313
0.37057
0.367939
0.366171
0.365051
0.364411
0.364108
0.36404
0.364148
0.364352
0.364587
0.364816
0.424925
0.425573
0.421224
0.413291
0.403803
0.394439
0.386206
0.379511
0.374372
0.370607
0.36796
0.36618
0.365055
0.364414
0.364116
0.36406
0.364175
0.364384
0.36462
0.364848
0.425565
0.426191
0.421761
0.41372
0.404125
0.394669
0.386364
0.379618
0.374444
0.370656
0.367995
0.366208
0.36508
0.36444
0.364144
0.364092
0.364212
0.364424
0.364661
0.364888
0.426245
0.426848
0.422334
0.414181
0.404472
0.394919
0.386539
0.379737
0.374526
0.370714
0.368039
0.366244
0.365114
0.364475
0.364181
0.364133
0.364256
0.364471
0.364708
0.364933
0.426963
0.427544
0.422945
0.414674
0.404846
0.395191
0.38673
0.37987
0.374619
0.370781
0.36809
0.366288
0.365154
0.364516
0.364224
0.364179
0.364306
0.364524
0.364761
0.364985
0.427725
0.428287
0.423598
0.415204
0.405251
0.395486
0.386939
0.380017
0.374723
0.370857
0.368149
0.366337
0.3652
0.364562
0.364273
0.364232
0.364362
0.364582
0.36482
0.365041
0.428543
0.429084
0.424302
0.415778
0.40569
0.395809
0.38717
0.380181
0.374839
0.370943
0.368216
0.366394
0.365253
0.364616
0.364328
0.364291
0.364425
0.364648
0.364886
0.365103
0.429419
0.429939
0.425057
0.416395
0.406166
0.396161
0.387423
0.380361
0.374969
0.371039
0.368292
0.366459
0.365313
0.364675
0.36439
0.364356
0.364495
0.364721
0.364959
0.365173
0.430346
0.430846
0.425862
0.417056
0.406678
0.396541
0.387699
0.380559
0.375113
0.371147
0.368377
0.366531
0.36538
0.364743
0.36446
0.36443
0.364573
0.364802
0.365041
0.365253
0.431325
0.431809
0.42672
0.417763
0.407229
0.396953
0.387999
0.380776
0.375272
0.371267
0.368473
0.366613
0.365456
0.364818
0.364538
0.364512
0.36466
0.364893
0.365132
0.365341
0.432362
0.432836
0.427641
0.418526
0.407826
0.397402
0.388329
0.381017
0.375449
0.371401
0.368581
0.366706
0.365542
0.364903
0.364625
0.364604
0.364757
0.364993
0.365234
0.365439
0.433482
0.433946
0.428637
0.419354
0.408476
0.397893
0.388692
0.381283
0.375646
0.371552
0.368702
0.36681
0.365638
0.364997
0.364721
0.364705
0.364864
0.365105
0.365346
0.365549
0.434706
0.435155
0.429721
0.420257
0.409187
0.398433
0.389092
0.381578
0.375866
0.371721
0.368838
0.366927
0.365746
0.365102
0.364823
0.364817
0.364984
0.36523
0.365472
0.365671
0.436038
0.436468
0.4309
0.421239
0.409963
0.399023
0.389531
0.381904
0.37611
0.37191
0.368992
0.36706
0.365868
0.365222
0.364945
0.364945
0.365118
0.365369
0.365612
0.365807
0.437465
0.437881
0.43217
0.422301
0.410805
0.399667
0.390014
0.382264
0.376382
0.372122
0.369165
0.367211
0.366008
0.365359
0.365084
0.36509
0.36527
0.365525
0.365769
0.365959
0.438994
0.439396
0.433537
0.423448
0.411718
0.400368
0.390542
0.38266
0.376684
0.372359
0.36936
0.36738
0.366166
0.365513
0.365241
0.365253
0.36544
0.3657
0.365945
0.36613
0.440635
0.441024
0.435009
0.424686
0.412707
0.401131
0.39112
0.383097
0.377018
0.372623
0.369579
0.367572
0.366344
0.365688
0.365419
0.365438
0.365632
0.365898
0.366143
0.366322
0.442399
0.442778
0.436597
0.426026
0.413781
0.401964
0.391755
0.383579
0.37739
0.372919
0.369826
0.367789
0.366547
0.365887
0.36562
0.365646
0.365848
0.36612
0.366365
0.366538
0.444305
0.444675
0.438317
0.427481
0.414952
0.402875
0.392452
0.384112
0.377805
0.373251
0.370104
0.368036
0.366777
0.366112
0.365849
0.365882
0.366093
0.366371
0.366617
0.366781
0.446363
0.446726
0.440181
0.429062
0.416228
0.403873
0.393219
0.384703
0.378266
0.373624
0.370419
0.368315
0.367039
0.366368
0.366108
0.366149
0.366369
0.366654
0.3669
0.367055
0.448588
0.448946
0.442203
0.430781
0.417621
0.404967
0.394066
0.385358
0.378783
0.374044
0.370775
0.368633
0.367338
0.366661
0.366404
0.366453
0.366683
0.366975
0.36722
0.367366
0.450999
0.451355
0.444402
0.432656
0.419145
0.406169
0.395001
0.386088
0.379361
0.374518
0.37118
0.368996
0.367678
0.366994
0.366741
0.3668
0.367041
0.36734
0.367585
0.367719
0.453622
0.453978
0.446799
0.434705
0.420817
0.407494
0.396038
0.386901
0.380011
0.375054
0.371641
0.369411
0.368071
0.367379
0.36713
0.367198
0.367451
0.367758
0.368001
0.368122
0.456474
0.456835
0.449415
0.436948
0.422654
0.408957
0.397189
0.38781
0.380743
0.375662
0.372167
0.369888
0.368522
0.367822
0.367576
0.367655
0.367919
0.368234
0.368475
0.36858
0.459581
0.45995
0.452274
0.439407
0.424675
0.410574
0.398469
0.388828
0.381569
0.376353
0.37277
0.370436
0.369043
0.368334
0.368092
0.368182
0.368458
0.368781
0.369019
0.369108
0.462969
0.463354
0.455405
0.442108
0.426905
0.412368
0.399897
0.389972
0.382503
0.377141
0.373461
0.371067
0.369644
0.368925
0.368687
0.368789
0.369079
0.36941
0.369644
0.369715
0.46668
0.467087
0.458847
0.445086
0.429374
0.414363
0.401495
0.391261
0.383564
0.378042
0.374256
0.371798
0.37034
0.369611
0.369377
0.369492
0.369797
0.370137
0.370366
0.370416
0.470749
0.471186
0.462635
0.448375
0.432112
0.416588
0.403289
0.392718
0.384773
0.379077
0.375174
0.372644
0.37115
0.370408
0.370179
0.370308
0.370629
0.370977
0.371201
0.371227
0.475222
0.475701
0.466819
0.45202
0.43516
0.419078
0.405311
0.394373
0.386156
0.380269
0.376239
0.373631
0.372096
0.37134
0.371116
0.37126
0.371597
0.371955
0.37217
0.372169
0.480154
0.480689
0.471453
0.456072
0.438565
0.421877
0.407598
0.396259
0.387744
0.381647
0.377478
0.374783
0.373203
0.372432
0.372213
0.372373
0.372727
0.373094
0.3733
0.373265
0.485615
0.48622
0.476605
0.460594
0.442384
0.425035
0.410198
0.398419
0.389578
0.383251
0.378926
0.376136
0.374506
0.373717
0.373504
0.373681
0.374054
0.374429
0.374622
0.374548
0.491675
0.492368
0.482349
0.465658
0.446683
0.428613
0.413164
0.400904
0.391704
0.385122
0.380627
0.377731
0.376045
0.375236
0.375028
0.375224
0.375616
0.375999
0.376177
0.376056
0.498418
0.499225
0.488776
0.471349
0.451542
0.432685
0.416566
0.403776
0.394182
0.38732
0.382636
0.379622
0.377873
0.377041
0.376838
0.377052
0.377465
0.377855
0.378014
0.377836
0.50595
0.506902
0.495998
0.477774
0.457061
0.437341
0.420487
0.407116
0.397086
0.389913
0.38502
0.381874
0.380053
0.379195
0.378996
0.379229
0.379662
0.380057
0.38019
0.379944
0.514398
0.515535
0.504149
0.485062
0.46336
0.442697
0.425035
0.411021
0.40051
0.392994
0.387866
0.384572
0.38267
0.38178
0.381583
0.381835
0.382287
0.382684
0.382784
0.382454
0.52391
0.525281
0.51339
0.49337
0.470591
0.448892
0.430341
0.415619
0.404573
0.396675
0.391286
0.387825
0.385829
0.384899
0.384701
0.384969
0.385439
0.385832
0.385887
0.385454
0.534668
0.536341
0.523923
0.502897
0.478942
0.456108
0.436575
0.421069
0.409432
0.401106
0.395424
0.391773
0.389667
0.388688
0.388483
0.388763
0.389245
0.389627
0.389623
0.389062
0.546902
0.548959
0.535999
0.513889
0.488651
0.46457
0.443956
0.427581
0.415284
0.40648
0.400467
0.396598
0.394363
0.393322
0.393099
0.393385
0.393871
0.394229
0.394146
0.393425
0.56089
0.563439
0.549932
0.526658
0.500024
0.474575
0.452767
0.435428
0.422395
0.413055
0.406666
0.402546
0.400156
0.399034
0.39878
0.399058
0.399535
0.399853
0.399665
0.398742
0.576971
0.580157
0.566113
0.541601
0.513452
0.486503
0.463377
0.444969
0.431115
0.421172
0.414357
0.409945
0.407367
0.406137
0.40583
0.406081
0.406529
0.406782
0.406452
0.405275
0.595585
0.599602
0.585057
0.559236
0.52945
0.500861
0.476284
0.45669
0.44192
0.431299
0.423996
0.419244
0.416436
0.415063
0.414672
0.414867
0.415256
0.415409
0.414884
0.413387
0.617291
0.622397
0.607422
0.58024
0.548695
0.518323
0.492152
0.471247
0.455458
0.444074
0.436215
0.431065
0.427975
0.426412
0.425892
0.425988
0.426275
0.426273
0.425483
0.423574
0.642804
0.649347
0.634069
0.6055
0.57209
0.539791
0.511882
0.489536
0.472618
0.460381
0.451892
0.446279
0.442846
0.44103
0.440321
0.440257
0.440375
0.440138
0.438977
0.436523
0.673045
0.681502
0.666128
0.636192
0.600834
0.566478
0.536691
0.512778
0.494624
0.481446
0.472251
0.466105
0.462257
0.46011
0.459125
0.458814
0.458661
0.458062
0.456372
0.453178
0.709232
0.72025
0.705098
0.673884
0.636534
0.600015
0.568226
0.542631
0.523146
0.50895
0.498982
0.492242
0.487908
0.485332
0.483951
0.483264
0.482688
0.481503
0.479075
0.474897
0.752955
0.767406
0.752943
0.720631
0.681304
0.642554
0.608669
0.581302
0.560415
0.545149
0.534365
0.526986
0.522109
0.519012
0.517087
0.515854
0.514671
0.512668
0.509212
0.503643
0.806281
0.825335
0.812222
0.779108
0.73789
0.696888
0.660848
0.631658
0.609339
0.592996
0.581401
0.573378
0.567921
0.56423
0.561619
0.559635
0.55758
0.554445
0.549609
0.54214
0.871886
0.897085
0.88621
0.852717
0.809762
0.766523
0.728296
0.697261
0.673528
0.656168
0.643851
0.635277
0.629309
0.625027
0.621624
0.618613
0.615274
0.61076
0.604224
0.594183
0.953214
0.986532
0.979021
0.945671
0.90115
0.855671
0.8152
0.782292
0.757189
0.73894
0.726096
0.717207
0.71097
0.706338
0.70247
0.69864
0.693908
0.68755
0.678484
0.664863
1.05457
1.09844
1.09562
1.06295
1.01693
0.969066
0.926149
0.891229
0.864747
0.845755
0.832671
0.823845
0.817746
0.813129
0.80898
0.804498
0.798736
0.79043
0.778238
0.760277
1.18115
1.23844
1.24171
1.21008
1.16234
1.11154
1.0656
1.02821
1.00012
0.980428
0.967415
0.959196
0.953969
0.950225
0.94664
0.942168
0.93573
0.925772
0.91057
0.887823
1.33906
1.41288
1.42343
1.39267
1.34222
1.28718
1.23685
1.19585
1.1654
1.14472
1.13196
1.12501
1.12184
1.12061
1.11938
1.11647
1.11061
1.10015
1.08278
1.05543
1.53497
1.62826
1.64651
1.61529
1.55977
1.49767
1.44019
1.39323
1.35869
1.33603
1.32332
1.31809
1.31852
1.32265
1.32682
1.32778
1.32471
1.31714
1.30047
1.26999
1.7753
1.88996
1.91459
1.87933
1.8139
1.73943
1.6697
1.61236
1.57038
1.54371
1.53044
1.5287
1.53617
1.54902
1.56303
1.57482
1.58027
1.57746
1.5647
1.53468
2.06452
2.19982
2.22595
2.17913
2.09482
1.99869
1.90797
1.8327
1.7775
1.74321
1.72831
1.73092
1.74789
1.77386
1.80424
1.83432
1.8586
1.87072
1.86682
1.84356
2.40203
2.55176
2.56813
2.49566
2.37722
2.24424
2.11892
2.01391
1.93671
1.88923
1.8704
1.87768
1.9081
1.95414
2.00927
2.06769
2.122
2.16398
2.18367
2.1757
2.77684
2.92484
2.90964
2.78776
2.61163
2.41835
2.2355
2.08515
1.98154
1.91877
1.89555
1.90488
1.95128
2.02383
2.11405
2.21193
2.30885
2.39562
2.45887
2.48482
3.15787
3.27226
3.18882
2.97888
2.71049
2.44464
2.2041
2.00867
1.86699
1.78532
1.76151
1.78901
1.85347
1.94778
2.06531
2.1968
2.32957
2.46886
2.59521
2.68725
3.48404
3.50369
3.2952
2.96422
2.58839
2.2198
1.90206
1.65657
1.49151
1.40372
1.3844
1.42086
1.50287
1.62028
1.76452
1.93072
2.11821
2.30284
2.47913
2.63461
3.6386
3.45715
3.04283
2.54073
2.04638
1.61773
1.28458
1.05425
0.92007
0.861748
0.861692
0.906237
0.983857
1.09042
1.22124
1.3722
1.53721
1.71215
1.90006
2.11239
3.14749
2.73134
2.11791
1.51967
1.07096
0.791076
0.640578
0.568067
0.529924
0.511804
0.50854
0.518525
0.546721
0.587026
0.637845
0.700874
0.787503
0.907828
1.09173
1.23889
0.442689
0.533632
0.471803
0.486038
0.459185
0.42425
0.40034
0.388958
0.385384
0.386083
0.389398
0.394719
0.401718
0.409261
0.415471
0.417604
0.410314
0.381739
0.340871
0.291052
0.369774
0.369533
0.3689
0.368005
0.366988
0.365994
0.365131
0.364433
0.363925
0.363606
0.363468
0.363503
0.363703
0.364086
0.364638
0.365327
0.366092
0.36684
0.367462
0.367894
0.369878
0.369636
0.369
0.368096
0.36707
0.366068
0.365196
0.364494
0.363984
0.363665
0.363527
0.36356
0.363757
0.364133
0.364674
0.365351
0.366107
0.366849
0.367471
0.367902
0.36985
0.369619
0.368986
0.368082
0.367053
0.366047
0.365166
0.364462
0.363952
0.363637
0.363502
0.363539
0.363743
0.364113
0.364642
0.365304
0.366045
0.366777
0.367393
0.367825
0.369828
0.369593
0.368957
0.368051
0.367024
0.36602
0.365141
0.36444
0.363936
0.363628
0.363501
0.363541
0.363742
0.364108
0.364629
0.365281
0.366013
0.366736
0.367346
0.367774
0.369836
0.369595
0.368951
0.368041
0.367015
0.366017
0.365144
0.364449
0.363947
0.363638
0.363507
0.363541
0.363733
0.364105
0.364629
0.365283
0.366016
0.36674
0.367349
0.367771
0.369841
0.369592
0.368934
0.368017
0.366993
0.366004
0.365137
0.364445
0.363944
0.363631
0.363492
0.363518
0.363701
0.364083
0.364613
0.365273
0.36601
0.366737
0.367348
0.367771
0.369807
0.369553
0.36889
0.367972
0.366945
0.365957
0.365089
0.364396
0.363894
0.36358
0.36344
0.363467
0.363656
0.364034
0.364562
0.365222
0.36596
0.366689
0.367301
0.367728
0.369776
0.369525
0.368868
0.367941
0.366903
0.365899
0.365024
0.364327
0.363823
0.363508
0.363369
0.3634
0.363599
0.363968
0.364493
0.365153
0.365891
0.366622
0.367238
0.36767
0.369763
0.369509
0.36884
0.367904
0.366862
0.365855
0.364979
0.364282
0.363778
0.363464
0.363327
0.363361
0.363562
0.36393
0.364457
0.365119
0.365862
0.366605
0.36723
0.367664
0.369718
0.369462
0.36879
0.367861
0.366821
0.365814
0.364938
0.364242
0.36374
0.363427
0.363292
0.363328
0.363531
0.363902
0.36443
0.365094
0.365839
0.366586
0.367213
0.367649
0.369688
0.369425
0.36876
0.367831
0.36679
0.365781
0.364905
0.364212
0.363712
0.363402
0.36327
0.363307
0.363515
0.363891
0.364424
0.365089
0.36583
0.366566
0.367196
0.367628
0.369702
0.369419
0.368743
0.367808
0.366765
0.365757
0.364884
0.364194
0.363698
0.363391
0.363261
0.363301
0.363511
0.363888
0.364423
0.365092
0.365837
0.366574
0.367197
0.367628
0.369708
0.369424
0.368746
0.367808
0.366763
0.365754
0.36488
0.364188
0.363691
0.363384
0.363255
0.363294
0.3635
0.363865
0.364396
0.365066
0.365816
0.366558
0.367179
0.367611
0.369687
0.36941
0.368732
0.367793
0.366746
0.365734
0.364856
0.364161
0.363661
0.363353
0.363222
0.363261
0.363464
0.363826
0.364358
0.36503
0.365783
0.366529
0.367166
0.3676
0.369679
0.369388
0.36871
0.367773
0.366727
0.365716
0.364839
0.364143
0.363644
0.363336
0.363207
0.363249
0.36346
0.36384
0.364379
0.365053
0.365804
0.366543
0.367163
0.367602
0.369691
0.369414
0.368742
0.367811
0.36677
0.365762
0.364887
0.364194
0.363696
0.36339
0.363262
0.363304
0.363515
0.363896
0.364436
0.365113
0.365862
0.366594
0.367203
0.367622
0.369741
0.369462
0.368794
0.367872
0.366837
0.365832
0.364961
0.364271
0.363776
0.363472
0.363343
0.36338
0.363584
0.363957
0.36449
0.36516
0.365905
0.366632
0.367236
0.36765
0.369793
0.369506
0.368829
0.367902
0.36687
0.365866
0.364995
0.364306
0.363813
0.363509
0.363378
0.363405
0.363606
0.363979
0.364511
0.36518
0.365925
0.366652
0.367252
0.367658
0.369847
0.369548
0.368855
0.367909
0.366867
0.365856
0.364982
0.364291
0.363799
0.363496
0.363368
0.3634
0.363613
0.363997
0.36454
0.365216
0.365965
0.366693
0.367291
0.367696
0.369893
0.369593
0.368893
0.367934
0.366874
0.365854
0.364976
0.364285
0.363794
0.363497
0.363378
0.36343
0.363654
0.364046
0.364595
0.365274
0.366022
0.366749
0.367343
0.367747
0.369945
0.369643
0.36894
0.367978
0.366914
0.365893
0.365015
0.364327
0.363839
0.363545
0.36343
0.363486
0.363714
0.364111
0.364663
0.365344
0.366094
0.366818
0.367409
0.367808
0.369992
0.369689
0.368991
0.368033
0.366967
0.365947
0.365075
0.364397
0.363918
0.363629
0.363516
0.363573
0.3638
0.364194
0.364746
0.36543
0.366182
0.366898
0.367481
0.367875
0.370045
0.369742
0.369049
0.368094
0.367024
0.366003
0.365134
0.364466
0.36399
0.363703
0.363591
0.363648
0.363875
0.364269
0.364823
0.365508
0.366259
0.366973
0.367554
0.367943
0.370097
0.369791
0.369099
0.368151
0.367085
0.366064
0.365187
0.3645
0.364014
0.363722
0.363609
0.363666
0.363895
0.364291
0.364848
0.36554
0.366291
0.367005
0.367597
0.368004
0.370142
0.369828
0.369129
0.368183
0.367122
0.366101
0.365221
0.364523
0.364033
0.363739
0.363626
0.363682
0.36391
0.364304
0.364856
0.365537
0.366284
0.367003
0.367607
0.368035
0.370185
0.369861
0.369146
0.368186
0.367121
0.366103
0.365229
0.364542
0.364057
0.363766
0.363653
0.363708
0.363932
0.364321
0.364866
0.365534
0.366282
0.367011
0.367614
0.368026
0.370229
0.369896
0.369169
0.368194
0.367131
0.366115
0.365241
0.364557
0.364074
0.363784
0.363674
0.363731
0.363958
0.364347
0.364893
0.365568
0.366316
0.367041
0.367633
0.368024
0.370268
0.36993
0.369195
0.368211
0.36714
0.366113
0.365232
0.364543
0.364059
0.363771
0.363665
0.36373
0.36397
0.364381
0.364942
0.365622
0.366361
0.367081
0.36767
0.368054
0.370308
0.369963
0.369217
0.368221
0.367136
0.366093
0.365203
0.36451
0.364024
0.363736
0.363633
0.363703
0.363953
0.364381
0.364958
0.365652
0.366392
0.367115
0.367705
0.368087
0.370347
0.369996
0.36924
0.368234
0.367143
0.366101
0.365212
0.364518
0.364032
0.363745
0.363643
0.363714
0.363962
0.364381
0.364959
0.365654
0.366409
0.367142
0.367736
0.368117
0.37039
0.370031
0.369265
0.368246
0.367138
0.366097
0.365204
0.364507
0.364019
0.363733
0.363631
0.363704
0.363955
0.364376
0.364956
0.365655
0.36643
0.367174
0.367773
0.368153
0.370435
0.370071
0.369297
0.368269
0.36715
0.366092
0.365191
0.364491
0.364002
0.363715
0.363615
0.363691
0.363946
0.364374
0.364963
0.365682
0.366467
0.367217
0.367817
0.368194
0.370486
0.370118
0.369339
0.368307
0.367187
0.366129
0.365227
0.364527
0.364039
0.363754
0.363656
0.363735
0.363994
0.364425
0.365015
0.365734
0.366519
0.367269
0.367868
0.368243
0.370537
0.370166
0.369384
0.368352
0.367242
0.36619
0.365291
0.364592
0.364106
0.363824
0.36373
0.363813
0.364077
0.364509
0.365096
0.365802
0.366577
0.367323
0.367921
0.368294
0.370591
0.370213
0.369424
0.368385
0.36727
0.366221
0.365318
0.364613
0.364125
0.363845
0.363753
0.363843
0.36412
0.364558
0.365145
0.365845
0.366623
0.367374
0.367975
0.368348
0.370646
0.37026
0.369459
0.368406
0.367273
0.366219
0.365301
0.364587
0.364097
0.363817
0.363728
0.363825
0.364117
0.364561
0.365149
0.365863
0.366658
0.367421
0.368027
0.368402
0.370708
0.370314
0.369502
0.368434
0.367289
0.366223
0.365295
0.364583
0.364093
0.363813
0.363725
0.36382
0.364107
0.36456
0.365151
0.365889
0.3667
0.367474
0.368087
0.368463
0.370777
0.370375
0.369551
0.368469
0.367308
0.366228
0.36531
0.364602
0.364113
0.363834
0.363744
0.363836
0.364111
0.364562
0.365171
0.365927
0.366753
0.367537
0.368154
0.368528
0.370855
0.370446
0.369609
0.368513
0.367335
0.366235
0.365314
0.364601
0.364109
0.363829
0.363741
0.363836
0.364116
0.364571
0.365206
0.365979
0.366818
0.367611
0.368232
0.368606
0.370944
0.370527
0.369679
0.368569
0.367377
0.36626
0.365319
0.364595
0.364098
0.363817
0.363731
0.363834
0.364127
0.364606
0.365257
0.366044
0.366894
0.367695
0.36832
0.368693
0.371044
0.370619
0.369761
0.368639
0.367434
0.366307
0.365358
0.364629
0.364129
0.363849
0.363766
0.363873
0.364173
0.364662
0.365324
0.366122
0.366982
0.367791
0.36842
0.368791
0.371155
0.370724
0.369855
0.36872
0.367503
0.366366
0.365409
0.364676
0.364175
0.363894
0.363813
0.363925
0.364232
0.364729
0.365401
0.36621
0.36708
0.367897
0.368529
0.368899
0.371281
0.370842
0.369961
0.368813
0.367584
0.366436
0.365471
0.364733
0.364229
0.363949
0.36387
0.363986
0.3643
0.364805
0.365488
0.366308
0.36719
0.368015
0.368651
0.36902
0.37142
0.370973
0.37008
0.368918
0.367675
0.366515
0.365542
0.364799
0.364292
0.364012
0.363936
0.364056
0.364376
0.364891
0.365585
0.366417
0.36731
0.368144
0.368785
0.369152
0.371574
0.371118
0.370213
0.369035
0.367777
0.366606
0.365624
0.364874
0.364365
0.364085
0.36401
0.364135
0.364463
0.364988
0.365693
0.366538
0.367443
0.368288
0.368933
0.3693
0.371742
0.371278
0.370359
0.369166
0.367892
0.366708
0.365716
0.36496
0.364447
0.364167
0.364095
0.364225
0.364561
0.365095
0.365813
0.366671
0.36759
0.368445
0.369096
0.369461
0.371927
0.371455
0.370522
0.369312
0.368022
0.366824
0.365821
0.365059
0.364542
0.364262
0.364192
0.364327
0.364671
0.365217
0.365947
0.36682
0.367753
0.36862
0.369277
0.369641
0.372133
0.371652
0.370704
0.369476
0.368168
0.366955
0.365941
0.365171
0.364651
0.36437
0.364302
0.364443
0.364795
0.365353
0.366097
0.366986
0.367934
0.368813
0.369476
0.369839
0.372361
0.371871
0.370907
0.36966
0.368334
0.367104
0.366078
0.365299
0.364775
0.364493
0.364428
0.364575
0.364936
0.365506
0.366265
0.367171
0.368135
0.369027
0.369697
0.370058
0.372614
0.372114
0.371134
0.369867
0.36852
0.367273
0.366233
0.365446
0.364916
0.364634
0.364571
0.364724
0.365095
0.365678
0.366454
0.367377
0.368358
0.369265
0.369942
0.370301
0.372896
0.372386
0.371389
0.370099
0.368731
0.367465
0.366411
0.365614
0.365079
0.364795
0.364735
0.364895
0.365276
0.365873
0.366666
0.367608
0.368608
0.369529
0.370214
0.370572
0.37321
0.37269
0.371674
0.370362
0.36897
0.367684
0.366614
0.365806
0.365265
0.36498
0.364922
0.365089
0.365482
0.366093
0.366904
0.367867
0.368887
0.369824
0.370518
0.370874
0.373561
0.37303
0.371995
0.370658
0.369241
0.367933
0.366846
0.366026
0.365478
0.365192
0.365137
0.365311
0.365716
0.366343
0.367174
0.368158
0.3692
0.370154
0.370856
0.37121
0.373953
0.373412
0.372357
0.370993
0.369549
0.368217
0.367111
0.366278
0.365724
0.365435
0.365383
0.365565
0.365982
0.366628
0.367479
0.368487
0.369551
0.370524
0.371234
0.371583
0.374394
0.373842
0.372765
0.371372
0.369899
0.368542
0.367416
0.366569
0.366006
0.365716
0.365667
0.365857
0.366288
0.366951
0.367826
0.368859
0.369948
0.37094
0.371661
0.372007
0.374889
0.374326
0.373226
0.371803
0.370299
0.368914
0.367766
0.366903
0.366332
0.366039
0.365993
0.366192
0.366638
0.367321
0.36822
0.36928
0.370396
0.37141
0.372141
0.372484
0.375448
0.374874
0.373749
0.372294
0.370756
0.36934
0.368169
0.36729
0.366708
0.366412
0.366369
0.366579
0.36704
0.367745
0.36867
0.36976
0.370904
0.371942
0.372684
0.373022
0.376081
0.375494
0.374344
0.372853
0.371279
0.369831
0.368633
0.367736
0.367143
0.366844
0.366805
0.367025
0.367503
0.368232
0.369185
0.370306
0.371482
0.372544
0.373298
0.373632
0.376798
0.3762
0.375023
0.373494
0.37188
0.370397
0.369171
0.368253
0.367648
0.367345
0.36731
0.367542
0.368039
0.368792
0.369777
0.370932
0.372142
0.373231
0.373997
0.374325
0.377618
0.377006
0.3758
0.37423
0.372573
0.371051
0.369795
0.368855
0.368236
0.367928
0.367897
0.368142
0.368659
0.369441
0.370459
0.371651
0.372897
0.374014
0.374794
0.375114
0.378547
0.377925
0.37669
0.375077
0.373374
0.371811
0.370521
0.369557
0.368923
0.368611
0.368585
0.368843
0.369382
0.370193
0.371247
0.372479
0.373764
0.374913
0.375706
0.376017
0.37961
0.378979
0.377713
0.376055
0.374303
0.372695
0.371369
0.370378
0.369729
0.369411
0.36939
0.369664
0.370226
0.371068
0.372161
0.373437
0.374764
0.375946
0.376753
0.377052
0.380831
0.380194
0.378897
0.37719
0.375384
0.373728
0.372362
0.371344
0.370677
0.370354
0.370338
0.370627
0.371215
0.372092
0.373227
0.37455
0.375922
0.377139
0.37796
0.378244
0.382241
0.381599
0.38027
0.37851
0.376647
0.374939
0.37353
0.372481
0.371796
0.371466
0.371457
0.371763
0.372378
0.373292
0.374473
0.375847
0.377268
0.378522
0.379357
0.379622
0.383875
0.383231
0.381869
0.380055
0.37813
0.376364
0.374909
0.373827
0.373121
0.372785
0.372783
0.373107
0.373751
0.374706
0.375936
0.377365
0.378839
0.380132
0.38098
0.381222
0.385778
0.385135
0.383742
0.381869
0.379878
0.37805
0.376545
0.375425
0.374697
0.374354
0.37436
0.374704
0.37538
0.376378
0.377662
0.37915
0.38068
0.382016
0.382875
0.383087