/*--------------------------------*- C++ -*----------------------------------*\
  =========                 |
  \\      /  F ield         | OpenFOAM: The Open Source CFD Toolbox
   \\    /   O peration     | Website:  https://openfoam.org
    \\  /    A nd           | Version:  6
     \\/     M anipulation  |
\*---------------------------------------------------------------------------*/
FoamFile
{
    version     2.0;
    format      ascii;
    class       volScalarField;
    location    "4";
    object      k;
}
// * * * * * * * * * * * * * * * * * * * * * * * * * * * * * * * * * * * * * //

dimensions      [0 2 -2 0 0 0 0];

internalField   nonuniform List<scalar> 
10000
(
0.410516
0.540291
0.530734
0.487873
0.447534
0.418281
0.399432
0.388311
0.382405
0.38015
0.380816
0.384364
0.39132
0.402931
0.420879
0.446772
0.481431
0.519587
0.542814
0.417224
0.473185
0.559613
0.541772
0.491724
0.448187
0.417758
0.398784
0.387774
0.381894
0.379607
0.380211
0.383711
0.390578
0.402158
0.42039
0.447917
0.484646
0.527339
0.588589
0.483321
0.461029
0.606443
0.578726
0.507085
0.453214
0.418446
0.398513
0.387467
0.381538
0.378993
0.379517
0.383006
0.390141
0.401906
0.42094
0.449018
0.495151
0.530837
0.561913
0.466979
0.469001
0.597231
0.56703
0.49751
0.449772
0.417547
0.398077
0.386997
0.38106
0.37867
0.379256
0.382632
0.389346
0.40095
0.419972
0.448208
0.488124
0.536507
0.568116
0.476221
0.449117
0.603504
0.56487
0.503787
0.449896
0.416737
0.396852
0.386388
0.380822
0.378676
0.379285
0.382578
0.389119
0.400471
0.419433
0.449621
0.489924
0.562665
0.609473
0.467215
0.406755
0.599359
0.54409
0.494091
0.448156
0.41567
0.396204
0.38567
0.380515
0.378505
0.379155
0.382407
0.388836
0.399973
0.418421
0.44839
0.486135
0.539703
0.572216
0.427305
0.409352
0.590913
0.540119
0.494062
0.448895
0.414688
0.395305
0.385084
0.380136
0.378177
0.378848
0.382065
0.388406
0.399322
0.417317
0.445173
0.48444
0.553003
0.597078
0.459624
0.420592
0.561822
0.538756
0.501587
0.448336
0.413558
0.394704
0.384549
0.379618
0.37788
0.378523
0.3819
0.388348
0.399423
0.418436
0.448829
0.483179
0.525493
0.545044
0.398695
0.445353
0.589933
0.544919
0.496181
0.445607
0.412934
0.394193
0.384591
0.379652
0.377804
0.378424
0.381724
0.388025
0.39918
0.417354
0.447606
0.492811
0.552055
0.591142
0.458951
0.383025
0.51674
0.546164
0.491821
0.44279
0.412052
0.394442
0.384727
0.379716
0.377828
0.378496
0.381715
0.387996
0.399042
0.416416
0.442074
0.47668
0.518359
0.560619
0.434428
0.400469
0.532079
0.528057
0.483833
0.444944
0.4132
0.395016
0.384961
0.379789
0.37777
0.378422
0.381554
0.388008
0.398965
0.416579
0.442315
0.475496
0.513407
0.58547
0.456994
0.418061
0.548476
0.564938
0.498844
0.446462
0.414082
0.395488
0.385191
0.379895
0.377896
0.378501
0.381673
0.388009
0.39903
0.417433
0.447722
0.478879
0.510131
0.524868
0.418825
0.490502
0.599077
0.562104
0.490493
0.444235
0.413698
0.395378
0.385142
0.379872
0.377892
0.378519
0.381692
0.387881
0.398897
0.417714
0.447419
0.492304
0.51627
0.529063
0.379745
0.458153
0.588453
0.565835
0.492761
0.446816
0.413913
0.39504
0.384587
0.379522
0.377813
0.378573
0.381827
0.38805
0.398677
0.416364
0.443693
0.486083
0.517797
0.532217
0.382063
0.428037
0.580274
0.5661
0.499092
0.444688
0.412959
0.394143
0.384597
0.379648
0.377855
0.378616
0.381938
0.388332
0.399353
0.41798
0.446209
0.481389
0.54491
0.585121
0.438729
0.466244
0.542913
0.551083
0.490508
0.443159
0.412418
0.394337
0.384606
0.379683
0.377859
0.378556
0.381966
0.388324
0.399391
0.416999
0.443587
0.481198
0.524905
0.557058
0.408186
0.385369
0.533332
0.523404
0.494033
0.445587
0.412884
0.394212
0.384379
0.379654
0.377921
0.378723
0.382109
0.388642
0.399654
0.417293
0.444543
0.484958
0.546346
0.593026
0.465752
0.398456
0.575507
0.521735
0.486227
0.44342
0.413089
0.394786
0.384821
0.379845
0.37799
0.378739
0.382064
0.388482
0.399682
0.417669
0.446017
0.492613
0.522577
0.542794
0.445008
0.408269
0.526058
0.518645
0.496994
0.447113
0.414789
0.395353
0.385022
0.379999
0.378004
0.378777
0.382094
0.388582
0.399787
0.418562
0.446446
0.492115
0.542
0.576382
0.462572
0.461933
0.522815
0.516553
0.491141
0.447458
0.415486
0.396084
0.385695
0.380338
0.378191
0.378864
0.382151
0.388578
0.39972
0.418048
0.446956
0.486542
0.517199
0.540755
0.45959
0.394783
0.52409
0.516351
0.483608
0.445378
0.415475
0.396579
0.38578
0.380268
0.378325
0.378894
0.382273
0.388839
0.400031
0.418103
0.446168
0.489372
0.518692
0.534059
0.439263
0.395591
0.520642
0.516558
0.485051
0.448582
0.416604
0.397369
0.386425
0.380689
0.37851
0.379137
0.382426
0.389105
0.400382
0.418633
0.448188
0.482535
0.523335
0.540441
0.400142
0.414325
0.529943
0.520501
0.488093
0.447115
0.416409
0.397409
0.386539
0.380747
0.378824
0.379556
0.382871
0.389574
0.40108
0.419645
0.446589
0.484087
0.52607
0.542658
0.403163
0.472835
0.529346
0.522503
0.499922
0.4518
0.417378
0.397554
0.38626
0.380633
0.378597
0.379413
0.383041
0.389955
0.401712
0.421151
0.449302
0.489189
0.536312
0.560057
0.423016
0.411867
0.534102
0.524425
0.493659
0.449621
0.416713
0.397171
0.386133
0.380728
0.378733
0.379503
0.383257
0.390586
0.402652
0.422414
0.454231
0.494376
0.543806
0.571051
0.437536
0.429358
0.534813
0.527138
0.486385
0.447403
0.415073
0.396294
0.385837
0.380428
0.378386
0.379384
0.383148
0.390273
0.402319
0.422454
0.455674
0.509288
0.579639
0.631052
0.511381
0.391009
0.570607
0.536496
0.487682
0.445474
0.4131
0.394768
0.384928
0.379999
0.378163
0.378883
0.382413
0.389413
0.401477
0.421317
0.452671
0.504025
0.570977
0.62004
0.489402
0.40101
0.523512
0.549456
0.492169
0.443994
0.412799
0.394904
0.385029
0.379962
0.378063
0.37868
0.382005
0.388494
0.399991
0.419686
0.452231
0.49726
0.561902
0.610166
0.474301
0.411277
0.51524
0.52657
0.485734
0.446022
0.41371
0.395494
0.385328
0.380078
0.378064
0.378572
0.381627
0.387835
0.398726
0.416769
0.447457
0.497806
0.582536
0.653143
0.534806
0.480331
0.523606
0.558565
0.49472
0.447963
0.414764
0.395554
0.385424
0.379997
0.378036
0.378593
0.381671
0.387744
0.398167
0.414911
0.440452
0.479588
0.542611
0.578237
0.440523
0.440083
0.522029
0.542038
0.493524
0.447178
0.41519
0.395937
0.385666
0.380205
0.3781
0.378619
0.381704
0.387704
0.398162
0.414797
0.439903
0.476371
0.521887
0.541408
0.407048
0.484525
0.531796
0.523548
0.483729
0.444506
0.415399
0.396666
0.385922
0.380172
0.378085
0.378577
0.381695
0.387924
0.398502
0.415248
0.440234
0.477544
0.548168
0.589254
0.470649
0.45165
0.545273
0.527917
0.485342
0.444828
0.415259
0.396601
0.385995
0.380269
0.378091
0.378512
0.381472
0.387708
0.398542
0.415482
0.440419
0.472856
0.51313
0.551725
0.422729
0.395233
0.592775
0.557262
0.495229
0.446165
0.415306
0.396613
0.386031
0.380439
0.378127
0.378514
0.381499
0.38762
0.39859
0.417201
0.444129
0.472375
0.508551
0.573434
0.372416
0.405858
0.579929
0.531348
0.485657
0.444962
0.415054
0.396446
0.38589
0.380342
0.378124
0.37854
0.38147
0.387426
0.398243
0.416661
0.444748
0.474762
0.503399
0.509959
0.363014
0.413224
0.586431
0.534299
0.487175
0.448198
0.415544
0.396408
0.38574
0.380236
0.378102
0.37857
0.381515
0.38749
0.39812
0.4161
0.445094
0.489248
0.510606
0.517459
0.372669
0.465871
0.574304
0.553038
0.495996
0.447876
0.414471
0.395269
0.385339
0.380093
0.377989
0.378542
0.381604
0.387641
0.398313
0.41581
0.445108
0.485114
0.513914
0.520454
0.377225
0.406279
0.527995
0.522039
0.481723
0.4434
0.413325
0.395079
0.385173
0.379923
0.378099
0.378784
0.382027
0.38825
0.398994
0.417068
0.443272
0.48273
0.546068
0.573471
0.439376
0.413497
0.523325
0.521903
0.481842
0.442061
0.41322
0.395443
0.385313
0.380157
0.378195
0.378841
0.381971
0.388298
0.399359
0.418292
0.448812
0.492942
0.542817
0.563168
0.414001
0.438629
0.529343
0.551032
0.496252
0.447269
0.414465
0.395826
0.385291
0.380219
0.378218
0.378806
0.382079
0.388461
0.399161
0.41692
0.445096
0.486663
0.539958
0.567663
0.409129
0.482234
0.565221
0.5283
0.483828
0.443423
0.414282
0.395994
0.385596
0.380154
0.378162
0.378848
0.382176
0.388359
0.398794
0.415239
0.43974
0.474163
0.517427
0.542377
0.380986
0.445512
0.528566
0.529671
0.485457
0.44413
0.414268
0.395853
0.385662
0.380403
0.378378
0.378952
0.382216
0.388337
0.398668
0.414897
0.438839
0.472045
0.521834
0.567972
0.423066
0.384959
0.560511
0.566036
0.500862
0.446818
0.41476
0.395989
0.385681
0.38045
0.378429
0.378995
0.382281
0.388527
0.398803
0.414898
0.438696
0.470721
0.503987
0.504861
0.379627
0.395382
0.520321
0.55196
0.491552
0.446498
0.415203
0.396012
0.385835
0.380545
0.37848
0.379037
0.382225
0.388466
0.398811
0.41491
0.438641
0.471994
0.525899
0.512617
0.436554
0.405429
0.528299
0.552339
0.500567
0.45076
0.416629
0.396876
0.386048
0.380592
0.378403
0.378935
0.382056
0.38846
0.398931
0.415367
0.438576
0.469355
0.503302
0.513817
0.40766
0.427655
0.540228
0.535907
0.491619
0.448447
0.4163
0.396776
0.385856
0.380344
0.378317
0.378856
0.382002
0.388262
0.399013
0.415406
0.4391
0.469987
0.503817
0.52026
0.45056
0.482598
0.56082
0.54449
0.495088
0.449926
0.417863
0.397981
0.386611
0.3807
0.37841
0.379074
0.382257
0.388485
0.399434
0.417065
0.440398
0.472196
0.509627
0.527859
0.442243
0.424945
0.606081
0.58151
0.51009
0.453107
0.418641
0.397967
0.386217
0.380464
0.378441
0.379135
0.38237
0.388712
0.399437
0.416691
0.441534
0.473541
0.512313
0.538887
0.444478
0.480307
0.593779
0.569453
0.501516
0.452148
0.418408
0.397324
0.386406
0.380662
0.37874
0.379434
0.382763
0.389115
0.400276
0.418851
0.446699
0.47608
0.519144
0.580833
0.428018
0.437352
0.579339
0.564339
0.505653
0.452418
0.418315
0.397697
0.386471
0.380696
0.378623
0.379434
0.382792
0.389408
0.400696
0.419026
0.445673
0.476085
0.516091
0.556627
0.382328
0.395486
0.53944
0.541078
0.495774
0.45091
0.417705
0.397579
0.386149
0.38079
0.378768
0.379518
0.382966
0.389646
0.400796
0.418845
0.443792
0.477374
0.518911
0.526549
0.382656
0.40101
0.538432
0.540514
0.494404
0.451081
0.417162
0.397302
0.386127
0.380765
0.378754
0.379476
0.382883
0.389424
0.400772
0.418833
0.447202
0.478361
0.536871
0.532372
0.392688
0.417577
0.54677
0.548122
0.495906
0.448573
0.416158
0.396826
0.386191
0.380785
0.378755
0.379475
0.382869
0.389433
0.400459
0.418537
0.445071
0.474949
0.513803
0.532033
0.397717
0.456335
0.547753
0.578395
0.504745
0.450172
0.41577
0.396556
0.38607
0.380741
0.378719
0.379422
0.38278
0.389283
0.400173
0.417665
0.44257
0.475298
0.533005
0.570073
0.453098
0.400835
0.567757
0.551536
0.492523
0.446101
0.4147
0.395647
0.385514
0.380546
0.378657
0.379402
0.382765
0.389176
0.399941
0.417058
0.443133
0.471951
0.504879
0.525053
0.393218
0.456102
0.52681
0.524109
0.48055
0.442374
0.414156
0.395828
0.385631
0.380426
0.378562
0.379273
0.382527
0.389154
0.400213
0.418033
0.442082
0.473226
0.504875
0.521719
0.393889
0.445554
0.538838
0.555052
0.484031
0.443392
0.414201
0.395935
0.385753
0.380507
0.378496
0.379062
0.38243
0.388981
0.400121
0.418136
0.445191
0.478376
0.508463
0.528533
0.408356
0.458225
0.553847
0.537067
0.481997
0.443611
0.414058
0.395305
0.385104
0.379981
0.378112
0.378878
0.382304
0.388814
0.399791
0.417524
0.444751
0.48556
0.511146
0.52497
0.442917
0.458929
0.516918
0.51569
0.480759
0.446149
0.414629
0.395773
0.385376
0.380087
0.378169
0.378878
0.382155
0.388542
0.39943
0.417327
0.446067
0.477878
0.514785
0.527347
0.365002
0.450798
0.52326
0.5199
0.482146
0.443838
0.414553
0.395957
0.385476
0.380074
0.377993
0.37877
0.382071
0.388442
0.399243
0.416704
0.443046
0.47794
0.517379
0.53085
0.376309
0.418115
0.53503
0.528869
0.485773
0.44536
0.415402
0.396232
0.385566
0.37998
0.377921
0.378591
0.381967
0.388324
0.399288
0.417115
0.445495
0.482133
0.54349
0.572359
0.427657
0.46694
0.553223
0.538472
0.489621
0.446586
0.415605
0.395949
0.385376
0.380138
0.378086
0.378719
0.38201
0.388457
0.399453
0.41745
0.446807
0.480745
0.521342
0.537735
0.385758
0.391804
0.600387
0.574804
0.504404
0.449
0.416104
0.396566
0.385788
0.380249
0.378099
0.378673
0.38194
0.388389
0.399297
0.416919
0.444259
0.483903
0.527325
0.539921
0.402258
0.398421
0.58926
0.562579
0.494644
0.447911
0.415895
0.396191
0.385425
0.379916
0.377744
0.378275
0.381494
0.387982
0.399126
0.417082
0.444984
0.48861
0.559261
0.580501
0.466477
0.39923
0.584264
0.556413
0.495097
0.448522
0.416666
0.397017
0.385973
0.38025
0.37799
0.378468
0.381602
0.387991
0.399106
0.41724
0.445358
0.493406
0.545846
0.542492
0.439517
0.410202
0.552426
0.53411
0.498165
0.449492
0.416775
0.396821
0.38574
0.380088
0.377896
0.378506
0.38167
0.388018
0.399053
0.417541
0.443966
0.483035
0.528448
0.532919
0.426101
0.42021
0.558798
0.534013
0.487598
0.44838
0.416073
0.396973
0.386102
0.380386
0.378112
0.37852
0.381713
0.388083
0.39901
0.41702
0.444611
0.485197
0.552197
0.539608
0.380574
0.437208
0.574455
0.538771
0.486584
0.447155
0.415848
0.396894
0.386105
0.38044
0.378213
0.378714
0.381792
0.38828
0.399443
0.418177
0.44905
0.485678
0.529384
0.541409
0.382088
0.473392
0.609443
0.559963
0.487863
0.445049
0.415463
0.396588
0.386143
0.380505
0.378154
0.378793
0.382045
0.388584
0.400133
0.419532
0.450398
0.491831
0.563222
0.598357
0.437406
0.414606
0.551008
0.534226
0.486373
0.445739
0.415697
0.396848
0.3861
0.380462
0.378259
0.378807
0.382282
0.388963
0.400523
0.419796
0.451895
0.499649
0.555862
0.580322
0.405839
0.479965
0.600571
0.56667
0.491303
0.449934
0.41638
0.396626
0.385427
0.380005
0.377937
0.378745
0.382064
0.388808
0.400135
0.419167
0.448892
0.493345
0.556858
0.625982
0.451554
0.457608
0.583256
0.55408
0.490306
0.448182
0.415345
0.395679
0.385359
0.379998
0.37797
0.378597
0.382033
0.388481
0.399766
0.417681
0.444358
0.482265
0.529241
0.566605
0.420318
0.453054
0.575076
0.546377
0.495006
0.447633
0.414893
0.395442
0.385266
0.379965
0.377943
0.378604
0.381934
0.388451
0.399497
0.417853
0.444503
0.483782
0.538495
0.522235
0.400937
0.412809
0.536714
0.522154
0.483427
0.444184
0.413973
0.39526
0.385208
0.37995
0.377895
0.37837
0.381589
0.388051
0.399069
0.416393
0.442031
0.476383
0.51349
0.525718
0.368904
0.422716
0.53804
0.526589
0.486181
0.447944
0.415174
0.395905
0.385511
0.380144
0.378045
0.378505
0.381692
0.388148
0.399117
0.41664
0.443283
0.483883
0.537846
0.565466
0.415457
0.450109
0.548676
0.55554
0.500092
0.45001
0.416274
0.396117
0.385761
0.380282
0.378166
0.378696
0.38186
0.388102
0.399037
0.416902
0.444869
0.474723
0.509572
0.520275
0.359607
0.518263
0.596446
0.534386
0.488753
0.447345
0.416656
0.397269
0.386272
0.380397
0.378251
0.378797
0.382
0.388332
0.39907
0.416542
0.442384
0.475872
0.509717
0.518415
0.3672
0.448146
0.576962
0.535953
0.490337
0.448002
0.416577
0.397251
0.386022
0.380504
0.378157
0.378787
0.382031
0.38846
0.39963
0.418664
0.447536
0.490606
0.536534
0.561997
0.415714
0.411452
0.570472
0.557457
0.501048
0.451751
0.417359
0.397185
0.386068
0.380332
0.378138
0.378719
0.382058
0.388526
0.399548
0.417429
0.44468
0.482672
0.513849
0.522904
0.358287
0.455596
0.536027
0.527748
0.487055
0.447467
0.416875
0.397483
0.386419
0.380644
0.378404
0.378941
0.38215
0.388534
0.399824
0.418812
0.446948
0.49197
0.521893
0.525834
0.363981
0.42541
0.530532
0.526191
0.486249
0.447355
0.4166
0.397348
0.386406
0.380713
0.378505
0.379045
0.382172
0.38877
0.399875
0.418622
0.449572
0.495043
0.55365
0.568613
0.376621
0.388857
0.569083
0.554452
0.490568
0.450872
0.417162
0.397523
0.386578
0.380882
0.378602
0.379153
0.382419
0.389032
0.400272
0.419202
0.446738
0.489737
0.53787
0.534628
0.386001
0.390833
0.532265
0.529246
0.488659
0.45023
0.417111
0.39761
0.386704
0.38091
0.37894
0.379637
0.382964
0.389471
0.400829
0.419294
0.44553
0.481857
0.522627
0.535649
0.404285
0.408504
0.547085
0.534482
0.491268
0.451551
0.41799
0.397845
0.386825
0.381068
0.378924
0.379591
0.38301
0.389929
0.401742
0.420636
0.447317
0.484146
0.529166
0.577905
0.47046
0.423094
0.604241
0.567962
0.505779
0.453451
0.419715
0.399244
0.387812
0.381736
0.379487
0.380126
0.383531
0.390354
0.402406
0.421512
0.451337
0.496383
0.550474
0.551778
0.457175
0.477234
0.600802
0.551347
0.498663
0.45336
0.420623
0.399397
0.388251
0.382299
0.380148
0.380871
0.384388
0.391262
0.403305
0.422481
0.452446
0.487451
0.530722
0.551835
0.465359
0.434598
0.609746
0.556562
0.501559
0.455559
0.422353
0.400922
0.389171
0.383332
0.381254
0.382061
0.385709
0.392843
0.405167
0.425281
0.454957
0.490743
0.53718
0.593437
0.460282
0.443825
0.615475
0.581794
0.514087
0.459308
0.424299
0.40273
0.390717
0.384811
0.382709
0.383471
0.387156
0.394565
0.407246
0.427669
0.457787
0.495572
0.544241
0.571432
0.436117
0.460179
0.596238
0.568061
0.510071
0.459649
0.424982
0.403391
0.39188
0.386332
0.384421
0.385249
0.388952
0.396552
0.409253
0.429431
0.460217
0.500439
0.552555
0.583701
0.448945
0.468804
0.606367
0.574907
0.517387
0.463068
0.426901
0.405822
0.39428
0.388669
0.386624
0.387199
0.390584
0.397737
0.410782
0.431202
0.463032
0.507492
0.584748
0.610123
0.517326
0.487878
0.625879
0.603669
0.521101
0.466903
0.431528
0.409212
0.39725
0.391401
0.389168
0.389572
0.392868
0.400435
0.412982
0.43295
0.463072
0.507303
0.57129
0.619561
0.492539
0.550502
0.678863
0.597025
0.517101
0.468048
0.435596
0.413107
0.400667
0.394557
0.392137
0.392329
0.395184
0.40162
0.414272
0.433419
0.463467
0.513215
0.595584
0.674893
0.478123
0.489857
0.640633
0.582409
0.510648
0.466399
0.436255
0.41608
0.404513
0.398848
0.396585
0.396708
0.399189
0.404783
0.415855
0.432395
0.458455
0.501406
0.572075
0.638935
0.50929
0.457041
0.622458
0.566813
0.501808
0.461721
0.435209
0.418172
0.409653
0.405385
0.403553
0.403638
0.40557
0.409765
0.418422
0.432592
0.45444
0.490643
0.552987
0.609413
0.448135
0.398831
0.584165
0.538466
0.484204
0.452135
0.434516
0.423708
0.418404
0.415464
0.414036
0.414074
0.415521
0.41817
0.423001
0.432932
0.449027
0.477576
0.526412
0.569105
0.399625
0.341859
0.536651
0.503548
0.466142
0.445405
0.435451
0.430996
0.428644
0.426768
0.425572
0.425678
0.426968
0.428801
0.431092
0.435352
0.445734
0.463541
0.496975
0.527369
0.344866
0.306431
0.497026
0.473082
0.452651
0.440226
0.436225
0.433927
0.431966
0.429946
0.428658
0.428867
0.43051
0.432818
0.435096
0.437266
0.441877
0.45378
0.472174
0.494923
0.308159
0.302227
0.478159
0.455074
0.443208
0.4328
0.428012
0.424633
0.421412
0.418823
0.417436
0.417765
0.419761
0.422903
0.426416
0.429875
0.434752
0.446513
0.457382
0.482532
0.304186
0.342302
0.478804
0.433407
0.417081
0.402605
0.393432
0.388281
0.385839
0.384526
0.383931
0.383998
0.38477
0.386398
0.388925
0.394523
0.403433
0.417589
0.434586
0.485478
0.345944
0.363887
0.445408
0.387475
0.377516
0.376212
0.37614
0.375879
0.375461
0.37518
0.375038
0.375074
0.375242
0.375503
0.375887
0.376083
0.376124
0.377495
0.387397
0.445741
0.364152
0.948634
1.13238
1.06664
0.89748
0.682473
0.518338
0.438604
0.403283
0.388839
0.384416
0.38624
0.394334
0.412126
0.4483
0.520061
0.653891
0.839597
1.00647
1.11042
0.996818
0.958657
1.15085
1.07207
0.891898
0.676229
0.505827
0.43475
0.401183
0.386956
0.382183
0.383637
0.391042
0.407942
0.443535
0.509498
0.643068
0.839039
1.01187
1.12217
1.01872
0.973571
1.20141
1.12094
0.894762
0.674875
0.512507
0.434356
0.400456
0.386568
0.382211
0.383956
0.391835
0.409267
0.444925
0.514967
0.646045
0.853699
1.02483
1.13915
1.09707
0.980636
1.19289
1.06449
0.885212
0.652512
0.505638
0.432062
0.399589
0.386166
0.382012
0.383842
0.391673
0.40883
0.444175
0.514297
0.642415
0.83596
1.06263
1.13921
1.01614
1.00546
1.16192
1.06779
0.888035
0.657238
0.490955
0.423344
0.397756
0.385507
0.38168
0.383594
0.39113
0.407461
0.44174
0.512064
0.641456
0.837628
1.0156
1.15582
1.03569
1.07702
1.17607
1.07643
0.889901
0.66324
0.494949
0.428212
0.397952
0.385235
0.381544
0.383693
0.391117
0.404778
0.436198
0.51001
0.641907
0.829826
1.02733
1.22735
1.12075
1.03396
1.23429
1.0918
0.891086
0.658116
0.491238
0.42058
0.393298
0.384008
0.380214
0.383518
0.391773
0.408209
0.439767
0.499067
0.632627
0.838168
1.05044
1.16977
1.0443
0.991788
1.17361
1.12343
0.900722
0.642684
0.491204
0.422683
0.394666
0.384211
0.380596
0.383666
0.39195
0.408023
0.438646
0.503769
0.637482
0.824695
1.00868
1.20529
1.10477
1.00297
1.17742
1.08396
0.883294
0.641298
0.495783
0.425042
0.395771
0.384233
0.381177
0.383846
0.392409
0.408114
0.446466
0.515414
0.636976
0.832407
1.01114
1.14071
1.02442
1.03171
1.20257
1.12967
0.879236
0.647395
0.493421
0.424234
0.395459
0.384058
0.381103
0.383874
0.393192
0.412541
0.449984
0.519889
0.643255
0.824658
1.02523
1.20986
1.11216
1.07773
1.2495
1.09486
0.876109
0.649672
0.484234
0.418618
0.392472
0.382353
0.379913
0.383437
0.39287
0.412783
0.450787
0.520636
0.64206
0.824332
1.06215
1.20152
1.06154
1.00191
1.15006
1.11062
0.872914
0.65115
0.501211
0.427874
0.39695
0.384586
0.381069
0.382628
0.391315
0.412705
0.451121
0.521895
0.642366
0.81632
1.03244
1.20374
1.12954
1.02322
1.1557
1.04838
0.874515
0.657069
0.504303
0.429445
0.397879
0.384994
0.38154
0.383835
0.391582
0.411639
0.445362
0.519338
0.639946
0.809626
0.992995
1.17789
1.02824
1.10343
1.21103
1.0502
0.882139
0.643651
0.491779
0.422599
0.396876
0.384753
0.381493
0.383829
0.392584
0.41146
0.448256
0.519994
0.64209
0.808391
0.986086
1.13954
0.963
1.03497
1.11596
1.03551
0.872036
0.663136
0.505986
0.429749
0.397937
0.38436
0.381241
0.383312
0.3899
0.40638
0.439201
0.509172
0.640997
0.817842
0.989898
1.19298
0.973268
0.987588
1.12283
1.04363
0.873536
0.666257
0.50792
0.430608
0.398303
0.385218
0.380737
0.383421
0.391744
0.4091
0.44089
0.509658
0.637662
0.805478
0.984432
1.10761
0.975136
1.04569
1.13189
1.05484
0.875856
0.665218
0.494009
0.427366
0.397621
0.385213
0.381371
0.383339
0.391566
0.409109
0.441312
0.514339
0.637443
0.803367
0.976098
1.15559
0.995325
1.00445
1.14937
1.10623
0.882938
0.665671
0.504941
0.42354
0.395648
0.384427
0.380854
0.381803
0.389138
0.408053
0.443467
0.515382
0.637136
0.806289
0.977461
1.08474
1.04436
1.06021
1.17425
1.07112
0.8798
0.659953
0.498708
0.429026
0.399338
0.385876
0.381463
0.382767
0.389339
0.40702
0.438289
0.51338
0.636319
0.810081
1.01457
1.07191
0.932971
1.07406
1.22515
1.08485
0.887317
0.663939
0.498978
0.425888
0.395748
0.383724
0.380025
0.382439
0.388802
0.405408
0.443803
0.514471
0.638228
0.811617
0.973961
1.07664
0.955803
1.04095
1.21924
1.12957
0.899014
0.655234
0.511357
0.434265
0.400412
0.386133
0.381185
0.382703
0.389663
0.406388
0.441759
0.510137
0.63084
0.816435
0.993564
1.09573
0.983383
0.977187
1.21298
1.10527
0.88435
0.663284
0.511416
0.433805
0.399956
0.385963
0.381451
0.382684
0.388787
0.40435
0.440767
0.503338
0.634478
0.822667
1.04328
1.12058
1.00872
0.983022
1.18929
1.07147
0.88029
0.659031
0.509713
0.432301
0.398952
0.384876
0.380337
0.382601
0.389262
0.40776
0.44277
0.51017
0.634255
0.830111
1.01268
1.18035
1.10412
0.993658
1.25889
1.10534
0.890279
0.655647
0.506804
0.424658
0.394271
0.384466
0.381127
0.382654
0.390513
0.407177
0.439967
0.50288
0.630453
0.824365
1.04882
1.17443
1.08336
1.01416
1.16164
1.0377
0.860331
0.648849
0.505669
0.426881
0.396098
0.384025
0.381536
0.384109
0.39297
0.411053
0.446078
0.508002
0.633008
0.813165
1.03871
1.17901
1.08921
0.908795
1.08477
1.06564
0.843385
0.641207
0.50239
0.4308
0.398807
0.385628
0.381705
0.383807
0.391049
0.408608
0.446537
0.513047
0.629559
0.808701
1.02878
1.15522
1.05294
0.921768
1.07911
1.00086
0.836275
0.640021
0.50185
0.430361
0.398433
0.385286
0.381404
0.383671
0.392299
0.410719
0.446563
0.513699
0.629183
0.804247
1.00285
1.10527
1.12593
0.945729
1.09978
1.01701
0.840554
0.634295
0.496543
0.427201
0.396623
0.384131
0.37959
0.381313
0.388962
0.406166
0.444159
0.512212
0.632356
0.80316
0.976241
1.09038
1.01217
0.968366
1.12704
1.03718
0.854965
0.627028
0.4897
0.422444
0.391991
0.381522
0.379378
0.381552
0.389035
0.405756
0.442239
0.511654
0.635435
0.818696
0.987018
1.11007
0.957469
1.04671
1.20005
1.0558
0.850598
0.621858
0.487772
0.422822
0.394096
0.38257
0.380367
0.382323
0.389639
0.406046
0.439457
0.502926
0.632233
0.81282
1.02903
1.18094
1.02522
1.03479
1.18941
1.09485
0.868946
0.642169
0.504748
0.432245
0.398114
0.384067
0.380786
0.382468
0.38848
0.403693
0.435826
0.50748
0.629854
0.809114
0.982604
1.12455
0.936011
1.04465
1.19204
1.08393
0.879754
0.663989
0.50539
0.43373
0.397233
0.385375
0.381092
0.383003
0.390741
0.407523
0.441378
0.508504
0.62686
0.822861
0.990897
1.07701
0.939781
1.02039
1.15999
1.05329
0.872076
0.667534
0.521117
0.440913
0.403199
0.386917
0.380886
0.382825
0.390456
0.406859
0.438517
0.512713
0.639058
0.815089
0.998694
1.07639
1.00303
0.971199
1.20268
1.06468
0.877055
0.665767
0.519012
0.44102
0.404098
0.387436
0.380995
0.382082
0.389246
0.405792
0.443801
0.513459
0.640878
0.817199
0.98494
1.08246
0.939348
0.97808
1.124
1.09307
0.889208
0.679311
0.506684
0.440708
0.404812
0.388018
0.38235
0.383874
0.392107
0.409961
0.445609
0.514871
0.642793
0.827772
1.03395
1.13855
1.00515
1.04969
1.12959
1.05938
0.886299
0.674533
0.526945
0.444428
0.405238
0.388126
0.381537
0.382822
0.391973
0.41005
0.445647
0.513725
0.640532
0.830669
0.998264
1.08298
0.910239
0.982441
1.13803
1.09514
0.901241
0.683684
0.517557
0.443129
0.404932
0.388214
0.382546
0.383911
0.392107
0.410152
0.446228
0.516184
0.644069
0.833242
1.03874
1.13636
0.913359
1.0311
1.18476
1.08172
0.894423
0.679456
0.524749
0.442148
0.404044
0.387739
0.382249
0.383799
0.391845
0.409549
0.445439
0.515747
0.643226
0.823044
0.991995
1.08808
0.919961
0.958387
1.12805
1.04554
0.879388
0.655949
0.502173
0.428552
0.397
0.384318
0.3813
0.383261
0.391863
0.409621
0.445212
0.516944
0.648963
0.832602
1.03858
1.14411
0.92944
1.01123
1.1365
1.08109
0.872947
0.656187
0.510347
0.435262
0.401231
0.386398
0.380952
0.383377
0.391666
0.409098
0.444041
0.514595
0.646452
0.83681
1.00414
1.09447
0.937827
0.951052
1.14924
1.05423
0.866782
0.642766
0.505807
0.433135
0.397243
0.385642
0.381405
0.383279
0.39139
0.408891
0.44422
0.515609
0.646419
0.83083
1.0437
1.1149
0.94804
0.966455
1.20861
1.09996
0.880701
0.642872
0.487061
0.429026
0.398931
0.385593
0.380327
0.381874
0.390544
0.407921
0.442862
0.513854
0.644081
0.82984
1.00271
1.17267
0.968641
0.957972
1.12884
1.04739
0.859362
0.649725
0.491311
0.428563
0.398518
0.385486
0.380605
0.382633
0.390257
0.407235
0.442451
0.513928
0.643211
0.825808
1.02228
1.1403
0.981383
1.02117
1.18604
1.09324
0.862902
0.649704
0.493581
0.424804
0.39562
0.383911
0.38096
0.382559
0.389631
0.40584
0.439972
0.510195
0.63718
0.832112
0.971464
1.09124
1.01347
0.944102
1.12208
1.04045
0.853576
0.644299
0.502737
0.432309
0.399841
0.386015
0.381405
0.382535
0.387667
0.402181
0.43739
0.506514
0.632686
0.825827
0.969836
1.08283
1.02078
0.951866
1.12892
1.04569
0.863483
0.646084
0.503707
0.432382
0.400313
0.38653
0.3815
0.382963
0.38877
0.404894
0.435674
0.50168
0.629847
0.814786
0.974229
1.08604
0.950105
1.01248
1.19307
1.09473
0.863669
0.633598
0.501591
0.432238
0.40063
0.38676
0.381321
0.383384
0.38949
0.405228
0.432243
0.495677
0.631496
0.810409
0.977895
1.09046
0.956938
0.932098
1.13771
1.04556
0.861154
0.647828
0.503769
0.433386
0.401026
0.387053
0.38234
0.383777
0.390916
0.40671
0.440046
0.508366
0.634583
0.823568
0.993131
1.112
0.981628
0.933828
1.1511
1.04717
0.86544
0.653446
0.5066
0.431553
0.399507
0.386189
0.381964
0.383556
0.390452
0.403891
0.435523
0.502292
0.640047
0.829022
1.00084
1.12482
1.00319
0.947232
1.22922
1.06018
0.870256
0.653064
0.503751
0.423122
0.393944
0.382885
0.380099
0.383319
0.391121
0.406282
0.442388
0.510621
0.639639
0.8303
1.04154
1.19285
1.08952
0.946075
1.1943
1.05707
0.872772
0.655747
0.503571
0.424404
0.395278
0.383847
0.380653
0.383392
0.391364
0.408478
0.442928
0.50294
0.634759
0.810886
0.998487
1.14513
1.0518
0.953103
1.16522
1.05937
0.871754
0.649408
0.505059
0.429015
0.397415
0.384951
0.381355
0.383388
0.390582
0.40582
0.443325
0.510855
0.632202
0.808754
1.02576
1.19125
1.07957
0.955829
1.22152
1.06185
0.873334
0.634793
0.503197
0.424043
0.3963
0.384661
0.381115
0.383198
0.391103
0.408145
0.44258
0.509403
0.631269
0.800944
0.968939
1.0909
1.02481
0.960797
1.13933
1.05781
0.874097
0.659499
0.507033
0.429755
0.394548
0.384192
0.380739
0.382115
0.388431
0.40352
0.435505
0.499863
0.628065
0.802543
0.974667
1.09345
0.976269
0.983688
1.15374
1.06943
0.868103
0.65626
0.494061
0.427371
0.397048
0.384908
0.38092
0.381845
0.389005
0.404827
0.440495
0.509221
0.631715
0.807221
0.981375
1.09831
0.991434
1.01224
1.19333
1.09864
0.863437
0.653386
0.50552
0.424329
0.394942
0.384776
0.380962
0.382173
0.389395
0.404812
0.435923
0.507916
0.630932
0.814683
0.998686
1.12031
1.04406
0.960719
1.12208
1.02872
0.856644
0.654261
0.506841
0.432616
0.399482
0.385309
0.380387
0.382845
0.390911
0.407818
0.440976
0.510851
0.635494
0.823037
1.01083
1.13641
1.07546
1.00846
1.16845
1.07228
0.874382
0.650017
0.502679
0.430347
0.398564
0.385263
0.38075
0.382197
0.390994
0.40834
0.439016
0.511241
0.634712
0.834743
1.05963
1.19902
1.08237
1.01847
1.17644
1.02471
0.853476
0.630133
0.494737
0.425651
0.39359
0.382357
0.380336
0.382543
0.389656
0.408928
0.44528
0.514655
0.634166
0.811043
1.01791
1.16154
1.08758
1.01276
1.1715
1.02226
0.845566
0.644433
0.493379
0.424631
0.395187
0.382743
0.379409
0.38162
0.390764
0.409024
0.445266
0.513407
0.631931
0.8038
0.972005
1.10674
1.08092
0.988983
1.14518
1.02887
0.850021
0.649842
0.507642
0.432676
0.398657
0.383571
0.37971
0.381593
0.389198
0.407681
0.439968
0.511961
0.631821
0.802957
0.969433
1.09494
1.04593
0.935741
1.09338
1.0125
0.846709
0.65299
0.509016
0.4323
0.398448
0.38376
0.38
0.382376
0.390867
0.406457
0.443668
0.510178
0.629559
0.81282
0.973617
1.09765
0.985351
0.947114
1.09467
1.01736
0.861716
0.651533
0.492887
0.42746
0.397343
0.384555
0.380705
0.382796
0.391058
0.408781
0.444067
0.510875
0.62966
0.802161
0.973285
1.10122
1.00669
1.01478
1.11054
1.02493
0.849793
0.649835
0.503397
0.42448
0.395828
0.382956
0.380213
0.382375
0.39013
0.407078
0.441646
0.508503
0.629477
0.82084
1.01426
1.15686
0.980558
0.939578
1.11031
1.03275
0.848008
0.639539
0.504272
0.431648
0.398763
0.384624
0.379616
0.380942
0.387362
0.402299
0.439173
0.508619
0.625222
0.806146
0.9709
1.09123
1.00057
0.953451
1.16988
1.08736
0.872873
0.651881
0.49326
0.42313
0.39436
0.383894
0.380604
0.382212
0.38907
0.403738
0.431379
0.500391
0.636071
0.812461
0.975201
1.0916
1.07102
1.00677
1.11517
1.04087
0.858405
0.651369
0.505044
0.431235
0.397973
0.383588
0.38071
0.382338
0.388274
0.402745