/*--------------------------------*- C++ -*----------------------------------*\
  =========                 |
  \\      /  F ield         | OpenFOAM: The Open Source CFD Toolbox
   \\    /   O peration     | Website:  https://openfoam.org
    \\  /    A nd           | Version:  6
     \\/     M anipulation  |
\*---------------------------------------------------------------------------*/
FoamFile
{
    version     2.0;
    format      ascii;
    class       volScalarField;
    location    "4";
    object      nut;
}
// * * * * * * * * * * * * * * * * * * * * * * * * * * * * * * * * * * * * * //

dimensions      [0 2 -1 0 0 0 0];

internalField   nonuniform List<scalar> 
10000
(
2.37627e-05
8.72218e-05
0.000139988
0.000191087
0.00026239
0.000356948
0.000465343
0.000568318
0.000645711
0.000684067
0.00067885
0.000632831
0.000554918
0.000458524
0.000358991
0.000269207
0.00019486
0.000135592
8.48804e-05
2.39703e-05
3.15133e-05
9.12731e-05
0.000143354
0.000193789
0.000266607
0.000362683
0.00047179
0.00057447
0.000651578
0.00069034
0.000686233
0.000640859
0.000562658
0.000465036
0.000363976
0.000274066
0.000195093
0.000134286
9.60829e-05
3.19462e-05
2.93134e-05
0.000104646
0.000160649
0.000202917
0.000276241
0.000376407
0.000488539
0.000590048
0.000665239
0.000702759
0.00070077
0.000656106
0.000577897
0.000468273
0.000365879
0.00027369
0.000205862
0.000134293
8.12778e-05
2.92078e-05
2.94866e-05
9.93472e-05
0.000151521
0.000190938
0.000258315
0.000354172
0.000462726
0.000563816
0.000643926
0.000684741
0.00068677
0.000640713
0.000566641
0.00047454
0.000369117
0.000271892
0.000200831
0.000140831
8.77489e-05
2.97934e-05
2.61376e-05
9.90693e-05
0.000147489
0.000193467
0.000254857
0.000354334
0.00046707
0.000574425
0.000645589
0.000681911
0.000679026
0.000624414
0.00054716
0.000457191
0.000368709
0.000272593
0.000198606
0.000152096
0.000100256
2.74553e-05
1.9675e-05
9.54385e-05
0.000134099
0.000184239
0.000246956
0.00033515
0.000442949
0.000551391
0.000640442
0.000683349
0.000673906
0.000619791
0.000542498
0.000457225
0.000360379
0.000274993
0.000193991
0.000136986
8.74857e-05
2.03815e-05
2.11538e-05
9.18419e-05
0.000127093
0.000180045
0.000245131
0.000330431
0.000436766
0.000544256
0.000634181
0.000671145
0.000662945
0.000614876
0.000534883
0.000437033
0.000338105
0.000255464
0.000184391
0.000141545
9.96678e-05
2.70702e-05
1.98268e-05
8.1419e-05
0.000127975
0.000184731
0.000242683
0.00032629
0.00043302
0.000538473
0.000620619
0.000663425
0.000662057
0.000626025
0.000551151
0.000450262
0.000340748
0.000257006
0.000184065
0.000127285
8.41443e-05
2.29224e-05
2.52351e-05
9.23885e-05
0.00013351
0.000181888
0.000241148
0.000327522
0.000445152
0.000544076
0.000621639
0.000662389
0.000659196
0.000615352
0.000542189
0.00044582
0.000340315
0.000257624
0.000192316
0.000144893
9.63599e-05
2.98459e-05
1.98107e-05
7.0339e-05
0.000131894
0.000176688
0.000238108
0.000327897
0.000438842
0.000554599
0.000625589
0.000663448
0.000659777
0.000620148
0.000533042
0.000437178
0.000339135
0.000251332
0.000180058
0.000124795
8.19341e-05
2.59976e-05
2.00722e-05
6.68625e-05
0.000114499
0.000170927
0.000247532
0.000345103
0.000458413
0.000552871
0.00062722
0.000664153
0.000658316
0.000617732
0.000541281
0.000447113
0.000347949
0.000256699
0.000180129
0.000125697
9.36905e-05
2.8538e-05
2.42965e-05
7.6765e-05
0.000138771
0.000183753
0.000249976
0.000344914
0.000457284
0.000564431
0.00063084
0.000665083
0.000655512
0.000606184
0.000525374
0.000429873
0.000334062
0.00025346
0.000180304
0.00012256
7.44518e-05
2.35477e-05
3.22733e-05
8.13404e-05
0.000126483
0.000175646
0.000245629
0.000340209
0.000450772
0.000562359
0.000632344
0.000667907
0.000659972
0.000610995
0.000531547
0.000439948
0.000335904
0.00025303
0.000189088
0.00012305
7.37454e-05
1.7685e-05
2.68353e-05
8.19095e-05
0.000136106
0.000178107
0.00025552
0.000355769
0.000469622
0.000558731
0.000631186
0.000671767
0.000675821
0.000630182
0.00054675
0.000436863
0.00033559
0.000249354
0.000183571
0.000120291
7.32006e-05
2.13592e-05
2.03574e-05
8.14063e-05
0.000139826
0.000180209
0.000241978
0.000336806
0.000454931
0.00056534
0.000642316
0.000682488
0.00067739
0.000630569
0.000551156
0.000452021
0.000343971
0.000255507
0.000180803
0.000137864
9.253e-05
2.7834e-05
2.63714e-05
7.63468e-05
0.000131783
0.000171897
0.000234027
0.000324098
0.000443847
0.000551959
0.000628211
0.000671599
0.000669861
0.000624725
0.000545697
0.000448944
0.000352609
0.00025683
0.000182168
0.000120993
7.59203e-05
2.35832e-05
1.97789e-05
7.38447e-05
0.000117015
0.000173839
0.000240759
0.000326325
0.000435081
0.000538418
0.000624042
0.000671911
0.000679261
0.000639975
0.000562074
0.00045941
0.000344948
0.000255013
0.00018812
0.00014035
9.35773e-05
3.06968e-05
2.00814e-05
8.23508e-05
0.000108333
0.000164649
0.000238763
0.000329824
0.000438649
0.000544536
0.000628732
0.000673237
0.000676644
0.000630184
0.000549839
0.000451535
0.000350269
0.000256847
0.000194479
0.000132149
8.21068e-05
2.7822e-05
2.16184e-05
6.27709e-05
0.000107022
0.000175224
0.000248972
0.000348711
0.000464018
0.000567308
0.000637908
0.000675585
0.000668805
0.000618718
0.000536361
0.000437156
0.000341608
0.000258662
0.000191962
0.000140024
9.03912e-05
2.95692e-05
2.69031e-05
6.35772e-05
0.000108387
0.000174564
0.000251818
0.000348448
0.000466261
0.000564678
0.000641895
0.000681721
0.000683995
0.000635929
0.000544602
0.000442204
0.00034226
0.000257329
0.000188722
0.000125641
7.68572e-05
2.81544e-05
1.74464e-05
6.38124e-05
0.000111163
0.000173724
0.000261215
0.00035652
0.000469731
0.000568589
0.000645677
0.000683989
0.000680277
0.00063865
0.000566531
0.000462794
0.00034885
0.000258196
0.000190745
0.000125478
7.10776e-05
2.51504e-05
2.00556e-05
6.79861e-05
0.000107452
0.000174496
0.000266645
0.000375283
0.000491784
0.000593527
0.000659571
0.000700115
0.000686603
0.00064182
0.00057157
0.00047137
0.000363978
0.000266639
0.000186328
0.000127592
7.48363e-05
1.8814e-05
2.21854e-05
6.76042e-05
0.000112006
0.000181194
0.000267128
0.000368722
0.000482396
0.000589022
0.000666363
0.000706281
0.000699531
0.00064762
0.000576629
0.000477675
0.000370072
0.000269135
0.000189186
0.000129138
7.43417e-05
2.15906e-05
2.80446e-05
6.34719e-05
0.000114757
0.000191923
0.000269287
0.000355677
0.000462635
0.000568527
0.000649856
0.000698321
0.000697043
0.000654642
0.000577847
0.000479263
0.000375214
0.000278842
0.000195098
0.000134456
8.06365e-05
2.12138e-05
1.87925e-05
6.7806e-05
0.000121906
0.000187304
0.000256638
0.000345534
0.000454146
0.000560992
0.000644145
0.00068764
0.000685899
0.000643014
0.00056772
0.00047094
0.000369657
0.00028122
0.000202556
0.000136642
8.1525e-05
2.55155e-05
2.3301e-05
7.38899e-05
0.000127746
0.000182741
0.000251268
0.000338468
0.000446442
0.000553768
0.000637115
0.000681484
0.000682166
0.000640973
0.000565671
0.00046904
0.000367851
0.000278366
0.000211629
0.0001591
0.000101625
3.38512e-05
2.02302e-05
8.68834e-05
0.000130266
0.000178025
0.000246131
0.000333136
0.000440455
0.000547956
0.000632314
0.000678407
0.000678968
0.000638888
0.000564999
0.000470038
0.00036874
0.0002744
0.000205202
0.000151464
9.69386e-05
2.97445e-05
1.91871e-05
6.77752e-05
0.000133403
0.000179816
0.000243065
0.000331586
0.000439282
0.000545915
0.000629074
0.000681657
0.000683748
0.00064699
0.000574442
0.000481082
0.000379041
0.000274689
0.00019925
0.000145514
9.39071e-05
2.58773e-05
2.27698e-05
7.12469e-05
0.00011983
0.000174474
0.000248824
0.000336435
0.000444307
0.000559081
0.00063092
0.000669793
0.000666168
0.000625903
0.000548793
0.000452741
0.000356096
0.000273883
0.000203335
0.000156286
0.000107909
3.29187e-05
2.98469e-05
7.14592e-05
0.000134009
0.000182185
0.000250812
0.000340903
0.000448771
0.000554104
0.00063077
0.000669179
0.000662798
0.000614496
0.000534656
0.000435336
0.000335142
0.000249889
0.000179413
0.000132985
8.84341e-05
2.42604e-05
2.18018e-05
6.85549e-05
0.000130683
0.000182843
0.000257471
0.000356588
0.000470892
0.000563029
0.000635538
0.00067087
0.000664063
0.000619122
0.000548261
0.00044758
0.000334711
0.000246155
0.000177632
0.000123314
7.50919e-05
2.31789e-05
2.81329e-05
6.63439e-05
0.0001158
0.000176644
0.000252278
0.000349644
0.000469213
0.000575873
0.000650989
0.000675153
0.000665209
0.000623736
0.000543973
0.000444443
0.000336456
0.000248051
0.000179758
0.000140578
9.24808e-05
3.00961e-05
2.49751e-05
7.60309e-05
0.000124932
0.000182461
0.000260528
0.000361773
0.000464379
0.000566228
0.000644928
0.000672029
0.000659492
0.000611509
0.000531775
0.000435515
0.000336871
0.000248501
0.00017584
0.000120885
7.67154e-05
2.33343e-05
2.07182e-05
9.48218e-05
0.000141797
0.000187142
0.000252018
0.000346858
0.000469513
0.000578782
0.000642102
0.000671103
0.000659476
0.000611926
0.000541551
0.000445012
0.000347436
0.000257496
0.000176965
0.000120485
8.42246e-05
1.66952e-05
1.95958e-05
8.3764e-05
0.000121066
0.000177475
0.000253677
0.00035169
0.00045655
0.000566582
0.00064521
0.000677563
0.000659825
0.000608923
0.000531129
0.000426352
0.000330834
0.000248076
0.00017555
0.000117073
6.44377e-05
1.78095e-05
2.28212e-05
9.23964e-05
0.000125185
0.000177621
0.000248598
0.0003379
0.000457817
0.000567749
0.00064268
0.000668349
0.000658484
0.000608934
0.000529103
0.000435902
0.000330974
0.000247831
0.000185123
0.000119521
6.68123e-05
1.72768e-05
2.7889e-05
8.65365e-05
0.000131258
0.000181933
0.000245841
0.000332446
0.000440207
0.000555095
0.000637867
0.00067784
0.000667455
0.00061784
0.000542887
0.000435529
0.000332146
0.000247408
0.000180855
0.00012057
7.13573e-05
2.14243e-05
1.91017e-05
7.15004e-05
0.000116197
0.000171479
0.000241728
0.000332492
0.000451604
0.000551578
0.000628967
0.000670996
0.0006753
0.000632291
0.000550314
0.000452584
0.000345557
0.000249164
0.000175557
0.00013307
8.94235e-05
2.89137e-05
2.20795e-05
7.11103e-05
0.000117231
0.000172151
0.000242099
0.000335297
0.000446145
0.000553041
0.000641296
0.00067455
0.000670921
0.000627515
0.000553971
0.000451959
0.000346055
0.00025905
0.000188528
0.000133166
7.65137e-05
2.54196e-05
2.16973e-05
7.02256e-05
0.000135526
0.000183486
0.00025425
0.000351062
0.00046859
0.000574307
0.000649945
0.000679284
0.000674378
0.000638157
0.000559121
0.000457838
0.000353501
0.000259264
0.00018369
0.000126984
8.12705e-05
2.45512e-05
2.78728e-05
7.42071e-05
0.000121061
0.000175782
0.000247495
0.000342639
0.000461711
0.000569192
0.000648465
0.000687666
0.000681536
0.000632917
0.000545707
0.000443071
0.000340686
0.000250089
0.000179229
0.000121697
7.49389e-05
2.09297e-05
2.42717e-05
7.00929e-05
0.0001257
0.000178598
0.000254186
0.000354212
0.000457158
0.000561595
0.000640971
0.000679577
0.000672311
0.000623303
0.00054181
0.000443424
0.000346157
0.000248867
0.000179997
0.000130311
8.87855e-05
2.5964e-05
1.95491e-05
8.28347e-05
0.000144859
0.000188886
0.00025057
0.000344444
0.000466545
0.000579465
0.00065868
0.000694723
0.000684977
0.000633966
0.000551856
0.000448732
0.00033564
0.000246258
0.000177727
0.00012582
7.66941e-05
2.0986e-05
1.83542e-05
6.50342e-05
0.000129757
0.000179076
0.000256287
0.000357426
0.000460517
0.00057156
0.00064951
0.000684781
0.000673369
0.000617046
0.000534301
0.000435776
0.000334561
0.000246608
0.00017799
0.000130632
7.77136e-05
2.77461e-05
2.11772e-05
7.23309e-05
0.000138318
0.000192311
0.000265349
0.000361423
0.000474563
0.000567544
0.000640913
0.000675666
0.000667093
0.000619902
0.000546612
0.000439745
0.000337624
0.000247855
0.000176177
0.000118653
7.70711e-05
2.38785e-05
2.06438e-05
6.84674e-05
0.000123764
0.000188004
0.00026353
0.000358865
0.000477042
0.000581496
0.00065894
0.000693306
0.000681065
0.000624623
0.000542257
0.000442532
0.000340576
0.000250408
0.000178028
0.000120734
7.79788e-05
2.90859e-05
2.89097e-05
8.36464e-05
0.000139281
0.000197682
0.000277129
0.000377972
0.000477863
0.000574767
0.000655476
0.000691226
0.0006776
0.000631458
0.000561347
0.000462283
0.000356202
0.000256901
0.000179238
0.000126223
7.86984e-05
2.74794e-05
2.46303e-05
0.000105606
0.000164656
0.000207587
0.000270489
0.000363964
0.000484818
0.00057623
0.000648257
0.00068967
0.000677574
0.000631822
0.000560763
0.000460912
0.000353886
0.000256585
0.000180844
0.000125407
7.97351e-05
2.73441e-05
3.08715e-05
9.94327e-05
0.000155678
0.000199331
0.000273221
0.000370941
0.000480287
0.000588253
0.000652613
0.000686323
0.000679076
0.00063844
0.00056512
0.000466391
0.000360957
0.000264469
0.000181106
0.000123636
8.46423e-05
2.44968e-05
2.48185e-05
9.30779e-05
0.000150717
0.000197933
0.000262457
0.000354056
0.000463384
0.00057696
0.000657653
0.000692681
0.000677881
0.000631949
0.000560063
0.000464074
0.000361234
0.000271621
0.000184309
0.000125564
8.093e-05
1.76514e-05
1.89474e-05
7.96622e-05
0.000136911
0.000189901
0.000265519
0.000362647
0.000472545
0.000566251
0.000643873
0.000678599
0.000673448
0.000634907
0.000550965
0.000453572
0.000355435
0.000269235
0.000187476
0.000122648
6.86374e-05
1.92283e-05
2.06027e-05
8.00974e-05
0.000136574
0.000187614
0.000256682
0.000345481
0.000453527
0.000559515
0.000652124
0.000690432
0.000674611
0.000627437
0.00055122
0.000461699
0.000354526
0.000268066
0.000190226
0.000138039
7.25275e-05
1.83833e-05
1.9771e-05
8.19371e-05
0.000138388
0.000187582
0.000251679
0.000340213
0.000448175
0.000554996
0.000645424
0.000684815
0.00067266
0.000626592
0.000555284
0.000451158
0.000352458
0.000264751
0.000188358
0.000128948
7.58295e-05
2.1292e-05
2.71199e-05
8.57532e-05
0.000150315
0.000194455
0.000253719
0.000339064
0.000446841
0.000553684
0.000634741
0.000674198
0.000668295
0.000622061
0.000544385
0.000448762
0.00035086
0.000261589
0.000188729
0.00014059
8.92272e-05
2.69129e-05
2.33889e-05
9.22233e-05
0.000137849
0.000185056
0.000249239
0.00033783
0.000445165
0.000553035
0.000634104
0.000673309
0.000667127
0.000621647
0.000544096
0.000448164
0.000349241
0.000260765
0.000183998
0.000123455
7.39259e-05
1.79203e-05
3.00672e-05
7.74964e-05
0.00012782
0.000176922
0.000245931
0.000337874
0.000447067
0.000567494
0.000650541
0.000686866
0.000670032
0.000621666
0.000545636
0.000451944
0.000359324
0.000264513
0.00018499
0.000124442
7.44277e-05
1.9924e-05
2.81258e-05
7.80816e-05
0.000139037
0.000174941
0.000246033
0.000342653
0.000457783
0.000563893
0.000643378
0.000681397
0.0006699
0.000623241
0.000547055
0.000458033
0.000347783
0.000261776
0.000188204
0.000122233
7.51051e-05
1.87834e-05
2.92628e-05
7.37042e-05
0.000120512
0.00017181
0.000242875
0.000334625
0.000441549
0.000547038
0.000628811
0.000670302
0.000668435
0.000629789
0.000552089
0.000451799
0.000344475
0.000259784
0.000194132
0.000127954
7.68025e-05
2.51992e-05
2.83934e-05
6.60396e-05
0.000114334
0.000172717
0.000253339
0.000341413
0.000447766
0.000551792
0.000640514
0.000681064
0.000673094
0.000616424
0.000534732
0.000437448
0.000340818
0.000259808
0.00018679
0.000130168
7.55304e-05
1.90002e-05
2.63965e-05
6.78174e-05
0.000118264
0.000175729
0.000252394
0.000353878
0.000454475
0.000555355
0.000632581
0.00066927
0.000659958
0.000611482
0.000530985
0.000433901
0.00033726
0.000256262
0.000184856
0.000131071
8.2217e-05
2.04683e-05
1.97007e-05
7.38499e-05
0.000128658
0.000182279
0.000253721
0.000354925
0.000468826
0.000575021
0.000639148
0.000671577
0.000662256
0.000613247
0.000532866
0.000435873
0.000338108
0.000254318
0.000187021
0.000145239
9.43508e-05
2.63636e-05
2.68079e-05
7.57346e-05
0.000131396
0.000184879
0.000261396
0.000350454
0.000458789
0.00057063
0.000649856
0.000685556
0.000676424
0.000627428
0.000547754
0.000449488
0.00034748
0.000256499
0.000184903
0.000131409
8.16391e-05
2.10331e-05
2.00353e-05
9.4929e-05
0.000151061
0.00019574
0.000258615
0.000352463
0.000473224
0.000567332
0.000640161
0.000673724
0.000662943
0.000612361
0.000532535
0.000436042
0.000338177
0.000252586
0.000185746
0.000132944
8.18886e-05
2.28992e-05
1.8471e-05
8.40279e-05
0.000137728
0.000187579
0.000265123
0.000364697
0.000466187
0.000564816
0.00063844
0.000671508
0.000660098
0.000609235
0.000532131
0.000437488
0.0003384
0.000256209
0.000186621
0.000140972
9.19715e-05
3.04165e-05
2.04614e-05
8.84058e-05
0.000142399
0.000192986
0.000265005
0.000360195
0.000477645
0.000581617
0.00065555
0.000686319
0.000666697
0.000615075
0.000539427
0.000444977
0.000345097
0.000253012
0.000191438
0.000136486
7.79045e-05
2.61596e-05
2.01266e-05
7.30171e-05
0.000127408
0.00019273
0.000273082
0.000371708
0.000465483
0.000564016
0.00063986
0.000675796
0.000666302
0.000620241
0.00053099
0.000433713
0.000337279
0.000250473
0.000183152
0.000129944
7.15807e-05
2.42524e-05
2.1651e-05
8.04705e-05
0.000131822
0.000185417
0.000260368
0.000351169
0.000457863
0.000560302
0.000638103
0.000675993
0.000666132
0.000615991
0.000533717
0.000435924
0.00033819
0.000252286
0.000185136
0.000142201
7.64158e-05
1.77647e-05
2.09363e-05
8.55723e-05
0.000133703
0.000182784
0.000254919
0.00034709
0.000455857
0.000560717
0.000640872
0.00068753
0.000682523
0.000633755
0.000550759
0.000442343
0.000342132
0.000257664
0.00018461
0.000129551
7.54085e-05
2.13841e-05
2.83492e-05
0.000100499
0.000145661
0.000184153
0.000253713
0.000349248
0.000458414
0.000563297
0.000640677
0.000677877
0.000672825
0.000626963
0.000548091
0.000448765
0.000349324
0.000263101
0.000187453
0.000145409
9.57233e-05
2.77282e-05
2.4323e-05
8.19773e-05
0.00012993
0.000181666
0.000256481
0.000362077
0.000481482
0.00058771
0.000660455
0.000685001
0.000683009
0.000641057
0.000566993
0.000464596
0.000360633
0.000268892
0.000194715
0.000132715
8.08287e-05
2.34722e-05
3.1832e-05
8.76667e-05
0.000137719
0.000182364
0.000262755
0.000360325
0.000472477
0.000577199
0.000653514
0.000686809
0.000670291
0.000623432
0.000552482
0.000446898
0.000347609
0.000261562
0.000194713
0.000143103
0.00010101
2.92485e-05
2.82894e-05
8.46352e-05
0.000132941
0.000179996
0.000253057
0.000347037
0.000458541
0.000569314
0.000646774
0.000680402
0.000665336
0.000618714
0.000546682
0.00045305
0.000352512
0.000260702
0.000186315
0.000133372
8.59183e-05
2.54191e-05
2.66213e-05
8.1584e-05
0.000127699
0.000181874
0.000246815
0.000334912
0.000443348
0.000559346
0.000638477
0.000671557
0.000661191
0.000614045
0.000541618
0.000434732
0.000337624
0.000253186
0.000187835
0.00013913
7.90243e-05
2.32842e-05
1.98788e-05
7.35008e-05
0.000116628
0.000173771
0.000244117
0.00033533
0.000454496
0.000560482
0.00063232
0.000668068
0.000659995
0.000612589
0.000533681
0.000436848
0.000338784
0.000252276
0.00018272
0.000123862
8.01049e-05
1.98173e-05
2.31636e-05
7.487e-05
0.000118815
0.000175764
0.00025024
0.000340668
0.000449612
0.000556688
0.000645474
0.000684701
0.000674089
0.000619391
0.00054785
0.000453055
0.000351671
0.000259232
0.000190542
0.000139309
9.15124e-05
2.47937e-05
2.29448e-05
7.51764e-05
0.000136681
0.000188168
0.000261119
0.00035866
0.000473319
0.000578973
0.000652596
0.000682628
0.000665982
0.000614975
0.000535139
0.000441929
0.000345338
0.000257205
0.000185086
0.0001289
7.63359e-05
1.84305e-05
3.24684e-05
8.25393e-05
0.000119935
0.000183031
0.000258543
0.000354191
0.000471135
0.000575094
0.00064968
0.000675696
0.000664782
0.000619455
0.000542979
0.000437272
0.000339205
0.000254476
0.000186481
0.000129489
7.27949e-05
1.95815e-05
2.5108e-05
8.296e-05
0.000128562
0.000190116
0.000269303
0.000358737
0.0004646
0.000565122
0.000645495
0.000673727
0.000664452
0.000615104
0.000536016
0.000446986
0.000349565
0.000260602
0.000197782
0.000143092
9.25901e-05
2.47217e-05
2.34338e-05
8.55035e-05
0.000144514
0.000197949
0.000265695
0.000368415
0.000479171
0.000578415
0.000639759
0.000672305
0.000667035
0.000626232
0.000537214
0.000437554
0.000338999
0.000255443
0.000189599
0.000130319
7.94679e-05
1.79903e-05
2.81684e-05
7.97804e-05
0.000134738
0.000187924
0.000263421
0.000355073
0.000459734
0.000561054
0.000635524
0.000671127
0.000668551
0.000630463
0.000554003
0.000452503
0.000343306
0.000258238
0.000195855
0.000129586
8.09988e-05
1.85856e-05
2.43706e-05
7.45951e-05
0.00013472
0.000188491
0.000260752
0.000349944
0.00045338
0.000556012
0.000633406
0.000672552
0.000669282
0.000625146
0.000553228
0.00045305
0.000345287
0.000261696
0.00019826
0.000150594
9.41173e-05
1.92276e-05
1.81923e-05
9.20312e-05
0.000150247
0.000192172
0.000262724
0.000351028
0.000459788
0.000575002
0.000652848
0.000688711
0.000675741
0.000633581
0.000554998
0.000455875
0.000349631
0.000260016
0.000193438
0.00013562
8.27871e-05
2.12073e-05
2.06211e-05
8.10961e-05
0.000134909
0.000191679
0.000269861
0.000366207
0.00048047
0.000578122
0.00064528
0.000682698
0.000681609
0.000628629
0.000548287
0.00045269
0.000359095
0.000259996
0.000188299
0.000135139
8.31162e-05
2.33052e-05
2.01542e-05
8.3882e-05
0.000139963
0.000196427
0.000270675
0.000360836
0.000475288
0.000577839
0.000647268
0.000690088
0.000678306
0.000629893
0.000551064
0.000454568
0.000355746
0.000265693
0.000188811
0.000136939
9.59185e-05
3.12406e-05
2.40654e-05
0.000101583
0.000156158
0.000207968
0.000275179
0.000367094
0.000474102
0.000573698
0.000647914
0.000690665
0.000683347
0.000646259
0.000571041
0.000473931
0.000369181
0.000272284
0.000200757
0.000140626
8.50672e-05
2.86016e-05
2.95729e-05
9.18395e-05
0.00014044
0.000202614
0.000285571
0.000385784
0.000482598
0.000578861
0.000651224
0.000687095
0.000684815
0.000642152
0.000566138
0.000470456
0.000369418
0.000276447
0.000195203
0.000135688
8.30052e-05
2.92017e-05
2.15624e-05
9.84829e-05
0.00015163
0.000216388
0.000291728
0.000387831
0.00049963
0.000598765
0.000671446
0.000706027
0.000694599
0.000650337
0.000574937
0.000479815
0.000380229
0.000288369
0.000199084
0.000134542
9.68668e-05
2.78464e-05
2.37809e-05
9.5748e-05
0.000161446
0.000227418
0.000298271
0.000402222
0.000496033
0.000590156
0.000663404
0.000702135
0.000702181
0.000671148
0.00060146
0.00050677
0.000401835
0.000299261
0.000207856
0.000140001
8.704e-05
2.21527e-05
2.25097e-05
9.28748e-05
0.00015866
0.000225127
0.000300312
0.000395089
0.000496674
0.000594816
0.000670213
0.000710229
0.000716328
0.000672968
0.000602165
0.000508537
0.000405299
0.000305292
0.000216937
0.000147144
9.04651e-05
2.62562e-05
2.48673e-05
9.97342e-05
0.000166833
0.000237996
0.00032048
0.000410144
0.000513427
0.000609711
0.000682103
0.000720705
0.000721054
0.000682129
0.000612868
0.000521754
0.000419443
0.000323625
0.000229209
0.000164216
9.4204e-05
3.38787e-05
2.68622e-05
0.000107907
0.00018964
0.000247697
0.000335864
0.00044467
0.000555554
0.000651964
0.000717818
0.000742185
0.000738966
0.000710458
0.000649678
0.000558743
0.000450711
0.000341294
0.000244363
0.000166133
0.000100294
3.00154e-05
3.53415e-05
0.000129569
0.000189803
0.000257704
0.000355845
0.000471983
0.00058172
0.000675649
0.000737741
0.000767248
0.00076194
0.000718499
0.000654952
0.000566095
0.000460573
0.000357275
0.000265552
0.000191299
0.000121718
2.57113e-05
2.90642e-05
0.000117855
0.000184943
0.000269095
0.000381639
0.000499335
0.000603744
0.000687787
0.00074876
0.00077843
0.000776173
0.000746596
0.00068092
0.000604589
0.000493832
0.000372718
0.00026588
0.000184566
0.000114784
3.15161e-05
2.72024e-05
0.000113538
0.000190816
0.000280703
0.00039594
0.000518428
0.000621931
0.000710534
0.000778351
0.000811013
0.000807776
0.000768151
0.000705744
0.000626931
0.000514859
0.000388378
0.000271681
0.000181589
0.000109864
2.58582e-05
2.30053e-05
0.00010753
0.000184179
0.000280365
0.000405744
0.000543789
0.000656227
0.000746056
0.000811742
0.000839003
0.00083783
0.000810226
0.000751517
0.000661717
0.000535337
0.000405899
0.000280371
0.000177913
0.000100982
2.29358e-05
1.98908e-05
9.5082e-05
0.00017832
0.000289831
0.000433361
0.000582343
0.000703117
0.000795113
0.000845532
0.000867395
0.000866553
0.000842431
0.000787517
0.000703121
0.000587222
0.000439953
0.000287813
0.000170192
9.0745e-05
1.97986e-05
1.89667e-05
8.63641e-05
0.000178719
0.000323783
0.000492249
0.000640882
0.000744777
0.00081733
0.000859692
0.000878497
0.00087844
0.000859649
0.000817684
0.000746245
0.000640787
0.000486598
0.000317855
0.00017579
8.46371e-05
1.88049e-05
2.03053e-05
9.04832e-05
0.000206209
0.000384554
0.000571378
0.000722398
0.000815716
0.000865642
0.000890313
0.000900176
0.000900294
0.000890829
0.000867297
0.000819595
0.000727292
0.000574377
0.000388782
0.000207449
9.03898e-05
2.01262e-05
2.48664e-05
0.0001196
0.000310707
0.000556411
0.000727831
0.00080118
0.00083204
0.000849691
0.000859072
0.000863013
0.000863279
0.000860268
0.000852953
0.000838279
0.000808027
0.000726084
0.000551845
0.000312523
0.000124493
2.50632e-05
2.41142e-05
0.000313376
0.000718466
0.000852316
0.000863336
0.000861505
0.000859397
0.000857749
0.000856992
0.000856729
0.000856855
0.000857171
0.000857577
0.000858684
0.000860122
0.000861297
0.000848247
0.000708956
0.000309616
2.42249e-05
5.41787e-05
0.000156288
0.000229393
0.000269771
0.000298472
0.000345155
0.000445819
0.000569936
0.00067499
0.000729882
0.000723035
0.00066271
0.000564579
0.000450834
0.000352636
0.000295805
0.00026061
0.000217098
0.000150915
5.8197e-05
5.6583e-05
0.000159198
0.000229742
0.000274461
0.000317387
0.000343477
0.000451988
0.000577864
0.000682106
0.000736667
0.00072931
0.00066949
0.000573887
0.00046198
0.00035592
0.000302122
0.000269386
0.000219058
0.000151139
6.19386e-05
5.59592e-05
0.000176478
0.000258829
0.000274916
0.000295711
0.000381196
0.000495149
0.000621999
0.000719057
0.000753345
0.000759654
0.000686148
0.000595726
0.000511899
0.000371159
0.000296382
0.000275958
0.00022747
0.000157759
7.06842e-05
6.19534e-05
0.000177764
0.000231733
0.000270011
0.000281823
0.000345786
0.000455494
0.000580812
0.000686074
0.000756923
0.00075019
0.000700713
0.000608474
0.000495577
0.000390024
0.000297799
0.00026736
0.000245645
0.000157433
5.8808e-05
6.38089e-05
0.000167763
0.000235436
0.000275978
0.000315187
0.000373158
0.000491074
0.000592674
0.000686727
0.000740192
0.00074019
0.000683614
0.000582881
0.00046266
0.000358529
0.000300751
0.000278337
0.00022748
0.000163057
6.3929e-05
7.31703e-05
0.000172135
0.000240609
0.000285708
0.000322211
0.000370968
0.000489794
0.000595142
0.000690249
0.000744415
0.000765815
0.000718879
0.000619532
0.000495573
0.000380731
0.000313823
0.000264273
0.000231685
0.000183379
7.31035e-05
6.64626e-05
0.000192189
0.000253926
0.000293199
0.000319076
0.00036217
0.000470189
0.000603653
0.000709332
0.00074041
0.000739078
0.000680824
0.000583093
0.000463294
0.000333654
0.000278153
0.000267373
0.000241546
0.000165382
5.95454e-05
5.89556e-05
0.00017325
0.000270381
0.000298865
0.000292794
0.000340824
0.000447771
0.000577939
0.000686532
0.000746586
0.000719
0.000654123
0.000554014
0.000444
0.000365733
0.000286595
0.000261148
0.000225214
0.000180266
7.12884e-05
6.35327e-05
0.00017818
0.000252569
0.000292639
0.000315297
0.000389772
0.000502414
0.000622382
0.000711489
0.000747008
0.000721291
0.000659297
0.000558221
0.000463614
0.0003807
0.000293441
0.000268248
0.000226246
0.000162509
6.40969e-05
6.44908e-05
0.000176608
0.000263073
0.00027032
0.000295009
0.00035005
0.00045693
0.000577364
0.000675248
0.000727893
0.000722237
0.000667768
0.000575443
0.000474172
0.000391501
0.000322015
0.000274884
0.000234681
0.000181668
7.39813e-05
7.01588e-05
0.000191855
0.000248702
0.000270759
0.000320513
0.000362001
0.000476839
0.000601394
0.000677725
0.000742306
0.000746189
0.000702147
0.000611156
0.000495939
0.000382436
0.000318659
0.000288081
0.000260472
0.000181365
6.28517e-05
5.99099e-05
0.000163068
0.000257969
0.000272087
0.000319527
0.000387798
0.000497888
0.000589952
0.000678755
0.000725438
0.000718908
0.000667831
0.000583402
0.000495391
0.000408871
0.00033526
0.000281932
0.000247804
0.000184946
7.41956e-05
6.48256e-05
0.000165999
0.000232703
0.000275811
0.000312278
0.000369617
0.000488009
0.000588346
0.000680517
0.00072687
0.000733631
0.000658141
0.000590363
0.000446185
0.000361609
0.00030405
0.000267112
0.000228059
0.000178757
6.29394e-05
7.46254e-05
0.000185311
0.000234264
0.000282301
0.000285048
0.000328275
0.000461362
0.000605326
0.00070839
0.000729734
0.000714177
0.00065225
0.000562951
0.000454503
0.000364291
0.000306588
0.000267252
0.000224501
0.000169497
5.66841e-05
6.48711e-05
0.000159269
0.000230156
0.000281202
0.000305318
0.000353924
0.00045856
0.000582143
0.000692239
0.000730508
0.000728725
0.000651533
0.000584693
0.000453071
0.000382353
0.000311327
0.000275781
0.000226425
0.000179254
5.54729e-05
5.84195e-05
0.000164128
0.000238836
0.000288167
0.000335531
0.000385622
0.000471649
0.000587637
0.000682677
0.000737829
0.000711748
0.000650112
0.000579706
0.000476914
0.000369008
0.000313341
0.000268872
0.00022584
0.000156253
5.68876e-05
6.96053e-05
0.000170737
0.000252207
0.000297914
0.000315288
0.000335341
0.000490605
0.000623188
0.000690093
0.000728616
0.000711675
0.000644447
0.000554841
0.000458626
0.000410238
0.000344102
0.000284422
0.000223397
0.000169698
5.64274e-05
6.73324e-05
0.000176845
0.000276447
0.000300064
0.000321203
0.000354881
0.000468384
0.000599195
0.000688425
0.000739617
0.000726377
0.000642247
0.000554779
0.000457215
0.000393249
0.00033176
0.000282988
0.000227087
0.000152111
6.51089e-05
7.09859e-05
0.000183432
0.000255214
0.000289447
0.000335773
0.000353885
0.000458707
0.000587239
0.000696723
0.000732517
0.000722928
0.000646193
0.000558409
0.000459547
0.00037643
0.000320003
0.000281961
0.000238998
0.000153381
5.47825e-05
7.18056e-05
0.000193217
0.000260548
0.000292886
0.000306972
0.000352203
0.000458355
0.000582486
0.000684328
0.000741443
0.000716363
0.000655472
0.000567806
0.000436889
0.000345718
0.000292939
0.000264576
0.000214997
0.00014783
5.7663e-05
6.59898e-05
0.00019111
0.000283465
0.000304987
0.000305172
0.000415003
0.00050068
0.000612578
0.000718513
0.000749606
0.000730069
0.000649388
0.000550664
0.000438043
0.000344116
0.000285584
0.000266417
0.000219883
0.000151864
5.75074e-05
5.72597e-05
0.000189141
0.000270403
0.000296843
0.000322886
0.000408752
0.000532806
0.000635514
0.000703527
0.000735062
0.000715944
0.000651245
0.000577931
0.000473509
0.00036583
0.00030233
0.000259409
0.000239898
0.000158725
6.4336e-05
5.89843e-05
0.00018455
0.000258674
0.000307641
0.000347266
0.000396069
0.000500315
0.000615627
0.000699321
0.000732394
0.000715536
0.000645534
0.000565034
0.000453279
0.000354985
0.000287755
0.000267959
0.000225137
0.000173436
7.58734e-05
5.83995e-05
0.000214577
0.000287779
0.000319666