/*--------------------------------*- C++ -*----------------------------------*\
  =========                 |
  \\      /  F ield         | OpenFOAM: The Open Source CFD Toolbox
   \\    /   O peration     | Website:  https://openfoam.org
    \\  /    A nd           | Version:  6
     \\/     M anipulation  |
\*---------------------------------------------------------------------------*/
FoamFile
{
    version     2.0;
    format      ascii;
    class       volScalarField;
    location    "4";
    object      p;
}
// * * * * * * * * * * * * * * * * * * * * * * * * * * * * * * * * * * * * * //

dimensions      [0 2 -2 0 0 0 0];

internalField   nonuniform List<scalar> 
130000
(
0.0101941
0.00966751
0.00903574
0.00834153
0.00763581
0.00692911
0.00624915
0.00560118
0.00500597
0.0044668
0.00398959
0.0035735
0.00320948
0.00289078
0.0026077
0.00234273
0.00208083
0.00180106
0.00147898
0.0011113
0.0286189
0.0274753
0.0261706
0.0248374
0.0234235
0.0220352
0.020666
0.0193748
0.0181695
0.0170671
0.0160768
0.0151838
0.0143984
0.0136919
0.0130596
0.0124711
0.0119157
0.0113463
0.0107696
0.010186
0.0421973
0.0412879
0.0400713
0.0388706
0.0375519
0.0362115
0.0348327
0.0334809
0.0321719
0.0309206
0.0297539
0.0286506
0.0276424
0.0266789
0.0258101
0.0249578
0.0241793
0.0233923
0.022672
0.0219762
0.0517332
0.0509396
0.049798
0.0486515
0.0473627
0.0459954
0.0445659
0.0431233
0.0417145
0.0403323
0.0390359
0.0377732
0.0366179
0.0354935
0.0344719
0.0334694
0.0325649
0.0316569
0.0308514
0.030057
0.0613777
0.0604624
0.0592544
0.0580766
0.0567656
0.0553349
0.0538402
0.0522994
0.0508007
0.0493046
0.0479066
0.0465244
0.0452624
0.0440066
0.042886
0.0417579
0.0407646
0.0397516
0.0388746
0.0379761
0.0709364
0.0697855
0.0684764
0.0672605
0.065937
0.0644611
0.0629286
0.0613184
0.0597641
0.0581857
0.056725
0.0552534
0.0539273
0.0525934
0.0514086
0.0502121
0.0491693
0.0480954
0.0471809
0.0462357
0.0795272
0.0784086
0.0770951
0.0758712
0.0745564
0.0730485
0.071503
0.0698457
0.0682668
0.0666357
0.0651425
0.0636166
0.0622528
0.0608531
0.0596337
0.0583714
0.0572926
0.0561589
0.0552074
0.0541892
0.0881943
0.0868248
0.0853531
0.0840266
0.0826662
0.0811041
0.0795381
0.0778456
0.076258
0.0745988
0.0731008
0.0715448
0.0701754
0.0687541
0.0675239
0.0662422
0.0651577
0.0640003
0.0630417
0.0619999
0.0962438
0.0945631
0.0928685
0.0914225
0.0899996
0.0883923
0.0868135
0.0851073
0.0835294
0.0818691
0.0803856
0.0788305
0.0774716
0.0760361
0.0748153
0.0735122
0.0724284
0.0712466
0.0702783
0.0691891
0.103205
0.101392
0.0996007
0.0980885
0.0966549
0.0950367
0.0934777
0.0917836
0.0902392
0.0885985
0.0871526
0.085613
0.0842888
0.0828724
0.081677
0.0803896
0.0793305
0.0781536
0.0772019
0.0761114
0.109346
0.107368
0.105495
0.103964
0.102559
0.100961
0.0994448
0.0977807
0.0962853
0.0946789
0.0932805
0.0917743
0.0904909
0.0890913
0.0879327
0.086652
0.0856178
0.084441
0.0834999
0.082384
0.114757
0.112717
0.110819
0.109296
0.10794
0.106376
0.104912
0.103285
0.101845
0.100278
0.0989366
0.0974667
0.096238
0.0948791
0.0937664
0.0925223
0.0915325
0.0903799
0.0894728
0.0883732
0.119574
0.117303
0.115326
0.113841
0.112563
0.111074
0.109689
0.108128
0.106758
0.10525
0.103972
0.102556
0.101384
0.100062
0.0990014
0.0977836
0.0968337
0.0956994
0.0948166
0.0937091
0.122739
0.120636
0.118825
0.117548
0.116465
0.115137
0.113889
0.112436
0.111164
0.109735
0.108537
0.107181
0.106079
0.104816
0.103814
0.102648
0.101754
0.100658
0.0998192
0.0987407
0.124592
0.122857
0.121365
0.120392
0.119583
0.118468
0.117399
0.116083
0.114932
0.113599
0.11249
0.111211
0.110179
0.108969
0.108029
0.106904
0.106056
0.104993
0.104183
0.103112
0.125905
0.124504
0.123324
0.122674
0.122151
0.12127
0.120394
0.119232
0.118212
0.116986
0.115975
0.114775
0.113822
0.112682
0.111805
0.11074
0.10995
0.10893
0.108163
0.107126
0.126631
0.125607
0.124724
0.124388
0.124137
0.123493
0.122804
0.121802
0.12091
0.119799
0.118881
0.117771
0.116888
0.115813
0.114993
0.113977
0.113228
0.112247
0.111501
0.110477
0.12745
0.12654
0.125821
0.125754
0.125742
0.125323
0.124809
0.123963
0.123191
0.122191
0.121361
0.120332
0.119517
0.11851
0.117742
0.11678
0.116073
0.11513
0.11441
0.113413
0.127392
0.126853
0.126426
0.126662
0.126904
0.126704
0.126355
0.125655
0.124991
0.124094
0.123338
0.122389
0.121625
0.120675
0.119941
0.119022
0.118334
0.117421
0.116699
0.11571
0.127481
0.127159
0.126943
0.127421
0.127872
0.12785
0.127636
0.127054
0.126477
0.125665
0.124967
0.124077
0.123353
0.122448
0.121738
0.120851
0.120177
0.119278
0.11855
0.117562
0.127678
0.127471
0.127382
0.128035
0.12864
0.128757
0.12864
0.128155
0.127637
0.126893
0.126228
0.125388
0.124675
0.123803
0.123091
0.122224
0.121532
0.120642
0.119875
0.118875
0.128257
0.127993
0.12789
0.128662
0.129358
0.129586
0.129529
0.129113
0.128623
0.127921
0.127264
0.126446
0.125728
0.124865
0.124135
0.123264
0.122546
0.121636
0.12082
0.119784
0.128675
0.128477
0.128407
0.129284
0.130048
0.130356
0.130327
0.129955
0.129464
0.128785
0.128107
0.127301
0.126548
0.125685
0.12491
0.124031
0.123255
0.122327
0.121433
0.120362
0.129357
0.129164
0.129082
0.130023
0.130822
0.131174
0.131145
0.130789
0.130274
0.129593
0.128879
0.128056
0.127258
0.126369
0.125539
0.124625
0.123786
0.122807
0.121826
0.120685
0.130413
0.130093
0.129937
0.130894
0.131696
0.132072
0.132024
0.131673
0.13112
0.13043
0.129664
0.128826
0.127962
0.12705
0.126147
0.125206
0.124283
0.12327
0.122183
0.120994
0.131715
0.131293
0.13102
0.131991
0.132774
0.133161
0.133079
0.132714
0.132112
0.131395
0.13057
0.129694
0.128766
0.127809
0.126835
0.12584
0.124838
0.123758
0.122569
0.121294
0.133462
0.132901
0.132529
0.133469
0.134217
0.134581
0.134448
0.134051
0.133386
0.132634
0.13174
0.130829
0.129824
0.128829
0.127773
0.126742
0.125649
0.124529
0.123232
0.121906
0.135509
0.134885
0.134438
0.135351
0.136064
0.136388
0.136197
0.135746
0.135014
0.134206
0.133242
0.132273
0.131197
0.130145
0.129015
0.127925
0.126757
0.125569
0.124178
0.12277
0.138314
0.137474
0.136898
0.137735
0.138393
0.138655
0.138397
0.137882
0.137076
0.136209
0.135169
0.134147
0.132993
0.131892
0.130684
0.129551
0.128302
0.127073
0.125589
0.124132
0.141473
0.140477
0.139777
0.140557
0.141162
0.141365
0.141039
0.140455
0.139575
0.138639
0.137527
0.136439
0.135218
0.134058
0.132785
0.131595
0.130284
0.128995
0.127438
0.125913
0.145156
0.143965
0.143133
0.143841
0.144388
0.144526
0.144128
0.143472
0.142516
0.141514
0.140329
0.139184
0.137892
0.13668
0.135341
0.134106
0.132729
0.131399
0.129769
0.128198
0.149246
0.14789
0.146923
0.147567
0.148054
0.148126
0.147656
0.146926
0.145897
0.144824
0.143572
0.142363
0.141011
0.139743
0.138349
0.137064
0.135638
0.134258
0.132574
0.13095
0.153775
0.152208
0.151104
0.151665
0.152092
0.152093
0.151553
0.15075
0.14965
0.148512
0.147194
0.145929
0.144516
0.143197
0.141747
0.140419
0.13894
0.137524
0.135781
0.134113
0.158544
0.156808
0.155582
0.156084
0.156463
0.156405
0.155803
0.154933
0.15377
0.152566
0.151191
0.149865
0.148402
0.147033
0.145539
0.144168
0.142652
0.141192
0.139408
0.137694
0.163579
0.161665
0.160325
0.160764
0.161103
0.160987
0.160331
0.159396
0.158174
0.15691
0.155479
0.154103
0.152587
0.151171
0.149631
0.148219
0.146659
0.145163
0.143327
0.141569
0.168872
0.166801
0.165347
0.165734
0.166034
0.165865
0.165157
0.164159
0.162882
0.161556
0.160075
0.158642
0.157084
0.155623
0.154044
0.152593
0.151
0.149462
0.147588
0.145785
0.174434
0.172164
0.170594
0.170913
0.171175
0.170948
0.170191
0.16913
0.167802
0.166421
0.16489
0.16341
0.161805
0.160298
0.158677
0.157185
0.155548
0.153975
0.152052
0.1502
0.180083
0.177661
0.17599
0.176268
0.176506
0.176236
0.175439
0.174324
0.172951
0.171516
0.169943
0.168411
0.166768
0.165218
0.163561
0.16203
0.160363
0.158748
0.156787
0.154887
0.185868
0.183277
0.181512
0.181746
0.181965
0.181655
0.180823
0.179658
0.178244
0.17676
0.175147
0.173572
0.171889
0.170295
0.168601
0.167031
0.165323
0.16367
0.161658
0.159706
0.191772
0.189033
0.187171
0.187373
0.187578
0.187235
0.186374
0.185165
0.183715
0.182186
0.180539
0.178919
0.177205
0.175572
0.173847
0.172239
0.170502
0.168805
0.166755
0.16475
0.197786
0.19486
0.192904
0.193066
0.193262
0.192889
0.192005
0.190758
0.18928
0.187714
0.186037
0.184384
0.182638
0.180967
0.179209
0.177562
0.175786
0.174049
0.171948
0.169883
0.203732
0.200676
0.198648
0.198806
0.199015
0.198634
0.197744
0.196473
0.194979
0.193383
0.191689
0.190001
0.188235
0.186534
0.18475
0.183071
0.181268
0.179487
0.177346
0.175225
0.209652
0.206468
0.204393
0.204554
0.204793
0.204415
0.203533
0.202248
0.20075
0.199135
0.197428
0.19572
0.193934
0.192203
0.190395
0.18868
0.186842
0.18502
0.182827
0.180641
0.215584
0.212305
0.210192
0.210381
0.210664
0.210305
0.209442
0.208156
0.206662
0.205036
0.203327
0.201598
0.199805
0.198052
0.196227
0.194484
0.192623
0.190758
0.188525
0.186279
0.221546
0.218153
0.216022
0.216242
0.216584
0.216253
0.215422
0.214143
0.212664
0.211037
0.209331
0.207597
0.205795
0.204022
0.20218
0.200407
0.198513
0.196609
0.194322
0.192007
0.227466
0.224009
0.221883
0.222175
0.222601
0.222325
0.221543
0.22029
0.218837
0.217218
0.215528
0.213788
0.211992
0.210207
0.208356
0.206561
0.204648
0.202702
0.200375
0.197996
0.233396
0.229885
0.227789
0.228167
0.228697
0.228492
0.227773
0.226557
0.225143
0.223545
0.221874
0.220145
0.218352
0.216558
0.214698
0.212879
0.210937
0.208952
0.206571
0.204119
0.23945
0.235898
0.233833
0.234322
0.23497
0.234854
0.234212
0.233047
0.231681
0.230111
0.228473
0.226754
0.224979
0.223185
0.221324
0.219488
0.217531
0.215505
0.213083
0.210563
0.245585
0.241998
0.239989
0.240602
0.241386
0.241374
0.240822
0.239721
0.238414
0.236888
0.235287
0.233595
0.231836
0.230046
0.228183
0.226331
0.224347
0.222285
0.219806
0.217211
0.251821
0.248231
0.2463
0.247078
0.248025
0.248146
0.247704
0.246688
0.245454
0.243981
0.242432
0.240768
0.239041
0.237262
0.235407
0.233545
0.231549
0.229448
0.226925
0.224258
0.258167
0.254608
0.252792
0.253756
0.25489
0.255162
0.254845
0.253928
0.25278
0.251376
0.249883
0.248266
0.246569
0.244807
0.242958
0.241087
0.239066
0.23693
0.234348
0.231601
0.264822
0.261304
0.259604
0.260779
0.262114
0.262557
0.26238
0.261577
0.260525
0.259198
0.257775
0.256203
0.25455
0.252812
0.250977
0.249102
0.24707
0.244894
0.242264
0.239438
0.271775
0.2683
0.266744
0.268142
0.269699
0.270327
0.270304
0.269627
0.268683
0.267447
0.266096
0.264588
0.262975
0.261264
0.259441
0.257562
0.255504
0.253294
0.250597
0.247686
0.279121
0.275715
0.274315
0.275972
0.277772
0.278608
0.278755
0.278219
0.277392
0.276254
0.274986
0.273539
0.271979
0.2703
0.268495
0.266614
0.264543
0.262289
0.259536
0.256535
0.28692
0.283592
0.282374
0.284302
0.286361
0.287419
0.287746
0.287362
0.286661
0.285632
0.28445
0.283079
0.281566
0.279924
0.27813
0.276248
0.274146
0.271855
0.269024
0.265927
0.295351
0.292103
0.291061
0.293281
0.295611
0.296906
0.297422
0.2972
0.296631
0.295716
0.294628
0.293328
0.291874
0.290268
0.288493
0.286606
0.284486
0.282142
0.279243
0.27604
0.304452
0.301264
0.300414
0.302929
0.305542
0.307083
0.307798
0.307748
0.307319
0.306529
0.305535
0.304322
0.302919
0.301354
0.299588
0.297699
0.295539
0.293149
0.290157
0.286844
0.314259
0.311164
0.310513
0.313359
0.316275
0.318083
0.31901
0.319144
0.318863
0.318201
0.317312
0.316179
0.314839
0.313311
0.31156
0.309661
0.307471
0.305015
0.301937
0.298496
0.3249
0.321879
0.32145
0.32463
0.327864
0.329948
0.331098
0.331425
0.331299
0.330777
0.329991
0.328953
0.327665
0.326179
0.324432
0.322524
0.320281
0.317766
0.314573
0.311
0.336467
0.333542
0.333335
0.336878
0.340445
0.342822
0.344204
0.344733
0.344769
0.344387
0.343712
0.342759
0.341534
0.340084
0.338344
0.336415
0.334126
0.331526
0.328222
0.324491
0.3491
0.346224
0.346252
0.350159
0.354073
0.356753
0.358376
0.359116
0.359319
0.359088
0.358522
0.35767
0.356495
0.355085
0.353338
0.351389
0.349027
0.346347
0.3429
0.339007
0.362774
0.359993
0.36027
0.364581
0.368865
0.37187
0.373749
0.37471
0.375088
0.375009
0.37456
0.373796
0.372681
0.371299
0.369548
0.36756
0.36513
0.362338
0.358747
0.354657
0.377723
0.374984
0.375518
0.380235
0.384903
0.388244
0.390388
0.391581
0.392139
0.392223
0.391887
0.391226
0.390157
0.388809
0.387034
0.38501
0.382479
0.37958
0.375808
0.371514
0.393925
0.391264
0.392063
0.397225
0.4023
0.405999
0.408421
0.409857
0.410603
0.41085
0.410637
0.410066
0.409052
0.407722
0.405926
0.403841
0.401212
0.398165
0.394206
0.389664
0.411618
0.408959
0.410028
0.415637
0.421137
0.425208
0.427923
0.429614
0.430557
0.430981
0.430887
0.430423
0.429448
0.428143
0.426304
0.424159
0.421396
0.418203
0.414015
0.409214
0.430669
0.42808
0.429446
0.435557
0.441516
0.445991
0.449019
0.450982
0.452133
0.452737
0.452772
0.452401
0.451475
0.450175
0.448293
0.446057
0.443157
0.439771
0.435341
0.430227
0.451427
0.448828
0.4505
0.457118
0.46356
0.468456
0.471815
0.474064
0.475434
0.476231
0.476393
0.47613
0.475236
0.473947
0.471996
0.469668
0.46659
0.463007
0.458286
0.452842
0.473807
0.471246
0.473246
0.480423
0.487384
0.492733
0.496444
0.498995
0.500596
0.501589
0.501888
0.501719
0.500864
0.499562
0.497539
0.495081
0.491816
0.48798
0.482946
0.477103
0.498162
0.495536
0.497866
0.505612
0.513118
0.518942
0.523024
0.525895
0.52774
0.528944
0.529378
0.529317
0.528483
0.527171
0.525046
0.522452
0.518951
0.514852
0.509446
0.503179
0.52435
0.521719
0.524406
0.532782
0.540877
0.547214
0.551695
0.554905
0.557008
0.558426
0.559005
0.559036
0.558227
0.556878
0.554642
0.551866
0.548113
0.543682
0.537872
0.531096
0.55281
0.550051
0.553092
0.562105
0.570819
0.577692
0.582594
0.586163
0.588537
0.590185
0.590907
0.591044
0.59024
0.588851
0.586469
0.583499
0.579436
0.574653
0.568367
0.561043
0.583411
0.580552
0.583963
0.593673
0.603051
0.610501
0.615855
0.619804
0.622468
0.624351
0.625228
0.625453
0.624657
0.623197
0.620654
0.617436
0.613035
0.607817
0.601007
0.593032
0.616571
0.613463
0.617234
0.627652
0.637729
0.645789
0.651623
0.655978
0.65895
0.661087
0.662119
0.662446
0.661635
0.660098
0.657351
0.653862
0.649053
0.643367
0.635945
0.627259
0.652122
0.648796
0.652947
0.664142
0.674974
0.68369
0.690043
0.69483
0.698132
0.70053
0.701728
0.702138
0.70131
0.699658
0.696684
0.692857
0.687599
0.681343
0.67324
0.663712
0.690586
0.686857
0.691366
0.703342
0.714969
0.724373
0.731275
0.736521
0.740172
0.742849
0.744213
0.744715
0.743844
0.742061
0.738809
0.734605
0.728811
0.721927
0.713028
0.702566
0.731848
0.727673
0.732534
0.745348
0.757823
0.767964
0.775454
0.781185
0.785209
0.788171
0.789712
0.790284
0.789362
0.787401
0.783832
0.779168
0.772771
0.765131
0.755333
0.743767
0.776355
0.771519
0.776691
0.79035
0.803712
0.814625
0.822736
0.828979
0.833394
0.836659
0.838371
0.839016
0.838006
0.835836
0.831879
0.826691
0.819573
0.811081
0.800227
0.787415
0.824145
0.818535
0.823973
0.838509
0.852795
0.864514
0.873272
0.880046
0.884865
0.88843
0.890313
0.890995
0.889872
0.887424
0.883011
0.877181
0.869234
0.859716
0.847656
0.833391
0.875784
0.86908
0.874679
0.890051
0.905269
0.917798
0.927215
0.934523
0.93975
0.943612
0.945644
0.946343
0.945045
0.942255
0.937278
0.930694
0.921755
0.911068
0.897624
0.881773
0.931375
0.923321
0.92895
0.945133
0.961276
0.974616
0.984688
0.992522
0.998145
1.00228
1.00443
1.00508
1.00355
1.00031
0.994659
0.987164
0.977096
0.965081
0.950174
0.932666
0.991531
0.981676
0.987135
1.00402
1.02103
1.03513
1.04582
1.05415
1.06013
1.06449
1.06671
1.06725
1.06537
1.06157
1.05509
1.04656
1.03524
1.02187
1.00553
0.986301
1.05673
1.0446
1.0496
1.06703
1.08479
1.09955
1.11076
1.11949
1.12575
1.13025
1.13244
1.13275
1.13041
1.1259
1.11848
1.1088
1.09625
1.0816
1.06367
1.04203
1.12792
1.11276
1.11687
1.13453
1.15281
1.16802
1.17958
1.18855
1.19496
1.19948
1.20151
1.20145
1.1985
1.19314
1.18472
1.17398
1.16027
1.14402
1.12367
1.09892
1.20593
1.18683
1.18945
1.20689
1.22533
1.24065
1.25227
1.26124
1.26759
1.27193
1.27362
1.27302
1.26934
1.2631
1.25376
1.24199
1.22667
1.20789
1.18448
1.1563
1.29195
1.26766
1.26793
1.28448
1.30248
1.31739
1.32862
1.3372
1.34317
1.34707
1.34822
1.34694
1.34247
1.33547
1.32524
1.31185
1.29391
1.27203
1.24531
1.2133
1.38748
1.35632
1.35298
1.36764
1.38431
1.398
1.40816
1.41578
1.42093
1.42405
1.42444
1.42237
1.41725
1.40954
1.39782
1.38182
1.36073
1.33541
1.30491
1.26842
1.49401
1.45369
1.44505
1.45636
1.47046
1.48181
1.48995
1.49586
1.49961
1.50155
1.50098
1.4982
1.49255
1.48354
1.4693
1.45011
1.42546
1.39609
1.36106
1.31926
1.61291
1.56043
1.54424
1.5504
1.56036
1.56801
1.573
1.5763
1.57804
1.57844
1.57685
1.57352
1.56681
1.55532
1.53786
1.51494
1.48594
1.45148
1.41082
1.3625
1.74488
1.67656
1.65021
1.64925
1.6535
1.65612
1.65692
1.65683
1.65607
1.65474
1.6523
1.6479
1.63875
1.62383
1.60242
1.57461
1.53971
1.49839
1.45023
1.39354
1.88978
1.80134
1.7623
1.75283
1.75055
1.74764
1.74394
1.74031
1.73705
1.7341
1.73047
1.72369
1.71092
1.69158
1.66457
1.62958
1.58599
1.53457
1.47561
1.40729
2.04396
1.93165
1.87903
1.86189
1.85473
1.84804
1.8415
1.83573
1.83103
1.82715
1.82164
1.81111
1.79348
1.76752
1.73171
1.68524
1.62772
1.56038
1.48457
1.3986
2.19822
2.06066
1.99796
1.97924
1.97393
1.96973
1.96551
1.96156
1.95814
1.95427
1.94648
1.93116
1.90652
1.87012
1.82002
1.75491
1.67487
1.58163
1.47809
1.36333
2.33008
2.17386
2.11433
2.10983
2.12144
2.13244
2.14028
2.14494
2.14706
2.14452
2.13408
2.11251
2.07718
2.0244
1.95199
1.85777
1.7421
1.60689
1.45743
1.29524
2.3987
2.24573
2.21909
2.25778
2.31037
2.35434
2.38593
2.40612
2.41706
2.41681
2.40292
2.37214
2.32116
2.24458
2.13963
2.00243
1.83336
1.63419
1.41353
1.17685
2.33501
2.23917
2.29823
2.42021
2.53965
2.62915
2.68698
2.71924
2.73311
2.72989
2.70883
2.66541
2.59511
2.48918
2.34269
2.14805
1.90513
1.61537
1.29205
0.946274
2.10761
2.18058
2.40292
2.64132
2.82858
2.94536
3.00341
3.02041
3.01221
2.98515
2.94062
2.87269
2.7742
2.63156
2.4348
2.16902
1.83046
1.41948
0.955387
0.456977
1.90448
2.32551
2.75847
3.06638
3.24476
3.31461
3.31271
3.26958
3.20316
3.12017
3.02135
2.90133
2.75017
2.54953
2.27888
1.91418
1.44353
0.865874
0.205735
-0.507016
2.08984
3.01129
3.54169
3.74657
3.801
3.7725
3.69943
3.59356
3.45829
3.29634
3.10994
2.89492
2.64155
2.3291
1.9339
1.42524
0.784233
-0.00760916
-0.937728
-1.98223
2.55748
4.13367
4.72089
4.95403
5.05599
5.05431
4.96527
4.81497
4.61155
4.36829
4.08613
3.76573
3.38462
2.91364
2.29498
1.49216
0.479458
-0.716731
-2.09641
-3.82756
1.11795
5.09272
6.40552
6.86442
6.91599
6.73826
6.46693
6.17445
5.87441
5.57302
5.26703
4.95538
4.62358
4.23337
3.68669
2.87281
1.63339
-0.0959047
-2.48271
-5.87441
0.00119349
0.00118245
0.00127516
0.00123624
0.00113322
0.000988551
0.00084621
0.000701988
0.000580545
0.00047141
0.000390061
0.000324017
0.000280155
0.000240353
0.000210495
0.000159021
7.97404e-05
-6.98431e-05
-0.000310686
-0.000643131
0.0132138
0.0130566
0.0130181
0.0128598
0.0125923
0.0123056
0.0120029
0.011729
0.0114711
0.0112527
0.0110596
0.0109018
0.0107667
0.0106581
0.0105469
0.0104319
0.0102683
0.0100303
0.00968927
0.00932597
0.0293985
0.0293329
0.029121
0.0289246
0.0286222
0.0283476
0.0280243
0.0277498
0.0274488
0.0271967
0.0269265
0.0266983
0.0264523
0.0262305
0.0259904
0.0257506
0.0254691
0.0251615
0.0248007
0.0244925
0.0391602
0.0390581
0.0387574
0.0385288
0.0381727
0.0378781
0.0375066
0.0372044
0.0368474
0.0365526
0.0362154
0.035929
0.0356082
0.0353327
0.0350191
0.0347422
0.0344249
0.0341249
0.0337864
0.033514
0.0492383
0.0490796
0.0486918
0.0484207
0.0479975
0.047666
0.0472331
0.0468951
0.046479
0.0461475
0.0457522
0.04543
0.0450548
0.0447372
0.0443849
0.0440798
0.0437433
0.0434462
0.0431125
0.0428555
0.0597168
0.0594679
0.0589776
0.0586532
0.058156
0.0577795
0.0572833
0.0569049
0.0564333
0.0560649
0.0556221
0.0552668
0.054854
0.0545237
0.0541449
0.0538459
0.0535088
0.0532337
0.0529178
0.0527032
0.0701376
0.0698234
0.069242
0.0688638
0.0682944
0.0678724
0.0673146
0.0668982
0.0663745
0.0659747
0.065488
0.0651089
0.0646614
0.0643051
0.0639085
0.0635942
0.0632497
0.0629761
0.0626588
0.062443
0.0805255
0.0801296
0.0794527
0.0790206
0.0783815
0.0779144
0.0772993
0.0768446
0.0762734
0.0758407
0.0753156
0.0749088
0.074433
0.0740694
0.0736526
0.0733454
0.0729985
0.0727374
0.0724251
0.0722313
0.0906718
0.0902187
0.0894569
0.0889706
0.0882633
0.0877501
0.087078
0.0865852
0.0859663
0.0855017
0.0849365
0.0845047
0.0839968
0.0836035
0.0831684
0.0828372
0.082476
0.0821992
0.0818694
0.0816483
0.100877
0.100347
0.0994972
0.0989581
0.0981852
0.097627
0.0969002
0.0963678
0.0957023
0.0952021
0.094598
0.0941343
0.0935954
0.0931883
0.0927271
0.092393
0.0920189
0.0917397
0.0913988
0.0911802
0.110955
0.110381
0.109455
0.108867
0.10803
0.107426
0.106643
0.106071
0.105357
0.104821
0.104174
0.103679
0.103102
0.102655
0.102167
0.101795
0.101395
0.101083
0.100711
0.100445
0.121205
0.120566
0.119565
0.118929
0.118032
0.117384
0.116549
0.115937
0.115176
0.114603
0.113913
0.113381
0.112766
0.112296
0.111772
0.111385
0.110961
0.110634
0.11024
0.109961
0.131357
0.130701
0.129642
0.128971
0.128019
0.127334
0.126449
0.1258
0.124992
0.124382
0.123646
0.123076
0.122417
0.121898
0.121335
0.120896
0.120432
0.120058
0.119617
0.119274
0.141705
0.141005
0.139892
0.139187
0.138188
0.137468
0.136538
0.135853
0.134999
0.134349
0.133568
0.132954
0.132249
0.131695
0.131086
0.130616
0.130113
0.129705
0.129227
0.128855
0.151877
0.151191
0.150049
0.149327
0.148288
0.147538
0.146563
0.145844
0.144944
0.144255
0.143424
0.142768
0.142011
0.141402
0.140742
0.140212
0.139656
0.139188
0.138651
0.138203
0.162157
0.161451
0.16028
0.159532
0.158458
0.157674
0.156658
0.155899
0.154955
0.154222
0.153344
0.152638
0.151832
0.151178
0.150467
0.149894
0.149292
0.148778
0.148194
0.1477
0.17209
0.171416
0.170244
0.169488
0.16839
0.167577
0.166526
0.165733
0.164749
0.163975
0.16305
0.1623
0.161442
0.160732
0.159969
0.159336
0.158678
0.158103
0.157453
0.156881
0.181806
0.181159
0.180004
0.179248
0.178141
0.177307
0.176234
0.17541
0.174394
0.17358
0.172617
0.171818
0.170917
0.170159
0.169347
0.168665
0.167959
0.167328
0.166626
0.165994
0.190978
0.190414
0.189308
0.188577
0.187478
0.186636
0.185551
0.184704
0.183664
0.182818
0.18182
0.180981
0.180035
0.179226
0.178363
0.177623
0.176858
0.176168
0.175397
0.174688
0.199806
0.199306
0.198254
0.197544
0.196461
0.195608
0.194519
0.19365
0.192594
0.191716
0.190693
0.189811
0.188832
0.187976
0.187072
0.186282
0.185473
0.184724
0.183898
0.18312
0.208061
0.207649
0.206672
0.205992
0.204937
0.204083
0.203
0.202116
0.201054
0.200153
0.19911
0.198199
0.197187
0.196293
0.195348
0.194514
0.193652
0.192852
0.191957
0.191106
0.215807
0.215495
0.214613
0.213974
0.212964
0.212117
0.211055
0.210165
0.209107
0.208187
0.207136
0.206194
0.205162
0.20423
0.203253
0.202373
0.201472
0.200612
0.199658
0.19873
0.223045
0.222854
0.222082
0.221498
0.220544
0.219715
0.218683
0.217797
0.216753
0.215827
0.214771
0.213813
0.21276
0.2118
0.210788
0.209874
0.208921
0.208017
0.206994
0.206
0.229951
0.229881
0.229223
0.228692
0.227799
0.226989
0.225995
0.225117
0.224094
0.223164
0.222113
0.221135
0.220071
0.21908
0.218042
0.217085
0.216095
0.215131
0.214047
0.212971
0.23666
0.236698
0.236154
0.235674
0.234845
0.234058
0.233106
0.23224
0.231243
0.230315
0.229269
0.228285
0.227207
0.226198
0.225131
0.224148
0.223109
0.222111
0.220958
0.219822
0.243255
0.243417
0.242993
0.24257
0.241811
0.241049
0.240141
0.239288
0.238318
0.237391
0.236358
0.235361
0.23428
0.233247
0.23216
0.231141
0.23007
0.229018
0.227805
0.226591
0.249992
0.250254
0.249942
0.24957
0.248877
0.248138
0.247275
0.246436
0.245494
0.244573
0.243551
0.242551
0.241462
0.240416
0.239306
0.238267
0.237155
0.236074
0.2348
0.233533
0.256925
0.257301
0.257096
0.256776
0.256147
0.255432
0.254612
0.253786
0.252875
0.251956
0.25095
0.249939
0.248852
0.247788
0.246665
0.245597
0.244462
0.243335
0.242013
0.240677
0.264272
0.264731
0.264618
0.264337
0.263764
0.263067
0.262288
0.261473
0.260591
0.259678
0.258686
0.257675
0.256586
0.255509
0.254373
0.253286
0.252121
0.250969
0.249598
0.248212
0.27201
0.272561
0.272536
0.272297
0.271777
0.271098
0.270359
0.269556
0.268702
0.267793
0.26682
0.265802
0.264722
0.263634
0.262494
0.261388
0.260211
0.259023
0.25762
0.256181
0.280246
0.280866
0.280916
0.280709
0.280238
0.279575
0.278871
0.278079
0.277254
0.276352
0.275395
0.27438
0.273305
0.272208
0.271064
0.269943
0.268748
0.26754
0.266103
0.264621
0.288949
0.289645
0.289767
0.2896
0.289176
0.288534
0.287868
0.287091
0.286296
0.285401
0.284467
0.28345
0.282391
0.28129
0.280151
0.279019
0.277824
0.276594
0.275142
0.273622
0.298113
0.298876
0.299065
0.298932
0.298554
0.297932
0.297304
0.296544
0.29578
0.294899
0.293988
0.292981
0.291933
0.290831
0.289697
0.288559
0.287358
0.286116
0.284641
0.283086
0.30771
0.308547
0.308804
0.308715
0.308387
0.307793
0.307206
0.306469
0.305742
0.304878
0.303997
0.302999
0.301975
0.300882
0.299764
0.298628
0.297438
0.296185
0.294707
0.293128
0.31766
0.318575
0.318903
0.318863
0.318588
0.318028
0.317486
0.31678
0.316092
0.315254
0.314405
0.313431
0.312429
0.311347
0.310245
0.309112
0.307924
0.306668
0.305176
0.303569
0.327955
0.328957
0.329363
0.329386
0.329174
0.328661
0.328173
0.327506
0.326865
0.326061
0.325253
0.324302
0.323336
0.322275
0.321196
0.320076
0.318908
0.317653
0.316165
0.314545
0.338484
0.339584
0.340079
0.340174
0.340035
0.339579
0.339154
0.338538
0.337953
0.337192
0.336429
0.335515
0.334581
0.333543
0.332489
0.331386
0.33023
0.328984
0.327491
0.325851
0.349274
0.350483
0.351077
0.35126
0.351206
0.350821
0.350469
0.349915
0.349394
0.348684
0.347977
0.347103
0.346217
0.345216
0.344199
0.343125
0.341998
0.340765
0.339283
0.337637
0.36022
0.361555
0.362263
0.362547
0.36259
0.362287
0.36202
0.361538
0.36109
0.360446
0.359801
0.358984
0.358148
0.357188
0.356211
0.355165
0.35406
0.352845
0.351364
0.349706
0.371376
0.37285
0.373686
0.374088
0.374244
0.374041
0.373871
0.373476
0.373115
0.372545
0.371974
0.371217
0.370445
0.369538
0.36861
0.367604
0.366538
0.365344
0.36388
0.362222
0.382654
0.384288
0.38527
0.385806
0.386089
0.385999
0.385941
0.385646
0.385383
0.384901
0.384413
0.383733
0.383025
0.382175
0.381298
0.380333
0.379298
0.378131
0.376673
0.375007
0.394134
0.395944
0.397086
0.397777
0.398205
0.398246
0.398314
0.398134
0.397981
0.397597
0.397204
0.396604
0.395977
0.395196
0.394381
0.393469
0.392482
0.391344
0.389908
0.388244
0.405754
0.407763
0.409087
0.409949
0.410536
0.410723
0.41093
0.410879
0.410849
0.410578
0.410288
0.409786
0.409241
0.408533
0.407782
0.406923
0.405976
0.404873
0.403448
0.401779
0.417619
0.419844
0.421366
0.422419
0.423183
0.423535
0.423897
0.42399
0.424095
0.423948
0.423775
0.423373
0.422926
0.422304
0.421628
0.420833
0.419943
0.418875
0.417477
0.415812
0.429682
0.432148
0.433889
0.435151
0.436111
0.436642
0.437175
0.437427
0.43768
0.437672
0.437623
0.437341
0.436993
0.436461
0.435862
0.435132
0.434289
0.433263
0.431879
0.430211
0.442064
0.44479
0.446768
0.448263
0.449436
0.450168
0.450888
0.451315
0.45173
0.451871
0.451961
0.4518
0.451569
0.451137
0.450626
0.449971
0.449192
0.448206
0.446851
0.445187
0.454738
0.457752
0.459991
0.461738
0.463143
0.464092
0.465014
0.465632
0.466222
0.466529
0.466766
0.466745
0.46663
0.466305
0.465882
0.465303
0.464578
0.46364
0.4623
0.460632
0.46784
0.471161
0.473681
0.475704
0.477362
0.478549
0.479691
0.480515
0.481295
0.481777
0.482176
0.482298
0.482315
0.482107
0.481782
0.481287
0.480632
0.479738
0.478427
0.47676
0.481355
0.485014
0.48784
0.49016
0.49209
0.493534
0.494912
0.49596
0.496944
0.497619
0.498186
0.49847
0.49862
0.498534
0.498308
0.497899
0.497302
0.496459
0.495162
0.493489
0.495426
0.499446
0.5026
0.505243
0.507467
0.50919
0.510822
0.512112
0.513313
0.514191
0.514943
0.51539
0.515689
0.515733
0.515617
0.515299
0.514774
0.513977
0.512706
0.511027
0.510055
0.514468
0.517977
0.520967
0.523506
0.525528
0.527433
0.528981
0.530416
0.531515
0.532457
0.533089
0.533536
0.533718
0.533708
0.533484
0.53302
0.532275
0.531013
0.529322
0.525385
0.530218
0.534107
0.537473
0.540351
0.542695
0.544892
0.546717
0.5484
0.549731
0.55088
0.551697
0.552308
0.552634
0.552742
0.552614
0.552224
0.551521
0.550278
0.548571
0.541434
0.546723
0.551022
0.554789
0.55803
0.560719
0.563227
0.565349
0.567296
0.568878
0.570242
0.571264
0.572038
0.572515
0.572737
0.57271
0.572378
0.571726
0.570483
0.568755
0.558346
0.564122
0.56886
0.573059
0.57669
0.579749
0.58259
0.585028
0.587255
0.589099
0.590693
0.591921
0.592875
0.593507
0.593853
0.593924
0.593664
0.593049
0.591813
0.590051
0.576154
0.582455
0.587667
0.592328
0.596374
0.599829
0.603025
0.6058
0.608325
0.610451
0.612283
0.613739
0.614871
0.615667
0.616131
0.616306
0.616099
0.615528
0.614278
0.612478
0.594999
0.601863
0.607581
0.61274
0.617232
0.62111
0.624684
0.627818
0.630658
0.633079
0.635167
0.636849
0.638175
0.639136
0.639728
0.64
0.639858
0.639312
0.638053
0.636196
0.61493
0.622403
0.628665
0.634356
0.639324
0.643655
0.647632
0.651148
0.654323
0.65706
0.659411
0.661344
0.66286
0.663998
0.66471
0.665085
0.664987
0.664473
0.663178
0.661259
0.636087
0.644211
0.651059
0.65732
0.6628
0.667614
0.672021
0.675944
0.679474
0.682539
0.685173
0.687354
0.689079
0.690389
0.69123
0.691698
0.691652
0.691145
0.689816
0.687807
0.658534
0.667362
0.674839
0.681712
0.687739
0.693071
0.697937
0.702292
0.706199
0.709617
0.712542
0.714996
0.716925
0.71842
0.719379
0.719944
0.719927
0.719433
0.718039
0.715933
0.682408
0.691993
0.700146
0.707679
0.714292
0.720178
0.725535
0.730351
0.734656
0.738442
0.741677
0.744403
0.746553
0.748227
0.749313
0.74996
0.749976
0.749463
0.748
0.745761
0.70779
0.718193
0.727077
0.735316
0.742559
0.749039
0.754919
0.760227
0.764956
0.769136
0.772693
0.775716
0.778082
0.779948
0.781146
0.78188
0.781901
0.781373
0.779804
0.777421
0.734813
0.746099
0.755771
0.764772
0.772694
0.77981
0.786251
0.792082
0.797262
0.801853
0.805753
0.809071
0.811672
0.81372
0.815037
0.815836
0.815863
0.815279
0.813595
0.811019
0.763576
0.775818
0.786341
0.796163
0.804814
0.812614
0.819656
0.826049
0.831708
0.836741
0.840996
0.844637
0.847465
0.849708
0.851128
0.851995
0.851993
0.851354
0.84951
0.846725
0.794207
0.807486
0.818932
0.829642
0.839081
0.847617
0.855305
0.862295
0.868466
0.873961
0.878596
0.882557
0.885632
0.888058
0.889583
0.89049
0.890456
0.889711
0.887688
0.884634
0.826821