/*--------------------------------*- C++ -*----------------------------------*\
  =========                 |
  \\      /  F ield         | OpenFOAM: The Open Source CFD Toolbox
   \\    /   O peration     | Website:  https://openfoam.org
    \\  /    A nd           | Version:  6
     \\/     M anipulation  |
\*---------------------------------------------------------------------------*/
FoamFile
{
    version     2.0;
    format      ascii;
    class       volScalarField;
    location    "4";
    object      p;
}
// * * * * * * * * * * * * * * * * * * * * * * * * * * * * * * * * * * * * * //

dimensions      [0 2 -2 0 0 0 0];

internalField   nonuniform List<scalar> 
10000
(
-0.173735
-0.1423
-0.102477
-0.0438502
-0.00130248
0.0206129
0.0275548
0.0284718
0.0291868
0.0313561
0.035626
0.0417545
0.0492093
0.0548497
0.0517207
0.0309179
-0.0130012
-0.076747
-0.120246
-0.149946
-0.184433
-0.142697
-0.0740711
0.0169412
0.0910044
0.136363
0.157085
0.165502
0.170535
0.176916
0.18645
0.199826
0.217665
0.234291
0.239504
0.217532
0.159392
0.0733311
-0.00440972
-0.0682258
0.206397
0.21535
0.24518
0.280161
0.312553
0.338417
0.355791
0.365719
0.371722
0.376655
0.382686
0.390391
0.399734
0.409202
0.416823
0.4176
0.407359
0.385243
0.350035
0.315676
0.530251
0.549293
0.566501
0.575897
0.577075
0.570785
0.560951
0.551345
0.54424
0.540564
0.54003
0.542125
0.546016
0.549193
0.55018
0.547242
0.539432
0.526229
0.51081
0.498884
0.747438
0.763713
0.769516
0.763517
0.750608
0.73354
0.716654
0.702045
0.691113
0.682967
0.677104
0.671848
0.66617
0.659376
0.651452
0.643997
0.640788
0.641553
0.641262
0.638686
0.792918
0.79172
0.79444
0.800124
0.805868
0.810116
0.812217
0.811761
0.809327
0.804627
0.797546
0.786978
0.773464
0.7567
0.738898
0.723397
0.713577
0.711197
0.715314
0.718792
0.827122
0.807202
0.805476
0.818746
0.841757
0.86972
0.895163
0.913953
0.925302
0.929378
0.928051
0.920994
0.908422
0.889757
0.866409
0.842097
0.822434
0.810951
0.812822
0.823597
0.968683
0.957129
0.960025
0.973503
0.993685
1.01826
1.04109
1.05875
1.07031
1.07653
1.07815
1.07538
1.06955
1.05999
1.04805
1.03512
1.02406
1.01653
1.01377
1.01671
1.18138
1.18774
1.19202
1.19819
1.20597
1.21348
1.22019
1.22618
1.23136
1.23539
1.23877
1.24129
1.24279
1.24368
1.24443
1.2433
1.23985
1.23423
1.22915
1.22786
1.38857
1.39756
1.39346
1.38501
1.37954
1.37694
1.37744
1.38084
1.38556
1.39136
1.39804
1.40569
1.41532
1.4266
1.43941
1.45144
1.45929
1.46051
1.45467
1.44531
1.5251
1.52254
1.51623
1.51098
1.50917
1.51173
1.51731
1.52451
1.53189
1.53845
1.54472
1.55223
1.56197
1.57538
1.59162
1.60919
1.62572
1.63726
1.63564
1.62028
1.68683
1.68413
1.68135
1.6782
1.67569
1.67494
1.67582
1.67796
1.68037
1.68197
1.68193
1.6803
1.67767
1.67378
1.66973
1.6669
1.66674
1.67035
1.67683
1.68261
1.84708
1.84571
1.84717
1.84697
1.84493
1.84197
1.83887
1.83567
1.83268
1.82888
1.824
1.81619
1.8045
1.78878
1.77043
1.75173
1.73717
1.73003
1.73547
1.75132
2.01433
2.01782
2.02514
2.02874
2.02584
2.01776
2.00766
1.99788
1.98958
1.98251
1.97578
1.96765
1.9586
1.9473
1.93495
1.92292
1.91332
1.90757
1.90664
1.91056
2.17298
2.18118
2.18389
2.17895
2.16978
2.1595
2.15058
2.14313
2.13728
2.13209
2.12756
2.1231
2.11862
2.11433
2.1099
2.10479
2.09949
2.09418
2.09103
2.09232
2.26356
2.25209
2.24486
2.24732
2.25545
2.2657
2.27434
2.27963
2.28213
2.2833
2.28359
2.28334
2.28379
2.28482
2.28723
2.29061
2.29321
2.29313
2.29008
2.28622
2.41689
2.41314
2.40902
2.40787
2.41155
2.41768
2.42373
2.42913
2.43351
2.43689
2.43969
2.44232
2.44421
2.44652
2.44966
2.45457
2.4613
2.4666
2.46604
2.46022
2.53943
2.53898
2.54278
2.54935
2.55678
2.56452
2.57213
2.58011
2.58723
2.59357
2.59884
2.60317
2.60639
2.60652
2.60255
2.5943
2.58362
2.57374
2.57282
2.5847
2.68851
2.68821
2.69434
2.70345
2.71319
2.72276
2.73173
2.74011
2.74745
2.75363
2.75908
2.7648
2.77112
2.77866
2.78645
2.79206
2.7944
2.79388
2.79083
2.7895
2.87594
2.87502
2.87667
2.88053
2.88622
2.89333
2.90099
2.90851
2.91474
2.91938
2.92216
2.9243
2.92802
2.93508
2.94677
2.96201
2.97674
2.98734
2.98732
2.9773
3.06477
3.06739
3.06597
3.06585
3.06819
3.07311
3.0795
3.08578
3.09089
3.09386
3.09487
3.09348
3.08908
3.0832
3.07648
3.07072
3.06846
3.07018
3.07598
3.08433
3.26003
3.26369
3.26521
3.26725
3.26978
3.27332
3.27754
3.28146
3.28433
3.28614
3.28639
3.28384
3.27855
3.26835
3.2535
3.23577
3.21932
3.20924
3.21173
3.22679
3.50877
3.5133
3.51744
3.51829
3.51516
3.50929
3.50342
3.49877
3.4957
3.49365
3.49263
3.4923
3.49228
3.49254
3.49295
3.49247
3.49036
3.48729
3.48352
3.48051
3.78385
3.79481
3.7953
3.78501
3.76888
3.75019
3.73347
3.72083
3.71226
3.70768
3.70628
3.70739
3.7111
3.71705
3.72643
3.73842
3.74908
3.75644
3.75476
3.7424
3.98053
3.98823
3.98809
3.98435
3.97408
3.95829
3.94143
3.92643
3.91535
3.90935
3.90883
3.91346
3.92167
3.93251
3.94355
3.9516
3.9549
3.95525
3.954
3.95016
4.13026
4.14213
4.14788
4.1461
4.13614
4.12166
4.10665
4.09414
4.0857
4.08217
4.08291
4.08841
4.09902
4.11368
4.13027
4.14506
4.15378
4.15469
4.15031
4.1461
4.23632
4.23826
4.23941
4.23564
4.23085
4.22714
4.22442
4.22328
4.224
4.22618
4.22966
4.23535
4.24276
4.25288
4.26483
4.27798
4.28988
4.29607
4.29579
4.2926
4.3294
4.32177
4.31697
4.31858
4.32596
4.3357
4.34549
4.3539
4.36015
4.36489
4.36792
4.37007
4.37203
4.3738
4.37609
4.37998
4.38591
4.39351
4.39905
4.39826
4.42905
4.41174
4.40787
4.41892
4.43828
4.46103
4.48146
4.49653
4.50615
4.51105
4.51222
4.50983
4.50389
4.49554
4.48593
4.47803
4.47463
4.47731
4.4843
4.48811
4.61205
4.60449
4.60547
4.61143
4.62222
4.63688
4.6514
4.66365
4.67192
4.67624
4.67663
4.67269
4.6644
4.65064
4.63262
4.61356
4.59777
4.58892
4.59235
4.60488
4.81665
4.81812
4.82047
4.82421
4.82866
4.83407
4.8399
4.84599
4.85121
4.85446
4.85574
4.85489
4.85162
4.84583
4.83771
4.82804
4.81937
4.81334
4.81128
4.81437
5.04174
5.05102
5.05543
5.05684
5.05447
5.04974
5.04518
5.04261
5.04211
5.04354
5.04549
5.04803
5.05101
5.05394
5.05691
5.05814
5.05627
5.05168
5.04685
5.04508
5.24625
5.25637
5.25806
5.25165
5.24199
5.23343
5.22845
5.22669
5.22735
5.22996
5.23467
5.24186
5.25109
5.26317
5.27693
5.28981
5.29827
5.29986
5.29391
5.28324
5.3982
5.3856
5.38066
5.38318
5.3886
5.39548
5.40171
5.4057
5.40744
5.40892
5.41104
5.416
5.42459
5.43756
5.45401
5.47205
5.48877
5.50055
5.49886
5.48002
5.6295
5.63286
5.63431
5.63315
5.6287
5.62
5.60882
5.59772
5.58801
5.57974
5.57277
5.56719
5.56248
5.55913
5.55647
5.55496
5.5559
5.56046
5.56712
5.56913
5.83053
5.84549
5.85024
5.84323
5.82826
5.80747
5.78641
5.76855
5.75446
5.74302
5.73217
5.72041
5.70722
5.69208
5.67555
5.65967
5.64767
5.64258
5.64886
5.66314
5.92293
5.91586
5.91085
5.90779
5.90681
5.90686
5.90674
5.90541
5.90286
5.89887
5.8936
5.88652
5.8774
5.86655
5.85475
5.84429
5.83705
5.834
5.83526
5.83935
6.01812
6.00038
5.99305
5.99782
6.0108
6.02817
6.0436
6.05455
6.06054
6.0633
6.06282
6.06019
6.05539
6.04907
6.04223
6.03591
6.03067
6.02739
6.02735
6.03111
6.2006
6.1966
6.19686
6.2003
6.2072
6.21712
6.22664
6.2349
6.24047
6.24371
6.24495
6.24486
6.24333
6.24146
6.23906
6.23663
6.23382
6.23133
6.23084
6.23353
6.40135
6.40373
6.4064
6.40938
6.41219
6.41519
6.41812
6.42195
6.4254
6.42885
6.43118
6.43365
6.43581
6.43849
6.4414
6.44414
6.44523
6.44459
6.44369
6.44429
6.61093
6.62152
6.62774
6.63085
6.6295
6.6249
6.61941
6.61568
6.61436
6.6154
6.61766
6.62142
6.62593
6.63232
6.64016
6.64935
6.65703
6.66144
6.66129
6.65739
6.78636
6.79811
6.80352
6.80209
6.79765
6.79355
6.79152
6.79178
6.7933
6.7965
6.79972
6.80374
6.80734
6.8116
6.81702
6.82492
6.83363
6.84172
6.8444
6.83963
6.89464
6.88207
6.8814
6.892
6.90815
6.92693
6.94415
6.95786
6.96785
6.97587
6.98225
6.98722
6.98895
6.98641
6.9779
6.96552
6.952
6.94168
6.94372
6.96035
7.08139
7.07702
7.07872
7.08558
7.09764
7.11277
7.1277
7.14149
7.15249
7.162
7.1699
7.17802
7.18561
7.19212
7.19402
7.18949
7.17944
7.16741
7.16176
7.169
7.29956
7.2999
7.30183
7.305
7.30943
7.31567
7.32293
7.33137
7.33946
7.3472
7.3545
7.363
7.37339
7.38824
7.40618
7.42445
7.43864
7.44587
7.4408
7.42585
7.55111
7.5588
7.56128
7.55924
7.55361
7.54611
7.539
7.53435
7.53194
7.53215
7.53313
7.53597
7.54019
7.54776
7.55903
7.57457
7.59144
7.60568
7.60871
7.59881
7.79357
7.80931
7.80918
7.79588
7.77711
7.75733
7.7401
7.72721
7.71788
7.71079
7.70435
7.69806
7.69053
7.68251
7.67436
7.66918
7.66755
7.67026
7.67753
7.68837
7.95997
7.95814
7.95335
7.94501
7.9339
7.92202
7.91131
7.90247
7.89474
7.88772
7.87967
7.86968
7.85526
7.8365
7.81415
7.7922
7.77499
7.76614
7.77107
7.79228
8.11207
8.09873
8.0892
8.08423
8.08123
8.07883
8.07688
8.07502
8.07224
8.06858
8.06343
8.05613
8.04557
8.03253
8.01731
8.00215
7.98945
7.9815
7.97915
7.98546
8.2711
8.25204
8.2391
8.23684
8.24081
8.24711
8.25242
8.25571
8.25593
8.25457
8.25149
8.2482
8.244
8.23959
8.23383
8.22712
8.21891
8.20997
8.20315
8.19952
8.47853
8.48387
8.48534
8.48319
8.47741
8.46932
8.45993
8.45151
8.44439
8.43956
8.43665
8.43697
8.43994
8.44609
8.45298
8.45918
8.46105
8.45683
8.4474
8.43477
8.66582
8.68348
8.69293
8.68987
8.67691
8.65838
8.63981
8.62459
8.61331
8.60684
8.60354
8.60486
8.61018
8.62133
8.63611
8.65218
8.66487
8.67041
8.66274
8.64162
8.77251
8.77142
8.7666
8.7618
8.75852
8.75691
8.75598
8.75466
8.75234
8.74979
8.74665
8.74405
8.74154
8.74099
8.7412
8.74324
8.74654
8.7494
8.75007
8.74623
8.87997
8.86736
8.85772
8.85758
8.86502
8.87651
8.88657
8.89282
8.89457
8.89324
8.8886
8.88123
8.87018
8.85701
8.84227
8.82981
8.82289
8.82214
8.82685
8.83695
9.06019
9.06247
9.06494
9.06618
9.0659
9.0634
9.0587
9.05376
9.04896
9.04478
9.04057
9.03578
9.02833
9.01743
9.00172
8.98285
8.96455
8.95158
8.94994
8.96014
9.18827
9.19506
9.20029
9.20002
9.19734
9.1934
9.18918
9.18598
9.18377
9.18313
9.18343
9.18541
9.1885
9.19256
9.19574
9.19724
9.19505
9.18994
9.18168
9.17013
9.22852
9.20989
9.20821
9.21962
9.23745
9.25808
9.27659
9.29058
9.29995
9.307
9.31299
9.32028
9.32907
9.34143
9.35665
9.37335
9.38615
9.39114
9.38303
9.35853
9.34505
9.33316
9.33711
9.35101
9.36838
9.38618
9.40193
9.41439
9.42304
9.42926
9.43335
9.43696
9.43991
9.44367
9.44786
9.45369
9.45988
9.46501
9.46642
9.45709
9.51412
9.52019
9.526
9.52821
9.53183
9.53782
9.54496
9.55138
9.55559
9.55738
9.55643
9.55298
9.54647
9.53839
9.52902
9.52163
9.51992
9.5249
9.53336
9.5401
9.65271
9.65099
9.65209
9.65514
9.66111
9.66968
9.67852
9.68623
9.69176
9.69447
9.69422
9.69096
9.68473
9.6751
9.66105
9.64512
9.63152
9.62407
9.62761
9.6431
9.82789
9.8354
9.84155
9.84504
9.8452
9.8428
9.84008
9.8389
9.83908
9.83941
9.83903
9.83792
9.8357
9.8336
9.83171
9.83074
9.83129
9.83202
9.83145
9.83148
9.9815
9.99301
9.99672
9.99334
9.98778
9.9837
9.98272
9.9838
9.98556
9.98723
9.98837
9.98867
9.98882
9.98991
9.99292
9.99994
10.0089
10.0164
10.0171
10.0104
10.0945
10.0807
10.0768
10.082
10.0925
10.1064
10.1203
10.1314
10.1391
10.1445
10.1488
10.1534
10.1569
10.1587
10.1564
10.1498
10.1411
10.1328
10.1321
10.141
10.3098
10.3105
10.3103
10.3089
10.3075
10.3057
10.3039
10.3034
10.3043
10.3064
10.31
10.3152
10.3229
10.3325
10.3421
10.3504
10.3549
10.356
10.3523
10.3468
10.5352
10.5477
10.5485
10.5378
10.5216
10.5025
10.4854
10.473
10.4655
10.4617
10.4606
10.4626
10.4671
10.4767
10.4909
10.5078
10.5241
10.5361
10.5351
10.5197
10.6979
10.7028
10.7029
10.6981
10.6875
10.6718
10.6542
10.6376
10.6235
10.6116
10.6016
10.5922
10.5846
10.5781
10.5728
10.5697
10.5698
10.5743
10.5808
10.5848
10.8259
10.8312
10.8328
10.8288
10.8198
10.8068
10.7924
10.7779
10.7646
10.7518
10.7392
10.7257
10.7101
10.6928
10.6745
10.6567
10.644
10.6385
10.6444
10.6581
10.9082
10.9068
10.9046
10.9052
10.9074
10.91
10.9113
10.91
10.9066
10.9007
10.8932
10.8825
10.8705
10.8566
10.8424
10.8309
10.8229
10.8192
10.8192
10.8212
11.0131
10.9978
10.993
11.0029
11.02
11.0387
11.0543
11.0636
11.0672
11.0663
11.0622
11.0558
11.0464
11.0357
11.025
11.0149
11.0075
11.0027
11.0009
11.0019
11.2373
11.2292
11.2323
11.2425
11.2527
11.261
11.2653
11.2658
11.2638
11.2602
11.2559
11.2492
11.2412
11.2307
11.2196
11.21
11.2021
11.1968
11.1942
11.194
11.5249
11.5392
11.5471
11.5437
11.5323
11.515
11.4971
11.4818
11.4708
11.4633
11.4584
11.4552
11.4508
11.4448
11.4367
11.4263
11.4158
11.4068
11.402
11.4022
11.7301
11.7415
11.7441
11.736
11.7215
11.7037
11.6872
11.6748
11.6673
11.6634
11.6634
11.6657
11.6721
11.6789
11.6832
11.6821
11.6736
11.66
11.6502
11.6492
11.848
11.8381
11.833
11.8316
11.8339
11.8382
11.8434
11.8483
11.8529
11.8583
11.865
11.8753
11.8888
11.9077
11.93
11.9515
11.969
11.9783
11.9734
11.9561
11.9801
11.9591
11.9515
11.9591
11.9763
11.9991
12.0201
12.0372
12.0503
12.0613
12.0715
12.0816
12.0942
12.1098
12.1294
12.1528
12.1762
12.1956
12.2019
12.1933
12.2155
12.2065
12.2044
12.2081
12.2175
12.2312
12.2458
12.2595
12.2711
12.281
12.2896
12.2984
12.3057
12.3126
12.3187
12.3248
12.3329
12.3432
12.3553
12.3676
12.4909
12.4855
12.4819
12.4808
12.4821
12.4863
12.4924
12.5004
12.5092
12.5181
12.5272
12.5353
12.543
12.5472
12.5475
12.5442
12.5399
12.5392
12.5482
12.5685
12.8055
12.8058
12.801
12.7934
12.784
12.7738
12.7656
12.7609
12.7603
12.7636
12.7701
12.7803
12.7929
12.8083
12.8249
12.8395
12.8503
12.8574
12.861
12.8647
13.1212
13.1248
13.1166
13.0981
13.076
13.0533
13.0338
13.0199
13.0119
13.009
13.0107
13.0166
13.0284
13.0454
13.068
13.094
13.1179
13.1362
13.1434
13.1416
13.3634
13.3509
13.3377
13.3232
13.3076
13.2901
13.273
13.2581
13.2473
13.2411
13.2388
13.2407
13.2447
13.2514
13.2602
13.271
13.2836
13.2979
13.3138
13.3315
13.5776
13.5582
13.5432
13.5282
13.5126
13.4968
13.4824
13.4708
13.463
13.4592
13.4591
13.4613
13.465
13.4678
13.4699
13.4721
13.4761
13.4848
13.5024
13.5313
13.749
13.7186
13.697
13.6812
13.6699
13.663
13.6599
13.659
13.6596
13.6622
13.667
13.6752
13.6859
13.6997
13.7159
13.7333
13.7509
13.7678
13.7829
13.7992
13.9246
13.884
13.8583
13.8474
13.8452
13.8479
13.8518
13.8552
13.8579
13.8618
13.8674
13.876
13.8884
13.9049
13.9262
13.9508
13.9768
14.0017
14.0204
14.0351
14.1591
14.1318
14.1095
14.0886
14.0712
14.0575
14.0473
14.041
14.039
14.0415
14.0479
14.0586
14.0722
14.0872
14.1018
14.1147
14.1263
14.1392
14.1601
14.1953
14.3471
14.321
14.295
14.263
14.2331
14.2098
14.195
14.1877
14.1863
14.1899
14.1975
14.2098
14.2264
14.2467
14.2707
14.296
14.3209
14.3449
14.3665
14.3937
14.4453
14.395
14.3597
14.3336
14.316
14.3065
14.303
14.302
14.3031
14.3065
14.3127
14.3222
14.336
14.3547
14.3795
14.4105
14.4438
14.4757
14.5006
14.5268
14.583
14.5417
14.5096
14.4749
14.444
14.4179
14.3985
14.3856
14.3792
14.3785
14.3826
14.3912
14.4027
14.4159
14.4304
14.4441
14.4583
14.4744
14.4991
14.5448
14.6414
14.6107
14.5809
14.5381
14.4932
14.4519
14.4202
14.3984
14.3867
14.3819
14.3832
14.3888
14.3993
14.4138
14.4328
14.4551
14.4777
14.5005
14.5233
14.5604
14.5326
14.4937
14.4684
14.4368
14.4032
14.3708
14.3446
14.3241
14.3106
14.3029
14.3003
14.3026
14.3086
14.3189
14.3367
14.36
14.3862
14.4115
14.4334
14.467
14.2628
14.2265
14.2159
14.1996
14.1779
14.1561
14.1398
14.1279
14.1215
14.1184
14.1192
14.1218
14.1267
14.1307
14.1339
14.1355
14.134
14.1351
14.152
14.2063
13.8031
13.7597
13.7632
13.7719
13.7775
13.7828
13.7927
13.8036
13.8139
13.8216
13.8266
13.8306
13.8329
13.8337
13.8346
13.8333
13.831
13.8302
13.8391
13.889
13.2163
13.1598
13.178
13.2205
13.2663
13.3103
13.3522
13.3864
13.4122
13.427
13.4336
13.4319
13.4263
13.4166
13.4073
13.3998
13.3908
13.3794
13.3748
13.4224
12.5847
12.5355
12.5802
12.6487
12.7176
12.7808
12.8387
12.884
12.9151
12.9314
12.9347
12.9278
12.9102
12.8839
12.8509
12.8082
12.7581
12.7063
12.6803
12.7428
11.8583
11.7976
11.8698
11.9794
12.0841
12.1744
12.2502
12.3049
12.3377
12.349
12.3417
12.3142
12.27
12.206
12.1265
12.0347
11.9354
11.8461
11.8067
11.8998
11.0624
10.949
11.0385
11.2001
11.3602
11.4946
11.5996
11.6723
11.7126
11.7243
11.7068
11.6626
11.5855
11.477
11.3412
11.1849
11.0268
10.8963
10.8538
11.008
10.4056
10.1951
10.2679
10.4618
10.6691
10.8495
10.9885
11.087
11.1454
11.166
11.1493
11.0939
11.0011
10.8657
10.6911
10.4881
10.2789
10.1103
10.0742
10.3179
10.2642
9.90912
9.92357
10.1052
10.3161
10.5032
10.6491
10.7532
10.8155
10.8416
10.8301
10.7848
10.7002
10.5762
10.411
10.209
9.99451
9.82164
9.81974
10.1911
11.1216
10.5979
10.523
10.6234
10.7413
10.8336
10.8989
10.9461
10.9747
10.9868
10.9822
10.9611
10.9266
10.877
10.8095
10.715
10.5983
10.5027
10.5725
11.0883
13.173
12.5105
12.3234
12.2305
12.1254
12.0157
11.9253
11.8636
11.8257
11.8065
11.8035
11.8188
11.8549
11.9228
12.0182
12.1369
12.2459
12.3458
12.5229
13.1653
16.1977
15.1547
14.808
14.4778
14.1245
13.8187
13.5962
13.452
13.3665
13.3244
13.3223
13.3581
13.4402
13.5911
13.8174
14.1378
14.5022
14.8366
15.1674
16.166
20.9475
16.6811
16.3847
15.975
15.4717
15.0989
14.8607
14.7166
14.6329
14.5933
14.5915
14.6262
14.7107
14.8617
15.1129
15.5001
16.018
16.4363
16.718
20.9233
-1.15989
-0.980889
-0.938619
-0.713959
-0.534026
-0.426143
-0.364009
-0.326037
-0.303049
-0.291271
-0.286781
-0.289255
-0.298584
-0.316859
-0.353382
-0.431814
-0.579939
-0.779833
-0.824467
-0.98841
-1.75731
-1.61431
-1.53221
-1.26851
-1.00074
-0.796494
-0.660703
-0.573353
-0.519898
-0.490115
-0.477603
-0.481889
-0.501371
-0.544678
-0.623145
-0.761124
-0.963424
-1.17346
-1.24503
-1.40095
-1.25912
-1.27919
-1.21055
-1.07461
-0.91396
-0.756465
-0.627777
-0.535366
-0.473958
-0.437303
-0.420012
-0.422471
-0.44614
-0.497818
-0.579899
-0.687503
-0.790442
-0.860464
-0.899075
-0.903679
-0.977153
-0.934748
-0.87044
-0.79279
-0.708092
-0.620286
-0.541978
-0.477849
-0.430011
-0.397398
-0.379105
-0.375281
-0.385149
-0.41464
-0.467726
-0.552376
-0.669229
-0.797803
-0.85504
-0.841227
-0.732271
-0.623926
-0.547789
-0.493789
-0.443582
-0.391697
-0.349308
-0.318958
-0.296391
-0.280222
-0.269399
-0.263639
-0.26143
-0.25998
-0.252847
-0.23785
-0.221783
-0.214821
-0.249172
-0.301966
-0.230864
-0.108269
-0.0385305
-0.0316272
-0.060852
-0.100978
-0.132531
-0.151474
-0.162119
-0.169072
-0.176381
-0.186027
-0.198394
-0.212189
-0.217295
-0.198349
-0.151594
-0.0900803
-0.0756691
-0.126106
0.333887
0.400533
0.396248
0.303624
0.198351
0.103257
0.0353063
-0.00830071
-0.038415
-0.0650121
-0.0916728
-0.123884
-0.16882
-0.235234
-0.324277
-0.423346
-0.510794
-0.564468
-0.545682
-0.5043
0.413903
0.383732
0.345771
0.321713
0.28994
0.244769
0.193015
0.140543
0.0909684
0.0432246
-0.00511868
-0.0607995
-0.126235
-0.212253
-0.324544
-0.46668
-0.614145
-0.729306
-0.755398
-0.715506
0.509923
0.450896
0.421787
0.408227
0.388711
0.355215
0.310333
0.257846
0.205572
0.153137
0.100397
0.0419092
-0.021531
-0.0871585
-0.153616
-0.225684
-0.297246
-0.362458
-0.419862
-0.453949
0.395866
0.275269
0.211126
0.20503
0.234599
0.269824
0.289306
0.291928
0.28243
0.264445
0.241371
0.212667
0.181879
0.151079
0.123379
0.101314
0.0747079
0.0282328
-0.0354412
-0.090063
0.383598
0.264002
0.217391
0.24457
0.295056
0.340091
0.367869
0.384421
0.392707
0.395858
0.397401
0.400706
0.407286
0.424605
0.456646
0.500904
0.542959
0.556388
0.51026
0.425888
0.641717
0.658184
0.651305
0.611043
0.566401
0.532096
0.516561
0.515739
0.520665
0.530145
0.543301
0.563284
0.593915
0.637426
0.697441
0.772729
0.857197
0.938987
0.946555
0.861109
0.409059
0.498797
0.504173
0.486255
0.480521
0.497265
0.529559
0.56515
0.598003
0.62895
0.660274
0.697341
0.741054
0.789273
0.834357
0.864216
0.873917
0.881319
0.907457
0.91759
0.0792713
0.0906652
0.138485
0.271092
0.405406
0.512608
0.590097
0.646853
0.690709
0.727285
0.758717
0.786698
0.81282
0.837001
0.861862
0.887747
0.908855
0.926695
0.951466
0.983679
0.395412
0.446395
0.508546
0.567083
0.627375
0.684362
0.735728
0.779541
0.81632
0.846138
0.87133
0.891045
0.900665
0.895644
0.874586
0.846242
0.824785
0.813752
0.836558
0.893794
0.67559
0.741605
0.787469
0.817089
0.84424
0.878477
0.910637
0.93624
0.958769
0.981174
1.00535
1.03066
1.05914
1.0819
1.0888
1.06329
1.00269
0.925349
0.900284
0.931616
1.11062
1.18736
1.22671
1.20725
1.15744
1.10521
1.07233
1.06084
1.06602
1.08193
1.10764
1.14355
1.19062
1.25308
1.33205
1.41486
1.48608
1.52566
1.50027
1.43013
1.40978
1.45432
1.44003
1.34857
1.24693
1.16228
1.11249
1.09499
1.09862
1.1148
1.14007
1.17609
1.2281
1.29795
1.38574
1.49494
1.62064
1.7437
1.78504
1.72296
1.22665
1.16326
1.11333
1.08534
1.07082
1.06699
1.06938
1.07546
1.08584
1.09876
1.11364
1.13107
1.15217
1.18159
1.21487
1.25398
1.30386
1.36588
1.4427
1.50022
0.965705
0.888659
0.855164
0.87862
0.926331
0.975935
1.01822
1.0501
1.07295
1.08724
1.09341
1.08659
1.06579
1.03064
0.989989
0.958095
0.952758
0.980565
1.05504
1.16369
0.761895
0.684432
0.683027
0.773953
0.883296
0.973396
1.03693
1.07906
1.1051
1.11589
1.11516
1.09958
1.06563
1.00926
0.933014
0.840439
0.754016
0.69673
0.723587
0.831132
1.06276
1.08116
1.10681
1.13071
1.15416
1.17774
1.1971
1.20922
1.21302
1.20632
1.1888
1.15835
1.11862
1.06893
1.01614
0.963829
0.921223
0.898559
0.890947
0.905162
1.47005
1.50959
1.52825
1.52153
1.49433
1.46216
1.43476
1.40734
1.37935
1.34774
1.3117
1.26826
1.21844
1.16684
1.11888
1.07485
1.03297
0.997919
0.977271
0.976137
2.02768
2.09033
2.08984
2.02099
1.91559
1.79998
1.70058
1.62364
1.56462
1.51512
1.46961
1.42484
1.38302
1.34031
1.29846
1.25861
1.21854
1.17761
1.1427
1.12502
2.43592
2.48884
2.42754
2.28046
2.12658
1.98522
1.86806
1.77834
1.71248
1.66106
1.61867
1.58146
1.54901
1.52053
1.49584
1.47409
1.45112
1.41914
1.37648
1.33751
2.31132
2.24677
2.16001
2.09417
2.03831
1.98327
1.92556
1.8697
1.82142
1.7832
1.75279
1.72729
1.70733
1.69184
1.6842
1.68722
1.69709
1.70018
1.67036
1.60798
2.02649
1.91993
1.86163
1.87122
1.90005
1.92016
1.92387
1.9137
1.8978
1.88213
1.86956
1.86098
1.85303
1.84513
1.83573
1.82734
1.82679
1.83684
1.82728
1.76855
1.65598
1.53538
1.51727
1.61351
1.7308
1.83463
1.90777
1.95006
1.97091
1.98317
1.99289
2.00402
2.0167
2.0251
2.01875
1.97847
1.89341
1.78516
1.74178
1.75294
1.71446
1.69168
1.73102
1.80805
1.88025
1.94419
1.99439
2.03303
2.0628
2.08882
2.11473
2.14452
2.17773
2.21918
2.27374
2.3373
2.39074
2.40943
2.3664
2.30592
1.99833
2.05432
2.08786
2.07246
2.06775
2.07722
2.09812
2.1284
2.16063
2.19294
2.22378
2.2563
2.2923
2.33658
2.39793
2.48552
2.59338
2.69629
2.71943
2.66439
1.96766
1.97055
1.97836
2.00483
2.05634
2.11975
2.18196
2.23598
2.28028
2.31714
2.34951
2.38103
2.41015
2.43805
2.46161
2.47997
2.49795
2.5259
2.57293
2.59694
2.01584
2.02917
2.06361
2.12117
2.19126
2.27001
2.34478
2.40495
2.44953
2.48439
2.51203
2.53311
2.5461
2.54369
2.52152
2.48729
2.45709
2.44892
2.48323
2.53571
2.11954
2.1408
2.19853
2.28535
2.38134
2.47544
2.55499
2.61654
2.66309
2.69722
2.72279
2.74093
2.75339
2.75738
2.74299
2.69937
2.62726
2.55152
2.54013
2.59323
2.48807
2.54181
2.64015
2.74851
2.82331
2.86903
2.89854
2.92304
2.94689
2.969
2.98866
3.00683
3.02745
3.05554
3.09931
3.15432
3.20361
3.22711
3.20154
3.16489
3.33048
3.47361
3.5465
3.48978
3.4023
3.32722
3.28101
3.25792
3.25069
3.25113
3.25668
3.26563
3.27722
3.29545
3.32685
3.38507
3.4729
3.55934
3.58115
3.54302
3.81893
3.89446
3.8702
3.77015
3.68081
3.61322
3.56798
3.54171
3.52783
3.5204
3.51679
3.5163
3.51857
3.51488
3.49248
3.44729
3.3984
3.37393
3.40644
3.45715
4.05696
4.06467
4.03755
4.01683
3.98061
3.92729
3.87197
3.82757
3.79737
3.77746
3.76565
3.75864
3.75524
3.75211
3.73957
3.69663
3.61969
3.54408
3.53314
3.58937
4.34968
4.37031
4.36454
4.33989
4.27979
4.2019
4.12877
4.06914
4.02611
3.99833
3.98225
3.97474
3.97605
3.99074
4.03031
4.09279
4.14951
4.17936
4.15979
4.12904
4.49585
4.47852
4.45371
4.4197
4.37458
4.32041
4.26775
4.22285
4.18831
4.16295
4.14689
4.13965
4.13854
4.14762
4.1752
4.23901
4.33177
4.42188
4.45154
4.41179
4.50569
4.44857
4.3938
4.35137
4.3356
4.33292
4.32754
4.31801
4.30554
4.29312
4.28075
4.2684
4.25258
4.22494
4.17911
4.12421
4.07812
4.06148
4.10748
4.17299
4.40491
4.32646
4.27015
4.26041
4.28721
4.33282
4.37373
4.40228
4.41753
4.42208
4.41865
4.40786
4.38871
4.35419
4.29316
4.19836
4.09169
4.01616
4.02314
4.10913
4.42715
4.35811
4.34257
4.39306
4.45744
4.51112
4.54675
4.57147
4.58672
4.59463
4.59461
4.58779
4.57727
4.56752
4.55889
4.54135
4.5136
4.4864
4.46259
4.47166
4.85096
4.87027
4.87966
4.85513
4.82066
4.79168
4.77819
4.77728
4.782
4.78967
4.79951
4.81089
4.82206
4.83889
4.86655
4.90158
4.9264
4.92529
4.90088
4.87528
5.02701
5.03986
5.01877
4.97235
4.93541
4.91913
4.92033
4.92901
4.93962
4.95418
4.97253
4.99887
5.03483
5.08598
5.15759
5.24867
5.33844
5.3969
5.39159
5.34013
4.92075
4.87385
4.87351
4.94731
5.01844
5.06238
5.08067
5.08556
5.08818
5.09375
5.10278
5.11932
5.14526
5.18892
5.25263
5.34371
5.4553
5.56607
5.61102
5.56823
5.24557
5.27901
5.29919
5.28656
5.2624
5.24189
5.23114
5.22636
5.22313
5.22246
5.22179
5.22084
5.21371
5.19707
5.16714
5.12845
5.09762
5.09949
5.16449
5.23841
5.25727
5.26651
5.24965
5.22409
5.22223
5.2497
5.28609
5.31647
5.33542
5.3444
5.34536
5.33796
5.31838
5.27933
5.21166
5.11826
5.02758
4.97269
4.99702
5.09789
5.01239
4.94238
4.95524
5.07795
5.22308
5.35045
5.43491
5.48311
5.5063
5.51422
5.50927
5.4948
5.47372
5.44872
5.4169
5.38047
5.34781
5.32967
5.32246
5.3506
5.42197
5.44716
5.53469
5.63191
5.69599
5.7273
5.73886
5.742
5.74024
5.73553
5.72659
5.71326
5.69536
5.67839
5.66228
5.64542
5.62151
5.5954
5.57938
5.5801
6.12602
6.2571
6.32314
6.26298
6.16072
6.06729
6.00848
5.97832
5.96279
5.95696
5.95493
5.95707
5.96096
5.967
5.97244
5.97371
5.96289
5.93838
5.91041
5.8941
6.33313
6.40637
6.37958
6.2941
6.2215
6.17157
6.1414
6.12893
6.12831
6.13717
6.15244
6.17521
6.20232
6.23509
6.27305
6.31236
6.33775
6.3356
6.30339
6.2658
6.14633
6.10375
6.06263
6.08
6.12368
6.16718
6.19689
6.22247
6.24644
6.27239
6.29951
6.33323
6.37337
6.42512
6.49344
6.58091
6.66785
6.72464
6.71424
6.65713
6.24381
6.19217
6.19
6.23609
6.28906
6.33219
6.35664
6.37204
6.38294
6.39416
6.40482
6.41973
6.43988
6.47201
6.51807
6.59194
6.69088
6.79452
6.83327
6.78401
6.81512
6.85663
6.87121
6.8185
6.73472
6.65146
6.58779
6.54807
6.52218
6.50496
6.48856
6.4712
6.44594
6.40718
6.3475
6.27912
6.22588
6.21278
6.26763
6.33128
7.18382
7.23298
7.18627
7.05772
6.92006
6.804
6.72136
6.66727
6.62756
6.59386
6.55921
6.51869
6.46437
6.39029
6.29017
6.16798
6.05165
5.97305
5.98021
6.06335
7.07838
7.02318
6.95195
6.90824
6.87613
6.84453
6.80934
6.77297
6.73529
6.69738
6.65393
6.60163
6.53764
6.46663
6.39272
6.31969
6.25529
6.21066
6.18347
6.19032
6.89284
6.80116
6.75806
6.78361
6.82854
6.86449
6.88127
6.87943
6.86322
6.83828
6.80426
6.76109
6.70691
6.64432
6.57506
6.50698
6.44167
6.38478
6.34561
6.3277
6.68354
6.5806
6.58193
6.69021
6.81303
6.91869
6.9892
7.02451
7.03293
7.0263
7.00803
6.98232
6.95049
6.91519
6.87326
6.82546
6.76901
6.70702
6.65077
6.61589
6.98661
6.99301
7.05282
7.12739
7.17952
7.21524
7.2366
7.24926
7.25491
7.25723
7.2568
7.25638
7.25378
7.25216
7.25015
7.24467
7.2243
7.17978
7.11316
7.05244
7.57697
7.67581
7.7119
7.64142
7.55896
7.50042
7.4715
7.46574
7.47164
7.48549
7.50447
7.53012
7.56186
7.60273
7.65348
7.71401
7.76588
7.78323
7.73424
7.64778
7.67511
7.69472
7.66052
7.60283
7.57785
7.58102
7.59597
7.61879
7.6449
7.67633
7.71357
7.76188
7.82101
7.89359
7.97568
8.06682
8.16554
8.25736
8.26355
8.17436
7.57738
7.52413
7.52662
7.60814
7.68702
7.73516
7.75712
7.77582
7.79925
7.83256
7.87678
7.93715
8.01528
8.1029
8.17979
8.23206
8.26162
8.2886
8.3199
8.31061
7.9653
7.99305
8.01067
7.98775
7.95107
7.91759
7.89958
7.89863
7.90788
7.92648
7.95414
7.99637
8.05531
8.13566
8.22638
8.30966
8.37361
8.41851
8.45051
8.45145
8.08803
8.09951
8.07189
8.01308
7.97032
7.95493
7.95576
7.96219
7.96889
7.97503
7.98016
7.98438
7.99077
8.00588
8.03411
8.08213
8.14611
8.21224
8.27899
8.33651
7.95224
7.89348
7.88451
7.95065
8.01548
8.05402
8.0652
8.06052
8.05121
8.04028
8.02626
8.005
7.9706
7.92679
7.87834
7.83508
7.8174
7.84198
7.92021
8.02412
8.31395
8.33243
8.33778
8.30541
8.26321
8.22434
8.19599
8.1738
8.15425
8.13415
8.11217
8.08223
8.04188
7.98427
7.90854
7.81963
7.73517
7.67922
7.70528
7.79878
8.40624
8.40698
8.36884
8.30846
8.27292
8.26288
8.26497
8.26817
8.26567
8.25514
8.23589
8.20781
8.16972
8.12578
8.07877
8.03167
7.99594
7.98021
7.97749
7.98942
8.24602
8.17188
8.15528
8.23602
8.33116
8.40083
8.4392
8.45774
8.46279
8.45625
8.43885
8.40873
8.37011
8.32721
8.28498
8.24658
8.21158
8.18705
8.17791
8.18237
8.65794
8.6568
8.67967
8.70572
8.72989
8.74763
8.75732
8.75906
8.75397
8.74307
8.72637
8.70469
8.67553
8.64093
8.60167
8.55913
8.51817
8.48372
8.46322
8.45984
9.09186
9.10944
9.13328
9.14576
9.1463
9.14654
9.14099
9.12756
9.11165
9.09517
9.07913
9.06071
9.04098
9.01345
8.97974
8.94244
8.90046
8.85828
8.82646
8.81306
9.60649
9.65429
9.67223
9.65379
9.61734
9.57685
9.54279
9.51699
9.49819
9.48378
9.47254
9.46493
9.45858
9.45216
9.44162
9.42274
9.3927
9.35074
9.30944
9.28335
9.99399
10.031
10.0226
9.98463
9.95319
9.9302
9.91554
9.90721
9.90292
9.90125
9.90422
9.90995
9.92347
9.94364
9.96718
9.98918
9.99587
9.97565
9.93078
9.88483
10.1863
10.1501
10.1643
10.2476
10.3177
10.3534
10.3585
10.3505
10.3421
10.3413
10.3499
10.3706
10.4005
10.4445
10.5035
10.5754
10.6474
10.6892
10.6686
10.5997
10.9465
11.0027
11.0389
11.017
10.9625
10.9003
10.8482
10.8108
10.7877
10.7793
10.7853
10.8039
10.837
10.8803
10.9341
11.009
11.1072
11.209
11.2438
11.1831
11.4164
11.4687
11.4513
11.3726
11.2978
11.2438
11.2105
11.1895
11.1797
11.1818
11.1955
11.2213
11.2521
11.2785
11.2853
11.2658
11.2376
11.2303
11.2771
11.3339
11.4188
11.3698
11.3272
11.3458
11.3985
11.4552
11.4973
11.5253
11.5489
11.573
11.6031
11.6385
11.6821
11.7246
11.7553
11.7535
11.7128
11.6657
11.6709
11.7398
11.7161
11.6618
11.6676
11.7303
11.8021
11.8614
11.8995
11.9252
11.9468
11.9719
12.0034
12.0471
12.1024
12.1747
12.2689
12.3803
12.4827
12.5533
12.5605
12.5395
12.4588
12.5073
12.5366
12.5114
12.4626
12.413
12.378
12.3603
12.3561
12.3642
12.3834
12.4141
12.4587
12.5204
12.6067
12.7266
12.8695
13.01
13.0789
13.0482
12.917
12.9797
12.9574
12.8744
12.7977
12.7431
12.7139
12.7018
12.7019
12.7111
12.7273
12.7488
12.7692
12.7865
12.7981
12.8026
12.8133
12.8505
12.9382
13.0161
12.9181
12.8696
12.8204
12.8295
12.8758
12.9295
12.9712
13.0002
13.024
13.0452
13.0667
13.0872
13.107
13.1143
13.1002
13.0625
13.0232
13.0046
13.0476
13.1461
13.2272
13.1757
13.1728
13.2171
13.2698
13.3139
13.3415
13.3596
13.375
13.3902
13.4057
13.424
13.4463
13.4727
13.4988
13.5223
13.5473
13.575
13.5922
13.6146
13.9758
14.0257
14.0368
13.9766
13.8912
13.8115
13.7575
13.7306
13.7233
13.7285