/*--------------------------------*- C++ -*----------------------------------*\
  =========                 |
  \\      /  F ield         | OpenFOAM: The Open Source CFD Toolbox
   \\    /   O peration     | Website:  https://openfoam.org
    \\  /    A nd           | Version:  6
     \\/     M anipulation  |
\*---------------------------------------------------------------------------*/
FoamFile
{
    version     2.0;
    format      ascii;
    class       surfaceScalarField;
    location    "4";
    object      phi;
}
// * * * * * * * * * * * * * * * * * * * * * * * * * * * * * * * * * * * * * //

dimensions      [0 3 -1 0 0 0 0];

internalField   nonuniform List<scalar> 
19400
(
-1.65436e-08
-1.15126e-06
-2.81739e-08
-1.26476e-06
-3.04318e-08
-1.27897e-06
-2.57886e-08
-1.27619e-06
-1.88873e-08
-1.27635e-06
-1.28456e-08
-1.27684e-06
-8.64217e-09
-1.27553e-06
-6.16977e-09
-1.27276e-06
-4.86165e-09
-1.26979e-06
-4.1888e-09
-1.26785e-06
-3.51524e-09
-1.26761e-06
-2.36501e-09
-1.26898e-06
5.27525e-11
-1.27119e-06
4.26813e-09
-1.27301e-06
1.05925e-08
-1.27334e-06
1.83931e-08
-1.2719e-06
2.47542e-08
-1.26981e-06
2.53423e-08
-1.26594e-06
1.66098e-08
-1.23907e-06
-1.11314e-06
-5.68607e-09
-1.14682e-06
-9.93683e-09
-1.26156e-06
-1.10352e-08
-1.27898e-06
-9.81164e-09
-1.27816e-06
-8.00263e-09
-1.27888e-06
-5.9887e-09
-1.27933e-06
-4.34264e-09
-1.27761e-06
-3.15416e-09
-1.27433e-06
-2.30916e-09
-1.27094e-06
-1.79621e-09
-1.26878e-06
-1.22437e-09
-1.26849e-06
-6.49751e-10
-1.27001e-06
3.04755e-10
-1.27251e-06
1.55019e-09
-1.27475e-06
3.32517e-09
-1.27559e-06
5.63096e-09
-1.27465e-06
7.51626e-09
-1.27245e-06
7.29638e-09
-1.26656e-06
3.97099e-09
-1.23658e-06
-1.10924e-06
-3.80086e-09
-1.14328e-06
-2.16029e-09
-1.26347e-06
-4.61639e-10
-1.28102e-06
3.37518e-10
-1.27918e-06
5.39887e-10
-1.27937e-06
7.35973e-10
-1.27969e-06
8.00582e-10
-1.27788e-06
8.90954e-10
-1.27455e-06
1.00977e-09
-1.27123e-06
1.25302e-09
-1.26916e-06
1.62449e-09
-1.26901e-06
2.10879e-09
-1.27067e-06
2.69384e-09
-1.27326e-06
3.25999e-09
-1.27548e-06
3.72775e-09
-1.27622e-06
3.97163e-09
-1.27506e-06
3.68041e-09
-1.27225e-06
2.70522e-09
-1.26584e-06
1.61838e-09
-1.23579e-06
-1.10763e-06
-1.98623e-09
-1.14119e-06
-2.38226e-09
-1.26308e-06
-2.31001e-09
-1.28101e-06
-1.82338e-09
-1.2797e-06
-1.04667e-09
-1.28013e-06
-3.45259e-10
-1.28044e-06
2.9581e-10
-1.27855e-06
7.94411e-10
-1.27513e-06
1.29929e-09
-1.2718e-06
1.86048e-09
-1.26983e-06
2.58455e-09
-1.26985e-06
3.48917e-09
-1.27168e-06
4.50733e-09
-1.27441e-06
5.46913e-09
-1.27655e-06
5.82117e-09
-1.27668e-06
4.89332e-09
-1.27423e-06
3.00998e-09
-1.27041e-06
1.73362e-09
-1.26455e-06
1.56519e-09
-1.23564e-06
-1.10606e-06
-2.32025e-10
-1.14094e-06
-3.89178e-09
-1.25953e-06
-6.59988e-09
-1.27828e-06
-7.4563e-09
-1.27893e-06
-6.88122e-09
-1.2807e-06
-5.69046e-09
-1.28172e-06
-4.10578e-09
-1.28016e-06
-2.45753e-09
-1.27686e-06
-7.23777e-10
-1.27358e-06
1.08213e-09
-1.27171e-06
2.98197e-09
-1.2718e-06
4.77182e-09
-1.27359e-06
6.33323e-09
-1.27603e-06
7.20194e-09
-1.27757e-06
7.05078e-09
-1.27667e-06
5.5553e-09
-1.27291e-06
3.05959e-09
-1.268e-06
6.20476e-10
-1.26211e-06
-3.05094e-10
-1.23476e-06
-1.10641e-06
1.84291e-09
-1.14319e-06
-2.19989e-09
-1.256e-06
-6.23088e-09
-1.27463e-06
-8.75534e-09
-1.27682e-06
-9.47e-09
-1.28029e-06
-8.87865e-09
-1.28261e-06
-7.34739e-09
-1.28191e-06
-5.29497e-09
-1.27912e-06
-2.99038e-09
-1.27606e-06
-6.60635e-10
-1.27421e-06
1.59341e-09
-1.27421e-06
3.6721e-09
-1.2758e-06
5.43455e-09
-1.27792e-06
6.52585e-09
-1.27887e-06
6.89427e-09
-1.2772e-06
6.41075e-09
-1.27275e-06
4.98847e-09
-1.26681e-06
2.24422e-09
-1.2596e-06
-6.02586e-10
-1.23217e-06
-1.10709e-06
1.3783e-09
-1.14534e-06
-5.81188e-10
-1.25481e-06
-1.89444e-09
-1.27402e-06
-3.80278e-09
-1.27552e-06
-5.50599e-09
-1.27912e-06
-6.17431e-09
-1.28235e-06
-5.86283e-09
-1.28259e-06
-4.82187e-09
-1.28045e-06
-3.43933e-09
-1.27771e-06
-1.9844e-09
-1.27589e-06
-5.64391e-10
-1.27582e-06
6.98196e-10
-1.27731e-06
1.94253e-09
-1.27931e-06
2.83505e-09
-1.28006e-06
3.20164e-09
-1.27787e-06
2.7714e-09
-1.27272e-06
1.99332e-09
-1.26645e-06
1.24957e-09
-1.25924e-06
-4.38485e-10
-1.23084e-06
-1.10757e-06
-2.58527e-09
-1.1433e-06
-1.30439e-09
-1.25656e-06
1.03651e-09
-1.27687e-06
1.72706e-09
-1.27661e-06
1.11807e-09
-1.27892e-06
2.11876e-10
-1.28174e-06
-6.22958e-10
-1.28204e-06
-1.1231e-09
-1.28016e-06
-1.32745e-09
-1.27772e-06
-1.3209e-09
-1.27609e-06
-1.24737e-09
-1.27608e-06
-1.20083e-09
-1.27755e-06
-1.18673e-09
-1.2795e-06
-1.2618e-09
-1.28024e-06
-1.11836e-09
-1.27825e-06
-7.72933e-10
-1.27341e-06
1.13498e-10
-1.26763e-06
1.19858e-09
-1.26056e-06
8.52073e-10
-1.23068e-06
-1.10672e-06
-1.93281e-09
-1.14134e-06
1.02098e-09
-1.25952e-06
1.87533e-09
-1.2777e-06
1.52378e-09
-1.27628e-06
1.16491e-09
-1.27857e-06
6.69981e-10
-1.28129e-06
1.35096e-10
-1.28155e-06
-3.44716e-10
-1.27974e-06
-7.857e-10
-1.27734e-06
-1.21866e-09
-1.27574e-06
-1.61358e-09
-1.27575e-06
-2.07262e-09
-1.27723e-06
-2.51848e-09
-1.27915e-06
-3.04362e-09
-1.27993e-06
-3.13015e-09
-1.27835e-06
-2.58646e-09
-1.27423e-06
-1.16442e-09
-1.26919e-06
5.04395e-10
-1.26224e-06
1.25533e-09
-1.23137e-06
-1.10542e-06
1.8898e-10
-1.14156e-06
2.45008e-10
-1.25971e-06
-1.09357e-09
-1.27633e-06
-2.50254e-09
-1.27498e-06
-2.95988e-09
-1.27809e-06
-2.86397e-09
-1.28148e-06
-2.33291e-09
-1.28209e-06
-1.82657e-09
-1.28034e-06
-1.42593e-09
-1.27777e-06
-1.32029e-09
-1.27595e-06
-1.37369e-09
-1.27575e-06
-1.70562e-09
-1.27704e-06
-2.1028e-09
-1.27885e-06
-2.48071e-09
-1.27973e-06
-2.59967e-09
-1.2784e-06
-2.41771e-09
-1.27462e-06
-1.5923e-09
-1.27008e-06
1.98574e-10
-1.26385e-06
2.31646e-09
-1.23326e-06
-1.10306e-06
8.04163e-10
-1.1428e-06
-1.17739e-09
-1.25816e-06
-1.82585e-09
-1.27602e-06
-2.11918e-09
-1.275e-06
-2.22291e-09
-1.2782e-06
-2.04108e-09
-1.28187e-06
-1.54293e-09
-1.28271e-06
-9.37072e-10
-1.28109e-06
-2.24267e-10
-1.27857e-06
4.061e-10
-1.27669e-06
9.18255e-10
-1.27634e-06
1.23889e-09
-1.27746e-06
1.4933e-09
-1.27921e-06
1.75436e-09
-1.28012e-06
2.01564e-09
-1.27881e-06
1.99553e-09
-1.27479e-06
1.43501e-09
-1.26953e-06
7.54269e-10
-1.26301e-06
1.25306e-09
-1.23359e-06
-1.10182e-06
-9.96351e-11
-1.14328e-06
-1.45175e-09
-1.25735e-06
-1.14135e-09
-1.27681e-06
-3.04072e-10
-1.27622e-06
3.2238e-10
-1.27915e-06
6.54924e-10
-1.28246e-06
8.7993e-10
-1.28315e-06
1.14496e-09
-1.28154e-06
1.62073e-09
-1.2792e-06
2.28621e-09
-1.27752e-06
3.19317e-09
-1.27737e-06
4.20966e-09
-1.27865e-06
5.26219e-09
-1.28038e-06
5.89024e-09
-1.28097e-06
5.94627e-09
-1.27907e-06
5.01867e-09
-1.27419e-06
3.00055e-09
-1.2677e-06
1.14817e-10
-1.26024e-06
-2.06159e-09
-1.23154e-06
-1.10395e-06
-7.74796e-10
-1.14297e-06
-1.38414e-09
-1.25725e-06
-9.47996e-10
-1.27764e-06
-1.22215e-10
-1.27742e-06
5.5785e-10
-1.2801e-06
8.90365e-10
-1.28308e-06
1.10612e-09
-1.28355e-06
1.19137e-09
-1.28188e-06
1.41106e-09
-1.27956e-06
1.70011e-09
-1.27805e-06
2.294e-09
-1.27809e-06
2.89459e-09
-1.27951e-06
3.55199e-09
-1.28119e-06
3.71698e-09
-1.28146e-06
3.32045e-09
-1.27897e-06
2.17406e-09
-1.27344e-06
7.87075e-10
-1.26672e-06
-4.92823e-10
-1.25932e-06
-2.42317e-09
-1.22997e-06
-1.10644e-06
-2.53687e-10
-1.14315e-06
-2.93227e-10
-1.25766e-06
-2.97314e-10
-1.27799e-06
-2.07406e-10
-1.27787e-06
-2.73313e-10
-1.28027e-06
-4.7183e-10
-1.28315e-06
-5.12839e-10
-1.28367e-06
-5.87879e-10
-1.28204e-06
-5.30963e-10
-1.27975e-06
-5.61496e-10
-1.27825e-06
-5.07531e-10
-1.27827e-06
-6.47069e-10
-1.27963e-06
-7.11924e-10
-1.28128e-06
-8.76862e-10
-1.28161e-06
-9.05074e-10
-1.27922e-06
-8.55631e-10
-1.27387e-06
-4.08285e-10
-1.26753e-06
1.55695e-10
-1.26025e-06
-6.27861e-10
-1.22953e-06
-1.10712e-06
1.73394e-09
-1.14523e-06
4.84969e-10
-1.25686e-06
-1.72077e-09
-1.27606e-06
-3.42221e-09
-1.27652e-06
-4.17307e-09
-1.27972e-06
-4.29607e-09
-1.2833e-06
-3.9e-09
-1.2842e-06
-3.53642e-09
-1.28262e-06
-3.16031e-09
-1.28024e-06
-3.00967e-09
-1.27861e-06
-2.90345e-09
-1.27848e-06
-3.04767e-09
-1.27971e-06
-3.16494e-09
-1.2813e-06
-3.33516e-09
-1.28172e-06
-3.18555e-09
-1.27959e-06
-2.70997e-09
-1.27468e-06
-1.64536e-09
-1.26885e-06
-4.56805e-10
-1.26166e-06
5.01878e-11
-1.23024e-06
-1.10709e-06
2.01202e-09
-1.14764e-06
4.52195e-10
-1.25572e-06
-2.01721e-09
-1.27392e-06
-4.59593e-09
-1.2743e-06
-5.82309e-09
-1.27874e-06
-6.02116e-09
-1.28336e-06
-5.61074e-09
-1.28477e-06
-5.18768e-09
-1.28325e-06
-4.75923e-09
-1.28079e-06
-4.50506e-09
-1.27906e-06
-4.24972e-09
-1.27885e-06
-4.15532e-09
-1.28004e-06
-4.01388e-09
-1.28159e-06
-3.984e-09
-1.28201e-06
-3.88753e-09
-1.27992e-06
-3.5287e-09
-1.27532e-06
-2.42212e-09
-1.27015e-06
-9.72429e-10
-1.26322e-06
4.4697e-10
-1.23177e-06
-1.10666e-06
-7.73352e-10
-1.14718e-06
-2.51642e-09
-1.25437e-06
-3.22785e-09
-1.27349e-06
-3.98805e-09
-1.27388e-06
-4.44894e-09
-1.27849e-06
-4.84344e-09
-1.28323e-06
-5.0108e-09
-1.28476e-06
-5.03395e-09
-1.28343e-06
-4.86319e-09
-1.28109e-06
-4.71611e-09
-1.27939e-06
-4.49536e-09
-1.27921e-06
-4.19756e-09
-1.28051e-06
-3.68724e-09
-1.28229e-06
-2.94088e-09
-1.28297e-06
-2.04283e-09
-1.28105e-06
-1.2187e-09
-1.27643e-06
-3.88839e-10
-1.27117e-06
-1.34559e-10
-1.26361e-06
-7.45825e-12
-1.23203e-06
-1.10671e-06
-5.34111e-10
-1.14702e-06
-2.06277e-09
-1.25328e-06
-2.46072e-09
-1.27341e-06
-2.64126e-09
-1.27408e-06
-2.90108e-09
-1.27848e-06
-3.42e-09
-1.283e-06
-3.81684e-09
-1.28454e-06
-4.07353e-09
-1.2834e-06
-4.09512e-09
-1.2812e-06
-4.12519e-09
-1.27956e-06
-4.07742e-09
-1.27939e-06
-4.05639e-09
-1.28075e-06
-3.82103e-09
-1.2827e-06
-3.35999e-09
-1.28367e-06
-2.69069e-09
-1.28199e-06
-2.16741e-09
-1.27724e-06
-1.964e-09
-1.27165e-06
-1.623e-09
-1.26416e-06
-1.38284e-09
-1.23245e-06
-1.10813e-06
-1.22498e-10
-1.14735e-06
1.04274e-09
-1.25492e-06
1.19694e-09
-1.27395e-06
4.321e-10
-1.27372e-06
-4.46269e-10
-1.27788e-06
-1.24176e-09
-1.28251e-06
-1.72135e-09
-1.28425e-06
-2.05674e-09
-1.2833e-06
-2.15233e-09
-1.28125e-06
-2.26028e-09
-1.27966e-06
-2.38562e-09
-1.2794e-06
-2.79601e-09
-1.28054e-06
-3.43247e-09
-1.28223e-06
-4.28144e-09
-1.28305e-06
-4.90047e-09
-1.28159e-06
-4.94684e-09
-1.27745e-06
-4.23654e-09
-1.2726e-06
-2.47855e-09
-1.26611e-06
-2.16815e-10
-1.23492e-06
-1.1084e-06
-5.9593e-10
-1.14717e-06
2.79393e-10
-1.25623e-06
9.61319e-10
-1.27498e-06
1.10505e-09
-1.27422e-06
8.97454e-10
-1.27791e-06
4.41407e-10
-1.28233e-06
6.4765e-11
-1.28404e-06
-2.62347e-10
-1.28318e-06
-3.7473e-10
-1.28128e-06
-4.35213e-10
-1.27978e-06
-3.80117e-10
-1.27958e-06
-4.41571e-10
-1.28068e-06
-6.29343e-10
-1.28221e-06
-1.01199e-09
-1.28289e-06
-1.34866e-09
-1.2815e-06
-1.38674e-09
-1.27768e-06
-1.17907e-09
-1.27304e-06
-1.27635e-09
-1.26627e-06
-5.6172e-10
-1.23594e-06
-1.10904e-06
-1.77434e-10
-1.14738e-06
-6.02222e-10
-1.25625e-06
2.19132e-10
-1.2761e-06
1.31426e-09
-1.27567e-06
2.00715e-09
-1.27881e-06
2.03239e-09
-1.28264e-06
1.79488e-09
-1.28396e-06
1.27591e-09
-1.2829e-06
8.2862e-10
-1.28097e-06
4.26892e-10
-1.2796e-06
3.75942e-10
-1.27969e-06
6.32757e-10
-1.28114e-06
1.23853e-09
-1.28301e-06
1.96992e-09
-1.28388e-06
2.40628e-09
-1.2822e-06
1.9599e-09
-1.27758e-06
6.19966e-10
-1.27205e-06
-1.44638e-09
-1.26461e-06
-2.88664e-09
-1.2349e-06
-1.11199e-06
-5.11742e-10
-1.14722e-06
8.96438e-10
-1.25802e-06
2.59938e-09
-1.27806e-06
3.9724e-09
-1.27733e-06
4.67117e-09
-1.27967e-06
4.51459e-09
-1.28271e-06
3.92323e-09
-1.28346e-06
2.88783e-09
-1.28206e-06
1.8215e-09
-1.27998e-06
6.90066e-10
-1.27865e-06
-1.65643e-10
-1.27891e-06
-8.78159e-10
-1.28063e-06
-1.17558e-09
-1.28284e-06
-1.30407e-09
-1.28396e-06
-1.49366e-09
-1.28227e-06
-1.94536e-09
-1.27737e-06
-2.5128e-09
-1.2718e-06
-2.46111e-09
-1.26494e-06
-2.65182e-09
-1.23495e-06
-1.11464e-06
-1.10668e-09
-1.1463e-06
2.03255e-09
-1.26133e-06
4.29538e-09
-1.28044e-06
5.55017e-09
-1.27871e-06
6.02928e-09
-1.2802e-06
5.71941e-09
-1.28251e-06
4.9307e-09
-1.28269e-06
3.65103e-09
-1.28089e-06
2.23467e-09
-1.27857e-06
6.3318e-10
-1.27717e-06
-8.39938e-10
-1.27745e-06
-2.2756e-09
-1.27929e-06
-3.4909e-09
-1.28165e-06
-4.63163e-09
-1.28293e-06
-5.36761e-09
-1.2816e-06
-5.35075e-09
-1.27751e-06
-4.41176e-09
-1.27282e-06
-2.41396e-09
-1.26694e-06
-3.55494e-10
-1.23699e-06
-1.11498e-06
-1.6318e-09
-1.14478e-06
-1.53628e-09
-1.26157e-06
-7.15112e-10
-1.28131e-06
1.18811e-09
-1.28071e-06
3.05441e-09
-1.28206e-06
3.91656e-09
-1.28343e-06
3.84103e-09
-1.2826e-06
2.9251e-09
-1.28003e-06
1.58782e-09
-1.27723e-06
-2.6389e-12
-1.27562e-06
-1.47897e-09
-1.27597e-06
-2.75468e-09
-1.27809e-06
-3.58985e-09
-1.28086e-06
-3.94255e-09
-1.28266e-06
-3.59376e-09
-1.28203e-06
-2.62724e-09
-1.2786e-06
-1.70191e-09
-1.27373e-06
-1.06213e-09
-1.2675e-06
5.94322e-11
-1.23803e-06
-1.11492e-06
-2.48748e-09
-1.14252e-06
-3.88525e-09
-1.26042e-06
-2.97535e-09
-1.28239e-06
-6.64399e-10
-1.28319e-06
1.27073e-09
-1.28408e-06
2.12966e-09
-1.28441e-06
2.13219e-09
-1.28265e-06
1.42891e-09
-1.27943e-06
4.00233e-10
-1.27623e-06
-8.76279e-10
-1.27445e-06
-2.15543e-09
-1.27477e-06
-3.35384e-09
-1.27698e-06
-4.22094e-09
-1.28011e-06
-4.38412e-09
-1.28261e-06
-3.62792e-09
-1.28293e-06
-2.16715e-09
-1.28023e-06
-6.18458e-10
-1.27541e-06
4.14793e-10
-1.26858e-06
7.26086e-10
-1.23836e-06
-1.11421e-06
-1.20329e-09
-1.14158e-06
2.53055e-10
-1.26213e-06
1.43571e-09
-1.28379e-06
9.59185e-10
-1.28289e-06
-2.22264e-10
-1.28302e-06
-1.12994e-09
-1.28362e-06
-1.5377e-09
-1.28231e-06
-1.67117e-09
-1.2794e-06
-1.60842e-09
-1.27634e-06
-1.62276e-09
-1.27455e-06
-1.71719e-09
-1.27472e-06
-2.09407e-09
-1.27674e-06
-2.59594e-09
-1.2797e-06
-3.19515e-09
-1.28216e-06
-3.67099e-09
-1.28265e-06
-3.46628e-09
-1.28061e-06
-1.96233e-09
-1.2771e-06
-8.94984e-12
-1.27064e-06
1.04198e-09
-1.23953e-06
-1.11321e-06
7.01854e-10
-1.14257e-06
1.36513e-09
-1.26308e-06
-5.25235e-10
-1.28213e-06
-3.15781e-09
-1.28049e-06
-4.77897e-09
-1.28157e-06
-5.33482e-09
-1.28323e-06
-4.96126e-09
-1.2828e-06
-4.03549e-09
-1.28046e-06
-2.81019e-09
-1.27768e-06
-1.56126e-09
-1.27592e-06
-4.17336e-10
-1.27597e-06
5.38976e-10
-1.27779e-06
1.20566e-09
-1.28048e-06
1.44765e-09
-1.28251e-06
1.17459e-09
-1.2825e-06
4.44696e-10
-1.28004e-06
-3.25698e-10
-1.27646e-06
-8.43683e-10
-1.27028e-06
-6.01882e-10
-1.23998e-06
-1.11388e-06
1.06035e-09
-1.14388e-06
-1.00838e-09
-1.26129e-06
-4.31867e-09
-1.27905e-06
-6.22853e-09
-1.27881e-06
-6.39827e-09
-1.2816e-06
-5.72714e-09
-1.28408e-06
-4.56392e-09
-1.28412e-06
-3.17733e-09
-1.28199e-06
-1.68089e-09
-1.2793e-06
-1.34213e-10
-1.27758e-06
1.42741e-09
-1.27762e-06
2.84429e-09
-1.27933e-06
4.0615e-09
-1.28176e-06
4.81755e-09
-1.2834e-06
4.99037e-09
-1.28282e-06
4.34311e-09
-1.27958e-06
2.57696e-09
-1.2749e-06
4.29413e-10
-1.26843e-06
-3.24427e-10
-1.23958e-06
-1.11429e-06
9.90471e-10
-1.14517e-06
-8.68418e-10
-1.2597e-06
-1.89597e-09
-1.27829e-06
-2.90222e-09
-1.27805e-06
-3.5179e-09
-1.28121e-06
-3.32443e-09
-1.28448e-06
-2.53389e-09
-1.28508e-06
-1.50175e-09
-1.28319e-06
-3.46015e-10
-1.28059e-06
8.78026e-10
-1.27895e-06
2.21343e-09
-1.27909e-06
3.56705e-09
-1.2808e-06
4.82476e-09
-1.28311e-06
5.66955e-09
-1.28439e-06
5.88268e-09
-1.28317e-06
5.31388e-09
-1.27923e-06
3.86852e-09
-1.27375e-06
1.77196e-09
-1.26673e-06
-1.37267e-10
-1.2381e-06
-1.11449e-06
-4.47433e-10
-1.14488e-06
-5.31743e-10
-1.25976e-06
3.82111e-10
-1.27935e-06
6.90786e-10
-1.27849e-06
4.80439e-10
-1.28111e-06
2.31551e-10
-1.28435e-06
1.31507e-10
-1.28506e-06
2.41431e-10
-1.2834e-06
5.61458e-10
-1.28097e-06
9.40082e-10
-1.27943e-06
1.46164e-09
-1.27964e-06
2.00379e-09
-1.28145e-06
2.7052e-09
-1.28382e-06
3.23894e-09
-1.28503e-06
3.40384e-09
-1.28343e-06
2.99854e-09
-1.27895e-06
2.33546e-09
-1.2733e-06
1.67187e-09
-1.26631e-06
-1.51808e-10
-1.23653e-06
-1.11464e-06
-5.9909e-10
-1.14435e-06
1.60124e-10
-1.26057e-06
1.42347e-09
-1.28067e-06
2.6827e-09
-1.27979e-06
3.30783e-09
-1.28177e-06
3.22633e-09
-1.28429e-06
2.68812e-09
-1.28454e-06
2.05561e-09
-1.28279e-06
1.53452e-09
-1.28045e-06
1.08894e-09
-1.279e-06
6.8298e-10
-1.27922e-06
2.48883e-10
-1.28102e-06
-1.20944e-10
-1.2834e-06
-4.72439e-10
-1.2847e-06
-4.7162e-10
-1.28336e-06
-2.08429e-10
-1.27923e-06
6.31363e-10
-1.2741e-06
1.66842e-09
-1.26731e-06
1.30388e-09
-1.2361e-06
-1.11328e-06
-3.07191e-10
-1.14407e-06
9.31769e-10
-1.26174e-06
2.34261e-09
-1.28207e-06
3.63688e-09
-1.28101e-06
4.11448e-09
-1.28222e-06
4.03809e-09
-1.28416e-06
3.61402e-09
-1.28408e-06
3.00904e-09
-1.28213e-06
2.28846e-09
-1.2797e-06
1.5438e-09
-1.2782e-06
7.67383e-10
-1.2784e-06
-6.29099e-11
-1.28017e-06
-8.70998e-10
-1.28254e-06
-1.63634e-09
-1.28392e-06
-1.95427e-09
-1.283e-06
-1.58208e-09
-1.27955e-06
-3.45199e-10
-1.27517e-06
1.27708e-09
-1.26867e-06
2.18556e-09
-1.23671e-06
-1.11103e-06
3.08231e-10
-1.14433e-06
1.82659e-10
-1.26156e-06
4.08667e-10
-1.28223e-06
1.26455e-09
-1.2818e-06
2.03683e-09
-1.28292e-06
2.61088e-09
-1.28467e-06
3.02531e-09
-1.28445e-06
3.17622e-09
-1.28223e-06
3.00779e-09
-1.27949e-06
2.56127e-09
-1.27771e-06
1.90708e-09
-1.27771e-06
1.15925e-09
-1.27936e-06
3.36521e-10
-1.28167e-06
-3.44744e-10
-1.28318e-06
-7.38108e-10
-1.28251e-06
-8.22554e-10
-1.2794e-06
-2.86469e-10
-1.27553e-06
1.2805e-09
-1.26992e-06
3.42489e-09
-1.23852e-06
-1.10756e-06
3.9733e-11
-1.14435e-06
1.40665e-10
-1.26161e-06
5.26582e-10
-1.28259e-06
1.24352e-09
-1.28244e-06
2.23701e-09
-1.28388e-06
3.26617e-09
-1.28563e-06
4.05184e-09
-1.28519e-06
4.56135e-09
-1.28267e-06
4.78698e-09
-1.27967e-06
4.83503e-09
-1.27769e-06
4.71335e-09
-1.27754e-06
4.49025e-09
-1.27908e-06
4.24856e-09
-1.28138e-06
4.13572e-09
-1.283e-06
4.11323e-09
-1.28246e-06
3.84273e-09
-1.27909e-06
2.88257e-09
-1.27446e-06
1.76541e-09
-1.26863e-06
2.03514e-09
-1.23864e-06
-1.10554e-06
-1.74729e-09
-1.14252e-06
-1.23605e-10
-1.26312e-06
1.47581e-09
-1.2841e-06
2.73551e-09
-1.28362e-06
3.82464e-09
-1.28489e-06
4.50272e-09
-1.28625e-06
4.81248e-09
-1.28545e-06
5.01168e-09
-1.28285e-06
5.33493e-09
-1.27996e-06
5.82877e-09
-1.27817e-06
6.46324e-09
-1.27818e-06
7.18209e-09
-1.27977e-06
7.79145e-09
-1.28198e-06
8.11409e-09
-1.28331e-06
7.90028e-09
-1.28225e-06
6.76897e-09
-1.278e-06
4.42693e-09
-1.27217e-06
1.30875e-09
-1.26561e-06
-7.61281e-10
-1.23669e-06
-1.10635e-06
-4.08201e-10
-1.14199e-06
-6.58266e-10
-1.2628e-06
-1.24941e-09
-1.28341e-06
-1.2345e-09
-1.28358e-06
-6.46838e-10
-1.28539e-06
-4.04226e-11
-1.28682e-06
6.20738e-10
-1.28604e-06
1.3399e-09
-1.28355e-06
2.22954e-09
-1.2808e-06
3.19669e-09
-1.27915e-06
4.29296e-09
-1.27922e-06
5.26779e-09
-1.28078e-06
6.10034e-09
-1.28276e-06
6.34668e-09
-1.28359e-06
5.79069e-09
-1.28172e-06
4.39663e-09
-1.27665e-06
2.61431e-09
-1.27053e-06
9.99667e-10
-1.26421e-06
-7.05134e-10
-1.23522e-06
-1.10709e-06
1.70656e-09
-1.14377e-06
-2.76347e-10
-1.26093e-06
-3.00007e-09
-1.28074e-06
-5.09086e-09
-1.28156e-06
-5.87575e-09
-1.28464e-06
-5.50122e-09
-1.28723e-06
-4.32485e-09
-1.28723e-06
-2.91501e-09
-1.28498e-06
-1.5361e-09
-1.28218e-06
-3.47905e-10
-1.28036e-06
6.786e-10
-1.28024e-06
1.50566e-09
-1.28161e-06
2.19139e-09
-1.2834e-06
2.55432e-09
-1.28397e-06
2.60567e-09
-1.28171e-06
2.34151e-09
-1.27638e-06
2.04229e-09
-1.27027e-06
1.64918e-09
-1.26395e-06
3.53425e-10
-1.23406e-06
-1.10674e-06
9.53476e-10
-1.14482e-06
-6.91387e-10
-1.25932e-06
-1.99202e-09
-1.27954e-06
-3.51208e-09
-1.28006e-06
-4.62907e-09
-1.28361e-06
-4.71758e-09
-1.28715e-06
-4.15331e-09
-1.28785e-06
-3.24799e-09
-1.28587e-06
-2.36492e-09
-1.28308e-06
-1.53556e-09
-1.28116e-06
-8.39442e-10
-1.28092e-06
-2.80664e-10
-1.28217e-06
1.89274e-10
-1.28384e-06
5.55489e-10
-1.28432e-06
9.63661e-10
-1.28206e-06
1.40506e-09
-1.27676e-06
1.71845e-09
-1.27051e-06
1.46172e-09
-1.26366e-06
3.64312e-10
-1.23295e-06
-1.10635e-06
-1.71292e-09
-1.14301e-06
-2.09902e-09
-1.25883e-06
-1.64891e-09
-1.27995e-06
-1.43296e-09
-1.2802e-06
-1.57338e-09
-1.28347e-06
-1.72711e-09
-1.28693e-06
-1.93601e-09
-1.28765e-06
-1.89465e-09
-1.28586e-06
-1.77831e-09
-1.2832e-06
-1.56906e-09
-1.28132e-06
-1.41542e-09
-1.28109e-06
-1.23333e-09
-1.28229e-06
-1.13801e-09
-1.28393e-06
-9.68674e-10
-1.28443e-06
-6.75018e-10
-1.28227e-06
-2.11851e-10
-1.27713e-06
3.44788e-10
-1.27094e-06
4.89755e-10
-1.26369e-06
7.9917e-11
-1.2324e-06
-1.10624e-06
-1.98382e-09
-1.14077e-06
-1.62837e-09
-1.25892e-06
-1.12365e-09
-1.28024e-06
-5.32735e-10
-1.2806e-06
-2.83007e-10
-1.28359e-06
-4.28727e-10
-1.28664e-06
-9.19031e-10
-1.28708e-06
-1.34701e-09
-1.28531e-06
-1.68853e-09
-1.28282e-06
-1.83257e-09
-1.28108e-06
-1.96695e-09
-1.28092e-06
-2.00739e-09
-1.28218e-06
-2.06496e-09
-1.28385e-06
-2.00694e-09
-1.2844e-06
-1.86743e-09
-1.28235e-06
-1.47301e-09
-1.27739e-06
-8.23622e-10
-1.27145e-06
-2.03814e-11
-1.26433e-06
7.38239e-10
-1.23298e-06
-1.10547e-06
-1.0619e-09
-1.13939e-06
-7.72689e-10
-1.25887e-06
-5.9088e-10
-1.28016e-06
-4.03996e-10
-1.28055e-06
-6.01654e-10
-1.28321e-06
-9.85477e-10
-1.28611e-06
-1.3957e-09
-1.28656e-06
-1.76969e-09
-1.28484e-06
-2.08104e-09
-1.28244e-06
-2.24936e-09
-1.28083e-06
-2.37601e-09
-1.28076e-06
-2.34075e-09
-1.28211e-06
-2.28989e-09
-1.28388e-06
-2.04392e-09
-1.28452e-06
-1.63464e-09
-1.28266e-06
-8.24347e-10
-1.27803e-06
8.25144e-11
-1.27221e-06
9.5416e-10
-1.26505e-06
1.95531e-09
-1.23388e-06
-1.10353e-06
2.45537e-10
-1.13942e-06
-8.76952e-10
-1.25757e-06
-2.25267e-09
-1.2786e-06
-3.02769e-09
-1.27964e-06
-3.42127e-09
-1.2827e-06
-3.48152e-09
-1.28595e-06
-3.30548e-09
-1.28668e-06
-3.07331e-09
-1.28499e-06
-2.94925e-09
-1.28254e-06
-2.79577e-09
-1.28089e-06
-2.65347e-09
-1.28088e-06
-2.28727e-09
-1.28239e-06
-1.72196e-09
-1.28443e-06
-7.44823e-10
-1.2854e-06
5.03419e-10
-1.28386e-06
2.02927e-09
-1.27948e-06
3.03736e-09
-1.27317e-06
2.50074e-09
-1.26462e-06
1.44514e-09
-1.23298e-06
-1.10215e-06
1.30527e-09
-1.14081e-06
2.23605e-10
-1.2565e-06
-1.1766e-09
-1.27729e-06
-2.44968e-09
-1.27838e-06
-3.0917e-09
-1.28213e-06
-3.08597e-09
-1.28596e-06
-2.84914e-09
-1.28696e-06
-2.59228e-09
-1.28525e-06
-2.50019e-09
-1.28267e-06
-2.5209e-09
-1.28089e-06
-2.64282e-09
-1.28082e-06
-2.65937e-09
-1.28239e-06
-2.48979e-09
-1.28468e-06
-1.85123e-09
-1.28605e-06
-9.76503e-10
-1.28481e-06
-3.87762e-11
-1.28046e-06
7.26097e-10
-1.27413e-06
1.0199e-09
-1.26523e-06
4.51559e-10
-1.23268e-06
-1.10171e-06
6.47687e-10
-1.14152e-06
1.21207e-09
-1.25706e-06
1.73483e-09
-1.27789e-06
1.74693e-09
-1.27838e-06
1.38362e-09
-1.28182e-06
9.41584e-10
-1.28551e-06
4.16946e-10
-1.28647e-06
4.01343e-11
-1.28488e-06
-3.1571e-10
-1.28233e-06
-7.36108e-10
-1.28048e-06
-1.35216e-09
-1.28022e-06
-2.20014e-09
-1.28155e-06
-3.30406e-09
-1.2836e-06
-4.31672e-09
-1.285e-06
-5.08663e-09
-1.28406e-06
-5.30409e-09
-1.28013e-06
-4.56596e-09
-1.27492e-06
-1.9685e-09
-1.26787e-06
1.35287e-09
-1.23601e-06
-1.10031e-06
-4.5503e-10
-1.14106e-06
1.48395e-09
-1.25892e-06
3.30661e-09
-1.27972e-06
4.71738e-09
-1.2797e-06
5.03178e-09
-1.28214e-06
4.66915e-09
-1.28506e-06
3.83192e-09
-1.28563e-06
3.08794e-09
-1.28403e-06
2.41059e-09
-1.28165e-06
1.99764e-09
-1.27995e-06
1.55392e-09
-1.27977e-06
1.16236e-09
-1.28101e-06
4.50567e-10
-1.28285e-06
-3.47419e-10
-1.284e-06
-1.23384e-09
-1.28298e-06
-1.87786e-09
-1.27921e-06
-2.13453e-09
-1.27435e-06
-1.47222e-09
-1.26824e-06
6.74572e-10
-1.23791e-06
-1.0996e-06
-2.16413e-10
-1.14072e-06
2.82235e-09
-1.26174e-06
4.90985e-09
-1.28169e-06
5.93501e-09
-1.28054e-06
5.97464e-09
-1.28209e-06
5.64439e-09
-1.28456e-06
5.03926e-09
-1.28497e-06
4.51445e-09
-1.28335e-06
4.04782e-09
-1.28114e-06
3.94085e-09
-1.27969e-06
3.97996e-09
-1.27976e-06
4.33525e-09
-1.2812e-06
4.69583e-09
-1.28317e-06
5.06397e-09
-1.28418e-06
5.03351e-09
-1.2828e-06
4.66321e-09
-1.27862e-06
3.40939e-09
-1.27285e-06
9.53808e-10
-1.2656e-06
-9.415e-10
-1.23589e-06
-1.10056e-06
8.45713e-10
-1.14135e-06
2.13407e-09
-1.26281e-06
2.78311e-09
-1.28213e-06
2.85707e-09
-1.28043e-06
2.73817e-09
-1.28181e-06
2.68675e-09
-1.28437e-06
2.7137e-09
-1.28489e-06
2.83871e-09
-1.28339e-06
3.05352e-09
-1.2813e-06
3.4639e-09
-1.28003e-06
4.03733e-09
-1.28031e-06
4.90762e-09
-1.28199e-06
5.79881e-09
-1.28406e-06
6.52722e-09
-1.28482e-06
6.57049e-09
-1.28281e-06
5.87528e-09
-1.27783e-06
4.02357e-09
-1.27101e-06
7.91208e-10
-1.26248e-06
-2.59027e-09
-1.23264e-06
-1.10319e-06
5.79069e-10
-1.14178e-06
-5.43429e-10
-1.26153e-06
-1.72345e-09
-1.28082e-06
-1.72893e-09
-1.2803e-06
-1.15564e-09
-1.28228e-06
-5.88148e-10
-1.28485e-06
-1.10831e-10
-1.28529e-06
2.90523e-10
-1.28373e-06
6.61841e-10
-1.28161e-06
1.0655e-09
-1.28038e-06
1.60648e-09
-1.2808e-06
2.31625e-09
-1.28266e-06
3.04352e-09
-1.28475e-06
3.55156e-09
-1.28527e-06
3.46901e-09
-1.28269e-06
2.6836e-09
-1.27694e-06
1.37041e-09
-1.26976e-06
-3.51988e-11
-1.26122e-06
-2.4632e-09
-1.23034e-06
-1.10564e-06
9.0249e-10
-1.14258e-06
-1.56784e-09
-1.25894e-06
-3.79103e-09
-1.27851e-06
-4.00734e-09
-1.27998e-06
-3.10361e-09
-1.28312e-06
-2.19038e-09
-1.28568e-06
-1.58156e-09
-1.28585e-06
-1.18532e-09
-1.28404e-06
-1.03602e-09
-1.2817e-06
-1.0406e-09
-1.2803e-06
-1.17451e-09
-1.2806e-06
-1.36242e-09
-1.28238e-06
-1.57651e-09
-1.28444e-06
-1.6677e-09
-1.28506e-06
-1.49921e-09
-1.2827e-06
-9.90548e-10
-1.27727e-06
-1.13679e-10
-1.27051e-06
7.49244e-10
-1.26202e-06
7.9606e-11
-1.22959e-06
-1.10551e-06
-6.25189e-10
-1.14179e-06
-2.62329e-09
-1.25679e-06
-3.01474e-09
-1.27801e-06
-2.67433e-09
-1.28018e-06
-2.16935e-09
-1.28355e-06
-1.62177e-09
-1.2861e-06
-1.35101e-09
-1.28606e-06
-1.27704e-09
-1.284e-06
-1.52971e-09
-1.28139e-06
-1.9827e-09
-1.27973e-06
-2.71072e-09
-1.27981e-06
-3.48851e-09
-1.28147e-06
-4.2186e-09
-1.28364e-06
-4.55795e-09
-1.28456e-06
-4.41873e-09
-1.28268e-06
-3.46924e-09
-1.27799e-06
-1.70028e-09
-1.27203e-06
5.85592e-11
-1.26351e-06
9.44761e-10
-1.23017e-06
-1.10449e-06
-3.56168e-09
-1.13797e-06
-3.77214e-09
-1.25635e-06
-2.237e-09
-1.27936e-06
-8.56029e-10
-1.28137e-06
-3.07668e-10
-1.28396e-06
-2.1207e-10
-1.28603e-06
-5.10842e-10
-1.28567e-06
-9.85878e-10
-1.28338e-06
-1.65835e-09
-1.28065e-06
-2.37299e-09
-1.27888e-06
-3.27807e-09
-1.27884e-06
-4.19076e-09
-1.28042e-06
-5.10581e-09
-1.28265e-06
-5.58747e-09
-1.2839e-06
-5.46237e-09
-1.28265e-06
-4.44996e-09
-1.27879e-06
-2.55186e-09
-1.27368e-06
-4.1239e-11
-1.26569e-06
2.37489e-09
-1.23222e-06
-1.10205e-06
-2.32167e-09
-1.13532e-06
-2.73635e-09
-1.2557e-06
-3.26195e-09
-1.27859e-06
-3.35441e-09
-1.28109e-06
-3.20767e-09
-1.28394e-06
-3.06176e-09
-1.28603e-06
-2.94688e-09
-1.28567e-06
-2.83552e-09
-1.28336e-06
-2.79939e-09
-1.28061e-06
-2.71909e-09
-1.27882e-06
-2.75731e-09
-1.27874e-06
-2.79e-09
-1.28024e-06
-2.94117e-09
-1.28245e-06
-2.81141e-09
-1.28387e-06
-2.36176e-09
-1.28299e-06
-1.57569e-09
-1.2794e-06
-7.61557e-10
-1.27428e-06
8.22767e-11
-1.26625e-06
1.45133e-09
-1.23331e-06
-1.10058e-06
6.91402e-10
-1.13575e-06
-3.22475e-10
-1.25453e-06
-3.11109e-09
-1.2756e-06
-5.76191e-09
-1.27834e-06
-7.04962e-09
-1.28252e-06
-7.13169e-09
-1.28585e-06
-6.3619e-09
-1.28635e-06
-5.25099e-09
-1.28438e-06
-4.08406e-09
-1.28171e-06
-2.87464e-09
-1.27994e-06
-1.68589e-09
-1.27989e-06
-4.25343e-10
-1.28139e-06
6.7613e-10
-1.28351e-06
1.61357e-09
-1.28467e-06
1.97236e-09
-1.28328e-06
1.66313e-09
-1.27895e-06
6.47275e-10
-1.27316e-06
-1.02664e-09
-1.2645e-06
-1.98713e-09
-1.23231e-06
-1.1026e-06
-6.5984e-10
-1.13482e-06
-1.05227e-09
-1.25394e-06
-2.26738e-09
-1.27419e-06
-4.18705e-09
-1.2763e-06
-5.45152e-09
-1.28112e-06
-5.79685e-09
-1.28542e-06
-5.46669e-09
-1.28659e-06
-4.81429e-09
-1.28497e-06
-4.00982e-09
-1.28245e-06
-3.08471e-09
-1.28081e-06
-2.00634e-09
-1.28091e-06
-7.44096e-10
-1.2826e-06
5.789e-10
-1.28478e-06
1.77441e-09
-1.28582e-06
2.52917e-09
-1.28399e-06
2.49915e-09
-1.2789e-06
1.71814e-09
-1.27242e-06
2.20881e-10
-1.26314e-06
-1.76764e-09
-1.23048e-06
-1.1044e-06
-3.24622e-09
-1.13115e-06
-3.73637e-09
-1.25313e-06
-3.56713e-09
-1.27403e-06
-3.70388e-09
-1.27597e-06
-3.75817e-09
-1.28087e-06
-3.82734e-09
-1.28525e-06
-3.93873e-09
-1.28636e-06
-4.06296e-09
-1.28479e-06
-4.06269e-09
-1.28238e-06
-4.01943e-09
-1.28082e-06
-3.8759e-09
-1.281e-06
-3.64824e-09
-1.28281e-06
-3.16178e-09
-1.28522e-06
-2.441e-09
-1.28653e-06
-1.51214e-09
-1.28491e-06
-7.08598e-10
-1.27969e-06
-2.38686e-10
-1.27299e-06
3.74759e-10
-1.26391e-06
-1.12249e-10
-1.23011e-06
-1.1045e-06
-9.37171e-10
-1.12992e-06
-3.8389e-09
-1.2501e-06
-5.86489e-09
-1.27179e-06
-6.57872e-09
-1.2752e-06
-6.25521e-09
-1.28107e-06
-5.71844e-09
-1.28576e-06
-5.20739e-09
-1.28681e-06
-4.82182e-09
-1.28516e-06
-4.48412e-09
-1.28268e-06
-4.26834e-09
-1.28103e-06
-4.19963e-09
-1.28104e-06
-4.31455e-09
-1.28267e-06
-4.51402e-09
-1.28497e-06
-4.67449e-09
-1.28633e-06
-4.43526e-09
-1.28508e-06
-3.35855e-09
-1.28068e-06
-1.46123e-09
-1.27481e-06
9.97803e-10
-1.26627e-06
2.90612e-09
-1.2319e-06
-1.10154e-06
6.09716e-10
-1.13068e-06
-1.88951e-09
-1.24779e-06
-3.0963e-09
-1.27075e-06
-3.64302e-09
-1.2748e-06
-3.9884e-09
-1.28086e-06
-4.18939e-09
-1.28563e-06
-4.11784e-09
-1.28696e-06
-3.69828e-09
-1.28558e-06
-3.192e-09
-1.28323e-06
-2.60793e-09
-1.28156e-06
-2.17699e-09
-1.28149e-06
-1.77242e-09
-1.28299e-06
-1.5739e-09
-1.28513e-06
-1.44927e-09
-1.28634e-06
-1.23809e-09
-1.28517e-06
-6.01201e-10
-1.28119e-06
3.08824e-10
-1.27551e-06
9.62182e-10
-1.26668e-06
2.12717e-09
-1.23286e-06
-1.0994e-06
-4.94544e-10
-1.13028e-06
5.5333e-10
-1.24884e-06
1.79666e-09
-1.2721e-06
1.70881e-09
-1.27471e-06
6.3358e-10
-1.27988e-06
-3.30553e-10
-1.28465e-06
-8.27131e-10
-1.28653e-06
-7.04427e-10
-1.28566e-06
-2.99467e-10
-1.28367e-06
4.35429e-10
-1.28224e-06
1.24976e-09
-1.28232e-06
2.20674e-09
-1.28387e-06
3.00356e-09
-1.28589e-06
3.49231e-09
-1.28674e-06
3.3246e-09
-1.28493e-06
2.25973e-09
-1.28006e-06
3.21015e-10
-1.27348e-06
-1.67532e-09
-1.26461e-06
-1.53756e-09
-1.23296e-06
-1.10096e-06
8.11476e-10
-1.13079e-06
1.23092e-09
-1.24902e-06
8.71319e-10
-1.27149e-06
-2.51314e-11
-1.27365e-06
-7.01314e-10
-1.27905e-06
-7.56992e-10
-1.2845e-06
-3.68243e-10
-1.28686e-06
2.15385e-10
-1.28619e-06
8.84081e-10
-1.28432e-06
1.70219e-09
-1.28301e-06
2.59183e-09
-1.2832e-06
3.53637e-09
-1.28478e-06
4.36839e-09
-1.28671e-06
4.92061e-09
-1.28728e-06
4.82102e-09
-1.28484e-06
3.68153e-09
-1.27896e-06
1.6593e-09
-1.27154e-06
-3.87378e-10
-1.2627e-06
-1.3266e-09
-1.23215e-06
-1.1023e-06
4.66328e-10
-1.13097e-06
5.71757e-10
-1.24888e-06
6.88135e-10
-1.27134e-06
7.95523e-10
-1.27359e-06
8.91498e-10
-1.27897e-06
8.84168e-10