/*--------------------------------*- C++ -*----------------------------------*\
  =========                 |
  \\      /  F ield         | OpenFOAM: The Open Source CFD Toolbox
   \\    /   O peration     | Website:  https://openfoam.org
    \\  /    A nd           | Version:  6
     \\/     M anipulation  |
\*---------------------------------------------------------------------------*/
FoamFile
{
    version     2.0;
    format      ascii;
    class       surfaceScalarField;
    location    "4";
    object      phi;
}
// * * * * * * * * * * * * * * * * * * * * * * * * * * * * * * * * * * * * * //

dimensions      [0 3 -1 0 0 0 0];

internalField   nonuniform List<scalar> 
258600
(
-3.04965e-09
-8.34137e-08
2.7105e-09
-3.26685e-09
-9.81202e-08
-3.38068e-09
-1.12967e-07
-3.4595e-09
-1.2672e-07
-3.55463e-09
-1.38573e-07
-3.67949e-09
-1.48245e-07
-3.83808e-09
-1.55811e-07
-4.01646e-09
-1.6153e-07
-4.20575e-09
-1.6573e-07
-4.3895e-09
-1.68722e-07
-4.56172e-09
-1.70772e-07
-4.71047e-09
-1.72079e-07
-4.83455e-09
-1.72778e-07
-4.9259e-09
-1.72951e-07
-4.9872e-09
-1.72636e-07
-5.01475e-09
-1.71852e-07
-5.01735e-09
-1.70629e-07
-5.00048e-09
-1.69034e-07
-4.98181e-09
-1.67219e-07
-1.65426e-07
-4.96979e-09
-4.09942e-09
-8.32402e-08
3.88605e-09
-4.23682e-09
-9.79963e-08
-4.30605e-09
-1.12911e-07
-4.36019e-09
-1.26691e-07
-4.42316e-09
-1.38537e-07
-4.52048e-09
-1.48184e-07
-4.64277e-09
-1.55722e-07
-4.79461e-09
-1.61418e-07
-4.95269e-09
-1.65604e-07
-5.11848e-09
-1.68592e-07
-5.2695e-09
-1.70648e-07
-5.41062e-09
-1.71967e-07
-5.52431e-09
-1.72685e-07
-5.61834e-09
-1.72879e-07
-5.68122e-09
-1.72588e-07
-5.72328e-09
-1.71827e-07
-5.74073e-09
-1.70622e-07
-5.74977e-09
-1.69037e-07
-5.7517e-09
-1.67224e-07
-1.65428e-07
-5.76185e-09
-5.96992e-09
-8.32724e-08
5.94487e-09
-5.97469e-09
-9.80271e-08
-5.97e-09
-1.1294e-07
-5.99589e-09
-1.26713e-07
-6.02843e-09
-1.38544e-07
-6.10221e-09
-1.48171e-07
-6.18335e-09
-1.55686e-07
-6.29908e-09
-1.61364e-07
-6.40877e-09
-1.65536e-07
-6.53804e-09
-1.68518e-07
-6.64683e-09
-1.70574e-07
-6.76206e-09
-1.71898e-07
-6.84828e-09
-1.72625e-07
-6.93353e-09
-1.7283e-07
-6.98847e-09
-1.72551e-07
-7.04155e-09
-1.71802e-07
-7.06914e-09
-1.70606e-07
-7.10037e-09
-1.69029e-07
-7.10879e-09
-1.67221e-07
-1.65432e-07
-7.12489e-09
-8.20562e-09
-8.33695e-08
8.21001e-09
-8.15432e-09
-9.8143e-08
-8.07932e-09
-1.13057e-07
-8.05293e-09
-1.26814e-07
-8.03107e-09
-1.38621e-07
-8.06344e-09
-1.48221e-07
-8.09548e-09
-1.55711e-07
-8.17157e-09
-1.61368e-07
-8.23435e-09
-1.65524e-07
-8.3276e-09
-1.68496e-07
-8.39612e-09
-1.70545e-07
-8.48405e-09
-1.71869e-07
-8.5412e-09
-1.72597e-07
-8.61105e-09
-1.72806e-07
-8.64953e-09
-1.72532e-07
-8.69864e-09
-1.71788e-07
-8.71886e-09
-1.70597e-07
-8.75235e-09
-1.69024e-07
-8.75645e-09
-1.6722e-07
-1.65433e-07
-8.77986e-09
-1.0436e-08
-8.34836e-08
1.04328e-08
-1.03847e-08
-9.82839e-08
-1.02867e-08
-1.13213e-07
-1.02356e-08
-1.26961e-07
-1.01755e-08
-1.38747e-07
-1.01752e-08
-1.48321e-07
-1.01649e-08
-1.55786e-07
-1.02066e-08
-1.61419e-07
-1.02278e-08
-1.65557e-07
-1.02892e-08
-1.68515e-07
-1.03211e-08
-1.70555e-07
-1.03835e-08
-1.71873e-07
-1.04119e-08
-1.72598e-07
-1.04651e-08
-1.72806e-07
-1.0484e-08
-1.72532e-07
-1.05255e-08
-1.71788e-07
-1.05347e-08
-1.70597e-07
-1.05689e-08
-1.69025e-07
-1.05688e-08
-1.67219e-07
-1.65433e-07
-1.0599e-08
-1.26222e-08
-8.36065e-08
1.26019e-08
-1.2587e-08
-9.84334e-08
-1.24885e-08
-1.13388e-07
-1.24304e-08
-1.27136e-07
-1.23485e-08
-1.38906e-07
-1.2326e-08
-1.48457e-07
-1.22838e-08
-1.55897e-07
-1.22977e-08
-1.61508e-07
-1.22852e-08
-1.65626e-07
-1.23197e-08
-1.68568e-07
-1.23209e-08
-1.70596e-07
-1.23609e-08
-1.71904e-07
-1.23643e-08
-1.72622e-07
-1.2401e-08
-1.72825e-07
-1.24017e-08
-1.72547e-07
-1.24332e-08
-1.718e-07
-1.24304e-08
-1.70606e-07
-1.24609e-08
-1.69029e-07
-1.24539e-08
-1.6722e-07
-1.65432e-07
-1.24849e-08
-1.48187e-08
-8.3738e-08
1.47866e-08
-1.47827e-08
-9.85946e-08
-1.46776e-08
-1.13578e-07
-1.46086e-08
-1.27329e-07
-1.45082e-08
-1.39086e-07
-1.44671e-08
-1.48616e-07
-1.44001e-08
-1.56032e-07
-1.43922e-08
-1.6162e-07
-1.4353e-08
-1.65718e-07
-1.43658e-08
-1.68642e-07
-1.43418e-08
-1.70656e-07
-1.43628e-08
-1.71953e-07
-1.43441e-08
-1.72663e-07
-1.43662e-08
-1.72859e-07
-1.43488e-08
-1.72574e-07
-1.43702e-08
-1.71821e-07
-1.43538e-08
-1.70622e-07
-1.43783e-08
-1.6904e-07
-1.43607e-08
-1.67225e-07
-1.65435e-07
-1.43889e-08
-1.69564e-08
-8.38862e-08
1.69591e-08
-1.69078e-08
-9.87612e-08
-1.67989e-08
-1.13766e-07
-1.67268e-08
-1.2752e-07
-1.66193e-08
-1.39267e-07
-1.65689e-08
-1.48779e-07
-1.64875e-08
-1.56174e-07
-1.64652e-08
-1.61741e-07
-1.64076e-08
-1.6582e-07
-1.64044e-08
-1.68728e-07
-1.63611e-08
-1.70728e-07
-1.6367e-08
-1.72013e-07
-1.63309e-08
-1.72713e-07
-1.63398e-08
-1.729e-07
-1.63076e-08
-1.72608e-07
-1.63188e-08
-1.71847e-07
-1.62901e-08
-1.7064e-07
-1.63075e-08
-1.69051e-07
-1.62792e-08
-1.6723e-07
-1.65435e-07
-1.63017e-08
-1.90384e-08
-8.4025e-08
1.90648e-08
-1.89871e-08
-9.89128e-08
-1.88827e-08
-1.13936e-07
-1.88114e-08
-1.27697e-07
-1.87015e-08
-1.39438e-07
-1.86448e-08
-1.48937e-07
-1.85531e-08
-1.56315e-07
-1.85194e-08
-1.61864e-07
-1.84473e-08
-1.65925e-07
-1.84307e-08
-1.68818e-07
-1.83715e-08
-1.70805e-07
-1.8364e-08
-1.72079e-07
-1.83119e-08
-1.72768e-07
-1.8309e-08
-1.72946e-07
-1.8262e-08
-1.72645e-07
-1.82635e-08
-1.71876e-07
-1.82218e-08
-1.70661e-07
-1.82315e-08
-1.69065e-07
-1.81908e-08
-1.67236e-07
-1.65438e-07
-1.82069e-08
-2.12277e-08
-8.41864e-08
2.13069e-08
-2.11353e-08
-9.90814e-08
-2.10046e-08
-1.14113e-07
-2.09129e-08
-1.27873e-07
-2.07875e-08
-1.39606e-07
-2.07165e-08
-1.49092e-07
-2.06111e-08
-1.56453e-07
-2.0564e-08
-1.61985e-07
-2.04776e-08
-1.6603e-07
-2.04477e-08
-1.68908e-07
-2.03738e-08
-1.70882e-07
-2.03536e-08
-1.72144e-07
-2.02873e-08
-1.72824e-07
-2.02727e-08
-1.72992e-07
-2.02126e-08
-1.72681e-07
-2.0204e-08
-1.71903e-07
-2.01504e-08
-1.70679e-07
-2.01519e-08
-1.69074e-07
-2.00998e-08
-1.67238e-07
-1.65435e-07
-2.01081e-08
-2.33294e-08
-8.43141e-08
2.3409e-08
-2.32389e-08
-9.92247e-08
-2.31035e-08
-1.14272e-07
-2.3002e-08
-1.28039e-07
-2.2865e-08
-1.39768e-07
-2.27802e-08
-1.49243e-07
-2.26608e-08
-1.5659e-07
-2.25994e-08
-1.62106e-07
-2.24984e-08
-1.66136e-07
-2.24546e-08
-1.69e-07
-2.2366e-08
-1.70961e-07
-2.23326e-08
-1.72212e-07
-2.22518e-08
-1.72881e-07
-2.22254e-08
-1.7304e-07
-2.21513e-08
-1.7272e-07
-2.21324e-08
-1.71932e-07
-2.20659e-08
-1.70699e-07
-2.20584e-08
-1.69084e-07
-2.19932e-08
-1.67241e-07
-1.65435e-07
-2.19927e-08
-2.55006e-08
-8.44594e-08
2.56282e-08
-2.53754e-08
-9.93784e-08
-2.52143e-08
-1.14435e-07
-2.50916e-08
-1.28204e-07
-2.49368e-08
-1.39928e-07
-2.48356e-08
-1.49391e-07
-2.4701e-08
-1.56724e-07
-2.46248e-08
-1.62224e-07
-2.45091e-08
-1.6624e-07
-2.44512e-08
-1.69091e-07
-2.43481e-08
-1.7104e-07
-2.43015e-08
-1.7228e-07
-2.42067e-08
-1.72939e-07
-2.41679e-08
-1.73087e-07
-2.40806e-08
-1.72757e-07
-2.40508e-08
-1.71959e-07
-2.3972e-08
-1.70715e-07
-2.39548e-08
-1.69092e-07
-2.38773e-08
-1.67241e-07
-1.65431e-07
-2.38667e-08
-2.75746e-08
-8.45966e-08
2.7726e-08
-2.74481e-08
-9.95178e-08
-2.72854e-08
-1.14585e-07
-2.71578e-08
-1.2836e-07
-2.69945e-08
-1.40083e-07
-2.68817e-08
-1.49538e-07
-2.67338e-08
-1.56859e-07
-2.66429e-08
-1.62346e-07
-2.65121e-08
-1.66348e-07
-2.64387e-08
-1.69186e-07
-2.63202e-08
-1.71124e-07
-2.62586e-08
-1.72353e-07
-2.61486e-08
-1.73002e-07
-2.6096e-08
-1.7314e-07
-2.59941e-08
-1.728e-07
-2.5952e-08
-1.71992e-07
-2.58596e-08
-1.70738e-07
-2.58313e-08
-1.69104e-07
-2.57401e-08
-1.67246e-07
-1.65434e-07
-2.57178e-08
-2.97163e-08
-8.47482e-08
2.989e-08
-2.95721e-08
-9.96681e-08
-2.93926e-08
-1.14744e-07
-2.92474e-08
-1.28525e-07
-2.90666e-08
-1.40246e-07
-2.89351e-08
-1.49693e-07
-2.87691e-08
-1.57002e-07
-2.86593e-08
-1.62476e-07
-2.85107e-08
-1.66464e-07
-2.84192e-08
-1.6929e-07
-2.82837e-08
-1.71215e-07
-2.82053e-08
-1.72434e-07
-2.80793e-08
-1.73072e-07
-2.80114e-08
-1.732e-07
-2.78947e-08
-1.72849e-07
-2.78388e-08
-1.72031e-07
-2.77329e-08
-1.70766e-07
-2.76922e-08
-1.69122e-07
-2.75877e-08
-1.67257e-07
-1.65442e-07
-2.75524e-08
-3.18607e-08
-8.49027e-08
3.20307e-08
-3.17049e-08
-9.98297e-08
-3.15084e-08
-1.14919e-07
-3.13423e-08
-1.28707e-07
-3.11409e-08
-1.40426e-07
-3.09872e-08
-1.49865e-07
-3.08007e-08
-1.57161e-07
-3.06692e-08
-1.62621e-07
-3.05011e-08
-1.66595e-07
-3.03891e-08
-1.69408e-07
-3.02354e-08
-1.71321e-07
-3.01378e-08
-1.72529e-07
-2.99949e-08
-1.73157e-07
-2.99091e-08
-1.73275e-07
-2.97768e-08
-1.72913e-07
-2.97047e-08
-1.72084e-07
-2.95843e-08
-1.70808e-07
-2.95288e-08
-1.69154e-07
-2.94107e-08
-1.67283e-07
-1.65465e-07
-2.93606e-08
-3.39985e-08
-8.5067e-08
3.41813e-08
-3.38253e-08
-1.00006e-07
-3.36109e-08
-1.1511e-07
-3.34242e-08
-1.28906e-07
-3.32031e-08
-1.40624e-07
-3.30272e-08
-1.50054e-07
-3.28208e-08
-1.57337e-07
-3.26669e-08
-1.62784e-07
-3.24795e-08
-1.66744e-07
-3.23459e-08
-1.69544e-07
-3.21741e-08
-1.71446e-07
-3.20559e-08
-1.72642e-07
-3.18958e-08
-1.73259e-07
-3.17911e-08
-1.73367e-07
-3.16426e-08
-1.72995e-07
-3.15531e-08
-1.72155e-07
-3.1418e-08
-1.70868e-07
-3.13463e-08
-1.69204e-07
-3.12149e-08
-1.67326e-07
-1.65507e-07
-3.11488e-08
-3.61618e-08
-8.52597e-08
3.63745e-08
-3.5955e-08
-1.00217e-07
-3.57137e-08
-1.1533e-07
-3.54999e-08
-1.29131e-07
-3.52567e-08
-1.40845e-07
-3.50563e-08
-1.50266e-07
-3.483e-08
-1.57536e-07
-3.46525e-08
-1.62968e-07
-3.44461e-08
-1.66915e-07
-3.42894e-08
-1.69703e-07
-3.40992e-08
-1.71593e-07
-3.39586e-08
-1.72779e-07
-3.37813e-08
-1.73386e-07
-3.36546e-08
-1.73483e-07
-3.34901e-08
-1.73101e-07
-3.33799e-08
-1.7225e-07
-3.32299e-08
-1.70952e-07
-3.3139e-08
-1.69278e-07
-3.29952e-08
-1.67392e-07
-1.65571e-07
-3.29112e-08
-3.82995e-08
-8.54784e-08
3.85375e-08
-3.80651e-08
-1.00452e-07
-3.78035e-08
-1.15573e-07
-3.7566e-08
-1.29377e-07
-3.73038e-08
-1.41089e-07
-3.70792e-08
-1.50501e-07
-3.68331e-08
-1.5776e-07
-3.66306e-08
-1.63179e-07
-3.64046e-08
-1.67113e-07
-3.62231e-08
-1.69889e-07
-3.60142e-08
-1.71768e-07
-3.58493e-08
-1.72944e-07
-3.5654e-08
-1.73541e-07
-3.55046e-08
-1.7363e-07
-3.53229e-08
-1.73237e-07
-3.5191e-08
-1.72376e-07
-3.50256e-08
-1.71067e-07
-3.49143e-08
-1.69383e-07
-3.47574e-08
-1.67491e-07
-1.65667e-07
-3.46545e-08
-4.04957e-08
-8.57062e-08
4.07513e-08
-4.02283e-08
-1.00712e-07
-3.99337e-08
-1.15847e-07
-3.96588e-08
-1.29657e-07
-3.93674e-08
-1.41365e-07
-3.911e-08
-1.50768e-07
-3.88394e-08
-1.58014e-07
-3.86071e-08
-1.6342e-07
-3.83595e-08
-1.67342e-07
-3.815e-08
-1.70106e-07
-3.79212e-08
-1.71974e-07
-3.77298e-08
-1.73141e-07
-3.75164e-08
-1.73729e-07
-3.73407e-08
-1.73808e-07
-3.71425e-08
-1.73406e-07
-3.69856e-08
-1.72534e-07
-3.68048e-08
-1.71215e-07
-3.66701e-08
-1.6952e-07
-3.65015e-08
-1.67619e-07
-1.65792e-07
-3.63773e-08
-4.26556e-08
-8.59305e-08
4.29093e-08
-4.23714e-08
-1.00986e-07
-4.20536e-08
-1.16147e-07
-4.17468e-08
-1.29967e-07
-4.14283e-08
-1.41674e-07
-4.11382e-08
-1.51069e-07
-4.08429e-08
-1.58304e-07
-4.05798e-08
-1.63697e-07
-4.03098e-08
-1.67606e-07
-4.00711e-08
-1.70359e-07
-3.9822e-08
-1.72218e-07
-3.96026e-08
-1.73376e-07
-3.93699e-08
-1.73955e-07
-3.91681e-08
-1.74026e-07
-3.89515e-08
-1.73615e-07
-3.87693e-08
-1.72734e-07
-3.85719e-08
-1.71404e-07
-3.84128e-08
-1.69701e-07
-3.82305e-08
-1.67791e-07
-1.6596e-07
-3.80843e-08
-4.4802e-08
-8.61681e-08
4.50698e-08
-4.44977e-08
-1.01281e-07
-4.41584e-08
-1.16475e-07
-4.38215e-08
-1.30309e-07
-4.3479e-08
-1.42016e-07
-4.31578e-08
-1.51404e-07
-4.28399e-08
-1.58626e-07
-4.25463e-08
-1.64008e-07
-4.22549e-08
-1.67905e-07
-4.19863e-08
-1.70648e-07
-4.17167e-08
-1.72498e-07
-4.14683e-08
-1.73647e-07
-4.12169e-08
-1.74218e-07
-4.0986e-08
-1.74281e-07
-4.07522e-08
-1.73861e-07
-4.05418e-08
-1.72971e-07
-4.03281e-08
-1.71632e-07
-4.0142e-08
-1.69917e-07
-3.99477e-08
-1.67998e-07
-1.66161e-07
-3.97776e-08
-4.69278e-08
-8.6447e-08
4.72171e-08
-4.65982e-08
-1.01609e-07
-4.62422e-08
-1.16833e-07
-4.58809e-08
-1.30682e-07
-4.55199e-08
-1.42392e-07
-4.51709e-08
-1.51773e-07
-4.48322e-08
-1.58986e-07
-4.45088e-08
-1.64357e-07
-4.41962e-08
-1.68244e-07
-4.38977e-08
-1.70978e-07
-4.36077e-08
-1.72819e-07
-4.33298e-08
-1.73961e-07
-4.30583e-08
-1.74525e-07
-4.27993e-08
-1.74581e-07
-4.25459e-08
-1.74153e-07
-4.23079e-08
-1.73255e-07
-4.2076e-08
-1.71906e-07
-4.18632e-08
-1.70182e-07
-4.16537e-08
-1.68255e-07
-1.66411e-07
-4.14592e-08
-4.90787e-08
-8.67398e-08
4.93883e-08
-4.87225e-08
-1.01961e-07
-4.83444e-08
-1.17222e-07
-4.79523e-08
-1.31088e-07
-4.75685e-08
-1.428e-07
-4.71882e-08
-1.52177e-07
-4.68271e-08
-1.59382e-07
-4.64726e-08
-1.64742e-07
-4.61383e-08
-1.6862e-07
-4.5809e-08
-1.71345e-07
-4.54979e-08
-1.73178e-07
-4.51898e-08
-1.74313e-07
-4.48985e-08
-1.74871e-07
-4.46092e-08
-1.74919e-07
-4.43371e-08
-1.74484e-07
-4.40693e-08
-1.73578e-07
-4.38196e-08
-1.7222e-07
-4.35779e-08
-1.70485e-07
-4.33546e-08
-1.68547e-07
-1.66694e-07
-4.31347e-08
-5.12208e-08
-8.70496e-08
5.15421e-08
-5.08428e-08
-1.02339e-07
-5.04459e-08
-1.17641e-07
-5.00256e-08
-1.31527e-07
-4.96198e-08
-1.43245e-07
-4.92091e-08
-1.52619e-07
-4.88251e-08
-1.59816e-07
-4.84399e-08
-1.65168e-07
-4.80829e-08
-1.69037e-07
-4.77229e-08
-1.71754e-07
-4.73898e-08
-1.7358e-07
-4.70515e-08
-1.74709e-07
-4.67385e-08
-1.7526e-07
-4.642e-08
-1.75303e-07
-4.61265e-08
-1.74861e-07
-4.58299e-08
-1.73948e-07
-4.55599e-08
-1.72581e-07
-4.529e-08
-1.70837e-07
-4.50491e-08
-1.68888e-07
-1.67026e-07
-4.48035e-08
-5.33538e-08
-8.73726e-08
5.36863e-08
-5.29592e-08
-1.02735e-07
-5.25467e-08
-1.18085e-07
-5.21006e-08
-1.31995e-07
-5.16742e-08
-1.43722e-07
-5.12346e-08
-1.53094e-07
-5.08281e-08
-1.60285e-07
-5.04125e-08
-1.65628e-07
-5.00325e-08
-1.69489e-07
-4.9642e-08
-1.72198e-07
-4.92859e-08
-1.74018e-07
-4.89172e-08
-1.75141e-07
-4.85822e-08
-1.75686e-07
-4.82331e-08
-1.75723e-07
-4.79185e-08
-1.75275e-07
-4.75917e-08
-1.74354e-07
-4.73014e-08
-1.72979e-07
-4.70022e-08
-1.71224e-07
-4.67443e-08
-1.69262e-07
-1.67389e-07
-4.64725e-08
-5.55086e-08
-8.77293e-08
5.58578e-08
-5.50895e-08
-1.03162e-07
-5.46572e-08
-1.1856e-07
-5.41848e-08
-1.32496e-07
-5.37366e-08
-1.44232e-07
-5.32684e-08
-1.53603e-07
-5.28383e-08
-1.60789e-07
-5.23928e-08
-1.66126e-07
-5.19884e-08
-1.6998e-07
-5.15675e-08
-1.72682e-07
-5.11873e-08
-1.74496e-07
-5.07883e-08
-1.75613e-07
-5.04291e-08
-1.76153e-07
-5.00504e-08
-1.76184e-07
-4.97121e-08
-1.7573e-07
-4.93562e-08
-1.74802e-07
-4.90433e-08
-1.73418e-07
-4.87156e-08
-1.71654e-07
-4.84371e-08
-1.6968e-07
-1.67794e-07
-4.81391e-08
-5.76819e-08
-8.809e-08
5.80394e-08
-5.72413e-08
-1.03608e-07
-5.67861e-08
-1.19062e-07
-5.62845e-08
-1.33025e-07
-5.5811e-08
-1.44772e-07
-5.5313e-08
-1.54144e-07
-5.48576e-08
-1.61326e-07
-5.43819e-08
-1.66655e-07
-5.39521e-08
-1.70502e-07
-5.35008e-08
-1.73198e-07
-5.3095e-08
-1.75006e-07
-5.26657e-08
-1.76117e-07
-5.22815e-08
-1.76653e-07
-5.18725e-08
-1.76677e-07
-5.15101e-08
-1.76217e-07
-5.11246e-08
-1.75281e-07
-5.07885e-08
-1.73889e-07
-5.04324e-08
-1.72114e-07
-5.0133e-08
-1.70126e-07
-1.68226e-07
-4.98085e-08
-5.98797e-08
-8.84712e-08
6.02563e-08
-5.94112e-08
-1.04081e-07
-5.89288e-08
-1.19593e-07
-5.83972e-08
-1.33586e-07
-5.78965e-08
-1.45343e-07
-5.73686e-08
-1.54716e-07
-5.6886e-08
-1.61894e-07
-5.63801e-08
-1.67217e-07
-5.59229e-08
-1.71058e-07
-5.54414e-08
-1.73747e-07
-5.50083e-08
-1.7555e-07
-5.45488e-08
-1.76655e-07
-5.41377e-08
-1.77185e-07
-5.3699e-08
-1.77204e-07
-5.33103e-08
-1.76738e-07
-5.2896e-08
-1.75794e-07
-5.25348e-08
-1.74393e-07
-5.21509e-08
-1.72606e-07
-5.18278e-08
-1.70605e-07
-1.68691e-07
-5.14768e-08
-6.2042e-08
-8.88586e-08
6.24264e-08
-6.15602e-08
-1.04565e-07
-6.10612e-08
-1.20141e-07
-6.05076e-08
-1.34166e-07
-5.99839e-08
-1.45937e-07
-5.94292e-08
-1.55313e-07
-5.89201e-08
-1.62488e-07
-5.8385e-08
-1.67806e-07
-5.78998e-08
-1.71641e-07
-5.7388e-08
-1.74324e-07
-5.69265e-08
-1.76121e-07
-5.64367e-08
-1.77221e-07
-5.59974e-08
-1.77745e-07
-5.5529e-08
-1.77758e-07
-5.51129e-08
-1.77284e-07
-5.46698e-08
-1.76332e-07
-5.42824e-08
-1.74921e-07
-5.38712e-08
-1.73122e-07
-5.35233e-08
-1.71107e-07
-1.69177e-07
-5.31459e-08
-6.4224e-08
-8.92681e-08
6.46343e-08
-6.3722e-08
-1.05068e-07
-6.32026e-08
-1.20708e-07
-6.26267e-08
-1.34767e-07
-6.20786e-08
-1.46554e-07
-6.14973e-08
-1.55935e-07
-6.09604e-08
-1.63108e-07
-6.03961e-08
-1.68421e-07
-5.98814e-08
-1.7225e-07
-5.93394e-08
-1.74927e-07
-5.8848e-08
-1.76719e-07
-5.8328e-08
-1.77813e-07
-5.78591e-08
-1.78331e-07
-5.7361e-08
-1.78336e-07
-5.6916e-08
-1.77855e-07
-5.64443e-08
-1.76893e-07
-5.60292e-08
-1.75472e-07
-5.55907e-08
-1.7366e-07
-5.5216e-08
-1.7163e-07
-1.69685e-07
-5.4812e-08
-6.64048e-08
-8.96923e-08
6.68327e-08
-6.58862e-08
-1.05585e-07
-6.53485e-08
-1.2129e-07
-6.47514e-08
-1.35386e-07
-6.41788e-08
-1.47191e-07
-6.3571e-08
-1.56578e-07
-6.30056e-08
-1.63751e-07
-6.24119e-08
-1.6906e-07
-6.18666e-08
-1.72884e-07
-6.12941e-08
-1.75555e-07
-6.07713e-08
-1.7734e-07
-6.02206e-08
-1.78428e-07
-5.97204e-08
-1.7894e-07
-5.91925e-08
-1.78938e-07
-5.87168e-08
-1.78448e-07
-5.82166e-08
-1.77476e-07
-5.77722e-08
-1.76043e-07
-5.73066e-08
-1.74218e-07
-5.69031e-08
-1.72172e-07
-1.70212e-07
-5.64722e-08
-6.86097e-08
-9.0137e-08
6.90691e-08
-6.80672e-08
-1.06121e-07
-6.75062e-08
-1.21889e-07
-6.68855e-08
-1.36023e-07
-6.62864e-08
-1.47848e-07
-6.56512e-08
-1.57242e-07
-6.50556e-08
-1.64415e-07
-6.44319e-08
-1.69722e-07
-6.38544e-08
-1.7354e-07
-6.32507e-08
-1.76206e-07
-6.2695e-08
-1.77985e-07
-6.2113e-08
-1.79066e-07
-6.158e-08
-1.7957e-07
-6.10211e-08
-1.7956e-07
-6.05138e-08
-1.79061e-07
-5.99839e-08
-1.78078e-07
-5.95089e-08
-1.76632e-07
-5.90153e-08
-1.74793e-07
-5.85819e-08
-1.72731e-07
-1.70753e-07
-5.81233e-08
-7.0815e-08
-9.05973e-08
7.12944e-08
-7.02525e-08
-1.06672e-07
-6.96699e-08
-1.22504e-07
-6.90263e-08
-1.36678e-07
-6.84e-08
-1.48525e-07
-6.77369e-08
-1.57928e-07
-6.71098e-08
-1.65103e-07
-6.64552e-08
-1.70407e-07
-6.58439e-08
-1.74221e-07
-6.52078e-08
-1.76881e-07
-6.46174e-08
-1.78654e-07
-6.40028e-08
-1.79728e-07
-6.34349e-08
-1.80225e-07
-6.28444e-08
-1.80206e-07
-6.23026e-08
-1.79696e-07
-6.17425e-08
-1.78702e-07
-6.12345e-08
-1.77242e-07
-6.0712e-08
-1.75387e-07
-6.0246e-08
-1.73309e-07
-1.71315e-07
-5.97593e-08
-7.3047e-08
-9.10738e-08
7.35571e-08
-7.24606e-08
-1.0724e-07
-7.18513e-08
-1.23137e-07
-7.11812e-08
-1.37353e-07
-7.05243e-08
-1.49222e-07
-6.98308e-08
-1.58636e-07
-6.91695e-08
-1.65814e-07
-6.84818e-08
-1.71116e-07
-6.78344e-08
-1.74926e-07
-6.71642e-08
-1.7758e-07
-6.6537e-08
-1.79346e-07
-6.58883e-08
-1.80414e-07
-6.5284e-08
-1.80902e-07
-6.46596e-08
-1.80874e-07
-6.40823e-08
-1.80353e-07
-6.34896e-08
-1.79345e-07
-6.29472e-08
-1.7787e-07
-6.2394e-08
-1.75999e-07
-6.18946e-08
-1.73902e-07
-1.71892e-07
-6.13782e-08
-7.52854e-08
-9.15653e-08
7.58147e-08
-7.46779e-08
-1.07824e-07
-7.40426e-08
-1.23789e-07
-7.33452e-08
-1.38049e-07
-7.26558e-08
-1.49945e-07
-7.19302e-08
-1.59371e-07
-7.12326e-08
-1.66553e-07
-7.051e-08
-1.71854e-07
-6.98242e-08
-1.7566e-07
-6.9118e-08
-1.78308e-07
-6.84518e-08
-1.80068e-07
-6.77668e-08
-1.81128e-07
-6.71234e-08
-1.81607e-07
-6.64636e-08
-1.81569e-07
-6.58477e-08
-1.81036e-07
-6.52209e-08
-1.80015e-07
-6.46413e-08
-1.78524e-07
-6.40559e-08
-1.76635e-07
-6.35202e-08
-1.7452e-07
-1.72492e-07
-6.29731e-08
-7.75493e-08
-9.20766e-08
7.81119e-08
-7.69138e-08
-1.08429e-07
-7.62471e-08
-1.24463e-07
-7.55189e-08
-1.3877e-07
-7.47944e-08
-1.50693e-07
-7.40343e-08
-1.60134e-07
-7.32981e-08
-1.6732e-07
-7.25384e-08
-1.72621e-07
-7.1812e-08
-1.76423e-07
-7.10676e-08
-1.79066e-07
-7.036e-08
-1.80819e-07
-6.96366e-08
-1.81871e-07
-6.89521e-08
-1.82341e-07
-6.82541e-08
-1.82292e-07
-6.75981e-08
-1.81746e-07
-6.69344e-08
-1.80709e-07
-6.6316e-08
-1.79202e-07
-6.56957e-08
-1.77293e-07
-6.51229e-08
-1.75159e-07
-1.73112e-07
-6.45429e-08
-7.98147e-08
-9.26071e-08
8.03987e-08
-7.91543e-08
-1.09057e-07
-7.84577e-08
-1.25163e-07
-7.76988e-08
-1.39519e-07
-7.6938e-08
-1.51472e-07
-7.61418e-08
-1.60929e-07
-7.5365e-08
-1.68122e-07
-7.45661e-08
-1.73423e-07
-7.37967e-08
-1.77222e-07
-7.30113e-08
-1.79861e-07
-7.22598e-08
-1.81607e-07
-7.14952e-08
-1.8265e-07
-7.07665e-08
-1.83111e-07
-7.00283e-08
-1.8305e-07
-6.93287e-08
-1.8249e-07
-6.86261e-08
-1.81438e-07
-6.79659e-08
-1.79912e-07
-6.73088e-08
-1.77984e-07
-6.66955e-08
-1.75829e-07
-1.73763e-07
-6.60808e-08
-8.21083e-08
-9.316e-08
8.27255e-08
-8.14179e-08
-1.0971e-07
-8.06863e-08
-1.25891e-07
-7.98919e-08
-1.40299e-07
-7.9091e-08
-1.52284e-07
-7.8255e-08
-1.61759e-07
-7.74342e-08
-1.6896e-07
-7.65927e-08
-1.74263e-07
-7.57773e-08
-1.7806e-07
-7.49481e-08
-1.80693e-07
-7.41497e-08
-1.82432e-07
-7.33412e-08
-1.83466e-07
-7.25661e-08
-1.83917e-07
-7.17842e-08
-1.83843e-07
-7.10393e-08
-1.8327e-07
-7.02944e-08
-1.822e-07
-6.95904e-08
-1.80655e-07
-6.88932e-08
-1.78705e-07
-6.82382e-08
-1.76527e-07
-1.7444e-07
-6.75862e-08
-8.44057e-08
-9.37341e-08
8.50444e-08
-8.36887e-08
-1.10388e-07
-8.29231e-08
-1.2665e-07
-8.20924e-08
-1.41114e-07
-8.12493e-08
-1.53136e-07
-8.0371e-08
-1.62631e-07
-7.95034e-08
-1.69841e-07
-7.86164e-08
-1.75147e-07
-7.77519e-08
-1.78941e-07
-7.68758e-08
-1.81569e-07
-7.60277e-08
-1.83301e-07
-7.51719e-08
-1.84327e-07
-7.4347e-08
-1.84767e-07
-7.35189e-08
-1.84681e-07
-7.2725e-08
-1.84092e-07
-7.19352e-08
-1.83005e-07
-7.11839e-08
-1.81439e-07
-7.04441e-08
-1.79466e-07
-6.97438e-08
-1.77265e-07
-1.75156e-07
-6.90521e-08
-8.67294e-08
-9.43371e-08
8.74039e-08
-8.5978e-08
-1.11099e-07
-8.5173e-08
-1.27444e-07
-8.43018e-08
-1.41968e-07
-8.34132e-08
-1.54028e-07
-8.24893e-08
-1.63546e-07
-8.15719e-08
-1.70768e-07
-8.06361e-08
-1.76076e-07
-7.97195e-08
-1.79869e-07
-7.87931e-08
-1.82493e-07
-7.7892e-08
-1.84218e-07
-7.69858e-08
-1.85235e-07
-7.61085e-08
-1.85663e-07
-7.52301e-08
-1.85563e-07
-7.4385e-08
-1.84958e-07
-7.35465e-08
-1.83852e-07
-7.27456e-08
-1.82264e-07
-7.19596e-08
-1.80268e-07
-7.12124e-08
-1.78041e-07
-1.75908e-07
-7.04778e-08
-8.90552e-08
-9.49662e-08
8.97544e-08
-8.82728e-08
-1.11841e-07
-8.74296e-08
-1.28275e-07
-8.65172e-08
-1.42865e-07
-8.55813e-08
-1.54967e-07
-8.46092e-08
-1.6451e-07
-8.3639e-08
-1.71745e-07
-8.2651e-08
-1.77058e-07
-8.16789e-08
-1.80851e-07
-8.06987e-08
-1.8347e-07
-7.97411e-08
-1.85188e-07
-7.87807e-08
-1.86196e-07
-7.78469e-08
-1.86612e-07
-7.69152e-08
-1.86499e-07
-7.60146e-08
-1.85876e-07
-7.51244e-08
-1.8475e-07
-7.42702e-08
-1.8314e-07
-7.3435e-08
-1.81118e-07
-7.2637e-08
-1.78865e-07
-1.76706e-07
-7.18568e-08
-9.14136e-08
-9.56282e-08
9.21502e-08
-9.05931e-08
-1.1262e-07
-8.97052e-08
-1.29149e-07
-8.87459e-08
-1.43807e-07
-8.77578e-08
-1.55956e-07
-8.67327e-08
-1.65526e-07
-8.57056e-08
-1.72776e-07
-8.46611e-08
-1.78096e-07
-8.36296e-08
-1.81889e-07
-8.25913e-08
-1.84504e-07
-8.15735e-08
-1.86215e-07
-8.05549e-08
-1.87213e-07
-7.95613e-08
-1.87617e-07
-7.8572e-08
-1.87489e-07
-7.76131e-08
-1.86849e-07
-7.66669e-08
-1.85701e-07
-7.57565e-08
-1.84066e-07
-7.48682e-08
-1.82017e-07
-7.40171e-08
-1.79735e-07
-1.77548e-07
-7.31877e-08
-9.37814e-08
-9.63201e-08
9.4546e-08
-9.29247e-08
-1.13437e-07
-9.19913e-08
-1.30068e-07
-9.09826e-08
-1.44801e-07
-8.99391e-08
-1.57e-07
-8.88574e-08
-1.66601e-07
-8.77694e-08
-1.73868e-07
-8.66645e-08
-1.79195e-07
-8.55694e-08
-1.82989e-07
-8.4469e-08
-1.85601e-07
-8.33868e-08
-1.87305e-07
-8.23058e-08
-1.88293e-07
-8.12481e-08
-1.88685e-07
-8.01975e-08
-1.8854e-07
-7.91757e-08
-1.87882e-07
-7.817e-08
-1.86712e-07
-7.71992e-08
-1.85051e-07
-7.62544e-08
-1.82973e-07
-7.53461e-08
-1.80661e-07
-1.78445e-07
-7.4464e-08
-9.61833e-08
-9.70541e-08
9.69928e-08
-9.52789e-08
-1.14301e-07
-9.42923e-08
-1.31039e-07
-9.32285e-08
-1.45851e-07
-9.21251e-08
-1.58103e-07
-9.09823e-08
-1.67738e-07
-8.98294e-08
-1.75024e-07
-8.86596e-08
-1.8036e-07
-8.74969e-08
-1.84155e-07
-8.63299e-08
-1.86764e-07
-8.51792e-08
-1.88461e-07
-8.40314e-08
-1.89439e-07
-8.29058e-08
-1.89817e-07
-8.17891e-08
-1.89657e-07
-8.0701e-08
-1.88978e-07
-7.96313e-08
-1.87785e-07
-7.85966e-08
-1.86097e-07
-7.7591e-08
-1.83988e-07
-7.66225e-08
-1.81644e-07
-1.79395e-07
-7.56839e-08
-9.85912e-08
-9.78254e-08
9.94358e-08
-9.76415e-08
-1.15212e-07
-9.6602e-08
-1.32064e-07
-9.54812e-08
-1.4696e-07
-9.43147e-08
-1.5927e-07
-9.3107e-08
-1.68942e-07
-9.1885e-08
-1.76249e-07
-9.06458e-08
-1.81595e-07
-8.94109e-08
-1.85394e-07
-8.81726e-08
-1.88e-07
-8.69486e-08
-1.8969e-07
-8.57292e-08
-1.90658e-07
-8.45308e-08
-1.91023e-07
-8.33436e-08
-1.90845e-07
-8.21842e-08
-1.90145e-07
-8.10462e-08
-1.88928e-07
-7.99431e-08
-1.87211e-07
-7.88726e-08
-1.8507e-07
-7.78394e-08
-1.8269e-07
-1.80408e-07
-7.68406e-08
-1.01035e-07
-9.8644e-08
1.01929e-07
-1.00032e-07
-1.16178e-07
-9.89319e-08
-1.33149e-07
-9.77476e-08
-1.48134e-07
-9.65122e-08
-1.60506e-07
-9.52337e-08
-1.70218e-07
-9.39371e-08
-1.77548e-07
-9.2623e-08
-1.82907e-07
-9.13106e-08
-1.86709e-07
-8.99955e-08
-1.89313e-07
-8.86933e-08
-1.90996e-07
-8.73971e-08
-1.91953e-07
-8.61212e-08
-1.92304e-07
-8.48584e-08
-1.92108e-07
-8.36234e-08
-1.91386e-07
-8.24121e-08
-1.90142e-07
-8.12364e-08
-1.88395e-07
-8.00962e-08
-1.86219e-07
-7.89946e-08
-1.83803e-07
-1.81484e-07
-7.79312e-08
-1.03487e-07
-9.95045e-08
1.04421e-07
-1.02434e-07
-1.17195e-07
-1.01273e-07
-1.34295e-07
-1.00022e-07
-1.49377e-07
-9.87137e-08
-1.61816e-07
-9.73597e-08
-1.71571e-07
-9.59834e-08
-1.78928e-07
-9.45889e-08
-1.843e-07
-9.31937e-08
-1.88107e-07
-9.17964e-08
-1.9071e-07
-9.04105e-08
-1.92386e-07
-8.9032e-08
-1.93332e-07
-8.7673e-08
-1.93668e-07
-8.63294e-08
-1.93453e-07
-8.50133e-08
-1.92708e-07
-8.37237e-08
-1.91436e-07
-8.24702e-08
-1.89657e-07
-8.12558e-08
-1.87445e-07
-8.00808e-08
-1.84989e-07
-1.82631e-07
-7.89483e-08
-1.0597e-07
-1.00418e-07
1.06958e-07
-1.04856e-07
-1.18274e-07
-1.03628e-07
-1.3551e-07
-1.02305e-07
-1.50693e-07
-1.00919e-07
-1.63204e-07
-9.94837e-08
-1.73007e-07
-9.80223e-08
-1.80393e-07
-9.65419e-08
-1.85781e-07
-9.50581e-08
-1.89594e-07
-9.35729e-08
-1.92195e-07
-9.20976e-08
-1.93865e-07
-9.06311e-08
-1.948e-07
-8.91838e-08
-1.9512e-07
-8.77534e-08
-1.94885e-07
-8.63512e-08
-1.94115e-07
-8.49777e-08
-1.92814e-07
-8.36416e-08
-1.91e-07
-8.23475e-08
-1.88749e-07
-8.10948e-08
-1.86251e-07
-1.8385e-07
-7.98884e-08
-1.08467e-07
-1.01383e-07
1.09503e-07
-1.07293e-07
-1.19415e-07
-1.05995e-07
-1.36795e-07
-1.04596e-07
-1.52088e-07
-1.03126e-07
-1.64677e-07
-1.01605e-07
-1.74532e-07
-1.00053e-07
-1.8195e-07
-9.84805e-08
-1.87355e-07
-9.69022e-08
-1.91175e-07
-9.53227e-08
-1.93776e-07
-9.37519e-08
-1.95439e-07
-9.21911e-08
-1.96362e-07
-9.06489e-08
-1.96666e-07
-8.9126e-08
-1.9641e-07
-8.76313e-08
-1.95614e-07
-8.61682e-08
-1.94282e-07
-8.47436e-08
-1.92431e-07
-8.33645e-08
-1.90139e-07
-8.20284e-08
-1.87597e-07
-1.8515e-07
-8.07431e-08
-1.11001e-07
-1.02407e-07
1.12098e-07
-1.09758e-07
-1.20625e-07
-1.08382e-07
-1.38159e-07
-1.069e-07
-1.53568e-07
-1.0534e-07
-1.6624e-07
-1.03725e-07
-1.76151e-07
-1.02075e-07
-1.83604e-07
-1.00404e-07
-1.89029e-07
-9.87243e-08
-1.92857e-07
-9.70437e-08
-1.95458e-07
-9.53706e-08
-1.97115e-07
-9.37088e-08
-1.98026e-07
-9.20657e-08
-1.98313e-07
-9.04433e-08
-1.98034e-07
-8.88503e-08
-1.97211e-07
-8.72911e-08
-1.95845e-07
-8.57722e-08
-1.93956e-07
-8.4302e-08
-1.9162e-07
-8.28774e-08
-1.89029e-07
-1.86534e-07
-8.15076e-08
-1.13555e-07
-1.03489e-07
1.14709e-07
-1.12243e-07
-1.21906e-07
-1.10785e-07
-1.39605e-07
-1.09213e-07
-1.55139e-07
-1.07557e-07
-1.67901e-07
-1.05842e-07
-1.77872e-07
-1.04088e-07
-1.85363e-07
-1.0231e-07
-1.9081e-07
-1.00522e-07
-1.94649e-07
-9.8733e-08
-1.9725e-07
-9.69505e-08
-1.98901e-07
-9.51803e-08
-1.99799e-07
-9.34287e-08
-2.00068e-07
-9.17001e-08
-1.99766e-07
-9.00014e-08
-1.98913e-07
-8.83396e-08
-1.97513e-07
-8.67196e-08
-1.95582e-07
-8.51521e-08
-1.93199e-07
-8.36326e-08
-1.90557e-07
-1.88009e-07
-8.21726e-08
-1.1615e-07
-1.04642e-07
1.17376e-07
-1.14756e-07
-1.2327e-07
-1.13207e-07
-1.41142e-07
-1.11538e-07
-1.56809e-07
-1.09778e-07
-1.69665e-07
-1.07956e-07
-1.79702e-07
-1.06089e-07
-1.87235e-07
-1.04198e-07
-1.92706e-07
-1.02293e-07
-1.96556e-07
-1.00388e-07
-1.99158e-07
-9.84881e-08
-2.00803e-07
-9.66019e-08
-2.01689e-07
-9.47345e-08
-2.01938e-07
-9.28918e-08
-2.01611e-07
-9.10805e-08
-2.00728e-07
-8.93086e-08
-1.99289e-07
-8.75808e-08
-1.97315e-07
-8.5909e-08
-1.94881e-07
-8.42884e-08
-1.92185e-07
-1.8958e-07
-8.27317e-08
-1.18767e-07
-1.05864e-07
1.20062e-07
-1.1729e-07
-1.24718e-07
-1.15646e-07
-1.42774e-07
-1.13874e-07
-1.58583e-07
-1.12003e-07
-1.71541e-07
-1.10065e-07
-1.81648e-07
-1.08078e-07
-1.89227e-07
-1.06065e-07
-1.94725e-07
-1.04036e-07
-1.98588e-07
-1.02005e-07
-2.01193e-07
-9.99797e-08
-2.02831e-07
-9.79688e-08
-2.03703e-07
-9.5977e-08
-2.03932e-07
-9.40121e-08
-2.03579e-07
-9.20798e-08
-2.02663e-07
-9.01901e-08
-2.01185e-07
-8.83467e-08
-1.99163e-07
-8.65634e-08
-1.96677e-07
-8.48344e-08
-1.93922e-07
-1.91256e-07
-8.31745e-08
-1.21427e-07
-1.07165e-07
1.22804e-07
-1.19856e-07
-1.2626e-07
-1.18108e-07
-1.44511e-07
-1.16224e-07
-1.60469e-07
-1.14233e-07
-1.73537e-07
-1.12171e-07
-1.8372e-07
-1.10055e-07
-1.91349e-07
-1.0791e-07
-1.96876e-07
-1.05746e-07
-2.00753e-07
-1.03582e-07
-2.03361e-07
-1.01421e-07
-2.04993e-07
-9.92767e-08
-2.05851e-07
-9.71516e-08
-2.06059e-07
-9.50556e-08
-2.05678e-07
-9.29939e-08
-2.04726e-07
-9.09777e-08
-2.03206e-07
-8.90107e-08
-2.01134e-07
-8.71078e-08
-1.9859e-07
-8.52633e-08
-1.95773e-07
-1.93041e-07
-8.34927e-08
-1.24112e-07
-1.08546e-07
1.25568e-07
-1.22447e-07
-1.27898e-07
-1.20589e-07
-1.46358e-07
-1.18587e-07
-1.62477e-07
-1.16468e-07
-1.75663e-07
-1.14272e-07
-1.85927e-07
-1.12016e-07
-1.9361e-07
-1.0973e-07
-1.9917e-07
-1.07423e-07
-2.03063e-07
-1.05114e-07
-2.05675e-07
-1.02808e-07
-2.073e-07
-1.0052e-07
-2.08144e-07
-9.82514e-08
-2.0833e-07
-9.60146e-08
-2.07918e-07
-9.38138e-08
-2.06929e-07
-9.1662e-08
-2.05363e-07
-8.95624e-08
-2.03238e-07
-8.75314e-08
-2.00633e-07
-8.55628e-08
-1.97748e-07
-1.94945e-07
-8.3674e-08
-1.26842e-07
-1.10018e-07
1.28392e-07
-1.2507e-07
-1.29643e-07
-1.23093e-07
-1.48325e-07
-1.20962e-07
-1.64614e-07
-1.18705e-07
-1.77926e-07
-1.16366e-07
-1.88279e-07
-1.13961e-07
-1.9602e-07
-1.11523e-07
-2.01616e-07
-1.09061e-07
-2.05527e-07
-1.06596e-07
-2.08144e-07
-1.04135e-07
-2.09763e-07
-1.01692e-07
-2.10591e-07