/*--------------------------------*- C++ -*----------------------------------*\
  =========                 |
  \\      /  F ield         | OpenFOAM: The Open Source CFD Toolbox
   \\    /   O peration     | Website:  https://openfoam.org
    \\  /    A nd           | Version:  6
     \\/     M anipulation  |
\*---------------------------------------------------------------------------*/
FoamFile
{
    version     2.0;
    format      ascii;
    class       volVectorField;
    location    "4";
    object      U;
}
// * * * * * * * * * * * * * * * * * * * * * * * * * * * * * * * * * * * * * //

dimensions      [0 1 -1 0 0 0 0];

internalField   nonuniform List<vector> 
10000
(
(-0.0365816 -4.6448 0)
(-0.0452268 -5.08568 0)
(-0.0632059 -5.11599 0)
(-0.0592677 -5.08502 0)
(-0.0446379 -5.08066 0)
(-0.0303938 -5.0864 0)
(-0.0200431 -5.08716 0)
(-0.0137693 -5.08126 0)
(-0.0104559 -5.07296 0)
(-0.00886581 -5.06708 0)
(-0.00787561 -5.06645 0)
(-0.0064753 -5.07059 0)
(-0.00341165 -5.07621 0)
(0.00281443 -5.07827 0)
(0.0134164 -5.07316 0)
(0.0285937 -5.06245 0)
(0.0454324 -5.05613 0)
(0.053766 -5.05639 0)
(0.0450739 -4.97506 0)
(0.036435 -4.49868 0)
(-0.0245156 -4.59106 0)
(-0.0113895 -5.04505 0)
(-0.0225077 -5.11683 0)
(-0.0216827 -5.11849 0)
(-0.0184422 -5.12187 0)
(-0.0139004 -5.12162 0)
(-0.00985001 -5.1132 0)
(-0.0069959 -5.09934 0)
(-0.00513511 -5.08549 0)
(-0.00399346 -5.07662 0)
(-0.00312236 -5.07538 0)
(-0.00218602 -5.08155 0)
(-0.000816195 -5.09211 0)
(0.00140991 -5.10237 0)
(0.00471264 -5.10763 0)
(0.00942222 -5.10557 0)
(0.0137953 -5.09787 0)
(0.0159667 -5.07419 0)
(0.00911003 -4.95331 0)
(0.016421 -4.43315 0)
(-0.0181605 -4.58069 0)
(-0.00516908 -5.05176 0)
(-0.0017379 -5.12068 0)
(0.000234898 -5.11195 0)
(0.000853474 -5.11256 0)
(0.0013695 -5.11455 0)
(0.00165454 -5.10809 0)
(0.00179629 -5.0952 0)
(0.00193942 -5.08185 0)
(0.00222862 -5.07319 0)
(0.0027634 -5.07186 0)
(0.00356866 -5.07743 0)
(0.00467523 -5.08634 0)
(0.00594511 -5.09362 0)
(0.00714 -5.09501 0)
(0.00831886 -5.08975 0)
(0.00833683 -5.07947 0)
(0.00691436 -5.05497 0)
(0.00213024 -4.93485 0)
(0.00502121 -4.43027 0)
(-0.0101888 -4.56136 0)
(-0.00363069 -5.0537 0)
(-0.004429 -5.12587 0)
(-0.00461875 -5.12017 0)
(-0.00300164 -5.12121 0)
(-0.00130429 -5.12164 0)
(8.90535e-05 -5.11327 0)
(0.00120584 -5.09915 0)
(0.00214036 -5.0855 0)
(0.0031224 -5.07723 0)
(0.00435054 -5.07691 0)
(0.00598004 -5.08408 0)
(0.00799809 -5.09527 0)
(0.0101844 -5.10503 0)
(0.0118591 -5.10878 0)
(0.0116705 -5.10392 0)
(0.00860832 -5.09067 0)
(0.00443893 -5.06237 0)
(0.000738019 -4.94 0)
(0.00311753 -4.42099 0)
(-0.00395566 -4.55944 0)
(-0.000494085 -5.04249 0)
(-0.0115133 -5.11383 0)
(-0.0155094 -5.11026 0)
(-0.0152332 -5.11484 0)
(-0.0129773 -5.11897 0)
(-0.00989077 -5.11363 0)
(-0.00651281 -5.10127 0)
(-0.0031308 -5.08874 0)
(0.000359498 -5.0816 0)
(0.00406347 -5.08232 0)
(0.0078391 -5.09015 0)
(0.0113828 -5.10113 0)
(0.0141168 -5.10874 0)
(0.0151539 -5.10614 0)
(0.0135701 -5.09139 0)
(0.00937564 -5.0745 0)
(0.00327792 -5.05703 0)
(-0.00222434 -4.94938 0)
(-0.00388244 -4.42996 0)
(0.00317769 -4.5682 0)
(0.00402809 -5.03013 0)
(-0.00968981 -5.10974 0)
(-0.0163778 -5.11919 0)
(-0.0193919 -5.12916 0)
(-0.0192217 -5.13359 0)
(-0.0166941 -5.12684 0)
(-0.0127996 -5.11302 0)
(-0.00829157 -5.09958 0)
(-0.00359739 -5.09192 0)
(0.00102694 -5.09201 0)
(0.00544714 -5.09847 0)
(0.0094398 -5.10701 0)
(0.012534 -5.11156 0)
(0.0140553 -5.10684 0)
(0.0138176 -5.0914 0)
(0.0123793 -5.06906 0)
(0.00806221 -5.03969 0)
(0.00355566 -4.9291 0)
(-0.0189987 -4.42716 0)
(0.00194559 -4.58141 0)
(0.00328955 -5.02217 0)
(-0.00263446 -5.0904 0)
(-0.00573137 -5.09759 0)
(-0.00983624 -5.11453 0)
(-0.0125033 -5.12789 0)
(-0.0127234 -5.12874 0)
(-0.0110539 -5.12011 0)
(-0.00835421 -5.10906 0)
(-0.00536727 -5.10184 0)
(-0.00243571 -5.10174 0)
(0.000276669 -5.1081 0)
(0.00280792 -5.11655 0)
(0.00508653 -5.11996 0)
(0.00645324 -5.11186 0)
(0.00617319 -5.09227 0)
(0.00493437 -5.06726 0)
(0.00374874 -5.03807 0)
(0.00540026 -4.92787 0)
(-0.0189939 -4.43034 0)
(0.00396789 -4.58403 0)
(-0.00756561 -5.01686 0)
(0.000413178 -5.10157 0)
(0.00386441 -5.10552 0)
(0.00326701 -5.11713 0)
(0.00121635 -5.12961 0)
(-0.000790637 -5.13094 0)
(-0.00210847 -5.12284 0)
(-0.00263794 -5.1124 0)
(-0.00269433 -5.10554 0)
(-0.00252418 -5.10548 0)
(-0.00235036 -5.11158 0)
(-0.00231327 -5.11972 0)
(-0.00249102 -5.12296 0)
(-0.00248327 -5.11422 0)
(-0.00217304 -5.09339 0)
(-0.00114676 -5.06941 0)
(0.00117093 -5.04241 0)
(0.00346435 -4.9264 0)
(0.000885752 -4.43129 0)
(0.00869444 -4.5675 0)
(-0.00648811 -5.04044 0)
(0.00421383 -5.11939 0)
(0.00408058 -5.11333 0)
(0.00294368 -5.11909 0)
(0.00192458 -5.12795 0)
(0.000699603 -5.12793 0)
(-0.00033921 -5.1201 0)
(-0.00119636 -5.11042 0)
(-0.00202053 -5.10394 0)
(-0.00281289 -5.10374 0)
(-0.00364195 -5.10945 0)
(-0.00456471 -5.11699 0)
(-0.00570593 -5.12002 0)
(-0.00653465 -5.11332 0)
(-0.00617929 -5.09595 0)
(-0.00437093 -5.07419 0)
(-0.00110277 -5.04507 0)
(0.00172731 -4.92205 0)
(0.00827026 -4.42466 0)
(-0.00303157 -4.5626 0)
(0.000954236 -5.04201 0)
(-9.09769e-05 -5.10696 0)
(-0.00375859 -5.10112 0)
(-0.00563322 -5.11317 0)
(-0.00597048 -5.1253 0)
(-0.00522307 -5.12668 0)
(-0.00409815 -5.11936 0)
(-0.00315002 -5.10928 0)
(-0.00265688 -5.10251 0)
(-0.00260432 -5.10235 0)
(-0.00299379 -5.10808 0)
(-0.00379381 -5.11528 0)
(-0.00469073 -5.1177 0)
(-0.00528065 -5.11082 0)
(-0.00517783 -5.09409 0)
(-0.00438394 -5.07425 0)
(-0.00193653 -5.04671 0)
(0.00238227 -4.92234 0)
(0.00600892 -4.41456 0)
(-0.00498878 -4.56578 0)
(0.000701145 -5.02798 0)
(-0.00308328 -5.09711 0)
(-0.00391617 -5.09351 0)
(-0.00445273 -5.10797 0)
(-0.00438753 -5.12438 0)
(-0.00353728 -5.12887 0)
(-0.00244804 -5.12278 0)
(-0.00114855 -5.11257 0)
(0.000209374 -5.10495 0)
(0.00137056 -5.1035 0)
(0.00220067 -5.10789 0)
(0.00276211 -5.11491 0)
(0.00325163 -5.11894 0)
(0.00383407 -5.11443 0)
(0.00436215 -5.09997 0)
(0.00409701 -5.08245 0)
(0.00240306 -5.05958 0)
(0.000369293 -4.93946 0)
(-0.000511497 -4.40653 0)
(-0.00910244 -4.57766 0)
(-0.000105833 -5.03777 0)
(-0.00286336 -5.11166 0)
(-0.00130856 -5.10681 0)
(0.000144527 -5.11763 0)
(0.00110538 -5.13045 0)
(0.00168301 -5.13272 0)
(0.0020475 -5.12586 0)
(0.00267575 -5.11604 0)
(0.00378956 -5.10873 0)
(0.00535748 -5.10749 0)
(0.00732915 -5.11225 0)
(0.00955337 -5.1195 0)
(0.0114397 -5.12322 0)
(0.0122791 -5.11779 0)
(0.0115399 -5.10078 0)
(0.00892313 -5.07682 0)
(0.00351038 -5.0479 0)
(-0.0041695 -4.93239 0)
(-0.00533583 -4.40995 0)
(-0.016416 -4.56999 0)
(0.00173268 -5.02508 0)
(-0.00249592 -5.10646 0)
(-0.00112547 -5.10605 0)
(0.000597508 -5.11787 0)
(0.00161153 -5.13073 0)
(0.00212087 -5.13334 0)
(0.00236855 -5.12697 0)
(0.00257002 -5.11776 0)
(0.00301869 -5.11146 0)
(0.00390317 -5.1113 0)
(0.0051578 -5.11667 0)
(0.00655166 -5.12311 0)
(0.00758645 -5.12397 0)
(0.00747429 -5.11399 0)
(0.0057009 -5.09191 0)
(0.00290317 -5.06401 0)
(0.00017961 -5.03322 0)
(-0.00139815 -4.91888 0)
(-0.0103208 -4.42404 0)
(-0.0106442 -4.57048 0)
(0.00319889 -5.02893 0)
(-0.000522352 -5.11037 0)
(-0.000738767 -5.10943 0)
(-0.000548195 -5.1201 0)
(-0.000818357 -5.1321 0)
(-0.00105383 -5.13409 0)
(-0.0010895 -5.12753 0)
(-0.00108513 -5.11853 0)
(-0.00104988 -5.11287 0)
(-0.00100991 -5.11344 0)
(-0.00108436 -5.11947 0)
(-0.00133348 -5.1265 0)
(-0.00159165 -5.1279 0)
(-0.0017961 -5.11813 0)
(-0.00204975 -5.09641 0)
(-0.00186177 -5.07112 0)
(-0.00055588 -5.04342 0)
(0.00163948 -4.92355 0)
(-0.00328633 -4.42906 0)
(0.0106839 -4.57727 0)
(0.00183651 -5.03179 0)
(-0.00143687 -5.1127 0)
(-0.00587867 -5.11286 0)
(-0.00815524 -5.12161 0)
(-0.00888441 -5.13289 0)
(-0.00837817 -5.13517 0)
(-0.00742177 -5.1288 0)
(-0.0065904 -5.11963 0)
(-0.00604669 -5.11342 0)
(-0.00579552 -5.11318 0)
(-0.00587049 -5.1183 0)
(-0.00622908 -5.1248 0)
(-0.00660174 -5.12659 0)
(-0.0067698 -5.11787 0)
(-0.00634459 -5.09756 0)
(-0.00504298 -5.07285 0)
(-0.00273065 -5.04279 0)
(-0.000967085 -4.91691 0)
(0.00888478 -4.42803 0)
(0.0165568 -4.58572 0)
(-0.00115172 -5.02197 0)
(-0.00116966 -5.09625 0)
(-0.00692384 -5.10003 0)
(-0.0111352 -5.11648 0)
(-0.0123939 -5.13349 0)
(-0.0118445 -5.13835 0)
(-0.010843 -5.13202 0)
(-0.00989222 -5.12225 0)
(-0.00918615 -5.11551 0)
(-0.00869984 -5.11483 0)
(-0.0083916 -5.11962 0)
(-0.00821672 -5.1258 0)
(-0.00807957 -5.12734 0)
(-0.00807651 -5.1187 0)
(-0.00782989 -5.09921 0)
(-0.00646213 -5.07638 0)
(-0.00371868 -5.04811 0)
(-0.00130764 -4.92257 0)
(0.00770224 -4.42876 0)
(-0.00309926 -4.59148 0)
(-0.0031627 -5.02555 0)
(-0.00536027 -5.09572 0)
(-0.00702913 -5.09424 0)
(-0.00863958 -5.11324 0)
(-0.00949313 -5.13339 0)
(-0.0100411 -5.13985 0)
(-0.0102123 -5.13399 0)
(-0.00996171 -5.12412 0)
(-0.00960043 -5.1171 0)
(-0.00924495 -5.1162 0)
(-0.00878749 -5.12093 0)
(-0.00806386 -5.1273 0)
(-0.00686799 -5.1292 0)
(-0.0051905 -5.12133 0)
(-0.00346532 -5.10431 0)
(-0.00140703 -5.08602 0)
(-0.000155191 -5.05908 0)
(-0.0019913 -4.93408 0)
(0.00591205 -4.42746 0)
(-0.0100633 -4.58684 0)
(4.71195e-06 -5.00984 0)
(-0.00437915 -5.09263 0)
(-0.00471525 -5.09737 0)
(-0.0054953 -5.11531 0)
(-0.00636989 -5.13297 0)
(-0.00738428 -5.13862 0)
(-0.00807529 -5.13372 0)
(-0.00828616 -5.12478 0)
(-0.00827265 -5.1181 0)
(-0.00823451 -5.1175 0)
(-0.00818947 -5.12306 0)
(-0.00800747 -5.13089 0)
(-0.00742642 -5.13458 0)
(-0.00626023 -5.12748 0)
(-0.00488205 -5.10833 0)
(-0.00430027 -5.08567 0)
(-0.0041658 -5.05284 0)
(-0.00486263 -4.92448 0)
(0.00800292 -4.42778 0)
(-0.00780056 -4.5925 0)
(0.0026702 -5.01698 0)
(0.0031297 -5.0954 0)
(0.00245064 -5.0961 0)
(1.20544e-05 -5.11318 0)
(-0.00189986 -5.13157 0)
(-0.00310232 -5.13811 0)
(-0.00393337 -5.13377 0)
(-0.00435565 -5.1251 0)
(-0.00449699 -5.11856 0)
(-0.00463778 -5.11777 0)
(-0.00510134 -5.12297 0)
(-0.00612752 -5.1305 0)
(-0.00774514 -5.13409 0)
(-0.00944973 -5.12686 0)
(-0.0100636 -5.10668 0)
(-0.00993841 -5.08335 0)
(-0.00787624 -5.05555 0)
(-0.00471478 -4.92976 0)
(0.0109273 -4.43121 0)
(-0.0072116 -4.58894 0)
(0.000241987 -5.02753 0)
(0.00207447 -5.10014 0)
(0.00286235 -5.09642 0)
(0.00233695 -5.11183 0)
(0.00138745 -5.12992 0)
(0.000457021 -5.1369 0)
(-0.000332328 -5.13341 0)
(-0.000793458 -5.12557 0)
(-0.00094657 -5.11926 0)
(-0.000908129 -5.1179 0)
(-0.000849522 -5.12173 0)
(-0.00103896 -5.12761 0)
(-0.00163093 -5.13043 0)
(-0.00244469 -5.12566 0)
(-0.00283469 -5.11232 0)
(-0.00248988 -5.09616 0)
(-0.00251284 -5.07168 0)
(-0.00478903 -4.94863 0)
(0.00564199 -4.43615 0)
(0.00353114 -4.59328 0)
(-0.00379459 -5.02509 0)
(-0.000530214 -5.10254 0)
(0.00211517 -5.10015 0)
(0.00403264 -5.11383 0)
(0.00446305 -5.13047 0)
(0.00399613 -5.13672 0)
(0.00307222 -5.13308 0)
(0.00200506 -5.12551 0)
(0.00107526 -5.11977 0)
(0.000572164 -5.11952 0)
(0.000746366 -5.12452 0)
(0.00162828 -5.13123 0)
(0.00314068 -5.1345 0)
(0.00462667 -5.12915 0)
(0.00465787 -5.11346 0)
(0.00313323 -5.09379 0)
(-0.000594823 -5.06484 0)
(-0.00769303 -4.94567 0)
(0.00152743 -4.44208 0)
(0.000486239 -4.58653 0)
(-0.00216772 -5.02533 0)
(0.00343968 -5.10689 0)
(0.00731888 -5.10603 0)
(0.00944518 -5.11751 0)
(0.00977307 -5.13146 0)
(0.00877204 -5.1357 0)
(0.00694129 -5.13081 0)
(0.00468406 -5.12284 0)
(0.00239013 -5.11761 0)
(0.000346973 -5.11857 0)
(-0.00127349 -5.12518 0)
(-0.00232773 -5.13336 0)
(-0.00264293 -5.1369 0)
(-0.00273941 -5.12878 0)
(-0.00342994 -5.10739 0)
(-0.00485607 -5.08313 0)
(-0.0054125 -5.05289 0)
(-0.00463445 -4.9342 0)
(-0.00318325 -4.45687 0)
(-0.00989233 -4.58933 0)
(0.00133012 -5.03996 0)
(0.00688433 -5.11885 0)
(0.0105628 -5.11385 0)
(0.012184 -5.12098 0)
(0.0123462 -5.13118 0)
(0.0110725 -5.1328 0)
(0.00882331 -5.1263 0)
(0.00596691 -5.11744 0)
(0.00283014 -5.11202 0)
(-0.000313534 -5.11309 0)
(-0.00328862 -5.12035 0)
(-0.00599606 -5.12997 0)
(-0.0083904 -5.13554 0)
(-0.0104179 -5.1302 0)
(-0.0111383 -5.11229 0)
(-0.0105667 -5.09183 0)
(-0.00734059 -5.06732 0)
(-0.0015353 -4.9466 0)
(0.000237023 -4.45956 0)
(-0.00596636 -4.58069 0)
(-0.00319822 -5.05218 0)
(-0.00266829 -5.12558 0)
(0.000156736 -5.11604 0)
(0.00464251 -5.12046 0)
(0.00774976 -5.12861 0)
(0.00839773 -5.12837 0)
(0.00715925 -5.12045 0)
(0.0047147 -5.11068 0)
(0.00161592 -5.10487 0)
(-0.00160336 -5.10609 0)
(-0.0044931 -5.11372 0)
(-0.00675423 -5.12327 0)
(-0.00806701 -5.12833 0)
(-0.00813669 -5.12365 0)
(-0.00644175 -5.1096 0)
(-0.00430074 -5.09308 0)
(-0.00240106 -5.07053 0)
(0.000141038 -4.95155 0)
(-0.00255537 -4.46184 0)
(0.00503686 -4.5723 0)
(-0.0097237 -5.03121 0)
(-0.00798477 -5.11687 0)
(-0.00411391 -5.12278 0)
(0.00104414 -5.13069 0)
(0.00404096 -5.13482 0)
(0.00471788 -5.12952 0)
(0.00385198 -5.11767 0)
(0.00199693 -5.10553 0)
(-0.000408033 -5.09885 0)
(-0.00305534 -5.10051 0)
(-0.00567018 -5.10969 0)
(-0.00794167 -5.12198 0)
(-0.00920248 -5.13077 0)
(-0.00861946 -5.12971 0)
(-0.00602053 -5.11566 0)
(-0.00271774 -5.09268 0)
(0.000298365 -5.06487 0)
(0.00288621 -4.94717 0)
(-0.00262644 -4.45334 0)
(0.00694175 -4.56316 0)
(-0.00284383 -5.04573 0)
(0.00175884 -5.13718 0)
(0.00253031 -5.13963 0)
(0.000700276 -5.1402 0)
(-0.00166098 -5.1394 0)
(-0.00289067 -5.13102 0)
(-0.00327995 -5.11725 0)
(-0.00325383 -5.10382 0)
(-0.00315867 -5.09622 0)
(-0.00326588 -5.09705 0)
(-0.00376641 -5.10558 0)
(-0.00469639 -5.11823 0)
(-0.00586982 -5.12927 0)
(-0.00701258 -5.13246 0)
(-0.00748514 -5.12415 0)
(-0.00581941 -5.10769 0)
(-0.00213649 -5.08055 0)
(-0.000140837 -4.95648 0)
(0.00589576 -4.4538 0)
(-0.00276225 -4.56767 0)
(0.00636489 -5.0536 0)
(0.00135441 -5.13444 0)
(-0.00418262 -5.12352 0)
(-0.0087266 -5.12321 0)
(-0.0108548 -5.12871 0)
(-0.0107885 -5.12667 0)
(-0.00921415 -5.11729 0)
(-0.00689228 -5.10632 0)
(-0.00433003 -5.0995 0)
(-0.00190464 -5.09993 0)
(0.000221332 -5.10742 0)
(0.00191549 -5.11832 0)
(0.00292361 -5.1268 0)
(0.0029639 -5.12755 0)
(0.00196615 -5.11968 0)
(0.00038922 -5.10831 0)
(-0.0014996 -5.08389 0)
(-0.00345465 -4.95864 0)
(-0.00116733 -4.45145 0)
(0.00296395 -4.57527 0)
(0.00257786 -5.04929 0)
(-0.00543171 -5.12066 0)
(-0.0115091 -5.11796 0)
(-0.0134393 -5.12696 0)
(-0.0126474 -5.13504 0)
(-0.0106221 -5.13404 0)
(-0.00790505 -5.12508 0)
(-0.00493666 -5.11411 0)
(-0.00185905 -5.10706 0)
(0.0012917 -5.10715 0)
(0.00436929 -5.11417 0)
(0.00714399 -5.12443 0)
(0.00926133 -5.13177 0)
(0.0102626 -5.13021 0)
(0.0100593 -5.11762 0)
(0.00792672 -5.0996 0)
(0.00331662 -5.07415 0)
(-0.000642855 -4.95717 0)
(-0.0115287 -4.45862 0)
(-0.00212517 -4.57802 0)
(0.00160522 -5.04387 0)
(-0.00235822 -5.11512 0)
(-0.00469142 -5.11632 0)
(-0.00673954 -5.12924 0)
(-0.00731524 -5.1401 0)
(-0.00615865 -5.14064 0)
(-0.00418085 -5.13195 0)
(-0.00195847 -5.12103 0)
(0.000426865 -5.11414 0)
(0.00302328 -5.11431 0)
(0.00581314 -5.12096 0)
(0.00857724 -5.13027 0)
(0.0108918 -5.13615 0)
(0.0120085 -5.13325 0)
(0.0116515 -5.12011 0)
(0.0101913 -5.1006 0)
(0.00666895 -5.07402 0)
(0.00379135 -4.96043 0)
(-0.0200026 -4.4593 0)
(-0.0139652 -4.58462 0)
(0.00241124 -5.04005 0)
(0.000464181 -5.11613 0)
(0.00169756 -5.11196 0)
(0.00139316 -5.1234 0)
(0.000712927 -5.13799 0)
(0.000260205 -5.14168 0)
(0.000210651 -5.13479 0)
(0.000682542 -5.12463 0)
(0.00141855 -5.11825 0)
(0.0023404 -5.11907 0)
(0.00344655 -5.12621 0)
(0.00474322 -5.13558 0)
(0.00612119 -5.14034 0)
(0.00694632 -5.13418 0)
(0.00653876 -5.11676 0)
(0.00550829 -5.09353 0)
(0.00448258 -5.06453 0)
(0.00491101 -4.94874 0)
(-0.014512 -4.45937 0)
(0.000534173 -4.57875 0)
(-0.00214369 -5.03808 0)
(0.00168063 -5.11914 0)
(0.00465145 -5.1165 0)
(0.00650009 -5.12591 0)
(0.00698342 -5.13726 0)
(0.00613979 -5.13927 0)
(0.00470806 -5.13293 0)
(0.00350096 -5.12369 0)
(0.00257043 -5.11781 0)
(0.00176908 -5.11887 0)
(0.000948172 -5.12641 0)
(0.000116909 -5.13628 0)
(-0.000702172 -5.14154 0)
(-0.00110084 -5.13527 0)
(-0.000966839 -5.11723 0)
(9.85724e-06 -5.09589 0)
(0.00229576 -5.0697 0)
(0.00407291 -4.9479 0)
(0.00119548 -4.45841 0)
(0.0105408 -4.57527 0)
(-0.00378159 -5.04438 0)
(0.00308946 -5.12432 0)
(0.00637428 -5.1205 0)
(0.00825291 -5.12753 0)
(0.00855959 -5.13674 0)
(0.00791329 -5.13694 0)
(0.00676913 -5.1294 0)
(0.00533728 -5.11999 0)
(0.00384776 -5.1143 0)
(0.00233434 -5.11511 0)
(0.000721849 -5.12206 0)
(-0.000948493 -5.13142 0)
(-0.00268491 -5.13685 0)
(-0.00395615 -5.13285 0)
(-0.00395765 -5.11823 0)
(-0.0024226 -5.09891 0)
(0.000687382 -5.07096 0)
(0.00320625 -4.94302 0)
(0.00801378 -4.44863 0)
(0.00695586 -4.57819 0)
(-0.00136015 -5.05268 0)
(-0.000116723 -5.13437 0)
(0.00135854 -5.12934 0)
(0.00355104 -5.13166 0)
(0.0049651 -5.13761 0)
(0.00589851 -5.13648 0)
(0.00648494 -5.12807 0)
(0.00639098 -5.11773 0)
(0.00569544 -5.11122 0)
(0.00454227 -5.11167 0)
(0.00310966 -5.11855 0)
(0.00147948 -5.12763 0)
(-0.000153167 -5.13257 0)
(-0.00128233 -5.12836 0)
(-0.00166179 -5.11447 0)
(-0.00132307 -5.09762 0)
(0.000792084 -5.07263 0)
(0.0049015 -4.94478 0)
(0.00352601 -4.43559 0)
(-0.00341871 -4.57708 0)
(0.000258586 -5.04227 0)
(0.000503149 -5.1267 0)
(0.00154442 -5.12786 0)
(0.00350578 -5.13359 0)
(0.00576787 -5.14076 0)
(0.00764067 -5.13957 0)
(0.00886868 -5.12995 0)
(0.00952336 -5.11814 0)
(0.00972713 -5.11035 0)
(0.009598 -5.10978 0)
(0.00922688 -5.11591 0)
(0.00872139 -5.12501 0)
(0.00831252 -5.13163 0)
(0.00829348 -5.12986 0)
(0.00836648 -5.11795 0)
(0.00756726 -5.10293 0)
(0.00537452 -5.08243 0)
(0.00550881 -4.95919 0)
(-0.0126981 -4.42392 0)
(-0.00409039 -4.5722 0)
(-0.00254791 -5.04323 0)
(0.00158439 -5.12734 0)
(0.00424969 -5.12606 0)
(0.00648533 -5.13334 0)
(0.00859062 -5.14161 0)
(0.00956638 -5.1404 0)
(0.00990844 -5.13054 0)
(0.0103442 -5.11871 0)
(0.0111261 -5.11098 0)
(0.0122524 -5.11053 0)
(0.013633 -5.11698 0)
(0.015058 -5.12655 0)
(0.0161524 -5.13334 0)
(0.0164503 -5.13124 0)
(0.0152968 -5.1167 0)
(0.0122392 -5.09519 0)
(0.00650211 -5.06932 0)
(0.00188488 -4.95217 0)
(-0.0163297 -4.42113 0)
(0.000104624 -4.565 0)
(-4.92998e-05 -5.05811 0)
(-0.00203927 -5.14168 0)
(-0.00319993 -5.13957 0)
(-0.00234957 -5.14338 0)
(-0.000777967 -5.14673 0)
(0.000570175 -5.14209 0)
(0.00198266 -5.13149 0)
(0.00360476 -5.12044 0)
(0.00544902 -5.11395 0)
(0.00752234 -5.1144 0)
(0.00963754 -5.12066 0)
(0.0115447 -5.12867 0)
(0.0128802 -5.13237 0)
(0.0127032 -5.12584 0)
(0.0105302 -5.10635 0)
(0.00711234 -5.08125 0)
(0.00370651 -5.05478 0)
(0.00254444 -4.94054 0)
(-0.0116516 -4.43004 0)
(-0.00565615 -4.57215 0)
(0.00641036 -5.04877 0)
(-0.00328197 -5.12972 0)
(-0.00901288 -5.13267 0)
(-0.0117924 -5.14244 0)
(-0.0120566 -5.1496 0)
(-0.0101354 -5.14741 0)
(-0.00721426 -5.13771 0)
(-0.00430374 -5.12652 0)
(-0.00171498 -5.11961 0)
(0.000491724 -5.11963 0)
(0.00231642 -5.12567 0)
(0.00381326 -5.13346 0)
(0.00497664 -5.13642 0)
(0.00537864 -5.12805 0)
(0.00494229 -5.10732 0)
(0.00412708 -5.08379 0)
(0.00370373 -5.06006 0)
(0.0044865 -4.94264 0)
(-0.00497098 -4.4279 0)
(-0.000490156 -4.58113 0)
(0.00172313 -5.03718 0)
(-0.0024722 -5.11503 0)
(-0.00557551 -5.11863 0)
(-0.00860783 -5.13361 0)
(-0.010021 -5.14731 0)
(-0.00921939 -5.14981 0)
(-0.00746535 -5.14183 0)
(-0.00554377 -5.13083 0)
(-0.00378364 -5.12348 0)
(-0.00225848 -5.12279 0)
(-0.00102196 -5.12811 0)
(-5.11766e-05 -5.13512 0)
(0.000725408 -5.13724 0)
(0.00145788 -5.1282 0)
(0.00225434 -5.10692 0)
(0.00291093 -5.08214 0)
(0.00314917 -5.05572 0)
(0.00136247 -4.93436 0)
(0.00700856 -4.42687 0)
(-0.00475002 -4.57815 0)
(-0.00318691 -5.0402 0)
(-0.00370885 -5.12324 0)
(-0.00279467 -5.12323 0)
(-0.00294812 -5.1362 0)
(-0.003412 -5.15045 0)
(-0.00380701 -5.15325 0)
(-0.00395412 -5.14528 0)
(-0.00371657 -5.13387 0)
(-0.00333495 -5.12592 0)
(-0.00294867 -5.12476 0)
(-0.00262625 -5.1295 0)
(-0.00239139 -5.13599 0)
(-0.00222796 -5.1379 0)
(-0.00182959 -5.12902 0)
(-0.00111456 -5.10815 0)
(-0.000150488 -5.08315 0)
(0.000830003 -5.05489 0)
(0.00034413 -4.93078 0)
(0.00698353 -4.42704 0)
(-0.00050695 -4.56684 0)
(-0.0047925 -5.03214 0)
(-0.00275737 -5.11869 0)
(-0.00139256 -5.12072 0)
(-0.00065566 -5.13363 0)
(-0.00055722 -5.14669 0)
(-0.00131012 -5.1492 0)
(-0.0023596 -5.14253 0)
(-0.00313007 -5.13243 0)
(-0.0035787 -5.12514 0)
(-0.00382792 -5.12425 0)
(-0.00400548 -5.12905 0)
(-0.00413041 -5.13555 0)
(-0.00419329 -5.1376 0)
(-0.00409629 -5.12917 0)
(-0.00356731 -5.10891 0)
(-0.00261112 -5.0844 0)
(-0.00101552 -5.0547 0)
(0.000776235 -4.92841 0)
(0.00752231 -4.4227 0)
(0.0102304 -4.55767 0)
(-0.00536814 -5.03476 0)
(-0.00148044 -5.11932 0)
(-0.000792422 -5.12097 0)
(-0.000878494 -5.13297 0)
(-0.00160392 -5.14511 0)
(-0.00244101 -5.14673 0)
(-0.00321018 -5.13961 0)
(-0.00392305 -5.12994 0)
(-0.00440294 -5.1234 0)
(-0.00469948 -5.12303 0)
(-0.00480506 -5.12825 0)
(-0.00472429 -5.13499 0)
(-0.00448063 -5.137 0)
(-0.00393698 -5.12841 0)
(-0.0025572 -5.10803 0)
(-0.000678248 -5.08405 0)
(0.00132143 -5.05609 0)
(0.00281254 -4.93137 0)
(0.00685453 -4.41807 0)
(0.0076298 -4.5572 0)
(-0.00123335 -5.03754 0)
(-0.00350813 -5.12233 0)
(-0.005601 -5.12359 0)
(-0.00655973 -5.13286 0)
(-0.00708329 -5.1439 0)
(-0.00693798 -5.14596 0)
(-0.00638407 -5.13929 0)
(-0.00601685 -5.12985 0)
(-0.00577426 -5.12347 0)
(-0.00553072 -5.12335 0)
(-0.0050829 -5.12901 0)
(-0.00421296 -5.13653 0)
(-0.00271315 -5.1399 0)
(-0.000554362 -5.13396 0)
(0.00251383 -5.11763 0)
(0.00593783 -5.0952 0)
(0.00696748 -5.06616 0)
(0.00285107 -4.94252 0)
(0.00456289 -4.41311 0)
(-0.00128615 -4.56038 0)
(0.00316596 -5.02655 0)
(-0.000669436 -5.11015 0)
(-0.00357019 -5.11637 0)
(-0.00574009 -5.13052 0)
(-0.00639257 -5.14467 0)
(-0.00602733 -5.14803 0)
(-0.00544722 -5.14098 0)
(-0.00507199 -5.13077 0)
(-0.00500705 -5.12402 0)
(-0.0051805 -5.12409 0)
(-0.00538884 -5.13055 0)
(-0.00533413 -5.13947 0)
(-0.00459173 -5.14411 0)
(-0.00300431 -5.13823 0)
(-0.00115602 -5.12037 0)
(0.00085699 -5.09312 0)
(0.00233791 -5.05409 0)
(0.000739092 -4.924 0)
(0.0082218 -4.4063 0)
(-0.00140548 -4.56951 0)
(0.00190212 -5.02797 0)
(0.0034347 -5.11003 0)
(0.0041786 -5.11214 0)
(0.00336955 -5.12773 0)
(0.00245495 -5.14399 0)
(0.00137533 -5.14831 0)
(0.00036914 -5.14146 0)
(-0.000324225 -5.13076 0)
(-0.00103979 -5.12322 0)
(-0.00201898 -5.12247 0)
(-0.00343736 -5.12848 0)
(-0.00543327 -5.13774 0)
(-0.00769856 -5.14385 0)
(-0.00952703 -5.1393 0)
(-0.0107655 -5.12193 0)
(-0.0109443 -5.09856 0)
(-0.00782257 -5.06651 0)
(-0.000343568 -4.93587 0)
(0.0127881 -4.40582 0)
(-0.000212214 -4.56491 0)
(-0.000848765 -5.0312 0)
(0.00512974 -5.11534 0)
(0.00891404 -5.11656 0)
(0.0103494 -5.12812 0)
(0.0101574 -5.14104 0)
(0.00870406 -5.14408 0)
(0.00686833 -5.13794 0)
(0.00536758 -5.12808 0)
(0.00430359 -5.12062 0)
(0.00350929 -5.11914 0)
(0.0027599 -5.12361 0)
(0.00173069 -5.1308 0)
(0.000205566 -5.13589 0)
(-0.00152609 -5.1329 0)
(-0.00315276 -5.11879 0)
(-0.00445089 -5.1003 0)
(-0.00463673 -5.07593 0)
(-0.00170589 -4.95217 0)
(0.00917755 -4.39563 0)
(0.00676655 -4.56325 0)
(-0.00136405 -5.03951 0)
(0.00801763 -5.12226 0)
(0.0116568 -5.12138 0)
(0.0124331 -5.12931 0)
(0.0119573 -5.13954 0)
(0.0108786 -5.14103 0)
(0.00958371 -5.13425 0)
(0.00844176 -5.12495 0)
(0.00782116 -5.11872 0)
(0.00776469 -5.11856 0)
(0.00819183 -5.12378 0)
(0.00903221 -5.13097 0)
(0.00995359 -5.13447 0)
(0.0104038 -5.12841 0)
(0.0101771 -5.11118 0)
(0.00881464 -5.0895 0)
(0.0046534 -5.06385 0)
(-0.00333151 -4.94429 0)
(0.00583885 -4.39491 0)
(0.0154932 -4.5616 0)
(-0.00209263 -5.05145 0)
(0.00468287 -5.12879 0)
(0.00577105 -5.12138 0)
(0.00569494 -5.12672 0)
(0.00555197 -5.13676 0)
(0.00550377 -5.13877 0)
(0.00561906 -5.13277 0)
(0.00585821 -5.12439 0)
(0.00641263 -5.11908 0)
(0.00736922 -5.11983 0)
(0.00882909 -5.12613 0)
(0.0107469 -5.13468 0)
(0.012651 -5.13931 0)
(0.0136238 -5.1343 0)
(0.0130283 -5.11811 0)
(0.0106514 -5.09371 0)
(0.00529721 -5.0612 0)
(-0.00621845 -4.94265 0)
(0.0065217 -4.41036 0)
(0.00104086 -4.56403 0)
(0.000129416 -5.0486 0)
(-0.00288022 -5.12565 0)
(-0.00409408 -5.11915 0)
(-0.0030591 -5.1253 0)
(-0.00161164 -5.13652 0)
(-0.000587334 -5.13932 0)
(0.000271116 -5.13379 0)
(0.00102143 -5.12581 0)
(0.00172705 -5.12111 0)
(0.00261768 -5.12277 0)
(0.00389284 -5.13003 0)
(0.0054294 -5.13817 0)
(0.00687007 -5.13999 0)
(0.00751592 -5.1294 0)
(0.00645245 -5.10651 0)
(0.00400145 -5.07729 0)
(0.00103703 -5.04214 0)
(-0.00597378 -4.9221 0)
(0.0106874 -4.41841 0)
(-0.00680413 -4.57135 0)
(0.00187377 -5.04528 0)
(-0.0060889 -5.12261 0)
(-0.00882322 -5.12454 0)
(-0.00731526 -5.13361 0)
(-0.00508951 -5.14257 0)
(-0.00361264 -5.14303 0)
(-0.00261307 -5.13599 0)
(-0.00206762 -5.12706 0)
(-0.00194615 -5.12198 0)
(-0.0021121 -5.12375 0)
(-0.00245684 -5.13146 0)
(-0.00292114 -5.1401 0)
(-0.00333824 -5.14259 0)
(-0.00324284 -5.13272 0)
(-0.00278061 -5.10994 0)
(-0.00162856 -5.08224 0)
(0.000485553 -5.04991 0)
(-0.000895486 -4.92406 0)
(0.013289 -4.42883 0)
(-0.00967912 -4.571 0)
(-0.00239287 -5.02873 0)
(-0.00610475 -5.10859 0)
(-0.0060362 -5.11851 0)
(-0.00483952 -5.13398 0)
(-0.00363263 -5.14461 0)
(-0.00276805 -5.14474 0)
(-0.00244472 -5.13684 0)
(-0.00262499 -5.12677 0)
(-0.00333575 -5.12051 0)
(-0.00453491 -5.12119 0)
(-0.0061366 -5.12794 0)
(-0.00781873 -5.13619 0)
(-0.00907998 -5.13922 0)
(-0.00938719 -5.13109 0)
(-0.00845013 -5.11125 0)
(-0.00578383 -5.08552 0)
(-0.00155548 -5.05015 0)
(0.00295096 -4.91624 0)
(0.00423798 -4.42036 0)
(-0.00653205 -4.55888 0)
(-0.00839171 -5.01892 0)
(-0.0067717 -5.10921 0)
(-0.00304248 -5.11759 0)
(-0.0010677 -5.13046 0)
(-0.000347603 -5.14155 0)
(-0.000513319 -5.142 0)
(-0.00135008 -5.13398 0)
(-0.00254601 -5.1235 0)
(-0.00392137 -5.11656 0)
(-0.00553605 -5.11653 0)
(-0.00742427 -5.12304 0)
(-0.00939929 -5.13186 0)
(-0.0110092 -5.13581 0)
(-0.0115135 -5.12833 0)
(-0.0103667 -5.10992 0)
(-0.00748488 -5.08716 0)
(-0.00259474 -5.05378 0)
(0.00469119 -4.92077 0)
(0.0025049 -4.41051 0)
(0.00158816 -4.54272 0)
(-0.00489807 -5.03028 0)
(-0.00713556 -5.12299 0)
(-0.00739542 -5.13041 0)
(-0.00699207 -5.1387 0)
(-0.00639036 -5.14484 0)
(-0.00603637 -5.14205 0)
(-0.00572717 -5.13221 0)
(-0.00558131 -5.12105 0)
(-0.00546605 -5.11391 0)
(-0.00541702 -5.11359 0)
(-0.00550252 -5.11956 0)
(-0.0057542 -5.12823 0)
(-0.00589455 -5.13377 0)
(-0.00536007 -5.13052 0)
(-0.00392364 -5.11714 0)
(-0.00201532 -5.09816 0)
(-0.000197061 -5.06712 0)
(0.00280388 -4.93264 0)
(-0.003885 -4.40255 0)
(0.0155696 -4.54573 0)
(-0.00147795 -5.01892 0)
(-0.00438897 -5.10994 0)
(-0.00987038 -5.12268 0)
(-0.0137139 -5.13637 0)
(-0.0148743 -5.14581 0)
(-0.0138614 -5.14492 0)
(-0.0116796 -5.13571 0)
(-0.00931051 -5.12455 0)
(-0.00694414 -5.11728 0)
(-0.00457563 -5.11692 0)
(-0.00212334 -5.12303 0)
(0.000303398 -5.13218 0)
(0.0024866 -5.13827 0)
(0.00398366 -5.13476 0)
(0.00411248 -5.11952 0)
(0.00312987 -5.09741 0)
(0.000266374 -5.06385 0)
(-0.00369805 -4.93384 0)
(-0.00756975 -4.40259 0)
(0.0145242 -4.53771 0)
(-0.00638955 -5.01284 0)
(-0.00346368 -5.09183 0)
(-0.00671184 -5.10153 0)
(-0.0103047 -5.12168 0)
(-0.0119242 -5.13936 0)
(-0.0116296 -5.1446 0)
(-0.0104291 -5.13838 0)
(-0.00888627 -5.12839 0)
(-0.00715871 -5.12169 0)
(-0.00518146 -5.12171 0)
(-0.00283409 -5.12769 0)
(-0.000145658 -5.13549 0)
(0.00254076 -5.13872 0)
(0.00472678 -5.13118 0)
(0.00549581 -5.11212 0)
(0.00492313 -5.08839 0)
(0.00243472 -5.05336 0)
(-0.00508007 -4.92667 0)
(0.00381635 -4.41606 0)
(-0.0061359 -4.5307 0)
(-0.00715798 -5.01352 0)
(-0.0070548 -5.09619 0)
(-0.00738607 -5.10343 0)
(-0.00786197 -5.12286 0)
(-0.00790769 -5.14075 0)
(-0.00791962 -5.14586 0)
(-0.0081438 -5.1397 0)
(-0.00821379 -5.12997 0)
(-0.00811769 -5.12373 0)
(-0.00791528 -5.12465 0)
(-0.0075689 -5.13213 0)
(-0.00688121 -5.1418 0)
(-0.00568033 -5.1469 0)
(-0.00393114 -5.14014 0)
(-0.00204965 -5.11895 0)
(-0.000909011 -5.09152 0)
(0.00030201 -5.05237 0)
(0.00198259 -4.91701 0)
(-0.00367696 -4.42334 0)
(-0.0102825 -4.52134 0)
(-0.00077067 -5.0145 0)
(-0.0101118 -5.09844 0)
(-0.0132822 -5.10656 0)
(-0.0133552 -5.12595 0)
(-0.0122462 -5.14248 0)
(-0.01107 -5.14577 0)
(-0.0101194 -5.13897 0)
(-0.00932636 -5.12923 0)
(-0.00870346 -5.12297 0)
(-0.00837278 -5.1235 0)
(-0.00841274 -5.13063 0)
(-0.00876935 -5.14039 0)
(-0.00924623 -5.14597 0)
(-0.00937687 -5.13976 0)
(-0.00797663 -5.11889 0)
(-0.00522668 -5.09229 0)
(-0.000321998 -5.0588 0)
(0.00791045 -4.92407 0)
(-0.005341 -4.41101 0)
(-0.0125525 -4.52093 0)
(0.0026664 -4.98745 0)
(-0.00482392 -5.07752 0)
(-0.00678739 -5.09659 0)
(-0.00771209 -5.12371 0)
(-0.00849537 -5.14435 0)
(-0.00874943 -5.14923 0)
(-0.00808391 -5.14266 0)
(-0.00699448 -5.1324 0)
(-0.00580053 -5.12526 0)
(-0.00474424 -5.12464 0)
(-0.00387863 -5.13029 0)
(-0.00322565 -5.13854 0)
(-0.00291801 -5.14337 0)
(-0.00271904 -5.13903 0)
(-0.00180087 -5.12417 0)
(-2.73202e-05 -5.10319 0)
(0.00207002 -5.06803 0)
(0.0073352 -4.92837 0)
(-0.0152855 -4.39945 0)
(-0.0164088 -4.52496 0)
(0.00301873 -4.99428 0)
(0.0038338 -5.08754 0)
(0.00461484 -5.10071 0)
(0.00254425 -5.12216 0)
(-6.75707e-05 -5.14003 0)
(-0.00170832 -5.1461 0)
(-0.00191235 -5.14183 0)
(-0.00124205 -5.13346 0)
(-4.38219e-06 -5.1274 0)
(0.00160166 -5.12756 0)
(0.0034518 -5.13406 0)
(0.00535583 -5.14298 0)
(0.0068521 -5.14795 0)
(0.00738004 -5.14289 0)
(0.00621973 -5.12576 0)
(0.00328129 -5.10083 0)
(-0.000897743 -5.06427 0)
(0.000980542 -4.93182 0)
(-0.0251376 -4.39592 0)
(-0.0127985 -4.52405 0)
(0.00587839 -5.00535 0)
(0.00322316 -5.09689 0)
(0.00131798 -5.10343 0)
(-0.000816597 -5.12169 0)
(-0.00179757 -5.14035 0)
(-0.00136994 -5.14806 0)
(-0.0003302 -5.14454 0)
(0.000938481 -5.1365 0)
(0.00244902 -5.13084 0)
(0.00421979 -5.13117 0)
(0.00615347 -5.137 0)
(0.00806861 -5.14409 0)
(0.00967869 -5.14588 0)
(0.0103752 -5.13644 0)
(0.00909129 -5.11483 0)
(0.00586233 -5.08749 0)
(0.00123354 -5.05391 0)
(-0.00188772 -4.93418 0)
(-0.00812794 -4.41062 0)
(-0.0120664 -4.51844 0)
(0.00467843 -4.98399 0)
(0.00169468 -5.07285 0)
(0.00186413 -5.08424 0)
(0.00180856 -5.10987 0)
(0.00182656 -5.13543 0)
(0.00168547 -5.14689 0)
(0.00146833 -5.14518 0)
(0.00160808 -5.13818 0)
(0.00208343 -5.13324 0)
(0.00270025 -5.13419 0)
(0.00332309 -5.14071 0)
(0.00388838 -5.14875 0)
(0.00439351 -5.15146 0)
(0.00466801 -5.14151 0)
(0.00399839 -5.11662 0)
(0.00270966 -5.08551 0)
(0.00160063 -5.04917 0)
(-3.89548e-05 -4.92451 0)
(0.0034956 -4.40897 0)
(0.00237093 -4.5265 0)
(2.07872e-06 -5.0003 0)
(0.00397869 -5.09156 0)
(0.00726695 -5.09909 0)
(0.00848254 -5.11783 0)