/*--------------------------------*- C++ -*----------------------------------*\
  =========                 |
  \\      /  F ield         | OpenFOAM: The Open Source CFD Toolbox
   \\    /   O peration     | Website:  https://openfoam.org
    \\  /    A nd           | Version:  6
     \\/     M anipulation  |
\*---------------------------------------------------------------------------*/
FoamFile
{
    version     2.0;
    format      ascii;
    class       volVectorField;
    location    "4";
    object      U;
}
// * * * * * * * * * * * * * * * * * * * * * * * * * * * * * * * * * * * * * //

dimensions      [0 1 -1 0 0 0 0];

internalField   nonuniform List<vector> 
130000
(
(-0.00537123 -0.334138 0)
(-0.00632523 -0.392628 0)
(-0.006644 -0.451655 0)
(-0.00681281 -0.506503 0)
(-0.00698301 -0.553893 0)
(-0.00721062 -0.592636 0)
(-0.0075037 -0.622973 0)
(-0.00784986 -0.645915 0)
(-0.00822485 -0.662749 0)
(-0.00860323 -0.674726 0)
(-0.00896277 -0.682905 0)
(-0.00928623 -0.688089 0)
(-0.00956086 -0.690827 0)
(-0.00977764 -0.691445 0)
(-0.0099311 -0.690107 0)
(-0.0100197 -0.686898 0)
(-0.0100477 -0.681938 0)
(-0.0100275 -0.675522 0)
(-0.00998427 -0.668264 0)
(-0.00994009 -0.66112 0)
(-0.00734022 -0.333423 0)
(-0.00828421 -0.392494 0)
(-0.00852808 -0.452193 0)
(-0.00863227 -0.507377 0)
(-0.00875056 -0.554841 0)
(-0.00892056 -0.593508 0)
(-0.00914978 -0.623719 0)
(-0.00943249 -0.646546 0)
(-0.00974916 -0.66331 0)
(-0.010078 -0.675266 0)
(-0.0103982 -0.683475 0)
(-0.0106926 -0.688726 0)
(-0.010949 -0.691565 0)
(-0.0111579 -0.692302 0)
(-0.0113151 -0.691096 0)
(-0.0114192 -0.688013 0)
(-0.0114763 -0.683157 0)
(-0.0114972 -0.676795 0)
(-0.0115015 -0.669525 0)
(-0.011499 -0.662329 0)
(-0.0112411 -0.332861 0)
(-0.0118673 -0.391826 0)
(-0.0119223 -0.451469 0)
(-0.0119376 -0.506585 0)
(-0.0119987 -0.553957 0)
(-0.0121141 -0.592523 0)
(-0.0122758 -0.622645 0)
(-0.0124786 -0.645406 0)
(-0.0127086 -0.662136 0)
(-0.0129513 -0.674088 0)
(-0.0131919 -0.68232 0)
(-0.0134178 -0.687616 0)
(-0.0136204 -0.690515 0)
(-0.0137924 -0.69132 0)
(-0.0139322 -0.690185 0)
(-0.0140387 -0.687171 0)
(-0.0141169 -0.682375 0)
(-0.0141718 -0.676061 0)
(-0.0142074 -0.668826 0)
(-0.0142179 -0.661669 0)
(-0.0157609 -0.3332 0)
(-0.0163003 -0.392248 0)
(-0.0162 -0.451888 0)
(-0.016111 -0.506939 0)
(-0.0160658 -0.554213 0)
(-0.0160837 -0.592665 0)
(-0.0161526 -0.62268 0)
(-0.0162643 -0.645351 0)
(-0.0164062 -0.662015 0)
(-0.0165646 -0.673929 0)
(-0.0167281 -0.682146 0)
(-0.0168859 -0.687448 0)
(-0.0170317 -0.690367 0)
(-0.017159 -0.691203 0)
(-0.017267 -0.690103 0)
(-0.0173533 -0.687122 0)
(-0.0174211 -0.682355 0)
(-0.0174722 -0.67606 0)
(-0.017506 -0.668836 0)
(-0.0175118 -0.661684 0)
(-0.020281 -0.33369 0)
(-0.020785 -0.392813 0)
(-0.0206346 -0.452474 0)
(-0.0205124 -0.507464 0)
(-0.0204019 -0.554637 0)
(-0.0203466 -0.592979 0)
(-0.0203379 -0.622885 0)
(-0.0203707 -0.645464 0)
(-0.020435 -0.662055 0)
(-0.0205188 -0.673916 0)
(-0.0206131 -0.6821 0)
(-0.0207082 -0.687384 0)
(-0.0207995 -0.690297 0)
(-0.0208812 -0.691137 0)
(-0.0209529 -0.690043 0)
(-0.0210122 -0.687072 0)
(-0.0210619 -0.682313 0)
(-0.0211027 -0.676025 0)
(-0.0211328 -0.668809 0)
(-0.0211376 -0.661667 0)
(-0.0247597 -0.334177 0)
(-0.0252047 -0.393432 0)
(-0.0250354 -0.453194 0)
(-0.0249212 -0.508179 0)
(-0.0247792 -0.555284 0)
(-0.0246768 -0.593531 0)
(-0.0246114 -0.623336 0)
(-0.0245826 -0.645823 0)
(-0.0245841 -0.662334 0)
(-0.0246063 -0.674132 0)
(-0.0246425 -0.682269 0)
(-0.024684 -0.687521 0)
(-0.0247277 -0.690411 0)
(-0.0247679 -0.691236 0)
(-0.0248049 -0.690132 0)
(-0.024836 -0.687152 0)
(-0.024864 -0.682384 0)
(-0.0248891 -0.676088 0)
(-0.0249083 -0.66886 0)
(-0.0249039 -0.661713 0)
(-0.0292093 -0.334718 0)
(-0.0296178 -0.394103 0)
(-0.0294139 -0.453983 0)
(-0.0292957 -0.508978 0)
(-0.0291218 -0.556026 0)
(-0.0289811 -0.594182 0)
(-0.0288708 -0.623887 0)
(-0.0287944 -0.646278 0)
(-0.0287466 -0.662704 0)
(-0.0287202 -0.674434 0)
(-0.0287091 -0.682515 0)
(-0.0287062 -0.687724 0)
(-0.0287087 -0.69058 0)
(-0.028712 -0.691378 0)
(-0.0287164 -0.690251 0)
(-0.0287192 -0.687251 0)
(-0.0287234 -0.682463 0)
(-0.0287286 -0.676147 0)
(-0.0287311 -0.6689 0)
(-0.0287106 -0.661742 0)
(-0.0336305 -0.335358 0)
(-0.0338996 -0.394824 0)
(-0.0336516 -0.454791 0)
(-0.0335404 -0.509789 0)
(-0.0333554 -0.556783 0)
(-0.0331971 -0.594857 0)
(-0.033062 -0.62447 0)
(-0.0329558 -0.64677 0)
(-0.0328749 -0.663116 0)
(-0.0328135 -0.674776 0)
(-0.0327671 -0.6828 0)
(-0.0327297 -0.687962 0)
(-0.0326995 -0.69078 0)
(-0.0326721 -0.691544 0)
(-0.0326484 -0.690388 0)
(-0.0326261 -0.687361 0)
(-0.0326079 -0.682547 0)
(-0.0325935 -0.676206 0)
(-0.0325779 -0.668934 0)
(-0.0325386 -0.661762 0)
(-0.0379334 -0.335883 0)
(-0.0380808 -0.395416 0)
(-0.0378085 -0.455476 0)
(-0.0377132 -0.510503 0)
(-0.0375253 -0.557474 0)
(-0.0373571 -0.595492 0)
(-0.0372048 -0.625032 0)
(-0.0370762 -0.647258 0)
(-0.0369693 -0.663534 0)
(-0.0368798 -0.675132 0)
(-0.036804 -0.683102 0)
(-0.0367371 -0.688219 0)
(-0.0366776 -0.690997 0)
(-0.0366223 -0.691727 0)
(-0.036572 -0.690538 0)
(-0.036525 -0.687479 0)
(-0.0364841 -0.682635 0)
(-0.0364485 -0.676264 0)
(-0.0364127 -0.668965 0)
(-0.0363523 -0.661778 0)
(-0.0423254 -0.336423 0)
(-0.0424157 -0.396004 0)
(-0.042067 -0.456126 0)
(-0.0419337 -0.511175 0)
(-0.0417107 -0.558127 0)
(-0.0415139 -0.596098 0)
(-0.0413339 -0.625577 0)
(-0.0411783 -0.647737 0)
(-0.0410438 -0.66395 0)
(-0.0409267 -0.675491 0)
(-0.0408231 -0.683411 0)
(-0.0407289 -0.688484 0)
(-0.0406426 -0.691222 0)
(-0.0405613 -0.691915 0)
(-0.0404863 -0.690691 0)
(-0.0404159 -0.687599 0)
(-0.0403529 -0.682721 0)
(-0.040297 -0.676318 0)
(-0.0402413 -0.66899 0)
(-0.0401601 -0.661788 0)
(-0.0464264 -0.336993 0)
(-0.0466248 -0.396624 0)
(-0.04626 -0.456794 0)
(-0.0461215 -0.511853 0)
(-0.0458763 -0.558781 0)
(-0.0456541 -0.596703 0)
(-0.0454464 -0.626121 0)
(-0.0452625 -0.648217 0)
(-0.0450993 -0.664368 0)
(-0.0449539 -0.675853 0)
(-0.0448219 -0.683723 0)
(-0.0446998 -0.688752 0)
(-0.0445859 -0.69145 0)
(-0.0444783 -0.692105 0)
(-0.0443775 -0.690844 0)
(-0.0442828 -0.687715 0)
(-0.0441965 -0.682801 0)
(-0.0441183 -0.676363 0)
(-0.0440405 -0.669006 0)
(-0.0439358 -0.661789 0)
(-0.0507263 -0.337583 0)
(-0.050926 -0.397249 0)
(-0.0504972 -0.457457 0)
(-0.0503197 -0.512524 0)
(-0.050036 -0.559427 0)
(-0.0497806 -0.597301 0)
(-0.0495412 -0.626659 0)
(-0.0493273 -0.648693 0)
(-0.0491348 -0.664784 0)
(-0.0489606 -0.676215 0)
(-0.0488002 -0.684036 0)
(-0.0486504 -0.689021 0)
(-0.0485094 -0.691679 0)
(-0.0483754 -0.692295 0)
(-0.0482491 -0.690995 0)
(-0.0481301 -0.687827 0)
(-0.0480206 -0.682875 0)
(-0.0479203 -0.6764 0)
(-0.0478203 -0.669014 0)
(-0.0476921 -0.661783 0)
(-0.0549328 -0.338148 0)
(-0.0550808 -0.397823 0)
(-0.0546397 -0.458063 0)
(-0.0544617 -0.513146 0)
(-0.0541631 -0.560037 0)
(-0.0538864 -0.597875 0)
(-0.053621 -0.627183 0)
(-0.0533781 -0.649161 0)
(-0.0531554 -0.665198 0)
(-0.0529505 -0.676579 0)
(-0.0527593 -0.684354 0)
(-0.052579 -0.689296 0)
(-0.052408 -0.691913 0)
(-0.0522449 -0.692489 0)
(-0.0520903 -0.69115 0)
(-0.0519444 -0.687941 0)
(-0.0518089 -0.682948 0)
(-0.0516836 -0.676435 0)
(-0.0515589 -0.66902 0)
(-0.0514048 -0.661776 0)
(-0.0592486 -0.338653 0)
(-0.0593491 -0.398342 0)
(-0.0588714 -0.458635 0)
(-0.0586618 -0.513754 0)
(-0.0583267 -0.560648 0)
(-0.0580131 -0.59846 0)
(-0.05771 -0.627723 0)
(-0.0574294 -0.64965 0)
(-0.0571696 -0.665635 0)
(-0.0569286 -0.676966 0)
(-0.0567024 -0.684694 0)
(-0.0564883 -0.689593 0)
(-0.0562846 -0.692168 0)
(-0.0560904 -0.692704 0)
(-0.0559057 -0.691323 0)
(-0.0557311 -0.688072 0)
(-0.0555685 -0.683036 0)
(-0.0554171 -0.676484 0)
(-0.0552668 -0.66904 0)
(-0.0550869 -0.661786 0)
(-0.063519 -0.339282 0)
(-0.0636244 -0.398974 0)
(-0.0631242 -0.459306 0)
(-0.0628751 -0.514449 0)
(-0.0624966 -0.561334 0)
(-0.06214 -0.59911 0)
(-0.0617933 -0.628322 0)
(-0.0614701 -0.650192 0)
(-0.0611689 -0.66612 0)
(-0.0608879 -0.677398 0)
(-0.0606229 -0.685077 0)
(-0.0603716 -0.689931 0)
(-0.060132 -0.692463 0)
(-0.059903 -0.692956 0)
(-0.0596849 -0.691532 0)
(-0.0594786 -0.688237 0)
(-0.0592852 -0.683156 0)
(-0.0591043 -0.676563 0)
(-0.0589261 -0.669091 0)
(-0.0587194 -0.661827 0)
(-0.0678502 -0.339947 0)
(-0.0678797 -0.399677 0)
(-0.0673528 -0.46006 0)
(-0.0670614 -0.515226 0)
(-0.0666412 -0.562098 0)
(-0.0662429 -0.599835 0)
(-0.0658533 -0.628991 0)
(-0.0654873 -0.650802 0)
(-0.0651442 -0.66667 0)
(-0.0648222 -0.677894 0)
(-0.0645176 -0.685523 0)
(-0.0642276 -0.690332 0)
(-0.0639503 -0.692819 0)
(-0.0636853 -0.693271 0)
(-0.0634322 -0.691802 0)
(-0.0631923 -0.688463 0)
(-0.0629667 -0.683337 0)
(-0.0627547 -0.676703 0)
(-0.0625479 -0.669203 0)
(-0.0623147 -0.66193 0)
(-0.0722791 -0.340688 0)
(-0.0721676 -0.400465 0)
(-0.07159 -0.460888 0)
(-0.0712401 -0.516071 0)
(-0.07077 -0.562929 0)
(-0.0703261 -0.600626 0)
(-0.0698918 -0.629729 0)
(-0.0694819 -0.651482 0)
(-0.069096 -0.667294 0)
(-0.0687318 -0.678467 0)
(-0.0683855 -0.686048 0)
(-0.0680549 -0.690813 0)
(-0.0677379 -0.693258 0)
(-0.0674339 -0.693668 0)
(-0.0671428 -0.692156 0)
(-0.0668662 -0.688773 0)
(-0.0666049 -0.683601 0)
(-0.0663583 -0.676926 0)
(-0.0661211 -0.669396 0)
(-0.0658617 -0.662114 0)
(-0.0766762 -0.341456 0)
(-0.076416 -0.401302 0)
(-0.0757934 -0.461766 0)
(-0.075397 -0.516975 0)
(-0.0748837 -0.563826 0)
(-0.0743966 -0.601493 0)
(-0.073918 -0.630549 0)
(-0.0734628 -0.652251 0)
(-0.073032 -0.668012 0)
(-0.0726232 -0.679137 0)
(-0.0722335 -0.686674 0)
(-0.07186 -0.691398 0)
(-0.0715008 -0.693803 0)
(-0.0711561 -0.694174 0)
(-0.0708251 -0.692621 0)
(-0.0705098 -0.689195 0)
(-0.0702113 -0.683979 0)
(-0.0699285 -0.677262 0)
(-0.0696593 -0.669704 0)
(-0.069373 -0.662412 0)
(-0.0810325 -0.342277 0)
(-0.0807625 -0.402235 0)
(-0.0800861 -0.462754 0)
(-0.0796169 -0.517991 0)
(-0.079037 -0.564837 0)
(-0.0784892 -0.602474 0)
(-0.0779535 -0.631485 0)
(-0.0774443 -0.653137 0)
(-0.076962 -0.668848 0)
(-0.076504 -0.679927 0)
(-0.0760664 -0.687421 0)
(-0.0756467 -0.692106 0)
(-0.0752429 -0.694474 0)
(-0.0748541 -0.694807 0)
(-0.0744805 -0.693214 0)
(-0.0741238 -0.689747 0)
(-0.0737847 -0.684487 0)
(-0.0734625 -0.677729 0)
(-0.07316 -0.670139 0)
(-0.0728468 -0.662835 0)
(-0.0852695 -0.343211 0)
(-0.085058 -0.403328 0)
(-0.0843463 -0.463919 0)
(-0.083823 -0.51918 0)
(-0.0831835 -0.56601 0)
(-0.0825766 -0.603608 0)
(-0.0819833 -0.632569 0)
(-0.0814187 -0.654167 0)
(-0.0808836 -0.669827 0)
(-0.0803742 -0.680859 0)
(-0.0798873 -0.688312 0)
(-0.0794194 -0.692959 0)
(-0.0789686 -0.695291 0)
(-0.0785345 -0.695588 0)
(-0.0781165 -0.693959 0)
(-0.0777163 -0.690452 0)
(-0.0773352 -0.68515 0)
(-0.0769715 -0.678352 0)
(-0.0766329 -0.67073 0)
(-0.0762901 -0.663411 0)
(-0.0895803 -0.344191 0)
(-0.0893333 -0.404514 0)
(-0.088573 -0.465209 0)
(-0.0880023 -0.520509 0)
(-0.0873079 -0.567329 0)
(-0.0866466 -0.604888 0)
(-0.0859992 -0.633797 0)
(-0.0853814 -0.655343 0)
(-0.0847941 -0.670952 0)
(-0.0842336 -0.681941 0)
(-0.0836963 -0.689354 0)
(-0.0831793 -0.693966 0)
(-0.0826808 -0.696264 0)
(-0.0821992 -0.696528 0)
(-0.0817349 -0.694863 0)
(-0.0812895 -0.691319 0)
(-0.0808637 -0.685977 0)
(-0.0804561 -0.679137 0)
(-0.0800806 -0.67148 0)
(-0.0797081 -0.664142 0)
(-0.093976 -0.345224 0)
(-0.0935772 -0.40576 0)
(-0.0927517 -0.466584 0)
(-0.0921481 -0.521942 0)
(-0.0914099 -0.568767 0)
(-0.0907017 -0.606298 0)
(-0.0900047 -0.635165 0)
(-0.0893358 -0.656665 0)
(-0.0886974 -0.67223 0)
(-0.0880857 -0.683178 0)
(-0.0874983 -0.690556 0)
(-0.0869314 -0.695135 0)
(-0.0863834 -0.697403 0)
(-0.0858537 -0.697636 0)
(-0.0853419 -0.695939 0)
(-0.0848494 -0.692359 0)
(-0.0843777 -0.68698 0)
(-0.0839244 -0.6801 0)
(-0.083509 -0.672406 0)
(-0.083103 -0.665044 0)
(-0.0983636 -0.346331 0)
(-0.0978614 -0.407093 0)
(-0.0969712 -0.468061 0)
(-0.096322 -0.523489 0)
(-0.0955294 -0.570329 0)
(-0.0947675 -0.607842 0)
(-0.0940165 -0.636674 0)
(-0.093294 -0.658133 0)
(-0.0926026 -0.673659 0)
(-0.0919387 -0.684571 0)
(-0.0912994 -0.691917 0)
(-0.0906814 -0.696467 0)
(-0.0900836 -0.698708 0)
(-0.0895039 -0.698913 0)
(-0.0889432 -0.697186 0)
(-0.0884023 -0.693574 0)
(-0.0878826 -0.688158 0)
(-0.0873819 -0.681238 0)
(-0.0869259 -0.673504 0)
(-0.0864859 -0.666111 0)
(-0.102701 -0.347547 0)
(-0.102134 -0.408561 0)
(-0.101184 -0.469679 0)
(-0.100497 -0.525178 0)
(-0.099654 -0.572036 0)
(-0.0988395 -0.609532 0)
(-0.0980352 -0.638332 0)
(-0.0972588 -0.659754 0)
(-0.096514 -0.675244 0)
(-0.0957967 -0.686124 0)
(-0.095105 -0.693441 0)
(-0.0944348 -0.697966 0)
(-0.0937852 -0.700182 0)
(-0.0931547 -0.700362 0)
(-0.0925435 -0.698608 0)
(-0.0919525 -0.694966 0)
(-0.0913835 -0.689515 0)
(-0.0908337 -0.682557 0)
(-0.0903335 -0.67478 0)
(-0.0898548 -0.667352 0)
(-0.107029 -0.348819 0)
(-0.106396 -0.410112 0)
(-0.105393 -0.471406 0)
(-0.104675 -0.526992 0)
(-0.103784 -0.573876 0)
(-0.10292 -0.611364 0)
(-0.102064 -0.640138 0)
(-0.101235 -0.661526 0)
(-0.100436 -0.676985 0)
(-0.0996653 -0.687835 0)
(-0.0989199 -0.695127 0)
(-0.0981966 -0.699627 0)
(-0.0974945 -0.701821 0)
(-0.0968116 -0.701977 0)
(-0.0961488 -0.700199 0)
(-0.0955066 -0.696527 0)
(-0.0948868 -0.691044 0)
(-0.0942867 -0.684046 0)
(-0.0937417 -0.676223 0)
(-0.0932231 -0.668754 0)
(-0.111411 -0.350172 0)
(-0.110696 -0.41175 0)
(-0.109623 -0.47324 0)
(-0.108872 -0.528928 0)
(-0.107933 -0.57585 0)
(-0.107018 -0.613337 0)
(-0.106109 -0.64209 0)
(-0.105225 -0.66345 0)
(-0.104372 -0.678879 0)
(-0.103547 -0.689702 0)
(-0.102747 -0.69697 0)
(-0.101969 -0.701448 0)
(-0.101212 -0.703621 0)
(-0.100476 -0.703755 0)
(-0.0997598 -0.701952 0)
(-0.0990648 -0.698252 0)
(-0.0983932 -0.692736 0)
(-0.0977414 -0.685698 0)
(-0.0971484 -0.677828 0)
(-0.0965852 -0.67031 0)
(-0.115752 -0.351588 0)
(-0.115024 -0.413483 0)
(-0.113896 -0.47519 0)
(-0.1131 -0.530991 0)
(-0.112107 -0.577957 0)
(-0.111137 -0.615447 0)
(-0.110173 -0.644182 0)
(-0.109234 -0.665516 0)
(-0.108325 -0.680918 0)
(-0.107444 -0.691715 0)
(-0.106588 -0.69896 0)
(-0.105754 -0.703417 0)
(-0.104942 -0.70557 0)
(-0.10415 -0.705682 0)
(-0.10338 -0.703855 0)
(-0.102631 -0.700126 0)
(-0.101907 -0.694577 0)
(-0.101203 -0.687498 0)
(-0.100561 -0.679577 0)
(-0.0999518 -0.672007 0)
(-0.120129 -0.353094 0)
(-0.119394 -0.415344 0)
(-0.118199 -0.477276 0)
(-0.117356 -0.533188 0)
(-0.116305 -0.580196 0)
(-0.115279 -0.617688 0)
(-0.114257 -0.646407 0)
(-0.11326 -0.667715 0)
(-0.112294 -0.683091 0)
(-0.111355 -0.693862 0)
(-0.110441 -0.701085 0)
(-0.10955 -0.70552 0)
(-0.108681 -0.707652 0)
(-0.107833 -0.707741 0)
(-0.107007 -0.70589 0)
(-0.106203 -0.702131 0)
(-0.105424 -0.696546 0)
(-0.104667 -0.689424 0)
(-0.103974 -0.681449 0)
(-0.103315 -0.673822 0)
(-0.124458 -0.354655 0)
(-0.123714 -0.417285 0)
(-0.122475 -0.479457 0)
(-0.121603 -0.53549 0)
(-0.120505 -0.582547 0)
(-0.119429 -0.620044 0)
(-0.118353 -0.648749 0)
(-0.1173 -0.670033 0)
(-0.116276 -0.685384 0)
(-0.115278 -0.69613 0)
(-0.114306 -0.703331 0)
(-0.113356 -0.707744 0)
(-0.112429 -0.709854 0)
(-0.111523 -0.709918 0)
(-0.110639 -0.70804 0)
(-0.109779 -0.704249 0)
(-0.108945 -0.698627 0)
(-0.108134 -0.691459 0)
(-0.107389 -0.683428 0)
(-0.106679 -0.675742 0)
(-0.128848 -0.356251 0)
(-0.128067 -0.41927 0)
(-0.126772 -0.481699 0)
(-0.125867 -0.537867 0)
(-0.124722 -0.584983 0)
(-0.123594 -0.622495 0)
(-0.122462 -0.65119 0)
(-0.121352 -0.672455 0)
(-0.120269 -0.687782 0)
(-0.119211 -0.698504 0)
(-0.118179 -0.705681 0)
(-0.117169 -0.710071 0)
(-0.116182 -0.712157 0)
(-0.115216 -0.712196 0)
(-0.114274 -0.710287 0)
(-0.113356 -0.706461 0)
(-0.112466 -0.700798 0)
(-0.111599 -0.69358 0)
(-0.1108 -0.685491 0)
(-0.110036 -0.677742 0)
(-0.133219 -0.357926 0)
(-0.132422 -0.421319 0)
(-0.131077 -0.484006 0)
(-0.130143 -0.540317 0)
(-0.12895 -0.5875 0)
(-0.12777 -0.625032 0)
(-0.126583 -0.653724 0)
(-0.125413 -0.67497 0)
(-0.12427 -0.690275 0)
(-0.123151 -0.700973 0)
(-0.122057 -0.708127 0)
(-0.120985 -0.712492 0)
(-0.119935 -0.714553 0)
(-0.118909 -0.714562 0)
(-0.117906 -0.712621 0)
(-0.116929 -0.708756 0)
(-0.115981 -0.703049 0)
(-0.115057 -0.695779 0)
(-0.114202 -0.687629 0)
(-0.113381 -0.679817 0)
(-0.137651 -0.359671 0)
(-0.136815 -0.423428 0)
(-0.13541 -0.486372 0)
(-0.134439 -0.542832 0)
(-0.133195 -0.590089 0)
(-0.13196 -0.627648 0)
(-0.130714 -0.656339 0)
(-0.129484 -0.677571 0)
(-0.128278 -0.692855 0)
(-0.127096 -0.70353 0)
(-0.125937 -0.71066 0)
(-0.1248 -0.714999 0)
(-0.123687 -0.717032 0)
(-0.122597 -0.71701 0)
(-0.121531 -0.715033 0)
(-0.120493 -0.711126 0)
(-0.119484 -0.705369 0)
(-0.118502 -0.698043 0)
(-0.117589 -0.689829 0)
(-0.116708 -0.681954 0)
(-0.142075 -0.361473 0)
(-0.141212 -0.425592 0)
(-0.139755 -0.488792 0)
(-0.138748 -0.545408 0)
(-0.137452 -0.592748 0)
(-0.136162 -0.630342 0)
(-0.134856 -0.659038 0)
(-0.133562 -0.680259 0)
(-0.132291 -0.695524 0)
(-0.131042 -0.706176 0)
(-0.129816 -0.713281 0)
(-0.128612 -0.717594 0)
(-0.127432 -0.719597 0)
(-0.126274 -0.719541 0)
(-0.125143 -0.717524 0)
(-0.12404 -0.713571 0)
(-0.122968 -0.707761 0)
(-0.121924 -0.700375 0)
(-0.120948 -0.692096 0)
(-0.120004 -0.684156 0)
(-0.146533 -0.36333 0)
(-0.145657 -0.427816 0)
(-0.144139 -0.491275 0)
(-0.143088 -0.548055 0)
(-0.141735 -0.595486 0)
(-0.140382 -0.63312 0)
(-0.13901 -0.661826 0)
(-0.137649 -0.683039 0)
(-0.136309 -0.698286 0)
(-0.134989 -0.708916 0)
(-0.133692 -0.715996 0)
(-0.132417 -0.72028 0)
(-0.131166 -0.722251 0)
(-0.129939 -0.722158 0)
(-0.128738 -0.720099 0)
(-0.127566 -0.716095 0)
(-0.126427 -0.710228 0)
(-0.125318 -0.702777 0)
(-0.124277 -0.694429 0)
(-0.123269 -0.686423 0)
(-0.150983 -0.365263 0)
(-0.150118 -0.430115 0)
(-0.148542 -0.493838 0)
(-0.147447 -0.55079 0)
(-0.146033 -0.598319 0)
(-0.144616 -0.635999 0)
(-0.143174 -0.664718 0)
(-0.141741 -0.685924 0)
(-0.140327 -0.701155 0)
(-0.138933 -0.711762 0)
(-0.137561 -0.718815 0)
(-0.136211 -0.723069 0)
(-0.134884 -0.725006 0)
(-0.133582 -0.724874 0)
(-0.132307 -0.722768 0)
(-0.131063 -0.71871 0)
(-0.129852 -0.712782 0)
(-0.128673 -0.705262 0)
(-0.127564 -0.696841 0)
(-0.126485 -0.688765 0)
(-0.155508 -0.367277 0)
(-0.154622 -0.432495 0)
(-0.152976 -0.49649 0)
(-0.151829 -0.553621 0)
(-0.150348 -0.601255 0)
(-0.148861 -0.638987 0)
(-0.147345 -0.667723 0)
(-0.145836 -0.688926 0)
(-0.144343 -0.704141 0)
(-0.14287 -0.714726 0)
(-0.141418 -0.721751 0)
(-0.139988 -0.725974 0)
(-0.138582 -0.727875 0)
(-0.137201 -0.7277 0)
(-0.135847 -0.725544 0)
(-0.134526 -0.721429 0)
(-0.133239 -0.715434 0)
(-0.131986 -0.70784 0)
(-0.130805 -0.699343 0)
(-0.129654 -0.691195 0)
(-0.160044 -0.369353 0)
(-0.159133 -0.434954 0)
(-0.157423 -0.49923 0)
(-0.156224 -0.556552 0)
(-0.154674 -0.604301 0)
(-0.153114 -0.642094 0)
(-0.151521 -0.670853 0)
(-0.149931 -0.692056 0)
(-0.148356 -0.707258 0)
(-0.146799 -0.717821 0)
(-0.145262 -0.724819 0)
(-0.143747 -0.729009 0)
(-0.142255 -0.730872 0)
(-0.140789 -0.730652 0)
(-0.139352 -0.728443 0)
(-0.137948 -0.724266 0)
(-0.136581 -0.7182 0)
(-0.135249 -0.710528 0)
(-0.133989 -0.70195 0)
(-0.132761 -0.693726 0)
(-0.164629 -0.371506 0)
(-0.163696 -0.437504 0)
(-0.16191 -0.502075 0)
(-0.160649 -0.559601 0)
(-0.159023 -0.607476 0)
(-0.157383 -0.645337 0)
(-0.155705 -0.674125 0)
(-0.154028 -0.695332 0)
(-0.152364 -0.710523 0)
(-0.150717 -0.721065 0)
(-0.149089 -0.728036 0)
(-0.147483 -0.732192 0)
(-0.1459 -0.734015 0)
(-0.144344 -0.733747 0)
(-0.142818 -0.731482 0)
(-0.141327 -0.727239 0)
(-0.139873 -0.721098 0)
(-0.138457 -0.713343 0)
(-0.137115 -0.704678 0)
(-0.135806 -0.696373 0)
(-0.169207 -0.373759 0)
(-0.168272 -0.440165 0)
(-0.166411 -0.505045 0)
(-0.165091 -0.562788 0)
(-0.163385 -0.610799 0)
(-0.161659 -0.648735 0)
(-0.159892 -0.677558 0)
(-0.158122 -0.698773 0)
(-0.156362 -0.713954 0)
(-0.154619 -0.724476 0)
(-0.152894 -0.731418 0)
(-0.151191 -0.73554 0)
(-0.149512 -0.73732 0)
(-0.14786 -0.737002 0)
(-0.146238 -0.734678 0)
(-0.144653 -0.730365 0)
(-0.143107 -0.724144 0)
(-0.1416 -0.716301 0)
(-0.14017 -0.707545 0)
(-0.138774 -0.699153 0)
(-0.173866 -0.37612 0)
(-0.172891 -0.442945 0)
(-0.170945 -0.508151 0)
(-0.169554 -0.566124 0)
(-0.167762 -0.614283 0)
(-0.165944 -0.652304 0)
(-0.16408 -0.681167 0)
(-0.162211 -0.702394 0)
(-0.16035 -0.717568 0)
(-0.158504 -0.728071 0)
(-0.156676 -0.734985 0)
(-0.154869 -0.73907 0)
(-0.153087 -0.740806 0)
(-0.151333 -0.740436 0)
(-0.149609 -0.738048 0)
(-0.147924 -0.733663 0)
(-0.146279 -0.727357 0)
(-0.144676 -0.71942 0)
(-0.143153 -0.710566 0)
(-0.141665 -0.702082 0)
(-0.178533 -0.378577 0)
(-0.17752 -0.445842 0)
(-0.175492 -0.511395 0)
(-0.174031 -0.569618 0)
(-0.172149 -0.617939 0)
(-0.170235 -0.656056 0)
(-0.168269 -0.684967 0)
(-0.166294 -0.706211 0)
(-0.164325 -0.721381 0)
(-0.162369 -0.731867 0)
(-0.160431 -0.738753 0)
(-0.158513 -0.742801 0)
(-0.15662 -0.744492 0)
(-0.154756 -0.744066 0)
(-0.152924 -0.741612 0)
(-0.151131 -0.737149 0)
(-0.149381 -0.730753 0)
(-0.147675 -0.722717 0)
(-0.146051 -0.71376 0)
(-0.144465 -0.705176 0)
(-0.183257 -0.381144 0)
(-0.182207 -0.448875 0)
(-0.180082 -0.514797 0)
(-0.17854 -0.573288 0)
(-0.176557 -0.621787 0)
(-0.174538 -0.660011 0)
(-0.172461 -0.688979 0)
(-0.170372 -0.710245 0)
(-0.168286 -0.725415 0)
(-0.166213 -0.735884 0)
(-0.164156 -0.742741 0)
(-0.16212 -0.746753 0)
(-0.160109 -0.748395 0)
(-0.158127 -0.747911 0)
(-0.156179 -0.745388 0)
(-0.154272 -0.740842 0)
(-0.152409 -0.734352 0)
(-0.150594 -0.726211 0)
(-0.148863 -0.717143 0)
(-0.147173 -0.708453 0)
(-0.187983 -0.383853 0)
(-0.186915 -0.452066 0)
(-0.184694 -0.518382 0)
(-0.183068 -0.57716 0)
(-0.180978 -0.625851 0)
(-0.178846 -0.664192 0)
(-0.176651 -0.693223 0)
(-0.17444 -0.714516 0)
(-0.17223 -0.729687 0)
(-0.170031 -0.740141 0)
(-0.167847 -0.746971 0)
(-0.165684 -0.750943 0)
(-0.163546 -0.752535 0)
(-0.161439 -0.75199 0)
(-0.159366 -0.749394 0)
(-0.157337 -0.744762 0)
(-0.155354 -0.738172 0)
(-0.153422 -0.729918 0)
(-0.151577 -0.720732 0)
(-0.149775 -0.711928 0)
(-0.192811 -0.386715 0)
(-0.191677 -0.455432 0)
(-0.189344 -0.522164 0)
(-0.187619 -0.581248 0)
(-0.185414 -0.630144 0)
(-0.18316 -0.668613 0)
(-0.180838 -0.697715 0)
(-0.178496 -0.71904 0)
(-0.176153 -0.734216 0)
(-0.173819 -0.744657 0)
(-0.1715 -0.751458 0)
(-0.169202 -0.755391 0)
(-0.166929 -0.756932 0)
(-0.164688 -0.756323 0)
(-0.162483 -0.753649 0)
(-0.160323 -0.748925 0)
(-0.158212 -0.742229 0)
(-0.156154 -0.733857 0)
(-0.154188 -0.724545 0)
(-0.152269 -0.715618 0)
(-0.197659 -0.389721 0)
(-0.196453 -0.458978 0)
(-0.194014 -0.52615 0)
(-0.192186 -0.58556 0)
(-0.189859 -0.634679 0)
(-0.187477 -0.673289 0)
(-0.18502 -0.702472 0)
(-0.182539 -0.723835 0)
(-0.180054 -0.739021 0)
(-0.177576 -0.74945 0)
(-0.175112 -0.756225 0)
(-0.172669 -0.760116 0)
(-0.170252 -0.761603 0)
(-0.167867 -0.760927 0)
(-0.16552 -0.758172 0)
(-0.16322 -0.753352 0)
(-0.160973 -0.746543 0)
(-0.158781 -0.738046 0)
(-0.156685 -0.7286 0)
(-0.154639 -0.719541 0)
(-0.202578 -0.392886 0)
(-0.201293 -0.462722 0)
(-0.19873 -0.530361 0)
(-0.196787 -0.590118 0)
(-0.194327 -0.639477 0)
(-0.191804 -0.678241 0)
(-0.1892 -0.707515 0)
(-0.186569 -0.728923 0)
(-0.183931 -0.744123 0)
(-0.181299 -0.754542 0)
(-0.17868 -0.76129 0)
(-0.176081 -0.76514 0)
(-0.17351 -0.766571 0)
(-0.170972 -0.765825 0)
(-0.168474 -0.762983 0)
(-0.166025 -0.758061 0)
(-0.163631 -0.751134 0)
(-0.161297 -0.742503 0)
(-0.159062 -0.732914 0)
(-0.156882 -0.723714 0)
(-0.207497 -0.396244 0)
(-0.206155 -0.466687 0)
(-0.20347 -0.534821 0)
(-0.201408 -0.594948 0)
(-0.198807 -0.644564 0)
(-0.196135 -0.683496 0)
(-0.193375 -0.712869 0)
(-0.190582 -0.734328 0)
(-0.187781 -0.749544 0)
(-0.184983 -0.759956 0)
(-0.182198 -0.766677 0)
(-0.179433 -0.770484 0)
(-0.176696 -0.771856 0)
(-0.173994 -0.771036 0)
(-0.171334 -0.768104 0)
(-0.168726 -0.763074 0)
(-0.166176 -0.756021 0)
(-0.163689 -0.747248 0)
(-0.161306 -0.737507 0)
(-0.158983 -0.728154 0)
(-0.212506 -0.399797 0)
(-0.211068 -0.470878 0)
(-0.208245 -0.53954 0)
(-0.206052 -0.600063 0)
(-0.203299 -0.649957 0)
(-0.200467 -0.68907 0)
(-0.197539 -0.718553 0)
(-0.194575 -0.740071 0)
(-0.191599 -0.755308 0)
(-0.188624 -0.765715 0)
(-0.185661 -0.772409 0)
(-0.182719 -0.776171 0)
(-0.179806 -0.777482 0)
(-0.176928 -0.776584 0)
(-0.174096 -0.773556 0)
(-0.171317 -0.768411 0)
(-0.1686 -0.761225 0)
(-0.16595 -0.752302 0)
(-0.16341 -0.742398 0)
(-0.160934 -0.732882 0)
(-0.21755 -0.403548 0)
(-0.216008 -0.475312 0)
(-0.213048 -0.544534 0)
(-0.210716 -0.60548 0)
(-0.207802 -0.655673 0)
(-0.204799 -0.694985 0)
(-0.201693 -0.72459 0)
(-0.198545 -0.746174 0)
(-0.195382 -0.761438 0)
(-0.192218 -0.771841 0)
(-0.189065 -0.778508 0)
(-0.185933 -0.782225 0)
(-0.18283 -0.783472 0)
(-0.179765 -0.782491 0)
(-0.176747 -0.779362 0)
(-0.173787 -0.774096 0)
(-0.170891 -0.766769 0)
(-0.168068 -0.757685 0)
(-0.165359 -0.747608 0)
(-0.16272 -0.737917 0)
(-0.222669 -0.407513 0)
(-0.221013 -0.480003 0)
(-0.217898 -0.549823 0)
(-0.215413 -0.611222 0)
(-0.212323 -0.661737 0)
(-0.209136 -0.701265 0)
(-0.205838 -0.731005 0)
(-0.202492 -0.752664 0)
(-0.199128 -0.767959 0)
(-0.195761 -0.778361 0)
(-0.192405 -0.785002 0)
(-0.189069 -0.788671 0)
(-0.185764 -0.789852 0)
(-0.182499 -0.788784 0)
(-0.179283 -0.785548 0)
(-0.176127 -0.780154 0)
(-0.173042 -0.772676 0)
(-0.170032 -0.763422 0)
(-0.167143 -0.753159 0)
(-0.16433 -0.743279 0)
(-0.227818 -0.411724 0)
(-0.226059 -0.484984 0)
(-0.222784 -0.555439 0)
(-0.220135 -0.617321 0)
(-0.216859 -0.66818 0)
(-0.213474 -0.70794 0)
(-0.20997 -0.737826 0)
(-0.206412 -0.759568 0)
(-0.202832 -0.774899 0)
(-0.199248 -0.785303 0)
(-0.195674 -0.791919 0)
(-0.19212 -0.795538 0)
(-0.188598 -0.796648 0)
(-0.185118 -0.795489 0)
(-0.18169 -0.79214 0)
(-0.178326 -0.786609 0)
(-0.175036 -0.778971 0)
(-0.171828 -0.769535 0)
(-0.168747 -0.759075 0)
(-0.165747 -0.748992 0)
(-0.233074 -0.416198 0)
(-0.231171 -0.490274 0)
(-0.227718 -0.561403 0)
(-0.224888 -0.623798 0)
(-0.22141 -0.675026 0)
(-0.217813 -0.715036 0)
(-0.214087 -0.745082 0)
(-0.210302 -0.766916 0)
(-0.206491 -0.782289 0)
(-0.202674 -0.792696 0)
(-0.198866 -0.799286 0)
(-0.195079 -0.802856 0)
(-0.191325 -0.803891 0)
(-0.187615 -0.802636 0)
(-0.18396 -0.799165 0)
(-0.180373 -0.79349 0)
(-0.176865 -0.785682 0)
(-0.173444 -0.776052 0)
(-0.170157 -0.76538 0)
(-0.166959 -0.755079 0)
(-0.238384 -0.420941 0)
(-0.236327 -0.495891 0)
(-0.232693 -0.567735 0)
(-0.22967 -0.630676 0)
(-0.225975 -0.682299 0)
(-0.222151 -0.722581 0)
(-0.218188 -0.752801 0)
(-0.21416 -0.774737 0)
(-0.210101 -0.790158 0)
(-0.206034 -0.800573 0)
(-0.201974 -0.807138 0)
(-0.197937 -0.810655 0)
(-0.193933 -0.811613 0)
(-0.189977 -0.810254 0)
(-0.186079 -0.806656 0)
(-0.182253 -0.800826 0)
(-0.178511 -0.792837 0)
(-0.174863 -0.783001 0)
(-0.171355 -0.772102 0)
(-0.167945 -0.761565 0)
(-0.243784 -0.425977 0)
(-0.241557 -0.501862 0)
(-0.237722 -0.574465 0)
(-0.234489 -0.637988 0)
(-0.230561 -0.690035 0)
(-0.226492 -0.730609 0)
(-0.222273 -0.761019 0)
(-0.217983 -0.783068 0)
(-0.213658 -0.798544 0)
(-0.209321 -0.808969 0)
(-0.204992 -0.815509 0)
(-0.200685 -0.818971 0)
(-0.196415 -0.819847 0)
(-0.192194 -0.81838 0)
(-0.188035 -0.814645 0)
(-0.183953 -0.80865 0)
(-0.179961 -0.800468 0)
(-0.176069 -0.790411 0)
(-0.172325 -0.779269 0)
(-0.168688 -0.768479 0)
(-0.249231 -0.431337 0)
(-0.246839 -0.508216 0)
(-0.242795 -0.581626 0)
(-0.239341 -0.645769 0)
(-0.235164 -0.698268 0)
(-0.230831 -0.739158 0)
(-0.226338 -0.769775 0)
(-0.221766 -0.791947 0)
(-0.217155 -0.807485 0)
(-0.212529 -0.817923 0)
(-0.207911 -0.824438 0)
(-0.203315 -0.827843 0)
(-0.198757 -0.828631 0)
(-0.194252 -0.827048 0)
(-0.189813 -0.823168 0)
(-0.185456 -0.816998 0)
(-0.181195 -0.808608 0)
(-0.177042 -0.798315 0)
(-0.173046 -0.786913 0)
(-0.169165 -0.77585 0)
(-0.254793 -0.437043 0)
(-0.252198 -0.514977 0)
(-0.247923 -0.589246 0)
(-0.244228 -0.65405 0)
(-0.239783 -0.707036 0)
(-0.235167 -0.748265 0)
(-0.23038 -0.779107 0)
(-0.225505 -0.801415 0)
(-0.220586 -0.817021 0)
(-0.21565 -0.827477 0)
(-0.21072 -0.833967 0)
(-0.205813 -0.837311 0)
(-0.200947 -0.838007 0)
(-0.196137 -0.8363 0)
(-0.191397 -0.832265 0)
(-0.186745 -0.825906 0)
(-0.182197 -0.817296 0)
(-0.177764 -0.806749 0)
(-0.173497 -0.795068 0)
(-0.169356 -0.78371 0)
(-0.260423 -0.443107 0)
(-0.257616 -0.52217 0)
(-0.253103 -0.597353 0)
(-0.249151 -0.662865 0)
(-0.244419 -0.716373 0)
(-0.2395 -0.757971 0)
(-0.234395 -0.789057 0)
(-0.229195 -0.811515 0)
(-0.223945 -0.827198 0)
(-0.218675 -0.837674 0)
(-0.213409 -0.84414 0)
(-0.208168 -0.84742 0)
(-0.20297 -0.848018 0)
(-0.197832 -0.846179 0)
(-0.192769 -0.841978 0)
(-0.1878 -0.835418 0)
(-0.182942 -0.82657 0)
(-0.178209 -0.815751 0)
(-0.173651 -0.803769 0)
(-0.169232 -0.792094 0)
(-0.266163 -0.449564 0)
(-0.263129 -0.529831 0)
(-0.258351 -0.60599 0)
(-0.254119 -0.672259 0)
(-0.249077 -0.726329 0)
(-0.243829 -0.768323 0)
(-0.238383 -0.799676 0)
(-0.232831 -0.822298 0)
(-0.227224 -0.838067 0)
(-0.221594 -0.848567 0)
(-0.215968 -0.855007 0)
(-0.210367 -0.85822 0)
(-0.204812 -0.858713 0)
(-0.19932 -0.856732 0)
(-0.19391 -0.852353 0)
(-0.1886 -0.845577 0)
(-0.18341 -0.836474 0)
(-0.178354 -0.825363 0)
(-0.173485 -0.813058 0)
(-0.168766 -0.801039 0)
(-0.271978 -0.456451 0)
(-0.268717 -0.537999 0)
(-0.263661 -0.615199 0)
(-0.25913 -0.682279 0)
(-0.253753 -0.736951 0)
(-0.248152 -0.779375 0)
(-0.242337 -0.811016 0)
(-0.236406 -0.833817 0)
(-0.230415 -0.84968 0)
(-0.224396 -0.860208 0)
(-0.218381 -0.866622 0)
(-0.212392 -0.869764 0)
(-0.206452 -0.870144 0)
(-0.200579 -0.868012 0)
(-0.194795 -0.863441 0)
(-0.189119 -0.856432 0)
(-0.183571 -0.847055 0)
(-0.178168 -0.83563 0)
(-0.172964 -0.822976 0)
(-0.167925 -0.810585 0)
(-0.277942 -0.463803 0)
(-0.27441 -0.546716 0)
(-0.269046 -0.625028 0)
(-0.264187 -0.692973 0)
(-0.258448 -0.748293 0)
(-0.252465 -0.791178 0)
(-0.246253 -0.823132 0)
(-0.239914 -0.846129 0)
(-0.233507 -0.862096 0)
(-0.227069 -0.872656 0)
(-0.220634 -0.879044 0)
(-0.214227 -0.88211 0)
(-0.207872 -0.88237 0)
(-0.201589 -0.880074 0)
(-0.195402 -0.875297 0)
(-0.189331 -0.868038 0)
(-0.183399 -0.858366 0)
(-0.177623 -0.846602 0)
(-0.172059 -0.833571 0)
(-0.166676 -0.820778 0)
(-0.284004 -0.471645 0)
(-0.280183 -0.556022 0)
(-0.274497 -0.635519 0)
(-0.269287 -0.704391 0)
(-0.26316 -0.760407 0)
(-0.256766 -0.803792 0)
(-0.250125 -0.836086 0)
(-0.243345 -0.859297 0)
(-0.236489 -0.875379 0)
(-0.229599 -0.885976 0)
(-0.222711 -0.892337 0)