# vtk DataFile Version 2.0
track0
ASCII
DATASET POLYDATA
POINTS 12110 float
-0.0205 0.001 1e-05
-0.0204959 0.0011 1e-05
-0.0204917 0.00119999 1e-05
-0.0204872 0.00129998 1e-05
-0.0204826 0.00139995 1e-05
-0.0204778 0.0015 1e-05
-0.0204728 0.0016 1e-05
-0.0204676 0.00169999 1e-05
-0.0204622 0.00179997 1e-05
-0.0204565 0.00189993 1e-05
-0.0204507 0.002 1e-05
-0.0204446 0.0021 1e-05
-0.0204383 0.00219999 1e-05
-0.0204317 0.00229995 1e-05
-0.0204249 0.00239991 1e-05
-0.0204178 0.0025 1e-05
-0.0204106 0.0026 1e-05
-0.020403 0.00269998 1e-05
-0.0203952 0.00279994 1e-05
-0.0203872 0.00289989 1e-05
-0.0203789 0.003 1e-05
-0.0203703 0.0031 1e-05
-0.0203615 0.00319998 1e-05
-0.0203525 0.00329993 1e-05
-0.0203432 0.00339986 1e-05
-0.0203336 0.0035 1e-05
-0.0203239 0.00359787 1e-05
-0.020314 0.00369572 1e-05
-0.0203039 0.00379355 1e-05
-0.0202935 0.00389135 1e-05
-0.0202854 0.0039662 1e-05
-0.0202846 0.00397296 1e-05
-0.0202839 0.00397972 1e-05
-0.0202831 0.00398648 1e-05
-0.0202824 0.00399324 1e-05
-0.0202816 0.004 1e-05
-0.0202705 0.0041 1e-05
-0.0202591 0.00419997 1e-05
-0.0202474 0.00429991 1e-05
-0.0202354 0.00439982 1e-05
-0.0202232 0.0045 1e-05
-0.0202107 0.0046 1e-05
-0.0201979 0.00469997 1e-05
-0.0201849 0.0047999 1e-05
-0.0201716 0.0048998 1e-05
-0.020158 0.005 1e-05
-0.0201442 0.0051 1e-05
-0.0201301 0.00519996 1e-05
-0.0201157 0.00529989 1e-05
-0.020101 0.00539977 1e-05
-0.0200861 0.0055 1e-05
-0.0200733 0.00558382 1e-05
-0.0200604 0.00566761 1e-05
-0.0200473 0.00575137 1e-05
-0.0200339 0.00583509 1e-05
-0.0200223 0.00590702 1e-05
-0.0200193 0.00592561 1e-05
-0.0200162 0.00594421 1e-05
-0.0200132 0.0059628 1e-05
-0.0200101 0.00598139 1e-05
-0.020007 0.006 1e-05
-0.0199904 0.0061 1e-05
-0.0199735 0.00619995 1e-05
-0.0199564 0.00629986 1e-05
-0.019939 0.00639972 1e-05
-0.0199212 0.0065 1e-05
-0.0199032 0.0066 1e-05
-0.0198849 0.00669995 1e-05
-0.0198663 0.00679985 1e-05
-0.0198475 0.0068997 1e-05
-0.0198283 0.007 1e-05
-0.0198149 0.00706881 1e-05
-0.0198014 0.0071376 1e-05
-0.0197877 0.00720636 1e-05
-0.019774 0.0072751 1e-05
-0.0197614 0.00733727 1e-05
-0.0197547 0.00736981 1e-05
-0.019748 0.00740235 1e-05
-0.0197413 0.00743489 1e-05
-0.0197346 0.00746742 1e-05
-0.0197278 0.0075 1e-05
-0.0197069 0.0076 1e-05
-0.0196857 0.00769994 1e-05
-0.0196642 0.00779982 1e-05
-0.0196425 0.00789964 1e-05
-0.0196203 0.008 1e-05
-0.0195979 0.0081 1e-05
-0.0195753 0.00819994 1e-05
-0.0195523 0.00829981 1e-05
-0.0195291 0.00839961 1e-05
-0.0195054 0.0085 1e-05
-0.0195048 0.00850239 1e-05
-0.0195042 0.00850479 1e-05
-0.0195037 0.00850718 1e-05
-0.0195031 0.00850957 1e-05
-0.0195025 0.00851196 1e-05
-0.0194791 0.00860956 1e-05
-0.0194555 0.00870711 1e-05
-0.0194316 0.00880458 1e-05
-0.0194074 0.00890199 1e-05
-0.0193828 0.009 1e-05
-0.0193573 0.0091 1e-05
-0.0193316 0.00919992 1e-05
-0.0193055 0.00929977 1e-05
-0.0192792 0.00939955 1e-05
-0.0192524 0.0095 1e-05
-0.0192511 0.00950493 1e-05
-0.0192497 0.00950987 1e-05
-0.0192484 0.0095148 1e-05
-0.0192471 0.00951974 1e-05
-0.0192457 0.00952464 1e-05
-0.01922 0.00961972 1e-05
-0.019194 0.00971471 1e-05
-0.0191677 0.00980964 1e-05
-0.0191411 0.00990449 1e-05
-0.019114 0.01 1e-05
-0.0190894 0.010086 1e-05
-0.0190646 0.0101718 1e-05
-0.0190396 0.0102577 1e-05
-0.0190143 0.0103434 1e-05
-0.018991 0.0104216 1e-05
-0.0189863 0.0104373 1e-05
-0.0189816 0.010453 1e-05
-0.0189769 0.0104686 1e-05
-0.0189722 0.0104843 1e-05
-0.0189674 0.0105 1e-05
-0.0189372 0.0106 1e-05
-0.0189066 0.0106999 1e-05
-0.0188757 0.0107997 1e-05
-0.0188446 0.0108994 1e-05
-0.0188128 0.011 1e-05
-0.0187979 0.0110466 1e-05
-0.018783 0.0110931 1e-05
-0.0187679 0.0111396 1e-05
-0.0187529 0.0111861 1e-05
-0.0187384 0.0112306 1e-05
-0.0187208 0.0112844 1e-05
-0.018703 0.0113383 1e-05
-0.0186852 0.0113921 1e-05
-0.0186673 0.0114459 1e-05
-0.0186492 0.0115 1e-05
-0.0186169 0.0115959 1e-05
-0.0185843 0.0116917 1e-05
-0.0185515 0.0117874 1e-05
-0.0185183 0.011883 1e-05
-0.0184878 0.0119702 1e-05
-0.0184857 0.0119762 1e-05
-0.0184836 0.0119821 1e-05
-0.0184815 0.0119881 1e-05
-0.0184794 0.011994 1e-05
-0.0184773 0.012 1e-05
-0.0184418 0.0121 1e-05
-0.0184061 0.0121999 1e-05
-0.01837 0.0122997 1e-05
-0.0183336 0.0123993 1e-05
-0.0182965 0.0125 1e-05
-0.0182851 0.0125308 1e-05
-0.0182736 0.0125616 1e-05
-0.018262 0.0125924 1e-05
-0.0182505 0.0126231 1e-05
-0.0182392 0.0126531 1e-05
-0.018213 0.0127225 1e-05
-0.0181866 0.0127918 1e-05
-0.01816 0.012861 1e-05
-0.0181333 0.0129303 1e-05
-0.0181063 0.013 1e-05
-0.0180835 0.0130582 1e-05
-0.0180607 0.0131163 1e-05
-0.0180377 0.0131744 1e-05
-0.0180147 0.0132324 1e-05
-0.0179926 0.0132877 1e-05
-0.0179755 0.0133301 1e-05
-0.0179584 0.0133726 1e-05
-0.0179412 0.013415 1e-05
-0.017924 0.0134574 1e-05
-0.0179066 0.0135 1e-05
-0.0178749 0.0135774 1e-05
-0.017843 0.0136547 1e-05
-0.0178108 0.0137319 1e-05
-0.0177785 0.0138091 1e-05
-0.017748 0.0138815 1e-05
-0.0177379 0.0139052 1e-05
-0.0177278 0.0139289 1e-05
-0.0177177 0.0139526 1e-05
-0.0177076 0.0139762 1e-05
-0.0176974 0.014 1e-05
-0.017659 0.0140895 1e-05
-0.0176203 0.0141788 1e-05
-0.0175814 0.014268 1e-05
-0.0175422 0.0143571 1e-05
-0.0175053 0.0144401 1e-05
-0.0175 0.0144521 1e-05
-0.0174946 0.0144641 1e-05
-0.0174893 0.014476 1e-05
-0.0174839 0.014488 1e-05
-0.0174785 0.0145 1e-05
-0.0174357 0.0145952 1e-05
-0.0173927 0.0146902 1e-05
-0.0173493 0.0147851 1e-05
-0.0173056 0.0148798 1e-05
-0.0172647 0.0149678 1e-05
-0.0172616 0.0149742 1e-05
-0.0172586 0.0149807 1e-05
-0.0172556 0.0149871 1e-05
-0.0172526 0.0149936 1e-05
-0.0172495 0.015 1e-05
-0.0172048 0.0150951 1e-05
-0.0171598 0.0151901 1e-05
-0.0171144 0.015285 1e-05
-0.0170688 0.0153797 1e-05
-0.0170259 0.0154678 1e-05
-0.0170228 0.0154743 1e-05
-0.0170196 0.0154807 1e-05
-0.0170165 0.0154871 1e-05
-0.0170133 0.0154936 1e-05
-0.0170102 0.0155 1e-05
-0.0169659 0.01559 1e-05
-0.0169215 0.0156798 1e-05
-0.0168767 0.0157695 1e-05
-0.0168316 0.0158591 1e-05
-0.0167891 0.015943 1e-05
-0.0167833 0.0159544 1e-05
-0.0167775 0.0159658 1e-05
-0.0167716 0.0159772 1e-05
-0.0167658 0.0159886 1e-05
-0.0167599 0.016 1e-05
-0.0167188 0.0160802 1e-05
-0.0166774 0.0161603 1e-05
-0.0166358 0.0162402 1e-05
-0.016594 0.01632 1e-05
-0.0165542 0.0163955 1e-05
-0.0165431 0.0164164 1e-05
-0.016532 0.0164373 1e-05
-0.0165208 0.0164582 1e-05
-0.0165097 0.016479 1e-05
-0.0164985 0.0165 1e-05
-0.016463 0.0165662 1e-05
-0.0164274 0.0166323 1e-05
-0.0163916 0.0166984 1e-05
-0.0163557 0.0167643 1e-05
-0.0163212 0.0168274 1e-05
-0.0163022 0.0168619 1e-05
-0.0162831 0.0168964 1e-05
-0.016264 0.0169309 1e-05
-0.0162448 0.0169653 1e-05
-0.0162255 0.017 1e-05
-0.0161984 0.0170485 1e-05
-0.0161712 0.0170969 1e-05
-0.016144 0.0171453 1e-05
-0.0161166 0.0171937 1e-05
-0.01609 0.0172405 1e-05
-0.0160604 0.0172924 1e-05
-0.0160307 0.0173443 1e-05
-0.016001 0.017396 1e-05
-0.0159711 0.0174478 1e-05
-0.0159408 0.0175 1e-05
-0.0159248 0.0175275 1e-05
-0.0159087 0.0175549 1e-05
-0.0158927 0.0175823 1e-05
-0.0158766 0.0176098 1e-05
-0.0158607 0.0176367 1e-05
-0.0158179 0.0177094 1e-05
-0.0157749 0.0177819 1e-05
-0.0157317 0.0178543 1e-05
-0.0156883 0.0179267 1e-05
-0.015644 0.018 1e-05
-0.0156419 0.0180035 1e-05
-0.0156397 0.018007 1e-05
-0.0156376 0.0180106 1e-05
-0.0156355 0.0180141 1e-05
-0.0156333 0.0180176 1e-05
-0.0155882 0.0180918 1e-05
-0.0155429 0.0181659 1e-05
-0.0154973 0.0182398 1e-05
-0.0154516 0.0183136 1e-05
-0.0154077 0.0183841 1e-05
-0.0153932 0.0184073 1e-05
-0.0153786 0.0184304 1e-05
-0.0153641 0.0184536 1e-05
-0.0153495 0.0184767 1e-05
-0.0153348 0.0185 1e-05
-0.0153046 0.0185477 1e-05
-0.0152743 0.0185953 1e-05
-0.015244 0.0186429 1e-05
-0.0152136 0.0186904 1e-05
-0.0151839 0.0187366 1e-05
-0.0151499 0.0187892 1e-05
-0.0151158 0.0188419 1e-05
-0.0150817 0.0188944 1e-05
-0.0150474 0.0189469 1e-05
-0.0150125 0.019 1e-05
-0.0150024 0.0190154 1e-05
-0.0149923 0.0190307 1e-05
-0.0149821 0.019046 1e-05
-0.014972 0.0190614 1e-05
-0.0149619 0.0190766 1e-05
-0.0149179 0.019143 1e-05
-0.0148737 0.0192093 1e-05
-0.0148293 0.0192755 1e-05
-0.0147848 0.0193416 1e-05
-0.0147417 0.0194052 1e-05
-0.0147288 0.0194241 1e-05
-0.0147159 0.0194431 1e-05
-0.014703 0.019462 1e-05
-0.01469 0.019481 1e-05
-0.014677 0.0195 1e-05
-0.0146463 0.0195448 1e-05
-0.0146154 0.0195895 1e-05
-0.0145846 0.0196342 1e-05
-0.0145536 0.0196789 1e-05
-0.0145233 0.0197224 1e-05
-0.0144846 0.0197779 1e-05
-0.0144457 0.0198334 1e-05
-0.0144067 0.0198887 1e-05
-0.0143675 0.019944 1e-05
-0.0143277 0.02 1e-05
-0.0143235 0.0200059 1e-05
-0.0143193 0.0200118 1e-05
-0.0143151 0.0200177 1e-05
-0.0143109 0.0200236 1e-05
-0.0143067 0.0200295 1e-05
-0.0142637 0.0200896 1e-05
-0.0142206 0.0201495 1e-05
-0.0141773 0.0202094 1e-05
-0.0141339 0.0202692 1e-05
-0.0140917 0.020327 1e-05
-0.0140664 0.0203616 1e-05
-0.014041 0.0203962 1e-05
-0.0140156 0.0204307 1e-05
-0.0139901 0.0204652 1e-05
-0.0139643 0.0205 1e-05
-0.0139472 0.0205231 1e-05
-0.01393 0.0205462 1e-05
-0.0139128 0.0205692 1e-05
-0.0138956 0.0205923 1e-05
-0.0138786 0.020615 1e-05
-0.0138363 0.0206715 1e-05
-0.0137939 0.0207278 1e-05
-0.0137513 0.0207841 1e-05
-0.0137087 0.0208402 1e-05
-0.0136671 0.0208947 1e-05
-0.013651 0.0209158 1e-05
-0.0136348 0.0209368 1e-05
-0.0136187 0.0209579 1e-05
-0.0136025 0.0209789 1e-05
-0.0135862 0.021 1e-05
-0.0135604 0.0210334 1e-05
-0.0135346 0.0210667 1e-05
-0.0135087 0.0211 1e-05
-0.0134828 0.0211333 1e-05
-0.0134573 0.021166 1e-05
-0.0134157 0.0212191 1e-05
-0.013374 0.0212722 1e-05
-0.0133322 0.0213252 1e-05
-0.0132902 0.0213782 1e-05
-0.0132493 0.0214297 1e-05
-0.013238 0.0214437 1e-05
-0.0132268 0.0214578 1e-05
-0.0132155 0.0214719 1e-05
-0.0132043 0.0214859 1e-05
-0.013193 0.0215 1e-05
-0.013163 0.0215374 1e-05
-0.0131329 0.0215747 1e-05
-0.0131027 0.021612 1e-05
-0.0130726 0.0216493 1e-05
-0.0130429 0.0216858 1e-05
-0.0130019 0.0217361 1e-05
-0.0129609 0.0217863 1e-05
-0.0129197 0.0218364 1e-05
-0.0128785 0.0218864 1e-05
-0.0128381 0.0219352 1e-05
-0.0128274 0.0219482 1e-05
-0.0128166 0.0219611 1e-05
-0.0128058 0.0219741 1e-05
-0.012795 0.021987 1e-05
[...]
POINT_DATA 12110
 FIELD attributes 2
p 1 12110 float
0.00332867 0.00386168 0.00439018 0.00491871 0.00544717 0.0059688 0.00635013 0.00673261 0.00711631 0.00749993 0.00788392 0.00829413 0.0087059 0.00911858 0.00953131 0.00994622 0.0104081 0.0108711 0.0113339 0.0117974 0.0122627 0.0127612 0.0132606 0.0137598 0.0142589 0.0147606 0.0152724 0.0157846 0.0162966 0.0168085 0.0172008 0.0172361 0.0172715 0.0173068 0.0173421 0.0173776 0.0179204 0.0184634 0.0190061 0.0195486 0.0200928 0.020656 0.021219 0.0217817 0.0223442 0.0229086 0.0234925 0.0240765 0.0246603 0.0252435 0.0258291 0.0263374 0.0268457 0.0273538 0.0278616 0.028298 0.0284101 0.0285229 0.0286357 0.0287486 0.0288623 0.0294915 0.0301211 0.0307503 0.0313792 0.0320117 0.0326652 0.0333192 0.0339728 0.0346251 0.0352812 0.0357465 0.0362126 0.0366786 0.0371443 0.0375665 0.0377869 0.0380076 0.0382283 0.038449 0.0386703 0.0393734 0.0400752 0.0407764 0.0414771 0.0421818 0.0429077 0.0436335 0.0443588 0.0450836 0.0458128 0.0458306 0.0458485 0.0458665 0.0458845 0.0459024 0.0466341 0.0473663 0.048098 0.0488292 0.0495659 0.050339 0.0511125 0.0518854 0.0526578 0.053436 0.0534744 0.0535136 0.0535529 0.0535926 0.0536321 0.0543902 0.0551479 0.0559051 0.0566617 0.0574238 0.058128 0.0588318 0.0595352 0.0602381 0.0608793 0.0610072 0.061136 0.0612648 0.0613936 0.0615234 0.0623657 0.0632071 0.0640476 0.0648874 0.0657353 0.0661358 0.066537 0.066938 0.0673389 0.0677226 0.0681883 0.0686539 0.0691192 0.0695843 0.0700518 0.0708991 0.0717458 0.0725916 0.0734368 0.0742083 0.0742604 0.074313 0.0743658 0.0744186 0.0744724 0.0753753 0.0762773 0.0771785 0.0780789 0.0789893 0.0792718 0.0795551 0.0798382 0.0801213 0.0803977 0.081038 0.0816779 0.0823173 0.0829563 0.0836004 0.084146 0.084691 0.0852358 0.0857802 0.0862981 0.0866973 0.0870969 0.0874963 0.0878955 0.0882973 0.0890357 0.0897744 0.0905124 0.0912498 0.0919425 0.0921698 0.0923971 0.0926243 0.0928515 0.0930794 0.0939475 0.0948143 0.0956802 0.0965452 0.0973503 0.0974668 0.0975835 0.0977003 0.097817 0.0979342 0.0988703 0.0998061 0.100741 0.101675 0.102543 0.102607 0.10267 0.102734 0.102798 0.102862 0.10381 0.104757 0.105702 0.106647 0.107526 0.10759 0.107655 0.107719 0.107783 0.107848 0.108754 0.109661 0.110566 0.11147 0.112318 0.112433 0.112549 0.112664 0.11278 0.112896 0.113711 0.114525 0.115339 0.116151 0.116918 0.117132 0.117346 0.117559 0.117773 0.117987 0.118664 0.119342 0.120019 0.120695 0.121343 0.121698 0.122054 0.122409 0.122764 0.123122 0.123621 0.12412 0.124618 0.125115 0.125596 0.126134 0.12667 0.127207 0.127742 0.128283 0.128566 0.128849 0.129132 0.129415 0.129695 0.130448 0.131201 0.131953 0.132704 0.133466 0.133504 0.133541 0.133577 0.133613 0.133648 0.134417 0.135184 0.135949 0.136714 0.137444 0.137687 0.137928 0.13817 0.138411 0.138651 0.139142 0.139632 0.140122 0.140611 0.141086 0.141632 0.142178 0.142723 0.143268 0.143821 0.143979 0.144136 0.144292 0.144449 0.144603 0.145286 0.145965 0.146643 0.14732 0.147969 0.148166 0.148362 0.148557 0.148753 0.148948 0.149399 0.149851 0.150303 0.150754 0.151195 0.151759 0.152322 0.152885 0.153447 0.154016 0.154078 0.154136 0.154194 0.154252 0.154307 0.154905 0.1555 0.156094 0.156687 0.15726 0.157608 0.157953 0.158297 0.158641 0.158985 0.159207 0.159428 0.15965 0.159871 0.160089 0.160633 0.161178 0.161722 0.162265 0.162794 0.162998 0.163202 0.163405 0.163609 0.163814 0.164127 0.164435 0.164743 0.165051 0.16535 0.165848 0.166343 0.166838 0.167331 0.167809 0.167945 0.168076 0.168207 0.168338 0.168465 0.168796 0.169126 0.169456 0.169785 0.170109 0.170553 0.171 0.171446 0.171892 0.17233 0.172445 0.17256 0.172675 0.17279 0.172906 0.173209 0.173507 0.173804 0.174102 0.174388 0.174791 0.175189 0.175588 0.175986 0.176372 0.176522 0.176666 0.17681 0.176953 0.177091 0.177316 0.177539 0.177763 0.177986 0.178207 0.178554 0.178904 0.179254 0.179604 0.179951 0.180154 0.180357 0.18056 0.180762 0.180967 0.181098 0.181222 0.181346 0.181471 0.181587 0.181896 0.182202 0.182508 0.182814 0.183111 0.1834 0.183681 0.183962 0.184243 0.18452 0.184533 0.184545 0.184558 0.18457 0.184582 0.184841 0.185104 0.185367 0.18563 0.185892 0.186147 0.186402 0.186657 0.186912 0.187163 0.187271 0.187384 0.187496 0.187609 0.187727 0.187853 0.187974 0.188096 0.188217 0.188334 0.188557 0.188772 0.188988 0.189204 0.189408 0.189625 0.189837 0.19005 0.190262 0.190468 0.190497 0.190516 0.190535 0.190551 0.190564 0.19072 0.190876 0.191032 0.191187 0.19134 0.191503 0.191671 0.19184 0.192011 0.192185 0.192333 0.19248 0.192627 0.192774 0.192922 0.192942 0.192959 0.192972 0.192985 0.192988 0.193123 0.193255 0.193387 0.193518 0.193644 0.19378 0.193905 0.19403 0.19416 0.194277 0.194391 0.194502 0.194612 0.194723 0.19483 0.194836 0.194846 0.194857 0.194868 0.194885 0.194973 0.195061 0.19515 0.195239 0.195325 0.195403 0.195488 0.195575 0.195667 0.195763 0.195848 0.195932 0.196015 0.196099 0.196181 0.196179 0.196183 0.196189 0.196195 0.1962 0.196256 0.196309 0.196361 0.196413 0.196462 0.196521 0.196568 0.196621 0.196676 0.196717 0.196773 0.196825 0.196877 0.196929 0.196983 0.197017 0.197039 0.19706 0.197082 0.197091 0.197103 0.197113 0.197123 0.197132 0.19714 0.197147 0.197169 0.197193 0.197216 0.197248 0.197266 0.197281 0.197296 0.197319 0.19734 0.197355 0.197379 0.197402 0.197425 0.197457 0.197458 0.197458 0.197458 0.197458 0.197458 0.197471 0.197471 0.197472 0.197472 0.197461 0.197464 0.19747 0.19748 0.197491 0.197502 0.19752 0.197525 0.197531 0.19754 0.19754 0.197554 0.197568 0.197583 0.197598 0.197613 0.197606 0.197603 0.197603 0.197602 0.197611 0.197613 0.197612 0.197611 0.197609 0.197603 0.197601 0.197608 0.19762 0.197632 0.197653 0.197671 0.197682 0.197693 0.197706 0.197715 0.197729 0.197753 0.197776 0.1978 0.197833 0.197832 0.197832 0.197831 0.197831 0.197834 0.197857 0.197868 0.19788 0.197891 0.197891 0.197909 0.197934 0.197959 0.197984 0.198014 0.198056 0.198086 0.198117 0.198147 0.198165 0.198201 0.198244 0.198287 0.198331 0.198381 0.198409 0.198426 0.198444 0.198461 0.198469 0.198502 0.198526 0.198549 0.198572 0.198584 0.198631 0.198681 0.19873 0.19878 0.198838 0.198912 0.198975 0.199031 0.199086 0.199128 0.199199 0.199277 0.199356 0.199431 0.199508 0.199605 0.199688 0.199772 0.199855 0.199923 0.199926 0.199937 0.199949 0.199962 0.199975 0.200045 0.200128 0.200212 0.200295 0.200392 0.200516 0.200618 0.200719 0.200819 0.200909 0.201041 0.201188 0.201325 0.201456 0.201603 0.201776 0.20194 0.202104 0.202261 0.202396 0.202582 0.202786 0.202991 0.203196 0.203414 0.203469 0.203516 0.203562 0.203606 0.203645 0.203853 0.204045 0.204238 0.204431 0.204609 0.204899 0.205181 0.205462 0.205744 0.206038 0.206388 0.206721 0.20703 0.207337 0.207626 0.207967 0.208322 0.208676 0.209006 0.209343 0.20975 0.210142 0.210535 0.210927 0.21128 0.21156 0.211853 0.212147 0.21244 0.212748 0.212849 0.212971 0.213094 0.213217 0.213363 0.213859 0.214337 0.214816 0.215294 0.215766 0.216269 0.216763 0.217243 0.217723 0.218221 0.218797 0.219368 0.219911 0.220438 0.220959 0.221526 0.22211 0.222694 0.223247 0.223799 0.224437 0.22507 0.225703 0.226337 0.22693 0.227371 0.227823 0.228276 0.228729 0.229196 0.229382 0.229583 0.229785 0.229987 0.230205 0.230932 0.231644 0.232356 0.233068 0.23378 0.234548 0.235288 0.236015 0.236743 0.237485 0.238298 0.239115 0.23988 0.240636 0.241394 0.242208 0.243041 0.243874 0.244647 0.245433 0.246287 0.247146 0.248006 0.248861 0.249659 0.250522 0.251405 0.252288 0.253171 0.254058 0.254261 0.254472 0.254683 0.254896 0.255112 0.255848 0.256577 0.257307 0.258036 0.258758 0.259775 0.260747 0.26172 0.262693 0.263668 0.264755 0.265797 0.266799 0.267802 0.268796 0.269905 0.271019 0.272079 0.273113 0.274151 0.275304 0.276452 0.277599 0.278676 0.279735 0.280906 0.282083 0.283259 0.284431 0.28553 0.28674 0.287945 0.289149 0.290354 0.291534 0.291927 0.292327 0.292726 0.293126 0.293529 0.294373 0.295238 0.296102 0.296967 0.297856 0.299193 0.300487 0.301782 0.303075 0.30439 0.305778 0.307125 0.308439 0.309751 0.311104 0.312484 0.31387 0.315175 0.316464 0.317786 0.319138 0.320509 0.321879 0.323155 0.324489 0.325837 0.327188 0.328538 0.329881 0.331195 0.332555 0.333935 0.335313 0.336688 0.338154 0.338308 0.338472 0.338638 0.338806 0.338971 0.3404 0.341829 0.343256 0.34468 0.346202 0.348313 0.350332 0.352343 0.354348 0.356565 0.359642 0.362726 0.36569 0.368605 0.371863 0.376167 0.380476 0.384748 0.388945 0.393557 0.397187 0.400769 0.404326 0.407858 0.411122 0.412178 0.413212 0.414244 0.415274 0.41631 0.418832 0.421246 0.423647 0.426037 0.428742 0.430999 0.433289 0.435607 0.437951 0.440135 0.440787 0.441442 0.442099 0.442758 0.44345 0.446927 0.450463 0.454027 0.457614 0.461007 0.461649 0.462325 0.463002 0.463679 0.464416 0.469154 0.473932 0.478711 0.483491 0.48812 0.489824 0.491567 0.49331 0.495053 0.496943 0.501472 0.506009 0.510542 0.51507 0.519519 0.523669 0.527828 0.531984 0.536139 0.540744 0.543323 0.545907 0.54849 0.551072 0.553641 0.560934 0.568228 0.575518 0.582802 0.589925 0.590817 0.591715 0.592613 0.593511 0.59443 0.60113 0.607833 0.614534 0.621233 0.627861 0.634273 0.640688 0.647102 0.653514 0.660646 0.66218 0.663722 0.665265 0.666807 0.668355 0.676937 0.685491 0.694037 0.702582 0.711051 0.717611 0.72418 0.730748 0.737317 0.744591 0.747006 0.74943 0.751853 0.754277 0.756705 0.766419 0.776106 0.785784 0.795461 0.80507 0.814964 0.824869 0.834774 0.844678 0.85625 0.856366 0.856483 0.8566 0.856719 0.856839 0.867772 0.878717 0.889663 0.90061 0.911495 0.923156 0.93483 0.946506 0.958138 0.969705 0.979693 0.989693 0.999694 1.00969 1.02174 1.02366 1.0256 1.02753 1.02947 1.03141 1.04438 1.05735 1.07032 1.0833 1.09621 1.10986 1.12352 1.13718 1.15084 1.16444 1.17872 1.193 1.20729 1.22158 1.23584 1.25066 1.26549 1.28031 1.29513 1.30994 1.32118 1.33242 1.34365 1.35488 1.37241 1.37512 1.37783 1.38053 1.38324 1.38594 1.40128 1.41662 1.43197 1.44732 1.46264 1.4779 1.49322 1.50855 1.52388 1.53919 1.5543 1.56952 1.58475 1.59998 1.61519 1.6305 1.64599 1.66148 1.67697 1.69248 1.70937 1.72653 1.7437 1.76087 1.7781 1.78797 1.79808 1.8082 1.81837 1.826 1.83817 1.85048 1.8628 1.87511 1.88766 1.91896 1.95056 1.98215 2.01375 2.04581 2.09153 2.13762 2.18371 2.22983 2.27645 2.3345 2.39267 2.45083 2.50949 2.56844 2.62443 2.67997 2.73657 2.79535 2.85368 2.89031 2.92604 2.96959 3.01416 3.05784 3.08365 3.11578 3.1567 3.19761 3.23822 3.35293 3.48916 3.62637 3.76343 3.90404 4.13469 4.37379 4.6125 4.85082 5.08857 5.21974 5.34545 5.4706 5.59517 5.71287