# vtk DataFile Version 2.0
track0
ASCII
DATASET POLYDATA
POINTS 12110 float
-0.0205 0.001 1e-05
-0.0204959 0.0011 1e-05
-0.0204917 0.00119999 1e-05
-0.0204872 0.00129998 1e-05
-0.0204826 0.00139995 1e-05
-0.0204778 0.0015 1e-05
-0.0204728 0.0016 1e-05
-0.0204676 0.00169999 1e-05
-0.0204622 0.00179997 1e-05
-0.0204565 0.00189993 1e-05
-0.0204507 0.002 1e-05
-0.0204446 0.0021 1e-05
-0.0204383 0.00219999 1e-05
-0.0204317 0.00229995 1e-05
-0.0204249 0.00239991 1e-05
-0.0204178 0.0025 1e-05
-0.0204106 0.0026 1e-05
-0.020403 0.00269998 1e-05
-0.0203952 0.00279994 1e-05
-0.0203872 0.00289989 1e-05
-0.0203789 0.003 1e-05
-0.0203703 0.0031 1e-05
-0.0203615 0.00319998 1e-05
-0.0203525 0.00329993 1e-05
-0.0203432 0.00339986 1e-05
-0.0203336 0.0035 1e-05
-0.0203239 0.00359787 1e-05
-0.020314 0.00369572 1e-05
-0.0203039 0.00379355 1e-05
-0.0202935 0.00389135 1e-05
-0.0202854 0.0039662 1e-05
-0.0202846 0.00397296 1e-05
-0.0202839 0.00397972 1e-05
-0.0202831 0.00398648 1e-05
-0.0202824 0.00399324 1e-05
-0.0202816 0.004 1e-05
-0.0202705 0.0041 1e-05
-0.0202591 0.00419997 1e-05
-0.0202474 0.00429991 1e-05
-0.0202354 0.00439982 1e-05
-0.0202232 0.0045 1e-05
-0.0202107 0.0046 1e-05
-0.0201979 0.00469997 1e-05
-0.0201849 0.0047999 1e-05
-0.0201716 0.0048998 1e-05
-0.020158 0.005 1e-05
-0.0201442 0.0051 1e-05
-0.0201301 0.00519996 1e-05
-0.0201157 0.00529989 1e-05
-0.020101 0.00539977 1e-05
-0.0200861 0.0055 1e-05
-0.0200733 0.00558382 1e-05
-0.0200604 0.00566761 1e-05
-0.0200473 0.00575137 1e-05
-0.0200339 0.00583509 1e-05
-0.0200223 0.00590702 1e-05
-0.0200193 0.00592561 1e-05
-0.0200162 0.00594421 1e-05
-0.0200132 0.0059628 1e-05
-0.0200101 0.00598139 1e-05
-0.020007 0.006 1e-05
-0.0199904 0.0061 1e-05
-0.0199735 0.00619995 1e-05
-0.0199564 0.00629986 1e-05
-0.019939 0.00639972 1e-05
-0.0199212 0.0065 1e-05
-0.0199032 0.0066 1e-05
-0.0198849 0.00669995 1e-05
-0.0198663 0.00679985 1e-05
-0.0198475 0.0068997 1e-05
-0.0198283 0.007 1e-05
-0.0198149 0.00706881 1e-05
-0.0198014 0.0071376 1e-05
-0.0197877 0.00720636 1e-05
-0.019774 0.0072751 1e-05
-0.0197614 0.00733727 1e-05
-0.0197547 0.00736981 1e-05
-0.019748 0.00740235 1e-05
-0.0197413 0.00743489 1e-05
-0.0197346 0.00746742 1e-05
-0.0197278 0.0075 1e-05
-0.0197069 0.0076 1e-05
-0.0196857 0.00769994 1e-05
-0.0196642 0.00779982 1e-05
-0.0196425 0.00789964 1e-05
-0.0196203 0.008 1e-05
-0.0195979 0.0081 1e-05
-0.0195753 0.00819994 1e-05
-0.0195523 0.00829981 1e-05
-0.0195291 0.00839961 1e-05
-0.0195054 0.0085 1e-05
-0.0195048 0.00850239 1e-05
-0.0195042 0.00850479 1e-05
-0.0195037 0.00850718 1e-05
-0.0195031 0.00850957 1e-05
-0.0195025 0.00851196 1e-05
-0.0194791 0.00860956 1e-05
-0.0194555 0.00870711 1e-05
-0.0194316 0.00880458 1e-05
-0.0194074 0.00890199 1e-05
-0.0193828 0.009 1e-05
-0.0193573 0.0091 1e-05
-0.0193316 0.00919992 1e-05
-0.0193055 0.00929977 1e-05
-0.0192792 0.00939955 1e-05
-0.0192524 0.0095 1e-05
-0.0192511 0.00950493 1e-05
-0.0192497 0.00950987 1e-05
-0.0192484 0.0095148 1e-05
-0.0192471 0.00951974 1e-05
-0.0192457 0.00952464 1e-05
-0.01922 0.00961972 1e-05
-0.019194 0.00971471 1e-05
-0.0191677 0.00980964 1e-05
-0.0191411 0.00990449 1e-05
-0.019114 0.01 1e-05
-0.0190894 0.010086 1e-05
-0.0190646 0.0101718 1e-05
-0.0190396 0.0102577 1e-05
-0.0190143 0.0103434 1e-05
-0.018991 0.0104216 1e-05
-0.0189863 0.0104373 1e-05
-0.0189816 0.010453 1e-05
-0.0189769 0.0104686 1e-05
-0.0189722 0.0104843 1e-05
-0.0189674 0.0105 1e-05
-0.0189372 0.0106 1e-05
-0.0189066 0.0106999 1e-05
-0.0188757 0.0107997 1e-05
-0.0188446 0.0108994 1e-05
-0.0188128 0.011 1e-05
-0.0187979 0.0110466 1e-05
-0.018783 0.0110931 1e-05
-0.0187679 0.0111396 1e-05
-0.0187529 0.0111861 1e-05
-0.0187384 0.0112306 1e-05
-0.0187208 0.0112844 1e-05
-0.018703 0.0113383 1e-05
-0.0186852 0.0113921 1e-05
-0.0186673 0.0114459 1e-05
-0.0186492 0.0115 1e-05
-0.0186169 0.0115959 1e-05
-0.0185843 0.0116917 1e-05
-0.0185515 0.0117874 1e-05
-0.0185183 0.011883 1e-05
-0.0184878 0.0119702 1e-05
-0.0184857 0.0119762 1e-05
-0.0184836 0.0119821 1e-05
-0.0184815 0.0119881 1e-05
-0.0184794 0.011994 1e-05
-0.0184773 0.012 1e-05
-0.0184418 0.0121 1e-05
-0.0184061 0.0121999 1e-05
-0.01837 0.0122997 1e-05
-0.0183336 0.0123993 1e-05
-0.0182965 0.0125 1e-05
-0.0182851 0.0125308 1e-05
-0.0182736 0.0125616 1e-05
-0.018262 0.0125924 1e-05
-0.0182505 0.0126231 1e-05
-0.0182392 0.0126531 1e-05
-0.018213 0.0127225 1e-05
-0.0181866 0.0127918 1e-05
-0.01816 0.012861 1e-05
-0.0181333 0.0129303 1e-05
-0.0181063 0.013 1e-05
-0.0180835 0.0130582 1e-05
-0.0180607 0.0131163 1e-05
-0.0180377 0.0131744 1e-05
-0.0180147 0.0132324 1e-05
-0.0179926 0.0132877 1e-05
-0.0179755 0.0133301 1e-05
-0.0179584 0.0133726 1e-05
-0.0179412 0.013415 1e-05
-0.017924 0.0134574 1e-05
-0.0179066 0.0135 1e-05
-0.0178749 0.0135774 1e-05
-0.017843 0.0136547 1e-05
-0.0178108 0.0137319 1e-05
-0.0177785 0.0138091 1e-05
-0.017748 0.0138815 1e-05
-0.0177379 0.0139052 1e-05
-0.0177278 0.0139289 1e-05
-0.0177177 0.0139526 1e-05
-0.0177076 0.0139762 1e-05
-0.0176974 0.014 1e-05
-0.017659 0.0140895 1e-05
-0.0176203 0.0141788 1e-05
-0.0175814 0.014268 1e-05
-0.0175422 0.0143571 1e-05
-0.0175053 0.0144401 1e-05
-0.0175 0.0144521 1e-05
-0.0174946 0.0144641 1e-05
-0.0174893 0.014476 1e-05
-0.0174839 0.014488 1e-05
-0.0174785 0.0145 1e-05
-0.0174357 0.0145952 1e-05
-0.0173927 0.0146902 1e-05
-0.0173493 0.0147851 1e-05
-0.0173056 0.0148798 1e-05
-0.0172647 0.0149678 1e-05
-0.0172616 0.0149742 1e-05
-0.0172586 0.0149807 1e-05
-0.0172556 0.0149871 1e-05
-0.0172526 0.0149936 1e-05
-0.0172495 0.015 1e-05
-0.0172048 0.0150951 1e-05
-0.0171598 0.0151901 1e-05
-0.0171144 0.015285 1e-05
-0.0170688 0.0153797 1e-05
-0.0170259 0.0154678 1e-05
-0.0170228 0.0154743 1e-05
-0.0170196 0.0154807 1e-05
-0.0170165 0.0154871 1e-05
-0.0170133 0.0154936 1e-05
-0.0170102 0.0155 1e-05
-0.0169659 0.01559 1e-05
-0.0169215 0.0156798 1e-05
-0.0168767 0.0157695 1e-05
-0.0168316 0.0158591 1e-05
-0.0167891 0.015943 1e-05
-0.0167833 0.0159544 1e-05
-0.0167775 0.0159658 1e-05
-0.0167716 0.0159772 1e-05
-0.0167658 0.0159886 1e-05
-0.0167599 0.016 1e-05
-0.0167188 0.0160802 1e-05
-0.0166774 0.0161603 1e-05
-0.0166358 0.0162402 1e-05
-0.016594 0.01632 1e-05
-0.0165542 0.0163955 1e-05
-0.0165431 0.0164164 1e-05
-0.016532 0.0164373 1e-05
-0.0165208 0.0164582 1e-05
-0.0165097 0.016479 1e-05
-0.0164985 0.0165 1e-05
-0.016463 0.0165662 1e-05
-0.0164274 0.0166323 1e-05
-0.0163916 0.0166984 1e-05
-0.0163557 0.0167643 1e-05
-0.0163212 0.0168274 1e-05
-0.0163022 0.0168619 1e-05
-0.0162831 0.0168964 1e-05
-0.016264 0.0169309 1e-05
-0.0162448 0.0169653 1e-05
-0.0162255 0.017 1e-05
-0.0161984 0.0170485 1e-05
-0.0161712 0.0170969 1e-05
-0.016144 0.0171453 1e-05
-0.0161166 0.0171937 1e-05
-0.01609 0.0172405 1e-05
-0.0160604 0.0172924 1e-05
-0.0160307 0.0173443 1e-05
-0.016001 0.017396 1e-05
-0.0159711 0.0174478 1e-05
-0.0159408 0.0175 1e-05
-0.0159248 0.0175275 1e-05
-0.0159087 0.0175549 1e-05
-0.0158927 0.0175823 1e-05
-0.0158766 0.0176098 1e-05
-0.0158607 0.0176367 1e-05
-0.0158179 0.0177094 1e-05
-0.0157749 0.0177819 1e-05
-0.0157317 0.0178543 1e-05
-0.0156883 0.0179267 1e-05
-0.015644 0.018 1e-05
-0.0156419 0.0180035 1e-05
-0.0156397 0.018007 1e-05
-0.0156376 0.0180106 1e-05
-0.0156355 0.0180141 1e-05
-0.0156333 0.0180176 1e-05
-0.0155882 0.0180918 1e-05
-0.0155429 0.0181659 1e-05
-0.0154973 0.0182398 1e-05
-0.0154516 0.0183136 1e-05
-0.0154077 0.0183841 1e-05
-0.0153932 0.0184073 1e-05
-0.0153786 0.0184304 1e-05
-0.0153641 0.0184536 1e-05
-0.0153495 0.0184767 1e-05
-0.0153348 0.0185 1e-05
-0.0153046 0.0185477 1e-05
-0.0152743 0.0185953 1e-05
-0.015244 0.0186429 1e-05
-0.0152136 0.0186904 1e-05
-0.0151839 0.0187366 1e-05
-0.0151499 0.0187892 1e-05
-0.0151158 0.0188419 1e-05
-0.0150817 0.0188944 1e-05
-0.0150474 0.0189469 1e-05
-0.0150125 0.019 1e-05
-0.0150024 0.0190154 1e-05
-0.0149923 0.0190307 1e-05
-0.0149821 0.019046 1e-05
-0.014972 0.0190614 1e-05
-0.0149619 0.0190766 1e-05
-0.0149179 0.019143 1e-05
-0.0148737 0.0192093 1e-05
-0.0148293 0.0192755 1e-05
-0.0147848 0.0193416 1e-05
-0.0147417 0.0194052 1e-05
-0.0147288 0.0194241 1e-05
-0.0147159 0.0194431 1e-05
-0.014703 0.019462 1e-05
-0.01469 0.019481 1e-05
-0.014677 0.0195 1e-05
-0.0146463 0.0195448 1e-05
-0.0146154 0.0195895 1e-05
-0.0145846 0.0196342 1e-05
-0.0145536 0.0196789 1e-05
-0.0145233 0.0197224 1e-05
-0.0144846 0.0197779 1e-05
-0.0144457 0.0198334 1e-05
-0.0144067 0.0198887 1e-05
-0.0143675 0.019944 1e-05
-0.0143277 0.02 1e-05
-0.0143235 0.0200059 1e-05
-0.0143193 0.0200118 1e-05
-0.0143151 0.0200177 1e-05
-0.0143109 0.0200236 1e-05
-0.0143067 0.0200295 1e-05
-0.0142637 0.0200896 1e-05
-0.0142206 0.0201495 1e-05
-0.0141773 0.0202094 1e-05
-0.0141339 0.0202692 1e-05
-0.0140917 0.020327 1e-05
-0.0140664 0.0203616 1e-05
-0.014041 0.0203962 1e-05
-0.0140156 0.0204307 1e-05
-0.0139901 0.0204652 1e-05
-0.0139643 0.0205 1e-05
-0.0139472 0.0205231 1e-05
-0.01393 0.0205462 1e-05
-0.0139128 0.0205692 1e-05
-0.0138956 0.0205923 1e-05
-0.0138786 0.020615 1e-05
-0.0138363 0.0206715 1e-05
-0.0137939 0.0207278 1e-05
-0.0137513 0.0207841 1e-05
-0.0137087 0.0208402 1e-05
-0.0136671 0.0208947 1e-05
-0.013651 0.0209158 1e-05
-0.0136348 0.0209368 1e-05
-0.0136187 0.0209579 1e-05
-0.0136025 0.0209789 1e-05
-0.0135862 0.021 1e-05
-0.0135604 0.0210334 1e-05
-0.0135346 0.0210667 1e-05
-0.0135087 0.0211 1e-05
-0.0134828 0.0211333 1e-05
-0.0134573 0.021166 1e-05
-0.0134157 0.0212191 1e-05
-0.013374 0.0212722 1e-05
-0.0133322 0.0213252 1e-05
-0.0132902 0.0213782 1e-05
-0.0132493 0.0214297 1e-05
-0.013238 0.0214437 1e-05
-0.0132268 0.0214578 1e-05
-0.0132155 0.0214719 1e-05
-0.0132043 0.0214859 1e-05
-0.013193 0.0215 1e-05
-0.013163 0.0215374 1e-05
-0.0131329 0.0215747 1e-05
-0.0131027 0.021612 1e-05
-0.0130726 0.0216493 1e-05
-0.0130429 0.0216858 1e-05
-0.0130019 0.0217361 1e-05
-0.0129609 0.0217863 1e-05
-0.0129197 0.0218364 1e-05
-0.0128785 0.0218864 1e-05
-0.0128381 0.0219352 1e-05
-0.0128274 0.0219482 1e-05
-0.0128166 0.0219611 1e-05
-0.0128058 0.0219741 1e-05
-0.012795 0.021987 1e-05
[...]
POINT_DATA 12110
 FIELD attributes 1
U 3 12110 float
-0.0127336 	-0.312008 	0 -0.0132955 	-0.311969 	0 -0.0138578 	-0.311929 	0 -0.01442 	-0.311887 	0 -0.014982 	-0.311845 	0 -0.0155483 	-0.311802 	0 -0.01623 	-0.311775 	0 -0.0169122 	-0.311746 	0 -0.0175925 	-0.311715 	0 -0.0182727 	-0.311683 	0 -0.0189559 	-0.311649 	0 -0.0197041 	-0.311612 	0 -0.0204534 	-0.311574 	0 -0.0211998 	-0.311533 	0 -0.0219456 	-0.31149 	0 -0.0226937 	-0.311446 	0 -0.0234758 	-0.311402 	0 -0.0242584 	-0.311356 	0 -0.0250407 	-0.311309 	0 -0.0258201 	-0.311259 	0 -0.0266015 	-0.311207 	0 -0.0274011 	-0.311149 	0 -0.0282009 	-0.31109 	0 -0.0290005 	-0.311029 	0 -0.0297997 	-0.310967 	0 -0.0305985 	-0.310901 	0 -0.0313909 	-0.310832 	0 -0.0321833 	-0.310761 	0 -0.0329757 	-0.310689 	0 -0.0337678 	-0.310615 	0 -0.0343744 	-0.310557 	0 -0.0344292 	-0.310552 	0 -0.0344839 	-0.310547 	0 -0.0345386 	-0.310541 	0 -0.0345934 	-0.310536 	0 -0.0346484 	-0.31053 	0 -0.0354658 	-0.310447 	0 -0.0362829 	-0.310362 	0 -0.0370999 	-0.310275 	0 -0.0379167 	-0.310186 	0 -0.038736 	-0.310095 	0 -0.0395617 	-0.31 	0 -0.0403862 	-0.309903 	0 -0.0412092 	-0.309803 	0 -0.0420321 	-0.309701 	0 -0.0428577 	-0.309598 	0 -0.0436892 	-0.30949 	0 -0.0445206 	-0.30938 	0 -0.0453518 	-0.309268 	0 -0.0461812 	-0.309154 	0 -0.0470129 	-0.309036 	0 -0.0477148 	-0.308934 	0 -0.0484166 	-0.308831 	0 -0.0491183 	-0.308726 	0 -0.0498199 	-0.308621 	0 -0.0504227 	-0.308529 	0 -0.0505785 	-0.308505 	0 -0.0507345 	-0.308481 	0 -0.0508905 	-0.308456 	0 -0.0510465 	-0.308432 	0 -0.0512027 	-0.308408 	0 -0.0520478 	-0.308273 	0 -0.0528919 	-0.308135 	0 -0.0537358 	-0.307995 	0 -0.0545794 	-0.307854 	0 -0.0554269 	-0.30771 	0 -0.0562796 	-0.307561 	0 -0.0571322 	-0.307411 	0 -0.0579845 	-0.307258 	0 -0.0588344 	-0.307103 	0 -0.0596885 	-0.306944 	0 -0.0602797 	-0.306832 	0 -0.0608709 	-0.306718 	0 -0.061462 	-0.306604 	0 -0.0620529 	-0.306489 	0 -0.0625877 	-0.306384 	0 -0.0628677 	-0.306329 	0 -0.0631478 	-0.306273 	0 -0.0634279 	-0.306218 	0 -0.063708 	-0.306162 	0 -0.0639887 	-0.306106 	0 -0.0648574 	-0.305929 	0 -0.0657241 	-0.305748 	0 -0.0665904 	-0.305566 	0 -0.0674563 	-0.305382 	0 -0.0683274 	-0.305195 	0 -0.069203 	-0.305003 	0 -0.0700784 	-0.304809 	0 -0.0709534 	-0.304614 	0 -0.0718281 	-0.304416 	0 -0.0727082 	-0.304215 	0 -0.0727292 	-0.304211 	0 -0.0727503 	-0.304206 	0 -0.0727715 	-0.304201 	0 -0.0727926 	-0.304196 	0 -0.0728137 	-0.304191 	0 -0.0736762 	-0.303988 	0 -0.0745384 	-0.303783 	0 -0.0754003 	-0.303577 	0 -0.0762619 	-0.303369 	0 -0.0771292 	-0.303158 	0 -0.0780218 	-0.302937 	0 -0.0789141 	-0.302714 	0 -0.0798061 	-0.302489 	0 -0.0806976 	-0.302263 	0 -0.0815952 	-0.302032 	0 -0.0816395 	-0.30202 	0 -0.0816839 	-0.302009 	0 -0.0817283 	-0.301997 	0 -0.0817728 	-0.301985 	0 -0.0818171 	-0.301974 	0 -0.0826738 	-0.301748 	0 -0.0835302 	-0.301521 	0 -0.0843862 	-0.301292 	0 -0.0852419 	-0.301062 	0 -0.0861039 	-0.300828 	0 -0.0868863 	-0.300613 	0 -0.0876685 	-0.300396 	0 -0.0884504 	-0.300178 	0 -0.0892319 	-0.299959 	0 -0.0899449 	-0.299757 	0 -0.0900878 	-0.299717 	0 -0.0902308 	-0.299676 	0 -0.0903738 	-0.299636 	0 -0.0905168 	-0.299595 	0 -0.0906601 	-0.299554 	0 -0.0915806 	-0.29929 	0 -0.0924996 	-0.299022 	0 -0.0934179 	-0.298753 	0 -0.0943357 	-0.298482 	0 -0.0952618 	-0.298206 	0 -0.0956943 	-0.298076 	0 -0.0961267 	-0.297945 	0 -0.0965591 	-0.297814 	0 -0.0969913 	-0.297683 	0 -0.0974044 	-0.297556 	0 -0.0979057 	-0.297403 	0 -0.098407 	-0.29725 	0 -0.0989081 	-0.297095 	0 -0.099409 	-0.296941 	0 -0.0999127 	-0.296785 	0 -0.100813 	-0.296503 	0 -0.101714 	-0.29622 	0 -0.102613 	-0.295935 	0 -0.103513 	-0.295649 	0 -0.104334 	-0.295386 	0 -0.10439 	-0.295368 	0 -0.104446 	-0.29535 	0 -0.104502 	-0.295332 	0 -0.104558 	-0.295314 	0 -0.104614 	-0.295296 	0 -0.105564 	-0.294989 	0 -0.106512 	-0.294679 	0 -0.10746 	-0.294367 	0 -0.108407 	-0.294054 	0 -0.109365 	-0.293735 	0 -0.10966 	-0.293636 	0 -0.109955 	-0.293537 	0 -0.110251 	-0.293437 	0 -0.110546 	-0.293337 	0 -0.110834 	-0.29324 	0 -0.1115 	-0.293015 	0 -0.112166 	-0.292789 	0 -0.112832 	-0.292562 	0 -0.113497 	-0.292334 	0 -0.114168 	-0.292103 	0 -0.114733 	-0.291909 	0 -0.115297 	-0.291713 	0 -0.115861 	-0.291517 	0 -0.116425 	-0.29132 	0 -0.116961 	-0.291132 	0 -0.117374 	-0.290988 	0 -0.117787 	-0.290843 	0 -0.118199 	-0.290697 	0 -0.118612 	-0.290552 	0 -0.119027 	-0.290405 	0 -0.119786 	-0.290135 	0 -0.120545 	-0.289865 	0 -0.121304 	-0.289593 	0 -0.122062 	-0.289321 	0 -0.122774 	-0.289064 	0 -0.123007 	-0.288979 	0 -0.12324 	-0.288895 	0 -0.123473 	-0.28881 	0 -0.123706 	-0.288726 	0 -0.12394 	-0.288641 	0 -0.124828 	-0.288318 	0 -0.125716 	-0.287993 	0 -0.126603 	-0.287668 	0 -0.127489 	-0.287341 	0 -0.128314 	-0.287034 	0 -0.128433 	-0.28699 	0 -0.128552 	-0.286946 	0 -0.128671 	-0.286901 	0 -0.128791 	-0.286857 	0 -0.12891 	-0.286812 	0 -0.129866 	-0.286457 	0 -0.130821 	-0.2861 	0 -0.131775 	-0.285741 	0 -0.132728 	-0.285381 	0 -0.133614 	-0.285044 	0 -0.133678 	-0.28502 	0 -0.133743 	-0.284995 	0 -0.133808 	-0.28497 	0 -0.133873 	-0.284946 	0 -0.133938 	-0.284921 	0 -0.134905 	-0.284554 	0 -0.135871 	-0.284185 	0 -0.136836 	-0.283815 	0 -0.137799 	-0.283443 	0 -0.138697 	-0.283094 	0 -0.138762 	-0.283069 	0 -0.138828 	-0.283044 	0 -0.138893 	-0.283018 	0 -0.138959 	-0.282993 	0 -0.139025 	-0.282967 	0 -0.13995 	-0.282609 	0 -0.140874 	-0.282249 	0 -0.141798 	-0.281888 	0 -0.14272 	-0.281526 	0 -0.143584 	-0.281185 	0 -0.143701 	-0.281138 	0 -0.143819 	-0.281092 	0 -0.143936 	-0.281045 	0 -0.144054 	-0.280999 	0 -0.144172 	-0.280952 	0 -0.145006 	-0.280623 	0 -0.14584 	-0.280293 	0 -0.146672 	-0.279962 	0 -0.147504 	-0.27963 	0 -0.14829 	-0.279315 	0 -0.148508 	-0.279227 	0 -0.148726 	-0.27914 	0 -0.148944 	-0.279052 	0 -0.149162 	-0.278965 	0 -0.14938 	-0.278877 	0 -0.150078 	-0.278597 	0 -0.150774 	-0.278318 	0 -0.15147 	-0.278037 	0 -0.152166 	-0.277755 	0 -0.152831 	-0.277485 	0 -0.153195 	-0.277337 	0 -0.153558 	-0.277189 	0 -0.153922 	-0.277041 	0 -0.154286 	-0.276893 	0 -0.154652 	-0.276743 	0 -0.155169 	-0.276533 	0 -0.155685 	-0.276323 	0 -0.156202 	-0.276112 	0 -0.156718 	-0.275901 	0 -0.157217 	-0.275695 	0 -0.157771 	-0.275469 	0 -0.158324 	-0.275241 	0 -0.158877 	-0.275014 	0 -0.159429 	-0.274785 	0 -0.159987 	-0.274554 	0 -0.160284 	-0.274432 	0 -0.16058 	-0.27431 	0 -0.160876 	-0.274188 	0 -0.161172 	-0.274065 	0 -0.161463 	-0.273945 	0 -0.162247 	-0.273621 	0 -0.163031 	-0.273297 	0 -0.163813 	-0.272972 	0 -0.164595 	-0.272645 	0 -0.165388 	-0.272313 	0 -0.165426 	-0.272297 	0 -0.165465 	-0.272281 	0 -0.165503 	-0.272265 	0 -0.165542 	-0.272249 	0 -0.165581 	-0.272233 	0 -0.16639 	-0.271896 	0 -0.167199 	-0.271558 	0 -0.168007 	-0.271218 	0 -0.168813 	-0.270878 	0 -0.169584 	-0.270552 	0 -0.169837 	-0.270445 	0 -0.17009 	-0.270337 	0 -0.170343 	-0.27023 	0 -0.170596 	-0.270123 	0 -0.17085 	-0.270015 	0 -0.171377 	-0.269793 	0 -0.171903 	-0.269571 	0 -0.172429 	-0.269348 	0 -0.172955 	-0.269125 	0 -0.173465 	-0.268908 	0 -0.174047 	-0.268661 	0 -0.174629 	-0.268414 	0 -0.17521 	-0.268166 	0 -0.175791 	-0.267918 	0 -0.176378 	-0.267666 	0 -0.17655 	-0.267593 	0 -0.176722 	-0.26752 	0 -0.176893 	-0.267446 	0 -0.177065 	-0.267373 	0 -0.177235 	-0.267301 	0 -0.177978 	-0.266986 	0 -0.178719 	-0.26667 	0 -0.179459 	-0.266352 	0 -0.180198 	-0.266033 	0 -0.180909 	-0.265725 	0 -0.181121 	-0.265633 	0 -0.181333 	-0.265542 	0 -0.181545 	-0.26545 	0 -0.181756 	-0.265358 	0 -0.181969 	-0.265266 	0 -0.182475 	-0.265048 	0 -0.182981 	-0.264831 	0 -0.183487 	-0.264613 	0 -0.183992 	-0.264394 	0 -0.184484 	-0.264181 	0 -0.185111 	-0.26391 	0 -0.185738 	-0.263639 	0 -0.186364 	-0.263367 	0 -0.186989 	-0.263095 	0 -0.187623 	-0.262818 	0 -0.187691 	-0.262789 	0 -0.187758 	-0.26276 	0 -0.187826 	-0.26273 	0 -0.187893 	-0.262701 	0 -0.187961 	-0.262672 	0 -0.188647 	-0.262376 	0 -0.189332 	-0.262078 	0 -0.190016 	-0.261779 	0 -0.190699 	-0.261479 	0 -0.19136 	-0.261188 	0 -0.191755 	-0.261015 	0 -0.19215 	-0.260842 	0 -0.192544 	-0.260669 	0 -0.192938 	-0.260495 	0 -0.193336 	-0.26032 	0 -0.193602 	-0.260203 	0 -0.193869 	-0.260087 	0 -0.194136 	-0.25997 	0 -0.194402 	-0.259853 	0 -0.194666 	-0.259738 	0 -0.195317 	-0.259455 	0 -0.195967 	-0.259171 	0 -0.196617 	-0.258885 	0 -0.197265 	-0.258597 	0 -0.197894 	-0.258316 	0 -0.198136 	-0.258209 	0 -0.198379 	-0.258101 	0 -0.198621 	-0.257993 	0 -0.198863 	-0.257885 	0 -0.199107 	-0.257777 	0 -0.199496 	-0.257606 	0 -0.199885 	-0.257435 	0 -0.200274 	-0.257263 	0 -0.200662 	-0.257092 	0 -0.201044 	-0.256923 	0 -0.201663 	-0.25665 	0 -0.202282 	-0.256378 	0 -0.2029 	-0.256104 	0 -0.203516 	-0.255829 	0 -0.204116 	-0.255559 	0 -0.20428 	-0.255485 	0 -0.204443 	-0.255412 	0 -0.204606 	-0.255339 	0 -0.20477 	-0.255265 	0 -0.204934 	-0.255192 	0 -0.205374 	-0.254997 	0 -0.205813 	-0.254802 	0 -0.206252 	-0.254607 	0 -0.206691 	-0.254412 	0 -0.207122 	-0.254219 	0 -0.207713 	-0.253958 	0 -0.208302 	-0.253696 	0 -0.208891 	-0.253433 	0 -0.209479 	-0.25317 	0 -0.210053 	-0.252909 	0 -0.210204 	-0.25284 	0 -0.210356 	-0.252772 	0 -0.210508 	-0.252703 	0 -0.210659 	-0.252634 	0 -0.210812 	-0.252565 	0 -0.211236 	-0.252376 	0 -0.21166 	-0.252187 	0 -0.212084 	-0.251997 	0 -0.212507 	-0.251808 	0 -0.212923 	-0.251621 	0 -0.213487 	-0.251369 	0 -0.21405 	-0.251118 	0 -0.214613 	-0.250866 	0 -0.215174 	-0.250611 	0 -0.215723 	-0.250359 	0 -0.215925 	-0.250267 	0 -0.216128 	-0.250175 	0 -0.216331 	-0.250082 	0 -0.216533 	-0.24999 	0 -0.216737 	-0.249897 	0 -0.217083 	-0.249741 	0 -0.21743 	-0.249586 	0 -0.217776 	-0.24943 	0 -0.218122 	-0.249274 	0 -0.218463 	-0.249121 	0 -0.219003 	-0.248879 	0 -0.219542 	-0.248638 	0 -0.220079 	-0.248394 	0 -0.220616 	-0.248148 	0 -0.221143 	-0.247906 	0 -0.221454 	-0.247763 	0 -0.221766 	-0.247621 	0 -0.222078 	-0.247478 	0 -0.22239 	-0.247335 	0 -0.222704 	-0.247191 	0 -0.222915 	-0.247095 	0 -0.223127 	-0.247 	0 -0.223338 	-0.246905 	0 -0.22355 	-0.246809 	0 -0.223759 	-0.246715 	0 -0.224276 	-0.246484 	0 -0.224793 	-0.24625 	0 -0.225308 	-0.246014 	0 -0.225823 	-0.245778 	0 -0.226328 	-0.245545 	0 -0.226803 	-0.245328 	0 -0.227279 	-0.24511 	0 -0.227754 	-0.244892 	0 -0.228228 	-0.244674 	0 -0.228709 	-0.244453 	0 -0.228732 	-0.244442 	0 -0.228755 	-0.244431 	0 -0.228779 	-0.244421 	0 -0.228802 	-0.24441 	0 -0.228826 	-0.244399 	0 -0.229322 	-0.244174 	0 -0.229817 	-0.243948 	0 -0.230312 	-0.243721 	0 -0.230806 	-0.243495 	0 -0.231291 	-0.243271 	0 -0.231774 	-0.243051 	0 -0.232255 	-0.242831 	0 -0.232737 	-0.24261 	0 -0.233217 	-0.242387 	0 -0.233689 	-0.242165 	0 -0.233899 	-0.242067 	0 -0.234109 	-0.241969 	0 -0.234318 	-0.241871 	0 -0.234528 	-0.241773 	0 -0.234739 	-0.241674 	0 -0.235 	-0.241555 	0 -0.235261 	-0.241435 	0 -0.235522 	-0.241315 	0 -0.235782 	-0.241195 	0 -0.236041 	-0.241076 	0 -0.236504 	-0.240865 	0 -0.236968 	-0.240653 	0 -0.23743 	-0.240436 	0 -0.237892 	-0.24022 	0 -0.238347 	-0.240006 	0 -0.238797 	-0.239796 	0 -0.239248 	-0.239585 	0 -0.239698 	-0.239374 	0 -0.240147 	-0.239164 	0 -0.24059 	-0.238954 	0 -0.24063 	-0.238935 	0 -0.24067 	-0.238915 	0 -0.240711 	-0.238896 	0 -0.240752 	-0.238877 	0 -0.240792 	-0.238857 	0 -0.241196 	-0.238669 	0 -0.2416 	-0.238481 	0 -0.242004 	-0.238293 	0 -0.242407 	-0.238104 	0 -0.242805 	-0.237917 	0 -0.243239 	-0.237716 	0 -0.243673 	-0.237514 	0 -0.244106 	-0.23731 	0 -0.244538 	-0.237103 	0 -0.244965 	-0.236898 	0 -0.245341 	-0.236719 	0 -0.245718 	-0.236539 	0 -0.246094 	-0.236359 	0 -0.24647 	-0.236179 	0 -0.246851 	-0.235997 	0 -0.246894 	-0.235977 	0 -0.246938 	-0.235956 	0 -0.246981 	-0.235936 	0 -0.247025 	-0.235916 	0 -0.247069 	-0.235895 	0 -0.247487 	-0.235699 	0 -0.247905 	-0.235501 	0 -0.248322 	-0.235303 	0 -0.248739 	-0.235105 	0 -0.24915 	-0.234908 	0 -0.249557 	-0.234716 	0 -0.249963 	-0.234524 	0 -0.250369 	-0.234331 	0 -0.250775 	-0.234133 	0 -0.251175 	-0.233937 	0 -0.25152 	-0.233769 	0 -0.251866 	-0.233602 	0 -0.252211 	-0.233434 	0 -0.252555 	-0.233266 	0 -0.252903 	-0.233096 	0 -0.252952 	-0.233073 	0 -0.253001 	-0.233049 	0 -0.253051 	-0.233026 	0 -0.2531 	-0.233003 	0 -0.25315 	-0.232979 	0 -0.253542 	-0.232792 	0 -0.253934 	-0.232603 	0 -0.254326 	-0.232413 	0 -0.254717 	-0.232223 	0 -0.255104 	-0.232036 	0 -0.255485 	-0.231852 	0 -0.255867 	-0.231668 	0 -0.256248 	-0.231483 	0 -0.256628 	-0.231293 	0 -0.257005 	-0.231105 	0 -0.257376 	-0.230922 	0 -0.257747 	-0.230738 	0 -0.258118 	-0.230554 	0 -0.258488 	-0.23037 	0 -0.258854 	-0.230187 	0 -0.25887 	-0.230179 	0 -0.258886 	-0.230171 	0 -0.258902 	-0.230163 	0 -0.258918 	-0.230155 	0 -0.258934 	-0.230147 	0 -0.259286 	-0.229974 	0 -0.259639 	-0.2298 	0 -0.25999 	-0.229627 	0 -0.260342 	-0.229453 	0 -0.26069 	-0.229281 	0 -0.261048 	-0.229105 	0 -0.261406 	-0.22893 	0 -0.261765 	-0.228749 	0 -0.262122 	-0.228567 	0 -0.262477 	-0.228387 	0 -0.262825 	-0.228211 	0 -0.263174 	-0.228035 	0 -0.263522 	-0.227858 	0 -0.26387 	-0.227682 	0 -0.264215 	-0.227502 	0 -0.264356 	-0.227429 	0 -0.264497 	-0.227355 	0 -0.264639 	-0.227282 	0 -0.26478 	-0.227208 	0 -0.264923 	-0.227134 	0 -0.265123 	-0.227033 	0 -0.265324 	-0.226932 	0 -0.265525 	-0.226831 	0 -0.265726 	-0.22673 	0 -0.265926 	-0.22663 	0 -0.266262 	-0.226462 	0 -0.266599 	-0.226289 	0 -0.266936 	-0.226115 	0 -0.267272 	-0.225941 	0 -0.267606 	-0.225769 	0 -0.267933 	-0.225601 	0 -0.26826 	-0.225432 	0 -0.268587 	-0.225264 	0 -0.268914 	-0.22509 	0 -0.269239 	-0.224917 	0 -0.269557 	-0.224748 	0 -0.269876 	-0.224579 	0 -0.270193 	-0.22441 	0 -0.270511 	-0.224241 	0 -0.270826 	-0.224073 	0 -0.27083 	-0.224071 	0 -0.270834 	-0.224069 	0 -0.270838 	-0.224067 	0 -0.270842 	-0.224065 	0 -0.270846 	-0.224063 	0 -0.271159 	-0.223899 	0 -0.271472 	-0.223736 	0 -0.271785 	-0.223572 	0 -0.272097 	-0.223409 	0 -0.272408 	-0.223246 	0 -0.272715 	-0.223086 	0 -0.273023 	-0.222925 	0 -0.273331 	-0.222759 	0 -0.273639 	-0.222592 	0 -0.273945 	-0.222427 	0 -0.274244 	-0.222266 	0 -0.274543 	-0.222106 	0 -0.274842 	-0.221945 	0 -0.275141 	-0.221781 	0 -0.275438 	-0.221615 	0 -0.275685 	-0.221478 	0 -0.275933 	-0.221341 	0 -0.27618 	-0.221203 	0 -0.276427 	-0.221066 	0 -0.276677 	-0.220927 	0 -0.27672 	-0.220903 	0 -0.276763 	-0.22088 	0 -0.276807 	-0.220857 	0 -0.27685 	-0.220834 	0 -0.276894 	-0.220811 	0 -0.277184 	-0.220653 	0 -0.277474 	-0.220493 	0 -0.277764 	-0.220334 	0 -0.278054 	-0.220174 	0 -0.278342 	-0.220015 	0 -0.278623 	-0.219861 	0 -0.278904 	-0.219706 	0 -0.279186 	-0.219546 	0 -0.279467 	-0.219385 	0 -0.279747 	-0.219226 	0 -0.28002 	-0.219071 	0 -0.280293 	-0.218915 	0 -0.280566 	-0.21876 	0 -0.280839 	-0.218601 	0 -0.281111 	-0.218441 	0 -0.281365 	-0.218291 	0 -0.28162 	-0.218142 	0 -0.281874 	-0.217992 	0 -0.282127 	-0.217842 	0 -0.282383 	-0.21769 	0 -0.282394 	-0.217684 	0 -0.282404 	-0.217678 	0 -0.282414 	-0.217672 	0 -0.282425 	-0.217666 	0 -0.282436 	-0.21766 	0 -0.2827 	-0.217506 	0 -0.282965 	-0.217351 	0 -0.28323 	-0.217196 	0 -0.283494 	-0.217041 	0 -0.283757 	-0.216887 	0 -0.284013 	-0.216737 	0 -0.284269 	-0.216584 	0 -0.284526 	-0.216428 	0 -0.284783 	-0.216272 	0 -0.285039 	-0.216116 	0 -0.285287 	-0.215965 	0 -0.285535 	-0.215813 	0 -0.285783 	-0.215662 	0 -0.286032 	-0.215504 	0 -0.286281 	-0.215348 	0 -0.286521 	-0.215195 	0 -0.286763 	-0.215042 	0 -0.287003 	-0.214889 	0 -0.287244 	-0.214736 	0 -0.287484 	-0.214581 	0 -0.287569 	-0.214524 	0 -0.287655 	-0.214468 	0 -0.287741 	-0.214412 	0 -0.287826 	-0.214355 	0 -0.287913 	-0.214299 	0 -0.288065 	-0.214203 	0 -0.288218 	-0.214107 	0 -0.28837 	-0.214011 	0 -0.288522 	-0.213916 	0 -0.288674 	-0.213821 	0 -0.288906 	-0.213673 	0 -0.28914 	-0.213521 	0 -0.289374 	-0.213368 	0 -0.289608 	-0.213216 	0 -0.28984 	-0.213064 	0 -0.290065 	-0.212915 	0 -0.290291 	-0.212767 	0 -0.290517 	-0.212614 	0 -0.290744 	-0.21246 	0 -0.29097 	-0.212308 	0 -0.291188 	-0.212157 	0 -0.291407 	-0.212007 	0 -0.291625 	-0.211857 	0 -0.291845 	-0.211705 	0 -0.292064 	-0.21155 	0 -0.292276 	-0.211398 	0 -0.292488 	-0.211247 	0 -0.2927 	-0.211095 	0 -0.292912 	-0.210943 	0 -0.293122 	-0.210792 	0 -0.293143 	-0.210776 	0 -0.293163 	-0.210761 	0 -0.293184 	-0.210746 	0 -0.293204 	-0.210731 	0 -0.293225 	-0.210716 	0 -0.293415 	-0.210582 	0 -0.293606 	-0.21045 	0 -0.293797 	-0.210317 	0 -0.293988 	-0.210184 	0 -0.294178 	-0.210053 	0 -0.294381 	-0.209909 	0 -0.294586 	-0.209761 	0 -0.294792 	-0.209612 	0 -0.294997 	-0.209463 	0 -0.295202 	-0.209315 	0 -0.295398 	-0.209169 	0 -0.295595 	-0.209024 	0 -0.295794 	-0.208876 	0 -0.295993 	-0.208725 	0 -0.296192 	-0.208576 	0 -0.296381 	-0.208429 	0 -0.296571 	-0.208282 	0 -0.296761 	-0.208135 	0 -0.296952 	-0.207986 	0 -0.297145 	-0.207835 	0 -0.297328 	-0.207686 	0 -0.297512 	-0.207537 	0 -0.297696 	-0.207389 	0 -0.297879 	-0.20724 	0 -0.298063 	-0.207091 	0 -0.298098 	-0.20706 	0 -0.298134 	-0.20703 	0 -0.298169 	-0.206999 	0 -0.298205 	-0.20697 	0 -0.298242 	-0.20694 	0 -0.298388 	-0.206825 	0 -0.298536 	-0.206711 	0 -0.298682 	-0.206596 	0 -0.298829 	-0.206481 	0 -0.298976 	-0.206368 	0 -0.29915 	-0.206227 	0 -0.299328 	-0.206082 	0 -0.299506 	-0.205937 	0 -0.299684 	-0.205792 	0 -0.299861 	-0.205648 	0 -0.300029 	-0.205506 	0 -0.300198 	-0.205365 	0 -0.30037 	-0.205218 	0 -0.300542 	-0.205072 	0 -0.300713 	-0.204926 	0 -0.300876 	-0.204782 	0 -0.301038 	-0.204639 	0 -0.301201 	-0.204496 	0 -0.301366 	-0.204348 	0 -0.301532 	-0.204201 	0 -0.301689 	-0.204056 	0 -0.301847 	-0.203911 	0 -0.302004 	-0.203766 	0 -0.302162 	-0.203621 	0 -0.302322 	-0.203473 	0 -0.30243 	-0.203367 	0 -0.302539 	-0.203262 	0 -0.302649 	-0.203157 	0 -0.302758 	-0.203052 	0 -0.302868 	-0.202947 	0 -0.302913 	-0.202906 	0 -0.302958 	-0.202866 	0 -0.303003 	-0.202826 	0 -0.303047 	-0.202785 	0 -0.303093 	-0.202745 	0 -0.303247 	-0.202602 	0 -0.303402 	-0.202458 	0 -0.303557 	-0.202314 	0 -0.303712 	-0.202169 	0 -0.303867 	-0.202026 	0 -0.304013 	-0.201884 	0 -0.304163 	-0.201739 	0 -0.304313 	-0.201593 	0 -0.304464 	-0.201447 	0 -0.304614 	-0.201301 	0 -0.304756 	-0.201158 	0 -0.304899 	-0.201014 	0 -0.305044 	-0.200868 	0 -0.30519 	-0.20072 	0 -0.305336 	-0.200573 	0 -0.305475 	-0.200427 	0 -0.305613 	-0.200281 	0 -0.305752 	-0.200136 	0 -0.305893 	-0.199988 	0 -0.306035 	-0.199839 	0 -0.306169 	-0.199691 	0 -0.306304 	-0.199544 	0 -0.306439 	-0.199397 	0 -0.306573 	-0.199249 	0 -0.30671 	-0.1991 	0 -0.306801 	-0.198995 	0 -0.306893 	-0.198891 	0 -0.306984 	-0.198787 	0 -0.307076 	-0.198682 	0 -0.307168 	-0.198578 	0 -0.307207 	-0.198534 	0 -0.307248 	-0.198491 	0 -0.307288 	-0.198448 	0 -0.307329 	-0.198405 	0 -0.307371 	-0.198363 	0 -0.307501 	-0.198218 	0 -0.307634 	-0.198073 	0 -0.307767 	-0.197927 	0 -0.307899 	-0.197782 	0 -0.308033 	-0.197638 	0 -0.308155 	-0.197494 	0 -0.308283 	-0.197349 	0 -0.308411 	-0.197203 	0 -0.30854 	-0.197057 	0 -0.308669 	-0.196912 	0 -0.308787 	-0.196768 	0 -0.308906 	-0.196626 	0 -0.30903 	-0.19648 	0 -0.309154 	-0.196334 	0 -0.309279 	-0.196189 	0 -0.309393 	-0.196047 	0 -0.309508 	-0.195906 	0 -0.309624 	-0.195765 	0 -0.309743 	-0.19562 	0 -0.309864 	-0.195476 	0 -0.309974 	-0.195337 	0 -0.310086 	-0.195199 	0 -0.310197 	-0.195061 	0 -0.310308 	-0.194923 	0 -0.310425 	-0.194783 	0 -0.310531 	-0.19465 	0 -0.310638 	-0.194518 	0 -0.310745 	-0.194386 	0 -0.310852 	-0.194254 	0 -0.31096 	-0.194122 	0 -0.310983 	-0.194093 	0 -0.311007 	-0.194065 	0 -0.311031 	-0.194037 	0 -0.311055 	-0.194009 	0 -0.311079 	-0.193982 	0 -0.311162 	-0.193892 	0 -0.311246 	-0.193804 	0 -0.31133 	-0.193715 	0 -0.311413 	-0.193626 	0 -0.311497 	-0.193539 	0 -0.311598 	-0.193442 	0 -0.311704 	-0.193344 	0 -0.311809 	-0.193246 	0 -0.311914 	-0.193147 	0 -0.31202 	-0.193051 	0 -0.312116 	-0.192982 	0 -0.312215 	-0.192913 	0 -0.312318 	-0.192842 	0 -0.31242 	-0.192771 	0 -0.312523 	-0.192702 	0 -0.312615 	-0.192675 	0 -0.312709 	-0.192649 	0 -0.312806 	-0.192621 	0 -0.312905 	-0.192591 	0 -0.313006 	-0.192564 	0 -0.313095 	-0.192598 	0 -0.313186 	-0.192636 	0 -0.313277 	-0.192673 	0 -0.313373 	-0.192706 	0 -0.313471 	-0.192741 	0 -0.313559 	-0.192866 	0 -0