/*--------------------------------*- C++ -*----------------------------------*\
  =========                 |
  \\      /  F ield         | OpenFOAM: The Open Source CFD Toolbox
   \\    /   O peration     | Website:  https://openfoam.org
    \\  /    A nd           | Version:  6
     \\/     M anipulation  |
\*---------------------------------------------------------------------------*/
FoamFile
{
    version     2.0;
    format      ascii;
    class       volScalarField;
    location    "12";
    object      epsilon;
}
// * * * * * * * * * * * * * * * * * * * * * * * * * * * * * * * * * * * * * //

dimensions      [0 2 -3 0 0 0 0];

internalField   nonuniform List<scalar> 
10000
(
244.025
321.029
181.949
107.694
70.3697
51.3581
40.8496
34.7281
31.2489
29.664
29.6386
31.2485
34.8286
41.1728
52.0537
71.2615
107.447
178.814
311.887
241.362
241.341
320.671
181.621
107.669
69.99
51.1447
40.6532
34.4776
30.9439
29.3697
29.4877
31.1278
34.7435
41.1116
52.0151
71.1298
106.318
176.667
309.652
239.548
238.243
320.596
179.119
107.5
70.1867
51.1649
40.7018
34.5518
31.0405
29.5112
29.3183
30.8698
34.6898
41.0834
51.9963
70.9956
107.746
178.799
312.669
240.262
237.127
320.379
180.636
107.361
70.406
51.1477
40.7418
34.6279
31.1483
29.5729
29.5827
31.0562
34.693
41.0407
51.9482
71.2031
106.421
175.132
311.732
240.238
237.122
320.38
182.464
106.274
70.1897
51.0824
40.7018
34.5863
31.1164
29.4001
29.537
30.9446
34.5059
40.8041
51.5789
70.8074
108.442
177.804
308.58
239.957
237.065
319.281
181.913
107.272
69.8015
51.0201
40.57
34.405
31.1146
29.5647
29.5919
31.0761
34.852
41.1974
51.9216
71.2329
108.318
180.178
311.803
241.691
236.596
317.585
179.293
105.953
70.0394
51.1774
40.7113
34.51
31.1277
29.5709
29.6045
31.129
34.8764
41.1957
51.5177
70.3682
107.002
179.883
308.467
243.38
236.339
314.318
182.264
107.251
70.5733
51.4407
40.7339
34.4836
31.0973
29.5348
29.5942
31.2469
34.9117
41.2853
51.96
71.2161
108.51
178.715
313.206
246.09
236.89
316.212
182.124
105.57
70.451
51.4595
40.6284
34.4555
31.0985
29.5177
29.5374
31.0012
34.7082
41.2656
52.291
71.7578
107.881
181.294
312.75
247.877
237.084
318.36
183.437
107.317
70.5404
51.5056
40.7846
34.5927
31.0829
29.345
29.4034
31.1046
34.9327
41.452
52.6954
72.4854
109.178
180.911
310.576
249.745
237.155
314.829
183.218
108.318
70.1465
51.4443
40.7612
34.6018
31.1242
29.5579
29.6367
31.2754
34.9548
41.1807
52.562
72.3139
107.668
178.407
313.904
249.916
238.88
319.619
183.207
108.126
70.7263
51.4519
40.5537
34.559
31.1019
29.5144
29.609
31.1178
34.966
41.2718
52.1619
72.2934
108.165
179.191
311.937
252.839
238.718
318.221
182.579
107.378
70.4848
51.3858
40.6266
34.5693
31.1056
29.5723
29.6595
31.3562
35.0435
41.5295
52.4511
72.1671
108.274
179.549
313.66
249.752
238.456
316.019
182.137
107.822
69.8432
51.0448
40.7056
34.4068
30.8698
29.4936
29.6202
31.3204
35.01
41.5609
52.6336
71.4486
109.111
181.545
317.048
250.782
238.145
319.922
180.015
106.624
70.2006
51.3975
40.737
34.6661
31.0916
29.4346
29.616
31.2942
34.9588
41.4727
52.5425
71.5931
107.064
177.066
316.789
251.868
239.579
319.907
182.374
108.141
70.6636
51.6326
40.9824
34.7352
31.0038
29.4533
29.6008
31.217
34.6792
41.1458
52.2322
71.9241
108.606
180.131
316.33
250.931
241.041
319.899
181.547
107.84
70.8293
51.4203
40.9376
34.7678
31.2583
29.6417
29.6171
31.2119
34.8379
41.2579
52.2669
72.1973
108.958
181.197
314.186
249.895
241.091
316.614
177.697
106.104
70.6005
51.5711
40.9386
34.746
31.0702
29.4406
29.515
30.9585
34.7724
41.0287
52.2204
71.483
109.601
183.553
315.145
248.116
242.786
320.365
179.404
107.3
70.3252
51.3442
40.8779
34.7334
31.2359
29.6373
29.4344
31.1408
34.8021
41.2045
52.1085
71.1463
108.437
182.744
316.326
246.386
242.43
319.955
180.788
105.994
70.903
51.5853
40.8808
34.6796
31.0547
29.6534
29.6067
31.0066
34.7527
41.095
51.7494
70.9994
108.216
181.788
312.603
245.361
242.493
319.208
177.118
107.138
70.966
51.4183
40.7042
34.5444
31.1242
29.68
29.6767
31.223
34.7228
40.9183
51.8359
71.2479
109.656
179.768
312.377
243.753
244.77
319.261
181.181
108.673
71.0067
51.6925
40.9381
34.7595
31.2909
29.692
29.6658
31.1804
34.524
40.9591
51.9719
71.5744
109.851
183.259
313.079
244.361
244.912
315.818
182.932
108.608
70.4804
51.6034
40.9243
34.7572
31.2743
29.679
29.6422
31.1871
34.6015
41.096
52.2617
72.1028
109.594
183.35
315.783
240.222
244.905
316.842
182.37
108.357
71.022
51.661
40.7841
34.581
31.0738
29.6145
29.5889
31.1461
34.6647
40.8813
52.0593
71.3962
108.037
183.158
315.95
240.39
242.62
318.172
181.403
106.755
70.3819
51.6222
40.9432
34.7512
31.2415
29.6253
29.55
30.9955
34.55
41.1219
52.3304
72.5505
110.213
182.872
315.9
240.546
242.684
317.038
178.016
107.573
70.9134
51.667
40.9323
34.7095
31.2158
29.6331
29.6452
31.2829
34.8242
40.9703
51.8964
72.4503
109.945
182.02
315.764
240.664
242.616
314.924
178.642
107.414
70.7664
51.3872
40.8066
34.4781
30.9674
29.548
29.6265
31.2983
34.8773
41.2203
52.0273
72.3605
109.727
178.954
315.041
241.131
243.322
317.92
178.865
106.205
70.2222
51.5812
40.8422
34.5962
31.085
29.5341
29.6021
31.2695
34.8865
41.2595
52.0404
72.2385
109.707
179.976
314.837
241.801
244.172
317.487
180.344
107.587
70.9476
51.6558
40.6847
34.3801
30.8394
29.447
29.3957
31.1783
34.8305
41.243
52.1982
72.0339
109.691
180.358
310.828
241.986
244.666
316.851
176.899
109.013
71.6947
51.7295
40.9847
34.6736
31.0575
29.3912
29.5323
30.9931
34.6396
41.1711
52.0434
71.2701
109.451
182.407
312.301
242.434
245.017
317.403
180.541
109.548
71.8369
52.1656
41.3242
34.9586
31.3387
29.6611
29.6088
31.1011
34.6675
41.1255
51.691
71.6677
108.89
181.744
312.55
241.91
245.616
317.263
183.133
109.622
71.7716
51.9168
41.3124
34.9854
31.3447
29.6383
29.453
31.1825
34.7875
41.1501
51.8779
71.0953
107.114
178.778
314.703
241.962
247.057
317.118
183.095
109.561
71.5848
52.2297
41.3795
35.0117
31.3579
29.6547
29.5587
30.9708
34.5238
40.9714
52.2278
72.1083
108.238
179.776
312.012
243.112
247.152
313.806
180.976
109.439
71.8856
52.2739
41.4344
34.999
31.1765
29.4147
29.3625
30.9964
34.5957
41.1578
51.9324
72.1478
109.229
180.618
315.463
243.59
248.687
319.05
184.324
109.319
71.7222
52.0145
41.4381
35.0108
31.3924
29.6038
29.5299
31.1181
34.6187
41.165
52.2674
71.9265
108.099
182.445
313.184
245.283
254.542
318.93
183.912
110.234
71.0986
52.2707
41.5111
35.1304
31.4174
29.4629
29.372
30.9832
34.7477
41.0889
51.9146
72.0763
109.671
181.987
315.899
245.487
257.52
315.498
181.384
110.281
71.4488
52.2412
41.3693
35.1245
31.4642
29.7744
29.7048
31.2748
34.8019
40.9585
52.0168
71.5166
109.159
178.532
315.282
245.812
258.186
320.329
185.25
110.59
71.5937
52.4629
41.5688
35.1588
31.3864
29.7676
29.696
31.2553
34.7957
41.2083
52.2513
71.4916
109.002
179.739
312.348
245.063
257.206
319.898
184.823
110.39
71.7729
52.5679
41.4383
35.1868
31.535
29.7997
29.6679
31.1927
34.7018
40.9379
52.1825
71.7668
108.549
180.91
315.453
245.582
257.37
318.513
183.765
109.968
71.7824
52.5086
41.5701
35.182
31.5144
29.7627
29.5959
31.1067
34.6194
41.0459
52.0383
70.9355
106.694
177.369
313.402
248.419
252.893
315.989
181.483
108.675
71.8455
52.3875
41.4824
35.1254
31.4703
29.7197
29.4086
30.8899
34.3055
40.7715
51.9584
71.5167
107.89
180.101
317.173
247.703
251.554
313.732
181.06
108.997
71.1771
51.9298
41.3451
35.0511
31.2919
29.6162
29.7177
31.2684
34.6131
41.0195
51.5974
70.824
108.384
181.076
316.08
245.835
247.118
316.687
183.716
108.346
71.0657
51.96
41.1889
35.014
31.499
29.8382
29.7781
31.3294
34.8159
41.0552
51.7907
70.9416
106.596
177.552
312.067
244.13
244.306
317.985
183.408
107.736
71.1501
52.0339
41.3945
35.1175
31.5261
29.8664
29.798
31.3055
34.7842
40.8139
51.4177
71.2141
107.257
178.683
313.901
240.542
243.773
314.693
183.106
108.881
71.6514
52.2451
41.3783
35.0797
31.3405
29.6587
29.5975
31.3155
34.8166
41.0833
51.704
70.7974
107.669
179.575
313.196
240.664
243.304
316.501
182.86
107.41
70.9328
52.1229
41.2283
35.0792
31.5526
29.8777
29.7911
31.2856
34.5876
40.9067
51.9275
71.3194
106.636
175.966
310.377
241.121
242.477
312.96
182.417
108.976
71.5971
52.1571
41.3572
35.1191
31.5592
29.8829
29.776
31.1284
34.7501
41.1551
51.7122
70.911
108.023
179.669
312.571
240.396
242.541
315.996
181.883
108.542
70.9708
51.8566
41.146
35.0533
31.5086
29.8354
29.6339
31.1524
34.8067
41.2747
51.9903
71.515
109.422
182.683
314.797
240.73
242.64
312.376
180.98
107.073
71.4194
52.0531
41.2409
35.0468
31.4841
29.826
29.7496
31.2148
34.6062
41.3303
52.3546
72.0966
109.123
182.308
313.941
241.326
243.323
314.283
178.339
108.155
71.19
52.2539
41.3381
34.9973
31.4074
29.7311
29.5542
31.1957
34.794
41.3569
52.0873
71.983
107.229
181.69
310.598
241.863
243.149
309.873
178.894
107.205
71.6694
52.2988
41.2643
34.8208
31.3359
29.6888
29.5644
31.3042
34.9697
41.4301
52.5505
72.0822
108.356
181.351
313.508
242.169
245.4
313.854
180.166
108.19
71.5033
52.2575
41.2463
34.9894
31.1666
29.5965
29.5568
31.0699
34.8418
41.3383
52.466
71.8577
106.474
178.871
311.354
243.555
246.983
316.717
182.422
109.454
72.1338
52.2118
41.4397
35.0175
31.341
29.4362
29.3585
31.0555
34.6638
41.0519
52.3692
71.8719
107.51
182.032
315.47
245.074
247.496
313.869
181.83
109.172
72.0316
52.476
41.4382
34.8596
31.3643
29.6573
29.5756
31.2023
34.7978
41.2251
52.2659
71.6796
108.01
179.627
312.163
244.317
248.167
317.256
179.322
108.587
71.1996
52.3806
41.4344
35.0061
31.3615
29.6348
29.3962
31.1524
34.7314
40.9494
51.8514
71.7072
108.96
182.202
315.715
244.631
248.744
316.035
181.517
107.355
71.383
52.3104
41.3713
34.99
31.3558
29.6529
29.5902
31.1354
34.5757
40.9721
51.8782
70.8855
107
181.168
315.193
243.921
249.07
316.682
179.497
108.397
71.5847
52.0264
41.2426
34.9126
31.2923
29.4506
29.5287
30.9774
34.6742
41.0783
52.0463
71.2893
107.589
178.367
314.049
242.516
247.821
317.086
180.818
109.144
71.7604
52.0095
41.042
34.8534
31.3033
29.6509
29.5896
31.1242
34.5288
40.8565
51.8029
71.6852
108.435
180.202
313.278
242.083
246.71
313.463
181.719
108.743
71.254
51.8688
41.1293
34.6526
31.2237
29.6061
29.5574
30.9961
34.7286
41.1067
52.122
71.5564
108.011
179.144
309.795
242.001
245.388
313.105
180.668
107.25
70.8503
51.8439
40.9911
34.6507
31.1917
29.5869
29.5818
31.1683
34.713
40.8302
51.9896
71.3247
107.465
176.63
311.793
240.92
243.999
313.451
179.191
107.748
70.8984
51.7446
41.0773
34.649
30.9667
29.5017
29.5283
31.1543
34.6978
40.8503
51.6892
70.7942
106.436
177.827
311.586
241.099
243.482
312.153
179.36
107.234
70.5868
51.7223
40.967
34.7679
31.0161
29.4725
29.32
30.9364
34.5344
40.9007
52.0002
71.3814
107.941
179.387
310.918
241.24
242.742
308.514
176.664
105.547
70.3812
51.8375
41.1729
34.8132
31.0221
29.4233
29.4902
31.159
34.7609
41.0539
51.9217
71.0753
107.376
178.547
309.836
241.642
243.196
309.211
177.784
105.92
70.389
51.8142
41.1417
34.8045
31.1315
29.2746
29.4613
31.1552
34.7381
41.0529
51.7945
70.2408
106.702
177.386
308.329
241.397
244.478
309.512
176.71
105.249
70.2188
51.7155
41.0843
34.7944
31.1586
29.3233
29.2919
31.0849
34.6531
40.9737
51.7838
70.6562
105.053
174.096
304.835
241.596
243.763
307.641
174.884
105.144
70.1543
51.4592
40.8812
34.7302
31.1615
29.4904
29.4626
31.0611
34.5041
40.63
51.3974
70.5757
106.054
176.147
307.459
241.724
243.512
302.85
171.058
103.765
69.8001
51.4762
40.9974
34.5898
31.1423
29.4806
29.4457
31.0081
34.4024
40.7083
51.6081
70.3725
104.508
172.972
302.958
241.636
244.345
301.986
171.38
103.956
69.9038
51.5149
41.0099
34.6992
31.0992
29.2381
29.3203
30.7959
34.476
40.7543
51.578
70.3183
104.921
174.012
304.677
242.262
242.931
301.499
171.258
104
70.0727
51.6238
40.8714
34.5715
31.1005
29.2697
29.1232
30.7298
34.302
40.8075
51.4843
70.1198
105.106
174.799
306.892
242.775
242.29
302.74
172.258
104.175
69.6568
51.3966
41.017
34.7307
31.1212
29.3924
29.1951
30.7965
34.457
40.7552
51.3362
69.7705
104.383
173.442
305.208
242.713
242.627
297.748
170.699
103.561
69.7465
51.5467
40.9937
34.678
31.049
29.3436
29.291
30.8643
34.306
40.4318
50.8801
68.9414
102.625
171.585
304.262
242.896
242.486
298.885
167.414
101.964
69.0464
51.1693
40.6856
34.3664
30.7289
29.2099
29.2038
30.7841
34.1649
40.3854
50.8335
68.8382
102.2
168.177
302.352
242.284
242.492
294.782
166.373
101.375
68.9101
51.1875
40.7511
34.4571
30.7635
28.8895
28.8162
30.4313
34.0171
40.2348
50.596
68.5099
101.396
167.446
297.765
242.014
238.536
296.707
164.741
100.621
68.581
50.8907
40.6023
34.3062
30.6512
28.8052
28.7326
30.3317
33.8519
40.0889
50.4285
68.2013
100.8
166.296
299.748
239.274
236.657
294.897
163.273
99.8729
68.2505
50.7328
40.2295
33.8186
30.2481
28.7072
28.565
30.1582
33.6586
39.8777
50.2479
67.8928
100.024
164.598
297.661
237.961
235.609
292.666
161.686
99.0045
67.8205
50.4311
39.9921
33.69
30.0867
28.5616
28.3597
29.98
33.5251
39.7101
49.9702
67.3926
99.0037
162.685
292.459
236.94
233.723
287.256
159.729
97.8776
67.1883
50.0265
39.7416
33.4733
29.9328
28.3567
28.1944
29.9735
33.5015
39.5308
49.6841
66.859
97.9394
160.668
290.152
235.858
232.36
287.64
157.793
96.6677
66.4872
49.619
39.44
33.2243
29.6655
27.957
27.9208
29.5636
33.1397
39.2319
49.2758
66.1416
96.4615
157.712
286.402
234.833
230.883
281.749
154.866
95.0343
65.6203
49.1492
39.1185
32.9478
29.3772
27.6464
27.6656
29.3882
32.9267
38.9086
48.8147
65.3095
94.9231
155.114
283.575
233.885
229.057
279.014
151.866
93.4649
64.7931
48.6486
38.7366
32.5861
28.9928
27.3341
27.3431
29.0486
32.563
38.4945
48.2462
64.3367
92.9788
151.342
279.228
230.862
225.614
273.146
148.229
91.6509
63.8016
48.0391
38.2722
32.2026
28.6496
27.0139
27.0059
28.6077
32.0546
37.9618
47.6328
63.4205
91.0604
147.275
273.362
227.842
222.415
267.177
144.105
89.6366
62.8053
47.3625
37.7256
31.7489
28.2711
26.671
26.6656
28.2531
31.6262
37.4086
46.8407
62.2238
88.7732
142.232
265.313
222.036
218.324
258.72
139.415
87.3411
61.6908
46.5609
37.1112
31.2525
27.8507
26.2774
26.2564
27.7776
31.0711
36.7108
45.8732
60.688
85.6347
136.017
254.528
212.2
215.135
249.375
134.658
84.577
60.108
45.4236
36.2903
30.6461
27.3666
25.8427
25.8045
27.2403
30.4097
35.8785
44.7046
58.7445
82.0681
129.28
242.514
198.206
209.716
236.794
128.127
81.028
58.0619
44.0698
35.3293
29.9334
26.7963
25.3333
25.2908
26.6588
29.6942
34.9598
43.4735
56.8457
78.184
122.307
230.537
193.74
198.479
222.012
121.283
77.9003
56.0885
42.5742
34.1925
29.0544
26.08
24.693
24.6477
25.9425
28.8263
33.8536
42.0091
54.7072
73.914
115.701
218.015
189.155
190.024
206.722
113.717
74.7585
53.6615
40.7567
32.8224
27.9833
25.1955
23.8957
23.8491
25.0635
27.7888
32.5899
40.4616
52.7839
70.7083
109.607
205.025
189.475
190.873
192.383
106.196
71.019
50.7832
38.6116
31.1925
26.6966
24.1184
22.9208
22.8803
24.0098
26.5485
31.0591
38.5682
50.6392
68.3137
102.408
191.394
191.518
193.521
175.604
97.8735
65.844
47.4101
36.1635
29.338
25.2226
22.8673
21.7833
21.7603
22.8041
25.1382
29.3078
36.3411
48.0002
65.621
94.9298
175.9
195.466
202.549
162.756
91.2928
61.7532
44.1124
33.596
27.3372
23.6116
21.502
20.5413
20.5307
21.4757
23.5794
27.352
33.795
44.9253
64.4979
92.5093
166
213.182
220.094
149.287
85.3636
57.2084
40.4955
30.8348
25.2144
21.9147
20.0615
19.2261
19.2272
20.0711
21.9377
25.2834
31.0232
40.9692
58.4879
91.2298
153.631
225.114
232.902
142.797
81.5567
52.8167
36.8971
28.1173
23.1289
20.2462
18.6481
17.9363
17.9441
18.6767
20.302
23.2346
28.3233
37.3444
53.8135
83.9942
144.867
240.627
256.109
140.579
79.4925
48.8571
33.5594
25.5974
21.2153
18.738
17.3866
16.7907
16.7984
17.414
18.7918
21.3102
25.7535
33.7904
49.0351
79.1315
140.922
260.268
285.229
139.057
74.0689
44.1914
30.3
23.308
19.5479
17.4698
16.3568
15.8707
15.8768
16.378
17.5141
19.6318
23.4641
30.5798
44.596
74.0527
138.827
284.088
309.543
138.134
69.204
40.5257
27.6953
21.4611
18.2321
16.5112
15.6173
15.2281
15.2305
15.6247
16.527
18.2609
21.5154
27.7948
40.7566
69.8655
138.441
311.071
345.375
138.761
65.6455
37.0511
25.222
19.8078
17.1476
15.8031
15.1412
14.8777
14.8786
15.1436
15.8087
17.1564
19.8223
25.2405
37.0672
65.6227
138.943
343.991
373.09
137.04
59.9713
32.9414
22.6633
18.2597
16.2386
15.294
14.876
14.7227
14.7232
14.8769
15.2957
16.2415
18.2668
22.682
33.0116
60.245
137.768
374.942
403.654
129.719
51.8345
28.0238
19.9337
16.766
15.4664
14.9481
14.7509
14.677
14.6775
14.7517
14.9501
15.4659
16.7634
19.9148
27.9719
51.6614
129.242
403.053
431.916
108.223
38.8156
22.0319
17.1509
15.5761
15.0192
14.8212
14.731
14.6977
14.6978
14.731
14.8206
15.0164
15.5741
17.1615
22.0671
38.9247
108.578
432.957
466.942
57.6529
21.6933
16.1863
15.1105
14.875
14.8299
14.8013
14.7955
14.7959
14.7959
14.7955
14.8013
14.8298
14.8756
15.1093
16.1759
21.6633
57.5721
466.675
699.394
824.847
456.451
257.983
154.201
98.8282
67.7953
50.1626
40.6548
36.6641
36.6754
40.7347
50.0002
67.2355
97.6053
151.77
257.179
457.402
815.645
689.198
702.852
824.555
449.096
257.973
154.156
98.6717
67.5238
49.8465
40.3322
36.4591
36.4756
40.5081
49.7411
66.9995
97.3353
149.284
256.168
454.733
798.035
704.712
708.344
823.758
460.762
258.107
154.312
98.0315
66.75
49.0444
39.4831
36.2882
36.3408
40.3436
49.5377
66.809
97.3391
152.028
255.112
452.506
806.677
695.34
723.18
819.229
458.214
256.886
153.972
98.8535
67.7753
50.3409
40.6723
36.3882
36.0933
39.9789
48.4999
66.336
96.0207
151.724
250.398
448.628
814.441
687.571
718.306
800.688
454.073
252.745
152.283
97.8145
66.7345
50.1207
40.5002
36.1545
35.5055
39.1468
48.6165
65.5899
97.1214
150.505
256.116
434.57
798.044
689.034
716.724
817.718
445.733
255.577
154.009
98.2653
66.981
49.974
40.3973
35.9228
35.254
39.5407
48.9535
66.1491
96.4954
154.246
256.894
448.847
813.418
691.541
733.251
801.342
451.358
252.637
153.483
97.8427
67.0403
49.2412
40.1548
35.4559
35.239
40.1355
49.6486
67.0095
98.237
154.208
255.889
458.066
795.868
703.233
712.463
814.221
459.693
256.73
152.323
97.9412
67.6468
50.0104
40.0713
35.0783
35.1384
40.0068
49.5118
66.4864
98.1621
153.912
250.677
457.384
801.782
680.276
702.37
827.678
458.137
254.966
152.77
98.3853
67.5496
49.8884
39.7889
35.0835
35.1696
39.3704
48.7506
66.871
97.8152
153.814
255.815
456.306
808.004
693.449
719.269
825.406
453.938
252.767
151.809
97.9907
67.1393
49.6497
38.9462
35.3513
35.6248
40.0864
49.3458
66.61
96.5649
153.2
250.184
447.172
822.881
681.92
716.783
820.701
441.125
246.888
149.821
96.7084
65.9232
49.5012
39.8714
35.3009
35.26
40.098
49.2074
66.39
97.8119
153.111
252.817
459.363
821.133
682.706
713.635
815.547
450.319
249.323
149.95
97.5238
66.279
48.9599
39.314
36.1629
35.3892
40.1628
48.4626
65.8837
96.7563
151.262
252.662
457.248
817.389
695.322
730.338
795.326
437.066
250.814
150.653
97.5385
66.7775
49.8832
40.5839
36.5469
36.4489
40.4476
49.5423
67.1551
97.9608
153.006
255.336
453.251
811.428
679.261
713.166
816.127
446.528
247.58
151.883
96.9125
67.7688
49.2819
39.8484
36.4545
36.4043
40.3459
48.7171
66.9937
97.6881
152.322
253.282
441.355
789.57
677.927
699.08
809.972
455.627
252.981
151.548
97.9586
68.1703
50.4129
40.9218
36.5837
36.3779
40.4101
49.639
66.8057
97.2587
151.474
248.661
451.612
800.518
677.381
684.096
801.185
453.532
256.468
153.7
97.1853
68.1572
50.1888
40.7798
36.3368
36.04
40.086
49.4751
66.4448
96.8899
150.94
252.13
441.17
809.848
672.931
696.96
778.879
449.695
255.153
153.468
98.5729
68.2528
49.9212
40.6006
35.9786
34.9848
39.0249
49.1297
65.6834
96.3746
149.745
250.016
447.425
797.899
671.993
687.877
789.001
447.2
253.489
152.988
99.0078
68.3324
50.5389
39.9228
35.1999
35.0636
39.2995
49.0368
65.4347
95.2849
147.857
245.218
454.423
805.579
668.648
698.669
798.145
437.155
248.803
150.903
97.9457
67.4646
50.0012
40.5085
35.6999
35.1136
39.3228
48.4571
65.8708
96.6088
150.278
247.119
452.766
822.329
672.006
677.601
812.688
444.191
253.213
152.25
99.0028
68.5161
50.9341
40.9127
35.033
35.3394
39.7765
48.8497
64.9351
95.8523
151.323
249.282
448.965
819.02
686.122
679.768
798.089
449.693
257.188
153.088
99.7012
68.4829
50.9018
40.9624
35.7678
36.0025
39.3993
49.3418
65.9806
97.373
151.375
242.511
435.941
815.165
669.408
680.205
819.205
440.98
256.769
154.65
99.5235
67.4052
50.6042
40.841
36.333
36.081
39.9846
49.2673
66.5853
97.433
151.861
249.828
450.236
811.664
671.708
683.84
818.347
453.484
257.076
154.407
98.6553
67.7868
50.3913
40.632
36.0403
35.7727
39.6317
48.2706
65.5225
97.1209
151.805
253.45
446.39
792.034
677.842
685.167
814.654
443.85
256.197
152.804
99.5315
68.2652
49.6829
40.257
35.2096
34.9555
38.9609
48.4373
65.9534
96.8469
151.19
252.098
435.873
810.026
690.214
698.803
813.243
457.602
255.677
154.842
99.5108
68.1228
49.5326
39.5807
36.0668
35.7828
39.7168
48.5272
65.6293
96.5407
150.585
251.607
446.105
792.161
676.796
680.03
806.855
456.193
252.344
154.602
99.3165
67.855
49.6073
39.7178
35.9595
35.2349
39.0124
48.8694
66.1034
95.4841
148.317
246.721
435.199
799.647
669.656
678.734
800.435
454.009
257.145
154.443
98.4053
66.983
49.3517
40.0107
35.9926
35.3479
39.4935
48.3288
65.6399
96.5965
150.348
251.561
444.316
809.794
683.663
682.042
779.697
451.943
256.352
153.863
99.146
68.2345
49.8963
39.1584
35.8204
35.8736
39.0502
49.3856
66.7226
95.763
148.045
250.397
453.933
828.972
680.884
682.795
795.295
444.862
252.153
151.62
98.6768
68.0479
50.6905
40.044
35.3752
35.9354
39.794
49.3994
66.6867
96.9785
149.709
243.593
450.424
828.986
686.384
693.529
814.043
456.449
256.684
152.412
98.4629
67.1802
50.7473
40.897
36.3294
35.9026
38.8864
49.2778
66.4359
96.1176
148.228
246.316
438.391
827.172
702.977
690.201
802.605
453.335
255.423
151.854
97.5178
68.0938
50.6337
40.6274
36.0928
35.891
39.2246
49.2108
65.7492
96.8259
149.807
249.31
455.18
827.425
688.467
685.884
828.442
443.106
253.781
152.471
97.5929
67.8911
50.3822
40.1186
35.1126
35.7879
39.7762
49.3281
66.5603
96.1375
147.454
241.875
452.496
824.181
702.618
687.919
826.452
445.674
252.854
151.879
97.243
67.7346
50.2719
39.8394
35.4142
35.7039
39.6057
49.1611
66.5562
97.2234
150.231
246.489
443.346
821.28
675.108
701.216
825.431
447.783
251.501
150.304
96.8469
67.4456
50.1283
40.3086
35.7839
35.5672
38.6285
48.8786
66.2538
97.0053
151.41
248.054
453.634
817.228
678.523
690.126
821.442
454.081
247.179
151.174
97.3061
67.271
49.9962
40.1046
35.0272
35.3629
39.0595
48.837
66.0171
96.6794
150.211
250.699
442.672
808.569
678.666
699.962
818.022
451.024
251.091
150.554
97.4387
66.309
49.2063
39.3486
35.6086
34.7396
39.5551
48.7715
65.13
95.6203
151.748
253.982
448.198
794.206
683.61
683.506
811.246
439.3
253.396
151.809
96.9773
67.3506
50.1298
39.8109
35.2844
35.0136
39.5765
48.8043
65.9529
96.3518
151.371
250.217
452.56
814.441
690.049
698.16
794.316
447.876
250.814
150.283
98.2627
66.8569
50.0924
40.4246
35.8727
35.4556
39.4642
48.6118
65.7801
95.3129
150.182
253.312
462.636
830.63
678.58
687.528
811.658
439.437
254.932
151.093
98.5329
68.0067
50.3827
40.3632
35.6192
34.7164
39.301
48.472
65.624
96.3839
151.831
255.977
461.104
827.553
683.206
674.831
794.056
452.676
255.147
151.529
98.5103
67.8607
50.2257
40.0959
34.8701
35.3713
38.7244
47.5692
65.1698
95.0952
149.681
251.216
458.299
823.259
696.205
674.812
808.861
450.964
253.948
152.799
98.5809
67.6428
50.1798
39.6032
35.0169
35.093
39.5679
48.4721
64.7193
96.02
151.933
257.518
456.105
803.326
673.258
678.428
789.951
439.901
252.173
152.578
98.452
66.7367
49.7654
40.8333
35.5245
35.9263
39.6724
48.4983
65.193
94.9294
149.908
256.732
453.909
814.558
676.233
687.899
811.638
454.501
249.487
152.24
98.4346
67.6481
50.9011
41.1517
36.2579
36.0782
39.5237
48.2083
64.2464
96.327
151.664
256.123
443.491
794.15
677.617
669.797
791.168
452.243
252.737
152.181
97.8131
68.6168
51.0739
41.2957
35.7035
36.0364
38.9076
47.6115
64.5247
96.256
150.079
256.001
452.884
811.984
681.648
681.491
812.116
451.6
248.934
151.694
98.8715
68.8007
51.2902
41.4875
36.8498
36.3199
40.2863
48.9997
64.9938
96.2416
152.841
255.544
442.884
819.804
683.697
667.345
799.846
441.322
253.436
150.932
98.5179
68.614
51.1165
41.3688
36.769
35.6994
40.2769
49.0156
65.8563
95.3141
152.828
255.461
445.025
804.13
701.779
666.613
810.394
453.589
253.305
152.573
99.0146
68.5261
50.8877
41.3217
36.8304
36.3847
40.4476
48.4786
65.4802
97.4702
152.754
255.473
447.605
813.133
689.461
669.05
802.701
452.203
251.594
152.167
98.7115
68.189
49.9254
41.0725
36.6504
35.5862
40.4654
50.1011
67.2525
97.5822
152.43
255.029
453.716
821.731
677.856
669.709
779.474
449.989
246.932
151.693
97.8698
67.3956
50.176
40.9345
36.6915
36.3052
40.3614
50.1906
67.4205
97.5017
151.907
254.064
450.587
817.956
680.393
673.946
798.227
450.068
248.456
151.5
98.3224
67.7577
50.4891
40.4726
35.9635
35.5771
39.5399
50.1416
67.3459
96.4543
149.739
253.029
439.746
799.461
697.229
676.845
806.853
447.927
248.533
150.278
98.7129
68.0985
50.3607
40.1768
36.8062
36.8184
40.7544
50.3175
67.519
97.8369
151.733
252.881
448.012
809.287
688.699
691.727
790.435
445.234
251.138
151.613
98.648
67.8085
49.5441
40.2562
36.7273
36.7003
40.0974
50.1233
67.3265
97.5749
150.429
251.399
455.186
818.181
682.226
678.267
799.549
437.632
248.887
151.792
98.0447
66.9814
49.9874
40.7571
36.673
36.5749
40.6248
50.0335
67.1966
97.3347
151.216
244.966
452.93
802.721
684.211
679.792
792.757
446.656
251.406
150.893
98.5416
67.3547
49.2829
40.5074
36.4363
35.7523
40.2134
49.1748
66.1894
95.9944
151.063
249.969
451.398
817.664
689.137
682.148
770.768
444.678
250.041
151.11
98.4538
67.8671
49.9455
39.6985
36.1929
36.1315
39.6409
49.8206
67.2169
96.9179
149.719
251.537
448.126
799.191
699.46
693.537
783.681
444.145
246.047
151.315
97.8607
67.6691
49.1354
39.5708
36.0148
36.0104
39.507
49.5846
67.0891
96.1014
150.968
247.384
438.566
803.295
673.411
663.215
791.459
443.016
248.572
151.117
98.2769
67.4801
49.3516
39.3802
35.2386
35.3027
39.4018
48.8108
66.8592
96.867
150.737
248.189
441.721
806.762
675.626
666.213
774.598
440.613
245.581
149.708
98.0941
67.2512
48.3877
39.5497
35.6563
35.7881
39.7936
49.2159
66.6809
97.1048
149.701
247.063
443.372
817.282
675.055
668.418
794.169
440.012
246.618
150.1
97.9658
66.6799
48.894
38.982
34.8544
35.4327
38.9214
48.8975
65.8116
96.2813
150.124
247.207
448.664
802.146
677.333
681.728
779.752
436.811
248.265
149.773
97.7785
67.1328
49.4612
39.1047
35.3352
34.8639
39.4116
48.6678
66.0309
96.2347
148.864
247.945
446.338
824.192
676.276
688.189
800.437
428.891
247.066
149.622
97.4705
66.2155
49.1819
39.3773
34.6681
34.6364
39.0106
47.6596
65.6638
95.801
148.495
245.134
434.803
820.685
679.038
696.404
799.066
438.721
246.453
148.906
97.2072
66.5468
48.2266
38.8899
34.6582
34.2223
38.1549
47.7563
64.8242
94.8165
147.523
244.891
435.896
817.233
686.411
697.449
795.095
435.924
245.143
148.492
96.2145
65.5043
47.8407
38.4148
34.23
33.8565
37.7643
46.9543
64.3715
94.4247
146.751
243.046
431.585
810.641
653.22
698.273
791.747
432.676
241.223
147.77
95.8485
65.1309
47.2361
37.517
33.5174
33.5021
37.3178
46.3537
63.7867
93.7686
145.917
241.522
429.46
793.906
655.524
691.618
786.396
429.118
241.414
147.359
95.2377
64.2637
46.3609
36.7118
32.6775
32.4567
36.4459
45.7909
62.9611
93.2328
145.306
239.75
429.145
807.567
657.785
678.038
782.346
425.484
239.722
146.71
94.4271
63.7598
45.9267
36.4526
32.7528
32.215
36.0364
45.2859
62.3768
92.648
144.521
236.156
421.846
788.226
660.557
686.294
775.935
421.293
237.909
145.893
93.7174
62.955
45.4773
35.8697
32.3543
31.8015
35.5125
44.5455
61.4816
91.7928
143.64
234.759
422.079
789.549
674.084
663.03
757.822
416.829
236.31
145.242
93.0782
62.4069
45.0915
35.3849
31.4063
31.2996
34.9413
43.7309
60.6655
90.9202
142.63
232.577
417.787
783.278
649.656
672.065
771.271
408.462
233.16
144.052
92.1422
61.6759
44.4482
34.8268
30.8202
30.6244
34.2129
42.8987
59.8905
90.0118
141.266
229.954
413.149
779.921
649.35
649.163
763.954
407.994
231.972
142.909
91.1662
60.8692
43.7398
34.2479
30.1916
29.9417
33.5037
42.258
58.9413
88.8326
140.017
228.131
409.218
778.158
663.819
647.756
756.558
396.536
228.93
141.312
89.8229
59.8188
42.8748
33.5702
29.4964
29.2319
32.8033
41.3519
57.859
87.693
138.771
225.518
400.428
779.326
641.483
645.003
736.714
392.138
226.351
139.493
88.1805
58.3428
41.6028
32.8341
29.0304
28.8081
32.1874
40.3873
56.5828
86.1589
137.157
222.783
395.962
759.945
647.303
635.721
741.009
387.018
222.972
137.209
86.4218
56.8722
40.6854
32.1629
28.5011
28.3902
31.7782
39.5642
55.3254
84.5249
135.23
220.323
391.127
762.635
598.884
626.991
731.968
380.504
219.637
134.938
84.6634
55.5789
39.6277
31.3917
27.8954
28.1641
31.8373
39.0349
54.1953
82.8145
132.976
217.109
383.884
740.718
592.408
622.285
707.742
373.246
215.479
132.13
82.6315
54.0935
38.4273
30.5269
27.3853
27.6237
31.4555
38.4637
53.0835
81.0001
130.475
213.311
378.083
735.61
582.475
595.568
700.579
366.05
210.528
128.776
80.305
52.5414
37.4953
29.9327
26.9023
27.3345
30.6071
38.2951
52.0871
79.3138
128.138
209.123
372.351
717.337
576.321
566.228
683.843
358.162
205.277
125.17
77.8665
51.0155
36.5187
29.2016
26.2718
26.6782
30.011
37.1968
50.925
77.3865
125.107
204.344
365.529
705.11
565.687
556.355
668.086
347.705
199.544
121.259
75.2998
49.3957
35.4456
28.4343
25.6212
25.9662
29.1527
36.243
49.5781
75.3478
121.731
196.765
356.452
692.712
559.391
544.177
646.728
334.681
193.082
116.709
72.3034
47.5105
34.2563
27.5685
24.8024
24.912
27.8722
34.717
47.9825
73.0733
118.332
190.62
348.17
674.508
550.209
523.881
626.245
320.71
186.183
111.756
69.102
45.5703
33.0375
26.7201
24.0938
24.1757
26.9813
33.5391
46.3566
70.5662
114.433
182.972
337.939
657.662
548.268
500.063
604.458
306.737
177.574
106.02
65.5075
43.426
31.7581
25.8683
23.4129
23.4865
26.1266
32.3458
44.5774
67.6918
110.024
175.739
325.948
635.633
551.9
487.641
581.767
292.647
167.648
99.9407
61.8359
41.2966
30.5085
25.0614
22.7824
22.8537
25.3155
31.1178
42.596
64.5276
105.395
172.954
312.09
609.786
502.895
472.722
556.92
279.136
159.594
94.0118
58.2044
39.182
29.2378
24.2071
22.11
22.1833
24.461
29.8123
40.4203
60.8944
99.7881
172.141
298.982
584.72
499.384
458.706
526.264
263.607
148.801
87.1694
54.1897
36.9469
27.9443
23.378
21.4644
21.5238
23.5939
28.4694
38.1884
56.9779
92.9259
159.08
282.911
553.064
499.514
432.331
487.988
245.457
137.438
80.1103
50.1492
34.6456
26.5908
22.5087
20.7929
20.8422
22.6899
27.0376
35.6748
52.4645
85.0794
147.237
264.244
518.461
441.544
406.267
453.662
226.429
124.473
72.5671
45.9545
32.2916
25.1919
21.5864
20.073
20.1168
21.7439
25.5668
33.1706
48.0058
77.0011
133.141