/*--------------------------------*- C++ -*----------------------------------*\
  =========                 |
  \\      /  F ield         | OpenFOAM: The Open Source CFD Toolbox
   \\    /   O peration     | Website:  https://openfoam.org
    \\  /    A nd           | Version:  6
     \\/     M anipulation  |
\*---------------------------------------------------------------------------*/
FoamFile
{
    version     2.0;
    format      ascii;
    class       volScalarField;
    location    "12";
    object      k;
}
// * * * * * * * * * * * * * * * * * * * * * * * * * * * * * * * * * * * * * //

dimensions      [0 2 -2 0 0 0 0];

internalField   nonuniform List<scalar> 
10000
(
0.190977
0.493817
0.431618
0.386212
0.36427
0.356619
0.355563
0.356519
0.357642
0.358428
0.358784
0.358704
0.358547
0.359265
0.362556
0.371708
0.393528
0.437146
0.492484
0.190895
0.187997
0.493407
0.430625
0.387192
0.364909
0.357082
0.356011
0.35696
0.358062
0.358938
0.359471
0.35948
0.359295
0.360092
0.363594
0.372706
0.394095
0.437629
0.492542
0.190262
0.187863
0.493721
0.431672
0.387226
0.365758
0.357564
0.356148
0.356831
0.357855
0.358875
0.360087
0.360873
0.359752
0.360683
0.364391
0.374275
0.395084
0.43756
0.492719
0.19046
0.18788
0.493578
0.433416
0.387348
0.365517
0.359246
0.356608
0.357013
0.357873
0.358857
0.360267
0.360264
0.360072
0.362648
0.366636
0.374134
0.394818
0.434348
0.488731
0.188886
0.186317
0.49356
0.433228
0.387029
0.365664
0.358065
0.356578
0.357045
0.357971
0.358652
0.359051
0.359281
0.35986
0.362304
0.366386
0.374543
0.394847
0.436094
0.491774
0.190046
0.186745
0.490519
0.432583
0.387337
0.366119
0.358963
0.358728
0.357815
0.358534
0.359091
0.359433
0.359737
0.360411
0.362109
0.366191
0.376144
0.396154
0.435571
0.492263
0.190528
0.186522
0.492901
0.432147
0.387606
0.367867
0.359564
0.358104
0.358292
0.359113
0.35958
0.359933
0.360526
0.362402
0.364301
0.367188
0.376776
0.397533
0.438308
0.491842
0.191676
0.187482
0.493286
0.433299
0.388901
0.368964
0.361869
0.359121
0.360432
0.361455
0.361795
0.361999
0.3623
0.362766
0.363847
0.369166
0.378614
0.398574
0.438536
0.492051
0.193474
0.186799
0.492898
0.43278
0.389983
0.369723
0.362035
0.359763
0.35988
0.361082
0.361341
0.361626
0.362036
0.362957
0.365237
0.370141
0.379753
0.39942
0.436055
0.491306
0.194234
0.187666
0.491279
0.434281
0.390861
0.371072
0.364642
0.360573
0.361027
0.360302
0.360616
0.360994
0.361388
0.362204
0.36425
0.369462
0.38153
0.401855
0.439771
0.489761
0.194753
0.188272
0.496635
0.436222
0.390975
0.370162
0.364108
0.361575
0.360107
0.360158
0.360595
0.361037
0.361479
0.362386
0.364373
0.369792
0.382492
0.404002
0.443106
0.496912
0.196703
0.189238
0.494834
0.43316
0.390717
0.369904
0.362837
0.360644
0.361008
0.360412
0.360692
0.361281
0.361881
0.364013
0.365873
0.370148
0.382565
0.404848
0.445374
0.502014
0.197718
0.187318
0.493148
0.435186
0.390764
0.370029
0.364387
0.361659
0.359886
0.360537
0.360896
0.362309
0.361841
0.363444
0.36479
0.370763
0.381756
0.405123
0.445557
0.501692
0.197421
0.188384
0.491254
0.434749
0.39077
0.369442
0.361762
0.359183
0.359131
0.359766
0.360426
0.361773
0.361697
0.363674
0.364558
0.36927
0.382037
0.405198
0.448048
0.502115
0.197457
0.189453
0.494124
0.432996
0.390737
0.369601
0.363255
0.359214
0.359121
0.359829
0.360275
0.361421
0.361331
0.363498
0.364781
0.368761
0.379834
0.403906
0.448881
0.501793
0.197679
0.18912
0.494466
0.435234
0.390847
0.369202
0.361367
0.358705
0.358986
0.361017
0.360467
0.3609
0.361013
0.362666
0.366152
0.368976
0.379235
0.40228
0.44461
0.497101
0.195848
0.1908
0.495038
0.434185
0.39073
0.369698
0.362891
0.359832
0.359024
0.360143
0.359291
0.359628
0.360656
0.363325
0.365275
0.369275
0.377288
0.400743
0.442711
0.496762
0.194789
0.189884
0.495607
0.436579
0.390265
0.368478
0.35982
0.359203
0.359506
0.359599
0.359036
0.359429
0.360932
0.362379
0.363884
0.367789
0.376421
0.399433
0.440818
0.494664
0.193156
0.190911
0.490854
0.433244
0.389513
0.366349
0.35819
0.356984
0.357491
0.358259
0.358747
0.358894
0.359254
0.360637
0.361457
0.365054
0.37535
0.39759
0.438738
0.492564
0.191613
0.190669
0.4921
0.434038
0.389305
0.366283
0.359757
0.359169
0.359334
0.359884
0.360327
0.359091
0.35896
0.359131
0.359111
0.36239
0.372779
0.39611
0.437514
0.490048
0.190635
0.190423
0.493792
0.434287
0.388534
0.36594
0.357982
0.357894
0.357663
0.358323
0.359639
0.358964
0.358941
0.359928
0.359029
0.362089
0.373047
0.395854
0.436672
0.489648
0.189716
0.19142
0.493671
0.43214
0.388209
0.366104
0.358061
0.357608
0.358515
0.358405
0.359584
0.359073
0.358917
0.359337
0.358821
0.361701
0.37146
0.394617
0.43708
0.488293
0.189547
0.191239
0.493657
0.432811
0.388877
0.366472
0.358186
0.356408
0.356956
0.357842
0.35902
0.359766
0.359687
0.359096
0.359716
0.362841
0.371583
0.394562
0.438298
0.490907
0.189333
0.190798
0.49004
0.434599
0.389389
0.368216
0.360598
0.357418
0.35885
0.359413
0.35859
0.358409
0.358006
0.357701
0.358416
0.361612
0.371382
0.394554
0.437102
0.488206
0.188503
0.190653
0.491196
0.432723
0.389133
0.368452
0.360736
0.357522
0.357674
0.358957
0.359644
0.359752
0.358446
0.358129
0.359985
0.363504
0.372651
0.394699
0.440587
0.49462
0.189945
0.190512
0.492219
0.434929
0.389909
0.368707
0.361423
0.358973
0.358936
0.358178
0.358526
0.358797
0.358369
0.358291
0.360077
0.363269
0.372654
0.395119
0.440612
0.496799
0.189921
0.190876
0.491223
0.434099
0.39047
0.369178
0.362072
0.359097
0.357855
0.358045
0.358592
0.360005
0.358898
0.358712
0.360279
0.363177
0.372813
0.39571
0.440921
0.497607
0.190876
0.191179
0.495471
0.438086
0.391782
0.369687
0.361026
0.358536
0.358347
0.358553
0.358698
0.359599
0.35977
0.359762
0.359685
0.364354
0.373795
0.395508
0.440264
0.498777
0.191938
0.19153
0.492147
0.437998
0.392519
0.371476
0.361808
0.35919
0.360129
0.359271
0.358958
0.358796
0.358519
0.358464
0.359317
0.362856
0.372918
0.3956
0.438259
0.498639
0.191563
0.192247
0.496087
0.438361
0.3932
0.372284
0.363989
0.359812
0.359532
0.360845
0.359933
0.359515
0.359076
0.358988
0.359694
0.363235
0.373412
0.39631
0.440849
0.498648
0.192756
0.192814
0.496764
0.435712
0.393592
0.372486
0.364202
0.360235
0.360784
0.36146
0.361522
0.360179
0.359625
0.359552
0.360191
0.363696
0.373958
0.3959
0.437696
0.498085
0.192311
0.193717
0.497062
0.438038
0.394813
0.373273
0.365059
0.360719
0.359994
0.360807
0.361342
0.361327
0.360406
0.361511
0.362305
0.365569
0.374439
0.39698
0.439836
0.498207
0.19104
0.194824
0.497899
0.437764
0.396486
0.375206
0.365605
0.361152
0.360138
0.360097
0.360385
0.360448
0.360452
0.360675
0.361638
0.365239
0.37502
0.39689
0.441513
0.497719
0.192158
0.194413
0.497736
0.43717
0.397724
0.37554
0.365477
0.361628
0.360542
0.360367
0.361524
0.361764
0.362022
0.36272
0.36341
0.366926
0.376386
0.397971
0.440451
0.497283
0.192414
0.197465
0.498411
0.439554
0.400038
0.377734
0.36638
0.363725
0.361711
0.360588
0.360428
0.360462
0.360599
0.361605
0.36201
0.365555
0.375632
0.398475
0.443507
0.497699
0.193614
0.199902
0.498391
0.44143
0.401062
0.378041
0.367513
0.36329
0.362263
0.361711
0.361597
0.360977
0.36081
0.360992
0.36341
0.367284
0.376122
0.398887
0.442965
0.496375
0.192516
0.200576
0.50103
0.443581
0.40218
0.377827
0.366402
0.361917
0.360442
0.360104
0.360395
0.361745
0.362069
0.361056
0.362899
0.36695
0.376918
0.39931
0.44254
0.495877
0.193
0.200514
0.502412
0.445683
0.4026
0.378864
0.366713
0.362005
0.360373
0.359849
0.359876
0.360407
0.361166
0.36149
0.361844
0.365832
0.376031
0.399177
0.439889
0.492443
0.192711
0.199869
0.504414
0.446712
0.4025
0.378492
0.368452
0.363828
0.361026
0.360199
0.359936
0.359887
0.359887
0.360118
0.361513
0.365734
0.37579
0.399253
0.442228
0.496204
0.193129
0.198919
0.500748
0.447445
0.402098
0.37903
0.367393
0.362713
0.362177
0.361595
0.361202
0.360417
0.36078
0.360341
0.362746
0.366317
0.375615
0.398447
0.441276
0.49599
0.193678
0.196827
0.499826
0.443887
0.400809
0.377255
0.368572
0.362497
0.360722
0.360109
0.359813
0.360587
0.360355
0.360683
0.361294
0.367349
0.375304
0.397449
0.439663
0.490923
0.192419
0.194849
0.496828
0.441223
0.399787
0.377072
0.367259
0.362563
0.360673
0.360816
0.35945
0.359128
0.358837
0.359097
0.360257
0.365684
0.374287
0.396292
0.436062
0.491453
0.191272
0.191615
0.493925
0.438999
0.398663
0.377832
0.366125
0.36389
0.360709
0.359731
0.359459
0.359155
0.358835
0.359404
0.359943
0.364521
0.373118
0.395707
0.437051
0.491429
0.190367
0.191134
0.495873
0.437883
0.396931
0.375895
0.364248
0.361914
0.361114
0.359934
0.360625
0.359542
0.358965
0.359064
0.359625
0.362949
0.372977
0.395745
0.438271
0.490975
0.190207
0.190691
0.4957
0.437259
0.395682
0.37459
0.363722
0.359936
0.359298
0.359472
0.360042
0.360711
0.359748
0.358898
0.360915
0.363153
0.373241
0.395535
0.436315
0.495486
0.190078
0.190749
0.494813
0.437484
0.394777
0.373182
0.364664
0.360291
0.35969
0.359723
0.359798
0.360417
0.359192
0.358701
0.359653
0.362903
0.372683
0.39629
0.439627
0.497218
0.191429
0.19093
0.495025
0.43871
0.395094
0.37256
0.363369
0.360587
0.361268
0.361152
0.359963
0.360544
0.36046
0.359936
0.360835
0.36264
0.372721
0.396092
0.441048
0.496717
0.191088
0.190154
0.491922
0.436881
0.395459
0.374597
0.36582
0.362563
0.360217
0.359765
0.359709
0.359625
0.359441
0.358325
0.359088
0.362542
0.372649
0.395868
0.440363
0.495926
0.189639
0.191761
0.496439
0.439121
0.395377
0.374416
0.364967
0.362588
0.361694
0.360458
0.361106
0.360826
0.358702
0.358231
0.359403
0.362924
0.372922
0.396369
0.440146
0.494912
0.19038
0.192323
0.492198
0.436433
0.395472
0.374499
0.365784
0.362712
0.36141
0.36134
0.360394
0.359686
0.358286
0.358108
0.360583
0.36325
0.373127
0.396292
0.437619
0.492096
0.190417
0.192084
0.49346
0.43753
0.396164
0.373668
0.364095
0.361992
0.360304
0.360704
0.35927
0.35844
0.357828
0.357795
0.359303
0.364406
0.373749
0.39649
0.440321
0.495902
0.191354
0.192155
0.490104
0.438721
0.397176
0.374208
0.36427
0.361189
0.360048
0.360443
0.359394
0.358506
0.357969
0.357902
0.360308
0.36395
0.374189
0.396726
0.438893
0.49636
0.19235
0.193293
0.492251
0.437354
0.398203
0.375757
0.364301
0.362832
0.361213
0.359612
0.360035
0.358784
0.358178
0.358058
0.359185
0.365158
0.373384
0.395882
0.439855
0.495856
0.192718
0.193881
0.495974
0.439773
0.398514
0.374899
0.363804
0.361059
0.359625
0.358867
0.358818
0.359593
0.359708
0.359753
0.359071
0.363736
0.373206
0.395183
0.438097
0.494602
0.192266
0.194209
0.49697
0.440852
0.398668
0.375843
0.363812
0.360358
0.360543
0.358992
0.358604
0.358594
0.35872
0.359193
0.358753
0.361958
0.371543
0.39466
0.437564
0.49431
0.192189
0.193569
0.493241
0.441416
0.398509
0.373843
0.363831
0.361222
0.359311
0.358828
0.358632
0.358695
0.359549
0.358634
0.358738
0.361831
0.371671
0.394629
0.437628
0.490552
0.190447
0.193317
0.496135
0.442139
0.397626
0.373618
0.364143
0.360093
0.360401
0.360215
0.359746
0.358517
0.358433
0.359632
0.359258
0.362308
0.372016
0.394583
0.437271
0.490924
0.190394
0.193018
0.495898
0.441405
0.397041
0.37337
0.363684
0.359955
0.358945
0.358681
0.358473
0.3583
0.358263
0.358855
0.360583
0.36404
0.372552
0.394454
0.43649
0.489052
0.189969
0.191581
0.4915
0.438468
0.396436
0.373753
0.365902
0.361832
0.359119
0.358559
0.358467
0.358491
0.358405
0.358398
0.359396
0.363129
0.373186
0.394437
0.435389
0.489755
0.189751
0.190607
0.491227
0.43763
0.395878
0.373537
0.365355
0.360685
0.359188
0.358672
0.358655
0.35901
0.360228
0.360565
0.361528
0.363763
0.374006
0.395097
0.436232
0.490465
0.189898
0.190092
0.488206
0.436128
0.395009
0.37364
0.36539
0.36247
0.359458
0.358833
0.358774
0.359058
0.360079
0.360399
0.361549
0.364238
0.373954
0.395476
0.434391
0.488315
0.189217
0.190258
0.490491
0.43584
0.394794
0.374347
0.363938
0.361787
0.359519
0.359075
0.35901
0.359307
0.360246
0.360698
0.361816
0.364516
0.375018
0.395502
0.436599
0.492941
0.190745
0.190512
0.488735
0.435556
0.394069
0.372269
0.363392
0.36059
0.359463
0.359311
0.359324
0.359486
0.359815
0.360304
0.361366
0.364517
0.373631
0.395181
0.437037
0.491785
0.191008
0.190911
0.492041
0.436502
0.393974
0.372634
0.363991
0.362354
0.360482
0.361257
0.36114
0.360377
0.360726
0.361999
0.363265
0.365083
0.374575
0.394974
0.434594
0.49019
0.190554
0.191247
0.491022
0.434867
0.394084
0.3731
0.364387
0.361616
0.361847
0.36157
0.360806
0.360656
0.360673
0.360876
0.362024
0.365196
0.373364
0.393854
0.434745
0.488212
0.189985
0.190453
0.488107
0.435712
0.394883
0.37536
0.367245
0.36407
0.362856
0.362353
0.361426
0.361338
0.361431
0.362582
0.362981
0.366938
0.373529
0.393457
0.434982
0.490604
0.190854
0.190591
0.487969
0.434016
0.39487
0.375291
0.367529
0.364446
0.363565
0.363401
0.363311
0.362487
0.362214
0.362442
0.36428
0.36605
0.374718
0.393438
0.434534
0.48789
0.190603
0.190342
0.486711
0.433615
0.395036
0.37611
0.368674
0.365537
0.36456
0.364316
0.36446
0.363529
0.363187
0.363129
0.364006
0.367702
0.374992
0.39312
0.434008
0.490079
0.190377
0.189533
0.486037
0.432986
0.395987
0.378865
0.370393
0.366746
0.365493
0.365434
0.365658
0.366081
0.366234
0.366162
0.366742
0.368902
0.375264
0.392781
0.433181
0.489995
0.191003
0.189207
0.485019
0.432314
0.396243
0.379599
0.371694
0.367459
0.365891
0.365443
0.365618
0.366613
0.366949
0.366936
0.367293
0.369033
0.375764
0.39207
0.430431
0.485276
0.190089
0.188483
0.483715
0.430692
0.395684
0.380667
0.373859
0.370406
0.368697
0.367931
0.367765
0.368016
0.368346
0.368249
0.367727
0.368446
0.373898
0.391533
0.430032
0.4861
0.189728
0.187611
0.482317
0.428955
0.394255
0.381299
0.375131
0.372149
0.370069
0.369181
0.369082
0.369182
0.369542
0.369997
0.370055
0.369132
0.373647
0.391239
0.428574
0.483083
0.189011
0.186757
0.478393
0.426927
0.393933
0.381847
0.376436
0.373719
0.372027
0.371005
0.370521
0.370447
0.370681
0.370951
0.370367
0.369793
0.373422
0.388301
0.426709
0.48201
0.188106
0.185499
0.477198
0.424342
0.39035
0.381591
0.377592
0.375112
0.373356
0.372181
0.371604
0.371497
0.371776
0.372211
0.372295
0.370507
0.373471
0.38744
0.425095
0.48004
0.186263
0.184212
0.475047
0.42102
0.387404
0.380489
0.378767
0.376651
0.374876
0.373638
0.372962
0.372789
0.373025
0.373435
0.373437
0.371389
0.373768
0.386643
0.423093
0.477658
0.185375
0.183298
0.472906
0.418579
0.385656
0.37781
0.379272
0.378002
0.376449
0.37518
0.374396
0.374134
0.374308
0.374645
0.374466
0.372003
0.373934
0.38573
0.42075
0.475495
0.184396
0.18137
0.468902
0.415184
0.384052
0.377634
0.380029
0.379487
0.378132
0.376848
0.375987
0.375637
0.375718
0.375948
0.375622
0.372861
0.376292
0.385527
0.41778
0.471803
0.18324
0.180223
0.466182
0.411949
0.38326
0.38005
0.381006
0.380982
0.379849
0.378617
0.377743
0.37734
0.377322
0.377347
0.376523
0.372805
0.374281
0.385805
0.414004
0.469853
0.182257
0.178474
0.461869
0.406387
0.38211
0.378077
0.380847
0.382291
0.381606
0.380538
0.379703
0.379263
0.37914
0.378986
0.377834
0.373185
0.371981
0.381027
0.408411
0.465764
0.18037
0.17624
0.456457
0.399965
0.380692
0.376458
0.382587
0.38409
0.38369
0.382775
0.381969
0.381476
0.381207
0.380786
0.379111
0.373641
0.370081
0.378566
0.402802
0.460958
0.177099
0.173041
0.45012
0.396652
0.376869
0.377909
0.383603
0.385805
0.385873
0.385192
0.384457
0.383937
0.383564
0.383
0.381277
0.376829
0.370014
0.375458
0.398514
0.453627
0.172969
0.169473
0.439475
0.386126
0.369517
0.374945
0.383546
0.38744
0.388169
0.387784
0.387145
0.386582
0.386031
0.385154
0.382851
0.376693
0.369694
0.370405
0.389825
0.442578
0.166116
0.165469
0.428461
0.37464
0.362806
0.377358
0.38333
0.38903
0.390403
0.390369
0.389878
0.389294
0.388566
0.387347
0.384609
0.378601
0.369089
0.36454
0.380294
0.428654
0.157153
0.16156
0.419316
0.367453
0.360741
0.374412
0.382449
0.390112
0.392352
0.392778
0.392494
0.391913
0.390991
0.389331
0.385678
0.377213
0.366694
0.358943
0.370587
0.413083
0.14964
0.155045
0.406337
0.363837
0.359335
0.371212
0.382461
0.390927
0.393914
0.394796
0.394746
0.394195
0.393119
0.391155
0.387148
0.378656
0.370196
0.357743
0.360262
0.397652
0.146532
0.146325
0.38795
0.36001
0.359421
0.372633
0.385474
0.391783
0.394761
0.395985
0.396223
0.395724
0.394497
0.392239
0.388318
0.381295
0.370002
0.354114
0.34868
0.380851
0.143481
0.142784
0.368399
0.345178
0.359295
0.376626
0.384596
0.390323
0.393765
0.395478
0.396276
0.395978
0.394505
0.39155
0.387156
0.380394
0.369859
0.355177
0.345319
0.36757
0.146016
0.147214
0.352699
0.342228
0.35899
0.376717
0.386685
0.390588
0.39367
0.3954
0.39592
0.395553
0.394251
0.391731
0.387509
0.381366
0.371633
0.356948
0.339876
0.350937
0.147184
0.149659
0.337194
0.347365
0.362177
0.376718
0.38455
0.390203
0.393321
0.395348
0.395851
0.395585
0.394602
0.392754
0.389447
0.382811
0.374982
0.362968
0.341663
0.338329
0.153449
0.159631
0.332929
0.34868
0.366224
0.37628
0.384576
0.390526
0.392595
0.393326
0.393537
0.393368
0.392725
0.391182
0.388589
0.384196
0.376227
0.367561
0.348249
0.332356
0.165493
0.172463
0.332105
0.352504
0.366831
0.378932
0.38526
0.387813
0.388813
0.389189
0.389346
0.389379
0.389253
0.388593
0.386639
0.382251
0.377237
0.371795
0.356928
0.331981
0.174553
0.184174
0.332478
0.360924
0.373107
0.378225
0.382441
0.3838
0.384106
0.384124
0.384157
0.384267
0.384462
0.384558
0.384128
0.381642
0.378278
0.374963
0.36331
0.336213
0.18872
0.204046
0.342229
0.368758
0.376207
0.379382
0.380339
0.38003
0.379505
0.379117
0.378981
0.379092
0.37946
0.380025
0.380674
0.381081
0.380174
0.37853
0.370298
0.340743
0.20461
0.224323
0.351749
0.377114
0.379825
0.379448
0.37801
0.376634
0.375607
0.374961
0.374691
0.374769
0.375204
0.376004
0.377137
0.378433
0.378994
0.379756
0.378704
0.352785
0.224052
0.244771
0.367168
0.388119
0.383861
0.379891
0.376737
0.374547
0.373119
0.372282
0.371914
0.371949
0.372383
0.373296
0.374786
0.377053
0.380252
0.384119
0.387402
0.366363
0.245451
0.270628
0.389144
0.397698
0.387419
0.380298
0.376132
0.373578
0.372074
0.371274
0.370928
0.370939
0.371299
0.372128
0.373642
0.376199
0.380321
0.387322
0.398022
0.389706
0.27001
0.291315
0.414245
0.406562
0.388919
0.380581
0.376018
0.373457
0.372069
0.37129
0.370958
0.370962
0.371295
0.372082
0.373462
0.376027
0.380584
0.388971
0.406725
0.414368
0.292365
0.315098
0.436904
0.410251
0.389312
0.380079
0.375687
0.373496
0.372359
0.371847
0.371633
0.371639
0.371854
0.372377
0.373497
0.375696
0.380039
0.38922
0.410253
0.43707
0.314657
0.337432
0.446135
0.407473
0.38576
0.378006
0.374973
0.373677
0.373109
0.372869
0.372786
0.372791
0.372883
0.373137
0.3737
0.374987
0.378004
0.385714
0.407395
0.446309
0.33823
0.364736
0.422565
0.386721
0.377546
0.375356
0.3746
0.374335
0.374266
0.374252
0.374249
0.37425
0.37425
0.374267
0.374335
0.374603
0.375358
0.377548
0.386713
0.422591
0.364522
0.541572
1.00024
0.825077
0.675768
0.576994
0.512239
0.470396
0.443263
0.426995
0.418712
0.417261
0.422608
0.436028
0.46036
0.501009
0.566166
0.668447
0.819519
0.988116
0.526129
0.546653
0.99938
0.825118
0.678451
0.581807
0.515553
0.472254
0.443552
0.426848
0.417951
0.416465
0.422112
0.436163
0.4607
0.501706
0.567055
0.669261
0.819726
0.981268
0.528225
0.545259
0.988767
0.825006
0.679085
0.581193
0.51329
0.471781
0.443537
0.426827
0.417936
0.416404
0.421883
0.435885
0.461236
0.503061
0.567169
0.6693
0.819258
0.988944
0.53463
0.542346
0.991057
0.822002
0.67994
0.581346
0.513081
0.471569
0.443519
0.426795
0.417879
0.416367
0.421683
0.43554
0.460347
0.501701
0.568281
0.66936
0.817815
0.987272
0.526637
0.545001
0.987262
0.825008
0.681071
0.579676
0.513125
0.470513
0.443537
0.426763
0.418087
0.416188
0.42115
0.435396
0.461067
0.502821
0.567936
0.667942
0.811452
0.97558
0.533284
0.538573
0.989261
0.82264
0.681396
0.579881
0.513096
0.470382
0.443357
0.426668
0.417913
0.415613
0.420873
0.435255
0.46067
0.502513
0.568382
0.669368
0.816575
0.983556
0.527313
0.541344
0.995767
0.826677
0.683326
0.580787
0.513568
0.470402
0.443481
0.426175
0.417684
0.415868
0.420794
0.434999
0.460185
0.50212
0.569667
0.669218
0.822263
0.994412
0.521165
0.546857
0.991262
0.829117
0.682123
0.581122
0.515121
0.470592
0.443027
0.425913
0.41747
0.415697
0.420922
0.434895
0.460308
0.502299
0.57098
0.671193
0.823245
0.995517
0.520907
0.540526
1.00316
0.827503
0.682632
0.583254
0.512689
0.469261
0.442288
0.425504
0.416742
0.414908
0.420445
0.434918
0.460671
0.502497
0.571046
0.672275
0.82231
0.994253
0.522605
0.542969
0.999786
0.829042
0.680181
0.579027
0.512357
0.468986
0.441811
0.425414
0.417007
0.415168
0.420861
0.434834
0.461063
0.502534
0.570973
0.673159
0.822098
0.994316
0.523382
0.548414
0.989662
0.822811
0.677066
0.579086
0.513837
0.469051
0.441855
0.425262
0.416922
0.415297
0.420462
0.43459
0.460424
0.50307
0.568826
0.672434
0.819794
0.990745
0.527626
0.538864
0.99171
0.822021
0.675003
0.573959
0.509378
0.468697
0.441196
0.424594
0.416191
0.415045
0.420341
0.434477
0.459471
0.500782
0.568435
0.671185
0.815313
0.985413
0.522426
0.540654
0.987628
0.820359
0.6747
0.574664
0.509672
0.467659
0.440807
0.424576
0.416261
0.414781
0.420107
0.4346
0.459558
0.500297
0.56788
0.669209
0.818215
0.997519
0.522745
0.545368
0.985405
0.82007
0.675144
0.576281
0.512348
0.468215
0.441075
0.424605
0.416166
0.414674
0.419974
0.434388
0.460424
0.500026
0.566867
0.667852
0.819664
0.995916
0.525546
0.527595
0.983857
0.822176
0.675463
0.577785
0.512453
0.468562
0.441005
0.4246
0.415578
0.414199
0.420101
0.434075
0.459283
0.499381
0.564311
0.665217
0.811426
0.992107
0.521996
0.520281
0.983388
0.820784
0.675717
0.578685
0.513549
0.469863
0.44126
0.424826
0.416129
0.415007
0.420204
0.433819
0.460323
0.500472
0.561426
0.663178
0.808789
0.977068
0.517534
0.520836
0.983295
0.816534
0.676862
0.579951
0.51437
0.470283
0.441617
0.425029
0.41679
0.415188
0.420149
0.433261
0.458514
0.497535
0.560594
0.662415
0.805453
0.975578
0.517967
0.520264
0.985626
0.819069
0.678474
0.580871
0.51518
0.47151
0.442238
0.425213
0.417012
0.415319
0.420138
0.432992
0.457005
0.497102
0.559664
0.659161
0.802443
0.971432
0.513567
0.521252
0.973434
0.822025
0.679505
0.582488
0.516491
0.472428
0.443328
0.42626
0.417252
0.414948
0.419795
0.433042
0.456433
0.495439
0.559603
0.658674
0.803376
0.975119
0.519894
0.522103
0.984091
0.820414
0.680953
0.586655
0.519765
0.473524
0.443843
0.426428
0.416851
0.415281
0.420049
0.433082
0.45677
0.495799
0.558711
0.658099
0.799603
0.966741
0.515579
0.526155
0.992356
0.827504
0.683897
0.587445
0.52098
0.474639
0.444266
0.426629
0.417284
0.414973
0.42031
0.433252
0.457022
0.496205
0.560135
0.658098
0.802106
0.977761
0.516989
0.528154
0.979657
0.826224
0.683933
0.589335
0.522341
0.475313
0.444811
0.426849
0.41684
0.415244
0.420455
0.433615
0.458082
0.497884
0.560882
0.658037
0.803156
0.985539
0.523889
0.528245
0.986967
0.823428
0.683222
0.585889
0.521177
0.475691
0.445489
0.426809
0.417398
0.415586
0.420547
0.433594
0.457772
0.49767
0.561797
0.659134
0.806673
0.973663
0.520737
0.528221
0.995972
0.830756
0.683698
0.587584
0.519504
0.475241
0.445626
0.427522
0.417854
0.415592
0.420213
0.433637
0.458001
0.498152
0.563678
0.658223
0.800867
0.980102
0.516725
0.52403
0.99476
0.829883
0.683131
0.583967
0.520438
0.475124
0.445374
0.427009
0.418005
0.415817
0.420498
0.433893
0.458369
0.498588
0.564684
0.659995
0.805986
0.979562
0.521085
0.523593
0.98643
0.828665
0.682983
0.585194
0.516983
0.473476
0.444841
0.42682
0.417142
0.415005
0.420288
0.433748
0.45898
0.498759
0.564837
0.660881
0.799862
0.966638
0.514246
0.525612
0.998861
0.828077
0.681956
0.580345
0.518099
0.473628
0.444651
0.426442
0.416771
0.414567
0.419653
0.433467
0.458153
0.498876
0.564122
0.661381
0.803135
0.970639
0.517399
0.528822
0.999261
0.824417
0.682487
0.578471
0.514934
0.472583
0.444315
0.425365
0.416076
0.413881
0.419375
0.433455
0.45854
0.498976
0.565671
0.661783
0.80653
0.971158
0.519501
0.529681
0.986492
0.826013
0.67986
0.576934
0.516506
0.47285
0.443486
0.424435
0.414708
0.41283
0.418428
0.43276
0.45753
0.499707
0.563551
0.662453
0.80485
0.972849
0.526648
0.528961
0.996368
0.821443
0.678445
0.575532
0.512736
0.473619
0.442605
0.423596
0.414274
0.412541
0.418235
0.432533
0.458229
0.498572
0.563819
0.663099
0.802697
0.980424
0.517265
0.531286
0.991961
0.820635
0.674091
0.574131
0.512071
0.471985
0.441446
0.423044
0.414189
0.412852
0.41838
0.432202
0.457659
0.498604
0.563916
0.663347
0.80531
0.98145
0.516749
0.525236
0.996696
0.8203
0.674667
0.574127
0.514053
0.471501
0.440762
0.423361
0.414716
0.412563
0.4181
0.432146
0.457417
0.500279
0.565598
0.663452
0.80978
0.981631
0.518569
0.528921
0.994121
0.820047
0.672727
0.573658
0.511543
0.470056
0.440188
0.423241
0.414814
0.41329
0.418679
0.432266
0.458016
0.500127
0.565101
0.663868
0.813346
0.979236
0.518684
0.52119
0.991219
0.814294
0.672244
0.573925
0.513873
0.469652
0.44016
0.422783
0.414521
0.41281
0.418336
0.432275
0.457365
0.499731
0.564383
0.661823
0.809662
0.995171
0.522551
0.520196
0.989663
0.815391
0.673483
0.574581
0.511353
0.468119
0.44008
0.423316
0.414916
0.413405
0.418696
0.432454
0.45772
0.498455
0.562341
0.661436
0.814554
0.993741
0.527811
0.520479
0.986874
0.813623
0.672888
0.572577
0.513147
0.466944
0.440037
0.423279
0.414496
0.413054
0.418977
0.432571
0.457121
0.499801
0.562929
0.661546
0.81301
0.991562
0.524101
0.520223
0.984557
0.813412
0.673365
0.572876
0.509473
0.466216
0.440208
0.42373
0.415449
0.414004
0.419531
0.433038
0.45721
0.497948
0.560956
0.661402
0.810681
0.986407
0.518259
0.521406
0.972289
0.81116
0.671909
0.570478
0.506115
0.46579
0.440527
0.424484
0.416483
0.415033
0.420164
0.433582
0.458202
0.49732
0.561865
0.661423
0.808709
0.984641
0.518967
0.526188
0.982818
0.811355
0.672044
0.567885
0.505062
0.465796
0.440575
0.425015
0.417288
0.415871
0.420819
0.433939
0.458452
0.497753
0.561064
0.66033
0.802733
0.983612
0.525643
0.51657
0.990609
0.810138
0.668573
0.567358
0.505357
0.465955
0.440697
0.42498
0.417271
0.415571
0.420803
0.434234
0.45878
0.499131
0.561576
0.659533
0.804309
0.980759
0.517866
0.517595
0.980606
0.80937
0.66551
0.567302
0.505894
0.466289
0.440531
0.42462
0.417193
0.415973
0.421178
0.434525
0.458724
0.497009
0.559776
0.658761
0.803192
0.971472
0.518127
0.521308
0.990426
0.808615
0.666172
0.567736
0.508036
0.467542
0.441055
0.424894
0.417002
0.415617
0.42122
0.434765
0.459139
0.497371
0.560106
0.658662
0.802164
0.974951
0.526215
0.51364
0.989
0.808666
0.664282
0.567431
0.505577
0.46576
0.440444
0.424384
0.416762
0.415858
0.421529
0.434954
0.459237
0.497461
0.560023
0.658206
0.801689
0.973838
0.524916
0.512344
0.987121
0.811217
0.663647
0.567445
0.506157
0.466048
0.440433
0.424066
0.416238
0.415146
0.42134
0.434979
0.458983
0.498071
0.561206
0.658729
0.801666
0.974605
0.527278
0.513233
0.985051
0.810097
0.663642
0.57007
0.507341
0.46647
0.440132
0.423677
0.415465
0.414902
0.421036
0.435009
0.459465
0.498541
0.562258
0.659234
0.804896
0.97966
0.525727
0.511783
0.972455
0.808123
0.663555
0.568414
0.509362
0.466455
0.439872
0.42337
0.415344
0.414758
0.421101
0.435307
0.460581
0.500287
0.561644
0.659654
0.800817
0.973759
0.522698
0.513989
0.971933
0.807174
0.663661
0.568586
0.506685
0.465902
0.439409
0.422906
0.415051
0.414718
0.420981
0.435247
0.460588
0.499289
0.562027
0.660253
0.805518
0.984528
0.529404
0.518412
0.971797
0.803618
0.664675
0.57197
0.509215
0.466432
0.439244
0.422939
0.415233
0.414572
0.420806
0.435013
0.460455
0.499916
0.564666
0.661527
0.800406
0.981719
0.520099
0.52011
0.971143
0.807103
0.664932
0.570408
0.506444
0.467093
0.439178
0.422769
0.414939
0.413862
0.420417
0.43504
0.459776
0.501513
0.564542
0.66292
0.804328
0.977749
0.527857
0.521704
0.972319
0.805449
0.664983
0.57246
0.506028
0.46546
0.438448
0.422237
0.414448
0.413859
0.420364
0.434954
0.459872
0.500619
0.566251
0.662394
0.808021
0.989164
0.52478
0.520827
0.978411
0.807298
0.664553
0.571274
0.505974
0.466903
0.438624
0.42248
0.414833
0.414093
0.420281
0.434933
0.4603
0.501056
0.564525
0.662081
0.803786
0.987808
0.53003
0.517707
0.977146
0.807971
0.664771
0.568408
0.505495
0.465632
0.438353
0.422487
0.414769
0.41399
0.419969
0.434853
0.460808
0.503538
0.567006
0.662696
0.809019
0.988314
0.522878
0.518343
0.965918
0.807224
0.66569
0.571284
0.506161
0.465308
0.438401
0.42254
0.414268
0.413855
0.420039
0.434758
0.461751
0.503033
0.565449
0.661443
0.807143
0.98624
0.529142
0.526211
0.97225
0.806875
0.666542
0.569468
0.50639
0.465541
0.438665
0.422629
0.414705
0.413896
0.419967
0.434606
0.461193
0.504477
0.567314
0.66107
0.804763
0.984347
0.52119
0.520058
0.978221
0.806569
0.664424
0.570027
0.508782
0.467003
0.439011
0.422699
0.414643
0.413679
0.419473
0.434308
0.460097
0.50204
0.563252
0.66045
0.806159
0.981957
0.510756
0.513764
0.974931
0.802567
0.664466
0.573079
0.507762
0.467362
0.439211
0.422593
0.413916
0.413029
0.419209
0.433866
0.460374
0.504573
0.563562
0.661353
0.802318
0.976848
0.508355
0.512915
0.967221
0.803123
0.664132
0.572627
0.508042
0.467471
0.439259
0.422595
0.414023
0.413149
0.419019
0.433208
0.458025
0.499765
0.563668
0.658735
0.803152
0.972193
0.508842
0.520049
0.97471
0.801383
0.665869
0.57332
0.510103
0.467538
0.43917
0.422126
0.414055
0.412995
0.418814
0.432591
0.45808
0.49668
0.557904
0.658023
0.801631
0.973621
0.509801
0.522722
0.96906
0.803323
0.664695
0.572034
0.508455
0.4667
0.439068
0.422195
0.413407
0.412651
0.418343
0.431626
0.455892
0.496064
0.55429
0.653065
0.796674
0.972204
0.510288
0.530897
0.975569
0.805048
0.664718
0.574838
0.50878
0.467538
0.438991
0.422057
0.413745
0.412498
0.41805
0.431367
0.456166
0.496947
0.551984
0.651851
0.792253
0.97338
0.51138
0.52989
0.964876
0.802908
0.664048
0.570305
0.507903
0.466268
0.438688
0.421257
0.412867
0.412036
0.417737
0.430883
0.45403
0.49558
0.550275
0.645362
0.788994
0.970849
0.516786
0.526795
0.965219
0.800847
0.664162
0.570907
0.50832
0.466439
0.438767
0.421354
0.412669
0.411395
0.417443
0.430752
0.453218
0.494337
0.548881
0.64163
0.783228
0.958525
0.503047
0.529948
0.964484
0.800584
0.666256
0.571336
0.508518
0.46659
0.438434
0.421019
0.412206
0.411146
0.416996
0.43113
0.452421
0.491375
0.548986
0.64188
0.779853
0.96035
0.502131
0.51707
0.962848
0.79804
0.660872
0.57468
0.509037
0.467711
0.438627
0.421398
0.412531
0.41121
0.416667
0.430166
0.451619
0.488585
0.550674
0.638193
0.776439
0.957315
0.507653
0.520921
0.966603
0.79591
0.660484
0.571884
0.508995
0.466919
0.438793
0.42205
0.413346
0.411777
0.416879
0.429926
0.451614
0.489585
0.545951
0.634354