/*--------------------------------*- C++ -*----------------------------------*\
  =========                 |
  \\      /  F ield         | OpenFOAM: The Open Source CFD Toolbox
   \\    /   O peration     | Website:  https://openfoam.org
    \\  /    A nd           | Version:  6
     \\/     M anipulation  |
\*---------------------------------------------------------------------------*/
FoamFile
{
    version     2.0;
    format      ascii;
    class       volScalarField;
    location    "12";
    object      k;
}
// * * * * * * * * * * * * * * * * * * * * * * * * * * * * * * * * * * * * * //

dimensions      [0 2 -2 0 0 0 0];

internalField   nonuniform List<scalar> 
130000
(
0.39667
0.395811
0.394047
0.391492
0.38825
0.384468
0.380314
0.375966
0.371593
0.367347
0.363352
0.359702
0.356455
0.353645
0.351276
0.349334
0.34779
0.346608
0.345749
0.345173
0.396988
0.396159
0.394407
0.391846
0.388587
0.384777
0.380592
0.376211
0.371808
0.367536
0.36352
0.359854
0.356596
0.353779
0.351405
0.349461
0.347918
0.346739
0.345884
0.345315
0.397261
0.396458
0.394718
0.392154
0.38888
0.385048
0.380835
0.376425
0.371992
0.367691
0.363649
0.35996
0.356684
0.35385
0.351462
0.349508
0.347959
0.346777
0.345923
0.345355
0.397474
0.396687
0.394953
0.392385
0.389096
0.385242
0.381001
0.376561
0.3721
0.367773
0.363708
0.36
0.356709
0.353863
0.351466
0.349505
0.347952
0.346768
0.345913
0.345347
0.397621
0.396839
0.395102
0.392522
0.389213
0.385332
0.381067
0.376606
0.372127
0.367785
0.363707
0.359989
0.356692
0.353843
0.351447
0.349487
0.347934
0.346752
0.3459
0.345339
0.397715
0.396924
0.395174
0.392573
0.389242
0.385341
0.381059
0.376584
0.372095
0.367746
0.363666
0.359948
0.356651
0.353804
0.351411
0.349455
0.347907
0.34673
0.345883
0.345328
0.397777
0.396966
0.395193
0.392568
0.389218
0.385304
0.381009
0.376525
0.372028
0.367677
0.363598
0.359882
0.35659
0.353749
0.351362
0.349413
0.347872
0.346702
0.345861
0.345311
0.397822
0.396988
0.395189
0.392543
0.389172
0.385241
0.380933
0.376439
0.371938
0.367586
0.363509
0.359799
0.356514
0.353682
0.351304
0.349364
0.347832
0.346669
0.345835
0.345289
0.397867
0.397009
0.395185
0.392511
0.389116
0.385165
0.380842
0.376339
0.371833
0.367482
0.363409
0.359706
0.35643
0.353608
0.351241
0.349312
0.347789
0.346634
0.345807
0.345268
0.397915
0.397031
0.39518
0.392478
0.389058
0.385085
0.380747
0.376233
0.371723
0.367372
0.363304
0.359609
0.356343
0.353531
0.351176
0.349257
0.347745
0.3466
0.345781
0.345249
0.397971
0.397059
0.395177
0.392448
0.389002
0.385007
0.380652
0.376128
0.371613
0.367262
0.363198
0.359511
0.356255
0.353455
0.351111
0.349204
0.347702
0.346566
0.345755
0.345229
0.398035
0.397097
0.395185
0.392429
0.388954
0.384936
0.380563
0.376026
0.371505
0.367154
0.363095
0.359415
0.356169
0.35338
0.351048
0.349152
0.347662
0.346536
0.345733
0.345211
0.398109
0.397145
0.395205
0.392421
0.388917
0.384874
0.380481
0.375932
0.371404
0.367052
0.362996
0.359323
0.356086
0.353308
0.350987
0.349103
0.347623
0.346507
0.345713
0.345199
0.398195
0.397205
0.395236
0.392421
0.38889
0.384822
0.380409
0.375846
0.371311
0.366956
0.362902
0.359236
0.356008
0.35324
0.35093
0.349056
0.347586
0.346479
0.345693
0.345185
0.398293
0.397278
0.395278
0.392432
0.388878
0.384782
0.380349
0.37577
0.371226
0.366868
0.362816
0.359155
0.355934
0.353176
0.350876
0.349013
0.347552
0.346454
0.345674
0.345173
0.398405
0.397367
0.395337
0.392459
0.388875
0.384756
0.380301
0.375706
0.371152
0.366789
0.362738
0.359081
0.355868
0.353118
0.350828
0.348975
0.347523
0.346434
0.345664
0.34517
0.398534
0.397472
0.395412
0.392501
0.388885
0.384745
0.380266
0.375654
0.371088
0.366721
0.362669
0.359015
0.355809
0.353068
0.350787
0.348942
0.3475
0.346418
0.345655
0.345166
0.398681
0.397595
0.395505
0.392561
0.388913
0.384744
0.380245
0.375615
0.371037
0.366663
0.36261
0.358959
0.355758
0.353025
0.350753
0.348917
0.347481
0.346404
0.345643
0.345158
0.398849
0.397738
0.395616
0.392637
0.388955
0.384755
0.380237
0.375588
0.370997
0.366615
0.36256
0.358912
0.355717
0.352991
0.350727
0.3489
0.347472
0.346403
0.345644
0.345156
0.399034
0.397898
0.395744
0.392731
0.389013
0.384781
0.380237
0.375572
0.370967
0.366578
0.362521
0.358874
0.355684
0.352966
0.350711
0.348893
0.347471
0.346402
0.345644
0.345156
0.399235
0.398076
0.39589
0.39284
0.389086
0.384821
0.380247
0.375565
0.370947
0.36655
0.362489
0.358844
0.355659
0.352948
0.350701
0.348887
0.347466
0.346397
0.345644
0.345164
0.399453
0.39827
0.396051
0.392965
0.389175
0.384875
0.380272
0.375566
0.370937
0.36653
0.362464
0.35882
0.355638
0.352933
0.350692
0.348879
0.347467
0.34641
0.345666
0.345193
0.399688
0.398482
0.39623
0.393107
0.389279
0.384944
0.38031
0.375579
0.370933
0.366515
0.362445
0.3588
0.355622
0.352922
0.35069
0.34889
0.347485
0.346435
0.345697
0.345229
0.399941
0.398711
0.396426
0.393264
0.389397
0.385025
0.380359
0.375602
0.370934
0.366507
0.362431
0.358784
0.355608
0.352915
0.350693
0.348905
0.34751
0.346466
0.345733
0.345269
0.400212
0.398959
0.39664
0.393438
0.38953
0.38512
0.38042
0.375635
0.370947
0.366508
0.362423
0.35877
0.355593
0.352902
0.350685
0.34891
0.34753
0.346495
0.34577
0.345313
0.400503
0.399226
0.396872
0.393629
0.389679
0.385228
0.380492
0.375677
0.370967
0.366511
0.362418
0.358761
0.355583
0.352895
0.350681
0.34891
0.34754
0.346517
0.345802
0.34535
0.400814
0.399513
0.397122
0.393837
0.389843
0.38535
0.380576
0.375729
0.370992
0.366517
0.362414
0.358752
0.355573
0.352886
0.350674
0.348904
0.347534
0.346517
0.345807
0.345358
0.401145
0.399819
0.397391
0.394063
0.390022
0.385485
0.380672
0.375792
0.371028
0.366531
0.362413
0.358746
0.355563
0.352874
0.350665
0.348896
0.347525
0.346512
0.345804
0.345358
0.401494
0.400144
0.397679
0.394306
0.390218
0.385636
0.380781
0.375865
0.371073
0.366555
0.362423
0.35875
0.355562
0.352869
0.350661
0.348894
0.347528
0.346515
0.345808
0.345363
0.401863
0.400489
0.397986
0.394567
0.390431
0.385801
0.380904
0.375951
0.371128
0.366587
0.362438
0.358753
0.355562
0.352865
0.350652
0.348889
0.347531
0.346522
0.34582
0.345381
0.40225
0.400854
0.398313
0.394848
0.390662
0.385984
0.381041
0.376049
0.371194
0.366628
0.362459
0.35876
0.355565
0.352868
0.350656
0.348895
0.347537
0.346537
0.345838
0.345403
0.40266
0.401241
0.398663
0.39515
0.390913
0.386184
0.381195
0.376162
0.371273
0.366679
0.362489
0.358774
0.355568
0.352868
0.350656
0.348898
0.347541
0.346536
0.345832
0.345398
0.403092
0.401653
0.399036
0.395475
0.391186
0.386404
0.381367
0.376291
0.371366
0.366742
0.362529
0.358795
0.355574
0.352866
0.350651
0.348895
0.347538
0.34653
0.345829
0.345399
0.403549
0.402091
0.399436
0.395825
0.391482
0.386647
0.381559
0.376439
0.371476
0.366821
0.362584
0.358832
0.355595
0.352877
0.350655
0.348891
0.347532
0.34653
0.345838
0.345412
0.404035
0.402558
0.399865
0.396204
0.391805
0.386914
0.381774
0.376608
0.371605
0.366919
0.362656
0.358884
0.355633
0.352903
0.35067
0.348896
0.347533
0.346533
0.345838
0.345406
0.404551
0.403056
0.400325
0.396613
0.392157
0.387209
0.382014
0.376799
0.371756
0.367036
0.362746
0.358955
0.355689
0.352948
0.350706
0.348926
0.347556
0.346546
0.345845
0.345408
0.4051
0.403589
0.400819
0.397055
0.39254
0.387532
0.382281
0.377016
0.371929
0.367174
0.362858
0.359045
0.355764
0.353013
0.350764
0.348978
0.347604
0.34659
0.345884
0.345442
0.405685
0.40416
0.401352
0.397534
0.392958
0.387888
0.382578
0.37726
0.372128
0.367336
0.362991
0.359157
0.355861
0.353098
0.350842
0.349051
0.347673
0.346655
0.345946
0.345499
0.406311
0.404773
0.401925
0.398052
0.393414
0.388279
0.382907
0.377534
0.372355
0.367524
0.363148
0.35929
0.355977
0.353203
0.35094
0.349143
0.347761
0.34674
0.346027
0.345576
0.406979
0.40543
0.402544
0.398615
0.393911
0.388709
0.383273
0.377841
0.372611
0.367739
0.36333
0.359448
0.356116
0.353329
0.351057
0.349254
0.347867
0.346842
0.346125
0.345668
0.407694
0.406136
0.403211
0.399225
0.394453
0.389181
0.383677
0.378183
0.3729
0.367984
0.363539
0.35963
0.356278
0.353477
0.351194
0.349383
0.347991
0.346961
0.346238
0.345775
0.408461
0.406896
0.403933
0.399886
0.395045
0.389699
0.384124
0.378565
0.373226
0.368262
0.363779
0.35984
0.356466
0.353648
0.351353
0.349534
0.348134
0.347097
0.346368
0.345898
0.409284
0.407715
0.404713
0.400605
0.39569
0.390268
0.384618
0.378991
0.373591
0.368576
0.364052
0.360081
0.356682
0.353846
0.351537
0.349707
0.348299
0.347254
0.346518
0.346039
0.410167
0.408597
0.405556
0.401386
0.396396
0.390892
0.385164
0.379463
0.374
0.36893
0.364362
0.360356
0.35693
0.354073
0.351748
0.349906
0.348488
0.347435
0.34669
0.346202
0.411118
0.409549
0.406471
0.402236
0.397166
0.391578
0.385766
0.379989
0.374457
0.36933
0.364714
0.360669
0.357214
0.354334
0.351992
0.350136
0.348707
0.347644
0.346888
0.346389
0.412141
0.410578
0.407462
0.403161
0.398009
0.392332
0.386433
0.380574
0.374969
0.369779
0.365112
0.361026
0.357538
0.354633
0.352271
0.350401
0.348958
0.347883
0.347116
0.346606
0.413245
0.411692
0.408539
0.40417
0.398932
0.393162
0.38717
0.381224
0.375541
0.370285
0.365562
0.361431
0.357908
0.354975
0.352592
0.350704
0.349247
0.348159
0.347379
0.346855
0.414436
0.412899
0.40971
0.405271
0.399943
0.394075
0.387985
0.381947
0.376182
0.370854
0.366071
0.361892
0.35833
0.355367
0.35296
0.351052
0.349579
0.348476
0.347681
0.347141
0.415726
0.414209
0.410985
0.406475
0.401054
0.395083
0.388889
0.382753
0.376899
0.371495
0.366648
0.362416
0.358811
0.355815
0.353381
0.351452
0.34996
0.348839
0.348027
0.34747
0.417125
0.415635
0.412378
0.407794
0.402275
0.396195
0.389891
0.383651
0.377703
0.372216
0.3673
0.363011
0.35936
0.356327
0.353864
0.35191
0.350397
0.349258
0.348426
0.347848
0.418645
0.417189
0.413901
0.409241
0.403619
0.397425
0.391005
0.384653
0.378604
0.37303
0.368039
0.363688
0.359987
0.356914
0.354418
0.352437
0.350901
0.349739
0.348886
0.348285
0.420301
0.418886
0.415568
0.41083
0.405101
0.398786
0.392243
0.385773
0.379617
0.373948
0.368876
0.364459
0.360704
0.357586
0.355054
0.353043
0.35148
0.350294
0.349416
0.348789
0.422103
0.420739
0.417394
0.412577
0.406738
0.400296
0.393621
0.387027
0.380755
0.374985
0.369827
0.365337
0.361523
0.358357
0.355786
0.353742
0.352149
0.350935
0.350029
0.349372
0.424067
0.422766
0.4194
0.414502
0.408547
0.401972
0.395159
0.388431
0.382037
0.376159
0.370908
0.366341
0.362462
0.359244
0.356629
0.354548
0.352922
0.351677
0.350739
0.350048
0.426213
0.424989
0.421606
0.416627
0.410553
0.403837
0.396879
0.390009
0.383485
0.37749
0.37214
0.367488
0.363541
0.360265
0.357603
0.35548
0.353818
0.352536
0.351562
0.350832
0.428562
0.42743
0.424037
0.418979
0.41278
0.405918
0.398806
0.391786
0.385123
0.379004
0.373547
0.368805
0.364782
0.361444
0.358729
0.356561
0.354857
0.353535
0.352519
0.351744
0.431139
0.430118
0.426724
0.421587
0.415261
0.408246
0.400971
0.393793
0.386981
0.380731
0.375158
0.370319
0.366215
0.362808
0.360036
0.357817
0.356066
0.354699
0.353635
0.352809
0.433973
0.433086
0.429702
0.424489
0.418032
0.410857
0.403412
0.396065
0.389097
0.382705
0.377009
0.372065
0.367873
0.364393
0.361556
0.359281
0.357478
0.356058
0.35494
0.354053
0.437097
0.436371
0.433011
0.427726
0.421137
0.413796
0.406173
0.398648
0.391513
0.38497
0.379143
0.374087
0.369799
0.366237
0.363331
0.360994
0.359131
0.357652
0.35647
0.355514
0.440551
0.440018
0.436699
0.431349
0.424628
0.417116
0.409306
0.401594
0.394282
0.38758
0.381612
0.376435
0.372044
0.368394
0.365411
0.363004
0.361073
0.359526
0.358271
0.357234
0.444381
0.444079
0.440824
0.435419
0.428566
0.42088
0.412876
0.404969
0.39747
0.390598
0.384481
0.379174
0.374671
0.370926
0.367858
0.365372
0.363365
0.361739
0.360399
0.359266
0.448642
0.448617
0.445454
0.440007
0.433028
0.425165
0.416961
0.40885
0.401157
0.394106
0.387829
0.382383
0.377761
0.373911
0.370748
0.368175
0.366081
0.364363
0.362923
0.361678
0.453403
0.453702
0.450668
0.445201
0.438104
0.430067
0.421659
0.413338
0.40544
0.398201
0.391757
0.386163
0.381412
0.377447
0.374181
0.371507
0.369313
0.36749
0.365932
0.364553
0.458743
0.45943
0.456571
0.45111
0.44391
0.435702
0.42709
0.418553
0.410445
0.403011
0.396389
0.390639
0.385748
0.381659
0.378277
0.375491
0.373181
0.371232
0.369534
0.367995
0.464751
0.465909
0.463284
0.457866
0.450583
0.442216
0.433404
0.424651
0.416329
0.408692
0.401886
0.39597
0.390931
0.386706
0.383194
0.380279
0.377834
0.375737
0.373872
0.372139
0.471543
0.473275
0.470958
0.465634
0.458301
0.449794
0.440791
0.431826
0.42329
0.415448
0.408452
0.402363
0.397165
0.392791
0.389134
0.386071
0.383466
0.381192
0.379123
0.377154
0.479258
0.481692
0.479783
0.47462
0.467283
0.458668
0.449495
0.440331
0.431586
0.42354
0.416351
0.410083
0.404716
0.400179
0.396358
0.393123
0.390329
0.387839
0.385521
0.383262
0.488068
0.491367
0.489994
0.485085
0.477812
0.469136
0.459828
0.450488
0.44155
0.43331
0.425931
0.41948
0.413936
0.40922
0.405213
0.401775
0.398751
0.395998
0.393371
0.39075
0.498188
0.502561
0.501891
0.497363
0.490248
0.481584
0.472196
0.462722
0.453622
0.445206
0.437649
0.431018
0.425288
0.420377
0.416156
0.412476
0.409173
0.406091
0.403077
0.399999
0.509889
0.515603
0.515857
0.511879
0.505058
0.496514
0.487131
0.477589
0.468378
0.459826
0.452114
0.445312
0.439394
0.434269
0.429801
0.425829
0.422179
0.418683
0.415177
0.411516
0.523513
0.530917
0.532376
0.529184
0.522847
0.514579
0.505329
0.495824
0.486586
0.47796
0.470137
0.463189
0.457086
0.451731
0.446975
0.442649
0.438564
0.43454
0.430401
0.425989
0.539474
0.549103
0.552026
0.54998
0.544402
0.536633
0.527704
0.518394
0.509256
0.500658
0.492799
0.485751
0.479479
0.473879
0.46879
0.464029
0.459395
0.454694
0.449733
0.444344
0.558354
0.570841
0.575742
0.575225
0.570754
0.56379
0.555445
0.546555
0.537709
0.529293
0.521514
0.514445
0.508042
0.502192
0.496719
0.491428
0.486101
0.480529
0.474503
0.467835
0.58085
0.597027
0.604534
0.606082
0.603197
0.597456
0.59006
0.581906
0.573621
0.565609
0.558084
0.551116
0.544652
0.538565
0.532665
0.526737
0.520547
0.513865
0.506462
0.49813
0.607847
0.628769
0.639746
0.643905
0.64332
0.639367
0.633403
0.626404
0.619037
0.611729
0.604698
0.598009
0.591597
0.585319
0.578963
0.572296
0.565057
0.556995
0.547849
0.537379
0.640501
0.66749
0.683181
0.690772
0.693127
0.691609
0.687659
0.682324
0.676315
0.670081
0.663846
0.657668
0.651469
0.645085
0.638282
0.6308
0.622346
0.61263
0.601348
0.588211
0.680265
0.714859
0.736605
0.748719
0.754645
0.756473
0.755226
0.752136
0.747978
0.743232
0.738131
0.732733
0.726945
0.720587
0.713397
0.705079
0.695298
0.683707
0.669935
0.653611
0.728861
0.772967
0.802303
0.820434
0.83082
0.836543
0.8386
0.838329
0.836508
0.833653
0.830015
0.825664
0.820502
0.814335
0.806869
0.79777
0.786641
0.773059
0.756551
0.736624
0.788309
0.844101
0.882609
0.908016
0.924176
0.933974
0.939921
0.943161
0.944134
0.943511
0.941605
0.938523
0.93418
0.928375
0.920786
0.911029
0.898633
0.883079
0.863756
0.839998
0.860866
0.930692
0.980114
1.01404
1.03702
1.05236
1.06229
1.06875
1.07278
1.07455
1.07452
1.07284
1.06945
1.06416
1.05661
1.04636
1.03287
1.01549
0.993443
0.965846
0.948895
1.03509
1.09705
1.14061
1.17113
1.19241
1.20713
1.21713
1.22374
1.22794
1.22977
1.22951
1.22714
1.22247
1.21512
1.20459
1.19022
1.17126
1.14674
1.1155
1.05471
1.15944
1.23532
1.28938
1.32794
1.35542
1.37491
1.38861
1.39799
1.40408
1.40758
1.40864
1.40725
1.40325
1.39623
1.38562
1.37067
1.35047
1.32384
1.28935
1.18037
1.30543
1.39628
1.46137
1.50813
1.54171
1.56573
1.58275
1.59459
1.60249
1.60718
1.60911
1.60851
1.6052
1.59859
1.58812
1.57293
1.55194
1.52376
1.48663
1.32747
1.47408
1.58045
1.65662
1.71128
1.7504
1.77821
1.79777
1.81122
1.82014
1.82549
1.82783
1.82758
1.82481
1.81869
1.80857
1.79355
1.7724
1.74347
1.70467
1.49687
1.66545
1.78712
1.8737
1.93521
1.97856
2.00869
2.02923
2.0428
2.05136
2.05619
2.05809
2.05768
2.05508
2.04944
2.03998
2.0257
2.00527
1.9768
1.93782
1.68835
1.87812
2.01377
2.10895
2.17511
2.22023
2.25008
2.26899
2.2802
2.28615
2.28849
2.28848
2.28696
2.28384
2.27841
2.26998
2.25733
2.23893
2.21266
2.17575
1.90025
2.10874
2.25532
2.35557
2.42247
2.46519
2.49051
2.50365
2.50865
2.50858
2.50565
2.50141
2.49663
2.4916
2.48599
2.47898
2.46917
2.45474
2.43325
2.40165
2.12896
2.35119
2.5032
2.6025
2.66374
2.6975
2.7119
2.71333
2.70651
2.69523
2.68258
2.67026
2.6595
2.65091
2.64434
2.63902
2.63341
2.62541
2.61215
2.59016
2.36834
2.59588
2.74431
2.83322
2.87909
2.89442
2.88967
2.87086
2.84382
2.81287
2.78222
2.75532
2.73395
2.71888
2.70996
2.70642
2.70672
2.70885
2.70994
2.70596
2.6091
2.8289
2.96012
3.02458
3.04206
3.02552
2.98532
2.93366
2.88045
2.828
2.78035
2.74014
2.70896
2.68756
2.67584
2.6731
2.67748
2.68751
2.70071
2.71298
2.83825
3.03124
3.12528
3.14543
3.11404
3.05337
2.97403
2.88618
2.7955
2.71202
2.6391
2.57903
2.53296
2.50135
2.48421
2.48076
2.48846
2.50785
2.53811
2.57709
3.03834
3.17679
3.20559
3.16245
3.0696
2.94434
2.80737
2.67001
2.54114
2.4265
2.32911
2.25023
2.18995
2.14802
2.12415
2.11755
2.12534
2.14968
2.19188
2.25135
3.18504
3.23198
3.17224
3.0328
2.85063
2.65159
2.45488
2.27309
2.11334
1.9785
1.86844
1.78153
1.71557
1.66865
1.63949
1.6277
1.63157
1.65189
1.6947
1.76398
3.24599
3.16979
2.97149
2.71114
2.43094
2.16186
1.92245
1.72089
1.55788
1.43003
1.33166
1.25689
1.20082
1.15998
1.13261
1.11836
1.11676
1.12806
1.16159
1.22693
3.18811
2.92095
2.55778
2.17231
1.81583
1.51837
1.28819
1.11897
0.997624
0.912944
0.85317
0.80978
0.777432
0.753175
0.736121
0.727589
0.732622
0.751739
0.796976
0.893579
2.90239
2.42106
1.90933
1.46104
1.11248
0.880873
0.74061
0.658366
0.611893
0.582423
0.562573
0.548908
0.539614
0.53395
0.532792
0.538244
0.552532
0.5832
0.653086
0.825298
2.28619
1.64682
1.1344
0.813465
0.646605
0.559503
0.510552
0.481458
0.46344
0.451955
0.4448
0.440765
0.439379
0.440589
0.444626
0.452764
0.469602
0.508907
0.620748
0.932867
1.33812
0.89481
0.656665
0.536736
0.475106
0.441883
0.422853
0.411401
0.404274
0.399877
0.397415
0.396445
0.396955
0.399007
0.403394
0.411726
0.428918
0.47541
0.633836
1.13805
0.920962
0.613856
0.485447
0.433661
0.409522
0.396639
0.389235
0.384884
0.382368
0.380982
0.380415
0.380445
0.381098
0.382448
0.385183
0.391136
0.406499
0.450547
0.610392
1.1746
0.802864
0.490715
0.410546
0.388217
0.380921
0.378006
0.376621
0.375881
0.375476
0.375271
0.375203
0.375223
0.375333
0.3756
0.376316
0.378455
0.385427
0.409591
0.502118
0.835063
0.348207
0.347815
0.347303
0.346769
0.346225
0.345688
0.345176
0.344711
0.344313
0.343997
0.343773
0.343641
0.3436
0.343645
0.343767
0.343957
0.344203
0.344494
0.344821
0.345176
0.348442
0.34804
0.347523
0.346981
0.346426
0.345877
0.345352
0.344874
0.344466
0.344146
0.343927
0.343795
0.34375
0.34379
0.343906
0.344089
0.344324
0.344611
0.344929
0.345278
0.348603
0.348194
0.347669
0.347114
0.346546
0.345982
0.345445
0.344955
0.344536
0.344208
0.343988
0.343849
0.343801
0.343836
0.343944
0.344123
0.344363
0.344647
0.34495
0.345289
0.348732
0.348318
0.347782
0.347209
0.346625
0.346051
0.345507
0.345011
0.344582
0.344241
0.344004
0.343863
0.343814
0.343847
0.343956
0.34414
0.34439
0.344669
0.344966
0.345312
0.348787
0.348371
0.347834
0.34726
0.346677
0.346104
0.345562
0.345074
0.344642
0.344286
0.344029
0.343882
0.343827
0.343858
0.343971
0.344156
0.3444
0.34468
0.344986
0.345327
0.348795
0.348386
0.347858
0.347301
0.34673
0.34616
0.345614
0.345124
0.344689
0.344331
0.344068
0.343906
0.34384
0.343857
0.343964
0.344148
0.344397
0.344684
0.344997
0.345325
0.348843
0.348435
0.34791
0.347356
0.346783
0.346205
0.345646
0.345135
0.344691
0.344342
0.344082
0.343915
0.343839
0.343849
0.343956
0.344141
0.34439
0.344673
0.344993
0.345332
0.348876
0.348458
0.347929
0.347374
0.346798
0.346217
0.345652
0.345126
0.344677
0.344334
0.344073
0.343906
0.343832
0.343851
0.343954
0.344136
0.344383
0.344662
0.344983
0.345327
0.348875
0.348445
0.347915
0.347365
0.346781
0.346198
0.345637
0.345121
0.344677
0.344316
0.344048
0.343879
0.343808
0.343831
0.343931
0.344117
0.34437
0.344657
0.344973
0.345317
0.348871
0.348446
0.347918
0.347369
0.346782
0.346199
0.345639
0.345123
0.344669
0.344291
0.344021
0.343855
0.343793
0.343832
0.343949
0.344136
0.344378
0.344663
0.344983
0.345322
0.348877
0.348463
0.347935
0.347382
0.346802
0.346218
0.345653
0.345126
0.344673
0.344306
0.344038
0.343874
0.343813
0.343853
0.343968
0.344156
0.344397
0.344677
0.344989
0.345343
0.34889
0.348469
0.347934
0.347367
0.346782
0.3462
0.34564
0.345131
0.344681
0.344315
0.344044
0.343874
0.343806
0.343835
0.343952
0.34414
0.344387
0.344664
0.344981
0.345342
0.348909
0.348482
0.34794
0.347367
0.34678
0.346196
0.345632
0.345131
0.344686
0.344324
0.344051
0.343875
0.343797
0.343822
0.343942
0.344121
0.34437
0.344647
0.34497
0.345336
0.348931
0.348494
0.347946
0.34737
0.346784
0.346208
0.345647
0.345141
0.344697
0.344334
0.344062
0.343889
0.343819
0.343847
0.343962
0.344147
0.344388
0.344668
0.344975
0.345324
0.348925
0.348478
0.347925
0.347347
0.346763
0.346195
0.345647
0.345134
0.344678
0.344313
0.34405
0.343885
0.343824
0.343853
0.343971
0.34416
0.344406
0.344694
0.344995
0.345328
0.348939
0.348494
0.347942
0.347361
0.346765
0.346185
0.34563
0.345113
0.344655
0.344293
0.344038
0.343874
0.3438
0.343829
0.343949
0.344144
0.344398
0.344699
0.345026
0.345374
0.348934
0.348496
0.347947
0.347372
0.346774
0.34619
0.345631
0.345123
0.344679
0.344316
0.344046
0.34387
0.343801
0.343832
0.343957
0.34416
0.344413
0.344704
0.345041
0.345398
0.348933
0.348488
0.347934
0.347361
0.346767
0.346179
0.34564
0.345131
0.344688
0.344328
0.34406
0.343889
0.343824
0.343855
0.343978
0.344178
0.344424
0.344718
0.345049
0.345405
0.348975
0.348517
0.347947
0.347354
0.346756
0.346173
0.345629
0.345115
0.344678
0.344322
0.344059
0.343893
0.343828
0.34386
0.34398
0.344172
0.344418
0.344724
0.345055
0.345409
0.349037
0.348569
0.347988
0.347384
0.346777
0.346187
0.345638
0.345132
0.344693
0.344328
0.344058
0.343887
0.343827
0.343865
0.343991
0.34419
0.344445
0.344743
0.345071
0.345419
0.349111
0.348634
0.348044
0.34743
0.346812
0.346211
0.345654
0.34514
0.344695
0.344328
0.34407
0.34392
0.343872
0.343918
0.34405
0.344254
0.344512
0.344811
0.345137
0.345484
0.349195
0.348711
0.348113
0.347491
0.346863
0.34625
0.345675
0.345158
0.344717
0.344368
0.344121
0.34398
0.343939
0.34399
0.344127
0.344334
0.344595
0.344895
0.345222
0.345568
0.349287
0.348798
0.348195
0.347568
0.346935
0.346319
0.34574
0.345222
0.344782
0.344436
0.344193
0.344056
0.344017
0.344071
0.344211
0.344419
0.344681
0.344981
0.345309
0.345654
0.349382
0.34889
0.348284
0.347654
0.347019
0.346401
0.345822
0.345304
0.344865
0.34452
0.344278
0.344142
0.344104
0.344158
0.344297
0.344504
0.344766
0.345065
0.345391
0.345736
0.349478
0.348983
0.348375
0.347743
0.347108
0.34649
0.345912
0.345396
0.344959
0.344616
0.344374
0.344238
0.344198
0.344249
0.344385
0.344589
0.344847
0.345144
0.345468
0.34581
0.349575
0.349077
0.348467
0.347833
0.347198
0.346582
0.346008
0.345496
0.345063
0.344722
0.344481
0.344342
0.344298
0.344343
0.344473
0.344672
0.344926
0.345219
0.34554
0.34588
0.349672
0.34917
0.348556
0.347921
0.347285
0.346672
0.346104
0.345601
0.345176
0.344839
0.344598
0.344454
0.344403
0.344438
0.344559
0.344752
0.345001
0.345292
0.34561
0.345947
0.34977
0.349263
0.348644
0.348003
0.347364
0.34675
0.346186
0.345695
0.345277
0.344942
0.3447
0.344553
0.344493
0.344516
0.344632
0.344823
0.345072
0.345362
0.345679
0.346014
0.349874
0.34936
0.348732
0.348082
0.347433
0.346809
0.346237
0.345741
0.345325
0.344991
0.344749
0.344602
0.344537
0.344565
0.344689
0.344887
0.345141
0.345433
0.345751
0.346085
0.349987
0.349465
0.348828
0.348167
0.347504
0.346865
0.346275
0.345757
0.34533
0.34499
0.34475
0.34461
0.34456
0.34461
0.344749
0.344958
0.345218
0.345514
0.345832
0.346164
0.350114
0.349584
0.348938
0.348267
0.347593
0.346941
0.346337
0.345802
0.345356
0.34501
0.344773
0.344646
0.344617
0.344682
0.344832
0.345049
0.345315
0.345612
0.34593
0.346257
0.350257
0.34972
0.349067
0.348387
0.347705
0.347044
0.346432
0.34589
0.34544
0.345093
0.344859
0.344736
0.344714
0.344787
0.344943
0.345165
0.345433
0.345732
0.346047
0.34637
0.350416
0.349874
0.349214
0.348527
0.347837
0.34717
0.346553
0.346007
0.345554
0.345208
0.344975
0.344855
0.344836
0.344916
0.345078
0.345303
0.345574
0.345873
0.346187
0.346505
0.350593
0.350046
0.34938
0.348686
0.347989
0.347316
0.346694
0.346145
0.345691
0.345345
0.345114
0.344997
0.344983
0.345067
0.345233
0.345463
0.345736
0.346036
0.346347
0.346661
0.350792
0.350238
0.349566
0.348865
0.348162
0.347482
0.346855
0.346303
0.345847
0.345501
0.345272
0.345158
0.345148
0.345237
0.345407
0.34564
0.345916
0.346216
0.346526
0.346835
0.351014
0.350455
0.349777
0.349068
0.348358
0.347672
0.347039
0.346483
0.346025
0.345679
0.345452
0.345341
0.345335
0.345428
0.345603
0.345839
0.346117
0.346417
0.346725
0.347028
0.351264
0.350701
0.350016
0.349301
0.348582
0.347889
0.34725
0.34669
0.34623
0.345884
0.345658
0.345549
0.345547
0.345644
0.345823
0.346063
0.346343
0.346642
0.346947
0.347244
0.351548
0.350979
0.350289
0.349566
0.34884
0.348139
0.347495
0.34693
0.346468
0.34612
0.345896
0.34579
0.345791
0.345892
0.346075
0.346318
0.346599
0.346898
0.347198
0.347489
0.351868
0.351295
0.350599
0.349869
0.349135
0.348427
0.347776
0.347207
0.346742
0.346394
0.346171
0.346067
0.346071
0.346177
0.346363
0.346608
0.34689
0.347188
0.347484
0.347766
0.352229
0.351652
0.350951
0.350214
0.349472
0.348757
0.348099
0.347525
0.347057
0.346708
0.346486
0.346385
0.346393
0.346502
0.346692
0.346939
0.347222
0.347518
0.347809
0.348081
0.352637
0.352057
0.351351
0.350606
0.349857
0.349133
0.348469
0.34789
0.347419
0.347069
0.346848
0.346748
0.34676
0.346873
0.347066
0.347316
0.347599
0.347893
0.348177
0.34844
0.353098
0.352515
0.351804
0.351052
0.350295
0.349563
0.348892
0.348308
0.347833
0.347482
0.347262
0.347164
0.347179
0.347296
0.347493
0.347745
0.348028
0.348319
0.348597
0.348848
0.353619
0.353033
0.352318
0.35156
0.350794
0.350054
0.349375
0.348785
0.348307
0.347955
0.347735
0.34764
0.347658
0.347779
0.347979
0.348234
0.348516
0.348803
0.349073
0.349311
0.354208
0.353621
0.352903
0.352137
0.351363
0.350615
0.349929
0.349332
0.34885
0.348496
0.348277
0.348184
0.348206
0.34833
0.348534
0.34879
0.349072
0.349354
0.349615
0.349838
0.354875
0.354288
0.353568
0.352796
0.352014
0.351256
0.350562
0.349959
0.349473
0.349117
0.348898
0.348808
0.348833
0.348961
0.349168
0.349426
0.349706
0.349982
0.350232
0.350438
0.355633
0.355047
0.354326
0.353549
0.352758
0.351992
0.35129
0.35068
0.35019
0.349831
0.349613
0.349524
0.349553
0.349685
0.349895
0.350153
0.350431
0.3507
0.350937
0.351123
0.356495
0.355913
0.355192
0.35441
0.353612
0.352837
0.352126
0.35151
0.351014
0.350654
0.350435
0.350349
0.350381
0.350517
0.350729
0.350988
0.351262
0.351523
0.351745
0.351907
0.357479
0.356903
0.356185
0.3554
0.354594
0.353811
0.353091
0.352468
0.351967
0.351604
0.351385
0.3513
0.351336
0.351475
0.35169
0.351948
0.352218
0.352468
0.352672
0.352808
0.358605
0.358038
0.357326
0.356538
0.355727
0.354935
0.354207
0.353576
0.35307
0.352703
0.352484
0.352401
0.352441
0.352583
0.352799
0.353055
0.353318
0.353556
0.353739
0.353843
0.359898
0.359344
0.35864
0.357853
0.357036
0.356237
0.3555
0.354862
0.35435
0.353981
0.353761
0.353679
0.353722
0.353866
0.354083
0.354336
0.354591
0.354813
0.354971
0.355038
0.361386
0.36085
0.36016
0.359376
0.358556
0.357749
0.357005
0.356359
0.355842
0.355469
0.355248
0.355167
0.355213
0.355359
0.355574
0.355822
0.356066
0.356268
0.356394
0.356418
0.363105
0.362594
0.361922
0.361145
0.360324
0.359512
0.358761
0.358108
0.357586
0.357209
0.356986
0.356907
0.356954
0.357101
0.357314
0.357554
0.357782
0.357959
0.358049
0.358021
0.365097
0.364619
0.363973
0.363208
0.36239
0.361575
0.360818
0.36016
0.359631
0.35925
0.359026
0.358947
0.358996
0.359141
0.359349
0.359578
0.359787
0.359933
0.359977
0.359887
0.367414
0.366979
0.366369
0.365624
0.364813
0.363999
0.363238
0.362574
0.362041
0.361656
0.361429
0.36135
0.361399
0.361541
0.361741
0.361955
0.362138
0.362244
0.362234
0.36207
0.370121
0.369743
0.369181
0.368464
0.367667
0.366858
0.366097
0.36543
0.364893
0.364503
0.364274
0.364193
0.36424
0.364376
0.364564
0.364756
0.364905
0.364963
0.364886
0.364633
0.373297
0.372993
0.372495
0.371819
0.371046
0.370247
0.36949
0.368823
0.368283
0.36789
0.367656
0.367574
0.367616
0.367742
0.367911
0.368074
0.368179
0.368177
0.368018
0.367654
0.377036
0.376831
0.376421
0.375802
0.375065
0.374287
0.37354
0.372876
0.372336
0.371939
0.371701
0.371613
0.371648
0.371758
0.3719
0.372023
0.372071
0.371992
0.37173
0.371231
0.381474
0.381396
0.3811
0.38056
0.379875
0.37913
0.378401
0.377747
0.377209
0.376809
0.376565
0.376469
0.37649
0.376576
0.376682
0.37675
0.376724
0.376548
0.376156
0.37549
0.386766
0.386852
0.38671
0.38628
0.38567
0.384974
0.384277
0.38364
0.383109
0.382707
0.382454
0.382346
0.382347
0.382398
0.38245
0.382447
0.382327
0.382024
0.381464
0.380587
0.393116
0.393401
0.39348
0.393204
0.392703
0.392082
0.391434
0.390826
0.390308
0.389905
0.38964
0.389512
0.389482
0.389481
0.389458
0.389359
0.389115
0.388643
0.387871
0.386727
0.400848
0.401389
0.401733
0.401661
0.401312
0.400799
0.400225
0.399663
0.399169
0.398769
0.398487
0.39833
0.398251
0.398173
0.398048
0.397818
0.397401
0.396708
0.39566
0.394176
0.410309
0.411203
0.411842
0.412076
0.411943
0.411588
0.411125
0.410635
0.410179
0.409789
0.409488
0.409284
0.409132
0.408944
0.408679
0.408267
0.407608
0.406619
0.405208
0.403284
0.421997
0.423375
0.424443
0.425045
0.425206
0.425074
0.424772
0.42439
0.423997
0.423629
0.423312
0.423043
0.422773
0.422435
0.421965
0.421282
0.420297
0.41891
0.417018
0.414519
0.436575
0.438612
0.440296
0.441295
0.441893
0.442084
0.442017
0.441794
0.441492
0.441155
0.440807
0.440439
0.440008
0.439449
0.438691
0.437646
0.436216
0.434293
0.431762
0.428504
0.454927
0.457871
0.460423
0.462061
0.463062
0.463721
0.463984
0.463987
0.463818
0.463526
0.463135
0.462634
0.461982
0.461114
0.459955
0.458409
0.45637
0.453721
0.450334
0.446074
0.47822
0.482396
0.486122
0.488679
0.490327
0.491375
0.492104
0.492405
0.492434
0.492218
0.491777
0.491099
0.490144
0.48885
0.487139
0.484912
0.482055
0.478436
0.473912
0.468326
0.507936
0.513749
0.519033
0.522829
0.525438
0.527111
0.528098
0.528731
0.529102