/*--------------------------------*- C++ -*----------------------------------*\
  =========                 |
  \\      /  F ield         | OpenFOAM: The Open Source CFD Toolbox
   \\    /   O peration     | Website:  https://openfoam.org
    \\  /    A nd           | Version:  6
     \\/     M anipulation  |
\*---------------------------------------------------------------------------*/
FoamFile
{
    version     2.0;
    format      ascii;
    class       volScalarField;
    location    "12";
    object      nut;
}
// * * * * * * * * * * * * * * * * * * * * * * * * * * * * * * * * * * * * * //

dimensions      [0 2 -1 0 0 0 0];

internalField   nonuniform List<scalar> 
130000
(
0.000890624
0.000894374
0.000897106
0.000898874
0.000899808
0.000900047
0.000899732
0.000898995
0.000897951
0.000896695
0.000895296
0.000893815
0.000892297
0.000890776
0.000889274
0.000887802
0.000886371
0.00088498
0.000883625
0.000882298
0.000890613
0.00089436
0.000897079
0.000898829
0.000899742
0.000899958
0.000899617
0.000898857
0.000897795
0.000896527
0.000895129
0.000893662
0.000892159
0.000890644
0.000889135
0.000887646
0.000886192
0.000884777
0.000883399
0.000882055
0.000890694
0.000894447
0.000897164
0.000898902
0.000899803
0.000900015
0.000899681
0.000898938
0.000897895
0.000896643
0.000895259
0.000893811
0.000892304
0.000890769
0.000889225
0.000887705
0.000886218
0.000884771
0.000883363
0.000881986
0.000890809
0.000894578
0.000897306
0.000899066
0.000900001
0.000900247
0.00089995
0.000899214
0.000898159
0.00089689
0.000895485
0.000894025
0.000892501
0.000890946
0.000889378
0.000887837
0.000886326
0.000884854
0.000883424
0.00088203
0.000890934
0.000894731
0.000897499
0.000899317
0.000900275
0.000900515
0.000900218
0.000899471
0.000898402
0.00089711
0.000895668
0.000894154
0.000892597
0.000891022
0.000889449
0.000887892
0.000886361
0.000884869
0.000883426
0.000882046
0.000891047
0.000894869
0.000897695
0.000899538
0.000900495
0.000900718
0.000900383
0.000899615
0.00089853
0.000897227
0.000895781
0.000894249
0.000892673
0.000891079
0.000889486
0.000887908
0.000886352
0.000884823
0.000883333
0.000881932
0.000891139
0.000894975
0.000897829
0.00089965
0.000900608
0.000900844
0.000900506
0.000899731
0.000898638
0.000897323
0.000895864
0.000894318
0.000892726
0.000891117
0.000889511
0.000887918
0.000886347
0.000884793
0.000883265
0.000881858
0.000891225
0.000895083
0.000897924
0.000899752
0.00090071
0.000900945
0.000900604
0.000899823
0.000898721
0.000897396
0.000895925
0.000894365
0.000892759
0.000891137
0.000889518
0.000887915
0.000886336
0.000884779
0.000883259
0.000881829
0.000891308
0.000895196
0.000898033
0.00089985
0.000900801
0.000901031
0.000900684
0.000899896
0.000898785
0.000897449
0.000895966
0.000894394
0.000892774
0.000891137
0.000889505
0.000887892
0.000886308
0.000884765
0.000883272
0.000881829
0.000891378
0.000895272
0.000898105
0.000899924
0.000900877
0.000901104
0.000900752
0.000899956
0.000898836
0.000897489
0.000895994
0.000894408
0.000892774
0.000891123
0.000889477
0.00088785
0.000886257
0.000884716
0.000883248
0.000881871
0.000891442
0.000895335
0.000898143
0.000899988
0.000900947
0.000901172
0.000900813
0.000900009
0.000898879
0.000897521
0.000896012
0.000894412
0.000892763
0.000891097
0.000889434
0.000887789
0.000886169
0.000884601
0.000883114
0.000881728
0.000891507
0.000895411
0.00089823
0.00090008
0.000901028
0.000901243
0.000900874
0.00090006
0.000898918
0.000897547
0.000896025
0.000894409
0.000892745
0.000891062
0.000889383
0.000887717
0.000886064
0.000884475
0.000882992
0.000881634
0.000891579
0.000895503
0.000898347
0.000900188
0.000901116
0.000901317
0.000900938
0.000900112
0.000898957
0.000897572
0.000896034
0.000894402
0.000892721
0.000891023
0.00088933
0.000887653
0.000885997
0.0008844
0.000882934
0.000881605
0.000891658
0.00089559
0.000898433
0.000900261
0.000901195
0.000901393
0.000901004
0.000900167
0.000898999
0.000897598
0.000896043
0.000894394
0.000892696
0.000890982
0.000889278
0.0008876
0.000885965
0.00088438
0.000882918
0.000881568
0.00089175
0.000895685
0.000898518
0.000900315
0.000901279
0.000901475
0.000901079
0.00090023
0.000899048
0.00089763
0.000896057
0.000894389
0.000892671
0.00089094
0.000889219
0.000887528
0.000885886
0.000884337
0.000882895
0.000881556
0.000891865
0.000895806
0.000898637
0.000900426
0.00090137
0.000901575
0.00090117
0.000900307
0.000899108
0.000897673
0.000896081
0.000894392
0.000892654
0.000890901
0.00088916
0.000887448
0.000885787
0.000884276
0.000882878
0.000881564
0.000892
0.000895949
0.000898782
0.000900574
0.000901466
0.000901693
0.000901277
0.000900399
0.000899184
0.000897733
0.000896123
0.000894416
0.000892658
0.000890886
0.000889126
0.000887401
0.000885723
0.000884248
0.000882855
0.000881537
0.000892146
0.000896103
0.000898938
0.000900726
0.000901611
0.000901814
0.0009014
0.000900508
0.000899278
0.000897812
0.000896188
0.000894466
0.000892695
0.000890909
0.000889134
0.000887389
0.000885683
0.000884095
0.000882606
0.000881233
0.0008923
0.000896268
0.000899106
0.000900894
0.000901779
0.000901917
0.000901521
0.000900622
0.000899385
0.00089791
0.000896276
0.000894546
0.000892767
0.000890977
0.0008892
0.000887459
0.000885765
0.000884121
0.000882571
0.000881096
0.000892462
0.000896439
0.00089928
0.000901063
0.000901937
0.000902053
0.000901626
0.000900747
0.000899506
0.000898022
0.000896381
0.000894645
0.000892862
0.00089107
0.000889297
0.000887569
0.000885885
0.000884262
0.000882679
0.000881132
0.000892628
0.000896617
0.000899461
0.000901244
0.000902117
0.000902237
0.000901757
0.000900883
0.000899633
0.000898141
0.000896492
0.00089475
0.000892964
0.00089117
0.000889397
0.000887642
0.000885942
0.00088431
0.000882749
0.000881255
0.000892798
0.000896798
0.000899647
0.000901428
0.000902295
0.000902408
0.000901928
0.000901008
0.000899765
0.00089826
0.000896601
0.00089485
0.000893055
0.000891251
0.00088946
0.000887674
0.000885995
0.000884412
0.000882888
0.000881441
0.000892974
0.000896987
0.00089984
0.000901618
0.000902477
0.000902578
0.000902081
0.000901137
0.000899881
0.000898366
0.000896699
0.000894937
0.000893128
0.000891306
0.000889492
0.000887735
0.000886058
0.000884477
0.000882986
0.000881605
0.000893161
0.000897186
0.000900041
0.000901816
0.000902666
0.000902752
0.000902231
0.000901245
0.000899973
0.000898465
0.000896787
0.000895011
0.000893186
0.000891349
0.000889525
0.000887821
0.000886184
0.000884616
0.000883143
0.000881815
0.000893359
0.000897394
0.000900252
0.000902023
0.000902864
0.000902937
0.000902398
0.000901386
0.000900092
0.000898568
0.000896873
0.000895076
0.00089323
0.000891372
0.000889529
0.000887869
0.000886273
0.0008847
0.000883196
0.000881791
0.000893565
0.000897613
0.000900473
0.000902239
0.000903072
0.000903134
0.000902585
0.000901566
0.000900203
0.000898662
0.000896967
0.000895155
0.000893296
0.000891427
0.000889564
0.000887802
0.00088617
0.000884584
0.000883071
0.000881658
0.000893781
0.00089784
0.000900702
0.000902463
0.000903285
0.000903334
0.000902767
0.000901728
0.000900339
0.000898769
0.00089705
0.000895227
0.000893365
0.000891505
0.000889666
0.00088785
0.00088615
0.000884549
0.000883026
0.000881595
0.000894007
0.000898078
0.000900942
0.000902697
0.000903508
0.000903542
0.000902958
0.000901902
0.000900501
0.000898862
0.00089712
0.000895302
0.000893431
0.00089157
0.000889758
0.000887974
0.000886242
0.000884598
0.000883054
0.000881622
0.000894246
0.000898329
0.000901194
0.000902943
0.000903742
0.00090376
0.000903157
0.000902081
0.000900656
0.000898988
0.000897231
0.000895405
0.000893518
0.000891636
0.000889817
0.000888032
0.000886291
0.000884603
0.000883071
0.000881697
0.000894497
0.000898592
0.000901459
0.000903202
0.000903988
0.000903989
0.000903368
0.000902272
0.000900827
0.000899142
0.000897306
0.00089544
0.000893569
0.000891671
0.000889823
0.000888033
0.000886311
0.000884615
0.000883088
0.000881713
0.00089476
0.000898868
0.000901737
0.000903472
0.000904246
0.000904231
0.00090359
0.000902471
0.000901002
0.000899288
0.000897412
0.000895506
0.00089363
0.000891723
0.000889848
0.000888033
0.000886299
0.000884647
0.000883107
0.000881728
0.000895035
0.000899157
0.000902028
0.000903757
0.000904517
0.000904485
0.000903823
0.000902683
0.000901191
0.000899455
0.000897567
0.000895605
0.000893638
0.000891697
0.000889811
0.000888019
0.000886341
0.000884738
0.000883203
0.000881836
0.000895324
0.000899461
0.000902333
0.000904056
0.000904803
0.000904753
0.000904072
0.00090291
0.000901394
0.000899631
0.00089771
0.000895701
0.000893677
0.000891705
0.00088981
0.000888039
0.000886362
0.000884744
0.000883243
0.000881928
0.000895626
0.000899779
0.000902654
0.00090437
0.000905105
0.000905038
0.000904338
0.000903156
0.00090162
0.000899839
0.000897902
0.000895883
0.000893848
0.000891841
0.000889905
0.000888073
0.000886321
0.000884684
0.000883245
0.00088196
0.000895944
0.000900113
0.000902993
0.000904702
0.000905424
0.00090534
0.000904621
0.000903418
0.000901861
0.00090006
0.000898102
0.000896062
0.000894
0.000891971
0.000890012
0.000888149
0.000886391
0.000884747
0.000883266
0.000881902
0.000896278
0.000900466
0.000903349
0.000905053
0.000905762
0.000905661
0.000904922
0.000903698
0.000902119
0.000900295
0.000898315
0.000896251
0.000894166
0.000892108
0.00089012
0.000888227
0.00088644
0.000884761
0.000883182
0.000881755
0.00089663
0.000900837
0.000903725
0.000905424
0.000906121
0.000906003
0.000905244
0.000904
0.0009024
0.000900555
0.000898552
0.000896463
0.000894349
0.00089226
0.000890239
0.000888312
0.000886482
0.000884747
0.000883095
0.000881597
0.000897001
0.000901228
0.000904122
0.000905815
0.0009065
0.000906366
0.000905589
0.000904326
0.000902709
0.000900847
0.000898828
0.000896725
0.000894594
0.000892487
0.00089044
0.000888477
0.000886599
0.000884799
0.000883068
0.000881497
0.000897391
0.000901639
0.000904538
0.000906226
0.000906898
0.000906747
0.000905953
0.000904673
0.000903041
0.000901167
0.000899139
0.000897029
0.000894895
0.000892784
0.000890729
0.000888752
0.00088686
0.000885046
0.000883297
0.000881679
0.0008978
0.000902069
0.000904973
0.000906654
0.000907312
0.000907144
0.000906331
0.000905032
0.000903384
0.000901496
0.000899459
0.000897345
0.00089521
0.000893101
0.000891051
0.000889084
0.000887212
0.000885434
0.00088373
0.000882135
0.000898226
0.000902516
0.000905425
0.000907099
0.000907741
0.000907553
0.000906717
0.000905396
0.000903728
0.000901823
0.000899773
0.000897649
0.00089551
0.0008934
0.000891355
0.000889397
0.000887539
0.000885784
0.000884118
0.000882591
0.00089867
0.000902983
0.000905896
0.000907561
0.000908185
0.000907973
0.000907112
0.000905765
0.000904071
0.000902143
0.000900073
0.000897933
0.000895781
0.000893664
0.000891615
0.000889657
0.000887802
0.000886052
0.000884395
0.000882874
0.000899133
0.00090347
0.000906388
0.000908043
0.000908647
0.000908409
0.000907518
0.00090614
0.000904415
0.000902459
0.000900362
0.000898198
0.000896026
0.000893892
0.00089183
0.000889862
0.000888
0.000886246
0.000884586
0.000883062
0.000899628
0.000903988
0.000906909
0.000908551
0.000909133
0.000908864
0.000907939
0.000906527
0.000904767
0.000902777
0.000900649
0.000898457
0.000896259
0.000894103
0.000892021
0.000890038
0.000888163
0.000886399
0.000884731
0.000883199
0.000900156
0.00090454
0.000907462
0.00090909
0.000909645
0.000909343
0.000908382
0.000906931
0.000905133
0.000903107
0.000900944
0.000898719
0.000896493
0.000894311
0.000892207
0.000890205
0.000888315
0.000886538
0.000884861
0.000883318
0.000900719
0.000905126
0.000908049
0.00090966
0.000910187
0.000909849
0.000908848
0.000907356
0.000905518
0.000903452
0.000901252
0.000898994
0.000896736
0.000894527
0.0008924
0.000890377
0.000888471
0.000886681
0.000884994
0.000883439
0.000901317
0.000905749
0.000908671
0.000910264
0.00091076
0.000910385
0.000909341
0.000907806
0.000905925
0.000903818
0.000901579
0.000899285
0.000896995
0.000894757
0.000892606
0.000890563
0.000888639
0.000886836
0.000885138
0.000883568
0.000901951
0.000906408
0.000909331
0.000910904
0.000911368
0.000910952
0.000909864
0.000908283
0.000906357
0.000904207
0.000901928
0.000899596
0.000897273
0.000895006
0.000892829
0.000890765
0.000888824
0.000887006
0.000885296
0.000883709
0.00090262
0.000907105
0.000910028
0.000911581
0.000912011
0.000911553
0.000910419
0.00090879
0.000906817
0.000904622
0.0009023
0.000899931
0.000897573
0.000895275
0.000893073
0.000890987
0.000889029
0.000887198
0.000885476
0.000883868
0.000903324
0.00090784
0.000910765
0.000912299
0.000912695
0.000912193
0.000911009
0.00090933
0.000907308
0.000905065
0.0009027
0.00090029
0.000897897
0.000895569
0.00089334
0.000891233
0.00088926
0.000887421
0.000885702
0.000884104
0.000904063
0.000908616
0.000911548
0.000913063
0.000913423
0.000912875
0.00091164
0.000909908
0.000907833
0.000905541
0.00090313
0.000900679
0.000898248
0.000895888
0.000893632
0.000891505
0.000889517
0.000887668
0.00088595
0.000884356
0.000904866
0.000909456
0.00091239
0.000913884
0.000914204
0.000913605
0.000912315
0.000910526
0.000908396
0.000906052
0.000903593
0.000901098
0.000898629
0.000896236
0.000893953
0.000891804
0.0008898
0.000887942
0.000886222
0.000884624
0.000905725
0.000910355
0.000913293
0.000914763
0.00091504
0.000914388
0.000913038
0.000911188
0.000909
0.0009066
0.00090409
0.000901549
0.000899041
0.000896613
0.000894302
0.000892132
0.000890113
0.000888245
0.00088652
0.000884922
0.00090661
0.000911307
0.000914258
0.000915705
0.000915937
0.000915226
0.000913812
0.000911897
0.000909646
0.000907187
0.000904623
0.000902035
0.000899485
0.000897022
0.000894682
0.000892489
0.000890452
0.000888573
0.000886839
0.000885236
0.000907621
0.000912355
0.000915304
0.000916719
0.000916899
0.000916124
0.000914641
0.000912656
0.000910337
0.000907815
0.000905195
0.000902556
0.000899962
0.000897463
0.000895093
0.000892876
0.000890821
0.000888928
0.000887185
0.000885573
0.000908713
0.000913484
0.000916429
0.000917808
0.00091793
0.000917085
0.000915526
0.000913465
0.000911074
0.000908485
0.000905805
0.000903113
0.000900473
0.000897936
0.000895535
0.000893294
0.000891221
0.000889314
0.00088756
0.000885938
0.000909886
0.000914696
0.000917635
0.000918974
0.000919034
0.000918112
0.00091647
0.000914327
0.000911857
0.000909196
0.000906451
0.000903703
0.000901016
0.000898439
0.000896007
0.000893741
0.00089165
0.000889729
0.000887964
0.000886332
0.000911145
0.000915997
0.000918928
0.000920223
0.000920212
0.000919206
0.000917474
0.00091524
0.000912685
0.000909946
0.000907131
0.000904323
0.000901586
0.000898968
0.000896503
0.000894212
0.000892102
0.000890168
0.000888393
0.000886752
0.000912498
0.000917392
0.000920313
0.000921557
0.000921469
0.000920369
0.000918536
0.000916203
0.000913553
0.000910729
0.000907838
0.000904966
0.000902174
0.000899513
0.000897014
0.000894699
0.000892572
0.000890626
0.000888842
0.000887194
0.000913951
0.000918887
0.000921794
0.00092298
0.000922805
0.000921599
0.000919654
0.000917209
0.000914453
0.000911533
0.00090856
0.000905616
0.000902767
0.00090006
0.000897528
0.000895188
0.000893045
0.00089109
0.000889301
0.000887651
0.000915512
0.000920488
0.000923374
0.000924493
0.000924216
0.00092289
0.000920817
0.000918245
0.000915369
0.000912342
0.000909275
0.000906253
0.000903342
0.000900587
0.00089802
0.000895658
0.000893503
0.000891544
0.000889757
0.000888112
0.000917192
0.000922197
0.000925052
0.000926089
0.000925695
0.000924229
0.000922007
0.000919288
0.000916275
0.000913123
0.000909949
0.00090684
0.000903859
0.000901054
0.000898454
0.000896074
0.000893912
0.000891957
0.000890182
0.000888553
0.000919017
0.000923995
0.000926816
0.000927756
0.000927222
0.000925592
0.000923195
0.000920301
0.000917124
0.000913826
0.000910528
0.000907317
0.00090426
0.000901401
0.000898769
0.000896376
0.000894218
0.00089228
0.000890532
0.000888938
0.000920991
0.000925903
0.000928663
0.000929478
0.000928771
0.00092694
0.000924329
0.000921224
0.000917848
0.000914373
0.000910924
0.000907594
0.000904448
0.000901531
0.000898869
0.000896473
0.000894333
0.000892431
0.000890733
0.000889201
0.000923101
0.000927908
0.000930572
0.000931218
0.000930291
0.000928207
0.00092533
0.000921961
0.000918337
0.000914641
0.000911005
0.000907527
0.000904276
0.000901294
0.000898606
0.000896218
0.000894118
0.000892281
0.000890668
0.000889238
0.000925307
0.000930041
0.000932512
0.000932919
0.000931702
0.000929292
0.000926074
0.000922366
0.000918424
0.000914443
0.000910568
0.000906904
0.00090352
0.000900463
0.000897752
0.00089539
0.000893359
0.000891627
0.000890151
0.000888881
0.000927505
0.000932145
0.000934377
0.000934468
0.000932871
0.000930039
0.000926377
0.000922228
0.000917869
0.000913514
0.000909324
0.000905413
0.000901858
0.000898706
0.000895974
0.00089366
0.000891736
0.000890166
0.000888897
0.000887875
0.00092969
0.000934151
0.000936045
0.000935714
0.000933619
0.000930232
0.000925988
0.000921258
0.000916346
0.000911493
0.000906879
0.000902636
0.00089885
0.000895569
0.000892811
0.000890565
0.000888798
0.000887462
0.000886496
0.000885838
0.000931785
0.000935946
0.000937365
0.000936467
0.000933713
0.000929601
0.000924593
0.000919097
0.000913453
0.000907934
0.00090275
0.000898054
0.000893946
0.000890481
0.000887675
0.000885512
0.00088395
0.00088293
0.000882383
0.000882239
0.000933683
0.000937386
0.000938155
0.000936507
0.000932899
0.000927849
0.000921856
0.000915368
0.00090877
0.000902377
0.000896434
0.000891125
0.000886568
0.000882829
0.000879924
0.000877834
0.000876507
0.000875877
0.000875867
0.000876404
0.000935251
0.000938308
0.000938246
0.000935638
0.000930954
0.000924735
0.000917516
0.000909793
0.000901999
0.000894499
0.000887584
0.00088147
0.0008763
0.000872153
0.000869051
0.000866971
0.000865858
0.000865642
0.000866245
0.000867601
0.000936349
0.000938517
0.000937608
0.000933771
0.000927808
0.000920221
0.000911572
0.000902405
0.000893206
0.000884395
0.000876307
0.000869195
0.000863227
0.000858497
0.000855033
0.000852816
0.000851794
0.000851902
0.000853077
0.000855275
0.000936899
0.000937835
0.000936026
0.000930986
0.000923708
0.000914691
0.000904538
0.000893845
0.000883154
0.000872932
0.000863555
0.000855306
0.000848372
0.000842859
0.000838804
0.000836194
0.000834989
0.000835147
0.000836634
0.000839461
0.000936915
0.000936558
0.000933924
0.000927924
0.000919511
0.000909222
0.000897716
0.000885641
0.000873583
0.000862046
0.000851429
0.000842028
0.000834037
0.000827563
0.000822646
0.000819286
0.000817461
0.000817162
0.000818413
0.000821305
0.000936773
0.000935431
0.000931794
0.000925965
0.000916859
0.00090573
0.000893312
0.000880294
0.000867278
0.000854778
0.000843188
0.000832796
0.000823781
0.00081624
0.000810208
0.000805692
0.000802691
0.000801239
0.000801426
0.000803445
0.000936911
0.00093545
0.000931911
0.000926298
0.000918293
0.00090686
0.000894273
0.00088105
0.000867752
0.000854876
0.000842787
0.000831735
0.000821868
0.000813261
0.000805933
0.000799891
0.000795151
0.000791781
0.000789932
0.000789894
0.000938496
0.000937982
0.000935816
0.000930831
0.000924364
0.000915549
0.000903786
0.00089137
0.000878607
0.00086608
0.000854085
0.000842806
0.000832358
0.000822785
0.000814087
0.000806259
0.000799324
0.000793367
0.000788573
0.000785299
0.000943223
0.000945396
0.000946419
0.000944389
0.000939351
0.000933314
0.000924976
0.00091449
0.000902806
0.000891388
0.000880096
0.000869009
0.00085827
0.000847894
0.000837844
0.000828101
0.000818684
0.000809677
0.000801269
0.000793827
0.000953186
0.000960239
0.000966079
0.000968535
0.00096734
0.000962999
0.000957234
0.000950296
0.00094188
0.000932653
0.000922685
0.000911978
0.000901204
0.000890206
0.00087887
0.00086717
0.000855132
0.000842833
0.000830432
0.000818261
0.000970717
0.00098501
0.000997552
0.00100591
0.00100997
0.0010104
0.00100772
0.00100322
0.000997542
0.000990173
0.000981559
0.000971931
0.000961423
0.000950053
0.000937476
0.000923757
0.000909026
0.000893328
0.000876785
0.000859651
0.000998018
0.00102169
0.00104243
0.00105779
0.00106782
0.00107326
0.00107497
0.00107362
0.00106995
0.00106468
0.00105736
0.00104836
0.0010379
0.00102614
0.00101276
0.000997102
0.000979557
0.00096039
0.000939652
0.000917517
0.00103695
0.00107167
0.00110168
0.00112473
0.0011412
0.00115199
0.00115804
0.00116017
0.00115897
0.00115494
0.00114863
0.00114004
0.00112937
0.00111675
0.00110229
0.00108542
0.00106519
0.00104238
0.00101738
0.000990241
0.00108873
0.00113552
0.00117532
0.00120633
0.00122931
0.00124544
0.00125579
0.00126123
0.00126247
0.00126001
0.00125422
0.0012454
0.00123401
0.00122021
0.00120392
0.00118535
0.00116344
0.00113703
0.00110754
0.00107535
0.00115387
0.001213
0.00126257
0.00130139
0.00133069
0.00135191
0.00136628
0.00137479
0.00137818
0.00137701
0.00137165
0.00136233
0.00134967
0.0013342
0.00131567
0.00129452
0.00127027
0.00124094
0.00120689
0.00116947
0.001232
0.00130289
0.00136163
0.0014077
0.0014428
0.00146863
0.00148659
0.00149777
0.00150295
0.00150269
0.00149735
0.0014872
0.00147291
0.00145499
0.00143317
0.00140779
0.00137948
0.00134773
0.00131032
0.00126792
0.0013216
0.00140272
0.0014693
0.00152151
0.00156146
0.00159109
0.00161194
0.0016252
0.00163169
0.00163193
0.0016262
0.00161492
0.00159873
0.00157765
0.00155168
0.00152137
0.00148722
0.00144966
0.00140906
0.00136391
0.00141979
0.00150839
0.00158059
0.0016371
0.0016804
0.00171255
0.00173518
0.00174962
0.00175683
0.00175721
0.00175102
0.00173838
0.00171927
0.00169404
0.00166315
0.00162723
0.00158699
0.00154312
0.00149615
0.00144654
0.00152184
0.00161372
0.00168811
0.0017462
0.0017907
0.00182351
0.00184612
0.00186063
0.00186788
0.00186754
0.00186039
0.0018457
0.00182314
0.00179312
0.00175629
0.00171353
0.00166607
0.00161507
0.00156096
0.00150455
0.00162076
0.00170989
0.00178155
0.00183736
0.00187908
0.00190851
0.00193042
0.00194404
0.00195035
0.00194904
0.00193863
0.00191906
0.00189066
0.00185428
0.00181051
0.00176028
0.00170424
0.00164415
0.00158295
0.00152192
0.00170678
0.00178511
0.00184791
0.00189508
0.00192864
0.00195185
0.00196675
0.00197659
0.00197932
0.00197411
0.00196038
0.00193733
0.00190477
0.00186391
0.00181466
0.00175811
0.00169459
0.00162698
0.00155935
0.00148625
0.00176692
0.00182509
0.00187007
0.00189855
0.00191747
0.00193738
0.00194734
0.00195198
0.00195069
0.00194381
0.00192944
0.00190574
0.00187045
0.00182321
0.00176551
0.00169617
0.001616
0.00153015
0.00144241
0.00136721
0.00178475
0.00181163
0.0018248
0.00183594
0.00184327
0.00184176
0.0018435
0.00184334
0.00184092
0.00183416
0.00181988
0.00179464
0.00175522
0.00170008
0.00163289
0.0015502
0.0014511
0.0013446
0.00123966
0.00114427
0.0017406
0.00172179
0.00170651
0.0016877
0.00167037
0.00165693
0.00164909
0.00164659
0.00164699
0.00164599
0.00163803
0.00161713
0.00157775
0.00151561
0.00143358
0.00133093
0.00120607
0.00106846
0.000936003
0.000823004
0.00161109
0.00154959
0.00149298
0.00144365
0.00140523
0.00138084
0.00137245
0.0013793
0.00139507
0.00141171
0.00141991
0.00141053
0.00137594
0.00130681
0.0012062
0.0010742
0.000913873
0.000742762
0.000589054
0.000470506
0.00138687
0.00128361
0.00119251
0.00112058
0.00107184
0.00105224
0.0010653
0.00111326
0.00116743
0.0012131
0.00123773
0.00123026
0.00118089
0.00109265
0.000971184
0.000821021
0.000658855
0.000496741
0.000357736
0.000262507
0.00106614
0.00093908
0.000840955
0.000773452
0.000745572
0.000769119
0.000831094
0.000894309
0.00095097
0.000993621
0.00101638
0.00101517
0.00098559
0.00092329
0.000825396
0.000695692
0.000542937
0.000383878
0.000249118
0.000195905
0.000683287
0.000580033
0.000538333
0.000568037
0.000649863
0.000744592
0.000824769
0.000882014
0.000916554
0.000932544
0.000935722
0.000927602
0.000905594
0.000864317
0.000790513
0.000670647
0.000505636
0.000330646
0.000202045
0.000163386
0.000353481
0.000389921
0.000463845
0.000582964
0.000706994
0.000797209
0.000848447
0.00087346
0.0008837
0.000886768
0.000886028
0.000881878
0.000872657
0.000850931
0.000801861
0.000701187
0.000531093
0.000331762
0.000197243
0.000186768
0.000248469
0.000324615
0.000489293
0.000661066
0.000771363
0.000826853
0.000851337
0.000860778
0.000863722
0.000864188
0.000863764
0.000862614
0.00085983
0.000852309
0.000831437
0.000772373
0.000632356
0.000419304
0.00024975
0.000201942
0.000223542
0.000327919
0.000540763
0.000723109
0.000812347
0.00084286
0.000851245
0.00085316
0.000853496
0.000853484
0.000853382
0.00085315
0.000852435
0.000849958
0.000842088
0.000818552
0.000748786
0.000571699
0.000346142
0.000248694
0.000879897
0.000880333
0.000880829
0.000881282
0.000881682
0.000882033
0.000882305
0.000882494
0.000882614
0.00088268
0.00088269
0.000882618
0.000882449
0.000882183
0.000881848
0.000881479
0.000881094
0.000880691
0.000880264
0.000879744
0.000879669
0.000880139
0.000880668
0.00088117
0.000881651
0.000882068
0.000882337
0.000882487
0.000882565
0.000882605
0.000882618
0.000882514
0.000882311
0.000882045
0.000881715
0.000881357
0.000880954
0.000880545
0.00088007
0.000879503
0.000879697
0.000880338
0.00088094
0.00088145
0.000881897
0.000882239
0.000882419
0.000882481
0.000882477
0.000882448
0.000882411
0.000882188
0.00088194
0.000881668
0.000881343
0.00088102
0.000880688
0.000880292
0.000879734
0.000879137
0.000880027
0.000880791
0.000881395
0.000881809
0.000882099
0.000882275
0.000882337
0.000882282
0.000882181
0.000882085
0.000882028
0.000881919
0.0008817
0.000881443
0.000881153
0.000880891
0.000880671
0.000880274
0.000879687
0.00087909
0.000880217
0.000880879
0.000881424
0.000881787
0.000882027
0.000882132
0.000882135
0.000882108
0.000882034
0.000881942
0.000881906
0.000881993
0.000881832
0.000881624
0.000881382
0.000881126
0.000880831
0.000880424
0.000879889
0.000879188
0.000880058
0.000880598
0.000881117
0.000881542
0.000881875
0.000882082
0.000882153
0.000882164
0.000882135
0.000882103
0.000882101
0.000882079
0.000881901
0.000881644
0.000881395
0.00088117
0.000880801
0.0008804
0.000879908
0.000879189
0.000879967
0.000880508
0.000881059
0.000881548
0.000881985
0.000882255
0.000882305
0.000882238
0.000882226
0.000882199
0.000882161
0.000882022
0.000881837
0.000881564
0.000881325
0.000881091
0.000880824
0.000880444
0.000879998
0.000879405
0.000880099
0.000880664
0.000881241
0.000881742
0.000882121
0.000882314
0.000882363
0.000882319
0.000882255
0.000882171
0.000882102
0.000882057
0.000881967
0.000881681
0.000881395
0.000881038
0.000880862
0.000880555
0.000880121
0.000879541
0.00088031
0.000880857
0.000881442
0.000881925
0.000882135
0.00088231
0.000882473
0.000882464
0.000882334
0.000882234
0.000882144
0.000882094
0.000881895
0.000881541
0.000881279
0.000880969
0.000880724
0.000880427
0.000879985
0.000879431
0.000880284
0.000880875
0.000881488
0.000882009
0.000882269
0.000882369
0.000882404
0.000882367
0.000882259
0.000882098
0.000882004
0.000881956
0.000881811
0.000881564
0.000881304
0.000880956
0.000880536
0.000880164
0.000879707
0.000879151
0.000880135
0.000880777
0.000881394
0.000881909
0.000882233
0.0008824
0.000882419
0.000882276
0.000882151
0.000882033
0.000881944
0.000881939
0.000881756
0.000881576
0.000881302
0.00088099
0.000880544
0.000880034
0.000879528
0.000879111
0.000880087
0.000880746
0.000881345
0.000881757
0.000882049
0.000882294
0.00088236
0.000882368
0.000882293
0.000882165
0.000881949
0.00088179
0.000881527
0.000881308
0.000881133
0.00088084
0.000880425
0.000879943
0.000879501
0.000879195
0.000880179
0.00088081
0.000881365
0.000881747
0.000882022
0.000882236
0.000882319
0.000882439
0.000882404
0.000882324
0.000882001
0.00088172
0.00088144
0.000881171
0.000880948
0.000880643
0.000880369
0.000879869
0.000879436
0.000879094
0.000880285
0.000880854
0.000881415
0.000881863
0.000882154
0.000882433
0.000882505
0.000882459
0.000882412
0.000882406
0.000882145
0.000881882
0.000881684
0.000881413
0.000881192
0.000880924
0.000880623
0.000880091
0.000879544
0.000879033
0.000880339
0.000880849
0.000881405
0.000881901
0.000882174
0.000882422
0.000882552
0.000882461
0.000882359
0.000882321
0.000882178
0.000882
0.000881851
0.000881516
0.000881274
0.000880938
0.000880532
0.000880055
0.000879444
0.000878837
0.000880304
0.000880809
0.000881461
0.00088196
0.000882249
0.00088245
0.000882556
0.000882533
0.000882419
0.000882311
0.000882183
0.000881972
0.000881522
0.000881048
0.000880639
0.000880267
0.000879893
0.000879521
0.00087909
0.000878616
0.000880205
0.000880839
0.000881588
0.000882068
0.000882379
0.000882633
0.000882657
0.000882674
0.000882672
0.000882538
0.000882267
0.000881852
0.000881343
0.000880783
0.000880362
0.000880035
0.000879692
0.00087932
0.000878988
0.000878586
0.000880272
0.000880883
0.000881585
0.000882112
0.000882412
0.000882537
0.000882614
0.000882616
0.000882602
0.000882444
0.000882174
0.000881806
0.000881411
0.000880923
0.000880548
0.000880237
0.000879878
0.000879542
0.000879191
0.000878792
0.000880431
0.000881014
0.000881513
0.000881889
0.000882156
0.000882338
0.000882461
0.000882414
0.000882319
0.000882118
0.000881823
0.000881472
0.000881129
0.000880791
0.000880473
0.000880178
0.000879868
0.000879625
0.000879297
0.000878886
0.000880546
0.000880919
0.000881294
0.000881579
0.000881796
0.000881964
0.000882098
0.0008821
0.000881986
0.000881693
0.000881286
0.000880802
0.00088043
0.000880127
0.000879875
0.000879668
0.000879489
0.000879262
0.000878946
0.000878553
0.000880445
0.000880685
0.000880928
0.000881093
0.000881233
0.000881376
0.000881539
0.000881594
0.000881524
0.000881282
0.000880974
0.000880614
0.000880269
0.000880026
0.000879801
0.00087962
0.000879457
0.000879246
0.000878974
0.000878688
0.000880483
0.000880626
0.000880777
0.0008809
0.000881017
0.000881113
0.00088118
0.000881195
0.000881161
0.000881091
0.000880978
0.000880806
0.000880557
0.000880348
0.000880131
0.000879986
0.000879875
0.000879679
0.000879404
0.000879155
0.000880737
0.000880906
0.000881047
0.000881205
0.000881382
0.00088149
0.000881497
0.000881413
0.000881247
0.000881131
0.000881036
0.000880946
0.000880861
0.000880752
0.000880591
0.00088047
0.000880402
0.000880216
0.000879963
0.00087965
0.000881044
0.000881326
0.000881511
0.00088176
0.00088199
0.000882102
0.000882087
0.000881965
0.000881725
0.000881551
0.000881391
0.000881266
0.000881237
0.000881315
0.000881177
0.000881038
0.000880881
0.000880686
0.000880479
0.000880101
0.000881274
0.000881645
0.000881945
0.000882243
0.000882333
0.00088238
0.000882376
0.000882317