/*--------------------------------*- C++ -*----------------------------------*\
  =========                 |
  \\      /  F ield         | OpenFOAM: The Open Source CFD Toolbox
   \\    /   O peration     | Website:  https://openfoam.org
    \\  /    A nd           | Version:  6
     \\/     M anipulation  |
\*---------------------------------------------------------------------------*/
FoamFile
{
    version     2.0;
    format      ascii;
    class       volScalarField;
    location    "12";
    object      nut;
}
// * * * * * * * * * * * * * * * * * * * * * * * * * * * * * * * * * * * * * //

dimensions      [0 2 -1 0 0 0 0];

internalField   nonuniform List<scalar> 
10000
(
1.34515e-05
6.83644e-05
9.21491e-05
0.000124653
0.000169708
0.000222866
0.000278541
0.000329403
0.000368388
0.000389778
0.000390887
0.000370583
0.0003322
0.000282138
0.00022727
0.000174498
0.000129718
9.61823e-05
6.99891e-05
1.35882e-05
1.31799e-05
6.83272e-05
9.18914e-05
0.000125316
0.000171229
0.000224377
0.000280592
0.000332616
0.000372893
0.000394803
0.000394393
0.000373632
0.000334403
0.000283861
0.000228743
0.000175761
0.000131473
9.75665e-05
7.05109e-05
1.36005e-05
1.33323e-05
6.84301e-05
9.36285e-05
0.000125534
0.000171544
0.000224894
0.000280472
0.000331663
0.000371303
0.000392774
0.000398033
0.00037968
0.000335774
0.00028499
0.000229829
0.00017758
0.000130382
9.63725e-05
6.98804e-05
1.35883e-05
1.33975e-05
6.84368e-05
9.35936e-05
0.000125777
0.000170784
0.000227091
0.000280922
0.000331271
0.000370055
0.000391914
0.00039487
0.000376129
0.000336341
0.000288403
0.000232885
0.000176929
0.000131829
9.69507e-05
6.89606e-05
1.33659e-05
1.31758e-05
6.84317e-05
9.25763e-05
0.000126853
0.000171448
0.000225889
0.000281151
0.00033173
0.000370637
0.000393767
0.000392814
0.000375428
0.000337767
0.000289524
0.000234233
0.000178307
0.000129391
9.62635e-05
7.05351e-05
1.35465e-05
1.32395e-05
6.78235e-05
9.258e-05
0.000125873
0.000172831
0.0002273
0.000285475
0.000334917
0.000371826
0.000392535
0.000392922
0.000374788
0.000335437
0.000286451
0.000232439
0.00017876
0.000130397
9.47674e-05
6.9945e-05
1.35176e-05
1.32342e-05
6.88496e-05
9.37438e-05
0.000127617
0.000173893
0.000227362
0.000283495
0.00033479
0.00037287
0.00039352
0.000393849
0.000375795
0.000338916
0.000289942
0.000235539
0.000181566
0.000132922
9.61193e-05
7.05806e-05
1.35861e-05
1.33852e-05
6.96739e-05
9.27078e-05
0.000126917
0.000173608
0.000229107
0.00028495
0.00033906
0.000378119
0.000398871
0.000398521
0.000378069
0.000339254
0.000288592
0.000236057
0.000181158
0.000131762
9.68479e-05
6.95718e-05
1.36897e-05
1.32569e-05
6.91479e-05
9.25572e-05
0.000129657
0.000174626
0.000229233
0.000286713
0.000338299
0.000377323
0.000398102
0.000398466
0.00038051
0.000341601
0.000290941
0.000235803
0.000180874
0.000133094
9.43934e-05
6.94624e-05
1.3698e-05
1.33694e-05
6.82309e-05
9.25327e-05
0.000128121
0.000175679
0.000232338
0.000286902
0.000339109
0.000375884
0.000398839
0.000398883
0.000377891
0.000338001
0.000288068
0.000233136
0.000180738
0.000133121
9.6212e-05
6.95093e-05
1.36683e-05
1.34519e-05
7.05086e-05
9.3474e-05
0.000127011
0.000175801
0.000231935
0.000288664
0.000337291
0.000375085
0.000395921
0.000395837
0.000376016
0.000338125
0.000290162
0.000234146
0.000182082
0.000136434
9.90476e-05
7.07952e-05
1.39338e-05
1.34921e-05
6.89493e-05
9.21718e-05
0.000127069
0.000174116
0.000230284
0.000288649
0.000339402
0.000375884
0.000396717
0.000396742
0.000378761
0.000341059
0.00029191
0.000236397
0.000182203
0.000136377
9.96267e-05
7.27121e-05
1.39152e-05
1.32287e-05
6.87811e-05
9.33562e-05
0.000127984
0.000174831
0.000232554
0.000289755
0.000337195
0.0003761
0.000396388
0.000398325
0.000375797
0.000339241
0.000288385
0.000235874
0.00018175
0.000136424
9.95096e-05
7.22199e-05
1.40449e-05
1.33944e-05
6.87292e-05
9.33944e-05
0.000127461
0.000175877
0.000230747
0.000285246
0.000337369
0.000377354
0.000396412
0.000397674
0.000375927
0.000339997
0.0002878
0.000233167
0.000183848
0.000135428
9.95197e-05
7.15688e-05
1.39923e-05
1.35645e-05
6.86863e-05
9.37348e-05
0.000128871
0.000175133
0.00023106
0.000285075
0.000334827
0.000374794
0.000396874
0.000396956
0.000375481
0.000340166
0.000288766
0.000232928
0.000181368
0.000137139
0.000102416
7.15353e-05
1.39634e-05
1.34359e-05
6.87846e-05
9.34812e-05
0.000127135
0.00017361
0.000227623
0.000282566
0.000333908
0.00037834
0.000397045
0.000396017
0.000375748
0.000341341
0.000293251
0.000234585
0.000179964
0.000134105
9.87671e-05
7.03058e-05
1.3757e-05
1.35929e-05
6.89456e-05
9.3455e-05
0.000127414
0.000173669
0.000230494
0.000284655
0.000333666
0.000373445
0.00039195
0.000393013
0.000375066
0.000341022
0.000291055
0.00023481
0.000177446
0.000132652
9.7349e-05
7.06893e-05
1.36652e-05
1.34598e-05
6.98211e-05
9.65355e-05
0.00012919
0.000173084
0.000225947
0.000283654
0.000334773
0.000374572
0.000394067
0.000393937
0.000378717
0.000339887
0.000290457
0.000233131
0.000178397
0.000131013
9.52792e-05
6.988e-05
1.35333e-05
1.35107e-05
6.76865e-05
9.41617e-05
0.000127259
0.00017176
0.000224894
0.000280576
0.000331151
0.000369813
0.000390823
0.00039384
0.000373006
0.00033634
0.000285371
0.00023017
0.000178223
0.0001312
9.48002e-05
6.90293e-05
1.34114e-05
1.34963e-05
6.81176e-05
9.37841e-05
0.000128689
0.000170299
0.000225805
0.000284002
0.000335094
0.000375354
0.000394059
0.000391978
0.000374008
0.000334009
0.000282431
0.000228396
0.000176153
0.000130491
9.47679e-05
6.91395e-05
1.33304e-05
1.3458e-05
6.87474e-05
9.58372e-05
0.000126811
0.000169829
0.000224309
0.000283213
0.000333283
0.000371273
0.000392205
0.000390776
0.000371377
0.000335783
0.000283521
0.000227637
0.000175791
0.000128611
9.54642e-05
6.90769e-05
1.32893e-05
1.34728e-05
6.87026e-05
9.27637e-05
0.000124811
0.000169883
0.000223218
0.000281144
0.0003328
0.000369464
0.000391925
0.000391157
0.000371835
0.000336608
0.00028291
0.000226554
0.000173504
0.000127582
9.38206e-05
6.85407e-05
1.32326e-05
1.34395e-05
6.94475e-05
9.21614e-05
0.000125315
0.000171496
0.00022376
0.000279355
0.000329935
0.0003685
0.000390868
0.000392981
0.00037335
0.000335404
0.000283375
0.000226721
0.000172346
0.000127846
9.42974e-05
6.86834e-05
1.34302e-05
1.33781e-05
6.82124e-05
9.32111e-05
0.000125937
0.000171812
0.00022653
0.000281906
0.000335143
0.000374141
0.000390781
0.000390725
0.000370356
0.000332197
0.000282809
0.000226063
0.000173864
0.000129684
9.38817e-05
6.78937e-05
1.33034e-05
1.34835e-05
6.82479e-05
9.29004e-05
0.000127658
0.000173597
0.000226874
0.000280974
0.00033132
0.000371189
0.000392939
0.000394177
0.000373072
0.000334099
0.00028362
0.000227251
0.000172269
0.000127216
9.55341e-05
6.97007e-05
1.34989e-05
1.346e-05
6.87777e-05
9.56356e-05
0.000127193
0.000172535
0.000227541
0.000283335
0.000334063
0.000369883
0.000390397
0.000390828
0.000369485
0.000331766
0.000284816
0.000228856
0.00017251
0.000127798
9.59924e-05
7.03462e-05
1.3489e-05
1.35153e-05
6.89594e-05
9.49374e-05
0.000127749
0.000173335
0.000229603
0.000284404
0.000334282
0.000372575
0.000391665
0.000393712
0.000370395
0.00033204
0.000283406
0.000228164
0.000172872
0.000128435
9.77737e-05
7.07372e-05
1.35985e-05
1.35189e-05
6.9496e-05
9.65686e-05
0.000130073
0.000175161
0.00022742
0.000283269
0.000334058
0.000372218
0.000392082
0.00039315
0.000372538
0.0003339
0.000282204
0.000229588
0.000174077
0.000128327
9.6929e-05
7.11165e-05
1.37122e-05
1.35214e-05
6.86604e-05
9.57379e-05
0.000128885
0.000175051
0.000228076
0.000285404
0.000339509
0.000376689
0.000393812
0.000394143
0.000371036
0.000332027
0.00028174
0.000227015
0.000173753
0.000128406
9.58449e-05
7.19938e-05
1.36483e-05
1.35952e-05
6.99042e-05
9.77645e-05
0.000127641
0.000173982
0.000230505
0.000284296
0.000335521
0.000377327
0.000396707
0.000393894
0.000374412
0.000334834
0.000282825
0.000228167
0.000176081
0.000129149
9.58918e-05
7.16568e-05
1.37931e-05
1.3656e-05
6.99733e-05
9.46382e-05
0.000127271
0.000173826
0.000228846
0.000282625
0.000335107
0.000375216
0.000396573
0.00039433
0.000374253
0.000335617
0.000283921
0.000230306
0.000175617
0.000129546
9.48698e-05
7.1438e-05
1.37593e-05
1.37505e-05
7.00882e-05
9.42973e-05
0.000127977
0.00017472
0.000231025
0.000283466
0.000333386
0.00037379
0.000396483
0.000398946
0.0003749
0.000338113
0.000287091
0.000231846
0.000177486
0.000132414
9.73889e-05
7.09842e-05
1.35752e-05
1.38271e-05
7.03566e-05
9.41993e-05
0.000129135
0.000176995
0.000230329
0.000283685
0.000333401
0.000372164
0.000394169
0.000395588
0.000377559
0.000339121
0.000287283
0.000229877
0.000175536
0.00013098
9.75887e-05
7.14562e-05
1.36695e-05
1.37635e-05
7.10525e-05
9.50431e-05
0.000130087
0.000176568
0.000229974
0.000284056
0.000334271
0.000374892
0.000399899
0.000401143
0.000380539
0.000342265
0.000288791
0.000233324
0.00017672
0.000130499
9.66667e-05
7.05505e-05
1.36791e-05
1.41114e-05
7.00744e-05
9.43376e-05
0.000131749
0.000179044
0.000232264
0.000287335
0.000336328
0.000372769
0.00039494
0.000396004
0.000376078
0.000339939
0.000286521
0.0002301
0.000176554
0.000132197
9.70313e-05
7.11832e-05
1.37546e-05
1.41292e-05
7.00952e-05
9.53581e-05
0.000131326
0.000180909
0.000232557
0.000286144
0.000336209
0.000374796
0.000399408
0.000399272
0.000378158
0.000337529
0.000289276
0.00023386
0.000176648
0.000130572
9.70377e-05
7.01963e-05
1.35877e-05
1.40601e-05
7.161e-05
9.76316e-05
0.000132003
0.000179818
0.000231283
0.000284959
0.000332892
0.000370921
0.000392607
0.000396481
0.000377252
0.000337123
0.00028938
0.000232977
0.000178785
0.000131462
9.87261e-05
7.01924e-05
1.36381e-05
1.40152e-05
7.09196e-05
9.65023e-05
0.00013191
0.000180441
0.000230697
0.000283729
0.00033244
0.000371315
0.000391566
0.00039367
0.000375606
0.000337995
0.000285957
0.00023052
0.000178006
0.000131565
9.68913e-05
6.98741e-05
1.36389e-05
1.39783e-05
7.15822e-05
9.71721e-05
0.000132083
0.000179637
0.000232425
0.000287496
0.00033338
0.000370284
0.000391275
0.000392906
0.000373698
0.000336342
0.000287319
0.0002307
0.000177097
0.000132164
9.72906e-05
7.02471e-05
1.3669e-05
1.38369e-05
7.08524e-05
9.80524e-05
0.000132324
0.000180124
0.000231352
0.000284832
0.000335554
0.000373404
0.000394522
0.000395022
0.000376594
0.00033756
0.000288521
0.000232078
0.000179005
0.000133919
9.88064e-05
7.06457e-05
1.359e-05
1.37871e-05
7.11555e-05
9.77128e-05
0.000133041
0.000178284
0.000233377
0.000285094
0.000333401
0.000370859
0.000392059
0.000397913
0.000378344
0.000341296
0.000288142
0.000233745
0.000177256
0.000131772
9.65976e-05
6.83869e-05
1.34526e-05
1.35833e-05
7.08102e-05
9.6769e-05
0.000131973
0.000179784
0.00023376
0.000286144
0.000334016
0.000374441
0.000392636
0.000390595
0.000370622
0.000335295
0.000284758
0.000233253
0.000178022
0.000130409
9.45101e-05
6.87715e-05
1.33937e-05
1.3372e-05
6.93319e-05
9.44113e-05
0.00013202
0.000180793
0.000232184
0.000289336
0.000334438
0.000369744
0.000389733
0.00038986
0.000369895
0.000333911
0.000284016
0.000230906
0.000176618
0.000132205
9.68236e-05
6.9649e-05
1.33599e-05
1.34582e-05
6.95947e-05
9.40894e-05
0.000131617
0.000178731
0.000229483
0.000284781
0.000334201
0.000369843
0.000391897
0.00039044
0.000370447
0.000333583
0.000285189
0.000230579
0.000175809
0.000131415
9.67484e-05
6.91145e-05
1.35364e-05
1.34251e-05
7.02737e-05
9.39763e-05
0.000129414
0.00017625
0.000227896
0.000281787
0.000331204
0.000371079
0.000393366
0.000395645
0.000371946
0.000332964
0.000285355
0.00022956
0.000177094
0.000130775
9.54106e-05
7.05486e-05
1.35112e-05
1.34591e-05
6.96225e-05
9.41993e-05
0.000130587
0.000176701
0.000229614
0.00028337
0.000331933
0.0003691
0.000389955
0.000392433
0.000371151
0.000334801
0.000284587
0.000228258
0.000175272
0.000132546
9.88513e-05
7.1688e-05
1.36781e-05
1.35307e-05
7.04706e-05
9.49582e-05
0.000128917
0.000174478
0.000227837
0.000282951
0.000334471
0.000371961
0.000390243
0.000392909
0.000375665
0.000335533
0.000284732
0.000228877
0.000176318
0.000130713
9.74411e-05
7.10415e-05
1.36704e-05
1.34174e-05
6.89212e-05
9.44443e-05
0.000129672
0.000177948
0.000232259
0.00028753
0.000333151
0.000369702
0.000390313
0.000392785
0.000373257
0.000331997
0.000281164
0.000227529
0.000174761
0.000128896
9.55357e-05
7.03146e-05
1.34452e-05
1.36396e-05
7.10061e-05
9.58915e-05
0.000131397
0.000176658
0.000230305
0.000286906
0.000335952
0.000371415
0.000393475
0.000393873
0.000370978
0.000333744
0.00028128
0.000226422
0.000173605
0.000129576
9.56378e-05
7.02183e-05
1.3517e-05
1.36811e-05
6.93747e-05
9.61243e-05
0.000130145
0.000177306
0.000230449
0.000286428
0.000335899
0.000374147
0.000393174
0.000393978
0.000370345
0.000331717
0.000282947
0.000227994
0.000174071
0.000131813
9.48642e-05
7.01687e-05
1.34923e-05
1.36568e-05
7.07235e-05
9.63078e-05
0.000131759
0.00017534
0.000228128
0.000285803
0.000335539
0.000373682
0.000391284
0.000391118
0.000368119
0.000329472
0.000280446
0.000227424
0.000174412
0.000130573
9.62191e-05
7.05971e-05
1.36081e-05
1.35416e-05
6.88796e-05
9.61496e-05
0.000131226
0.000176255
0.000228529
0.00028466
0.000333447
0.000375169
0.000392775
0.000391362
0.000371188
0.00033088
0.000282642
0.000227221
0.000175369
0.000133039
9.69217e-05
7.12167e-05
1.36718e-05
1.36147e-05
6.88565e-05
9.43695e-05
0.000130383
0.000176164
0.000228767
0.000285915
0.000335339
0.000371364
0.000396323
0.000394615
0.000371792
0.000332869
0.000282843
0.000229154
0.00017458
0.000131197
9.56566e-05
7.0145e-05
1.36392e-05
1.36693e-05
7.05362e-05
9.57272e-05
0.000130924
0.00017561
0.000226995
0.000283138
0.000333902
0.000369552
0.000390714
0.000393487
0.000373212
0.000334734
0.000281476
0.000227822
0.000174881
0.000130129
9.61639e-05
7.05298e-05
1.36174e-05
1.36785e-05
7.00636e-05
9.75425e-05
0.000131731
0.000178558
0.000227418
0.000282065
0.000334205
0.00036984
0.000390544
0.000393692
0.000371761
0.000334331
0.00028287
0.000227405
0.000173259
0.000128653
9.45742e-05
6.96539e-05
1.3589e-05
1.35569e-05
6.92829e-05
9.66098e-05
0.000133136
0.000176208
0.000227747
0.000283852
0.000332078
0.000369571
0.000390367
0.000391331
0.000373685
0.000334791
0.00028269
0.000227128
0.000175389
0.000130989
9.5142e-05
6.87127e-05
1.33827e-05
1.3504e-05
6.99549e-05
9.8017e-05
0.000131273
0.000175501
0.000229384
0.00028296
0.000334836
0.00037319
0.000395494
0.000391758
0.000373262
0.000335702
0.000282776
0.00022699
0.00017472
0.000130242
9.64781e-05
6.90677e-05
1.34527e-05
1.35301e-05
6.97994e-05
9.69784e-05
0.000129991
0.000174838
0.00022888
0.000284126
0.000332701
0.000369888
0.000390047
0.000390478
0.00037115
0.00033566
0.000286412
0.000230243
0.000174256
0.000129141
9.51548e-05
6.87106e-05
1.34166e-05
1.33893e-05
6.93591e-05
9.52177e-05
0.000130073
0.000176442
0.000232309
0.000286488
0.000334952
0.000370577
0.000390625
0.000391321
0.000372978
0.000332879
0.000282798
0.000227689
0.000175164
0.000129638
9.5235e-05
6.9683e-05
1.33903e-05
1.33249e-05
6.93612e-05
9.5406e-05
0.000131513
0.000177242
0.000231726
0.000285634
0.0003351
0.000371193
0.000391288
0.00039213
0.0003747
0.000337068
0.0002881
0.000229067
0.000176506
0.000130732
9.69646e-05
6.94371e-05
1.34713e-05
1.33285e-05
6.84352e-05
9.55331e-05
0.000130331
0.00017722
0.000232215
0.000287862
0.000335621
0.000374224
0.000392679
0.000392946
0.000374559
0.000336905
0.000287992
0.000231
0.00017778
0.000132249
9.55009e-05
6.88756e-05
1.33649e-05
1.33802e-05
6.93647e-05
9.5317e-05
0.000130813
0.000178677
0.000230473
0.00028755
0.000334585
0.000374133
0.000393585
0.000396286
0.000377548
0.000339061
0.000288062
0.000229969
0.000177322
0.000130422
9.56354e-05
7.03374e-05
1.35737e-05
1.34569e-05
6.9681e-05
9.66454e-05
0.000132416
0.000177214
0.000229271
0.000284222
0.000334048
0.000374552
0.000394932
0.000394392
0.000373952
0.000336117
0.000286275
0.000230319
0.000176771
0.000130896
9.62776e-05
7.02525e-05
1.35886e-05
1.3488e-05
7.04676e-05
9.64546e-05
0.000131886
0.000177543
0.00023013
0.000287228
0.000336027
0.00037729
0.000400962
0.00039674
0.000375895
0.000339508
0.000289297
0.000231602
0.000179776
0.000131585
9.58278e-05
7.01386e-05
1.35377e-05
1.34646e-05
7.01078e-05
9.63151e-05
0.000132802
0.000178418
0.000231073
0.000286458
0.000338675
0.000377615
0.000399555
0.000399652
0.000376634
0.000338233
0.00028788
0.000231793
0.000177565
0.000132894
9.77065e-05
7.03712e-05
1.34459e-05
1.33921e-05
6.96991e-05
9.7699e-05
0.000133474
0.000180752
0.00023588
0.000291802
0.000341196
0.000379217
0.000398658
0.000398839
0.000378509
0.000342913
0.000291852
0.00023577
0.000177924
0.000131374
9.66738e-05
7.0456e-05
1.3562e-05
1.34254e-05
7.07618e-05
9.91084e-05
0.000135238
0.000181603
0.000236167
0.000291576
0.000343921
0.000381649
0.000402961
0.000401611
0.000380802
0.000343661
0.00029338
0.000233671
0.000179577
0.000133305
9.82462e-05
7.07137e-05
1.35313e-05
1.33447e-05
7.05989e-05
9.87395e-05
0.000135104
0.000182126
0.000237462
0.000293236
0.000344716
0.000384105
0.000408878
0.000405651
0.000385487
0.000344229
0.000292607
0.000235923
0.000179977
0.000132565
9.74225e-05
7.09473e-05
1.34643e-05
1.33085e-05
7.05175e-05
9.85231e-05
0.000135697
0.000184358
0.000239177
0.000296178
0.000347762
0.00038645
0.000411126
0.00041415
0.000392827
0.000351779
0.000296636
0.000237898
0.000180749
0.000132105
9.66144e-05
7.0411e-05
1.35244e-05
1.32978e-05
6.99343e-05
9.76479e-05
0.000135644
0.000186179
0.000241924
0.000296276
0.000346923
0.000386212
0.000409319
0.000414332
0.000393507
0.000351679
0.00029791
0.000238753
0.000182138
0.000132538
9.61383e-05
6.94424e-05
1.33988e-05
1.3178e-05
7.07251e-05
9.78015e-05
0.000136064
0.000186986
0.000244038
0.000301217
0.0003528
0.000392399
0.00041483
0.000416142
0.000395639
0.000355758
0.000301004
0.000240128
0.000182503
0.00013444
9.69984e-05
6.9895e-05
1.33379e-05
1.30639e-05
7.00491e-05
9.89175e-05
0.000137199
0.000189511
0.000247513
0.000306362
0.000358653
0.000399185
0.000419718
0.000420034
0.000399249
0.000360627
0.000305176
0.000241244
0.000182531
0.000134796
9.82944e-05
6.9466e-05
1.32706e-05
1.29448e-05
6.98733e-05
9.8598e-05
0.00013777
0.000190432
0.00024915
0.000308457
0.000361503
0.000402685
0.000427689
0.000428605
0.00040637
0.000364064
0.000306836
0.000243245
0.000183185
0.000133831
9.78661e-05
7.02232e-05
1.31585e-05
1.29829e-05
6.90735e-05
9.83722e-05
0.000136289
0.000191089
0.000252145
0.000311898
0.000365692
0.000406727
0.000431452
0.000432292
0.000410116
0.000368331
0.000311167
0.000244996
0.000184061
0.000134027
9.77988e-05
6.91898e-05
1.30497e-05
1.2905e-05
6.88724e-05
9.77089e-05
0.000135245
0.000190906
0.000254506
0.000317377
0.000373991
0.00041538
0.000436095
0.000437857
0.000415253
0.000372886
0.000314736
0.000247049
0.000185192
0.00013451
9.78792e-05
6.89851e-05
1.29968e-05
1.28341e-05
6.87735e-05
9.75274e-05
0.000135204
0.000189422
0.000256712
0.000321557
0.000378578
0.000421063
0.000441695
0.000444216
0.0004206
0.000376801
0.00031781
0.000249244
0.000186732
0.000135257
9.79364e-05
6.95777e-05
1.29153e-05
1.2667e-05
6.88872e-05
9.71268e-05
0.000135625
0.000191026
0.000259822
0.00032613
0.000384441
0.000426998
0.000448677
0.000450419
0.000423866
0.000379694
0.000321224
0.000251837
0.000190604
0.000136582
9.77703e-05
6.9046e-05
1.28125e-05
1.25806e-05
6.79993e-05
9.67927e-05
0.000136756
0.000195517
0.000263304
0.000331219
0.000390849
0.000434902
0.000459351
0.000458966
0.00043342
0.000386701
0.000325226
0.000253847
0.000190618
0.000138875
9.7811e-05
6.93732e-05
1.27307e-05
1.24165e-05
6.81426e-05
9.59766e-05
0.000138274
0.00019605
0.0002656
0.00033624
0.000397783
0.000443636
0.000469344
0.000467933
0.000440218
0.000392591
0.000330217
0.000256768
0.000190681
0.000137652
9.67801e-05
6.88503e-05
1.25189e-05
1.22042e-05
6.72073e-05
9.48039e-05
0.000139553
0.000196855
0.000270791
0.000342758
0.000406603
0.000454821
0.000480391
0.000478991
0.000450235
0.000400757
0.000336028
0.000260429
0.000191592
0.000138721
9.64865e-05
6.84867e-05
1.22271e-05
1.19446e-05
6.67583e-05
9.5528e-05
0.000139472
0.000201458
0.000275684
0.000350022
0.000416142
0.0004661
0.000492438
0.00049125
0.000462845
0.00041186
0.000344649
0.000268303
0.000194289
0.000139328
9.70517e-05
6.77487e-05
1.18181e-05
1.1622e-05
6.50594e-05
9.31155e-05
0.000137096
0.000201456
0.000279539
0.000358109
0.000427126
0.000478717
0.000505766
0.0005044
0.000474702
0.000422147
0.00035264
0.000272643
0.000197684
0.000139096
9.61577e-05
6.64453e-05
1.11852e-05
1.12868e-05
6.3861e-05
9.06071e-05
0.000135635
0.000207745
0.000284032
0.000367031
0.000438919
0.000492446
0.000520618
0.000519474
0.00048919
0.000434598
0.00036265
0.000281221
0.000202023
0.000139664
9.56949e-05
6.49712e-05
1.04747e-05
1.09195e-05
6.34561e-05
9.02433e-05
0.000138479
0.000209899
0.000289806
0.000377425
0.000452084
0.000507359
0.0005365
0.000535706
0.000505087
0.000448608
0.000373128
0.00028646
0.000206008
0.000141292
9.56076e-05
6.33258e-05
1.01677e-05
1.03163e-05
6.27544e-05
9.29852e-05
0.000143419
0.000213597
0.000298728
0.000389313
0.000466539
0.000523496
0.000553588
0.00055297
0.000521733
0.000463734
0.000385857
0.000296829
0.000216975
0.000147321
9.55053e-05
6.17316e-05
9.97449e-06
9.70874e-06
6.10123e-05
9.61774e-05
0.000149249
0.000222808
0.000314113
0.000404021
0.000482724
0.00054112
0.000572202
0.000571807
0.000539907
0.000480346
0.000400878
0.000311475
0.00022522
0.000152687
9.45714e-05
5.98781e-05
9.79525e-06
9.65587e-06
5.90871e-05
9.42981e-05
0.000155412
0.000237903
0.000326628
0.000417753
0.000498676
0.000558679
0.00059145
0.000591716
0.000558864
0.000496533
0.000413934
0.000321859
0.000233245
0.000160569
9.79141e-05
5.93082e-05
1.01273e-05
1.02187e-05
5.81951e-05
9.92583e-05
0.000163317
0.000251509
0.000348529
0.00044018
0.000522458
0.000583402
0.000615498
0.000615448
0.000582639
0.000520211
0.000435128
0.000339389
0.000245462
0.000167859
0.000101519
5.79124e-05
1.01801e-05
1.04164e-05
5.8273e-05
0.000110955
0.000179295
0.000269405
0.000368025
0.000467084
0.00055201
0.000615156
0.000647412
0.000647226
0.000614539
0.000552269
0.000465753
0.000362922
0.000263646
0.000180691
0.000110671
5.85675e-05
1.08417e-05
1.13226e-05
6.12929e-05
0.000119856
0.000195468
0.000288871
0.000396204
0.000502099
0.000587499
0.000647544
0.000678555
0.000678322
0.000646355
0.000584073
0.00049686
0.000393093
0.000283564
0.000188519
0.000117988
5.98885e-05
1.15625e-05
1.21626e-05
6.64924e-05
0.000131008
0.000211697
0.000319123
0.000433221
0.000536831
0.000620853
0.000679517
0.000709615
0.000709691
0.000679417
0.000619498
0.000532129
0.000423889
0.000312619
0.000212707
0.000125681
6.4564e-05
1.21813e-05
1.31077e-05
6.96707e-05
0.000143752
0.000237213
0.000348939
0.000468163
0.000573187
0.000655844
0.000712116
0.000740502
0.000740606
0.000712278
0.000655584
0.000571556
0.000462818
0.000344857
0.000235141
0.000141432
7.02264e-05
1.33209e-05
1.46311e-05
7.49816e-05
0.000153957
0.000260717
0.000385995
0.000508614
0.000612674
0.000691756
0.000744001
0.000769855
0.000769953
0.000744177
0.000691671
0.000612014
0.000507504
0.000384958
0.000262989
0.000155954
7.41515e-05
1.44769e-05
1.5878e-05
8.00784e-05
0.000172803
0.000293814
0.000427666
0.00055175
0.000653102
0.000726815
0.000773599
0.000796148
0.000796174
0.000773597
0.000726506
0.000652052
0.00054931
0.000422739
0.000291042
0.000174301
8.06841e-05
1.59034e-05
1.74197e-05
8.78353e-05
0.000195903
0.000327235
0.000468979
0.000595208
0.000692497
0.000758853
0.000798692
0.000817491
0.000817516
0.000798747
0.000758848
0.000692287
0.000594701
0.000468189
0.000325818
0.000193332
8.72572e-05
1.74306e-05
1.90851e-05
9.82189e-05
0.000216842
0.000364588
0.000516074
0.000642815
0.000732491
0.000788421
0.00081935
0.000832311
0.000832308
0.000819336
0.000788371
0.000732363
0.000642574
0.000515757
0.000364248
0.000217271
9.83741e-05
1.90746e-05
2.04717e-05
0.000112696
0.000248058
0.000413256
0.000575194
0.000696892
0.000772992
0.000814643
0.000834033
0.00084121
0.000841197
0.000834006
0.000814611
0.000772873
0.000696657
0.000574729
0.000412489
0.000247128
0.000112167
2.05177e-05
2.21373e-05
0.000132438
0.000292228
0.000486757
0.000652231
0.000757644
0.000811757
0.000834798
0.00084363
0.000846902
0.000846902
0.000843617
0.000834766
0.000811784
0.0007578
0.000652714
0.000487427
0.000293211
0.000133027
2.21082e-05
2.37255e-05
0.000165522
0.000384977
0.000607891
0.000749812
0.000812422
0.000836737
0.000845338
0.000849421
0.000850964
0.000850979
0.000849482
0.000845502
0.000836999
0.00081259
0.000749339
0.000606775
0.000383751
0.000165109
2.37806e-05
2.56411e-05
0.000278746
0.00062046
0.000792564
0.000839169
0.000849029
0.000850401
0.000851733
0.000852001
0.00085197
0.000851969
0.000851998
0.000851735
0.000850409
0.000849006
0.000839245
0.000793085
0.000621294
0.000279172
2.56257e-05
3.77427e-05
0.000109165
0.000134226
0.000159311
0.00019431
0.00023895
0.000293745
0.000352521
0.000403623
0.00043036
0.000427252
0.000394597
0.000342215
0.000283687
0.000231451
0.000190083
0.000156365
0.000132148
0.000107735
3.61479e-05
3.82651e-05
0.000109014
0.000136438
0.000160585
0.000197624
0.000242435
0.00029726
0.00035522
0.000406571
0.00043121
0.000427955
0.000395873
0.000344211
0.000285107
0.000232739
0.000193857
0.000157365
0.000132991
0.000108592
3.56344e-05
3.77749e-05
0.000106815
0.000132948
0.000160802
0.000197008
0.000241882
0.000300104
0.000361004
0.000415274
0.000433207
0.000429417
0.000397057
0.000345184
0.000286586
0.000233989
0.000190434
0.000158035
0.000133493
0.000109115
3.69958e-05
3.66057e-05
0.000107903
0.000132715
0.000161973
0.000197547
0.000239675
0.000295299
0.000351679
0.000403072
0.000431899
0.000432284
0.000400299
0.000352012
0.000287517
0.000235921
0.000191565
0.000161039
0.000134173
0.00010771
3.63035e-05
3.72159e-05
0.000109558
0.000134906
0.000165175
0.000198592
0.000242262
0.000298562
0.000353252
0.000404724
0.000435124
0.000439062
0.000407774
0.000350937
0.000291698
0.00023429
0.000192882
0.000156778
0.000136367
0.000107335
3.71466e-05
3.64234e-05
0.000107711
0.000136643
0.000163501
0.000196505
0.000241124
0.000297299
0.000354002
0.000405575
0.000437566
0.000440972
0.000403181
0.000348294
0.000288734
0.000235521
0.000188499
0.00015697
0.000133701
0.000107035
3.61878e-05
3.59697e-05
0.000111363
0.000136268
0.000166342
0.000197795
0.000242611
0.00029706
0.000359471
0.000407082
0.000442843
0.000441702
0.000397058
0.000343014
0.000284427
0.000230984
0.000189399
0.000157517
0.000132842
0.000111824
3.47611e-05
3.77771e-05
0.000108612
0.000134588
0.000163114
0.000199531
0.000243834
0.000294636
0.000353218
0.000407429
0.000447153
0.000442603
0.000398576
0.000343797
0.000286819
0.000231325
0.000190639
0.000161742
0.000133358
0.000111246
3.58986e-05
3.74378e-05
0.000109426
0.00013452
0.000164488
0.00020041
0.000240448
0.000293392
0.000352902
0.000409532
0.000445528
0.000440532
0.000404101
0.000349202
0.000285619
0.000232329
0.000190804
0.000159005
0.00013337
0.000110109
3.54466e-05
3.68894e-05
0.00010899
0.00013627
0.00016473
0.000198767
0.000241103
0.000294839
0.000353834
0.000418217
0.000442714
0.00043545
0.00039767
0.000344857
0.000287226
0.000235371
0.000191519
0.000163011
0.000136024
0.000108132
3.61531e-05
3.77634e-05
0.000107407
0.000138128
0.000167111
0.000201445
0.000245713
0.000300361
0.000354966
0.000408219
0.000443166
0.000440228
0.000396802
0.000345439
0.000287379
0.000232867
0.000190194
0.000160966
0.000131673
0.000107585
3.66996e-05
3.66206e-05
0.000108533
0.000135048
0.000164472
0.000197723
0.000239448
0.000298299
0.00035782
0.000412709
0.000431086
0.000438088
0.000395933
0.000350565
0.000288391
0.000233271
0.000192253
0.000160467
0.00013084
0.000106918
3.53269e-05
3.60211e-05
0.000110378
0.000138581
0.000163347
0.000197285
0.000239689
0.000294762
0.000350579
0.00039976
0.000426701
0.000424811
0.000392709
0.000343119
0.000283037
0.000229957
0.000189691
0.000157854
0.000132935
0.000110366
3.62064e-05
3.75345e-05
0.000107082
0.000135549
0.000165699
0.00019679
0.000243777
0.000291141
0.000355286
0.000407195
0.000427586
0.000425112
0.000393448
0.000348592
0.00028479
0.000230349
0.000189865
0.000158489
0.000137002
0.000113057
3.66675e-05
3.58357e-05
0.000107556
0.000133525
0.000162315
0.000198255
0.000241273
0.000289855
0.000347207
0.000396504
0.000424873
0.000424447
0.00039306
0.000341625
0.000284178
0.000230769
0.000189209
0.000160163
0.000131213
0.000110659
3.62029e-05
3.56124e-05
0.000108632
0.000133688
0.000160228
0.000196089
0.000244234
0.000291523
0.000349161
0.000398309
0.000428895
0.000430099
0.000396435
0.000342352
0.000287016
0.000232661
0.000187941
0.000156992
0.000133447
0.000106093
3.5822e-05
3.50297e-05
0.000111722
0.000133436
0.0001616
0.000197246
0.000241567
0.000291635
0.0003516
0.000400449
0.000434543
0.000443458
0.000407106
0.000343873
0.000288066
0.000231168
0.000188881
0.000157956
0.000130498
0.000107354
3.5932e-05
3.54144e-05
0.000110813
0.000135015
0.000163437
0.000198493
0.000241263
0.000292818
0.00034828
0.0004076
0.000444629
0.000442742
0.00040424
0.000344096
0.000287261
0.000233404
0.000190659
0.000159468
0.00012753
0.000105429
3.55008e-05
3.49999e-05
0.00010685
0.000139116
0.000167022
0.000202358
0.000245122
0.00029774
0.000353763
0.000403687
0.000438908
0.000441321
0.000403341
0.000348293
0.000284645
0.000228669
0.000187546
0.000158007
0.000128294
0.000104067
3.61991e-05
3.6206e-05
0.000107248
0.000136376
0.000164813
0.000203447
0.000245589
0.000294533
0.000348091
0.000400014
0.000446402
0.000439206
0.000399224
0.000345559
0.000289173
0.000230808
0.000185657
0.000156363
0.000128168
0.000102699
3.48683e-05
3.66531e-05
0.000111052
0.000137046
0.000163672
0.000202878
0.000245011
0.000296065
0.000348975
0.000399906
0.000438142
0.000430476
0.000403547
0.00034238
0.000284905
0.000227576
0.000186541
0.000160728
0.000132825
0.000105551
3.59348e-05
3.69083e-05
0.000105438
0.000139322
0.000163956
0.000202124
0.000246731
0.000301653
0.00035189
0.000401509
0.000430408
0.000430102
0.000397914
0.000343474
0.000283629
0.000228978
0.000186439
0.000155992
0.000128944
0.0001077
3.67739e-05
3.67248e-05
0.00010713
0.000134565
0.00016342
0.000200081
0.000247795
0.000300433
0.000354454
0.000403497
0.000435065
0.000434522
0.000401632
0.000350531
0.00028784
0.000229516
0.000187117
0.000154276
0.000131197
0.000107725
3.6004e-05
3.66502e-05
0.000109588
0.000139944
0.000164209
0.000203351