/*--------------------------------*- C++ -*----------------------------------*\
  =========                 |
  \\      /  F ield         | OpenFOAM: The Open Source CFD Toolbox
   \\    /   O peration     | Website:  https://openfoam.org
    \\  /    A nd           | Version:  6
     \\/     M anipulation  |
\*---------------------------------------------------------------------------*/
FoamFile
{
    version     2.0;
    format      ascii;
    class       volScalarField;
    location    "12";
    object      p;
}
// * * * * * * * * * * * * * * * * * * * * * * * * * * * * * * * * * * * * * //

dimensions      [0 2 -2 0 0 0 0];

internalField   nonuniform List<scalar> 
10000
(
-0.0438148
-0.0458213
-0.0413489
-0.0281332
-0.0180493
-0.0114227
-0.00694068
-0.00338801
-0.000290576
0.00164172
0.00239774
0.00156464
-0.000823077
-0.00480376
-0.0110453
-0.0199757
-0.0321422
-0.0464606
-0.047977
-0.0393048
-0.0925035
-0.0866644
-0.0659787
-0.0315303
-0.00167064
0.0188715
0.0311886
0.0393068
0.0452708
0.0494112
0.0523277
0.0535797
0.0551083
0.0555488
0.0533589
0.0437931
0.0232132
-0.00441876
-0.0244156
-0.035303
0.0155207
0.0155561
0.0225099
0.0373755
0.0556561
0.0743735
0.0905946
0.103265
0.112381
0.118546
0.122418
0.12478
0.126179
0.127877
0.130262
0.132407
0.1325
0.129172
0.120009
0.107632
0.153157
0.161774
0.166296
0.16937
0.172379
0.1754
0.17887
0.182933
0.187026
0.191039
0.19468
0.198558
0.203066
0.208453
0.214166
0.219461
0.222194
0.220353
0.214182
0.206441
0.290421
0.303117
0.30563
0.298148
0.287237
0.276425
0.26876
0.264646
0.263601
0.264437
0.266545
0.269956
0.274229
0.280073
0.286518
0.293181
0.299623
0.303601
0.301487
0.29501
0.35552
0.360759
0.363492
0.359885
0.352447
0.343842
0.336581
0.331686
0.329229
0.328552
0.328816
0.329653
0.331122
0.33307
0.335381
0.338147
0.340914
0.342905
0.342879
0.342205
0.381211
0.375155
0.375122
0.377108
0.379373
0.381843
0.383569
0.384654
0.385342
0.385759
0.386072
0.385951
0.384774
0.381931
0.377022
0.370693
0.364693
0.360718
0.361571
0.368803
0.426476
0.420793
0.422357
0.428133
0.434305
0.440179
0.444299
0.446651
0.447444
0.447478
0.446518
0.444427
0.441179
0.435923
0.428852
0.420761
0.413551
0.409261
0.409281
0.414797
0.501725
0.502784
0.506588
0.511985
0.516472
0.51851
0.518553
0.517533
0.516105
0.514394
0.512413
0.509804
0.505865
0.500689
0.494625
0.4878
0.481409
0.477129
0.477039
0.480962
0.582172
0.585966
0.587329
0.587387
0.587779
0.587367
0.586443
0.585404
0.584357
0.583582
0.583083
0.582567
0.582359
0.582378
0.582912
0.583997
0.584645
0.584567
0.583443
0.580936
0.634365
0.632341
0.631078
0.632295
0.635483
0.639679
0.643539
0.646603
0.648732
0.650338
0.651841
0.654417
0.658162
0.664439
0.67274
0.682584
0.692451
0.699273
0.697511
0.687141
0.69201
0.690378
0.688901
0.689789
0.693252
0.698417
0.703619
0.708225
0.711698
0.714405
0.716398
0.718527
0.721325
0.724955
0.729436
0.734717
0.740113
0.744563
0.745929
0.744459
0.756143
0.755529
0.754499
0.755209
0.758237
0.763018
0.768199
0.772759
0.776386
0.778926
0.780841
0.78198
0.782144
0.781246
0.779335
0.776466
0.773821
0.772607
0.774784
0.782274
0.836461
0.840732
0.843671
0.845023
0.845134
0.844907
0.844939
0.845535
0.84647
0.847495
0.848282
0.848285
0.847924
0.846241
0.843584
0.840144
0.836864
0.834956
0.834967
0.838806
0.925498
0.934087
0.93764
0.934072
0.92774
0.921809
0.917945
0.915992
0.915389
0.915194
0.915167
0.914956
0.91431
0.913222
0.911448
0.908641
0.905575
0.903215
0.902838
0.90533
0.995083
0.991192
0.988025
0.986121
0.98514
0.985105
0.98524
0.985192
0.984986
0.984909
0.984714
0.984227
0.984034
0.983917
0.984328
0.985292
0.98626
0.986636
0.986345
0.98616
1.08512
1.08314
1.07923
1.0735
1.06876
1.06502
1.06193
1.05959
1.05788
1.05657
1.05549
1.05471
1.05369
1.05328
1.05384
1.05611
1.06027
1.064
1.06455
1.06135
1.15335
1.15139
1.15064
1.14816
1.14432
1.13996
1.13607
1.13331
1.13149
1.13039
1.12978
1.12923
1.12872
1.12714
1.1242
1.12019
1.11569
1.11226
1.11384
1.11948
1.21623
1.21419
1.21578
1.21683
1.2157
1.21284
1.20947
1.20659
1.20468
1.2038
1.20404
1.2055
1.20778
1.21098
1.21452
1.21723
1.21864
1.2189
1.21824
1.21615
1.27817
1.27581
1.27662
1.27819
1.27867
1.27768
1.27576
1.27387
1.27239
1.2719
1.27211
1.27355
1.27692
1.2827
1.29131
1.30183
1.31164
1.31759
1.31575
1.306
1.32074
1.31853
1.31852
1.32107
1.32457
1.32754
1.32949
1.33034
1.33069
1.33083
1.33127
1.3321
1.3328
1.33402
1.33552
1.33725
1.33929
1.34054
1.34123
1.34177
1.3487
1.3455
1.34636
1.3523
1.36074
1.36936
1.37659
1.38152
1.38457
1.38635
1.3874
1.38723
1.38623
1.3828
1.37668
1.36815
1.35891
1.35212
1.35282
1.3622
1.40124
1.39918
1.4004
1.40629
1.4147
1.42341
1.43121
1.43715
1.44122
1.44344
1.44441
1.44416
1.44259
1.43945
1.43484
1.4286
1.42189
1.41672
1.41529
1.41789
1.49222
1.49504
1.49387
1.49233
1.49299
1.49561
1.49963
1.50384
1.5071
1.50908
1.50952
1.50829
1.50573
1.50189
1.49819
1.49579
1.49474
1.49534
1.49559
1.49279
1.58673
1.5885
1.58616
1.58421
1.58289
1.58216
1.58244
1.5831
1.58373
1.58388
1.58374
1.58305
1.58142
1.57912
1.5762
1.57276
1.5696
1.56838
1.56996
1.57125
1.68396
1.68996
1.69203
1.68861
1.6819
1.6748
1.66922
1.66558
1.66355
1.6625
1.66192
1.66162
1.66229
1.66385
1.66627
1.6689
1.67036
1.67019
1.66968
1.66844
1.76902
1.77353
1.77538
1.76937
1.7599
1.75079
1.74377
1.73936
1.73734
1.73674
1.73716
1.73873
1.74122
1.7455
1.75126
1.75816
1.76455
1.76776
1.76743
1.76353
1.83395
1.83385
1.83291
1.8288
1.82304
1.81681
1.81157
1.808
1.8061
1.80576
1.80655
1.80852
1.81214
1.81723
1.82372
1.83101
1.83773
1.84248
1.84355
1.83989
1.87583
1.86739
1.86475
1.86637
1.86858
1.87012
1.87039
1.86958
1.86867
1.8681
1.86822
1.86897
1.87013
1.87203
1.87437
1.87708
1.87997
1.88265
1.88419
1.88264
1.92977
1.92384
1.92228
1.92369
1.92613
1.92877
1.93045
1.9309
1.93047
1.92959
1.92858
1.92699
1.92491
1.92112
1.91571
1.90933
1.90332
1.89931
1.90026
1.90553
1.98816
1.98471
1.98322
1.98501
1.98774
1.99029
1.99192
1.99251
1.99215
1.99075
1.98867
1.98576
1.98162
1.97582
1.96846
1.96002
1.95273
1.94826
1.94822
1.95259
2.05638
2.05814
2.05913
2.06082
2.06185
2.06163
2.0605
2.05901
2.05738
2.05563
2.05322
2.05
2.04588
2.04046
2.03423
2.02752
2.0212
2.01706
2.01708
2.01918
2.11521
2.12051
2.12246
2.12127
2.11961
2.11887
2.11937
2.12042
2.12149
2.12231
2.12289
2.12334
2.1233
2.12359
2.12425
2.12517
2.12565
2.12533
2.12349
2.11871
2.16006
2.15284
2.15016
2.15334
2.15993
2.16859
2.17702
2.18382
2.1884
2.19193
2.19466
2.19784
2.20206
2.20825
2.21645
2.22618
2.23554
2.24166
2.23867
2.22709
2.25518
2.25616
2.25658
2.25704
2.25838
2.25967
2.26076
2.26176
2.26275
2.26362
2.26467
2.26642
2.26891
2.27292
2.27795
2.28361
2.28908
2.29308
2.29364
2.29194
2.35631
2.36731
2.37246
2.3691
2.3618
2.35248
2.34447
2.33894
2.33591
2.33429
2.33353
2.33291
2.3328
2.33257
2.33209
2.33134
2.3305
2.33017
2.33239
2.3387
2.41029
2.41226
2.41379
2.41226
2.40932
2.40582
2.40271
2.40039
2.39907
2.39841
2.39834
2.39852
2.39867
2.39854
2.39802
2.3973
2.39698
2.39717
2.39748
2.3991
2.44789
2.44051
2.43812
2.44083
2.4459
2.45168
2.45593
2.45862
2.45995
2.46105
2.46162
2.46206
2.46209
2.46149
2.46037
2.45897
2.45767
2.45686
2.4565
2.45724
2.51018
2.5062
2.50429
2.50579
2.50964
2.51484
2.51946
2.5232
2.52554
2.52704
2.52783
2.52832
2.52797
2.5271
2.52537
2.52309
2.52069
2.51885
2.51821
2.51871
2.5895
2.58747
2.58439
2.58357
2.58442
2.58657
2.58916
2.59199
2.59411
2.5958
2.59664
2.59721
2.59732
2.5971
2.59631
2.59512
2.59342
2.59186
2.59116
2.59144
2.68783
2.69066
2.68975
2.68666
2.6818
2.67635
2.67165
2.66851
2.66682
2.66608
2.66572
2.66595
2.66636
2.66768
2.66968
2.67248
2.67512
2.67668
2.67594
2.67389
2.77162
2.7783
2.77935
2.77289
2.76288
2.75261
2.74437
2.73861
2.73475
2.73241
2.73039
2.72889
2.72757
2.72714
2.72828
2.73175
2.73666
2.74101
2.74105
2.73713
2.81047
2.80436
2.80246
2.80297
2.80337
2.80321
2.80212
2.80014
2.7978
2.79547
2.79312
2.79028
2.78614
2.78038
2.77279
2.76469
2.7574
2.75267
2.75454
2.76354
2.85774
2.85291
2.85195
2.85404
2.85756
2.86091
2.8629
2.86361
2.8632
2.86229
2.861
2.85939
2.85722
2.85388
2.84829
2.8404
2.83125
2.82385
2.82303
2.82977
2.91118
2.90714
2.90574
2.9089
2.91392
2.91938
2.92393
2.92755
2.92988
2.93153
2.93266
2.93408
2.93577
2.93909
2.94352
2.94818
2.95172
2.95339
2.9504
2.9431
2.98943
2.98997
2.98967
2.99176
2.9944
2.99668
2.99823
2.9997
3.00088
3.00259
3.00427
3.00702
3.01093
3.01708
3.02545
3.03587
3.04623
3.05337
3.05151
3.04126
3.07955
3.08782
3.08936
3.08618
3.08148
3.07673
3.07298
3.0706
3.06934
3.0689
3.06909
3.07041
3.07254
3.07604
3.0804
3.08576
3.09074
3.09377
3.09395
3.09243
3.13993
3.14391
3.14642
3.14604
3.14315
3.13934
3.13595
3.13335
3.1315
3.13037
3.12964
3.12908
3.12804
3.12598
3.12263
3.1186
3.1146
3.11178
3.11358
3.12129
3.18248
3.18274
3.18394
3.18597
3.18753
3.18852
3.18918
3.18965
3.18973
3.18963
3.18917
3.18807
3.18558
3.18163
3.17612
3.16969
3.16403
3.16089
3.16163
3.16593
3.22823
3.22197
3.21823
3.22105
3.22798
3.23638
3.24361
3.24901
3.25199
3.25353
3.25343
3.25223
3.24939
3.245
3.23886
3.23202
3.22567
3.22176
3.22202
3.22448
3.30732
3.30903
3.31033
3.31212
3.31484
3.31804
3.32059
3.3227
3.32396
3.32485
3.32513
3.32541
3.3251
3.3248
3.32388
3.32274
3.321
3.31931
3.31849
3.31683
3.38894
3.39976
3.40704
3.40811
3.4054
3.40109
3.39725
3.39505
3.39409
3.39464
3.39565
3.39793
3.40123
3.40672
3.41374
3.42162
3.42825
3.43195
3.4298
3.42089
3.44113
3.44489
3.44628
3.44609
3.44622
3.44731
3.44912
3.45127
3.4532
3.45527
3.45712
3.45965
3.4625
3.467
3.47223
3.47824
3.48375
3.48718
3.48753
3.48502
3.50188
3.49652
3.49257
3.49221
3.49591
3.50229
3.50858
3.51362
3.51674
3.51869
3.51925
3.51898
3.51756
3.51576
3.51356
3.5123
3.51268
3.51447
3.51794
3.52344
3.60768
3.60905
3.60924
3.60615
3.60239
3.59872
3.59555
3.59339
3.59193
3.59071
3.5894
3.58753
3.58432
3.57931
3.57207
3.56339
3.55537
3.5509
3.5545
3.56483
3.69977
3.70579
3.70772
3.70166
3.69227
3.68243
3.67438
3.66888
3.66562
3.6638
3.66266
3.66188
3.66125
3.66056
3.65927
3.6577
3.65562
3.65432
3.65459
3.65429
3.74472
3.73708
3.73412
3.73365
3.73324
3.73329
3.73329
3.73334
3.73341
3.73422
3.7355
3.73807
3.74146
3.74699
3.75425
3.7628
3.76997
3.77336
3.76975
3.75819
3.80364
3.79686
3.79561
3.79782
3.79958
3.80055
3.80075
3.80102
3.80132
3.80256
3.80435
3.80744
3.81157
3.81745
3.82447
3.83241
3.83905
3.84224
3.83968
3.83208
3.87957
3.88122
3.88094
3.87826
3.87531
3.87276
3.87094
3.86975
3.86902
3.869
3.86946
3.87064
3.87185
3.87371
3.8755
3.87745
3.87981
3.88197
3.8818
3.88129
3.94599
3.94307
3.93989
3.93784
3.93683
3.93651
3.9363
3.93602
3.9358
3.9357
3.93581
3.93592
3.93586
3.93473
3.93129
3.92565
3.91905
3.91386
3.91303
3.91922
4.02298
4.02522
4.02676
4.0263
4.02314
4.01763
4.01163
4.00662
4.00313
4.00077
3.99915
3.99804
3.9968
3.9954
3.99345
3.99067
3.9878
3.98514
3.9827
3.98208
4.07666
4.08329
4.08743
4.0863
4.08209
4.07657
4.07145
4.06708
4.06352
4.06067
4.05801
4.05509
4.05187
4.04854
4.04572
4.04453
4.04477
4.04506
4.04317
4.03924
4.09698
4.09083
4.09171
4.09801
4.1059
4.11354
4.11921
4.12206
4.1226
4.12179
4.12035
4.11849
4.11547
4.11091
4.10417
4.09539
4.08624
4.07896
4.07843
4.08425
4.15875
4.15849
4.16135
4.16666
4.17315
4.1792
4.18368
4.18658
4.18821
4.18892
4.18945
4.18967
4.19038
4.19099
4.19104
4.19033
4.18794
4.18506
4.18245
4.17909
4.24913
4.25605
4.25937
4.25906
4.2578
4.25634
4.25572
4.25621
4.25734
4.25884
4.2607
4.26354
4.26714
4.27292
4.28068
4.28935
4.297
4.30085
4.2966
4.28311
4.33838
4.34308
4.34515
4.3452
4.34291
4.33904
4.33515
4.33214
4.3303
4.32943
4.3296
4.33047
4.33286
4.33636
4.34059
4.34503
4.34868
4.3506
4.34958
4.3448
4.41302
4.42037
4.4244
4.42362
4.41877
4.4115
4.40427
4.39832
4.39449
4.39212
4.39123
4.39126
4.39167
4.39209
4.39194
4.39032
4.38804
4.38571
4.38631
4.39075
4.44205
4.44702
4.45067
4.45285
4.45317
4.45212
4.45044
4.44876
4.44784
4.4476
4.44836
4.44919
4.45098
4.45237
4.45335
4.45374
4.45308
4.45185
4.45121
4.45187
4.44849
4.44333
4.44384
4.45251
4.46431
4.47599
4.48524
4.49148
4.49535
4.49803
4.50021
4.50257
4.50445
4.50621
4.50747
4.5074
4.50649
4.505
4.50431
4.50351
4.50103
4.49704
4.49882
4.50869
4.52129
4.53361
4.54313
4.54957
4.55341
4.5557
4.55711
4.55731
4.55699
4.55519
4.55255
4.54961
4.54656
4.54418
4.54333
4.54194
4.60901
4.6195
4.62457
4.62626
4.6265
4.62499
4.62308
4.62129
4.62005
4.61876
4.61741
4.61554
4.6119
4.60622
4.5986
4.58934
4.58056
4.57418
4.57234
4.5712
4.70764
4.72203
4.7274
4.72424
4.71687
4.70734
4.69867
4.69185
4.68733
4.68375
4.68115
4.67794
4.67503
4.67018
4.66271
4.65222
4.63923
4.62737
4.62204
4.62007
4.7631
4.76732
4.76924
4.76841
4.76561
4.76122
4.75633
4.75165
4.74781
4.74492
4.74281
4.74163
4.74063
4.74054
4.74067
4.73979
4.73812
4.73542
4.72907
4.71643
4.79749
4.7913
4.7892
4.79336
4.79961
4.80529
4.80769
4.80745
4.80571
4.80389
4.80231
4.8008
4.80036
4.80086
4.80295
4.80686
4.81166
4.81562
4.81286
4.80154
4.84754
4.8448
4.84323
4.84639
4.85301
4.85994
4.86436
4.86588
4.86522
4.86339
4.8612
4.85941
4.85714
4.85503
4.85309
4.85179
4.85245
4.85487
4.8569
4.85625
4.9102
4.90833
4.90403
4.90472
4.91021
4.91768
4.92411
4.92812
4.92993
4.92995
4.92953
4.92813
4.92668
4.92344
4.91867
4.91309
4.90847
4.90783
4.91279
4.91994
5.00775
5.00932
5.0032
4.99833
4.99744
4.99913
5.00167
5.00363
5.00493
5.00571
5.00676
5.00875
5.01141
5.01507
5.01949
5.02387
5.02842
5.03361
5.03721
5.03587
5.13434
5.14239
5.13528
5.12071
5.10789
5.09903
5.0939
5.09127
5.09007
5.0899
5.09096
5.09373
5.09945
5.10827
5.12073
5.13622
5.15217
5.16547
5.16895
5.15945
5.25536
5.26065
5.25268
5.23588
5.21851
5.20371
5.19267
5.18474
5.17951
5.17669
5.17622
5.17874
5.18363
5.19181
5.20275
5.21609
5.23051
5.2437
5.25058
5.24796
5.36714
5.37556
5.37046
5.35218
5.32911
5.30718
5.28948
5.27649
5.26813
5.26376
5.26317
5.26582
5.27151
5.2791
5.2881
5.29815
5.30848
5.31854
5.32587
5.32759
5.44289
5.45206
5.44907
5.43304
5.4108
5.38889
5.37112
5.35831
5.35009
5.34642
5.34677
5.35174
5.36034
5.37275
5.38797
5.40455
5.42032
5.43222
5.43397
5.42361
5.49428
5.50269
5.50483
5.49817
5.48477
5.46883
5.45358
5.44118
5.43213
5.42774
5.42735
5.4319
5.4407
5.454
5.47115
5.49014
5.50778
5.51891
5.51484
5.49475
5.54294
5.56628
5.58129
5.58112
5.56966
5.55161
5.53245
5.51619
5.50478
5.49897
5.49838
5.5032
5.51194
5.52346
5.53531
5.54482
5.54924
5.54669
5.53554
5.51844
5.54157
5.57622
5.60397
5.61407
5.6103
5.59731
5.58183
5.56816
5.55861
5.55409
5.55436
5.55956
5.56856
5.5799
5.59156
5.59965
5.60093
5.59286
5.57078
5.54128
5.47814
5.50793
5.54379
5.57429
5.59454
5.60362
5.60465
5.60146
5.59768
5.59583
5.59658
5.60032
5.60629
5.6131
5.61897
5.62131
5.61619
5.59991
5.56674
5.52786
5.43624
5.47591
5.52317
5.56459
5.59732
5.61729
5.62625
5.6287
5.62876
5.62909
5.63045
5.63301
5.63494
5.63351
5.62611
5.60898
5.58158
5.54498
5.50169
5.4679
5.41976
5.46561
5.51842
5.56298
5.60098
5.6279
5.64373
5.65177
5.65575
5.65754
5.65831
5.65724
5.65405
5.64518
5.62897
5.6029
5.56653
5.52259
5.47019
5.42958
5.42887
5.46583
5.51713
5.56352
5.60817
5.64437
5.66857
5.68178
5.68768
5.68884
5.68648
5.68046
5.66901
5.64987
5.62339
5.58795
5.54585
5.49905
5.44321
5.40349
5.48574
5.51144
5.55773
5.59667
5.6366
5.67312
5.7003
5.71642
5.72431
5.7254
5.72178
5.71144
5.6947
5.66692
5.62861
5.58068
5.52738
5.4765
5.42684
5.41003
5.6017
5.60183
5.63263
5.65373
5.68095
5.71255
5.74122
5.76133
5.77285
5.77603
5.77257
5.76226
5.7442
5.71718
5.68311
5.64504
5.61092
5.58498
5.55191
5.55166
5.82485
5.78776
5.7933
5.78369
5.78654
5.80376
5.82585
5.84409
5.85586
5.86028
5.85879
5.85096
5.83886
5.823
5.80856
5.80319
5.8115
5.82765
5.81755
5.84175
6.19973
6.13021
6.11487
6.05601
6.00661
5.98229
5.97712
5.9791
5.98236
5.9845
5.98582
5.98814
5.99135
6.00132
6.02231
6.06095
6.1177
6.17446
6.18164
6.24334
6.64408
6.53536
6.51659
6.4184
6.31369
6.23705
6.19218
6.16726
6.15419
6.14911
6.15095
6.16105
6.1816
6.2186
6.27671
6.36271
6.46792
6.56039
6.57258
6.67852
6.99047
6.8242
6.83524
6.73826
6.61011
6.50004
6.42386
6.37546
6.34675
6.33422
6.33468
6.35153
6.38271
6.43664
6.51628
6.62477
6.74885
6.84427
6.83548
7.00342
7.08439
6.82598
6.89797
6.85629
6.76051
6.66455
6.59137
6.54291
6.51363
6.50033
6.50019
6.51471
6.54473
6.59426
6.66383
6.75358
6.84254
6.88288
6.81511
7.07648
6.89579
6.47978
6.62736
6.68545
6.67382
6.63875
6.6069
6.5847
6.57018
6.56417
6.56391
6.5725
6.58663
6.60876
6.63718
6.66395
6.66804
6.6055
6.46024
6.88255
6.67976
6.02077
6.23495
6.38413
6.44692
6.46495
6.46894
6.47114
6.47173
6.47308
6.47447
6.47582
6.47725
6.47623
6.47051
6.44703
6.37953
6.22891
6.01949
6.68813
6.94766
5.95697
6.19561
6.33208
6.36981
6.37048
6.36672
6.36544
6.36468
6.36499
6.36609
6.36817
6.36943
6.37386
6.37504
6.37485
6.33266
6.20299
5.97252
6.97062
8.1813
6.42181
6.54601
6.61692
6.59597
6.55917
6.5368
6.52532
6.52018
6.51662
6.51775
6.51856
6.5222
6.5356
6.55545
6.59716
6.62366
6.55966
6.43492
8.17772
10.4009
5.97719
6.04102
6.40011
6.48596
6.48824
6.48773
6.48808
6.48789
6.48785
6.48797
6.48881
6.4885
6.48915
6.48986
6.48845
6.40488
6.04756
5.98289
10.4016
-0.225163
-0.187273
-0.190664
-0.131139
-0.100134
-0.0911326
-0.0867271
-0.0809956
-0.0750855
-0.0718389
-0.0716112
-0.0755316
-0.0826603
-0.0911801
-0.10006
-0.113792
-0.148268
-0.209685
-0.214189
-0.252573
-0.289335
-0.255673
-0.243608
-0.161266
-0.087827
-0.043592
-0.0215753
-0.00961892
-0.00299013
-0.00165552
-0.00480089
-0.0149493
-0.0286924
-0.0479394
-0.0729218
-0.114151
-0.181023
-0.255927
-0.279359
-0.336961
-0.0187398
-0.0637848
-0.0649943
-0.0300455
0.0146204
0.0556379
0.0847665
0.102113
0.110706
0.112719
0.108749
0.0982086
0.0801442
0.0535857
0.0183372
-0.0226131
-0.0574082
-0.0778561
-0.0879581
-0.0877225
0.0743075
0.0511826
0.0491239
0.0745879
0.114697
0.15576
0.188529
0.211457
0.225422
0.232627
0.234371
0.231566
0.224752
0.212068
0.189937
0.153257
0.099214
0.040699
0.022024
0.0433616
0.0951167
0.114382
0.131833
0.168925
0.22297
0.280269
0.325475
0.356058
0.375241
0.388779
0.398488
0.409039
0.421558
0.4404
0.465811
0.495067
0.519301
0.531022
0.519299
0.500163
0.269183
0.324335
0.364412
0.39688
0.427182
0.456771
0.484425
0.509445
0.528897
0.546397
0.561522
0.580304
0.603938
0.638723
0.687705
0.754478
0.830557
0.894998
0.911388
0.882068
0.580336
0.645576
0.672787
0.657327
0.640143
0.634468
0.643416
0.661618
0.680921
0.699147
0.716596
0.736674
0.757711
0.780113
0.801879
0.826234
0.852689
0.878246
0.91333
0.941109
0.773149
0.807187
0.827437
0.835917
0.833783
0.8301
0.830351
0.835421
0.843244
0.852589
0.862892
0.873493
0.883812
0.888948
0.884175
0.865959
0.841851
0.828634
0.854703
0.905263
0.988598
1.01225
1.04118
1.05185
1.04453
1.03036
1.01761
1.00903
1.00532
1.00471
1.00539
1.00486
1.00138
0.994117
0.98087
0.959377
0.937048
0.925804
0.934996
0.960298
1.12079
1.09424
1.09313
1.10486
1.12096
1.13626
1.14591
1.15174
1.15529
1.15777
1.15845
1.15597
1.14887
1.13553
1.11488
1.09005
1.06324
1.0407
1.0367
1.04638
1.32852
1.26354
1.24148
1.26016
1.28584
1.30493
1.31348
1.31754
1.31898
1.32007
1.31989
1.31874
1.31437
1.30933
1.30506
1.3036
1.30343
1.30032
1.28792
1.26452
1.67629
1.65695
1.63215
1.59681
1.55799
1.52353
1.49942
1.48591
1.47803
1.47494
1.47316
1.47337
1.47503
1.48073
1.49311
1.51562
1.54798
1.5828
1.58139
1.53337
1.74238
1.7573
1.72679
1.68073
1.63899
1.61191
1.59892
1.59484
1.59475
1.59726
1.60103
1.60793
1.61799
1.63234
1.64825
1.66221
1.67103
1.67805
1.68329
1.67146
1.6321
1.60878
1.59233
1.62205
1.65504
1.67777
1.68996
1.6974
1.70272
1.7073
1.70992
1.71102
1.71132
1.71264
1.71796
1.72908
1.74301
1.75484
1.76164
1.76419
1.73289
1.73097
1.73013
1.74567
1.77104
1.79497
1.81318
1.82524
1.83265
1.83482
1.83261
1.82429
1.80755
1.78083
1.74628
1.71219
1.68802
1.67573
1.68528
1.71097
1.87989
1.88789
1.89259
1.91096
1.94081
1.97251
1.99552
2.00624
2.00951
2.00691
2.00095
1.98866
1.971
1.94223
1.90008
1.84065
1.76767
1.70009
1.68092
1.70302
2.22253
2.25433
2.27218
2.27092
2.26102
2.24738
2.23592
2.22607
2.21813
2.20994
2.20248
2.1938
2.18426
2.17418
2.1656
2.15351
2.13424
2.10684
2.0663
2.02057
2.62943
2.67197
2.67362
2.62255
2.55915
2.50174
2.46062
2.43401
2.41737
2.40627
2.39931
2.39669
2.40109
2.41394
2.43538
2.46479
2.49708
2.5199
2.49487
2.42514
2.83135
2.82572
2.80451
2.76536
2.71686
2.67141
2.63459
2.60588
2.58575
2.57218
2.56468
2.56384
2.57175
2.59148
2.6198
2.65246
2.68239
2.69881
2.69563
2.67594
2.85049
2.82579
2.80497
2.79015
2.77415
2.75752
2.74229
2.72832
2.71745
2.71016
2.70681
2.7064
2.70932
2.71555
2.72706
2.74497
2.768
2.78677
2.80114
2.81492
2.71412
2.67177
2.66427
2.70325
2.75048
2.78675
2.80817
2.81932
2.82541
2.82943
2.83483
2.8414
2.84802
2.8511
2.84948
2.84008
2.82697
2.81483
2.8281
2.86774
2.68382
2.68177
2.6997
2.74019
2.79275
2.84497
2.88659
2.91587
2.93512
2.9486
2.95904
2.96808
2.9768
2.98341
2.98873
2.99181
2.9954
3.0023
3.01038
3.02708
2.73307
2.75044
2.78094
2.83319
2.89389
2.95365
3.00498
3.04231
3.0667
3.08265
3.0935
3.10105
3.10552
3.1086
3.11131
3.11299
3.11347
3.11593
3.12603
3.14711
3.00231
3.05397
3.09295
3.12083
3.14349
3.16415
3.18594
3.20734
3.22454
3.23698
3.24525
3.25104
3.2557
3.25774
3.25688
3.25364
3.24882
3.24574
3.25305
3.26955
3.4025
3.4733
3.49169
3.45882
3.42105
3.39465
3.38305
3.3835
3.38977
3.39624
3.40134
3.4051
3.40825
3.41087
3.41235
3.41287
3.41245
3.41141
3.41435
3.41842
3.67744
3.69571
3.68809
3.65903
3.62149
3.59036
3.5698
3.55975
3.55682
3.5574
3.55828
3.558
3.55745
3.55717
3.56001
3.5698
3.58711
3.6051
3.61031
3.59791
3.84894
3.83133
3.81521
3.79993
3.77805
3.75617
3.73928
3.72872
3.7234
3.72085
3.71831
3.71467
3.70756
3.69799
3.68678
3.67985
3.68498
3.70295
3.71387
3.69966
3.91499
3.86082
3.84153
3.86296
3.88472
3.89951
3.90629
3.90715
3.90517
3.90274
3.90023
3.89629
3.8906
3.87925
3.85693
3.81677
3.75804
3.70082
3.69133
3.71795
4.14298
4.11456
4.11253
4.12624
4.13119
4.12707
4.1177
4.10837
4.10083
4.09605
4.09355
4.09319
4.09362
4.09556
4.0999
4.10396
4.10189
4.09006
4.06364
4.04356
4.48344
4.48992
4.48133
4.44148
4.39739
4.35466
4.31973
4.29621
4.2817
4.27396
4.2697
4.26922
4.27221
4.28163
4.30143
4.33571
4.38018
4.41918
4.41424
4.37306
4.64791
4.62405
4.59092
4.55615
4.52496
4.49601
4.47071
4.45039
4.43605
4.42682
4.42156
4.4203
4.42208
4.42918
4.44138
4.45825
4.47777
4.49575
4.50686
4.50054
4.70419
4.67661
4.64717
4.62613
4.61078
4.59929
4.58934
4.57843
4.56803
4.56028
4.55483
4.55031
4.54505
4.53543
4.52018
4.50361
4.49267
4.49136
4.50487
4.52588
4.63207
4.59776
4.58106
4.59512
4.62449
4.65379
4.67375
4.683
4.6858
4.68495
4.68363
4.68064
4.67632
4.66649
4.64615
4.60965
4.5597
4.51428
4.51194
4.54875
4.6117
4.59058
4.60863
4.66748
4.72781
4.77188
4.7981
4.81189
4.81875
4.82188
4.82349
4.824
4.82537
4.82867
4.83784
4.8501
4.85874
4.85845
4.84274
4.82861
4.85216
4.89691
4.92866
4.92913
4.93038
4.93628
4.94595
4.95405
4.95958
4.96211
4.96313
4.96343
4.96296
4.96584
4.97744
5.00631
5.05298
5.09639
5.0983
5.06729
5.04046
5.0763
5.07437
5.05121
5.04639
5.05743
5.07511
5.09147
5.10353
5.10996
5.11256
5.1123
5.11043
5.10401
5.08946
5.06809
5.04996
5.04389
5.05645
5.07348
5.18621
5.19798
5.19933
5.2099
5.22357
5.23697
5.2496
5.26087
5.27056
5.27646
5.2805
5.28168
5.28151
5.27682
5.26295
5.23033
5.1814
5.13828
5.13338
5.16322
5.41857
5.44992
5.47149
5.48052
5.47355
5.46118
5.45272
5.44903
5.44919
5.45148
5.45528
5.45972
5.46675
5.47827
5.49889
5.5261
5.5471
5.55396
5.53761
5.51526
5.6409
5.67021
5.6912
5.69309
5.678
5.65475
5.63404
5.62064
5.61378
5.61174
5.61309
5.61898
5.62868
5.64768
5.6808
5.73564
5.80337
5.85773
5.85972
5.8149
5.79167
5.80497
5.81158
5.80326
5.79111
5.77942
5.76778
5.75864
5.75231
5.7495
5.74884
5.75068
5.75378
5.75665
5.75832
5.76314
5.77322
5.78601
5.80446
5.81601
5.83403
5.8225
5.81908
5.8237
5.83538
5.85224
5.86571
5.87385
5.8771
5.87748
5.87635
5.87348
5.86791
5.85498
5.82974
5.78947
5.74485
5.71563
5.72509
5.76754
5.90994
5.88358
5.88744
5.92359
5.96418
5.99646
6.01549
6.02594
6.02972
6.02943
6.02485
6.016
6.00254
5.98342
5.95724
5.92111
5.88184
5.85403
5.84614
5.86209
6.20216
6.21773
6.22956
6.22535
6.21556
6.20729
6.20458
6.20528
6.20624
6.20588
6.20422
6.19982
6.1907
6.17662
6.1587
6.13663
6.10926
6.08154
6.06332
6.05814
6.43006
6.44436
6.43769
6.41012
6.38493
6.372
6.371
6.37486
6.37946
6.38377
6.38798
6.39318
6.40054
6.41207
6.43035
6.45488
6.47575
6.48172
6.46025
6.4243
6.55262
6.52524
6.51832
6.54033
6.55777
6.56283
6.55925
6.55418
6.55149
6.55221
6.55474
6.562
6.57526
6.60184
6.64396
6.70373
6.77041
6.82121
6.81664
6.76593
6.8581
6.86756
6.86618
6.83681
6.79494
6.75501
6.72561
6.70783
6.69866
6.69647
6.69816
6.70383
6.71167
6.72276
6.73655
6.7525
6.76852
6.78197
6.79685
6.80396
6.96239
6.95722
6.92857
6.87943
6.83731
6.81421
6.80526
6.80407
6.80633
6.81045
6.81586
6.82148
6.82541
6.82361
6.81177
6.7893
6.76512
6.7492
6.75893
6.79347
6.83915
6.77159
6.74291
6.77434
6.82457
6.8717
6.90196
6.91847
6.92649
6.93095
6.93154
6.92917
6.92324
6.91341
6.89817
6.87948
6.86415
6.85758
6.85767
6.86921
6.98531
6.95357
6.96543
7.00997
7.05252
7.07911
7.09019
7.09132
7.08716
7.08044
7.07074
7.05676
7.03705
7.01257
6.98388
6.95315
6.92379
6.9036
6.90013
6.91118
7.36829
7.40919
7.43286
7.41025
7.37133
7.33284
7.30532
7.28528
7.26831
7.25263
7.23635
7.21785
7.19524
7.16709
7.13244
7.09238
7.05106
7.01861
7.00629
7.01312
7.57871
7.61584
7.61018
7.56939
7.52914
7.49705
7.47385
7.45704
7.44398
7.43273
7.42275
7.41258
7.40089
7.3866
7.36937
7.34793
7.32037
7.29194
7.27086
7.26071
7.53484
7.5199
7.50813
7.52438
7.5525
7.57876
7.59564
7.60641
7.61281
7.61738
7.62167
7.62837
7.63862
7.65553
7.68124
7.71506
7.74465
7.75727
7.73853
7.70223
7.57151
7.54833
7.55614
7.60775
7.67151
7.72812
7.76641
7.79075
7.80515
7.81667
7.82721
7.84344
7.86755
7.90717
7.96317
8.03827
8.12024
8.18493
8.18932
8.14189
7.912
7.94518
7.97157
7.98206
7.98497
7.98696
7.99103
7.9986
8.00641
8.01634
8.02825
8.04659
8.07111
8.10269
8.13655
8.17289
8.2097
8.24219
8.27186
8.29121
8.30209
8.35786
8.36063
8.31253
8.25588
8.21216
8.18833
8.18111
8.18269
8.18981
8.20147
8.21899
8.24055
8.26323
8.2808
8.28931
8.29342
8.29946
8.32673
8.37801
8.50597
8.51604
8.49557
8.45799
8.41338
8.37456
8.34712
8.33275
8.32807
8.33166
8.33947
8.3513
8.36483
8.38084
8.39764
8.41333
8.42938
8.44848
8.46987
8.49795
8.55742
8.53471
8.51087
8.49554
8.4794
8.46407
8.45187
8.44506
8.44321
8.4466
8.45187
8.45821
8.46209
8.4632
8.45971
8.45455
8.45099
8.4551
8.47433
8.49842
8.47196
8.41628
8.40079
8.43836
8.48323
8.52012
8.54216
8.55237
8.5554
8.55696
8.55602
8.55281
8.5448
8.53093
8.50829
8.47889
8.44821
8.42843
8.43362
8.44868
8.57851
8.5669
8.58449
8.62603
8.66134
8.683
8.6912
8.69129
8.68678
8.68035
8.6717
8.65958
8.64064
8.61369
8.57824
8.53595
8.49
8.4514
8.43497
8.42888
8.86938
8.9258
8.94845
8.92196
8.88859
8.86203
8.84517
8.83409
8.82473
8.81466
8.8025
8.78551
8.76241
8.73352
8.70272
8.67482
8.64782
8.62104
8.59116
8.55198
8.98307
9.01466
9.00967
8.98255
8.96738
8.96507
8.96729
8.96905
8.9676
8.96278
8.95412
8.94114
8.92275
8.90152
8.88121
8.86817
8.86654
8.87207
8.84863
8.78226
9.01419
8.99957
9.00993
9.05632
9.099
9.12354
9.13155
9.13329
9.13302
9.13229
9.13187
9.13169
9.13302
9.13237
9.12413
9.10609
9.08068
9.05645
9.03203
8.99003
9.28106
9.31232
9.33686
9.33881
9.32967
9.31717
9.30794
9.30341
9.30155
9.30172
9.30471
9.31243
9.32683
9.34977
9.37652
9.3973
9.40381
9.39122
9.35634
9.30554
9.46
9.49252
9.49894
9.4796
9.46211
9.45505
9.45504
9.45676
9.45849
9.45995
9.46259
9.46739
9.47767
9.49579
9.52288
9.55712
9.58891
9.60071
9.58416
9.55507
9.52857
9.51767
9.52894
9.57197
9.60835
9.62671
9.62965
9.62475
9.61936
9.61558
9.61442
9.61509
9.61631
9.61914
9.62457
9.63131
9.64038
9.64846
9.65445
9.6619
9.80999
9.84204
9.86352
9.85878
9.8402
9.81688
9.79616
9.77886
9.76643
9.75826
9.75552
9.7551
9.75686
9.75492
9.74732
9.73111
9.7084
9.68537
9.6865
9.7119
9.94168
9.97044
9.96825
9.93935
9.91295
9.89653
9.88744
9.88178
9.87744
9.87484
9.87412
9.87573
9.87811
9.88056
9.88198
9.88006
9.8784
9.87782
9.87573
9.87081
9.8727
9.84711
9.84263
9.88174
9.92525
9.95565
9.97116
9.97904
9.9826
9.98449
9.98502
9.98429
9.98336
9.98278
9.98324
9.98423
9.98491
9.98634
9.99007
9.98397
9.97954
9.97905
9.98856
10.0117
10.0402
10.0652
10.0819
10.0914
10.0955
10.0969
10.0964
10.0954
10.0921
10.0874
10.0814
10.0741
10.0689
10.0679
10.0732
10.0715
10.1111
10.118
10.1256
10.1447
10.1684
10.1928
10.2099
10.2169
10.2176
10.2151
10.2113
10.2053
10.1973
10.1838
10.1659
10.1464
10.1289
10.1198
10.1249
10.1283
10.3041
10.3291
10.3336
10.3317
10.3308
10.3324
10.3365
10.3393
10.3397
10.3368
10.3318
10.3246
10.3138
10.2977
10.2748
10.2459
10.2171
10.1972
10.1976
10.1972
10.4359
10.4617
10.4502
10.4308
10.4256
10.4334
10.4478
10.4615
10.4711
10.4746
10.4744
10.4693
10.4623
10.4523
10.4389
10.422
10.4009
10.3808
10.372
10.3555
10.5038
10.4885
10.479
10.5173
10.5617
10.5972
10.6191
10.6313
10.637
10.6392
10.6391
10.6387
10.638
10.6411
10.6512
10.6693
10.6905
10.7026
10.6946
10.6536
10.898
10.9355
10.9407
10.9244
10.8974
10.8714
10.8525
10.8402
10.8308
10.8235
10.8173
10.8125
10.8112
10.8159
10.8317
10.8677
10.9236
10.9794
10.992
10.9371
11.2344
11.2829
11.2642
11.2006
11.1347
11.0845
11.053
11.0331
11.0205
11.0114
11.0052
11.0014
10.9988
10.9958
10.9895
10.9809
10.9771
10.985
11.0098
11.0116
11.3327
11.3238
11.2805
11.252
11.2369
11.2306
11.2274
11.2242
11.2228
11.2222
11.2248
11.2292
11.2379
11.2466
11.2502
11.2402
11.2137
11.1891
11.1953
11.211
11.526
11.5022
11.4721
11.4692
11.4714
11.4722
11.4686
11.4638
11.4606
11.4622
11.4697
11.4862
11.5111
11.5473
11.5961
11.653
11.7032
11.7335
11.7294
11.687
11.9545
11.9911
11.9806
11.9358
11.8732
11.8113
11.7629
11.7307
11.7118
11.7059
11.7109
11.7289
11.7607
11.8103
11.8811
11.974
12.0751
12.1565
12.1734
12.1048
12.2542
12.3208
12.3012
12.2224
12.1293
12.0456
11.9847
11.9447
11.9226
11.9154
11.921
11.9396
11.9681
12.0077
12.0559
12.1076
12.1571
12.1986
12.2291
12.2129
12.2307
12.2496
12.2252
12.2028
12.1813
12.1572
12.1329
12.1119
12.0996
12.0971
12.1061
12.1251
12.1535
12.1841
12.2097
12.2241
12.2297
12.2313
12.2435
12.2474
12.2251
12.2407
12.2522
12.2819
12.3041
12.3082
12.2971
12.2809
12.2679
12.2629
12.2667
12.2802
12.3005
12.3243
12.3452
12.3583
12.3638
12.3641
12.3547
12.3212
12.426
12.5057
12.5524
12.5618
12.5454
12.5115
12.4755
12.4454
12.4242