/*--------------------------------*- C++ -*----------------------------------*\
  =========                 |
  \\      /  F ield         | OpenFOAM: The Open Source CFD Toolbox
   \\    /   O peration     | Website:  https://openfoam.org
    \\  /    A nd           | Version:  6
     \\/     M anipulation  |
\*---------------------------------------------------------------------------*/
FoamFile
{
    version     2.0;
    format      ascii;
    class       surfaceScalarField;
    location    "12";
    object      phi;
}
// * * * * * * * * * * * * * * * * * * * * * * * * * * * * * * * * * * * * * //

dimensions      [0 3 -1 0 0 0 0];

internalField   nonuniform List<scalar> 
19400
(
-3.57446e-09
-8.35235e-07
-6.78566e-09
-1.11219e-06
-8.1935e-09
-1.23093e-06
-8.19072e-09
-1.29498e-06
-7.37117e-09
-1.32721e-06
-6.31746e-09
-1.34235e-06
-5.32131e-09
-1.34882e-06
-4.47315e-09
-1.35111e-06
-3.72224e-09
-1.35148e-06
-3.04732e-09
-1.35097e-06
-2.38534e-09
-1.35001e-06
-1.66909e-09
-1.34852e-06
-8.25104e-10
-1.34603e-06
2.92254e-10
-1.34138e-06
1.65406e-09
-1.33238e-06
3.12428e-09
-1.31486e-06
4.10323e-09
-1.28101e-06
3.92639e-09
-1.21704e-06
2.06249e-09
-1.10047e-06
-8.28702e-07
-4.60028e-10
-8.34977e-07
-2.35492e-09
-1.11047e-06
-3.46501e-09
-1.23e-06
-3.97074e-09
-1.29462e-06
-4.08001e-09
-1.32725e-06
-3.89523e-09
-1.34265e-06
-3.55371e-09
-1.34927e-06
-3.16149e-09
-1.35162e-06
-2.72765e-09
-1.35199e-06
-2.34065e-09
-1.35149e-06
-1.91348e-09
-1.35052e-06
-1.53871e-09
-1.34905e-06
-1.11973e-09
-1.34655e-06
-7.1512e-10
-1.34192e-06
-3.29329e-10
-1.3329e-06
2.29941e-11
-1.31532e-06
1.57879e-10
-1.28134e-06
7.70354e-12
-1.21713e-06
-5.83485e-10
-1.10012e-06
-8.29311e-07
-9.43873e-10
-8.34112e-07
-1.5184e-09
-1.10999e-06
-1.98351e-09
-1.22962e-06
-2.23651e-09
-1.29443e-06
-2.36162e-09
-1.3272e-06
-2.36633e-09
-1.3427e-06
-2.30782e-09
-1.34939e-06
-2.17604e-09
-1.3518e-06
-2.00351e-09
-1.35221e-06
-1.7997e-09
-1.35174e-06
-1.58419e-09
-1.35079e-06
-1.35582e-09
-1.34931e-06
-1.15423e-09
-1.34682e-06
-9.32003e-10
-1.34217e-06
-7.23947e-10
-1.33315e-06
-4.88511e-10
-1.31558e-06
-2.7223e-10
-1.2816e-06
-4.6401e-11
-1.21745e-06
4.36073e-10
-1.1007e-06
-8.28875e-07
-5.6716e-10
-8.33573e-07
-6.0134e-10
-1.10998e-06
-7.88946e-10
-1.22944e-06
-9.28385e-10
-1.29428e-06
-1.06455e-09
-1.32707e-06
-1.18423e-09
-1.34257e-06
-1.28281e-09
-1.34929e-06
-1.32683e-09
-1.35175e-06
-1.33432e-09
-1.35222e-06
-1.28894e-09
-1.35178e-06
-1.22116e-09
-1.35087e-06
-1.11639e-09
-1.34942e-06
-1.04201e-09
-1.34692e-06
-9.36813e-10
-1.34226e-06
-8.86115e-10
-1.33322e-06
-7.98429e-10
-1.31565e-06
-6.68972e-10
-1.28172e-06
-4.33256e-10
-1.21767e-06
-6.82499e-12
-1.10111e-06
-8.28872e-07
-6.45239e-10
-8.32918e-07
-4.49418e-10
-1.11017e-06
-5.07379e-10
-1.22935e-06
-6.33701e-10
-1.29413e-06
-7.4583e-10
-1.32692e-06
-8.65653e-10
-1.34242e-06
-9.50403e-10
-1.34918e-06
-9.89718e-10
-1.35169e-06
-9.94729e-10
-1.3522e-06
-9.45765e-10
-1.35182e-06
-8.86373e-10
-1.35094e-06
-7.69882e-10
-1.34951e-06
-6.93694e-10
-1.34702e-06
-5.87464e-10
-1.34234e-06
-5.33072e-10
-1.33328e-06
-4.74525e-10
-1.3157e-06
-3.81646e-10
-1.28179e-06
-2.55533e-10
-1.21775e-06
-5.35262e-11
-1.10127e-06
-8.28922e-07
-3.11293e-10
-8.32641e-07
-2.96552e-10
-1.11024e-06
-4.41151e-10
-1.22922e-06
-7.07232e-10
-1.29389e-06
-8.81413e-10
-1.32675e-06
-9.70342e-10
-1.34234e-06
-9.88297e-10
-1.34917e-06
-9.48021e-10
-1.35173e-06
-8.81838e-10
-1.35228e-06
-7.69151e-10
-1.35192e-06
-6.53103e-10
-1.35107e-06
-4.91341e-10
-1.34966e-06
-3.47676e-10
-1.34718e-06
-1.86381e-10
-1.34249e-06
-9.33907e-11
-1.33339e-06
-8.3691e-11
-1.31571e-06
-1.42859e-10
-1.28173e-06
-2.66408e-10
-1.21762e-06
-4.21433e-10
-1.10111e-06
-8.2935e-07
3.07001e-11
-8.32769e-07
-2.54307e-10
-1.11007e-06
-4.65932e-10
-1.22909e-06
-7.05857e-10
-1.29372e-06
-8.55718e-10
-1.32667e-06
-9.05878e-10
-1.34234e-06
-8.93386e-10
-1.34924e-06
-8.2438e-10
-1.35184e-06
-7.38677e-10
-1.35242e-06
-6.12721e-10
-1.35208e-06
-4.90267e-10
-1.35124e-06
-3.29277e-10
-1.34983e-06
-1.83229e-10
-1.34735e-06
-3.66007e-11
-1.34264e-06
4.38962e-11
-1.33349e-06
3.25708e-11
-1.31571e-06
-1.18819e-10
-1.28161e-06
-3.68646e-10
-1.2174e-06
-7.08634e-10
-1.10081e-06
-8.30073e-07
1.89525e-10
-8.33001e-07
-1.8711e-10
-1.10976e-06
-3.6747e-10
-1.22895e-06
-4.7189e-10
-1.29367e-06
-5.56253e-10
-1.32663e-06
-5.96612e-10
-1.34233e-06
-6.03284e-10
-1.34927e-06
-5.6346e-10
-1.3519e-06
-5.17383e-10
-1.3525e-06
-4.33178e-10
-1.35217e-06
-3.53221e-10
-1.35135e-06
-2.48469e-10
-1.34995e-06
-1.45729e-10
-1.34748e-06
-5.84969e-11
-1.34275e-06
-1.3034e-11
-1.33355e-06
-2.79029e-11
-1.31573e-06
-1.77581e-10
-1.28149e-06
-4.6467e-10
-1.21717e-06
-7.11734e-10
-1.10064e-06
-8.308e-07
1.49789e-10
-8.33105e-07
-1.21478e-10
-1.10948e-06
-2.63263e-10
-1.22878e-06
-3.14312e-10
-1.29362e-06
-3.70952e-10
-1.32656e-06
-4.25917e-10
-1.34228e-06
-4.37246e-10
-1.34926e-06
-4.26013e-10
-1.35192e-06
-3.96363e-10
-1.35254e-06
-3.58635e-10
-1.35223e-06
-3.17415e-10
-1.35141e-06
-2.74133e-10
-1.35001e-06
-2.33298e-10
-1.34754e-06
-2.1326e-10
-1.3428e-06
-2.27221e-10
-1.33356e-06
-2.89445e-10
-1.3157e-06
-4.15941e-10
-1.28142e-06
-6.123e-10
-1.21705e-06
-7.09717e-10
-1.1006e-06
-8.31514e-07
-3.75105e-11
-8.33014e-07
-2.46791e-10
-1.10926e-06
-4.1794e-10
-1.22857e-06
-4.98598e-10
-1.29354e-06
-5.15552e-10
-1.32651e-06
-5.31668e-10
-1.34227e-06
-4.91441e-10
-1.34928e-06
-4.47428e-10
-1.35196e-06
-3.83856e-10
-1.35259e-06
-3.42614e-10
-1.35228e-06
-2.99117e-10
-1.35145e-06
-2.84482e-10
-1.35005e-06
-2.73076e-10
-1.34756e-06
-2.73406e-10
-1.34281e-06
-3.15484e-10
-1.33355e-06
-3.72948e-10
-1.31565e-06
-4.37483e-10
-1.28138e-06
-4.61019e-10
-1.21703e-06
-3.88977e-10
-1.10068e-06
-8.31897e-07
4.46837e-12
-8.33015e-07
-2.74126e-10
-1.10898e-06
-4.23729e-10
-1.22842e-06
-5.32446e-10
-1.29344e-06
-5.78861e-10
-1.32647e-06
-5.6943e-10
-1.34228e-06
-5.11947e-10
-1.34934e-06
-4.22282e-10
-1.35205e-06
-3.26559e-10
-1.35268e-06
-2.28107e-10
-1.35237e-06
-1.4964e-10
-1.35153e-06
-6.89428e-11
-1.35012e-06
-1.07302e-11
-1.34764e-06
5.42102e-11
-1.34288e-06
8.74161e-11
-1.33359e-06
6.2737e-11
-1.31563e-06
-6.13343e-12
-1.28129e-06
-5.72315e-11
-1.21695e-06
6.94527e-11
-1.10078e-06
-8.31825e-07
-1.56268e-10
-8.32895e-07
-2.73142e-10
-1.10888e-06
-3.75475e-10
-1.22834e-06
-4.74923e-10
-1.29336e-06
-5.31283e-10
-1.32644e-06
-5.0348e-10
-1.34232e-06
-4.33268e-10
-1.34943e-06
-3.23271e-10
-1.35217e-06
-2.09156e-10
-1.35281e-06
-7.80155e-11
-1.3525e-06
4.57392e-11
-1.35166e-06
1.80234e-10
-1.35026e-06
3.09107e-10
-1.34777e-06
4.49453e-10
-1.34302e-06
5.6301e-10
-1.33371e-06
5.84903e-10
-1.31565e-06
4.64045e-10
-1.28116e-06
2.60544e-10
-1.21674e-06
8.33881e-11
-1.1006e-06
-8.31748e-07
-1.35545e-10
-8.32831e-07
-1.5613e-10
-1.1089e-06
-2.37547e-10
-1.22832e-06
-3.15237e-10
-1.29331e-06
-3.54681e-10
-1.32644e-06
-3.23046e-10
-1.34238e-06
-2.66774e-10
-1.34952e-06
-1.87369e-10
-1.35227e-06
-9.51825e-11
-1.35293e-06
7.46308e-12
-1.35262e-06
1.19581e-10
-1.35179e-06
2.43613e-10
-1.3504e-06
3.83168e-10
-1.34793e-06
5.35725e-10
-1.34319e-06
7.02143e-10
-1.3339e-06
8.28037e-10
-1.3158e-06
7.81937e-10
-1.28114e-06
5.45077e-10
-1.21653e-06
8.9802e-11
-1.10018e-06
-8.31668e-07
-2.71794e-11
-8.32892e-07
9.25908e-12
-1.10896e-06
-5.71517e-11
-1.22832e-06
-1.36482e-10
-1.29325e-06
-1.97808e-10
-1.32642e-06
-1.8652e-10
-1.34242e-06
-1.60146e-10
-1.34958e-06
-1.07964e-10
-1.35234e-06
-4.49316e-11
-1.35301e-06
3.08497e-11
-1.35272e-06
1.17901e-10
-1.35189e-06
2.06739e-10
-1.35051e-06
3.2513e-10
-1.34805e-06
4.49792e-10
-1.34334e-06
6.32833e-10
-1.33409e-06
8.22603e-10
-1.31601e-06
8.94706e-10
-1.28124e-06
7.46649e-10
-1.21642e-06
3.88964e-10
-1.09987e-06
-8.31288e-07
1.30086e-10
-8.33103e-07
1.41345e-10
-1.10902e-06
-7.17241e-11
-1.22817e-06
-2.32053e-10
-1.29312e-06
-2.82925e-10
-1.32641e-06
-2.48255e-10
-1.34247e-06
-1.90935e-10
-1.34966e-06
-1.217e-10
-1.35243e-06
-4.70453e-11
-1.35311e-06
2.61956e-11
-1.35281e-06
1.0466e-10
-1.35199e-06
1.75394e-10
-1.3506e-06
2.65412e-10
-1.34814e-06
3.52281e-10
-1.34345e-06
4.89489e-10
-1.33424e-06
6.57734e-10
-1.3162e-06
8.22902e-10
-1.28142e-06
8.49222e-10
-1.21648e-06
6.2865e-10
-1.09969e-06
-8.30672e-07
4.25191e-10
-8.33602e-07
2.91757e-10
-1.10891e-06
5.52368e-11
-1.22799e-06
-7.7776e-11
-1.293e-06
-1.39924e-10
-1.32638e-06
-1.2063e-10
-1.3425e-06
-8.93586e-11
-1.34971e-06
-4.0067e-11
-1.3525e-06
2.15488e-11
-1.35318e-06
8.52299e-11
-1.35289e-06
1.60965e-10
-1.35207e-06
2.25233e-10
-1.35068e-06
3.09275e-10
-1.34823e-06
3.84764e-10
-1.34355e-06
4.80839e-10
-1.33435e-06
6.07891e-10
-1.31635e-06
8.15653e-10
-1.28166e-06
9.84331e-10
-1.21669e-06
8.95586e-10
-1.09967e-06
-8.29791e-07
3.59844e-11
-8.33659e-07
1.50773e-10
-1.10904e-06
1.58222e-11
-1.22787e-06
-6.89808e-11
-1.29292e-06
-8.466e-11
-1.32638e-06
-4.12724e-11
-1.34255e-06
3.12987e-12
-1.34976e-06
4.36988e-11
-1.35254e-06
9.14345e-11
-1.35324e-06
1.48094e-10
-1.35296e-06
2.15928e-10
-1.35215e-06
3.00896e-10
-1.35078e-06
4.03884e-10
-1.34835e-06
5.18054e-10
-1.34368e-06
6.38173e-10
-1.33449e-06
7.45334e-10
-1.3165e-06
8.82838e-10
-1.28183e-06
9.88469e-10
-1.21686e-06
9.79995e-10
-1.09972e-06
-8.28818e-07
2.98618e-11
-8.33684e-07
7.0085e-11
-1.10908e-06
-2.2773e-12
-1.22779e-06
-1.01103e-10
-1.29282e-06
-1.06946e-10
-1.32636e-06
-7.11536e-11
-1.34259e-06
-1.55391e-11
-1.34981e-06
2.6776e-11
-1.3526e-06
8.46246e-11
-1.35329e-06
1.25715e-10
-1.35301e-06
1.85346e-10
-1.35221e-06
2.36705e-10
-1.35084e-06
3.05618e-10
-1.34842e-06
3.75864e-10
-1.34376e-06
4.33852e-10
-1.33457e-06
5.0011e-10
-1.31657e-06
5.69491e-10
-1.28194e-06
6.95607e-10
-1.21702e-06
6.31451e-10
-1.09968e-06
-8.28181e-07
5.05482e-12
-8.3366e-07
-3.53087e-11
-1.10904e-06
-9.54671e-11
-1.22771e-06
-1.6248e-10
-1.29275e-06
-1.61106e-10
-1.32635e-06
-1.40154e-10
-1.3426e-06
-8.94896e-11
-1.34985e-06
-2.70552e-11
-1.35265e-06
4.66236e-11
-1.35335e-06
1.13044e-10
-1.35307e-06
1.75599e-10
-1.35225e-06
2.22048e-10
-1.35088e-06
2.59274e-10
-1.34845e-06
2.8351e-10
-1.34377e-06
3.0869e-10
-1.33457e-06
3.46639e-10
-1.31659e-06
4.07808e-10
-1.28198e-06
5.60971e-10
-1.21714e-06
7.08812e-10
-1.09979e-06
-8.27463e-07
-2.22637e-11
-8.33593e-07
-1.63068e-10
-1.1089e-06
-2.52312e-10
-1.22759e-06
-2.95973e-10
-1.2927e-06
-3.1164e-10
-1.32632e-06
-3.03052e-10
-1.3426e-06
-2.43386e-10
-1.3499e-06
-1.38114e-10
-1.35273e-06
-2.03574e-11
-1.35346e-06
1.20103e-10
-1.35319e-06
2.4848e-10
-1.35238e-06
3.80459e-10
-1.351e-06
4.86113e-10
-1.34855e-06
5.74417e-10
-1.34385e-06
6.28541e-10
-1.33462e-06
6.32764e-10
-1.31659e-06
6.01866e-10
-1.28192e-06
5.64284e-10
-1.21706e-06
5.8784e-10
-1.09978e-06
-8.26875e-07
1.61737e-10
-8.33708e-07
-1.95948e-10
-1.10854e-06
-3.71567e-10
-1.22738e-06
-4.68984e-10
-1.29262e-06
-5.08275e-10
-1.32627e-06
-5.13307e-10
-1.3426e-06
-4.30329e-10
-1.34998e-06
-2.95212e-10
-1.35287e-06
-1.31623e-10
-1.35363e-06
5.61205e-11
-1.35338e-06
2.33023e-10
-1.35257e-06
4.29778e-10
-1.35119e-06
5.94996e-10
-1.34874e-06
7.56124e-10
-1.34401e-06
8.53574e-10
-1.33474e-06
8.61526e-10
-1.31661e-06
7.50575e-10
-1.28182e-06
4.90523e-10
-1.21681e-06
6.07055e-11
-1.09936e-06
-8.26818e-07
4.24755e-10
-8.3411e-07
4.65028e-11
-1.10818e-06
-1.66973e-10
-1.22715e-06
-3.52207e-10
-1.29246e-06
-4.45794e-10
-1.32617e-06
-4.90676e-10
-1.34258e-06
-4.45941e-10
-1.35003e-06
-3.51445e-10
-1.35299e-06
-2.1624e-10
-1.35378e-06
-6.8925e-11
-1.35354e-06
8.26906e-11
-1.35274e-06
2.29408e-10
-1.35135e-06
3.62381e-10
-1.34888e-06
4.80794e-10
-1.34414e-06
5.61765e-10
-1.33483e-06
5.91309e-10
-1.31665e-06
5.12546e-10
-1.28176e-06
2.53794e-10
-1.21657e-06
-2.71971e-10
-1.09885e-06
-8.27091e-07
4.08905e-10
-8.34533e-07
3.46959e-10
-1.10814e-06
2.39803e-10
-1.22705e-06
5.47077e-11
-1.2923e-06
-1.04802e-10
-1.32602e-06
-2.29126e-10
-1.34248e-06
-2.87704e-10
-1.34999e-06
-2.86475e-10
-1.353e-06
-2.44833e-10
-1.35384e-06
-1.74512e-10
-1.35362e-06
-9.72439e-11
-1.35282e-06
-2.09409e-11
-1.35143e-06
4.53135e-11
-1.34894e-06
9.26169e-11
-1.34419e-06
1.35072e-10
-1.33486e-06
1.4646e-10
-1.31665e-06
1.12323e-10
-1.28172e-06
-8.87297e-12
-1.21644e-06
-1.79969e-10
-1.09868e-06
-8.27272e-07
1.76998e-10
-8.34746e-07
4.24601e-10
-1.10841e-06
4.33599e-10
-1.22708e-06
3.21068e-10
-1.29221e-06
1.58814e-10
-1.32587e-06
-5.37557e-12
-1.34233e-06
-1.2944e-10
-1.34987e-06
-2.07085e-10
-1.35293e-06
-2.55511e-10
-1.3538e-06
-2.66079e-10
-1.35361e-06
-2.68065e-10
-1.35283e-06
-2.54081e-10
-1.35144e-06
-2.36624e-10
-1.34896e-06
-2.145e-10
-1.34421e-06
-1.74126e-10
-1.3349e-06
-1.42028e-10
-1.31669e-06
-1.34775e-10
-1.28171e-06
-2.02155e-10
-1.21638e-06
-2.28448e-10
-1.09866e-06
-8.27506e-07
1.83998e-10
-8.34987e-07
5.42263e-10
-1.10879e-06
6.33384e-10
-1.2272e-06
5.65404e-10
-1.29215e-06
3.75709e-10
-1.3257e-06
1.66049e-10
-1.34213e-06
-1.63724e-11
-1.3497e-06
-1.68281e-10
-1.35279e-06
-2.8116e-10
-1.35369e-06
-3.72191e-10
-1.35352e-06
-4.33793e-10
-1.35277e-06
-4.87049e-10
-1.3514e-06
-5.28436e-10
-1.34893e-06
-5.59789e-10
-1.34419e-06
-5.6449e-10
-1.3349e-06
-5.27173e-10
-1.31674e-06
-4.58913e-10
-1.2818e-06
-4.06236e-10
-1.21647e-06
-3.82084e-10
-1.09872e-06
-8.27894e-07
2.69085e-10
-8.35307e-07
6.61648e-10
-1.1092e-06
6.63454e-10
-1.22723e-06
5.45369e-10
-1.29203e-06
3.473e-10
-1.32551e-06
1.33292e-10
-1.34192e-06
-6.33484e-11
-1.3495e-06
-2.35041e-10
-1.35262e-06
-3.62646e-10
-1.35355e-06
-4.72901e-10
-1.35342e-06
-5.45805e-10
-1.35269e-06
-6.18284e-10
-1.35134e-06
-6.85467e-10
-1.34887e-06
-7.3965e-10
-1.34415e-06
-7.76376e-10
-1.33489e-06
-7.34861e-10
-1.31678e-06
-6.27877e-10
-1.28194e-06
-5.04922e-10
-1.21662e-06
-2.71253e-10
-1.09897e-06
-8.28166e-07
4.20657e-10
-8.35755e-07
5.91737e-10
-1.10938e-06
4.81276e-10
-1.22714e-06
2.99626e-10
-1.29184e-06
1.06683e-10
-1.32531e-06
-6.81137e-11
-1.34174e-06
-2.24566e-10
-1.34933e-06
-3.54946e-10
-1.35249e-06
-4.47567e-10
-1.35345e-06
-5.15442e-10
-1.35335e-06
-5.56811e-10
-1.35265e-06
-5.89979e-10
-1.35131e-06
-6.32353e-10
-1.34884e-06
-6.64527e-10
-1.34411e-06
-6.8381e-10
-1.33488e-06
-6.32479e-10
-1.31683e-06
-5.30518e-10
-1.28204e-06
-4.26632e-10
-1.21672e-06
-1.83312e-10
-1.09922e-06
-8.28348e-07
3.98487e-10
-8.36156e-07
4.46851e-10
-1.10944e-06
2.73914e-10
-1.22697e-06
2.61903e-11
-1.29159e-06
-1.75341e-10
-1.32511e-06
-3.00577e-10
-1.34161e-06
-3.80898e-10
-1.34925e-06
-4.31086e-10
-1.35244e-06
-4.56868e-10
-1.35343e-06
-4.58819e-10
-1.35335e-06
-4.40075e-10
-1.35267e-06
-4.08007e-10
-1.35134e-06
-3.85104e-10
-1.34887e-06
-3.61486e-10
-1.34413e-06
-3.53902e-10
-1.33489e-06
-3.10105e-10
-1.31687e-06
-2.61197e-10
-1.28209e-06
-2.24892e-10
-1.21675e-06
-5.13284e-11
-1.09939e-06
-8.28401e-07
5.44022e-10
-8.367e-07
3.69249e-10
-1.10929e-06
1.98191e-10
-1.2268e-06
-1.74094e-11
-1.2914e-06
-2.1721e-10
-1.32492e-06
-3.41361e-10
-1.34149e-06
-4.00786e-10
-1.34921e-06
-4.0888e-10
-1.35244e-06
-3.93101e-10
-1.35346e-06
-3.41236e-10
-1.35341e-06
-2.81905e-10
-1.35274e-06
-1.84075e-10
-1.35143e-06
-9.65084e-11
-1.34898e-06
2.19843e-12
-1.34423e-06
5.6464e-11
-1.33496e-06
8.53517e-11
-1.3169e-06
6.02801e-11
-1.28207e-06
-5.42771e-11
-1.21664e-06
-1.09168e-10
-1.09934e-06
-8.28513e-07
5.4409e-10
-8.37227e-07
2.84363e-10
-1.10904e-06
1.23886e-10
-1.22663e-06
-3.25108e-11
-1.29125e-06
-1.83545e-10
-1.32477e-06
-2.9007e-10
-1.3414e-06
-3.31854e-10
-1.34917e-06
-3.32969e-10
-1.35244e-06
-3.05285e-10
-1.3535e-06
-2.49728e-10
-1.35347e-06
-1.77917e-10
-1.35283e-06
-8.78449e-11
-1.35153e-06
8.81663e-12
-1.34907e-06
9.48448e-11
-1.34431e-06
1.33978e-10
-1.335e-06
1.13333e-10
-1.31689e-06
5.88434e-11
-1.28202e-06
-4.04682e-11
-1.21655e-06
-3.39997e-10
-1.09906e-06
-8.28857e-07
5.57736e-10
-8.3776e-07
2.87774e-10
-1.10878e-06
1.73479e-10
-1.2265e-06
3.38237e-11
-1.29113e-06
-9.52169e-11
-1.32464e-06
-1.88275e-10
-1.34131e-06
-2.34884e-10
-1.34913e-06
-2.50497e-10
-1.35243e-06
-2.40643e-10
-1.35351e-06
-2.07112e-10
-1.35351e-06
-1.65034e-10
-1.35288e-06
-1.13144e-10
-1.35158e-06
-5.9173e-11
-1.34913e-06
-2.31688e-11
-1.34435e-06
-3.2318e-12
-1.33501e-06
-3.28834e-11
-1.31686e-06
-6.72761e-11
-1.28199e-06
-8.30964e-11
-1.21655e-06
-2.39708e-10
-1.09891e-06
-8.29096e-07
3.75642e-10
-8.38123e-07
2.6424e-10
-1.10868e-06
1.81495e-10
-1.22641e-06
3.11692e-12
-1.29096e-06
-1.36935e-10
-1.32449e-06
-2.29089e-10
-1.34123e-06
-2.68415e-10
-1.34909e-06
-2.82135e-10
-1.35242e-06
-2.71581e-10
-1.35352e-06
-2.59613e-10
-1.35352e-06
-2.51529e-10
-1.35288e-06
-2.56522e-10
-1.35158e-06
-2.67621e-10
-1.34912e-06
-2.93778e-10
-1.34433e-06
-3.22428e-10
-1.33498e-06
-3.54136e-10
-1.31683e-06
-3.63576e-10
-1.28198e-06
-2.39998e-10
-1.21667e-06
-1.28182e-10
-1.09902e-06
-8.29218e-07
3.87141e-10
-8.3851e-07
3.08379e-10
-1.10863e-06
5.76567e-11
-1.22615e-06
-2.13333e-10
-1.2907e-06
-3.56875e-10
-1.32435e-06
-4.07429e-10
-1.34119e-06
-3.83575e-10
-1.34911e-06
-3.46368e-10
-1.35246e-06
-3.09018e-10
-1.35356e-06
-2.99944e-10
-1.35353e-06
-3.13059e-10
-1.35287e-06
-3.60949e-10
-1.35154e-06
-4.25962e-10
-1.34905e-06
-4.97041e-10
-1.34426e-06
-5.54351e-10
-1.33492e-06
-5.82928e-10
-1.31679e-06
-5.37938e-10
-1.28201e-06
-2.71692e-10
-1.21692e-06
1.5736e-10
-1.09942e-06
-8.29059e-07
6.82898e-10
-8.39199e-07
3.88206e-10
-1.10833e-06
1.59922e-10
-1.22593e-06
-1.58276e-11
-1.29053e-06
-1.386e-10
-1.32423e-06
-1.73124e-10
-1.34115e-06
-1.72674e-10
-1.34912e-06
-1.50087e-10
-1.35248e-06
-1.41984e-10
-1.35356e-06
-1.40481e-10
-1.35353e-06
-1.60346e-10
-1.35284e-06
-1.95736e-10
-1.3515e-06
-2.47624e-10
-1.34901e-06
-2.89756e-10
-1.34422e-06
-3.21932e-10
-1.33489e-06
-3.35068e-10
-1.31678e-06
-2.90083e-10
-1.28205e-06
-1.14559e-10
-1.21709e-06
3.23108e-10
-1.09986e-06
-8.28744e-07
2.27602e-10
-8.3938e-07
2.95799e-10
-1.10836e-06
2.34443e-10
-1.22584e-06
1.49112e-10
-1.29041e-06
9.94587e-11
-1.32416e-06
6.86334e-11
-1.3411e-06
4.43915e-11
-1.34908e-06
1.64623e-11
-1.35244e-06
-2.04295e-14
-1.35354e-06
-8.784e-12
-1.35352e-06
-9.38571e-12
-1.35285e-06
6.29226e-14
-1.35151e-06
-1.44746e-12
-1.34902e-06
3.0626e-12
-1.34423e-06
-1.15181e-11
-1.3349e-06
-2.82631e-11
-1.31679e-06
-3.37256e-11
-1.28208e-06
1.05723e-11
-1.21717e-06
5.9339e-11
-1.09995e-06
-8.28694e-07
-1.47639e-10
-8.392e-07
1.05663e-10
-1.1086e-06
-8.67429e-12
-1.22569e-06
-1.60892e-10
-1.29025e-06
-1.94572e-10
-1.3241e-06
-2.17991e-10
-1.34108e-06
-2.02484e-10
-1.34907e-06
-2.004e-10
-1.35245e-06
-1.66368e-10
-1.35356e-06
-1.41976e-10
-1.35355e-06
-9.06328e-11
-1.35289e-06
-4.68543e-11
-1.35157e-06
8.84049e-13
-1.34907e-06
3.2381e-11
-1.34427e-06
4.67206e-11
-1.33494e-06
6.39807e-11
-1.31681e-06
6.97392e-11
-1.28212e-06
1.05725e-10
-1.21725e-06
-2.00162e-11
-1.09987e-06
-8.2872e-07
-7.18566e-11
-8.39171e-07
-2.3065e-10
-1.10847e-06
-4.80687e-10
-1.22548e-06
-6.18808e-10
-1.29014e-06
-6.23551e-10
-1.32411e-06
-5.96085e-10
-1.34113e-06
-5.42882e-10
-1.34913e-06
-4.78648e-10
-1.35253e-06
-3.99702e-10
-1.35365e-06
-3.20993e-10
-1.35364e-06
-2.40483e-10
-1.35298e-06
-1.6133e-10
-1.35165e-06
-8.41601e-11
-1.34914e-06
-2.47742e-11
-1.34433e-06
3.36312e-11
-1.33499e-06
8.93402e-11
-1.31687e-06
1.31276e-10
-1.28217e-06
1.38596e-10
-1.21727e-06
1.03332e-10
-1.09985e-06
-8.28618e-07
-2.17738e-10
-8.39018e-07
-4.90312e-10
-1.10823e-06
-6.47844e-10
-1.22538e-06
-6.52743e-10
-1.29017e-06
-6.3285e-10
-1.32418e-06
-6.04136e-10
-1.34118e-06
-5.83856e-10
-1.34919e-06
-5.2836e-10
-1.35261e-06
-4.67612e-10
-1.35374e-06
-3.8593e-10
-1.35373e-06
-3.14526e-10
-1.35307e-06
-2.34311e-10
-1.35173e-06
-1.54422e-10
-1.34923e-06
-7.24635e-11
-1.34442e-06
7.39859e-12
-1.33507e-06
8.08117e-11
-1.31696e-06
1.29384e-10
-1.28222e-06
1.06166e-10
-1.21725e-06
3.98858e-11
-1.09979e-06
-8.28577e-07
-6.91984e-10
-8.38373e-07
-6.88836e-10
-1.10825e-06
-6.24752e-10
-1.22549e-06
-5.01977e-10
-1.29032e-06
-4.40831e-10
-1.32428e-06
-4.24153e-10
-1.34122e-06
-4.46241e-10
-1.3492e-06
-4.38731e-10
-1.35262e-06
-4.28829e-10
-1.35377e-06
-3.87221e-10
-1.35378e-06
-3.5327e-10
-1.35312e-06
-2.96371e-10
-1.35179e-06
-2.3846e-10
-1.3493e-06
-1.65547e-10
-1.3445e-06
-7.42359e-11
-1.33517e-06
2.69849e-11
-1.31707e-06
9.75508e-11
-1.2823e-06
9.81621e-11
-1.21725e-06
5.48792e-11
-1.09974e-06
-8.28512e-07
-9.97749e-10
-8.37391e-07
-7.89081e-10
-1.10844e-06
-4.85982e-10
-1.22581e-06
-2.40707e-10
-1.29055e-06
-1.60733e-10
-1.32437e-06
-1.58466e-10
-1.34121e-06
-2.20395e-10
-1.34915e-06
-2.68242e-10
-1.35257e-06
-3.13175e-10
-1.35373e-06
-3.20483e-10
-1.35376e-06
-3.22279e-10
-1.35312e-06
-3.02238e-10
-1.35181e-06
-2.83262e-10
-1.34932e-06
-2.49272e-10
-1.34453e-06
-1.97093e-10
-1.33523e-06
-1.05933e-10
-1.31715e-06
-8.87985e-12
-1.28238e-06
9.64326e-11
-1.21731e-06
2.05778e-10
-1.09979e-06
-8.28289e-07
-1.25229e-09
-8.36103e-07
-8.6949e-10
-1.10875e-06
-4.0448e-10
-1.22624e-06
-1.1258e-10
-1.29079e-06
-6.16151e-11
-1.3244e-06
-7.50672e-11
-1.34115e-06
-1.32279e-10
-1.34907e-06
-1.78957e-10
-1.35249e-06
-2.17925e-10
-1.35367e-06
-2.18645e-10
-1.35373e-06
-2.0911e-10
-1.35312e-06
-1.74402e-10
-1.35181e-06
-1.49265e-10
-1.34932e-06
-1.17574e-10
-1.34453e-06
-9.45809e-11
-1.33522e-06
-6.34394e-11
-1.31715e-06
3.82118e-11
-1.28242e-06
2.1624e-10
-1.21741e-06
4.15622e-10
-1.09992e-06
-8.2787e-07
-1.10092e-09
-8.34967e-07
-8.52004e-10
-1.10897e-06
-5.75355e-10
-1.22649e-06
-4.37021e-10
-1.29089e-06
-3.79504e-10
-1.32443e-06
-3.26457e-10
-1.34118e-06
-2.91718e-10
-1.34908e-06
-2.49931e-10
-1.3525e-06
-2.19499e-10
-1.35369e-06
-1.54579e-10
-1.35377e-06
-8.49098e-11
-1.35317e-06
1.71023e-11
-1.35189e-06
1.24715e-10
-1.34942e-06
2.24488e-10
-1.34461e-06
2.91377e-10
-1.33526e-06
2.85376e-10
-1.31714e-06
2.79236e-10
-1.28239e-06
2.52649e-10
-1.21738e-06
3.36356e-10
-1.1e-06
-8.27549e-07
-4.18308e-10
-8.34566e-07
-5.80073e-10
-1.10882e-06
-5.52459e-10
-1.22653e-06
-5.30425e-10
-1.29092e-06
-4.80409e-10
-1.32449e-06
-4.22616e-10
-1.34124e-06
-3.57994e-10
-1.34916e-06
-2.95402e-10
-1.35258e-06
-2.31852e-10
-1.35377e-06
-1.72624e-10
-1.35385e-06
-9.82289e-11
-1.35326e-06
-2.10411e-11
-1.35199e-06
6.90504e-11
-1.34952e-06
1.47631e-10
-1.34472e-06
1.96535e-10
-1.33534e-06
1.76297e-10
-1.31716e-06
6.6776e-11
-1.28234e-06
-1.03846e-10
-1.21728e-06
-2.84853e-10
-1.0999e-06
-8.27845e-07
-8.7594e-11
-8.34491e-07
-3.09782e-10
-1.10861e-06
-4.33204e-10
-1.22642e-06
-4.63354e-10
-1.29091e-06
-4.09479e-10
-1.32456e-06
-3.54471e-10
-1.34132e-06
-2.95742e-10
-1.34923e-06
-2.5814e-10
-1.35264e-06
-2.21692e-10
-1.35381e-06
-2.1879e-10
-1.35388e-06
-2.04562e-10
-1.35328e-06
-2.27401e-10
-1.35199e-06
-2.49205e-10
-1.34951e-06
-2.86276e-10
-1.3447e-06
-3.2129e-10
-1.33532e-06
-3.51033e-10
-1.31713e-06
-4.38902e-10
-1.28229e-06
-4.93402e-10
-1.21727e-06
-4.07748e-10
-1.10001e-06
-8.28244e-07
2.24204e-10
-8.34717e-07
1.80965e-11
-1.10841e-06
-1.18075e-10
-1.2263e-06
-1.57039e-10
-1.29087e-06
-1.47402e-10
-1.32458e-06
-1.14762e-10
-1.34135e-06
-1.06639e-10
-1.34924e-06
-1.03239e-10
-1.35263e-06
-1.20911e-10
-1.35379e-06
-1.50348e-10
-1.35384e-06
-1.94328e-10
-1.35323e-06
-2.60433e-10
-1.35192e-06
-3.50232e-10
-1.34941e-06
-4.49228e-10
-1.34459e-06
-5.24305e-10
-1.33522e-06
-5.88732e-10
-1.31704e-06
-6.28771e-10
-1.28221e-06
-5.59384e-10
-1.2173e-06
-1.68281e-10
-1.10036e-06
-8.28397e-07
1.57968e-10
-8.3485e-07
1.76453e-10
-1.10839e-06
1.60866e-10
-1.22626e-06
1.65896e-10
-1.29084e-06
1.35964e-10
-1.32454e-06
1.21825e-10
-1.3413e-06
8.13802e-11
-1.34919e-06
5.73739e-11
-1.35257e-06
1.79368e-11
-1.35373e-06
-8.01312e-12
-1.35378e-06
-4.67726e-11
-1.35317e-06
-9.03524e-11
-1.35185e-06
-1.52857e-10
-1.34933e-06
-2.11717e-10
-1.3445e-06
-2.84602e-10
-1.33513e-06
-3.69397e-10
-1.31692e-06
-4.07423e-10
-1.28212e-06
-3.57595e-10
-1.21728e-06
-8.54766e-11
-1.10056e-06
-8.28472e-07
1.70572e-11
-8.34788e-07
1.04626e-10
-1.10842e-06
1.06432e-10
-1.2262e-06
8.441e-11
-1.29077e-06
6.27826e-11
-1.32447e-06
3.58299e-11
-1.34123e-06
1.94601e-11
-1.34913e-06
8.5736e-12
-1.35253e-06
3.32908e-12
-1.3537e-06
8.07459e-12
-1.35376e-06
9.30068e-12
-1.35315e-06
2.30728e-11
-1.35183e-06
2.62481e-11
-1.34932e-06
2.68796e-11
-1.34448e-06
-1.65424e-11
-1.33507e-06
-9.11499e-11
-1.31683e-06
-1.71694e-10
-1.28202e-06
-2.19761e-10
-1.21719e-06
-2.73294e-10
-1.10046e-06
-8.28741e-07
2.36183e-10
-8.34957e-07
1.08633e-10
-1.10826e-06
9.81856e-12
-1.22604e-06
-8.32018e-11
-1.29065e-06
-1.52803e-10
-1.32435e-06
-2.07897e-10
-1.34116e-06
-2.09696e-10
-1.3491e-06
-2.0247e-10
-1.35252e-06
-1.73368e-10
-1.3537e-06
-1.53186e-10
-1.35377e-06
-1.2269e-10
-1.35316e-06
-1.05443e-10
-1.35184e-06
-7.97567e-11
-1.34932e-06
-8.34702e-11
-1.34446e-06
-1.09563e-10
-1.33503e-06
-1.43294e-10
-1.31678e-06
-1.94147e-10
-1.28196e-06
-2.46365e-10
-1.21712e-06
-4.46979e-10
-1.10024e-06
-8.29184e-07
3.55618e-10
-8.35268e-07
1.83042e-10
-1.10807e-06
-1.32105e-11
-1.22581e-06
-2.13965e-10
-1.29044e-06
-3.41954e-10
-1.3242e-06
-4.11398e-10
-1.34108e-06
-4.10396e-10
-1.34909e-06
-3.95608e-10
-1.35253e-06
-3.7279e-10
-1.35372e-06
-3.65074e-10
-1.35377e-06
-3.61972e-10
-1.35315e-06
-3.7004e-10
-1.35182e-06
-3.7151e-10
-1.34929e-06
-3.93455e-10
-1.34443e-06
-3.93666e-10
-1.33499e-06
-4.09731e-10
-1.31675e-06
-4.08076e-10
-1.28194e-06
-3.86347e-10
-1.21713e-06
-3.8667e-10
-1.10022e-06
-8.29562e-07
2.52224e-10
-8.35462e-07
2.15251e-10
-1.10799e-06
1.26463e-10
-1.22568e-06
-6.82124e-11
-1.29022e-06
-2.18563e-10
-1.32402e-06
-3.11994e-10
-1.34097e-06
-3.66115e-10
-1.34901e-06
-4.14341e-10
-1.35247e-06
-4.64548e-10
-1.35365e-06
-5.29946e-10
-1.35369e-06
-5.99681e-10
-1.35305e-06
-6.87089e-10
-1.35172e-06
-7.5697e-10
-1.34919e-06
-8.2633e-10
-1.34434e-06
-8.49013e-10
-1.33494e-06
-8.38299e-10
-1.31674e-06
-7.55304e-10
-1.28199e-06
-6.18303e-10
-1.21723e-06
-5.20901e-10
-1.10027e-06
-8.30067e-07
-2.28328e-11
-8.35335e-07
1.88502e-10
-1.10811e-06
2.25751e-10
-1.22564e-06
7.89867e-11
-1.29001e-06
-7.56643e-11
-1.32381e-06
-1.95882e-10
-1.34081e-06
-3.04436e-10
-1.34886e-06
-4.22176e-10
-1.35232e-06
-5.40041e-10
-1.35349e-06
-6.80882e-10
-1.35352e-06
-8.19476e-10
-1.35288e-06
-9.7615e-10
-1.35154e-06
-1.11399e-09
-1.34902e-06
-1.2431e-09
-1.34419e-06
-1.29605e-09
-1.33485e-06
-1.23351e-09
-1.31677e-06
-1.01373e-09
-1.28217e-06
-7.14783e-10
-1.21746e-06
-3.67679e-10
-1.10054e-06
-8.30419e-07
-2.49088e-11
-8.35257e-07
2.38505e-10
-1.10833e-06
1.68868e-10
-1.22552e-06
-7.04017e-11
-1.28974e-06
-2.84681e-10
-1.32356e-06
-4.27923e-10
-1.34063e-06
-5.29899e-10
-1.34872e-06
-6.29757e-10
-1.35219e-06
-7.29611e-10
-1.35336e-06
-8.4442e-10
-1.35338e-06
-9.63042e-10
-1.35273e-06
-1.09774e-09
-1.35139e-06
-1.21772e-09
-1.34888e-06
-1.32225e-09
-1.34407e-06
-1.36444e-09
-1.33479e-06
-1.28517e-09
-1.31682e-06
-1.03465e-09
-1.28237e-06
-6.64885e-10
-1.21776e-06
-5.96111e-11
-1.10107e-06
-8.30473e-07
3.26351e-10
-8.35637e-07
3.34157e-10
-1.10837e-06
8.57453e-11
-1.22531e-06
-1.97585e-10
-1.28948e-06
-4.34757e-10
-1.32334e-06
-5.93317e-10
-1.34049e-06
-6.96537e-10
-1.34863e-06
-7.8149e-10
-1.35211e-06
-8.5953e-10
-1.35328e-06
-9.34177e-10
-1.35331e-06
-1.01433e-09
-1.35265e-06
-1.08581e-09
-1.35131e-06
-1.15343e-09
-1.34881e-06
-1.19163e-09
-1.34402e-06
-1.19966e-09
-1.33477e-06
-1.12668e-09
-1.31688e-06
-9.43675e-10
-1.28252e-06
-6.33708e-10
-1.21805e-06
-1.7003e-10
-1.10153e-06
-8.30655e-07
4.32839e-10
-8.36114e-07
3.90651e-10
-1.10833e-06
1.95905e-10
-1.22515e-06
3.8949e-11
-1.28932e-06
-1.38401e-10
-1.32319e-06
-3.25448e-10
-1.34031e-06
-5.21631e-10
-1.34845e-06
-6.96073e-10
-1.35194e-06
-8.56538e-10
-1.35313e-06
-9.88359e-10
-1.35317e-06
-1.10168e-09
-1.35254e-06
-1.18298e-09
-1.35122e-06
-1.22368e-09
-1.34876e-06
-1.22339e-09
-1.34402e-06
-1.16548e-09
-1.33482e-06
-1.05164e-09
-1.317e-06
-8.68876e-10
-1.28272e-06
-6.37887e-10
-1.21833e-06
-4.29487e-10
-1.10181e-06
-8.31105e-07
-7.82709e-11
-8.3599e-07
3.13392e-10
-1.10865e-06
3.1641e-10
-1.22512e-06
2.07736e-10
-1.28917e-06
5.04613e-11
-1.323e-06
-1.9846e-10
-1.34003e-06
-4.69561e-10
-1.34815e-06
-7.44573e-10
-1.35166e-06
-9.75145e-10
-1.35288e-06
-1.20008e-09
-1.35296e-06
-1.37343e-09
-1.35235e-06
-1.53442e-09
-1.35107e-06
-1.63316e-09
-1.34865e-06
-1.7015e-09
-1.34396e-06
-1.69357e-09
-1.33483e-06
-1.60127e-09
-1.3171e-06
-1.34363e-09
-1.28303e-06
-9.25478e-10
-1.21884e-06
-6.23322e-10
-1.1022e-06
-8.31738e-07
-1.58228e-10
-8.35797e-07
1.67497e-10
-1.10895e-06
1.49314e-10
-1.22506e-06
-2.12311e-11
-1.28897e-06
-2.35104e-10
-1.32275e-06
-5.14507e-10
-1.33975e-06
-7.7764e-10
-1.34786e-06
-1.05259e-09
-1.35139e-06
-1.27823e-09
-1.35263e-06
-1.51538e-09
-1.35273e-06
-1.71154e-09
-1.35215e-06
-1.91169e-09
-1.35089e-06
-2.07318e-09
-1.34848e-06
-2.19225e-09
-1.34384e-06
-2.23287e-09
-1.33479e-06
-2.12583e-09
-1.31719e-06
-1.78324e-09
-1.28339e-06
-1.11608e-09
-1.21954e-06
-2.69631e-10
-1.10308e-06
-8.32006e-07
1.96869e-10
-8.36061e-07
9.52455e-11
-1.10889e-06
6.56492e-11
-1.22509e-06
-4.53798e-11
-1.28889e-06
-3.12756e-10
-1.32251e-06
-6.15034e-10
-1.33945e-06
-9.20757e-10
-1.34756e-06
-1.19019e-09
-1.35112e-06
-1.43367e-09
-1.35239e-06
-1.6465e-09
-1.35251e-06
-1.84563e-09
-1.35195e-06
-2.01311e-09
-1.35071e-06
-2.17092e-09
-1.34833e-06
-2.26507e-09
-1.34373e-06
-2.29354e-09
-1.33474e-06
-2.18679e-09
-1.31727e-06
-1.87974e-09
-1.28366e-06
-1.24381e-09
-1.22015e-06
-1.51162e-10
-1.10416e-06
-8.32154e-07
1.10908e-11
-8.36132e-07
1.92849e-10
-1.1091e-06
2.9325e-10
-1.22524e-06
2.04935e-10
-1.28881e-06
-1.23865e-10
-1.32222e-06
-4.83049e-10
-1.33909e-06
-8.46229e-10
-1.34722e-06
-1.13509e-09
-1.35083e-06
-1.39791e-09
-1.35214e-06
-1.59975e-09
-1.3523e-06
-1.78256e-09
-1.35177e-06
-1.90699e-09
-1.35057e-06
-2.02485e-09
-1.34822e-06
-2.08367e-09
-1.34364e-06
-2.12127e-09
-1.3347e-06
-2.05371e-09
-1.31731e-06
-1.82927e-09
-1.28387e-06
-1.32167e-09
-1.22065e-06
-4.41919e-10
-1.10503e-06
-8.32595e-07
-4.22877e-11
-8.36088e-07
4.49722e-10
-1.10959e-06
5.57584e-10
-1.22535e-06
3.57793e-10
-1.2886e-06
-1.29777e-11
-1.32185e-06
-4.139e-10
-1.33868e-06
-7.92205e-10
-1.34685e-06
-1.09983e-09
-1.35051e-06
-1.36731e-09
-1.35188e-06
-1.56139e-09
-1.35209e-06
-1.73728e-09
-1.35161e-06
-1.83272e-09
-1.35044e-06
-1.91972e-09
-1.34814e-06
-1.93422e-09
-1.3436e-06
-1.93455e-09
-1.3347e-06
-1.85957e-09
-1.31737e-06
-1.69756e-09
-1.28403e-06
-1.32218e-09