/*--------------------------------*- C++ -*----------------------------------*\
  =========                 |
  \\      /  F ield         | OpenFOAM: The Open Source CFD Toolbox
   \\    /   O peration     | Website:  https://openfoam.org
    \\  /    A nd           | Version:  6
     \\/     M anipulation  |
\*---------------------------------------------------------------------------*/
FoamFile
{
    version     2.0;
    format      ascii;
    class       surfaceScalarField;
    location    "12";
    object      phi;
}
// * * * * * * * * * * * * * * * * * * * * * * * * * * * * * * * * * * * * * //

dimensions      [0 3 -1 0 0 0 0];

internalField   nonuniform List<scalar> 
258600
(
-5.85295e-09
-8.47613e-08
5.56292e-09
-6.12672e-09
-9.37111e-08
-6.36657e-09
-1.02395e-07
-6.57634e-09
-1.10713e-07
-6.75877e-09
-1.18571e-07
-6.91741e-09
-1.25885e-07
-7.05618e-09
-1.32588e-07
-7.17891e-09
-1.38633e-07
-7.28901e-09
-1.43987e-07
-7.3894e-09
-1.48641e-07
-7.48234e-09
-1.526e-07
-7.56956e-09
-1.55886e-07
-7.6521e-09
-1.58536e-07
-7.73062e-09
-1.60595e-07
-7.80529e-09
-1.62118e-07
-7.87606e-09
-1.63167e-07
-7.94263e-09
-1.63803e-07
-8.00473e-09
-1.64093e-07
-8.06218e-09
-1.64101e-07
-1.63888e-07
-8.11451e-09
-6.68595e-09
-8.45599e-08
6.48533e-09
-6.88397e-09
-9.35124e-08
-7.07003e-09
-1.02208e-07
-7.23866e-09
-1.10544e-07
-7.38905e-09
-1.1842e-07
-7.52241e-09
-1.25751e-07
-7.64126e-09
-1.32469e-07
-7.74819e-09
-1.38525e-07
-7.846e-09
-1.43889e-07
-7.93681e-09
-1.4855e-07
-8.02261e-09
-1.52514e-07
-8.10452e-09
-1.55804e-07
-8.18352e-09
-1.58457e-07
-8.25974e-09
-1.60519e-07
-8.33332e-09
-1.62045e-07
-8.40384e-09
-1.63096e-07
-8.47101e-09
-1.63736e-07
-8.53416e-09
-1.6403e-07
-8.59311e-09
-1.64042e-07
-1.63834e-07
-8.64734e-09
-8.01441e-09
-8.44368e-08
7.89282e-09
-8.1393e-09
-9.33865e-08
-8.2612e-09
-1.02085e-07
-8.37581e-09
-1.10429e-07
-8.48173e-09
-1.18314e-07
-8.57882e-09
-1.25653e-07
-8.66847e-09
-1.32379e-07
-8.75185e-09
-1.38442e-07
-8.83093e-09
-1.4381e-07
-8.90667e-09
-1.48474e-07
-8.98063e-09
-1.5244e-07
-9.05311e-09
-1.55732e-07
-9.12492e-09
-1.58385e-07
-9.19557e-09
-1.60448e-07
-9.26528e-09
-1.61976e-07
-9.33305e-09
-1.63028e-07
-9.39872e-09
-1.63671e-07
-9.46112e-09
-1.63968e-07
-9.52004e-09
-1.63984e-07
-1.6378e-07
-9.57461e-09
-9.71982e-09
-8.43891e-08
9.6734e-09
-9.77286e-09
-9.33323e-08
-9.8276e-09
-1.0203e-07
-9.88175e-09
-1.10374e-07
-9.9346e-09
-1.1826e-07
-9.98582e-09
-1.25601e-07
-1.00364e-08
-1.32328e-07
-1.00868e-08
-1.38391e-07
-1.01383e-08
-1.43759e-07
-1.0191e-08
-1.48421e-07
-1.02461e-08
-1.52385e-07
-1.03031e-08
-1.55675e-07
-1.03624e-08
-1.58326e-07
-1.04231e-08
-1.60387e-07
-1.04851e-08
-1.61914e-07
-1.0547e-08
-1.62967e-07
-1.06087e-08
-1.6361e-07
-1.06684e-08
-1.63908e-07
-1.07263e-08
-1.63926e-07
-1.63726e-07
-1.07807e-08
-1.16839e-08
-8.44091e-08
1.17061e-08
-1.16684e-08
-9.33463e-08
-1.16576e-08
-1.02039e-07
-1.16509e-08
-1.10379e-07
-1.16485e-08
-1.18261e-07
-1.16501e-08
-1.25599e-07
-1.16569e-08
-1.32321e-07
-1.16687e-08
-1.38378e-07
-1.16868e-08
-1.4374e-07
-1.17106e-08
-1.48397e-07
-1.1741e-08
-1.52355e-07
-1.17768e-08
-1.55639e-07
-1.18184e-08
-1.58285e-07
-1.18641e-08
-1.60342e-07
-1.19139e-08
-1.61865e-07
-1.19657e-08
-1.62915e-07
-1.20194e-08
-1.63557e-07
-1.20729e-08
-1.63855e-07
-1.2126e-08
-1.63874e-07
-1.63675e-07
-1.21768e-08
-1.3771e-08
-8.44766e-08
1.38409e-08
-1.37038e-08
-9.34113e-08
-1.36406e-08
-1.021e-07
-1.35824e-08
-1.10436e-07
-1.35305e-08
-1.18312e-07
-1.34856e-08
-1.25643e-07
-1.34495e-08
-1.32357e-07
-1.34221e-08
-1.38405e-07
-1.34049e-08
-1.43758e-07
-1.33971e-08
-1.48404e-07
-1.33995e-08
-1.52353e-07
-1.34106e-08
-1.55627e-07
-1.34307e-08
-1.58265e-07
-1.34576e-08
-1.60315e-07
-1.34912e-08
-1.61832e-07
-1.35291e-08
-1.62877e-07
-1.35709e-08
-1.63516e-07
-1.36143e-08
-1.63812e-07
-1.36588e-08
-1.6383e-07
-1.63632e-07
-1.37022e-08
-1.59223e-08
-8.45761e-08
1.6026e-08
-1.58175e-08
-9.35133e-08
-1.57131e-08
-1.02202e-07
-1.56121e-08
-1.10534e-07
-1.55173e-08
-1.18406e-07
-1.54306e-08
-1.25728e-07
-1.53545e-08
-1.32432e-07
-1.52895e-08
-1.38469e-07
-1.52373e-08
-1.4381e-07
-1.51972e-08
-1.48444e-07
-1.51703e-08
-1.5238e-07
-1.51548e-08
-1.55643e-07
-1.51509e-08
-1.5827e-07
-1.51563e-08
-1.60309e-07
-1.51708e-08
-1.61818e-07
-1.51917e-08
-1.62856e-07
-1.52186e-08
-1.63489e-07
-1.52487e-08
-1.63782e-07
-1.52817e-08
-1.63798e-07
-1.63599e-07
-1.53148e-08
-1.81143e-08
-8.47047e-08
1.82464e-08
-1.79768e-08
-9.36483e-08
-1.78369e-08
-1.0234e-07
-1.76991e-08
-1.1067e-07
-1.75668e-08
-1.18536e-07
-1.74428e-08
-1.25851e-07
-1.73302e-08
-1.32544e-07
-1.723e-08
-1.38569e-07
-1.71444e-08
-1.43895e-07
-1.70729e-08
-1.48515e-07
-1.70166e-08
-1.52437e-07
-1.69739e-08
-1.55685e-07
-1.6945e-08
-1.58299e-07
-1.69275e-08
-1.60327e-07
-1.69212e-08
-1.61825e-07
-1.69231e-08
-1.62855e-07
-1.69329e-08
-1.63481e-07
-1.69474e-08
-1.63768e-07
-1.69664e-08
-1.63781e-07
-1.6358e-07
-1.69868e-08
-2.03165e-08
-8.48552e-08
2.04698e-08
-2.01534e-08
-9.38092e-08
-1.99849e-08
-1.02506e-07
-1.98162e-08
-1.10837e-07
-1.96515e-08
-1.187e-07
-1.94946e-08
-1.26007e-07
-1.9349e-08
-1.3269e-07
-1.92165e-08
-1.38701e-07
-1.90994e-08
-1.44013e-07
-1.89977e-08
-1.48616e-07
-1.89127e-08
-1.52522e-07
-1.88428e-08
-1.55755e-07
-1.87885e-08
-1.58354e-07
-1.87473e-08
-1.60368e-07
-1.87189e-08
-1.61854e-07
-1.87004e-08
-1.62874e-07
-1.86913e-08
-1.63491e-07
-1.86884e-08
-1.63771e-07
-1.86914e-08
-1.63779e-07
-1.63574e-07
-1.86971e-08
-2.25288e-08
-8.50254e-08
2.27017e-08
-2.23426e-08
-9.39936e-08
-2.21479e-08
-1.02698e-07
-2.19511e-08
-1.11033e-07
-2.17571e-08
-1.18893e-07
-2.15701e-08
-1.26193e-07
-2.13942e-08
-1.32865e-07
-2.12315e-08
-1.38863e-07
-2.10848e-08
-1.44159e-07
-2.09544e-08
-1.48747e-07
-2.08416e-08
-1.52635e-07
-2.07452e-08
-1.55852e-07
-2.06656e-08
-1.58435e-07
-2.06005e-08
-1.60434e-07
-2.05495e-08
-1.61906e-07
-2.05097e-08
-1.62914e-07
-2.04807e-08
-1.63521e-07
-2.04591e-08
-1.63793e-07
-2.04447e-08
-1.63795e-07
-1.63586e-07
-2.04341e-08
-2.47293e-08
-8.52108e-08
2.49168e-08
-2.45254e-08
-9.41959e-08
-2.43099e-08
-1.02912e-07
-2.40898e-08
-1.11252e-07
-2.38704e-08
-1.19111e-07
-2.36569e-08
-1.26405e-07
-2.34535e-08
-1.33068e-07
-2.32632e-08
-1.39053e-07
-2.30888e-08
-1.44334e-07
-2.2931e-08
-1.48904e-07
-2.27915e-08
-1.52776e-07
-2.26692e-08
-1.55974e-07
-2.25646e-08
-1.5854e-07
-2.24754e-08
-1.60524e-07
-2.24014e-08
-1.61982e-07
-2.23397e-08
-1.62976e-07
-2.22899e-08
-1.63572e-07
-2.22487e-08
-1.63835e-07
-2.22157e-08
-1.63829e-07
-1.63615e-07
-2.21877e-08
-2.69414e-08
-8.54135e-08
2.71459e-08
-2.67176e-08
-9.44188e-08
-2.64797e-08
-1.03148e-07
-2.62358e-08
-1.11495e-07
-2.59913e-08
-1.19355e-07
-2.57521e-08
-1.26644e-07
-2.55224e-08
-1.33298e-07
-2.53056e-08
-1.3927e-07
-2.51046e-08
-1.44535e-07
-2.49207e-08
-1.49089e-07
-2.47553e-08
-1.52942e-07
-2.46076e-08
-1.56122e-07
-2.44783e-08
-1.58671e-07
-2.43652e-08
-1.60637e-07
-2.42681e-08
-1.6208e-07
-2.41843e-08
-1.63061e-07
-2.41132e-08
-1.63645e-07
-2.40518e-08
-1.63898e-07
-2.39995e-08
-1.63883e-07
-1.63662e-07
-2.39531e-08
-2.91432e-08
-8.56319e-08
2.9362e-08
-2.89018e-08
-9.46596e-08
-2.86445e-08
-1.03405e-07
-2.83794e-08
-1.11759e-07
-2.81123e-08
-1.19622e-07
-2.78493e-08
-1.26907e-07
-2.75951e-08
-1.33552e-07
-2.73533e-08
-1.39512e-07
-2.71271e-08
-1.44762e-07
-2.69179e-08
-1.49298e-07
-2.67272e-08
-1.53133e-07
-2.65548e-08
-1.56295e-07
-2.6401e-08
-1.58826e-07
-2.6264e-08
-1.60775e-07
-2.61437e-08
-1.62202e-07
-2.60373e-08
-1.63168e-07
-2.59445e-08
-1.6374e-07
-2.58622e-08
-1.63981e-07
-2.57898e-08
-1.63957e-07
-1.63729e-07
-2.57244e-08
-3.13473e-08
-8.58661e-08
3.15818e-08
-3.1088e-08
-9.49187e-08
-3.08109e-08
-1.03681e-07
-3.05246e-08
-1.12046e-07
-3.02351e-08
-1.19911e-07
-2.9949e-08
-1.27194e-07
-2.96708e-08
-1.33831e-07
-2.94047e-08
-1.39779e-07
-2.91538e-08
-1.45014e-07
-2.89198e-08
-1.49533e-07
-2.87044e-08
-1.5335e-07
-2.85074e-08
-1.56493e-07
-2.83293e-08
-1.59005e-07
-2.81686e-08
-1.60937e-07
-2.80249e-08
-1.62347e-07
-2.7896e-08
-1.63298e-07
-2.77811e-08
-1.63856e-07
-2.76775e-08
-1.64086e-07
-2.75845e-08
-1.64052e-07
-1.63815e-07
-2.74994e-08
-3.35426e-08
-8.61128e-08
3.379e-08
-3.32679e-08
-9.51932e-08
-3.29729e-08
-1.03975e-07
-3.26671e-08
-1.12352e-07
-3.23565e-08
-1.20221e-07
-3.20481e-08
-1.27503e-07
-3.17469e-08
-1.34133e-07
-3.14571e-08
-1.40069e-07
-3.1182e-08
-1.4529e-07
-3.09236e-08
-1.49792e-07
-3.06837e-08
-1.53591e-07
-3.04623e-08
-1.56716e-07
-3.026e-08
-1.59209e-07
-3.00753e-08
-1.61123e-07
-2.99081e-08
-1.62516e-07
-2.97561e-08
-1.63452e-07
-2.96187e-08
-1.63996e-07
-2.94933e-08
-1.64213e-07
-2.93792e-08
-1.64168e-07
-1.63922e-07
-2.92737e-08
-3.57415e-08
-8.63754e-08
3.60044e-08
-3.54493e-08
-9.54854e-08
-3.51355e-08
-1.04289e-07
-3.48096e-08
-1.12678e-07
-3.44778e-08
-1.20553e-07
-3.41473e-08
-1.27834e-07
-3.38231e-08
-1.34458e-07
-3.35097e-08
-1.40384e-07
-3.32106e-08
-1.4559e-07
-3.2928e-08
-1.50076e-07
-3.26636e-08
-1.53857e-07
-3.24178e-08
-1.56963e-07
-3.21911e-08
-1.59437e-07
-3.19824e-08
-1.61333e-07
-3.17914e-08
-1.62709e-07
-3.16161e-08
-1.63629e-07
-3.14558e-08
-1.64158e-07
-3.13082e-08
-1.64362e-07
-3.11724e-08
-1.64306e-07
-1.6405e-07
-3.10461e-08
-3.79414e-08
-8.66523e-08
3.82183e-08
-3.7632e-08
-9.57953e-08
-3.72991e-08
-1.04621e-07
-3.69525e-08
-1.13025e-07
-3.65991e-08
-1.20907e-07
-3.62461e-08
-1.28188e-07
-3.58987e-08
-1.34806e-07
-3.55617e-08
-1.40722e-07
-3.52384e-08
-1.45915e-07
-3.49314e-08
-1.50385e-07
-3.46423e-08
-1.54148e-07
-3.43719e-08
-1.57235e-07
-3.41205e-08
-1.59691e-07
-3.38873e-08
-1.61568e-07
-3.36721e-08
-1.62926e-07
-3.3473e-08
-1.6383e-07
-3.32893e-08
-1.64344e-07
-3.31189e-08
-1.64535e-07
-3.29608e-08
-1.64467e-07
-1.642e-07
-3.28129e-08
-4.01406e-08
-8.69466e-08
4.04337e-08
-3.98129e-08
-9.61239e-08
-3.94605e-08
-1.04974e-07
-3.90934e-08
-1.13393e-07
-3.87185e-08
-1.21283e-07
-3.83432e-08
-1.28565e-07
-3.79726e-08
-1.35178e-07
-3.76118e-08
-1.41084e-07
-3.72642e-08
-1.46264e-07
-3.69326e-08
-1.50718e-07
-3.66186e-08
-1.54463e-07
-3.63232e-08
-1.57532e-07
-3.60468e-08
-1.59969e-07
-3.57889e-08
-1.61828e-07
-3.5549e-08
-1.63168e-07
-3.53257e-08
-1.64055e-07
-3.51181e-08
-1.64554e-07
-3.49243e-08
-1.64731e-07
-3.47432e-08
-1.6465e-07
-1.64373e-07
-3.45731e-08
-4.23378e-08
-8.72552e-08
4.26457e-08
-4.1993e-08
-9.64696e-08
-4.16214e-08
-1.05346e-07
-4.12336e-08
-1.13782e-07
-4.08369e-08
-1.21681e-07
-4.04388e-08
-1.28964e-07
-4.00446e-08
-1.35574e-07
-3.96596e-08
-1.41471e-07
-3.92873e-08
-1.46638e-07
-3.89305e-08
-1.51077e-07
-3.85912e-08
-1.54805e-07
-3.82703e-08
-1.57855e-07
-3.79684e-08
-1.60273e-07
-3.76851e-08
-1.62113e-07
-3.74199e-08
-1.63436e-07
-3.71717e-08
-1.64306e-07
-3.69394e-08
-1.64789e-07
-3.67216e-08
-1.64951e-07
-3.65167e-08
-1.64858e-07
-1.64568e-07
-3.63237e-08
-4.45307e-08
-8.75787e-08
4.48537e-08
-4.41691e-08
-9.68318e-08
-4.3779e-08
-1.05737e-07
-4.33709e-08
-1.14192e-07
-4.29524e-08
-1.221e-07
-4.25315e-08
-1.29387e-07
-4.21136e-08
-1.35993e-07
-4.1704e-08
-1.41883e-07
-4.13065e-08
-1.47038e-07
-4.09242e-08
-1.51461e-07
-4.0559e-08
-1.55172e-07
-4.02121e-08
-1.58205e-07
-3.9884e-08
-1.60604e-07
-3.95748e-08
-1.62425e-07
-3.92836e-08
-1.6373e-07
-3.90099e-08
-1.64582e-07
-3.87522e-08
-1.65049e-07
-3.85096e-08
-1.65197e-07
-3.82803e-08
-1.6509e-07
-1.64788e-07
-3.80636e-08
-4.67292e-08
-8.79182e-08
4.70682e-08
-4.63494e-08
-9.72128e-08
-4.59389e-08
-1.06148e-07
-4.55091e-08
-1.14623e-07
-4.50676e-08
-1.22543e-07
-4.46229e-08
-1.29834e-07
-4.41801e-08
-1.36438e-07
-4.37453e-08
-1.4232e-07
-4.33217e-08
-1.47464e-07
-4.29132e-08
-1.51872e-07
-4.25212e-08
-1.55567e-07
-4.21477e-08
-1.58581e-07
-4.17926e-08
-1.60962e-07
-4.14566e-08
-1.62764e-07
-4.11386e-08
-1.6405e-07
-4.08385e-08
-1.64885e-07
-4.05546e-08
-1.65336e-07
-4.02864e-08
-1.65468e-07
-4.00318e-08
-1.65347e-07
-1.65032e-07
-3.97906e-08
-4.89297e-08
-8.82764e-08
4.9286e-08
-4.85301e-08
-9.7614e-08
-4.80986e-08
-1.0658e-07
-4.76465e-08
-1.15077e-07
-4.71815e-08
-1.2301e-07
-4.67121e-08
-1.30305e-07
-4.62439e-08
-1.36908e-07
-4.5783e-08
-1.42783e-07
-4.53326e-08
-1.47916e-07
-4.48969e-08
-1.52311e-07
-4.44774e-08
-1.55989e-07
-4.40761e-08
-1.58985e-07
-4.36932e-08
-1.61347e-07
-4.33295e-08
-1.63131e-07
-4.29838e-08
-1.64399e-07
-4.26564e-08
-1.65216e-07
-4.23453e-08
-1.6565e-07
-4.20506e-08
-1.65766e-07
-4.17698e-08
-1.65631e-07
-1.65303e-07
-4.15032e-08
-5.11321e-08
-8.86515e-08
5.15056e-08
-5.0713e-08
-9.80347e-08
-5.02599e-08
-1.07034e-07
-4.97847e-08
-1.15554e-07
-4.9295e-08
-1.23501e-07
-4.88001e-08
-1.30803e-07
-4.83053e-08
-1.37405e-07
-4.78172e-08
-1.43274e-07
-4.73389e-08
-1.48397e-07
-4.6875e-08
-1.52778e-07
-4.64267e-08
-1.5644e-07
-4.59967e-08
-1.59418e-07
-4.55848e-08
-1.61762e-07
-4.51923e-08
-1.63527e-07
-4.48178e-08
-1.64776e-07
-4.4462e-08
-1.65575e-07
-4.41227e-08
-1.65992e-07
-4.38005e-08
-1.66092e-07
-4.34924e-08
-1.65941e-07
-1.65599e-07
-4.31994e-08
-5.33353e-08
-8.90443e-08
5.37268e-08
-5.28964e-08
-9.84751e-08
-5.24213e-08
-1.0751e-07
-5.19225e-08
-1.16055e-07
-5.14075e-08
-1.24018e-07
-5.08861e-08
-1.31327e-07
-5.03637e-08
-1.3793e-07
-4.98473e-08
-1.43794e-07
-4.934e-08
-1.48907e-07
-4.88467e-08
-1.53275e-07
-4.83685e-08
-1.56921e-07
-4.79085e-08
-1.59882e-07
-4.74664e-08
-1.62207e-07
-4.70439e-08
-1.63953e-07
-4.66393e-08
-1.65184e-07
-4.62539e-08
-1.65965e-07
-4.58853e-08
-1.66364e-07
-4.55342e-08
-1.66447e-07
-4.51977e-08
-1.66281e-07
-1.65924e-07
-4.48771e-08
-5.5543e-08
-8.94552e-08
5.59526e-08
-5.50834e-08
-9.89367e-08
-5.45852e-08
-1.0801e-07
-5.40615e-08
-1.16581e-07
-5.352e-08
-1.24561e-07
-5.29709e-08
-1.31879e-07
-5.24196e-08
-1.38483e-07
-5.18736e-08
-1.44343e-07
-5.13359e-08
-1.49447e-07
-5.08118e-08
-1.53802e-07
-5.03023e-08
-1.57433e-07
-4.9811e-08
-1.60377e-07
-4.93372e-08
-1.62683e-07
-4.88833e-08
-1.64411e-07
-4.84473e-08
-1.65622e-07
-4.8031e-08
-1.66385e-07
-4.76315e-08
-1.66766e-07
-4.72504e-08
-1.66833e-07
-4.68841e-08
-1.6665e-07
-1.66278e-07
-4.65346e-08
-5.77581e-08
-8.98881e-08
5.81881e-08
-5.72753e-08
-9.94218e-08
-5.67521e-08
-1.08534e-07
-5.62019e-08
-1.17134e-07
-5.56325e-08
-1.25133e-07
-5.50543e-08
-1.3246e-07
-5.44727e-08
-1.39067e-07
-5.38956e-08
-1.44923e-07
-5.33261e-08
-1.50019e-07
-5.27697e-08
-1.54362e-07
-5.22274e-08
-1.57978e-07
-5.17031e-08
-1.60905e-07
-5.11962e-08
-1.63193e-07
-5.07093e-08
-1.64902e-07
-5.02403e-08
-1.66094e-07
-4.97914e-08
-1.66838e-07
-4.93596e-08
-1.67201e-07
-4.89468e-08
-1.6725e-07
-4.85491e-08
-1.6705e-07
-1.66662e-07
-4.81694e-08
-5.99736e-08
-9.034e-08
6.04234e-08
-5.94684e-08
-9.99293e-08
-5.89201e-08
-1.09084e-07
-5.83428e-08
-1.17714e-07
-5.77444e-08
-1.25733e-07
-5.71358e-08
-1.33072e-07
-5.65225e-08
-1.39683e-07
-5.59129e-08
-1.45537e-07
-5.53099e-08
-1.50625e-07
-5.47197e-08
-1.54956e-07
-5.41429e-08
-1.58557e-07
-5.35841e-08
-1.61467e-07
-5.30423e-08
-1.63738e-07
-5.25208e-08
-1.65427e-07
-5.20171e-08
-1.66601e-07
-5.15341e-08
-1.67325e-07
-5.10682e-08
-1.6767e-07
-5.06222e-08
-1.67701e-07
-5.01918e-08
-1.67483e-07
-1.67078e-07
-4.97802e-08
-6.21973e-08
-9.08147e-08
6.26696e-08
-6.16673e-08
-1.00462e-07
-6.1092e-08
-1.0966e-07
-6.04858e-08
-1.18323e-07
-5.98567e-08
-1.26364e-07
-5.9216e-08
-1.33716e-07
-5.85693e-08
-1.40332e-07
-5.79253e-08
-1.46184e-07
-5.7287e-08
-1.51266e-07
-5.6661e-08
-1.55586e-07
-5.6048e-08
-1.59173e-07
-5.54527e-08
-1.62067e-07
-5.48742e-08
-1.64319e-07
-5.43161e-08
-1.6599e-07
-5.3776e-08
-1.67144e-07
-5.32569e-08
-1.67849e-07
-5.27554e-08
-1.68174e-07
-5.22744e-08
-1.68186e-07
-5.18094e-08
-1.67951e-07
-1.67529e-07
-5.13644e-08
-6.44229e-08
-9.13105e-08
6.49169e-08
-6.38684e-08
-1.01019e-07
-6.32655e-08
-1.10264e-07
-6.26295e-08
-1.18962e-07
-6.19684e-08
-1.27027e-07
-6.12942e-08
-1.34394e-07
-6.06123e-08
-1.41016e-07
-5.99322e-08
-1.46868e-07
-5.92567e-08
-1.51944e-07
-5.85931e-08
-1.56254e-07
-5.79417e-08
-1.59827e-07
-5.7308e-08
-1.62705e-07
-5.66908e-08
-1.64939e-07
-5.60943e-08
-1.66591e-07
-5.55157e-08
-1.67725e-07
-5.49588e-08
-1.68411e-07
-5.44196e-08
-1.68716e-07
-5.39019e-08
-1.68709e-07
-5.34006e-08
-1.68455e-07
-1.68014e-07
-5.29204e-08
-6.66609e-08
-9.18318e-08
6.71798e-08
-6.60784e-08
-1.01604e-07
-6.54452e-08
-1.10899e-07
-6.47768e-08
-1.19634e-07
-6.40813e-08
-1.27724e-07
-6.33713e-08
-1.35107e-07
-6.26521e-08
-1.41738e-07
-6.19336e-08
-1.47591e-07
-6.12188e-08
-1.52661e-07
-6.05152e-08
-1.56962e-07
-5.98234e-08
-1.60522e-07
-5.91491e-08
-1.63384e-07
-5.8491e-08
-1.656e-07
-5.78539e-08
-1.67233e-07
-5.72347e-08
-1.68348e-07
-5.66377e-08
-1.69013e-07
-5.60589e-08
-1.69298e-07
-5.55023e-08
-1.69271e-07
-5.49627e-08
-1.68998e-07
-1.68537e-07
-5.44453e-08
-6.89009e-08
-9.23765e-08
6.94436e-08
-6.82911e-08
-1.02216e-07
-6.76272e-08
-1.11564e-07
-6.69255e-08
-1.20339e-07
-6.61941e-08
-1.28458e-07
-6.54465e-08
-1.35859e-07
-6.46879e-08
-1.42499e-07
-6.3929e-08
-1.48354e-07
-6.31726e-08
-1.5342e-07
-6.24268e-08
-1.57712e-07
-6.16921e-08
-1.6126e-07
-6.0975e-08
-1.64106e-07
-6.02736e-08
-1.66305e-07
-5.95935e-08
-1.67918e-07
-5.89315e-08
-1.69013e-07
-5.82922e-08
-1.69658e-07
-5.76713e-08
-1.69922e-07
-5.70737e-08
-1.69875e-07
-5.64937e-08
-1.69581e-07
-1.691e-07
-5.59371e-08
-7.1155e-08
-9.29496e-08
7.17255e-08
-7.05142e-08
-1.0286e-07
-6.98164e-08
-1.12263e-07
-6.90785e-08
-1.2108e-07
-6.83087e-08
-1.2923e-07
-6.75208e-08
-1.36651e-07
-6.67204e-08
-1.43302e-07
-6.59185e-08
-1.4916e-07
-6.51179e-08
-1.54224e-07
-6.43274e-08
-1.58508e-07
-6.35472e-08
-1.62043e-07
-6.27845e-08
-1.64874e-07
-6.20374e-08
-1.67055e-07
-6.13118e-08
-1.68649e-07
-6.06043e-08
-1.69723e-07
-5.99202e-08
-1.70347e-07
-5.92549e-08
-1.70591e-07
-5.86139e-08
-1.70522e-07
-5.79911e-08
-1.70206e-07
-1.69704e-07
-5.73931e-08
-7.3413e-08
-9.35489e-08
7.401e-08
-7.27415e-08
-1.03534e-07
-7.20092e-08
-1.12997e-07
-7.12337e-08
-1.21859e-07
-7.04236e-08
-1.30042e-07
-6.95934e-08
-1.37485e-07
-6.87488e-08
-1.44149e-07
-6.79014e-08
-1.50012e-07
-6.7054e-08
-1.55074e-07
-6.6216e-08
-1.59351e-07
-6.53877e-08
-1.62874e-07
-6.45766e-08
-1.6569e-07
-6.37809e-08
-1.67854e-07
-6.3007e-08
-1.69429e-07
-6.22513e-08
-1.70482e-07
-6.15197e-08
-1.71085e-07
-6.08074e-08
-1.71306e-07
-6.01204e-08
-1.71215e-07
-5.94523e-08
-1.70877e-07
-1.70353e-07
-5.88104e-08
-7.56863e-08
-9.41798e-08
7.63142e-08
-7.49801e-08
-1.04243e-07
-7.42098e-08
-1.13768e-07
-7.33937e-08
-1.22679e-07
-7.25404e-08
-1.30897e-07
-7.1665e-08
-1.38365e-07
-7.07732e-08
-1.45043e-07
-6.98774e-08
-1.50913e-07
-6.89803e-08
-1.55974e-07
-6.80919e-08
-1.60244e-07
-6.72124e-08
-1.63757e-07
-6.63501e-08
-1.66558e-07
-6.55029e-08
-1.68704e-07
-6.46777e-08
-1.7026e-07
-6.38709e-08
-1.71293e-07
-6.30889e-08
-1.71873e-07
-6.23267e-08
-1.72072e-07
-6.15908e-08
-1.71958e-07
-6.08748e-08
-1.71597e-07
-1.71048e-07
-6.01864e-08
-7.79654e-08
-9.48404e-08
7.86235e-08
-7.72245e-08
-1.04988e-07
-7.64152e-08
-1.14579e-07
-7.55566e-08
-1.23542e-07
-7.46578e-08
-1.31799e-07
-7.37346e-08
-1.39293e-07
-7.27929e-08
-1.45988e-07
-7.18457e-08
-1.51866e-07
-7.08958e-08
-1.56927e-07
-6.99539e-08
-1.61192e-07
-6.90202e-08
-1.64694e-07
-6.81033e-08
-1.67481e-07
-6.72013e-08
-1.6961e-07
-6.63217e-08
-1.71146e-07
-6.54606e-08
-1.72157e-07
-6.46251e-08
-1.72715e-07
-6.38099e-08
-1.72891e-07
-6.30223e-08
-1.72752e-07
-6.22553e-08
-1.72367e-07
-1.71793e-07
-6.15176e-08
-8.02611e-08
-9.55365e-08
8.09538e-08
-7.94811e-08
-1.05771e-07
-7.86291e-08
-1.15433e-07
-7.77247e-08
-1.24451e-07
-7.67772e-08
-1.32749e-07
-7.58029e-08
-1.40272e-07
-7.48081e-08
-1.46986e-07
-7.38061e-08
-1.52873e-07
-7.28001e-08
-1.57937e-07
-7.18012e-08
-1.62197e-07
-7.08097e-08
-1.65689e-07
-6.98349e-08
-1.68462e-07
-6.88746e-08
-1.70574e-07
-6.79371e-08
-1.7209e-07
-6.70183e-08
-1.7308e-07
-6.6126e-08
-1.73614e-07
-6.52546e-08
-1.73766e-07
-6.4412e-08
-1.73602e-07
-6.3591e-08
-1.73191e-07
-1.72591e-07
-6.2801e-08
-8.25638e-08
-9.62662e-08
8.32907e-08
-8.17445e-08
-1.06594e-07
-8.08484e-08
-1.16331e-07
-7.9896e-08
-1.25407e-07
-7.88971e-08
-1.3375e-07
-7.78688e-08
-1.41306e-07
-7.68176e-08
-1.4804e-07
-7.57575e-08
-1.53939e-07
-7.46919e-08
-1.59006e-07
-7.36324e-08
-1.63262e-07
-7.25794e-08
-1.66745e-07
-7.15429e-08
-1.69505e-07
-7.05207e-08
-1.71599e-07
-6.95215e-08
-1.73096e-07
-6.85414e-08
-1.74063e-07
-6.75886e-08
-1.74574e-07
-6.66574e-08
-1.747e-07
-6.57565e-08
-1.74511e-07
-6.48781e-08
-1.74072e-07
-1.73445e-07
-6.40325e-08
-8.48849e-08
-9.70358e-08
8.5651e-08
-8.40215e-08
-1.07461e-07
-8.30771e-08
-1.17277e-07
-8.20728e-08
-1.26416e-07
-8.10187e-08
-1.34807e-07
-7.99327e-08
-1.42397e-07
-7.88212e-08
-1.49155e-07
-7.76992e-08
-1.55067e-07
-7.657e-08
-1.60138e-07
-7.54461e-08
-1.64392e-07
-7.43277e-08
-1.67867e-07
-7.32256e-08
-1.70613e-07
-7.21374e-08
-1.72691e-07
-7.10728e-08
-1.74167e-07
-7.00274e-08
-1.75112e-07
-6.90103e-08
-1.75599e-07
-6.80156e-08
-1.75699e-07
-6.70525e-08
-1.75482e-07
-6.61131e-08
-1.75015e-07
-1.74358e-07
-6.52085e-08
-8.72146e-08
-9.7844e-08
8.80197e-08
-8.63064e-08
-1.08373e-07
-8.53118e-08
-1.18273e-07
-8.42531e-08
-1.2748e-07
-8.31407e-08
-1.35922e-07
-8.19933e-08
-1.4355e-07
-8.08179e-08
-1.50333e-07
-7.963e-08
-1.56261e-07
-7.84331e-08
-1.61338e-07
-7.72405e-08
-1.65591e-07
-7.60525e-08
-1.69059e-07
-7.48805e-08
-1.71792e-07
-7.37221e-08
-1.73853e-07
-7.25878e-08
-1.75309e-07
-7.1473e-08
-1.76231e-07
-7.03875e-08
-1.76692e-07
-6.93251e-08
-1.76765e-07
-6.82961e-08
-1.76519e-07
-6.72919e-08
-1.76022e-07
-1.75334e-07
-6.63246e-08
-8.95648e-08
-9.86974e-08
9.04143e-08
-8.86065e-08
-1.09336e-07
-8.75571e-08
-1.19324e-07
-8.64394e-08
-1.28602e-07
-8.52644e-08
-1.371e-07
-8.40514e-08
-1.44769e-07
-8.28076e-08
-1.51581e-07
-8.15494e-08
-1.57525e-07
-8.02804e-08
-1.62611e-07
-7.90145e-08
-1.66864e-07
-7.77523e-08
-1.70325e-07
-7.65058e-08
-1.73046e-07
-7.52727e-08
-1.7509e-07
-7.40641e-08
-1.76525e-07
-7.28753e-08
-1.77423e-07
-7.1717e-08
-1.77858e-07
-7.05828e-08
-1.77903e-07
-6.94836e-08
-1.77627e-07
-6.84106e-08
-1.77098e-07
-1.76377e-07
-6.73767e-08
-9.19256e-08
-9.95947e-08
9.28194e-08
-9.09163e-08
-1.10349e-07
-8.98099e-08
-1.20433e-07
-8.86303e-08
-1.29787e-07
-8.73889e-08
-1.38344e-07
-8.61062e-08
-1.46057e-07
-8.47897e-08
-1.529e-07
-8.34565e-08
-1.58865e-07
-8.21106e-08
-1.63961e-07
-8.07667e-08
-1.68215e-07
-7.94253e-08
-1.7167e-07
-7.80994e-08
-1.74379e-07
-7.67865e-08
-1.76407e-07
-7.54986e-08
-1.77821e-07
-7.42311e-08
-1.78695e-07
-7.29951e-08
-1.79102e-07
-7.17843e-08
-1.79117e-07
-7.06102e-08
-1.7881e-07
-6.94639e-08
-1.78247e-07
-1.77491e-07
-6.83591e-08
-9.43104e-08
-1.00543e-07
9.52548e-08
-9.32442e-08
-1.1142e-07
-9.20754e-08
-1.21604e-07
-9.08288e-08
-1.31039e-07
-8.95162e-08
-1.39659e-07
-8.81588e-08
-1.47421e-07
-8.67644e-08
-1.54298e-07
-8.53512e-08
-1.60285e-07
-8.39231e-08
-1.65392e-07
-8.24958e-08
-1.6965e-07
-8.10699e-08
-1.731e-07
-7.96591e-08
-1.75798e-07
-7.82612e-08
-1.77808e-07
-7.68887e-08
-1.79201e-07
-7.55369e-08
-1.8005e-07
-7.42181e-08
-1.8043e-07
-7.29254e-08
-1.80413e-07
-7.16716e-08
-1.80073e-07
-7.0447e-08
-1.79475e-07
-1.78681e-07
-6.92665e-08
-9.67089e-08
-1.01542e-07
9.77039e-08
-9.55845e-08
-1.12549e-07
-9.43506e-08
-1.2284e-07
-9.30333e-08
-1.32362e-07
-9.16451e-08
-1.41051e-07
-9.02082e-08
-1.48864e-07
-8.87309e-08
-1.55779e-07
-8.72322e-08
-1.61791e-07
-8.57164e-08
-1.66912e-07
-8.42e-08
-1.71173e-07
-8.26837e-08
-1.7462e-07
-8.11822e-08
-1.77307e-07
-7.96933e-08
-1.79301e-07
-7.82303e-08
-1.80673e-07
-7.67886e-08
-1.81496e-07
-7.53811e-08
-1.81846e-07
-7.4001e-08
-1.81797e-07
-7.26619e-08
-1.81421e-07
-7.13537e-08
-1.80786e-07
-1.79952e-07
-7.00926e-08
-9.91351e-08
-1.02599e-07
1.00187e-07
-9.79458e-08
-1.13743e-07
-9.66409e-08
-1.24147e-07
-9.52471e-08
-1.33762e-07
-9.37775e-08
-1.42523e-07
-9.22553e-08
-1.50393e-07
-9.0689e-08
-1.57349e-07
-8.90987e-08
-1.63388e-07
-8.7489e-08
-1.68526e-07
-8.58772e-08
-1.72793e-07
-8.42643e-08
-1.76237e-07
-8.26658e-08
-1.78914e-07
-8.10795e-08
-1.80892e-07
-7.95198e-08
-1.82241e-07
-7.79818e-08
-1.83038e-07
-7.64797e-08
-1.83357e-07
-7.50061e-08
-1.83275e-07
-7.35758e-08
-1.82862e-07
-7.21784e-08
-1.82186e-07
-1.8131e-07
-7.08311e-08
-1.01578e-07
-1.03713e-07
1.02688e-07
-1.00322e-07
-1.15004e-07
-9.89426e-08
-1.25529e-07
-9.74679e-08
-1.35242e-07
-9.59118e-08
-1.44083e-07
-9.42985e-08
-1.52013e-07
-9.26373e-08
-1.59014e-07
-9.09491e-08
-1.65084e-07
-8.92389e-08
-1.7024e-07
-8.7525e-08
-1.74515e-07
-8.58086e-08
-1.77957e-07
-8.41062e-08
-1.80625e-07
-8.24156e-08
-1.82586e-07
-8.07524e-08
-1.83913e-07
-7.91114e-08
-1.84683e-07
-7.75079e-08
-1.8497e-07
-7.59344e-08
-1.84852e-07
-7.44066e-08
-1.844e-07
-7.29139e-08
-1.83682e-07
-1.8276e-07
-7.14746e-08
-1.04051e-07
-1.04894e-07
1.05227e-07
-1.02722e-07
-1.16339e-07
-1.01261e-07
-1.26992e-07
-9.96989e-08
-1.36811e-07
-9.80496e-08
-1.45736e-07
-9.63385e-08
-1.53732e-07
-9.45753e-08
-1.60781e-07
-9.27821e-08
-1.66885e-07
-9.09642e-08
-1.72062e-07
-8.91409e-08
-1.76347e-07
-8.73136e-08
-1.79789e-07
-8.55e-08
-1.82448e-07
-8.36977e-08
-1.84393e-07
-8.19236e-08
-1.85697e-07
-8.01723e-08
-1.86438e-07
-7.84603e-08
-1.86692e-07
-7.67799e-08
-1.86536e-07
-7.5148e-08
-1.86042e-07
-7.35533e-08
-1.8528e-07
-1.84309e-07
-7.20157e-08
-1.06546e-07
-1.0614e-07
1.07788e-07
-1.05139e-07
-1.17751e-07
-1.03593e-07
-1.28541e-07
-1.01938e-07
-1.38472e-07
-1.00189e-07
-1.47488e-07
-9.83738e-08
-1.55555e-07
-9.65016e-08
-1.62657e-07
-9.4596e-08
-1.68799e-07
-9.26626e-08
-1.73999e-07
-9.07221e-08
-1.78296e-07
-8.87759e-08
-1.81739e-07
-8.68429e-08
-1.8439e-07
-8.4921e-08
-1.86319e-07
-8.30279e-08
-1.876e-07
-8.11585e-08
-1.88311e-07
-7.93303e-08
-1.88531e-07
-7.75353e-08
-1.88335e-07
-7.57918e-08
-1.87797e-07
-7.40881e-08
-1.86986e-07
-1.85964e-07
-7.24454e-08
-1.09074e-07
-1.07462e-07
1.10391e-07
-1.07583e-07
-1.19248e-07
-1.05944e-07
-1.30183e-07
-1.04189e-07
-1.40235e-07
-1.02333e-07
-1.49347e-07
-1.00405e-07
-1.5749e-07
-9.84156e-08
-1.64651e-07
-9.63892e-08
-1.70834e-07
-9.4332e-08
-1.76061e-07
-9.22657e-08
-1.80372e-07
-9.0192e-08
-1.83817e-07
-8.8131e-08
-1.86461e-07
-8.60807e-08
-1.88373e-07
-8.40601e-08
-1.89631e-07
-8.2064e-08
-1.90311e-07
-8.01112e-08
-1.90494e-07
-7.81935e-08
-1.90256e-07
-7.63305e-08
-1.89672e-07
-7.451e-08
-1.88809e-07
-1.87731e-07
-7.27548e-08
-1.11629e-07
-1.08861e-07
1.13022e-07
-1.10049e-07
-1.20833e-07
-1.08312e-07
-1.31924e-07
-1.06449e-07
-1.42104e-07
-1.04479e-07
-1.51321e-07
-1.02431e-07
-1.59547e-07
-1.00316e-07
-1.6677e-07
-9.816e-08
-1.72998e-07
-9.59698e-08
-1.78256e-07
-9.37684e-08
-1.82583e-07
-9.15578e-08
-1.86032e-07
-8.93594e-08
-1.88669e-07
-8.71712e-08
-1.90566e-07
-8.50137e-08
-1.91799e-07
-8.28816e-08
-1.92448e-07
-8.0795e-08
-1.92592e-07
-7.87456e-08
-1.9231e-07
-7.67544e-08
-1.91675e-07
-7.48088e-08
-1.90757e-07
-1.8962e-07
-7.29332e-08
-1.14221e-07
-1.10345e-07
1.157e-07
-1.12545e-07
-1.22515e-07
-1.10701e-07
-1.33773e-07
-1.08723e-07
-1.4409e-07
-1.06629e-07
-1.53419e-07
-1.04452e-07
-1.61733e-07
-1.02202e-07
-1.69025e-07
-9.99067e-08
-1.75303e-07
-9.75736e-08
-1.80594e-07
-9.52269e-08
-1.84939e-07
-9.28691e-08
-1.88395e-07
-9.0523e-08
-1.91026e-07
-8.81867e-08
-1.92907e-07
-8.58821e-08
-1.94115e-07
-8.36038e-08
-1.9473e-07
-8.13736e-08
-1.94834e-07
-7.91829e-08
-1.94504e-07
-7.70542e-08
-1.93816e-07
-7.49745e-08
-1.9284e-07
-1.91638e-07
-7.29697e-08
-1.16846e-07
-1.11918e-07
1.18414e-07
-1.15068e-07
-1.243e-07
-1.1311e-07
-1.35735e-07
-1.11009e-07
-1.46199e-07
-1.08783e-07
-1.55648e-07
-1.06467e-07
-1.64059e-07
-1.04072e-07
-1.71425e-07
-1.01627e-07
-1.77757e-07
-9.91401e-08
-1.83085e-07
-9.66373e-08
-1.87452e-07
-9.41211e-08
-1.90916e-07
-9.1616e-08
-1.93542e-07
-8.91203e-08
-1.95407e-07
-8.66574e-08
-1.96589e-07
-8.42221e-08
-1.9717e-07
-8.18374e-08
-1.97231e-07
-7.94948e-08
-1.96851e-07
-7.72184e-08
-1.96106e-07
-7.49945e-08
-1.95066e-07
-1.93795e-07
-7.28513e-08
-1.19516e-07
-1.1359e-07
1.2118e-07
-1.17626e-07
-1.26197e-07
-1.15544e-07
-1.3782e-07
-1.1331e-07
-1.48443e-07
-1.10942e-07
-1.58021e-07
-1.08476e-07
-1.66535e-07
-1.05924e-07
-1.73981e-07
-1.03319e-07
-1.80374e-07
-1.00666e-07
-1.85743e-07
-9.79951e-08
-1.90134e-07
-9.53085e-08
-1.93607e-07
-9.26322e-08
-1.9623e-07
-8.99649e-08
-1.98079e-07
-8.73316e-08
-1.99235e-07
-8.47271e-08
-1.99779e-07
-8.21763e-08
-1.99794e-07
-7.96703e-08
-1.99361e-07
-7.72351e-08
-1.98555e-07
-7.48565e-08
-1.97447e-07
-1.96102e-07
-7.25646e-08
-1.22223e-07
-1.15364e-07
1.2399e-07
-1.20215e-07
-1.28212e-07
-1.18003e-07
-1.40037e-07
-1.15625e-07
-1.50829e-07
-1.13105e-07
-1.60546e-07
-1.10477e-07
-1.69172e-07
-1.07758e-07
-1.76706e-07
-1.04978e-07
-1.83164e-07
-1.02148e-07
-1.88579e-07
-9.92954e-08
-1.92998e-07
-9.6425e-08
-1.96483e-07
-9.35642e-08
-1.99103e-07
-9.0712e-08
-2.00936e-07
-8.78951e-08
-2.02064e-07
-8.51083e-08
-2.0257e-07
-8.23785e-08
-2.02538e-07
-7.96966e-08
-2.02047e-07
-7.70904e-08
-2.01175e-07
-7.45455e-08
-1.99995e-07
-1.98569e-07
-7.20939e-08
-1.2498e-07
-1.17251e-07
1.2686e-07
-1.22844e-07
-1.30356e-07
-1.20489e-07
-1.42398e-07
-1.17957e-07
-1.5337e-07
-1.15272e-07
-1.63237e-07
-1.12471e-07
-1.71983e-07
-1.0957e-07
-1.79612e-07
-1.06603e-07
-1.86142e-07
-1.03581e-07
-1.91607e-07
-1.00533e-07
-1.96058e-07
-9.74642e-08
-1.99557e-07
-9.44044e-08
-2.02176e-07
-9.13526e-08
-2.03993e-07
-8.83376e-08
-2.05093e-07
-8.53544e-08
-2.05558e-07
-8.24315e-08
-2.05475e-07
-7.95601e-08
-2.04923e-07
-7.67698e-08
-2.03981e-07
-7.40457e-08
-2.02721e-07
-2.01209e-07
-7.14222e-08
-1.27783e-07
-1.19257e-07
1.29781e-07
-1.2551e-07
-1.32637e-07
-1.23003e-07
-1.4491e-07
-1.20305e-07
-1.56078e-07
-1.17443e-07
-1.66105e-07
-1.14455e-07
-1.74982e-07
-1.11359e-07
-1.82714e-07
-1.0819e-07
-1.89322e-07
-1.0496e-07
-1.94843e-07
-1.01701e-07
-1.9933e-07
-9.84184e-08
-2.02845e-07
-9.51436e-08
-2.05464e-07
-9.18763e-08
-2.07266e-07
-8.86474e-08
-2.08336e-07
-8.5452e-08
-2.08759e-07
-8.23208e-08
-2.0862e-07
-7.92447e-08
-2.08003e-07
-7.62559e-08
-2.06986e-07
-7.33388e-08
-2.05641e-07
-2.04034e-07
-7.05303e-08
-1.30643e-07
-1.21395e-07
1.32771e-07
-1.28221e-07
-1.35068e-07
-1.25549e-07
-1.47589e-07
-1.22672e-07
-1.58965e-07
-1.19618e-07
-1.69165e-07
-1.16428e-07
-1.78184e-07
-1.13121e-07
-1.86028e-07
-1.09734e-07
-1.92721e-07
-1.0628e-07
-1.98304e-07
-1.02793e-07
-2.0283e-07
-9.92793e-08