/*--------------------------------*- C++ -*----------------------------------*\
  =========                 |
  \\      /  F ield         | OpenFOAM: The Open Source CFD Toolbox
   \\    /   O peration     | Website:  https://openfoam.org
    \\  /    A nd           | Version:  6
     \\/     M anipulation  |
\*---------------------------------------------------------------------------*/
FoamFile
{
    version     2.0;
    format      ascii;
    class       volVectorField;
    location    "12";
    object      U;
}
// * * * * * * * * * * * * * * * * * * * * * * * * * * * * * * * * * * * * * //

dimensions      [0 1 -1 0 0 0 0];

internalField   nonuniform List<vector> 
10000
(
(-0.00601898 -3.34625 0)
(-0.0109089 -4.45334 0)
(-0.0160017 -4.92415 0)
(-0.0171697 -5.17726 0)
(-0.0157403 -5.30464 0)
(-0.0135547 -5.36497 0)
(-0.0114752 -5.39132 0)
(-0.00969684 -5.40102 0)
(-0.0081457 -5.40288 0)
(-0.00674122 -5.40111 0)
(-0.00541151 -5.39734 0)
(-0.00408141 -5.39131 0)
(-0.00262398 -5.38098 0)
(-0.000802953 -5.36184 0)
(0.00160046 -5.32528 0)
(0.00467459 -5.25513 0)
(0.00765422 -5.12079 0)
(0.00895583 -4.8676 0)
(0.00702764 -4.40521 0)
(0.00549488 -3.31933 0)
(-0.00292561 -3.34496 0)
(-0.00298119 -4.44866 0)
(-0.00595161 -4.92539 0)
(-0.00752269 -5.18247 0)
(-0.00816054 -5.31169 0)
(-0.0080206 -5.37221 0)
(-0.00745935 -5.39794 0)
(-0.00671246 -5.40691 0)
(-0.00588431 -5.40818 0)
(-0.00504932 -5.40606 0)
(-0.00423454 -5.40216 0)
(-0.00344865 -5.3963 0)
(-0.00270198 -5.38647 0)
(-0.00194361 -5.36812 0)
(-0.00116911 -5.33237 0)
(-0.000410877 -5.26247 0)
(5.32684e-05 -5.12697 0)
(0.000445308 -4.87043 0)
(-0.000438552 -4.40284 0)
(0.00243588 -3.31788 0)
(-0.00366775 -3.3393 0)
(-0.00321876 -4.44243 0)
(-0.00343425 -4.92069 0)
(-0.00395579 -5.17941 0)
(-0.00442018 -5.30999 0)
(-0.00464131 -5.37153 0)
(-0.00468116 -5.39792 0)
(-0.00452663 -5.40728 0)
(-0.00422085 -5.40876 0)
(-0.00382367 -5.40672 0)
(-0.00338871 -5.40282 0)
(-0.00295247 -5.39688 0)
(-0.00255418 -5.38686 0)
(-0.00217216 -5.36821 0)
(-0.00176151 -5.33202 0)
(-0.00132621 -5.2615 0)
(-0.000829706 -5.12529 0)
(-0.000108215 -4.86847 0)
(0.000367028 -4.40115 0)
(0.00200693 -3.31599 0)
(-0.00226958 -3.33303 0)
(-0.00147846 -4.43835 0)
(-0.00157628 -4.9171 0)
(-0.00143508 -5.17684 0)
(-0.00176453 -5.3083 0)
(-0.00209553 -5.37054 0)
(-0.00241049 -5.39744 0)
(-0.00262931 -5.40716 0)
(-0.0027126 -5.40889 0)
(-0.00267169 -5.40704 0)
(-0.00255382 -5.40326 0)
(-0.0023792 -5.39736 0)
(-0.00220984 -5.38731 0)
(-0.0020323 -5.36861 0)
(-0.0018284 -5.33235 0)
(-0.00163034 -5.2619 0)
(-0.0014395 -5.12589 0)
(-0.000999282 -4.86928 0)
(-0.000772125 -4.40239 0)
(0.000311679 -3.31358 0)
(-0.000675133 -3.32991 0)
(-0.000709639 -4.43758 0)
(-0.00143505 -4.91501 0)
(-0.00121241 -5.17483 0)
(-0.00131821 -5.30653 0)
(-0.0015121 -5.36899 0)
(-0.00172748 -5.3963 0)
(-0.00191397 -5.40644 0)
(-0.00200642 -5.40851 0)
(-0.0019857 -5.40692 0)
(-0.00188029 -5.40333 0)
(-0.00170687 -5.39753 0)
(-0.00150849 -5.38748 0)
(-0.00128847 -5.36867 0)
(-0.00106615 -5.33234 0)
(-0.000860148 -5.26185 0)
(-0.000611601 -5.12591 0)
(-0.000547275 -4.86958 0)
(-0.000855239 -4.40343 0)
(-0.000549561 -3.31313 0)
(0.000684689 -3.33074 0)
(0.000113197 -4.43983 0)
(-0.00128381 -4.91633 0)
(-0.00146697 -5.17541 0)
(-0.00174473 -5.30676 0)
(-0.00188247 -5.369 0)
(-0.00191522 -5.39628 0)
(-0.00188828 -5.40654 0)
(-0.00181175 -5.40873 0)
(-0.00166574 -5.40728 0)
(-0.00146039 -5.40385 0)
(-0.0011876 -5.39816 0)
(-0.000862302 -5.38819 0)
(-0.000507755 -5.36941 0)
(-0.000175673 -5.33307 0)
(3.63159e-05 -5.26257 0)
(0.00011884 -5.12688 0)
(-0.000268559 -4.87048 0)
(-0.00129417 -4.40441 0)
(-0.00136048 -3.31658 0)
(0.000797889 -3.3317 0)
(-0.000140755 -4.44206 0)
(-0.000976765 -4.91783 0)
(-0.00142254 -5.17602 0)
(-0.00176384 -5.30739 0)
(-0.00184556 -5.36975 0)
(-0.00180172 -5.39704 0)
(-0.00168259 -5.40728 0)
(-0.0015361 -5.4095 0)
(-0.00134935 -5.40808 0)
(-0.00111628 -5.40469 0)
(-0.00083557 -5.39907 0)
(-0.000503018 -5.38916 0)
(-0.000166192 -5.37043 0)
(0.000110851 -5.33401 0)
(0.00019988 -5.26324 0)
(7.43464e-05 -5.12734 0)
(-0.000371405 -4.87094 0)
(-0.00130877 -4.40479 0)
(-0.00108003 -3.31948 0)
(8.18417e-05 -3.33256 0)
(-0.00036555 -4.44073 0)
(-0.000331977 -4.91686 0)
(-0.000946208 -5.17525 0)
(-0.00120766 -5.30701 0)
(-0.00124186 -5.3697 0)
(-0.00121566 -5.39729 0)
(-0.00115122 -5.40768 0)
(-0.00105858 -5.40999 0)
(-0.000935293 -5.40865 0)
(-0.000782197 -5.40534 0)
(-0.00058941 -5.3998 0)
(-0.000365272 -5.38998 0)
(-0.000172459 -5.37124 0)
(-2.71215e-05 -5.33471 0)
(-4.65745e-05 -5.2637 0)
(-0.000288052 -5.12723 0)
(-0.000567799 -4.87044 0)
(-0.00107925 -4.40434 0)
(-0.000500036 -3.32373 0)
(-0.000378499 -3.33143 0)
(-8.02913e-05 -4.43796 0)
(7.59769e-07 -4.91505 0)
(-0.000561723 -5.17419 0)
(-0.000842283 -5.30603 0)
(-0.000912932 -5.36897 0)
(-0.000909482 -5.3969 0)
(-0.000862855 -5.40755 0)
(-0.000800868 -5.41006 0)
(-0.000730227 -5.40884 0)
(-0.000646155 -5.40561 0)
(-0.000558732 -5.40011 0)
(-0.000480689 -5.3903 0)
(-0.000441671 -5.37149 0)
(-0.000483807 -5.33482 0)
(-0.000611016 -5.26367 0)
(-0.000951834 -5.12674 0)
(-0.00104313 -4.86943 0)
(-0.000780143 -4.40365 0)
(-0.000506551 -3.32603 0)
(-0.000163858 -3.33192 0)
(-8.78606e-05 -4.43684 0)
(-0.000404898 -4.91415 0)
(-0.000879964 -5.17388 0)
(-0.00113513 -5.30576 0)
(-0.00117598 -5.36878 0)
(-0.00109634 -5.39684 0)
(-0.00096151 -5.40758 0)
(-0.000817272 -5.41011 0)
(-0.000688243 -5.40891 0)
(-0.000600124 -5.40563 0)
(-0.000544769 -5.40006 0)
(-0.000541413 -5.39013 0)
(-0.000575656 -5.37112 0)
(-0.00067114 -5.33404 0)
(-0.000803276 -5.26236 0)
(-0.00101704 -5.12507 0)
(-0.00093774 -4.8674 0)
(-0.000157378 -4.40156 0)
(-0.000764872 -3.32551 0)
(-0.000358591 -3.33259 0)
(-0.000160566 -4.43677 0)
(-0.000427767 -4.91404 0)
(-0.000880601 -5.17409 0)
(-0.00116302 -5.30607 0)
(-0.0012538 -5.36912 0)
(-0.00117304 -5.39723 0)
(-0.000981246 -5.40799 0)
(-0.000756736 -5.41048 0)
(-0.000540301 -5.4092 0)
(-0.000352261 -5.40583 0)
(-0.000205716 -5.40016 0)
(-8.66042e-05 -5.39011 0)
(2.52672e-05 -5.3709 0)
(0.000100583 -5.33353 0)
(0.000127752 -5.26153 0)
(0.000116986 -5.12403 0)
(8.41302e-05 -4.86643 0)
(7.18845e-05 -4.40131 0)
(-0.00113455 -3.32576 0)
(-0.000674389 -3.33268 0)
(-0.000465427 -4.43614 0)
(-0.000481321 -4.91423 0)
(-0.000690602 -5.17425 0)
(-0.000960081 -5.30632 0)
(-0.00106839 -5.36958 0)
(-0.00100496 -5.39778 0)
(-0.000813006 -5.40857 0)
(-0.000566423 -5.41107 0)
(-0.000305507 -5.40976 0)
(-4.59146e-05 -5.40636 0)
(0.000210374 -5.40069 0)
(0.000479021 -5.3907 0)
(0.000767331 -5.3716 0)
(0.00104435 -5.33434 0)
(0.00123931 -5.26224 0)
(0.00123771 -5.12461 0)
(0.000979903 -4.86716 0)
(0.000178275 -4.40263 0)
(-0.0014228 -3.32764 0)
(-0.000648051 -3.33198 0)
(-0.000526403 -4.43629 0)
(-0.000341573 -4.91395 0)
(-0.00035729 -5.17393 0)
(-0.000519084 -5.3062 0)
(-0.000619858 -5.36972 0)
(-0.000612437 -5.39813 0)
(-0.000502225 -5.40904 0)
(-0.000331423 -5.4116 0)
(-0.000128694 -5.41033 0)
(9.9206e-05 -5.40698 0)
(0.000341266 -5.40138 0)
(0.000619287 -5.39147 0)
(0.000942605 -5.37253 0)
(0.00129551 -5.33539 0)
(0.0015955 -5.26316 0)
(0.00170514 -5.12506 0)
(0.00149688 -4.8673 0)
(0.000739183 -4.4025 0)
(-0.000756813 -3.32729 0)
(-0.000661286 -3.33081 0)
(0.000137885 -4.43544 0)
(-5.63568e-05 -4.91293 0)
(-9.6953e-05 -5.17277 0)
(-0.000179152 -5.30551 0)
(-0.000307757 -5.36952 0)
(-0.000334603 -5.39819 0)
(-0.000293524 -5.40926 0)
(-0.000189881 -5.41193 0)
(-4.71234e-05 -5.41072 0)
(0.000121487 -5.40742 0)
(0.000310981 -5.40188 0)
(0.000532082 -5.39206 0)
(0.000790006 -5.37321 0)
(0.00111763 -5.33621 0)
(0.00145559 -5.26392 0)
(0.00173286 -5.12506 0)
(0.0017273 -4.86622 0)
(0.00124272 -4.40061 0)
(-2.62309e-05 -3.32756 0)
(0.000394752 -3.33191 0)
(0.000988372 -4.43605 0)
(-0.0001304 -4.91297 0)
(-0.000429452 -5.17266 0)
(-0.000464187 -5.30555 0)
(-0.000482418 -5.36971 0)
(-0.000394892 -5.39846 0)
(-0.00030045 -5.40958 0)
(-0.000177287 -5.41229 0)
(-3.9623e-05 -5.41112 0)
(0.000121071 -5.40783 0)
(0.000276811 -5.40229 0)
(0.000444701 -5.39245 0)
(0.000633462 -5.37366 0)
(0.00085117 -5.33679 0)
(0.00111646 -5.26458 0)
(0.00143757 -5.12542 0)
(0.00161208 -4.86593 0)
(0.00179212 -4.39939 0)
(0.000129165 -3.32414 0)
(0.00141102 -3.33334 0)
(0.000784761 -4.43582 0)
(9.19479e-05 -4.91259 0)
(-7.78796e-05 -5.17248 0)
(-0.000216708 -5.3058 0)
(-0.0002188 -5.37009 0)
(-0.000172944 -5.39885 0)
(-0.000110575 -5.40997 0)
(-1.39808e-05 -5.41268 0)
(0.000104471 -5.4115 0)
(0.000237915 -5.4082 0)
(0.000382686 -5.40266 0)
(0.000535698 -5.39284 0)
(0.000689818 -5.37406 0)
(0.000853993 -5.33721 0)
(0.00106727 -5.26508 0)
(0.00143639 -5.1259 0)
(0.00168286 -4.86578 0)
(0.00221681 -4.39804 0)
(0.000281875 -3.32059 0)
(0.00173217 -3.33426 0)
(0.000113918 -4.43524 0)
(-0.000255048 -4.9112 0)
(-0.000167486 -5.17163 0)
(-0.000190808 -5.30548 0)
(-6.23324e-05 -5.37013 0)
(7.44083e-06 -5.39898 0)
(8.1956e-05 -5.41012 0)
(0.000151838 -5.41289 0)
(0.000241754 -5.41177 0)
(0.000361221 -5.40853 0)
(0.000503429 -5.40305 0)
(0.000679626 -5.39332 0)
(0.000890042 -5.3747 0)
(0.00110696 -5.338 0)
(0.00139881 -5.2661 0)
(0.00177713 -5.12751 0)
(0.00193896 -4.8677 0)
(0.00182946 -4.39937 0)
(0.000742865 -3.31779 0)
(0.00178042 -3.33448 0)
(5.22303e-05 -4.43615 0)
(-0.000223329 -4.91099 0)
(-0.00037518 -5.17117 0)
(-0.000300607 -5.30522 0)
(-0.000176014 -5.37012 0)
(-4.57103e-05 -5.39904 0)
(5.48022e-05 -5.41021 0)
(0.000142239 -5.41299 0)
(0.000231654 -5.41189 0)
(0.000319832 -5.40868 0)
(0.000424978 -5.40325 0)
(0.000535256 -5.39359 0)
(0.000647428 -5.375 0)
(0.000760653 -5.33834 0)
(0.000890138 -5.2666 0)
(0.00107041 -5.12832 0)
(0.00129089 -4.86862 0)
(0.00152559 -4.39954 0)
(0.00139136 -3.31479 0)
(0.000894402 -3.33419 0)
(0.000260832 -4.43564 0)
(-0.000272487 -4.91044 0)
(-0.000520625 -5.17054 0)
(-0.000503594 -5.30495 0)
(-0.000395945 -5.37002 0)
(-0.000234828 -5.39903 0)
(-8.6789e-05 -5.41025 0)
(5.58784e-05 -5.41306 0)
(0.00019038 -5.41195 0)
(0.000317321 -5.4087 0)
(0.000418292 -5.4032 0)
(0.000487077 -5.39344 0)
(0.000534797 -5.3747 0)
(0.000562615 -5.33778 0)
(0.000592492 -5.2656 0)
(0.000720548 -5.1269 0)
(0.00104344 -4.86723 0)
(0.00152148 -4.39746 0)
(0.000881013 -3.30896 0)
(6.30561e-05 -3.3331 0)
(0.000238005 -4.43526 0)
(-0.000351401 -4.9099 0)
(-0.000720802 -5.17023 0)
(-0.000855069 -5.30482 0)
(-0.000780466 -5.36997 0)
(-0.000613822 -5.39912 0)
(-0.00038672 -5.41045 0)
(-0.000136012 -5.41333 0)
(0.000126189 -5.41225 0)
(0.000383545 -5.40898 0)
(0.000637293 -5.40345 0)
(0.000866983 -5.39362 0)
(0.00106886 -5.37472 0)
(0.00125438 -5.33765 0)
(0.00137934 -5.2653 0)
(0.00144636 -5.12634 0)
(0.00125898 -4.86669 0)
(0.00088921 -4.39751 0)
(-0.000184565 -3.30639 0)
(-0.000112022 -3.33457 0)
(0.000155016 -4.43493 0)
(-0.000322227 -4.91004 0)
(-0.000905971 -5.17075 0)
(-0.00116961 -5.30517 0)
(-0.00120014 -5.37033 0)
(-0.00105727 -5.39964 0)
(-0.000770837 -5.41108 0)
(-0.000431278 -5.41405 0)
(-7.05202e-05 -5.41303 0)
(0.000294912 -5.40979 0)
(0.000660051 -5.40427 0)
(0.00102958 -5.39444 0)
(0.00139921 -5.37556 0)
(0.00171401 -5.33858 0)
(0.00193494 -5.26634 0)
(0.00191612 -5.12756 0)
(0.00120067 -4.86811 0)
(0.000196464 -4.39871 0)
(-0.000115872 -3.30756 0)
(0.000355514 -3.33759 0)
(0.000120677 -4.4346 0)
(0.000223649 -4.91008 0)
(-0.000417148 -5.17109 0)
(-0.000817694 -5.30552 0)
(-0.00105674 -5.37077 0)
(-0.0010647 -5.40029 0)
(-0.000881632 -5.41192 0)
(-0.000605259 -5.41497 0)
(-0.000293164 -5.41396 0)
(1.40891e-05 -5.41072 0)
(0.000325984 -5.4052 0)
(0.000634684 -5.39538 0)
(0.000916402 -5.37651 0)
(0.00113646 -5.33947 0)
(0.00126962 -5.26704 0)
(0.00112742 -5.12798 0)
(0.000582179 -4.86778 0)
(1.13707e-05 -4.39743 0)
(0.000840119 -3.30936 0)
(8.24333e-05 -3.33853 0)
(0.000156227 -4.43355 0)
(0.000933526 -4.90938 0)
(0.000587662 -5.17038 0)
(9.47344e-05 -5.30514 0)
(-0.000356582 -5.37079 0)
(-0.00061802 -5.40058 0)
(-0.000668804 -5.41243 0)
(-0.000592814 -5.41559 0)
(-0.000447899 -5.41464 0)
(-0.000270277 -5.41141 0)
(-9.48114e-05 -5.40585 0)
(7.5912e-05 -5.39594 0)
(0.000207424 -5.37699 0)
(0.000271612 -5.33978 0)
(0.000255097 -5.26702 0)
(0.000111262 -5.12738 0)
(-0.0001034 -4.86645 0)
(-0.00029024 -4.39563 0)
(0.00161638 -3.30941 0)
(-0.000565058 -3.33893 0)
(0.000308979 -4.4337 0)
(0.00102422 -4.9087 0)
(0.00102129 -5.16951 0)
(0.000707059 -5.30438 0)
(0.000243598 -5.37019 0)
(-0.000150309 -5.4002 0)
(-0.000402043 -5.41227 0)
(-0.000523065 -5.41562 0)
(-0.000554932 -5.41477 0)
(-0.000542885 -5.41161 0)
(-0.000506129 -5.40607 0)
(-0.000467109 -5.39618 0)
(-0.000452323 -5.37724 0)
(-0.000418791 -5.34003 0)
(-0.000405458 -5.26723 0)
(-0.000397058 -5.12744 0)
(-0.000504695 -4.86626 0)
(-0.000468577 -4.39526 0)
(0.00107126 -3.31006 0)
(-0.000677406 -3.33941 0)
(0.000658584 -4.43414 0)
(0.00109954 -4.90853 0)
(0.001424 -5.16878 0)
(0.00118665 -5.3032 0)
(0.000688782 -5.369 0)
(0.000193883 -5.39924 0)
(-0.000214232 -5.41155 0)
(-0.00049551 -5.41509 0)
(-0.000686563 -5.41439 0)
(-0.000812891 -5.41133 0)
(-0.000918454 -5.40586 0)
(-0.00102463 -5.396 0)
(-0.00112603 -5.37708 0)
(-0.00120805 -5.33993 0)
(-0.00123455 -5.26723 0)
(-0.00109112 -5.12741 0)
(-0.00110113 -4.86608 0)
(-0.000468999 -4.39535 0)
(0.000772974 -3.3116 0)
(0.000272 -3.33903 0)
(0.00112635 -4.43521 0)
(0.00104883 -4.90832 0)
(0.00132856 -5.16778 0)
(0.00104435 -5.30187 0)
(0.00060199 -5.36769 0)
(0.000130816 -5.39812 0)
(-0.000295574 -5.41063 0)
(-0.000622261 -5.41434 0)
(-0.00085606 -5.41378 0)
(-0.00103175 -5.41083 0)
(-0.00117291 -5.40542 0)
(-0.00132456 -5.39554 0)
(-0.0014798 -5.3766 0)
(-0.00159443 -5.33947 0)
(-0.00161307 -5.26683 0)
(-0.00146724 -5.12726 0)
(-0.0012882 -4.86598 0)
(-0.000684251 -4.39485 0)
(0.000947665 -3.3114 0)
(0.00170043 -3.34088 0)
(0.00113631 -4.43608 0)
(0.0008948 -4.90762 0)
(0.000630535 -5.16685 0)
(0.00038791 -5.30099 0)
(8.585e-05 -5.36682 0)
(-0.00024185 -5.3973 0)
(-0.000549678 -5.40994 0)
(-0.000798877 -5.41377 0)
(-0.000974951 -5.41333 0)
(-0.00108425 -5.41044 0)
(-0.00116432 -5.40502 0)
(-0.00125399 -5.39509 0)
(-0.00133192 -5.3761 0)
(-0.00138028 -5.33897 0)
(-0.0013195 -5.26654 0)
(-0.00118574 -5.12706 0)
(-0.00097223 -4.86551 0)
(-0.000821167 -4.39517 0)
(0.000618566 -3.3115 0)
(0.0015755 -3.34383 0)
(0.0013692 -4.4373 0)
(0.000564 -4.90781 0)
(-4.12215e-05 -5.16651 0)
(-0.000329582 -5.30053 0)
(-0.000521868 -5.36639 0)
(-0.000656887 -5.39691 0)
(-0.000773206 -5.40961 0)
(-0.000865307 -5.41354 0)
(-0.000914787 -5.41321 0)
(-0.000918409 -5.4104 0)
(-0.000873227 -5.40502 0)
(-0.00081874 -5.39507 0)
(-0.000749046 -5.376 0)
(-0.000663231 -5.33889 0)
(-0.000549582 -5.26654 0)
(-0.000484809 -5.12722 0)
(-0.000354518 -4.86576 0)
(-0.000746296 -4.39564 0)
(4.46325e-05 -3.31202 0)
(0.000423436 -3.3459 0)
(0.00136111 -4.43808 0)
(0.000573875 -4.90796 0)
(-6.34764e-05 -5.16617 0)
(-0.000442595 -5.30017 0)
(-0.000652488 -5.36622 0)
(-0.000770139 -5.39689 0)
(-0.000796839 -5.40968 0)
(-0.000786589 -5.41369 0)
(-0.000736183 -5.41344 0)
(-0.000639646 -5.41073 0)
(-0.000494348 -5.40542 0)
(-0.000292599 -5.39553 0)
(-6.26439e-05 -5.37649 0)
(0.000156075 -5.33946 0)
(0.000337826 -5.26736 0)
(0.000288173 -5.12809 0)
(0.000208873 -4.86654 0)
(-0.000644475 -4.39741 0)
(-0.000664916 -3.31377 0)
(-0.000511936 -3.34823 0)
(0.00116695 -4.43717 0)
(0.000551071 -4.90732 0)
(-5.19525e-05 -5.16564 0)
(-0.000362703 -5.29966 0)
(-0.000551751 -5.36597 0)
(-0.000664084 -5.39686 0)
(-0.000678217 -5.40981 0)
(-0.000640325 -5.41393 0)
(-0.000556654 -5.41377 0)
(-0.000438711 -5.41116 0)
(-0.000273575 -5.40597 0)
(-6.01933e-05 -5.39619 0)
(0.000149892 -5.37725 0)
(0.000311232 -5.34018 0)
(0.000380703 -5.26801 0)
(0.00027224 -5.12876 0)
(-5.72076e-05 -4.86713 0)
(-0.000440395 -4.39792 0)
(-0.000330353 -3.31595 0)
(-0.000752509 -3.34995 0)
(0.00101351 -4.43558 0)
(0.000653316 -4.9062 0)
(0.000137975 -5.16481 0)
(-0.000113537 -5.29884 0)
(-0.000336762 -5.36541 0)
(-0.000464935 -5.39662 0)
(-0.000508284 -5.40978 0)
(-0.000501663 -5.41407 0)
(-0.000449049 -5.41404 0)
(-0.000364372 -5.41154 0)
(-0.000261602 -5.40644 0)
(-0.000141828 -5.39673 0)
(-4.79621e-05 -5.37782 0)
(-1.61184e-05 -5.34068 0)
(-7.20745e-05 -5.26839 0)
(-0.000120534 -5.12922 0)
(-0.000335233 -4.86755 0)
(-8.76568e-05 -4.39724 0)
(0.000388024 -3.31756 0)
(-0.000166227 -3.3511 0)
(0.000759176 -4.43393 0)
(0.000550067 -4.90513 0)
(0.000157662 -5.16364 0)
(-0.000129099 -5.29785 0)
(-0.000426055 -5.3648 0)
(-0.000548242 -5.39627 0)
(-0.000574366 -5.40965 0)
(-0.000554945 -5.41409 0)
(-0.000516281 -5.41415 0)
(-0.000486554 -5.41168 0)
(-0.000470327 -5.40657 0)
(-0.000491853 -5.39683 0)
(-0.000566207 -5.37785 0)
(-0.000679195 -5.3406 0)
(-0.000859248 -5.26817 0)
(-0.000913012 -5.12888 0)
(-0.000681386 -4.86741 0)
(-2.37334e-05 -4.39687 0)
(0.000941101 -3.3183 0)
(0.000504588 -3.35456 0)
(0.00109801 -4.43562 0)
(0.000276686 -4.90588 0)
(-0.000203831 -5.16379 0)
(-0.00060315 -5.29805 0)
(-0.000808598 -5.36511 0)
(-0.000821569 -5.39657 0)
(-0.000744103 -5.40991 0)
(-0.000646614 -5.41427 0)
(-0.000584254 -5.41421 0)
(-0.00057347 -5.41157 0)
(-0.000635806 -5.40628 0)
(-0.000770342 -5.39635 0)
(-0.000954651 -5.37712 0)
(-0.00116103 -5.33965 0)
(-0.00133904 -5.26696 0)
(-0.00134577 -5.12754 0)
(-0.000647318 -4.86657 0)
(-0.000131857 -4.39597 0)
(0.00102843 -3.31539 0)
(5.38925e-06 -3.35661 0)
(0.000881148 -4.43566 0)
(0.000548597 -4.90579 0)
(0.000253654 -5.16382 0)
(-0.000102707 -5.29819 0)
(-0.000275416 -5.36533 0)
(-0.000353946 -5.39689 0)
(-0.00034801 -5.41015 0)
(-0.000304115 -5.41439 0)
(-0.00027638 -5.41418 0)
(-0.000289261 -5.41139 0)
(-0.000347487 -5.40595 0)
(-0.000454449 -5.39587 0)
(-0.000574973 -5.37655 0)
(-0.000678859 -5.33899 0)
(-0.000722903 -5.26618 0)
(-0.000665266 -5.12689 0)
(-5.86602e-05 -4.8667 0)
(-0.000137684 -4.39726 0)
(-0.00051748 -3.31384 0)
(0.000150539 -3.35679 0)
(0.000457758 -4.43211 0)
(0.000350685 -4.90266 0)
(0.000501964 -5.16133 0)
(0.000372459 -5.29643 0)
(0.000248726 -5.36433 0)
(0.000131576 -5.3963 0)
(4.37952e-05 -5.40978 0)
(-1.32928e-05 -5.41415 0)
(-3.72668e-05 -5.41401 0)
(-3.84462e-05 -5.41128 0)
(-3.29908e-05 -5.40589 0)
(-2.96703e-05 -5.3959 0)
(-5.72558e-06 -5.37672 0)
(1.37028e-05 -5.33937 0)
(3.12187e-05 -5.2669 0)
(6.20142e-05 -5.12798 0)
(0.000126928 -4.86826 0)
(9.01332e-05 -4.3996 0)
(-0.00179051 -3.31491 0)
(0.00232739 -3.35528 0)
(0.000142721 -4.43234 0)
(-0.000195589 -4.90153 0)
(-0.000222748 -5.15989 0)
(-0.000382967 -5.29538 0)
(-0.000423351 -5.36358 0)
(-0.000402468 -5.39578 0)
(-0.000397823 -5.40946 0)
(-0.000379283 -5.41397 0)
(-0.000330061 -5.41398 0)
(-0.00025946 -5.41136 0)
(-0.000162804 -5.40607 0)
(-6.13635e-05 -5.39613 0)
(4.62793e-05 -5.37701 0)
(0.000139541 -5.33976 0)
(0.000190811 -5.26736 0)
(0.000254577 -5.12869 0)
(0.000166894 -4.86915 0)
(0.000394581 -4.39977 0)
(-0.00126613 -3.31494 0)
(0.00343654 -3.35697 0)
(-0.000550875 -4.43433 0)
(-0.000807962 -4.9023 0)
(-0.00120837 -5.16061 0)
(-0.00137971 -5.29619 0)
(-0.00130401 -5.36417 0)
(-0.00116413 -5.3962 0)
(-0.00101895 -5.40983 0)
(-0.000876764 -5.41432 0)
(-0.000727677 -5.41434 0)
(-0.000572507 -5.41172 0)
(-0.000415257 -5.40642 0)
(-0.000247423 -5.39643 0)
(-9.12471e-05 -5.37721 0)
(6.29798e-05 -5.33987 0)
(0.000181947 -5.26738 0)
(0.000280132 -5.12856 0)
(0.000337023 -4.86911 0)
(0.000423028 -4.39947 0)
(-0.000758735 -3.3147 0)
(0.00213918 -3.35827 0)
(-0.00126759 -4.43445 0)
(-0.00101561 -4.90242 0)
(-0.00126858 -5.16115 0)
(-0.00137049 -5.29705 0)
(-0.00130714 -5.36498 0)
(-0.00124438 -5.39691 0)
(-0.00114104 -5.41047 0)
(-0.00100666 -5.41492 0)
(-0.000858063 -5.41487 0)
(-0.000707523 -5.4122 0)
(-0.000551756 -5.40684 0)
(-0.000379041 -5.39682 0)
(-0.000209635 -5.37756 0)
(-3.10715e-05 -5.3402 0)
(0.000124881 -5.26783 0)
(0.000230092 -5.12901 0)
(0.000284724 -4.86933 0)
(0.000313105 -4.39971 0)
(-0.00050736 -3.31473 0)
(0.000451664 -3.35617 0)
(-0.00192894 -4.43386 0)
(-0.00111953 -4.90264 0)
(-0.00100472 -5.16188 0)
(-0.000900851 -5.29765 0)
(-0.000863916 -5.36533 0)
(-0.00090327 -5.39717 0)
(-0.000920872 -5.41072 0)
(-0.000898491 -5.4152 0)
(-0.000835175 -5.41517 0)
(-0.000746134 -5.41249 0)
(-0.000649101 -5.40715 0)
(-0.000522427 -5.39716 0)
(-0.000384156 -5.37798 0)
(-0.000224034 -5.34064 0)
(-6.27381e-05 -5.26822 0)
(9.61563e-05 -5.12931 0)
(0.000210797 -4.86949 0)
(0.00031454 -4.39966 0)
(-0.000186663 -3.31505 0)
(-0.000741488 -3.35223 0)
(-0.00224303 -4.43368 0)
(-0.00112046 -4.90271 0)
(-0.000624303 -5.16194 0)
(-0.000275663 -5.29764 0)
(-0.000236482 -5.3651 0)
(-0.000360527 -5.39687 0)
(-0.000511276 -5.41049 0)
(-0.0006189 -5.41507 0)
(-0.000662267 -5.4151 0)
(-0.000657268 -5.41246 0)
(-0.000621431 -5.40715 0)
(-0.000568573 -5.39717 0)
(-0.00050818 -5.37796 0)
(-0.000435409 -5.34068 0)
(-0.000362344 -5.26838 0)
(-0.000192956 -5.12924 0)
(9.44833e-05 -4.86885 0)
(0.000637133 -4.39863 0)
(-0.000531785 -3.31362 0)
(-0.00127917 -3.34508 0)
(-0.00202892 -4.4329 0)
(-0.00127994 -4.90283 0)
(-0.000540769 -5.16171 0)
(-0.000127956 -5.29691 0)
(-4.72879e-05 -5.36431 0)
(-0.000169816 -5.39618 0)
(-0.000301783 -5.40994 0)
(-0.000413562 -5.41469 0)
(-0.000460741 -5.41488 0)
(-0.000443422 -5.41236 0)
(-0.00038761 -5.40708 0)
(-0.000308652 -5.39708 0)
(-0.000244356 -5.37783 0)
(-0.000202183 -5.34049 0)
(-0.000173697 -5.26797 0)
(-2.63624e-05 -5.12859 0)
(0.000244482 -4.8682 0)
(0.000985172 -4.39802 0)
(-0.000947642 -3.31034 0)
(-0.000538804 -3.3407 0)
(-0.00129078 -4.43446 0)
(-0.00165062 -4.9046 0)
(-0.00128024 -5.16267 0)
(-0.000905969 -5.29699 0)
(-0.000696554 -5.36416 0)
(-0.000574087 -5.39595 0)
(-0.000501374 -5.40975 0)
(-0.000450089 -5.41461 0)
(-0.000374323 -5.41494 0)
(-0.000251434 -5.41256 0)
(-7.82586e-05 -5.4074 0)
(0.000132616 -5.3975 0)
(0.000345982 -5.37833 0)
(0.000529313 -5.341 0)
(0.000653415 -5.26864 0)
(0.000708303 -5.12972 0)
(0.000635754 -4.86961 0)
(0.000481354 -4.39978 0)
(-0.000739226 -3.31082 0)
(-0.000480694 -3.33867 0)
(-0.00081598 -4.4359 0)
(-0.00122042 -4.90652 0)
(-0.00125387 -5.1638 0)
(-0.00112536 -5.29781 0)
(-0.000971773 -5.36477 0)
(-0.000771702 -5.39643 0)
(-0.000622898 -5.41014 0)
(-0.00049145 -5.41496 0)
(-0.000378621 -5.41532 0)
(-0.000255738 -5.41303 0)
(-0.000113073 -5.40799 0)
(4.49894e-05 -5.39822 0)
(0.000205887 -5.37917 0)
(0.000315113 -5.34196 0)
(0.000381227 -5.26975 0)
(0.000212495 -5.13109 0)
(-4.51857e-05 -4.87141 0)
(-0.000130459 -4.40207 0)
(0.00028189 -3.31302 0)
(-0.00128997 -3.33868 0)
(-0.000429966 -4.43572 0)
(-0.000651173 -4.90666 0)
(-0.000921607 -5.16425 0)
(-0.000928721 -5.29856 0)
(-0.000825068 -5.36542 0)
(-0.000657546 -5.39698 0)
(-0.000540074 -5.41058 0)
(-0.000448941 -5.41529 0)
(-0.000401499 -5.4156 0)
(-0.000385404 -5.41326 0)
(-0.000396566 -5.40816 0)
(-0.000453317 -5.39834 0)
(-0.000545905 -5.37922 0)
(-0.000678611 -5.34179 0)
(-0.000834378 -5.26917 0)
(-0.00107654 -5.13011 0)
(-0.00102561 -4.87003 0)
(-0.000468896 -4.40067 0)
(0.00121666 -3.31323 0)
(-0.00156429 -3.33953 0)
(-0.000155687 -4.43493 0)
(0.000152027 -4.90634 0)
(-0.000171126 -5.16433 0)
(-0.000275211 -5.2989 0)
(-0.000265751 -5.36574 0)
(-0.000228762 -5.39721 0)
(-0.000209152 -5.41069 0)
(-0.00021292 -5.41528 0)
(-0.000245769 -5.41546 0)
(-0.00030827 -5.413 0)
(-0.000422844 -5.40776 0)
(-0.000595024 -5.39771 0)
(-0.000804728 -5.37834 0)
(-0.00104147 -5.34071 0)
(-0.00127477 -5.26774 0)
(-0.00142156 -5.12801 0)
(-0.00125736 -4.86789 0)
(-0.000604726 -4.39942 0)
(0.000380168 -3.31123 0)
(-0.00230911 -3.33853 0)
(0.000240641 -4.43319 0)
(0.000488467 -4.90476 0)
(0.000507704 -5.16327 0)
(0.000378727 -5.29821 0)
(0.000283322 -5.36531 0)
(0.000199898 -5.39686 0)
(0.000130666 -5.41036 0)
(7.24846e-05 -5.41495 0)
(1.51513e-05 -5.41511 0)
(-5.09596e-05 -5.41261 0)
(-0.00013485 -5.40728 0)
(-0.000244764 -5.39711 0)
(-0.000368967 -5.37766 0)
(-0.000506437 -5.33998 0)
(-0.000631506 -5.26685 0)
(-0.000666081 -5.1272 0)
(-0.000794969 -4.86736 0)
(-0.000852214 -4.4 0)
(-0.000727746 -3.31189 0)
(-0.00169262 -3.33777 0)
(0.000617133 -4.43236 0)
(0.000138212 -4.90379 0)
(0.000204437 -5.16236 0)
(0.000174026 -5.29738 0)
(0.000103572 -5.36462 0)
(5.6857e-05 -5.39633 0)
(2.76223e-05 -5.40998 0)
(1.00257e-05 -5.41468 0)
(2.9188e-06 -5.41493 0)
(2.92169e-06 -5.41248 0)
(1.37061e-05 -5.40718 0)
(4.54662e-05 -5.39708 0)
(6.92352e-05 -5.37768 0)
(9.58667e-05 -5.34004 0)
(4.00755e-05 -5.26709 0)
(2.10891e-05 -5.12787 0)
(-0.000441707 -4.86858 0)
(-0.0012258 -4.40186 0)
(-0.000839986 -3.31395 0)
(7.93423e-06 -3.33897 0)
(0.00055375 -4.43293 0)
(0.000206216 -4.90395 0)
(-0.000147993 -5.16217 0)
(-0.000342338 -5.29706 0)
(-0.000425974 -5.36437 0)
(-0.000445539 -5.3962 0)
(-0.000416092 -5.40995 0)
(-0.000369839 -5.41473 0)
(-0.000325503 -5.41503 0)
(-0.000282215 -5.41263 0)
(-0.000230919 -5.40739 0)
(-0.000169015 -5.39735 0)
(-0.000122118 -5.37801 0)
(-8.70067e-05 -5.34036 0)
(-0.000133113 -5.2675 0)
(-0.000209445 -5.1284 0)
(-0.000570082 -4.8692 0)
(-0.00102455 -4.40182 0)
(-0.000576411 -3.31685 0)
(0.000340345 -3.34169 0)
(0.000667013 -4.43342 0)
(0.000357338 -4.90446 0)
(-0.000259867 -5.16293 0)
(-0.000687165 -5.2976 0)
(-0.000856939 -5.36478 0)
(-0.000881329 -5.39659 0)
(-0.000820739 -5.4103 0)
(-0.00075897 -5.41502 0)
(-0.000720639 -5.41526 0)
(-0.000708322 -5.41281 0)
(-0.000711794 -5.40755 0)
(-0.000716902 -5.3975 0)
(-0.000731465 -5.37815 0)
(-0.000758469 -5.34058 0)
(-0.000800571 -5.26784 0)
(-0.000831106 -5.12868 0)
(-0.000925802 -4.86949 0)
(-0.00101662 -4.40225 0)
(9.53596e-05 -3.31885 0)
(-0.000542609 -3.34285 0)
(0.000438652 -4.433 0)
(0.000359047 -4.90396 0)
(0.000194997 -5.16242 0)
(-0.000236935 -5.29735 0)
(-0.00056016 -5.36474 0)
(-0.000732171 -5.39662 0)
(-0.000813329 -5.4103 0)
(-0.000883208 -5.41494 0)
(-0.00097639 -5.4151 0)
(-0.00110076 -5.4126 0)
(-0.00125188 -5.40732 0)
(-0.0014206 -5.39728 0)
(-0.00159293 -5.37798 0)
(-0.00174711 -5.34047 0)
(-0.00181817 -5.26773 0)
(-0.00173161 -5.1288 0)
(-0.00151818 -4.86984 0)
(-0.00120836 -4.40213 0)
(0.000563617 -3.3205 0)
(-0.000656077 -3.34031 0)
(0.00023809 -4.43157 0)
(0.000320716 -4.90211 0)
(0.000487004 -5.16 0)
(0.000148985 -5.29536 0)
(-0.00022551 -5.36338 0)
(-0.000525783 -5.39564 0)
(-0.000754189 -5.40951 0)
(-0.000978232 -5.41421 0)
(-0.00121482 -5.41436 0)
(-0.00147402 -5.41181 0)
(-0.00176369 -5.40647 0)
(-0.00208337 -5.39637 0)
(-0.00240197 -5.37701 0)
(-0.00264414 -5.33945 0)
(-0.00270136 -5.26672 0)
(-0.00250492 -5.12788 0)
(-0.00180462 -4.86891 0)
(-0.000940623 -4.401 0)
(0.000142919 -3.32025 0)
(0.00106313 -3.34086 0)
(0.000455294 -4.43213 0)
(0.000352646 -4.90149 0)
(0.000186282 -5.15868 0)
(-0.00030475 -5.29406 0)
(-0.000703384 -5.36239 0)
(-0.000980795 -5.39482 0)
(-0.00118302 -5.40879 0)
(-0.00137297 -5.41352 0)
(-0.00157346 -5.41363 0)
(-0.00179702 -5.41102 0)
(-0.00204762 -5.40561 0)
(-0.00232456 -5.39543 0)
(-0.00258279 -5.37599 0)
(-0.00274938 -5.33852 0)
(-0.00272702 -5.26617 0)
(-0.00243926 -5.1277 0)
(-0.00165899 -4.8687 0)
(-0.000831434 -4.40132 0)
(-0.00112707 -3.32024 0)
(0.00247036 -3.34312 0)
(0.000573192 -4.43504 0)
(0.000394974 -4.90302 0)
(-9.26733e-06 -5.15931 0)
(-0.000611297 -5.29441 0)
(-0.00103563 -5.36269 0)
(-0.00132196 -5.39501 0)
(-0.0015127 -5.40882 0)
(-0.0016626 -5.41343 0)
(-0.00181035 -5.41346 0)
(-0.0019601 -5.41079 0)
(-0.00211228 -5.40536 0)
(-0.00225126 -5.39524 0)
(-0.00235756 -5.37594 0)
(-0.00239384 -5.33873 0)
(-0.00231933 -5.26691 0)
(-0.00206018 -5.12923 0)
(-0.00150868 -4.87094 0)
(-0.000917513 -4.4045 0)
(-0.00182194 -3.32137 0)
(0.00221305 -3.34453 0)
(0.000275389 -4.43417 0)
(0.00046419 -4.90192 0)
(0.000461161 -5.15862 0)
(5.40082e-05 -5.29389 0)
(-0.000398248 -5.36226 0)
(-0.000848963 -5.39468 0)
(-0.00125527 -5.40849 0)
(-0.00159176 -5.41312 0)
(-0.00188089 -5.4132 0)
(-0.00212503 -5.41059 0)
(-0.00231752 -5.40529 0)
(-0.00243777 -5.39542 0)
(-0.00246902 -5.37647 0)
(-0.00240798 -5.33972 0)
(-0.00222846 -5.26852 0)
(-0.00190598 -5.13145 0)
(-0.00157596 -4.87397 0)
(-0.000751106 -4.40808 0)
(-0.00132037 -3.32466 0)
(0.00178415 -3.34292 0)
(0.000142013 -4.43238 0)
(0.000263652 -4.89915 0)
(0.00066495 -5.156 0)
(0.000431897 -5.29179 0)
(-5.88959e-05 -5.36041 0)
(-0.000628809 -5.39312 0)
(-0.00121758 -5.40722 0)
(-0.00174687 -5.41208 0)
(-0.00220822 -5.41235 0)
(-0.00260478 -5.40993 0)
(-0.00293801 -5.40483 0)
(-0.00320355 -5.39517 0)
(-0.00337906 -5.3765 0)
(-0.003486 -5.34011 0)
(-0.00342344 -5.26928 0)
(-0.00309564 -5.13279 0)
(-0.00255879 -4.87568 0)
(-0.000704495 -4.40958 0)
(-5.55007e-05 -3.32815 0)
(0.00233513 -3.3424 0)
(0.000335052 -4.43468 0)
(-3.61539e-05 -4.89954 0)
(1.7534e-06 -5.15545 0)
(-0.000240362 -5.29094 0)
(-0.000696399 -5.35916 0)
(-0.00124538 -5.39173 0)
(-0.00180171 -5.40595 0)
(-0.00232504 -5.41095 0)
(-0.00279986 -5.41134 0)
(-0.00324021 -5.40899 0)
(-0.00364358 -5.40395 0)
(-0.00402054 -5.39433 0)
(-0.00434709 -5.37572 0)
(-0.00456532 -5.33933 0)
(-0.00457303 -5.26866 0)
(-0.00412119 -5.13292 0)
(-0.003013 -4.87667 0)
(-0.000817637 -4.40999 0)
(0.000591932 -3.32692 0)
(0.00223113 -3.3445 0)
(-0.000154147 -4.43635 0)
(0.000125433 -4.90094 0)
(-8.31244e-05 -5.15623 0)
(-0.000379304 -5.29082 0)
(-0.0008984 -5.35856 0)
(-0.0015125 -5.39091 0)
(-0.0020931 -5.40503 0)
(-0.00261636 -5.41002 0)
(-0.0030857 -5.41043 0)
(-0.00350652 -5.40808 0)
(-0.00388801 -5.40302 0)
(-0.00424303 -5.39336 0)
(-0.00452532 -5.37474 0)
(-0.00465765 -5.33845 0)
(-0.0045819 -5.26805 0)
(-0.00412867 -5.13295 0)
(-0.00294662 -4.87806 0)
(-0.0015278 -4.41303 0)
(-0.000420687 -3.32661 0)
(0.00104556 -3.34507 0)
(-0.000320493 -4.43583 0)
(0.000552282 -4.90068 0)
(0.000522907 -5.15553 0)
(7.44679e-05 -5.28967 0)
(-0.000597458 -5.35728 0)
(-0.00131952 -5.38971 0)
(-0.00197764 -5.40397 0)
(-0.00254259 -5.4091 0)
(-0.00302008 -5.40961 0)
(-0.0034204 -5.40737 0)
(-0.00373773 -5.40241 0)
(-0.00399302 -5.39288 0)
(-0.00416773 -5.37442 0)
(-0.00419858 -5.33841 0)
(-0.00410411 -5.26849 0)
(-0.00377852 -5.13421 0)
(-0.002995 -4.88072 0)
(-0.00212286 -4.4175 0)
(-0.00163072 -3.32814 0)
(0.00115887 -3.34436 0)
(0.000194724 -4.43743 0)
(0.000938873 -4.90145 0)
(0.000880985 -5.15519 0)
(0.000345195 -5.28837 0)
(-0.000409398 -5.35569 0)