/*--------------------------------*- C++ -*----------------------------------*\
  =========                 |
  \\      /  F ield         | OpenFOAM: The Open Source CFD Toolbox
   \\    /   O peration     | Website:  https://openfoam.org
    \\  /    A nd           | Version:  6
     \\/     M anipulation  |
\*---------------------------------------------------------------------------*/
FoamFile
{
    version     2.0;
    format      ascii;
    class       volVectorField;
    location    "12";
    object      U;
}
// * * * * * * * * * * * * * * * * * * * * * * * * * * * * * * * * * * * * * //

dimensions      [0 1 -1 0 0 0 0];

internalField   nonuniform List<vector> 
130000
(
(-0.011407 -0.339901 0)
(-0.011994 -0.375644 0)
(-0.012504 -0.410281 0)
(-0.012957 -0.443461 0)
(-0.0133479 -0.474805 0)
(-0.013687 -0.503984 0)
(-0.0139823 -0.530735 0)
(-0.0142419 -0.554861 0)
(-0.0144731 -0.576239 0)
(-0.0146824 -0.594823 0)
(-0.0148747 -0.610635 0)
(-0.0150543 -0.623763 0)
(-0.0152237 -0.634348 0)
(-0.0153846 -0.642574 0)
(-0.0155378 -0.648658 0)
(-0.0156834 -0.65284 0)
(-0.0158209 -0.655376 0)
(-0.0159497 -0.656524 0)
(-0.0160702 -0.656542 0)
(-0.0161817 -0.655679 0)
(-0.0132012 -0.338541 0)
(-0.0135834 -0.374375 0)
(-0.0139597 -0.409161 0)
(-0.0143174 -0.442494 0)
(-0.0146366 -0.473981 0)
(-0.0149193 -0.503287 0)
(-0.0151702 -0.530144 0)
(-0.0153944 -0.554355 0)
(-0.0155979 -0.5758 0)
(-0.0157855 -0.594435 0)
(-0.0159614 -0.610285 0)
(-0.0161287 -0.62344 0)
(-0.0162893 -0.634045 0)
(-0.0164445 -0.642287 0)
(-0.0165945 -0.648385 0)
(-0.0167388 -0.652582 0)
(-0.0168766 -0.655133 0)
(-0.0170071 -0.656299 0)
(-0.0171302 -0.656336 0)
(-0.0172452 -0.655493 0)
(-0.0159115 -0.337894 0)
(-0.0161603 -0.3737 0)
(-0.0164016 -0.408495 0)
(-0.0166407 -0.441862 0)
(-0.016862 -0.473391 0)
(-0.0170645 -0.502741 0)
(-0.0172506 -0.529637 0)
(-0.0174227 -0.553882 0)
(-0.0175844 -0.575353 0)
(-0.0177386 -0.594008 0)
(-0.0178879 -0.609873 0)
(-0.018034 -0.623041 0)
(-0.0181783 -0.633658 0)
(-0.0183209 -0.641911 0)
(-0.0184615 -0.648022 0)
(-0.0185993 -0.652233 0)
(-0.018733 -0.654801 0)
(-0.0188612 -0.655985 0)
(-0.0189836 -0.656043 0)
(-0.019099 -0.655221 0)
(-0.0193957 -0.337581 0)
(-0.0194967 -0.373365 0)
(-0.0195992 -0.408159 0)
(-0.01971 -0.441538 0)
(-0.0198172 -0.473085 0)
(-0.0199207 -0.502453 0)
(-0.0200222 -0.529364 0)
(-0.0201226 -0.553618 0)
(-0.0202242 -0.575095 0)
(-0.0203281 -0.593751 0)
(-0.0204359 -0.609616 0)
(-0.0205479 -0.622781 0)
(-0.0206644 -0.633394 0)
(-0.0207847 -0.641645 0)
(-0.0209078 -0.647755 0)
(-0.0210322 -0.651968 0)
(-0.0211562 -0.654541 0)
(-0.0212779 -0.655734 0)
(-0.0213966 -0.655804 0)
(-0.0215109 -0.654996 0)
(-0.02339 -0.337545 0)
(-0.0233543 -0.373304 0)
(-0.0233237 -0.408085 0)
(-0.0233071 -0.441456 0)
(-0.0232976 -0.472997 0)
(-0.023296 -0.502359 0)
(-0.0233041 -0.529262 0)
(-0.0233224 -0.553505 0)
(-0.0233523 -0.574969 0)
(-0.0233941 -0.59361 0)
(-0.0234485 -0.609459 0)
(-0.0235149 -0.622609 0)
(-0.0235927 -0.633208 0)
(-0.0236804 -0.641446 0)
(-0.0237764 -0.647548 0)
(-0.0238786 -0.651756 0)
(-0.0239847 -0.654328 0)
(-0.0240922 -0.655523 0)
(-0.0242002 -0.655599 0)
(-0.0243064 -0.654801 0)
(-0.0276095 -0.337731 0)
(-0.0274771 -0.37347 0)
(-0.0273425 -0.408231 0)
(-0.0272211 -0.441582 0)
(-0.0271098 -0.473101 0)
(-0.0270117 -0.502439 0)
(-0.0269302 -0.529315 0)
(-0.0268664 -0.553529 0)
(-0.0268219 -0.574962 0)
(-0.0267969 -0.593571 0)
(-0.0267918 -0.609388 0)
(-0.0268056 -0.622507 0)
(-0.0268373 -0.633079 0)
(-0.0268848 -0.641294 0)
(-0.026946 -0.647376 0)
(-0.0270182 -0.65157 0)
(-0.0270987 -0.654132 0)
(-0.0271843 -0.655323 0)
(-0.0272736 -0.655399 0)
(-0.0273638 -0.654607 0)
(-0.0319428 -0.338071 0)
(-0.0317427 -0.373812 0)
(-0.0315304 -0.408565 0)
(-0.0313237 -0.441899 0)
(-0.0311261 -0.473394 0)
(-0.0309427 -0.5027 0)
(-0.030779 -0.529539 0)
(-0.0306375 -0.553711 0)
(-0.0305202 -0.575099 0)
(-0.030428 -0.593663 0)
(-0.0303613 -0.609435 0)
(-0.0303191 -0.622512 0)
(-0.0303003 -0.633044 0)
(-0.0303025 -0.641225 0)
(-0.0303232 -0.647278 0)
(-0.0303595 -0.651448 0)
(-0.0304081 -0.653993 0)
(-0.0304656 -0.655172 0)
(-0.0305301 -0.655243 0)
(-0.0305986 -0.654451 0)
(-0.0363538 -0.338543 0)
(-0.0360953 -0.374298 0)
(-0.0358142 -0.409054 0)
(-0.0355354 -0.442377 0)
(-0.0352629 -0.47385 0)
(-0.0350041 -0.503122 0)
(-0.0347663 -0.529919 0)
(-0.0345529 -0.554042 0)
(-0.034367 -0.575377 0)
(-0.0342098 -0.593886 0)
(-0.0340822 -0.609604 0)
(-0.0339835 -0.622628 0)
(-0.0339125 -0.633112 0)
(-0.0338668 -0.641249 0)
(-0.0338439 -0.647264 0)
(-0.0338404 -0.651402 0)
(-0.033853 -0.653922 0)
(-0.0338779 -0.655083 0)
(-0.0339129 -0.655142 0)
(-0.0339547 -0.654344 0)
(-0.0407842 -0.339097 0)
(-0.0404758 -0.37489 0)
(-0.0401398 -0.409663 0)
(-0.0398014 -0.442986 0)
(-0.0394655 -0.474442 0)
(-0.0391409 -0.503683 0)
(-0.0388368 -0.530436 0)
(-0.0385578 -0.554508 0)
(-0.0383078 -0.575785 0)
(-0.0380889 -0.594233 0)
(-0.0379023 -0.609889 0)
(-0.0377477 -0.622854 0)
(-0.0376242 -0.633281 0)
(-0.0375293 -0.641367 0)
(-0.0374605 -0.647336 0)
(-0.0374146 -0.651436 0)
(-0.037388 -0.653924 0)
(-0.0373765 -0.65506 0)
(-0.0373781 -0.655102 0)
(-0.0373892 -0.654292 0)
(-0.045224 -0.339744 0)
(-0.0448787 -0.375585 0)
(-0.0444925 -0.410385 0)
(-0.0441002 -0.443714 0)
(-0.0437066 -0.475157 0)
(-0.0433222 -0.50437 0)
(-0.0429575 -0.53108 0)
(-0.0426178 -0.555099 0)
(-0.042308 -0.576315 0)
(-0.0420306 -0.594698 0)
(-0.0417875 -0.610288 0)
(-0.0415785 -0.623187 0)
(-0.041403 -0.633553 0)
(-0.0412589 -0.641581 0)
(-0.0411436 -0.647499 0)
(-0.0410538 -0.651554 0)
(-0.040986 -0.654004 0)
(-0.040936 -0.65511 0)
(-0.0409015 -0.655129 0)
(-0.0408789 -0.654303 0)
(-0.0496461 -0.340456 0)
(-0.0492635 -0.376359 0)
(-0.0488386 -0.411199 0)
(-0.0484022 -0.444545 0)
(-0.0479596 -0.475982 0)
(-0.0475228 -0.50517 0)
(-0.0471038 -0.53184 0)
(-0.0467088 -0.555805 0)
(-0.0463435 -0.57696 0)
(-0.046011 -0.595276 0)
(-0.0457137 -0.610796 0)
(-0.045452 -0.623626 0)
(-0.0452255 -0.633925 0)
(-0.0450322 -0.641891 0)
(-0.0448699 -0.647753 0)
(-0.0447352 -0.651758 0)
(-0.0446247 -0.654166 0)
(-0.0445342 -0.655238 0)
(-0.0444614 -0.655229 0)
(-0.0444029 -0.654383 0)
(-0.0540835 -0.341232 0)
(-0.053669 -0.377211 0)
(-0.0532009 -0.412101 0)
(-0.0527187 -0.445471 0)
(-0.0522271 -0.476909 0)
(-0.0517392 -0.506075 0)
(-0.0512679 -0.532707 0)
(-0.0508201 -0.556621 0)
(-0.0504018 -0.577713 0)
(-0.0500164 -0.595961 0)
(-0.0496669 -0.611409 0)
(-0.0493539 -0.624168 0)
(-0.0490773 -0.634397 0)
(-0.0488354 -0.642298 0)
(-0.048626 -0.6481 0)
(-0.0484461 -0.652052 0)
(-0.0482922 -0.654414 0)
(-0.0481602 -0.655446 0)
(-0.0480477 -0.655405 0)
(-0.0479515 -0.654534 0)
(-0.0585091 -0.342079 0)
(-0.0580566 -0.378141 0)
(-0.0575508 -0.413088 0)
(-0.0570281 -0.446488 0)
(-0.0564925 -0.477931 0)
(-0.0559579 -0.50708 0)
(-0.0554382 -0.533676 0)
(-0.0549408 -0.557539 0)
(-0.0544721 -0.57857 0)
(-0.054036 -0.596749 0)
(-0.0536359 -0.612125 0)
(-0.0532728 -0.624811 0)
(-0.0529468 -0.634968 0)
(-0.0526565 -0.642801 0)
(-0.0524 -0.64854 0)
(-0.0521743 -0.652436 0)
(-0.0519762 -0.654747 0)
(-0.0518014 -0.655737 0)
(-0.051648 -0.65566 0)
(-0.0515125 -0.654762 0)
(-0.0629364 -0.342978 0)
(-0.0624479 -0.379137 0)
(-0.0619044 -0.414151 0)
(-0.0613405 -0.447589 0)
(-0.0607612 -0.479043 0)
(-0.0601807 -0.508179 0)
(-0.0596137 -0.534743 0)
(-0.059068 -0.558557 0)
(-0.0585502 -0.579528 0)
(-0.0580646 -0.597638 0)
(-0.057615 -0.612942 0)
(-0.0572025 -0.625553 0)
(-0.0568276 -0.635638 0)
(-0.0564893 -0.6434 0)
(-0.0561857 -0.649074 0)
(-0.0559139 -0.65291 0)
(-0.055671 -0.655169 0)
(-0.0554529 -0.656113 0)
(-0.0552575 -0.655998 0)
(-0.0550816 -0.655067 0)
(-0.0673451 -0.343946 0)
(-0.0668237 -0.380208 0)
(-0.0662479 -0.415295 0)
(-0.0656462 -0.448775 0)
(-0.0650257 -0.480244 0)
(-0.0644017 -0.509371 0)
(-0.0637893 -0.535904 0)
(-0.0631967 -0.559672 0)
(-0.062631 -0.580584 0)
(-0.0620968 -0.598627 0)
(-0.0615982 -0.613857 0)
(-0.0611367 -0.626394 0)
(-0.0607131 -0.636404 0)
(-0.0603265 -0.644095 0)
(-0.0599753 -0.649702 0)
(-0.059657 -0.653477 0)
(-0.0593685 -0.655681 0)
(-0.059106 -0.656576 0)
(-0.0588676 -0.65642 0)
(-0.0586501 -0.655454 0)
(-0.0717658 -0.344961 0)
(-0.0712048 -0.38134 0)
(-0.0705931 -0.416509 0)
(-0.0699522 -0.450039 0)
(-0.0692901 -0.481529 0)
(-0.0686225 -0.510651 0)
(-0.0679648 -0.537158 0)
(-0.0673257 -0.560882 0)
(-0.0667125 -0.581737 0)
(-0.0661299 -0.599713 0)
(-0.0655825 -0.614871 0)
(-0.0650721 -0.627333 0)
(-0.0645996 -0.637269 0)
(-0.0641646 -0.644888 0)
(-0.0637655 -0.650426 0)
(-0.0634001 -0.654138 0)
(-0.0630655 -0.656284 0)
(-0.0627578 -0.657129 0)
(-0.0624754 -0.656928 0)
(-0.0622152 -0.655924 0)
(-0.0761839 -0.346044 0)
(-0.0755883 -0.382546 0)
(-0.0749403 -0.417803 0)
(-0.0742595 -0.451387 0)
(-0.073555 -0.482901 0)
(-0.0728429 -0.512022 0)
(-0.0721396 -0.538505 0)
(-0.0714536 -0.562187 0)
(-0.0707925 -0.582987 0)
(-0.0701613 -0.600898 0)
(-0.0695647 -0.615984 0)
(-0.0690048 -0.628371 0)
(-0.068483 -0.638232 0)
(-0.0679987 -0.645777 0)
(-0.067551 -0.651246 0)
(-0.0671375 -0.654893 0)
(-0.0667557 -0.65698 0)
(-0.0664017 -0.657772 0)
(-0.0660741 -0.657524 0)
(-0.06577 -0.656479 0)
(-0.0806069 -0.347183 0)
(-0.0799696 -0.383822 0)
(-0.0792832 -0.419173 0)
(-0.0785626 -0.452817 0)
(-0.0778161 -0.48436 0)
(-0.0770598 -0.513483 0)
(-0.0763109 -0.539945 0)
(-0.075578 -0.563588 0)
(-0.0748687 -0.584334 0)
(-0.0741885 -0.602181 0)
(-0.0735423 -0.617197 0)
(-0.0729325 -0.62951 0)
(-0.0723607 -0.639295 0)
(-0.0718266 -0.646767 0)
(-0.0713293 -0.652165 0)
(-0.0708669 -0.655745 0)
(-0.0704369 -0.657772 0)
(-0.0700356 -0.658508 0)
(-0.0696615 -0.658211 0)
(-0.0693121 -0.657124 0)
(-0.0850172 -0.348386 0)
(-0.0843474 -0.385168 0)
(-0.0836253 -0.420621 0)
(-0.0828646 -0.45433 0)
(-0.0820753 -0.485906 0)
(-0.0812741 -0.515034 0)
(-0.0804788 -0.54148 0)
(-0.079698 -0.565086 0)
(-0.0789397 -0.58578 0)
(-0.0782097 -0.603565 0)
(-0.077513 -0.618511 0)
(-0.0768522 -0.63075 0)
(-0.0762294 -0.64046 0)
(-0.0756442 -0.647857 0)
(-0.0750963 -0.653183 0)
(-0.0745836 -0.656696 0)
(-0.074104 -0.658661 0)
(-0.0736539 -0.65934 0)
(-0.0732319 -0.658992 0)
(-0.0728357 -0.657859 0)
(-0.0894202 -0.349652 0)
(-0.088717 -0.386585 0)
(-0.0879602 -0.422146 0)
(-0.0871605 -0.455927 0)
(-0.0863288 -0.487541 0)
(-0.0854829 -0.516679 0)
(-0.0846407 -0.54311 0)
(-0.0838117 -0.566682 0)
(-0.0830036 -0.587327 0)
(-0.0822228 -0.605051 0)
(-0.0814746 -0.619928 0)
(-0.0807619 -0.632094 0)
(-0.0800868 -0.641729 0)
(-0.0794495 -0.649051 0)
(-0.0788496 -0.654306 0)
(-0.0782855 -0.65775 0)
(-0.0777549 -0.65965 0)
(-0.0772546 -0.660271 0)
(-0.0767832 -0.65987 0)
(-0.0763387 -0.658689 0)
(-0.0938327 -0.350978 0)
(-0.0930963 -0.388071 0)
(-0.0923012 -0.423749 0)
(-0.0914595 -0.457607 0)
(-0.0905828 -0.489265 0)
(-0.0896898 -0.518417 0)
(-0.0887988 -0.544837 0)
(-0.0879197 -0.568379 0)
(-0.0870604 -0.588977 0)
(-0.0862273 -0.606641 0)
(-0.0854259 -0.621451 0)
(-0.0846598 -0.633544 0)
(-0.0839309 -0.643104 0)
(-0.0832398 -0.650352 0)
(-0.0825863 -0.655533 0)
(-0.081969 -0.658908 0)
(-0.0813857 -0.660743 0)
(-0.0808335 -0.661304 0)
(-0.0803111 -0.660848 0)
(-0.0798166 -0.659616 0)
(-0.098255 -0.352374 0)
(-0.0974786 -0.389635 0)
(-0.0966424 -0.425435 0)
(-0.0957575 -0.459377 0)
(-0.0948348 -0.491083 0)
(-0.0938933 -0.520253 0)
(-0.0929523 -0.546666 0)
(-0.0920214 -0.57018 0)
(-0.0911092 -0.590733 0)
(-0.090222 -0.60834 0)
(-0.0893659 -0.623083 0)
(-0.0885444 -0.635104 0)
(-0.08776 -0.64459 0)
(-0.0870133 -0.651763 0)
(-0.0863044 -0.656871 0)
(-0.0856319 -0.660175 0)
(-0.0849941 -0.661944 0)
(-0.0843882 -0.662442 0)
(-0.0838129 -0.661929 0)
(-0.0832666 -0.660644 0)
(-0.102678 -0.353837 0)
(-0.101864 -0.391276 0)
(-0.100988 -0.427207 0)
(-0.100058 -0.461238 0)
(-0.0990873 -0.492998 0)
(-0.0980953 -0.52219 0)
(-0.097102 -0.548599 0)
(-0.0961173 -0.572088 0)
(-0.0951499 -0.592599 0)
(-0.0942066 -0.61015 0)
(-0.0932934 -0.624828 0)
(-0.0924144 -0.636778 0)
(-0.0915722 -0.646189 0)
(-0.0907677 -0.653287 0)
(-0.0900011 -0.658321 0)
(-0.0892714 -0.661554 0)
(-0.088577 -0.663255 0)
(-0.0879153 -0.663689 0)
(-0.087285 -0.663116 0)
(-0.0866849 -0.661777 0)
(-0.107103 -0.355374 0)
(-0.106252 -0.392999 0)
(-0.105334 -0.429068 0)
(-0.104358 -0.463195 0)
(-0.103338 -0.495013 0)
(-0.102294 -0.524233 0)
(-0.101247 -0.550641 0)
(-0.100206 -0.574108 0)
(-0.0991814 -0.594579 0)
(-0.0981796 -0.612076 0)
(-0.0972071 -0.62669 0)
(-0.0962681 -0.63857 0)
(-0.0953656 -0.647907 0)
(-0.0945007 -0.65493 0)
(-0.093674 -0.659889 0)
(-0.0928847 -0.66305 0)
(-0.0921312 -0.664681 0)
(-0.0914113 -0.66505 0)
(-0.0907237 -0.664416 0)
(-0.0900674 -0.663019 0)
(-0.111536 -0.35698 0)
(-0.110647 -0.394802 0)
(-0.109685 -0.431017 0)
(-0.108662 -0.465248 0)
(-0.107591 -0.497132 0)
(-0.106492 -0.526383 0)
(-0.105388 -0.552796 0)
(-0.104289 -0.576243 0)
(-0.103204 -0.596677 0)
(-0.102141 -0.614122 0)
(-0.101106 -0.628675 0)
(-0.100104 -0.640485 0)
(-0.0991389 -0.649748 0)
(-0.0982109 -0.656696 0)
(-0.0973213 -0.66158 0)
(-0.0964696 -0.664667 0)
(-0.0956543 -0.666228 0)
(-0.0948735 -0.666529 0)
(-0.0941258 -0.665831 0)
(-0.0934106 -0.664373 0)
(-0.115989 -0.358668 0)
(-0.115055 -0.396695 0)
(-0.114045 -0.433064 0)
(-0.112971 -0.467405 0)
(-0.111845 -0.49936 0)
(-0.110689 -0.528649 0)
(-0.109525 -0.55507 0)
(-0.108364 -0.578501 0)
(-0.107216 -0.5989 0)
(-0.106089 -0.616296 0)
(-0.104989 -0.630788 0)
(-0.103922 -0.642529 0)
(-0.10289 -0.65172 0)
(-0.101896 -0.658591 0)
(-0.10094 -0.6634 0)
(-0.100023 -0.666412 0)
(-0.0991426 -0.667901 0)
(-0.0982977 -0.668133 0)
(-0.0974868 -0.667369 0)
(-0.0967099 -0.665848 0)
(-0.120441 -0.360434 0)
(-0.119464 -0.398678 0)
(-0.118407 -0.43521 0)
(-0.117281 -0.469669 0)
(-0.116098 -0.501702 0)
(-0.114883 -0.531033 0)
(-0.113657 -0.557467 0)
(-0.112432 -0.580887 0)
(-0.111218 -0.601253 0)
(-0.110023 -0.618602 0)
(-0.108855 -0.633035 0)
(-0.107718 -0.644709 0)
(-0.106617 -0.653827 0)
(-0.105553 -0.660623 0)
(-0.104528 -0.665355 0)
(-0.103542 -0.668291 0)
(-0.102594 -0.669706 0)
(-0.101681 -0.669867 0)
(-0.100804 -0.669034 0)
(-0.0999626 -0.667448 0)
(-0.124912 -0.362288 0)
(-0.123888 -0.400758 0)
(-0.122779 -0.437462 0)
(-0.121597 -0.472046 0)
(-0.120354 -0.504163 0)
(-0.119076 -0.533543 0)
(-0.117784 -0.559995 0)
(-0.116491 -0.583406 0)
(-0.115208 -0.603744 0)
(-0.113942 -0.621048 0)
(-0.112702 -0.635423 0)
(-0.111492 -0.647031 0)
(-0.110318 -0.656077 0)
(-0.109181 -0.662797 0)
(-0.108082 -0.667452 0)
(-0.107024 -0.670312 0)
(-0.106003 -0.671651 0)
(-0.10502 -0.671738 0)
(-0.104074 -0.670834 0)
(-0.103164 -0.669179 0)
(-0.129387 -0.364227 0)
(-0.128316 -0.402935 0)
(-0.127155 -0.439821 0)
(-0.125915 -0.474541 0)
(-0.124611 -0.506749 0)
(-0.123266 -0.536184 0)
(-0.121906 -0.562659 0)
(-0.120542 -0.586068 0)
(-0.119185 -0.60638 0)
(-0.117844 -0.623641 0)
(-0.116528 -0.637961 0)
(-0.115241 -0.649504 0)
(-0.11399 -0.658477 0)
(-0.112775 -0.665122 0)
(-0.1116 -0.669699 0)
(-0.110465 -0.672481 0)
(-0.109369 -0.673742 0)
(-0.108312 -0.673754 0)
(-0.107292 -0.672776 0)
(-0.10631 -0.671049 0)
(-0.133889 -0.36626 0)
(-0.132764 -0.405217 0)
(-0.131546 -0.442296 0)
(-0.130244 -0.477159 0)
(-0.128872 -0.509468 0)
(-0.127457 -0.538965 0)
(-0.126023 -0.565469 0)
(-0.124583 -0.588878 0)
(-0.123149 -0.609169 0)
(-0.121729 -0.62639 0)
(-0.120332 -0.640656 0)
(-0.118964 -0.652135 0)
(-0.117631 -0.661037 0)
(-0.116335 -0.667606 0)
(-0.115079 -0.672104 0)
(-0.113863 -0.674806 0)
(-0.112687 -0.675988 0)
(-0.111551 -0.675921 0)
(-0.110454 -0.674867 0)
(-0.109397 -0.673064 0)
(-0.138394 -0.368391 0)
(-0.137218 -0.40761 0)
(-0.135943 -0.444893 0)
(-0.134576 -0.47991 0)
(-0.133135 -0.512327 0)
(-0.131646 -0.541893 0)
(-0.130135 -0.568432 0)
(-0.128615 -0.591847 0)
(-0.127098 -0.61212 0)
(-0.125594 -0.629305 0)
(-0.124112 -0.643519 0)
(-0.122659 -0.654934 0)
(-0.121239 -0.663766 0)
(-0.119857 -0.670258 0)
(-0.118515 -0.674677 0)
(-0.117214 -0.677297 0)
(-0.115954 -0.678398 0)
(-0.114735 -0.67825 0)
(-0.113556 -0.677115 0)
(-0.112419 -0.675234 0)
(-0.142931 -0.370625 0)
(-0.141697 -0.41012 0)
(-0.140356 -0.44762 0)
(-0.138919 -0.482801 0)
(-0.137403 -0.515335 0)
(-0.135836 -0.544977 0)
(-0.134242 -0.571557 0)
(-0.132638 -0.594984 0)
(-0.131033 -0.615243 0)
(-0.12944 -0.632393 0)
(-0.127868 -0.646558 0)
(-0.126324 -0.657911 0)
(-0.124813 -0.666672 0)
(-0.123339 -0.673088 0)
(-0.121906 -0.677426 0)
(-0.120514 -0.679963 0)
(-0.119165 -0.68098 0)
(-0.117858 -0.680748 0)
(-0.116593 -0.67953 0)
(-0.115371 -0.677565 0)
(-0.147475 -0.372968 0)
(-0.146183 -0.412755 0)
(-0.144778 -0.450483 0)
(-0.143269 -0.48584 0)
(-0.141675 -0.518501 0)
(-0.140024 -0.548228 0)
(-0.138344 -0.574855 0)
(-0.13665 -0.598298 0)
(-0.134953 -0.618548 0)
(-0.133266 -0.635667 0)
(-0.131597 -0.649784 0)
(-0.129956 -0.661077 0)
(-0.128348 -0.669768 0)
(-0.126778 -0.676106 0)
(-0.125248 -0.680362 0)
(-0.123761 -0.682815 0)
(-0.122317 -0.683746 0)
(-0.120917 -0.683427 0)
(-0.11956 -0.682121 0)
(-0.118249 -0.680069 0)
(-0.152054 -0.375427 0)
(-0.150697 -0.41552 0)
(-0.149219 -0.453492 0)
(-0.147631 -0.489036 0)
(-0.145953 -0.521834 0)
(-0.144213 -0.551654 0)
(-0.142441 -0.578336 0)
(-0.140651 -0.601801 0)
(-0.138856 -0.622046 0)
(-0.137068 -0.639138 0)
(-0.135298 -0.653209 0)
(-0.133555 -0.664443 0)
(-0.131844 -0.673063 0)
(-0.13017 -0.679324 0)
(-0.128538 -0.683497 0)
(-0.126949 -0.685864 0)
(-0.125405 -0.686705 0)
(-0.123906 -0.686296 0)
(-0.122452 -0.684899 0)
(-0.121046 -0.682754 0)
(-0.156644 -0.378008 0)
(-0.155222 -0.418425 0)
(-0.153671 -0.456654 0)
(-0.152001 -0.492398 0)
(-0.150235 -0.525345 0)
(-0.148402 -0.555267 0)
(-0.146531 -0.582012 0)
(-0.144639 -0.605505 0)
(-0.14274 -0.625749 0)
(-0.140846 -0.642817 0)
(-0.138968 -0.656845 0)
(-0.137116 -0.668021 0)
(-0.135295 -0.676572 0)
(-0.133513 -0.682755 0)
(-0.131771 -0.686844 0)
(-0.130075 -0.689121 0)
(-0.128424 -0.689871 0)
(-0.12682 -0.689367 0)
(-0.125263 -0.687874 0)
(-0.123757 -0.685632 0)
(-0.161272 -0.380719 0)
(-0.159776 -0.421478 0)
(-0.158143 -0.459981 0)
(-0.156385 -0.495938 0)
(-0.154524 -0.529044 0)
(-0.15259 -0.559078 0)
(-0.150615 -0.585893 0)
(-0.148616 -0.609421 0)
(-0.146605 -0.62967 0)
(-0.144598 -0.646718 0)
(-0.142605 -0.660706 0)
(-0.140637 -0.671825 0)
(-0.1387 -0.680307 0)
(-0.136801 -0.686411 0)
(-0.134944 -0.690414 0)
(-0.133133 -0.6926 0)
(-0.131369 -0.693254 0)
(-0.129654 -0.692653 0)
(-0.127988 -0.691059 0)
(-0.126375 -0.688714 0)
(-0.165915 -0.383569 0)
(-0.164344 -0.424688 0)
(-0.162628 -0.463481 0)
(-0.160778 -0.499666 0)
(-0.158817 -0.532944 0)
(-0.156777 -0.5631 0)
(-0.154691 -0.589994 0)
(-0.152577 -0.613564 0)
(-0.150449 -0.633823 0)
(-0.148322 -0.650855 0)
(-0.146206 -0.664805 0)
(-0.144115 -0.675869 0)
(-0.142054 -0.684282 0)
(-0.140031 -0.690307 0)
(-0.138051 -0.694222 0)
(-0.136118 -0.696315 0)
(-0.134234 -0.69687 0)
(-0.1324 -0.696166 0)
(-0.130618 -0.694467 0)
(-0.128892 -0.692014 0)
(-0.170599 -0.386565 0)
(-0.168944 -0.428066 0)
(-0.167136 -0.467165 0)
(-0.165185 -0.503594 0)
(-0.163117 -0.537057 0)
(-0.160964 -0.567346 0)
(-0.15876 -0.594328 0)
(-0.156523 -0.617947 0)
(-0.15427 -0.638222 0)
(-0.152014 -0.655242 0)
(-0.149769 -0.669158 0)
(-0.147546 -0.680168 0)
(-0.145353 -0.688513 0)
(-0.143199 -0.694458 0)
(-0.141088 -0.698284 0)
(-0.139026 -0.700279 0)
(-0.137013 -0.700732 0)
(-0.135054 -0.699921 0)
(-0.133149 -0.698111 0)
(-0.131302 -0.695544 0)
(-0.175301 -0.389718 0)
(-0.173561 -0.431622 0)
(-0.171658 -0.471047 0)
(-0.169603 -0.507735 0)
(-0.167421 -0.541396 0)
(-0.165148 -0.57183 0)
(-0.162818 -0.59891 0)
(-0.160452 -0.622587 0)
(-0.158064 -0.642884 0)
(-0.155672 -0.659897 0)
(-0.153288 -0.67378 0)
(-0.150926 -0.68474 0)
(-0.148593 -0.693017 0)
(-0.146299 -0.69888 0)
(-0.144049 -0.702615 0)
(-0.141848 -0.704511 0)
(-0.139699 -0.704857 0)
(-0.137606 -0.703934 0)
(-0.13557 -0.702007 0)
(-0.133596 -0.699318 0)
(-0.180049 -0.393039 0)
(-0.178213 -0.435368 0)
(-0.176206 -0.475139 0)
(-0.174037 -0.512104 0)
(-0.171733 -0.545978 0)
(-0.169331 -0.57657 0)
(-0.166867 -0.603758 0)
(-0.164362 -0.627499 0)
(-0.161831 -0.647825 0)
(-0.159294 -0.664836 0)
(-0.156762 -0.678691 0)
(-0.154251 -0.6896 0)
(-0.151769 -0.697809 0)
(-0.149325 -0.703591 0)
(-0.146927 -0.707232 0)
(-0.144579 -0.709025 0)
(-0.142286 -0.70926 0)
(-0.140051 -0.70822 0)
(-0.137875 -0.706169 0)
(-0.135765 -0.703352 0)
(-0.184819 -0.396537 0)
(-0.182887 -0.439316 0)
(-0.180771 -0.479455 0)
(-0.178483 -0.516714 0)
(-0.17605 -0.550818 0)
(-0.173512 -0.58158 0)
(-0.170905 -0.608887 0)
(-0.168252 -0.632703 0)
(-0.16557 -0.653064 0)
(-0.162877 -0.670078 0)
(-0.160188 -0.683908 0)
(-0.157518 -0.694769 0)
(-0.154876 -0.702911 0)
(-0.152274 -0.70861 0)
(-0.149717 -0.712154 0)
(-0.147213 -0.713841 0)
(-0.144765 -0.71396 0)
(-0.142378 -0.712796 0)
(-0.140054 -0.710615 0)
(-0.137799 -0.707661 0)
(-0.189644 -0.400225 0)
(-0.187602 -0.443481 0)
(-0.185367 -0.48401 0)
(-0.182949 -0.521584 0)
(-0.180378 -0.555933 0)
(-0.177693 -0.586879 0)
(-0.174934 -0.614317 0)
(-0.172122 -0.638217 0)
(-0.169278 -0.658621 0)
(-0.166419 -0.675643 0)
(-0.163562 -0.689452 0)
(-0.160722 -0.700267 0)
(-0.157911 -0.708342 0)
(-0.155138 -0.713957 0)
(-0.152412 -0.717403 0)
(-0.149741 -0.718978 0)
(-0.147128 -0.718977 0)
(-0.14458 -0.717683 0)
(-0.142097 -0.715364 0)
(-0.139688 -0.712265 0)
(-0.194498 -0.404116 0)
(-0.192344 -0.447877 0)
(-0.189986 -0.48882 0)
(-0.187432 -0.526729 0)
(-0.184714 -0.561342 0)
(-0.181874 -0.592488 0)
(-0.178951 -0.620069 0)
(-0.175971 -0.644063 0)
(-0.172953 -0.664518 0)
(-0.169917 -0.681554 0)
(-0.16688 -0.695346 0)
(-0.163859 -0.706117 0)
(-0.160866 -0.714126 0)
(-0.157911 -0.719654 0)
(-0.155005 -0.722999 0)
(-0.152155 -0.724459 0)
(-0.149366 -0.724332 0)
(-0.146645 -0.722901 0)
(-0.143993 -0.720436 0)
(-0.141418 -0.717183 0)
(-0.199413 -0.408224 0)
(-0.197135 -0.452519 0)
(-0.19464 -0.493902 0)
(-0.191939 -0.532168 0)
(-0.189062 -0.567064 0)
(-0.186055 -0.598427 0)
(-0.182958 -0.626165 0)
(-0.179797 -0.650263 0)
(-0.176593 -0.670778 0)
(-0.173367 -0.687835 0)
(-0.170139 -0.701614 0)
(-0.166924 -0.712343 0)
(-0.163735 -0.720286 0)
(-0.160587 -0.725727 0)
(-0.157487 -0.728968 0)
(-0.154446 -0.730308 0)
(-0.151469 -0.730048 0)
(-0.148562 -0.728472 0)
(-0.14573 -0.725853 0)
(-0.14298 -0.722435 0)
(-0.204363 -0.412563 0)
(-0.201957 -0.457424 0)
(-0.199322 -0.499275 0)
(-0.196465 -0.537923 0)
(-0.19342 -0.573123 0)
(-0.190234 -0.604719 0)
(-0.186951 -0.632628 0)
(-0.183597 -0.656843 0)
(-0.180194 -0.677427 0)
(-0.176766 -0.694511 0)
(-0.173331 -0.708281 0)
(-0.169908 -0.718971 0)
(-0.166512 -0.726848 0)
(-0.163155 -0.732202 0)
(-0.159849 -0.735334 0)
(-0.156603 -0.73655 0)
(-0.153425 -0.73615 0)
(-0.15032 -0.734422 0)
(-0.147295 -0.731639 0)
(-0.144356 -0.728045 0)
(-0.209383 -0.417147 0)
(-0.206835 -0.46261 0)
(-0.204044 -0.504959 0)
(-0.201018 -0.544016 0)
(-0.197791 -0.579541 0)
(-0.194414 -0.611389 0)
(-0.190931 -0.639485 0)
(-0.187369 -0.663829 0)
(-0.183754 -0.684492 0)
(-0.180108 -0.701611 0)
(-0.176453 -0.715377 0)
(-0.172807 -0.726031 0)
(-0.169188 -0.733842 0)
(-0.165608 -0.739106 0)
(-0.16208 -0.742127 0)
(-0.158616 -0.743213 0)
(-0.155222 -0.742666 0)
(-0.151906 -0.740777 0)
(-0.148674 -0.737818 0)
(-0.145534 -0.734037 0)
(-0.214447 -0.421998 0)
(-0.211751 -0.468099 0)
(-0.208798 -0.510978 0)
(-0.205593 -0.55047 0)
(-0.202173 -0.586344 0)
(-0.198592 -0.618464 0)
(-0.194894 -0.646764 0)
(-0.191111 -0.671251 0)
(-0.187267 -0.692004 0)
(-0.183388 -0.709164 0)
(-0.179497 -0.722933 0)
(-0.175613 -0.733552 0)
(-0.171754 -0.741299 0)
(-0.167935 -0.746471 0)
(-0.16417 -0.749376 0)
(-0.160471 -0.750326 0)
(-0.156846 -0.749624 0)
(-0.153304 -0.747563 0)
(-0.14985 -0.744419 0)
(-0.146496 -0.740437 0)
(-0.219587 -0.42713 0)
(-0.216728 -0.47391 0)
(-0.213597 -0.517354 0)
(-0.210198 -0.557311 0)
(-0.20657 -0.59356 0)
(-0.202769 -0.625974 0)
(-0.198841 -0.654496 0)
(-0.19482 -0.67914 0)
(-0.190731 -0.699993 0)
(-0.186602 -0.717205 0)
(-0.182457 -0.730981 0)
(-0.178317 -0.741569 0)
(-0.174201 -0.749251 0)
(-0.170127 -0.754329 0)
(-0.166107 -0.757115 0)
(-0.162156 -0.757921 0)
(-0.158284 -0.757056 0)
(-0.154499 -0.754814 0)
(-0.150809 -0.75147 0)
(-0.147225 -0.747274 0)
(-0.224782 -0.432566 0)
(-0.221753 -0.480068 0)
(-0.218435 -0.524113 0)
(-0.21483 -0.564567 0)
(-0.210981 -0.601219 0)
(-0.206944 -0.63395 0)
(-0.20277 -0.662713 0)
(-0.198493 -0.68753 0)
(-0.194141 -0.708497 0)
(-0.189744 -0.725768 0)
(-0.185326 -0.739557 0)
(-0.180912 -0.750118 0)
(-0.17652 -0.757736 0)
(-0.17217 -0.762717 0)
(-0.167878 -0.765378 0)
(-0.163657 -0.766034 0)
(-0.159518 -0.764997 0)
(-0.155474 -0.76256 0)
(-0.151529 -0.759004 0)
(-0.147699 -0.754577 0)
(-0.230063 -0.438326 0)
(-0.226847 -0.486597 0)
(-0.223325 -0.531284 0)
(-0.219497 -0.57227 0)
(-0.215408 -0.609353 0)
(-0.211118 -0.642426 0)
(-0.206679 -0.67145 0)
(-0.202127 -0.696458 0)
(-0.197493 -0.717551 0)
(-0.192807 -0.734893 0)
(-0.188097 -0.748702 0)
(-0.183387 -0.759238 0)
(-0.178699 -0.766792 0)
(-0.174054 -0.771674 0)
(-0.169467 -0.774205 0)
(-0.164956 -0.774704 0)
(-0.160533 -0.773482 0)
(-0.156209 -0.77084 0)
(-0.151992 -0.767056 0)
(-0.147898 -0.762382 0)
(-0.235413 -0.444435 0)
(-0.232001 -0.493525 0)
(-0.228263 -0.538896 0)
(-0.224197 -0.580451 0)
(-0.219852 -0.617997 0)
(-0.21529 -0.65144 0)
(-0.210566 -0.680749 0)
(-0.205719 -0.705965 0)
(-0.200781 -0.727199 0)
(-0.195785 -0.744621 0)
(-0.19076 -0.758457 0)
(-0.185732 -0.768972 0)
(-0.180726 -0.776462 0)
(-0.175762 -0.781243 0)
(-0.17086 -0.783638 0)
(-0.166037 -0.78397 0)
(-0.161307 -0.782554 0)
(-0.156683 -0.779691 0)
(-0.152174 -0.775664 0)
(-0.147796 -0.770723 0)
(-0.240861 -0.450917 0)
(-0.237235 -0.500881 0)
(-0.23326 -0.546982 0)
(-0.228938 -0.589146 0)
(-0.224316 -0.627191 0)
(-0.219461 -0.661032 0)
(-0.214431 -0.69065 0)
(-0.209266 -0.716095 0)
(-0.204001 -0.737485 0)
(-0.19867 -0.754999 0)
(-0.193306 -0.76887 0)
(-0.187936 -0.779367 0)
(-0.182586 -0.786794 0)
(-0.17728 -0.79147 0)
(-0.172038 -0.793723 0)
(-0.16688 -0.793878 0)
(-0.161819 -0.792255 0)
(-0.156873 -0.789157 0)
(-0.15205 -0.784868 0)
(-0.147367 -0.77964 0)
(-0.246392 -0.457801 0)
(-0.242539 -0.508695 0)
(-0.238314 -0.555578 0)
(-0.233717 -0.598395 0)
(-0.228799 -0.636975 0)
(-0.223629 -0.671246 0)
(-0.218269 -0.701199 0)
(-0.212762 -0.726895 0)
(-0.207144 -0.748458 0)
(-0.201454 -0.766077 0)
(-0.195723 -0.77999 0)
(-0.189985 -0.790475 0)
(-0.184265 -0.797839 0)
(-0.17859 -0.802407 0)
(-0.172982 -0.80451 0)
(-0.167461 -0.804479 0)
(-0.162046 -0.802634 0)
(-0.156752 -0.799284 0)
(-0.151591 -0.794713 0)
(-0.146581 -0.789176 0)
(-0.252033 -0.465116 0)
(-0.247932 -0.517004 0)
(-0.243436 -0.564723 0)
(-0.238541 -0.608239 0)
(-0.233303 -0.647395 0)
(-0.227793 -0.68213 0)
(-0.222078 -0.712448 0)
(-0.216202 -0.738417 0)
(-0.210204 -0.760172 0)
(-0.204125 -0.77791 0)
(-0.198001 -0.791874 0)
(-0.191864 -0.802351 0)
(-0.185746 -0.809652 0)
(-0.179673 -0.814108 0)
(-0.173669 -0.816054 0)
(-0.167759 -0.815824 0)
(-0.16196 -0.813744 0)
(-0.156292 -0.810122 0)
(-0.150767 -0.805247 0)
(-0.145404 -0.799377 0)
(-0.257774 -0.472893 0)
(-0.253409 -0.525844 0)
(-0.248623 -0.574457 0)
(-0.24341 -0.618724 0)
(-0.237827 -0.658499 0)
(-0.231952 -0.693737 0)
(-0.225854 -0.72445 0)
(-0.21958 -0.750718 0)
(-0.213172 -0.772686 0)
(-0.206674 -0.790556 0)
(-0.200124 -0.804582 0)
(-0.193558 -0.815056 0)
(-0.187008 -0.822295 0)
(-0.180505 -0.826634 0)
(-0.174075 -0.828414 0)
(-0.167744 -0.827973 0)
(-0.161532 -0.82564 0)
(-0.15546 -0.821727 0)
(-0.149542 -0.816525 0)
(-0.1438 -0.810293 0)
(-0.26364 -0.48117 0)
(-0.258989 -0.535256 0)
(-0.253888 -0.584827 0)
(-0.24833 -0.629899 0)
(-0.242375 -0.670342 0)
(-0.236106 -0.706122 0)
(-0.229593 -0.737264 0)
(-0.22289 -0.76386 0)
(-0.21604 -0.786062 0)
(-0.209089 -0.804082 0)
(-0.202078 -0.818181 0)
(-0.195048 -0.828656 0)
(-0.188032 -0.835833 0)
(-0.181064 -0.840052 0)
(-0.174173 -0.841657 0)
(-0.167386 -0.840991 0)
(-0.160728 -0.838387 0)
(-0.15422 -0.83416 0)
(-0.147879 -0.828604 0)
(-0.141727 -0.821981 0)
(-0.269624 -0.489983 0)
(-0.264668 -0.545284 0)
(-0.25923 -0.595882 0)
(-0.253301 -0.641819 0)
(-0.246946 -0.682981 0)
(-0.240251 -0.719347 0)
(-0.233292 -0.750956 0)
(-0.226124 -0.77791 0)
(-0.218796 -0.80037 0)
(-0.211355 -0.818558 0)
(-0.203846 -0.832742 0)
(-0.196314 -0.843226 0)
(-0.188793 -0.850341 0)
(-0.181322 -0.854434 0)
(-0.173931 -0.855854 0)
(-0.166652 -0.854948 0)
(-0.15951 -0.852053 0)
(-0.152531 -0.847487 0)
(-0.145732 -0.841548 0)
(-0.139139 -0.834499 0)
(-0.275754 -0.499375 0)
(-0.270466 -0.555976 0)
(-0.264662 -0.607675 0)
(-0.258332 -0.654543 0)
(-0.251543 -0.69648 0)
(-0.244388 -0.733481 0)
(-0.236946 -0.765597 0)
(-0.229276 -0.792942 0)
(-0.221429 -0.815688 0)
(-0.213457 -0.834063 0)
(-0.20541 -0.848345 0)
(-0.197332 -0.858844 0)
(-0.189265 -0.865899 0)
(-0.181248 -0.869861 0)
(-0.173316 -0.871085 0)
(-0.165504 -0.869922 0)
(-0.157838 -0.866713 0)
(-0.150349 -0.86178 0)
(-0.143055 -0.855426 0)
(-0.135985 -0.847916 0)
(-0.282024 -0.509389 0)
(-0.276381 -0.567385 0)
(-0.270184 -0.620266 0)
(-0.263422 -0.668135 0)
(-0.256166 -0.710907 0)
(-0.248513 -0.748596 0)
(-0.240548 -0.781265 0)
(-0.232334 -0.809038 0)
(-0.223925 -0.832099 0)
(-0.215379 -0.850684 0)
(-0.206746 -0.865078 0)
(-0.198078 -0.875601 0)
(-0.189417 -0.882596 0)
(-0.180809 -0.886421 0)
(-0.172289 -0.887436 0)
(-0.163897 -0.885997 0)
(-0.155664 -0.88245 0)
(-0.147622 -0.877121 0)
(-0.139791 -0.870315 0)
(-0.132204 -0.862301 0)
(-0.288464 -0.520076 0)
(-0.282435 -0.579567 0)
(-0.27581 -0.633718 0)
(-0.26858 -0.682664 0)
(-0.260817 -0.726341 0)
(-0.252625 -0.764775 0)
(-0.244094 -0.798045 0)
(-0.235289 -0.826288 0)
(-0.226271 -0.849695 0)
(-0.2171 -0.868514 0)
(-0.207832 -0.883038 0)
(-0.198521 -0.893593 0)
(-0.189216 -0.90053 0)
(-0.179964 -0.904211 0)
(-0.170806 -0.905004 0)
(-0.161785 -0.903269 0)
(-0.152935 -0.899357 0)
(-0.144292 -0.893597 0)
(-0.13588 -0.8863 0)
(-0.127733 -0.877737 0)
(-0.295067 -0.531488 0)
(-0.288625 -0.592583 0)
(-0.281542 -0.6481 0)
(-0.273805 -0.698209 0)
(-0.265495 -0.742862 0)
(-0.256719 -0.782105 0)
(-0.247573 -0.816032 0)
(-0.238128 -0.844788 0)
(-0.228447 -0.868579 0)
(-0.218598 -0.88766 0)
(-0.208638 -0.902332 0)
(-0.198629 -0.912929 0)