# vtk DataFile Version 2.0
track0
ASCII
DATASET POLYDATA
POINTS 12130 float
-0.0205 0.001 1e-05
-0.0204972 0.0011 1e-05
-0.0204942 0.00119999 1e-05
-0.0204909 0.00129998 1e-05
-0.0204874 0.00139995 1e-05
-0.0204836 0.0015 1e-05
-0.0204796 0.0016 1e-05
-0.0204753 0.00169999 1e-05
-0.0204708 0.00179997 1e-05
-0.0204659 0.00189993 1e-05
-0.0204609 0.002 1e-05
-0.0204555 0.0021 1e-05
-0.0204499 0.00219999 1e-05
-0.020444 0.00229996 1e-05
-0.0204379 0.00239991 1e-05
-0.0204315 0.0025 1e-05
-0.0204249 0.0026 1e-05
-0.0204179 0.00269998 1e-05
-0.0204107 0.00279995 1e-05
-0.0204033 0.00289989 1e-05
-0.0203956 0.003 1e-05
-0.0203876 0.0031 1e-05
-0.0203793 0.00319998 1e-05
-0.0203708 0.00329993 1e-05
-0.020362 0.00339987 1e-05
-0.0203529 0.0035 1e-05
-0.0203436 0.0036 1e-05
-0.020334 0.00369997 1e-05
-0.0203241 0.00379992 1e-05
-0.020314 0.00389984 1e-05
-0.0203036 0.004 1e-05
-0.0202999 0.00403405 1e-05
-0.0202963 0.00406809 1e-05
-0.0202926 0.00410212 1e-05
-0.0202888 0.00413616 1e-05
-0.0202854 0.00416736 1e-05
-0.020278 0.00423389 1e-05
-0.0202705 0.0043004 1e-05
-0.0202628 0.0043669 1e-05
-0.020255 0.00443339 1e-05
-0.0202471 0.0045 1e-05
-0.0202351 0.0046 1e-05
-0.0202227 0.00469997 1e-05
-0.0202101 0.0047999 1e-05
-0.0201973 0.0048998 1e-05
-0.0201841 0.005 1e-05
-0.0201706 0.0051 1e-05
-0.0201569 0.00519996 1e-05
-0.0201429 0.00529989 1e-05
-0.0201287 0.00539977 1e-05
-0.0201141 0.0055 1e-05
-0.0200992 0.0056 1e-05
-0.0200841 0.00569996 1e-05
-0.0200687 0.00579987 1e-05
-0.020053 0.00589975 1e-05
-0.020037 0.006 1e-05
-0.0200341 0.00601805 1e-05
-0.0200311 0.0060361 1e-05
-0.0200282 0.00605415 1e-05
-0.0200252 0.0060722 1e-05
-0.0200223 0.00608969 1e-05
-0.0200088 0.00617175 1e-05
-0.019995 0.00625378 1e-05
-0.0199811 0.00633578 1e-05
-0.0199669 0.00641775 1e-05
-0.0199526 0.0065 1e-05
-0.0199349 0.0066 1e-05
-0.0199169 0.00669995 1e-05
-0.0198986 0.00679985 1e-05
-0.01988 0.00689969 1e-05
-0.0198611 0.007 1e-05
-0.0198419 0.0071 1e-05
-0.0198224 0.00719994 1e-05
-0.0198027 0.00729983 1e-05
-0.0197826 0.00739966 1e-05
-0.0197622 0.0075 1e-05
-0.019762 0.00750079 1e-05
-0.0197619 0.00750158 1e-05
-0.0197617 0.00750237 1e-05
-0.0197615 0.00750317 1e-05
-0.0197614 0.00750396 1e-05
-0.0197408 0.00760317 1e-05
-0.01972 0.00770231 1e-05
-0.0196989 0.0078014 1e-05
-0.0196776 0.00790043 1e-05
-0.0196558 0.008 1e-05
-0.0196336 0.0081 1e-05
-0.0196111 0.00819993 1e-05
-0.0195883 0.0082998 1e-05
-0.0195653 0.0083996 1e-05
-0.0195417 0.0085 1e-05
-0.0195339 0.00853306 1e-05
-0.019526 0.00856611 1e-05
-0.0195181 0.00859915 1e-05
-0.0195102 0.00863219 1e-05
-0.0195025 0.00866387 1e-05
-0.0194862 0.0087311 1e-05
-0.0194698 0.00879829 1e-05
-0.0194532 0.00886545 1e-05
-0.0194365 0.00893258 1e-05
-0.0194196 0.009 1e-05
-0.0193943 0.0091 1e-05
-0.0193687 0.00919992 1e-05
-0.0193427 0.00929977 1e-05
-0.0193165 0.00939954 1e-05
-0.0192898 0.0095 1e-05
-0.019281 0.00953275 1e-05
-0.0192722 0.00956549 1e-05
-0.0192633 0.00959823 1e-05
-0.0192544 0.00963095 1e-05
-0.0192457 0.00966248 1e-05
-0.0192272 0.00972998 1e-05
-0.0192085 0.00979745 1e-05
-0.0191897 0.00986488 1e-05
-0.0191708 0.00993226 1e-05
-0.0191516 0.01 1e-05
-0.019123 0.0101 1e-05
-0.0190942 0.0101999 1e-05
-0.019065 0.0102997 1e-05
-0.0190355 0.0103995 1e-05
-0.0190055 0.0105 1e-05
-0.0190026 0.0105095 1e-05
-0.0189997 0.0105191 1e-05
-0.0189968 0.0105286 1e-05
-0.0189939 0.0105382 1e-05
-0.018991 0.0105476 1e-05
-0.0189635 0.0106381 1e-05
-0.0189358 0.0107285 1e-05
-0.0189078 0.0108188 1e-05
-0.0188795 0.0109091 1e-05
-0.0188507 0.011 1e-05
-0.0188283 0.0110703 1e-05
-0.0188056 0.0111406 1e-05
-0.0187829 0.0112109 1e-05
-0.0187599 0.011281 1e-05
-0.0187384 0.0113464 1e-05
-0.0187282 0.0113771 1e-05
-0.018718 0.0114079 1e-05
-0.0187077 0.0114385 1e-05
-0.0186975 0.0114692 1e-05
-0.0186871 0.0115 1e-05
-0.0186534 0.0116 1e-05
-0.0186194 0.0116999 1e-05
-0.0185851 0.0117997 1e-05
-0.0185504 0.0118993 1e-05
-0.018515 0.012 1e-05
-0.0185096 0.0120154 1e-05
-0.0185041 0.0120307 1e-05
-0.0184987 0.0120461 1e-05
-0.0184932 0.0120614 1e-05
-0.0184878 0.0120766 1e-05
-0.0184575 0.0121613 1e-05
-0.0184269 0.0122459 1e-05
-0.0183962 0.0123304 1e-05
-0.0183652 0.0124148 1e-05
-0.0183336 0.0125 1e-05
-0.0183147 0.0125506 1e-05
-0.0182958 0.0126011 1e-05
-0.0182767 0.0126517 1e-05
-0.0182576 0.0127022 1e-05
-0.0182392 0.0127504 1e-05
-0.0182201 0.0128003 1e-05
-0.0182009 0.0128502 1e-05
-0.0181816 0.0129001 1e-05
-0.0181623 0.0129499 1e-05
-0.0181427 0.013 1e-05
-0.0181127 0.0130765 1e-05
-0.0180825 0.013153 1e-05
-0.018052 0.0132293 1e-05
-0.0180214 0.0133056 1e-05
-0.0179926 0.013377 1e-05
-0.0179826 0.0134016 1e-05
-0.0179725 0.0134262 1e-05
-0.0179625 0.0134508 1e-05
-0.0179524 0.0134753 1e-05
-0.0179423 0.0135 1e-05
-0.0179034 0.0135944 1e-05
-0.0178643 0.0136886 1e-05
-0.0178248 0.0137828 1e-05
-0.017785 0.0138768 1e-05
-0.017748 0.0139636 1e-05
-0.0177449 0.0139709 1e-05
-0.0177417 0.0139782 1e-05
-0.0177386 0.0139855 1e-05
-0.0177355 0.0139927 1e-05
-0.0177323 0.014 1e-05
-0.0176892 0.0141 1e-05
-0.0176456 0.0141999 1e-05
-0.0176018 0.0142996 1e-05
-0.0175576 0.0143991 1e-05
-0.0175124 0.0145 1e-05
-0.017511 0.0145031 1e-05
-0.0175096 0.0145062 1e-05
-0.0175082 0.0145094 1e-05
-0.0175068 0.0145125 1e-05
-0.0175053 0.0145156 1e-05
-0.0174615 0.0146125 1e-05
-0.0174173 0.0147092 1e-05
-0.0173728 0.0148058 1e-05
-0.0173279 0.0149022 1e-05
-0.0172821 0.015 1e-05
-0.0172786 0.0150073 1e-05
-0.0172751 0.0150147 1e-05
-0.0172716 0.015022 1e-05
-0.0172681 0.0150294 1e-05
-0.0172647 0.0150367 1e-05
-0.0172207 0.0151294 1e-05
-0.0171764 0.0152219 1e-05
-0.0171318 0.0153142 1e-05
-0.0170869 0.0154065 1e-05
-0.017041 0.0155 1e-05
-0.017038 0.0155061 1e-05
-0.0170349 0.0155122 1e-05
-0.0170319 0.0155182 1e-05
-0.0170289 0.0155243 1e-05
-0.0170259 0.0155304 1e-05
-0.0169793 0.0156243 1e-05
-0.0169324 0.0157181 1e-05
-0.0168851 0.0158117 1e-05
-0.0168376 0.0159051 1e-05
-0.0167891 0.0159997 1e-05
-0.0167891 0.0159997 1e-05
-0.016789 0.0159998 1e-05
-0.016789 0.0159999 1e-05
-0.016789 0.0159999 1e-05
-0.0167889 0.016 1e-05
-0.016742 0.0160908 1e-05
-0.0166947 0.0161814 1e-05
-0.0166472 0.0162718 1e-05
-0.0165994 0.0163621 1e-05
-0.0165542 0.0164468 1e-05
-0.0165485 0.0164574 1e-05
-0.0165427 0.0164681 1e-05
-0.016537 0.0164787 1e-05
-0.0165313 0.0164893 1e-05
-0.0165255 0.0165 1e-05
-0.0164846 0.0165756 1e-05
-0.0164436 0.0166512 1e-05
-0.0164023 0.0167266 1e-05
-0.0163608 0.0168019 1e-05
-0.0163212 0.0168734 1e-05
-0.016307 0.0168987 1e-05
-0.0162929 0.016924 1e-05
-0.0162787 0.0169493 1e-05
-0.0162645 0.0169746 1e-05
-0.0162502 0.017 1e-05
-0.0162182 0.0170568 1e-05
-0.016186 0.0171136 1e-05
-0.0161538 0.0171702 1e-05
-0.0161214 0.0172269 1e-05
-0.01609 0.0172813 1e-05
-0.0160648 0.0173251 1e-05
-0.0160394 0.0173688 1e-05
-0.016014 0.0174124 1e-05
-0.0159886 0.017456 1e-05
-0.0159628 0.0175 1e-05
-0.0159424 0.0175347 1e-05
-0.0159219 0.0175693 1e-05
-0.0159014 0.017604 1e-05
-0.0158809 0.0176386 1e-05
-0.0158607 0.0176724 1e-05
-0.0158216 0.0177379 1e-05
-0.0157824 0.0178034 1e-05
-0.0157429 0.0178687 1e-05
-0.0157033 0.0179339 1e-05
-0.015663 0.018 1e-05
-0.0156571 0.0180097 1e-05
-0.0156511 0.0180194 1e-05
-0.0156452 0.018029 1e-05
-0.0156392 0.0180387 1e-05
-0.0156333 0.0180483 1e-05
-0.0155882 0.0181215 1e-05
-0.0155429 0.0181947 1e-05
-0.0154974 0.0182676 1e-05
-0.0154516 0.0183405 1e-05
-0.0154077 0.0184101 1e-05
-0.0153963 0.0184281 1e-05
-0.0153849 0.018446 1e-05
-0.0153734 0.018464 1e-05
-0.015362 0.018482 1e-05
-0.0153505 0.0185 1e-05
-0.0153171 0.0185521 1e-05
-0.0152837 0.0186041 1e-05
-0.0152502 0.018656 1e-05
-0.0152166 0.0187079 1e-05
-0.0151839 0.0187581 1e-05
-0.0151523 0.0188065 1e-05
-0.0151206 0.0188548 1e-05
-0.0150888 0.0189031 1e-05
-0.015057 0.0189513 1e-05
-0.0150246 0.019 1e-05
-0.0150121 0.0190188 1e-05
-0.0149995 0.0190376 1e-05
-0.014987 0.0190564 1e-05
-0.0149744 0.0190752 1e-05
-0.0149619 0.0190937 1e-05
-0.0149179 0.0191593 1e-05
-0.0148737 0.0192247 1e-05
-0.0148293 0.0192901 1e-05
-0.0147848 0.0193553 1e-05
-0.0147417 0.0194181 1e-05
-0.0147304 0.0194345 1e-05
-0.0147191 0.0194508 1e-05
-0.0147078 0.0194672 1e-05
-0.0146965 0.0194836 1e-05
-0.0146851 0.0195 1e-05
-0.0146527 0.0195466 1e-05
-0.0146203 0.0195931 1e-05
-0.0145878 0.0196396 1e-05
-0.0145552 0.019686 1e-05
-0.0145233 0.0197312 1e-05
-0.0144853 0.019785 1e-05
-0.0144471 0.0198387 1e-05
-0.0144089 0.0198923 1e-05
-0.0143705 0.0199458 1e-05
-0.0143315 0.02 1e-05
-0.0143265 0.0200069 1e-05
-0.0143216 0.0200137 1e-05
-0.0143166 0.0200206 1e-05
-0.0143116 0.0200275 1e-05
-0.0143067 0.0200343 1e-05
-0.0142637 0.0200936 1e-05
-0.0142206 0.0201528 1e-05
-0.0141773 0.0202119 1e-05
-0.0141339 0.0202708 1e-05
-0.0140917 0.0203279 1e-05
-0.0140662 0.0203623 1e-05
-0.0140406 0.0203967 1e-05
-0.014015 0.0204311 1e-05
-0.0139893 0.0204654 1e-05
-0.0139633 0.0205 1e-05
-0.0139463 0.0205225 1e-05
-0.0139294 0.020545 1e-05
-0.0139124 0.0205675 1e-05
-0.0138954 0.0205899 1e-05
-0.0138786 0.0206121 1e-05
-0.0138363 0.0206678 1e-05
-0.0137939 0.0207234 1e-05
-0.0137513 0.0207789 1e-05
-0.0137087 0.0208343 1e-05
-0.0136671 0.0208881 1e-05
-0.0136497 0.0209105 1e-05
-0.0136323 0.0209328 1e-05
-0.0136149 0.0209552 1e-05
-0.0135975 0.0209775 1e-05
-0.0135799 0.021 1e-05
-0.0135554 0.0210313 1e-05
-0.0135308 0.0210626 1e-05
-0.0135062 0.0210938 1e-05
-0.0134816 0.021125 1e-05
-0.0134573 0.0211557 1e-05
-0.0134157 0.0212082 1e-05
-0.013374 0.0212605 1e-05
-0.0133322 0.0213128 1e-05
-0.0132902 0.0213651 1e-05
-0.0132493 0.0214159 1e-05
-0.0132356 0.0214327 1e-05
-0.013222 0.0214495 1e-05
-0.0132084 0.0214663 1e-05
-0.0131947 0.0214831 1e-05
-0.013181 0.0215 1e-05
-0.0131533 0.0215339 1e-05
-0.0131257 0.0215677 1e-05
-0.013098 0.0216016 1e-05
-0.0130702 0.0216353 1e-05
-0.0130429 0.0216685 1e-05
-0.0130019 0.0217181 1e-05
-0.0129609 0.0217676 1e-05
-0.0129197 0.021817 1e-05
-0.0128785 0.0218664 1e-05
-0.0128381 0.0219145 1e-05
-0.0128237 0.0219316 1e-05
-0.0128093 0.0219487 1e-05
-0.0127949 0.0219658 1e-05
[...]
POINT_DATA 12130
 FIELD attributes 2
p 1 12130 float
1.02353 1.13271 1.24121 1.3497 1.4582 1.5668 1.67608 1.78493 1.89354 2.00214 2.11089 2.22029 2.32963 2.43838 2.54712 2.65606 2.76561 2.87519 2.98449 3.09341 3.20256 3.3123 3.42207 3.53184 3.64126 3.75065 3.86062 3.97061 4.0806 4.19059 4.30061 4.33812 4.37566 4.41319 4.45072 4.48515 4.55863 4.63213 4.70563 4.77913 4.85281 4.96409 5.07482 5.18555 5.29629 5.40743 5.51906 5.63072 5.74214 5.85322 5.96474 6.07673 6.18874 6.30075 6.41276 6.52503 6.5453 6.5656 6.58589 6.60618 6.62586 6.71836 6.81088 6.90341 6.99593 7.08884 7.20249 7.31617 7.42934 7.54249 7.65626 7.77038 7.88453 7.99867 8.11281 8.2276 8.2285 8.22941 8.23032 8.23123 8.23214 8.34626 8.46041 8.57457 8.68872 8.8036 8.91968 9.03579 9.15189 9.26782 9.38426 9.42282 9.4614 9.49999 9.53857 9.5756 9.65446 9.73334 9.81223 9.89111 9.9704 10.0887 10.207 10.3253 10.4433 10.5621 10.6011 10.6401 10.679 10.718 10.7556 10.8364 10.9173 10.9981 11.079 11.1603 11.2811 11.4018 11.5226 11.6434 11.765 11.7766 11.7882 11.7998 11.8114 11.823 11.9336 12.0443 12.155 12.2657 12.3774 12.4643 12.5512 12.6381 12.725 12.8061 12.8444 12.8827 12.921 12.9593 12.9978 13.1234 13.249 13.3746 13.5 13.6268 13.6462 13.6657 13.6852 13.7046 13.7238 13.8319 13.9401 14.0482 14.1563 14.2655 14.3308 14.396 14.4613 14.5265 14.589 14.654 14.719 14.7841 14.8492 14.9146 15.0152 15.1157 15.2163 15.3168 15.411 15.4438 15.4765 15.5093 15.542 15.5749 15.7013 15.8278 15.9543 16.0807 16.1978 16.2076 16.2175 16.2274 16.2373 16.2472 16.3839 16.5207 16.6574 16.7941 16.9328 16.9371 16.9414 16.9458 16.9501 16.9544 17.0897 17.225 17.3603 17.4956 17.633 17.6434 17.6538 17.6642 17.6746 17.6849 17.8173 17.9497 18.0821 18.2145 18.349 18.3577 18.3665 18.3753 18.3841 18.3929 18.5302 18.6676 18.8049 18.9423 19.0815 19.0816 19.0817 19.0818 19.0819 19.082 19.2178 19.3537 19.4895 19.6253 19.7528 19.769 19.7853 19.8015 19.8178 19.8341 19.9501 20.0662 20.1822 20.2983 20.4086 20.4482 20.4878 20.5274 20.567 20.6068 20.6962 20.7857 20.8751 20.9646 21.0508 21.1209 21.191 21.2611 21.3311 21.4019 21.458 21.5141 21.5702 21.6263 21.6812 21.7889 21.8966 22.0043 22.112 22.2213 22.2374 22.2535 22.2696 22.2857 22.3017 22.4253 22.5487 22.672 22.7952 22.9132 22.9441 22.975 23.0059 23.0368 23.0679 23.158 23.2481 23.3383 23.4284 23.5158 23.6012 23.6866 23.772 23.8574 23.9439 23.9774 24.011 24.0445 24.0781 24.1113 24.2302 24.3491 24.4679 24.5864 24.7006 24.7309 24.7612 24.7915 24.8218 24.8522 24.9389 25.0257 25.1124 25.1991 25.2837 25.3858 25.488 25.5901 25.6923 25.796 25.8092 25.8224 25.8356 25.8488 25.862 25.9777 26.0931 26.2085 26.3238 26.4357 26.5042 26.5728 26.6414 26.71 26.7793 26.8245 26.8698 26.915 26.9603 27.0051 27.1192 27.2334 27.3473 27.4609 27.5714 27.6181 27.6649 27.7117 27.7584 27.8056 27.8715 27.9374 28.0033 28.0692 28.1342 28.247 28.3599 28.4728 28.5852 28.6947 28.7316 28.7685 28.8054 28.8423 28.8795 28.9543 29.0292 29.1041 29.1789 29.2526 29.3646 29.4766 29.5886 29.7002 29.809 29.8484 29.8877 29.9271 29.9665 30.0061 30.0777 30.1494 30.2211 30.2928 30.3635 30.4749 30.5863 30.6977 30.8085 30.917 30.9717 31.0265 31.0812 31.136 31.1912 31.2469 31.3026 31.3583 31.414 31.4693 31.5804 31.6917 31.8022 31.9127 32.0211 32.1049 32.1887 32.2725 32.3563 32.4411 32.4673 32.4936 32.5199 32.5462 32.5725 32.6836 32.7941 32.9046 33.0151 33.1237 33.2344 33.3451 33.4558 33.5665 33.675 33.6926 33.7103 33.7279 33.7455 33.7632 33.8561 33.949 34.0419 34.1347 34.2264 34.3375 34.4486 34.5595 34.6697 34.7783 34.8558 34.9332 35.0107 35.0882 35.1665 35.1993 35.2322 35.2651 35.2979 35.3307 35.4423 35.5531 35.6639 35.7747 35.8839 35.9952 36.1066 36.2179 36.3291 36.4381 36.4824 36.5267 36.5711 36.6155 36.6601 36.7268 36.7935 36.8602 36.9268 36.993 37.1052 37.217 37.3283 37.4395 37.5494 37.6612 37.7732 37.8851 37.997 38.1069 38.1365 38.1662 38.1958 38.2254 38.2552 38.3375 38.4197 38.502 38.5842 38.6658 38.7788 38.8916 39.0036 39.1156 39.2263 39.3391 39.4519 39.5647 39.6775 39.7884 39.8236 39.8589 39.8941 39.9294 39.9649 40.0424 40.1199 40.1974 40.275 40.352 40.466 40.5797 40.6927 40.8057 40.9176 41.0315 41.1454 41.2594 41.3731 41.4849 41.5485 41.6121 41.6757 41.7394 41.8035 41.8536 41.9038 41.954 42.0041 42.0541 42.1695 42.2838 42.3981 42.5124 42.6258 42.7411 42.8565 42.9719 43.0861 43.1995 43.3148 43.4301 43.5455 43.6609 43.7753 43.7777 43.7802 43.7826 43.7851 43.7876 43.901 44.0145 44.128 44.2415 44.3541 44.4713 44.5883 44.7043 44.8202 44.9353 45.0525 45.1697 45.2869 45.4038 45.5189 45.6027 45.6866 45.7705 45.8544 45.939 45.9722 46.0054 46.0387 46.0719 46.1051 46.2236 46.3416 46.4595 46.5774 46.6945 46.8137 46.933 47.0513 47.1693 47.2864 47.4057 47.5251 47.6444 47.7637 47.8809 47.9607 48.0405 48.1203 48.2 48.2805 48.32 48.3596 48.3991 48.4387 48.4783 48.599 48.7192 48.8393 48.9595 49.0789 49.2004 49.322 49.4424 49.5627 49.6822 49.8038 49.9256 50.0473 50.1686 50.2882 50.3983 50.5085 50.6187 50.7289 50.8403 50.8516 50.8629 50.8743 50.8856 50.8971 51.0198 51.1425 51.2651 51.3878 51.5098 51.6339 51.7576 51.8804 52.0032 52.1253 52.2497 52.3741 52.4986 52.6215 52.7438 52.8684 52.993 53.1176 53.2422 53.3653 53.4228 53.4805 53.5382 53.5959 53.6539 53.7211 53.7885 53.8558 53.9231 53.9904 54.1171 54.2428 54.3685 54.4942 54.6193 54.7467 54.8742 55.0001 55.126 55.2514 55.379 55.5067 55.6344 55.7609 55.8865 56.0143 56.1423 56.2702 56.3981 56.5248 56.5722 56.6198 56.6674 56.715 56.7628 56.8436 56.9245 57.0054 57.0862 57.1669 57.2972 57.4262 57.5553 57.6843 57.8128 57.9436 58.0745 58.2038 58.333 58.4617 58.5928 58.724 58.8552 58.9848 59.1138 59.2451 59.3765 59.508 59.6394 59.769 59.8592 59.9495 60.0398 60.1301 60.2211 60.2623 60.3036 60.3449 60.3862 60.4275 60.5605 60.693 60.8254 60.9579 61.0899 61.2243 61.3578 61.4906 61.6233 61.7556 61.8903 62.0252 62.1591 62.2921 62.4246 62.5596 62.6948 62.8299 62.9641 63.097 63.2323 63.3678 63.5032 63.6386 63.7727 63.8371 63.9015 63.9659 64.0303 64.0951 64.1665 64.2381 64.3097 64.3813 64.4529 64.5906 64.7274 64.8642 65.0011 65.1376 65.2766 65.4147 65.5518 65.689 65.8259 65.9652 66.1047 66.243 66.3806 66.5178 66.6574 66.7973 66.9371 67.0757 67.2132 67.3532 67.4934 67.6336 67.7738 67.9122 68.0236 68.135 68.2465 68.358 68.4704 68.4993 68.5283 68.5573 68.5863 68.6154 68.7574 68.8993 69.0411 69.1829 69.3244 69.4685 69.6108 69.753 69.8952 70.0371 70.1816 70.326 70.4686 70.6111 70.7534 70.8982 71.0432 71.1877 71.3307 71.4733 71.6185 71.7639 71.9093 72.0538 72.1969 72.3425 72.4882 72.634 72.7798 72.924 73.0303 73.1367 73.2431 73.3495 73.4567 73.4964 73.5361 73.5758 73.6156 73.6555 73.8032 73.9506 74.098 74.2454 74.3925 74.5423 74.6901 74.8379 74.9857 75.1332 75.2834 75.4332 75.5814 75.7296 75.8775 76.0281 76.1789 76.3286 76.4772 76.6255 76.7765 76.9277 77.0789 77.2285 77.3772 77.5286 77.6803 77.8319 77.9835 78.1326 78.2844 78.4365 78.5885 78.7406 78.8917 78.955 79.0186 79.0821 79.1456 79.2096 79.2987 79.388 79.4773 79.5666 79.6559 79.8104 79.9641 80.1178 80.2715 80.425 80.5813 80.7357 80.8898 81.044 81.1979 81.3547 81.5111 81.6657 81.8203 81.9746 82.1318 82.2892 82.4453 82.6003 82.7551 82.9128 83.0707 83.2286 83.3843 83.5395 83.6977 83.856 84.0144 84.1721 84.3278 84.4864 84.6453 84.8041 84.9629 85.1221 85.2755 85.4288 85.582 85.7351 85.849 85.8601 85.8713 85.8825 85.8936 85.9047 86.0553 86.2046 86.3522 86.4981 86.7497 87.0558 87.3639 87.6733 87.9836 88.5031 88.5114 88.5197 88.5277 88.5354 88.5431 88.9395 89.3366 89.7343 90.1323 90.4947 90.5782 90.6618 90.7453 90.8288 90.9211 91.2296 91.5383 91.847 92.1557 92.4627 92.7306 92.9987 93.2668 93.5349 93.8153 93.9439 94.0727 94.2015 94.3303 94.4591 94.8656 95.2723 95.6789 96.0853 96.4897 96.5751 96.6607 96.7464 96.832 96.9187 97.2462 97.5739 97.9016 98.2293 98.5558 98.8921 99.2285 99.5649 99.9014 100.254 100.336 100.417 100.499 100.58 100.662 101.091 101.521 101.95 102.379 102.806 103.023 103.239 103.455 103.672 103.897 104.116 104.336 104.555 104.775 104.994 105.441 105.888 106.336 106.783 107.227 107.371 107.515 107.658 107.802 107.95 108.262 108.573 108.885 109.197 109.507 109.974 110.442 110.909 111.376 111.84 111.992 112.144 112.296 112.449 112.607 112.931 113.255 113.579 113.904 114.227 114.716 115.207 115.697 116.187 116.674 116.981 117.288 117.596 117.903 118.241 118.43 118.619 118.809 118.998 119.187 119.703 120.22 120.737 121.254 121.768 122.301 122.834 123.367 123.9 124.431 124.703 124.975 125.248 125.521 125.828 126.098 126.368 126.638 126.908 127.177 127.744 128.313 128.882 129.451 130.018 130.606 131.196 131.786 132.377 132.966 133.58 134.193 134.807 135.421 136.036 136.676 137.318 137.959 138.6 139.241 139.716 140.192 140.668 141.144 141.973 142.098 142.223 142.348 142.473 142.599 143.304 144.01 144.717 145.423 146.13 146.873 147.62 148.368 149.115 149.863 150.652 151.446 152.24 153.035 153.83 154.288 154.749 155.21 155.672 155.86 156.3 156.741 157.183 157.624 158.068 158.976 159.884 160.793 161.701 162.621 163.601 164.583 165.564 166.55 167.55 168.616 169.683 170.752 171.836 172.924 174.092 175.261 176.446 177.634 178.825 180.11 181.409 182.714 184.019 185.327 186.061 186.804 187.547 188.29 189.041 189.709 190.378 191.046 191.715 192.39 193.823 195.253 196.683 198.115 199.546 201.033 202.524 204.015 205.508 206.996 207.828 208.619 209.408 210.196 210.941
3.92898 3.99949 4.07 4.1405 4.21101 4.28166 4.39188 4.50209 4.61172 4.72135 4.83132 4.94182 5.05233 5.16285 5.27302 5.38334 5.48859 5.59387 5.69914 5.80442 5.89073 5.90017 5.90962 5.91907 5.92853 5.93801 6.04951 6.16095 6.27239 6.38383 6.49575 6.60812 6.7205 6.8325 6.94434 7.05673 7.16951 7.28231 7.39511 7.50791 7.62122 7.62764 7.63409 7.64054 7.64699 7.65339 7.76055 7.86773 7.97491 8.0821 8.18987 8.30448 8.41911 8.53372 8.64787 8.76274 8.82761 8.8925 8.95739 9.02227 9.08249 9.13404 9.18559 9.23716 9.28872 9.34045 9.45711 9.57372 9.68996 9.8062 9.92329 10.0035 10.0838 10.164 10.2443 10.3183 10.3569 10.3956 10.4343 10.473 10.5118 10.6307 10.7496 10.8682 10.9868 11.1064 11.1708 11.2352 11.2996 11.364 11.4248 11.4813 11.5379 11.5944 11.651 11.7078 11.8293 11.9509 12.0725 12.1938 12.3162 12.3406 12.3649 12.3893 12.4137 12.4376 12.5365 12.6353 12.7342 12.8331 12.9328 13.0232 13.1135 13.2039 13.2943 13.3786 13.4144 13.4502 13.4861 13.5219 13.5579 13.6845 13.8111 13.9377 14.0642 14.1921 14.2062 14.2204 14.2346 14.2487 14.2628 14.3773 14.4918 14.6063 14.7209 14.8367 14.8897 14.9428 14.9959 15.049 15.1003 15.1786 15.2568 15.3351 15.4134 15.4923 15.5745 15.6566 15.7388 15.8209 15.899 15.9511 16.0032 16.0554 16.1075 16.1599 16.2622 16.3645 16.4668 16.5691 16.6654 16.7004 16.7354 16.7704 16.8054 16.8405 16.9547 17.0689 17.1831 17.2973 17.4044 17.4306 17.4567 17.4828 17.509 17.5352 17.6535 17.7719 17.8902 18.0085 18.1197 18.1448 18.1699 18.1951 18.2202 18.2454 18.3605 18.4755 18.5905 18.7056 18.8142 18.8458 18.8775 18.9091 18.9408 18.9725 19.0771 19.1817 19.2863 19.3909 19.4905 19.536 19.5814 19.6269 19.6724 19.7181 19.8053 19.8925 19.9797 20.0669 20.1509 20.2173 20.2838 20.3503 20.4167 20.4838 20.5468 20.6098 20.6728 20.7358 20.7972 20.8918 20.9864 21.0809 21.1755 21.2714 21.3034 21.3355 21.3676 21.3998 21.4315 21.5575 21.6835 21.8095 21.9355 22.0554 22.0609 22.0663 22.0718 22.0772 22.0827 22.201 22.3194 22.4377 22.556 22.6693 22.7195 22.7698 22.82 22.8702 22.9208 22.9918 23.0628 23.1339 23.2049 23.2742 23.3765 23.4789 23.5812 23.6836 23.7874 23.8043 23.8212 23.8381 23.855 23.8718 23.9911 24.1102 24.2292 24.3482 24.4627 24.5073 24.5519 24.5965 24.6411 24.686 24.7585 24.831 24.9035 24.9761 25.0471 25.161 25.275 25.3889 25.5029 25.6188 25.6204 25.6219 25.6235 25.6251 25.6267 25.7423 25.858 25.9736 26.0892 26.2012 26.2789 26.3566 26.4342 26.5119 26.5905 26.6267 26.663 26.6992 26.7355 26.7714 26.8857 27 27.1138 27.2276 27.3381 27.3913 27.4444 27.4975 27.5507 27.6043 27.6638 27.7234 27.783 27.8425 27.9013 28.0142 28.1272 28.2401 28.3525 28.4621 28.5025 28.5429 28.5834 28.6238 28.6645 28.7358 28.8071 28.8785 28.9498 29.02 29.132 29.244 29.356 29.4675 29.5764 29.6163 29.6562 29.6961 29.7361 29.7762 29.8473 29.9184 29.9895 30.0605 30.1307 30.242 30.3534 30.4648 30.5755 30.6839 30.736 30.7882 30.8403 30.8925 30.945 31.0033 31.0616 31.1199 31.1782 31.2359 31.347 31.4581 31.5686 31.679 31.7873 31.8651 31.9429 32.0207 32.0985 32.1771 32.2093 32.2415 32.2738 32.306 32.3381 32.4492 32.5596 32.67 32.7804 32.8888 32.9993 33.1099 33.2204 33.331 33.4395 33.4475 33.4554 33.4634 33.4714 33.4795 33.5819 33.6844 33.7868 33.8893 33.9902 34.1011 34.212 34.3229 34.433 34.5414 34.6052 34.6691 34.7329 34.7968 34.8612 34.9075 34.954 35.0004 35.0468 35.0929 35.2043 35.3152 35.4258 35.5363 35.6453 35.7564 35.8675 35.9785 36.0896 36.1986 36.2249 36.2513 36.2777 36.3041 36.3306 36.4151 36.4997 36.5843 36.6689 36.7527 36.8646 36.9765 37.0876 37.1985 37.3081 37.4197 37.5313 37.6429 37.7546 37.8647 37.8715 37.8782 37.885 37.8918 37.8986 38.0036 38.1087 38.2138 38.3188 38.4227 38.5353 38.648 38.7601 38.8718 38.9822 39.0946 39.2071 39.3196 39.4321 39.5432 39.5502 39.5571 39.5641 39.5711 39.5781 39.6839 39.7896 39.8954 40.0012 40.106 40.2196 40.3334 40.4463 40.5589 40.6705 40.784 40.8976 41.0112 41.1249 41.2368 41.266 41.2953 41.3245 41.3538 41.3832 41.4677 41.5522 41.6367 41.7212 41.8051 41.9202 42.0348 42.1488 42.2627 42.3757 42.4907 42.6057 42.7208 42.8354 42.9483 43.0245 43.1007 43.1769 43.2531 43.3299 43.3686 43.4072 43.4459 43.4846 43.5233 43.6396 43.7552 43.8708 43.9864 44.1011 44.2178 44.3346 44.4509 44.5665 44.6812 44.798 44.9148 45.0316 45.1484 45.2638 45.2985 45.3333 45.3681 45.4029 45.4378 45.5201 45.6025 45.6849 45.7672 45.8492 45.9679 46.0858 46.2033 46.3208 46.4375 46.5563 46.6751 46.794 46.9116 47.0283 47.1472 47.2661 47.3851 47.504 47.6218 47.6433 47.6649 47.6865 47.7081 47.7298 47.8275 47.9254 48.0232 48.1211 48.2184 48.3394 48.4596 48.5793 48.699 48.818 48.9391 49.0603 49.1814 49.3012 49.4203 49.5415 49.6628 49.7841 49.9054 50.0253 50.0668 50.1084 50.15 50.1916 50.2334 50.3134 50.3935 50.4737 50.5538 50.6337 50.7572 50.8794 51.0016 51.1238 51.2454 51.3691 51.4929 51.6159 51.7383 51.86 51.9839 52.1079 52.2318 52.3556 52.4775 52.5778 52.6783 52.7787 52.8791 52.9804 53.0039 53.0274 53.051 53.0746 53.0982 53.2236 53.3486 53.4737 53.5987 53.7232 53.8499 53.9761 54.1013 54.2265 54.3512 54.4781 54.6051 54.732 54.8574 54.9823 55.1094 55.2367 55.3639 55.4911 55.6166 55.6955 55.7745 55.8535 55.9325 56.012 56.0605 56.1089 56.1574 56.2059 56.2544 56.3834 56.5118 56.6401 56.7684 56.8962 57.0263 57.156 57.2846 57.4131 57.5411 57.6715 57.8019 57.9322 58.0609 58.1892 58.3198 58.4504 58.5811 58.7118 58.8404 58.9476 59.055 59.1624 59.2698 59.3781 59.4014 59.4247 59.4481 59.4714 59.4948 59.6268 59.7585 59.8902 60.0219 60.1531 60.2867 60.4193 60.5512 60.6832 60.8146 60.9486 61.0826 61.2156 61.3478 61.4795 61.6138 61.7481 61.8824 62.0158 62.1478 62.2823 62.4169 62.5516 62.6862 62.8194 62.8835 62.9478 63.012 63.0762 63.1408 63.2116 63.2826 63.3535 63.4244 63.4954 63.6323 63.7683 63.9043 64.0403 64.176 64.3141 64.4514 64.5878 64.7241 64.8602 64.9986 65.1372 65.2749 65.4116 65.548 65.6868 65.8257 65.9647 66.1026 66.2394 66.3785 66.5179 66.6572 66.7965 66.9344 67.0232 67.1122 67.2012 67.2902 67.3798 67.4305 67.4813 67.5322 67.583 67.634 67.7755 67.9164 68.0574 68.1984 68.3391 68.4823 68.6241 68.7654 68.9067 69.0478 69.1914 69.3351 69.477 69.6187 69.7601 69.9041 70.0482 70.1923 70.3344 70.4762 70.6205 70.765 70.9095 71.0537 71.1958 71.3405 71.4854 71.6303 71.7752 71.9191 71.974 72.0291 72.0842 72.1392 72.1946 72.2851 72.3757 72.4663 72.5569 72.6475 72.795 72.9415 73.088 73.2345 73.3807 73.5295 73.6771 73.824 73.9709 74.1175 74.2667 74.4162 74.5637 74.7109 74.8579 75.0076 75.1574 75.307 75.4547 75.6021 75.7522 75.9024 76.0527 76.2022 76.3499 76.5004 76.6511 76.8018 76.9524 77.1015 77.2258 77.3504 77.4749 77.5994 77.7251 77.7514 77.7777 77.8041 77.8306 77.8571 78.0096 78.1619 78.3142 78.4666 78.6186 78.7731 78.9259 79.0786 79.2314 79.3839 79.5392 79.6937 79.8469 80.0001 80.153 80.3087 80.4647 80.6189 80.7725 80.9259 81.0821 81.2385 81.3947 81.5488 81.7026 81.8593 82.0161 82.173 82.3289 82.4832 82.6403 82.7976 82.955 83.1123 83.2676 83.4252 83.583 83.7408 83.8986 84.0559 84.0793 84.1028 84.1265 84.1501 84.1738 84.309 84.4444 84.5798 84.7152 84.8505 85.0113 85.1709 85.3306 85.4902 85.6518 85.8083 85.9629 86.1169 86.271 86.4408 86.5932 86.7442 86.8918 87.0376 87.2893 87.5113 87.734 87.9577 88.1821 88.3551 88.5023 88.6487 88.7952 88.9418 89.1211 89.3816 89.6425 89.9037 90.1651 90.4102 90.6215 90.8329 91.0444 91.2559 91.5227 91.6965 91.8705 92.0445 92.2185 92.392 92.7924 93.193 93.5935 93.9941 94.3916 94.3993 94.407 94.4148 94.4226 94.4304 94.8291 95.2279 95.6268 96.0257 96.4227 96.6494 96.8763 97.1031 97.33 97.5635 97.749 97.9347 98.1204 98.3061 98.4914 98.9134 99.3356 99.7577 100.18 100.599 100.665 100.731 100.798 100.864 100.931 101.294 101.657 102.021 102.384 102.746 103.115 103.483 103.852 104.221 104.614 104.678 104.743 104.808 104.872 104.937 105.385 105.832 106.279 106.727 107.172 107.48 107.788 108.096 108.404 108.733 108.877 109.022 109.166 109.311 109.456 109.923 110.39 110.858 111.326 111.79 112.123 112.456 112.79 113.123 113.485 113.624 113.764 113.903 114.042 114.181 114.671 115.162 115.653 116.143 116.631 117.135 117.639 118.143 118.647 119.149 119.173 119.199 119.224 119.249 119.274 119.766 120.259 120.751 121.243 121.733 122.266 122.799 123.332 123.866 124.398 124.934 125.471 126.008 126.546 127.151 127.166 127.181 127.196 127.211 127.226 127.78 128.334 128.889 129.443 129.995 130.584 131.174 131.765 132.357 132.946 133.56 134.174 134.788 135.404 136.019 136.66 137.301 137.942 138.584 139.228 139.9 140.572 141.244 141.916 142.59 143.297 144.004 144.712 145.419 146.127 146.874 147.622 148.369 149.116 149.865 150.658 151.451 152.245 153.038 153.835 154.681 155.527 156.374 157.22 158.075 158.982 159.891 160.799 161.708 162.632 163.612 164.593 165.574 166.565 167.565 168.631 169.698 170.771 171.855 172.943 174.11 175.281 176.469 177.656 178.847 180.131 181.435 182.739 184.044 185.352 185.704 186.061 186.418 186.775 187.134 188.186 189.239 190.291 191.344 192.405 193.837 195.267 196.697 198.13 199.561 201.048 202.538 204.029 205.522 207.01 207.842 208.632 209.422 210.21 210.955