# vtk DataFile Version 2.0
track0
ASCII
DATASET POLYDATA
POINTS 12130 float
-0.0205 0.001 1e-05
-0.0204972 0.0011 1e-05
-0.0204942 0.00119999 1e-05
-0.0204909 0.00129998 1e-05
-0.0204874 0.00139995 1e-05
-0.0204836 0.0015 1e-05
-0.0204796 0.0016 1e-05
-0.0204753 0.00169999 1e-05
-0.0204708 0.00179997 1e-05
-0.0204659 0.00189993 1e-05
-0.0204609 0.002 1e-05
-0.0204555 0.0021 1e-05
-0.0204499 0.00219999 1e-05
-0.020444 0.00229996 1e-05
-0.0204379 0.00239991 1e-05
-0.0204315 0.0025 1e-05
-0.0204249 0.0026 1e-05
-0.0204179 0.00269998 1e-05
-0.0204107 0.00279995 1e-05
-0.0204033 0.00289989 1e-05
-0.0203956 0.003 1e-05
-0.0203876 0.0031 1e-05
-0.0203793 0.00319998 1e-05
-0.0203708 0.00329993 1e-05
-0.020362 0.00339987 1e-05
-0.0203529 0.0035 1e-05
-0.0203436 0.0036 1e-05
-0.020334 0.00369997 1e-05
-0.0203241 0.00379992 1e-05
-0.020314 0.00389984 1e-05
-0.0203036 0.004 1e-05
-0.0202999 0.00403405 1e-05
-0.0202963 0.00406809 1e-05
-0.0202926 0.00410212 1e-05
-0.0202888 0.00413616 1e-05
-0.0202854 0.00416736 1e-05
-0.020278 0.00423389 1e-05
-0.0202705 0.0043004 1e-05
-0.0202628 0.0043669 1e-05
-0.020255 0.00443339 1e-05
-0.0202471 0.0045 1e-05
-0.0202351 0.0046 1e-05
-0.0202227 0.00469997 1e-05
-0.0202101 0.0047999 1e-05
-0.0201973 0.0048998 1e-05
-0.0201841 0.005 1e-05
-0.0201706 0.0051 1e-05
-0.0201569 0.00519996 1e-05
-0.0201429 0.00529989 1e-05
-0.0201287 0.00539977 1e-05
-0.0201141 0.0055 1e-05
-0.0200992 0.0056 1e-05
-0.0200841 0.00569996 1e-05
-0.0200687 0.00579987 1e-05
-0.020053 0.00589975 1e-05
-0.020037 0.006 1e-05
-0.0200341 0.00601805 1e-05
-0.0200311 0.0060361 1e-05
-0.0200282 0.00605415 1e-05
-0.0200252 0.0060722 1e-05
-0.0200223 0.00608969 1e-05
-0.0200088 0.00617175 1e-05
-0.019995 0.00625378 1e-05
-0.0199811 0.00633578 1e-05
-0.0199669 0.00641775 1e-05
-0.0199526 0.0065 1e-05
-0.0199349 0.0066 1e-05
-0.0199169 0.00669995 1e-05
-0.0198986 0.00679985 1e-05
-0.01988 0.00689969 1e-05
-0.0198611 0.007 1e-05
-0.0198419 0.0071 1e-05
-0.0198224 0.00719994 1e-05
-0.0198027 0.00729983 1e-05
-0.0197826 0.00739966 1e-05
-0.0197622 0.0075 1e-05
-0.019762 0.00750079 1e-05
-0.0197619 0.00750158 1e-05
-0.0197617 0.00750237 1e-05
-0.0197615 0.00750317 1e-05
-0.0197614 0.00750396 1e-05
-0.0197408 0.00760317 1e-05
-0.01972 0.00770231 1e-05
-0.0196989 0.0078014 1e-05
-0.0196776 0.00790043 1e-05
-0.0196558 0.008 1e-05
-0.0196336 0.0081 1e-05
-0.0196111 0.00819993 1e-05
-0.0195883 0.0082998 1e-05
-0.0195653 0.0083996 1e-05
-0.0195417 0.0085 1e-05
-0.0195339 0.00853306 1e-05
-0.019526 0.00856611 1e-05
-0.0195181 0.00859915 1e-05
-0.0195102 0.00863219 1e-05
-0.0195025 0.00866387 1e-05
-0.0194862 0.0087311 1e-05
-0.0194698 0.00879829 1e-05
-0.0194532 0.00886545 1e-05
-0.0194365 0.00893258 1e-05
-0.0194196 0.009 1e-05
-0.0193943 0.0091 1e-05
-0.0193687 0.00919992 1e-05
-0.0193427 0.00929977 1e-05
-0.0193165 0.00939954 1e-05
-0.0192898 0.0095 1e-05
-0.019281 0.00953275 1e-05
-0.0192722 0.00956549 1e-05
-0.0192633 0.00959823 1e-05
-0.0192544 0.00963095 1e-05
-0.0192457 0.00966248 1e-05
-0.0192272 0.00972998 1e-05
-0.0192085 0.00979745 1e-05
-0.0191897 0.00986488 1e-05
-0.0191708 0.00993226 1e-05
-0.0191516 0.01 1e-05
-0.019123 0.0101 1e-05
-0.0190942 0.0101999 1e-05
-0.019065 0.0102997 1e-05
-0.0190355 0.0103995 1e-05
-0.0190055 0.0105 1e-05
-0.0190026 0.0105095 1e-05
-0.0189997 0.0105191 1e-05
-0.0189968 0.0105286 1e-05
-0.0189939 0.0105382 1e-05
-0.018991 0.0105476 1e-05
-0.0189635 0.0106381 1e-05
-0.0189358 0.0107285 1e-05
-0.0189078 0.0108188 1e-05
-0.0188795 0.0109091 1e-05
-0.0188507 0.011 1e-05
-0.0188283 0.0110703 1e-05
-0.0188056 0.0111406 1e-05
-0.0187829 0.0112109 1e-05
-0.0187599 0.011281 1e-05
-0.0187384 0.0113464 1e-05
-0.0187282 0.0113771 1e-05
-0.018718 0.0114079 1e-05
-0.0187077 0.0114385 1e-05
-0.0186975 0.0114692 1e-05
-0.0186871 0.0115 1e-05
-0.0186534 0.0116 1e-05
-0.0186194 0.0116999 1e-05
-0.0185851 0.0117997 1e-05
-0.0185504 0.0118993 1e-05
-0.018515 0.012 1e-05
-0.0185096 0.0120154 1e-05
-0.0185041 0.0120307 1e-05
-0.0184987 0.0120461 1e-05
-0.0184932 0.0120614 1e-05
-0.0184878 0.0120766 1e-05
-0.0184575 0.0121613 1e-05
-0.0184269 0.0122459 1e-05
-0.0183962 0.0123304 1e-05
-0.0183652 0.0124148 1e-05
-0.0183336 0.0125 1e-05
-0.0183147 0.0125506 1e-05
-0.0182958 0.0126011 1e-05
-0.0182767 0.0126517 1e-05
-0.0182576 0.0127022 1e-05
-0.0182392 0.0127504 1e-05
-0.0182201 0.0128003 1e-05
-0.0182009 0.0128502 1e-05
-0.0181816 0.0129001 1e-05
-0.0181623 0.0129499 1e-05
-0.0181427 0.013 1e-05
-0.0181127 0.0130765 1e-05
-0.0180825 0.013153 1e-05
-0.018052 0.0132293 1e-05
-0.0180214 0.0133056 1e-05
-0.0179926 0.013377 1e-05
-0.0179826 0.0134016 1e-05
-0.0179725 0.0134262 1e-05
-0.0179625 0.0134508 1e-05
-0.0179524 0.0134753 1e-05
-0.0179423 0.0135 1e-05
-0.0179034 0.0135944 1e-05
-0.0178643 0.0136886 1e-05
-0.0178248 0.0137828 1e-05
-0.017785 0.0138768 1e-05
-0.017748 0.0139636 1e-05
-0.0177449 0.0139709 1e-05
-0.0177417 0.0139782 1e-05
-0.0177386 0.0139855 1e-05
-0.0177355 0.0139927 1e-05
-0.0177323 0.014 1e-05
-0.0176892 0.0141 1e-05
-0.0176456 0.0141999 1e-05
-0.0176018 0.0142996 1e-05
-0.0175576 0.0143991 1e-05
-0.0175124 0.0145 1e-05
-0.017511 0.0145031 1e-05
-0.0175096 0.0145062 1e-05
-0.0175082 0.0145094 1e-05
-0.0175068 0.0145125 1e-05
-0.0175053 0.0145156 1e-05
-0.0174615 0.0146125 1e-05
-0.0174173 0.0147092 1e-05
-0.0173728 0.0148058 1e-05
-0.0173279 0.0149022 1e-05
-0.0172821 0.015 1e-05
-0.0172786 0.0150073 1e-05
-0.0172751 0.0150147 1e-05
-0.0172716 0.015022 1e-05
-0.0172681 0.0150294 1e-05
-0.0172647 0.0150367 1e-05
-0.0172207 0.0151294 1e-05
-0.0171764 0.0152219 1e-05
-0.0171318 0.0153142 1e-05
-0.0170869 0.0154065 1e-05
-0.017041 0.0155 1e-05
-0.017038 0.0155061 1e-05
-0.0170349 0.0155122 1e-05
-0.0170319 0.0155182 1e-05
-0.0170289 0.0155243 1e-05
-0.0170259 0.0155304 1e-05
-0.0169793 0.0156243 1e-05
-0.0169324 0.0157181 1e-05
-0.0168851 0.0158117 1e-05
-0.0168376 0.0159051 1e-05
-0.0167891 0.0159997 1e-05
-0.0167891 0.0159997 1e-05
-0.016789 0.0159998 1e-05
-0.016789 0.0159999 1e-05
-0.016789 0.0159999 1e-05
-0.0167889 0.016 1e-05
-0.016742 0.0160908 1e-05
-0.0166947 0.0161814 1e-05
-0.0166472 0.0162718 1e-05
-0.0165994 0.0163621 1e-05
-0.0165542 0.0164468 1e-05
-0.0165485 0.0164574 1e-05
-0.0165427 0.0164681 1e-05
-0.016537 0.0164787 1e-05
-0.0165313 0.0164893 1e-05
-0.0165255 0.0165 1e-05
-0.0164846 0.0165756 1e-05
-0.0164436 0.0166512 1e-05
-0.0164023 0.0167266 1e-05
-0.0163608 0.0168019 1e-05
-0.0163212 0.0168734 1e-05
-0.016307 0.0168987 1e-05
-0.0162929 0.016924 1e-05
-0.0162787 0.0169493 1e-05
-0.0162645 0.0169746 1e-05
-0.0162502 0.017 1e-05
-0.0162182 0.0170568 1e-05
-0.016186 0.0171136 1e-05
-0.0161538 0.0171702 1e-05
-0.0161214 0.0172269 1e-05
-0.01609 0.0172813 1e-05
-0.0160648 0.0173251 1e-05
-0.0160394 0.0173688 1e-05
-0.016014 0.0174124 1e-05
-0.0159886 0.017456 1e-05
-0.0159628 0.0175 1e-05
-0.0159424 0.0175347 1e-05
-0.0159219 0.0175693 1e-05
-0.0159014 0.017604 1e-05
-0.0158809 0.0176386 1e-05
-0.0158607 0.0176724 1e-05
-0.0158216 0.0177379 1e-05
-0.0157824 0.0178034 1e-05
-0.0157429 0.0178687 1e-05
-0.0157033 0.0179339 1e-05
-0.015663 0.018 1e-05
-0.0156571 0.0180097 1e-05
-0.0156511 0.0180194 1e-05
-0.0156452 0.018029 1e-05
-0.0156392 0.0180387 1e-05
-0.0156333 0.0180483 1e-05
-0.0155882 0.0181215 1e-05
-0.0155429 0.0181947 1e-05
-0.0154974 0.0182676 1e-05
-0.0154516 0.0183405 1e-05
-0.0154077 0.0184101 1e-05
-0.0153963 0.0184281 1e-05
-0.0153849 0.018446 1e-05
-0.0153734 0.018464 1e-05
-0.015362 0.018482 1e-05
-0.0153505 0.0185 1e-05
-0.0153171 0.0185521 1e-05
-0.0152837 0.0186041 1e-05
-0.0152502 0.018656 1e-05
-0.0152166 0.0187079 1e-05
-0.0151839 0.0187581 1e-05
-0.0151523 0.0188065 1e-05
-0.0151206 0.0188548 1e-05
-0.0150888 0.0189031 1e-05
-0.015057 0.0189513 1e-05
-0.0150246 0.019 1e-05
-0.0150121 0.0190188 1e-05
-0.0149995 0.0190376 1e-05
-0.014987 0.0190564 1e-05
-0.0149744 0.0190752 1e-05
-0.0149619 0.0190937 1e-05
-0.0149179 0.0191593 1e-05
-0.0148737 0.0192247 1e-05
-0.0148293 0.0192901 1e-05
-0.0147848 0.0193553 1e-05
-0.0147417 0.0194181 1e-05
-0.0147304 0.0194345 1e-05
-0.0147191 0.0194508 1e-05
-0.0147078 0.0194672 1e-05
-0.0146965 0.0194836 1e-05
-0.0146851 0.0195 1e-05
-0.0146527 0.0195466 1e-05
-0.0146203 0.0195931 1e-05
-0.0145878 0.0196396 1e-05
-0.0145552 0.019686 1e-05
-0.0145233 0.0197312 1e-05
-0.0144853 0.019785 1e-05
-0.0144471 0.0198387 1e-05
-0.0144089 0.0198923 1e-05
-0.0143705 0.0199458 1e-05
-0.0143315 0.02 1e-05
-0.0143265 0.0200069 1e-05
-0.0143216 0.0200137 1e-05
-0.0143166 0.0200206 1e-05
-0.0143116 0.0200275 1e-05
-0.0143067 0.0200343 1e-05
-0.0142637 0.0200936 1e-05
-0.0142206 0.0201528 1e-05
-0.0141773 0.0202119 1e-05
-0.0141339 0.0202708 1e-05
-0.0140917 0.0203279 1e-05
-0.0140662 0.0203623 1e-05
-0.0140406 0.0203967 1e-05
-0.014015 0.0204311 1e-05
-0.0139893 0.0204654 1e-05
-0.0139633 0.0205 1e-05
-0.0139463 0.0205225 1e-05
-0.0139294 0.020545 1e-05
-0.0139124 0.0205675 1e-05
-0.0138954 0.0205899 1e-05
-0.0138786 0.0206121 1e-05
-0.0138363 0.0206678 1e-05
-0.0137939 0.0207234 1e-05
-0.0137513 0.0207789 1e-05
-0.0137087 0.0208343 1e-05
-0.0136671 0.0208881 1e-05
-0.0136497 0.0209105 1e-05
-0.0136323 0.0209328 1e-05
-0.0136149 0.0209552 1e-05
-0.0135975 0.0209775 1e-05
-0.0135799 0.021 1e-05
-0.0135554 0.0210313 1e-05
-0.0135308 0.0210626 1e-05
-0.0135062 0.0210938 1e-05
-0.0134816 0.021125 1e-05
-0.0134573 0.0211557 1e-05
-0.0134157 0.0212082 1e-05
-0.013374 0.0212605 1e-05
-0.0133322 0.0213128 1e-05
-0.0132902 0.0213651 1e-05
-0.0132493 0.0214159 1e-05
-0.0132356 0.0214327 1e-05
-0.013222 0.0214495 1e-05
-0.0132084 0.0214663 1e-05
-0.0131947 0.0214831 1e-05
-0.013181 0.0215 1e-05
-0.0131533 0.0215339 1e-05
-0.0131257 0.0215677 1e-05
-0.013098 0.0216016 1e-05
-0.0130702 0.0216353 1e-05
-0.0130429 0.0216685 1e-05
-0.0130019 0.0217181 1e-05
-0.0129609 0.0217676 1e-05
-0.0129197 0.021817 1e-05
-0.0128785 0.0218664 1e-05
-0.0128381 0.0219145 1e-05
-0.0128237 0.0219316 1e-05
-0.0128093 0.0219487 1e-05
-0.0127949 0.0219658 1e-05
[...]
POINT_DATA 12130
 FIELD attributes 1
U 3 12130 float
-0.00850924 	-0.307618 	0 -0.00932415 	-0.308542 	0 -0.0101368 	-0.309433 	0 -0.0109495 	-0.310324 	0 -0.0117621 	-0.311212 	0 -0.0125754 	-0.312054 	0 -0.013393 	-0.312023 	0 -0.0142091 	-0.31199 	0 -0.0150243 	-0.311955 	0 -0.0158395 	-0.311919 	0 -0.0166556 	-0.31188 	0 -0.0174765 	-0.311838 	0 -0.0182971 	-0.311795 	0 -0.0191156 	-0.311748 	0 -0.0199339 	-0.311699 	0 -0.0207535 	-0.311649 	0 -0.0215783 	-0.311595 	0 -0.0224031 	-0.31154 	0 -0.0232268 	-0.311481 	0 -0.0240489 	-0.311421 	0 -0.0248726 	-0.311358 	0 -0.0257015 	-0.311291 	0 -0.0265305 	-0.311223 	0 -0.0273594 	-0.311152 	0 -0.0281869 	-0.311079 	0 -0.029015 	-0.311003 	0 -0.0298486 	-0.310923 	0 -0.0306821 	-0.310841 	0 -0.0315155 	-0.310757 	0 -0.0323488 	-0.310671 	0 -0.0331831 	-0.310582 	0 -0.0334684 	-0.31055 	0 -0.0337538 	-0.310517 	0 -0.0340392 	-0.310485 	0 -0.0343246 	-0.310452 	0 -0.0345863 	-0.310421 	0 -0.0351443 	-0.310356 	0 -0.0357024 	-0.31029 	0 -0.0362605 	-0.310223 	0 -0.0368185 	-0.310155 	0 -0.0373778 	-0.310087 	0 -0.0382237 	-0.309978 	0 -0.0390673 	-0.309866 	0 -0.0399108 	-0.309753 	0 -0.0407541 	-0.309637 	0 -0.0416002 	-0.309519 	0 -0.0424512 	-0.309396 	0 -0.0433022 	-0.30927 	0 -0.044152 	-0.309142 	0 -0.0450002 	-0.309011 	0 -0.0458517 	-0.308877 	0 -0.0467077 	-0.308738 	0 -0.0475637 	-0.308596 	0 -0.0484195 	-0.308453 	0 -0.0492751 	-0.308308 	0 -0.0501333 	-0.308159 	0 -0.0502886 	-0.308131 	0 -0.0504441 	-0.308103 	0 -0.0505995 	-0.308075 	0 -0.050755 	-0.308047 	0 -0.0509058 	-0.308019 	0 -0.0516132 	-0.30789 	0 -0.0523205 	-0.307759 	0 -0.0530276 	-0.307627 	0 -0.0537346 	-0.307494 	0 -0.0544443 	-0.307359 	0 -0.0553135 	-0.307189 	0 -0.0561826 	-0.307017 	0 -0.0570494 	-0.306841 	0 -0.0579159 	-0.306664 	0 -0.0587867 	-0.306483 	0 -0.0596612 	-0.306297 	0 -0.0605356 	-0.306109 	0 -0.0614096 	-0.305919 	0 -0.0622835 	-0.305727 	0 -0.0631619 	-0.305532 	0 -0.0631689 	-0.30553 	0 -0.0631758 	-0.305529 	0 -0.0631828 	-0.305527 	0 -0.0631898 	-0.305525 	0 -0.0631967 	-0.305524 	0 -0.0640706 	-0.305323 	0 -0.0649442 	-0.30512 	0 -0.0658176 	-0.304915 	0 -0.0666907 	-0.304709 	0 -0.067569 	-0.304499 	0 -0.0684574 	-0.304283 	0 -0.0693456 	-0.304064 	0 -0.0702335 	-0.303844 	0 -0.0711204 	-0.303621 	0 -0.0720119 	-0.303394 	0 -0.0723075 	-0.303317 	0 -0.0726032 	-0.30324 	0 -0.0728988 	-0.303163 	0 -0.0731945 	-0.303085 	0 -0.0734782 	-0.303011 	0 -0.0740803 	-0.302852 	0 -0.0746824 	-0.302693 	0 -0.0752843 	-0.302533 	0 -0.075886 	-0.302372 	0 -0.0764906 	-0.302209 	0 -0.0773938 	-0.301963 	0 -0.0782968 	-0.301715 	0 -0.0791993 	-0.301465 	0 -0.0801002 	-0.301212 	0 -0.0810076 	-0.300954 	0 -0.0813055 	-0.300869 	0 -0.0816035 	-0.300783 	0 -0.0819015 	-0.300697 	0 -0.0821994 	-0.300611 	0 -0.0824866 	-0.300527 	0 -0.0831016 	-0.300348 	0 -0.0837166 	-0.300169 	0 -0.0843314 	-0.299988 	0 -0.084946 	-0.299807 	0 -0.0855641 	-0.299623 	0 -0.0864832 	-0.299348 	0 -0.087402 	-0.299071 	0 -0.0883204 	-0.298792 	0 -0.0892382 	-0.298512 	0 -0.0901631 	-0.298226 	0 -0.0902514 	-0.298198 	0 -0.0903399 	-0.29817 	0 -0.0904284 	-0.298142 	0 -0.0905169 	-0.298115 	0 -0.0906047 	-0.298087 	0 -0.0914439 	-0.297824 	0 -0.0922828 	-0.297559 	0 -0.0931212 	-0.297293 	0 -0.0939593 	-0.297025 	0 -0.0948043 	-0.296753 	0 -0.0954629 	-0.29654 	0 -0.0961214 	-0.296325 	0 -0.0967797 	-0.29611 	0 -0.0974376 	-0.295894 	0 -0.0980509 	-0.295691 	0 -0.098339 	-0.295596 	0 -0.0986272 	-0.2955 	0 -0.0989154 	-0.295405 	0 -0.0992034 	-0.295309 	0 -0.0994926 	-0.295212 	0 -0.100439 	-0.294896 	0 -0.101385 	-0.294577 	0 -0.10233 	-0.294257 	0 -0.103274 	-0.293934 	0 -0.104228 	-0.293605 	0 -0.104374 	-0.293554 	0 -0.104521 	-0.293503 	0 -0.104668 	-0.293452 	0 -0.104815 	-0.293401 	0 -0.104959 	-0.293351 	0 -0.105769 	-0.29307 	0 -0.106578 	-0.292787 	0 -0.107387 	-0.292503 	0 -0.108196 	-0.292217 	0 -0.109012 	-0.291927 	0 -0.1095 	-0.291753 	0 -0.109988 	-0.291579 	0 -0.110477 	-0.291404 	0 -0.110965 	-0.291229 	0 -0.111431 	-0.29106 	0 -0.111914 	-0.290886 	0 -0.112397 	-0.290711 	0 -0.112879 	-0.290536 	0 -0.113362 	-0.290361 	0 -0.113847 	-0.290183 	0 -0.114594 	-0.28991 	0 -0.115341 	-0.289636 	0 -0.116087 	-0.289361 	0 -0.116833 	-0.289085 	0 -0.117531 	-0.288825 	0 -0.117772 	-0.288736 	0 -0.118013 	-0.288646 	0 -0.118254 	-0.288556 	0 -0.118494 	-0.288466 	0 -0.118736 	-0.288375 	0 -0.119668 	-0.288027 	0 -0.120599 	-0.287677 	0 -0.121529 	-0.287326 	0 -0.122459 	-0.286972 	0 -0.123318 	-0.286644 	0 -0.12339 	-0.286616 	0 -0.123462 	-0.286589 	0 -0.123534 	-0.286561 	0 -0.123606 	-0.286534 	0 -0.123678 	-0.286506 	0 -0.124677 	-0.286125 	0 -0.125674 	-0.285742 	0 -0.126671 	-0.285357 	0 -0.127667 	-0.28497 	0 -0.128676 	-0.284575 	0 -0.128707 	-0.284563 	0 -0.128739 	-0.28455 	0 -0.12877 	-0.284538 	0 -0.128802 	-0.284526 	0 -0.128833 	-0.284513 	0 -0.129812 	-0.284132 	0 -0.130789 	-0.283749 	0 -0.131766 	-0.283364 	0 -0.132741 	-0.282978 	0 -0.133731 	-0.282584 	0 -0.133806 	-0.282554 	0 -0.133881 	-0.282524 	0 -0.133956 	-0.282494 	0 -0.134031 	-0.282464 	0 -0.134106 	-0.282435 	0 -0.135052 	-0.282059 	0 -0.135998 	-0.281682 	0 -0.136943 	-0.281303 	0 -0.137887 	-0.280923 	0 -0.138845 	-0.280535 	0 -0.138907 	-0.28051 	0 -0.13897 	-0.280484 	0 -0.139033 	-0.280459 	0 -0.139096 	-0.280434 	0 -0.139159 	-0.280408 	0 -0.14013 	-0.280018 	0 -0.1411 	-0.279625 	0 -0.142068 	-0.279232 	0 -0.143036 	-0.278836 	0 -0.144016 	-0.278434 	0 -0.144017 	-0.278433 	0 -0.144017 	-0.278433 	0 -0.144018 	-0.278433 	0 -0.144019 	-0.278433 	0 -0.144019 	-0.278432 	0 -0.144969 	-0.278046 	0 -0.145917 	-0.277658 	0 -0.146864 	-0.277268 	0 -0.14781 	-0.276877 	0 -0.148698 	-0.276508 	0 -0.148809 	-0.276462 	0 -0.148921 	-0.276416 	0 -0.149032 	-0.276369 	0 -0.149144 	-0.276323 	0 -0.149256 	-0.276276 	0 -0.150057 	-0.275946 	0 -0.150857 	-0.275615 	0 -0.151657 	-0.275283 	0 -0.152456 	-0.27495 	0 -0.153214 	-0.274632 	0 -0.153483 	-0.274519 	0 -0.153751 	-0.274407 	0 -0.15402 	-0.274294 	0 -0.154288 	-0.274181 	0 -0.154558 	-0.274068 	0 -0.155167 	-0.273814 	0 -0.155776 	-0.273559 	0 -0.156385 	-0.273304 	0 -0.156992 	-0.273048 	0 -0.157578 	-0.272801 	0 -0.158047 	-0.272604 	0 -0.158517 	-0.272406 	0 -0.158986 	-0.272207 	0 -0.159454 	-0.272009 	0 -0.159927 	-0.271808 	0 -0.160304 	-0.271649 	0 -0.160681 	-0.27149 	0 -0.161057 	-0.271331 	0 -0.161433 	-0.271171 	0 -0.161801 	-0.271015 	0 -0.162514 	-0.270714 	0 -0.163225 	-0.270412 	0 -0.163936 	-0.270109 	0 -0.164646 	-0.269806 	0 -0.165365 	-0.269497 	0 -0.165472 	-0.269452 	0 -0.165578 	-0.269407 	0 -0.165685 	-0.269361 	0 -0.165791 	-0.269316 	0 -0.165897 	-0.269271 	0 -0.166703 	-0.268929 	0 -0.167508 	-0.268586 	0 -0.168311 	-0.26824 	0 -0.169113 	-0.267894 	0 -0.16988 	-0.267562 	0 -0.170078 	-0.267476 	0 -0.170275 	-0.26739 	0 -0.170473 	-0.267305 	0 -0.170671 	-0.267219 	0 -0.17087 	-0.267133 	0 -0.17145 	-0.266883 	0 -0.172029 	-0.266634 	0 -0.172607 	-0.266383 	0 -0.173185 	-0.266133 	0 -0.173746 	-0.265889 	0 -0.174285 	-0.265655 	0 -0.174823 	-0.265421 	0 -0.175361 	-0.265187 	0 -0.175899 	-0.264952 	0 -0.176442 	-0.264714 	0 -0.176654 	-0.264621 	0 -0.176866 	-0.264529 	0 -0.177078 	-0.264437 	0 -0.17729 	-0.264344 	0 -0.1775 	-0.264253 	0 -0.178238 	-0.263932 	0 -0.178977 	-0.26361 	0 -0.179714 	-0.263287 	0 -0.180449 	-0.262962 	0 -0.181157 	-0.262647 	0 -0.181341 	-0.262566 	0 -0.181526 	-0.262484 	0 -0.181711 	-0.262402 	0 -0.181895 	-0.26232 	0 -0.18208 	-0.262238 	0 -0.182611 	-0.262004 	0 -0.183142 	-0.26177 	0 -0.183671 	-0.261536 	0 -0.184201 	-0.261301 	0 -0.184716 	-0.261072 	0 -0.185329 	-0.260801 	0 -0.18594 	-0.260529 	0 -0.186552 	-0.260257 	0 -0.187162 	-0.259984 	0 -0.187781 	-0.259706 	0 -0.18786 	-0.259671 	0 -0.187939 	-0.259636 	0 -0.188018 	-0.259601 	0 -0.188097 	-0.259566 	0 -0.188176 	-0.25953 	0 -0.188859 	-0.259228 	0 -0.18954 	-0.258924 	0 -0.19022 	-0.258618 	0 -0.1909 	-0.258312 	0 -0.191557 	-0.258015 	0 -0.191953 	-0.257836 	0 -0.192349 	-0.257657 	0 -0.192744 	-0.257478 	0 -0.193139 	-0.257299 	0 -0.193538 	-0.257118 	0 -0.1938 	-0.257 	0 -0.194062 	-0.256883 	0 -0.194323 	-0.256765 	0 -0.194585 	-0.256647 	0 -0.194844 	-0.25653 	0 -0.195491 	-0.25624 	0 -0.196137 	-0.255948 	0 -0.196782 	-0.255655 	0 -0.197426 	-0.25536 	0 -0.198052 	-0.255073 	0 -0.198311 	-0.254954 	0 -0.198571 	-0.254835 	0 -0.19883 	-0.254716 	0 -0.199089 	-0.254596 	0 -0.19935 	-0.254476 	0 -0.199717 	-0.254309 	0 -0.200084 	-0.254142 	0 -0.200451 	-0.253975 	0 -0.200817 	-0.253808 	0 -0.201178 	-0.253643 	0 -0.201793 	-0.253363 	0 -0.202406 	-0.253082 	0 -0.20302 	-0.252801 	0 -0.203631 	-0.252517 	0 -0.204227 	-0.25224 	0 -0.204423 	-0.252148 	0 -0.20462 	-0.252056 	0 -0.204816 	-0.251965 	0 -0.205013 	-0.251873 	0 -0.20521 	-0.251781 	0 -0.205611 	-0.251597 	0 -0.206011 	-0.251414 	0 -0.206411 	-0.25123 	0 -0.20681 	-0.251046 	0 -0.207203 	-0.250865 	0 -0.207787 	-0.250597 	0 -0.208371 	-0.250328 	0 -0.208954 	-0.250058 	0 -0.209535 	-0.249786 	0 -0.210103 	-0.249519 	0 -0.210304 	-0.249425 	0 -0.210505 	-0.24933 	0 -0.210705 	-0.249236 	0 -0.210906 	-0.249141 	0 -0.211108 	-0.249046 	0 -0.211475 	-0.248878 	0 -0.211843 	-0.24871 	0 -0.21221 	-0.248542 	0 -0.212577 	-0.248373 	0 -0.212938 	-0.248207 	0 -0.213495 	-0.247952 	0 -0.214052 	-0.247698 	0 -0.214608 	-0.247442 	0 -0.215163 	-0.247182 	0 -0.215705 	-0.246928 	0 -0.215973 	-0.246803 	0 -0.21624 	-0.246678 	0 -0.216507 	-0.246553 	0 -0.216774 	-0.246428 	0 -0.217044 	-0.246302 	0 -0.217318 	-0.246177 	0 -0.217592 	-0.246052 	0 -0.217866 	-0.245927 	0 -0.21814 	-0.245802 	0 -0.218411 	-0.245677 	0 -0.218945 	-0.245436 	0 -0.219478 	-0.245194 	0 -0.22001 	-0.244947 	0 -0.220541 	-0.2447 	0 -0.221062 	-0.244457 	0 -0.221455 	-0.244275 	0 -0.221848 	-0.244093 	0 -0.22224 	-0.243911 	0 -0.222632 	-0.243729 	0 -0.223028 	-0.243545 	0 -0.223151 	-0.243488 	0 -0.223275 	-0.243431 	0 -0.223399 	-0.243374 	0 -0.223523 	-0.243318 	0 -0.223647 	-0.243261 	0 -0.224159 	-0.243029 	0 -0.224671 	-0.242793 	0 -0.225181 	-0.242556 	0 -0.225691 	-0.242319 	0 -0.226192 	-0.242085 	0 -0.226689 	-0.241855 	0 -0.227186 	-0.241625 	0 -0.227683 	-0.241395 	0 -0.228179 	-0.241164 	0 -0.228666 	-0.240934 	0 -0.228743 	-0.240897 	0 -0.228821 	-0.240861 	0 -0.228898 	-0.240824 	0 -0.228975 	-0.240788 	0 -0.229053 	-0.240751 	0 -0.229465 	-0.24056 	0 -0.229877 	-0.240369 	0 -0.230288 	-0.240177 	0 -0.230699 	-0.239986 	0 -0.231104 	-0.239796 	0 -0.231583 	-0.239575 	0 -0.232061 	-0.239353 	0 -0.232538 	-0.23913 	0 -0.233014 	-0.238903 	0 -0.233483 	-0.238679 	0 -0.233809 	-0.238524 	0 -0.234134 	-0.23837 	0 -0.23446 	-0.238215 	0 -0.234784 	-0.23806 	0 -0.235113 	-0.237904 	0 -0.235251 	-0.237839 	0 -0.235391 	-0.237773 	0 -0.23553 	-0.237708 	0 -0.235668 	-0.237642 	0 -0.235807 	-0.237577 	0 -0.236267 	-0.237362 	0 -0.236726 	-0.237143 	0 -0.237185 	-0.236923 	0 -0.237643 	-0.236703 	0 -0.238094 	-0.236486 	0 -0.238541 	-0.236272 	0 -0.238988 	-0.236058 	0 -0.239434 	-0.235843 	0 -0.23988 	-0.235628 	0 -0.240319 	-0.235411 	0 -0.240492 	-0.235326 	0 -0.240666 	-0.235241 	0 -0.24084 	-0.235155 	0 -0.241013 	-0.23507 	0 -0.241188 	-0.234984 	0 -0.241451 	-0.234857 	0 -0.241715 	-0.234729 	0 -0.241978 	-0.234601 	0 -0.242241 	-0.234474 	0 -0.242502 	-0.234347 	0 -0.242932 	-0.234139 	0 -0.243362 	-0.233929 	0 -0.243791 	-0.233716 	0 -0.244219 	-0.233503 	0 -0.244642 	-0.233293 	0 -0.24506 	-0.233085 	0 -0.245478 	-0.232877 	0 -0.245895 	-0.232669 	0 -0.246312 	-0.232461 	0 -0.246724 	-0.232252 	0 -0.246831 	-0.232197 	0 -0.246939 	-0.232142 	0 -0.247047 	-0.232087 	0 -0.247155 	-0.232032 	0 -0.247264 	-0.231976 	0 -0.247566 	-0.231824 	0 -0.247868 	-0.231671 	0 -0.24817 	-0.231518 	0 -0.248471 	-0.231365 	0 -0.24877 	-0.231212 	0 -0.249172 	-0.231008 	0 -0.249573 	-0.230803 	0 -0.249974 	-0.230594 	0 -0.250374 	-0.230385 	0 -0.250769 	-0.230178 	0 -0.25116 	-0.229974 	0 -0.25155 	-0.229768 	0 -0.25194 	-0.229563 	0 -0.252329 	-0.229357 	0 -0.252714 	-0.229151 	0 -0.252832 	-0.229087 	0 -0.252951 	-0.229023 	0 -0.25307 	-0.228958 	0 -0.253189 	-0.228894 	0 -0.253309 	-0.228829 	0 -0.253571 	-0.22869 	0 -0.253833 	-0.228552 	0 -0.254095 	-0.228414 	0 -0.254357 	-0.228275 	0 -0.254617 	-0.228138 	0 -0.254989 	-0.22794 	0 -0.255361 	-0.22774 	0 -0.255733 	-0.227538 	0 -0.256105 	-0.227336 	0 -0.256473 	-0.227136 	0 -0.256834 	-0.226937 	0 -0.257195 	-0.226738 	0 -0.257556 	-0.226539 	0 -0.257916 	-0.226339 	0 -0.258274 	-0.226139 	0 -0.25847 	-0.226026 	0 -0.258666 	-0.225915 	0 -0.258863 	-0.225803 	0 -0.259059 	-0.225691 	0 -0.259256 	-0.22558 	0 -0.259412 	-0.225497 	0 -0.259568 	-0.225415 	0 -0.259724 	-0.225333 	0 -0.25988 	-0.22525 	0 -0.260036 	-0.225169 	0 -0.260382 	-0.224987 	0 -0.260729 	-0.224801 	0 -0.261076 	-0.224613 	0 -0.261422 	-0.224426 	0 -0.261766 	-0.224241 	0 -0.262101 	-0.224059 	0 -0.262437 	-0.223879 	0 -0.262773 	-0.223697 	0 -0.26311 	-0.22351 	0 -0.263443 	-0.223325 	0 -0.263769 	-0.223143 	0 -0.264096 	-0.222962 	0 -0.264422 	-0.222781 	0 -0.264747 	-0.222599 	0 -0.26507 	-0.22242 	0 -0.265077 	-0.222416 	0 -0.265084 	-0.222412 	0 -0.26509 	-0.222408 	0 -0.265097 	-0.222405 	0 -0.265104 	-0.222401 	0 -0.265424 	-0.22223 	0 -0.265745 	-0.222059 	0 -0.266065 	-0.221887 	0 -0.266385 	-0.221715 	0 -0.266702 	-0.221544 	0 -0.267019 	-0.221377 	0 -0.267337 	-0.221207 	0 -0.267655 	-0.221032 	0 -0.267973 	-0.220856 	0 -0.268289 	-0.220681 	0 -0.268597 	-0.220514 	0 -0.268906 	-0.220345 	0 -0.269214 	-0.220176 	0 -0.269523 	-0.220005 	0 -0.26983 	-0.21983 	0 -0.270044 	-0.21971 	0 -0.270259 	-0.21959 	0 -0.270473 	-0.219469 	0 -0.270688 	-0.219348 	0 -0.270905 	-0.219226 	0 -0.270991 	-0.219177 	0 -0.271077 	-0.219128 	0 -0.271164 	-0.219079 	0 -0.27125 	-0.21903 	0 -0.271336 	-0.21898 	0 -0.271635 	-0.218809 	0 -0.271934 	-0.218635 	0 -0.272233 	-0.21846 	0 -0.272531 	-0.218285 	0 -0.272827 	-0.218111 	0 -0.273117 	-0.21794 	0 -0.273406 	-0.217769 	0 -0.273697 	-0.217595 	0 -0.273987 	-0.217419 	0 -0.274274 	-0.217244 	0 -0.274556 	-0.217072 	0 -0.274837 	-0.2169 	0 -0.275118 	-0.216727 	0 -0.275399 	-0.216554 	0 -0.275678 	-0.216378 	0 -0.275861 	-0.216263 	0 -0.276044 	-0.216147 	0 -0.276226 	-0.216031 	0 -0.276408 	-0.215914 	0 -0.276592 	-0.215797 	0 -0.276683 	-0.215739 	0 -0.276774 	-0.215682 	0 -0.276865 	-0.215625 	0 -0.276956 	-0.215567 	0 -0.277047 	-0.215511 	0 -0.277315 	-0.215338 	0 -0.277585 	-0.215164 	0 -0.277854 	-0.214989 	0 -0.278123 	-0.214815 	0 -0.27839 	-0.214642 	0 -0.278649 	-0.214469 	0 -0.278908 	-0.214297 	0 -0.279169 	-0.214122 	0 -0.27943 	-0.213946 	0 -0.279689 	-0.213771 	0 -0.27994 	-0.213597 	0 -0.280192 	-0.213424 	0 -0.280443 	-0.21325 	0 -0.280694 	-0.213075 	0 -0.280946 	-0.2129 	0 -0.281167 	-0.212741 	0 -0.281387 	-0.212582 	0 -0.281608 	-0.212424 	0 -0.281828 	-0.212265 	0 -0.28205 	-0.212106 	0 -0.282073 	-0.21209 	0 -0.282096 	-0.212075 	0 -0.282119 	-0.212059 	0 -0.282142 	-0.212044 	0 -0.282166 	-0.212029 	0 -0.282408 	-0.211862 	0 -0.282651 	-0.211695 	0 -0.282894 	-0.211528 	0 -0.283137 	-0.211361 	0 -0.283378 	-0.211196 	0 -0.283611 	-0.211033 	0 -0.283846 	-0.21087 	0 -0.284081 	-0.210702 	0 -0.284317 	-0.210534 	0 -0.284551 	-0.210367 	0 -0.284777 	-0.210204 	0 -0.285004 	-0.210042 	0 -0.28523 	-0.20988 	0 -0.285459 	-0.209711 	0 -0.285686 	-0.209544 	0 -0.285906 	-0.209379 	0 -0.286125 	-0.209216 	0 -0.286345 	-0.209053 	0 -0.286564 	-0.20889 	0 -0.286784 	-0.208724 	0 -0.286882 	-0.208647 	0 -0.286981 	-0.208571 	0 -0.287079 	-0.208495 	0 -0.287178 	-0.208419 	0 -0.287278 	-0.208344 	0 -0.287396 	-0.208258 	0 -0.287515 	-0.20817 	0 -0.287634 	-0.208082 	0 -0.287753 	-0.207994 	0 -0.287873 	-0.207905 	0 -0.288085 	-0.207747 	0 -0.288301 	-0.207582 	0 -0.288517 	-0.207417 	0 -0.288732 	-0.207253 	0 -0.288948 	-0.207087 	0 -0.289152 	-0.206929 	0 -0.289358 	-0.20677 	0 -0.289567 	-0.206604 	0 -0.289776 	-0.206438 	0 -0.289985 	-0.206272 	0 -0.290183 	-0.206112 	0 -0.290382 	-0.205951 	0 -0.290581 	-0.20579 	0 -0.290782 	-0.205624 	0 -0.290985 	-0.205457 	0 -0.291176 	-0.205296 	0 -0.291369 	-0.205133 	0 -0.291561 	-0.204971 	0 -0.291753 	-0.204808 	0 -0.291946 	-0.204641 	0 -0.292014 	-0.204582 	0 -0.292084 	-0.204521 	0 -0.292153 	-0.20446 	0 -0.292222 	-0.204399 	0 -0.292292 	-0.204337 	0 -0.292412 	-0.204225 	0 -0.292532 	-0.204109 	0 -0.292653 	-0.203994 	0 -0.292773 	-0.203878 	0 -0.292893 	-0.20376 	0 -0.293075 	-0.203582 	0 -0.293261 	-0.203397 	0 -0.293446 	-0.203212 	0 -0.293631 	-0.203027 	0 -0.293816 	-0.202839 	0 -0.293991 	-0.202661 	0 -0.294167 	-0.20248 	0 -0.294346 	-0.202293 	0 -0.294525 	-0.202107 	0 -0.294704 	-0.201917 	0 -0.294873 	-0.201739 	0 -0.295043 	-0.201556 	0 -0.295213 	-0.201374 	0 -0.295386 	-0.201187 	0 -0.295558 	-0.200996 	0 -0.295722 	-0.200817 	0 -0.295887 	-0.200634 	0 -0.296051 	-0.200451 	0 -0.296215 	-0.200268 	0 -0.296382 	-0.200078 	0 -0.296491 	-0.199955 	0 -0.2966 	-0.199829 	0 -0.29671 	-0.199704 	0 -0.296819 	-0.199578 	0 -0.29693 	-0.199447 	0 -0.296981 	-0.199387 	0 -0.297033 	-0.199332 	0 -0.297084 	-0.199277 	0 -0.297136 	-0.199222 	0 -0.297188 	-0.199172 	0 -0.297349 	-0.198992 	0 -0.297511 	-0.198816 	0 -0.297673 	-0.198639 	0 -0.297834 	-0.198463 	0 -0.297995 	-0.198292 	0 -0.298151 	-0.198115 	0 -0.298308 	-0.19794 	0 -0.298466 	-0.197763 	0 -0.298623 	-0.197586 	0 -0.298781 	-0.197414 	0 -0.298931 	-0.197237 	0 -0.299082 	-0.197065 	0 -0.299234 	-0.196889 	0 -0.299387 	-0.196711 	0 -0.299539 	-0.196539 	0 -0.299685 	-0.196361 	0 -0.299831 	-0.196188 	0 -0.299977 	-0.196015 	0 -0.300124 	-0.195839 	0 -0.300273 	-0.195665 	0 -0.300414 	-0.195487 	0 -0.300555 	-0.195313 	0 -0.300695 	-0.195139 	0 -0.300836 	-0.194964 	0 -0.300978 	-0.194793 	0 -0.301042 	-0.194706 	0 -0.301106 	-0.194623 	0 -0.30117 	-0.19454 	0 -0.301235 	-0.194457 	0 -0.3013 	-0.194378 	0 -0.301373 	-0.194297 	0 -0.301447 	-0.194221 	0 -0.30152 	-0.194145 	0 -0.301594 	-0.194069 	0 -0.301667 	-0.193997 	0 -0.3018 	-0.193846 	0 -0.301935 	-0.193699 	0 -0.302069 	-0.193551 	0 -0.302204 	-0.193404 	0 -0.302338 	-0.193261 	0 -0.302462 	-0.193107 	0 -0.30259 	-0.192958 	0 -0.302719 	-0.192808 	0 -0.302848 	-0.192658 	0 -0.302977 	-0.192512 	0 -0.303097 	-0.192356 	0 -0.303217 	-0.192204 	0 -0.303339 	-0.192051 	0 -0.303464 	-0.191899 	0 -0.303589 	-0.19175 	0 -0.303703 	-0.191592 	0 -0.303818 	-0.191437 	0 -0.303933 	-0.191282 	0 -0.304051 	-0.191127 	0 -0.304171 	-0.190976 	0 -0.304282 	-0.190816 	0 -0.304393 	-0.190658 	0 -0.304504 	-0.190501 	0 -0.304614 	-0.190344 	0 -0.304729 	-0.19019 	0 -0.304813 	-0.19006 	0 -0.304898 	-0.189934 	0 -0.304983 	-0.189807 	0 -0.305067 	-0.189681 	0 -0.305153 	-0.189557 	0 -0.305175 	-0.189526 	0 -0.305197 	-0.189495 	0 -0.30522 	-0.189464 	0 -0.305242 	-0.189432 	0 -0.305265 	-0.189398 	0 -0.30537 	-0.189244 	0 -0.305477 	-0.189088 	0 -0.305584 	-0.188931 	0 -0.30569 	-0.188774 	0 -0.305796 	-0.188616 	0 -0.305894 	-0.188459 	0 -0.305997 	-0.188301 	0 -0.3061 	-0.188142 	0 -0.306203 	-0.187983 	0 -0.306306 	-0.187823 	0 -0.3064 	-0.187664 	0 -0.306496 	-0.187503 	0 -0.306595 	-0.187342 	0 -0.306695 	-0.187181 	0 -0.306795 	-0.187018 	0 -0.306886 	-0.186857 	0 -0.306978 	-0.186693 	0 -0.30707 	-0.18653 	0 -0.307167 	-0.186367 	0 -0.307263 	-0.186203 	0 -0.307352 	-0.186039 	0 -0.30744 	-0.185873 	0 -0.307529 	-0.185708 	0 -0.307619 	-0.185542 	0 -0.307713 	-0.185376 	0 -0.307799 	-0.18521 	0 -0.307884 	-0.185042 	0 -0.30797 	-0.184874 	0 -0.308056 	-0.184707 	0 -0.308144 	-0.184538 	0 -0.308204 	-0.184416 	0 -0.308265 	-0.184292 	0 -0.308325 	-0.184169 	0 -0.308385 	-0.184045 	0 -0.308446 	-0.183919 	0 -0.308468 	-0.183873 	0 -0.308491 	-0.183825 	0 -0.308515 	-0.183778 	0 -0.308538 	-0.18373 	0 -0.308562 	-0.183682 	0 -0.308644 	-0.183507 	0 -0.308728 	-0.18333 	0 -0.308811 	-0.183153 	0 -0.308895 	-0.182976 	0 -0.308979 	-0.182799 	0 -0.309053 	-0.182624 	0 -0.309134 	-0.182446 	0 -0.309214 	-0.182268 	0 -0.309295 	-0.182089 	0 -0.309376 	-0.181911 	0 -0.309447 	-0.181734 	0 -0.30952 	-