# vtk DataFile Version 2.0
track0
ASCII
DATASET POLYDATA
POINTS 12105 float
-0.0205 0.001 1e-05
-0.0204925 0.0011 1e-05
-0.0204848 0.00119999 1e-05
-0.020477 0.00129997 1e-05
-0.020469 0.00139994 1e-05
-0.0204609 0.0015 1e-05
-0.0204527 0.0016 1e-05
-0.0204443 0.00169999 1e-05
-0.0204357 0.00179996 1e-05
-0.0204269 0.00189991 1e-05
-0.020418 0.002 1e-05
-0.0204088 0.0021 1e-05
-0.0203995 0.00219998 1e-05
-0.02039 0.00229994 1e-05
-0.0203802 0.00239988 1e-05
-0.0203703 0.0025 1e-05
-0.0203601 0.0026 1e-05
-0.0203497 0.00269998 1e-05
-0.0203391 0.00279993 1e-05
-0.0203282 0.00289986 1e-05
-0.0203171 0.003 1e-05
-0.0203108 0.00305602 1e-05
-0.0203044 0.00311203 1e-05
-0.0202979 0.00316803 1e-05
-0.0202913 0.00322403 1e-05
-0.0202854 0.00327352 1e-05
-0.02028 0.00331881 1e-05
-0.0202745 0.00336411 1e-05
-0.0202689 0.00340939 1e-05
-0.0202633 0.00345467 1e-05
-0.0202577 0.0035 1e-05
-0.0202451 0.0036 1e-05
-0.0202323 0.00369997 1e-05
-0.0202192 0.0037999 1e-05
-0.0202058 0.0038998 1e-05
-0.0201922 0.004 1e-05
-0.0201783 0.0041 1e-05
-0.0201641 0.00419996 1e-05
-0.0201497 0.00429989 1e-05
-0.020135 0.00439977 1e-05
-0.02012 0.0045 1e-05
-0.0201047 0.0046 1e-05
-0.0200892 0.00469996 1e-05
-0.0200734 0.00479987 1e-05
-0.0200573 0.00489974 1e-05
-0.0200409 0.005 1e-05
-0.0200372 0.00502226 1e-05
-0.0200334 0.00504452 1e-05
-0.0200297 0.00506677 1e-05
-0.0200259 0.00508903 1e-05
-0.0200223 0.00511046 1e-05
-0.0200091 0.00518837 1e-05
-0.0199957 0.00526625 1e-05
-0.0199821 0.0053441 1e-05
-0.0199684 0.00542192 1e-05
-0.0199544 0.0055 1e-05
-0.0199363 0.0056 1e-05
-0.0199179 0.00569995 1e-05
-0.0198992 0.00579984 1e-05
-0.0198802 0.00589968 1e-05
-0.0198609 0.006 1e-05
-0.0198413 0.0061 1e-05
-0.0198214 0.00619994 1e-05
-0.0198013 0.00629983 1e-05
-0.0197808 0.00639966 1e-05
-0.0197614 0.00649322 1e-05
-0.0197611 0.00649458 1e-05
-0.0197608 0.00649593 1e-05
-0.0197605 0.00649729 1e-05
-0.0197602 0.00649864 1e-05
-0.0197599 0.0065 1e-05
-0.0197388 0.0066 1e-05
-0.0197175 0.00669994 1e-05
-0.0196958 0.00679981 1e-05
-0.0196738 0.00689962 1e-05
-0.0196514 0.007 1e-05
-0.0196288 0.0071 1e-05
-0.0196059 0.00719993 1e-05
-0.0195827 0.0072998 1e-05
-0.0195591 0.00739959 1e-05
-0.0195352 0.0075 1e-05
-0.0195286 0.00752701 1e-05
-0.0195221 0.00755401 1e-05
-0.0195155 0.007581 1e-05
-0.0195089 0.00760799 1e-05
-0.0195025 0.00763409 1e-05
-0.0194845 0.00770727 1e-05
-0.0194663 0.00778041 1e-05
-0.019448 0.00785352 1e-05
-0.0194295 0.00792658 1e-05
-0.0194107 0.008 1e-05
-0.0193849 0.0081 1e-05
-0.0193589 0.00819992 1e-05
-0.0193325 0.00829976 1e-05
-0.0193058 0.00839952 1e-05
-0.0192785 0.0085 1e-05
-0.019272 0.00852393 1e-05
-0.0192654 0.00854786 1e-05
-0.0192588 0.00857178 1e-05
-0.0192522 0.0085957 1e-05
-0.0192457 0.00861897 1e-05
-0.0192245 0.00869518 1e-05
-0.0192032 0.00877133 1e-05
-0.0191816 0.00884744 1e-05
-0.0191599 0.00892349 1e-05
-0.0191378 0.009 1e-05
-0.0191088 0.0091 1e-05
-0.0190794 0.00919991 1e-05
-0.0190497 0.00929972 1e-05
-0.0190196 0.00939945 1e-05
-0.018991 0.00949338 1e-05
-0.0189906 0.0094947 1e-05
-0.0189902 0.00949603 1e-05
-0.0189898 0.00949735 1e-05
-0.0189894 0.00949868 1e-05
-0.018989 0.0095 1e-05
-0.0189582 0.0096 1e-05
-0.0189271 0.0096999 1e-05
-0.0188957 0.0097997 1e-05
-0.018864 0.00989941 1e-05
-0.0188316 0.01 1e-05
-0.0188129 0.0100573 1e-05
-0.0187942 0.0101145 1e-05
-0.0187754 0.0101718 1e-05
-0.0187564 0.0102289 1e-05
-0.0187384 0.0102829 1e-05
-0.0187238 0.0103263 1e-05
-0.0187092 0.0103697 1e-05
-0.0186945 0.0104131 1e-05
-0.0186798 0.0104565 1e-05
-0.0186649 0.0105 1e-05
-0.0186306 0.0106 1e-05
-0.0185959 0.0106999 1e-05
-0.018561 0.0107997 1e-05
-0.0185257 0.0108993 1e-05
-0.0184896 0.011 1e-05
-0.0184893 0.011001 1e-05
-0.0184889 0.011002 1e-05
-0.0184885 0.0110031 1e-05
-0.0184881 0.0110041 1e-05
-0.0184878 0.0110051 1e-05
-0.018452 0.0111041 1e-05
-0.0184158 0.0112029 1e-05
-0.0183794 0.0113017 1e-05
-0.0183426 0.0114003 1e-05
-0.0183051 0.0115 1e-05
-0.0182919 0.0115346 1e-05
-0.0182787 0.0115692 1e-05
-0.0182654 0.0116038 1e-05
-0.0182521 0.0116384 1e-05
-0.0182392 0.0116719 1e-05
-0.0182138 0.0117375 1e-05
-0.0181882 0.0118031 1e-05
-0.0181626 0.0118686 1e-05
-0.0181367 0.011934 1e-05
-0.0181105 0.012 1e-05
-0.0180869 0.012059 1e-05
-0.0180632 0.0121179 1e-05
-0.0180394 0.0121768 1e-05
-0.0180155 0.0122357 1e-05
-0.0179926 0.0122916 1e-05
-0.0179754 0.0123333 1e-05
-0.0179582 0.0123749 1e-05
-0.017941 0.0124166 1e-05
-0.0179237 0.0124582 1e-05
-0.0179062 0.0125 1e-05
-0.0178745 0.0125754 1e-05
-0.0178427 0.0126507 1e-05
-0.0178107 0.0127259 1e-05
-0.0177784 0.012801 1e-05
-0.017748 0.0128715 1e-05
-0.0177368 0.0128972 1e-05
-0.0177256 0.0129229 1e-05
-0.0177144 0.0129486 1e-05
-0.0177031 0.0129742 1e-05
-0.0176918 0.013 1e-05
-0.0176545 0.0130847 1e-05
-0.017617 0.0131693 1e-05
-0.0175792 0.0132538 1e-05
-0.0175411 0.0133382 1e-05
-0.0175053 0.0134169 1e-05
-0.0174977 0.0134335 1e-05
-0.0174901 0.0134501 1e-05
-0.0174825 0.0134668 1e-05
-0.0174749 0.0134834 1e-05
-0.0174672 0.0135 1e-05
-0.0174267 0.0135878 1e-05
-0.0173859 0.0136755 1e-05
-0.0173449 0.013763 1e-05
-0.0173035 0.0138504 1e-05
-0.0172647 0.013932 1e-05
-0.0172581 0.0139456 1e-05
-0.0172516 0.0139592 1e-05
-0.017245 0.0139728 1e-05
-0.0172385 0.0139864 1e-05
-0.0172319 0.014 1e-05
-0.0171907 0.0140853 1e-05
-0.0171493 0.0141704 1e-05
-0.0171075 0.0142554 1e-05
-0.0170656 0.0143403 1e-05
-0.0170259 0.0144198 1e-05
-0.0170179 0.0144359 1e-05
-0.0170098 0.0144519 1e-05
-0.0170018 0.0144679 1e-05
-0.0169937 0.0144839 1e-05
-0.0169856 0.0145 1e-05
-0.0169463 0.0145777 1e-05
-0.0169068 0.0146553 1e-05
-0.016867 0.0147328 1e-05
-0.0168271 0.0148102 1e-05
-0.0167891 0.0148832 1e-05
-0.0167769 0.0149066 1e-05
-0.0167646 0.0149299 1e-05
-0.0167524 0.0149533 1e-05
-0.0167401 0.0149766 1e-05
-0.0167277 0.015 1e-05
-0.016693 0.0150656 1e-05
-0.0166582 0.0151312 1e-05
-0.0166231 0.0151967 1e-05
-0.0165879 0.0152621 1e-05
-0.0165542 0.0153244 1e-05
-0.0165351 0.0153595 1e-05
-0.0165159 0.0153946 1e-05
-0.0164967 0.0154297 1e-05
-0.0164775 0.0154647 1e-05
-0.016458 0.0155 1e-05
-0.0164307 0.0155495 1e-05
-0.0164032 0.015599 1e-05
-0.0163756 0.0156484 1e-05
-0.016348 0.0156978 1e-05
-0.0163212 0.0157455 1e-05
-0.0162924 0.0157964 1e-05
-0.0162636 0.0158472 1e-05
-0.0162346 0.015898 1e-05
-0.0162056 0.0159488 1e-05
-0.0161761 0.016 1e-05
-0.0161589 0.0160298 1e-05
-0.0161417 0.0160596 1e-05
-0.0161244 0.0160894 1e-05
-0.016107 0.0161192 1e-05
-0.01609 0.0161483 1e-05
-0.0160489 0.0162187 1e-05
-0.0160076 0.0162889 1e-05
-0.015966 0.016359 1e-05
-0.0159243 0.016429 1e-05
-0.0158818 0.0165 1e-05
-0.0158776 0.016507 1e-05
-0.0158734 0.016514 1e-05
-0.0158692 0.0165209 1e-05
-0.0158649 0.0165279 1e-05
-0.0158607 0.0165348 1e-05
-0.0158153 0.01661 1e-05
-0.0157696 0.0166851 1e-05
-0.0157236 0.0167601 1e-05
-0.0156775 0.0168349 1e-05
-0.0156333 0.0169061 1e-05
-0.0156216 0.0169248 1e-05
-0.0156098 0.0169436 1e-05
-0.0155981 0.0169624 1e-05
-0.0155863 0.0169812 1e-05
-0.0155745 0.017 1e-05
-0.0155411 0.017053 1e-05
-0.0155077 0.0171059 1e-05
-0.0154741 0.0171587 1e-05
-0.0154404 0.0172115 1e-05
-0.0154077 0.0172625 1e-05
-0.0153771 0.01731 1e-05
-0.0153465 0.0173575 1e-05
-0.0153157 0.0174048 1e-05
-0.0152849 0.0174522 1e-05
-0.0152536 0.0175 1e-05
-0.0152396 0.0175212 1e-05
-0.0152257 0.0175424 1e-05
-0.0152117 0.0175636 1e-05
-0.0151977 0.0175848 1e-05
-0.0151839 0.0176056 1e-05
-0.0151395 0.0176726 1e-05
-0.015095 0.0177395 1e-05
-0.0150502 0.0178062 1e-05
-0.0150053 0.0178729 1e-05
-0.0149619 0.0179368 1e-05
-0.0149533 0.0179494 1e-05
-0.0149447 0.0179621 1e-05
-0.0149361 0.0179747 1e-05
-0.0149274 0.0179873 1e-05
-0.0149188 0.018 1e-05
-0.0148834 0.0180517 1e-05
-0.0148479 0.0181033 1e-05
-0.0148122 0.0181548 1e-05
-0.0147765 0.0182062 1e-05
-0.0147417 0.0182561 1e-05
-0.0147076 0.0183049 1e-05
-0.0146733 0.0183536 1e-05
-0.014639 0.0184023 1e-05
-0.0146046 0.0184508 1e-05
-0.0145696 0.0185 1e-05
-0.0145603 0.0185129 1e-05
-0.0145511 0.0185259 1e-05
-0.0145418 0.0185388 1e-05
-0.0145325 0.0185518 1e-05
-0.0145233 0.0185646 1e-05
-0.01448 0.0186249 1e-05
-0.0144365 0.0186851 1e-05
-0.0143929 0.0187452 1e-05
-0.0143491 0.0188052 1e-05
-0.0143067 0.0188631 1e-05
-0.0142865 0.0188905 1e-05
-0.0142663 0.0189179 1e-05
-0.0142461 0.0189452 1e-05
-0.0142258 0.0189725 1e-05
-0.0142054 0.019 1e-05
-0.0141827 0.0190305 1e-05
-0.0141599 0.019061 1e-05
-0.0141371 0.0190914 1e-05
-0.0141143 0.0191219 1e-05
-0.0140917 0.0191518 1e-05
-0.0140491 0.0192083 1e-05
-0.0140063 0.0192647 1e-05
-0.0139635 0.019321 1e-05
-0.0139204 0.0193772 1e-05
-0.0138786 0.0194317 1e-05
-0.013868 0.0194454 1e-05
-0.0138575 0.019459 1e-05
-0.0138469 0.0194727 1e-05
-0.0138363 0.0194863 1e-05
-0.0138257 0.0195 1e-05
-0.013794 0.0195408 1e-05
-0.0137622 0.0195816 1e-05
-0.0137303 0.0196224 1e-05
-0.0136984 0.0196631 1e-05
-0.0136671 0.0197029 1e-05
-0.0136251 0.019756 1e-05
-0.0135831 0.019809 1e-05
-0.0135409 0.019862 1e-05
-0.0134986 0.0199148 1e-05
-0.0134573 0.0199662 1e-05
-0.0134519 0.019973 1e-05
-0.0134464 0.0199797 1e-05
-0.013441 0.0199865 1e-05
-0.0134355 0.0199932 1e-05
-0.01343 0.02 1e-05
-0.0133939 0.0200447 1e-05
-0.0133576 0.0200893 1e-05
-0.0133213 0.0201338 1e-05
-0.0132849 0.0201783 1e-05
-0.0132493 0.0202218 1e-05
-0.013208 0.0202719 1e-05
-0.0131666 0.0203219 1e-05
-0.0131251 0.0203718 1e-05
-0.0130835 0.0204216 1e-05
-0.0130429 0.0204702 1e-05
-0.0130378 0.0204762 1e-05
-0.0130328 0.0204821 1e-05
-0.0130278 0.0204881 1e-05
-0.0130228 0.020494 1e-05
-0.0130178 0.0205 1e-05
-0.0129818 0.0205426 1e-05
-0.0129458 0.0205852 1e-05
-0.0129098 0.0206277 1e-05
-0.0128736 0.0206701 1e-05
-0.0128381 0.0207116 1e-05
-0.0127975 0.020759 1e-05
-0.0127568 0.0208063 1e-05
-0.012716 0.0208535 1e-05
-0.0126751 0.0209006 1e-05
-0.012635 0.0209466 1e-05
-0.0126257 0.0209573 1e-05
-0.0126164 0.020968 1e-05
-0.012607 0.0209786 1e-05
-0.0125977 0.0209893 1e-05
-0.0125883 0.021 1e-05
-0.0125573 0.0210352 1e-05
-0.0125263 0.0210704 1e-05
-0.0124953 0.0211056 1e-05
[...]
POINT_DATA 12105
 FIELD attributes 1
U 3 12105 float
-0.0224177 	-0.297099 	0 -0.0228239 	-0.297078 	0 -0.0232307 	-0.297055 	0 -0.0236372 	-0.297031 	0 -0.0240436 	-0.297006 	0 -0.0244537 	-0.296981 	0 -0.0249774 	-0.296951 	0 -0.0255037 	-0.29692 	0 -0.0260264 	-0.296887 	0 -0.026549 	-0.296852 	0 -0.0270749 	-0.296817 	0 -0.0276887 	-0.296774 	0 -0.0283043 	-0.296729 	0 -0.0289198 	-0.296684 	0 -0.0295315 	-0.296636 	0 -0.0301461 	-0.296587 	0 -0.0308269 	-0.296528 	0 -0.0315089 	-0.296468 	0 -0.0321908 	-0.296407 	0 -0.0328725 	-0.296344 	0 -0.0335543 	-0.296279 	0 -0.0339624 	-0.296238 	0 -0.0343715 	-0.296196 	0 -0.0347805 	-0.296154 	0 -0.0351895 	-0.296111 	0 -0.0355521 	-0.296072 	0 -0.0358823 	-0.296037 	0 -0.0362136 	-0.296002 	0 -0.0365448 	-0.295966 	0 -0.036876 	-0.295929 	0 -0.0372086 	-0.295893 	0 -0.037976 	-0.295803 	0 -0.0387415 	-0.295712 	0 -0.0395067 	-0.295619 	0 -0.0402718 	-0.295524 	0 -0.0410399 	-0.295428 	0 -0.0418327 	-0.295323 	0 -0.0426258 	-0.295217 	0 -0.0434167 	-0.295108 	0 -0.0442059 	-0.294997 	0 -0.0449985 	-0.294885 	0 -0.0458085 	-0.294764 	0 -0.0466187 	-0.294641 	0 -0.0474286 	-0.294517 	0 -0.0482382 	-0.294392 	0 -0.0490499 	-0.294263 	0 -0.0492327 	-0.294233 	0 -0.0494159 	-0.294202 	0 -0.0495991 	-0.294172 	0 -0.0497822 	-0.294141 	0 -0.0499589 	-0.294111 	0 -0.0506007 	-0.294003 	0 -0.0512427 	-0.293894 	0 -0.0518844 	-0.293784 	0 -0.0525261 	-0.293673 	0 -0.0531702 	-0.29356 	0 -0.0540066 	-0.293409 	0 -0.0548429 	-0.293256 	0 -0.0556761 	-0.2931 	0 -0.056509 	-0.292942 	0 -0.0573463 	-0.292782 	0 -0.0581906 	-0.292615 	0 -0.0590348 	-0.292446 	0 -0.0598787 	-0.292276 	0 -0.0607223 	-0.292104 	0 -0.0615133 	-0.291941 	0 -0.0615248 	-0.291939 	0 -0.0615362 	-0.291937 	0 -0.0615477 	-0.291934 	0 -0.0615592 	-0.291932 	0 -0.0615707 	-0.291929 	0 -0.0624235 	-0.291747 	0 -0.0632761 	-0.291563 	0 -0.0641283 	-0.291377 	0 -0.0649802 	-0.291189 	0 -0.0658373 	-0.290999 	0 -0.0666993 	-0.290802 	0 -0.067561 	-0.290604 	0 -0.0684224 	-0.290404 	0 -0.069283 	-0.290202 	0 -0.0701474 	-0.289996 	0 -0.0703819 	-0.289939 	0 -0.0706165 	-0.289881 	0 -0.0708511 	-0.289824 	0 -0.0710857 	-0.289766 	0 -0.0713126 	-0.28971 	0 -0.0719495 	-0.289554 	0 -0.0725863 	-0.289396 	0 -0.0732229 	-0.289237 	0 -0.0738593 	-0.289078 	0 -0.0744991 	-0.288916 	0 -0.0753781 	-0.288691 	0 -0.0762568 	-0.288463 	0 -0.0771351 	-0.288234 	0 -0.0780122 	-0.288003 	0 -0.0788948 	-0.287767 	0 -0.0791068 	-0.28771 	0 -0.0793189 	-0.287652 	0 -0.079531 	-0.287594 	0 -0.079743 	-0.287536 	0 -0.0799495 	-0.287479 	0 -0.0806261 	-0.287294 	0 -0.0813026 	-0.287108 	0 -0.0819788 	-0.286921 	0 -0.0826547 	-0.286733 	0 -0.083335 	-0.286543 	0 -0.0842318 	-0.286288 	0 -0.0851283 	-0.286032 	0 -0.0860244 	-0.285774 	0 -0.0869199 	-0.285515 	0 -0.0877638 	-0.285269 	0 -0.0877757 	-0.285265 	0 -0.0877876 	-0.285262 	0 -0.0877995 	-0.285258 	0 -0.0878114 	-0.285255 	0 -0.0878234 	-0.285251 	0 -0.0887298 	-0.284982 	0 -0.0896357 	-0.284711 	0 -0.090541 	-0.284439 	0 -0.0914459 	-0.284165 	0 -0.0923593 	-0.283886 	0 -0.0928841 	-0.283724 	0 -0.0934089 	-0.283562 	0 -0.0939335 	-0.283399 	0 -0.0944578 	-0.283235 	0 -0.0949532 	-0.28308 	0 -0.095352 	-0.282955 	0 -0.0957507 	-0.28283 	0 -0.0961494 	-0.282704 	0 -0.0965479 	-0.282578 	0 -0.0969484 	-0.282451 	0 -0.0978762 	-0.282155 	0 -0.0988034 	-0.281857 	0 -0.09973 	-0.281558 	0 -0.100656 	-0.281257 	0 -0.101592 	-0.280951 	0 -0.101601 	-0.280948 	0 -0.101611 	-0.280945 	0 -0.101621 	-0.280941 	0 -0.10163 	-0.280938 	0 -0.10164 	-0.280935 	0 -0.102569 	-0.280628 	0 -0.103497 	-0.280319 	0 -0.104425 	-0.280009 	0 -0.105352 	-0.279697 	0 -0.10629 	-0.27938 	0 -0.106618 	-0.279268 	0 -0.106947 	-0.279156 	0 -0.107276 	-0.279043 	0 -0.107604 	-0.278931 	0 -0.107923 	-0.278821 	0 -0.108547 	-0.278607 	0 -0.109171 	-0.278392 	0 -0.109795 	-0.278177 	0 -0.110418 	-0.27796 	0 -0.111047 	-0.277742 	0 -0.111614 	-0.277543 	0 -0.112182 	-0.277344 	0 -0.112749 	-0.277144 	0 -0.113315 	-0.276944 	0 -0.113854 	-0.276753 	0 -0.114256 	-0.276611 	0 -0.114658 	-0.276468 	0 -0.11506 	-0.276325 	0 -0.115462 	-0.276182 	0 -0.115866 	-0.276038 	0 -0.1166 	-0.275775 	0 -0.117335 	-0.27551 	0 -0.118068 	-0.275245 	0 -0.118802 	-0.274979 	0 -0.11949 	-0.274729 	0 -0.119742 	-0.274637 	0 -0.119993 	-0.274546 	0 -0.120244 	-0.274454 	0 -0.120496 	-0.274362 	0 -0.120748 	-0.27427 	0 -0.121585 	-0.273963 	0 -0.122421 	-0.273656 	0 -0.123257 	-0.273347 	0 -0.124092 	-0.273037 	0 -0.124872 	-0.272747 	0 -0.125036 	-0.272685 	0 -0.125201 	-0.272624 	0 -0.125366 	-0.272562 	0 -0.125531 	-0.272501 	0 -0.125696 	-0.272439 	0 -0.126575 	-0.272111 	0 -0.127454 	-0.271781 	0 -0.128332 	-0.27145 	0 -0.129209 	-0.271118 	0 -0.130028 	-0.270806 	0 -0.130165 	-0.270754 	0 -0.130301 	-0.270702 	0 -0.130438 	-0.27065 	0 -0.130575 	-0.270598 	0 -0.130712 	-0.270546 	0 -0.131578 	-0.270217 	0 -0.132444 	-0.269886 	0 -0.133308 	-0.269554 	0 -0.134172 	-0.269221 	0 -0.134982 	-0.268908 	0 -0.135145 	-0.268845 	0 -0.135308 	-0.268781 	0 -0.135472 	-0.268718 	0 -0.135635 	-0.268655 	0 -0.135799 	-0.268591 	0 -0.1366 	-0.268282 	0 -0.1374 	-0.267971 	0 -0.138199 	-0.267659 	0 -0.138998 	-0.267347 	0 -0.139752 	-0.26705 	0 -0.139993 	-0.266956 	0 -0.140235 	-0.266861 	0 -0.140476 	-0.266766 	0 -0.140717 	-0.266671 	0 -0.14096 	-0.266576 	0 -0.141646 	-0.266307 	0 -0.142331 	-0.266037 	0 -0.143016 	-0.265766 	0 -0.1437 	-0.265495 	0 -0.144354 	-0.265235 	0 -0.144722 	-0.265089 	0 -0.14509 	-0.264943 	0 -0.145458 	-0.264796 	0 -0.145825 	-0.26465 	0 -0.146196 	-0.264502 	0 -0.146721 	-0.264293 	0 -0.147246 	-0.264084 	0 -0.14777 	-0.263874 	0 -0.148294 	-0.263664 	0 -0.148801 	-0.26346 	0 -0.149342 	-0.263244 	0 -0.149883 	-0.263027 	0 -0.150424 	-0.26281 	0 -0.150964 	-0.262592 	0 -0.15151 	-0.262372 	0 -0.15183 	-0.262242 	0 -0.152151 	-0.262113 	0 -0.152472 	-0.261983 	0 -0.152793 	-0.261854 	0 -0.153107 	-0.261726 	0 -0.153866 	-0.261421 	0 -0.154623 	-0.261115 	0 -0.15538 	-0.260808 	0 -0.156137 	-0.260501 	0 -0.156904 	-0.260187 	0 -0.15698 	-0.260156 	0 -0.157056 	-0.260125 	0 -0.157133 	-0.260094 	0 -0.157209 	-0.260063 	0 -0.157285 	-0.260032 	0 -0.158108 	-0.2597 	0 -0.158929 	-0.259366 	0 -0.159749 	-0.25903 	0 -0.160568 	-0.258694 	0 -0.161348 	-0.258372 	0 -0.161554 	-0.258287 	0 -0.16176 	-0.258203 	0 -0.161966 	-0.258118 	0 -0.162172 	-0.258033 	0 -0.162379 	-0.257948 	0 -0.162967 	-0.257708 	0 -0.163554 	-0.257467 	0 -0.164141 	-0.257225 	0 -0.164727 	-0.256983 	0 -0.165294 	-0.256749 	0 -0.165822 	-0.256532 	0 -0.16635 	-0.256314 	0 -0.166878 	-0.256096 	0 -0.167405 	-0.255878 	0 -0.167938 	-0.255657 	0 -0.168177 	-0.255559 	0 -0.168416 	-0.25546 	0 -0.168655 	-0.255361 	0 -0.168893 	-0.255262 	0 -0.169129 	-0.255165 	0 -0.169885 	-0.254854 	0 -0.17064 	-0.254543 	0 -0.171394 	-0.254232 	0 -0.172147 	-0.253918 	0 -0.172869 	-0.253615 	0 -0.173011 	-0.253555 	0 -0.173154 	-0.253496 	0 -0.173297 	-0.253436 	0 -0.17344 	-0.253377 	0 -0.173583 	-0.253317 	0 -0.174174 	-0.253072 	0 -0.174765 	-0.252827 	0 -0.175355 	-0.252581 	0 -0.175944 	-0.252335 	0 -0.176516 	-0.252096 	0 -0.177075 	-0.251864 	0 -0.177634 	-0.251631 	0 -0.178192 	-0.251398 	0 -0.17875 	-0.251165 	0 -0.179315 	-0.250928 	0 -0.179465 	-0.250866 	0 -0.179616 	-0.250803 	0 -0.179766 	-0.25074 	0 -0.179916 	-0.250678 	0 -0.180066 	-0.250615 	0 -0.180767 	-0.250326 	0 -0.181468 	-0.250035 	0 -0.182167 	-0.249742 	0 -0.182865 	-0.249448 	0 -0.183539 	-0.249163 	0 -0.183858 	-0.24903 	0 -0.184176 	-0.248896 	0 -0.184495 	-0.248762 	0 -0.184813 	-0.248629 	0 -0.185134 	-0.248494 	0 -0.185493 	-0.248343 	0 -0.185853 	-0.248193 	0 -0.186213 	-0.248043 	0 -0.186572 	-0.247892 	0 -0.186925 	-0.247744 	0 -0.187593 	-0.247467 	0 -0.18826 	-0.247189 	0 -0.188926 	-0.246911 	0 -0.18959 	-0.246631 	0 -0.190234 	-0.246357 	0 -0.190395 	-0.246289 	0 -0.190557 	-0.246221 	0 -0.190718 	-0.246153 	0 -0.190879 	-0.246085 	0 -0.191041 	-0.246017 	0 -0.19153 	-0.245812 	0 -0.192019 	-0.245608 	0 -0.192507 	-0.245403 	0 -0.192995 	-0.245198 	0 -0.193472 	-0.244997 	0 -0.194109 	-0.244731 	0 -0.194745 	-0.244466 	0 -0.195381 	-0.244199 	0 -0.196016 	-0.243933 	0 -0.196632 	-0.243671 	0 -0.196713 	-0.243636 	0 -0.196794 	-0.243602 	0 -0.196875 	-0.243568 	0 -0.196956 	-0.243534 	0 -0.197037 	-0.243499 	0 -0.19758 	-0.243272 	0 -0.198122 	-0.243045 	0 -0.198663 	-0.242818 	0 -0.199204 	-0.24259 	0 -0.199733 	-0.242367 	0 -0.200342 	-0.242112 	0 -0.200951 	-0.241858 	0 -0.201559 	-0.241603 	0 -0.202166 	-0.241348 	0 -0.202757 	-0.241097 	0 -0.20283 	-0.241066 	0 -0.202902 	-0.241035 	0 -0.202974 	-0.241005 	0 -0.203047 	-0.240974 	0 -0.20312 	-0.240943 	0 -0.203645 	-0.240724 	0 -0.204169 	-0.240504 	0 -0.204693 	-0.240284 	0 -0.205217 	-0.240063 	0 -0.20573 	-0.239847 	0 -0.206314 	-0.239604 	0 -0.206897 	-0.23936 	0 -0.20748 	-0.239117 	0 -0.208062 	-0.238872 	0 -0.20863 	-0.238629 	0 -0.208761 	-0.238574 	0 -0.208893 	-0.238518 	0 -0.209024 	-0.238463 	0 -0.209156 	-0.238407 	0 -0.209288 	-0.238351 	0 -0.209728 	-0.238167 	0 -0.210168 	-0.237983 	0 -0.210608 	-0.237799 	0 -0.211047 	-0.237614 	0 -0.211479 	-0.237432 	0 -0.21204 	-0.2372 	0 -0.2126 	-0.236967 	0 -0.21316 	-0.236734 	0 -0.213718 	-0.236497 	0 -0.214264 	-0.236264 	0 -0.214519 	-0.236156 	0 -0.214774 	-0.236049 	0 -0.215029 	-0.235941 	0 -0.215283 	-0.235834 	0 -0.21554 	-0.235726 	0 -0.215832 	-0.235604 	0 -0.216123 	-0.235482 	0 -0.216415 	-0.23536 	0 -0.216707 	-0.235238 	0 -0.216995 	-0.235118 	0 -0.217535 	-0.234895 	0 -0.218075 	-0.234673 	0 -0.218612 	-0.234445 	0 -0.219149 	-0.234218 	0 -0.219675 	-0.233994 	0 -0.220114 	-0.233811 	0 -0.220553 	-0.233627 	0 -0.220992 	-0.233443 	0 -0.22143 	-0.233259 	0 -0.221873 	-0.233072 	0 -0.221957 	-0.233037 	0 -0.222041 	-0.233002 	0 -0.222125 	-0.232967 	0 -0.222209 	-0.232932 	0 -0.222293 	-0.232897 	0 -0.222813 	-0.232683 	0 -0.223332 	-0.232466 	0 -0.22385 	-0.232249 	0 -0.224367 	-0.232031 	0 -0.224875 	-0.231817 	0 -0.225382 	-0.231607 	0 -0.225888 	-0.231397 	0 -0.226394 	-0.231186 	0 -0.226899 	-0.230975 	0 -0.227394 	-0.230763 	0 -0.227571 	-0.230688 	0 -0.227748 	-0.230613 	0 -0.227925 	-0.230539 	0 -0.228102 	-0.230464 	0 -0.22828 	-0.230389 	0 -0.228599 	-0.230256 	0 -0.228918 	-0.230124 	0 -0.229237 	-0.229991 	0 -0.229555 	-0.229858 	0 -0.229871 	-0.229727 	0 -0.23036 	-0.229526 	0 -0.230849 	-0.229326 	0 -0.231336 	-0.22912 	0 -0.231823 	-0.228914 	0 -0.232302 	-0.228711 	0 -0.232778 	-0.228513 	0 -0.233254 	-0.228314 	0 -0.23373 	-0.228116 	0 -0.234205 	-0.227917 	0 -0.234673 	-0.22772 	0 -0.234689 	-0.227713 	0 -0.234706 	-0.227705 	0 -0.234724 	-0.227698 	0 -0.234741 	-0.227691 	0 -0.234758 	-0.227684 	0 -0.235212 	-0.227495 	0 -0.235666 	-0.227306 	0 -0.23612 	-0.227117 	0 -0.236573 	-0.226928 	0 -0.23702 	-0.226741 	0 -0.237481 	-0.226552 	0 -0.237942 	-0.226363 	0 -0.238401 	-0.226172 	0 -0.23886 	-0.225977 	0 -0.239312 	-0.225785 	0 -0.239707 	-0.225619 	0 -0.240103 	-0.225454 	0 -0.240498 	-0.225289 	0 -0.240893 	-0.225123 	0 -0.241292 	-0.224955 	0 -0.241344 	-0.224934 	0 -0.241395 	-0.224912 	0 -0.241447 	-0.224891 	0 -0.241499 	-0.22487 	0 -0.241551 	-0.224848 	0 -0.241997 	-0.224665 	0 -0.242442 	-0.22448 	0 -0.242886 	-0.224294 	0 -0.24333 	-0.224108 	0 -0.243768 	-0.223925 	0 -0.244203 	-0.223746 	0 -0.244638 	-0.223568 	0 -0.245072 	-0.223388 	0 -0.245504 	-0.223204 	0 -0.245932 	-0.223021 	0 -0.24632 	-0.222859 	0 -0.246708 	-0.222697 	0 -0.247095 	-0.222534 	0 -0.247482 	-0.222372 	0 -0.247874 	-0.222207 	0 -0.247908 	-0.222193 	0 -0.247942 	-0.222179 	0 -0.247976 	-0.222165 	0 -0.24801 	-0.222151 	0 -0.248045 	-0.222137 	0 -0.248466 	-0.221963 	0 -0.248887 	-0.221788 	0 -0.249307 	-0.221612 	0 -0.249726 	-0.221437 	0 -0.250141 	-0.221263 	0 -0.250552 	-0.221095 	0 -0.250963 	-0.220927 	0 -0.251373 	-0.220755 	0 -0.251782 	-0.220581 	0 -0.252186 	-0.220408 	0 -0.252586 	-0.220241 	0 -0.252987 	-0.220073 	0 -0.253387 	-0.219906 	0 -0.253786 	-0.219738 	0 -0.254181 	-0.21957 	0 -0.254242 	-0.219544 	0 -0.254303 	-0.219517 	0 -0.254364 	-0.219491 	0 -0.254426 	-0.219465 	0 -0.254488 	-0.219439 	0 -0.254822 	-0.2193 	0 -0.255157 	-0.21916 	0 -0.255492 	-0.219021 	0 -0.255826 	-0.218881 	0 -0.256158 	-0.218743 	0 -0.256547 	-0.218584 	0 -0.256935 	-0.218424 	0 -0.257323 	-0.218259 	0 -0.257709 	-0.218094 	0 -0.258093 	-0.217931 	0 -0.258472 	-0.217773 	0 -0.25885 	-0.217615 	0 -0.259229 	-0.217457 	0 -0.259606 	-0.217298 	0 -0.25998 	-0.217135 	0 -0.260206 	-0.217038 	0 -0.260432 	-0.216942 	0 -0.260659 	-0.216845 	0 -0.260885 	-0.216748 	0 -0.261113 	-0.216651 	0 -0.261257 	-0.216591 	0 -0.261401 	-0.216531 	0 -0.261546 	-0.216471 	0 -0.26169 	-0.216411 	0 -0.261834 	-0.216351 	0 -0.262202 	-0.2162 	0 -0.26257 	-0.216045 	0 -0.262937 	-0.215889 	0 -0.263303 	-0.215733 	0 -0.263667 	-0.215579 	0 -0.264025 	-0.21543 	0 -0.264384 	-0.215281 	0 -0.264742 	-0.21513 	0 -0.265099 	-0.214975 	0 -0.265454 	-0.21482 	0 -0.265803 	-0.214672 	0 -0.266153 	-0.214524 	0 -0.266502 	-0.214375 	0 -0.26685 	-0.214226 	0 -0.267196 	-0.214075 	0 -0.267302 	-0.214029 	0 -0.267408 	-0.213982 	0 -0.267514 	-0.213936 	0 -0.26762 	-0.21389 	0 -0.267728 	-0.213844 	0 -0.267966 	-0.213743 	0 -0.268205 	-0.213642 	0 -0.268444 	-0.213541 	0 -0.268682 	-0.21344 	0 -0.26892 	-0.21334 	0 -0.26926 	-0.2132 	0 -0.2696 	-0.213055 	0 -0.269939 	-0.212908 	0 -0.270277 	-0.212761 	0 -0.270614 	-0.212616 	0 -0.270944 	-0.212476 	0 -0.271276 	-0.212336 	0 -0.271606 	-0.212196 	0 -0.271936 	-0.212049 	0 -0.272264 	-0.211903 	0 -0.272586 	-0.211763 	0 -0.272909 	-0.211623 	0 -0.273231 	-0.211483 	0 -0.273552 	-0.211343 	0 -0.273872 	-0.211201 	0 -0.273957 	-0.211163 	0 -0.274043 	-0.211125 	0 -0.274129 	-0.211086 	0 -0.274215 	-0.211048 	0 -0.274302 	-0.21101 	0 -0.274535 	-0.210909 	0 -0.274768 	-0.210809 	0 -0.275001 	-0.210709 	0 -0.275234 	-0.210608 	0 -0.275466 	-0.210508 	0 -0.27578 	-0.210377 	0 -0.276094 	-0.21024 	0 -0.276407 	-0.210102 	0 -0.27672 	-0.209963 	0 -0.277031 	-0.209825 	0 -0.277336 	-0.209694 	0 -0.277642 	-0.209562 	0 -0.277947 	-0.209429 	0 -0.278252 	-0.20929 	0 -0.278555 	-0.209152 	0 -0.278852 	-0.20902 	0 -0.27915 	-0.208888 	0 -0.279447 	-0.208756 	0 -0.279744 	-0.208624 	0 -0.280039 	-0.208487 	0 -0.28019 	-0.208418 	0 -0.280342 	-0.208348 	0 -0.280494 	-0.208279 	0 -0.280645 	-0.20821 	0 -0.280799 	-0.20814 	0 -0.280939 	-0.208078 	0 -0.281079 	-0.208016 	0 -0.28122 	-0.207954 	0 -0.281361 	-0.207892 	0 -0.281502 	-0.207831 	0 -0.281791 	-0.207705 	0 -0.282081 	-0.207575 	0 -0.28237 	-0.207444 	0 -0.282659 	-0.207314 	0 -0.282947 	-0.207184 	0 -0.283228 	-0.20706 	0 -0.28351 	-0.206936 	0 -0.283792 	-0.206806 	0 -0.284073 	-0.206675 	0 -0.284353 	-0.206544 	0 -0.284627 	-0.20642 	0 -0.284901 	-0.206296 	0 -0.285175 	-0.206171 	0 -0.285448 	-0.206043 	0 -0.285721 	-0.205912 	0 -0.285987 	-0.205787 	0 -0.286254 	-0.205663 	0 -0.28652 	-0.205538 	0 -0.286786 	-0.205413 	0 -0.287052 	-0.205287 	0 -0.287076 	-0.205275 	0 -0.2871 	-0.205263 	0 -0.287125 	-0.205251 	0 -0.287151 	-0.205239 	0 -0.287176 	-0.205228 	0 -0.287417 	-0.205116 	0 -0.287658 	-0.205005 	0 -0.2879 	-0.204894 	0 -0.288141 	-0.204783 	0 -0.288382 	-0.204673 	0 -0.288641 	-0.204557 	0 -0.288901 	-0.204435 	0 -0.289161 	-0.204312 	0 -0.28942 	-0.204188 	0 -0.289679 	-0.204066 	0 -0.289931 	-0.203949 	0 -0.290183 	-0.203833 	0 -0.290436 	-0.203713 	0 -0.290688 	-0.203589 	0 -0.29094 	-0.203466 	0 -0.291185 	-0.20335 	0 -0.29143 	-0.203233 	0 -0.291675 	-0.203116 	0 -0.29192 	-0.202998 	0 -0.292165 	-0.202874 	0 -0.292402 	-0.202757 	0 -0.292641 	-0.202641 	0 -0.292879 	-0.202524 	0 -0.293117 	-0.202407 	0 -0.293354 	-0.20229 	0 -0.293358 	-0.202288 	0 -0.293363 	-0.202285 	0 -0.293368 	-0.202283 	0 -0.293373 	-0.202281 	0 -0.293378 	-0.202278 	0 -0.293612 	-0.202166 	0 -0.293847 	-0.202055 	0 -0.294081 	-0.201943 	0 -0.294316 	-0.201831 	0 -0.294549 	-0.20172 	0 -0.294781 	-0.201614 	0 -0.295014 	-0.201502 	0 -0.295246 	-0.201388 	0 -0.295479 	-0.201275 	0 -0.295711 	-0.201162 	0 -0.295936 	-0.201056 	0 -0.296161 	-0.200951 	0 -0.296387 	-0.20084 	0 -0.296613 	-0.200727 	0 -0.296839 	-0.200615 	0 -0.297057 	-0.200511 	0 -0.297275 	-0.200406 	0 -0.297494 	-0.200302 	0 -0.297713 	-0.200194 	0 -0.297932 	-0.200083 	0 -0.298144 	-0.199981 	0 -0.298356 	-0.199878 	0 -0.298568 	-0.199776 	0 -0.29878 	-0.199674 	0 -0.298993 	-0.199569 	0 -0.299062 	-0.199535 	0 -0.299132 	-0.199501 	0 -0.299202 	-0.199467 	0 -0.299272 	-0.199434 	0 -0.299343 	-0.1994 	0 -0.299483 	-0.199336 	0 -0.299624 	-0.199273 	0 -0.299765 	-0.199209 	0 -0.299906 	-0.199145 	0 -0.300048 	-0.199082 	0 -0.300254 	-0.198995 	0 -0.300462 	-0.198902 	0 -0.30067 	-0.19881 	0 -0.300877 	-0.198717 	0 -0.301085 	-0.198625 	0 -0.301284 	-0.198546 	0 -0.301485 	-0.198465 	0 -0.301687 	-0.198378 	0 -0.301888 	-0.19829 	0 -0.30209 	-0.198204 	0 -0.302283 	-0.198131 	0 -0.302477 	-0.198059 	0 -0.302671 	-0.197986 	0 -0.302867 	-0.197906 	0 -0.303063 	-0.197827 	0 -0.30325 	-0.197764 	0 -0.303438 	-0.197701 	0 -0.303626 	-0.197638 	0 -0.303814 	-0.197575 	0 -0.304004 	-0.197505 	0 -0.304186 	-0.197454 	0 -0.304368 	-0.197404 	0 -0.30455 	-0.197353 	0 -0.304732 	-0.197303 	0 -0.304915 	-0.197253 	0 -0.304929 	-0.197249 	0 -0.304944 	-0.197246 	0 -0.30496 	-0.197243 	0 -0.304975 	-0.197241 	0 -0.304991 	-0.197238 	0 -0.305159 	-0.197209 	0 -0.305327 	-0.197181 	0 -0.305496 	-0.197153 	0 -0.305665 	-0.197125 	0 -0.305834 	-0.197098 	0 -0.30601 	-0.197094 	0 -0.306189 	-0.197084 	0 -0.306368 	-0.197073 	0 -0.306547 	-0.197062 	0 -0.306727 	-0.197053 	0 -0.306896 	-0.197075 	0 -0.307068 	-0.197098 	0 -0.307241 	-0.197113 	0 -0.307415 	-0.197127 	0 -0.307589 	-0.197142 	0 -0.307754 	-0.197196 	0 -0.307919 	-0.197251 	0 -0.308085 	-0.197305 	0 -0.308253 	-0.197351 	0 -0.308422 	-0.197397 	0 -0.308581 	-0.197489 	0 -0.308741 	-0.197583 	0 -0.308901 	-0.197676 	0 -0.309062 	-0.197768 	0 -0.309226 	-0.197853 	0 -0.309379 	-0.197991 	0 -0.309534 	-0.198132 	0 -0.309689 	-0.198272 	0 -0.309844 	-0.198412 	0 -0.310001 	-0.198552 	0 -0.310037 	-0.198599 	0 -0.310074 	-0.198648 	0 -0.310112 	-0.198697 	0 -0.310149 	-0.198747 	0 -0.310187 	-0.198798 	0 -0.310305 	-0.198947 	0 -0.310423 	-0.199099 	0 -0.310541 	-0.19925 	0 -0.31066 	-0.199402 	0 -0.31078 	-0.199556 	0 -0.310928 	-0.199833 	0 -0.311081 	-0.200103 	0 -0.311233 	-0.200373 	0 -0.311386 	-0.200642 	0 -0.311541 	-0.200915 	0 -0.311683 	-0.201277 	0 -0.311827 	-0.201637 	0 -0.311975 	-0.201986 	0 -0.312123 	-0.202335 	0 -0.312273 	-0.202689 	0 -0.31241 	-0.203145 	0 -0.312548 	-0.203605 	0 -0.312688 	-0.204058 	0 -0.312832 	-0.2045 	0 -0.312977 	-0.204949 	0 -0.313109 	-0.205515 	0 -0.313242 	-0.206085 	0 -0.313376 	-0.206655 	0 -0.313512 	-0.207216 	0 -0.313654 	-0.207774 	0 -0.31378 	-0.208467 	0 -0.313909 	-0.209164 	0 -0.314037 	-0.209861 	0 -0.314167 	-0.210557 	0 -0.314302 	-0.211251 	0 -0.314377 	-0.211768 	0 -0.314454 	-0.21229 	0 -0.31453 	-0.212811 	0 -0.314607 	-0.213333 	0 -0.314685 	-0.213851 	0 -0.314735 	-0.214172 	0 -0.314786 	-0.214498 	0 -0.314838 	-0.214825 	0 -0.314889 	-0.215151 	0 -0.314942 	-0.215484 	0 -0.315065 	-0.216504 	0 -0.315192 	-0.217518 	0 -0.31532 	-0.218532 	0 -0.31545 	-0.219545 	0 -0.315583 	-0.220576 	0 -0.315696 	-0.2218 	0 -0.315817 	-0.223008 	0 -0.315941 	-0.224204 	0 -0.316066 	-0.225398 	0 -0.316195 	-0.226618 	0 -0.316304 	-0.228047 	0 -0.316416 	-0.229482 	0 -0.316533 	-0.230889 	0 -0.316655 	-0.232284 	0 -0.316781 	-0.233713 	0 -0.316885 	-0.235367 	0 -0.316991 	-0.237025 	0 -0.3171 	-0.23868 	0 -0.317215 	-0.240307 	0 -0.317338 	-0.241964 	0 -0.317437 	-0.24386 	0 -0.317539 	-0.245761 	0 -0.317643 	-0.247657 	0 -0.317749 	-0.24955 	0 -0.317865 	-0.251471 	0 -0.317922 	-0.25276 	0 -0.31798 	-0.254056 	0 -0.318039 	-0.25535 	0 -0.318098 	-0.256642 	0 -0.318157 	-0.257902 	0 -0.318202 	-0.258782 	0 -0.318248 	-0.25967 	0 -0.318294 	-0.260557 	0 -0.31834 	-0.261444 	0 -0.318388 	-0.26235 	0 -0.318483 	-0.264826 	0 -0.318585 	-0.26728 	0 -0.31