# vtk DataFile Version 2.0
track0
ASCII
DATASET POLYDATA
POINTS 12105 float
-0.0205 0.001 1e-05
-0.0204925 0.0011 1e-05
-0.0204848 0.00119999 1e-05
-0.020477 0.00129997 1e-05
-0.020469 0.00139994 1e-05
-0.0204609 0.0015 1e-05
-0.0204527 0.0016 1e-05
-0.0204443 0.00169999 1e-05
-0.0204357 0.00179996 1e-05
-0.0204269 0.00189991 1e-05
-0.020418 0.002 1e-05
-0.0204088 0.0021 1e-05
-0.0203995 0.00219998 1e-05
-0.02039 0.00229994 1e-05
-0.0203802 0.00239988 1e-05
-0.0203703 0.0025 1e-05
-0.0203601 0.0026 1e-05
-0.0203497 0.00269998 1e-05
-0.0203391 0.00279993 1e-05
-0.0203282 0.00289986 1e-05
-0.0203171 0.003 1e-05
-0.0203108 0.00305602 1e-05
-0.0203044 0.00311203 1e-05
-0.0202979 0.00316803 1e-05
-0.0202913 0.00322403 1e-05
-0.0202854 0.00327352 1e-05
-0.02028 0.00331881 1e-05
-0.0202745 0.00336411 1e-05
-0.0202689 0.00340939 1e-05
-0.0202633 0.00345467 1e-05
-0.0202577 0.0035 1e-05
-0.0202451 0.0036 1e-05
-0.0202323 0.00369997 1e-05
-0.0202192 0.0037999 1e-05
-0.0202058 0.0038998 1e-05
-0.0201922 0.004 1e-05
-0.0201783 0.0041 1e-05
-0.0201641 0.00419996 1e-05
-0.0201497 0.00429989 1e-05
-0.020135 0.00439977 1e-05
-0.02012 0.0045 1e-05
-0.0201047 0.0046 1e-05
-0.0200892 0.00469996 1e-05
-0.0200734 0.00479987 1e-05
-0.0200573 0.00489974 1e-05
-0.0200409 0.005 1e-05
-0.0200372 0.00502226 1e-05
-0.0200334 0.00504452 1e-05
-0.0200297 0.00506677 1e-05
-0.0200259 0.00508903 1e-05
-0.0200223 0.00511046 1e-05
-0.0200091 0.00518837 1e-05
-0.0199957 0.00526625 1e-05
-0.0199821 0.0053441 1e-05
-0.0199684 0.00542192 1e-05
-0.0199544 0.0055 1e-05
-0.0199363 0.0056 1e-05
-0.0199179 0.00569995 1e-05
-0.0198992 0.00579984 1e-05
-0.0198802 0.00589968 1e-05
-0.0198609 0.006 1e-05
-0.0198413 0.0061 1e-05
-0.0198214 0.00619994 1e-05
-0.0198013 0.00629983 1e-05
-0.0197808 0.00639966 1e-05
-0.0197614 0.00649322 1e-05
-0.0197611 0.00649458 1e-05
-0.0197608 0.00649593 1e-05
-0.0197605 0.00649729 1e-05
-0.0197602 0.00649864 1e-05
-0.0197599 0.0065 1e-05
-0.0197388 0.0066 1e-05
-0.0197175 0.00669994 1e-05
-0.0196958 0.00679981 1e-05
-0.0196738 0.00689962 1e-05
-0.0196514 0.007 1e-05
-0.0196288 0.0071 1e-05
-0.0196059 0.00719993 1e-05
-0.0195827 0.0072998 1e-05
-0.0195591 0.00739959 1e-05
-0.0195352 0.0075 1e-05
-0.0195286 0.00752701 1e-05
-0.0195221 0.00755401 1e-05
-0.0195155 0.007581 1e-05
-0.0195089 0.00760799 1e-05
-0.0195025 0.00763409 1e-05
-0.0194845 0.00770727 1e-05
-0.0194663 0.00778041 1e-05
-0.019448 0.00785352 1e-05
-0.0194295 0.00792658 1e-05
-0.0194107 0.008 1e-05
-0.0193849 0.0081 1e-05
-0.0193589 0.00819992 1e-05
-0.0193325 0.00829976 1e-05
-0.0193058 0.00839952 1e-05
-0.0192785 0.0085 1e-05
-0.019272 0.00852393 1e-05
-0.0192654 0.00854786 1e-05
-0.0192588 0.00857178 1e-05
-0.0192522 0.0085957 1e-05
-0.0192457 0.00861897 1e-05
-0.0192245 0.00869518 1e-05
-0.0192032 0.00877133 1e-05
-0.0191816 0.00884744 1e-05
-0.0191599 0.00892349 1e-05
-0.0191378 0.009 1e-05
-0.0191088 0.0091 1e-05
-0.0190794 0.00919991 1e-05
-0.0190497 0.00929972 1e-05
-0.0190196 0.00939945 1e-05
-0.018991 0.00949338 1e-05
-0.0189906 0.0094947 1e-05
-0.0189902 0.00949603 1e-05
-0.0189898 0.00949735 1e-05
-0.0189894 0.00949868 1e-05
-0.018989 0.0095 1e-05
-0.0189582 0.0096 1e-05
-0.0189271 0.0096999 1e-05
-0.0188957 0.0097997 1e-05
-0.018864 0.00989941 1e-05
-0.0188316 0.01 1e-05
-0.0188129 0.0100573 1e-05
-0.0187942 0.0101145 1e-05
-0.0187754 0.0101718 1e-05
-0.0187564 0.0102289 1e-05
-0.0187384 0.0102829 1e-05
-0.0187238 0.0103263 1e-05
-0.0187092 0.0103697 1e-05
-0.0186945 0.0104131 1e-05
-0.0186798 0.0104565 1e-05
-0.0186649 0.0105 1e-05
-0.0186306 0.0106 1e-05
-0.0185959 0.0106999 1e-05
-0.018561 0.0107997 1e-05
-0.0185257 0.0108993 1e-05
-0.0184896 0.011 1e-05
-0.0184893 0.011001 1e-05
-0.0184889 0.011002 1e-05
-0.0184885 0.0110031 1e-05
-0.0184881 0.0110041 1e-05
-0.0184878 0.0110051 1e-05
-0.018452 0.0111041 1e-05
-0.0184158 0.0112029 1e-05
-0.0183794 0.0113017 1e-05
-0.0183426 0.0114003 1e-05
-0.0183051 0.0115 1e-05
-0.0182919 0.0115346 1e-05
-0.0182787 0.0115692 1e-05
-0.0182654 0.0116038 1e-05
-0.0182521 0.0116384 1e-05
-0.0182392 0.0116719 1e-05
-0.0182138 0.0117375 1e-05
-0.0181882 0.0118031 1e-05
-0.0181626 0.0118686 1e-05
-0.0181367 0.011934 1e-05
-0.0181105 0.012 1e-05
-0.0180869 0.012059 1e-05
-0.0180632 0.0121179 1e-05
-0.0180394 0.0121768 1e-05
-0.0180155 0.0122357 1e-05
-0.0179926 0.0122916 1e-05
-0.0179754 0.0123333 1e-05
-0.0179582 0.0123749 1e-05
-0.017941 0.0124166 1e-05
-0.0179237 0.0124582 1e-05
-0.0179062 0.0125 1e-05
-0.0178745 0.0125754 1e-05
-0.0178427 0.0126507 1e-05
-0.0178107 0.0127259 1e-05
-0.0177784 0.012801 1e-05
-0.017748 0.0128715 1e-05
-0.0177368 0.0128972 1e-05
-0.0177256 0.0129229 1e-05
-0.0177144 0.0129486 1e-05
-0.0177031 0.0129742 1e-05
-0.0176918 0.013 1e-05
-0.0176545 0.0130847 1e-05
-0.017617 0.0131693 1e-05
-0.0175792 0.0132538 1e-05
-0.0175411 0.0133382 1e-05
-0.0175053 0.0134169 1e-05
-0.0174977 0.0134335 1e-05
-0.0174901 0.0134501 1e-05
-0.0174825 0.0134668 1e-05
-0.0174749 0.0134834 1e-05
-0.0174672 0.0135 1e-05
-0.0174267 0.0135878 1e-05
-0.0173859 0.0136755 1e-05
-0.0173449 0.013763 1e-05
-0.0173035 0.0138504 1e-05
-0.0172647 0.013932 1e-05
-0.0172581 0.0139456 1e-05
-0.0172516 0.0139592 1e-05
-0.017245 0.0139728 1e-05
-0.0172385 0.0139864 1e-05
-0.0172319 0.014 1e-05
-0.0171907 0.0140853 1e-05
-0.0171493 0.0141704 1e-05
-0.0171075 0.0142554 1e-05
-0.0170656 0.0143403 1e-05
-0.0170259 0.0144198 1e-05
-0.0170179 0.0144359 1e-05
-0.0170098 0.0144519 1e-05
-0.0170018 0.0144679 1e-05
-0.0169937 0.0144839 1e-05
-0.0169856 0.0145 1e-05
-0.0169463 0.0145777 1e-05
-0.0169068 0.0146553 1e-05
-0.016867 0.0147328 1e-05
-0.0168271 0.0148102 1e-05
-0.0167891 0.0148832 1e-05
-0.0167769 0.0149066 1e-05
-0.0167646 0.0149299 1e-05
-0.0167524 0.0149533 1e-05
-0.0167401 0.0149766 1e-05
-0.0167277 0.015 1e-05
-0.016693 0.0150656 1e-05
-0.0166582 0.0151312 1e-05
-0.0166231 0.0151967 1e-05
-0.0165879 0.0152621 1e-05
-0.0165542 0.0153244 1e-05
-0.0165351 0.0153595 1e-05
-0.0165159 0.0153946 1e-05
-0.0164967 0.0154297 1e-05
-0.0164775 0.0154647 1e-05
-0.016458 0.0155 1e-05
-0.0164307 0.0155495 1e-05
-0.0164032 0.015599 1e-05
-0.0163756 0.0156484 1e-05
-0.016348 0.0156978 1e-05
-0.0163212 0.0157455 1e-05
-0.0162924 0.0157964 1e-05
-0.0162636 0.0158472 1e-05
-0.0162346 0.015898 1e-05
-0.0162056 0.0159488 1e-05
-0.0161761 0.016 1e-05
-0.0161589 0.0160298 1e-05
-0.0161417 0.0160596 1e-05
-0.0161244 0.0160894 1e-05
-0.016107 0.0161192 1e-05
-0.01609 0.0161483 1e-05
-0.0160489 0.0162187 1e-05
-0.0160076 0.0162889 1e-05
-0.015966 0.016359 1e-05
-0.0159243 0.016429 1e-05
-0.0158818 0.0165 1e-05
-0.0158776 0.016507 1e-05
-0.0158734 0.016514 1e-05
-0.0158692 0.0165209 1e-05
-0.0158649 0.0165279 1e-05
-0.0158607 0.0165348 1e-05
-0.0158153 0.01661 1e-05
-0.0157696 0.0166851 1e-05
-0.0157236 0.0167601 1e-05
-0.0156775 0.0168349 1e-05
-0.0156333 0.0169061 1e-05
-0.0156216 0.0169248 1e-05
-0.0156098 0.0169436 1e-05
-0.0155981 0.0169624 1e-05
-0.0155863 0.0169812 1e-05
-0.0155745 0.017 1e-05
-0.0155411 0.017053 1e-05
-0.0155077 0.0171059 1e-05
-0.0154741 0.0171587 1e-05
-0.0154404 0.0172115 1e-05
-0.0154077 0.0172625 1e-05
-0.0153771 0.01731 1e-05
-0.0153465 0.0173575 1e-05
-0.0153157 0.0174048 1e-05
-0.0152849 0.0174522 1e-05
-0.0152536 0.0175 1e-05
-0.0152396 0.0175212 1e-05
-0.0152257 0.0175424 1e-05
-0.0152117 0.0175636 1e-05
-0.0151977 0.0175848 1e-05
-0.0151839 0.0176056 1e-05
-0.0151395 0.0176726 1e-05
-0.015095 0.0177395 1e-05
-0.0150502 0.0178062 1e-05
-0.0150053 0.0178729 1e-05
-0.0149619 0.0179368 1e-05
-0.0149533 0.0179494 1e-05
-0.0149447 0.0179621 1e-05
-0.0149361 0.0179747 1e-05
-0.0149274 0.0179873 1e-05
-0.0149188 0.018 1e-05
-0.0148834 0.0180517 1e-05
-0.0148479 0.0181033 1e-05
-0.0148122 0.0181548 1e-05
-0.0147765 0.0182062 1e-05
-0.0147417 0.0182561 1e-05
-0.0147076 0.0183049 1e-05
-0.0146733 0.0183536 1e-05
-0.014639 0.0184023 1e-05
-0.0146046 0.0184508 1e-05
-0.0145696 0.0185 1e-05
-0.0145603 0.0185129 1e-05
-0.0145511 0.0185259 1e-05
-0.0145418 0.0185388 1e-05
-0.0145325 0.0185518 1e-05
-0.0145233 0.0185646 1e-05
-0.01448 0.0186249 1e-05
-0.0144365 0.0186851 1e-05
-0.0143929 0.0187452 1e-05
-0.0143491 0.0188052 1e-05
-0.0143067 0.0188631 1e-05
-0.0142865 0.0188905 1e-05
-0.0142663 0.0189179 1e-05
-0.0142461 0.0189452 1e-05
-0.0142258 0.0189725 1e-05
-0.0142054 0.019 1e-05
-0.0141827 0.0190305 1e-05
-0.0141599 0.019061 1e-05
-0.0141371 0.0190914 1e-05
-0.0141143 0.0191219 1e-05
-0.0140917 0.0191518 1e-05
-0.0140491 0.0192083 1e-05
-0.0140063 0.0192647 1e-05
-0.0139635 0.019321 1e-05
-0.0139204 0.0193772 1e-05
-0.0138786 0.0194317 1e-05
-0.013868 0.0194454 1e-05
-0.0138575 0.019459 1e-05
-0.0138469 0.0194727 1e-05
-0.0138363 0.0194863 1e-05
-0.0138257 0.0195 1e-05
-0.013794 0.0195408 1e-05
-0.0137622 0.0195816 1e-05
-0.0137303 0.0196224 1e-05
-0.0136984 0.0196631 1e-05
-0.0136671 0.0197029 1e-05
-0.0136251 0.019756 1e-05
-0.0135831 0.019809 1e-05
-0.0135409 0.019862 1e-05
-0.0134986 0.0199148 1e-05
-0.0134573 0.0199662 1e-05
-0.0134519 0.019973 1e-05
-0.0134464 0.0199797 1e-05
-0.013441 0.0199865 1e-05
-0.0134355 0.0199932 1e-05
-0.01343 0.02 1e-05
-0.0133939 0.0200447 1e-05
-0.0133576 0.0200893 1e-05
-0.0133213 0.0201338 1e-05
-0.0132849 0.0201783 1e-05
-0.0132493 0.0202218 1e-05
-0.013208 0.0202719 1e-05
-0.0131666 0.0203219 1e-05
-0.0131251 0.0203718 1e-05
-0.0130835 0.0204216 1e-05
-0.0130429 0.0204702 1e-05
-0.0130378 0.0204762 1e-05
-0.0130328 0.0204821 1e-05
-0.0130278 0.0204881 1e-05
-0.0130228 0.020494 1e-05
-0.0130178 0.0205 1e-05
-0.0129818 0.0205426 1e-05
-0.0129458 0.0205852 1e-05
-0.0129098 0.0206277 1e-05
-0.0128736 0.0206701 1e-05
-0.0128381 0.0207116 1e-05
-0.0127975 0.020759 1e-05
-0.0127568 0.0208063 1e-05
-0.012716 0.0208535 1e-05
-0.0126751 0.0209006 1e-05
-0.012635 0.0209466 1e-05
-0.0126257 0.0209573 1e-05
-0.0126164 0.020968 1e-05
-0.012607 0.0209786 1e-05
-0.0125977 0.0209893 1e-05
-0.0125883 0.021 1e-05
-0.0125573 0.0210352 1e-05
-0.0125263 0.0210704 1e-05
-0.0124953 0.0211056 1e-05
[...]
POINT_DATA 12105
 FIELD attributes 2
p 1 12105 float
-0.00629539 -0.00691955 -0.00754268 -0.00816556 -0.00878839 -0.0094126 -0.0100342 -0.0106548 -0.0112738 -0.0118927 -0.0125116 -0.0131099 -0.0137079 -0.0143058 -0.0149022 -0.0154994 -0.0160936 -0.0166876 -0.0172816 -0.0178754 -0.0184694 -0.0187999 -0.01913 -0.0194601 -0.0197902 -0.0200817 -0.020349 -0.0206162 -0.0208833 -0.0211505 -0.0214178 -0.0220017 -0.0225846 -0.0231674 -0.0237501 -0.0243347 -0.0249131 -0.0254914 -0.0260688 -0.0266457 -0.0272246 -0.0277979 -0.0283712 -0.0289444 -0.0295174 -0.0300922 -0.030219 -0.0303457 -0.0304724 -0.0305991 -0.0307211 -0.0311652 -0.0316088 -0.0320524 -0.0324958 -0.0329406 -0.0335074 -0.0340738 -0.0346391 -0.0352043 -0.0357721 -0.0363357 -0.0368989 -0.0374619 -0.0380247 -0.0385521 -0.0385597 -0.0385674 -0.038575 -0.0385827 -0.0385903 -0.0391508 -0.0397112 -0.0402714 -0.0408314 -0.0413948 -0.0419539 -0.0425127 -0.0430713 -0.0436295 -0.0441908 -0.0443411 -0.0444916 -0.044642 -0.0447924 -0.0449379 -0.0453459 -0.0457536 -0.0461611 -0.0465686 -0.0469779 -0.0475346 -0.0480907 -0.0486465 -0.0492019 -0.0497608 -0.0498939 -0.0500268 -0.0501597 -0.0502926 -0.0504218 -0.050845 -0.0512682 -0.0516912 -0.0521141 -0.0525397 -0.0530952 -0.0536505 -0.0542055 -0.0547601 -0.0552827 -0.0552901 -0.0552976 -0.055305 -0.0553123 -0.0553196 -0.055875 -0.0564299 -0.0569844 -0.0575386 -0.0580977 -0.0584166 -0.0587352 -0.0590536 -0.0593719 -0.0596722 -0.0599137 -0.0601551 -0.0603965 -0.0606378 -0.0608803 -0.0614372 -0.0619938 -0.06255 -0.0631058 -0.0636675 -0.0636732 -0.0636789 -0.0636846 -0.0636903 -0.0636961 -0.0642486 -0.0648004 -0.0653518 -0.0659027 -0.0664595 -0.0666537 -0.0668476 -0.0670414 -0.0672352 -0.0674229 -0.0677899 -0.0681569 -0.0685237 -0.0688902 -0.0692598 -0.0695914 -0.0699229 -0.0702542 -0.0705853 -0.0709002 -0.0711344 -0.0713684 -0.0716023 -0.071836 -0.0720709 -0.0724963 -0.0729212 -0.0733457 -0.0737698 -0.0741678 -0.0743125 -0.0744573 -0.074602 -0.0747468 -0.0748922 -0.0753721 -0.0758516 -0.0763307 -0.0768093 -0.0772563 -0.0773504 -0.0774444 -0.0775384 -0.0776323 -0.0777264 -0.0782259 -0.0787247 -0.0792229 -0.0797205 -0.0801846 -0.0802617 -0.0803389 -0.0804161 -0.0804933 -0.0805709 -0.0810579 -0.0815447 -0.0820308 -0.0825162 -0.0829714 -0.0830628 -0.0831541 -0.0832454 -0.0833367 -0.0834281 -0.0838741 -0.0843194 -0.0847641 -0.0852083 -0.0856274 -0.0857607 -0.0858941 -0.0860275 -0.0861608 -0.0862949 -0.086673 -0.0870511 -0.0874287 -0.0878059 -0.088166 -0.0883674 -0.0885687 -0.0887699 -0.0889709 -0.0891732 -0.0894601 -0.0897465 -0.0900326 -0.0903184 -0.0905942 -0.090887 -0.0911796 -0.0914719 -0.0917639 -0.0920589 -0.092232 -0.0924054 -0.0925786 -0.0927518 -0.0929219 -0.0933279 -0.0937332 -0.094138 -0.0945422 -0.0949521 -0.0949931 -0.0950338 -0.0950745 -0.0951152 -0.0951554 -0.0955907 -0.0960253 -0.0964591 -0.0968922 -0.0973045 -0.0974126 -0.0975202 -0.0976278 -0.0977354 -0.097843 -0.0981504 -0.0984575 -0.0987642 -0.0990704 -0.0993665 -0.0996389 -0.0999115 -0.100184 -0.100456 -0.100731 -0.100854 -0.100977 -0.1011 -0.101224 -0.101345 -0.10173 -0.102114 -0.102497 -0.10288 -0.103247 -0.103318 -0.10339 -0.103461 -0.103533 -0.103605 -0.103901 -0.104198 -0.104494 -0.10479 -0.105077 -0.105353 -0.105628 -0.105903 -0.106178 -0.106456 -0.10653 -0.106604 -0.106679 -0.106753 -0.106826 -0.107166 -0.107506 -0.107845 -0.108184 -0.108511 -0.108663 -0.108814 -0.108965 -0.109116 -0.109267 -0.109438 -0.10961 -0.109781 -0.109952 -0.11012 -0.11043 -0.110741 -0.111051 -0.11136 -0.111661 -0.111734 -0.111808 -0.111881 -0.111954 -0.112028 -0.112252 -0.112475 -0.112698 -0.11292 -0.113136 -0.113419 -0.113702 -0.113983 -0.114264 -0.114538 -0.114574 -0.114608 -0.114643 -0.114678 -0.114712 -0.114948 -0.115183 -0.115418 -0.115652 -0.115881 -0.116136 -0.116391 -0.116646 -0.116899 -0.117148 -0.117177 -0.117207 -0.117236 -0.117265 -0.117295 -0.117511 -0.117725 -0.117938 -0.118151 -0.118358 -0.118587 -0.118816 -0.119043 -0.11927 -0.119493 -0.119543 -0.119593 -0.119642 -0.119691 -0.119739 -0.119906 -0.120072 -0.120238 -0.120404 -0.120567 -0.120768 -0.120969 -0.12117 -0.121372 -0.121571 -0.121657 -0.121744 -0.121831 -0.121918 -0.122005 -0.122107 -0.122208 -0.122308 -0.122408 -0.122506 -0.122681 -0.122856 -0.123032 -0.123207 -0.123379 -0.123514 -0.123646 -0.123779 -0.123911 -0.124042 -0.124067 -0.124093 -0.124119 -0.124144 -0.12417 -0.124317 -0.124467 -0.124616 -0.124765 -0.124912 -0.125043 -0.125175 -0.125305 -0.125436 -0.125567 -0.125607 -0.125649 -0.125691 -0.125733 -0.125777 -0.125855 -0.125933 -0.12601 -0.126087 -0.126163 -0.126269 -0.126373 -0.126479 -0.126584 -0.126686 -0.126776 -0.126864 -0.126953 -0.12704 -0.127126 -0.12713 -0.127133 -0.127135 -0.127137 -0.127139 -0.127215 -0.12729 -0.127365 -0.127439 -0.127512 -0.127569 -0.127628 -0.127689 -0.127751 -0.127814 -0.127852 -0.127891 -0.127929 -0.127966 -0.128004 -0.128011 -0.128017 -0.128023 -0.128028 -0.128031 -0.128065 -0.128099 -0.128133 -0.128166 -0.128198 -0.128214 -0.128227 -0.128241 -0.128259 -0.128273 -0.128272 -0.128271 -0.128269 -0.128267 -0.128263 -0.128262 -0.128261 -0.128261 -0.128261 -0.128264 -0.128249 -0.128236 -0.128222 -0.128208 -0.128194 -0.128156 -0.128121 -0.12809 -0.12806 -0.128034 -0.127982 -0.127931 -0.12788 -0.127827 -0.127778 -0.127765 -0.127755 -0.127744 -0.127734 -0.127727 -0.127676 -0.127624 -0.127573 -0.127521 -0.127468 -0.127386 -0.127303 -0.127226 -0.127148 -0.127067 -0.126967 -0.126867 -0.126766 -0.126667 -0.126574 -0.126505 -0.126434 -0.126362 -0.12629 -0.126214 -0.12617 -0.126126 -0.126082 -0.126037 -0.125994 -0.125855 -0.125726 -0.125597 -0.125468 -0.125342 -0.125186 -0.12503 -0.124878 -0.124731 -0.124586 -0.124412 -0.124241 -0.124069 -0.123897 -0.123736 -0.123677 -0.123618 -0.12356 -0.123501 -0.123442 -0.123318 -0.123191 -0.123064 -0.122937 -0.122807 -0.122595 -0.122394 -0.122194 -0.121994 -0.121795 -0.121569 -0.12134 -0.121111 -0.120893 -0.120673 -0.120428 -0.120184 -0.119939 -0.119693 -0.119455 -0.119387 -0.119315 -0.119243 -0.119171 -0.119096 -0.118908 -0.118718 -0.118528 -0.118338 -0.118148 -0.117855 -0.117576 -0.1173 -0.117023 -0.116751 -0.116443 -0.116133 -0.115828 -0.115533 -0.115238 -0.11491 -0.114585 -0.114259 -0.113933 -0.113624 -0.113445 -0.113265 -0.113085 -0.112905 -0.112722 -0.112564 -0.112402 -0.11224 -0.112078 -0.111913 -0.111542 -0.111186 -0.110829 -0.110471 -0.110117 -0.109727 -0.109334 -0.108956 -0.108581 -0.108204 -0.107792 -0.107382 -0.106972 -0.106571 -0.106183 -0.105758 -0.10533 -0.104901 -0.104472 -0.104044 -0.103999 -0.103957 -0.103915 -0.103873 -0.103832 -0.103427 -0.103024 -0.102622 -0.102218 -0.101819 -0.101337 -0.100868 -0.100404 -0.0999391 -0.0994729 -0.098968 -0.0984651 -0.0979737 -0.0974931 -0.0970167 -0.0964982 -0.0959752 -0.0954518 -0.0949343 -0.0944325 -0.0938925 -0.0933542 -0.0928155 -0.0922765 -0.0917422 -0.0917321 -0.0917201 -0.0917081 -0.0916961 -0.0916841 -0.0911387 -0.09059 -0.0900409 -0.0894915 -0.088941 -0.0883335 -0.0877532 -0.0871775 -0.0866015 -0.0860319 -0.0854098 -0.0847841 -0.084177 -0.0835797 -0.0829811 -0.0823361 -0.0816955 -0.0810547 -0.0804285 -0.0798239 -0.0791653 -0.0785027 -0.0778397 -0.0771765 -0.0765234 -0.0762883 -0.0760581 -0.0758278 -0.0755975 -0.0753715 -0.0749195 -0.0744696 -0.0740197 -0.0735696 -0.0731227 -0.0724013 -0.0716976 -0.0709937 -0.0702894 -0.0695805 -0.068823 -0.0680745 -0.0673537 -0.0666326 -0.065916 -0.0651504 -0.0643776 -0.0636096 -0.0628722 -0.0621299 -0.0613336 -0.0605393 -0.0597447 -0.0589538 -0.0581997 -0.0573963 -0.0565859 -0.0557753 -0.0549645 -0.0541521 -0.0540786 -0.0540073 -0.0539362 -0.0538651 -0.0537941 -0.0530225 -0.0522551 -0.0514874 -0.0507197 -0.0499575 -0.0490726 -0.0482219 -0.047371 -0.04652 -0.0456666 -0.0447447 -0.0438302 -0.0429542 -0.0420781 -0.041206 -0.0402776 -0.0393453 -0.0384188 -0.0375302 -0.0366383 -0.0356787 -0.0347207 -0.0337626 -0.0328126 -0.0319014 -0.0309333 -0.0299614 -0.0289895 -0.0280176 -0.027052 -0.0268031 -0.0265547 -0.0263064 -0.0260582 -0.0258106 -0.0250567 -0.0243031 -0.0235495 -0.022796 -0.0220419 -0.0209891 -0.0199681 -0.0189472 -0.0179266 -0.0168991 -0.0158042 -0.0147289 -0.0136869 -0.0126451 -0.0115996 -0.0104914 -0.00937951 -0.00829144 -0.00723345 -0.00616609 -0.00503388 -0.00390212 -0.00277094 -0.00166774 -0.00058364 0.000563496 0.0017139 0.00286358 0.00401253 0.00514341 0.0058691 0.00659466 0.00731987 0.00804474 0.00875851 0.00921206 0.00966727 0.0101224 0.0105773 0.0110359 0.0122586 0.0134642 0.0146687 0.0158722 0.0170968 0.0183817 0.0196265 0.0208507 0.0220737 0.0233183 0.0246211 0.0259281 0.0271914 0.0284349 0.029708 0.0310353 0.0323632 0.0336891 0.0349717 0.0362658 0.0376096 0.0389574 0.0403028 0.041646 0.0429912 0.0438101 0.0446309 0.0454507 0.0462695 0.0470658 0.0476343 0.0482028 0.0487709 0.0493386 0.0499137 0.0513588 0.0527748 0.0541881 0.0555984 0.0570623 0.0585721 0.0600526 0.0614896 0.0629234 0.064415 0.065952 0.0674895 0.0690122 0.0704762 0.0720107 0.0735794 0.0751442 0.0767044 0.07826 0.0798363 0.080853 0.0818736 0.0828921 0.0839086 0.0848937 0.0855092 0.086132 0.0867541 0.0873755 0.0880176 0.089747 0.0914351 0.0931178 0.0947952 0.0965758 0.0983692 0.100164 0.101888 0.103601 0.105434 0.107226 0.109012 0.110791 0.112549 0.114375 0.115618 0.116863 0.118105 0.119344 0.120546 0.121087 0.121632 0.122176 0.12272 0.12328 0.125192 0.127062 0.128925 0.130782 0.132787 0.135036 0.137291 0.139506 0.141666 0.144019 0.146506 0.148983 0.151448 0.153901 0.156549 0.156696 0.156832 0.156967 0.157099 0.157231 0.159349 0.161448 0.163536 0.165614 0.167914 0.17077 0.173629 0.176484 0.179334 0.182062 0.183078 0.184102 0.185124 0.186147 0.187224 0.190579 0.193935 0.197283 0.200624 0.203835 0.205142 0.206455 0.207767 0.209079 0.210474 0.213751 0.217027 0.220297 0.223562 0.226746 0.22906 0.231377 0.233692 0.236004 0.238528 0.240938 0.243345 0.24575 0.248152 0.250521 0.254634 0.25874 0.26284 0.266933 0.271625 0.272315 0.273006 0.273697 0.274387 0.275076 0.280127 0.285141 0.290122 0.295093 0.299966 0.302088 0.304206 0.306323 0.308439 0.310703 0.313647 0.316588 0.319526 0.322462 0.325371 0.330535 0.335688 0.340833 0.345951 0.350942 0.352162 0.353374 0.354585 0.355796 0.357053 0.360817 0.364568 0.368314 0.372055 0.375753 0.380444 0.385111 0.389769 0.394397 0.398945 0.400835 0.402702 0.404566 0.406429 0.408464 0.410606 0.412723 0.414837 0.416949 0.419025 0.422179 0.425313 0.428471 0.431621 0.434707 0.43681 0.438868 0.440917 0.442956 0.445035 0.445513 0.445951 0.446386 0.44682 0.447285 0.447701 0.448079 0.448455 0.44883 0.449166 0.448654 0.448239 0.44782 0.447398 0.446937 0.445224 0.443471 0.441898 0.440346 0.438762 0.436019 0.433241 0.430461 0.427887 0.425299 0.421709 0.41809 0.414471 0.410907 0.407472 0.403239 0.398982 0.394727 0.390473 0.386325 0.381664 0.376984 0.372307 0.367632 0.362969 0.358102 0.353221 0.348342 0.343464 0.338542 0.33373 0.328911 0.324093 0.319277 0.314386 0.309957 0.305528 0.301099 0.29667 0.292142 0.28851 0.284888 0.281264 0.27764 0.273876 0.27144 0.269017 0.266593 0.264166 0.261513 0.260348 0.259179 0.258006 0.25683 0.255308 0.254906 0.25445 0.253987 0.253518 0.25263 0.251073 0.249336 0.247589 0.245831 0.243823 0.235475 0.226667 0.217847 0.209016 0.20069 0.176906 0.152367 0.127823 0.103272 0.0808304 0.0387223 -0.00409655 -0.0469153 -0.0897338 -0.128798 -0.181188 -0.233968 -0.286761 -0.339168 -0.38881 -0.450903 -0.513655 -0.576439 -0.639262 -0.702748 -0.786819 -0.871679 -0.956565 -1.04272 -1.13299 -1.2027 -1.27085 -1.33901 -1.40872 -1.48184 -1.51185 -1.54149 -1.57114 -1.60167 -1.63571 -1.64696 -1.65781 -1.66867 -1.67979 -1.69189