/*--------------------------------*- C++ -*----------------------------------*\
  =========                 |
  \\      /  F ield         | OpenFOAM: The Open Source CFD Toolbox
   \\    /   O peration     | Website:  https://openfoam.org
    \\  /    A nd           | Version:  6
     \\/     M anipulation  |
\*---------------------------------------------------------------------------*/
FoamFile
{
    version     2.0;
    format      ascii;
    class       volScalarField;
    location    "28";
    object      epsilon;
}
// * * * * * * * * * * * * * * * * * * * * * * * * * * * * * * * * * * * * * //

dimensions      [0 2 -3 0 0 0 0];

internalField   nonuniform List<scalar> 
10000
(
266.762
360.295
238.872
157.14
104.327
71.858
52.6803
41.7332
35.8587
33.3882
33.5528
36.3375
42.4408
53.4955
72.5134
104.39
155.872
236.477
357.328
265.96
266.388
360.083
238.755
156.995
104.108
71.7065
52.6026
41.7061
35.8445
33.3895
33.5522
36.2962
42.3196
53.2151
72.0994
103.751
155.11
235.876
357.121
265.917
266.323
359.955
238.68
156.94
103.493
71.2514
52.348
41.6492
35.785
33.3808
33.5512
36.3548
42.4352
53.3181
72.1991
104.38
155.857
236.179
356.989
265.807
266.221
359.828
238.52
156.873
104.224
71.7743
52.6511
41.7051
35.843
33.3832
33.5221
36.3439
42.4507
53.3543
72.1623
104.244
155.252
236.325
357.212
265.904
266.297
359.689
238.406
156.735
103.657
71.3261
52.4222
41.5597
35.8449
33.3824
33.5239
36.324
42.4361
53.5092
72.2209
103.735
155.954
236.802
357.518
266.239
266.249
359.667
237.896
156.549
104.265
71.7247
52.6439
41.6094
35.8166
33.3794
33.5251
36.3
42.3956
53.4989
72.5209
103.95
155.297
236.304
357.561
266.436
266.452
359.663
238.326
155.931
104.195
71.29
52.559
41.5753
35.8183
33.3749
33.5121
36.2319
42.2283
53.3882
72.4867
104.318
155.627
236.85
357.991
266.494
266.583
359.711
238.261
156.702
104.175
71.7924
52.4179
41.5784
35.8197
33.3678
33.4979
36.2153
42.2066
53.2083
72.3481
104.219
155.894
236.404
357.996
266.616
266.657
359.587
237.67
156.499
103.996
71.6677
52.5663
41.6534
35.839
33.3576
33.487
36.184
42.1467
53.0402
72.1969
103.981
155.699
236.577
358.003
266.661
266.837
359.705
237.989
156.301
103.282
71.4849
52.4776
41.5171
35.8136
33.3428
33.4564
36.1498
42.0904
52.9774
72.0133
103.719
154.892
236.549
357.872
266.647
267.144
359.701
237.726
156.033
103.223
71.0468
52.358
41.588
35.7649
33.308
33.4349
36.1132
42.039
52.9062
71.8372
103.081
154.968
236.85
358.065
266.604
267.138
359.605
237.008
155.726
103.064
71.0109
52.1249
41.5261
35.7459
33.2749
33.3871
36.0561
41.9715
52.8897
71.6591
103.058
155.164
236.703
358.485
266.745
266.961
359.489
237.073
154.957
103.068
70.885
52.2355
41.4888
35.7074
33.2499
33.3605
36.0054
41.8856
52.7482
71.4626
102.902
154.432
236.094
358.699
266.546
266.913
359.434
237.163
155.03
102.405
70.7878
51.9846
41.3313
35.6231
33.2075
33.3168
35.9422
41.783
52.3907
71.0319
102.985
154.797
236.395
358.726
266.286
266.748
359.31
236.845
154.095
102.711
70.8837
52.0313
41.3328
35.5994
33.1837
33.2906
35.9065
41.7318
52.4211
70.9325
102.692
154.379
235.618
358.705
266.128
266.656
359.21
236.295
153.986
102.459
70.688
51.8841
41.1554
35.5484
33.1531
33.2569
35.8563
41.6878
52.431
70.9592
102.244
153.946
235.859
358.668
265.889
266.541
359.017
236.064
153.588
101.706
70.1313
51.6505
41.1016
35.4988
33.1104
33.2139
35.8059
41.5911
52.108
70.3654
101.381
153.345
235.436
358.338
265.64
266.345
358.857
235.683
153.239
101.551
70.0666
51.5543
41.0372
35.4581
33.067
33.1638
35.7443
41.5045
52.0376
70.2963
101.226
152.24
234.609
358.368
265.482
266.151
358.648
235.234
152.788
101.195
69.8435
51.5563
41.0317
35.4076
33.0201
33.1109
35.6684
41.3972
51.8782
70.1974
100.657
152.144
234.564
358.399
265.277
265.813
358.491
234.689
152.316
100.865
69.7268
51.2714
40.9378
35.354
32.9713
33.0541
35.5956
41.2895
51.7304
69.9914
100.445
151.761
234.338
358.533
265.034
265.524
358.306
234.263
151.91
100.554
69.2145
51.1249
40.7583
35.2855
32.9238
32.9897
35.495
41.1444
51.5124
69.4764
100.072
151.42
234.394
358.484
264.686
265.163
358.055
233.783
151.514
100.213
69.0475
50.9914
40.6988
35.2327
32.8783
32.9367
35.4142
40.9994
51.3041
69.2219
99.7362
151.044
234.042
358.144
264.443
264.968
357.89
233.35
151.045
99.88
68.8536
50.8393
40.631
35.1855
32.8404
32.8849
35.3197
40.8285
50.9971
68.8027
99.3228
150.693
233.258
358.217
263.965
264.687
357.701
232.884
150.615
99.6437
68.684
50.8163
40.5754
35.1374
32.7923
32.8292
35.2447
40.7172
50.8331
68.5441
98.9545
150.278
232.939
358.068
263.646
264.44
357.497
232.42
150.172
98.9273
68.3237
50.6682
40.4969
35.0908
32.7571
32.7844
35.1729
40.5936
50.6181
68.2094
98.547
149.754
232.332
357.649
263.144
264.15
357.269
231.898
149.465
98.4352
67.841
50.3359
40.372
35.0294
32.7159
32.7439
35.1129
40.4945
50.4557
67.9561
98.1364
149.197
231.75
357.578
262.843
263.883
357.086
231.278
148.719
97.7625
67.5807
50.1973
40.2581
34.9588
32.6743
32.7062
35.0506
40.3863
50.2787
67.6522
97.6802
148.48
231.262
357.268
262.565
263.577
356.839
230.788
148.119
97.3348
67.3146
49.9933
40.1495
34.9005
32.6341
32.6684
34.9963
40.2761
50.0729
67.3314
97.2408
147.968
230.782
357.175
262.122
263.24
356.537
230.125
147.404
96.7852
66.921
49.7423
40.029
34.8347
32.5824
32.6128
34.9122
40.1324
49.8134
66.9726
96.7534
147.392
230.309
356.997
261.759
262.85
356.317
229.535
146.707
96.2541
66.5993
49.5676
39.9279
34.7837
32.5479
32.5656
34.831
39.995
49.6045
66.6139
96.2168
146.703
229.681
356.741
261.355
262.433
356.022
228.838
145.987
95.6714
66.2224
49.3243
39.8145
34.7234
32.5007
32.5121
34.7565
39.8582
49.3471
66.2083
95.6206
145.899
229.006
356.486
261
262.133
355.78
228.17
145.239
95.0686
65.8602
49.1505
39.72
34.6648
32.4585
32.4682
34.6817
39.7261
49.1203
65.8253
95.051
145.225
228.381
356.391
260.686
261.802
355.527
227.456
144.473
94.4557
65.4845
48.9226
39.61
34.6132
32.4241
32.4224
34.598
39.5774
48.8611
65.4147
94.4727
144.459
227.721
355.999
260.479
261.393
355.239
226.856
143.806
93.9712
65.1292
48.7257
39.5174
34.5704
32.3962
32.3854
34.5342
39.4576
48.6554
65.0656
93.9473
143.777
226.983
355.697
260.295
261.023
354.953
226.137
143.04
93.3698
64.7485
48.53
39.4221
34.5299
32.3766
32.3551
34.4677
39.3168
48.4006
64.6664
93.3668
143.032
226.305
355.463
259.997
260.501
354.636
225.413
142.321
92.8562
64.4288
48.339
39.3349
34.4948
32.3591
32.3319
34.4193
39.2197
48.2068
64.3123
92.8071
142.332
225.536
355.079
259.599
260.065
354.31
224.701
141.598
92.3016
64.0453
48.126
39.2322
34.4493
32.3335
32.3006
34.3546
39.0885
47.9735
63.9237
92.2057
141.577
224.861
354.709
259.129
259.572
353.907
223.968
140.86
91.7528
63.7214
47.9451
39.1419
34.4127
32.3205
32.2859
34.3148
38.9959
47.7767
63.5583
91.6366
140.829
224.079
354.268
258.625
259.221
353.568
223.275
140.136
91.2022
63.3552
47.7516
39.0523
34.3792
32.3074
32.2664
34.2662
38.8881
47.5623
63.1772
91.0562
140.077
223.325
353.849
258.079
258.906
353.237
222.533
139.364
90.6002
62.9737
47.5409
38.9551
34.3448
32.2963
32.2518
34.2218
38.7842
47.355
62.8073
90.4686
139.307
222.559
353.504
257.693
258.562
352.883
221.717
138.537
89.9803
62.5814
47.3394
38.8718
34.3151
32.2846
32.2337
34.1749
38.6764
47.1396
62.4254
89.8766
138.489
221.711
353.084
257.236
258.196
352.533
220.84
137.669
89.336
62.192
47.1312
38.7719
34.2736
32.2678
32.2145
34.1255
38.5629
46.9094
62.0096
89.2055
137.6
220.83
352.657
256.814
257.664
352.048
219.889
136.73
88.6464
61.7761
46.9095
38.6687
34.2283
32.2466
32.1932
34.0791
38.4553
46.6859
61.5979
88.5442
136.701
219.929
352.136
256.419
257.101
351.509
218.913
135.77
87.9459
61.3564
46.6875
38.5574
34.1788
32.2255
32.1726
34.0294
38.3392
46.447
61.1563
87.8301
135.76
219.027
351.64
256.08
256.575
350.966
217.921
134.795
87.2454
60.9365
46.459
38.447
34.1316
32.205
32.1512
33.9796
38.2232
46.2082
60.7182
87.1217
134.791
218.062
351.187
255.811
255.946
350.364
216.884
133.801
86.5353
60.5106
46.2311
38.3342
34.0813
32.1823
32.1293
33.9298
38.1068
45.9628
60.257
86.3736
133.782
217.043
350.707
255.457
255.48
349.85
215.849
132.804
85.8193
60.0765
45.9868
38.2087
34.0212
32.151
32.0999
33.8735
37.9846
45.7175
59.8078
85.6411
132.772
216.015
350.253
255.191
254.955
349.267
214.769
131.776
85.0724
59.6264
45.7299
38.0692
33.9502
32.1119
32.0648
33.8142
37.861
45.4689
59.3452
84.8679
131.694
214.906
349.657
254.778
254.563
348.752
213.707
130.757
84.3468
59.1667
45.4643
37.9222
33.87
32.0629
32.0192
33.7436
37.727
45.2131
58.8849
84.1176
130.647
213.824
349.089
254.379
254.048
348.132
212.585
129.705
83.5922
58.6957
45.1762
37.7531
33.7755
32.0038
31.9646
33.6642
37.5841
44.953
58.43
83.3584
129.544
212.666
348.467
253.909
253.514
347.5
211.409
128.608
82.8233
58.2134
44.896
37.5858
33.6739
31.9351
31.8979
33.5692
37.4227
44.6713
57.9488
82.5656
128.41
211.466
347.839
253.396
253.062
346.903
210.219
127.478
82.0381
57.7148
44.5877
37.4012
33.5579
31.8522
31.8187
33.4626
37.252
44.3871
57.4649
81.7501
127.224
210.183
347.217
252.825
252.475
346.222
208.967
126.289
81.2056
57.2049
44.2888
37.2065
33.4255
31.7549
31.7258
33.3415
37.0677
44.0919
56.9588
80.9025
126.013
208.864
346.543
252.194
251.999
345.58
207.687
125.05
80.3432
56.6726
43.9531
36.9982
33.2849
31.6451
31.6189
33.2046
36.863
43.7733
56.4374
80.0229
124.727
207.468
345.801
251.535
251.438
344.925
206.326
123.766
79.448
56.1182
43.6163
36.7706
33.128
31.5213
31.4987
33.0611
36.6598
43.448
55.9007
79.1522
123.422
206.039
344.985
250.838
250.878
344.273
204.871
122.414
78.5081
55.506
43.2324
36.5252
32.9503
31.3836
31.3668
32.9025
36.4292
43.0891
55.3154
78.1985
122.016
204.495
344.12
250.033
250.132
343.48
203.305
120.966
77.5206
54.8903
42.8455
36.2785
32.7701
31.2298
31.2187
32.7218
36.1904
42.7324
54.7207
77.2239
120.57
202.862
343.235
249.16
249.302
342.629
201.641
119.432
76.4665
54.2524
42.4419
36.0116
32.5788
31.0654
31.0543
32.5342
35.9361
42.3388
54.0914
76.1899
119.014
201.091
342.257
248.2
248.229
341.676
199.809
117.781
75.3336
53.5567
42.0186
35.7255
32.3659
30.8893
30.8815
32.3365
35.6643
41.9329
53.4315
75.0979
117.359
199.161
341.107
246.979
247.018
340.612
197.828
116.044
74.1522
52.8307
41.5603
35.4191
32.1382
30.6946
30.6935
32.1219
35.3789
41.4949
52.7182
73.957
115.631
197.11
339.826
245.633
245.54
339.35
195.634
114.174
72.8882
52.0463
41.0743
35.0876
31.8879
30.483
30.484
31.886
35.0756
41.0363
51.9701
72.7552
113.789
194.886
338.382
244.152
243.877
337.897
193.243
112.189
71.5858
51.2275
40.5479
34.7359
31.6267
30.2554
30.2527
31.6229
34.7399
40.5409
51.1753
71.4947
111.852
192.501
336.751
242.527
242.039
336.14
190.637
110.065
70.2026
50.3672
40.0141
34.376
31.3513
30.016
30.0136
31.3481
34.3855
40.0273
50.3682
70.1821
109.814
189.949
334.882
240.766
239.9
334.071
187.782
107.804
68.751
49.4901
39.4614
33.9866
31.0415
29.7374
29.7352
31.038
33.9924
39.4777
49.5203
68.7775
107.636
187.154
332.749
238.823
237.619
331.714
184.64
105.382
67.2357
48.5868
38.8883
33.5792
30.7122
29.439
29.4381
30.7073
33.5721
38.89
48.6236
67.3143
105.336
184.114
330.355
236.759
234.906
328.841
181.147
102.799
65.6744
47.6323
38.2515
33.1125
30.3337
29.0971
29.0984
30.3387
33.1304
38.2879
47.7006
65.7663
102.85
180.733
327.449
234.288
231.919
325.421
177.289
100.054
64.0228
46.6248
37.5757
32.6166
29.9281
28.7299
28.731
29.9317
32.6346
37.6212
46.7088
64.1795
100.227
177.075
324.132
231.714
228.578
321.317
173.068
97.1729
62.2989
45.5503
36.8526
32.0735
29.474
28.3139
28.3174
29.488
32.1116
36.9336
45.6878
62.4935
97.3885
172.982
320.125
228.595
224.835
316.397
168.461
94.1233
60.4847
44.4443
36.1014
31.4965
28.9818
27.8564
27.8589
28.9921
31.5269
36.1731
44.5803
60.7209
94.418
168.553
315.523
225.311
220.81
310.753
163.544
90.9771
58.6281
43.2904
35.3045
30.8727
28.4414
27.3521
27.3582
28.4612
30.9167
35.392
43.4543
58.8821
91.2784
163.666
309.986
221.37
216.551
304.39
158.312
87.737
56.7357
42.1035
34.4594
30.1952
27.8486
26.7979
26.8068
27.8785
30.2543
34.5594
42.265
56.9938
88.0709
158.518
303.828
217.391
212.211
297.376
152.873
84.4955
54.8608
40.9091
33.5931
29.49
27.2226
26.2051
26.2156
27.2561
29.5538
33.6986
41.072
55.0994
84.7955
153.063
296.831
213.003
207.989
289.752
147.293
81.2782
53.0197
39.7196
32.7091
28.7549
26.5623
25.5785
25.5922
26.6049
28.8308
32.8253
39.8855
53.2426
81.5413
147.487
289.387
208.864
204.027
281.631
141.673
78.1366
51.2419
38.5521
31.8194
28.0026
25.8792
24.9256
24.9411
25.927
28.0849
31.9376
38.704
51.4263
78.3466
141.788
281.284
204.659
200.548
273.17
136.091
75.1009
49.5152
37.4038
30.9337
27.246
25.1877
24.2631
24.2811
25.2427
27.3397
31.0676
37.574
49.7088
75.2902
136.19
272.938
201.056
197.701
264.498
130.622
72.2295
47.8743
36.2933
30.0672
26.4992
24.5006
23.6014
23.6201
24.5574
26.5952
30.2027
36.4626
48.0555
72.3772
130.667
264.239
197.746
195.559
255.675
125.26
69.4752
46.3198
35.2433
29.2407
25.7804
23.8354
22.9592
22.978
23.8927
25.8767
29.3753
35.4095
46.5004
69.6362
125.327
255.503
195.132
194.624
246.753
120.035
66.8661
44.8568
34.2506
28.4559
25.0964
23.2015
22.3456
22.3628
23.2542
25.1864
28.5841
34.4127
45.0362
67.0252
120.099
246.581
192.868
192.105
237.557
114.908
64.4011
43.4954
33.3311
27.7291
24.4617
22.6117
21.7738
21.7884
22.6565
24.5385
27.8391
33.4718
43.6542
64.5524
115.013
237.527
190.939
189.868
228.182
109.917
62.0823
42.2356
32.4845
27.0605
23.877
22.0676
21.2453
21.2569
22.1033
23.9391
27.1514
32.605
42.3772
62.2238
110.032
228.222
189.044
187.961
218.733
105.092
59.9115
41.0837
31.7194
26.4561
23.3462
21.5713
20.7618
20.7701
21.5966
23.3902
26.5204
31.8048
41.1848
60.0127
105.174
218.76
187.2
185.874
209.096
100.423
57.8856
40.0257
31.0188
25.9022
22.8589
21.1151
20.3171
20.3226
21.132
22.8889
25.9469
31.0796
40.0985
57.9555
100.465
209.096
185.324
184.138
199.489
95.9812
56.0349
39.0789
30.3904
25.3983
22.4098
20.6916
19.9032
19.9065
20.7015
22.4278
25.4254
30.4281
39.126
56.0821
96.0103
199.46
183.759
183.231
189.949
91.7723
54.3493
38.2198
29.8085
24.9227
21.9818
20.2866
19.5074
19.5092
20.292
21.9919
24.9383
29.831
38.2498
54.3836
91.8034
189.914
183.151
182.718
180.776
87.8956
52.8619
37.4495
29.2643
24.4642
21.5636
19.8896
19.1196
19.1205
19.8922
21.5687
24.4724
29.2764
37.4666
52.8839
87.9253
180.781
182.669
184.672
172.234
84.3593
51.5555
36.738
28.7317
24.0027
21.14
19.4882
18.7288
18.7292
19.4895
21.1424
24.0069
28.7378
36.7471
51.5671
84.376
172.267
184.656
188.015
164.302
81.3208
50.4198
36.0601
28.1898
23.5236
20.7009
19.0751
18.3287
18.3288
19.0755
20.7017
23.5256
28.193
36.0656
50.4271
81.3227
164.295
187.956
193.986
157.184
78.7799
49.4136
35.3791
27.6145
23.012
20.2371
18.6445
17.9151
17.9151
18.6445
20.2371
23.0125
27.6158
35.3825
49.4206
78.7886
157.221
193.987
202.145
150.786
76.9004
48.4982
34.6601
26.9855
22.4576
19.7444
18.1956
17.4888
17.4887
18.1955
19.7444
22.4582
26.9873
34.6641
48.5047
76.8996
150.773
202.093
213.356
145.702
75.3338
47.5627
33.8595
26.2841
21.853
19.2216
17.7304
17.053
17.053
17.7303
19.2217
21.8536
26.2862
33.8646
47.5743
75.355
145.733
213.394
227.178
141.746
74.0897
46.5788
32.9513
25.4967
21.1941
18.6704
17.2541
16.6149
16.6149
17.2541
18.6707
21.1948
25.4985
32.9545
46.5828
74.0903
141.727
227.145
244.34
139.567
73.0162
45.4335
31.8845
24.6036
20.4767
18.0944
16.7746
16.1838
16.1838
16.7745
18.0946
20.4772
24.6052
31.8883
45.4413
73.0309
139.557
244.362
265.045
138.417
71.8824
44.0167
30.6111
23.588
19.6993
17.5003
16.3025
15.7725
15.7724
16.3023
17.5002
19.6993
23.5884
30.6124
44.019
71.8849
138.416
265.004
288.31
138.131
70.3381
42.1801
29.0778
22.4359
18.8651
16.8991
15.8524
15.3968
15.3967
15.8522
16.8987
18.8647
22.4356
29.0782
42.1821
70.3427
138.128
288.3
314.854
138.178
68.121
39.8094
27.2471
21.1446
17.9863
16.3086
15.4439
15.0762
15.0762
15.4437
16.3083
17.986
21.1446
27.248
39.8127
68.1282
138.177
314.839
343.006
137.874
64.6986
36.7276
25.0851
19.7277
17.09
15.757
15.1009
14.8327
14.8326
15.1007
15.7568
17.0897
19.7274
25.085
36.7289
64.7047
137.88
342.946
372.861
135.424
59.4249
32.7825
22.6037
18.2352
16.2261
15.2853
14.8671
14.7157
14.7158
14.8672
15.2853
16.2263
18.2354
22.604
32.7847
59.4352
135.45
372.887
402.403
127.773
51.1784
27.8373
19.8791
16.7566
15.4652
14.9482
14.7514
14.6768
14.6769
14.7517
14.9484
15.4649
16.7561
19.8783
27.8373
51.179
127.771
402.361
432.708
107.322
38.6103
21.9961
17.1349
15.5569
15.0133
14.821
14.7335
14.702
14.7019
14.7332
14.82
15.0115
15.5558
17.1354
21.9976
38.6149
107.335
432.731
466.395
57.3751
21.652
16.1851
15.132
14.8911
14.834
14.8027
14.7961
14.7961
14.7961
14.7961
14.8025
14.8335
14.8902
15.1306
16.1842
21.6509
57.373
466.39
777.636
1133.95
773.613
490.563
296.815
177.48
112.157
78.575
61.8723
54.9762
55.0351
62.0651
78.822
113.296
178.944
297.167
488.89
770.307
1130.24
771.378
773.419
1131.46
767.909
483.882
290.984
173.118
111.003
78.0056
61.5275
54.7209
54.7807
61.7328
77.3463
110.939
174.958
294.922
486.335
768.302
1129.64
767.558
775.156
1134.93
770.612
486.823
293.111
173.163
109.267
76.9431
60.764
54.147
54.4405
61.5807
77.6539
112.177
176.83
293.089
483.992
766.383
1129.03
771.452
773.925
1134.65
768.375
484.456
291.197
172.409
110.162
77.5599
61.2561
54.4935
54.5612
60.9696
77.3857
111.475
175.615
287.687
477.074
764.047
1126.16
770.721
771.622
1133.78
762.469
481.755
288.982
172.657
108.312
76.4136
60.9353
54.1178
54.3769
61.1423
77.6834
110.598
174.374
287.425
477.07
762.798
1128.17
766.486
772.814
1131.8
762.596
479.618
286.954
171.339
108.805
76.7958
60.7535
53.8983
54.1846
60.5582
77.2479
109.694
173.242
286.151
474.743
758.037
1127.66
766.872
771.355
1135.08
761.376
476.994
284.685
167.614
107.934
76.3545
60.3847
53.6973
53.7105
60.4433
76.7291
108.484
171.84
286.563
474.612
757.732
1125.45
766.071
766.888
1134.76
762.773
474.528
282.387
167.031
106.088
75.2362
59.8137
53.5656
53.7423
60.2787
76.2641
106.432
170.189
284.696
468.118
756.078
1125.83
764.774
766.999
1134.09
760.276
467.108
276.719
165.098
105.734
75.5232
60.1842
53.5172
53.8238
60.273
75.3521
106.366
167.753
280.315
470.896
755.447
1126.35
766.877
766.011
1131.19
754.008
465.747
276.165
163.835
105.191
75.1926
59.9916
53.4186
53.6606
59.7185
75.1842
105.764
168.751
280.161
471.038
753.801
1127.68
763.968
764.318
1133.05
754.686
459.94
271.306
162.435
105.171
74.8111
59.7506
53.4558
53.2386
59.8819
74.7755
104.957
165.598
277.887
468.524
751.921
1124.96
765.677
759.556
1131.87
751.71
457.556
270.731
161.526
104.563
74.4477
59.5196
53.2993
53.2271
59.306
74.2495
104.144
165.36
277.554
462.254
750.946
1127.68
762.208
759.126
1128.89
745.013
454.104
270.894
162.068
103.83
73.9977
58.8174
52.7458
52.9906
59.081
73.7211
103.368
163.72
275.715
462.04
745.876
1126.07
762.6
756.261
1129.22
742.363
450.018
265.476
160.581
103.001
72.9961
58.731
52.6396
52.6846
58.6853
73.1376
102.201
159.84
270.693
462.305
745.725
1128.67
760.245
753.64
1129.27
738.691
446.758
263.143
157.431
102.089
73.2962
58.4875
52.2713
52.3445
58.414
72.6319
101.336
158.176
270.442
460.23
744.475
1128.73
761.918
751.346
1125.51
734.462
442.923
259.506
156.107
101.347
72.3284
58.1865
52.1542
52.2755
58.0975
72.3441
100.494
156.168
268.144
454.613
744.854
1127.02
758.803
748.774
1127.04
732.058
440.187
256.876
153.991
99.6806
71.9597
57.9107
51.9574
52.031
57.8004
71.7087
99.3098
154.553
263.412
455.513
747.078
1129.39
759.753
746.151
1123.92
728.565
436.214
254.149
152.647
98.9558
71.4765
57.5949
51.8434
51.8345
57.4726
71.1605
98.5958
153.033
261.715
452.799
745.218
1128.36
758.251
743.933
1123.7
725.144
431.212
253.318
151.542
98.0633
71.0053
57.3555
51.883
51.8394
57.2229
70.6716
97.7961
151.613
258.353
449.778
742.731
1125
754.57
740.988
1123.23
721.497
426.56
248.887
149.797
97.2014
70.5025
57.0801
51.6947
51.6464
56.9149
70.1441
97.019
150.015
254.919
442.984
736.493
1126.23
754.189
737.033
1121.25
715.511
423.221
245.562
147.624
96.1702
69.8895
56.7857
51.2429
51.197
56.5264
69.7171
96.3947
148.812
252.211
440.962
735.265
1127.89
753.468
732.989
1119.33
713.343
420.145
243.527
146.304
95.2709
69.4289
56.4626
51.0085
50.9911
56.2892
69.1727
95.3795
147.391
249.259
437.105
732.095
1125.09
751.799
730.058
1117.79
711.848
417.912
241.177
144.588
94.2653
68.8493
56.1051
50.7051
50.6917
56.0209
68.7145
94.4773
145.731
247.697
435.167
730.654
1127.55
747.662
727.15
1116.08
712.931
416.139
238.938
142.618
93.2758
68.3351
55.742
50.3362
50.3307
55.6405
68.1516
93.4795
143.627
244.325
428.844
723.519
1129.66
745.102
724.817
1114.51
710.103
412.868
235.836
140.821
92.3417
67.7289
55.2979
50.1074
50.1058
55.305
67.7045
92.6624
142.371
241.891
426.302
722.039
1128.87
742.956
724.567
1112.57
703.529
409.159
233.003
139.398
91.5221
67.2483
55.0076
49.828
49.7702
54.8648
67.1853
91.7925
140.618
239.845
423.549
716.909
1126.51
739.879
725.521
1109.13
700.869
406.042
230.278
137.596
90.5306
66.6264
54.5911
49.5418
49.5197
54.5718
66.6741
90.9448
139.197
236.91
418.657
716.428
1128.62
736.525
722.785
1108.33
696.274
400.85
227.182
135.913
89.7131
66.1395
54.2539
49.2454
49.2176
54.1966
66.1351
90.0419
137.607
234.252
415.052
716.074
1126.24
734.557
724.541
1107.04
692.866
396.498
224.238
134.308
88.8194
65.6351
53.9238
48.941
48.8702
53.7945
65.5785
89.1635
136.034
230.833
408.459
709.272
1126.35
732.268
720.57
1106.3
688.302
393.246
221.746
132.982
88.075
65.1247
53.576
48.6615
48.6028
53.4396
65.0384
88.2934
134.419
227.537
404.3
705.44
1125.45
730.074
719.291
1103.28
683.277
388.763
219.007
131.431
87.2902
64.6647
53.2516
48.391
48.2922
53.0683
64.5281
87.4699
132.709
223.516
399.324
698.217
1125.11
727.178
715.87
1101.07
678.25
384.647
216.443
130.153
86.5477
64.1795
52.8996
48.1044
48.0385
52.7377
64.0387
86.6123
131.176
220.699
393.905
693.731
1123.31
723.104
713.829
1097
672.853
380.237
213.98
128.745
85.8082
63.7595
52.5832
47.829
47.7455
52.3949
63.529
85.7824
129.575
217.337
388.573
687.938
1118.87
718.829
711.227
1094.56
667.469
375.577
211.348
127.428
85.0573
63.2875
52.2359
47.5288
47.4613
52.035
63.0136
84.9273
128.012
214.243
383.149
682.199
1118.08
715.806
709.047
1091.24
661.843
371.636
208.943
126.052
84.2921
62.8232
51.8979
47.2298
47.1513
51.6879
62.5206
84.1038
126.509
211.601
379.016
677.129
1116.37
712.954
706.432
1088.28
656.885
367.122
206.289
124.679
83.5239
62.3288
51.5182
46.9031
46.8266
51.3003
61.9715
83.2241
124.974
208.714
374.461
672.685
1114.78
709.416
702.961
1084.62
650.831
362.545
203.882
123.372
82.7682
61.8428
51.1608
46.5815
46.5012
50.9209
61.4379
82.3385
123.402
205.938
369.802
667.459
1112.96
706.529
699.658
1082.43
645.996
358.566
201.506
122.064
82.03
61.3619
50.7976
46.2639
46.1744
50.516
60.8826
81.4573
121.854
203.193
365.548
662.597
1112.18
702.823
696.668
1082.32
640.837
354.311
199.03
120.764
81.308
60.9023
50.4502
45.9484
45.8464
50.1242
60.3484
80.5926
120.227
200.131
360.51
657.323
1110.02
699.644
693.82
1081.54
636.201
350.355
196.678
119.497
80.6222
60.4602
50.1114
45.6366
45.5179
49.7361
59.8151
79.7384
118.701
197.363
355.969
651.631
1104.67
695.171
691.215
1078.74
631.369
346.16
194.19
118.211
79.9205
60.0046
49.7562
45.3184
45.1913
49.3512
59.29
78.8936
117.177
194.455
351.104
646.229
1102.23
691.897
689.014
1075.28
626.621
342.492
192.013
117.032
79.2535
59.563
49.4115
45.0075
44.8625
48.9652
58.7711
78.0817
115.68
191.605
346.576
640.761
1098.22
688.081
686.595
1071.62
621.773
338.39
189.601
115.745
78.5374
59.106
49.0411
44.6599
44.5103
48.5594
58.2205
77.2072
114.113
188.612
341.516
634.776
1093.6
684.554
684.57
1064.4
616.541
334.745
187.459
114.561
77.8339
58.617
48.6588
44.3159
44.1488
48.1383
57.6681
76.3622
112.577
185.744
336.776
629.102
1090.49
680.771
682.786
1061.67
611.752
330.703
185.047
113.269
77.0882
58.1294
48.2752
43.9641
43.7915
47.7293
57.1178
75.5025
111.052
182.79
331.674
622.754
1085.94
677.103
680.367
1056.89
606.308
326.697
182.724
111.992
76.3201
57.6037
47.8625
43.5866
43.397
47.2708
56.519
74.5927
109.482
179.9
326.586
616.239
1081.76
673.087
678.043
1052.69
600.855
322.47
180.268
110.684
75.5627
57.0923
47.4619
43.2235
43.0215
46.8327
55.9404
73.7086
107.923
176.905
321.497
609.821
1078.35
669.693
675.032
1048.36
595.203
318.266
177.889
109.387
74.7789
56.5531
47.0342
42.8308
42.6167
46.3641
55.3291
72.7946
106.33
173.903
316.006
602.63
1074.37
665.33
672.718
1044.18
589.73
314.088
175.443
108.058
73.9987
56.0178
46.6131
42.4494
42.2228
45.9054
54.7288
71.8809
104.728
170.862
310.789
595.744
1069.99
661.166
669.027
1039.66
583.539
309.569
172.902
106.686
73.1774
55.459
46.165
42.038
41.8036
45.4315
54.121
70.9738
103.161
167.86
305.208
588.214
1065.14
655.985
665.984
1035.18
577.427
305.117
170.326
105.271
72.3364
54.8814
45.7095
41.6289
41.3872
44.956
53.4977
70.0292
101.516
164.773
299.746
580.89
1060.13
651.128
662.662
1030.2
571.02
300.409
167.649
103.819
71.4594
54.2796
45.2376
41.2099
40.9632
44.4735
52.8815
69.1127
99.9388
161.764
294.098
572.774
1054.25
645.07
658.982
1025.32
564.659
295.767
164.973
102.329
70.5541
53.6637
44.7545
40.7784
40.5281
43.9657
52.2196
68.1324
98.2326
158.582
288.394
564.847
1048.69
639.324
654.856
1019.99
557.753
290.79
162.151
100.761
69.6096
53.0159
44.254
40.335
40.0828
43.4582
51.5514
67.1472
96.5904
155.527
282.791
556.784
1042.81
633.502
650.787
1015.37
550.959
285.838
159.308
99.1261
68.6063
52.339
43.7254
39.8664
39.611
42.9202
50.8497
66.0874
94.8228
152.305
276.931
548.426
1036.69
627.554
646.11
1009.82
543.417
280.504
156.303
97.4448
67.5826
51.6263
43.1726
39.3878
39.1291
42.3702
50.1286
65.0186
93.0829
149.157
271.225
540.282
1030.97
621.979
642.031
1005.26
536.267
275.185
153.206
95.6758
66.4823
50.8639
42.5805
38.8697
38.6205
41.7936
49.3794
63.9135
91.2734
145.877
265.255
531.772
1025.11
616.791
637.209
999.931
528.417
269.497
149.953
93.8265
65.327
50.0548
41.9556
38.3329
38.096
41.2024
48.6177
62.8047
89.4622
142.653
259.504
523.725
1020.01
612.268
633.537
995.806
520.816
263.705
146.536
91.8359
64.0808
49.1876
41.2915
37.761
37.5388
40.5861
47.8304
61.6569
87.6028
139.308
253.414
515.11
1014.6
607.91
628.945
991.303
512.265
257.349
142.862
89.6902
62.7437
48.2726
40.5892
37.1605
36.9604
39.9438
47.0197
60.5182
85.7903
136.037
247.371
506.326
1009.28
603.423
624.277
987.006
503.284
250.645
138.988
87.415
61.2908
47.2802
39.8378
36.5158
36.3382
39.2657
46.174
59.3384
83.9121
132.632
241.029
496.879
1003.32
598.065
618.996
982.052
493.401
243.358
134.824
84.9988
59.7428
46.213
39.0327
35.8327
35.6815
38.548
45.2902
58.1214
82.0041
129.189
234.485
486.746
996.751
592.169
612.218
976.184
482.187
235.314
130.272
82.3878
58.1002
45.0754
38.1606
35.0908
34.9757
37.7831
44.3494
56.8268
79.969
125.561
227.558
475.584
988.646
584.326
604.052
968.839
469.714
226.743
125.446
79.6204
56.3616
43.8661
37.2347
34.3038
34.2264
36.9668
43.3322
55.4118
77.7724
121.682
220.081
463.228
979.256
575.62
592.841
958.588
455.296
217.347
120.2
76.6012
54.4942
42.5729
36.2423
33.4559
33.4097
36.0851
42.2579
53.9183
75.4443
117.6
212.107
449.263
966.657
563.971
579.072
945.6
439.252
207.505
114.796
73.468
52.5212
41.2054
35.1908
32.5574
32.5422
35.1325
41.0779
52.2889
72.9251
113.202
203.547
433.951
951.524
550.321
561.969
928.491
421.045
196.941
109.113
70.1976
50.4581
39.7651
34.0811
31.6011
31.6142
34.1176
39.831
50.566
70.2825
108.63
194.582
417.199
933.049
534.982
541.898
906.992
401.334
186.081
103.418
66.821
48.2871
38.2622
32.9201
30.5915
30.6276
33.0378
38.4992
48.727
67.4779
103.836
185.169
398.98
910.712
516.902
520.308
881.474
380.205
174.813
97.5173
63.4258
46.1104
36.7125
31.7052
29.5315
29.5871
31.8889
37.0775
46.7789
64.5453
98.8714
175.483
379.704
884.742
498.141
496.353
851.126
358.001
163.547
91.6422
59.9498
43.8415
35.1003
30.4405
28.4251
28.4983
30.6853
35.5895
44.7339
61.4505
93.693
165.452
359.153
854.297
477.232
472.921
817.246
335.274
152.302
85.7807
56.5138
41.5874
33.472
29.1498
27.2845
27.3647
29.4218
34.0261
42.594
58.2444
88.3653
155.242
337.947
820.337
456.795
447.814
778.785
312.053
141.178
79.925
53.0257
39.3031
31.8329
27.8459
26.1235
26.2045
28.1247
32.4149
40.3812
54.8861
82.801
144.754
315.738
781.929
434.997
424.652
737.604
289.146
130.516
74.3045
49.6478
37.0644
30.2009
26.5282
24.9423
25.0248
26.8068
30.7675
38.0987
51.4384
77.1162
134.184
293.128
740.135
413.615
400.786
692.738
265.948
119.886
68.7191
46.2889
34.8499
28.5947
25.2308
23.7764
23.8555
25.4934
29.1309
35.8383
48.0047
71.4482
123.577
270.136
694.983
392.437
378.647
645.7
243.377
109.912
63.5383
43.1645
32.7427
27.037
23.9664
22.6376
22.7117
24.2097
27.5193
33.5998
44.6122
65.8283
113.167
247.313
646.956
371.398
357.422
596.675
221.332
100.263
58.5265
40.1731
30.7494
25.5688
22.7699
21.5563
21.6243
22.9898
25.997
31.4975
41.4192
60.5306
103.295
225.33
598.27
352.888
338.438
547.582
200.685
91.5953
54.0524
37.4796
28.9324
24.2153
21.6624
20.554
20.6151
21.8565
24.5783
29.5375
38.4619
55.6305
94.0789
204.319
549.479
336.376
323.19
500.23
181.644
83.6997
49.9901
35.0489
27.3064
23.0118
20.6788
19.662
19.7129
20.8398
23.3109
27.8011
35.8546
51.3167
85.913
185.225
503.02
324.115
313.676
456.192
164.93
77.0182
46.5814
32.9845
25.9054
21.9673
19.8233
18.8854
18.9261
19.9513
22.2038
26.293
33.6073
47.6112
78.8105
168.107
459.476
316.493
309.004
416.402
150.624
71.374
43.7189
31.26
24.7354
21.092
19.1027
18.2281
18.2587
19.1985
21.2677
25.0211
31.7244
44.5081
72.7716
153.191
419.609
314.516
308.278
380.844
138.619
66.8133
41.4207
29.8557
23.7682
20.3619
18.499
17.6766
17.6981
18.5661
20.4844
23.9651
30.1713
41.9569
67.7631
140.353
383.312
308.524
305.438
349.003
128.386
63.0555
39.5367
28.7023
22.9704
19.757
17.9983
17.2193
17.2331
18.0415
19.8361
23.0957
28.9001
39.8663
63.5946
129.263
350.369
306.951
302.007
320.084
119.33
59.8475
37.9561
27.7291
22.292
19.2426
17.5746
16.8343
16.8421
17.599
19.2883
22.3647
27.8404
38.1315
60.1037
119.654
320.511
302.586
302.339
293.755
111.184
57.0925
36.6032
26.8879
21.7021
18.7959
17.2097
16.5061
16.51
17.2223
18.8201
21.7432
26.9515
36.695
57.2179
111.362
294.015
302.931
302.627
269.662
103.804
54.6238
35.3724
26.1121
21.1565
18.3872
16.8819
16.2159
16.2178
16.8881
18.3982
21.1754
26.143
35.4217
54.6945
103.859
269.632
303.212
307.137
247.548
97.5722
52.4598
34.2301
25.3747
20.6382
18.0037
16.5805
15.9538