/*--------------------------------*- C++ -*----------------------------------*\
  =========                 |
  \\      /  F ield         | OpenFOAM: The Open Source CFD Toolbox
   \\    /   O peration     | Website:  https://openfoam.org
    \\  /    A nd           | Version:  6
     \\/     M anipulation  |
\*---------------------------------------------------------------------------*/
FoamFile
{
    version     2.0;
    format      ascii;
    class       volScalarField;
    location    "28";
    object      epsilon;
}
// * * * * * * * * * * * * * * * * * * * * * * * * * * * * * * * * * * * * * //

dimensions      [0 2 -3 0 0 0 0];

internalField   nonuniform List<scalar> 
130000
(
13.7463
13.4729
13.2021
12.939
12.6826
12.4327
12.1894
11.9533
11.7253
11.5067
11.2986
11.1024
10.9192
10.7501
10.5958
10.4569
10.3338
10.2266
10.1353
10.0596
13.768
13.4945
13.2238
12.9604
12.7036
12.453
12.2088
11.9717
11.7428
11.5232
11.3142
11.1172
10.9333
10.7636
10.6088
10.4695
10.3461
10.2388
10.1473
10.0715
13.7878
13.5144
13.2436
12.9798
12.7223
12.4708
12.2257
11.9876
11.7576
11.5369
11.3268
11.1287
10.9436
10.7728
10.6171
10.4771
10.3533
10.2456
10.1541
10.0784
13.8046
13.5311
13.2599
12.9956
12.7374
12.4851
12.2389
11.9995
11.768
11.5458
11.3342
11.1345
10.948
10.7761
10.6196
10.479
10.3548
10.247
10.1555
10.08
13.8171
13.5433
13.2717
13.0068
12.7476
12.494
12.2462
12.0051
11.7721
11.5485
11.3357
11.135
10.9475
10.775
10.618
10.4771
10.3527
10.2448
10.1534
10.0783
13.8256
13.5511
13.2787
13.0126
12.7519
12.4968
12.2477
12.0053
11.7713
11.5469
11.3335
11.1324
10.945
10.7723
10.6152
10.4743
10.3499
10.2422
10.151
10.076
13.8307
13.5551
13.2812
13.0137
12.7516
12.4955
12.2456
12.0027
11.7682
11.5434
11.3296
11.1284
10.9409
10.7682
10.6112
10.4704
10.3462
10.2388
10.1479
10.0733
13.8335
13.5563
13.2808
13.0121
12.7493
12.4924
12.2418
11.9984
11.7634
11.5382
11.3242
11.1228
10.9353
10.7628
10.606
10.4655
10.3417
10.2347
10.1442
10.07
13.8353
13.5565
13.2798
13.0099
12.746
12.4881
12.2367
11.9927
11.7572
11.5317
11.3175
11.1162
10.9288
10.7565
10.6
10.46
10.3366
10.2301
10.1401
10.0665
13.837
13.5566
13.2784
13.0071
12.742
12.4831
12.2309
11.9861
11.7501
11.5243
11.31
11.1087
10.9215
10.7495
10.5934
10.4539
10.3311
10.2251
10.1358
10.0627
13.8389
13.5568
13.2771
13.0043
12.7379
12.4778
12.2246
11.9791
11.7426
11.5165
11.3021
11.1008
10.9138
10.7421
10.5865
10.4475
10.3253
10.22
10.1313
10.0589
13.8412
13.5574
13.2763
13.0018
12.7339
12.4726
12.2183
11.9721
11.735
11.5085
11.2939
11.0927
10.9059
10.7346
10.5794
10.441
10.3194
10.2148
10.1268
10.055
13.844
13.5585
13.2756
12.9995
12.7302
12.4676
12.2123
11.9652
11.7275
11.5006
11.2859
11.0846
10.898
10.7271
10.5724
10.4345
10.3136
10.2096
10.1223
10.0513
13.8475
13.5601
13.2754
12.998
12.7272
12.4632
12.2068
11.9587
11.7204
11.493
11.2781
11.0768
10.8904
10.7198
10.5656
10.4283
10.308
10.2047
10.1181
10.0477
13.8518
13.5626
13.2762
12.9974
12.7251
12.4596
12.2019
11.9529
11.7137
11.4859
11.2707
11.0694
10.8831
10.7128
10.5591
10.4223
10.3026
10.2
10.1141
10.0444
13.8571
13.566
13.2779
12.9975
12.7238
12.4568
12.1978
11.9477
11.7078
11.4794
11.2639
11.0625
10.8763
10.7063
10.5529
10.4167
10.2976
10.1956
10.1104
10.0414
13.8634
13.5705
13.2804
12.9981
12.7231
12.4548
12.1946
11.9434
11.7026
11.4736
11.2577
11.0562
10.8701
10.7002
10.5473
10.4115
10.293
10.1917
10.1071
10.0387
13.8708
13.5761
13.2841
12.9999
12.7232
12.454
12.1925
11.9401
11.6983
11.4686
11.2523
11.0505
10.8644
10.6948
10.5422
10.4069
10.2889
10.1881
10.1041
10.0364
13.8796
13.583
13.2891
13.003
12.7246
12.454
12.1914
11.9377
11.6949
11.4645
11.2477
11.0457
10.8595
10.69
10.5377
10.4028
10.2853
10.185
10.1015
10.0342
13.8896
13.5911
13.2953
13.0072
12.7268
12.4544
12.1908
11.9362
11.6926
11.4614
11.244
11.0417
10.8554
10.686
10.5339
10.3993
10.2823
10.1824
10.0994
10.0325
13.901
13.6006
13.3028
13.0128
12.7304
12.4563
12.191
11.9359
11.6915
11.4594
11.2413
11.0385
10.8521
10.6827
10.5309
10.3966
10.28
10.1806
10.098
10.0315
13.9138
13.6116
13.3117
13.0197
12.7354
12.4593
12.1925
11.936
11.6908
11.458
11.2394
11.0362
10.8497
10.6804
10.5288
10.3949
10.2787
10.1799
10.0978
10.0317
13.9281
13.6241
13.3222
13.028
12.7416
12.4636
12.1949
11.9368
11.6904
11.4572
11.2382
11.0349
10.8483
10.6791
10.5276
10.3938
10.2778
10.1793
10.0977
10.0319
13.944
13.6381
13.3342
13.0379
12.7494
12.4693
12.1988
11.9391
11.6916
11.4578
11.2385
11.0349
10.8481
10.6787
10.5268
10.3926
10.2765
10.178
10.0967
10.031
13.9615
13.6538
13.3478
13.0493
12.7586
12.4764
12.2039
11.9424
11.6935
11.4586
11.2386
11.0347
10.8479
10.6783
10.5261
10.3924
10.2765
10.178
10.0962
10.0304
13.9807
13.6712
13.3632
13.0624
12.7694
12.485
12.2103
11.9469
11.6962
11.4597
11.2387
11.0343
10.8475
10.6777
10.5257
10.3924
10.2764
10.1777
10.096
10.0303
14.0017
13.6906
13.3805
13.0774
12.782
12.4952
12.2184
11.953
11.7005
11.4624
11.2402
11.0349
10.8476
10.6774
10.5254
10.3919
10.276
10.1774
10.0957
10.0304
14.0247
13.712
13.3998
13.0944
12.7965
12.5073
12.2281
11.9606
11.7061
11.4664
11.2427
11.0363
10.8479
10.6776
10.5255
10.3919
10.2764
10.1783
10.0971
10.032
14.0499
13.7355
13.4213
13.1135
12.8131
12.5214
12.2398
11.97
11.7135
11.4719
11.2466
11.0387
10.849
10.6781
10.5262
10.3925
10.2767
10.1789
10.0975
10.0325
14.0773
13.7615
13.4452
13.1351
12.8321
12.5378
12.2537
11.9814
11.7228
11.4792
11.2522
11.0427
10.8517
10.6797
10.527
10.3928
10.2769
10.1786
10.097
10.0322
14.1072
13.7901
13.4719
13.1593
12.8538
12.5568
12.2701
11.9953
11.7344
11.4887
11.2598
11.0488
10.8563
10.683
10.5289
10.3939
10.2775
10.1791
10.0979
10.0332
14.1399
13.8217
13.5016
13.1867
12.8785
12.5787
12.2893
12.012
11.7486
11.5008
11.27
11.0572
10.8633
10.6887
10.5335
10.3976
10.2805
10.1816
10.1002
10.0352
14.1758
13.8565
13.5346
13.2174
12.9065
12.604
12.3118
12.0318
11.7659
11.5159
11.283
11.0685
10.8731
10.6972
10.5409
10.404
10.2862
10.1866
10.1046
10.0392
14.215
13.8951
13.5715
13.2519
12.9384
12.633
12.3379
12.0551
11.7867
11.5343
11.2994
11.083
10.886
10.7087
10.5513
10.4134
10.2947
10.1945
10.1118
10.0458
14.2581
13.9377
13.6126
13.2908
12.9745
12.6662
12.3682
12.0825
11.8114
11.5565
11.3194
11.1011
10.9024
10.7237
10.565
10.4261
10.3065
10.2054
10.122
10.0553
14.3055
13.9849
13.6584
13.3344
13.0155
12.7042
12.4031
12.1145
11.8405
11.5831
11.3436
11.1232
10.9227
10.7424
10.5824
10.4423
10.3216
10.2196
10.1354
10.0678
14.3576
14.0371
13.7095
13.3834
13.0618
12.7475
12.4432
12.1515
11.8746
11.6144
11.3725
11.1499
10.9474
10.7654
10.6039
10.4625
10.3407
10.2376
10.1523
10.0839
14.415
14.0951
13.7666
13.4385
13.1141
12.7968
12.4893
12.1944
11.9144
11.6513
11.4067
11.1817
10.9772
10.7933
10.6301
10.4872
10.3641
10.2598
10.1734
10.1038
14.4783
14.1594
13.8303
13.5004
13.1734
12.8529
12.5421
12.2439
11.9606
11.6945
11.4471
11.2196
11.0127
10.8268
10.6617
10.5172
10.3926
10.2868
10.1991
10.1281
14.5483
14.231
13.9016
13.57
13.2404
12.9168
12.6026
12.3009
12.0143
11.7449
11.4945
11.2642
11.0549
10.8667
10.6996
10.5533
10.4269
10.3195
10.2302
10.1577
14.6258
14.3107
13.9814
13.6484
13.3164
12.9896
12.672
12.3666
12.0765
11.8037
11.5501
11.3169
11.1048
10.9142
10.7449
10.5964
10.468
10.3588
10.2676
10.1933
14.7117
14.3997
14.071
13.7369
13.4025
13.0727
12.7515
12.4425
12.1486
11.8723
11.6153
11.3789
11.1639
10.9705
10.7987
10.6479
10.5173
10.4059
10.3126
10.236
14.8071
14.4991
14.1718
13.837
13.5005
13.1677
12.843
12.5302
12.2324
11.9523
11.6917
11.4519
11.2338
11.0374
10.8628
10.7093
10.5762
10.4623
10.3665
10.2874
14.9135
14.6107
14.2855
13.9505
13.6123
13.2766
12.9484
12.6318
12.3301
12.0461
11.7817
11.5383
11.3166
11.117
10.9393
10.7828
10.6467
10.5299
10.4312
10.3491
15.0324
14.7362
14.4143
14.0798
13.7403
13.4021
13.0705
12.7501
12.4444
12.1563
11.8879
11.6406
11.4153
11.2121
11.0309
10.871
10.7316
10.6114
10.5091
10.4234
15.1657
14.8779
14.5606
14.2277
13.8876
13.5473
13.2127
12.8886
12.5789
12.2867
12.0141
11.7627
11.5334
11.3263
11.1412
10.9774
10.8341
10.7099
10.6035
10.5134
15.3159
15.0389
14.728
14.398
14.0582
13.7165
13.3793
13.0518
12.7383
12.442
12.1652
11.9096
11.6759
11.4645
11.275
11.1069
10.9589
10.83
10.7186
10.6232
15.4859
15.2228
14.9206
14.5953
14.2574
13.9154
13.5764
13.2461
12.9292
12.629
12.348
12.088
11.8498
11.6337
11.4393
11.266
11.1126
10.9779
10.8602
10.7582
15.6797
15.4344
15.1443
14.8264
14.4923
14.1517
13.8122
13.4802
13.1606
12.857
12.5721
12.3078
12.0648
11.8435
11.6436
11.4643
11.3043
11.1624
11.037
10.9264
15.9022
15.6802
15.4067
15.0999
14.7729
14.4362
14.0984
13.7664
13.4454
13.1395
12.8514
12.5831
12.3353
12.1085
11.9023
11.7157
11.5476
11.3967
11.2611
11.1394
16.1601
15.9688
15.7185
15.4283
15.113
14.7843
14.4517
14.1226
13.8028
13.4964
13.2065
12.935
12.6828
12.4501
12.2366
12.0413
11.863
11.7002
11.5512
11.4143
16.4623
16.3125
16.0946
15.8293
15.5329
15.2186
14.8967
14.5753
14.2607
13.9573
13.6683
13.3954
13.1397
12.9012
12.6794
12.4734
12.2818
12.103
11.9355
11.7775
16.8211
16.7279
16.5564
16.3282
16.0617
15.7717
15.4695
15.1639
14.8616
14.5672
14.2838
14.0131
13.756
13.5124
13.2814
13.062
12.8528
12.6521
12.4583
12.27
17.2526
17.2386
17.1339
16.9615
16.742
16.4919
16.2237
15.9471
15.6688
15.3936
15.1245
14.8628
14.6088
14.3621
14.1215
13.8854
13.6524
13.4208
13.1892
12.9563
17.7845
17.8779
17.8708
17.782
17.6354
17.4494
17.238
17.0113
16.7766
16.5381
16.2982
16.0575
15.8155
15.5707
15.3212
15.065
14.7999
14.5244
14.2373
13.9379
18.4548
18.7
18.8278
18.8647
18.8301
18.7451
18.6254
18.4821
18.322
18.1487
17.9631
17.7645
17.5507
17.3183
17.0641
16.7846
16.4771
16.1397
15.7715
15.3727
19.3041
19.7753
20.1032
20.3131
20.4498
20.5199
20.5435
20.5337
20.497
20.4332
20.3416
20.2193
20.0614
19.8614
19.613
19.3103
18.9492
18.5269
18.0428
17.4983
20.3987
21.1849
21.8063
22.2875
22.6652
22.9634
23.1978
23.3918
23.5539
23.6629
23.7213
23.7255
23.6671
23.5327
23.3112
22.9929
22.5705
22.0393
21.398
20.6488
21.8223
23.0497
24.0859
24.952
25.689
26.3267
26.8849
27.3754
27.8012
28.1536
28.422
28.6143
28.719
28.6972
28.5367
28.2224
27.7422
27.087
26.2525
25.2394
23.6794
25.5139
27.1232
28.5211
29.7535
30.854
31.8444
32.7354
33.528
34.2143
34.782
35.2157
35.5007
35.6419
35.5822
35.3041
34.7885
34.0187
32.9828
31.6743
26.0988
28.749
31.1242
33.2246
35.1005
36.7898
38.3168
39.694
40.9224
41.9948
42.8986
43.6171
44.1308
44.4261
44.5029
44.2966
43.7858
42.9439
41.7468
40.1722
29.2327
32.9453
36.301
39.2774
41.9301
44.3047
46.4329
48.333
50.012
51.4692
52.6982
53.6873
54.4207
54.8835
55.0783
54.9693
54.5035
53.6506
52.3713
50.6219
33.2556
38.3012
42.848
46.8457
50.362
53.4606
56.1909
58.5886
60.6764
62.4688
63.9709
65.1825
66.0979
66.7083
67.0097
66.9833
66.582
65.7674
64.4828
62.6639
38.3583
45.0057
50.9187
56.0257
60.4271
64.2255
67.5056
70.3347
72.7611
74.8202
76.5339
77.9156
78.97
79.6951
80.0834
80.1221
79.7879
79.0353
77.7871
75.9656
44.7386
53.2234
60.6146
66.8512
72.1031
76.5387
80.2968
83.4869
86.1885
88.4605
90.342
91.8592
93.0249
93.8432
94.3075
94.4016
94.1198
93.4287
92.2246
90.4186
52.5854
63.0804
71.9897
79.3227
85.3624
90.3683
94.5448
98.0474
100.987
103.445
105.475
107.114
108.38
109.282
109.813
109.96
109.724
109.084
107.914
106.113
62.0634
74.6625
85.0707
93.4414
100.209
105.736
110.297
114.091
117.257
119.895
122.072
123.832
125.2
126.187
126.786
126.983
126.787
126.189
125.042
123.231
73.2975
88.0209
99.876
109.227
116.68
122.705
127.638
131.719
135.114
137.938
140.267
142.156
143.631
144.708
145.38
145.628
145.469
144.909
143.78
141.949
86.3719
103.186
116.428
126.716
134.832
141.345
146.651
151.023
154.651
157.665
160.153
162.176
163.764
164.937
165.685
165.99
165.869
165.349
164.244
162.396
101.332
120.174
134.75
145.947
154.712
161.708
167.383
172.044
175.901
179.102
181.744
183.899
185.601
186.872
187.702
188.07
187.994
187.52
186.456
184.612
118.195
138.993
154.856
166.933
176.33
183.791
189.816
194.744
198.808
202.173
204.951
207.221
209.027
210.394
211.312
211.758
211.74
211.324
210.327
208.524
136.956
159.629
176.725
189.642
199.628
207.51
213.834
218.976
223.193
226.672
229.539
231.887
233.769
235.219
236.232
236.797
236.868
236.492
235.6
233.894
157.586
182.034
200.286
213.965
224.457
232.667
239.193
244.449
248.72
252.219
255.091
257.445
259.347
260.838
261.923
262.587
262.774
262.524
261.792
260.269
180.019
206.108
225.387
239.693
250.542
258.92
265.482
270.685
274.85
278.217
280.956
283.199
285.025
286.491
287.607
288.364
288.699
288.624
288.122
286.917
204.144
231.673
251.774
266.484
277.45
285.745
292.087
296.983
300.795
303.801
306.201
308.154
309.76
311.095
312.182
313.024
313.569
313.752
313.534
312.807
229.784
258.459
279.068
293.842
304.566
312.405
318.15
322.37
325.477
327.793
329.557
330.961
332.137
333.186
334.142
335.023
335.781
336.341
336.599
336.507
256.689
286.086
306.746
321.098
331.065
337.922
342.544
345.575
347.491
348.67
349.387
349.881
350.337
350.896
351.579
352.427
353.41
354.475
355.485
356.297
284.528
314.067
334.147
347.4
355.906
361.064
363.856
365.012
365.095
364.576
363.695
362.761
361.992
361.547
361.6
362.238
363.455
365.22
367.382
369.664
312.905
341.821
360.478
371.732
377.843
380.362
380.413
378.803
376.012
372.581
369.2
366.3
364.306
362.986
362.537
362.985
364.307
366.554
369.594
373.184
341.388
368.711
384.86
392.947
395.456
394.19
390.093
384.32
378.214
372.09
366.376
361.308
356.897
354.011
352.634
352.743
354.176
357.152
361.671
367.731
369.566
394.113
406.363
409.824
407.374
400.468
391.45
381.211
370.264
359.841
350.365
342.287
335.891
331.424
329.057
328.834
330.411
334.097
339.993
347.959
397.129
417.412
424.111
421.432
411.732
398.444
382.494
365.826
349.498
334.357
320.998
309.834
301.117
295.034
291.697
291.196
293.183
297.761
305.276
315.632
423.853
438.149
437.708
426.322
408.296
385.695
361.587
337.706
315.346
295.394
278.364
264.541
254.027
246.877
243.101
242.734
245.298
251.059
260.444
273.403
449.754
456.653
446.682
424.378
394.486
361.373
328.011
296.624
268.615
244.744
225.248
210.095
199.093
192.079
188.961
189.487
193.069
200.626
212.459
228.602
475.217
472.706
449.683
413.457
370.117
325.095
282.384
244.53
212.737
187.256
167.713
153.517
144.039
138.823
137.591
139.878
145.797
156.426
172.002
193.548
501.736
486.631
447.633
393.755
334.716
277.766
227.616
186.506
154.679
131.241
114.836
104.213
98.3295
96.6113
98.502
103.728
113.475
128.744
151.533
182.991
529.276
497.391
437.01
362.86
288.202
222.634
170.296
131.579
104.597
86.7638
75.7015
69.6719
67.5903
68.9891
73.4202
82.0934
96.0706
118.504
149.637
191.862
557.427
501.729
415.066
319.116
232.18
163.979
116.055
85.0561
66.2216
55.4179
49.8334
47.8753
48.8234
52.3032
59.2494
71.0549
90.7201
120.509
167.918
237.958
585.505
496.724
376.589
259.545
168.162
107.635
71.9719
52.3638
42.2283
37.3103
35.4635
35.8624
38.2052
43.0495
51.5216
65.9774
91.6173
135.319
212.731
325.652
609.157
471.305
313.87
186.789
107.296
64.9218
44.8198
35.2879
30.5629
28.4396
28.0944
29.2389
32.0858
37.4168
46.8852
64.3265
97.871
164.313
287.331
453.681
615.878
413.538
229.744
116.508
64.7196
42.9095
32.6909
27.4235
24.7361
23.6212
23.695
24.9546
27.7967
33.1857
43.3725
63.8611
108.789
204.619
383.834
599.494
599.219
322.906
149.206
77.1424
47.5984
34.007
27.1005
23.3878
21.409
20.5667
20.6574
21.7874
24.396
29.5726
40.0179
62.8947
118.481
247.559
480.91
740.182
559.062
260.86
121.114
64.4984
40.7932
29.7523
24.0487
20.8865
19.1589
18.3975
18.4289
19.3672
21.6369
26.3026
36.1221
58.913
119.636
267.11
554.605
870.488
568.818
258.159
117.522
60.1303
37.3836
27.081
21.8556
19.0265
17.5077
16.8333
16.8258
17.5731
19.442
23.3725
31.8149
51.7779
105.761
263.309
585.353
992.233
716.307
296.918
121.98
57.9958
34.6645
24.7502
20.0113
17.5796
16.3267
15.7732
15.7488
16.3118
17.7434
20.8255
27.5932
43.9587
89.5344
226.437
583.205
1090.14
975.454
364.525
129.166
55.0512
31.5122
22.4354
18.4092
16.4813
15.5483
15.1614
15.1379
15.4889
16.4537
18.614
23.4788
35.4408
69.829
182.584
516.352
1126.87
1190.12
388.196
116.08
47.2601
27.1593
19.9483
16.9706
15.6555
15.0721
14.8451
14.8211
14.9972
15.5326
16.8357
19.9213
27.633
50.2319
129.941
417.865
1115.56
1242.39
322.6
87.5218
35.6641
21.9855
17.44
15.7345
15.0748
14.8234
14.736
14.733
14.8153
15.0539
15.6499
17.1639
21.1853
33.0957
76.7545
270.417
942.082
945.872
177.906
44.2415
22.0914
17.0017
15.5227
15.0277
14.8452
14.762
14.7246
14.7232
14.757
14.8424
15.0388
15.5907
17.2582
22.4963
41.6764
129.754
568.019
220.199
33.983
19.1946
16.2765
15.3022
14.9675
14.859
14.8152
14.8026
14.8009
14.801
14.8036
14.8224
14.8972
15.1316
15.8874
18.3361
26.8754
62.4431
239.851
9.81792
9.78012
9.7377
9.69846
9.66275
9.63081
9.60279
9.57882
9.55898
9.54336
9.53199
9.52489
9.52196
9.52313
9.52855
9.53817
9.55197
9.56991
9.59196
9.61812
9.83242
9.794
9.75139
9.71192
9.67599
9.64383
9.61562
9.5915
9.57156
9.55585
9.54442
9.53726
9.53425
9.53533
9.54065
9.55018
9.5639
9.5818
9.60382
9.62993
9.84295
9.80428
9.76141
9.72168
9.68549
9.65312
9.62474
9.60051
9.58053
9.56483
9.55343
9.54629
9.54323
9.54417
9.5493
9.55863
9.57225
9.59015
9.61229
9.63844
9.85134
9.8124
9.76924
9.72924
9.69278
9.66016
9.6316
9.60728
9.58735
9.57181
9.56048
9.55323
9.54983
9.5503
9.55517
9.56438
9.57798
9.59594
9.61815
9.64432
9.8582
9.81896
9.77551
9.73519
9.69841
9.66546
9.63657
9.61192
9.59166
9.57577
9.5641
9.55661
9.55314
9.55372
9.55886
9.56837
9.58219
9.60023
9.62241
9.64855
9.86401
9.82446
9.78069
9.74004
9.7029
9.66956
9.64025
9.61515
9.59434
9.57791
9.56594
9.55846
9.55539
9.55667
9.56243
9.5726
9.5869
9.60524
9.62754
9.65369
9.86926
9.82937
9.78528
9.74431
9.70684
9.67318
9.64354
9.61812
9.59705
9.58046
9.56844
9.56108
9.55835
9.56036
9.56675
9.57706
9.59068
9.60817
9.63039
9.65647
9.87441
9.83418
9.78979
9.74853
9.7108
9.6769
9.64703
9.62139
9.60013
9.58338
9.57121
9.56373
9.56089
9.56279
9.569
9.5791
9.59155
9.60802
9.62992
9.6556
9.87987
9.83932
9.79464
9.75312
9.71517
9.68107
9.65103
9.62525
9.60385
9.58696
9.57462
9.56687
9.56357
9.56459
9.57007
9.57989
9.5923
9.60922
9.63033
9.6557
9.88577
9.84491
9.79994
9.75816
9.71998
9.68572
9.65558
9.62975
9.60837
9.59152
9.57926
9.57155
9.56819
9.56899
9.57408
9.58333
9.59663
9.61399
9.6354
9.6609
9.89196
9.85077
9.80548
9.7634
9.72499
9.69056
9.66034
9.63454
9.61328
9.59669
9.58479
9.57755
9.57462
9.57577
9.58114
9.59064
9.60418
9.6217
9.64318
9.66866
9.89811
9.85659
9.8109
9.76848
9.72982
9.69523
9.66494
9.63914
9.618
9.60169
9.59034
9.58407
9.58207
9.58395
9.58967
9.59929
9.61285
9.63038
9.65186
9.67728
9.9034
9.86151
9.81556
9.773
9.73424
9.69959
9.66924
9.64336
9.6221
9.60564
9.59415
9.58779
9.5858
9.58816
9.59402
9.60362
9.61714
9.63465
9.65609
9.68136
9.90701
9.86509
9.81941
9.7771
9.73855
9.70402
9.67369
9.64771
9.6262
9.6093
9.5971
9.58966
9.58685
9.58873
9.59414
9.60356
9.61704
9.63458
9.65608
9.68138
9.91042
9.86895
9.82367
9.78173
9.74348
9.70917
9.67892
9.65294
9.63132
9.61418
9.60157
9.5935
9.58981
9.5903
9.59518
9.60441
9.61788
9.63556
9.65732
9.68308
9.91582
9.8743
9.82912
9.78733
9.74926
9.71508
9.68492
9.65898
9.63742
9.62034
9.60773
9.59955
9.59564
9.59587
9.60055
9.60966
9.62312
9.6409
9.66286
9.6889
9.92296
9.88109
9.83566
9.79363
9.75536
9.72105
9.69088
9.66506
9.64364
9.62665
9.61407
9.60588
9.60198
9.60212
9.60654
9.61547
9.62889
9.64677
9.66896
9.69535
9.93218
9.88977
9.84383
9.80125
9.76245
9.72772
9.69724
9.67118
9.64954
9.63235
9.61961
9.61136
9.60748
9.60764
9.61206
9.62099
9.63437
9.65212
9.67406
9.70006
9.94394
9.901
9.85456
9.81141
9.77201
9.73669
9.70564
9.67902
9.6569
9.63936
9.62641
9.61804
9.61408
9.61429
9.61892
9.62792
9.64114
9.65848
9.67976
9.70485
9.95848
9.91514
9.86833
9.82474
9.78486
9.74903
9.7175
9.69043
9.66793
9.65011
9.63695
9.62846
9.62442
9.62459
9.62918
9.63804
9.65099
9.66789
9.68856
9.71288
9.97591
9.9323
9.88527
9.8414
9.80119
9.76503
9.73316
9.70578
9.68302
9.66496
9.65162
9.64298
9.63881
9.63885
9.64327
9.65191
9.66455
9.68103
9.70116
9.7248
9.99635
9.95259
9.90545
9.86141
9.821
9.7846
9.75249
9.72489
9.70192
9.68368
9.67018
9.66138
9.65707
9.65694
9.66116
9.66954
9.68185
9.6979
9.71748
9.74043
10.0201
9.97625
9.92912
9.88501
9.84446
9.8079
9.77561
9.74783
9.72468
9.70629
9.69263
9.68369
9.67924
9.67893
9.6829
9.69098
9.70291
9.71848
9.73745
9.75965
10.0475
10.0037
9.95671
9.91261
9.872
9.83532
9.8029
9.77496
9.75167
9.73312
9.71932
9.71024
9.70568
9.7052
9.70881
9.71652
9.728
9.74302
9.76129
9.78263
10.0792
10.0356
9.98881
9.94483
9.90423
9.8675
9.83498
9.80692
9.78349
9.76478
9.75081
9.74155
9.73678
9.73606
9.73934
9.74664
9.75759
9.77197
9.78943
9.80978
10.1158
10.0726
10.0262
9.98243
9.94194
9.90523
9.87265
9.8445
9.82094
9.80208
9.78792
9.77843
9.7734
9.77238
9.77526
9.78205
9.79238
9.80597
9.82248
9.84166
10.1583
10.1155
10.0698
10.0264
9.98613
9.94951
9.91694
9.88872
9.86503
9.846
9.83162
9.82185
9.81648
9.81508
9.81747
9.82364
9.8332
9.84584
9.8612
9.87899
10.2077
10.1657
10.1208
10.078
10.0381
10.0016
9.96914
9.94089
9.91709
9.89787
9.88321
9.87309
9.86729
9.8654
9.86718
9.87257
9.88117
9.89265
9.9066
9.92272
10.2654
10.2245
10.1807
10.1387
10.0994
10.0633
10.031
10.0027
9.97883
9.95939
9.9444
9.93383
9.92747
9.92494
9.92592
9.93033
9.93773
9.94776
9.95999
9.97406
10.3333
10.2938
10.2516
10.2108
10.1723
10.1368
10.1047
10.0766
10.0526
10.0329
10.0175
10.0064
9.99925
9.99587
9.99581
9.99894
10.0048
10.013
10.0231
10.0346
10.4137
10.3764
10.3364
10.2973
10.26
10.2253
10.1937
10.1658
10.1417
10.1217
10.1058
10.0938
10.0857
10.0812
10.0797
10.0811
10.085
10.0908
10.0981
10.1065
10.5101
10.4758
10.439
10.4023
10.3669
10.3334
10.3027
10.2751
10.251
10.2306
10.2139
10.2009
10.1914
10.1852
10.1818
10.1809
10.182
10.1846
10.1883
10.1925
10.6274
10.5976
10.5654
10.5325
10.4998
10.4683
10.4388
10.4118
10.3877
10.3668
10.3491
10.3346
10.3231
10.3144
10.3081
10.3038
10.3011
10.2994
10.2981
10.2968
10.7732
10.7501
10.725
10.6977
10.6693
10.641
10.6135
10.5876
10.5636
10.542
10.5227
10.5059
10.4914
10.4789
10.4682
10.459
10.4506
10.4426
10.4343
10.4252
10.9592
10.9468
10.9327
10.9143
10.8929
10.8696
10.8455
10.8214
10.7977
10.7749
10.7532
10.7327
10.7133
10.695
10.6775
10.6605
10.6434
10.6259
10.6073
10.587
11.2045
11.2093
11.2131
11.2091
11.199
11.1841
11.1657
11.1446
11.1215
11.0969
11.0713
11.0448
11.0176
10.9897
10.9611
10.9316
10.9008
10.8684
10.8339
10.7966
11.5407
11.5744
11.6072
11.6268
11.6354
11.6348
11.6261
11.6103
11.5884
11.5611
11.5289
11.4924
11.452
11.4083
11.3612
11.3111
11.2579
11.2016
11.1417
11.0777
12.0265
12.1049
12.1848
12.2418
12.2813
12.3057
12.3134
12.3073
12.2879
12.2562
12.2131
12.1599
12.0975
12.0268
11.9488
11.8643
11.7738
11.6778
11.5763
11.4693
12.7474
12.9025
13.0631
13.1876
13.2773
13.3347
13.3687
13.3809
13.3668
13.3285
13.2679
13.1869
13.0875
12.9718
12.8418
12.6995
12.5464
12.3843
12.2139
12.0361
13.846
14.1288
14.4226
14.6574
14.8339
14.9547
15.0246
15.0583
15.0562
15.0083
14.92
14.7944
14.6349
14.4455
14.2298
13.9918
13.7352
13.4634
13.179
12.8844
15.5444
16.0312
16.5368
16.9458
17.2584
17.4785
17.6124
17.6752
17.6866
17.6258
17.497
17.3041
17.0526
16.7486
16.3985
16.0089
15.5865
15.1378
14.6686
14.184
18.1612
18.9547
19.7733
20.4354
20.9409
21.2967
21.5134
21.6151
21.6394
21.5752
21.3954
21.1126
20.7349
20.2705
19.7281
19.117
18.4474
17.7297
16.9749
16.1929
22.0951
23.3006
24.5254
25.5024
26.2374
26.7475
27.0559
27.2018
27.2405
27.1676
26.9333
26.5525
26.0333
25.3826
24.6084
23.7192
22.7259
21.6419
20.4838
19.269
27.7218
29.38
31.0189
32.2861
33.2099
33.8319
34.1961
34.3618
34.4096
34.3351
34.0662
33.6177
32.9939
32.1947
31.2199
30.0676
28.7405
27.2459
25.6018
23.8323
35.1736
37.1715
39.0634
40.452
41.4154
42.0328
42.3748
42.5202
42.5604
42.4945
42.2309
41.7826
41.149
40.3191
39.2784
38.0031
36.469
34.6561
32.5709
30.2302
44.1347
46.2047
48.0451
49.2933
50.1078
50.5963
50.8436
50.937
50.96
50.9063
50.6783
50.2896
49.7393
49.0119
48.0852
46.9143
45.4283
43.536
41.2384
38.5106
53.9501
55.8779
57.6366
58.851
59.6409
60.1046
60.331
60.4202
60.4503
60.4083
60.1855
59.7982
59.2473
58.5179
57.591
56.4294
54.9956
53.2281
51.0405
48.2891
64.6595
66.6644
68.4779
69.7378
70.5678
71.0609
71.3101
71.4131
71.4513
71.4222
71.1941
70.7876
70.2055
69.4366
68.4677
67.2675
65.7971
63.9895
61.7627
59.0051
76.8162
79.0206
81.0184
82.4152
83.3434
83.8994
84.1771
84.3008
84.3693
84.3597
84.1265
83.6962
83.0731
82.2459
81.2004
79.9037
78.3174
76.3777
74.0075
71.0898
90.8428
93.3495
95.6293
97.2359
98.3171
98.9759
99.3093
99.4659
99.5744
99.5847
99.3457
98.8871
98.2115
97.3068
96.1574
94.7296
92.9826
90.8492
88.2445
85.0403
107.134
110.033
112.681
114.564
115.853
116.666
117.107
117.321
117.435
117.452
117.213
116.727
115.993
114.998
113.725
112.138
110.191
107.81
104.9
101.315
126.08
129.462
132.563
134.791
136.345
137.363
137.961
138.265
138.36
138.332
138.15
137.643
136.844
135.746
134.328
132.551
130.364
127.684
124.401
120.35
148.092
152.054
155.702
158.35
160.228
161.496
162.29
162.733
162.883
162.833
162.656
162.116
161.243
160.026
158.44
156.444
153.975
150.943
147.219
142.616
173.607
178.26
182.558
185.711
187.979
189.548
190.565
191.146
191.361
191.359
191.215
190.652
189.705
188.358
186.583
184.334
181.541
178.101
173.866
168.619
203.089
208.553
213.618
217.372
220.111
222.044
223.331
224.09
224.415
224.483
224.39
223.814
222.791
221.304
219.32
216.787
213.626
209.721
204.901
198.917
237.003
243.412
249.376
253.843
257.148
259.526
261.147
262.136
262.614
262.776
262.755
262.179
261.084
259.449
257.238
254.392
250.82
246.392
240.911
234.09
275.804
283.306
290.314
295.619
299.6
302.521
304.568
305.856
306.516
306.828
306.878
306.323
305.167
303.384
300.931
297.746
293.723
288.716
282.498
274.74
319.898
328.656
336.867
343.149
347.927
351.497
354.073
355.787
356.746
357.136
357.207
356.785
355.595
353.669
350.967
347.418
342.906
337.266
330.236
321.443
369.599
379.793
389.383
396.795
402.506
406.845
410.048
412.251
413.561
414.194
414.431
414.086
412.863
410.795
407.835
403.906
398.873
392.549
384.637
374.714
425.065
436.897
448.054
456.769
463.561
468.805
472.768
475.606
477.419
478.374
478.777
478.526
477.288
475.094
471.882
467.563
461.983
454.933
446.076
434.936
486.508
500.094
512.937
523.069
531.075
537.36
542.21
545.801
548.234
549.618
550.246
550.153
548.954
546.671
543.226
538.521
532.377
524.568
514.713
502.28
555.417
570.924
585.624
597.304
606.61
613.992
619.768
624.132
627.204
629.067
629.958
630.043
628.922
626.589
622.949
617.885
611.195
602.62
591.733
577.934
633.086
650.692
667.424
680.789
691.503
700.069
706.843
712.046
715.813
718.221
719.43
719.677
718.731
716.397
712.612
707.225
700.006
690.664
678.71
663.468
720.762
740.637
759.565
774.743
786.969
796.807
804.657
810.773
815.313
818.36
820.024
820.53
819.733
817.439
813.565
807.909
800.205
790.119
777.089
760.352
819.628
841.912
863.168
880.265
894.088
905.272
914.266
921.362
926.736
930.491
932.702
933.555
932.987
930.827
926.97
921.144
913.043
902.283
888.221
869.988
930.764
955.539
979.199
998.269
1013.74
1026.31
1036.49
1044.62
1050.89
1055.43
1058.28
1059.59
1059.34
1057.43
1053.74
1047.9
1039.55
1028.25
1013.27
993.623
1055.06
1082.31
1108.36
1129.37
1146.45
1160.4
1171.78
1180.96
1188.18
1193.57
1197.17
1199.07
1199.28
1197.74
1194.4
1188.76
1180.39
1168.8
1153.12
1132.25
1193.1
1222.68
1250.93
1273.73
1292.29
1307.5
1319.99
1330.19
1338.35
1344.65
1349.12
1351.79
1352.62
1351.64
1348.86
1343.74
1335.69
1324.16
1308.16
1286.43
1345
1376.51
1406.59
1430.81
1450.54
1466.75
1480.16
1491.24
1500.31
1507.53
1512.94
1516.57
1518.27
1518.09
1516.15
1511.98
1504.75
1493.81
1478.07
1456.06
1510.12
1542.87
1574.07
1599.09
1619.42
1636.17
1650.12
1661.83
1671.63
1679.73
1686.19
1690.98
1693.96
1694.97
1694.06
1691.34
1685.62
1676.06
1661.4
1640.02
1686.76
1719.64
1750.81
1775.61
1795.66
1812.19
1826.08
1837.94
1848.16
1857
1864.51
1870.68
1875.29
1878.09
1878.88
1878.02
1874.71
1867.61
1855.22
1835.75
1871.7
1903.03
1932.47
1955.51
1973.96
1989.12
2002
2013.28
2023.4
2032.67
2041.16
2048.91
2055.68
2061.21
2064.91
2066.57
2066.26
2062.9
2054.38
2038.61
2059.61
2086.99
2112.27
2131.42
2146.36
2158.56
2169.08
2178.68
2187.89
2197.05
2206.3
2215.69
2225
2233.99
2242.06
2248.63
2252.65
2253.64
2250.82
2241.24
2242.43
2262.59
2280.44
2292.76
2301.68
2308.73
2315.08
2321.52
2328.63
2336.86
2346.39
2357.34
2369.49
2382.59
2395.97
2408.95
2420.39
2429.1
2433.5
2432.64
2408.55
2417.28
2423.52
2425.27
2424.89
2424.14
2424.11
2425.45
2428.92
2435.05
2444.14
2456.38
2471.57
2489.47
2509.34
2530.41
2551.43
2571.47
2588.46
2599.64
2542.19
2534.32
2524.35
2510.82
2496.92
2483.5
2473.08
2466.13
2463.8
2466.34
2473.97
2486.89
2504.97
2528.14
2555.9
2587.74
2622.32
2657.65
2691
2720.33
2624.63
2592.64
2558.01
2525.71
2499.91
2476.13
2457.11
2443.91
2436.88
2436.01
2441.98
2454.95
2474.85
2501.66
2534.92
2574.18
2618.25
2665.6
2712.92
2763.83
2633.64
2579.32
2522.49
2468.01
2414.33
2371.45
2337.87
2313.41
2298.21
2291.59
2293.98
2306.17
2328.05
2359.79
2401.13
2451.97
2511.64
2579.81
2656.36
2729.99
2545.89
2456.76
2367.01
2285.78
2215.28
2156.28
2109
2073.54
2049.91
2037.76
2036.53
2047.3
2070.04
2105.32
2153.2
2213.92
2287.08
2372.16
2467.18
2568.35
2341.12
2220.45
2101.7
1997.63
1909.12
1836.07
1778.03
1734.48
1704.84
1688.59
1684.77
1694
1716.56
1753.47
1805.34
1872.93
1956.38
2055.59
2168.89
2293.5
2029.99
1884.33
1745.41
1626.26
1527.02
1446.75
1384.07
1337.56
1306
1288.43
1283.87
1292.54
1314.74
1352
1405.58
1477.04
1567.34
1677.12
1804.96
1947.37
1670.08
1510.55
1364.49
1241.37
1140.9
1061.32
1000.48
956.266
926.978
911.376
908.455
918.314
941.364
979.63
1034.85
1109.37
1205.06
1323.8
1464.76
1622.67
1354.33
1180.1
1030.85
909.668
814.229
740.904
686.258
647.353
622.056
608.889
606.785
615.896
636.957
672.22
724.037
796.035
892.251
1018.01
1177.25
1361.8
1118.05
909.439
751.602
633.687
546.459
482.615
436.708
404.853
384.579
374.291
372.904
380.709
398.688
429.352
475.839
543.483
639.998
778.729
979.93
1254.16
1068.45
752.197
549.894
427.082
345.054
290.074
252.773
227.885
212.509
204.95
204.149
210.553
225.339
251.215
292.485
357.327
460.352
646.662
943.865
1340.54
1205.82
754.631
469.932
298.708
211.769
162.204
131.555
112.35
101.044
95.7676
95.522
100.821
112.994
135.038
172.92
240.256