/*--------------------------------*- C++ -*----------------------------------*\
  =========                 |
  \\      /  F ield         | OpenFOAM: The Open Source CFD Toolbox
   \\    /   O peration     | Website:  https://openfoam.org
    \\  /    A nd           | Version:  6
     \\/     M anipulation  |
\*---------------------------------------------------------------------------*/
FoamFile
{
    version     2.0;
    format      ascii;
    class       volScalarField;
    location    "28";
    object      k;
}
// * * * * * * * * * * * * * * * * * * * * * * * * * * * * * * * * * * * * * //

dimensions      [0 2 -2 0 0 0 0];

internalField   nonuniform List<scalar> 
130000
(
0.371844
0.369082
0.366202
0.363248
0.360222
0.357133
0.353998
0.350839
0.347685
0.344565
0.341511
0.338553
0.335722
0.333044
0.33054
0.32823
0.326128
0.324242
0.322579
0.321141
0.372136
0.369379
0.366504
0.363549
0.360518
0.35742
0.354274
0.351103
0.347935
0.344801
0.341733
0.338763
0.33592
0.33323
0.330717
0.328399
0.32629
0.324399
0.322733
0.321291
0.372431
0.369683
0.36681
0.363853
0.360815
0.357708
0.354548
0.351362
0.348178
0.345027
0.341942
0.338956
0.336098
0.333395
0.330871
0.328543
0.326425
0.324528
0.322856
0.32141
0.372703
0.369959
0.367086
0.364125
0.361079
0.35796
0.354787
0.351586
0.348385
0.345218
0.342117
0.339115
0.336242
0.333524
0.330985
0.328643
0.326515
0.324608
0.322929
0.321479
0.372924
0.370182
0.367307
0.364341
0.361287
0.358158
0.354973
0.351757
0.348542
0.345358
0.342238
0.339217
0.336326
0.333591
0.331035
0.328681
0.326542
0.324628
0.322944
0.32149
0.373094
0.37035
0.367471
0.364498
0.361436
0.358296
0.355097
0.351865
0.34863
0.345427
0.342288
0.33925
0.336344
0.333597
0.331031
0.32867
0.326526
0.324608
0.322921
0.321466
0.373221
0.370471
0.367584
0.364601
0.361528
0.358372
0.355153
0.351903
0.348651
0.345432
0.34228
0.339232
0.336318
0.333566
0.331
0.328637
0.326491
0.324573
0.322887
0.321434
0.373315
0.370554
0.367655
0.364659
0.36157
0.358394
0.355157
0.351891
0.348626
0.345398
0.34224
0.339187
0.336269
0.333515
0.330947
0.328584
0.326441
0.324525
0.322842
0.321393
0.373389
0.370614
0.3677
0.364688
0.361578
0.358384
0.355134
0.351855
0.34858
0.345343
0.342179
0.339121
0.336201
0.333445
0.330877
0.328517
0.326376
0.324464
0.322786
0.321342
0.373454
0.370662
0.36773
0.3647
0.361568
0.358359
0.355095
0.351804
0.348518
0.345272
0.342102
0.339039
0.336117
0.333361
0.330795
0.328437
0.326301
0.324395
0.322722
0.321285
0.373517
0.370706
0.367753
0.364702
0.361553
0.358327
0.355048
0.351743
0.348446
0.345191
0.342014
0.338948
0.336024
0.333268
0.330705
0.328351
0.326219
0.324319
0.322654
0.321223
0.373585
0.370753
0.367778
0.364705
0.36154
0.358295
0.354999
0.351679
0.34837
0.345106
0.341922
0.338851
0.335925
0.33317
0.330609
0.328259
0.326134
0.32424
0.322582
0.321159
0.37366
0.370808
0.367812
0.364718
0.361534
0.358269
0.354953
0.351618
0.348295
0.34502
0.341829
0.338754
0.335826
0.333071
0.330513
0.328167
0.326047
0.32416
0.32251
0.321095
0.373747
0.370874
0.367856
0.364739
0.361533
0.358249
0.354914
0.351562
0.348225
0.344939
0.341739
0.338659
0.335728
0.332974
0.330418
0.328076
0.325962
0.324082
0.322439
0.321032
0.373847
0.370952
0.367912
0.364771
0.361541
0.35824
0.354885
0.351514
0.348162
0.344864
0.341655
0.338569
0.335635
0.332881
0.330326
0.327989
0.32588
0.324006
0.32237
0.320971
0.373961
0.371046
0.367982
0.364817
0.361563
0.35824
0.354867
0.351477
0.348108
0.344797
0.341578
0.338485
0.335548
0.332793
0.33024
0.327905
0.325801
0.323934
0.322305
0.320914
0.374092
0.371155
0.368067
0.364877
0.361598
0.358249
0.354858
0.351451
0.348066
0.344741
0.341511
0.338411
0.335469
0.332712
0.33016
0.327828
0.325729
0.323867
0.322245
0.320861
0.374241
0.371283
0.368171
0.364955
0.36165
0.358276
0.354862
0.351439
0.348036
0.344696
0.341455
0.338346
0.335399
0.332639
0.330087
0.327758
0.325662
0.323805
0.322189
0.320812
0.37441
0.371431
0.368294
0.365052
0.361719
0.358319
0.354881
0.351439
0.348021
0.344666
0.341412
0.338293
0.33534
0.332576
0.330023
0.327695
0.325602
0.32375
0.32214
0.320769
0.374598
0.371598
0.368437
0.365168
0.361807
0.35838
0.354916
0.351449
0.348016
0.344648
0.341381
0.338252
0.335291
0.332523
0.329968
0.327641
0.325551
0.323703
0.322098
0.320733
0.374807
0.371787
0.368601
0.365304
0.361915
0.358459
0.354968
0.351477
0.348022
0.344641
0.341363
0.338223
0.335254
0.332481
0.329924
0.327597
0.325509
0.323664
0.322064
0.320705
0.375037
0.371997
0.368786
0.365461
0.362043
0.358558
0.355039
0.351522
0.348044
0.344643
0.341355
0.338207
0.33523
0.332451
0.329891
0.327564
0.325477
0.323636
0.32204
0.320685
0.37529
0.372231
0.368995
0.365642
0.362193
0.358678
0.35513
0.351585
0.348083
0.344662
0.341356
0.3382
0.335215
0.332432
0.329869
0.327541
0.325455
0.323616
0.322023
0.320671
0.375566
0.372488
0.369227
0.365845
0.362366
0.358819
0.355241
0.351668
0.348141
0.344697
0.341373
0.338203
0.335215
0.332426
0.329859
0.327528
0.325442
0.323603
0.322011
0.320662
0.375867
0.372771
0.369486
0.366074
0.362563
0.358984
0.355374
0.351772
0.348218
0.34475
0.341407
0.338221
0.335222
0.33243
0.329859
0.327527
0.32544
0.323602
0.32201
0.320661
0.376194
0.373081
0.369772
0.366331
0.362787
0.359175
0.355532
0.351899
0.348316
0.344823
0.341457
0.338252
0.335237
0.332436
0.329861
0.327528
0.325441
0.323602
0.32201
0.32066
0.37655
0.373421
0.370088
0.366617
0.36304
0.359393
0.355717
0.352051
0.348438
0.344918
0.341528
0.338302
0.335269
0.332452
0.329867
0.327529
0.325438
0.323596
0.322003
0.320652
0.376935
0.373792
0.370435
0.366935
0.363324
0.359642
0.35593
0.352231
0.348586
0.345038
0.341623
0.338376
0.335324
0.332491
0.329893
0.327542
0.325443
0.323597
0.322002
0.320653
0.377352
0.374197
0.370817
0.367287
0.363643
0.359925
0.356176
0.352442
0.348765
0.345187
0.341746
0.338476
0.335405
0.332556
0.329945
0.327583
0.325475
0.323624
0.322024
0.320671
0.377804
0.374639
0.371237
0.367678
0.363999
0.360244
0.356459
0.352688
0.348977
0.345369
0.341901
0.338607
0.335516
0.33265
0.330026
0.327653
0.325537
0.323679
0.322076
0.320719
0.378294
0.375121
0.371699
0.36811
0.364397
0.360605
0.356781
0.352974
0.349228
0.345587
0.342091
0.338772
0.335661
0.332777
0.330138
0.327754
0.32563
0.323765
0.322156
0.320795
0.378825
0.375646
0.372206
0.368589
0.364841
0.361011
0.357148
0.353302
0.34952
0.345846
0.34232
0.338975
0.335841
0.332939
0.330285
0.327888
0.325754
0.323881
0.322265
0.320898
0.379401
0.376221
0.372764
0.369119
0.365336
0.361467
0.357565
0.353679
0.349859
0.34615
0.342593
0.33922
0.336062
0.33314
0.330469
0.328058
0.325912
0.32403
0.322405
0.321031
0.380028
0.376849
0.373377
0.369705
0.365888
0.36198
0.358036
0.354109
0.35025
0.346505
0.342914
0.339512
0.336329
0.333384
0.330695
0.328268
0.326109
0.324215
0.322581
0.321198
0.38071
0.377537
0.374052
0.370355
0.366503
0.362555
0.358568
0.354599
0.3507
0.346916
0.34329
0.339857
0.336646
0.333678
0.330968
0.328524
0.326349
0.324442
0.322796
0.321402
0.381452
0.37829
0.374796
0.371074
0.367187
0.363199
0.359169
0.355156
0.351214
0.34739
0.343727
0.340261
0.337021
0.334027
0.331294
0.328831
0.326639
0.324717
0.323057
0.321649
0.382262
0.379115
0.375615
0.37187
0.36795
0.36392
0.359847
0.355789
0.351802
0.347936
0.344234
0.340733
0.337461
0.334439
0.331682
0.329197
0.326986
0.325046
0.32337
0.321948
0.383147
0.380021
0.376518
0.372753
0.368799
0.364729
0.36061
0.356505
0.352472
0.348563
0.34482
0.341281
0.337976
0.334924
0.33214
0.329631
0.327399
0.325439
0.323745
0.322304
0.384114
0.381018
0.377516
0.373732
0.369747
0.365635
0.36147
0.357318
0.353237
0.349281
0.345496
0.341917
0.338575
0.335491
0.332678
0.330143
0.327887
0.325905
0.32419
0.322729
0.385174
0.382113
0.378619
0.37482
0.370804
0.366652
0.36244
0.358238
0.354108
0.350104
0.346273
0.342653
0.339273
0.336153
0.333309
0.330745
0.328462
0.326456
0.324716
0.323232
0.386336
0.383322
0.379841
0.37603
0.371985
0.367793
0.363534
0.359281
0.3551
0.351046
0.347168
0.343503
0.340082
0.336925
0.334047
0.331451
0.329139
0.327104
0.325338
0.323826
0.387612
0.384655
0.381195
0.377378
0.373306
0.369075
0.364769
0.360465
0.356231
0.352126
0.348197
0.344486
0.341021
0.337824
0.334908
0.332278
0.329933
0.327867
0.32607
0.324527
0.389017
0.38613
0.382699
0.378881
0.374787
0.370518
0.366165
0.36181
0.357522
0.353363
0.349383
0.345622
0.342111
0.338871
0.335914
0.333246
0.330865
0.328764
0.326931
0.325353
0.390566
0.387763
0.384374
0.380562
0.37645
0.372146
0.367747
0.36334
0.358997
0.354783
0.350749
0.346936
0.343376
0.34009
0.33709
0.33438
0.331959
0.329818
0.327945
0.326326
0.392277
0.389577
0.386241
0.382444
0.37832
0.373985
0.369542
0.365083
0.360686
0.356415
0.352325
0.348458
0.344847
0.341511
0.338464
0.335709
0.333243
0.331057
0.32914
0.327474
0.394172
0.391595
0.388328
0.384557
0.380428
0.376067
0.371584
0.367075
0.362622
0.358294
0.354147
0.350224
0.346558
0.34317
0.340072
0.337267
0.334752
0.332516
0.330548
0.328828
0.396276
0.393846
0.390666
0.386936
0.382812
0.378431
0.373911
0.369355
0.364848
0.360463
0.356258
0.352277
0.348554
0.34511
0.341958
0.339098
0.336528
0.334237
0.33221
0.330428
0.398614
0.396363
0.393292
0.389619
0.385513
0.381121
0.376572
0.371972
0.367414
0.362972
0.358709
0.354669
0.350887
0.347384
0.344173
0.341254
0.338624
0.336269
0.334175
0.332322
0.401222
0.399184
0.396251
0.392656
0.388583
0.384193
0.379622
0.374985
0.37038
0.365885
0.361563
0.357464
0.353621
0.350056
0.346782
0.343799
0.341101
0.338676
0.336505
0.334569
0.404138
0.402355
0.399594
0.396103
0.392085
0.387712
0.383132
0.378467
0.37382
0.369275
0.364899
0.36074
0.356835
0.353206
0.349865
0.346811
0.344039
0.341533
0.339275
0.337243
0.407405
0.405929
0.403382
0.400029
0.396093
0.391759
0.387186
0.382506
0.377828
0.373241
0.368813
0.364597
0.360631
0.356936
0.353523
0.350392
0.347536
0.344939
0.342579
0.340434
0.411076
0.409972
0.407692
0.404521
0.400701
0.396435
0.391893
0.387217
0.382523
0.377903
0.373433
0.369165
0.365139
0.361376
0.357888
0.354674
0.351723
0.349019
0.346541
0.344261
0.415217
0.414565
0.412619
0.409686
0.406031
0.401871
0.397394
0.392749
0.388061
0.383428
0.378929
0.374619
0.370538
0.366709
0.363142
0.359834
0.356776
0.353948
0.351326
0.348883
0.41991
0.419808
0.418285
0.415665
0.412238
0.408242
0.403877
0.399305
0.394659
0.390044
0.38554
0.381205
0.377081
0.37319
0.369541
0.366131
0.362947
0.359969
0.35717
0.354522
0.425266
0.425827
0.424848
0.422645
0.419539
0.415787
0.411608
0.407174
0.402628
0.398079
0.393613
0.389288
0.385144
0.381204
0.377474
0.37395
0.370616
0.36745
0.364424
0.361508
0.43143
0.43281
0.432528
0.430886
0.428231
0.424845
0.420964
0.416773
0.412423
0.408027
0.403673
0.399418
0.395302
0.391341
0.38754
0.38389
0.380372
0.376963
0.373633
0.370351
0.438566
0.440995
0.441626
0.44075
0.438741
0.435907
0.4325
0.42872
0.424723
0.420626
0.416515
0.412442
0.40844
0.404518
0.400674
0.39689
0.393145
0.38941
0.385657
0.381856
0.446895
0.450757
0.452547
0.452747
0.451679
0.44968
0.447022
0.443918
0.440528
0.436969
0.433317
0.429615
0.425882
0.42211
0.418285
0.414376
0.410353
0.406181
0.401832
0.39728
0.456746
0.462527
0.465972
0.467607
0.467912
0.467166
0.465665
0.463634
0.461235
0.458574
0.455714
0.452676
0.449455
0.44602
0.442332
0.438341
0.433999
0.429262
0.424095
0.418477
0.468597
0.476922
0.48274
0.486452
0.488618
0.48972
0.48993
0.489517
0.488622
0.487335
0.4857
0.483714
0.481335
0.478499
0.475133
0.471158
0.466501
0.461094
0.45489
0.447857
0.483077
0.494852
0.503878
0.510572
0.515478
0.519013
0.52154
0.523434
0.524624
0.52522
0.525264
0.524732
0.523538
0.521583
0.518758
0.514951
0.510057
0.503972
0.496615
0.48792
0.501003
0.517414
0.530755
0.541412
0.549964
0.556887
0.562537
0.567164
0.570874
0.573687
0.57572
0.576977
0.577199
0.576326
0.57422
0.570741
0.565756
0.559118
0.550687
0.54033
0.523394
0.545877
0.564799
0.580482
0.593558
0.604556
0.613859
0.621728
0.628303
0.633645
0.637761
0.640613
0.642239
0.642521
0.6412
0.638155
0.633227
0.626234
0.61697
0.605209
0.551417
0.58157
0.607342
0.628996
0.647263
0.662768
0.675976
0.68721
0.696667
0.704458
0.710619
0.715143
0.718008
0.719237
0.718647
0.716044
0.711263
0.704085
0.694244
0.681424
0.586309
0.625705
0.659405
0.687695
0.711505
0.731652
0.748748
0.763237
0.775409
0.785455
0.793471
0.799506
0.803554
0.805611
0.805598
0.803394
0.798795
0.791525
0.781275
0.767653
0.629237
0.679215
0.721576
0.75682
0.786242
0.810949
0.831773
0.849322
0.864008
0.876113
0.885808
0.893195
0.898302
0.901116
0.901592
0.899747
0.895335
0.888004
0.877409
0.863108
0.681177
0.74268
0.794051
0.836289
0.871218
0.900326
0.924706
0.945148
0.962197
0.976232
0.987492
0.996135
1.00222
1.00578
1.00674
1.00516
1.00091
0.993508
0.982576
0.967624
0.742813
0.816334
0.87676
0.925879
0.966167
0.999533
1.02735
1.05058
1.06991
1.08581
1.09858
1.10844
1.11547
1.11972
1.12114
1.11984
1.11571
1.10823
1.09695
1.08134
0.814525
0.900169
0.969517
1.02536
1.07088
1.10841
1.13958
1.16556
1.18713
1.20486
1.21912
1.23017
1.23813
1.24306
1.24493
1.24388
1.23989
1.23233
1.22069
1.20442
0.896412
0.994017
1.07207
1.13448
1.18512
1.22675
1.26123
1.28991
1.31369
1.33322
1.34893
1.36114
1.37001
1.37562
1.37792
1.37712
1.37326
1.36564
1.35367
1.33677
0.988371
1.09761
1.18412
1.25292
1.30857
1.35418
1.39189
1.42318
1.44907
1.47032
1.48742
1.50074
1.51046
1.5167
1.51943
1.51887
1.51515
1.50751
1.49529
1.47786
1.09012
1.21053
1.30518
1.38013
1.44058
1.48999
1.53072
1.56443
1.59226
1.61506
1.63338
1.64766
1.65813
1.66493
1.66804
1.66771
1.66416
1.65659
1.64423
1.62644
1.20121
1.33218
1.4345
1.51522
1.58008
1.63292
1.67631
1.71208
1.7415
1.76551
1.78477
1.79976
1.81078
1.81799
1.8214
1.82128
1.81792
1.81051
1.79821
1.78034
1.32095
1.46164
1.57093
1.65675
1.72539
1.78101
1.82643
1.86364
1.89406
1.91874
1.93844
1.95372
1.96493
1.9723
1.97586
1.9759
1.97275
1.96563
1.95364
1.93607
1.44837
1.59755
1.71271
1.80259
1.87398
1.93136
1.9778
2.01549
2.04598
2.07049
2.08986
2.10477
2.11563
2.12274
2.12618
2.12627
2.12333
2.11664
2.1053
2.08857
1.58202
1.73795
1.85737
1.94974
2.02231
2.07993
2.1259
2.16262
2.19183
2.21491
2.23283
2.24638
2.25606
2.26228
2.26517
2.2651
2.26232
2.25618
2.24589
2.23069
1.71994
1.88019
2.00153
2.09411
2.16564
2.2213
2.26467
2.29839
2.32441
2.34428
2.35917
2.36997
2.37731
2.38168
2.38335
2.38273
2.37995
2.37448
2.3657
2.3529
1.85954
2.02077
2.14082
2.23047
2.29788
2.34857
2.38644
2.4144
2.43458
2.44881
2.45862
2.46486
2.46823
2.4694
2.4688
2.46695
2.46378
2.45909
2.4524
2.44301
1.99753
2.15534
2.26982
2.35234
2.4115
2.45321
2.48181
2.50049
2.51132
2.5163
2.51666
2.51433
2.51057
2.50634
2.50178
2.49744
2.49338
2.48956
2.48559
2.48091
2.12998
2.27875
2.38211
2.45208
2.49775
2.5251
2.53819
2.541
2.53758
2.53134
2.52227
2.51195
2.50149
2.49179
2.48321
2.47622
2.47101
2.46766
2.46588
2.46519
2.25243
2.38522
2.47054
2.52108
2.54523
2.55098
2.54598
2.53225
2.51277
2.48864
2.46442
2.44103
2.41929
2.4
2.38404
2.37201
2.36422
2.36098
2.36227
2.36714
2.36022
2.46878
2.52777
2.54927
2.54745
2.52778
2.49451
2.45499
2.41216
2.36899
2.32755
2.28933
2.25523
2.22599
2.20213
2.18424
2.17279
2.16848
2.17042
2.17757
2.44884
2.52362
2.54508
2.53256
2.49201
2.43551
2.36992
2.30089
2.23247
2.16762
2.10813
2.05505
2.00881
1.96966
1.93764
1.91306
1.89638
1.88853
1.88879
1.89557
2.51393
2.54347
2.52167
2.4584
2.37172
2.27224
2.16863
2.06746
1.97309
1.88808
1.81335
1.7489
1.69405
1.64804
1.61007
1.57984
1.55742
1.54351
1.53896
1.54244
2.55272
2.5295
2.4458
2.32511
2.18394
2.03648
1.89361
1.76282
1.64804
1.55039
1.46891
1.40162
1.3461
1.30021
1.26207
1.23067
1.20572
1.18773
1.17774
1.1757
2.56291
2.47199
2.32013
2.13281
1.93256
1.73818
1.56284
1.41376
1.29251
1.19693
1.12265
1.06502
1.01978
0.983726
0.954277
0.930128
0.910955
0.898983
0.892479
0.892344
2.54305
2.37566
2.14561
1.88764
1.63276
1.40472
1.21656
1.07136
0.964815
0.889119
0.835924
0.798353
0.771555
0.753314
0.741006
0.733494
0.730161
0.73135
0.741994
0.768474
2.48817
2.23472
1.92261
1.60179
1.31424
1.08495
0.917299
0.803242
0.729337
0.68284
0.654072
0.636624
0.626446
0.621209
0.619697
0.622048
0.628594
0.644357
0.687139
0.755656
2.38795
2.03906
1.65011
1.29445
1.01363
0.819127
0.697742
0.626808
0.586553
0.563994
0.551644
0.545418
0.543123
0.543771
0.546988
0.55431
0.571057
0.614894
0.696852
0.832099
2.21922
1.77008
1.32993
0.980399
0.751714
0.622525
0.556458
0.522769
0.504983
0.495612
0.491005
0.489349
0.489898
0.492498
0.498591
0.512332
0.545123
0.621489
0.77242
0.991822
1.94939
1.41745
0.978045
0.700736
0.566801
0.508346
0.480783
0.466314
0.458308
0.453788
0.451476
0.450862
0.452018
0.455757
0.464793
0.486259
0.540504
0.660954
0.894485
1.18043
1.56732
1.00776
0.675853
0.539409
0.484134
0.457995
0.443799
0.435136
0.42941
0.425595
0.423374
0.42275
0.42424
0.429125
0.441028
0.469498
0.542007
0.717386
1.02176
1.34663
1.15936
0.748708
0.559977
0.48445
0.450522
0.432873
0.421902
0.414246
0.408716
0.404855
0.402642
0.402236
0.404344
0.410482
0.424767
0.458101
0.54261
0.749651
1.10598
1.4732
1.04946
0.700583
0.530198
0.462425
0.432591
0.41638
0.405989
0.398694
0.393471
0.389946
0.388153
0.388269
0.391028
0.39794
0.413116
0.447491
0.53339
0.749403
1.13521
1.56968
1.09476
0.708685
0.524636
0.450603
0.419695
0.403759
0.394064
0.387582
0.383122
0.380298
0.379129
0.379771
0.382854
0.389617
0.403634
0.434269
0.510186
0.707403
1.12962
1.63171
1.29491
0.767075
0.524978
0.442286
0.410044
0.394654
0.38601
0.380685
0.377344
0.375491
0.374908
0.375676
0.378435
0.384352
0.396349
0.421919
0.484337
0.653687
1.05832
1.65137
1.44808
0.797685
0.521137
0.433274
0.401879
0.387971
0.3808
0.376781
0.374602
0.373527
0.373279
0.373888
0.375866
0.380402
0.389675
0.409351
0.456864
0.59017
0.958525
1.62196
1.47032
0.76048
0.495453
0.418461
0.392724
0.382125
0.377102
0.374699
0.373569
0.373013
0.372914
0.373345
0.37454
0.37725
0.383406
0.396851
0.429016
0.519895
0.811376
1.49496
1.28778
0.616569
0.439399
0.396246
0.382217
0.37695
0.374926
0.373997
0.373483
0.373254
0.373239
0.373425
0.374026
0.375248
0.378021
0.385423
0.404826
0.459504
0.649491
1.20724
0.771372
0.440178
0.388809
0.378465
0.37588
0.374982
0.374558
0.374391
0.374349
0.374336
0.374332
0.374337
0.374407
0.374697
0.375519
0.377542
0.383743
0.406503
0.493168
0.833875
0.315801
0.315278
0.314708
0.314166
0.313658
0.313189
0.312764
0.312386
0.312058
0.311785
0.311567
0.311408
0.311308
0.311267
0.311284
0.311361
0.311497
0.31169
0.311941
0.312248
0.31602
0.315489
0.314916
0.31437
0.313857
0.313383
0.312953
0.31257
0.312238
0.31196
0.311739
0.311576
0.311472
0.311428
0.311442
0.311517
0.31165
0.311842
0.312092
0.312397
0.3162
0.315665
0.315087
0.314536
0.314018
0.313539
0.313103
0.312715
0.312378
0.312095
0.311869
0.311702
0.311594
0.311546
0.311557
0.311629
0.31176
0.31195
0.312197
0.312501
0.316354
0.315815
0.315233
0.314678
0.314155
0.313671
0.313231
0.312839
0.312497
0.31221
0.31198
0.311809
0.311698
0.311647
0.311655
0.311724
0.311853
0.31204
0.312286
0.312588
0.316489
0.315947
0.315361
0.314802
0.314276
0.313788
0.313344
0.312948
0.312604
0.312314
0.312081
0.311907
0.311793
0.31174
0.311746
0.311813
0.311939
0.312125
0.312368
0.312668
0.316611
0.316065
0.315477
0.314914
0.314385
0.313895
0.313448
0.31305
0.312703
0.312411
0.312176
0.312
0.311885
0.311829
0.311833
0.311898
0.312022
0.312206
0.312448
0.312746
0.316722
0.316174
0.315583
0.315018
0.314486
0.313994
0.313545
0.313145
0.312797
0.312504
0.312268
0.312091
0.311974
0.311917
0.311919
0.311981
0.312104
0.312286
0.312526
0.312823
0.316824
0.316274
0.31568
0.315113
0.314579
0.314085
0.313636
0.313235
0.312887
0.312594
0.312358
0.312181
0.312063
0.312004
0.312004
0.312064
0.312184
0.312364
0.312602
0.312897
0.316916
0.316364
0.315768
0.315198
0.314663
0.314169
0.31372
0.31332
0.312973
0.312682
0.312447
0.312271
0.312152
0.312092
0.312088
0.312143
0.312259
0.312436
0.312671
0.312965
0.316994
0.31644
0.315842
0.315272
0.314737
0.314243
0.313796
0.313399
0.313055
0.312767
0.312536
0.312362
0.312243
0.312178
0.312167
0.312214
0.312325
0.312498
0.312732
0.313024
0.317056
0.316501
0.315903
0.315334
0.314802
0.314311
0.313867
0.313473
0.313133
0.31285
0.312623
0.312448
0.312323
0.312248
0.312226
0.312267
0.312376
0.312548
0.312782
0.313075
0.317118
0.31656
0.315962
0.315394
0.314863
0.314375
0.313936
0.313546
0.313205
0.312917
0.31268
0.312497
0.312365
0.312283
0.312259
0.312305
0.312418
0.312593
0.31283
0.313124
0.317197
0.316634
0.316032
0.315458
0.314922
0.314429
0.313985
0.313588
0.31324
0.312947
0.312695
0.312506
0.312375
0.3123
0.31229
0.312345
0.312464
0.312644
0.312882
0.313177
0.317304
0.316732
0.316122
0.315539
0.314992
0.314487
0.314028
0.313619
0.313263
0.312964
0.312712
0.312525
0.312402
0.312341
0.312341
0.312403
0.312526
0.312708
0.312946
0.31324
0.31744
0.316861
0.316241
0.315649
0.315092
0.314577
0.314108
0.31369
0.313328
0.313023
0.312779
0.312597
0.312478
0.312421
0.312424
0.312488
0.312612
0.312793
0.313029
0.313318
0.317607
0.317021
0.316395
0.315795
0.31523
0.314707
0.314232
0.313809
0.313443
0.313136
0.312891
0.31271
0.312592
0.312536
0.312539
0.312603
0.312725
0.312904
0.313137
0.313421
0.317804
0.317212
0.31658
0.315975
0.315404
0.314876
0.314395
0.313968
0.313599
0.313289
0.313043
0.31286
0.312741
0.312684
0.312687
0.31275
0.312871
0.313047
0.313275
0.313554
0.318031
0.317434
0.316799
0.316188
0.315613
0.315079
0.314595
0.314164
0.313791
0.313479
0.31323
0.313046
0.312926
0.312868
0.31287
0.312931
0.31305
0.313223
0.313447
0.313721
0.318289
0.317689
0.317049
0.316435
0.315855
0.315318
0.314829
0.314395
0.314018
0.313704
0.313454
0.313268
0.313146
0.313088
0.313088
0.313148
0.313264
0.313434
0.313653
0.313921
0.318581
0.317978
0.317336
0.316718
0.316134
0.315593
0.3151
0.314663
0.314284
0.313967
0.313714
0.313527
0.313404
0.313344
0.313343
0.3134
0.313514
0.31368
0.313895
0.314156
0.318911
0.318305
0.317661
0.31704
0.316453
0.315908
0.315412
0.314972
0.31459
0.314271
0.314016
0.313827
0.313703
0.313642
0.313638
0.313693
0.313803
0.313965
0.314174
0.314427
0.319283
0.318676
0.31803
0.317407
0.316817
0.316269
0.31577
0.315326
0.314942
0.314621
0.314364
0.314173
0.314048
0.313985
0.313979
0.314031
0.314136
0.314293
0.314494
0.314738
0.319701
0.319094
0.318448
0.317824
0.317232
0.316681
0.316179
0.315733
0.315346
0.315022
0.314763
0.314571
0.314443
0.314378
0.314369
0.314417
0.314518
0.314667
0.314861
0.315095
0.320174
0.319567
0.318923
0.318298
0.317704
0.317151
0.316646
0.316197
0.315808
0.315482
0.315221
0.315025
0.314895
0.314827
0.314815
0.314858
0.314953
0.315095
0.31528
0.315501
0.320707
0.320103
0.319461
0.318836
0.318241
0.317687
0.31718
0.316728
0.316336
0.316007
0.315744
0.315546
0.315412
0.315341
0.315325
0.315363
0.315451
0.315584
0.315757
0.315965
0.321312
0.320712
0.320073
0.31945
0.318855
0.318298
0.31779
0.317336
0.316941
0.31661
0.316343
0.316142
0.316005
0.31593
0.315909
0.31594
0.31602
0.316143
0.316303
0.316495
0.321999
0.321404
0.32077
0.32015
0.319555
0.318999
0.318488
0.318032
0.317635
0.317301
0.317031
0.316827
0.316685
0.316605
0.316578
0.316602
0.316672
0.316783
0.316928
0.317101
0.32278
0.322193
0.321567
0.320951
0.320359
0.319802
0.319291
0.318833
0.318433
0.318096
0.317823
0.317614
0.317468
0.317381
0.317348
0.317363
0.317422
0.317518
0.317645
0.317796
0.323672
0.323096
0.32248
0.32187
0.321281
0.320725
0.320214
0.319754
0.319352
0.319012
0.318735
0.318522
0.31837
0.318276
0.318234
0.318239
0.318285
0.318364
0.31847
0.318595
0.324693
0.32413
0.323527
0.322926
0.322342
0.321789
0.321278
0.320817
0.320413
0.32007
0.319789
0.319571
0.319412
0.31931
0.319258
0.31925
0.31928
0.31934
0.319422
0.319517
0.325863
0.325318
0.324732
0.324142
0.323566
0.323017
0.322507
0.322047
0.321641
0.321294
0.321009
0.320784
0.320618
0.320506
0.320442
0.32042
0.32043
0.320467
0.32052
0.32058
0.327207
0.326684
0.32612
0.325546
0.324979
0.324437
0.32393
0.32347
0.323063
0.322713
0.322422
0.322191
0.322015
0.321892
0.321814
0.321774
0.321762
0.321771
0.32179
0.321809
0.328753
0.32826
0.327723
0.327168
0.326616
0.326082
0.32558
0.325121
0.324713
0.32436
0.324064
0.323825
0.323639
0.323501
0.323406
0.323344
0.323307
0.323283
0.323262
0.323233
0.330538
0.33008
0.329578
0.329048
0.328514
0.327992
0.327497
0.327042
0.326633
0.326277
0.325975
0.325726
0.325527
0.325374
0.325257
0.32517
0.3251
0.325038
0.32497
0.324883
0.332601
0.332189
0.33173
0.331233
0.330722
0.330216
0.329732
0.329281
0.328874
0.328514
0.328205
0.327945
0.32773
0.327557
0.327415
0.327296
0.327188
0.327079
0.326954
0.3268
0.334995
0.334641
0.334237
0.333782
0.333303
0.332819
0.332349
0.331906
0.3315
0.331137
0.330818
0.330545
0.330311
0.330112
0.329938
0.32978
0.329624
0.329458
0.329265
0.32903
0.337785
0.337507
0.337177
0.33678
0.336343
0.33589
0.335441
0.335009
0.334606
0.334239
0.333909
0.333616
0.333356
0.333124
0.332908
0.332699
0.332482
0.332244
0.331966
0.331631
0.341068
0.340897
0.34067
0.340355
0.339981
0.339574
0.339155
0.338741
0.338344
0.33797
0.337622
0.337302
0.337004
0.336723
0.336448
0.336168
0.335868
0.335534
0.335146
0.334686
0.344993
0.344984
0.344912
0.344723
0.344448
0.344115
0.343747
0.343362
0.342973
0.342589
0.342214
0.341848
0.341489
0.34113
0.340763
0.340376
0.339955
0.339484
0.338942
0.338311
0.349857
0.35009
0.350261
0.350277
0.350166
0.349959
0.34968
0.349347
0.348975
0.348574
0.348149
0.347704
0.347238
0.346748
0.346225
0.345661
0.345044
0.344359
0.343586
0.342704
0.356147
0.356776
0.357342
0.357721
0.357897
0.357915
0.357796
0.357559
0.35722
0.35679
0.356279
0.355692
0.355034
0.354307
0.353509
0.352638
0.351684
0.350639
0.349488
0.34821
0.36472
0.366052
0.367343
0.368288
0.368941
0.369364
0.369522
0.369462
0.369189
0.368716
0.368057
0.367225
0.366231
0.365088
0.363805
0.36239
0.36085
0.359183
0.357386
0.355447
0.376973
0.379506
0.382009
0.383979
0.385427
0.386376
0.386949
0.387198
0.387049
0.386524
0.385644
0.384425
0.382893
0.381071
0.378989
0.37667
0.374142
0.371424
0.368534
0.365478
0.394976
0.399358
0.403675
0.407141
0.409754
0.41155
0.412609
0.413137
0.413202
0.412641
0.411487
0.409759
0.407496
0.404727
0.401498
0.397846
0.393823
0.389474
0.384851
0.379995
0.421129
0.427931
0.434504
0.439744
0.443688
0.446424
0.448055
0.448797
0.449008
0.44851
0.44711
0.444872
0.441839
0.438029
0.433483
0.428226
0.422317
0.415806
0.408777
0.40131
0.457171
0.466483
0.475227
0.482053
0.487114
0.490603
0.492716
0.493713
0.494003
0.493528
0.491966
0.489372
0.48577
0.481139
0.475483
0.468774
0.461028
0.452247
0.442493
0.431845
0.503055
0.514325
0.524615
0.532462
0.538185
0.542093
0.544462
0.545604
0.545981
0.545583
0.543991
0.54126
0.537397
0.532346
0.526061
0.518438
0.509405
0.498854
0.486738
0.47303
0.557079
0.569557
0.580781
0.58925
0.595411
0.599632
0.602223
0.603498
0.603959
0.603636
0.602053
0.599265
0.595271
0.590002
0.583393
0.575298
0.565579
0.554009
0.540374
0.524428
0.617613
0.631009
0.643043
0.652115
0.658741
0.663324
0.666185
0.667629
0.668187
0.667951
0.666385
0.663548
0.659433
0.653971
0.647087
0.638626
0.628419
0.616188
0.601624
0.584291
0.68439
0.698847
0.711864
0.721707
0.728943
0.733998
0.737212
0.73887
0.739552
0.739421
0.737883
0.734987
0.730721
0.725015
0.717787
0.708884
0.698122
0.68521
0.669792
0.651341
0.758098
0.77389
0.788148
0.79898
0.806995
0.812651
0.816304
0.818236
0.819055
0.819049
0.817577
0.814625
0.810172
0.804154
0.796489
0.787023
0.775564
0.761808
0.745369
0.72567
0.839745
0.857174
0.872947
0.884991
0.893967
0.900363
0.904558
0.906816
0.907701
0.907784
0.906563
0.903571
0.8989
0.892506
0.884309
0.874153
0.861835
0.847039
0.829342
0.808125
0.930454
0.949827
0.967397
0.980888
0.99102
0.99832
1.00321
1.00598
1.00716
1.00735
1.00618
1.00308
0.998129
0.991286
0.98246
0.971491
0.958155
0.94212
0.922923
0.899892
1.03141
1.05305
1.0727
1.08789
1.09938
1.10775
1.11344
1.11679
1.11833
1.11871
1.11762
1.11441
1.10915
1.10179
1.09224
1.08034
1.06583
1.04836
1.02742
1.00228
1.1439
1.16812
1.19018
1.20732
1.2204
1.23004
1.23672
1.2408
1.24278
1.24337
1.24236
1.239
1.23338
1.22545
1.2151
1.20214
1.18631
1.16721
1.14429
1.11673
1.26927
1.29645
1.32123
1.34061
1.35551
1.36662
1.37445
1.37938
1.38189
1.38275
1.38185
1.37836
1.37237
1.36382
1.35258
1.33846
1.32115
1.30023
1.27507
1.2448
1.40901
1.43952
1.4674
1.48932
1.5063
1.5191
1.52828
1.53422
1.53737
1.53856
1.53781
1.53421
1.52783
1.51861
1.50641
1.491
1.47206
1.44912
1.42148
1.38816
1.56468
1.59895
1.63031
1.65512
1.67448
1.68919
1.6999
1.70699
1.71092
1.71255
1.71203
1.70834
1.70158
1.69165
1.67841
1.66161
1.64088
1.61571
1.58532
1.54863
1.73796
1.77644
1.81172
1.83979
1.86183
1.87874
1.89119
1.89963
1.90447
1.90663
1.90639
1.90267
1.89553
1.88489
1.87054
1.85224
1.82956
1.80194
1.76853
1.72812
1.93056
1.97375
2.01343
2.04516
2.07024
2.08964
2.10409
2.11407
2.11999
2.12275
2.12285
2.11919
2.11173
2.10034
2.08483
2.06491
2.04012
2.00984
1.97313
1.92864
2.14427
2.19271
2.23729
2.27312
2.30163
2.32384
2.34057
2.35232
2.35948
2.36283
2.36325
2.35994
2.35222
2.34009
2.32335
2.3017
2.27463
2.24148
2.20117
2.15225
2.381
2.4352
2.48519
2.52557
2.55789
2.58327
2.60258
2.61639
2.6251
2.62944
2.63032
2.62715
2.61911
2.60618
2.58814
2.56465
2.53515
2.49889
2.45471
2.40098
2.64316
2.70365
2.75954
2.8049
2.84139
2.87026
2.89244
2.90856
2.91907
2.92455
2.926
2.92299
2.91462
2.90089
2.88149
2.85607
2.82399
2.78444
2.73611
2.67721
2.9335
3.0008
3.06306
3.1138
3.1548
3.18742
3.21269
3.23131
3.24375
3.25057
3.25271
3.24994
3.24131
3.22678
3.20601
3.17861
3.14385
3.10083
3.04811
2.98372
3.2548
3.32936
3.39843
3.45489
3.50069
3.53731
3.56588
3.58717
3.60169
3.60999
3.61296
3.61052
3.60169
3.58642
3.56431
3.53491
3.49742
3.45083
3.39353
3.32336
3.60959
3.6918
3.76799
3.83043
3.88125
3.92207
3.9541
3.9782
3.99494
4.00484
4.00876
4.00675
3.99783
3.98193
3.95856
3.92723
3.88702
3.83683
3.77487
3.69877
3.99992
4.09
4.17347
4.24202
4.29796
4.34305
4.37863
4.40563
4.42468
4.43628
4.44126
4.4398
4.43094
4.41456
4.3901
4.35698
4.31421
4.26054
4.19399
4.11194
4.42701
4.52491
4.61556
4.69012
4.75108
4.80037
4.83944
4.86931
4.89067
4.90404
4.91018
4.9094
4.90076
4.88414
4.85885
4.82425
4.77921
4.72237
4.65152
4.56379
4.89077
4.99605
5.09338
5.17348
5.23907
5.29221
5.3345
5.36706
5.39064
5.40575
5.41309
5.41311
5.40493
5.3884
5.36269
5.32708
5.28031
5.22088
5.14636
5.05359