/*--------------------------------*- C++ -*----------------------------------*\
  =========                 |
  \\      /  F ield         | OpenFOAM: The Open Source CFD Toolbox
   \\    /   O peration     | Website:  https://openfoam.org
    \\  /    A nd           | Version:  6
     \\/     M anipulation  |
\*---------------------------------------------------------------------------*/
FoamFile
{
    version     2.0;
    format      ascii;
    class       volScalarField;
    location    "28";
    object      k;
}
// * * * * * * * * * * * * * * * * * * * * * * * * * * * * * * * * * * * * * //

dimensions      [0 2 -2 0 0 0 0];

internalField   nonuniform List<scalar> 
10000
(
0.208439
0.528463
0.48743
0.429079
0.376854
0.338075
0.312567
0.297325
0.289028
0.285715
0.286585
0.291352
0.300569
0.316293
0.342199
0.380326
0.43084
0.487556
0.527186
0.208053
0.20824
0.528014
0.486822
0.428941
0.376669
0.338505
0.313633
0.298985
0.290764
0.286345
0.287181
0.29299
0.302018
0.316586
0.342514
0.380363
0.430488
0.487477
0.526982
0.207915
0.208166
0.527878
0.486957
0.428982
0.376848
0.338352
0.313106
0.298381
0.289921
0.286386
0.287307
0.291998
0.301386
0.31654
0.342505
0.380318
0.430828
0.487391
0.526786
0.208013
0.208248
0.527911
0.487136
0.42904
0.376605
0.338421
0.313562
0.297971
0.291064
0.286972
0.287627
0.293064
0.300828
0.316581
0.342315
0.380167
0.430489
0.486949
0.526958
0.207983
0.208274
0.527839
0.486712
0.42909
0.377033
0.338749
0.313018
0.297932
0.290175
0.288328
0.288969
0.292031
0.300791
0.316809
0.342597
0.380015
0.43018
0.487569
0.527325
0.208266
0.208298
0.528074
0.48747
0.42916
0.376886
0.338557
0.313268
0.298359
0.291068
0.287875
0.28827
0.292901
0.301758
0.317711
0.34234
0.379964
0.430254
0.487617
0.527462
0.20834
0.208253
0.527957
0.487388
0.429197
0.377079
0.338774
0.31393
0.299227
0.290183
0.286952
0.287115
0.291665
0.300553
0.317299
0.342322
0.38
0.43022
0.487457
0.527489
0.208357
0.208388
0.527911
0.486818
0.428946
0.376945
0.338358
0.31321
0.298302
0.290272
0.286767
0.287155
0.291777
0.300457
0.317064
0.342403
0.379946
0.430473
0.487286
0.527572
0.208505
0.208445
0.52792
0.487174
0.428868
0.376833
0.338546
0.314066
0.299647
0.291976
0.287098
0.287364
0.29321
0.30053
0.316365
0.34181
0.379621
0.430324
0.487681
0.527869
0.208546
0.208612
0.528177
0.487148
0.428618
0.376672
0.338074
0.313563
0.298981
0.291411
0.287828
0.287024
0.292272
0.300383
0.316327
0.341761
0.379453
0.429756
0.487102
0.527783
0.20839
0.208673
0.528262
0.486938
0.428451
0.376519
0.337938
0.314323
0.299944
0.290309
0.286101
0.286527
0.291101
0.300328
0.316511
0.341797
0.379411
0.429646
0.487059
0.527816
0.208432
0.208606
0.528155
0.486728
0.42771
0.376106
0.337563
0.313013
0.2984
0.290637
0.285688
0.286219
0.290974
0.300423
0.317469
0.342164
0.379202
0.429484
0.486845
0.527548
0.208333
0.208475
0.527866
0.485972
0.427398
0.375951
0.337334
0.311923
0.296843
0.288642
0.285343
0.286265
0.292082
0.301024
0.31643
0.341485
0.378831
0.4291
0.486579
0.527454
0.208148
0.208434
0.527712
0.48563
0.426907
0.375699
0.337301
0.31197
0.296924
0.288566
0.285126
0.285997
0.290989
0.30005
0.315504
0.340819
0.378386
0.428239
0.485722
0.527145
0.20796
0.208285
0.527492
0.48521
0.426519
0.37539
0.337296
0.312109
0.297
0.288609
0.28527
0.286309
0.292518
0.301461
0.315725
0.341087
0.378173
0.427942
0.485329
0.527007
0.207816
0.208227
0.527407
0.484841
0.426138
0.375096
0.337517
0.312816
0.297366
0.288833
0.285425
0.286392
0.292026
0.30085
0.31555
0.34066
0.377774
0.427303
0.484663
0.526712
0.207611
0.208069
0.52711
0.484394
0.425708
0.37472
0.336787
0.311617
0.298049
0.288944
0.285524
0.287266
0.29173
0.300255
0.315565
0.340604
0.377392
0.426686
0.484236
0.526429
0.207433
0.207904
0.526854
0.483866
0.425066
0.374234
0.336105
0.311154
0.296437
0.289785
0.285331
0.285687
0.290369
0.300695
0.315966
0.340198
0.376889
0.426129
0.483719
0.526215
0.207302
0.207724
0.526621
0.483195
0.424171
0.373753
0.336018
0.311065
0.296393
0.288823
0.285603
0.285854
0.290064
0.298924
0.314553
0.339691
0.376437
0.425491
0.483097
0.525992
0.207112
0.207455
0.526282
0.482557
0.423653
0.373331
0.336073
0.311196
0.296654
0.290226
0.287434
0.286357
0.290317
0.298913
0.315041
0.339444
0.375809
0.424708
0.482361
0.525738
0.206895
0.207219
0.52585
0.481802
0.423002
0.372813
0.336385
0.311738
0.296563
0.289152
0.287036
0.286566
0.290475
0.298667
0.313954
0.338864
0.375139
0.423859
0.481546
0.525323
0.206599
0.206974
0.525451
0.48112
0.422276
0.37216
0.335285
0.310645
0.296434
0.28919
0.287233
0.287971
0.29192
0.298832
0.313951
0.338149
0.374306
0.422919
0.480804
0.524973
0.206354
0.206819
0.525167
0.480492
0.421591
0.371598
0.334572
0.310661
0.296724
0.289526
0.286625
0.287115
0.291548
0.298526
0.314329
0.337169
0.373408
0.421886
0.479838
0.524319
0.205952
0.206586
0.524839
0.480036
0.420978
0.371156
0.334227
0.310687
0.297065
0.290796
0.287982
0.288217
0.291341
0.298208
0.312578
0.33671
0.372453
0.420811
0.479002
0.523917
0.205698
0.206401
0.524552
0.479387
0.420322
0.37068
0.33422
0.310911
0.297367
0.289603
0.286578
0.28675
0.290327
0.298139
0.312338
0.336856
0.371645
0.419978
0.478228
0.5234
0.205342
0.20618
0.524265
0.478912
0.41972
0.370193
0.33437
0.311579
0.29741
0.29111
0.288462
0.288391
0.29164
0.298775
0.31228
0.335583
0.370665
0.419071
0.477596
0.523157
0.205172
0.205971
0.523987
0.478192
0.419099
0.369748
0.334085
0.310524
0.296612
0.2905
0.287863
0.287461
0.290264
0.297245
0.310826
0.334621
0.369828
0.418202
0.476819
0.52282
0.204892
0.205728
0.523694
0.477497
0.418271
0.369152
0.333797
0.311011
0.296838
0.289927
0.287258
0.288776
0.290918
0.298292
0.311507
0.333862
0.369076
0.417332
0.475998
0.522437
0.204574
0.205461
0.52333
0.476719
0.417528
0.368604
0.33349
0.310503
0.297303
0.290408
0.287434
0.287777
0.291817
0.29749
0.310574
0.332814
0.368303
0.416498
0.475229
0.522101
0.204315
0.205158
0.522894
0.475892
0.416602
0.367964
0.333348
0.311609
0.299054
0.291504
0.288344
0.288398
0.291068
0.29761
0.310348
0.332896
0.367738
0.415671
0.474445
0.521686
0.204025
0.20488
0.522499
0.475062
0.415753
0.367368
0.3329
0.311692
0.299346
0.292339
0.289214
0.289392
0.293096
0.299339
0.310418
0.331811
0.36693
0.414829
0.473679
0.521305
0.203794
0.20465
0.522166
0.474332
0.414948
0.366791
0.332501
0.312162
0.300326
0.293483
0.291635
0.291866
0.293959
0.299733
0.310698
0.331621
0.366411
0.414088
0.473017
0.520955
0.203588
0.204363
0.521776
0.473551
0.414155
0.366329
0.332513
0.313028
0.301541
0.295593
0.292888
0.29288
0.2952
0.300154
0.311549
0.331374
0.365571
0.41318
0.472198
0.520691
0.203431
0.204046
0.52132
0.472739
0.413357
0.365729
0.332398
0.313514
0.302863
0.29747
0.294888
0.294326
0.296111
0.301114
0.311291
0.331138
0.36492
0.412298
0.471455
0.520505
0.203261
0.203736
0.520895
0.471826
0.412461
0.365214
0.332348
0.313849
0.30379
0.298564
0.296152
0.295613
0.29749
0.301911
0.311623
0.330971
0.364216
0.411347
0.47058
0.520136
0.20297
0.203346
0.520367
0.470842
0.411556
0.364675
0.332305
0.313909
0.304816
0.299789
0.297349
0.296732
0.298498
0.302877
0.312265
0.33099
0.363622
0.410375
0.469709
0.519613
0.202625
0.203027
0.519852
0.469813
0.410507
0.363975
0.3323
0.31496
0.305808
0.301003
0.298681
0.298166
0.299724
0.303953
0.313407
0.331013
0.362866
0.409293
0.468642
0.519052
0.202248
0.202682
0.519272
0.468801
0.409484
0.363378
0.332292
0.315362
0.30662
0.301995
0.29984
0.299392
0.300755
0.304779
0.313809
0.331035
0.362206
0.408202
0.467568
0.518374
0.20185
0.202444
0.518836
0.467883
0.408453
0.362653
0.332269
0.316175
0.307565
0.303194
0.30115
0.300679
0.301961
0.305754
0.314373
0.331351
0.361411
0.407016
0.466446
0.517707
0.201468
0.202178
0.518397
0.466876
0.407363
0.362005
0.332304
0.31671
0.308512
0.304369
0.302441
0.302021
0.30318
0.306758
0.31491
0.330978
0.360659
0.405865
0.465323
0.51719
0.201172
0.201891
0.517975
0.465854
0.406294
0.361363
0.332353
0.317527
0.309609
0.305538
0.3036
0.303132
0.304222
0.30764
0.315274
0.330694
0.359876
0.404717
0.464196
0.516622
0.200817
0.201546
0.517465
0.464643
0.40508
0.360707
0.332556
0.318013
0.310471
0.306668
0.304853
0.304386
0.305329
0.308501
0.315723
0.330226
0.35913
0.403568
0.463023
0.516042
0.20051
0.201109
0.516812
0.463418
0.403876
0.359944
0.332274
0.318438
0.311257
0.307621
0.305919
0.305515
0.306473
0.309536
0.316379
0.330238
0.35858
0.402574
0.462016
0.515459
0.200224
0.200684
0.516097
0.462131
0.402616
0.359206
0.332609
0.318651
0.31194
0.308643
0.307114
0.306757
0.307639
0.3105
0.316968
0.330178
0.357905
0.401512
0.461013
0.514961
0.199986
0.20027
0.515416
0.460874
0.401338
0.358232
0.33179
0.318215
0.31246
0.309553
0.308194
0.307884
0.308728
0.311437
0.317594
0.330142
0.357268
0.400475
0.460003
0.514562
0.199766
0.199821
0.514646
0.45951
0.399988
0.357182
0.330647
0.317216
0.312809
0.310431
0.30932
0.309091
0.309863
0.312337
0.318076
0.329993
0.356514
0.399283
0.458842
0.514089
0.199492
0.19948
0.514026
0.458164
0.398566
0.356001
0.329311
0.317423
0.313088
0.311192
0.310339
0.310197
0.3109
0.313117
0.318398
0.329891
0.355729
0.398037
0.457649
0.513625
0.199245
0.199082
0.513314
0.456774
0.397097
0.35483
0.328839
0.3156
0.312449
0.311681
0.311229
0.311213
0.311824
0.313709
0.318329
0.329812
0.354923
0.396755
0.456351
0.513009
0.19889
0.198754
0.512689
0.455385
0.395532
0.353405
0.329158
0.31506
0.31124
0.311931
0.311931
0.312033
0.312488
0.313915
0.317403
0.329967
0.353984
0.395324
0.454975
0.512338
0.198547
0.198327
0.511956
0.453935
0.393944
0.351677
0.327354
0.314386
0.311839
0.312094
0.312313
0.312555
0.312784
0.313661
0.316946
0.328925
0.352899
0.393869
0.453539
0.511629
0.198144
0.197923
0.511172
0.452352
0.392291
0.350032
0.325912
0.313261
0.309557
0.310941
0.311848
0.312477
0.312269
0.312307
0.316879
0.327619
0.351678
0.392225
0.451938
0.510895
0.197717
0.197537
0.510452
0.450783
0.390649
0.348387
0.324322
0.313061
0.30917
0.309231
0.310257
0.311569
0.310801
0.311394
0.314834
0.325954
0.350407
0.390528
0.450241
0.510103
0.197235
0.197073
0.509575
0.449044
0.388892
0.347021
0.323895
0.313238
0.309047
0.310298
0.309746
0.310196
0.310247
0.312221
0.314624
0.32555
0.349158
0.388678
0.44841
0.509223
0.196713
0.196684
0.508821
0.447349
0.387183
0.346124
0.322898
0.314297
0.308891
0.308075
0.310643
0.312031
0.311098
0.309824
0.314071
0.325396
0.347915
0.386829
0.446524
0.508248
0.196156
0.196193
0.50797
0.44541
0.385242
0.346174
0.322488
0.313794
0.30967
0.307672
0.30781
0.309078
0.308327
0.309093
0.313457
0.326066
0.346659
0.38481
0.444508
0.5072
0.195549
0.19567
0.507086
0.443348
0.38288
0.343553
0.32173
0.312061
0.307712
0.308261
0.307688
0.307713
0.308135
0.308976
0.313183
0.324537
0.344877
0.382516
0.442262
0.506025
0.194852
0.194977
0.505912
0.441
0.38054
0.341858
0.319272
0.309943
0.305515
0.305451
0.308389
0.307869
0.309167
0.309486
0.31402
0.323482
0.342954
0.380035
0.43983
0.50479
0.194093
0.194202
0.504605
0.438395
0.377869
0.339932
0.317846
0.30809
0.305375
0.305353
0.306178
0.308037
0.306435
0.307938
0.31168
0.321848
0.341014
0.377435
0.437173
0.503401
0.193215
0.193233
0.503051
0.435407
0.374839
0.337767
0.316614
0.307716
0.305585
0.305985
0.307088
0.30638
0.306094
0.306546
0.309751
0.320402
0.338835
0.374455
0.434129
0.501703
0.192155
0.192147
0.501316
0.432131
0.371514
0.335235
0.314636
0.308675
0.306315
0.308021
0.306619
0.308172
0.308217
0.308181
0.309627
0.318891
0.336427
0.371297
0.430897
0.499861
0.191023
0.190855
0.499291
0.428522
0.367955
0.332601
0.313884
0.307043
0.307094
0.307424
0.306781
0.306966
0.3066
0.306704
0.310054
0.317149
0.33385
0.367939
0.427407
0.497819
0.189769
0.189429
0.497007
0.424635
0.364268
0.329847
0.314153
0.307054
0.306269
0.307252
0.307787
0.307806
0.307084
0.306792
0.308514
0.314571
0.330967
0.364365
0.423691
0.495575
0.188406
0.187842
0.494479
0.4206
0.360604
0.327081
0.312294
0.308853
0.309262
0.309814
0.309952
0.309913
0.310122
0.309508
0.310563
0.313187
0.328538
0.360901
0.419876
0.493149
0.18693
0.186046
0.491641
0.41629
0.356962
0.32463
0.311346
0.3094
0.310479
0.312394
0.313268
0.313016
0.311242
0.309503
0.309164
0.3119
0.325999
0.357283
0.415823
0.49055
0.185318
0.184113
0.488698
0.411884
0.353612
0.322995
0.311817
0.310455
0.312325
0.314082
0.314367
0.314425
0.313334
0.311015
0.308731
0.310791
0.323436
0.353738
0.411653
0.487804
0.183566
0.181857
0.485308
0.407143
0.350249
0.321848
0.312491
0.312641
0.314363
0.31595
0.316424
0.316396
0.315149
0.313204
0.311169
0.31131
0.321541
0.350478
0.407283
0.484669
0.181541
0.17942
0.481594
0.402227
0.347026
0.321874
0.313384
0.313785
0.316249
0.318278
0.319248
0.319044
0.317401
0.314892
0.312229
0.311803
0.320038
0.347343
0.402821
0.481377
0.179406
0.176699
0.47737
0.397077
0.343716
0.32125
0.314233
0.315679
0.318352
0.32044
0.321393
0.321241
0.319806
0.317338
0.314516
0.314024
0.320463
0.344588
0.398099
0.477586
0.176894
0.173748
0.472629
0.391763
0.340577
0.320617
0.31635
0.317703
0.320594
0.322927
0.324071
0.323899
0.322462
0.319785
0.316862
0.315051
0.319392
0.341446
0.393165
0.473504
0.174258
0.170665
0.467529
0.386352
0.337531
0.319935
0.31721
0.319572
0.322716
0.325073
0.326235
0.326155
0.324763
0.322251
0.319032
0.317058
0.319614
0.338862
0.388072
0.46874
0.171239
0.167518
0.46221
0.381046
0.334812
0.319441
0.318294
0.32119
0.32455
0.327102
0.328414
0.328349
0.326979
0.324451
0.32117
0.318308
0.320114
0.33624
0.382928
0.463731
0.168269
0.164441
0.456771
0.376028
0.33263
0.319213
0.319614
0.323047
0.326556
0.329098
0.330376
0.330348
0.32901
0.326446
0.322988
0.319757
0.319807
0.333942
0.377842
0.458289
0.165124
0.161565
0.451355
0.371518
0.331249
0.320364
0.321238
0.324906
0.328467
0.331029
0.332345
0.332359
0.331084
0.328585
0.32512
0.321611
0.321001
0.33238
0.37313
0.452897
0.162253
0.158978
0.44597
0.367414
0.330311
0.321554
0.322973
0.326758
0.330284
0.332784
0.334066
0.334102
0.332889
0.33045
0.326962
0.323182
0.32176
0.331034
0.368637
0.447244
0.159432
0.156811
0.440787
0.363846
0.32991
0.322721
0.324662
0.328551
0.332053
0.334511
0.335781
0.335846
0.334707
0.33237
0.32898
0.32519
0.323351
0.3305
0.364796
0.441789
0.157085
0.155074
0.435733
0.360705
0.329681
0.323866
0.32632
0.330327
0.333786
0.336167
0.33739
0.337464
0.336385
0.33412
0.330743
0.326781
0.324344
0.330216
0.361207
0.436261
0.154926
0.153874
0.430683
0.357821
0.329618
0.325292
0.328165
0.332193
0.335572
0.337875
0.339057
0.339141
0.338124
0.335956
0.332664
0.328642
0.325694
0.329865
0.358063
0.430935
0.153195
0.152496
0.425373
0.354989
0.3297
0.326662
0.329946
0.334037
0.337371
0.339616
0.340757
0.340835
0.339846
0.337731
0.334485
0.330415
0.327061
0.329852
0.355061
0.425387
0.151543
0.150475
0.419565
0.352109
0.329558
0.328075
0.331792
0.335947
0.339242
0.341441
0.342555
0.342624
0.341641
0.339555
0.336334
0.33219
0.328404
0.329884
0.352062
0.419484
0.149989
0.148814
0.413082
0.349086
0.329816
0.329582
0.333689
0.337891
0.341133
0.343267
0.34434
0.344396
0.34343
0.341389
0.33821
0.334022
0.329843
0.329893
0.349015
0.412948
0.148337
0.147074
0.405838
0.345896
0.330043
0.331192
0.335719
0.339949
0.34311
0.345156
0.346169
0.346209
0.345271
0.34329
0.340167
0.335938
0.331347
0.330071
0.345727
0.405608
0.146649
0.145273
0.397608
0.342523
0.330359
0.332901
0.337842
0.342104
0.345186
0.347142
0.348095
0.348122
0.347218
0.345308
0.342256
0.338
0.333017
0.330363
0.342366
0.397364
0.144953
0.143817
0.388673
0.339347
0.331066
0.334961
0.340217
0.344439
0.347391
0.349228
0.35011
0.350125
0.34927
0.347461
0.344526
0.34031
0.335031
0.331069
0.33924
0.388461
0.1438
0.142915
0.379041
0.336443
0.332145
0.33729
0.342778
0.346904
0.349692
0.351391
0.352194
0.352201
0.35141
0.349725
0.346946
0.342821
0.33732
0.332142
0.336406
0.378899
0.142856
0.142782
0.369268
0.334399
0.333841
0.340015
0.345576
0.349512
0.352082
0.353615
0.354329
0.354332
0.353623
0.352096
0.34953
0.345595
0.340032
0.333847
0.33439
0.369252
0.142763
0.144199
0.359748
0.333445
0.336119
0.343096
0.348553
0.352201
0.3545
0.355837
0.356452
0.356452
0.355838
0.3545
0.352203
0.348551
0.343092
0.336112
0.333446
0.359781
0.144185
0.146842
0.350889
0.333185
0.339032
0.346494
0.351675
0.354933
0.356903
0.358016
0.358517
0.358516
0.358014
0.356898
0.354929
0.351668
0.34649
0.339035
0.333188
0.350919
0.146816
0.151484
0.343128
0.334337
0.342701
0.350199
0.354884
0.357643
0.359228
0.36009
0.360468
0.360466
0.360086
0.35922
0.357634
0.354873
0.350191
0.342698
0.334327
0.343162
0.151484
0.157881
0.336873
0.336807
0.347008
0.354128
0.358114
0.360277
0.361433
0.362022
0.36227
0.362268
0.362019
0.361427
0.360272
0.358113
0.354135
0.347027
0.336814
0.336864
0.157852
0.166634
0.333202
0.34089
0.352014
0.358238
0.361317
0.362795
0.363483
0.363786
0.363897
0.363896
0.363783
0.36348
0.362792
0.361318
0.358243
0.352028
0.340912
0.333208
0.166652
0.177438
0.331751
0.346408
0.357386
0.362393
0.364422
0.365156
0.365356
0.365365
0.365339
0.365338
0.365364
0.365355
0.365156
0.364426
0.3624
0.357396
0.346421
0.331759
0.177413
0.190857
0.332104
0.353487
0.363261
0.366577
0.367387
0.367325
0.367028
0.366749
0.36659
0.36659
0.366748
0.367027
0.367324
0.367388
0.366578
0.363262
0.353494
0.332107
0.190867
0.207032
0.338546
0.362365
0.369374
0.370586
0.370087
0.369233
0.368468
0.367927
0.367652
0.367651
0.367925
0.368466
0.36923
0.370086
0.370588
0.369382
0.362383
0.338558
0.207003
0.225213
0.348068
0.37222
0.375418
0.374256
0.372415
0.370822
0.369655
0.368906
0.368542
0.368541
0.368904
0.369651
0.370817
0.37241
0.374253
0.375421
0.372231
0.348081
0.225211
0.245961
0.363773
0.383432
0.38123
0.377386
0.374245
0.372031
0.370585
0.369715
0.369305
0.369305
0.369712
0.370581
0.372026
0.37424
0.377387
0.381242
0.383458
0.363783
0.24594
0.267952
0.384241
0.39485
0.386004
0.379347
0.375305
0.372814
0.371294
0.370422
0.370023
0.370023
0.370419
0.371291
0.372809
0.3753
0.379345
0.386009
0.394866
0.384229
0.267924
0.291298
0.410201
0.404677
0.388348
0.380082
0.375742
0.373312
0.371905
0.371139
0.370803
0.370803
0.371138
0.371903
0.373308
0.37574
0.380081
0.388354
0.404693
0.410217
0.291309
0.314376
0.434504
0.408949
0.388849
0.380082
0.375806
0.37363
0.37251
0.371957
0.371733
0.371733
0.371958
0.372511
0.373629
0.375806
0.38008
0.388854
0.408959
0.434506
0.314349
0.338054
0.444938
0.406827
0.385644
0.378091
0.375062
0.373775
0.373204
0.372962
0.372876
0.372877
0.372964
0.373206
0.373778
0.375064
0.378093
0.385646
0.406832
0.444933
0.338073
0.364369
0.421479
0.386484
0.377504
0.375377
0.374627
0.374348
0.374272
0.374255
0.374253
0.374253
0.374255
0.374272
0.374348
0.374627
0.375378
0.377504
0.386483
0.421482
0.364364
0.611354
1.18849
1.05703
0.866054
0.688663
0.559156
0.479012
0.434253
0.409753
0.399144
0.399366
0.409708
0.433529
0.48007
0.563597
0.69229
0.863466
1.05019
1.18213
0.607372
0.610159
1.18705
1.05044
0.857915
0.682416
0.555247
0.476566
0.433935
0.40972
0.399125
0.399518
0.409985
0.432585
0.476927
0.558652
0.685199
0.855473
1.04284
1.17957
0.606393
0.609435
1.18661
1.04985
0.85553
0.678466
0.551895
0.47541
0.433088
0.409646
0.398937
0.39984
0.409564
0.432223
0.476585
0.558003
0.684538
0.855375
1.04207
1.17906
0.60593
0.606199
1.18344
1.0488
0.851156
0.673691
0.54885
0.473938
0.432454
0.409617
0.398727
0.398838
0.408698
0.431488
0.475154
0.556689
0.683201
0.854634
1.04102
1.17829
0.603391
0.607529
1.18393
1.0473
0.846792
0.670656
0.546925
0.472792
0.431674
0.409066
0.398575
0.398093
0.408134
0.43102
0.474477
0.553135
0.680453
0.852047
1.0344
1.17858
0.604147
0.606313
1.18251
1.04453
0.844022
0.667519
0.544319
0.471469
0.430961
0.408279
0.398457
0.397989
0.407813
0.430421
0.473346
0.553498
0.673864
0.845502
1.03651
1.17733
0.603449
0.603
1.18229
1.04387
0.842298
0.665809
0.542702
0.470473
0.430244
0.407326
0.397336
0.397104
0.407033
0.429961
0.472501
0.550503
0.673552
0.846047
1.0388
1.17952
0.601473
0.60294
1.18125
1.04201
0.841501
0.665908
0.541316
0.469372
0.429692
0.407318
0.397871
0.397127
0.407159
0.429528
0.471521
0.548955
0.672302
0.844853
1.03378
1.17866
0.603528
0.601544
1.17755
1.03573
0.843514
0.668319
0.539876
0.468302
0.42902
0.407392
0.397247
0.396971
0.406396
0.428889
0.470245
0.547436
0.669513
0.841815
1.03664
1.17813
0.602965
0.598349
1.17702
1.03424
0.840848
0.666288
0.538586
0.467255
0.428285
0.407147
0.397713
0.397094
0.406321
0.428424
0.469245
0.545493
0.665858
0.832951
1.02998
1.17462
0.601828
0.597091
1.17358
1.03
0.832903
0.659472
0.536561
0.466199
0.427395
0.406013
0.396841
0.397371
0.406396
0.427677
0.467769
0.541549
0.662176
0.830087
1.02908
1.17495
0.601048
0.595568
1.17257
1.02399
0.830195
0.657837
0.535544
0.465349
0.426665
0.405189
0.396019
0.396506
0.405496
0.426992
0.466246
0.538494
0.658811
0.826122
1.02712
1.17416
0.600075
0.592795
1.16951
1.01984
0.82465
0.653405
0.534606
0.464464
0.42618
0.405457
0.396068
0.397271
0.40572
0.426356
0.464791
0.536017
0.655288
0.823832
1.02591
1.17332
0.599365
0.590887
1.16711
1.01378
0.817419
0.649335
0.532623
0.463357
0.425994
0.404319
0.395802
0.396668
0.405216
0.425643
0.463653
0.53396
0.652133
0.820646
1.02207
1.17309
0.598572
0.588916
1.16496
1.01047
0.813582
0.644055
0.52972
0.461985
0.425143
0.403945
0.395774
0.395954
0.404838
0.42492
0.462269
0.531785
0.648855
0.817849
1.02382
1.17271
0.597769
0.58696
1.16224
1.00576
0.80829
0.641018
0.526454
0.460395
0.424292
0.403698
0.396361
0.396427
0.404121
0.424233
0.461234
0.529757
0.645571
0.815338
1.0218
1.17194
0.596584
0.58485
1.15953
1.00149
0.803061
0.636513
0.524013
0.459176
0.423098
0.403325
0.394736
0.394742
0.402825
0.423406
0.459756
0.527285
0.642262
0.811864
1.01547
1.16821
0.59538
0.582969
1.15822
0.997631
0.798465
0.63272
0.522245
0.458192
0.422141
0.402103
0.393743
0.393915
0.402637
0.422891
0.458472
0.524384
0.638432
0.80846
1.01304
1.16739
0.592305
0.58092
1.15621
0.994087
0.793498
0.628897
0.520196
0.457016
0.420938
0.402116
0.394292
0.394627
0.402707
0.422118
0.457231
0.522298
0.635043
0.804712
1.00949
1.16517
0.591843
0.578182
1.15296
0.989299
0.789671
0.625516
0.517947
0.455897
0.419988
0.402596
0.393133
0.393513
0.403077
0.421396
0.455948
0.520005
0.63119
0.800609
1.00678
1.16496
0.589622
0.57502
1.14867
0.984122
0.783639
0.621514
0.515599
0.454785
0.419687
0.401953
0.392883
0.392461
0.40185
0.420355
0.454691
0.517967
0.628455
0.796559
1.00163
1.1618
0.588974
0.572505
1.14505
0.97881
0.778409
0.617637
0.513271
0.453557
0.419512
0.401524
0.393205
0.392245
0.400639
0.419367
0.453467
0.515691
0.624505
0.79177
0.997838
1.16014
0.586607
0.570865
1.14283
0.974227
0.772481
0.613224
0.511072
0.452563
0.418554
0.400704
0.392452
0.392056
0.399754
0.418413
0.452415
0.513882
0.621514
0.787159
0.992402
1.15841
0.583818
0.569935
1.1404
0.968838
0.76693
0.609683
0.509211
0.451552
0.417447
0.400035
0.392707
0.392319
0.40002
0.417414
0.451406
0.51189
0.618075
0.782861
0.989159
1.15633
0.582121
0.570834
1.14104
0.965789
0.762206
0.605982
0.507292
0.450789
0.417336
0.400786
0.393688
0.392655
0.399591
0.416489
0.45057
0.510065
0.614583
0.777958
0.983965
1.15404
0.580097
0.5705
1.14244
0.964162
0.758218
0.603078
0.505583
0.449845
0.417117
0.400323
0.393099
0.393534
0.400354
0.416315
0.449775
0.508324
0.611482
0.773909
0.980774
1.15233
0.577686
0.569501
1.14183
0.965522
0.754356
0.599996
0.504025
0.44916
0.41712
0.401191
0.393987
0.393576
0.40024
0.416007
0.448835
0.506397
0.608161
0.769379
0.976126
1.14962
0.575464
0.567984
1.14088
0.963535
0.752015
0.598066
0.502737
0.448308
0.416969
0.401019
0.39394
0.39377
0.400337
0.415826
0.448095
0.50465
0.605259
0.766151
0.973513
1.14879
0.5741
0.566397
1.13647
0.960671
0.748462
0.59567
0.50138
0.447545
0.417006
0.401028
0.393961
0.393728
0.40022
0.415572
0.447121
0.502759
0.602033
0.761922
0.96963
1.14753
0.572161
0.563614
1.13531
0.954083
0.745579
0.593713
0.500174
0.446683
0.417373
0.400619
0.393634
0.393432
0.399894
0.415449
0.446396
0.501151
0.599297
0.758457
0.966124
1.14583
0.570154
0.562063
1.13339
0.948951
0.741996
0.591633
0.499022
0.445809
0.416427
0.401076
0.393897
0.393664
0.400463
0.415584
0.445543
0.499432
0.596031
0.753091
0.961076
1.14283
0.567393
0.559587
1.13079
0.945008
0.739158
0.589692
0.497888
0.445119
0.415634
0.400361
0.394206
0.393894
0.399858
0.414725
0.444707
0.497683
0.59267
0.747711
0.955176
1.13857
0.564049
0.558049
1.1283
0.941752
0.7363
0.587621
0.496789
0.444631
0.415082
0.400611
0.395238
0.39487
0.400708
0.414947
0.443969
0.495829
0.58929
0.742843
0.950662
1.13477
0.561174
0.555993
1.12639
0.93766
0.732996
0.585494
0.495584
0.444094
0.415389
0.401427
0.394535
0.394081
0.400364
0.414336
0.44306
0.494083
0.586095
0.738045
0.945136
1.13255
0.559056
0.554124
1.12358
0.933452
0.729353
0.583109
0.494339
0.443188
0.414808
0.401347
0.394909
0.394743
0.40051
0.41461
0.442235
0.492141
0.582563
0.732691
0.940509
1.12999
0.556618
0.551759
1.12088
0.92863
0.725649
0.580852
0.493205
0.442619
0.414984
0.401502
0.395697
0.393887
0.399916
0.41378
0.441157
0.490238
0.579407
0.728707
0.935749
1.1275
0.553983
0.549106
1.11752
0.924217
0.722025
0.578425
0.491934
0.442495
0.41411
0.40097
0.394671
0.393646
0.399149
0.414033
0.440157
0.488245
0.575747
0.723183
0.930889
1.12464
0.551609
0.546848
1.11525
0.919713
0.718215
0.575913
0.490504
0.441444
0.413884
0.400335
0.395458
0.393743
0.399076
0.412765
0.43892
0.486267
0.572378
0.718474
0.925472
1.12215
0.548748
0.544656
1.11241
0.915161
0.71425
0.573252
0.489047
0.440576
0.413854
0.400289
0.394506
0.393638
0.398136
0.411724
0.437833
0.484436
0.569169
0.713612
0.920256
1.11884
0.546014
0.54269
1.11094
0.910301
0.709639
0.57028
0.487522
0.440139
0.414036
0.401135
0.395653
0.393996
0.398037
0.410927
0.436663
0.482356
0.56558
0.708438
0.914729
1.11524
0.542723
0.540847
1.10919
0.90631
0.705775
0.567601
0.485884
0.438495
0.413164
0.400284
0.394944
0.394571
0.397924
0.410617
0.435533
0.480402
0.562371
0.703672
0.90948
1.11245
0.540356
0.53924
1.10721
0.902227
0.701465
0.564653
0.484254
0.437051
0.412129
0.400726
0.394138
0.393159
0.397743
0.410034
0.434137
0.478072
0.558366
0.697857
0.903811
1.10923
0.537311
0.537293
1.10397
0.897957
0.697532
0.561918
0.482728
0.436733
0.411885
0.39958
0.394276
0.393177
0.398136
0.409297
0.432807
0.475865
0.554607
0.692126
0.897279
1.10573
0.534642
0.535941
1.10221
0.893971
0.693578
0.559147
0.481074
0.436624
0.411784
0.399366
0.39414
0.393068
0.396913
0.407846
0.431234
0.473292
0.550357
0.686181
0.891213
1.10263
0.531709
0.534219
1.0993
0.889683
0.689645
0.556378
0.479334
0.437101
0.411708
0.399606
0.395133
0.393438
0.397101
0.407634
0.429761
0.470603
0.545927
0.679669
0.884254
1.09934
0.528884
0.532248
1.0967
0.885126
0.685548
0.553495
0.477324
0.435495
0.411597
0.39979
0.395281
0.39375
0.397749
0.406749
0.427861
0.467701
0.541381
0.673443
0.877755
1.09613
0.525881
0.53025
1.09374
0.88045
0.681186
0.550419
0.475286
0.434308
0.411855
0.400556
0.395537
0.394514
0.396579
0.406748
0.42596
0.464795
0.536749
0.666851
0.871091
1.0932
0.523068
0.527862
1.09025
0.875336
0.676742
0.547338
0.473212
0.432797
0.410162
0.399542
0.395074
0.394001
0.395639
0.404911
0.423875
0.461906
0.532153
0.660431
0.864129
1.08931
0.519476
0.525801
1.08738
0.870404
0.671888
0.543894
0.471057
0.431344
0.408435
0.398568
0.394422
0.3935
0.395485
0.403816
0.421887
0.45891
0.527305
0.653604
0.857183
1.0857
0.516054
0.522844
1.08354
0.864547
0.666729
0.540339
0.468946
0.430137
0.407983
0.398671
0.394697
0.394516
0.395629
0.402712
0.419956
0.45588
0.522264
0.646378
0.849316
1.0809
0.511851
0.52054
1.08051
0.859037
0.661329
0.536461
0.466674
0.428631
0.407472
0.398528
0.395638
0.393531
0.395827
0.403254
0.418747
0.452943
0.517232
0.63925
0.841804
1.07673
0.507904
0.517695
1.07697
0.852927
0.655578
0.53243
0.464417
0.427105
0.406899
0.39883
0.395139
0.394045
0.396694
0.402001
0.417848
0.449762
0.511681
0.631353
0.833224
1.07098
0.503095
0.514691
1.07326
0.846887
0.649752
0.528206
0.462086
0.425581
0.406497
0.397955
0.394018
0.392603
0.395607
0.40187
0.417589
0.446488
0.506014
0.623378
0.824616
1.0657
0.49878
0.511431
1.0691
0.840177
0.643441
0.523656
0.459587
0.424538
0.406212
0.398141
0.394288
0.392228
0.395526
0.399876
0.414589
0.442458
0.499724
0.614724
0.815429
1.05998
0.494241
0.508243
1.0657
0.833695
0.637122
0.518997
0.45687
0.424378
0.406106
0.399151
0.393503
0.391723
0.394597
0.398957
0.412841
0.438625
0.493543
0.606185
0.806097
1.05398
0.489819
0.504721
1.06143
0.826344
0.630298
0.514195
0.453972
0.423632
0.40552
0.397891
0.3934
0.391146
0.393531
0.397234
0.410221
0.434329
0.487035
0.597266
0.796653
1.04849
0.485774
0.501629
1.05813
0.81926
0.623412
0.509336
0.451185
0.422105
0.405144
0.396311
0.394006
0.390871
0.39294
0.396967
0.408117
0.430405
0.480772
0.588535
0.787435
1.04322
0.482013
0.498061
1.05385
0.8114
0.616116
0.50423
0.447864
0.41993
0.405487
0.395576
0.391966
0.390242
0.391919
0.397531
0.405985
0.426431
0.47432
0.5795
0.778155
1.03875
0.478604
0.495168
1.0508
0.803609
0.608575
0.499088
0.444968
0.418201
0.403061
0.394805
0.391285
0.389722
0.39023
0.395844
0.403657
0.422623
0.468285
0.570884
0.769108
1.03454
0.475056
0.491261
1.04667
0.794499
0.600335
0.493603
0.441569
0.416548
0.401276
0.39454
0.391257
0.389631
0.38989
0.394584
0.401292
0.419105
0.462491
0.562098
0.759564
1.03023
0.471139
0.487284
1.0425
0.784644
0.591492
0.488009
0.437974
0.414786
0.401007
0.394481
0.391291
0.38939
0.389532
0.392884
0.398841
0.415973
0.457133
0.553499
0.749594
1.02535
0.466423
0.482308
1.03763
0.773684
0.582016
0.482431
0.434252
0.412227
0.400958
0.394523
0.391464
0.389319
0.389684
0.39109
0.396294
0.41306
0.451959
0.544845
0.739078
1.01996
0.460971
0.475963
1.03146
0.76073
0.571147
0.476456
0.430771
0.409635
0.401943
0.394561
0.392402
0.389174
0.387997
0.389021
0.393989
0.41052
0.446899
0.535781
0.7273
1.01313
0.453949
0.468069
1.02389
0.746386
0.559419
0.470043
0.427482
0.407194
0.400207
0.39378
0.391081
0.389263
0.388135
0.387756
0.392254
0.407787
0.441549
0.526179
0.714298
1.00535
0.445928
0.457679
1.01358
0.729603
0.546327
0.462659
0.42337
0.405256
0.399153
0.393652
0.391501
0.389569
0.389338
0.387932
0.391957
0.405555
0.436277
0.51597
0.699399
0.994649
0.435559
0.445318
1.00091
0.711229
0.532876
0.45503
0.419551
0.40256
0.397576
0.393678
0.390841
0.390224
0.388132
0.387832
0.391016
0.402915
0.430759
0.505235