/*--------------------------------*- C++ -*----------------------------------*\
  =========                 |
  \\      /  F ield         | OpenFOAM: The Open Source CFD Toolbox
   \\    /   O peration     | Website:  https://openfoam.org
    \\  /    A nd           | Version:  6
     \\/     M anipulation  |
\*---------------------------------------------------------------------------*/
FoamFile
{
    version     2.0;
    format      ascii;
    class       volScalarField;
    location    "28";
    object      nut;
}
// * * * * * * * * * * * * * * * * * * * * * * * * * * * * * * * * * * * * * //

dimensions      [0 2 -1 0 0 0 0];

internalField   nonuniform List<scalar> 
130000
(
0.000905273
0.000909972
0.0009142
0.000917803
0.000920817
0.000923286
0.000925254
0.000926769
0.000927874
0.000928612
0.000929021
0.000929136
0.000928989
0.000928609
0.000928022
0.00092725
0.000926312
0.000925229
0.000924013
0.000922681
0.000905265
0.000909977
0.000914202
0.000917801
0.000920809
0.00092327
0.000925229
0.000926733
0.000927827
0.000928553
0.000928949
0.000929048
0.000928882
0.000928483
0.000927876
0.000927085
0.000926129
0.000925028
0.000923799
0.000922456
0.000905402
0.000910129
0.000914364
0.000917965
0.000920972
0.000923428
0.00092538
0.000926874
0.000927955
0.000928669
0.000929055
0.000929151
0.000928994
0.000928608
0.000928011
0.000927222
0.000926259
0.000925142
0.000923887
0.000922507
0.000905615
0.000910364
0.000914611
0.000918219
0.000921224
0.000923677
0.00092563
0.000927132
0.000928236
0.00092898
0.000929399
0.000929531
0.000929416
0.000929044
0.000928436
0.000927623
0.000926631
0.000925479
0.000924181
0.00092275
0.000905867
0.000910641
0.000914901
0.00091852
0.000921548
0.000924039
0.000926041
0.000927606
0.000928751
0.000929513
0.000929931
0.000930053
0.00092992
0.000929508
0.000928853
0.000928002
0.000926976
0.000925788
0.000924452
0.000922979
0.000906139
0.000910944
0.000915235
0.000918902
0.000921998
0.000924543
0.00092658
0.000928161
0.000929288
0.000930017
0.000930385
0.00093045
0.000930241
0.000929776
0.000929076
0.000928191
0.00092713
0.00092591
0.000924545
0.000923048
0.000906422
0.000911271
0.000915622
0.000919347
0.00092249
0.000925035
0.000927034
0.000928553
0.000929637
0.000930326
0.000930655
0.000930688
0.000930448
0.000929962
0.000929254
0.000928348
0.000927265
0.000926021
0.000924634
0.000923119
0.000906696
0.000911601
0.000916005
0.000919747
0.000922866
0.000925375
0.000927337
0.000928828
0.000929889
0.000930562
0.000930888
0.000930905
0.000930646
0.000930139
0.00092941
0.000928483
0.000927378
0.000926113
0.000924706
0.000923174
0.000906937
0.000911886
0.000916303
0.000920053
0.000923149
0.000925638
0.000927601
0.000929084
0.000930133
0.000930792
0.000931103
0.000931102
0.000930824
0.000930296
0.000929546
0.000928596
0.000927469
0.000926184
0.000924758
0.000923209
0.000907141
0.000912115
0.000916548
0.000920308
0.000923387
0.000925883
0.000927843
0.000929319
0.000930358
0.000931004
0.000931299
0.00093128
0.000930982
0.000930433
0.000929661
0.00092869
0.000927541
0.000926236
0.000924791
0.000923224
0.000907324
0.000912314
0.000916751
0.000920515
0.000923609
0.00092611
0.00092807
0.000929539
0.000930568
0.0009312
0.000931479
0.000931442
0.000931123
0.000930553
0.000929759
0.000928766
0.000927596
0.00092627
0.000924807
0.000923223
0.000907499
0.000912501
0.000916934
0.00092071
0.000923833
0.000926336
0.000928291
0.000929751
0.000930768
0.000931385
0.000931647
0.000931591
0.000931251
0.00093066
0.000929844
0.000928829
0.000927637
0.000926291
0.000924808
0.000923208
0.000907681
0.000912702
0.000917148
0.000920937
0.000924072
0.000926565
0.000928511
0.00092996
0.000930962
0.000931563
0.000931806
0.00093173
0.00093137
0.000930756
0.000929918
0.00092888
0.000927667
0.0009263
0.000924799
0.000923182
0.000907876
0.000912919
0.000917386
0.000921155
0.000924286
0.000926789
0.000928728
0.000930165
0.000931152
0.000931736
0.00093196
0.000931863
0.000931481
0.000930845
0.000929983
0.000928923
0.000927688
0.0009263
0.00092478
0.000923146
0.000908077
0.000913136
0.000917605
0.000921352
0.000924478
0.000927012
0.000928946
0.00093037
0.000931341
0.000931907
0.00093211
0.000931992
0.000931587
0.000930927
0.000930042
0.000928959
0.000927701
0.000926292
0.000924752
0.000923101
0.000908288
0.000913364
0.000917838
0.000921579
0.000924682
0.000927219
0.000929164
0.000930574
0.000931528
0.000932075
0.000932258
0.000932117
0.000931688
0.000931004
0.000930095
0.000928988
0.000927708
0.000926277
0.000924717
0.000923047
0.000908511
0.000913606
0.000918092
0.000921844
0.000924915
0.000927419
0.000929366
0.000930773
0.000931713
0.000932241
0.000932402
0.000932238
0.000931785
0.000931077
0.000930143
0.000929011
0.000927707
0.000926254
0.000924674
0.000922987
0.000908745
0.000913858
0.000918353
0.000922106
0.000925173
0.000927616
0.00092954
0.000930969
0.000931898
0.000932407
0.000932546
0.000932357
0.000931879
0.000931144
0.000930184
0.000929027
0.0009277
0.000926226
0.000924629
0.000922927
0.000908991
0.000914122
0.000918624
0.000922376
0.000925431
0.000927844
0.000929729
0.000931154
0.000932084
0.000932574
0.000932688
0.000932473
0.000931968
0.000931206
0.000930219
0.000929037
0.000927686
0.000926194
0.000924584
0.000922878
0.000909248
0.000914397
0.000918909
0.000922662
0.000925713
0.000928124
0.000929955
0.000931327
0.000932246
0.000932733
0.000932825
0.000932584
0.000932051
0.000931261
0.000930247
0.000929039
0.000927666
0.000926155
0.000924533
0.000922825
0.000909517
0.000914684
0.000919204
0.000922957
0.000926001
0.000928399
0.000930211
0.000931498
0.000932365
0.000932853
0.000932948
0.000932691
0.00093213
0.00093131
0.000930266
0.00092903
0.000927632
0.000926101
0.000924467
0.000922757
0.000909796
0.000914982
0.00091951
0.000923262
0.000926299
0.000928683
0.000930473
0.000931723
0.000932542
0.000932981
0.00093307
0.000932797
0.000932201
0.000931345
0.000930264
0.000928994
0.000927562
0.000926002
0.000924347
0.000922628
0.000910088
0.000915292
0.000919828
0.00092358
0.00092661
0.000928981
0.000930759
0.000932004
0.00093278
0.000933149
0.00093317
0.000932867
0.000932241
0.000931351
0.000930242
0.000928965
0.000927523
0.000925944
0.000924259
0.000922526
0.000910392
0.000915616
0.00092016
0.000923912
0.000926933
0.000929291
0.000931047
0.000932263
0.000932994
0.000933292
0.000933243
0.00093289
0.000932257
0.000931351
0.000930256
0.000928997
0.000927559
0.000925983
0.000924286
0.000922559
0.00091071
0.000915955
0.000920508
0.000924259
0.000927274
0.000929619
0.000931359
0.000932553
0.000933255
0.000933509
0.000933414
0.000933005
0.000932318
0.000931406
0.000930319
0.000929006
0.000927552
0.000925986
0.000924325
0.000922608
0.000911043
0.000916309
0.000920873
0.000924625
0.000927633
0.000929967
0.000931692
0.000932871
0.000933561
0.000933816
0.000933685
0.000933212
0.000932432
0.000931492
0.000930367
0.000929015
0.00092757
0.000926009
0.000924342
0.000922611
0.000911392
0.000916682
0.000921255
0.000925009
0.000928011
0.000930334
0.000932045
0.000933206
0.000933876
0.000934107
0.000933945
0.000933431
0.000932603
0.000931609
0.000930427
0.000929063
0.000927588
0.000926006
0.000924324
0.000922557
0.000911759
0.000917073
0.000921658
0.000925413
0.00092841
0.000930723
0.00093242
0.000933566
0.000934219
0.000934433
0.000934255
0.000933725
0.000932878
0.000931812
0.000930563
0.00092914
0.000927574
0.000925925
0.000924196
0.000922408
0.000912145
0.000917484
0.000922081
0.000925838
0.000928832
0.000931135
0.00093282
0.000933952
0.000934592
0.000934794
0.000934608
0.000934077
0.00093324
0.000932135
0.00093079
0.000929321
0.000927733
0.000926022
0.000924282
0.000922474
0.000912551
0.000917915
0.000922525
0.000926285
0.000929274
0.000931569
0.000933242
0.000934362
0.00093499
0.000935183
0.00093499
0.000934456
0.000933621
0.00093252
0.000931178
0.000929689
0.000928077
0.000926374
0.000924621
0.000922777
0.000912976
0.000918368
0.00092299
0.000926753
0.000929737
0.000932023
0.000933684
0.000934791
0.000935408
0.000935591
0.000935392
0.000934857
0.00093403
0.000932947
0.000931647
0.000930167
0.000928546
0.000926815
0.000924998
0.000923119
0.000913422
0.000918841
0.000923476
0.000927241
0.000930219
0.000932494
0.000934142
0.000935235
0.000935837
0.000936008
0.0009358
0.000935261
0.000934433
0.000933356
0.000932066
0.000930597
0.000928981
0.000927247
0.00092542
0.000923529
0.000913889
0.000919335
0.000923982
0.000927747
0.000930718
0.00093298
0.000934613
0.000935688
0.000936274
0.000936429
0.000936207
0.000935657
0.000934822
0.000933741
0.000932451
0.000930985
0.000929373
0.000927644
0.000925822
0.000923929
0.000914376
0.00091985
0.000924507
0.000928271
0.000931232
0.000933479
0.000935093
0.000936149
0.000936714
0.000936849
0.000936609
0.000936043
0.000935195
0.000934104
0.000932806
0.000931335
0.000929721
0.000927991
0.000926169
0.000924278
0.000914886
0.000920386
0.000925052
0.000928812
0.000931761
0.00093399
0.000935582
0.000936614
0.000937155
0.000937266
0.000937004
0.000936418
0.000935552
0.000934445
0.000933135
0.000931654
0.000930033
0.000928298
0.000926474
0.000924582
0.000915418
0.000920944
0.000925617
0.000929371
0.000932305
0.000934512
0.000936078
0.000937082
0.000937595
0.000937679
0.000937391
0.000936781
0.000935894
0.000934768
0.000933443
0.000931949
0.000930317
0.000928574
0.000926745
0.00092485
0.000915974
0.000921525
0.000926202
0.000929947
0.000932862
0.000935043
0.00093658
0.000937553
0.000938034
0.000938088
0.00093777
0.000937133
0.000936221
0.000935074
0.00093373
0.000932222
0.000930578
0.000928827
0.000926992
0.000925094
0.000916554
0.000922128
0.000926807
0.000930539
0.000933432
0.000935584
0.000937088
0.000938025
0.000938471
0.00093849
0.000938139
0.000937472
0.000936533
0.000935363
0.000933999
0.000932475
0.000930819
0.00092906
0.000927219
0.000925319
0.00091716
0.000922755
0.000927432
0.000931148
0.000934014
0.000936132
0.000937599
0.000938497
0.000938902
0.000938883
0.000938497
0.000937796
0.000936828
0.000935633
0.000934249
0.000932707
0.00093104
0.000929272
0.000927428
0.000925527
0.000917789
0.000923404
0.000928076
0.000931772
0.000934606
0.000936686
0.00093811
0.000938963
0.000939325
0.000939263
0.000938837
0.000938101
0.000937101
0.000935879
0.000934473
0.000932915
0.000931236
0.000929461
0.000927615
0.000925716
0.000918445
0.000924076
0.000928739
0.000932409
0.000935206
0.000937241
0.000938616
0.00093942
0.000939732
0.000939622
0.000939153
0.000938377
0.000937344
0.000936093
0.000934664
0.00093309
0.0009314
0.00092962
0.000927773
0.000925878
0.000919126
0.000924769
0.000929416
0.000933054
0.000935807
0.00093779
0.000939109
0.000939856
0.000940112
0.000939949
0.000939431
0.000938613
0.000937542
0.000936261
0.000934809
0.000933218
0.000931518
0.000929735
0.000927891
0.000926005
0.000919833
0.00092548
0.000930104
0.0009337
0.000936399
0.000938322
0.000939575
0.000940256
0.000940448
0.000940225
0.000939652
0.000938785
0.000937674
0.000936361
0.000934884
0.000933278
0.000931571
0.000929788
0.000927952
0.000926078
0.000920559
0.000926202
0.000930792
0.000934335
0.000936968
0.000938816
0.000939992
0.000940595
0.000940712
0.000940419
0.000939783
0.000938862
0.000937705
0.000936357
0.000934855
0.000933235
0.000931523
0.000929746
0.000927924
0.000926073
0.0009213
0.000926925
0.000931464
0.000934936
0.000937485
0.000939242
0.000940324
0.000940833
0.000940861
0.000940485
0.000939775
0.000938789
0.000937581
0.000936193
0.000934667
0.000933034
0.000931323
0.000929559
0.000927761
0.000925944
0.000922045
0.000927629
0.000932092
0.000935469
0.00093791
0.000939551
0.000940515
0.000940907
0.000940824
0.000940346
0.000939545
0.000938483
0.000937214
0.000935783
0.000934229
0.000932587
0.000930885
0.000929146
0.000927388
0.000925624
0.000922774
0.000928281
0.000932633
0.000935878
0.000938174
0.000939663
0.000940473
0.000940716
0.00094049
0.000939883
0.000938968
0.00093781
0.000936466
0.000934983
0.000933402
0.000931756
0.000930074
0.000928377
0.000926682
0.000925
0.000923445
0.000928825
0.000933011
0.00093607
0.000938167
0.000939451
0.000940055
0.000940098
0.000939684
0.000938905
0.000937839
0.000936557
0.000935117
0.00093357
0.000931958
0.000930316
0.00092867
0.000927043
0.000925447
0.000923893
0.000924005
0.000929177
0.000933114
0.000935904
0.00093772
0.000938717
0.000939036
0.000938802
0.000938128
0.000937112
0.00093584
0.000934387
0.000932818
0.000931187
0.000929539
0.00092791
0.000926327
0.00092481
0.00092337
0.000922012
0.000924366
0.000929201
0.000932761
0.000935156
0.000936565
0.000937151
0.000937063
0.000936436
0.000935391
0.000934037
0.000932471
0.000930775
0.000929022
0.000927274
0.000925579
0.000923976
0.000922494
0.000921149
0.00091995
0.000918894
0.000924384
0.000928688
0.000931677
0.000933486
0.000934297
0.000934283
0.000933603
0.000932403
0.000930819
0.000928972
0.000926974
0.000924921
0.000922898
0.000920976
0.000919212
0.00091765
0.00091632
0.000915236
0.000914404
0.000913814
0.000923835
0.000927321
0.00092945
0.000930386
0.000930317
0.000929421
0.000927872
0.000925831
0.000923452
0.000920878
0.000918238
0.00091565
0.000913218
0.000911029
0.000909154
0.000907643
0.00090653
0.000905832
0.000905547
0.000905658
0.000922439
0.000924665
0.0009255
0.000925142
0.000923777
0.000921591
0.000918773
0.000915503
0.00091196
0.000908314
0.000904725
0.000901339
0.000898288
0.000895683
0.000893613
0.000892147
0.000891326
0.000891168
0.00089167
0.000892805
0.000919815
0.000920115
0.00091903
0.000916783
0.000913547
0.000909512
0.000904878
0.000899853
0.000894646
0.000889464
0.000884505
0.000879956
0.000875986
0.000872741
0.000870339
0.000868872
0.000868399
0.000868946
0.000870512
0.000873069
0.000915211
0.000912838
0.000909004
0.000904097
0.000898257
0.00089167
0.00088455
0.00087713
0.000869655
0.000862378
0.000855545
0.000849389
0.000844125
0.000839941
0.000836996
0.000835413
0.000835278
0.000836641
0.000839515
0.000843882
0.000907721
0.000901562
0.000894275
0.000885766
0.000876488
0.000866596
0.0008563
0.000845845
0.000835514
0.000825612
0.000816433
0.000808251
0.000801323
0.00079588
0.000792123
0.000790214
0.000790277
0.000792401
0.000796636
0.000803006
0.000896736
0.000885087
0.000873148
0.000860698
0.000847171
0.000833402
0.000819484
0.000805606
0.000792071
0.000779289
0.000767569
0.000757185
0.000748406
0.000741496
0.000736684
0.000734164
0.000734102
0.000736638
0.000741893
0.000749974
0.000881153
0.00086318
0.000845256
0.000827738
0.000810105
0.000792524
0.000775273
0.000758201
0.000741528
0.000726231
0.000712387
0.000700143
0.000689722
0.000681432
0.000675495
0.000672106
0.000671453
0.000673728
0.00067914
0.000687925
0.000860386
0.000835319
0.000811334
0.000788677
0.000767052
0.000746085
0.000725908
0.000706695
0.000688688
0.000672245
0.000657616
0.000644517
0.000633059
0.000623894
0.000617072
0.000612735
0.000611054
0.000612246
0.000616594
0.000624462
0.000834586
0.000802342
0.000773265
0.000746717
0.000722176
0.000699562
0.000678387
0.00065881
0.000640886
0.000624728
0.000610414
0.000597974
0.000587356
0.000578154
0.000571006
0.000565914
0.000563004
0.000562476
0.000564634
0.00056992
0.000804738
0.000766605
0.000734168
0.000706151
0.000681319
0.000658978
0.000638893
0.000621215
0.000605309
0.000591193
0.000578834
0.000568146
0.00055898
0.000551125
0.000544231
0.00053877
0.000534745
0.000532297
0.000531692
0.000533353
0.000772779
0.000731349
0.000698413
0.000671669
0.000649209
0.000629979
0.000613365
0.000598984
0.000586475
0.000575498
0.000566069
0.000558069
0.000550973
0.000544674
0.000538788
0.000533337
0.000528539
0.000524414
0.000521146
0.000519066
0.000741371
0.000700198
0.000670039
0.000647367
0.000629602
0.000615292
0.000603552
0.000593787
0.000585545
0.000578458
0.000572237
0.000566634
0.000561627
0.000556977
0.000552195
0.000547177
0.000542008
0.000536666
0.000531284
0.000526061
0.000713418
0.000676361
0.000651975
0.000635553
0.000623981
0.000615543
0.000609207
0.0006043
0.000600335
0.000596945
0.000593831
0.00059075
0.000587542
0.00058419
0.000580406
0.00057593
0.000570645
0.000564509
0.000557647
0.000550123
0.000691535
0.000662031
0.000645609
0.000636684
0.000631895
0.000629464
0.00062837
0.000627975
0.000627849
0.000627675
0.000627214
0.000626273
0.000624703
0.00062243
0.000619346
0.000615348
0.000610144
0.00060352
0.000595667
0.000586563
0.00067765
0.000658208
0.000650933
0.000649876
0.00065176
0.000654958
0.000658589
0.000662143
0.000665291
0.00066781
0.000669534
0.000670333
0.0006701
0.000668739
0.000666204
0.000662596
0.000657525
0.000650597
0.000642053
0.000631835
0.000672864
0.00066488
0.000667051
0.000673621
0.000681696
0.00068995
0.000697726
0.00070468
0.000710612
0.000715397
0.000718944
0.000721183
0.000722053
0.000721495
0.000719453
0.000716092
0.00071114
0.000703986
0.000694895
0.000683811
0.000677504
0.000681384
0.000692697
0.000706352
0.000720031
0.000732784
0.000744211
0.000754141
0.000762498
0.00076925
0.000774374
0.000777853
0.000779663
0.000779774
0.000778143
0.000775007
0.000770154
0.000762798
0.000753212
0.000741366
0.000691319
0.000706757
0.000726601
0.000746725
0.000765468
0.000782273
0.000796984
0.000809594
0.000820141
0.000828671
0.000835221
0.000839817
0.000842466
0.000843163
0.000841883
0.000838922
0.000834148
0.000826598
0.000816518
0.000803935
0.000713695
0.000739978
0.000767649
0.000793676
0.000817044
0.000837566
0.000855308
0.000870407
0.000882997
0.000893192
0.000901078
0.000906716
0.00091014
0.000911366
0.000910384
0.000907547
0.000902825
0.000895086
0.000884492
0.000871157
0.000743845
0.000780085
0.000814904
0.000846346
0.000873994
0.000897987
0.000918584
0.000936045
0.000950585
0.000962377
0.000971544
0.000978177
0.000982329
0.00098403
0.000983283
0.000980491
0.000975781
0.000967871
0.000956753
0.000942656
0.000780924
0.000826191
0.000867527
0.000903964
0.000935606
0.000962871
0.000986185
0.00100591
0.00102233
0.00103567
0.00104608
0.00105367
0.0010585
0.00106063
0.00106002
0.00105708
0.00105227
0.00104437
0.00103275
0.00101789
0.000824066
0.000877432
0.000924686
0.000965719
0.00100108
0.00103142
0.00105731
0.0010792
0.00109743
0.00111226
0.00112386
0.00113237
0.00113787
0.00114039
0.00113993
0.0011369
0.0011319
0.00112376
0.00111165
0.00109603
0.00087237
0.000932883
0.000985431
0.00103063
0.00106939
0.00110258
0.00113087
0.00115479
0.00117472
0.00119094
0.00120367
0.00121304
0.00121914
0.00122201
0.00122167
0.00121851
0.00121322
0.00120479
0.00119222
0.00117579
0.000924833
0.000991457
0.00104858
0.00109741
0.00113917
0.00117488
0.00120531
0.00123104
0.00125249
0.00126998
0.00128372
0.00129385
0.00130046
0.00130359
0.00130327
0.00129987
0.00129404
0.00128513
0.00127229
0.00125506
0.000980267
0.00105179
0.00111258
0.00116434
0.00120853
0.0012463
0.00127848
0.00130571
0.00132843
0.00134695
0.00136151
0.00137224
0.0013792
0.00138244
0.00138202
0.00137829
0.00137182
0.00136211
0.00134867
0.00133085
0.0010372
0.00111211
0.00117541
0.00122915
0.00127498
0.00131414
0.00134753
0.00137578
0.00139935
0.00141856
0.00143369
0.00144481
0.00145187
0.00145489
0.0014541
0.00144985
0.00144244
0.00143151
0.00141691
0.00139842
0.00109377
0.00117018
0.00123443
0.00128886
0.00133524
0.00137488
0.00140869
0.00143732
0.00146112
0.00148036
0.00149585
0.00150732
0.00151466
0.00151796
0.00151701
0.00151206
0.00150312
0.00149017
0.00147336
0.00145307
0.00114767
0.00122314
0.00128631
0.00133972
0.00138518
0.00142402
0.00145722
0.00148552
0.00150954
0.00152948
0.00154393
0.00155329
0.00155712
0.00155751
0.00155377
0.00154648
0.00153587
0.00152177
0.00150444
0.00148436
0.00119604
0.0012675
0.00132698
0.00137714
0.00141985
0.00145578
0.00148636
0.00151202
0.0015323
0.00154987
0.00156278
0.00157176
0.00157796
0.00157851
0.00157378
0.00156445
0.00155157
0.00153448
0.00151312
0.00148735
0.00123553
0.00129921
0.0013518
0.00139579
0.00143121
0.00146247
0.00149031
0.00151388
0.00153475
0.00154901
0.0015601
0.00156674
0.00156827
0.00156416
0.00155453
0.00153992
0.00152253
0.00150161
0.00147718
0.00144931
0.00126245
0.00131414
0.00135593
0.00138787
0.00141853
0.00144329
0.00146416
0.00148275
0.00149834
0.00151063
0.00151894
0.00152241
0.00152016
0.00151153
0.00149623
0.00147454
0.00144924
0.0014213
0.00138879
0.00135209
0.00127335
0.00130818
0.00133186
0.00135401
0.00136888
0.00138413
0.00139797
0.00141089
0.00142242
0.00143156
0.00143689
0.00143679
0.00142969
0.0014143
0.00138996
0.00135697
0.00131947
0.00127853
0.0012328
0.00118282
0.00126466
0.001275
0.00128121
0.00128172
0.00128333
0.00128587
0.0012904
0.00129692
0.00130439
0.0013109
0.00131384
0.00131026
0.0012973
0.00127261
0.0012347
0.00118546
0.00113068
0.00106874
0.00100329
0.000936657
0.00123412
0.0012182
0.00119723
0.00117679
0.00115981
0.00114813
0.00114284
0.00114374
0.00114903
0.00115529
0.00115789
0.00115171
0.00113218
0.00109599
0.00104189
0.000974489
0.000897394
0.000811653
0.00072579
0.000642753
0.00117824
0.00113015
0.00108229
0.00103973
0.00100423
0.00097893
0.000965762
0.000964493
0.000972034
0.000982446
0.000987773
0.000979577
0.000951851
0.000901494
0.000832043
0.000750644
0.000658167
0.000564961
0.000473077
0.000391631
0.00109969
0.00102121
0.000948095
0.000883775
0.000832508
0.000797687
0.000782177
0.000785099
0.000800961
0.000820019
0.000830752
0.000823332
0.000792668
0.000740312
0.000673085
0.000589831
0.000499448
0.000406218
0.000331134
0.00027702
0.000999572
0.00089582
0.00080151
0.000723611
0.000669525
0.000646056
0.000652528
0.0006827
0.000722935
0.000757234
0.000772633
0.000761898
0.000723406
0.000664033
0.000583334
0.000490113
0.000391995
0.000310082
0.000253066
0.000215969
0.000876519
0.000753335
0.000650726
0.000581031
0.000549891
0.000561038
0.000608793
0.000675274
0.000733252
0.000767295
0.000772286
0.000746556
0.000694889
0.000618169
0.000522648
0.000419134
0.000320349
0.000251469
0.000205443
0.000191355
0.000727634
0.000598307
0.00050717
0.000463123
0.000473984
0.000537237
0.000621781
0.000697006
0.000750934
0.000777325
0.000772317
0.000737088
0.000673197
0.000583424
0.000477194
0.000367244
0.000273261
0.000211562
0.000186882
0.000195146
0.000555325
0.000437263
0.000374728
0.000379312
0.000446753
0.000542011
0.000636377
0.000713633
0.000764234
0.000784597
0.000774204
0.000733126
0.000661547
0.000563324
0.000448277
0.000333228
0.000241688
0.000192149
0.000187605
0.000209189
0.000368954
0.000283063
0.000275525
0.000339457
0.000443182
0.00055513
0.000654089
0.000728625
0.000775162
0.000792629
0.000780937
0.000738252
0.000663967
0.00056043
0.000437442
0.000315425
0.000223154
0.000187098
0.000195377
0.000220497
0.000216381
0.000193402
0.000233018
0.000327485
0.000447802
0.000566816
0.000666154
0.000739423
0.000784719
0.000801832
0.000791734
0.000751859
0.000680061
0.000576543
0.000449543
0.000320593
0.000221491
0.000189352
0.000198496
0.000224391
0.00017426
0.00017111
0.000215277
0.000320061
0.000450523
0.000576179
0.000678746
0.000751903
0.000795865
0.000812983
0.000805885
0.000772077
0.000707808
0.000609777
0.000482789
0.000348071
0.000242106
0.000191959
0.000198143
0.000223487
0.000150584
0.000152234
0.000203081
0.00031509
0.000457326
0.000592798
0.000698394
0.000769059
0.000809134
0.000825223
0.00082143
0.000795764
0.000743486
0.00065603
0.000531393
0.000386114
0.000261643
0.000198897
0.000196919
0.000219809
0.000154708
0.000145275
0.000192034
0.000319802
0.000480202
0.000624799
0.000728457
0.000791372
0.000824203
0.000836955
0.000835652
0.000820065
0.000783358
0.000714267
0.000602176
0.000452061
0.000302344
0.00021063
0.000195222
0.000217802
0.000158576
0.000147521
0.000210566
0.000357498
0.000535199
0.000679102
0.000769024
0.00081612
0.000837933
0.000845871
0.000846118
0.000838908
0.000818587
0.000773563
0.000686007
0.000545765
0.00037397
0.00024124
0.000197885
0.00021224
0.000156607
0.000161344
0.000252425
0.000441898
0.000631366
0.000753542
0.000813406
0.000838217
0.0008473
0.00084979
0.000849507
0.000846746
0.00083867
0.000818446
0.000770804
0.000669057
0.000500516
0.000316935
0.000219106
0.000213507
0.000157795
0.000192316
0.000392763
0.000639659
0.000773341
0.000823837
0.000841863
0.00084799
0.000850429
0.000851549
0.00085156
0.000850453
0.000848286
0.000842685
0.000824915
0.000774679
0.000655643
0.000455965
0.000292596
0.000230924
0.000243196
0.000513141
0.000708821
0.000792014
0.000830974
0.0008455
0.000849749
0.000851504
0.00085204
0.000852078
0.00085205
0.000851926
0.000851159
0.000848202
0.000838731
0.000807456
0.000722798
0.000553368
0.000350549
0.000260917
0.000914218
0.000914713
0.000915381
0.000915922
0.000916336
0.000916629
0.000916807
0.000916881
0.000916859
0.00091675
0.000916564
0.000916309
0.000916002
0.000915647
0.000915227
0.000914755
0.000914231
0.000913653
0.00091302
0.000912329
0.000914137
0.000914642
0.000915304
0.000915838
0.000916244
0.000916526
0.000916693
0.000916751
0.000916711
0.000916583
0.000916378
0.000916106
0.000915785
0.000915421
0.000914996
0.000914521
0.000913992
0.00091341
0.000912773
0.000912082
0.0009142
0.000914701
0.000915358
0.000915887
0.000916284
0.000916555
0.000916705
0.000916741
0.000916673
0.000916515
0.000916279
0.000915979
0.000915641
0.00091527
0.000914843
0.000914371
0.000913839
0.000913243
0.000912585
0.000911882
0.000914313
0.000914814
0.000915472
0.000916
0.000916395
0.00091666
0.000916799
0.000916817
0.000916718
0.00091652
0.000916254
0.000915944
0.000915618
0.000915274
0.000914856
0.00091438
0.000913836
0.000913223
0.000912546
0.000911831
0.000914457
0.000914965
0.000915629
0.000916163
0.000916566
0.00091684
0.000916989
0.000917018
0.000916932
0.00091675
0.000916499
0.000916196
0.000915862
0.000915493
0.000915035
0.000914517
0.00091394
0.000913307
0.000912623
0.0009119
0.000914619
0.000915138
0.000915814
0.00091636
0.000916779
0.000917073
0.000917246
0.000917305
0.000917258
0.000917115
0.000916883
0.000916567
0.000916183
0.000915735
0.000915205
0.000914612
0.000913978
0.000913307
0.000912602
0.00091187
0.000914776
0.000915312
0.000916
0.000916561
0.000916996
0.000917308
0.000917501
0.000917581
0.000917552
0.000917418
0.000917184
0.00091685
0.000916424
0.000915897
0.000915295
0.000914677
0.000914096
0.000913497
0.00091279
0.000912055
0.00091489
0.000915442
0.000916144
0.000916717
0.000917164
0.00091749
0.000917699
0.000917796
0.000917785
0.000917668
0.000917447
0.000917124
0.000916703
0.000916177
0.000915579
0.000914965
0.000914481
0.000913965
0.000913277
0.00091257
0.000914914
0.000915483
0.000916197
0.000916783
0.000917243
0.000917583
0.000917808
0.000917923
0.000917933
0.000917839
0.000917645
0.000917351
0.000916972
0.00091652
0.000915971
0.000915354
0.00091485
0.000914272
0.000913646
0.000912959
0.000914819
0.000915405
0.000916135
0.000916739
0.000917218
0.000917578
0.000917822
0.000917956
0.000917981
0.000917903
0.000917722
0.000917439
0.000917061
0.000916602
0.00091605
0.000915442
0.000914821
0.000914182
0.000913516
0.000912812
0.000914605
0.000915211
0.000915973
0.00091661
0.000917123
0.000917514
0.000917784
0.000917935
0.000917969
0.000917896
0.000917704
0.00091737
0.000916916
0.000916366
0.000915719
0.000915055
0.000914401
0.000913745
0.000913075
0.000912375
0.000914389
0.000915012
0.000915807
0.000916478
0.000917023
0.000917447
0.000917754
0.000917923
0.000917942
0.00091781
0.000917507
0.000917031
0.000916451
0.000915786
0.000915102
0.000914454
0.000913821
0.000913185
0.00091253
0.000911844
0.000914359
0.000914984
0.000915774
0.000916429
0.000916952
0.000917351
0.00091763
0.000917767
0.000917757
0.000917606
0.000917232
0.000916729
0.00091615
0.000915483
0.000914868
0.000914276
0.000913685
0.000913074
0.000912436
0.000911771
0.000914639
0.000915221
0.000915936
0.000916512
0.000916953
0.000917268
0.000917463
0.000917537
0.000917498
0.000917361
0.000917045
0.000916659
0.000916206
0.00091567
0.000915152
0.00091462
0.000914058
0.000913456
0.000912813
0.000912135
0.000915111
0.000915604
0.000916233
0.00091672
0.000917072
0.000917304
0.00091743
0.000917457
0.000917392
0.000917241
0.000917011
0.000916714
0.000916369
0.00091599
0.00091554
0.000915038
0.000914479
0.00091386
0.000913177
0.000912433
0.000915576
0.000916034
0.000916613
0.000917041
0.000917331
0.000917508
0.000917588
0.000917578
0.000917485
0.000917317
0.000917084
0.0009168
0.00091648
0.00091613
0.000915702
0.00091521
0.000914646
0.000914004
0.000913282
0.000912483
0.000916053
0.00091651
0.00091708
0.000917497
0.000917772
0.000917927
0.000917977
0.000917931
0.000917804
0.000917611
0.000917366
0.000917076
0.000916751
0.000916406
0.000916
0.000915518
0.000914948
0.00091428
0.000913514
0.000912651
0.00091651
0.00091699
0.000917582
0.000918021
0.000918317
0.000918484
0.000918538
0.000918491
0.000918366
0.000918178
0.000917935
0.000917642
0.00091731
0.000916957
0.000916543
0.000916053
0.000915474
0.000914802
0.000914034
0.000913175
0.000916914
0.000917419
0.000918035
0.000918503
0.000918829
0.000919027
0.000919111
0.000919096
0.000918999
0.000918829
0.000918596
0.000918305
0.000917972
0.000917608
0.000917166
0.00091666
0.000916082
0.000915429
0.000914699
0.000913891
0.000917256
0.000917778
0.00091841
0.000918897
0.000919244
0.000919465
0.000919572
0.000919581
0.000919502
0.000919345
0.00091912
0.000918831
0.000918497
0.000918129
0.000917682
0.000917177
0.00091661
0.000915977
0.000915275
0.000914501
0.000917549
0.00091808
0.000918718
0.00091921
0.000919566
0.000919795
0.000919913
0.00091993
0.000919859
0.00091971
0.00091949
0.000919206
0.000918876
0.000918512
0.00091807
0.000917572
0.000917015
0.000916396
0.000915712
0.000914959
0.000917807
0.000918341
0.000918977
0.000919469
0.000919824
0.000920054
0.000920173
0.000920192
0.000920123
0.000919977
0.00091976
0.00091948
0.000919154
0.000918799
0.000918365
0.00091787
0.00091732
0.000916712
0.000916041
0.000915301
0.000918037
0.00091857
0.000919199
0.000919685
0.000920035
0.000920261
0.000920377
0.000920394
0.000920325
0.000920177
0.000919961
0.000919682
0.000919357
0.000919006
0.00091858
0.000918092
0.000917552
0.000916954
0.000916294
0.000915568
0.000918239
0.000918767
0.000919384
0.000919859
0.0009202
0.000920419
0.000920529
0.000920542
0.000920468
0.000920319
0.000920101
0.000919821
0.000919491
0.000919139
0.00091873
0.000918252
0.000917722
0.000917135
0.000916488
0.000915775
0.000918407
0.000918925
0.000919525
0.000919985
0.000920312
0.000920519
0.00092062