/*--------------------------------*- C++ -*----------------------------------*\
  =========                 |
  \\      /  F ield         | OpenFOAM: The Open Source CFD Toolbox
   \\    /   O peration     | Website:  https://openfoam.org
    \\  /    A nd           | Version:  6
     \\/     M anipulation  |
\*---------------------------------------------------------------------------*/
FoamFile
{
    version     2.0;
    format      ascii;
    class       volScalarField;
    location    "28";
    object      p;
}
// * * * * * * * * * * * * * * * * * * * * * * * * * * * * * * * * * * * * * //

dimensions      [0 2 -2 0 0 0 0];

internalField   nonuniform List<scalar> 
130000
(
0.0060762
0.00524982
0.00469544
0.0042603
0.00387178
0.00352292
0.00320936
0.00292588
0.00266736
0.00243003
0.00221011
0.00200538
0.00181253
0.00163
0.00145551
0.00128764
0.00112472
0.000964564
0.00080267
0.000649037
0.00579074
0.00539026
0.00491858
0.00453302
0.00417933
0.0038472
0.0035311
0.00322942
0.00293927
0.00265715
0.00238245
0.00211123
0.00184511
0.00158046
0.00131892
0.00105792
0.000799702
0.000538339
0.000271378
3.08077e-08
0.00713563
0.00649432
0.00586915
0.00534753
0.00486857
0.00441706
0.00398597
0.00357123
0.0031707
0.00277902
0.00239762
0.00202075
0.00165219
0.00128546
0.000926862
0.000568248
0.000217427
-0.000135851
-0.000487729
-0.000843163
0.00745329
0.00694077
0.00637064
0.0058556
0.0053546
0.00485835
0.00436882
0.00388223
0.00340282
0.00292466
0.00245478
0.0019848
0.0015241
0.0010629
0.000610782
0.000157417
-0.000286199
-0.000733431
-0.00117422
-0.00161743
0.00758202
0.00712017
0.00658387
0.00607435
0.00556283
0.00503934
0.00451323
0.00397794
0.00344423
0.00290348
0.0023684
0.00182775
0.00129498
0.000756429
0.000227668
-0.000307124
-0.000830573
-0.00136049
-0.00188102
-0.00240716
0.00735981
0.0069684
0.00647994
0.00599312
0.00548806
0.00495546
0.004412
0.00384761
0.00327866
0.00269256
0.00210808
0.00150962
0.000917168
0.0003129
-0.000282926
-0.000888543
-0.00148232
-0.0020857
-0.00267742
-0.00327798
0.00693451
0.00660384
0.00616185
0.00570005
0.00521118
0.00468099
0.00413352
0.00355219
0.00296002
0.0023394
0.00171555
0.00106928
0.000425806
-0.000236317
-0.000890338
-0.00155993
-0.00221706
-0.00288732
-0.0035441
-0.00421439
0.00634692
0.00606206
0.00566189
0.00523136
0.00476413
0.00424277
0.00369653
0.00310491
0.00249581
0.00184846
0.00119345
0.000507687
-0.000177628
-0.000887651
-0.0015917
-0.00231573
-0.00302799
-0.00375739
-0.00447233
-0.00520479
0.00562537
0.00537841
0.00501302
0.00461346
0.00416558
0.00365332
0.0031089
0.00251065
0.0018889
0.00122103
0.000540694
-0.000176928
-0.00089789
-0.00164976
-0.00239711
-0.00317033
-0.00393249
-0.00471579
-0.00548441
-0.00627597
0.00478515
0.00457366
0.00424238
0.00387033
0.00344162
0.00293919
0.00239898
0.00179746
0.00116715
0.000483472
-0.000216758
-0.000961247
-0.0017117
-0.00249862
-0.00328377
-0.00409915
-0.00490491
-0.00573609
-0.0065526
-0.00739653
0.00384523
0.00366749
0.00336726
0.00302067
0.00260943
0.00211614
0.00158057
0.000976906
0.000340105
-0.00035669
-0.00107399
-0.00184116
-0.00261781
-0.00343663
-0.00425536
-0.00511
-0.00595619
-0.00683188
-0.00769343
-0.008588
0.00283922
0.00268909
0.00241565
0.00209065
0.00169551
0.00121065
0.000680039
7.54226e-05
-0.000566233
-0.00127398
-0.00200551
-0.00279296
-0.00359214
-0.00443852
-0.00528749
-0.00617652
-0.00705873
-0.0079747
-0.00887702
-0.009817
0.00178541
0.00165075
0.00139629
0.00109118
0.000709136
0.000232069
-0.00029456
-0.000899659
-0.00154588
-0.00226319
-0.00300802
-0.0038132
-0.00463361
-0.00550604
-0.00638293
-0.00730498
-0.00822175
-0.00917602
-0.0101177
-0.0111024
0.000656628
0.000549602
0.00031821
3.32232e-05
-0.000334361
-0.000801341
-0.00132217
-0.00192626
-0.00257568
-0.0033011
-0.00405737
-0.00487909
-0.00571838
-0.006614
-0.00751688
-0.00846862
-0.00941697
-0.0104067
-0.0113848
-0.0124104
-0.000512054
-0.000591779
-0.000799105
-0.00106771
-0.00142196
-0.00187971
-0.00239458
-0.00299797
-0.00365036
-0.00438345
-0.00515097
-0.00598772
-0.00684558
-0.00776378
-0.00869165
-0.00967258
-0.0106523
-0.0116763
-0.0126907
-0.013757
-0.00170026
-0.00175325
-0.00193735
-0.00218868
-0.00253082
-0.00297989
-0.0034892
-0.00409172
-0.00474724
-0.00548765
-0.00626573
-0.00711722
-0.00799246
-0.0089316
-0.00988349
-0.0108915
-0.0119007
-0.0129575
-0.0140063
-0.0151108
-0.00287822
-0.00291371
-0.00308094
-0.00331811
-0.00365253
-0.00409576
-0.00460164
-0.00520347
-0.00586285
-0.00661011
-0.00739935
-0.00826431
-0.00915746
-0.0101171
-0.0110929
-0.0121276
-0.013167
-0.0142556
-0.0153396
-0.0164823
-0.00405708
-0.00407708
-0.00422906
-0.00444834
-0.00477469
-0.00521174
-0.00571441
-0.00631448
-0.00697731
-0.00773082
-0.00853063
-0.00940907
-0.0103193
-0.0112984
-0.0122978
-0.0133583
-0.0144265
-0.0155466
-0.0166647
-0.0178444
-0.0052528
-0.00524717
-0.00537793
-0.00557983
-0.00589535
-0.00632498
-0.00682391
-0.00742132
-0.00808663
-0.00884525
-0.00965559
-0.0105461
-0.0114738
-0.0124719
-0.0134951
-0.0145809
-0.0156793
-0.0168299
-0.0179834
-0.0192
-0.00643942
-0.00640114
-0.0065059
-0.00668785
-0.00699004
-0.00741128
-0.00790662
-0.00850213
-0.00916967
-0.00993323
-0.0107535
-0.0116565
-0.0126011
-0.0136183
-0.014665
-0.0157762
-0.0169039
-0.018086
-0.0192744
-0.0205285
-0.00756941
-0.00750926
-0.00759278
-0.00775709
-0.00804776
-0.00846069
-0.0089534
-0.00954793
-0.0102187
-0.0109864
-0.011817
-0.0127313
-0.0136936
-0.0147291
-0.0158002
-0.0169362
-0.0180948
-0.0193071
-0.0205322
-0.0218231
-0.00865003
-0.00856773
-0.00863282
-0.00877586
-0.00905503
-0.00945789
-0.00994755
-0.0105409
-0.011216
-0.0119884
-0.0128289
-0.0137551
-0.0147347
-0.0157892
-0.0168845
-0.0180464
-0.0192356
-0.0204802
-0.0217419
-0.0230718
-0.0096843
-0.00957438
-0.00961695
-0.00973847
-0.0100046
-0.0103956
-0.0108805
-0.0114708
-0.0121507
-0.0129276
-0.0137791
-0.0147158
-0.0157135
-0.0167858
-0.0179064
-0.019093
-0.0203146
-0.0215902
-0.0228906
-0.0242582
-0.010677
-0.010526
-0.0105383
-0.0106335
-0.0108827
-0.0112597
-0.0117373
-0.0123231
-0.0130065
-0.013789
-0.0146516
-0.0156005
-0.0166156
-0.0177072
-0.0188527
-0.0200663
-0.02132
-0.0226298
-0.0239689
-0.0253778
-0.0115503
-0.0113741
-0.0113614
-0.0114335
-0.0116676
-0.0120313
-0.012502
-0.0130822
-0.0137682
-0.0145551
-0.0154298
-0.0163902
-0.0174241
-0.0185339
-0.0197057
-0.0209449
-0.0222326
-0.0235746
-0.0249546
-0.0264031
-0.0123552
-0.0121394
-0.0120981
-0.0121402
-0.0123555
-0.0127025
-0.0131639
-0.0137368
-0.0144231
-0.0152135
-0.0160987
-0.017072
-0.0181243
-0.0192546
-0.0204525
-0.0217202
-0.0230415
-0.0244195
-0.0258405
-0.0273334
-0.0130272
-0.0127815
-0.0127106
-0.0127257
-0.012921
-0.0132513
-0.0137018
-0.0142663
-0.0149512
-0.0157431
-0.0166377
-0.0176226
-0.0186943
-0.0198447
-0.0210702
-0.0223656
-0.0237224
-0.0251346
-0.0265986
-0.0281347
-0.0136271
-0.0133289
-0.0132155
-0.0131943
-0.0133616
-0.0136701
-0.0141049
-0.0146588
-0.0153394
-0.0161317
-0.0170333
-0.0180302
-0.01912
-0.0202925
-0.0215454
-0.0228713
-0.0242635
-0.0257142
-0.0272213
-0.0288055
-0.014035
-0.0137024
-0.0135518
-0.0134987
-0.0136393
-0.0139272
-0.014346
-0.014889
-0.0155645
-0.0163564
-0.0172642
-0.0182714
-0.0193789
-0.0205725
-0.0218535
-0.0232101
-0.0246398
-0.0261291
-0.0276821
-0.0293149
-0.0143244
-0.0139348
-0.0137366
-0.0136426
-0.0137509
-0.0140136
-0.0144132
-0.0149431
-0.0156116
-0.0164024
-0.0173148
-0.0183324
-0.0194557
-0.0206709
-0.0219793
-0.0233686
-0.0248362
-0.0263681
-0.0279681
-0.0296542
-0.0143931
-0.0139598
-0.0137184
-0.0135865
-0.0136635
-0.0139013
-0.0142813
-0.0147975
-0.0154584
-0.0162472
-0.0171638
-0.0181906
-0.0193298
-0.0205661
-0.021902
-0.023324
-0.0248309
-0.0264058
-0.0280552
-0.0297962
-0.0143057
-0.0138078
-0.0135118
-0.0133322
-0.013371
-0.0135784
-0.0139346
-0.0144341
-0.0150848
-0.0158704
-0.0167895
-0.0178257
-0.0189796
-0.0202369
-0.0215999
-0.0230553
-0.0246011
-0.0262212
-0.0279204
-0.0297196
-0.0139651
-0.013415
-0.0130669
-0.0128415
-0.0128417
-0.0130182
-0.0133489
-0.0138303
-0.0144692
-0.01525
-0.0161708
-0.017215
-0.0183835
-0.0196619
-0.021052
-0.0225413
-0.0241274
-0.0257935
-0.0275449
-0.0294047
-0.0134279
-0.0128042
-0.012392
-0.0121106
-0.0120644
-0.0122036
-0.012504
-0.0129633
-0.013587
-0.0143607
-0.0152807
-0.0163323
-0.0175137
-0.0188127
-0.0202297
-0.0217533
-0.0233795
-0.0250934
-0.0268979
-0.0288206
-0.0126022
-0.0119145
-0.0114398
-0.0111029
-0.0110089
-0.011109
-0.0113763
-0.0118109
-0.0124168
-0.0131813
-0.0140988
-0.0151555
-0.0163493
-0.0176686
-0.0191124
-0.0206711
-0.022339
-0.0241018
-0.0259617
-0.0279504
-0.0115406
-0.0107665
-0.0102161
-0.0098119
-0.00966093
-0.00971444
-0.00994258
-0.0103476
-0.0109314
-0.0116832
-0.0125949
-0.0136554
-0.0148592
-0.0161976
-0.0176675
-0.0192611
-0.0209705
-0.0227838
-0.0247
-0.0267569
-0.0101499
-0.00929875
-0.00867227
-0.00820044
-0.00798975
-0.0079937
-0.00817889
-0.00855073
-0.00910878
-0.00984457
-0.010748
-0.0118092
-0.0130218
-0.0143783
-0.0158738
-0.0175027
-0.0192552
-0.0211201
-0.0230954
-0.0252238
-0.00848248
-0.00752985
-0.00681309
-0.00626047
-0.00597998
-0.00592554
-0.00606053
-0.00639284
-0.00691971
-0.00763498
-0.00852572
-0.00958507
-0.0108032
-0.0121758
-0.0136954
-0.0153589
-0.0171536
-0.0190714
-0.0211065
-0.0233086
-0.00644477
-0.0053982
-0.00459029
-0.00395502
-0.00360073
-0.00348331
-0.00356291
-0.00385058
-0.00434126
-0.00503128
-0.00590545
-0.00695875
-0.00817999
-0.00956661
-0.011109
-0.0128066
-0.0146445
-0.0166158
-0.0187132
-0.0209922
-0.0040935
-0.00292647
-0.0020109
-0.00127756
-0.000837222
-0.000645972
-0.000660977
-0.000895733
-0.00134296
-0.00200139
-0.00285303
-0.00389603
-0.00511568
-0.00651283
-0.00807531
-0.0098052
-0.0116846
-0.0137099
-0.0158698
-0.0182274
-0.00133309
-5.23748e-05
0.000974011
0.00180905
0.00234161
0.00261331
0.00267031
0.00249572
0.00209915
0.00147912
0.000655953
-0.000370631
-0.00158446
-0.00298853
-0.00456816
-0.0063287
-0.00824946
-0.0103286
-0.0125528
-0.0149921
0.00177557
0.00319937
0.00435521
0.00530965
0.00594909
0.00631469
0.0064555
0.00635204
0.00601599
0.00544334
0.00465709
0.00365359
0.0024525
0.00104716
-0.000545248
-0.0023328
-0.00429198
-0.00642432
-0.00871215
-0.0112343
0.00532731
0.00688938
0.00817938
0.00925938
0.0100145
0.0104836
0.0107187
0.0106968
0.0104317
0.00991633
0.00917598
0.00820458
0.00702316
0.00562259
0.00402262
0.00221151
0.000215801
-0.00196836
-0.00432077
-0.00692849
0.00925297
0.0109852
0.0124315
0.0136584
0.0145477
0.0151375
0.0154826
0.0155571
0.0153766
0.0149315
0.0142492
0.0133201
0.0121686
0.0107815
0.00918102
0.00735241
0.005325
0.00309139
0.000676104
-0.00201745
0.0136434
0.0155437
0.0171547
0.0185382
0.0195744
0.0202988
0.0207688
0.0209549
0.0208741
0.0205138
0.019903
0.0190296
0.0179188
0.016555
0.0149624
0.0131226
0.0110677
0.00878778
0.00631009
0.00352875
0.0184267
0.0205284
0.0223286
0.0238936
0.0250993
0.0259805
0.0265965
0.0269148
0.0269532
0.0266963
0.0261746
0.0253725
0.0243175
0.0229901
0.0214164
0.0195748
0.0175
0.0151785
0.0126416
0.00977321
0.0236737
0.0259807
0.0279826
0.0297448
0.0311388
0.0321977
0.0329816
0.0334546
0.0336345
0.0335029
0.0330907
0.0323797
0.0313972
0.0301214
0.0285796
0.0267465
0.0246592
0.0223018
0.019708
0.0167515
0.0293074
0.0318543
0.0340865
0.0360768
0.0376889
0.0389561
0.0399376
0.0405951
0.0409448
0.0409662
0.0406893
0.040093
0.0392052
0.0380006
0.0365071
0.0346966
0.0326082
0.0302223
0.0275769
0.0245339
0.0353678
0.0381665
0.0406502
0.0428938
0.0447533
0.0462607
0.0474732
0.0483495
0.0489028
0.04911
0.0489992
0.048547
0.0477793
0.0466684
0.0452427
0.0434703
0.0413921
0.0389865
0.0362935
0.0331639
0.0417763
0.0448629
0.047633
0.0501702
0.0523185
0.0541098
0.0555969
0.0567358
0.0575351
0.0579692
0.0580629
0.0577896
0.0571741
0.0561853
0.0548507
0.0531363
0.0510839
0.048669
0.0459354
0.0427214
0.0485344
0.051932
0.0550212
0.0578919
0.0603744
0.0624992
0.0643123
0.0657662
0.0668623
0.0675725
0.0679162
0.0678646
0.0674381
0.0666036
0.0653873
0.0637521
0.0617411
0.0593284
0.0565595
0.0532608
0.0555538
0.0593042
0.0627604
0.0660219
0.0689003
0.0714236
0.073628
0.0754619
0.0769175
0.0779633
0.0786121
0.0788318
0.0786389
0.0779972
0.0769306
0.0754004
0.0734502
0.0710523
0.0682559
0.0648738
0.0628038
0.0669449
0.07082
0.0745355
0.0778809
0.0808787
0.0835514
0.0858419
0.0877299
0.0891806
0.0901974
0.0907462
0.0908361
0.0904295
0.0895474
0.0881491
0.0862787
0.083909
0.0810908
0.077624
0.0702003
0.0747833
0.0791446
0.0833972
0.0872992
0.0908645
0.0940974
0.0969331
0.0993368
0.10127
0.102724
0.103664
0.104092
0.103967
0.103308
0.102072
0.100305
0.0979787
0.095148
0.0915987
0.0776793
0.0827668
0.0876949
0.0925795
0.0971398
0.101375
0.105267
0.108741
0.111746
0.114238
0.116199
0.117591
0.118409
0.118613
0.118215
0.117175
0.115536
0.113273
0.110442
0.106816
0.0851548
0.0908198
0.0964127
0.102041
0.107372
0.112384
0.117031
0.121228
0.124905
0.128018
0.130539
0.13243
0.133681
0.134254
0.134156
0.133349
0.131872
0.129704
0.126902
0.123224
0.0925226
0.098857
0.105226
0.111711
0.117916
0.123789
0.129256
0.134219
0.138599
0.142352
0.145446
0.147849
0.149547
0.150509
0.15074
0.150204
0.148935
0.146915
0.144195
0.140519
0.0996897
0.106762
0.114
0.121433
0.128578
0.13534
0.141624
0.147322
0.152356
0.15669
0.160299
0.163164
0.165276
0.166617
0.167187
0.16696
0.165959
0.164167
0.161624
0.158058
0.10644
0.114329
0.122494
0.130894
0.138954
0.146531
0.153517
0.159805
0.165332
0.170084
0.174059
0.177258
0.179686
0.181343
0.182234
0.182338
0.181666
0.180202
0.177964
0.174662
0.112525
0.121243
0.130318
0.139594
0.148409
0.156581
0.164013
0.170614
0.17636
0.181268
0.185377
0.18871
0.191299
0.193164
0.194315
0.194743
0.194445
0.193401
0.1916
0.188733
0.117405
0.126945
0.13683
0.146768
0.156037
0.164448
0.171953
0.178494
0.18411
0.188857
0.192825
0.196065
0.198632
0.200559
0.201875
0.20257
0.202635
0.202045
0.200761
0.198441
0.120538
0.130775
0.141259
0.151539
0.16087
0.169096
0.176257
0.182357
0.187507
0.1918
0.195377
0.198308
0.200679
0.202523
0.203874
0.204731
0.205079
0.204885
0.204087
0.202305
0.12112
0.131919
0.142742
0.153007
0.162007
0.169667
0.176143
0.181505
0.185944
0.189581
0.192598
0.195073
0.197106
0.198722
0.199968
0.200828
0.201297
0.201325
0.200841
0.199427
0.118655
0.129798
0.140672
0.1506
0.158967
0.165813
0.171416
0.17591
0.179544
0.182452
0.18484
0.186777
0.188379
0.189651
0.190642
0.19132
0.191687
0.191673
0.191221
0.189881
0.112642
0.123991
0.134718
0.144115
0.151711
0.157676
0.162401
0.166058
0.168934
0.171152
0.172928
0.17431
0.17542
0.176238
0.176823
0.177108
0.177108
0.176735
0.175964
0.174309
0.103197
0.114597
0.125064
0.133884
0.140743
0.145928
0.149914
0.152883
0.155136
0.156769
0.157997
0.158832
0.159411
0.15968
0.159707
0.159392
0.158762
0.157715
0.156272
0.153908
0.0904486
0.101902
0.112145
0.120494
0.126792
0.131415
0.134887
0.137369
0.139163
0.140323
0.141062
0.141358
0.141352
0.14096
0.140267
0.139132
0.137612
0.135584
0.13312
0.129651
0.0751277
0.0866281
0.0967535
0.104828
0.110811
0.11513
0.118324
0.120516
0.121992
0.122761
0.123041
0.122768
0.122103
0.120921
0.11933
0.117163
0.114506
0.11121
0.107405
0.102478
0.0577207
0.0694155
0.0796312
0.0876884
0.0936293
0.0978933
0.101017
0.103066
0.104317
0.104729
0.10453
0.103617
0.10217
0.100022
0.0973263
0.0938787
0.089814
0.0849392
0.0794556
0.0726925
0.0391489
0.0511305
0.0616336
0.069918
0.0760607
0.0804797
0.0836893
0.0856936
0.0867579
0.0867962
0.0860553
0.0843839
0.0819937
0.0786741
0.0746302
0.0696352
0.0638608
0.0570755
0.0495575
0.0405786
0.0198106
0.0322988
0.0433317
0.0520864
0.058648
0.0633913
0.0668018
0.0688147
0.0696956
0.0693069
0.0679216
0.0653377
0.0617989
0.0570451
0.0513604
0.0444695
0.0366152
0.0275073
0.0175199
0.00584247
0.000401813
0.0135333
0.0252945
0.0347258
0.0418866
0.0470932
0.0507933
0.0528528
0.0535382
0.0526571
0.0505099
0.0468323
0.0419096
0.0354317
0.0277545
0.0185746
0.00820177
-0.00370765
-0.0166804
-0.0316017
-0.0190729
-0.0050382
0.0076965
0.0180318
0.0259868
0.0318065
0.0359025
0.0380599
0.0385478
0.0371097
0.034077
0.0291062
0.02253
0.0139706
0.00388434
-0.00809102
-0.0215294
-0.0368559
-0.0534686
-0.0723589
-0.0383568
-0.0232405
-0.0093073
0.00217128
0.0111438
0.0177724
0.0224167
0.024774
0.0251054
0.0230792
0.019048
0.0125768
0.00405488
-0.00697435
-0.0199615
-0.0353052
-0.0524666
-0.0719409
-0.0929883
-0.116694
-0.0579862
-0.0414516
-0.0259928
-0.0130356
-0.00272286
0.00500493
0.0104444
0.0131839
0.0134692
0.010868
0.00575433
-0.00242048
-0.0132088
-0.0271698
-0.0436194
-0.0630457
-0.0847453
-0.109312
-0.13581
-0.165453
-0.0782591
-0.0600165
-0.042655
-0.0277813
-0.0156804
-0.00642418
0.00018496
0.0036094
0.00405702
0.000977595
-0.00525253
-0.0153156
-0.0286984
-0.0460718
-0.0666361
-0.0909563
-0.118168
-0.14894
-0.182118
-0.219022
-0.100314
-0.0798499
-0.060025
-0.0426062
-0.0280755
-0.0166758
-0.00834183
-0.00377541
-0.00282554
-0.00620128
-0.013528
-0.0256486
-0.0419786
-0.0633361
-0.0887582
-0.118955
-0.152848
-0.191221
-0.232614
-0.278484
-0.124973
-0.101788
-0.0788136
-0.0580313
-0.0402194
-0.0258456
-0.0150348
-0.00868996
-0.00676093
-0.0101406
-0.0184809
-0.0328094
-0.0524619
-0.0784114
-0.109551
-0.146726
-0.18867
-0.236252
-0.287663
-0.34445
-0.153949
-0.12724
-0.100157
-0.0749144
-0.0526945
-0.0342705
-0.0200143
-0.0110831
-0.00754862
-0.010535
-0.0197128
-0.0363323
-0.059665
-0.0909058
-0.128743
-0.174242
-0.225854
-0.284596
-0.348237
-0.41845
-0.188466
-0.15742
-0.125088
-0.0940506
-0.0660514
-0.0422623
-0.0233882
-0.0108958
-0.0050264
-0.00718454
-0.0171218
-0.0363194
-0.0639207
-0.101316
-0.147021
-0.202274
-0.265298
-0.337302
-0.415663
-0.502094
-0.23066
-0.194074
-0.155036
-0.116574
-0.0811719
-0.0505779
-0.0259317
-0.00910127
-0.000479605
-0.00173326
-0.0126185
-0.0349187
-0.0677082
-0.112529
-0.167567
-0.234342
-0.310817
-0.398439
-0.494163
-0.59989
-0.281838
-0.238581
-0.19128
-0.143698
-0.0993566
-0.0607012
-0.0293405
-0.00766944
0.00369438
0.00283516
-0.00990445
-0.036461
-0.0756874
-0.129409
-0.195613
-0.275935
-0.368019
-0.473682
-0.589828
-0.718599
-0.344381
-0.292908
-0.235604
-0.177255
-0.122642
-0.0751521
-0.0369432
-0.0108357
0.00244281
0.000645873
-0.0156624
-0.0485612
-0.0965881
-0.161746
-0.241693
-0.338318
-0.448975
-0.576115
-0.716632
-0.872671
-0.419721
-0.358609
-0.289699
-0.219476
-0.154232
-0.0983234
-0.0544003
-0.025767
-0.0130519
-0.0186789
-0.0417978
-0.0845191
-0.144966
-0.225432
-0.323253
-0.440459
-0.574215
-0.727694
-0.897875
-1.08679
-0.511719
-0.439132
-0.357174
-0.274628
-0.199626
-0.137601
-0.0913559
-0.0642985
-0.056644
-0.0707635
-0.10534
-0.16272
-0.24061
-0.341706
-0.462934
-0.606829
-0.770596
-0.958337
-1.16677
-1.39697
-0.62341
-0.538058
-0.442727
-0.349496
-0.26829
-0.20508
-0.162179
-0.142526
-0.145562
-0.17347
-0.224538
-0.301417
-0.401738
-0.528731
-0.679321
-0.856812
-1.0587
-1.28957
-1.54529
-1.82492
-0.762374
-0.662695
-0.555132
-0.455476
-0.374613
-0.317651
-0.28522
-0.278918
-0.297446
-0.342841
-0.41355
-0.512442
-0.637664
-0.79307
-0.97603
-1.19035
-1.43398
-1.71134
-2.0169
-2.34617
-0.936918
-0.822288
-0.705408
-0.606057
-0.533979
-0.491068
-0.474925
-0.485514
-0.521241
-0.584313
-0.673711
-0.792721
-0.940153
-1.12041
-1.33178
-1.5786
-1.85891
-2.17601
-2.52296
-2.89151
-1.15716
-1.02741
-0.906106
-0.815033
-0.758817
-0.733768
-0.734681
-0.760861
-0.811101
-0.887711
-0.99002
-1.12169
-1.28282
-1.47859
-1.70836
-1.97648
-2.28069
-2.62271
-2.99462
-3.38399
-1.4269
-1.28474
-1.16616
-1.08983
-1.05119
-1.04137
-1.05442
-1.09005
-1.14754
-1.22892
-1.33424
-1.46784
-1.63141
-1.83052
-2.06555
-2.34002
-2.65117
-2.99883
-3.37414
-3.75937
-1.754
-1.60434
-1.49439
-1.43251
-1.40489
-1.40106
-1.41651
-1.45129
-1.50517
-1.58009
-1.67733
-1.80158
-1.95598
-2.14587
-2.37232
-2.63716
-2.93722
-3.26987
-3.62503
-3.98015
-2.16049
-2.00808
-1.90398
-1.84392
-1.81104
-1.79717
-1.80017
-1.82054
-1.85877
-1.91648
-1.99581
-2.10071
-2.23507
-2.40315
-2.6068
-2.84609
-3.11785
-3.41637
-3.73098
-4.03716
-2.69991
-2.53232
-2.41014
-2.3236
-2.25952
-2.2137
-2.18672
-2.17903
-2.19106
-2.22274
-2.27597
-2.35271
-2.45717
-2.59169
-2.75929
-2.95837
-3.18678
-3.43547
-3.69445
-3.94143
-3.39125
-3.17073
-2.99248
-2.84769
-2.72777
-2.63196
-2.56229
-2.51776
-2.49721
-2.49777
-2.52004
-2.5631
-2.63103
-2.7239
-2.84596
-2.99403
-3.16725
-3.3536
-3.54469
-3.72501
-4.11418
-3.81206
-3.5556
-3.34013
-3.15814
-3.01009
-2.89749
-2.81678
-2.76453
-2.73459
-2.72603
-2.73495
-2.76504
-2.81375
-2.88693
-2.97954
-3.09224
-3.20951
-3.32541
-3.43256
-4.63576
-4.26719
-3.9417
-3.67195
-3.44769
-3.26671
-3.12759
-3.02377
-2.94974
-2.89708
-2.86421
-2.84495
-2.84281
-2.85231
-2.87986
-2.91792
-2.96927
-3.01874
-3.06782
-3.10797
-4.69447
-4.35597
-4.01305
-3.74277
-3.52892
-3.36032
-3.22927
-3.12624
-3.04689
-2.98333
-2.93562
-2.89655
-2.86985
-2.84737
-2.83444
-2.81916
-2.80708
-2.79301
-2.78836
-2.74273
-4.0599
-4.04872
-3.80552
-3.61665
-3.47944
-3.36969
-3.27619
-3.19272
-3.12123
-3.05675
-3.00214
-2.95067
-2.90703
-2.86057
-2.81464
-2.75267
-2.68523
-2.6214
-2.55022
-2.25823
-2.94633
-3.63335
-3.59857
-3.48627
-3.40536
-3.33846
-3.27271
-3.20386
-3.14034
-3.07717
-3.02265
-2.96682
-2.91967
-2.86559
-2.81522
-2.74801
-2.69071
-2.64825
-2.52148
-1.86156
-2.42278
-3.52371
-3.67662
-3.53835
-3.43088
-3.3551
-3.28485
-3.21603
-3.15079
-3.08898
-3.03203
-2.97809
-2.92887
-2.88172
-2.83696
-2.79619
-2.77145
-2.74682
-2.54054
-2.1126
0.00118169
0.00108464
0.000957939
0.000850366
0.000737623
0.000632994
0.000539466
0.000454258
0.000377984
0.000308531
0.000246185
0.000188899
0.000136373
8.67391e-05
3.93965e-05
-7.06138e-06
-5.32331e-05
-0.000102169
-0.000165901
-0.000256562
0.00897669
0.00883338
0.00868535
0.00855181
0.00840405
0.00825922
0.00811667
0.00797542
0.00783404
0.00769174
0.00754838
0.00740211
0.00725376
0.00710092
0.00694465
0.00678318
0.00661885
0.006446
0.0062587
0.00606643
0.0166676
0.0165333
0.0163413
0.0161597
0.0159535
0.0157436
0.0155266
0.0153075
0.0150819
0.0148528
0.0146174
0.0143766
0.014129
0.0138742
0.0136123
0.013342
0.013065
0.0127762
0.0124707
0.0121509
0.0240738
0.0239299
0.0237137
0.0235021
0.0232536
0.0229942
0.0227184
0.0224351
0.0221376
0.0218317
0.0215133
0.0211847
0.0208446
0.0204931
0.0201304
0.0197555
0.0193709
0.0189706
0.0185541
0.0181196
0.0315269
0.0313748
0.0311395
0.030902
0.0306154
0.0303117
0.0299824
0.0296402
0.0292759
0.0288984
0.0285018
0.0280913
0.0276637
0.027221
0.0267631
0.0262888
0.0258011
0.0252946
0.0247695
0.0242225
0.0389118
0.0387533
0.038501
0.038241
0.037921
0.0375777
0.0372003
0.0368045
0.0363789
0.0359349
0.0354658
0.0349779
0.0344683
0.0339388
0.0333895
0.0328192
0.0322322
0.0316221
0.0309916
0.0303326
0.0463293
0.0461648
0.0458973
0.0456168
0.0452665
0.0448876
0.0444671
0.0440227
0.0435411
0.0430355
0.0424983
0.0419373
0.0413485
0.0407346
0.0400964
0.0394321
0.0387474
0.0380356
0.0373006
0.0365302
0.0537937
0.0536247
0.0533446
0.053047
0.0526696
0.0522584
0.0517984
0.0513088
0.050775
0.050211
0.0496091
0.0489769
0.0483118
0.0476158
0.0468909
0.0461349
0.0453548
0.0445423
0.0437035
0.0428218
0.0613289
0.0611593
0.0608703
0.0605581
0.0601565
0.0597151
0.0592179
0.0586854
0.0581017
0.0574815
0.0568167
0.0561155
0.0553755
0.0545985
0.0537884
0.0529408
0.0520651
0.0511513
0.0502078
0.0492127
0.0689774
0.0688092
0.0685139
0.0681901
0.067767
0.0672972
0.0667645
0.0661904
0.0655586
0.0648838
0.0641585
0.0633898
0.0625772
0.0617213
0.0608265
0.059888
0.0589167
0.0579009
0.0568521
0.0557431
0.0767605
0.0765991
0.0763016
0.0759692
0.0755269
0.0750301
0.0744629
0.073848
0.0731692
0.0724411
0.0716563
0.0708216
0.0699369
0.0690011
0.0680215
0.0669897
0.065921
0.0648011
0.0636448
0.0624182
0.0847248
0.0845703
0.084272
0.0839323
0.0834725
0.0829509
0.0823517
0.0816982
0.0809741
0.0801934
0.0793496
0.0784481
0.0774909
0.0764752
0.0754098
0.0742853
0.073119
0.0718945
0.0706299
0.069285
0.0928899
0.0927465
0.0924491
0.0921035
0.0916286
0.0910859
0.0904585
0.0897692
0.0890011
0.0881679
0.0872638
0.0862942
0.0852624
0.0841647
0.0830125
0.081793
0.0805272
0.0791954
0.0778196
0.0763525
0.101318
0.101184
0.100889
0.100539
0.100052
0.0994901
0.0988354
0.0981103
0.0972981
0.0964121
0.0954483
0.0944101
0.0933042
0.0921243
0.0908846
0.0895698
0.0882035
0.0867632
0.0852753
0.0836852
0.110036
0.109919
0.109629
0.109278
0.108779
0.108196
0.107513
0.106751
0.105894
0.104955
0.103932
0.102826
0.101646
0.100384
0.0990548
0.0976417
0.096172
0.0946198
0.0930159
0.0912973
0.119102
0.119003
0.11872
0.118365
0.117853
0.117247
0.116534
0.115734
0.114832
0.11384
0.112757
0.111583
0.110328
0.108981
0.107562
0.106048
0.104472
0.102805
0.101082
0.0992315
0.128521
0.128447
0.128174
0.127817
0.127292
0.126665
0.125921
0.125082
0.124135
0.123088
0.121943
0.120698
0.119366
0.117932
0.116419
0.114802
0.113116
0.11133
0.109483
0.107496
0.138331
0.138282
0.138022
0.137665
0.137132
0.136484
0.135712
0.134833
0.13384
0.132736
0.131529
0.13021
0.128799
0.127274
0.125666
0.123942
0.122144
0.120235
0.11826
0.116131
0.148542
0.148528
0.148286
0.147934
0.147398
0.146733
0.145937
0.14502
0.143982
0.142822
0.141551
0.140159
0.138666
0.137049
0.135341
0.133508
0.131593
0.129557
0.127451
0.125175
0.159188
0.159212
0.158995
0.158653
0.158119
0.157443
0.156626
0.155676
0.154596
0.153381
0.152048
0.15058
0.149005
0.147293
0.145483
0.143535
0.141501
0.139332
0.137088
0.134658
0.170297
0.170368
0.170183
0.169857
0.169329
0.168646
0.167814
0.166834
0.165715
0.164448
0.163054
0.161511
0.159852
0.158045
0.156131
0.154066
0.151907
0.149603
0.147215
0.144625
0.18189
0.182017
0.181871
0.181567
0.181052
0.180367
0.179523
0.178516
0.177361
0.176043
0.174589
0.172972
0.17123
0.169324
0.167304
0.165118
0.16283
0.160383
0.157846
0.155087
0.194007
0.194197
0.194099
0.193823
0.193328
0.192646
0.191795
0.190764
0.189577
0.18821
0.186698
0.185006
0.18318
0.181176
0.179047
0.176738
0.174316
0.171723
0.169029
0.166098
0.206657
0.206923
0.206882
0.206645
0.206177
0.205504
0.204653
0.203603
0.202386
0.200972
0.199402
0.197635
0.195725
0.193618
0.191377
0.188938
0.186378
0.183629
0.180772
0.177655
0.219893
0.220243
0.22027
0.22008
0.219649
0.218992
0.218146
0.217082
0.215839
0.21438
0.212754
0.210913
0.208915
0.206705
0.204346
0.201775
0.199069
0.19616
0.19313
0.189821
0.233721
0.234173
0.23428
0.234149
0.233763
0.233132
0.232297
0.231224
0.229959
0.228458
0.226776
0.22486
0.222773
0.220454
0.217974
0.215261
0.212401
0.209319
0.206106
0.202589
0.248206
0.24877
0.24897
0.248909
0.248579
0.247981
0.247165
0.24609
0.244807
0.243266
0.241529
0.239536
0.237358
0.234927
0.232318
0.229458
0.226435
0.223173
0.219765
0.21603
0.263356
0.264053
0.264363
0.264386
0.264124
0.263569
0.262781
0.261709
0.260413
0.258835
0.257044
0.254973
0.252701
0.25015
0.247408
0.24439
0.241194
0.237735
0.23412
0.230146
0.279247
0.280092
0.280527
0.28065
0.280468
0.279969
0.279217
0.278156
0.276852
0.275239
0.273395
0.271245
0.268874
0.2662
0.263315
0.26013
0.256749
0.253083
0.249244
0.245017
0.295901
0.29692
0.2975
0.297741
0.297656
0.297225
0.296521
0.295479
0.294173
0.29253
0.290633
0.288401
0.285928
0.283122
0.280086
0.276721
0.273143
0.269252
0.265172
0.26067
0.313402
0.314616
0.315362
0.315741
0.315769
0.315421
0.314778
0.313764
0.312463
0.310792
0.308844
0.306528
0.303947
0.301002
0.297805
0.294247
0.290455
0.286323
0.281983
0.277184
0.331785
0.333225
0.334163
0.334703
0.334866
0.33462
0.334051
0.333078
0.33179
0.330096
0.328097
0.325694
0.323
0.319906
0.316534
0.312768
0.308745
0.304349
0.299728
0.294606
0.351134
0.352828
0.353987
0.354715
0.355035
0.354911
0.354435
0.353515
0.352249
0.350536
0.348488
0.345994
0.343178
0.339923
0.336362
0.332369
0.328093
0.323411
0.318482
0.313008
0.37149
0.373477
0.37489
0.375839
0.376345
0.376369
0.376005
0.375155
0.373921
0.372196
0.370098
0.367508
0.364561
0.361131
0.357361
0.353119
0.348566
0.343569
0.338302
0.332446
0.392926
0.395246
0.396951
0.398157
0.398883
0.399083
0.398856
0.398094
0.396905
0.395173
0.393023
0.39033
0.387239
0.383615
0.379614
0.375095
0.370234
0.36489
0.359251
0.352973
0.415476
0.418177
0.420219
0.421727
0.422711
0.423123
0.42306
0.422408
0.421277
0.419544
0.417342
0.414538
0.411287
0.407447
0.403188
0.39836
0.393155
0.387425
0.381374
0.374633
0.439185
0.442315
0.444744
0.446599
0.447886
0.448548
0.44868
0.448161
0.447102
0.445374
0.443116
0.440191
0.436761
0.432679
0.42813
0.422957
0.417367
0.411208
0.404699
0.397447
0.464031
0.467643
0.470509
0.472762
0.474396
0.475345
0.475704
0.475339
0.474367
0.472649
0.470334
0.467277
0.463652
0.459307
0.454437
0.448884
0.442869
0.436236
0.429224
0.421416
0.489949
0.494077
0.497417
0.500102
0.502115
0.503377
0.50398
0.503784
0.502906
0.501204
0.498832
0.495642
0.491814
0.487194
0.481986
0.476028
0.469558
0.462418
0.454864
0.446458
0.516685
0.521332
0.525146
0.528261
0.530648
0.532218
0.53306
0.533027
0.532241
0.530561
0.528143
0.524837
0.520829
0.515957
0.510431
0.504088
0.49717
0.489525
0.481424
0.472413
0.543747
0.548828
0.553034
0.556495
0.559176
0.560985
0.56201
0.562104
0.561391
0.559737
0.557302
0.553935
0.549815
0.544777
0.539023
0.532384
0.525102
0.517029
0.508443
0.498878
0.570174
0.575491
0.579886
0.583493
0.586288
0.588183
0.589273
0.589416
0.588739
0.587121
0.584721
0.581394
0.577299
0.572268
0.566475
0.559749
0.552307
0.544007
0.535117
0.525171
0.594489
0.599704
0.603963
0.607404
0.610037
0.611794
0.612784
0.612872
0.612183
0.610616
0.608322
0.605169
0.601282
0.596496
0.590942
0.584441
0.577168
0.56898
0.560115
0.550104
0.614758
0.619477
0.623229
0.62617
0.628357
0.629747
0.630472
0.630404
0.629663
0.628163
0.626047
0.623195
0.619703
0.615408
0.610388
0.604468
0.59776
0.590116
0.58172
0.572102
0.628987
0.632887
0.635848
0.63805
0.639601
0.640484
0.640847
0.640569
0.639761
0.638345
0.636456
0.63399
0.631013
0.62737
0.623103
0.618032
0.612219
0.605506
0.59801
0.589257
0.635729
0.638699
0.64079
0.642213
0.64311
0.643487
0.643497
0.643022
0.642163
0.640846
0.6392
0.63713
0.634688
0.631734
0.62828
0.624165
0.619401
0.613832
0.607508
0.599964
0.634376
0.636558
0.637938
0.638752
0.639163
0.639179
0.638956
0.638367
0.637511
0.636307
0.634886
0.633153
0.631165
0.628788
0.626045
0.622778
0.618991
0.614521