/*--------------------------------*- C++ -*----------------------------------*\
  =========                 |
  \\      /  F ield         | OpenFOAM: The Open Source CFD Toolbox
   \\    /   O peration     | Website:  https://openfoam.org
    \\  /    A nd           | Version:  6
     \\/     M anipulation  |
\*---------------------------------------------------------------------------*/
FoamFile
{
    version     2.0;
    format      ascii;
    class       volScalarField;
    location    "28";
    object      p;
}
// * * * * * * * * * * * * * * * * * * * * * * * * * * * * * * * * * * * * * //

dimensions      [0 2 -2 0 0 0 0];

internalField   nonuniform List<scalar> 
10000
(
0.0279174
0.0279188
0.0272729
0.0256709
0.0229525
0.0208118
0.0196784
0.0192577
0.0191838
0.0191059
0.0189525
0.018619
0.0179416
0.0170054
0.0158541
0.0150956
0.0149341
0.0149707
0.0170587
0.0201827
0.0670465
0.0658143
0.0678843
0.0712014
0.0723515
0.071608
0.0702313
0.0691616
0.068646
0.0683708
0.0682968
0.0680306
0.0678391
0.0672473
0.0660824
0.0637547
0.0599426
0.0560057
0.0552606
0.057904
0.109758
0.106939
0.106493
0.108876
0.111795
0.114054
0.115486
0.116238
0.116587
0.116681
0.116529
0.116037
0.115006
0.11349
0.11154
0.109349
0.107374
0.106431
0.106463
0.106786
0.157881
0.156423
0.155799
0.157781
0.161027
0.163729
0.165526
0.166488
0.166893
0.166988
0.166822
0.166369
0.165538
0.164251
0.162388
0.160226
0.158021
0.156537
0.156317
0.156571
0.217449
0.219365
0.219626
0.219307
0.219624
0.219922
0.220136
0.220094
0.219944
0.219687
0.219413
0.219103
0.218624
0.218159
0.217612
0.217172
0.217065
0.217272
0.216744
0.215121
0.274008
0.276539
0.277823
0.277246
0.276295
0.275235
0.274302
0.27349
0.272876
0.272426
0.272112
0.271912
0.271955
0.272393
0.273402
0.275021
0.276757
0.277816
0.27697
0.274797
0.322245
0.322174
0.322495
0.322389
0.322334
0.322676
0.32306
0.323278
0.323371
0.32344
0.323647
0.324091
0.324809
0.325914
0.327337
0.328965
0.330381
0.330851
0.330261
0.329763
0.368428
0.367057
0.366869
0.367421
0.36842
0.37008
0.371672
0.372842
0.373537
0.37402
0.374364
0.374798
0.375455
0.376245
0.377091
0.377837
0.378308
0.378185
0.377717
0.378013
0.41961
0.419348
0.419712
0.420532
0.421482
0.422467
0.423388
0.42411
0.424603
0.424842
0.42493
0.424918
0.424661
0.424066
0.423058
0.421507
0.419655
0.418275
0.418688
0.420676
0.475733
0.477163
0.477936
0.47783
0.477365
0.476745
0.476429
0.476379
0.476473
0.476546
0.476557
0.476285
0.475724
0.474595
0.472873
0.470672
0.46825
0.466783
0.46734
0.468866
0.530213
0.530626
0.530922
0.530808
0.530194
0.529406
0.528791
0.528528
0.528489
0.528539
0.528551
0.528531
0.528352
0.528186
0.528011
0.527904
0.527977
0.528179
0.527531
0.525536
0.583936
0.583754
0.583351
0.582805
0.582098
0.581341
0.580681
0.580354
0.580243
0.580274
0.580252
0.580219
0.580231
0.580357
0.580777
0.581632
0.582736
0.583488
0.582863
0.580917
0.636305
0.635001
0.63357
0.632851
0.632606
0.632488
0.632417
0.632364
0.632359
0.632348
0.632362
0.632356
0.632307
0.632313
0.632492
0.632879
0.633399
0.633705
0.633651
0.633633
0.689208
0.688753
0.688381
0.688386
0.688275
0.687736
0.686995
0.686333
0.685882
0.685662
0.685574
0.685527
0.685655
0.685826
0.686126
0.686472
0.686837
0.687079
0.686897
0.686758
0.741127
0.743194
0.744708
0.744738
0.743791
0.742235
0.74073
0.73958
0.738898
0.738566
0.738564
0.73882
0.739258
0.73986
0.740411
0.740559
0.740442
0.740217
0.740121
0.740367
0.788741
0.788588
0.788995
0.790202
0.791335
0.791833
0.791699
0.791244
0.79081
0.790633
0.790741
0.791121
0.791917
0.792997
0.794203
0.795182
0.795695
0.795642
0.795121
0.794615
0.837885
0.838381
0.838554
0.839015
0.840128
0.84117
0.841678
0.841688
0.84145
0.841201
0.841038
0.841117
0.841323
0.841851
0.842625
0.843589
0.844546
0.844804
0.843919
0.842415
0.884713
0.885168
0.885511
0.88604
0.887267
0.888819
0.890144
0.890969
0.891308
0.891317
0.891167
0.890843
0.890339
0.889298
0.887559
0.885273
0.882651
0.880605
0.880998
0.882965
0.934892
0.935526
0.936138
0.936729
0.937752
0.93916
0.940511
0.941548
0.942181
0.942437
0.942503
0.942356
0.94186
0.940769
0.938908
0.936271
0.933495
0.931829
0.932028
0.93276
0.992414
0.993697
0.994317
0.994205
0.993864
0.993838
0.994117
0.994578
0.994939
0.995145
0.995129
0.99494
0.994741
0.994566
0.994665
0.995078
0.99575
0.996264
0.995096
0.991948
1.05187
1.05351
1.05411
1.05332
1.05172
1.05027
1.04937
1.04892
1.04875
1.04861
1.04848
1.04834
1.04818
1.04839
1.04913
1.05048
1.05222
1.05322
1.05227
1.04981
1.10644
1.10711
1.10775
1.10765
1.10658
1.10525
1.10412
1.10324
1.10273
1.10248
1.10248
1.10255
1.10289
1.10335
1.10389
1.1044
1.10464
1.10439
1.10413
1.10443
1.15744
1.15723
1.15785
1.15868
1.15875
1.15804
1.15707
1.15618
1.15561
1.15537
1.15552
1.15606
1.15696
1.15814
1.15945
1.16049
1.16087
1.16041
1.15966
1.15938
1.20786
1.20804
1.20806
1.20828
1.20838
1.20807
1.20765
1.20732
1.20711
1.20715
1.2074
1.20791
1.20864
1.20944
1.21041
1.21153
1.21245
1.21272
1.21208
1.21077
1.25664
1.2558
1.25473
1.25537
1.25678
1.25784
1.25848
1.25865
1.25857
1.25851
1.25867
1.25901
1.25924
1.25918
1.25864
1.25765
1.25648
1.25564
1.25569
1.25593
1.30754
1.30788
1.30778
1.30827
1.30936
1.31035
1.31095
1.31102
1.31079
1.31048
1.31024
1.30998
1.30958
1.30869
1.30723
1.30527
1.30308
1.30136
1.30101
1.30127
1.36162
1.36341
1.36425
1.36385
1.36349
1.36348
1.36354
1.36345
1.36327
1.36294
1.36258
1.36213
1.36136
1.36016
1.35851
1.35663
1.35487
1.35342
1.35278
1.35212
1.41624
1.41882
1.42009
1.41956
1.41848
1.41752
1.41687
1.41646
1.41622
1.41601
1.4158
1.41551
1.41523
1.41484
1.41443
1.41414
1.41393
1.4136
1.41272
1.41064
1.46779
1.46865
1.46949
1.46996
1.46993
1.46972
1.46942
1.46912
1.46898
1.46895
1.46905
1.46925
1.46962
1.47037
1.47155
1.47313
1.47476
1.47553
1.47441
1.47142
1.52026
1.52083
1.52148
1.52188
1.52195
1.52204
1.52205
1.52206
1.52212
1.52231
1.52269
1.52326
1.52422
1.52548
1.52705
1.52879
1.53017
1.53042
1.52953
1.52815
1.57527
1.57536
1.57536
1.5757
1.57589
1.57598
1.57593
1.57584
1.57573
1.5757
1.57585
1.57633
1.57709
1.57816
1.57935
1.58032
1.58089
1.58074
1.58019
1.57978
1.63304
1.63454
1.63544
1.63584
1.63535
1.63414
1.63259
1.63111
1.62993
1.62917
1.62869
1.62849
1.62844
1.62831
1.62786
1.62686
1.62542
1.62438
1.62491
1.6261
1.68459
1.68775
1.68988
1.69001
1.68878
1.68699
1.68518
1.68358
1.68241
1.68172
1.68143
1.68141
1.68128
1.6809
1.67998
1.67843
1.67659
1.67546
1.67581
1.67631
1.72813
1.72699
1.72681
1.72833
1.73028
1.73213
1.73339
1.73397
1.73406
1.73422
1.73448
1.73497
1.73555
1.73611
1.73652
1.73683
1.7371
1.73721
1.73598
1.73307
1.78027
1.77965
1.77901
1.78
1.78218
1.78448
1.7862
1.78714
1.78755
1.78776
1.78806
1.78858
1.78921
1.78996
1.79067
1.79134
1.79189
1.79197
1.79078
1.78833
1.84156
1.84479
1.84606
1.84558
1.84481
1.84395
1.84333
1.84288
1.84263
1.8425
1.84258
1.84278
1.84321
1.84362
1.84387
1.84393
1.84371
1.84318
1.84272
1.84217
1.90095
1.904
1.9055
1.90479
1.90293
1.90079
1.89903
1.89779
1.89706
1.89668
1.89665
1.8969
1.89737
1.89792
1.89841
1.89876
1.89887
1.89865
1.89799
1.89675
1.95417
1.95502
1.95577
1.9561
1.95555
1.95443
1.95296
1.95161
1.95055
1.94997
1.94971
1.94975
1.94998
1.95026
1.95052
1.95066
1.95054
1.95015
1.94944
1.94818
2.00299
2.00353
2.00422
2.00519
2.00583
2.00592
2.00537
2.00453
2.00367
2.00306
2.00271
2.0026
2.00249
2.00231
2.00184
2.00106
2.00007
1.99914
1.99852
1.99762
2.05143
2.05115
2.05086
2.05213
2.05415
2.05595
2.057
2.05741
2.05738
2.05731
2.05728
2.0574
2.05753
2.05748
2.05696
2.05587
2.05438
2.05321
2.05273
2.05198
2.10778
2.10888
2.109
2.10976
2.11105
2.11219
2.11284
2.11308
2.11315
2.11328
2.11363
2.11437
2.1154
2.11671
2.11798
2.11895
2.11939
2.11933
2.1182
2.11578
2.16934
2.17333
2.17492
2.17408
2.17254
2.17109
2.17006
2.16942
2.16909
2.16914
2.16946
2.17035
2.17179
2.17397
2.17686
2.18024
2.18342
2.18496
2.18299
2.17842
2.2271
2.22905
2.23018
2.23009
2.22898
2.22754
2.22614
2.22495
2.22411
2.22369
2.22369
2.22411
2.22482
2.22577
2.22674
2.22763
2.22809
2.22772
2.22709
2.22663
2.28127
2.28297
2.2843
2.28464
2.28402
2.28276
2.28122
2.27974
2.27857
2.27781
2.27747
2.27743
2.27749
2.27727
2.27621
2.27407
2.27109
2.26866
2.26885
2.27084
2.33032
2.33071
2.33123
2.33241
2.33338
2.3338
2.33362
2.33315
2.33258
2.33218
2.33199
2.33199
2.33189
2.33153
2.3305
2.32856
2.32619
2.3247
2.3243
2.32359
2.38225
2.3825
2.38256
2.38401
2.38596
2.3875
2.38824
2.38842
2.38826
2.38821
2.38825
2.38851
2.38883
2.38913
2.38925
2.38924
2.38933
2.38954
2.38816
2.38443
2.44111
2.44391
2.44481
2.44493
2.44525
2.44562
2.44574
2.44561
2.44536
2.44519
2.44522
2.44564
2.44636
2.44748
2.44883
2.45035
2.45171
2.45215
2.45037
2.44655
2.49996
2.50347
2.5056
2.50603
2.50545
2.50457
2.50366
2.50281
2.50214
2.50178
2.50182
2.50235
2.50336
2.50473
2.50628
2.50772
2.50865
2.50849
2.50727
2.50546
2.55451
2.55768
2.56007
2.56104
2.56067
2.55966
2.55855
2.5576
2.55691
2.5566
2.5567
2.55728
2.55819
2.55939
2.56061
2.5615
2.56187
2.56148
2.56039
2.55888
2.6076
2.60769
2.60745
2.60834
2.60957
2.61066
2.61131
2.61155
2.61145
2.61136
2.61131
2.61144
2.61154
2.61143
2.61081
2.60965
2.60816
2.60691
2.6067
2.60659
2.66761
2.66819
2.66792
2.6682
2.66885
2.66942
2.66962
2.66948
2.66909
2.66868
2.66835
2.66814
2.66775
2.66696
2.66548
2.66347
2.66131
2.65996
2.66008
2.65988
2.72947
2.73323
2.7355
2.73592
2.73488
2.73295
2.73095
2.72933
2.72813
2.72745
2.72715
2.72726
2.72757
2.72803
2.72845
2.72876
2.72884
2.72875
2.72748
2.72385
2.783
2.7861
2.78802
2.78891
2.78878
2.78782
2.78661
2.78556
2.78482
2.78459
2.78484
2.78573
2.7871
2.78913
2.79148
2.79395
2.79585
2.79628
2.79406
2.78934
2.83381
2.83399
2.83384
2.8352
2.83741
2.83937
2.84051
2.84099
2.84105
2.84125
2.8417
2.84266
2.84407
2.84604
2.84833
2.85078
2.85273
2.85296
2.85088
2.84735
2.8939
2.89593
2.89666
2.89739
2.8986
2.89949
2.8997
2.89944
2.89905
2.89879
2.8989
2.89942
2.90016
2.90081
2.90093
2.90026
2.89881
2.89694
2.89625
2.89616
2.95662
2.96169
2.96407
2.96368
2.96251
2.96106
2.9596
2.95826
2.95726
2.9566
2.95636
2.95641
2.95656
2.95629
2.95513
2.95294
2.95005
2.94784
2.9475
2.94707
3.01222
3.01467
3.01612
3.01697
3.01717
3.01699
3.01641
3.01561
3.0148
3.01427
3.01405
3.01417
3.01428
3.01418
3.01356
3.01231
3.01055
3.00897
3.00725
3.00358
3.06581
3.0678
3.06965
3.07191
3.07342
3.07394
3.07361
3.07292
3.07211
3.07157
3.07131
3.07137
3.07155
3.07169
3.07162
3.07133
3.07065
3.06948
3.06703
3.06216
3.11998
3.12381
3.1261
3.12779
3.12917
3.12998
3.13018
3.12989
3.12934
3.12883
3.12849
3.12841
3.12836
3.12839
3.12838
3.12836
3.1283
3.12778
3.12562
3.12107
3.17765
3.18
3.1806
3.18183
3.18377
3.18578
3.18721
3.18789
3.18802
3.18793
3.18796
3.1882
3.18868
3.18913
3.18914
3.18853
3.18726
3.18572
3.18419
3.18163
3.24533
3.2493
3.25057
3.25089
3.25091
3.25063
3.2501
3.2495
3.249
3.2487
3.2488
3.24943
3.25054
3.25202
3.2535
3.2545
3.25482
3.2542
3.25216
3.24795
3.31259
3.31898
3.32163
3.32077
3.31821
3.31529
3.31273
3.31076
3.30943
3.30876
3.30861
3.30903
3.30998
3.31148
3.3134
3.31551
3.31733
3.31773
3.31547
3.31003
3.36855
3.37156
3.37314
3.37414
3.37395
3.37295
3.37154
3.37001
3.36872
3.3679
3.36762
3.3679
3.36847
3.36909
3.36932
3.36878
3.36747
3.36588
3.3653
3.36388
3.42074
3.42393
3.42575
3.42774
3.42912
3.42948
3.42901
3.42814
3.4273
3.42678
3.42678
3.42721
3.42804
3.42883
3.42908
3.42849
3.42699
3.4257
3.42534
3.42312
3.47507
3.47987
3.48181
3.48325
3.48442
3.48508
3.48539
3.48554
3.4856
3.48585
3.48642
3.48752
3.48894
3.49074
3.4926
3.49415
3.49511
3.49526
3.49334
3.48695
3.53845
3.54355
3.54494
3.54594
3.54658
3.5468
3.54682
3.54679
3.54675
3.54691
3.54738
3.54826
3.54964
3.55138
3.5532
3.55478
3.55572
3.55547
3.55311
3.54645
3.61206
3.61987
3.62251
3.62207
3.61975
3.6166
3.6137
3.61151
3.61019
3.6095
3.60946
3.60996
3.61086
3.61196
3.61291
3.61327
3.61277
3.61117
3.60889
3.60364
3.68098
3.69031
3.69424
3.69376
3.69005
3.68485
3.67985
3.676
3.67363
3.67245
3.67226
3.6727
3.67382
3.67514
3.67639
3.67715
3.67683
3.67513
3.67216
3.66551
3.73494
3.74124
3.74433
3.74626
3.74587
3.74342
3.74004
3.73691
3.73475
3.73377
3.73383
3.73485
3.73653
3.73874
3.74102
3.74263
3.74294
3.74151
3.73829
3.73056
3.78316
3.78721
3.78931
3.79352
3.79723
3.79885
3.79835
3.79687
3.79544
3.79479
3.79501
3.79604
3.79786
3.80015
3.80263
3.80473
3.80564
3.80474
3.80171
3.79353
3.83868
3.8456
3.84827
3.85186
3.85587
3.8583
3.85877
3.85794
3.85682
3.85606
3.85601
3.85668
3.85769
3.85887
3.85988
3.86021
3.85963
3.85814
3.856
3.84907
3.90223
3.91228
3.91587
3.91788
3.91982
3.92098
3.92112
3.92039
3.91946
3.91866
3.91846
3.91863
3.91924
3.91957
3.91908
3.91724
3.91393
3.91061
3.90908
3.90393
3.96976
3.97946
3.98253
3.98341
3.98382
3.98406
3.984
3.98355
3.98294
3.98249
3.98248
3.983
3.98376
3.98456
3.98488
3.98412
3.98248
3.98078
3.97864
3.97057
4.04027
4.04743
4.0486
4.0488
4.04873
4.0488
4.04861
4.0482
4.04767
4.04742
4.04756
4.04812
4.04919
4.05055
4.0521
4.05362
4.0548
4.05524
4.05278
4.04265
4.11304
4.1198
4.12015
4.11899
4.11759
4.11636
4.11527
4.11428
4.11338
4.11274
4.1125
4.11283
4.11349
4.11458
4.11597
4.1175
4.11899
4.11985
4.11845
4.11002
4.18362
4.18891
4.18771
4.18583
4.18418
4.18279
4.18165
4.18065
4.17979
4.1791
4.17881
4.17876
4.17906
4.17929
4.17931
4.17908
4.17875
4.17913
4.18
4.17528
4.25461
4.25947
4.25736
4.25477
4.25272
4.25089
4.24943
4.24828
4.24744
4.24689
4.2468
4.24718
4.24787
4.24881
4.24982
4.25071
4.25169
4.25355
4.25497
4.24952
4.32764
4.33437
4.33251
4.32829
4.32446
4.32123
4.31893
4.31748
4.31662
4.31626
4.31637
4.31707
4.31852
4.32079
4.32404
4.32824
4.33277
4.33695
4.33741
4.32879
4.40017
4.40768
4.40668
4.40269
4.3984
4.39424
4.39096
4.3887
4.38729
4.3866
4.38657
4.38741
4.38906
4.39197
4.39606
4.40116
4.40627
4.41042
4.41069
4.40245
4.46989
4.48035
4.48236
4.47946
4.47457
4.46892
4.46404
4.46052
4.4584
4.4574
4.45742
4.45844
4.46054
4.4637
4.46767
4.47197
4.47539
4.47786
4.47781
4.47082
4.53065
4.54299
4.54774
4.5472
4.54373
4.53859
4.53377
4.53027
4.52817
4.52743
4.52783
4.52954
4.53241
4.53659
4.54161
4.54655
4.54991
4.55133
4.54844
4.538
4.58793
4.60001
4.60649
4.60954
4.6099
4.6075
4.60405
4.60107
4.59903
4.59833
4.59871
4.60043
4.60335
4.60755
4.6126
4.61725
4.61975
4.6192
4.61242
4.59788
4.65176
4.66732
4.67711
4.68184
4.68338
4.68133
4.67756
4.67391
4.67134
4.67019
4.67043
4.67203
4.67473
4.67809
4.68106
4.68198
4.67914
4.67326
4.66341
4.64914
4.71626
4.73461
4.74759
4.75369
4.75602
4.75432
4.75065
4.74684
4.74405
4.74266
4.74274
4.7441
4.74643
4.74888
4.75036
4.74886
4.74318
4.73485
4.72181
4.70491
4.77762
4.79203
4.80472
4.81379
4.82062
4.82315
4.82238
4.82007
4.81772
4.81626
4.81592
4.81655
4.81779
4.81867
4.81824
4.81509
4.80857
4.80014
4.7859
4.76803
4.85053
4.86252
4.87376
4.8818
4.8899
4.89464
4.89582
4.89483
4.89317
4.89186
4.8914
4.89166
4.89212
4.89168
4.88935
4.884
4.87611
4.8685
4.85727
4.84499
4.94346
4.9523
4.95926
4.96093
4.96522
4.96896
4.97081
4.97105
4.97046
4.96979
4.96959
4.96981
4.97034
4.97031
4.96931
4.96719
4.96496
4.96499
4.95852
4.94977
5.05793
5.06131
5.06275
5.0553
5.05232
5.05185
5.05192
5.05178
5.05132
5.05089
5.05076
5.0513
5.0523
5.054
5.05686
5.06149
5.06876
5.07845
5.07596
5.07072
5.18097
5.18189
5.18291
5.16688
5.15392
5.14518
5.13978
5.1366
5.13491
5.13409
5.13417
5.13527
5.13784
5.14237
5.1493
5.15908
5.17114
5.18481
5.18308
5.18444
5.28198
5.28166
5.29021
5.27293
5.25518
5.24021
5.22938
5.22258
5.21901
5.21754
5.21765
5.21969
5.22391
5.23129
5.24172
5.25443
5.26854
5.28295
5.27482
5.27747
5.34369
5.34026
5.36351
5.35416
5.3422
5.32923
5.3173
5.3085
5.30347
5.30133
5.30141
5.30369
5.30866
5.3167
5.32699
5.33816
5.34913
5.35901
5.33668
5.33958
5.38676
5.37572
5.4175
5.41592
5.41289
5.40737
5.39922
5.39137
5.3862
5.38394
5.38407
5.38667
5.39147
5.39843
5.40553
5.41031
5.41364
5.41586
5.37444
5.3851
5.45932
5.42467
5.48271
5.47881
5.47752
5.47778
5.47463
5.46926
5.46484
5.46269
5.46284
5.465
5.46921
5.47408
5.4774
5.47798
5.48023
5.4845
5.42615
5.46068
5.61114
5.52249
5.59498
5.57349
5.55749
5.55259
5.5488
5.54339
5.53852
5.53595
5.53598
5.53875
5.54328
5.54853
5.55291
5.55866
5.57553
5.59794
5.52578
5.61418
5.84168
5.65211
5.748
5.70333
5.66036
5.63991
5.62906
5.62044
5.61376
5.61019
5.61008
5.61351
5.62
5.62874
5.63994
5.66109
5.70448
5.74962
5.65343
5.8418
6.07528
5.7127
5.86207
5.81626
5.75619
5.72404
5.70844
5.69817
5.69054
5.68648
5.68615
5.69018
5.69729
5.70772
5.72373
5.75599
5.81589
5.86068
5.70984
6.07146
6.26707
5.62778
5.88116
5.87351
5.81508
5.77953
5.76292
5.75309
5.74592
5.74201
5.74199
5.74588
5.75301
5.76334
5.78026
5.81563
5.87333
5.87946
5.62557
6.26616
6.62142
5.51969
5.89515
5.93237
5.8628
5.81295
5.78923
5.77619
5.76753
5.76298
5.76313
5.76808
5.77665
5.79096
5.81374
5.86388
5.93097
5.89391
5.52021
6.62475
7.67536
5.54151
5.86113
5.95954
5.89848
5.8438
5.81878
5.80647
5.79911
5.79499
5.7953
5.79874
5.80581
5.81861
5.84303
5.89808
5.95945
5.86206
5.54299
7.67469
9.63003
5.21747
5.31534
5.70379
5.79593
5.79542
5.79274
5.79206
5.7907
5.7895
5.78952
5.79069
5.79203
5.79278
5.7954
5.79592
5.70377
5.3154
5.21762
9.63011
0.0223071
0.033856
0.0341313
0.0389054
0.03687
0.0354128
0.0366336
0.0387425
0.0402484
0.040869
0.0411388
0.0414142
0.0419808
0.0434533
0.0465475
0.0518271
0.0557806
0.0529798
0.0576936
0.0557231
0.116783
0.135276
0.144653
0.156937
0.161831
0.161851
0.160931
0.160883
0.161163
0.161252
0.161605
0.162334
0.164827
0.169378
0.176481
0.183476
0.185776
0.183607
0.185822
0.176972
0.285003
0.287128
0.293998
0.298329
0.295872
0.290587
0.285842
0.282837
0.281006
0.279838
0.278733
0.277992
0.276877
0.275778
0.274177
0.273477
0.276391
0.282402
0.287032
0.287855
0.426796
0.422594
0.421933
0.422861
0.419707
0.41304
0.406415
0.401757
0.398924
0.397033
0.395317
0.393209
0.389611
0.383124
0.371563
0.354609
0.334847
0.320035
0.322145
0.333867
0.527272
0.519664
0.514925
0.519793
0.526759
0.530299
0.529328
0.526165
0.522863
0.520444
0.518319
0.516143
0.512707
0.507209
0.498249
0.485554
0.471646
0.461754
0.457163
0.455031
0.633542
0.629578
0.62637
0.63285
0.642735
0.649304
0.65084
0.649484
0.646907
0.644945
0.642985
0.641441
0.639688
0.638446
0.638386
0.641402
0.647905
0.652992
0.645942
0.628238
0.767888
0.771581
0.765641
0.75895
0.758713
0.761631
0.764672
0.766538
0.767058
0.766988
0.766782
0.767242
0.768004
0.769842
0.773407
0.780823
0.790732
0.796256
0.793352
0.783383
0.88874
0.892706
0.887295
0.881712
0.879753
0.88063
0.882373
0.883704
0.88442
0.884827
0.885543
0.88696
0.889671
0.893497
0.898298
0.903608
0.908357
0.910141
0.910866
0.91152
0.994853
1.00907
1.01551
1.01132
1.00417
0.999
0.996621
0.995825
0.995916
0.996306
0.996957
0.997985
0.999547
1.00214
1.00525
1.00778
1.00997
1.01127
1.01295
1.01577
1.06569
1.07495
1.08299
1.08617
1.08895
1.09376
1.09876
1.10282
1.10582
1.10787
1.10907
1.10951
1.10902
1.10703
1.10242
1.09518
1.08607
1.07838
1.07982
1.08696
1.17217
1.16834
1.17302
1.18696
1.20184
1.21466
1.22281
1.22751
1.22995
1.23111
1.23112
1.22984
1.22646
1.22067
1.2121
1.20094
1.18816
1.17761
1.17464
1.17462
1.3695
1.37492
1.379
1.38011
1.37789
1.37513
1.37262
1.37069
1.36887
1.36739
1.36559
1.3631
1.35913
1.35346
1.34637
1.33898
1.33319
1.3302
1.32359
1.30973
1.56109
1.57447
1.57381
1.56091
1.54268
1.5277
1.51787
1.51166
1.50753
1.50495
1.50362
1.50352
1.50461
1.5066
1.50842
1.50849
1.5061
1.50166
1.49374
1.48096
1.69953
1.6984
1.69291
1.68944
1.67922
1.66549
1.65279
1.64343
1.63725
1.63392
1.63268
1.63368
1.63749
1.64476
1.65599
1.67007
1.68323
1.68911
1.68315
1.67048
1.80456
1.80227
1.79599
1.79131
1.78469
1.7754
1.76625
1.75899
1.75408
1.75117
1.75002
1.75075
1.75288
1.75677
1.76303
1.77289
1.78487
1.79346
1.79755
1.79817
1.84829
1.84345
1.83799
1.8436
1.85468
1.86395
1.86845
1.8685
1.86696
1.86537
1.86476
1.86488
1.86556
1.86527
1.86302
1.85768
1.84871
1.84175
1.84993
1.86605
1.90354
1.90813
1.91351
1.92792
1.94745
1.96436
1.97558
1.98108
1.98313
1.98363
1.98417
1.98467
1.98434
1.98207
1.97746
1.96926
1.95857
1.9521
1.95497
1.95986
2.01745
2.03733
2.05034
2.05868
2.0693
2.08113
2.09172
2.09938
2.10389
2.10633
2.10794
2.10931
2.11027
2.11011
2.10826
2.10494
2.10239
2.1038
2.10222
2.09107
2.1738
2.19282
2.20466
2.20928
2.21139
2.21555
2.22117
2.22618
2.2295
2.23123
2.23219
2.23309
2.23445
2.23669
2.23893
2.24062
2.24199
2.2428
2.23981
2.22897
2.35018
2.36587
2.37416
2.37263
2.36473
2.35822
2.35568
2.35582
2.35666
2.35718
2.35716
2.35675
2.35642
2.35655
2.35767
2.36064
2.36548
2.36869
2.36671
2.35801
2.5042
2.50611
2.50697
2.50791
2.50231
2.49369
2.48646
2.48257
2.48128
2.48092
2.48109
2.48133
2.48167
2.4815
2.48068
2.47885
2.47654
2.47319
2.47164
2.46966
2.63349
2.63205
2.62932
2.62775
2.6227
2.6155
2.6089
2.60474
2.60304
2.60289
2.60336
2.60399
2.60479
2.60529
2.60582
2.60636
2.60729
2.60737
2.60386
2.59638
2.72365
2.715
2.70922
2.7158
2.72365
2.72782
2.72897
2.72846
2.72777
2.72776
2.72825
2.72874
2.72867
2.72838
2.72827
2.72811
2.72746
2.72546
2.72265
2.71761
2.8309
2.82827
2.82638
2.8362
2.84866
2.85633
2.85942
2.85998
2.85953
2.85935
2.85973
2.86053
2.8614
2.86161
2.8607
2.85795
2.85321
2.84738
2.84456
2.84183
2.98645
2.99861
2.99915
2.99663
2.99699
2.99738
2.99653
2.99499
2.99358
2.99279
2.99321
2.99483
2.9975
3.0005
3.00277
3.00263
2.99908
2.9932
2.98969
2.98557
3.15085
3.16226
3.16075
3.15286
3.14444
3.13741
3.13137
3.1264
3.12293
3.1211
3.12092
3.12224
3.12536
3.13001
3.13671
3.14517
3.15346
3.15761
3.15548
3.14536
3.28268
3.29116
3.28862
3.27921
3.26799
3.25849
3.25139
3.2462
3.24279
3.2409
3.24003
3.2402
3.24068
3.24199
3.24481
3.25105
3.26137
3.27142
3.27396
3.26341
3.35299
3.34915
3.34443
3.34752
3.3526
3.35754
3.36087
3.36174
3.36115
3.36022
3.35969
3.35926
3.35862
3.35639
3.35091
3.34082
3.32653
3.31465
3.31795
3.32554
3.43216
3.43264
3.43549
3.44696
3.4603
3.47182
3.47962
3.48365
3.48488
3.48499
3.48515
3.4855
3.48533
3.48339
3.47863
3.46968
3.4574
3.44684
3.44323
3.44122
3.56511
3.58091
3.59034
3.59458
3.59916
3.60398
3.60815
3.61124
3.61275
3.61344
3.61381
3.61451
3.61531
3.61615
3.6173
3.61934
3.62224
3.62431
3.61916
3.60308
3.72458
3.73891
3.7449
3.74519
3.74315
3.74197
3.74195
3.74248
3.74279
3.74281
3.74275
3.74326
3.74454
3.74773
3.75338
3.76157
3.77053
3.77571
3.77266
3.75703
3.89163
3.90477
3.90719
3.90022
3.88858
3.87971
3.87513
3.8732
3.87227
3.87187
3.87154
3.87142
3.87128
3.87103
3.87109
3.87325
3.87816
3.88239
3.88304
3.87477
4.01892
4.02184
4.01872
4.0143
4.0083
4.00394
4.00182
4.00108
4.00102
4.00117
4.00185
4.00266
4.00357
4.00308
3.99929
3.99065
3.97805
3.96739
3.96925
3.97398
4.1243
4.11925
4.11958
4.13041
4.13789
4.13914
4.13689
4.13423
4.1325
4.13207
4.13299
4.13493
4.13811
4.14182
4.14573
4.14779
4.14615
4.14273
4.13982
4.13304
4.25997
4.27004
4.2773
4.28052
4.27967
4.27507
4.26935
4.26403
4.26018
4.25822
4.2579
4.25914
4.26138
4.26578
4.27383
4.28729
4.30444
4.31703
4.31462
4.29582
4.37959
4.38994
4.38966
4.38639
4.38552
4.38569
4.3853
4.38375
4.38179
4.38013
4.37907
4.37868
4.37855
4.37827
4.37763
4.37793
4.38095
4.38455
4.3872
4.38091
4.48286
4.48501
4.48092
4.48413
4.49137
4.49883
4.50407
4.50636
4.50679
4.50599
4.50529
4.50422
4.5025
4.49811
4.4889
4.47281
4.45293
4.43854
4.44045
4.44634
4.61351
4.61998
4.61981
4.62348
4.62853
4.6337
4.63816
4.64071
4.64167
4.64158
4.64158
4.64124
4.64061
4.6383
4.63368
4.62539
4.6135
4.60326
4.59851
4.59139
4.77532
4.78626
4.78898
4.79002
4.78892
4.78655
4.78453
4.78347
4.7829
4.78273
4.78313
4.78448
4.78656
4.79026
4.79661
4.80685
4.81889
4.82613
4.81943
4.79507
4.94
4.95316
4.95502
4.94955
4.94081
4.93239
4.92568
4.92167
4.91979
4.91977
4.92117
4.92436
4.9295
4.93727
4.94855
4.96404
4.98031
4.98949
4.98788
4.97123
5.0647
5.07118
5.06881
5.06373
5.05774
5.05324
5.04978
5.0476
5.04659
5.04707
5.04912
5.05325
5.05955
5.06794
5.07761
5.08722
5.09503
5.09887
5.10161
5.09798
5.16494
5.16182
5.15794
5.1634
5.17001
5.17348
5.17302
5.17121
5.1695
5.16909
5.16964
5.17155
5.17427
5.17735
5.17947
5.17924
5.17739
5.17616
5.17932
5.17852
5.28766
5.29574
5.29643
5.2962
5.29611
5.29516
5.29364
5.29188
5.29053
5.28991
5.29019
5.29056
5.2894
5.2847
5.27494
5.25984
5.24217
5.22935
5.2307
5.23227
5.39665
5.40885
5.40872
5.40508
5.40445
5.40704
5.41085
5.41334
5.41447
5.41472
5.41498
5.41444
5.41212
5.40576
5.3946
5.37908
5.36154
5.34763
5.34237
5.33364
5.50804
5.5105
5.51175
5.52441
5.53866
5.54844
5.55253
5.55263
5.55079
5.54839
5.54571
5.54267
5.53869
5.53395
5.5292
5.52605
5.5249
5.52261
5.51232
5.48657
5.69327
5.71236
5.7217
5.72301
5.71876
5.71184
5.70436
5.69741
5.69128
5.68622
5.682
5.67817
5.67422
5.67033
5.66754
5.66627
5.66534
5.66121
5.6538
5.63456
5.85193
5.87528
5.88052
5.86913
5.85256
5.83981
5.83185
5.82679
5.82329
5.82073
5.81951
5.81937
5.82034
5.82166
5.82305
5.8236
5.82257
5.81812
5.81428
5.80391
5.92669
5.92551
5.92184
5.92765
5.93584
5.94411
5.94975
5.95277
5.95421
5.95556
5.95754
5.96123
5.96714
5.97556
5.98611
5.9977
6.00836
6.01403
6.01382
6.00143
6.02952
6.02414
6.02414
6.04075
6.0608
6.07661
6.0861
6.09071
6.0927
6.09444
6.09693
6.10153
6.10846
6.11871
6.13177
6.1464
6.1598
6.16879
6.1747
6.16731
6.22121
6.23573
6.24179
6.24304
6.24185
6.2399
6.23845
6.23692
6.23516
6.23436
6.23494
6.23786
6.24272
6.24918
6.25549
6.26039
6.26373
6.26738
6.27654
6.27616
6.41995
6.44217
6.44332
6.42945
6.41087
6.39453
6.38296
6.37535
6.37065
6.36826
6.36817
6.36996
6.37228
6.37313
6.36992
6.36126
6.34963
6.34299
6.35068
6.35291
6.53462
6.54139
6.53559
6.52905
6.52021
6.51109
6.50336
6.49801
6.49503
6.4941
6.49509
6.49714
6.49887
6.49822
6.49361
6.48465
6.47329
6.46588
6.46708
6.45835
6.59399
6.58733
6.58054
6.59067
6.60484
6.61539
6.61973
6.62029
6.61929
6.61896
6.61918
6.62
6.62013
6.61961
6.61834
6.61812
6.62013
6.62244
6.61691
6.58927
6.68835
6.69401
6.6957
6.70872
6.72576
6.73964
6.74722
6.74984
6.74938
6.7483
6.74713
6.74598
6.74387
6.7402
6.73477
6.72935
6.72552
6.72123
6.71523
6.69265
6.83868
6.86216
6.86763
6.8692
6.87293
6.87851
6.88302
6.88492
6.88426
6.88217
6.88002
6.87782
6.8751
6.87043
6.86329
6.85395
6.84414
6.8333
6.8257
6.80963
7.01403
7.03931
7.04361
7.03927
7.03215
7.02764
7.02524
7.02343
7.0212
7.01861
7.01612
7.0138
7.01158
7.00938
7.00779
7.0068
7.00592
7.00132
6.99307
6.97207
7.17342
7.19372
7.19471
7.18699
7.17433
7.1645
7.15923
7.15696
7.15584
7.15499
7.15434
7.15419
7.15464
7.15614
7.15929
7.16445
7.1695
7.16915
7.16547
7.14687
7.28297
7.2847
7.27894
7.28327
7.28662
7.28911
7.29104
7.29242
7.29316
7.29394
7.29496
7.29711
7.30076
7.3063
7.31309
7.32012
7.32481
7.3243
7.32518
7.31241
7.41468
7.41672
7.41406
7.42517
7.43437
7.438
7.43781
7.43647
7.43525
7.4351
7.4365
7.44015
7.44593
7.45353
7.46135
7.4668
7.46679
7.46219
7.46529
7.45739
7.59304
7.61594
7.61756
7.61225
7.60273
7.59254
7.58437
7.57874
7.57526
7.5738
7.57446
7.57734
7.5823
7.58897
7.59659
7.60314
7.60487
7.60236
7.60643
7.59599
7.74007
7.76307
7.75822
7.74735
7.73585
7.72715
7.72095
7.71648
7.7132
7.71147
7.71105
7.71214
7.71368
7.71601
7.71918
7.72354
7.72898
7.73524
7.74289
7.72524
7.85533
7.86469
7.85944
7.86685
7.87157
7.87015
7.86438
7.85821
7.85357
7.8513
7.85124
7.85294
7.85543
7.85701
7.85554
7.85083
7.84496
7.84307
7.85193
7.83772
7.9988
8.02256
8.02323
8.02374
8.01943
8.01149
8.00276
7.99556
7.99077
7.98882
7.9897
7.99323
7.99856
8.00458
8.00881
8.00904
8.00591
8.00198
8.00277
7.97759
8.11386
8.14451
8.14387
8.14034
8.13529
8.13142
8.12837
8.12564
8.12372
8.12329
8.1248
8.12837
8.13389
8.14066
8.14776
8.15449
8.15981
8.15988
8.15729
8.1243
8.20568
8.22692
8.22715
8.24318
8.25732
8.26477
8.26576
8.26344
8.26089
8.2597
8.26032
8.26271
8.26593
8.2695
8.27279
8.27535
8.2775
8.27629
8.27576
8.24426
8.35782
8.39718
8.40496
8.41345
8.4163
8.41483
8.41043
8.40477
8.39996
8.39703
8.39673
8.39818
8.40073
8.40184
8.40008
8.3944
8.3854
8.37354
8.37185
8.34429
8.50523
8.55454
8.56044
8.55935
8.55304
8.54746
8.54257
8.53788
8.53379
8.53133
8.53101
8.53255
8.53468
8.53544
8.5335
8.52788
8.52013
8.50971
8.50499
8.46775
8.60932
8.64626
8.64839
8.66123
8.66917
8.67213
8.67111
8.66873
8.66634
8.66508
8.66525
8.66649
8.6682
8.66899
8.66824
8.66529
8.66007
8.65082
8.64611
8.60393
8.73279
8.77312
8.77641
8.78869
8.79774
8.80302
8.80422
8.80315
8.80141
8.80036
8.80042
8.80164
8.80326
8.80466
8.8056
8.80544
8.80406
8.79798
8.79483
8.75044
8.87459
8.91491
8.91563
8.92809
8.93825
8.94507
8.94673
8.94437
8.94073
8.93778
8.93622
8.93564
8.93572
8.93523
8.93452
8.93379
8.93284
8.92849
8.92943
8.88802
9.03883
9.08569
9.0844
9.08863
9.08966
9.0892
9.08709
9.08312
9.07873
9.07483
9.0723
9.07069
9.06915
9.06639
9.06185
9.05539
9.04833
9.04126
9.04675
9.011
9.17659
9.22416
9.21587
9.21165
9.20952
9.2114
9.21454
9.21599
9.21589
9.21482
9.21437
9.21409
9.21402
9.21251
9.20818
9.20001
9.18878
9.17878
9.18628
9.15343
9.2895
9.31919
9.30431
9.31448
9.3298
9.34436
9.35425
9.35942
9.36132
9.36217
9.3635
9.36601
9.36954
9.37402
9.37908
9.3835
9.38607
9.38618
9.39412
9.35412
9.47928
9.52215
9.51241
9.51102
9.51046
9.51149
9.51289
9.51378
9.51333
9.51293
9.5132
9.51516
9.5193
9.52665
9.53883
9.55777
9.58182
9.60215
9.61377
9.56263
9.6786
9.73323
9.72386
9.70558
9.68529
9.67141
9.6647
9.66166
9.65995
9.65866
9.65815
9.65908
9.66137
9.66563
9.67173
9.68069
9.69276
9.70587
9.72414
9.68899
9.81094
9.85055
9.83532
9.82263
9.81097
9.80415
9.80218
9.8024
9.80353
9.80423
9.80533
9.80676
9.80912
9.81119
9.81074
9.80577
9.79664
9.79224
9.8083
9.78729
9.94191
9.96727
9.95228
9.95058
9.95075
9.9515
9.95266
9.95433
9.95598
9.95774
9.95988
9.96309
9.96708
9.97131
9.97447
9.97533
9.97285
9.97165
9.97797
9.94345
10.1489
10.1868
10.1804
10.1707
10.1555
10.1396
10.1282
10.122
10.119
10.1185
10.1193
10.1219
10.1264
10.1333
10.143
10.1565
10.1712
10.1829
10.183
10.1315
10.3648
10.4171
10.417
10.3947
10.3606
10.3265
10.3021
10.2875
10.2803
10.2776
10.2777
10.2802
10.2846
10.2919
10.3026
10.3156
10.3271
10.3337
10.3321
10.2886
10.4891
10.5293
10.533
10.5263
10.5082
10.4829
10.4606
10.445
10.4369
10.4339
10.4349
10.4387
10.4454
10.4544
10.4646
10.4739
10.4779
10.4763
10.4698
10.4354
10.5491
10.5794
10.5968
10.6194
10.6321
10.6274
10.6143
10.6012
10.5925
10.5891
10.5898
10.5942
10.6015
10.6118
10.6236
10.6342
10.6386
10.6365
10.6236
10.5859
10.6197
10.6612
10.6963
10.7323
10.7604
10.7684
10.7638
10.7548
10.747
10.7433
10.7434
10.7468