/*--------------------------------*- C++ -*----------------------------------*\
  =========                 |
  \\      /  F ield         | OpenFOAM: The Open Source CFD Toolbox
   \\    /   O peration     | Website:  https://openfoam.org
    \\  /    A nd           | Version:  6
     \\/     M anipulation  |
\*---------------------------------------------------------------------------*/
FoamFile
{
    version     2.0;
    format      ascii;
    class       surfaceScalarField;
    location    "28";
    object      phi;
}
// * * * * * * * * * * * * * * * * * * * * * * * * * * * * * * * * * * * * * //

dimensions      [0 3 -1 0 0 0 0];

internalField   nonuniform List<scalar> 
19400
(
-1.70208e-10
-7.67546e-07
-3.34028e-10
-1.02897e-06
-4.88483e-10
-1.16024e-06
-5.23049e-10
-1.25193e-06
-4.78071e-10
-1.31629e-06
-4.30089e-10
-1.35984e-06
-4.10975e-10
-1.38795e-06
-4.04686e-10
-1.40518e-06
-3.93878e-10
-1.4148e-06
-3.61395e-10
-1.41884e-06
-3.02895e-10
-1.41827e-06
-2.06594e-10
-1.41314e-06
-7.97653e-11
-1.40254e-06
7.5362e-11
-1.38455e-06
2.19209e-10
-1.35602e-06
3.01788e-10
-1.31268e-06
2.5983e-10
-1.2492e-06
9.54873e-11
-1.15865e-06
-9.3059e-11
-1.02834e-06
-7.67744e-07
1.03617e-10
-7.67655e-07
2.59966e-11
-1.02891e-06
-3.28658e-11
-1.16019e-06
-1.07895e-10
-1.25186e-06
-1.74058e-10
-1.31622e-06
-2.45543e-10
-1.35977e-06
-3.10559e-10
-1.38788e-06
-3.65391e-10
-1.40512e-06
-4.10087e-10
-1.41475e-06
-4.38407e-10
-1.41881e-06
-4.4987e-10
-1.41826e-06
-4.41772e-10
-1.41314e-06
-4.10889e-10
-1.40257e-06
-3.62387e-10
-1.3846e-06
-3.07933e-10
-1.35608e-06
-2.55268e-10
-1.31274e-06
-2.07509e-10
-1.24925e-06
-1.695e-10
-1.15869e-06
-2.03857e-10
-1.0283e-06
-7.67947e-07
9.59404e-11
-7.67758e-07
5.6617e-11
-1.0289e-06
5.54029e-11
-1.16019e-06
1.91254e-11
-1.25184e-06
-3.87762e-11
-1.31616e-06
-1.31731e-10
-1.35968e-06
-2.23484e-10
-1.38779e-06
-3.132e-10
-1.40503e-06
-3.96388e-10
-1.41467e-06
-4.57475e-10
-1.41875e-06
-5.05955e-10
-1.41822e-06
-5.32896e-10
-1.41311e-06
-5.44704e-10
-1.40256e-06
-5.25595e-10
-1.38461e-06
-4.57865e-10
-1.35615e-06
-3.46987e-10
-1.31285e-06
-2.5094e-10
-1.24935e-06
-1.76248e-10
-1.15876e-06
-9.25833e-11
-1.02838e-06
-7.6804e-07
1.26635e-10
-7.67896e-07
1.52705e-10
-1.02894e-06
1.88261e-10
-1.16022e-06
1.69456e-10
-1.25183e-06
1.03574e-10
-1.31609e-06
-1.32934e-11
-1.35956e-06
-1.31726e-10
-1.38767e-06
-2.56621e-10
-1.40491e-06
-3.75687e-10
-1.41455e-06
-4.80224e-10
-1.41864e-06
-5.68103e-10
-1.41813e-06
-6.28856e-10
-1.41305e-06
-6.75465e-10
-1.40252e-06
-6.887e-10
-1.3846e-06
-6.36146e-10
-1.3562e-06
-5.12934e-10
-1.31298e-06
-3.87557e-10
-1.24947e-06
-2.82879e-10
-1.15887e-06
-1.52508e-10
-1.02851e-06
-7.68193e-07
2.17772e-11
-7.67928e-07
1.54304e-10
-1.02909e-06
2.24314e-10
-1.1603e-06
2.18834e-10
-1.25183e-06
1.58107e-10
-1.31603e-06
4.10518e-11
-1.35945e-06
-8.97254e-11
-1.38754e-06
-2.33083e-10
-1.40476e-06
-3.73269e-10
-1.41441e-06
-5.04927e-10
-1.41851e-06
-6.16482e-10
-1.41801e-06
-7.02722e-10
-1.41296e-06
-7.60511e-10
-1.40246e-06
-7.84019e-10
-1.38458e-06
-7.44258e-10
-1.35624e-06
-6.15654e-10
-1.31311e-06
-4.47072e-10
-1.24964e-06
-2.80053e-10
-1.15904e-06
-8.0608e-11
-1.02872e-06
-7.68274e-07
6.23581e-11
-7.67998e-07
2.13502e-10
-1.02926e-06
2.84821e-10
-1.16037e-06
2.58e-10
-1.25182e-06
1.77102e-10
-1.31595e-06
5.87493e-11
-1.35934e-06
-7.50886e-11
-1.3874e-06
-2.2848e-10
-1.40461e-06
-3.83383e-10
-1.41425e-06
-5.31403e-10
-1.41836e-06
-6.55347e-10
-1.41789e-06
-7.54481e-10
-1.41286e-06
-8.12512e-10
-1.4024e-06
-8.27062e-10
-1.38456e-06
-7.87763e-10
-1.35628e-06
-6.7131e-10
-1.31322e-06
-4.9052e-10
-1.24983e-06
-2.87715e-10
-1.15924e-06
-6.68529e-11
-1.02894e-06
-7.68342e-07
1.80765e-10
-7.68181e-07
2.73791e-10
-1.02936e-06
3.38856e-10
-1.16044e-06
3.1711e-10
-1.2518e-06
2.30207e-10
-1.31586e-06
1.15805e-10
-1.35923e-06
-2.58895e-11
-1.38726e-06
-1.96235e-10
-1.40444e-06
-3.67708e-10
-1.41407e-06
-5.29447e-10
-1.41819e-06
-6.65807e-10
-1.41775e-06
-7.724e-10
-1.41275e-06
-8.43709e-10
-1.40233e-06
-8.59503e-10
-1.38454e-06
-8.10531e-10
-1.35633e-06
-6.97787e-10
-1.31334e-06
-5.17584e-10
-1.25001e-06
-2.96238e-10
-1.15947e-06
-9.41124e-11
-1.02914e-06
-7.68436e-07
2.3148e-10
-7.6841e-07
3.10615e-10
-1.02944e-06
3.84956e-10
-1.16051e-06
3.84481e-10
-1.25181e-06
3.18125e-10
-1.3158e-06
2.08405e-10
-1.35912e-06
4.89751e-11
-1.3871e-06
-1.43554e-10
-1.40425e-06
-3.36029e-10
-1.41388e-06
-5.09825e-10
-1.41802e-06
-6.60976e-10
-1.4176e-06
-7.75299e-10
-1.41264e-06
-8.56031e-10
-1.40224e-06
-8.73826e-10
-1.38453e-06
-8.14132e-10
-1.35639e-06
-6.97674e-10
-1.31346e-06
-5.29781e-10
-1.25018e-06
-3.24006e-10
-1.15967e-06
-1.38422e-10
-1.02933e-06
-7.68573e-07
1.92576e-10
-7.68598e-07
3.36404e-10
-1.02958e-06
4.3859e-10
-1.16061e-06
4.73916e-10
-1.25184e-06
4.24977e-10
-1.31575e-06
2.99302e-10
-1.359e-06
1.16326e-10
-1.38692e-06
-1.01355e-10
-1.40403e-06
-3.18549e-10
-1.41367e-06
-5.13022e-10
-1.41782e-06
-6.83e-10
-1.41743e-06
-8.18268e-10
-1.4125e-06
-9.1101e-10
-1.40215e-06
-9.38014e-10
-1.3845e-06
-8.86378e-10
-1.35645e-06
-7.64759e-10
-1.31358e-06
-5.81926e-10
-1.25036e-06
-3.63338e-10
-1.15989e-06
-2.08093e-10
-1.02948e-06
-7.68781e-07
1.28974e-10
-7.6872e-07
3.33636e-10
-1.02977e-06
4.68204e-10
-1.16074e-06
5.34563e-10
-1.25191e-06
4.95358e-10
-1.31571e-06
3.5772e-10
-1.35886e-06
1.57043e-10
-1.38672e-06
-7.67345e-11
-1.4038e-06
-3.10919e-10
-1.41343e-06
-5.30435e-10
-1.41761e-06
-7.2177e-10
-1.41724e-06
-8.85968e-10
-1.41233e-06
-1.00329e-09
-1.40203e-06
-1.0501e-09
-1.38445e-06
-1.00777e-09
-1.35649e-06
-8.69772e-10
-1.31372e-06
-6.34873e-10
-1.25059e-06
-3.55821e-10
-1.16016e-06
-1.63844e-10
-1.02967e-06
-7.68943e-07
1.31523e-10
-7.68845e-07
3.55173e-10
-1.02999e-06
5.25169e-10
-1.16091e-06
6.17874e-10
-1.25199e-06
5.85488e-10
-1.31567e-06
4.33573e-10
-1.35871e-06
2.09781e-10
-1.38649e-06
-4.08464e-11
-1.40355e-06
-2.92001e-10
-1.41318e-06
-5.28892e-10
-1.41737e-06
-7.3949e-10
-1.41702e-06
-9.19352e-10
-1.41216e-06
-1.05296e-09
-1.4019e-06
-1.11621e-09
-1.38439e-06
-1.0724e-09
-1.35653e-06
-9.198e-10
-1.31387e-06
-6.52733e-10
-1.25086e-06
-3.43266e-10
-1.16046e-06
-6.52057e-11
-1.02994e-06
-7.69007e-07
1.40346e-10
-7.68979e-07
3.86768e-10
-1.03022e-06
5.71223e-10
-1.16109e-06
6.87945e-10
-1.2521e-06
6.6066e-10
-1.31565e-06
5.00696e-10
-1.35855e-06
2.6965e-10
-1.38626e-06
6.19084e-12
-1.40329e-06
-2.60366e-10
-1.41291e-06
-5.1487e-10
-1.41711e-06
-7.4594e-10
-1.41679e-06
-9.43465e-10
-1.41196e-06
-1.08902e-09
-1.40175e-06
-1.16185e-09
-1.38432e-06
-1.12314e-09
-1.35657e-06
-9.56121e-10
-1.31403e-06
-6.75731e-10
-1.25113e-06
-3.62353e-10
-1.16077e-06
-6.47583e-11
-1.03023e-06
-7.69071e-07
1.54707e-10
-7.69131e-07
3.99813e-10
-1.03046e-06
6.21136e-10
-1.16131e-06
7.586e-10
-1.25224e-06
7.45517e-10
-1.31563e-06
5.9657e-10
-1.35839e-06
3.57783e-10
-1.38602e-06
7.5833e-11
-1.403e-06
-2.15031e-10
-1.41262e-06
-4.94095e-10
-1.41683e-06
-7.50316e-10
-1.41653e-06
-9.75966e-10
-1.41173e-06
-1.14041e-09
-1.40158e-06
-1.21821e-09
-1.38424e-06
-1.18569e-09
-1.35659e-06
-1.00919e-09
-1.3142e-06
-7.04944e-10
-1.25143e-06
-3.76922e-10
-1.1611e-06
-8.49852e-11
-1.03052e-06
-7.69156e-07
1.46577e-10
-7.69277e-07
4.28417e-10
-1.03074e-06
6.94201e-10
-1.16158e-06
8.47592e-10
-1.25238e-06
8.44432e-10
-1.31563e-06
6.9999e-10
-1.35824e-06
4.44441e-10
-1.38576e-06
1.40839e-10
-1.40269e-06
-1.74279e-10
-1.4123e-06
-4.79122e-10
-1.41653e-06
-7.60868e-10
-1.41625e-06
-1.00966e-09
-1.41148e-06
-1.19201e-09
-1.4014e-06
-1.27802e-09
-1.38415e-06
-1.24003e-09
-1.35663e-06
-1.06235e-09
-1.31438e-06
-7.51147e-10
-1.25174e-06
-3.95497e-10
-1.16145e-06
-9.613e-11
-1.03082e-06
-7.69252e-07
1.82815e-10
-7.69457e-07
4.94602e-10
-1.03105e-06
7.56141e-10
-1.16184e-06
8.96156e-10
-1.25252e-06
8.95444e-10
-1.31562e-06
7.55215e-10
-1.3581e-06
5.02732e-10
-1.38551e-06
1.91032e-10
-1.40238e-06
-1.3795e-10
-1.41197e-06
-4.64323e-10
-1.4162e-06
-7.69875e-10
-1.41594e-06
-1.0411e-09
-1.41121e-06
-1.24495e-09
-1.40119e-06
-1.34728e-09
-1.38404e-06
-1.32322e-09
-1.35665e-06
-1.14821e-09
-1.31455e-06
-8.17097e-10
-1.25207e-06
-4.31253e-10
-1.16184e-06
-1.17009e-10
-1.03113e-06
-7.69368e-07
2.52664e-10
-7.69703e-07
5.55087e-10
-1.03135e-06
8.5251e-10
-1.16213e-06
1.01472e-09
-1.25268e-06
1.014e-09
-1.31562e-06
8.57256e-10
-1.35794e-06
5.89836e-10
-1.38523e-06
2.63552e-10
-1.40205e-06
-8.21512e-11
-1.41161e-06
-4.25823e-10
-1.41585e-06
-7.52753e-10
-1.4156e-06
-1.04419e-09
-1.41091e-06
-1.26522e-09
-1.40096e-06
-1.38199e-09
-1.38392e-06
-1.37504e-09
-1.35665e-06
-1.20248e-09
-1.31472e-06
-8.6448e-10
-1.25241e-06
-4.6194e-10
-1.16224e-06
-9.51993e-11
-1.03149e-06
-7.69461e-07
2.43296e-10
-7.69934e-07
5.93874e-10
-1.0317e-06
9.20272e-10
-1.16244e-06
1.11226e-09
-1.25287e-06
1.12843e-09
-1.31562e-06
9.58565e-10
-1.35776e-06
6.75388e-10
-1.38494e-06
3.3576e-10
-1.4017e-06
-3.22508e-11
-1.41124e-06
-3.96752e-10
-1.41547e-06
-7.48955e-10
-1.41525e-06
-1.05062e-09
-1.4106e-06
-1.27531e-09
-1.40073e-06
-1.39303e-09
-1.3838e-06
-1.38244e-09
-1.35666e-06
-1.21339e-09
-1.31489e-06
-8.99701e-10
-1.25271e-06
-5.27966e-10
-1.1626e-06
-1.66012e-10
-1.03184e-06
-7.69624e-07
2.97111e-10
-7.70218e-07
6.75575e-10
-1.03208e-06
1.02893e-09
-1.16279e-06
1.2387e-09
-1.25308e-06
1.2646e-09
-1.31564e-06
1.08595e-09
-1.35758e-06
7.84279e-10
-1.38463e-06
4.14798e-10
-1.40132e-06
1.00463e-11
-1.41083e-06
-3.96719e-10
-1.41506e-06
-7.84151e-10
-1.41486e-06
-1.116e-09
-1.41026e-06
-1.3695e-09
-1.40048e-06
-1.51495e-09
-1.38365e-06
-1.52157e-09
-1.35665e-06
-1.34504e-09
-1.31506e-06
-1.01242e-09
-1.25304e-06
-6.21091e-10
-1.16298e-06
-3.05241e-10
-1.03215e-06
-7.69927e-07
3.12573e-10
-7.70519e-07
7.54435e-10
-1.03251e-06
1.15898e-09
-1.16318e-06
1.39263e-09
-1.25331e-06
1.42333e-09
-1.31567e-06
1.24205e-09
-1.3574e-06
9.19841e-10
-1.38431e-06
5.15305e-10
-1.40092e-06
6.97474e-11
-1.41038e-06
-3.82133e-10
-1.4146e-06
-8.0847e-10
-1.41442e-06
-1.18707e-09
-1.40988e-06
-1.49032e-09
-1.40017e-06
-1.67729e-09
-1.38346e-06
-1.693e-09
-1.35663e-06
-1.50018e-09
-1.31525e-06
-1.12594e-09
-1.2534e-06
-6.65829e-10
-1.16343e-06
-2.54088e-10
-1.03255e-06
-7.70179e-07
2.64925e-10
-7.70776e-07
8.10526e-10
-1.03304e-06
1.27946e-09
-1.16365e-06
1.55307e-09
-1.25358e-06
1.58591e-09
-1.3157e-06
1.40555e-09
-1.35722e-06
1.06377e-09
-1.38396e-06
6.29252e-10
-1.40048e-06
1.45112e-10
-1.40989e-06
-3.47996e-10
-1.41411e-06
-8.10962e-10
-1.41396e-06
-1.22377e-09
-1.40946e-06
-1.55733e-09
-1.39983e-06
-1.76616e-09
-1.38325e-06
-1.77833e-09
-1.35661e-06
-1.586e-09
-1.31543e-06
-1.20352e-09
-1.25378e-06
-7.05953e-10
-1.16392e-06
-1.67295e-10
-1.03308e-06
-7.70346e-07
2.53175e-10
-7.71021e-07
8.64834e-10
-1.03364e-06
1.36615e-09
-1.16415e-06
1.6709e-09
-1.25388e-06
1.7114e-09
-1.31574e-06
1.53789e-09
-1.35704e-06
1.18356e-09
-1.38361e-06
7.20551e-10
-1.40001e-06
2.08265e-10
-1.40938e-06
-3.19369e-10
-1.41357e-06
-8.1649e-10
-1.41345e-06
-1.25588e-09
-1.40902e-06
-1.6088e-09
-1.39947e-06
-1.83008e-09
-1.38302e-06
-1.8489e-09
-1.35658e-06
-1.65441e-09
-1.31562e-06
-1.27132e-09
-1.25416e-06
-7.59884e-10
-1.16443e-06
-1.95853e-10
-1.03364e-06
-7.70542e-07
3.24914e-10
-7.71337e-07
9.41123e-10
-1.03425e-06
1.46027e-09
-1.16466e-06
1.78671e-09
-1.2542e-06
1.8406e-09
-1.31579e-06
1.66058e-09
-1.35686e-06
1.29106e-09
-1.38323e-06
8.00299e-10
-1.39952e-06
2.60018e-10
-1.40883e-06
-3.01078e-10
-1.41301e-06
-8.3418e-10
-1.41291e-06
-1.30651e-09
-1.40854e-06
-1.68425e-09
-1.39908e-06
-1.9311e-09
-1.38277e-06
-1.98003e-09
-1.35653e-06
-1.7832e-09
-1.31581e-06
-1.37779e-09
-1.25456e-06
-8.29159e-10
-1.16497e-06
-2.60448e-10
-1.03421e-06
-7.70801e-07
3.97335e-10
-7.71723e-07
1.02415e-09
-1.03486e-06
1.58127e-09
-1.16521e-06
1.93639e-09
-1.25455e-06
1.99551e-09
-1.31584e-06
1.7937e-09
-1.35665e-06
1.40129e-09
-1.38283e-06
8.91466e-10
-1.399e-06
3.2172e-10
-1.40825e-06
-2.67761e-10
-1.41242e-06
-8.33716e-10
-1.41234e-06
-1.33683e-09
-1.40803e-06
-1.73632e-09
-1.39868e-06
-2.00413e-09
-1.3825e-06
-2.08452e-09
-1.35644e-06
-1.90782e-09
-1.31598e-06
-1.49487e-09
-1.25497e-06
-9.10823e-10
-1.16556e-06
-2.82275e-10
-1.03483e-06
-7.71082e-07
4.38665e-10
-7.7215e-07
1.09227e-09
-1.03551e-06
1.67768e-09
-1.16579e-06
2.05253e-09
-1.25491e-06
2.13038e-09
-1.31591e-06
1.92546e-09
-1.35643e-06
1.52136e-09
-1.38242e-06
9.95398e-10
-1.39847e-06
3.97605e-10
-1.40765e-06
-2.20405e-10
-1.41179e-06
-8.1941e-10
-1.41174e-06
-1.35e-09
-1.40749e-06
-1.77177e-09
-1.39825e-06
-2.04469e-09
-1.38222e-06
-2.13464e-09
-1.35635e-06
-1.98347e-09
-1.31613e-06
-1.5807e-09
-1.25537e-06
-9.89562e-10
-1.16614e-06
-3.38151e-10
-1.03547e-06
-7.71418e-07
4.85856e-10
-7.72625e-07
1.1569e-09
-1.03617e-06
1.79101e-09
-1.16641e-06
2.19974e-09
-1.25532e-06
2.29844e-09
-1.316e-06
2.08911e-09
-1.35622e-06
1.66858e-09
-1.382e-06
1.11412e-09
-1.39791e-06
4.78266e-10
-1.40701e-06
-1.79167e-10
-1.41112e-06
-8.20225e-10
-1.41109e-06
-1.38502e-09
-1.40692e-06
-1.83737e-09
-1.39779e-06
-2.13734e-09
-1.38191e-06
-2.24737e-09
-1.35623e-06
-2.10224e-09
-1.31627e-06
-1.68596e-09
-1.25578e-06
-1.0753e-09
-1.16674e-06
-4.40054e-10
-1.0361e-06
-7.71856e-07
5.04865e-10
-7.73121e-07
1.22515e-09
-1.03689e-06
1.90709e-09
-1.16709e-06
2.35331e-09
-1.25576e-06
2.46324e-09
-1.3161e-06
2.25185e-09
-1.356e-06
1.81634e-09
-1.38155e-06
1.23112e-09
-1.39732e-06
5.54483e-10
-1.40633e-06
-1.48202e-10
-1.41041e-06
-8.36127e-10
-1.4104e-06
-1.44527e-09
-1.4063e-06
-1.93821e-09
-1.3973e-06
-2.27407e-09
-1.38157e-06
-2.39852e-09
-1.3561e-06
-2.24793e-09
-1.31642e-06
-1.80851e-09
-1.25621e-06
-1.16332e-09
-1.16738e-06
-4.97982e-10
-1.03675e-06
-7.72352e-07
5.03169e-10
-7.73615e-07
1.28451e-09
-1.03766e-06
2.00953e-09
-1.1678e-06
2.49048e-09
-1.25624e-06
2.61734e-09
-1.31622e-06
2.41234e-09
-1.35579e-06
1.96153e-09
-1.3811e-06
1.34129e-09
-1.39669e-06
6.24693e-10
-1.40561e-06
-1.22893e-10
-1.40966e-06
-8.54444e-10
-1.40966e-06
-1.52045e-09
-1.40563e-06
-2.06745e-09
-1.39675e-06
-2.43779e-09
-1.38119e-06
-2.56757e-09
-1.35597e-06
-2.40709e-09
-1.31657e-06
-1.93519e-09
-1.25667e-06
-1.23828e-09
-1.16807e-06
-5.04238e-10
-1.03748e-06
-7.72855e-07
5.14619e-10
-7.74121e-07
1.34362e-09
-1.03848e-06
2.09173e-09
-1.16854e-06
2.58857e-09
-1.25673e-06
2.73821e-09
-1.31637e-06
2.54459e-09
-1.35559e-06
2.08635e-09
-1.38063e-06
1.43864e-09
-1.39604e-06
6.86442e-10
-1.40485e-06
-1.04261e-10
-1.40886e-06
-8.77863e-10
-1.40888e-06
-1.59451e-09
-1.40491e-06
-2.18937e-09
-1.39614e-06
-2.58996e-09
-1.38079e-06
-2.72588e-09
-1.35582e-06
-2.54948e-09
-1.31674e-06
-2.04377e-09
-1.25717e-06
-1.29671e-09
-1.16881e-06
-4.66511e-10
-1.03831e-06
-7.73321e-07
5.6244e-10
-7.74673e-07
1.40753e-09
-1.03932e-06
2.19267e-09
-1.16932e-06
2.71477e-09
-1.25724e-06
2.87609e-09
-1.31652e-06
2.68343e-09
-1.35539e-06
2.20941e-09
-1.38015e-06
1.5374e-09
-1.39536e-06
7.50636e-10
-1.40405e-06
-8.08368e-11
-1.40802e-06
-8.9501e-10
-1.40806e-06
-1.645e-09
-1.40416e-06
-2.26932e-09
-1.39551e-06
-2.69142e-09
-1.38036e-06
-2.83283e-09
-1.35568e-06
-2.64511e-09
-1.31692e-06
-2.12492e-09
-1.25769e-06
-1.35116e-09
-1.16958e-06
-4.65182e-10
-1.03919e-06
-7.73786e-07
5.95005e-10
-7.75259e-07
1.47935e-09
-1.0402e-06
2.29371e-09
-1.17013e-06
2.84145e-09
-1.25779e-06
3.01803e-09
-1.31669e-06
2.83246e-09
-1.3552e-06
2.34768e-09
-1.37966e-06
1.65311e-09
-1.39466e-06
8.3696e-10
-1.40323e-06
-3.06036e-11
-1.40715e-06
-8.84217e-10
-1.4072e-06
-1.66902e-09
-1.40337e-06
-2.31968e-09
-1.39486e-06
-2.76316e-09
-1.37991e-06
-2.92044e-09
-1.35551e-06
-2.73857e-09
-1.31709e-06
-2.21094e-09
-1.25821e-06
-1.40937e-09
-1.17038e-06
-5.20459e-10
-1.04007e-06
-7.74305e-07
6.01873e-10
-7.75855e-07
1.5221e-09
-1.04111e-06
2.3813e-09
-1.17098e-06
2.97113e-09
-1.25837e-06
3.17246e-09
-1.31689e-06
2.99746e-09
-1.35502e-06
2.50051e-09
-1.37916e-06
1.77912e-09
-1.39393e-06
9.28181e-10
-1.40237e-06
2.5856e-11
-1.40624e-06
-8.71155e-10
-1.4063e-06
-1.69079e-09
-1.40254e-06
-2.36538e-09
-1.39418e-06
-2.82043e-09
-1.37945e-06
-2.98688e-09
-1.35534e-06
-2.81215e-09
-1.31726e-06
-2.28617e-09
-1.25874e-06
-1.48328e-09
-1.17118e-06
-5.94137e-10
-1.04096e-06
-7.74898e-07
5.57885e-10
-7.76407e-07
1.5427e-09
-1.04209e-06
2.44876e-09
-1.17189e-06
3.0664e-09
-1.25898e-06
3.27904e-09
-1.3171e-06
3.09881e-09
-1.35484e-06
2.58887e-09
-1.37864e-06
1.84582e-09
-1.39318e-06
9.62305e-10
-1.40149e-06
2.26676e-11
-1.40529e-06
-9.14223e-10
-1.40536e-06
-1.76811e-09
-1.40168e-06
-2.47496e-09
-1.39346e-06
-2.94896e-09
-1.37897e-06
-3.12106e-09
-1.35517e-06
-2.94181e-09
-1.31744e-06
-2.39624e-09
-1.25928e-06
-1.58009e-09
-1.17199e-06
-7.05596e-10
-1.04183e-06
-7.75602e-07
6.40445e-10
-7.77036e-07
1.6286e-09
-1.04308e-06
2.51338e-09
-1.17276e-06
3.10279e-09
-1.25957e-06
3.31025e-09
-1.3173e-06
3.12864e-09
-1.35465e-06
2.62314e-09
-1.37813e-06
1.87427e-09
-1.39242e-06
9.71049e-10
-1.40058e-06
-2.86002e-13
-1.40431e-06
-9.68344e-10
-1.40438e-06
-1.86145e-09
-1.40078e-06
-2.60676e-09
-1.39271e-06
-3.11237e-09
-1.37846e-06
-3.29467e-09
-1.35498e-06
-3.09892e-09
-1.31763e-06
-2.51265e-09
-1.25986e-06
-1.64633e-09
-1.17285e-06
-7.18166e-10
-1.04275e-06
-7.76319e-07
7.87011e-10
-7.77808e-07
1.72489e-09
-1.04401e-06
2.63293e-09
-1.17366e-06
3.24471e-09
-1.26018e-06
3.45857e-09
-1.3175e-06
3.26755e-09
-1.35445e-06
2.74122e-09
-1.3776e-06
1.96786e-09
-1.39164e-06
1.03517e-09
-1.39964e-06
3.17474e-11
-1.4033e-06
-9.70842e-10
-1.40338e-06
-1.89911e-09
-1.39984e-06
-2.67465e-09
-1.39194e-06
-3.20553e-09
-1.37792e-06
-3.39977e-09
-1.35478e-06
-3.19561e-09
-1.31783e-06
-2.59428e-09
-1.26046e-06
-1.69626e-09
-1.17374e-06
-6.69034e-10
-1.04377e-06
-7.76988e-07
7.47679e-10
-7.78545e-07
1.7792e-09
-1.04503e-06
2.75221e-09
-1.17462e-06
3.4185e-09
-1.26084e-06
3.65801e-09
-1.31774e-06
3.45915e-09
-1.35425e-06
2.90193e-09
-1.37704e-06
2.09079e-09
-1.39083e-06
1.1206e-09
-1.39866e-06
8.24003e-11
-1.40226e-06
-9.56407e-10
-1.40233e-06
-1.91851e-09
-1.39887e-06
-2.72629e-09
-1.39113e-06
-3.28141e-09
-1.37737e-06
-3.49169e-09
-1.35457e-06
-3.28828e-09
-1.31804e-06
-2.67709e-09
-1.26107e-06
-1.75451e-09
-1.17466e-06
-6.98786e-10
-1.04483e-06
-7.77686e-07
6.87755e-10
-7.79227e-07
1.84656e-09
-1.04618e-06
2.85634e-09
-1.17563e-06
3.5382e-09
-1.26152e-06
3.78394e-09
-1.31798e-06
3.57818e-09
-1.35404e-06
3.00457e-09
-1.37646e-06
2.16861e-09
-1.38999e-06
1.1716e-09
-1.39766e-06
1.01624e-10
-1.40118e-06
-9.69771e-10
-1.40126e-06
-1.96611e-09
-1.39787e-06
-2.80764e-09
-1.39028e-06
-3.39099e-09
-1.37678e-06
-3.61654e-09
-1.35434e-06
-3.40845e-09
-1.31824e-06
-2.76855e-09
-1.2617e-06
-1.80328e-09
-1.17563e-06
-7.33448e-10
-1.04589e-06
-7.78418e-07
7.3319e-10
-7.79957e-07
1.90823e-09
-1.04735e-06
2.92843e-09
-1.17665e-06
3.6148e-09
-1.2622e-06
3.85807e-09
-1.31822e-06
3.64749e-09
-1.35383e-06
3.06236e-09
-1.37587e-06
2.21299e-09
-1.38913e-06
1.19807e-09
-1.39665e-06
1.06469e-10
-1.40009e-06
-9.90459e-10
-1.40016e-06
-2.01368e-09
-1.39685e-06
-2.88123e-09
-1.38941e-06
-3.48791e-09
-1.37617e-06
-3.72447e-09
-1.3541e-06
-3.51456e-09
-1.31845e-06
-2.85556e-09
-1.26236e-06
-1.86003e-09
-1.17662e-06
-7.40955e-10
-1.047e-06
-7.79158e-07
8.11468e-10
-7.80763e-07
1.96203e-09
-1.04849e-06
2.99951e-09
-1.17768e-06
3.69826e-09
-1.26289e-06
3.9365e-09
-1.31846e-06
3.71728e-09
-1.3536e-06
3.11259e-09
-1.37527e-06
2.24392e-09
-1.38826e-06
1.21081e-09
-1.39561e-06
1.00443e-10
-1.39897e-06
-1.01753e-09
-1.39904e-06
-2.0628e-09
-1.39579e-06
-2.95219e-09
-1.38852e-06
-3.57794e-09
-1.37554e-06
-3.82704e-09
-1.35385e-06
-3.62229e-09
-1.31865e-06
-2.95738e-09
-1.26302e-06
-1.94382e-09
-1.17762e-06
-7.97788e-10
-1.04814e-06
-7.79955e-07
8.98408e-10
-7.81652e-07
2.05e-09
-1.04964e-06
3.09387e-09
-1.17872e-06
3.79066e-09
-1.26359e-06
4.0212e-09
-1.31868e-06
3.78771e-09
-1.35337e-06
3.1649e-09
-1.37464e-06
2.27259e-09
-1.38736e-06
1.21649e-09
-1.39455e-06
8.08845e-11
-1.39783e-06
-1.06288e-09
-1.39789e-06
-2.13749e-09
-1.39472e-06
-3.05382e-09
-1.3876e-06
-3.70174e-09
-1.37489e-06
-3.967e-09
-1.35358e-06
-3.7655e-09
-1.31885e-06
-3.08964e-09
-1.26369e-06
-2.05406e-09
-1.17866e-06
-8.86429e-10
-1.04931e-06
-7.80841e-07
9.62181e-10
-7.82604e-07
2.1378e-09
-1.05081e-06
3.22049e-09
-1.17979e-06
3.94185e-09
-1.26431e-06
4.17316e-09
-1.31891e-06
3.91888e-09
-1.35311e-06
3.26861e-09
-1.37399e-06
2.34148e-09
-1.38643e-06
1.24941e-09
-1.39346e-06
7.39051e-11
-1.39666e-06
-1.10943e-09
-1.39671e-06
-2.22643e-09
-1.3936e-06
-3.18466e-09
-1.38664e-06
-3.86927e-09
-1.3742e-06
-4.15914e-09
-1.35329e-06
-3.95644e-09
-1.31904e-06
-3.25002e-09
-1.26439e-06
-2.15914e-09
-1.17975e-06
-9.29189e-10
-1.05054e-06
-7.81771e-07
9.16341e-10
-7.83515e-07
2.20241e-09
-1.05209e-06
3.35795e-09
-1.18095e-06
4.11774e-09
-1.26506e-06
4.34685e-09
-1.31913e-06
4.06715e-09
-1.35283e-06
3.38582e-09
-1.3733e-06
2.42842e-09
-1.38547e-06
1.30404e-09
-1.39233e-06
9.40724e-11
-1.39544e-06
-1.12307e-09
-1.39548e-06
-2.27751e-09
-1.39244e-06
-3.2724e-09
-1.38564e-06
-3.99599e-09
-1.37347e-06
-4.31517e-09
-1.35297e-06
-4.11688e-09
-1.31924e-06
-3.37939e-09
-1.26513e-06
-2.21534e-09
-1.18091e-06
-8.69904e-10
-1.05188e-06
-7.8264e-07
8.85011e-10
-7.84397e-07
2.26799e-09
-1.05347e-06
3.45135e-09
-1.18213e-06
4.21518e-09
-1.26582e-06
4.43899e-09
-1.31935e-06
4.15056e-09
-1.35253e-06
3.4591e-09
-1.37261e-06
2.49135e-09
-1.3845e-06
1.34942e-09
-1.39118e-06
1.22956e-10
-1.39421e-06
-1.11283e-09
-1.39425e-06
-2.27793e-09
-1.39128e-06
-3.28216e-09
-1.38463e-06
-4.01394e-09
-1.37274e-06
-4.34153e-09
-1.35264e-06
-4.15753e-09
-1.31942e-06
-3.43452e-09
-1.26585e-06
-2.27102e-09
-1.18207e-06
-8.74512e-10
-1.05328e-06
-7.83514e-07
9.31751e-10
-7.85327e-07
2.32408e-09
-1.05485e-06
3.54545e-09
-1.18335e-06
4.32122e-09
-1.26659e-06
4.53086e-09
-1.31956e-06
4.22294e-09
-1.35222e-06
3.51469e-09
-1.3719e-06
2.52953e-09
-1.38351e-06
1.3689e-09
-1.39002e-06
1.22999e-10
-1.39296e-06
-1.13386e-09
-1.39299e-06
-2.31439e-09
-1.39009e-06
-3.33488e-09
-1.38361e-06
-4.07609e-09
-1.372e-06
-4.41666e-09
-1.35229e-06
-4.24549e-09
-1.31959e-06
-3.52727e-09
-1.26657e-06
-2.37066e-09
-1.18323e-06
-1.0508e-09
-1.05459e-06
-7.84563e-07
9.88633e-10
-7.86312e-07
2.39832e-09
-1.05626e-06
3.63061e-09
-1.18457e-06
4.39957e-09
-1.26735e-06
4.59545e-09
-1.31975e-06
4.26954e-09
-1.3519e-06
3.54706e-09
-1.37117e-06
2.54385e-09
-1.38251e-06
1.36161e-09
-1.38884e-06
8.78851e-11
-1.39169e-06
-1.19868e-09
-1.3917e-06
-2.41194e-09
-1.38887e-06
-3.46535e-09
-1.38255e-06
-4.23689e-09
-1.37122e-06
-4.59832e-09
-1.35193e-06
-4.42895e-09
-1.31976e-06
-3.68075e-09
-1.26731e-06
-2.4846e-09
-1.18442e-06
-1.16767e-09
-1.05591e-06
-7.8573e-07
1.09747e-09
-7.87405e-07
2.50735e-09
-1.05767e-06
3.7536e-09
-1.18582e-06
4.52127e-09
-1.26812e-06
4.70451e-09
-1.31993e-06
4.35885e-09
-1.35155e-06
3.61287e-09
-1.37042e-06
2.58285e-09
-1.38148e-06
1.36786e-09
-1.38762e-06
5.7218e-11
-1.39038e-06
-1.2677e-09
-1.39038e-06
-2.52312e-09
-1.38762e-06
-3.61382e-09
-1.38146e-06
-4.41984e-09
-1.37041e-06
-4.7989e-09
-1.35155e-06
-4.62354e-09
-1.31993e-06
-3.83857e-09
-1.2681e-06
-2.57826e-09
-1.18567e-06
-1.14873e-09
-1.05733e-06
-7.86878e-07
1.14259e-09
-7.88542e-07
2.61324e-09
-1.05913e-06
3.90947e-09
-1.18711e-06
4.69912e-09
-1.26891e-06
4.87605e-09
-1.32011e-06
4.50499e-09
-1.35117e-06
3.72538e-09
-1.36964e-06
2.65851e-09
-1.38041e-06
1.40299e-09
-1.38637e-06
5.0338e-11
-1.38902e-06
-1.31491e-09
-1.38901e-06
-2.6098e-09
-1.38632e-06
-3.73384e-09
-1.38034e-06
-4.56852e-09
-1.36958e-06
-4.96422e-09
-1.35115e-06
-4.78417e-09
-1.32011e-06
-3.97364e-09
-1.2689e-06
-2.65464e-09
-1.18699e-06
-1.10796e-09
-1.05887e-06
-7.87986e-07
1.11648e-09
-7.89655e-07
2.68877e-09
-1.0607e-06
4.03536e-09
-1.18845e-06
4.84761e-09
-1.26971e-06
5.02976e-09
-1.32029e-06
4.64374e-09
-1.35079e-06
3.83599e-09
-1.36884e-06
2.73386e-09
-1.37931e-06
1.44029e-09
-1.38507e-06
4.89787e-11
-1.38763e-06
-1.35106e-09
-1.38761e-06
-2.67624e-09
-1.385e-06
-3.8235e-09
-1.37919e-06
-4.67899e-09
-1.36872e-06
-5.09286e-09
-1.35074e-06
-4.91701e-09
-1.32029e-06
-4.0918e-09
-1.26973e-06
-2.73091e-09
-1.18835e-06
-1.12633e-09
-1.06048e-06
-7.89111e-07
1.13588e-09
-7.90787e-07
2.77162e-09
-1.06233e-06
4.16552e-09
-1.18984e-06
4.99183e-09
-1.27054e-06
5.16097e-09
-1.32046e-06
4.75553e-09
-1.35038e-06
3.91849e-09
-1.368e-06
2.7836e-09
-1.37817e-06
1.45987e-09
-1.38375e-06
3.71132e-11
-1.38621e-06
-1.39104e-09
-1.38618e-06
-2.74192e-09
-1.38365e-06
-3.91218e-09
-1.37802e-06
-4.7886e-09
-1.36785e-06
-5.22289e-09
-1.3503e-06
-5.05313e-09
-1.32045e-06
-4.20238e-09
-1.27058e-06
-2.7911e-09
-1.18976e-06
-1.15993e-09
-1.0621e-06
-7.90269e-07
1.23643e-09
-7.92019e-07
2.90035e-09
-1.06399e-06
4.31203e-09
-1.19125e-06
5.13356e-09
-1.27135e-06
5.27901e-09
-1.3206e-06
4.8482e-09
-1.34995e-06
3.98414e-09
-1.36713e-06
2.82251e-09
-1.37701e-06
1.47121e-09
-1.38239e-06
2.32217e-11
-1.38476e-06
-1.43141e-09
-1.38472e-06
-2.80326e-09
-1.38227e-06
-3.99278e-09
-1.37683e-06
-4.88589e-09
-1.36695e-06
-5.33575e-09
-1.34985e-06
-5.17598e-09
-1.32061e-06
-4.31402e-09
-1.27143e-06
-2.87732e-09
-1.19118e-06
-1.21799e-09
-1.06375e-06
-7.91485e-07
1.31346e-09
-7.93327e-07
2.99878e-09
-1.06567e-06
4.46769e-09
-1.19272e-06
5.3343e-09
-1.27222e-06
5.48311e-09
-1.32075e-06
5.0242e-09
-1.34949e-06
4.11266e-09
-1.36622e-06
2.90074e-09
-1.3758e-06
1.50115e-09
-1.38099e-06
8.619e-12
-1.38327e-06
-1.48856e-09
-1.38322e-06
-2.89856e-09
-1.38086e-06
-4.1224e-09
-1.3756e-06
-5.04749e-09
-1.36602e-06
-5.52008e-09
-1.34937e-06
-5.36421e-09
-1.32076e-06
-4.48017e-09
-1.27231e-06
-3.00615e-09
-1.19265e-06
-1.33077e-09
-1.06542e-06
-7.92815e-07
1.2706e-09
-7.94592e-07
3.05634e-09
-1.06745e-06
4.61092e-09
-1.19427e-06
5.54701e-09
-1.27315e-06
5.71518e-09
-1.32091e-06
5.23247e-09
-1.349e-06
4.26734e-09
-1.36525e-06
2.98867e-09
-1.37452e-06
1.52833e-09
-1.37953e-06
-2.47406e-11
-1.38172e-06
-1.57686e-09
-1.38167e-06
-3.04444e-09
-1.37939e-06
-4.32059e-09
-1.37432e-06
-5.29478e-09
-1.36505e-06
-5.79501e-09
-1.34887e-06
-5.62407e-09
-1.32093e-06
-4.68813e-09
-1.27324e-06
-3.12515e-09
-1.19421e-06
-1.34863e-09
-1.06719e-06
-7.94163e-07
1.26788e-09
-7.95856e-07
3.15584e-09
-1.06933e-06
4.75621e-09
-1.19587e-06
5.71055e-09
-1.2741e-06
5.87272e-09
-1.32107e-06
5.35816e-09
-1.34849e-06
4.35375e-09
-1.36424e-06
3.03206e-09
-1.3732e-06
1.52917e-09
-1.37803e-06
-7.02355e-11
-1.38012e-06
-1.66794e-09
-1.38007e-06
-3.18212e-09
-1.37788e-06
-4.50395e-09
-1.37299e-06
-5.52083e-09
-1.36403e-06
-6.04275e-09
-1.34834e-06
-5.86117e-09
-1.32111e-06
-4.88418e-09
-1.27421e-06
-3.23277e-09
-1.19586e-06
-1.29335e-09
-1.06913e-06
-7.95456e-07
1.39894e-09
-7.9725e-07
3.29767e-09
-1.07123e-06
4.91906e-09
-1.19749e-06
5.87803e-09
-1.27506e-06
6.02598e-09
-1.32122e-06
5.48018e-09
-1.34794e-06
4.44476e-09
-1.36321e-06
3.0916e-09
-1.37184e-06
1.55203e-09
-1.37648e-06
-8.18601e-11
-1.37848e-06
-1.7156e-09
-1.37843e-06
-3.26469e-09
-1.37633e-06
-4.62203e-09
-1.37163e-06
-5.67087e-09
-1.36298e-06
-6.22084e-09
-1.34779e-06
-6.05121e-09
-1.32127e-06
-5.05187e-09
-1.27521e-06
-3.32996e-09
-1.19758e-06
-1.29092e-09
-1.07117e-06
-7.96746e-07
1.49506e-09
-7.98738e-07
3.43027e-09
-1.07315e-06
5.13345e-09
-1.19919e-06
6.14569e-09
-1.27607e-06
6.29679e-09
-1.32137e-06
5.72354e-09
-1.34736e-06
4.64117e-09
-1.36212e-06
3.23521e-09
-1.37044e-06
1.63583e-09
-1.37488e-06
-4.8854e-11
-1.3768e-06
-1.7307e-09
-1.37675e-06
-3.3184e-09
-1.37474e-06
-4.71228e-09
-1.37024e-06
-5.78043e-09
-1.36191e-06
-6.3444e-09
-1.34722e-06
-6.19301e-09
-1.32142e-06
-5.18848e-09
-1.27622e-06
-3.43922e-09
-1.19933e-06
-1.37548e-09
-1.07323e-06
-7.98121e-07
1.4411e-09
-8.00171e-07
3.54481e-09
-1.07525e-06
5.36852e-09
-1.20101e-06
6.43106e-09
-1.27712e-06
6.58072e-09
-1.32152e-06
5.98187e-09
-1.34676e-06
4.85132e-09
-1.36099e-06
3.37941e-09
-1.36896e-06
1.71611e-09
-1.37322e-06
-3.07619e-11
-1.37505e-06
-1.77194e-09
-1.375e-06
-3.41416e-09
-1.3731e-06
-4.85977e-09
-1.36879e-06
-5.96782e-09
-1.3608e-06
-6.55929e-09
-1.34663e-06
-6.42408e-09
-1.32156e-06
-5.39644e-09
-1.27724e-06
-3.59318e-09
-1.20112e-06
-1.51763e-09
-1.0753e-06
-7.99636e-07
1.43569e-09
-8.01598e-07
3.67379e-09
-1.07748e-06
5.5628e-09
-1.20289e-06
6.63483e-09
-1.2782e-06
6.77382e-09
-1.32165e-06
6.14876e-09
-1.34613e-06
4.98714e-09
-1.35983e-06
3.46399e-09
-1.36744e-06
1.74535e-09
-1.3715e-06
-5.86522e-11
-1.37324e-06
-1.85953e-09
-1.3732e-06
-3.56262e-09
-1.37139e-06
-5.06767e-09
-1.36728e-06
-6.22993e-09
-1.35963e-06
-6.8535e-09
-1.34601e-06
-6.71407e-09
-1.3217e-06
-5.63882e-09
-1.27831e-06
-3.74191e-09
-1.20301e-06
-1.55508e-09
-1.07747e-06
-8.01189e-07
1.52072e-09
-8.0311e-07
3.79928e-09
-1.07975e-06
5.76052e-09
-1.20485e-06
6.87038e-09
-1.2793e-06
7.00983e-09
-1.32179e-06
6.34658e-09
-1.34547e-06
5.13393e-09
-1.35861e-06
3.56049e-09
-1.36586e-06
1.78114e-09
-1.36972e-06
-8.21761e-11
-1.37138e-06
-1.94134e-09
-1.37134e-06
-3.70847e-09
-1.36962e-06
-5.27337e-09
-1.36572e-06
-6.48691e-09
-1.35842e-06
-7.14602e-09
-1.34534e-06
-7.01484e-09
-1.32183e-06
-5.9039e-09
-1.27942e-06
-3.91214e-09
-1.20499e-06
-1.55911e-09
-1.07981e-06
-8.02745e-07
1.5686e-09
-8.04668e-07
3.9608e-09
-1.08214e-06
6.01653e-09
-1.2069e-06
7.15941e-09
-1.28044e-06
7.28912e-09
-1.32192e-06
6.58139e-09
-1.34476e-06
5.30418e-09
-1.35733e-06
3.67578e-09
-1.36423e-06
1.83973e-09
-1.36788e-06
-8.5317e-11
-1.36945e-06
-2.00448e-09
-1.36942e-06
-3.83577e-09
-1.36779e-06
-5.4549e-09
-1.36409e-06
-6.7201e-09
-1.35716e-06
-7.42343e-09
-1.34464e-06
-7.31828e-09
-1.32193e-06
-6.18655e-09
-1.28054e-06
-4.10111e-09
-1.20707e-06
-1.59817e-09
-1.0823e-06
-8.04342e-07
1.64027e-09
-8.06296e-07
4.18812e-09
-1.08468e-06
6.32295e-09
-1.20903e-06
7.46916e-09
-1.28159e-06
7.57274e-09
-1.32202e-06
6.8196e-09
-1.34401e-06
5.48301e-09
-1.356e-06
3.79126e-09
-1.36254e-06
1.89576e-09
-1.36598e-06
-9.32603e-11
-1.36746e-06
-2.07758e-09
-1.36743e-06
-3.97111e-09
-1.3659e-06
-5.6482e-09
-1.36242e-06
-6.96356e-09
-1.35585e-06
-7.69919e-09
-1.3439e-06
-7.6148e-09
-1.32201e-06
-6.46897e-09
-1.28168e-06
-4.30728e-09
-1.20922e-06
-1.67426e-09
-1.08493e-06
-8.06014e-07
1.69959e-09
-8.07984e-07
4.4096e-09
-1.08737e-06
6.67436e-09
-1.21129e-06
7.86438e-09
-1.28278e-06
7.94316e-09
-1.3221e-06
7.13443e-09
-1.3432e-06
5.72587e-09
-1.35459e-06