/*--------------------------------*- C++ -*----------------------------------*\
  =========                 |
  \\      /  F ield         | OpenFOAM: The Open Source CFD Toolbox
   \\    /   O peration     | Website:  https://openfoam.org
    \\  /    A nd           | Version:  6
     \\/     M anipulation  |
\*---------------------------------------------------------------------------*/
FoamFile
{
    version     2.0;
    format      ascii;
    class       surfaceScalarField;
    location    "28";
    object      phi;
}
// * * * * * * * * * * * * * * * * * * * * * * * * * * * * * * * * * * * * * //

dimensions      [0 3 -1 0 0 0 0];

internalField   nonuniform List<scalar> 
258600
(
-1.03199e-08
-8.54449e-08
1.00119e-08
-1.06136e-08
-9.10274e-08
-1.08798e-08
-9.64774e-08
-1.11203e-08
-1.01766e-07
-1.13364e-08
-1.06872e-07
-1.15299e-08
-1.11773e-07
-1.17029e-08
-1.16451e-07
-1.18577e-08
-1.20888e-07
-1.1996e-08
-1.2507e-07
-1.212e-08
-1.28984e-07
-1.22312e-08
-1.32623e-07
-1.23314e-08
-1.35982e-07
-1.24218e-08
-1.39058e-07
-1.2504e-08
-1.41856e-07
-1.25788e-08
-1.44379e-07
-1.26475e-08
-1.46637e-07
-1.27107e-08
-1.48641e-07
-1.27692e-08
-1.50406e-07
-1.28236e-08
-1.51947e-07
-1.53283e-07
-1.28746e-08
-1.10381e-08
-8.52153e-08
1.08068e-08
-1.12646e-08
-9.08025e-08
-1.14806e-08
-9.6263e-08
-1.16811e-08
-1.01567e-07
-1.18648e-08
-1.06689e-07
-1.20313e-08
-1.11608e-07
-1.21812e-08
-1.16302e-07
-1.23158e-08
-1.20754e-07
-1.24365e-08
-1.2495e-07
-1.25448e-08
-1.28877e-07
-1.26423e-08
-1.32526e-07
-1.27303e-08
-1.35894e-07
-1.28102e-08
-1.38979e-07
-1.28831e-08
-1.41783e-07
-1.29501e-08
-1.44313e-07
-1.3012e-08
-1.46576e-07
-1.30695e-08
-1.48584e-07
-1.31233e-08
-1.50353e-07
-1.31739e-08
-1.51897e-07
-1.53235e-07
-1.32222e-08
-1.21212e-08
-8.50357e-08
1.1938e-08
-1.22989e-08
-9.06269e-08
-1.24677e-08
-9.60966e-08
-1.26241e-08
-1.01413e-07
-1.27674e-08
-1.06548e-07
-1.2897e-08
-1.1148e-07
-1.30139e-08
-1.16187e-07
-1.31187e-08
-1.20651e-07
-1.32129e-08
-1.24857e-07
-1.32974e-08
-1.28793e-07
-1.33739e-08
-1.32451e-07
-1.34432e-08
-1.35826e-07
-1.35068e-08
-1.38917e-07
-1.35653e-08
-1.41726e-07
-1.36198e-08
-1.44259e-07
-1.36711e-08
-1.46526e-07
-1.37197e-08
-1.48537e-07
-1.37662e-08
-1.50307e-07
-1.38112e-08
-1.51852e-07
-1.53192e-07
-1.38552e-08
-1.36124e-08
-8.49308e-08
1.35047e-08
-1.37187e-08
-9.05228e-08
-1.3821e-08
-9.59966e-08
-1.39165e-08
-1.01319e-07
-1.40046e-08
-1.06462e-07
-1.40842e-08
-1.11402e-07
-1.4156e-08
-1.16117e-07
-1.422e-08
-1.20589e-07
-1.42777e-08
-1.24801e-07
-1.43292e-08
-1.28743e-07
-1.43763e-08
-1.32406e-07
-1.44191e-08
-1.35784e-07
-1.44592e-08
-1.38878e-07
-1.44968e-08
-1.41689e-07
-1.45332e-08
-1.44224e-07
-1.45683e-08
-1.46491e-07
-1.46032e-08
-1.48503e-07
-1.46379e-08
-1.50273e-07
-1.46731e-08
-1.51818e-07
-1.53157e-07
-1.47086e-08
-1.53511e-08
-8.48911e-08
1.53068e-08
-1.53922e-08
-9.04845e-08
-1.54306e-08
-9.59613e-08
-1.54646e-08
-1.01288e-07
-1.54945e-08
-1.06435e-07
-1.55196e-08
-1.1138e-07
-1.55409e-08
-1.16099e-07
-1.55583e-08
-1.20574e-07
-1.55731e-08
-1.24789e-07
-1.55855e-08
-1.28733e-07
-1.55968e-08
-1.32397e-07
-1.56073e-08
-1.35776e-07
-1.56182e-08
-1.38869e-07
-1.56295e-08
-1.4168e-07
-1.56423e-08
-1.44213e-07
-1.56565e-08
-1.46479e-07
-1.56729e-08
-1.48488e-07
-1.56911e-08
-1.50256e-07
-1.5712e-08
-1.51799e-07
-1.53135e-07
-1.57348e-08
-1.72718e-08
-8.49118e-08
1.72877e-08
-1.72517e-08
-9.05085e-08
-1.72284e-08
-9.59885e-08
-1.72019e-08
-1.01318e-07
-1.71734e-08
-1.06467e-07
-1.71427e-08
-1.11413e-07
-1.71113e-08
-1.16133e-07
-1.70792e-08
-1.20608e-07
-1.70478e-08
-1.24823e-07
-1.70173e-08
-1.28765e-07
-1.69891e-08
-1.32427e-07
-1.69632e-08
-1.35803e-07
-1.69408e-08
-1.38893e-07
-1.69216e-08
-1.417e-07
-1.69068e-08
-1.4423e-07
-1.68958e-08
-1.46491e-07
-1.68895e-08
-1.48496e-07
-1.68872e-08
-1.5026e-07
-1.68896e-08
-1.51798e-07
-1.5313e-07
-1.68958e-08
-1.93104e-08
-8.49882e-08
1.93783e-08
-1.9234e-08
-9.05899e-08
-1.9154e-08
-9.60735e-08
-1.90708e-08
-1.01405e-07
-1.89867e-08
-1.06556e-07
-1.8902e-08
-1.11501e-07
-1.88186e-08
-1.1622e-07
-1.87368e-08
-1.20693e-07
-1.86585e-08
-1.24904e-07
-1.85836e-08
-1.28843e-07
-1.85139e-08
-1.32499e-07
-1.8449e-08
-1.3587e-07
-1.83905e-08
-1.38954e-07
-1.83378e-08
-1.41755e-07
-1.8292e-08
-1.44278e-07
-1.82524e-08
-1.46532e-07
-1.82199e-08
-1.48531e-07
-1.81934e-08
-1.50288e-07
-1.81737e-08
-1.5182e-07
-1.53145e-07
-1.81596e-08
-2.14197e-08
-8.511e-08
2.15345e-08
-2.12943e-08
-9.07195e-08
-2.11635e-08
-9.62087e-08
-2.10289e-08
-1.01543e-07
-2.08933e-08
-1.06695e-07
-2.07576e-08
-1.11641e-07
-2.06245e-08
-1.16357e-07
-2.04943e-08
-1.20826e-07
-2.03695e-08
-1.25032e-07
-2.02502e-08
-1.28965e-07
-2.01381e-08
-1.32614e-07
-2.00332e-08
-1.35977e-07
-1.99368e-08
-1.39053e-07
-1.98485e-08
-1.41845e-07
-1.97694e-08
-1.44359e-07
-1.96985e-08
-1.46605e-07
-1.9637e-08
-1.48594e-07
-1.95834e-08
-1.50343e-07
-1.95387e-08
-1.51866e-07
-1.53184e-07
-1.95012e-08
-2.35725e-08
-8.52711e-08
2.37279e-08
-2.34041e-08
-9.08919e-08
-2.32278e-08
-9.6389e-08
-2.30464e-08
-1.01729e-07
-2.28631e-08
-1.06883e-07
-2.26799e-08
-1.11827e-07
-2.24994e-08
-1.16541e-07
-2.23229e-08
-1.21006e-07
-2.21528e-08
-1.25206e-07
-2.19895e-08
-1.29131e-07
-2.18351e-08
-1.32772e-07
-2.16895e-08
-1.36126e-07
-2.15544e-08
-1.39191e-07
-2.14291e-08
-1.41973e-07
-2.1315e-08
-1.44476e-07
-2.1211e-08
-1.46711e-07
-2.11182e-08
-1.4869e-07
-2.10352e-08
-1.50428e-07
-2.09629e-08
-1.51941e-07
-1.53249e-07
-2.08995e-08
-2.57536e-08
-8.54692e-08
2.59464e-08
-2.55454e-08
-9.11037e-08
-2.53271e-08
-9.66109e-08
-2.51025e-08
-1.01957e-07
-2.48748e-08
-1.07114e-07
-2.46468e-08
-1.12059e-07
-2.44214e-08
-1.1677e-07
-2.42004e-08
-1.2123e-07
-2.39864e-08
-1.25424e-07
-2.37801e-08
-1.2934e-07
-2.35838e-08
-1.32971e-07
-2.33976e-08
-1.36314e-07
-2.32233e-08
-1.39369e-07
-2.30603e-08
-1.42138e-07
-2.29102e-08
-1.44629e-07
-2.27717e-08
-1.46851e-07
-2.26461e-08
-1.48818e-07
-2.25319e-08
-1.50544e-07
-2.24301e-08
-1.52045e-07
-1.53342e-07
-2.23387e-08
-2.79466e-08
-8.56994e-08
2.81717e-08
-2.77029e-08
-9.13512e-08
-2.74463e-08
-9.68711e-08
-2.71816e-08
-1.02225e-07
-2.69124e-08
-1.07387e-07
-2.66422e-08
-1.12333e-07
-2.63741e-08
-1.17042e-07
-2.61104e-08
-1.21497e-07
-2.58538e-08
-1.25684e-07
-2.56055e-08
-1.29591e-07
-2.53679e-08
-1.33213e-07
-2.51413e-08
-1.36544e-07
-2.49277e-08
-1.39586e-07
-2.47266e-08
-1.42342e-07
-2.45396e-08
-1.44819e-07
-2.43657e-08
-1.47028e-07
-2.4206e-08
-1.48981e-07
-2.40592e-08
-1.50693e-07
-2.39262e-08
-1.52181e-07
-1.53465e-07
-2.38052e-08
-3.01461e-08
-8.59607e-08
3.04029e-08
-2.98683e-08
-9.16317e-08
-2.95757e-08
-9.71664e-08
-2.92732e-08
-1.02531e-07
-2.89649e-08
-1.07699e-07
-2.86546e-08
-1.12647e-07
-2.83457e-08
-1.17355e-07
-2.80407e-08
-1.21806e-07
-2.77428e-08
-1.25985e-07
-2.74535e-08
-1.29884e-07
-2.71752e-08
-1.33494e-07
-2.69085e-08
-1.36813e-07
-2.66556e-08
-1.39842e-07
-2.64161e-08
-1.42584e-07
-2.61918e-08
-1.45046e-07
-2.59815e-08
-1.4724e-07
-2.57869e-08
-1.49178e-07
-2.56063e-08
-1.50875e-07
-2.5441e-08
-1.52349e-07
-1.53619e-07
-2.52888e-08
-3.23428e-08
-8.62481e-08
3.26282e-08
-3.20345e-08
-9.1942e-08
-3.17084e-08
-9.74944e-08
-3.13706e-08
-1.02872e-07
-3.10251e-08
-1.08047e-07
-3.06763e-08
-1.12999e-07
-3.03279e-08
-1.17707e-07
-2.9983e-08
-1.22154e-07
-2.96447e-08
-1.26327e-07
-2.93149e-08
-1.30217e-07
-2.89963e-08
-1.33816e-07
-2.86898e-08
-1.37123e-07
-2.83974e-08
-1.40137e-07
-2.81193e-08
-1.42864e-07
-2.78571e-08
-1.45312e-07
-2.76099e-08
-1.4749e-07
-2.73794e-08
-1.49411e-07
-2.7164e-08
-1.51093e-07
-2.6965e-08
-1.52551e-07
-1.53805e-07
-2.67805e-08
-3.45397e-08
-8.65631e-08
3.48523e-08
-3.42016e-08
-9.22825e-08
-3.38431e-08
-9.78549e-08
-3.34709e-08
-1.03247e-07
-3.30891e-08
-1.08432e-07
-3.27027e-08
-1.13389e-07
-3.23156e-08
-1.18097e-07
-3.19313e-08
-1.22542e-07
-3.15531e-08
-1.26709e-07
-3.11832e-08
-1.3059e-07
-3.08245e-08
-1.34178e-07
-3.04781e-08
-1.37472e-07
-3.01462e-08
-1.40472e-07
-2.9829e-08
-1.43184e-07
-2.95285e-08
-1.45615e-07
-2.92437e-08
-1.47776e-07
-2.89765e-08
-1.49681e-07
-2.87252e-08
-1.51346e-07
-2.84917e-08
-1.52787e-07
-1.54025e-07
-2.82736e-08
-3.6735e-08
-8.69063e-08
3.70732e-08
-3.63673e-08
-9.26538e-08
-3.5977e-08
-9.82483e-08
-3.55707e-08
-1.03657e-07
-3.51533e-08
-1.08853e-07
-3.47298e-08
-1.13816e-07
-3.43044e-08
-1.18526e-07
-3.3881e-08
-1.22968e-07
-3.34631e-08
-1.2713e-07
-3.30532e-08
-1.31003e-07
-3.26544e-08
-1.3458e-07
-3.22678e-08
-1.37861e-07
-3.1896e-08
-1.40847e-07
-3.15393e-08
-1.43543e-07
-3.11997e-08
-1.45958e-07
-3.08766e-08
-1.48102e-07
-3.05717e-08
-1.49989e-07
-3.02838e-08
-1.51636e-07
-3.00144e-08
-1.53059e-07
-1.54279e-07
-2.97615e-08
-3.89256e-08
-8.72752e-08
3.92895e-08
-3.85291e-08
-9.30538e-08
-3.81074e-08
-9.86729e-08
-3.76676e-08
-1.041e-07
-3.72149e-08
-1.09309e-07
-3.67546e-08
-1.14279e-07
-3.62912e-08
-1.18992e-07
-3.58287e-08
-1.23434e-07
-3.53712e-08
-1.27591e-07
-3.49211e-08
-1.31455e-07
-3.44818e-08
-1.35023e-07
-3.40547e-08
-1.38291e-07
-3.36426e-08
-1.41262e-07
-3.32456e-08
-1.43942e-07
-3.28663e-08
-1.4634e-07
-3.25039e-08
-1.48466e-07
-3.21605e-08
-1.50335e-07
-3.18347e-08
-1.51963e-07
-3.15285e-08
-1.53368e-07
-1.54569e-07
-3.12396e-08
-4.11133e-08
-8.7671e-08
4.15041e-08
-4.06871e-08
-9.34827e-08
-4.0234e-08
-9.91287e-08
-3.97606e-08
-1.04576e-07
-3.92727e-08
-1.098e-07
-3.87755e-08
-1.14779e-07
-3.8274e-08
-1.19497e-07
-3.77723e-08
-1.23938e-07
-3.72747e-08
-1.28092e-07
-3.6784e-08
-1.31949e-07
-3.63037e-08
-1.35506e-07
-3.58354e-08
-1.38761e-07
-3.5382e-08
-1.41718e-07
-3.49441e-08
-1.44382e-07
-3.4524e-08
-1.46762e-07
-3.41214e-08
-1.48871e-07
-3.37382e-08
-1.50721e-07
-3.33735e-08
-1.5233e-07
-3.3029e-08
-1.53715e-07
-1.54897e-07
-3.27028e-08
-4.32965e-08
-8.809e-08
4.37143e-08
-4.28422e-08
-9.3939e-08
-4.23576e-08
-9.96149e-08
-4.18506e-08
-1.05085e-07
-4.13268e-08
-1.10326e-07
-4.07923e-08
-1.15316e-07
-4.0252e-08
-1.2004e-07
-3.97104e-08
-1.24482e-07
-3.91719e-08
-1.28633e-07
-3.86397e-08
-1.32483e-07
-3.81175e-08
-1.36031e-07
-3.76071e-08
-1.39274e-07
-3.71115e-08
-1.42216e-07
-3.66315e-08
-1.44864e-07
-3.61696e-08
-1.47227e-07
-3.57254e-08
-1.49316e-07
-3.53014e-08
-1.51147e-07
-3.48963e-08
-1.52736e-07
-3.45123e-08
-1.54101e-07
-1.55263e-07
-3.41475e-08
-4.54841e-08
-8.85388e-08
4.59293e-08
-4.49988e-08
-9.44271e-08
-4.44811e-08
-1.00135e-07
-4.39388e-08
-1.0563e-07
-4.33779e-08
-1.10889e-07
-4.28047e-08
-1.15892e-07
-4.22245e-08
-1.20623e-07
-4.16418e-08
-1.25068e-07
-4.10615e-08
-1.29216e-07
-4.04867e-08
-1.33061e-07
-3.99214e-08
-1.36599e-07
-3.93676e-08
-1.3983e-07
-3.88285e-08
-1.42758e-07
-3.8305e-08
-1.4539e-07
-3.77998e-08
-1.47735e-07
-3.73128e-08
-1.49805e-07
-3.68463e-08
-1.51616e-07
-3.63994e-08
-1.53185e-07
-3.59743e-08
-1.54529e-07
-1.5567e-07
-3.55693e-08
-4.76718e-08
-8.90163e-08
4.81449e-08
-4.71549e-08
-9.49471e-08
-4.6603e-08
-1.00689e-07
-4.60242e-08
-1.06212e-07
-4.5425e-08
-1.11491e-07
-4.48119e-08
-1.16508e-07
-4.41905e-08
-1.21247e-07
-4.35655e-08
-1.25695e-07
-4.29419e-08
-1.29842e-07
-4.23232e-08
-1.33681e-07
-4.17134e-08
-1.37211e-07
-4.11148e-08
-1.4043e-07
-4.05307e-08
-1.43344e-07
-3.99622e-08
-1.4596e-07
-3.94122e-08
-1.48287e-07
-3.88807e-08
-1.50338e-07
-3.83701e-08
-1.52129e-07
-3.78798e-08
-1.53677e-07
-3.74119e-08
-1.54999e-07
-1.56118e-07
-3.6965e-08
-4.98584e-08
-8.95237e-08
5.03611e-08
-4.93085e-08
-9.54994e-08
-4.87216e-08
-1.01279e-07
-4.81055e-08
-1.0683e-07
-4.74671e-08
-1.12132e-07
-4.68128e-08
-1.17164e-07
-4.61489e-08
-1.21913e-07
-4.54803e-08
-1.26365e-07
-4.48121e-08
-1.30512e-07
-4.41478e-08
-1.34348e-07
-4.34919e-08
-1.37869e-07
-4.28468e-08
-1.41077e-07
-4.2216e-08
-1.43978e-07
-4.16008e-08
-1.46577e-07
-4.10041e-08
-1.48886e-07
-4.04262e-08
-1.50918e-07
-3.98697e-08
-1.52688e-07
-3.9334e-08
-1.54214e-07
-3.88214e-08
-1.55515e-07
-1.5661e-07
-3.83307e-08
-5.20425e-08
-9.00575e-08
5.25758e-08
-5.14606e-08
-9.60825e-08
-5.08381e-08
-1.01902e-07
-5.01837e-08
-1.07486e-07
-4.95046e-08
-1.12812e-07
-4.88079e-08
-1.17863e-07
-4.80998e-08
-1.22623e-07
-4.73857e-08
-1.27081e-07
-4.6671e-08
-1.31229e-07
-4.59594e-08
-1.35061e-07
-4.52555e-08
-1.38575e-07
-4.45619e-08
-1.41773e-07
-4.38825e-08
-1.44659e-07
-4.32184e-08
-1.47242e-07
-4.25731e-08
-1.49533e-07
-4.19468e-08
-1.51546e-07
-4.13423e-08
-1.53295e-07
-4.07591e-08
-1.54799e-07
-4.01999e-08
-1.56076e-07
-1.57148e-07
-3.96633e-08
-5.42338e-08
-9.06245e-08
5.47986e-08
-5.36165e-08
-9.67015e-08
-5.29559e-08
-1.02564e-07
-5.2261e-08
-1.08183e-07
-5.15391e-08
-1.13536e-07
-5.07977e-08
-1.18606e-07
-5.00434e-08
-1.23379e-07
-4.92817e-08
-1.27845e-07
-4.85182e-08
-1.31995e-07
-4.77571e-08
-1.35824e-07
-4.7003e-08
-1.39331e-07
-4.62588e-08
-1.42519e-07
-4.55283e-08
-1.45392e-07
-4.48132e-08
-1.47959e-07
-4.41168e-08
-1.50232e-07
-4.34398e-08
-1.52225e-07
-4.27849e-08
-1.53953e-07
-4.2152e-08
-1.55434e-07
-4.15437e-08
-1.56687e-07
-1.57735e-07
-4.09591e-08
-5.64293e-08
-9.12245e-08
5.70267e-08
-5.57753e-08
-9.73574e-08
-5.50748e-08
-1.03266e-07
-5.43372e-08
-1.08922e-07
-5.35705e-08
-1.14304e-07
-5.27823e-08
-1.19396e-07
-5.19794e-08
-1.24184e-07
-5.11677e-08
-1.28658e-07
-5.03531e-08
-1.32811e-07
-4.954e-08
-1.36639e-07
-4.87332e-08
-1.4014e-07
-4.79357e-08
-1.43318e-07
-4.71518e-08
-1.46178e-07
-4.6383e-08
-1.4873e-07
-4.56331e-08
-1.50985e-07
-4.49026e-08
-1.52957e-07
-4.41948e-08
-1.54663e-07
-4.35097e-08
-1.56121e-07
-4.28499e-08
-1.5735e-07
-1.58372e-07
-4.22146e-08
-5.86284e-08
-9.18599e-08
5.92605e-08
-5.79354e-08
-9.80518e-08
-5.71933e-08
-1.0401e-07
-5.64113e-08
-1.09706e-07
-5.55979e-08
-1.1512e-07
-5.47606e-08
-1.20235e-07
-5.39069e-08
-1.2504e-07
-5.30429e-08
-1.29524e-07
-5.21747e-08
-1.33682e-07
-5.13069e-08
-1.37509e-07
-5.04447e-08
-1.41005e-07
-4.95913e-08
-1.44174e-07
-4.87509e-08
-1.47021e-07
-4.79257e-08
-1.49557e-07
-4.71193e-08
-1.51794e-07
-4.63327e-08
-1.53746e-07
-4.55692e-08
-1.5543e-07
-4.48289e-08
-1.56864e-07
-4.41148e-08
-1.58067e-07
-1.59063e-07
-4.34262e-08
-6.08296e-08
-9.25279e-08
6.14983e-08
-6.0098e-08
-9.87842e-08
-5.93129e-08
-1.04796e-07
-5.84847e-08
-1.10536e-07
-5.76221e-08
-1.15984e-07
-5.67335e-08
-1.21126e-07
-5.58263e-08
-1.25949e-07
-5.49071e-08
-1.30446e-07
-5.39824e-08
-1.34609e-07
-5.30569e-08
-1.38436e-07
-5.21363e-08
-1.41928e-07
-5.12238e-08
-1.45088e-07
-5.03241e-08
-1.47924e-07
-4.94392e-08
-1.50445e-07
-4.85733e-08
-1.52663e-07
-4.77274e-08
-1.54594e-07
-4.69051e-08
-1.56255e-07
-4.61066e-08
-1.57664e-07
-4.53352e-08
-1.58842e-07
-1.5981e-07
-4.45904e-08
-6.30421e-08
-9.32364e-08
6.37485e-08
-6.22675e-08
-9.95603e-08
-6.14363e-08
-1.05629e-07
-6.05587e-08
-1.11415e-07
-5.96441e-08
-1.16901e-07
-5.8701e-08
-1.22071e-07
-5.77373e-08
-1.26915e-07
-5.67599e-08
-1.31426e-07
-5.57755e-08
-1.35596e-07
-5.47892e-08
-1.39425e-07
-5.38067e-08
-1.42914e-07
-5.28318e-08
-1.46066e-07
-5.18692e-08
-1.4889e-07
-5.09214e-08
-1.51395e-07
-4.99925e-08
-1.53595e-07
-4.9084e-08
-1.55506e-07
-4.81994e-08
-1.57143e-07
-4.73395e-08
-1.58528e-07
-4.65074e-08
-1.59678e-07
-1.60618e-07
-4.57029e-08
-6.52614e-08
-9.39844e-08
6.60075e-08
-6.44427e-08
-1.00381e-07
-6.3563e-08
-1.0651e-07
-6.26334e-08
-1.12347e-07
-6.16637e-08
-1.17872e-07
-6.0663e-08
-1.23074e-07
-5.96396e-08
-1.27941e-07
-5.86004e-08
-1.32467e-07
-5.75529e-08
-1.36646e-07
-5.65022e-08
-1.40478e-07
-5.54544e-08
-1.43964e-07
-5.44134e-08
-1.4711e-07
-5.33843e-08
-1.49922e-07
-5.23698e-08
-1.52412e-07
-5.13744e-08
-1.54594e-07
-5.03995e-08
-1.56483e-07
-4.94492e-08
-1.58097e-07
-4.85241e-08
-1.59456e-07
-4.76278e-08
-1.60578e-07
-1.61488e-07
-4.67602e-08
-6.74888e-08
-9.47756e-08
6.82762e-08
-6.66228e-08
-1.0125e-07
-6.56921e-08
-1.07444e-07
-6.47076e-08
-1.13334e-07
-6.368e-08
-1.18903e-07
-6.26183e-08
-1.24138e-07
-6.15318e-08
-1.29031e-07
-6.04274e-08
-1.33574e-07
-5.93131e-08
-1.37764e-07
-5.81942e-08
-1.416e-07
-5.70772e-08
-1.45085e-07
-5.59662e-08
-1.48223e-07
-5.48668e-08
-1.51025e-07
-5.37817e-08
-1.535e-07
-5.27156e-08
-1.55664e-07
-5.16705e-08
-1.57532e-07
-5.06503e-08
-1.59122e-07
-4.96562e-08
-1.60453e-07
-4.86917e-08
-1.61547e-07
-1.62426e-07
-4.77572e-08
-6.97253e-08
-9.56104e-08
7.05575e-08
-6.88099e-08
-1.02167e-07
-6.7825e-08
-1.08431e-07
-6.67824e-08
-1.14379e-07
-6.56932e-08
-1.19995e-07
-6.45671e-08
-1.25267e-07
-6.34136e-08
-1.30187e-07
-6.22401e-08
-1.3475e-07
-6.10549e-08
-1.38952e-07
-5.98636e-08
-1.42794e-07
-5.86733e-08
-1.46278e-07
-5.74881e-08
-1.49411e-07
-5.6314e-08
-1.52202e-07
-5.51539e-08
-1.54663e-07
-5.4013e-08
-1.56808e-07
-5.28932e-08
-1.58654e-07
-5.17989e-08
-1.60219e-07
-5.07315e-08
-1.61523e-07
-4.96948e-08
-1.62588e-07
-1.63435e-07
-4.86893e-08
-7.19725e-08
-9.64931e-08
7.28515e-08
-7.10042e-08
-1.03138e-07
-6.9962e-08
-1.09476e-07
-6.88577e-08
-1.15486e-07
-6.77034e-08
-1.21152e-07
-6.65089e-08
-1.26464e-07
-6.52843e-08
-1.31415e-07
-6.40375e-08
-1.36e-07
-6.2777e-08
-1.40216e-07
-6.15089e-08
-1.44065e-07
-6.02406e-08
-1.4755e-07
-5.89765e-08
-1.50678e-07
-5.7723e-08
-1.53459e-07
-5.64833e-08
-1.55906e-07
-5.52627e-08
-1.58033e-07
-5.40637e-08
-1.59856e-07
-5.28907e-08
-1.61396e-07
-5.17454e-08
-1.62672e-07
-5.0632e-08
-1.63705e-07
-1.64519e-07
-4.95512e-08
-7.4232e-08
-9.74248e-08
7.51614e-08
-7.3208e-08
-1.04164e-07
-7.21048e-08
-1.10581e-07
-7.09351e-08
-1.16658e-07
-6.97115e-08
-1.22378e-07
-6.84442e-08
-1.27734e-07
-6.71441e-08
-1.32718e-07
-6.58191e-08
-1.37327e-07
-6.44787e-08
-1.41559e-07
-6.31288e-08
-1.45417e-07
-6.17776e-08
-1.48904e-07
-6.04296e-08
-1.52029e-07
-5.90916e-08
-1.54801e-07
-5.7767e-08
-1.57233e-07
-5.64618e-08
-1.59341e-07
-5.51783e-08
-1.61143e-07
-5.39216e-08
-1.62656e-07
-5.26935e-08
-1.63903e-07
-5.14987e-08
-1.64904e-07
-1.65682e-07
-5.03378e-08
-7.65055e-08
-9.84104e-08
7.74877e-08
-7.54218e-08
-1.0525e-07
-7.4254e-08
-1.11752e-07
-7.30146e-08
-1.17899e-07
-7.17175e-08
-1.23678e-07
-7.03729e-08
-1.29081e-07
-6.89925e-08
-1.34101e-07
-6.75845e-08
-1.38737e-07
-6.61589e-08
-1.42988e-07
-6.4722e-08
-1.46856e-07
-6.32824e-08
-1.50347e-07
-6.1845e-08
-1.53469e-07
-6.04169e-08
-1.56232e-07
-5.9002e-08
-1.58651e-07
-5.76065e-08
-1.6074e-07
-5.6233e-08
-1.62519e-07
-5.48872e-08
-1.64006e-07
-5.35708e-08
-1.65222e-07
-5.2289e-08
-1.6619e-07
-1.66932e-07
-5.10428e-08
-7.87943e-08
-9.94515e-08
7.98333e-08
-7.76479e-08
-1.06398e-07
-7.64113e-08
-1.12991e-07
-7.50979e-08
-1.19214e-07
-7.37224e-08
-1.25056e-07
-7.22955e-08
-1.30509e-07
-7.08295e-08
-1.3557e-07
-6.93331e-08
-1.40236e-07
-6.78167e-08
-1.44507e-07
-6.62871e-08
-1.48388e-07
-6.47534e-08
-1.51884e-07
-6.32206e-08
-1.55004e-07
-6.16967e-08
-1.57759e-07
-6.01854e-08
-1.60164e-07
-5.86936e-08
-1.62235e-07
-5.72241e-08
-1.63991e-07
-5.57831e-08
-1.65451e-07
-5.43726e-08
-1.66636e-07
-5.29981e-08
-1.67568e-07
-1.68272e-07
-5.16609e-08
-8.11007e-08
-1.00553e-07
8.21992e-08
-7.98871e-08
-1.07614e-07
-7.85774e-08
-1.14303e-07
-7.71854e-08
-1.20608e-07
-7.57266e-08
-1.26518e-07
-7.4212e-08
-1.32026e-07
-7.2655e-08
-1.3713e-07
-7.10642e-08
-1.41828e-07
-6.94512e-08
-1.46123e-07
-6.78227e-08
-1.50018e-07
-6.61886e-08
-1.53521e-07
-6.45541e-08
-1.5664e-07
-6.29276e-08
-1.59389e-07
-6.13135e-08
-1.61781e-07
-5.97188e-08
-1.63834e-07
-5.81469e-08
-1.65566e-07
-5.66042e-08
-1.66997e-07
-5.50932e-08
-1.6815e-07
-5.36195e-08
-1.69046e-07
-1.69709e-07
-5.21852e-08
-8.34267e-08
-1.01718e-07
8.45891e-08
-8.2142e-08
-1.089e-07
-8.07546e-08
-1.15693e-07
-7.92787e-08
-1.22086e-07
-7.77311e-08
-1.28068e-07
-7.61231e-08
-1.33636e-07
-7.44689e-08
-1.38787e-07
-7.27776e-08
-1.43522e-07
-7.10613e-08
-1.47842e-07
-6.93272e-08
-1.51755e-07
-6.75858e-08
-1.55266e-07
-6.58426e-08
-1.58386e-07
-6.41068e-08
-1.61128e-07
-6.23826e-08
-1.63508e-07
-6.06781e-08
-1.65542e-07
-5.89966e-08
-1.6725e-07
-5.73452e-08
-1.68652e-07
-5.57267e-08
-1.69771e-07
-5.41473e-08
-1.70629e-07
-1.7125e-07
-5.26091e-08
-8.57746e-08
-1.02951e-07
8.70043e-08
-8.44138e-08
-1.10263e-07
-8.29435e-08
-1.17167e-07
-8.13785e-08
-1.23653e-07
-7.97362e-08
-1.29714e-07
-7.80286e-08
-1.35346e-07
-7.62708e-08
-1.40548e-07
-7.44722e-08
-1.45322e-07
-7.26458e-08
-1.49672e-07
-7.07989e-08
-1.53604e-07
-6.89428e-08
-1.57125e-07
-6.70835e-08
-1.60248e-07
-6.52305e-08
-1.62985e-07
-6.33887e-08
-1.65352e-07
-6.15665e-08
-1.67368e-07
-5.97679e-08
-1.69051e-07
-5.80001e-08
-1.70424e-07
-5.62665e-08
-1.71508e-07
-5.45738e-08
-1.72326e-07
-1.72903e-07
-5.29245e-08
-8.8146e-08
-1.04255e-07
8.94479e-08
-8.67048e-08
-1.11706e-07
-8.51464e-08
-1.18728e-07
-8.34863e-08
-1.25315e-07
-8.17432e-08
-1.3146e-07
-7.99294e-08
-1.37161e-07
-7.8061e-08
-1.4242e-07
-7.61477e-08
-1.47238e-07
-7.42035e-08
-1.5162e-07
-7.2236e-08
-1.55573e-07
-7.02573e-08
-1.59107e-07
-6.82736e-08
-1.62234e-07
-6.62953e-08
-1.64967e-07
-6.43275e-08
-1.67322e-07
-6.23793e-08
-1.6932e-07
-6.0455e-08
-1.70979e-07
-5.85626e-08
-1.7232e-07
-5.67058e-08
-1.73368e-07
-5.48918e-08
-1.74144e-07
-1.74674e-07
-5.31235e-08
-9.05439e-08
-1.05637e-07
9.19217e-08
-8.90167e-08
-1.13236e-07
-8.73646e-08
-1.20384e-07
-8.56032e-08
-1.27079e-07
-8.37527e-08
-1.33314e-07
-8.18255e-08
-1.39091e-07
-7.98391e-08
-1.4441e-07
-7.78033e-08
-1.49275e-07
-7.57332e-08
-1.53694e-07
-7.36367e-08
-1.57672e-07
-7.15267e-08
-1.61221e-07
-6.94097e-08
-1.64353e-07
-6.72971e-08
-1.67083e-07
-6.51942e-08
-1.69428e-07
-6.31109e-08
-1.71407e-07
-6.10519e-08
-1.73041e-07
-5.90258e-08
-1.74351e-07
-5.70367e-08
-1.75361e-07
-5.50925e-08
-1.76093e-07
-1.76574e-07
-5.31967e-08
-9.29712e-08
-1.07099e-07
9.44306e-08
-9.13529e-08
-1.14856e-07
-8.96009e-08
-1.2214e-07
-8.77316e-08
-1.2895e-07
-8.57663e-08
-1.35283e-07
-8.37181e-08
-1.41141e-07
-8.16055e-08
-1.46526e-07
-7.94387e-08
-1.51444e-07
-7.72338e-08
-1.55902e-07
-7.4999e-08
-1.59909e-07
-7.27483e-08
-1.63476e-07
-7.04886e-08
-1.66616e-07
-6.82319e-08
-1.69344e-07
-6.5984e-08
-1.71679e-07
-6.37557e-08
-1.7364e-07
-6.1552e-08
-1.75248e-07
-5.93823e-08
-1.76525e-07
-5.72513e-08
-1.77495e-07
-5.51674e-08
-1.78182e-07
-1.7861e-07
-5.31347e-08
-9.5431e-08
-1.08649e-07
9.69765e-08
-9.37153e-08
-1.16575e-07
-9.18569e-08
-1.24003e-07
-8.98725e-08
-1.30937e-07
-8.77849e-08
-1.37375e-07
-8.56076e-08
-1.4332e-07
-8.33601e-08
-1.48778e-07
-8.10532e-08
-1.53754e-07
-7.8704e-08
-1.58256e-07
-7.63211e-08
-1.62295e-07
-7.39196e-08
-1.65882e-07
-7.15065e-08
-1.69032e-07
-6.9095e-08
-1.7176e-07
-6.66914e-08
-1.74086e-07
-6.43071e-08
-1.76029e-07
-6.1948e-08
-1.77611e-07
-5.96239e-08
-1.78854e-07
-5.73403e-08
-1.79783e-07
-5.51061e-08
-1.80421e-07
-1.80794e-07
-5.29263e-08
-9.79262e-08
-1.10291e-07
9.95639e-08
-9.61074e-08
-1.18396e-07
-9.41359e-08
-1.25979e-07
-9.20289e-08
-1.33046e-07
-8.98107e-08
-1.39598e-07
-8.74953e-08
-1.45638e-07
-8.51036e-08
-1.51174e-07
-8.26467e-08
-1.56213e-07
-8.01429e-08
-1.60764e-07
-7.76011e-08
-1.64839e-07
-7.50376e-08
-1.6845e-07
-7.24598e-08
-1.71612e-07
-6.9882e-08
-1.74343e-07
-6.73108e-08
-1.7666e-07
-6.47588e-08
-1.78586e-07
-6.22322e-08
-1.80141e-07
-5.9742e-08
-1.81349e-07
-5.7294e-08
-1.82235e-07
-5.48981e-08
-1.82822e-07
-1.83136e-07
-5.25599e-08
-1.00461e-07
-1.1203e-07
1.02196e-07
-9.85319e-08
-1.20327e-07
-9.64399e-08
-1.28076e-07
-9.42024e-08
-1.35287e-07
-9.18451e-08
-1.4196e-07
-8.93823e-08
-1.48103e-07
-8.68364e-08
-1.53724e-07
-8.42189e-08
-1.58833e-07
-8.15493e-08
-1.63439e-07
-7.8837e-08
-1.67554e-07
-7.60993e-08
-1.71193e-07
-7.33444e-08
-1.7437e-07
-7.05875e-08
-1.77105e-07
-6.78358e-08
-1.79415e-07
-6.5103e-08
-1.81324e-07
-6.23959e-08
-1.82852e-07
-5.97264e-08
-1.84024e-07
-5.71013e-08
-1.84864e-07
-5.4531e-08
-1.85398e-07
-1.8565e-07
-5.20221e-08
-1.03039e-07
-1.13873e-07
1.04877e-07
-1.00993e-07
-1.22376e-07
-9.87733e-08
-1.30302e-07
-9.63966e-08
-1.37666e-07
-9.38907e-08
-1.44471e-07
-9.12704e-08
-1.50726e-07
-8.85595e-08
-1.5644e-07
-8.57698e-08
-1.61625e-07
-8.29222e-08
-1.66291e-07
-8.00266e-08
-1.70452e-07
-7.71017e-08
-1.74123e-07
-7.4156e-08
-1.77319e-07
-7.12061e-08
-1.8006e-07
-6.82597e-08
-1.82365e-07
-6.53318e-08
-1.84257e-07
-6.24298e-08
-1.85758e-07
-5.95668e-08
-1.86893e-07
-5.67502e-08
-1.87686e-07
-5.39917e-08
-1.88162e-07
-1.88348e-07
-5.12985e-08
-1.05664e-07
-1.15827e-07
1.07612e-07
-1.03495e-07
-1.24548e-07
-1.01139e-07
-1.32664e-07
-9.86138e-08
-1.40194e-07
-9.59497e-08
-1.47141e-07
-9.31611e-08
-1.53517e-07
-9.02737e-08
-1.59333e-07
-8.72993e-08
-1.64602e-07
-8.42607e-08
-1.69335e-07
-8.1168e-08
-1.73548e-07
-7.80413e-08
-1.77255e-07
-7.48898e-08
-1.80474e-07
-7.17314e-08
-1.83224e-07
-6.85747e-08
-1.85526e-07
-6.54357e-08
-1.87402e-07
-6.23229e-08
-1.88876e-07
-5.92504e-08
-1.89971e-07
-5.62268e-08
-1.90715e-07
-5.32646e-08
-1.91131e-07
-1.91246e-07
-5.03722e-08
-1.08342e-07
-1.17897e-07
1.10406e-07
-1.06041e-07
-1.26851e-07
-1.03541e-07
-1.35171e-07
-1.00858e-07
-1.42879e-07
-9.80254e-08
-1.4998e-07
-9.5057e-08
-1.56488e-07
-9.19805e-08
-1.62416e-07
-8.88079e-08
-1.67777e-07
-8.55639e-08
-1.72585e-07
-8.22587e-08
-1.76856e-07
-7.89144e-08
-1.80605e-07
-7.55404e-08
-1.83852e-07
-7.21567e-08
-1.86614e-07
-6.87721e-08
-1.88915e-07
-6.54046e-08
-1.90776e-07
-6.20632e-08
-1.92222e-07
-5.87638e-08
-1.93277e-07
-5.55157e-08
-1.93968e-07
-5.23328e-08
-1.9432e-07
-1.94359e-07
-4.92248e-08
-1.11076e-07
-1.2009e-07
1.13263e-07
-1.08637e-07
-1.29294e-07
-1.05983e-07
-1.37832e-07
-1.03133e-07
-1.45731e-07
-1.00121e-07
-1.52999e-07
-9.69602e-08
-1.59651e-07
-9.36811e-08
-1.65701e-07
-9.02957e-08
-1.71165e-07
-8.68305e-08
-1.76057e-07
-8.3296e-08
-1.80394e-07
-7.97164e-08
-1.84192e-07
-7.61017e-08
-1.8747e-07
-7.24734e-08
-1.90249e-07
-6.88417e-08
-1.92551e-07
-6.52259e-08
-1.94399e-07
-6.16363e-08
-1.95817e-07
-5.80903e-08
-1.96831e-07
-5.45984e-08
-1.97466e-07
-5.11759e-08
-1.9775e-07
-1.97708e-07
-4.78339e-08
-1.13874e-07
-1.22412e-07
1.1619e-07
-1.11288e-07
-1.31883e-07
-1.08472e-07
-1.40656e-07
-1.05444e-07
-1.48761e-07
-1.0224e-07
-1.5621e-07
-9.8874e-08
-1.63019e-07
-9.53776e-08
-1.69205e-07
-9.17631e-08
-1.74782e-07
-8.80591e-08
-1.79768e-07
-8.42767e-08
-1.84179e-07
-8.04421e-08
-1.88034e-07
-7.65658e-08
-1.91351e-07
-7.2672e-08
-1.94151e-07
-6.87712e-08
-1.96457e-07
-6.48852e-08
-1.98292e-07
-6.10253e-08
-1.99682e-07
-5.72108e-08
-2.00653e-07
-5.34536e-08
-2.0123e-07
-4.97706e-08
-2.0144e-07
-2.01311e-07
-4.61743e-08
-1.16741e-07
-1.24872e-07
1.19194e-07
-1.14e-07
-1.34627e-07
-1.11012e-07
-1.43652e-07
-1.07796e-07
-1.51981e-07
-1.04387e-07
-1.59626e-07
-1.00801e-07
-1.66608e-07
-9.70712e-08
-1.72942e-07
-9.32096e-08
-1.78646e-07
-8.92476e-08
-1.83738e-07
-8.51962e-08
-1.88234e-07
-8.10844e-08
-1.92153e-07
-7.69234e-08
-1.95516e-07
-7.27398e-08
-1.98343e-07
-6.85454e-08
-2.00656e-07
-6.43643e-08
-2.02482e-07
-6.02093e-08
-2.03844e-07
-5.61016e-08
-2.04769e-07
-5.20551e-08
-2.05283e-07
-4.80882e-08
-2.05415e-07
-2.05191e-07
-4.42153e-08
-1.19682e-07
-1.27475e-07
1.22279e-07
-1.16779e-07
-1.37533e-07
-1.1361e-07
-1.46829e-07
-1.10193e-07
-1.554e-07
-1.06567e-07
-1.63261e-07
-1.02745e-07
-1.70432e-07
-9.87634e-08
-1.76931e-07
-9.46347e-08
-1.82778e-07
-9.03925e-08
-1.87988e-07
-8.60484e-08
-1.92582e-07
-8.16342e-08
-1.96576e-07
-7.71619e-08
-1.99992e-07
-7.26613e-08
-2.02852e-07
-6.81452e-08
-2.05178e-07
-6.36409e-08
-2.06995e-07
-5.91625e-08
-2.08329e-07
-5.47341e-08
-2.09206e-07
-5.0371e-08
-2.09654e-07
-4.60943e-08
-2.09701e-07
-2.09373e-07
-4.19199e-08
-1.22707e-07
-1.30228e-07
1.25453e-07
-1.19633e-07
-1.4061e-07
-1.16273e-07
-1.50198e-07
-1.12643e-07
-1.59033e-07
-1.08783e-07
-1.67129e-07
-1.04708e-07
-1.7451e-07
-1.00455e-07
-1.81193e-07
-9.60361e-08
-1.87199e-07
-9.14887e-08
-1.92545e-07
-8.68247e-08
-1.97249e-07
-8.20791e-08
-2.01331e-07
-7.72652e-08
-2.04811e-07
-7.24159e-08
-2.07711e-07
-6.75461e-08
-2.10054e-07
-6.2686e-08
-2.11864e-07
-5.78521e-08
-2.13169e-07
-5.30713e-08
-2.13996e-07
-4.83613e-08
-2.14372e-07
-4.37455e-08
-2.14326e-07
-2.13885e-07
-3.92423e-08
-1.25822e-07
-1.33137e-07
1.28725e-07
-1.22569e-07
-1.43866e-07
-1.19007e-07
-1.53769e-07
-1.15151e-07
-1.62891e-07
-1.11042e-07
-1.71247e-07
-1.06693e-07
-1.7886e-07
-1.02145e-07
-1.8575e-07
-9.74103e-08
-1.91936e-07
-9.25288e-08
-1.97435e-07
-8.75134e-08
-2.02268e-07
-8.24028e-08
-2.06451e-07
-7.72118e-08
-2.10006e-07
-7.19774e-08
-2.12955e-07
-6.67163e-08
-2.1532e-07
-6.14631e-08
-2.17127e-07
-5.62366e-08
-2.18403e-07
-5.10674e-08
-2.19175e-07
-4.59759e-08
-2.19472e-07
-4.09884e-08
-2.19323e-07
-2.18757e-07
-3.61258e-08
-1.29038e-07
-1.36209e-07
1.32102e-07
-1.25597e-07
-1.47309e-07
-1.21822e-07
-1.57554e-07
-1.17724e-07
-1.66991e-07
-1.13346e-07
-1.75634e-07
-1.08701e-07
-1.83506e-07
-1.03832e-07
-1.90628e-07
-9.87512e-08
-1.97019e-07
-9.3502e-08
-2.02695e-07
-8.80983e-08
-2.07674e-07
-8.25834e-08
-2.11976e-07
-7.69738e-08
-2.1562e-07
-7.13114e-08
-2.18628e-07
-6.56155e-08
-2.21022e-07
-5.99254e-08
-2.22828e-07
-5.42632e-08
-2.24072e-07
-4.86639e-08
-2.24784e-07
-4.31512e-08
-2.24993e-07
-3.7755e-08
-2.24729e-07
-2.24022e-07
-3.24991e-08
-1.3236e-07
-1.39447e-07
1.35592e-07
-1.28724e-07
-1.50946e-07
-1.24725e-07
-1.61564e-07
-1.20368e-07
-1.71348e-07
-1.15702e-07
-1.8031e-07
-1.10734e-07
-1.88475e-07
-1.05512e-07
-1.95859e-07
-1.00049e-07
-2.02483e-07
-9.43927e-08
-2.08361e-07
-8.85575e-08
-2.13512e-07
-8.25921e-08
-2.17952e-07
-7.65152e-08
-2.21701e-07
-7.03745e-08
-2.24779e-07
-6.41923e-08
-2.27209e-07
-5.80142e-08
-2.29016e-07
-5.18656e-08
-2.30227e-07
-4.57878e-08
-2.30872e-07
-3.98079e-08
-2.30981e-07
-3.3961e-08
-2.30586e-07
-2.29718e-07
-2.82738e-08
-1.35804e-07
-1.42858e-07
1.39208e-07
-1.31964e-07
-1.54786e-07
-1.27726e-07
-1.65813e-07
-1.23092e-07
-1.75981e-07
-1.18109e-07
-1.85303e-07
-1.12787e-07
-1.93796e-07
-1.07176e-07
-2.0148e-07
-1.01289e-07
-2.0837e-07
-9.51776e-08
-2.14482e-07
-8.886e-08
-2.1983e-07
-8.23896e-08
-2.24432e-07
-7.57883e-08
-2.28304e-07
-6.911e-08
-2.31467e-07
-6.23816e-08
-2.33941e-07
-5.56551e-08
-2.35752e-07
-4.89613e-08
-2.36926e-07
-4.23481e-08
-2.37494e-07
-3.5848e-08
-2.37488e-07
-2.95019e-08
-2.36941e-07
-2.35889e-07
-2.33404e-08
-1.39377e-07
-1.46443e-07
1.42957e-07
-1.35325e-07
-1.58838e-07
-1.30831e-07
-1.70317e-07
-1.25895e-07
-1.80916e-07
-1.20565e-07
-1.90642e-07
-1.14849e-07
-1.9951e-07
-1.08803e-07
-2.07536e-07
-1.0244e-07
-2.14732e-07
-9.5819e-08
-2.21112e-07
-8.89589e-08
-2.2669e-07
-8.19199e-08