/*--------------------------------*- C++ -*----------------------------------*\
  =========                 |
  \\      /  F ield         | OpenFOAM: The Open Source CFD Toolbox
   \\    /   O peration     | Website:  https://openfoam.org
    \\  /    A nd           | Version:  6
     \\/     M anipulation  |
\*---------------------------------------------------------------------------*/
FoamFile
{
    version     2.0;
    format      ascii;
    class       volVectorField;
    location    "28";
    object      U;
}
// * * * * * * * * * * * * * * * * * * * * * * * * * * * * * * * * * * * * * //

dimensions      [0 1 -1 0 0 0 0];

internalField   nonuniform List<vector> 
130000
(
(-0.0203306 -0.342705 0)
(-0.0209424 -0.364985 0)
(-0.0215031 -0.386708 0)
(-0.0220127 -0.407788 0)
(-0.0224685 -0.428136 0)
(-0.0228769 -0.447673 0)
(-0.0232424 -0.466322 0)
(-0.0235692 -0.484013 0)
(-0.0238613 -0.500689 0)
(-0.0241227 -0.516302 0)
(-0.0243571 -0.530818 0)
(-0.0245677 -0.544218 0)
(-0.0247576 -0.556495 0)
(-0.0249297 -0.567659 0)
(-0.0250861 -0.57773 0)
(-0.0252292 -0.586743 0)
(-0.0253606 -0.594744 0)
(-0.025482 -0.601788 0)
(-0.0255952 -0.607939 0)
(-0.0257012 -0.613274 0)
(-0.0218718 -0.341197 0)
(-0.0223159 -0.363563 0)
(-0.0227505 -0.3854 0)
(-0.0231695 -0.406598 0)
(-0.0235547 -0.427066 0)
(-0.0239046 -0.446715 0)
(-0.0242205 -0.465468 0)
(-0.0245043 -0.483255 0)
(-0.0247588 -0.500015 0)
(-0.024987 -0.515703 0)
(-0.0251921 -0.530285 0)
(-0.0253769 -0.543742 0)
(-0.0255442 -0.556069 0)
(-0.0256965 -0.567275 0)
(-0.025836 -0.577383 0)
(-0.0259644 -0.586428 0)
(-0.0260834 -0.594456 0)
(-0.0261943 -0.601523 0)
(-0.0262988 -0.607693 0)
(-0.0263984 -0.613042 0)
(-0.024073 -0.340453 0)
(-0.0244286 -0.362803 0)
(-0.0247701 -0.384663 0)
(-0.0250977 -0.405904 0)
(-0.0253982 -0.426423 0)
(-0.025671 -0.446127 0)
(-0.0259171 -0.464934 0)
(-0.0261382 -0.48277 0)
(-0.0263366 -0.499576 0)
(-0.0265147 -0.515305 0)
(-0.0266751 -0.529923 0)
(-0.0268203 -0.543411 0)
(-0.0269526 -0.555765 0)
(-0.0270742 -0.566994 0)
(-0.0271869 -0.577122 0)
(-0.0272924 -0.586183 0)
(-0.0273919 -0.594225 0)
(-0.0274866 -0.601304 0)
(-0.0275784 -0.607485 0)
(-0.027668 -0.612842 0)
(-0.0271318 -0.339858 0)
(-0.0273384 -0.362228 0)
(-0.0275409 -0.384119 0)
(-0.0277408 -0.4054 0)
(-0.0279253 -0.425963 0)
(-0.0280929 -0.445711 0)
(-0.0282441 -0.46456 0)
(-0.0283796 -0.482436 0)
(-0.0285008 -0.499278 0)
(-0.0286095 -0.515037 0)
(-0.0287076 -0.529682 0)
(-0.0287971 -0.543192 0)
(-0.0288796 -0.555564 0)
(-0.028957 -0.566807 0)
(-0.0290306 -0.576946 0)
(-0.0291018 -0.586016 0)
(-0.0291716 -0.594064 0)
(-0.0292409 -0.601147 0)
(-0.0293111 -0.607329 0)
(-0.0293826 -0.612686 0)
(-0.030669 -0.339582 0)
(-0.0307499 -0.361951 0)
(-0.0308232 -0.383852 0)
(-0.0308971 -0.405151 0)
(-0.0309615 -0.425736 0)
(-0.0310164 -0.445508 0)
(-0.0310625 -0.464379 0)
(-0.0311008 -0.482276 0)
(-0.0311326 -0.499136 0)
(-0.0311594 -0.514911 0)
(-0.0311828 -0.529567 0)
(-0.0312042 -0.543086 0)
(-0.0312253 -0.555463 0)
(-0.0312472 -0.566709 0)
(-0.0312711 -0.576848 0)
(-0.0312979 -0.585917 0)
(-0.0313283 -0.593962 0)
(-0.0313628 -0.60104 0)
(-0.0314023 -0.607218 0)
(-0.0314467 -0.612569 0)
(-0.0345684 -0.339547 0)
(-0.0345302 -0.361926 0)
(-0.0344802 -0.383839 0)
(-0.0344313 -0.405151 0)
(-0.0343765 -0.425747 0)
(-0.034317 -0.44553 0)
(-0.0342545 -0.46441 0)
(-0.0341905 -0.482313 0)
(-0.0341266 -0.499176 0)
(-0.0340643 -0.514951 0)
(-0.0340053 -0.529605 0)
(-0.0339508 -0.543119 0)
(-0.0339023 -0.555489 0)
(-0.0338605 -0.566726 0)
(-0.0338263 -0.576855 0)
(-0.0338004 -0.585911 0)
(-0.033783 -0.593943 0)
(-0.0337744 -0.601008 0)
(-0.033775 -0.607172 0)
(-0.0337844 -0.61251 0)
(-0.0386965 -0.339751 0)
(-0.0385516 -0.362145 0)
(-0.0383885 -0.38407 0)
(-0.0382257 -0.405391 0)
(-0.0380581 -0.425993 0)
(-0.0378886 -0.445777 0)
(-0.0377199 -0.464655 0)
(-0.0375542 -0.482553 0)
(-0.0373935 -0.499407 0)
(-0.0372399 -0.515171 0)
(-0.0370949 -0.52981 0)
(-0.0369601 -0.543307 0)
(-0.0368365 -0.555658 0)
(-0.0367251 -0.566875 0)
(-0.0366265 -0.576982 0)
(-0.0365411 -0.586016 0)
(-0.036469 -0.594025 0)
(-0.03641 -0.601068 0)
(-0.0363643 -0.607211 0)
(-0.0363314 -0.612528 0)
(-0.0429623 -0.340154 0)
(-0.042722 -0.362573 0)
(-0.042459 -0.384517 0)
(-0.0421935 -0.405847 0)
(-0.0419225 -0.426453 0)
(-0.0416504 -0.446234 0)
(-0.0413807 -0.465105 0)
(-0.0411168 -0.48299 0)
(-0.0408612 -0.499827 0)
(-0.0406165 -0.51557 0)
(-0.0403847 -0.530185 0)
(-0.0401674 -0.543655 0)
(-0.0399659 -0.555977 0)
(-0.039781 -0.567163 0)
(-0.0396135 -0.577238 0)
(-0.0394636 -0.586241 0)
(-0.0393312 -0.59422 0)
(-0.039216 -0.601232 0)
(-0.0391182 -0.607345 0)
(-0.0390368 -0.612634 0)
(-0.0473083 -0.340725 0)
(-0.0469857 -0.363182 0)
(-0.0466339 -0.385152 0)
(-0.0462757 -0.406499 0)
(-0.04591 -0.427111 0)
(-0.0455424 -0.446889 0)
(-0.0451776 -0.46575 0)
(-0.0448198 -0.483617 0)
(-0.0444724 -0.500432 0)
(-0.0441383 -0.516147 0)
(-0.0438202 -0.53073 0)
(-0.0435198 -0.544165 0)
(-0.0432388 -0.55645 0)
(-0.0429783 -0.567598 0)
(-0.0427388 -0.577634 0)
(-0.0425207 -0.586597 0)
(-0.042324 -0.594536 0)
(-0.0421482 -0.60151 0)
(-0.0419934 -0.607586 0)
(-0.0418584 -0.612839 0)
(-0.0517102 -0.341446 0)
(-0.0513093 -0.363954 0)
(-0.0508754 -0.38596 0)
(-0.0504318 -0.407329 0)
(-0.0499782 -0.427951 0)
(-0.0495211 -0.447729 0)
(-0.0490666 -0.466579 0)
(-0.0486191 -0.484428 0)
(-0.0481831 -0.501216 0)
(-0.047762 -0.516898 0)
(-0.0473589 -0.531445 0)
(-0.0469759 -0.544839 0)
(-0.0466151 -0.557081 0)
(-0.0462776 -0.568183 0)
(-0.0459644 -0.578173 0)
(-0.0456757 -0.587089 0)
(-0.0454117 -0.594982 0)
(-0.0451719 -0.601911 0)
(-0.0449564 -0.607942 0)
(-0.044764 -0.613153 0)
(-0.0561281 -0.342306 0)
(-0.0556611 -0.364876 0)
(-0.055153 -0.386927 0)
(-0.0546308 -0.408326 0)
(-0.0540954 -0.428963 0)
(-0.0535544 -0.448743 0)
(-0.0530147 -0.467583 0)
(-0.0524817 -0.485413 0)
(-0.0519603 -0.502173 0)
(-0.0514545 -0.517821 0)
(-0.050968 -0.532327 0)
(-0.0505033 -0.545676 0)
(-0.0500627 -0.557869 0)
(-0.0496477 -0.568921 0)
(-0.0492595 -0.578858 0)
(-0.0488984 -0.587722 0)
(-0.0485649 -0.595562 0)
(-0.0482584 -0.60244 0)
(-0.047979 -0.608421 0)
(-0.0477258 -0.613584 0)
(-0.0605621 -0.343292 0)
(-0.0600272 -0.365934 0)
(-0.0594487 -0.388041 0)
(-0.0588527 -0.409477 0)
(-0.0582402 -0.430134 0)
(-0.0576197 -0.449921 0)
(-0.0569989 -0.468754 0)
(-0.0563837 -0.486565 0)
(-0.0557797 -0.503298 0)
(-0.0551914 -0.51891 0)
(-0.054623 -0.533373 0)
(-0.0540774 -0.546674 0)
(-0.0535574 -0.558815 0)
(-0.0530646 -0.569812 0)
(-0.0526006 -0.579693 0)
(-0.0521659 -0.588499 0)
(-0.0517611 -0.596281 0)
(-0.0513858 -0.603102 0)
(-0.0510402 -0.609027 0)
(-0.0507234 -0.614136 0)
(-0.0649846 -0.34439 0)
(-0.0643913 -0.367117 0)
(-0.0637488 -0.389289 0)
(-0.0630839 -0.41077 0)
(-0.0623986 -0.431456 0)
(-0.0617022 -0.451253 0)
(-0.0610033 -0.470084 0)
(-0.0603085 -0.48788 0)
(-0.0596239 -0.504586 0)
(-0.0589547 -0.520162 0)
(-0.0583054 -0.534581 0)
(-0.0576796 -0.547832 0)
(-0.0570801 -0.559919 0)
(-0.0565093 -0.570857 0)
(-0.0559686 -0.580678 0)
(-0.0554591 -0.589422 0)
(-0.0549814 -0.597143 0)
(-0.0545354 -0.603901 0)
(-0.0541213 -0.609766 0)
(-0.0537385 -0.614815 0)
(-0.0694073 -0.345595 0)
(-0.0687566 -0.368419 0)
(-0.0680518 -0.390666 0)
(-0.0673198 -0.412203 0)
(-0.0665636 -0.432923 0)
(-0.0657932 -0.452738 0)
(-0.0650179 -0.471569 0)
(-0.0642448 -0.489352 0)
(-0.0634808 -0.506033 0)
(-0.0627314 -0.521574 0)
(-0.0620019 -0.535949 0)
(-0.0612959 -0.54915 0)
(-0.060617 -0.56118 0)
(-0.0599675 -0.572058 0)
(-0.0593494 -0.581815 0)
(-0.0587639 -0.590494 0)
(-0.0582118 -0.598149 0)
(-0.0576932 -0.604841 0)
(-0.0572087 -0.610641 0)
(-0.0567576 -0.615625 0)
(-0.073825 -0.346912 0)
(-0.0731189 -0.369843 0)
(-0.0723525 -0.392175 0)
(-0.0715545 -0.413773 0)
(-0.0707284 -0.434535 0)
(-0.069885 -0.454372 0)
(-0.0690342 -0.473208 0)
(-0.0681837 -0.490981 0)
(-0.0673408 -0.507639 0)
(-0.0665116 -0.523145 0)
(-0.0657018 -0.537477 0)
(-0.0649154 -0.550626 0)
(-0.0641564 -0.562599 0)
(-0.0634274 -0.573415 0)
(-0.0627307 -0.583106 0)
(-0.0620677 -0.591717 0)
(-0.0614396 -0.599303 0)
(-0.0608466 -0.605926 0)
(-0.0602894 -0.611656 0)
(-0.0597676 -0.616573 0)
(-0.0782336 -0.348338 0)
(-0.0774725 -0.371387 0)
(-0.076646 -0.393812 0)
(-0.0757828 -0.415479 0)
(-0.0748877 -0.436288 0)
(-0.0739721 -0.456153 0)
(-0.0730464 -0.474999 0)
(-0.0721186 -0.492765 0)
(-0.0711969 -0.509403 0)
(-0.0702878 -0.524877 0)
(-0.0693972 -0.539166 0)
(-0.0685298 -0.552264 0)
(-0.0676898 -0.564178 0)
(-0.0668801 -0.57493 0)
(-0.0661034 -0.584554 0)
(-0.0653613 -0.593096 0)
(-0.0646554 -0.600609 0)
(-0.063986 -0.60716 0)
(-0.0633539 -0.612817 0)
(-0.0627591 -0.617661 0)
(-0.0826402 -0.349867 0)
(-0.0818194 -0.373045 0)
(-0.0809318 -0.395573 0)
(-0.0800034 -0.417318 0)
(-0.0790393 -0.438181 0)
(-0.0780515 -0.45808 0)
(-0.0770506 -0.476941 0)
(-0.0760454 -0.494705 0)
(-0.0750443 -0.511325 0)
(-0.0740544 -0.526768 0)
(-0.073082 -0.541016 0)
(-0.0721323 -0.554063 0)
(-0.0712098 -0.56592 0)
(-0.0703178 -0.576608 0)
(-0.0694592 -0.586163 0)
(-0.0686362 -0.594632 0)
(-0.0678502 -0.602072 0)
(-0.067102 -0.608546 0)
(-0.0663927 -0.614127 0)
(-0.0657223 -0.618895 0)
(-0.0870352 -0.351495 0)
(-0.0861589 -0.374814 0)
(-0.0852118 -0.397455 0)
(-0.084218 -0.419288 0)
(-0.0831844 -0.440214 0)
(-0.0821232 -0.460154 0)
(-0.081046 -0.479035 0)
(-0.079962 -0.496801 0)
(-0.07888 -0.513407 0)
(-0.0778076 -0.528823 0)
(-0.0767518 -0.543031 0)
(-0.075718 -0.556029 0)
(-0.0747111 -0.567827 0)
(-0.0737346 -0.578451 0)
(-0.0727921 -0.587936 0)
(-0.0718856 -0.596332 0)
(-0.0710171 -0.603695 0)
(-0.0701876 -0.610091 0)
(-0.0693984 -0.615593 0)
(-0.0686497 -0.620281 0)
(-0.0914412 -0.353229 0)
(-0.0905045 -0.376701 0)
(-0.0894931 -0.399466 0)
(-0.0884307 -0.421395 0)
(-0.0873245 -0.442392 0)
(-0.0861875 -0.462378 0)
(-0.0850315 -0.481286 0)
(-0.0838664 -0.499059 0)
(-0.0827014 -0.515655 0)
(-0.0815444 -0.531045 0)
(-0.0804028 -0.545215 0)
(-0.0792824 -0.558164 0)
(-0.0781885 -0.569905 0)
(-0.0771251 -0.580464 0)
(-0.0760957 -0.589879 0)
(-0.075103 -0.5982 0)
(-0.0741492 -0.605484 0)
(-0.0732354 -0.6118 0)
(-0.0723631 -0.61722 0)
(-0.0715329 -0.621825 0)
(-0.0958462 -0.355082 0)
(-0.0948496 -0.378717 0)
(-0.0937723 -0.401615 0)
(-0.092639 -0.423648 0)
(-0.0914579 -0.444722 0)
(-0.0902425 -0.46476 0)
(-0.0890054 -0.483698 0)
(-0.0877566 -0.501482 0)
(-0.086506 -0.518072 0)
(-0.0852617 -0.53344 0)
(-0.0840316 -0.547574 0)
(-0.0828218 -0.560476 0)
(-0.081638 -0.57216 0)
(-0.0804845 -0.582654 0)
(-0.0793653 -0.591998 0)
(-0.0782831 -0.600242 0)
(-0.0772406 -0.607447 0)
(-0.0762392 -0.613679 0)
(-0.0752806 -0.619014 0)
(-0.0743657 -0.623533 0)
(-0.100253 -0.357052 0)
(-0.0991913 -0.380861 0)
(-0.0980459 -0.403902 0)
(-0.0968401 -0.426047 0)
(-0.0955821 -0.447206 0)
(-0.0942862 -0.467303 0)
(-0.0929655 -0.486277 0)
(-0.0916305 -0.504076 0)
(-0.0902913 -0.520663 0)
(-0.0889568 -0.536012 0)
(-0.087635 -0.550113 0)
(-0.0863325 -0.562969 0)
(-0.0850553 -0.574597 0)
(-0.0838083 -0.585026 0)
(-0.0825955 -0.594298 0)
(-0.0814203 -0.602465 0)
(-0.0802855 -0.609588 0)
(-0.0791927 -0.615736 0)
(-0.0781438 -0.620983 0)
(-0.0771403 -0.625412 0)
(-0.104654 -0.359133 0)
(-0.103529 -0.38313 0)
(-0.102316 -0.406326 0)
(-0.101036 -0.428594 0)
(-0.0996989 -0.449847 0)
(-0.0983197 -0.470011 0)
(-0.0969121 -0.489028 0)
(-0.0954873 -0.506848 0)
(-0.0940561 -0.523436 0)
(-0.0926276 -0.538769 0)
(-0.0912104 -0.552839 0)
(-0.0898114 -0.565651 0)
(-0.0884371 -0.577224 0)
(-0.0870924 -0.587589 0)
(-0.0857822 -0.596789 0)
(-0.0845098 -0.604878 0)
(-0.0832784 -0.611918 0)
(-0.0820901 -0.617978 0)
(-0.080947 -0.623134 0)
(-0.0798509 -0.627471 0)
(-0.109071 -0.361331 0)
(-0.107878 -0.385532 0)
(-0.106591 -0.408895 0)
(-0.105232 -0.431298 0)
(-0.103812 -0.452653 0)
(-0.102345 -0.472893 0)
(-0.100846 -0.491958 0)
(-0.0993275 -0.509804 0)
(-0.0977998 -0.526398 0)
(-0.096273 -0.541719 0)
(-0.0947559 -0.555761 0)
(-0.0932559 -0.568532 0)
(-0.0917798 -0.580051 0)
(-0.090333 -0.590352 0)
(-0.0889206 -0.59948 0)
(-0.0875463 -0.607489 0)
(-0.0862138 -0.614444 0)
(-0.0849253 -0.620414 0)
(-0.0836832 -0.625477 0)
(-0.0824897 -0.629717 0)
(-0.113496 -0.363665 0)
(-0.112234 -0.388081 0)
(-0.11087 -0.411621 0)
(-0.109429 -0.434168 0)
(-0.10792 -0.455635 0)
(-0.106362 -0.475957 0)
(-0.104767 -0.495078 0)
(-0.10315 -0.512956 0)
(-0.101521 -0.52956 0)
(-0.0998912 -0.544872 0)
(-0.0982693 -0.558889 0)
(-0.0966633 -0.57162 0)
(-0.0950804 -0.583086 0)
(-0.0935263 -0.593324 0)
(-0.0920065 -0.60238 0)
(-0.0905252 -0.610309 0)
(-0.0890863 -0.617177 0)
(-0.0876925 -0.623056 0)
(-0.0863465 -0.628022 0)
(-0.0850509 -0.632162 0)
(-0.117934 -0.366134 0)
(-0.116594 -0.39078 0)
(-0.11515 -0.414511 0)
(-0.113623 -0.437212 0)
(-0.112023 -0.4588 0)
(-0.110368 -0.479212 0)
(-0.108674 -0.498396 0)
(-0.106954 -0.516312 0)
(-0.105219 -0.532931 0)
(-0.10348 -0.548239 0)
(-0.101748 -0.562233 0)
(-0.100031 -0.574926 0)
(-0.0983351 -0.586342 0)
(-0.0966682 -0.596517 0)
(-0.0950353 -0.6055 0)
(-0.0934413 -0.613348 0)
(-0.0918905 -0.620128 0)
(-0.0903858 -0.625912 0)
(-0.0889302 -0.630779 0)
(-0.0875267 -0.634815 0)
(-0.122375 -0.368739 0)
(-0.12096 -0.393631 0)
(-0.119434 -0.417567 0)
(-0.117817 -0.440435 0)
(-0.116122 -0.462156 0)
(-0.114367 -0.482669 0)
(-0.112567 -0.501924 0)
(-0.110738 -0.519883 0)
(-0.108891 -0.536523 0)
(-0.107038 -0.55183 0)
(-0.10519 -0.565806 0)
(-0.103355 -0.578463 0)
(-0.101541 -0.589829 0)
(-0.0997548 -0.599943 0)
(-0.0980027 -0.608853 0)
(-0.0962898 -0.61662 0)
(-0.0946207 -0.623309 0)
(-0.092999 -0.628996 0)
(-0.0914278 -0.633761 0)
(-0.0899105 -0.637689 0)
(-0.126842 -0.371489 0)
(-0.125344 -0.396645 0)
(-0.123729 -0.420801 0)
(-0.122016 -0.44385 0)
(-0.120219 -0.465715 0)
(-0.118357 -0.486337 0)
(-0.116447 -0.505671 0)
(-0.114503 -0.523682 0)
(-0.112538 -0.540349 0)
(-0.110564 -0.55566 0)
(-0.108593 -0.56962 0)
(-0.106634 -0.582245 0)
(-0.104694 -0.593563 0)
(-0.102782 -0.603615 0)
(-0.100904 -0.612452 0)
(-0.0990655 -0.620136 0)
(-0.0972714 -0.626733 0)
(-0.0955259 -0.632321 0)
(-0.0938322 -0.636979 0)
(-0.0921945 -0.640795 0)
(-0.131322 -0.3744 0)
(-0.129741 -0.399837 0)
(-0.128032 -0.424228 0)
(-0.126219 -0.44747 0)
(-0.124315 -0.469489 0)
(-0.12234 -0.490231 0)
(-0.120312 -0.509652 0)
(-0.118246 -0.527722 0)
(-0.116156 -0.54442 0)
(-0.114055 -0.559741 0)
(-0.111954 -0.573689 0)
(-0.109863 -0.586283 0)
(-0.107791 -0.597555 0)
(-0.105746 -0.607547 0)
(-0.103734 -0.616311 0)
(-0.101763 -0.62391 0)
(-0.0998364 -0.630414 0)
(-0.0979598 -0.635899 0)
(-0.0961365 -0.640447 0)
(-0.0943713 -0.644148 0)
(-0.135823 -0.377477 0)
(-0.134151 -0.403213 0)
(-0.132344 -0.427855 0)
(-0.130424 -0.451306 0)
(-0.128407 -0.473491 0)
(-0.126313 -0.494363 0)
(-0.124161 -0.51388 0)
(-0.121966 -0.532016 0)
(-0.119744 -0.548753 0)
(-0.117508 -0.564087 0)
(-0.115269 -0.578027 0)
(-0.113039 -0.590594 0)
(-0.110827 -0.601822 0)
(-0.10864 -0.611753 0)
(-0.106487 -0.620444 0)
(-0.104375 -0.627958 0)
(-0.102308 -0.634366 0)
(-0.100293 -0.639746 0)
(-0.0983319 -0.644181 0)
(-0.0964314 -0.647761 0)
(-0.140344 -0.380727 0)
(-0.138577 -0.406783 0)
(-0.136666 -0.431694 0)
(-0.134634 -0.455367 0)
(-0.132496 -0.477733 0)
(-0.130276 -0.498745 0)
(-0.127992 -0.518368 0)
(-0.125662 -0.536578 0)
(-0.123299 -0.55336 0)
(-0.12092 -0.568714 0)
(-0.118535 -0.582651 0)
(-0.116157 -0.595193 0)
(-0.113796 -0.606378 0)
(-0.11146 -0.616251 0)
(-0.109157 -0.624868 0)
(-0.106895 -0.632295 0)
(-0.104679 -0.638606 0)
(-0.102516 -0.643878 0)
(-0.10041 -0.648195 0)
(-0.0983657 -0.651649 0)
(-0.144891 -0.384159 0)
(-0.143021 -0.410557 0)
(-0.140999 -0.435755 0)
(-0.138848 -0.459667 0)
(-0.136584 -0.482227 0)
(-0.13423 -0.503393 0)
(-0.131806 -0.523132 0)
(-0.129331 -0.541424 0)
(-0.12682 -0.558259 0)
(-0.124288 -0.573638 0)
(-0.121749 -0.587576 0)
(-0.119214 -0.600098 0)
(-0.116694 -0.611242 0)
(-0.114198 -0.621057 0)
(-0.111736 -0.6296 0)
(-0.109315 -0.63694 0)
(-0.106941 -0.643151 0)
(-0.104621 -0.648311 0)
(-0.10236 -0.652507 0)
(-0.100164 -0.65583 0)
(-0.149464 -0.387785 0)
(-0.147487 -0.414547 0)
(-0.145348 -0.440052 0)
(-0.14307 -0.46422 0)
(-0.140671 -0.486989 0)
(-0.138175 -0.508321 0)
(-0.135603 -0.528188 0)
(-0.132973 -0.546573 0)
(-0.130304 -0.563468 0)
(-0.12761 -0.578879 0)
(-0.124906 -0.592823 0)
(-0.122204 -0.605327 0)
(-0.119515 -0.616433 0)
(-0.11685 -0.626191 0)
(-0.114219 -0.634661 0)
(-0.111628 -0.641912 0)
(-0.109086 -0.648019 0)
(-0.1066 -0.653065 0)
(-0.104174 -0.657135 0)
(-0.101816 -0.66032 0)
(-0.15407 -0.391616 0)
(-0.151977 -0.418767 0)
(-0.149714 -0.4446 0)
(-0.147301 -0.469043 0)
(-0.144758 -0.492037 0)
(-0.142111 -0.513549 0)
(-0.139381 -0.533556 0)
(-0.136588 -0.552043 0)
(-0.133751 -0.569007 0)
(-0.130884 -0.584457 0)
(-0.128005 -0.598411 0)
(-0.125125 -0.610903 0)
(-0.122256 -0.621973 0)
(-0.119411 -0.631674 0)
(-0.116598 -0.64007 0)
(-0.113827 -0.647231 0)
(-0.111106 -0.653233 0)
(-0.108442 -0.65816 0)
(-0.105841 -0.662098 0)
(-0.10331 -0.665141 0)
(-0.158709 -0.395666 0)
(-0.156495 -0.423231 0)
(-0.1541 -0.449415 0)
(-0.151544 -0.474151 0)
(-0.148849 -0.497388 0)
(-0.14604 -0.519096 0)
(-0.143142 -0.539254 0)
(-0.140175 -0.557855 0)
(-0.137158 -0.574897 0)
(-0.134108 -0.590392 0)
(-0.131041 -0.604364 0)
(-0.127972 -0.616846 0)
(-0.124912 -0.627883 0)
(-0.121874 -0.637531 0)
(-0.118868 -0.645853 0)
(-0.115905 -0.652921 0)
(-0.112993 -0.658816 0)
(-0.110139 -0.663619 0)
(-0.107351 -0.667421 0)
(-0.104636 -0.670313 0)
(-0.163389 -0.399948 0)
(-0.161044 -0.427955 0)
(-0.158508 -0.454513 0)
(-0.1558 -0.479565 0)
(-0.152942 -0.503062 0)
(-0.149963 -0.524981 0)
(-0.146886 -0.545306 0)
(-0.143733 -0.564031 0)
(-0.140525 -0.581161 0)
(-0.137279 -0.596711 0)
(-0.134013 -0.610706 0)
(-0.130741 -0.623184 0)
(-0.127477 -0.634191 0)
(-0.124233 -0.643785 0)
(-0.121022 -0.652033 0)
(-0.117853 -0.659008 0)
(-0.114736 -0.664791 0)
(-0.11168 -0.669468 0)
(-0.108692 -0.673126 0)
(-0.105781 -0.675862 0)
(-0.16811 -0.404477 0)
(-0.165629 -0.432955 0)
(-0.162943 -0.459913 0)
(-0.160073 -0.485303 0)
(-0.157043 -0.509081 0)
(-0.15388 -0.531228 0)
(-0.150613 -0.551734 0)
(-0.147262 -0.570597 0)
(-0.14385 -0.587825 0)
(-0.140395 -0.603438 0)
(-0.136915 -0.617463 0)
(-0.133427 -0.629941 0)
(-0.129945 -0.640921 0)
(-0.126482 -0.650464 0)
(-0.12305 -0.658638 0)
(-0.119662 -0.665518 0)
(-0.116326 -0.671187 0)
(-0.113054 -0.675731 0)
(-0.109852 -0.679241 0)
(-0.106731 -0.681812 0)
(-0.172881 -0.409268 0)
(-0.170253 -0.438249 0)
(-0.167407 -0.465635 0)
(-0.164365 -0.491387 0)
(-0.16115 -0.515467 0)
(-0.157793 -0.537861 0)
(-0.154322 -0.558563 0)
(-0.15076 -0.577578 0)
(-0.14713 -0.594916 0)
(-0.143452 -0.610601 0)
(-0.139745 -0.624664 0)
(-0.136026 -0.637147 0)
(-0.13231 -0.648105 0)
(-0.128612 -0.657598 0)
(-0.124944 -0.665698 0)
(-0.121321 -0.672482 0)
(-0.117752 -0.678033 0)
(-0.114248 -0.68244 0)
(-0.110817 -0.685794 0)
(-0.107471 -0.688192 0)
(-0.177703 -0.414339 0)
(-0.17492 -0.443857 0)
(-0.171904 -0.4717 0)
(-0.168679 -0.49784 0)
(-0.165268 -0.522244 0)
(-0.161703 -0.544904 0)
(-0.158015 -0.565821 0)
(-0.154228 -0.585002 0)
(-0.150365 -0.602463 0)
(-0.146448 -0.61823 0)
(-0.142497 -0.632339 0)
(-0.138531 -0.644835 0)
(-0.134565 -0.655773 0)
(-0.130615 -0.66522 0)
(-0.126696 -0.673245 0)
(-0.12282 -0.679931 0)
(-0.119001 -0.685361 0)
(-0.115249 -0.689625 0)
(-0.111573 -0.692816 0)
(-0.107986 -0.695032 0)
(-0.182584 -0.419706 0)
(-0.179634 -0.449797 0)
(-0.176438 -0.478128 0)
(-0.173017 -0.504685 0)
(-0.169397 -0.529438 0)
(-0.165612 -0.552387 0)
(-0.161692 -0.573537 0)
(-0.157663 -0.5929 0)
(-0.153552 -0.610497 0)
(-0.14938 -0.626358 0)
(-0.145168 -0.640522 0)
(-0.140937 -0.653037 0)
(-0.136703 -0.663961 0)
(-0.132484 -0.673362 0)
(-0.128294 -0.681315 0)
(-0.124149 -0.6879 0)
(-0.12006 -0.693205 0)
(-0.116042 -0.697321 0)
(-0.112104 -0.700341 0)
(-0.108258 -0.702364 0)
(-0.187528 -0.425389 0)
(-0.184403 -0.456091 0)
(-0.181015 -0.484945 0)
(-0.177386 -0.511948 0)
(-0.173542 -0.537077 0)
(-0.169521 -0.560338 0)
(-0.165353 -0.581741 0)
(-0.161067 -0.601305 0)
(-0.15669 -0.619053 0)
(-0.152244 -0.635021 0)
(-0.147754 -0.649249 0)
(-0.143238 -0.66179 0)
(-0.138717 -0.672706 0)
(-0.134209 -0.682065 0)
(-0.129729 -0.689945 0)
(-0.125293 -0.696428 0)
(-0.120916 -0.701604 0)
(-0.116612 -0.705565 0)
(-0.112392 -0.708406 0)
(-0.108269 -0.710226 0)
(-0.192544 -0.431409 0)
(-0.18923 -0.462762 0)
(-0.185637 -0.492175 0)
(-0.181786 -0.519657 0)
(-0.177705 -0.545191 0)
(-0.173432 -0.568789 0)
(-0.169 -0.590468 0)
(-0.164439 -0.610251 0)
(-0.159776 -0.628168 0)
(-0.155038 -0.644255 0)
(-0.150248 -0.658559 0)
(-0.145428 -0.671136 0)
(-0.140599 -0.682049 0)
(-0.13578 -0.691369 0)
(-0.130987 -0.699176 0)
(-0.12624 -0.705556 0)
(-0.121553 -0.710599 0)
(-0.116942 -0.714398 0)
(-0.112418 -0.717051 0)
(-0.107997 -0.718656 0)
(-0.197637 -0.437785 0)
(-0.194123 -0.469835 0)
(-0.190313 -0.499846 0)
(-0.186226 -0.527841 0)
(-0.181891 -0.553811 0)
(-0.177349 -0.577774 0)
(-0.172634 -0.599754 0)
(-0.167778 -0.619778 0)
(-0.162811 -0.63788 0)
(-0.157759 -0.654103 0)
(-0.152648 -0.668496 0)
(-0.147501 -0.681117 0)
(-0.14234 -0.692033 0)
(-0.137186 -0.701319 0)
(-0.132058 -0.709055 0)
(-0.126976 -0.71533 0)
(-0.121955 -0.720235 0)
(-0.117012 -0.723865 0)
(-0.112162 -0.726319 0)
(-0.107421 -0.727697 0)
(-0.202815 -0.444541 0)
(-0.199089 -0.477333 0)
(-0.195047 -0.507985 0)
(-0.190708 -0.536531 0)
(-0.186103 -0.562971 0)
(-0.181274 -0.58733 0)
(-0.176257 -0.609636 0)
(-0.171086 -0.629925 0)
(-0.165792 -0.648234 0)
(-0.160403 -0.664609 0)
(-0.154947 -0.679105 0)
(-0.149448 -0.691782 0)
(-0.143931 -0.702709 0)
(-0.138417 -0.711965 0)
(-0.132928 -0.719632 0)
(-0.127483 -0.725799 0)
(-0.122102 -0.730561 0)
(-0.116803 -0.734015 0)
(-0.1116 -0.736259 0)
(-0.106513 -0.737396 0)
(-0.208087 -0.4517 0)
(-0.204135 -0.485286 0)
(-0.199847 -0.516622 0)
(-0.195241 -0.545761 0)
(-0.190348 -0.572708 0)
(-0.185212 -0.597495 0)
(-0.179872 -0.620158 0)
(-0.174363 -0.640737 0)
(-0.168718 -0.659275 0)
(-0.162968 -0.675823 0)
(-0.157141 -0.690436 0)
(-0.151264 -0.703181 0)
(-0.145362 -0.714129 0)
(-0.13946 -0.72336 0)
(-0.13358 -0.73096 0)
(-0.127745 -0.737019 0)
(-0.121976 -0.741634 0)
(-0.116291 -0.744902 0)
(-0.110708 -0.746925 0)
(-0.105247 -0.747805 0)
(-0.213462 -0.459287 0)
(-0.209269 -0.493719 0)
(-0.20472 -0.52579 0)
(-0.199829 -0.555566 0)
(-0.194629 -0.583059 0)
(-0.189166 -0.608311 0)
(-0.183481 -0.631364 0)
(-0.177611 -0.652263 0)
(-0.17159 -0.671055 0)
(-0.16545 -0.687796 0)
(-0.159224 -0.702546 0)
(-0.152939 -0.715373 0)
(-0.146622 -0.726352 0)
(-0.140301 -0.735565 0)
(-0.133999 -0.7431 0)
(-0.127742 -0.749049 0)
(-0.121551 -0.753511 0)
(-0.11545 -0.756586 0)
(-0.109455 -0.758375 0)
(-0.103591 -0.75898 0)
(-0.218947 -0.467327 0)
(-0.214501 -0.502664 0)
(-0.209674 -0.535521 0)
(-0.204481 -0.565981 0)
(-0.198954 -0.594066 0)
(-0.193142 -0.619823 0)
(-0.187088 -0.643302 0)
(-0.18083 -0.664552 0)
(-0.174405 -0.683628 0)
(-0.167847 -0.700588 0)
(-0.16119 -0.715495 0)
(-0.154464 -0.728421 0)
(-0.1477 -0.739443 0)
(-0.140924 -0.748646 0)
(-0.134166 -0.756119 0)
(-0.127451 -0.761958 0)
(-0.120804 -0.766262 0)
(-0.11425 -0.769132 0)
(-0.10781 -0.770672 0)
(-0.101508 -0.770986 0)
(-0.224555 -0.475846 0)
(-0.21984 -0.512148 0)
(-0.214719 -0.545848 0)
(-0.209205 -0.577046 0)
(-0.203331 -0.60577 0)
(-0.197146 -0.632078 0)
(-0.190697 -0.656023 0)
(-0.184023 -0.677663 0)
(-0.177163 -0.697055 0)
(-0.170155 -0.714262 0)
(-0.163032 -0.72935 0)
(-0.15583 -0.742394 0)
(-0.148579 -0.753473 0)
(-0.141312 -0.762675 0)
(-0.134057 -0.770092 0)
(-0.126845 -0.775819 0)
(-0.119703 -0.779959 0)
(-0.112658 -0.782615 0)
(-0.105733 -0.783891 0)
(-0.0989565 -0.783891 0)
(-0.230296 -0.48487 0)
(-0.225297 -0.522202 0)
(-0.219867 -0.556807 0)
(-0.214012 -0.588801 0)
(-0.207768 -0.618219 0)
(-0.201186 -0.645127 0)
(-0.194313 -0.669586 0)
(-0.187192 -0.691657 0)
(-0.179864 -0.711402 0)
(-0.172368 -0.728888 0)
(-0.164742 -0.744185 0)
(-0.157022 -0.75737 0)
(-0.149244 -0.768524 0)
(-0.141441 -0.777736 0)
(-0.133646 -0.785101 0)
(-0.125892 -0.790717 0)
(-0.118211 -0.794687 0)
(-0.110631 -0.797115 0)
(-0.103179 -0.798109 0)
(-0.0958873 -0.797772 0)
(-0.236185 -0.494428 0)
(-0.230886 -0.53286 0)
(-0.225127 -0.568436 0)
(-0.218912 -0.601289 0)
(-0.212274 -0.631461 0)
(-0.205267 -0.659026 0)
(-0.19794 -0.68405 0)
(-0.190338 -0.706601 0)
(-0.182504 -0.726743 0)
(-0.17448 -0.744547 0)
(-0.166307 -0.760085 0)
(-0.158025 -0.773436 0)
(-0.149671 -0.784684 0)
(-0.141284 -0.79392 0)
(-0.1329 -0.80124 0)
(-0.124555 -0.806744 0)
(-0.116284 -0.810536 0)
(-0.108121 -0.812724 0)
(-0.100095 -0.813415 0)
(-0.0922408 -0.812715 0)
(-0.242231 -0.504546 0)
(-0.236618 -0.544152 0)
(-0.230513 -0.580772 0)
(-0.223917 -0.614555 0)
(-0.21686 -0.645549 0)
(-0.209399 -0.673834 0)
(-0.201584 -0.699485 0)
(-0.193462 -0.72257 0)
(-0.18508 -0.74316 0)
(-0.176483 -0.761326 0)
(-0.167714 -0.777143 0)
(-0.158817 -0.790691 0)
(-0.149834 -0.802057 0)
(-0.140807 -0.811333 0)
(-0.131776 -0.818615 0)
(-0.122784 -0.824006 0)
(-0.113868 -0.827613 0)
(-0.105067 -0.829544 0)
(-0.0964126 -0.829909 0)
(-0.0879457 -0.828815 0)
(-0.248452 -0.515251 0)
(-0.242509 -0.556111 0)
(-0.23604 -0.593855 0)
(-0.229038 -0.628646 0)
(-0.221535 -0.660539 0)
(-0.213587 -0.68962 0)
(-0.205247 -0.715966 0)
(-0.196563 -0.739651 0)
(-0.187585 -0.760747 0)
(-0.178362 -0.779327 0)
(-0.16894 -0.795467 0)
(-0.159369 -0.809249 0)
(-0.149694 -0.82076 0)
(-0.139964 -0.830092 0)
(-0.130223 -0.837346 0)
(-0.120518 -0.842624 0)
(-0.110893 -0.846034 0)
(-0.101391 -0.847688 0)
(-0.0920491 -0.847699 0)
(-0.0829125 -0.846174 0)
(-0.25486 -0.526568 0)
(-0.248573 -0.568768 0)
(-0.241721 -0.607726 0)
(-0.234292 -0.643614 0)
(-0.226313 -0.676494 0)
(-0.217841 -0.706455 0)
(-0.208932 -0.733578 0)
(-0.199637 -0.757939 0)
(-0.190008 -0.77961 0)
(-0.180098 -0.798665 0)
(-0.169959 -0.815181 0)
(-0.159644 -0.829239 0)
(-0.149206 -0.840926 0)
(-0.138698 -0.850336 0)
(-0.128171 -0.85757 0)
(-0.117678 -0.862732 0)
(-0.107271 -0.865933 0)
(-0.0969974 -0.867287 0)
(-0.0869005 -0.866908 0)
(-0.0770307 -0.864908 0)
(-0.261478 -0.538524 0)
(-0.25483 -0.582158 0)
(-0.247576 -0.622427 0)
(-0.239692 -0.659516 0)
(-0.231203 -0.693484 0)
(-0.222167 -0.724425 0)
(-0.21264 -0.75242 0)
(-0.202677 -0.777546 0)
(-0.192332 -0.799873 0)
(-0.181665 -0.819475 0)
(-0.170732 -0.836427 0)
(-0.159593 -0.850811 0)
(-0.148306 -0.862712 0)
(-0.136933 -0.872224 0)
(-0.125532 -0.879447 0)
(-0.114166 -0.88449 0)
(-0.10289 -0.887463 0)
(-0.0917638 -0.888484 0)
(-0.0808346 -0.887674 0)
(-0.0701603 -0.885145 0)
(-0.268316 -0.55114 0)
(-0.261296 -0.596309 0)
(-0.253621 -0.638004 0)
(-0.245255 -0.67641 0)
(-0.236219 -0.711587 0)
(-0.22657 -0.743625 0)
(-0.216367 -0.772604 0)
(-0.205668 -0.798599 0)
(-0.194533 -0.821678 0)
(-0.183025 -0.841913 0)
(-0.171208 -0.859374 0)
(-0.15915 -0.874142 0)
(-0.146915 -0.8863 0)
(-0.134575 -0.89594 0)
(-0.122198 -0.903163 0)
(-0.109854 -0.908078 0)
(-0.0976121 -0.910799 0)
(-0.0855374 -0.911448 0)
(-0.0736875 -0.91015 0)
(-0.0621282 -0.907024 0)
(-0.275405 -0.564435 0)
(-0.267998 -0.611255 0)
(-0.259878 -0.654506 0)
(-0.250997 -0.694369 0)
(-0.241367 -0.730894 0)
(-0.231049 -0.764167 0)
(-0.220101 -0.794263 0)
(-0.208587 -0.821251 0)
(-0.196572 -0.845196 0)
(-0.184125 -0.866162 0)
(-0.171319 -0.884218 0)
(-0.158228 -0.899438 0)
(-0.144929 -0.911903 0)
(-0.131503 -0.921703 0)
(-0.118028 -0.928935 0)
(-0.104588 -0.933711 0)
(-0.091262 -0.936147 0)
(-0.0781287 -0.936369 0)
(-0.0652558 -0.934511 0)
(-0.0527195 -0.930702 0)
(-0.282758 -0.578422 0)
(-0.274952 -0.627026 0)
(-0.266363 -0.671989 0)
(-0.256926 -0.713475 0)
(-0.246647 -0.751516 0)
(-0.235587 -0.786188 0)
(-0.22381 -0.817557 0)
(-0.211384 -0.845684 0)
(-0.198382 -0.870625 0)
(-0.18488 -0.89244 0)
(-0.170961 -0.91119 0)
(-0.156708 -0.926943 0)
(-0.142209 -0.939773 0)
(-0.127558 -0.949766 0)
(-0.112846 -0.957018 0)
(-0.098172 -0.961637 0)
(-0.0836286 -0.963745 0)
(-0.0693095 -0.963472 0)
(-0.0552961 -0.960961 0)
(-0.041678 -0.956356 0)
(-0.290412 -0.593122 0)
(-0.282183 -0.64367 0)
(-0.273083 -0.690532 0)
(-0.263033 -0.733839 0)
(-0.252028 -0.773598 0)
(-0.240134 -0.809862 0)
(-0.22742 -0.842687 0)
(-0.213962 -0.872119 0)
(-0.199842 -0.89821 0)
(-0.185147 -0.921007 0)
(-0.16997 -0.940565 0)
(-0.154406 -0.95694 0)
(-0.138556 -0.970201 0)
(-0.122527 -0.980426 0)
(-0.106425 -0.987706 0)
(-0.0903647 -0.992147 0)
(-0.0744561 -0.993871 0)
(-0.0588099 -0.993016 0)
(-0.0435245 -0.989735 0)
(-0.028707 -0.984192 0)
(-0.298361 -0.60856 0)
(-0.28968 -0.661248 0)
(-0.28001 -0.71025 0)
(-0.269258 -0.755623 0)
(-0.25742 -0.797332 0)
(-0.244563 -0.835416 0)
(-0.230768 -0.869909 0)
(-0.216125 -0.90084 0)
(-0.200728 -0.928248 0)
(-0.184677 -0.952174 0)
(-0.168078 -0.972662 0)
(-0.15104 -0.989757 0)
(-0.133678 -1.00352 0)
(-0.116111 -1.01401 0)
(-0.0984645 -1.02133 0)
(-0.0808654 -1.02556 0)
(-0.063443 -1.02684 0)
(-0.046326 -1.0253 0)
(-0.0296325 -1.0211 0)
(-0.0134903 -1.01445 0)
(-0.306621 -0.624802 0)
(-0.29742 -0.67989 0)
(-0.287077 -0.731323 0)
(-0.275484 -0.779066 0)
(-0.262641 -0.823022 0)
(-0.248634 -0.863187 0)
(-0.233563 -0.899576 0)
(-0.217538 -0.932203 0)
(-0.200667 -0.961105 0)
(-0.183068 -0.986309 0)
(-0.164865 -1.00784 0)
(-0.146185 -1.02575 0)
(-0.127154 -1.04006 0)
(-0.107905 -1.05086 0)
(-0.0885771 -1.0582 0)
(-0.06931 -1.0622 0)
(-0.0502489 -1.06295 0)
(-0.0315372 -1.06061 0)
(-0.0133117 -1.05535 0)
(0.00427663 -1.0474 0)
(-0.315123 -0.641972 0)
(-0.305291 -0.699816 0)
(-0.294111 -0.754065 0)
(-0.28147 -0.804547 0)
(-0.267386 -0.851082 0)
(-0.251977 -0.893617 0)
(-0.235371 -0.932146 0)
(-0.217707 -0.966675 0)
(-0.199124 -0.997228 0)
(-0.179763 -1.02382 0)
(-0.159772 -1.04648 0)
(-0.139294 -1.06523 0)
(-0.118465 -1.08013 0)
(-0.0974253 -1.09122 0)
(-0.0763258 -1.09858 0)
(-0.0553128 -1.10228 0)
(-0.0345396 -1.10244 0)
(-0.014157 -1.0992 0)
(0.00568575 -1.09273 0)
(0.0248209 -1.08329 0)
(-0.323781 -0.660326 0)
(-0.313117 -0.721406 0)
(-0.300833 -0.778955 0)
(-0.286842 -0.832608 0)
(-0.271199 -0.882091 0)
(-0.254069 -0.927296 0)
(-0.235627 -0.968192 0)
(-0.216048 -1.00478 0)
(-0.195511 -1.03708 0)
(-0.174185 -1.0651 0)
(-0.15224 -1.08888 0)
(-0.129832 -1.10846 0)