/*--------------------------------*- C++ -*----------------------------------*\
  =========                 |
  \\      /  F ield         | OpenFOAM: The Open Source CFD Toolbox
   \\    /   O peration     | Website:  https://openfoam.org
    \\  /    A nd           | Version:  6
     \\/     M anipulation  |
\*---------------------------------------------------------------------------*/
FoamFile
{
    version     2.0;
    format      ascii;
    class       volVectorField;
    location    "28";
    object      U;
}
// * * * * * * * * * * * * * * * * * * * * * * * * * * * * * * * * * * * * * //

dimensions      [0 1 -1 0 0 0 0];

internalField   nonuniform List<vector> 
10000
(
(0.000419522 -3.06982 0)
(-0.000364499 -4.11567 0)
(-0.00101032 -4.64086 0)
(-0.00121363 -5.00749 0)
(-0.00104179 -5.26486 0)
(-0.000866794 -5.43915 0)
(-0.000802629 -5.55172 0)
(-0.000802093 -5.62066 0)
(-0.00080616 -5.65912 0)
(-0.000774149 -5.67523 0)
(-0.000683906 -5.67287 0)
(-0.000531311 -5.65221 0)
(-0.000308143 -5.6097 0)
(-2.35092e-05 -5.53762 0)
(0.000298369 -5.42348 0)
(0.000597977 -5.25017 0)
(0.000735758 -4.99641 0)
(0.000438019 -4.6344 0)
(-2.96398e-05 -4.11313 0)
(-0.000556528 -3.06995 0)
(0.000403787 -3.07064 0)
(0.000276468 -4.11589 0)
(-3.93093e-06 -4.64088 0)
(-0.000275203 -5.00756 0)
(-0.000369656 -5.26499 0)
(-0.000434369 -5.43922 0)
(-0.000543341 -5.55171 0)
(-0.000657381 -5.62067 0)
(-0.000773934 -5.65919 0)
(-0.000851542 -5.6754 0)
(-0.000906502 -5.67318 0)
(-0.000905083 -5.6527 0)
(-0.000863303 -5.61038 0)
(-0.000777581 -5.53845 0)
(-0.000646301 -5.42436 0)
(-0.000536964 -5.25099 0)
(-0.00045043 -4.9971 0)
(-0.000412987 -4.63492 0)
(-0.000338368 -4.11359 0)
(-4.8695e-05 -3.07191 0)
(2.86777e-06 -3.07135 0)
(0.000128094 -4.11608 0)
(0.000206307 -4.64119 0)
(3.34116e-05 -5.00779 0)
(-6.62027e-05 -5.26505 0)
(-0.000190808 -5.43909 0)
(-0.000350694 -5.55146 0)
(-0.000537912 -5.6204 0)
(-0.000704657 -5.65891 0)
(-0.000852595 -5.67518 0)
(-0.000972813 -5.67301 0)
(-0.00104817 -5.65256 0)
(-0.00109036 -5.61035 0)
(-0.00107422 -5.53852 0)
(-0.000972351 -5.42455 0)
(-0.000835002 -5.25129 0)
(-0.000657578 -4.9974 0)
(-0.000423862 -4.63518 0)
(-0.000240259 -4.11359 0)
(0.000199101 -3.07228 0)
(-0.000230539 -3.07153 0)
(0.000176719 -4.11589 0)
(0.000436132 -4.64106 0)
(0.00044704 -5.00755 0)
(0.000284277 -5.26467 0)
(7.21339e-05 -5.43862 0)
(-0.000146265 -5.55105 0)
(-0.000401261 -5.61997 0)
(-0.000628548 -5.65851 0)
(-0.000857499 -5.67485 0)
(-0.00104844 -5.67276 0)
(-0.00120333 -5.65239 0)
(-0.0013194 -5.61024 0)
(-0.00137232 -5.53854 0)
(-0.00134164 -5.42486 0)
(-0.0012045 -5.25185 0)
(-0.0010375 -4.99781 0)
(-0.000652465 -4.63547 0)
(-0.000339176 -4.11407 0)
(0.000183161 -3.07279 0)
(-0.000145834 -3.07133 0)
(0.000186229 -4.11572 0)
(0.000389281 -4.64073 0)
(0.000550147 -5.00712 0)
(0.000424777 -5.26411 0)
(0.000193286 -5.43793 0)
(-5.57784e-05 -5.55035 0)
(-0.000333718 -5.61931 0)
(-0.000608231 -5.65791 0)
(-0.0008812 -5.67429 0)
(-0.00111807 -5.6723 0)
(-0.0013203 -5.65204 0)
(-0.00147978 -5.60996 0)
(-0.00157494 -5.53837 0)
(-0.00157275 -5.42493 0)
(-0.00142907 -5.25217 0)
(-0.0011559 -4.99817 0)
(-0.000678043 -4.63568 0)
(-0.000320426 -4.11435 0)
(4.67182e-05 -3.07288 0)
(0.00025234 -3.07148 0)
(0.000387176 -4.11644 0)
(0.000486373 -4.64105 0)
(0.000583452 -5.00706 0)
(0.000488551 -5.26376 0)
(0.000237485 -5.4374 0)
(-3.09229e-05 -5.54976 0)
(-0.000314955 -5.61866 0)
(-0.000618123 -5.65726 0)
(-0.000915949 -5.6737 0)
(-0.00118935 -5.67178 0)
(-0.00141534 -5.65163 0)
(-0.0015878 -5.60969 0)
(-0.00168379 -5.53821 0)
(-0.00166613 -5.42495 0)
(-0.00149856 -5.25253 0)
(-0.00116069 -4.99871 0)
(-0.000726453 -4.63628 0)
(-0.000387051 -4.11503 0)
(-0.000278074 -3.07285 0)
(0.000435478 -3.07237 0)
(0.000488285 -4.11734 0)
(0.000639969 -4.64169 0)
(0.000675568 -5.00726 0)
(0.000590984 -5.26366 0)
(0.000372506 -5.43715 0)
(7.22447e-05 -5.54935 0)
(-0.00023465 -5.61812 0)
(-0.000574733 -5.65664 0)
(-0.000905153 -5.67309 0)
(-0.00120316 -5.67125 0)
(-0.00145876 -5.65119 0)
(-0.00164087 -5.60941 0)
(-0.00172985 -5.53812 0)
(-0.00171638 -5.42506 0)
(-0.00152682 -5.2529 0)
(-0.00115672 -4.99946 0)
(-0.000778637 -4.63711 0)
(-0.000430296 -4.1158 0)
(-0.000442754 -3.0731 0)
(0.000337733 -3.07348 0)
(0.000492673 -4.11781 0)
(0.000733758 -4.64212 0)
(0.000801403 -5.00745 0)
(0.000776257 -5.26346 0)
(0.000577546 -5.4368 0)
(0.000251793 -5.54881 0)
(-0.000110874 -5.61744 0)
(-0.000495854 -5.65596 0)
(-0.000862318 -5.67246 0)
(-0.0011893 -5.67071 0)
(-0.00146502 -5.65079 0)
(-0.00165585 -5.60913 0)
(-0.0017461 -5.53812 0)
(-0.00171948 -5.42542 0)
(-0.00151348 -5.25353 0)
(-0.00117029 -5.00029 0)
(-0.000831513 -4.63823 0)
(-0.000537091 -4.11692 0)
(-0.000430011 -3.07402 0)
(0.000243607 -3.07414 0)
(0.000489481 -4.11806 0)
(0.000775968 -4.64231 0)
(0.0009929 -5.0073 0)
(0.000977691 -5.26313 0)
(0.000797832 -5.43631 0)
(0.000428567 -5.54808 0)
(6.86088e-07 -5.6166 0)
(-0.000442561 -5.65513 0)
(-0.000853688 -5.67172 0)
(-0.00122002 -5.67008 0)
(-0.0015226 -5.65032 0)
(-0.00175044 -5.60884 0)
(-0.00186744 -5.53813 0)
(-0.00184532 -5.42581 0)
(-0.00167856 -5.25425 0)
(-0.0013625 -5.00135 0)
(-0.000976692 -4.63943 0)
(-0.0005115 -4.11801 0)
(-0.00024977 -3.07516 0)
(0.000333929 -3.07461 0)
(0.000493125 -4.11863 0)
(0.000809982 -4.64255 0)
(0.00105726 -5.00741 0)
(0.00108068 -5.26287 0)
(0.000933555 -5.43571 0)
(0.000547791 -5.5473 0)
(8.33896e-05 -5.61569 0)
(-0.00041009 -5.6542 0)
(-0.000860531 -5.67088 0)
(-0.0012727 -5.66935 0)
(-0.00162409 -5.64969 0)
(-0.00190279 -5.60842 0)
(-0.00207505 -5.53795 0)
(-0.00210118 -5.42596 0)
(-0.00195369 -5.25472 0)
(-0.00159884 -5.00203 0)
(-0.0010508 -4.64027 0)
(-0.000339064 -4.11847 0)
(3.31103e-05 -3.07568 0)
(0.000422815 -3.07509 0)
(0.000499423 -4.11943 0)
(0.000926342 -4.64325 0)
(0.0011732 -5.00771 0)
(0.00124221 -5.26268 0)
(0.00107554 -5.43513 0)
(0.000691655 -5.54641 0)
(0.000182899 -5.61473 0)
(-0.00034343 -5.65324 0)
(-0.000836636 -5.66996 0)
(-0.00128254 -5.66853 0)
(-0.00167796 -5.64899 0)
(-0.00199879 -5.60789 0)
(-0.00219308 -5.53771 0)
(-0.00225497 -5.42601 0)
(-0.00207094 -5.25507 0)
(-0.00165638 -5.00277 0)
(-0.00102704 -4.64109 0)
(-0.000343621 -4.11908 0)
(-2.6592e-06 -3.07586 0)
(0.000384537 -3.07563 0)
(0.000542422 -4.12042 0)
(0.000994013 -4.64399 0)
(0.00130166 -5.00821 0)
(0.0013647 -5.2627 0)
(0.00121637 -5.43457 0)
(0.000824886 -5.54555 0)
(0.00029211 -5.61372 0)
(-0.00024995 -5.65222 0)
(-0.00078772 -5.66902 0)
(-0.00127546 -5.66769 0)
(-0.00170971 -5.64827 0)
(-0.00206488 -5.60732 0)
(-0.00230083 -5.5374 0)
(-0.0023517 -5.4262 0)
(-0.00213686 -5.25578 0)
(-0.00168921 -5.00392 0)
(-0.00102767 -4.64243 0)
(-0.000399978 -4.12024 0)
(-0.000279236 -3.07608 0)
(0.000236357 -3.07618 0)
(0.000474477 -4.12139 0)
(0.00106093 -4.64488 0)
(0.00141572 -5.0088 0)
(0.00155626 -5.26263 0)
(0.0014064 -5.4339 0)
(0.0010038 -5.5446 0)
(0.00045439 -5.61263 0)
(-0.000131424 -5.65112 0)
(-0.000717652 -5.66794 0)
(-0.00126099 -5.66669 0)
(-0.00174779 -5.64744 0)
(-0.00214796 -5.60673 0)
(-0.0024252 -5.53716 0)
(-0.00248861 -5.42636 0)
(-0.00222441 -5.2565 0)
(-0.00177609 -5.00514 0)
(-0.00105534 -4.64376 0)
(-0.000385464 -4.12153 0)
(-0.000330812 -3.07647 0)
(0.000123022 -3.07664 0)
(0.000485852 -4.1222 0)
(0.00116719 -4.64559 0)
(0.00159088 -5.00907 0)
(0.00177169 -5.2624 0)
(0.00159741 -5.43321 0)
(0.00117978 -5.54355 0)
(0.000611706 -5.61139 0)
(-2.14779e-05 -5.64984 0)
(-0.000655382 -5.66674 0)
(-0.00125897 -5.66558 0)
(-0.00179557 -5.64644 0)
(-0.00224009 -5.60598 0)
(-0.00253675 -5.5368 0)
(-0.00260114 -5.42645 0)
(-0.00235412 -5.2572 0)
(-0.00182048 -5.00638 0)
(-0.00115448 -4.64508 0)
(-0.000434755 -4.12273 0)
(-0.000271664 -3.07686 0)
(0.000308568 -3.07731 0)
(0.000734135 -4.1234 0)
(0.00129722 -4.64665 0)
(0.00168471 -5.00966 0)
(0.00184076 -5.26238 0)
(0.00168584 -5.43259 0)
(0.0012898 -5.54246 0)
(0.000723186 -5.6101 0)
(6.88194e-05 -5.64852 0)
(-0.000603574 -5.66543 0)
(-0.00124651 -5.66435 0)
(-0.0018358 -5.64534 0)
(-0.00232263 -5.60511 0)
(-0.00265458 -5.53632 0)
(-0.00274894 -5.4265 0)
(-0.00253204 -5.25775 0)
(-0.00198037 -5.00749 0)
(-0.0012783 -4.6465 0)
(-0.0004592 -4.12373 0)
(-0.000230223 -3.077 0)
(0.000402214 -3.07824 0)
(0.000747336 -4.12476 0)
(0.00149482 -4.64787 0)
(0.00195877 -5.01033 0)
(0.00207989 -5.26241 0)
(0.00189044 -5.43202 0)
(0.00146602 -5.54145 0)
(0.000873002 -5.60882 0)
(0.000194707 -5.64713 0)
(-0.000507787 -5.66406 0)
(-0.00119395 -5.66306 0)
(-0.00182231 -5.6442 0)
(-0.00234066 -5.60424 0)
(-0.00270302 -5.53583 0)
(-0.00282642 -5.42643 0)
(-0.00262149 -5.25832 0)
(-0.00210463 -5.00868 0)
(-0.00133278 -4.64775 0)
(-0.000538704 -4.12478 0)
(-0.000211318 -3.07718 0)
(0.000379702 -3.0793 0)
(0.00078412 -4.1261 0)
(0.00158358 -4.64915 0)
(0.00216615 -5.01111 0)
(0.00232587 -5.26248 0)
(0.00210958 -5.43142 0)
(0.00165277 -5.54035 0)
(0.00102351 -5.60748 0)
(0.000306612 -5.64573 0)
(-0.000434316 -5.66267 0)
(-0.00116335 -5.66173 0)
(-0.00182554 -5.64303 0)
(-0.00236964 -5.6034 0)
(-0.00272173 -5.53547 0)
(-0.00283138 -5.42666 0)
(-0.00262115 -5.25919 0)
(-0.00212159 -5.01018 0)
(-0.00144365 -4.64965 0)
(-0.000768006 -4.1267 0)
(-0.000379234 -3.07817 0)
(0.000456822 -3.08061 0)
(0.000871019 -4.12779 0)
(0.00176315 -4.65066 0)
(0.00242508 -5.01209 0)
(0.002634 -5.26267 0)
(0.00240201 -5.43077 0)
(0.00190146 -5.53924 0)
(0.00120152 -5.60614 0)
(0.000418061 -5.64422 0)
(-0.000395004 -5.66113 0)
(-0.00119681 -5.66027 0)
(-0.00192388 -5.64178 0)
(-0.00252151 -5.60252 0)
(-0.00294363 -5.53502 0)
(-0.00308567 -5.42678 0)
(-0.00293092 -5.26013 0)
(-0.00246429 -5.01188 0)
(-0.00172562 -4.65161 0)
(-0.000737971 -4.12848 0)
(-0.000300838 -3.07964 0)
(0.00047704 -3.08178 0)
(0.000946754 -4.12935 0)
(0.00196179 -4.6521 0)
(0.00270615 -5.01296 0)
(0.00299319 -5.26278 0)
(0.00274836 -5.4301 0)
(0.00220963 -5.538 0)
(0.00143816 -5.60458 0)
(0.000576287 -5.64252 0)
(-0.000324451 -5.6594 0)
(-0.00120314 -5.65864 0)
(-0.00201605 -5.64035 0)
(-0.00270105 -5.60137 0)
(-0.00321533 -5.53429 0)
(-0.00345538 -5.42664 0)
(-0.00334607 -5.26076 0)
(-0.0028137 -5.01305 0)
(-0.0018676 -4.65298 0)
(-0.000662963 -4.12954 0)
(-3.99296e-05 -3.08051 0)
(0.000514822 -3.08252 0)
(0.000997317 -4.13101 0)
(0.00212149 -4.65361 0)
(0.00295488 -5.01376 0)
(0.00331658 -5.26278 0)
(0.00311381 -5.42927 0)
(0.00253079 -5.5366 0)
(0.00171469 -5.60286 0)
(0.000766468 -5.64061 0)
(-0.000213639 -5.65748 0)
(-0.00117536 -5.65682 0)
(-0.00206055 -5.63873 0)
(-0.00282059 -5.60007 0)
(-0.003374 -5.53349 0)
(-0.00365822 -5.4265 0)
(-0.00352599 -5.26132 0)
(-0.00294123 -5.01425 0)
(-0.00191636 -4.6545 0)
(-0.00079403 -4.13105 0)
(-0.00021554 -3.08096 0)
(0.000645837 -3.0833 0)
(0.0011218 -4.13312 0)
(0.00224461 -4.65539 0)
(0.00311445 -5.01477 0)
(0.00351737 -5.26277 0)
(0.00339974 -5.42847 0)
(0.00278633 -5.53514 0)
(0.00194896 -5.60102 0)
(0.0009349 -5.63857 0)
(-0.000121802 -5.6554 0)
(-0.00115335 -5.65487 0)
(-0.00211212 -5.63702 0)
(-0.00292682 -5.59864 0)
(-0.00350716 -5.53258 0)
(-0.0037897 -5.42642 0)
(-0.00364159 -5.2621 0)
(-0.0030058 -5.01583 0)
(-0.00201575 -4.65663 0)
(-0.000925763 -4.13337 0)
(-0.000554177 -3.08166 0)
(0.000735401 -3.0845 0)
(0.00129307 -4.13562 0)
(0.00243802 -4.65746 0)
(0.00331134 -5.01601 0)
(0.00372509 -5.26292 0)
(0.0036394 -5.42771 0)
(0.00302601 -5.53362 0)
(0.00214325 -5.59903 0)
(0.00107945 -5.63641 0)
(-4.71247e-05 -5.65318 0)
(-0.00115592 -5.65274 0)
(-0.00218281 -5.63511 0)
(-0.00305718 -5.59708 0)
(-0.00370268 -5.53158 0)
(-0.00400405 -5.42621 0)
(-0.00389312 -5.26281 0)
(-0.00323989 -5.01738 0)
(-0.00222119 -4.65875 0)
(-0.000979314 -4.13561 0)
(-0.00057657 -3.08253 0)
(0.000679203 -3.08598 0)
(0.00143173 -4.13807 0)
(0.00269449 -4.65958 0)
(0.00361557 -5.01734 0)
(0.00400769 -5.26315 0)
(0.00389895 -5.42696 0)
(0.00326999 -5.5321 0)
(0.00235038 -5.59702 0)
(0.00123638 -5.63415 0)
(5.06967e-05 -5.65084 0)
(-0.00112605 -5.6505 0)
(-0.00221264 -5.63315 0)
(-0.00313669 -5.59548 0)
(-0.00383031 -5.53044 0)
(-0.00416809 -5.42583 0)
(-0.00410707 -5.26344 0)
(-0.00349081 -5.01884 0)
(-0.00243565 -4.66078 0)
(-0.00115118 -4.13774 0)
(-0.000486339 -3.08338 0)
(0.000617964 -3.08772 0)
(0.001538 -4.14073 0)
(0.00287579 -4.66199 0)
(0.00385066 -5.01893 0)
(0.00427626 -5.26348 0)
(0.00414393 -5.42615 0)
(0.00352317 -5.53052 0)
(0.00257569 -5.59498 0)
(0.00142126 -5.63185 0)
(0.000176322 -5.64844 0)
(-0.00106998 -5.64817 0)
(-0.00221541 -5.63106 0)
(-0.00317722 -5.59385 0)
(-0.00390355 -5.52939 0)
(-0.00427407 -5.42551 0)
(-0.00421145 -5.26414 0)
(-0.00362377 -5.02052 0)
(-0.00259822 -4.66317 0)
(-0.00137631 -4.14037 0)
(-0.00058056 -3.08472 0)
(0.000507163 -3.08968 0)
(0.00150334 -4.14349 0)
(0.00305924 -4.66453 0)
(0.00417184 -5.02057 0)
(0.0046465 -5.2639 0)
(0.00447831 -5.42537 0)
(0.00384275 -5.52888 0)
(0.00282733 -5.59279 0)
(0.00161343 -5.62937 0)
(0.000297241 -5.64588 0)
(-0.00102038 -5.64571 0)
(-0.00224133 -5.62886 0)
(-0.00328156 -5.59211 0)
(-0.0040595 -5.52831 0)
(-0.00449264 -5.42522 0)
(-0.00446236 -5.26483 0)
(-0.00388164 -5.02235 0)
(-0.00280795 -4.66587 0)
(-0.00147151 -4.14325 0)
(-0.000591123 -3.08662 0)
(0.000432959 -3.09158 0)
(0.00156501 -4.14618 0)
(0.00322515 -4.66703 0)
(0.004475 -5.02219 0)
(0.00500163 -5.26427 0)
(0.00484177 -5.42447 0)
(0.00416208 -5.52713 0)
(0.00308285 -5.59049 0)
(0.00179685 -5.62673 0)
(0.000404655 -5.64313 0)
(-0.000997748 -5.64305 0)
(-0.00230578 -5.62653 0)
(-0.00343988 -5.59029 0)
(-0.00430341 -5.52705 0)
(-0.00479547 -5.42478 0)
(-0.00480321 -5.26553 0)
(-0.00420713 -5.02417 0)
(-0.00305304 -4.66846 0)
(-0.0015432 -4.14601 0)
(-0.00047078 -3.08884 0)
(0.000550696 -3.09337 0)
(0.00167053 -4.14896 0)
(0.00335166 -4.66968 0)
(0.00470005 -5.02391 0)
(0.00530923 -5.26459 0)
(0.00519063 -5.42355 0)
(0.00447274 -5.52531 0)
(0.00334506 -5.58804 0)
(0.00197814 -5.62391 0)
(0.000500683 -5.64019 0)
(-0.000987604 -5.64019 0)
(-0.00239585 -5.62396 0)
(-0.0036387 -5.58819 0)
(-0.00459611 -5.52562 0)
(-0.00516283 -5.42425 0)
(-0.00517502 -5.26611 0)
(-0.00453333 -5.02594 0)
(-0.00327365 -4.67111 0)
(-0.00157753 -4.14869 0)
(-0.000433496 -3.09073 0)
(0.000786893 -3.09538 0)
(0.00182787 -4.15217 0)
(0.00346172 -4.67256 0)
(0.00483816 -5.02582 0)
(0.00552515 -5.2651 0)
(0.00544475 -5.42273 0)
(0.00474355 -5.52346 0)
(0.00358037 -5.58548 0)
(0.00215055 -5.62094 0)
(0.00058824 -5.63708 0)
(-0.000995342 -5.63714 0)
(-0.00250064 -5.62113 0)
(-0.00383584 -5.58584 0)
(-0.00488297 -5.52401 0)
(-0.00549334 -5.42362 0)
(-0.00548821 -5.26662 0)
(-0.00479051 -5.02766 0)
(-0.00340834 -4.67369 0)
(-0.00164809 -4.15148 0)
(-0.000528891 -3.0923 0)
(0.000879445 -3.09768 0)
(0.00190144 -4.15566 0)
(0.0036511 -4.67576 0)
(0.00505645 -5.02795 0)
(0.00578506 -5.26578 0)
(0.00572222 -5.42198 0)
(0.00500633 -5.52159 0)
(0.00381322 -5.58282 0)
(0.00232325 -5.61784 0)
(0.000679056 -5.63383 0)
(-0.000986806 -5.63393 0)
(-0.00258212 -5.61816 0)
(-0.00398601 -5.58332 0)
(-0.00507898 -5.52229 0)
(-0.00569697 -5.42295 0)
(-0.0056706 -5.26718 0)
(-0.004905 -5.02953 0)
(-0.00351211 -4.67652 0)
(-0.00182391 -4.1547 0)
(-0.000791557 -3.09388 0)
(0.00083586 -3.10001 0)
(0.00201016 -4.15917 0)
(0.00383249 -4.67903 0)
(0.00528839 -5.03018 0)
(0.00605345 -5.26654 0)
(0.00602713 -5.42128 0)
(0.00529506 -5.5197 0)
(0.00407617 -5.58009 0)
(0.00252854 -5.61461 0)
(0.000816626 -5.63038 0)
(-0.000933519 -5.63055 0)
(-0.00260178 -5.61507 0)
(-0.00407327 -5.58071 0)
(-0.00520737 -5.52046 0)
(-0.00584013 -5.42226 0)
(-0.00581657 -5.26785 0)
(-0.00504502 -5.03156 0)
(-0.00368408 -4.67962 0)
(-0.00196134 -4.15821 0)
(-0.000945922 -3.09577 0)
(0.000748037 -3.10207 0)
(0.00200122 -4.16254 0)
(0.0039681 -4.6822 0)
(0.00553073 -5.0323 0)
(0.00634657 -5.26715 0)
(0.00635751 -5.42044 0)
(0.00561782 -5.51764 0)
(0.00436184 -5.57718 0)
(0.00275152 -5.61122 0)
(0.000958887 -5.62681 0)
(-0.000873728 -5.62703 0)
(-0.00261558 -5.61183 0)
(-0.00414251 -5.57807 0)
(-0.00530893 -5.51871 0)
(-0.00595089 -5.42169 0)
(-0.0059377 -5.26866 0)
(-0.00519335 -5.03384 0)
(-0.00386643 -4.68306 0)
(-0.00212839 -4.162 0)
(-0.000924444 -3.0983 0)
(0.000735203 -3.10405 0)
(0.00204851 -4.16594 0)
(0.00406502 -4.68529 0)
(0.00569782 -5.03433 0)
(0.00654245 -5.26768 0)
(0.00654875 -5.41953 0)
(0.00581052 -5.51549 0)
(0.00451973 -5.57414 0)
(0.00285573 -5.6077 0)
(0.000992393 -5.62308 0)
(-0.00091644 -5.62334 0)
(-0.00273477 -5.60847 0)
(-0.00432598 -5.57534 0)
(-0.00554071 -5.51691 0)
(-0.00621761 -5.42112 0)
(-0.00622787 -5.26958 0)
(-0.00550667 -5.03624 0)
(-0.00410808 -4.6866 0)
(-0.00219495 -4.16585 0)
(-0.000789111 -3.10125 0)
(0.00101094 -3.10684 0)
(0.00237189 -4.17028 0)
(0.00424406 -4.68917 0)
(0.00575245 -5.03698 0)
(0.0065802 -5.26869 0)
(0.00659134 -5.4189 0)
(0.00587605 -5.51351 0)
(0.00458267 -5.57119 0)
(0.00289671 -5.60415 0)
(0.000988324 -5.61925 0)
(-0.000980929 -5.61952 0)
(-0.00287483 -5.60495 0)
(-0.00455028 -5.57241 0)
(-0.00582903 -5.51492 0)
(-0.00657598 -5.42036 0)
(-0.00660924 -5.27021 0)
(-0.0058588 -5.03835 0)
(-0.00428746 -4.68976 0)
(-0.00218061 -4.1692 0)
(-0.000607791 -3.10397 0)
(0.000975943 -3.11017 0)
(0.00236448 -4.17464 0)
(0.00452711 -4.6933 0)
(0.00608357 -5.03987 0)
(0.00689974 -5.26987 0)
(0.006892 -5.4184 0)
(0.00613138 -5.5116 0)
(0.00478669 -5.56822 0)
(0.00304933 -5.60049 0)
(0.00108684 -5.61529 0)
(-0.000951611 -5.61557 0)
(-0.00291136 -5.60128 0)
(-0.00465432 -5.56933 0)
(-0.00600373 -5.51277 0)
(-0.00678775 -5.41952 0)
(-0.00682632 -5.27087 0)
(-0.00602217 -5.0405 0)
(-0.00437237 -4.693 0)
(-0.00231776 -4.17287 0)
(-0.000731702 -3.10656 0)
(0.000656394 -3.11296 0)
(0.00230072 -4.17821 0)
(0.00467028 -4.69676 0)
(0.00645096 -5.04223 0)
(0.00734276 -5.27065 0)
(0.00731579 -5.41754 0)
(0.00649461 -5.50937 0)
(0.00506677 -5.56501 0)
(0.0032498 -5.59666 0)
(0.00121428 -5.61117 0)
(-0.000890638 -5.61146 0)
(-0.00292244 -5.59747 0)
(-0.00472601 -5.56616 0)
(-0.00613863 -5.5106 0)
(-0.00696263 -5.4187 0)
(-0.00700484 -5.2717 0)
(-0.00617123 -5.043 0)
(-0.00451182 -4.69677 0)
(-0.00242647 -4.17716 0)
(-0.000975284 -3.1093 0)
(0.000746698 -3.11528 0)
(0.00248791 -4.18215 0)
(0.00478109 -4.70026 0)
(0.00663867 -5.04453 0)
(0.00759672 -5.27133 0)
(0.00757802 -5.41655 0)
(0.00673498 -5.50699 0)
(0.00525556 -5.56162 0)
(0.00338168 -5.59266 0)
(0.00128393 -5.60689 0)
(-0.000887431 -5.6072 0)
(-0.0029872 -5.5935 0)
(-0.00485876 -5.56281 0)
(-0.00633255 -5.50829 0)
(-0.00720039 -5.41782 0)
(-0.00725343 -5.27253 0)
(-0.00639564 -5.04549 0)
(-0.00468288 -4.70052 0)
(-0.00244002 -4.18136 0)
(-0.000968996 -3.11208 0)
(0.00104448 -3.11795 0)
(0.00267653 -4.18676 0)
(0.004913 -4.70427 0)
(0.00672797 -5.0472 0)
(0.0077065 -5.27223 0)
(0.00771198 -5.41564 0)
(0.00687079 -5.50462 0)
(0.00537501 -5.55821 0)
(0.00346406 -5.58861 0)
(0.00131874 -5.60253 0)
(-0.000901577 -5.60283 0)
(-0.00305517 -5.58943 0)
(-0.00498467 -5.55938 0)
(-0.00650871 -5.50587 0)
(-0.00741071 -5.41684 0)
(-0.00747174 -5.27329 0)
(-0.00658794 -5.04801 0)
(-0.00482855 -4.70433 0)
(-0.00255287 -4.18559 0)
(-0.0009218 -3.11494 0)
(0.00110836 -3.1212 0)
(0.00277182 -4.19152 0)
(0.00508236 -4.70849 0)
(0.00688157 -5.05004 0)
(0.00784333 -5.27324 0)
(0.00784782 -5.41478 0)
(0.00697781 -5.50224 0)
(0.00546387 -5.55477 0)
(0.00351705 -5.58452 0)
(0.00133299 -5.59814 0)
(-0.00093256 -5.59842 0)
(-0.00313158 -5.58532 0)
(-0.00510777 -5.5559 0)
(-0.00667558 -5.50346 0)
(-0.00760737 -5.41595 0)
(-0.00768495 -5.27422 0)
(-0.00680438 -5.05076 0)
(-0.00502076 -4.70848 0)
(-0.00270256 -4.19032 0)
(-0.00095741 -3.11826 0)
(0.00106505 -3.12501 0)
(0.00292546 -4.19641 0)
(0.00530102 -4.71292 0)
(0.00710178 -5.05305 0)
(0.00802752 -5.27435 0)
(0.00800076 -5.41401 0)
(0.00709198 -5.49986 0)
(0.00554276 -5.55129 0)
(0.0035518 -5.58038 0)
(0.0013235 -5.59367 0)
(-0.000992113 -5.59393 0)
(-0.00324981 -5.58112 0)
(-0.00528515 -5.55234 0)
(-0.00690756 -5.50099 0)
(-0.00788519 -5.41504 0)
(-0.00798625 -5.2752 0)
(-0.00710734 -5.05367 0)
(-0.00527874 -4.71285 0)
(-0.0028535 -4.19524 0)
(-0.000976271 -3.122 0)
(0.000960826 -3.12889 0)
(0.00292952 -4.20122 0)
(0.00552606 -4.71735 0)
(0.00745614 -5.05607 0)
(0.00838209 -5.27541 0)
(0.00830319 -5.41311 0)
(0.00732927 -5.49736 0)
(0.00570726 -5.54767 0)
(0.00364809 -5.57608 0)
(0.00134846 -5.58903 0)
(-0.00104423 -5.58926 0)
(-0.00338266 -5.5767 0)
(-0.00550317 -5.54855 0)
(-0.0072113 -5.49827 0)
(-0.00825805 -5.41385 0)
(-0.00840912 -5.27593 0)
(-0.00750808 -5.05636 0)
(-0.00554833 -4.71702 0)
(-0.00292491 -4.19989 0)
(-0.000945386 -3.12545 0)
(0.000867098 -3.13231 0)
(0.00291973 -4.20576 0)
(0.00569514 -4.72147 0)
(0.00781295 -5.05876 0)
(0.00878179 -5.27614 0)
(0.00864745 -5.41195 0)
(0.00760236 -5.49463 0)
(0.00590886 -5.54384 0)
(0.00378436 -5.57159 0)
(0.0014175 -5.58421 0)
(-0.00104058 -5.58439 0)
(-0.00345011 -5.57208 0)
(-0.00564502 -5.54452 0)
(-0.00742676 -5.49529 0)
(-0.00854294 -5.41239 0)
(-0.00873395 -5.27636 0)
(-0.00779002 -5.05873 0)
(-0.00571056 -4.7209 0)
(-0.0030094 -4.20435 0)
(-0.000991221 -3.1283 0)
(0.00110431 -3.13558 0)
(0.00312899 -4.21085 0)
(0.0058027 -4.72591 0)
(0.00793745 -5.0616 0)
(0.00895991 -5.2769 0)
(0.0088321 -5.41069 0)
(0.00777879 -5.4918 0)
(0.00605432 -5.53994 0)
(0.00389544 -5.56701 0)
(0.00148801 -5.5793 0)
(-0.00101106 -5.57944 0)
(-0.00345114 -5.56741 0)
(-0.00566877 -5.54048 0)
(-0.00746157 -5.49233 0)
(-0.00857218 -5.41103 0)
(-0.00874444 -5.27703 0)
(-0.00778256 -5.06155 0)
(-0.00579103 -4.72543 0)
(-0.00331704 -4.20975 0)
(-0.00134583 -3.13165 0)
(0.00128563 -3.13909 0)
(0.00320999 -4.21637 0)
(0.00598231 -4.7307 0)
(0.00810466 -5.06462 0)
(0.00912519 -5.27769 0)
(0.00899224 -5.40943 0)
(0.00791057 -5.48895 0)
(0.0061553 -5.536 0)
(0.0039584 -5.5624 0)
(0.0015085 -5.57436 0)
(-0.00103439 -5.57448 0)
(-0.0035146 -5.56274 0)
(-0.00576275 -5.53649 0)
(-0.00757512 -5.48948 0)
(-0.00869714 -5.40987 0)
(-0.00887268 -5.27806 0)
(-0.00796284 -5.06489 0)
(-0.00605518 -4.73068 0)
(-0.00347168 -4.21586 0)
(-0.00150317 -3.13616 0)
(0.0013079 -3.14315 0)
(0.00340366 -4.2221 0)
(0.00617533 -4.73571 0)
(0.00825572 -5.06779 0)
(0.00924764 -5.27856 0)
(0.0090902 -5.4082 0)
(0.00798761 -5.48612 0)
(0.00620337 -5.53206 0)
(0.0039704 -5.55775 0)
(0.00147202 -5.56935 0)
(-0.00112894 -5.56943 0)
(-0.00366954 -5.55799 0)
(-0.00598059 -5.53241 0)
(-0.0078552 -5.48654 0)
(-0.00904426 -5.40861 0)
(-0.00928368 -5.27892 0)
(-0.00842134 -5.06808 0)
(-0.00639737 -4.73567 0)
(-0.00348968 -4.22139 0)
(-0.00118206 -3.14104 0)
(0.00126998 -3.14766 0)
(0.0035373 -4.22808 0)
(0.00645369 -4.74099 0)
(0.00854874 -5.07113 0)
(0.00949361 -5.27951 0)
(0.00928609 -5.40699 0)
(0.00813891 -5.48327 0)
(0.00630366 -5.52805 0)
(0.00401548 -5.55299 0)
(0.00145174 -5.5642 0)
(-0.00122006 -5.56423 0)
(-0.00384017 -5.55305 0)
(-0.00623261 -5.52812 0)
(-0.00818327 -5.48337 0)
(-0.00945255 -5.4071 0)
(-0.0097509 -5.27956 0)
(-0.00885875 -5.071 0)
(-0.00663165 -4.74035 0)
(-0.00354669 -4.22663 0)
(-0.000980997 -3.14552 0)
(0.00111984 -3.15205 0)
(0.00359529 -4.23373 0)
(0.00672071 -4.74602 0)
(0.00895941 -5.07423 0)
(0.00989715 -5.28024 0)
(0.00961619 -5.40557 0)
(0.00839737 -5.48023 0)
(0.00648327 -5.52385 0)
(0.0041219 -5.54804 0)
(0.00148077 -5.55886 0)
(-0.00127242 -5.55882 0)
(-0.00397119 -5.54792 0)
(-0.00644045 -5.52365 0)
(-0.00846623 -5.48002 0)
(-0.00979265 -5.40544 0)
(-0.0101078 -5.28008 0)
(-0.0091347 -5.07393 0)
(-0.00678604 -4.7452 0)
(-0.0036868 -4.23227 0)
(-0.00118915 -3.14967 0)
(0.00117846 -3.15622 0)
(0.00372552 -4.23948 0)
(0.00687068 -4.75097 0)
(0.00923209 -5.07716 0)
(0.0102415 -5.28076 0)
(0.00992935 -5.40392 0)
(0.00865694 -5.47697 0)
(0.00666864 -5.51944 0)
(0.0042312 -5.54288 0)
(0.0015123 -5.55332 0)
(-0.00131347 -5.55323 0)
(-0.00408017 -5.54263 0)
(-0.00660594 -5.51904 0)
(-0.00868129 -5.47657 0)
(-0.0100325 -5.40371 0)
(-0.0103519 -5.28067 0)
(-0.00933111 -5.07707 0)
(-0.0069687 -4.75043 0)
(-0.00385199 -4.23843 0)
(-0.00152672 -3.15387 0)
(0.00142823 -3.16065 0)
(0.00390482 -4.2458 0)
(0.00709785 -4.75629 0)
(0.00946839 -5.08025 0)
(0.0105044 -5.28132 0)
(0.0101845 -5.40221 0)
(0.0088519 -5.4736 0)
(0.00680612 -5.51493 0)
(0.00430032 -5.53762 0)
(0.00151716 -5.54767 0)
(-0.00137077 -5.54755 0)
(-0.00419169 -5.53726 0)
(-0.00676464 -5.51437 0)
(-0.00888129 -5.47306 0)
(-0.0102652 -5.40196 0)
(-0.0105895 -5.28129 0)
(-0.00956232 -5.08036 0)
(-0.00717996 -4.7559 0)
(-0.0039271 -4.24482 0)
(-0.00163366 -3.15834 0)
(0.00168404 -3.16573 0)
(0.00419219 -4.2527 0)
(0.00742415 -4.76221 0)
(0.00973582 -5.08378 0)
(0.0107324 -5.28213 0)
(0.0103912 -5.4007 0)
(0.00900945 -5.47031 0)
(0.00691591 -5.51041 0)
(0.00435172 -5.53233 0)
(0.00151399 -5.54199 0)
(-0.00142708 -5.54184 0)
(-0.00429696 -5.53187 0)
(-0.00690818 -5.5097 0)
(-0.00905562 -5.4696 0)
(-0.0104695 -5.40029 0)
(-0.0108143 -5.28208 0)
(-0.00980233 -5.08394 0)
(-0.00741372 -4.76178 0)
(-0.00409627 -4.25162 0)
(-0.0016309 -3.16345 0)
(0.00162235 -3.17091 0)
(0.00419147 -4.25955 0)
(0.00770906 -4.76822 0)
(0.0101505 -5.08742 0)
(0.0111623 -5.28294 0)
(0.0107856 -5.39906 0)
(0.00931647 -5.46687 0)
(0.00712398 -5.50576 0)
(0.00445803 -5.52689 0)
(0.00152883 -5.53616 0)
(-0.00149974 -5.53599 0)
(-0.00444775 -5.52637 0)
(-0.00712998 -5.50496 0)
(-0.0093508 -5.4661 0)
(-0.0108251 -5.39863 0)
(-0.0112194 -5.28299 0)
(-0.010222 -5.08779 0)
(-0.00775154 -4.76802 0)
(-0.00420173 -4.25872 0)
(-0.00154687 -3.16905 0)
(0.00138651 -3.1756 0)
(0.00416678 -4.266 0)
(0.00789745 -4.77381 0)
(0.0105514 -5.09063 0)
(0.0116375 -5.28329 0)
(0.011255 -5.397 0)
(0.00968528 -5.46298 0)
(0.00737161 -5.50069 0)
(0.0045751 -5.52112 0)
(0.00152288 -5.53003 0)
(-0.0016184 -5.52986 0)
(-0.00467737 -5.5206 0)
(-0.00747379 -5.49995 0)
(-0.00980829 -5.46231 0)
(-0.0113724 -5.39667 0)
(-0.0118201 -5.28362 0)
(-0.0107723 -5.09137 0)
(-0.00807788 -4.77398 0)
(-0.00421095 -4.26546 0)
(-0.00134485 -3.17433 0)
(0.00151587 -3.18051 0)
(0.00442604 -4.27313 0)
(0.00816176 -4.77983 0)
(0.0108501 -5.09411 0)
(0.0119231 -5.2837 0)
(0.0115196 -5.39483 0)
(0.00990636 -5.45894 0)
(0.0075153 -5.49541 0)
(0.00462903 -5.51511 0)
(0.00148249 -5.52368 0)
(-0.0017525 -5.52349 0)
(-0.00490584 -5.51458 0)
(-0.00780563 -5.49465 0)
(-0.010229 -5.45818 0)
(-0.011859 -5.3944 0)
(-0.0123369 -5.284 0)
(-0.0112036 -5.09477 0)
(-0.00832714 -4.77992 0)
(-0.00437196 -4.27238 0)
(-0.00143154 -3.17904 0)
(0.00180052 -3.18633 0)
(0.00469154 -4.2812 0)
(0.00851883 -4.78676 0)
(0.0112001 -5.09835 0)
(0.0122148 -5.28462 0)
(0.0117667 -5.39289 0)
(0.0101255 -5.45493 0)
(0.00767039 -5.49012 0)
(0.00471509 -5.50906 0)
(0.00149457 -5.51724 0)
(-0.00181358 -5.51702 0)
(-0.00504186 -5.50843 0)
(-0.00801742 -5.48922 0)
(-0.0105045 -5.45395 0)
(-0.0121761 -5.39211 0)
(-0.012673 -5.2845 0)
(-0.0115036 -5.09845 0)
(-0.00858724 -4.78636 0)
(-0.00458922 -4.28004 0)
(-0.0017814 -3.18382 0)
(0.00174604 -3.19228 0)
(0.00469807 -4.28901 0)
(0.00889619 -4.79363 0)
(0.0117733 -5.10252 0)
(0.012804 -5.2854 0)
(0.0122984 -5.39076 0)
(0.0105632 -5.45079 0)
(0.00800092 -5.48465 0)
(0.00493383 -5.50281 0)
(0.0016061 -5.51063 0)
(-0.00180541 -5.5104 0)
(-0.00512188 -5.50219 0)
(-0.00816556 -5.48375 0)
(-0.0107042 -5.44975 0)
(-0.0124031 -5.38993 0)
(-0.0128815 -5.28526 0)
(-0.0117307 -5.10264 0)
(-0.00888563 -4.79355 0)
(-0.00484282 -4.28851 0)
(-0.00206293 -3.18942 0)
(0.00163866 -3.19768 0)
(0.00475599 -4.29655 0)
(0.00922101 -4.80018 0)
(0.012333 -5.1063 0)
(0.013437 -5.28576 0)
(0.0128745 -5.38824 0)
(0.0110273 -5.44625 0)
(0.00834833 -5.47885 0)
(0.00515119 -5.49626 0)
(0.00170014 -5.50375 0)
(-0.00183338 -5.50356 0)
(-0.00526082 -5.49573 0)
(-0.00840373 -5.4781 0)
(-0.0110217 -5.44548 0)
(-0.0128078 -5.38778 0)
(-0.0133343 -5.28606 0)
(-0.0122463 -5.10705 0)
(-0.00934842 -4.80106 0)
(-0.00494961 -4.29718 0)
(-0.00199637 -3.19565 0)
(0.00193456 -3.20323 0)
(0.00503839 -4.30511 0)
(0.00951926 -4.80745 0)
(0.0126824 -5.11039 0)
(0.013839 -5.28619 0)
(0.0132465 -5.38575 0)
(0.0113358 -5.44164 0)
(0.00856784 -5.47283 0)
(0.00527355 -5.48948 0)
(0.00170254 -5.49662 0)
(-0.00194154 -5.49646 0)
(-0.00548697 -5.48902 0)
(-0.00874951 -5.47221 0)
(-0.0114887 -5.44095 0)
(-0.0133766 -5.38537 0)
(-0.0139877 -5.28663 0)
(-0.0128951 -5.11125 0)
(-0.00977626 -4.80839 0)
(-0.0050102 -4.3056 0)
(-0.00175208 -3.20183 0)
(0.00212864 -3.20927 0)
(0.00512499 -4.31435 0)
(0.00990596 -4.81537 0)
(0.0131413 -5.11492 0)
(0.0143147 -5.28683 0)
(0.0136666 -5.3832 0)
(0.0116853 -5.4369 0)
(0.00880919 -5.46663 0)
(0.00541378 -5.48247 0)
(0.00171786 -5.48929 0)
(-0.00203897 -5.48913 0)
(-0.0057024 -5.48208 0)
(-0.00909705 -5.46604 0)
(-0.0119601 -5.43614 0)
(-0.0139458 -5.38273 0)
(-0.0146333 -5.28705 0)
(-0.0135166 -5.11541 0)
(-0.0102056 -4.81591 0)
(-0.00521772 -4.31445 0)
(-0.00182826 -3.20789 0)
(0.00207375 -3.21563 0)
(0.00526486 -4.32369 0)
(0.0104054 -4.8234 0)
(0.0137622 -5.11945 0)
(0.0149123 -5.28739 0)
(0.0141623 -5.38047 0)
(0.0120779 -5.43195 0)
(0.00909478 -5.46025 0)
(0.00558826 -5.47525 0)
(0.00178065 -5.48173 0)
(-0.00210527 -5.48161 0)
(-0.00589121 -5.47491 0)
(-0.00940251 -5.4597 0)
(-0.0123864 -5.43124 0)
(-0.0144737 -5.38003 0)
(-0.0152306 -5.28754 0)
(-0.0141124 -5.11988 0)
(-0.0106889 -4.82401 0)
(-0.00547406 -4.32411 0)
(-0.00214274 -3.21419 0)
(0.00219728 -3.2223 0)
(0.00558534 -4.33379 0)
(0.0109712 -4.83203 0)
(0.014424 -5.12427 0)
(0.0155503 -5.28808 0)
(0.0146922 -5.3777 0)
(0.0124917 -5.4268 0)
(0.00938702 -5.45367 0)
(0.00575498 -5.46784 0)
(0.00183049 -5.47394 0)
(-0.00218705 -5.47382 0)
(-0.00610375 -5.46751 0)
(-0.00973942 -5.45316 0)
(-0.01283 -5.42616 0)
(-0.0150149 -5.37722 0)
(-0.0158123 -5.28804 0)
(-0.0146797 -5.12458 0)
(-0.0111919 -4.83267 0)
(-0.00577082 -4.33453 0)
(-0.00242721 -3.22087 0)
(0.00224861 -3.22879 0)
(0.00568793 -4.34422 0)
(0.0115568 -4.84085 0)
(0.0152357 -5.129 0)
(0.0163851 -5.28851 0)
(0.0154185 -5.37463 0)
(0.0130593 -5.42135 0)
(0.00978762 -5.44675 0)
(0.00599306 -5.46008 0)
(0.00190916 -5.46582 0)
(-0.00225487 -5.4657 0)
(-0.00631739 -5.45976 0)
(-0.0101006 -5.44622 0)
(-0.0133298 -5.4207 0)
(-0.0156634 -5.37408 0)
(-0.0165624 -5.28821 0)
(-0.0154595 -5.12911 0)
(-0.0118303 -4.84142 0)