# vtk DataFile Version 2.0
track0
ASCII
DATASET POLYDATA
POINTS 12125 float
-0.0205 0.001 1e-05
-0.0204907 0.0011 1e-05
-0.0204812 0.00119999 1e-05
-0.0204716 0.00129996 1e-05
-0.0204619 0.00139993 1e-05
-0.020452 0.0015 1e-05
-0.020442 0.0016 1e-05
-0.0204319 0.00169998 1e-05
-0.0204216 0.00179995 1e-05
-0.0204111 0.0018999 1e-05
-0.0204005 0.002 1e-05
-0.0203897 0.0021 1e-05
-0.0203787 0.00219998 1e-05
-0.0203675 0.00229994 1e-05
-0.0203561 0.00239987 1e-05
-0.0203445 0.0025 1e-05
-0.0203327 0.0026 1e-05
-0.0203207 0.00269997 1e-05
-0.0203085 0.00279992 1e-05
-0.020296 0.00289984 1e-05
-0.0202854 0.0029836 1e-05
-0.020285 0.00298688 1e-05
-0.0202846 0.00299016 1e-05
-0.0202841 0.00299344 1e-05
-0.0202837 0.00299672 1e-05
-0.0202833 0.003 1e-05
-0.0202704 0.0031 1e-05
-0.0202572 0.00319997 1e-05
-0.0202439 0.00329991 1e-05
-0.0202303 0.00339981 1e-05
-0.0202164 0.0035 1e-05
-0.0202022 0.0036 1e-05
-0.0201879 0.00369996 1e-05
-0.0201733 0.00379989 1e-05
-0.0201584 0.00389978 1e-05
-0.0201432 0.004 1e-05
-0.0201278 0.0041 1e-05
-0.0201121 0.00419996 1e-05
-0.0200962 0.00429988 1e-05
-0.02008 0.00439975 1e-05
-0.0200635 0.0045 1e-05
-0.0200552 0.00454907 1e-05
-0.0200469 0.00459812 1e-05
-0.0200386 0.00464717 1e-05
-0.0200302 0.0046962 1e-05
-0.0200223 0.00474142 1e-05
-0.0200133 0.00479313 1e-05
-0.0200042 0.00484484 1e-05
-0.019995 0.00489653 1e-05
-0.0199858 0.00494821 1e-05
-0.0199764 0.005 1e-05
-0.0199583 0.0051 1e-05
-0.0199398 0.00519995 1e-05
-0.0199211 0.00529984 1e-05
-0.019902 0.00539969 1e-05
-0.0198826 0.0055 1e-05
-0.019863 0.0056 1e-05
-0.019843 0.00569994 1e-05
-0.0198228 0.00579983 1e-05
-0.0198023 0.00589965 1e-05
-0.0197814 0.006 1e-05
-0.0197774 0.00601895 1e-05
-0.0197734 0.0060379 1e-05
-0.0197693 0.00605685 1e-05
-0.0197653 0.00607579 1e-05
-0.0197614 0.00609424 1e-05
-0.019744 0.00617539 1e-05
-0.0197264 0.0062565 1e-05
-0.0197086 0.00633757 1e-05
-0.0196906 0.0064186 1e-05
-0.0196724 0.0065 1e-05
-0.0196497 0.0066 1e-05
-0.0196267 0.00669993 1e-05
-0.0196034 0.00679979 1e-05
-0.0195798 0.00689959 1e-05
-0.0195558 0.007 1e-05
-0.0195451 0.00704393 1e-05
-0.0195344 0.00708785 1e-05
-0.0195237 0.00713175 1e-05
-0.0195128 0.00717563 1e-05
-0.0195025 0.00721716 1e-05
-0.0194884 0.00727372 1e-05
-0.0194742 0.00733027 1e-05
-0.0194599 0.00738679 1e-05
-0.0194455 0.00744328 1e-05
-0.0194309 0.0075 1e-05
-0.019405 0.0076 1e-05
-0.0193788 0.00769992 1e-05
-0.0193523 0.00779976 1e-05
-0.0193255 0.00789952 1e-05
-0.0192982 0.008 1e-05
-0.0192877 0.00803813 1e-05
-0.0192772 0.00807624 1e-05
-0.0192666 0.00811435 1e-05
-0.019256 0.00815244 1e-05
-0.0192457 0.0081889 1e-05
-0.0192282 0.00825112 1e-05
-0.0192106 0.00831331 1e-05
-0.0191928 0.00837546 1e-05
-0.0191749 0.00843757 1e-05
-0.0191568 0.0085 1e-05
-0.0191276 0.0086 1e-05
-0.0190981 0.00869991 1e-05
-0.0190682 0.00879972 1e-05
-0.0190381 0.00889944 1e-05
-0.0190073 0.009 1e-05
-0.019004 0.00901051 1e-05
-0.0190008 0.00902101 1e-05
-0.0189975 0.00903151 1e-05
-0.0189943 0.00904202 1e-05
-0.018991 0.0090524 1e-05
-0.0189632 0.00914192 1e-05
-0.018935 0.00923136 1e-05
-0.0189067 0.00932072 1e-05
-0.018878 0.00940999 1e-05
-0.0188489 0.0095 1e-05
-0.0188268 0.00956752 1e-05
-0.0188045 0.009635 1e-05
-0.0187821 0.00970242 1e-05
-0.0187596 0.0097698 1e-05
-0.0187384 0.00983272 1e-05
-0.018727 0.00986617 1e-05
-0.0187157 0.00989962 1e-05
-0.0187042 0.00993305 1e-05
-0.0186928 0.00996647 1e-05
-0.0186812 0.01 1e-05
-0.0186467 0.0101 1e-05
-0.0186118 0.0101999 1e-05
-0.0185766 0.0102997 1e-05
-0.0185411 0.0103993 1e-05
-0.0185048 0.0105 1e-05
-0.0185014 0.0105093 1e-05
-0.018498 0.0105187 1e-05
-0.0184946 0.010528 1e-05
-0.0184912 0.0105374 1e-05
-0.0184878 0.0105466 1e-05
-0.0184546 0.0106373 1e-05
-0.0184211 0.0107279 1e-05
-0.0183874 0.0108183 1e-05
-0.0183534 0.0109087 1e-05
-0.0183187 0.011 1e-05
-0.0183028 0.0110415 1e-05
-0.0182869 0.011083 1e-05
-0.0182708 0.0111245 1e-05
-0.0182547 0.0111659 1e-05
-0.0182392 0.0112058 1e-05
-0.0182162 0.0112647 1e-05
-0.018193 0.0113234 1e-05
-0.0181697 0.0113822 1e-05
-0.0181464 0.0114409 1e-05
-0.0181227 0.0115 1e-05
-0.0180966 0.0115645 1e-05
-0.0180705 0.011629 1e-05
-0.0180442 0.0116934 1e-05
-0.0180177 0.0117578 1e-05
-0.0179926 0.0118186 1e-05
-0.0179775 0.0118549 1e-05
-0.0179624 0.0118911 1e-05
-0.0179472 0.0119274 1e-05
-0.0179319 0.0119636 1e-05
-0.0179166 0.012 1e-05
-0.0178829 0.0120796 1e-05
-0.0178489 0.0121592 1e-05
-0.0178148 0.0122386 1e-05
-0.0177804 0.0123179 1e-05
-0.017748 0.0123921 1e-05
-0.0177385 0.0124137 1e-05
-0.017729 0.0124352 1e-05
-0.0177195 0.0124568 1e-05
-0.0177099 0.0124784 1e-05
-0.0177003 0.0125 1e-05
-0.0176613 0.0125877 1e-05
-0.0176221 0.0126754 1e-05
-0.0175825 0.0127628 1e-05
-0.0175427 0.0128502 1e-05
-0.0175053 0.0129315 1e-05
-0.017499 0.0129452 1e-05
-0.0174926 0.0129589 1e-05
-0.0174863 0.0129726 1e-05
-0.0174799 0.0129863 1e-05
-0.0174735 0.013 1e-05
-0.0174318 0.0130896 1e-05
-0.0173897 0.0131791 1e-05
-0.0173473 0.0132685 1e-05
-0.0173047 0.0133577 1e-05
-0.0172647 0.0134407 1e-05
-0.0172589 0.0134526 1e-05
-0.0172531 0.0134644 1e-05
-0.0172474 0.0134763 1e-05
-0.0172416 0.0134881 1e-05
-0.0172358 0.0135 1e-05
-0.0171938 0.0135859 1e-05
-0.0171516 0.0136718 1e-05
-0.0171091 0.0137574 1e-05
-0.0170663 0.013843 1e-05
-0.0170259 0.013923 1e-05
-0.0170181 0.0139384 1e-05
-0.0170103 0.0139538 1e-05
-0.0170024 0.0139692 1e-05
-0.0169946 0.0139846 1e-05
-0.0169867 0.014 1e-05
-0.0169472 0.0140773 1e-05
-0.0169074 0.0141544 1e-05
-0.0168675 0.0142314 1e-05
-0.0168273 0.0143084 1e-05
-0.0167891 0.0143809 1e-05
-0.0167765 0.0144048 1e-05
-0.0167639 0.0144286 1e-05
-0.0167512 0.0144523 1e-05
-0.0167385 0.0144761 1e-05
-0.0167258 0.0145 1e-05
-0.0166915 0.0145641 1e-05
-0.016657 0.0146281 1e-05
-0.0166224 0.0146921 1e-05
-0.0165876 0.0147559 1e-05
-0.0165542 0.0148168 1e-05
-0.016534 0.0148535 1e-05
-0.0165138 0.0148901 1e-05
-0.0164935 0.0149266 1e-05
-0.0164732 0.0149632 1e-05
-0.0164526 0.015 1e-05
-0.0164263 0.0150469 1e-05
-0.0164 0.0150938 1e-05
-0.0163735 0.0151407 1e-05
-0.016347 0.0151875 1e-05
-0.0163212 0.0152328 1e-05
-0.0162906 0.0152862 1e-05
-0.0162599 0.0153396 1e-05
-0.0162291 0.0153929 1e-05
-0.0161983 0.0154462 1e-05
-0.0161669 0.0155 1e-05
-0.0161515 0.0155262 1e-05
-0.0161361 0.0155525 1e-05
-0.0161207 0.0155787 1e-05
-0.0161052 0.0156049 1e-05
-0.01609 0.0156306 1e-05
-0.0160463 0.0157045 1e-05
-0.0160023 0.0157783 1e-05
-0.0159581 0.0158519 1e-05
-0.0159137 0.0159254 1e-05
-0.0158683 0.016 1e-05
-0.0158668 0.0160025 1e-05
-0.0158653 0.0160049 1e-05
-0.0158638 0.0160074 1e-05
-0.0158623 0.0160099 1e-05
-0.0158607 0.0160124 1e-05
-0.0158153 0.0160866 1e-05
-0.0157696 0.0161607 1e-05
-0.0157236 0.0162347 1e-05
-0.0156775 0.0163085 1e-05
-0.0156333 0.0163788 1e-05
-0.015618 0.016403 1e-05
-0.0156026 0.0164273 1e-05
-0.0155872 0.0164515 1e-05
-0.0155718 0.0164757 1e-05
-0.0155563 0.0165 1e-05
-0.0155266 0.0165465 1e-05
-0.0154968 0.0165929 1e-05
-0.0154669 0.0166392 1e-05
-0.0154369 0.0166855 1e-05
-0.0154077 0.0167305 1e-05
-0.0153725 0.0167844 1e-05
-0.0153372 0.0168382 1e-05
-0.0153018 0.016892 1e-05
-0.0152663 0.0169456 1e-05
-0.0152302 0.017 1e-05
-0.0152209 0.0170139 1e-05
-0.0152117 0.0170277 1e-05
-0.0152024 0.0170415 1e-05
-0.0151931 0.0170554 1e-05
-0.0151839 0.0170691 1e-05
-0.0151395 0.0171352 1e-05
-0.015095 0.0172011 1e-05
-0.0150502 0.017267 1e-05
-0.0150053 0.0173327 1e-05
-0.0149619 0.0173957 1e-05
-0.0149475 0.0174166 1e-05
-0.0149331 0.0174374 1e-05
-0.0149186 0.0174583 1e-05
-0.0149042 0.0174791 1e-05
-0.0148896 0.0175 1e-05
-0.01486 0.0175424 1e-05
-0.0148304 0.0175848 1e-05
-0.0148007 0.0176271 1e-05
-0.0147709 0.0176693 1e-05
-0.0147417 0.0177105 1e-05
-0.0147006 0.0177684 1e-05
-0.0146594 0.0178262 1e-05
-0.014618 0.0178839 1e-05
-0.0145764 0.0179415 1e-05
-0.0145341 0.018 1e-05
-0.0145319 0.0180029 1e-05
-0.0145298 0.0180059 1e-05
-0.0145276 0.0180088 1e-05
-0.0145255 0.0180118 1e-05
-0.0145233 0.0180147 1e-05
-0.01448 0.0180742 1e-05
-0.0144365 0.0181335 1e-05
-0.0143929 0.0181927 1e-05
-0.0143491 0.0182519 1e-05
-0.0143067 0.0183089 1e-05
-0.0142781 0.0183472 1e-05
-0.0142495 0.0183853 1e-05
-0.0142208 0.0184234 1e-05
-0.014192 0.0184615 1e-05
-0.0141629 0.0185 1e-05
-0.0141487 0.0185187 1e-05
-0.0141344 0.0185374 1e-05
-0.0141202 0.0185562 1e-05
-0.0141059 0.0185748 1e-05
-0.0140917 0.0185933 1e-05
-0.0140491 0.018649 1e-05
-0.0140063 0.0187046 1e-05
-0.0139635 0.01876 1e-05
-0.0139204 0.0188154 1e-05
-0.0138786 0.0188691 1e-05
-0.013858 0.0188952 1e-05
-0.0138375 0.0189214 1e-05
-0.0138169 0.0189476 1e-05
-0.0137963 0.0189737 1e-05
-0.0137754 0.019 1e-05
-0.0137538 0.0190273 1e-05
-0.0137321 0.0190546 1e-05
-0.0137103 0.0190819 1e-05
-0.0136886 0.0191092 1e-05
-0.0136671 0.019136 1e-05
-0.0136251 0.0191883 1e-05
-0.0135831 0.0192405 1e-05
-0.0135409 0.0192926 1e-05
-0.0134986 0.0193447 1e-05
-0.0134573 0.0193952 1e-05
-0.0134402 0.0194162 1e-05
-0.013423 0.0194371 1e-05
-0.0134057 0.019458 1e-05
-0.0133885 0.019479 1e-05
-0.0133711 0.0195 1e-05
-0.0133468 0.0195295 1e-05
-0.0133223 0.0195589 1e-05
-0.0132979 0.0195883 1e-05
-0.0132734 0.0196177 1e-05
-0.0132493 0.0196466 1e-05
-0.013208 0.0196959 1e-05
-0.0131666 0.0197451 1e-05
-0.0131251 0.0197942 1e-05
-0.0130835 0.0198432 1e-05
-0.0130429 0.019891 1e-05
-0.0130242 0.0199128 1e-05
-0.0130056 0.0199346 1e-05
-0.0129869 0.0199564 1e-05
-0.0129682 0.0199781 1e-05
-0.0129493 0.02 1e-05
-0.0129271 0.0200258 1e-05
-0.0129048 0.0200515 1e-05
-0.0128825 0.0200773 1e-05
-0.0128602 0.020103 1e-05
-0.0128381 0.0201284 1e-05
-0.0127975 0.0201749 1e-05
-0.0127568 0.0202214 1e-05
-0.012716 0.0202678 1e-05
-0.0126751 0.0203142 1e-05
-0.012635 0.0203594 1e-05
-0.01261 0.0203875 1e-05
-0.012585 0.0204156 1e-05
-0.0125599 0.0204437 1e-05
-0.0125348 0.0204717 1e-05
-0.0125094 0.0205 1e-05
-0.0124942 0.0205169 1e-05
-0.0124791 0.0205337 1e-05
-0.0124639 0.0205505 1e-05
-0.0124487 0.0205674 1e-05
-0.0124336 0.020584 1e-05
-0.0123936 0.0206281 1e-05
-0.0123536 0.0206722 1e-05
[...]
POINT_DATA 12125
 FIELD attributes 2
p 1 12125 float
-0.011414 -0.0125706 -0.0137257 -0.0148804 -0.016035 -0.017191 -0.0183408 -0.0194899 -0.0206377 -0.0217848 -0.0229332 -0.0240715 -0.0252096 -0.0263475 -0.0274844 -0.0286226 -0.029758 -0.0308931 -0.032028 -0.0331627 -0.0341137 -0.034151 -0.0341883 -0.0342256 -0.0342628 -0.0343001 -0.0354308 -0.0365611 -0.0376912 -0.0388209 -0.0399539 -0.0410812 -0.0422078 -0.043333 -0.0444579 -0.0455865 -0.0467104 -0.0478338 -0.0489568 -0.0500793 -0.0512048 -0.0517548 -0.0523047 -0.0528545 -0.0534042 -0.0539111 -0.0544913 -0.0550712 -0.055651 -0.0562307 -0.0568117 -0.0579323 -0.0590514 -0.0601695 -0.0612873 -0.0624103 -0.063529 -0.0646472 -0.065765 -0.0668822 -0.0680045 -0.0682164 -0.0684282 -0.0686399 -0.0688517 -0.0690578 -0.0699652 -0.0708723 -0.071779 -0.0726853 -0.073596 -0.0747146 -0.0758327 -0.0769502 -0.078066 -0.0791888 -0.0796802 -0.0801715 -0.0806627 -0.0811537 -0.0816183 -0.0822517 -0.0828847 -0.0835176 -0.0841502 -0.0847853 -0.0859059 -0.0870258 -0.0881449 -0.0892623 -0.090388 -0.0908158 -0.0912433 -0.0916708 -0.0920981 -0.0925071 -0.0932054 -0.0939035 -0.0946013 -0.0952988 -0.0959999 -0.0971244 -0.0982481 -0.099371 -0.100493 -0.101624 -0.101743 -0.101861 -0.101979 -0.102098 -0.102215 -0.103224 -0.104232 -0.10524 -0.106247 -0.107262 -0.108026 -0.108789 -0.109552 -0.110314 -0.111026 -0.111405 -0.111783 -0.112162 -0.11254 -0.11292 -0.114056 -0.11519 -0.116324 -0.117456 -0.1186 -0.118706 -0.118813 -0.118919 -0.119025 -0.119131 -0.120165 -0.121197 -0.122229 -0.12326 -0.124302 -0.124777 -0.125252 -0.125727 -0.126202 -0.126659 -0.127333 -0.128007 -0.128681 -0.129354 -0.130032 -0.130775 -0.131517 -0.132259 -0.133001 -0.133701 -0.134119 -0.134537 -0.134955 -0.135373 -0.135792 -0.136714 -0.137636 -0.138556 -0.139476 -0.140335 -0.140585 -0.140835 -0.141086 -0.141336 -0.141587 -0.142609 -0.14363 -0.14465 -0.145669 -0.146618 -0.146777 -0.146937 -0.147097 -0.147257 -0.147417 -0.148469 -0.149519 -0.150568 -0.151616 -0.152592 -0.152731 -0.15287 -0.153009 -0.153148 -0.153288 -0.154304 -0.155318 -0.156332 -0.157343 -0.158291 -0.158473 -0.158655 -0.158837 -0.159019 -0.159202 -0.160122 -0.161041 -0.16196 -0.162877 -0.163742 -0.164026 -0.16431 -0.164593 -0.164877 -0.165162 -0.165932 -0.166701 -0.167469 -0.168237 -0.16897 -0.16941 -0.16985 -0.170289 -0.170729 -0.171171 -0.17174 -0.172309 -0.172877 -0.173444 -0.173994 -0.174641 -0.175288 -0.175935 -0.176581 -0.177234 -0.177555 -0.177876 -0.178197 -0.178518 -0.178833 -0.179737 -0.180639 -0.181539 -0.182439 -0.183352 -0.183383 -0.183413 -0.183444 -0.183475 -0.183505 -0.184421 -0.185336 -0.186249 -0.187161 -0.18803 -0.188329 -0.188627 -0.188926 -0.189225 -0.189525 -0.190104 -0.190683 -0.191261 -0.191839 -0.1924 -0.193071 -0.193741 -0.194411 -0.19508 -0.195757 -0.195932 -0.196106 -0.196281 -0.196455 -0.196629 -0.19746 -0.19829 -0.199118 -0.199945 -0.200738 -0.200999 -0.201261 -0.201523 -0.201784 -0.202047 -0.202586 -0.203125 -0.203662 -0.2042 -0.204724 -0.205458 -0.206191 -0.206923 -0.207654 -0.208396 -0.208433 -0.208471 -0.208509 -0.208547 -0.208585 -0.209346 -0.210106 -0.210865 -0.211623 -0.212355 -0.212843 -0.21333 -0.213817 -0.214303 -0.214794 -0.215037 -0.21528 -0.215522 -0.215764 -0.216004 -0.216722 -0.217439 -0.218155 -0.218869 -0.219561 -0.219897 -0.220233 -0.220568 -0.220904 -0.221241 -0.221597 -0.221953 -0.222309 -0.222664 -0.223015 -0.223693 -0.22437 -0.225047 -0.225721 -0.226378 -0.226647 -0.226917 -0.227187 -0.227456 -0.227728 -0.228114 -0.2285 -0.228885 -0.22927 -0.229649 -0.23029 -0.230931 -0.231571 -0.232209 -0.232831 -0.233113 -0.233394 -0.233675 -0.233956 -0.234238 -0.234577 -0.234915 -0.235254 -0.235592 -0.235926 -0.236533 -0.237139 -0.237745 -0.238349 -0.23894 -0.239303 -0.239666 -0.240028 -0.24039 -0.240756 -0.240978 -0.2412 -0.241422 -0.241643 -0.241863 -0.242438 -0.243012 -0.243585 -0.244158 -0.244718 -0.245226 -0.245734 -0.24624 -0.246745 -0.247257 -0.247299 -0.247342 -0.247384 -0.247427 -0.24747 -0.248013 -0.248558 -0.249101 -0.249643 -0.250175 -0.250698 -0.251221 -0.251743 -0.252263 -0.252775 -0.252959 -0.253145 -0.25333 -0.253515 -0.253703 -0.254026 -0.254349 -0.254671 -0.254993 -0.255312 -0.255808 -0.256301 -0.256795 -0.257288 -0.257771 -0.258229 -0.258686 -0.259143 -0.259599 -0.260061 -0.260075 -0.260089 -0.260103 -0.260118 -0.260133 -0.2606 -0.261067 -0.261533 -0.261998 -0.262456 -0.262902 -0.263348 -0.263794 -0.26424 -0.264681 -0.264996 -0.265311 -0.265627 -0.265941 -0.266259 -0.266372 -0.266485 -0.266597 -0.26671 -0.266821 -0.267242 -0.267663 -0.268084 -0.268504 -0.268918 -0.26932 -0.269721 -0.27012 -0.27052 -0.270915 -0.27118 -0.271446 -0.271711 -0.271975 -0.272243 -0.27236 -0.272478 -0.272597 -0.272716 -0.272836 -0.27321 -0.273586 -0.273961 -0.274335 -0.274705 -0.275059 -0.275414 -0.275768 -0.276125 -0.276479 -0.276764 -0.277049 -0.277334 -0.277618 -0.277906 -0.277958 -0.27801 -0.278061 -0.278113 -0.278164 -0.278495 -0.278828 -0.279159 -0.27949 -0.279818 -0.28013 -0.28044 -0.280752 -0.281065 -0.281373 -0.281666 -0.281959 -0.282251 -0.282543 -0.282834 -0.282896 -0.282958 -0.283019 -0.28308 -0.283142 -0.283364 -0.283586 -0.283807 -0.284028 -0.284248 -0.284511 -0.284777 -0.285046 -0.285315 -0.285582 -0.285829 -0.286075 -0.28632 -0.286568 -0.286817 -0.287006 -0.287196 -0.287387 -0.287576 -0.28777 -0.287808 -0.287848 -0.287887 -0.287927 -0.287969 -0.288192 -0.288416 -0.28864 -0.288863 -0.289083 -0.289283 -0.289483 -0.28969 -0.289897 -0.290103 -0.290287 -0.29047 -0.290652 -0.290835 -0.291022 -0.291138 -0.291255 -0.291372 -0.291489 -0.291608 -0.291658 -0.29171 -0.291762 -0.291813 -0.291867 -0.292023 -0.292183 -0.292342 -0.2925 -0.292657 -0.292789 -0.292923 -0.293065 -0.293208 -0.293352 -0.293469 -0.293585 -0.293701 -0.293819 -0.293943 -0.294028 -0.294115 -0.294201 -0.294287 -0.294375 -0.294388 -0.294402 -0.294418 -0.294433 -0.294451 -0.294543 -0.294638 -0.294732 -0.294826 -0.294918 -0.294981 -0.295051 -0.29513 -0.295209 -0.295289 -0.295338 -0.295386 -0.295434 -0.295494 -0.295555 -0.295585 -0.295618 -0.295651 -0.295683 -0.295725 -0.29573 -0.295736 -0.295741 -0.295747 -0.295752 -0.295771 -0.295787 -0.295803 -0.295818 -0.295832 -0.295825 -0.295835 -0.295844 -0.295853 -0.295862 -0.29584 -0.295815 -0.295803 -0.295795 -0.295784 -0.295744 -0.295703 -0.295663 -0.29563 -0.295608 -0.295554 -0.295497 -0.29544 -0.295382 -0.295325 -0.295313 -0.295303 -0.295292 -0.295282 -0.295271 -0.295213 -0.29516 -0.295107 -0.295053 -0.295005 -0.294903 -0.294822 -0.294743 -0.294663 -0.294584 -0.294463 -0.294347 -0.294247 -0.294153 -0.294065 -0.29393 -0.293796 -0.293662 -0.293541 -0.293432 -0.293279 -0.293132 -0.292985 -0.292837 -0.292705 -0.292647 -0.292591 -0.292535 -0.292478 -0.292423 -0.292324 -0.29222 -0.292116 -0.292012 -0.291904 -0.291714 -0.291545 -0.291375 -0.291206 -0.291036 -0.290829 -0.290621 -0.290437 -0.290253 -0.290063 -0.289842 -0.28962 -0.289401 -0.289208 -0.289017 -0.288789 -0.288556 -0.288323 -0.28809 -0.28788 -0.287657 -0.287434 -0.287211 -0.286988 -0.286764 -0.286748 -0.286731 -0.286714 -0.286697 -0.28669 -0.286453 -0.286221 -0.285989 -0.285756 -0.285527 -0.285247 -0.285003 -0.284763 -0.284523 -0.284292 -0.28401 -0.283731 -0.28348 -0.283232 -0.282988 -0.282687 -0.282395 -0.282102 -0.281839 -0.281588 -0.281285 -0.280984 -0.280684 -0.280384 -0.280115 -0.279828 -0.279547 -0.279268 -0.278988 -0.278716 -0.278678 -0.27864 -0.278601 -0.278562 -0.278522 -0.278193 -0.277862 -0.277532 -0.277202 -0.276865 -0.276473 -0.276115 -0.275762 -0.27541 -0.275056 -0.27465 -0.274239 -0.273866 -0.273497 -0.273122 -0.27269 -0.272259 -0.271828 -0.271436 -0.271045 -0.2706 -0.270151 -0.269703 -0.269255 -0.268841 -0.268388 -0.267937 -0.267487 -0.267038 -0.266599 -0.26658 -0.266561 -0.266542 -0.266524 -0.266507 -0.266025 -0.265545 -0.265067 -0.264589 -0.264107 -0.263564 -0.263069 -0.262578 -0.262087 -0.261595 -0.261043 -0.260492 -0.259985 -0.259484 -0.258974 -0.258407 -0.257844 -0.257283 -0.256766 -0.256249 -0.255677 -0.255105 -0.254536 -0.253968 -0.253428 -0.252985 -0.252546 -0.252108 -0.251672 -0.251252 -0.251105 -0.250961 -0.250817 -0.250673 -0.25053 -0.249926 -0.249338 -0.248752 -0.248168 -0.247569 -0.246914 -0.246294 -0.245701 -0.245109 -0.244504 -0.243844 -0.243186 -0.24255 -0.241952 -0.241332 -0.240661 -0.239995 -0.239333 -0.238679 -0.238055 -0.237482 -0.236909 -0.236339 -0.235772 -0.235227 -0.235117 -0.235006 -0.234895 -0.234783 -0.234669 -0.233962 -0.233275 -0.232591 -0.231912 -0.231206 -0.230447 -0.229711 -0.229017 -0.228327 -0.227603 -0.226833 -0.226069 -0.225311 -0.224604 -0.223875 -0.223094 -0.222315 -0.221541 -0.220772 -0.219972 -0.219867 -0.219762 -0.219658 -0.219555 -0.219453 -0.218742 -0.218036 -0.217334 -0.216636 -0.215904 -0.215002 -0.21413 -0.213297 -0.212469 -0.211587 -0.210674 -0.209768 -0.20887 -0.208008 -0.207124 -0.206453 -0.205782 -0.205114 -0.204451 -0.203806 -0.203586 -0.203366 -0.203146 -0.202927 -0.202703 -0.201764 -0.200867 -0.199976 -0.199091 -0.198145 -0.197054 -0.195963 -0.194891 -0.193884 -0.192796 -0.191714 -0.190639 -0.18957 -0.188509 -0.187481 -0.187302 -0.187123 -0.186943 -0.186764 -0.186583 -0.185355 -0.184169 -0.182995 -0.18183 -0.180544 -0.179511 -0.178479 -0.177453 -0.176435 -0.175448 -0.17477 -0.174087 -0.173408 -0.17273 -0.172001 -0.170797 -0.169599 -0.16841 -0.16723 -0.166086 -0.165099 -0.164113 -0.163133 -0.162158 -0.16109 -0.160048 -0.159009 -0.157977 -0.156949 -0.155941 -0.154362 -0.152796 -0.151241 -0.149698 -0.147947 -0.147465 -0.146988 -0.146512 -0.146038 -0.145572 -0.143589 -0.141638 -0.139717 -0.137857 -0.136069 -0.135713 -0.135375 -0.135038 -0.134702 -0.134369 -0.133283 -0.132228 -0.131186 -0.130154 -0.129168 -0.128545 -0.127966 -0.127405 -0.126859 -0.126249 -0.126206 -0.126172 -0.126148 -0.126124 -0.126127 -0.126626 -0.127151 -0.127693 -0.12825 -0.128847 -0.130493 -0.132193 -0.13391 -0.135643 -0.137372 -0.137577 -0.137817 -0.138058 -0.138308 -0.13858 -0.141254 -0.14397 -0.146694 -0.149426 -0.152173 -0.156183 -0.160232 -0.164237 -0.168167 -0.172101 -0.17688 -0.181692 -0.18651 -0.191335 -0.196113 -0.197254 -0.198415 -0.199576 -0.200737 -0.202008 -0.206255 -0.210521 -0.214788 -0.219055 -0.223326 -0.229246 -0.235099 -0.240941 -0.246783 -0.252617 -0.25875 -0.264894 -0.270984 -0.277059 -0.283127 -0.289347 -0.295576 -0.301803 -0.308005 -0.314201 -0.320401 -0.326607 -0.332811 -0.339026 -0.345265 -0.351337 -0.357414 -0.363491 -0.369566 -0.375756 -0.381589 -0.387423 -0.393258 -0.399091 -0.405057 -0.410513 -0.415969 -0.421425 -0.426882 -0.432422 -0.435836 -0.439243 -0.442651 -0.446058 -0.450397 -0.451717 -0.453038 -0.454358 -0.455679 -0.456998 -0.461144 -0.46533 -0.469517 -0.473705 -0.47789 -0.481043 -0.484436 -0.487831 -0.491227 -0.494631 -0.497039 -0.499871 -0.502706 -0.505543 -0.508415 -0.510923 -0.513889 -0.51686 -0.519834 -0.522899 -0.527525 -0.532297 -0.537075 -0.541858 -0.546836 -0.557116 -0.566834 -0.576556 -0.586281 -0.596358 -0.616688 -0.635612 -0.654536 -0.673458 -0.692896 -0.726723 -0.758741 -0.790756 -0.822768 -0.855393 -0.904737 -0.952718 -1.00071 -1.04871 -1.09736 -1.16349 -1.22937 -1.29528 -1.36121 -1.42779 -1.50669 -1.58673 -1.6668 -1.74689 -1.8273 -1.90459 -1.98459 -2.06459 -2.1446 -2.22435 -2.28898 -2.35856 -2.42813 -2.49769 -2.56693 -2.62597 -2.69014 -2.75516 -2.82019 -2.88524 -2.92866 -2.97411 -3.02127 -3.06846 -3.11474 -3.13291 -3.15195 -3.17236 -3.19282 -3.21299 -3.21861 -3.22434 -3.23057 -3.23685 -3.24299