# vtk DataFile Version 2.0
track0
ASCII
DATASET POLYDATA
POINTS 12125 float
-0.0205 0.001 1e-05
-0.0204907 0.0011 1e-05
-0.0204812 0.00119999 1e-05
-0.0204716 0.00129996 1e-05
-0.0204619 0.00139993 1e-05
-0.020452 0.0015 1e-05
-0.020442 0.0016 1e-05
-0.0204319 0.00169998 1e-05
-0.0204216 0.00179995 1e-05
-0.0204111 0.0018999 1e-05
-0.0204005 0.002 1e-05
-0.0203897 0.0021 1e-05
-0.0203787 0.00219998 1e-05
-0.0203675 0.00229994 1e-05
-0.0203561 0.00239987 1e-05
-0.0203445 0.0025 1e-05
-0.0203327 0.0026 1e-05
-0.0203207 0.00269997 1e-05
-0.0203085 0.00279992 1e-05
-0.020296 0.00289984 1e-05
-0.0202854 0.0029836 1e-05
-0.020285 0.00298688 1e-05
-0.0202846 0.00299016 1e-05
-0.0202841 0.00299344 1e-05
-0.0202837 0.00299672 1e-05
-0.0202833 0.003 1e-05
-0.0202704 0.0031 1e-05
-0.0202572 0.00319997 1e-05
-0.0202439 0.00329991 1e-05
-0.0202303 0.00339981 1e-05
-0.0202164 0.0035 1e-05
-0.0202022 0.0036 1e-05
-0.0201879 0.00369996 1e-05
-0.0201733 0.00379989 1e-05
-0.0201584 0.00389978 1e-05
-0.0201432 0.004 1e-05
-0.0201278 0.0041 1e-05
-0.0201121 0.00419996 1e-05
-0.0200962 0.00429988 1e-05
-0.02008 0.00439975 1e-05
-0.0200635 0.0045 1e-05
-0.0200552 0.00454907 1e-05
-0.0200469 0.00459812 1e-05
-0.0200386 0.00464717 1e-05
-0.0200302 0.0046962 1e-05
-0.0200223 0.00474142 1e-05
-0.0200133 0.00479313 1e-05
-0.0200042 0.00484484 1e-05
-0.019995 0.00489653 1e-05
-0.0199858 0.00494821 1e-05
-0.0199764 0.005 1e-05
-0.0199583 0.0051 1e-05
-0.0199398 0.00519995 1e-05
-0.0199211 0.00529984 1e-05
-0.019902 0.00539969 1e-05
-0.0198826 0.0055 1e-05
-0.019863 0.0056 1e-05
-0.019843 0.00569994 1e-05
-0.0198228 0.00579983 1e-05
-0.0198023 0.00589965 1e-05
-0.0197814 0.006 1e-05
-0.0197774 0.00601895 1e-05
-0.0197734 0.0060379 1e-05
-0.0197693 0.00605685 1e-05
-0.0197653 0.00607579 1e-05
-0.0197614 0.00609424 1e-05
-0.019744 0.00617539 1e-05
-0.0197264 0.0062565 1e-05
-0.0197086 0.00633757 1e-05
-0.0196906 0.0064186 1e-05
-0.0196724 0.0065 1e-05
-0.0196497 0.0066 1e-05
-0.0196267 0.00669993 1e-05
-0.0196034 0.00679979 1e-05
-0.0195798 0.00689959 1e-05
-0.0195558 0.007 1e-05
-0.0195451 0.00704393 1e-05
-0.0195344 0.00708785 1e-05
-0.0195237 0.00713175 1e-05
-0.0195128 0.00717563 1e-05
-0.0195025 0.00721716 1e-05
-0.0194884 0.00727372 1e-05
-0.0194742 0.00733027 1e-05
-0.0194599 0.00738679 1e-05
-0.0194455 0.00744328 1e-05
-0.0194309 0.0075 1e-05
-0.019405 0.0076 1e-05
-0.0193788 0.00769992 1e-05
-0.0193523 0.00779976 1e-05
-0.0193255 0.00789952 1e-05
-0.0192982 0.008 1e-05
-0.0192877 0.00803813 1e-05
-0.0192772 0.00807624 1e-05
-0.0192666 0.00811435 1e-05
-0.019256 0.00815244 1e-05
-0.0192457 0.0081889 1e-05
-0.0192282 0.00825112 1e-05
-0.0192106 0.00831331 1e-05
-0.0191928 0.00837546 1e-05
-0.0191749 0.00843757 1e-05
-0.0191568 0.0085 1e-05
-0.0191276 0.0086 1e-05
-0.0190981 0.00869991 1e-05
-0.0190682 0.00879972 1e-05
-0.0190381 0.00889944 1e-05
-0.0190073 0.009 1e-05
-0.019004 0.00901051 1e-05
-0.0190008 0.00902101 1e-05
-0.0189975 0.00903151 1e-05
-0.0189943 0.00904202 1e-05
-0.018991 0.0090524 1e-05
-0.0189632 0.00914192 1e-05
-0.018935 0.00923136 1e-05
-0.0189067 0.00932072 1e-05
-0.018878 0.00940999 1e-05
-0.0188489 0.0095 1e-05
-0.0188268 0.00956752 1e-05
-0.0188045 0.009635 1e-05
-0.0187821 0.00970242 1e-05
-0.0187596 0.0097698 1e-05
-0.0187384 0.00983272 1e-05
-0.018727 0.00986617 1e-05
-0.0187157 0.00989962 1e-05
-0.0187042 0.00993305 1e-05
-0.0186928 0.00996647 1e-05
-0.0186812 0.01 1e-05
-0.0186467 0.0101 1e-05
-0.0186118 0.0101999 1e-05
-0.0185766 0.0102997 1e-05
-0.0185411 0.0103993 1e-05
-0.0185048 0.0105 1e-05
-0.0185014 0.0105093 1e-05
-0.018498 0.0105187 1e-05
-0.0184946 0.010528 1e-05
-0.0184912 0.0105374 1e-05
-0.0184878 0.0105466 1e-05
-0.0184546 0.0106373 1e-05
-0.0184211 0.0107279 1e-05
-0.0183874 0.0108183 1e-05
-0.0183534 0.0109087 1e-05
-0.0183187 0.011 1e-05
-0.0183028 0.0110415 1e-05
-0.0182869 0.011083 1e-05
-0.0182708 0.0111245 1e-05
-0.0182547 0.0111659 1e-05
-0.0182392 0.0112058 1e-05
-0.0182162 0.0112647 1e-05
-0.018193 0.0113234 1e-05
-0.0181697 0.0113822 1e-05
-0.0181464 0.0114409 1e-05
-0.0181227 0.0115 1e-05
-0.0180966 0.0115645 1e-05
-0.0180705 0.011629 1e-05
-0.0180442 0.0116934 1e-05
-0.0180177 0.0117578 1e-05
-0.0179926 0.0118186 1e-05
-0.0179775 0.0118549 1e-05
-0.0179624 0.0118911 1e-05
-0.0179472 0.0119274 1e-05
-0.0179319 0.0119636 1e-05
-0.0179166 0.012 1e-05
-0.0178829 0.0120796 1e-05
-0.0178489 0.0121592 1e-05
-0.0178148 0.0122386 1e-05
-0.0177804 0.0123179 1e-05
-0.017748 0.0123921 1e-05
-0.0177385 0.0124137 1e-05
-0.017729 0.0124352 1e-05
-0.0177195 0.0124568 1e-05
-0.0177099 0.0124784 1e-05
-0.0177003 0.0125 1e-05
-0.0176613 0.0125877 1e-05
-0.0176221 0.0126754 1e-05
-0.0175825 0.0127628 1e-05
-0.0175427 0.0128502 1e-05
-0.0175053 0.0129315 1e-05
-0.017499 0.0129452 1e-05
-0.0174926 0.0129589 1e-05
-0.0174863 0.0129726 1e-05
-0.0174799 0.0129863 1e-05
-0.0174735 0.013 1e-05
-0.0174318 0.0130896 1e-05
-0.0173897 0.0131791 1e-05
-0.0173473 0.0132685 1e-05
-0.0173047 0.0133577 1e-05
-0.0172647 0.0134407 1e-05
-0.0172589 0.0134526 1e-05
-0.0172531 0.0134644 1e-05
-0.0172474 0.0134763 1e-05
-0.0172416 0.0134881 1e-05
-0.0172358 0.0135 1e-05
-0.0171938 0.0135859 1e-05
-0.0171516 0.0136718 1e-05
-0.0171091 0.0137574 1e-05
-0.0170663 0.013843 1e-05
-0.0170259 0.013923 1e-05
-0.0170181 0.0139384 1e-05
-0.0170103 0.0139538 1e-05
-0.0170024 0.0139692 1e-05
-0.0169946 0.0139846 1e-05
-0.0169867 0.014 1e-05
-0.0169472 0.0140773 1e-05
-0.0169074 0.0141544 1e-05
-0.0168675 0.0142314 1e-05
-0.0168273 0.0143084 1e-05
-0.0167891 0.0143809 1e-05
-0.0167765 0.0144048 1e-05
-0.0167639 0.0144286 1e-05
-0.0167512 0.0144523 1e-05
-0.0167385 0.0144761 1e-05
-0.0167258 0.0145 1e-05
-0.0166915 0.0145641 1e-05
-0.016657 0.0146281 1e-05
-0.0166224 0.0146921 1e-05
-0.0165876 0.0147559 1e-05
-0.0165542 0.0148168 1e-05
-0.016534 0.0148535 1e-05
-0.0165138 0.0148901 1e-05
-0.0164935 0.0149266 1e-05
-0.0164732 0.0149632 1e-05
-0.0164526 0.015 1e-05
-0.0164263 0.0150469 1e-05
-0.0164 0.0150938 1e-05
-0.0163735 0.0151407 1e-05
-0.016347 0.0151875 1e-05
-0.0163212 0.0152328 1e-05
-0.0162906 0.0152862 1e-05
-0.0162599 0.0153396 1e-05
-0.0162291 0.0153929 1e-05
-0.0161983 0.0154462 1e-05
-0.0161669 0.0155 1e-05
-0.0161515 0.0155262 1e-05
-0.0161361 0.0155525 1e-05
-0.0161207 0.0155787 1e-05
-0.0161052 0.0156049 1e-05
-0.01609 0.0156306 1e-05
-0.0160463 0.0157045 1e-05
-0.0160023 0.0157783 1e-05
-0.0159581 0.0158519 1e-05
-0.0159137 0.0159254 1e-05
-0.0158683 0.016 1e-05
-0.0158668 0.0160025 1e-05
-0.0158653 0.0160049 1e-05
-0.0158638 0.0160074 1e-05
-0.0158623 0.0160099 1e-05
-0.0158607 0.0160124 1e-05
-0.0158153 0.0160866 1e-05
-0.0157696 0.0161607 1e-05
-0.0157236 0.0162347 1e-05
-0.0156775 0.0163085 1e-05
-0.0156333 0.0163788 1e-05
-0.015618 0.016403 1e-05
-0.0156026 0.0164273 1e-05
-0.0155872 0.0164515 1e-05
-0.0155718 0.0164757 1e-05
-0.0155563 0.0165 1e-05
-0.0155266 0.0165465 1e-05
-0.0154968 0.0165929 1e-05
-0.0154669 0.0166392 1e-05
-0.0154369 0.0166855 1e-05
-0.0154077 0.0167305 1e-05
-0.0153725 0.0167844 1e-05
-0.0153372 0.0168382 1e-05
-0.0153018 0.016892 1e-05
-0.0152663 0.0169456 1e-05
-0.0152302 0.017 1e-05
-0.0152209 0.0170139 1e-05
-0.0152117 0.0170277 1e-05
-0.0152024 0.0170415 1e-05
-0.0151931 0.0170554 1e-05
-0.0151839 0.0170691 1e-05
-0.0151395 0.0171352 1e-05
-0.015095 0.0172011 1e-05
-0.0150502 0.017267 1e-05
-0.0150053 0.0173327 1e-05
-0.0149619 0.0173957 1e-05
-0.0149475 0.0174166 1e-05
-0.0149331 0.0174374 1e-05
-0.0149186 0.0174583 1e-05
-0.0149042 0.0174791 1e-05
-0.0148896 0.0175 1e-05
-0.01486 0.0175424 1e-05
-0.0148304 0.0175848 1e-05
-0.0148007 0.0176271 1e-05
-0.0147709 0.0176693 1e-05
-0.0147417 0.0177105 1e-05
-0.0147006 0.0177684 1e-05
-0.0146594 0.0178262 1e-05
-0.014618 0.0178839 1e-05
-0.0145764 0.0179415 1e-05
-0.0145341 0.018 1e-05
-0.0145319 0.0180029 1e-05
-0.0145298 0.0180059 1e-05
-0.0145276 0.0180088 1e-05
-0.0145255 0.0180118 1e-05
-0.0145233 0.0180147 1e-05
-0.01448 0.0180742 1e-05
-0.0144365 0.0181335 1e-05
-0.0143929 0.0181927 1e-05
-0.0143491 0.0182519 1e-05
-0.0143067 0.0183089 1e-05
-0.0142781 0.0183472 1e-05
-0.0142495 0.0183853 1e-05
-0.0142208 0.0184234 1e-05
-0.014192 0.0184615 1e-05
-0.0141629 0.0185 1e-05
-0.0141487 0.0185187 1e-05
-0.0141344 0.0185374 1e-05
-0.0141202 0.0185562 1e-05
-0.0141059 0.0185748 1e-05
-0.0140917 0.0185933 1e-05
-0.0140491 0.018649 1e-05
-0.0140063 0.0187046 1e-05
-0.0139635 0.01876 1e-05
-0.0139204 0.0188154 1e-05
-0.0138786 0.0188691 1e-05
-0.013858 0.0188952 1e-05
-0.0138375 0.0189214 1e-05
-0.0138169 0.0189476 1e-05
-0.0137963 0.0189737 1e-05
-0.0137754 0.019 1e-05
-0.0137538 0.0190273 1e-05
-0.0137321 0.0190546 1e-05
-0.0137103 0.0190819 1e-05
-0.0136886 0.0191092 1e-05
-0.0136671 0.019136 1e-05
-0.0136251 0.0191883 1e-05
-0.0135831 0.0192405 1e-05
-0.0135409 0.0192926 1e-05
-0.0134986 0.0193447 1e-05
-0.0134573 0.0193952 1e-05
-0.0134402 0.0194162 1e-05
-0.013423 0.0194371 1e-05
-0.0134057 0.019458 1e-05
-0.0133885 0.019479 1e-05
-0.0133711 0.0195 1e-05
-0.0133468 0.0195295 1e-05
-0.0133223 0.0195589 1e-05
-0.0132979 0.0195883 1e-05
-0.0132734 0.0196177 1e-05
-0.0132493 0.0196466 1e-05
-0.013208 0.0196959 1e-05
-0.0131666 0.0197451 1e-05
-0.0131251 0.0197942 1e-05
-0.0130835 0.0198432 1e-05
-0.0130429 0.019891 1e-05
-0.0130242 0.0199128 1e-05
-0.0130056 0.0199346 1e-05
-0.0129869 0.0199564 1e-05
-0.0129682 0.0199781 1e-05
-0.0129493 0.02 1e-05
-0.0129271 0.0200258 1e-05
-0.0129048 0.0200515 1e-05
-0.0128825 0.0200773 1e-05
-0.0128602 0.020103 1e-05
-0.0128381 0.0201284 1e-05
-0.0127975 0.0201749 1e-05
-0.0127568 0.0202214 1e-05
-0.012716 0.0202678 1e-05
-0.0126751 0.0203142 1e-05
-0.012635 0.0203594 1e-05
-0.01261 0.0203875 1e-05
-0.012585 0.0204156 1e-05
-0.0125599 0.0204437 1e-05
-0.0125348 0.0204717 1e-05
-0.0125094 0.0205 1e-05
-0.0124942 0.0205169 1e-05
-0.0124791 0.0205337 1e-05
-0.0124639 0.0205505 1e-05
-0.0124487 0.0205674 1e-05
-0.0124336 0.020584 1e-05
-0.0123936 0.0206281 1e-05
-0.0123536 0.0206722 1e-05
[...]
POINT_DATA 12125
 FIELD attributes 1
U 3 12125 float
-0.027052 	-0.289481 	0 -0.0274148 	-0.289452 	0 -0.0277783 	-0.289422 	0 -0.0281413 	-0.28939 	0 -0.0285042 	-0.289358 	0 -0.0288706 	-0.289325 	0 -0.0293442 	-0.289293 	0 -0.0298201 	-0.28926 	0 -0.0302936 	-0.289226 	0 -0.030766 	-0.28919 	0 -0.0312416 	-0.289153 	0 -0.0318041 	-0.289108 	0 -0.0323685 	-0.289063 	0 -0.0329327 	-0.289016 	0 -0.0334952 	-0.288968 	0 -0.0340587 	-0.288917 	0 -0.0346913 	-0.288858 	0 -0.0353253 	-0.288798 	0 -0.0359591 	-0.288736 	0 -0.0365927 	-0.288674 	0 -0.0371254 	-0.28862 	0 -0.037146 	-0.288618 	0 -0.0371666 	-0.288616 	0 -0.0371871 	-0.288613 	0 -0.0372077 	-0.288611 	0 -0.0372296 	-0.288609 	0 -0.0379177 	-0.288535 	0 -0.0386067 	-0.288459 	0 -0.0392954 	-0.288382 	0 -0.039984 	-0.288304 	0 -0.0406758 	-0.288224 	0 -0.0414091 	-0.288134 	0 -0.0421423 	-0.288044 	0 -0.0428723 	-0.28795 	0 -0.043602 	-0.287855 	0 -0.0443352 	-0.287759 	0 -0.0450998 	-0.287653 	0 -0.0458649 	-0.287546 	0 -0.0466297 	-0.287437 	0 -0.0473937 	-0.287327 	0 -0.0481583 	-0.287213 	0 -0.0485448 	-0.287153 	0 -0.0489318 	-0.287093 	0 -0.0493187 	-0.287032 	0 -0.0497056 	-0.286971 	0 -0.0500629 	-0.286914 	0 -0.0504711 	-0.286849 	0 -0.0508798 	-0.286783 	0 -0.0512884 	-0.286717 	0 -0.0516969 	-0.286651 	0 -0.052107 	-0.286583 	0 -0.052918 	-0.286446 	0 -0.053727 	-0.286305 	0 -0.0545346 	-0.286163 	0 -0.0553419 	-0.286019 	0 -0.0561535 	-0.285873 	0 -0.0569786 	-0.285719 	0 -0.0578036 	-0.285563 	0 -0.0586283 	-0.285405 	0 -0.0594527 	-0.285246 	0 -0.0602799 	-0.285084 	0 -0.0604382 	-0.285052 	0 -0.0605967 	-0.285019 	0 -0.0607553 	-0.284987 	0 -0.0609138 	-0.284954 	0 -0.0610685 	-0.284922 	0 -0.0617486 	-0.284782 	0 -0.0624287 	-0.284641 	0 -0.0631086 	-0.284499 	0 -0.0637883 	-0.284356 	0 -0.0644715 	-0.284212 	0 -0.065322 	-0.284026 	0 -0.0661722 	-0.283838 	0 -0.0670221 	-0.283649 	0 -0.0678692 	-0.283458 	0 -0.0687218 	-0.283263 	0 -0.0690991 	-0.283174 	0 -0.0694765 	-0.283085 	0 -0.0698539 	-0.282996 	0 -0.0702312 	-0.282906 	0 -0.0705883 	-0.282821 	0 -0.0710754 	-0.282705 	0 -0.0715626 	-0.282588 	0 -0.0720496 	-0.28247 	0 -0.0725365 	-0.282353 	0 -0.0730256 	-0.282234 	0 -0.0738968 	-0.282017 	0 -0.0747678 	-0.281799 	0 -0.0756381 	-0.281579 	0 -0.076506 	-0.281356 	0 -0.0773807 	-0.28113 	0 -0.0777158 	-0.281041 	0 -0.0780511 	-0.280953 	0 -0.0783863 	-0.280863 	0 -0.0787215 	-0.280774 	0 -0.0790425 	-0.280688 	0 -0.0795909 	-0.280541 	0 -0.0801393 	-0.280394 	0 -0.0806875 	-0.280246 	0 -0.0812356 	-0.280098 	0 -0.0817867 	-0.279948 	0 -0.0826778 	-0.279701 	0 -0.0835685 	-0.279452 	0 -0.0844587 	-0.279202 	0 -0.0853484 	-0.278951 	0 -0.0862447 	-0.278694 	0 -0.0863391 	-0.278666 	0 -0.0864336 	-0.278639 	0 -0.0865281 	-0.278611 	0 -0.0866226 	-0.278583 	0 -0.0867162 	-0.278556 	0 -0.0875231 	-0.27832 	0 -0.0883297 	-0.278083 	0 -0.0891359 	-0.277845 	0 -0.0899416 	-0.277606 	0 -0.0907544 	-0.277363 	0 -0.0913699 	-0.277176 	0 -0.0919852 	-0.276988 	0 -0.0926003 	-0.2768 	0 -0.0932151 	-0.276611 	0 -0.0937895 	-0.276433 	0 -0.0940954 	-0.276339 	0 -0.0944014 	-0.276244 	0 -0.0947073 	-0.27615 	0 -0.0950131 	-0.276055 	0 -0.0953202 	-0.275959 	0 -0.096244 	-0.275668 	0 -0.0971674 	-0.275376 	0 -0.09809 	-0.275082 	0 -0.0990118 	-0.274786 	0 -0.0999428 	-0.274485 	0 -0.10003 	-0.274456 	0 -0.100117 	-0.274428 	0 -0.100204 	-0.274399 	0 -0.100292 	-0.27437 	0 -0.100378 	-0.274342 	0 -0.101227 	-0.274064 	0 -0.102074 	-0.273785 	0 -0.102922 	-0.273505 	0 -0.103768 	-0.273223 	0 -0.104624 	-0.272937 	0 -0.105017 	-0.272804 	0 -0.10541 	-0.272671 	0 -0.105803 	-0.272538 	0 -0.106195 	-0.272404 	0 -0.106574 	-0.272275 	0 -0.107132 	-0.272085 	0 -0.10769 	-0.271894 	0 -0.108249 	-0.271703 	0 -0.108806 	-0.271511 	0 -0.109369 	-0.271317 	0 -0.109988 	-0.271102 	0 -0.110607 	-0.270886 	0 -0.111226 	-0.27067 	0 -0.111845 	-0.270453 	0 -0.11243 	-0.270246 	0 -0.112779 	-0.270124 	0 -0.113129 	-0.27 	0 -0.113478 	-0.269877 	0 -0.113827 	-0.269754 	0 -0.114178 	-0.269629 	0 -0.114954 	-0.269353 	0 -0.115728 	-0.269076 	0 -0.116503 	-0.268797 	0 -0.117276 	-0.268518 	0 -0.118 	-0.268256 	0 -0.118211 	-0.26818 	0 -0.118422 	-0.268103 	0 -0.118633 	-0.268027 	0 -0.118844 	-0.26795 	0 -0.119055 	-0.267873 	0 -0.119922 	-0.267557 	0 -0.120788 	-0.26724 	0 -0.121653 	-0.266921 	0 -0.122518 	-0.266602 	0 -0.123322 	-0.266303 	0 -0.123458 	-0.266252 	0 -0.123594 	-0.266202 	0 -0.12373 	-0.266151 	0 -0.123866 	-0.266101 	0 -0.124002 	-0.26605 	0 -0.124901 	-0.265716 	0 -0.125798 	-0.26538 	0 -0.126695 	-0.265043 	0 -0.127591 	-0.264704 	0 -0.128425 	-0.264388 	0 -0.128544 	-0.264342 	0 -0.128664 	-0.264297 	0 -0.128783 	-0.264252 	0 -0.128902 	-0.264207 	0 -0.129022 	-0.264161 	0 -0.129896 	-0.263829 	0 -0.13077 	-0.263496 	0 -0.131642 	-0.263162 	0 -0.132514 	-0.262826 	0 -0.13333 	-0.262511 	0 -0.133488 	-0.26245 	0 -0.133645 	-0.26239 	0 -0.133802 	-0.262329 	0 -0.13396 	-0.262268 	0 -0.134118 	-0.262207 	0 -0.134916 	-0.261899 	0 -0.135713 	-0.261589 	0 -0.136509 	-0.261279 	0 -0.137305 	-0.260968 	0 -0.138056 	-0.260673 	0 -0.138303 	-0.260576 	0 -0.13855 	-0.26048 	0 -0.138797 	-0.260383 	0 -0.139044 	-0.260286 	0 -0.139292 	-0.260189 	0 -0.139964 	-0.259925 	0 -0.140636 	-0.25966 	0 -0.141307 	-0.259395 	0 -0.141978 	-0.259129 	0 -0.142618 	-0.258874 	0 -0.143004 	-0.258722 	0 -0.14339 	-0.258569 	0 -0.143775 	-0.258416 	0 -0.14416 	-0.258263 	0 -0.144548 	-0.258108 	0 -0.145048 	-0.257909 	0 -0.145548 	-0.257709 	0 -0.146048 	-0.25751 	0 -0.146547 	-0.257309 	0 -0.14703 	-0.257115 	0 -0.147601 	-0.256887 	0 -0.148172 	-0.256659 	0 -0.148743 	-0.25643 	0 -0.149313 	-0.2562 	0 -0.14989 	-0.255967 	0 -0.150174 	-0.255853 	0 -0.150458 	-0.255738 	0 -0.150742 	-0.255623 	0 -0.151026 	-0.255509 	0 -0.151305 	-0.255395 	0 -0.152106 	-0.255073 	0 -0.152907 	-0.25475 	0 -0.153708 	-0.254426 	0 -0.154507 	-0.254102 	0 -0.155319 	-0.25377 	0 -0.155346 	-0.253759 	0 -0.155373 	-0.253748 	0 -0.155401 	-0.253737 	0 -0.155428 	-0.253726 	0 -0.155455 	-0.253715 	0 -0.156273 	-0.253384 	0 -0.157089 	-0.253051 	0 -0.157905 	-0.252718 	0 -0.158719 	-0.252384 	0 -0.159495 	-0.252064 	0 -0.159763 	-0.251955 	0 -0.160031 	-0.251845 	0 -0.160299 	-0.251735 	0 -0.160567 	-0.251625 	0 -0.160836 	-0.251514 	0 -0.161356 	-0.251301 	0 -0.161876 	-0.251088 	0 -0.162395 	-0.250875 	0 -0.162914 	-0.250661 	0 -0.163418 	-0.250452 	0 -0.164023 	-0.250204 	0 -0.164628 	-0.249956 	0 -0.165232 	-0.249707 	0 -0.165836 	-0.249458 	0 -0.166448 	-0.249205 	0 -0.166605 	-0.24914 	0 -0.166763 	-0.249075 	0 -0.16692 	-0.24901 	0 -0.167078 	-0.248945 	0 -0.167234 	-0.24888 	0 -0.167988 	-0.248572 	0 -0.168741 	-0.248263 	0 -0.169491 	-0.247951 	0 -0.170241 	-0.247639 	0 -0.170961 	-0.247338 	0 -0.171199 	-0.247239 	0 -0.171438 	-0.24714 	0 -0.171676 	-0.247041 	0 -0.171914 	-0.246942 	0 -0.172154 	-0.246843 	0 -0.172645 	-0.24664 	0 -0.173135 	-0.246436 	0 -0.173625 	-0.246233 	0 -0.174115 	-0.246029 	0 -0.174593 	-0.245829 	0 -0.175265 	-0.245552 	0 -0.175937 	-0.245274 	0 -0.176608 	-0.244996 	0 -0.177279 	-0.244717 	0 -0.17796 	-0.244433 	0 -0.177994 	-0.244418 	0 -0.178029 	-0.244404 	0 -0.178064 	-0.244389 	0 -0.178098 	-0.244375 	0 -0.178133 	-0.24436 	0 -0.178834 	-0.244071 	0 -0.179533 	-0.24378 	0 -0.180231 	-0.243489 	0 -0.180929 	-0.243197 	0 -0.181603 	-0.242915 	0 -0.182054 	-0.242727 	0 -0.182506 	-0.24254 	0 -0.182957 	-0.242352 	0 -0.183407 	-0.242164 	0 -0.183863 	-0.241973 	0 -0.184087 	-0.24188 	0 -0.184312 	-0.241787 	0 -0.184536 	-0.241693 	0 -0.18476 	-0.2416 	0 -0.184982 	-0.241507 	0 -0.185651 	-0.241232 	0 -0.186319 	-0.240957 	0 -0.186985 	-0.240679 	0 -0.187649 	-0.240399 	0 -0.188294 	-0.240128 	0 -0.188608 	-0.239997 	0 -0.188923 	-0.239866 	0 -0.189238 	-0.239735 	0 -0.189552 	-0.239604 	0 -0.189869 	-0.239471 	0 -0.190202 	-0.239333 	0 -0.190535 	-0.239194 	0 -0.190868 	-0.239056 	0 -0.191201 	-0.238917 	0 -0.191529 	-0.23878 	0 -0.192168 	-0.238518 	0 -0.192807 	-0.238254 	0 -0.193444 	-0.23799 	0 -0.194079 	-0.237723 	0 -0.194697 	-0.237463 	0 -0.194953 	-0.237356 	0 -0.195209 	-0.23725 	0 -0.195465 	-0.237143 	0 -0.195721 	-0.237036 	0 -0.195979 	-0.236929 	0 -0.196344 	-0.236777 	0 -0.19671 	-0.236626 	0 -0.197075 	-0.236474 	0 -0.197439 	-0.236322 	0 -0.197799 	-0.236173 	0 -0.198411 	-0.235922 	0 -0.199023 	-0.23567 	0 -0.199634 	-0.235418 	0 -0.200243 	-0.235163 	0 -0.200837 	-0.234913 	0 -0.201107 	-0.2348 	0 -0.201378 	-0.234688 	0 -0.201649 	-0.234575 	0 -0.20192 	-0.234463 	0 -0.202193 	-0.234349 	0 -0.202518 	-0.234215 	0 -0.202843 	-0.234081 	0 -0.203168 	-0.233947 	0 -0.203492 	-0.233812 	0 -0.203813 	-0.233679 	0 -0.204401 	-0.233439 	0 -0.20499 	-0.233199 	0 -0.205576 	-0.232957 	0 -0.20616 	-0.232712 	0 -0.206732 	-0.232472 	0 -0.207087 	-0.232326 	0 -0.207442 	-0.232179 	0 -0.207797 	-0.232033 	0 -0.208152 	-0.231886 	0 -0.20851 	-0.231738 	0 -0.208726 	-0.231649 	0 -0.208942 	-0.23156 	0 -0.209158 	-0.231471 	0 -0.209374 	-0.231382 	0 -0.209589 	-0.231294 	0 -0.210156 	-0.231065 	0 -0.210721 	-0.230834 	0 -0.211285 	-0.2306 	0 -0.211848 	-0.230367 	0 -0.212399 	-0.230137 	0 -0.212905 	-0.229931 	0 -0.21341 	-0.229724 	0 -0.213915 	-0.229517 	0 -0.21442 	-0.229309 	0 -0.214932 	-0.229098 	0 -0.214974 	-0.229081 	0 -0.215016 	-0.229064 	0 -0.215058 	-0.229047 	0 -0.2151 	-0.22903 	0 -0.215143 	-0.229012 	0 -0.215688 	-0.228791 	0 -0.216232 	-0.228568 	0 -0.216776 	-0.228345 	0 -0.217319 	-0.228122 	0 -0.217851 	-0.227903 	0 -0.218384 	-0.227688 	0 -0.218916 	-0.227473 	0 -0.219447 	-0.227258 	0 -0.219977 	-0.227041 	0 -0.220496 	-0.226824 	0 -0.220687 	-0.226746 	0 -0.220878 	-0.226668 	0 -0.221069 	-0.22659 	0 -0.22126 	-0.226512 	0 -0.221452 	-0.226433 	0 -0.221782 	-0.2263 	0 -0.222112 	-0.226166 	0 -0.222442 	-0.226032 	0 -0.222771 	-0.225898 	0 -0.223097 	-0.225765 	0 -0.223612 	-0.225561 	0 -0.224126 	-0.225356 	0 -0.224638 	-0.225146 	0 -0.225149 	-0.224936 	0 -0.225652 	-0.224729 	0 -0.226135 	-0.224535 	0 -0.226618 	-0.22434 	0 -0.227101 	-0.224145 	0 -0.227583 	-0.22395 	0 -0.228072 	-0.223751 	0 -0.228087 	-0.223745 	0 -0.228102 	-0.223739 	0 -0.228117 	-0.223733 	0 -0.228132 	-0.223727 	0 -0.228147 	-0.223721 	0 -0.228644 	-0.223522 	0 -0.22914 	-0.223322 	0 -0.229636 	-0.223123 	0 -0.230131 	-0.222922 	0 -0.230618 	-0.222725 	0 -0.231104 	-0.222533 	0 -0.231589 	-0.222341 	0 -0.232074 	-0.222149 	0 -0.232556 	-0.221951 	0 -0.233032 	-0.221756 	0 -0.233381 	-0.221616 	0 -0.23373 	-0.221476 	0 -0.234079 	-0.221336 	0 -0.234428 	-0.221195 	0 -0.234781 	-0.221053 	0 -0.234904 	-0.221004 	0 -0.235027 	-0.220955 	0 -0.235151 	-0.220906 	0 -0.235274 	-0.220857 	0 -0.235397 	-0.220808 	0 -0.235868 	-0.220625 	0 -0.236337 	-0.220437 	0 -0.236806 	-0.220249 	0 -0.237273 	-0.220061 	0 -0.237735 	-0.219875 	0 -0.238195 	-0.219696 	0 -0.238654 	-0.219516 	0 -0.239113 	-0.219335 	0 -0.239569 	-0.219151 	0 -0.240019 	-0.218967 	0 -0.24033 	-0.218844 	0 -0.240641 	-0.21872 	0 -0.240951 	-0.218596 	0 -0.241261 	-0.218473 	0 -0.241575 	-0.218348 	0 -0.241712 	-0.218294 	0 -0.241849 	-0.21824 	0 -0.241986 	-0.218186 	0 -0.242124 	-0.218132 	0 -0.242261 	-0.218078 	0 -0.242707 	-0.217906 	0 -0.243151 	-0.21773 	0 -0.243595 	-0.217554 	0 -0.244039 	-0.217377 	0 -0.244477 	-0.217203 	0 -0.244912 	-0.217034 	0 -0.245348 	-0.216866 	0 -0.245782 	-0.216697 	0 -0.246215 	-0.216523 	0 -0.246642 	-0.21635 	0 -0.247001 	-0.216209 	0 -0.247361 	-0.216067 	0 -0.24772 	-0.215926 	0 -0.248079 	-0.215784 	0 -0.248442 	-0.215641 	0 -0.248506 	-0.215616 	0 -0.24857 	-0.215591 	0 -0.248634 	-0.215566 	0 -0.248698 	-0.215542 	0 -0.248762 	-0.215517 	0 -0.249185 	-0.215354 	0 -0.249607 	-0.215189 	0 -0.250028 	-0.215023 	0 -0.250449 	-0.214858 	0 -0.250865 	-0.214694 	0 -0.251279 	-0.214537 	0 -0.251692 	-0.21438 	0 -0.252104 	-0.214219 	0 -0.252514 	-0.214055 	0 -0.25292 	-0.213892 	0 -0.253323 	-0.213737 	0 -0.253726 	-0.213581 	0 -0.254128 	-0.213424 	0 -0.25453 	-0.213268 	0 -0.254927 	-0.21311 	0 -0.255015 	-0.213076 	0 -0.255102 	-0.213041 	0 -0.25519 	-0.213007 	0 -0.255277 	-0.212972 	0 -0.255366 	-0.212938 	0 -0.255676 	-0.212818 	0 -0.255987 	-0.212698 	0 -0.256298 	-0.212578 	0 -0.256608 	-0.212458 	0 -0.256917 	-0.212339 	0 -0.25731 	-0.212192 	0 -0.257702 	-0.212043 	0 -0.258093 	-0.211889 	0 -0.258483 	-0.211736 	0 -0.25887 	-0.211584 	0 -0.259253 	-0.211438 	0 -0.259636 	-0.211293 	0 -0.260018 	-0.211148 	0 -0.2604 	-0.210998 	0 -0.260777 	-0.210847 	0 -0.261087 	-0.210727 	0 -0.261397 	-0.210607 	0 -0.261707 	-0.210487 	0 -0.262016 	-0.210367 	0 -0.26233 	-0.210246 	0 -0.262392 	-0.210222 	0 -0.262455 	-0.210198 	0 -0.262519 	-0.210174 	0 -0.262582 	-0.21015 	0 -0.262646 	-0.210126 	0 -0.263018 	-0.209985 	0 -0.263391 	-0.209842 	0 -0.263763 	-0.209699 	0 -0.264134 	-0.209555 	0 -0.264503 	-0.209413 	0 -0.264868 	-0.209278 	0 -0.265233 	-0.209143 	0 -0.265595 	-0.209001 	0 -0.265958 	-0.208859 	0 -0.266317 	-0.208718 	0 -0.266673 	-0.208583 	0 -0.267028 	-0.208449 	0 -0.267383 	-0.208315 	0 -0.267738 	-0.208179 	0 -0.268089 	-0.208038 	0 -0.268332 	-0.207944 	0 -0.268575 	-0.20785 	0 -0.268819 	-0.207756 	0 -0.269062 	-0.207662 	0 -0.269308 	-0.207567 	0 -0.269411 	-0.207528 	0 -0.269515 	-0.207489 	0 -0.26962 	-0.207449 	0 -0.269724 	-0.20741 	0 -0.269829 	-0.207371 	0 -0.270176 	-0.207242 	0 -0.270522 	-0.20711 	0 -0.270868 	-0.206977 	0 -0.271213 	-0.206845 	0 -0.271556 	-0.206713 	0 -0.271895 	-0.206589 	0 -0.272234 	-0.206465 	0 -0.272571 	-0.206334 	0 -0.272908 	-0.206202 	0 -0.273243 	-0.206071 	0 -0.273573 	-0.205947 	0 -0.273903 	-0.205823 	0 -0.274233 	-0.205699 	0 -0.274562 	-0.205573 	0 -0.274888 	-0.205442 	0 -0.275164 	-0.205337 	0 -0.27544 	-0.205231 	0 -0.275716 	-0.205125 	0 -0.275992 	-0.205019 	0 -0.276271 	-0.204912 	0 -0.276316 	-0.204895 	0 -0.276362 	-0.204878 	0 -0.276407 	-0.204861 	0 -0.276453 	-0.204844 	0 -0.276499 	-0.204827 	0 -0.276821 	-0.204707 	0 -0.277143 	-0.204585 	0 -0.277465 	-0.204463 	0 -0.277787 	-0.204341 	0 -0.278106 	-0.20422 	0 -0.278421 	-0.204107 	0 -0.278736 	-0.203991 	0 -0.279049 	-0.203869 	0 -0.279363 	-0.203748 	0 -0.279674 	-0.203627 	0 -0.279981 	-0.203514 	0 -0.280288 	-0.203401 	0 -0.280594 	-0.203289 	0 -0.2809 	-0.203169 	0 -0.281204 	-0.203048 	0 -0.281502 	-0.202936 	0 -0.281801 	-0.202824 	0 -0.2821 	-0.202711 	0 -0.282398 	-0.202599 	0 -0.282695 	-0.202483 	0 -0.282791 	-0.202446 	0 -0.282888 	-0.202409 	0 -0.282984 	-0.202372 	0 -0.283081 	-0.202335 	0 -0.283179 	-0.202298 	0 -0.283378 	-0.202224 	0 -0.283577 	-0.20215 	0 -0.283777 	-0.202076 	0 -0.283976 	-0.202003 	0 -0.284176 	-0.201929 	0 -0.284468 	-0.201827 	0 -0.28476 	-0.201718 	0 -0.285052 	-0.201608 	0 -0.285343 	-0.201498 	0 -0.285634 	-0.201389 	0 -0.285919 	-0.201289 	0 -0.286204 	-0.201189 	0 -0.286488 	-0.201082 	0 -0.286772 	-0.200973 	0 -0.287055 	-0.200865 	0 -0.287332 	-0.200766 	0 -0.28761 	-0.200668 	0 -0.287887 	-0.200569 	0 -0.288164 	-0.200466 	0 -0.28844 	-0.200359 	0 -0.28871 	-0.200262 	0 -0.28898 	-0.200164 	0 -0.28925 	-0.200067 	0 -0.289519 	-0.19997 	0 -0.289788 	-0.199871 	0 -0.289827 	-0.199857 	0 -0.289866 	-0.199843 	0 -0.289906 	-0.199828 	0 -0.289946 	-0.199814 	0 -0.289986 	-0.1998 	0 -0.290216 	-0.19972 	0 -0.290447 	-0.199641 	0 -0.290677 	-0.199562 	0 -0.290908 	-0.199482 	0 -0.291138 	-0.199403 	0 -0.291402 	-0.199321 	0 -0.291667 	-0.199231 	0 -0.291931 	-0.19914 	0 -0.292195 	-0.199049 	0 -0.292459 	-0.198959 	0 -0.292716 	-0.198881 	0 -0.292974 	-0.198803 	0 -0.293231 	-0.198718 	0 -0.293488 	-0.198631 	0 -0.293744 	-0.198544 	0 -0.293994 	-0.19847 	0 -0.294245 	-0.198397 	0 -0.294495 	-0.198323 	0 -0.294745 	-0.198245 	0 -0.294994 	-0.198162 	0 -0.295237 	-0.198094 	0 -0.29548 	-0.198026 	0 -0.295723 	-0.197958 	0 -0.295966 	-0.19789 	0 -0.296209 	-0.197819 	0 -0.29629 	-0.197798 	0 -0.296371 	-0.197777 	0 -0.296453 	-0.197756 	0 -0.296534 	-0.197734 	0 -0.296617 	-0.197714 	0 -0.296776 	-0.197675 	0 -0.296936 	-0.197636 	0 -0.297096 	-0.197597 	0 -0.297256 	-0.197558 	0 -0.297417 	-0.19752 	0 -0.297653 	-0.197476 	0 -0.297891 	-0.197425 	0 -0.298128 	-0.197375 	0 -0.298366 	-0.197324 	0 -0.298603 	-0.197274 	0 -0.298832 	-0.197243 	0 -0.299062 	-0.197211 	0 -0.299292 	-0.19717 	0 -0.299522 	-0.19713 	0 -0.299752 	-0.19709 	0 -0.299974 	-0.197072 	0 -0.300196 	-0.197055 	0 -0.300418 	-0.197036 	0 -0.300641 	-0.197009 	0 -0.300864 	-0.196982 	0 -0.301078 	-0.196979 	0 -0.301293 	-0.196977 	0 -0.301507 	-0.196975 	0 -0.301722 	-0.196973 	0 -0.301938 	-0.196962 	0 -0.302131 	-0.196977 	0 -0.302325 	-0.196993 	0 -0.302518 	-0.197008 	0 -0.302712 	-0.197024 	0 -0.302908 	-0.19704 	0 -0.302921 	-0.197041 	0 -0.302935 	-0.197042 	0 -0.302949 	-0.197043 	0 -0.302963 	-0.197044 	0 -0.302978 	-0.197047 	0 -0.303187 	-0.197089 	0 -0.303397 	-0.197131 	0 -0.303607 	-0.197173 	0 -0.303817 	-0.197215 	0 -0.304028 	-0.197259 	0 -0.304231 	-0.197339 	0 -0.304436 	-0.197409 	0 -0.304641 	-0.197479 	0 -0.304846 	-0.197548 	0 -0.305052 	-0.197619 	0 -0.305249 	-0.197731 	0 -0.305448 	-0.197845 	0 -0.305648 	-0.197947 	0 -0.305848 	-0.198048 	0 -0.306049 	-0.198151 	0 -0.306242 	-0.198301 	0 -0.306435 	-0.198453 	0 -0.306629 	-0.198605 	0 -0.306824 	-0.198745 	0 -0.307021 	-0.198885 	0 -0.307209 	-0.199079 	0 -0.307398 	-0.199275 	0 -0.307588 	-0.199471 	0 -0.307778 	-0.199667 	0 -0.30797 	-0.199852 	0 -0.308132 	-0.200067 	0 -0.308294 	-0.200284 	0 -0.308457 	-0.2005 	0 -0.30862 	-0.200717 	0 -0.308784 	-0.200935 	0 -0.308808 	-0.200965 	0 -0.308831 	-0.200996 	0 -0.308855 	-0.201026 	0 -0.308879 	-0.201058 	0 -0.308905 	-0.201091 	0 -0.309093 	-0.201402 	0 -0.309284 	-0.201713 	0 -0.309474 	-0.202024 	0 -0.309665 	-0.202336 	0 -0.309857 	-0.20265 	0 -0.310038 	-0.203044 	0 -0.310223 	-0.203425 	0 -0.310409 	-0.203803 	0 -0.310594 	-0.204181 	0 -0.310782 	-0.204564 	0 -0.310957 	-0.205035 	0 -0.311134 	-0.20551 	0 -0.311314 	-0.205966 	0 -0.311494 	-0.206421 	0 -0.311677 	-0.20688 	0 -0.311846 	-0.207439 	0 -0.312017 	-0.208 	0 -0.312188 	-0.208562 	0 -0.312363 	-0.209103 	0 -0.312541 	-0.20965 	0 -0.312704 	-0.210306 	0 -0.312868 	-0.210966 	0 -0.313034 	-0.211624 	0 -0.3132 	-0.212283 	0 -0.313372 	-0.212929 	0 -0.313524 	-0.213667 	0 -0.313677 	-0.214409 	0 -0.31383 	-0.21515 	0 -0.313985 	-0.215891 	0 -0.314138 	-0.216621 	0 -0.314144 	-0.216651 	0 -0.314151 	-0.216681 	0 -0.314158 	-0.216711 	0 -0.314164 	-0.216741 	0 -0.314172 	-0.216774 	0 -0.314331 	-0.217668 	0 -0.314493 	-0.218564 	0 -0.314655 	-0.219459 	0 -0.314819 	-0.220354 	0 -0.314986 	-0.221263 	0 -0.315135 	-0.222319 	0 -0.315291 	-0.223348 	0 -0.315449 	-0.224375 	0 -0.315607 	-0.225401 	0 -0.31577 	-0.226446 	0 -0.315913 	-0.227647 	0 -0.316058 	-0.228852 	0 -0.31621 	-0.230025 	0 -0.316363 	-0.231194 	0 -0.316521 	-0.232386 	0 -0.316658 	-0.233745 	0 -0.316798 	-0.235108 	0 -0.316939 	-0.236469 	0 -0.317086 	-0.237795 	0 -0.31724 	-0.239147 	0 -0.317371 	-0.240676 	0 -0.317505 	-0.242207 	0 -0.31764 	-0.243736 	0 -0.317777 	-0.245263 	0 -0.317926 	-0.246794 	0 -0.318021 	-0.248086 	0 -0.318118 	-0.249382 	0 -0.318216 	-0.250677 	0 -0.318315 	-0.251969 	0 -0.318414 	-0.253227 	0 -0.318449 	-0.253655 	0 -0.318485 	-0.254088 	0 -0.318522 	-0.254522 	0 -0.318558 	-0.254955 	0 -0.318597 	-0.255397 	0 -0.318726 	-0.257327 	0 -0.31886 	-0.259246 	0 -0.318996 	-0.261161 	0 -0.319135 	-0.263072 	0 -0.31928 	-0.265039 	0 -0.319397 	-0.267209 	0 -0.319522 	-0.269351 	0 -0.319654 	-0.271465 	0 -0.319788 	-0.273575 	0 -0.319929 	-0.275753 	0 -0.32004 	-0.278136 	0 -0.320155 	-0.280519 	0 -0.320276 	-0.282876 	0 -0.320405 	-0.285192 	0 -0.320542 	-0.287591 	0 -0.320648 	-0.290194 	0 -0.320757 	-0.292797 	0 -0.320869 	-0.295392 	0 -0.320985 	-0.297973 	0 -0.321118 	-0.300601 	0 -0.321203 	-0.302998 	0 -0.321291 	-0.305397 	0 -0.321381 	-0.307789 	0 -0.321473 	-0.310174 	0 -0.321564 	-0.312466 	0 -0.321584 	-0.312934 	0 -0.321605 	-0.313405 	0 -0.321626 	-0.313879 	0 -0.321647 	-0.314353 	0 -0.321669 	-0.314839 	0 -0.321772 	-0.317948 	0 -0.321881 	-0.321039 