/*--------------------------------*- C++ -*----------------------------------*\
  =========                 |
  \\      /  F ield         | OpenFOAM: The Open Source CFD Toolbox
   \\    /   O peration     | Website:  https://openfoam.org
    \\  /    A nd           | Version:  6
     \\/     M anipulation  |
\*---------------------------------------------------------------------------*/
FoamFile
{
    version     2.0;
    format      ascii;
    class       volScalarField;
    location    "23";
    object      epsilon;
}
// * * * * * * * * * * * * * * * * * * * * * * * * * * * * * * * * * * * * * //

dimensions      [0 2 -3 0 0 0 0];

internalField   nonuniform List<scalar> 
10000
(
264.495
358.039
230.705
146.877
95.4469
65.6811
48.9394
39.6672
34.8052
32.7931
33.0041
35.4368
40.7321
50.4537
67.4262
96.904
147.3
228.958
353.902
264.37
263.825
357.438
229.866
145.797
94.4535
65.0446
48.5975
39.5914
34.7735
32.7372
32.9347
35.3199
40.5995
50.3421
67.2483
96.6121
147.114
228.749
353.157
263.899
264.241
357.8
230.229
146.101
94.8122
65.3826
48.8518
39.5246
34.7165
32.7897
32.9928
35.3762
40.4624
50.2532
67.1104
95.7433
146.996
228.594
353.595
263.634
264.273
357.544
230.031
145.851
95.0214
65.6577
49.108
39.7315
34.8505
32.8111
32.9966
35.3893
40.4492
49.9723
67.0146
96.5816
146.859
227.533
353.439
263.269
263.798
357.724
230.301
145.877
94.0181
65.1142
49.0677
39.6038
34.846
32.792
32.9817
35.3964
40.4888
50.2491
66.4538
95.7172
146.692
228.341
353.484
263.248
263.837
357.618
231.072
146.474
95.1421
65.8146
49.1529
39.8137
34.8765
32.8556
32.9215
35.4058
40.5115
50.3502
67.1417
96.4735
146.377
227.022
353.465
263.463
263.842
356.912
230.974
147.493
96.0732
65.4395
49.1114
39.8139
34.9283
32.8892
32.9931
35.4375
40.6679
50.3665
67.1502
95.7436
145.538
228.327
353.565
263.275
263.921
357.329
230.721
147.207
95.9277
65.9576
48.9641
39.6305
34.8975
32.9048
33.0556
35.4179
40.6493
50.3671
67.5046
97.0359
146.636
227.655
353.513
263.723
263.913
356.756
229.445
145.924
95.6651
65.5174
49.2292
39.7795
34.8599
32.9149
33.0307
35.4578
40.4394
50.2714
67.4169
96.9885
145.713
229.084
353.537
263.929
263.648
357.482
230.877
146.939
95.026
65.9861
49.2284
39.8941
34.9693
32.9466
33.1292
35.5189
40.6733
49.9921
66.9567
97.0903
146.449
229.057
353.122
264.367
264.378
357.174
230.744
146.013
95.1689
65.6046
48.9304
39.7481
34.8987
32.9255
33.1473
35.5501
40.8425
50.5313
67.6269
97.2282
147.219
228.934
353.854
264.67
264.682
357.632
230.619
147.05
95.5481
66.1224
49.3192
39.9858
34.9909
32.9581
33.1469
35.5235
40.8001
50.4706
67.5316
97.0848
147.014
228.61
353.664
264.839
264.61
357.001
229.681
145.888
96.0889
65.8147
49.1286
39.9066
35.0309
33.0322
33.1539
35.4969
40.7408
50.3973
67.3638
96.9837
146.03
227.201
354.227
264.953
264.275
357.428
230.053
146.234
96.1285
66.6011
49.6208
40.2284
35.1321
33.0408
33.1362
35.388
40.5362
50.0513
66.726
96.8808
147.125
228.372
354.281
264.839
265.172
357.358
229.919
146.369
95.534
66.4876
49.3743
40.2006
35.1965
33.0438
33.1046
35.4884
40.7119
50.3564
67.2597
96.7464
146.938
228.933
354.197
264.699
264.883
357.346
230.323
147.303
96.5081
66.2265
49.6277
40.201
35.17
33.0076
33.1469
35.472
40.664
50.2508
67.1184
95.8713
145.651
227.799
354.002
264.79
265.47
357.315
231.062
146.26
96.3647
66.5913
49.6204
40.1455
35.0714
32.9907
33.1322
35.4227
40.4465
49.8715
66.6852
96.368
146.444
228.196
354.056
264.723
265.501
357.261
230.957
147.361
95.6977
66.053
49.4681
39.9724
35.1252
32.9914
33.1178
35.3673
40.5475
50.0586
67.025
96.7915
147.227
228.432
354.728
264.539
265.692
356.819
229.885
146.261
96.4241
66.3409
49.2356
39.992
35.1227
33.0249
33.1234
35.3864
40.3405
49.7983
66.4437
96.4658
147.082
229.13
354.899
264.884
265.348
357.025
230.721
146.935
96.4413
65.8678
49.211
40.0414
35.0586
33.0157
33.0768
35.3848
40.4682
49.8514
66.8672
95.5848
146.635
227.953
354.956
265.057
265.425
356.347
230.363
147.326
96.3161
65.93
49.1946
40.0184
35.0932
33.0058
33.1035
35.4335
40.5871
50.0571
66.5582
95.8609
146.355
228.894
355.051
264.873
265.321
356.838
229.896
146.964
96.1419
65.9547
49.1419
39.8707
35.0504
32.974
33.0725
35.3163
40.3599
49.7434
66.9535
96.2028
145.032
227.732
354.936
264.808
265.103
356.103
228.296
145.566
95.8551
66.214
49.1738
39.8727
34.9715
32.8956
32.9989
35.3402
40.4077
49.831
66.8774
96.1389
145.435
228
354.936
264.521
264.553
356.667
229.13
145.808
95.6535
66.0511
49.2976
39.9263
34.9978
32.8971
32.9785
35.2447
40.4374
49.9303
66.6996
95.909
145.884
227.974
354.827
264.418
265.154
356.166
229.476
145.648
94.8603
65.7965
49.2147
39.7315
34.9553
32.8654
32.9441
35.242
40.3524
49.8112
66.5
95.5885
144.754
228.437
354.734
264.309
265.245
356.077
228.425
146.001
95.3176
65.3142
49.1129
39.8202
34.9323
32.7928
32.8786
35.1794
40.2211
49.3907
65.7999
94.6868
145.494
228.136
354.15
264.198
264.714
355.845
228.698
145.653
95.0511
65.6503
49.0595
39.82
34.9045
32.7852
32.8233
35.0473
40.1379
49.4116
65.9164
94.8015
145.047
226.999
354.657
263.928
264.605
355.752
227.27
144.181
93.9402
64.9594
48.6414
39.5998
34.7915
32.7437
32.7754
34.9463
39.9048
49.3763
65.953
94.8916
143.93
226.917
354.258
263.541
264.308
355.922
227.761
144.25
94.1096
65.0521
48.6665
39.6371
34.8053
32.7238
32.727
34.8691
39.7664
49.2052
65.7031
94.6241
144.499
226.74
354.597
263.208
264.115
355.701
226.96
143.876
94.2365
65.1178
48.5734
39.6503
34.8034
32.6799
32.7027
34.8318
39.6718
48.8048
64.9689
93.5578
143.242
226.79
354.384
262.787
263.909
355.102
227.318
143.967
93.9608
64.8856
48.5071
39.6089
34.7833
32.6838
32.7009
34.8045
39.6447
48.7946
64.9016
93.4653
143.066
226.315
353.545
262.328
263.225
354.781
226.753
142.646
92.8841
64.1939
48.5242
39.5576
34.7463
32.6408
32.6707
34.8049
39.6862
48.8295
64.7017
93.1333
142.58
225.161
353.611
261.982
262.778
354.416
225.546
143.058
92.9969
64.2999
48.4772
39.5109
34.67
32.62
32.6672
34.82
39.5921
48.7566
64.7505
93.1645
142.608
225.472
353.827
261.308
262.449
353.833
225.374
142.529
92.9714
64.4499
48.3988
39.4547
34.6914
32.5999
32.6364
34.7844
39.612
48.6258
64.525
92.1601
141.967
224.888
353.447
260.879
262.146
353.624
224.108
141.838
92.5589
63.8321
48.0424
39.3545
34.5801
32.5285
32.5557
34.6614
39.4924
48.4754
64.3306
92.4189
141.083
223.318
353.668
260.41
261.848
353.423
223.667
141.18
91.5841
63.9723
48.1684
39.2254
34.5104
32.4822
32.516
34.6028
39.3528
48.0811
63.9841
92.0143
140.364
223.961
353.606
260.046
261.337
353.041
222.814
139.718
91.1403
63.4249
47.8258
39.0831
34.46
32.4441
32.4714
34.5281
39.2514
47.9628
63.6883
91.102
140.059
223.538
353.465
260.004
261.092
352.681
222.16
139.105
90.5737
63.3346
47.8017
39.0846
34.4485
32.4109
32.4258
34.4388
39.0337
47.6846
63.1076
90.9612
138.743
222.901
353.183
259.786
260.489
352.298
221.333
138.051
90.1015
62.7818
47.6236
38.9297
34.3632
32.3727
32.3779
34.373
38.9274
47.4665
62.9561
90.5632
138.356
221.529
352.894
259.589
259.901
351.838
220.632
137.399
89.4772
62.5576
47.3503
38.8541
34.3362
32.3438
32.3382
34.3208
38.8308
47.2481
62.5992
89.579
137.695
221.034
352.522
259.007
259.231
351.55
219.897
136.665
89.2865
62.3362
47.3019
38.8248
34.288
32.2965
32.2826
34.2494
38.7309
47.0651
62.1244
89.0743
137.085
220.015
352.099
258.475
258.645
351.053
219.065
136.007
88.7414
61.8909
47.1443
38.7111
34.2458
32.2817
32.2604
34.1912
38.6334
46.9054
61.7822
88.5267
136.577
219.228
351.706
258.017
258.379
350.101
218.188
135.433
88.3322
61.6335
46.864
38.6491
34.2419
32.2734
32.2355
34.1378
38.5156
46.734
61.5342
88.2334
135.905
218.613
350.793
257.674
258.046
349.703
217.268
134.801
87.8027
61.3044
46.701
38.6245
34.2481
32.2818
32.2207
34.0994
38.4321
46.5499
61.1703
87.6782
135.313
217.93
350.499
257.091
257.766
349.148
216.423
134.119
87.2312
60.9858
46.5093
38.5529
34.2204
32.2665
32.193
34.0367
38.3081
46.3286
60.8552
87.2997
134.625
217.17
350.347
256.738
257.223
348.498
215.36
133.217
86.3849
60.5813
46.2829
38.4077
34.1484
32.247
32.1731
33.9851
38.2013
46.1197
60.4595
86.5507
133.351
216.117
349.931
256.338
256.638
347.984
214.188
132.152
85.7861
60.2162
46.125
38.3193
34.1161
32.2356
32.1564
33.9277
38.078
45.8746
60.0066
85.702
132.487
214.966
348.912
255.784
255.887
347.261
213.134
131.152
85.0547
59.8038
45.9288
38.2458
34.0783
32.2083
32.1345
33.8763
37.969
45.6699
59.6439
85.0737
131.422
213.79
348.614
255.487
255.01
346.499
212.025
130.064
84.2871
59.3959
45.7596
38.1752
34.0578
32.2106
32.1385
33.8341
37.8535
45.4247
59.1686
84.235
130.284
212.685
347.472
255.159
254.548
345.711
210.864
128.96
83.5676
59.0242
45.5764
38.0949
34.0197
32.1979
32.1285
33.8018
37.7417
45.1776
58.6594
83.4011
129.08
211.429
346.811
254.874
253.998
344.95
209.735
127.993
82.9234
58.652
45.3889
37.9786
33.9696
32.1595
32.0958
33.7887
37.6524
44.97
58.2785
82.7446
128.132
210.3
346.12
254.524
253.489
344.2
208.464
126.794
82.1092
58.2019
45.1615
37.8837
33.9254
32.1365
32.0707
33.7275
37.5528
44.7391
57.7943
81.8919
126.948
209.002
345.437
254.13
253.059
343.454
207.315
125.791
81.4396
57.8129
44.9479
37.7746
33.8708
32.1
32.0313
33.6781
37.4578
44.554
57.4536
81.2607
125.842
207.611
344.341
253.62
252.641
342.653
206.095
124.759
80.7982
57.4314
44.7434
37.6669
33.7989
32.0476
31.9845
33.5987
37.3311
44.3098
56.9938
80.4772
124.702
206.315
343.378
253.042
252.031
341.806
204.814
123.652
80.0386
56.9704
44.487
37.5361
33.7286
32.0022
31.9356
33.5299
37.2079
44.0871
56.5932
79.7984
123.582
205.017
342.523
252.486
251.537
340.956
203.485
122.545
79.3144
56.5372
44.2435
37.3999
33.6477
31.9365
31.8645
33.4361
37.0679
43.8432
56.1574
79.04
122.433
203.654
341.528
252.034
250.922
339.9
202.031
121.338
78.5236
56.085
43.9865
37.2441
33.5465
31.863
31.7972
33.3483
36.9261
43.593
55.6926
78.2245
121.167
202.167
340.587
251.398
250.489
338.863
200.534
120.134
77.7868
55.6289
43.7023
37.0706
33.438
31.7821
31.7132
33.2406
36.7678
43.3293
55.2329
77.4336
119.927
200.601
339.534
250.599
249.95
337.917
198.933
118.798
76.9316
55.1275
43.4009
36.8846
33.3144
31.6927
31.6337
33.1426
36.6144
43.0637
54.7589
76.5995
118.588
198.968
338.449
250.002
249.334
336.907
197.35
117.469
76.0803
54.6097
43.0904
36.6894
33.1833
31.5911
31.5362
33.0237
36.4389
42.7778
54.2632
75.7269
117.218
197.235
337.209
249.291
248.699
335.756
195.534
116.017
75.1338
54.0556
42.7529
36.4756
33.0387
31.4769
31.4273
32.8948
36.2536
42.4768
53.7571
74.8616
115.798
195.459
335.993
248.452
247.753
334.63
193.73
114.547
74.1878
53.4906
42.4176
36.2555
32.8813
31.351
31.3061
32.7507
36.0471
42.1455
53.2013
73.9104
114.257
193.514
334.56
247.293
246.822
333.285
191.839
113.005
73.2178
52.9142
42.0571
36.0205
32.7106
31.2087
31.1684
32.5924
35.8361
41.8211
52.644
72.9496
112.731
191.536
333.062
246.326
245.688
331.993
189.844
111.35
72.1748
52.3144
41.6781
35.7555
32.5184
31.0531
31.0173
32.4153
35.5913
41.4508
52.0528
71.9351
111.069
189.374
331.387
244.816
244.281
330.535
187.616
109.552
71.0702
51.6681
41.2865
35.4875
32.3149
30.8812
30.8499
32.2249
35.3376
41.0699
51.4339
70.871
109.323
187.067
329.714
243.553
242.904
329.019
185.262
107.682
69.9013
50.9759
40.8384
35.1837
32.0896
30.6898
30.6633
32.0151
35.0685
40.6803
50.7963
69.7543
107.467
184.614
327.791
241.891
241.07
327.098
182.537
105.62
68.6192
50.2039
40.3543
34.8549
31.8369
30.472
30.4511
31.7781
34.7668
40.2426
50.0887
68.5597
105.491
182.002
325.811
240.505
238.918
324.812
179.635
103.505
67.334
49.4256
39.8578
34.4977
31.5511
30.2225
30.2079
31.511
34.4351
39.7828
49.3736
67.3108
103.35
179.077
323.382
238.339
236.468
322.036
176.366
101.188
65.9513
48.5812
39.3077
34.0993
31.2309
29.9376
29.9276
31.205
34.062
39.262
48.551
65.9393
101.085
175.936
320.796
236.357
233.607
318.733
172.74
98.7534
64.5242
47.7062
38.7266
33.671
30.8795
29.6161
29.6056
30.854
33.6393
38.6876
47.6641
64.4697
98.6409
172.326
317.429
233.596
230.226
314.736
168.536
96.0325
62.9428
46.7517
38.0914
33.1927
30.4705
29.2423
29.2367
30.4554
33.1639
38.0508
46.7141
62.9303
96.0211
168.356
313.586
230.716
226.314
309.926
163.863
93.0876
61.2538
45.7129
37.3794
32.6494
30.0125
28.8141
28.8059
29.9929
32.6276
37.3643
45.7057
61.26
93.1389
163.739
308.579
226.643
221.659
303.989
158.646
89.8631
59.3859
44.5719
36.6052
32.054
29.4966
28.3326
28.3262
29.4793
32.031
36.6006
44.6032
59.4608
89.9912
158.586
302.751
222.18
216.484
296.947
152.984
86.5002
57.4663
43.3743
35.7549
31.3767
28.9142
27.7876
27.7802
28.8975
31.3649
35.7609
43.4129
57.5415
86.5892
152.858
295.646
216.79
210.786
288.711
146.857
82.9673
55.4656
42.1241
34.859
30.6528
28.2736
27.1865
27.1833
28.2665
30.6467
34.8585
42.1407
55.5255
83.0502
146.708
287.364
210.908
204.768
279.375
140.461
79.3945
53.4208
40.796
33.8825
29.8529
27.5641
26.5142
26.5121
27.5626
29.8639
33.9162
40.8623
53.5018
79.44
140.207
277.949
204.628
198.736
269.048
133.836
75.8181
51.3858
39.4631
32.8728
29.0046
26.7965
25.7857
25.7903
26.8114
29.0336
32.9188
39.525
51.4494
75.8197
133.512
267.651
198.394
192.934
257.984
127.187
72.3306
49.3588
38.0881
31.8067
28.0959
25.9717
24.9993
25.0092
26.0022
28.1538
31.896
38.207
49.4733
72.3312
126.825
256.654
192.388
188.053
246.513
120.656
68.98
47.4319
36.7582
30.741
27.1644
25.1141
24.1783
24.1943
25.1626
27.2492
30.86
36.9016
47.5681
69.0196
120.374
245.458
187.64
183.957
234.74
114.338
65.8265
45.56
35.4145
29.6518
26.2125
24.2357
23.3334
23.3532
24.2962
26.3201
29.8105
35.6177
45.7754
65.974
114.226
234.046
183.72
181.872
223.133
108.399
62.931
43.8317
34.1535
28.6065
25.2808
23.3662
22.4926
22.5142
23.4325
25.3992
28.7841
34.3909
44.1062
63.1729
108.497
223.008
182.135
180.355
211.805
102.872
60.2907
42.2333
32.9593
27.603
24.3817
22.5261
21.679
21.6994
22.589
24.4948
27.7769
33.2026
42.5385
60.6083
103.134
212.099
181.37
180.325
201.031
97.8278
57.903
40.7698
31.8539
26.6673
23.5397
21.7378
20.9162
20.9337
21.7934
23.6401
26.8226
32.0749
41.0599
58.2346
98.1538
201.452
180.059
179.179
190.902
93.2582
55.7718
39.4539
30.8514
25.8144
22.7694
21.0135
20.2113
20.2248
21.0565
22.8471
25.9364
31.0286
39.6938
56.0544
93.5583
191.394
180.402
180.976
181.605
89.0604
53.879
38.2981
29.9627
25.0506
22.076
20.3601
19.5747
19.5837
20.3893
22.1291
25.1352
30.088
38.4728
54.0924
89.2693
181.826
180.686
184.415
172.892
85.1392
52.2258
37.2831
29.1674
24.3606
21.4481
19.7686
18.999
19.0041
19.7856
21.4787
24.4097
29.2406
37.3885
52.3699
85.3245
173.162
184.445
188.063
164.796
81.838
50.8481
36.3898
28.4418
23.7241
20.8698
19.2266
18.4737
18.4764
19.2356
20.8863
23.7515
28.4832
36.4484
50.921
81.9019
164.859
187.885
194.282
157.503
79.1044
49.6778
35.5715
27.7535
23.1174
20.3223
18.7186
17.9849
17.986
18.7224
20.3291
23.1279
27.7694
35.5949
49.7157
79.1597
157.597
194.386
202.703
151.14
77.1496
48.671
34.7722
27.0598
22.5099
19.7842
18.2285
17.5187
17.5192
18.2302
19.7882
22.517
27.0726
34.7914
48.6943
77.1556
151.066
202.524
213.803
146.022
75.5516
47.6999
33.9398
26.3318
21.8826
19.2414
17.7449
17.0653
17.0654
17.7452
19.2427
21.8854
26.3384
33.9521
47.723
75.596
146.04
213.804
227.772
142.202
74.3009
46.691
33.0115
25.5301
21.2132
18.6818
17.2616
16.6206
16.6207
17.2616
18.6826
21.2153
25.5365
33.0261
46.719
74.3462
142.217
227.775
244.861
139.803
73.2275
45.5482
31.9431
24.6339
20.4924
18.1027
16.7793
16.1869
16.1868
16.7788
18.1022
20.4915
24.6329
31.9423
45.5474
73.2296
139.767
244.805
265.412
138.78
72.0711
44.1036
30.6523
23.6085
19.7096
17.5055
16.3052
15.7741
15.774
16.3049
17.5053
19.7102
23.6109
30.6603
44.1224
72.1036
138.793
265.586
288.738
138.409
70.4968
42.248
29.1069
22.4492
18.8713
16.9019
15.8537
15.3971
15.3969
15.8531
16.9007
18.8696
22.4467
29.1041
42.2453
70.4937
138.397
288.523
315.023
138.418
68.2178
39.8409
27.2574
21.1484
17.9878
16.309
15.4441
15.0752
15.0751
15.4439
16.3085
17.9873
21.1486
27.2607
39.852
68.2408
138.397
315.142
343.186
137.996
64.7616
36.7442
25.0883
19.7286
17.0901
15.7564
15.1036
14.836
14.836
15.1034
15.7559
17.0889
19.7269
25.0872
36.746
64.7747
138.027
343.103
372.955
135.607
59.4793
32.7885
22.6015
18.2362
16.2271
15.2797
14.8604
14.7116
14.7115
14.8603
15.2795
16.2264
18.2357
22.6019
32.7911
59.4868
135.613
372.873
402.326
127.855
51.1976
27.8256
19.8644
16.7643
15.4754
14.9582
14.7554
14.6777
14.6777
14.7555
14.9583
15.4756
16.7651
19.8648
27.8275
51.2053
127.895
402.414
432.74
107.392
38.6336
21.9374
17.0637
15.4926
14.9843
14.8103
14.7305
14.7009
14.701
14.7311
14.8116
14.9861
15.4936
17.0632
21.9349
38.6231
107.348
432.632
466.409
57.3864
21.6797
16.2889
15.234
14.9475
14.8449
14.8046
14.7968
14.7964
14.7964
14.7968
14.8048
14.8454
14.9485
15.2352
16.2893
21.6818
57.3957
466.443
749.736
1099.66
721.656
437.048
256.039
152.467
97.4149
69.785
56.2175
50.5455
50.4931
56.1995
69.7698
96.4462
149.013
250.056
428.279
710.352
1091.04
732.839
747.446
1096.93
718.156
433.865
253.778
151.073
95.7411
68.4797
55.4044
49.8943
49.7969
55.4226
69.3881
95.6257
147.491
244.612
420.783
707.598
1089.67
730.736
743.522
1091.43
709.304
426.197
248.021
147.537
96.0156
68.9502
55.8411
50.2771
50.1751
55.9401
69.1428
93.5658
144.441
250.814
429.358
701.304
1088.06
727.118
749.697
1097.32
718.895
437.21
253.922
150.705
97.3049
69.2351
56.1352
50.5247
50.383
55.762
68.9029
95.4699
147.716
249.81
428.487
710.446
1082.52
730.762
743.418
1088.63
707.884
434.923
248.527
147.195
96.9442
68.3688
55.9636
50.3824
50.2104
54.9574
67.5865
93.3384
145.992
244.353
421.671
703.897
1083.76
725.268
749.842
1091.32
713.384
433.785
252.834
149.581
96.9096
68.6083
55.7563
49.8081
49.7266
55.1808
68.1268
95.1784
142.648
249.414
429.493
713.755
1079.05
725.743
749.202
1090.49
716.321
431.206
251.181
145.919
96.4466
69.0989
55.2385
49.824
49.9253
55.4066
68.1651
94.5148
147.047
248.079
427.66
713.279
1084.95
725.925
748.036
1093.6
714.08
422.291
245.305
148.595
96.1204
68.1189
55.1981
49.6986
49.4982
54.835
68.7464
96.4946
149.577
242.187
422.378
711.916
1089
727.763
746.647
1098.99
705.64
427.823
249.282
145.978
95.6724
68.4377
55.302
49.8202
49.6243
55.4149
67.7181
95.9213
149.126
244.001
419.469
710.553
1083.17
722.535
743.002
1096.73
706.027
420.918
247.888
147.797
95.2017
68.776
55.6729
50.1544
49.6437
55.0435
68.7572
95.4
148.72
246.217
420.244
708.964
1088.37
729.974
741.049
1098.34
706.006
421.349
246.252
146.628
94.4737
68.4699
55.5357
50.1298
49.9502
55.5408
68.4631
93.234
147.692
240.841
417.659
706.805
1083.13
732.761
738.697
1096.59
710.063
419.352
240.571
142.799
92.942
68.0581
55.279
49.9839
49.4272
55.3911
68.3498
94.5903
147.425
246.356
420.995
700.145
1091.11
728.768
736.597
1094.04
703.059
418.231
244.759
144.701
93.8811
67.2884
55.0205
49.9245
49.862
54.8467
67.8886
93.8646
146.327
241.524
427.344
708.482
1090.86
732.443
731.149
1095.44
709.557
418.71
240.177
145.385
92.4956
67.9142
54.3946
49.4671
49.4135
55.2589
66.8836
92.8857
145.564
245.972
426.68
706.684
1090.22
728.544
732.659
1093.4
707.55
421.473
243.457
145.056
93.6896
67.4075
54.8895
49.884
49.556
55.2175
68.0815
90.6811
141.995
244.121
425.138
704.496
1088.75
735.719
728.304
1091.15
705.113
418.726
241.545
143.915
91.9865
67.9186
55.2583
49.8732
49.3495
54.8091
68.1159
92.8538
143.887
237.711
423.668
696.986
1084.31
735.48
733.014
1088.99
701.874
409.912
239.374
141.053
92.0246
67.8036
55.11
49.7638
49.4523
54.7074
67.9956
93.7989
141.359
241.486
422.348
707.459
1094.07
734.867
728.149
1080.57
693.824
412.915
234.708
142.589
91.7985
67.554
54.882
49.4022
49.7026
54.9628
67.617
93.3353
143.652
235.495
420.282
704.759
1093.38
728.584
733.772
1087.86
699.864
408.122
238.237
141.896
91.5159
67.3643
54.4283
49.6008
49.6131
54.7433
66.564
91.6036
141.182
241.199
418.049
695.465
1093.65
731.207
727.505
1089.58
692.217
406.359
233.143
138.581
91.2148
66.7112
54.8342
49.2437
49.1136
54.1705
67.2606
93.0219
142.716
239.233
415.757
701.973
1094.32
733.295
730.03
1083.47
692.155
409.738
233.215
138.661
91.6734
67.0798
54.7508
49.5079
49.3824
54.2723
66.2466
91.3208
139.476
237.117
407.645
693.369
1093.48
729.403
732.556
1087.93
691.025
402.309
230.897
137.626
91.2273
66.7922
54.5993
49.4055
49.2773
54.5744
66.6097
92.194
141.177
231.989
408.982
693.75
1092.75
735.258
731.069
1092.83
693.72
401.323
229.442
137.274
90.7311
66.3814
54.398
49.2544
48.7248
54.4538
66.8954
91.677
138.6
234.137
405.917
691.013
1091.57
733.904
724.652
1090.89
690.728
398.038
227.729
137.665
89.4038
65.3746
54.1567
49.1421
49.1196
54.2194
66.5983
90.3071
138.307
228.841
397.474
688.578
1089.8
733.666
724.397
1088.49
686.715
395.444
227.169
136.827
90.2111
65.8232
53.6825
48.6261
49.0681
54.133
66.3016
90.585
137.646
231.456
398.449
686.701
1083.91
732.181
722.163
1082.3
682.579
394.835
221.454
133.675
88.7696
66.0586
53.7756
48.7729
48.9731
53.5334
65.3865
89.1953
137.519
228.989
395.12
684.573
1089.72
731.697
717.215
1086.81
674.064
391.024
221.277
133.76
89.0373
65.8856
53.9691
48.9255
48.879
53.9336
65.9414
89.8522
136.338
223.663
393.316
684.688
1083.65
727.215
716.344
1084.45
671.6
385.913
219.821
133.534
87.7568
65.0318
53.7374
48.7825
48.7073
53.3374
65.0248
88.3204
133.742
223.158
391.864
688.438
1087.45
729.528
713.563
1081.76
669.846
381.547
219.721
131.329
88.2268
65.2499
53.486
48.5122
48.2588
53.4471
65.142
88.3531
133.119
221.061
389.635
686.042
1091.41
728.205
710.569
1074.53
661.134
381.863
215.427
131.838
87.0674
64.8962
53.3695
48.4864
48.4004
52.9386
64.5438
87.7277
131.123
219.576
387.926
682.87
1085.18
723.892
707.703
1076.93
663.1
377.824
216.413
129.71
86.5468
64.0916
53.0879
48.2843
48.2453
53.1128
64.5154
86.4807
130.212
218.118
386.815
679.861
1090.95
723.029
705.368
1079.03
663.921
378.078
211.939
128.647
85.9077
63.9391
52.8081
48.0245
47.9405
52.4807
63.7185
86.1133
129.326
218.213
388.062
671.346
1084.15
720.73
702.365
1077.19
660.482
375.006
210.041
127.218
85.1926
63.1706
52.5426
47.7888
47.4447
52.2618
63.3952
85.3608
128.031
214.564
385.144
671.229
1088.33
716.296
702.697
1074.51
651.684
367.831
207.274
125.692
84.4654
62.8826
51.9969
47.5133
47.2408
51.8644
62.8132
84.573
126.931
212.442
378.024
668.758
1093
716.218
701.476
1072.26
652.753
367.153
205.114
124.583
83.7035
62.4272
51.7163
47.1403
47.054
51.5006
62.3085
83.7218
125.445
209.751
377.661
670.152
1086.94
714.224
701.54
1064.73
648.731
363.515
202.999
123.377
83.0668
62.1211
51.4184
46.9242
46.8348
51.1647
61.7883
83.0411
124.209
206.879
373.566
666.54
1092.61
710.972
700.649
1065.16
644.502
359.483
200.033
122.082
82.3409
61.7998
51.0984
46.6405
46.5215
50.8566
61.3384
82.4838
122.855
203.249
364.93
656.15
1086.39
708.932
698.965
1064.22
639.794
355.269
198.077
120.834
81.6296
61.3511
50.7883
46.2916
46.1361
50.6035
60.8982
81.6576
121.558
200.963
361.665
654.219
1086.24
703.671
697.676
1065.55
632.876
348.393
195.392
119.45
80.838
60.8252
50.2806
45.8701
45.8793
50.2459
60.3346
80.6825
120.356
198.877
356.52
644.996
1084.31
701.732
693.486
1062.66
624.28
344.51
193.593
118.365
80.0696
60.2145
49.937
45.5947
45.5813
49.8145
59.8661
80.011
118.975
196.459
353.339
641.474
1083.01
697.653
691.628
1058.54
618.215
339.288
191.411
117.1
79.3334
59.8028
49.5866
45.1667
45.1956
49.4403
59.3594
78.9977
117.29
193.72
347.918
635.507
1081.57
694.649
687.983
1054.51
612.403
335.64
189.3
115.947
78.6718
59.2099
49.1925
44.8459
44.7749
48.9257
58.792
78.0878
115.599
191.165
342.277
629.467
1079.83
691.235
684.788
1044.4
606.511
331.001
186.812
114.787
78.1082
58.8526
48.8877
44.5627
44.4967
48.6436
58.3708
77.4916
114.487
188.579
338.226
624.238
1080.18
687.415
678.842
1041.89
600.348
326.546
184.667
113.656
77.4773
58.4184
48.5178
44.2129
44.1262
48.2235
57.8506
76.6687
113.077
186.054
332.938
617.063
1077.18
683.449
675.601
1038.21
594.776
322.939
182.712
112.671
76.944
58.0392
48.1804
43.9034
43.7901
47.8453
57.3816
75.9355
111.63
182.819
328.874
611.721
1069.77
679.982
673.084
1040.63
589.582
319.081
180.749
111.685
76.3501
57.5965
47.7943
43.549
43.4273
47.4454
56.913
75.2378
110.31
180.137
323.214
606.232
1069
675.994
670.335
1032.58
584.873
316.078
178.806
110.652
75.7512
57.1816
47.4474
43.2141
43.0743
47.0382
56.3949
74.4636
108.906
177.267
318.971
601.433
1068.21
672.051
668.682
1037.06
580.278
312.219
176.703
109.62
75.1257
56.7188
47.0493
42.8185
42.6806
46.6211
55.8994
73.7972
107.799
175.216
314.693
595.616
1063.98
668.029
666.878
1027.84
575.178
308.495
174.546
108.461
74.4519
56.247
46.6562
42.4266
42.2656
46.1523
55.3328
72.9653
106.313
172.41
309.605
589.423
1053.17
664.092
665.574
1026.19
569.828
304.307
172.275
107.346
73.7814
55.7608
46.2555
42.0548
41.8732
45.713
54.7998
72.2477
105.155
170.098
305.023
581.167
1049.48
660.118
663.339
1021.64
564.588
300.519
170.193
106.243
73.1467
55.2974
45.8436
41.6378
41.4417
45.2435
54.2355
71.4396
103.703
167.264
299.769
573.654
1044.06
656.284
661.155
1015.71
558.485
296.537
168.113
105.219
72.5239
54.825
45.427
41.2424
41.0247
44.7662
53.647
70.6492
102.446
164.794
295.259
567.27
1038.27
652.201
658.622
1009.71
553.183
292.832
166.085
104.042
71.8009
54.2893
44.9624
40.7906
40.5636
44.2631
53.0513
69.8376
101.111
162.13
289.564
558.37
1031.77
647.345
655.619
1001.74
546.421
288.79
163.933
102.962
71.1271
53.7824
44.5215
40.3746
40.1356
43.7918
52.4741
69.0418
99.8234
159.57
284.541
550.507
1024.91
641.204
652.982
995.38
540.536
284.779
161.828
101.709
70.3208
53.1977
44.0404
39.9354
39.6951
43.3063
51.8884
68.2519
98.5166
156.906
278.996
541.137
1016.9
634.913
649.005
989.107
533.469
280.401
159.58
100.488
69.5504
52.6402
43.5854
39.5217
39.2707
42.8264
51.2985
67.4425
97.2133
154.512
274.424
533.442
1009.83
628.726
645.539
982.045
526.365
276.159
157.412
99.2628
68.723
52.0242
43.0864
39.0774
38.8258
42.3203
50.6672
66.571
95.7999
151.839
269.178
525.069
1001.79
622.081
641.385
974.442
519.252
271.766
155.119
97.9702
67.8872
51.4093
42.588
38.6313
38.3792
41.8125
50.0321
65.7032
94.463
149.361
264.007
515.908
993.405
615.644
635.833
966.868
511.617
267.253
152.718
96.6312
67.0084
50.768
42.0762
38.1726
37.9172
41.2908
49.3722
64.7627
92.9773
146.771
259.188
508.059
985.311
608.823
630.926
958.333
503.527
262.507
150.229
95.2354
66.1111
50.112
41.5434
37.6948
37.4426
40.7588
48.6893
63.7681
91.3993
143.986
253.838
499.554
978.063
603.917
625.225
949.511
495.221
257.417
147.498
93.6788
65.1261
49.4095
40.9801
37.1913
36.9392
40.1926
47.9761
62.7604
89.8428
141.326
248.81
491.168
969.799
598.473
620.842
942.33
487.548
252.624
144.841
92.099
64.0838
48.6535
40.3805
36.6722
36.4363
39.6302
47.2383
61.6906
88.1724
138.351
243.384
483.015
962.503
594.477
615.987
934.58
478.842
247.078
141.751
90.2749
62.9187
47.8303
39.7343
36.1167
35.9041
39.0486
46.5143
60.6792
86.5657
135.553
238.074
474.167
954.549
590.376
611.269
927.706
470.521
241.519
138.614
88.411
61.6861
46.9542
39.0655
35.5523
35.3677
38.4626
45.7762
59.6396
84.9183
132.609
232.579
465.196
947.458
585.063
607.266
921.477
461.398
235.236
135.09
86.3448
60.3396
46.0056
38.341
34.9424
34.7934
37.848
45.0149
58.5634
83.2448
129.753
227.131
456.02
938.833
580.821
601.3
913.751
451.442
228.53
131.246
84.0406
58.8706
44.9933
37.577
34.3012
34.1855
37.1889
44.1957
57.429
81.5298
126.824
221.423
446.062
930.245
574.345
596.219
906.088
440.152
221.078
127.029
81.5537
57.2759
43.901
36.7566
33.6108
33.5282
36.4744
43.314
56.2091
79.657
123.621
215.303
435.11
919.764
566.891
586.916
895.908
427.971
213.387
122.553
78.841
55.571
42.7355
35.88
32.8688
32.8147
35.6992
42.3556
54.8646
77.5699
120.089
208.576
422.758
907.64
556.515
576.307
883.719
413.493
204.862
117.827
76.0009
53.7579
41.495
34.9445
32.0749
32.0437
34.8495
41.3035
53.4211
75.3883
116.327
201.25
409.094
892.73
544.928
559.321
866.911
397.244
195.484
112.681
72.9564
51.8322
40.1889
33.957
31.2291
31.2222
33.9426
40.1784
51.8702
73.0135
112.287
193.418
394.034
874.649
530.554
540.528
846.301
379.001
185.735
107.411
69.8219
49.8216
38.7957
32.8988
30.3234
30.3378
32.9603
38.9527
50.1639
70.3977
107.887
185.168
377.603
852.109
512.304
518.583
820.763
359.111
175.102
101.731
66.4874
47.6914
37.3392
31.7975
29.377
29.4092
31.9211
37.6536
48.3662
67.689
103.412
176.521
359.997
826.438
493.566
494.771
790.786
338.173
164.495
96.0445
63.097
45.5035
35.8184
30.6336
28.371
28.4181
30.8101
36.2441
46.3977
64.7236
98.5317
167.408
341.006
795.9
471.852
470.36
756.174
316.042
153.467
89.9997
59.52
43.2428
34.2541
29.4304
27.3253
27.3844
29.6468
34.7651
44.3128
61.57
93.4235
158.021
321.166
761.985
450.918
445.104
717.914
293.828
142.803
84.0693
55.8905
40.8992
32.6185
28.1675
26.2272
26.2977
28.42
33.2044
42.1093
58.2196
87.9932
148.139
300.317
723.466
430.036
420.128
675.627
271.307
131.892
78.0644
52.2709
38.5566
30.9629
26.8768
25.0989
25.1737
27.1416
31.5645
39.7863
54.6477
82.1716
137.865
278.857
680.987
408.049
396.513
629.987
249.012
121.135
72.1366
48.6723
36.1902
29.279
25.5537
23.9353
24.0142
25.8248
29.8672
37.3652
50.9233
76.0851
127.118
256.404
634.53
386.228
371.466
580.361
226.376
110.408
66.216
45.1198
33.8607
27.606
24.2263
22.7613
22.8427
24.4937
28.1581
34.9238
47.1144
69.7613
115.924
233.435
584.5
363.672
348.079
527.99
203.874
100.031
60.4918
41.6342
31.5634
25.9523
22.9165
21.6045
21.6853
23.1779
26.4685
32.5074
43.3365
63.4714
104.807
210.349
531.601
340.82
324.23
474.151
182.003
90.2344
55.1269
38.3503
29.3876
24.3854
21.6757
20.5046
20.5797
21.917
24.8496
30.198
39.7476
57.5399
94.2546
187.995
478.556
320.712
305.574
422.499
161.756
80.9987
50.0861
35.2955
27.3726
22.936
20.5262
19.483
19.5487
20.7362
23.3332
28.0557
36.4572
52.0754
84.3233
166.787
427.014
303.625
292.301
375.075
143.813
72.95
45.7186
32.6368
25.6033
21.653
19.5043
18.5724
18.6278
19.6816
21.9855
26.1683
33.5873
47.3381
75.7126
148.439
380.837
295.998
289.914
335.028
129.027
66.2736
42.0503
30.3679
24.0798
20.546
18.621
17.7824
17.8249
18.7587
20.8074
24.5232
31.1064
43.2916
68.335
132.36
339.621
294.168
289.919
301.258
116.949
60.9312
39.1048
28.5301
22.8296
19.6276
17.8845
17.1224
17.1515
17.9806
19.8145
23.1478
29.0393
39.9365
62.3356
119.319
304.83
293.879
292.776
274.033
107.409
56.86
36.7901
27.0392
21.8006
18.8698
17.279
16.582
16.5995
17.3365
18.9802
21.9952
27.3629
37.2872
57.574
108.376
274.982
295.334
301.716
250.846
99.4754
53.5922
34.9351
25.8391
20.9677
18.2564
16.7921
16.1512