/*--------------------------------*- C++ -*----------------------------------*\
  =========                 |
  \\      /  F ield         | OpenFOAM: The Open Source CFD Toolbox
   \\    /   O peration     | Website:  https://openfoam.org
    \\  /    A nd           | Version:  6
     \\/     M anipulation  |
\*---------------------------------------------------------------------------*/
FoamFile
{
    version     2.0;
    format      ascii;
    class       volScalarField;
    location    "23";
    object      epsilon;
}
// * * * * * * * * * * * * * * * * * * * * * * * * * * * * * * * * * * * * * //

dimensions      [0 2 -3 0 0 0 0];

internalField   nonuniform List<scalar> 
130000
(
14.3322
14.0838
13.8296
13.5757
13.3218
13.0684
12.8167
12.5687
12.3266
12.0928
11.87
11.6602
11.4654
11.2872
11.1267
10.9846
10.8611
10.7563
10.6697
10.6008
14.3555
14.1073
13.8534
13.5993
13.3448
13.0905
12.8378
12.5886
12.3453
12.1104
11.8864
11.6757
11.4802
11.3013
11.1403
10.9979
10.8742
10.7692
10.6826
10.6137
14.3762
14.1284
13.8745
13.6201
13.3649
13.1096
12.8558
12.6053
12.3607
12.1244
11.899
11.6868
11.4899
11.3099
11.1481
11.005
10.8809
10.7758
10.6892
10.6206
14.3935
14.1457
13.8916
13.6367
13.3807
13.1244
12.8692
12.6171
12.3706
12.1324
11.905
11.6912
11.4931
11.3122
11.1495
11.0059
10.8816
10.7764
10.6901
10.6219
14.4058
14.1578
13.9033
13.6476
13.3905
13.1326
12.8755
12.6216
12.3736
12.134
11.9053
11.6905
11.4916
11.3101
11.147
11.0031
10.8787
10.7736
10.6875
10.6197
14.4138
14.1649
13.9094
13.6523
13.3937
13.1343
12.8757
12.6207
12.3718
12.1316
11.9027
11.6877
11.4885
11.3068
11.1437
10.9998
10.8755
10.7707
10.6849
10.6175
14.4183
14.168
13.911
13.6523
13.3925
13.1322
12.8731
12.6175
12.368
12.1273
11.8982
11.683
11.4838
11.3022
11.1393
10.9957
10.8718
10.7673
10.6819
10.6149
14.421
14.169
13.9105
13.6508
13.3899
13.1286
12.8687
12.6124
12.3624
12.1214
11.8921
11.6769
11.4779
11.2965
11.1339
10.9908
10.8673
10.7634
10.6786
10.6122
14.4231
14.1694
13.9093
13.6483
13.3862
13.1238
12.863
12.606
12.3555
12.1142
11.8848
11.6697
11.4709
11.2899
11.1278
10.9853
10.8624
10.7592
10.675
10.6092
14.4251
14.1696
13.908
13.6454
13.3818
13.1183
12.8565
12.5987
12.3477
12.1062
11.8768
11.6618
11.4633
11.2828
11.1213
10.9794
10.8573
10.7547
10.6713
10.6062
14.4274
14.1702
13.9069
13.6425
13.3774
13.1126
12.8497
12.5912
12.3396
12.0978
11.8683
11.6535
11.4554
11.2754
11.1145
10.9733
10.8519
10.7501
10.6674
10.6031
14.4302
14.1711
13.906
13.6399
13.3732
13.107
12.843
12.5836
12.3314
12.0893
11.8598
11.6451
11.4474
11.2679
11.1076
10.9672
10.8466
10.7456
10.6637
10.6001
14.4336
14.1725
13.9056
13.6378
13.3694
13.1017
12.8365
12.5762
12.3234
12.0809
11.8513
11.6369
11.4395
11.2605
11.1009
10.9612
10.8414
10.7412
10.6601
10.5971
14.4374
14.1745
13.9058
13.6362
13.3661
13.0969
12.8305
12.5692
12.3158
12.0729
11.8432
11.6289
11.4318
11.2533
11.0944
10.9554
10.8364
10.737
10.6566
10.5945
14.442
14.177
13.9062
13.6352
13.3634
13.0928
12.8251
12.5628
12.3086
12.0653
11.8355
11.6212
11.4245
11.2465
11.0882
10.9499
10.8316
10.733
10.6534
10.592
14.4476
14.1806
13.9078
13.6348
13.3618
13.0896
12.8205
12.5571
12.3022
12.0583
11.8283
11.6141
11.4176
11.24
11.0823
10.9447
10.8272
10.7294
10.6506
10.5899
14.4543
14.1854
13.9106
13.6358
13.3614
13.0875
12.8169
12.5522
12.2964
12.052
11.8216
11.6074
11.4111
11.234
11.0768
10.9399
10.8231
10.7261
10.648
10.588
14.4622
14.1913
13.9145
13.6377
13.3614
13.0863
12.814
12.5481
12.2913
12.0463
11.8156
11.6014
11.4052
11.2285
11.0718
10.9355
10.8194
10.7231
10.6457
10.5864
14.4712
14.1982
13.9193
13.6404
13.362
13.0854
12.8118
12.5448
12.2871
12.0414
11.8103
11.5959
11.3999
11.2234
11.0673
10.9315
10.8161
10.7205
10.6439
10.5854
14.4815
14.2065
13.9254
13.6444
13.3639
13.0854
12.811
12.5427
12.2838
12.0373
11.8057
11.5911
11.3952
11.219
11.0632
10.9281
10.8133
10.7183
10.6424
10.5845
14.4932
14.2162
13.9329
13.6496
13.367
13.0867
12.8109
12.5414
12.2814
12.034
11.8019
11.5871
11.3911
11.2151
11.0598
10.9251
10.8109
10.7165
10.641
10.5833
14.5062
14.2271
13.9416
13.6561
13.3713
13.0888
12.811
12.5407
12.2798
12.0316
11.7989
11.5838
11.3878
11.212
11.057
10.9228
10.8092
10.7155
10.6405
10.583
14.5205
14.2394
13.9516
13.6638
13.3767
13.0921
12.8125
12.5405
12.279
12.03
11.7968
11.5813
11.3852
11.2095
11.0548
10.921
10.8079
10.7148
10.6402
10.5825
14.5362
14.2531
13.9631
13.6729
13.3834
13.0967
12.8151
12.5414
12.2787
12.0295
11.7959
11.5801
11.3837
11.208
11.0534
10.9199
10.807
10.714
10.6393
10.5816
14.5535
14.2683
13.976
13.6834
13.3915
13.1025
12.8188
12.5435
12.2795
12.0296
11.7958
11.5797
11.3833
11.2076
11.0532
10.92
10.8072
10.714
10.6399
10.5831
14.5723
14.2851
13.9905
13.6953
13.4009
13.1095
12.8236
12.5464
12.2807
12.0295
11.7953
11.5793
11.3827
11.2071
11.0529
10.92
10.8077
10.7148
10.6413
10.5848
14.5926
14.3035
14.0064
13.7087
13.4117
13.1178
12.8296
12.5503
12.2829
12.0303
11.7948
11.5785
11.3819
11.2064
11.0522
10.9195
10.8072
10.7149
10.6413
10.5852
14.6147
14.3236
14.0242
13.7238
13.4242
13.1276
12.837
12.5556
12.2863
12.0321
11.7955
11.5786
11.3821
11.2061
11.0516
10.9184
10.8058
10.7138
10.6404
10.5849
14.6386
14.3456
14.0437
13.7407
13.4383
13.139
12.8459
12.5621
12.2908
12.0349
11.7969
11.5789
11.3813
11.205
11.0504
10.9173
10.8051
10.7125
10.6393
10.5839
14.6644
14.3696
14.0653
13.7596
13.4543
13.1522
12.8564
12.5701
12.2966
12.0388
11.7991
11.5794
11.3811
11.2047
11.05
10.9167
10.8044
10.7121
10.6387
10.5829
14.6923
14.3957
14.0891
13.7806
13.4724
13.1673
12.8687
12.5798
12.304
12.0441
11.8026
11.5815
11.3819
11.2046
11.0496
10.916
10.8036
10.7117
10.6381
10.5826
14.7225
14.4242
14.1152
13.8039
13.4927
13.1846
12.883
12.5914
12.3131
12.0511
11.8078
11.5851
11.3842
11.206
11.0504
10.9165
10.8041
10.7123
10.6395
10.5843
14.7552
14.4553
14.1441
13.8299
13.5156
13.2044
12.8998
12.6053
12.3244
12.0601
11.8148
11.5904
11.3881
11.2087
11.0521
10.9179
10.8054
10.7136
10.641
10.5859
14.7907
14.4894
14.1759
13.8589
13.5415
13.227
12.9192
12.6217
12.3381
12.0714
11.824
11.5979
11.3941
11.2134
11.0557
10.9207
10.8075
10.7149
10.6417
10.5866
14.8292
14.5268
14.211
13.8912
13.5705
13.2527
12.9416
12.6411
12.3547
12.0855
11.8359
11.6079
11.4026
11.2205
11.0618
10.9258
10.8118
10.7185
10.6447
10.589
14.8712
14.5677
14.2498
13.9272
13.6032
13.282
12.9675
12.6638
12.3744
12.1026
11.8508
11.6208
11.4139
11.2305
11.0706
10.9337
10.8189
10.725
10.6506
10.5945
14.9169
14.6127
14.2928
13.9672
13.64
13.3153
12.9973
12.6902
12.3977
12.1232
11.8689
11.6369
11.4283
11.2434
11.0824
10.9445
10.8288
10.7342
10.6592
10.6025
14.9669
14.6621
14.3403
14.0119
13.6813
13.3529
13.0313
12.7207
12.4251
12.1476
11.8908
11.6566
11.4461
11.2597
11.0973
10.9584
10.8418
10.7464
10.6706
10.6131
15.0215
14.7164
14.3929
14.0617
13.7276
13.3955
13.0701
12.7559
12.4568
12.1762
11.9168
11.6802
11.4677
11.2797
11.1158
10.9757
10.858
10.7616
10.685
10.6266
15.0814
14.7763
14.4511
14.1172
13.7796
13.4437
13.1143
12.7962
12.4936
12.2097
11.9474
11.7083
11.4936
11.3037
11.1383
10.9967
10.8779
10.7804
10.7027
10.6433
15.1469
14.8423
14.5157
14.1791
13.838
13.498
13.1645
12.8424
12.536
12.2487
11.9832
11.7414
11.5244
11.3324
11.1652
11.0221
10.9019
10.8031
10.7243
10.6637
15.2189
14.9152
14.5875
14.2482
13.9035
13.5594
13.2217
12.8953
12.5848
12.2938
12.025
11.7803
11.5607
11.3664
11.1973
11.0525
10.9306
10.8304
10.7502
10.6882
15.298
14.9958
14.6672
14.3254
13.9771
13.6288
13.2866
12.9558
12.641
12.3461
12.0737
11.8258
11.6033
11.4066
11.2353
11.0885
10.9649
10.863
10.7811
10.7175
15.3852
15.0851
14.756
14.4118
14.0599
13.7073
13.3604
13.0249
12.7057
12.4066
12.1303
11.8789
11.6534
11.454
11.2802
11.1312
11.0055
10.9017
10.818
10.7525
15.4814
15.1842
14.855
14.5086
14.1532
13.7962
13.4445
13.1041
12.7802
12.4765
12.1962
11.941
11.7121
11.5097
11.3332
11.1817
11.0537
10.9477
10.8617
10.7941
15.5879
15.2944
14.9658
14.6175
14.2586
13.8971
13.5405
13.195
12.866
12.5576
12.2728
12.0137
11.7811
11.5753
11.3958
11.2415
11.1109
11.0023
10.9138
10.8435
15.7059
15.4174
15.09
14.7402
14.3779
14.012
13.6503
13.2995
12.9652
12.6518
12.3623
12.0987
11.8622
11.6527
11.4698
11.3123
11.1787
11.0671
10.9757
10.9024
15.8373
15.5549
15.2297
14.879
14.5136
14.1433
13.7764
13.4201
13.0803
12.7615
12.467
12.1987
11.9578
11.7443
11.5576
11.3965
11.2594
11.1444
11.0495
10.9727
15.9837
15.7094
15.3875
15.0365
14.6685
14.2939
13.9218
13.5599
13.2144
12.89
12.59
12.3167
12.071
11.8531
11.6621
11.497
11.3559
11.2369
11.1379
11.0568
16.1479
15.8835
15.5664
15.2162
14.8461
14.4676
14.0905
13.7229
13.3715
13.0412
12.7355
12.4568
12.2059
11.983
11.7874
11.6175
11.4718
11.3481
11.2443
11.1581
16.3324
16.0808
15.7703
15.4222
15.0509
14.669
14.2872
13.9141
13.5567
13.2204
12.9088
12.6243
12.3678
12.1395
11.9384
11.7633
11.6121
11.4828
11.3731
11.2807
16.541
16.3054
16.0042
15.66
15.2889
14.9046
14.5186
14.1403
13.7772
13.4348
13.1171
12.8265
12.564
12.3296
12.1225
11.9411
11.7835
11.6475
11.5307
11.4306
16.7778
16.5628
16.2744
15.9368
15.5679
15.1826
14.7935
14.4108
14.0424
13.6942
13.3704
13.0734
12.8044
12.5633
12.3493
12.1606
11.9953
11.851
11.7253
11.6155
17.0486
16.8602
16.5894
16.2622
15.8984
15.5145
15.1242
14.7383
14.3656
14.0123
13.6826
13.3793
13.1035
12.855
12.633
12.4357
12.2609
12.1062
11.9691
11.8469
17.3608
17.2071
16.9606
16.6492
16.295
15.9162
15.5276
15.1411
14.7659
14.4087
14.0742
13.7649
13.482
13.2255
12.9942
12.7864
12.5998
12.4317
12.2797
12.141
17.7235
17.616
17.4036
17.1162
16.7784
16.4104
16.0284
15.6453
15.271
14.9126
14.5749
14.2606
13.971
13.7058
13.4637
13.243
13.0411
12.8555
12.6834
12.5221
18.1501
18.1049
17.9404
17.6888
17.3778
17.0296
16.662
16.2891
15.9215
15.5665
15.2292
14.9124
14.6171
14.3428
14.0882
13.8513
13.6294
13.4199
13.22
13.0272
18.6596
18.6985
18.6019
18.4039
18.1353
17.8209
17.4804
17.1288
16.7775
16.4343
16.104
15.7893
15.491
15.2082
14.9393
14.6818
14.4331
14.1905
13.9514
13.7132
19.2814
19.4296
19.4311
19.3132
19.1111
18.8524
18.5589
18.2468
17.9281
17.6106
17.299
16.9954
16.6999
16.4109
16.1262
15.8428
15.558
15.2688
14.9729
14.6682
20.0497
20.3545
20.4884
20.4906
20.3911
20.2216
20.0061
19.7622
19.5023
19.234
18.9611
18.6846
18.4033
18.1142
17.814
17.4988
17.1651
16.8101
16.4318
16.029
21.0096
21.5458
21.8691
22.0374
22.0953
22.0652
21.9746
21.8428
21.6828
21.5009
21.2995
21.0773
20.8308
20.5548
20.2434
19.8911
19.4933
19.0468
18.55
18.0028
22.2283
23.0849
23.7001
24.1149
24.3859
24.5702
24.6708
24.714
24.715
24.6751
24.5945
24.469
24.2919
24.0531
23.7431
23.353
22.8758
22.307
21.6451
20.8913
23.7952
25.0987
26.1201
26.9025
27.5083
27.9843
28.3567
28.6512
28.9043
29.0805
29.1853
29.2149
29.1582
28.996
28.7127
28.2941
27.7291
27.0096
26.1325
25.099
25.8229
27.7429
29.3288
30.6212
31.6918
32.5944
33.366
34.0308
34.5994
35.064
35.4143
35.663
35.7975
35.7641
35.5467
35.1247
34.4804
33.599
32.4713
31.0941
28.4528
31.2074
33.5562
35.5339
37.2237
38.6892
39.9745
41.1059
42.0941
42.9356
43.6208
44.1346
44.462
44.6082
44.4999
44.1136
43.4231
42.4023
41.0299
39.289
31.8571
35.7122
39.0547
41.9084
44.3723
46.5241
48.4182
50.0884
51.5509
52.8069
53.8491
54.6623
55.2276
55.5367
55.5749
55.2655
54.5799
53.4786
51.9222
49.8695
36.2372
41.496
46.0748
49.9839
53.3469
56.2657
58.8148
61.0437
62.9807
64.6389
66.0204
67.1168
67.9129
68.3941
68.5639
68.3586
67.7256
66.6159
64.9686
62.7123
41.8195
48.8003
54.8389
59.9402
64.2723
67.9798
71.1722
73.9271
76.2953
78.3088
79.9834
81.3224
82.3215
82.9689
83.2543
83.14
82.5882
81.5265
79.8705
77.5211
48.8459
57.8494
65.5205
71.8883
77.1991
81.6659
85.4513
88.6737
91.4146
93.7282
95.6474
97.1885
98.3562
99.1427
99.5319
99.5025
99.0437
98.0611
96.4428
94.0699
57.5575
68.8321
78.2383
85.8852
92.1414
97.3147
101.636
105.271
108.336
110.909
113.041
114.76
116.077
116.99
117.477
117.528
117.155
116.26
114.696
112.326
68.1744
81.8911
93.0664
101.964
109.117
114.947
119.76
123.772
127.133
129.945
132.275
134.163
135.626
136.667
137.271
137.408
137.09
136.278
134.77
132.407
80.8768
97.1227
110.052
120.157
128.164
134.616
139.893
144.263
147.907
150.949
153.471
155.525
157.134
158.305
159.02
159.246
159.002
158.274
156.827
154.475
95.7944
114.585
129.229
140.5
149.329
156.378
162.103
166.816
170.731
173.994
176.702
178.918
180.673
181.976
182.809
183.131
182.968
182.334
180.97
178.652
113.005
134.308
150.617
163.016
172.638
180.26
186.407
191.439
195.6
199.061
201.935
204.3
206.195
207.631
208.589
209.022
208.951
208.426
207.185
204.951
132.541
156.292
174.21
187.691
198.061
206.209
212.728
218.023
222.376
225.983
228.98
231.459
233.471
235.035
236.13
236.702
236.749
236.356
235.297
233.219
154.393
180.499
199.948
214.433
225.469
234.05
240.839
246.295
250.735
254.39
257.421
259.943
262.022
263.69
264.938
265.724
265.971
265.705
264.873
263.051
178.504
206.831
227.684
243.04
254.589
263.435
270.319
275.753
280.103
283.639
286.556
288.993
291.041
292.745
294.106
295.082
295.579
295.578
295.074
293.697
204.763
235.108
257.157
273.151
284.959
293.796
300.487
305.613
309.595
312.751
315.318
317.471
319.33
320.965
322.39
323.579
324.448
324.876
324.783
324.04
232.982
265.038
287.949
304.214
315.881
324.287
330.356
334.745
337.946
340.338
342.207
343.778
345.208
346.602
347.995
349.374
350.664
351.744
352.412
352.472
262.891
296.197
319.467
335.453
346.388
353.751
358.577
361.622
363.466
364.559
365.242
365.802
366.46
367.381
368.585
370.084
371.82
373.677
375.485
376.939
294.12
328.023
350.928
365.849
375.221
380.687
383.424
384.302
384.014
383.133
381.973
380.923
380.271
380.153
380.793
382.272
384.572
387.575
390.972
394.462
326.219
359.828
381.371
394.145
400.828
403.256
402.818
400.456
396.814
392.545
388.495
385.186
383.142
382.088
382.231
383.592
386.229
390.052
394.764
400.675
358.693
390.836
409.694
418.878
421.393
419.422
414.097
406.873
399.376
391.985
385.25
379.475
374.728
371.958
371.186
372.244
375.306
380.508
387.881
396.344
391.06
420.258
434.661
438.454
435.148
426.495
415.436
402.993
389.868
377.513
366.467
357.266
350.256
345.728
343.874
344.67
348.025
354.312
363.473
375.301
422.949
447.245
455.082
451.55
439.519
423.359
404.098
384.159
364.844
347.152
331.776
319.176
309.642
303.393
300.594
301.178
304.91
312.448
323.895
339.177
454.045
471.106
470.271
455.906
433.907
406.524
377.712
349.569
323.596
300.762
281.585
266.307
254.998
247.707
244.503
245.238
249.628
258.635
272.561
291.543
484.295
491.931
478.705
451.025
414.287
374.432
335.129
298.936
267.319
240.916
219.779
203.681
192.29
185.372
182.843
184.442
190.141
201.224
218.224
241.699
514.221
509.354
479.101
432.985
379.744
326.23
277.143
235.072
200.867
174.263
154.413
140.362
131.275
126.63
126.206
129.695
137.842
152.306
173.965
205.526
545.563
522.471
469.548
400.953
329.208
263.385
208.375
165.576
134.067
111.896
97.0043
87.7177
82.8977
82.0552
84.7434
91.2579
103.144
122.558
153.812
197.473
577.552
528.031
445.945
351.685
263.739
192.357
139.796
103.876
80.6602
66.2738
57.9684
53.9795
53.2593
55.2248
60.1437
69.4914
85.2725
112.631
154.833
222.527
610.138
523.838
403.146
284.155
188.682
122.75
81.8025
58.3173
45.7388
39.3466
36.5
35.9491
37.2384
40.6098
47.0824
58.5692
79.4674
115.349
181.196
299.113
637.518
494.32
331.041
198.117
113.048
67.093
45.271
35.0416
29.9809
27.5403
26.7146
27.204
29.0527
32.8416
39.8024
52.8535
79.7087
130.679
241.103
441.199
645.042
423.959
229.763
112.646
61.0338
40.0139
30.4175
25.5652
23.0174
21.8257
21.6187
22.3144
24.1404
27.7633
34.7313
48.9727
81.6791
158.186
333.896
631.801
616.249
306.229
132.105
66.5467
41.0757
29.7471
24.1137
21.1073
19.4942
18.7323
18.6232
19.2007
20.7412
23.9384
30.4928
44.8889
80.7924
182.559
434.978
821.807
558.991
231.772
98.4461
51.485
33.1682
24.9743
20.8711
18.6471
17.4198
16.8154
16.6952
17.1074
18.3099
20.9386
26.6266
39.9464
76.0104
187.683
477.462
975.388
587.911
225.167
88.2418
44.7333
28.9366
22.0828
18.7452
17.0061
16.0745
15.6209
15.5166
15.7837
16.6354
18.5626
22.891
33.3803
62.9512
159.585
470.582
1060.03
785.404
245.909
84.1081
40.0041
25.4366
19.6669
17.0942
15.882
15.3063
15.0462
14.9832
15.1124
15.5751
16.7659
19.5767
26.6113
47.0507
119.034
385.378
1072.29
957.999
261.282
74.2791
33.0186
21.4511
17.4267
15.8219
15.1711
14.9055
14.7987
14.7715
14.8179
15
15.5117
16.8953
20.5699
31.6732
73.6961
262.819
939.029
920.251
172.275
44.2986
22.2978
17.1143
15.5588
15.0684
14.8846
14.8018
14.755
14.7416
14.7621
14.8402
15.0426
15.6355
17.1308
21.3607
36.3939
113.578
562.418
213.122
36.2613
20.056
16.5966
15.439
15.0343
14.8887
14.8314
14.8074
14.8007
14.7974
14.7942
14.7955
14.798
14.744
14.7139
14.9497
16.7699
28.904
106.951
10.4897
10.4517
10.4079
10.3671
10.3297
10.296
10.2662
10.2405
10.2192
10.2023
10.19
10.1823
10.1792
10.1806
10.1866
10.1971
10.2122
10.2316
10.2556
10.2841
10.506
10.4673
10.4234
10.3825
10.3449
10.3109
10.2809
10.2551
10.2336
10.2167
10.2043
10.1967
10.1935
10.1948
10.2005
10.2107
10.2253
10.2444
10.2679
10.296
10.518
10.4792
10.4351
10.394
10.3561
10.3219
10.2917
10.2658
10.2445
10.2277
10.2156
10.2082
10.2051
10.2063
10.2118
10.2215
10.2353
10.2537
10.2767
10.3042
10.5279
10.4891
10.4449
10.4034
10.3652
10.3307
10.3004
10.2745
10.2535
10.2374
10.2259
10.2183
10.2148
10.2155
10.2204
10.2296
10.2433
10.2616
10.2845
10.3118
10.5366
10.4978
10.4534
10.4116
10.3729
10.3379
10.3071
10.2811
10.2603
10.2441
10.2317
10.2233
10.2191
10.2192
10.2235
10.2322
10.2458
10.2645
10.287
10.3142
10.5445
10.5061
10.4617
10.4194
10.3799
10.3437
10.3118
10.2848
10.2631
10.2461
10.2327
10.2231
10.2186
10.2186
10.2233
10.2318
10.245
10.2637
10.2858
10.3137
10.5498
10.5114
10.4672
10.4249
10.3847
10.3473
10.3143
10.2861
10.2631
10.2454
10.2317
10.2222
10.2185
10.2191
10.2242
10.2325
10.2456
10.2637
10.2863
10.3145
10.5516
10.5128
10.4685
10.4268
10.3862
10.3486
10.3156
10.2874
10.2639
10.2453
10.2318
10.2235
10.2206
10.221
10.225
10.2328
10.2462
10.2642
10.2872
10.3152
10.5526
10.5132
10.4685
10.4268
10.3864
10.3501
10.3178
10.2898
10.2664
10.2475
10.2333
10.2243
10.2206
10.2205
10.2245
10.233
10.2456
10.264
10.288
10.3157
10.5556
10.5157
10.4705
10.4283
10.3893
10.3537
10.3221
10.2945
10.271
10.2518
10.2372
10.2275
10.2226
10.2223
10.2265
10.2355
10.2491
10.2674
10.2903
10.3177
10.56
10.5198
10.4748
10.433
10.3946
10.3598
10.3284
10.3009
10.2774
10.2583
10.2438
10.2341
10.2295
10.2292
10.2335
10.2425
10.2562
10.2745
10.2973
10.3245
10.5661
10.526
10.4813
10.439
10.3995
10.3634
10.3314
10.3037
10.2806
10.2624
10.2491
10.2403
10.2359
10.2358
10.2405
10.25
10.2641
10.2827
10.3056
10.3328
10.5726
10.5318
10.4862
10.4425
10.4011
10.3642
10.3329
10.3058
10.2831
10.2653
10.2522
10.2431
10.2386
10.238
10.2428
10.2525
10.2671
10.2863
10.3096
10.3368
10.576
10.5343
10.4874
10.4426
10.4013
10.3655
10.3351
10.3082
10.2853
10.2669
10.253
10.2434
10.2382
10.2373
10.243
10.2531
10.2678
10.2868
10.3094
10.3362
10.5755
10.5338
10.4869
10.4423
10.4023
10.3665
10.3356
10.3083
10.2854
10.2669
10.2529
10.2435
10.2383
10.2386
10.2446
10.2546
10.269
10.2875
10.3096
10.3366
10.5763
10.5355
10.4894
10.4461
10.4062
10.3702
10.3383
10.3108
10.2878
10.2694
10.2557
10.2468
10.2425
10.2425
10.2477
10.2581
10.2732
10.2925
10.3159
10.3433
10.5792
10.5377
10.4913
10.4478
10.4078
10.3717
10.3398
10.3126
10.2896
10.2712
10.2583
10.2496
10.2464
10.2472
10.2528
10.2632
10.2779
10.2964
10.3197
10.3468
10.5798
10.5381
10.4916
10.4479
10.4078
10.3716
10.3399
10.3128
10.2897
10.2713
10.2587
10.2502
10.2477
10.249
10.2548
10.2648
10.2789
10.2968
10.3197
10.3469
10.5815
10.5399
10.4929
10.4488
10.4084
10.372
10.34
10.3123
10.2893
10.2711
10.2579
10.2497
10.2464
10.2475
10.2533
10.2634
10.2777
10.2962
10.3186
10.3468
10.5866
10.5433
10.4954
10.4507
10.4098
10.3729
10.3405
10.3125
10.2894
10.2712
10.258
10.2498
10.2463
10.2473
10.2531
10.2633
10.2779
10.2968
10.3198
10.347
10.5947
10.5509
10.5025
10.4574
10.4161
10.379
10.3463
10.3182
10.295
10.2767
10.2635
10.2553
10.2517
10.2526
10.2582
10.2683
10.2828
10.3015
10.3243
10.3512
10.6048
10.5604
10.5116
10.4661
10.4245
10.3871
10.3541
10.3259
10.3026
10.2843
10.2711
10.2628
10.2592
10.26
10.2655
10.2755
10.2898
10.3082
10.3308
10.3573
10.6164
10.5716
10.5224
10.4765
10.4344
10.3966
10.3634
10.3349
10.3114
10.293
10.2797
10.2715
10.2679
10.2687
10.2742
10.284
10.2982
10.3164
10.3387
10.3647
10.6299
10.5846
10.535
10.4887
10.4462
10.4079
10.3743
10.3455
10.3217
10.3031
10.2897
10.2814
10.2778
10.2786
10.2841
10.294
10.3082
10.3263
10.3484
10.374
10.6454
10.5998
10.5499
10.5031
10.4603
10.4216
10.3876
10.3584
10.3344
10.3155
10.3019
10.2935
10.2899
10.2907
10.2963
10.3063
10.3205
10.3385
10.3604
10.3856
10.6634
10.6175
10.5673
10.5203
10.4771
10.4381
10.4038
10.3743
10.35
10.3309
10.3172
10.3087
10.3051
10.3059
10.3115
10.3215
10.3357
10.3536
10.3752
10.4
10.6841
10.638
10.5877
10.5404
10.497
10.4577
10.4232
10.3935
10.369
10.3498
10.3359
10.3274
10.3237
10.3245
10.3301
10.34
10.354
10.3717
10.3929
10.4172
10.7079
10.6617
10.6114
10.564
10.5204
10.4809
10.4461
10.4163
10.3916
10.3723
10.3584
10.3497
10.346
10.3467
10.3522
10.362
10.3757
10.3931
10.4138
10.4375
10.7353
10.6892
10.6389
10.5914
10.5477
10.5081
10.4731
10.4431
10.4183
10.3989
10.3848
10.3761
10.3722
10.3729
10.3782
10.3877
10.4011
10.418
10.4381
10.461
10.767
10.7209
10.6707
10.6233
10.5795
10.5398
10.5047
10.4746
10.4496
10.43
10.4159
10.407
10.403
10.4035
10.4085
10.4177
10.4307
10.447
10.4664
10.4884
10.8035
10.7576
10.7077
10.6605
10.6167
10.5769
10.5417
10.5114
10.4863
10.4665
10.4522
10.4432
10.439
10.4392
10.444
10.4528
10.4652
10.4808
10.4992
10.5201
10.8457
10.8002
10.7508
10.7037
10.66
10.6202
10.5849
10.5545
10.5293
10.5094
10.4949
10.4856
10.4812
10.4811
10.4855
10.4937
10.5055
10.5202
10.5376
10.5571
10.8947
10.8497
10.8009
10.7542
10.7107
10.671
10.6356
10.6051
10.5798
10.5597
10.5449
10.5354
10.5307
10.5303
10.5341
10.5417
10.5525
10.5662
10.5823
10.6002
10.9516
10.9074
10.8595
10.8134
10.7702
10.7306
10.6953
10.6647
10.6392
10.6189
10.6039
10.5941
10.589
10.5881
10.5912
10.5979
10.6078
10.6202
10.6346
10.6506
11.0179
10.9749
10.9281
10.8829
10.8402
10.8009
10.7657
10.735
10.7094
10.6889
10.6736
10.6632
10.6577
10.6562
10.6585
10.6641
10.6727
10.6835
10.696
10.7096
11.0957
11.0542
11.0091
10.9649
10.923
10.8842
10.8492
10.8186
10.7928
10.772
10.7563
10.7454
10.7391
10.7368
10.7381
10.7424
10.7494
10.7582
10.7683
10.7791
11.1873
11.1479
11.105
11.0624
11.0217
10.9835
10.9489
10.9184
10.8926
10.8715
10.8552
10.8436
10.8364
10.833
10.8329
10.8355
10.8403
10.8467
10.8538
10.8611
11.296
11.2596
11.2197
11.1795
11.1403
11.1032
11.0693
11.0391
11.0131
10.9916
10.9747
10.9621
10.9536
10.9487
10.9467
10.9471
10.9493
10.9524
10.9557
10.9586
11.4263
11.3941
11.3585
11.3215
11.2847
11.2493
11.2164
11.1867
11.1607
11.1387
11.1208
11.1069
11.0967
11.0896
11.0851
11.0824
11.0809
11.0797
11.0782
11.0754
11.5847
11.5584
11.529
11.4969
11.4637
11.4309
11.3996
11.3706
11.3447
11.322
11.3029
11.2871
11.2744
11.2642
11.2559
11.2489
11.2423
11.2353
11.2272
11.2169
11.7806
11.7632
11.743
11.7181
11.6905
11.6616
11.6329
11.6052
11.5794
11.5559
11.5349
11.5163
11.4998
11.4849
11.4712
11.4577
11.4439
11.4287
11.4114
11.3908
12.0284
12.0248
12.0186
12.005
11.986
11.9634
11.9389
11.9134
11.888
11.8632
11.8392
11.8162
11.7938
11.7718
11.7496
11.7265
11.7017
11.6745
11.6439
11.6088
12.3507
12.3692
12.385
12.3893
12.3842
12.3718
12.354
12.3323
12.3076
12.2807
12.2521
12.222
12.1902
12.1567
12.1211
12.0828
12.0412
11.9955
11.945
11.8884
12.7901
12.841
12.8897
12.9236
12.9406
12.945
12.9385
12.923
12.8998
12.8697
12.8335
12.7917
12.7446
12.6924
12.635
12.5722
12.5037
12.429
12.3475
12.2581
13.4082
13.5133
13.6191
13.6949
13.7456
13.7786
13.7904
13.7859
13.7656
13.7306
13.6822
13.6213
13.5488
13.4656
13.3723
13.2694
13.157
13.0355
12.9044
12.7631
14.3056
14.5003
14.6991
14.8508
14.9588
15.0269
15.0664
15.0828
15.0686
15.0265
14.9585
14.8665
14.7525
14.6183
14.4658
14.2967
14.1124
13.9141
13.7026
13.4779
15.6423
15.9834
16.3334
16.608
16.8109
16.9469
17.0238
17.0615
17.0618
17.0096
16.9114
16.7704
16.59
16.3739
16.1257
15.8492
15.5478
15.2247
14.8824
14.5226
17.6653
18.2375
18.8242
19.2898
19.639
19.88
20.0225
20.0873
20.1017
20.0363
19.8952
19.682
19.4019
19.061
18.6654
18.2215
17.7357
17.2145
16.6634
16.0873
20.7236
21.6389
22.5708
23.3091
23.8612
24.2407
24.4649
24.5669
24.5904
24.5268
24.3339
24.0265
23.6126
23.1001
22.4972
21.8128
21.0564
20.2384
19.3691
18.4586
25.2503
26.6231
27.9987
29.0728
29.863
30.3975
30.7092
30.8511
30.8892
30.8213
30.5747
30.1667
29.6049
28.8959
28.0464
27.0637
25.9573
24.7393
23.4253
22.0324
31.6584
33.537
35.368
36.7535
37.741
38.3883
38.7525
38.9083
38.9534
38.8895
38.6114
38.1349
37.4637
36.5974
35.5339
34.2692
32.8021
31.1363
29.2869
27.2768
40.1303
42.4074
44.5338
46.0621
47.0989
47.7444
48.0857
48.2176
48.2462
48.1948
47.9318
47.4566
46.7718
45.8674
44.7269
43.3232
41.6258
39.6025
37.2559
34.5992
50.4266
52.8327
54.9329
56.333
57.2254
57.7431
57.9911
58.0753
58.0935
58.0565
57.8176
57.398
56.7951
55.9914
54.9618
53.6583
52.0082
49.8699
47.2524
44.1242
61.9685
64.2865
66.3774
67.7923
68.6915
69.2052
69.4502
69.5345
69.548
69.5225
69.2891
68.867
68.2528
67.4286
66.3709
65.0354
63.3777
61.3244
58.7725
55.5539
74.9153
77.3961
79.6164
81.1302
82.1113
82.693
82.9991
83.0974
83.0831
83.0631
82.8341
82.3922
81.735
80.8498
79.7211
78.3101
76.5672
74.4086
71.732
68.399
89.9048
92.6996
95.2095
96.9382
98.0754
98.7671
99.1397
99.2635
99.2268
99.1892
99.0259
98.5673
97.8579
96.8904
95.6484
94.0904
92.1674
89.7972
86.8807
83.2619
107.483
110.728
113.655
115.693
117.06
117.919
118.403
118.582
118.593
118.588
118.418
117.916
117.134
116.06
114.674
112.93
110.775
108.117
104.845
100.783
128.173
131.997
135.463
137.903
139.57
140.645
141.265
141.528
141.644
141.748
141.501
140.954
140.098
138.911
137.363
135.403
132.967
129.954
126.233
121.606
152.502
157.04
161.174
164.121
166.168
167.523
168.335
168.709
168.888
169.058
168.841
168.285
167.37
166.065
164.336
162.127
159.365
155.934
151.682
146.374
181.02
186.421
191.372
194.948
197.483
199.209
200.29
200.829
201.091
201.308
201.138
200.606
199.642
198.213
196.283
193.794
190.659
186.748
181.877
175.774
214.298
220.732
226.664
231.01
234.154
236.364
237.831
238.672
239.047
239.163
239.066
238.666
237.667
236.109
233.963
231.163
227.61
223.152
217.576
210.559
252.912
260.567
267.667
272.941
276.833
279.651
281.613
282.872
283.55
283.749
283.67
283.29
282.237
280.543
278.168
275.034
271.021
265.956
259.586
251.533
297.405
306.488
314.96
321.338
326.13
329.684
332.247
333.981
335.021
335.447
335.462
335.16
334.093
332.289
329.694
326.215
321.713
315.988
308.742
299.534
348.233
358.971
369.041
376.721
382.588
387.036
390.338
392.666
394.153
394.895
395.123
394.972
393.95
392.077
389.285
385.466
380.46
374.034
365.843
355.372
405.683
418.321
430.228
439.427
446.569
452.097
456.317
459.41
461.506
462.684
463.202
463.269
462.371
460.49
457.546
453.414
447.909
440.763
431.579
419.759
469.759
484.557
498.544
509.49
518.124
524.943
530.286
534.354
537.272
539.097
539.995
540.255
539.647
537.844
534.821
530.429
524.458
516.604
506.41
493.192
542.17
559.258
575.469
588.26
598.449
606.594
613.082
618.141
621.909
624.44
625.848
626.402
626.002
624.296
621.249
616.647
610.251
601.708
590.493
575.827
624.775
644.339
662.96
677.737
689.587
699.145
706.853
712.972
717.667
720.999
723.031
723.965
723.837
722.3
719.318
714.593
707.845
698.665
686.442
670.28
719.357
741.577
762.785
779.683
793.304
804.366
813.376
820.639
826.346
830.576
833.36
834.808
835.035
833.791
831.008
826.295
819.317
809.594
796.417
778.75
827.603
852.616
876.545
895.664
911.135
923.774
934.161
942.65
949.465
954.706
958.403
960.593
961.313
960.449
957.995
953.504
946.489
936.401
922.412
903.327
951.034
978.886
1005.58
1026.94
1044.27
1058.51
1070.31
1080.08
1088.09
1094.45
1099.21
1102.34
1103.79
1103.5
1101.57
1097.59
1090.83
1080.68
1066.15
1045.88
1090.93
1121.5
1150.84
1174.32
1193.42
1209.17
1222.34
1233.39
1242.65
1250.24
1256.22
1260.54
1263.08
1263.66
1262.39
1259.3
1253.27
1243.5
1228.9
1207.87
1248.17
1281.11
1312.73
1337.99
1358.54
1375.56
1389.91
1402.15
1412.63
1421.52
1428.89
1434.66
1438.66
1440.62
1440.52
1438.59
1433.84
1425.16
1411.18
1390.1
1423.02
1457.6
1490.75
1517.12
1538.53
1556.32
1571.47
1584.61
1596.17
1606.37
1615.26
1622.8
1628.77
1632.88
1634.67
1634.15
1631.36
1624.69
1612.39
1592.36
1614.67
1649.63
1683.07
1709.41
1730.68
1748.39
1763.65
1777.18
1789.48
1800.83
1811.32
1820.91
1829.37
1836.37
1841.34
1843.62
1842.99
1839.38
1830.23
1812.84
1820.68
1854.1
1885.87
1910.44
1930.04
1946.35
1960.61
1973.67
1986.11
1998.26
2010.26
2022.09
2033.52
2044.18
2053.44
2060.51
2064.25
2064.18
2059.77
2047.35
2036.29
2065.33
2092.61
2112.89
2128.6
2141.6
2153.27
2164.58
2176.18
2188.5
2201.7
2215.81
2230.62
2245.75
2260.5
2274.04
2285.05
2291.95
2293.4
2288.35
2253.44
2274.2
2293.12
2305.66
2314.47
2321.55
2328.45
2336.24
2345.64
2357.12
2370.92
2387.13
2405.56
2425.86
2447.33
2469.1
2489.83
2507.77
2520.27
2524.75
2459.61
2467.07
2472.67
2473.08
2471.07
2468.86
2468.25
2470.31
2475.78
2485.05
2498.47
2516.26
2538.29
2564.25
2593.4
2625
2657.94
2690.39
2719.34
2740.97
2637.54
2624.8
2611.42
2594.5
2576.83
2561.05
2549.96
2542.72
2540.8
2545.13
2556.31
2574.64
2600.11
2632.62
2671.49
2715.61
2763.04
2813.41
2863.17
2908.05
2766.85
2725.72
2682.59
2639.87
2601.95
2571.48
2551.8
2536.96
2529.44
2529.72
2538.67
2556.6
2583.58
2619.65
2664.36
2716.68
2773.39
2841
2914.56
2990.02
2808.71
2735.31
2668.39
2604.29
2547.27
2497.81
2453.06
2423.08
2405.45
2398.48
2402.6
2418.54
2446.3
2486.38
2539.36
2606.58
2690.36
2778.19
2872.87
2972.41
2755.09
2643.44
2526.76
2427.79
2344.04
2274.81
2220.43
2180.41
2154.16
2140.76
2139.61
2151.96
2178.22
2219.34
2276.02
2349.26
2439.67
2547.41
2670.15
2805.78
2537.11
2381.2
2234.76
2110.44
2007.74
1925.18
1860.87
1813.07
1780.45
1762.05
1756.68
1765.2
1788.4
1827.81
1884.86
1961.48
2059.47
2180.61
2324.95
2490.4
2178.79
1989.61
1818.58
1678.02
1565.42
1477.27
1409.95
1360.34
1326.18
1306.05
1298.84
1304.95
1325.2
1361.74
1416.77
1493.4
1595.12
1725.81
1887.46
2078.47
1747.67
1535.14
1353.96
1209.48
1097.32
1012.58
950.053
904.965
874.3
856.29
849.951