/*--------------------------------*- C++ -*----------------------------------*\
  =========                 |
  \\      /  F ield         | OpenFOAM: The Open Source CFD Toolbox
   \\    /   O peration     | Website:  https://openfoam.org
    \\  /    A nd           | Version:  6
     \\/     M anipulation  |
\*---------------------------------------------------------------------------*/
FoamFile
{
    version     2.0;
    format      ascii;
    class       volScalarField;
    location    "23";
    object      k;
}
// * * * * * * * * * * * * * * * * * * * * * * * * * * * * * * * * * * * * * //

dimensions      [0 2 -2 0 0 0 0];

internalField   nonuniform List<scalar> 
130000
(
0.378962
0.376606
0.374006
0.371216
0.368249
0.365126
0.361881
0.358557
0.355201
0.351864
0.348595
0.345441
0.342444
0.339639
0.337053
0.334708
0.332617
0.330786
0.329215
0.327902
0.379266
0.376919
0.374325
0.371535
0.368561
0.365428
0.362169
0.358829
0.355456
0.352102
0.348817
0.345648
0.342637
0.33982
0.337224
0.334872
0.332775
0.33094
0.329368
0.328053
0.379566
0.377229
0.374639
0.371848
0.368866
0.365721
0.362447
0.359089
0.355697
0.352323
0.349019
0.345832
0.342805
0.339973
0.337365
0.335001
0.332895
0.331051
0.329472
0.328154
0.379832
0.377502
0.374914
0.372118
0.369128
0.36597
0.362681
0.359306
0.355896
0.352503
0.34918
0.345974
0.342927
0.340077
0.337452
0.335073
0.332951
0.331098
0.329512
0.328191
0.38004
0.377713
0.375124
0.372324
0.369326
0.366157
0.362854
0.359462
0.356031
0.352617
0.349272
0.346046
0.342979
0.340113
0.337476
0.335086
0.332956
0.331097
0.329508
0.328184
0.380194
0.377864
0.375271
0.372464
0.369457
0.366274
0.362952
0.359539
0.356087
0.352654
0.349293
0.346051
0.342973
0.340099
0.337456
0.335063
0.332934
0.331076
0.329488
0.328165
0.380303
0.377966
0.375363
0.372546
0.369523
0.36632
0.362979
0.359548
0.35608
0.352634
0.349263
0.346015
0.342935
0.340059
0.337414
0.335022
0.332895
0.331039
0.329454
0.328135
0.380385
0.378033
0.375416
0.372582
0.369539
0.366316
0.362959
0.359515
0.356039
0.352585
0.349208
0.345956
0.342874
0.339997
0.337353
0.334964
0.33284
0.330989
0.329409
0.328095
0.380449
0.37808
0.375444
0.37259
0.369527
0.366289
0.362918
0.359462
0.355976
0.352515
0.349132
0.345877
0.342794
0.339918
0.337278
0.334892
0.332774
0.330929
0.329356
0.328049
0.380508
0.378119
0.375463
0.372589
0.369507
0.366252
0.362865
0.359396
0.355899
0.352429
0.349041
0.345784
0.342701
0.339828
0.337192
0.334812
0.332701
0.330863
0.329297
0.327998
0.380569
0.378159
0.375481
0.372586
0.369483
0.366209
0.362805
0.359321
0.355813
0.352335
0.348942
0.345683
0.342601
0.33973
0.337099
0.334726
0.332622
0.330793
0.329236
0.327945
0.380635
0.378204
0.375503
0.372583
0.36946
0.366166
0.362744
0.359245
0.355725
0.352238
0.34884
0.345579
0.342498
0.33963
0.337004
0.334638
0.332542
0.330721
0.329174
0.327892
0.38071
0.378257
0.375532
0.372589
0.369445
0.366129
0.362687
0.359172
0.355638
0.352143
0.348739
0.345475
0.342395
0.33953
0.33691
0.33455
0.332463
0.330651
0.329112
0.32784
0.380794
0.378318
0.37557
0.372604
0.36944
0.3661
0.362638
0.359105
0.355557
0.352052
0.348642
0.345375
0.342295
0.339433
0.336818
0.334465
0.332386
0.330582
0.329053
0.32779
0.38089
0.378392
0.375619
0.372628
0.36944
0.366081
0.362597
0.359046
0.355484
0.351968
0.34855
0.34528
0.3422
0.339341
0.33673
0.334384
0.332312
0.330517
0.328996
0.327742
0.381002
0.378481
0.375683
0.372666
0.36945
0.366071
0.362566
0.358997
0.35542
0.351892
0.348467
0.345193
0.342111
0.339254
0.336648
0.334307
0.332243
0.330456
0.328944
0.327698
0.38113
0.378587
0.375764
0.372719
0.369477
0.366071
0.36255
0.358961
0.355367
0.351827
0.348393
0.345114
0.34203
0.339174
0.336571
0.334237
0.332179
0.330399
0.328895
0.327657
0.381277
0.37871
0.375861
0.372789
0.369519
0.366088
0.362545
0.358937
0.355326
0.351772
0.348329
0.345044
0.341957
0.339102
0.336502
0.334172
0.33212
0.330348
0.328851
0.32762
0.38144
0.37885
0.375975
0.372875
0.369576
0.366118
0.36255
0.358927
0.355297
0.351729
0.348275
0.344983
0.341893
0.339038
0.33644
0.334114
0.332068
0.330302
0.328811
0.327587
0.381622
0.37901
0.376108
0.372979
0.369652
0.366165
0.362571
0.358926
0.355282
0.351698
0.348232
0.344932
0.341839
0.338982
0.336385
0.334063
0.332021
0.330261
0.328777
0.327559
0.381824
0.37919
0.376261
0.373103
0.369745
0.366228
0.362606
0.358935
0.355276
0.351679
0.348201
0.344892
0.341793
0.338935
0.336339
0.334019
0.331982
0.330226
0.328748
0.327536
0.382047
0.37939
0.376434
0.373245
0.369855
0.366309
0.362657
0.358961
0.355278
0.351669
0.348179
0.344862
0.341757
0.338896
0.3363
0.333982
0.331948
0.330198
0.328725
0.327519
0.382287
0.379609
0.376625
0.373406
0.369984
0.366406
0.362725
0.359002
0.355297
0.351668
0.34817
0.344843
0.341732
0.338867
0.336269
0.333952
0.331921
0.330175
0.328707
0.327505
0.382549
0.37985
0.376838
0.373587
0.370133
0.366521
0.36281
0.359058
0.355329
0.351682
0.34817
0.344835
0.341717
0.338847
0.336247
0.33393
0.331901
0.330158
0.328694
0.327496
0.382833
0.380113
0.377073
0.37379
0.370301
0.366656
0.362912
0.359131
0.355375
0.351706
0.348177
0.344837
0.341712
0.338837
0.336234
0.333915
0.331886
0.330144
0.328682
0.327486
0.38314
0.380399
0.377331
0.374015
0.370491
0.36681
0.363032
0.35922
0.355437
0.351744
0.348196
0.344841
0.34171
0.338834
0.336229
0.333911
0.331881
0.330137
0.328673
0.327478
0.383469
0.380708
0.377612
0.374263
0.370703
0.366986
0.363172
0.359327
0.355515
0.351796
0.348226
0.344852
0.34171
0.338829
0.336224
0.333908
0.33188
0.330135
0.328674
0.32748
0.383825
0.381045
0.377921
0.374537
0.37094
0.367185
0.363335
0.359456
0.355612
0.351867
0.348274
0.34488
0.341723
0.33883
0.336219
0.333902
0.331877
0.330135
0.328674
0.327479
0.384207
0.381409
0.378257
0.37484
0.371205
0.367411
0.363523
0.359607
0.355732
0.351957
0.34834
0.344926
0.341752
0.338847
0.336228
0.333903
0.331876
0.330135
0.328673
0.327482
0.384618
0.381803
0.378624
0.375172
0.371499
0.367665
0.363738
0.359785
0.355875
0.352071
0.348428
0.344992
0.341801
0.338882
0.336252
0.33392
0.331886
0.330146
0.328688
0.327502
0.385059
0.382229
0.379024
0.375538
0.371825
0.367951
0.363982
0.359991
0.356046
0.352211
0.34854
0.345082
0.341873
0.33894
0.336299
0.33396
0.331921
0.330179
0.328721
0.327535
0.385534
0.382691
0.37946
0.375939
0.372187
0.368271
0.36426
0.360229
0.356248
0.352379
0.348681
0.345199
0.341971
0.339023
0.33637
0.334022
0.331978
0.330232
0.328772
0.327584
0.386044
0.383191
0.379935
0.37638
0.372588
0.368629
0.364575
0.360503
0.356482
0.35258
0.348852
0.345345
0.342096
0.339131
0.336467
0.334109
0.332057
0.330305
0.328841
0.327651
0.386595
0.383734
0.380454
0.376865
0.373032
0.369028
0.36493
0.360815
0.356755
0.352817
0.349057
0.345524
0.342253
0.33927
0.336591
0.334222
0.332162
0.330403
0.328933
0.327737
0.387189
0.384322
0.381021
0.377398
0.373524
0.369475
0.365331
0.361171
0.357069
0.353093
0.3493
0.345739
0.342444
0.339442
0.336746
0.334364
0.332294
0.330526
0.329049
0.327846
0.387832
0.384963
0.381641
0.377984
0.374068
0.369972
0.365781
0.361575
0.35743
0.353414
0.349586
0.345994
0.342674
0.33965
0.336938
0.334541
0.332459
0.330681
0.329195
0.327983
0.388528
0.38566
0.382319
0.378629
0.37467
0.370527
0.366287
0.362032
0.357841
0.353784
0.34992
0.346296
0.342948
0.339901
0.337169
0.334756
0.33266
0.330871
0.329374
0.328152
0.389282
0.386419
0.383061
0.379338
0.375336
0.371145
0.366854
0.362549
0.358311
0.35421
0.350306
0.346648
0.343271
0.340199
0.337445
0.335015
0.332903
0.331101
0.329591
0.328359
0.3901
0.387246
0.383874
0.380119
0.376074
0.371833
0.367489
0.363132
0.358844
0.354698
0.350752
0.347058
0.343649
0.34055
0.337773
0.335323
0.333194
0.331376
0.329853
0.328607
0.390989
0.38815
0.384765
0.380979
0.376891
0.372599
0.368201
0.36379
0.35945
0.355254
0.351265
0.347532
0.344089
0.34096
0.338159
0.335687
0.333539
0.331703
0.330164
0.328902
0.391956
0.389137
0.385744
0.381928
0.377796
0.373452
0.368998
0.36453
0.360135
0.355889
0.351854
0.348078
0.344599
0.341439
0.33861
0.336114
0.333944
0.332089
0.330531
0.329251
0.39301
0.390217
0.386819
0.382976
0.3788
0.374403
0.369891
0.365364
0.360912
0.356612
0.352528
0.348708
0.34519
0.341995
0.339136
0.336613
0.334419
0.332542
0.330963
0.329663
0.39416
0.391401
0.388003
0.384134
0.379915
0.375463
0.370892
0.366304
0.361792
0.357436
0.353299
0.349432
0.345872
0.34264
0.339747
0.337195
0.334974
0.333072
0.33147
0.330145
0.395417
0.392702
0.389309
0.385416
0.381154
0.376648
0.372016
0.367365
0.36279
0.358374
0.354182
0.350265
0.346659
0.343387
0.340458
0.337873
0.335623
0.333692
0.332062
0.330711
0.396792
0.394131
0.39075
0.386838
0.382535
0.377974
0.373279
0.368562
0.363922
0.359443
0.355193
0.351222
0.347568
0.344252
0.341284
0.338663
0.336379
0.334417
0.332756
0.331373
0.398301
0.395706
0.392345
0.388418
0.384076
0.37946
0.374701
0.369916
0.365208
0.360664
0.356352
0.352324
0.348618
0.345255
0.342244
0.339584
0.337263
0.335265
0.333568
0.332149
0.39996
0.397446
0.394114
0.390177
0.385799
0.381129
0.376305
0.371451
0.366672
0.362059
0.357682
0.353594
0.349833
0.346419
0.343361
0.340657
0.338294
0.336256
0.334519
0.333058
0.401787
0.399371
0.39608
0.392141
0.38773
0.383007
0.378118
0.373193
0.368342
0.363658
0.359212
0.355061
0.35124
0.347771
0.344663
0.34191
0.339501
0.337417
0.335635
0.334127
0.403805
0.401506
0.398269
0.394337
0.389898
0.385126
0.380173
0.375176
0.370251
0.365492
0.360976
0.356757
0.352873
0.349345
0.346181
0.343376
0.340916
0.33878
0.336945
0.335382
0.406039
0.40388
0.400715
0.3968
0.392341
0.387522
0.382507
0.377439
0.372438
0.367603
0.363013
0.358723
0.354773
0.351182
0.347958
0.345094
0.342577
0.340383
0.338488
0.336862
0.408515
0.406526
0.403452
0.39957
0.3951
0.390242
0.385167
0.380028
0.374951
0.370039
0.365373
0.36101
0.356988
0.35333
0.350041
0.347113
0.344531
0.342272
0.340309
0.33861
0.411269
0.409483
0.406527
0.402694
0.398227
0.393336
0.388208
0.383002
0.37785
0.37286
0.368116
0.363676
0.359581
0.355851
0.35249
0.349492
0.346839
0.344506
0.342463
0.340679
0.414339
0.412798
0.409989
0.40623
0.401781
0.396871
0.391698
0.386429
0.381205
0.376138
0.371315
0.366797
0.362625
0.358818
0.355381
0.352305
0.349572
0.347154
0.34502
0.343137
0.417769
0.416523
0.413902
0.410246
0.405838
0.400925
0.395717
0.390394
0.385104
0.379963
0.375063
0.370466
0.366213
0.362325
0.358806
0.355644
0.35282
0.350306
0.348066
0.346067
0.421614
0.420726
0.418341
0.414826
0.410489
0.405594
0.40037
0.395006
0.389658
0.384449
0.379474
0.374798
0.370464
0.366491
0.362882
0.359626
0.3567
0.354073
0.35171
0.349573
0.425944
0.425489
0.423401
0.420075
0.415846
0.411002
0.405785
0.400398
0.395006
0.38974
0.384697
0.379946
0.37553
0.371469
0.367764
0.364402
0.361359
0.358602
0.356093
0.35379
0.430838
0.430908
0.429196
0.426123
0.422055
0.417302
0.412127
0.406746
0.401333
0.396026
0.390928
0.386109
0.381614
0.377462
0.373653
0.370173
0.366995
0.364083
0.361397
0.358894
0.436412
0.437101
0.43587
0.433135
0.429299
0.424698
0.419616
0.414281
0.408883
0.403564
0.398432
0.39356
0.388993
0.38475
0.380831
0.377217
0.37388
0.370781
0.367878
0.365124
0.442789
0.444241
0.443617
0.441332
0.437824
0.43346
0.428544
0.423322
0.417993
0.412709
0.40758
0.402683
0.398062
0.393734
0.389697
0.38593
0.382401
0.37907
0.375891
0.372816
0.45012
0.452524
0.452681
0.451
0.44796
0.443957
0.439319
0.43431
0.429141
0.423969
0.41891
0.414038
0.409397
0.405
0.400843
0.396899
0.393135
0.389506
0.385966
0.382463
0.458599
0.462237
0.463372
0.462528
0.460158
0.456701
0.452513
0.447876
0.443011
0.438081
0.433202
0.428445
0.423849
0.419421
0.41515
0.411004
0.406944
0.402924
0.398894
0.394806
0.468491
0.473761
0.476181
0.476462
0.475048
0.472411
0.468933
0.464913
0.460581
0.456101
0.451585
0.447097
0.442663
0.43828
0.433923
0.429552
0.425121
0.420578
0.415875
0.410965
0.480147
0.487561
0.491752
0.493514
0.493489
0.492076
0.489693
0.486656
0.4832
0.479488
0.47562
0.471642
0.467563
0.463356
0.458982
0.454381
0.449497
0.444268
0.438646
0.432588
0.494078
0.504295
0.510988
0.514804
0.516639
0.517021
0.516264
0.514712
0.512608
0.510101
0.507274
0.504146
0.500697
0.496873
0.492607
0.487814
0.482416
0.476335
0.469515
0.46191
0.510953
0.524893
0.534948
0.5418
0.546198
0.548901
0.550453
0.550988
0.550803
0.55001
0.548673
0.546789
0.544305
0.541126
0.537154
0.532268
0.526363
0.519329
0.511083
0.501555
0.531643
0.550529
0.565049
0.575897
0.583935
0.589876
0.594205
0.597351
0.599709
0.601101
0.601652
0.601362
0.600138
0.597853
0.594375
0.589552
0.583242
0.575287
0.565552
0.553905
0.557233
0.582564
0.602858
0.618811
0.631395
0.641394
0.649388
0.655787
0.660828
0.664578
0.667192
0.668753
0.668956
0.667719
0.664888
0.660287
0.653739
0.645032
0.633958
0.620279
0.589006
0.622492
0.649942
0.672072
0.690012
0.70468
0.716747
0.726675
0.734746
0.741115
0.745852
0.748964
0.75057
0.750433
0.7483
0.744021
0.737393
0.728153
0.716012
0.700609
0.628374
0.671784
0.707668
0.736846
0.760706
0.780376
0.79668
0.810193
0.821289
0.830196
0.83703
0.841829
0.844622
0.845383
0.843874
0.839941
0.833331
0.823733
0.810778
0.793989
0.67675
0.73171
0.777031
0.813823
0.843881
0.868644
0.889156
0.906154
0.920131
0.931407
0.940167
0.946504
0.950451
0.951993
0.951035
0.947465
0.940934
0.931077
0.917468
0.899531
0.735412
0.803209
0.858609
0.903282
0.939602
0.969406
0.994016
1.01436
1.03107
1.04457
1.05513
1.06288
1.0679
1.07017
1.0697
1.06647
1.06004
1.04997
1.03578
1.01681
0.805366
0.886847
0.952628
1.00524
1.04777
1.08253
1.11112
1.1347
1.15403
1.16966
1.18191
1.19101
1.19704
1.2
1.19998
1.19706
1.19073
1.18045
1.1657
1.14576
0.887285
0.982857
1.05907
1.11957
1.16823
1.20783
1.24032
1.26704
1.28891
1.30658
1.32047
1.33084
1.33785
1.34149
1.34187
1.33922
1.33299
1.32251
1.30723
1.28636
0.98149
1.0912
1.17774
1.246
1.30067
1.34503
1.3813
1.41104
1.43534
1.45495
1.47038
1.48197
1.48992
1.49431
1.4951
1.49254
1.48638
1.47574
1.45998
1.43825
1.08799
1.21161
1.30824
1.38406
1.44456
1.49347
1.53333
1.5659
1.59243
1.61379
1.63059
1.64324
1.65199
1.65696
1.65811
1.65574
1.64968
1.63894
1.62283
1.60043
1.2065
1.34354
1.44987
1.5329
1.59887
1.65198
1.69506
1.73009
1.75848
1.78124
1.79909
1.81253
1.82188
1.82727
1.82871
1.82652
1.82058
1.80985
1.79359
1.77081
1.33641
1.4861
1.60145
1.69105
1.76187
1.81852
1.86416
1.90099
1.93061
1.95418
1.97254
1.9863
1.99585
2.00139
2.00295
2.00091
1.99514
1.98461
1.96851
1.94583
1.47673
1.63784
1.76113
1.85624
1.93083
1.98995
2.03706
2.07464
2.10447
2.12789
2.1459
2.15923
2.16836
2.17359
2.175
2.173
2.16745
2.15734
2.14185
2.11993
1.62595
1.79665
1.92615
2.02509
2.10176
2.16165
2.20857
2.24526
2.27376
2.2956
2.31197
2.32374
2.33152
2.33572
2.33652
2.33437
2.32904
2.31961
2.3053
2.28503
1.78189
1.95949
2.09263
2.19288
2.26911
2.32728
2.37157
2.40502
2.42994
2.44815
2.46103
2.46965
2.47472
2.47674
2.47622
2.47359
2.46837
2.45992
2.44749
2.43001
1.94156
2.12228
2.2554
2.35333
2.42556
2.47849
2.51673
2.54369
2.56196
2.57366
2.5806
2.58401
2.58465
2.58319
2.58031
2.5762
2.5707
2.56343
2.55368
2.54037
2.10111
2.27978
2.40785
2.49851
2.56184
2.60477
2.63241
2.64875
2.65624
2.65733
2.65382
2.64751
2.63992
2.63211
2.62474
2.618
2.61182
2.606
2.59992
2.59272
2.25574
2.4256
2.54194
2.6188
2.66691
2.69354
2.70359
2.70148
2.692
2.67863
2.66478
2.64934
2.63413
2.62025
2.60841
2.59883
2.59162
2.5867
2.5836
2.58158
2.39991
2.55235
2.6484
2.70301
2.72624
2.72764
2.71628
2.69526
2.66835
2.63778
2.6043
2.57346
2.54559
2.52133
2.50119
2.48601
2.47614
2.47182
2.47293
2.47829
2.52752
2.65204
2.71726
2.73753
2.73021
2.70179
2.6579
2.60713
2.55318
2.49951
2.44846
2.40177
2.36051
2.32541
2.29692
2.27561
2.26195
2.25661
2.25867
2.267
2.63225
2.7162
2.73684
2.71601
2.66247
2.59092
2.50966
2.42542
2.34304
2.26586
2.19583
2.13393
2.08045
2.03546
1.99884
1.97078
1.95164
1.94235
1.94225
1.9499
2.7069
2.73405
2.6987
2.61832
2.51033
2.38888
2.26477
2.14577
2.03666
1.93991
1.85606
1.78458
1.72427
1.67394
1.63248
1.59937
1.57455
1.55857
1.55247
1.55533
2.74593
2.70741
2.59546
2.44214
2.26856
2.09241
1.92657
1.77897
1.65286
1.54818
1.46259
1.39296
1.336
1.28899
1.24976
1.21716
1.19081
1.17114
1.15928
1.15601
2.74561
2.61584
2.41603
2.18052
1.93893
1.71408
1.52004
1.36229
1.2395
1.1464
1.07626
1.02284
0.981028
0.947303
0.919397
0.896283
0.878298
0.868314
0.864282
0.876085
2.69372
2.46083
2.16039
1.84162
1.5452
1.29669
1.10564
0.968553
0.874991
0.812663
0.770856
0.741914
0.720931
0.705604
0.696022
0.691017
0.690873
0.698083
0.720385
0.779456
2.58002
2.22929
1.8287
1.44955
1.14376
0.922988
0.77838
0.68927
0.637337
0.607521
0.590234
0.580334
0.575078
0.57315
0.574246
0.578735
0.588964
0.615495
0.685093
0.799421
2.37833
1.90398
1.43398
1.05762
0.804814
0.656602
0.579604
0.540466
0.519401
0.507711
0.501493
0.498665
0.498231
0.499772
0.503736
0.512782
0.534707
0.593102
0.712857
0.936392
2.04602
1.47364
1.00838
0.716281
0.57646
0.515365
0.485645
0.469302
0.459886
0.454369
0.451285
0.449968
0.450299
0.452581
0.458478
0.472252
0.506956
0.601027
0.811239
1.16189
1.5564
0.977989
0.658963
0.53391
0.481887
0.456115
0.441504
0.432313
0.426032
0.421618
0.418718
0.417283
0.417661
0.420592
0.428401
0.447024
0.49498
0.628101
0.939697
1.37749
1.10635
0.708268
0.539308
0.472895
0.44288
0.42683
0.416541
0.409121
0.403524
0.399348
0.396549
0.395261
0.396066
0.399802
0.409062
0.430643
0.486339
0.643335
0.998996
1.51471
1.02699
0.659562
0.501615
0.445311
0.421065
0.407706
0.399003
0.39276
0.388094
0.384745
0.382714
0.382098
0.383351
0.387445
0.396708
0.417505
0.470179
0.617833
0.993173
1.57228
1.11769
0.661267
0.483927
0.427709
0.40502
0.393542
0.386697
0.382188
0.379251
0.377361
0.37632
0.376132
0.377223
0.380496
0.38795
0.404313
0.444709
0.561653
0.906403
1.575
1.28048
0.673596
0.470469
0.413367
0.393047
0.384035
0.379337
0.376823
0.375387
0.374518
0.374057
0.374022
0.374697
0.37667
0.381687
0.393271
0.421707
0.504472
0.779876
1.46983
1.25188
0.60906
0.440264
0.397298
0.383309
0.378018
0.375879
0.374882
0.374312
0.37388
0.37365
0.373642
0.374029
0.375002
0.377359
0.383318
0.398491
0.444095
0.615596
1.1869
0.780217
0.452506
0.392808
0.38008
0.376648
0.375448
0.37493
0.374621
0.374436
0.374354
0.374312
0.374289
0.374321
0.374499
0.374975
0.375949
0.379947
0.394947
0.459735
0.751346
0.324972
0.324471
0.323911
0.323373
0.322863
0.322388
0.321953
0.321565
0.321228
0.320945
0.320722
0.32056
0.320461
0.320424
0.320449
0.320537
0.320684
0.320891
0.321156
0.321476
0.325193
0.324685
0.324123
0.323581
0.323067
0.322588
0.322149
0.321756
0.321414
0.321127
0.3209
0.320733
0.32063
0.32059
0.320612
0.320696
0.320841
0.321046
0.321309
0.321629
0.325365
0.324853
0.324287
0.323742
0.323224
0.322741
0.322298
0.3219
0.321553
0.321262
0.321029
0.320858
0.32075
0.320706
0.320723
0.320804
0.320946
0.321148
0.321409
0.321727
0.325505
0.32499
0.324422
0.323873
0.323352
0.322866
0.322419
0.322018
0.321668
0.321373
0.321137
0.320961
0.32085
0.320801
0.320814
0.320891
0.32103
0.321229
0.321488
0.321804
0.325623
0.325106
0.324534
0.323983
0.32346
0.322972
0.322523
0.322121
0.321768
0.321471
0.321232
0.321053
0.320938
0.320886
0.320895
0.320969
0.321104
0.321301
0.321558
0.321872
0.325728
0.325208
0.324634
0.324081
0.323556
0.323066
0.322616
0.322212
0.321858
0.32156
0.321319
0.321138
0.32102
0.320964
0.32097
0.321041
0.321174
0.321369
0.321624
0.321938
0.325827
0.325304
0.324727
0.324172
0.323645
0.323153
0.322701
0.322295
0.32194
0.321639
0.321397
0.321214
0.321093
0.321034
0.321038
0.321107
0.321239
0.321433
0.321688
0.322001
0.325925
0.325399
0.32482
0.324262
0.323732
0.323238
0.322784
0.322375
0.322015
0.32171
0.321464
0.321279
0.321157
0.321098
0.321103
0.321172
0.321305
0.321499
0.321752
0.322063
0.326023
0.325496
0.324915
0.324354
0.323823
0.323329
0.322873
0.32246
0.322092
0.32178
0.321529
0.321343
0.321222
0.321166
0.321173
0.321244
0.321378
0.321572
0.321823
0.32213
0.326103
0.325577
0.324999
0.324438
0.323904
0.323404
0.322943
0.322523
0.322155
0.321847
0.321602
0.32142
0.321302
0.321246
0.321252
0.321321
0.321453
0.321645
0.321897
0.322205
0.326129
0.325606
0.325036
0.324477
0.323934
0.323427
0.322966
0.322542
0.322179
0.321885
0.321648
0.32147
0.321353
0.321294
0.321293
0.321356
0.321487
0.321682
0.321935
0.32224
0.326126
0.325607
0.325044
0.324484
0.323937
0.323426
0.322971
0.322549
0.322183
0.321895
0.32166
0.321483
0.321365
0.321299
0.321295
0.321361
0.321497
0.321702
0.321956
0.322252
0.326137
0.325612
0.325041
0.324483
0.32394
0.323434
0.322977
0.322558
0.322182
0.321885
0.321647
0.32147
0.321353
0.32129
0.321295
0.321367
0.321508
0.32172
0.321974
0.322271
0.326165
0.325629
0.325042
0.32448
0.323934
0.323433
0.322969
0.32255
0.322179
0.321877
0.321641
0.32147
0.321362
0.32131
0.321314
0.321383
0.321518
0.321721
0.321975
0.322283
0.326222
0.325677
0.325079
0.324502
0.323955
0.323444
0.322977
0.32256
0.3222
0.3219
0.321665
0.321495
0.321387
0.321335
0.32134
0.321407
0.321537
0.321728
0.321979
0.322289
0.326303
0.325749
0.325144
0.324561
0.324008
0.323493
0.323023
0.322603
0.322241
0.321938
0.321699
0.321524
0.321413
0.321362
0.321372
0.321442
0.321574
0.321763
0.32201
0.322311
0.326401
0.32584
0.325227
0.324637
0.324078
0.323558
0.323084
0.322662
0.322297
0.321992
0.321751
0.321574
0.321462
0.321412
0.321422
0.321494
0.321626
0.321815
0.322061
0.32236
0.326516
0.325946
0.325326
0.324728
0.324162
0.323636
0.323156
0.32273
0.322363
0.322058
0.321817
0.32164
0.321527
0.321476
0.321485
0.321557
0.321689
0.321879
0.322125
0.322423
0.326648
0.326071
0.325442
0.324835
0.324261
0.323726
0.32324
0.322808
0.322437
0.322128
0.321885
0.321707
0.321595
0.321545
0.321556
0.321629
0.321764
0.321955
0.322202
0.322499
0.326802
0.326217
0.32558
0.324965
0.324382
0.323839
0.323345
0.322906
0.322528
0.322215
0.321968
0.321789
0.321678
0.321631
0.321646
0.321723
0.321861
0.322054
0.322301
0.322597
0.326979
0.326387
0.325744
0.325121
0.324531
0.323981
0.32348
0.323035
0.322651
0.322333
0.322084
0.321904
0.321794
0.32175
0.321768
0.321848
0.321988
0.322182
0.322428
0.322722
0.32718
0.326583
0.325935
0.325307
0.324711
0.324155
0.323649
0.323199
0.322812
0.322491
0.32224
0.32206
0.32195
0.321907
0.321926
0.322008
0.322148
0.322342
0.322586
0.322876
0.327406
0.326806
0.326154
0.325521
0.32492
0.32436
0.32385
0.323397
0.323007
0.322684
0.322432
0.322251
0.322142
0.322098
0.322118
0.3222
0.322339
0.322531
0.322772
0.323057
0.327659
0.327055
0.3264
0.325764
0.325159
0.324595
0.324082
0.323626
0.323234
0.32291
0.322657
0.322475
0.322365
0.322322
0.322341
0.322421
0.322559
0.322748
0.322985
0.323265
0.32794
0.327333
0.326676
0.326036
0.325428
0.324861
0.324345
0.323886
0.323492
0.323166
0.322912
0.32273
0.322619
0.322575
0.322593
0.322672
0.322807
0.322993
0.323225
0.323498
0.328254
0.327645
0.326985
0.326343
0.325732
0.325161
0.324642
0.32418
0.323784
0.323456
0.323201
0.323018
0.322907
0.322861
0.322878
0.322955
0.323087
0.323269
0.323496
0.323761
0.328606
0.327995
0.327334
0.326689
0.326074
0.3255
0.324978
0.324513
0.324115
0.323785
0.323529
0.323345
0.323232
0.323186
0.323201
0.323275
0.323404
0.323581
0.323801
0.324058
0.329003
0.328391
0.327728
0.327081
0.326463
0.325886
0.325361
0.324893
0.324492
0.324161
0.323903
0.323717
0.323604
0.323556
0.323569
0.323641
0.323765
0.323936
0.324149
0.324395
0.329451
0.328839
0.328176
0.327527
0.326907
0.326327
0.325798
0.325328
0.324924
0.324591
0.324331
0.324144
0.324029
0.323979
0.32399
0.324058
0.324178
0.324342
0.324545
0.32478
0.329959
0.329348
0.328686
0.328036
0.327414
0.326831
0.326299
0.325826
0.32542
0.325084
0.324823
0.324634
0.324517
0.324465
0.324473
0.324536
0.32465
0.324807
0.324999
0.325221
0.330536
0.329927
0.329267
0.328617
0.327993
0.327408
0.326873
0.326397
0.325989
0.325651
0.325387
0.325196
0.325076
0.325022
0.325026
0.325085
0.325191
0.325338
0.325519
0.325725
0.331192
0.330587
0.32993
0.329281
0.328656
0.328069
0.327532
0.327054
0.326642
0.326302
0.326035
0.325842
0.32572
0.325661
0.325661
0.325714
0.325812
0.325948
0.326114
0.326302
0.331938
0.331339
0.330688
0.330041
0.329416
0.328827
0.328288
0.327807
0.327393
0.32705
0.326781
0.326584
0.326458
0.326396
0.32639
0.326435
0.326524
0.326647
0.326797
0.326964
0.33279
0.332198
0.331554
0.330911
0.330288
0.329699
0.329158
0.328674
0.328258
0.327912
0.327639
0.327439
0.327309
0.327242
0.32723
0.327266
0.327343
0.327451
0.327581
0.327724
0.333762
0.333182
0.332548
0.331911
0.33129
0.330701
0.330159
0.329674
0.329254
0.328905
0.328629
0.328425
0.32829
0.328217
0.328197
0.328222
0.328285
0.328375
0.328482
0.328597
0.334875
0.33431
0.33369
0.333061
0.332445
0.331858
0.331315
0.330828
0.330407
0.330054
0.329774
0.329565
0.329424
0.329343
0.329313
0.329326
0.329372
0.329441
0.329522
0.329604
0.336153
0.335607
0.335004
0.334387
0.333778
0.333194
0.332653
0.332165
0.331741
0.331385
0.331101
0.330886
0.330737
0.330646
0.330605
0.330602
0.330629
0.330673
0.330723
0.330766
0.337624
0.337102
0.336523
0.335921
0.335322
0.334744
0.334205
0.333717
0.333291
0.332931
0.332642
0.33242
0.332262
0.33216
0.332105
0.332084
0.332088
0.332102
0.332115
0.332112
0.339322
0.33883
0.33828
0.337699
0.337114
0.336544
0.336009
0.335523
0.335095
0.334733
0.334438
0.334208
0.334039
0.333923
0.33385
0.333807
0.333783
0.333762
0.333731
0.333674
0.341286
0.340834
0.340321
0.339768
0.339201
0.338643
0.338115
0.337631
0.337203
0.336837
0.336536
0.336297
0.336115
0.335983
0.335888
0.335818
0.335759
0.335696
0.335612
0.335491
0.343564
0.343163
0.342698
0.34218
0.341638
0.341097
0.340579
0.3401
0.339673
0.339304
0.338995
0.338745
0.338548
0.338394
0.338273
0.338169
0.338068
0.337954
0.337807
0.33761
0.346218
0.345881
0.345477
0.345005
0.344496
0.343979
0.343476
0.343005
0.34258
0.342207
0.34189
0.341626
0.341409
0.34123
0.341075
0.34093
0.340777
0.3406
0.340377
0.340089
0.34932
0.349066
0.348742
0.34833
0.347867
0.347381
0.3469
0.346441
0.346019
0.345643
0.345315
0.345034
0.344792
0.344579
0.344382
0.344183
0.343966
0.34371
0.343393
0.342993
0.352968
0.352825
0.352607
0.352278
0.351877
0.351437
0.350986
0.350545
0.35013
0.34975
0.349408
0.349102
0.348826
0.348568
0.348313
0.348045
0.347743
0.347387
0.346953
0.346415
0.357293
0.357307
0.357237
0.357026
0.356716
0.356343
0.355938
0.355524
0.355119
0.354733
0.35437
0.354029
0.353702
0.353379
0.353044
0.352679
0.352262
0.351773
0.351185
0.350468
0.362532
0.362761
0.362901
0.362864
0.362692
0.362422
0.36209
0.361719
0.36133
0.360934
0.360538
0.36014
0.359734
0.35931
0.358852
0.358343
0.357761
0.357083
0.356282
0.355327
0.369045
0.369585
0.370031
0.370276
0.370325
0.370223
0.37001
0.369711
0.369349
0.368937
0.368484
0.36799
0.367451
0.366861
0.366204
0.365466
0.364626
0.363663
0.36255
0.361254
0.377428
0.378487
0.379453
0.380095
0.380514
0.380687
0.380676
0.380502
0.380187
0.379748
0.379197
0.378538
0.377772
0.376897
0.375904
0.374785
0.373524
0.372105
0.370502
0.368687
0.388666
0.390597
0.392441
0.393802
0.394721
0.395319
0.395664
0.395702
0.395471
0.394991
0.394279
0.393346
0.392199
0.390846
0.38929
0.387533
0.385571
0.3834
0.381003
0.37836
0.404309
0.407652
0.4109
0.413426
0.415265
0.416478
0.417202
0.417578
0.417486
0.416959
0.416015
0.414667
0.412934
0.410834
0.408387
0.405612
0.402524
0.399138
0.395459
0.391485
0.426551
0.431992
0.437268
0.441436
0.444542
0.446671
0.447928
0.448533
0.448687
0.448142
0.446923
0.445044
0.442536
0.439422
0.435737
0.431508
0.426776
0.421574
0.415941
0.409903
0.457878
0.466022
0.473785
0.479881
0.484411
0.48753
0.489394
0.490251
0.490512
0.490085
0.488629
0.486222
0.482902
0.478681
0.473586
0.467631
0.460856
0.453297
0.445014
0.436069
0.500133
0.511121
0.521331
0.529202
0.534972
0.538913
0.541288
0.542438
0.542818
0.542461
0.540849
0.538059
0.534116
0.528991
0.522675
0.515124
0.506331
0.496278
0.484996
0.47253
0.55352
0.566874
0.578968
0.588101
0.594705
0.599191
0.601903
0.603232
0.603745
0.603491
0.601843
0.598882
0.594614
0.588973
0.581896
0.573256
0.562958
0.550858
0.536873
0.520927
0.616722
0.631736
0.645139
0.655165
0.662404
0.667346
0.670384
0.671915
0.672549
0.67242
0.670788
0.66774
0.663273
0.657308
0.649762
0.640461
0.62923
0.615796
0.599889
0.581191
0.688423
0.704829
0.719462
0.730406
0.738345
0.743813
0.747231
0.749007
0.749814
0.749837
0.748237
0.745115
0.740461
0.734191
0.72621
0.71633
0.704342
0.689907
0.672643
0.651999
0.768595
0.786597
0.802698
0.814789
0.823623
0.829767
0.833665
0.835751
0.836786
0.836995
0.835451
0.83225
0.827373
0.820735
0.812233
0.801675
0.788836
0.773349
0.75477
0.732423
0.858208
0.878166
0.896076
0.909606
0.919574
0.926585
0.931086
0.933559
0.934908
0.935319
0.933855
0.930566
0.925423
0.918339
0.909207
0.89783
0.883965
0.867226
0.847117
0.822883
0.958611
0.980931
1.00102
1.0163
1.02767
1.03579
1.04113
1.04413
1.04575
1.04635
1.04499
1.04162
1.03617
1.02857
1.0187
1.00636
0.991279
0.973048
0.951118
0.92466
1.07131
1.09642
1.11908
1.13645
1.14949
1.15894
1.1653
1.16898
1.17075
1.17141
1.1705
1.16709
1.16132
1.15314
1.14243
1.12898
1.11249
1.09253
1.06847
1.03941
1.19796
1.22631
1.25197
1.27177
1.2868
1.29783
1.30545
1.31006
1.31235
1.31327
1.31249
1.30896
1.3028
1.29396
1.28231
1.2676
1.24952
1.22758
1.20108
1.16903
1.34035
1.37244
1.40156
1.4242
1.44154
1.45443
1.46353
1.46924
1.4722
1.47345
1.47287
1.46924
1.4627
1.45316
1.44047
1.42437
1.4045
1.38032
1.35107
1.31562
1.50046
1.53684
1.56994
1.59585
1.61587
1.63094
1.64177
1.64879
1.65258
1.65426
1.65394
1.65027
1.64336
1.63308
1.61928
1.60165
1.5798
1.55313
1.52078
1.48149
1.68045
1.72171
1.75936
1.78903
1.81215
1.82974
1.84257
1.85113
1.85592
1.85813
1.85815
1.85456
1.84733
1.83632
1.82133
1.80204
1.77801
1.74858
1.71279
1.66922
1.88265
1.92944
1.97226
2.00622
2.0329
2.05341
2.06859
2.07894
2.08493
2.0876
2.08797
2.08487
2.07742
2.06566
2.04941
2.02833
2.00193
1.96947
1.92987
1.88155
2.10954
2.16255
2.2112
2.25003
2.28078
2.30466
2.3226
2.33517
2.34284
2.34656
2.34734
2.34439
2.33662
2.32405
2.30645
2.28345
2.25448
2.21872
2.17496
2.12142
2.36372
2.42368
2.47884
2.52315
2.55848
2.5862
2.60733
2.62251
2.63221
2.63718
2.63856
2.63582
2.62777
2.61438
2.59539
2.57037
2.53867
2.49937
2.45111
2.39188
2.64858
2.71615
2.77847
2.82879
2.86917
2.90111
2.92574
2.94379
2.95575
2.96222
2.9644
2.962
2.95374
2.93957
2.91917
2.89205
2.85748
2.81442
2.76133
2.69599
2.96802
3.04385
3.11391
3.17074
3.21657
3.25307