/*--------------------------------*- C++ -*----------------------------------*\
  =========                 |
  \\      /  F ield         | OpenFOAM: The Open Source CFD Toolbox
   \\    /   O peration     | Website:  https://openfoam.org
    \\  /    A nd           | Version:  6
     \\/     M anipulation  |
\*---------------------------------------------------------------------------*/
FoamFile
{
    version     2.0;
    format      ascii;
    class       volScalarField;
    location    "23";
    object      k;
}
// * * * * * * * * * * * * * * * * * * * * * * * * * * * * * * * * * * * * * //

dimensions      [0 2 -2 0 0 0 0];

internalField   nonuniform List<scalar> 
10000
(
0.207108
0.526209
0.479767
0.419524
0.370908
0.338586
0.319598
0.309645
0.305178
0.304161
0.305416
0.308624
0.31512
0.326701
0.346318
0.377843
0.424017
0.480495
0.524559
0.206763
0.206916
0.52612
0.479882
0.419099
0.370896
0.338943
0.320077
0.310174
0.305642
0.304711
0.307116
0.309222
0.315566
0.327082
0.34653
0.377695
0.423813
0.480024
0.523925
0.206274
0.207012
0.526261
0.480123
0.420354
0.371633
0.339208
0.320394
0.310467
0.305757
0.304673
0.305809
0.309251
0.315811
0.327277
0.347007
0.377838
0.423696
0.479158
0.523952
0.206433
0.206943
0.526273
0.48021
0.420409
0.371402
0.339673
0.320824
0.312087
0.306412
0.304918
0.306004
0.310611
0.317294
0.328269
0.346742
0.377673
0.423641
0.479465
0.524119
0.206582
0.206857
0.526064
0.479115
0.419589
0.37202
0.33985
0.320955
0.312285
0.307915
0.306572
0.306267
0.309463
0.316314
0.327553
0.346735
0.377936
0.422879
0.479456
0.524246
0.206648
0.206769
0.526092
0.480292
0.420894
0.371776
0.33996
0.321099
0.312098
0.306935
0.305416
0.306274
0.309406
0.316725
0.327671
0.346806
0.378041
0.423822
0.479919
0.524319
0.206677
0.206537
0.525887
0.48021
0.421137
0.372475
0.340262
0.321169
0.311402
0.307077
0.305625
0.306232
0.30954
0.317358
0.328015
0.347155
0.377955
0.423828
0.47916
0.524341
0.206676
0.206861
0.525782
0.479019
0.420861
0.37258
0.340509
0.321531
0.31174
0.307583
0.307473
0.306904
0.309528
0.316106
0.328711
0.346741
0.377697
0.423677
0.480021
0.524299
0.20645
0.206603
0.52536
0.479354
0.420794
0.372639
0.340739
0.32183
0.312057
0.307812
0.307498
0.308479
0.310058
0.315895
0.327587
0.346706
0.377682
0.423724
0.481395
0.525013
0.206808
0.206982
0.525753
0.479807
0.420447
0.372821
0.341138
0.322933
0.313482
0.3083
0.307127
0.308427
0.31136
0.31687
0.326899
0.346283
0.377517
0.42333
0.481539
0.525029
0.206937
0.207098
0.525579
0.479929
0.41946
0.3728
0.341261
0.322369
0.312649
0.308504
0.308299
0.307727
0.31042
0.315883
0.32682
0.346646
0.377449
0.422379
0.481454
0.525087
0.207109
0.207504
0.526708
0.480016
0.421047
0.37299
0.341555
0.322652
0.312879
0.309561
0.307228
0.307725
0.311452
0.316135
0.32688
0.346404
0.377812
0.423256
0.481864
0.525371
0.207351
0.207352
0.526725
0.479869
0.422241
0.372995
0.34207
0.323626
0.313057
0.308653
0.307508
0.307898
0.310159
0.315869
0.32693
0.346546
0.378171
0.423897
0.481798
0.525528
0.20747
0.207798
0.527128
0.481451
0.422579
0.374006
0.342301
0.323059
0.313092
0.308758
0.308885
0.309615
0.310896
0.317156
0.327341
0.347087
0.378279
0.424484
0.481661
0.524955
0.207158
0.207803
0.526894
0.481917
0.422696
0.374634
0.342424
0.323374
0.313514
0.308895
0.307293
0.308062
0.311726
0.31658
0.327415
0.346867
0.377839
0.423488
0.481336
0.525313
0.207376
0.207834
0.526876
0.481541
0.421541
0.374051
0.342098
0.323363
0.314629
0.310289
0.307844
0.30918
0.311891
0.316837
0.328317
0.346807
0.378169
0.424046
0.480772
0.525408
0.207395
0.207836
0.526735
0.480831
0.421804
0.374323
0.342141
0.323752
0.312902
0.30836
0.308215
0.308026
0.311732
0.317748
0.328173
0.346819
0.377989
0.424754
0.481228
0.525077
0.207168
0.207857
0.527054
0.481364
0.421869
0.374295
0.342191
0.323087
0.312895
0.308167
0.306507
0.307793
0.310967
0.317003
0.32786
0.346904
0.378213
0.424819
0.481611
0.525367
0.207408
0.208144
0.527579
0.482056
0.4227
0.37422
0.342301
0.32326
0.313025
0.308393
0.306877
0.308066
0.312183
0.318192
0.328147
0.347149
0.378111
0.424494
0.480647
0.525063
0.207164
0.208053
0.527477
0.482006
0.422695
0.374512
0.342879
0.324406
0.313537
0.309016
0.30735
0.309071
0.311017
0.317081
0.328327
0.346941
0.378001
0.424245
0.480692
0.525324
0.207287
0.207896
0.52725
0.480802
0.422229
0.374284
0.342427
0.323947
0.313868
0.310431
0.307369
0.308864
0.311946
0.318348
0.328347
0.347265
0.377731
0.423163
0.480074
0.524716
0.206967
0.207379
0.526618
0.480959
0.421973
0.374091
0.342436
0.323359
0.314383
0.309099
0.30694
0.307497
0.310516
0.317611
0.328922
0.346753
0.377504
0.423047
0.479966
0.524933
0.206929
0.207348
0.526389
0.480081
0.420987
0.373595
0.341756
0.323151
0.314366
0.310508
0.307009
0.307353
0.310433
0.31668
0.327881
0.345779
0.376989
0.422743
0.479467
0.524811
0.206799
0.207272
0.525922
0.479657
0.420948
0.373485
0.341763
0.323134
0.313313
0.309527
0.306902
0.307372
0.311548
0.31754
0.327536
0.345376
0.376639
0.422234
0.478852
0.524487
0.206626
0.207158
0.525612
0.478623
0.420544
0.37325
0.341948
0.323733
0.313645
0.308289
0.306664
0.306874
0.30992
0.31567
0.326367
0.344946
0.375951
0.420881
0.478191
0.524305
0.206565
0.207015
0.525327
0.47819
0.419665
0.372918
0.341598
0.322354
0.312469
0.308245
0.308163
0.307197
0.311144
0.316677
0.325932
0.344674
0.375373
0.420047
0.477126
0.523606
0.206282
0.206787
0.524838
0.477723
0.419165
0.372497
0.34114
0.322427
0.313565
0.30923
0.307133
0.306835
0.30958
0.315171
0.32568
0.344583
0.374813
0.41922
0.476482
0.523188
0.206002
0.206653
0.524642
0.477269
0.418605
0.372192
0.340808
0.322402
0.312445
0.307817
0.308156
0.307405
0.31039
0.315881
0.326285
0.345021
0.374045
0.418234
0.475609
0.52289
0.205724
0.206438
0.524375
0.476533
0.418002
0.371868
0.340885
0.323526
0.313253
0.307698
0.306967
0.306212
0.308563
0.3137
0.32413
0.343423
0.372984
0.417167
0.474835
0.522559
0.205464
0.206204
0.524012
0.4762
0.417778
0.371541
0.340813
0.322976
0.313394
0.307497
0.305779
0.306167
0.309919
0.313929
0.323987
0.342587
0.372335
0.416525
0.474298
0.522087
0.205079
0.205912
0.523606
0.475545
0.417114
0.37122
0.34121
0.323893
0.312652
0.307663
0.306191
0.306342
0.309616
0.313909
0.323874
0.341619
0.371642
0.415793
0.473483
0.521571
0.204747
0.205399
0.522812
0.474633
0.416332
0.370632
0.340115
0.322685
0.313269
0.307883
0.307408
0.306701
0.309388
0.314415
0.324267
0.342008
0.371179
0.415014
0.472823
0.52117
0.204447
0.205179
0.52236
0.47356
0.415018
0.369938
0.33962
0.321481
0.311872
0.307419
0.305603
0.306219
0.308079
0.313811
0.325011
0.341148
0.370515
0.41436
0.472144
0.520567
0.203996
0.204876
0.52174
0.472705
0.414123
0.369421
0.339345
0.322148
0.312071
0.307789
0.305767
0.307029
0.308147
0.31436
0.323689
0.340182
0.369906
0.413587
0.471183
0.520077
0.203678
0.204653
0.521441
0.471962
0.413479
0.36886
0.338342
0.320927
0.311922
0.308862
0.305848
0.306254
0.308731
0.312553
0.322014
0.339764
0.369214
0.412895
0.470273
0.519569
0.203384
0.204349
0.521015
0.47098
0.412636
0.36845
0.338175
0.320936
0.311884
0.307463
0.305524
0.305555
0.307524
0.312381
0.321861
0.339919
0.368707
0.412039
0.46945
0.519439
0.203341
0.203984
0.520482
0.470302
0.412086
0.367961
0.337985
0.320915
0.312104
0.30909
0.30763
0.307382
0.308152
0.313604
0.321751
0.338652
0.367913
0.411208
0.468638
0.519439
0.203116
0.203699
0.51993
0.469316
0.411256
0.367464
0.337962
0.321147
0.312309
0.308309
0.307355
0.307207
0.308138
0.312527
0.321798
0.339025
0.367481
0.41028
0.467872
0.519237
0.202932
0.203176
0.51917
0.468313
0.410465
0.366995
0.33796
0.321408
0.312812
0.308768
0.307795
0.306992
0.309516
0.312892
0.32253
0.338418
0.36675
0.40954
0.467216
0.518581
0.202605
0.202757
0.518554
0.467277
0.409551
0.366543
0.338582
0.322024
0.313719
0.309765
0.308538
0.307362
0.308962
0.313068
0.321452
0.33778
0.366104
0.4086
0.466287
0.51783
0.202096
0.202332
0.518011
0.466435
0.408634
0.365805
0.337932
0.323163
0.315147
0.312005
0.309755
0.309292
0.309735
0.314534
0.321861
0.337948
0.365584
0.407704
0.465332
0.517087
0.201725
0.201982
0.517383
0.465578
0.407648
0.365129
0.338019
0.322564
0.315026
0.312411
0.31021
0.309587
0.311176
0.313852
0.322422
0.337414
0.364736
0.406559
0.464346
0.516451
0.201348
0.201832
0.517119
0.464771
0.406738
0.364472
0.337471
0.323731
0.31702
0.313966
0.312508
0.311953
0.312082
0.31504
0.321669
0.336844
0.363958
0.405515
0.463317
0.5159
0.20105
0.201509
0.516518
0.463633
0.405717
0.36401
0.337983
0.324278
0.317676
0.314947
0.313367
0.31269
0.312426
0.315099
0.32228
0.336777
0.363239
0.404431
0.462159
0.515117
0.200623
0.201224
0.516044
0.462519
0.404569
0.363317
0.337932
0.324915
0.319007
0.316245
0.314587
0.313918
0.314373
0.315932
0.322899
0.336414
0.362436
0.403408
0.461088
0.514767
0.20041
0.20073
0.51529
0.46135
0.403507
0.36285
0.338113
0.325556
0.319839
0.317406
0.315887
0.315047
0.315179
0.317547
0.323336
0.336455
0.361851
0.402537
0.46
0.514168
0.200016
0.200245
0.514615
0.459938
0.402368
0.362208
0.33806
0.326332
0.320962
0.318587
0.317139
0.316261
0.316186
0.318341
0.323432
0.33644
0.361161
0.40151
0.459048
0.513583
0.19968
0.199639
0.513649
0.458664
0.401346
0.361692
0.338857
0.327265
0.322089
0.319697
0.318358
0.317682
0.317923
0.319744
0.324013
0.33635
0.360547
0.400615
0.458068
0.513136
0.199504
0.199089
0.512646
0.457176
0.400079
0.360737
0.33858
0.328158
0.323322
0.320919
0.319664
0.319055
0.319223
0.320788
0.325487
0.336217
0.359627
0.399484
0.45694
0.512511
0.199202
0.198803
0.512127
0.45604
0.399155
0.36012
0.339559
0.329263
0.324315
0.322057
0.32107
0.320665
0.320803
0.322085
0.326433
0.33707
0.358853
0.398482
0.455851
0.512017
0.199
0.198359
0.511335
0.454691
0.39807
0.359709
0.339171
0.330128
0.325487
0.323272
0.322324
0.322027
0.322381
0.323856
0.327836
0.337282
0.358047
0.397363
0.454737
0.511535
0.198684
0.198004
0.5106
0.453407
0.397065
0.359626
0.340193
0.331063
0.32666
0.324558
0.323771
0.323557
0.323823
0.325057
0.32857
0.337509
0.357799
0.396268
0.453365
0.510985
0.198349
0.197658
0.509881
0.452053
0.395877
0.359528
0.339845
0.331962
0.327847
0.32596
0.325137
0.324865
0.325086
0.326174
0.329371
0.337109
0.357563
0.395045
0.451991
0.510211
0.197933
0.197286
0.509181
0.450766
0.394699
0.358787
0.340514
0.332633
0.329136
0.327525
0.326741
0.326419
0.326517
0.327339
0.330019
0.337418
0.356202
0.393636
0.450447
0.509285
0.19749
0.196821
0.508324
0.449154
0.393164
0.357475
0.33885
0.332665
0.330077
0.328825
0.328227
0.327952
0.32791
0.328435
0.330601
0.336623
0.354993
0.392278
0.448907
0.508428
0.19707
0.196449
0.507579
0.447603
0.391608
0.355985
0.337335
0.332251
0.330806
0.330102
0.329699
0.329385
0.329178
0.329424
0.331197
0.337147
0.354684
0.391012
0.447413
0.507684
0.196674
0.196014
0.506747
0.446071
0.390067
0.354219
0.336762
0.331088
0.331289
0.33116
0.330947
0.330613
0.330264
0.330249
0.331531
0.336287
0.354308
0.389395
0.44558
0.506674
0.196106
0.195683
0.506022
0.444512
0.388547
0.352615
0.336708
0.331873
0.331727
0.332021
0.332076
0.331823
0.331359
0.331027
0.33176
0.336021
0.352992
0.387758
0.443728
0.505646
0.195534
0.195224
0.505268
0.44286
0.38695
0.351331
0.336236
0.329811
0.331253
0.332682
0.333081
0.332862
0.332227
0.331535
0.331599
0.336231
0.352161
0.386146
0.44194
0.504744
0.195048
0.194707
0.504339
0.440825
0.385113
0.350646
0.335437
0.329327
0.330231
0.333075
0.333887
0.333763
0.333007
0.331881
0.33052
0.334916
0.350738
0.384189
0.439849
0.503654
0.194399
0.194109
0.50333
0.438695
0.383007
0.350183
0.33434
0.328931
0.331521
0.333809
0.334724
0.334629
0.333719
0.332294
0.331369
0.335113
0.350068
0.382183
0.437498
0.502301
0.19362
0.193276
0.501855
0.436102
0.380485
0.347635
0.333305
0.328454
0.329992
0.333751
0.335339
0.335403
0.334281
0.332003
0.329502
0.332821
0.348607
0.379725
0.434794
0.500615
0.19267
0.192454
0.500311
0.433337
0.377908
0.345543
0.332066
0.328377
0.33029
0.33363
0.335987
0.336178
0.33486
0.331362
0.329484
0.33222
0.346504
0.37712
0.432087
0.499008
0.191785
0.191399
0.498474
0.430212
0.37511
0.343681
0.330752
0.328201
0.331601
0.335004
0.336691
0.336865
0.335715
0.333542
0.330575
0.332213
0.344543
0.374263
0.428793
0.496851
0.190536
0.190205
0.496427
0.426621
0.371978
0.342393
0.331629
0.328264
0.329833
0.333888
0.336583
0.337008
0.335722
0.332812
0.328596
0.329695
0.342094
0.371291
0.425516
0.494946
0.189481
0.188927
0.49435
0.422761
0.368496
0.342183
0.33004
0.329332
0.33077
0.332291
0.335829
0.336479
0.335317
0.332492
0.329181
0.329997
0.340063
0.368198
0.421797
0.492533
0.188085
0.187256
0.491724
0.418476
0.364316
0.338491
0.329759
0.327571
0.329005
0.331925
0.334241
0.334698
0.333686
0.330785
0.327201
0.32736
0.337705
0.364862
0.417995
0.490343
0.186801
0.185383
0.488691
0.413885
0.360324
0.3358
0.327406
0.326751
0.329906
0.333528
0.336425
0.334943
0.333612
0.33256
0.327184
0.327251
0.337898
0.361692
0.413665
0.48739
0.18494
0.183234
0.485284
0.409279
0.35658
0.333035
0.324968
0.325358
0.327609
0.331196
0.334742
0.335816
0.334601
0.331434
0.326864
0.326907
0.335582
0.35775
0.4092
0.484641
0.183183
0.180726
0.48136
0.404253
0.353127
0.330999
0.323231
0.324676
0.328106
0.33149
0.333348
0.333572
0.332124
0.329313
0.326341
0.327352
0.333016
0.353943
0.404404
0.481068
0.180759
0.177811
0.476854
0.398755
0.349917
0.329672
0.323793
0.3274
0.331079
0.332686
0.334328
0.334333
0.332757
0.329806
0.326349
0.325373
0.330753
0.350415
0.39943
0.477258
0.17816
0.174448
0.47154
0.392426
0.346056
0.327987
0.324199
0.328222
0.332417
0.33543
0.335665
0.335313
0.333613
0.33056
0.326775
0.324389
0.328839
0.346943
0.393792
0.472235
0.174695
0.170599
0.465345
0.385584
0.341696
0.326014
0.325941
0.329634
0.334345
0.3374
0.339041
0.339012
0.337376
0.334235
0.329929
0.325246
0.327623
0.343489
0.387605
0.466648
0.171017
0.166442
0.458393
0.378698
0.337973
0.324856
0.326797
0.332053
0.336639
0.339734
0.340723
0.340427
0.338663
0.335428
0.330879
0.325837
0.326245
0.339701
0.380752
0.459862
0.166681
0.162017
0.450726
0.37168
0.334879
0.325907
0.329011
0.334175
0.338698
0.341838
0.343321
0.342869
0.341079
0.337976
0.333685
0.328359
0.325342
0.336099
0.37377
0.452325
0.162194
0.157556
0.442549
0.364913
0.331818
0.325939
0.330279
0.336159
0.34076
0.34386
0.345082
0.344884
0.34326
0.340141
0.335583
0.330311
0.32659
0.333588
0.366994
0.444031
0.157577
0.153294
0.434153
0.358767
0.329731
0.326346
0.332072
0.338113
0.34268
0.345573
0.346902
0.346789
0.34529
0.342328
0.3378
0.331949
0.326995
0.331014
0.360274
0.435307
0.153205
0.149458
0.425695
0.353312
0.328427
0.32739
0.333751
0.339766
0.344197
0.346989
0.348308
0.348355
0.347097
0.344359
0.339968
0.334061
0.328286
0.329611
0.354423
0.426357
0.149275
0.146423
0.417617
0.349001
0.328548
0.329947
0.336064
0.341638
0.345719
0.348248
0.349374
0.349461
0.348484
0.346111
0.342119
0.336511
0.330333
0.329061
0.349527
0.41782
0.146303
0.144132
0.409503
0.345259
0.32848
0.331222
0.337586
0.343132
0.347016
0.349212
0.349616
0.349738
0.349345
0.347637
0.343962
0.338452
0.331883
0.329132
0.345608
0.409388
0.144359
0.14312
0.401663
0.342607
0.329539
0.333353
0.339641
0.344837
0.34843
0.350544
0.351552
0.351711
0.351001
0.349119
0.345705
0.340623
0.33432
0.330324
0.342897
0.401665
0.143116
0.14299
0.393747
0.340426
0.330934
0.335412
0.341561
0.346488
0.349886
0.351918
0.35281
0.352927
0.352316
0.350504
0.34725
0.342369
0.336146
0.331439
0.340583
0.393814
0.142363
0.14133
0.385699
0.338545
0.332185
0.337406
0.343461
0.348134
0.351359
0.353371
0.354275
0.354469
0.353724
0.351926
0.348847
0.344209
0.338076
0.33265
0.338586
0.385836
0.142127
0.141762
0.37753
0.336894
0.333557
0.339487
0.345452
0.349839
0.352781
0.354604
0.355521
0.355603
0.354869
0.353212
0.35038
0.34602
0.339998
0.333848
0.336651
0.377509
0.141125
0.141995
0.369086
0.335296
0.335281
0.341909
0.347698
0.351751
0.354397
0.355997
0.356755
0.356795
0.356137
0.354654
0.352097
0.348074
0.342263
0.335504
0.335123
0.368817
0.142016
0.144387
0.360024
0.334198
0.337337
0.344532
0.350063
0.353738
0.356048
0.357402
0.358034
0.358053
0.357479
0.356182
0.353918
0.350257
0.344705
0.337435
0.334168
0.359978
0.144312
0.146986
0.351452
0.333882
0.339957
0.347457
0.352623
0.355861
0.357811
0.358908
0.359406
0.359414
0.358936
0.357861
0.355952
0.352751
0.347604
0.34009
0.333892
0.351334
0.146881
0.151819
0.343521
0.334979
0.343376
0.350825
0.355441
0.358139
0.359677
0.360505
0.360866
0.360866
0.360512
0.359695
0.358166
0.355468
0.350842
0.343395
0.335023
0.343587
0.151853
0.158261
0.337277
0.337304
0.347474
0.3545
0.35841
0.360517
0.36163
0.362189
0.362417
0.362412
0.362178
0.361625
0.36052
0.358429
0.354529
0.347503
0.337278
0.337151
0.158131
0.166951
0.333601
0.341365
0.352399
0.358507
0.3615
0.36292
0.36357
0.363849
0.363946
0.363944
0.363841
0.363564
0.362912
0.361495
0.358494
0.352368
0.341333
0.333554
0.166987
0.177823
0.332156
0.346783
0.357666
0.362584
0.364551
0.36524
0.365414
0.365409
0.365377
0.365379
0.365409
0.365417
0.365243
0.364561
0.362606
0.357705
0.34685
0.33213
0.177809
0.19116
0.332673
0.353894
0.363531
0.366753
0.3675
0.367393
0.367068
0.366773
0.366605
0.366604
0.366766
0.36706
0.367381
0.367483
0.366732
0.363505
0.353893
0.332714
0.191167
0.207275
0.33896
0.362668
0.369565
0.370713
0.370174
0.369288
0.368501
0.367947
0.367664
0.367662
0.36794
0.368491
0.369277
0.370165
0.370718
0.369598
0.362747
0.339049
0.20734
0.225468
0.348538
0.372537
0.375583
0.374349
0.372473
0.370856
0.369673
0.368914
0.368543
0.368541
0.368906
0.369659
0.370839
0.37245
0.374329
0.375571
0.372535
0.348522
0.225341
0.246068
0.364181
0.383706
0.381347
0.377428
0.374261
0.372037
0.370584
0.369708
0.369296
0.369295
0.369703
0.370574
0.372025
0.374248
0.377426
0.381368
0.383777
0.364265
0.246153
0.268093
0.38468
0.395107
0.386069
0.379356
0.375297
0.372801
0.37128
0.370406
0.370007
0.370007
0.370402
0.371273
0.372791
0.375289
0.379354
0.386084
0.395127
0.384663
0.267996
0.291337
0.410582
0.404838
0.388382
0.380081
0.37573
0.373296
0.371891
0.371126
0.370792
0.370792
0.371126
0.371889
0.373289
0.375724
0.380075
0.388382
0.404851
0.410577
0.291321
0.314341
0.434653
0.409055
0.38887
0.380074
0.375793
0.37362
0.372502
0.371951
0.371728
0.371729
0.371954
0.372506
0.37362
0.375794
0.38007
0.388873
0.409062
0.434657
0.314365
0.338075
0.444934
0.406887
0.385651
0.378079
0.375053
0.373769
0.373199
0.372959
0.372874
0.372874
0.372963
0.373205
0.373775
0.375058
0.378083
0.385655
0.406895
0.444936
0.338019
0.364379
0.421544
0.386485
0.377508
0.37538
0.374626
0.374347
0.374272
0.374255
0.374253
0.374253
0.374255
0.374272
0.374347
0.374627
0.37538
0.377506
0.386479
0.421541
0.364396
0.593541
1.17171
1.02399
0.824097
0.65723
0.542625
0.473568
0.43574
0.416562
0.408299
0.407666
0.414615
0.432624
0.469474
0.538218
0.649281
0.810493
0.999495
1.15162
0.578882
0.58908
1.17021
1.02193
0.820503
0.649827
0.538336
0.471539
0.435367
0.41713
0.409192
0.408501
0.414915
0.431907
0.467087
0.537115
0.647651
0.809093
0.997176
1.15069
0.574623
0.593517
1.16979
1.02039
0.81769
0.651014
0.538965
0.471811
0.435486
0.41694
0.408759
0.408203
0.414681
0.432181
0.467511
0.536077
0.646591
0.808686
0.991371
1.14927
0.577343
0.592553
1.16288
1.01725
0.811616
0.651635
0.538091
0.471256
0.435363
0.416742
0.408287
0.407977
0.414428
0.431993
0.467057
0.531807
0.63934
0.807689
1.00272
1.14578
0.576288
0.591214
1.1639
1.0101
0.81892
0.647582
0.536964
0.471706
0.435178
0.416213
0.408397
0.40736
0.414417
0.431542
0.468124
0.534454
0.641784
0.807561
1.00245
1.14958
0.574911
0.590305
1.16054
1.01116
0.816217
0.650483
0.536374
0.471203
0.434846
0.416199
0.407873
0.40746
0.413696
0.431432
0.467439
0.53339
0.640647
0.804297
1.00199
1.14705
0.572036
0.586133
1.16074
1.01104
0.813918
0.644032
0.534486
0.469527
0.434189
0.415168
0.406652
0.406428
0.413269
0.430727
0.46482
0.528824
0.642441
0.796938
0.999758
1.15422
0.576185
0.586419
1.16233
1.00962
0.80447
0.643557
0.533196
0.469138
0.43379
0.41525
0.406496
0.406874
0.413184
0.430662
0.465123
0.529227
0.641864
0.803701
0.998598
1.15385
0.580402
0.584344
1.16051
1.00773
0.807621
0.644548
0.532004
0.468209
0.433008
0.414385
0.406137
0.405961
0.412879
0.430473
0.465306
0.527692
0.634569
0.794199
0.988901
1.15271
0.579651
0.581226
1.15589
1.00383
0.801047
0.642329
0.530699
0.467392
0.432817
0.414354
0.406046
0.406063
0.412788
0.430003
0.46489
0.527123
0.635541
0.795507
0.991253
1.15205
0.578334
0.580199
1.15039
1.00199
0.805683
0.636491
0.528699
0.466642
0.432665
0.414379
0.405908
0.405934
0.412803
0.429946
0.46437
0.526095
0.635172
0.79383
0.989003
1.15087
0.582303
0.579379
1.14991
0.992918
0.797866
0.634386
0.52825
0.465954
0.432649
0.414563
0.405586
0.404923
0.411935
0.42952
0.463935
0.525359
0.637976
0.794868
0.989117
1.15051
0.581901
0.58
1.15096
0.993521
0.799375
0.630979
0.526457
0.465222
0.432824
0.414306
0.405569
0.404887
0.411824
0.429351
0.462715
0.525516
0.637633
0.792757
0.989448
1.14657
0.581612
0.582354
1.15463
0.994071
0.797127
0.628107
0.522488
0.464054
0.431976
0.413723
0.40561
0.404865
0.41167
0.42918
0.463062
0.526317
0.636254
0.796799
0.992484
1.14846
0.580828
0.582095
1.15442
0.988581
0.790156
0.625932
0.520158
0.462988
0.43147
0.41403
0.405813
0.404949
0.41156
0.428837
0.462287
0.523254
0.634552
0.790619
0.987622
1.15125
0.580529
0.581072
1.15354
0.994315
0.794147
0.625816
0.518536
0.462022
0.430602
0.413064
0.406318
0.405333
0.411525
0.428474
0.461915
0.524601
0.628968
0.795316
0.994378
1.15116
0.576525
0.580741
1.15318
0.991493
0.791807
0.619329
0.51723
0.461152
0.429758
0.412898
0.405146
0.40415
0.410924
0.427957
0.459953
0.521066
0.628903
0.787178
0.985754
1.14569
0.577849
0.579112
1.14753
0.988522
0.784474
0.622922
0.516974
0.460454
0.428878
0.411823
0.404307
0.404137
0.410945
0.427748
0.459855
0.520395
0.629261
0.788593
0.985896
1.14672
0.578806
0.578225
1.14812
0.984435
0.785765
0.623992
0.515983
0.459686
0.428436
0.412084
0.404484
0.404752
0.411056
0.427336
0.458535
0.519417
0.627516
0.782219
0.981941
1.14815
0.57619
0.57643
1.14781
0.981303
0.782916
0.618196
0.51519
0.458983
0.427727
0.411612
0.404973
0.403732
0.411415
0.426954
0.457995
0.519245
0.62607
0.786566
0.979345
1.14849
0.580479
0.573367
1.14394
0.971872
0.779732
0.61742
0.514569
0.458589
0.42791
0.411792
0.404363
0.403511
0.410708
0.426286
0.457064
0.51758
0.623763
0.780448
0.979068
1.14526
0.579263
0.575814
1.1465
0.972447
0.77739
0.615251
0.514431
0.457878
0.427379
0.411323
0.40486
0.403473
0.40992
0.425604
0.456305
0.514814
0.618151
0.782682
0.980602
1.14568
0.57871
0.57081
1.14032
0.968701
0.769701
0.612409
0.513002
0.457229
0.426697
0.410775
0.404553
0.403252
0.409058
0.424926
0.455608
0.513788
0.616963
0.780835
0.982756
1.14532
0.576563
0.56999
1.13824
0.966518
0.768334
0.609169
0.509715
0.456294
0.426068
0.410043
0.403721
0.403417
0.409096
0.424562
0.454579
0.511687
0.613922
0.778235
0.980468
1.14261
0.574649
0.565908
1.13523
0.96135
0.760645
0.606063
0.508694
0.455561
0.426341
0.410132
0.402848
0.402642
0.409412
0.423686
0.453756
0.509867
0.612028
0.775146
0.97309
1.14142
0.574623
0.56393
1.13154
0.957709
0.756287
0.602916
0.507339
0.454859
0.426027
0.410798
0.403373
0.403156
0.40865
0.423434
0.453103
0.507943
0.607025
0.766748
0.973925
1.14103
0.573519
0.561927
1.1274
0.950188
0.748347
0.599419
0.505565
0.453996
0.425583
0.409293
0.402039
0.401949
0.40853
0.423377
0.45226
0.506488
0.605508
0.765046
0.971686
1.14154
0.573881
0.559667
1.12562
0.945793
0.7451
0.595745
0.504413
0.453165
0.425001
0.408435
0.401876
0.401871
0.409319
0.422803
0.451711
0.505362
0.603194
0.761053
0.963998
1.13946
0.572767
0.557304
1.12187
0.942129
0.739971
0.593238
0.503005
0.452239
0.424569
0.408391
0.402131
0.401917
0.408352
0.422459
0.451192
0.504015
0.600969
0.757278
0.962517
1.1406
0.569102
0.55518
1.11859
0.936234
0.735396
0.590292
0.501775
0.451579
0.42396
0.408287
0.403095
0.402163
0.409068
0.421502
0.450475
0.502729
0.598493
0.753184
0.959061
1.13673
0.568031
0.553526
1.11568
0.931783
0.731475
0.587911
0.500556
0.450773
0.423377
0.408171
0.402629
0.402444
0.407829
0.421014
0.449903
0.501009
0.595252
0.749374
0.954229
1.13645
0.565547
0.552882
1.11313
0.926834
0.727775
0.585721
0.499296
0.449426
0.422298
0.408173
0.401918
0.401469
0.406817
0.420591
0.449243
0.499969
0.592478
0.744295
0.947164
1.13318
0.564365
0.553425
1.11346
0.926565
0.724896
0.583823
0.498417
0.448569
0.421593
0.408023
0.402112
0.401608
0.40693
0.420436
0.448696
0.498629
0.590458
0.744268
0.947098
1.13493
0.563951
0.552808
1.11601
0.928852
0.722876
0.582286
0.49763
0.448435
0.421753
0.409089
0.403047
0.402003
0.407203
0.420306
0.448044
0.497324
0.587356
0.741426
0.946165
1.13368
0.560022
0.551561
1.11441
0.926795
0.721131
0.580648
0.496568
0.448369
0.42185
0.408874
0.403282
0.402255
0.407223
0.420149
0.447429
0.496097
0.584781
0.73358
0.942276
1.12675
0.558204
0.550355
1.11266
0.924134
0.718617
0.579011
0.4958
0.447721
0.422314
0.408548
0.403524
0.40326
0.40815
0.419963
0.446832
0.494741
0.581686
0.727855
0.933438
1.1239
0.555151
0.547467
1.1087
0.921714
0.716417
0.577335
0.495045
0.447676
0.421871
0.408565
0.403343
0.402906
0.407894
0.419782
0.446295
0.493669
0.579665
0.724119
0.928968
1.1205
0.553113
0.547121
1.11118
0.91418
0.712443
0.575486
0.494344
0.448019
0.422078
0.408681
0.402925
0.402617
0.407736
0.419625
0.44562
0.492185
0.576444
0.718934
0.924468
1.11692
0.549834
0.544973
1.10893
0.910816
0.709858
0.573763
0.493511
0.447646
0.422811
0.408973
0.403097
0.403282
0.407258
0.419501
0.444865
0.490722
0.573786
0.714717
0.918128
1.11422
0.547862
0.54227
1.1066
0.90596
0.707418
0.57216
0.492676
0.44776
0.422432
0.409095
0.403245
0.402658
0.407281
0.419413
0.444102
0.489165
0.570398
0.709614
0.913569
1.1134
0.544743
0.539918
1.09916
0.900223
0.704126
0.570151
0.491807
0.447694
0.423129
0.409418
0.403489
0.403529
0.408105
0.419556
0.443631
0.48778
0.567536
0.704634
0.90655
1.10918
0.542481
0.536791
1.09664
0.89435
0.701019
0.568457
0.490881
0.447053
0.422303
0.409994
0.403709
0.403107
0.407472
0.419811
0.442922
0.486363
0.564985
0.701081
0.902471
1.10544
0.53947
0.533777
1.09171
0.889052
0.696556
0.566049
0.489802
0.446511
0.421511
0.409258
0.403836
0.403802
0.406828
0.418244
0.44124
0.484951
0.562622
0.696662
0.898038
1.10231
0.536599
0.530078
1.08892
0.884414
0.692266
0.563789
0.488666
0.445988
0.421535
0.410041
0.404102
0.40325
0.406784
0.417318
0.440028
0.483547
0.559937
0.692314
0.892367
1.0979
0.533383
0.528639
1.08785
0.880941
0.68813
0.561375
0.487486
0.445454
0.421522
0.409542
0.404296
0.404244
0.407054
0.417266
0.438663
0.482085
0.557164
0.68752
0.886898
1.09508
0.530692
0.526867
1.08806
0.876518
0.684902
0.559359
0.486181
0.444824
0.421909
0.409747
0.404544
0.404265
0.407256
0.417479
0.438181
0.480661
0.554324
0.682694
0.880273
1.09085
0.527445
0.525223
1.08862
0.872497
0.681341
0.557142
0.484747
0.443934
0.421093
0.410424
0.404751
0.404326
0.407865
0.417134
0.437639
0.478836
0.551044
0.677672
0.874356
1.0872
0.524455
0.524018
1.08669
0.868917
0.67832
0.55524
0.483268
0.443008
0.421103
0.409925
0.404928
0.403964
0.40745
0.417296
0.437352
0.476677
0.547059
0.67129
0.866291
1.08249
0.521156
0.522451
1.08177
0.86549
0.675649
0.553394
0.481588
0.441714
0.421781
0.41011
0.405209
0.404127
0.407904
0.416356
0.437408
0.474401
0.543421
0.665979
0.859549
1.0791
0.518235
0.521195
1.08004
0.861146
0.672174
0.551381
0.479747
0.440434
0.420806
0.410231
0.406323
0.40432
0.407385
0.416065
0.435648
0.471824
0.539449
0.660143
0.852825
1.07447
0.515065
0.519045
1.07648
0.857
0.668841
0.54925
0.478002
0.440133
0.420165
0.410333
0.406343
0.404431
0.406653
0.416207
0.434389
0.469485
0.535659
0.654553
0.846005
1.0702
0.511865
0.51695
1.07051
0.851749
0.66483
0.546701
0.476146
0.440263
0.420926
0.410718
0.406879
0.405331
0.406436
0.414677
0.432375
0.466416
0.531414
0.648303
0.839019
1.06714
0.508403
0.514797
1.06763
0.847535
0.660991
0.543972
0.474428
0.439116
0.420375
0.410868
0.406998
0.404983
0.406278
0.413442
0.430253
0.46359
0.527467
0.642149
0.831395
1.06207
0.504092
0.512294
1.06275
0.841983
0.65656
0.54104
0.473715
0.437535
0.420266
0.411831
0.407093
0.405908
0.406266
0.412398
0.42813
0.46093
0.523373
0.635782
0.823917
1.05685
0.499238
0.509932
1.05959
0.836702
0.651824
0.537499
0.473566
0.4368
0.420116
0.411585
0.407785
0.405314
0.406338
0.412736
0.426783
0.458886
0.519006
0.629141
0.816439
1.05097
0.494441
0.506548
1.05433
0.830688
0.64684
0.53371
0.4705
0.436337
0.41982
0.41121
0.407297
0.405516
0.406667
0.411455
0.426167
0.456442
0.513685
0.621702
0.808016
1.04531
0.489587
0.503653
1.05016
0.824813
0.641456
0.529548
0.467815
0.436385
0.419452
0.411562
0.408694
0.406668
0.405468
0.411101
0.42423
0.452487
0.508143
0.614357
0.799289
1.03842
0.484434
0.499829
1.04489
0.818528
0.63613
0.525528
0.46494
0.433876
0.418754
0.4125
0.408553
0.406668
0.405071
0.408764
0.421163
0.448701
0.502642
0.60661
0.79001
1.03084
0.479518
0.495566
1.03902
0.811547
0.630173
0.521155
0.462254
0.431381
0.417831
0.412471
0.409971
0.407457
0.404931
0.4073
0.419129
0.445104
0.496748
0.598489
0.780723
1.0232
0.474737
0.491903
1.03436
0.804993
0.624478
0.517016
0.46023
0.429344
0.416937
0.412302
0.409773
0.407196
0.40495
0.406736
0.416915
0.440374
0.490118
0.590085
0.771848
1.0178
0.471247
0.48783
1.02926
0.797154
0.617929
0.512316
0.45813
0.428724
0.416922
0.411887
0.409748
0.407481
0.405231
0.406552
0.416102
0.436182
0.483682
0.581289
0.762652
1.01226
0.467328
0.484613
1.02483
0.790368
0.611809
0.507224
0.455058
0.428058
0.417118
0.412779
0.409496
0.406854
0.404711
0.406408
0.411787
0.431305
0.47693
0.572334
0.753444
1.00865
0.46446
0.480826
1.01999
0.781931
0.604873
0.501941
0.452041
0.427713
0.417877
0.412243
0.408538
0.405706
0.403738
0.404165
0.409455
0.428302
0.471062
0.563904
0.744319
1.00388
0.460797
0.477346
1.01566
0.773326
0.59787
0.497804
0.449688
0.427384
0.416942
0.412144
0.409519
0.406084
0.404403
0.402773
0.407265
0.425856
0.465769
0.555754
0.734784
0.99853
0.456586
0.473694
1.01197
0.763941
0.590249
0.49532
0.449814
0.428446
0.417986
0.411333
0.408782
0.406652
0.403441
0.402513
0.406796
0.423659
0.460919
0.548122
0.726041
0.994804
0.452654
0.468553
1.00677
0.752167
0.580464
0.492192
0.450851
0.426661
0.416896
0.410668
0.407293
0.405169
0.403247