/*--------------------------------*- C++ -*----------------------------------*\
  =========                 |
  \\      /  F ield         | OpenFOAM: The Open Source CFD Toolbox
   \\    /   O peration     | Website:  https://openfoam.org
    \\  /    A nd           | Version:  6
     \\/     M anipulation  |
\*---------------------------------------------------------------------------*/
FoamFile
{
    version     2.0;
    format      ascii;
    class       volScalarField;
    location    "23";
    object      nut;
}
// * * * * * * * * * * * * * * * * * * * * * * * * * * * * * * * * * * * * * //

dimensions      [0 2 -1 0 0 0 0];

internalField   nonuniform List<scalar> 
10000
(
1.45955e-05
6.96031e-05
8.97939e-05
0.000107845
0.000129722
0.000157087
0.000187842
0.000217541
0.000240826
0.000253902
0.000254366
0.000241907
0.00021941
0.000190393
0.00016009
0.000132594
0.000109852
9.07539e-05
6.99759e-05
1.45538e-05
1.46054e-05
6.96965e-05
9.01646e-05
0.000108425
0.000131077
0.000158958
0.000189731
0.000218702
0.00024178
0.000255257
0.000257748
0.000243649
0.00022075
0.00019126
0.00016071
0.000132891
0.000109885
9.06586e-05
6.99541e-05
1.45109e-05
1.4596e-05
6.96633e-05
9.01131e-05
0.000108848
0.000131101
0.000158384
0.000189117
0.000219486
0.000242359
0.000254785
0.000255108
0.000243306
0.000221843
0.000191826
0.000161484
0.000134198
0.000109912
9.0393e-05
6.98746e-05
1.45478e-05
1.45846e-05
6.97165e-05
9.02232e-05
0.000109063
0.00013065
0.000158153
0.000188635
0.000220627
0.000242463
0.000255029
0.000255404
0.000245361
0.000224005
0.000194077
0.000161468
0.000132917
0.000109986
9.09308e-05
6.99501e-05
1.45892e-05
1.45986e-05
6.96261e-05
8.97068e-05
0.000108619
0.000132484
0.00015964
0.000188945
0.000221619
0.000244879
0.000257954
0.000255958
0.0002435
0.000222405
0.000192167
0.000162824
0.000134304
0.000109715
9.06057e-05
6.99751e-05
1.45996e-05
1.45841e-05
6.96539e-05
8.98476e-05
0.00010885
0.000130748
0.000158043
0.000188786
0.000220187
0.00024311
0.000255515
0.000256438
0.000243347
0.000222859
0.000191918
0.000161222
0.000133325
0.000110443
9.13083e-05
6.99983e-05
1.45917e-05
1.45511e-05
6.97374e-05
8.98551e-05
0.000108223
0.000129968
0.000159232
0.000189028
0.000219205
0.000242975
0.000255604
0.000255812
0.00024334
0.00022289
0.00019226
0.000161526
0.000134281
0.000111082
9.04994e-05
6.99844e-05
1.46021e-05
1.45924e-05
6.96283e-05
8.95077e-05
0.00010829
0.000130238
0.00015821
0.000190025
0.000220698
0.000243991
0.000258583
0.00025645
0.000243456
0.000221235
0.000193074
0.000160295
0.000132311
0.000110172
9.1093e-05
6.99835e-05
1.45454e-05
1.45565e-05
6.96281e-05
9.01312e-05
0.000109208
0.000130637
0.000159489
0.000189353
0.000220318
0.000244617
0.000258545
0.000259285
0.000244015
0.000222088
0.000192121
0.000160471
0.000132366
0.000110895
9.10438e-05
7.01693e-05
1.45845e-05
1.46246e-05
6.95909e-05
8.97418e-05
0.000108275
0.000131644
0.000158727
0.000190657
0.000221697
0.000244626
0.000257672
0.000258426
0.000245646
0.000222176
0.000192384
0.00016118
0.000132111
0.000110132
9.11093e-05
7.02562e-05
1.45785e-05
1.46005e-05
6.96048e-05
8.98394e-05
0.000108451
0.000131432
0.000159764
0.000191148
0.00022133
0.000245446
0.00025981
0.000257114
0.00024395
0.000219879
0.000190239
0.000159917
0.000131876
0.000109065
9.1126e-05
7.01262e-05
1.4586e-05
1.4641e-05
6.98146e-05
8.99203e-05
0.000108502
0.000131043
0.000158787
0.000189974
0.000220339
0.000246479
0.000257752
0.000257113
0.000245759
0.000220459
0.000190537
0.000159919
0.000132325
0.00010967
9.14105e-05
7.02399e-05
1.46108e-05
1.46236e-05
6.99424e-05
9.02324e-05
0.000109988
0.000130309
0.00016001
0.000191864
0.000221027
0.000244756
0.000257642
0.000257349
0.000243905
0.000220407
0.000190873
0.000160449
0.000132715
0.000110744
9.19523e-05
7.01703e-05
1.46213e-05
1.47051e-05
6.99657e-05
9.06812e-05
0.000109903
0.000130962
0.000158335
0.000189296
0.000219307
0.000244217
0.000259887
0.000260365
0.000245819
0.00022333
0.000192676
0.000162489
0.000132932
0.000110225
9.14288e-05
7.00064e-05
1.45835e-05
1.46561e-05
6.99175e-05
9.09102e-05
0.000109863
0.00013222
0.00015872
0.000190613
0.000220052
0.000243986
0.000257192
0.000258006
0.000246435
0.000221558
0.000191595
0.000160995
0.000132807
0.000109847
9.10816e-05
7.01188e-05
1.4622e-05
1.46764e-05
6.9915e-05
9.0609e-05
0.00010857
0.000130479
0.000159042
0.000189627
0.000221617
0.000246379
0.000258398
0.000259551
0.00024681
0.000222179
0.000193058
0.000161278
0.000134254
0.00011111
9.13207e-05
7.01827e-05
1.46197e-05
1.46443e-05
6.98835e-05
9.00533e-05
0.000109481
0.000130863
0.00015821
0.000190111
0.000219494
0.000244009
0.000259155
0.000257732
0.000246902
0.000224661
0.000194356
0.000162337
0.000133435
0.000110878
9.13347e-05
7.00835e-05
1.45913e-05
1.46455e-05
6.99789e-05
9.02939e-05
0.000108696
0.000131755
0.000159546
0.000189914
0.000220434
0.00024333
0.000256284
0.000257454
0.000246076
0.000223052
0.000193259
0.000161594
0.000133008
0.000110322
9.13859e-05
7.0028e-05
1.46354e-05
1.46754e-05
7.02055e-05
9.09759e-05
0.000109946
0.000130711
0.000158956
0.000191015
0.000220509
0.000243704
0.000256644
0.000257866
0.000247871
0.000225881
0.00019461
0.000163238
0.000133385
0.000110262
9.07429e-05
6.99135e-05
1.45819e-05
1.46816e-05
7.01377e-05
9.06276e-05
0.000109439
0.000130891
0.000160639
0.000192467
0.000220958
0.000245137
0.000257506
0.000259917
0.000246034
0.000223598
0.000194616
0.00016201
0.000134536
0.000110468
9.12287e-05
6.99718e-05
1.45898e-05
1.46552e-05
7.02106e-05
9.03153e-05
0.000108907
0.000130902
0.000160065
0.000191988
0.000221552
0.000247143
0.000257616
0.000259359
0.000247165
0.000224729
0.00019384
0.000163066
0.000133957
0.000110116
9.06204e-05
6.9791e-05
1.45548e-05
1.45881e-05
6.99461e-05
9.05579e-05
0.000109044
0.000131004
0.000160013
0.000191497
0.000223104
0.000245326
0.000257145
0.00025731
0.000245716
0.000224949
0.000195745
0.000161625
0.000133321
0.000111059
9.10418e-05
6.98714e-05
1.4553e-05
1.45958e-05
7.00295e-05
9.08603e-05
0.000109578
0.000131048
0.000158754
0.000191126
0.000223068
0.000248127
0.000257874
0.000257643
0.00024542
0.000223368
0.000194167
0.000160901
0.000133046
0.000110593
9.07454e-05
6.98391e-05
1.45506e-05
1.46155e-05
6.97946e-05
9.03697e-05
0.000109375
0.000131246
0.000159152
0.000190626
0.000221279
0.000246376
0.000257682
0.000257834
0.000247856
0.000224417
0.000193374
0.000160955
0.000133117
0.000109987
9.0523e-05
6.97744e-05
1.45318e-05
1.45662e-05
6.98104e-05
8.98445e-05
0.000109286
0.000132178
0.000159941
0.000191655
0.000222835
0.000244706
0.00025753
0.000257267
0.000245291
0.000222249
0.000192455
0.000161036
0.000133076
0.000110137
9.00907e-05
6.9744e-05
1.45293e-05
1.45412e-05
6.97523e-05
9.00947e-05
0.000108565
0.000131309
0.000160793
0.000190421
0.000220675
0.000244799
0.000260631
0.000258323
0.000247672
0.0002244
0.000193576
0.000162493
0.000133931
0.000109142
8.98078e-05
6.96729e-05
1.44956e-05
1.45383e-05
6.96677e-05
8.98117e-05
0.000108566
0.00013138
0.00015954
0.000190714
0.000222226
0.000246561
0.000258951
0.000258148
0.000246112
0.000222731
0.000193195
0.00016212
0.00013337
0.000109048
9.00146e-05
6.94623e-05
1.44711e-05
1.45254e-05
6.96339e-05
9.02042e-05
0.000109382
0.000132717
0.000160924
0.000192324
0.00022187
0.000245106
0.000261009
0.000259487
0.000248118
0.000225043
0.000194052
0.000162442
0.000132697
0.000109378
8.97174e-05
6.94612e-05
1.44532e-05
1.45114e-05
6.95298e-05
8.97324e-05
0.000109014
0.000132247
0.000160767
0.000193567
0.000222808
0.000244819
0.000259156
0.000257858
0.000245748
0.000222717
0.000192163
0.000161554
0.000132319
0.000108392
8.94954e-05
6.93071e-05
1.4435e-05
1.44891e-05
6.94769e-05
8.99231e-05
0.00010918
0.000131837
0.000160537
0.000193279
0.000222934
0.000244513
0.000257499
0.000257974
0.000248178
0.000223575
0.000193568
0.000162584
0.000133361
0.000109007
8.92734e-05
6.92235e-05
1.44039e-05
1.44594e-05
6.94863e-05
8.95349e-05
0.000108765
0.000131995
0.000161488
0.000194643
0.000222112
0.000244919
0.000258164
0.000258283
0.000247887
0.000223699
0.000193474
0.000161835
0.000132997
0.000108757
8.91536e-05
6.92507e-05
1.43824e-05
1.44249e-05
6.93384e-05
8.9414e-05
0.000109361
0.000133103
0.000162182
0.000193126
0.000223279
0.00024553
0.000260563
0.000259128
0.00024752
0.000224186
0.000193805
0.000162704
0.000133139
0.00010872
8.93607e-05
6.91313e-05
1.43592e-05
1.44184e-05
6.92898e-05
8.94862e-05
0.000108358
0.000132444
0.000161443
0.000191873
0.000221553
0.00024533
0.000257675
0.000258342
0.000245323
0.000223857
0.000194987
0.000161765
0.000132618
0.000108357
8.89812e-05
6.89295e-05
1.43329e-05
1.4394e-05
6.92392e-05
8.9232e-05
0.000108292
0.00013211
0.000160806
0.000192983
0.000222152
0.000245769
0.000258111
0.000259955
0.000245682
0.000224528
0.000193924
0.000161412
0.000133623
0.00010844
8.88493e-05
6.88738e-05
1.43117e-05
1.43792e-05
6.92006e-05
8.94539e-05
0.000108481
0.000132296
0.000161404
0.000192944
0.000222505
0.000248282
0.000258816
0.000259286
0.00024749
0.000222627
0.000192518
0.000161503
0.000132751
0.000108754
8.91288e-05
6.86963e-05
1.42962e-05
1.43529e-05
6.91271e-05
8.92575e-05
0.000108544
0.000133407
0.000160892
0.000192449
0.000223183
0.000246535
0.000258634
0.000258419
0.000245974
0.000223169
0.000193912
0.000162525
0.000132969
0.000108859
8.85623e-05
6.86739e-05
1.43101e-05
1.43296e-05
6.90606e-05
8.93418e-05
0.000109387
0.000133701
0.000162098
0.000193803
0.000224312
0.000249516
0.000262521
0.000261877
0.000247514
0.000225502
0.000194258
0.000162066
0.000133723
0.000108656
8.84231e-05
6.87015e-05
1.42807e-05
1.4303e-05
6.89845e-05
8.92294e-05
0.000109427
0.000134174
0.000162307
0.000194182
0.000224597
0.000248339
0.000262321
0.000261948
0.000248134
0.000225205
0.000195448
0.000163917
0.000133615
0.000109192
8.83864e-05
6.87027e-05
1.42668e-05
1.42626e-05
6.88575e-05
8.918e-05
0.000109839
0.000134533
0.000163734
0.000195224
0.000226218
0.000249698
0.000263383
0.000261968
0.000250837
0.000226347
0.000197241
0.000163724
0.000133669
0.000109103
8.86844e-05
6.85855e-05
1.42317e-05
1.4236e-05
6.87841e-05
8.9068e-05
0.000109869
0.000135139
0.000164926
0.000197104
0.000227975
0.00025151
0.000264893
0.000262922
0.00025032
0.000227166
0.00019683
0.000164037
0.000134662
0.000109124
8.85296e-05
6.84592e-05
1.4192e-05
1.42129e-05
6.86964e-05
8.90444e-05
0.000109965
0.000134883
0.000164877
0.000198704
0.000230229
0.000255519
0.000267377
0.000266693
0.000252098
0.000229891
0.000198098
0.000165455
0.00013504
0.000109129
8.8576e-05
6.83448e-05
1.41691e-05
1.4196e-05
6.8627e-05
8.90544e-05
0.000109964
0.00013521
0.00016615
0.00019863
0.000230727
0.000256501
0.000268285
0.000267386
0.000254882
0.000229472
0.000199466
0.000165846
0.000135247
0.000108921
8.85176e-05
6.8253e-05
1.41413e-05
1.41894e-05
6.87432e-05
8.91024e-05
0.000109938
0.000135348
0.000166303
0.000201267
0.000234032
0.00025909
0.000272347
0.000271699
0.000256771
0.000231919
0.000199264
0.000165952
0.000135117
0.000108898
8.83738e-05
6.82844e-05
1.41183e-05
1.41623e-05
6.86616e-05
8.90422e-05
0.000109899
0.000135819
0.000167703
0.000202652
0.000235151
0.000260665
0.000273772
0.000273109
0.000257627
0.000232511
0.000200812
0.000166873
0.000135436
0.000108791
8.8208e-05
6.81345e-05
1.40902e-05
1.41377e-05
6.86444e-05
8.89607e-05
0.000109835
0.000136189
0.000168528
0.000204288
0.000237568
0.000263029
0.00027604
0.000275494
0.000261329
0.000234498
0.000202547
0.000167375
0.000135423
0.000108794
8.81073e-05
6.80715e-05
1.40796e-05
1.4098e-05
6.8572e-05
8.89486e-05
0.000109998
0.00013717
0.000169835
0.000206098
0.000239711
0.000265523
0.000278494
0.000277651
0.000263068
0.000237564
0.000204016
0.000168512
0.000136154
0.00010936
8.81189e-05
6.79939e-05
1.40462e-05
1.4062e-05
6.84934e-05
8.88884e-05
0.000110259
0.000137639
0.000170812
0.00020779
0.000241953
0.000267757
0.000280806
0.000279941
0.000265201
0.000239526
0.000205228
0.00016977
0.000136979
0.000109512
8.82245e-05
6.80372e-05
1.40294e-05
1.40179e-05
6.83785e-05
8.88339e-05
0.000110536
0.000138427
0.000172801
0.000209872
0.000244124
0.000269924
0.000283208
0.000282655
0.000268529
0.000242336
0.00020689
0.00017071
0.000137522
0.000109908
8.83315e-05
6.79771e-05
1.4021e-05
1.39887e-05
6.82614e-05
8.87201e-05
0.000110759
0.000138952
0.000173704
0.0002118
0.000246451
0.000272155
0.000285516
0.000285068
0.000271067
0.000244665
0.000209902
0.000171945
0.000138183
0.000110242
8.83536e-05
6.80343e-05
1.39965e-05
1.3974e-05
6.82787e-05
8.8766e-05
0.000111192
0.000139669
0.00017581
0.000214086
0.00024849
0.000274397
0.000288148
0.000288041
0.000274018
0.000247379
0.000212279
0.000174319
0.000138965
0.000110714
8.84556e-05
6.80329e-05
1.39837e-05
1.39417e-05
6.82178e-05
8.87163e-05
0.000111423
0.000140432
0.000176521
0.000216101
0.000251057
0.000276878
0.00029075
0.00029079
0.000276828
0.000250699
0.000215096
0.000175679
0.000139439
0.000110907
8.84961e-05
6.80404e-05
1.39586e-05
1.39198e-05
6.81702e-05
8.87541e-05
0.00011191
0.00014176
0.00017896
0.000218421
0.000253501
0.000279449
0.000293575
0.00029379
0.000279817
0.000253233
0.000217176
0.00017739
0.000140696
0.000111326
8.8509e-05
6.80283e-05
1.39331e-05
1.38947e-05
6.81257e-05
8.87135e-05
0.000112128
0.000142848
0.000179796
0.000220654
0.000256086
0.000282322
0.000296394
0.000296533
0.000282418
0.000255622
0.000219143
0.000178019
0.000141601
0.000111612
8.85631e-05
6.80381e-05
1.39026e-05
1.38654e-05
6.80977e-05
8.87315e-05
0.000112383
0.000143389
0.000181704
0.000222558
0.000258841
0.000285647
0.000299815
0.000299816
0.000285583
0.000258326
0.000221218
0.000179785
0.000141894
0.00011183
8.85113e-05
6.79817e-05
1.3872e-05
1.38334e-05
6.80369e-05
8.86491e-05
0.00011251
0.000143692
0.000181388
0.000223884
0.000261231
0.000288519
0.000302977
0.000303102
0.000288615
0.000260919
0.000223121
0.000180204
0.000142131
0.000112066
8.84638e-05
6.79221e-05
1.38435e-05
1.38083e-05
6.80067e-05
8.86126e-05
0.000112629
0.000143798
0.000181147
0.000224556
0.000263341
0.000291462
0.00030633
0.000306438
0.000291667
0.000263485
0.000225172
0.000182169
0.000143245
0.000112389
8.84642e-05
6.79209e-05
1.38126e-05
1.37809e-05
6.79945e-05
8.86405e-05
0.000112856
0.000143809
0.000181988
0.00022429
0.000265215
0.000294219
0.000309366
0.000309382
0.00029437
0.000265823
0.000226921
0.000182753
0.000144431
0.000112626
8.83859e-05
6.78379e-05
1.37678e-05
1.37582e-05
6.80075e-05
8.86789e-05
0.0001131
0.00014386
0.000183421
0.000226821
0.000267162
0.000296711
0.000312272
0.000312476
0.000297283
0.000268226
0.000228618
0.000183983
0.000144825
0.000112836
8.83372e-05
6.77723e-05
1.37311e-05
1.37232e-05
6.79949e-05
8.87293e-05
0.000113434
0.000144401
0.000184571
0.000225566
0.000267743
0.000299
0.000315053
0.000315226
0.000299728
0.000270177
0.000229804
0.000185807
0.000145713
0.000113163
8.83458e-05
6.77473e-05
1.36956e-05
1.36843e-05
6.79481e-05
8.86211e-05
0.000113631
0.000145448
0.000185436
0.000226525
0.000267508
0.000300889
0.000317597
0.000317914
0.00030222
0.000272045
0.000229837
0.000186041
0.000146204
0.000113329
8.82808e-05
6.77031e-05
1.36435e-05
1.36352e-05
6.79084e-05
8.85821e-05
0.000113798
0.000146892
0.000186114
0.000227764
0.000271182
0.000303541
0.000320349
0.000320673
0.000304703
0.000274117
0.000232656
0.000188014
0.000147329
0.000113523
8.81331e-05
6.75835e-05
1.358e-05
1.357e-05
6.77381e-05
8.83529e-05
0.000113746
0.000146607
0.000186917
0.0002289
0.000270318
0.000304888
0.000322819
0.000323405
0.000307075
0.000275204
0.00023185
0.000187388
0.000147982
0.000113579
8.79219e-05
6.7418e-05
1.35101e-05
1.35056e-05
6.75938e-05
8.80966e-05
0.000113742
0.000146768
0.000187551
0.000230754
0.000272574
0.000306256
0.000325545
0.000326338
0.000309638
0.000275758
0.000233623
0.000188688
0.000148128
0.000113542
8.77272e-05
6.72873e-05
1.34387e-05
1.34196e-05
6.73595e-05
8.77426e-05
0.000113728
0.000147288
0.000188203
0.000232602
0.000276778
0.000310608
0.000328548
0.000329269
0.000312921
0.00028132
0.000237274
0.000190824
0.000148522
0.000113502
8.73813e-05
6.70439e-05
1.33461e-05
1.33289e-05
6.7102e-05
8.73087e-05
0.000113673
0.000148458
0.000191569
0.0002349
0.000275902
0.000310486
0.000330167
0.000331336
0.000314782
0.000282101
0.000236615
0.000190203
0.000148616
0.000113491
8.71117e-05
6.68683e-05
1.32671e-05
1.3225e-05
6.68484e-05
8.68256e-05
0.000113492
0.000150756
0.000192314
0.000239024
0.000279868
0.000309681
0.000330739
0.000332307
0.000316082
0.000283718
0.000239734
0.000192944
0.000149207
0.000113535
8.67331e-05
6.66066e-05
1.31624e-05
1.3091e-05
6.65284e-05
8.63441e-05
0.000113097
0.000150277
0.000194939
0.000239312
0.000279501
0.000311452
0.000329961
0.00033109
0.000315348
0.00028325
0.000239434
0.000192554
0.000149709
0.000113575
8.63987e-05
6.64167e-05
1.3058e-05
1.2946e-05
6.61728e-05
8.58244e-05
0.000112893
0.000150719
0.000195192
0.000241081
0.000283944
0.000317316
0.000337045
0.000334244
0.000317881
0.000289054
0.000242176
0.000195214
0.000152661
0.000113922
8.60006e-05
6.61118e-05
1.29154e-05
1.27785e-05
6.58159e-05
8.54806e-05
0.000113091
0.000151355
0.000195638
0.000242375
0.000283276
0.000316103
0.000336857
0.000339136
0.000322904
0.000290246
0.000244909
0.000198103
0.000153708
0.000113951
8.56559e-05
6.58951e-05
1.27774e-05
1.25834e-05
6.54268e-05
8.51447e-05
0.000113646
0.000152817
0.000197103
0.000244981
0.000287749
0.000320268
0.000337684
0.000338257
0.00032176
0.000290143
0.00024775
0.000202339
0.000154816
0.000114301
8.54126e-05
6.5616e-05
1.25886e-05
1.23596e-05
6.5023e-05
8.49107e-05
0.000114751
0.000155403
0.000201828
0.000253264
0.00029721
0.000326913
0.000344015
0.000344091
0.000327215
0.000295185
0.000251909
0.000203965
0.000156455
0.000115091
8.52893e-05
6.5372e-05
1.23819e-05
1.21022e-05
6.45685e-05
8.4582e-05
0.000115783
0.00015806
0.000206931
0.000259385
0.000304603
0.000337401
0.000351925
0.000351288
0.000333971
0.000301409
0.000257207
0.000207207
0.000158867
0.000116313
8.52362e-05
6.50418e-05
1.21188e-05
1.1817e-05
6.41113e-05
8.43434e-05
0.000116934
0.000161076
0.000214516
0.000267154
0.000313871
0.000347344
0.000365142
0.000365161
0.0003475
0.000313889
0.000267667
0.000213452
0.000162466
0.000117996
8.52623e-05
6.47347e-05
1.18473e-05
1.15171e-05
6.36852e-05
8.43687e-05
0.000118847
0.000165276
0.000221599
0.000277539
0.00032506
0.00035926
0.000376007
0.000375453
0.000357206
0.000322847
0.000275533
0.000220102
0.000166475
0.000119942
8.53568e-05
6.43763e-05
1.15339e-05
1.12079e-05
6.33291e-05
8.46617e-05
0.00012165
0.000172348
0.000231277
0.00028832
0.000336819
0.000371964
0.000390203
0.000389223
0.000370407
0.000335453
0.000287479
0.000230271
0.000171565
0.000122416
8.57034e-05
6.40783e-05
1.12259e-05
1.09106e-05
6.30924e-05
8.53229e-05
0.000124811
0.000178981
0.000240651
0.000300162
0.00035007
0.000386066
0.000404212
0.000403779
0.000384741
0.00034867
0.000298837
0.000240307
0.000179424
0.000126074
8.64547e-05
6.38414e-05
1.0921e-05
1.06418e-05
6.30519e-05
8.65551e-05
0.000129059
0.000186533
0.000251487
0.000312989
0.000364378
0.000401091
0.000420027
0.000419679
0.000400212
0.000363267
0.000311974
0.000250908
0.000187044
0.000130063
8.7496e-05
6.37185e-05
1.06478e-05
1.04201e-05
6.3219e-05
8.83322e-05
0.000134214
0.000195437
0.000263207
0.000326651
0.000379501
0.000417228
0.000436758
0.000436704
0.000416999
0.000379078
0.000326123
0.000262876
0.000196054
0.000135183
8.91418e-05
6.37444e-05
1.04241e-05
1.02608e-05
6.36733e-05
9.08545e-05
0.000140837
0.000206567
0.000276525
0.000341709
0.000395995
0.000434612
0.000454358
0.000454284
0.000434363
0.000395658
0.000341351
0.000276182
0.000206457
0.000141196
9.13419e-05
6.40094e-05
1.02666e-05
1.01635e-05
6.42939e-05
9.38301e-05
0.000147523
0.000216719
0.000289621
0.000357367
0.000413459
0.000452862
0.000471462
0.000471393
0.000452079
0.000413244
0.000357186
0.000289448
0.000216561
0.000147778
9.41124e-05
6.44483e-05
1.02089e-05
1.01362e-05
6.50732e-05
9.74559e-05
0.000155307
0.000228173
0.000303982
0.000374116
0.000432199
0.000473302
0.000494519
0.000494489
0.000473195
0.000431887
0.000373682
0.000303631
0.00022807
0.000155451
9.75333e-05
6.51103e-05
1.0121e-05
1.02029e-05
6.58783e-05
0.000101389
0.000163484
0.000239742
0.000318567
0.000391437
0.000451888
0.000494813
0.000516753
0.000516611
0.00049455
0.000451393
0.0003907
0.000317731
0.000239065
0.000163124
0.000101224
6.5809e-05
1.0057e-05
9.96915e-06
6.66006e-05
0.000105442
0.000171515
0.00025131
0.000333298
0.000409032
0.000472003
0.000516998
0.00054006
0.000540198
0.00051671
0.000471515
0.00040833
0.000332447
0.000250526
0.000171015
0.000105117
6.65083e-05
1.00967e-05
1.00943e-05
6.71948e-05
0.000109532
0.000179542
0.000262905
0.000348131
0.000426693
0.000491926
0.000538557
0.000562831
0.000562717
0.000538262
0.000491453
0.000426003
0.000347283
0.000262104
0.000178949
0.000109024
6.70146e-05
9.9359e-06
1.00269e-05
6.75104e-05
0.00011361
0.000187776
0.000274718
0.000363134
0.000444525
0.000512039
0.000560217
0.000585176
0.00058504
0.000559852
0.00051155
0.000443899
0.000362403
0.000274036
0.000187285
0.000113227
6.73302e-05
1.0046e-05
1.01743e-05
6.74732e-05
0.000118065
0.000196104
0.000286543
0.000378126
0.000462294
0.000531949
0.000581542
0.000607239
0.000607139
0.000581292
0.000531591
0.000461833
0.000377597
0.000286021
0.000195678
0.000117787
6.73504e-05
1.01621e-05
1.03392e-05
6.74573e-05
0.000122595
0.000204557
0.000298582
0.000393467
0.000480413
0.000552118
0.000602983
0.0006293
0.00062924
0.000602794
0.000551835
0.000480104
0.000393179
0.000298356
0.000204424
0.000122507
6.73862e-05
1.03344e-05
1.06773e-05
6.7431e-05
0.000127666
0.000213609
0.000311402
0.000409693
0.000499354
0.000572922
0.000624873
0.000651669
0.000651629
0.000624768
0.000572787
0.0004992
0.000409522
0.000311227
0.00021347
0.00012761
6.74166e-05
1.06764e-05
1.11206e-05
6.77386e-05
0.000132725
0.000223262
0.00032527
0.000427247
0.00051966
0.000594913
0.000647683
0.000674771
0.000674734
0.000647583
0.000594777
0.000519504
0.000427089
0.000325142
0.000223193
0.000132694
6.77212e-05
1.11122e-05
1.17329e-05
6.85926e-05
0.000138815
0.000234313
0.000340823
0.00044666
0.000541705
0.000618278
0.000671444
0.00069856
0.000698548
0.000671406
0.000618215
0.000541613
0.000446538
0.000340674
0.000234157
0.000138707
6.85651e-05
1.17379e-05
1.24945e-05
6.98265e-05
0.000145668
0.000246584
0.000358422
0.000468495
0.000565971
0.000643271
0.000696179
0.0007229
0.000722903
0.00069618
0.000643258
0.000565923
0.000468406
0.000358308
0.000246491
0.000145635
6.98082e-05
1.24923e-05
1.34313e-05
7.12461e-05
0.000153927
0.000261128
0.000378976
0.000493428
0.000592805
0.00066987
0.000721545
0.000747267
0.000747266
0.000721541
0.000669863
0.00059279
0.000493404
0.000378943
0.000261096
0.000153922
7.12822e-05
1.34353e-05
1.45686e-05
7.45097e-05
0.000164248
0.000278708
0.000403511
0.00052238
0.000622722
0.000698142
0.000747286
0.000771259
0.000771255
0.000747272
0.000698113
0.00062267
0.000522299
0.000403416
0.00027864
0.000164246
7.45419e-05
1.45681e-05
1.58456e-05
7.89909e-05
0.000177179
0.000300502
0.000433311
0.0005562
0.000655922
0.000727685
0.000772614
0.000793926
0.000793926
0.000772611
0.000727682
0.000655919
0.000556195
0.000433307
0.000300503
0.000177185
7.89909e-05
1.58396e-05
1.72985e-05
8.6235e-05
0.000194242
0.000328515
0.000470357
0.000596093
0.000692529
0.000757858
0.00079652
0.000814195
0.000814193
0.000796509
0.000757841
0.000692503
0.000596044
0.000470294
0.000328458
0.000194248
8.6288e-05
1.7304e-05
1.88487e-05
9.65107e-05
0.000216947
0.000365076
0.000516255
0.000642536
0.000731901
0.000787385
0.000817556
0.000830515
0.000830511
0.00081755
0.000787384
0.000731915
0.000642564
0.000516275
0.000365086
0.000216926
9.64809e-05
1.88397e-05
2.04823e-05
0.000111882
0.000247993
0.000414037
0.000575251
0.00069672
0.000772876
0.000814625
0.000834172
0.000841093
0.000841096
0.000834176
0.000814626
0.000772882
0.00069672
0.000575223
0.000414005
0.000247978
0.000111874
2.04845e-05
2.21038e-05
0.000132987
0.000294141
0.00048911
0.000654493
0.000758151
0.000811818
0.000834876
0.000843846
0.000847295
0.000847298
0.000843853
0.000834886
0.000811807
0.000758116
0.000654465
0.000489085
0.000294108
0.000132948
2.21022e-05
2.37707e-05
0.000165906
0.000385679
0.000610163
0.000753936
0.000817153
0.000839098
0.00084637
0.000849859
0.000851179
0.000851176
0.000849843
0.000846321
0.000839023
0.00081712
0.000753977
0.000610247
0.000385798
0.000165975
2.37688e-05
2.56201e-05
0.000278689
0.00062009
0.000787417
0.000832476
0.000845027
0.0008496
0.000851572
0.000851944
0.000851954
0.000851954
0.000851942
0.000851557
0.000849572
0.000844973
0.000832408
0.000787385
0.000620012
0.00027864
2.56207e-05
4.22898e-05
0.000112364
0.000130768
0.000139852
0.000151835
0.000173807
0.000207196
0.000244869
0.000277799
0.000296836
0.000296224
0.000275296
0.000241433
0.000205674
0.000174958
0.00015173
0.000138043
0.00012657
0.0001094
4.11542e-05
4.17841e-05
0.000112354
0.000130877
0.000139652
0.000149756
0.000172648
0.000209016
0.000249111
0.000282645
0.000302027
0.000301597
0.00027956
0.000241957
0.000205335
0.00017604
0.000154329
0.000140017
0.000126473
0.000109361
4.06675e-05
4.26398e-05
0.000112841
0.000132112
0.000141192
0.000153792
0.000177199
0.000208659
0.000247546
0.000280179
0.000299093
0.000298887
0.00027666
0.000243123
0.000210237
0.000179063
0.000150021
0.000137083
0.000126127
0.000109254
4.12577e-05
4.21514e-05
0.000110912
0.00012955
0.000135598
0.000150505
0.000172912
0.00020541
0.000246388
0.000278446
0.000296941
0.000297325
0.000277206
0.000243758
0.000205644
0.000172315
0.000147264
0.000137023
0.00012737
0.000109146
4.09022e-05
4.23155e-05
0.000111994
0.00012972
0.000138776
0.000151865
0.000176295
0.000206568
0.000249297
0.000278592
0.00029794
0.000297445
0.000281249
0.000247987
0.000211302
0.000176089
0.000151706
0.000139194
0.000128488
0.000109746
4.10152e-05
4.18241e-05
0.000111073
0.00012899
0.000138223
0.000150619
0.000173102
0.000206201
0.000248049
0.000279609
0.000300603
0.000300486
0.000279136
0.000245895
0.000206611
0.000179501
0.000148101
0.000135556
0.000126597
0.00010974
4.05795e-05
4.12702e-05
0.000111196
0.000128431
0.000138267
0.000148618
0.000176198
0.00020572
0.000245544
0.000280833
0.00029871
0.000297775
0.000277425
0.000244954
0.000205737
0.000171162
0.000149734
0.000133658
0.000126117
0.000110512
4.11599e-05
4.13747e-05
0.000111184
0.000128474
0.000137927
0.000151953
0.000172191
0.000206076
0.000248619
0.000281149
0.000299234
0.000301005
0.000280202
0.000242809
0.000201779
0.000168523
0.000153101
0.000137635
0.000126065
0.000110031
4.16591e-05
4.1159e-05
0.000110293
0.000129524
0.000137212
0.00014999
0.000174496
0.000206222
0.000246569
0.000279454
0.000297976
0.000298894
0.00027686
0.00024628
0.000203144
0.000168054
0.000148528
0.000135332
0.000123866
0.000110404
4.18521e-05
4.09206e-05
0.000109643
0.000128452
0.000137202
0.000149797
0.000171503
0.000206519
0.00024514
0.00027755
0.000295858
0.000298927
0.000278606
0.000242029
0.00020389
0.000168151
0.000147643
0.000135528
0.000124735
0.000109752
4.12375e-05
4.08836e-05
0.000108441
0.000127986
0.000138653
0.000148063
0.000171571
0.000207443
0.000246063
0.00027827
0.000295802
0.000296904
0.000276132
0.000243004
0.00020816
0.000168661
0.000150763
0.000135792
0.000124548
0.000110056
4.16464e-05
4.08979e-05
0.000108523
0.00012496
0.000136623
0.000150559
0.000175872
0.000210241
0.000247534
0.00027981
0.000296196
0.000298553
0.000275715
0.000242925
0.000204791
0.000168493
0.000148692
0.000135069
0.000125762
0.000109184
4.18169e-05
4.11026e-05
0.000108977
0.000126359
0.000137508
0.000146398
0.000172384
0.000207484
0.000250567
0.000280776
0.000296524
0.000295896
0.000278301
0.000244383
0.00020529
0.00016986
0.000151504
0.000132357
0.000124365
0.000108461
4.15657e-05
4.17456e-05
0.000109532
0.00012534
0.000136579
0.000147836
0.000168996
0.000209536
0.000247287
0.000283208
0.000299325
0.00029855
0.000276019
0.000247858
0.000207765
0.000171271
0.000148121
0.000133918
0.000125448
0.000108883
4.16756e-05
4.16226e-05
0.000109696
0.000124311
0.000133321
0.000144836
0.000167872
0.000205916
0.000248563
0.000281071
0.00029712
0.000297815
0.000276078
0.000243108
0.000212104
0.000173537
0.000148447
0.000132327
0.000124608
0.00010956
4.12266e-05
4.17244e-05
0.000109755
0.000126192
0.000135554
0.000145927
0.000168149
0.000208854
0.000245701
0.000277895
0.000297925
0.000299629
0.000278088
0.000242574
0.000206808
0.000172139
0.000149779
0.000134368
0.00012768
0.000109991
4.06732e-05
4.14091e-05
0.000109905
0.000126056
0.000137654
0.000144214
0.000170698
0.000207982
0.000245154
0.000278418
0.00029686
0.000297264
0.000277792
0.000242416
0.000202988
0.000172864
0.000147407
0.000132044
0.000123617
0.000107977
4.08943e-05
4.14522e-05
0.000109678
0.000126755
0.000134134
0.000148793
0.000168692
0.000207864
0.000245052
0.000278121
0.000297795
0.000295747
0.000276529
0.000243536
0.00020391
0.000169667
0.000151329
0.00013317
0.000124126
0.00010824
4.13837e-05
4.10086e-05
0.000109055
0.000124625
0.000136157
0.000147092
0.000168866
0.000207811
0.000245236
0.000280795
0.000296864
0.000297183
0.000277788
0.000246912
0.000206574
0.000171987
0.000146932
0.000131726
0.000124778
0.000108484
4.08633e-05
4.11055e-05
0.000108824
0.000125201
0.000135757
0.000147528
0.000172374
0.00020786
0.000246818
0.000278079
0.000299739
0.000298695
0.000281217
0.000243918
0.000202946
0.000170026
0.000147458
0.000133929
0.000122968
0.00010848
4.13558e-05
4.05291e-05
0.000108701
0.000122817
0.000133545
0.000147112
0.000171861
0.000206465
0.000245672
0.000278746
0.000297243
0.000296744
0.000279725
0.000246878
0.000205886
0.000172861
0.00014768
0.000134477
0.000124424
0.000107954
4.14025e-05
4.07349e-05
0.000108741
0.000123163
0.000135195
0.000147547
0.00017306
0.000206832
0.000246117
0.000278883
0.000298592
0.000297321
0.00027711
0.000244747
0.000203259
0.000168958
0.00014824
0.000134806
0.000124745
0.000108106
4.09945e-05
4.01113e-05
0.000107089
0.000121741
0.000132859
0.000147113
0.000172541
0.000207374
0.000246851
0.000279169
0.000299054
0.000300362
0.000276556
0.000242926
0.000203782
0.000171414
0.000146316
0.000135183
0.000125791
0.000108154
4.07659e-05
4.03504e-05
0.000106889
0.000121718
0.000133481