/*--------------------------------*- C++ -*----------------------------------*\
  =========                 |
  \\      /  F ield         | OpenFOAM: The Open Source CFD Toolbox
   \\    /   O peration     | Website:  https://openfoam.org
    \\  /    A nd           | Version:  6
     \\/     M anipulation  |
\*---------------------------------------------------------------------------*/
FoamFile
{
    version     2.0;
    format      ascii;
    class       volScalarField;
    location    "23";
    object      nut;
}
// * * * * * * * * * * * * * * * * * * * * * * * * * * * * * * * * * * * * * //

dimensions      [0 2 -1 0 0 0 0];

internalField   nonuniform List<scalar> 
130000
(
0.000901823
0.000906354
0.000910309
0.000913552
0.000916139
0.000918133
0.000919597
0.000920596
0.00092119
0.000921432
0.000921373
0.000921056
0.000920519
0.000919795
0.000918912
0.000917895
0.000916763
0.000915533
0.00091422
0.00091283
0.000901807
0.000906348
0.000910299
0.000913536
0.000916114
0.000918097
0.00091955
0.000920536
0.000921117
0.000921345
0.000921269
0.000920931
0.000920372
0.000919625
0.000918719
0.00091768
0.000916531
0.000915288
0.000913965
0.000912571
0.000901926
0.000906481
0.000910438
0.000913676
0.000916251
0.000918228
0.00091967
0.000920644
0.000921214
0.000921435
0.000921359
0.000921035
0.000920491
0.000919754
0.000918849
0.000917799
0.000916624
0.000915344
0.000913975
0.000912532
0.00090211
0.000906686
0.000910654
0.000913893
0.000916467
0.000918446
0.000919899
0.000920901
0.000921506
0.000921768
0.000921743
0.000921442
0.000920893
0.000920135
0.000919201
0.000918112
0.000916881
0.000915548
0.000914126
0.000912624
0.000902326
0.000906925
0.000910908
0.000914168
0.000916781
0.000918812
0.00092033
0.00092137
0.000921985
0.000922244
0.000922213
0.00092188
0.00092129
0.000920501
0.000919537
0.000918416
0.000917149
0.000915783
0.000914323
0.000912777
0.000902561
0.000907198
0.00091122
0.000914545
0.000917214
0.000919278
0.000920811
0.00092183
0.000922405
0.000922618
0.000922517
0.000922135
0.000921506
0.000920689
0.000919701
0.000918563
0.000917294
0.000915912
0.000914432
0.000912864
0.000902797
0.000907485
0.000911562
0.000914944
0.000917622
0.000919655
0.000921131
0.000922111
0.000922652
0.000922838
0.000922711
0.000922312
0.000921679
0.000920846
0.000919839
0.000918683
0.000917396
0.000915995
0.000914497
0.000912912
0.00090301
0.000907741
0.000911854
0.000915228
0.00091788
0.000919886
0.000921346
0.000922317
0.000922861
0.000923036
0.000922895
0.000922479
0.00092183
0.000920978
0.000919952
0.000918775
0.000917468
0.000916049
0.000914532
0.00091293
0.000903187
0.000907943
0.000912065
0.000915435
0.000918076
0.000920092
0.00092155
0.000922515
0.000923051
0.000923215
0.000923059
0.000922627
0.000921959
0.000921088
0.000920042
0.000918845
0.000917518
0.00091608
0.000914545
0.000912927
0.000903342
0.000908117
0.000912249
0.000915625
0.000918272
0.000920288
0.000921742
0.0009227
0.000923226
0.000923377
0.000923206
0.000922758
0.000922071
0.00092118
0.000920114
0.000918897
0.00091755
0.000916093
0.000914542
0.000912909
0.000903486
0.000908276
0.00091241
0.0009158
0.000918454
0.000920472
0.000921923
0.000922873
0.000923389
0.000923527
0.00092334
0.000922874
0.000922169
0.000921258
0.000920172
0.000918935
0.000917569
0.000916094
0.000914526
0.000912881
0.000903626
0.00090843
0.000912568
0.000915963
0.000918632
0.000920652
0.000922098
0.00092304
0.000923543
0.000923667
0.000923464
0.000922981
0.000922257
0.000921327
0.00092022
0.000918963
0.000917578
0.000916085
0.000914502
0.000912844
0.000903772
0.00090859
0.000912736
0.000916133
0.000918819
0.000920836
0.000922274
0.000923205
0.000923695
0.000923804
0.000923584
0.000923083
0.000922339
0.000921389
0.000920262
0.000918985
0.000917581
0.000916071
0.000914473
0.000912803
0.000903927
0.00090876
0.000912909
0.00091631
0.000919017
0.000921029
0.000922455
0.000923372
0.000923848
0.000923941
0.000923703
0.000923182
0.000922419
0.000921448
0.000920301
0.000919003
0.00091758
0.000916052
0.000914438
0.000912755
0.000904098
0.000908953
0.000913124
0.0009165
0.000919205
0.000921224
0.000922637
0.000923541
0.000924002
0.000924078
0.000923823
0.000923282
0.000922499
0.000921506
0.000920337
0.000919019
0.000917575
0.000916028
0.000914397
0.0009127
0.000904276
0.000909149
0.00091333
0.000916711
0.000919369
0.000921397
0.00092281
0.000923708
0.000924157
0.000924217
0.000923944
0.000923384
0.000922579
0.000921565
0.000920374
0.000919033
0.000917567
0.000915999
0.00091435
0.000912641
0.000904465
0.000909352
0.000913536
0.000916906
0.00091953
0.000921545
0.000922987
0.00092388
0.000924316
0.00092436
0.000924068
0.000923488
0.000922662
0.000921625
0.00092041
0.000919046
0.000917558
0.000915969
0.0009143
0.000912573
0.000904665
0.000909567
0.000913756
0.000917123
0.000919734
0.000921717
0.000923168
0.00092406
0.000924481
0.000924507
0.000924196
0.000923595
0.000922746
0.000921686
0.000920448
0.000919061
0.00091755
0.000915938
0.000914249
0.000912503
0.000904875
0.000909794
0.000913992
0.000917364
0.000919984
0.000921931
0.000923349
0.000924249
0.00092465
0.000924658
0.000924327
0.000923704
0.000922833
0.000921749
0.000920487
0.000919074
0.000917539
0.000915903
0.000914186
0.000912411
0.000905096
0.000910031
0.000914237
0.00091761
0.000920226
0.000922169
0.000923522
0.000924402
0.000924815
0.000924813
0.000924461
0.000923815
0.000922919
0.000921811
0.000920523
0.000919086
0.000917526
0.000915867
0.000914129
0.000912332
0.000905327
0.000910279
0.000914492
0.000917864
0.000920472
0.000922395
0.000923708
0.000924544
0.000924969
0.000924966
0.000924592
0.000923923
0.000923003
0.000921869
0.000920555
0.00091909
0.000917505
0.000915826
0.000914084
0.000912301
0.000905568
0.000910537
0.000914757
0.00091813
0.000920733
0.000922649
0.000923956
0.000924729
0.000925098
0.000925095
0.000924711
0.000924024
0.000923081
0.000921921
0.000920578
0.000919084
0.000917466
0.000915755
0.000913997
0.000912233
0.000905818
0.000910803
0.000915031
0.000918403
0.000921
0.000922904
0.000924197
0.000924957
0.000925257
0.00092522
0.000924831
0.000924118
0.000923148
0.000921961
0.000920591
0.00091907
0.000917424
0.000915684
0.000913922
0.0009122
0.000906077
0.00091108
0.000915315
0.000918686
0.000921275
0.000923166
0.000924441
0.000925178
0.000925449
0.000925324
0.000924898
0.000924175
0.00092319
0.000921978
0.000920582
0.000919041
0.000917389
0.000915656
0.00091393
0.000912231
0.000906348
0.000911368
0.00091561
0.000918979
0.000921559
0.000923436
0.00092469
0.000925399
0.00092563
0.000925443
0.000924948
0.000924211
0.000923201
0.000921956
0.000920525
0.000918955
0.000917293
0.000915584
0.000913816
0.000912042
0.00090663
0.000911668
0.000915917
0.000919284
0.000921856
0.000923719
0.000924957
0.000925645
0.000925856
0.000925651
0.000925087
0.00092427
0.000923234
0.000921981
0.00092053
0.000918924
0.000917224
0.00091547
0.000913645
0.000911854
0.000906924
0.000911981
0.000916236
0.000919602
0.000922166
0.000924016
0.000925237
0.000925907
0.000926096
0.000925869
0.000925281
0.000924387
0.000923299
0.000922018
0.000920558
0.000918951
0.000917261
0.000915455
0.000913644
0.000911824
0.000907233
0.000912309
0.000916572
0.000919936
0.000922492
0.000924329
0.000925534
0.000926184
0.000926351
0.000926097
0.000925477
0.000924534
0.000923356
0.000922045
0.000920584
0.000919013
0.000917359
0.000915552
0.000913722
0.000911849
0.000907556
0.000912653
0.000916924
0.000920288
0.000922836
0.000924661
0.00092585
0.000926483
0.000926632
0.00092636
0.00092572
0.000924755
0.000923575
0.000922227
0.000920724
0.00091911
0.000917414
0.000915662
0.000913815
0.000911953
0.000907896
0.000913014
0.000917294
0.000920658
0.0009232
0.000925014
0.000926189
0.000926808
0.000926943
0.000926661
0.000926019
0.00092507
0.000923863
0.000922442
0.0009209
0.000919254
0.000917532
0.000915758
0.000913948
0.00091215
0.000908253
0.000913393
0.000917683
0.000921048
0.000923584
0.000925388
0.000926551
0.000927156
0.000927279
0.000926987
0.000926338
0.000925387
0.000924181
0.000922769
0.000921191
0.000919535
0.000917792
0.000915976
0.000914186
0.000912357
0.000908627
0.000913791
0.000918091
0.000921457
0.000923987
0.000925781
0.000926932
0.000927525
0.000927637
0.000927336
0.000926682
0.000925729
0.000924522
0.000923104
0.000921506
0.000919837
0.00091806
0.000916215
0.000914344
0.000912487
0.000909018
0.000914207
0.000918518
0.000921884
0.000924408
0.000926192
0.000927331
0.000927911
0.000928011
0.000927701
0.000927041
0.000926085
0.000924882
0.000923474
0.000921899
0.000920193
0.00091839
0.00091651
0.000914607
0.000912718
0.000909427
0.000914641
0.000918962
0.000922328
0.000924846
0.000926618
0.000927743
0.000928309
0.000928396
0.000928074
0.000927405
0.000926445
0.000925242
0.000923838
0.000922273
0.00092058
0.000918792
0.000916939
0.00091505
0.000913141
0.000909853
0.000915093
0.000919424
0.000922789
0.000925298
0.000927057
0.000928166
0.000928715
0.000928785
0.000928448
0.000927767
0.000926798
0.000925589
0.000924184
0.000922621
0.000920936
0.000919159
0.000917319
0.000915441
0.000913545
0.0009103
0.000915565
0.000919904
0.000923266
0.000925764
0.000927508
0.000928597
0.000929126
0.000929176
0.00092882
0.000928122
0.000927138
0.000925917
0.000924503
0.000922934
0.000921244
0.000919465
0.000917623
0.00091574
0.000913835
0.000910768
0.000916056
0.000920402
0.000923759
0.000926244
0.000927968
0.000929036
0.000929541
0.000929568
0.000929189
0.00092847
0.000927467
0.000926229
0.0009248
0.000923219
0.00092152
0.000919733
0.000917885
0.000915997
0.000914087
0.000911255
0.000916566
0.000920918
0.000924267
0.000926736
0.000928439
0.000929482
0.000929961
0.000929961
0.000929556
0.000928812
0.000927786
0.000926528
0.000925082
0.000923487
0.000921776
0.000919979
0.000918124
0.000916231
0.000914318
0.000911761
0.000917095
0.00092145
0.000924791
0.000927241
0.00092892
0.000929935
0.000930384
0.000930354
0.00092992
0.00092915
0.000928099
0.000926819
0.000925353
0.000923741
0.000922017
0.000920211
0.000918348
0.000916451
0.000914536
0.000912287
0.000917644
0.000922002
0.00092533
0.00092776
0.000929411
0.000930394
0.000930811
0.000930748
0.000930283
0.000929482
0.000928405
0.0009271
0.000925614
0.000923985
0.000922247
0.00092043
0.00091856
0.000916659
0.000914743
0.000912837
0.000918215
0.000922572
0.000925886
0.000928291
0.000929911
0.00093086
0.00093124
0.000931141
0.000930642
0.000929809
0.000928702
0.000927372
0.000925864
0.000924216
0.000922464
0.000920637
0.00091876
0.000916855
0.000914938
0.000913413
0.00091881
0.000923163
0.000926459
0.000928835
0.00093042
0.000931331
0.000931671
0.000931533
0.000930995
0.000930128
0.000928989
0.000927632
0.0009261
0.000924434
0.000922667
0.000920829
0.000918946
0.000917038
0.000915122
0.000914012
0.000919426
0.000923773
0.000927047
0.000929391
0.000930937
0.000931805
0.000932101
0.000931919
0.000931341
0.000930435
0.000929263
0.000927876
0.00092632
0.000924634
0.000922852
0.000921005
0.000919116
0.000917206
0.000915291
0.000914637
0.000920066
0.000924403
0.000927652
0.000929958
0.00093146
0.000932279
0.000932527
0.000932297
0.000931673
0.000930726
0.000929517
0.000928099
0.000926517
0.000924811
0.000923015
0.000921158
0.000919264
0.000917354
0.000915442
0.000915287
0.00092073
0.000925053
0.000928269
0.000930533
0.000931984
0.00093275
0.000932942
0.00093266
0.000931986
0.000930994
0.000929745
0.000928293
0.000926684
0.000924957
0.000923146
0.000921281
0.000919384
0.000917476
0.00091557
0.000915963
0.000921415
0.000925718
0.000928897
0.00093111
0.000932503
0.000933208
0.000933339
0.000932998
0.000932269
0.000931227
0.000929935
0.000928447
0.000926808
0.00092506
0.000923235
0.000921363
0.000919466
0.000917563
0.000915667
0.000916667
0.000922121
0.000926396
0.000929527
0.000931681
0.000933007
0.000933642
0.000933703
0.000933294
0.000932504
0.000931406
0.000930066
0.000928538
0.00092687
0.0009251
0.000923262
0.000921385
0.000919491
0.000917597
0.000915716
0.000917392
0.000922841
0.000927076
0.000930149
0.000932231
0.000933479
0.000934032
0.000934012
0.000933526
0.000932664
0.000931503
0.00093011
0.000928539
0.000926838
0.000925046
0.000923197
0.000921319
0.000919433
0.000917555
0.000915697
0.000918137
0.000923564
0.000927744
0.000930743
0.000932738
0.000933891
0.000934347
0.000934231
0.000933654
0.000932709
0.000931476
0.000930021
0.000928401
0.000926664
0.000924851
0.000922993
0.000921119
0.000919248
0.000917396
0.000915573
0.00091889
0.000924274
0.000928378
0.00093128
0.000933166
0.000934202
0.000934539
0.000934307
0.000933621
0.000932576
0.000931255
0.000929728
0.000928052
0.000926276
0.000924441
0.000922579
0.000920716
0.000918872
0.00091706
0.000915287
0.00091962
0.000924937
0.000928936
0.000931712
0.000933457
0.000934346
0.000934534
0.000934158
0.000933335
0.000932166
0.000930738
0.000929122
0.00092738
0.000925559
0.000923702
0.000921841
0.000920001
0.0009182
0.000916448
0.000914752
0.000920307
0.000925515
0.000929363
0.000931967
0.000933527
0.000934223
0.000934217
0.000933653
0.000932654
0.000931327
0.000929762
0.000928035
0.000926209
0.000924335
0.000922457
0.000920605
0.000918804
0.00091707
0.000915411
0.00091383
0.000920916
0.000925941
0.000929569
0.000931933
0.000933239
0.000933675
0.000933411
0.000932596
0.000931363
0.000929824
0.000928077
0.000926202
0.000924267
0.000922327
0.000920426
0.000918596
0.000916859
0.000915229
0.000913711
0.000912302
0.000921349
0.000926099
0.000929408
0.000931433
0.000932386
0.000932463
0.000931841
0.000930682
0.000929125
0.000927295
0.000925296
0.000923218
0.000921135
0.000919107
0.00091718
0.000915387
0.000913749
0.000912278
0.000910973
0.000909827
0.000921516
0.000925837
0.000928674
0.000930208
0.000930657
0.000930224
0.000929099
0.000927452
0.000925439
0.000923195
0.000920839
0.000918472
0.000916177
0.000914023
0.000912061
0.000910325
0.000908837
0.000907604
0.00090662
0.000905869
0.000921294
0.000924933
0.000927059
0.000927874
0.000927594
0.000926429
0.000924581
0.000922237
0.000919567
0.000916727
0.000913852
0.000911063
0.000908457
0.000906115
0.000904096
0.00090244
0.000901168
0.000900283
0.000899774
0.000899615
0.000920432
0.000923031
0.000924107
0.000923873
0.00092254
0.000920324
0.00091744
0.000914093
0.000910478
0.000906775
0.000903146
0.000899736
0.000896666
0.000894034
0.000891914
0.000890353
0.000889377
0.000888985
0.000889159
0.000889863
0.000918613
0.000919602
0.000919179
0.000917445
0.000914613
0.000910907
0.000906556
0.00090179
0.000896834
0.000891901
0.00088719
0.000882878
0.000879119
0.000876038
0.000873731
0.000872259
0.000871656
0.000871923
0.000873037
0.000874954
0.000915162
0.000914147
0.000911513
0.00090765
0.000902726
0.000896961
0.000890596
0.000883888
0.000877096
0.000870475
0.000864267
0.000858693
0.000853948
0.000850192
0.000847551
0.00084611
0.000845919
0.000846989
0.000849302
0.000852813
0.000909473
0.000905452
0.000900157
0.00089339
0.000885687
0.00087722
0.000868241
0.000859029
0.000849879
0.000841089
0.000832951
0.00082573
0.000819663
0.000814953
0.000811762
0.000810206
0.000810363
0.00081227
0.000815932
0.000821325
0.00090093
0.000892503
0.00088363
0.00087369
0.000862494
0.000850743
0.000838657
0.000826513
0.000814622
0.00080333
0.000792964
0.000783822
0.000776171
0.000770248
0.000766247
0.000764321
0.000764587
0.000767126
0.000771996
0.000779237
0.000888664
0.000875052
0.000861066
0.000847253
0.000832874
0.000817472
0.000802197
0.000787124
0.000772492
0.00075876
0.000746251
0.000735239
0.000725986
0.000718743
0.000713723
0.000711102
0.000711035
0.000713664
0.000719131
0.00072759
0.000871968
0.000852411
0.00083322
0.000814796
0.000796769
0.000778738
0.000761087
0.000743951
0.000726999
0.000711536
0.000697589
0.000685272
0.000674779
0.0006664
0.000660328
0.000656731
0.000655783
0.000657679
0.000662658
0.000671019
0.000850803
0.000825011
0.000801252
0.000778938
0.000758001
0.000738099
0.000718923
0.000700647
0.00068351
0.000667872
0.000653957
0.000641411
0.000630288
0.00062128
0.000614391
0.000609731
0.000607454
0.000607774
0.000611002
0.000617561
0.000825808
0.000794558
0.000767527
0.000743496
0.000721311
0.000700875
0.00068218
0.000664695
0.000648656
0.000634114
0.000621122
0.000609681
0.000599706
0.000590779
0.000583553
0.000578004
0.000574239
0.000572451
0.00057296
0.000576246
0.000798502
0.000763811
0.00073577
0.000712248
0.000691608
0.00067311
0.000656305
0.000641156
0.000627897
0.000615811
0.000604998
0.000595424
0.000586933
0.00057923
0.000572117
0.000566022
0.000560929
0.000556969
0.000554415
0.000553704
0.000771189
0.000736077
0.00070992
0.000689491
0.000672566
0.000658035
0.000645305
0.000634055
0.000624038
0.000614951
0.000606829
0.000599713
0.000593042
0.000586694
0.000580289
0.000574004
0.000567934
0.000562118
0.000556749
0.000552158
0.000746626
0.000714641
0.000693272
0.000678197
0.000666703
0.000657425
0.000649627
0.000642864
0.000636824
0.000631254
0.000625962
0.000620804
0.000615902
0.000610874
0.000605323
0.000599242
0.000592547
0.000585315
0.000577693
0.000569867
0.000727529
0.000702107
0.000687899
0.000679732
0.000674628
0.000671134
0.000668485
0.000666231
0.000664079
0.00066181
0.000659252
0.00065626
0.000652779
0.000648766
0.000643925
0.000638125
0.000631032
0.000622757
0.000613445
0.000603143
0.000716139
0.00070005
0.000694545
0.000694039
0.000695585
0.000697826
0.000700087
0.000702002
0.000703347
0.000703969
0.000703747
0.000702583
0.000700413
0.000697209
0.000692917
0.000687431
0.000680144
0.000671093
0.000660505
0.000648329
0.000713973
0.000709027
0.00071292
0.000720181
0.000728175
0.000735792
0.000742538
0.000748179
0.000752596
0.000755716
0.000757483
0.000757848
0.000756768
0.000754194
0.000750218
0.000744954
0.000737705
0.00072806
0.00071644
0.000702769
0.000721781
0.000728819
0.00074215
0.000756889
0.000770921
0.000783472
0.000794273
0.000803246
0.000810384
0.000815697
0.000819191
0.000820866
0.000820704
0.000818675
0.000814957
0.00080985
0.000802539
0.000792368
0.000779825
0.000764841
0.000739654
0.000758742
0.00078115
0.000802911
0.000822534
0.000839617
0.000854124
0.000866132
0.000875741
0.000883037
0.000888086
0.000890929
0.000891583
0.00089003
0.00088648
0.000881419
0.000874017
0.000863326
0.00084985
0.000833599
0.000767212
0.000797901
0.000828837
0.000857135
0.00088195
0.000903244
0.000921199
0.000936034
0.000947945
0.000957088
0.00096358
0.000967507
0.000968929
0.000967897
0.000964471
0.000959179
0.000951606
0.000940392
0.000925927
0.000908371
0.000803784
0.000845337
0.000884192
0.00091857
0.000948236
0.000973485
0.000994694
0.00101221
0.0010263
0.0010372
0.00104504
0.00104996
0.00105203
0.00105132
0.00104789
0.00104238
0.00103455
0.00102283
0.00100733
0.000988444
0.000848529
0.000900058
0.000946204
0.000986224
0.00102043
0.0010494
0.0010737
0.00109376
0.00110994
0.0011225
0.00113163
0.00113746
0.0011401
0.00113961
0.00113602
0.00112996
0.00112157
0.0011095
0.00109307
0.00107286
0.000900479
0.000960992
0.00101376
0.00105895
0.00109736
0.00112981
0.001157
0.00117946
0.00119761
0.00121173
0.00122204
0.0012287
0.00123181
0.00123145
0.00122766
0.00122111
0.00121204
0.00119928
0.00118192
0.00116025
0.00095851
0.00102688
0.00108549
0.00113529
0.00117747
0.00121305
0.00124287
0.00126752
0.00128745
0.00130299
0.00131436
0.00132171
0.00132515
0.00132477
0.00132063
0.00131335
0.00130316
0.00128932
0.00127124
0.0012482
0.00102126
0.00109613
0.00115959
0.00121325
0.00125859
0.00129683
0.00132888
0.00135539
0.00137684
0.00139356
0.00140578
0.00141365
0.00141724
0.00141662
0.00141192
0.00140375
0.0013922
0.00137672
0.00135722
0.00133322
0.001087
0.00116667
0.00123368
0.00129015
0.0013378
0.00137798
0.00141166
0.00143954
0.00146208
0.00147962
0.00149244
0.00150061
0.00150407
0.00150275
0.00149721
0.00148798
0.00147479
0.00145743
0.00143579
0.0014099
0.00115351
0.00123578
0.00130458
0.00136241
0.00141117
0.00145227
0.00148674
0.0015153
0.0015383
0.00155595
0.0015691
0.00157759
0.00158107
0.00157978
0.00157361
0.00156254
0.00154656
0.00152592
0.00150117
0.00147242
0.00121795
0.00129997
0.00136821
0.00142544
0.00147364
0.00151426
0.00154825
0.00157677
0.00160026
0.00161899
0.00163155
0.00163775
0.00163706
0.00163187
0.00162215
0.00160809
0.00158959
0.001567
0.00154108
0.00150995
0.00127673
0.00135483
0.00141943
0.00147353
0.00151905
0.00155682
0.00158863
0.00161432
0.00163309
0.0016474
0.00165891
0.0016647
0.00166648
0.00166125
0.00164969
0.00163295
0.00161064
0.00158259
0.0015488
0.00151335
0.00132553
0.00139511
0.00145231
0.00149974
0.00153721
0.00157001
0.00159841
0.00162235
0.00164365
0.00165877
0.00166568
0.00166834
0.00166508
0.00165489
0.00163733
0.00161378
0.00158556
0.00155199
0.00151424
0.00147288
0.00135939
0.00141533
0.00146021
0.00149367
0.00152636
0.00155181
0.00157338
0.00159241
0.00160804
0.0016197
0.00162623
0.00162658
0.00161955
0.00160412
0.00157963
0.00154744
0.00151021
0.00146682
0.00141756
0.0013637
0.0013734
0.00140944
0.00143348
0.00145623
0.00147034
0.00148616
0.00150076
0.00151454
0.00152685
0.00153634
0.0015411
0.00153893
0.00152764
0.00150532
0.00147067
0.00142537
0.00137325
0.00131283
0.00124562
0.00117372
0.00136169
0.00136757
0.00136926
0.001368
0.001369
0.00137169
0.00137747
0.00138621
0.00139653
0.00140585
0.00141072
0.00140722
0.00139154
0.00136044
0.00131178
0.00124819
0.0011735
0.00108647
0.000994001
0.000900769
0.00131969
0.00129518
0.00126545
0.00123969
0.00121969
0.00120784
0.00120534
0.00121165
0.00122408
0.00123788
0.00124682
0.00124415
0.0012237
0.00118088
0.00111383
0.00102805
0.000925856
0.000810478
0.000695278
0.000585194
0.00124359
0.0011787
0.00111884
0.00106726
0.00102777
0.00100395
0.000997944
0.00100875
0.00103136
0.00105706
0.0010747
0.00107342
0.00104487
0.00098427
0.000897725
0.000792251
0.000673105
0.000553676
0.000437082
0.000349805
0.00113072
0.00103216
0.000941943
0.000867938
0.000814769
0.000786698
0.000787
0.000812783
0.000854261
0.000896854
0.000922568
0.000917742
0.000878284
0.00081139
0.000724934
0.000618428
0.000503768
0.000389402
0.000301653
0.000245722
0.000981887
0.000853844
0.000746558
0.000665506
0.000624
0.000624614
0.000666591
0.000733202
0.000799273
0.000844224
0.000859009
0.000843159
0.000799292
0.000728027
0.000630346
0.000514674
0.000392854
0.000295581
0.000233128
0.000192291
0.000798537
0.00066002
0.000559048
0.000508133
0.000515667
0.000578321
0.000667858
0.000750232
0.000809849
0.000842375
0.000847274
0.000822676
0.000768984
0.000684482
0.000573772
0.000447749
0.000322826
0.000242268
0.00018969
0.000178864
0.000584083
0.000461003
0.000398298
0.000409914
0.000490017
0.000597394
0.00069784
0.00077535
0.000826965
0.000851317
0.000847842
0.000816621
0.000755961
0.000663995
0.000544703
0.000409861
0.000283186
0.000205523
0.00017739
0.000192307
0.000353775
0.000281102
0.000295832
0.000385525
0.0005088
0.000629429
0.000727524
0.000796904
0.000837956
0.00085406
0.000847291
0.000816183
0.00075693
0.000665072
0.000541684
0.00040065
0.000272928
0.00019449
0.000182705
0.000207803
0.000197071
0.000194795
0.0002659
0.000390922
0.000532222
0.000656537
0.000748188
0.000807858
0.000841276
0.000853568
0.000847707
0.000821914
0.000771063
0.000687045
0.000565596
0.00041783
0.000280057
0.000198469
0.000188118
0.000211702
0.000161461
0.00017388
0.000256631
0.000398969
0.000551433
0.00067746
0.000764373
0.000816382
0.000843294
0.00085287
0.000849562
0.000832499
0.000795064
0.000727819
0.000618755
0.000469975
0.000316057
0.000215274
0.00018865
0.000209887
0.00014315
0.000160038
0.00025059
0.000411561
0.000580413
0.000708742
0.000787293
0.000827734
0.000845723
0.000851789
0.000850655
0.000842536
0.000822256
0.00077717
0.000691918
0.000552856
0.000378293
0.00023851
0.000191866
0.000208205
0.000154036
0.00015629
0.000268187
0.000465754
0.000648159
0.000761672
0.000818531
0.000842363
0.000850853
0.000853032
0.0008525
0.000849671
0.000842385
0.000823201
0.000776052
0.000676697
0.000505327
0.000310793
0.000208274
0.00020706
0.000153272
0.000193794
0.000393802
0.000637107
0.000772649
0.000826591
0.000843864
0.000849755
0.000851914
0.000852642
0.000852373
0.000851152
0.000848428
0.000841372
0.000819673
0.000771939
0.000669061
0.000487715
0.00030029
0.000225429
0.000257065
0.000508215
0.000692401
0.000783382
0.000826978
0.00084384
0.000849742
0.000851616
0.000852156
0.000852169
0.000852167
0.000852247
0.000852313
0.000852982
0.000858282
0.000864516
0.000869072
0.000837121
0.000658113
0.000475047
0.000906087
0.000906585
0.000907259
0.000907801
0.000908216
0.00090851
0.000908694
0.000908777
0.000908768
0.000908674
0.000908506
0.000908271
0.000907985
0.000907652
0.000907259
0.000906816
0.000906319
0.00090576
0.000905131
0.000904423
0.000905921
0.000906425
0.000907091
0.000907627
0.000908036
0.000908324
0.000908499
0.000908568
0.000908539
0.000908423
0.000908231
0.000907973
0.00090767
0.000907329
0.000906938
0.000906509
0.000906037
0.000905509
0.000904911
0.000904237
0.000905841
0.000906334
0.000906994
0.000907527
0.000907934
0.000908217
0.00090838
0.000908427
0.000908364
0.000908203
0.000907963
0.000907655
0.000907318
0.000906958
0.000906568
0.000906166
0.000905742
0.000905261
0.000904698
0.00090407
0.000905764
0.000906245
0.0009069
0.000907438
0.000907854
0.000908144
0.000908304
0.000908328
0.000908215
0.000907968
0.000907658
0.000907338
0.000907015
0.000906682
0.000906319
0.000905935
0.000905511
0.000905019
0.00090446
0.000903844
0.000905678
0.000906137
0.000906787
0.00090734
0.000907787
0.000908114
0.000908299
0.00090832
0.000908177
0.000907931
0.000907672
0.000907419
0.000907136
0.000906831
0.0009065
0.000906148
0.00090571
0.000905167
0.000904633
0.000904011
0.000905584
0.000905994
0.000906625
0.000907206
0.000907717
0.000908129
0.000908405
0.000908509
0.000908435
0.000908252
0.000908079
0.00090791
0.000907646
0.000907325
0.000906947
0.000906592
0.000906176
0.000905624
0.000905114
0.000904421
0.000905681
0.000906068
0.000906671
0.000907234
0.000907792
0.000908303
0.000908669
0.00090887
0.0009089
0.000908766
0.000908614
0.000908418
0.000908061
0.000907683
0.000907247
0.0009069
0.000906493
0.000905982
0.000905425
0.000904707
0.000906067
0.00090648
0.000907072
0.000907574
0.000908155
0.000908675
0.000909019
0.000909206
0.000909248
0.000909173
0.000908984
0.000908667
0.000908237
0.000907878
0.000907549
0.000907247
0.00090681
0.00090631
0.000905712
0.000904994
0.000906524
0.000906981
0.000907606
0.000908096
0.000908642
0.000909049
0.000909327
0.000909462
0.000909464
0.000909375
0.000909212
0.000908966
0.000908608
0.0009083
0.000907982
0.000907637
0.000907274
0.000906737
0.000906041
0.00090533
0.00090671
0.000907221
0.000907896
0.000908437
0.000908847
0.00090915
0.000909335
0.000909403
0.000909408
0.000909374
0.000909283
0.000909118
0.00090888
0.000908596
0.000908252
0.000907847
0.000907382
0.000906849
0.000906246
0.000905572
0.000906484
0.000907029
0.000907736
0.000908245
0.000908544
0.00090875
0.000908909
0.000908944
0.000908975
0.000909011
0.00090896
0.000908811
0.000908564
0.000908254
0.000907866
0.00090742
0.000906943
0.000906431
0.00090585
0.00090518
0.000905939
0.000906499
0.000907221
0.000907758
0.000908133
0.000908433
0.000908685
0.000908738
0.00090872
0.000908704
0.000908553
0.000908339
0.000908052
0.000907692
0.000907254
0.000906787
0.000906311
0.000905827
0.000905232
0.000904514
0.00090544
0.000906022
0.000906778
0.000907451
0.000908011
0.000908403
0.000908583
0.000908607
0.000908493
0.000908387
0.000908203
0.00090801
0.000907753
0.000907449
0.000907055
0.000906602
0.000906109
0.000905609
0.000904987
0.000904268
0.000905307
0.000905904
0.000906679
0.000907421
0.000907965
0.000908287
0.000908339
0.000908352
0.000908277
0.000908199
0.000908099
0.000907991
0.000907838
0.00090762
0.000907144
0.000906635
0.000906101
0.000905564
0.000905007
0.000904388
0.000905669
0.00090621
0.000906927
0.00090757
0.000907995
0.00090826
0.000908347
0.000908399
0.000908389
0.000908333
0.000908243
0.000908118
0.000907974
0.000907653
0.000907143
0.00090664
0.000906099
0.000905543
0.000905014
0.000904391
0.000906043
0.000906472
0.000907072
0.000907567
0.000907945
0.000908209
0.000908363
0.000908419
0.000908404
0.000908329
0.00090819
0.000907992
0.000907739
0.000907457
0.000907048
0.000906527
0.000905934
0.000905303
0.000904636
0.00090393
0.00090634
0.000906783
0.000907376
0.000907848
0.000908202
0.000908444
0.000908575
0.000908589
0.000908561
0.000908472
0.000908259
0.000908022
0.000907676
0.000907324
0.000906879
0.000906366
0.000905815
0.00090525
0.000904588
0.000903895
0.000906931
0.000907344
0.000907903
0.000908346
0.000908672
0.000908882
0.000908979
0.000908959
0.000908929
0.000908833
0.000908587
0.000908343
0.000907928
0.000907519
0.000907058
0.000906581
0.000906083
0.000905579
0.00090495
0.000904241
0.000907524
0.000907881
0.000908438
0.000908869
0.000909173
0.000909359
0.000909441
0.000909446
0.000909383
0.000909251
0.000909045
0.000908766
0.00090843
0.000908043
0.000907594
0.000907119
0.000906607
0.000906057
0.000905475
0.00090468
0.000907939
0.000908405
0.000908994
0.000909433
0.000909735
0.000909914
0.000909989
0.000909976
0.000909887
0.00090973
0.000909507
0.000909224
0.000908903
0.000908548
0.000908122
0.000907653
0.000907137
0.000906565
0.000905927
0.00090521
0.000908221
0.000908699
0.000909292
0.000909727
0.000910017
0.00091018
0.000910235
0.000910199
0.000910086
0.000909907
0.000909672
0.000909389
0.000909082
0.000908753
0.000908358
0.000907919
0.000907427
0.000906873
0.000906247
0.000905539
0.00090848
0.000908968
0.000909566
0.000910003
0.000910291
0.000910448
0.000910494
0.000910446
0.00091032
0.000910128
0.000909884
0.000909598
0.000909296
0.000908979
0.000908603
0.000908184
0.000907713
0.000907178
0.00090657
0.000905876
0.000908739
0.000909243
0.000909853
0.000910301
0.000910599
0.000910764
0.000910815
0.00091077
0.000910643
0.000910449
0.000910201
0.000909912
0.000909609
0.000909294
0.000908922
0.00090851
0.000908046
0.00090752
0.000906922
0.000906241
0.00090899
0.000909512
0.000910136
0.000910599
0.000910912
0.000911093
0.000911158
0.000911125
0.00091101
0.000910825
0.000910583
0.000910296
0.000909992
0.000909673
0.000909294
0.000908873
0.000908402
0.00090787
0.00090727
0.000906594
0.000909222
0.000909757
0.000910393
0.000910868
0.000911194
0.000911389
0.000911469
0.00091145
0.000911349
0.000911176
0.000910944