/*--------------------------------*- C++ -*----------------------------------*\
  =========                 |
  \\      /  F ield         | OpenFOAM: The Open Source CFD Toolbox
   \\    /   O peration     | Website:  https://openfoam.org
    \\  /    A nd           | Version:  6
     \\/     M anipulation  |
\*---------------------------------------------------------------------------*/
FoamFile
{
    version     2.0;
    format      ascii;
    class       volScalarField;
    location    "23";
    object      p;
}
// * * * * * * * * * * * * * * * * * * * * * * * * * * * * * * * * * * * * * //

dimensions      [0 2 -2 0 0 0 0];

internalField   nonuniform List<scalar> 
10000
(
0.021742
0.0201472
0.0191916
0.0186458
0.0167401
0.0150831
0.0142722
0.0141349
0.0143565
0.0144723
0.0143778
0.0138297
0.0125633
0.0106314
0.00802888
0.00553687
0.00357882
0.00221452
0.00528682
0.0111005
0.0437413
0.0412495
0.0450369
0.0529182
0.0585332
0.0609635
0.061407
0.0613524
0.0614487
0.061465
0.0614821
0.0608935
0.0601681
0.0585633
0.0558173
0.0509362
0.0434634
0.0357893
0.0333418
0.0361537
0.0847402
0.0806028
0.0804634
0.0855695
0.092544
0.0989988
0.103812
0.106883
0.108632
0.109415
0.109436
0.108665
0.106952
0.10451
0.101562
0.0984036
0.0954568
0.0936176
0.0926142
0.0916156
0.138969
0.138159
0.138018
0.141254
0.146646
0.151863
0.155929
0.158647
0.160228
0.161009
0.161147
0.160787
0.159995
0.158803
0.157158
0.155364
0.153275
0.151271
0.149916
0.148748
0.209816
0.213698
0.214451
0.213549
0.213367
0.213703
0.214463
0.215149
0.215705
0.215985
0.216118
0.216253
0.21636
0.216884
0.217684
0.218868
0.22028
0.221145
0.219821
0.216586
0.271023
0.27459
0.276254
0.275032
0.273158
0.271541
0.27058
0.270112
0.270021
0.270098
0.270241
0.270542
0.271305
0.272819
0.275246
0.278491
0.281649
0.283366
0.282139
0.279308
0.318354
0.317499
0.317523
0.317148
0.316983
0.317623
0.318595
0.31964
0.320586
0.32139
0.322204
0.323199
0.324407
0.325937
0.327623
0.329299
0.330558
0.330706
0.330161
0.330666
0.365668
0.363403
0.363032
0.363682
0.364759
0.366638
0.368606
0.370395
0.37173
0.372781
0.373487
0.374058
0.374613
0.374918
0.374876
0.374477
0.37386
0.373034
0.372783
0.37438
0.422689
0.422463
0.42307
0.423916
0.424368
0.424453
0.424544
0.424812
0.425175
0.425405
0.425432
0.425132
0.424198
0.422483
0.419968
0.416699
0.413376
0.411247
0.412082
0.415313
0.485758
0.487541
0.488269
0.487526
0.485879
0.483613
0.481756
0.480583
0.480016
0.479751
0.479557
0.478988
0.477989
0.476239
0.473844
0.471076
0.46831
0.466874
0.467671
0.469294
0.542223
0.54186
0.541593
0.541081
0.539833
0.538114
0.536514
0.535386
0.534728
0.534433
0.5343
0.534359
0.534392
0.534789
0.53555
0.536774
0.538405
0.53993
0.539325
0.535918
0.5955
0.594342
0.593244
0.592494
0.59178
0.590897
0.589937
0.589192
0.588655
0.588428
0.588318
0.58844
0.588865
0.589722
0.591213
0.593475
0.596105
0.598154
0.598005
0.595735
0.645323
0.643199
0.64133
0.640849
0.641357
0.642006
0.642415
0.642494
0.642418
0.642304
0.642346
0.642528
0.642777
0.643191
0.643828
0.644624
0.645574
0.646393
0.646982
0.648055
0.696033
0.695771
0.695976
0.696835
0.697769
0.698181
0.698055
0.697672
0.697278
0.697071
0.697057
0.697154
0.697538
0.697915
0.698315
0.698578
0.698809
0.699148
0.699272
0.699877
0.746761
0.750085
0.752572
0.753073
0.752684
0.751921
0.751236
0.750683
0.750364
0.750222
0.750358
0.75074
0.751246
0.751803
0.752082
0.751639
0.750838
0.750195
0.750185
0.751098
0.792654
0.792125
0.792402
0.794142
0.796523
0.7988
0.800432
0.801324
0.801727
0.802016
0.802313
0.802655
0.803279
0.803987
0.804667
0.804992
0.804899
0.804492
0.803984
0.803856
0.845889
0.846206
0.845792
0.845662
0.846903
0.848852
0.850614
0.851809
0.852428
0.852614
0.852514
0.852335
0.851929
0.85162
0.851442
0.851599
0.852208
0.852543
0.851838
0.850299
0.89836
0.898558
0.898364
0.897859
0.898206
0.899519
0.901195
0.902722
0.903758
0.904194
0.90414
0.903493
0.902319
0.90016
0.896972
0.893182
0.889293
0.886649
0.887521
0.890609
0.956704
0.956989
0.957119
0.956444
0.955848
0.955868
0.956388
0.957202
0.957976
0.958447
0.958662
0.958543
0.957947
0.956751
0.954912
0.952449
0.950008
0.948755
0.949063
0.949554
1.0228
1.02349
1.02343
1.02188
1.01947
1.01722
1.01568
1.01502
1.01485
1.01494
1.01498
1.01501
1.01531
1.01614
1.01795
1.02075
1.02392
1.02613
1.02483
1.02012
1.08533
1.08596
1.08573
1.08387
1.08071
1.07731
1.07457
1.07272
1.07172
1.07123
1.07109
1.07129
1.07172
1.07294
1.07516
1.07838
1.08198
1.08419
1.08356
1.08112
1.13551
1.13463
1.13457
1.1344
1.13328
1.13148
1.12962
1.12797
1.1269
1.1264
1.12643
1.12676
1.12759
1.12855
1.12946
1.1301
1.13018
1.1297
1.12984
1.13182
1.18023
1.1785
1.17862
1.18007
1.18124
1.18137
1.18082
1.17996
1.17929
1.17897
1.17913
1.17978
1.1808
1.18202
1.18313
1.18357
1.18315
1.18204
1.18128
1.18205
1.22746
1.22695
1.22645
1.22687
1.22797
1.22886
1.22947
1.2298
1.22991
1.23004
1.23019
1.23036
1.23052
1.23046
1.23035
1.23031
1.23022
1.23003
1.22949
1.22858
1.27517
1.2739
1.27244
1.2735
1.276
1.27837
1.28019
1.28116
1.28151
1.28148
1.28139
1.28113
1.28039
1.27897
1.27672
1.27375
1.27076
1.26895
1.26927
1.27041
1.32847
1.32962
1.33009
1.33081
1.3321
1.33346
1.3345
1.33499
1.33503
1.33471
1.33415
1.33318
1.33191
1.33001
1.3275
1.3245
1.32137
1.31897
1.31851
1.31906
1.38656
1.38951
1.39121
1.39051
1.38946
1.38899
1.38892
1.38899
1.38908
1.38889
1.38848
1.38778
1.38668
1.38531
1.3838
1.38243
1.38133
1.3802
1.37947
1.37846
1.4443
1.44748
1.44925
1.44846
1.44671
1.44511
1.44414
1.44375
1.44372
1.4438
1.44385
1.44381
1.44401
1.44447
1.44541
1.44686
1.44835
1.44914
1.4485
1.44597
1.49621
1.49611
1.49692
1.49775
1.49796
1.4979
1.49773
1.49762
1.49772
1.498
1.49847
1.49918
1.50028
1.50217
1.50486
1.50817
1.51138
1.51329
1.51269
1.50975
1.54972
1.54926
1.54978
1.55041
1.55076
1.55115
1.55141
1.55161
1.55186
1.55226
1.5529
1.55376
1.55511
1.55675
1.55864
1.56052
1.56188
1.56218
1.56198
1.56206
1.60538
1.60451
1.60425
1.60486
1.60537
1.60576
1.6059
1.60592
1.60588
1.60586
1.60596
1.60632
1.6068
1.60735
1.60771
1.60751
1.60692
1.60623
1.6063
1.60753
1.66371
1.66484
1.6657
1.66634
1.66602
1.66485
1.6632
1.66159
1.66027
1.65935
1.65855
1.65781
1.65692
1.65554
1.65351
1.65063
1.64738
1.64536
1.64635
1.64882
1.71339
1.71657
1.71858
1.71852
1.71726
1.71567
1.71425
1.7131
1.71228
1.71177
1.71146
1.71111
1.71031
1.709
1.70704
1.70441
1.70155
1.69976
1.69988
1.70018
1.75375
1.75077
1.74955
1.75129
1.75431
1.75773
1.76067
1.76272
1.76384
1.76464
1.76517
1.76567
1.76609
1.76652
1.76706
1.76781
1.76864
1.76908
1.76711
1.76253
1.81101
1.80983
1.80857
1.80911
1.81127
1.81386
1.81613
1.81771
1.81867
1.8192
1.81955
1.81996
1.82034
1.82091
1.82163
1.82259
1.82363
1.82402
1.82264
1.81976
1.87967
1.8841
1.88564
1.88407
1.88161
1.87898
1.8771
1.87596
1.87542
1.87506
1.87487
1.87463
1.87456
1.87439
1.87413
1.87386
1.87348
1.87288
1.87265
1.87298
1.93913
1.94226
1.94372
1.94232
1.93935
1.93598
1.93322
1.9313
1.93015
1.92945
1.92911
1.92898
1.92901
1.9291
1.9292
1.92932
1.92938
1.9292
1.92864
1.92783
1.98708
1.98665
1.98693
1.98752
1.98746
1.98686
1.98569
1.98441
1.98328
1.98259
1.98212
1.98187
1.98175
1.98162
1.98152
1.98142
1.98117
1.98071
1.98003
1.9791
2.03191
2.03173
2.03221
2.03367
2.03525
2.03652
2.03698
2.03686
2.03638
2.03593
2.03558
2.03541
2.03511
2.03473
2.03402
2.033
2.03181
2.03072
2.03002
2.02927
2.07999
2.0795
2.07907
2.08068
2.08341
2.08627
2.08844
2.08985
2.09051
2.0909
2.09111
2.09142
2.09171
2.09185
2.09151
2.09056
2.08913
2.0879
2.08717
2.08631
2.1411
2.14302
2.14352
2.14419
2.14511
2.14597
2.14657
2.14697
2.14727
2.14763
2.1482
2.14922
2.15059
2.15243
2.15437
2.15613
2.15731
2.15756
2.15612
2.15322
2.20669
2.2122
2.21453
2.213
2.21003
2.20715
2.2051
2.20388
2.20323
2.20316
2.20339
2.20422
2.20561
2.20779
2.21086
2.21471
2.21856
2.22064
2.21863
2.21361
2.26151
2.26289
2.26415
2.26432
2.26323
2.2616
2.25989
2.25831
2.2571
2.25632
2.25595
2.25585
2.25569
2.25532
2.2545
2.25343
2.25219
2.25087
2.25075
2.25211
2.31144
2.31231
2.31364
2.31459
2.31483
2.31428
2.3131
2.31169
2.3104
2.3094
2.30867
2.308
2.30708
2.30531
2.30212
2.29747
2.2921
2.28816
2.28848
2.29202
2.35661
2.35604
2.35633
2.35834
2.36065
2.36248
2.36342
2.36376
2.36365
2.36344
2.36322
2.36298
2.3624
2.36147
2.35985
2.35743
2.3548
2.35323
2.35238
2.35074
2.40959
2.40961
2.40961
2.41162
2.41444
2.41691
2.41845
2.41933
2.41965
2.41997
2.42021
2.42065
2.42117
2.42192
2.42287
2.42421
2.4259
2.42725
2.42539
2.41981
2.47344
2.4773
2.47846
2.47816
2.47784
2.47764
2.47745
2.47728
2.47713
2.4771
2.47727
2.47794
2.47908
2.48096
2.48344
2.48646
2.48935
2.49074
2.48891
2.48452
2.53461
2.53853
2.54087
2.54093
2.53944
2.53749
2.53574
2.53439
2.5335
2.53308
2.53315
2.53379
2.53497
2.53657
2.53836
2.54011
2.54133
2.54142
2.54076
2.5402
2.58829
2.59102
2.59307
2.59374
2.59287
2.59118
2.58946
2.58813
2.58724
2.58685
2.5869
2.58741
2.58815
2.58906
2.58985
2.59023
2.59026
2.5899
2.58943
2.58912
2.63974
2.63815
2.63658
2.63715
2.63865
2.64014
2.64106
2.64149
2.64146
2.64139
2.6412
2.64109
2.64074
2.63997
2.63844
2.63632
2.63406
2.63256
2.63283
2.63366
2.7014
2.70138
2.70051
2.7004
2.70092
2.70136
2.7013
2.70093
2.70035
2.69983
2.69938
2.6991
2.69859
2.69772
2.6961
2.69397
2.6917
2.69026
2.69034
2.69006
2.7642
2.76883
2.7716
2.77178
2.77011
2.76726
2.76428
2.76191
2.76025
2.75946
2.75923
2.75971
2.76065
2.76219
2.76397
2.76578
2.76709
2.76753
2.76558
2.76034
2.81365
2.81687
2.81864
2.81934
2.81925
2.81846
2.81734
2.81634
2.81567
2.81565
2.81621
2.81768
2.81984
2.82307
2.82676
2.83054
2.83345
2.83422
2.83161
2.82617
2.8611
2.86045
2.85954
2.86075
2.86362
2.86672
2.86888
2.87009
2.87056
2.87105
2.87162
2.8727
2.87415
2.87614
2.87829
2.88046
2.88218
2.88233
2.88058
2.87797
2.9248
2.92729
2.92812
2.92833
2.92904
2.92959
2.92957
2.92915
2.92862
2.92815
2.92798
2.92805
2.92808
2.9276
2.92608
2.92333
2.91996
2.91714
2.91721
2.9193
2.99068
2.99703
2.9999
2.99858
2.99597
2.99312
2.99057
2.98849
2.98701
2.98592
2.98521
2.98464
2.98401
2.98275
2.98036
2.97687
2.97293
2.97042
2.97056
2.97093
3.04364
3.04528
3.04645
3.0471
3.04704
3.04677
3.04616
3.0453
3.04439
3.04375
3.04334
3.04329
3.04322
3.04322
3.04304
3.04262
3.04189
3.04118
3.03941
3.03468
3.0966
3.09757
3.09916
3.10151
3.10304
3.10366
3.10342
3.10282
3.10206
3.10164
3.10149
3.1018
3.10245
3.10355
3.10495
3.10661
3.10795
3.10828
3.10607
3.10055
3.15381
3.15762
3.15962
3.1605
3.16102
3.16126
3.16117
3.1608
3.16029
3.15998
3.15994
3.16039
3.16112
3.16245
3.16416
3.16619
3.16825
3.16952
3.16819
3.16413
3.215
3.21655
3.21638
3.21665
3.21761
3.21884
3.21977
3.22025
3.22047
3.22071
3.22129
3.22236
3.22398
3.22586
3.22734
3.22804
3.22778
3.22705
3.22638
3.22558
3.28701
3.29073
3.29195
3.29159
3.29021
3.28806
3.28581
3.28403
3.28298
3.28268
3.28318
3.28464
3.28687
3.28975
3.29268
3.29495
3.29628
3.2964
3.29487
3.29168
3.35224
3.35881
3.36196
3.3608
3.3572
3.35266
3.34847
3.34525
3.34316
3.34226
3.34222
3.34304
3.34454
3.34665
3.34912
3.35176
3.35408
3.35496
3.35301
3.34822
3.39801
3.39913
3.40087
3.40328
3.4047
3.40483
3.40389
3.40233
3.40083
3.39989
3.39967
3.40012
3.40073
3.40099
3.40019
3.39796
3.3948
3.39186
3.39142
3.39194
3.44397
3.44601
3.4484
3.4522
3.45599
3.45839
3.45913
3.45875
3.45804
3.45756
3.45769
3.45821
3.45904
3.45941
3.45865
3.45654
3.45322
3.45037
3.44915
3.44713
3.49855
3.50338
3.50612
3.50876
3.51166
3.51384
3.51508
3.51563
3.51583
3.51617
3.51688
3.51813
3.51954
3.52116
3.52256
3.52337
3.52339
3.52236
3.51864
3.5104
3.56589
3.57079
3.5729
3.57507
3.57715
3.57842
3.57874
3.57846
3.57797
3.57768
3.57783
3.57834
3.5793
3.58029
3.58093
3.58097
3.58018
3.57827
3.57431
3.56674
3.64242
3.65017
3.65367
3.65423
3.65294
3.65028
3.64711
3.64406
3.64176
3.64015
3.63939
3.63917
3.63918
3.63895
3.63804
3.63596
3.63294
3.62927
3.62587
3.62126
3.70568
3.71399
3.71821
3.71902
3.71739
3.71411
3.71016
3.70637
3.70353
3.70167
3.70088
3.7006
3.70096
3.70111
3.70078
3.69964
3.69748
3.69448
3.69082
3.68483
3.74809
3.75124
3.75333
3.75701
3.76059
3.76286
3.76328
3.76238
3.76109
3.7602
3.76
3.7606
3.76164
3.76295
3.7641
3.76437
3.76365
3.76185
3.7589
3.75241
3.792
3.79282
3.79332
3.79842
3.80568
3.81249
3.81688
3.81886
3.81926
3.81926
3.81946
3.81998
3.82103
3.82219
3.82342
3.82449
3.82503
3.82475
3.82308
3.81697
3.85664
3.86283
3.86395
3.8658
3.86979
3.87428
3.87777
3.87962
3.88023
3.88015
3.88004
3.88015
3.88014
3.87994
3.87948
3.87865
3.87787
3.87748
3.87748
3.87321
3.93518
3.94582
3.94778
3.94581
3.94403
3.94346
3.94383
3.94423
3.94441
3.94413
3.94395
3.94366
3.94369
3.94328
3.94209
3.93988
3.93682
3.93463
3.93506
3.93231
4.01467
4.02428
4.0254
4.0216
4.01661
4.01289
4.01102
4.01033
4.01012
4.01009
4.01029
4.01097
4.01195
4.0135
4.01524
4.01666
4.01786
4.01893
4.01818
4.01013
4.09092
4.09725
4.09664
4.09296
4.08766
4.08311
4.07989
4.07811
4.07721
4.0771
4.0775
4.0785
4.08047
4.08358
4.08794
4.09339
4.09898
4.10298
4.10169
4.09064
4.16341
4.17086
4.17106
4.1674
4.16139
4.15517
4.15011
4.14673
4.1447
4.14374
4.14357
4.14449
4.1462
4.14926
4.15348
4.15855
4.16366
4.16711
4.16658
4.15764
4.22605
4.23358
4.23413
4.23212
4.2278
4.2224
4.21755
4.21399
4.21183
4.21075
4.21068
4.21136
4.21297
4.21509
4.21741
4.21956
4.22101
4.222
4.22256
4.21715
4.28559
4.29473
4.29676
4.29673
4.29432
4.28986
4.28519
4.28151
4.27928
4.27839
4.27874
4.28035
4.28289
4.2864
4.29032
4.29369
4.29579
4.29662
4.29526
4.2863
4.34585
4.35907
4.36368
4.36432
4.36226
4.35793
4.35322
4.34953
4.34731
4.3466
4.34719
4.34915
4.35265
4.3576
4.36374
4.37004
4.37463
4.37596
4.37119
4.35642
4.40367
4.41768
4.42453
4.42814
4.4288
4.42612
4.42202
4.41813
4.41544
4.41423
4.41443
4.41621
4.41921
4.42354
4.42843
4.43263
4.43436
4.43273
4.42647
4.41242
4.46014
4.4766
4.48666
4.49283
4.49525
4.49355
4.48967
4.48557
4.48261
4.48115
4.48127
4.48267
4.48517
4.48785
4.48977
4.48947
4.48574
4.4798
4.4727
4.46107
4.51057
4.52654
4.53724
4.54557
4.55109
4.55266
4.55149
4.54934
4.54748
4.5467
4.54712
4.54875
4.55107
4.55331
4.55443
4.55278
4.54753
4.54016
4.53048
4.51545
4.56678
4.5786
4.58725
4.59733
4.60716
4.61349
4.61594
4.61605
4.61515
4.61462
4.61464
4.61537
4.61636
4.61687
4.61622
4.61302
4.60695
4.59925
4.58811
4.57068
4.64411
4.65714
4.66492
4.67208
4.67997
4.68534
4.68743
4.68725
4.68618
4.68516
4.6847
4.68457
4.68431
4.68263
4.67854
4.67088
4.66018
4.64992
4.64028
4.62795
4.72981
4.74275
4.74886
4.75152
4.75543
4.75842
4.75978
4.75961
4.75874
4.7577
4.75701
4.75637
4.75548
4.7532
4.74901
4.7421
4.73377
4.72757
4.72024
4.70841
4.81404
4.81871
4.81951
4.81999
4.82412
4.82885
4.83224
4.8337
4.83368
4.83292
4.83195
4.83074
4.82925
4.82694
4.82397
4.82091
4.81906
4.82032
4.81722
4.80716
4.91459
4.917
4.91425
4.90845
4.90758
4.90904
4.91074
4.91177
4.91195
4.91155
4.91098
4.91047
4.90984
4.90907
4.90828
4.90824
4.91064
4.91744
4.92063
4.91873
5.02976
5.0322
5.02672
5.01206
5.00205
4.99646
4.99399
4.9933
4.99327
4.99339
4.99366
4.99447
4.99627
4.99968
5.00525
5.0142
5.02703
5.04356
5.05004
5.04886
5.14684
5.14872
5.14396
5.12387
5.10654
5.09383
5.08572
5.08129
5.07921
5.0787
5.07915
5.08141
5.08552
5.09329
5.10559
5.12311
5.14477
5.16676
5.17051
5.16715
5.24417
5.25075
5.25612
5.23711
5.21563
5.19639
5.18171
5.17203
5.16685
5.1649
5.16547
5.16874
5.17527
5.18597
5.20048
5.21799
5.23544
5.24999
5.24445
5.24231
5.29308
5.30374
5.32665
5.31895
5.30412
5.28666
5.27076
5.25883
5.25174
5.24878
5.24906
5.25292
5.26006
5.27085
5.28359
5.29546
5.30423
5.30837
5.28684
5.27941
5.30137
5.30963
5.35133
5.36031
5.36261
5.35818
5.34927
5.33998
5.33349
5.33041
5.33041
5.33317
5.33852
5.34518
5.35084
5.3529
5.35059
5.34385
5.30366
5.29369
5.32723
5.32465
5.38082
5.39501
5.40771
5.41603
5.41719
5.4137
5.4099
5.40784
5.40792
5.41004
5.41289
5.41485
5.413
5.40513
5.39439
5.38176
5.32552
5.3268
5.43446
5.40072
5.46302
5.4629
5.46725
5.47672
5.4828
5.48339
5.48175
5.48045
5.48056
5.48158
5.48299
5.48227
5.47782
5.47098
5.46876
5.46931
5.4057
5.43874
5.65176
5.55495
5.62272
5.59299
5.56803
5.56069
5.55952
5.55729
5.55415
5.5521
5.55198
5.55413
5.55686
5.55951
5.56238
5.57148
5.59763
5.62828
5.56039
5.65656
5.93026
5.72596
5.81507
5.76108
5.70201
5.66998
5.6547
5.64541
5.63876
5.63505
5.63473
5.63802
5.64448
5.65438
5.67037
5.7033
5.76232
5.81629
5.72645
5.92911
6.15526
5.77447
5.92002
5.8784
5.81002
5.76737
5.74627
5.73446
5.72652
5.72232
5.72177
5.72589
5.73321
5.74551
5.76718
5.80942
5.87665
5.91607
5.76856
6.14866
6.29903
5.64227
5.88881
5.90155
5.85017
5.81184
5.79269
5.78276
5.77617
5.77271
5.77276
5.77632
5.78309
5.79391
5.81337
5.85092
5.9006
5.88557
5.63888
6.29837
6.62395
5.52575
5.87895
5.9339
5.8774
5.82873
5.80378
5.79081
5.78273
5.77864
5.77889
5.78368
5.7917
5.80654
5.83007
5.87895
5.93183
5.87764
5.52747
6.62997
7.68447
5.60296
5.89097
5.98575
5.93141
5.87714
5.8504
5.83718
5.82975
5.82553
5.82597
5.82914
5.83601
5.85
5.87567
5.93076
5.98593
5.89302
5.6057
7.68299
9.65686
5.24578
5.34173
5.72911
5.82149
5.82112
5.81836
5.81761
5.81626
5.81509
5.81511
5.81625
5.81752
5.81842
5.82109
5.82154
5.7292
5.342
5.24613
9.65684
0.00238586
0.0179052
0.0176701
0.0271868
0.0240621
0.018948
0.0176166
0.0190149
0.020738
0.0215615
0.0217221
0.0213793
0.0208235
0.0209821
0.022899
0.0272997
0.029
0.0211379
0.027887
0.0240505
0.0920022
0.111622
0.12001
0.138606
0.146783
0.145679
0.142149
0.140207
0.139504
0.138613
0.137599
0.135697
0.134551
0.13396
0.134753
0.133865
0.126541
0.115488
0.116421
0.101962
0.292472
0.281346
0.281316
0.283607
0.280084
0.272737
0.265224
0.259467
0.255468
0.252199
0.248501
0.243702
0.236421
0.226472
0.213678
0.200913
0.19405
0.194586
0.197069
0.197819
0.430332
0.41201
0.401218
0.397964
0.3944
0.38775
0.380415
0.3742
0.36959
0.365528
0.361009
0.354575
0.344861
0.329761
0.30717
0.276819
0.24215
0.213809
0.209577
0.222212
0.50425
0.487554
0.474655
0.477266
0.487468
0.495864
0.498281
0.496158
0.492361
0.488595
0.484338
0.479209
0.472151
0.46297
0.451124
0.436296
0.419903
0.405835
0.393615
0.384071
0.597851
0.59251
0.586447
0.591059
0.60192
0.611181
0.615573
0.616176
0.614277
0.612166
0.609172
0.606346
0.603627
0.603119
0.606975
0.617476
0.632571
0.642698
0.631836
0.60494
0.737843
0.746647
0.740434
0.726925
0.721119
0.721859
0.725629
0.7294
0.731615
0.732391
0.73233
0.732762
0.73371
0.736642
0.742768
0.754366
0.768374
0.775508
0.773207
0.764255
0.853558
0.86281
0.860467
0.853568
0.848245
0.846507
0.847237
0.848586
0.84974
0.850294
0.850894
0.851822
0.85411
0.857186
0.860619
0.863218
0.864075
0.862096
0.86416
0.872002
0.963541
0.984909
0.999025
0.996632
0.986825
0.977566
0.971729
0.96833
0.966752
0.965719
0.96499
0.96417
0.96341
0.962942
0.961916
0.958684
0.954395
0.950678
0.952412
0.961417
1.03954
1.04965
1.06257
1.06943
1.074
1.07889
1.08277
1.0851
1.08636
1.08662
1.08596
1.08403
1.08054
1.07431
1.06387
1.04932
1.03195
1.01705
1.01694
1.0288
1.17385
1.16385
1.16943
1.18755
1.20526
1.21815
1.22413
1.22583
1.22525
1.22373
1.22141
1.21802
1.21251
1.20463
1.19408
1.18091
1.16588
1.15227
1.1465
1.14565
1.41764
1.4209
1.42371
1.42024
1.41103
1.40005
1.39016
1.38242
1.37605
1.37134
1.3673
1.36371
1.35989
1.35607
1.35286
1.35135
1.35246
1.35512
1.3483
1.32984
1.59988
1.61323
1.60904
1.5898
1.5649
1.54391
1.5295
1.52006
1.51356
1.50954
1.50778
1.5089
1.51311
1.52061
1.52983
1.53845
1.54389
1.54532
1.54106
1.53024
1.67652
1.66795
1.66043
1.66347
1.66114
1.6534
1.6442
1.63682
1.63171
1.6293
1.62904
1.63177
1.63828
1.64985
1.66716
1.68917
1.71125
1.72577
1.72727
1.72162
1.72882
1.72216
1.71765
1.72219
1.72885
1.73252
1.73376
1.7339
1.7339
1.73403
1.73471
1.73648
1.73851
1.74112
1.74502
1.75282
1.76517
1.77816
1.79203
1.8056
1.73626
1.73053
1.73007
1.74807
1.7763
1.80328
1.82258
1.83333
1.83891
1.84158
1.84323
1.84364
1.84271
1.83806
1.82839
1.813
1.79338
1.78003
1.79264
1.82073
1.81496
1.82444
1.83809
1.86095
1.88926
1.91535
1.93566
1.94918
1.95744
1.96196
1.96461
1.9652
1.96299
1.95692
1.94717
1.93299
1.91654
1.90624
1.9065
1.90984
2.00095
2.02748
2.04485
2.04931
2.05347
2.06073
2.07034
2.07986
2.08728
2.09218
2.09509
2.0965
2.09669
2.09541
2.09264
2.08962
2.08885
2.09198
2.08591
2.0657
2.22543
2.24117
2.24887
2.24378
2.23258
2.22468
2.22197
2.22254
2.22434
2.22573
2.22644
2.22676
2.22762
2.23023
2.23379
2.23791
2.24207
2.24357
2.23722
2.22217
2.43908
2.44362
2.44168
2.42805
2.40606
2.38573
2.37202
2.36457
2.36116
2.35947
2.35817
2.35654
2.35505
2.35427
2.35541
2.35979
2.367
2.37117
2.36788
2.35945
2.58295
2.56687
2.55515
2.54949
2.53852
2.52305
2.5082
2.49777
2.49201
2.489
2.4879
2.48742
2.4872
2.48603
2.48381
2.47996
2.47512
2.46855
2.46602
2.46886
2.6849
2.67008
2.65798
2.65215
2.6464
2.63875
2.63007
2.62264
2.61784
2.61558
2.61497
2.61512
2.61586
2.61619
2.61646
2.61653
2.61693
2.61645
2.61189
2.60695
2.7393
2.72309
2.71284
2.72058
2.73355
2.74349
2.74815
2.74801
2.746
2.74448
2.74398
2.74398
2.74367
2.74327
2.74306
2.74247
2.74099
2.73837
2.73585
2.73499
2.83535
2.83549
2.83517
2.84625
2.86177
2.87344
2.87948
2.881
2.88002
2.87872
2.87815
2.87849
2.87946
2.87987
2.87896
2.87571
2.87019
2.86406
2.86216
2.86378
2.9994
3.02261
3.02662
3.01934
3.01571
3.01509
3.01469
3.01351
3.01195
3.01045
3.01013
3.01128
3.01396
3.01733
3.02014
3.02052
3.01782
3.01317
3.01062
3.00949
3.15568
3.17467
3.17643
3.16634
3.15513
3.14753
3.14225
3.13818
3.13514
3.13314
3.1324
3.1329
3.1353
3.13945
3.14627
3.1561
3.16767
3.17615
3.17616
3.16745
3.26334
3.27603
3.27815
3.27153
3.26214
3.25533
3.25145
3.24905
3.24748
3.24627
3.24511
3.24427
3.2429
3.24175
3.24161
3.24551
3.25606
3.26965
3.27564
3.26696
3.30215
3.2982
3.29963
3.31327
3.32839
3.34256
3.3536
3.36007
3.36293
3.36364
3.3635
3.36236
3.36023
3.35517
3.34483
3.32715
3.30332
3.28363
3.28691
3.30167
3.3904
3.39468
3.40693
3.42822
3.44879
3.46592
3.47832
3.4863
3.49041
3.4923
3.49329
3.49386
3.49348
3.49121
3.48628
3.47702
3.46382
3.45141
3.44404
3.44087
3.57023
3.59379
3.61061
3.61491
3.61626
3.61733
3.61925
3.62222
3.6247
3.62659
3.62772
3.62905
3.63069
3.63348
3.63851
3.64693
3.65768
3.66614
3.65965
3.63836
3.76514
3.77979
3.78634
3.78354
3.77576
3.76817
3.76314
3.761
3.76052
3.76076
3.7612
3.76256
3.76515
3.77094
3.78059
3.79397
3.80856
3.81851
3.81715
3.80192
3.94612
3.95469
3.95425
3.94364
3.92662
3.9116
3.90174
3.89614
3.89323
3.89223
3.89201
3.89239
3.89289
3.89312
3.89318
3.8952
3.90053
3.90641
3.90993
3.90707
4.05397
4.04776
4.04086
4.03744
4.03326
4.02907
4.0256
4.02303
4.02163
4.02118
4.02198
4.02321
4.02469
4.0242
4.01896
4.00633
3.98741
3.97113
3.97331
3.98587
4.13349
4.11915
4.11929
4.13791
4.15364
4.15947
4.15826
4.15489
4.15214
4.15114
4.15199
4.15422
4.158
4.16263
4.16816
4.17201
4.17132
4.16758
4.16169
4.15415
4.27284
4.28249
4.29106
4.29424
4.29501
4.29208
4.28741
4.2821
4.27777
4.27525
4.27449
4.27543
4.2772
4.2814
4.29018
4.30649
4.3288
4.34612
4.34206
4.31903
4.39207
4.40112
4.39692
4.38945
4.38942
4.39311
4.39658
4.39777
4.39735
4.3962
4.39506
4.39409
4.39286
4.39031
4.38554
4.38012
4.37762
4.37779
4.37984
4.37617
4.49407
4.4924
4.48456
4.48716
4.4968
4.5078
4.5166
4.52175
4.52427
4.52456
4.52443
4.5232
4.52082
4.51448
4.50126
4.4777
4.44761
4.42412
4.42244
4.43244
4.63954
4.6464
4.64593
4.64814
4.6511
4.65454
4.65844
4.6613
4.6631
4.66396
4.66489
4.66529
4.66567
4.66486
4.66291
4.65791
4.6478
4.63656
4.6263
4.61504
4.8147
4.82748
4.83081
4.82889
4.82302
4.81553
4.80951
4.80619
4.80482
4.80484
4.80591
4.80856
4.8126
4.82007
4.83282
4.8529
4.87608
4.89097
4.88208
4.85044
4.9745
4.98857
4.98984
4.9803
4.9673
4.95513
4.94508
4.93859
4.93523
4.93476
4.93621
4.93992
4.94588
4.9548
4.96758
4.98538
5.00453
5.01624
5.01635
5.00195
5.06871
5.07345
5.07007
5.06426
5.05927
5.05679
5.05455
5.05251
5.05104
5.05084
5.05213
5.0551
5.05951
5.06442
5.06829
5.06958
5.06882
5.06772
5.0719
5.07667
5.13924
5.13355
5.13135
5.14263
5.15666
5.16666
5.17002
5.16964
5.16764
5.16592
5.16426
5.16271
5.16039
5.15612
5.14837
5.13593
5.12234
5.11419
5.11612
5.12048
5.26869
5.28184
5.28733
5.28917
5.29111
5.29248
5.29303
5.29217
5.29037
5.28803
5.28576
5.28221
5.27548
5.26307
5.24391
5.21838
5.19063
5.17071
5.16852
5.17116
5.39028
5.40883
5.41229
5.40797
5.40705
5.4109
5.41686
5.42075
5.422
5.42114
5.41958
5.4167
5.41198
5.40364
5.39181
5.37726
5.36121
5.34772
5.3382
5.3246
5.51252
5.51543
5.52022
5.53819
5.55636
5.56817
5.57295
5.57293
5.57042
5.56707
5.56335
5.56013
5.55761
5.55778
5.56217
5.57248
5.58639
5.59564
5.58504
5.55186
5.7362
5.75942
5.77175
5.76965
5.75919
5.74659
5.73554
5.72691
5.72011
5.71519
5.71187
5.71061
5.7114
5.71555
5.72402
5.7365
5.74948
5.75647
5.75453
5.73752
5.90227
5.92491
5.92656
5.90702
5.88303
5.86652
5.85801
5.85437
5.85307
5.85334
5.85572
5.86086
5.86898
5.87952
5.8911
5.90194
5.91088
5.91549
5.91915
5.91743
5.94639
5.93298
5.92307
5.93049
5.94378
5.95821
5.96908
5.97656
5.98184
5.9872
5.99329
6.00217
6.01426
6.03003
6.0481
6.06725
6.08599
6.10056
6.1073
6.10214
6.05095
6.03746
6.03621
6.05545
6.07865
6.0968
6.108
6.11437
6.11824
6.12225
6.12705
6.13406
6.14282
6.15415
6.16681
6.18012
6.19288
6.20433
6.2151
6.21506
6.27518
6.29211
6.299
6.29275
6.28158
6.27072
6.26363
6.25927
6.25636
6.25526
6.25555
6.25745
6.25952
6.26041
6.25789
6.25174
6.2448
6.24284
6.25148
6.25586
6.4743
6.49857
6.49677
6.47291
6.44401
6.41907
6.40152
6.39027
6.38356
6.37976
6.37806
6.37678
6.37362
6.36556
6.35025
6.32751
6.30211
6.28493
6.28537
6.28602
6.54154
6.54281
6.53392
6.52751
6.52091
6.51397
6.50731
6.50236
6.49935
6.4978
6.49723
6.49609
6.49274
6.48512
6.47292
6.45702
6.43915
6.42441
6.41416
6.39566
6.56259
6.55023
6.54517
6.56349
6.5884
6.6085
6.61903
6.62282
6.62285
6.62214
6.62065
6.6187
6.61543
6.61215
6.61017
6.61247
6.61855
6.62168
6.60597
6.56383
6.67584
6.68653
6.69531
6.71222
6.73192
6.74784
6.75702
6.76076
6.7605
6.75878
6.75627
6.75355
6.75022
6.74642
6.74237
6.7399
6.73888
6.73423
6.72299
6.69531
6.87369
6.90779
6.91856
6.91468
6.90988
6.90797
6.90787
6.90764
6.90609
6.90349
6.90122
6.89969
6.89898
6.89785
6.89552
6.89085
6.88402
6.87308
6.86359
6.84982
7.08129
7.11046
7.11578
7.10543
7.08881
7.07444
7.06425
7.05771
7.05331
7.05054
7.04923
7.04982
7.05251
7.05776
7.06571
7.07463
7.0819
7.08258
7.07589
7.0579
7.24532
7.26226
7.26165
7.25075
7.23305
7.21649
7.20462
7.19771
7.19445
7.1941
7.19594
7.20057
7.20775
7.21789
7.23034
7.24411
7.25582
7.261
7.26251
7.25039
7.32782
7.31941
7.31198
7.32177
7.33118
7.33628
7.33716
7.33615
7.33517
7.3364
7.33983
7.34664
7.35645
7.36886
7.38134
7.39158
7.39726
7.39904
7.40561
7.40143
7.44765
7.44486
7.44546
7.46439
7.48122
7.48812
7.48679
7.48233
7.47829
7.47718
7.47958
7.48602
7.49499
7.50492
7.51259
7.51475
7.50963
7.50296
7.50914
7.5087
7.6325
7.65991
7.66639
7.66083
7.65164
7.64069
7.63013
7.62104
7.61432
7.6109
7.61097
7.61393
7.61829
7.62238
7.62489
7.62454
7.61941
7.61393
7.61779
7.6103
7.75603
7.77955
7.77615
7.76582
7.75925
7.75605
7.75284
7.74856
7.74388
7.74059
7.73883
7.73823
7.73637
7.73261
7.72702
7.72183
7.72032
7.72537
7.73106
7.7114
7.83234
7.8343
7.83258
7.85147
7.87136
7.88244
7.88381
7.88037
7.87589
7.87279
7.87173
7.87175
7.8711
7.86644
7.85487
7.83738
7.81928
7.80998
7.81378
7.79942
7.97101
7.99233
7.9986
8.00476
8.00974
8.01166
8.01067
8.00795
8.00476
8.00268
8.0027
8.00462
8.00729
8.00907
8.00719
7.99967
7.98841
7.97757
7.96947
7.94148
8.08193
8.10852
8.11034
8.10805
8.11008
8.11715
8.12457
8.12891
8.13037
8.1305
8.13093
8.13187
8.13356
8.13526
8.13705
8.13941
8.14164
8.13884
8.1294
8.09671
8.17112
8.17985
8.18143
8.20418
8.22955
8.24941
8.26074
8.26491
8.26529
8.26413
8.26302
8.26188
8.25993
8.25685
8.2533
8.25006
8.24861
8.24623
8.24355
8.21964
8.36408
8.39423
8.40222
8.40677
8.4085
8.40976
8.41018
8.40844
8.40544
8.40199
8.39981
8.3978
8.39585
8.3911
8.38318
8.37193
8.35861
8.34464
8.34284
8.32814
8.54287
8.57958
8.57893
8.5657
8.55163
8.54475
8.54297
8.54217
8.54044
8.53825
8.53662
8.53574
8.5349
8.53297
8.52986
8.52536
8.52102
8.51567
8.51333
8.48726
8.65361
8.66811
8.65984
8.66546
8.67035
8.67385
8.67591
8.67736
8.67759
8.67723
8.67679
8.67657
8.67695
8.67806
8.68064
8.6846
8.68847
8.68918
8.69088
8.66145
8.80425
8.82512
8.81819
8.81821
8.81829
8.81933
8.82052
8.82146
8.82152
8.82134
8.82135
8.82263
8.82499
8.82961
8.83712
8.8471
8.85802
8.8651
8.87153
8.84167
8.97276
8.99661
8.98694
8.98483
8.98189
8.98031
8.97857
8.9757
8.97245
8.96997
8.96886
8.96946
8.97216
8.97675
8.984
8.99422
9.00568
9.01474
9.02668
9.00083
9.16234
9.1992
9.18905
9.17595
9.15858
9.14348
9.13318
9.12617
9.12137
9.11818
9.11706
9.11835
9.12139
9.12582
9.13054
9.13469
9.13829
9.14216
9.15689
9.13431
9.30277
9.34617
9.33099
9.30987
9.2892
9.27568
9.26975
9.26785
9.26781
9.26857
9.27109
9.27547
9.28222
9.29035
9.2975
9.30137
9.30023
9.29808
9.30974
9.28332
9.39512
9.42198
9.40691
9.41366
9.42
9.4227
9.42262
9.42225
9.42246
9.42464
9.42924
9.43757
9.44914
9.4649
9.4837
9.50274
9.51763
9.52494
9.53139
9.48795
9.59293
9.64804
9.64832
9.6441
9.62983
9.61191
9.59655
9.58658
9.58079
9.57949
9.58161
9.58806
9.5989
9.61526
9.63794
9.66821
9.70245
9.72869
9.73528
9.67207
9.77835
9.85358
9.85847
9.83991
9.80805
9.77576
9.75119
9.73505
9.72606
9.72226
9.72249
9.72648
9.7328
9.74065
9.74762
9.75298
9.75732
9.76088
9.76948
9.72413
9.84993
9.90673
9.90809
9.90968
9.90372
9.89211
9.87982
9.86983
9.86439
9.86242
9.86406
9.86757
9.87248
9.87477
9.86974
9.85237
9.82307
9.79589
9.79342
9.75831
9.92334
9.96719
9.97486
10.0006
10.0203
10.0271
10.0238
10.0175
10.0125
10.0109
10.0127
10.0174
10.0231
10.0273
10.0274
10.0198
10.0022
9.97991
9.96157
9.89975
10.1034
10.17
10.191
10.2106
10.2165
10.2084
10.1939
10.18
10.1696
10.1643
10.1632
10.1655
10.1702
10.1759
10.1828
10.1906
10.1953
10.1914
10.1691
10.0849
10.2783
10.3614
10.3851
10.3909
10.3829
10.3648
10.3453
10.3283
10.3164
10.3096
10.3074
10.3081
10.3102
10.3128
10.3155
10.3154
10.3093
10.2967
10.2793
10.214
10.3293
10.3865
10.4047
10.4317
10.4556
10.466
10.4654
10.4589
10.4527
10.4487
10.4481
10.4492
10.452
10.4528
10.4497
10.4391
10.4202
10.3985
10.3822
10.3376
10.3512
10.3868
10.4097
10.4628
10.5218
10.563
10.5834
10.5894
10.5889
10.5874
10.5869
10.5875
10.5886
10.5881
10.5845
10.5752
10.5602
10.5458
10.5313
10.4895
10.4717
10.5149
10.5419
10.585
10.6392
10.6827
10.7106
10.7243
10.7291
10.7298
10.7292
10.7278
10.7252
10.7194
10.71
10.695