/*--------------------------------*- C++ -*----------------------------------*\
  =========                 |
  \\      /  F ield         | OpenFOAM: The Open Source CFD Toolbox
   \\    /   O peration     | Website:  https://openfoam.org
    \\  /    A nd           | Version:  6
     \\/     M anipulation  |
\*---------------------------------------------------------------------------*/
FoamFile
{
    version     2.0;
    format      ascii;
    class       volScalarField;
    location    "23";
    object      p;
}
// * * * * * * * * * * * * * * * * * * * * * * * * * * * * * * * * * * * * * //

dimensions      [0 2 -2 0 0 0 0];

internalField   nonuniform List<scalar> 
130000
(
0.00600266
0.00519537
0.00465285
0.00423462
0.00386545
0.00353572
0.00324024
0.00297342
0.00272983
0.0025054
0.00229569
0.00209862
0.00191013
0.00172934
0.00155334
0.00138176
0.00121239
0.00104446
0.000872688
0.000708883
0.00609255
0.0056941
0.0052305
0.00485694
0.00451576
0.00419841
0.00389675
0.00360839
0.00332988
0.00305677
0.00278919
0.00252218
0.00225908
0.0019951
0.00173378
0.00147159
0.00121281
0.000949959
0.000682192
0.000411382
0.00737877
0.00678745
0.00618679
0.00568672
0.00522871
0.00479932
0.00439176
0.00400003
0.00362296
0.00325254
0.00289258
0.00253496
0.00218643
0.00183773
0.00149838
0.00115756
0.000826537
0.000491966
0.000160399
-0.000175458
0.0078909
0.00740529
0.00684561
0.00633907
0.00584732
0.00536322
0.00489143
0.0044243
0.00396838
0.00351261
0.00306835
0.00262214
0.00218886
0.00175291
0.00132992
0.000904082
0.000492888
7.67852e-05
-0.000327767
-0.000735841
0.0082022
0.00777555
0.00725618
0.0067549
0.0062514
0.00573764
0.00522991
0.00471505
0.00420811
0.00369269
0.00318782
0.00267519
0.00217535
0.00166777
0.00117574
0.000676531
0.000195395
-0.000292565
-0.000763822
-0.0012406
0.00823289
0.0078727
0.0073929
0.00690438
0.00639797
0.00586637
0.00533602
0.00478699
0.00424222
0.0036788
0.00312468
0.00255423
0.00199786
0.00142785
0.000875046
0.00031127
-0.000230985
-0.000783448
-0.00131413
-0.00185425
0.00813509
0.00780449
0.00735359
0.00687381
0.00637247
0.00583076
0.00528768
0.0047124
0.00413843
0.0035347
0.00293846
0.00231844
0.001712
0.00108631
0.000479814
-0.000142314
-0.000740325
-0.0013506
-0.00193547
-0.00253356
0.00780291
0.00751123
0.00710022
0.00665099
0.00616859
0.00562978
0.00508204
0.00449012
0.00389441
0.0032593
0.00262941
0.00196782
0.00132024
0.000647781
-4.88927e-06
-0.00067709
-0.00132293
-0.00198475
-0.0026174
-0.0032673
0.00731466
0.00706507
0.00668864
0.00627315
0.00580808
0.00527526
0.00472442
0.00412123
0.00350811
0.00284834
0.00218982
0.00149454
0.000810874
9.79037e-05
-0.000595089
-0.00131176
-0.00200123
-0.00270871
-0.00338545
-0.00408346
0.00672114
0.00649487
0.00614887
0.00576059
0.00531223
0.00478566
0.0042342
0.00362305
0.00299669
0.00231709
0.00163579
0.000911715
0.000198766
-0.000548045
-0.00127531
-0.00202969
-0.00275574
-0.00350354
-0.00421826
-0.00495848
0.00598147
0.005792
0.00547544
0.00511209
0.00467842
0.00415779
0.00360737
0.00299101
0.00235534
0.00166065
0.000961015
0.000214502
-0.000523407
-0.0012991
-0.0020557
-0.0028434
-0.0036028
-0.00438607
-0.00513587
-0.00591526
0.00508203
0.00491679
0.00463291
0.00430002
0.00389016
0.00338348
0.00284203
0.00222814
0.00159037
0.000887453
0.000176592
-0.000586916
-0.00134285
-0.00214116
-0.00292156
-0.00373674
-0.00452338
-0.00533791
-0.00611763
-0.00693144
0.00403456
0.0039047
0.0036532
0.00335582
0.00296905
0.00247934
0.0019484
0.00134119
0.000704619
-1.47483e-06
-0.000719999
-0.00149455
-0.00226535
-0.00308209
-0.00388275
-0.00472204
-0.00553416
-0.00637632
-0.00718463
-0.00803096
0.00288544
0.00279625
0.00257685
0.00230975
0.0019439
0.00147117
0.000952371
0.000353763
-0.000278864
-0.000985221
-0.00170751
-0.00249052
-0.00327177
-0.00410309
-0.00492054
-0.00578023
-0.00661366
-0.00748109
-0.00831467
-0.00919062
0.00168857
0.00162231
0.00142722
0.00117747
0.000827755
0.000368565
-0.000138165
-0.000728208
-0.00135561
-0.00206044
-0.00278529
-0.00357346
-0.00436426
-0.00520781
-0.00604089
-0.00691905
-0.00777407
-0.00866437
-0.00952391
-0.0104284
0.000343444
0.000321354
0.000162524
-5.71442e-05
-0.000383075
-0.000821802
-0.00131151
-0.00188847
-0.00250764
-0.00320809
-0.00393273
-0.00472462
-0.00552235
-0.00637623
-0.00722306
-0.00811798
-0.00899217
-0.00990496
-0.0107887
-0.011721
-0.00108898
-0.00107496
-0.00119537
-0.00137713
-0.00167478
-0.00208777
-0.0025576
-0.0031175
-0.00372701
-0.00442027
-0.00514472
-0.00593742
-0.00674288
-0.00760514
-0.00846642
-0.00937636
-0.0102716
-0.0112045
-0.0121146
-0.013073
-0.00258978
-0.00251789
-0.00259577
-0.00273154
-0.00300162
-0.00338905
-0.00384085
-0.00438388
-0.00498497
-0.00567163
-0.00639612
-0.00719071
-0.00800332
-0.0088745
-0.00974983
-0.0106755
-0.0115906
-0.0125454
-0.0134813
-0.0144674
-0.00404107
-0.00393579
-0.00398325
-0.00408973
-0.00433942
-0.00470788
-0.00514602
-0.00567479
-0.0062696
-0.0069504
-0.00767704
-0.00847259
-0.00929462
-0.0101734
-0.0110648
-0.0120044
-0.012942
-0.013916
-0.0148801
-0.0158914
-0.00548236
-0.00534204
-0.00536122
-0.0054426
-0.00567452
-0.00602781
-0.00645547
-0.00697276
-0.00756245
-0.00823895
-0.00896822
-0.00976684
-0.010598
-0.0114865
-0.0123935
-0.0133494
-0.0143084
-0.0153048
-0.0162966
-0.0173365
-0.0069418
-0.00677197
-0.00675798
-0.00680768
-0.00701677
-0.0073498
-0.00776536
-0.00826955
-0.00885381
-0.00952415
-0.0102569
-0.0110567
-0.0118988
-0.0127946
-0.0137192
-0.0146883
-0.0156713
-0.016686
-0.0177076
-0.0187717
-0.00841757
-0.00819307
-0.00814297
-0.00815149
-0.0083376
-0.00864786
-0.00905232
-0.00954416
-0.0101247
-0.0107894
-0.0115255
-0.0123279
-0.0131804
-0.0140861
-0.0150275
-0.0160133
-0.0170192
-0.0180568
-0.0191078
-0.0202013
-0.00977342
-0.00952452
-0.00945223
-0.00943334
-0.00960369
-0.00989549
-0.0102915
-0.0107722
-0.0113515
-0.0120104
-0.0127512
-0.0135541
-0.0144188
-0.0153311
-0.0162913
-0.0172898
-0.018321
-0.0193767
-0.0204589
-0.0215759
-0.0110819
-0.0107978
-0.0107012
-0.0106555
-0.0108101
-0.0110847
-0.0114718
-0.0119419
-0.0125206
-0.0131758
-0.0139209
-0.0147261
-0.0156014
-0.0165235
-0.017501
-0.0185165
-0.0195716
-0.0206509
-0.0217638
-0.0229112
-0.0123158
-0.0120107
-0.0118868
-0.0118107
-0.0119454
-0.012199
-0.0125747
-0.013031
-0.0136074
-0.0142573
-0.0150072
-0.0158118
-0.0166982
-0.0176257
-0.0186217
-0.0196489
-0.0207293
-0.0218258
-0.0229705
-0.0241409
-0.0135528
-0.0131779
-0.0130126
-0.0128914
-0.0130003
-0.0132283
-0.0135896
-0.0140305
-0.0146022
-0.0152471
-0.0160006
-0.016807
-0.0177025
-0.0186388
-0.0196509
-0.0206946
-0.0217979
-0.0229176
-0.0240929
-0.0252948
-0.0145693
-0.0141749
-0.0139838
-0.0138343
-0.0139233
-0.0141314
-0.0144798
-0.0149063
-0.0154727
-0.0161114
-0.0168687
-0.0176757
-0.0185816
-0.0195236
-0.020553
-0.0216085
-0.0227363
-0.0238731
-0.0250796
-0.0263057
-0.0155355
-0.0150844
-0.0148522
-0.0146666
-0.0147294
-0.0149154
-0.0152473
-0.0156593
-0.0162179
-0.0168508
-0.0176096
-0.0184198
-0.0193348
-0.0202867
-0.0213319
-0.0224043
-0.0235547
-0.0247154
-0.0259519
-0.0272102
-0.0163035
-0.0158277
-0.015562
-0.0153469
-0.0153847
-0.0155501
-0.0158651
-0.0162623
-0.0168119
-0.017438
-0.0181976
-0.0190091
-0.0199338
-0.020894
-0.021956
-0.0230428
-0.0242175
-0.0253983
-0.0266656
-0.0279514
-0.01701
-0.0164724
-0.0161583
-0.0159004
-0.0159056
-0.0160443
-0.0163382
-0.0167181
-0.0172565
-0.0178751
-0.0186332
-0.019447
-0.0203795
-0.0213507
-0.0224288
-0.0235344
-0.0247322
-0.0259388
-0.0272366
-0.028557
-0.0174931
-0.0169241
-0.0165724
-0.0162785
-0.0162543
-0.0163678
-0.016641
-0.0170035
-0.0175303
-0.0181405
-0.0188969
-0.0197113
-0.020652
-0.021633
-0.0227282
-0.0238517
-0.0250747
-0.0263054
-0.0276354
-0.0289885
-0.0178786
-0.0172455
-0.0168421
-0.0165008
-0.0164403
-0.016524
-0.0167731
-0.0171164
-0.0176298
-0.0182314
-0.0189844
-0.0198007
-0.0207477
-0.0217401
-0.0228516
-0.023996
-0.0252439
-0.0265037
-0.0278664
-0.0292584
-0.0180314
-0.0173618
-0.0169143
-0.0165323
-0.0164373
-0.0164926
-0.0167176
-0.0170416
-0.0175412
-0.0181336
-0.0188834
-0.0197002
-0.0206545
-0.0216574
-0.0227859
-0.0239506
-0.0252257
-0.0265144
-0.0279129
-0.0293443
-0.0180734
-0.0173314
-0.0168237
-0.0163884
-0.0162512
-0.0162725
-0.0164694
-0.0167717
-0.0172553
-0.017838
-0.0185829
-0.019401
-0.0203609
-0.0213755
-0.0225205
-0.0237077
-0.0250094
-0.026331
-0.027766
-0.0292418
-0.0178707
-0.0170796
-0.0165182
-0.0160345
-0.0158558
-0.0158434
-0.0160112
-0.0162907
-0.0167572
-0.0173292
-0.0180693
-0.0188874
-0.0198537
-0.0208799
-0.0220424
-0.0232523
-0.0245833
-0.0259375
-0.0274121
-0.028934
-0.0175234
-0.0166503
-0.0160202
-0.0154754
-0.0152474
-0.0151953
-0.0153293
-0.015583
-0.0160297
-0.0165896
-0.0173227
-0.0181416
-0.0191129
-0.0201513
-0.0213313
-0.0225657
-0.0239257
-0.0253165
-0.0268317
-0.0284043
-0.016897
-0.015968
-0.015275
-0.0146742
-0.0143968
-0.0143048
-0.0144034
-0.0146296
-0.0150546
-0.0156007
-0.0163263
-0.0171442
-0.0181212
-0.0191718
-0.0203704
-0.0216301
-0.0230223
-0.0244503
-0.0260101
-0.0276358
-0.0161006
-0.015078
-0.0143048
-0.0136334
-0.0132976
-0.0131581
-0.0132158
-0.0134102
-0.01381
-0.01434
-0.0150553
-0.0158722
-0.0168532
-0.0179165
-0.0191335
-0.0204203
-0.0218446
-0.0233138
-0.0249195
-0.0266029
-0.0149918
-0.0138982
-0.0130501
-0.0123114
-0.0119163
-0.0117279
-0.0117421
-0.0119022
-0.0122743
-0.0127859
-0.0134898
-0.0143033
-0.0152885
-0.0163641
-0.0176005
-0.018915
-0.0203747
-0.0218859
-0.0235415
-0.0252854
-0.0136703
-0.0124688
-0.0115283
-0.0107068
-0.0102423
-0.0099965
-0.00996089
-0.0100815
-0.0104216
-0.0109118
-0.0116008
-0.0124103
-0.0133972
-0.014485
-0.0157403
-0.0170838
-0.0185787
-0.0201355
-0.0218422
-0.0236509
-0.0119913
-0.0107066
-0.00967748
-0.0087762
-0.00824039
-0.00793483
-0.00784569
-0.00792334
-0.00822796
-0.0086933
-0.00936556
-0.0101678
-0.0111562
-0.0122551
-0.0135296
-0.0149024
-0.0164353
-0.0180386
-0.0198003
-0.0216769
-0.0100696
-0.00865842
-0.00751952
-0.00652006
-0.00590056
-0.00552478
-0.00537405
-0.00540187
-0.00566536
-0.00610152
-0.0067525
-0.00754578
-0.00853216
-0.00964113
-0.0109337
-0.0123365
-0.0139067
-0.0155596
-0.0173776
-0.0193264
-0.00775086
-0.00623494
-0.00498891
-0.00389216
-0.00318531
-0.00273517
-0.00251751
-0.00249049
-0.0027078
-0.00311017
-0.00373651
-0.00451655
-0.00549954
-0.00661677
-0.00792701
-0.00935957
-0.0109695
-0.0126727
-0.0145508
-0.0165754
-0.00514386
-0.0034806
-0.0021049
-0.000890893
-8.25948e-05
0.00045395
0.000748258
0.000838636
0.000674716
0.000312128
-0.000283689
-0.00104728
-0.00202234
-0.00314558
-0.0044714
-0.00593347
-0.00758201
-0.00933814
-0.0112775
-0.0133821
-0.00209547
-0.000307443
0.00119744
0.00252924
0.00344463
0.00407356
0.00445189
0.00461261
0.00450906
0.00419273
0.00363252
0.00289127
0.00192702
0.000800878
-0.000539044
-0.00202962
-0.0037185
-0.00552789
-0.00753221
-0.00972061
0.00127499
0.00323493
0.0048943
0.00636703
0.00740617
0.00814258
0.00861723
0.0088596
0.00882602
0.00856445
0.00804786
0.00733428
0.00638719
0.0052621
0.0039115
0.00239392
0.000666678
-0.00119803
-0.00326812
-0.0055444
0.00511367
0.00723075
0.00904732
0.0106659
0.0118377
0.0126913
0.0132727
0.013607
0.0136533
0.0134558
0.0129905
0.0123131
0.0113881
0.0102692
0.00891103
0.00736884
0.00560247
0.00368289
0.00154355
-0.000824389
0.00932237
0.0116403
0.0136392
0.0154283
0.0167515
0.0177401
0.0184435
0.0188842
0.0190231
0.0189016
0.0184986
0.0178655
0.0169717
0.0158653
0.014505
0.0129414
0.0111392
0.00916363
0.00695477
0.00449112
0.0140242
0.0165325
0.0187216
0.0206902
0.0221779
0.0233155
0.0241556
0.0247175
0.024963
0.0249311
0.0246019
0.0240254
0.0231709
0.0220853
0.0207282
0.0191478
0.0173105
0.0152806
0.0129992
0.0104362
0.0191197
0.0218648
0.0242728
0.0264498
0.0281255
0.029435
0.0304322
0.0311352
0.0315054
0.0315799
0.0313404
0.0308331
0.0300311
0.0289759
0.0276308
0.0260391
0.0241717
0.0220877
0.0197343
0.0170678
0.0247127
0.0276926
0.0303334
0.0327347
0.0346182
0.0361205
0.0372966
0.0381622
0.0386779
0.0388788
0.0387466
0.0383263
0.0375898
0.0365778
0.0352534
0.0336581
0.0317636
0.0296287
0.0272011
0.0244277
0.0307132
0.0339742
0.0368798
0.0395393
0.0416607
0.043386
0.0447693
0.0458256
0.0465128
0.0468649
0.0468631
0.0465493
0.0458972
0.0449432
0.0436525
0.0420623
0.0401484
0.0379641
0.0354636
0.0325789
0.0372006
0.0407452
0.0439372
0.0468791
0.0492678
0.0512471
0.0528697
0.0541488
0.0550386
0.0555719
0.055727
0.0555458
0.0549985
0.0541214
0.0528782
0.0513049
0.049377
0.0471487
0.0445735
0.0415739
0.0440659
0.0479475
0.0514664
0.0547354
0.0574332
0.0597099
0.0616135
0.0631568
0.0642882
0.0650395
0.065386
0.0653668
0.0649519
0.0641736
0.0629964
0.0614527
0.0595214
0.0572518
0.0546038
0.0514835
0.0513669
0.055598
0.0594758
0.0631101
0.0661619
0.0687838
0.0710175
0.0728742
0.0742942
0.0753086
0.0758864
0.0760673
0.0758151
0.0751629
0.0740719
0.0725743
0.0706477
0.0683436
0.0656208
0.0623752
0.0589863
0.0636249
0.0679133
0.0719736
0.07544
0.0784705
0.0810962
0.0833277
0.085094
0.0864259
0.087285
0.0877088
0.0876584
0.0871631
0.0861837
0.0847492
0.0828406
0.0805052
0.0777089
0.0743294
0.0669531
0.0720229
0.0767712
0.0813168
0.0852659
0.0887773
0.0918679
0.0945461
0.0967269
0.0984405
0.0996379
0.100358
0.100551
0.10025
0.0994099
0.0980603
0.0961804
0.0938217
0.0909489
0.0874286
0.0751185
0.0806955
0.0859782
0.0910961
0.0956165
0.0996995
0.103343
0.106553
0.109227
0.111395
0.112997
0.11407
0.114559
0.114492
0.113824
0.112582
0.110748
0.108371
0.105423
0.101752
0.0834858
0.0896189
0.0955129
0.101293
0.106482
0.111235
0.115527
0.119359
0.12261
0.12531
0.127384
0.128871
0.129706
0.129921
0.129461
0.128357
0.126587
0.124206
0.121186
0.117361
0.0918894
0.0986761
0.105286
0.111842
0.117811
0.123341
0.128379
0.132921
0.136826
0.140125
0.142732
0.144688
0.14592
0.146461
0.146251
0.14532
0.143647
0.141284
0.13821
0.134238
0.100286
0.107799
0.115231
0.122674
0.129526
0.135922
0.14178
0.147091
0.151697
0.155635
0.158808
0.161268
0.162931
0.163837
0.163919
0.16321
0.161679
0.159385
0.156299
0.152221
0.108464
0.116803
0.125168
0.133606
0.141423
0.148735
0.155433
0.161513
0.166805
0.171361
0.175083
0.178034
0.180132
0.181425
0.181838
0.181407
0.180091
0.177945
0.174936
0.170838
0.116292
0.125515
0.134874
0.144349
0.15314
0.161331
0.168798
0.175546
0.181413
0.186478
0.190651
0.19402
0.196504
0.19817
0.198936
0.198844
0.197832
0.195956
0.193156
0.189191
0.123448
0.133598
0.143954
0.154406
0.164058
0.172967
0.181007
0.188206
0.194428
0.19979
0.20423
0.207864
0.210628
0.212608
0.213718
0.214006
0.213389
0.211913
0.209493
0.205855
0.129517
0.140578
0.151849
0.163092
0.173341
0.182657
0.19094
0.198259
0.204525
0.2099
0.214359
0.218057
0.220939
0.223126
0.224523
0.22519
0.225016
0.224048
0.222153
0.219036
0.133912
0.145788
0.15779
0.169529
0.180002
0.189308
0.197422
0.20447
0.210428
0.215507
0.219722
0.223262
0.226089
0.228339
0.229917
0.230897
0.231143
0.230699
0.22939
0.22689
0.135881
0.148428
0.160901
0.172768
0.183047
0.191917
0.199463
0.205884
0.211226
0.215745
0.21949
0.222679
0.225275
0.227429
0.229038
0.230191
0.23073
0.230707
0.229898
0.227955
0.134802
0.147789
0.160424
0.172053
0.181768
0.189863
0.196554
0.202106
0.206633
0.210417
0.213541
0.216226
0.218443
0.220336
0.221796
0.22292
0.223534
0.223691
0.223144
0.221524
0.13001
0.14326
0.155807
0.166925
0.175841
0.18298
0.18869
0.193287
0.196935
0.199923
0.202349
0.204432
0.206138
0.207604
0.208713
0.209554
0.209942
0.209939
0.209288
0.20761
0.121402
0.134708
0.146977
0.157443
0.16549
0.171668
0.176435
0.18013
0.182945
0.185155
0.186868
0.188278
0.189359
0.190233
0.190775
0.191057
0.190883
0.190323
0.189139
0.18694
0.108849
0.122171
0.134135
0.143973
0.151243
0.1566
0.16058
0.163514
0.165607
0.167101
0.168107
0.168793
0.169137
0.169239
0.168982
0.168401
0.167305
0.165774
0.163599
0.160368
0.0929429
0.106217
0.117921
0.127266
0.133952
0.138706
0.142108
0.144455
0.145954
0.146799
0.147103
0.146997
0.146481
0.145623
0.144314
0.142565
0.140197
0.137283
0.133663
0.128898
0.0739171
0.0872876
0.0989253
0.108023
0.114394
0.118805
0.121858
0.12379
0.124801
0.125036
0.124617
0.12363
0.122092
0.120039
0.117399
0.114141
0.110123
0.105389
0.0998463
0.0930144
0.0526686
0.0662046
0.0779724
0.0870885
0.0934248
0.0977553
0.100671
0.102342
0.10295
0.102585
0.101383
0.0993842
0.0966367
0.0931256
0.0888314
0.0837015
0.0776214
0.070599
0.0626278
0.05318
0.0293608
0.0433346
0.0555329
0.0649873
0.0715928
0.0761038
0.0790888
0.0806372
0.0809147
0.0799436
0.077883
0.0747161
0.0705201
0.0652259
0.0589052
0.0514473
0.0428052
0.0329288
0.0219209
0.00918297
0.00467846
0.0192408
0.0321379
0.0422498
0.0494369
0.0544057
0.0576745
0.0592475
0.0592716
0.0576994
0.0547094
0.0502022
0.0442983
0.0368699
0.028075
0.0177663
0.00597184
-0.00742198
-0.0221883
-0.0389925
-0.0217526
-0.0062237
0.00775705
0.0189264
0.0270762
0.032846
0.0366874
0.0385008
0.0384076
0.0362724
0.0322925
0.0262705
0.0183688
0.00838072
-0.00340855
-0.0172251
-0.0329149
-0.0506871
-0.0701414
-0.092038
-0.0498483
-0.0330929
-0.0176335
-0.00493776
0.00464702
0.011671
0.0164848
0.0188652
0.0188814
0.0163028
0.0113317
0.0036435
-0.00654588
-0.0195364
-0.0349253
-0.0530026
-0.0734933
-0.0966893
-0.121984
-0.150212
-0.0807978
-0.0622586
-0.0447141
-0.0298198
-0.0181198
-0.00919529
-0.00283186
0.000602444
0.00110905
-0.00167951
-0.00757077
-0.0170409
-0.0298146
-0.0463236
-0.0660055
-0.0892903
-0.115708
-0.145665
-0.178275
-0.214482
-0.115299
-0.0944856
-0.0741313
-0.0561636
-0.0414392
-0.0297175
-0.0209829
-0.015787
-0.0142382
-0.0168588
-0.0234909
-0.0347939
-0.0504359
-0.070995
-0.0957661
-0.125314
-0.158998
-0.197321
-0.239053
-0.285212
-0.155434
-0.13143
-0.107182
-0.0848979
-0.0658744
-0.0501249
-0.0378933
-0.0299604
-0.0265883
-0.0285093
-0.0356123
-0.0487737
-0.0675866
-0.092823
-0.12359
-0.160713
-0.203288
-0.25196
-0.305038
-0.363657
-0.20258
-0.174449
-0.144961
-0.116773
-0.0918169
-0.0704479
-0.0532748
-0.0413618
-0.035179
-0.0356862
-0.0428257
-0.0577187
-0.0799137
-0.110431
-0.14825
-0.194434
-0.247819
-0.309157
-0.376289
-0.450388
-0.259448
-0.22565
-0.189031
-0.152833
-0.119846
-0.0908834
-0.0669986
-0.0496089
-0.0394439
-0.0377797
-0.0446535
-0.0614446
-0.0875798
-0.12435
-0.170513
-0.227476
-0.293731
-0.37036
-0.454682
-0.547912
-0.327517
-0.286392
-0.240379
-0.193651
-0.150165
-0.11143
-0.0791069
-0.0550473
-0.0402155
-0.0361458
-0.0428909
-0.0620923
-0.0930798
-0.137429
-0.193661
-0.263379
-0.344799
-0.439407
-0.544139
-0.660451
-0.409398
-0.358502
-0.300224
-0.240064
-0.183596
-0.133178
-0.0910912
-0.0596942
-0.0401651
-0.0342335
-0.0418809
-0.0649886
-0.102591
-0.156509
-0.224887
-0.30969
-0.408904
-0.524759
-0.654007
-0.798322
-0.505646
-0.442445
-0.368849
-0.292474
-0.220918
-0.157604
-0.105486
-0.0673252
-0.0443785
-0.0385234
-0.0494445
-0.0791502
-0.126307
-0.192875
-0.276705
-0.380115
-0.500887
-0.642091
-0.800569
-0.978316
-0.617941
-0.538898
-0.446642
-0.351806
-0.264261
-0.18854
-0.128008
-0.0857124
-0.0626287
-0.0607168
-0.0791403
-0.119805
-0.180906
-0.264945
-0.36928
-0.496669
-0.644862
-0.818321
-1.01394
-1.2336
-0.746399
-0.648029
-0.534171
-0.419935
-0.317788
-0.233078
-0.168943
-0.128075
-0.110596
-0.118173
-0.149496
-0.206668
-0.287462
-0.39497
-0.526374
-0.685256
-0.869732
-1.08558
-1.32941
-1.60191
-0.893978
-0.772504
-0.635769
-0.504531
-0.393355
-0.307144
-0.247272
-0.215178
-0.209915
-0.23285
-0.282085
-0.360147
-0.465256
-0.601428
-0.76599
-0.963857
-1.19381
-1.4624
-1.76498
-2.09944
-1.06524
-0.918617
-0.76167
-0.621362
-0.511671
-0.434501
-0.387774
-0.371076
-0.382452
-0.423291
-0.49198
-0.591943
-0.722057
-0.88747
-1.08638
-1.32497
-1.60237
-1.92472
-2.28552
-2.67814
-1.27364
-1.10143
-0.931205
-0.793928
-0.697952
-0.638683
-0.610144
-0.610643
-0.63841
-0.694972
-0.779318
-0.89571
-1.04444
-1.23187
-1.4578
-1.72909
-2.04476
-2.40903
-2.81409
-3.24892
-1.5326
-1.33966
-1.16739
-1.04419
-0.967181
-0.925489
-0.911875
-0.924881
-0.963044
-1.0275
-1.11809
-1.23946
-1.39389
-1.58904
-1.82669
-2.11363
-2.44838
-2.83248
-3.25807
-3.70913
-1.86433
-1.65848
-1.49373
-1.38578
-1.32114
-1.28733
-1.27867
-1.29334
-1.33007
-1.38937
-1.47252
-1.58411
-1.72873
-1.91395
-2.14379
-2.4237
-2.75237
-3.12787
-3.54206
-3.97384
-2.3074
-2.09603
-1.93704
-1.83159
-1.76294
-1.72033
-1.69999
-1.70004
-1.72035
-1.76088
-1.82408
-1.913
-2.0338
-2.19247
-2.39513
-2.64481
-2.94055
-3.27544
-3.64056
-4.01376
-2.93566
-2.70027
-2.51533
-2.37796
-2.27442
-2.19653
-2.14297
-2.1116
-2.10311
-2.1152
-2.15037
-2.20841
-2.2961
-2.41597
-2.57642
-2.77656
-3.01655
-3.28341
-3.56869
-3.85367
-3.74839
-3.42715
-3.15266
-2.93227
-2.75784
-2.62202
-2.52204
-2.45232
-2.41116
-2.39261
-2.39816
-2.42365
-2.47563
-2.55151
-2.6608
-2.79807
-2.96668
-3.1516
-3.35081
-3.5419
-4.44297
-4.0309
-3.64733
-3.34176
-3.10739
-2.93136
-2.80181
-2.70581
-2.63937
-2.59441
-2.5728
-2.56698
-2.58294
-2.61239
-2.66431
-2.72742
-2.81175
-2.911
-3.03076
-3.09915
-4.47605
-4.23455
-3.85738
-3.55675
-3.33434
-3.16774
-3.03918
-2.93538
-2.85587
-2.7929
-2.74983
-2.71733
-2.70173
-2.68863
-2.68509
-2.67357
-2.67401
-2.69494
-2.72146
-2.50279
-3.70725
-4.05564
-3.8467
-3.5993
-3.40607
-3.25656
-3.1352
-3.02906
-2.9446
-2.87181
-2.82035
-2.77485
-2.74823
-2.71724
-2.69971
-2.6675
-2.66004
-2.6743
-2.61195
-1.96729
-2.8791
-3.85647
-3.89284
-3.64917
-3.45242
-3.304
-3.17878
-3.07061
-2.98104
-2.90705
-2.84971
-2.80428
-2.77261
-2.74886
-2.73541
-2.73114
-2.75735
-2.80071
-2.66226
-2.02596
0.00241098
0.00231359
0.00220329
0.00211029
0.00201202
0.00192105
0.00184126
0.0017671
0.00170052
0.00163748
0.00157989
0.00152422
0.00147159
0.00141946
0.00136726
0.0013145
0.00125996
0.00120147
0.00112711
0.00103503
0.0107037
0.0105694
0.0104386
0.0103228
0.0101918
0.0100684
0.00994717
0.0098296
0.00971024
0.00959151
0.00947025
0.00934765
0.00922186
0.00909233
0.00895947
0.00882215
0.00868239
0.00853459
0.00837012
0.00820517
0.0192034
0.019082
0.0188978
0.0187354
0.0185469
0.0183664
0.0181769
0.0179942
0.0178021
0.0176147
0.0174186
0.0172256
0.0170242
0.016825
0.0166167
0.0164103
0.0161955
0.0159783
0.0157403
0.0155016
0.0274749
0.0273449
0.0271356
0.0269497
0.0267229
0.0265023
0.0262613
0.0260273
0.0257749
0.0255283
0.0252663
0.0250086
0.0247378
0.0244694
0.0241902
0.023912
0.0236248
0.0233341
0.0230254
0.0227151
0.0360439
0.0359076
0.0356817
0.0354795
0.0352211
0.0349683
0.0346834
0.0344065
0.0341013
0.0338032
0.0334816
0.0331671
0.0328328
0.0325051
0.0321596
0.0318196
0.0314636
0.031109
0.0307314
0.0303587
0.0446185
0.0444827
0.0442452
0.0440323
0.0437497
0.0434717
0.0431514
0.0428392
0.0424899
0.0421476
0.0417749
0.0414093
0.0410189
0.0406337
0.0402277
0.0398246
0.0394037
0.0389826
0.0385374
0.0380932
0.0533587
0.053222
0.0529752
0.0527558
0.0524548
0.0521596
0.0518126
0.0514742
0.051089
0.0507112
0.0502943
0.049885
0.049443
0.049008
0.0485442
0.0480859
0.047603
0.0471236
0.0466147
0.0461097
0.0622407
0.0621077
0.0618578
0.061638
0.0613252
0.0610181
0.0606508
0.0602915
0.0598772
0.059469
0.0590143
0.0585653
0.0580773
0.0575934
0.0570769
0.0565631
0.0560227
0.0554833
0.0549125
0.054341
0.0712831
0.0711587
0.0709113
0.0706964
0.0703769
0.0700626
0.0696795
0.0693042
0.0688655
0.0684315
0.0679427
0.0674586
0.0669281
0.066402
0.065836
0.0652738
0.0646784
0.0640857
0.0634557
0.0628253
0.0804539
0.0803451
0.0801071
0.0799028
0.0795825
0.0792644
0.0788695
0.078481
0.0780215
0.0775645
0.0770461
0.0765299
0.0759619
0.075395
0.0747843
0.0741734
0.0735261
0.0728778
0.0721894
0.0714953
0.0897373
0.0896519
0.0894307
0.0892437
0.0889275
0.0886098
0.0882054
0.0878056
0.0873273
0.0868506
0.0863058
0.0857622
0.0851603
0.0845587
0.083906
0.0832519
0.0825545
0.081856
0.0811119
0.0803606
0.0990904
0.0990313
0.0988314
0.0986645
0.098356
0.0980414
0.0976314
0.0972238
0.0967309
0.0962377
0.0956706
0.0951024
0.0944707
0.0938355
0.093145
0.0924485
0.0917054
0.0909572
0.0901607
0.0893502
0.108479
0.108451
0.108275
0.108131
0.107833
0.107528
0.107119
0.106711
0.106209
0.105704
0.105118
0.104528
0.103868
0.103203
0.102477
0.101743
0.100957
0.100164
0.0993182
0.098455
0.117881
0.117885
0.117735
0.117618
0.117338
0.117048
0.116645
0.11624
0.115734
0.115221
0.11462
0.114011
0.113327
0.112634
0.111874
0.111103
0.110275
0.109437
0.108542
0.107623
0.127289
0.127332
0.127212
0.127127
0.12687
0.126599
0.126207
0.125809
0.125302
0.124787
0.124175
0.123554
0.122849
0.122132
0.121341
0.120535
0.119666
0.118784
0.117839
0.116866
0.136723
0.136807
0.136721
0.136666
0.136432
0.136182
0.135804
0.135418
0.134915
0.134399
0.133781
0.133147
0.132425
0.131683
0.130863
0.130018
0.129108
0.128176
0.127181
0.126145
0.146188
0.146324
0.146277
0.146258
0.146053
0.145828
0.14547
0.145098
0.144603
0.144089
0.143466
0.142822
0.142081
0.141318
0.140467
0.139589
0.138636
0.137659
0.13661
0.135517
0.155721
0.155915
0.155915
0.155935
0.155764
0.155567
0.155232
0.154877
0.154393
0.153883
0.153256
0.152601
0.151844
0.151053
0.150172
0.149253
0.148257
0.147227
0.146122
0.144958
0.165391
0.165654
0.165708
0.165773
0.165642
0.165479
0.165172
0.164836
0.164365
0.16386
0.163231
0.162566
0.16179
0.160975
0.16006
0.159103
0.15806
0.156979
0.155813
0.154584
0.175247
0.175587
0.175701
0.175814
0.175728
0.1756
0.175324
0.175008
0.174552
0.17405
0.173419
0.17274
0.171945
0.171098
0.170147
0.169141
0.168046
0.166901
0.165668
0.164354
0.185392
0.18581
0.185992
0.186157
0.186119
0.186029
0.185785
0.18549
0.185048
0.184549
0.183914
0.183221
0.182404
0.181529
0.180537
0.179487
0.178334
0.177127
0.17582
0.174428
0.195839
0.19635
0.196607
0.196828
0.196842
0.196791
0.19658
0.196305
0.195877
0.19538
0.194741
0.194032
0.193192
0.192279
0.191246
0.190138
0.188923
0.187639
0.18625
0.184758
0.206722
0.207327
0.207662
0.207944
0.208013
0.208005
0.207829
0.207576
0.207162
0.206667
0.206021
0.205295
0.204428
0.203483
0.202403
0.201244
0.199961
0.198607
0.197132
0.195549
0.218054
0.218763
0.219183
0.219531
0.21966
0.219697
0.21956
0.219329
0.21893
0.218435
0.217782
0.217035
0.216141
0.215152
0.214024
0.2128
0.211447
0.210006
0.208437
0.206741
0.229973
0.230782
0.231291
0.231709
0.231903
0.231989
0.231893
0.231689
0.231306
0.230814
0.230153
0.229387
0.228462
0.227436
0.226253
0.224971
0.223541
0.22202
0.220355
0.218556
0.242453
0.24338
0.243987
0.244483
0.244748
0.244887
0.244836
0.244661
0.244297
0.243809
0.243143
0.242357
0.241401
0.240326
0.239089
0.237733
0.236223
0.234605
0.232836
0.230911
0.255634
0.256676
0.257386
0.257966
0.258306
0.258505
0.258503
0.25836
0.258018
0.257538
0.256866
0.256061
0.255073
0.253957
0.252659
0.251237
0.249642
0.247934
0.246056
0.244017
0.269474
0.270649
0.271472
0.272143
0.272564
0.272826
0.272878
0.272771
0.272454
0.271981
0.271306
0.27048
0.26946
0.268292
0.266935
0.265432
0.26375
0.261936
0.259944
0.257768
0.284098
0.285403
0.286343
0.287112
0.28762
0.28795
0.288058
0.287991
0.2877
0.287237
0.286558
0.285712
0.284658
0.283443
0.282023
0.280445
0.27867
0.276755
0.274646
0.272339
0.299448
0.300903
0.301971
0.302847
0.303448
0.303852
0.304022
0.303996
0.303735
0.303281
0.3026
0.301732
0.300644
0.299374
0.297888
0.296223
0.294351
0.292318
0.290083
0.287623
0.315629
0.317236
0.318438
0.31943
0.320131
0.320614
0.32085
0.32087
0.32064
0.320198
0.319514
0.318624
0.317499
0.316176
0.314619
0.312868
0.310894
0.308744
0.306376
0.303765
0.332593
0.334372
0.335722
0.336839
0.337649
0.33822
0.338527
0.338596
0.338401
0.337971
0.337285
0.336371
0.335208
0.333821
0.33219
0.330339
0.328254
0.32597
0.323457
0.32067
0.350432
0.35239
0.353898
0.355153
0.35608
0.356745
0.35713
0.357254
0.357096
0.356681
0.355991
0.355052
0.353845
0.352396
0.350682
0.34873
0.346523
0.3441
0.341432
0.338466
0.369115
0.371275
0.372957
0.374363
0.375419
0.376188
0.376657
0.376841
0.376724
0.376325
0.375633
0.374665
0.373412
0.371889
0.370086
0.368015
0.365677
0.363095
0.360256
0.357084
0.388737
0.391112
0.392982
0.394554
0.39575
0.396635
0.397196
0.397448
0.397374
0.396993
0.396297
0.395299
0.393994
0.392395
0.390492
0.3883
0.385816
0.383067
0.38004
0.376653
0.409285
0.411903
0.413981
0.415736
0.417088
0.4181
0.418764
0.419089
0.419065
0.418704
0.418003
0.416972
0.41561
0.413922
0.41191
0.409576
0.406933
0.403994
0.40076
0.397126
0.430863
0.433744
0.43605
0.438009
0.439532
0.440686
0.441463
0.441872
0.441902
0.441564
0.440858
0.43979
0.438363
0.436582
0.434448
0.431965
0.429144
0.426002
0.42254
0.418645
0.453475
0.456652
0.459213
0.461398
0.463112
0.464426
0.46533
0.465831
0.465922
0.46561
0.464898
0.463788
0.46229
0.4604
0.458131
0.455475
0.452458
0.449083
0.445369
0.441176
0.477232
0.480734
0.483579
0.486017
0.487945
0.489438
0.490484
0.491091
0.49125
0.490967
0.490247
0.489092
0.487513
0.485505
0.483083
0.48024
0.477003
0.473378
0.469384
0.464871
0.502149
0.506018
0.509181
0.511904
0.514075
0.51577
0.516977
0.517703
0.517939
0.517689
0.516961
0.515753
0.514081
0.511935
0.509341
0.506281
0.502798
0.498884
0.494578
0.4897
0.528342
0.532619
0.536138
0.539183
0.541628
0.543553
0.544944
0.545806
0.546129
0.545916
0.545177
0.543907
0.542128
0.539829
0.537038
0.533738
0.529975
0.525746
0.52109
0.515817
0.55582
0.560558
0.564482
0.567892
0.570649
0.572838
0.574439
0.575455
0.575877
0.575705
0.574952
0.573609
0.571706
0.569225
0.566208
0.562627
0.558548
0.553953
0.548905
0.543179
0.584687
0.58994
0.594319
0.598143
0.601256
0.603746
0.605586
0.606779
0.607313
0.607185
0.606412
0.604984
0.602935
0.600248
0.596969
0.593074
0.588634
0.583633
0.578143
0.571921
0.614912
0.620746
0.62564
0.629932
0.633449
0.636281
0.638393
0.639785
0.640443
0.640363
0.639565
0.638035
0.635819
0.632889
0.629312
0.625052
0.620202
0.614736
0.608748
0.601964
0.646528
0.652995
0.658457
0.66327
0.667237
0.670448
0.67286
0.674471
0.675265
0.675235
0.674407
0.672763
0.670357
0.667162
0.663251
0.65859
0.653283
0.647308
0.64077
0.633376
0.679335
0.686483
0.692555
0.697925
0.702372
0.705986
0.708715
0.710556
0.711491
0.711515
0.710656
0.708895
0.706295
0.702819
0.698559
0.693467
0.687673
0.681144
0.674015
0.665957
0.71308
0.720894
0.727565
0.733479
0.738394
0.742399
0.745432
0.747493
0.748565
0.748647
0.74777
0.745915
0.743144
0.739422
0.734837
0.729344
0.723076
0.716008
0.708285
0.699564
0.747052
0.755444
0.762615
0.768975
0.774266