/*--------------------------------*- C++ -*----------------------------------*\
  =========                 |
  \\      /  F ield         | OpenFOAM: The Open Source CFD Toolbox
   \\    /   O peration     | Website:  https://openfoam.org
    \\  /    A nd           | Version:  6
     \\/     M anipulation  |
\*---------------------------------------------------------------------------*/
FoamFile
{
    version     2.0;
    format      ascii;
    class       surfaceScalarField;
    location    "23";
    object      phi;
}
// * * * * * * * * * * * * * * * * * * * * * * * * * * * * * * * * * * * * * //

dimensions      [0 3 -1 0 0 0 0];

internalField   nonuniform List<scalar> 
19400
(
-5.68519e-10
-7.78705e-07
-1.28663e-09
-1.04307e-06
-1.84429e-09
-1.17392e-06
-2.0599e-09
-1.2627e-06
-1.9761e-09
-1.32189e-06
-1.7377e-09
-1.35953e-06
-1.45563e-09
-1.38242e-06
-1.16873e-09
-1.3957e-06
-8.82739e-10
-1.40272e-06
-5.8981e-10
-1.4054e-06
-2.9242e-10
-1.40457e-06
2.35761e-11
-1.40022e-06
3.42372e-10
-1.39156e-06
6.76275e-10
-1.37686e-06
9.78591e-10
-1.353e-06
1.17536e-09
-1.31512e-06
1.12453e-09
-1.25665e-06
7.63887e-10
-1.1694e-06
1.86506e-10
-1.04014e-06
-7.77608e-07
7.1334e-11
-7.78751e-07
-3.7206e-10
-1.04264e-06
-6.78498e-10
-1.1736e-06
-9.22001e-10
-1.26246e-06
-1.04164e-09
-1.32176e-06
-1.06177e-09
-1.35951e-06
-9.90658e-10
-1.38249e-06
-8.70216e-10
-1.39582e-06
-7.13003e-10
-1.40288e-06
-5.50082e-10
-1.40557e-06
-3.83193e-10
-1.40474e-06
-2.23447e-10
-1.40038e-06
-7.14279e-11
-1.39172e-06
6.22314e-11
-1.37699e-06
1.65901e-10
-1.35311e-06
2.30713e-10
-1.31519e-06
2.22813e-10
-1.25665e-06
9.57248e-11
-1.16927e-06
-1.99255e-10
-1.03984e-06
-7.77807e-07
-5.20424e-11
-7.78675e-07
-2.84612e-10
-1.04242e-06
-4.23912e-10
-1.17344e-06
-5.65196e-10
-1.26233e-06
-6.54928e-10
-1.32166e-06
-7.13298e-10
-1.35945e-06
-7.1262e-10
-1.38248e-06
-6.71708e-10
-1.39586e-06
-5.96752e-10
-1.40295e-06
-5.05709e-10
-1.40567e-06
-4.14003e-10
-1.40483e-06
-3.23181e-10
-1.40047e-06
-2.38706e-10
-1.39181e-06
-1.46046e-10
-1.37708e-06
-5.2144e-11
-1.3532e-06
3.29164e-11
-1.31527e-06
6.98377e-11
-1.25668e-06
5.30625e-11
-1.16925e-06
5.25378e-11
-1.03984e-06
-7.77754e-07
-8.07475e-12
-7.78658e-07
-6.83883e-11
-1.04238e-06
-1.18139e-10
-1.17338e-06
-2.20798e-10
-1.26224e-06
-3.12562e-10
-1.32156e-06
-3.95815e-10
-1.35938e-06
-4.38696e-10
-1.38243e-06
-4.64502e-10
-1.39583e-06
-4.65809e-10
-1.40295e-06
-4.49103e-10
-1.40568e-06
-4.15662e-10
-1.40486e-06
-3.82978e-10
-1.40051e-06
-3.49413e-10
-1.39184e-06
-3.01205e-10
-1.37713e-06
-2.43862e-10
-1.35325e-06
-1.94055e-10
-1.31531e-06
-1.61624e-10
-1.25671e-06
-1.40662e-10
-1.16927e-06
-5.88635e-11
-1.03992e-06
-7.77813e-07
-1.4022e-10
-7.78513e-07
-3.83817e-11
-1.04248e-06
-3.43517e-11
-1.17337e-06
-1.29887e-10
-1.26215e-06
-2.03968e-10
-1.32147e-06
-2.66242e-10
-1.35931e-06
-3.15575e-10
-1.38237e-06
-3.69313e-10
-1.39578e-06
-4.04743e-10
-1.4029e-06
-4.26278e-10
-1.40566e-06
-4.21491e-10
-1.40486e-06
-4.14217e-10
-1.40051e-06
-3.99831e-10
-1.39185e-06
-3.73236e-10
-1.37715e-06
-3.41414e-10
-1.35328e-06
-3.07959e-10
-1.31534e-06
-2.417e-10
-1.25678e-06
-1.73104e-10
-1.16934e-06
-3.51526e-12
-1.04009e-06
-7.77816e-07
-3.4876e-11
-7.7848e-07
3.90141e-11
-1.04256e-06
1.57689e-11
-1.17334e-06
-1.27574e-10
-1.26201e-06
-2.12352e-10
-1.32138e-06
-2.75343e-10
-1.35925e-06
-3.23195e-10
-1.38232e-06
-3.73697e-10
-1.39573e-06
-4.0976e-10
-1.40286e-06
-4.34072e-10
-1.40563e-06
-4.31321e-10
-1.40485e-06
-4.21454e-10
-1.40052e-06
-3.97701e-10
-1.39187e-06
-3.68787e-10
-1.37718e-06
-3.44054e-10
-1.35331e-06
-3.17092e-10
-1.31537e-06
-2.68483e-10
-1.25683e-06
-2.07367e-10
-1.1694e-06
-4.65646e-11
-1.04025e-06
-7.77861e-07
1.32383e-10
-7.78622e-07
9.74019e-11
-1.04254e-06
4.38422e-11
-1.17329e-06
-7.03196e-11
-1.2619e-06
-1.51757e-10
-1.3213e-06
-2.30272e-10
-1.35918e-06
-2.96942e-10
-1.38225e-06
-3.53509e-10
-1.39568e-06
-3.92547e-10
-1.40282e-06
-4.1639e-10
-1.40561e-06
-4.17821e-10
-1.40485e-06
-3.98459e-10
-1.40054e-06
-3.73524e-10
-1.39189e-06
-3.53581e-10
-1.3772e-06
-3.38674e-10
-1.35332e-06
-3.09298e-10
-1.3154e-06
-2.77307e-10
-1.25685e-06
-2.35868e-10
-1.16943e-06
-1.2356e-10
-1.04035e-06
-7.77983e-07
1.77975e-10
-7.78806e-07
1.34152e-10
-1.04249e-06
1.0736e-10
-1.17327e-06
5.67547e-11
-1.26185e-06
-2.23611e-11
-1.32123e-06
-1.07093e-10
-1.3591e-06
-2.02755e-10
-1.38216e-06
-2.84325e-10
-1.3956e-06
-3.43276e-10
-1.40276e-06
-3.81855e-10
-1.40557e-06
-3.97479e-10
-1.40484e-06
-3.80994e-10
-1.40055e-06
-3.49266e-10
-1.39192e-06
-3.20992e-10
-1.37722e-06
-3.05597e-10
-1.35333e-06
-2.90428e-10
-1.31541e-06
-2.68099e-10
-1.25687e-06
-2.38698e-10
-1.16945e-06
-1.75812e-10
-1.04041e-06
-7.78158e-07
1.23888e-10
-7.78937e-07
1.58672e-10
-1.04253e-06
1.77158e-10
-1.1733e-06
1.63767e-10
-1.26184e-06
7.38436e-11
-1.32114e-06
-3.41996e-11
-1.359e-06
-1.48738e-10
-1.38205e-06
-2.54189e-10
-1.3955e-06
-3.30607e-10
-1.40269e-06
-3.89086e-10
-1.40552e-06
-4.25525e-10
-1.40481e-06
-4.30851e-10
-1.40055e-06
-4.09266e-10
-1.39195e-06
-3.84446e-10
-1.37725e-06
-3.72554e-10
-1.35334e-06
-3.66289e-10
-1.31542e-06
-3.3114e-10
-1.25691e-06
-2.58718e-10
-1.16953e-06
-2.41683e-10
-1.04043e-06
-7.78401e-07
7.2359e-11
-7.79016e-07
1.72056e-10
-1.04263e-06
1.6347e-10
-1.17329e-06
1.46846e-10
-1.26182e-06
5.7135e-11
-1.32105e-06
-6.99644e-11
-1.35887e-06
-1.8535e-10
-1.38193e-06
-2.92871e-10
-1.39539e-06
-3.70258e-10
-1.40261e-06
-4.3757e-10
-1.40545e-06
-4.84652e-10
-1.40476e-06
-5.15344e-10
-1.40052e-06
-5.15881e-10
-1.39195e-06
-5.1164e-10
-1.37726e-06
-5.05409e-10
-1.35335e-06
-4.80226e-10
-1.31544e-06
-4.04026e-10
-1.25698e-06
-2.40949e-10
-1.16969e-06
-1.56032e-10
-1.04051e-06
-7.78557e-07
1.40158e-10
-7.79162e-07
2.09731e-10
-1.0427e-06
1.99931e-10
-1.17329e-06
1.55076e-10
-1.26177e-06
3.39398e-11
-1.32093e-06
-1.10476e-10
-1.35872e-06
-2.30716e-10
-1.38181e-06
-3.27218e-10
-1.3953e-06
-4.03141e-10
-1.40253e-06
-4.6585e-10
-1.40539e-06
-5.104e-10
-1.40471e-06
-5.37864e-10
-1.4005e-06
-5.38354e-10
-1.39194e-06
-5.31914e-10
-1.37727e-06
-5.10993e-10
-1.35337e-06
-4.61168e-10
-1.31549e-06
-3.6107e-10
-1.25708e-06
-2.04126e-10
-1.16985e-06
-1.11432e-11
-1.04071e-06
-7.78569e-07
1.28317e-10
-7.79292e-07
2.11527e-10
-1.04279e-06
2.14093e-10
-1.17329e-06
1.45023e-10
-1.2617e-06
-9.98082e-12
-1.32078e-06
-1.61121e-10
-1.35857e-06
-2.67605e-10
-1.3817e-06
-3.43976e-10
-1.39521e-06
-4.12216e-10
-1.40246e-06
-4.70126e-10
-1.40533e-06
-5.09451e-10
-1.40467e-06
-5.33899e-10
-1.40048e-06
-5.35142e-10
-1.39194e-06
-5.19488e-10
-1.37728e-06
-4.8457e-10
-1.35341e-06
-4.21597e-10
-1.31556e-06
-3.32152e-10
-1.25717e-06
-2.04362e-10
-1.16998e-06
-3.94708e-11
-1.04088e-06
-7.78609e-07
1.15711e-10
-7.79407e-07
1.93511e-10
-1.04287e-06
2.08589e-10
-1.1733e-06
1.4518e-10
-1.26164e-06
7.94271e-12
-1.32064e-06
-1.28931e-10
-1.35843e-06
-2.35306e-10
-1.3816e-06
-3.2123e-10
-1.39513e-06
-3.9636e-10
-1.40239e-06
-4.58361e-10
-1.40527e-06
-5.05724e-10
-1.40462e-06
-5.40355e-10
-1.40044e-06
-5.56136e-10
-1.39192e-06
-5.36999e-10
-1.3773e-06
-4.83564e-10
-1.35346e-06
-4.10805e-10
-1.31563e-06
-3.34527e-10
-1.25725e-06
-1.87244e-10
-1.17013e-06
-7.01293e-11
-1.041e-06
-7.7868e-07
8.66528e-11
-7.79489e-07
1.60441e-10
-1.04295e-06
2.05568e-10
-1.17335e-06
1.4721e-10
-1.26159e-06
2.42657e-11
-1.32052e-06
-1.03606e-10
-1.3583e-06
-2.17607e-10
-1.38148e-06
-3.16611e-10
-1.39503e-06
-4.02283e-10
-1.4023e-06
-4.67243e-10
-1.4052e-06
-5.21052e-10
-1.40457e-06
-5.65784e-10
-1.40039e-06
-5.90607e-10
-1.3919e-06
-5.73602e-10
-1.37732e-06
-5.0649e-10
-1.35353e-06
-4.10994e-10
-1.31572e-06
-3.30611e-10
-1.25733e-06
-2.08935e-10
-1.17025e-06
-8.19089e-11
-1.04113e-06
-7.7876e-07
1.25561e-10
-7.79599e-07
1.68451e-10
-1.04299e-06
1.56961e-10
-1.17332e-06
6.12466e-11
-1.26149e-06
-4.42332e-11
-1.3204e-06
-1.51437e-10
-1.35819e-06
-2.48246e-10
-1.38138e-06
-3.37524e-10
-1.39494e-06
-4.15623e-10
-1.40222e-06
-4.80781e-10
-1.40513e-06
-5.39544e-10
-1.40451e-06
-5.87886e-10
-1.40034e-06
-6.24573e-10
-1.39186e-06
-6.22875e-10
-1.37731e-06
-5.59219e-10
-1.35359e-06
-4.60596e-10
-1.31582e-06
-3.47905e-10
-1.25744e-06
-2.28905e-10
-1.17037e-06
-1.32273e-10
-1.04122e-06
-7.7889e-07
2.43408e-10
-7.79824e-07
2.26937e-10
-1.04297e-06
1.83945e-10
-1.17327e-06
1.06764e-10
-1.26141e-06
2.65847e-11
-1.32031e-06
-9.02403e-11
-1.35808e-06
-2.08146e-10
-1.38126e-06
-3.09215e-10
-1.39483e-06
-3.90962e-10
-1.40213e-06
-4.57641e-10
-1.40506e-06
-5.15625e-10
-1.40444e-06
-5.62052e-10
-1.40029e-06
-5.98427e-10
-1.39182e-06
-6.02763e-10
-1.3773e-06
-5.50333e-10
-1.35364e-06
-4.61849e-10
-1.3159e-06
-3.27226e-10
-1.25757e-06
-1.73513e-10
-1.17051e-06
-5.9357e-11
-1.04132e-06
-7.78946e-07
1.57885e-10
-7.79964e-07
2.0132e-10
-1.043e-06
1.57437e-10
-1.17321e-06
1.07938e-10
-1.26136e-06
5.24623e-11
-1.32025e-06
-6.76428e-11
-1.35796e-06
-1.94665e-10
-1.38112e-06
-3.06731e-10
-1.39472e-06
-4.01088e-10
-1.40204e-06
-4.69265e-10
-1.40499e-06
-5.27549e-10
-1.40438e-06
-5.65387e-10
-1.40024e-06
-5.88958e-10
-1.39179e-06
-5.74054e-10
-1.37731e-06
-5.11403e-10
-1.35369e-06
-4.12836e-10
-1.316e-06
-2.93483e-10
-1.25768e-06
-1.67081e-10
-1.17062e-06
-7.02198e-11
-1.0414e-06
-7.79014e-07
1.38098e-10
-7.80095e-07
2.00473e-10
-1.04305e-06
1.92539e-10
-1.17319e-06
1.49642e-10
-1.26131e-06
8.06948e-11
-1.32018e-06
-4.12516e-11
-1.35784e-06
-1.78303e-10
-1.38098e-06
-3.14296e-10
-1.39458e-06
-4.35243e-10
-1.40192e-06
-5.40584e-10
-1.40488e-06
-6.25888e-10
-1.4043e-06
-6.91296e-10
-1.40017e-06
-7.31522e-10
-1.39175e-06
-7.34826e-10
-1.3773e-06
-6.87073e-10
-1.35374e-06
-5.72406e-10
-1.31611e-06
-4.04384e-10
-1.25784e-06
-2.40497e-10
-1.17078e-06
-1.92096e-10
-1.04144e-06
-7.79206e-07
6.38751e-11
-7.80168e-07
2.11987e-10
-1.04319e-06
2.62666e-10
-1.17325e-06
2.28349e-10
-1.26128e-06
1.51135e-10
-1.32011e-06
2.62503e-11
-1.35771e-06
-1.33928e-10
-1.38083e-06
-2.9953e-10
-1.39442e-06
-4.53869e-10
-1.40176e-06
-6.00931e-10
-1.40474e-06
-7.19422e-10
-1.40418e-06
-8.16764e-10
-1.40008e-06
-8.80859e-10
-1.39168e-06
-9.11435e-10
-1.37727e-06
-8.73131e-10
-1.35377e-06
-7.37319e-10
-1.31624e-06
-4.89243e-10
-1.25808e-06
-2.33497e-10
-1.17103e-06
-5.25019e-11
-1.04162e-06
-7.7926e-07
-3.50835e-11
-7.80145e-07
1.76038e-10
-1.04339e-06
2.789e-10
-1.17337e-06
2.85726e-10
-1.26128e-06
2.04016e-10
-1.32003e-06
6.99101e-11
-1.35758e-06
-1.11252e-10
-1.38065e-06
-2.93919e-10
-1.39424e-06
-4.67207e-10
-1.40158e-06
-6.27925e-10
-1.40458e-06
-7.5588e-10
-1.40404e-06
-8.5681e-10
-1.39998e-06
-9.10915e-10
-1.39162e-06
-9.30558e-10
-1.37726e-06
-8.89108e-10
-1.35381e-06
-7.40932e-10
-1.31639e-06
-4.80872e-10
-1.25835e-06
-2.18266e-10
-1.1713e-06
6.72165e-11
-1.04191e-06
-7.79195e-07
-4.86543e-11
-7.801e-07
1.30887e-10
-1.04356e-06
2.42861e-10
-1.17348e-06
2.83924e-10
-1.26131e-06
2.06118e-10
-1.31995e-06
6.53352e-11
-1.35743e-06
-1.23804e-10
-1.38046e-06
-3.1825e-10
-1.39404e-06
-4.95516e-10
-1.4014e-06
-6.56342e-10
-1.40441e-06
-7.87299e-10
-1.40391e-06
-8.80633e-10
-1.39989e-06
-9.1996e-10
-1.39158e-06
-9.12593e-10
-1.37727e-06
-8.56526e-10
-1.35387e-06
-6.94659e-10
-1.31655e-06
-4.53878e-10
-1.25859e-06
-2.33533e-10
-1.17153e-06
-3.15996e-12
-1.04215e-06
-7.79199e-07
3.55837e-11
-7.80126e-07
1.33198e-10
-1.04365e-06
2.43912e-10
-1.17359e-06
2.92305e-10
-1.26135e-06
2.17915e-10
-1.31987e-06
6.78081e-11
-1.35727e-06
-1.28841e-10
-1.38025e-06
-3.38364e-10
-1.39382e-06
-5.26948e-10
-1.40121e-06
-6.96706e-10
-1.40424e-06
-8.34739e-10
-1.40376e-06
-9.39734e-10
-1.39978e-06
-9.9312e-10
-1.39152e-06
-9.82149e-10
-1.37727e-06
-9.1159e-10
-1.35394e-06
-7.45998e-10
-1.31671e-06
-5.11577e-10
-1.25883e-06
-2.65607e-10
-1.17178e-06
-1.00735e-10
-1.04232e-06
-7.79296e-07
1.14788e-10
-7.80221e-07
1.80107e-10
-1.04371e-06
3.19815e-10
-1.17372e-06
3.63073e-10
-1.26139e-06
2.74729e-10
-1.31978e-06
1.03904e-10
-1.35709e-06
-1.127e-10
-1.38003e-06
-3.3512e-10
-1.39359e-06
-5.39959e-10
-1.401e-06
-7.17047e-10
-1.40406e-06
-8.66832e-10
-1.40361e-06
-9.78066e-10
-1.39966e-06
-1.04323e-09
-1.39145e-06
-1.04077e-09
-1.37727e-06
-9.61088e-10
-1.35401e-06
-8.0434e-10
-1.31686e-06
-5.77319e-10
-1.25904e-06
-3.08161e-10
-1.17203e-06
-1.01855e-10
-1.0425e-06
-7.79392e-07
1.28283e-10
-7.80327e-07
2.24374e-10
-1.04379e-06
3.73423e-10
-1.17385e-06
4.13722e-10
-1.26142e-06
3.34477e-10
-1.31968e-06
1.60261e-10
-1.35691e-06
-6.37596e-11
-1.3798e-06
-2.90312e-10
-1.39336e-06
-5.12261e-10
-1.40077e-06
-7.05539e-10
-1.40385e-06
-8.76313e-10
-1.40343e-06
-1.00218e-09
-1.39952e-06
-1.07578e-09
-1.39137e-06
-1.08169e-09
-1.37725e-06
-9.92425e-10
-1.35409e-06
-8.15994e-10
-1.31703e-06
-5.86742e-10
-1.25926e-06
-3.47916e-10
-1.17224e-06
-1.27922e-10
-1.04269e-06
-7.79515e-07
1.51929e-10
-7.80462e-07
2.86413e-10
-1.04392e-06
4.68233e-10
-1.17401e-06
5.41452e-10
-1.26149e-06
4.64895e-10
-1.3196e-06
2.75768e-10
-1.35672e-06
3.87564e-11
-1.37955e-06
-2.1163e-10
-1.3931e-06
-4.58854e-10
-1.40052e-06
-6.84902e-10
-1.40362e-06
-8.87909e-10
-1.40323e-06
-1.04944e-09
-1.39935e-06
-1.16052e-09
-1.39125e-06
-1.19895e-09
-1.37721e-06
-1.13346e-09
-1.35414e-06
-9.48448e-10
-1.31721e-06
-6.77216e-10
-1.25951e-06
-4.06711e-10
-1.17249e-06
-1.99945e-10
-1.04288e-06
-7.79712e-07
1.47013e-10
-7.80597e-07
4.05445e-10
-1.04418e-06
6.04265e-10
-1.1742e-06
6.87095e-10
-1.26157e-06
6.199e-10
-1.31952e-06
4.16076e-10
-1.35651e-06
1.51644e-10
-1.37928e-06
-1.4084e-10
-1.3928e-06
-4.25666e-10
-1.40023e-06
-6.93204e-10
-1.40334e-06
-9.30346e-10
-1.40298e-06
-1.13179e-09
-1.39914e-06
-1.27471e-09
-1.3911e-06
-1.34098e-09
-1.37713e-06
-1.29172e-09
-1.35418e-06
-1.11199e-09
-1.31738e-06
-8.12157e-10
-1.2598e-06
-4.62293e-10
-1.17283e-06
-1.6788e-10
-1.04316e-06
-7.7988e-07
1.18379e-10
-7.80707e-07
4.64375e-10
-1.04451e-06
6.97813e-10
-1.17443e-06
7.9563e-10
-1.26167e-06
7.44913e-10
-1.31946e-06
5.38167e-10
-1.3563e-06
2.50819e-10
-1.37899e-06
-7.97679e-11
-1.39247e-06
-4.08308e-10
-1.39989e-06
-7.22624e-10
-1.40303e-06
-1.00062e-09
-1.4027e-06
-1.24595e-09
-1.3989e-06
-1.42711e-09
-1.39091e-06
-1.52642e-09
-1.37704e-06
-1.4875e-09
-1.35422e-06
-1.29871e-09
-1.31756e-06
-9.69049e-10
-1.26013e-06
-5.5917e-10
-1.17324e-06
-1.31936e-10
-1.04359e-06
-7.80014e-07
1.1409e-10
-7.80811e-07
4.87091e-10
-1.04488e-06
7.61671e-10
-1.17469e-06
8.74165e-10
-1.26177e-06
8.21439e-10
-1.3194e-06
6.19087e-10
-1.35609e-06
3.23788e-10
-1.37868e-06
-2.67651e-11
-1.39211e-06
-3.84599e-10
-1.39952e-06
-7.34214e-10
-1.40267e-06
-1.0471e-09
-1.40237e-06
-1.33213e-09
-1.39861e-06
-1.5498e-09
-1.39069e-06
-1.67335e-09
-1.37691e-06
-1.6514e-09
-1.35423e-06
-1.46008e-09
-1.31775e-06
-1.10685e-09
-1.26048e-06
-6.50219e-10
-1.17371e-06
-9.81676e-11
-1.04415e-06
-7.80113e-07
1.81798e-10
-7.80982e-07
5.64825e-10
-1.04525e-06
9.02409e-10
-1.17502e-06
1.04089e-09
-1.2619e-06
9.75951e-10
-1.31933e-06
7.58048e-10
-1.35587e-06
4.35259e-10
-1.37835e-06
5.90555e-11
-1.39173e-06
-3.25149e-10
-1.39913e-06
-6.99038e-10
-1.4023e-06
-1.04018e-09
-1.40202e-06
-1.34523e-09
-1.39831e-06
-1.58191e-09
-1.39044e-06
-1.71178e-09
-1.37678e-06
-1.69724e-09
-1.35424e-06
-1.52132e-09
-1.31792e-06
-1.17652e-09
-1.26083e-06
-6.89694e-10
-1.1742e-06
-9.82891e-11
-1.04475e-06
-7.8021e-07
2.08042e-10
-7.81179e-07
6.51972e-10
-1.04569e-06
1.04973e-09
-1.17541e-06
1.21344e-09
-1.26206e-06
1.14824e-09
-1.31926e-06
9.24655e-10
-1.35564e-06
5.81072e-10
-1.378e-06
1.77738e-10
-1.39133e-06
-2.36418e-10
-1.39871e-06
-6.41593e-10
-1.40189e-06
-1.01268e-09
-1.40164e-06
-1.33796e-09
-1.39797e-06
-1.59595e-09
-1.39018e-06
-1.7525e-09
-1.37662e-06
-1.77042e-09
-1.35422e-06
-1.61721e-09
-1.31807e-06
-1.25988e-09
-1.26118e-06
-7.32759e-10
-1.17472e-06
-1.90723e-10
-1.04528e-06
-7.80398e-07
2.39787e-10
-7.81409e-07
7.32738e-10
-1.04617e-06
1.18166e-09
-1.17586e-06
1.4052e-09
-1.26228e-06
1.35988e-09
-1.31921e-06
1.11815e-09
-1.3554e-06
7.42579e-10
-1.37762e-06
3.04129e-10
-1.39088e-06
-1.54921e-10
-1.39825e-06
-5.95523e-10
-1.40144e-06
-1.00637e-09
-1.40123e-06
-1.35933e-09
-1.39761e-06
-1.64791e-09
-1.38988e-06
-1.83442e-09
-1.37642e-06
-1.87449e-09
-1.35417e-06
-1.72538e-09
-1.31821e-06
-1.35503e-09
-1.26154e-06
-8.16582e-10
-1.17524e-06
-2.85278e-10
-1.0458e-06
-7.80679e-07
2.21529e-10
-7.81619e-07
8.04062e-10
-1.04674e-06
1.28507e-09
-1.17633e-06
1.55511e-09
-1.26254e-06
1.52341e-09
-1.31917e-06
1.24487e-09
-1.35511e-06
8.35484e-10
-1.37721e-06
3.616e-10
-1.3904e-06
-1.37077e-10
-1.39774e-06
-6.16919e-10
-1.40095e-06
-1.06992e-09
-1.40077e-06
-1.46444e-09
-1.3972e-06
-1.7879e-09
-1.38955e-06
-2.00653e-09
-1.37619e-06
-2.07163e-09
-1.35409e-06
-1.91364e-09
-1.31836e-06
-1.51481e-09
-1.26192e-06
-9.39478e-10
-1.1758e-06
-3.93659e-10
-1.04633e-06
-7.8107e-07
3.50405e-10
-7.81948e-07
9.57808e-10
-1.04733e-06
1.39753e-09
-1.17676e-06
1.62917e-09
-1.26276e-06
1.58697e-09
-1.31912e-06
1.29781e-09
-1.35481e-06
8.80842e-10
-1.37678e-06
3.87491e-10
-1.3899e-06
-1.38815e-10
-1.39721e-06
-6.60958e-10
-1.40042e-06
-1.15904e-09
-1.40027e-06
-1.60434e-09
-1.39675e-06
-1.97492e-09
-1.38917e-06
-2.23844e-09
-1.37592e-06
-2.33185e-09
-1.35399e-06
-2.16932e-09
-1.31851e-06
-1.71878e-09
-1.26236e-06
-1.04663e-09
-1.17646e-06
-3.80172e-10
-1.04698e-06
-7.81448e-07
5.61279e-10
-7.82488e-07
1.13054e-09
-1.04788e-06
1.64103e-09
-1.17725e-06
1.90012e-09
-1.26301e-06
1.85446e-09
-1.31906e-06
1.55391e-09
-1.35451e-06
1.09158e-09
-1.37631e-06
5.46213e-10
-1.38935e-06
-3.59688e-11
-1.39662e-06
-6.13646e-10
-1.39984e-06
-1.16903e-09
-1.39971e-06
-1.66683e-09
-1.39625e-06
-2.07705e-09
-1.38876e-06
-2.36712e-09
-1.37562e-06
-2.47185e-09
-1.35388e-06
-2.32179e-09
-1.31865e-06
-1.86e-09
-1.26282e-06
-1.14346e-09
-1.17717e-06
-3.32701e-10
-1.04778e-06
-7.81781e-07
4.67707e-10
-7.82943e-07
1.21492e-09
-1.04861e-06
1.86998e-09
-1.1779e-06
2.21581e-09
-1.26335e-06
2.19363e-09
-1.31904e-06
1.87952e-09
-1.35419e-06
1.37029e-09
-1.3758e-06
7.60151e-10
-1.38873e-06
1.11651e-10
-1.39597e-06
-5.31822e-10
-1.39918e-06
-1.15043e-09
-1.39908e-06
-1.70287e-09
-1.39569e-06
-2.15355e-09
-1.3883e-06
-2.46245e-09
-1.37531e-06
-2.58169e-09
-1.35376e-06
-2.44273e-09
-1.31879e-06
-1.97722e-09
-1.26328e-06
-1.25699e-09
-1.17789e-06
-4.53957e-10
-1.04859e-06
-7.82234e-07
3.61359e-10
-7.833e-07
1.29833e-09
-1.04954e-06
2.02892e-09
-1.17862e-06
2.40954e-09
-1.26372e-06
2.38847e-09
-1.31901e-06
2.06048e-09
-1.35385e-06
1.53489e-09
-1.37527e-06
8.92461e-10
-1.38808e-06
1.99773e-10
-1.39527e-06
-5.01225e-10
-1.39848e-06
-1.17386e-09
-1.3984e-06
-1.78508e-09
-1.39507e-06
-2.28821e-09
-1.38779e-06
-2.63236e-09
-1.37496e-06
-2.76752e-09
-1.35362e-06
-2.6245e-09
-1.31892e-06
-2.12604e-09
-1.26378e-06
-1.36726e-09
-1.17865e-06
-5.65576e-10
-1.04938e-06
-7.82798e-07
4.66416e-10
-7.83763e-07
1.39377e-09
-1.05046e-06
2.14841e-09
-1.17937e-06
2.53702e-09
-1.2641e-06
2.52316e-09
-1.31899e-06
2.19413e-09
-1.35351e-06
1.65261e-09
-1.37472e-06
9.88462e-10
-1.38741e-06
2.59789e-10
-1.39453e-06
-4.84751e-10
-1.39772e-06
-1.2042e-09
-1.39768e-06
-1.85985e-09
-1.39441e-06
-2.41033e-09
-1.38723e-06
-2.79311e-09
-1.37457e-06
-2.94523e-09
-1.35345e-06
-2.79446e-09
-1.31906e-06
-2.26622e-09
-1.26429e-06
-1.46904e-09
-1.17943e-06
-5.82594e-10
-1.05026e-06
-7.8338e-07
6.13825e-10
-7.84364e-07
1.50698e-09
-1.05134e-06
2.29885e-09
-1.18016e-06
2.72024e-09
-1.26451e-06
2.71479e-09
-1.31897e-06
2.38007e-09
-1.35317e-06
1.81612e-09
-1.37415e-06
1.11278e-09
-1.3867e-06
3.36966e-10
-1.39375e-06
-4.57412e-10
-1.39692e-06
-1.22953e-09
-1.3969e-06
-1.93342e-09
-1.39369e-06
-2.52974e-09
-1.38663e-06
-2.952e-09
-1.37414e-06
-3.12456e-09
-1.35327e-06
-2.96912e-09
-1.31921e-06
-2.43538e-09
-1.26482e-06
-1.59597e-09
-1.18027e-06
-6.33189e-10
-1.05122e-06
-7.84013e-07
7.29365e-10
-7.85074e-07
1.6781e-09
-1.05228e-06
2.49782e-09
-1.18096e-06
2.92973e-09
-1.26494e-06
2.93912e-09
-1.31897e-06
2.60167e-09
-1.35283e-06
2.01547e-09
-1.37356e-06
1.26493e-09
-1.38594e-06
4.29384e-10
-1.39291e-06
-4.2915e-10
-1.39606e-06
-1.26526e-09
-1.39606e-06
-2.03501e-09
-1.39292e-06
-2.68696e-09
-1.38597e-06
-3.15076e-09
-1.37367e-06
-3.3444e-09
-1.35307e-06
-3.18504e-09
-1.31936e-06
-2.63687e-09
-1.26536e-06
-1.74135e-09
-1.18117e-06
-6.85149e-10
-1.05228e-06
-7.84698e-07
8.16901e-10
-7.85871e-07
1.85142e-09
-1.0533e-06
2.7287e-09
-1.18182e-06
3.206e-09
-1.26541e-06
3.25571e-09
-1.31901e-06
2.91259e-09
-1.35248e-06
2.28367e-09
-1.37292e-06
1.47368e-09
-1.38512e-06
5.66182e-10
-1.392e-06
-3.7493e-10
-1.39511e-06
-1.29031e-09
-1.39514e-06
-2.13224e-09
-1.39207e-06
-2.85091e-09
-1.38525e-06
-3.37259e-09
-1.37314e-06
-3.60851e-09
-1.35283e-06
-3.44298e-09
-1.31952e-06
-2.83666e-09
-1.26597e-06
-1.86348e-09
-1.18214e-06
-7.06771e-10
-1.05343e-06
-7.85401e-07
7.61208e-10
-7.86616e-07
1.97803e-09
-1.05451e-06
2.95686e-09
-1.18279e-06
3.5058e-09
-1.26595e-06
3.58191e-09
-1.31908e-06
3.22913e-09
-1.35211e-06
2.56171e-09
-1.37224e-06
1.69669e-09
-1.38425e-06
7.23802e-10
-1.39101e-06
-2.86836e-10
-1.39409e-06
-1.27358e-09
-1.39414e-06
-2.17876e-09
-1.39115e-06
-2.95362e-09
-1.38446e-06
-3.52833e-09
-1.37255e-06
-3.80162e-09
-1.35255e-06
-3.63867e-09
-1.31967e-06
-2.99231e-09
-1.2666e-06
-1.93847e-09
-1.18318e-06
-6.52904e-10
-1.0547e-06
-7.8605e-07
7.66288e-10
-7.87368e-07
2.091e-09
-1.05582e-06
3.09953e-09
-1.18378e-06
3.67371e-09
-1.26651e-06
3.76879e-09
-1.31916e-06
3.42735e-09
-1.35176e-06
2.75081e-09
-1.37155e-06
1.8591e-09
-1.38334e-06
8.44404e-10
-1.38999e-06
-2.02453e-10
-1.39302e-06
-1.23293e-09
-1.3931e-06
-2.175e-09
-1.39019e-06
-2.9727e-09
-1.38365e-06
-3.5523e-09
-1.37196e-06
-3.82404e-09
-1.35227e-06
-3.67905e-09
-1.31981e-06
-3.06957e-09
-1.2672e-06
-2.03429e-09
-1.18419e-06
-7.16871e-10
-1.056e-06
-7.86763e-07
9.0971e-10
-7.88263e-07
2.19367e-09
-1.05709e-06
3.25493e-09
-1.18483e-06
3.87655e-09
-1.26712e-06
3.98489e-09
-1.31925e-06
3.62312e-09
-1.35139e-06
2.91499e-09
-1.37083e-06
1.98224e-09
-1.3824e-06
9.26859e-10
-1.38892e-06
-1.63675e-10
-1.39192e-06
-1.24168e-09
-1.39201e-06
-2.23138e-09
-1.38919e-06
-3.07288e-09
-1.3828e-06
-3.67649e-09
-1.37135e-06
-3.96459e-09
-1.35197e-06
-3.83608e-09
-1.31993e-06
-3.23828e-09
-1.26779e-06
-2.20073e-09
-1.18522e-06
-1.00975e-09
-1.05717e-06
-7.8777e-07
9.88611e-10
-7.8923e-07
2.30579e-09
-1.0584e-06
3.41648e-09
-1.18593e-06
4.07025e-09
-1.26777e-06
4.1916e-09
-1.31936e-06
3.80684e-09
-1.351e-06
3.06319e-09
-1.37008e-06
2.08736e-09
-1.38141e-06
9.85774e-10
-1.38781e-06
-1.64435e-10
-1.39076e-06
-1.30403e-09
-1.39087e-06
-2.36495e-09
-1.38812e-06
-3.27982e-09
-1.38188e-06
-3.9533e-09
-1.37066e-06
-4.27761e-09
-1.35164e-06
-4.15145e-09
-1.32005e-06
-3.50527e-09
-1.26842e-06
-2.38346e-09
-1.18633e-06
-1.14464e-09
-1.0584e-06
-7.88913e-07
1.09997e-09
-7.90309e-07
2.45187e-09
-1.05974e-06
3.63097e-09
-1.18709e-06
4.32987e-09
-1.26846e-06
4.45457e-09
-1.31948e-06
4.04623e-09
-1.35058e-06
3.25882e-09
-1.36929e-06
2.23485e-09
-1.38038e-06
1.07531e-09
-1.38665e-06
-1.40892e-10
-1.38954e-06
-1.34961e-09
-1.38965e-06
-2.48566e-09
-1.38698e-06
-3.47244e-09
-1.38089e-06
-4.214e-09
-1.36992e-06
-4.57209e-09
-1.35127e-06
-4.44546e-09
-1.32017e-06
-3.74803e-09
-1.26911e-06
-2.52024e-09
-1.18755e-06
-1.05968e-09
-1.05985e-06
-7.89972e-07
1.0994e-09
-7.9139e-07
2.58287e-09
-1.06121e-06
3.87879e-09
-1.18838e-06
4.64033e-09
-1.26922e-06
4.77048e-09
-1.3196e-06
4.33726e-09
-1.35014e-06
3.50336e-09
-1.36845e-06
2.42615e-09
-1.3793e-06
1.20741e-09
-1.38542e-06
-7.03282e-11
-1.38825e-06
-1.34134e-09
-1.38837e-06
-2.54064e-09
-1.38577e-06
-3.5841e-09
-1.37984e-06
-4.37199e-09
-1.36912e-06
-4.76471e-09
-1.35087e-06
-4.64619e-09
-1.32028e-06
-3.92282e-09
-1.26983e-06
-2.63048e-09
-1.18884e-06
-1.00094e-09
-1.06147e-06
-7.90972e-07
1.03006e-09
-7.92404e-07
2.68426e-09
-1.06285e-06
4.06831e-09
-1.18975e-06
4.87434e-09
-1.27001e-06
5.02365e-09
-1.31974e-06
4.58844e-09
-1.3497e-06
3.72847e-09
-1.36758e-06
2.60662e-09
-1.37817e-06
1.33683e-09
-1.38415e-06
5.12053e-12
-1.38691e-06
-1.32e-09
-1.38704e-06
-2.569e-09
-1.38452e-06
-3.65549e-09
-1.37875e-06
-4.47335e-09
-1.3683e-06
-4.89619e-09
-1.35044e-06
-4.79106e-09
-1.32038e-06
-4.06356e-09
-1.27055e-06
-2.75391e-09
-1.19014e-06
-1.10587e-09
-1.06312e-06
-7.92075e-07
1.09352e-09
-7.93485e-07
2.81723e-09
-1.06455e-06
4.24442e-09
-1.19117e-06
5.06967e-09
-1.27083e-06
5.21296e-09
-1.31988e-06
4.76914e-09
-1.34924e-06
3.89108e-09
-1.36669e-06
2.73741e-09
-1.377e-06
1.43173e-09
-1.38283e-06
5.70061e-11
-1.38553e-06
-1.31359e-09
-1.38566e-06
-2.60881e-09
-1.38321e-06
-3.7385e-09
-1.37761e-06
-4.59305e-09
-1.36744e-06
-5.04378e-09
-1.34999e-06
-4.94141e-09
-1.32047e-06
-4.19774e-09
-1.27129e-06
-2.85213e-09
-1.19148e-06
-1.22777e-09
-1.06473e-06
-7.933e-07
1.27881e-09
-7.94751e-07
3.00527e-09
-1.06627e-06
4.4264e-09
-1.19258e-06
5.23595e-09
-1.27163e-06
5.35883e-09
-1.31999e-06
4.90285e-09
-1.34878e-06
4.0154e-09
-1.3658e-06
2.84582e-09
-1.37583e-06
1.51099e-09
-1.38149e-06
1.0319e-10
-1.38411e-06
-1.30999e-09
-1.38424e-06
-2.6423e-09
-1.38187e-06
-3.81081e-09
-1.37643e-06
-4.69967e-09
-1.36654e-06
-5.16706e-09
-1.34951e-06
-5.07036e-09
-1.32056e-06
-4.31873e-09
-1.27203e-06
-2.96173e-09
-1.19282e-06
-1.32216e-09
-1.06635e-06
-7.9462e-07
1.41491e-09
-7.9615e-07
3.15377e-09
-1.06799e-06
4.63232e-09
-1.19405e-06
5.48785e-09
-1.27247e-06
5.62042e-09
-1.32012e-06
5.14727e-09
-1.3483e-06
4.22589e-09
-1.36487e-06
3.00997e-09
-1.3746e-06
1.61653e-09
-1.38009e-06
1.46415e-10
-1.38263e-06
-1.33113e-09
-1.38276e-06
-2.72582e-09
-1.38047e-06
-3.95432e-09
-1.37519e-06
-4.89298e-09
-1.36559e-06
-5.38989e-09
-1.349e-06
-5.29676e-09
-1.32064e-06
-4.51543e-09
-1.2728e-06
-3.12689e-09
-1.1942e-06
-1.47373e-09
-1.068e-06
-7.96093e-07
1.36741e-09
-7.97499e-07
3.24229e-09
-1.06984e-06
4.81157e-09
-1.1956e-06
5.72875e-09
-1.27337e-06
5.88781e-09
-1.32027e-06
5.4047e-09
-1.34781e-06
4.44555e-09
-1.3639e-06
3.17135e-09
-1.37332e-06
1.71038e-09
-1.37863e-06
1.61024e-10
-1.38108e-06
-1.39252e-09
-1.3812e-06
-2.86834e-09
-1.37898e-06
-4.1677e-09
-1.37389e-06
-5.1648e-09
-1.36459e-06
-5.69835e-09
-1.34846e-06
-5.59604e-09
-1.32074e-06
-4.75131e-09
-1.27364e-06
-3.25936e-09
-1.19569e-06
-1.46782e-09
-1.06979e-06
-7.97559e-07
1.39142e-09
-7.98877e-07
3.37761e-09
-1.07181e-06
4.97062e-09
-1.19718e-06
5.86908e-09
-1.27426e-06
6.0121e-09
-1.3204e-06
5.51718e-09
-1.3473e-06
4.54541e-09
-1.36292e-06
3.24901e-09
-1.37202e-06
1.75431e-09
-1.37712e-06
1.58894e-10
-1.37948e-06
-1.44467e-09
-1.37959e-06
-2.97255e-09
-1.37745e-06
-4.31871e-09
-1.37254e-06
-5.35025e-09
-1.36355e-06
-5.90494e-09
-1.3479e-06
-5.80328e-09
-1.32083e-06
-4.93142e-09
-1.27451e-06
-3.35348e-09
-1.19726e-06
-1.37267e-09
-1.07176e-06
-7.9893e-07
1.60171e-09
-8.00469e-07
3.55754e-09
-1.07376e-06
5.13809e-09
-1.19876e-06
6.01122e-09
-1.27512e-06
6.1293e-09
-1.32051e-06
5.62545e-09
-1.34679e-06
4.64754e-09
-1.36194e-06
3.34137e-09
-1.3707e-06
1.82401e-09
-1.3756e-06
2.04608e-10
-1.37785e-06
-1.42993e-09
-1.37795e-06
-2.98329e-09
-1.37589e-06
-4.3577e-09
-1.37116e-06
-5.41238e-09
-1.36249e-06
-5.99222e-09
-1.34731e-06
-5.91728e-09
-1.3209e-06
-5.04956e-09
-1.27537e-06
-3.43275e-09
-1.19887e-06
-1.40461e-09
-1.07378e-06
-8.00331e-07
1.73594e-09
-8.02193e-07
3.70816e-09
-1.07572e-06
5.36187e-09
-1.2004e-06
6.29148e-09
-1.27604e-06
6.41597e-09
-1.32063e-06
5.89505e-09
-1.34626e-06
4.87806e-09
-1.36092e-06
3.52614e-09
-1.36934e-06
1.95526e-09
-1.37403e-06
2.90073e-10
-1.37617e-06
-1.39053e-09
-1.37626e-06
-2.97505e-09
-1.37429e-06
-4.37334e-09
-1.36975e-06
-5.44307e-09
-1.36141e-06
-6.03481e-09
-1.34671e-06
-5.97775e-09
-1.32095e-06
-5.12226e-09
-1.27621e-06
-3.5223e-09
-1.20045e-06
-1.54505e-09
-1.07574e-06
-8.01873e-07
1.64749e-09
-8.03823e-07
3.81729e-09
-1.07787e-06
5.58253e-09
-1.20215e-06
6.55761e-09
-1.277e-06
6.68829e-09
-1.32075e-06
6.13649e-09
-1.3457e-06
5.07706e-09
-1.35985e-06
3.67002e-09
-1.36793e-06
2.04472e-09
-1.3724e-06
3.17532e-10
-1.37444e-06
-1.42007e-09
-1.37452e-06
-3.06208e-09
-1.37264e-06
-4.51079e-09
-1.3683e-06
-5.62865e-09
-1.36028e-06
-6.25695e-09
-1.34608e-06
-6.20847e-09
-1.32099e-06
-5.32704e-09
-1.27708e-06
-3.68527e-09
-1.20208e-06
-1.73437e-09
-1.07768e-06
-8.03606e-07
1.66603e-09
-8.05477e-07
3.94523e-09
-1.08014e-06
5.72993e-09
-1.20392e-06
6.68233e-09
-1.27795e-06
6.79732e-09
-1.32085e-06
6.22358e-09
-1.34512e-06
5.14714e-09
-1.35877e-06
3.71069e-09
-1.36649e-06
2.04986e-09
-1.37073e-06
2.70556e-10
-1.37266e-06
-1.52188e-09
-1.37273e-06
-3.23138e-09
-1.37093e-06
-4.74327e-09
-1.36678e-06
-5.9236e-09
-1.35909e-06
-6.58576e-09
-1.34541e-06
-6.5224e-09
-1.32105e-06
-5.5841e-09
-1.27801e-06
-3.83566e-09
-1.20382e-06
-1.72993e-09
-1.07977e-06
-8.05335e-07
1.83288e-09
-8.07308e-07
4.06435e-09
-1.08236e-06
5.88458e-09
-1.20574e-06
6.87061e-09
-1.27893e-06
6.97029e-09
-1.32095e-06
6.36791e-09
-1.34451e-06
5.25152e-09
-1.35765e-06
3.77329e-09
-1.36501e-06
2.06414e-09
-1.36902e-06
2.32893e-10
-1.37082e-06
-1.61386e-09
-1.37088e-06
-3.38383e-09
-1.36916e-06
-4.95102e-09
-1.36521e-06
-6.18228e-09
-1.35786e-06
-6.87528e-09
-1.34471e-06
-6.81715e-09
-1.3211e-06
-5.84504e-09
-1.27898e-06
-4.00633e-09
-1.20566e-06
-1.69676e-09
-1.08208e-06
-8.07034e-07
1.87971e-09
-8.09188e-07
4.18792e-09
-1.08467e-06
6.08693e-09
-1.20764e-06
7.12189e-09
-1.27996e-06
7.20789e-09
-1.32104e-06
6.56271e-09
-1.34386e-06
5.39411e-09
-1.35648e-06
3.86431e-09
-1.36348e-06
2.10248e-09
-1.36725e-06
2.185e-10
-1.36894e-06
-1.67792e-09
-1.36898e-06
-3.49638e-09
-1.36735e-06
-5.10756e-09
-1.3636e-06
-6.38117e-09
-1.35659e-06
-7.11286e-09
-1.34397e-06
-7.0765e-09
-1.32113e-06
-6.07946e-09
-1.27997e-06
-4.16919e-09
-1.20758e-06
-1.7474e-09
-1.08452e-06
-8.08785e-07
1.91396e-09
-8.11105e-07
4.3531e-09
-1.08711e-06
6.31048e-09
-1.2096e-06
7.35619e-09
-1.281e-06
7.43466e-09
-1.32112e-06
6.75253e-09
-1.34318e-06
5.53432e-09
-1.35526e-06
3.95016e-09
-1.36189e-06
2.13502e-09
-1.36544e-06
1.96365e-10
-1.36701e-06
-1.75514e-09
-1.36702e-06
-3.62326e-09
-1.36548e-06
-5.27769e-09
-1.36194e-06
-6.58279e-09
-1.35529e-06
-7.33852e-09
-1.34322e-06
-7.29965e-09
-1.32117e-06
-6.27857e-09
-1.281e-06
-4.31689e-09
-1.20955e-06
-1.83104e-09
-1.08702e-06
-8.10618e-07
1.94214e-09
-8.13049e-07
4.48265e-09
-1.08965e-06
6.55937e-09
-1.21168e-06
7.66602e-09