/*--------------------------------*- C++ -*----------------------------------*\
  =========                 |
  \\      /  F ield         | OpenFOAM: The Open Source CFD Toolbox
   \\    /   O peration     | Website:  https://openfoam.org
    \\  /    A nd           | Version:  6
     \\/     M anipulation  |
\*---------------------------------------------------------------------------*/
FoamFile
{
    version     2.0;
    format      ascii;
    class       surfaceScalarField;
    location    "23";
    object      phi;
}
// * * * * * * * * * * * * * * * * * * * * * * * * * * * * * * * * * * * * * //

dimensions      [0 3 -1 0 0 0 0];

internalField   nonuniform List<scalar> 
258600
(
-8.98838e-09
-8.52672e-08
8.68969e-09
-9.27589e-09
-9.15182e-08
-9.53793e-09
-9.76089e-08
-9.77539e-09
-1.035e-07
-9.98832e-09
-1.09168e-07
-1.01789e-08
-1.14584e-07
-1.03488e-08
-1.19721e-07
-1.05008e-08
-1.24553e-07
-1.06367e-08
-1.29061e-07
-1.0759e-08
-1.33228e-07
-1.0869e-08
-1.37045e-07
-1.09691e-08
-1.40506e-07
-1.106e-08
-1.43615e-07
-1.11438e-08
-1.46377e-07
-1.12208e-08
-1.48805e-07
-1.12926e-08
-1.50914e-07
-1.13594e-08
-1.52724e-07
-1.14221e-08
-1.54257e-07
-1.14806e-08
-1.55536e-07
-1.56588e-07
-1.15355e-08
-9.73052e-09
-8.50444e-08
9.51176e-09
-9.94853e-09
-9.12985e-08
-1.01596e-08
-9.73965e-08
-1.03562e-08
-1.03301e-07
-1.0537e-08
-1.08985e-07
-1.07004e-08
-1.14418e-07
-1.08483e-08
-1.19571e-07
-1.09806e-08
-1.24418e-07
-1.11004e-08
-1.28939e-07
-1.12081e-08
-1.33118e-07
-1.13064e-08
-1.36945e-07
-1.13958e-08
-1.40415e-07
-1.14786e-08
-1.43531e-07
-1.15549e-08
-1.46299e-07
-1.16267e-08
-1.48732e-07
-1.16936e-08
-1.50845e-07
-1.17572e-08
-1.52659e-07
-1.18169e-08
-1.54196e-07
-1.18739e-08
-1.55479e-07
-1.56533e-07
-1.19277e-08
-1.08433e-08
-8.48732e-08
1.06754e-08
-1.10102e-08
-9.11285e-08
-1.11735e-08
-9.72322e-08
-1.13245e-08
-1.03147e-07
-1.14657e-08
-1.08842e-07
-1.15925e-08
-1.14287e-07
-1.17094e-08
-1.19451e-07
-1.18134e-08
-1.2431e-07
-1.19097e-08
-1.28841e-07
-1.19959e-08
-1.33028e-07
-1.20769e-08
-1.36862e-07
-1.21503e-08
-1.40338e-07
-1.22207e-08
-1.43459e-07
-1.22857e-08
-1.46231e-07
-1.23489e-08
-1.48667e-07
-1.24083e-08
-1.50784e-07
-1.24668e-08
-1.526e-07
-1.2522e-08
-1.54138e-07
-1.2577e-08
-1.55423e-07
-1.56479e-07
-1.26291e-08
-1.23657e-08
-8.47766e-08
1.22763e-08
-1.24596e-08
-9.10293e-08
-1.25566e-08
-9.71329e-08
-1.26465e-08
-1.03051e-07
-1.27338e-08
-1.08751e-07
-1.28113e-08
-1.14202e-07
-1.28856e-08
-1.19374e-07
-1.29508e-08
-1.24238e-07
-1.30139e-08
-1.28774e-07
-1.30699e-08
-1.32966e-07
-1.31254e-08
-1.36804e-07
-1.31759e-08
-1.40283e-07
-1.32272e-08
-1.43405e-07
-1.3275e-08
-1.46179e-07
-1.33246e-08
-1.48616e-07
-1.33718e-08
-1.50733e-07
-1.3421e-08
-1.52549e-07
-1.34682e-08
-1.54088e-07
-1.35178e-08
-1.55373e-07
-1.56429e-07
-1.3565e-08
-1.41371e-08
-8.47447e-08
1.4113e-08
-1.41648e-08
-9.09946e-08
-1.41988e-08
-9.70963e-08
-1.42275e-08
-1.03014e-07
-1.42585e-08
-1.08716e-07
-1.4283e-08
-1.1417e-07
-1.43095e-08
-1.19343e-07
-1.43303e-08
-1.2421e-07
-1.43542e-08
-1.28747e-07
-1.43741e-08
-1.32939e-07
-1.43982e-08
-1.36776e-07
-1.44199e-08
-1.40255e-07
-1.44467e-08
-1.43376e-07
-1.44723e-08
-1.46148e-07
-1.45032e-08
-1.48583e-07
-1.45336e-08
-1.50698e-07
-1.45691e-08
-1.52512e-07
-1.46039e-08
-1.54049e-07
-1.46436e-08
-1.55332e-07
-1.56387e-07
-1.46817e-08
-1.60889e-08
-8.47723e-08
1.61271e-08
-1.60541e-08
-9.10209e-08
-1.60275e-08
-9.71195e-08
-1.59969e-08
-1.03036e-07
-1.59721e-08
-1.08737e-07
-1.5943e-08
-1.14189e-07
-1.59202e-08
-1.19362e-07
-1.58945e-08
-1.24226e-07
-1.58762e-08
-1.28761e-07
-1.58567e-08
-1.3295e-07
-1.58456e-08
-1.36784e-07
-1.58349e-08
-1.40258e-07
-1.5833e-08
-1.43375e-07
-1.58323e-08
-1.46143e-07
-1.58403e-08
-1.48573e-07
-1.58497e-08
-1.50683e-07
-1.58672e-08
-1.52493e-07
-1.58855e-08
-1.54025e-07
-1.59112e-08
-1.55305e-07
-1.56357e-07
-1.59364e-08
-1.81447e-08
-8.48522e-08
1.82347e-08
-1.80567e-08
-9.10998e-08
-1.79776e-08
-9.71952e-08
-1.7894e-08
-1.03109e-07
-1.78178e-08
-1.08808e-07
-1.77383e-08
-1.14258e-07
-1.76676e-08
-1.19427e-07
-1.75958e-08
-1.24288e-07
-1.75348e-08
-1.28818e-07
-1.74747e-08
-1.33001e-07
-1.74266e-08
-1.36828e-07
-1.7381e-08
-1.40296e-07
-1.73476e-08
-1.43405e-07
-1.73176e-08
-1.46165e-07
-1.72994e-08
-1.48588e-07
-1.72844e-08
-1.50691e-07
-1.72803e-08
-1.52495e-07
-1.72786e-08
-1.54021e-07
-1.72867e-08
-1.55296e-07
-1.56343e-07
-1.72956e-08
-2.02685e-08
-8.497e-08
2.03986e-08
-2.0137e-08
-9.12202e-08
-2.00118e-08
-9.73153e-08
-1.98807e-08
-1.03229e-07
-1.9757e-08
-1.08926e-07
-1.96301e-08
-1.14374e-07
-1.95135e-08
-1.19538e-07
-1.93971e-08
-1.24393e-07
-1.92937e-08
-1.28916e-07
-1.9193e-08
-1.33092e-07
-1.91068e-08
-1.3691e-07
-1.90252e-08
-1.40368e-07
-1.89585e-08
-1.43468e-07
-1.8897e-08
-1.46219e-07
-1.88501e-08
-1.48632e-07
-1.88082e-08
-1.50726e-07
-1.87796e-08
-1.52521e-07
-1.8755e-08
-1.5404e-07
-1.87424e-08
-1.55307e-07
-1.56347e-07
-1.87319e-08
-2.24346e-08
-8.51206e-08
2.25994e-08
-2.2265e-08
-9.13778e-08
-2.20984e-08
-9.74758e-08
-2.19244e-08
-1.0339e-07
-2.1757e-08
-1.09087e-07
-2.15864e-08
-1.14532e-07
-2.14266e-08
-1.19692e-07
-2.12679e-08
-1.2454e-07
-2.11233e-08
-1.29055e-07
-2.09829e-08
-1.33221e-07
-2.08587e-08
-1.37029e-07
-2.07407e-08
-1.40476e-07
-2.06398e-08
-1.43565e-07
-2.05458e-08
-1.46304e-07
-2.04684e-08
-1.48706e-07
-2.03978e-08
-1.50789e-07
-2.03426e-08
-1.52573e-07
-2.02929e-08
-1.54082e-07
-2.02572e-08
-1.55341e-07
-1.56373e-07
-2.02249e-08
-2.46111e-08
-8.52984e-08
2.48031e-08
-2.44114e-08
-9.15654e-08
-2.42106e-08
-9.76698e-08
-2.4e-08
-1.03588e-07
-2.37939e-08
-1.09286e-07
-2.35839e-08
-1.14728e-07
-2.3384e-08
-1.19884e-07
-2.31854e-08
-1.24726e-07
-2.30015e-08
-1.29232e-07
-2.28226e-08
-1.33388e-07
-2.26611e-08
-1.37185e-07
-2.2507e-08
-1.4062e-07
-2.23715e-08
-1.43696e-07
-2.22443e-08
-1.46422e-07
-2.21355e-08
-1.48811e-07
-2.20349e-08
-1.50881e-07
-2.19516e-08
-1.52653e-07
-2.1875e-08
-1.54151e-07
-2.18144e-08
-1.55399e-07
-1.56423e-07
-2.17583e-08
-2.68098e-08
-8.5507e-08
2.70321e-08
-2.65783e-08
-9.17856e-08
-2.63436e-08
-9.78978e-08
-2.60982e-08
-1.03821e-07
-2.58555e-08
-1.09521e-07
-2.56085e-08
-1.14963e-07
-2.53707e-08
-1.20114e-07
-2.51344e-08
-1.2495e-07
-2.49126e-08
-1.29447e-07
-2.46965e-08
-1.33593e-07
-2.44984e-08
-1.37377e-07
-2.43087e-08
-1.40799e-07
-2.41386e-08
-1.43861e-07
-2.3978e-08
-1.46573e-07
-2.38371e-08
-1.48948e-07
-2.37058e-08
-1.51004e-07
-2.3593e-08
-1.52763e-07
-2.34884e-08
-1.54248e-07
-2.34012e-08
-1.55484e-07
-1.56497e-07
-2.33199e-08
-2.90037e-08
-8.57383e-08
2.9247e-08
-2.87478e-08
-9.20314e-08
-2.84845e-08
-9.8155e-08
-2.82083e-08
-1.04086e-07
-2.79319e-08
-1.0979e-07
-2.76504e-08
-1.15232e-07
-2.73765e-08
-1.20381e-07
-2.71041e-08
-1.2521e-07
-2.68457e-08
-1.29699e-07
-2.65934e-08
-1.33833e-07
-2.63593e-08
-1.37605e-07
-2.61344e-08
-1.41013e-07
-2.59297e-08
-1.4406e-07
-2.57356e-08
-1.46757e-07
-2.55621e-08
-1.49117e-07
-2.53993e-08
-1.51158e-07
-2.52562e-08
-1.52902e-07
-2.51226e-08
-1.54374e-07
-2.50076e-08
-1.55597e-07
-1.56597e-07
-2.48998e-08
-3.12128e-08
-8.59945e-08
3.14792e-08
-3.09296e-08
-9.23057e-08
-3.0636e-08
-9.8443e-08
-3.03282e-08
-1.04384e-07
-3.00185e-08
-1.10093e-07
-2.9703e-08
-1.15536e-07
-2.93941e-08
-1.20682e-07
-2.90865e-08
-1.25505e-07
-2.87923e-08
-1.29986e-07
-2.85047e-08
-1.34109e-07
-2.8235e-08
-1.37868e-07
-2.79753e-08
-1.41262e-07
-2.77361e-08
-1.44294e-07
-2.75084e-08
-1.46975e-07
-2.7302e-08
-1.49318e-07
-2.71073e-08
-1.51344e-07
-2.69332e-08
-1.53072e-07
-2.67697e-08
-1.54529e-07
-2.66258e-08
-1.55738e-07
-1.56725e-07
-2.64905e-08
-3.34173e-08
-8.62735e-08
3.3706e-08
-3.31087e-08
-9.26059e-08
-3.2787e-08
-9.87592e-08
-3.24495e-08
-1.04711e-07
-3.21081e-08
-1.10427e-07
-3.176e-08
-1.15873e-07
-3.14172e-08
-1.21017e-07
-3.10755e-08
-1.25836e-07
-3.07463e-08
-1.30308e-07
-3.04239e-08
-1.3442e-07
-3.01192e-08
-1.38167e-07
-2.98249e-08
-1.41545e-07
-2.95511e-08
-1.44562e-07
-2.92897e-08
-1.47226e-07
-2.90499e-08
-1.49553e-07
-2.88228e-08
-1.51562e-07
-2.8617e-08
-1.53274e-07
-2.84228e-08
-1.54715e-07
-2.82492e-08
-1.55909e-07
-1.56881e-07
-2.80853e-08
-3.56218e-08
-8.65766e-08
3.59355e-08
-3.52872e-08
-9.29319e-08
-3.49376e-08
-9.9103e-08
-3.45711e-08
-1.05068e-07
-3.41986e-08
-1.10792e-07
-3.38188e-08
-1.16242e-07
-3.34427e-08
-1.21386e-07
-3.30674e-08
-1.262e-07
-3.27036e-08
-1.30664e-07
-3.23469e-08
-1.34767e-07
-3.20071e-08
-1.385e-07
-3.16784e-08
-1.41864e-07
-3.13699e-08
-1.44865e-07
-3.10746e-08
-1.47512e-07
-3.08009e-08
-1.49822e-07
-3.05409e-08
-1.51813e-07
-3.03025e-08
-1.53508e-07
-3.00771e-08
-1.54932e-07
-2.98726e-08
-1.5611e-07
-1.57067e-07
-2.96792e-08
-3.78311e-08
-8.69041e-08
3.81692e-08
-3.747e-08
-9.32848e-08
-3.70915e-08
-9.94756e-08
-3.66951e-08
-1.05456e-07
-3.62911e-08
-1.1119e-07
-3.58792e-08
-1.16644e-07
-3.54695e-08
-1.21789e-07
-3.50605e-08
-1.26599e-07
-3.46619e-08
-1.31056e-07
-3.42706e-08
-1.35148e-07
-3.38955e-08
-1.38869e-07
-3.3532e-08
-1.42218e-07
-3.31883e-08
-1.45203e-07
-3.28586e-08
-1.47833e-07
-3.25505e-08
-1.50125e-07
-3.2257e-08
-1.52099e-07
-3.19852e-08
-1.53776e-07
-3.17276e-08
-1.55182e-07
-3.14912e-08
-1.56343e-07
-1.57284e-07
-3.12675e-08
-4.00364e-08
-8.72523e-08
4.03943e-08
-3.96514e-08
-9.36627e-08
-3.9245e-08
-9.98765e-08
-3.8819e-08
-1.05874e-07
-3.83833e-08
-1.11619e-07
-3.7939e-08
-1.1708e-07
-3.74954e-08
-1.22226e-07
-3.70523e-08
-1.27033e-07
-3.66186e-08
-1.31483e-07
-3.61923e-08
-1.35565e-07
-3.57814e-08
-1.39274e-07
-3.53827e-08
-1.42608e-07
-3.50033e-08
-1.45577e-07
-3.46386e-08
-1.4819e-07
-3.42952e-08
-1.50464e-07
-3.39675e-08
-1.52419e-07
-3.36615e-08
-1.54078e-07
-3.33708e-08
-1.55466e-07
-3.31015e-08
-1.56609e-07
-1.57532e-07
-3.28463e-08
-4.22492e-08
-8.76269e-08
4.26297e-08
-4.18361e-08
-9.40698e-08
-4.13992e-08
-1.00308e-07
-4.0942e-08
-1.06324e-07
-4.04735e-08
-1.12082e-07
-3.99961e-08
-1.17549e-07
-3.9518e-08
-1.22698e-07
-3.90404e-08
-1.27502e-07
-3.8571e-08
-1.31947e-07
-3.81093e-08
-1.36019e-07
-3.76621e-08
-1.39715e-07
-3.72275e-08
-1.43035e-07
-3.68116e-08
-1.45987e-07
-3.64112e-08
-1.48583e-07
-3.60316e-08
-1.50838e-07
-3.56688e-08
-1.52774e-07
-3.53275e-08
-1.54414e-07
-3.50028e-08
-1.55784e-07
-3.46994e-08
-1.56908e-07
-1.57814e-07
-3.44117e-08
-4.44459e-08
-8.8023e-08
4.48491e-08
-4.40085e-08
-9.45013e-08
-4.35439e-08
-1.00767e-07
-4.30575e-08
-1.06804e-07
-4.25573e-08
-1.12576e-07
-4.20474e-08
-1.18052e-07
-4.1535e-08
-1.23204e-07
-4.10228e-08
-1.28008e-07
-4.05173e-08
-1.32446e-07
-4.00196e-08
-1.3651e-07
-3.95354e-08
-1.40194e-07
-3.90642e-08
-1.435e-07
-3.86109e-08
-1.46435e-07
-3.81739e-08
-1.49013e-07
-3.77572e-08
-1.5125e-07
-3.73583e-08
-1.53167e-07
-3.69806e-08
-1.54788e-07
-3.66208e-08
-1.56137e-07
-3.6282e-08
-1.57243e-07
-1.5813e-07
-3.59607e-08
-4.66447e-08
-8.8445e-08
4.7074e-08
-4.61804e-08
-9.49602e-08
-4.56866e-08
-1.01256e-07
-4.51701e-08
-1.07315e-07
-4.46373e-08
-1.13103e-07
-4.40942e-08
-1.18589e-07
-4.35467e-08
-1.23746e-07
-4.29991e-08
-1.28549e-07
-4.24566e-08
-1.32983e-07
-4.1922e-08
-1.37038e-07
-4.13997e-08
-1.40711e-07
-4.08908e-08
-1.44002e-07
-4.0399e-08
-1.46922e-07
-3.99242e-08
-1.49482e-07
-3.94692e-08
-1.517e-07
-3.90329e-08
-1.53598e-07
-3.86174e-08
-1.55198e-07
-3.82212e-08
-1.56528e-07
-3.78458e-08
-1.57614e-07
-1.58481e-07
-3.74895e-08
-4.88419e-08
-8.88895e-08
4.92931e-08
-4.83525e-08
-9.54457e-08
-4.78293e-08
-1.01774e-07
-4.72817e-08
-1.07858e-07
-4.67151e-08
-1.13664e-07
-4.61375e-08
-1.19162e-07
-4.55534e-08
-1.24324e-07
-4.49691e-08
-1.29128e-07
-4.43882e-08
-1.33559e-07
-4.38155e-08
-1.37606e-07
-4.32536e-08
-1.41267e-07
-4.27059e-08
-1.44545e-07
-4.21742e-08
-1.47449e-07
-4.16603e-08
-1.49991e-07
-4.11654e-08
-1.5219e-07
-4.06904e-08
-1.54068e-07
-4.02358e-08
-1.55648e-07
-3.98017e-08
-1.56958e-07
-3.93882e-08
-1.58023e-07
-1.58869e-07
-3.89955e-08
-5.10502e-08
-8.93628e-08
5.15254e-08
-5.05307e-08
-9.5963e-08
-4.99747e-08
-1.02326e-07
-4.9393e-08
-1.08437e-07
-4.87904e-08
-1.14263e-07
-4.81763e-08
-1.19773e-07
-4.75541e-08
-1.24942e-07
-4.69315e-08
-1.29747e-07
-4.63109e-08
-1.34175e-07
-4.56984e-08
-1.38214e-07
-4.50956e-08
-1.41865e-07
-4.45074e-08
-1.45129e-07
-4.39342e-08
-1.48017e-07
-4.33796e-08
-1.50541e-07
-4.28433e-08
-1.52722e-07
-4.23279e-08
-1.54579e-07
-4.18324e-08
-1.56139e-07
-4.13589e-08
-1.57427e-07
-4.09056e-08
-1.58471e-07
-1.59296e-07
-4.04749e-08
-5.32457e-08
-8.98598e-08
5.37455e-08
-5.26992e-08
-9.65078e-08
-5.21121e-08
-1.02909e-07
-5.14976e-08
-1.09049e-07
-5.08592e-08
-1.14897e-07
-5.02083e-08
-1.20422e-07
-4.9547e-08
-1.25599e-07
-4.88849e-08
-1.30407e-07
-4.82231e-08
-1.34831e-07
-4.75695e-08
-1.38865e-07
-4.69242e-08
-1.42505e-07
-4.62938e-08
-1.45756e-07
-4.56774e-08
-1.48628e-07
-4.50803e-08
-1.51135e-07
-4.45009e-08
-1.53296e-07
-4.39433e-08
-1.55133e-07
-4.34053e-08
-1.56672e-07
-4.28905e-08
-1.57938e-07
-4.23957e-08
-1.5896e-07
-1.59763e-07
-4.19252e-08
-5.54458e-08
-9.03858e-08
5.59746e-08
-5.48689e-08
-9.70835e-08
-5.42487e-08
-1.03525e-07
-5.35995e-08
-1.09697e-07
-5.29238e-08
-1.15568e-07
-5.22344e-08
-1.21109e-07
-5.15324e-08
-1.26296e-07
-5.08291e-08
-1.31108e-07
-5.01243e-08
-1.35531e-07
-4.94277e-08
-1.39559e-07
-4.8738e-08
-1.4319e-07
-4.80634e-08
-1.46428e-07
-4.74019e-08
-1.49284e-07
-4.67604e-08
-1.51773e-07
-4.61357e-08
-1.53915e-07
-4.5534e-08
-1.55732e-07
-4.49513e-08
-1.57249e-07
-4.43932e-08
-1.58493e-07
-4.38549e-08
-1.59493e-07
-1.60273e-07
-4.33426e-08
-5.76458e-08
-9.0938e-08
5.82007e-08
-5.70394e-08
-9.76898e-08
-5.63854e-08
-1.04175e-07
-5.57001e-08
-1.10382e-07
-5.49853e-08
-1.16279e-07
-5.42554e-08
-1.21838e-07
-5.35107e-08
-1.27036e-07
-5.27639e-08
-1.31853e-07
-5.20141e-08
-1.36276e-07
-5.12722e-08
-1.40299e-07
-5.0536e-08
-1.43921e-07
-4.98152e-08
-1.47146e-07
-4.91064e-08
-1.49987e-07
-4.84181e-08
-1.52459e-07
-4.77462e-08
-1.54581e-07
-4.7098e-08
-1.56377e-07
-4.64686e-08
-1.57872e-07
-4.58651e-08
-1.59094e-07
-4.52812e-08
-1.6007e-07
-1.60826e-07
-4.47249e-08
-5.986e-08
-9.15238e-08
6.04445e-08
-5.92181e-08
-9.83328e-08
-5.85262e-08
-1.04864e-07
-5.7801e-08
-1.11107e-07
-5.70443e-08
-1.17032e-07
-5.62712e-08
-1.22611e-07
-5.54815e-08
-1.27822e-07
-5.46888e-08
-1.32645e-07
-5.38915e-08
-1.37069e-07
-5.31019e-08
-1.41087e-07
-5.23168e-08
-1.447e-07
-5.15471e-08
-1.47914e-07
-5.07886e-08
-1.5074e-07
-5.00512e-08
-1.53194e-07
-4.93294e-08
-1.55297e-07
-4.86324e-08
-1.57071e-07
-4.79539e-08
-1.58544e-07
-4.73025e-08
-1.59742e-07
-4.66705e-08
-1.60695e-07
-1.61427e-07
-4.60679e-08
-6.20643e-08
-9.21386e-08
6.26794e-08
-6.13896e-08
-9.90087e-08
-6.06608e-08
-1.0559e-07
-5.98964e-08
-1.11872e-07
-5.90971e-08
-1.17827e-07
-5.82796e-08
-1.23429e-07
-5.74431e-08
-1.28654e-07
-5.66025e-08
-1.33485e-07
-5.57555e-08
-1.37911e-07
-5.49157e-08
-1.41926e-07
-5.40791e-08
-1.45531e-07
-5.3258e-08
-1.48733e-07
-5.24472e-08
-1.51545e-07
-5.16578e-08
-1.53981e-07
-5.08837e-08
-1.56064e-07
-5.01351e-08
-1.57817e-07
-4.94048e-08
-1.59267e-07
-4.87029e-08
-1.60442e-07
-4.80205e-08
-1.61369e-07
-1.62076e-07
-4.73691e-08
-6.42814e-08
-9.27898e-08
6.49322e-08
-6.35683e-08
-9.97233e-08
-6.27991e-08
-1.06356e-07
-6.19918e-08
-1.1268e-07
-6.11471e-08
-1.18668e-07
-6.02824e-08
-1.24294e-07
-5.93964e-08
-1.29535e-07
-5.85051e-08
-1.34376e-07
-5.76057e-08
-1.38805e-07
-5.67127e-08
-1.42818e-07
-5.58217e-08
-1.46416e-07
-5.49461e-08
-1.49608e-07
-5.40801e-08
-1.52404e-07
-5.32357e-08
-1.54824e-07
-5.24062e-08
-1.56887e-07
-5.1603e-08
-1.58618e-07
-5.08181e-08
-1.60045e-07
-5.00627e-08
-1.61195e-07
-4.9327e-08
-1.62097e-07
-1.62777e-07
-4.86239e-08
-6.6501e-08
-9.34747e-08
6.71866e-08
-6.575e-08
-1.00476e-07
-6.49389e-08
-1.07164e-07
-6.40869e-08
-1.13534e-07
-6.31944e-08
-1.19557e-07
-6.22798e-08
-1.25209e-07
-6.13414e-08
-1.30469e-07
-6.03964e-08
-1.35321e-07
-5.94414e-08
-1.39754e-07
-5.84921e-08
-1.43766e-07
-5.75436e-08
-1.47359e-07
-5.66102e-08
-1.5054e-07
-5.56857e-08
-1.53322e-07
-5.47831e-08
-1.55725e-07
-5.38952e-08
-1.57768e-07
-5.30341e-08
-1.59477e-07
-5.21915e-08
-1.6088e-07
-5.13794e-08
-1.62005e-07
-5.05876e-08
-1.6288e-07
-1.63532e-07
-4.98299e-08
-6.87343e-08
-9.41978e-08
6.94567e-08
-6.79414e-08
-1.01271e-07
-6.7085e-08
-1.08018e-07
-6.61845e-08
-1.14436e-07
-6.52406e-08
-1.20497e-07
-6.42725e-08
-1.26178e-07
-6.32784e-08
-1.31459e-07
-6.22761e-08
-1.36323e-07
-6.12622e-08
-1.40763e-07
-6.02529e-08
-1.44775e-07
-5.92434e-08
-1.48363e-07
-5.82486e-08
-1.51534e-07
-5.7262e-08
-1.54303e-07
-5.62976e-08
-1.56688e-07
-5.53475e-08
-1.58711e-07
-5.4425e-08
-1.60398e-07
-5.35212e-08
-1.61777e-07
-5.2649e-08
-1.62875e-07
-5.17977e-08
-1.63723e-07
-1.64347e-07
-5.0982e-08
-7.09709e-08
-9.49574e-08
7.17305e-08
-7.01361e-08
-1.02108e-07
-6.92328e-08
-1.08919e-07
-6.82818e-08
-1.15389e-07
-6.7284e-08
-1.21491e-07
-6.62592e-08
-1.27204e-07
-6.52061e-08
-1.32508e-07
-6.4143e-08
-1.37387e-07
-6.30666e-08
-1.41835e-07
-6.19938e-08
-1.45848e-07
-6.09196e-08
-1.49431e-07
-5.98595e-08
-1.52593e-07
-5.88072e-08
-1.55349e-07
-5.7777e-08
-1.57717e-07
-5.67612e-08
-1.5972e-07
-5.57735e-08
-1.61385e-07
-5.48048e-08
-1.62738e-07
-5.38688e-08
-1.6381e-07
-5.29545e-08
-1.64629e-07
-1.65222e-07
-5.20773e-08
-7.32225e-08
-9.57596e-08
7.4023e-08
-7.2341e-08
-1.02992e-07
-7.13868e-08
-1.09871e-07
-7.03812e-08
-1.16397e-07
-6.93256e-08
-1.22544e-07
-6.82404e-08
-1.28291e-07
-6.71244e-08
-1.3362e-07
-6.59966e-08
-1.38516e-07
-6.48537e-08
-1.42973e-07
-6.37132e-08
-1.46989e-07
-6.25702e-08
-1.50569e-07
-6.14408e-08
-1.53723e-07
-6.03186e-08
-1.56465e-07
-5.92186e-08
-1.58817e-07
-5.81329e-08
-1.608e-07
-5.70758e-08
-1.62441e-07
-5.60382e-08
-1.63769e-07
-5.50343e-08
-1.64813e-07
-5.40531e-08
-1.65603e-07
-1.66164e-07
-5.31105e-08
-7.54794e-08
-9.66033e-08
7.63223e-08
-7.45506e-08
-1.03923e-07
-7.35435e-08
-1.10876e-07
-7.24807e-08
-1.17462e-07
-7.13641e-08
-1.23658e-07
-7.02149e-08
-1.29443e-07
-6.90322e-08
-1.34799e-07
-6.78356e-08
-1.39714e-07
-6.6622e-08
-1.44182e-07
-6.54096e-08
-1.48202e-07
-6.41935e-08
-1.5178e-07
-6.29904e-08
-1.54926e-07
-6.17939e-08
-1.57656e-07
-6.06195e-08
-1.59991e-07
-5.94596e-08
-1.61953e-07
-5.83288e-08
-1.63571e-07
-5.72181e-08
-1.64873e-07
-5.61421e-08
-1.65888e-07
-5.50899e-08
-1.66647e-07
-1.67176e-07
-5.40778e-08
-7.77546e-08
-9.74955e-08
7.86441e-08
-7.67727e-08
-1.04909e-07
-7.57079e-08
-1.11939e-07
-7.45833e-08
-1.1859e-07
-7.34013e-08
-1.24837e-07
-7.21836e-08
-1.30663e-07
-7.09296e-08
-1.3605e-07
-6.96596e-08
-1.40986e-07
-6.83707e-08
-1.45467e-07
-6.70815e-08
-1.49493e-07
-6.57876e-08
-1.53069e-07
-6.45058e-08
-1.56208e-07
-6.32302e-08
-1.58927e-07
-6.19767e-08
-1.61245e-07
-6.07376e-08
-1.63187e-07
-5.95283e-08
-1.6478e-07
-5.83397e-08
-1.66055e-07
-5.7187e-08
-1.6704e-07
-5.60592e-08
-1.67767e-07
-1.68262e-07
-5.49732e-08
-8.00379e-08
-9.84356e-08
8.09761e-08
-7.90016e-08
-1.05948e-07
-7.78766e-08
-1.13063e-07
-7.6687e-08
-1.19782e-07
-7.54359e-08
-1.26086e-07
-7.41454e-08
-1.31956e-07
-7.28158e-08
-1.37376e-07
-7.14676e-08
-1.42337e-07
-7.00986e-08
-1.46832e-07
-6.87276e-08
-1.50865e-07
-6.73507e-08
-1.54442e-07
-6.59851e-08
-1.57575e-07
-6.46253e-08
-1.60281e-07
-6.32872e-08
-1.62583e-07
-6.1964e-08
-1.64504e-07
-6.06708e-08
-1.66073e-07
-5.93993e-08
-1.6732e-07
-5.81648e-08
-1.68275e-07
-5.69567e-08
-1.68968e-07
-1.69426e-07
-5.57921e-08
-8.23412e-08
-9.94306e-08
8.33325e-08
-8.12448e-08
-1.07049e-07
-8.00545e-08
-1.14252e-07
-7.87948e-08
-1.21046e-07
-7.74695e-08
-1.2741e-07
-7.61013e-08
-1.33327e-07
-7.46909e-08
-1.38784e-07
-7.32593e-08
-1.43771e-07
-7.18047e-08
-1.48284e-07
-7.03465e-08
-1.52325e-07
-6.8881e-08
-1.55903e-07
-6.74259e-08
-1.59031e-07
-6.59761e-08
-1.61726e-07
-6.45479e-08
-1.64012e-07
-6.31347e-08
-1.65912e-07
-6.17521e-08
-1.67456e-07
-6.03921e-08
-1.68674e-07
-5.90703e-08
-1.69597e-07
-5.77763e-08
-1.70255e-07
-1.70675e-07
-5.65276e-08
-8.46552e-08
-1.0048e-07
8.57017e-08
-8.3497e-08
-1.08211e-07
-8.22385e-08
-1.1551e-07
-8.09051e-08
-1.22383e-07
-7.95013e-08
-1.28812e-07
-7.80505e-08
-1.34781e-07
-7.65541e-08
-1.40278e-07
-7.50336e-08
-1.45294e-07
-7.34878e-08
-1.49826e-07
-7.19364e-08
-1.53878e-07
-7.03764e-08
-1.57459e-07
-6.88259e-08
-1.60583e-07
-6.728e-08
-1.63268e-07
-6.57555e-08
-1.65537e-07
-6.42464e-08
-1.67416e-07
-6.27682e-08
-1.68935e-07
-6.13138e-08
-1.70123e-07
-5.98986e-08
-1.71012e-07
-5.85132e-08
-1.71633e-07
-1.72014e-07
-5.71747e-08
-8.69934e-08
-1.01591e-07
8.81003e-08
-8.5767e-08
-1.09442e-07
-8.44344e-08
-1.16842e-07
-8.30213e-08
-1.238e-07
-8.15332e-08
-1.30299e-07
-7.99939e-08
-1.36324e-07
-7.84056e-08
-1.41864e-07
-7.67899e-08
-1.46912e-07
-7.51467e-08
-1.51466e-07
-7.34957e-08
-1.55531e-07
-7.18348e-08
-1.59117e-07
-7.0182e-08
-1.62237e-07
-6.85335e-08
-1.64912e-07
-6.69061e-08
-1.67165e-07
-6.52942e-08
-1.69023e-07
-6.3714e-08
-1.70516e-07
-6.21585e-08
-1.71673e-07
-6.06436e-08
-1.72528e-07
-5.91602e-08
-1.73111e-07
-1.73449e-07
-5.77259e-08
-8.93463e-08
-1.02764e-07
9.05162e-08
-8.80493e-08
-1.10744e-07
-8.6639e-08
-1.18252e-07
-8.51418e-08
-1.25301e-07
-8.35643e-08
-1.31875e-07
-8.19308e-08
-1.37961e-07
-8.02443e-08
-1.43549e-07
-7.85272e-08
-1.48632e-07
-7.67798e-08
-1.53211e-07
-7.50224e-08
-1.57291e-07
-7.32535e-08
-1.60882e-07
-7.14915e-08
-1.64e-07
-6.97332e-08
-1.66666e-07
-6.79956e-08
-1.68904e-07
-6.6274e-08
-1.70741e-07
-6.45844e-08
-1.72206e-07
-6.2921e-08
-1.73332e-07
-6.12994e-08
-1.7415e-07
-5.97115e-08
-1.74692e-07
-1.74987e-07
-5.81747e-08
-9.17266e-08
-1.04008e-07
9.2965e-08
-9.03522e-08
-1.12123e-07
-8.88577e-08
-1.19747e-07
-8.72698e-08
-1.26894e-07
-8.55963e-08
-1.33548e-07
-8.38619e-08
-1.39699e-07
-8.20705e-08
-1.45338e-07
-8.02446e-08
-1.50461e-07
-7.83859e-08
-1.55067e-07
-7.65145e-08
-1.59164e-07
-7.46301e-08
-1.62763e-07
-7.2751e-08
-1.65881e-07
-7.08751e-08
-1.68539e-07
-6.90195e-08
-1.70761e-07
-6.71803e-08
-1.72576e-07
-6.53737e-08
-1.74014e-07
-6.35945e-08
-1.75106e-07
-6.18588e-08
-1.75887e-07
-6.01589e-08
-1.76387e-07
-1.76634e-07
-5.85126e-08
-9.41255e-08
-1.05322e-07
9.54354e-08
-9.26708e-08
-1.13583e-07
-9.10879e-08
-1.21331e-07
-8.94042e-08
-1.28582e-07
-8.76287e-08
-1.35323e-07
-8.57866e-08
-1.41545e-07
-8.38831e-08
-1.4724e-07
-8.19411e-08
-1.52406e-07
-7.99631e-08
-1.57043e-07
-7.79698e-08
-1.6116e-07
-7.59616e-08
-1.64769e-07
-7.39572e-08
-1.67887e-07
-7.19553e-08
-1.70537e-07
-6.99731e-08
-1.72744e-07
-6.8008e-08
-1.74537e-07
-6.6076e-08
-1.75946e-07
-6.41729e-08
-1.77005e-07
-6.23148e-08
-1.77746e-07
-6.04952e-08
-1.78201e-07
-1.78399e-07
-5.87315e-08
-9.65576e-08
-1.06715e-07
9.79456e-08
-9.50148e-08
-1.15131e-07
-9.3336e-08
-1.23011e-07
-9.15489e-08
-1.30374e-07
-8.96637e-08
-1.37208e-07
-8.77061e-08
-1.43507e-07
-8.56825e-08
-1.49263e-07
-8.36159e-08
-1.54475e-07
-8.15102e-08
-1.59147e-07
-7.9386e-08
-1.63286e-07
-7.72451e-08
-1.66907e-07
-7.51062e-08
-1.70028e-07
-7.29691e-08
-1.72671e-07
-7.08513e-08
-1.74864e-07
-6.87508e-08
-1.76634e-07
-6.66843e-08
-1.78014e-07
-6.46482e-08
-1.79037e-07
-6.26588e-08
-1.79736e-07
-6.07106e-08
-1.80144e-07
-1.8029e-07
-5.88212e-08
-9.9014e-08
-1.0819e-07
1.00484e-07
-9.73794e-08
-1.16771e-07
-9.55994e-08
-1.24792e-07
-9.37026e-08
-1.32275e-07
-9.17007e-08
-1.3921e-07
-8.96198e-08
-1.45592e-07
-8.74677e-08
-1.51414e-07
-8.52678e-08
-1.56678e-07
-8.30251e-08
-1.61388e-07
-8.07607e-08
-1.65553e-07
-7.84773e-08
-1.69188e-07
-7.61941e-08
-1.72313e-07
-7.3912e-08
-1.74951e-07
-7.16484e-08
-1.77128e-07
-6.94028e-08
-1.78876e-07
-6.71916e-08
-1.80226e-07
-6.50129e-08
-1.81212e-07
-6.28826e-08
-1.81868e-07
-6.07965e-08
-1.82226e-07
-1.82315e-07
-5.87721e-08
-1.01509e-07
-1.09754e-07
1.03067e-07
-9.97738e-08
-1.18512e-07
-9.78844e-08
-1.26684e-07
-9.58694e-08
-1.34295e-07
-9.37421e-08
-1.41338e-07
-9.15288e-08
-1.47809e-07
-8.92388e-08
-1.53704e-07
-8.68959e-08
-1.59024e-07
-8.45062e-08
-1.63776e-07
-8.20912e-08
-1.67971e-07
-7.96549e-08
-1.71623e-07
-7.72166e-08
-1.74753e-07
-7.47784e-08
-1.77386e-07
-7.23582e-08
-1.7955e-07
-6.99564e-08
-1.81275e-07
-6.75899e-08
-1.82595e-07
-6.52576e-08
-1.83542e-07
-6.29758e-08
-1.84151e-07
-6.07415e-08
-1.84456e-07
-1.84487e-07
-5.85721e-08
-1.04034e-07
-1.11411e-07
1.05685e-07
-1.02194e-07
-1.20357e-07
-1.00189e-07
-1.28691e-07
-9.80487e-08
-1.36441e-07
-9.57876e-08
-1.436e-07
-9.34328e-08
-1.50168e-07
-9.09952e-08
-1.56141e-07
-8.84988e-08
-1.61524e-07
-8.59514e-08
-1.66323e-07
-8.33747e-08
-1.7055e-07
-8.07739e-08
-1.74222e-07
-7.81689e-08
-1.7736e-07
-7.5563e-08
-1.7999e-07
-7.29742e-08
-1.82141e-07
-7.04045e-08
-1.83843e-07
-6.78707e-08
-1.8513e-07
-6.53732e-08
-1.86036e-07
-6.29284e-08
-1.86597e-07
-6.05347e-08
-1.86846e-07
-1.86813e-07
-5.82095e-08
-1.06604e-07
-1.1317e-07
1.08357e-07
-1.04651e-07
-1.22318e-07
-1.02521e-07
-1.30824e-07
-1.00245e-07
-1.38722e-07
-9.78399e-08
-1.46007e-07
-9.53332e-08
-1.52679e-07
-9.27369e-08
-1.58738e-07
-9.00758e-08
-1.64188e-07
-8.73588e-08
-1.69039e-07
-8.46081e-08
-1.73303e-07
-8.18305e-08
-1.76998e-07
-7.90459e-08
-1.80147e-07
-7.62592e-08
-1.82775e-07
-7.34889e-08
-1.84913e-07
-7.0738e-08
-1.86592e-07
-6.8024e-08
-1.87846e-07
-6.53484e-08
-1.8871e-07
-6.27281e-08
-1.8922e-07
-6.01626e-08
-1.89409e-07
-1.89309e-07
-5.76696e-08
-1.09213e-07
-1.15034e-07
1.11072e-07
-1.0714e-07
-1.24398e-07
-1.04877e-07
-1.33089e-07
-1.02458e-07
-1.41147e-07
-9.98992e-08
-1.48567e-07
-9.72298e-08
-1.55353e-07
-9.44634e-08
-1.61505e-07
-9.16252e-08
-1.6703e-07
-8.87259e-08
-1.71938e-07
-8.57881e-08
-1.76243e-07
-8.28199e-08
-1.79965e-07
-7.98419e-08
-1.83127e-07
-7.68605e-08
-1.85756e-07
-7.38942e-08
-1.87881e-07
-7.09481e-08
-1.89536e-07
-6.80395e-08
-1.90756e-07
-6.51719e-08
-1.91576e-07
-6.23621e-08
-1.92031e-07
-5.96116e-08
-1.92157e-07
-1.91984e-07
-5.69378e-08
-1.11875e-07
-1.17015e-07
1.13847e-07
-1.09671e-07
-1.26608e-07
-1.07266e-07
-1.35499e-07
-1.04692e-07
-1.43727e-07
-1.01968e-07
-1.51294e-07
-9.91239e-08
-1.58201e-07
-9.61747e-08
-1.64455e-07
-9.31461e-08
-1.70062e-07
-9.00506e-08
-1.75034e-07
-8.69111e-08
-1.79386e-07
-8.37375e-08
-1.83139e-07
-8.05508e-08
-1.86317e-07
-7.73589e-08
-1.88947e-07
-7.41812e-08
-1.91061e-07
-7.10239e-08
-1.92693e-07
-6.79052e-08
-1.93877e-07
-6.483e-08
-1.9465e-07
-6.18156e-08
-1.95048e-07
-5.88649e-08
-1.95107e-07
-1.94856e-07
-5.5996e-08
-1.14583e-07
-1.19115e-07
1.16676e-07
-1.12242e-07
-1.28955e-07
-1.09686e-07
-1.38059e-07
-1.06947e-07
-1.46472e-07
-1.04047e-07
-1.54196e-07
-1.01016e-07
-1.61238e-07
-9.78702e-08
-1.67602e-07
-9.4637e-08
-1.73299e-07
-9.13301e-08
-1.78341e-07
-8.79731e-08
-1.82746e-07
-8.45778e-08
-1.86534e-07
-8.11656e-08
-1.89731e-07
-7.77464e-08
-1.92366e-07
-7.43397e-08
-1.9447e-07
-7.09542e-08
-1.96078e-07
-6.7608e-08
-1.97225e-07
-6.43082e-08
-1.97949e-07
-6.10724e-08
-1.98286e-07
-5.79055e-08
-1.98272e-07
-1.97938e-07
-5.48258e-08
-1.17353e-07
-1.21348e-07
1.19576e-07
-1.14864e-07
-1.31451e-07
-1.12145e-07
-1.40783e-07
-1.09229e-07
-1.49395e-07
-1.0614e-07
-1.57289e-07
-1.02907e-07
-1.64476e-07
-9.95504e-08
-1.70961e-07
-9.60967e-08
-1.76757e-07
-9.25618e-08
-1.81878e-07
-8.89699e-08
-1.86341e-07
-8.53349e-08
-1.9017e-07
-8.16786e-08
-1.93391e-07
-7.80129e-08
-1.96032e-07
-7.43584e-08
-1.98128e-07
-7.07252e-08
-1.99712e-07
-6.71326e-08
-2.00821e-07
-6.35891e-08
-2.01493e-07
-6.01136e-08
-2.01765e-07
-5.67122e-08
-2.01674e-07
-2.0125e-07
-5.34043e-08
-1.20179e-07
-1.23716e-07
1.2254e-07
-1.17536e-07
-1.34102e-07
-1.14644e-07
-1.4368e-07
-1.11539e-07
-1.52506e-07
-1.08247e-07
-1.60586e-07
-1.04799e-07
-1.67929e-07
-1.01215e-07
-1.74548e-07
-9.75234e-08
-1.80453e-07
-9.37423e-08
-1.85661e-07
-8.98965e-08
-1.90191e-07
-8.60017e-08
-1.94067e-07
-8.20809e-08
-1.97315e-07
-7.81481e-08
-1.99967e-07
-7.42243e-08
-2.02055e-07
-7.03223e-08
-2.03615e-07
-6.64619e-08
-2.04685e-07
-6.2654e-08
-2.05302e-07
-5.89181e-08
-2.05504e-07
-5.52627e-08
-2.0533e-07
-2.04808e-07
-5.17074e-08
-1.23078e-07
-1.26234e-07
1.25585e-07
-1.20267e-07
-1.36922e-07
-1.1719e-07
-1.46764e-07
-1.13883e-07
-1.5582e-07
-1.10373e-07
-1.641e-07
-1.06692e-07
-1.71616e-07
-1.02864e-07
-1.7838e-07
-9.89155e-08
-1.84406e-07
-9.48681e-08
-1.89711e-07
-9.0747e-08
-1.94316e-07
-8.65705e-08
-1.98246e-07
-8.23622e-08
-2.01527e-07
-7.81386e-08
-2.04193e-07
-7.3922e-08
-2.06275e-07
-6.97272e-08
-2.07812e-07
-6.55755e-08
-2.08841e-07
-6.14798e-08
-2.094e-07
-5.74608e-08
-2.09528e-07
-5.35291e-08
-2.09263e-07
-2.08637e-07
-4.97055e-08
-1.26044e-07
-1.28906e-07
1.28706e-07
-1.23057e-07
-1.39917e-07
-1.19784e-07
-1.50043e-07
-1.16261e-07
-1.5935e-07
-1.12519e-07
-1.67848e-07
-1.08589e-07
-1.75552e-07
-1.04496e-07
-1.82477e-07
-1.00271e-07
-1.88637e-07
-9.59346e-08
-1.94051e-07
-9.15146e-08
-1.98741e-07
-8.70316e-08
-2.02732e-07
-8.25102e-08
-2.06053e-07
-7.79698e-08
-2.08736e-07
-7.34336e-08
-2.10816e-07
-6.89196e-08
-2.12329e-07
-6.445e-08
-2.13315e-07
-6.00406e-08
-2.13812e-07
-5.57132e-08
-2.1386e-07
-5.1481e-08
-2.13498e-07
-2.12757e-07
-4.73657e-08
-1.29096e-07
-1.31745e-07
1.31923e-07
-1.25919e-07
-1.43102e-07
-1.22436e-07
-1.53535e-07
-1.18682e-07
-1.63112e-07
-1.14689e-07
-1.71848e-07
-1.1049e-07
-1.79758e-07
-1.06112e-07
-1.8686e-07
-1.01586e-07
-1.93169e-07
-9.69364e-08
-1.98706e-07
-9.21909e-08
-2.03492e-07
-8.73735e-08
-2.07554e-07
-8.25101e-08
-2.10922e-07
-7.76231e-08
-2.13628e-07
-7.27376e-08
-2.15707e-07
-6.7874e-08
-2.17198e-07
-6.30568e-08
-2.18138e-07
-5.83044e-08
-2.18569e-07
-5.36404e-08
-2.18531e-07
-4.90803e-08
-2.18063e-07
-2.17196e-07
-4.46477e-08
-1.32229e-07
-1.34756e-07
1.3523e-07
-1.28854e-07
-1.46486e-07
-1.25148e-07
-1.57249e-07
-1.21147e-07
-1.67121e-07
-1.16886e-07
-1.76116e-07
-1.12397e-07
-1.84254e-07
-1.07711e-07
-1.91552e-07
-1.02858e-07
-1.98028e-07
-9.78664e-08
-2.03703e-07
-9.27654e-08
-2.08599e-07
-8.75821e-08
-2.12744e-07
-8.23438e-08
-2.16167e-07
-7.70768e-08
-2.18901e-07
-7.18075e-08
-2.20983e-07
-6.65606e-08
-2.22451e-07
-6.13621e-08
-2.23344e-07
-5.62339e-08
-2.23703e-07
-5.12015e-08
-2.23571e-07
-4.62837e-08
-2.22986e-07
-2.21982e-07
-4.15054e-08
-1.35461e-07
-1.37955e-07
1.38646e-07
-1.31873e-07
-1.50082e-07
-1.27929e-07
-1.61203e-07
-1.23664e-07
-1.71395e-07
-1.19113e-07
-1.80676e-07
-1.1431e-07
-1.89065e-07
-1.09289e-07
-1.96582e-07
-1.0408e-07
-2.03245e-07
-9.87155e-08
-2.09076e-07
-9.32247e-08
-2.14097e-07