/*--------------------------------*- C++ -*----------------------------------*\
  =========                 |
  \\      /  F ield         | OpenFOAM: The Open Source CFD Toolbox
   \\    /   O peration     | Website:  https://openfoam.org
    \\  /    A nd           | Version:  6
     \\/     M anipulation  |
\*---------------------------------------------------------------------------*/
FoamFile
{
    version     2.0;
    format      ascii;
    class       volVectorField;
    location    "23";
    object      U;
}
// * * * * * * * * * * * * * * * * * * * * * * * * * * * * * * * * * * * * * //

dimensions      [0 1 -1 0 0 0 0];

internalField   nonuniform List<vector> 
130000
(
(-0.0176996 -0.34198 0)
(-0.0182745 -0.366937 0)
(-0.0188234 -0.391229 0)
(-0.0193261 -0.414721 0)
(-0.0197758 -0.437317 0)
(-0.0201779 -0.458912 0)
(-0.0205371 -0.479397 0)
(-0.0208579 -0.498671 0)
(-0.0211448 -0.516651 0)
(-0.021402 -0.533276 0)
(-0.0216335 -0.548504 0)
(-0.0218428 -0.56232 0)
(-0.0220331 -0.574727 0)
(-0.0222072 -0.585753 0)
(-0.0223675 -0.595444 0)
(-0.022516 -0.603863 0)
(-0.0226541 -0.611088 0)
(-0.0227833 -0.617207 0)
(-0.0229051 -0.622315 0)
(-0.0230199 -0.626513 0)
(-0.0193175 -0.340511 0)
(-0.0196949 -0.36555 0)
(-0.0201132 -0.389943 0)
(-0.0205235 -0.413549 0)
(-0.0209018 -0.436263 0)
(-0.0212457 -0.457972 0)
(-0.0215563 -0.47856 0)
(-0.0218357 -0.497928 0)
(-0.0220871 -0.515991 0)
(-0.0223137 -0.532688 0)
(-0.022519 -0.547978 0)
(-0.022706 -0.561847 0)
(-0.0228776 -0.574298 0)
(-0.0230363 -0.585362 0)
(-0.0231839 -0.595084 0)
(-0.0233222 -0.60353 0)
(-0.0234524 -0.610777 0)
(-0.0235754 -0.616917 0)
(-0.0236927 -0.622043 0)
(-0.0238056 -0.626255 0)
(-0.0215931 -0.33978 0)
(-0.0218656 -0.364795 0)
(-0.0221863 -0.3892 0)
(-0.022503 -0.412841 0)
(-0.0227961 -0.435602 0)
(-0.0230639 -0.457363 0)
(-0.0233072 -0.478002 0)
(-0.0235276 -0.497419 0)
(-0.0237274 -0.515526 0)
(-0.0239093 -0.532261 0)
(-0.0240759 -0.547585 0)
(-0.0242297 -0.561482 0)
(-0.0243731 -0.573958 0)
(-0.024508 -0.585042 0)
(-0.024636 -0.594782 0)
(-0.0247584 -0.603244 0)
(-0.024876 -0.610506 0)
(-0.0249895 -0.616658 0)
(-0.0251005 -0.621795 0)
(-0.02521 -0.626019 0)
(-0.0247212 -0.339227 0)
(-0.0248358 -0.364247 0)
(-0.0250161 -0.388667 0)
(-0.0252049 -0.412337 0)
(-0.0253829 -0.435133 0)
(-0.0255478 -0.456931 0)
(-0.0256995 -0.477608 0)
(-0.0258388 -0.49706 0)
(-0.0259668 -0.515197 0)
(-0.0260855 -0.531959 0)
(-0.0261966 -0.547305 0)
(-0.0263022 -0.561219 0)
(-0.0264036 -0.573709 0)
(-0.0265025 -0.584804 0)
(-0.0265998 -0.594553 0)
(-0.0266965 -0.603021 0)
(-0.0267928 -0.610287 0)
(-0.0268891 -0.616444 0)
(-0.0269869 -0.621585 0)
(-0.0270867 -0.625811 0)
(-0.0283289 -0.338986 0)
(-0.0283115 -0.363991 0)
(-0.0283623 -0.388403 0)
(-0.0284259 -0.412077 0)
(-0.0284862 -0.434885 0)
(-0.0285417 -0.456698 0)
(-0.0285927 -0.477391 0)
(-0.0286399 -0.496857 0)
(-0.0286845 -0.515007 0)
(-0.0287279 -0.531779 0)
(-0.0287717 -0.547131 0)
(-0.0288173 -0.561049 0)
(-0.0288656 -0.57354 0)
(-0.0289178 -0.584635 0)
(-0.0289743 -0.594381 0)
(-0.0290357 -0.602846 0)
(-0.0291016 -0.610109 0)
(-0.0291719 -0.616263 0)
(-0.0292476 -0.621401 0)
(-0.029329 -0.625624 0)
(-0.0322931 -0.338987 0)
(-0.0321519 -0.363983 0)
(-0.0320797 -0.388382 0)
(-0.0320227 -0.412051 0)
(-0.0319675 -0.434858 0)
(-0.0319135 -0.456672 0)
(-0.0318615 -0.477365 0)
(-0.0318129 -0.496829 0)
(-0.0317687 -0.514976 0)
(-0.0317307 -0.531742 0)
(-0.0317 -0.547086 0)
(-0.031678 -0.560994 0)
(-0.0316654 -0.573474 0)
(-0.0316627 -0.584555 0)
(-0.0316701 -0.594288 0)
(-0.0316876 -0.60274 0)
(-0.0317147 -0.60999 0)
(-0.0317506 -0.616132 0)
(-0.031796 -0.62126 0)
(-0.031851 -0.625475 0)
(-0.0364622 -0.339206 0)
(-0.0362109 -0.364195 0)
(-0.0360328 -0.388581 0)
(-0.0358697 -0.412241 0)
(-0.0357098 -0.435041 0)
(-0.0355536 -0.456848 0)
(-0.0354031 -0.477532 0)
(-0.0352604 -0.496984 0)
(-0.0351273 -0.515116 0)
(-0.0350059 -0.531864 0)
(-0.0348976 -0.547187 0)
(-0.0348037 -0.561073 0)
(-0.0347247 -0.573529 0)
(-0.0346613 -0.584587 0)
(-0.0346132 -0.594295 0)
(-0.0345802 -0.602724 0)
(-0.0345615 -0.609952 0)
(-0.0345559 -0.616074 0)
(-0.0345638 -0.621184 0)
(-0.034585 -0.625384 0)
(-0.0407438 -0.339596 0)
(-0.0404155 -0.36459 0)
(-0.0401482 -0.38897 0)
(-0.0398911 -0.412626 0)
(-0.0396356 -0.43542 0)
(-0.0393842 -0.457215 0)
(-0.0391402 -0.477884 0)
(-0.0389068 -0.497317 0)
(-0.0386866 -0.515425 0)
(-0.038482 -0.532145 0)
(-0.038295 -0.547438 0)
(-0.038127 -0.561291 0)
(-0.0379786 -0.573713 0)
(-0.0378504 -0.584737 0)
(-0.0377422 -0.594412 0)
(-0.0376536 -0.602808 0)
(-0.0375834 -0.610006 0)
(-0.0375305 -0.616099 0)
(-0.0374949 -0.621184 0)
(-0.0374764 -0.625361 0)
(-0.0450997 -0.340144 0)
(-0.0447093 -0.365155 0)
(-0.0443638 -0.389538 0)
(-0.0440221 -0.413193 0)
(-0.0436798 -0.435981 0)
(-0.0433407 -0.457765 0)
(-0.0430096 -0.478415 0)
(-0.0426903 -0.497822 0)
(-0.0423863 -0.5159 0)
(-0.0421008 -0.532585 0)
(-0.0418359 -0.547839 0)
(-0.0415935 -0.561652 0)
(-0.0413744 -0.574032 0)
(-0.0411795 -0.585012 0)
(-0.0410083 -0.594645 0)
(-0.0408606 -0.603001 0)
(-0.0407351 -0.61016 0)
(-0.0406305 -0.616218 0)
(-0.0405467 -0.621272 0)
(-0.0404834 -0.62542 0)
(-0.0494928 -0.34081 0)
(-0.0490349 -0.365854 0)
(-0.0486244 -0.390255 0)
(-0.0482118 -0.413918 0)
(-0.0477937 -0.436706 0)
(-0.0473759 -0.458479 0)
(-0.0469648 -0.47911 0)
(-0.0465653 -0.49849 0)
(-0.0461819 -0.516534 0)
(-0.0458182 -0.533179 0)
(-0.0454773 -0.54839 0)
(-0.0451614 -0.562155 0)
(-0.0448716 -0.574486 0)
(-0.0446089 -0.585417 0)
(-0.0443731 -0.595002 0)
(-0.0441639 -0.603309 0)
(-0.0439804 -0.610424 0)
(-0.0438208 -0.61644 0)
(-0.0436852 -0.621455 0)
(-0.0435732 -0.625567 0)
(-0.0539357 -0.341585 0)
(-0.0534024 -0.366671 0)
(-0.052926 -0.391101 0)
(-0.0524445 -0.414782 0)
(-0.0519546 -0.437575 0)
(-0.0514629 -0.459343 0)
(-0.0509766 -0.479958 0)
(-0.0505012 -0.499311 0)
(-0.0500419 -0.51732 0)
(-0.049603 -0.533923 0)
(-0.0491882 -0.549087 0)
(-0.0487999 -0.5628 0)
(-0.0484398 -0.575078 0)
(-0.048109 -0.585954 0)
(-0.0478077 -0.595484 0)
(-0.0475356 -0.603738 0)
(-0.0472919 -0.610802 0)
(-0.0470749 -0.616769 0)
(-0.0468847 -0.62174 0)
(-0.046721 -0.625812 0)
(-0.0583587 -0.342462 0)
(-0.0577689 -0.367602 0)
(-0.0572386 -0.392071 0)
(-0.0566974 -0.415779 0)
(-0.0561426 -0.438585 0)
(-0.0555822 -0.460351 0)
(-0.055025 -0.480952 0)
(-0.0544771 -0.50028 0)
(-0.0539448 -0.518254 0)
(-0.0534329 -0.534814 0)
(-0.0529457 -0.549927 0)
(-0.052486 -0.563587 0)
(-0.0520561 -0.575807 0)
(-0.0516571 -0.586624 0)
(-0.0512896 -0.596095 0)
(-0.0509535 -0.604291 0)
(-0.050648 -0.611298 0)
(-0.0503717 -0.617212 0)
(-0.0501246 -0.622133 0)
(-0.0499065 -0.626159 0)
(-0.0627945 -0.343438 0)
(-0.0621599 -0.368645 0)
(-0.061573 -0.393165 0)
(-0.0609696 -0.416908 0)
(-0.0603498 -0.439732 0)
(-0.059722 -0.461501 0)
(-0.0590956 -0.48209 0)
(-0.0584773 -0.501394 0)
(-0.057874 -0.519332 0)
(-0.0572908 -0.535848 0)
(-0.0567326 -0.55091 0)
(-0.0562025 -0.564513 0)
(-0.0557032 -0.576673 0)
(-0.055236 -0.587428 0)
(-0.0548018 -0.596835 0)
(-0.0544008 -0.604969 0)
(-0.0540324 -0.611916 0)
(-0.0536951 -0.617773 0)
(-0.0533892 -0.622639 0)
(-0.0531146 -0.626613 0)
(-0.0672198 -0.344518 0)
(-0.066544 -0.369803 0)
(-0.0659043 -0.394381 0)
(-0.0652428 -0.418163 0)
(-0.0645613 -0.44101 0)
(-0.0638691 -0.462785 0)
(-0.0631761 -0.483366 0)
(-0.0624897 -0.502648 0)
(-0.0618172 -0.520552 0)
(-0.0611642 -0.537023 0)
(-0.060536 -0.552034 0)
(-0.0599361 -0.565579 0)
(-0.0593676 -0.577676 0)
(-0.0588321 -0.588367 0)
(-0.0583308 -0.597709 0)
(-0.057864 -0.605777 0)
(-0.0574313 -0.61266 0)
(-0.0570316 -0.618454 0)
(-0.0566651 -0.623262 0)
(-0.0563319 -0.627181 0)
(-0.0716524 -0.345681 0)
(-0.0709274 -0.371054 0)
(-0.0702345 -0.3957 0)
(-0.0695155 -0.419532 0)
(-0.0687739 -0.44241 0)
(-0.0680189 -0.464198 0)
(-0.0672608 -0.484774 0)
(-0.0665075 -0.504037 0)
(-0.0657668 -0.521909 0)
(-0.0650447 -0.538338 0)
(-0.0643469 -0.553297 0)
(-0.0636775 -0.566784 0)
(-0.0630397 -0.578818 0)
(-0.0624355 -0.589442 0)
(-0.0618663 -0.598716 0)
(-0.0613327 -0.606716 0)
(-0.0608347 -0.613531 0)
(-0.060371 -0.61926 0)
(-0.0599422 -0.624005 0)
(-0.0595484 -0.627865 0)
(-0.0760861 -0.346936 0)
(-0.0753194 -0.372405 0)
(-0.074572 -0.397127 0)
(-0.0737939 -0.421016 0)
(-0.0729908 -0.443932 0)
(-0.0721721 -0.465738 0)
(-0.0713483 -0.486315 0)
(-0.0705277 -0.505563 0)
(-0.0697183 -0.523405 0)
(-0.0689268 -0.539793 0)
(-0.0681591 -0.554701 0)
(-0.0674195 -0.568129 0)
(-0.0667117 -0.580099 0)
(-0.0660379 -0.590655 0)
(-0.0653998 -0.599859 0)
(-0.0647981 -0.607789 0)
(-0.0642331 -0.614534 0)
(-0.0637039 -0.620195 0)
(-0.0632109 -0.624874 0)
(-0.0627543 -0.628669 0)
(-0.0805017 -0.348283 0)
(-0.0797059 -0.373863 0)
(-0.0789081 -0.398671 0)
(-0.078072 -0.422624 0)
(-0.0772075 -0.445583 0)
(-0.0763245 -0.467412 0)
(-0.0754344 -0.487993 0)
(-0.0745457 -0.507228 0)
(-0.073667 -0.525043 0)
(-0.0728053 -0.54139 0)
(-0.0719668 -0.556248 0)
(-0.0711561 -0.569617 0)
(-0.0703773 -0.581522 0)
(-0.0696327 -0.592009 0)
(-0.0689243 -0.601142 0)
(-0.0682531 -0.608999 0)
(-0.0676196 -0.615672 0)
(-0.0670231 -0.621261 0)
(-0.0664639 -0.62587 0)
(-0.0659425 -0.629599 0)
(-0.0849343 -0.349733 0)
(-0.0841027 -0.375437 0)
(-0.083248 -0.40034 0)
(-0.0823495 -0.424363 0)
(-0.0814209 -0.447368 0)
(-0.080472 -0.469224 0)
(-0.0795144 -0.489811 0)
(-0.0785568 -0.509035 0)
(-0.0776078 -0.526824 0)
(-0.0766749 -0.543132 0)
(-0.0757646 -0.55794 0)
(-0.0748817 -0.57125 0)
(-0.0740304 -0.58309 0)
(-0.0732135 -0.593508 0)
(-0.0724332 -0.602567 0)
(-0.0716907 -0.61035 0)
(-0.0709867 -0.616948 0)
(-0.0703208 -0.622463 0)
(-0.0696932 -0.627 0)
(-0.0691046 -0.630658 0)
(-0.089351 -0.351282 0)
(-0.0884729 -0.37712 0)
(-0.0875666 -0.402126 0)
(-0.0866107 -0.426225 0)
(-0.085621 -0.449283 0)
(-0.0846079 -0.471169 0)
(-0.0835833 -0.491768 0)
(-0.0825566 -0.510984 0)
(-0.0815369 -0.528749 0)
(-0.0805318 -0.54502 0)
(-0.0795484 -0.559779 0)
(-0.0785918 -0.573031 0)
(-0.0776665 -0.584807 0)
(-0.0767756 -0.595153 0)
(-0.0759215 -0.604139 0)
(-0.0751057 -0.611845 0)
(-0.0743291 -0.618367 0)
(-0.0735916 -0.623806 0)
(-0.0728933 -0.628267 0)
(-0.072235 -0.631852 0)
(-0.0937806 -0.352913 0)
(-0.0928449 -0.378897 0)
(-0.0918828 -0.404017 0)
(-0.0908671 -0.428204 0)
(-0.0898146 -0.451324 0)
(-0.0887355 -0.473248 0)
(-0.0876425 -0.493862 0)
(-0.0865451 -0.513076 0)
(-0.0854528 -0.530821 0)
(-0.0843738 -0.547057 0)
(-0.0833152 -0.561769 0)
(-0.0822828 -0.574964 0)
(-0.0812813 -0.586675 0)
(-0.0803139 -0.596951 0)
(-0.0793836 -0.605862 0)
(-0.078492 -0.613491 0)
(-0.0776403 -0.619934 0)
(-0.0768285 -0.625294 0)
(-0.0760569 -0.629678 0)
(-0.0753263 -0.633185 0)
(-0.0981917 -0.354637 0)
(-0.097215 -0.380778 0)
(-0.096199 -0.406024 0)
(-0.0951225 -0.430308 0)
(-0.0940048 -0.453498 0)
(-0.0928572 -0.475465 0)
(-0.091693 -0.496101 0)
(-0.0905222 -0.515316 0)
(-0.0893548 -0.533044 0)
(-0.0881991 -0.549248 0)
(-0.0870629 -0.563915 0)
(-0.085952 -0.577054 0)
(-0.0848715 -0.5887 0)
(-0.0838251 -0.598905 0)
(-0.0828158 -0.607741 0)
(-0.0818456 -0.615291 0)
(-0.0809159 -0.621654 0)
(-0.0800272 -0.626933 0)
(-0.0791793 -0.631236 0)
(-0.0783735 -0.634663 0)
(-0.102617 -0.356475 0)
(-0.101601 -0.382785 0)
(-0.100524 -0.408166 0)
(-0.0993798 -0.432553 0)
(-0.098192 -0.455817 0)
(-0.096972 -0.477833 0)
(-0.0957331 -0.498493 0)
(-0.0944858 -0.517711 0)
(-0.0932403 -0.535426 0)
(-0.092005 -0.5516 0)
(-0.0907881 -0.566222 0)
(-0.0895956 -0.579307 0)
(-0.088433 -0.590889 0)
(-0.0873044 -0.601023 0)
(-0.0862129 -0.609782 0)
(-0.0851608 -0.617253 0)
(-0.0841499 -0.623534 0)
(-0.0831808 -0.62873 0)
(-0.0822534 -0.632949 0)
(-0.0813691 -0.636293 0)
(-0.107029 -0.358421 0)
(-0.105966 -0.384914 0)
(-0.104831 -0.410439 0)
(-0.103623 -0.434937 0)
(-0.102366 -0.458282 0)
(-0.101074 -0.480351 0)
(-0.0997587 -0.501041 0)
(-0.0984328 -0.520267 0)
(-0.0971064 -0.53797 0)
(-0.0957887 -0.554116 0)
(-0.0944879 -0.568697 0)
(-0.0932107 -0.581728 0)
(-0.0919628 -0.593247 0)
(-0.0907484 -0.60331 0)
(-0.0895712 -0.611992 0)
(-0.0884337 -0.619382 0)
(-0.087338 -0.625579 0)
(-0.086285 -0.63069 0)
(-0.0852745 -0.634823 0)
(-0.0843082 -0.63808 0)
(-0.11146 -0.360465 0)
(-0.110337 -0.387153 0)
(-0.109139 -0.412835 0)
(-0.107863 -0.437456 0)
(-0.106534 -0.460891 0)
(-0.105165 -0.483022 0)
(-0.103771 -0.503748 0)
(-0.102363 -0.522987 0)
(-0.100952 -0.540683 0)
(-0.0995484 -0.556805 0)
(-0.0981602 -0.571346 0)
(-0.0967944 -0.584324 0)
(-0.0954571 -0.59578 0)
(-0.094153 -0.605772 0)
(-0.092886 -0.614378 0)
(-0.091659 -0.621685 0)
(-0.0904744 -0.627798 0)
(-0.0893334 -0.632821 0)
(-0.0882359 -0.636865 0)
(-0.0871835 -0.640032 0)
(-0.115884 -0.362614 0)
(-0.114708 -0.389511 0)
(-0.113448 -0.415364 0)
(-0.112101 -0.440118 0)
(-0.110697 -0.463653 0)
(-0.109249 -0.485854 0)
(-0.107771 -0.506622 0)
(-0.106277 -0.525878 0)
(-0.104777 -0.543571 0)
(-0.103283 -0.559671 0)
(-0.101803 -0.574175 0)
(-0.100344 -0.587103 0)
(-0.0989133 -0.598497 0)
(-0.0975152 -0.608418 0)
(-0.0961541 -0.616946 0)
(-0.0948334 -0.624171 0)
(-0.0935556 -0.630196 0)
(-0.0923224 -0.635129 0)
(-0.0911335 -0.639082 0)
(-0.0899909 -0.642156 0)
(-0.120336 -0.364893 0)
(-0.119101 -0.392012 0)
(-0.117769 -0.418044 0)
(-0.116344 -0.44294 0)
(-0.114858 -0.466581 0)
(-0.113324 -0.488857 0)
(-0.111758 -0.509672 0)
(-0.110173 -0.528951 0)
(-0.10858 -0.546644 0)
(-0.106991 -0.562725 0)
(-0.105414 -0.577194 0)
(-0.103857 -0.590073 0)
(-0.102328 -0.601406 0)
(-0.10083 -0.611257 0)
(-0.0993703 -0.619707 0)
(-0.0979509 -0.626847 0)
(-0.0965749 -0.632784 0)
(-0.0952447 -0.637625 0)
(-0.0939597 -0.641483 0)
(-0.0927222 -0.64446 0)
(-0.124786 -0.367299 0)
(-0.123479 -0.394653 0)
(-0.122077 -0.420875 0)
(-0.120576 -0.445921 0)
(-0.119008 -0.469677 0)
(-0.117387 -0.492036 0)
(-0.115729 -0.512905 0)
(-0.114049 -0.532212 0)
(-0.112359 -0.549909 0)
(-0.110669 -0.565975 0)
(-0.10899 -0.580411 0)
(-0.107331 -0.593243 0)
(-0.105697 -0.604517 0)
(-0.104096 -0.614298 0)
(-0.102531 -0.622669 0)
(-0.101008 -0.629725 0)
(-0.0995283 -0.635571 0)
(-0.0980958 -0.640317 0)
(-0.0967096 -0.644078 0)
(-0.0953724 -0.646955 0)
(-0.12927 -0.369827 0)
(-0.127877 -0.39743 0)
(-0.126396 -0.423855 0)
(-0.124811 -0.449064 0)
(-0.123154 -0.472946 0)
(-0.121441 -0.495397 0)
(-0.119686 -0.516328 0)
(-0.117906 -0.53567 0)
(-0.116112 -0.553378 0)
(-0.114317 -0.569433 0)
(-0.11253 -0.583839 0)
(-0.110762 -0.596626 0)
(-0.109018 -0.607841 0)
(-0.107306 -0.617553 0)
(-0.105632 -0.625846 0)
(-0.103998 -0.632815 0)
(-0.102409 -0.638568 0)
(-0.100868 -0.643218 0)
(-0.0993753 -0.646878 0)
(-0.0979327 -0.649651 0)
(-0.133752 -0.372493 0)
(-0.132281 -0.400359 0)
(-0.130719 -0.426998 0)
(-0.129048 -0.452382 0)
(-0.127298 -0.4764 0)
(-0.125486 -0.498953 0)
(-0.12363 -0.519954 0)
(-0.121743 -0.539337 0)
(-0.11984 -0.557061 0)
(-0.117932 -0.57311 0)
(-0.116032 -0.58749 0)
(-0.114148 -0.600234 0)
(-0.112288 -0.611393 0)
(-0.11046 -0.621036 0)
(-0.108668 -0.629249 0)
(-0.106918 -0.636131 0)
(-0.105213 -0.64179 0)
(-0.103558 -0.64634 0)
(-0.101952 -0.649896 0)
(-0.100398 -0.65256 0)
(-0.138256 -0.375305 0)
(-0.136707 -0.403449 0)
(-0.135058 -0.430317 0)
(-0.133292 -0.455887 0)
(-0.131443 -0.480053 0)
(-0.129526 -0.502717 0)
(-0.12756 -0.523796 0)
(-0.12556 -0.543228 0)
(-0.123541 -0.560973 0)
(-0.121514 -0.57702 0)
(-0.119493 -0.591379 0)
(-0.117486 -0.604082 0)
(-0.115503 -0.615185 0)
(-0.11355 -0.624759 0)
(-0.111634 -0.632893 0)
(-0.109761 -0.639686 0)
(-0.107934 -0.645249 0)
(-0.106157 -0.649697 0)
(-0.104431 -0.653144 0)
(-0.10276 -0.655696 0)
(-0.142766 -0.378268 0)
(-0.14114 -0.40671 0)
(-0.139403 -0.433822 0)
(-0.137539 -0.459594 0)
(-0.135585 -0.483919 0)
(-0.133558 -0.506704 0)
(-0.131476 -0.52787 0)
(-0.129356 -0.547357 0)
(-0.127213 -0.56513 0)
(-0.12506 -0.58118 0)
(-0.12291 -0.595519 0)
(-0.120774 -0.608185 0)
(-0.118659 -0.619234 0)
(-0.116575 -0.62874 0)
(-0.114528 -0.636794 0)
(-0.112523 -0.643497 0)
(-0.110565 -0.648961 0)
(-0.10866 -0.653303 0)
(-0.106807 -0.656638 0)
(-0.105011 -0.659072 0)
(-0.14731 -0.38139 0)
(-0.145598 -0.410149 0)
(-0.143764 -0.437525 0)
(-0.141794 -0.463512 0)
(-0.139728 -0.488009 0)
(-0.137582 -0.510927 0)
(-0.135376 -0.532188 0)
(-0.133129 -0.551738 0)
(-0.130854 -0.569546 0)
(-0.128567 -0.585603 0)
(-0.126281 -0.599928 0)
(-0.124006 -0.612559 0)
(-0.121752 -0.623555 0)
(-0.119528 -0.632993 0)
(-0.117341 -0.640966 0)
(-0.115197 -0.647578 0)
(-0.113101 -0.652941 0)
(-0.111058 -0.657173 0)
(-0.10907 -0.660393 0)
(-0.107141 -0.662703 0)
(-0.151869 -0.384679 0)
(-0.150067 -0.413778 0)
(-0.148133 -0.441437 0)
(-0.146053 -0.467656 0)
(-0.143867 -0.492339 0)
(-0.141596 -0.5154 0)
(-0.13926 -0.536767 0)
(-0.136877 -0.556389 0)
(-0.134462 -0.574237 0)
(-0.132033 -0.590308 0)
(-0.129601 -0.604621 0)
(-0.127179 -0.61722 0)
(-0.124777 -0.628165 0)
(-0.122404 -0.637536 0)
(-0.120068 -0.645428 0)
(-0.117776 -0.651947 0)
(-0.115533 -0.657206 0)
(-0.113346 -0.661326 0)
(-0.111214 -0.664424 0)
(-0.109145 -0.666606 0)
(-0.156469 -0.388149 0)
(-0.154567 -0.417609 0)
(-0.152521 -0.44557 0)
(-0.150322 -0.472038 0)
(-0.148009 -0.496922 0)
(-0.145603 -0.520139 0)
(-0.143127 -0.541623 0)
(-0.140599 -0.561325 0)
(-0.138036 -0.579221 0)
(-0.135454 -0.59531 0)
(-0.132867 -0.609618 0)
(-0.130289 -0.622187 0)
(-0.127729 -0.633083 0)
(-0.125198 -0.642388 0)
(-0.122703 -0.650198 0)
(-0.120253 -0.656621 0)
(-0.117854 -0.661774 0)
(-0.115512 -0.665777 0)
(-0.113228 -0.668749 0)
(-0.111008 -0.670797 0)
(-0.161089 -0.391811 0)
(-0.159082 -0.421656 0)
(-0.156922 -0.44994 0)
(-0.154596 -0.476676 0)
(-0.152149 -0.501775 0)
(-0.149601 -0.525162 0)
(-0.146977 -0.546773 0)
(-0.144294 -0.566565 0)
(-0.141573 -0.584516 0)
(-0.138829 -0.600631 0)
(-0.136077 -0.614936 0)
(-0.133332 -0.62748 0)
(-0.130603 -0.638328 0)
(-0.127903 -0.647567 0)
(-0.12524 -0.655294 0)
(-0.122622 -0.661621 0)
(-0.120056 -0.666664 0)
(-0.117548 -0.670545 0)
(-0.115102 -0.673386 0)
(-0.112724 -0.675293 0)
(-0.165754 -0.395678 0)
(-0.163631 -0.425934 0)
(-0.161346 -0.454562 0)
(-0.158884 -0.481584 0)
(-0.156292 -0.506916 0)
(-0.153593 -0.530487 0)
(-0.150809 -0.552237 0)
(-0.147962 -0.572128 0)
(-0.145071 -0.590144 0)
(-0.142154 -0.606291 0)
(-0.139227 -0.620599 0)
(-0.136303 -0.633119 0)
(-0.133395 -0.643923 0)
(-0.130515 -0.653096 0)
(-0.127671 -0.66074 0)
(-0.124873 -0.666967 0)
(-0.122129 -0.671897 0)
(-0.119446 -0.675653 0)
(-0.116826 -0.678357 0)
(-0.114278 -0.680116 0)
(-0.170445 -0.399763 0)
(-0.168201 -0.430455 0)
(-0.165785 -0.459452 0)
(-0.163181 -0.486781 0)
(-0.160437 -0.512363 0)
(-0.157576 -0.536132 0)
(-0.154623 -0.558035 0)
(-0.151601 -0.578037 0)
(-0.14853 -0.596126 0)
(-0.145428 -0.612311 0)
(-0.142313 -0.626628 0)
(-0.139199 -0.639129 0)
(-0.136099 -0.64989 0)
(-0.133026 -0.658998 0)
(-0.12999 -0.666558 0)
(-0.127001 -0.672684 0)
(-0.124067 -0.677497 0)
(-0.121195 -0.681122 0)
(-0.11839 -0.683682 0)
(-0.11566 -0.685286 0)
(-0.175188 -0.40408 0)
(-0.172812 -0.435237 0)
(-0.170254 -0.464627 0)
(-0.167496 -0.492284 0)
(-0.164587 -0.518135 0)
(-0.161553 -0.54212 0)
(-0.15842 -0.56419 0)
(-0.15521 -0.584314 0)
(-0.151946 -0.602485 0)
(-0.148647 -0.618717 0)
(-0.145331 -0.633048 0)
(-0.142014 -0.645535 0)
(-0.138709 -0.656254 0)
(-0.13543 -0.665299 0)
(-0.132188 -0.672774 0)
(-0.128994 -0.678796 0)
(-0.125856 -0.683489 0)
(-0.122784 -0.686978 0)
(-0.119781 -0.689388 0)
(-0.116857 -0.690828 0)
(-0.179964 -0.408646 0)
(-0.177451 -0.440298 0)
(-0.174744 -0.470107 0)
(-0.171824 -0.498116 0)
(-0.168741 -0.524256 0)
(-0.165523 -0.548474 0)
(-0.162197 -0.570725 0)
(-0.158788 -0.590984 0)
(-0.155318 -0.609248 0)
(-0.151808 -0.625535 0)
(-0.148277 -0.639886 0)
(-0.144742 -0.652363 0)
(-0.141219 -0.663044 0)
(-0.137719 -0.672026 0)
(-0.134257 -0.679415 0)
(-0.130844 -0.685331 0)
(-0.127489 -0.689899 0)
(-0.124202 -0.693246 0)
(-0.120987 -0.695498 0)
(-0.117856 -0.696767 0)
(-0.1848 -0.413475 0)
(-0.182138 -0.445656 0)
(-0.179269 -0.475913 0)
(-0.176174 -0.504298 0)
(-0.172904 -0.530749 0)
(-0.169488 -0.555218 0)
(-0.165956 -0.577666 0)
(-0.162333 -0.598074 0)
(-0.158643 -0.616442 0)
(-0.154907 -0.632793 0)
(-0.151147 -0.647172 0)
(-0.147379 -0.659643 0)
(-0.14362 -0.670289 0)
(-0.139885 -0.679209 0)
(-0.136187 -0.686511 0)
(-0.132539 -0.692319 0)
(-0.128951 -0.696757 0)
(-0.125434 -0.699956 0)
(-0.121993 -0.702043 0)
(-0.118639 -0.703129 0)
(-0.189679 -0.418585 0)
(-0.18686 -0.451328 0)
(-0.183822 -0.482064 0)
(-0.180541 -0.510852 0)
(-0.177074 -0.537638 0)
(-0.173448 -0.562379 0)
(-0.169696 -0.585042 0)
(-0.165844 -0.605614 0)
(-0.161918 -0.624098 0)
(-0.157941 -0.640523 0)
(-0.153934 -0.654937 0)
(-0.149917 -0.667408 0)
(-0.145907 -0.678022 0)
(-0.141919 -0.68688 0)
(-0.137968 -0.694095 0)
(-0.134068 -0.699791 0)
(-0.130231 -0.704095 0)
(-0.126467 -0.707139 0)
(-0.122783 -0.709052 0)
(-0.119193 -0.709946 0)
(-0.194631 -0.423995 0)
(-0.191641 -0.457338 0)
(-0.188418 -0.488585 0)
(-0.184938 -0.517805 0)
(-0.181256 -0.54495 0)
(-0.177405 -0.569985 0)
(-0.173417 -0.592883 0)
(-0.16932 -0.613634 0)
(-0.165141 -0.632248 0)
(-0.160905 -0.648758 0)
(-0.156635 -0.663215 0)
(-0.15235 -0.675692 0)
(-0.14807 -0.686277 0)
(-0.143811 -0.695076 0)
(-0.139589 -0.702202 0)
(-0.135419 -0.707782 0)
(-0.131313 -0.711947 0)
(-0.127285 -0.714829 0)
(-0.123341 -0.716558 0)
(-0.119496 -0.717248 0)
(-0.199637 -0.429725 0)
(-0.196467 -0.463709 0)
(-0.193051 -0.495501 0)
(-0.189359 -0.525185 0)
(-0.18545 -0.552717 0)
(-0.181359 -0.57807 0)
(-0.177118 -0.601222 0)
(-0.172759 -0.62217 0)
(-0.16831 -0.640928 0)
(-0.163796 -0.657534 0)
(-0.159243 -0.672044 0)
(-0.154671 -0.684533 0)
(-0.150101 -0.695094 0)
(-0.145551 -0.703834 0)
(-0.141038 -0.71087 0)
(-0.136578 -0.716332 0)
(-0.132185 -0.720351 0)
(-0.127872 -0.723063 0)
(-0.123649 -0.724598 0)
(-0.119531 -0.725072 0)
(-0.204727 -0.435798 0)
(-0.201361 -0.470464 0)
(-0.197735 -0.50284 0)
(-0.193815 -0.53302 0)
(-0.189662 -0.560969 0)
(-0.185312 -0.586665 0)
(-0.180801 -0.610094 0)
(-0.176161 -0.631258 0)
(-0.171421 -0.650177 0)
(-0.16661 -0.666892 0)
(-0.161752 -0.681464 0)
(-0.156872 -0.693972 0)
(-0.15199 -0.704513 0)
(-0.147127 -0.713196 0)
(-0.142301 -0.720142 0)
(-0.137529 -0.725481 0)
(-0.132827 -0.729349 0)
(-0.128209 -0.731881 0)
(-0.123686 -0.733211 0)
(-0.119274 -0.733455 0)
(-0.209883 -0.442233 0)
(-0.206313 -0.47763 0)
(-0.202465 -0.510629 0)
(-0.198303 -0.541342 0)
(-0.193891 -0.569739 0)
(-0.189265 -0.595807 0)
(-0.184464 -0.619538 0)
(-0.179523 -0.640938 0)
(-0.174471 -0.660035 0)
(-0.16934 -0.676873 0)
(-0.164156 -0.691519 0)
(-0.158944 -0.704055 0)
(-0.153728 -0.71458 0)
(-0.148528 -0.723208 0)
(-0.143365 -0.730062 0)
(-0.138257 -0.735275 0)
(-0.133222 -0.738984 0)
(-0.128276 -0.741328 0)
(-0.12343 -0.742441 0)
(-0.118702 -0.742439 0)
(-0.215137 -0.449057 0)
(-0.211346 -0.485233 0)
(-0.207258 -0.518901 0)
(-0.202836 -0.550186 0)
(-0.198144 -0.579066 0)
(-0.193221 -0.605536 0)
(-0.18811 -0.629594 0)
(-0.182844 -0.651254 0)
(-0.177458 -0.670548 0)
(-0.171982 -0.687525 0)
(-0.166447 -0.702257 0)
(-0.160879 -0.714829 0)
(-0.155301 -0.725344 0)
(-0.149739 -0.73392 0)
(-0.144213 -0.740681 0)
(-0.138743 -0.745764 0)
(-0.133349 -0.749307 0)
(-0.128049 -0.751452 0)
(-0.122855 -0.752334 0)
(-0.117787 -0.752071 0)
(-0.220472 -0.456298 0)
(-0.216451 -0.493305 0)
(-0.21211 -0.527689 0)
(-0.207411 -0.559588 0)
(-0.20242 -0.588989 0)
(-0.197181 -0.615894 0)
(-0.191736 -0.640309 0)
(-0.186123 -0.662254 0)
(-0.180377 -0.681765 0)
(-0.174532 -0.698899 0)
(-0.168618 -0.71373 0)
(-0.162665 -0.726348 0)
(-0.156699 -0.73686 0)
(-0.150746 -0.745385 0)
(-0.144828 -0.752053 0)
(-0.138968 -0.757002 0)
(-0.133187 -0.760371 0)
(-0.127505 -0.762305 0)
(-0.121935 -0.762941 0)
(-0.116501 -0.762399 0)
(-0.225921 -0.46398 0)
(-0.221651 -0.501879 0)
(-0.217037 -0.537029 0)
(-0.212039 -0.569589 0)
(-0.206728 -0.599551 0)
(-0.201149 -0.626927 0)
(-0.195346 -0.651731 0)
(-0.189359 -0.673988 0)
(-0.183225 -0.69374 0)
(-0.176982 -0.71105 0)
(-0.17066 -0.725995 0)
(-0.164293 -0.738671 0)
(-0.157907 -0.749187 0)
(-0.151531 -0.757666 0)
(-0.14519 -0.764239 0)
(-0.138908 -0.769048 0)
(-0.132709 -0.772235 0)
(-0.126614 -0.773946 0)
(-0.12064 -0.774321 0)
(-0.114809 -0.773479 0)
(-0.231469 -0.472135 0)
(-0.226938 -0.510985 0)
(-0.222035 -0.546958 0)
(-0.216721 -0.580228 0)
(-0.211068 -0.610797 0)
(-0.205125 -0.638684 0)
(-0.198937 -0.663911 0)
(-0.192549 -0.686511 0)
(-0.185999 -0.706531 0)
(-0.179326 -0.724039 0)
(-0.172565 -0.739116 0)
(-0.165749 -0.751862 0)
(-0.15891 -0.76239 0)
(-0.152077 -0.770826 0)
(-0.145278 -0.777305 0)
(-0.138541 -0.781969 0)
(-0.131889 -0.784965 0)
(-0.125347 -0.786439 0)
(-0.118934 -0.786534 0)
(-0.112676 -0.78537 0)
(-0.237151 -0.480792 0)
(-0.232339 -0.520661 0)
(-0.227124 -0.557517 0)
(-0.221469 -0.591551 0)
(-0.215449 -0.622775 0)
(-0.209114 -0.651218 0)
(-0.202514 -0.676908 0)
(-0.195693 -0.699884 0)
(-0.188694 -0.720202 0)
(-0.181557 -0.737932 0)
(-0.174321 -0.75316 0)
(-0.167021 -0.765991 0)
(-0.159691 -0.776541 0)
(-0.152363 -0.784939 0)
(-0.145068 -0.791323 0)
(-0.137835 -0.795837 0)
(-0.130693 -0.798631 0)
(-0.123667 -0.799854 0)
(-0.116779 -0.799649 0)
(-0.110057 -0.79814 0)
(-0.242955 -0.489986 0)
(-0.237846 -0.530945 0)
(-0.232302 -0.568748 0)
(-0.226285 -0.603606 0)
(-0.219873 -0.63554 0)
(-0.213119 -0.664586 0)
(-0.206075 -0.690782 0)
(-0.198789 -0.714174 0)
(-0.191305 -0.734822 0)
(-0.183668 -0.752801 0)
(-0.175917 -0.768204 0)
(-0.168092 -0.781137 0)
(-0.160229 -0.79172 0)
(-0.152364 -0.800086 0)
(-0.14453 -0.806374 0)
(-0.13676 -0.810734 0)
(-0.129085 -0.813315 0)
(-0.121534 -0.814269 0)
(-0.11413 -0.813743 0)
(-0.106906 -0.81186 0)
(-0.248913 -0.49975 0)
(-0.243485 -0.541876 0)
(-0.237587 -0.580697 0)
(-0.231182 -0.616444 0)
(-0.22435 -0.649146 0)
(-0.217145 -0.67885 0)
(-0.209623 -0.705601 0)
(-0.201835 -0.729452 0)
(-0.193828 -0.750468 0)
(-0.185648 -0.768729 0)
(-0.177339 -0.784332 0)
(-0.168944 -0.797386 0)
(-0.160502 -0.808016 0)
(-0.152053 -0.816356 0)
(-0.143632 -0.82255 0)
(-0.135277 -0.826748 0)
(-0.127022 -0.829104 0)
(-0.118899 -0.829772 0)
(-0.110935 -0.828899 0)
(-0.103165 -0.826613 0)
(-0.255016 -0.510119 0)
(-0.249253 -0.553494 0)
(-0.242982 -0.59341 0)
(-0.236164 -0.630118 0)
(-0.228883 -0.663655 0)
(-0.221195 -0.694078 0)
(-0.213159 -0.721439 0)
(-0.204829 -0.745798 0)
(-0.196254 -0.767224 0)
(-0.187486 -0.785804 0)
(-0.178571 -0.801637 0)
(-0.169556 -0.814836 0)
(-0.160483 -0.825528 0)
(-0.151396 -0.833851 0)
(-0.142336 -0.839951 0)
(-0.133343 -0.843981 0)
(-0.124455 -0.846098 0)
(-0.115709 -0.846457 0)
(-0.107135 -0.84521 0)
(-0.098771 -0.842486 0)
(-0.261299 -0.521129 0)
(-0.255178 -0.565843 0)
(-0.248507 -0.606939 0)
(-0.241246 -0.644686 0)
(-0.233483 -0.679132 0)
(-0.225275 -0.710342 0)
(-0.216684 -0.738376 0)
(-0.207767 -0.763299 0)
(-0.198578 -0.785187 0)
(-0.189169 -0.804128 0)
(-0.179594 -0.820225 0)
(-0.169901 -0.833596 0)
(-0.160138 -0.844368 0)
(-0.150354 -0.852683 0)
(-0.140594 -0.85869 0)
(-0.130903 -0.862545 0)
(-0.121323 -0.864406 0)
(-0.111896 -0.864434 0)
(-0.102656 -0.862781 0)
(-0.0936453 -0.859578 0)
(-0.267757 -0.532821 0)
(-0.261259 -0.578969 0)
(-0.254165 -0.621336 0)
(-0.246435 -0.660211 0)
(-0.238155 -0.695649 0)
(-0.229388 -0.727724 0)
(-0.220199 -0.756503 0)
(-0.210645 -0.782056 0)
(-0.200786 -0.804461 0)
(-0.19068 -0.823813 0)
(-0.180381 -0.840215 0)
(-0.169946 -0.853788 0)
(-0.159428 -0.864662 0)
(-0.148879 -0.872982 0)
(-0.13835 -0.878897 0)
(-0.127893 -0.882567 0)
(-0.117555 -0.884155 0)
(-0.107383 -0.883822 0)
(-0.097414 -0.881725 0)
(-0.0876983 -0.877999 0)
(-0.274423 -0.545233 0)
(-0.267524 -0.592919 0)
(-0.259978 -0.636658 0)
(-0.251745 -0.67676 0)
(-0.242911 -0.713284 0)
(-0.233541 -0.746313 0)
(-0.223701 -0.775919 0)
(-0.213456 -0.802177 0)
(-0.202866 -0.825167 0)
(-0.191995 -0.844987 0)
(-0.180904 -0.861742 0)
(-0.169653 -0.875554 0)
(-0.158301 -0.886555 0)
(-0.146909 -0.894892 0)
(-0.135534 -0.900716 0)
(-0.124233 -0.904191 0)
(-0.113061 -0.905482 0)
(-0.10207 -0.904755 0)
(-0.0913042 -0.902172 0)
(-0.0808175 -0.897867 0)
(-0.281296 -0.558403 0)
(-0.273975 -0.607737 0)
(-0.265953 -0.652963 0)
(-0.257185 -0.694402 0)
(-0.247756 -0.732121 0)
(-0.237734 -0.766208 0)
(-0.227189 -0.796737 0)
(-0.216188 -0.823787 0)
(-0.204798 -0.847441 0)
(-0.193087 -0.867796 0)
(-0.181122 -0.884959 0)
(-0.168971 -0.899053 0)
(-0.156699 -0.910211 0)
(-0.144375 -0.91858 0)
(-0.132063 -0.924315 0)
(-0.119829 -0.927581 0)
(-0.107736 -0.928547 0)
(-0.0958439 -0.927385 0)
(-0.0842017 -0.924261 0)
(-0.0728715 -0.919315 0)
(-0.288416 -0.572369 0)
(-0.280646 -0.623475 0)
(-0.272115 -0.670314 0)
(-0.262773 -0.713219 0)
(-0.252702 -0.752257 0)
(-0.241972 -0.787519 0)
(-0.230657 -0.819083 0)
(-0.218828 -0.847027 0)
(-0.206557 -0.871436 0)
(-0.193919 -0.892406 0)
(-0.180987 -0.910044 0)
(-0.167838 -0.92447 0)
(-0.154545 -0.935819 0)
(-0.141185 -0.944237 0)
(-0.127832 -0.949883 0)
(-0.114563 -0.952923 0)
(-0.101449 -0.953531 0)
(-0.0885596 -0.951884 0)
(-0.075952 -0.948155 0)
(-0.0636964 -0.942488 0)
(-0.295782 -0.58717 0)
(-0.287543 -0.640182 0)
(-0.278474 -0.688779 0)
(-0.268517 -0.733297 0)
(-0.257752 -0.773798 0)
(-0.246251 -0.810375 0)
(-0.234091 -0.843102 0)
(-0.221351 -0.872061 0)
(-0.208107 -0.897331 0)
(-0.194441 -0.919008 0)
(-0.180436 -0.937196 0)
(-0.166176 -0.952015 0)
(-0.151745 -0.963595 0)
(-0.13723 -0.972084 0)
(-0.122717 -0.97764 0)
(-0.108294 -0.980433 0)
(-0.0940434 -0.98064 0)
(-0.0800473 -0.978445 0)
(-0.0663727 -0.97403 0)
(-0.0530998 -0.967548 0)
(-0.303435 -0.602839 0)
(-0.294696 -0.657915 0)
(-0.285051 -0.708438 0)
(-0.274428 -0.754739 0)
(-0.262904 -0.796872 0)
(-0.250555 -0.834923 0)
(-0.237463 -0.868965 0)
(-0.223713 -0.899075 0)
(-0.209388 -0.92533 0)
(-0.19458 -0.947821 0)
(-0.179379 -0.966649 0)
(-0.16388 -0.981929 0)
(-0.148178 -0.993789 0)
(-0.132373 -1.00237 0)
(-0.116563 -1.00784 0)
(-0.100849 -1.01036 0)
(-0.0853309 -1.01011 0)
(-0.0701024 -1.00729 0)
(-0.0552443 -1.00209 0)
(-0.0408495 -0.994673 0)
(-0.311378 -0.619415 0)
(-0.302108 -0.676736 0)
(-0.291843 -0.729383 0)
(-0.280493 -0.777669 0)
(-0.268131 -0.821629 0)
(-0.25484 -0.861341 0)
(-0.24071 -0.896871 0)
(-0.225832 -0.928289 0)
(-0.210301 -0.955669 0)
(-0.194218 -0.979097 0)
(-0.177683 -0.998667 0)