/*--------------------------------*- C++ -*----------------------------------*\
  =========                 |
  \\      /  F ield         | OpenFOAM: The Open Source CFD Toolbox
   \\    /   O peration     | Website:  https://openfoam.org
    \\  /    A nd           | Version:  6
     \\/     M anipulation  |
\*---------------------------------------------------------------------------*/
FoamFile
{
    version     2.0;
    format      ascii;
    class       volVectorField;
    location    "23";
    object      U;
}
// * * * * * * * * * * * * * * * * * * * * * * * * * * * * * * * * * * * * * //

dimensions      [0 1 -1 0 0 0 0];

internalField   nonuniform List<vector> 
10000
(
(0.000133947 -3.11455 0)
(-0.00168031 -4.17281 0)
(-0.00344884 -4.69603 0)
(-0.00431156 -5.05057 0)
(-0.00422367 -5.28684 0)
(-0.00372831 -5.43715 0)
(-0.00315577 -5.52866 0)
(-0.00260083 -5.58177 0)
(-0.00204217 -5.60988 0)
(-0.00147557 -5.62059 0)
(-0.000885731 -5.6172 0)
(-0.00027286 -5.59975 0)
(0.000353292 -5.56508 0)
(0.00100652 -5.5062 0)
(0.00164457 -5.41076 0)
(0.00224892 -5.25941 0)
(0.00255296 -5.02601 0)
(0.00207443 -4.67765 0)
(0.001097 -4.16104 0)
(-8.51841e-05 -3.10974 0)
(0.000174987 -3.11583 0)
(-0.000159671 -4.17183 0)
(-0.00104457 -4.69537 0)
(-0.00178152 -5.05059 0)
(-0.0021682 -5.28758 0)
(-0.00219594 -5.43836 0)
(-0.00207236 -5.53013 0)
(-0.00184565 -5.58335 0)
(-0.00157064 -5.61151 0)
(-0.00125495 -5.62227 0)
(-0.000926428 -5.61895 0)
(-0.000594266 -5.60155 0)
(-0.000275752 -5.56693 0)
(2.40677e-06 -5.50811 0)
(0.000242358 -5.4127 0)
(0.000398082 -5.26116 0)
(0.000435253 -5.02723 0)
(0.000311473 -4.678 0)
(7.65771e-05 -4.16068 0)
(0.000340959 -3.11198 0)
(-0.000490295 -3.11592 0)
(-0.000497545 -4.17103 0)
(-0.000580407 -4.6949 0)
(-0.000977512 -5.05023 0)
(-0.00131453 -5.28733 0)
(-0.00143903 -5.43824 0)
(-0.00146739 -5.53012 0)
(-0.00139706 -5.58349 0)
(-0.00126917 -5.61178 0)
(-0.00109478 -5.62258 0)
(-0.000905376 -5.61923 0)
(-0.000719298 -5.60182 0)
(-0.000536111 -5.56718 0)
(-0.000377524 -5.50829 0)
(-0.000222377 -5.41278 0)
(-0.000105537 -5.26118 0)
(3.50722e-05 -5.02699 0)
(0.00015011 -4.67734 0)
(0.000226894 -4.15966 0)
(0.000652445 -3.11157 0)
(-0.000585425 -3.11489 0)
(-0.000284034 -4.16979 0)
(-8.26206e-05 -4.69391 0)
(-0.000188599 -5.04944 0)
(-0.00049052 -5.28669 0)
(-0.000734187 -5.43782 0)
(-0.000881241 -5.52996 0)
(-0.000942848 -5.58351 0)
(-0.000949101 -5.61192 0)
(-0.000912449 -5.6228 0)
(-0.000856179 -5.61949 0)
(-0.000783743 -5.60206 0)
(-0.000715079 -5.5674 0)
(-0.000639787 -5.50854 0)
(-0.000595519 -5.41303 0)
(-0.000517081 -5.2613 0)
(-0.00049755 -5.02693 0)
(-0.00026631 -4.67727 0)
(-7.81113e-05 -4.15973 0)
(0.000418408 -3.11127 0)
(-0.000419418 -3.11356 0)
(-0.000135476 -4.1691 0)
(-0.00010817 -4.69294 0)
(-4.98377e-05 -5.04837 0)
(-0.000232385 -5.28578 0)
(-0.000458544 -5.43718 0)
(-0.000621676 -5.5295 0)
(-0.00072212 -5.58316 0)
(-0.000799091 -5.61165 0)
(-0.000835315 -5.62264 0)
(-0.000842453 -5.6194 0)
(-0.000830596 -5.60199 0)
(-0.000813101 -5.56733 0)
(-0.000775114 -5.50851 0)
(-0.000777488 -5.41303 0)
(-0.000676074 -5.26119 0)
(-0.000635586 -5.02667 0)
(-0.000348588 -4.67678 0)
(-0.000209474 -4.15964 0)
(7.7222e-05 -3.11079 0)
(0.000160623 -3.11354 0)
(0.000203974 -4.16973 0)
(-4.41946e-06 -4.69301 0)
(-0.000128914 -5.04797 0)
(-0.00024723 -5.28543 0)
(-0.000504866 -5.43696 0)
(-0.000611428 -5.52925 0)
(-0.00072487 -5.58291 0)
(-0.000803718 -5.61145 0)
(-0.00085024 -5.62252 0)
(-0.000871205 -5.61938 0)
(-0.000862149 -5.60201 0)
(-0.000836495 -5.56736 0)
(-0.000778852 -5.50854 0)
(-0.000731189 -5.41295 0)
(-0.000639575 -5.2611 0)
(-0.000551677 -5.02689 0)
(-0.00038707 -4.67708 0)
(-0.000413943 -4.16013 0)
(-0.000493475 -3.11067 0)
(0.000430907 -3.11442 0)
(0.000248129 -4.17052 0)
(0.000144994 -4.69358 0)
(-6.09096e-05 -5.04793 0)
(-0.000162225 -5.28549 0)
(-0.000392596 -5.43699 0)
(-0.000522405 -5.52922 0)
(-0.000672181 -5.58286 0)
(-0.000769258 -5.61137 0)
(-0.000826929 -5.62249 0)
(-0.000846819 -5.61939 0)
(-0.000834351 -5.60207 0)
(-0.000796243 -5.56745 0)
(-0.000727322 -5.50865 0)
(-0.000662515 -5.41311 0)
(-0.000588621 -5.26129 0)
(-0.000542554 -5.02707 0)
(-0.000442295 -4.67735 0)
(-0.000522084 -4.16089 0)
(-0.000600579 -3.11131 0)
(0.000206681 -3.1154 0)
(0.00022045 -4.17045 0)
(0.000293492 -4.69343 0)
(0.000144143 -5.04785 0)
(9.15765e-05 -5.28538 0)
(-8.19155e-05 -5.43676 0)
(-0.00030523 -5.52894 0)
(-0.00050275 -5.58264 0)
(-0.000654663 -5.61122 0)
(-0.000753304 -5.62241 0)
(-0.000801248 -5.61943 0)
(-0.000794721 -5.60222 0)
(-0.00074472 -5.56765 0)
(-0.000672979 -5.50886 0)
(-0.000602876 -5.41339 0)
(-0.000507596 -5.26175 0)
(-0.000516687 -5.02758 0)
(-0.00051183 -4.6779 0)
(-0.000596908 -4.16177 0)
(-0.000338811 -3.11256 0)
(1.85452e-05 -3.11546 0)
(0.000271984 -4.17002 0)
(0.000410988 -4.69313 0)
(0.000314158 -5.04729 0)
(0.000279222 -5.28473 0)
(0.00010622 -5.43626 0)
(-0.000171536 -5.52847 0)
(-0.000411479 -5.58224 0)
(-0.000604874 -5.61096 0)
(-0.000748465 -5.62223 0)
(-0.000833386 -5.61935 0)
(-0.000859963 -5.60229 0)
(-0.000842352 -5.56785 0)
(-0.000796419 -5.5091 0)
(-0.000751841 -5.41359 0)
(-0.000721479 -5.26202 0)
(-0.000734907 -5.02808 0)
(-0.000678498 -4.67858 0)
(-0.000469464 -4.1624 0)
(2.68872e-05 -3.11399 0)
(6.71262e-05 -3.11553 0)
(0.000410115 -4.17 0)
(0.000350075 -4.693 0)
(0.00031076 -5.04719 0)
(0.000172226 -5.28423 0)
(2.14825e-05 -5.43565 0)
(-0.000236403 -5.52791 0)
(-0.000476323 -5.58177 0)
(-0.000664052 -5.6106 0)
(-0.00081941 -5.62194 0)
(-0.000930905 -5.61914 0)
(-0.000997019 -5.60218 0)
(-0.00102301 -5.56784 0)
(-0.00103823 -5.50909 0)
(-0.00101998 -5.4135 0)
(-0.00107603 -5.26186 0)
(-0.000977703 -5.02793 0)
(-0.000772374 -4.67858 0)
(-0.000230348 -4.16208 0)
(0.000375173 -3.11414 0)
(0.000234818 -3.11614 0)
(0.000450133 -4.17051 0)
(0.000453137 -4.69292 0)
(0.000348479 -5.04704 0)
(0.000123063 -5.28392 0)
(-8.34696e-05 -5.43514 0)
(-0.000329732 -5.52743 0)
(-0.000547097 -5.58133 0)
(-0.000720054 -5.61026 0)
(-0.000869195 -5.62168 0)
(-0.000976598 -5.61892 0)
(-0.00105086 -5.60202 0)
(-0.00108198 -5.56776 0)
(-0.00108811 -5.50901 0)
(-0.00106363 -5.41337 0)
(-0.00104161 -5.26167 0)
(-0.000894839 -5.02785 0)
(-0.000576012 -4.67882 0)
(-0.000231149 -4.16199 0)
(0.000131984 -3.11383 0)
(0.000232254 -3.11693 0)
(0.00040597 -4.17084 0)
(0.000440874 -4.69315 0)
(0.000356083 -5.04703 0)
(4.88354e-05 -5.2835 0)
(-0.000180141 -5.43465 0)
(-0.000421152 -5.52703 0)
(-0.000599789 -5.58102 0)
(-0.000749133 -5.60999 0)
(-0.000877053 -5.62146 0)
(-0.000980542 -5.61877 0)
(-0.00105536 -5.60196 0)
(-0.00108187 -5.56777 0)
(-0.0010863 -5.50905 0)
(-0.00101751 -5.41345 0)
(-0.000928736 -5.26199 0)
(-0.000746649 -5.02837 0)
(-0.000494265 -4.67941 0)
(-0.000288562 -4.16303 0)
(-0.000371476 -3.11419 0)
(4.22619e-05 -3.11741 0)
(0.000290893 -4.17146 0)
(0.000349496 -4.69334 0)
(0.000402541 -5.04683 0)
(0.000111174 -5.28287 0)
(-0.000111907 -5.43398 0)
(-0.00037152 -5.52661 0)
(-0.000553065 -5.5807 0)
(-0.000717293 -5.6097 0)
(-0.00085536 -5.6212 0)
(-0.000967642 -5.61858 0)
(-0.00106409 -5.60185 0)
(-0.00111042 -5.56775 0)
(-0.00112596 -5.50918 0)
(-0.0010178 -5.41372 0)
(-0.000922392 -5.26236 0)
(-0.000658648 -5.02884 0)
(-0.000527497 -4.6802 0)
(-0.000230855 -4.16367 0)
(-0.000380636 -3.11455 0)
(-0.000130496 -3.11768 0)
(0.000260625 -4.17146 0)
(0.000374796 -4.693 0)
(0.000399848 -5.04621 0)
(0.000180859 -5.28213 0)
(-9.01622e-05 -5.43336 0)
(-0.000346597 -5.52607 0)
(-0.000545203 -5.58026 0)
(-0.000722417 -5.60935 0)
(-0.00086848 -5.62091 0)
(-0.000998083 -5.61834 0)
(-0.00110192 -5.60163 0)
(-0.00116898 -5.5676 0)
(-0.00119182 -5.5092 0)
(-0.0010641 -5.41392 0)
(-0.000942399 -5.26264 0)
(-0.000690488 -5.02918 0)
(-0.000511239 -4.68089 0)
(-0.000326967 -4.16432 0)
(-0.000189552 -3.11484 0)
(0.000218318 -3.11813 0)
(0.000452452 -4.17192 0)
(0.00039313 -4.69333 0)
(0.000234634 -5.04606 0)
(1.80507e-05 -5.28169 0)
(-0.000240927 -5.43286 0)
(-0.000435337 -5.52564 0)
(-0.000602605 -5.57986 0)
(-0.000758713 -5.60897 0)
(-0.000897661 -5.62062 0)
(-0.0010235 -5.61809 0)
(-0.00113336 -5.60138 0)
(-0.00122616 -5.56743 0)
(-0.001244 -5.50917 0)
(-0.00118725 -5.41414 0)
(-0.0010433 -5.26303 0)
(-0.000806612 -5.0294 0)
(-0.000569366 -4.68109 0)
(-0.000317412 -4.16453 0)
(-0.000133095 -3.11502 0)
(0.000412207 -3.11902 0)
(0.0003754 -4.17209 0)
(0.000508601 -4.69342 0)
(0.000451086 -5.04593 0)
(0.000160169 -5.28144 0)
(-0.000124085 -5.43256 0)
(-0.000350793 -5.52526 0)
(-0.000549419 -5.57952 0)
(-0.000717777 -5.60869 0)
(-0.000856662 -5.62037 0)
(-0.000979527 -5.61788 0)
(-0.00108166 -5.60123 0)
(-0.00117132 -5.56731 0)
(-0.00117931 -5.50916 0)
(-0.00117326 -5.41432 0)
(-0.00102198 -5.26321 0)
(-0.000780708 -5.02971 0)
(-0.000504849 -4.68134 0)
(-0.000235688 -4.16463 0)
(-6.30928e-05 -3.11533 0)
(0.000290528 -3.11979 0)
(0.000262251 -4.17209 0)
(0.000412325 -4.69305 0)
(0.00046455 -5.04565 0)
(0.000220295 -5.28129 0)
(-3.83737e-05 -5.4322 0)
(-0.000296877 -5.52486 0)
(-0.000543657 -5.57918 0)
(-0.00073701 -5.60841 0)
(-0.000885482 -5.62016 0)
(-0.00100984 -5.61771 0)
(-0.00110495 -5.60113 0)
(-0.001163 -5.5673 0)
(-0.00116105 -5.50933 0)
(-0.00109174 -5.41479 0)
(-0.000938192 -5.26394 0)
(-0.000651485 -5.03066 0)
(-0.000461132 -4.68247 0)
(-0.000351342 -4.16575 0)
(-0.000174332 -3.11635 0)
(0.000364531 -3.12062 0)
(0.000190052 -4.17236 0)
(0.000442889 -4.69305 0)
(0.000467459 -5.04566 0)
(0.000315626 -5.28115 0)
(7.83905e-05 -5.4318 0)
(-0.000219929 -5.52438 0)
(-0.0005246 -5.57873 0)
(-0.000780879 -5.60801 0)
(-0.000994687 -5.61985 0)
(-0.00117859 -5.61747 0)
(-0.0013235 -5.60091 0)
(-0.00142434 -5.5672 0)
(-0.00148094 -5.50941 0)
(-0.0014522 -5.41515 0)
(-0.00130848 -5.26465 0)
(-0.00107481 -5.03165 0)
(-0.000710355 -4.68361 0)
(-0.000212769 -4.16652 0)
(5.8859e-05 -3.11742 0)
(0.000262381 -3.12074 0)
(0.000226613 -4.17254 0)
(0.00044006 -4.69301 0)
(0.000549876 -5.04536 0)
(0.000506039 -5.28069 0)
(0.000240769 -5.4312 0)
(-8.26821e-05 -5.52373 0)
(-0.000446443 -5.57811 0)
(-0.000779313 -5.60745 0)
(-0.00107592 -5.61932 0)
(-0.00132295 -5.61702 0)
(-0.00153436 -5.60057 0)
(-0.00170346 -5.56693 0)
(-0.0018138 -5.50923 0)
(-0.00186407 -5.41511 0)
(-0.00171294 -5.26481 0)
(-0.00139938 -5.03191 0)
(-0.000769722 -4.68364 0)
(-3.5044e-05 -4.16618 0)
(0.000375372 -3.11709 0)
(0.000220397 -3.1202 0)
(0.000195574 -4.1729 0)
(0.000412243 -4.69294 0)
(0.000562666 -5.04479 0)
(0.000574367 -5.28013 0)
(0.000331593 -5.43055 0)
(-8.67851e-06 -5.52295 0)
(-0.000392477 -5.57732 0)
(-0.000772907 -5.6067 0)
(-0.00111021 -5.61863 0)
(-0.00139477 -5.61645 0)
(-0.0016205 -5.60013 0)
(-0.0017889 -5.5666 0)
(-0.00189647 -5.50903 0)
(-0.00189449 -5.41506 0)
(-0.00169247 -5.26498 0)
(-0.00128545 -5.03247 0)
(-0.000656562 -4.68423 0)
(-0.000166632 -4.16654 0)
(-9.01873e-05 -3.11634 0)
(0.000363597 -3.11994 0)
(0.000198858 -4.17346 0)
(0.000358002 -4.69334 0)
(0.000474227 -5.04487 0)
(0.000489281 -5.2797 0)
(0.000312268 -5.42982 0)
(-3.49389e-05 -5.52209 0)
(-0.000412404 -5.57648 0)
(-0.000806096 -5.60593 0)
(-0.00116456 -5.61794 0)
(-0.00146055 -5.61587 0)
(-0.00169377 -5.59971 0)
(-0.00183787 -5.56637 0)
(-0.001906 -5.50899 0)
(-0.00181756 -5.41526 0)
(-0.00154153 -5.26576 0)
(-0.00111261 -5.03372 0)
(-0.00059313 -4.68543 0)
(-0.000302516 -4.16785 0)
(-0.000618043 -3.11637 0)
(0.000390219 -3.12029 0)
(0.000264344 -4.17429 0)
(0.000407299 -4.69395 0)
(0.000476965 -5.04514 0)
(0.000478309 -5.27951 0)
(0.000299212 -5.42929 0)
(-5.16356e-05 -5.52129 0)
(-0.000447183 -5.57563 0)
(-0.000852642 -5.60515 0)
(-0.00122836 -5.61725 0)
(-0.00155294 -5.61527 0)
(-0.00180721 -5.59927 0)
(-0.00195847 -5.56612 0)
(-0.00202825 -5.50894 0)
(-0.00192502 -5.41542 0)
(-0.00166256 -5.2664 0)
(-0.00119635 -5.03479 0)
(-0.000757913 -4.68656 0)
(-0.000269536 -4.16886 0)
(-0.000564017 -3.11677 0)
(0.000190759 -3.1207 0)
(0.000318192 -4.17471 0)
(0.000626495 -4.69457 0)
(0.000661096 -5.04546 0)
(0.000624946 -5.27923 0)
(0.000363903 -5.42866 0)
(-1.9546e-05 -5.52053 0)
(-0.000443353 -5.57481 0)
(-0.000870072 -5.60438 0)
(-0.00126363 -5.61658 0)
(-0.00160231 -5.61471 0)
(-0.00187323 -5.59882 0)
(-0.00204334 -5.56588 0)
(-0.0021019 -5.509 0)
(-0.00201491 -5.41575 0)
(-0.00178324 -5.26693 0)
(-0.00133181 -5.03547 0)
(-0.000923564 -4.68731 0)
(-0.000385267 -4.1693 0)
(-0.000337254 -3.11709 0)
(2.81024e-05 -3.12123 0)
(0.000338828 -4.17514 0)
(0.000731901 -4.69529 0)
(0.000807801 -5.04577 0)
(0.000779673 -5.27908 0)
(0.000477687 -5.42816 0)
(9.02155e-05 -5.51974 0)
(-0.000355202 -5.57393 0)
(-0.000810288 -5.60356 0)
(-0.00122739 -5.61584 0)
(-0.0016022 -5.6141 0)
(-0.00189612 -5.59838 0)
(-0.0021034 -5.56565 0)
(-0.00217285 -5.50904 0)
(-0.00208151 -5.41617 0)
(-0.00181555 -5.26773 0)
(-0.00139264 -5.0366 0)
(-0.000946815 -4.6886 0)
(-0.000536607 -4.17037 0)
(-0.00038213 -3.11779 0)
(-3.17858e-05 -3.1219 0)
(0.000204273 -4.17568 0)
(0.000851911 -4.696 0)
(0.00114898 -5.04607 0)
(0.0010866 -5.27877 0)
(0.000766001 -5.42738 0)
(0.000313009 -5.51879 0)
(-0.000187126 -5.573 0)
(-0.000688816 -5.60265 0)
(-0.00115981 -5.61502 0)
(-0.00158871 -5.6134 0)
(-0.00194684 -5.59784 0)
(-0.0022232 -5.56536 0)
(-0.00237211 -5.50905 0)
(-0.00236369 -5.41664 0)
(-0.00213047 -5.26869 0)
(-0.00170746 -5.03775 0)
(-0.00112985 -4.68976 0)
(-0.000482277 -4.1716 0)
(-0.000333984 -3.11906 0)
(6.98392e-05 -3.12227 0)
(0.000343922 -4.17622 0)
(0.00100234 -4.69656 0)
(0.00151625 -5.04624 0)
(0.00144135 -5.27824 0)
(0.0010931 -5.42648 0)
(0.000566214 -5.51772 0)
(-1.53371e-05 -5.57186 0)
(-0.000586831 -5.60156 0)
(-0.00113575 -5.614 0)
(-0.0016339 -5.6125 0)
(-0.00206758 -5.59708 0)
(-0.00241414 -5.56484 0)
(-0.00264215 -5.50886 0)
(-0.00269714 -5.41689 0)
(-0.00252067 -5.2695 0)
(-0.00203786 -5.03903 0)
(-0.00135454 -4.691 0)
(-0.00044641 -4.17246 0)
(-0.000108015 -3.11981 0)
(0.000319774 -3.12239 0)
(0.000513323 -4.17717 0)
(0.00112156 -4.69696 0)
(0.00166353 -5.04627 0)
(0.0016755 -5.2779 0)
(0.00134999 -5.42562 0)
(0.000810919 -5.51656 0)
(0.000158024 -5.57058 0)
(-0.000506118 -5.60029 0)
(-0.00114332 -5.61278 0)
(-0.00172596 -5.61141 0)
(-0.00225351 -5.59614 0)
(-0.0026956 -5.56412 0)
(-0.00299434 -5.50845 0)
(-0.00311552 -5.41691 0)
(-0.00293016 -5.26999 0)
(-0.00242034 -5.03997 0)
(-0.00156659 -4.69237 0)
(-0.000506395 -4.17365 0)
(-0.000114669 -3.11993 0)
(0.00070564 -3.12289 0)
(0.000641759 -4.17859 0)
(0.00123504 -4.69804 0)
(0.00168907 -5.04674 0)
(0.00178952 -5.27764 0)
(0.0015094 -5.42474 0)
(0.000981408 -5.51533 0)
(0.00030838 -5.56918 0)
(-0.000419184 -5.59885 0)
(-0.00112269 -5.61144 0)
(-0.0017876 -5.61016 0)
(-0.00239767 -5.59505 0)
(-0.00291261 -5.5632 0)
(-0.00328384 -5.50785 0)
(-0.0034418 -5.41682 0)
(-0.00322848 -5.2705 0)
(-0.00270071 -5.04102 0)
(-0.00173313 -4.69356 0)
(-0.000656781 -4.17507 0)
(-0.000361149 -3.11979 0)
(0.00078457 -3.1237 0)
(0.000720439 -4.18035 0)
(0.00150465 -4.69946 0)
(0.00198712 -5.04739 0)
(0.00210536 -5.27749 0)
(0.00179975 -5.42396 0)
(0.00122459 -5.51409 0)
(0.000512741 -5.56773 0)
(-0.00026645 -5.59732 0)
(-0.00103105 -5.60997 0)
(-0.00175468 -5.6088 0)
(-0.00242038 -5.59384 0)
(-0.00297147 -5.56223 0)
(-0.00336166 -5.50732 0)
(-0.00351338 -5.4168 0)
(-0.00328665 -5.27109 0)
(-0.00271249 -5.04221 0)
(-0.00180005 -4.69526 0)
(-0.000884149 -4.17722 0)
(-0.000679821 -3.12006 0)
(0.000637238 -3.12447 0)
(0.000835065 -4.18199 0)
(0.00177674 -4.70099 0)
(0.00229735 -5.04811 0)
(0.00248078 -5.27734 0)
(0.00215254 -5.42314 0)
(0.00153468 -5.51277 0)
(0.000776725 -5.56616 0)
(-6.20463e-05 -5.59571 0)
(-0.000890951 -5.6084 0)
(-0.0016806 -5.60733 0)
(-0.0023939 -5.59253 0)
(-0.00298898 -5.56117 0)
(-0.00341234 -5.50671 0)
(-0.00359604 -5.41679 0)
(-0.003401 -5.27175 0)
(-0.00284629 -5.04369 0)
(-0.00201688 -4.69749 0)
(-0.000986043 -4.17977 0)
(-0.000740212 -3.12073 0)
(0.00057912 -3.12493 0)
(0.000823535 -4.18357 0)
(0.00202331 -4.7025 0)
(0.00268611 -5.04857 0)
(0.00289765 -5.27684 0)
(0.0025626 -5.42208 0)
(0.00189696 -5.51125 0)
(0.00106265 -5.56443 0)
(0.000141038 -5.59392 0)
(-0.000768154 -5.60666 0)
(-0.00163322 -5.60576 0)
(-0.00240926 -5.5912 0)
(-0.00306319 -5.56015 0)
(-0.00353505 -5.5061 0)
(-0.00376548 -5.41679 0)
(-0.00362239 -5.27259 0)
(-0.00308071 -5.04553 0)
(-0.00227339 -4.70005 0)
(-0.00110061 -4.18226 0)
(-0.000552012 -3.12227 0)
(0.000539812 -3.12538 0)
(0.000959158 -4.18519 0)
(0.00221011 -4.70381 0)
(0.00300616 -5.04916 0)
(0.00318349 -5.27639 0)
(0.00282699 -5.42079 0)
(0.00212299 -5.50952 0)
(0.00120495 -5.56251 0)
(0.000225569 -5.59197 0)
(-0.000764984 -5.6048 0)
(-0.00171665 -5.60405 0)
(-0.00256761 -5.58968 0)
(-0.00329271 -5.55895 0)
(-0.00385211 -5.50537 0)
(-0.00413729 -5.41679 0)
(-0.00408081 -5.27347 0)
(-0.00356035 -5.04735 0)
(-0.00257807 -4.70257 0)
(-0.00114345 -4.18477 0)
(-0.000247494 -3.12411 0)
(0.000807629 -3.12732 0)
(0.00147289 -4.18818 0)
(0.00245789 -4.70617 0)
(0.00316608 -5.05059 0)
(0.00328383 -5.27659 0)
(0.00294045 -5.41986 0)
(0.00222144 -5.50801 0)
(0.00127757 -5.56066 0)
(0.000256577 -5.58997 0)
(-0.000801997 -5.60281 0)
(-0.00183121 -5.60215 0)
(-0.00278431 -5.58797 0)
(-0.00361365 -5.55753 0)
(-0.00427435 -5.50428 0)
(-0.00465508 -5.41622 0)
(-0.00467715 -5.27383 0)
(-0.00411163 -5.04866 0)
(-0.00289346 -4.70462 0)
(-0.00119613 -4.18672 0)
(2.6511e-05 -3.12524 0)
(0.000701726 -3.12964 0)
(0.00149087 -4.1912 0)
(0.00295232 -4.70871 0)
(0.00374995 -5.05222 0)
(0.00390094 -5.27686 0)
(0.00350276 -5.41896 0)
(0.00268461 -5.50644 0)
(0.00164549 -5.55867 0)
(0.00051004 -5.58779 0)
(-0.000653666 -5.60061 0)
(-0.00179527 -5.60004 0)
(-0.00285543 -5.58605 0)
(-0.00378798 -5.55588 0)
(-0.00450976 -5.50306 0)
(-0.00495298 -5.4157 0)
(-0.00498133 -5.27421 0)
(-0.00435255 -5.05012 0)
(-0.00308301 -4.70693 0)
(-0.00147845 -4.18917 0)
(-0.000270549 -3.12614 0)
(0.0003116 -3.131 0)
(0.00139045 -4.19295 0)
(0.00323028 -4.71038 0)
(0.00435551 -5.05282 0)
(0.00465142 -5.27634 0)
(0.00421924 -5.41753 0)
(0.00330832 -5.50434 0)
(0.00213987 -5.55626 0)
(0.000866772 -5.58528 0)
(-0.000438045 -5.59813 0)
(-0.00170551 -5.59766 0)
(-0.00288108 -5.58393 0)
(-0.00390647 -5.55418 0)
(-0.00469054 -5.50187 0)
(-0.00517279 -5.41524 0)
(-0.00519087 -5.27483 0)
(-0.00454478 -5.05213 0)
(-0.00331744 -4.71009 0)
(-0.00170042 -4.19269 0)
(-0.000756164 -3.12781 0)
(0.000561567 -3.13184 0)
(0.00165323 -4.19565 0)
(0.00338257 -4.71243 0)
(0.00463888 -5.05368 0)
(0.00500477 -5.27581 0)
(0.00460999 -5.41592 0)
(0.00368452 -5.50207 0)
(0.00245861 -5.55359 0)
(0.00109453 -5.58248 0)
(-0.000316046 -5.59534 0)
(-0.00170282 -5.595 0)
(-0.00299379 -5.58154 0)
(-0.00412172 -5.55222 0)
(-0.00499928 -5.50054 0)
(-0.00555024 -5.41476 0)
(-0.0055506 -5.27543 0)
(-0.0048857 -5.05408 0)
(-0.00362241 -4.713 0)
(-0.00181283 -4.19584 0)
(-0.000798166 -3.12992 0)
(0.00102823 -3.13353 0)
(0.00193704 -4.19956 0)
(0.00361999 -4.7156 0)
(0.00478004 -5.05528 0)
(0.00521632 -5.27568 0)
(0.00484925 -5.41453 0)
(0.0039448 -5.49989 0)
(0.00269849 -5.55096 0)
(0.00126523 -5.57961 0)
(-0.000228531 -5.59242 0)
(-0.00171147 -5.59219 0)
(-0.00310577 -5.57898 0)
(-0.00432425 -5.5501 0)
(-0.0052909 -5.49908 0)
(-0.00589314 -5.41413 0)
(-0.00589034 -5.27587 0)
(-0.00522092 -5.056 0)
(-0.00384968 -4.71602 0)
(-0.00197169 -4.19907 0)
(-0.000831672 -3.13214 0)
(0.0010869 -3.13615 0)
(0.0020822 -4.20349 0)
(0.00395996 -4.71896 0)
(0.00513685 -5.05712 0)
(0.00557099 -5.27587 0)
(0.00521905 -5.41331 0)
(0.00428404 -5.49769 0)
(0.00298151 -5.54822 0)
(0.00147941 -5.57661 0)
(-0.0001152 -5.58936 0)
(-0.00170356 -5.58924 0)
(-0.00320685 -5.57629 0)
(-0.00452884 -5.54781 0)
(-0.00558018 -5.49749 0)
(-0.00621277 -5.41352 0)
(-0.00626531 -5.27663 0)
(-0.00560236 -5.05834 0)
(-0.00412229 -4.71943 0)
(-0.00213413 -4.20298 0)
(-0.000947014 -3.13496 0)
(0.00095226 -3.13931 0)
(0.00233932 -4.20757 0)
(0.00436016 -4.72257 0)
(0.00561193 -5.05918 0)
(0.00604888 -5.27605 0)
(0.00567779 -5.4121 0)
(0.00469782 -5.49552 0)
(0.00332432 -5.54539 0)
(0.00172219 -5.57344 0)
(7.06676e-06 -5.58608 0)
(-0.0017082 -5.58603 0)
(-0.00333701 -5.57336 0)
(-0.00479166 -5.54535 0)
(-0.00594704 -5.49577 0)
(-0.00664932 -5.4129 0)
(-0.00672946 -5.27741 0)
(-0.00606031 -5.06064 0)
(-0.00445015 -4.72321 0)
(-0.00233027 -4.20735 0)
(-0.000916046 -3.13799 0)
(0.000811085 -3.14237 0)
(0.00244963 -4.21157 0)
(0.00474345 -4.72603 0)
(0.00623509 -5.06106 0)
(0.00673361 -5.27625 0)
(0.00632467 -5.41082 0)
(0.00528567 -5.49311 0)
(0.00380288 -5.54225 0)
(0.00205668 -5.5699 0)
(0.00019521 -5.58243 0)
(-0.00168149 -5.58247 0)
(-0.00346203 -5.57004 0)
(-0.00505307 -5.54251 0)
(-0.00633517 -5.4937 0)
(-0.00715179 -5.41188 0)
(-0.00726854 -5.27782 0)
(-0.00658629 -5.06271 0)
(-0.0047912 -4.72671 0)
(-0.00242596 -4.21151 0)
(-0.000859154 -3.14023 0)
(0.000777288 -3.14479 0)
(0.00257927 -4.21534 0)
(0.00502793 -4.729 0)
(0.00680444 -5.06259 0)
(0.00739471 -5.27614 0)
(0.00700666 -5.40917 0)
(0.00589997 -5.49031 0)
(0.00430961 -5.53877 0)
(0.00243147 -5.56604 0)
(0.000427683 -5.57841 0)
(-0.00157856 -5.57855 0)
(-0.0034958 -5.56642 0)
(-0.00520902 -5.53933 0)
(-0.00659348 -5.4912 0)
(-0.00748942 -5.41049 0)
(-0.00766052 -5.278 0)
(-0.00691199 -5.06461 0)
(-0.00501965 -4.72991 0)
(-0.00257049 -4.21539 0)
(-0.000992188 -3.14192 0)
(0.00126755 -3.14736 0)
(0.00297067 -4.22018 0)
(0.00522652 -4.7327 0)
(0.00700353 -5.06452 0)
(0.00769866 -5.2762 0)
(0.00740892 -5.40759 0)
(0.00630756 -5.48752 0)
(0.00467555 -5.53516 0)
(0.00272491 -5.56199 0)
(0.000632863 -5.57421 0)
(-0.0014663 -5.57446 0)
(-0.00345977 -5.56268 0)
(-0.00523135 -5.53618 0)
(-0.00665103 -5.48891 0)
(-0.00751733 -5.40942 0)
(-0.00767311 -5.27864 0)
(-0.00688849 -5.06712 0)
(-0.00517262 -4.73411 0)
(-0.00300733 -4.22076 0)
(-0.00149323 -3.14484 0)
(0.00162818 -3.15084 0)
(0.00310222 -4.2255 0)
(0.00556842 -4.7369 0)
(0.00734218 -5.06695 0)
(0.00806841 -5.27659 0)
(0.00779855 -5.40615 0)
(0.00666738 -5.4847 0)
(0.00497127 -5.53146 0)
(0.00294486 -5.55784 0)
(0.000764009 -5.56993 0)
(-0.00143623 -5.57028 0)
(-0.00352838 -5.55885 0)
(-0.0053832 -5.53301 0)
(-0.00687471 -5.48672 0)
(-0.00777958 -5.40861 0)
(-0.00797478 -5.27971 0)
(-0.00724149 -5.07029 0)
(-0.00563865 -4.73922 0)
(-0.00319757 -4.22683 0)
(-0.0015838 -3.14952 0)
(0.00158935 -3.15502 0)
(0.00333163 -4.23095 0)
(0.0059044 -4.74146 0)
(0.00771045 -5.06973 0)
(0.00846733 -5.27721 0)
(0.00817105 -5.40477 0)
(0.00699614 -5.48186 0)
(0.00522808 -5.52767 0)
(0.00311597 -5.55354 0)
(0.000832689 -5.56545 0)
(-0.00148602 -5.56587 0)
(-0.00371087 -5.55475 0)
(-0.00571162 -5.52956 0)
(-0.00734432 -5.48426 0)
(-0.00839774 -5.40752 0)
(-0.00870353 -5.28038 0)
(-0.00800614 -5.07298 0)
(-0.00618586 -4.74376 0)
(-0.00322683 -4.23183 0)
(-0.00103161 -3.15418 0)
(0.00145817 -3.15961 0)
(0.00343774 -4.23669 0)
(0.00632937 -4.74641 0)
(0.00827143 -5.07277 0)
(0.00903215 -5.27795 0)
(0.00868831 -5.40336 0)
(0.00743135 -5.47888 0)
(0.00556928 -5.52372 0)
(0.00335009 -5.54905 0)
(0.000950329 -5.56071 0)
(-0.00149518 -5.56115 0)
(-0.00386657 -5.55031 0)
(-0.00602799 -5.52567 0)
(-0.00780114 -5.4813 0)
(-0.0089981 -5.40598 0)
(-0.009381 -5.28061 0)
(-0.00862111 -5.0752 0)
(-0.00651069 -4.7478 0)
(-0.00336397 -4.23651 0)
(-0.000812851 -3.15804 0)
(0.00121938 -3.16363 0)
(0.00345875 -4.24203 0)
(0.00671754 -4.7511 0)
(0.00891568 -5.07558 0)
(0.00974564 -5.27835 0)
(0.00932214 -5.40159 0)
(0.00797388 -5.47559 0)
(0.00599965 -5.51946 0)
(0.00366941 -5.54422 0)
(0.00115191 -5.55564 0)
(-0.00142088 -5.55611 0)
(-0.00391608 -5.54555 0)
(-0.00620575 -5.52148 0)
(-0.00809272 -5.47808 0)
(-0.00938481 -5.40422 0)
(-0.00976977 -5.28074 0)
(-0.00893655 -5.07759 0)
(-0.00668367 -4.75239 0)
(-0.00364665 -4.2422 0)
(-0.0012445 -3.16142 0)
(0.00130101 -3.16726 0)
(0.00365731 -4.24774 0)
(0.00694227 -4.75596 0)
(0.00930226 -5.07825 0)
(0.0102766 -5.27858 0)
(0.00985932 -5.39961 0)
(0.00846751 -5.47201 0)
(0.00641313 -5.51492 0)
(0.0039807 -5.53914 0)
(0.00135067 -5.55033 0)
(-0.00133496 -5.55082 0)
(-0.00393965 -5.54057 0)
(-0.00631689 -5.51713 0)
(-0.00828549 -5.47476 0)
(-0.00960668 -5.40247 0)
(-0.00999321 -5.28107 0)
(-0.0091414 -5.08044 0)
(-0.00694056 -4.75756 0)
(-0.00395689 -4.24876 0)
(-0.00178226 -3.16544 0)
(0.00160474 -3.17135 0)
(0.0039707 -4.25443 0)
(0.007277 -4.76142 0)
(0.00962072 -5.08129 0)
(0.010616 -5.27895 0)
(0.0102342 -5.3977 0)
(0.00881904 -5.46844 0)
(0.0067199 -5.5103 0)
(0.00421445 -5.53394 0)
(0.0014969 -5.54488 0)
(-0.00128253 -5.5454 0)
(-0.00398403 -5.53546 0)
(-0.00644426 -5.51267 0)
(-0.00849113 -5.47142 0)
(-0.00984777 -5.40071 0)
(-0.0102691 -5.2815 0)
(-0.0094027 -5.08342 0)
(-0.00725056 -4.76292 0)
(-0.00411249 -4.25535 0)
(-0.00184271 -3.17031 0)
(0.00182754 -3.17657 0)
(0.00439683 -4.26178 0)
(0.00771053 -4.7676 0)
(0.00995394 -5.08499 0)
(0.0108807 -5.27982 0)
(0.0104979 -5.39612 0)
(0.0090802 -5.46504 0)
(0.00696607 -5.50573 0)
(0.00441043 -5.52872 0)
(0.00162614 -5.53937 0)
(-0.00123187 -5.53989 0)
(-0.00401496 -5.53026 0)
(-0.00655688 -5.50816 0)
(-0.00866132 -5.46804 0)
(-0.0100732 -5.39905 0)
(-0.0105296 -5.28214 0)
(-0.00967641 -5.08671 0)
(-0.00752085 -4.76868 0)
(-0.00431923 -4.26227 0)
(-0.00172677 -3.17597 0)
(0.0016375 -3.18208 0)
(0.00440667 -4.26883 0)
(0.00808651 -4.77367 0)
(0.0105046 -5.08861 0)
(0.0114371 -5.28055 0)
(0.0110253 -5.39442 0)
(0.00954372 -5.46153 0)
(0.00734162 -5.50102 0)
(0.00468275 -5.52331 0)
(0.00177843 -5.53363 0)
(-0.0012073 -5.53415 0)
(-0.00411601 -5.52483 0)
(-0.00677984 -5.50343 0)
(-0.0090017 -5.46449 0)
(-0.01052 -5.39731 0)
(-0.0110305 -5.28281 0)
(-0.0101993 -5.09015 0)
(-0.00792038 -4.77464 0)
(-0.0044399 -4.26935 0)
(-0.00160256 -3.18217 0)
(0.0012936 -3.18685 0)
(0.00442688 -4.27526 0)
(0.00831349 -4.779 0)
(0.0109774 -5.09149 0)
(0.011996 -5.28066 0)
(0.0115796 -5.39216 0)
(0.0100343 -5.45753 0)
(0.00773003 -5.49587 0)
(0.00494185 -5.51747 0)
(0.00189019 -5.52747 0)
(-0.00124712 -5.52799 0)
(-0.00431439 -5.51899 0)
(-0.00713562 -5.49827 0)
(-0.00950539 -5.46051 0)
(-0.011144 -5.39511 0)
(-0.0116993 -5.283 0)
(-0.0108248 -5.09311 0)
(-0.00827851 -4.77998 0)
(-0.00446516 -4.27575 0)
(-0.00137642 -3.1876 0)
(0.00151103 -3.1922 0)
(0.00482809 -4.28276 0)
(0.00861263 -4.785 0)
(0.0112412 -5.09476 0)
(0.0122315 -5.28093 0)
(0.0117926 -5.38994 0)
(0.0102486 -5.45348 0)
(0.00791968 -5.49059 0)
(0.00507411 -5.51144 0)
(0.00194051 -5.52108 0)
(-0.00129707 -5.52155 0)
(-0.00447047 -5.51284 0)
(-0.00740108 -5.49279 0)
(-0.00985776 -5.45617 0)
(-0.011547 -5.39253 0)
(-0.0121183 -5.28289 0)
(-0.011169 -5.09593 0)
(-0.00848428 -4.78539 0)
(-0.0046893 -4.2825 0)
(-0.00161299 -3.19239 0)
(0.00193606 -3.19901 0)
(0.00517847 -4.29143 0)
(0.00899741 -4.79211 0)
(0.0115613 -5.09895 0)
(0.0124775 -5.28196 0)
(0.012004 -5.38825 0)
(0.010448 -5.44975 0)
(0.00811208 -5.48547 0)
(0.0052393 -5.50546 0)
(0.00205762 -5.51466 0)
(-0.00123974 -5.51507 0)
(-0.00447514 -5.50665 0)
(-0.00745817 -5.4873 0)
(-0.00995067 -5.4519 0)
(-0.0116762 -5.39015 0)
(-0.0122652 -5.28305 0)
(-0.0113112 -5.09915 0)
(-0.00869402 -4.79154 0)
(-0.0049578 -4.29034 0)
(-0.00213447 -3.19766 0)
(0.00184486 -3.20579 0)
(0.00517908 -4.29939 0)
(0.00937985 -4.79879 0)
(0.0121621 -5.10277 0)
(0.013118 -5.28263 0)
(0.0126018 -5.38635 0)
(0.0109464 -5.44589 0)
(0.00851369 -5.48021 0)
(0.00554504 -5.49934 0)
(0.00226674 -5.50811 0)
(-0.00112506 -5.50848 0)
(-0.00443748 -5.5004 0)
(-0.00747054 -5.48184 0)
(-0.00999147 -5.44778 0)
(-0.011732 -5.38801 0)
(-0.0123174 -5.28363 0)
(-0.0114016 -5.10306 0)
(-0.0089319 -4.79854 0)
(-0.00522149 -4.29895 0)
(-0.00235121 -3.20428 0)
(0.00170947 -3.21168 0)
(0.00527786 -4.30676 0)
(0.00965122 -4.80479 0)
(0.0126664 -5.1059 0)
(0.0137166 -5.28266 0)
(0.0131416 -5.3839 0)
(0.0114004 -5.44157 0)
(0.00886043 -5.47458 0)
(0.0057747 -5.4929 0)
(0.00237904 -5.50128 0)
(-0.00112663 -5.50165 0)
(-0.00454911 -5.49396 0)
(-0.00768635 -5.47622 0)
(-0.0103073 -5.44353 0)
(-0.0121443 -5.38581 0)
(-0.0128168 -5.2842 0)
(-0.0119751 -5.10702 0)
(-0.00941765 -4.8056 0)
(-0.0052713 -4.30736 0)
(-0.00206334 -3.21152 0)
(0.00217871 -3.21813 0)
(0.00569527 -4.31559 0)
(0.00986651 -4.81175 0)
(0.0128347 -5.10959 0)
(0.0139281 -5.28302 0)
(0.0133384 -5.38153 0)
(0.0115779 -5.43719 0)
(0.00898615 -5.46883 0)
(0.00583196 -5.48628 0)
(0.00234713 -5.49423 0)
(-0.0012648 -5.49457 0)
(-0.00480624 -5.48723 0)
(-0.00807487 -5.47028 0)
(-0.0108433 -5.4389 0)
(-0.0128 -5.38316 0)
(-0.0135711 -5.28432 0)
(-0.0126882 -5.11051 0)
(-0.00983288 -4.8121 0)
(-0.00527772 -4.31514 0)
(-0.00166791 -3.21833 0)
(0.00243422 -3.22554 0)
(0.00580902 -4.32507 0)
(0.0102093 -4.81939 0)
(0.0131843 -5.11375 0)
(0.0142635 -5.28364 0)
(0.0136693 -5.37928 0)
(0.011832 -5.43285 0)
(0.00915593 -5.46302 0)
(0.00591601 -5.47954 0)
(0.00233147 -5.48701 0)
(-0.00138582 -5.48726 0)
(-0.00504548 -5.48024 0)
(-0.00844056 -5.46404 0)
(-0.0113259 -5.43397 0)
(-0.0133833 -5.38027 0)
(-0.0142044 -5.28429 0)
(-0.0132609 -5.11389 0)
(-0.0102024 -4.81882 0)
(-0.00554954 -4.32356 0)
(-0.00182578 -3.22469 0)
(0.00228427 -3.23322 0)
(0.0059113 -4.33411 0)
(0.0106186 -4.82679 0)
(0.013714 -5.11778 0)
(0.0147497 -5.284 0)
(0.0141033 -5.37682 0)
(0.0121701 -5.42834 0)
(0.00938912 -5.45705 0)
(0.00604663 -5.47262 0)
(0.00235724 -5.47961 0)
(-0.00146683 -5.47979 0)
(-0.00522914 -5.4731 0)
(-0.00872501 -5.4577 0)
(-0.0117021 -5.42899 0)
(-0.0138345 -5.37741 0)
(-0.0146725 -5.28443 0)
(-0.0137151 -5.11777 0)
(-0.0105721 -4.82625 0)
(-0.00584333 -4.33297 0)
(-0.0022878 -3.23144 0)
(0.00242011 -3.24106 0)
(0.00619281 -4.34384 0)
(0.0110116 -4.83475 0)
(0.0141852 -5.12218 0)
(0.0152342 -5.28455 0)
(0.0145306 -5.37428 0)
(0.012508 -5.42365 0)
(0.00961899 -5.45088 0)
(0.00616441 -5.4655 0)
(0.00236462 -5.472 0)
(-0.0015709 -5.47211 0)
(-0.00544622 -5.46578 0)
(-0.00904305 -5.45119 0)
(-0.0120953 -5.4239 0)
(-0.0142597 -5.3745 0)
(-0.0150955 -5.2847 0)
(-0.0140816 -5.12203 0)
(-0.0109098 -4.8343 0)
(-0.00609202 -4.34309 0)
(-0.00263476 -3.23885 0)
(0.00247324 -3.24839 0)
(0.00615928 -4.35359 0)
(0.0113858 -4.84274 0)
(0.0147759 -5.12645 0)
(0.0159286 -5.28485 0)
(0.0151666 -5.37146 0)
(0.0130264 -5.41861 0)
(0.00997752 -5.44435 0)