/*--------------------------------*- C++ -*----------------------------------*\
  =========                 |
  \\      /  F ield         | OpenFOAM: The Open Source CFD Toolbox
   \\    /   O peration     | Website:  https://openfoam.org
    \\  /    A nd           | Version:  6
     \\/     M anipulation  |
\*---------------------------------------------------------------------------*/
FoamFile
{
    version     2.0;
    format      ascii;
    class       volScalarField;
    location    "19";
    object      epsilon;
}
// * * * * * * * * * * * * * * * * * * * * * * * * * * * * * * * * * * * * * //

dimensions      [0 2 -3 0 0 0 0];

internalField   nonuniform List<scalar> 
10000
(
259.392
351.029
219.617
135.75
87.0829
60.5384
46.055
38.1055
33.9569
32.2506
32.4371
34.5397
39.1061
47.4841
62.2903
89.0004
136.596
217.886
347.191
261.328
258.836
350.67
219.499
134.759
86.0984
60.1942
45.9574
38.0446
33.9108
32.2015
32.3202
34.3691
38.8305
47.3233
62.0014
88.661
136.293
217.49
346.09
259.862
258.496
350.322
218.76
136.576
87.1435
60.7564
45.8033
37.8593
33.7777
32.1919
32.3941
34.468
38.8742
47.1896
61.2167
87.5847
135.982
216.91
347.415
260.647
260.319
351.239
220.576
136.726
88.031
60.8321
46.0034
38.042
33.8828
32.1742
32.3774
34.4617
38.9262
47.0278
61.8037
88.6634
135.633
215.308
347.338
261.097
261.474
351.89
220.123
135.245
87.8874
60.7501
45.6566
37.8466
33.8202
32.0506
32.3295
34.4178
38.773
47.2523
62.1558
88.5917
134.029
217.33
346.822
261.038
259.771
350.321
218.246
136.871
87.8267
60.6072
45.6642
37.9433
33.8194
32.0643
32.3049
34.4063
38.9206
47.1531
61.5545
87.7515
135.42
218.721
347.944
260.859
260.689
351.472
219.837
137.07
87.6734
60.0581
45.5751
37.9054
33.7208
32.1009
32.2185
34.2586
38.6969
46.8461
61.8089
87.8495
136.051
218.107
346.386
260.408
259.355
352.337
221.345
136.96
87.4403
60.486
45.6799
37.8844
33.7522
32.1133
32.2889
34.3648
38.8438
46.9848
61.3885
87.5574
134.435
216.316
347.223
260.19
260.17
352.161
221.246
136.861
86.4739
59.9581
45.8676
37.7767
33.7437
32.1068
32.2742
34.3483
38.7031
47.2651
62.0472
87.9529
134.792
216.392
346.389
259.215
259.601
351.61
221.065
136.771
87.7068
60.6528
45.9364
37.9625
33.8358
32.0998
32.1805
34.3278
38.8935
47.256
61.9073
86.7949
135.332
216.128
346.826
258.781
258.773
350.028
220.909
136.48
86.8645
60.1232
45.7389
37.7969
33.8152
32.1015
32.2359
34.2885
38.8187
47.1548
61.8712
87.5989
134.346
216.588
346.745
258.494
259.909
351.524
220.767
135.323
88.0206
60.8695
46.0668
37.9595
33.8177
32.0832
32.1905
34.1279
38.7145
46.9909
61.7458
88.311
135.992
217.74
346.645
258.54
258.718
350.993
220.843
137.262
88.2643
60.8803
46.0755
37.7805
33.7077
32.0679
32.2085
34.194
38.4543
46.488
60.9181
87.1094
135.479
217.4
346.33
258.227
259.303
349.697
220.532
137.204
88.2073
60.7696
46.0641
37.9476
33.8247
32.0265
32.1287
34.1127
38.4634
46.5571
61.0221
87.2187
134.242
215.669
345.751
259.364
259.127
351.391
220.217
137.279
88.2649
60.2834
45.7717
38.0475
33.9507
32.1219
32.2073
34.1992
38.432
46.5278
60.9094
87.228
134.447
217.16
344.336
259.401
258.978
351.241
218.312
137.014
88.2712
61.1755
46.2868
38.2604
33.9782
32.0886
32.125
34.2089
38.498
46.6916
61.0771
87.6072
134.464
216.106
345.695
259.087
258.56
351.323
219.144
137.046
88.1994
61.0853
45.9669
38.228
33.9814
32.1392
32.2108
34.2262
38.6427
46.4138
61.7183
88.553
134.994
218.685
346.55
260.154
259.802
351.504
219.534
136.856
88.0347
60.8924
46.1711
38.2267
33.879
32.1635
32.1887
34.1014
38.6279
46.8454
61.3268
88.5828
135.603
218.698
345.366
260.032
260.841
351.739
220.961
136.556
87.8369
61.0258
46.3948
38.1441
33.9469
32.1448
32.2539
34.2879
38.9912
47.3833
62.2362
88.0131
136.984
218.891
346.523
259.611
261.422
351.482
220.679
134.729
86.6024
60.3038
46.3222
38.3334
34.0926
32.2436
32.307
34.393
38.9834
47.3448
62.269
89.0461
136.897
218.727
345.515
260.31
259.812
349.669
220.345
135.038
87.1299
60.5993
46.3481
38.3408
34.1031
32.1896
32.3296
34.4326
38.9402
47.2527
62.0955
88.8195
136.616
218.425
346.826
260.052
260.516
350.339
220.241
135.348
87.7069
60.8088
46.1134
38.2831
34.1057
32.302
32.413
34.4022
38.699
46.8017
61.2988
87.5492
134.91
216.768
345.37
260.75
259.487
350.659
219.952
136.303
87.0693
61.3682
46.366
38.1301
33.9908
32.2737
32.4055
34.3976
38.7587
46.9057
61.492
87.8941
135.66
218.426
346.376
259.958
260.354
349.298
219.485
134.928
88.3464
61.5401
46.61
38.3385
34.1327
32.2399
32.399
34.2836
38.7161
46.8081
61.2902
87.5024
134.814
218.158
347.591
261.113
259.334
350.133
219.073
136.586
88.2465
61.4017
46.3865
38.4932
34.2213
32.3671
32.4172
34.3472
38.8095
46.8338
61.3337
87.5384
134.795
216.661
347.679
260.869
260.371
350.33
216.685
135.102
87.2191
60.9052
46.6273
38.5092
34.2165
32.3647
32.3569
34.4311
38.7146
46.9656
61.5344
87.8344
135.168
217.818
347.8
261.333
261.18
350.559
218.849
136.802
88.4886
61.5555
46.6753
38.3702
34.1835
32.3651
32.4447
34.4746
38.9539
47.2847
62.0745
88.6477
136.149
216.336
347.846
261.731
261
349.629
220.305
136.594
88.3728
61.4321
46.6104
38.4704
34.0839
32.2617
32.4055
34.4272
38.9183
47.2042
61.9582
88.4566
136.013
217.989
347.957
262.442
261.074
350.872
220.053
135.642
88.0322
61.2168
46.4165
38.2887
34.1007
32.2839
32.2974
34.36
38.6648
47.0519
61.7165
88.0986
135.451
216.141
347.505
261.395
261.51
350.674
219.717
134.727
87.8184
61.0209
46.1628
38.3586
34.0006
32.2646
32.3041
34.334
38.7588
46.8406
61.0484
86.9499
134.003
217.332
347.323
261.618
260.715
350.15
219.3
135.264
87.107
60.3634
46.1518
38.3686
34.0853
32.2203
32.3237
34.2057
38.571
46.9967
61.9321
88.5239
136.063
216.072
346.099
261.593
261.205
349.764
218.874
136.385
88.1271
60.7517
46.2871
38.3749
34.1286
32.2792
32.3266
34.3155
38.7037
46.6205
61.7514
88.2883
135.921
217.816
347.336
261.657
261.022
347.883
216.804
136.111
88.0611
61.1834
46.1696
38.3285
34.1126
32.2604
32.2183
34.1685
38.6454
46.5896
61.617
88.0047
135.591
216.246
346.287
261.694
260.029
348.875
217.75
135.873
87.8569
61.1484
46.3413
38.1879
34.0659
32.242
32.2744
34.2325
38.6329
46.5598
61.4202
87.3695
135.143
217.411
347.789
261.519
260.493
349.767
218.896
135.726
87.6338
60.9845
46.049
38.1631
33.9559
32.132
32.2241
34.1064
38.5836
46.6906
61.3125
86.804
133.449
215.497
347.28
260.378
259.826
349.59
218.503
134.145
86.5813
60.8661
46.3483
38.2507
34.01
32.1593
32.1571
34.1703
38.5325
46.3243
61.2399
87.415
134.801
217.103
346.179
260.378
260.571
349.307
218.123
135.43
87.4198
60.7601
46.2748
38.3274
34.0704
32.21
32.1948
34.0711
38.5001
46.5913
61.1018
87.065
133.332
215.545
346.499
259.543
260.347
348.851
217.536
135.122
87.2137
60.1673
45.9054
38.2508
34.0348
32.2002
32.2064
34.1133
38.3161
46.4574
60.8754
86.1072
134.074
216.506
347.103
258.778
261.087
347.283
215.631
134.608
87.0053
60.6694
46.1808
38.2107
33.9053
32.1668
32.2175
34.042
38.4223
46.1547
60.7934
86.5193
132.564
215.936
346.83
257.914
260.521
347.991
216.048
134.254
86.6221
60.4063
45.8029
37.9806
33.8696
32.1418
32.2172
34.141
38.4485
46.4056
60.5882
85.9181
133.518
214.385
346.469
257.468
260.749
347.363
216.358
133.685
85.4239
59.7136
45.8538
38.0191
33.8512
32.059
32.1838
34.1122
38.3978
46.2856
60.0225
85.6608
132.364
215.223
346.257
257.309
259.919
347.826
215.748
133.134
85.4756
59.8748
45.6455
38.0762
33.89
32.1059
32.1788
34.0915
38.3503
46.2372
60.4081
86.2412
133.073
213.51
344.976
257.074
258.935
347.062
213.649
132.42
85.1109
59.9698
45.7136
38.0436
33.7675
32.0071
32.1334
34.0377
38.2721
46.0665
59.7191
85.0513
132.633
214.784
346.493
256.971
258.049
345.471
213.575
131.85
84.8316
59.8139
45.8324
38.0462
33.8063
32.0628
32.1083
33.9912
38.1946
45.9919
59.8818
84.9076
131.155
213.07
346.246
257.332
257.46
345.888
213.645
130.247
84.3455
59.1842
45.4412
37.8392
33.815
31.9772
31.9817
33.8198
38.0584
45.601
59.3247
84.6313
131.676
213.787
345.968
257.033
257.013
344.423
212.923
129.965
84.093
59.1486
45.4454
37.8262
33.7305
31.9842
31.9865
33.8202
38.0076
45.6083
59.5542
84.3356
131.059
213.077
345.643
256.863
256.943
345.22
211.062
129.29
83.8602
58.9933
45.3512
37.7627
33.7106
31.913
31.9194
33.6988
37.8036
45.3892
59.0065
83.9112
129.385
210.876
345.12
256.637
256.528
343.934
210.534
129.347
83.972
59.0567
45.3903
37.7429
33.717
31.9612
31.9291
33.6989
37.813
45.3774
59.027
84.0319
129.698
211.15
343.741
255.631
256.422
343.819
209.724
128.592
83.4865
58.8077
45.1091
37.7001
33.7458
31.9217
31.935
33.652
37.7224
45.1895
58.6941
83.5549
128.994
209.137
344.193
255.501
255.609
343.641
208.742
126.611
82.2684
58.5413
45.2277
37.77
33.7512
31.9538
31.9176
33.6098
37.5145
44.73
57.8556
82.3722
127.431
209.726
343.779
255.013
254.876
342.888
207.917
126.893
82.2452
58.3465
44.9422
37.6869
33.6523
31.9234
31.8812
33.5295
37.4788
44.7453
57.923
82.4049
127.365
208.806
342.344
254.603
254.16
341.999
206.772
125.395
81.2282
57.7492
44.8285
37.6277
33.6789
31.9097
31.8577
33.4856
37.3887
44.5917
57.8923
81.8712
126.518
207.766
342.749
254.305
253.49
341.112
205.64
125.143
81.1276
57.7249
44.8143
37.4866
33.6364
31.8305
31.7809
33.4325
37.2698
44.4003
57.235
81.147
125.492
206.55
342.179
254.297
253.054
340.146
204.367
123.907
80.4699
57.4479
44.6932
37.5153
33.5782
31.8379
31.7923
33.4032
37.2061
44.2435
56.9395
79.9208
124.574
204.712
340.332
253.668
252.43
339.277
202.793
122.622
79.8106
56.8642
44.3592
37.3569
33.6107
31.8716
31.8058
33.3984
37.1847
44.0707
56.5663
79.4653
122.844
203.346
340.582
253.991
252.18
337.095
201.494
121.791
79.3008
56.7323
44.2975
37.4202
33.6037
31.8537
31.7328
33.3444
37.0451
43.8771
56.256
78.9046
122.029
202.039
339.67
253.064
251.502
336.726
200.531
120.741
78.5492
56.1471
44.082
37.2663
33.5073
31.8376
31.7829
33.3646
36.9743
43.7069
55.8851
78.2825
120.818
200.718
337.819
252.526
250.801
336.121
200.05
119.825
77.8702
55.9059
43.9522
37.2485
33.5282
31.8187
31.7554
33.3103
36.8348
43.4908
55.4858
77.57
119.561
199.396
337.213
252.05
250.425
334.736
197.887
118.644
77.3317
55.5882
43.7537
37.1707
33.4806
31.7604
31.6411
33.1754
36.7194
43.2943
55.1416
76.9899
118.485
198.258
336.72
251.425
249.511
333.975
196.135
117.537
76.635
55.2333
43.6027
36.9953
33.3419
31.7036
31.5842
33.0968
36.5709
43.0534
54.7106
76.186
117.202
196.677
335.457
250.725
248.865
331.998
194.625
116.377
75.9347
54.8354
43.377
36.8691
33.2383
31.593
31.5083
33.0072
36.4649
42.8645
54.3317
75.45
116.069
194.591
333.23
250.14
248.28
330.755
192.565
114.976
75.0868
54.3753
43.0815
36.6871
33.1465
31.525
31.4343
32.9333
36.3267
42.6245
53.919
74.7631
114.848
193.077
331.915
249.25
247.421
329.104
190.534
113.471
74.2595
53.9712
42.8623
36.5583
33.0329
31.4093
31.349
32.8361
36.1984
42.4018
53.4813
73.9393
113.541
191.075
330.358
248.535
246.634
327.308
188.839
112.262
73.5213
53.5117
42.6022
36.3862
32.9086
31.3028
31.245
32.7058
36.0429
42.169
53.0936
73.2157
112.187
189.285
328.717
247.518
245.692
326.032
186.697
110.679
72.6205
53.0412
42.3158
36.1939
32.7673
31.1814
31.1202
32.5698
35.8736
41.9024
52.624
72.3922
110.743
187.217
327.053
246.633
244.482
324.493
185.004
109.492
71.9049
52.6049
42.0617
36.0184
32.6158
31.0382
30.9752
32.4243
35.7
41.6534
52.1973
71.6012
109.284
185.164
325.401
245.149
243.49
323.058
182.814
107.838
70.9715
52.084
41.732
35.7889
32.4347
30.8906
30.8363
32.2677
35.5063
41.3668
51.7105
70.7287
107.811
183.036
323.505
243.966
242.517
321.458
180.713
106.342
70.0459
51.5584
41.4198
35.578
32.2782
30.7447
30.6858
32.1017
35.296
41.0651
51.2136
69.8197
106.169
180.608
321.267
242.553
241.021
319.53
178.343
104.617
69.0487
50.9751
41.0637
35.3326
32.0797
30.5688
30.5123
31.9115
35.0646
40.744
50.6968
68.8891
104.542
178.278
319.288
241.473
239.448
317.542
175.915
102.944
68.1126
50.4068
40.6757
35.0538
31.8649
30.383
30.3341
31.7217
34.8336
40.4137
50.1461
67.8799
102.798
175.725
316.904
239.623
237.299
315.202
173.03
101.091
67.0569
49.7922
40.269
34.7579
31.6317
30.1809
30.1389
31.5064
34.5593
40.018
49.5168
66.7947
100.91
172.944
314.303
238.011
235.082
312.622
169.821
98.9972
65.8608
49.0794
39.8141
34.4307
31.3691
29.9492
29.9113
31.2592
34.2605
39.5991
48.8436
65.6387
98.9045
169.928
311.55
236.235
232.433
309.201
166.287
96.6717
64.5602
48.3267
39.3206
34.069
31.0757
29.6867
29.6528
30.9756
33.9101
39.1189
48.12
64.4143
96.6823
166.298
308.066
233.634
229.128
305
162.244
94.2205
63.1714
47.4821
38.7545
33.6484
30.7299
29.3724
29.3392
30.6342
33.5048
38.5766
47.293
63.027
94.1804
162.164
303.851
230.355
225.253
299.722
157.661
91.4619
61.6435
46.5704
38.121
33.1601
30.3231
29.0027
28.9723
30.2359
33.0323
37.9539
46.3696
61.4909
91.3871
157.477
298.495
226.335
220.434
293.26
152.512
88.4911
59.9555
45.5089
37.3892
32.6
29.8499
28.5689
28.5401
29.7679
32.4822
37.2469
45.3425
59.7912
88.3446
152.194
291.815
220.789
215.204
285.536
146.776
85.2679
58.1506
44.3875
36.5994
31.9697
29.3014
28.0604
28.0352
29.2277
31.8554
36.4512
44.205
57.9366
84.9887
146.156
283.726
214.891
208.643
276.16
140.425
81.8047
56.1936
43.1354
35.6884
31.2404
28.6701
27.4706
27.4474
28.6024
31.1405
35.5631
42.9721
55.9671
81.4108
139.523
273.92
207.155
201.571
265.359
133.646
78.1906
54.1553
41.8122
34.7065
30.4264
27.944
26.7927
26.7773
27.8966
30.3457
34.5945
41.6514
53.8813
77.6532
132.471
262.677
199.414
194.473
253.215
126.583
74.4796
52.0103
40.3863
33.6131
29.5117
27.1314
26.0254
26.0138
27.0977
29.4588
33.5385
40.2661
51.7831
73.9344
125.293
250.351
191.628
187.539
239.896
119.352
70.7788
49.8273
38.868
32.4353
28.5131
26.2323
25.1774
25.1743
26.2276
28.5062
32.4235
38.827
49.6679
70.2946
118.09
237.14
184.367
181.108
225.846
112.23
67.2129
47.6495
37.3009
31.175
27.4313
25.2517
24.2445
24.2484
25.2684
27.4675
31.2373
37.3604
47.6192
66.8934
111.307
223.986
179.138
176.374
211.498
105.233
63.7461
45.5114
35.7141
29.8709
26.2924
24.2109
23.2541
23.2651
24.2495
26.3707
30.0076
35.9047
45.6962
63.7554
104.889
210.698
175.932
174.844
197.719
98.7451
60.5309
43.4492
34.1343
28.5465
25.1272
23.1424
22.2328
22.2477
23.194
25.2307
28.7282
34.4053
43.7937
60.8641
99.0062
198.077
175.38
175.222
185.59
93.2466
57.6715
41.4904
32.5852
27.2361
23.9698
22.0809
21.218
21.2347
22.1374
24.085
27.4431
32.9208
41.9674
58.2012
93.721
186.321
176.01
178.316
175.033
88.3361
55.133
39.7129
31.1455
26.0009
22.87
21.0673
20.245
20.2598
21.1179
22.9744
26.1851
31.4447
40.1564
55.6956
88.9494
175.921
179.848
184.856
166.224
84.0348
52.9071
38.1003
29.8209
24.862
21.8577
20.1324
19.3465
19.3591
20.1729
21.9398
25.0089
30.0704
38.4959
53.4473
84.6137
166.92
185.22
191.954
158.401
80.6189
51.1031
36.7171
28.6527
23.8454
20.9481
19.2932
18.5411
18.55
19.3213
21.0025
23.934
28.7953
36.9502
51.4587
81.0966
159.012
192.407
201.611
151.819
78.1134
49.5553
35.4538
27.5788
22.9261
20.1421
18.5565
17.8358
17.8412
18.5728
20.174
22.9797
27.6675
35.601
49.7929
78.4358
152.22
202.364
213.74
146.631
76.2941
48.2734
34.338
26.6148
22.0995
19.4225
17.9085
17.2227
17.2259
17.9177
19.4399
22.1251
26.647
34.3701
48.2956
76.2928
146.516
213.238
227.728
142.683
74.7524
47.0011
33.2133
25.6679
21.3148
18.7631
17.3325
16.6878
16.6894
17.3371
18.7726
21.3329
25.7016
33.2717
47.0918
74.9006
143.017
228.337
245.919
140.417
73.6225
45.7647
32.0655
24.7086
20.5417
18.1382
16.8074
16.212
16.2121
16.8075
18.1384
20.543
24.7128
32.077
45.7874
73.6581
140.496
245.231
266.16
139.255
72.3127
44.226
30.7194
23.6474
19.7332
17.5206
16.3158
15.7828
15.7826
16.3153
17.5195
19.7321
23.6476
30.729
44.2618
72.4037
139.409
266.396
289.499
138.784
70.7186
42.3501
29.1531
22.4713
18.8827
16.9082
15.8574
15.3998
15.3993
15.8563
16.906
18.8801
22.4688
29.1531
42.3573
70.7361
138.802
289.65
315.898
138.682
68.3591
39.8884
27.2711
21.1517
17.9882
16.3087
15.4437
15.0746
15.0744
15.4434
16.3081
17.9874
21.1514
27.2739
39.9006
68.3897
138.7
315.53
343.277
138.112
64.8251
36.7568
25.0883
19.7261
17.0879
15.7547
15.1025
14.8352
14.8352
15.1022
15.7542
17.087
19.7259
25.0926
36.7783
64.8991
138.29
343.692
373.141
135.821
59.5587
32.8064
22.6046
18.2356
16.226
15.2785
14.8592
14.7107
14.7107
14.8593
15.2784
16.2248
18.234
22.6024
32.8031
59.5518
135.778
372.748
402.357
128.024
51.242
27.8338
19.8647
16.7633
15.4753
14.9581
14.7551
14.6773
14.6774
14.7553
14.9585
15.4761
16.7657
19.8684
27.8456
51.2803
128.161
402.657
432.5
107.411
38.6497
21.9405
17.0626
15.4917
14.9833
14.8097
14.7301
14.7007
14.7008
14.7308
14.8111
14.9852
15.4923
17.0607
21.936
38.6414
107.397
432.485
466.516
57.4214
21.6838
16.29
15.2358
14.9486
14.845
14.8045
14.7967
14.7964
14.7964
14.7968
14.8048
14.8457
14.9504
15.2386
16.2923
21.6869
57.4308
466.53
706.902
1037.6
640.621
367.149
210.042
126.827
83.9217
61.9125
50.7439
45.9715
45.9022
50.6037
61.9507
83.8734
126.681
210.672
367.207
636.361
1033.27
703.725
704.441
1033.91
636.39
363.848
208.146
125.49
82.6584
60.8857
49.9328
45.2501
45.1541
50.0291
61.5917
83.2442
125.512
205.874
358.885
631.97
1030.32
700.689
701.256
1022.84
624.307
354.725
202.58
124.591
83.4233
61.4765
50.2572
45.5123
45.3215
49.8437
61.3433
81.7435
123.196
212.288
369.062
620.824
1027.38
698.739
705.836
1039.93
636.858
364.034
209.765
127.901
84.6021
61.9363
50.4271
45.6858
45.4242
49.9157
60.8149
82.9715
125.667
211.864
368.972
634.476
1018.06
691.383
702.312
1037.41
622.629
353.586
208.252
127.724
84.3063
61.189
49.6186
45.1494
44.7624
50.2869
61.2959
81.403
122.108
210.336
366.543
631.057
1023.94
691.589
697.687
1037.78
626.777
361.225
205.45
127.225
83.3899
61.9695
50.264
45.8522
45.2101
50.2262
61.245
81.7577
122.676
209.179
363.944
617.057
1031.54
692.063
704.275
1036.18
624.264
368.109
212.972
127.151
84.1108
61.4173
50.4892
45.9289
45.4205
49.5715
60.5652
81.4373
121.725
204.63
356.376
628.412
1030.9
690.054
697.678
1034.55
624.79
367.348
211.906
125.14
82.6592
61.7107
51.0577
46.3074
45.8901
49.9211
61.4218
81.9078
122.975
210.642
364.259
616.609
1028.13
686.541
703.153
1031.85
627.426
365.771
210.706
124.455
83.3484
62.1816
50.5883
45.8436
45.3556
50.0366
61.4885
82.2918
125.152
210.168
362.959
620.108
1018.58
688.068
706.454
1028.68
635.791
358.097
209.269
124.66
83.8873
62.1123
51.0383
46.2941
45.7483
50.6621
61.4879
81.063
122.538
208.924
360.377
623.876
1028.53
690.776
707.304
1017.24
625.015
370.525
205.336
125.144
83.5342
61.2097
50.812
46.1559
46.1106
50.6524
61.5991
82.2318
126.614
207.666
350.674
608.989
1020.47
689.391
707.048
1029.52
639.44
369.706
206.576
127.385
82.351
61.2205
50.2059
45.5173
45.9578
50.4522
61.5623
83.0514
126.309
206.815
360.435
624.35
1028.21
690.09
706.787
1038.41
627.477
366.956
207.456
127.359
82.8598
61.4253
50.3438
45.6273
45.8092
49.8029
61.3625
81.4946
125.86
201.135
350.628
631.282
1018.6
685.632
700.77
1030.87
636.599
359.101
210.758
127.064
83.4556
60.6335
50.4819
45.5379
45.4592
50.5915
61.3529
83.0799
125.874
203.281
354.663
621.056
1027.69
695.77
711.099
1051.46
647.724
361.97
210.293
126.459
82.1091
61.1686
50.1126
45.4724
45.9095
50.5178
61.0584
81.4782
125.665
204.734
360.094
624.155
1034.6
693.938
714.824
1049.89
647.108
362.972
208.899
125.688
83.3743
61.7584
50.6236
45.5454
45.8736
50.3766
60.7589
82.2788
125.253
208.891
353.076
621.367
1032.82
695.652
708.649
1048.06
644.296
368.822
207.655
124.694
81.721
60.8246
50.0118
45.5508
45.7349
50.1971
59.952
81.3157
124.303
208.707
364.318
626.746
1029.73
693.923
709.922
1045.61
640.218
366.447
201.521
121.606
81.7
61.3216
50.4203
45.941
45.6402
50.1647
60.3389
80.8553
123.07
207.346
362.592
635.642
1026.53
692.427
704.811
1041.86
635.607
363.963
202.012
122.014
81.4071
61.1381
50.0587
45.8827
45.0099
50.0244
61.1551
81.8544
119.44
205.881
353.639
634.074
1016.25
687.042
703.576
1037.59
622.136
360.747
200.227
121.585
81.2456
60.5042
50.0977
45.9225
45.2697
49.4294
60.9968
80.9392
121.988
205.315
363.669
631.596
1028.4
689.4
696.869
1027.99
634.236
358.622
199.488
122.53
81.6464
61.0724
50.7852
46.0168
45.6934
50.0562
61.0299
81.805
123.085
199.816
359.863
618.287
1019.76
692.101
697.332
1028.94
630.854
349.782
199.173
120.645
82.5191
61.6437
50.7191
45.8622
45.5506
49.3161
60.31
82.5841
120.986
204.617
352.439
635.818
1036.92
690.192
694.069
1025.3
619.998
356.313
201.012
122.501
82.4679
61.5319
50.5203
45.3395
45.087
49.7199
61.2607
82.7742
121.459
201.156
355.25
632.935
1035.62
697.019
692.752
1025.72
628.828
349.403
198.828
119.814
81.1306
61.2536
50.2902
45.7925
45.4454
50.1604
61.1881
82.6941
122.275
205.864
359.347
630.194
1034.3
696.438
688.992
1024.77
619.041
349.682
194.698
120.374
82.3104
61.2004
49.8618
45.7295
45.22
50.0243
61.0346
82.6124
124.072
204.828
356.423
617.069
1031.92
695.914
690.677
1028.41
621.282
349.286
197.337
121.154
82.2947
60.6052
49.9916
45.6702
45.5693
49.4234
60.7009
82.1388
123.246
203.296
348.513
626.596
1029.32
690.307
692.924
1024.4
621.942
351.514
200.881
122.611
82.1342
61.1483
50.3114
45.5789
45.5887
50.0351
60.4864
81.7756
122.294
202.231
353.663
617.603
1019.92
690.713
689.336
1016.17
627.419
356.222
196.858
121.893
81.7649
60.9717
50.152
44.9598
45.4527
49.9609
59.4958
81.2123
119.364
197.639
358.758
627.846
1026.5
691.965
692.971
1015.96
623.918
353.804
200.914
120.117
81.2384
60.254
49.6404
45.1963
45.3825
49.9373
59.8326
81.092
120.797
199.821
357.604
617.307
1032.44
689.451
687.033
1024.58
611.863
344.544
196.349
121.683
80.4226
60.829
50.1452
45.6331
45.2409
49.931
60.2415
79.9328
121.634
201.992
356.228
626.398
1030.88
683.168
690.318
1014.1
612.562
345.037
199.216
121.659
81.469
60.7564
49.6558
45.6196
44.6145
49.7991
59.7333
80.8245
120.775
200.372
353.615
623.59
1027.18
685.55
693.784
1027.85
611.702
343.049
198.174
120.883
80.708
60.0328
50.1146
45.7103
45.3606
49.703
60.7978
79.8181
117.845
195.108
344.91
619.398
1017.62
688.906
691.777
1023.98
613.204
344.068
196.964
120.173
80.1432
60.3689
49.6769
45.6526
45.827
50.3795
60.8738
81.3628
119.49
199.102
351.385
609.917
1027.85
688.613
685.254
1012.86
607.754
340.314
195.151
117.732
79.9851
60.5947
49.9732
45.199
45.6463
50.1945
60.6167
81.1046
120.417
197.565
349.599
620.651
1020.46
687.198
684.154
1021.25
593.033
329.824
190.613
118.079
80.0661
60.5145
50.1187
45.5439
45.5329
50.014
60.3208
80.6431
119.604
195.687
341.15
608.822
1031.03
687.256
683.132
1018.48
594.996
331.341
192.326
118.718
80.4707
60.3341
49.9729
45.3624
44.9274
49.3675
59.8797
79.219
116.866
191.226
341.836
611.1
1029.95
682.654
685.885
1014.9
591.575
328.973
188.735
117.998
80.1408
60.0871
49.3908
44.801
44.9557
49.6004
59.3157
79.2583
117.437
194.342
339.609
609.122
1028.92
689.185
684.53
1004.24
593.892
330.734
191.745
117.463
79.727
59.5935
49.5715
44.8049
45.0512
49.4975
59.6615
78.7706
116.551
190.313
337.364
608.213
1019.46
689.772
682.249
1009.7
599.366
333.851
190.535
115.274
78.5209
59.2733
49.4266
44.6923
44.8633
48.8743
59.3553
78.4555
117.292
191.516
335.069
610.326
1034.38
688.574
680.69
1016.4
588.53
325.957
189.002
116.494
79.1121
59.2085
49.2756
44.4862
44.6292
48.8094
59.1259
78.1808
116.49
189.578
333.311
614.413
1026.13
686.016
675.372
1014.61
595.489
329.92
185.44
115.529
77.9712
58.9222
49.1177
44.7247
44.2223
48.6132
58.7902
77.4077
114.307
188.844
332.276
611.662
1036.21
687.611
675.679
1010.33
583.703
322.169
184.81
114.912
77.8861
58.9265
48.8739
44.5747
44.4524
48.6624
58.5345
77.5668
114.74
184.579
333.968
601.029
1033.21
680.616
673.097
1006.67
584.087
322.529
184.371
114.068
77.0321
58.6003
48.5687
43.9677
44.1879
48.3949
58.1263
76.7377
114.067
185.783
330.923
606.932
1023.81
681.676
672.722
995.937
581.121
314.304
182.549
113.2
76.7238
57.8542
48.2127
43.8264
43.9047
48.0627
57.7549
76.4397
111.72
183.756
328.989
603.273
1034.5
681.785
674.238
1004.77
583.77
314.092
180.845
111.119
76.1171
57.4808
47.9124
43.5559
43.6336
47.749
56.9536
75.6532
111.1
178.716
320.072
589.65
1033.14
679.635
673.286
992.898
579.187
310.535
177.836
110.381
75.6162
57.1103
47.4421
43.1976
43.2272
47.395
56.669
75.0899
110.48
180.262
320.558
588.603
1030.25
671.811
669.449
1002.34
568.918
307.762
176.795
109.337
75.1233
56.7503
46.9915
42.9205
42.7252
46.7687
56.2795
74.2572
108.804
178.187
316.967
582.986
1027.23
671.918
666.311
988.503
565.151
305.177
175.159
108.77
74.6507
56.3734
46.6224
42.7193
42.5113
46.5072
55.7986
73.6184
107.84
173.606
308.508
577.27
1015.23
668.269
664.005
988.083
560.512
304.086
173.815
108.037
74.2582
56.0298
46.2773
42.1725
42.1145
46.1462
55.4085
73.0769
106.49
171.915
306.403
572.244
1017.25
666.433
660.742
981.908
554.977
300.613
171.855
107.369
73.7813
55.6279
45.8999
41.8258
41.7274
45.669
54.841
72.4603
105.453
169.293
299.752
568.117
1017.11
662.594
657.559
977.283
549.632
296.192
169.522
106.052
73.02
54.9877
45.4832
41.3427
41.2216
45.1522
54.3743
71.8736
104.443
168.36
298.02
567.924
1023.28
659.587
653.797
971.8
543.63
292.09
166.865
105.296
72.5449
54.6308
45.1203
40.9822
40.8274
44.7697
53.8998
71.1907
103.259
165.637
293.748
561.744
1020.35
656.795
652.274
967.551
538.217
287.947
165.166
104.225
71.9349
54.1654
44.7232
40.5723
40.4028
44.2638
53.3563
70.5151
102.095
163.025
288.96
553.637
1016.43
653.453
649.846
967.046
533.144
284.033
163.154
103.234
71.3895
53.7782
44.3248
40.1323
39.9164
43.7543
52.7841
69.7992
101.077
161.279
285.68
549.819
1012.76
651.037
648.612
971.557
526.531
280.953
161.464
102.447
70.8592
53.2895
43.8395
39.6014
39.3854
43.2064
52.1892
69.0758
99.9084
158.594
280.035
543.119
1007.26
646.643
647.223
958.548
522.496
277.278
159.664
101.396
70.2264
52.8016
43.3668
39.0956
38.8711
42.6668
51.5987
68.3979
98.9347
156.323
273.816
528.37
1000.29
641.915
645.772
967.644
517.13
273.704
157.796
100.435
69.5446
52.2824
42.9102
38.6714
38.4104
42.1591
51.0003
67.6736
97.8183
154.387
270.138
520.943
983.07
634.579
644.313
953.212
510.311
269.97
156.335
99.5744
68.8897
51.7251
42.4177
38.2168
37.9755
41.6855
50.4632
66.9486
96.6782
152.047
265.096
512.61
977.579
628.08
641.837
950.524
504.141
265.757
154.418
98.5082
68.1236
51.1181
41.9089
37.7463
37.4921
41.1632
49.865
66.2623
95.7641
150.446
261.08
502.606
965.255
621.003
639.422
948.045
497.653
262.768
152.889
97.6311
67.4803
50.5506
41.4222
37.3186
37.0745
40.6931
49.2935
65.4918
94.6144
148.247
256.555
494.988
956.312
613.627
636.126
940.315
489.301
258.81
151.05
96.5433
66.6996
49.9448
40.8971
36.8352
36.5921
40.1622
48.6685
64.7221
93.5467
146.494
252.372
485.294
948.567
608.369
629.567
921.033
481.944
254.919
149.215
95.4817
65.9505
49.3757
40.4165
36.3886
36.1326
39.6454
48.0177
63.8744
92.357
144.382
248.123
476.731
944.869
601.195
624.336
914.11
472.58
250.533
147.186
94.3247
65.1394
48.7219
39.8588
35.8744
35.6205
39.086
47.3459
62.9528
90.9855
142.096
243.701
469.477
929.612
595.931
617.63
900.528
464.913
246.69
145.154
93.0582
64.2483
48.0377
39.2799
35.3521
35.1131
38.538
46.669
62.0283
89.597
139.721
239.082
460.76
920.436
590.226
613.873
890.239
454.947
242.039
142.839
91.6539
63.2601
47.289
38.6759
34.8191
34.6003
37.9774
45.9666
61.0608
88.1295
137.233
234.453
452.431
910.431
585.315
607.816
881.89
448.401
237.688
140.315
90.0492
62.145
46.4711
38.0397
34.2844
34.0953
37.4262
45.2638
60.0367
86.5717
134.76
229.679
444
901.129
580.927
603.509
872.562
439.046
232.463
137.474
88.2636
60.9111
45.5921
37.3808
33.7362
33.5836
36.8716
44.5689
59.0909
85.1976
132.38
224.977
435.252
889.405
577.135
596.625
861.138
430.137
226.795
134.238
86.2731
59.5721
44.6566
36.6896
33.176
33.0641
36.3159
43.8707
58.088
83.6747
130.007
220.571
426.542
878.941
573.207
592.665
850.448
420.564
221.209
130.913
84.1385
58.1395
43.6673
35.9594
32.5743
32.504
35.7083
43.092
56.9802
81.9952
127.373
215.85
417.302
866.926
564.317
589.047
839.495
410.208
214.729
127.111
81.7967
56.6464
42.6512
35.2021
31.9448
31.9044
35.0516
42.2679
55.8515
80.3312
124.639
210.463
406.773
854.43
557.669
581.073
829.246
398.983
208.066
123.234
79.3407
55.0427
41.5577
34.3839
31.2524
31.2277
34.2897
41.3263
54.5772
78.4512
121.485
204.549
395.745
840.88
549.045
568.182
813.462
385.044
200.366
118.884
76.7386
53.4107
40.4368
33.5302
30.5233
30.5145
33.4899
40.3406
53.2131
76.3986
118.112
198.118
383.506
825.096
537.787
550.761
795.639
370.484
192.217
114.31
73.9019
51.5754
39.1885
32.5986
29.7364
29.7482
32.6323
39.2456
51.6824
74.1047
114.356
191.12
369.646
805.269
524.116
529.45
773.404
353.407
182.964
109.144
70.8623
49.6653
37.8975
31.6317
28.9069
28.9234
31.695
38.0637
50.0147
71.5416
110.298
183.921
355.203
782.495
503.882
510.713
747.091
335.149
173.502
103.64
67.4686
47.569
36.5081
30.5967
28.0276
28.0557
30.7033
36.7844
48.2397
68.907
106.035
176.114
338.918
755.078
482.078
485.445
715.715
315.276
163.52
98.0145
64.0592
45.4089
35.0515
29.5183
27.1154
27.1575
29.6784
35.4428
46.3117
66.0029
101.402
167.826
322.106
725.14
462.438
463.148
681.54
295.08
153.17
92.0206
60.4041
43.1233
33.5307
28.3955
26.1637
26.2131
28.5878
34.0146
44.2449
62.8032
96.3095
159.09
303.991
690.996
441.271
437.769
643.638
274.631
142.677
85.9515
56.7546
40.8087
31.9623
27.2322
25.1818
25.2448
27.467
32.5244
42.0385
59.317
90.7978
150.077
285.323
653.83
422.921
416.841
602.94
254.499
131.89
79.5483
52.8903
38.3779
30.3292
26.0146
24.1437
24.2147
26.2665
30.9104
39.6408
55.5256
84.6503
139.938
265.129
611.955
403.578
392.296
556.393
233.506
121.188
73.288
49.0541
35.9401
28.6689
24.7603
23.0712
23.1495
25.0295
29.2549
37.1766
51.581
78.0747
129.044
244.34
565.85
382.852
367.999
506.461
212.022
110.373
67.0222
45.2265
33.4838
26.9777
23.4753
21.9644
22.0426
23.7387
27.5235
34.5878
47.4223
71.1273
117.347
221.566
514.896
358.939
341.524
452.895
189.378
99.2674
60.7061
41.4369
31.0555
25.2915
22.1946
20.8633
20.9429
22.4593
25.8217
32.0467
43.2824
64.0991
105.043
197.956
461.219
334.96
316.954
399.165
167.051
88.3403
54.5525
37.7104
28.6687
23.6455
20.9446
19.783
19.856
21.1889
24.1371
29.5733
39.3613
57.473
93.0901
174.336
406.86
310.7
297.156
348.835
145.918
77.8632
48.8247
34.3191
26.4912
22.1306
19.784
18.7749
18.8383
19.9957
22.5597
27.2691
35.6856
51.2435
81.9778
152.553
357.659
296.175
288.118
304.854
127.863
68.9696
43.8403
31.2848
24.5131
20.7481
18.7251
17.8544
17.9047
18.8917
21.0834
25.1223
32.35
45.6631
72.1158
133.197
312.817
292.464
288.574
268.725
112.583
61.4016
39.6159
28.7149
22.8332
19.5688
17.8184
17.064
17.1011
17.9401
19.8132
23.2723
29.4817