/*--------------------------------*- C++ -*----------------------------------*\
  =========                 |
  \\      /  F ield         | OpenFOAM: The Open Source CFD Toolbox
   \\    /   O peration     | Website:  https://openfoam.org
    \\  /    A nd           | Version:  6
     \\/     M anipulation  |
\*---------------------------------------------------------------------------*/
FoamFile
{
    version     2.0;
    format      ascii;
    class       volScalarField;
    location    "19";
    object      epsilon;
}
// * * * * * * * * * * * * * * * * * * * * * * * * * * * * * * * * * * * * * //

dimensions      [0 2 -3 0 0 0 0];

internalField   nonuniform List<scalar> 
130000
(
14.8398
14.6204
14.3855
14.1404
13.8864
13.6259
13.3621
13.0988
12.8401
12.5899
12.3519
12.1294
11.925
11.7407
11.5776
11.4361
11.3164
11.2177
11.1393
11.0804
14.8642
14.6456
14.4111
14.1658
13.9111
13.6495
13.3844
13.1196
12.8594
12.6078
12.3686
12.145
11.9397
11.7545
11.5907
11.4488
11.3288
11.2302
11.1521
11.0933
14.8857
14.6679
14.4336
14.188
13.9325
13.6698
13.4033
13.137
12.8751
12.6217
12.3806
12.1552
11.9483
11.7619
11.5969
11.4541
11.3339
11.2358
11.1583
11.1003
14.903
14.6855
14.4512
14.2051
13.9487
13.6847
13.4163
13.148
12.8838
12.6281
12.3852
12.1585
11.9504
11.763
11.5974
11.4541
11.3338
11.236
11.159
11.1016
14.915
14.6974
14.4627
14.2157
13.9578
13.6919
13.4215
13.1513
12.8856
12.6285
12.3845
12.1569
11.9483
11.7606
11.5949
11.452
11.3317
11.2336
11.1566
11.0996
14.9225
14.7041
14.4682
14.2195
13.9599
13.6924
13.4206
13.1494
12.883
12.6256
12.3813
12.1535
11.9447
11.757
11.5916
11.4488
11.3288
11.2309
11.1542
11.0975
14.9267
14.7067
14.4692
14.2187
13.9579
13.6893
13.417
13.1452
12.8783
12.6206
12.3762
12.1483
11.9397
11.7522
11.5871
11.4448
11.3252
11.2277
11.1514
11.0952
14.9293
14.7075
14.4682
14.2165
13.9544
13.6849
13.4117
13.1392
12.8718
12.6139
12.3694
12.1417
11.9334
11.7464
11.5817
11.44
11.321
11.2241
11.1485
11.0928
14.9315
14.7079
14.4669
14.2136
13.9501
13.6793
13.4052
13.132
12.8642
12.6061
12.3617
12.1342
11.9263
11.7398
11.5758
11.4348
11.3165
11.2203
11.1453
11.0903
14.9339
14.7083
14.4655
14.2105
13.9454
13.6733
13.3981
13.1241
12.8559
12.5976
12.3533
12.1261
11.9187
11.7328
11.5695
11.4293
11.3118
11.2164
11.1422
11.0879
14.9366
14.7091
14.4644
14.2075
13.9407
13.6672
13.3908
13.1161
12.8473
12.5889
12.3446
12.1178
11.9109
11.7257
11.5632
11.4237
11.3071
11.2126
11.1391
11.0856
14.9399
14.7105
14.4639
14.2049
13.9363
13.6612
13.3837
13.1081
12.8388
12.5801
12.3359
12.1094
11.9031
11.7185
11.5568
11.4182
11.3025
11.2088
11.1362
11.0834
14.9438
14.7123
14.4637
14.2029
13.9324
13.6558
13.377
13.1004
12.8305
12.5716
12.3275
12.1013
11.8954
11.7116
11.5507
11.4129
11.298
11.2052
11.1334
11.0813
14.9483
14.7147
14.4639
14.2016
13.9292
13.6509
13.3707
13.0931
12.8226
12.5634
12.3193
12.0934
11.888
11.7049
11.5447
11.4078
11.2938
11.2019
11.131
11.0796
14.9536
14.718
14.4651
14.2008
13.9265
13.6466
13.3651
13.0865
12.8153
12.5557
12.3116
12.0859
11.881
11.6985
11.5391
11.4031
11.29
11.199
11.129
11.0788
14.9599
14.7221
14.467
14.2004
13.9247
13.6431
13.3602
13.0805
12.8085
12.5486
12.3043
12.0788
11.8744
11.6925
11.5339
11.3987
11.2864
11.1963
11.1273
11.0781
14.9671
14.7274
14.4701
14.2015
13.9241
13.6408
13.3562
13.0753
12.8025
12.542
12.2976
12.0723
11.8682
11.6869
11.529
11.3946
11.2832
11.1939
11.1255
11.0766
14.9755
14.7337
14.4743
14.2035
13.9242
13.6393
13.353
13.0708
12.7971
12.5361
12.2915
12.0662
11.8625
11.6817
11.5245
11.3908
11.2803
11.1919
11.1243
11.0756
14.9852
14.7412
14.4795
14.2064
13.9247
13.6382
13.3505
13.067
12.7924
12.5308
12.2859
12.0607
11.8573
11.6769
11.5204
11.3875
11.2778
11.1902
11.1235
11.0757
14.996
14.75
14.486
14.2105
13.9265
13.6379
13.349
13.0643
12.7886
12.5263
12.2811
12.0558
11.8526
11.6727
11.5167
11.3846
11.2756
11.1887
11.1226
11.0759
15.0082
14.7601
14.4937
14.2158
13.9296
13.6391
13.3489
13.0627
12.7857
12.5226
12.2769
12.0515
11.8484
11.669
11.5136
11.3821
11.2739
11.1877
11.1223
11.0758
15.0216
14.7714
14.5027
14.2223
13.9337
13.6411
13.3491
13.0619
12.7835
12.5195
12.2733
12.0478
11.8449
11.6657
11.5109
11.3801
11.2727
11.187
11.1216
11.0746
15.0364
14.784
14.5129
14.23
13.9389
13.6438
13.3496
13.061
12.7818
12.5172
12.2705
12.0447
11.8418
11.663
11.5086
11.3784
11.2715
11.1862
11.1209
11.0743
15.0525
14.7981
14.5244
14.239
13.9453
13.6478
13.3514
13.0611
12.7813
12.516
12.2685
12.0424
11.8394
11.6607
11.5066
11.3767
11.2701
11.1855
11.1209
11.0745
15.07
14.8135
14.5374
14.2492
13.9529
13.6529
13.3544
13.0622
12.7812
12.515
12.2671
12.0405
11.8374
11.6589
11.505
11.3755
11.2694
11.1855
11.1214
11.0758
15.089
14.8303
14.5517
14.2608
13.9618
13.6592
13.3583
13.0641
12.7812
12.514
12.2659
12.0391
11.8359
11.6575
11.5039
11.3746
11.269
11.1854
11.1224
11.0774
15.1095
14.8487
14.5675
14.2738
13.9719
13.6667
13.3634
13.0671
12.7826
12.5142
12.2653
12.0383
11.8352
11.657
11.5037
11.3747
11.269
11.1853
11.1218
11.0772
15.1316
14.8687
14.5849
14.2883
13.9834
13.6754
13.3696
13.0711
12.7849
12.5153
12.2658
12.0382
11.8348
11.6566
11.5036
11.3747
11.2689
11.1848
11.1208
11.0765
15.1552
14.8903
14.6038
14.3043
13.9964
13.6855
13.3769
13.0761
12.788
12.517
12.2665
12.0385
11.8347
11.6559
11.5027
11.3737
11.2681
11.1839
11.1201
11.0754
15.1806
14.9136
14.6244
14.3219
14.0109
13.6969
13.3855
13.0822
12.792
12.5192
12.2672
12.0388
11.8348
11.656
11.5024
11.3734
11.2678
11.1837
11.1208
11.0764
15.2078
14.9388
14.6469
14.3413
14.027
13.7099
13.3955
13.0896
12.7971
12.5224
12.2689
12.0392
11.8349
11.6565
11.503
11.374
11.2682
11.1841
11.1214
11.0771
15.2369
14.9661
14.6715
14.3627
14.0451
13.7246
13.4072
13.0984
12.8035
12.5267
12.2716
12.0407
11.8356
11.6566
11.5028
11.3737
11.268
11.1839
11.1211
11.0775
15.2682
14.9955
14.6983
14.3862
14.0652
13.7413
13.4206
13.1088
12.8113
12.5322
12.2752
12.0426
11.8361
11.6561
11.5018
11.3725
11.2671
11.1837
11.1217
11.0784
15.3019
15.0275
14.7276
14.4123
14.0877
13.7602
13.4361
13.1212
12.8209
12.5394
12.2803
12.046
11.8379
11.6564
11.5014
11.3718
11.2664
11.1837
11.1218
11.0782
15.3383
15.0623
14.7597
14.441
14.1128
13.7816
13.454
13.1359
12.8327
12.5487
12.2875
12.0514
11.8418
11.6592
11.5033
11.3732
11.2675
11.1844
11.122
11.0785
15.3776
15.1001
14.7949
14.4728
14.1409
13.8059
13.4746
13.1532
12.8469
12.5604
12.2969
12.059
11.848
11.6642
11.5074
11.3765
11.2702
11.1866
11.1239
11.0801
15.4201
15.1413
14.8335
14.508
14.1723
13.8334
13.4983
13.1733
12.8639
12.5746
12.3089
12.0691
11.8566
11.6716
11.5138
11.3822
11.2752
11.191
11.1278
11.0835
15.4662
15.1863
14.8758
14.547
14.2073
13.8644
13.5253
13.1966
12.884
12.5918
12.3237
12.0819
11.8678
11.6815
11.5227
11.3903
11.2826
11.1979
11.1342
11.0893
15.5162
15.2353
14.9224
14.5901
14.2464
13.8992
13.556
13.2235
12.9074
12.6122
12.3416
12.0976
11.8818
11.6941
11.5342
11.4009
11.2925
11.2071
11.1428
11.0974
15.5706
15.289
14.9737
14.6378
14.2899
13.9384
13.5909
13.2543
12.9345
12.6362
12.3628
12.1166
11.8988
11.7096
11.5485
11.4141
11.3049
11.2188
11.1537
11.1076
15.6297
15.3477
15.0301
14.6906
14.3385
13.9824
13.6304
13.2896
12.9659
12.6641
12.3878
12.1391
11.9193
11.7284
11.5659
11.4304
11.3201
11.2331
11.1673
11.1203
15.6943
15.4121
15.0923
14.7492
14.3926
14.0318
13.6751
13.3297
13.0019
12.6965
12.417
12.1656
11.9436
11.7509
11.5868
11.45
11.3386
11.2506
11.1837
11.1358
15.7647
15.4828
15.1608
14.8141
14.453
14.0872
13.7255
13.3754
13.0432
12.7339
12.451
12.1968
11.9723
11.7775
11.6117
11.4734
11.3608
11.2715
11.2035
11.1545
15.8416
15.5603
15.2365
14.8861
14.5204
14.1495
13.7825
13.4274
13.0905
12.777
12.4905
12.2331
12.0059
11.8089
11.6412
11.5013
11.3871
11.2965
11.2272
11.1768
15.9258
15.6456
15.3201
14.9661
14.5956
14.2193
13.8469
13.4864
13.1446
12.8266
12.5361
12.2753
12.0452
11.8457
11.6759
11.5341
11.4182
11.3261
11.2553
11.2034
16.018
15.7396
15.4126
15.0551
14.6797
14.2978
13.9196
13.5535
13.2064
12.8836
12.5889
12.3244
12.0911
11.8888
11.7166
11.5727
11.455
11.361
11.2885
11.2348
16.1195
15.8434
15.5154
15.1543
14.7738
14.3862
14.0019
13.6298
13.2771
12.9492
12.6499
12.3813
12.1445
11.9392
11.7643
11.618
11.4981
11.4022
11.3276
11.2719
16.2312
15.9584
15.6296
15.2651
14.8796
14.4859
14.0952
13.7168
13.3581
13.0247
12.7204
12.4475
12.2068
11.9982
11.8203
11.6713
11.549
11.4506
11.3737
11.3157
16.3546
16.0859
15.757
15.3893
14.9986
14.5987
14.2013
13.8162
13.4511
13.1118
12.8021
12.5245
12.2796
12.0672
11.886
11.734
11.6088
11.5078
11.4282
11.3674
16.4911
16.2278
15.8994
15.5287
15.1329
14.7265
14.3222
13.9301
13.5582
13.2125
12.8971
12.6142
12.3647
12.1482
11.9633
11.8079
11.6795
11.5754
11.4927
11.4287
16.6427
16.3861
16.059
15.6858
15.2849
14.872
14.4604
14.0609
13.6818
13.3293
13.0077
12.7192
12.4647
12.2436
12.0546
11.8953
11.7632
11.6555
11.5691
11.5013
16.8114
16.5634
16.2387
15.8635
15.4577
15.0382
14.6191
14.2118
13.8252
13.4655
13.1372
12.8427
12.5826
12.3565
12.1628
11.9991
11.8628
11.7508
11.6602
11.5879
16.9998
16.7625
16.4416
16.0652
15.6549
15.2289
14.8022
14.3869
13.9923
13.625
13.2896
12.9884
12.7223
12.4906
12.2917
12.123
11.9818
11.8649
11.7692
11.6916
17.2109
16.9871
16.6718
16.2954
15.8812
15.4489
15.0147
14.5912
14.1883
13.813
13.47
13.1618
12.889
12.6511
12.4462
12.2718
12.1249
12.0022
11.9004
11.8164
17.4486
17.2416
16.9345
16.5596
16.1426
15.7046
15.263
14.8313
14.42
14.0363
13.6853
13.3695
13.0895
12.8447
12.6331
12.4521
12.2984
12.1687
12.0596
11.9676
17.7173
17.5319
17.2361
16.865
16.4467
16.004
15.5556
15.116
14.6962
14.3041
13.9448
13.6208
13.333
13.0804
12.8612
12.6724
12.5107
12.3726
12.2543
12.1526
18.023
17.865
17.5851
17.2211
16.8038
16.358
15.9039
15.4571
15.0293
14.6288
14.2609
13.9285
13.6321
13.371
13.143
12.945
12.7735
12.6249
12.4953
12.3812
18.3726
18.2502
17.9924
17.6402
17.2275
16.7813
16.3236
15.871
15.4362
15.0278
14.6516
14.3104
14.005
13.7343
13.496
13.2869
13.1035
12.9416
12.7975
12.6673
18.7763
18.7002
18.473
18.1394
17.7366
17.2943
16.8363
16.3806
15.9407
15.5259
15.1421
14.7924
14.4774
14.196
13.9457
13.7232
13.5246
13.3457
13.1824
13.031
19.247
19.2316
19.0472
18.742
18.3572
17.9255
17.4728
17.0185
16.5771
16.1586
15.7691
15.4118
15.0872
14.794
14.5296
14.2904
14.0722
13.8708
13.6819
13.5015
19.8029
19.8658
19.7425
19.4804
19.1259
18.7153
18.2767
17.8315
17.395
16.9778
16.5864
16.2238
15.8904
15.5846
15.3035
15.0432
14.7994
14.5675
14.3433
14.1227
20.4714
20.6373
20.5986
20.4004
20.0945
19.721
19.3108
18.8871
18.4663
18.0594
17.673
17.3098
16.9701
16.6516
16.351
16.064
15.7859
15.5122
15.2384
14.9607
21.283
21.5895
21.6691
21.5652
21.3353
21.0236
20.6642
20.2819
19.8944
19.513
19.1439
18.7895
18.4489
18.1194
17.7967
17.4758
17.1518
16.8198
16.4757
16.1158
22.2799
22.7888
23.0237
23.0611
22.9485
22.7361
22.4617
22.1522
21.8263
21.4949
21.1641
20.8345
20.5043
20.1689
19.8229
19.46
19.0748
18.662
18.2176
17.7388
23.521
24.3165
24.7773
25.005
25.0713
25.0133
24.8746
24.6847
24.4631
24.2203
23.9607
23.6832
23.3833
23.0538
22.687
22.2747
21.8099
21.2869
20.7017
20.0523
25.0879
26.2769
27.0808
27.5812
27.8852
28.0599
28.1268
28.1238
28.0676
27.9684
27.8292
27.6451
27.408
27.1064
26.729
26.2638
25.7015
25.0342
24.2577
23.3703
27.0892
28.8177
30.0948
31.0115
31.6662
32.1322
32.4895
32.7701
32.9571
33.0714
33.1182
33.0841
32.9565
32.7181
32.3519
31.8405
31.1697
30.3273
29.3064
28.1039
29.6592
32.1209
34.0424
35.522
36.6782
37.6022
38.3576
38.9764
39.4747
39.8668
40.1849
40.3645
40.4037
40.2757
39.9567
39.4214
38.6485
37.6174
36.3139
34.728
32.9675
36.4066
39.1831
41.4043
43.2114
44.7111
45.9775
47.0563
47.9743
48.7396
49.3382
49.7631
50.0319
50.0647
49.8378
49.318
48.4745
47.2738
45.6873
43.6887
37.2193
41.9299
45.8035
48.9587
51.5687
53.7651
55.6412
57.2572
58.6458
59.8179
60.7703
61.4896
61.9663
62.1985
62.103
61.645
60.784
59.469
57.6501
55.2727
42.6557
48.9703
54.1947
58.4677
62.01
64.9922
67.536
69.7208
71.5951
73.1831
74.4912
75.5117
76.2305
76.6348
76.6942
76.3361
75.5164
74.1624
72.1987
69.5339
49.5454
57.8124
64.6249
70.1639
74.7232
78.5319
81.7534
84.4997
86.8427
88.8239
90.4636
91.765
92.7182
93.3053
93.5042
93.2641
92.5376
91.2161
89.1992
86.3575
58.1756
68.7275
77.3214
84.223
89.8343
94.4671
98.3437
101.619
104.395
106.735
108.677
110.235
111.407
112.175
112.509
112.389
111.784
110.55
108.551
105.624
68.8301
81.9519
92.4611
100.77
107.432
112.863
117.358
121.122
124.293
126.96
129.177
130.972
132.348
133.291
133.767
133.77
133.303
132.194
130.262
127.314
81.7717
97.6774
110.176
119.9
127.59
133.786
138.863
143.081
146.615
149.583
152.056
154.077
155.656
156.78
157.41
157.537
157.204
156.254
154.432
151.512
97.215
116.041
130.555
141.68
150.368
157.294
162.917
167.553
171.418
174.66
177.37
179.608
181.392
182.719
183.554
183.843
183.614
182.827
181.154
178.312
115.32
137.131
153.654
166.15
175.798
183.409
189.528
194.533
198.681
202.152
205.064
207.494
209.473
211.001
212.038
212.513
212.449
211.86
210.403
207.725
136.181
160.982
179.479
193.293
203.837
212.057
218.589
223.873
228.216
231.836
234.881
237.451
239.593
241.317
242.578
243.29
243.432
243.083
241.947
239.562
159.829
187.57
207.964
223
234.321
243.013
249.806
255.212
259.594
263.217
266.267
268.876
271.115
273.012
274.534
275.611
276.11
276.019
275.26
273.332
186.226
216.786
238.93
255.009
266.896
275.819
282.616
287.879
292.04
295.422
298.261
300.729
302.929
304.913
306.661
308.112
309.128
309.535
309.251
308.063
215.256
248.413
272.045
288.856
300.95
309.712
316.099
320.802
324.335
327.096
329.385
331.427
333.366
335.289
337.2
339.048
340.688
341.897
342.457
342.269
246.704
282.086
306.77
323.809
335.546
343.542
348.894
352.414
354.72
356.304
357.547
358.742
360.082
361.704
363.653
365.909
368.342
370.749
372.802
374.059
280.251
317.273
342.331
358.827
369.364
375.707
379.131
380.599
380.845
380.475
380.012
379.794
380.06
381.02
382.787
385.385
388.704
392.523
396.468
400.076
315.467
353.265
377.697
392.532
400.67
404.121
404.399
402.696
399.807
396.391
392.943
390.166
388.538
388.35
389.631
392.44
396.72
402.384
409.104
416.301
351.837
389.198
411.6
423.222
427.324
426.357
421.909
415.136
407.437
400.266
393.921
388.908
385.595
384.304
384.993
387.807
392.765
399.833
408.732
419.009
388.82
424.118
442.554
448.878
447.078
439.335
427.985
415.708
402.997
390.538
379.71
371
364.781
361.372
361.013
363.623
369.532
378.701
390.965
406.036
425.942
456.977
468.867
467.614
456.775
440.636
421.527
400.773
380.747
362.508
346.823
334.238
325.121
319.749
318.323
320.715
327.206
338.253
353.899
374.022
462.891
486.623
489.223
476.527
454.446
426.535
396.557
367.001
339.646
315.636
295.596
279.852
268.528
261.723
259.564
261.872
268.949
281.708
300.581
325.891
499.343
512.718
501.977
474.104
436.187
394.245
352.598
314.139
280.514
252.453
230.052
213.103
201.289
194.404
192.424
195.111
202.976
217.44
239.597
270.672
535.638
534.622
504.173
455.669
398.92
341.84
289.573
244.844
208.493
180.211
159.088
144.105
134.378
129.37
128.928
132.84
142.16
158.798
185.076
224.8
573.682
550.731
493.066
418.23
340.698
270.438
212.339
167.466
134.524
111.373
95.7783
85.9127
80.5213
78.9962
81.1197
87.3692
99.365
119.612
154.288
211.409
613.297
556
461.894
357.077
261.966
187.192
133.55
97.6574
74.5572
60.5066
52.5096
48.5649
47.6175
49.1779
53.4
61.7278
76.526
102.974
149.58
229.622
652.686
543.302
401.662
271.017
172.505
108.104
70.1021
49.8404
39.4872
34.2487
31.7986
31.1769
32.0273
34.4877
39.5022
48.7979
66.2835
101.521
172.061
316.319
674.964
490.03
301.162
165.755
88.2493
52.4181
36.8426
29.4294
25.6426
23.7312
22.991
23.1746
24.3238
26.9148
31.9498
41.7657
62.5185
110.186
229.326
486.413
664.213
375.007
170.377
78.734
45.2901
31.5743
25.1119
21.7693
19.964
19.0419
18.7413
19.0241
20.0574
22.3108
26.9239
36.7845
60.3622
125.643
314.612
720.389
561.408
217.134
90.1807
47.2816
30.8886
23.65
20.0943
18.2054
17.1788
16.6486
16.4755
16.6711
17.4171
19.1357
22.9001
31.6341
54.9119
129.567
361.855
911.1
505.23
171.691
67.0945
35.7671
24.5581
19.8216
17.5657
16.4268
15.8171
15.5005
15.3851
15.4713
15.8864
16.9549
19.5206
25.8703
43.9035
106.172
350.238
973.689
614.77
159.97
55.233
29.1164
20.7173
17.4522
16.026
15.3846
15.0971
14.9584
14.9029
14.9218
15.0789
15.557
16.8503
20.3271
30.8845
70.3819
245.753
912.15
671.34
132.754
40.655
22.3064
17.3654
15.7294
15.1763
14.9567
14.8611
14.8107
14.7906
14.7963
14.8557
15.0282
15.5182
16.7964
20.3865
33.6161
107.614
552.206
212.458
32.6165
16.538
14.905
14.765
14.8204
14.8371
14.8336
14.8158
14.8012
14.7938
14.7932
14.8042
14.8308
14.8766
15.0576
15.9082
19.2445
32.3498
97.5903
11.0861
11.0477
11.0043
10.9631
10.9245
10.8891
10.8574
10.8297
10.8065
10.7881
10.7748
10.7667
10.7639
10.7662
10.7738
10.7865
10.804
10.8261
10.8527
10.8837
11.1034
11.0646
11.0212
10.9798
10.9411
10.9055
10.8736
10.8457
10.8222
10.8036
10.7899
10.7816
10.7784
10.7806
10.788
10.8006
10.8179
10.8396
10.8655
10.8957
11.1163
11.0775
11.0341
10.9928
10.954
10.9183
10.8863
10.8583
10.8347
10.8158
10.8019
10.7932
10.7896
10.7914
10.7987
10.8112
10.8279
10.8482
10.8721
10.901
11.1273
11.0886
11.0453
11.0039
10.9651
10.9295
10.8976
10.8696
10.846
10.8271
10.8131
10.8041
10.7997
10.8004
10.8064
10.8178
10.8333
10.8529
10.8763
10.9044
11.1374
11.0987
11.0555
11.0142
10.9752
10.9392
10.9066
10.8782
10.8543
10.8347
10.8197
10.8094
10.8032
10.8026
10.8077
10.8183
10.8331
10.8528
10.8773
10.9064
11.147
11.1082
11.0647
11.0226
10.9821
10.9445
10.9109
10.8821
10.8576
10.8364
10.8202
10.8093
10.802
10.8005
10.805
10.8155
10.83
10.85
10.8752
10.9055
11.152
11.1122
11.0683
11.0264
10.9856
10.9473
10.9138
10.8842
10.8579
10.8353
10.8187
10.808
10.8014
10.8
10.8046
10.8146
10.8299
10.85
10.875
10.9046
11.1528
11.1126
11.0687
11.0269
10.9867
10.9494
10.9156
10.8854
10.8587
10.8371
10.8204
10.809
10.8029
10.8022
10.8068
10.817
10.8322
10.852
10.8764
10.9049
11.1518
11.1122
11.0683
11.0264
10.9868
10.9506
10.9161
10.886
10.8596
10.8385
10.8219
10.8098
10.8034
10.8026
10.8073
10.8175
10.8327
10.8524
10.8764
10.9041
11.1507
11.111
11.0672
11.0264
10.9875
10.9504
10.9165
10.8865
10.86
10.8393
10.8226
10.8103
10.8041
10.8034
10.8082
10.8184
10.8336
10.8536
10.8781
10.9071
11.1529
11.1128
11.0687
11.027
10.9887
10.9519
10.9187
10.8894
10.8639
10.8429
10.8268
10.8158
10.81
10.8095
10.8145
10.8247
10.8398
10.8596
10.8837
10.9124
11.1572
11.1172
11.0731
11.031
10.9918
10.9552
10.9217
10.8918
10.8663
10.8454
10.8298
10.8196
10.8147
10.8152
10.8209
10.8316
10.847
10.867
10.8911
10.9194
11.1619
11.1212
11.0758
11.0331
10.9929
10.9556
10.9215
10.8914
10.8657
10.8446
10.829
10.8199
10.8156
10.8168
10.8231
10.8342
10.85
10.8703
10.8948
10.9231
11.1638
11.1223
11.0756
11.0319
10.9911
10.9539
10.9193
10.8889
10.8632
10.8422
10.827
10.8187
10.8152
10.8168
10.8232
10.8344
10.8502
10.8705
10.8948
10.9224
11.1629
11.1213
11.075
11.0304
10.9901
10.9528
10.9168
10.8863
10.8614
10.8425
10.8286
10.8197
10.8166
10.8178
10.8239
10.8348
10.8505
10.8708
10.895
10.9227
11.1638
11.1221
11.076
11.0322
10.9914
10.9524
10.9165
10.8864
10.8619
10.8438
10.8305
10.8227
10.8195
10.8209
10.827
10.8379
10.8538
10.8746
10.9001
10.9293
11.166
11.1234
11.0768
11.0325
10.9909
10.9522
10.9177
10.8879
10.8632
10.8442
10.8311
10.8241
10.8214
10.8234
10.8304
10.8422
10.8586
10.8794
10.9045
10.9334
11.1655
11.1231
11.0767
11.0323
10.9907
10.9524
10.9177
10.8877
10.8629
10.8437
10.8303
10.8224
10.8197
10.8223
10.8307
10.8433
10.86
10.8803
10.904
10.9323
11.1654
11.1239
11.0774
11.0329
10.991
10.9518
10.9172
10.8873
10.8624
10.843
10.8291
10.8209
10.8181
10.8206
10.8291
10.8416
10.8582
10.8786
10.9023
10.9313
11.168
11.1256
11.0791
11.0349
10.9938
10.956
10.922
10.8923
10.8673
10.8477
10.8334
10.8247
10.8212
10.8228
10.8297
10.8415
10.858
10.8791
10.9047
10.9348
11.1738
11.1312
11.0848
11.0411
11.0008
10.9638
10.9301
10.9001
10.8751
10.8553
10.841
10.8321
10.8283
10.8295
10.8357
10.847
10.863
10.8837
10.909
10.9389
11.1804
11.1374
11.0908
11.0471
11.0072
10.9709
10.9376
10.908
10.8837
10.8644
10.8503
10.8415
10.8377
10.8386
10.8443
10.8546
10.8696
10.8893
10.9136
10.9423
11.1873
11.1436
11.0962
11.0516
11.0108
10.9739
10.9407
10.9121
10.8886
10.8703
10.8573
10.8495
10.8463
10.8474
10.8531
10.8631
10.8769
10.8947
10.9173
10.9445
11.1951
11.1505
11.102
11.0562
11.0138
10.9755
10.9419
10.9135
10.8899
10.8718
10.8595
10.8528
10.8501
10.8516
10.8576
10.8675
10.8806
10.8977
10.9199
10.9465
11.2042
11.1588
11.1095
11.0628
11.0194
10.9801
10.9455
10.9159
10.8915
10.8727
10.8596
10.8526
10.8498
10.8514
10.8577
10.8683
10.8823
10.9011
10.9241
10.9511
11.2148
11.1688
11.1189
11.0714
11.0272
10.9871
10.9516
10.9213
10.8963
10.8768
10.8629
10.8546
10.8515
10.8533
10.8602
10.8718
10.8877
10.9076
10.9312
10.9585
11.2271
11.1806
11.1302
11.0822
11.0375
10.9968
10.9607
10.9298
10.9043
10.8846
10.8707
10.8625
10.8596
10.8617
10.8689
10.8808
10.8971
10.9173
10.9411
10.9682
11.2411
11.1942
11.1434
11.095
11.0499
11.0088
10.9724
10.9412
10.9156
10.8957
10.8818
10.8738
10.871
10.8732
10.8806
10.8927
10.909
10.9293
10.9529
10.9799
11.257
11.2098
11.1587
11.1099
11.0644
11.0231
10.9864
10.955
10.9292
10.9093
10.8954
10.8874
10.8847
10.887
10.8945
10.9066
10.923
10.9431
10.9666
10.9931
11.2751
11.2276
11.1762
11.1271
11.0813
11.0396
11.0027
10.971
10.9451
10.9251
10.9112
10.9032
10.9006
10.903
10.9105
10.9226
10.9389
10.9588
10.982
11.0081
11.2957
11.2479
11.1963
11.147
11.1009
11.0589
11.0216
10.9898
10.9637
10.9436
10.9297
10.9217
10.919
10.9214
10.9289
10.941
10.9572
10.9769
10.9997
11.0252
11.3193
11.2714
11.2196
11.17
11.1236
11.0813
11.0438
11.0118
10.9855
10.9653
10.9513
10.9433
10.9406
10.943
10.9504
10.9624
10.9783
10.9977
11.02
11.0449
11.3465
11.2985
11.2466
11.1968
11.1502
11.1076
11.0699
11.0376
11.0111
10.9908
10.9767
10.9686
10.9659
10.9682
10.9755
10.9873
11.003
11.0219
11.0437
11.0678
11.3778
11.3298
11.278
11.228
11.1812
11.1383
11.1004
11.0679
11.0412
11.0208
11.0066
10.9984
10.9956
10.9979
11.0051
11.0166
11.0319
11.0503
11.0714
11.0946
11.414
11.3661
11.3143
11.2643
11.2173
11.1743
11.1361
11.1034
11.0766
11.056
11.0417
11.0335
11.0306
11.0327
11.0397
11.051
11.0658
11.0836
11.1038
11.1258
11.4558
11.4082
11.3566
11.3066
11.2595
11.2163
11.1779
11.1451
11.1181
11.0974
11.083
11.0746
11.0716
11.0736
11.0803
11.0912
11.1054
11.1225
11.1416
11.1624
11.5042
11.457
11.4058
11.3559
11.3088
11.2655
11.227
11.1939
11.1668
11.146
11.1314
11.1229
11.1197
11.1214
11.1278
11.1382
11.1518
11.1679
11.1858
11.205
11.5603
11.5137
11.4631
11.4135
11.3665
11.3232
11.2845
11.2513
11.224
11.203
11.1882
11.1795
11.1761
11.1775
11.1835
11.1932
11.206
11.2209
11.2374
11.2547
11.6255
11.5798
11.5299
11.4809
11.4341
11.3908
11.3521
11.3187
11.2913
11.27
11.255
11.246
11.2423
11.2433
11.2487
11.2576
11.2693
11.2829
11.2976
11.3126
11.7014
11.6568
11.6082
11.5598
11.5134
11.4703
11.4316
11.3982
11.3706
11.3491
11.3337
11.3244
11.3202
11.3207
11.3253
11.3333
11.3436
11.3555
11.368
11.3804
11.79
11.7471
11.7
11.6527
11.607
11.5642
11.5257
11.4922
11.4644
11.4427
11.4269
11.417
11.4123
11.4121
11.4157
11.4223
11.431
11.4408
11.4506
11.4599
11.894
11.8534
11.8084
11.7627
11.7179
11.6757
11.6375
11.604
11.5761
11.5541
11.5378
11.5273
11.5218
11.5206
11.5229
11.5278
11.5344
11.5415
11.5482
11.5535
12.0167
11.9793
11.9373
11.8937
11.8504
11.8092
11.7714
11.7382
11.7102
11.6877
11.6709
11.6595
11.6529
11.6503
11.6509
11.6536
11.6574
11.6612
11.6638
11.6642
12.1629
12.1297
12.0919
12.0513
12.0102
11.9705
11.9336
11.9007
11.8727
11.8498
11.8322
11.8196
11.8114
11.807
11.8052
11.805
11.8052
11.8046
11.802
11.7964
12.3387
12.3115
12.2795
12.2433
12.2055
12.168
12.1325
12.1004
12.0724
12.049
12.0303
12.016
12.0057
11.9985
11.9934
11.9892
11.9845
11.9782
11.9689
11.9553
12.5529
12.5343
12.5106
12.4809
12.448
12.4139
12.3807
12.3497
12.3219
12.2979
12.2777
12.2612
12.2477
12.2366
12.2266
12.2166
12.2052
12.191
12.1727
12.1487
12.8181
12.812
12.8006
12.7806
12.7551
12.7264
12.6967
12.6677
12.6403
12.6154
12.593
12.573
12.5549
12.5379
12.5207
12.5024
12.4813
12.4562
12.4253
12.3872
13.1527
13.1656
13.1728
13.1677
13.1536
13.1333
13.1092
13.0833
13.0568
13.0305
13.0048
12.9795
12.9542
12.9282
12.9004
12.8695
12.8342
12.793
12.7443
12.6864
13.5892
13.6281
13.6641
13.6815
13.6852
13.6781
13.6631
13.6422
13.6172
13.5889
13.5579
13.5243
13.4878
13.4477
13.4032
13.3532
13.2963
13.2313
13.1562
13.0696
14.178
14.2591
14.3323
14.3826
14.4156
14.4296
14.4289
14.4164
14.3939
14.3627
14.3234
14.2766
14.2221
14.1598
14.089
14.0091
13.9187
13.817
13.7022
13.5728
14.9887
15.1366
15.2778
15.3795
15.4485
15.4963
15.5175
15.5188
15.501
15.4655
15.4134
15.3455
15.2625
15.1647
15.052
14.9246
14.7816
14.6226
14.4464
14.2516
16.1352
16.3891
16.6362
16.8244
16.9589
17.0447
17.0966
17.1235
17.1147
17.0735
17.0016
16.9008
16.7727
16.6187
16.4397
16.237
16.0109
15.7619
15.4896
15.1934
17.7926
18.2124
18.6244
18.9458
19.1829
19.3429
19.436
19.4849
19.4953
19.4465
19.3453
19.1949
18.9978
18.7571
18.4753
18.1554
17.7995
17.4099
16.9877
16.5338
20.2161
20.8879
21.548
22.0687
22.458
22.7273
22.8882
22.9671
22.9944
22.936
22.7948
22.574
22.2775
21.9101
21.4764
20.9815
20.4298
19.8261
19.1744
18.4781
23.7537
24.7882
25.798
26.5941
27.1886
27.5994
27.8466
27.9622
27.995
27.9451
27.7582
27.4487
27.0229
26.4871
25.8471
25.1095
24.2808
23.3685
22.3801
21.3234
28.8279
30.3396
31.7926
32.9239
33.7575
34.3253
34.6607
34.8168
34.871
34.823
34.5882
34.1837
33.6158
32.8888
32.0065
30.9727
29.7927
28.4743
27.028
25.4666
35.8548
37.9117
39.8361
41.2951
42.3428
43.0397
43.4405
43.6177
43.6825
43.6416
43.3747
42.8998
42.2193
41.3305
40.2284
38.9048
37.354
35.5755
33.5776
31.3751
45.0951
47.6487
49.9447
51.6052
52.7477
53.4789
53.8848
54.0481
54.0978
54.0699
53.8059
53.3205
52.6098
51.6603
50.4522
48.9523
47.1227
44.9383
42.3932
39.4902
56.5119
59.368
61.8082
63.4171
64.4579
65.0872
65.4117
65.5169
65.5305
65.5101
65.2902
64.8658
64.23
63.3654
62.2418
60.7945
58.9062
56.5082
53.5804
50.073
69.7858
72.6658
75.1198
76.8195
77.9467
78.6394
79.0081
79.1403
79.1192
79.0797
78.9198
78.4885
77.8147
76.8874
75.6861
74.1657
72.2689
69.9001
66.9206
63.082
84.9622
88.1583
90.8838
92.7726
94.0282
94.8107
95.2637
95.4911
95.4867
95.4007
95.2429
94.797
94.0886
93.1018
91.8109
90.1618
88.087
85.4902
82.2612
78.2338
102.849
106.51
109.634
111.841
113.343
114.309
114.899
115.204
115.244
115.182
115.046
114.572
113.792
112.689
111.24
109.392
107.082
104.201
100.606
96.0925
124.026
128.337
132.044
134.696
136.534
137.746
138.505
138.926
139.026
139.002
138.903
138.415
137.573
136.36
134.742
132.659
130.035
126.754
122.664
117.54
149.093
154.233
158.686
161.922
164.222
165.79
166.793
167.38
167.573
167.606
167.559
167.067
166.166
164.829
163.019
160.67
157.692
153.947
149.252
143.342
178.65
184.813
190.205
194.179
197.066
199.101
200.457
201.277
201.626
201.738
201.75
201.296
200.363
198.916
196.909
194.266
190.882
186.6
181.201
174.367
213.289
220.698
227.247
232.141
235.767
238.398
240.216
241.387
242.056
242.246
242.225
241.945
241.023
239.484
237.279
234.326
230.498
225.612
219.405
211.499
253.6
262.509
270.462
276.485
281.032
284.424
286.874
288.529
289.521
289.975
290.101
289.951
289.064
287.46
285.073
281.807
277.507
271.961
264.852
255.727
300.099
310.794
320.424
327.813
333.494
337.831
341.064
343.334
344.745
345.54
346.023
346.098
345.341
343.739
341.213
337.652
332.875
326.629
318.537
308.057
353.141
365.951
377.546
386.558
393.613
399.138
403.413
406.612
408.823
410.142
410.826
411.095
410.635
409.126
406.532
402.732
397.505
390.556
381.433
369.491
413.078
428.138
441.914
452.794
461.473
468.431
473.984
478.329
481.561
483.744
485
485.595
485.443
484.128
481.584
477.646
472.047
464.443
454.29
440.831
483.117
500.602
516.665
529.429
539.691
548.006
554.742
560.139
564.319
567.342
569.239
570.25
570.42
569.34
566.919
562.922
557.022
548.81
537.641
522.622
565.326
585.526
604.143
619.005
631.027
640.849
648.904
655.473
660.706
664.681
667.398
668.979
669.529
668.826
666.677
662.786
656.73
648.023
635.901
619.307
661.745
684.924
706.34
723.497
737.444
748.923
758.44
766.328
772.77
777.865
781.613
784.05
785.188
784.959
783.244
779.7
773.707
764.697
751.758
733.642
774.537
800.883
825.263
844.837
860.811
874.044
885.13
894.464
902.272
908.674
913.671
917.237
919.274
919.746
918.676
915.796
910.213
901.221
887.743
868.3
905.948
935.496
962.854
984.83
1002.81
1017.79
1030.48
1041.33
1050.63
1058.52
1065.01
1070.06
1073.51
1075.14
1074.92
1072.96
1068.29
1059.83
1046.31
1025.97
1058.11
1090.65
1120.74
1144.88
1164.65
1181.2
1195.36
1207.69
1218.53
1228.07
1236.32
1243.23
1248.57
1252.09
1253.3
1252.41
1249.31
1242.24
1229.47
1208.99
1232.78
1267.69
1299.89
1325.59
1346.6
1364.27
1379.57
1393.16
1405.47
1416.73
1426.99
1436.17
1444
1450.1
1453.79
1454.95
1453.87
1449.15
1438.38
1418.99
1430.85
1466.94
1500.04
1526.17
1547.43
1565.36
1581.09
1595.44
1608.92
1621.84
1634.27
1646.17
1657.22
1667.02
1674.82
1679.68
1681.24
1679.66
1672.41
1656.09
1651.74
1686.98
1718.94
1743.65
1763.5
1780.25
1795.26
1809.45
1823.46
1837.71
1852.33
1867.28
1882.26
1896.81
1910.09
1921.06
1928.17
1930.73
1928.54
1917.96
1892.43
1923.65
1951.35
1971.82
1987.75
2001.16
2013.6
2026.18
2039.65
2054.54
2071.06
2089.24
2108.78
2129.24
2149.72
2169.09
2185.6
2197.12
2201.81
2198.97
2146.18
2168.81
2187.77
2200
2208.47
2215.47
2222.76
2231.59
2242.88
2257.23
2274.96
2296.18
2320.67
2348.01
2377.32
2407.45
2436.51
2462.2
2480.92
2489.37
2400.91
2408.74
2413.06
2411.75
2408.1
2404.64
2403.4
2405.68
2412.5
2424.57
2442.29
2465.9
2495.27
2530.12
2569.64
2612.73
2657.43
2701.32
2740.69
2770.63
2637.79
2622.45
2605.33
2583.99
2562.45
2543.53
2530.01
2522.42
2521.97
2529.48
2545.43
2570.16
2603.7
2646.06
2696.71
2754.69
2818.03
2884.2
2949.56
3009.81
2837.54
2788.78
2737.59
2686.87
2639.7
2599.26
2568.24
2548.32
2539.21
2541.03
2553.92
2578.03
2613.52
2660.78
2720.23
2792.02
2875.36
2968.72
3067.9
3166.19
2954.82
2858.31
2765.94
2688.69
2619.71
2562.29
2517.74
2486.7
2469.21
2464.56
2473.04
2494.99
2530.76
2580.92
2646.51
2728.14
2825.59
2938.17
3062.66
3192.27
2953.89
2812.37
2676.85
2551.67
2449.7
2367.89
2304.6
2258.4
2228.04
2212.73
2212.57
2228.85
2262.18
2313.82
2384.05
2474.9
2588.33