/*--------------------------------*- C++ -*----------------------------------*\
  =========                 |
  \\      /  F ield         | OpenFOAM: The Open Source CFD Toolbox
   \\    /   O peration     | Website:  https://openfoam.org
    \\  /    A nd           | Version:  6
     \\/     M anipulation  |
\*---------------------------------------------------------------------------*/
FoamFile
{
    version     2.0;
    format      ascii;
    class       volScalarField;
    location    "19";
    object      k;
}
// * * * * * * * * * * * * * * * * * * * * * * * * * * * * * * * * * * * * * //

dimensions      [0 2 -2 0 0 0 0];

internalField   nonuniform List<scalar> 
10000
(
0.204022
0.520168
0.468934
0.410145
0.367143
0.342499
0.330057
0.324933
0.323532
0.324
0.325449
0.327665
0.33139
0.338475
0.352074
0.376799
0.417532
0.472013
0.520232
0.204902
0.203205
0.519289
0.469091
0.410364
0.367188
0.342847
0.330417
0.32539
0.324026
0.324745
0.32618
0.328376
0.332905
0.339803
0.352817
0.376808
0.417602
0.470805
0.519737
0.204565
0.204369
0.521252
0.469301
0.410241
0.367975
0.343047
0.33055
0.325756
0.324352
0.325131
0.327391
0.329339
0.331568
0.338525
0.352124
0.377179
0.417719
0.472173
0.519443
0.20448
0.204738
0.522245
0.471171
0.411633
0.368377
0.343676
0.330465
0.325839
0.325601
0.326273
0.325212
0.327127
0.331072
0.338298
0.351845
0.376672
0.417632
0.471281
0.520356
0.204899
0.205484
0.522995
0.469393
0.410304
0.367643
0.343151
0.330884
0.324536
0.323255
0.324479
0.3247
0.327041
0.331345
0.339183
0.351875
0.376549
0.416473
0.472739
0.521334
0.20441
0.205126
0.522788
0.469679
0.410659
0.367437
0.34248
0.329725
0.324375
0.323836
0.323966
0.324508
0.32719
0.332246
0.3384
0.351662
0.376216
0.415958
0.471887
0.520812
0.204255
0.204915
0.522237
0.469078
0.410213
0.367216
0.342519
0.329853
0.324131
0.322407
0.322859
0.324416
0.32688
0.331073
0.33904
0.351524
0.375872
0.41503
0.469943
0.51903
0.203608
0.204521
0.521178
0.468987
0.409632
0.367463
0.343302
0.331322
0.325596
0.322835
0.323511
0.326319
0.328882
0.332473
0.338464
0.351261
0.375705
0.414721
0.46975
0.518964
0.203341
0.204289
0.520969
0.469322
0.408024
0.366779
0.342938
0.330844
0.324525
0.323002
0.324768
0.325596
0.32785
0.331449
0.338796
0.350992
0.37531
0.413998
0.469009
0.518777
0.203051
0.20362
0.520797
0.46941
0.40912
0.36711
0.34287
0.330984
0.324801
0.323186
0.323978
0.324304
0.326696
0.332186
0.337452
0.350697
0.375003
0.413902
0.467908
0.518372
0.20328
0.203982
0.520352
0.467996
0.410037
0.367398
0.343393
0.330635
0.325987
0.32435
0.323021
0.324394
0.326741
0.331281
0.337273
0.350642
0.374411
0.41426
0.468743
0.518626
0.203917
0.203831
0.520115
0.468912
0.410076
0.36766
0.343202
0.330711
0.325146
0.323117
0.322894
0.323752
0.325893
0.33031
0.337708
0.350712
0.374213
0.413525
0.470024
0.518542
0.204162
0.203563
0.520188
0.46821
0.409685
0.368023
0.343696
0.331498
0.327042
0.325244
0.325211
0.325731
0.327549
0.329753
0.336602
0.350067
0.374404
0.415718
0.470033
0.520241
0.204418
0.203404
0.519281
0.468604
0.408765
0.368129
0.3445
0.332438
0.326571
0.324603
0.324616
0.324553
0.327015
0.330677
0.33762
0.350293
0.374638
0.416089
0.472576
0.520385
0.204556
0.202877
0.520101
0.469785
0.410291
0.368318
0.344334
0.331504
0.325724
0.323848
0.324516
0.324512
0.326107
0.329568
0.336793
0.350201
0.375015
0.416132
0.472277
0.520051
0.20446
0.20333
0.519295
0.469487
0.409092
0.368299
0.344938
0.331827
0.325871
0.323849
0.323967
0.32602
0.326621
0.329983
0.337692
0.35034
0.374952
0.414844
0.471936
0.519823
0.20449
0.203752
0.519969
0.468582
0.410124
0.368156
0.345456
0.333322
0.326465
0.324137
0.324075
0.326148
0.328176
0.331287
0.337048
0.350232
0.375007
0.415854
0.47187
0.519735
0.20451
0.203781
0.519863
0.469723
0.409819
0.369169
0.34599
0.333449
0.326798
0.324514
0.324429
0.325841
0.327514
0.330667
0.337178
0.350305
0.375055
0.414785
0.470714
0.519378
0.204184
0.205104
0.522739
0.471703
0.412642
0.370428
0.346433
0.334086
0.328437
0.326299
0.32587
0.324965
0.326547
0.331822
0.33812
0.350455
0.37534
0.416309
0.472375
0.519374
0.205025
0.205284
0.523077
0.473121
0.414386
0.371413
0.346915
0.334169
0.327809
0.325276
0.32443
0.324813
0.32636
0.330771
0.337011
0.350414
0.375411
0.416379
0.472724
0.520656
0.205229
0.204954
0.522152
0.472738
0.41409
0.370804
0.346977
0.334766
0.329213
0.326898
0.326071
0.326716
0.326724
0.329791
0.336823
0.350448
0.375246
0.417013
0.471767
0.520764
0.205156
0.204939
0.522376
0.471263
0.413863
0.37144
0.34699
0.334391
0.327833
0.325282
0.324696
0.326271
0.326885
0.330125
0.337917
0.35126
0.375946
0.417244
0.472228
0.519832
0.205133
0.204811
0.522214
0.472621
0.41314
0.371236
0.346446
0.333731
0.328162
0.326439
0.324703
0.326303
0.32822
0.330465
0.337273
0.351038
0.375972
0.417222
0.473
0.520236
0.205133
0.204731
0.520889
0.47309
0.413781
0.370942
0.346539
0.333809
0.328917
0.325228
0.324468
0.325266
0.32711
0.330537
0.337583
0.351545
0.375656
0.416536
0.471522
0.52075
0.205213
0.204672
0.521344
0.472961
0.414344
0.371673
0.34693
0.334561
0.327521
0.325008
0.324663
0.325628
0.327393
0.331006
0.338656
0.351414
0.376011
0.416356
0.472356
0.52078
0.205056
0.204567
0.522247
0.472136
0.413172
0.372071
0.347417
0.333817
0.327676
0.325374
0.325175
0.326465
0.329106
0.332576
0.338597
0.351701
0.375824
0.416955
0.472938
0.520699
0.204743
0.205385
0.522677
0.472488
0.413852
0.372067
0.346999
0.333877
0.327859
0.325592
0.3254
0.327816
0.328056
0.331539
0.337684
0.351246
0.376158
0.416111
0.471816
0.520314
0.205296
0.20522
0.522481
0.470763
0.414403
0.372094
0.347716
0.335087
0.329424
0.327328
0.325637
0.326971
0.328444
0.330416
0.337332
0.350987
0.376013
0.417015
0.473057
0.521446
0.205645
0.204934
0.522736
0.47127
0.414324
0.371955
0.347183
0.333844
0.328101
0.326303
0.325927
0.32533
0.326432
0.329868
0.337221
0.350782
0.375692
0.415513
0.471462
0.52079
0.205398
0.205391
0.522532
0.47114
0.41415
0.371822
0.346623
0.333823
0.328717
0.325006
0.324011
0.324485
0.327375
0.329804
0.337267
0.3505
0.375188
0.415295
0.471954
0.519991
0.20525
0.205224
0.522358
0.471807
0.413878
0.371755
0.346556
0.333322
0.327066
0.325185
0.324144
0.324347
0.325858
0.329201
0.336349
0.350165
0.374536
0.41482
0.471562
0.52026
0.205195
0.205105
0.522175
0.471388
0.4137
0.371573
0.346707
0.333643
0.327401
0.32476
0.324884
0.325716
0.326124
0.329209
0.336316
0.350398
0.373983
0.414079
0.469654
0.520388
0.204801
0.204392
0.520844
0.469748
0.412518
0.37147
0.347226
0.334015
0.329089
0.32601
0.324062
0.32443
0.3262
0.329364
0.33642
0.349065
0.373086
0.413185
0.469726
0.520279
0.204886
0.204694
0.521101
0.470342
0.412926
0.371338
0.346553
0.334444
0.328453
0.32491
0.324251
0.325688
0.325379
0.328586
0.336345
0.348997
0.372763
0.412585
0.469071
0.519103
0.204134
0.20469
0.520935
0.470067
0.412645
0.37108
0.34629
0.333186
0.327298
0.324784
0.324264
0.325142
0.325333
0.329272
0.335875
0.349137
0.371849
0.411096
0.468774
0.518997
0.203901
0.204504
0.520661
0.469387
0.411462
0.370841
0.346596
0.333035
0.327339
0.325162
0.325687
0.324283
0.324878
0.327899
0.334851
0.347784
0.371228
0.410595
0.468104
0.518501
0.203309
0.204419
0.520383
0.468992
0.411061
0.370397
0.345507
0.33297
0.327734
0.325492
0.325689
0.324336
0.325206
0.327871
0.333981
0.34693
0.370943
0.410995
0.466587
0.517726
0.202734
0.204145
0.519265
0.468259
0.41049
0.369974
0.345209
0.332791
0.328862
0.325933
0.325732
0.324619
0.325702
0.328292
0.33414
0.347044
0.370781
0.410601
0.46608
0.516532
0.202179
0.204025
0.519417
0.467903
0.410253
0.369689
0.344843
0.332338
0.327158
0.32647
0.324801
0.324488
0.32682
0.329457
0.334247
0.347307
0.370381
0.409134
0.465243
0.516401
0.201696
0.203818
0.519115
0.466594
0.409559
0.369242
0.34465
0.332288
0.326979
0.325894
0.325769
0.324385
0.325017
0.327995
0.33418
0.347476
0.370045
0.408612
0.464843
0.516008
0.201726
0.203564
0.518844
0.465655
0.409093
0.368977
0.34446
0.33214
0.326752
0.324612
0.324207
0.32427
0.325231
0.329054
0.335029
0.347072
0.369444
0.408008
0.464176
0.516583
0.201548
0.202817
0.517925
0.464687
0.408149
0.36867
0.344339
0.332392
0.328139
0.325196
0.324897
0.324858
0.325288
0.32784
0.333881
0.346339
0.36889
0.407454
0.463414
0.516228
0.201551
0.202039
0.516434
0.463376
0.406925
0.368052
0.344047
0.331961
0.326858
0.326282
0.327008
0.326735
0.325388
0.327694
0.333805
0.345925
0.368573
0.406605
0.462634
0.515422
0.2016
0.201548
0.515662
0.462767
0.406293
0.367701
0.344002
0.332012
0.326512
0.324735
0.325225
0.325078
0.325104
0.327683
0.334086
0.346209
0.368177
0.405981
0.462445
0.515255
0.201538
0.201349
0.515209
0.462703
0.405832
0.367194
0.343975
0.332679
0.327074
0.325768
0.324106
0.324007
0.324878
0.3275
0.33503
0.345646
0.367579
0.404905
0.461752
0.514532
0.200798
0.201241
0.51516
0.462029
0.405064
0.366987
0.344043
0.333176
0.326983
0.324836
0.324444
0.324906
0.326351
0.327525
0.333707
0.344606
0.366963
0.404037
0.460032
0.514209
0.200816
0.200793
0.514795
0.460366
0.404053
0.366328
0.344207
0.332463
0.327248
0.325415
0.325924
0.324628
0.325319
0.327386
0.332668
0.343571
0.366225
0.403206
0.459259
0.512989
0.200264
0.200684
0.514478
0.459101
0.403336
0.365805
0.343749
0.332852
0.328062
0.327134
0.325393
0.325057
0.325664
0.327559
0.332442
0.343373
0.365624
0.402534
0.45825
0.512733
0.20002
0.200158
0.513243
0.458086
0.402382
0.365154
0.344756
0.334782
0.330042
0.328
0.326393
0.32608
0.326656
0.329303
0.333774
0.343318
0.364997
0.401857
0.45756
0.512259
0.199648
0.199491
0.511869
0.456743
0.401589
0.364628
0.344734
0.334707
0.329716
0.328475
0.327321
0.32813
0.328418
0.328713
0.332959
0.343214
0.36473
0.401348
0.456563
0.511516
0.199267
0.198908
0.510952
0.455288
0.40059
0.364663
0.345119
0.335491
0.330448
0.329355
0.329247
0.327644
0.327607
0.32899
0.333217
0.343179
0.36412
0.400446
0.455499
0.511027
0.199071
0.198455
0.510091
0.454171
0.39973
0.364129
0.345919
0.336182
0.331782
0.32974
0.329849
0.329851
0.330101
0.33139
0.335082
0.343481
0.36415
0.399558
0.454411
0.51051
0.199038
0.197907
0.508872
0.45273
0.398612
0.363941
0.346262
0.337704
0.333719
0.33189
0.33111
0.330552
0.33057
0.331624
0.335035
0.343374
0.36326
0.398368
0.453109
0.510338
0.198558
0.197666
0.508361
0.451543
0.39767
0.36403
0.34667
0.338206
0.333701
0.331941
0.331692
0.331571
0.331773
0.332652
0.335705
0.344011
0.362542
0.397503
0.452176
0.509493
0.198368
0.197206
0.507669
0.450417
0.396897
0.363669
0.347305
0.339322
0.335325
0.33287
0.332124
0.331932
0.33271
0.333255
0.33579
0.343529
0.361785
0.39648
0.450803
0.508718
0.198114
0.196881
0.506871
0.449062
0.395922
0.363358
0.347877
0.340704
0.336648
0.334154
0.333497
0.334465
0.335145
0.335633
0.336682
0.343848
0.362216
0.395589
0.449157
0.507478
0.197415
0.196311
0.505918
0.447941
0.39501
0.362678
0.34849
0.341942
0.338897
0.337214
0.336369
0.33603
0.336351
0.336699
0.338515
0.344861
0.361324
0.394587
0.448141
0.507027
0.197132
0.195863
0.505036
0.446478
0.394129
0.362617
0.348919
0.342885
0.340179
0.338681
0.337789
0.337538
0.337937
0.338036
0.339043
0.344531
0.360578
0.393511
0.446538
0.506097
0.196675
0.195435
0.504143
0.445124
0.393045
0.361729
0.349294
0.343881
0.341641
0.340585
0.339936
0.339585
0.339419
0.339291
0.340436
0.344913
0.360903
0.392386
0.444917
0.505054
0.196158
0.194868
0.503434
0.443664
0.392042
0.361407
0.349728
0.344875
0.342994
0.342188
0.341861
0.341542
0.340951
0.340498
0.340957
0.345727
0.360101
0.391122
0.443336
0.503828
0.195545
0.19438
0.502515
0.442113
0.390997
0.361007
0.349721
0.345612
0.34418
0.34371
0.343406
0.342945
0.342253
0.34147
0.341489
0.345565
0.359405
0.389924
0.442024
0.503027
0.195123
0.193891
0.501665
0.440619
0.389868
0.360758
0.349115
0.34627
0.345228
0.344885
0.344618
0.344152
0.343411
0.34256
0.34234
0.34547
0.35837
0.388392
0.440076
0.501653
0.19436
0.193202
0.500331
0.438729
0.388494
0.361109
0.348549
0.34668
0.346104
0.345976
0.345809
0.345384
0.344627
0.343675
0.343259
0.34513
0.357362
0.386981
0.438419
0.500729
0.193818
0.192633
0.499374
0.436873
0.386798
0.359756
0.348754
0.346945
0.346894
0.347059
0.34703
0.346648
0.345865
0.344776
0.343935
0.345891
0.356607
0.385413
0.436248
0.499182
0.192948
0.191793
0.497954
0.434681
0.384841
0.358276
0.346293
0.346317
0.347512
0.348113
0.348265
0.347933
0.347095
0.345809
0.344398
0.344686
0.355124
0.383526
0.433834
0.497897
0.192171
0.190896
0.496331
0.431804
0.382305
0.356747
0.345473
0.345234
0.348057
0.349161
0.349491
0.349194
0.348297
0.346873
0.345175
0.344852
0.354884
0.381542
0.43092
0.495502
0.190927
0.190098
0.494862
0.429082
0.379585
0.354822
0.344763
0.346579
0.349018
0.350314
0.350772
0.350468
0.349434
0.347732
0.345772
0.345506
0.355471
0.379269
0.428172
0.49407
0.190095
0.189099
0.493032
0.425793
0.376101
0.352408
0.343621
0.345011
0.349312
0.351305
0.351998
0.351702
0.350493
0.348354
0.345361
0.343679
0.35331
0.376443
0.424961
0.491802
0.188929
0.187765
0.490748
0.422203
0.372298
0.349504
0.343193
0.345458
0.349854
0.352429
0.353264
0.352934
0.351529
0.348924
0.344506
0.343245
0.351605
0.373213
0.421453
0.489948
0.18792
0.186319
0.488305
0.418403
0.367934
0.34722
0.342956
0.347035
0.351338
0.353637
0.354519
0.354172
0.352628
0.34984
0.346019
0.343238
0.349376
0.369465
0.417465
0.487084
0.186324
0.184444
0.485279
0.414154
0.364266
0.345399
0.343575
0.345711
0.351658
0.354639
0.355771
0.355436
0.353696
0.350315
0.344865
0.343594
0.346649
0.365367
0.413396
0.484732
0.184995
0.182443
0.481892
0.409631
0.362992
0.345081
0.342258
0.345749
0.352422
0.355715
0.357029
0.356753
0.354959
0.351382
0.345226
0.342025
0.343549
0.361514
0.409317
0.48191
0.183158
0.179958
0.47778
0.404178
0.361937
0.346301
0.343247
0.345586
0.352113
0.356225
0.357978
0.357881
0.356098
0.35237
0.345803
0.341036
0.34174
0.359086
0.40476
0.478319
0.180691
0.176936
0.472667
0.398307
0.357506
0.342736
0.340271
0.344961
0.350414
0.355907
0.358473
0.358647
0.357033
0.353632
0.348291
0.343279
0.342536
0.357738
0.39957
0.473718
0.177645
0.173404
0.466555
0.391513
0.35338
0.342315
0.339966
0.346185
0.350691
0.354623
0.358149
0.358529
0.356907
0.353287
0.347108
0.341904
0.340244
0.353821
0.393134
0.468086
0.17389
0.169202
0.4592
0.384028
0.348425
0.33891
0.339103
0.344614
0.352035
0.354871
0.357057
0.357287
0.355699
0.352051
0.346553
0.340465
0.340162
0.349826
0.386167
0.460865
0.169166
0.164605
0.450991
0.376161
0.343943
0.337055
0.340497
0.345105
0.350735
0.355003
0.358462
0.357908
0.357496
0.354221
0.348704
0.340424
0.33713
0.345596
0.37839
0.452794
0.164131
0.159173
0.441096
0.367622
0.339261
0.334372
0.339175
0.347221
0.351758
0.355438
0.357507
0.357684
0.356069
0.35252
0.347099
0.340292
0.334938
0.34134
0.369765
0.44242
0.158007
0.153746
0.430395
0.359447
0.335681
0.33354
0.341522
0.348388
0.352739
0.356221
0.358378
0.358588
0.356988
0.353568
0.348346
0.341571
0.335162
0.337654
0.361173
0.431304
0.152316
0.148476
0.419288
0.35182
0.33289
0.335484
0.343797
0.350536
0.355855
0.35896
0.359633
0.359479
0.357887
0.354643
0.349675
0.343033
0.337086
0.334555
0.352921
0.419191
0.146735
0.143601
0.407856
0.345213
0.330779
0.336084
0.345224
0.35215
0.357112
0.359948
0.361206
0.361721
0.359779
0.356719
0.352338
0.346143
0.336888
0.332089
0.345571
0.406719
0.142079
0.139519
0.396218
0.340098
0.330271
0.337969
0.347255
0.354016
0.358393
0.360464
0.361881
0.362605
0.360987
0.359271
0.355066
0.348398
0.338453
0.331229
0.339982
0.395128
0.139035
0.137551
0.384938
0.336472
0.332431
0.341197
0.349631
0.355547
0.35993
0.36246
0.363705
0.363706
0.362617
0.36015
0.356232
0.350839
0.342797
0.333673
0.336619
0.384018
0.138002
0.137207
0.373407
0.334382
0.334611
0.343594
0.351273
0.356718
0.360504
0.362805
0.363902
0.36399
0.363004
0.360969
0.357683
0.35234
0.34457
0.335819
0.335302
0.374208
0.137764
0.137743
0.364735
0.333906
0.33643
0.34563
0.352678
0.357486
0.360493
0.363138
0.363876
0.363929
0.362969
0.361608
0.358718
0.354045
0.347235
0.338234
0.33463
0.365324
0.138373
0.140943
0.356921
0.333557
0.339457
0.348297
0.354659
0.358845
0.361868
0.36344
0.364719
0.364486
0.364094
0.362397
0.359704
0.355507
0.349155
0.340245
0.334437
0.35733
0.141662
0.145575
0.350489
0.334806
0.342296
0.350712
0.356301
0.359866
0.362099
0.363699
0.364864
0.364752
0.364324
0.362927
0.360651
0.35722
0.351672
0.343218
0.335104
0.350267
0.145556
0.150788
0.343815
0.336457
0.34576
0.35362
0.358408
0.36114
0.362853
0.36443
0.364854
0.36513
0.364281
0.363116
0.361536
0.35893
0.354042
0.346039
0.33654
0.343723
0.15108
0.158087
0.337832
0.338427
0.349144
0.356417
0.360463
0.362665
0.363627
0.364711
0.365146
0.365193
0.364931
0.364221
0.363011
0.36076
0.356723
0.349592
0.338969
0.337986
0.158287
0.16713
0.33426
0.342581
0.353775
0.359817
0.362711
0.364105
0.364709
0.364845
0.365025
0.365057
0.36492
0.364791
0.364217
0.362838
0.359813
0.353638
0.34242
0.334244
0.166872
0.178104
0.332816
0.347625
0.35849
0.363343
0.365227
0.365815
0.365875
0.365817
0.365633
0.365645
0.365839
0.365889
0.365802
0.365233
0.363405
0.358614
0.3478
0.332774
0.178382
0.191936
0.333327
0.354581
0.364085
0.367198
0.367855
0.367673
0.36728
0.366923
0.366745
0.366749
0.366926
0.36727
0.36764
0.367809
0.367139
0.363996
0.354474
0.33325
0.191505
0.207731
0.339664
0.363261
0.369941
0.370968
0.370353
0.369412
0.36859
0.368023
0.367738
0.36774
0.36803
0.368599
0.369416
0.370338
0.370969
0.370009
0.363434
0.33987
0.208023
0.226026
0.349258
0.37308
0.375864
0.374504
0.372569
0.370921
0.369716
0.368941
0.368562
0.368553
0.368916
0.369668
0.370859
0.372498
0.374444
0.375841
0.373113
0.349415
0.22596
0.246518
0.36506
0.384232
0.381552
0.377481
0.374261
0.372022
0.370564
0.369686
0.369275
0.369274
0.369684
0.370557
0.372013
0.374247
0.377476
0.381567
0.384278
0.364986
0.246386
0.268138
0.385339
0.395502
0.386162
0.379358
0.375269
0.372768
0.371245
0.370372
0.369975
0.369972
0.370365
0.371232
0.372749
0.375259
0.37936
0.386207
0.395606
0.385578
0.268351
0.291508
0.411232
0.405102
0.388438
0.380075
0.375704
0.373266
0.371863
0.371102
0.370771
0.370771
0.371102
0.37186
0.373254
0.375692
0.38006
0.388428
0.405107
0.411086
0.291238
0.314288
0.434926
0.409223
0.388905
0.380065
0.375773
0.373602
0.372488
0.37194
0.37172
0.371721
0.371944
0.372495
0.373601
0.375772
0.380053
0.388904
0.409229
0.434922
0.314512
0.337979
0.445005
0.406985
0.385669
0.378069
0.375042
0.373759
0.373192
0.372953
0.372869
0.37287
0.372959
0.373201
0.373768
0.375048
0.378072
0.385667
0.406983
0.444984
0.3379
0.364431
0.421638
0.38649
0.377505
0.375377
0.374623
0.374346
0.374271
0.374255
0.374252
0.374252
0.374254
0.374272
0.374346
0.374625
0.375378
0.377506
0.386489
0.421655
0.364459
0.563016
1.13342
0.960511
0.765586
0.612461
0.517047
0.463665
0.434915
0.42009
0.413373
0.412754
0.417841
0.431117
0.458363
0.510526
0.604134
0.751647
0.945251
1.11026
0.553729
0.556805
1.13194
0.958328
0.764285
0.609982
0.514404
0.463458
0.43537
0.420864
0.413665
0.41342
0.418418
0.431084
0.457488
0.507487
0.602098
0.748819
0.943176
1.1021
0.54801
0.562134
1.12961
0.956515
0.763686
0.60608
0.515091
0.463407
0.435103
0.420425
0.413662
0.413379
0.418157
0.430954
0.457348
0.5081
0.600762
0.746183
0.942383
1.10444
0.548283
0.560238
1.11979
0.944388
0.761525
0.608181
0.515922
0.463219
0.435237
0.420991
0.413817
0.413413
0.417931
0.430895
0.456913
0.508256
0.595554
0.742476
0.940685
1.10837
0.548052
0.555337
1.12613
0.951483
0.760618
0.612208
0.518008
0.463664
0.435638
0.420644
0.413853
0.413181
0.417956
0.431023
0.456663
0.507827
0.59929
0.734136
0.938715
1.1025
0.544715
0.56124
1.12571
0.949121
0.759728
0.609579
0.516939
0.463974
0.435937
0.421316
0.414515
0.413885
0.418092
0.430743
0.456327
0.505935
0.598536
0.739625
0.93077
1.11004
0.548372
0.560464
1.12348
0.937998
0.753462
0.616605
0.52002
0.464338
0.436448
0.42136
0.414184
0.413541
0.418416
0.430616
0.45648
0.505318
0.593969
0.743626
0.93548
1.10822
0.543755
0.558214
1.11923
0.950911
0.765353
0.617107
0.519819
0.464594
0.436666
0.421387
0.414608
0.413319
0.418112
0.430566
0.4565
0.507881
0.597467
0.735495
0.931731
1.10817
0.548118
0.554369
1.11785
0.944692
0.766431
0.616288
0.519337
0.46505
0.436985
0.421859
0.414169
0.412859
0.417891
0.430576
0.456791
0.505996
0.594073
0.738904
0.940034
1.1042
0.544484
0.560101
1.12476
0.958267
0.76547
0.614689
0.516817
0.465161
0.436949
0.421639
0.413775
0.412426
0.417614
0.430329
0.456712
0.509585
0.602208
0.741761
0.939174
1.09603
0.550806
0.560648
1.12816
0.955488
0.76303
0.613681
0.518935
0.465417
0.436439
0.421531
0.414226
0.412527
0.417211
0.430094
0.457139
0.508863
0.602093
0.748013
0.939328
1.10479
0.551626
0.556049
1.12844
0.952662
0.760572
0.607536
0.51814
0.465324
0.436125
0.420952
0.41369
0.412891
0.416759
0.429814
0.45681
0.508155
0.601654
0.746304
0.926874
1.11115
0.55206
0.560564
1.13023
0.941633
0.751181
0.607285
0.517538
0.464977
0.435904
0.421282
0.413895
0.412413
0.416622
0.429654
0.455656
0.505038
0.600388
0.744558
0.930744
1.11127
0.551715
0.562926
1.12861
0.945031
0.752894
0.606458
0.517045
0.464729
0.435609
0.420309
0.412977
0.411856
0.416514
0.429779
0.45595
0.505958
0.599114
0.743219
0.933915
1.1119
0.552183
0.560148
1.12601
0.948704
0.750564
0.605391
0.515025
0.464225
0.435342
0.420721
0.413134
0.412209
0.416564
0.429641
0.45621
0.506464
0.597167
0.733444
0.930732
1.10775
0.550646
0.561443
1.12389
0.942732
0.750381
0.606773
0.515457
0.464013
0.435024
0.419802
0.413366
0.411879
0.416581
0.429593
0.455613
0.504415
0.596049
0.737689
0.928197
1.10557
0.548895
0.55921
1.12313
0.94788
0.751924
0.605087
0.514378
0.463756
0.434942
0.419652
0.412688
0.412328
0.416998
0.429675
0.456325
0.506036
0.591872
0.742233
0.91931
1.1049
0.544677
0.556746
1.11572
0.941244
0.748041
0.598705
0.511576
0.462992
0.434885
0.419632
0.41255
0.411945
0.416712
0.429561
0.456039
0.504261
0.59442
0.743639
0.929321
1.10801
0.546636
0.553276
1.11627
0.931288
0.738446
0.596588
0.510843
0.462486
0.434939
0.420074
0.412598
0.411538
0.41703
0.429515
0.455915
0.505386
0.596832
0.741808
0.936577
1.10461
0.548646
0.551238
1.11665
0.932204
0.737746
0.593228
0.509331
0.461246
0.434205
0.419409
0.412602
0.411441
0.416495
0.429152
0.455551
0.506449
0.595831
0.739308
0.93638
1.11226
0.546317
0.550974
1.11573
0.934926
0.73005
0.589898
0.508432
0.460261
0.433534
0.419169
0.413287
0.411571
0.416044
0.42893
0.45497
0.505702
0.593452
0.730321
0.926414
1.1107
0.551959
0.548851
1.1081
0.933018
0.73171
0.589098
0.507675
0.459837
0.432797
0.418536
0.412933
0.412034
0.416096
0.428686
0.454957
0.505102
0.58968
0.73451
0.930741
1.1109
0.551369
0.545052
1.11146
0.923209
0.731544
0.587846
0.506945
0.459628
0.432652
0.418376
0.412443
0.411512
0.416124
0.428259
0.454215
0.504958
0.594056
0.73899
0.936995
1.10614
0.550393
0.547418
1.11115
0.927338
0.726468
0.587255
0.506124
0.459638
0.432644
0.418305
0.41278
0.411902
0.415699
0.428103
0.454266
0.504077
0.593261
0.737616
0.937358
1.113
0.546244
0.550144
1.11284
0.92162
0.733672
0.588206
0.505296
0.458225
0.432372
0.418309
0.412873
0.411598
0.415324
0.427916
0.453507
0.501612
0.589104
0.734375
0.934885
1.1136
0.547892
0.54663
1.10854
0.932083
0.732427
0.589663
0.504765
0.457504
0.431294
0.418507
0.412329
0.411105
0.415218
0.427887
0.453565
0.502835
0.589646
0.727892
0.928193
1.11053
0.547548
0.552976
1.11558
0.929767
0.72656
0.5845
0.503589
0.457281
0.431068
0.417717
0.411585
0.410729
0.415073
0.427775
0.453014
0.500947
0.591237
0.735297
0.930964
1.11079
0.544055
0.551877
1.11551
0.927862
0.732269
0.587566
0.50299
0.456756
0.431127
0.418172
0.41082
0.409914
0.414998
0.427835
0.452953
0.501676
0.589958
0.732139
0.928252
1.10969
0.547182
0.550393
1.11279
0.915949
0.723198
0.588249
0.502324
0.456133
0.429743
0.417001
0.411052
0.409884
0.414861
0.427902
0.452564
0.500891
0.585091
0.729275
0.920619
1.10837
0.54279
0.548633
1.11269
0.919278
0.724856
0.587066
0.501673
0.455417
0.429394
0.415933
0.410292
0.409737
0.414656
0.427066
0.452262
0.500403
0.587347
0.72181
0.92761
1.10295
0.545251
0.543598
1.11069
0.921347
0.723989
0.585916
0.501308
0.4555
0.429289
0.415798
0.410873
0.409787
0.414566
0.426837
0.451882
0.499748
0.586913
0.725174
0.928478
1.11041
0.542899
0.546856
1.10718
0.918558
0.720947
0.581741
0.500486
0.454456
0.429638
0.415683
0.410021
0.409641
0.414455
0.426575
0.451572
0.49907
0.585919
0.72877
0.927266
1.11085
0.548199
0.54086
1.09867
0.913821
0.714318
0.581052
0.4998
0.453697
0.42848
0.415584
0.410168
0.409792
0.414528
0.426453
0.451315
0.498509
0.584625
0.727293
0.926749
1.11015
0.544635
0.540625
1.09781
0.910873
0.712795
0.579321
0.499262
0.453833
0.428946
0.415848
0.41023
0.410424
0.415009
0.42632
0.451053
0.497648
0.582406
0.723978
0.923775
1.11086
0.550166
0.537919
1.09566
0.900176
0.709906
0.577983
0.49855
0.453083
0.428432
0.41663
0.410871
0.409603
0.413991
0.426066
0.450686
0.496978
0.581109
0.721964
0.920777
1.10964
0.54956
0.540462
1.09448
0.897993
0.707788
0.576595
0.497909
0.453145
0.428781
0.416356
0.410366
0.409893
0.414116
0.426105
0.45045
0.495352
0.579308
0.714192
0.91609
1.10768
0.548424
0.538832
1.09128
0.891163
0.705768
0.574479
0.496832
0.452552
0.428196
0.415978
0.410512
0.41045
0.414279
0.426145
0.450125
0.495061
0.578119
0.717118
0.907868
1.10705
0.547918
0.535204
1.09031
0.889348
0.70033
0.573307
0.496304
0.452193
0.428365
0.416731
0.411293
0.410293
0.414699
0.426607
0.450275
0.494368
0.576492
0.714943
0.908215
1.10808
0.546601
0.534553
1.08727
0.887448
0.700065
0.571932
0.495849
0.452307
0.428894
0.415831
0.410649
0.409654
0.413867
0.426107
0.449733
0.493652
0.574928
0.711558
0.904793
1.10552
0.54123
0.53372
1.08574
0.887971
0.7
0.571159
0.495136
0.451754
0.428499
0.415759
0.411531
0.409809
0.413751
0.425915
0.449807
0.492837
0.573081
0.709165
0.902857
1.10409
0.543664
0.53356
1.07821
0.889681
0.696503
0.568918
0.494616
0.452079
0.428136
0.415669
0.410878
0.410422
0.413849
0.425658
0.449209
0.492173
0.571302
0.705295
0.903112
1.09742
0.541689
0.532793
1.07985
0.887505
0.694637
0.567728
0.493919
0.451466
0.428241
0.415735
0.410243
0.409942
0.414058
0.425358
0.448453
0.491064
0.567898
0.702048
0.900827
1.09611
0.539252
0.530952
1.07924
0.878845
0.69156
0.566518
0.493624
0.451909
0.428597
0.415979
0.410866
0.409524
0.413311
0.424711
0.447257
0.48999
0.565408
0.694249
0.891871
1.09313
0.537307
0.531169
1.08098
0.878358
0.692354
0.565679
0.492947
0.450986
0.429365
0.416173
0.410378
0.410017
0.413278
0.424003
0.446156
0.489019
0.563897
0.692494
0.889287
1.09295
0.535841
0.530071
1.07962
0.874633
0.689915
0.56447
0.49252
0.450696
0.428784
0.416774
0.41052
0.409515
0.413383
0.4241
0.445936
0.487816
0.561793
0.688983
0.886269
1.09029
0.530438
0.525082
1.0759
0.870082
0.683645
0.56274
0.492015
0.45096
0.428357
0.416454
0.411239
0.410365
0.413598
0.424271
0.445926
0.48659
0.559965
0.684235
0.87727
1.08296
0.529101
0.523191
1.07298
0.866303
0.680316
0.561038
0.491201
0.450293
0.429086
0.416671
0.410876
0.410195
0.414096
0.424536
0.445791
0.485732
0.55823
0.681227
0.873763
1.08098
0.526765
0.520316
1.06773
0.858692
0.676933
0.559675
0.490405
0.450172
0.428715
0.417462
0.41108
0.409952
0.413602
0.424221
0.445333
0.484944
0.556247
0.677667
0.869506
1.07794
0.522124
0.518308
1.06131
0.855513
0.674475
0.558029
0.489333
0.450646
0.429396
0.417431
0.411336
0.410154
0.413646
0.423866
0.444699
0.484326
0.553894
0.67347
0.863254
1.07335
0.520945
0.515512
1.05785
0.851351
0.671797
0.556352
0.487894
0.449812
0.428633
0.417188
0.411581
0.410902
0.414286
0.42346
0.44327
0.481663
0.550905
0.668814
0.857358
1.07
0.517646
0.513426
1.05495
0.847998
0.669449
0.555232
0.486933
0.450618
0.429562
0.418031
0.412258
0.410638
0.413821
0.422758
0.442056
0.480084
0.548129
0.66444
0.849395
1.06429
0.515448
0.511807
1.05574
0.844321
0.667473
0.554703
0.486774
0.449096
0.428797
0.417379
0.411904
0.410759
0.4144
0.422429
0.441687
0.478499
0.544805
0.660045
0.84262
1.0593
0.512404
0.510698
1.05898
0.840738
0.664852
0.553091
0.485978
0.447519
0.428185
0.41756
0.412157
0.410956
0.413673
0.422448
0.440636
0.476537
0.541193
0.654783
0.835721
1.05573
0.510161
0.509541
1.05838
0.837936
0.662389
0.551571
0.485485
0.447167
0.428378
0.418542
0.413089
0.411858
0.413804
0.421129
0.439121
0.47395
0.537561
0.649526
0.828014
1.05282
0.507309
0.50868
1.05608
0.833666
0.659301
0.549491
0.484198
0.446603
0.429145
0.418757
0.413122
0.41162
0.414403
0.420696
0.437358
0.471805
0.535202
0.644483
0.821098
1.04712
0.502985
0.506941
1.05271
0.829828
0.656534
0.547331
0.482662
0.446035
0.428662
0.41912
0.413375
0.411436
0.413733
0.420425
0.436977
0.472297
0.532947
0.638575
0.813199
1.04049
0.498328
0.505097
1.04289
0.824991
0.652658
0.544363
0.480317
0.4454
0.429334
0.419121
0.413607
0.411257
0.413186
0.420324
0.436393
0.468545
0.52871
0.63249
0.806661
1.03312
0.492528
0.50352
1.04095
0.821374
0.649345
0.541583
0.477716
0.444844
0.428708
0.418956
0.414028
0.411866
0.412586
0.418357
0.433353
0.465089
0.523284
0.626399
0.799578
1.02845
0.487875
0.500837
1.03529
0.815783
0.644906
0.538096
0.474776
0.44459
0.427672
0.419751
0.414399
0.411991
0.412159
0.417483
0.432165
0.463181
0.519415
0.62032
0.791646
1.01872
0.481912
0.498491
1.03012
0.811804
0.640727
0.533858
0.471
0.441565
0.426882
0.419774
0.414705
0.41235
0.412438
0.417493
0.432294
0.460454
0.514616
0.613876
0.782913
1.0103
0.476783
0.494241
1.02258
0.805074
0.635972
0.530329
0.469615
0.441109
0.42686
0.420008
0.415071
0.412706
0.412984
0.417479
0.430271
0.456534
0.509719
0.607548
0.775027
1.0014
0.472336
0.489069
1.01438
0.798511
0.63099
0.525907
0.468232
0.440685
0.426901
0.420046
0.415391
0.413023
0.412807
0.416088
0.427421
0.452074
0.504651
0.600238
0.766132
0.994078
0.467144
0.485402
1.00946
0.792477
0.626083
0.524077
0.467723
0.440786
0.427141
0.419847
0.415753
0.41344
0.413311
0.415602
0.424577
0.445013
0.4975
0.591372
0.757508
0.98993
0.46353
0.480346
1.00072
0.784672
0.620241
0.519143
0.467243
0.441006
0.427492
0.421067
0.416309
0.413807
0.413166
0.414564
0.422124
0.439287
0.490563
0.582747
0.747783
0.984418
0.459408
0.477582
0.99578
0.778581
0.614697
0.518629
0.467678
0.44202
0.427886
0.421277
0.416712
0.414224
0.413067
0.414683
0.423465
0.437253
0.483003
0.573331
0.737689
0.978687
0.455988
0.472714
0.98938
0.769851
0.609532
0.516197
0.465224
0.441159
0.428614
0.421662
0.417187
0.414721
0.413909