/*--------------------------------*- C++ -*----------------------------------*\
  =========                 |
  \\      /  F ield         | OpenFOAM: The Open Source CFD Toolbox
   \\    /   O peration     | Website:  https://openfoam.org
    \\  /    A nd           | Version:  6
     \\/     M anipulation  |
\*---------------------------------------------------------------------------*/
FoamFile
{
    version     2.0;
    format      ascii;
    class       volScalarField;
    location    "19";
    object      nut;
}
// * * * * * * * * * * * * * * * * * * * * * * * * * * * * * * * * * * * * * //

dimensions      [0 2 -1 0 0 0 0];

internalField   nonuniform List<scalar> 
10000
(
1.44425e-05
6.93726e-05
9.01155e-05
0.000111526
0.000139309
0.000174393
0.000212884
0.000249369
0.000277427
0.000292951
0.000293878
0.000279759
0.000252741
0.000217144
0.000179098
0.000143572
0.000114864
9.20281e-05
7.01565e-05
1.44594e-05
1.43578e-05
6.9209e-05
9.02243e-05
0.000112466
0.000140937
0.000175747
0.000213802
0.000250472
0.000278654
0.000294748
0.000296267
0.000282369
0.000256868
0.000219595
0.000180692
0.000144129
0.000115158
9.17247e-05
7.02457e-05
1.44932e-05
1.45419e-05
6.98024e-05
9.06102e-05
0.000110904
0.000139844
0.000174324
0.000214695
0.000252264
0.000280314
0.000295538
0.000297791
0.000283214
0.000254523
0.000218564
0.00018229
0.000146187
0.000115486
9.25054e-05
6.98989e-05
1.44375e-05
1.44922e-05
6.98858e-05
9.0582e-05
0.000111535
0.000138737
0.000174746
0.00021365
0.00025118
0.000281602
0.000297781
0.00029399
0.000279472
0.000253422
0.000219022
0.000180273
0.00014402
0.000115735
9.28414e-05
7.01601e-05
1.44717e-05
1.45334e-05
6.99569e-05
9.00842e-05
0.00011203
0.00013841
0.000174448
0.00021582
0.000250462
0.000278071
0.000295651
0.000293499
0.000279681
0.000254844
0.000219122
0.000179283
0.000144043
0.000116471
9.25478e-05
7.0529e-05
1.4406e-05
1.45778e-05
7.02147e-05
9.09703e-05
0.000110891
0.000138351
0.000174176
0.000214274
0.000249575
0.000279079
0.000294592
0.000293377
0.00028003
0.00025526
0.000218571
0.000180815
0.000145166
0.00011499
9.16281e-05
7.01609e-05
1.43939e-05
1.44967e-05
6.98372e-05
9.00806e-05
0.000110489
0.000138426
0.000175809
0.00021486
0.000249449
0.00027743
0.000292247
0.000293997
0.000280704
0.000254925
0.000220836
0.000179929
0.000144738
0.000113946
9.11306e-05
6.99951e-05
1.43278e-05
1.45151e-05
6.93834e-05
8.94324e-05
0.000110265
0.000138982
0.000175364
0.000216281
0.000251849
0.000277909
0.000293316
0.000296808
0.000283276
0.000256113
0.000219438
0.00018089
0.000145092
0.000115144
9.18098e-05
6.98086e-05
1.43021e-05
1.4437e-05
6.93625e-05
8.96002e-05
0.00010948
0.000140012
0.000176533
0.000214775
0.000250909
0.000278266
0.00029566
0.000295627
0.000281635
0.000255465
0.000218564
0.000178696
0.000144136
0.000114439
9.1488e-05
6.9926e-05
1.4315e-05
1.4374e-05
6.94254e-05
8.9707e-05
0.000110141
0.000138293
0.000174442
0.000214634
0.000250105
0.000277825
0.000294287
0.000294141
0.000279824
0.000255346
0.000216876
0.000178799
0.00014582
0.00011393
9.117e-05
6.97291e-05
1.43714e-05
1.44712e-05
6.96199e-05
8.92302e-05
0.000110871
0.000139853
0.000176515
0.000215106
0.000253038
0.000280001
0.000292535
0.000293799
0.000280222
0.000254445
0.000217109
0.000178847
0.000144026
0.000114964
9.13013e-05
6.98138e-05
1.44776e-05
1.43867e-05
6.92605e-05
8.9638e-05
0.00011184
0.000138213
0.000174157
0.000213674
0.000250656
0.000277856
0.000292474
0.000293049
0.00028008
0.000253637
0.00021843
0.000179282
0.000142714
0.00011317
9.13152e-05
6.98113e-05
1.451e-05
1.44149e-05
6.9385e-05
8.93392e-05
0.00011005
0.000138104
0.000174628
0.000214652
0.00025479
0.000282444
0.000296827
0.000296477
0.000282387
0.000254493
0.000219349
0.00018105
0.00014483
0.000114806
9.14615e-05
7.03334e-05
1.4564e-05
1.43601e-05
6.93995e-05
8.96156e-05
0.000109603
0.000138273
0.000175766
0.000215924
0.000252938
0.000280359
0.000296124
0.000295067
0.000282137
0.000255861
0.000220349
0.000180975
0.000144829
0.000116072
9.31963e-05
7.04901e-05
1.45197e-05
1.42953e-05
6.92829e-05
9.01965e-05
0.000110363
0.000138325
0.000177013
0.000216084
0.000250966
0.00027802
0.000295063
0.000294273
0.000279863
0.000254355
0.00021941
0.000181215
0.000145105
0.000115919
9.2439e-05
7.06891e-05
1.45039e-05
1.43675e-05
6.9098e-05
9.08682e-05
0.000109931
0.000138301
0.000175044
0.000214096
0.000249795
0.000277797
0.000294371
0.000297775
0.000280667
0.000254558
0.000219809
0.00018086
0.000144429
0.000115188
9.27557e-05
7.03494e-05
1.45259e-05
1.44505e-05
6.92613e-05
9.01746e-05
0.00011046
0.000138306
0.000175829
0.000217534
0.000250919
0.000278266
0.000294102
0.000297214
0.000283203
0.000255614
0.000220282
0.000178871
0.000142928
0.000115295
9.16366e-05
7.01519e-05
1.44691e-05
1.43857e-05
6.91975e-05
9.04535e-05
0.000110449
0.000139328
0.000176932
0.000216736
0.000251441
0.000279756
0.000294523
0.000296858
0.000283093
0.000254756
0.000218421
0.000180088
0.000142917
0.000114188
9.11823e-05
7.0296e-05
1.44298e-05
1.4515e-05
6.99184e-05
9.0628e-05
0.000112223
0.000140596
0.000176998
0.000216516
0.000254519
0.000282275
0.000297317
0.000294668
0.000279895
0.000254148
0.000217149
0.000177609
0.000144061
0.000113868
9.17461e-05
7.00601e-05
1.45724e-05
1.45081e-05
7.006e-05
9.12904e-05
0.000114708
0.00014336
0.000179615
0.000216963
0.000252293
0.00027931
0.000293793
0.000293909
0.00027872
0.000252591
0.000215903
0.000177474
0.000142443
0.000113979
9.19506e-05
7.06119e-05
1.45623e-05
1.45511e-05
7.01743e-05
9.12812e-05
0.000114282
0.000142024
0.000178803
0.000217618
0.000254412
0.000282015
0.000297271
0.000297155
0.000279021
0.000251374
0.000216082
0.000178004
0.000142681
0.000114562
9.17052e-05
7.0374e-05
1.45663e-05
1.45097e-05
7.01002e-05
9.07555e-05
0.000113895
0.000141575
0.000178201
0.000218235
0.000252663
0.000279213
0.000293743
0.000295583
0.000279541
0.000253455
0.000219585
0.000181154
0.000145292
0.000116139
9.25869e-05
7.04181e-05
1.45242e-05
1.45489e-05
6.9993e-05
9.13989e-05
0.000112702
0.000142455
0.000176024
0.00021619
0.000254185
0.000282154
0.000294014
0.00029571
0.000281867
0.000253586
0.000218262
0.000180357
0.000144742
0.000115485
9.21852e-05
7.03228e-05
1.45684e-05
1.44893e-05
6.99096e-05
9.1775e-05
0.000114204
0.000140174
0.000175625
0.00021516
0.000253969
0.000278899
0.000293896
0.000293892
0.000280896
0.000253974
0.00021912
0.000181473
0.000145145
0.000115828
9.17225e-05
7.02155e-05
1.45152e-05
1.45379e-05
6.98648e-05
9.18976e-05
0.000113125
0.000140886
0.00017642
0.000217171
0.000250804
0.000277801
0.000293093
0.000294381
0.000280861
0.000254084
0.000220394
0.00018121
0.00014536
0.000115744
9.2683e-05
7.02058e-05
1.45066e-05
1.4465e-05
7.00676e-05
9.25868e-05
0.000113722
0.000142851
0.000178357
0.000215089
0.000250939
0.000278467
0.000294039
0.000296448
0.000283115
0.000257128
0.000219699
0.000180914
0.000144726
0.000115757
9.24183e-05
7.01594e-05
1.44366e-05
1.45359e-05
7.0137e-05
9.18076e-05
0.000112679
0.000140798
0.000176049
0.000214946
0.000252129
0.000279108
0.000294442
0.000298098
0.000280956
0.000253957
0.000217042
0.000178876
0.000143653
0.000114458
9.26103e-05
7.00464e-05
1.44927e-05
1.45226e-05
7.02709e-05
9.05366e-05
0.000113151
0.000141003
0.000177131
0.000216808
0.000253878
0.000282918
0.000295816
0.000296923
0.00028201
0.000252471
0.000216959
0.000178947
0.000143853
0.000115071
9.23921e-05
7.03291e-05
1.45026e-05
1.4478e-05
7.00904e-05
9.08351e-05
0.000113901
0.000141443
0.000177211
0.000216101
0.000253039
0.00028101
0.00029614
0.000294932
0.000279109
0.000253283
0.000217517
0.000179438
0.000144191
0.000114717
9.25549e-05
7.02436e-05
1.45257e-05
1.45184e-05
7.00752e-05
9.09241e-05
0.000114579
0.000141686
0.000177207
0.000217261
0.000253526
0.000279601
0.000292844
0.000293342
0.000280937
0.000252572
0.000218559
0.000181111
0.000145704
0.000115836
9.22396e-05
7.00648e-05
1.44924e-05
1.4539e-05
7.01334e-05
9.13549e-05
0.000113974
0.000142792
0.000179068
0.000216662
0.000250921
0.000279213
0.000293487
0.000292915
0.000279383
0.000252874
0.000216648
0.000178185
0.000142617
0.000113821
9.26234e-05
7.03856e-05
1.44861e-05
1.44948e-05
7.01615e-05
9.13705e-05
0.00011294
0.000141001
0.000178078
0.000216444
0.000251394
0.000278131
0.000294292
0.000295366
0.000278945
0.000252018
0.000218354
0.000178945
0.000142575
0.000113533
9.11403e-05
7.01695e-05
1.44269e-05
1.44043e-05
7.01818e-05
9.1602e-05
0.000112521
0.000141028
0.000177351
0.000217479
0.000254301
0.000280406
0.000292974
0.000294024
0.000280275
0.000252637
0.000218634
0.000177973
0.000142349
0.000113319
9.18299e-05
7.03524e-05
1.44368e-05
1.4502e-05
7.00513e-05
9.14349e-05
0.000112942
0.000141255
0.000176766
0.000217231
0.000254251
0.0002789
0.000293484
0.000295793
0.000278344
0.000251526
0.000218675
0.000178474
0.000143136
0.000113364
9.10829e-05
6.97322e-05
1.43408e-05
1.44756e-05
6.98284e-05
9.08497e-05
0.00011291
0.000141418
0.000176971
0.000216968
0.00025263
0.000279587
0.000294512
0.000295261
0.000279295
0.0002529
0.000217455
0.00017893
0.000143363
0.000113976
9.17758e-05
6.9806e-05
1.43707e-05
1.44865e-05
6.97901e-05
9.07504e-05
0.000113587
0.000142953
0.000177629
0.000215372
0.000252114
0.000279792
0.00029685
0.000294316
0.000277993
0.000251128
0.000217839
0.000177758
0.000141886
0.000112558
9.08367e-05
6.98943e-05
1.42874e-05
1.44331e-05
6.97721e-05
9.07552e-05
0.00011229
0.000141243
0.000176823
0.000215629
0.000252219
0.000279863
0.000296386
0.000294069
0.000279366
0.000251296
0.000215467
0.000177286
0.000142237
0.00011402
9.09013e-05
6.9621e-05
1.42523e-05
1.44068e-05
6.95633e-05
9.07158e-05
0.000112233
0.000141254
0.000178257
0.000217132
0.000254465
0.000280916
0.000296554
0.000294474
0.000279872
0.000253153
0.000216294
0.000178061
0.000143694
0.000113171
9.03013e-05
6.91797e-05
1.42163e-05
1.4349e-05
6.99185e-05
9.13782e-05
0.000112532
0.000141374
0.000176407
0.000215249
0.0002521
0.000282918
0.000295169
0.000294136
0.000282386
0.000254247
0.000217852
0.000178572
0.000142701
0.000113644
9.02148e-05
6.9199e-05
1.41958e-05
1.43511e-05
6.9695e-05
9.06927e-05
0.000112447
0.000141656
0.000176977
0.000216959
0.000253349
0.000282218
0.000297162
0.000293952
0.000278469
0.000251824
0.000216587
0.000179351
0.000143439
0.000112545
9.07114e-05
6.91659e-05
1.42248e-05
1.43028e-05
6.97481e-05
9.01983e-05
0.000112668
0.000143437
0.000178832
0.000216525
0.000252742
0.000280155
0.000295078
0.000294049
0.000279071
0.000253787
0.000218254
0.000180621
0.000143402
0.00011319
9.00988e-05
6.93622e-05
1.42084e-05
1.42433e-05
6.94086e-05
9.00774e-05
0.000112613
0.000143112
0.000178226
0.000217844
0.000254509
0.00028084
0.000295903
0.000295162
0.00027934
0.000252231
0.000216987
0.000178711
0.000142011
0.000112282
9.0524e-05
6.95244e-05
1.42218e-05
1.4188e-05
6.91615e-05
9.04502e-05
0.000112543
0.000143244
0.000177642
0.000216956
0.000252743
0.000283746
0.000300686
0.000299004
0.000279953
0.00025252
0.000217692
0.00018034
0.00014375
0.000112185
8.96841e-05
6.9004e-05
1.42344e-05
1.41676e-05
6.92725e-05
9.02436e-05
0.000112679
0.000143441
0.000178058
0.000216461
0.00025219
0.000280738
0.0002969
0.000296211
0.000279847
0.000253017
0.000218413
0.000180146
0.000143684
0.000113102
9.03318e-05
6.90085e-05
1.42057e-05
1.4172e-05
6.90677e-05
9.01892e-05
0.000113806
0.00014387
0.000179924
0.000219201
0.000254445
0.000282456
0.000295648
0.000295428
0.000280875
0.000253638
0.000221531
0.000181246
0.000143685
0.000112058
8.97591e-05
6.88701e-05
1.4118e-05
1.41815e-05
6.93481e-05
9.02313e-05
0.000113622
0.00014414
0.000180104
0.000219836
0.00025439
0.000281545
0.0002962
0.000297024
0.000283424
0.000254015
0.000219751
0.000179464
0.000143706
0.000112103
8.93884e-05
6.88484e-05
1.41298e-05
1.41223e-05
6.90901e-05
9.03733e-05
0.000113646
0.000144022
0.000180751
0.000219351
0.000255232
0.000282716
0.000299576
0.00029714
0.000282649
0.00025517
0.000219438
0.000180043
0.000143853
0.000113087
9.00184e-05
6.8626e-05
1.40646e-05
1.41297e-05
6.92629e-05
9.01023e-05
0.000113193
0.000143419
0.000180076
0.000219675
0.000256637
0.000285656
0.000298151
0.000297836
0.000283247
0.000255376
0.000219197
0.000179773
0.000143176
0.000112438
8.9507e-05
6.88327e-05
1.40856e-05
1.40615e-05
6.89538e-05
9.00509e-05
0.00011332
0.00014374
0.0001819
0.000223616
0.000260039
0.000286927
0.000300359
0.000299656
0.000285373
0.000258722
0.000221876
0.000180734
0.000143499
0.000112672
9.00961e-05
6.86151e-05
1.40404e-05
1.40124e-05
6.86207e-05
8.99446e-05
0.000114639
0.000145448
0.000182704
0.000222929
0.000259045
0.000287711
0.000301763
0.000303602
0.000288823
0.000259225
0.000223062
0.000183243
0.000145347
0.000113765
8.94523e-05
6.84987e-05
1.40136e-05
1.39707e-05
6.85252e-05
8.97274e-05
0.000113816
0.000145518
0.000183723
0.000225398
0.00026077
0.000290105
0.000305617
0.000303048
0.000288086
0.00025991
0.000223331
0.000182992
0.000144803
0.000113313
8.94282e-05
6.86543e-05
1.40086e-05
1.39463e-05
6.8472e-05
8.9782e-05
0.000114683
0.000146908
0.000186486
0.000226902
0.000263293
0.000290556
0.000306867
0.000307371
0.000292873
0.000264351
0.000226616
0.000183411
0.000145771
0.000113566
8.94469e-05
6.84345e-05
1.40203e-05
1.3906e-05
6.83223e-05
8.97044e-05
0.000114271
0.000146939
0.000186935
0.000229034
0.00026738
0.000294728
0.000309988
0.000309424
0.000294171
0.000265569
0.000227529
0.000185403
0.000146354
0.000113814
8.94589e-05
6.85021e-05
1.39533e-05
1.38961e-05
6.83787e-05
8.97902e-05
0.000114867
0.000148212
0.000188278
0.000230337
0.000267147
0.000295329
0.000311005
0.000311225
0.000296576
0.000267675
0.00022925
0.000187057
0.000148013
0.000114156
8.98905e-05
6.8646e-05
1.39612e-05
1.38657e-05
6.83674e-05
9.00365e-05
0.000115619
0.00014914
0.000190909
0.000233605
0.000270896
0.000296698
0.000311487
0.000311771
0.000298298
0.000268802
0.000230265
0.000187764
0.00014824
0.000115168
8.99456e-05
6.83873e-05
1.39076e-05
1.38337e-05
6.85938e-05
9.00726e-05
0.000115837
0.000149843
0.000191983
0.00023584
0.000272576
0.000299053
0.000314244
0.000317275
0.00030317
0.00027368
0.000232512
0.000189149
0.00014965
0.000115417
8.98677e-05
6.8237e-05
1.38603e-05
1.37908e-05
6.8411e-05
9.0054e-05
0.000116307
0.00015071
0.000194668
0.000238719
0.000277371
0.000305432
0.00031984
0.000319745
0.000305171
0.000275946
0.000235965
0.000191529
0.000150097
0.000115983
9.00504e-05
6.8489e-05
1.385e-05
1.37663e-05
6.82955e-05
8.96819e-05
0.000116673
0.000151973
0.00019599
0.000240746
0.000279608
0.000307903
0.00032274
0.000322902
0.000308557
0.000279197
0.000237878
0.000192538
0.000150851
0.000116565
9e-05
6.83607e-05
1.38119e-05
1.37268e-05
6.83356e-05
9.01133e-05
0.000117188
0.000152283
0.000197534
0.000243246
0.000282605
0.000311817
0.000327453
0.000328011
0.000312536
0.000282158
0.000240925
0.000194171
0.000152262
0.000116951
8.98606e-05
6.81789e-05
1.37735e-05
1.36973e-05
6.8299e-05
9.03226e-05
0.000117689
0.000153394
0.000199298
0.000245501
0.000286198
0.000316069
0.000331766
0.0003324
0.000316111
0.000285323
0.000243016
0.000196625
0.000153185
0.000117471
8.99404e-05
6.81036e-05
1.37259e-05
1.36641e-05
6.84551e-05
9.03879e-05
0.000118229
0.000154466
0.000200736
0.000247834
0.000289169
0.000319881
0.000335944
0.000335944
0.000319395
0.000287789
0.000244849
0.000197811
0.000154082
0.000117893
9.03675e-05
6.8341e-05
1.36986e-05
1.36275e-05
6.84801e-05
9.07385e-05
0.000118979
0.000155995
0.000201733
0.000250485
0.000292375
0.000322963
0.00033905
0.000339108
0.000322283
0.000290731
0.000247457
0.000199215
0.000154603
0.000118212
9.02749e-05
6.82372e-05
1.36402e-05
1.35778e-05
6.84581e-05
9.09209e-05
0.000119709
0.00015804
0.000202585
0.000252362
0.000294897
0.000326127
0.000342655
0.00034247
0.000325529
0.000293662
0.000250094
0.00020045
0.000155448
0.000118704
9.05353e-05
6.83068e-05
1.36032e-05
1.3541e-05
6.85706e-05
9.09624e-05
0.000119944
0.000158433
0.000204566
0.000254292
0.000297645
0.000329412
0.000346254
0.000346129
0.000329178
0.000296822
0.000252465
0.000202805
0.000156321
0.000119166
9.04881e-05
6.82242e-05
1.35369e-05
1.34746e-05
6.84482e-05
9.10851e-05
0.000120432
0.000159081
0.000203478
0.000255087
0.000300295
0.000332845
0.000350079
0.000350099
0.000332909
0.000300013
0.000254757
0.000203192
0.000156787
0.000119541
9.04783e-05
6.82188e-05
1.34763e-05
1.3415e-05
6.83249e-05
9.07055e-05
0.000120138
0.000159296
0.000204194
0.000255025
0.000302704
0.000336407
0.000354176
0.000354292
0.000336723
0.00030333
0.000257436
0.00020505
0.000158305
0.000119887
9.0257e-05
6.79069e-05
1.33828e-05
1.33572e-05
6.82227e-05
9.06389e-05
0.000120251
0.000159654
0.00020539
0.000259046
0.00030633
0.000340523
0.00035848
0.00035849
0.000340569
0.000306498
0.000260117
0.000207767
0.000160789
0.000120081
9.01451e-05
6.79108e-05
1.33308e-05
1.32702e-05
6.80561e-05
9.0292e-05
0.000119715
0.00015957
0.000206112
0.000258643
0.000308666
0.000344113
0.000362705
0.000362789
0.000344407
0.000309427
0.000261407
0.000207569
0.000160907
0.000120128
8.99922e-05
6.77574e-05
1.32444e-05
1.31649e-05
6.78341e-05
8.99561e-05
0.00011924
0.000159218
0.000207951
0.000261562
0.000311775
0.000348461
0.000367419
0.000367414
0.000348512
0.000312489
0.000262163
0.000209156
0.000161511
0.000119913
8.96691e-05
6.76642e-05
1.31619e-05
1.30481e-05
6.75806e-05
8.95633e-05
0.000118354
0.000159303
0.000210005
0.000266473
0.000316925
0.000353219
0.000372299
0.000372169
0.000352793
0.000316216
0.000266633
0.000211444
0.00016184
0.00011951
8.92585e-05
6.73786e-05
1.30392e-05
1.29025e-05
6.72413e-05
8.92168e-05
0.000118132
0.000160119
0.000213365
0.000267115
0.000320205
0.000357843
0.000377442
0.000377258
0.000357359
0.000319591
0.000267477
0.000214576
0.000161912
0.00011906
8.89345e-05
6.72818e-05
1.2941e-05
1.27432e-05
6.68534e-05
8.8928e-05
0.000119788
0.000162727
0.000214808
0.000270227
0.000324656
0.000363033
0.000383057
0.00038295
0.000362762
0.000324346
0.000270871
0.000215551
0.00016183
0.000118926
8.87356e-05
6.70883e-05
1.27806e-05
1.25397e-05
6.64444e-05
8.84153e-05
0.000121958
0.00016718
0.000219416
0.00027336
0.000327527
0.000367511
0.000388503
0.000388735
0.000368437
0.000329542
0.000275114
0.00021753
0.000163175
0.000120031
8.86645e-05
6.68394e-05
1.25771e-05
1.2297e-05
6.59257e-05
8.80051e-05
0.000122086
0.000167356
0.000219463
0.00027635
0.000328429
0.000370983
0.000393747
0.000394573
0.000374501
0.000335922
0.000283011
0.000224254
0.000167544
0.000122296
8.86079e-05
6.64694e-05
1.23296e-05
1.20141e-05
6.53627e-05
8.75008e-05
0.000122882
0.000171083
0.000223358
0.00028294
0.000333791
0.000373253
0.000398044
0.000399309
0.000379168
0.000340062
0.000285704
0.000226891
0.000169439
0.000123289
8.83297e-05
6.60628e-05
1.20238e-05
1.16889e-05
6.47132e-05
8.70288e-05
0.00012347
0.000172418
0.00022741
0.000285866
0.000342134
0.000379701
0.00040163
0.00040255
0.000382524
0.000343407
0.000290196
0.000230081
0.000174171
0.000124671
8.81853e-05
6.5506e-05
1.16652e-05
1.13313e-05
6.41089e-05
8.67633e-05
0.000124862
0.000175829
0.000235075
0.000292867
0.000346308
0.000387096
0.000412132
0.000411226
0.000393542
0.000354492
0.000300224
0.000235946
0.000176557
0.000126479
8.81666e-05
6.50346e-05
1.12825e-05
1.0929e-05
6.34085e-05
8.66168e-05
0.000126628
0.000179067
0.000240025
0.000304038
0.000356461
0.000396589
0.00041874
0.000419509
0.000398941
0.000359157
0.000304893
0.000242526
0.000180401
0.000128806
8.81955e-05
6.43115e-05
1.08468e-05
1.05541e-05
6.28264e-05
8.70073e-05
0.0001297
0.000184883
0.000251059
0.000314744
0.000368044
0.00040869
0.000431427
0.000432182
0.000411148
0.000370758
0.000315687
0.000252101
0.000187634
0.000132137
8.86241e-05
6.37365e-05
1.04708e-05
1.02022e-05
6.24854e-05
8.8005e-05
0.000133908
0.000194758
0.000263398
0.000329004
0.000386183
0.000427427
0.000447266
0.000447082
0.000425405
0.000384246
0.000328116
0.000263012
0.000197486
0.000136249
8.94681e-05
6.31707e-05
1.01123e-05
9.89618e-06
6.24071e-05
8.98637e-05
0.000139128
0.000204019
0.000275964
0.000344096
0.000402539
0.000444514
0.00046638
0.000467769
0.000444177
0.00040175
0.000344589
0.000277729
0.000205655
0.000141199
9.10131e-05
6.27807e-05
9.85413e-06
9.67316e-06
6.256e-05
9.27562e-05
0.00014606
0.000215744
0.000290952
0.000361812
0.000421421
0.000463102
0.000486139
0.000488008
0.000464139
0.00042293
0.000363234
0.000292403
0.000216499
0.00014761
9.34616e-05
6.2733e-05
9.71188e-06
9.65455e-06
6.30547e-05
9.68252e-05
0.000156024
0.000230214
0.00030805
0.000380881
0.000443453
0.000488373
0.000511966
0.000511728
0.000488017
0.000442678
0.000380608
0.000308536
0.000231439
0.00015717
9.72273e-05
6.29919e-05
9.74239e-06
9.69052e-06
6.34687e-05
0.000101909
0.000166473
0.000244541
0.000325342
0.00040118
0.000465498
0.000511893
0.000536067
0.000535964
0.000511314
0.000464786
0.000400804
0.000324743
0.000243998
0.00016676
0.0001022
6.36262e-05
9.73943e-06
9.7453e-06
6.45124e-05
0.000107611
0.000176633
0.000259131
0.000343541
0.000422295
0.000487946
0.000537486
0.000561625
0.000561343
0.000535618
0.000488621
0.000422004
0.00034268
0.000258569
0.000176907
0.000107531
6.44672e-05
9.79049e-06
1.00263e-05
6.55037e-05
0.000113356
0.000188105
0.000274922
0.000363471
0.000445725
0.00051532
0.000564286
0.000591343
0.000590158
0.000564961
0.000514478
0.000444712
0.000361735
0.000273228
0.00018707
0.000113169
6.53224e-05
1.00425e-05
1.03177e-05
6.65118e-05
0.000120052
0.000199312
0.000290546
0.000383138
0.0004688
0.000539876
0.00059133
0.000619303
0.000618519
0.000592177
0.000540316
0.000468083
0.000381922
0.000289137
0.000198361
0.000119443
6.61503e-05
1.02947e-05
1.06606e-05
6.71635e-05
0.000126376
0.000210545
0.000306511
0.000403489
0.000492254
0.000565667
0.000619535
0.000646166
0.000646837
0.000618129
0.000565019
0.000491508
0.000402661
0.000305306
0.000209428
0.000125694
6.68699e-05
1.06767e-05
1.11562e-05
6.76578e-05
0.000131961
0.000221392
0.000322475
0.000424023
0.000516325
0.000590813
0.000645123
0.000672796
0.000672766
0.000645337
0.000591807
0.000516106
0.000423359
0.000321693
0.000220901
0.000131841
6.75412e-05
1.11429e-05
1.17616e-05
6.85783e-05
0.000138445
0.00023334
0.000339336
0.000444879
0.000539901
0.000616353
0.000668961
0.000696284
0.000696278
0.00066889
0.00061608
0.000539609
0.000444651
0.000339012
0.000233051
0.000138317
6.86251e-05
1.17529e-05
1.25364e-05
6.9868e-05
0.000145492
0.000246087
0.000357738
0.000467712
0.000565047
0.000642101
0.000694881
0.000720999
0.000720974
0.000694779
0.000641824
0.000564527
0.000467113
0.000357232
0.000245783
0.00014535
6.96872e-05
1.2542e-05
1.34823e-05
7.12135e-05
0.000153696
0.000260685
0.000378447
0.00049289
0.000592284
0.000669335
0.000720925
0.000746679
0.000746693
0.000720935
0.000669289
0.000592141
0.00049268
0.00037819
0.00026043
0.000153529
7.11407e-05
1.34594e-05
1.45915e-05
7.45641e-05
0.000164235
0.000278502
0.000403183
0.000522024
0.000622397
0.00069788
0.000747111
0.000771142
0.000771158
0.000747161
0.000697958
0.000622443
0.000521978
0.000403061
0.00027838
0.000164184
7.45722e-05
1.46198e-05
1.58823e-05
7.91037e-05
0.000177138
0.000300227
0.000432982
0.00055594
0.000655754
0.000727583
0.000772546
0.000793869
0.000793853
0.000772494
0.00072749
0.000655625
0.00055579
0.000432845
0.000300138
0.000177126
7.91643e-05
1.58647e-05
1.73139e-05
8.64874e-05
0.000194372
0.000328475
0.000470251
0.000596
0.000692456
0.000757791
0.000796452
0.000814137
0.000814138
0.000796453
0.000757792
0.000692453
0.000595962
0.00047019
0.000328402
0.000194331
8.64408e-05
1.73155e-05
1.88501e-05
9.67606e-05
0.000217169
0.000365127
0.000516262
0.000642522
0.000731864
0.000787324
0.000817468
0.000830409
0.000830403
0.000817451
0.000787293
0.000731831
0.000642491
0.000516178
0.000364998
0.000217034
9.67559e-05
1.88572e-05
2.04961e-05
0.00011206
0.000247986
0.000413932
0.000575156
0.000696647
0.000772799
0.00081457
0.00083413
0.000841049
0.000841048
0.000834123
0.000814561
0.000772806
0.000696666
0.000575165
0.00041395
0.00024802
0.000112015
2.04797e-05
2.20946e-05
0.000132979
0.000294128
0.000489054
0.000654448
0.000758112
0.000811749
0.000834814
0.000843815
0.000847281
0.000847285
0.000843824
0.000834822
0.000811701
0.000757999
0.000654288
0.000488845
0.000293917
0.000132834
2.21097e-05
2.37704e-05
0.000165928
0.000385703
0.000610135
0.000753945
0.000817155
0.000839108
0.00084637
0.000849854
0.000851174
0.000851171
0.000849842
0.00084633
0.000839047
0.00081715
0.000754044
0.000610255
0.000385781
0.000165935
2.376e-05
2.56216e-05
0.000278643
0.000619987
0.000787349
0.000832362
0.000844949
0.000849588
0.000851573
0.000851944
0.000851953
0.000851953
0.000851941
0.000851554
0.00084955
0.000844858
0.000832214
0.000787243
0.000619897
0.00027862
2.56248e-05
4.03575e-05
0.000111427
0.000129612
0.000143677
0.000160729
0.00018971
0.000230557
0.000274962
0.000312999
0.000334533
0.000334034
0.000310515
0.000270014
0.000225443
0.000185169
0.00015592
0.000138471
0.000126367
0.00010737
3.92134e-05
3.96099e-05
0.000111534
0.000129882
0.000144488
0.000160882
0.000189776
0.000233871
0.000280185
0.000319256
0.000340346
0.000340666
0.00031495
0.000271546
0.000226281
0.000184675
0.00015848
0.000140618
0.000126687
0.0001061
3.8574e-05
4.05551e-05
0.000112277
0.000131895
0.000147972
0.000163194
0.000191657
0.000231675
0.000277151
0.000316534
0.000338381
0.000339339
0.000315727
0.000272481
0.000230294
0.000188601
0.000153011
0.000135779
0.000128745
0.000106856
3.87202e-05
4.00206e-05
0.00010852
0.000126038
0.000143373
0.000158699
0.000187299
0.000228262
0.000275264
0.000316318
0.000337347
0.000338628
0.000314931
0.000274773
0.000226454
0.000185006
0.00015067
0.000134466
0.000125521
0.000108603
3.90992e-05
3.95208e-05
0.000110019
0.000130862
0.000147259
0.000161976
0.000189079
0.000229504
0.000279139
0.000320943
0.000341415
0.000343249
0.000312644
0.000272779
0.000230565
0.000190076
0.000153675
0.000132334
0.000125673
0.000106839
3.8613e-05
4.06331e-05
0.000109899
0.000129352
0.000143808
0.000162778
0.000189037
0.000232336
0.000276002
0.000317834
0.000337258
0.00034101
0.000313225
0.000272652
0.000229227
0.00018779
0.000154136
0.000135279
0.000126358
0.000107506
3.91063e-05
4.01417e-05
0.000109632
0.000126846
0.0001388
0.000160669
0.000191409
0.000230706
0.000279136
0.000316482
0.000336158
0.000338866
0.000317854
0.00027555
0.000230284
0.000188796
0.000155167
0.000139651
0.000125333
0.00010722
3.85625e-05
4.01966e-05
0.000108975
0.000130253
0.000143512
0.000161741
0.000194335
0.000235017
0.000278087
0.000312999
0.000334093
0.000335038
0.000315169
0.000271644
0.000228981
0.000188778
0.00015252
0.000133657
0.000126711
0.000107499
3.93844e-05
3.93361e-05
0.000108992
0.000128015
0.000144537
0.00016223
0.000195041
0.000233531
0.000276384
0.000316611
0.000336758
0.000338233
0.00031411
0.000271361
0.000228203
0.000184119
0.000151131
0.000135382
0.000128251
0.000107731
3.87776e-05
3.9966e-05
0.000110683
0.000129987
0.000147265
0.000162498
0.000192836
0.000232141
0.000276647
0.000313493
0.000332848
0.000334626
0.00030982
0.000271053
0.000231582
0.000190723
0.000156224
0.000137409
0.000127244
0.000105116
3.95279e-05
3.99961e-05
0.000112607
0.000131463
0.000141419
0.000165068
0.000193668
0.00023338
0.000280072
0.000314728
0.000334573
0.000332159
0.000309282
0.000270268
0.000228717
0.000184062
0.00015711
0.000143601
0.000130397
0.000107646
3.97252e-05
3.93569e-05
0.000111317
0.000127738
0.000140821
0.000160808
0.000189679
0.000236638
0.000279619
0.000317652
0.000338389
0.000333852
0.000309836
0.000270077
0.000226134
0.000183992
0.000157527
0.000139075
0.000123839
0.000108071
3.97475e-05
4.00134e-05
0.000110715
0.000127177
0.000138394
0.000159993
0.000189277
0.000234834
0.000278405
0.000317279
0.000337907
0.000334161
0.00031367
0.000270756
0.000229292
0.000182391
0.000161294
0.000142296
0.000123503
0.000109112
3.99559e-05
4.06976e-05
0.000111206
0.000126261
0.000142067
0.000157058
0.000189354
0.000232909
0.000281659
0.000314953
0.000337071
0.000335823
0.00030862
0.000270955
0.000225206
0.000183036
0.000158915
0.000140172
0.000126394
0.000108271
3.94405e-05
3.97116e-05
0.000108526
0.000125059
0.00014007
0.000156852
0.000188776
0.000236215
0.000278853
0.000317895
0.000337813
0.000333101
0.000309144
0.000272087
0.000229895
0.000183708
0.000156763
0.00013445
0.000124911
0.000106746
3.93247e-05
3.96877e-05
0.000108279
0.000123607
0.000139616
0.00015862
0.000190255
0.000232419
0.000275787
0.000313313
0.000337651
0.000332828
0.000310037
0.000273367
0.000227063
0.000182823
0.000153069
0.000138715
0.000124789
0.00010651
3.89789e-05
3.97157e-05
0.000108321
0.000125506
0.000137967
0.000158685
0.000190969
0.000236858
0.000279915
0.000316919
0.000336504
0.000334565
0.000311768
0.000277152
0.000230471
0.000185405
0.000151064
0.000136095
0.00012136
0.000106699
3.84777e-05
3.92958e-05
0.000107148
0.000124543
0.00013743
0.000160084
0.00019369
0.000236139
0.000277574
0.000314322
0.000333422
0.000334636
0.000311542
0.00027523
0.000231493
0.000185953
0.000153367
0.000137262
0.000122282
0.000107636
3.88388e-05
3.90889e-05
0.000107639
0.000122807
0.000134841
0.000158568
0.00019249
0.000236471
0.000278476
0.00031726
0.000333924
0.000338652
0.000312892
0.000271498
0.000228544
0.00019246
0.000155714
0.000140045
0.000124506
0.000108058
3.94315e-05
3.88696e-05
0.000108155
0.000125713
0.000135786
0.000158184
0.000192027
0.000235672
0.000280445
0.000316009
0.000333642
0.000336551
0.000315846
0.000271742
0.000230758
0.000189233
0.000155621
0.000135265
0.000124942
0.000108266
3.89637e-05
3.9206e-05
0.000108987
0.000124036
0.000133755
0.000156993
0.000189874
0.000233514
0.000276978
0.000311375
0.000334063
0.000333641
0.000311216
0.000271314
0.000227735
0.000186993
0.000158629
0.000133393
0.000124929
0.000108876
3.96174e-05
3.88787e-05
0.000107401
0.000124192
0.00013776
0.000156814
0.000192267
0.000230619
0.000273478
0.00031084
0.000334616
0.000335441
0.000315967
0.000274241
0.000225573
0.000189786
0.000152945
0.00013777
0.000122622
0.000107115
3.96421e-05
3.85226e-05
0.000108439
0.000123723
0.000135174
0.00015472
0.00018881
0.000230553
0.000273792
0.000311824
0.000337671
0.000338031
0.000313442
0.000269447
0.000224321
0.000188939
0.000157893
0.000138352
0.000124841
0.000106332
3.9115e-05
3.89317e-05
0.000108332
0.00012308
0.00013594
0.000156106
0.00019242
0.000234364