/*--------------------------------*- C++ -*----------------------------------*\
  =========                 |
  \\      /  F ield         | OpenFOAM: The Open Source CFD Toolbox
   \\    /   O peration     | Website:  https://openfoam.org
    \\  /    A nd           | Version:  6
     \\/     M anipulation  |
\*---------------------------------------------------------------------------*/
FoamFile
{
    version     2.0;
    format      ascii;
    class       volScalarField;
    location    "19";
    object      nut;
}
// * * * * * * * * * * * * * * * * * * * * * * * * * * * * * * * * * * * * * //

dimensions      [0 2 -1 0 0 0 0];

internalField   nonuniform List<scalar> 
130000
(
0.000899305
0.00090371
0.00090732
0.000910145
0.00091226
0.000913743
0.000914677
0.000915143
0.000915217
0.000914967
0.000914457
0.000913737
0.00091285
0.000911831
0.000910706
0.000909508
0.000908258
0.00090697
0.000905651
0.000904294
0.000899296
0.000903705
0.00090731
0.000910127
0.000912229
0.000913698
0.000914618
0.000915069
0.000915127
0.00091486
0.000914331
0.000913595
0.000912695
0.000911669
0.000910546
0.000909352
0.000908094
0.000906785
0.000905448
0.000904081
0.000899396
0.000903818
0.000907427
0.000910242
0.000912339
0.000913796
0.000914703
0.000915144
0.000915198
0.00091494
0.000914432
0.000913718
0.000912837
0.000911825
0.00091071
0.00090952
0.000908227
0.000906839
0.000905422
0.000903982
0.000899554
0.000903994
0.000907611
0.000910426
0.000912525
0.000913995
0.000914933
0.000915412
0.000915508
0.000915297
0.000914799
0.000914074
0.000913171
0.000912128
0.000910971
0.000909746
0.000908405
0.000906959
0.000905483
0.000903976
0.000899738
0.000904201
0.000907837
0.000910685
0.00091283
0.00091435
0.000915334
0.000915827
0.000915918
0.000915693
0.000915158
0.000914402
0.000913466
0.000912382
0.00091117
0.000909877
0.000908506
0.000907067
0.000905573
0.000904032
0.000899935
0.000904435
0.000908114
0.000911026
0.00091321
0.000914741
0.000915711
0.000916178
0.000916233
0.000915944
0.000915366
0.000914578
0.000913616
0.000912511
0.000911291
0.000909978
0.000908588
0.000907134
0.000905627
0.000904075
0.000900127
0.000904675
0.000908401
0.000911351
0.000913523
0.000915026
0.000915943
0.000916383
0.000916416
0.000916111
0.00091553
0.000914728
0.000913748
0.000912625
0.000911387
0.000910056
0.000908649
0.000907181
0.000905661
0.0009041
0.000900291
0.000904876
0.000908623
0.00091155
0.000913705
0.000915203
0.000916127
0.00091656
0.000916583
0.000916266
0.000915672
0.000914855
0.000913858
0.000912718
0.000911462
0.000910114
0.000908692
0.000907209
0.000905677
0.000904104
0.000900424
0.000905026
0.000908778
0.000911698
0.000913866
0.000915366
0.000916288
0.000916715
0.000916728
0.0009164
0.000915793
0.000914961
0.000913948
0.000912791
0.000911519
0.000910154
0.000908716
0.000907219
0.000905673
0.000904085
0.000900545
0.000905162
0.000908924
0.000911852
0.00091402
0.000915518
0.000916435
0.000916855
0.000916858
0.000916518
0.000915897
0.00091505
0.000914022
0.000912848
0.000911559
0.000910178
0.000908725
0.000907213
0.000905654
0.000904055
0.00090066
0.000905293
0.000909065
0.00091201
0.000914172
0.000915664
0.000916574
0.000916985
0.000916978
0.000916625
0.00091599
0.000915128
0.000914083
0.000912893
0.000911587
0.00091019
0.00090872
0.000907193
0.000905621
0.000904013
0.000900775
0.000905419
0.000909192
0.000912158
0.000914318
0.000915806
0.000916708
0.000917109
0.000917091
0.000916725
0.000916077
0.000915199
0.000914137
0.00091293
0.000911607
0.000910193
0.000908707
0.000907165
0.00090558
0.000903961
0.000900894
0.00090555
0.000909322
0.000912282
0.000914455
0.000915943
0.000916839
0.000917232
0.000917203
0.000916824
0.00091616
0.000915266
0.000914188
0.000912964
0.000911623
0.000910192
0.000908691
0.000907135
0.00090554
0.000903917
0.000901022
0.000905694
0.000909477
0.000912397
0.000914605
0.000916089
0.000916977
0.000917359
0.000917317
0.000916925
0.000916246
0.000915335
0.00091424
0.000912997
0.000911639
0.00091019
0.000908671
0.0009071
0.00090549
0.000903856
0.000901161
0.000905846
0.000909636
0.00091256
0.000914763
0.000916245
0.000917124
0.000917494
0.000917439
0.000917032
0.000916337
0.000915409
0.000914295
0.000913033
0.000911655
0.000910187
0.000908649
0.000907055
0.000905417
0.000903742
0.000901314
0.000906015
0.000909815
0.000912749
0.000914915
0.000916415
0.000917283
0.00091764
0.00091757
0.000917147
0.000916435
0.000915489
0.000914356
0.000913074
0.000911675
0.000910186
0.000908626
0.00090701
0.000905344
0.000903628
0.00090148
0.000906195
0.00091
0.000912926
0.000915063
0.000916561
0.000917445
0.000917794
0.00091771
0.000917271
0.000916541
0.000915577
0.000914424
0.000913121
0.000911701
0.00091019
0.00090861
0.000906977
0.000905307
0.000903613
0.000901658
0.000906387
0.000910196
0.000913119
0.00091524
0.000916704
0.000917619
0.00091796
0.000917861
0.000917404
0.000916656
0.000915672
0.000914499
0.000913175
0.000911732
0.000910198
0.000908595
0.000906939
0.000905245
0.000903578
0.000901847
0.000906591
0.000910409
0.000913336
0.000915467
0.000916899
0.000917791
0.000918134
0.000918016
0.000917542
0.000916777
0.000915774
0.00091458
0.000913235
0.00091177
0.000910213
0.000908586
0.000906906
0.000905181
0.000903482
0.000902044
0.000906803
0.000910628
0.000913555
0.000915682
0.000917108
0.000917938
0.000918283
0.000918161
0.000917679
0.000916899
0.000915879
0.000914666
0.000913299
0.000911813
0.000910234
0.000908588
0.000906895
0.00090517
0.000903428
0.00090225
0.000907023
0.000910853
0.000913778
0.000915894
0.000917296
0.000918077
0.000918395
0.000918306
0.000917822
0.000917025
0.000915986
0.000914753
0.000913365
0.000911856
0.000910254
0.000908587
0.000906883
0.000905141
0.000903407
0.000902463
0.000907251
0.000911087
0.00091401
0.000916117
0.000917505
0.000918264
0.000918538
0.000918456
0.000917967
0.00091715
0.000916092
0.000914839
0.00091343
0.000911896
0.000910264
0.000908561
0.00090685
0.000905137
0.00090344
0.000902684
0.000907488
0.000911329
0.000914252
0.000916354
0.000917737
0.000918499
0.000918733
0.000918594
0.000918092
0.000917262
0.000916191
0.000914922
0.000913495
0.000911942
0.000910289
0.000908566
0.000906842
0.000905141
0.000903436
0.000902914
0.000907733
0.00091158
0.000914501
0.000916597
0.000917969
0.000918719
0.000918939
0.00091872
0.000918177
0.00091737
0.000916294
0.000915005
0.000913559
0.000911993
0.000910339
0.000908625
0.000906872
0.000905115
0.000903387
0.000903153
0.000907987
0.00091184
0.000914758
0.000916846
0.000918206
0.000918939
0.000919137
0.000918882
0.000918306
0.000917476
0.000916391
0.000915082
0.000913619
0.000912038
0.000910369
0.000908635
0.000906856
0.000905041
0.00090326
0.000903402
0.000908252
0.00091211
0.000915025
0.000917103
0.00091845
0.000919168
0.000919353
0.000919096
0.00091848
0.000917574
0.000916473
0.00091515
0.000913679
0.000912098
0.000910424
0.000908673
0.000906871
0.000904981
0.000903173
0.000903662
0.000908528
0.000912391
0.000915303
0.000917371
0.000918703
0.000919402
0.000919564
0.000919279
0.00091863
0.000917695
0.00091654
0.000915203
0.000913702
0.000912087
0.00091041
0.00090866
0.000906875
0.000905054
0.000903235
0.000903934
0.000908816
0.000912684
0.000915593
0.000917651
0.000918968
0.000919647
0.000919785
0.00091947
0.000918781
0.000917784
0.000916601
0.000915239
0.000913708
0.000912044
0.000910364
0.000908643
0.000906905
0.000905172
0.000903336
0.000904218
0.000909118
0.000912992
0.000915897
0.000917945
0.000919247
0.000919907
0.000920023
0.000919683
0.000918961
0.000917919
0.000916675
0.000915266
0.000913748
0.000912111
0.000910424
0.000908701
0.000906976
0.000905259
0.000903463
0.000904516
0.000909434
0.000913314
0.000916216
0.000918255
0.000919543
0.000920187
0.000920284
0.000919923
0.000919184
0.000918131
0.000916819
0.000915356
0.000913782
0.000912142
0.000910438
0.000908699
0.000906983
0.000905199
0.000903424
0.000904828
0.000909765
0.000913652
0.000916552
0.000918583
0.000919857
0.000920485
0.000920564
0.000920186
0.000919428
0.000918359
0.000917035
0.000915504
0.000913829
0.00091212
0.00091039
0.000908669
0.000906949
0.000905169
0.000903437
0.000905155
0.000910111
0.000914006
0.000916905
0.000918927
0.00092019
0.000920803
0.000920867
0.000920473
0.000919699
0.000918613
0.000917269
0.000915711
0.000914014
0.000912276
0.000910518
0.000908766
0.000907059
0.000905307
0.000903543
0.000905496
0.000910473
0.000914376
0.000917274
0.000919289
0.000920541
0.000921141
0.000921193
0.000920787
0.000920005
0.000918916
0.000917578
0.000916042
0.000914352
0.000912606
0.000910825
0.000909035
0.000907262
0.000905445
0.00090366
0.000905852
0.000910851
0.000914763
0.00091766
0.000919668
0.000920908
0.000921495
0.000921534
0.000921118
0.000920329
0.000919239
0.000917909
0.000916393
0.000914739
0.000912995
0.000911196
0.000909367
0.000907525
0.000905678
0.000903909
0.000906223
0.000911245
0.000915166
0.000918061
0.000920061
0.000921289
0.000921861
0.000921886
0.000921456
0.000920657
0.00091956
0.000918228
0.000916714
0.000915064
0.000913319
0.00091151
0.000909666
0.000907816
0.000905979
0.000904171
0.000906612
0.000911657
0.000915585
0.000918478
0.000920468
0.000921682
0.000922238
0.000922245
0.000921799
0.000920985
0.000919876
0.000918534
0.000917013
0.000915359
0.00091361
0.0009118
0.000909956
0.000908102
0.000906254
0.000904431
0.000907019
0.000912087
0.000916022
0.000918911
0.00092089
0.000922087
0.000922624
0.000922611
0.000922146
0.000921314
0.000920188
0.000918832
0.000917299
0.000915635
0.000913879
0.000912064
0.000910217
0.000908362
0.000906515
0.000904689
0.000907446
0.000912535
0.000916476
0.00091936
0.000921324
0.000922503
0.000923019
0.000922984
0.000922497
0.000921643
0.000920498
0.000919124
0.000917575
0.000915898
0.00091413
0.000912305
0.000910451
0.000908589
0.000906737
0.000904907
0.00090789
0.000913
0.000916947
0.000919823
0.000921772
0.00092293
0.000923422
0.000923362
0.00092285
0.000921973
0.000920806
0.000919412
0.000917846
0.000916153
0.000914372
0.000912537
0.000910673
0.000908805
0.000906947
0.000905113
0.00090835
0.000913482
0.000917432
0.000920299
0.000922231
0.000923365
0.000923831
0.000923744
0.000923205
0.000922302
0.000921111
0.000919695
0.00091811
0.000916401
0.000914608
0.000912762
0.000910891
0.000909017
0.000907156
0.000905319
0.000908829
0.000913982
0.000917935
0.00092079
0.000922701
0.00092381
0.000924246
0.000924129
0.00092356
0.000922628
0.000921411
0.000919973
0.000918367
0.000916641
0.000914834
0.000912978
0.0009111
0.000909221
0.000907358
0.000905521
0.000909328
0.000914501
0.000918454
0.000921296
0.000923184
0.000924263
0.000924667
0.000924516
0.000923914
0.000922951
0.000921706
0.000920241
0.000918614
0.00091687
0.000915048
0.000913181
0.000911296
0.000909413
0.000907548
0.000905712
0.000909848
0.00091504
0.000918992
0.000921818
0.000923679
0.000924726
0.000925094
0.000924906
0.000924268
0.000923271
0.000921994
0.000920501
0.00091885
0.000917085
0.000915248
0.000913369
0.000911475
0.000909588
0.000907722
0.000905887
0.000910391
0.000915601
0.000919549
0.000922356
0.000924188
0.000925198
0.000925527
0.000925299
0.000924621
0.000923587
0.000922275
0.000920753
0.000919075
0.000917289
0.000915433
0.000913541
0.000911639
0.000909747
0.00090788
0.000906046
0.00091096
0.000916186
0.000920129
0.000922913
0.000924711
0.000925682
0.000925967
0.000925694
0.000924973
0.000923898
0.00092255
0.000920995
0.000919289
0.000917479
0.000915606
0.0009137
0.000911789
0.000909891
0.000908022
0.00090619
0.00091156
0.000916798
0.00092073
0.000923488
0.000925249
0.000926175
0.000926412
0.000926091
0.000925323
0.000924205
0.000922817
0.000921226
0.00091949
0.000917656
0.000915764
0.000913844
0.000911923
0.000910021
0.000908151
0.00090632
0.000912177
0.00091743
0.000921351
0.00092408
0.000925799
0.000926676
0.000926861
0.000926487
0.000925668
0.000924503
0.000923072
0.000921444
0.000919677
0.000917817
0.000915904
0.00091397
0.000912041
0.000910135
0.000908265
0.000906437
0.000912823
0.000918088
0.000921994
0.000924688
0.00092636
0.000927182
0.000927309
0.000926877
0.000926003
0.000924786
0.000923309
0.000921641
0.00091984
0.000917954
0.000916021
0.000914073
0.000912136
0.000910227
0.000908359
0.000906537
0.000913493
0.000918768
0.000922655
0.000925309
0.000926928
0.000927688
0.000927751
0.000927254
0.000926319
0.000925045
0.000923518
0.000921807
0.00091997
0.000918056
0.000916103
0.000914142
0.000912198
0.000910289
0.000908425
0.000906611
0.000914194
0.000919472
0.000923332
0.000925938
0.000927495
0.000928185
0.000928175
0.000927606
0.000926602
0.000925266
0.000923683
0.000921925
0.00092005
0.000918107
0.000916133
0.00091416
0.000912212
0.000910305
0.000908449
0.000906648
0.000914921
0.000920194
0.000924017
0.000926566
0.00092805
0.000928661
0.000928567
0.000927916
0.000926835
0.000925428
0.000923783
0.000921973
0.000920056
0.000918082
0.000916087
0.000914104
0.000912154
0.000910254
0.000908411
0.000906629
0.000915669
0.000920925
0.000924701
0.000927179
0.000928577
0.000929094
0.000928903
0.000928158
0.000926987
0.000925499
0.000923783
0.000921914
0.000919952
0.000917944
0.000915929
0.000913937
0.00091199
0.000910102
0.000908281
0.000906527
0.000916434
0.000921655
0.000925365
0.000927755
0.00092905
0.000929454
0.000929149
0.000928291
0.000927015
0.000925432
0.000923634
0.000921698
0.000919683
0.000917639
0.000915604
0.000913607
0.000911669
0.000909802
0.000908013
0.0009063
0.000917174
0.000922351
0.000925979
0.000928261
0.000929429
0.000929697
0.000929252
0.000928258
0.000926855
0.000925157
0.000923261
0.000921244
0.000919169
0.000917085
0.00091503
0.000913033
0.000911113
0.000909281
0.00090754
0.000905887
0.000917894
0.000922996
0.00092651
0.000928649
0.000929656
0.000929751
0.000929132
0.000927969
0.000926407
0.000924568
0.00092255
0.000920435
0.000918287
0.000916157
0.000914084
0.000912094
0.000910205
0.000908426
0.000906758
0.000905194
0.000918573
0.000923549
0.000926899
0.000928845
0.00092964
0.000929512
0.000928669
0.000927289
0.000925524
0.000923502
0.000921329
0.00091909
0.000916852
0.000914668
0.000912576
0.000910604
0.000908766
0.000907069
0.000905509
0.000904077
0.000919158
0.00092394
0.000927055
0.000928735
0.000929243
0.00092882
0.00092768
0.000926012
0.000923979
0.000921717
0.000919339
0.000916936
0.000914581
0.00091233
0.00091022
0.000908279
0.000906521
0.000904946
0.000903548
0.000902311
0.000919614
0.000924077
0.000926841
0.000928147
0.000928261
0.000927432
0.00092589
0.000923832
0.000921435
0.000918847
0.00091619
0.000913565
0.000911052
0.00090871
0.000906581
0.000904691
0.00090305
0.000901658
0.0009005
0.000899553
0.00091981
0.000923787
0.000926044
0.00092682
0.000926384
0.000924996
0.000922897
0.000920301
0.0009174
0.000914357
0.000911311
0.000908375
0.000905638
0.000903169
0.000901014
0.000899198
0.00089773
0.000896603
0.000895797
0.000895281
0.000919631
0.000922811
0.000924355
0.000924382
0.000923175
0.000921006
0.000918131
0.000914784
0.000911177
0.000907495
0.000903897
0.000900516
0.000897457
0.0008948
0.000892599
0.000890881
0.000889654
0.000888905
0.000888607
0.000888717
0.000918815
0.000920951
0.000921387
0.000920332
0.000918039
0.000914778
0.000910823
0.000906429
0.000901835
0.000897254
0.000892875
0.000888856
0.000885328
0.000882385
0.000880094
0.00087849
0.000877581
0.000877349
0.000877759
0.000878757
0.000916831
0.000917585
0.000916522
0.000913983
0.000910198
0.000905445
0.000900013
0.000894187
0.000888239
0.00088242
0.000876955
0.000872039
0.000867831
0.000864454
0.000861991
0.00086049
0.000859963
0.000860393
0.000861739
0.000863941
0.000913333
0.000912128
0.00090906
0.000904535
0.000898765
0.000892033
0.000884653
0.000876941
0.000869211
0.000861755
0.000854845
0.000848716
0.000843566
0.000839549
0.000836773
0.000835305
0.000835171
0.000836363
0.000838845
0.000842563
0.000907848
0.000903683
0.000898325
0.000891212
0.000882902
0.000873676
0.000863868
0.000853826
0.000843902
0.000834433
0.000825735
0.000818083
0.000811713
0.000806811
0.000803516
0.00080192
0.000802074
0.000803992
0.000807667
0.000813072
0.000899772
0.000891776
0.000883294
0.000873522
0.0008621
0.000849964
0.000837394
0.00082474
0.000812388
0.000800706
0.000790033
0.000780673
0.000772887
0.000766883
0.000762825
0.000760831
0.000760988
0.000763353
0.000767975
0.000774896
0.000888458
0.000876012
0.000863173
0.000850519
0.000836547
0.000821393
0.000806133
0.000790952
0.000776329
0.00076261
0.000750112
0.000739143
0.000729958
0.000722766
0.000717736
0.000715006
0.000714696
0.000716923
0.000721819
0.000729542
0.000873441
0.000856156
0.000839212
0.000822658
0.000806353
0.000789815
0.000772687
0.000755426
0.000739273
0.000724245
0.000710508
0.000698412
0.000688159
0.000679922
0.000673849
0.000670075
0.000668743
0.000670022
0.000674138
0.000681389
0.000854992
0.000832955
0.0008128
0.00079341
0.000774952
0.000757063
0.000739352
0.000722268
0.000706198
0.000691259
0.000677076
0.000664704
0.00065399
0.000645089
0.000638103
0.000633133
0.000630315
0.000629848
0.000632024
0.00063726
0.000833979
0.000808268
0.000786369
0.000766367
0.000747311
0.000729493
0.000712813
0.000696831
0.000681767
0.000667796
0.000655164
0.000643804
0.000633257
0.000624212
0.000616619
0.000610517
0.000606005
0.000603268
0.000602616
0.000604519
0.000812024
0.000784749
0.000763224
0.000744692
0.000727765
0.000711869
0.000696991
0.000683585
0.000670852
0.000659078
0.00064832
0.00063848
0.00062939
0.000620705
0.000612907
0.000605921
0.000599793
0.000594665
0.000590812
0.000588675
0.000791369
0.000765363
0.000746757
0.000731835
0.000718778
0.000706836
0.000695747
0.000685358
0.000675476
0.000666455
0.000658271
0.000650359
0.000642731
0.000635134
0.000627474
0.000619926
0.000612438
0.000605129
0.0005982
0.000592001
0.000774616
0.000753045
0.000739842
0.000730428
0.00072269
0.000715748
0.000709222
0.000702927
0.000696767
0.000690648
0.000684449
0.000678479
0.000672429
0.000665864
0.000658696
0.000650879
0.000642303
0.000633162
0.000623572
0.00061375
0.000764288
0.000750134
0.000744352
0.000741783
0.000740229
0.000738805
0.000737142
0.000735077
0.000732524
0.000729409
0.000725664
0.000721286
0.000716409
0.000710713
0.00070405
0.000696166
0.000686765
0.000676115
0.000664322
0.000651468
0.000762461
0.0007581
0.000761079
0.000766069
0.000771023
0.000775194
0.000778314
0.000780301
0.000781127
0.000780781
0.000779246
0.000776514
0.000772611
0.000767505
0.00076124
0.00075339
0.000743346
0.000731409
0.000717764
0.000702379
0.000770575
0.000777574
0.000789983
0.000802737
0.000814155
0.000823737
0.000831387
0.000837137
0.00084105
0.000843183
0.000843572
0.000842239
0.000839185
0.000834486
0.000828474
0.000820723
0.000810222
0.000797117
0.000781804
0.000764212
0.000789391
0.000808517
0.000830494
0.00085089
0.000868539
0.000883257
0.00089515
0.000904388
0.000911129
0.000915501
0.000917594
0.000917474
0.000915182
0.000910748
0.000904533
0.000896643
0.000885937
0.000871844
0.000854976
0.000835343
0.000819074
0.000850437
0.000881769
0.000909514
0.000933097
0.000952674
0.00096856
0.000981063
0.000990434
0.000996866
0.0010005
0.00100143
0.000999734
0.000995463
0.000989095
0.000980952
0.000969802
0.000954733
0.000936279
0.000914602
0.00085932
0.000902551
0.000942815
0.000977539
0.00100675
0.00103093
0.0010506
0.0010662
0.00107805
0.00108642
0.00109147
0.00109335
0.00109214
0.0010879
0.00108119
0.00107255
0.00106084
0.00104481
0.00102466
0.00100086
0.000909463
0.000963863
0.00101249
0.00105377
0.00108828
0.00111682
0.00114008
0.00115861
0.00117282
0.00118301
0.00118938
0.00119208
0.00119121
0.00118682
0.00117949
0.00116978
0.00115701
0.00114021
0.00111861
0.0010927
0.000968531
0.00103312
0.00108941
0.00113672
0.00117614
0.00120874
0.00123536
0.00125665
0.00127307
0.00128495
0.00129252
0.00129594
0.00129529
0.00129065
0.00128259
0.00127172
0.00125734
0.00123915
0.00121634
0.00118813
0.00103522
0.00110873
0.00117175
0.00122441
0.0012682
0.00130444
0.00133409
0.00135787
0.00137629
0.00138968
0.00139828
0.00140223
0.00140164
0.00139658
0.00138761
0.00137528
0.00135899
0.00133867
0.00131402
0.00128379
0.00110777
0.00118854
0.00125703
0.00131405
0.00136145
0.0014007
0.00143287
0.00145874
0.00147883
0.00149345
0.00150279
0.00150701
0.00150623
0.00150051
0.00149039
0.00147612
0.00145721
0.00143375
0.00140587
0.0013736
0.00118385
0.00126964
0.00134186
0.00140185
0.00145171
0.00149304
0.00152696
0.00155427
0.00157554
0.00159102
0.00160062
0.00160463
0.00160319
0.00159655
0.00158501
0.00156817
0.00154605
0.00151903
0.00148755
0.00145192
0.00126033
0.00134814
0.00142167
0.00148265
0.00153334
0.00157544
0.00160999
0.00163758
0.00165946
0.00167578
0.00168679
0.00169187
0.00169046
0.00168193
0.00166697
0.00164615
0.00161985
0.00158818
0.00155135
0.00151002
0.0013331
0.00141897
0.00149052
0.00154975
0.00159901
0.00163977
0.00167343
0.00170105
0.00172121
0.00173294
0.00173862
0.00173868
0.00173443
0.00172241
0.00170422
0.00168001
0.00164999
0.00161432
0.00157345
0.00152736
0.00139692
0.00147572
0.00154106
0.00159498
0.00163833
0.00167372
0.00170369
0.00172731
0.0017461
0.00176134
0.00176977
0.00177013
0.00176018
0.00174404
0.00172034
0.00169012
0.00165258
0.00160909
0.00156127
0.00151206
0.00144547
0.00151102
0.00156491
0.00160548
0.00164003
0.00167101
0.00169633
0.00171732
0.00173425
0.00174593
0.00175102
0.00174866
0.00173755
0.00171681
0.00168587
0.00164658
0.00159918
0.00154408
0.00148208
0.00141645
0.00147154
0.00151727
0.00154956
0.00157883
0.001602
0.00162024
0.00163751
0.00165346
0.00166719
0.00167709
0.00168101
0.00167664
0.00166164
0.00163406
0.00159266
0.00153988
0.00147683
0.00140349
0.00132144
0.00123587
0.00146755
0.00148133
0.00149129
0.00149557
0.00150071
0.00150742
0.00151677
0.00152851
0.00154107
0.00155169
0.00155666
0.00155183
0.00153311
0.00149704
0.00144136
0.00136944
0.00128277
0.00118213
0.00107222
0.000959767
0.00142436
0.00140277
0.00137764
0.00135578
0.00134005
0.00133243
0.00133407
0.00134437
0.00136051
0.00137744
0.00138847
0.00138641
0.00136454
0.00131768
0.0012431
0.00114654
0.00102923
0.000896265
0.000759623
0.000627177
0.0013349
0.00126788
0.00120844
0.00115862
0.0011222
0.00110252
0.00110178
0.00111911
0.0011494
0.00118262
0.00120648
0.00120902
0.00118103
0.00111725
0.00102028
0.000897218
0.000754933
0.000610609
0.000471496
0.000353965
0.00119232
0.00108671
0.000993515
0.000919355
0.0008699
0.000847984
0.000857682
0.000896778
0.00095659
0.00101464
0.00105012
0.00104831
0.00100372
0.000922652
0.000815933
0.000690159
0.000554006
0.000420083
0.000308731
0.000241245
0.000995867
0.000861113
0.000750439
0.000670285
0.00063454
0.000647334
0.000704787
0.000785114
0.000858835
0.000909001
0.000929525
0.000916106
0.000872456
0.000801194
0.00069928
0.00057431
0.000437463
0.000310952
0.000231163
0.000182188
0.000758822
0.000616039
0.000523173
0.000490024
0.000528703
0.000620456
0.000720511
0.000803883
0.000861961
0.000893378
0.000899121
0.00087965
0.000834539
0.00075785
0.000648162
0.000512787
0.000369754
0.000253156
0.000184171
0.000169573
0.000483724
0.000381814
0.000359386
0.000426983
0.000543656
0.000662937
0.000759226
0.000825734
0.000866273
0.000885186
0.000884849
0.000864299
0.000819498
0.00074335
0.000630928
0.000486806
0.000335357
0.000219764
0.000170354
0.000184406
0.000246264
0.000234944
0.000311948
0.000447041
0.000592527
0.000712176
0.000794342
0.000844074
0.000869547
0.00087809
0.000873893
0.000856446
0.000820185
0.000755526
0.00065091
0.000503515
0.000338674
0.00021162
0.000177116
0.00019631
0.0001722
0.000196285
0.000313152
0.000482486
0.000639927
0.000750604
0.000815384
0.00084705
0.00086047
0.000863996
0.000861361
0.000852003
0.000831093
0.000787986
0.000706
0.000570097
0.000394277
0.000244405
0.000183739
0.000200014
0.000144071
0.00018241
0.000326606
0.000524966
0.000686991
0.000783922
0.000831689
0.000851322
0.00085739
0.000858295
0.000857069
0.000853784
0.000846034
0.000826383
0.000780002
0.000681555
0.000508858
0.000310855
0.000205528
0.000201649
0.000146078
0.000198578
0.000398373
0.000628715
0.000767024
0.000826971
0.000846577
0.000852549
0.000854011
0.000854083
0.00085358
0.000852443
0.000849889
0.000843503
0.000826369
0.000786371
0.00069797
0.000520393
0.000305826
0.000221687
0.000223184
0.000528204
0.000823585
0.000869359
0.000865002
0.000857278
0.000854251
0.000853088
0.000852899
0.000852746
0.000852567
0.000852321
0.000851951
0.000851399
0.000851268
0.000846628
0.000821922
0.000742342
0.000602167
0.000514389
0.000899709
0.000900255
0.000900801
0.00090125
0.0009016
0.000901856
0.000902022
0.000902106
0.000902112
0.000902045
0.000901909
0.000901706
0.000901443
0.000901112
0.000900703
0.000900227
0.000899686
0.000899081
0.000898404
0.000897662
0.000899538
0.000900077
0.000900613
0.000901049
0.000901387
0.000901629
0.000901781
0.000901852
0.000901847
0.000901773
0.000901632
0.000901428
0.000901165
0.000900833
0.000900418
0.000899935
0.000899395
0.000898815
0.000898196
0.000897505
0.000899405
0.000899929
0.00090045
0.000900869
0.000901189
0.000901411
0.000901542
0.000901592
0.000901568
0.00090148
0.000901333
0.00090113
0.000900876
0.000900548
0.000900124
0.000899623
0.000899124
0.000898641
0.00089817
0.000897588
0.000899233
0.000899744
0.000900249
0.000900655
0.000900962
0.000901167
0.000901274
0.000901304
0.000901256
0.000901145
0.000900981
0.000900774
0.000900565
0.000900306
0.000899961
0.00089954
0.000899112
0.000898672
0.000898227
0.000897703
0.000899009
0.00089951
0.000900003
0.000900406
0.000900731
0.000900971
0.000901138
0.000901202
0.00090117
0.0009011
0.000900997
0.000900868
0.000900778
0.000900599
0.000900311
0.000899924
0.000899525
0.000899046
0.000898484
0.000897845
0.000898737
0.000899243
0.000899761
0.000900233
0.000900699
0.000901099
0.000901378
0.000901502
0.000901531
0.000901589
0.000901566
0.000901462
0.000901424
0.000901266
0.000900976
0.000900549
0.000900137
0.000899609
0.000898973
0.000898218
0.000898788
0.000899361
0.000899899
0.000900343
0.000900832
0.000901313
0.000901618
0.000901812
0.000901982
0.000902141
0.000902135
0.000901996
0.000901873
0.000901658
0.000901286
0.00090085
0.000900368
0.000899859
0.000899299
0.000898658
0.00089913
0.000899703
0.000900208
0.000900615
0.000901018
0.000901372
0.000901672
0.00090191
0.000902103
0.000902166
0.000902152
0.000902062
0.000901895
0.000901627
0.000901194
0.000900754
0.000900292
0.000899825
0.000899339
0.000898817
0.000899624
0.000900112
0.000900581
0.00090094
0.000901239
0.000901461
0.000901739
0.000901943
0.000902075
0.000902056
0.000902011
0.000901955
0.000901822
0.000901598
0.000901239
0.000900845
0.000900404
0.000899931
0.000899424
0.000898912
0.000900033
0.00090054
0.000901003
0.000901256
0.00090144
0.000901626
0.000901777
0.000901929
0.00090204
0.00090197
0.000901963
0.000901951
0.000901829
0.000901661
0.000901392
0.000901043
0.000900626
0.000900134
0.000899559
0.000898892
0.000899968
0.000900536
0.00090105
0.000901371
0.000901459
0.000901505
0.000901558
0.000901622
0.000901642
0.000901639
0.000901647
0.00090157
0.000901418
0.000901273
0.000900981
0.000900642
0.000900271
0.000899783
0.000899226
0.000898581
0.000899566
0.000900118
0.000900626
0.000900995
0.00090119
0.000901273
0.000901369
0.000901424
0.000901432
0.000901438
0.000901353
0.000901197
0.000900973
0.000900755
0.000900394
0.000900028
0.00089965
0.000899165
0.00089862
0.000897999
0.000899123
0.000899756
0.000900439
0.000900904
0.000901219
0.000901403
0.00090155
0.000901669
0.000901681
0.000901636
0.000901515
0.000901264
0.000901018
0.000900698
0.000900319
0.000899901
0.000899436
0.000898935
0.000898335
0.000897702
0.000899065
0.000899786
0.000900615
0.000901168
0.000901515
0.000901635
0.000901826
0.000902023
0.000902064
0.000902094
0.00090201
0.00090173
0.000901433
0.000901071
0.000900663
0.000900204
0.000899661
0.000899023
0.000898341
0.000897728
0.000899291
0.00089996
0.000900676
0.000901272
0.000901583
0.000901758
0.000902083
0.000902264
0.000902265
0.000902221
0.00090208
0.000901868
0.000901548
0.000901232
0.000900852
0.0009004
0.000899839
0.000899145
0.000898434
0.000897792
0.00089942
0.000900039
0.000900655
0.000901165
0.00090154
0.000901965
0.000902276
0.00090234
0.000902289
0.000902121
0.000901891
0.000901579
0.000901264
0.000900935
0.000900565
0.00090013
0.000899588
0.0008989
0.00089817
0.000897435
0.000899522
0.000900181
0.000900819
0.000901388
0.000901854
0.000902236
0.00090242
0.000902453
0.000902394
0.000902223
0.000901927
0.000901515
0.000901145
0.000900773
0.000900364
0.000899895
0.000899358
0.000898762
0.000898116
0.000897426
0.000899891
0.000900478
0.000901058
0.000901594
0.000902045
0.000902335
0.000902532
0.000902615
0.000902587
0.000902454
0.000902209
0.000901892
0.000901533
0.000901113
0.000900569
0.000899993
0.000899381
0.000898821
0.000898303
0.000897673
0.000900295
0.00090073
0.00090123
0.000901659
0.000902041
0.000902349
0.000902516
0.000902586
0.000902584
0.000902529
0.000902366
0.000902108
0.000901782
0.000901358
0.000900758
0.000900139
0.000899513
0.000898959
0.000898454
0.000897807
0.000900594
0.000901033
0.000901444
0.000901737
0.000901929
0.000902046
0.000902109
0.000902133
0.000902116
0.00090208
0.000901939
0.000901723
0.000901458
0.00090113
0.000900698
0.000900178
0.000899649
0.000899076
0.00089843
0.000897682
0.000900762
0.000901157
0.000901498
0.000901693
0.000901755
0.000901746
0.00090173
0.000901714
0.000901644
0.000901528
0.000901366
0.000901162
0.000900937
0.000900681
0.00090036
0.00089999
0.000899557
0.000899042
0.000898422
0.000897672
0.000900966
0.000901356
0.000901678
0.000901832
0.000901819
0.000901713
0.000901624
0.000901543
0.000901392
0.000901217
0.000901022
0.000900811
0.000900599
0.000900385
0.000900137
0.000899862
0.000899532
0.00089911
0.000898572
0.000897917
0.000901233
0.000901658
0.000902019
0.000902217
0.000902253
0.000902169
0.000902046
0.000901862
0.000901625
0.000901362
0.000901066
0.000900778
0.000900526
0.000900297
0.000900057
0.000899825
0.000899598
0.000899337
0.000898934
0.000898388
0.000901514
0.000901988
0.00090241
0.000902686
0.000902823
0.000902835
0.000902734
0.000902524
0.000902286
0.000901995
0.000901645
0.000901267
0.000900972
0.000900717
0.000900459
0.000900231
0.000900067
0.000899849
0.000899476
0.000898959
0.000901761
0.000902275
0.000902744
0.000903073
0.000903269
0.000903344
0.000903311