/*--------------------------------*- C++ -*----------------------------------*\
  =========                 |
  \\      /  F ield         | OpenFOAM: The Open Source CFD Toolbox
   \\    /   O peration     | Website:  https://openfoam.org
    \\  /    A nd           | Version:  6
     \\/     M anipulation  |
\*---------------------------------------------------------------------------*/
FoamFile
{
    version     2.0;
    format      ascii;
    class       volScalarField;
    location    "19";
    object      p;
}
// * * * * * * * * * * * * * * * * * * * * * * * * * * * * * * * * * * * * * //

dimensions      [0 2 -2 0 0 0 0];

internalField   nonuniform List<scalar> 
10000
(
0.00853476
0.00529779
0.00458717
0.0065766
0.0071307
0.00733349
0.00780344
0.00856754
0.00946064
0.00994468
0.00994618
0.00911826
0.00716725
0.00411407
-0.000102513
-0.00464619
-0.00901549
-0.0127349
-0.00941241
-0.00125122
0.00807448
0.00545492
0.0123575
0.0267724
0.0389271
0.0465025
0.0503893
0.0525912
0.0541386
0.0549745
0.0553879
0.0546894
0.0536995
0.0514515
0.0475742
0.0404832
0.0292707
0.0170233
0.0113959
0.0126691
0.0554622
0.0508438
0.0517736
0.0601417
0.0716556
0.0830775
0.0923361
0.0988276
0.102877
0.105044
0.105769
0.105225
0.103431
0.100907
0.0980873
0.0952525
0.0925135
0.0903114
0.0876273
0.0842299
0.125806
0.126416
0.127024
0.131008
0.137523
0.144345
0.150331
0.154972
0.158148
0.16017
0.161227
0.161688
0.161797
0.161774
0.161597
0.16147
0.160674
0.158855
0.156233
0.153213
0.215001
0.221092
0.222097
0.219578
0.217281
0.215975
0.21608
0.216953
0.218172
0.219279
0.220295
0.221514
0.222934
0.225247
0.228147
0.231591
0.23507
0.23715
0.235429
0.230792
0.282416
0.286683
0.288351
0.285847
0.281942
0.278384
0.276203
0.275324
0.275411
0.276
0.276782
0.277867
0.279614
0.282344
0.286109
0.290675
0.294897
0.297264
0.296153
0.293295
0.328399
0.326232
0.325764
0.324979
0.324199
0.324329
0.325055
0.326191
0.327475
0.328739
0.330043
0.331491
0.332991
0.334533
0.335787
0.336568
0.336792
0.336252
0.336061
0.338196
0.376867
0.373556
0.373214
0.374208
0.37526
0.376903
0.37856
0.380136
0.381381
0.382466
0.383135
0.383489
0.383577
0.382969
0.381529
0.379332
0.377058
0.37535
0.375404
0.378397
0.439315
0.439285
0.440463
0.441786
0.44214
0.441378
0.440267
0.439399
0.438895
0.438489
0.437987
0.437084
0.435277
0.432399
0.428493
0.423642
0.418968
0.416128
0.417167
0.421179
0.506894
0.509266
0.510194
0.509314
0.507419
0.504403
0.501434
0.499114
0.497561
0.496581
0.495904
0.49495
0.493676
0.491762
0.489391
0.486873
0.484363
0.483097
0.483828
0.48478
0.560675
0.559861
0.559539
0.559536
0.559192
0.55826
0.556956
0.555722
0.554753
0.554168
0.553878
0.554124
0.554718
0.556313
0.558775
0.562098
0.565746
0.568591
0.567742
0.562293
0.610359
0.608844
0.6079
0.608162
0.609122
0.609999
0.61028
0.610244
0.610009
0.609916
0.609889
0.610274
0.61128
0.613079
0.615759
0.619307
0.623052
0.625875
0.625889
0.623137
0.657318
0.655217
0.653814
0.654704
0.657272
0.660164
0.66242
0.663771
0.664477
0.664798
0.665142
0.66556
0.665974
0.666455
0.666988
0.667391
0.667746
0.668105
0.668911
0.671146
0.708947
0.709783
0.711132
0.713422
0.715925
0.717907
0.71917
0.719879
0.720244
0.720534
0.720819
0.720992
0.721319
0.72132
0.721083
0.720442
0.719644
0.7192
0.719125
0.720323
0.764429
0.769622
0.772998
0.773578
0.773248
0.77293
0.773075
0.773433
0.773888
0.774237
0.774602
0.774933
0.775105
0.77504
0.77446
0.77294
0.770986
0.769392
0.768972
0.770083
0.814912
0.814129
0.813829
0.815125
0.817568
0.820589
0.823314
0.825286
0.826527
0.827351
0.827833
0.827973
0.828149
0.828136
0.828046
0.827738
0.827111
0.826225
0.825363
0.825053
0.879105
0.879338
0.877935
0.876023
0.875726
0.87679
0.878248
0.879553
0.880434
0.880792
0.88067
0.880227
0.879241
0.878199
0.87731
0.877084
0.877857
0.87853
0.877803
0.875698
0.94077
0.940728
0.939926
0.937781
0.935959
0.935217
0.935384
0.936081
0.936788
0.937121
0.937018
0.936206
0.934746
0.932046
0.92811
0.923506
0.919012
0.916034
0.91712
0.920922
1.00692
1.00675
1.00669
1.00498
1.0023
0.99979
0.998062
0.997263
0.997112
0.99718
0.997354
0.997496
0.997392
0.996999
0.996225
0.994925
0.99359
0.993049
0.993309
0.99317
1.07749
1.07744
1.07711
1.07492
1.07098
1.06657
1.06284
1.06042
1.05908
1.0586
1.0585
1.05888
1.06014
1.06261
1.06677
1.07237
1.07822
1.08221
1.08091
1.07469
1.13646
1.13619
1.13569
1.13394
1.13065
1.12657
1.12286
1.11998
1.11815
1.11716
1.11692
1.11741
1.11841
1.12057
1.12386
1.12812
1.13271
1.13568
1.13558
1.13377
1.1767
1.17474
1.17477
1.17592
1.1766
1.17628
1.17535
1.17405
1.17299
1.17243
1.17249
1.17286
1.17376
1.17447
1.17467
1.17404
1.17266
1.17121
1.17177
1.17601
1.21439
1.21204
1.21246
1.21566
1.21945
1.22215
1.22365
1.22412
1.22417
1.22411
1.2243
1.22477
1.22537
1.2258
1.22576
1.22469
1.22274
1.22064
1.21997
1.22198
1.26292
1.26296
1.26251
1.26356
1.26622
1.26914
1.27178
1.27369
1.2748
1.27538
1.27549
1.27515
1.27439
1.273
1.27146
1.27025
1.26944
1.2692
1.26912
1.26862
1.31616
1.31559
1.31417
1.31556
1.31893
1.32254
1.3257
1.3278
1.32892
1.3292
1.32903
1.32833
1.32677
1.3243
1.32091
1.31691
1.31327
1.31144
1.31249
1.3146
1.37869
1.38139
1.38268
1.38312
1.38373
1.38463
1.38562
1.38634
1.38671
1.38659
1.38604
1.38492
1.38355
1.38175
1.37968
1.37749
1.37523
1.37345
1.37346
1.37435
1.44568
1.44973
1.45203
1.45031
1.4476
1.44576
1.44491
1.44476
1.44504
1.44518
1.44516
1.44501
1.44468
1.44463
1.44498
1.44596
1.44723
1.44764
1.44747
1.4463
1.50916
1.51214
1.5137
1.51205
1.509
1.50612
1.50427
1.50354
1.50357
1.50404
1.50471
1.50561
1.5072
1.50961
1.513
1.51722
1.52132
1.52398
1.52416
1.5216
1.56236
1.56017
1.56016
1.56088
1.56092
1.56068
1.56036
1.56017
1.56036
1.56095
1.56193
1.56344
1.56554
1.56873
1.57292
1.57781
1.5825
1.58563
1.58592
1.58354
1.61801
1.61564
1.6153
1.61561
1.61575
1.61606
1.61629
1.61649
1.61676
1.61726
1.61806
1.61909
1.62054
1.62195
1.62322
1.62417
1.62455
1.6244
1.62497
1.62693
1.67517
1.67272
1.67152
1.67175
1.67207
1.67238
1.67247
1.67244
1.67233
1.67215
1.67203
1.67199
1.67176
1.67106
1.66962
1.66722
1.66465
1.663
1.66354
1.66634
1.73528
1.73562
1.73577
1.73593
1.73525
1.73375
1.73178
1.72988
1.7283
1.7271
1.72587
1.72443
1.7225
1.71957
1.71558
1.71055
1.70538
1.7023
1.70338
1.7066
1.78478
1.7878
1.78911
1.78808
1.78619
1.78442
1.78312
1.78222
1.78165
1.78127
1.78095
1.78042
1.77917
1.77728
1.77469
1.77153
1.76827
1.76614
1.76577
1.76525
1.82369
1.81877
1.8163
1.81778
1.82138
1.82602
1.83027
1.83344
1.83533
1.83668
1.83753
1.83829
1.83904
1.84008
1.8416
1.84372
1.84599
1.84736
1.84477
1.83814
1.88854
1.88717
1.88556
1.88551
1.88717
1.88937
1.8914
1.89288
1.89384
1.89435
1.8947
1.89515
1.89568
1.89673
1.8982
1.90011
1.90209
1.90321
1.90197
1.89882
1.96483
1.97075
1.97292
1.97052
1.9664
1.96162
1.95785
1.95532
1.95395
1.95307
1.95254
1.95198
1.95171
1.95143
1.95116
1.95088
1.95042
1.94987
1.95014
1.95165
2.02186
2.02482
2.02641
2.025
2.02179
2.01778
2.01426
2.01162
2.00997
2.00893
2.0084
2.00817
2.00814
2.0082
2.00828
2.00835
2.00843
2.00839
2.00803
2.00766
2.06321
2.06114
2.06108
2.06269
2.06429
2.06529
2.06518
2.06451
2.06362
2.06311
2.0627
2.06254
2.06247
2.06233
2.06212
2.06185
2.06148
2.06096
2.06026
2.0596
2.10646
2.10545
2.10583
2.10817
2.11133
2.11443
2.11647
2.11759
2.11792
2.11798
2.11793
2.11799
2.11782
2.11749
2.11669
2.11545
2.11403
2.11269
2.11183
2.11129
2.15807
2.15731
2.15676
2.1587
2.16217
2.1661
2.16946
2.17205
2.17363
2.17471
2.17535
2.17598
2.17649
2.17681
2.17654
2.1756
2.17411
2.17274
2.1719
2.17129
2.22731
2.22973
2.23046
2.23087
2.23112
2.23131
2.23152
2.23192
2.23243
2.23306
2.23379
2.23495
2.2364
2.23841
2.24058
2.24272
2.24435
2.24495
2.24358
2.24089
2.29812
2.30446
2.30704
2.30457
2.29997
2.29545
2.29223
2.29038
2.28943
2.2892
2.28914
2.28956
2.29036
2.29195
2.29454
2.29826
2.30241
2.30512
2.30362
2.299
2.34947
2.34918
2.3499
2.35017
2.34929
2.34789
2.34633
2.34478
2.34346
2.34242
2.34156
2.3406
2.3391
2.33686
2.33374
2.33033
2.32716
2.32492
2.32566
2.32959
2.39724
2.39637
2.39698
2.39815
2.39916
2.39964
2.39938
2.39863
2.39765
2.39665
2.3956
2.39424
2.39228
2.38909
2.38414
2.3776
2.37047
2.3654
2.3659
2.37113
2.44269
2.44049
2.43988
2.44199
2.44506
2.44811
2.45036
2.45187
2.4526
2.45291
2.45286
2.4526
2.4519
2.4511
2.45004
2.44862
2.44706
2.44616
2.44498
2.44224
2.50173
2.501
2.50029
2.50195
2.50462
2.50727
2.50921
2.51065
2.51151
2.51235
2.51294
2.51379
2.51491
2.51679
2.51955
2.5234
2.52764
2.53066
2.52866
2.52155
2.57409
2.57841
2.57907
2.57736
2.57532
2.57365
2.57248
2.57182
2.57152
2.57151
2.57178
2.57275
2.57436
2.57713
2.58085
2.58546
2.58982
2.59209
2.59055
2.58638
2.63789
2.64127
2.64301
2.64203
2.63911
2.63568
2.63275
2.63056
2.62916
2.62846
2.62837
2.62891
2.62994
2.63128
2.63267
2.63392
2.63463
2.63438
2.63435
2.63577
2.68955
2.69106
2.69221
2.69229
2.6909
2.68865
2.68641
2.68463
2.68337
2.68271
2.68251
2.68266
2.68278
2.68277
2.68235
2.68135
2.68014
2.6791
2.67895
2.67998
2.73794
2.73449
2.73165
2.73201
2.73405
2.73631
2.73781
2.73859
2.73861
2.73846
2.738
2.73742
2.73628
2.73439
2.73143
2.72779
2.72414
2.72166
2.72178
2.72319
2.80076
2.8007
2.79993
2.79991
2.80055
2.80106
2.80093
2.80043
2.79965
2.79896
2.79833
2.7979
2.79713
2.79598
2.794
2.79151
2.78876
2.78664
2.78601
2.78517
2.86406
2.87036
2.87449
2.87508
2.87308
2.86945
2.86566
2.86266
2.86058
2.85966
2.85944
2.86017
2.86156
2.86392
2.86677
2.86976
2.87191
2.87244
2.86949
2.86248
2.90888
2.91281
2.91515
2.91629
2.91666
2.91633
2.91563
2.91496
2.9145
2.91465
2.91534
2.91704
2.91945
2.92311
2.92728
2.93155
2.93475
2.93542
2.93252
2.92689
2.95375
2.95276
2.95194
2.95368
2.95757
2.96198
2.96532
2.96739
2.9683
2.96891
2.96929
2.96993
2.9706
2.97154
2.97241
2.97336
2.97417
2.97398
2.97286
2.97187
3.02322
3.02672
3.02856
3.02896
3.0294
3.02946
3.02895
3.02813
3.02723
3.0263
3.02552
3.0247
3.02342
3.02112
3.01732
3.0121
3.00665
3.00279
3.00362
3.00804
3.09288
3.10077
3.10484
3.10338
3.09976
3.09549
3.09166
3.0886
3.08644
3.0848
3.08351
3.08226
3.08086
3.07873
3.07548
3.07134
3.06698
3.06441
3.06475
3.06534
3.14171
3.14239
3.14385
3.14537
3.14598
3.14611
3.14566
3.14484
3.1439
3.14326
3.14284
3.14294
3.14317
3.14395
3.14507
3.14648
3.14753
3.14789
3.14574
3.1393
3.19355
3.19355
3.19556
3.19907
3.2016
3.20286
3.20293
3.20256
3.20196
3.2018
3.20198
3.2029
3.20445
3.20697
3.21021
3.21403
3.21732
3.2188
3.21648
3.21009
3.2536
3.25761
3.25991
3.26089
3.26146
3.26167
3.26155
3.26118
3.26073
3.2606
3.26086
3.26186
3.26331
3.26565
3.26844
3.27154
3.27461
3.27666
3.27555
3.27191
3.31599
3.3168
3.31629
3.31659
3.31774
3.31917
3.32021
3.32075
3.32103
3.32142
3.32223
3.32364
3.32566
3.3278
3.32909
3.3291
3.32785
3.3263
3.32556
3.32629
3.38928
3.39271
3.39412
3.39401
3.39263
3.39004
3.38707
3.38458
3.38299
3.38234
3.38261
3.3839
3.38585
3.38824
3.39038
3.39158
3.39182
3.39108
3.38915
3.38652
3.44989
3.45638
3.45968
3.45866
3.45537
3.451
3.44675
3.44321
3.44066
3.43923
3.43855
3.43848
3.43875
3.43926
3.43991
3.44089
3.44196
3.44214
3.43992
3.43527
3.4855
3.48417
3.48516
3.48865
3.49248
3.49543
3.49673
3.49647
3.49541
3.49427
3.49343
3.4928
3.49175
3.48967
3.48594
3.48049
3.47443
3.46957
3.46898
3.47107
3.53124
3.53179
3.53336
3.53739
3.54278
3.54755
3.55046
3.5516
3.55166
3.55126
3.55098
3.55057
3.55015
3.54892
3.54641
3.54267
3.538
3.53431
3.53263
3.53046
3.59451
3.59897
3.60057
3.60165
3.60384
3.60632
3.6084
3.60986
3.61066
3.61113
3.61158
3.6123
3.613
3.6141
3.61545
3.61677
3.61777
3.61762
3.61359
3.60372
3.6725
3.67642
3.67687
3.67678
3.67694
3.6771
3.67702
3.67664
3.67603
3.67537
3.67497
3.67475
3.67508
3.6757
3.67641
3.6771
3.67753
3.67706
3.674
3.66677
3.75641
3.76309
3.76479
3.76245
3.75822
3.75336
3.74886
3.74502
3.74218
3.73998
3.73865
3.73787
3.73746
3.73711
3.73655
3.73528
3.73366
3.73176
3.73028
3.72814
3.81765
3.82397
3.82588
3.82393
3.81995
3.81535
3.81101
3.80727
3.80457
3.80274
3.80199
3.80181
3.80266
3.8038
3.80512
3.80637
3.80705
3.80696
3.80572
3.80215
3.8544
3.85397
3.85325
3.85488
3.85745
3.86002
3.86167
3.86222
3.86211
3.86211
3.86262
3.86415
3.86642
3.86966
3.87346
3.87701
3.87993
3.88158
3.88148
3.87768
3.90273
3.90101
3.89956
3.90258
3.90791
3.91385
3.91852
3.92148
3.92298
3.92402
3.92518
3.92681
3.92936
3.93258
3.93649
3.94088
3.94492
3.9479
3.94901
3.94568
3.98297
3.99003
3.9909
3.98959
3.98873
3.98842
3.98864
3.98894
3.98923
3.9895
3.99012
3.99142
3.9929
3.9947
3.99655
3.99816
3.99966
4.0012
4.00299
4.00112
4.07374
4.08664
4.08989
4.08518
4.07743
4.06971
4.06414
4.06077
4.05918
4.0585
4.05886
4.05981
4.06186
4.06398
4.06535
4.06524
4.0631
4.0607
4.0608
4.05917
4.15163
4.16248
4.16618
4.16237
4.15381
4.14419
4.13637
4.13124
4.1285
4.12769
4.12835
4.13066
4.13409
4.13894
4.14419
4.14846
4.15105
4.15157
4.14847
4.13844
4.2131
4.2198
4.2233
4.22365
4.2194
4.21264
4.20542
4.1998
4.19628
4.19513
4.19579
4.19812
4.20231
4.20817
4.21523
4.22251
4.22821
4.23033
4.22544
4.21161
4.26415
4.27351
4.28005
4.28384
4.283
4.27815
4.27152
4.2655
4.26122
4.25908
4.25879
4.26053
4.26343
4.26753
4.27189
4.27536
4.27699
4.27563
4.27045
4.25946
4.30163
4.31206
4.32017
4.3284
4.33318
4.33324
4.33016
4.3262
4.32306
4.32129
4.32119
4.32213
4.32404
4.32535
4.3251
4.32219
4.31644
4.30962
4.30427
4.29689
4.34104
4.35405
4.36395
4.3753
4.38431
4.3882
4.38801
4.3859
4.38389
4.38291
4.38333
4.38507
4.38736
4.38934
4.38986
4.38716
4.38108
4.37313
4.36456
4.35145
4.39049
4.4082
4.41963
4.43041
4.43978
4.4451
4.44663
4.44613
4.44517
4.44479
4.44535
4.44678
4.4492
4.45155
4.45334
4.45305
4.44944
4.44244
4.4307
4.41066
4.44587
4.46238
4.47324
4.48481
4.49613
4.50375
4.5072
4.50768
4.50699
4.50624
4.50605
4.50647
4.50695
4.50682
4.50523
4.50093
4.49365
4.48453
4.47367
4.4568
4.51172
4.52847
4.53852
4.54823
4.55802
4.56518
4.56883
4.56971
4.56937
4.56862
4.56824
4.56765
4.5667
4.5636
4.55779
4.54847
4.53655
4.52551
4.5172
4.50562
4.58107
4.59408
4.59947
4.6055
4.61372
4.62165
4.62739
4.63065
4.63202
4.6324
4.63239
4.63199
4.6308
4.62785
4.62282
4.61524
4.60637
4.59911
4.59201
4.57819
4.6669
4.67233
4.67081
4.67281
4.67996
4.68884
4.69606
4.70067
4.70265
4.70316
4.70259
4.70127
4.69905
4.69561
4.69143
4.68672
4.683
4.68177
4.67791
4.66392
4.78317
4.78961
4.78464
4.77776
4.77573
4.77694
4.77889
4.78024
4.78061
4.78009
4.77907
4.77752
4.7753
4.77192
4.76748
4.76264
4.75928
4.76044
4.76238
4.75729
4.90149
4.90851
4.90121
4.88626
4.87467
4.8676
4.86418
4.86262
4.86174
4.86084
4.85999
4.85924
4.8587
4.85857
4.85943
4.86198
4.86776
4.87821
4.88452
4.87977
5.00136
5.00022
4.98936
4.97336
4.96115
4.95349
4.94946
4.9474
4.94611
4.94522
4.9446
4.94479
4.94614
4.9498
4.95664
4.96836
4.98493
5.00459
5.01406
5.00915
5.10517
5.10671
5.09847
5.08018
5.06379
5.05083
5.04192
5.03659
5.03375
5.03274
5.03315
5.03573
5.04035
5.04833
5.05963
5.07481
5.09339
5.11357
5.12395
5.12477
5.20303
5.21126
5.20919
5.18989
5.16907
5.1503
5.13617
5.12731
5.12284
5.12172
5.12318
5.1279
5.13623
5.1494
5.16697
5.18876
5.2121
5.23344
5.23763
5.23216
5.2774
5.29046
5.2991
5.28642
5.26873
5.24967
5.23298
5.22082
5.21357
5.21103
5.21205
5.21768
5.22722
5.24211
5.26163
5.28397
5.30528
5.31969
5.31029
5.29585
5.31524
5.337
5.36422
5.36457
5.35503
5.33968
5.32312
5.30905
5.29989
5.29578
5.29628
5.30113
5.31005
5.32192
5.33422
5.34361
5.34579
5.33925
5.3123
5.29681
5.3069
5.33121
5.37767
5.39603
5.40343
5.40122
5.39316
5.38346
5.37601
5.37213
5.37179
5.37496
5.3801
5.38512
5.38666
5.38035
5.36552
5.34359
5.29892
5.27783
5.29296
5.30742
5.36519
5.39673
5.42321
5.44067
5.4476
5.44728
5.44478
5.44266
5.44198
5.4418
5.44141
5.43714
5.42664
5.40821
5.38423
5.35698
5.30025
5.28183
5.35877
5.35296
5.41161
5.43282
5.45737
5.48188
5.49867
5.50632
5.50877
5.50905
5.50879
5.50776
5.50407
5.49543
5.48021
5.45904
5.43857
5.4192
5.35883
5.36178
5.55472
5.50808
5.55957
5.54807
5.54404
5.55383
5.56627
5.57377
5.57681
5.57745
5.57739
5.57607
5.57331
5.56727
5.55911
5.55439
5.56121
5.57226
5.51772
5.56293
5.85903
5.74241
5.7942
5.74465
5.69636
5.67309
5.66564
5.66247
5.65977
5.65793
5.65751
5.65931
5.6617
5.66639
5.67675
5.70225
5.75121
5.80107
5.74878
5.86463
6.16603
5.94007
6.01754
5.95267
5.87184
5.81899
5.79089
5.77569
5.76661
5.76185
5.76118
5.76511
5.77392
5.7902
5.81887
5.87196
5.95145
6.01552
5.93738
6.16184
6.34093
5.94033
6.08078
6.05017
5.97821
5.92428
5.89419
5.87785
5.86795
5.86307
5.86224
5.86702
5.87607
5.89307
5.92333
5.97549
6.04469
6.07181
5.9295
6.33052
6.40511
5.73503
5.97239
6.01345
5.97812
5.94152
5.92038
5.90971
5.90324
5.90017
5.9003
5.9037
5.91058
5.92236
5.94345
5.97816
6.01056
5.96668
5.73009
6.40487
6.69612
5.61278
5.93807
6.01415
5.97684
5.93353
5.90869
5.89586
5.88824
5.88464
5.885
5.88962
5.89713
5.91226
5.93509
5.97842
6.01111
5.93689
5.61615
6.70538
7.77567
5.76645
6.01516
6.10525
6.05938
6.0071
5.97915
5.96494
5.95732
5.95291
5.95346
5.9563
5.96294
5.97816
6.00441
6.05815
6.10569
6.01863
5.77066
7.77278
9.77989
5.37033
5.46315
5.84832
5.94099
5.94117
5.93857
5.93783
5.93655
5.93544
5.93542
5.9365
5.93752
5.93846
5.94083
5.94075
5.84829
5.46344
5.37069
9.77952
-0.0282155
-0.0100516
-0.0133503
0.00352156
0.00249109
-0.00421314
-0.00719512
-0.00612103
-0.00380713
-0.00244473
-0.00228928
-0.00365656
-0.00628107
-0.00896735
-0.010488
-0.0105657
-0.0166465
-0.0363122
-0.0317031
-0.0429827
0.046572
0.0652488
0.069602
0.0969397
0.112647
0.114418
0.110645
0.107746
0.106317
0.104351
0.101539
0.0959284
0.0895128
0.0813719
0.0724468
0.0583031
0.0334567
0.00426889
-0.00299224
-0.0299796
0.27423
0.247501
0.238899
0.240808
0.240192
0.235854
0.22958
0.223327
0.218078
0.212792
0.206086
0.19629
0.181762
0.1617
0.136252
0.10887
0.0876732
0.0761918
0.0702319
0.0662333
0.396384
0.36689
0.348169
0.343705
0.343927
0.342364
0.338529
0.333498
0.3285
0.322786
0.315569
0.304894
0.289693
0.267407
0.236059
0.194516
0.144874
0.0989644
0.0837391
0.0941541
0.438059
0.420594
0.405886
0.410543
0.427597
0.444772
0.45405
0.45555
0.452916
0.44885
0.443353
0.436613
0.428201
0.419013
0.40941
0.398444
0.384379
0.367464
0.346523
0.328601
0.526991
0.530558
0.529975
0.537438
0.551308
0.564601
0.573334
0.577413
0.5775
0.576417
0.573754
0.571684
0.570881
0.575081
0.58744
0.610203
0.638324
0.656985
0.645146
0.610576
0.688471
0.710558
0.711257
0.695025
0.685127
0.683654
0.688231
0.694346
0.69888
0.701371
0.702757
0.705138
0.708733
0.715412
0.726152
0.74265
0.760785
0.77102
0.773922
0.769937
0.810543
0.828949
0.834855
0.831481
0.826027
0.822844
0.82276
0.824165
0.825843
0.826945
0.828279
0.830177
0.833844
0.83779
0.840735
0.839858
0.83509
0.82987
0.837317
0.855748
0.938242
0.965271
0.989183
0.992478
0.983629
0.972422
0.963969
0.958351
0.955248
0.95308
0.951633
0.950205
0.948752
0.947016
0.943651
0.935992
0.926197
0.920114
0.925132
0.94037
1.02569
1.03136
1.04795
1.061
1.07081
1.07858
1.08345
1.08586
1.08665
1.0863
1.0851
1.08258
1.07825
1.0705
1.05766
1.04002
1.0188
1.00159
1.0028
1.01752
1.18497
1.16281
1.16668
1.19044
1.21361
1.22917
1.23591
1.23777
1.23686
1.23511
1.23275
1.22985
1.2251
1.21876
1.21082
1.20157
1.19086
1.18099
1.17606
1.17299
1.46484
1.46132
1.45976
1.45185
1.43732
1.42118
1.40804
1.39886
1.39192
1.3875
1.38426
1.38258
1.38188
1.38307
1.38705
1.39561
1.40903
1.42391
1.42164
1.39871
1.6179
1.62864
1.61828
1.59374
1.56557
1.54384
1.53083
1.52386
1.52003
1.51886
1.52
1.52497
1.53401
1.54792
1.56447
1.58106
1.59491
1.6046
1.60758
1.60077
1.62773
1.61041
1.59991
1.61187
1.62162
1.62483
1.62427
1.62392
1.62442
1.62667
1.62998
1.63567
1.64459
1.65851
1.6784
1.70411
1.73199
1.75384
1.7634
1.76509
1.6591
1.64939
1.64589
1.65747
1.67523
1.69091
1.70295
1.71206
1.719
1.72402
1.72766
1.73025
1.73049
1.72854
1.72524
1.72541
1.73292
1.74564
1.76573
1.78851
1.68043
1.67654
1.67844
1.70136
1.73729
1.77376
1.80197
1.81987
1.83086
1.83702
1.84035
1.83994
1.83577
1.82463
1.80498
1.77617
1.74187
1.71669
1.72669
1.75963
1.8344
1.84968
1.86572
1.88537
1.90817
1.92934
1.94698
1.95995
1.96893
1.97413
1.97682
1.97602
1.97104
1.96109
1.94715
1.92825
1.90685
1.8906
1.88171
1.87554
2.11815
2.14925
2.16214
2.14984
2.13347
2.12194
2.11772
2.11873
2.12166
2.12417
2.12546
2.12539
2.12468
2.12363
2.12278
2.12373
2.12783
2.13306
2.11922
2.08392
2.39421
2.40251
2.39811
2.37536
2.34351
2.31557
2.29598
2.28391
2.27747
2.2737
2.27118
2.26958
2.27004
2.27448
2.28196
2.29156
2.30054
2.30324
2.29326
2.2718
2.60088
2.5921
2.57665
2.55045
2.51529
2.48122
2.45456
2.436
2.4244
2.4172
2.41247
2.40864
2.40606
2.40532
2.40815
2.41586
2.42655
2.43231
2.4293
2.42177
2.68326
2.65201
2.63053
2.62458
2.616
2.60071
2.58284
2.56746
2.55692
2.55019
2.54694
2.54545
2.54499
2.54373
2.54141
2.53645
2.52933
2.51958
2.51783
2.5269
2.72614
2.70548
2.69146
2.69032
2.69357
2.69456
2.69114
2.68525
2.67982
2.67635
2.67487
2.67477
2.676
2.67715
2.67867
2.6799
2.68116
2.68119
2.67734
2.67593
2.73421
2.71915
2.71376
2.73188
2.75835
2.78174
2.79701
2.80311
2.80376
2.80296
2.80253
2.8026
2.8025
2.80265
2.80351
2.80427
2.80383
2.80205
2.80164
2.80578
2.82629
2.83749
2.84743
2.86652
2.8897
2.90934
2.92306
2.93065
2.93342
2.93395
2.93411
2.93483
2.93636
2.93735
2.93712
2.93481
2.93011
2.92516
2.92618
2.93243
3.01377
3.05269
3.06553
3.05722
3.05151
3.0514
3.05423
3.05737
3.05956
3.06041
3.06129
3.06298
3.06602
3.06986
3.07336
3.07493
3.07395
3.0715
3.07165
3.07315
3.17593
3.20155
3.20868
3.19929
3.18709
3.18016
3.17765
3.17737
3.17783
3.17833
3.17888
3.17962
3.18169
3.18531
3.19203
3.20308
3.21819
3.23141
3.2343
3.22612
3.28002
3.29291
3.29919
3.29653
3.28979
3.28586
3.28551
3.28706
3.28904
3.29035
3.29041
3.28958
3.28695
3.28363
3.28062
3.282
3.29258
3.3095
3.31865
3.31067
3.31478
3.30439
3.30908
3.33224
3.35574
3.3769
3.39357
3.4047
3.41115
3.41433
3.41556
3.41464
3.41185
3.40482
3.39048
3.36579
3.33218
3.30344
3.30545
3.32609
3.44333
3.44418
3.46049
3.48694
3.50904
3.52593
3.53798
3.54663
3.55204
3.55538
3.5575
3.55895
3.55924
3.5579
3.5546
3.54744
3.53552
3.52237
3.51052
3.50452
3.68875
3.71142
3.72732
3.72403
3.71504
3.70585
3.69999
3.6987
3.69955
3.70137
3.70284
3.70489
3.70767
3.7129
3.72246
3.73819
3.75799
3.7742
3.7672
3.74067
3.91155
3.91656
3.91437
3.90231
3.885
3.86809
3.85525
3.84761
3.84405
3.84295
3.84299
3.84465
3.84794
3.85534
3.86734
3.88361
3.90122
3.91439
3.91584
3.90296
4.08625
4.08239
4.0717
4.05396
4.0315
4.01131
3.99639
3.98625
3.97999
3.97702
3.97574
3.97535
3.97489
3.97325
3.97014
3.96817
3.96995
3.97465
3.9809
3.9852
4.15385
4.13457
4.11973
4.11617
4.11586
4.11512
4.11275
4.10936
4.10658
4.10479
4.10458
4.1046
4.1045
4.10124
4.09134
4.07122
4.04233
4.01725
4.01831
4.03911
4.19797
4.17416
4.17294
4.19906
4.22455
4.23774
4.2404
4.23824
4.2354
4.23373
4.23368
4.23461
4.23689
4.2399
4.24461
4.2483
4.24694
4.24146
4.23214
4.22441
4.3471
4.3586
4.36815
4.3688
4.36978
4.36897
4.367
4.36344
4.35979
4.35692
4.35519
4.35454
4.35403
4.35584
4.36303
4.3803
4.40677
4.42894
4.4249
4.40035
4.47153
4.48151
4.47329
4.45931
4.45806
4.46464
4.4725
4.47745
4.47946
4.47907
4.47754
4.47508
4.47157
4.46536
4.45501
4.44232
4.4332
4.43022
4.43408
4.43729
4.57609
4.57295
4.56293
4.56457
4.57482
4.58774
4.59909
4.60668
4.61118
4.61236
4.61238
4.61034
4.60667
4.59818
4.58156
4.55173
4.513
4.48217
4.47935
4.49771
4.73918
4.74929
4.7511
4.75227
4.75161
4.75127
4.75277
4.75459
4.75625
4.75729
4.75845
4.75899
4.75999
4.76101
4.76342
4.76503
4.76118
4.75324
4.74091
4.72922
4.925
4.94098
4.94749
4.94439
4.93412
4.92095
4.91008
4.90353
4.90036
4.89954
4.90033
4.90351
4.90889
4.91979
4.93913
4.97036
5.00762
5.03432
5.02795
4.99384
5.07689
5.09167
5.09463
5.08389
5.0689
5.05453
5.04209
5.03336
5.02815
5.0264
5.02692
5.03016
5.03588
5.0446
5.05694
5.07503
5.09624
5.11175
5.11782
5.11204
5.14465
5.14674
5.14458
5.14132
5.1402
5.14197
5.14277
5.14206
5.14055
5.1395
5.13952
5.14076
5.14278
5.14359
5.14069
5.13251
5.12246
5.11677
5.12512
5.14333
5.20072
5.19138
5.19333
5.21316
5.23621
5.25353
5.26157
5.26363
5.26218
5.25972
5.2563
5.25204
5.24604
5.2368
5.22246
5.20175
5.18009
5.16759
5.17014
5.18213
5.36169
5.37871
5.39058
5.39446
5.39671
5.39829
5.39971
5.3998
5.39837
5.39565
5.39252
5.38773
5.3793
5.36495
5.34389
5.31654
5.28657
5.26431
5.2605
5.2657
5.51255
5.53467
5.5414
5.53472
5.53024
5.53199
5.53785
5.54264
5.54493
5.54505
5.54456
5.54354
5.54211
5.53943
5.53615
5.53262
5.52702
5.51967
5.5085
5.49142
5.64666
5.64636
5.6536
5.6756
5.69493
5.70571
5.70885
5.70806
5.70591
5.70405
5.70262
5.70365
5.70785
5.7191
5.73893
5.76868
5.80264
5.82718
5.81931
5.78102
5.90396
5.92815
5.94153
5.93391
5.91451
5.8934
5.87666
5.86572
5.85907
5.85634
5.85653
5.8607
5.86864
5.88216
5.9014
5.92522
5.94868
5.96433
5.96892
5.9575
6.06075
6.07981
6.07618
6.0481
6.0166
5.99563
5.98545
5.98256
5.98358
5.98743
5.99418
6.00457
6.0182
6.03381
6.04857
6.06025
6.06904
6.0747
6.08268
6.09101
6.05522
6.02847
6.01364
6.02594
6.04696
6.06819
6.08319
6.09352
6.10124
6.10932
6.1178
6.12859
6.14141
6.15622
6.1709
6.18475
6.19844
6.21081
6.21752
6.21721
6.15442
6.13537
6.13698
6.16281
6.19111
6.21099
6.22157
6.22666
6.22946
6.23262
6.23606
6.24011
6.24335
6.24599
6.24677
6.24601
6.2449
6.24632
6.25233
6.25469
6.406
6.42944
6.44148
6.43144
6.41264
6.39299
6.37858
6.36852
6.36115
6.35605
6.35184
6.3473
6.34014
6.32802
6.30893
6.28371
6.25762
6.23978
6.23778
6.24064
6.59496
6.62371
6.62251
6.59455
6.5614
6.5319
6.50964
6.49372
6.48272
6.4745
6.46785
6.45981
6.44774
6.42811
6.39946
6.36209
6.32125
6.2886
6.27394
6.26709
6.611
6.60808
6.60021
6.60179
6.60553
6.60698
6.60464
6.60075
6.59683
6.59302
6.58922
6.5838
6.57568
6.56351
6.54845
6.53147
6.51178
6.49077
6.46596
6.43505
6.6086
6.59242
6.59333
6.62593
6.66703
6.70089
6.72001
6.72783
6.72869
6.72711
6.72384
6.72035
6.71685
6.71637
6.72108
6.73398
6.75117
6.75998
6.73671
6.68322
6.76508
6.78224
6.80016
6.82286
6.84621
6.8648
6.87594
6.88083
6.88072
6.87868
6.87592
6.87416
6.87377
6.87546
6.87884
6.88489
6.89155
6.89122
6.88082
6.85657
7.01935
7.06207
7.07648
7.06678
7.05383
7.04536
7.04156
7.03984
7.03792
7.0357
7.03482
7.03647
7.04104
7.04709
7.05258
7.05478
7.05337
7.0462
7.04141
7.03975
7.24503
7.27196
7.27466
7.25938
7.23704
7.21761
7.20367
7.195
7.18991
7.18803
7.18888
7.19344
7.20179
7.21452
7.23092
7.24821
7.26352
7.27241
7.27326
7.26648
7.39124
7.398
7.39224
7.38024
7.36345
7.34801
7.33665
7.32998
7.32719
7.3283
7.33247
7.34059
7.35174
7.36603
7.38175
7.39807
7.41275
7.42385
7.43481
7.43518
7.42737
7.40358
7.39189
7.40884
7.42977
7.44606
7.4547
7.45796
7.45889
7.46141
7.46579
7.47347
7.48339
7.49453
7.50344
7.50852
7.50995
7.51271
7.52678
7.53393
7.53116
7.52136
7.52285
7.54818
7.57398
7.58992
7.59533
7.59476
7.59211
7.59089
7.59203
7.59594
7.60027
7.60297
7.60094
7.59248
7.57855
7.56885
7.57785
7.58337
7.73036
7.76194
7.7692
7.75759
7.74539
7.73581
7.72887
7.72298
7.71762
7.71346
7.71083
7.70866
7.7052
7.69881
7.68971
7.67924
7.6675
7.6602
7.66277
7.65328
7.84226
7.86578
7.85781
7.84011
7.83247
7.83415
7.83796
7.83972
7.83842
7.8355
7.83132
7.82547
7.81565
7.80206
7.78652
7.77413
7.77059
7.7786
7.78206
7.75383
7.90247
7.89723
7.89283
7.91422
7.93984
7.95825
7.96686
7.96968
7.96932
7.96774
7.96584
7.96294
7.95814
7.9484
7.93122
7.90868
7.88707
7.8764
7.87628
7.85576
8.07713
8.0983
8.10314
8.10197
8.10086
8.10089
8.1022
8.10377
8.10429
8.10413
8.10431
8.10542
8.10753
8.11055
8.11223
8.10994
8.10362
8.09482
8.08137
8.0463
8.2238
8.24969
8.24624
8.23056
8.2212
8.22271
8.23007
8.23725
8.24184
8.24392
8.24495
8.24584
8.24831
8.25343
8.26244
8.27584
8.2899
8.29495
8.28473
8.25052
8.34114
8.34168
8.33845
8.35513
8.3731
8.38601
8.39296
8.3956
8.39618
8.39568
8.39512
8.39485
8.39467
8.39585
8.3997
8.40646
8.41563
8.4222
8.42377
8.40665
8.59923
8.62664
8.63096
8.62006
8.60215
8.58511
8.57284
8.56415
8.55829
8.5543
8.55311
8.5536
8.55621
8.5584
8.55947
8.55785
8.55246
8.54392
8.54635
8.54318
8.81192
8.84284
8.8349
8.80318
8.76789
8.74158
8.72574
8.71696
8.71181
8.70952
8.70986
8.71354
8.71981
8.72851
8.73881
8.74864
8.75707
8.76146
8.76321
8.74555
8.91232
8.91114
8.89752
8.89843
8.89509
8.88637
8.87648
8.86988
8.8663
8.86595
8.8681
8.87338
8.8821
8.89513
8.91204
8.93077
8.94679
8.95649
8.96265
8.94245
9.06788
9.07741
9.07126
9.06818
9.06076
9.0498
9.03863
9.03036
9.02542
9.0246
9.02725
9.03472
9.0458
9.06174
9.08124
9.10167
9.11986
9.13216
9.14119
9.12137
9.22628
9.24177
9.23752
9.23746
9.23139
9.22097
9.20813
9.19559
9.18633
9.1823
9.18337
9.18945
9.19985
9.21281
9.22691
9.2405
9.25127
9.25873
9.26924
9.25368
9.39494
9.42931
9.42945
9.42243
9.4055
9.38358
9.36326
9.34712
9.33651
9.33154
9.33213
9.33804
9.34685
9.35637
9.36276
9.36293
9.35757
9.35183
9.35884
9.34289
9.4881
9.53247
9.53075
9.52111
9.50894
9.4967
9.48676
9.47948
9.47562
9.47526
9.4793
9.48671
9.49692
9.50668
9.51143
9.5069
9.49176
9.47393
9.47067
9.44397
9.511
9.5363
9.54089
9.57566
9.60647
9.62214
9.62437
9.62109
9.61772
9.61798
9.62253
9.63173
9.6434
9.65685
9.66974
9.67813
9.67862
9.66947
9.6568
9.60571
9.68438
9.74868
9.77429
9.79492
9.80133
9.79454
9.78133
9.76833
9.75813
9.75306
9.75238
9.75554
9.7615
9.76902
9.77864
9.79244
9.80991
9.82123
9.80975
9.7351
9.83313
9.9187
9.94466
9.94698
9.93712
9.92118
9.90461
9.8894
9.87799
9.87028
9.86625
9.86397
9.86074
9.85271
9.83667
9.81217
9.78535
9.7637
9.75551
9.70767
9.83856
9.89501
9.91042
9.93838
9.96681
9.98604
9.99392
9.9933
9.99046
9.98673
9.98455
9.98059
9.97448
9.95916
9.93007
9.8819
9.81935
9.7644
9.74398
9.70881
9.88157
9.92083
9.93895
9.99003
10.0457
10.0877
10.1101
10.1182
10.119
10.1174
10.1159
10.1137
10.1093
10.0995
10.0838
10.0599
10.0276
9.9935
9.96167
9.8931
10.093
10.1606
10.1855
10.2143
10.2403
10.2573
10.2648
10.2654
10.262
10.2577
10.2535
10.2492
10.245
10.2402
10.2382
10.2411
10.2473
10.2493
10.227
10.1377
10.3038
10.3864
10.3989
10.396
10.3944
10.395
10.3968
10.3966
10.3947
10.3913
10.3878
10.3834
10.378
10.3716
10.3664
10.3619
10.3583
10.3562
10.3524
10.2966
10.373
10.4167
10.4085
10.4192
10.4469
10.477
10.5008
10.515
10.5225
10.525
10.5259
10.5246
10.523
10.5182
10.5101
10.4979
10.4855
10.4798
10.4854
10.4573
10.4606
10.4806
10.4695
10.4947
10.5429
10.5916
10.6285
10.6518
10.6644
10.6703
10.6725
10.673
10.6729
10.6722
10.6713
10.6709
10.6741
10.6871
10.7001
10.6703
10.7197
10.7588
10.7479
10.7403
10.7523
10.7733
10.7961
10.8149
10.8268
10.8331
10.8356