/*--------------------------------*- C++ -*----------------------------------*\
  =========                 |
  \\      /  F ield         | OpenFOAM: The Open Source CFD Toolbox
   \\    /   O peration     | Website:  https://openfoam.org
    \\  /    A nd           | Version:  6
     \\/     M anipulation  |
\*---------------------------------------------------------------------------*/
FoamFile
{
    version     2.0;
    format      ascii;
    class       volScalarField;
    location    "19";
    object      p;
}
// * * * * * * * * * * * * * * * * * * * * * * * * * * * * * * * * * * * * * //

dimensions      [0 2 -2 0 0 0 0];

internalField   nonuniform List<scalar> 
130000
(
0.00683659
0.00603978
0.00549223
0.00507446
0.00471055
0.00438491
0.0040932
0.0038264
0.00358168
0.0033522
0.00313553
0.00292739
0.00272527
0.00252629
0.00233061
0.00213516
0.00194122
0.00174558
0.00154533
0.00135011
0.00948296
0.00900813
0.00849066
0.00808078
0.00770093
0.00735124
0.00701112
0.00668528
0.00636397
0.00604798
0.00573391
0.00541996
0.00510764
0.00479502
0.00448255
0.00417092
0.00386158
0.00354884
0.00323065
0.00291317
0.01263
0.0120604
0.0114367
0.010922
0.0104284
0.00996815
0.009514
0.00907898
0.00864775
0.00822578
0.00780731
0.00739339
0.00698409
0.00657502
0.00617411
0.00577124
0.00537858
0.00498171
0.00458819
0.00419024
0.0151938
0.0146961
0.0141009
0.013569
0.0130273
0.0124972
0.0119612
0.0114348
0.0109065
0.0103825
0.00986154
0.00934225
0.00883088
0.00832092
0.00782022
0.0073207
0.00683425
0.00634558
0.0058684
0.00539025
0.0173242
0.016944
0.0164214
0.0159177
0.0153758
0.0148222
0.0142511
0.0136752
0.0130903
0.0124991
0.0119072
0.0113102
0.0107197
0.0101235
0.00954166
0.00895364
0.00838495
0.0078103
0.00725484
0.00669345
0.0191885
0.0188712
0.0184027
0.0179275
0.0173968
0.0168355
0.0162484
0.0156414
0.0150189
0.0143774
0.0137319
0.013071
0.0124173
0.0117526
0.0111012
0.010442
0.00980373
0.00915722
0.00853393
0.00790203
0.0207775
0.0205432
0.0201325
0.0196918
0.0191821
0.0186228
0.0180307
0.0174028
0.0167541
0.0160729
0.0153848
0.0146719
0.013965
0.0132378
0.0125281
0.0118012
0.0111005
0.0103861
0.00970069
0.00899764
0.0222567
0.0220643
0.0216997
0.0212952
0.0208102
0.0202563
0.0196633
0.019021
0.0183539
0.0176423
0.0169217
0.0161657
0.0154165
0.0146406
0.0138808
0.0131007
0.0123475
0.011577
0.0108388
0.0100792
0.0236218
0.0234455
0.023107
0.0227312
0.022265
0.0217157
0.0211227
0.0204699
0.0197888
0.0190533
0.0183062
0.0175157
0.0167302
0.0159089
0.015107
0.0142748
0.0134736
0.0126487
0.0118602
0.0110402
0.0248145
0.0246773
0.0243789
0.0240347
0.0235922
0.0230508
0.0224619
0.0218027
0.0211126
0.0203582
0.0195909
0.0187707
0.0179562
0.0170999
0.0162612
0.0153887
0.0145475
0.0136778
0.0128468
0.0119795
0.025975
0.0258427
0.025561
0.0252324
0.0248021
0.0242619
0.0236742
0.0230076
0.0223094
0.0215382
0.020753
0.0199077
0.0190671
0.018176
0.0173055
0.0163917
0.0155125
0.0145984
0.0137259
0.0128069
0.0269768
0.0268806
0.0266322
0.0263301
0.0259202
0.0253861
0.0248032
0.0241325
0.0234293
0.0226442
0.0218449
0.0209768
0.0201147
0.0191963
0.0182973
0.0173511
0.0164399
0.0154888
0.0145813
0.0136218
0.0279966
0.0278853
0.0276439
0.0273559
0.0269553
0.0264215
0.0258387
0.0251625
0.024453
0.023655
0.0228417
0.0219539
0.0210709
0.0201241
0.0191992
0.0182185
0.0172754
0.0162864
0.0153431
0.0143381
0.0288766
0.0287957
0.0285805
0.0283148
0.0279272
0.0273983
0.0268185
0.0261395
0.0254258
0.0246169
0.0237921
0.0228855
0.0219848
0.0210153
0.0200663
0.019058
0.0180873
0.0170662
0.016092
0.0150509
0.0297327
0.0296726
0.0294759
0.0292192
0.0288378
0.028309
0.0277304
0.0270471
0.0263287
0.025509
0.024672
0.0237488
0.0228296
0.0218358
0.0208636
0.019825
0.0188255
0.0177709
0.0167637
0.0156818
0.0305608
0.0305174
0.0303388
0.0300946
0.0297197
0.0291923
0.0286145
0.0279279
0.0272045
0.0263748
0.0255267
0.0245867
0.0236509
0.0226367
0.021642
0.0205786
0.0195531
0.0184689
0.0174323
0.0163171
0.0313421
0.0313141
0.0311515
0.0309227
0.0305539
0.0300284
0.0294508
0.0287615
0.0280324
0.0271938
0.0263333
0.0253789
0.0244249
0.0233892
0.0223717
0.0212814
0.0202277
0.0191132
0.0180441
0.0168918
0.0321509
0.0321177
0.0319618
0.0317496
0.0313841
0.0308597
0.0302806
0.029589
0.0288535
0.0280062
0.0271336
0.0261643
0.0251932
0.0241387
0.0230988
0.0219849
0.0209052
0.0197627
0.0186637
0.0174793
0.0328773
0.0328718
0.0327364
0.0325409
0.0321824
0.0316607
0.0310818
0.0303894
0.0296482
0.0287935
0.0279083
0.0269264
0.0259368
0.0248632
0.0237999
0.0226617
0.0215533
0.0203829
0.0192508
0.0180326
0.0336435
0.0336548
0.0335348
0.0333512
0.0329972
0.0324756
0.0318946
0.0312007
0.0304536
0.0295913
0.028694
0.0276983
0.0266914
0.0255999
0.0245137
0.0233527
0.0222175
0.0210198
0.0198566
0.0186066
0.0343861
0.0344175
0.0343173
0.0341508
0.0338043
0.0332864
0.0327038
0.0320096
0.0312567
0.0303888
0.0294782
0.0284713
0.0274452
0.0263368
0.0252264
0.0240433
0.0228785
0.0216549
0.0204574
0.0191757
0.0351822
0.0352207
0.0351287
0.0349821
0.0346405
0.0341275
0.0335415
0.0328463
0.0320863
0.0312127
0.0302894
0.0292702
0.0282259
0.0271001
0.0259661
0.0247604
0.0235676
0.0223164
0.0210858
0.0197716
0.0359756
0.0360364
0.0359598
0.0358324
0.0354963
0.0349896
0.0344011
0.0337066
0.0329387
0.0320614
0.0311243
0.0300957
0.0290313
0.0278904
0.0267309
0.0255049
0.0242809
0.0230055
0.0217386
0.0203946
0.0368032
0.0368916
0.0368327
0.0367253
0.0363958
0.0358956
0.0353056
0.0346116
0.0338357
0.0329534
0.0320036
0.0309637
0.0298809
0.0287229
0.0275391
0.02629
0.0250367
0.0237329
0.0224309
0.0210529
0.037692
0.0377945
0.0377522
0.0376646
0.0373426
0.0368502
0.0362591
0.0355673
0.0347835
0.0338977
0.0329345
0.0318867
0.0307839
0.0296119
0.0284017
0.0271333
0.0258476
0.0245206
0.0231806
0.0217735
0.0386
0.0387373
0.0387148
0.0386569
0.0383463
0.0378651
0.0372753
0.036587
0.035797
0.0349064
0.0339309
0.0328724
0.0317518
0.0305628
0.0293278
0.0280357
0.0267199
0.0253635
0.0239869
0.0225435
0.0396269
0.0397775
0.039772
0.0397339
0.039433
0.0389605
0.0383727
0.0376879
0.0368925
0.0359981
0.0350094
0.0339422
0.0328021
0.0315985
0.0303374
0.0290251
0.0276764
0.0262957
0.02488
0.0234054
0.0406676
0.0408623
0.0408892
0.0408803
0.0405977
0.0401377
0.0395566
0.0388763
0.0380786
0.0371797
0.0361797
0.0351003
0.0339426
0.0327211
0.0314356
0.0300986
0.0287193
0.0273076
0.0258544
0.0243409
0.0418755
0.0420832
0.0421332
0.0421447
0.0418768
0.0414263
0.0408513
0.040175
0.0393755
0.0384729
0.0374615
0.0363714
0.0351949
0.0339567
0.0326458
0.0312859
0.0298736
0.028434
0.026941
0.0253915
0.0431216
0.0433766
0.0434642
0.0435092
0.0432635
0.0428278
0.0422625
0.0415921
0.040793
0.0398866
0.0388659
0.0377629
0.0365695
0.035312
0.0339765
0.03259
0.0311465
0.0296731
0.0281414
0.0265496
0.0445595
0.0448347
0.0449485
0.0450188
0.0447908
0.0443675
0.0438108
0.0431461
0.0423475
0.0414384
0.0404082
0.0392937
0.0380816
0.0368045
0.0354431
0.0340299
0.0325525
0.0310468
0.0294738
0.02784
0.0460707
0.046396
0.046551
0.0466591
0.0464568
0.0460511
0.045507
0.0448501
0.0440543
0.0431428
0.0421051
0.0409773
0.039748
0.0384496
0.0370625
0.0356203
0.0341102
0.0325677
0.0309544
0.0292744
0.0477893
0.0481395
0.0483275
0.0484657
0.0482863
0.0478963
0.0473645
0.0467153
0.0459226
0.0450095
0.0439644
0.0428253
0.0415778
0.0402577
0.0388438
0.0373715
0.0358256
0.0342465
0.0325895
0.0308618
0.0496118
0.0500173
0.0502531
0.050434
0.0502853
0.0499163
0.0494008
0.0487617
0.0479743
0.0470601
0.0460098
0.0448588
0.0435957
0.0422539
0.0408136
0.0393099
0.0377294
0.0361101
0.03441
0.0326316
0.0516626
0.0521026
0.0523788
0.0525958
0.0524757
0.0521267
0.0516279
0.0509992
0.0502179
0.0493036
0.0482481
0.047087
0.0458076
0.044444
0.0429765
0.0414404
0.0398221
0.0381619
0.0364145
0.0345823
0.0538503
0.0543541
0.0546857
0.0549522
0.0548695
0.0545467
0.0540691
0.053454
0.0526814
0.0517678
0.050709
0.0495368
0.0482432
0.0468582
0.0453645
0.0437956
0.0421407
0.0404368
0.0386422
0.0367535
0.0563
0.056845
0.0572262
0.0575362
0.0574896
0.0571923
0.0567371
0.0561365
0.0553739
0.0544625
0.0534006
0.0522191
0.05091
0.0495031
0.0479823
0.0463792
0.0446843
0.042936
0.0410899
0.0391413
0.0589173
0.0595364
0.0599834
0.0603514
0.06035
0.0600856
0.0596578
0.0590757
0.0583263
0.057419
0.0563564
0.0551649
0.0538424
0.0524138
0.050866
0.0492285
0.0474946
0.0456991
0.0438017
0.0417908
0.0618323
0.0625054
0.0630116
0.0634326
0.0634755
0.0632443
0.0628453
0.0622834
0.0615489
0.0606475
0.0595847
0.0583857
0.0570486
0.0555977
0.0540218
0.052348
0.0505714
0.0487272
0.0467738
0.0446967
0.0649508
0.0657112
0.0662943
0.0667841
0.0668816
0.0666916
0.0663274
0.0657904
0.0650743
0.0641812
0.0631212
0.0619143
0.0605651
0.0590924
0.0574887
0.0557782
0.0539597
0.052064
0.0500546
0.0479091
0.0684083
0.0692341
0.0698892
0.0704431
0.0705952
0.0704473
0.0701202
0.0696102
0.0689151
0.0680326
0.0669763
0.0657643
0.0644021
0.0629073
0.061275
0.0595261
0.0576621
0.0557136
0.0536434
0.051425
0.0721029
0.073032
0.0737788
0.0744143
0.0746324
0.0745361
0.0742529
0.0737757
0.0731058
0.0722371
0.071188
0.0699713
0.0685991
0.0670834
0.0654229
0.0636358
0.0617272
0.0597231
0.057592
0.0552982
0.0761787
0.07719
0.0780234
0.0787369
0.0790222
0.0789794
0.0787435
0.0783022
0.077661
0.0768093
0.075769
0.074551
0.0731685
0.0716318
0.0699428
0.0681158
0.066159
0.0640978
0.0619006
0.0595263
0.0805311
0.0816631
0.082605
0.0834161
0.083782
0.0838035
0.083623
0.0832246
0.0826174
0.0817867
0.0807597
0.0795414
0.0781521
0.0765962
0.0748794
0.0730129
0.071009
0.068888
0.0666243
0.0641669
0.0853084
0.0865399
0.0875878
0.088494
0.0889429
0.0890316
0.0889112
0.0885598
0.0879912
0.0871857
0.0861744
0.0849602
0.0835645
0.0819898
0.0802452
0.0783378
0.0762832
0.0741008
0.0717651
0.0692191
0.0904079
0.0917791
0.0929553
0.0939775
0.0945234
0.0946917
0.0946405
0.0943446
0.093821
0.0930462
0.092056
0.090848
0.0894501
0.0878592
0.0860882
0.0841407
0.0820367
0.0797902
0.0773821
0.0747444
0.0959672
0.0974637
0.0987674
0.0999062
0.100553
0.100807
0.100831
0.100597
0.100124
0.0993857
0.0984204
0.0972241
0.0958255
0.0942199
0.0924229
0.0904346
0.0882778
0.0859657
0.0834796
0.0807445
0.101899
0.103559
0.105012
0.10629
0.107054
0.107406
0.107517
0.107354
0.106941
0.106246
0.105313
0.104132
0.102738
0.101121
0.0993005
0.0972728
0.0950649
0.0926849
0.09012
0.0872841
0.108321
0.110134
0.111742
0.113163
0.114051
0.114511
0.114717
0.114635
0.114289
0.113646
0.11275
0.111592
0.110206
0.108581
0.106738
0.104671
0.102409
0.0999603
0.097311
0.0943683
0.115159
0.117163
0.118949
0.120537
0.121568
0.12215
0.122465
0.122477
0.122209
0.121627
0.120778
0.119649
0.118278
0.11665
0.114789
0.112685
0.110372
0.107852
0.105118
0.102064
0.122509
0.124702
0.126677
0.12844
0.129625
0.130343
0.13078
0.130897
0.130719
0.13021
0.129416
0.128326
0.126975
0.12535
0.123474
0.121335
0.118968
0.116377
0.113552
0.110381
0.130308
0.132729
0.134917
0.136883
0.138243
0.139118
0.139693
0.139933
0.139859
0.139436
0.138711
0.137668
0.136348
0.134733
0.132847
0.130677
0.12826
0.125596
0.12268
0.119388
0.138637
0.141287
0.143704
0.145887
0.14744
0.148488
0.149219
0.1496
0.149647
0.149326
0.148681
0.1477
0.14642
0.144823
0.142932
0.140736
0.138268
0.135531
0.132518
0.129099
0.147432
0.150351
0.153027
0.155458
0.157229
0.158476
0.159388
0.159931
0.160119
0.159918
0.159372
0.158467
0.15724
0.155672
0.153786
0.151568
0.149055
0.146244
0.143135
0.139582
0.156755
0.159954
0.162908
0.165609
0.167621
0.169092
0.170208
0.170938
0.17129
0.171233
0.170805
0.169995
0.168835
0.167309
0.165436
0.163204
0.160645
0.157763
0.154552
0.15086
0.166533
0.170055
0.173322
0.176331
0.17862
0.180349
0.181701
0.18265
0.183195
0.183308
0.183022
0.182328
0.181255
0.179786
0.177939
0.1757
0.173103
0.17015
0.166836
0.162997
0.176806
0.180668
0.184278
0.187624
0.190224
0.192246
0.19387
0.195073
0.195845
0.19616
0.196044
0.195493
0.194527
0.193134
0.191326
0.189091
0.186459
0.183437
0.180015
0.176022
0.187481
0.191734
0.19573
0.199465
0.202422
0.204785
0.206727
0.208227
0.209267
0.209823
0.209913
0.209535
0.208704
0.207408
0.205655
0.203435
0.200777
0.197686
0.194155
0.19
0.198573
0.203244
0.207668
0.211835
0.215198
0.217954
0.220264
0.222115
0.22347
0.224313
0.224649
0.224482
0.223814
0.222642
0.220963
0.218772
0.216091
0.212935
0.209289
0.204961
0.209965
0.215111
0.220023
0.224689
0.228525
0.23174
0.234483
0.236745
0.238474
0.239657
0.240287
0.240371
0.239905
0.238885
0.237303
0.235155
0.232464
0.229241
0.225478
0.220965
0.221635
0.227302
0.23276
0.237991
0.242369
0.246116
0.249363
0.252107
0.254274
0.255859
0.256837
0.257223
0.256997
0.256162
0.254701
0.252617
0.24992
0.246637
0.242748
0.238038
0.233447
0.239705
0.245788
0.251672
0.25668
0.261046
0.26488
0.268183
0.270861
0.272913
0.274298
0.275036
0.275097
0.274486
0.273177
0.271175
0.26849
0.265148
0.261133
0.256214
0.245328
0.252248
0.259039
0.265667
0.271395
0.276468
0.280971
0.284912
0.288171
0.290754
0.292603
0.293748
0.294138
0.293793
0.292668
0.290778
0.288121
0.284736
0.280596
0.275464
0.257116
0.264785
0.272385
0.279861
0.286407
0.292274
0.297524
0.302168
0.306063
0.309228
0.311586
0.313179
0.313944
0.313905
0.313005
0.311265
0.308672
0.305268
0.301027
0.295692
0.268661
0.277172
0.285686
0.294105
0.301548
0.30827
0.314308
0.319686
0.324237
0.328001
0.330883
0.332948
0.334112
0.334416
0.333785
0.332246
0.329767
0.326402
0.322105
0.316612
0.279781
0.2892
0.298714
0.308155
0.316538
0.324125
0.330937
0.337012
0.342177
0.346494
0.349868
0.352381
0.353946
0.354615
0.354295
0.353021
0.350737
0.347498
0.343241
0.337682
0.290192
0.300589
0.311151
0.321622
0.330918
0.339292
0.346769
0.353416
0.359064
0.363814
0.367573
0.370462
0.372379
0.373407
0.373425
0.372483
0.370486
0.3675
0.363417
0.357945
0.299634
0.310995
0.322564
0.333967
0.344033
0.353009
0.36094
0.367924
0.373831
0.378803
0.382772
0.385892
0.388067
0.389404
0.38976
0.389199
0.387584
0.384982
0.38124
0.376041
0.307538
0.319862
0.332342
0.344467
0.355025
0.36429
0.372356
0.379366
0.385238
0.390164
0.394108
0.39727
0.399553
0.401099
0.401742
0.401563
0.400376
0.398262
0.394995
0.390241
0.313504
0.326627
0.339803
0.35234
0.363019
0.372171
0.379985
0.386655
0.392165
0.396753
0.400425
0.403406
0.405616
0.407224
0.408043
0.408178
0.407394
0.405776
0.403032
0.398809
0.316654
0.330466
0.344093
0.356693
0.367098
0.37573
0.382912
0.388896
0.393746
0.39773
0.400891
0.403482
0.405425
0.406907
0.407733
0.40802
0.407493
0.40625
0.403933
0.400176
0.316614
0.330824
0.344588
0.356889
0.366662
0.374438
0.380689
0.385721
0.389684
0.392857
0.395323
0.397329
0.398816
0.399966
0.400575
0.400771
0.400247
0.39911
0.396971
0.393446
0.312477
0.326972
0.340655
0.352406
0.361313
0.368036
0.373205
0.377155
0.380105
0.382335
0.383965
0.385226
0.386061
0.386642
0.386769
0.386542
0.385654
0.384227
0.381858
0.378143
0.304342
0.318849
0.332245
0.343288
0.351232
0.356859
0.360937
0.363803
0.365725
0.366955
0.367648
0.368006
0.368002
0.36777
0.367104
0.366083
0.364404
0.362199
0.35909
0.354645
0.291672
0.306216
0.319322
0.329688
0.33674
0.341373
0.344472
0.34635
0.347305
0.347535
0.34723
0.346551
0.345501
0.34416
0.342359
0.340105
0.337144
0.333592
0.329135
0.323288
0.27512
0.289569
0.302416
0.312239
0.318596
0.322453
0.324766
0.325805
0.325889
0.32515
0.323808
0.321952
0.319642
0.316895
0.313578
0.309646
0.304879
0.299378
0.292918
0.284963
0.254337
0.268924
0.281753
0.291325
0.297297
0.300685
0.302487
0.302896
0.302243
0.300574
0.298142
0.294964
0.291149
0.286633
0.281378
0.275234
0.268073
0.259928
0.250718
0.239814
0.230149
0.244899
0.257945
0.26761
0.273571
0.276863
0.27848
0.278516
0.277282
0.274742
0.271187
0.266528
0.260941
0.25428
0.246598
0.237675
0.227458
0.215913
0.203123
0.188376
0.201868
0.217207
0.230921
0.241183
0.247642
0.251307
0.253141
0.253125
0.251546
0.248246
0.243548
0.237246
0.229589
0.220316
0.209645
0.197214
0.183128
0.167226
0.149815
0.130059
0.169828
0.185953
0.200787
0.212235
0.219802
0.224445
0.227033
0.227409
0.225804
0.221935
0.216145
0.208079
0.198061
0.18571
0.171391
0.154643
0.135703
0.114292
0.0909887
0.0648788
0.132412
0.149998
0.166695
0.180179
0.189721
0.196171
0.200267
0.201683
0.200562
0.196452
0.189711
0.179797
0.167122
0.151138
0.132426
0.110303
0.0852459
0.0568155
0.0259978
-0.00827161
0.088971
0.1085
0.127916
0.144507
0.157155
0.16655
0.173195
0.176565
0.176665
0.172853
0.165459
0.153726
0.138155
0.118
0.094013
0.0653135
0.0326252
-0.00457493
-0.0449061
-0.0895798
0.0365501
0.0591504
0.0826517
0.103932
0.121296
0.135201
0.145849
0.152447
0.154808
0.152056
0.144476
0.131039
0.112345
0.0873788
0.0571334
0.0204045
-0.0216796
-0.0699152
-0.122403
-0.180462
-0.026626
0.00013011
0.0294259
0.0574518
0.0816583
0.102137
0.118656
0.130129
0.136098
0.135419
0.128296
0.113406
0.0914411
0.0610722
0.023481
-0.0228145
-0.0764091
-0.138372
-0.206122
-0.280975
-0.104575
-0.0715899
-0.0339415
0.00367528
0.0375379
0.0672527
0.0920236
0.110382
0.121594
0.124212
0.118305
0.102171
0.076604
0.039937
-0.00629501
-0.0640735
-0.131624
-0.210406
-0.29708
-0.393109
-0.199216
-0.157724
-0.108513
-0.0577696
-0.0108156
0.0312612
0.066963
0.0943281
0.112192
0.118822
0.114296
0.0966064
0.0667461
0.0227402
-0.033745
-0.10514
-0.189237
-0.287978
-0.397581
-0.519694
-0.313939
-0.260236
-0.195105
-0.126832
-0.0629565
-0.00553817
0.0432478
0.0809943
0.106239
0.116835
0.112961
0.0926064
0.0569995
0.00366615
-0.0652568
-0.152591
-0.255975
-0.378498
-0.515972
-0.670201
-0.448484
-0.378351
-0.292239
-0.201924
-0.117686
-0.0426847
0.0200808
0.0678479
0.0992518
0.112144
0.106798
0.0810306
0.0365829
-0.0292042
-0.11377
-0.220356
-0.346718
-0.49732
-0.668002
-0.860542
-0.602957
-0.510474
-0.397628
-0.281168
-0.174731
-0.0825098
-0.00745024
0.0475218
0.0813203
0.0919046
0.0805514
0.0449515
-0.0130594
-0.09643
-0.201795
-0.333211
-0.488822
-0.674762
-0.886815
-1.12671
-0.772481
-0.651645
-0.507417
-0.363424
-0.236323
-0.130938
-0.0493626
0.00610654
0.0355603
0.0374161
0.0135616
-0.0386618
-0.116838
-0.224367
-0.357701
-0.522215
-0.716827
-0.949275
-1.21522
-1.51533
-0.954925
-0.798783
-0.620109
-0.451197
-0.310466
-0.201241
-0.123106
-0.0764585
-0.0597144
-0.0738069
-0.11639
-0.190588
-0.294123
-0.431583
-0.600101
-0.80705
-1.05218
-1.34409
-1.67746
-2.05018
-1.1473
-0.951426
-0.740688
-0.556516
-0.41536
-0.315407
-0.251491
-0.221611
-0.222949
-0.256133
-0.319315
-0.41592
-0.544633
-0.711817
-0.916538
-1.16828
-1.46722
-1.82122
-2.22385
-2.6689
-1.36066
-1.12581
-0.895275
-0.714134
-0.589366
-0.510324
-0.467292
-0.456319
-0.475012
-0.523806
-0.60184
-0.712423
-0.856849
-1.04291
-1.27318
-1.55813
-1.89861
-2.29959
-2.75387
-3.25282
-1.62117
-1.36178
-1.13556
-0.978507
-0.880798
-0.824509
-0.799502
-0.801867
-0.830191
-0.884098
-0.964257
-1.07374
-1.2175
-1.40408
-1.64001
-1.93496
-2.28994
-2.70518
-3.17409
-3.68673
-1.99006
-1.72623
-1.51752
-1.3805
-1.29609
-1.24647
-1.2237
-1.22314
-1.24511
-1.28835
-1.35595
-1.44963
-1.57746
-1.74613
-1.96605
-2.24312
-2.57971
-2.97033
-3.40987
-3.88326
-2.59098
-2.30036
-2.06241
-1.89092
-1.77313
-1.6933
-1.64379
-1.61809
-1.6166
-1.63589
-1.68034
-1.74846
-1.84972
-1.98562
-2.16936
-2.40175
-2.68956
-3.02388
-3.40343
-3.79683
-3.44555
-3.06863
-2.72636
-2.45969
-2.26688
-2.13221
-2.04097
-1.97878
-1.94407
-1.93067
-1.94402
-1.97786
-2.04146
-2.12881
-2.25432
-2.4125
-2.62022
-2.87392
-3.17314
-3.42545
-4.1643
-3.79374
-3.3636
-3.02152
-2.77155
-2.59202
-2.46179
-2.3632
-2.29569
-2.25012
-2.23171
-2.22971
-2.25306
-2.28602
-2.34156
-2.4063
-2.51159
-2.66648
-2.85099
-2.78466
-4.10576
-4.08593
-3.70435
-3.33024
-3.03678
-2.81954
-2.65917
-2.53297
-2.44439
-2.37785
-2.34443
-2.32351
-2.33164
-2.33914
-2.37245
-2.39922
-2.47179
-2.57772
-2.62222
-2.07135
-3.14154
-3.9689
-3.80924
-3.4193
-3.12299
-2.90849
-2.74154
-2.60897
-2.51037
-2.43869
-2.3958
-2.37243
-2.37264
-2.38485
-2.41392
-2.45274
-2.52797
-2.61717
-2.48452
-1.79109
0.00301146
0.00293194
0.00285041
0.00277796
0.00269468
0.00261608
0.00254711
0.00248125
0.00242046
0.0023599
0.00230172
0.00224191
0.00218195
0.00211789
0.00205234
0.0019812
0.00190757
0.00182494
0.00172482
0.00160686
0.0115866
0.0114857
0.0113963
0.011311
0.0112008
0.0110956
0.0109896
0.0108851
0.0107755
0.0106631
0.0105443
0.0104204
0.0102895
0.0101529
0.0100077
0.00985782
0.00970106
0.00953386
0.00934504
0.00915816
0.0203606
0.0203013
0.0201644
0.0200419
0.0198836
0.0197303
0.0195641
0.0194022
0.0192264
0.0190515
0.0188636
0.0186746
0.0184735
0.0182688
0.0180547
0.0178368
0.0176113
0.0173786
0.0171255
0.0168696
0.0286212
0.0285598
0.0284052
0.0282687
0.0280801
0.027894
0.0276826
0.0274753
0.027245
0.0270166
0.0267689
0.0265214
0.0262577
0.0259938
0.0257149
0.0254365
0.0251465
0.0248529
0.024541
0.0242306
0.037146
0.0370886
0.0369275
0.036783
0.03657
0.0363571
0.0361078
0.0358634
0.0355874
0.0353144
0.0350153
0.0347183
0.0343996
0.0340806
0.0337448
0.0334075
0.0330571
0.0327036
0.0323315
0.0319619
0.0455332
0.0454805
0.0453147
0.0451668
0.0449355
0.0447022
0.0444233
0.0441495
0.0438372
0.0435274
0.0431856
0.0428451
0.0424787
0.0421133
0.041725
0.0413371
0.0409315
0.0405235
0.0400941
0.0396664
0.0539054
0.053859
0.0536911
0.0535426
0.0532989
0.0530524
0.0527521
0.0524566
0.052115
0.0517748
0.0513957
0.0510171
0.0506069
0.0501949
0.0497586
0.0493185
0.0488597
0.0483972
0.0479121
0.0474241
0.0623269
0.0622828
0.0621143
0.0619702
0.0617198
0.0614651
0.0611485
0.0608351
0.0604684
0.0601012
0.0596895
0.0592758
0.0588263
0.0583745
0.0578919
0.057407
0.0568992
0.0563876
0.0558502
0.0553083
0.0707642
0.0707308
0.0705676
0.070431
0.0701765
0.0699151
0.069584
0.0692547
0.0688658
0.0684747
0.0680333
0.0675881
0.0671019
0.0666091
0.0660844
0.0655517
0.0649956
0.0644321
0.0638412
0.0632384
0.0792682
0.079245
0.0790896
0.0789644
0.0787091
0.0784433
0.0781003
0.0777575
0.0773494
0.0769368
0.0764692
0.0759945
0.0754749
0.0749475
0.0743817
0.0738079
0.0732055
0.0725939
0.0719513
0.0712942
0.0877944
0.0877926
0.0876528
0.0875442
0.0872929
0.0870266
0.0866742
0.0863199
0.0858938
0.0854612
0.0849685
0.0844669
0.0839154
0.0833509
0.0827465
0.0821264
0.0814767
0.0808131
0.0801175
0.0793993
0.0964105
0.0964257
0.0963021
0.0962127
0.095968
0.095704
0.0953455
0.0949824
0.0945412
0.094091
0.0935755
0.0930479
0.0924666
0.0918705
0.0912279
0.0905689
0.0898752
0.089166
0.0884213
0.0876499
0.105076
0.105117
0.105012
0.104943
0.104706
0.104447
0.104087
0.103719
0.103266
0.102801
0.102264
0.101711
0.101099
0.100468
0.0997886
0.0990866
0.0983493
0.097591
0.0967954
0.0959631
0.113865
0.113926
0.113839
0.113789
0.113564
0.113313
0.112952
0.112581
0.112119
0.111641
0.111084
0.110508
0.109868
0.109206
0.10849
0.10775
0.10697
0.106166
0.10532
0.104433
0.122728
0.122822
0.122756
0.122729
0.122515
0.122274
0.121915
0.121543
0.121072
0.120583
0.12001
0.119414
0.118747
0.118053
0.117301
0.116517
0.11569
0.114834
0.113933
0.112981
0.131736
0.131859
0.131817
0.131811
0.131613
0.131382
0.131028
0.130656
0.130179
0.129678
0.129089
0.128472
0.12778
0.127056
0.126268
0.125444
0.124571
0.123664
0.12271
0.121699
0.140838
0.141006
0.140997
0.141017
0.140835
0.140618
0.14027
0.139901
0.139419
0.138909
0.138302
0.137664
0.136944
0.136187
0.135362
0.134495
0.133575
0.132616
0.131607
0.130531
0.150111
0.150326
0.150351
0.150398
0.150237
0.150034
0.149695
0.149328
0.148843
0.148324
0.147703
0.147042
0.146296
0.145506
0.144644
0.143735
0.14277
0.141759
0.140695
0.139554
0.159541
0.159813
0.159877
0.159953
0.159815
0.15963
0.159302
0.15894
0.158454
0.157926
0.157291
0.15661
0.155837
0.155013
0.154112
0.153157
0.152142
0.151077
0.149953
0.148744
0.1692
0.169526
0.16963
0.169733
0.169619
0.169451
0.169137
0.16878
0.168293
0.167756
0.167107
0.166403
0.165604
0.164745
0.163805
0.162802
0.161736
0.160613
0.159427
0.158147
0.17908
0.179467
0.179614
0.179745
0.179656
0.179504
0.179203
0.17885
0.178363
0.177818
0.177155
0.176429
0.175602
0.174708
0.173726
0.172676
0.171555
0.170371
0.169119
0.167766
0.189216
0.189667
0.189862
0.190021
0.189958
0.189821
0.189532
0.189181
0.188694
0.18814
0.187464
0.186716
0.185863
0.184934
0.183912
0.182811
0.181636
0.180388
0.179069
0.177636
0.199621
0.200143
0.200389
0.200581
0.200547
0.200428
0.200153
0.199805
0.199318
0.198754
0.198065
0.197297
0.196416
0.195452
0.194388
0.193239
0.192007
0.190697
0.189306
0.187795
0.210327
0.210921
0.211224
0.211455
0.211456
0.211359
0.211103
0.21076
0.210274
0.209699
0.208995
0.208202
0.207294
0.206292
0.205186
0.203984
0.202694
0.201316
0.199851
0.198252
0.221372
0.222041
0.222406
0.22268
0.222722
0.222651
0.222418
0.222084
0.2216
0.221016
0.220298
0.219481
0.218543
0.217504
0.21635
0.215096
0.213742
0.212295
0.21075
0.209062
0.232769
0.23352
0.233956
0.234279
0.234368
0.234328
0.234121
0.233799
0.233321
0.23273
0.232
0.231158
0.230189
0.229107
0.227905
0.226589
0.225167
0.223641
0.22201
0.220222
0.244577
0.245412
0.245921
0.2463
0.246439
0.246434
0.246258
0.24595
0.245482
0.244887
0.244144
0.243278
0.242275
0.24115
0.239893
0.238515
0.237018
0.235411
0.233688
0.231797
0.256801
0.25773
0.258319
0.258759
0.258953
0.258988
0.258845
0.258556
0.258099
0.257499
0.256745
0.255853
0.254816
0.253642
0.252329
0.25088
0.249307
0.24761
0.245789
0.243784
0.269504
0.270528
0.271201
0.271706
0.271959
0.272036
0.271929
0.27166
0.271215
0.270613
0.269847
0.268928
0.267855
0.266631
0.265259
0.263738
0.262082
0.260292
0.258368
0.256246
0.282689
0.28382
0.284584
0.285163
0.28548
0.285604
0.285535
0.285288
0.284857
0.284251
0.283473
0.282526
0.281417
0.28014
0.278707
0.277108
0.275367
0.273476
0.271444
0.269192
0.296416
0.297657
0.298519
0.299177
0.299563
0.299737
0.29971
0.299486
0.299069
0.29846
0.297671
0.296695
0.295547
0.294216
0.292717
0.291038
0.289204
0.287208
0.285059
0.282672
0.310701
0.312065
0.313033
0.313779
0.31424
0.31447
0.314489
0.314291
0.313891
0.31328
0.312479
0.311473
0.310285
0.308895
0.307328
0.305562
0.303632
0.301521
0.299249
0.296715
0.325595
0.32709
0.328173
0.329014
0.329557
0.329848
0.329916
0.329748
0.329367
0.328757
0.327943
0.326906
0.325674
0.324222
0.322581
0.320721
0.318687
0.316454
0.314049
0.311359
0.341129
0.342767
0.343974
0.344922
0.345554
0.345914
0.346036
0.345904
0.345544
0.344935
0.34411
0.34304
0.341764
0.340246
0.338526
0.336567
0.334421
0.332057
0.329511
0.326653
0.357348
0.359142
0.360484
0.361547
0.362277
0.362712
0.362896
0.362803
0.362467
0.361861
0.361023
0.35992
0.358596
0.357009
0.355204
0.35314
0.350873
0.348368
0.345668
0.342629
0.374292
0.376258
0.377748
0.378938
0.379774
0.380294
0.380544
0.380496
0.380188
0.379586
0.378738
0.3776
0.376226
0.374565
0.372671
0.370493
0.368099
0.365443
0.362579
0.359344
0.392006
0.394159
0.395811
0.397141
0.398093
0.398706
0.39903
0.399032
0.398755
0.398161
0.397301
0.396128
0.394699
0.392959
0.390969
0.388669
0.386137
0.383319
0.380276
0.376831
0.410535
0.412895
0.414724
0.416209
0.41729
0.418005
0.418411
0.41847
0.418228
0.417644
0.416772
0.415562
0.414076
0.412253
0.410159
0.40773
0.405049
0.402056
0.398822
0.395153
0.429927
0.432513
0.434536
0.436191
0.437414
0.438244
0.43874
0.438862
0.43866
0.438088
0.437206
0.435958
0.43441
0.432497
0.430292
0.427722
0.42488
0.421699
0.418258
0.414345
0.450229
0.453064
0.455302
0.457144
0.458524
0.459481
0.460078
0.460271
0.460116
0.459559
0.458667
0.457378
0.455766
0.453757
0.451432
0.448711
0.445697
0.442312
0.438649
0.434473
0.471491
0.4746
0.477073
0.479122
0.480675
0.481773
0.482483
0.482756
0.482653
0.482115
0.481214
0.479883
0.478202
0.476089
0.473634
0.470751
0.467547
0.463943
0.460037
0.455577
0.49376
0.497172
0.499905
0.502183
0.503928
0.505184
0.506019
0.506383
0.506338
0.505824
0.504916
0.50354
0.501784
0.499561
0.496967
0.493906
0.490501
0.486658
0.48249
0.477722
0.517087
0.520832
0.523853
0.526384
0.528342
0.529773
0.530748
0.531214
0.531237
0.53075
0.529835
0.528413
0.526577
0.524233
0.521487
0.518235
0.514607
0.510505
0.506051
0.500948
0.541515
0.54563
0.548969
0.551781
0.553977
0.555604
0.556737
0.557318
0.557418
0.556964
0.556044
0.554571
0.552649
0.550175
0.547263
0.543801
0.539933
0.535548
0.530783
0.525316
0.567091
0.571614
0.575306
0.578431
0.580892
0.582739
0.584049
0.584761
0.584947
0.584531
0.583607
0.582081
0.580064
0.577447
0.574353
0.570662
0.566528
0.561833
0.556728
0.550863
0.593845
0.598823
0.602908
0.606384
0.609142
0.611237
0.612746
0.613606
0.613891
0.613521
0.612593
0.611009
0.608889
0.606114
0.602819
0.598875
0.59445
0.589415
0.583937
0.577638
0.621814
0.627294
0.631819
0.635685
0.638777
0.641151
0.642886
0.643913
0.644311
0.643992
0.643061
0.641414
0.639178
0.636227
0.63271
0.628485
0.623736
0.618326
0.612437
0.605662
0.651001
0.657042
0.662055
0.666361
0.669829
0.672519
0.674508
0.675725
0.67625
0.675991
0.675059
0.673341
0.670976
0.66783
0.664064
0.659528
0.654422
0.648598
0.642257
0.634961
0.681405
0.688065
0.693624
0.698419
0.702308
0.705352
0.707628
0.70906
0.709728
0.709536
0.708601
0.706805
0.704296
0.700933
0.696889
0.692008
0.686505
0.680224
0.673385
0.665517
0.712956
0.720303
0.726465
0.731806
0.736164
0.739604
0.742199
0.74387
0.744699
0.744583
0.743647
0.741765
0.739098
0.735497
0.73115
0.725889
0.719952
0.71317
0.705788
0.6973
0.745542
0.75363
0.76045
0.766386
0.771256
0.775127
0.77807
0.780002
0.781005
0.780974
0.78004
0.778071
0.775238
0.771383
0.766711
0.761045
0.754639
0.74732
0.739353
0.730199
0.7789
0.787769
0.795282
0.801846
0.807255
0.811579
0.814887
0.817092
0.818281
0.818345
0.817423
0.815376
0.812385
0.808285
0.80329
0.797215
0.790332
0.782459
0.773885
0.76404
0.812617
0.822251
0.830442
0.837617
0.843553
0.848319
0.85198
0.854454
0.855829
0.856001
0.85511
0.85302
0.849908
0.845606
0.84033
0.833887
0.826558
0.81816
0.808996
0.798471
0.84593
0.856247
0.865024
0.87272
0.8791
0.884243
0.888212
0.890925
0.892477
0.892773
0.891956
0.889889
0.886746
0.882348
0.876903
0.870212
0.86255
0.853733
0.844072
0.832953
0.877724
0.888523
0.897691
0.905714
0.91237
0.917753
0.921932
0.924831
0.92654
0.926984
0.926303
0.92437
0.921335
0.917018
0.911599
0.904871
0.897087
0.888064
0.878105
0.866577
0.906373
0.917363
0.926636
0.93472
0.941416
0.94685
0.951108
0.954119
0.955965
0.956589
0.956127
0.954466
0.951725
0.947727
0.942601
0.936143
0.928557
0.919661
0.909726
0.89811
0.929963
0.940785
0.94984
0.957693
0.964187