/*--------------------------------*- C++ -*----------------------------------*\
  =========                 |
  \\      /  F ield         | OpenFOAM: The Open Source CFD Toolbox
   \\    /   O peration     | Website:  https://openfoam.org
    \\  /    A nd           | Version:  6
     \\/     M anipulation  |
\*---------------------------------------------------------------------------*/
FoamFile
{
    version     2.0;
    format      ascii;
    class       surfaceScalarField;
    location    "19";
    object      phi;
}
// * * * * * * * * * * * * * * * * * * * * * * * * * * * * * * * * * * * * * //

dimensions      [0 3 -1 0 0 0 0];

internalField   nonuniform List<scalar> 
19400
(
-1.06164e-09
-7.92848e-07
-2.48334e-09
-1.05998e-06
-3.48561e-09
-1.18893e-06
-3.87845e-09
-1.2727e-06
-3.75165e-09
-1.32542e-06
-3.34644e-09
-1.35686e-06
-2.83974e-09
-1.3749e-06
-2.31887e-09
-1.38485e-06
-1.80557e-09
-1.38983e-06
-1.30265e-09
-1.39151e-06
-8.10286e-10
-1.39059e-06
-3.03636e-10
-1.38707e-06
2.12242e-10
-1.38027e-06
7.75627e-10
-1.36857e-06
1.3231e-09
-1.34906e-06
1.76518e-09
-1.31678e-06
1.86432e-09
-1.26431e-06
1.46613e-09
-1.18177e-06
5.41746e-10
-1.05432e-06
-7.89878e-07
1.52069e-10
-7.92989e-07
-8.21965e-10
-1.05902e-06
-1.50604e-09
-1.18824e-06
-1.9825e-09
-1.27224e-06
-2.1904e-09
-1.32521e-06
-2.1713e-09
-1.35689e-06
-1.97248e-09
-1.3751e-06
-1.69813e-09
-1.38514e-06
-1.38044e-09
-1.39015e-06
-1.07248e-09
-1.39184e-06
-7.51841e-10
-1.39091e-06
-4.55044e-10
-1.38739e-06
-1.52767e-10
-1.38058e-06
1.27668e-10
-1.36887e-06
3.6617e-10
-1.34931e-06
5.06411e-10
-1.31692e-06
4.96586e-10
-1.26432e-06
3.11811e-10
-1.18161e-06
-1.95404e-10
-1.05384e-06
-7.90076e-07
-1.66004e-10
-7.9281e-07
-6.81189e-10
-1.05853e-06
-1.0623e-09
-1.18785e-06
-1.31889e-09
-1.272e-06
-1.44846e-09
-1.32508e-06
-1.47205e-09
-1.35687e-06
-1.39335e-09
-1.37518e-06
-1.26152e-09
-1.38528e-06
-1.08671e-09
-1.39033e-06
-8.98867e-10
-1.39203e-06
-6.9942e-10
-1.39112e-06
-5.11365e-10
-1.38759e-06
-3.2335e-10
-1.38077e-06
-1.24349e-10
-1.36907e-06
8.65263e-11
-1.34951e-06
2.57435e-10
-1.31708e-06
3.17025e-10
-1.26437e-06
2.94346e-10
-1.18159e-06
2.74453e-10
-1.05383e-06
-7.89802e-07
-1.49775e-10
-7.92661e-07
-3.7793e-10
-1.05832e-06
-5.83437e-10
-1.18764e-06
-7.1779e-10
-1.27187e-06
-8.0535e-10
-1.32499e-06
-8.6073e-10
-1.35682e-06
-8.67331e-10
-1.37517e-06
-8.49493e-10
-1.3853e-06
-7.86665e-10
-1.39039e-06
-7.03592e-10
-1.39212e-06
-6.00556e-10
-1.39121e-06
-5.06322e-10
-1.38769e-06
-4.05965e-10
-1.38087e-06
-2.91371e-10
-1.36918e-06
-1.55457e-10
-1.34964e-06
-9.5635e-12
-1.31721e-06
7.46037e-11
-1.26445e-06
8.94498e-11
-1.18161e-06
1.27359e-10
-1.05387e-06
-7.89674e-07
-3.78817e-10
-7.92283e-07
-3.8681e-10
-1.05831e-06
-4.72465e-10
-1.18755e-06
-5.27486e-10
-1.27181e-06
-5.59756e-10
-1.32494e-06
-6.00181e-10
-1.35678e-06
-6.18308e-10
-1.37514e-06
-6.30864e-10
-1.38528e-06
-6.03096e-10
-1.3904e-06
-5.56241e-10
-1.39216e-06
-4.87658e-10
-1.39127e-06
-4.23191e-10
-1.38775e-06
-3.59032e-10
-1.38093e-06
-2.94917e-10
-1.36924e-06
-2.07559e-10
-1.34973e-06
-6.38317e-11
-1.31735e-06
9.92153e-11
-1.26461e-06
1.6494e-10
-1.18167e-06
2.32743e-10
-1.05393e-06
-7.89439e-07
-2.71153e-10
-7.92019e-07
-3.10688e-10
-1.05827e-06
-4.14859e-10
-1.18744e-06
-4.82532e-10
-1.27175e-06
-5.17689e-10
-1.3249e-06
-5.54538e-10
-1.35675e-06
-5.64959e-10
-1.37512e-06
-5.57599e-10
-1.38529e-06
-5.18758e-10
-1.39043e-06
-4.65711e-10
-1.39221e-06
-3.92012e-10
-1.39134e-06
-3.15586e-10
-1.38782e-06
-2.40939e-10
-1.381e-06
-1.80955e-10
-1.3693e-06
-1.18478e-10
-1.34979e-06
5.00198e-13
-1.31747e-06
1.45513e-10
-1.26475e-06
1.84824e-10
-1.1817e-06
1.99469e-10
-1.05393e-06
-7.89237e-07
-1.10356e-10
-7.91929e-07
-2.50927e-10
-1.05814e-06
-3.46351e-10
-1.18736e-06
-4.00026e-10
-1.2717e-06
-4.33224e-10
-1.32488e-06
-4.63525e-10
-1.35673e-06
-4.79912e-10
-1.37511e-06
-4.67926e-10
-1.38531e-06
-4.27728e-10
-1.39048e-06
-3.70265e-10
-1.39227e-06
-3.00661e-10
-1.39141e-06
-2.20616e-10
-1.3879e-06
-1.45478e-10
-1.38107e-06
-7.96875e-11
-1.36936e-06
-3.16776e-11
-1.34983e-06
3.30412e-11
-1.31753e-06
1.26241e-10
-1.26484e-06
1.53788e-10
-1.18171e-06
1.16868e-10
-1.05388e-06
-7.8912e-07
-6.35012e-11
-7.91879e-07
-1.62801e-10
-1.05805e-06
-2.02809e-10
-1.18733e-06
-2.11426e-10
-1.2717e-06
-2.35182e-10
-1.32486e-06
-2.62291e-10
-1.3567e-06
-3.06049e-10
-1.37507e-06
-3.26421e-10
-1.38529e-06
-3.2313e-10
-1.39049e-06
-2.92841e-10
-1.39231e-06
-2.48925e-10
-1.39146e-06
-1.86e-10
-1.38796e-06
-1.1439e-10
-1.38114e-06
-4.01579e-11
-1.36943e-06
9.39388e-12
-1.34988e-06
2.08317e-11
-1.31755e-06
6.48433e-11
-1.26488e-06
7.07453e-11
-1.18172e-06
1.62667e-11
-1.05383e-06
-7.89105e-07
-1.1485e-10
-7.9177e-07
-8.321e-11
-1.05808e-06
-9.06767e-11
-1.18733e-06
-9.25479e-11
-1.2717e-06
-9.78664e-11
-1.32486e-06
-1.36145e-10
-1.35667e-06
-2.05497e-10
-1.37501e-06
-2.62404e-10
-1.38524e-06
-2.95455e-10
-1.39046e-06
-3.0736e-10
-1.3923e-06
-2.97313e-10
-1.39147e-06
-2.69845e-10
-1.38799e-06
-2.21442e-10
-1.38119e-06
-1.75179e-10
-1.36948e-06
-1.39011e-10
-1.34991e-06
-1.2191e-10
-1.31757e-06
-1.12576e-10
-1.26489e-06
-1.2191e-10
-1.18172e-06
-1.5705e-10
-1.0538e-06
-7.89264e-07
-1.55787e-10
-7.91615e-07
-7.04907e-11
-1.05818e-06
-1.05009e-10
-1.18729e-06
-1.21116e-10
-1.27168e-06
-1.22469e-10
-1.32485e-06
-1.7619e-10
-1.35661e-06
-2.41126e-10
-1.37493e-06
-3.02131e-10
-1.38518e-06
-3.37716e-10
-1.39042e-06
-3.68135e-10
-1.39227e-06
-3.73934e-10
-1.39146e-06
-3.78516e-10
-1.38799e-06
-3.68148e-10
-1.3812e-06
-3.63252e-10
-1.36949e-06
-3.45659e-10
-1.34993e-06
-2.99277e-10
-1.31761e-06
-2.92703e-10
-1.2649e-06
-2.75615e-10
-1.18174e-06
-1.38007e-10
-1.05395e-06
-7.89402e-07
-4.6704e-11
-7.91568e-07
-4.82889e-11
-1.05818e-06
-6.11766e-11
-1.18728e-06
-7.89153e-11
-1.27167e-06
-1.22641e-10
-1.32481e-06
-2.0242e-10
-1.35653e-06
-2.70307e-10
-1.37486e-06
-3.20688e-10
-1.38512e-06
-3.52422e-10
-1.39038e-06
-3.70914e-10
-1.39225e-06
-3.74001e-10
-1.39145e-06
-3.69736e-10
-1.38799e-06
-3.6198e-10
-1.3812e-06
-3.52337e-10
-1.3695e-06
-3.21142e-10
-1.34996e-06
-2.9701e-10
-1.31763e-06
-3.31436e-10
-1.26487e-06
-3.241e-10
-1.18175e-06
-4.36675e-11
-1.05423e-06
-7.89446e-07
-5.5112e-12
-7.91558e-07
-9.89225e-12
-1.05819e-06
-1.73842e-11
-1.18727e-06
-8.29139e-11
-1.27161e-06
-1.40892e-10
-1.32474e-06
-2.05591e-10
-1.35646e-06
-2.59285e-10
-1.3748e-06
-2.9581e-10
-1.38508e-06
-3.21567e-10
-1.39035e-06
-3.29364e-10
-1.39223e-06
-3.27122e-10
-1.39145e-06
-3.09378e-10
-1.38801e-06
-2.87468e-10
-1.38123e-06
-2.58859e-10
-1.36953e-06
-2.28991e-10
-1.34999e-06
-2.4086e-10
-1.31762e-06
-3.24807e-10
-1.26478e-06
-3.41769e-10
-1.18173e-06
-1.60284e-10
-1.05441e-06
-7.89607e-07
7.15328e-11
-7.91626e-07
7.44856e-11
-1.0582e-06
3.84163e-11
-1.18723e-06
-3.92748e-11
-1.27154e-06
-8.2557e-11
-1.3247e-06
-1.34276e-10
-1.35641e-06
-1.83639e-10
-1.37475e-06
-2.26329e-10
-1.38504e-06
-2.61585e-10
-1.39031e-06
-2.79873e-10
-1.39221e-06
-2.87999e-10
-1.39144e-06
-2.76638e-10
-1.38801e-06
-2.64297e-10
-1.38124e-06
-2.46416e-10
-1.36954e-06
-2.42837e-10
-1.34999e-06
-2.64774e-10
-1.3176e-06
-3.28236e-10
-1.26472e-06
-3.17713e-10
-1.18175e-06
-2.26649e-10
-1.0545e-06
-7.89833e-07
8.24503e-11
-7.91707e-07
1.23233e-10
-1.05825e-06
1.21372e-10
-1.18722e-06
6.09078e-11
-1.27148e-06
-1.43882e-11
-1.32462e-06
-8.52471e-11
-1.35634e-06
-1.36891e-10
-1.3747e-06
-1.84027e-10
-1.38499e-06
-2.29182e-10
-1.39027e-06
-2.56713e-10
-1.39218e-06
-2.73593e-10
-1.39143e-06
-2.7459e-10
-1.38801e-06
-2.73634e-10
-1.38124e-06
-2.65919e-10
-1.36954e-06
-2.62971e-10
-1.35e-06
-2.82261e-10
-1.31758e-06
-3.20734e-10
-1.26469e-06
-2.87271e-10
-1.18178e-06
-1.80642e-10
-1.05461e-06
-7.90012e-07
1.31358e-10
-7.91829e-07
1.79304e-10
-1.05829e-06
1.41405e-10
-1.18718e-06
3.83253e-11
-1.27138e-06
-6.96135e-11
-1.32451e-06
-1.4073e-10
-1.35628e-06
-1.69787e-10
-1.37467e-06
-2.00195e-10
-1.38496e-06
-2.32462e-10
-1.39024e-06
-2.56937e-10
-1.39216e-06
-2.74436e-10
-1.39141e-06
-2.82487e-10
-1.388e-06
-2.9503e-10
-1.38123e-06
-3.0205e-10
-1.36953e-06
-3.12991e-10
-1.34999e-06
-3.28932e-10
-1.31756e-06
-3.21901e-10
-1.26469e-06
-2.71974e-10
-1.18182e-06
-2.23341e-10
-1.05465e-06
-7.90234e-07
2.76757e-10
-7.92101e-07
2.87882e-10
-1.05829e-06
2.34274e-10
-1.18712e-06
1.33578e-10
-1.27128e-06
2.45628e-11
-1.3244e-06
-7.23917e-11
-1.35618e-06
-1.33664e-10
-1.37461e-06
-1.79861e-10
-1.38492e-06
-2.14601e-10
-1.3902e-06
-2.39741e-10
-1.39213e-06
-2.56358e-10
-1.39139e-06
-2.69323e-10
-1.38798e-06
-2.81546e-10
-1.38122e-06
-2.91115e-10
-1.36952e-06
-3.11133e-10
-1.34997e-06
-3.162e-10
-1.31755e-06
-2.76868e-10
-1.26473e-06
-2.07749e-10
-1.18188e-06
-1.45482e-10
-1.0547e-06
-7.90378e-07
1.42058e-10
-7.92241e-07
2.64771e-10
-1.0584e-06
2.39961e-10
-1.18709e-06
1.44652e-10
-1.27118e-06
4.98729e-11
-1.3243e-06
-2.80225e-11
-1.3561e-06
-1.00876e-10
-1.37454e-06
-1.66099e-10
-1.38485e-06
-2.15356e-10
-1.39016e-06
-2.47354e-10
-1.3921e-06
-2.69216e-10
-1.39138e-06
-2.73579e-10
-1.38798e-06
-2.68436e-10
-1.38122e-06
-2.45804e-10
-1.36954e-06
-2.24543e-10
-1.34999e-06
-2.21186e-10
-1.31756e-06
-2.27792e-10
-1.26471e-06
-2.24677e-10
-1.18188e-06
-1.6097e-10
-1.05476e-06
-7.9054e-07
1.31278e-10
-7.92379e-07
2.47804e-10
-1.05851e-06
2.72973e-10
-1.18712e-06
1.82514e-10
-1.27108e-06
7.59576e-11
-1.3242e-06
5.30347e-13
-1.35603e-06
-8.20843e-11
-1.37446e-06
-1.69881e-10
-1.38477e-06
-2.40226e-10
-1.39009e-06
-3.01223e-10
-1.39204e-06
-3.43262e-10
-1.39133e-06
-3.74665e-10
-1.38795e-06
-3.86578e-10
-1.38121e-06
-3.83462e-10
-1.36954e-06
-3.77643e-10
-1.34999e-06
-3.7915e-10
-1.31755e-06
-3.66708e-10
-1.26472e-06
-3.40925e-10
-1.18191e-06
-3.64573e-10
-1.05474e-06
-7.90905e-07
3.79422e-11
-7.92435e-07
2.01159e-10
-1.05868e-06
2.94358e-10
-1.18723e-06
2.51141e-10
-1.27103e-06
1.36347e-10
-1.32409e-06
2.90084e-11
-1.35592e-06
-7.83532e-11
-1.37435e-06
-1.7891e-10
-1.38467e-06
-2.62285e-10
-1.39e-06
-3.35895e-10
-1.39198e-06
-3.91554e-10
-1.39127e-06
-4.49872e-10
-1.3879e-06
-4.84549e-10
-1.38117e-06
-5.12943e-10
-1.36952e-06
-5.22819e-10
-1.34997e-06
-4.97955e-10
-1.31757e-06
-4.27264e-10
-1.26479e-06
-3.20212e-10
-1.18202e-06
-1.32831e-10
-1.05494e-06
-7.91039e-07
-1.08552e-10
-7.92342e-07
9.05514e-11
-1.05888e-06
2.1038e-10
-1.18736e-06
2.17058e-10
-1.27103e-06
1.04789e-10
-1.32398e-06
-1.9447e-11
-1.35578e-06
-1.2561e-10
-1.37424e-06
-2.07733e-10
-1.38458e-06
-2.77247e-10
-1.38993e-06
-3.33499e-10
-1.39192e-06
-3.75769e-10
-1.39122e-06
-4.15532e-10
-1.38786e-06
-4.35678e-10
-1.38114e-06
-4.53318e-10
-1.3695e-06
-4.49906e-10
-1.34997e-06
-4.24339e-10
-1.31759e-06
-3.78285e-10
-1.26484e-06
-2.49981e-10
-1.18216e-06
6.70901e-11
-1.05526e-06
-7.90974e-07
-8.07354e-11
-7.92261e-07
-1.62185e-12
-1.05897e-06
6.48395e-11
-1.18742e-06
4.3658e-11
-1.27101e-06
-5.69803e-11
-1.32388e-06
-1.62089e-10
-1.35567e-06
-2.35718e-10
-1.37416e-06
-2.83427e-10
-1.38453e-06
-3.17006e-10
-1.38989e-06
-3.41485e-10
-1.39189e-06
-3.59608e-10
-1.3912e-06
-3.61281e-10
-1.38785e-06
-3.55626e-10
-1.38115e-06
-3.42709e-10
-1.36951e-06
-3.2578e-10
-1.34999e-06
-3.06302e-10
-1.31761e-06
-2.75387e-10
-1.26488e-06
-1.81131e-10
-1.18226e-06
-3.88843e-11
-1.05541e-06
-7.91011e-07
9.97499e-11
-7.92349e-07
1.78428e-11
-1.05889e-06
8.94623e-12
-1.1874e-06
-8.35063e-11
-1.27092e-06
-1.81991e-10
-1.32377e-06
-2.64218e-10
-1.35558e-06
-3.17666e-10
-1.3741e-06
-3.49009e-10
-1.38449e-06
-3.58563e-10
-1.38987e-06
-3.62733e-10
-1.39188e-06
-3.62621e-10
-1.3912e-06
-3.55505e-10
-1.38785e-06
-3.50436e-10
-1.38115e-06
-3.37824e-10
-1.36951e-06
-3.32729e-10
-1.35e-06
-2.98602e-10
-1.31765e-06
-2.34648e-10
-1.26494e-06
-1.55282e-10
-1.18233e-06
-1.69096e-10
-1.05538e-06
-7.91176e-07
2.09908e-10
-7.92541e-07
1.0497e-10
-1.05879e-06
5.11786e-11
-1.18733e-06
-6.45436e-11
-1.2708e-06
-1.73235e-10
-1.32365e-06
-2.66407e-10
-1.35549e-06
-3.29211e-10
-1.37403e-06
-3.61416e-10
-1.38445e-06
-3.72119e-10
-1.38986e-06
-3.65768e-10
-1.39188e-06
-3.6117e-10
-1.3912e-06
-3.51043e-10
-1.38785e-06
-3.5122e-10
-1.38114e-06
-3.56117e-10
-1.3695e-06
-3.63521e-10
-1.34998e-06
-3.39423e-10
-1.31767e-06
-2.39185e-10
-1.26503e-06
-1.28758e-10
-1.18242e-06
-1.36719e-10
-1.05535e-06
-7.91306e-07
1.65345e-10
-7.9269e-07
1.15948e-10
-1.05875e-06
2.38608e-11
-1.18722e-06
-6.9856e-11
-1.27071e-06
-1.59374e-10
-1.32355e-06
-2.49085e-10
-1.3554e-06
-3.12226e-10
-1.37396e-06
-3.48773e-10
-1.38441e-06
-3.69952e-10
-1.38983e-06
-3.72105e-10
-1.39186e-06
-3.7551e-10
-1.3912e-06
-3.67663e-10
-1.38784e-06
-3.66653e-10
-1.38114e-06
-3.6676e-10
-1.36949e-06
-3.54383e-10
-1.34999e-06
-3.19712e-10
-1.3177e-06
-2.13384e-10
-1.26512e-06
-1.09184e-10
-1.1825e-06
-9.4702e-11
-1.05534e-06
-7.91397e-07
1.469e-10
-7.92829e-07
1.1165e-10
-1.05872e-06
5.72277e-11
-1.18716e-06
6.02863e-12
-1.27067e-06
-7.47573e-11
-1.32346e-06
-1.76278e-10
-1.3553e-06
-2.60201e-10
-1.37388e-06
-3.28377e-10
-1.38434e-06
-3.72695e-10
-1.38979e-06
-4.07102e-10
-1.39183e-06
-4.33144e-10
-1.39117e-06
-4.51024e-10
-1.38782e-06
-4.67138e-10
-1.38112e-06
-4.79774e-10
-1.36948e-06
-4.64511e-10
-1.35e-06
-4.02007e-10
-1.31775e-06
-2.76111e-10
-1.26523e-06
-1.59385e-10
-1.1826e-06
-1.4607e-10
-1.05534e-06
-7.91543e-07
1.12783e-10
-7.92938e-07
1.37766e-10
-1.05874e-06
1.34245e-10
-1.18715e-06
9.64547e-11
-1.27063e-06
3.17174e-12
-1.32336e-06
-1.18886e-10
-1.35519e-06
-2.25629e-10
-1.37376e-06
-3.26392e-10
-1.38425e-06
-4.02084e-10
-1.38971e-06
-4.71903e-10
-1.39176e-06
-5.21831e-10
-1.39111e-06
-5.67892e-10
-1.38778e-06
-5.9264e-10
-1.38109e-06
-6.11415e-10
-1.36946e-06
-5.88271e-10
-1.35001e-06
-5.14969e-10
-1.31782e-06
-3.58987e-10
-1.26538e-06
-1.97544e-10
-1.18276e-06
-1.18156e-10
-1.05541e-06
-7.91662e-07
6.95921e-11
-7.93001e-07
1.55951e-10
-1.05881e-06
1.6064e-10
-1.18715e-06
1.25749e-10
-1.27059e-06
3.6286e-11
-1.32327e-06
-1.04103e-10
-1.35505e-06
-2.36552e-10
-1.37363e-06
-3.59896e-10
-1.38413e-06
-4.5568e-10
-1.3896e-06
-5.49007e-10
-1.39167e-06
-6.14084e-10
-1.39104e-06
-6.82564e-10
-1.38772e-06
-7.20273e-10
-1.38104e-06
-7.36784e-10
-1.36945e-06
-7.0143e-10
-1.35004e-06
-6.13156e-10
-1.3179e-06
-4.35134e-10
-1.26556e-06
-2.28036e-10
-1.18297e-06
-5.95264e-11
-1.05559e-06
-7.91722e-07
2.97876e-11
-7.93018e-07
1.16456e-10
-1.05887e-06
9.93224e-11
-1.18713e-06
6.10508e-11
-1.27054e-06
-2.76496e-11
-1.32317e-06
-1.65174e-10
-1.3549e-06
-2.96741e-10
-1.37349e-06
-4.18732e-10
-1.384e-06
-5.15123e-10
-1.38949e-06
-6.06727e-10
-1.39158e-06
-6.65847e-10
-1.39096e-06
-7.27176e-10
-1.38766e-06
-7.55951e-10
-1.381e-06
-7.56658e-10
-1.36944e-06
-7.07532e-10
-1.35008e-06
-5.88003e-10
-1.31801e-06
-4.13114e-10
-1.26573e-06
-2.05827e-10
-1.18318e-06
4.31386e-11
-1.05584e-06
-7.91679e-07
8.52373e-11
-7.93089e-07
1.10086e-10
-1.05888e-06
1.47159e-10
-1.18716e-06
1.09182e-10
-1.2705e-06
-9.74764e-12
-1.32305e-06
-1.58851e-10
-1.35475e-06
-3.03277e-10
-1.37334e-06
-4.30622e-10
-1.38387e-06
-5.36706e-10
-1.38938e-06
-6.20531e-10
-1.39149e-06
-6.7857e-10
-1.3909e-06
-7.17359e-10
-1.38762e-06
-7.22958e-10
-1.38099e-06
-6.9048e-10
-1.36947e-06
-6.13622e-10
-1.35015e-06
-4.68749e-10
-1.31815e-06
-3.15966e-10
-1.26588e-06
-1.71811e-10
-1.18332e-06
3.57997e-11
-1.05604e-06
-7.91641e-07
6.37978e-11
-7.93135e-07
1.28062e-10
-1.05892e-06
1.9715e-10
-1.18722e-06
1.61737e-10
-1.27045e-06
3.24877e-11
-1.32292e-06
-1.20621e-10
-1.35459e-06
-2.79688e-10
-1.37318e-06
-4.1696e-10
-1.38373e-06
-5.30912e-10
-1.38927e-06
-6.22054e-10
-1.3914e-06
-6.89091e-10
-1.39083e-06
-7.27755e-10
-1.38757e-06
-7.30442e-10
-1.38098e-06
-6.95043e-10
-1.3695e-06
-6.09954e-10
-1.35024e-06
-4.57411e-10
-1.3183e-06
-3.08755e-10
-1.26602e-06
-1.95291e-10
-1.18342e-06
-1.07429e-10
-1.05612e-06
-7.91744e-07
5.49104e-11
-7.93174e-07
9.99353e-11
-1.05895e-06
1.96415e-10
-1.18731e-06
1.96953e-10
-1.27044e-06
7.62109e-11
-1.3228e-06
-7.59294e-11
-1.35443e-06
-2.4995e-10
-1.373e-06
-4.04209e-10
-1.38357e-06
-5.39841e-10
-1.38913e-06
-6.44504e-10
-1.39129e-06
-7.28508e-10
-1.39075e-06
-7.68661e-10
-1.38752e-06
-7.75631e-10
-1.38097e-06
-7.39719e-10
-1.36953e-06
-6.36105e-10
-1.35033e-06
-4.86324e-10
-1.31844e-06
-3.42234e-10
-1.26615e-06
-2.29148e-10
-1.18352e-06
-1.65247e-10
-1.05616e-06
-7.91905e-07
-1.3859e-11
-7.93145e-07
1.21024e-10
-1.05906e-06
2.25929e-10
-1.18741e-06
2.15072e-10
-1.27042e-06
9.46593e-11
-1.32267e-06
-7.48609e-11
-1.35425e-06
-2.67366e-10
-1.37281e-06
-4.46351e-10
-1.38339e-06
-6.11967e-10
-1.38896e-06
-7.45639e-10
-1.39114e-06
-8.56021e-10
-1.39063e-06
-9.26017e-10
-1.38744e-06
-9.6291e-10
-1.38093e-06
-9.54285e-10
-1.36953e-06
-8.69924e-10
-1.35041e-06
-7.15294e-10
-1.31859e-06
-5.3347e-10
-1.26632e-06
-3.56081e-10
-1.18368e-06
-2.21326e-10
-1.05628e-06
-7.92122e-07
1.03309e-10
-7.93227e-07
2.60305e-10
-1.0592e-06
2.50321e-10
-1.18739e-06
1.50238e-10
-1.27031e-06
1.64085e-11
-1.32253e-06
-1.4095e-10
-1.35409e-06
-3.16946e-10
-1.37262e-06
-4.97889e-10
-1.3832e-06
-6.75304e-10
-1.38878e-06
-8.38711e-10
-1.39098e-06
-9.80391e-10
-1.39049e-06
-1.09372e-09
-1.38733e-06
-1.16889e-09
-1.38085e-06
-1.20311e-09
-1.3695e-06
-1.14912e-09
-1.35045e-06
-9.7964e-10
-1.31875e-06
-7.32629e-10
-1.26656e-06
-4.13365e-10
-1.18398e-06
-7.05467e-11
-1.0566e-06
-7.9219e-07
3.35081e-10
-7.93544e-07
3.84032e-10
-1.05923e-06
4.07808e-10
-1.1874e-06
3.50817e-10
-1.27024e-06
2.1855e-10
-1.32239e-06
4.76671e-11
-1.35391e-06
-1.626e-10
-1.37241e-06
-3.82699e-10
-1.38297e-06
-6.01941e-10
-1.38856e-06
-8.01164e-10
-1.39077e-06
-9.79341e-10
-1.3903e-06
-1.12737e-09
-1.38718e-06
-1.23055e-09
-1.38074e-06
-1.28066e-09
-1.36945e-06
-1.24091e-09
-1.35049e-06
-1.09357e-09
-1.31889e-06
-8.13891e-10
-1.26683e-06
-4.22751e-10
-1.18436e-06
5.55622e-11
-1.05707e-06
-7.92134e-07
1.82083e-10
-7.93711e-07
4.08915e-10
-1.05944e-06
5.60619e-10
-1.18754e-06
6.07688e-10
-1.27027e-06
4.99358e-10
-1.32228e-06
2.93919e-10
-1.35369e-06
3.644e-11
-1.37215e-06
-2.39449e-10
-1.38269e-06
-5.10133e-10
-1.38828e-06
-7.56362e-10
-1.39052e-06
-9.72018e-10
-1.39008e-06
-1.14833e-09
-1.387e-06
-1.27843e-09
-1.38061e-06
-1.33821e-09
-1.36938e-06
-1.31988e-09
-1.3505e-06
-1.19805e-09
-1.31901e-06
-8.92263e-10
-1.26713e-06
-4.94921e-10
-1.18475e-06
-7.89479e-11
-1.05748e-06
-7.92212e-07
3.84192e-11
-7.9374e-07
4.38018e-10
-1.05982e-06
6.09755e-10
-1.1877e-06
6.45652e-10
-1.2703e-06
5.20538e-10
-1.32214e-06
2.91688e-10
-1.35346e-06
2.88139e-11
-1.37187e-06
-2.58977e-10
-1.38239e-06
-5.39067e-10
-1.38799e-06
-8.09967e-10
-1.39024e-06
-1.04358e-09
-1.38984e-06
-1.24675e-09
-1.38679e-06
-1.39343e-09
-1.38045e-06
-1.46753e-09
-1.3693e-06
-1.4556e-09
-1.3505e-06
-1.32878e-09
-1.31913e-06
-1.02358e-09
-1.26743e-06
-5.6727e-10
-1.1852e-06
-1.4666e-10
-1.05789e-06
-7.92356e-07
1.84048e-10
-7.93915e-07
5.11114e-10
-1.06014e-06
6.60964e-10
-1.18785e-06
6.50256e-10
-1.27028e-06
5.03831e-10
-1.32199e-06
2.60945e-10
-1.35321e-06
-1.01106e-11
-1.37159e-06
-3.0022e-10
-1.3821e-06
-5.84449e-10
-1.3877e-06
-8.6433e-10
-1.38996e-06
-1.11689e-09
-1.38957e-06
-1.33939e-09
-1.38656e-06
-1.50025e-09
-1.38028e-06
-1.58839e-09
-1.3692e-06
-1.57276e-09
-1.3505e-06
-1.44682e-09
-1.31924e-06
-1.15045e-09
-1.26771e-06
-6.29136e-10
-1.18571e-06
-9.45779e-11
-1.05842e-06
-7.92448e-07
3.27859e-10
-7.94227e-07
5.74285e-10
-1.06038e-06
7.79298e-10
-1.18804e-06
7.67503e-10
-1.27026e-06
5.9987e-10
-1.32181e-06
3.47547e-10
-1.35295e-06
4.6229e-11
-1.37129e-06
-2.74644e-10
-1.38177e-06
-5.90885e-10
-1.38737e-06
-8.99475e-10
-1.38964e-06
-1.18337e-09
-1.38928e-06
-1.43338e-09
-1.38631e-06
-1.6197e-09
-1.38008e-06
-1.72781e-09
-1.36909e-06
-1.73936e-09
-1.35048e-06
-1.61883e-09
-1.31935e-06
-1.28068e-09
-1.26804e-06
-7.49867e-10
-1.18624e-06
-1.87966e-10
-1.05897e-06
-7.92635e-07
3.85041e-10
-7.9459e-07
6.70192e-10
-1.06066e-06
9.15444e-10
-1.18827e-06
9.20061e-10
-1.27026e-06
7.59602e-10
-1.32164e-06
4.94435e-10
-1.35268e-06
1.54642e-10
-1.37094e-06
-2.14726e-10
-1.3814e-06
-5.79338e-10
-1.387e-06
-9.31104e-10
-1.38929e-06
-1.25773e-09
-1.38895e-06
-1.54915e-09
-1.38601e-06
-1.78022e-09
-1.37984e-06
-1.92787e-09
-1.36894e-06
-1.95871e-09
-1.35045e-06
-1.80813e-09
-1.3195e-06
-1.43559e-09
-1.26841e-06
-9.30318e-10
-1.18674e-06
-3.65972e-10
-1.05953e-06
-7.92998e-07
4.04131e-10
-7.94971e-07
7.68323e-10
-1.061e-06
1.10371e-09
-1.18859e-06
1.19793e-09
-1.27035e-06
1.06604e-09
-1.3215e-06
7.66821e-10
-1.35238e-06
3.67889e-10
-1.37053e-06
-6.6261e-11
-1.38096e-06
-4.97741e-10
-1.38656e-06
-9.13187e-10
-1.38887e-06
-1.29844e-09
-1.38856e-06
-1.64884e-09
-1.38566e-06
-1.9398e-09
-1.37955e-06
-2.13589e-09
-1.36874e-06
-2.1769e-09
-1.3504e-06
-2.008e-09
-1.31966e-06
-1.62516e-09
-1.26878e-06
-1.06785e-09
-1.18728e-06
-4.18414e-10
-1.06016e-06
-7.93409e-07
2.31617e-10
-7.95177e-07
8.19936e-10
-1.06156e-06
1.28733e-09
-1.18904e-06
1.47942e-09
-1.27053e-06
1.35717e-09
-1.32137e-06
1.0129e-09
-1.35202e-06
5.64573e-10
-1.37007e-06
8.19069e-11
-1.38047e-06
-4.00735e-10
-1.38607e-06
-8.63544e-10
-1.38839e-06
-1.29289e-09
-1.38811e-06
-1.68459e-09
-1.38525e-06
-2.01735e-09
-1.3792e-06
-2.2479e-09
-1.36849e-06
-2.3131e-09
-1.35032e-06
-2.18241e-09
-1.31977e-06
-1.78562e-09
-1.26916e-06
-1.10898e-09
-1.18792e-06
-3.10531e-10
-1.06092e-06
-7.93712e-07
1.54178e-10
-7.95303e-07
9.08605e-10
-1.06229e-06
1.39022e-09
-1.1895e-06
1.58159e-09
-1.2707e-06
1.46362e-09
-1.32123e-06
1.10925e-09
-1.35165e-06
6.49125e-10
-1.3696e-06
1.51813e-10
-1.37995e-06
-3.55741e-10
-1.38555e-06
-8.35626e-10
-1.38789e-06
-1.28347e-09
-1.38765e-06
-1.67656e-09
-1.38484e-06
-2.00146e-09
-1.37886e-06
-2.22764e-09
-1.36826e-06
-2.29734e-09
-1.35023e-06
-2.19046e-09
-1.31987e-06
-1.81999e-09
-1.2695e-06
-1.17456e-09
-1.18854e-06
-3.55461e-10
-1.06171e-06
-7.94063e-07
3.29897e-10
-7.95607e-07
1.03434e-09
-1.06296e-06
1.55115e-09
-1.19e-06
1.75373e-09
-1.27088e-06
1.62022e-09
-1.32109e-06
1.24047e-09
-1.35127e-06
7.46488e-10
-1.3691e-06
2.03888e-10
-1.3794e-06
-3.44919e-10
-1.38499e-06
-8.74384e-10
-1.38736e-06
-1.36452e-09
-1.38716e-06
-1.79636e-09
-1.3844e-06
-2.15218e-09
-1.37849e-06
-2.40869e-09
-1.36799e-06
-2.51225e-09
-1.35012e-06
-2.39516e-09
-1.31998e-06
-2.00233e-09
-1.26988e-06
-1.37204e-09
-1.18915e-06
-7.17126e-10
-1.06234e-06
-7.94778e-07
4.59897e-10
-7.96034e-07
1.19083e-09
-1.06366e-06
1.72979e-09
-1.19052e-06
1.92967e-09
-1.27107e-06
1.78416e-09
-1.32093e-06
1.39051e-09
-1.35087e-06
8.67273e-10
-1.36856e-06
2.69216e-10
-1.37881e-06
-3.4037e-10
-1.38438e-06
-9.47494e-10
-1.38675e-06
-1.51338e-09
-1.38658e-06
-2.0349e-09
-1.38388e-06
-2.46901e-09
-1.37805e-06
-2.79801e-09
-1.36766e-06
-2.95063e-09
-1.34996e-06
-2.82531e-09
-1.32009e-06
-2.36222e-09
-1.27034e-06
-1.60136e-09
-1.1899e-06
-7.89325e-10
-1.06314e-06
-7.95564e-07
6.26514e-10
-7.96631e-07
1.41186e-09
-1.06442e-06
2.03381e-09
-1.19113e-06
2.26451e-09
-1.27129e-06
2.10828e-09
-1.32076e-06
1.69268e-09
-1.35044e-06
1.11366e-09
-1.36798e-06
4.48282e-10
-1.37814e-06
-2.44312e-10
-1.38368e-06
-9.38556e-10
-1.38605e-06
-1.59801e-09
-1.38591e-06
-2.21447e-09
-1.38326e-06
-2.73341e-09
-1.37752e-06
-3.13354e-09
-1.36726e-06
-3.32471e-09
-1.34975e-06
-3.20142e-09
-1.3202e-06
-2.66585e-09
-1.27085e-06
-1.7686e-09
-1.19079e-06
-6.27901e-10
-1.06427e-06
-7.96189e-07
6.39422e-10
-7.97243e-07
1.60827e-09
-1.06535e-06
2.38489e-09
-1.19189e-06
2.71162e-09
-1.27159e-06
2.56723e-09
-1.32061e-06
2.12224e-09
-1.34998e-06
1.46852e-09
-1.36732e-06
7.22425e-10
-1.37738e-06
-5.83791e-11
-1.38289e-06
-8.34323e-10
-1.38527e-06
-1.57471e-09
-1.38516e-06
-2.26353e-09
-1.38257e-06
-2.8495e-09
-1.37692e-06
-3.29834e-09
-1.3668e-06
-3.51783e-09
-1.34952e-06
-3.3935e-09
-1.32031e-06
-2.83312e-09
-1.2714e-06
-1.862e-09
-1.19174e-06
-5.76013e-10
-1.06554e-06
-7.96762e-07
5.81972e-10
-7.97796e-07
1.73119e-09
-1.06646e-06
2.60525e-09
-1.19275e-06
3.00305e-09
-1.27196e-06
2.90716e-09
-1.3205e-06
2.45793e-09
-1.34951e-06
1.76612e-09
-1.36661e-06
9.5919e-10
-1.37656e-06
1.09655e-10
-1.38202e-06
-7.32676e-10
-1.38442e-06
-1.53669e-09
-1.38434e-06
-2.27059e-09
-1.38182e-06
-2.90059e-09
-1.37628e-06
-3.37704e-09
-1.36631e-06
-3.60834e-09
-1.34927e-06
-3.49537e-09
-1.32041e-06
-2.96878e-09
-1.27191e-06
-1.98306e-09
-1.19272e-06
-7.0856e-10
-1.0668e-06
-7.97467e-07
6.86521e-10
-7.98457e-07
1.90869e-09
-1.06764e-06
2.83701e-09
-1.19366e-06
3.26775e-09
-1.27236e-06
3.18496e-09
-1.3204e-06
2.70962e-09
-1.34902e-06
1.98387e-09
-1.36587e-06
1.12914e-09
-1.37569e-06
2.26993e-10
-1.38111e-06
-6.7599e-10
-1.3835e-06
-1.53896e-09
-1.38347e-06
-2.33166e-09
-1.38102e-06
-3.01661e-09
-1.37557e-06
-3.53957e-09
-1.36577e-06
-3.80337e-09
-1.34899e-06
-3.70125e-09
-1.3205e-06
-3.14574e-09
-1.27246e-06
-2.12075e-09
-1.19372e-06
-9.09598e-10
-1.06799e-06
-7.98372e-07
8.69621e-10
-7.99304e-07
2.15542e-09
-1.0689e-06
3.10561e-09
-1.19459e-06
3.53933e-09
-1.27278e-06
3.44261e-09
-1.32029e-06
2.93724e-09
-1.3485e-06
2.1798e-09
-1.36511e-06
1.28428e-09
-1.37478e-06
3.26484e-10
-1.38014e-06
-6.35226e-10
-1.38253e-06
-1.56694e-09
-1.38253e-06
-2.423e-09
-1.38014e-06
-3.16828e-09
-1.37482e-06
-3.73745e-09
-1.36519e-06
-4.03733e-09
-1.34868e-06
-3.95255e-09
-1.32057e-06
-3.36297e-09
-1.27303e-06
-2.29454e-09
-1.19477e-06
-1.01921e-09
-1.06925e-06
-7.99388e-07
1.01247e-09
-8.00288e-07
2.34928e-09
-1.07021e-06
3.40799e-09
-1.19563e-06
3.93274e-09
-1.27328e-06
3.85596e-09
-1.3202e-06
3.32383e-09
-1.34795e-06
2.50295e-09
-1.36427e-06
1.52545e-09
-1.37379e-06
4.68147e-10
-1.37907e-06
-5.97444e-10
-1.38145e-06
-1.63364e-09
-1.38148e-06
-2.58785e-09
-1.37917e-06
-3.4173e-09
-1.37397e-06
-4.0503e-09
-1.36454e-06
-4.39901e-09
-1.34831e-06
-4.33199e-09
-1.32062e-06
-3.69074e-09
-1.27365e-06
-2.52176e-09
-1.19593e-06
-1.16574e-09
-1.07059e-06
-8.00551e-07
9.78027e-10
-8.0123e-07
2.50896e-09
-1.07171e-06
3.69793e-09
-1.19679e-06
4.31921e-09
-1.27387e-06
4.28944e-09
-1.32015e-06
3.74309e-09
-1.34738e-06
2.85317e-09
-1.36336e-06
1.77567e-09
-1.37269e-06
6.08933e-10
-1.37789e-06
-5.74899e-10
-1.38025e-06
-1.72662e-09
-1.38031e-06
-2.80313e-09
-1.37808e-06
-3.74238e-09
-1.37302e-06
-4.46388e-09
-1.36381e-06
-4.8628e-09
-1.3479e-06
-4.77962e-09
-1.32069e-06
-4.04388e-09
-1.27438e-06
-2.72429e-09
-1.19724e-06
-1.15955e-09
-1.07214e-06
-8.01706e-07
1.04062e-09
-8.0224e-07
2.75027e-09
-1.07339e-06
3.99409e-09
-1.19801e-06
4.59692e-09
-1.27445e-06
4.55544e-09
-1.32008e-06
3.98198e-09
-1.34678e-06
3.05544e-09
-1.36242e-06
1.93188e-09
-1.37155e-06
7.10576e-10
-1.37665e-06
-5.3903e-10
-1.37898e-06
-1.7667e-09
-1.37907e-06
-2.922e-09
-1.37692e-06
-3.93861e-09
-1.37199e-06
-4.71599e-09
-1.36302e-06
-5.14043e-09
-1.34746e-06
-5.0539e-09
-1.32077e-06
-4.29176e-09
-1.27513e-06
-2.89286e-09
-1.19862e-06
-1.08194e-09
-1.07393e-06
-8.02782e-07
1.33479e-09
-8.03558e-07
3.03765e-09
-1.07509e-06
4.31318e-09
-1.19927e-06
4.89712e-09
-1.27502e-06
4.83355e-09
-1.32e-06
4.2401e-09
-1.34618e-06
3.28511e-09
-1.36145e-06
2.13156e-09
-1.37038e-06
8.66001e-10
-1.37538e-06
-4.2914e-10
-1.37767e-06
-1.71392e-09
-1.37778e-06
-2.91651e-09
-1.3757e-06
-3.98538e-09
-1.37091e-06
-4.8068e-09
-1.36218e-06
-5.26755e-09
-1.34699e-06
-5.20583e-09
-1.32081e-06
-4.46954e-09
-1.27585e-06
-3.05634e-09
-1.20001e-06
-1.20857e-09
-1.07575e-06
-8.03986e-07
1.53126e-09
-8.05068e-07
3.2928e-09
-1.07683e-06
4.72069e-09
-1.20068e-06
5.39807e-09
-1.27568e-06
5.34975e-09
-1.31995e-06
4.72993e-09
-1.34554e-06
3.70485e-09
-1.36042e-06
2.46727e-09
-1.36912e-06
1.10601e-09
-1.37401e-06
-2.76196e-10
-1.37627e-06
-1.64824e-09
-1.3764e-06
-2.92192e-09
-1.3744e-06
-4.04687e-09
-1.36978e-06
-4.91527e-09
-1.3613e-06
-5.4016e-09
-1.34649e-06
-5.34795e-09
-1.32086e-06
-4.62745e-09
-1.27655e-06
-3.22278e-09
-1.20139e-06
-1.43008e-09
-1.07752e-06
-8.05414e-07
1.40898e-09
-8.06441e-07
3.48477e-09
-1.07888e-06
5.09564e-09
-1.20226e-06
5.87013e-09
-1.27643e-06
5.83561e-09
-1.31989e-06
5.17234e-09
-1.34486e-06
4.08403e-09
-1.35931e-06
2.74889e-09
-1.36777e-06
1.28751e-09
-1.37254e-06
-2.12827e-10
-1.37475e-06
-1.69381e-09
-1.37491e-06
-3.0832e-09
-1.373e-06
-4.30609e-09
-1.36854e-06
-5.26301e-09
-1.36033e-06
-5.8106e-09
-1.34593e-06
-5.78463e-09
-1.32087e-06
-5.01624e-09
-1.27731e-06
-3.48883e-09
-1.20291e-06
-1.65798e-09
-1.07934e-06
-8.0707e-07
1.46197e-09
-8.07869e-07
3.69861e-09
-1.08109e-06
5.3515e-09
-1.20389e-06
6.12681e-09
-1.27719e-06
6.08886e-09
-1.31982e-06
5.40778e-09
-1.34416e-06
4.29964e-09
-1.35818e-06
2.90731e-09
-1.36637e-06
1.37185e-09
-1.37098e-06
-2.28993e-10
-1.37314e-06
-1.81307e-09
-1.37331e-06
-3.32009e-09
-1.37148e-06
-4.65254e-09
-1.36719e-06
-5.70487e-09
-1.35926e-06
-6.30482e-09
-1.34532e-06
-6.2679e-09
-1.32089e-06
-5.41007e-09
-1.27815e-06
-3.71319e-09
-1.2046e-06
-1.61776e-09
-1.08143e-06
-8.08686e-07
1.76191e-09
-8.09614e-07
3.91941e-09
-1.08324e-06
5.63336e-09
-1.20559e-06
6.46975e-09
-1.27802e-06
6.43469e-09
-1.31978e-06
5.73669e-09
-1.34345e-06
4.57941e-09
-1.35702e-06
3.12816e-09
-1.36491e-06
1.51014e-09
-1.36936e-06
-1.78424e-10
-1.37144e-06
-1.85653e-09
-1.37162e-06
-3.45636e-09
-1.36988e-06
-4.87812e-09
-1.36576e-06
-6.00593e-09
-1.35813e-06
-6.65021e-09
-1.34466e-06
-6.62195e-09
-1.3209e-06
-5.72932e-09
-1.27903e-06
-3.92423e-09
-1.20639e-06
-1.58846e-09
-1.08376e-06
-8.10274e-07
1.87088e-09
-8.11471e-07
4.15609e-09
-1.08551e-06
5.98439e-09
-1.20741e-06
6.90043e-09
-1.27893e-06
6.87057e-09
-1.31975e-06
6.13969e-09
-1.34271e-06
4.92228e-09
-1.3558e-06
3.40628e-09
-1.36338e-06
1.71037e-09
-1.36765e-06
-6.08082e-11
-1.36966e-06
-1.8252e-09
-1.36984e-06
-3.5058e-09
-1.36819e-06
-5.00406e-09
-1.36425e-06
-6.19481e-09
-1.35693e-06
-6.89735e-09
-1.34395e-06
-6.90739e-09
-1.32088e-06
-6.00232e-09
-1.27993e-06
-4.13189e-09
-1.20826e-06
-1.68631e-09
-1.0862e-06
-8.11962e-07
1.94305e-09
-8.13398e-07
4.43773e-09
-1.08799e-06
6.33932e-09
-1.20931e-06
7.27654e-09
-1.27986e-06
7.25617e-09
-1.31972e-06
6.50215e-09
-1.34195e-06
5.24525e-09
-1.35453e-06
3.67005e-09
-1.3618e-06
1.90063e-09
-1.36588e-06
5.00264e-11
-1.3678e-06
-1.80241e-09
-1.36799e-06
-3.5575e-09
-1.36643e-06
-5.12259e-09
-1.36268e-06
-6.35668e-09
-1.35569e-06
-7.09264e-09
-1.34321e-06
-7.1112e-09
-1.32087e-06
-6.19721e-09
-1.28085e-06
-4.31222e-09
-1.21016e-06
-1.81313e-09
-1.0887e-06
-8.13772e-07
2.05498e-09
-8.15431e-07