/*--------------------------------*- C++ -*----------------------------------*\
  =========                 |
  \\      /  F ield         | OpenFOAM: The Open Source CFD Toolbox
   \\    /   O peration     | Website:  https://openfoam.org
    \\  /    A nd           | Version:  6
     \\/     M anipulation  |
\*---------------------------------------------------------------------------*/
FoamFile
{
    version     2.0;
    format      ascii;
    class       volVectorField;
    location    "19";
    object      U;
}
// * * * * * * * * * * * * * * * * * * * * * * * * * * * * * * * * * * * * * //

dimensions      [0 1 -1 0 0 0 0];

internalField   nonuniform List<vector> 
10000
(
(-0.000766067 -3.17123 0)
(-0.00335225 -4.24145 0)
(-0.0064388 -4.75659 0)
(-0.00794908 -5.09049 0)
(-0.0078844 -5.3004 0)
(-0.00714226 -5.42565 0)
(-0.00615355 -5.49767 0)
(-0.0051362 -5.53749 0)
(-0.00410891 -5.55747 0)
(-0.00310021 -5.56422 0)
(-0.00210109 -5.56054 0)
(-0.0011057 -5.54645 0)
(-0.000104008 -5.51915 0)
(0.000943087 -5.47225 0)
(0.00203927 -5.39416 0)
(0.00313643 -5.26527 0)
(0.00394931 -5.05613 0)
(0.00365488 -4.72706 0)
(0.00239624 -4.2184 0)
(0.000828215 -3.15959 0)
(-0.000228178 -3.17384 0)
(-0.000521422 -4.2391 0)
(-0.00232369 -4.75528 0)
(-0.00369636 -5.09071 0)
(-0.00439354 -5.30204 0)
(-0.0044921 -5.42816 0)
(-0.00419789 -5.50062 0)
(-0.00368227 -5.54056 0)
(-0.00307324 -5.56053 0)
(-0.00243627 -5.56725 0)
(-0.00180591 -5.56356 0)
(-0.00118345 -5.54954 0)
(-0.0005811 -5.52239 0)
(-1.37551e-05 -5.47563 0)
(0.000485216 -5.39757 0)
(0.000817907 -5.26838 0)
(0.00096125 -5.05842 0)
(0.000810957 -4.72798 0)
(0.000393709 -4.21758 0)
(0.00100336 -3.16169 0)
(-0.00130501 -3.17293 0)
(-0.00119369 -4.23649 0)
(-0.0015861 -4.75355 0)
(-0.00224447 -5.08944 0)
(-0.00282126 -5.30125 0)
(-0.00297009 -5.42797 0)
(-0.00294394 -5.50087 0)
(-0.00270282 -5.54107 0)
(-0.00236712 -5.56115 0)
(-0.00197972 -5.56789 0)
(-0.00157828 -5.56419 0)
(-0.00118796 -5.55011 0)
(-0.000811981 -5.52288 0)
(-0.000448459 -5.47607 0)
(-8.3043e-05 -5.39786 0)
(0.000207747 -5.26822 0)
(0.00047099 -5.05769 0)
(0.000663808 -4.7267 0)
(0.000751997 -4.21556 0)
(0.00122221 -3.16021 0)
(-0.0011409 -3.1712 0)
(-0.000939862 -4.23378 0)
(-0.000813911 -4.75099 0)
(-0.00101932 -5.08788 0)
(-0.00142202 -5.30033 0)
(-0.00166176 -5.42761 0)
(-0.00178892 -5.50092 0)
(-0.00177603 -5.54134 0)
(-0.00166992 -5.56159 0)
(-0.00150057 -5.56843 0)
(-0.00129974 -5.56478 0)
(-0.00109592 -5.55067 0)
(-0.000906479 -5.52341 0)
(-0.00071809 -5.47661 0)
(-0.000488287 -5.3984 0)
(-0.000244984 -5.2686 0)
(-8.84054e-05 -5.05755 0)
(0.000239923 -4.72637 0)
(0.000426463 -4.21539 0)
(0.000267092 -3.15878 0)
(-0.000311802 -3.16866 0)
(-0.000897618 -4.23211 0)
(-0.000904507 -4.74942 0)
(-0.000865143 -5.0866 0)
(-0.000969962 -5.29934 0)
(-0.00112409 -5.42691 0)
(-0.00123242 -5.50042 0)
(-0.00129018 -5.54104 0)
(-0.00126444 -5.5615 0)
(-0.00118048 -5.5685 0)
(-0.00105049 -5.56489 0)
(-0.00091834 -5.55078 0)
(-0.000798922 -5.5235 0)
(-0.000677092 -5.47672 0)
(-0.000527318 -5.39854 0)
(-0.000262809 -5.26874 0)
(-6.22784e-06 -5.0575 0)
(0.000342125 -4.72579 0)
(0.000497921 -4.21483 0)
(-0.000494084 -3.15724 0)
(0.000295579 -3.16793 0)
(-0.000450482 -4.23264 0)
(-0.00089591 -4.74949 0)
(-0.000880762 -5.08671 0)
(-0.000978821 -5.29931 0)
(-0.00105538 -5.42678 0)
(-0.00111731 -5.50035 0)
(-0.00113171 -5.54102 0)
(-0.00109733 -5.56157 0)
(-0.00100379 -5.56868 0)
(-0.000877047 -5.56515 0)
(-0.000731167 -5.55105 0)
(-0.000585712 -5.52373 0)
(-0.000442703 -5.4769 0)
(-0.000267771 -5.39876 0)
(-1.43078e-05 -5.26928 0)
(0.000227556 -5.05829 0)
(0.000446271 -4.72615 0)
(0.000274684 -4.21497 0)
(-0.000988069 -3.15667 0)
(0.000436165 -3.1685 0)
(-0.0004199 -4.23315 0)
(-0.000717238 -4.74992 0)
(-0.000793298 -5.08721 0)
(-0.000838256 -5.29985 0)
(-0.000885223 -5.42716 0)
(-0.000932585 -5.50059 0)
(-0.000940496 -5.5413 0)
(-0.000912542 -5.56188 0)
(-0.000821489 -5.569 0)
(-0.00069499 -5.56549 0)
(-0.000547199 -5.55141 0)
(-0.000381329 -5.52407 0)
(-0.000214893 -5.47719 0)
(-7.37408e-05 -5.39912 0)
(0.000137478 -5.26997 0)
(0.00025609 -5.05911 0)
(0.000331513 -4.72665 0)
(0.000202707 -4.21543 0)
(-0.000780112 -3.1565 0)
(0.00014006 -3.16817 0)
(-0.000417838 -4.23296 0)
(-0.000365646 -4.74989 0)
(-0.000478435 -5.08718 0)
(-0.000450105 -5.29976 0)
(-0.000460549 -5.42705 0)
(-0.000548605 -5.50054 0)
(-0.000620453 -5.54135 0)
(-0.000661863 -5.56204 0)
(-0.000637293 -5.56925 0)
(-0.00056806 -5.5658 0)
(-0.00045344 -5.55178 0)
(-0.000295265 -5.5245 0)
(-0.000132026 -5.47771 0)
(-2.77683e-05 -5.39963 0)
(0.000132084 -5.27049 0)
(0.000151935 -5.05986 0)
(2.7949e-05 -4.7274 0)
(0.000171286 -4.21607 0)
(-0.000307391 -3.15707 0)
(-0.000283573 -3.1669 0)
(-0.000160158 -4.23184 0)
(-0.000186105 -4.74916 0)
(-0.000217834 -5.08672 0)
(-0.000202744 -5.29935 0)
(-0.00021949 -5.42671 0)
(-0.000322922 -5.50017 0)
(-0.000443977 -5.5411 0)
(-0.000560464 -5.56194 0)
(-0.000613959 -5.56927 0)
(-0.000613845 -5.56594 0)
(-0.000564315 -5.552 0)
(-0.000481666 -5.52482 0)
(-0.000387307 -5.4781 0)
(-0.000314885 -5.39995 0)
(-0.000294581 -5.27074 0)
(-0.000306451 -5.06038 0)
(-0.000409705 -4.72783 0)
(4.03453e-05 -4.21618 0)
(0.000242443 -3.15778 0)
(-5.42867e-05 -3.16632 0)
(4.0919e-05 -4.23217 0)
(-0.000240658 -4.74882 0)
(-0.000261027 -5.08627 0)
(-0.000337712 -5.29912 0)
(-0.000328249 -5.42638 0)
(-0.000401241 -5.49976 0)
(-0.000517934 -5.54078 0)
(-0.000623182 -5.56171 0)
(-0.000694357 -5.56912 0)
(-0.000732807 -5.56586 0)
(-0.000740098 -5.552 0)
(-0.00073523 -5.52485 0)
(-0.000736334 -5.47803 0)
(-0.000712411 -5.39975 0)
(-0.000765944 -5.2704 0)
(-0.000805121 -5.05964 0)
(-0.000619183 -4.72701 0)
(-0.000188357 -4.21547 0)
(0.000695012 -3.1572 0)
(3.72419e-05 -3.16608 0)
(5.53279e-05 -4.23246 0)
(-5.25387e-05 -4.74885 0)
(-0.000181955 -5.08656 0)
(-0.000331434 -5.29924 0)
(-0.000387928 -5.42619 0)
(-0.000475847 -5.49949 0)
(-0.00058043 -5.54053 0)
(-0.000649955 -5.56154 0)
(-0.000707128 -5.569 0)
(-0.000729764 -5.56579 0)
(-0.000739464 -5.55192 0)
(-0.000740034 -5.52472 0)
(-0.000714345 -5.47784 0)
(-0.000693012 -5.39955 0)
(-0.000686332 -5.27018 0)
(-0.000733195 -5.05906 0)
(-0.000534664 -4.72622 0)
(-0.000584236 -4.21552 0)
(0.000305278 -3.15673 0)
(-0.000109086 -3.16626 0)
(2.75118e-05 -4.23278 0)
(4.09537e-05 -4.74927 0)
(-0.00012883 -5.08677 0)
(-0.00027056 -5.29918 0)
(-0.00041913 -5.42595 0)
(-0.000490083 -5.49932 0)
(-0.000561136 -5.5404 0)
(-0.000606889 -5.56144 0)
(-0.000641238 -5.56896 0)
(-0.000653632 -5.56579 0)
(-0.000640201 -5.55199 0)
(-0.000614747 -5.52482 0)
(-0.000556783 -5.47798 0)
(-0.000486875 -5.39979 0)
(-0.000456008 -5.2703 0)
(-0.000498535 -5.05899 0)
(-0.000527583 -4.72661 0)
(-0.000783914 -4.21695 0)
(-0.000411423 -3.15774 0)
(-0.000458986 -3.16649 0)
(9.87493e-05 -4.23302 0)
(0.000112796 -4.74932 0)
(0.000108421 -5.0865 0)
(-0.000105781 -5.29902 0)
(-0.00025974 -5.42584 0)
(-0.000352267 -5.49914 0)
(-0.000431019 -5.54023 0)
(-0.000498994 -5.56131 0)
(-0.000547223 -5.56888 0)
(-0.000571802 -5.56577 0)
(-0.000576012 -5.55203 0)
(-0.000558059 -5.52492 0)
(-0.000517295 -5.47813 0)
(-0.000459478 -5.39996 0)
(-0.00046007 -5.27042 0)
(-0.000522883 -5.05901 0)
(-0.000550553 -4.72697 0)
(-0.000689369 -4.21785 0)
(-0.000395332 -3.15888 0)
(-0.000494742 -3.16665 0)
(0.000192602 -4.2328 0)
(0.000290359 -4.74859 0)
(0.000329766 -5.08582 0)
(8.71133e-05 -5.29856 0)
(-0.00011367 -5.42539 0)
(-0.000259439 -5.49881 0)
(-0.000359779 -5.53999 0)
(-0.000437523 -5.56111 0)
(-0.000495625 -5.56875 0)
(-0.000542476 -5.56569 0)
(-0.000555327 -5.55201 0)
(-0.000559476 -5.52492 0)
(-0.000534333 -5.47812 0)
(-0.000502774 -5.39997 0)
(-0.000510026 -5.2704 0)
(-0.000558155 -5.05888 0)
(-0.000510593 -4.72711 0)
(-0.000622557 -4.21833 0)
(-0.00027894 -3.15997 0)
(0.000234069 -3.16721 0)
(0.000455609 -4.23319 0)
(0.0003994 -4.74887 0)
(0.000223112 -5.0857 0)
(-6.53276e-06 -5.29824 0)
(-0.000210253 -5.42524 0)
(-0.000340529 -5.49874 0)
(-0.000408872 -5.53987 0)
(-0.000458046 -5.56097 0)
(-0.000502182 -5.56864 0)
(-0.000537986 -5.56563 0)
(-0.000559743 -5.55195 0)
(-0.000575934 -5.52489 0)
(-0.000577025 -5.47808 0)
(-0.000595468 -5.3999 0)
(-0.000628328 -5.27016 0)
(-0.000657514 -5.05864 0)
(-0.000617493 -4.72727 0)
(-0.000454282 -4.21868 0)
(-0.000327539 -3.16033 0)
(0.000467338 -3.16818 0)
(0.00045801 -4.23349 0)
(0.000549511 -4.74902 0)
(0.000524401 -5.08566 0)
(0.000220375 -5.29795 0)
(-4.93942e-05 -5.425 0)
(-0.000229718 -5.49867 0)
(-0.00035793 -5.53984 0)
(-0.000422745 -5.56093 0)
(-0.000470227 -5.56861 0)
(-0.000505879 -5.56564 0)
(-0.000528423 -5.55198 0)
(-0.000533739 -5.52488 0)
(-0.000563379 -5.47805 0)
(-0.000584112 -5.39983 0)
(-0.000618359 -5.2701 0)
(-0.000627788 -5.05863 0)
(-0.000554137 -4.72709 0)
(-0.000383844 -4.21835 0)
(-2.90222e-05 -3.16101 0)
(0.000239186 -3.16877 0)
(0.000391504 -4.23351 0)
(0.000403437 -4.7485 0)
(0.000483758 -5.08512 0)
(0.000311286 -5.29774 0)
(8.96373e-05 -5.42479 0)
(-0.000133944 -5.49846 0)
(-0.000297564 -5.53967 0)
(-0.000410027 -5.56083 0)
(-0.00048661 -5.56858 0)
(-0.000528212 -5.56566 0)
(-0.000549909 -5.55205 0)
(-0.000536391 -5.52504 0)
(-0.000515531 -5.47831 0)
(-0.00048108 -5.40012 0)
(-0.000459583 -5.27054 0)
(-0.000416352 -5.0593 0)
(-0.000449878 -4.72799 0)
(-0.00055275 -4.21949 0)
(-0.000293556 -3.16259 0)
(0.000326797 -3.1696 0)
(0.000326785 -4.23407 0)
(0.000399729 -4.74865 0)
(0.000423195 -5.08476 0)
(0.000390205 -5.29717 0)
(0.000189228 -5.42443 0)
(-5.24614e-05 -5.49816 0)
(-0.000258064 -5.5394 0)
(-0.000431026 -5.56062 0)
(-0.000557966 -5.5684 0)
(-0.000651721 -5.56554 0)
(-0.000717899 -5.55198 0)
(-0.00075694 -5.52504 0)
(-0.000783754 -5.47843 0)
(-0.000803181 -5.40036 0)
(-0.000816078 -5.27078 0)
(-0.000835839 -5.0596 0)
(-0.000843854 -4.72858 0)
(-0.000329337 -4.22012 0)
(-0.00036113 -3.16389 0)
(0.000406558 -3.16976 0)
(0.000217475 -4.23427 0)
(0.000393751 -4.74847 0)
(0.00043228 -5.08399 0)
(0.000471133 -5.29653 0)
(0.000250147 -5.42394 0)
(3.30517e-06 -5.49766 0)
(-0.000245062 -5.53892 0)
(-0.000442815 -5.56021 0)
(-0.000602866 -5.56806 0)
(-0.000724848 -5.56523 0)
(-0.000833068 -5.55171 0)
(-0.000934849 -5.52478 0)
(-0.00102798 -5.47814 0)
(-0.00109924 -5.39989 0)
(-0.00110856 -5.27014 0)
(-0.00110216 -5.05896 0)
(-0.00076796 -4.72765 0)
(-0.000219431 -4.21889 0)
(0.000103688 -3.16367 0)
(0.000398315 -3.16859 0)
(8.25586e-05 -4.23439 0)
(0.000205208 -4.74866 0)
(0.000273216 -5.08368 0)
(0.000285567 -5.29578 0)
(0.00012161 -5.42317 0)
(-9.11413e-05 -5.49703 0)
(-0.00030238 -5.53837 0)
(-0.000468832 -5.55975 0)
(-0.000607512 -5.5677 0)
(-0.0007149 -5.56493 0)
(-0.000791109 -5.55142 0)
(-0.000870326 -5.5245 0)
(-0.000927899 -5.47784 0)
(-0.000943805 -5.39956 0)
(-0.000922211 -5.26985 0)
(-0.00075771 -5.05851 0)
(-0.000478833 -4.72734 0)
(-0.000475777 -4.21949 0)
(-0.000383467 -3.16295 0)
(0.000239228 -3.16839 0)
(0.000148641 -4.23526 0)
(2.2527e-05 -4.74906 0)
(-9.10579e-05 -5.08364 0)
(-0.000121309 -5.29536 0)
(-0.000242686 -5.42259 0)
(-0.000373666 -5.49657 0)
(-0.00048423 -5.53804 0)
(-0.000573672 -5.55948 0)
(-0.000654024 -5.56748 0)
(-0.000706719 -5.56474 0)
(-0.000738992 -5.5513 0)
(-0.000751781 -5.52449 0)
(-0.000723165 -5.47789 0)
(-0.000671468 -5.39976 0)
(-0.000586704 -5.27014 0)
(-0.000355634 -5.05911 0)
(-0.000334257 -4.72852 0)
(-0.000560934 -4.22096 0)
(-0.000921165 -3.16346 0)
(0.000101694 -3.16936 0)
(0.000289683 -4.23573 0)
(8.87478e-05 -4.74974 0)
(-0.000235572 -5.08391 0)
(-0.000346858 -5.29515 0)
(-0.00052162 -5.42232 0)
(-0.000609281 -5.49636 0)
(-0.000658501 -5.5379 0)
(-0.000686649 -5.5594 0)
(-0.000710109 -5.56741 0)
(-0.000730435 -5.5647 0)
(-0.000739017 -5.55129 0)
(-0.000716545 -5.52448 0)
(-0.000695048 -5.4779 0)
(-0.000635729 -5.39985 0)
(-0.000543466 -5.27043 0)
(-0.000402661 -5.05963 0)
(-0.000351356 -4.72925 0)
(-0.000447974 -4.22167 0)
(-0.000646117 -3.16433 0)
(-0.000104592 -3.17018 0)
(0.000344848 -4.23577 0)
(0.00028663 -4.74977 0)
(1.91118e-05 -5.08354 0)
(-0.000290464 -5.29492 0)
(-0.000530366 -5.42221 0)
(-0.00066327 -5.49628 0)
(-0.000711324 -5.53788 0)
(-0.000735096 -5.55944 0)
(-0.000735141 -5.56749 0)
(-0.000728102 -5.56478 0)
(-0.000716315 -5.55135 0)
(-0.0006964 -5.52454 0)
(-0.000682091 -5.47797 0)
(-0.00067733 -5.39989 0)
(-0.000629703 -5.27052 0)
(-0.000511968 -5.05976 0)
(-0.000455816 -4.72935 0)
(-0.000411794 -4.22148 0)
(-0.00015353 -3.16497 0)
(-0.000258595 -3.17095 0)
(0.00027638 -4.23544 0)
(0.000255131 -4.74951 0)
(0.000114472 -5.08338 0)
(-0.00027194 -5.29467 0)
(-0.000458455 -5.42204 0)
(-0.000623713 -5.4962 0)
(-0.00069028 -5.53789 0)
(-0.000736263 -5.55949 0)
(-0.00074655 -5.56757 0)
(-0.000749451 -5.56487 0)
(-0.000739378 -5.55146 0)
(-0.0007238 -5.52467 0)
(-0.000714264 -5.4781 0)
(-0.000705187 -5.40009 0)
(-0.000635421 -5.27093 0)
(-0.000481595 -5.06058 0)
(-0.000388223 -4.73005 0)
(-0.000396156 -4.22154 0)
(-0.000134233 -3.16592 0)
(-0.00034088 -3.17142 0)
(6.5532e-05 -4.2354 0)
(0.00024743 -4.74914 0)
(0.000307856 -5.08312 0)
(-2.81749e-05 -5.29432 0)
(-0.000251062 -5.42161 0)
(-0.000484299 -5.49582 0)
(-0.000623728 -5.53764 0)
(-0.000728267 -5.55937 0)
(-0.000791995 -5.5675 0)
(-0.000834722 -5.56485 0)
(-0.000873685 -5.55147 0)
(-0.000908861 -5.52467 0)
(-0.000940759 -5.47817 0)
(-0.000969875 -5.40026 0)
(-0.000913163 -5.27128 0)
(-0.000730388 -5.06122 0)
(-0.000471138 -4.73087 0)
(-0.000232553 -4.2221 0)
(-6.64849e-05 -3.16661 0)
(-8.7244e-05 -3.17156 0)
(0.000113692 -4.23491 0)
(0.000333475 -4.7486 0)
(0.000415621 -5.08263 0)
(0.000200754 -5.29369 0)
(-8.62213e-05 -5.42105 0)
(-0.000359089 -5.49533 0)
(-0.000586572 -5.53722 0)
(-0.000759034 -5.55903 0)
(-0.000887164 -5.56722 0)
(-0.000991699 -5.56463 0)
(-0.00107467 -5.55131 0)
(-0.00116175 -5.52455 0)
(-0.00121662 -5.47805 0)
(-0.00126523 -5.40026 0)
(-0.00120122 -5.27149 0)
(-0.000962291 -5.06157 0)
(-0.00065896 -4.73107 0)
(-0.000147184 -4.22201 0)
(0.000264623 -3.16699 0)
(0.000763535 -3.17161 0)
(0.000172019 -4.23464 0)
(0.000305034 -4.74827 0)
(0.000362216 -5.08215 0)
(0.000252317 -5.29302 0)
(-4.44643e-05 -5.42034 0)
(-0.000332094 -5.49475 0)
(-0.000615181 -5.53675 0)
(-0.000835917 -5.55863 0)
(-0.00101729 -5.56687 0)
(-0.00116252 -5.5643 0)
(-0.00129151 -5.551 0)
(-0.00140853 -5.52425 0)
(-0.00148753 -5.47777 0)
(-0.00152332 -5.40005 0)
(-0.00142396 -5.27138 0)
(-0.00111281 -5.06186 0)
(-0.000766285 -4.73142 0)
(-0.000107297 -4.22183 0)
(0.000148067 -3.16656 0)
(0.00125644 -3.1717 0)
(0.000212115 -4.23514 0)
(0.000157436 -4.74832 0)
(0.000148988 -5.08207 0)
(4.28505e-05 -5.29278 0)
(-0.000186181 -5.41984 0)
(-0.000448526 -5.49418 0)
(-0.000715938 -5.53624 0)
(-0.000939075 -5.55818 0)
(-0.00112667 -5.56647 0)
(-0.00128148 -5.56395 0)
(-0.0014072 -5.55068 0)
(-0.00150055 -5.524 0)
(-0.00155501 -5.47765 0)
(-0.00150709 -5.39999 0)
(-0.0013555 -5.2714 0)
(-0.00101913 -5.06202 0)
(-0.000610741 -4.73158 0)
(-0.000122209 -4.22199 0)
(-0.000226293 -3.16593 0)
(0.00101249 -3.17248 0)
(0.000152221 -4.23566 0)
(0.000339753 -4.7486 0)
(0.000193719 -5.08218 0)
(9.01523e-05 -5.29252 0)
(-0.000177611 -5.4193 0)
(-0.000456891 -5.49363 0)
(-0.000733546 -5.53573 0)
(-0.000970091 -5.55773 0)
(-0.00116728 -5.56612 0)
(-0.00131751 -5.56369 0)
(-0.00142689 -5.55047 0)
(-0.00147134 -5.52383 0)
(-0.00145466 -5.47758 0)
(-0.00130123 -5.40016 0)
(-0.00104915 -5.27191 0)
(-0.00071658 -5.06272 0)
(-0.000393816 -4.73245 0)
(-0.00033944 -4.22313 0)
(-0.000477283 -3.16585 0)
(0.000538887 -3.17258 0)
(0.000185282 -4.23573 0)
(0.000457678 -4.74899 0)
(0.000300112 -5.08205 0)
(0.000198793 -5.29209 0)
(-9.62724e-05 -5.4188 0)
(-0.000405687 -5.49312 0)
(-0.000695587 -5.53525 0)
(-0.000956257 -5.5573 0)
(-0.00116998 -5.56577 0)
(-0.0013379 -5.56343 0)
(-0.00144709 -5.55031 0)
(-0.00148509 -5.52387 0)
(-0.0014496 -5.47784 0)
(-0.00127212 -5.4006 0)
(-0.000989599 -5.27269 0)
(-0.000720219 -5.06361 0)
(-0.000492851 -4.73331 0)
(-0.000432817 -4.22417 0)
(-0.000267979 -3.16647 0)
(0.000111607 -3.17227 0)
(6.718e-05 -4.23563 0)
(0.000473835 -4.74893 0)
(0.000386061 -5.08169 0)
(0.0002888 -5.2914 0)
(3.03232e-07 -5.418 0)
(-0.00033647 -5.49232 0)
(-0.000653359 -5.53459 0)
(-0.000956211 -5.55679 0)
(-0.00120618 -5.56537 0)
(-0.0013966 -5.56316 0)
(-0.00151993 -5.55022 0)
(-0.00156952 -5.52397 0)
(-0.00151552 -5.47815 0)
(-0.00135089 -5.40129 0)
(-0.00108831 -5.27376 0)
(-0.000814278 -5.06467 0)
(-0.000669691 -4.73421 0)
(-0.00037032 -4.22501 0)
(4.21625e-06 -3.1679 0)
(-1.20938e-05 -3.17204 0)
(0.000152044 -4.23526 0)
(0.000492872 -4.74893 0)
(0.000485356 -5.08122 0)
(0.000338013 -5.29044 0)
(-1.74622e-05 -5.41704 0)
(-0.000360379 -5.49142 0)
(-0.000722934 -5.53382 0)
(-0.00106629 -5.55617 0)
(-0.0013677 -5.56489 0)
(-0.00161501 -5.56281 0)
(-0.00178903 -5.55002 0)
(-0.0018915 -5.52395 0)
(-0.00191565 -5.47835 0)
(-0.0018334 -5.40181 0)
(-0.00165302 -5.27454 0)
(-0.0014131 -5.06564 0)
(-0.000980737 -4.73524 0)
(-0.000281604 -4.22565 0)
(0.000240278 -3.16911 0)
(0.000437936 -3.17321 0)
(0.000630681 -4.23684 0)
(0.000581315 -4.74976 0)
(0.000423006 -5.08158 0)
(0.000153754 -5.29057 0)
(-0.000156071 -5.41678 0)
(-0.000480671 -5.49093 0)
(-0.000823559 -5.53324 0)
(-0.00117408 -5.55556 0)
(-0.00151244 -5.56432 0)
(-0.00181273 -5.56232 0)
(-0.00206754 -5.54964 0)
(-0.00226403 -5.52366 0)
(-0.0023854 -5.47819 0)
(-0.00239084 -5.40186 0)
(-0.00228804 -5.27481 0)
(-0.00196809 -5.06578 0)
(-0.001159 -4.73514 0)
(-0.000175396 -4.22564 0)
(0.000363931 -3.16878 0)
(0.00011272 -3.17445 0)
(0.000510939 -4.23794 0)
(0.000933666 -4.75067 0)
(0.000887194 -5.08201 0)
(0.000632035 -5.2905 0)
(0.000293555 -5.41646 0)
(-0.00012752 -5.49039 0)
(-0.000565712 -5.53255 0)
(-0.000994816 -5.55482 0)
(-0.00140711 -5.56358 0)
(-0.00178229 -5.56164 0)
(-0.00210556 -5.54906 0)
(-0.00237025 -5.52318 0)
(-0.00254284 -5.47778 0)
(-0.00259705 -5.40169 0)
(-0.00245265 -5.275 0)
(-0.00202006 -5.06625 0)
(-0.00124456 -4.73618 0)
(-0.000289154 -4.22692 0)
(-0.000297061 -3.16804 0)
(-0.000371087 -3.17445 0)
(0.000389959 -4.23713 0)
(0.00104411 -4.74971 0)
(0.00134003 -5.08093 0)
(0.00123961 -5.28945 0)
(0.000879148 -5.41535 0)
(0.000352606 -5.48922 0)
(-0.000219894 -5.53137 0)
(-0.00077259 -5.55373 0)
(-0.00128859 -5.56261 0)
(-0.00174121 -5.56078 0)
(-0.00213722 -5.54836 0)
(-0.00244758 -5.52269 0)
(-0.00264843 -5.47764 0)
(-0.00275434 -5.40196 0)
(-0.0025583 -5.27576 0)
(-0.0021523 -5.06782 0)
(-0.00142272 -4.7381 0)
(-0.000440501 -4.2289 0)
(-0.000843068 -3.16844 0)
(9.67628e-05 -3.17376 0)
(0.000734757 -4.23747 0)
(0.0010047 -4.74963 0)
(0.00130609 -5.08045 0)
(0.00120852 -5.2883 0)
(0.000895692 -5.41398 0)
(0.000361171 -5.48786 0)
(-0.0002243 -5.53006 0)
(-0.000809557 -5.55249 0)
(-0.00136514 -5.56149 0)
(-0.00187202 -5.55982 0)
(-0.00231408 -5.54758 0)
(-0.00266261 -5.52211 0)
(-0.002897 -5.47736 0)
(-0.00300156 -5.40198 0)
(-0.00285709 -5.27629 0)
(-0.00241347 -5.06921 0)
(-0.00163029 -4.73987 0)
(-0.00048378 -4.23063 0)
(-0.000664624 -3.16907 0)
(0.000798809 -3.17485 0)
(0.000993012 -4.23958 0)
(0.00114382 -4.75066 0)
(0.00130117 -5.08077 0)
(0.00113142 -5.28794 0)
(0.000780714 -5.41308 0)
(0.000276578 -5.48676 0)
(-0.000293763 -5.52887 0)
(-0.000876707 -5.5513 0)
(-0.00145591 -5.56037 0)
(-0.00199633 -5.55882 0)
(-0.0024784 -5.54671 0)
(-0.00286961 -5.52146 0)
(-0.003127 -5.47702 0)
(-0.00321765 -5.40202 0)
(-0.0031289 -5.27668 0)
(-0.0026311 -5.07016 0)
(-0.00180819 -4.74164 0)
(-0.000639952 -4.23242 0)
(-0.000396037 -3.16948 0)
(0.000919476 -3.17646 0)
(0.000922935 -4.24113 0)
(0.00144959 -4.75183 0)
(0.00157265 -5.08121 0)
(0.00138774 -5.28769 0)
(0.000944732 -5.41233 0)
(0.000382314 -5.48578 0)
(-0.000225023 -5.52778 0)
(-0.00085912 -5.55019 0)
(-0.00149171 -5.55926 0)
(-0.00209345 -5.55776 0)
(-0.00263679 -5.5458 0)
(-0.00308286 -5.52078 0)
(-0.00339887 -5.47665 0)
(-0.00352719 -5.40208 0)
(-0.00341799 -5.27724 0)
(-0.00299115 -5.07149 0)
(-0.00210312 -4.7441 0)
(-0.000868094 -4.23504 0)
(-0.000389618 -3.1704 0)
(0.000846589 -3.17838 0)
(0.000898971 -4.24277 0)
(0.00174987 -4.75323 0)
(0.00194622 -5.08147 0)
(0.00179114 -5.2872 0)
(0.00127186 -5.41152 0)
(0.00062252 -5.48466 0)
(-7.19606e-05 -5.5265 0)
(-0.000802912 -5.54888 0)
(-0.00151595 -5.55798 0)
(-0.00219524 -5.55657 0)
(-0.00282653 -5.54475 0)
(-0.00335518 -5.51999 0)
(-0.0037578 -5.47623 0)
(-0.00395293 -5.40201 0)
(-0.0038473 -5.27789 0)
(-0.00341143 -5.07328 0)
(-0.00246574 -4.74642 0)
(-0.00114062 -4.23743 0)
(-0.000538039 -3.17158 0)
(0.000775685 -3.17978 0)
(0.000782433 -4.24377 0)
(0.00206393 -4.75416 0)
(0.00251559 -5.08165 0)
(0.00246469 -5.28669 0)
(0.00189179 -5.41045 0)
(0.00113263 -5.48316 0)
(0.000283455 -5.52485 0)
(-0.000591132 -5.54722 0)
(-0.00143034 -5.55638 0)
(-0.00222897 -5.55506 0)
(-0.00296498 -5.54337 0)
(-0.00361024 -5.51879 0)
(-0.00410544 -5.47533 0)
(-0.00438724 -5.40165 0)
(-0.00434143 -5.27833 0)
(-0.00382927 -5.07439 0)
(-0.0027666 -4.74796 0)
(-0.00134824 -4.23924 0)
(-0.000518745 -3.17275 0)
(0.000756585 -3.17986 0)
(0.000761875 -4.2446 0)
(0.00225628 -4.75486 0)
(0.00301242 -5.08138 0)
(0.00303401 -5.28551 0)
(0.00245394 -5.40874 0)
(0.00160534 -5.48118 0)
(0.00063364 -5.52285 0)
(-0.000350762 -5.54526 0)
(-0.00129619 -5.5545 0)
(-0.00218336 -5.55329 0)
(-0.003003 -5.54173 0)
(-0.00372335 -5.51734 0)
(-0.004281 -5.47423 0)
(-0.00463779 -5.40108 0)
(-0.00463844 -5.27833 0)
(-0.00407929 -5.07508 0)
(-0.00298247 -4.74935 0)
(-0.00149738 -4.24107 0)
(-0.000625062 -3.17298 0)
(0.00117662 -3.18032 0)
(0.00122673 -4.24692 0)
(0.00234566 -4.75641 0)
(0.00310417 -5.08196 0)
(0.00315152 -5.28485 0)
(0.00264125 -5.40714 0)
(0.00181275 -5.47923 0)
(0.000804711 -5.52077 0)
(-0.00021902 -5.5432 0)
(-0.00122016 -5.55254 0)
(-0.0021541 -5.5515 0)
(-0.00299871 -5.54014 0)
(-0.00372273 -5.51606 0)
(-0.00426547 -5.47344 0)
(-0.00457087 -5.40096 0)
(-0.00453818 -5.27897 0)
(-0.00399574 -5.07686 0)
(-0.00305454 -4.75242 0)
(-0.00192221 -4.24468 0)
(-0.0010997 -3.17497 0)
(0.00122458 -3.18135 0)
(0.0014687 -4.25027 0)
(0.00268195 -4.75881 0)
(0.00343421 -5.08295 0)
(0.00343616 -5.28448 0)
(0.00292373 -5.40572 0)
(0.00202821 -5.47733 0)
(0.000963499 -5.51871 0)
(-0.000145843 -5.54113 0)
(-0.00123639 -5.55058 0)
(-0.00226582 -5.54972 0)
(-0.00319503 -5.53862 0)
(-0.00399474 -5.51487 0)
(-0.00461735 -5.47275 0)
(-0.00497336 -5.40108 0)
(-0.00497155 -5.28022 0)
(-0.00449969 -5.07947 0)
(-0.0035416 -4.75628 0)
(-0.00205702 -4.24916 0)
(-0.00107031 -3.17863 0)
(0.000994452 -3.18346 0)
(0.00174471 -4.25341 0)
(0.00308394 -4.76121 0)
(0.00382368 -5.0841 0)
(0.00380107 -5.28416 0)
(0.00325258 -5.40436 0)
(0.00228849 -5.47542 0)
(0.00114778 -5.51654 0)
(-7.03437e-05 -5.53888 0)
(-0.00129245 -5.54837 0)
(-0.00247127 -5.54765 0)
(-0.0035633 -5.53676 0)
(-0.00452734 -5.51333 0)
(-0.00533347 -5.47162 0)
(-0.00585994 -5.40059 0)
(-0.00598027 -5.28078 0)
(-0.005518 -5.08124 0)
(-0.00416759 -4.75895 0)
(-0.0020331 -4.25175 0)
(-0.000412003 -3.18203 0)
(0.000716772 -3.1862 0)
(0.0019419 -4.25688 0)
(0.00371498 -4.76385 0)
(0.00453352 -5.08518 0)
(0.00454733 -5.28378 0)
(0.00390804 -5.40294 0)
(0.00284508 -5.47334 0)
(0.00157247 -5.51407 0)
(0.000202183 -5.53626 0)
(-0.00118914 -5.54576 0)
(-0.00253842 -5.54513 0)
(-0.0038211 -5.53442 0)
(-0.00497704 -5.51127 0)
(-0.005946 -5.46996 0)
(-0.00662752 -5.3995 0)
(-0.00679582 -5.2806 0)
(-0.00627362 -5.08227 0)
(-0.00455669 -4.7613 0)
(-0.00216904 -4.25475 0)
(-0.00042612 -3.18327 0)
(0.000441535 -3.18782 0)
(0.00204162 -4.25959 0)
(0.00428223 -4.7662 0)
(0.00541108 -5.08593 0)
(0.00554794 -5.28292 0)
(0.0048439 -5.401 0)
(0.00364221 -5.47074 0)
(0.0022087 -5.51115 0)
(0.000652759 -5.53322 0)
(-0.000906024 -5.54271 0)
(-0.00242649 -5.54219 0)
(-0.00386401 -5.53168 0)
(-0.00516345 -5.50886 0)
(-0.0062535 -5.46803 0)
(-0.00698983 -5.39832 0)
(-0.00715844 -5.28065 0)
(-0.00647181 -5.08394 0)
(-0.00474775 -4.76419 0)
(-0.00245349 -4.25868 0)
(-0.00124049 -3.18506 0)
(0.000798602 -3.18935 0)
(0.0022638 -4.26299 0)
(0.0045323 -4.76872 0)
(0.00585208 -5.08668 0)
(0.00621328 -5.28196 0)
(0.00554886 -5.39887 0)
(0.00430837 -5.4678 0)
(0.0027558 -5.50784 0)
(0.00106032 -5.52981 0)
(-0.000644467 -5.53937 0)
(-0.00230237 -5.53899 0)
(-0.00386061 -5.52874 0)
(-0.0052489 -5.50632 0)
(-0.0063882 -5.4661 0)
(-0.0071181 -5.39734 0)
(-0.00729796 -5.28111 0)
(-0.00656415 -5.08621 0)
(-0.0049698 -4.76837 0)
(-0.00282693 -4.26402 0)
(-0.00191892 -3.18755 0)
(0.00133543 -3.19197 0)
(0.00259748 -4.2676 0)
(0.00494529 -4.77228 0)
(0.00630727 -5.08813 0)
(0.00669758 -5.28139 0)
(0.00605516 -5.39681 0)
(0.00479734 -5.46484 0)
(0.0031508 -5.50443 0)
(0.00135983 -5.52626 0)
(-0.000469929 -5.53586 0)
(-0.0022525 -5.53565 0)
(-0.00392713 -5.52569 0)
(-0.00542957 -5.50367 0)
(-0.00665449 -5.4641 0)
(-0.00745676 -5.39642 0)
(-0.00765891 -5.28166 0)
(-0.00697893 -5.08851 0)
(-0.00541387 -4.77272 0)
(-0.00301347 -4.26945 0)
(-0.0017645 -3.19128 0)
(0.00155051 -3.19584 0)
(0.0030617 -4.27325 0)
(0.00548047 -4.77661 0)
(0.00688909 -5.09038 0)
(0.00716545 -5.28152 0)
(0.00651777 -5.39518 0)
(0.00521842 -5.46209 0)
(0.00351034 -5.50107 0)
(0.00162866 -5.52264 0)
(-0.000320703 -5.5322 0)
(-0.00223399 -5.53212 0)
(-0.00404168 -5.52247 0)
(-0.00566428 -5.50095 0)
(-0.00700318 -5.46212 0)
(-0.00790757 -5.39556 0)
(-0.00815904 -5.28238 0)
(-0.00750164 -5.09122 0)
(-0.00587041 -4.7772 0)
(-0.00335249 -4.27473 0)
(-0.00134409 -3.19612 0)
(0.001209 -3.19948 0)
(0.00305727 -4.27863 0)
(0.00599911 -4.78098 0)
(0.00770974 -5.09262 0)
(0.00802513 -5.28143 0)
(0.00736022 -5.39324 0)
(0.00593072 -5.45903 0)
(0.00408245 -5.49736 0)
(0.0020131 -5.51863 0)
(-0.000133383 -5.52815 0)
(-0.00225563 -5.52821 0)
(-0.00426624 -5.51885 0)
(-0.00607304 -5.49782 0)
(-0.0075837 -5.45978 0)
(-0.00863472 -5.39442 0)
(-0.00897256 -5.28298 0)
(-0.00831012 -5.09402 0)
(-0.00648299 -4.78214 0)
(-0.00353082 -4.28051 0)
(-0.00115654 -3.20081 0)
(0.0008032 -3.20227 0)
(0.00320569 -4.28323 0)
(0.00639942 -4.7844 0)
(0.00845171 -5.09398 0)
(0.00891444 -5.28044 0)
(0.0082574 -5.39051 0)
(0.00671044 -5.45522 0)
(0.00469303 -5.49298 0)
(0.00240352 -5.51398 0)
(3.44745e-05 -5.52346 0)
(-0.00231719 -5.52367 0)
(-0.00456503 -5.51462 0)
(-0.00661164 -5.49411 0)
(-0.00834196 -5.45682 0)
(-0.00955979 -5.39252 0)
(-0.00996552 -5.28271 0)
(-0.00922707 -5.09619 0)
(-0.00703242 -4.78648 0)
(-0.00360096 -4.28543 0)
(-0.00108298 -3.20453 0)
(0.00121901 -3.20636 0)
(0.00388341 -4.28946 0)
(0.00693284 -4.78879 0)
(0.00897625 -5.09595 0)
(0.00942822 -5.27993 0)
(0.00872316 -5.388 0)
(0.00715522 -5.45137 0)
(0.00505871 -5.48836 0)
(0.0026765 -5.50901 0)
(0.00018017 -5.51842 0)
(-0.00232176 -5.51873 0)
(-0.00472782 -5.50995 0)
(-0.00693476 -5.48992 0)
(-0.00878943 -5.45345 0)
(-0.0100931 -5.39039 0)
(-0.0105079 -5.28244 0)
(-0.00968481 -5.09829 0)
(-0.00735583 -4.79077 0)
(-0.00408152 -4.29114 0)
(-0.00154732 -3.20796 0)
(0.00185693 -3.21208 0)
(0.00444614 -4.29745 0)
(0.00757993 -4.79498 0)
(0.00958732 -5.09935 0)
(0.0100089 -5.28045 0)
(0.00924 -5.38608 0)
(0.00763999 -5.44783 0)
(0.0054889 -5.48393 0)
(0.0030315 -5.50413 0)
(0.000440549 -5.51336 0)
(-0.00216481 -5.51372 0)
(-0.00468133 -5.50521 0)
(-0.00698318 -5.48573 0)
(-0.00891051 -5.45021 0)
(-0.0102661 -5.38857 0)
(-0.010721 -5.28259 0)
(-0.00994035 -5.1013 0)
(-0.00769842 -4.79648 0)
(-0.00453138 -4.29839 0)
(-0.002357 -3.21242 0)
(0.0019577 -3.21793 0)
(0.00452532 -4.3044 0)
(0.00829088 -4.80045 0)
(0.0105728 -5.10196 0)
(0.0111364 -5.28039 0)
(0.0102966 -5.3838 0)
(0.0085615 -5.44403 0)
(0.00623656 -5.47921 0)
(0.00359389 -5.49894 0)
(0.000824306 -5.50801 0)
(-0.0019583 -5.50848 0)
(-0.00463169 -5.50031 0)
(-0.00705586 -5.48149 0)
(-0.00908348 -5.44705 0)
(-0.0104768 -5.38708 0)
(-0.0109876 -5.28346 0)
(-0.0102368 -5.10488 0)
(-0.00812109 -4.80288 0)
(-0.00480392 -4.30679 0)
(-0.00264622 -3.21904 0)
(0.00201402 -3.22233 0)
(0.00472756 -4.3107 0)
(0.00881307 -4.80534 0)
(0.0114393 -5.10381 0)
(0.0121259 -5.27944 0)
(0.0112619 -5.38071 0)
(0.00940592 -5.43948 0)
(0.00691297 -5.47386 0)
(0.00406256 -5.4932 0)
(0.00106935 -5.50217 0)
(-0.00193846 -5.50276 0)
(-0.00482931 -5.49497 0)
(-0.00746675 -5.47686 0)
(-0.00969286 -5.44354 0)
(-0.0112829 -5.38528 0)
(-0.011924 -5.28407 0)
(-0.0112226 -5.10848 0)
(-0.00894235 -4.80944 0)
(-0.0048912 -4.31457 0)
(-0.00213507 -3.22609 0)
(0.00272489 -3.22799 0)
(0.00535228 -4.31937 0)
(0.00922732 -4.81172 0)
(0.0118411 -5.10684 0)
(0.0125846 -5.27914 0)
(0.0117547 -5.37784 0)
(0.00987366 -5.43489 0)
(0.00730604 -5.46827 0)
(0.00432965 -5.48709 0)
(0.00115632 -5.49589 0)
(-0.00205957 -5.49656 0)
(-0.00517141 -5.48912 0)
(-0.00804211 -5.47167 0)
(-0.0105026 -5.43942 0)
(-0.0122879 -5.38277 0)
(-0.013032 -5.28382 0)
(-0.0122627 -5.11127 0)
(-0.00953291 -4.81534 0)
(-0.00497796 -4.32178 0)
(-0.00158866 -3.23179 0)
(0.00300715 -3.23503 0)
(0.00562384 -4.32891 0)
(0.00987886 -4.81912 0)
(0.012484 -5.1105 0)
(0.0132638 -5.27926 0)
(0.012434 -5.37528 0)
(0.0104826 -5.43046 0)
(0.00781124 -5.4626 0)
(0.00469788 -5.48075 0)
(0.00135427 -5.48926 0)
(-0.00204419 -5.48994 0)
(-0.00535458 -5.4828 0)
(-0.00842255 -5.46598 0)
(-0.0110539 -5.43482 0)
(-0.0129553 -5.3799 0)
(-0.0137698 -5.28343 0)
(-0.0128993 -5.11406 0)
(-0.0100048 -4.82153 0)
(-0.00538287 -4.32992 0)
(-0.00191374 -3.23754 0)
(0.00269141 -3.24243 0)
(0.00591032 -4.33755 0)
(0.0106019 -4.82604 0)
(0.0133763 -5.11394 0)
(0.0141473 -5.27911 0)
(0.0132674 -5.37241 0)
(0.0112278 -5.42572 0)
(0.00843455 -5.45667 0)
(0.00517551 -5.47412 0)
(0.00167136 -5.48232 0)
(-0.00190272 -5.48303 0)
(-0.00538711 -5.47622 0)
(-0.00861915 -5.46009 0)
(-0.0113853 -5.43013 0)
(-0.013386 -5.37715 0)
(-0.0142346 -5.28339 0)
(-0.0133871 -5.11756 0)
(-0.0104553 -4.82886 0)
(-0.005823 -4.33936 0)
(-0.00262091 -3.24392 0)
(0.00284931 -3.25007 0)
(0.0064089 -4.34719 0)
(0.0112104 -4.83369 0)
(0.0141438 -5.11785 0)
(0.0149432 -5.2792 0)
(0.0140314 -5.36953 0)
(0.0119259 -5.42082 0)
(0.00902511 -5.45049 0)
(0.00562998 -5.46719 0)
(0.00196629 -5.47507 0)
(-0.001777 -5.47579 0)
(-0.00543189 -5.46934 0)
(-0.00880779 -5.45397 0)
(-0.011672 -5.42533 0)
(-0.0137362 -5.37436 0)
(-0.0145823 -5.28352 0)