/*--------------------------------*- C++ -*----------------------------------*\
  =========                 |
  \\      /  F ield         | OpenFOAM: The Open Source CFD Toolbox
   \\    /   O peration     | Website:  https://openfoam.org
    \\  /    A nd           | Version:  6
     \\/     M anipulation  |
\*---------------------------------------------------------------------------*/
FoamFile
{
    version     2.0;
    format      ascii;
    class       volVectorField;
    location    "19";
    object      U;
}
// * * * * * * * * * * * * * * * * * * * * * * * * * * * * * * * * * * * * * //

dimensions      [0 1 -1 0 0 0 0];

internalField   nonuniform List<vector> 
130000
(
(-0.0155424 -0.343104 0)
(-0.0161458 -0.371369 0)
(-0.0166932 -0.398774 0)
(-0.0171876 -0.425166 0)
(-0.0176261 -0.450379 0)
(-0.0180154 -0.474265 0)
(-0.0183609 -0.496693 0)
(-0.0186679 -0.517551 0)
(-0.0189413 -0.536752 0)
(-0.0191857 -0.554234 0)
(-0.0194056 -0.569968 0)
(-0.0196048 -0.583951 0)
(-0.0197865 -0.59621 0)
(-0.0199537 -0.6068 0)
(-0.0201086 -0.615797 0)
(-0.020253 -0.623301 0)
(-0.0203879 -0.629427 0)
(-0.0205144 -0.634303 0)
(-0.0206336 -0.638065 0)
(-0.0207456 -0.640861 0)
(-0.0171898 -0.341637 0)
(-0.0176136 -0.369988 0)
(-0.0180323 -0.397516 0)
(-0.0184341 -0.424037 0)
(-0.018801 -0.449375 0)
(-0.0191322 -0.473379 0)
(-0.0194296 -0.495913 0)
(-0.0196962 -0.516865 0)
(-0.0199357 -0.536146 0)
(-0.0201518 -0.553697 0)
(-0.0203481 -0.569489 0)
(-0.0205281 -0.58352 0)
(-0.0206944 -0.595819 0)
(-0.0208496 -0.606441 0)
(-0.0209954 -0.615466 0)
(-0.0211331 -0.622994 0)
(-0.0212636 -0.62914 0)
(-0.0213874 -0.634034 0)
(-0.0215056 -0.637813 0)
(-0.0216184 -0.640622 0)
(-0.0196103 -0.340928 0)
(-0.0199271 -0.369259 0)
(-0.0202362 -0.396805 0)
(-0.0205353 -0.423365 0)
(-0.0208113 -0.448752 0)
(-0.021063 -0.472806 0)
(-0.0212916 -0.495389 0)
(-0.0214992 -0.516385 0)
(-0.0216884 -0.535706 0)
(-0.0218618 -0.553291 0)
(-0.0220223 -0.569111 0)
(-0.0221724 -0.583166 0)
(-0.0223142 -0.595485 0)
(-0.0224494 -0.606124 0)
(-0.0225795 -0.615164 0)
(-0.0227051 -0.622704 0)
(-0.0228269 -0.628863 0)
(-0.0229449 -0.633769 0)
(-0.02306 -0.63756 0)
(-0.0231721 -0.640381 0)
(-0.0228802 -0.340434 0)
(-0.0230403 -0.36877 0)
(-0.0232068 -0.396336 0)
(-0.0233754 -0.422925 0)
(-0.0235343 -0.448345 0)
(-0.023682 -0.472433 0)
(-0.023819 -0.495048 0)
(-0.0239463 -0.516073 0)
(-0.0240654 -0.535418 0)
(-0.0241781 -0.553023 0)
(-0.0242864 -0.568857 0)
(-0.0243918 -0.582923 0)
(-0.0244959 -0.59525 0)
(-0.0245995 -0.605895 0)
(-0.0247035 -0.614938 0)
(-0.024808 -0.622482 0)
(-0.024913 -0.628643 0)
(-0.0250182 -0.633552 0)
(-0.025124 -0.637347 0)
(-0.0252296 -0.640172 0)
(-0.0266458 -0.34025 0)
(-0.0266719 -0.368575 0)
(-0.0267046 -0.39614 0)
(-0.0267444 -0.422734 0)
(-0.0267829 -0.448163 0)
(-0.0268197 -0.472262 0)
(-0.0268558 -0.494886 0)
(-0.026892 -0.515917 0)
(-0.0269295 -0.535267 0)
(-0.0269697 -0.552873 0)
(-0.027014 -0.568707 0)
(-0.0270634 -0.582769 0)
(-0.0271186 -0.595091 0)
(-0.0271801 -0.60573 0)
(-0.0272479 -0.614767 0)
(-0.0273217 -0.622304 0)
(-0.0274008 -0.62846 0)
(-0.0274844 -0.633365 0)
(-0.0275723 -0.637157 0)
(-0.0276631 -0.639981 0)
(-0.0307158 -0.340311 0)
(-0.0306292 -0.368633 0)
(-0.0305457 -0.396195 0)
(-0.0304692 -0.422785 0)
(-0.0303952 -0.448209 0)
(-0.0303249 -0.4723 0)
(-0.0302607 -0.494916 0)
(-0.0302038 -0.515936 0)
(-0.0301559 -0.535272 0)
(-0.0301184 -0.552863 0)
(-0.0300924 -0.568679 0)
(-0.0300786 -0.582724 0)
(-0.0300775 -0.595026 0)
(-0.0300889 -0.605646 0)
(-0.0301125 -0.614664 0)
(-0.0301474 -0.622185 0)
(-0.0301924 -0.628327 0)
(-0.0302463 -0.633219 0)
(-0.0303082 -0.637002 0)
(-0.0303764 -0.639819 0)
(-0.0349769 -0.34058 0)
(-0.034792 -0.368911 0)
(-0.0346076 -0.396473 0)
(-0.0344282 -0.423057 0)
(-0.0342523 -0.44847 0)
(-0.0340831 -0.472546 0)
(-0.0339238 -0.495142 0)
(-0.0337768 -0.516139 0)
(-0.0336442 -0.535448 0)
(-0.0335278 -0.55301 0)
(-0.0334289 -0.568795 0)
(-0.0333482 -0.582808 0)
(-0.0332858 -0.595078 0)
(-0.0332416 -0.605667 0)
(-0.0332148 -0.614657 0)
(-0.0332042 -0.622151 0)
(-0.0332084 -0.628269 0)
(-0.0332257 -0.633141 0)
(-0.0332548 -0.636907 0)
(-0.0332937 -0.63971 0)
(-0.0393324 -0.34102 0)
(-0.0390686 -0.369371 0)
(-0.0387996 -0.396939 0)
(-0.0385322 -0.42352 0)
(-0.038267 -0.448921 0)
(-0.0380085 -0.472978 0)
(-0.0377618 -0.495547 0)
(-0.0375299 -0.516513 0)
(-0.0373161 -0.535786 0)
(-0.0371224 -0.553309 0)
(-0.0369506 -0.569053 0)
(-0.0368016 -0.583023 0)
(-0.0366757 -0.595252 0)
(-0.0365726 -0.6058 0)
(-0.0364915 -0.614751 0)
(-0.036431 -0.62221 0)
(-0.0363894 -0.628295 0)
(-0.0363648 -0.633139 0)
(-0.0363556 -0.63688 0)
(-0.0363596 -0.639664 0)
(-0.0437373 -0.341587 0)
(-0.0434082 -0.369974 0)
(-0.0430673 -0.397561 0)
(-0.0427238 -0.424146 0)
(-0.0423797 -0.449539 0)
(-0.042041 -0.473576 0)
(-0.0417142 -0.496118 0)
(-0.0414035 -0.517048 0)
(-0.0411127 -0.53628 0)
(-0.0408446 -0.553756 0)
(-0.0406015 -0.569452 0)
(-0.0403846 -0.583372 0)
(-0.0401944 -0.59555 0)
(-0.0400307 -0.606049 0)
(-0.0398927 -0.614954 0)
(-0.0397791 -0.622368 0)
(-0.0396881 -0.628414 0)
(-0.0396174 -0.633222 0)
(-0.0395655 -0.636932 0)
(-0.0395299 -0.63969 0)
(-0.048175 -0.342271 0)
(-0.0477852 -0.370705 0)
(-0.0473798 -0.398321 0)
(-0.0469681 -0.424917 0)
(-0.0465527 -0.450306 0)
(-0.0461409 -0.474327 0)
(-0.0457404 -0.496841 0)
(-0.0453561 -0.517734 0)
(-0.0449925 -0.536921 0)
(-0.0446533 -0.554347 0)
(-0.044341 -0.569988 0)
(-0.0440574 -0.583852 0)
(-0.0438032 -0.595974 0)
(-0.0435785 -0.606418 0)
(-0.0433825 -0.615269 0)
(-0.0432139 -0.622633 0)
(-0.043071 -0.628632 0)
(-0.0429515 -0.633398 0)
(-0.0428538 -0.637071 0)
(-0.0427752 -0.639796 0)
(-0.0526169 -0.343056 0)
(-0.0521744 -0.37155 0)
(-0.0517117 -0.399204 0)
(-0.0512386 -0.42582 0)
(-0.0507585 -0.451211 0)
(-0.0502798 -0.475218 0)
(-0.049811 -0.497706 0)
(-0.0493579 -0.518561 0)
(-0.0489257 -0.537702 0)
(-0.0485184 -0.555075 0)
(-0.0481393 -0.570659 0)
(-0.0477905 -0.584463 0)
(-0.0474731 -0.596524 0)
(-0.0471872 -0.606906 0)
(-0.0469325 -0.615698 0)
(-0.0467077 -0.623006 0)
(-0.0465113 -0.628953 0)
(-0.0463407 -0.633672 0)
(-0.0461945 -0.637302 0)
(-0.04607 -0.639989 0)
(-0.0570627 -0.343934 0)
(-0.0565694 -0.372499 0)
(-0.0560533 -0.4002 0)
(-0.0555233 -0.426842 0)
(-0.0549829 -0.452241 0)
(-0.0544416 -0.476239 0)
(-0.0539087 -0.498703 0)
(-0.0533904 -0.519522 0)
(-0.0528926 -0.538617 0)
(-0.0524199 -0.555936 0)
(-0.0519761 -0.571461 0)
(-0.0515635 -0.585201 0)
(-0.0511837 -0.597197 0)
(-0.0508371 -0.607515 0)
(-0.0505235 -0.616243 0)
(-0.0502419 -0.623491 0)
(-0.0499906 -0.629381 0)
(-0.0497675 -0.634047 0)
(-0.0495711 -0.63763 0)
(-0.0493986 -0.640275 0)
(-0.0614931 -0.344896 0)
(-0.0609567 -0.373541 0)
(-0.0603925 -0.401299 0)
(-0.0598102 -0.427975 0)
(-0.059214 -0.453388 0)
(-0.0586139 -0.477382 0)
(-0.0580203 -0.499825 0)
(-0.0574399 -0.52061 0)
(-0.0568792 -0.53966 0)
(-0.0563432 -0.556925 0)
(-0.0558362 -0.572389 0)
(-0.055361 -0.586065 0)
(-0.0549195 -0.597993 0)
(-0.0545123 -0.608243 0)
(-0.0541395 -0.616905 0)
(-0.0538004 -0.624088 0)
(-0.0534934 -0.629917 0)
(-0.0532164 -0.634527 0)
(-0.0529679 -0.638058 0)
(-0.0527455 -0.640656 0)
(-0.0659231 -0.345935 0)
(-0.0653439 -0.374672 0)
(-0.0647332 -0.402495 0)
(-0.0641001 -0.429214 0)
(-0.0634497 -0.454647 0)
(-0.0627927 -0.478641 0)
(-0.0621401 -0.501068 0)
(-0.0614993 -0.521822 0)
(-0.0608771 -0.540827 0)
(-0.060279 -0.558039 0)
(-0.0597099 -0.573442 0)
(-0.0591728 -0.587052 0)
(-0.0586699 -0.598911 0)
(-0.0582023 -0.609091 0)
(-0.0577701 -0.617684 0)
(-0.0573728 -0.6248 0)
(-0.0570092 -0.630565 0)
(-0.0566772 -0.635114 0)
(-0.0563754 -0.63859 0)
(-0.0561016 -0.641137 0)
(-0.0703491 -0.347057 0)
(-0.0697268 -0.375894 0)
(-0.0690707 -0.40379 0)
(-0.0683879 -0.430557 0)
(-0.0676846 -0.456016 0)
(-0.0669722 -0.480015 0)
(-0.066262 -0.502428 0)
(-0.065562 -0.523154 0)
(-0.0648793 -0.542117 0)
(-0.06422 -0.559276 0)
(-0.0635892 -0.574618 0)
(-0.0629904 -0.588161 0)
(-0.0624261 -0.599951 0)
(-0.0618977 -0.610059 0)
(-0.0614055 -0.61858 0)
(-0.0609493 -0.625627 0)
(-0.0605281 -0.631325 0)
(-0.0601397 -0.635811 0)
(-0.0597832 -0.639227 0)
(-0.0594562 -0.64172 0)
(-0.0747699 -0.348257 0)
(-0.0741059 -0.377204 0)
(-0.0734049 -0.405181 0)
(-0.0726731 -0.432002 0)
(-0.0719175 -0.457492 0)
(-0.0711503 -0.481502 0)
(-0.0703831 -0.503905 0)
(-0.0696242 -0.524604 0)
(-0.0688813 -0.543528 0)
(-0.068161 -0.560636 0)
(-0.0674686 -0.575918 0)
(-0.066808 -0.589394 0)
(-0.0661821 -0.601113 0)
(-0.0655923 -0.611149 0)
(-0.0650396 -0.619597 0)
(-0.0645236 -0.626571 0)
(-0.0640435 -0.6322 0)
(-0.0635977 -0.63662 0)
(-0.063185 -0.639975 0)
(-0.0628034 -0.642409 0)
(-0.0791852 -0.349534 0)
(-0.0784795 -0.3786 0)
(-0.0777341 -0.406665 0)
(-0.0769537 -0.433548 0)
(-0.0761463 -0.459075 0)
(-0.0753244 -0.483099 0)
(-0.0745004 -0.505498 0)
(-0.0736826 -0.526174 0)
(-0.0728795 -0.54506 0)
(-0.0720978 -0.562118 0)
(-0.0713434 -0.577341 0)
(-0.0706205 -0.590751 0)
(-0.0699322 -0.602399 0)
(-0.0692802 -0.612361 0)
(-0.0686658 -0.620735 0)
(-0.0680887 -0.627636 0)
(-0.0675486 -0.633193 0)
(-0.0670437 -0.637545 0)
(-0.0665732 -0.640834 0)
(-0.0661353 -0.643208 0)
(-0.0835962 -0.350885 0)
(-0.0828509 -0.380079 0)
(-0.0820606 -0.408241 0)
(-0.0812311 -0.435194 0)
(-0.0803714 -0.460764 0)
(-0.0794942 -0.484809 0)
(-0.0786126 -0.507206 0)
(-0.0777355 -0.527863 0)
(-0.0768714 -0.546714 0)
(-0.0760277 -0.563724 0)
(-0.0752105 -0.578889 0)
(-0.0744243 -0.592233 0)
(-0.0736725 -0.603811 0)
(-0.0729573 -0.613699 0)
(-0.0722798 -0.621997 0)
(-0.0716405 -0.628823 0)
(-0.0710388 -0.634307 0)
(-0.0704733 -0.638588 0)
(-0.0699433 -0.64181 0)
(-0.0694473 -0.644121 0)
(-0.0880141 -0.352314 0)
(-0.087225 -0.381646 0)
(-0.0863879 -0.409914 0)
(-0.0855075 -0.436943 0)
(-0.0845936 -0.462562 0)
(-0.0836598 -0.486632 0)
(-0.0827194 -0.509033 0)
(-0.0817816 -0.529674 0)
(-0.0808554 -0.548492 0)
(-0.0799483 -0.565456 0)
(-0.0790669 -0.580564 0)
(-0.078216 -0.593844 0)
(-0.0773993 -0.60535 0)
(-0.0766191 -0.615164 0)
(-0.075877 -0.623386 0)
(-0.0751735 -0.630136 0)
(-0.0745084 -0.635545 0)
(-0.0738804 -0.639754 0)
(-0.073289 -0.642906 0)
(-0.0727327 -0.64515 0)
(-0.0924352 -0.353828 0)
(-0.0916004 -0.383307 0)
(-0.0907146 -0.411687 0)
(-0.0897817 -0.438799 0)
(-0.0888122 -0.464473 0)
(-0.0878202 -0.488572 0)
(-0.0868194 -0.510981 0)
(-0.0858195 -0.531609 0)
(-0.0848295 -0.550398 0)
(-0.0838574 -0.567318 0)
(-0.0829102 -0.582371 0)
(-0.0819928 -0.595586 0)
(-0.0811094 -0.607022 0)
(-0.0802625 -0.616761 0)
(-0.0794539 -0.624907 0)
(-0.0786843 -0.631579 0)
(-0.0779537 -0.636912 0)
(-0.0772611 -0.641046 0)
(-0.0766062 -0.644126 0)
(-0.0759877 -0.6463 0)
(-0.0968551 -0.355427 0)
(-0.0959746 -0.385062 0)
(-0.0950394 -0.413563 0)
(-0.0940529 -0.440764 0)
(-0.0930264 -0.466499 0)
(-0.0919747 -0.490633 0)
(-0.0909119 -0.513052 0)
(-0.089848 -0.533672 0)
(-0.0887924 -0.552434 0)
(-0.0877534 -0.569312 0)
(-0.0867382 -0.584311 0)
(-0.0857523 -0.597463 0)
(-0.0847999 -0.608829 0)
(-0.083884 -0.618494 0)
(-0.0830065 -0.626562 0)
(-0.0821685 -0.633157 0)
(-0.08137 -0.638411 0)
(-0.0806105 -0.642468 0)
(-0.0798895 -0.645474 0)
(-0.0792062 -0.647576 0)
(-0.101273 -0.357111 0)
(-0.100349 -0.386911 0)
(-0.0993632 -0.415543 0)
(-0.0983219 -0.442841 0)
(-0.0972368 -0.468644 0)
(-0.0961233 -0.492817 0)
(-0.0949964 -0.515253 0)
(-0.0938662 -0.535866 0)
(-0.0927427 -0.554605 0)
(-0.0916344 -0.571444 0)
(-0.0905489 -0.586391 0)
(-0.089492 -0.599481 0)
(-0.0884682 -0.610778 0)
(-0.0874807 -0.620368 0)
(-0.0865317 -0.628358 0)
(-0.0856225 -0.634873 0)
(-0.0847535 -0.640049 0)
(-0.0839242 -0.644027 0)
(-0.0831345 -0.646957 0)
(-0.0823838 -0.648984 0)
(-0.105702 -0.358881 0)
(-0.104729 -0.388858 0)
(-0.10369 -0.41763 0)
(-0.102591 -0.445034 0)
(-0.101445 -0.47091 0)
(-0.100267 -0.49513 0)
(-0.0990734 -0.517585 0)
(-0.0978744 -0.538198 0)
(-0.0966801 -0.556916 0)
(-0.0954997 -0.573718 0)
(-0.094341 -0.588615 0)
(-0.0932101 -0.601644 0)
(-0.0921118 -0.612872 0)
(-0.0910496 -0.622387 0)
(-0.090026 -0.6303 0)
(-0.0890425 -0.636735 0)
(-0.0880999 -0.64183 0)
(-0.0871979 -0.645728 0)
(-0.0863364 -0.648578 0)
(-0.0855153 -0.650528 0)
(-0.110141 -0.360748 0)
(-0.109116 -0.390912 0)
(-0.108022 -0.419831 0)
(-0.106862 -0.447349 0)
(-0.105652 -0.473306 0)
(-0.104407 -0.497577 0)
(-0.103143 -0.520058 0)
(-0.101872 -0.540673 0)
(-0.100604 -0.559373 0)
(-0.0993479 -0.576142 0)
(-0.0981127 -0.59099 0)
(-0.0969044 -0.60396 0)
(-0.0957283 -0.61512 0)
(-0.094588 -0.624561 0)
(-0.0934864 -0.632395 0)
(-0.0924252 -0.638749 0)
(-0.0914056 -0.643761 0)
(-0.0904275 -0.647577 0)
(-0.0894909 -0.650346 0)
(-0.0885962 -0.652215 0)
(-0.114587 -0.362711 0)
(-0.113508 -0.393074 0)
(-0.112356 -0.422151 0)
(-0.111134 -0.44979 0)
(-0.109856 -0.475836 0)
(-0.108541 -0.500164 0)
(-0.107204 -0.522676 0)
(-0.105858 -0.543297 0)
(-0.104512 -0.561984 0)
(-0.103178 -0.57872 0)
(-0.101862 -0.593523 0)
(-0.100573 -0.606435 0)
(-0.0993152 -0.617527 0)
(-0.0980931 -0.626894 0)
(-0.0969098 -0.634649 0)
(-0.0957673 -0.640921 0)
(-0.0946669 -0.64585 0)
(-0.0936089 -0.649581 0)
(-0.0925936 -0.652266 0)
(-0.0916214 -0.654052 0)
(-0.11904 -0.364776 0)
(-0.117909 -0.39535 0)
(-0.116696 -0.424595 0)
(-0.115408 -0.452365 0)
(-0.114061 -0.478507 0)
(-0.112672 -0.5029 0)
(-0.111258 -0.525447 0)
(-0.109832 -0.54608 0)
(-0.108405 -0.564755 0)
(-0.106987 -0.581463 0)
(-0.105588 -0.596222 0)
(-0.104213 -0.609077 0)
(-0.10287 -0.620103 0)
(-0.101562 -0.629396 0)
(-0.100293 -0.637072 0)
(-0.0990645 -0.643261 0)
(-0.0978792 -0.648104 0)
(-0.0967373 -0.651749 0)
(-0.0956392 -0.654347 0)
(-0.0945857 -0.656047 0)
(-0.123509 -0.366947 0)
(-0.122319 -0.397744 0)
(-0.121042 -0.42717 0)
(-0.119685 -0.45508 0)
(-0.118264 -0.481326 0)
(-0.116798 -0.50579 0)
(-0.115303 -0.52838 0)
(-0.113794 -0.549028 0)
(-0.112281 -0.567697 0)
(-0.110776 -0.584379 0)
(-0.109288 -0.599095 0)
(-0.107824 -0.611896 0)
(-0.10639 -0.622856 0)
(-0.104991 -0.632076 0)
(-0.103631 -0.639671 0)
(-0.102313 -0.645776 0)
(-0.101038 -0.650532 0)
(-0.099808 -0.654089 0)
(-0.0986226 -0.656597 0)
(-0.0974834 -0.658207 0)
(-0.127994 -0.369232 0)
(-0.126742 -0.400267 0)
(-0.125398 -0.429883 0)
(-0.123968 -0.457944 0)
(-0.122469 -0.484302 0)
(-0.12092 -0.508845 0)
(-0.119341 -0.531482 0)
(-0.117743 -0.552151 0)
(-0.11614 -0.570817 0)
(-0.114542 -0.587476 0)
(-0.11296 -0.602153 0)
(-0.111401 -0.6149 0)
(-0.109872 -0.625796 0)
(-0.108377 -0.634942 0)
(-0.106922 -0.642457 0)
(-0.105509 -0.648476 0)
(-0.104139 -0.653143 0)
(-0.102816 -0.656609 0)
(-0.101538 -0.659025 0)
(-0.100309 -0.660541 0)
(-0.13249 -0.371637 0)
(-0.131174 -0.402923 0)
(-0.12976 -0.432742 0)
(-0.128253 -0.460964 0)
(-0.126672 -0.487443 0)
(-0.125037 -0.512072 0)
(-0.123368 -0.534763 0)
(-0.121677 -0.555458 0)
(-0.119979 -0.574126 0)
(-0.118284 -0.590766 0)
(-0.116602 -0.605405 0)
(-0.114943 -0.6181 0)
(-0.113313 -0.628933 0)
(-0.111717 -0.638005 0)
(-0.110161 -0.645439 0)
(-0.108647 -0.651372 0)
(-0.107178 -0.655948 0)
(-0.105756 -0.65932 0)
(-0.104381 -0.66164 0)
(-0.103056 -0.66306 0)
(-0.137006 -0.374166 0)
(-0.135623 -0.405718 0)
(-0.134133 -0.435754 0)
(-0.132545 -0.464147 0)
(-0.130877 -0.490758 0)
(-0.129151 -0.515481 0)
(-0.127386 -0.538233 0)
(-0.125597 -0.55896 0)
(-0.123797 -0.577635 0)
(-0.121999 -0.594258 0)
(-0.120213 -0.608863 0)
(-0.118447 -0.621508 0)
(-0.116711 -0.632277 0)
(-0.115008 -0.641276 0)
(-0.113344 -0.648629 0)
(-0.111724 -0.654474 0)
(-0.11015 -0.658958 0)
(-0.108623 -0.662233 0)
(-0.107145 -0.664454 0)
(-0.105719 -0.665772 0)
(-0.141536 -0.376826 0)
(-0.140082 -0.408661 0)
(-0.138514 -0.438927 0)
(-0.136841 -0.467504 0)
(-0.135082 -0.494256 0)
(-0.13326 -0.519082 0)
(-0.131394 -0.541903 0)
(-0.129501 -0.562668 0)
(-0.127594 -0.581354 0)
(-0.125686 -0.597966 0)
(-0.123789 -0.612539 0)
(-0.121911 -0.625136 0)
(-0.120061 -0.635843 0)
(-0.118245 -0.644768 0)
(-0.116468 -0.652039 0)
(-0.114735 -0.657794 0)
(-0.113049 -0.662183 0)
(-0.111411 -0.66536 0)
(-0.109825 -0.667478 0)
(-0.108292 -0.66869 0)
(-0.146092 -0.379623 0)
(-0.144563 -0.411758 0)
(-0.14291 -0.44227 0)
(-0.141146 -0.471044 0)
(-0.139289 -0.497949 0)
(-0.137364 -0.522887 0)
(-0.135392 -0.545785 0)
(-0.133389 -0.566594 0)
(-0.131368 -0.585297 0)
(-0.129344 -0.601901 0)
(-0.127328 -0.616445 0)
(-0.125331 -0.628996 0)
(-0.123361 -0.639642 0)
(-0.121425 -0.648495 0)
(-0.119527 -0.655682 0)
(-0.117674 -0.661347 0)
(-0.115869 -0.665638 0)
(-0.114115 -0.668712 0)
(-0.112413 -0.670723 0)
(-0.110767 -0.671826 0)
(-0.150667 -0.382568 0)
(-0.149057 -0.415021 0)
(-0.147317 -0.445793 0)
(-0.145456 -0.474778 0)
(-0.143497 -0.501847 0)
(-0.141464 -0.526908 0)
(-0.139378 -0.549891 0)
(-0.137257 -0.570752 0)
(-0.135116 -0.589476 0)
(-0.132969 -0.606077 0)
(-0.130828 -0.620597 0)
(-0.128704 -0.633103 0)
(-0.126606 -0.643689 0)
(-0.124542 -0.652469 0)
(-0.122517 -0.659573 0)
(-0.120537 -0.665145 0)
(-0.118606 -0.669336 0)
(-0.116727 -0.672304 0)
(-0.114902 -0.674205 0)
(-0.113136 -0.675191 0)
(-0.155271 -0.385667 0)
(-0.153576 -0.418458 0)
(-0.151741 -0.449508 0)
(-0.149777 -0.478718 0)
(-0.147708 -0.505964 0)
(-0.145559 -0.531158 0)
(-0.143353 -0.554235 0)
(-0.141107 -0.575155 0)
(-0.138837 -0.593908 0)
(-0.136559 -0.610511 0)
(-0.134285 -0.625008 0)
(-0.132026 -0.637473 0)
(-0.129793 -0.648 0)
(-0.127592 -0.656707 0)
(-0.125431 -0.663727 0)
(-0.123316 -0.669204 0)
(-0.121251 -0.673293 0)
(-0.11924 -0.676151 0)
(-0.117286 -0.677936 0)
(-0.115392 -0.678802 0)
(-0.159899 -0.388932 0)
(-0.158114 -0.422081 0)
(-0.156179 -0.453427 0)
(-0.154107 -0.482878 0)
(-0.151921 -0.510314 0)
(-0.149649 -0.535653 0)
(-0.147315 -0.558833 0)
(-0.144936 -0.579821 0)
(-0.14253 -0.598608 0)
(-0.140111 -0.615217 0)
(-0.137695 -0.629697 0)
(-0.135293 -0.642122 0)
(-0.132915 -0.652592 0)
(-0.13057 -0.661226 0)
(-0.128265 -0.66816 0)
(-0.126006 -0.673541 0)
(-0.123799 -0.677524 0)
(-0.121647 -0.680268 0)
(-0.119554 -0.681933 0)
(-0.117525 -0.682672 0)
(-0.164563 -0.392373 0)
(-0.16268 -0.425902 0)
(-0.160637 -0.457563 0)
(-0.158448 -0.487272 0)
(-0.156139 -0.514912 0)
(-0.153735 -0.540408 0)
(-0.151264 -0.563702 0)
(-0.148743 -0.584765 0)
(-0.146191 -0.603594 0)
(-0.143624 -0.620215 0)
(-0.141057 -0.63468 0)
(-0.138502 -0.647069 0)
(-0.13597 -0.657483 0)
(-0.133471 -0.666044 0)
(-0.131011 -0.672891 0)
(-0.1286 -0.678173 0)
(-0.126241 -0.682047 0)
(-0.123939 -0.684674 0)
(-0.121699 -0.686212 0)
(-0.119526 -0.686819 0)
(-0.169254 -0.396001 0)
(-0.167268 -0.429934 0)
(-0.165113 -0.461931 0)
(-0.1628 -0.491914 0)
(-0.160358 -0.519775 0)
(-0.157816 -0.54544 0)
(-0.155199 -0.568859 0)
(-0.152527 -0.590007 0)
(-0.14982 -0.608885 0)
(-0.147094 -0.625523 0)
(-0.144366 -0.639979 0)
(-0.141648 -0.652333 0)
(-0.138952 -0.662692 0)
(-0.136288 -0.671181 0)
(-0.133665 -0.67794 0)
(-0.13109 -0.683121 0)
(-0.128569 -0.686882 0)
(-0.126108 -0.689386 0)
(-0.123711 -0.690793 0)
(-0.121384 -0.69126 0)
(-0.173986 -0.399828 0)
(-0.17189 -0.43419 0)
(-0.169612 -0.466545 0)
(-0.167167 -0.496822 0)
(-0.164584 -0.524919 0)
(-0.161892 -0.550768 0)
(-0.159119 -0.574323 0)
(-0.156287 -0.595565 0)
(-0.153414 -0.614501 0)
(-0.150519 -0.631163 0)
(-0.147618 -0.645612 0)
(-0.144727 -0.657936 0)
(-0.141855 -0.668242 0)
(-0.139016 -0.676658 0)
(-0.136217 -0.683328 0)
(-0.133468 -0.688404 0)
(-0.130775 -0.692049 0)
(-0.128144 -0.694425 0)
(-0.12558 -0.695694 0)
(-0.123089 -0.696014 0)
(-0.178751 -0.403867 0)
(-0.176538 -0.438686 0)
(-0.174132 -0.471421 0)
(-0.171547 -0.502014 0)
(-0.168813 -0.530364 0)
(-0.165963 -0.556411 0)
(-0.163024 -0.580115 0)
(-0.16002 -0.601462 0)
(-0.15697 -0.620463 0)
(-0.153895 -0.637155 0)
(-0.15081 -0.651604 0)
(-0.147733 -0.6639 0)
(-0.144675 -0.674154 0)
(-0.141648 -0.682498 0)
(-0.138662 -0.689077 0)
(-0.135727 -0.694047 0)
(-0.13285 -0.697571 0)
(-0.130037 -0.699813 0)
(-0.127295 -0.700938 0)
(-0.124629 -0.701102 0)
(-0.183564 -0.408132 0)
(-0.181225 -0.443436 0)
(-0.17868 -0.476578 0)
(-0.175945 -0.507507 0)
(-0.17305 -0.536129 0)
(-0.17003 -0.562391 0)
(-0.166914 -0.586258 0)
(-0.163726 -0.607721 0)
(-0.160487 -0.626796 0)
(-0.157218 -0.643525 0)
(-0.153938 -0.657979 0)
(-0.150661 -0.67025 0)
(-0.147403 -0.680454 0)
(-0.144176 -0.688726 0)
(-0.14099 -0.695212 0)
(-0.137856 -0.700072 0)
(-0.134783 -0.703471 0)
(-0.131776 -0.705574 0)
(-0.128843 -0.706546 0)
(-0.125992 -0.706546 0)
(-0.188418 -0.412638 0)
(-0.185946 -0.448459 0)
(-0.183254 -0.482034 0)
(-0.180359 -0.513322 0)
(-0.177293 -0.542236 0)
(-0.174092 -0.56873 0)
(-0.170786 -0.592774 0)
(-0.167402 -0.614365 0)
(-0.163961 -0.633524 0)
(-0.160486 -0.650299 0)
(-0.156995 -0.664763 0)
(-0.153506 -0.677013 0)
(-0.150034 -0.687169 0)
(-0.146593 -0.695368 0)
(-0.143193 -0.70176 0)
(-0.139847 -0.706507 0)
(-0.136563 -0.709775 0)
(-0.133349 -0.711732 0)
(-0.130212 -0.712544 0)
(-0.127162 -0.71237 0)
(-0.193329 -0.417402 0)
(-0.190712 -0.453772 0)
(-0.187862 -0.487809 0)
(-0.184796 -0.519482 0)
(-0.181546 -0.54871 0)
(-0.17815 -0.575454 0)
(-0.174642 -0.599691 0)
(-0.171048 -0.621423 0)
(-0.167391 -0.640677 0)
(-0.163694 -0.657505 0)
(-0.159978 -0.671985 0)
(-0.156262 -0.684218 0)
(-0.152561 -0.694328 0)
(-0.14889 -0.702454 0)
(-0.145261 -0.708751 0)
(-0.141687 -0.71338 0)
(-0.138178 -0.716512 0)
(-0.134742 -0.718316 0)
(-0.131388 -0.718958 0)
(-0.128125 -0.718601 0)
(-0.198289 -0.42244 0)
(-0.19552 -0.459396 0)
(-0.192502 -0.493925 0)
(-0.189253 -0.526009 0)
(-0.185807 -0.555575 0)
(-0.182205 -0.582589 0)
(-0.17848 -0.607035 0)
(-0.17466 -0.628923 0)
(-0.170772 -0.648283 0)
(-0.166838 -0.665173 0)
(-0.162882 -0.679676 0)
(-0.158921 -0.691897 0)
(-0.154975 -0.701962 0)
(-0.151057 -0.710016 0)
(-0.147183 -0.716214 0)
(-0.143365 -0.720723 0)
(-0.139615 -0.723713 0)
(-0.135942 -0.725355 0)
(-0.132354 -0.725818 0)
(-0.128863 -0.725265 0)
(-0.203315 -0.427772 0)
(-0.200381 -0.465351 0)
(-0.197183 -0.500406 0)
(-0.193737 -0.532931 0)
(-0.190081 -0.562859 0)
(-0.186256 -0.590164 0)
(-0.182299 -0.614838 0)
(-0.178238 -0.636896 0)
(-0.174101 -0.656375 0)
(-0.169914 -0.673337 0)
(-0.165699 -0.687869 0)
(-0.161477 -0.700083 0)
(-0.157267 -0.710107 0)
(-0.153086 -0.718088 0)
(-0.148948 -0.724186 0)
(-0.144869 -0.728569 0)
(-0.14086 -0.73141 0)
(-0.136932 -0.732882 0)
(-0.133094 -0.733156 0)
(-0.129359 -0.732395 0)
(-0.2084 -0.433418 0)
(-0.205291 -0.471661 0)
(-0.201901 -0.507277 0)
(-0.198246 -0.540274 0)
(-0.194366 -0.570591 0)
(-0.190303 -0.598211 0)
(-0.186097 -0.623132 0)
(-0.181778 -0.645377 0)
(-0.177375 -0.664987 0)
(-0.172915 -0.682032 0)
(-0.168423 -0.696602 0)
(-0.163921 -0.708813 0)
(-0.159428 -0.718798 0)
(-0.154964 -0.726706 0)
(-0.150543 -0.732701 0)
(-0.146183 -0.736954 0)
(-0.141896 -0.739639 0)
(-0.137695 -0.740932 0)
(-0.133589 -0.741005 0)
(-0.129593 -0.740022 0)
(-0.21356 -0.439398 0)
(-0.210263 -0.478349 0)
(-0.206666 -0.514566 0)
(-0.202787 -0.548067 0)
(-0.198665 -0.578802 0)
(-0.194348 -0.606762 0)
(-0.189875 -0.631953 0)
(-0.185279 -0.654402 0)
(-0.18059 -0.674159 0)
(-0.175837 -0.691298 0)
(-0.171047 -0.705915 0)
(-0.166243 -0.718128 0)
(-0.161447 -0.728076 0)
(-0.156678 -0.735912 0)
(-0.151954 -0.741802 0)
(-0.147292 -0.745919 0)
(-0.142707 -0.748441 0)
(-0.138212 -0.749545 0)
(-0.133819 -0.749404 0)
(-0.129541 -0.748184 0)
(-0.218791 -0.445737 0)
(-0.215293 -0.485443 0)
(-0.211477 -0.522301 0)
(-0.207358 -0.556344 0)
(-0.202979 -0.587528 0)
(-0.198388 -0.615855 0)
(-0.193629 -0.641338 0)
(-0.188736 -0.664011 0)
(-0.18374 -0.683931 0)
(-0.178673 -0.701176 0)
(-0.173563 -0.715848 0)
(-0.168435 -0.728071 0)
(-0.163313 -0.737986 0)
(-0.158216 -0.74575 0)
(-0.153166 -0.751531 0)
(-0.148179 -0.755507 0)
(-0.143273 -0.757857 0)
(-0.138463 -0.75876 0)
(-0.13376 -0.758392 0)
(-0.129181 -0.75692 0)
(-0.224109 -0.452457 0)
(-0.220395 -0.49297 0)
(-0.216343 -0.530514 0)
(-0.211966 -0.565137 0)
(-0.20731 -0.596805 0)
(-0.202426 -0.625528 0)
(-0.19736 -0.651328 0)
(-0.192147 -0.674247 0)
(-0.186822 -0.694347 0)
(-0.181417 -0.711713 0)
(-0.175963 -0.726451 0)
(-0.170486 -0.73869 0)
(-0.165012 -0.748574 0)
(-0.159563 -0.756266 0)
(-0.154161 -0.761937 0)
(-0.148825 -0.765765 0)
(-0.143574 -0.767934 0)
(-0.138424 -0.768624 0)
(-0.133388 -0.768014 0)
(-0.128485 -0.766271 0)
(-0.229513 -0.459587 0)
(-0.225569 -0.50096 0)
(-0.221264 -0.539238 0)
(-0.216612 -0.574484 0)
(-0.21166 -0.606673 0)
(-0.206462 -0.635825 0)
(-0.201065 -0.66197 0)
(-0.195509 -0.685157 0)
(-0.189829 -0.705457 0)
(-0.184061 -0.722958 0)
(-0.178236 -0.737773 0)
(-0.172384 -0.750036 0)
(-0.166531 -0.759894 0)
(-0.160703 -0.767514 0)
(-0.154921 -0.77307 0)
(-0.149209 -0.776745 0)
(-0.143586 -0.778722 0)
(-0.138069 -0.779187 0)
(-0.132675 -0.778318 0)
(-0.127423 -0.776284 0)
(-0.235018 -0.467153 0)
(-0.230827 -0.509446 0)
(-0.226251 -0.548511 0)
(-0.221303 -0.584425 0)
(-0.216033 -0.617175 0)
(-0.210497 -0.64679 0)
(-0.204745 -0.67331 0)
(-0.19882 -0.696792 0)
(-0.192758 -0.717312 0)
(-0.186598 -0.734966 0)
(-0.180374 -0.749871 0)
(-0.174117 -0.762166 0)
(-0.167855 -0.772003 0)
(-0.161617 -0.779552 0)
(-0.155426 -0.78499 0)
(-0.149308 -0.788503 0)
(-0.143283 -0.790279 0)
(-0.137372 -0.790503 0)
(-0.131591 -0.789356 0)
(-0.125963 -0.787011 0)
(-0.240627 -0.475188 0)
(-0.236171 -0.518464 0)
(-0.231306 -0.55837 0)
(-0.226041 -0.595002 0)
(-0.22043 -0.628357 0)
(-0.214531 -0.658474 0)
(-0.208398 -0.685402 0)
(-0.202075 -0.709207 0)
(-0.195602 -0.72997 0)
(-0.18902 -0.747795 0)
(-0.182364 -0.762805 0)
(-0.17567 -0.775141 0)
(-0.168967 -0.784962 0)
(-0.162286 -0.792441 0)
(-0.155653 -0.797758 0)
(-0.149096 -0.801102 0)
(-0.142637 -0.802663 0)
(-0.136299 -0.802631 0)
(-0.130101 -0.801187 0)
(-0.124068 -0.798506 0)
(-0.246354 -0.483723 0)
(-0.241616 -0.52805 0)
(-0.236439 -0.568859 0)
(-0.230834 -0.606264 0)
(-0.224855 -0.64027 0)
(-0.218566 -0.670931 0)
(-0.212022 -0.698304 0)
(-0.20527 -0.722462 0)
(-0.198354 -0.743495 0)
(-0.191316 -0.761512 0)
(-0.184195 -0.776642 0)
(-0.177028 -0.789031 0)
(-0.169848 -0.798842 0)
(-0.162688 -0.806251 0)
(-0.155577 -0.811443 0)
(-0.148544 -0.81461 0)
(-0.141616 -0.815944 0)
(-0.134817 -0.815637 0)
(-0.128167 -0.813874 0)
(-0.121695 -0.810831 0)
(-0.252206 -0.492795 0)
(-0.247164 -0.538246 0)
(-0.241654 -0.580024 0)
(-0.235684 -0.618259 0)
(-0.229311 -0.65297 0)
(-0.222602 -0.68422 0)
(-0.215616 -0.712077 0)
(-0.208403 -0.736623 0)
(-0.201008 -0.757955 0)
(-0.193477 -0.776188 0)
(-0.185853 -0.791455 0)
(-0.178174 -0.803909 0)
(-0.170477 -0.813717 0)
(-0.162798 -0.821058 0)
(-0.155168 -0.826121 0)
(-0.147621 -0.829101 0)
(-0.140183 -0.830194 0)
(-0.132884 -0.829593 0)
(-0.125747 -0.827487 0)
(-0.1188 -0.824053 0)
(-0.258195 -0.502439 0)
(-0.252828 -0.549095 0)
(-0.246962 -0.591912 0)
(-0.2406 -0.631041 0)
(-0.233804 -0.666513 0)
(-0.226643 -0.698403 0)
(-0.21918 -0.72679 0)
(-0.211468 -0.751762 0)
(-0.203555 -0.773425 0)
(-0.195492 -0.7919 0)
(-0.187322 -0.807326 0)
(-0.179088 -0.819859 0)
(-0.170831 -0.829672 0)
(-0.162588 -0.836947 0)
(-0.154395 -0.841877 0)
(-0.146289 -0.84466 0)
(-0.138299 -0.845495 0)
(-0.130458 -0.844579 0)
(-0.12279 -0.842102 0)
(-0.11533 -0.838244 0)
(-0.264331 -0.512696 0)
(-0.258617 -0.560641 0)
(-0.252368 -0.604575 0)
(-0.245586 -0.644669 0)
(-0.238334 -0.680965 0)
(-0.230687 -0.713551 0)
(-0.22271 -0.742516 0)
(-0.214459 -0.767958 0)
(-0.205987 -0.789989 0)
(-0.197346 -0.808735 0)
(-0.188584 -0.824343 0)
(-0.179748 -0.836972 0)
(-0.170881 -0.846799 0)
(-0.162026 -0.854011 0)
(-0.153221 -0.858804 0)
(-0.144506 -0.861379 0)
(-0.135916 -0.861939 0)
(-0.127485 -0.860683 0)
(-0.119242 -0.857805 0)
(-0.111224 -0.853488 0)
(-0.270628 -0.523606 0)
(-0.264542 -0.572933 0)
(-0.257884 -0.618069 0)
(-0.250651 -0.659204 0)
(-0.24291 -0.696394 0)
(-0.234739 -0.729739 0)
(-0.226206 -0.759338 0)
(-0.217372 -0.785298 0)
(-0.208293 -0.807737 0)
(-0.199025 -0.82679 0)
(-0.189619 -0.842605 0)
(-0.180128 -0.855349 0)
(-0.170598 -0.865201 0)
(-0.161075 -0.872354 0)
(-0.151603 -0.877005 0)
(-0.142225 -0.879361 0)
(-0.132981 -0.879626 0)
(-0.123909 -0.878003 0)
(-0.11504 -0.87469 0)
(-0.106416 -0.869872 0)
(-0.2771 -0.535218 0)
(-0.270617 -0.586025 0)
(-0.263519 -0.632453 0)
(-0.255802 -0.674714 0)
(-0.247535 -0.712874 0)
(-0.238798 -0.747048 0)
(-0.229665 -0.777344 0)
(-0.2202 -0.803877 0)
(-0.210461 -0.826772 0)
(-0.200511 -0.84617 0)
(-0.190405 -0.862224 0)
(-0.180199 -0.875104 0)
(-0.169944 -0.884995 0)
(-0.159693 -0.892092 0)
(-0.149492 -0.896597 0)
(-0.139391 -0.898719 0)
(-0.129433 -0.898667 0)
(-0.11966 -0.896647 0)
(-0.11011 -0.892861 0)
(-0.100827 -0.887495 0)
(-0.28376 -0.547576 0)
(-0.276852 -0.59997 0)
(-0.269285 -0.647792 0)
(-0.261049 -0.691272 0)
(-0.252215 -0.730489 0)
(-0.242867 -0.76557 0)
(-0.233084 -0.796633 0)
(-0.222932 -0.823801 0)
(-0.212477 -0.847206 0)
(-0.201783 -0.866994 0)
(-0.190912 -0.883321 0)
(-0.179925 -0.896364 0)
(-0.168878 -0.906309 0)
(-0.157829 -0.913355 0)
(-0.146831 -0.917708 0)
(-0.135938 -0.919581 0)
(-0.125199 -0.919187 0)
(-0.114662 -0.916736 0)
(-0.104368 -0.912431 0)
(-0.0943672 -0.906467 0)
(-0.290626 -0.560732 0)
(-0.283264 -0.614829 0)
(-0.275193 -0.664155 0)
(-0.266399 -0.708957 0)
(-0.256953 -0.749327 0)
(-0.246945 -0.785403 0)
(-0.236457 -0.817313 0)
(-0.22556 -0.845189 0)
(-0.214323 -0.869166 0)
(-0.202817 -0.889394 0)
(-0.191109 -0.906037 0)
(-0.179265 -0.919271 0)
(-0.16735 -0.929288 0)
(-0.155425 -0.936289 0)
(-0.143552 -0.940485 0)
(-0.13179 -0.942091 0)
(-0.120195 -0.941325 0)
(-0.108821 -0.938402 0)
(-0.0977142 -0.933529 0)
(-0.0869309 -0.926905 0)
(-0.29771 -0.574737 0)
(-0.289866 -0.630662 0)
(-0.281256 -0.681614 0)
(-0.271862 -0.727854 0)
(-0.261757 -0.769486 0)
(-0.251033 -0.806658 0)
(-0.239778 -0.839507 0)
(-0.228067 -0.868171 0)
(-0.215976 -0.892791 0)
(-0.20358 -0.913521 0)
(-0.190954 -0.930525 0)
(-0.17817 -0.943986 0)
(-0.165299 -0.954095 0)
(-0.152411 -0.961059 0)
(-0.139574 -0.96509 0)
(-0.126857 -0.96641 0)
(-0.114322 -0.965238 0)
(-0.10203 -0.961795 0)
(-0.0900337 -0.956295 0)
(-0.0783961 -0.948941 0)
(-0.305037 -0.589649 0)
(-0.296675 -0.647539 0)
(-0.287487 -0.700252 0)
(-0.277446 -0.74806 0)
(-0.266627 -0.791075 0)
(-0.255126 -0.829457 0)
(-0.243036 -0.863349 0)
(-0.230436 -0.892895 0)
(-0.217409 -0.91824 0)
(-0.204037 -0.93954 0)
(-0.1904 -0.956962 0)