# vtk DataFile Version 2.0
track0
ASCII
DATASET POLYDATA
POINTS 12140 float
-0.0205 0.001 1e-05
-0.0204887 0.0011 1e-05
-0.0204774 0.00119999 1e-05
-0.0204659 0.00129996 1e-05
-0.0204542 0.00139992 1e-05
-0.0204425 0.0015 1e-05
-0.0204306 0.0016 1e-05
-0.0204186 0.00169998 1e-05
-0.0204064 0.00179994 1e-05
-0.0203941 0.00189989 1e-05
-0.0203816 0.002 1e-05
-0.0203689 0.0021 1e-05
-0.0203561 0.00219998 1e-05
-0.020343 0.00229993 1e-05
-0.0203298 0.00239985 1e-05
-0.0203164 0.0025 1e-05
-0.0203102 0.00254549 1e-05
-0.0203039 0.00259097 1e-05
-0.0202977 0.00263645 1e-05
-0.0202913 0.00268192 1e-05
-0.0202854 0.00272423 1e-05
-0.0202776 0.00277939 1e-05
-0.0202698 0.00283453 1e-05
-0.0202619 0.00288967 1e-05
-0.0202539 0.00294479 1e-05
-0.0202458 0.003 1e-05
-0.0202311 0.0031 1e-05
-0.0202162 0.00319997 1e-05
-0.020201 0.00329989 1e-05
-0.0201856 0.00339979 1e-05
-0.0201699 0.0035 1e-05
-0.020154 0.0036 1e-05
-0.0201378 0.00369996 1e-05
-0.0201214 0.00379988 1e-05
-0.0201047 0.00389975 1e-05
-0.0200877 0.004 1e-05
-0.0200746 0.00407597 1e-05
-0.0200614 0.00415191 1e-05
-0.020048 0.00422783 1e-05
-0.0200345 0.00430372 1e-05
-0.0200223 0.00437107 1e-05
-0.0200176 0.00439686 1e-05
-0.0200129 0.00442264 1e-05
-0.0200082 0.00444842 1e-05
-0.0200034 0.00447419 1e-05
-0.0199986 0.0045 1e-05
-0.01998 0.0046 1e-05
-0.0199612 0.00469995 1e-05
-0.019942 0.00479984 1e-05
-0.0199226 0.00489968 1e-05
-0.0199028 0.005 1e-05
-0.0198828 0.0051 1e-05
-0.0198625 0.00519994 1e-05
-0.0198418 0.00529983 1e-05
-0.0198209 0.00539965 1e-05
-0.0197996 0.0055 1e-05
-0.019792 0.00553556 1e-05
-0.0197843 0.0055711 1e-05
-0.0197766 0.00560664 1e-05
-0.0197688 0.00564217 1e-05
-0.0197614 0.005676 1e-05
-0.0197471 0.0057408 1e-05
-0.0197326 0.00580557 1e-05
-0.0197181 0.00587032 1e-05
-0.0197034 0.00593503 1e-05
-0.0196885 0.006 1e-05
-0.0196654 0.0061 1e-05
-0.0196421 0.00619993 1e-05
-0.0196184 0.00629979 1e-05
-0.0195944 0.00639957 1e-05
-0.0195699 0.0065 1e-05
-0.0195564 0.0065546 1e-05
-0.0195429 0.00660918 1e-05
-0.0195292 0.00666374 1e-05
-0.0195154 0.00671828 1e-05
-0.0195025 0.00676917 1e-05
-0.0194907 0.00681534 1e-05
-0.0194788 0.00686149 1e-05
-0.0194669 0.00690762 1e-05
-0.0194549 0.00695373 1e-05
-0.0194428 0.007 1e-05
-0.0194165 0.0071 1e-05
-0.0193898 0.00719992 1e-05
-0.0193628 0.00729975 1e-05
-0.0193356 0.0073995 1e-05
-0.0193077 0.0075 1e-05
-0.0192953 0.00754425 1e-05
-0.0192829 0.00758849 1e-05
-0.0192704 0.00763271 1e-05
-0.0192578 0.00767691 1e-05
-0.0192457 0.0077189 1e-05
-0.0192296 0.00777512 1e-05
-0.0192133 0.00783131 1e-05
-0.0191969 0.00788747 1e-05
-0.0191804 0.0079436 1e-05
-0.0191637 0.008 1e-05
-0.019134 0.0081 1e-05
-0.0191039 0.0081999 1e-05
-0.0190735 0.00829971 1e-05
-0.0190427 0.00839941 1e-05
-0.0190114 0.0085 1e-05
-0.0190073 0.0085129 1e-05
-0.0190032 0.00852579 1e-05
-0.0189992 0.00853868 1e-05
-0.0189951 0.00855158 1e-05
-0.018991 0.00856429 1e-05
-0.0189633 0.00865143 1e-05
-0.0189354 0.0087385 1e-05
-0.0189072 0.00882548 1e-05
-0.0188788 0.00891237 1e-05
-0.0188498 0.009 1e-05
-0.0188275 0.00906676 1e-05
-0.0188051 0.00913348 1e-05
-0.0187825 0.00920014 1e-05
-0.0187598 0.00926676 1e-05
-0.0187384 0.00932897 1e-05
-0.0187266 0.00936317 1e-05
-0.0187147 0.00939737 1e-05
-0.0187028 0.00943155 1e-05
-0.0186908 0.00946571 1e-05
-0.0186788 0.0095 1e-05
-0.0186435 0.0096 1e-05
-0.0186079 0.00969988 1e-05
-0.018572 0.00979964 1e-05
-0.0185357 0.00989927 1e-05
-0.0184986 0.01 1e-05
-0.0184964 0.0100058 1e-05
-0.0184943 0.0100116 1e-05
-0.0184921 0.0100175 1e-05
-0.0184899 0.0100233 1e-05
-0.0184878 0.0100291 1e-05
-0.0184526 0.0101233 1e-05
-0.0184172 0.0102173 1e-05
-0.0183814 0.0103113 1e-05
-0.0183454 0.0104051 1e-05
-0.0183085 0.0105 1e-05
-0.0182947 0.0105354 1e-05
-0.0182808 0.0105708 1e-05
-0.0182668 0.0106062 1e-05
-0.0182528 0.0106415 1e-05
-0.0182392 0.0106757 1e-05
-0.0182133 0.0107406 1e-05
-0.0181873 0.0108054 1e-05
-0.0181611 0.0108701 1e-05
-0.0181348 0.0109348 1e-05
-0.0181081 0.011 1e-05
-0.018085 0.011056 1e-05
-0.0180618 0.0111119 1e-05
-0.0180384 0.0111678 1e-05
-0.018015 0.0112237 1e-05
-0.0179926 0.0112768 1e-05
-0.0179737 0.0113215 1e-05
-0.0179547 0.0113661 1e-05
-0.0179356 0.0114106 1e-05
-0.0179164 0.0114552 1e-05
-0.0178971 0.0115 1e-05
-0.0178673 0.0115688 1e-05
-0.0178373 0.0116375 1e-05
-0.0178071 0.0117061 1e-05
-0.0177768 0.0117747 1e-05
-0.017748 0.0118393 1e-05
-0.0177336 0.0118714 1e-05
-0.0177191 0.0119036 1e-05
-0.0177046 0.0119357 1e-05
-0.0176901 0.0119678 1e-05
-0.0176755 0.012 1e-05
-0.0176414 0.0120747 1e-05
-0.0176072 0.0121493 1e-05
-0.0175728 0.0122238 1e-05
-0.0175381 0.0122982 1e-05
-0.0175053 0.0123682 1e-05
-0.0174929 0.0123945 1e-05
-0.0174804 0.0124209 1e-05
-0.0174679 0.0124472 1e-05
-0.0174554 0.0124736 1e-05
-0.0174428 0.0125 1e-05
-0.0174072 0.0125745 1e-05
-0.0173713 0.012649 1e-05
-0.0173353 0.0127233 1e-05
-0.017299 0.0127975 1e-05
-0.0172647 0.0128674 1e-05
-0.0172515 0.0128939 1e-05
-0.0172384 0.0129204 1e-05
-0.0172252 0.0129469 1e-05
-0.017212 0.0129734 1e-05
-0.0171987 0.013 1e-05
-0.0171641 0.0130689 1e-05
-0.0171294 0.0131377 1e-05
-0.0170945 0.0132064 1e-05
-0.0170594 0.0132751 1e-05
-0.0170259 0.0133401 1e-05
-0.0170094 0.0133721 1e-05
-0.0169928 0.013404 1e-05
-0.0169761 0.013436 1e-05
-0.0169595 0.0134679 1e-05
-0.0169426 0.0135 1e-05
-0.0169119 0.0135584 1e-05
-0.0168811 0.0136168 1e-05
-0.0168501 0.0136751 1e-05
-0.016819 0.0137333 1e-05
-0.0167891 0.013789 1e-05
-0.0167663 0.0138312 1e-05
-0.0167435 0.0138733 1e-05
-0.0167205 0.0139155 1e-05
-0.0166975 0.0139576 1e-05
-0.0166743 0.014 1e-05
-0.0166502 0.0140436 1e-05
-0.0166262 0.0140872 1e-05
-0.016602 0.0141307 1e-05
-0.0165778 0.0141742 1e-05
-0.0165542 0.0142163 1e-05
-0.0165223 0.014273 1e-05
-0.0164903 0.0143297 1e-05
-0.0164582 0.0143863 1e-05
-0.0164259 0.0144428 1e-05
-0.0163932 0.0145 1e-05
-0.0163788 0.014525 1e-05
-0.0163643 0.0145499 1e-05
-0.0163499 0.0145749 1e-05
-0.0163354 0.0145998 1e-05
-0.0163212 0.0146243 1e-05
-0.0162773 0.0146994 1e-05
-0.0162333 0.0147744 1e-05
-0.016189 0.0148493 1e-05
-0.0161445 0.0149241 1e-05
-0.016099 0.015 1e-05
-0.0160972 0.015003 1e-05
-0.0160954 0.015006 1e-05
-0.0160936 0.0150089 1e-05
-0.0160918 0.0150119 1e-05
-0.01609 0.0150149 1e-05
-0.0160442 0.0150908 1e-05
-0.0159981 0.0151665 1e-05
-0.0159518 0.0152421 1e-05
-0.0159052 0.0153176 1e-05
-0.0158607 0.0153892 1e-05
-0.0158469 0.0154113 1e-05
-0.015833 0.0154335 1e-05
-0.0158191 0.0154556 1e-05
-0.0158052 0.0154778 1e-05
-0.0157912 0.0155 1e-05
-0.0157596 0.01555 1e-05
-0.0157279 0.0156 1e-05
-0.0156962 0.0156498 1e-05
-0.0156643 0.0156996 1e-05
-0.0156333 0.0157478 1e-05
-0.0156007 0.0157983 1e-05
-0.0155681 0.0158486 1e-05
-0.0155353 0.0158989 1e-05
-0.0155024 0.0159492 1e-05
-0.015469 0.016 1e-05
-0.0154567 0.0160186 1e-05
-0.0154445 0.0160371 1e-05
-0.0154322 0.0160557 1e-05
-0.0154199 0.0160742 1e-05
-0.0154077 0.0160925 1e-05
-0.015363 0.0161597 1e-05
-0.015318 0.0162268 1e-05
-0.0152729 0.0162938 1e-05
-0.0152276 0.0163606 1e-05
-0.0151839 0.0164246 1e-05
-0.0151736 0.0164397 1e-05
-0.0151632 0.0164547 1e-05
-0.0151529 0.0164698 1e-05
-0.0151425 0.0164849 1e-05
-0.015132 0.0165 1e-05
-0.015098 0.0165493 1e-05
-0.0150639 0.0165985 1e-05
-0.0150297 0.0166476 1e-05
-0.0149954 0.0166966 1e-05
-0.0149619 0.0167442 1e-05
-0.0149258 0.0167954 1e-05
-0.0148896 0.0168464 1e-05
-0.0148533 0.0168974 1e-05
-0.0148169 0.0169484 1e-05
-0.0147798 0.017 1e-05
-0.0147722 0.0170105 1e-05
-0.0147645 0.0170211 1e-05
-0.0147569 0.0170316 1e-05
-0.0147493 0.0170421 1e-05
-0.0147417 0.0170525 1e-05
-0.0146981 0.0171128 1e-05
-0.0146542 0.0171729 1e-05
-0.0146102 0.0172329 1e-05
-0.0145661 0.0172928 1e-05
-0.0145233 0.0173505 1e-05
-0.0145011 0.0173804 1e-05
-0.0144788 0.0174103 1e-05
-0.0144564 0.0174401 1e-05
-0.0144341 0.0174699 1e-05
-0.0144114 0.0175 1e-05
-0.0143905 0.0175278 1e-05
-0.0143695 0.0175555 1e-05
-0.0143485 0.0175832 1e-05
-0.0143274 0.0176109 1e-05
-0.0143067 0.0176382 1e-05
-0.0142637 0.0176944 1e-05
-0.0142206 0.0177506 1e-05
-0.0141773 0.0178067 1e-05
-0.0141339 0.0178627 1e-05
-0.0140917 0.0179168 1e-05
-0.0140787 0.0179334 1e-05
-0.0140657 0.0179501 1e-05
-0.0140526 0.0179667 1e-05
-0.0140396 0.0179833 1e-05
-0.0140264 0.018 1e-05
-0.0139969 0.0180375 1e-05
-0.0139672 0.018075 1e-05
-0.0139375 0.0181124 1e-05
-0.0139078 0.0181497 1e-05
-0.0138786 0.0181863 1e-05
-0.0138363 0.0182391 1e-05
-0.0137939 0.0182918 1e-05
-0.0137513 0.0183443 1e-05
-0.0137087 0.0183968 1e-05
-0.0136671 0.0184477 1e-05
-0.0136585 0.0184582 1e-05
-0.0136499 0.0184686 1e-05
-0.0136414 0.0184791 1e-05
-0.0136328 0.0184895 1e-05
-0.0136242 0.0185 1e-05
-0.0135908 0.0185405 1e-05
-0.0135574 0.0185809 1e-05
-0.0135239 0.0186213 1e-05
-0.0134903 0.0186617 1e-05
-0.0134573 0.0187011 1e-05
-0.0134157 0.0187507 1e-05
-0.013374 0.0188003 1e-05
-0.0133322 0.0188497 1e-05
-0.0132902 0.0188991 1e-05
-0.0132493 0.0189471 1e-05
-0.0132402 0.0189577 1e-05
-0.0132311 0.0189683 1e-05
-0.0132221 0.0189788 1e-05
-0.013213 0.0189894 1e-05
-0.0132039 0.019 1e-05
-0.0131717 0.0190374 1e-05
-0.0131394 0.0190748 1e-05
-0.0131071 0.0191121 1e-05
-0.0130747 0.0191494 1e-05
-0.0130429 0.0191859 1e-05
-0.0130019 0.0192327 1e-05
-0.0129609 0.0192794 1e-05
-0.0129197 0.0193261 1e-05
-0.0128785 0.0193727 1e-05
-0.0128381 0.0194181 1e-05
-0.0128235 0.0194345 1e-05
-0.0128089 0.0194508 1e-05
-0.0127942 0.0194672 1e-05
-0.0127796 0.0194836 1e-05
-0.0127648 0.0195 1e-05
-0.0127389 0.0195289 1e-05
-0.0127129 0.0195577 1e-05
-0.0126868 0.0195865 1e-05
-0.0126608 0.0196153 1e-05
-0.012635 0.0196437 1e-05
-0.0125947 0.0196879 1e-05
-0.0125544 0.0197321 1e-05
-0.0125139 0.0197762 1e-05
-0.0124734 0.0198203 1e-05
-0.0124336 0.0198633 1e-05
-0.0124082 0.0198906 1e-05
-0.0123828 0.019918 1e-05
-0.0123574 0.0199452 1e-05
-0.0123319 0.0199725 1e-05
-0.0123062 0.02 1e-05
-0.0122917 0.0200154 1e-05
-0.0122772 0.0200309 1e-05
-0.0122627 0.0200463 1e-05
-0.0122482 0.0200617 1e-05
-0.0122338 0.0200769 1e-05
-0.0121941 0.0201189 1e-05
[...]
POINT_DATA 12140
 FIELD attributes 2
p 1 12140 float
-0.00664867 -0.00729795 -0.00794617 -0.00859414 -0.00924203 -0.00989049 -0.0105276 -0.0111642 -0.0118005 -0.0124362 -0.0130727 -0.0137009 -0.0143288 -0.0149567 -0.0155845 -0.016213 -0.0164966 -0.0167799 -0.0170633 -0.0173466 -0.0176101 -0.0179539 -0.0182976 -0.0186412 -0.0189847 -0.0193287 -0.0199457 -0.0205619 -0.021178 -0.0217939 -0.0224116 -0.0230224 -0.0236329 -0.0242432 -0.024853 -0.0254649 -0.0259248 -0.0263845 -0.026844 -0.0273034 -0.0277111 -0.0278673 -0.0280234 -0.0281795 -0.0283355 -0.0284916 -0.0290918 -0.0296915 -0.030291 -0.0308903 -0.0314923 -0.0320879 -0.0326831 -0.033278 -0.0338726 -0.0344702 -0.0346806 -0.0348907 -0.0351009 -0.035311 -0.0355109 -0.035894 -0.0362768 -0.0366595 -0.037042 -0.037426 -0.0380132 -0.0385999 -0.0391863 -0.0397723 -0.0403621 -0.040681 -0.0409996 -0.0413181 -0.0416365 -0.0419336 -0.042203 -0.0424721 -0.0427412 -0.0430102 -0.04328 -0.0438601 -0.0444398 -0.045019 -0.0455979 -0.0461811 -0.0464368 -0.0466923 -0.0469477 -0.047203 -0.0474455 -0.0477698 -0.0480939 -0.0484178 -0.0487415 -0.0490667 -0.0496412 -0.0502151 -0.0507884 -0.0513613 -0.0519393 -0.0520133 -0.0520871 -0.052161 -0.0522348 -0.0523076 -0.0528057 -0.0533032 -0.0538003 -0.054297 -0.0547977 -0.0551784 -0.0555588 -0.0559389 -0.0563187 -0.0566734 -0.056868 -0.0570624 -0.0572567 -0.057451 -0.0576459 -0.0582135 -0.0587803 -0.0593465 -0.059912 -0.0604839 -0.0605169 -0.0605499 -0.0605829 -0.060616 -0.0606488 -0.0611812 -0.0617129 -0.062244 -0.0627744 -0.0633106 -0.0635108 -0.0637108 -0.0639107 -0.0641105 -0.0643038 -0.0646688 -0.0650334 -0.0653977 -0.0657616 -0.0661285 -0.0664439 -0.066759 -0.0670738 -0.0673884 -0.0676877 -0.0679378 -0.0681876 -0.0684373 -0.0686868 -0.0689378 -0.0693239 -0.0697095 -0.0700946 -0.0704793 -0.0708418 -0.0710211 -0.0712002 -0.0713793 -0.0715582 -0.0717379 -0.0721558 -0.0725731 -0.0729898 -0.0734059 -0.0737968 -0.0739432 -0.0740895 -0.0742357 -0.0743819 -0.0745286 -0.0749441 -0.0753588 -0.075773 -0.0761864 -0.0765756 -0.0767222 -0.0768687 -0.0770151 -0.0771614 -0.0773083 -0.077691 -0.0780732 -0.0784547 -0.0788357 -0.0791967 -0.0793725 -0.0795483 -0.0797239 -0.0798994 -0.0800759 -0.0803992 -0.0807221 -0.0810444 -0.0813664 -0.0816742 -0.0819052 -0.0821359 -0.0823664 -0.0825966 -0.0828286 -0.083069 -0.0833091 -0.083549 -0.0837886 -0.0840207 -0.0843296 -0.0846381 -0.0849461 -0.0852536 -0.0855646 -0.0857017 -0.0858387 -0.0859756 -0.0861124 -0.0862467 -0.0866539 -0.0870601 -0.0874653 -0.0878696 -0.0882801 -0.0882963 -0.0883125 -0.0883288 -0.0883451 -0.0883615 -0.0887705 -0.089179 -0.0895864 -0.0899927 -0.0903781 -0.0904954 -0.0906127 -0.0907299 -0.0908471 -0.0909649 -0.0912331 -0.0915008 -0.0917679 -0.0920346 -0.0922923 -0.0925575 -0.0928222 -0.0930864 -0.09335 -0.0936166 -0.0937152 -0.0938139 -0.0939126 -0.0940112 -0.0941088 -0.0944595 -0.0948094 -0.0951584 -0.095507 -0.0958406 -0.0959173 -0.0959942 -0.096071 -0.0961478 -0.0962251 -0.0964806 -0.0967354 -0.0969897 -0.0972434 -0.097489 -0.0977474 -0.0980051 -0.0982621 -0.0985185 -0.0987781 -0.0988318 -0.0988858 -0.0989397 -0.0989936 -0.0990475 -0.0993481 -0.0996487 -0.0999487 -0.100248 -0.100536 -0.100681 -0.100825 -0.10097 -0.101114 -0.101259 -0.101397 -0.101534 -0.101671 -0.101807 -0.101941 -0.10221 -0.102478 -0.102745 -0.103012 -0.103271 -0.103347 -0.103424 -0.1035 -0.103577 -0.103654 -0.10383 -0.104007 -0.104183 -0.104359 -0.104531 -0.10477 -0.105007 -0.105244 -0.10548 -0.105711 -0.105755 -0.105801 -0.105846 -0.105891 -0.105937 -0.106117 -0.106298 -0.106477 -0.106656 -0.106831 -0.10704 -0.107249 -0.107457 -0.107664 -0.107867 -0.107909 -0.107952 -0.107994 -0.108036 -0.108078 -0.108233 -0.108388 -0.108542 -0.108696 -0.108847 -0.109028 -0.109209 -0.109389 -0.109569 -0.109746 -0.109805 -0.109864 -0.109924 -0.109983 -0.110043 -0.110152 -0.110261 -0.11037 -0.110478 -0.110585 -0.110739 -0.110892 -0.111046 -0.1112 -0.11135 -0.111438 -0.111526 -0.111613 -0.111699 -0.111787 -0.111838 -0.111889 -0.111941 -0.111992 -0.112044 -0.112171 -0.112299 -0.112427 -0.112555 -0.11268 -0.112791 -0.112902 -0.113011 -0.11312 -0.113228 -0.113233 -0.113239 -0.113245 -0.113251 -0.113257 -0.113354 -0.113451 -0.113546 -0.113642 -0.113734 -0.113819 -0.113902 -0.113985 -0.114071 -0.114155 -0.114199 -0.114243 -0.114286 -0.114329 -0.114372 -0.114397 -0.114424 -0.11445 -0.114477 -0.114503 -0.11456 -0.11462 -0.11468 -0.11474 -0.114799 -0.114839 -0.11488 -0.11492 -0.114959 -0.115003 -0.115012 -0.115022 -0.115032 -0.115042 -0.115054 -0.115074 -0.115094 -0.115113 -0.115132 -0.115151 -0.115165 -0.11518 -0.115198 -0.115215 -0.11523 -0.115229 -0.115227 -0.115223 -0.11522 -0.11522 -0.115215 -0.115209 -0.115203 -0.115197 -0.11519 -0.115182 -0.115175 -0.115168 -0.115161 -0.115154 -0.115122 -0.115093 -0.115068 -0.115042 -0.115017 -0.114969 -0.114922 -0.114875 -0.114827 -0.114787 -0.114755 -0.114726 -0.114696 -0.114666 -0.114637 -0.114609 -0.114581 -0.114552 -0.114524 -0.114495 -0.114419 -0.114349 -0.114279 -0.114209 -0.114138 -0.114047 -0.113954 -0.113861 -0.113774 -0.113688 -0.113598 -0.113507 -0.113415 -0.113323 -0.113228 -0.113212 -0.113197 -0.113181 -0.113166 -0.113152 -0.113033 -0.112917 -0.112801 -0.112685 -0.112571 -0.112429 -0.112288 -0.112154 -0.112022 -0.111892 -0.111734 -0.111578 -0.111421 -0.111264 -0.111117 -0.111037 -0.110958 -0.110878 -0.110799 -0.11072 -0.110633 -0.110545 -0.110457 -0.110368 -0.110279 -0.11009 -0.109912 -0.109732 -0.109552 -0.109373 -0.109169 -0.108962 -0.108759 -0.108563 -0.108368 -0.108147 -0.107925 -0.107703 -0.10748 -0.107265 -0.107186 -0.107105 -0.107024 -0.106943 -0.106861 -0.106708 -0.106556 -0.106404 -0.106251 -0.106101 -0.10584 -0.105593 -0.105347 -0.1051 -0.104857 -0.10458 -0.104304 -0.104032 -0.10377 -0.10351 -0.103216 -0.102925 -0.102633 -0.10234 -0.102063 -0.101904 -0.101746 -0.101589 -0.101431 -0.101274 -0.101128 -0.100983 -0.100837 -0.10069 -0.100544 -0.100218 -0.0999028 -0.0995876 -0.0992719 -0.0989578 -0.098611 -0.0982629 -0.0979283 -0.0975964 -0.0972652 -0.0969016 -0.0965377 -0.0961734 -0.0958156 -0.0954701 -0.0950911 -0.0947107 -0.0943299 -0.0939486 -0.0935681 -0.0935659 -0.0935636 -0.0935614 -0.0935592 -0.0935569 -0.0931684 -0.0927818 -0.0923948 -0.0920074 -0.0916238 -0.0911975 -0.0907853 -0.0903795 -0.0899733 -0.0895698 -0.089126 -0.0886841 -0.0882492 -0.0878274 -0.0874096 -0.08695 -0.0864911 -0.0860318 -0.0855736 -0.0851382 -0.0847334 -0.0843307 -0.0839277 -0.0835245 -0.0831202 -0.0830497 -0.0829795 -0.0829095 -0.0828396 -0.0827705 -0.082284 -0.0818008 -0.0813172 -0.0808333 -0.0803503 -0.0798269 -0.079318 -0.0788186 -0.0783188 -0.0778215 -0.077282 -0.0767415 -0.0762103 -0.0756935 -0.0751775 -0.0746204 -0.0740639 -0.0735071 -0.0729558 -0.0724262 -0.0718535 -0.0712798 -0.0707057 -0.0701314 -0.0695596 -0.0695194 -0.0694805 -0.0694416 -0.0694028 -0.0693639 -0.0688179 -0.0682736 -0.0677291 -0.0671844 -0.0666428 -0.0660146 -0.0654131 -0.0648129 -0.0642124 -0.063613 -0.0629687 -0.0623262 -0.0617079 -0.061094 -0.060483 -0.0598247 -0.0591658 -0.0585069 -0.0578705 -0.0572416 -0.0565689 -0.055898 -0.055227 -0.0545559 -0.0539082 -0.0534641 -0.0530193 -0.0525745 -0.0521296 -0.0516838 -0.0514458 -0.0512067 -0.0509676 -0.0507285 -0.0504883 -0.0497814 -0.0490886 -0.0483958 -0.047703 -0.0470117 -0.0462736 -0.0455544 -0.0448495 -0.0441447 -0.0434381 -0.0426841 -0.0419316 -0.0411988 -0.0404817 -0.0397649 -0.0390005 -0.038235 -0.0374697 -0.0367234 -0.0359907 -0.0352079 -0.0344265 -0.0336455 -0.0328647 -0.0321014 -0.0317006 -0.0312986 -0.0308967 -0.0304949 -0.0300939 -0.0297027 -0.0293116 -0.0289205 -0.0285296 -0.028138 -0.027307 -0.026498 -0.0256894 -0.0248813 -0.0240718 -0.0232062 -0.0223598 -0.0215339 -0.0207086 -0.0198785 -0.0189884 -0.0181011 -0.0172328 -0.0163863 -0.0155357 -0.0146278 -0.0137209 -0.0128149 -0.0119271 -0.0110546 -0.0101232 -0.00919467 -0.00826718 -0.00734072 -0.00642348 -0.00605366 -0.00568415 -0.00531482 -0.00494567 -0.00458047 -0.00400493 -0.00343032 -0.00285617 -0.00228246 -0.00170522 -0.000713611 0.000245722 0.00120368 0.00216028 0.00312759 0.0041533 0.00516394 0.00614068 0.00711587 0.00810568 0.0091522 0.010195 0.011227 0.0122203 0.0132291 0.0142929 0.0153544 0.0164138 0.0174681 0.0184989 0.0195204 0.0205382 0.0215539 0.0225676 0.0235423 0.023616 0.0236896 0.0237632 0.0238367 0.0239084 0.025005 0.0260951 0.0271827 0.0282677 0.029379 0.0305405 0.0316616 0.0327663 0.0338682 0.0349983 0.036177 0.0373525 0.0385014 0.0396211 0.0407745 0.041974 0.0431681 0.0443586 0.0455378 0.0467109 0.0477739 0.0488342 0.0498914 0.0509457 0.0519588 0.052127 0.0522949 0.0524626 0.0526302 0.0527982 0.0540387 0.0552625 0.056482 0.0576973 0.0589568 0.0602597 0.0615385 0.0627793 0.0640157 0.0653031 0.0666311 0.0679515 0.0692667 0.0705344 0.0718467 0.0731976 0.0745426 0.0758821 0.077216 0.0786018 0.0787722 0.0789403 0.0791084 0.0792755 0.0794412 0.0806391 0.0818299 0.0830162 0.0841979 0.085429 0.0868762 0.0882904 0.0896683 0.0910402 0.0924852 0.0939705 0.0954467 0.0969158 0.098346 0.0998298 0.10107 0.102306 0.103537 0.104763 0.105952 0.106257 0.106562 0.106866 0.107169 0.107475 0.109055 0.110597 0.112131 0.113657 0.115273 0.116909 0.118534 0.120127 0.121674 0.12332 0.124998 0.126664 0.128321 0.12997 0.131725 0.131733 0.131741 0.13175 0.131758 0.131767 0.133527 0.13528 0.137023 0.138756 0.140612 0.142535 0.144443 0.146313 0.148132 0.150079 0.151716 0.153341 0.154955 0.156557 0.158105 0.158438 0.158768 0.159096 0.159424 0.159755 0.162331 0.164882 0.167406 0.169906 0.172278 0.172469 0.172657 0.172845 0.173033 0.173222 0.175602 0.177944 0.180255 0.182537 0.184698 0.185152 0.185592 0.18603 0.186466 0.18691 0.188436 0.189923 0.191389 0.192835 0.194207 0.194829 0.195417 0.195994 0.19656 0.197164 0.197547 0.197894 0.198235 0.198571 0.198867 0.198697 0.198458 0.198187 0.19789 0.197585 0.197414 0.19721 0.197005 0.196799 0.19655 0.195296 0.193994 0.192676 0.191345 0.189989 0.187579 0.18512 0.182639 0.180137 0.177703 0.176953 0.176181 0.175407 0.174632 0.173774 0.171395 0.168993 0.166584 0.164169 0.161752 0.158169 0.154563 0.150971 0.147375 0.143792 0.140055 0.136303 0.132542 0.128772 0.125016 0.123597 0.122173 0.120747 0.119321 0.117703 0.115366 0.113022 0.110676 0.108328 0.105981 0.102262 0.0985215 0.0947774 0.0910295 0.0872884 0.0837462 0.0801971 0.0766113 0.0730192 0.0694302 0.0661189 0.0628017 0.0594816 0.0560881 0.0526951 0.0496616 0.0466221 0.0435799 0.0404999 0.0373268 0.0346121 0.0318921 0.0291697 0.0264448 0.0235664 0.0212092 0.0188469 0.0164821 0.0141147 0.0116618 0.0104986 0.0093334 0.00816723 0.0070001 0.00561831 0.004843 0.00406741 0.00329135 0.00251504 0.00173813 0.000234655 -0.00134442 -0.00292578 -0.00450936 -0.00609525 -0.00694081 -0.00811887 -0.0092995 -0.0104826 -0.0116718 -0.0120031 -0.0129812 -0.0139622 -0.0149459 -0.0159508 -0.0163148 -0.017575 -0.0188399 -0.020108 -0.0214254 -0.0231256 -0.0254008 -0.027816 -0.0302351 -0.0327553 -0.037704 -0.042849 -0.0480024 -0.0531605 -0.0585078 -0.069661 -0.0807301 -0.0912541 -0.101782 -0.112626 -0.13355 -0.154305 -0.173588 -0.192872 -0.212605 -0.246516 -0.280388 -0.311874 -0.343358 -0.3754 -0.423881 -0.472573 -0.518543 -0.564514 -0.611069 -0.672717 -0.734799 -0.794742 -0.854695 -0.915148 -0.985326 -1.05581 -1.12598 -1.19612 -1.26658 -1.33958 -1.41267 -1.48717 -1.5624 -1.63774 -1.71004 -1.78232 -1.85623 -1.93307 -2.00992 -2.07878 -2.14747 -2.21617 -2.29093 -2.36568 -2.42346 -2.48079 -2.53812 -2.59905 -2.66216 -2.70161 -2.74062 -2.77965 -2.81957 -2.86216 -2.88864 -2.9151 -2.94161 -2.96818 -2.99523 -3.01109 -3.0267 -3.04237 -3.05809 -3.07258 -3.0782 -3.08385 -3.08954 -3.09528 -3.1006 -3.10247 -3.1043 -3.10617 -3.10807 -3.10998