# vtk DataFile Version 2.0
track0
ASCII
DATASET POLYDATA
POINTS 12140 float
-0.0205 0.001 1e-05
-0.0204887 0.0011 1e-05
-0.0204774 0.00119999 1e-05
-0.0204659 0.00129996 1e-05
-0.0204542 0.00139992 1e-05
-0.0204425 0.0015 1e-05
-0.0204306 0.0016 1e-05
-0.0204186 0.00169998 1e-05
-0.0204064 0.00179994 1e-05
-0.0203941 0.00189989 1e-05
-0.0203816 0.002 1e-05
-0.0203689 0.0021 1e-05
-0.0203561 0.00219998 1e-05
-0.020343 0.00229993 1e-05
-0.0203298 0.00239985 1e-05
-0.0203164 0.0025 1e-05
-0.0203102 0.00254549 1e-05
-0.0203039 0.00259097 1e-05
-0.0202977 0.00263645 1e-05
-0.0202913 0.00268192 1e-05
-0.0202854 0.00272423 1e-05
-0.0202776 0.00277939 1e-05
-0.0202698 0.00283453 1e-05
-0.0202619 0.00288967 1e-05
-0.0202539 0.00294479 1e-05
-0.0202458 0.003 1e-05
-0.0202311 0.0031 1e-05
-0.0202162 0.00319997 1e-05
-0.020201 0.00329989 1e-05
-0.0201856 0.00339979 1e-05
-0.0201699 0.0035 1e-05
-0.020154 0.0036 1e-05
-0.0201378 0.00369996 1e-05
-0.0201214 0.00379988 1e-05
-0.0201047 0.00389975 1e-05
-0.0200877 0.004 1e-05
-0.0200746 0.00407597 1e-05
-0.0200614 0.00415191 1e-05
-0.020048 0.00422783 1e-05
-0.0200345 0.00430372 1e-05
-0.0200223 0.00437107 1e-05
-0.0200176 0.00439686 1e-05
-0.0200129 0.00442264 1e-05
-0.0200082 0.00444842 1e-05
-0.0200034 0.00447419 1e-05
-0.0199986 0.0045 1e-05
-0.01998 0.0046 1e-05
-0.0199612 0.00469995 1e-05
-0.019942 0.00479984 1e-05
-0.0199226 0.00489968 1e-05
-0.0199028 0.005 1e-05
-0.0198828 0.0051 1e-05
-0.0198625 0.00519994 1e-05
-0.0198418 0.00529983 1e-05
-0.0198209 0.00539965 1e-05
-0.0197996 0.0055 1e-05
-0.019792 0.00553556 1e-05
-0.0197843 0.0055711 1e-05
-0.0197766 0.00560664 1e-05
-0.0197688 0.00564217 1e-05
-0.0197614 0.005676 1e-05
-0.0197471 0.0057408 1e-05
-0.0197326 0.00580557 1e-05
-0.0197181 0.00587032 1e-05
-0.0197034 0.00593503 1e-05
-0.0196885 0.006 1e-05
-0.0196654 0.0061 1e-05
-0.0196421 0.00619993 1e-05
-0.0196184 0.00629979 1e-05
-0.0195944 0.00639957 1e-05
-0.0195699 0.0065 1e-05
-0.0195564 0.0065546 1e-05
-0.0195429 0.00660918 1e-05
-0.0195292 0.00666374 1e-05
-0.0195154 0.00671828 1e-05
-0.0195025 0.00676917 1e-05
-0.0194907 0.00681534 1e-05
-0.0194788 0.00686149 1e-05
-0.0194669 0.00690762 1e-05
-0.0194549 0.00695373 1e-05
-0.0194428 0.007 1e-05
-0.0194165 0.0071 1e-05
-0.0193898 0.00719992 1e-05
-0.0193628 0.00729975 1e-05
-0.0193356 0.0073995 1e-05
-0.0193077 0.0075 1e-05
-0.0192953 0.00754425 1e-05
-0.0192829 0.00758849 1e-05
-0.0192704 0.00763271 1e-05
-0.0192578 0.00767691 1e-05
-0.0192457 0.0077189 1e-05
-0.0192296 0.00777512 1e-05
-0.0192133 0.00783131 1e-05
-0.0191969 0.00788747 1e-05
-0.0191804 0.0079436 1e-05
-0.0191637 0.008 1e-05
-0.019134 0.0081 1e-05
-0.0191039 0.0081999 1e-05
-0.0190735 0.00829971 1e-05
-0.0190427 0.00839941 1e-05
-0.0190114 0.0085 1e-05
-0.0190073 0.0085129 1e-05
-0.0190032 0.00852579 1e-05
-0.0189992 0.00853868 1e-05
-0.0189951 0.00855158 1e-05
-0.018991 0.00856429 1e-05
-0.0189633 0.00865143 1e-05
-0.0189354 0.0087385 1e-05
-0.0189072 0.00882548 1e-05
-0.0188788 0.00891237 1e-05
-0.0188498 0.009 1e-05
-0.0188275 0.00906676 1e-05
-0.0188051 0.00913348 1e-05
-0.0187825 0.00920014 1e-05
-0.0187598 0.00926676 1e-05
-0.0187384 0.00932897 1e-05
-0.0187266 0.00936317 1e-05
-0.0187147 0.00939737 1e-05
-0.0187028 0.00943155 1e-05
-0.0186908 0.00946571 1e-05
-0.0186788 0.0095 1e-05
-0.0186435 0.0096 1e-05
-0.0186079 0.00969988 1e-05
-0.018572 0.00979964 1e-05
-0.0185357 0.00989927 1e-05
-0.0184986 0.01 1e-05
-0.0184964 0.0100058 1e-05
-0.0184943 0.0100116 1e-05
-0.0184921 0.0100175 1e-05
-0.0184899 0.0100233 1e-05
-0.0184878 0.0100291 1e-05
-0.0184526 0.0101233 1e-05
-0.0184172 0.0102173 1e-05
-0.0183814 0.0103113 1e-05
-0.0183454 0.0104051 1e-05
-0.0183085 0.0105 1e-05
-0.0182947 0.0105354 1e-05
-0.0182808 0.0105708 1e-05
-0.0182668 0.0106062 1e-05
-0.0182528 0.0106415 1e-05
-0.0182392 0.0106757 1e-05
-0.0182133 0.0107406 1e-05
-0.0181873 0.0108054 1e-05
-0.0181611 0.0108701 1e-05
-0.0181348 0.0109348 1e-05
-0.0181081 0.011 1e-05
-0.018085 0.011056 1e-05
-0.0180618 0.0111119 1e-05
-0.0180384 0.0111678 1e-05
-0.018015 0.0112237 1e-05
-0.0179926 0.0112768 1e-05
-0.0179737 0.0113215 1e-05
-0.0179547 0.0113661 1e-05
-0.0179356 0.0114106 1e-05
-0.0179164 0.0114552 1e-05
-0.0178971 0.0115 1e-05
-0.0178673 0.0115688 1e-05
-0.0178373 0.0116375 1e-05
-0.0178071 0.0117061 1e-05
-0.0177768 0.0117747 1e-05
-0.017748 0.0118393 1e-05
-0.0177336 0.0118714 1e-05
-0.0177191 0.0119036 1e-05
-0.0177046 0.0119357 1e-05
-0.0176901 0.0119678 1e-05
-0.0176755 0.012 1e-05
-0.0176414 0.0120747 1e-05
-0.0176072 0.0121493 1e-05
-0.0175728 0.0122238 1e-05
-0.0175381 0.0122982 1e-05
-0.0175053 0.0123682 1e-05
-0.0174929 0.0123945 1e-05
-0.0174804 0.0124209 1e-05
-0.0174679 0.0124472 1e-05
-0.0174554 0.0124736 1e-05
-0.0174428 0.0125 1e-05
-0.0174072 0.0125745 1e-05
-0.0173713 0.012649 1e-05
-0.0173353 0.0127233 1e-05
-0.017299 0.0127975 1e-05
-0.0172647 0.0128674 1e-05
-0.0172515 0.0128939 1e-05
-0.0172384 0.0129204 1e-05
-0.0172252 0.0129469 1e-05
-0.017212 0.0129734 1e-05
-0.0171987 0.013 1e-05
-0.0171641 0.0130689 1e-05
-0.0171294 0.0131377 1e-05
-0.0170945 0.0132064 1e-05
-0.0170594 0.0132751 1e-05
-0.0170259 0.0133401 1e-05
-0.0170094 0.0133721 1e-05
-0.0169928 0.013404 1e-05
-0.0169761 0.013436 1e-05
-0.0169595 0.0134679 1e-05
-0.0169426 0.0135 1e-05
-0.0169119 0.0135584 1e-05
-0.0168811 0.0136168 1e-05
-0.0168501 0.0136751 1e-05
-0.016819 0.0137333 1e-05
-0.0167891 0.013789 1e-05
-0.0167663 0.0138312 1e-05
-0.0167435 0.0138733 1e-05
-0.0167205 0.0139155 1e-05
-0.0166975 0.0139576 1e-05
-0.0166743 0.014 1e-05
-0.0166502 0.0140436 1e-05
-0.0166262 0.0140872 1e-05
-0.016602 0.0141307 1e-05
-0.0165778 0.0141742 1e-05
-0.0165542 0.0142163 1e-05
-0.0165223 0.014273 1e-05
-0.0164903 0.0143297 1e-05
-0.0164582 0.0143863 1e-05
-0.0164259 0.0144428 1e-05
-0.0163932 0.0145 1e-05
-0.0163788 0.014525 1e-05
-0.0163643 0.0145499 1e-05
-0.0163499 0.0145749 1e-05
-0.0163354 0.0145998 1e-05
-0.0163212 0.0146243 1e-05
-0.0162773 0.0146994 1e-05
-0.0162333 0.0147744 1e-05
-0.016189 0.0148493 1e-05
-0.0161445 0.0149241 1e-05
-0.016099 0.015 1e-05
-0.0160972 0.015003 1e-05
-0.0160954 0.015006 1e-05
-0.0160936 0.0150089 1e-05
-0.0160918 0.0150119 1e-05
-0.01609 0.0150149 1e-05
-0.0160442 0.0150908 1e-05
-0.0159981 0.0151665 1e-05
-0.0159518 0.0152421 1e-05
-0.0159052 0.0153176 1e-05
-0.0158607 0.0153892 1e-05
-0.0158469 0.0154113 1e-05
-0.015833 0.0154335 1e-05
-0.0158191 0.0154556 1e-05
-0.0158052 0.0154778 1e-05
-0.0157912 0.0155 1e-05
-0.0157596 0.01555 1e-05
-0.0157279 0.0156 1e-05
-0.0156962 0.0156498 1e-05
-0.0156643 0.0156996 1e-05
-0.0156333 0.0157478 1e-05
-0.0156007 0.0157983 1e-05
-0.0155681 0.0158486 1e-05
-0.0155353 0.0158989 1e-05
-0.0155024 0.0159492 1e-05
-0.015469 0.016 1e-05
-0.0154567 0.0160186 1e-05
-0.0154445 0.0160371 1e-05
-0.0154322 0.0160557 1e-05
-0.0154199 0.0160742 1e-05
-0.0154077 0.0160925 1e-05
-0.015363 0.0161597 1e-05
-0.015318 0.0162268 1e-05
-0.0152729 0.0162938 1e-05
-0.0152276 0.0163606 1e-05
-0.0151839 0.0164246 1e-05
-0.0151736 0.0164397 1e-05
-0.0151632 0.0164547 1e-05
-0.0151529 0.0164698 1e-05
-0.0151425 0.0164849 1e-05
-0.015132 0.0165 1e-05
-0.015098 0.0165493 1e-05
-0.0150639 0.0165985 1e-05
-0.0150297 0.0166476 1e-05
-0.0149954 0.0166966 1e-05
-0.0149619 0.0167442 1e-05
-0.0149258 0.0167954 1e-05
-0.0148896 0.0168464 1e-05
-0.0148533 0.0168974 1e-05
-0.0148169 0.0169484 1e-05
-0.0147798 0.017 1e-05
-0.0147722 0.0170105 1e-05
-0.0147645 0.0170211 1e-05
-0.0147569 0.0170316 1e-05
-0.0147493 0.0170421 1e-05
-0.0147417 0.0170525 1e-05
-0.0146981 0.0171128 1e-05
-0.0146542 0.0171729 1e-05
-0.0146102 0.0172329 1e-05
-0.0145661 0.0172928 1e-05
-0.0145233 0.0173505 1e-05
-0.0145011 0.0173804 1e-05
-0.0144788 0.0174103 1e-05
-0.0144564 0.0174401 1e-05
-0.0144341 0.0174699 1e-05
-0.0144114 0.0175 1e-05
-0.0143905 0.0175278 1e-05
-0.0143695 0.0175555 1e-05
-0.0143485 0.0175832 1e-05
-0.0143274 0.0176109 1e-05
-0.0143067 0.0176382 1e-05
-0.0142637 0.0176944 1e-05
-0.0142206 0.0177506 1e-05
-0.0141773 0.0178067 1e-05
-0.0141339 0.0178627 1e-05
-0.0140917 0.0179168 1e-05
-0.0140787 0.0179334 1e-05
-0.0140657 0.0179501 1e-05
-0.0140526 0.0179667 1e-05
-0.0140396 0.0179833 1e-05
-0.0140264 0.018 1e-05
-0.0139969 0.0180375 1e-05
-0.0139672 0.018075 1e-05
-0.0139375 0.0181124 1e-05
-0.0139078 0.0181497 1e-05
-0.0138786 0.0181863 1e-05
-0.0138363 0.0182391 1e-05
-0.0137939 0.0182918 1e-05
-0.0137513 0.0183443 1e-05
-0.0137087 0.0183968 1e-05
-0.0136671 0.0184477 1e-05
-0.0136585 0.0184582 1e-05
-0.0136499 0.0184686 1e-05
-0.0136414 0.0184791 1e-05
-0.0136328 0.0184895 1e-05
-0.0136242 0.0185 1e-05
-0.0135908 0.0185405 1e-05
-0.0135574 0.0185809 1e-05
-0.0135239 0.0186213 1e-05
-0.0134903 0.0186617 1e-05
-0.0134573 0.0187011 1e-05
-0.0134157 0.0187507 1e-05
-0.013374 0.0188003 1e-05
-0.0133322 0.0188497 1e-05
-0.0132902 0.0188991 1e-05
-0.0132493 0.0189471 1e-05
-0.0132402 0.0189577 1e-05
-0.0132311 0.0189683 1e-05
-0.0132221 0.0189788 1e-05
-0.013213 0.0189894 1e-05
-0.0132039 0.019 1e-05
-0.0131717 0.0190374 1e-05
-0.0131394 0.0190748 1e-05
-0.0131071 0.0191121 1e-05
-0.0130747 0.0191494 1e-05
-0.0130429 0.0191859 1e-05
-0.0130019 0.0192327 1e-05
-0.0129609 0.0192794 1e-05
-0.0129197 0.0193261 1e-05
-0.0128785 0.0193727 1e-05
-0.0128381 0.0194181 1e-05
-0.0128235 0.0194345 1e-05
-0.0128089 0.0194508 1e-05
-0.0127942 0.0194672 1e-05
-0.0127796 0.0194836 1e-05
-0.0127648 0.0195 1e-05
-0.0127389 0.0195289 1e-05
-0.0127129 0.0195577 1e-05
-0.0126868 0.0195865 1e-05
-0.0126608 0.0196153 1e-05
-0.012635 0.0196437 1e-05
-0.0125947 0.0196879 1e-05
-0.0125544 0.0197321 1e-05
-0.0125139 0.0197762 1e-05
-0.0124734 0.0198203 1e-05
-0.0124336 0.0198633 1e-05
-0.0124082 0.0198906 1e-05
-0.0123828 0.019918 1e-05
-0.0123574 0.0199452 1e-05
-0.0123319 0.0199725 1e-05
-0.0123062 0.02 1e-05
-0.0122917 0.0200154 1e-05
-0.0122772 0.0200309 1e-05
-0.0122627 0.0200463 1e-05
-0.0122482 0.0200617 1e-05
-0.0122338 0.0200769 1e-05
-0.0121941 0.0201189 1e-05
[...]
POINT_DATA 12140
 FIELD attributes 1
U 3 12140 float
-0.0312549 	-0.277579 	0 -0.0315863 	-0.277555 	0 -0.0319186 	-0.277528 	0 -0.0322502 	-0.277501 	0 -0.0325818 	-0.277472 	0 -0.0329166 	-0.277443 	0 -0.0333529 	-0.277411 	0 -0.0337916 	-0.277377 	0 -0.034229 	-0.277342 	0 -0.0346642 	-0.277305 	0 -0.0351026 	-0.277267 	0 -0.0356258 	-0.277222 	0 -0.0361508 	-0.277175 	0 -0.0366756 	-0.277128 	0 -0.0372003 	-0.27708 	0 -0.0377253 	-0.277029 	0 -0.0379946 	-0.277003 	0 -0.0382655 	-0.276976 	0 -0.0385364 	-0.276948 	0 -0.0388072 	-0.276921 	0 -0.0390609 	-0.276895 	0 -0.0393883 	-0.276861 	0 -0.0397174 	-0.276827 	0 -0.0400463 	-0.276792 	0 -0.0403752 	-0.276757 	0 -0.0407063 	-0.276722 	0 -0.0413625 	-0.276649 	0 -0.0420161 	-0.276574 	0 -0.0426693 	-0.276498 	0 -0.0433223 	-0.27642 	0 -0.0439787 	-0.276341 	0 -0.0446806 	-0.276252 	0 -0.0453833 	-0.276163 	0 -0.0460857 	-0.276071 	0 -0.0467846 	-0.275978 	0 -0.0474866 	-0.275882 	0 -0.048047 	-0.275802 	0 -0.0486082 	-0.275722 	0 -0.0491691 	-0.27564 	0 -0.0497298 	-0.275558 	0 -0.0502284 	-0.275484 	0 -0.0504185 	-0.275456 	0 -0.0506095 	-0.275427 	0 -0.0508004 	-0.275398 	0 -0.0509913 	-0.27537 	0 -0.0511833 	-0.275341 	0 -0.0519539 	-0.27522 	0 -0.0527224 	-0.275096 	0 -0.0534905 	-0.274971 	0 -0.0542584 	-0.274845 	0 -0.0550306 	-0.274717 	0 -0.0558249 	-0.274579 	0 -0.0566194 	-0.27444 	0 -0.0574135 	-0.274299 	0 -0.0582064 	-0.274157 	0 -0.0590016 	-0.274011 	0 -0.0592902 	-0.273956 	0 -0.0595792 	-0.273901 	0 -0.0598681 	-0.273845 	0 -0.060157 	-0.27379 	0 -0.0604324 	-0.273736 	0 -0.0609601 	-0.273634 	0 -0.061488 	-0.273532 	0 -0.0620158 	-0.273429 	0 -0.0625434 	-0.273325 	0 -0.0630735 	-0.27322 	0 -0.0639057 	-0.273049 	0 -0.0647379 	-0.272877 	0 -0.0655684 	-0.272703 	0 -0.0663968 	-0.272527 	0 -0.0672311 	-0.272348 	0 -0.0676923 	-0.272246 	0 -0.0681536 	-0.272143 	0 -0.0686148 	-0.27204 	0 -0.0690759 	-0.271936 	0 -0.0695066 	-0.271838 	0 -0.0698976 	-0.27175 	0 -0.0702889 	-0.271661 	0 -0.07068 	-0.271572 	0 -0.0710711 	-0.271483 	0 -0.0714638 	-0.271393 	0 -0.0723243 	-0.27119 	0 -0.0731846 	-0.270986 	0 -0.074043 	-0.270779 	0 -0.0748999 	-0.270571 	0 -0.0757639 	-0.270359 	0 -0.0761491 	-0.270262 	0 -0.0765344 	-0.270164 	0 -0.0769196 	-0.270066 	0 -0.0773047 	-0.269968 	0 -0.0776709 	-0.269875 	0 -0.0781619 	-0.26975 	0 -0.0786529 	-0.269624 	0 -0.0791437 	-0.269498 	0 -0.0796344 	-0.269371 	0 -0.0801277 	-0.269243 	0 -0.0810124 	-0.269008 	0 -0.0818967 	-0.268772 	0 -0.0827805 	-0.268535 	0 -0.0836637 	-0.268296 	0 -0.0845532 	-0.268051 	0 -0.0846684 	-0.268019 	0 -0.0847837 	-0.267987 	0 -0.0848991 	-0.267954 	0 -0.0850144 	-0.267922 	0 -0.0851283 	-0.26789 	0 -0.0859096 	-0.26767 	0 -0.0866907 	-0.26745 	0 -0.0874713 	-0.267228 	0 -0.0882515 	-0.267006 	0 -0.0890387 	-0.26678 	0 -0.0896447 	-0.266602 	0 -0.0902506 	-0.266424 	0 -0.0908562 	-0.266245 	0 -0.0914616 	-0.266066 	0 -0.0920273 	-0.265897 	0 -0.0923389 	-0.265805 	0 -0.0926506 	-0.265712 	0 -0.0929623 	-0.265619 	0 -0.0932739 	-0.265526 	0 -0.0935868 	-0.265432 	0 -0.0945082 	-0.265151 	0 -0.095429 	-0.264869 	0 -0.0963492 	-0.264586 	0 -0.0972687 	-0.264301 	0 -0.0981978 	-0.26401 	0 -0.0982519 	-0.263993 	0 -0.0983061 	-0.263976 	0 -0.0983603 	-0.263959 	0 -0.0984146 	-0.263942 	0 -0.0984687 	-0.263924 	0 -0.0993484 	-0.263645 	0 -0.100228 	-0.263365 	0 -0.101106 	-0.263083 	0 -0.101984 	-0.2628 	0 -0.102873 	-0.262513 	0 -0.103208 	-0.262403 	0 -0.103542 	-0.262292 	0 -0.103877 	-0.262182 	0 -0.104212 	-0.262071 	0 -0.104536 	-0.261964 	0 -0.105151 	-0.261761 	0 -0.105767 	-0.261557 	0 -0.106382 	-0.261353 	0 -0.106996 	-0.261148 	0 -0.107616 	-0.26094 	0 -0.108154 	-0.260758 	0 -0.108692 	-0.260576 	0 -0.109229 	-0.260393 	0 -0.109766 	-0.260209 	0 -0.110277 	-0.260034 	0 -0.110707 	-0.259887 	0 -0.111138 	-0.25974 	0 -0.111568 	-0.259592 	0 -0.111998 	-0.259445 	0 -0.112431 	-0.259295 	0 -0.113102 	-0.259062 	0 -0.113772 	-0.258828 	0 -0.114442 	-0.258593 	0 -0.115112 	-0.258358 	0 -0.115743 	-0.258135 	0 -0.116058 	-0.258025 	0 -0.116373 	-0.257914 	0 -0.116688 	-0.257803 	0 -0.117002 	-0.257692 	0 -0.117319 	-0.25758 	0 -0.118059 	-0.257316 	0 -0.118798 	-0.257051 	0 -0.119537 	-0.256786 	0 -0.120276 	-0.25652 	0 -0.12097 	-0.256269 	0 -0.121232 	-0.256174 	0 -0.121495 	-0.256079 	0 -0.121757 	-0.255985 	0 -0.12202 	-0.25589 	0 -0.122283 	-0.255794 	0 -0.123033 	-0.255521 	0 -0.123783 	-0.255247 	0 -0.124532 	-0.254972 	0 -0.12528 	-0.254696 	0 -0.125985 	-0.254435 	0 -0.126253 	-0.254337 	0 -0.126522 	-0.254238 	0 -0.12679 	-0.254139 	0 -0.127058 	-0.25404 	0 -0.127327 	-0.25394 	0 -0.128032 	-0.253678 	0 -0.128736 	-0.253415 	0 -0.12944 	-0.253152 	0 -0.130143 	-0.252887 	0 -0.13081 	-0.252636 	0 -0.131138 	-0.252513 	0 -0.131467 	-0.25239 	0 -0.131796 	-0.252266 	0 -0.132124 	-0.252143 	0 -0.132455 	-0.252018 	0 -0.133062 	-0.251788 	0 -0.133669 	-0.251557 	0 -0.134275 	-0.251326 	0 -0.134882 	-0.251095 	0 -0.135462 	-0.250873 	0 -0.135903 	-0.250705 	0 -0.136343 	-0.250537 	0 -0.136784 	-0.250369 	0 -0.137224 	-0.2502 	0 -0.137668 	-0.25003 	0 -0.138129 	-0.249853 	0 -0.13859 	-0.249675 	0 -0.139051 	-0.249497 	0 -0.139511 	-0.249318 	0 -0.139957 	-0.249145 	0 -0.14056 	-0.248913 	0 -0.141162 	-0.248681 	0 -0.141763 	-0.248448 	0 -0.142364 	-0.248215 	0 -0.142973 	-0.247978 	0 -0.143241 	-0.247874 	0 -0.14351 	-0.247769 	0 -0.143778 	-0.247664 	0 -0.144046 	-0.247558 	0 -0.14431 	-0.247455 	0 -0.145121 	-0.24714 	0 -0.145931 	-0.246824 	0 -0.146741 	-0.246507 	0 -0.147549 	-0.24619 	0 -0.148371 	-0.245866 	0 -0.148404 	-0.245853 	0 -0.148436 	-0.245841 	0 -0.148469 	-0.245828 	0 -0.148502 	-0.245815 	0 -0.148534 	-0.245802 	0 -0.149367 	-0.245476 	0 -0.150197 	-0.245148 	0 -0.151027 	-0.244819 	0 -0.151856 	-0.24449 	0 -0.152643 	-0.244176 	0 -0.152887 	-0.24408 	0 -0.153131 	-0.243983 	0 -0.153375 	-0.243886 	0 -0.153619 	-0.243789 	0 -0.153865 	-0.243692 	0 -0.154423 	-0.24347 	0 -0.15498 	-0.243248 	0 -0.155537 	-0.243026 	0 -0.156093 	-0.242804 	0 -0.156632 	-0.242588 	0 -0.157197 	-0.242364 	0 -0.157762 	-0.242139 	0 -0.158326 	-0.241914 	0 -0.15889 	-0.241689 	0 -0.159461 	-0.24146 	0 -0.159672 	-0.241376 	0 -0.159882 	-0.241291 	0 -0.160093 	-0.241206 	0 -0.160304 	-0.241122 	0 -0.160512 	-0.241038 	0 -0.161278 	-0.240734 	0 -0.162043 	-0.240429 	0 -0.162807 	-0.240123 	0 -0.163569 	-0.239815 	0 -0.164299 	-0.23952 	0 -0.164471 	-0.23945 	0 -0.164644 	-0.239381 	0 -0.164816 	-0.239312 	0 -0.164988 	-0.239243 	0 -0.165162 	-0.239173 	0 -0.165732 	-0.238944 	0 -0.166302 	-0.238715 	0 -0.166871 	-0.238485 	0 -0.16744 	-0.238255 	0 -0.167992 	-0.238031 	0 -0.168587 	-0.237793 	0 -0.169181 	-0.237555 	0 -0.169775 	-0.237316 	0 -0.170369 	-0.237077 	0 -0.170971 	-0.236833 	0 -0.171095 	-0.236783 	0 -0.171219 	-0.236733 	0 -0.171343 	-0.236683 	0 -0.171467 	-0.236633 	0 -0.171591 	-0.236583 	0 -0.172304 	-0.236299 	0 -0.173014 	-0.236012 	0 -0.173724 	-0.235725 	0 -0.174432 	-0.235437 	0 -0.175116 	-0.235159 	0 -0.17547 	-0.235016 	0 -0.175825 	-0.234873 	0 -0.176179 	-0.234731 	0 -0.176534 	-0.234588 	0 -0.176891 	-0.234443 	0 -0.177225 	-0.234308 	0 -0.177559 	-0.234173 	0 -0.177892 	-0.234039 	0 -0.178226 	-0.233903 	0 -0.178554 	-0.23377 	0 -0.179234 	-0.233499 	0 -0.179913 	-0.233228 	0 -0.180591 	-0.232956 	0 -0.181266 	-0.232681 	0 -0.18192 	-0.232414 	0 -0.182121 	-0.232333 	0 -0.182322 	-0.232251 	0 -0.182524 	-0.23217 	0 -0.182725 	-0.232089 	0 -0.182928 	-0.232007 	0 -0.183387 	-0.231822 	0 -0.183847 	-0.231637 	0 -0.184306 	-0.231451 	0 -0.184765 	-0.231266 	0 -0.185215 	-0.231084 	0 -0.185865 	-0.230825 	0 -0.186514 	-0.230565 	0 -0.187162 	-0.230306 	0 -0.18781 	-0.230045 	0 -0.188437 	-0.229789 	0 -0.188566 	-0.229737 	0 -0.188695 	-0.229685 	0 -0.188824 	-0.229634 	0 -0.188953 	-0.229582 	0 -0.189082 	-0.229529 	0 -0.189589 	-0.229326 	0 -0.190095 	-0.229123 	0 -0.1906 	-0.22892 	0 -0.191106 	-0.228716 	0 -0.1916 	-0.228516 	0 -0.192223 	-0.228269 	0 -0.192846 	-0.228022 	0 -0.193468 	-0.227774 	0 -0.194089 	-0.227525 	0 -0.194693 	-0.22728 	0 -0.194825 	-0.227227 	0 -0.194958 	-0.227173 	0 -0.195091 	-0.22712 	0 -0.195224 	-0.227067 	0 -0.195358 	-0.227013 	0 -0.195835 	-0.226823 	0 -0.196312 	-0.226633 	0 -0.196788 	-0.226442 	0 -0.197264 	-0.226251 	0 -0.197731 	-0.226064 	0 -0.198331 	-0.225828 	0 -0.19893 	-0.225592 	0 -0.199528 	-0.225355 	0 -0.200125 	-0.225117 	0 -0.200706 	-0.224881 	0 -0.200916 	-0.224798 	0 -0.201126 	-0.224715 	0 -0.201336 	-0.224631 	0 -0.201545 	-0.224548 	0 -0.201757 	-0.224464 	0 -0.202132 	-0.224315 	0 -0.202507 	-0.224166 	0 -0.202883 	-0.224017 	0 -0.203257 	-0.223869 	0 -0.203627 	-0.223721 	0 -0.204205 	-0.223497 	0 -0.204782 	-0.223272 	0 -0.205358 	-0.223044 	0 -0.205932 	-0.222815 	0 -0.206493 	-0.22259 	0 -0.20685 	-0.22245 	0 -0.207207 	-0.222309 	0 -0.207564 	-0.222169 	0 -0.20792 	-0.222029 	0 -0.208281 	-0.221887 	0 -0.208485 	-0.221806 	0 -0.20869 	-0.221726 	0 -0.208895 	-0.221646 	0 -0.209099 	-0.221565 	0 -0.209302 	-0.221485 	0 -0.209861 	-0.221272 	0 -0.210417 	-0.221054 	0 -0.210972 	-0.220835 	0 -0.211526 	-0.220616 	0 -0.212069 	-0.220401 	0 -0.212613 	-0.220191 	0 -0.213157 	-0.219981 	0 -0.2137 	-0.21977 	0 -0.214242 	-0.219559 	0 -0.214773 	-0.219351 	0 -0.214805 	-0.219339 	0 -0.214836 	-0.219326 	0 -0.214868 	-0.219314 	0 -0.2149 	-0.219302 	0 -0.214932 	-0.219289 	0 -0.215437 	-0.219094 	0 -0.215942 	-0.218898 	0 -0.216447 	-0.218702 	0 -0.21695 	-0.218506 	0 -0.217446 	-0.218313 	0 -0.217973 	-0.218113 	0 -0.218499 	-0.217913 	0 -0.219025 	-0.217713 	0 -0.219548 	-0.217507 	0 -0.220062 	-0.217305 	0 -0.22039 	-0.21718 	0 -0.220718 	-0.217054 	0 -0.221046 	-0.216928 	0 -0.221374 	-0.216802 	0 -0.221705 	-0.216675 	0 -0.22189 	-0.216604 	0 -0.222075 	-0.216533 	0 -0.22226 	-0.216463 	0 -0.222445 	-0.216392 	0 -0.222629 	-0.216322 	0 -0.22314 	-0.216132 	0 -0.223649 	-0.215937 	0 -0.224157 	-0.215742 	0 -0.224664 	-0.215547 	0 -0.225163 	-0.215355 	0 -0.225661 	-0.215168 	0 -0.22616 	-0.214981 	0 -0.226657 	-0.214795 	0 -0.227154 	-0.214607 	0 -0.227641 	-0.214417 	0 -0.227833 	-0.214345 	0 -0.228025 	-0.214272 	0 -0.228217 	-0.2142 	0 -0.228409 	-0.214127 	0 -0.228602 	-0.214054 	0 -0.228899 	-0.213942 	0 -0.229196 	-0.213831 	0 -0.229493 	-0.213719 	0 -0.22979 	-0.213607 	0 -0.230084 	-0.213497 	0 -0.230569 	-0.21332 	0 -0.231052 	-0.213141 	0 -0.231534 	-0.212959 	0 -0.232014 	-0.212776 	0 -0.232488 	-0.212596 	0 -0.232961 	-0.212422 	0 -0.233434 	-0.212248 	0 -0.233906 	-0.212074 	0 -0.234378 	-0.2119 	0 -0.234841 	-0.211723 	0 -0.234996 	-0.211665 	0 -0.235152 	-0.211608 	0 -0.235307 	-0.21155 	0 -0.235462 	-0.211492 	0 -0.235618 	-0.211434 	0 -0.235928 	-0.21132 	0 -0.236238 	-0.211206 	0 -0.236548 	-0.211091 	0 -0.236857 	-0.210977 	0 -0.237165 	-0.210863 	0 -0.237626 	-0.2107 	0 -0.238085 	-0.210533 	0 -0.238543 	-0.210363 	0 -0.238999 	-0.210192 	0 -0.239451 	-0.210024 	0 -0.239901 	-0.209862 	0 -0.24035 	-0.2097 	0 -0.240799 	-0.209538 	0 -0.241248 	-0.209376 	0 -0.241688 	-0.209209 	0 -0.241899 	-0.209132 	0 -0.24211 	-0.209056 	0 -0.242322 	-0.208979 	0 -0.242533 	-0.208902 	0 -0.242746 	-0.208824 	0 -0.242975 	-0.208741 	0 -0.243205 	-0.208658 	0 -0.243435 	-0.208575 	0 -0.243665 	-0.208492 	0 -0.243894 	-0.20841 	0 -0.244333 	-0.208258 	0 -0.24477 	-0.2081 	0 -0.245206 	-0.207942 	0 -0.245641 	-0.207783 	0 -0.246071 	-0.207626 	0 -0.2465 	-0.207476 	0 -0.246928 	-0.207326 	0 -0.247356 	-0.207176 	0 -0.247781 	-0.207021 	0 -0.248202 	-0.206865 	0 -0.248556 	-0.20674 	0 -0.24891 	-0.206615 	0 -0.249263 	-0.206489 	0 -0.249617 	-0.206363 	0 -0.249974 	-0.206236 	0 -0.250037 	-0.206214 	0 -0.250101 	-0.206192 	0 -0.250164 	-0.206169 	0 -0.250228 	-0.206147 	0 -0.250292 	-0.206125 	0 -0.250709 	-0.20598 	0 -0.251125 	-0.205833 	0 -0.251541 	-0.205686 	0 -0.251956 	-0.205538 	0 -0.252367 	-0.205392 	0 -0.252776 	-0.205254 	0 -0.253186 	-0.205115 	0 -0.253592 	-0.204972 	0 -0.253997 	-0.204826 	0 -0.254399 	-0.204682 	0 -0.254798 	-0.204545 	0 -0.255197 	-0.204408 	0 -0.255596 	-0.204271 	0 -0.255994 	-0.204134 	0 -0.256387 	-0.203992 	0 -0.256566 	-0.20393 	0 -0.256746 	-0.203867 	0 -0.256926 	-0.203805 	0 -0.257105 	-0.203742 	0 -0.257287 	-0.203679 	0 -0.257499 	-0.203606 	0 -0.257712 	-0.203533 	0 -0.257926 	-0.20346 	0 -0.258138 	-0.203387 	0 -0.258351 	-0.203314 	0 -0.258742 	-0.203187 	0 -0.25913 	-0.203053 	0 -0.259518 	-0.202918 	0 -0.259906 	-0.202784 	0 -0.260291 	-0.20265 	0 -0.260672 	-0.202525 	0 -0.261054 	-0.202399 	0 -0.261434 	-0.202272 	0 -0.261813 	-0.202138 	0 -0.262188 	-0.202006 	0 -0.26256 	-0.201882 	0 -0.262933 	-0.201758 	0 -0.263305 	-0.201633 	0 -0.263677 	-0.201509 	0 -0.264045 	-0.201381 	0 -0.264168 	-0.20134 	0 -0.264292 	-0.201298 	0 -0.264415 	-0.201256 	0 -0.264539 	-0.201214 	0 -0.264664 	-0.201172 	0 -0.264908 	-0.201091 	0 -0.265152 	-0.20101 	0 -0.265397 	-0.200929 	0 -0.265641 	-0.200847 	0 -0.265884 	-0.200767 	0 -0.26625 	-0.200653 	0 -0.266613 	-0.200532 	0 -0.266976 	-0.20041 	0 -0.267338 	-0.200288 	0 -0.267698 	-0.200167 	0 -0.268055 	-0.200054 	0 -0.268411 	-0.199942 	0 -0.268767 	-0.199827 	0 -0.26912 	-0.199706 	0 -0.269472 	-0.199586 	0 -0.26982 	-0.199475 	0 -0.270168 	-0.199364 	0 -0.270516 	-0.199253 	0 -0.270863 	-0.199141 	0 -0.271206 	-0.199025 	0 -0.27138 	-0.198969 	0 -0.271554 	-0.198912 	0 -0.271728 	-0.198856 	0 -0.271902 	-0.1988 	0 -0.272077 	-0.198743 	0 -0.272245 	-0.19869 	0 -0.272414 	-0.198637 	0 -0.272583 	-0.198583 	0 -0.272752 	-0.19853 	0 -0.272921 	-0.198477 	0 -0.273262 	-0.198375 	0 -0.273601 	-0.198267 	0 -0.273941 	-0.198158 	0 -0.27428 	-0.19805 	0 -0.274617 	-0.197943 	0 -0.274951 	-0.197845 	0 -0.275285 	-0.197747 	0 -0.275616 	-0.197642 	0 -0.275947 	-0.197536 	0 -0.276276 	-0.19743 	0 -0.276601 	-0.197334 	0 -0.276927 	-0.197238 	0 -0.277252 	-0.197142 	0 -0.277576 	-0.197042 	0 -0.277898 	-0.196938 	0 -0.278215 	-0.196845 	0 -0.278532 	-0.196751 	0 -0.278849 	-0.196657 	0 -0.279166 	-0.196563 	0 -0.279482 	-0.196469 	0 -0.279484 	-0.196469 	0 -0.279485 	-0.196468 	0 -0.279487 	-0.196468 	0 -0.279489 	-0.196467 	0 -0.279491 	-0.196467 	0 -0.279807 	-0.196377 	0 -0.280123 	-0.196286 	0 -0.280439 	-0.196196 	0 -0.280755 	-0.196105 	0 -0.28107 	-0.196015 	0 -0.281382 	-0.195937 	0 -0.281694 	-0.195852 	0 -0.282004 	-0.195764 	0 -0.282314 	-0.195676 	0 -0.282623 	-0.195588 	0 -0.282927 	-0.195513 	0 -0.283232 	-0.195438 	0 -0.283535 	-0.195359 	0 -0.283838 	-0.195275 	0 -0.284139 	-0.195191 	0 -0.284436 	-0.19512 	0 -0.284733 	-0.195049 	0 -0.28503 	-0.194978 	0 -0.285326 	-0.194906 	0 -0.28562 	-0.194826 	0 -0.285865 	-0.19477 	0 -0.286111 	-0.194713 	0 -0.286356 	-0.194657 	0 -0.286601 	-0.194601 	0 -0.286849 	-0.194545 	0 -0.286893 	-0.194535 	0 -0.286937 	-0.194525 	0 -0.286982 	-0.194515 	0 -0.287026 	-0.194505 	0 -0.287072 	-0.194496 	0 -0.287363 	-0.194438 	0 -0.287654 	-0.194378 	0 -0.287945 	-0.194319 	0 -0.288235 	-0.194259 	0 -0.288525 	-0.1942 	0 -0.28881 	-0.194157 	0 -0.289094 	-0.194109 	0 -0.289378 	-0.194057 	0 -0.289661 	-0.194004 	0 -0.289944 	-0.193952 	0 -0.290221 	-0.193918 	0 -0.290499 	-0.193884 	0 -0.290776 	-0.193845 	0 -0.291052 	-0.193801 	0 -0.291328 	-0.193758 	0 -0.291598 	-0.193733 	0 -0.291869 	-0.193709 	0 -0.292139 	-0.193684 	0 -0.292409 	-0.193658 	0 -0.292678 	-0.193624 	0 -0.292941 	-0.193611 	0 -0.293204 	-0.193598 	0 -0.293468 	-0.193585 	0 -0.293731 	-0.193572 	0 -0.293994 	-0.193559 	0 -0.29401 	-0.193559 	0 -0.294027 	-0.193559 	0 -0.294045 	-0.193559 	0 -0.294062 	-0.19356 	0 -0.294079 	-0.19356 	0 -0.294326 	-0.193562 	0 -0.294574 	-0.193564 	0 -0.294821 	-0.193567 	0 -0.295069 	-0.193569 	0 -0.295317 	-0.193572 	0 -0.295575 	-0.193602 	0 -0.295833 	-0.193621 	0 -0.296092 	-0.19364 	0 -0.29635 	-0.193658 	0 -0.296608 	-0.193678 	0 -0.296859 	-0.193726 	0 -0.297111 	-0.193776 	0 -0.297363 	-0.193815 	0 -0.297614 	-0.193852 	0 -0.297865 	-0.19389 	0 -0.298109 	-0.19396 	0 -0.298354 	-0.194032 	0 -0.298599 	-0.194103 	0 -0.298843 	-0.194165 	0 -0.299088 	-0.194224 	0 -0.299324 	-0.19432 	0 -0.299562 	-0.194416 	0 -0.2998 	-0.194512 	0 -0.300038 	-0.194609 	0 -0.300276 	-0.194697 	0 -0.300425 	-0.194778 	0 -0.300575 	-0.194859 	0 -0.300725 	-0.19494 	0 -0.300874 	-0.195022 	0 -0.301025 	-0.195104 	0 -0.301108 	-0.195148 	0 -0.301193 	-0.195193 	0 -0.301277 	-0.195238 	0 -0.301361 	-0.195282 	0 -0.301447 	-0.195328 	0 -0.301679 	-0.195494 	0 -0.301912 	-0.195655 	0 -0.302145 	-0.195816 	0 -0.302379 	-0.195977 	0 -0.302613 	-0.196139 	0 -0.302839 	-0.196352 	0 -0.303066 	-0.196557 	0 -0.303294 	-0.196756 	0 -0.303521 	-0.196955 	0 -0.30375 	-0.197155 	0 -0.30397 	-0.197411 	0 -0.304191 	-0.197669 	0 -0.304413 	-0.197917 	0 -0.304634 	-0.198159 	0 -0.304858 	-0.198402 	0 -0.305072 	-0.198707 	0 -0.305288 	-0.199013 	0 -0.305504 	-0.199319 	0 -0.30572 	-0.199617 	0 -0.305939 	-0.199908 	0 -0.306147 	-0.200268 	0 -0.306357 	-0.200629 	0 -0.306568 	-0.20099 	0 -0.306778 	-0.20135 	0 -0.306991 	-0.201705 	0 -0.307094 	-0.201916 	0 -0.307197 	-0.20213 	0 -0.307301 	-0.202343 	0 -0.307405 	-0.202556 	0 -0.307509 	-0.20277 	0 -0.307615 	-0.202979 	0 -0.307721 	-0.20319 	0 -0.307828 	-0.203402 	0 -0.307935 	-0.203613 	0 -0.308044 	-0.203826 	0 -0.308251 	-0.204329 	0 -0.308461 	-0.204823 	0 -0.308671 	-0.205317 	0 -0.308882 	-0.205811 	0 -0.309095 	-0.20631 	0 -0.309297 	-0.206899 	0 -0.309501 	-0.20748 	0 -0.309706 	-0.208049 	0 -0.309912 	-0.208617 	0 -0.310121 	-0.209192 	0 -0.310317 	-0.209865 	0 -0.310515 	-0.210541 	0 -0.310714 	-0.211205 	0 -0.310915 	-0.211855 	0 -0.311119 	-0.212514 	0 -0.311309 	-0.213278 	0 -0.311501 	-0.214045 	0 -0.311693 	-0.214811 	0 -0.311888 	-0.215566 	0 -0.312087 	-0.216315 	0 -0.312271 	-0.217179 	0 -0.312457 	-0.218044 	0 -0.312644 	-0.21891 	0 -0.312832 	-0.219774 	0 -0.313025 	-0.22064 	0 -0.313094 	-0.221015 	0 -0.313164 	-0.221394 	0 -0.313234 	-0.221772 	0 -0.313304 	-0.222151 	0 -0.313375 	-0.22253 	0 -0.313491 	-0.223127 	0 -0.313609 	-0.223729 	0 -0.313727 	-0.22433 	0 -0.313845 	-0.22493 	0 -0.313966 	-0.225539 	0 -0.314146 	-0.226655 	0 -0.314331 	-0.227753 	0 -0.314517 	-0.228849 	0 -0.314704 	-0.229944 	0 -0.314896 	-0.231058 	0 -0.315068 	-0.232312 	0 -0.315244 	-0.233558 	0 -0.315424 	-0.234777 	0 -0.315606 	-0.235995 	0 -0.315792 	-0.237237 	0 -0.315959 	-0.238624 	0 -0.316128 	-0.240013 	0 -0.316299 	-0.241394 	0 -0.316475 	-0.242742 	0 -0.316658 	-0.244119 	0 -0.316818 	-0.245647 	0 -0.316981 	-0.247177 	0 -0.317146 	-0.248705 	0 -0.317313 	-0.250228 	0 -0.317491 	-0.251748 	0 -0.317636 	-0.253328 	0 -0.317785 	-0.25491 	0 -0.317935 	-0.25649 	0 -0.318086 	-0.258066 	0 -0.318235 	-0.259591 	0 -0.318246 	-0.259705 	0 -0.318258 	-0.25982 	0 -0.31827 	-0.259934 	0 -0.318281 	-0.260049 	0 -0.318295 	-0.26017 	0 -0.318454 	-0.262022 	0 -0.318617 	-0.263873 	0 -0.318782 	-0.265719 	0 -0.318948 	-0.267562 	0 -0.319122 	-0.269456 	0 -0.319269 	-0.271518 	0 -0.319425 	-0.273545 	0 -0.319585 	-0.275553 	0 -0.319747 	-0.277556 	0 -0.319916 	-0.27962 	0 -0.320058 	-0.281853 	0 -0.320202 	-0.284087 	0 -0.320353 	-0.28629 	0 -0.32051 	-0.288459 	0 -0.320676 	-0.2907 	0 -0.320811 	-0.293108 	0 -0.32095 	-0.295517 	0 -0.321091 	-0.297919 	0 -0.321236 	-0.300305 	0 -0.321397 	-0.302728 	0 -0.32151 	-0.304988 	0 -0.321625 	-0.307249 	0 -0.321743 	-0.309504 	0 -0.321863 	-0.311753 	0 -0.321981 	-0.313921 	0 -0.322002 	-0.314282 	0 -0.322023 	-0.314644 	0 -0.322045 	-0.315009 	0 -0.322067 	-0.315374 	0 -0.32209 	-0.315747 	0 -0.322223 	-0.318563 	0 -0.322362 	-0.321364 	0 -0.322504 	-0.324156 	0 -0.322649 	-0.326939 	0 -0.322804 	-0.329836 	0 -0.322922 	-0.332897 	0 -0.323048 	-0.33593 	0 -0.323185 	-0.338908 	0 -0.323324 	-0.341876 	0 -0.323474 	-0.344975 	0 -0.323585 	-0.34823 	0 -0.3237 	-0.35148 	0 -0.323819 	-0.354718 	0 -0.323951 	-0.357885 	0 -0.324095 	-0.361189 	0 -0.324199 	-0.364639 	0 -0.324308 	-0.368083 	0 -0.32442 	-0.371513 	0 -0.324535 	-0.374929 	0 -0.324663 	-0.378499 	0 -0.324674 	-0.378938 	0 -0.324686 	-0.379385 	0 -0.3246