/*--------------------------------*- C++ -*----------------------------------*\
  =========                 |
  \\      /  F ield         | OpenFOAM: The Open Source CFD Toolbox
   \\    /   O peration     | Website:  https://openfoam.org
    \\  /    A nd           | Version:  6
     \\/     M anipulation  |
\*---------------------------------------------------------------------------*/
FoamFile
{
    version     2.0;
    format      ascii;
    class       volScalarField;
    location    "9";
    object      epsilon;
}
// * * * * * * * * * * * * * * * * * * * * * * * * * * * * * * * * * * * * * //

dimensions      [0 2 -3 0 0 0 0];

internalField   nonuniform List<scalar> 
130000
(
16.4349
16.3562
16.1879
15.9444
15.641
15.2971
14.9337
14.5705
14.2241
13.9072
13.6279
13.3902
13.1948
13.0398
12.9217
12.8359
12.7777
12.7426
12.7266
12.7263
16.4591
16.3841
16.2172
15.9728
15.6672
15.3205
14.954
14.588
14.2393
13.9205
13.6399
13.4015
13.2059
13.0509
12.933
12.8475
12.7897
12.7551
12.7395
12.7397
16.477
16.4045
16.2385
15.9936
15.6862
15.3368
14.9675
14.5987
14.2476
13.9267
13.6446
13.4051
13.2087
13.0533
12.9349
12.8492
12.7914
12.7568
12.7416
12.7422
16.4892
16.4176
16.2513
16.0047
15.6948
15.3432
14.972
14.6015
14.249
13.9269
13.6438
13.4036
13.2066
13.0507
12.932
12.8461
12.7883
12.7541
12.7398
12.7409
16.4968
16.4245
16.2562
16.0076
15.6957
15.3426
14.9702
14.5989
14.2458
13.9237
13.6407
13.4005
13.2036
13.0478
12.9294
12.8438
12.7863
12.7527
12.7388
12.7403
16.5011
16.427
16.2562
16.0057
15.6927
15.3385
14.9652
14.5934
14.2402
13.9183
13.6356
13.3959
13.1996
13.0444
12.9267
12.8418
12.785
12.7518
12.7382
12.7399
16.504
16.4274
16.2544
16.0019
15.6873
15.3319
14.9579
14.5859
14.2328
13.9114
13.6294
13.3905
13.1951
13.0409
12.9243
12.8408
12.785
12.7525
12.7392
12.7403
16.5062
16.4271
16.2517
15.997
15.6806
15.324
14.9493
14.5771
14.2244
13.9036
13.6224
13.3846
13.1902
13.0372
12.9216
12.8392
12.7845
12.7519
12.7382
12.74
16.5086
16.4273
16.2492
15.992
15.6737
15.3157
14.9404
14.5681
14.2157
13.8955
13.6153
13.3785
13.1853
13.0332
12.9185
12.8365
12.7824
12.7505
12.7372
12.7391
16.5113
16.4273
16.2468
15.9873
15.6671
15.3077
14.9316
14.5591
14.207
13.8876
13.6083
13.3726
13.1804
13.0294
12.9156
12.8341
12.7801
12.7494
12.7363
12.7379
16.5148
16.428
16.2453
15.9834
15.6611
15.3003
14.9233
14.5505
14.1987
13.8799
13.6016
13.3669
13.1759
13.0258
12.9128
12.832
12.7783
12.7474
12.7349
12.7378
16.5194
16.4301
16.245
15.9804
15.6558
15.2934
14.9155
14.5424
14.1908
13.8727
13.5952
13.3617
13.1717
13.0228
12.9108
12.8308
12.7775
12.7469
12.7346
12.7379
16.5245
16.4329
16.2451
15.9781
15.6513
15.2872
14.9083
14.5349
14.1835
13.8659
13.5893
13.3568
13.168
13.0205
12.9098
12.8306
12.7777
12.747
12.7343
12.7374
16.5306
16.4365
16.2458
15.9768
15.6477
15.2818
14.9018
14.5279
14.1766
13.8595
13.5838
13.3524
13.1647
13.0184
12.909
12.8305
12.7777
12.7473
12.7345
12.737
16.5372
16.4408
16.2475
15.9759
15.6444
15.2769
14.8958
14.5214
14.1702
13.8536
13.5787
13.3482
13.1616
13.016
12.9072
12.8294
12.7769
12.7467
12.7342
12.7369
16.5442
16.4455
16.2496
15.9752
15.642
15.2728
14.8905
14.5156
14.1643
13.8482
13.5741
13.3446
13.159
13.0146
12.906
12.8283
12.7764
12.7458
12.7335
12.7364
16.5519
16.4512
16.2528
15.976
15.6409
15.2697
14.8861
14.5104
14.159
13.8433
13.5698
13.3412
13.1569
13.0139
12.9061
12.8285
12.7774
12.7483
12.7369
12.7399
16.561
16.4583
16.2573
15.9779
15.6406
15.2676
14.8825
14.5061
14.1544
13.8388
13.5659
13.3381
13.1546
13.0126
12.9064
12.8308
12.7811
12.7531
12.7424
12.7458
16.5721
16.467
16.2633
15.981
15.641
15.2666
14.8799
14.5025
14.1504
13.8348
13.5622
13.335
13.152
13.0104
12.9055
12.831
12.782
12.7548
12.745
12.7489
16.5844
16.4771
16.2707
15.9855
15.6428
15.2662
14.8781
14.4996
14.1469
13.8313
13.5589
13.3319
13.1493
13.0079
12.9028
12.8285
12.7798
12.7532
12.7444
12.7487
16.5979
16.4885
16.2793
15.9911
15.6455
15.2664
14.8772
14.4975
14.1441
13.8282
13.556
13.3293
13.1471
13.0059
12.9008
12.8268
12.7787
12.7522
12.743
12.7474
16.6127
16.5012
16.2892
15.998
15.6495
15.268
14.8769
14.496
14.1419
13.8257
13.5535
13.3272
13.1456
13.0051
12.9008
12.8271
12.7792
12.7524
12.7424
12.7463
16.6291
16.5154
16.3005
16.0061
15.6546
15.2703
14.877
14.4953
14.1401
13.8235
13.5513
13.3255
13.1445
13.0047
12.9004
12.8267
12.7787
12.7521
12.7421
12.7459
16.6466
16.5306
16.3128
16.0153
15.6606
15.2736
14.878
14.4947
14.1387
13.8217
13.5495
13.3238
13.1434
13.0042
12.8995
12.8257
12.778
12.7518
12.7422
12.7466
16.6652
16.5471
16.3263
16.0255
15.6676
15.2776
14.8797
14.4946
14.138
13.8203
13.5479
13.3225
13.1424
13.0041
12.9003
12.8272
12.7802
12.7546
12.7456
12.7504
16.6852
16.565
16.3412
16.0369
15.6756
15.2826
14.8823
14.4953
14.1379
13.8192
13.5465
13.3212
13.1416
13.004
12.9015
12.8298
12.784
12.7592
12.7505
12.7553
16.7072
16.5846
16.3575
16.0495
15.6847
15.2885
14.8854
14.4965
14.1377
13.8182
13.5451
13.3197
13.1402
13.0027
12.901
12.8303
12.7852
12.7612
12.7524
12.7567
16.7304
16.6054
16.3749
16.0632
15.6946
15.2949
14.8891
14.4979
14.1374
13.8173
13.5437
13.318
13.1383
13.0003
12.8989
12.8285
12.784
12.7609
12.7521
12.7564
16.7548
16.6275
16.3935
16.0779
15.7053
15.3022
14.8933
14.4997
14.1373
13.8168
13.5427
13.3169
13.1376
13
12.899
12.8288
12.7843
12.7604
12.7519
12.7565
16.7804
16.6506
16.4132
16.0936
15.717
15.3102
14.8982
14.5022
14.1381
13.8164
13.5421
13.3165
13.1375
12.9998
12.8986
12.8285
12.7841
12.7602
12.7522
12.7573
16.8071
16.6751
16.4341
16.1104
15.7297
15.3192
14.904
14.5055
14.1398
13.8173
13.5426
13.3167
13.1375
12.9996
12.8986
12.8285
12.7842
12.7608
12.7529
12.7584
16.8352
16.7009
16.4563
16.1285
15.7436
15.3291
14.9106
14.5094
14.1418
13.818
13.5426
13.3167
13.1375
13.0002
12.8994
12.8293
12.7842
12.7597
12.7517
12.7574
16.8648
16.7282
16.48
16.1479
15.7587
15.3401
14.9181
14.5141
14.1441
13.8184
13.5421
13.3158
13.1361
12.9987
12.8979
12.8281
12.7838
12.7604
12.7527
12.7584
16.8959
16.7572
16.5054
16.1689
15.7751
15.3524
14.9267
14.5197
14.1475
13.8201
13.5426
13.3153
13.1354
12.9977
12.8967
12.8271
12.7837
12.7604
12.7527
12.758
16.9289
16.788
16.5325
16.1915
15.793
15.3659
14.9364
14.5263
14.1518
13.8228
13.5443
13.3165
13.1365
12.9987
12.8978
12.8281
12.7841
12.7608
12.753
12.7582
16.9638
16.8208
16.5615
16.2158
15.8124
15.3807
14.9471
14.5338
14.1567
13.826
13.5462
13.3177
13.1376
13.0007
12.9005
12.8312
12.788
12.7657
12.7582
12.7636
17.001
16.8558
16.5926
16.242
15.8335
15.3969
14.9591
14.5422
14.1623
13.8296
13.5486
13.3196
13.1397
13.0033
12.9034
12.8346
12.7916
12.7695
12.7615
12.7669
17.0404
16.8932
16.626
16.2703
15.8565
15.4147
14.9724
14.5517
14.1688
13.8339
13.5513
13.3213
13.141
13.0036
12.9038
12.8356
12.7931
12.771
12.7631
12.7687
17.0824
16.9333
16.6619
16.3011
15.8817
15.4345
14.9873
14.5626
14.1765
13.839
13.5545
13.323
13.1414
13.0036
12.9039
12.8358
12.7939
12.7718
12.7646
12.7702
17.1273
16.9763
16.7008
16.3345
15.9093
15.4565
15.0042
14.5751
14.1856
13.8454
13.5587
13.3256
13.1425
13.0044
12.9041
12.8355
12.7928
12.7704
12.763
12.7685
17.1753
17.0225
16.7427
16.3709
15.9396
15.4809
15.0233
14.5897
14.1965
13.8534
13.5647
13.3298
13.1453
13.0057
12.9046
12.8355
12.7924
12.7699
12.7624
12.7677
17.2267
17.0722
16.7882
16.4105
15.9729
15.508
15.0448
14.6065
14.2095
13.8635
13.5726
13.3362
13.1507
13.0104
12.9089
12.8395
12.7963
12.7737
12.7661
12.771
17.2819
17.1258
16.8373
16.4537
16.0094
15.538
15.069
14.6257
14.2246
13.8756
13.5824
13.3445
13.158
13.0171
12.9153
12.8458
12.8025
12.7797
12.7718
12.7764
17.3411
17.1835
16.8906
16.5007
16.0494
15.5712
15.096
14.6474
14.2421
13.8897
13.5942
13.3546
13.167
13.0255
12.9233
12.8536
12.8101
12.7872
12.7791
12.7833
17.4047
17.2458
16.9482
16.5517
16.0932
15.6078
15.126
14.6718
14.2619
13.906
13.6079
13.3665
13.1777
13.0355
12.9328
12.8628
12.8192
12.796
12.7877
12.7914
17.4729
17.3128
17.0105
16.6073
16.1411
15.6481
15.1593
14.699
14.2842
13.9246
13.6236
13.3802
13.1901
13.047
12.9438
12.8735
12.8296
12.8062
12.7975
12.8009
17.5462
17.3852
17.0781
16.6678
16.1936
15.6925
15.1962
14.7296
14.3095
13.9457
13.6416
13.396
13.2044
13.0603
12.9565
12.8858
12.8415
12.8178
12.8088
12.8116
17.6252
17.4636
17.1516
16.7339
16.2511
15.7414
15.2372
14.7637
14.3379
13.9696
13.6621
13.4141
13.2208
13.0756
12.9711
12.8998
12.8552
12.831
12.8216
12.8238
17.7106
17.5486
17.2316
16.8062
16.3144
15.7955
15.2828
14.8018
14.3699
13.9967
13.6855
13.4348
13.2396
13.0931
12.9877
12.9159
12.8707
12.8461
12.8362
12.8377
17.8034
17.6412
17.3191
16.8854
16.384
15.8554
15.3335
14.8445
14.4059
14.0274
13.7121
13.4584
13.2611
13.1132
13.0068
12.9343
12.8885
12.8634
12.8528
12.8536
17.9044
17.7422
17.4147
16.9723
16.4607
15.9216
15.3899
14.8923
14.4464
14.0621
13.7424
13.4854
13.2858
13.1362
13.0287
12.9553
12.9089
12.8831
12.8719
12.8718
18.0143
17.8524
17.5193
17.0677
16.5452
15.9949
15.4526
14.9456
14.4919
14.1013
13.7768
13.5162
13.3139
13.1626
13.0538
12.9795
12.9322
12.9056
12.8937
12.8926
18.1337
17.9724
17.6336
17.1723
16.6382
16.0759
15.5224
15.0053
14.5431
14.1457
13.8159
13.5513
13.3462
13.1928
13.0826
13.0072
12.959
12.9315
12.9187
12.9164
18.2633
18.1033
17.7586
17.2872
16.7408
16.1657
15.6
15.0721
14.6008
14.1959
13.8603
13.5914
13.3832
13.2275
13.1157
13.0391
12.9899
12.9614
12.9475
12.944
18.4045
18.2463
17.8958
17.4137
16.8542
16.2654
15.6866
15.147
14.6658
14.2529
13.911
13.6374
13.4256
13.2675
13.1538
13.0759
13.0255
12.9959
12.9809
12.976
18.5585
18.403
18.0465
17.5532
16.9797
16.3763
15.7834
15.2312
14.7393
14.3176
13.9689
13.69
13.4744
13.3135
13.1978
13.1183
13.0666
13.0357
13.0195
13.013
18.7272
18.575
18.2127
17.7075
17.1191
16.4999
15.8919
15.3261
14.8225
14.3914
14.0351
13.7505
13.5307
13.3667
13.2487
13.1675
13.1142
13.0818
13.0641
13.0558
18.9121
18.7644
18.3961
17.8785
17.2743
16.6382
16.0139
15.4334
14.9171
14.4756
14.1111
13.8203
13.5958
13.4283
13.3078
13.2245
13.1694
13.135
13.1152
13.1047
19.1156
18.9735
18.5994
18.0687
17.4476
16.7933
16.1514
15.5549
15.0249
14.572
14.1986
13.9009
13.6712
13.4999
13.3765
13.2909
13.2337
13.1971
13.1747
13.1614
19.3399
19.2049
18.8253
18.2808
17.6417
16.9679
16.3069
15.693
15.1481
14.6829
14.2997
13.9944
13.759
13.5834
13.4568
13.3685
13.309
13.27
13.2448
13.2283
19.588
19.4618
19.077
18.5182
17.8598
17.165
16.4834
15.8508
15.2896
14.8109
14.4169
14.1033
13.8616
13.6813
13.5511
13.4598
13.3976
13.3558
13.3274
13.3073
19.8632
19.748
19.3584
18.7847
18.1059
17.3885
16.6846
16.0316
15.4527
14.9593
14.5535
14.2307
13.982
13.7965
13.6621
13.5675
13.5021
13.4571
13.4251
13.4007
20.1694
20.0679
19.6744
19.0853
18.3847
17.6429
16.915
16.2398
15.6416
15.1321
14.7134
14.3804
14.124
13.9326
13.7936
13.6951
13.6262
13.5773
13.541
13.5115
20.5115
20.427
20.0307
19.4257
18.702
17.9341
17.1802
16.4809
15.8616
15.3344
14.9015
14.5574
14.2924
14.0943
13.9501
13.8472
13.774
13.7207
13.6792
13.6434
20.895
20.8317
20.4341
19.8131
19.065
18.2692
17.4871
16.7616
16.1193
15.5729
15.1242
14.7678
14.4932
14.2877
14.1375
14.0294
13.9512
13.8925
13.8448
13.8015
21.327
21.2899
20.8933
20.2564
19.4827
18.657
17.8445
17.0906
16.4233
15.8557
15.3898
15.0197
14.7344
14.5204
14.3634
14.2491
14.1649
14.0997
14.0443
13.9918
21.8157
21.8114
21.4189
20.7666
19.9664
19.109
18.2639
17.4792
16.7845
16.1937
15.7088
15.3235
15.0263
14.8027
14.6376
14.5161
14.4246
14.3513
14.2865
14.2227
22.372
22.4071
22.0238
21.3578
20.5305
19.6397
18.7597
17.9418
17.2174
16.6013
16.0955
15.6933
15.3826
15.148
14.9735
14.8432
14.7428
14.6594
14.5828
14.5047
23.0101
23.0942
22.7257
22.0482
21.1939
20.2683
19.3513
18.4978
17.7413
17.0975
16.5687
16.1478
15.8218
15.5745
15.3888
15.2478
15.1361
15.0401
14.9484
14.8521
23.746
23.8922
23.5467
22.8616
21.9813
21.0202
20.0644
19.1731
18.3821
17.7084
17.1544
16.7126
16.3693
16.1071
15.908
15.7537
15.6276
15.5152
15.4041
15.2844
24.6007
24.8265
24.5157
23.8293
22.9256
21.9293
20.9338
20.0029
19.1755
18.4697
17.8883
17.4234
17.0604
16.7808
16.5651
16.3939
16.2494
16.1154
15.9787
15.8282
25.6017
25.9304
25.6707
24.9925
24.0707
23.0416
22.0068
21.0358
20.1706
19.431
18.8203
18.33
17.9446
17.6443
17.4082
17.2153
17.0463
16.8837
16.7128
16.5212
26.7845
27.2476
27.0621
26.4069
25.476
24.4194
23.3482
22.3383
21.4355
20.6616
20.0202
19.5025
19.0919
18.7671
18.5055
18.2844
18.0828
17.8816
17.6642
17.4169
28.1962
28.8362
28.7573
28.1471
27.2219
26.1477
25.0469
24.0024
23.0649
22.258
21.5862
21.0399
20.6013
20.2475
19.9541
19.6963
19.4509
19.1969
18.916
18.5924
29.8986
30.7729
30.8458
30.3128
29.4166
28.3417
27.2238
26.1543
25.1889
24.3538
23.6543
23.08
22.6117
22.2244
21.8915
21.5858
21.2817
20.9559
20.5875
20.1585
31.9733
33.1599
33.4443
33.0356
32.2039
31.1555
30.0415
28.9636
27.9836
27.1305
26.4104
25.812
25.3143
24.8898
24.5091
24.142
23.7602
23.3371
22.8488
22.2742
34.5258
36.1405
36.6921
36.487
35.773
34.7915
33.7137
32.6537
31.6808
30.8275
30.1005
29.4874
28.9648
28.502
28.066
27.6231
27.1408
26.5885
25.9382
25.1639
37.699
39.9041
40.8328
40.9032
40.3706
39.5094
38.5124
37.5083
36.5749
35.7488
35.0375
34.4271
33.891
33.3945
32.8998
32.368
31.7614
31.0434
30.1795
29.1368
41.6767
44.6645
46.101
46.5544
46.2943
45.6261
44.7695
43.8717
43.0215
42.2608
41.5985
41.0185
40.4906
39.9745
39.4263
38.7998
38.0494
37.1296
35.9958
34.6036
46.69
50.7127
52.8245
53.7512
53.9021
53.5178
52.8732
52.1418
51.4276
50.78
50.21
49.7
49.2148
48.7076
48.1261
47.4139
46.5138
45.3663
43.9109
42.0848
53.02
58.3934
61.4582
62.9962
63.6369
63.6173
63.2557
62.7531
62.2313
61.7496
61.3232
60.9333
60.54
60.0883
59.5151
58.7502
57.7193
56.3425
54.5345
52.2028
61.0174
68.1014
72.3719
74.6874
75.9284
76.3682
76.3652
76.1529
75.8773
75.6135
75.3845
75.1729
74.9345
74.605
74.1081
73.3558
72.2507
70.6835
68.5321
65.6582
71.1004
80.2906
86.04
89.3575
91.1982
92.2262
92.6557
92.7836
92.7947
92.7907
92.8091
92.8375
92.8285
92.7073
92.3832
91.7485
90.6757
89.0141
86.5897
83.1977
83.734
95.492
103.023
107.54
110.12
111.653
112.578
113.061
113.368
113.643
113.947
114.276
114.581
114.769
114.739
114.375
113.507
111.924
109.382
105.585
99.4248
114.239
123.835
129.728
133.199
135.245
136.549
137.322
137.877
138.41
139.015
139.7
140.422
141.019
141.396
141.526
141.139
139.919
137.531
133.565
118.708
137.069
148.998
156.358
160.726
163.219
164.714
165.693
166.383
167.115
168.022
169.139
170.417
171.731
172.901
173.641
173.793
173.296
171.511
167.792
142.132
164.523
179.009
187.854
192.975
195.743
197.228
198.054
198.592
199.287
200.321
201.844
203.81
206.08
208.402
210.436
211.75
212.116
211.407
208.633
170.216
197.068
214.214
224.375
229.879
232.462
233.437
233.538
233.368
233.515
234.344
236.101
238.787
242.241
246.177
250.181
253.709
256.108
256.909
255.853
203.466
235.084
254.762
265.733
270.919
272.526
271.959
270.234
268.381
267.161
267.13
268.673
271.911
276.679
282.685
289.453
296.321
302.442
306.751
308.321
242.37
278.798
300.417
311.127
314.715
313.726
309.784
304.617
299.574
295.748
293.82
294.345
297.648
303.681
312.111
322.416
333.92
345.577
355.983
363.456
287.452
328.236
350.352
358.861
358.559
352.199
342.351
331.378
320.896
312.213
306.592
304.928
307.517
314.511
325.644
340.518
358.152
377.344
396.505
413.693
339.386
383.061
403.032
406.275
397.94
382.201
362.579
342.455
325.37
311.867
302.878
298.985
300.457
307.445
319.923
337.703
360.283
386.7
417.527
448.647
399.32
442.27
455.442
447.507
425.053
394.44
363.233
333.536
307.22
286.565
272.272
264.669
263.888
269.846
283.041
303.806
332.519
369.538
411.734
457.339
469.365
504.424
502.291
473.023
429.693
381.776
334.095
291.859
257.102
230.57
212.221
201.725
198.834
203.04
215.27
236.519
268.209
312.081
368.928
437.906
554.25
567.222
531.194
468.807
396.487
326.587
265.706
216.458
179.03
152.269
134.519
124.309
120.714
123.21
132.579
150.809
180.765
226.73
294.089
386.843
661.321
616.211
520.89
409.945
307.813
225.675
164.785
121.75
93.0558
75.0546
64.2879
58.4589
56.4281
57.8601
63.945
77.2182
101.713
143.997
217.089
341.963
759.094
598.378
417.301
268.301
163.483
101.143
66.4925
48.1507
38.8844
33.5898
30.5091
28.9965
28.8255
29.9735
32.8951
39.3798
53.3856
84.7589
159.884
349.35
684.227
369.512
180.722
89.1704
52.124
35.8945
27.5766
23.1643
20.7778
19.4732
18.8147
18.6201
18.8954
19.8334
22.0457
26.6708
37.3922
65.9014
154.552
434.953
237.557
110.225
51.9174
30.621
22.5218
19.1239
17.5004
16.5755
16.0421
15.7579
15.6472
15.6491
15.7595
16.0409
16.7458
18.6869
24.4248
43.7552
126.903
520.993
82.8621
27.4555
19.4116
17.0787
15.9644
15.3979
15.1212
14.9971
14.9449
14.9251
14.9267
14.9457
14.9871
15.0459
15.1083
15.1147
15.1731
17.1864
37.2645
232.463
13.0604
13.0308
12.9883
12.9421
12.894
12.846
12.8004
12.7598
12.7262
12.7009
12.685
12.6785
12.6812
12.6925
12.7112
12.7356
12.7639
12.7948
12.8271
12.86
13.08
13.0484
13.0041
12.9553
12.9065
12.8573
12.8102
12.7686
12.7346
12.7093
12.6932
12.6865
12.689
12.7003
12.7197
12.7442
12.7725
12.8034
12.8355
12.8675
13.0889
13.0554
13.0096
12.9597
12.9098
12.8592
12.8121
12.7705
12.7364
12.7111
12.695
12.6879
12.6893
12.7001
12.7188
12.7428
12.7709
12.8019
12.8347
12.8669
13.0902
13.0556
13.0096
12.9604
12.9098
12.86
12.8138
12.7715
12.7369
12.7115
12.6962
12.689
12.6895
12.7
12.7185
12.7428
12.7711
12.8018
12.8338
12.8663
13.09
13.0559
13.0101
12.9611
12.9108
12.8621
12.815
12.7725
12.7379
12.7122
12.6965
12.6883
12.6891
12.6998
12.7194
12.7442
12.7732
12.8038
12.8341
12.8663
13.0919
13.0579
13.012
12.9625
12.9114
12.8614
12.8155
12.7743
12.74
12.714
12.697
12.6887
12.6909
12.7016
12.7201
12.7445
12.7735
12.8038
12.8343
12.8662
13.0936
13.0601
13.0141
12.9641
12.9118
12.8601
12.8137
12.7723
12.7382
12.7132
12.6967
12.689
12.6911
12.7029
12.7218
12.7458
12.7734
12.8022
12.8323
12.8636
13.0954
13.0618
13.0159
12.9659
12.9135
12.8615
12.8137
12.7718
12.7376
12.713
12.6966
12.6887
12.6913
12.7029
12.7206
12.7443
12.7723
12.8018
12.8337
12.8654
13.0942
13.061
13.0149
12.9645
12.9118
12.8606
12.8132
12.7714
12.737
12.7113
12.6951
12.6886
12.6918
12.7027
12.7196
12.7435
12.772
12.8019
12.8333
12.8657
13.0919
13.0593
13.0118
12.9606
12.9071
12.8563
12.8097
12.7686
12.7345
12.7093
12.6935
12.687
12.6896
12.7004
12.719
12.7433
12.7718
12.8021
12.8344
12.8675
13.0929
13.0584
13.009
12.9577
12.9058
12.8558
12.8102
12.7692
12.7354
12.7104
12.6947
12.688
12.6892
12.7001
12.7189
12.7434
12.772
12.8029
12.8353
12.8687
13.0929
13.0574
13.0097
12.9593
12.9076
12.8572
12.8106
12.7686
12.7348
12.7099
12.694
12.6867
12.6888
12.6998
12.7183
12.7424
12.7704
12.7999
12.8322
12.8659
13.0895
13.0559
13.0101
12.9598
12.9077
12.8564
12.8093
12.7676
12.7341
12.7082
12.6919
12.6846
12.6869
12.698
12.7166
12.7411
12.7699
12.8013
12.8343
12.8681
13.0891
13.0558
13.0082
12.9572
12.9048
12.8535
12.8075
12.7681
12.7342
12.7075
12.6912
12.6842
12.6864
12.6976
12.7165
12.7413
12.7703
12.8019
12.8349
12.8687
13.0887
13.0544
13.0067
12.956
12.9034
12.853
12.8068
12.767
12.7331
12.7075
12.6911
12.6833
12.6861
12.6983
12.7178
12.7431
12.7723
12.8036
12.8359
12.8688
13.0898
13.0544
13.0071
12.9569
12.9053
12.8561
12.8101
12.7691
12.7351
12.7098
12.6942
12.6884
12.6926
12.7063
12.7267
12.7523
12.7812
12.812
12.8434
12.8751
13.0901
13.0541
13.0065
12.9582
12.9105
12.8631
12.8177
12.7767
12.7419
12.7147
12.6979
12.6918
12.6961
12.7106
12.7313
12.7568
12.7853
12.8154
12.8454
12.8765
13.0893
13.0542
13.0082
12.9607
12.9138
12.8661
12.821
12.7805
12.7455
12.7168
12.6996
12.693
12.6966
12.7102
12.7301
12.7551
12.7832
12.8128
12.8418
12.8727
13.0935
13.0578
13.0112
12.9629
12.9151
12.8668
12.8213
12.7802
12.7459
12.7196
12.7039
12.6979
12.7009
12.7124
12.7312
12.756
12.784
12.8131
12.8419
12.8722
13.0995
13.0633
13.0159
12.9664
12.9172
12.8682
12.822
12.7806
12.7483
12.726
12.7128
12.7079
12.7109
12.7217
12.7392
12.7621
12.7876
12.8151
12.8431
12.8732
13.1075
13.0708
13.0232
12.9731
12.9222
12.8729
12.8268
12.7859
12.7529
12.7305
12.7182
12.7135
12.7163
12.7267
12.7432
12.7645
12.7886
12.8165
12.8461
12.8767
13.1126
13.0777
13.0308
12.9805
12.9291
12.8789
12.8322
12.7905
12.7556
12.7315
12.7183
12.713
12.7154
12.7254
12.7415
12.7627
12.7881
12.8165
12.8465
12.8774
13.1138
13.0806
13.0335
12.9826
12.9299
12.8788
12.8322
12.7923
12.759
12.7353
12.721
12.7154
12.7176
12.7268
12.7414
12.762
12.7874
12.816
12.8464
12.8777
13.1147
13.0794
13.0313
12.9799
12.9269
12.8759
12.8299
12.7914
12.7598
12.7372
12.724
12.7189
12.7214
12.7308
12.7447
12.7656
12.7915
12.8206
12.8513
12.8828
13.1165
13.0788
13.0299
12.9788
12.928
12.878
12.8316
12.7914
12.7591
12.7362
12.7222
12.7169
12.7199
12.7306
12.7469
12.7699
12.7972
12.827
12.8579
12.8894
13.1213
13.0829
13.0332
12.9815
12.9301
12.8794
12.8324
12.7917
12.7589
12.7352
12.7201
12.7153
12.7194
12.7321
12.7518
12.7767
12.805
12.8352
12.8661
12.8973
13.1279
13.0895
13.0394
12.9868
12.9335
12.8817
12.8338
12.7924
12.7594
12.7361
12.723
12.7194
12.7248
12.7385
12.7589
12.7843
12.8128
12.843
12.8737
12.9045
13.1358
13.0979
13.0481
12.9957
12.9426
12.8901
12.8407
12.7984
12.765
12.7417
12.7289
12.7257
12.7314
12.7451
12.7654
12.7905
12.8188
12.8487
12.8791
12.9094
13.1436
13.1061
13.0565
13.0039
12.9504
12.8975
12.8473
12.805
12.7717
12.7485
12.7358
12.7332
12.7393
12.7531
12.7733
12.7984
12.8265
12.8559
12.8856
12.9155
13.1469
13.1088
13.0588
13.0059
12.9526
12.9005
12.853
12.8125
12.7799
12.7566
12.7432
12.7393
12.7435
12.7564
12.7763
12.8014
12.8301
12.8609
12.8913
12.9214
13.1476
13.1098
13.0595
13.0063
12.9532
12.9016
12.8561
12.816
12.7837
12.7603
12.7464
12.7413
12.7443
12.757
12.7767
12.8013
12.8303
12.8616
12.8924
12.9226
13.1503
13.1116
13.0602
13.0063
12.9522
12.9008
12.8541
12.8138
12.7814
12.7581
12.7444
12.7397
12.7441
12.7575
12.7783
12.8034
12.8324
12.8624
12.8928
12.9231
13.1541
13.1129
13.0605
13.006
12.9517
12.9
12.8534
12.8134
12.7812
12.7583
12.7448
12.7402
12.7442
12.7571
12.778
12.8034
12.8322
12.8629
12.8945
12.9251
13.1606
13.1189
13.0661
13.0113
12.9566
12.9046
12.8578
12.8184
12.7879
12.7664
12.7536
12.7488
12.7514
12.7616
12.7796
12.8036
12.8315
12.8619
12.894
12.9245
13.1679
13.1261
13.0732
13.0183
12.9632
12.9107
12.8629
12.8225
12.7921
12.7715
12.7591
12.7544
12.7563
12.7666
12.7847
12.8084
12.836
12.8657
12.896
12.9261
13.1756
13.1337
13.0811
13.0274
12.9728
12.9197
12.8708
12.8285
12.7946
12.7724
12.7596
12.7555
12.7595
12.773
12.7915
12.8148
12.8423
12.872
12.9023
12.9325
13.1833
13.1404
13.087
13.0326
12.978
12.9245
12.8753
12.833
12.7988
12.7757
12.7631
12.7598
12.7653
12.7789
12.7967
12.8204
12.8486
12.879
12.9096
12.9398
13.1916
13.147
13.0915
13.0343
12.9782
12.9237
12.8743
12.8328
12.8011
12.7789
12.7668
12.7636
12.7686
12.781
12.8
12.8259
12.8556
12.8868
12.918
12.9481
13.2019
13.1559
13.0985
13.0389
12.9798
12.924
12.8737
12.8316
12.8
12.7777
12.7658
12.7631
12.7692
12.7833
12.8057
12.8336
12.8646
12.8967
12.9281
12.958
13.2148
13.1677
13.109
13.0479
12.9873
12.93
12.8785
12.8351
12.8015
12.7788
12.7671
12.7655
12.7736
12.7909
12.8152
12.8444
12.8763
12.9089
12.9404
12.97
13.2303
13.1824
13.1226
13.0603
12.9984
12.9398
12.8873
12.8433
12.8094
12.7869
12.7756
12.7747
12.7842
12.8027
12.828
12.8581
12.8905
12.9234
12.9549
12.9841
13.2483
13.1997
13.1392
13.076
13.0131
12.9536
12.9004
12.856
12.822
12.7996
12.7886
12.7883
12.7985
12.8177
12.8437
12.8744
12.9073
12.9403
12.9716
13.0003
13.269
13.2199
13.1586
13.0946
13.0309
12.9707
12.9169
12.8721
12.8379
12.8156
12.8049
12.805
12.8158
12.8356
12.8622
12.8934
12.9265
12.9596
12.9907
13.0188
13.2925
13.2429
13.181
13.1162
13.0517
12.9908
12.9365
12.8912
12.8569
12.8346
12.8241
12.8246
12.8359
12.8563
12.8834
12.9151
12.9485
12.9816
13.0124
13.0399
13.319
13.2689
13.2065
13.141
13.0757
13.014
12.9591
12.9134
12.8789
12.8566
12.8464
12.8472
12.859
12.88
12.9077
12.9398
12.9735
13.0066
13.0371
13.0639
13.3489
13.2984
13.2354
13.1692
13.103
13.0406
12.985
12.939
12.9042
12.882
12.8719
12.8732
12.8855
12.907
12.9353
12.9679
13.0019
13.035
13.0652
13.0912
13.3827
13.3319
13.2683
13.2013
13.1343
13.0711
13.0148
12.9683
12.9333
12.9111
12.9012
12.9029
12.9158
12.9379
12.9668
12.9999
13.0342
13.0673
13.0971
13.1223
13.421
13.3699
13.3058
13.238
13.1701
13.1061
13.0491
13.002
12.9668
12.9445
12.9349
12.937
12.9504
12.9732
13.0028
13.0363
13.0709
13.1041
13.1334
13.1576
13.4646
13.4132
13.3486
13.28
13.2113
13.1463
13.0885
13.0409
13.0053
12.9831
12.9736
12.9762
12.9903
13.0137
13.0439
13.0781
13.113
13.146
13.1748
13.1979
13.5142
13.4626
13.3976
13.3283
13.2585
13.1926
13.134
13.0858
13.0499
13.0276
13.0184
13.0215
13.0361
13.0603
13.0912
13.1259
13.1611
13.194
13.2221
13.2438
13.5708
13.5192
13.4539
13.3838
13.3131
13.2462
13.1867
13.1379
13.1016
13.0792
13.0702
13.0738
13.0892
13.1141
13.1457
13.181
13.2164
13.2491
13.2764
13.2966
13.6358
13.5843
13.5188
13.4479
13.3762
13.3083
13.2479
13.1983
13.1616
13.1392
13.1305
13.1346
13.1506
13.1764
13.2087
13.2445
13.2802
13.3126
13.339
13.3574
13.7105
13.6593
13.5938
13.5223
13.4496
13.3806
13.3192
13.2689
13.2318
13.2092
13.2007
13.2054
13.2222
13.2488
13.2819
13.3182
13.354
13.3861
13.4113
13.4275
13.7968
13.7462
13.6808
13.6087
13.5351
13.465
13.4027
13.3515
13.3139
13.2912
13.283
13.2883
13.3059
13.3333
13.3671
13.4039
13.4398
13.4712
13.495
13.5087
13.8969
13.8472
13.7822
13.7098
13.6353
13.5641
13.5007
13.4487
13.4106
13.3878
13.3798
13.3858
13.4041
13.4324
13.4669
13.5042
13.5399
13.5705
13.5924
13.6031
14.0134
13.9651
13.901
13.8283
13.7531
13.6809
13.6164
13.5636
13.5249
13.5019
13.4942
13.5008
13.5201
13.5491
13.5844
13.6219
13.6573
13.6867
13.7063
13.7132
14.1497
14.1034
14.0407
13.9682
13.8924
13.8192
13.7537
13.7
13.6607
13.6376
13.6301
13.6375
13.6575
13.6874
13.7232
13.7609
13.7957
13.8235
13.8401
13.8426
14.3099
14.2665
14.206
14.1342
14.058
13.9841
13.9176
13.8631
13.8231
13.7997
13.7926
13.8008
13.8216
13.8522
13.8884
13.9259
13.9597
13.9854
13.9982
13.9954
14.4994
14.4601
14.4027
14.3323
14.2563
14.1818
14.1146
14.0592
14.0185
13.9949
13.9882
13.9971
14.0187
14.0498
14.0862
14.1232
14.1555
14.1781
14.1863
14.1767
14.725
14.6914
14.6386
14.5706
14.4954
14.4208
14.3529
14.2968
14.2555
14.2316
14.2252
14.2349
14.2571
14.2886
14.3248
14.3607
14.3906
14.4093
14.4115
14.3934
14.9949
14.9696
14.9237
14.8595
14.7861
14.7119
14.6438
14.5871
14.5452
14.521
14.5149
14.5253
14.5479
14.5794
14.6148
14.6487
14.6752
14.6884
14.683
14.654
15.3229
15.308
15.2714
15.2129
15.1426
15.0699
15.0022
14.9452
14.9027
14.8782
14.8725
14.8834
14.906
14.9368
14.9704
15.0013
15.0227
15.0285
15.0129
14.97
15.7225
15.7226
15.6991
15.6494
15.5845
15.5147
15.4482
15.3915
15.3486
15.3237
15.3183
15.3296
15.3515
15.3805
15.411
15.437
15.4511
15.4471
15.4179
15.3566
16.2152
16.2353
16.2309
16.1943
16.1379
16.0732
16.0095
15.9539
15.9108
15.8855
15.8804
15.8914
15.9116
15.9373
15.9627
15.9811
15.9849
15.9671
15.9194
15.8342
16.8288
16.8733
16.8992
16.8823
16.8391
16.7829
16.7242
16.671
16.628
16.6023
16.5973
16.6074
16.6242
16.6444
16.6616
16.6686
16.6575
16.6207
16.548
16.4307
17.612
17.6899
17.7512
17.7615
17.7379
17.6951
17.6449
17.5961
17.5544
17.5285
17.5235
17.5308
17.5416
17.5526
17.5572
17.5477
17.516
17.4524
17.3448
17.1843
18.6169
18.7429
18.8411
18.8949
18.9021
18.8804
18.8436
18.8026
18.7644
18.741
18.7362
18.7349
18.7353
18.7319
18.7173
18.684
18.6232
18.5217
18.3666
18.1474
19.9191
20.1144
20.2689
20.3683
20.4256
20.4349
20.4181
20.3886
20.3546
20.3316
20.3254
20.3158
20.3017
20.2778
20.2366
20.1709
20.0678
19.9123
19.6915
19.3923
21.6295
21.9256
22.1764
22.3293
22.4383
22.4879
22.4995
22.487
22.4596
22.4373
22.4287
22.4064
22.3711
22.3181
22.2412
22.1296
21.9653
21.7358
21.4252
21.0173
23.8848
24.3156
24.6921
24.9293
25.0842
25.2004
25.255
25.2688
25.2527
25.2322
25.2198
25.1768
25.1133
25.0284
24.8989
24.7176
24.4705
24.1406
23.7086
23.1544
26.8646
27.4783
28.0279
28.3951
28.6226
28.7738
28.8956
28.9487
28.9516
28.9362
28.9213
28.8601
28.7584
28.6111
28.4086
28.1378
27.7813
27.3184
26.7255
25.977
30.7973
31.6522
32.4274
32.9614
33.3102
33.5193
33.6633
33.7823
33.8193
33.813
33.7841
33.6901
33.5364
33.318
33.0241
32.6393
32.1421
31.508
30.7069
29.7057
35.9474
37.1142
38.1779
38.9252
39.428
39.7419
39.9177
40.0472
40.1532
40.1619
40.1098
39.9744
39.7568
39.4514
39.0446
38.5173
37.8449
36.997
35.9347
34.6131
42.6288
44.1821
45.5997
46.6068
47.2932
47.7335
47.9846
48.1424
48.2831
48.3065
48.2334
48.0558
47.7648
47.3534
46.8089
46.1104
45.228
44.1221
42.7416
41.025
51.195
53.2165
55.06
56.3795
57.2915
57.8889
58.2405
58.4134
58.527
58.6111
58.5382
58.3139
57.9383
57.4068
56.706
55.811
54.6847
53.276
51.5175
49.3253
62.0442
64.6267
66.9802
68.6746
69.8593
70.6517
71.1382
71.375
71.4578
71.5273
71.4938
71.2244
70.7571
70.0921
69.2149
68.0957
66.6885
64.9283
62.7266
59.9696
75.6517
78.9073
81.8754
84.0245
85.5435
86.5791
87.2369
87.5837
87.7161
87.7895
87.7454
87.4166
86.8454
86.0303
84.9527
83.5764
81.8444
79.6741
76.951
73.5232
92.6271
96.7041
100.43
103.146
105.09
106.443
107.338
107.868
108.09
108.144
108.101
107.718
107.04
106.061
104.757
103.083
100.97
98.3123
94.9649
90.728
113.792
118.895
123.578
127.022
129.518
131.285
132.484
133.223
133.571
133.7
133.701
133.291
132.515
131.362
129.802
127.781
125.21
121.961
117.848
112.613
140.286
146.7
152.619
157.018
160.249
162.579
164.2
165.242
165.791
166.047
166.138
165.749
164.901
163.575
161.734
159.308
156.187
152.21
147.141
140.647
173.709
181.816
189.346
195.004
199.222
202.325
204.549
206.046
206.912
207.328
207.528
207.308
206.446
204.973
202.841
199.962
196.192
191.325
185.057
176.959
216.305
226.6
236.224
243.527
249.046
253.188
256.252
258.44
259.872
260.67
261.051
260.997
260.191
258.637
256.257
252.921
248.432
242.514
234.769
224.635
271.236
284.317
296.61
306.005
313.174
318.636
322.775
325.854
328.042
329.439
330.249
330.581
330.053
328.628
326.175
322.503
317.33
310.275
300.797
288.144
342.939
359.46
375.038
386.966
396.11
403.148
408.588
412.785
415.965
418.252
419.819
420.835
421.019
420.15
418.053
414.428
408.861
400.805
389.497
373.897
437.618
458.142
477.494
492.226
503.482
512.177
519.015
524.497
528.955
532.585
535.481
537.688
539.118
539.516
538.659
535.969
530.827
522.415
509.624
490.964
563.845
588.521
611.674
628.962
641.949
651.911
659.845
666.479
672.31
677.632
682.573
687.104
690.953