/*--------------------------------*- C++ -*----------------------------------*\
  =========                 |
  \\      /  F ield         | OpenFOAM: The Open Source CFD Toolbox
   \\    /   O peration     | Website:  https://openfoam.org
    \\  /    A nd           | Version:  6
     \\/     M anipulation  |
\*---------------------------------------------------------------------------*/
FoamFile
{
    version     2.0;
    format      ascii;
    class       volScalarField;
    location    "9";
    object      epsilon;
}
// * * * * * * * * * * * * * * * * * * * * * * * * * * * * * * * * * * * * * //

dimensions      [0 2 -3 0 0 0 0];

internalField   nonuniform List<scalar> 
10000
(
285.389
300.856
166.98
101.951
69.2044
50.9374
39.9845
33.2606
29.2883
27.4327
27.3668
29.0656
32.8145
39.3162
49.9892
67.9021
100.104
163.058
289.023
258.96
300.578
301.79
167.468
102.343
69.4164
50.9554
39.8494
33.1016
29.0321
26.981
27.1928
28.9621
32.7467
39.2974
50.0164
67.9977
100.311
163.407
289.111
257.47
279.158
300.581
166.433
102.534
69.5319
50.9546
39.7063
32.7687
28.7326
27.187
27.2297
28.9815
32.7764
39.3084
50.0042
68.0002
100.224
162.344
285.854
253.548
281.629
298.104
166.09
102.304
69.5501
50.896
39.805
32.9481
28.7847
27.1825
27.1812
28.9391
32.7532
39.3037
49.9829
68.0453
100.281
163.084
287.349
253.044
257.415
297.149
166.418
102.613
69.395
50.8665
39.7603
32.8918
28.7314
27.0373
27.1213
28.9126
32.7541
39.331
50.092
68.115
100.264
163.141
289.725
250.724
263.703
298.031
166.244
102.879
69.4362
50.8641
39.5366
32.5742
28.8588
27.0703
27.0306
28.7966
32.6571
39.2779
50.1121
68.1613
100.208
162.523
288.847
261.187
245.451
296.903
165.8
102.805
69.8236
50.8665
39.6299
32.6323
28.8321
27.0143
26.8225
28.4757
32.5585
39.2409
50.1425
68.2479
100.23
162.038
289.943
253.367
242.093
296.606
166.195
101.973
69.3656
50.6847
39.5557
32.7173
28.7312
26.949
26.98
28.7117
32.3592
38.9918
50.1011
68.3427
100.678
162.911
290.143
254.518
244.184
295.753
166.059
102.384
68.9709
50.5612
39.3473
32.6532
28.3817
26.578
26.8607
28.6458
32.4842
39.0384
50.1169
68.4855
100.998
163.482
290.453
256.451
245.795
296.36
165.04
100.74
69.13
50.5563
39.4741
32.706
28.7604
26.8895
26.703
28.3102
32.4223
39.136
50.0651
68.5387
101.19
164.333
290.657
258.786
248.713
295.103
163.319
100.224
68.3398
50.3651
39.4056
32.651
28.6729
26.6233
26.8282
28.5566
32.4075
39.1098
50.1379
68.521
101.105
164.04
290.874
264.848
258.511
294.946
163.012
100.086
68.01
50.2191
39.1453
32.5211
28.6226
26.6567
26.7509
28.2142
32.0165
38.7929
50.0359
68.6614
101.099
162.808
290.809
269.327
250.136
293.411
162.216
100.478
68.0463
50.1096
39.158
32.1383
28.2537
26.7923
26.825
28.4912
32.2936
39.013
50.2574
68.9594
101.787
164.075
288.434
277.59
265.122
290.635
161.779
100.023
68.0723
50.1405
39.1674
32.1871
28.3426
26.8051
26.799
28.2537
32.0361
38.7429
50.2187
69.2086
102.393
164.869
290.76
293.799
258.524
289.469
161.877
99.8719
68.0251
50.0606
39.1778
32.2844
28.4936
26.7758
26.8336
28.7806
32.6382
39.1754
50.5547
69.494
102.836
165.721
290.976
281.854
254.933
291.468
162.489
100.083
68.4289
50.125
39.2358
32.529
28.6203
26.5138
26.5324
28.735
32.697
39.4365
50.6083
69.6843
103.491
166.815
292.756
274.397
242.748
290.541
162.317
100.15
68.2645
50.0833
39.2275
32.5342
28.6859
26.8898
26.7375
28.7625
32.6689
39.236
50.8249
69.9578
103.984
168.032
295.843
293.443
241.676
290.191
161.566
100.269
68.3401
50.1835
39.2436
32.245
28.582
26.8798
26.9073
28.7657
32.6638
39.4611
50.8359
70.0702
104.458
169.643
297.759
282.158
245.865
290.506
162.827
100.744
68.4652
50.1684
39.3282
32.5636
28.3954
26.5098
26.4832
28.6359
32.53
39.1212
50.7114
69.9502
104.523
170.2
299.05
269.792
250.546
289.074
163.433
101.161
68.6481
50.3286
39.4094
32.6816
28.7418
26.8263
26.5802
28.6163
32.2902
39.2735
50.5232
69.8664
104.295
169.733
299.331
266.994
257.016
292.93
164.412
101.529
68.9769
50.4076
39.3746
32.6151
28.7012
26.7767
26.5462
28.6507
32.4345
39.1768
50.5621
69.7354
104.071
170.075
299.433
269.449
267.814
292.027
165.15
101.891
68.8833
50.3682
39.2994
32.5504
28.5802
26.5531
26.6644
28.7743
32.7623
39.5095
50.5901
69.4847
103.263
168.236
298.718
271.544
265.335
294.942
166.033
101.599
68.8368
50.2087
39.0174
32.2113
28.6716
26.9544
26.9514
28.8411
32.7764
39.4706
50.3882
69.1085
102.824
167.127
295.957
281.73
276.644
295.669
164.861
101.515
68.604
50.3069
39.3106
32.4048
28.5006
26.9106
26.7187
28.697
32.7254
39.4721
50.3646
68.7777
102.083
165.926
294.503
266.984
275.779
291.392
165.124
101.126
68.5415
50.3441
39.4063
32.7843
28.9115
26.9564
27.1411
29.0449
32.8795
39.4634
50.3369
68.7169
102.008
165.09
293.798
271.074
272.472
292.565
165.382
101.175
68.723
50.3757
39.5164
32.8619
29.0158
27.2075
27.1851
28.9769
32.8145
39.3781
50.1395
68.5458
101.428
163.899
290.339
254.519
260.91
293.111
164.992
100.905
68.4091
50.3205
39.4688
32.5692
28.676
27.054
26.7512
28.5448
32.6722
39.3363
50.1521
68.5299
101.219
164.262
290.643
263.587
262.665
290.546
164.846
100.738
68.3192
50.3244
39.5088
32.8735
28.9638
27.078
26.8295
28.6139
32.4343
39.0866
50.0556
68.4069
101.081
164.745
289.484
252.756
280.737
293.746
164.926
100.71
68.3212
50.2951
39.3108
32.8242
28.9101
26.8286
26.8016
28.779
32.6384
39.2467
50.1501
68.4823
101.013
164.566
288.378
243.774
277.575
294.348
163.765
100.337
68.2582
50.2996
39.4951
32.8738
28.9761
27.1323
27.0876
28.8349
32.6082
39.1674
50.1023
68.5172
101.258
164.427
288.942
244.082
275.998
293.086
164.096
100.21
68.1765
50.2479
39.4702
32.8069
28.9001
27.0964
27.0721
28.8052
32.5376
38.9042
49.9524
68.4485
101.268
163.36
290.561
244.815
263.455
292.634
163.669
100.218
68.3717
50.2265
39.3976
32.7171
28.7746
26.9713
26.7815
28.7666
32.5515
38.9485
49.9375
68.4723
101.376
164.39
289.768
242.923
262.323
290.843
162.301
100.169
68.2771
50.2234
39.4032
32.6986
28.4803
26.7439
26.9933
28.786
32.5426
39.0359
49.8384
68.3642
101.304
164.776
289.827
244.647
266.344
289.371
162.189
100.236
68.3746
50.1994
39.3697
32.7336
28.8262
27.0539
27.0629
28.8177
32.5523
39.0123
49.7629
68.2626
101.125
164.31
287.026
245.886
275.726
288.183
162.075
100.557
68.4563
50.2388
39.2925
32.6405
28.4995
26.7082
26.7262
28.7257
32.5033
38.819
49.7044
68.1609
100.923
164.11
287.486
244.638
253.307
286.192
162.338
101.122
68.8172
50.2264
39.0192
32.472
28.8087
27.0481
27.0152
28.7502
32.5253
39.0384
49.7763
68.1525
100.809
162.998
286.758
247.119
258.469
287.355
163.212
101.531
69.0308
50.4814
39.3452
32.7747
28.8375
27.0065
26.9562
28.6863
32.4756
39.0516
49.9279
68.1986
100.795
163.31
287.225
249.144
268.66
285.02
162.43
101.723
69.228
50.7124
39.6024
32.7355
28.7087
26.8692
26.6058
28.3185
32.1639
38.9673
49.9364
68.2427
100.948
164.083
288.913
252.918
276.953
287.687
164.668
102.415
69.5453
50.7627
39.5818
32.3902
28.275
26.6322
26.9057
28.6843
32.473
38.8483
49.919
68.1257
100.943
163.515
286.652
261.568
281.747
288.873
165.407
102.845
69.7682
50.8997
39.5715
32.6422
28.614
26.9448
26.9588
28.7138
32.5165
39.1071
50.0209
68.3767
100.965
164.315
291.059
265.404
289.546
291.345
166.718
103.403
69.9427
51.0097
39.8432
32.9014
28.9038
26.9757
26.5941
28.324
32.1931
39.0721
49.9997
68.3809
100.501
162.765
290.813
265.92
297.309
293.484
167.715
103.68
70.0122
51.0487
39.7956
32.5313
28.5604
26.7139
26.6206
28.5601
32.5076
39.1118
49.9132
68.435
101.26
164.309
289.039
267.21
298.749
296.262
168.905
103.712
69.9272
51.1064
39.8136
32.7199
28.9082
27.0572
26.7545
28.3289
32.5113
39.1344
49.911
68.426
101.486
165.504
292.548
271.087
300.973
298.402
168.257
103.468
69.7866
51.0154
39.7694
32.9007
28.9613
27.1739
27.0843
28.6545
32.5685
39.0802
49.9283
68.1363
100.833
165.772
293.738
284.205
292.096
298.923
168.65
103.147
69.6172
50.9264
39.6446
32.5572
28.8248
27.1512
27.0926
28.9001
32.5991
38.7927
49.7025
68.0465
100.503
163.391
294.141
268.231
306.888
295.694
166.705
102.635
69.3916
50.7954
39.4335
32.7957
28.589
27.1507
26.969
28.8921
32.6228
38.8322
49.7466
67.9567
100.441
163.467
292.16
267.668
281.982
296.003
166.547
102.222
69.1253
50.627
39.6493
32.9504
28.9242
27.2577
27.2253
28.9693
32.6741
38.9008
49.5924
67.839
100.351
162.036
290.044
270.069
263.501
294.168
165.849
101.934
69.027
50.6753
39.4785
32.9321
28.8431
27.2175
26.9619
28.8921
32.6995
39.1268
49.8552
67.9146
100.35
162.533
291.508
276.698
262.738
290.849
165.071
101.712
68.981
50.7003
39.7369
33.0184
29.1253
27.3376
27.2139
28.7585
32.7112
39.1011
49.9089
68.0233
100.433
162.718
290.141
259.48
259.283
291.792
164.932
101.48
69.122
50.698
39.57
32.7053
28.8057
27.2782
27.1712
28.7701
32.7482
39.2532
49.9683
68.1206
100.541
163.766
288.058
264.428
269.81
289.184
164.574
101.178
68.8932
50.7399
39.8387
33.0661
29.1182
27.3853
27.3455
29.0113
32.7585
39.2008
50.051
68.0822
100.785
163.019
290.577
273.973
258.542
291.053
164.544
101.314
69.1294
50.7629
39.8828
33.1108
28.8853
27.3259
27.2856
28.7966
32.7036
39.0768
50.0708
68.2903
100.937
164.762
289.602
251.604
258.316
290.401
164.202
101.567
69.2591
50.8116
39.8606
33.1355
29.2018
27.3813
27.3236
29.0095
32.5999
39.3035
50.1161
68.4974
101.336
164.619
289.557
252.918
270.9
288.376
162.958
101.948
69.543
50.9498
39.8361
33.0336
29.115
27.2784
27.0146
28.7758
32.7972
39.3699
50.0573
68.8608
101.822
163.254
287.756
250.911
265.695
291.318
164.409
102.515
69.6982
50.9149
39.5341
32.9186
29.0481
27.2853
27.2738
29.0355
32.8333
39.25
50.2393
69.0797
102.177
165.039
291.369
252.906
269.282
291.168
164.912
102.826
69.766
50.8154
39.5694
32.5626
28.6085
26.8999
27.1985
29.0497
32.8865
39.485
50.3742
69.0269
102.005
165.376
291.333
254.752
287.901
289.653
166.217
103.308
69.837
50.8662
39.4184
32.788
28.8318
27.0849
27.1506
28.9924
32.8274
39.2863
50.3647
68.8455
101.705
165.758
290.89
256.779
282.796
293.993
168.028
103.904
70.1309
51.0298
39.6973
32.8148
28.5382
26.7751
26.8371
28.9455
32.8459
39.4731
50.4233
68.7753
101.409
164.222
287.763
259.217
275.641
297.282
169.109
104.129
70.0934
50.8314
39.5956
32.8294
28.8952
27.1918
27.1822
28.9353
32.7593
39.4014
50.3784
68.7309
101.327
164.024
288.626
264.223
275.564
297.7
168.583
104.11
70.0463
50.9142
39.3479
32.753
28.878
27.0925
27.1143
28.845
32.4178
39.1108
50.2358
68.6598
101.269
163.991
288.897
266.923
279.65
298.232
169.17
104.069
70.0848
50.9098
39.4907
32.3903
28.4308
26.8615
26.7569
28.5721
32.4995
39.2258
50.1961
68.6151
101.247
164.614
290.809
259.581
281.349
298.51
169.343
103.949
69.8138
50.7897
39.2111
32.533
28.6161
26.6987
27.0065
28.8661
32.739
39.3769
50.1849
68.5835
101.05
163.629
290.801
261.474
297.712
298.502
169.712
103.976
69.7384
50.6735
39.2756
32.3142
28.392
26.8518
27.0338
28.8698
32.7299
39.3558
50.1652
68.6102
101.381
164.858
290.808
276.923
290.917
296.357
167.963
103.367
69.5834
50.7384
39.4968
32.6765
28.7662
26.9821
26.9562
28.7485
32.6119
39.2841
50.2072
68.5215
100.926
163.318
287.959
270.216
291.488
296.885
167.706
103.291
69.5293
50.7047
39.4548
32.5893
28.7035
26.8846
26.5815
28.2617
32.1323
38.8991
50.1023
68.4825
100.996
164.478
291.004
281.516
285.367
296.247
167.49
102.478
69.4811
50.6285
39.392
32.3018
28.6393
26.8467
26.5738
28.3825
32.2646
38.974
49.9852
68.363
100.686
163.895
289.674
266.024
300.526
294.709
166.767
102.355
69.3475
50.5549
39.3956
32.5839
28.4121
26.6525
26.5903
28.5326
32.3998
39.048
49.9664
68.2273
100.572
163.247
286.926
279.455
282.029
294.398
166.234
102.166
69.0931
50.4195
39.1349
32.5669
28.7021
26.9102
26.8011
28.3076
32.1356
38.8303
49.9619
68.1661
100.334
162.436
286.304
270.277
301.898
293.931
164.703
101.973
69.2179
50.4224
39.2179
32.3131
28.6299
26.642
26.5655
28.5277
32.5246
39.1343
49.9488
68.008
100.024
160.576
284.043
278.138
291.168
291.769
163.784
101.372
68.8595
50.2655
38.9995
32.4377
28.4405
26.8853
26.892
28.6598
32.4844
39.0674
49.8165
67.9499
99.875
159.953
280.576
255.806
274.992
287.648
162.478
100.926
68.8742
50.2557
39.1435
32.1775
28.5337
26.7776
26.5002
28.2099
32.07
38.7883
49.8711
68.055
99.9373
159.909
279.841
256.01
275.554
285.567
161.822
100.572
68.5421
50.1444
38.914
32.0583
28.1518
26.4521
26.5214
28.3074
32.1666
38.8649
49.8895
68.0131
100.067
160.384
281.189
253.999
268.008
283.932
161.179
100.592
68.5947
50.2387
39.089
32.1098
28.2658
26.6697
26.7022
28.444
32.269
38.9408
49.8907
68.0134
99.6537
158.578
278.712
266.361
273.887
283.172
161.132
100.449
68.5848
50.2488
39.0662
32.2368
28.1938
26.6196
26.6496
28.3673
31.9943
38.7152
49.7822
68.0498
99.7676
159.583
281.663
261.566
285.009
281.037
160.427
100.395
68.5851
50.205
38.7998
31.9462
28.2584
26.4869
26.2843
28.044
32.1864
38.9691
49.8897
68.0957
99.7079
159.256
280.497
257.684
263.915
279.969
159.805
100.323
68.6065
50.1717
39.1769
32.3197
28.0602
26.2121
26.4408
28.2583
31.921
38.6901
49.8584
68.0649
99.6281
159.508
277.928
258.81
270.057
279.648
158.986
99.2972
68.5354
50.2175
39.1122
32.3069
28.3699
26.4919
26.2265
28.1923
31.9301
38.77
49.711
67.9447
99.6074
158.898
280.167
270.201
282.709
278.972
158.042
98.8387
68.2685
50.1099
38.6946
32.1038
28.1893
26.407
26.3535
27.8919
31.7747
38.6583
49.5938
67.7215
98.9226
158.532
280.718
261.956
270.697
275.877
157.189
98.2567
67.7838
49.7924
38.5764
31.9457
27.8646
26.2299
25.9932
27.734
31.6577
38.4467
49.5309
67.6949
98.4824
157.641
279.06
263.636
273.939
276.378
156.619
97.7051
67.4953
49.6108
38.3711
31.7776
27.9189
26.1203
25.936
27.6228
31.355
38.0296
49.2745
67.2068
98.1854
156.161
278.562
277.22
290.779
275.99
155.261
96.8411
67.1171
49.3939
38.2773
31.3489
27.7217
25.8667
25.7695
27.6894
31.4866
37.9322
49.095
66.9296
96.3479
153.095
276.147
266.591
282.277
272.692
154.062
96.1095
66.8713
48.95
37.6876
31.2396
27.2484
25.659
25.5606
27.5012
31.2839
37.6174
48.7276
67.0606
95.7469
151.006
273.202
266.705
286.204
268.798
150.646
95.3347
66.9413
48.7101
37.3874
30.65
26.8544
25.1992
25.1326
26.8944
30.6543
37.1609
48.1734
66.2363
95.1699
148.791
268.868
268.079
304.641
265.666
149.775
94.8202
66.4652
48.2665
36.9266
30.1495
26.3872
24.7798
24.8513
26.8067
30.5249
36.757
47.6053
65.444
93.8388
146.164
262.727
276.32
281.993
259.335
147.357
94.4883
65.6119
47.5056
36.3773
29.7496
26.0497
24.4119
24.5112
26.1918
29.834
36.2167
46.9177
64.3435
91.4424
138.397
253.409
243.305
299.59
251.682
143.725
92.1239
64.4262
46.5743
35.7296
29.2802
25.6885
24.0873
24.1607
25.794
29.2864
35.5525
46.0497
63.1552
89.2316
135.348
244.507
241.592
272.54
237.354
138.331
92.4032
63.1587
45.473
34.928
28.7319
25.3138
23.772
23.8148
25.3726
28.6746
34.7077
44.954
61.8018
86.7519
133.207
232.608
237.426
296.174
228.59
131.993
88.3142
60.7487
43.9256
33.9176
28.0984
24.9968
23.5663
23.3507
24.7732
27.9491
33.6825
43.5604
60.3884
86.5183
133.772
228.137
240.482
274.747
218.85
122.665
84.3794
58.0996
42.1338
32.7476
27.292
24.2928
22.881
22.7815
24.0724
27.0506
32.4507
41.8121
58.1195
86.5156
126.257
214.21
240.923
293.723
207.307
112.554
79.6817
54.8854
39.9276
31.2439
26.2183
23.4248
22.1485
22.0959
23.2732
25.9923
30.9749
39.6657
54.9138
81.6575
125.529
198.128
246.576
260.881
195.442
108.288
75.1756
51.1786
37.3745
29.4782
24.9468
22.4484
21.3067
21.2565
22.316
24.7555
29.2343
37.1187
51.1795
76.7664
121.645
188.113
248.237
286.176
177.975
105.255
69.403
46.6565
34.2254
27.2847
23.3363
21.1666
20.2005
20.1941
21.1408
23.2842
27.2131
34.1928
46.7539
69.8605
111.057
173.779
256.401
269.082
177.083
105.747
63.0511
41.8056
30.8713
24.9213
21.5938
19.7866
18.9836
18.9806
19.778
21.5923
24.9384
30.9399
41.9756
63.1754
103.482
159.837
262.216
276.179
174.402
92.4552
54.4924
36.3834
27.2647
22.3949
19.7162
18.2842
17.6596
17.668
18.3104
19.7773
22.5165
27.5101
36.8704
55.4631
93.2961
157.974
293.114
293.917
155.082
81.6317
47.0543
31.4333
23.9158
20.041
17.9665
16.88
16.4136
16.421
16.9026
18.0192
20.147
24.1329
31.8426
47.8533
83.7263
162.627
301.624
329.178
150.335
71.9484
40.0412
26.9492
20.981
18.0268
16.5081
15.7346
15.415
15.4201
15.7497
16.5405
18.0901
21.1089
27.1999
40.4546
72.2485
148.152
326.017
366.635
141.406
62.1757
33.9037
23.2116
18.6344
16.5017
15.4897
15.0402
14.8694
14.8714
15.0459
15.5036
16.5268
18.6876
23.3244
34.1663
62.83
142.945
367.889
403.855
132.97
52.8086
28.3207
20.0465
16.8578
15.5569
15.0186
14.8
14.7219
14.7226
14.8018
15.0228
15.5613
16.8638
20.0465
28.3078
52.736
132.857
404.916
433.823
110.872
39.2943
22.0792
17.0805
15.502
14.9897
14.8144
14.7385
14.7063
14.7067
14.7405
14.8188
14.9967
15.5103
17.0896
22.089
39.2969
110.892
434.447
467.146
58.148
21.8126
16.3273
15.2697
14.9648
14.8484
14.8047
14.7943
14.7931
14.7932
14.7943
14.8054
14.849
14.9644
15.2667
16.3193
21.8019
58.133
466.993
854.133
714.778
405.563
241.415
149.055
93.9055
61.3967
43.2073
33.7394
29.679
29.8621
34.0233
43.3184
60.7084
91.1805
143.698
235.215
405.338
729.076
809.078
874.333
712.104
407.185
242.766
149.417
92.9036
59.8473
41.7289
32.4632
28.3002
28.5848
32.7028
41.8283
59.2268
90.1241
143.568
235.426
405.582
732.5
824.296
910.399
715.596
407.898
243.293
149.732
93.9319
61.2867
43.0985
33.6632
29.0672
29.3128
33.4064
42.3141
59.7115
89.9742
143.223
235.036
401.214
733.829
858.852
873.196
717.151
409.278
243.335
149.447
93.7261
60.9805
42.859
33.6196
29.7164
29.9065
33.9504
42.402
60.0879
89.4842
142.182
234.155
405.864
733.36
821.763
842.357
723.437
409.418
243.57
149.031
92.0999
59.0073
41.1631
33.0725
29.4506
29.703
33.9065
43.0732
59.9852
89.4635
141.49
234.304
400.126
734.327
867.267
889.046
729.666
410.686
243.787
148.784
92.7285
59.6055
41.5152
32.059
28.287
28.5058
32.8303
42.7762
58.9168
89.9169
140.839
232.507
403.757
732.738
855.106
867.709
727.347
405.953
242.767
148.023
93.3079
60.0991
42.0584
32.6088
28.9511
29.1212
33.4565
42.6747
59.6826
89.8846
140.198
231.125
400.718
730.506
903.491
912.927
717.55
404.782
241.025
147.649
93.3682
59.2734
41.2562
32.531
29.5866
29.7001
32.8122
41.7169
58.6468
89.7187
139.852
229.447
397.477
724.701
849.129
855.1
716.888
403.555
240.406
148.236
93.6549
59.6
41.7762
33.5577
29.7233
29.8417
33.9444
43.106
60.0703
89.8157
140.345
228.847
390.834
712.857
813.051
824.34
720.472
403.428
239.76
147.841
93.8371
61.7582
43.4584
33.6365
29.5005
29.053
33.1505
42.2089
58.9752
88.5568
141.57
229.653
393.963
722.04
855.901
872.097
714.39
404.987
239.742
147.548
93.4936
61.4908
43.2043
32.8424
28.818
30.036
34.3437
43.5467
60.2847
89.5905
141.721
231.037
395.977
716.766
817.619
871.719
720.794
404.426
239.5
147.645
93.2358
61.234
43.001
33.6149
29.9246
30.2019
34.4246
43.6537
60.3153
90.54
141.162
230.117
396.92
711.065
778.592
877.897
719.068
401.748
238.501
146.634
92.4521
60.5479
41.8508
32.565
29.5599
29.9404
34.2364
43.5203
59.8888
90.2448
144.062
233.454
393.487
702.57
778.329
869.056
723.185
400.646
238.059
146.225
91.0453
60.0216
41.5197
32.2314
29.2033
29.6914
33.9957
43.4348
58.6707
90.612
144.443
233.787
400.095
710.115
791.744
914.526
711.772
399.11
237.251
145.25
91.5865
58.542
41.8183
32.1408
28.1319
28.6067
32.8231
43.2815
60.3344
91.4131
144.791
233.135
399.621
714.28
800.531
840.811
710.833
397.874
236.616
144.761
90.3679
58.5587
41.5769
32.0822
28.4675
29.2839
33.1845
42.5878
61.0009
91.876
144.941
233.571
394.497
717.203
845.156
783.342
711.952
397.184
235.373
144.033
90.8308
58.9172
40.3963
32.5977
28.9013
29.3025
33.6908
43.175
60.6321
91.3823
144.235
235.634
401.08
721.152
839.769
784.694
705.407
396.187
234.629
143.42
91.6914
60.4551
41.1989
32.6195
28.1149
28.8988
33.4395
42.8793
59.5565
91.7496
145.059
237.29
403.844
727.082
853.751
783.092
714.57
396.162
234.509
143.862
91.6601
60.8116
42.151
32.2377
28.9642
28.0839
32.4854
41.8441
60.3035
90.6739
144.021
236.112
406.005
733.051
857.942
792.338
712.91
394.155
233.036
144.571
91.453
60.9685
41.4081
33.2376
29.155
28.8186
33.2517
42.2035
59.5038
90.482
143.248
234.949
400.267
719.137
855.251
796.789
703.335
394.102
233.267
144.685
92.8027
61.4694
43.1128
33.4603
28.6911
29.3273
32.8097
42.8786
60.1136
90.5896
142.32
233.869
400.335
721.149
827.474
832.602
713.067
396.821
233.396
144.335
92.5257
61.1354
42.7518
32.7831
29.6112
30.0186
34.0121
42.9013
59.8025
90.2346
141.491
232.596
397.255
708.497
779
794.171
709.39
394.863
231.948
145.242
91.4047
60.0108
41.6798
33.5593
29.0045
29.8912
33.9477
41.9539
58.2564
89.214
141.256
231.101
393.791
710.447
775.109
801.312
705.739
390.51
233.017
145.612
93.0256
61.6298
43.2409
33.7958
29.8181
29.9644
34.1673
43.1726
58.9519
90.0322
141.345
229.938
391.086
705.566
780.889
846.164
701.758
391.3
233.435
145.672
92.8064
61.304
41.9311
32.6695
29.5642
29.6734
33.9791
43.2917
59.7697
90.017
141.062
228.349
387.508
699.207
780.563
839.122
707.996
390.112
232.379
145.251
91.6346
60.9823
42.7659
33.3865
29.3849
28.7837
33.0543
43.0921
58.7841
89.8873
140.597
228.12
388.533
702.088
786.489
838.69
702.432
388.914
232.113
144.983
92.1376
60.7808
41.5738
32.374
28.7178
29.6337
33.8298
43.3112
60.1896
89.9823
141.186
228.224
391.197
711.07
808.414
817.662
687.061
388.14
231.89
144.04
93.0857
60.0579
42.7746
33.5583
29.7326
29.1344
32.8008
43.0138
59.8492
89.2226
140.916
227.963
385.332
708.793
748.128
775.796
687.356
388.559
232.009
144.446
93.2796
60.5365
41.451
32.3519
29.6269
29.8566
33.3336
42.9286
59.0748
89.8808
142.197
227.529
390.143
709.779
758.236
776.631
688.056
391.575
232.36
144.705
93.1096
60.0646
42.0266
33.0518
29.6045
29.9186
33.96
42.4102
60.7326
91.0705
142.53
227.836
384.221
710.277
763.127
811.868
696.436
396.574
233.209
143.991
92.3613
60.529
43.0535
33.9163
28.991
29.1074
33.9543
43.2452
60.7006
90.9374
142.838
228.704
388.502
711.123
775.624
769.754
707.307
397.274
232.32
145.422
94.3357
61.532
42.2744
33.9992
29.2179
29.8435
33.8407
43.0311
60.6174
91.1694
143.167
229.694
390.504
710.317
784.303
771.813
707.597
396.273
233.283
145.757
94.5851
62.436
43.6097
34.0573
29.9609
29.909
33.6829
41.9357
59.4659
90.1704
143.399
231.131
396.268
714.247
801.954
802.403
707.426
390.864
233.187
146.596
94.3334
61.1064
42.0032
32.9805
29.8381
29.758
33.5686
42.8634
60.6738
91.4054
143.572
231.842
399.431
707.799
816.718
801.474
705.061
396.997
234.15
146.038
94.0567
61.9931
42.8405
34.0342
29.8672
29.631
32.777
42.0999
60.5334
91.3249
143.562
232.758
398.895
726.341
868.109
809.947
694.237
395.916
233.986
146.192
93.6379
60.9
43.705
34.1887
29.811
29.5257
33.6801
42.9511
59.6126
90.0997
143.458
233.56
392.778
716.301
864.112
805.273
713.927
392.749
234.917
146.083
92.5747
61.5228
43.7187
34.0706
29.5902
28.5572
33.3318
42.6537
60.2632
90.4391
142.976
233.554
396.82
734.116
864.59
789.874
715.968
396.922
235.284
145.429
92.0879
60.0242
43.3379
34.0173
29.586
29.2688
33.111
42.2074
60.0477
89.3724
142.943
232.015
398.844
732.038
836.798
797.815
715.875
393.202
234.932
145.456
91.7963
60.4131
42.452
33.7828
28.7506
28.181
31.7816
40.519
59.8837
90.1538
143.845
233.217
402.796
730.019
866.816
807.633
714.078
393.848
234.893
145.538
91.6537
61.0253
43.4771
33.9447
29.6979
28.8952
32.2707
41.0461
59.941
91.0226
143.876
232.959
399.494
725.098
783.056
839.763
720.521
394.67
234.839
145.51
91.481
60.7461
43.4707
33.9632
29.913
29.7384
32.7328
41.3614
59.8406
90.1069
143.819
233.902
403.743
724.607
788.469
799.173
718.694
395.967
235.175
145.5
91.8681
59.239
43.2714
33.8356
29.8304
29.9276
33.5675
42.2453
59.8091
90.4671
143.653
234.495
399.907
724.996
792.908
840.868
718.47
398.844
235.277
145.153
90.758
59.5876
43.379
33.6763
29.6926
29.7985
33.4858
41.1483
59.4113
89.6876
143.932
235.592
406.584
722.859
837.186
805.84
714.883
393.375
233.73
144.921
91.9848
60.1974
43.3918
32.718
29.3779
29.6701
33.4947
42.389
59.3323
89.6432
143.239
235.332
406.428
737.485
805.504
771.583
713.113
395.872
233.634
144.513
90.8291
61.3149
43.6064
33.8603
28.8925
29.2554
33.2938
42.2011
57.9716
89.1834
143.208
235.484
400.222
739.782
821.606
771.415
711.898
398.235
233.631
144.486
91.832
61.3975
43.4284
34.0306
29.9444
29.7539
32.7317
41.9558
58.0193
88.817
142.722
235.647
404.951
741.278
870.192
781.721
709.879
397.592
233.392
145.342
92.9859
61.0743
42.2246
33.68
29.8018
29.6818
32.4582
41.8459
57.9108
88.3826
142.227
235.761
406.515
738.311
852.734
787.463
712.103
397.428
233.473
145.323
92.9894
59.8234
43.4087
32.9653
29.6111
29.6867
32.821
41.1412
58.0777
87.9949
141.725
234.639
402.887
735.2
838.908
827.053
703.996
396.595
233.673
145.362
92.9446
60.8882
43.8145
33.8425
28.8619
29.5548
32.6085
42.2306
59.0396
87.2506
141.469
234.835
403.065
732.72
795.502
792.073
713.91
394.281
233.61
145.546
92.0284
61.7893
43.8503
33.5676
29.1879
29.5797
33.3391
42.2776
59.225
87.1678
141.444
234.521
406.2
732.917
798.813
799.975
712.403
397.091
233.927
145.673
93.0595
61.059
43.7736
33.9184
29.6409
29.4523
33.1196
41.2633
59.234
87.1433
140.785
234.457
404.921
733.479
838.37
844.175
703.75
396.094
234.935
147.034
92.472
62.4122
42.8483
32.624
28.441
28.2921
32.1503
42.5226
59.7279
88.2886
140.708
233.415
403.169
730.363
784.227
809.433
710.063
393.915
235.691
147.351
94.6519
62.7301
43.5837
33.0762
29.1792
29.1513
32.9558
42.7066
59.9551
90.2546
140.88
232.647
399.126
730.114
784.382
838.807
700.032
396.479
236.186
147.357
94.4843
62.3848
42.3059
33.0452
29.9358
30.0643
33.8473
42.5761
59.9467
90.5985
141.767
232.282
401.394
730.822
795.11
792.547
706.666
395.365
236.259
147.607
94.4682
62.1176
42.6869
33.696
30.037
30.1001
33.7075
41.4654
59.7443
90.7371
140.983
231.31
399.894
731.081
803.502
836.847
706.262
398.056
236.102
147.431
93.6212
61.0534
43.1203
32.8327
29.133
29.7884
33.8312
43.0037
59.0709
91.0767
142.88
231.259
395.579
730.286
844.215
828.046
711.668
397.202
236.243
147.501
94.6381
62.2164
42.4958
33.9417
29.9585
29.0625
33.9821
42.9937
61.2416
91.5974
142.597
231.787
397.468
727.048
800.98
823.1
697.408
395.623
236.517
147.858
94.6332
62.0943
43.4475
33.2667
29.8804
29.3302
33.458
44.0767
61.7945
93.0857
144.385
231.395
401.662
726.953
809.932
800.436
703.962
393.789
236.062
147.542
94.2055
60.4293
42.1366
33.9894
29.9969
30.0819
34.3659
44.0327
60.64
93.0976
144.642
233.109
401.757
727.152
822.794
827.682
710.164
395.652
235.389
147.258
93.3182
60.5044
42.7389
34.0447
29.7431
29.8921
34.2416
43.8219
62.0079
93.1628
143.935
233.669
400.671
725.56
863.794
779.849
705.849
395.846
235.235
147.408
93.5313
60.4495
43.4636
33.9763
28.7466
28.6754
33.0152
43.695
61.8398
93.6095
146.258
235.183
395.674
721.276
818.2
817.536
704.759
395.024
235.279
147.179
93.5378
60.6933
43.3808
33.9435
29.7
29.245
33.4083
42.7328
60.2997
92.4238
146.827
237.726
401.116
713.547
864.006
792.519
700.995
393.406
234.986
147.16
94.0939
61.4179
42.3385
32.9407
28.9153
29.5438
33.9445
43.5745
61.1444
93.2509
145.929
237.983
403.766
718.828
834.855
821.633
692.367
390.996
234.911
147.129
93.977
60.5833
43.5956
34.1021
29.7809
28.9067
33.1113
42.8047
61.9846
93.0132
146.028
237.32
403.384
708.147
800.599
782.091
704.181
393.387
235.255
146.944
93.4956
62.1685
43.6585
34.1026
29.8542
29.7926
34.1853
44.0774
61.9917
92.9524
144.912
235.963
403.056
718.718
803.88
819.298
703.323
390.649
234.367
146.402
93.8584
61.8648
42.3211
33.7511
29.5164
28.7328
33.0089
43.5211
61.5329
92.3364
145.535
236.565
400.229
722.342
813.363
789.947
699.602
392.434
233.796
146.245
93.658
61.7177
43.24
33.6427
29.4401
29.3272
33.0566
42.3401
60.3092
92.5372
145.593
235.802
402.152
721.36
816.361
796.703
696.859
391.106
233.581
145.846
92.3257
61.1475
42.8621
33.2038
28.4013
28.9563
32.7707
42.2828
60.1408
91.6368
145.208
235.099
397.826
711.366
825.032
834.639
688.918
387.405
233.347
145.767
92.0224
60.5026
41.461
32.9113
28.8169
28.1355
32.3132
41.6676
59.4623
91.216
144.789
234.531
395.125
712.483
847.47
808.076
695.693
388.298
233.127
145.067
91.6315
60.0385
41.3533
32.5626
28.617
28.1146
32.0084
41.1825
58.8316
90.5626
144.217
234.551
393.506
714.035
787.885
816.814
693.241
386.682
232.599
144.578
90.1737
58.3893
40.8348
32.1735
28.209
27.9106
31.8945
40.8987
57.9881
89.7675
143.282
231.679
391.703
709.733
830.111
860.774
684.219
384.812
232.078
144.087
89.9636
58.3918
40.8502
31.7009
27.7703
27.164
31.2868
40.2185
57.1464
88.9212
142.803
229.637
391.866
714.314
783.579
829.375
688.736
383.439
230.732
143.14
88.6665
57.5395
40.1887
31.0913
26.6506
26.4911
29.8185
38.4396
55.7175
87.2092
141.983
229.277
390.756
713.29
791.027
796.629
683.239
380.087
228.004
141.306
87.1344
55.3644
38.3133
29.7115
26.5167
26.275
29.2663
37.561
54.0542
85.9205
140.913
229.316
388.819
706.616
799.244
801.146
674.822
377.573
225.792
139.631
85.3654
54.3808
38.0973
29.6079
26.0637
25.203
28.4122
36.1364
52.5693
83.8842
138.509
224.602
386.024
711.673
841.079
839.046
676.256
374.324
223.943
137.79
83.791
52.9303
36.2748
28.4236
25.0132
24.8035
27.8021
35.2813
50.8433
81.5621
136.534
221.149
382.372
698.152
791.266
776.487
667.705
369.529
219.046
134.888
81.3113
50.8765
35.2806
27.8634
24.7533
24.6839
27.7215
34.7409
49.8771
79.7615
134.552
220.199
381.866
696.556
795.12
773.918
662.962
367.072
215.179
131.899
78.9695
49.6502
34.4083
27.236
24.1766
24.3449
27.628
34.5136
48.7145
77.9167
132.321
218.808
377.846
690.224
804.216
779.689
653.797
362.218
209.313
128.773
76.9493
48.176
33.5483
26.6051
23.9135
24.4751
27.6559
34.597
47.7031
75.6223
129.26
218.442
374.38
682.83
842.238
799.236
637.555
355.533
206.939
124.816
74.2598
46.6714
32.5804
25.9844
23.4034
24.0054
27.1278
33.9677
46.6495
73.7719
126.421
219.854
369.642
666.526
767.776
692.498
617.996
342.537
205.951
120.183
71.4854
44.9721
31.5027
25.0668
22.5956
22.8297
25.7076
32.355
45.5123
71.5625
122.468
213.121
366.769
655.053
808.795
686.941
602.743
330.193
195.612
114.942
67.6402
42.6922
30.2951
24.4172
21.9889
22.0738
24.725
31.1313
44.2612
69.0748
118.18
206.61
356.704
644.626
755.008
678.647
588.413
317.625
189.105
109.861
64.3005
40.515
29.0829
23.5894
21.3936
21.5087
23.9889
30.0055
42.0734
66.3138
113.928
199.175
344.267
633.498
787.373
681.648
576.411
307.03
181.32
103.666
60.3785
38.6697
27.9894
22.8385
20.7827
20.8996
23.2404
28.7181
40.157
63.417
109.417
192.462
332.444
602.251
705.372
694.365
554.433
294.814
172.485
97.5034
56.8444
36.6185
26.8744
22.2167
20.3368
20.433
22.5617
27.62
38.1507
59.7458
103.516
183.839
319.932
583.872
715.254
565
530.992
284.228
162.401
90.3253
52.7218
34.609
25.8529
21.5918
19.8712
19.9461
21.8442
26.3825
35.8157