/*--------------------------------*- C++ -*----------------------------------*\
  =========                 |
  \\      /  F ield         | OpenFOAM: The Open Source CFD Toolbox
   \\    /   O peration     | Website:  https://openfoam.org
    \\  /    A nd           | Version:  6
     \\/     M anipulation  |
\*---------------------------------------------------------------------------*/
FoamFile
{
    version     2.0;
    format      ascii;
    class       volScalarField;
    location    "9";
    object      k;
}
// * * * * * * * * * * * * * * * * * * * * * * * * * * * * * * * * * * * * * //

dimensions      [0 2 -2 0 0 0 0];

internalField   nonuniform List<scalar> 
130000
(
0.402583
0.402379
0.400802
0.398022
0.394255
0.389779
0.384891
0.379876
0.374985
0.370412
0.366296
0.362717
0.359704
0.357246
0.355306
0.353829
0.352753
0.352015
0.351557
0.351331
0.402878
0.40272
0.401156
0.398362
0.394565
0.390049
0.385119
0.380066
0.375142
0.370547
0.366416
0.362828
0.359811
0.357354
0.355417
0.353945
0.352875
0.352144
0.351694
0.351475
0.403113
0.402987
0.401435
0.398635
0.394817
0.390271
0.385306
0.380218
0.375264
0.370643
0.366492
0.362888
0.359858
0.357392
0.355449
0.353973
0.352902
0.352171
0.351722
0.351506
0.403283
0.403172
0.401622
0.39881
0.39497
0.390396
0.385404
0.38029
0.375315
0.370677
0.366512
0.362897
0.359858
0.357384
0.355435
0.353955
0.352881
0.352149
0.351702
0.35149
0.403397
0.403283
0.401721
0.398887
0.395024
0.390431
0.385421
0.380293
0.375306
0.37066
0.366489
0.362871
0.359832
0.357358
0.35541
0.353932
0.35286
0.352131
0.351688
0.351482
0.403471
0.403342
0.401753
0.398893
0.39501
0.3904
0.385379
0.380244
0.375253
0.370606
0.366436
0.362821
0.359786
0.357318
0.355376
0.353903
0.352838
0.352118
0.351684
0.35148
0.403523
0.403369
0.401749
0.398865
0.39496
0.390334
0.385301
0.380161
0.37517
0.370525
0.366361
0.362753
0.359727
0.357268
0.355334
0.353871
0.352813
0.352102
0.351677
0.351474
0.403558
0.403374
0.401726
0.398816
0.394889
0.390246
0.385203
0.380058
0.375068
0.370428
0.366272
0.362675
0.35966
0.357212
0.355289
0.353835
0.352785
0.352077
0.351653
0.351452
0.403594
0.403379
0.401704
0.398764
0.394813
0.390151
0.385097
0.379948
0.374958
0.370324
0.366178
0.362593
0.35959
0.357155
0.355244
0.3538
0.352758
0.352054
0.351627
0.351426
0.403639
0.403394
0.40169
0.398718
0.394739
0.390058
0.38499
0.379836
0.374848
0.370221
0.366084
0.362511
0.359521
0.357098
0.355199
0.353766
0.352734
0.352036
0.351614
0.351417
0.403693
0.40342
0.401685
0.39868
0.394673
0.38997
0.38489
0.379729
0.374742
0.37012
0.365993
0.362431
0.359454
0.357044
0.355157
0.353735
0.352712
0.352025
0.351613
0.351421
0.403757
0.403454
0.401685
0.398651
0.394616
0.389891
0.384796
0.379629
0.374641
0.370024
0.365906
0.362355
0.359391
0.356993
0.355118
0.353705
0.35269
0.352009
0.351602
0.351415
0.403828
0.403498
0.401695
0.398635
0.39457
0.389822
0.384711
0.379536
0.374547
0.369934
0.365824
0.362284
0.359331
0.356945
0.35508
0.353677
0.352668
0.351991
0.351586
0.351407
0.403916
0.403557
0.401721
0.398628
0.394534
0.389763
0.384636
0.379451
0.374459
0.36985
0.365747
0.362216
0.359274
0.3569
0.355045
0.35365
0.352649
0.351977
0.351577
0.351402
0.404013
0.403628
0.40176
0.398631
0.394512
0.389716
0.384571
0.379375
0.374379
0.369771
0.365675
0.362153
0.359221
0.356857
0.355013
0.353627
0.352634
0.351967
0.35157
0.351393
0.404122
0.403712
0.401812
0.398651
0.394506
0.389682
0.384517
0.379309
0.374308
0.3697
0.365608
0.362094
0.359172
0.356818
0.354984
0.353609
0.352628
0.35197
0.351576
0.351397
0.404244
0.403811
0.40188
0.398685
0.394507
0.389661
0.384476
0.379254
0.374246
0.369638
0.365549
0.362042
0.359128
0.356783
0.354959
0.353594
0.352619
0.351969
0.351578
0.351394
0.404387
0.403929
0.401967
0.398737
0.394524
0.389654
0.384449
0.379213
0.374197
0.369586
0.3655
0.361998
0.359091
0.356754
0.354937
0.353578
0.352604
0.351959
0.351568
0.35138
0.404554
0.404071
0.402076
0.39881
0.394562
0.389661
0.384438
0.379186
0.37416
0.369546
0.365461
0.361963
0.359063
0.356733
0.354923
0.353569
0.352599
0.35195
0.351561
0.351382
0.404738
0.404231
0.402203
0.398901
0.394618
0.389686
0.384438
0.379171
0.374135
0.369516
0.365432
0.361939
0.359046
0.356724
0.354919
0.353567
0.352598
0.351947
0.351566
0.3514
0.404937
0.404407
0.402347
0.399008
0.394689
0.389724
0.384448
0.379166
0.37412
0.369496
0.365412
0.361924
0.359036
0.356718
0.354916
0.353565
0.352604
0.351966
0.351595
0.351435
0.405152
0.4046
0.402507
0.399131
0.394774
0.389776
0.384472
0.379168
0.374113
0.369483
0.365399
0.361915
0.35903
0.356715
0.354921
0.353583
0.352632
0.352003
0.351638
0.351483
0.405388
0.404812
0.402685
0.39927
0.394874
0.38984
0.384507
0.379181
0.374111
0.369475
0.36539
0.361911
0.359033
0.35673
0.354947
0.353618
0.352675
0.352052
0.351692
0.35154
0.405638
0.40504
0.402878
0.399423
0.394987
0.389916
0.384552
0.379201
0.374113
0.369469
0.365381
0.361903
0.359035
0.356745
0.354974
0.353656
0.352723
0.352106
0.351748
0.351597
0.405906
0.405284
0.403088
0.399592
0.395114
0.390004
0.384606
0.379229
0.374122
0.369466
0.36537
0.361888
0.359022
0.356739
0.354975
0.353666
0.352741
0.352133
0.35178
0.351635
0.406194
0.405549
0.403316
0.399777
0.395255
0.390103
0.38467
0.379264
0.374135
0.369465
0.36536
0.361872
0.359004
0.356719
0.354959
0.353655
0.352738
0.352143
0.3518
0.35166
0.406506
0.405836
0.403564
0.39998
0.395411
0.390215
0.384744
0.379306
0.374154
0.369466
0.365353
0.361861
0.358991
0.356706
0.35495
0.353654
0.352742
0.352151
0.351812
0.35167
0.406837
0.406141
0.403829
0.400198
0.39558
0.390339
0.384827
0.379358
0.374181
0.369477
0.365354
0.361858
0.358985
0.356701
0.354948
0.353656
0.352744
0.352147
0.351802
0.351657
0.407184
0.406463
0.404111
0.400431
0.395763
0.390474
0.384921
0.379417
0.374214
0.369492
0.365358
0.361857
0.358983
0.3567
0.354948
0.353654
0.352739
0.352138
0.35179
0.351644
0.407548
0.406802
0.404408
0.400679
0.395959
0.390621
0.385025
0.379485
0.374254
0.369511
0.365362
0.361855
0.358979
0.356697
0.354947
0.353652
0.352737
0.352142
0.351804
0.351663
0.407929
0.407159
0.404724
0.400944
0.396171
0.390782
0.38514
0.379563
0.374302
0.369536
0.365373
0.361854
0.358976
0.356694
0.354946
0.353652
0.352744
0.352152
0.35182
0.351682
0.408329
0.407535
0.405058
0.401227
0.396399
0.390958
0.385269
0.379652
0.37436
0.369571
0.365391
0.361861
0.358978
0.356694
0.354941
0.353647
0.352743
0.352148
0.351821
0.351684
0.408749
0.407933
0.405414
0.40153
0.396646
0.39115
0.385412
0.379754
0.374429
0.369615
0.365416
0.361873
0.358979
0.35669
0.354938
0.353648
0.352742
0.352147
0.351815
0.35168
0.409192
0.408354
0.405792
0.401854
0.396912
0.391359
0.385571
0.37987
0.37451
0.36967
0.365452
0.361894
0.358989
0.356691
0.354937
0.353645
0.352739
0.352151
0.351817
0.351681
0.409659
0.408801
0.406196
0.402202
0.3972
0.391588
0.385747
0.380001
0.374605
0.369738
0.365499
0.361927
0.359012
0.356705
0.354941
0.353644
0.352737
0.352152
0.351819
0.351683
0.410154
0.409275
0.406627
0.402576
0.397511
0.391838
0.385941
0.380148
0.374714
0.369817
0.365558
0.361972
0.359046
0.356734
0.354966
0.353665
0.352754
0.352162
0.351826
0.351687
0.410679
0.409781
0.407088
0.402978
0.397848
0.392111
0.386156
0.380313
0.374839
0.369911
0.365628
0.362027
0.359092
0.356774
0.355003
0.353701
0.35279
0.352197
0.35186
0.35172
0.411236
0.41032
0.407582
0.40341
0.398213
0.39241
0.386393
0.380497
0.37498
0.370019
0.365713
0.362095
0.359149
0.356825
0.355052
0.353749
0.352838
0.352245
0.351908
0.351767
0.411829
0.410896
0.408112
0.403877
0.39861
0.392737
0.386655
0.380704
0.375142
0.370145
0.365813
0.362177
0.35922
0.35689
0.355113
0.353809
0.352897
0.352304
0.351966
0.351824
0.41246
0.411511
0.408681
0.404381
0.399041
0.393095
0.386946
0.380936
0.375326
0.370292
0.365932
0.362277
0.359307
0.356969
0.355188
0.353882
0.352969
0.352375
0.352035
0.351889
0.413134
0.41217
0.409292
0.404926
0.399509
0.393487
0.387267
0.381196
0.375535
0.370461
0.366071
0.362395
0.359411
0.357064
0.355278
0.353969
0.353054
0.352457
0.352115
0.351965
0.413852
0.412876
0.40995
0.405514
0.400019
0.393916
0.387622
0.381485
0.37577
0.370653
0.366231
0.362532
0.359532
0.357175
0.355382
0.354069
0.353152
0.352552
0.352206
0.352052
0.41462
0.413634
0.410659
0.406151
0.400572
0.394386
0.388013
0.381807
0.376034
0.370871
0.366414
0.362689
0.359672
0.357303
0.355503
0.354185
0.353264
0.352661
0.35231
0.352152
0.415441
0.414446
0.411422
0.40684
0.401174
0.3949
0.388444
0.382164
0.376329
0.371117
0.366622
0.36287
0.359833
0.357451
0.355642
0.354318
0.353392
0.352785
0.352429
0.352264
0.416322
0.41532
0.412245
0.407585
0.401829
0.395461
0.388918
0.38256
0.376659
0.371394
0.366858
0.363075
0.360016
0.357619
0.355801
0.35447
0.353538
0.352926
0.352564
0.352392
0.417266
0.41626
0.413134
0.408393
0.402542
0.396076
0.389439
0.382998
0.377027
0.371705
0.367124
0.363308
0.360226
0.357812
0.355982
0.354644
0.353706
0.353087
0.352719
0.35254
0.418279
0.417272
0.414094
0.409269
0.403319
0.396749
0.390013
0.383483
0.377437
0.372053
0.367425
0.363573
0.360464
0.358032
0.35619
0.354842
0.353897
0.353272
0.352897
0.35271
0.419366
0.418362
0.415132
0.410221
0.404165
0.397486
0.390645
0.384021
0.377894
0.372444
0.367764
0.363872
0.360735
0.358283
0.356426
0.355068
0.354114
0.353482
0.353098
0.352902
0.420537
0.41954
0.416258
0.411256
0.40509
0.398295
0.391342
0.384618
0.378404
0.372883
0.368146
0.364212
0.361043
0.358568
0.356695
0.355325
0.354362
0.35372
0.353327
0.35312
0.421803
0.420817
0.417481
0.412384
0.406102
0.399184
0.392112
0.38528
0.378973
0.373375
0.368577
0.364596
0.361393
0.358892
0.357001
0.355617
0.354643
0.353991
0.353585
0.353364
0.423175
0.422203
0.418812
0.413616
0.407211
0.400162
0.392963
0.386015
0.379608
0.373927
0.369063
0.365031
0.36179
0.359262
0.35735
0.355951
0.354964
0.3543
0.35388
0.353643
0.424662
0.423709
0.420261
0.414961
0.408426
0.401237
0.393904
0.386832
0.380317
0.374547
0.369612
0.365524
0.362241
0.359682
0.357748
0.356332
0.35533
0.354652
0.354218
0.353964
0.426272
0.425343
0.42184
0.416431
0.409758
0.402422
0.394944
0.387739
0.38111
0.375244
0.370231
0.366083
0.362755
0.360162
0.358203
0.356767
0.35575
0.355056
0.354604
0.354332
0.428016
0.42712
0.42356
0.418038
0.41122
0.403728
0.396095
0.38875
0.381996
0.376027
0.370931
0.366718
0.36334
0.36071
0.358723
0.357266
0.35623
0.355518
0.355048
0.354754
0.429908
0.429053
0.425438
0.419798
0.412828
0.405169
0.397373
0.389875
0.38299
0.376909
0.371722
0.367439
0.364007
0.361337
0.35932
0.357838
0.356782
0.35605
0.355559
0.355242
0.431965
0.431161
0.427493
0.42173
0.414598
0.406763
0.398792
0.391133
0.384104
0.377903
0.37262
0.36826
0.36477
0.362056
0.360004
0.358496
0.357417
0.356663
0.356149
0.355804
0.434207
0.433465
0.429744
0.423854
0.416552
0.40853
0.400372
0.392539
0.385358
0.379028
0.37364
0.369198
0.365644
0.362881
0.360793
0.359255
0.35815
0.357372
0.35683
0.356455
0.436654
0.435987
0.432218
0.426196
0.418715
0.410493
0.402136
0.394118
0.386772
0.380304
0.374802
0.37027
0.366647
0.363831
0.361702
0.360132
0.358998
0.358191
0.357619
0.357209
0.439331
0.438756
0.434941
0.428783
0.421113
0.412679
0.40411
0.395893
0.388372
0.381753
0.376129
0.3715
0.367801
0.364928
0.362754
0.361148
0.359981
0.359142
0.358535
0.358084
0.442266
0.441802
0.437947
0.431648
0.42378
0.415122
0.406326
0.397896
0.390185
0.383405
0.377649
0.372915
0.369134
0.366198
0.363975
0.362328
0.361125
0.360249
0.359602
0.359104
0.445493
0.445161
0.441273
0.434831
0.426755
0.417858
0.40882
0.400162
0.392249
0.385295
0.379397
0.374548
0.370679
0.367674
0.365396
0.363703
0.362459
0.361542
0.360847
0.360295
0.44905
0.448876
0.444965
0.438378
0.430083
0.420934
0.411639
0.402737
0.394605
0.387465
0.381412
0.376441
0.372475
0.369394
0.367056
0.365313
0.364022
0.363055
0.362307
0.361691
0.45298
0.452997
0.449076
0.442341
0.433819
0.424405
0.414835
0.405672
0.397306
0.389966
0.383747
0.378641
0.37457
0.371406
0.369002
0.367202
0.365857
0.364835
0.364024
0.363333
0.457344
0.457581
0.453666
0.446787
0.43803
0.428334
0.418474
0.409033
0.400417
0.39286
0.386462
0.381212
0.377026
0.373772
0.371293
0.369429
0.368023
0.366936
0.36605
0.365272
0.462193
0.462695
0.458811
0.451792
0.442793
0.432804
0.422636
0.412899
0.404015
0.396226
0.389635
0.384229
0.379918
0.376564
0.374003
0.372066
0.370589
0.369426
0.368454
0.367571
0.467604
0.468425
0.4646
0.457452
0.448207
0.437912
0.427419
0.417368
0.408198
0.400162
0.393363
0.387788
0.383341
0.379877
0.377224
0.375204
0.373645
0.372393
0.371316
0.370309
0.473667
0.474873
0.471146
0.463883
0.45439
0.443779
0.432946
0.422564
0.41309
0.404789
0.397767
0.392009
0.387415
0.383829
0.381073
0.378957
0.377302
0.375944
0.374743
0.373586
0.480486
0.482162
0.478583
0.471227
0.461492
0.450558
0.439372
0.42864
0.418845
0.410262
0.403003
0.397047
0.392291
0.388571
0.385698
0.383472
0.381703
0.380217
0.378866
0.377527
0.488193
0.49044
0.487075
0.479661
0.469697
0.458438
0.446888
0.435794
0.425662
0.41678
0.409267
0.403099
0.398167
0.394298
0.391291
0.388936
0.387031
0.38539
0.383855
0.382294
0.496944
0.499892
0.496828
0.489405
0.479236
0.467659
0.455743
0.444276
0.433793
0.4246
0.416817
0.410422
0.405298
0.401262
0.398101
0.395594
0.393523
0.391693
0.389931
0.388094
0.506936
0.51075
0.508102
0.500741
0.490407
0.478532
0.466255
0.454413
0.443572
0.434054
0.425988
0.419351
0.414017
0.409793
0.406455
0.403764
0.401491
0.399424
0.397379
0.395198
0.518412
0.523302
0.521223
0.514025
0.503589
0.491455
0.478838
0.466629
0.45543
0.445583
0.437225
0.430331
0.424768
0.420332
0.416784
0.41387
0.411346
0.408982
0.406578
0.403963
0.53168
0.537916
0.53661
0.529715
0.519276
0.506948
0.494033
0.481484
0.469943
0.459771
0.451117
0.443954
0.438142
0.433465
0.429667
0.42648
0.423638
0.420897
0.418036
0.414867
0.547127
0.55506
0.5548
0.548406
0.538106
0.525689
0.512553
0.499717
0.487868
0.477393
0.46845
0.461011
0.454931
0.449979
0.445883
0.442354
0.43911
0.435883
0.432434
0.428552
0.565252
0.575337
0.576485
0.570864
0.560911
0.548564
0.535329
0.5223
0.510211
0.499477
0.49027
0.482561
0.476196
0.470929
0.466473
0.462517
0.458758
0.454904
0.450691
0.445884
0.586688
0.599524
0.602543
0.598074
0.588768
0.576727
0.563581
0.550505
0.538288
0.527378
0.517957
0.509999
0.50334
0.497719
0.492829
0.488338
0.483917
0.47925
0.474044
0.468032
0.612222
0.628705
0.634015
0.631288
0.623056
0.611659
0.598873
0.585968
0.573798
0.562841
0.553297
0.545138
0.538191
0.532178
0.526771
0.521613
0.51635
0.510633
0.504136
0.496552
0.642927
0.664154
0.672607
0.672201
0.665555
0.655236
0.643173
0.630744
0.618865
0.608054
0.598525
0.590251
0.583046
0.576615
0.570607
0.564636
0.558316
0.551262
0.543104
0.533482
0.680131
0.707441
0.720016
0.72277
0.718397
0.709727
0.698864
0.687306
0.676043
0.665637
0.656318
0.64806
0.640665
0.633816
0.627134
0.620203
0.612595
0.603879
0.593625
0.581407
0.725429
0.760561
0.778508
0.785388
0.784123
0.777795
0.768708
0.758496
0.748242
0.738556
0.729693
0.721629
0.714155
0.706928
0.699538
0.691527
0.682415
0.671707
0.658895
0.643456
0.78084
0.825813
0.850875
0.862559
0.865554
0.862396
0.855733
0.84739
0.838565
0.829942
0.82181
0.814153
0.806754
0.799241
0.791168
0.782018
0.771246
0.758268
0.74247
0.723187
0.848809
0.905994
0.940042
0.957965
0.965961
0.966712
0.963084
0.957095
0.950088
0.942841
0.935699
0.928669
0.921527
0.913876
0.905217
0.894965
0.882484
0.867076
0.847976
0.824329
0.932162
1.00404
1.04897
1.07467
1.08811
1.09374
1.09372
1.09048
1.08557
1.07992
1.07396
1.06774
1.06104
1.05344
1.04437
1.03317
1.01908
1.00125
0.978733
0.950403
1.03392
1.12325
1.18101
1.21603
1.23586
1.24648
1.25026
1.2499
1.24716
1.24315
1.23842
1.2331
1.22699
1.21964
1.21042
1.19854
1.18311
1.16311
1.13731
1.10428
1.15721
1.26666
1.33882
1.38423
1.41122
1.42642
1.4342
1.43662
1.43584
1.43325
1.42959
1.42511
1.41965
1.41274
1.40368
1.39154
1.37527
1.3536
1.32501
1.28768
1.30498
1.4369
1.52478
1.58103
1.61542
1.6351
1.64574
1.65036
1.65081
1.64896
1.64584
1.64187
1.63694
1.6306
1.62206
1.61027
1.59393
1.5715
1.54108
1.50038
1.47966
1.63572
1.73995
1.80687
1.84789
1.87121
1.88328
1.88815
1.88815
1.88562
1.88194
1.87776
1.87309
1.86743
1.85985
1.84915
1.8338
1.81198
1.78136
1.73905
1.68261
1.86326
1.98319
2.05923
2.10458
2.12892
2.13978
2.14196
2.13873
2.13307
2.12688
2.12114
2.11599
2.11094
2.10492
2.09645
2.08369
2.06452
2.03621
1.99522
1.91349
2.11722
2.25019
2.33172
2.37699
2.39774
2.40269
2.39705
2.38599
2.37326
2.36137
2.35169
2.34459
2.33968
2.33575
2.33103
2.3233
2.31
2.28784
2.25268
2.1694
2.39155
2.53168
2.61162
2.64929
2.6588
2.64951
2.62874
2.60307
2.57757
2.55539
2.53825
2.52686
2.52102
2.51946
2.51995
2.52007
2.51729
2.50714
2.48449
2.44366
2.67483
2.8113
2.87788
2.8965
2.88252
2.84758
2.80102
2.751
2.70319
2.66242
2.63187
2.61261
2.60442
2.6062
2.61594
2.62997
2.64386
2.65223
2.65087
2.72451
2.94838
3.06295
3.09911
3.08071
3.02373
2.94464
2.85916
2.78055
2.70966
2.6515
2.60862
2.5818
2.57072
2.57393
2.5895
2.61441
2.64474
2.67491
2.69745
2.99347
3.18281
3.24878
3.22662
3.14504
3.03519
2.90894
2.78034
2.6573
2.55258
2.46906
2.40803
2.3695
2.35277
2.35579
2.37687
2.4148
2.46684
2.52885
2.59695
3.22258
3.33727
3.31736
3.21258
3.05138
2.85847
2.66336
2.48094
2.32081
2.18812
2.08448
2.00939
1.96137
1.93891
1.9395
1.96169
2.00692
2.075
2.1637
2.26743
3.36869
3.36134
3.2131
2.97574
2.70403
2.43132
2.18053
1.96427
1.78707
1.64811
1.54374
1.46942
1.421
1.3957
1.39104
1.40608
1.44613
1.51588
1.61693
1.74647
3.36742
3.1548
2.81859
2.43981
2.07523
1.75881
1.50284
1.30643
1.1615
1.05715
0.983247
0.931785
0.896818
0.875153
0.865487
0.868703
0.893502
0.955171
1.05709
1.19726
3.06703
2.58686
2.06688
1.60051
1.23736
0.986613
0.824189
0.721837
0.657887
0.618204
0.59351
0.577924
0.568909
0.565294
0.566858
0.574719
0.595548
0.643594
0.742778
0.938105
2.13134
1.50579
1.049
0.778123
0.637796
0.558408
0.510343
0.480956
0.462772
0.451248
0.4442
0.440438
0.439623
0.441395
0.446368
0.45692
0.477501
0.522515
0.63788
0.936491
1.03711
0.757032
0.58144
0.490015
0.44499
0.422035
0.408892
0.400625
0.395527
0.392571
0.391216
0.390896
0.391505
0.392995
0.396086
0.401347
0.413553
0.448947
0.573813
0.989847
0.671449
0.469906
0.413156
0.394889
0.386286
0.381643
0.379117
0.377767
0.377092
0.37682
0.376858
0.377126
0.377632
0.378261
0.378925
0.379432
0.380649
0.386623
0.428644
0.689006
0.355769
0.355427
0.354941
0.354387
0.353786
0.353167
0.352563
0.352006
0.351529
0.351159
0.350913
0.350795
0.350804
0.35093
0.351154
0.351453
0.351802
0.352178
0.352557
0.352927
0.355991
0.355641
0.35515
0.354586
0.353971
0.353334
0.352708
0.352124
0.351631
0.351251
0.350997
0.350874
0.350881
0.351009
0.351238
0.351536
0.351888
0.352273
0.352654
0.353018
0.356096
0.355737
0.355232
0.354662
0.354035
0.353383
0.352741
0.352141
0.351638
0.351251
0.35099
0.350863
0.350866
0.350992
0.351222
0.351522
0.351879
0.352274
0.352652
0.353002
0.35615
0.355784
0.355268
0.354685
0.354037
0.353378
0.352739
0.352153
0.351659
0.351273
0.351012
0.350882
0.350879
0.350991
0.351214
0.351524
0.351887
0.352274
0.352646
0.352993
0.356173
0.355806
0.355291
0.354696
0.354038
0.353383
0.352752
0.352172
0.351678
0.351282
0.351018
0.350888
0.350887
0.351006
0.351223
0.35153
0.351892
0.352267
0.352632
0.352991
0.356165
0.355796
0.355282
0.354699
0.354052
0.353392
0.352753
0.352177
0.35168
0.351284
0.351022
0.350894
0.350896
0.351024
0.351238
0.351533
0.351879
0.35225
0.352624
0.352993
0.356182
0.355809
0.355294
0.354707
0.354057
0.353394
0.352754
0.352171
0.351672
0.351286
0.351025
0.350897
0.350897
0.351017
0.351241
0.351533
0.351861
0.35224
0.352634
0.353008
0.356212
0.355828
0.35531
0.354714
0.354062
0.35341
0.352769
0.352175
0.351673
0.351284
0.351022
0.350891
0.350889
0.351007
0.351226
0.351515
0.35185
0.35223
0.352616
0.352994
0.356213
0.355822
0.355297
0.354704
0.354055
0.353405
0.352769
0.352185
0.351686
0.351297
0.35103
0.350894
0.35089
0.351006
0.351223
0.351517
0.351861
0.352233
0.35261
0.352979
0.356204
0.355818
0.35529
0.354697
0.354043
0.353387
0.352748
0.352166
0.351671
0.351288
0.351032
0.350902
0.3509
0.351018
0.351239
0.351525
0.351866
0.352239
0.352603
0.352957
0.356201
0.355818
0.355298
0.354688
0.354036
0.353377
0.352738
0.352155
0.351659
0.351278
0.351031
0.350911
0.350916
0.351041
0.351253
0.351533
0.351867
0.352224
0.352577
0.352936
0.356205
0.355829
0.355296
0.354685
0.354037
0.353386
0.35275
0.352168
0.351671
0.351288
0.351032
0.350911
0.350916
0.351042
0.351253
0.351534
0.351862
0.352207
0.352568
0.352931
0.356219
0.355826
0.355292
0.354684
0.354033
0.353372
0.352737
0.352166
0.351677
0.351299
0.351046
0.35092
0.350914
0.351033
0.351243
0.351525
0.351858
0.352216
0.352578
0.352935
0.356225
0.355819
0.355283
0.354668
0.354016
0.353355
0.352727
0.352161
0.351673
0.351296
0.351044
0.350919
0.350912
0.351034
0.351244
0.351521
0.351854
0.35222
0.352595
0.352954
0.356224
0.355825
0.355284
0.35468
0.35403
0.353366
0.352732
0.352145
0.35165
0.351271
0.351022
0.350908
0.35091
0.351018
0.351225
0.351503
0.351843
0.352217
0.352603
0.352969
0.35621
0.355813
0.355277
0.354672
0.354025
0.353365
0.352728
0.352139
0.351642
0.351258
0.351003
0.350887
0.350888
0.351003
0.351217
0.351504
0.351849
0.352229
0.35261
0.352975
0.356198
0.355802
0.355265
0.354668
0.354039
0.353391
0.352762
0.352184
0.35169
0.351303
0.351036
0.350889
0.350879
0.351
0.351213
0.351495
0.351839
0.35222
0.352603
0.352973
0.356236
0.355834
0.355293
0.354695
0.354071
0.35342
0.352784
0.352198
0.351705
0.351323
0.35106
0.350906
0.350891
0.351002
0.351216
0.351507
0.35185
0.352221
0.352598
0.352972
0.356288
0.355876
0.355324
0.35471
0.354068
0.353409
0.352777
0.352192
0.351701
0.351322
0.351059
0.35092
0.350917
0.351037
0.351257
0.351553
0.351897
0.352266
0.352637
0.353001
0.356348
0.355926
0.355361
0.354731
0.354064
0.353397
0.352766
0.352188
0.351698
0.35132
0.351063
0.350946
0.350957
0.351088
0.351317
0.351618
0.351966
0.352335
0.352705
0.353063
0.356416
0.355987
0.355413
0.354772
0.354094
0.353413
0.352765
0.352184
0.351699
0.351332
0.351096
0.350992
0.351014
0.351153
0.351389
0.351696
0.352047
0.352419
0.352788
0.353145
0.35649
0.356056
0.355476
0.354829
0.354145
0.353459
0.352808
0.352227
0.351744
0.351381
0.35115
0.351052
0.351079
0.351224
0.351465
0.351777
0.352133
0.352507
0.352878
0.353235
0.356569
0.356129
0.355545
0.354894
0.354206
0.353518
0.352865
0.352283
0.3518
0.351439
0.35121
0.351114
0.351144
0.351293
0.351537
0.351854
0.352213
0.352592
0.352965
0.353324
0.356647
0.356204
0.355615
0.354961
0.354271
0.353581
0.352927
0.352345
0.351862
0.351501
0.351274
0.351179
0.351209
0.351358
0.351603
0.35192
0.352282
0.352663
0.353039
0.353401
0.356722
0.356276
0.355685
0.355028
0.354336
0.353646
0.352993
0.352412
0.351931
0.351572
0.351345
0.35125
0.351279
0.351425
0.351667
0.35198
0.352339
0.352718
0.353096
0.353461
0.356796
0.356346
0.355752
0.355094
0.354403
0.353715
0.353066
0.352489
0.352012
0.351655
0.351428
0.351332
0.351358
0.351499
0.351734
0.35204
0.352392
0.352767
0.353142
0.353507
0.356868
0.356415
0.355819
0.355161
0.354472
0.353791
0.353149
0.352581
0.352109
0.351755
0.351529
0.351431
0.351453
0.351587
0.351811
0.352106
0.352449
0.352816
0.353186
0.353548
0.356939
0.356482
0.355883
0.355224
0.35454
0.353871
0.353236
0.352669
0.352197
0.351844
0.35162
0.351525
0.351548
0.35168
0.351895
0.352174
0.352504
0.352863
0.353227
0.353584
0.357011
0.356548
0.355942
0.355276
0.354584
0.353909
0.353273
0.352697
0.352221
0.351867
0.351645
0.351553
0.351581
0.351722
0.351935
0.352214
0.352546
0.352905
0.353266
0.353618
0.357087
0.356615
0.355999
0.355321
0.354615
0.353921
0.353281
0.352699
0.352221
0.351867
0.351648
0.351558
0.351586
0.351725
0.351944
0.352241
0.352584
0.352949
0.35331
0.353657
0.35717
0.356691
0.356065
0.355375
0.354655
0.353947
0.35329
0.352704
0.352222
0.351867
0.351648
0.351561
0.351592
0.351732
0.351972
0.352284
0.352638
0.353008
0.353369
0.353712
0.357263
0.356777
0.356143
0.355443
0.354711
0.353987
0.353309
0.352713
0.352225
0.351868
0.351651
0.351568
0.351612
0.351774
0.352029
0.352351
0.352712
0.353085
0.353446
0.353785
0.357367
0.356875
0.356233
0.355525
0.354785
0.354053
0.353369
0.352768
0.352279
0.351923
0.351708
0.35163
0.35168
0.351848
0.35211
0.352439
0.352803
0.353178
0.353539
0.353875
0.35748
0.356981
0.356333
0.355618
0.354871
0.354134
0.353446
0.352843
0.352353
0.351998
0.351786
0.351711
0.351765
0.351939
0.352205
0.352538
0.352906
0.353282
0.353643
0.353976
0.357603
0.357098
0.356442
0.355719
0.354966
0.354223
0.353531
0.352927
0.352437
0.352083
0.351873
0.351802
0.35186
0.352037
0.352308
0.352645
0.353016
0.353395
0.353757
0.354088
0.357739
0.357227
0.356562
0.35583
0.355068
0.354319
0.353622
0.353015
0.352525
0.352173
0.351966
0.351898
0.351959
0.352141
0.352417
0.352759
0.353135
0.353517
0.353879
0.354209
0.357891
0.357372
0.356698
0.355955
0.355183
0.354424
0.35372
0.353108
0.352616
0.352264
0.352059
0.351996
0.352063
0.352252
0.352536
0.352885
0.353267
0.353652
0.354015
0.354342
0.358063
0.357537
0.356853
0.3561
0.355315
0.354546
0.353833
0.353214
0.352717
0.352365
0.352163
0.352104
0.35218
0.352378
0.352671
0.353028
0.353416
0.353805
0.354168
0.354491
0.358259
0.357725
0.357032
0.356268
0.355472
0.354691
0.353968
0.353342
0.352842
0.352489
0.35229
0.352237
0.35232
0.352528
0.35283
0.353195
0.353588
0.35398
0.354342
0.354662
0.358481
0.35794
0.357239
0.356464
0.355657
0.354865
0.354133
0.3535
0.352996
0.352643
0.352447
0.352399
0.35249
0.352706
0.353016
0.353388
0.353786
0.35418
0.354542
0.354856
0.358732
0.358185
0.357475
0.35669
0.355872
0.355071
0.354331
0.353692
0.353185
0.352831
0.352638
0.352594
0.352691
0.352914
0.353231
0.35361
0.354012
0.354408
0.354768
0.355077
0.359014
0.358461
0.357743
0.356948
0.35612
0.35531
0.354561
0.353917
0.353406
0.353052
0.352861
0.352821
0.352924
0.353154
0.353478
0.353862
0.354269
0.354666
0.355024
0.355327
0.359331
0.358772
0.358046
0.357241
0.356403
0.355582
0.354825
0.354175
0.353661
0.353306
0.353117
0.353082
0.353191
0.353427
0.353758
0.354148
0.354559
0.354957
0.355313
0.355608
0.359686
0.359122
0.358388
0.357573
0.356723
0.355892
0.355126
0.354469
0.353952
0.353596
0.353409
0.353377
0.353493
0.353737
0.354075
0.354472
0.354887
0.355286
0.355638
0.355926
0.360085
0.359516
0.358774
0.357948
0.357087
0.356244
0.355469
0.354805
0.354284
0.353926
0.353739
0.353712
0.353836
0.354088
0.354434
0.354837
0.355257
0.355657
0.356006
0.356284
0.360533
0.35996
0.35921
0.358373
0.3575
0.356646
0.35586
0.355189
0.354663
0.354305
0.354119
0.354096
0.354227
0.354488
0.354842
0.355252
0.355675
0.356077
0.356421
0.356689
0.361039
0.360461
0.359704
0.358855
0.357969
0.357103
0.356307
0.355628
0.355097
0.354737
0.354554
0.354536
0.354674
0.354943
0.355305
0.355722
0.35615
0.356552
0.356892
0.357148
0.361609
0.361028
0.360263
0.359404
0.358504
0.357625
0.356818
0.35613
0.355594
0.355233
0.355051
0.355038
0.355184
0.355461
0.355832
0.356256
0.356689
0.357091
0.357425
0.357669
0.362254
0.361671
0.3609
0.360029
0.359116
0.358223
0.357403
0.356706
0.356165
0.355802
0.355622
0.355615
0.355768
0.356054
0.356434
0.356866
0.357303
0.357704
0.358032
0.35826
0.362986
0.362402
0.361624
0.360742
0.359815
0.358908
0.358076
0.357369
0.356821
0.356456
0.356278
0.356276
0.356437
0.356733
0.357122
0.357561
0.358003
0.358403
0.358722
0.358933
0.363819
0.363236
0.362453
0.361559
0.360618
0.359695
0.35885
0.358132
0.357578
0.357211
0.357035
0.357038
0.357208
0.357513
0.357912
0.358359
0.358804
0.359202
0.359511
0.359702
0.36477
0.364188
0.363401
0.362496
0.36154
0.360603
0.359743
0.359014
0.358453
0.358083
0.357909
0.357919
0.358097
0.358412
0.35882
0.359275
0.359723
0.360118
0.360414
0.360581
0.365855
0.365279
0.36449
0.363575
0.362605
0.361651
0.360777
0.360036
0.359467
0.359094
0.358922
0.358938
0.359125
0.359451
0.359869
0.360331
0.360781
0.361171
0.361452
0.361591
0.367099
0.366532
0.365744
0.364821
0.363836
0.362866
0.361977
0.361224
0.360646
0.36027
0.3601
0.360123
0.360319
0.360656
0.361083
0.361552
0.362003
0.362385
0.362647
0.362752
0.368531
0.367978
0.367194
0.366264
0.365265
0.364279
0.363374
0.362609
0.362022
0.361642
0.361474
0.361504
0.36171
0.362058
0.362495
0.362969
0.36342
0.363791
0.364029
0.364096
0.370185
0.369651
0.368876
0.367941
0.36693
0.365928
0.365007
0.364228
0.363633
0.363249
0.363083
0.363121
0.363337
0.363695
0.364141
0.364621
0.365068
0.365426
0.365635
0.365656
0.372103
0.371595
0.370834
0.369898
0.368877
0.36786
0.366923
0.36613
0.365525
0.365138
0.364974
0.365019
0.365246
0.365614
0.366069
0.366552
0.366994
0.367333
0.367507
0.367473
0.374334
0.373862
0.373123
0.372191
0.371162
0.370131
0.369179
0.368373
0.367759
0.367367
0.367205
0.367259
0.367495
0.367874
0.368336
0.368819
0.369252
0.369566
0.369697
0.369597
0.376941
0.376517
0.37581
0.374889
0.373856
0.372814
0.371849
0.37103
0.370406
0.37001
0.369851
0.369912
0.370159
0.370546
0.371014
0.371494
0.371911
0.372194
0.372271
0.372089
0.379995
0.379639
0.37898
0.378079
0.377049
0.376
0.375022
0.374192
0.373558
0.373158
0.373002
0.373071
0.373327
0.373721
0.374191
0.374663
0.375058
0.375298
0.375308
0.375027
0.383608
0.383336
0.382739
0.381871
0.380852
0.379801
0.378816
0.377975
0.377333
0.376929
0.376775
0.376853
0.377115
0.377514
0.377981
0.378439
0.378801
0.378985
0.378911
0.378508
0.387896
0.387733
0.387223
0.386404
0.385408
0.384364
0.383375
0.382528
0.381878
0.38147
0.381319
0.381405
0.381672
0.382071
0.382528
0.382961
0.383277
0.383388
0.383207
0.382651
0.393011
0.392993
0.392601
0.391855
0.390901
0.389875
0.388892
0.388043
0.387388
0.386976
0.386828
0.38692
0.387189
0.38758
0.388017
0.388412
0.388665
0.388681
0.388362
0.387614
0.399146
0.399319
0.399092
0.398455
0.397567
0.396579
0.395614
0.39477
0.394113
0.393699
0.393553
0.393649
0.393913
0.394287
0.394689
0.395027
0.39519
0.39508
0.394582
0.393593
0.406551
0.406954
0.406977
0.406502
0.405719
0.404795
0.403866
0.403039
0.402386
0.40197
0.401827
0.401923
0.402172
0.402514
0.402861
0.403112
0.403152
0.402874
0.402145
0.400848
0.415637
0.416337
0.416658
0.416404
0.415774
0.41495
0.414083
0.41329
0.412648
0.412233
0.41209
0.41218
0.4124
0.412687
0.412949
0.413075
0.41295
0.412445
0.41141
0.409718
0.426826
0.427906
0.428588
0.428683
0.428281
0.427611
0.426842