/*--------------------------------*- C++ -*----------------------------------*\
  =========                 |
  \\      /  F ield         | OpenFOAM: The Open Source CFD Toolbox
   \\    /   O peration     | Website:  https://openfoam.org
    \\  /    A nd           | Version:  6
     \\/     M anipulation  |
\*---------------------------------------------------------------------------*/
FoamFile
{
    version     2.0;
    format      ascii;
    class       volScalarField;
    location    "9";
    object      k;
}
// * * * * * * * * * * * * * * * * * * * * * * * * * * * * * * * * * * * * * //

dimensions      [0 2 -2 0 0 0 0];

internalField   nonuniform List<scalar> 
10000
(
0.19734
0.47553
0.430018
0.399253
0.384438
0.378293
0.375548
0.374027
0.372963
0.372315
0.372032
0.372229
0.372839
0.373911
0.376101
0.381237
0.394332
0.424372
0.470154
0.192208
0.195234
0.475998
0.433423
0.404183
0.388191
0.379391
0.376085
0.374442
0.373373
0.373276
0.372878
0.372696
0.37331
0.374394
0.376688
0.381849
0.395003
0.425116
0.470508
0.19405
0.191202
0.473718
0.428272
0.398517
0.383425
0.380814
0.376244
0.374476
0.373377
0.372623
0.37235
0.372559
0.373374
0.374576
0.376629
0.381812
0.395632
0.425601
0.46725
0.189043
0.189082
0.471574
0.426088
0.399439
0.382088
0.379055
0.376368
0.374753
0.374201
0.373354
0.373071
0.372866
0.373893
0.376403
0.377275
0.382369
0.397353
0.424293
0.466194
0.191816
0.185586
0.467337
0.421934
0.393111
0.38122
0.377275
0.377658
0.375681
0.373735
0.372713
0.372593
0.373358
0.374668
0.375127
0.377248
0.382498
0.395544
0.423662
0.466741
0.187925
0.184505
0.465241
0.417921
0.388783
0.378872
0.378234
0.376753
0.374375
0.372755
0.371969
0.371878
0.372458
0.373836
0.376414
0.380366
0.386291
0.399103
0.424409
0.465668
0.189038
0.183648
0.46579
0.418693
0.389284
0.379063
0.375515
0.375589
0.373042
0.371853
0.371257
0.371218
0.371669
0.372707
0.374691
0.379096
0.384527
0.39879
0.424968
0.464264
0.189669
0.184142
0.463385
0.420217
0.389303
0.381356
0.375255
0.373766
0.37274
0.372644
0.371854
0.372279
0.372687
0.37337
0.375152
0.378438
0.384963
0.400219
0.426255
0.461578
0.196136
0.188767
0.466536
0.420234
0.388721
0.37769
0.377234
0.376368
0.373242
0.372791
0.372482
0.372477
0.373207
0.374695
0.375752
0.379241
0.388018
0.401328
0.42717
0.464413
0.1961
0.187823
0.462342
0.418657
0.389795
0.378347
0.375011
0.375017
0.373118
0.372373
0.372027
0.372113
0.372748
0.37397
0.375974
0.379489
0.386451
0.400577
0.428032
0.463641
0.199278
0.188807
0.463494
0.418387
0.390598
0.382695
0.376035
0.374189
0.373304
0.373348
0.373098
0.373197
0.373196
0.374401
0.376595
0.380463
0.387293
0.401738
0.430104
0.468905
0.203248
0.187021
0.465026
0.419195
0.393995
0.383111
0.376753
0.376252
0.3748
0.373212
0.372758
0.373223
0.373654
0.375238
0.378738
0.381752
0.389136
0.404034
0.433118
0.475316
0.206236
0.187935
0.462709
0.420155
0.393687
0.383722
0.377303
0.375447
0.374442
0.373596
0.373105
0.373175
0.373907
0.375445
0.378411
0.384541
0.390803
0.405702
0.434594
0.475656
0.207361
0.190792
0.466396
0.421
0.393525
0.384567
0.377909
0.375946
0.374979
0.37488
0.374419
0.37433
0.374413
0.375829
0.378654
0.384033
0.394689
0.410478
0.436795
0.47447
0.203782
0.194485
0.464095
0.42069
0.394168
0.385523
0.379039
0.376995
0.375732
0.375156
0.374591
0.374615
0.375452
0.377445
0.380707
0.385042
0.395467
0.412868
0.440005
0.472831
0.209188
0.187343
0.462496
0.421394
0.397687
0.386571
0.379824
0.379214
0.376898
0.375322
0.374515
0.374372
0.375009
0.376966
0.380363
0.386453
0.396191
0.415486
0.444977
0.476991
0.202578
0.18258
0.457738
0.421445
0.396768
0.386194
0.380493
0.378313
0.375869
0.374511
0.37391
0.374101
0.375376
0.378127
0.381947
0.387381
0.394205
0.415751
0.445591
0.481236
0.205532
0.185359
0.463255
0.423635
0.399991
0.384133
0.380865
0.377006
0.376233
0.375011
0.374362
0.374418
0.3749
0.376793
0.379907
0.384723
0.392694
0.413415
0.44425
0.483038
0.209518
0.190961
0.460772
0.423734
0.396335
0.383239
0.37854
0.376215
0.374669
0.373702
0.373301
0.37357
0.374698
0.377307
0.381103
0.386438
0.391853
0.409025
0.444273
0.481912
0.200113
0.193402
0.465799
0.425226
0.400379
0.384256
0.378716
0.37639
0.374466
0.373445
0.37306
0.373385
0.374826
0.375951
0.378827
0.383035
0.390207
0.407369
0.438442
0.482138
0.201095
0.195712
0.463865
0.424854
0.398686
0.38656
0.379397
0.377832
0.374373
0.373206
0.37279
0.373027
0.374188
0.376123
0.380201
0.385019
0.390484
0.407434
0.43689
0.481813
0.205266
0.195054
0.468785
0.424992
0.394676
0.382112
0.379446
0.37654
0.373959
0.373068
0.372746
0.372902
0.373802
0.37639
0.378073
0.382107
0.390681
0.401622
0.433604
0.477525
0.199509
0.196915
0.470766
0.424842
0.393642
0.3809
0.375913
0.374366
0.373649
0.373103
0.372758
0.372788
0.373301
0.375278
0.377946
0.381919
0.385489
0.399426
0.431707
0.47555
0.193337
0.199664
0.466945
0.424615
0.394105
0.383904
0.378704
0.375961
0.373774
0.373948
0.37354
0.373367
0.372841
0.373289
0.374577
0.377397
0.383315
0.397258
0.428267
0.473772
0.190932
0.206953
0.467248
0.42318
0.393504
0.380447
0.375877
0.374131
0.373311
0.373247
0.37292
0.373057
0.373561
0.373161
0.374227
0.377115
0.383189
0.397007
0.427702
0.471689
0.190478
0.198436
0.466555
0.423477
0.396612
0.382623
0.378173
0.374755
0.373876
0.372715
0.372292
0.372455
0.372943
0.3728
0.373914
0.376587
0.382475
0.395952
0.426438
0.470204
0.188953
0.193981
0.468135
0.422344
0.392399
0.379385
0.37556
0.375108
0.372493
0.37159
0.371371
0.371763
0.372542
0.37274
0.374033
0.376664
0.382659
0.396109
0.42677
0.468637
0.189347
0.201365
0.466958
0.422476
0.392139
0.379465
0.375083
0.373383
0.372269
0.371551
0.371364
0.371024
0.371872
0.373227
0.373971
0.376213
0.382266
0.39638
0.425891
0.467738
0.190185
0.200329
0.466848
0.423332
0.392969
0.380219
0.375636
0.37373
0.372569
0.372192
0.371058
0.370699
0.370996
0.372062
0.374822
0.376475
0.38278
0.397919
0.427254
0.468476
0.18501
0.208194
0.471222
0.423771
0.393104
0.380417
0.375854
0.373925
0.372593
0.371784
0.371742
0.371598
0.371986
0.37288
0.373628
0.376421
0.382959
0.399511
0.427181
0.471262
0.187387
0.198739
0.470276
0.423518
0.396058
0.38159
0.376792
0.376056
0.374314
0.372845
0.371829
0.3711
0.371336
0.372338
0.374116
0.377425
0.385432
0.399042
0.426836
0.471094
0.184909
0.19141
0.469868
0.4244
0.394897
0.382061
0.376952
0.37479
0.373417
0.372191
0.371349
0.37103
0.371347
0.372831
0.375702
0.379244
0.383433
0.397635
0.426945
0.470832
0.185685
0.193525
0.468321
0.425783
0.398815
0.386379
0.380208
0.375528
0.374362
0.372521
0.372179
0.371843
0.371502
0.372338
0.374038
0.377049
0.383216
0.397577
0.427329
0.470913
0.188661
0.19947
0.470411
0.427049
0.397151
0.384151
0.378456
0.375602
0.374502
0.372616
0.371827
0.371492
0.371604
0.372704
0.376092
0.380107
0.38647
0.398502
0.428515
0.468411
0.186938
0.193841
0.469363
0.427557
0.398513
0.385124
0.379094
0.375956
0.374171
0.372897
0.372169
0.372307
0.371905
0.372629
0.375366
0.378935
0.384199
0.398031
0.429474
0.473047
0.188645
0.194177
0.466543
0.429021
0.400974
0.389675
0.383291
0.378863
0.375858
0.37399
0.373098
0.372297
0.372747
0.372793
0.374346
0.377597
0.38447
0.398742
0.429385
0.473163
0.192648
0.202112
0.470764
0.430562
0.402515
0.390208
0.383215
0.378161
0.375518
0.373908
0.372967
0.372912
0.373008
0.373141
0.374587
0.37815
0.387739
0.399899
0.428763
0.471982
0.19331
0.207065
0.470759
0.434525
0.407037
0.392186
0.384497
0.378934
0.376077
0.374432
0.373823
0.372942
0.372969
0.373646
0.375223
0.378532
0.386199
0.401084
0.42956
0.471509
0.196652
0.211539
0.468863
0.436672
0.408028
0.392246
0.384815
0.380926
0.377781
0.375719
0.374327
0.373764
0.373471
0.374987
0.375975
0.379413
0.387077
0.402279
0.430932
0.470446
0.198943
0.214702
0.475782
0.440319
0.409654
0.39096
0.383418
0.379305
0.37676
0.374846
0.374189
0.37382
0.374051
0.374788
0.377866
0.380806
0.389076
0.404472
0.432339
0.467092
0.197738
0.217593
0.48259
0.442721
0.408883
0.390675
0.383339
0.379145
0.377455
0.374963
0.373671
0.373296
0.373788
0.375549
0.37811
0.381463
0.39271
0.408192
0.435591
0.47293
0.204164
0.214463
0.485506
0.441955
0.406036
0.390147
0.383424
0.378748
0.376222
0.375126
0.374036
0.37324
0.373493
0.374931
0.378064
0.382081
0.390183
0.405173
0.43437
0.476434
0.20238
0.216925
0.483684
0.441599
0.404784
0.389659
0.384894
0.378556
0.375676
0.374037
0.373178
0.373356
0.373727
0.375635
0.377359
0.379657
0.386889
0.402133
0.432975
0.47826
0.201368
0.205866
0.483014
0.437667
0.403456
0.388269
0.384429
0.37822
0.375447
0.373812
0.372877
0.372559
0.372914
0.374397
0.375691
0.378969
0.386511
0.401468
0.431657
0.474046
0.195597
0.204527
0.480872
0.435544
0.402283
0.387103
0.382964
0.377686
0.375216
0.373749
0.372853
0.372485
0.372735
0.373676
0.375624
0.378989
0.386998
0.401615
0.42977
0.472552
0.194202
0.204703
0.479635
0.434303
0.401302
0.386003
0.381753
0.378558
0.376226
0.373947
0.37285
0.372443
0.372786
0.374541
0.375039
0.378433
0.388483
0.397917
0.426958
0.470443
0.195228
0.205351
0.478613
0.432508
0.400086
0.384643
0.37857
0.376193
0.3748
0.373674
0.372851
0.372454
0.372652
0.373956
0.374754
0.377669
0.384448
0.397115
0.426474
0.467884
0.199733
0.194104
0.47579
0.433139
0.4028
0.387355
0.378852
0.376275
0.3749
0.373852
0.373031
0.37253
0.372553
0.373113
0.374515
0.377573
0.383438
0.396704
0.425172
0.467354
0.191883
0.19697
0.472511
0.4283
0.398901
0.383762
0.378663
0.376516
0.375014
0.374021
0.373769
0.372922
0.37362
0.374397
0.375224
0.380394
0.386716
0.39756
0.42517
0.464507
0.191466
0.191147
0.469272
0.426162
0.397436
0.386433
0.379539
0.377691
0.375524
0.374168
0.373635
0.373101
0.373236
0.373455
0.374602
0.378787
0.385272
0.398856
0.426767
0.467197
0.196876
0.191911
0.469519
0.426335
0.396749
0.38398
0.379373
0.378548
0.37595
0.374828
0.373425
0.372279
0.372614
0.374158
0.374589
0.377936
0.387671
0.400905
0.428283
0.464704
0.189645
0.191905
0.468146
0.427388
0.398103
0.384922
0.379782
0.377447
0.376696
0.374605
0.373123
0.372044
0.372716
0.373062
0.374377
0.378057
0.3848
0.399438
0.429664
0.468332
0.188844
0.193989
0.470757
0.428154
0.398853
0.385364
0.380031
0.377307
0.376107
0.373918
0.372528
0.371611
0.37185
0.372855
0.374794
0.378043
0.384486
0.399764
0.431549
0.471689
0.190342
0.196201
0.47006
0.430602
0.40059
0.386553
0.380868
0.37738
0.375704
0.373211
0.371923
0.37206
0.372008
0.373287
0.377158
0.381358
0.387646
0.402608
0.431497
0.470289
0.191816
0.197743
0.467309
0.43212
0.401564
0.387038
0.382916
0.37861
0.375464
0.37343
0.371962
0.371566
0.371847
0.373117
0.376554
0.380099
0.385427
0.400995
0.431354
0.474672
0.196575
0.206004
0.470923
0.434439
0.402996
0.387426
0.38041
0.37661
0.374218
0.372774
0.372377
0.371781
0.371914
0.373127
0.376409
0.378948
0.385394
0.399421
0.431684
0.475831
0.1965
0.204293
0.473502
0.437497
0.40397
0.38793
0.381147
0.377095
0.374459
0.372785
0.371985
0.372275
0.371894
0.372929
0.375468
0.379424
0.38645
0.399113
0.431768
0.474736
0.197659
0.210709
0.480136
0.441178
0.405598
0.389032
0.383765
0.378968
0.374898
0.372859
0.371798
0.37191
0.37177
0.372932
0.376749
0.38195
0.390419
0.399644
0.429322
0.470392
0.197762
0.203462
0.482422
0.443096
0.405967
0.388999
0.381379
0.377422
0.375658
0.373777
0.372002
0.371445
0.371575
0.37248
0.374181
0.378313
0.387303
0.400612
0.427108
0.467911
0.196632
0.205624
0.482083
0.441856
0.40806
0.392337
0.384272
0.378065
0.374864
0.373495
0.372209
0.372125
0.37196
0.37275
0.37447
0.377635
0.384345
0.398461
0.42726
0.467986
0.191828
0.210851
0.479889
0.437645
0.404454
0.390029
0.38253
0.379287
0.374939
0.373139
0.372548
0.371883
0.372851
0.37422
0.376581
0.380099
0.384313
0.398867
0.427027
0.465754
0.192356
0.207114
0.478697
0.436372
0.404431
0.392807
0.384665
0.379164
0.374983
0.373477
0.372355
0.371583
0.3719
0.37284
0.374691
0.37799
0.384662
0.402619
0.429625
0.468642
0.198107
0.201525
0.476649
0.435765
0.404414
0.390379
0.38249
0.37816
0.375161
0.372673
0.371795
0.371487
0.371781
0.372686
0.374499
0.377845
0.384764
0.402261
0.430044
0.470186
0.193989
0.200057
0.473242
0.434152
0.406105
0.38793
0.380295
0.376495
0.373955
0.372424
0.372274
0.372134
0.371915
0.37285
0.374855
0.37843
0.385142
0.401238
0.430108
0.46995
0.193535
0.19989
0.47204
0.428968
0.400779
0.38366
0.377127
0.374385
0.372938
0.372027
0.371572
0.37146
0.371714
0.372851
0.374905
0.378722
0.385683
0.400427
0.430311
0.473136
0.194347
0.200212
0.472356
0.429519
0.398631
0.384115
0.377508
0.374571
0.373064
0.372176
0.371598
0.371511
0.371907
0.373017
0.375203
0.379405
0.388709
0.400853
0.429944
0.472839
0.193024
0.201914
0.473462
0.432266
0.402583
0.385205
0.378024
0.374895
0.373646
0.37338
0.372598
0.37192
0.372158
0.373217
0.375708
0.380786
0.387546
0.402914
0.430209
0.472093
0.193222
0.201625
0.472604
0.430475
0.402219
0.388816
0.379412
0.375691
0.373903
0.373285
0.372265
0.372483
0.37294
0.37464
0.376245
0.377965
0.384969
0.40024
0.42921
0.469723
0.191691
0.203888
0.471832
0.430412
0.401347
0.38891
0.38216
0.378067
0.375481
0.373689
0.372293
0.371933
0.372277
0.373854
0.375665
0.378021
0.385877
0.402134
0.429033
0.468942
0.191453
0.208345
0.470697
0.430902
0.40312
0.388205
0.381092
0.377047
0.374764
0.37336
0.372497
0.37223
0.372577
0.373397
0.375069
0.378203
0.384752
0.398906
0.427845
0.467035
0.189896
0.194167
0.466461
0.429869
0.401891
0.391353
0.38397
0.378007
0.375267
0.373762
0.372927
0.372763
0.373545
0.375564
0.378174
0.382219
0.389246
0.402667
0.429711
0.467496
0.190939
0.19556
0.467408
0.429989
0.403091
0.389281
0.382632
0.379874
0.37719
0.375428
0.374489
0.374137
0.374363
0.376248
0.378806
0.382736
0.389465
0.402478
0.42898
0.469253
0.192457
0.196943
0.466328
0.432112
0.405973
0.393446
0.385683
0.38038
0.377116
0.375372
0.374499
0.374441
0.375406
0.377456
0.380466
0.384465
0.391366
0.404326
0.429368
0.469457
0.194317
0.203986
0.468594
0.434498
0.408645
0.392956
0.385256
0.380604
0.377665
0.375976
0.375574
0.375686
0.37668
0.378706
0.381685
0.385213
0.391793
0.404669
0.430441
0.469661
0.197696
0.19708
0.468146
0.432884
0.409667
0.394343
0.386527
0.38158
0.378377
0.376487
0.376
0.376168
0.37725
0.379386
0.382263
0.385123
0.39126
0.403847
0.430446
0.468781
0.192994
0.197009
0.467927
0.433182
0.409296
0.396388
0.388508
0.38308
0.379485
0.377394
0.376719
0.376872
0.378132
0.380556
0.383837
0.386406
0.392451
0.404506
0.430433
0.467408
0.197308
0.203182
0.467757
0.436698
0.411245
0.398594
0.390477
0.384598
0.380651
0.37866
0.377532
0.377597
0.378886
0.381483
0.385301
0.390249
0.39732
0.406004
0.431553
0.46877
0.19421
0.197751
0.46658
0.43647
0.414518
0.403185
0.394949
0.38823
0.38332
0.380115
0.378579
0.378538
0.379892
0.382602
0.38649
0.391174
0.397686
0.406645
0.431573
0.468122
0.194342
0.198067
0.465398
0.435013
0.416554
0.405231
0.396938
0.389668
0.384422
0.381152
0.37958
0.379585
0.381073
0.384028
0.388191
0.392936
0.399219
0.409918
0.431036
0.466053
0.199233
0.204248
0.463481
0.431259
0.412485
0.403675
0.398389
0.391575
0.386062
0.382523
0.38083
0.380808
0.382371
0.385502
0.389936
0.394135
0.398754
0.407161
0.428796
0.466477
0.194768
0.197298
0.460984
0.432064
0.41511
0.407354
0.400657
0.393356
0.387713
0.384055
0.38229
0.382255
0.383852
0.387099
0.391828
0.397186
0.402959
0.407164
0.42948
0.464557
0.194544
0.196719
0.4582
0.419634
0.406999
0.403603
0.40135
0.39518
0.389651
0.38594
0.384095
0.384006
0.385579
0.3888
0.393309
0.396837
0.400486
0.406042
0.418886
0.461149
0.19968
0.20188
0.448475
0.412944
0.409688
0.40789
0.404328
0.397685
0.392022
0.388212
0.386303
0.386155
0.387688
0.390889
0.395566
0.400889
0.403987
0.4086
0.414564
0.454461
0.188685
0.184955
0.438248
0.409565
0.401591
0.404318
0.405204
0.399947
0.394644
0.390899
0.388937
0.3887
0.390118
0.393077
0.397163
0.400583
0.398163
0.397719
0.410187
0.44178
0.176861
0.181151
0.433765
0.409108
0.399805
0.404888
0.407444
0.402658
0.397631
0.393986
0.392024
0.3917
0.392985
0.395746
0.399565
0.402702
0.399588
0.396356
0.408938
0.428222
0.1725
0.179736
0.427101
0.405538
0.399366
0.409401
0.409961
0.40555
0.400871
0.397408
0.39548
0.395059
0.396136
0.39854
0.401851
0.404462
0.402861
0.394453
0.391428
0.41263
0.176017
0.175706
0.410506
0.394849
0.39778
0.405847
0.409922
0.407783
0.404021
0.40096
0.399161
0.398669
0.399471
0.401357
0.403764
0.404528
0.400528
0.398965
0.384186
0.399324
0.167872
0.175524
0.397763
0.386364
0.397319
0.406861
0.411807
0.410102
0.406977
0.404358
0.402758
0.402241
0.402768
0.404061
0.405358
0.403738
0.400211
0.392667
0.382392
0.391266
0.171723
0.17345
0.382899
0.391978
0.404922
0.412541
0.410996
0.41101
0.409046
0.407057
0.405782
0.405323
0.405649
0.40645
0.407008
0.404864
0.404082
0.397275
0.385924
0.373767
0.179516
0.175244
0.363528
0.380136
0.397491
0.409573
0.410179
0.410393
0.409514
0.408379
0.407501
0.407164
0.407328
0.407708
0.407485
0.404257
0.397837
0.384882
0.368939
0.362726
0.178394
0.177382
0.361359
0.390373
0.398727
0.407
0.409562
0.410328
0.408949
0.40797
0.407172
0.406947
0.407048
0.407273
0.406779
0.404968
0.401781
0.387188
0.367907
0.344166
0.186377
0.18421
0.34044
0.383699
0.404307
0.410261
0.409906
0.40825
0.407005
0.406124
0.405615
0.405501
0.405659
0.406177
0.406368
0.405173
0.398954
0.389233
0.373261
0.344251
0.19374
0.192044
0.344708
0.396176
0.400859
0.405308
0.404478
0.40305
0.401949
0.401303
0.401064
0.401159
0.401517
0.40212
0.402709
0.402395
0.398678
0.391556
0.379858
0.34484
0.20354
0.218127
0.363134
0.389117
0.39481
0.399248
0.397802
0.396081
0.394909
0.394274
0.394067
0.394241
0.394764
0.395741
0.397123
0.398779
0.39906
0.393896
0.388625
0.362929
0.21873
0.233617
0.372288
0.395588
0.39453
0.393629
0.390722
0.388569
0.38721
0.386467
0.386194
0.386348
0.386902
0.387988
0.389681
0.392201
0.395116
0.394814
0.394538
0.370677
0.236718
0.263432
0.390213
0.401811
0.395514
0.388794
0.384542
0.381915
0.380346
0.379491
0.379138
0.379235
0.379752
0.380823
0.382629
0.385602
0.390417
0.398265
0.406747
0.389984
0.260823
0.289638
0.413104
0.407547
0.392728
0.384268
0.37952
0.376806
0.375329
0.374583
0.374278
0.374328
0.374716
0.375568
0.377144
0.379975
0.384872
0.393617
0.409754
0.413944
0.291295
0.316071
0.439076
0.412219
0.390841
0.38121
0.376661
0.37454
0.373554
0.373087
0.372902
0.372925
0.373147
0.37365
0.374644
0.3768
0.381312
0.390948
0.412442
0.439404
0.316165
0.338215
0.448816
0.408036
0.385982
0.378121
0.375163
0.373985
0.37336
0.373061
0.372948
0.372959
0.373101
0.373413
0.37403
0.375213
0.378161
0.385968
0.40799
0.449065
0.338665
0.364833
0.425087
0.387469
0.377782
0.375403
0.374613
0.374285
0.374219
0.374208
0.374205
0.374203
0.374199
0.374221
0.374291
0.374621
0.375407
0.377769
0.387415
0.425082
0.364731
0.621888
0.952142
0.820871
0.694278
0.600139
0.528239
0.47496
0.440407
0.420458
0.411293
0.410708
0.418332
0.435599
0.465787
0.513475
0.582102
0.677871
0.803889
0.94129
0.58928
0.648793
0.959902
0.834851
0.697936
0.602027
0.529173
0.474198
0.438633
0.418452
0.410564
0.410305
0.418085
0.435539
0.46613
0.516571
0.584473
0.683138
0.811457
0.945717
0.61221
0.617903
0.955142
0.823563
0.699932
0.602844
0.530122
0.474891
0.439881
0.419762
0.410434
0.410109
0.417873
0.435489
0.465894
0.514182
0.584747
0.690187
0.812795
0.94431
0.584054
0.63522
0.954061
0.822482
0.700436
0.604554
0.532223
0.475368
0.439946
0.419719
0.410609
0.410353
0.418078
0.435578
0.465993
0.514685
0.585379
0.690476
0.809679
0.945384
0.585653
0.595006
0.954327
0.83098
0.709975
0.606277
0.530362
0.47533
0.439869
0.419307
0.409013
0.408929
0.417289
0.435371
0.46628
0.516687
0.585197
0.688762
0.809476
0.949059
0.592715
0.600277
0.955709
0.819581
0.698342
0.610737
0.531396
0.474962
0.438881
0.418468
0.410258
0.410243
0.41719
0.435311
0.465761
0.514479
0.587438
0.681409
0.809402
0.946271
0.596006
0.602391
0.952316
0.817602
0.696283
0.603608
0.533011
0.477452
0.442298
0.421283
0.409575
0.41027
0.417794
0.435204
0.465458
0.515354
0.582723
0.683161
0.811956
0.943603
0.602502
0.608491
0.953904
0.819673
0.698707
0.604171
0.532432
0.477377
0.440905
0.421342
0.410662
0.410167
0.417253
0.434854
0.465111
0.512573
0.584977
0.670656
0.797006
0.942068
0.619031
0.623673
0.952971
0.822022
0.701895
0.606061
0.531537
0.477925
0.442558
0.421539
0.411354
0.409889
0.417118
0.434506
0.465171
0.512513
0.58049
0.671792
0.796564
0.940893
0.580396
0.585614
0.95001
0.822636
0.703423
0.607025
0.531674
0.477356
0.440607
0.418949
0.408962
0.408784
0.416214
0.434188
0.465383
0.512989
0.581424
0.674678
0.802227
0.940161
0.586713
0.590998
0.954178
0.832726
0.706353
0.608473
0.531972
0.477031
0.440484
0.419012
0.408847
0.407345
0.41458
0.43365
0.465154
0.51566
0.583674
0.676502
0.803062
0.941137
0.603914
0.592409
0.9542
0.831501
0.71342
0.613543
0.533662
0.476358
0.439401
0.418325
0.408717
0.408396
0.415301
0.433239
0.464973
0.514461
0.585644
0.684627
0.80639
0.939445
0.573311
0.594184
0.956487
0.827341
0.696066
0.601647
0.529313
0.475266
0.439215
0.419174
0.409695
0.40784
0.416182
0.434065
0.465423
0.51553
0.591554
0.686247
0.807395
0.942585
0.583351
0.595628
0.955153
0.820014
0.695532
0.60155
0.531086
0.475124
0.439372
0.41788
0.409773
0.408817
0.41617
0.433253
0.465547
0.516625
0.592146
0.689158
0.810386
0.94634
0.610747
0.599258
0.95406
0.824999
0.694601
0.600233
0.527585
0.474
0.438152
0.419402
0.40985
0.408761
0.41602
0.43365
0.465488
0.518601
0.593616
0.689075
0.815445
0.952388
0.603995
0.610211
0.94983
0.815629
0.695787
0.6011
0.527847
0.473609
0.439047
0.419195
0.409555
0.408495
0.415881
0.433496
0.465035
0.516836
0.589797
0.684252
0.819112
0.953653
0.600637
0.568965
0.946764
0.823424
0.703555
0.605464
0.529942
0.472041
0.438266
0.418645
0.408958
0.407957
0.415461
0.433127
0.464599
0.51624
0.594084
0.683553
0.812275
0.954892
0.608275
0.574798
0.947205
0.819362
0.690974
0.595758
0.525702
0.471145
0.437982
0.41823
0.407577
0.406682
0.41422
0.432595
0.463649
0.513435
0.588033
0.682862
0.803273
0.951732
0.625463
0.583022
0.945763
0.815909
0.69288
0.596648
0.525645
0.471089
0.436628
0.417276
0.409647
0.40883
0.41556
0.43211
0.463106
0.510967
0.578753
0.684755
0.799406
0.949074
0.611044
0.606085
0.945803
0.821045
0.698927
0.597025
0.524661
0.472257
0.438191
0.418409
0.409468
0.408582
0.414654
0.431988
0.463698
0.513711
0.57534
0.668972
0.797294
0.946625
0.635918
0.591073
0.939643
0.807503
0.688903
0.59828
0.527346
0.472935
0.438393
0.416907
0.408246
0.408369
0.415433
0.432293
0.463054
0.51152
0.574628
0.668306
0.796214
0.93825
0.581541
0.57994
0.937834
0.809413
0.691881
0.601199
0.527303
0.472653
0.43863
0.418003
0.409617
0.408271
0.415222
0.43204
0.462313
0.50875
0.57315
0.666978
0.795296
0.935745
0.550575
0.584233
0.937983
0.810268
0.693729
0.603521
0.529943
0.474555
0.438553
0.418638
0.409587
0.406764
0.413783
0.431723
0.461785
0.511216
0.573702
0.668197
0.793203
0.932851
0.553023
0.61003
0.939663
0.81413
0.69749
0.607262
0.531243
0.476654
0.441226
0.420256
0.409879
0.407225
0.41421
0.431898
0.461496
0.507769
0.573729
0.674391
0.798726
0.934391
0.558081
0.596777
0.940811
0.820825
0.699183
0.610476
0.532465
0.477088
0.441449
0.41963
0.409025
0.407809
0.414681
0.431799
0.461335
0.506941
0.572732
0.665084
0.789407
0.930141
0.564209
0.60492
0.940314
0.813063
0.700449
0.619911
0.535515
0.477715
0.441701
0.422467
0.411243
0.407194
0.416134
0.433187
0.462589
0.508368
0.574411
0.666999
0.789704
0.92521
0.584629
0.628448
0.93858
0.819946
0.701114
0.618936
0.53803
0.481264
0.445175
0.423736
0.41195
0.40906
0.416928
0.433813
0.46329
0.509646
0.576571
0.66668
0.791466
0.916563
0.557716
0.587736
0.937593
0.81512
0.701156
0.618764
0.538924
0.481884
0.445438
0.423585
0.412358
0.410666
0.417305
0.434221
0.464247
0.513331
0.583426
0.668433
0.785595
0.920154
0.561176
0.567597
0.940398
0.816294
0.702259
0.612937
0.538147
0.481531
0.445099
0.423195
0.411413
0.410417
0.416874
0.434118
0.464372
0.513214
0.583393
0.67187
0.789068
0.922865
0.586017
0.586962
0.941802
0.819335
0.703206
0.617822
0.536846
0.4807
0.444409
0.42273
0.41216
0.410314
0.417161
0.434037
0.46417
0.513683
0.583295
0.67761
0.794339
0.922347
0.584209
0.570135
0.949353
0.821578
0.705889
0.609676
0.535837
0.480273
0.443651
0.422008
0.410964
0.407972
0.415178
0.432869
0.463772
0.51277
0.580073
0.671641
0.791457
0.928065
0.595805
0.57225
0.954415
0.825249
0.705902
0.610227
0.53622
0.47958
0.441051
0.418836
0.408515
0.407118
0.414664
0.432444
0.463996
0.511259
0.581425
0.679854
0.797876
0.931707
0.600504
0.58959
0.955669
0.830358
0.712181
0.611607
0.53747
0.477894
0.43964
0.417945
0.408242
0.405942
0.414075
0.431776
0.463468
0.511842
0.586641
0.679243
0.799888
0.936534
0.607454
0.578268
0.953084
0.814539
0.694362
0.611879
0.536683
0.475629
0.43817
0.41675
0.40651
0.404756
0.412508
0.430631
0.463038
0.51287
0.585551
0.681139
0.801881
0.944744
0.600075
0.582169
0.952294
0.812682
0.691879
0.605788
0.532983
0.47347
0.436873
0.416184
0.407072
0.40494
0.412447
0.430143
0.462078
0.509802
0.58386
0.672615
0.800812
0.948617
0.579748
0.587712
0.951514
0.810127
0.688754
0.598617
0.530883
0.47178
0.436091
0.41565
0.406915
0.404562
0.411786
0.429205
0.461271
0.508877
0.582692
0.671765
0.801119
0.950475
0.578194
0.605785
0.946413
0.811364
0.690098
0.59893
0.529103
0.471399
0.435558
0.41613
0.406955
0.405687
0.412019
0.429582
0.461504
0.508233
0.576896
0.671794
0.802067
0.947777
0.577149
0.586451
0.945933
0.817698
0.692252
0.598824
0.526159
0.471754
0.437163
0.415359
0.406044
0.40501
0.413222
0.430334
0.460886
0.507902
0.576212
0.671079
0.802769
0.951731
0.576515
0.609967
0.947517
0.812093
0.694405
0.604087
0.525343
0.47149
0.437919
0.417602
0.408627
0.407156
0.413636
0.430387
0.460984
0.508262
0.577085
0.6721
0.808358
0.940745
0.578912
0.591162
0.941797
0.811112
0.695061
0.599253
0.52547
0.472965
0.438116
0.417422
0.408862
0.40726
0.413403
0.430093
0.460463
0.508206
0.57719
0.671712
0.805057
0.938801
0.579743
0.572228
0.936605
0.811997
0.705194
0.605208
0.526247
0.473362
0.437682
0.419108
0.409211
0.407005
0.412343
0.429465
0.46074
0.508964
0.578757
0.673514
0.801386
0.934815
0.604901
0.573495
0.936678
0.810913
0.699664
0.600165
0.525959
0.473799
0.439558
0.419656
0.408984
0.407774
0.414545
0.431105
0.461174
0.509501
0.580001
0.67663
0.807203
0.935773
0.594865
0.579986
0.93628
0.812718
0.710545
0.600782
0.525836
0.473325
0.438587
0.419758
0.410362
0.409333
0.416209
0.432456
0.461756
0.511832
0.586476
0.684846
0.802823
0.944029
0.590684
0.59547
0.935501
0.813821
0.695121
0.602391
0.525967
0.473994
0.439764
0.419877
0.409367
0.409143
0.416243
0.432494
0.461653
0.509712
0.584169
0.68339
0.805934
0.94667
0.597756
0.565597
0.931081
0.795746
0.679395
0.593436
0.524671
0.473881
0.438552
0.41977
0.410637
0.409087
0.416341
0.432842
0.462109
0.51011
0.58331
0.681493
0.80509
0.948937
0.626383
0.574222
0.933076
0.79379
0.679041
0.593233
0.524606
0.473814
0.439648
0.419276
0.410499
0.409076
0.415257
0.432793
0.462646
0.510317
0.587523
0.689161
0.808376
0.945553
0.613922
0.598188
0.933727
0.795156
0.680609
0.594612
0.524889
0.473601
0.43965
0.419859
0.410604
0.409599
0.416077
0.432787
0.463105
0.509943
0.582008
0.677492
0.795343
0.943573
0.639616
0.583182
0.932532
0.799534
0.681429
0.596591
0.525305
0.473106
0.438787
0.417867
0.408502
0.408291
0.416953
0.434286
0.463708
0.510233
0.577841
0.669674
0.794282
0.940434
0.600058
0.57167
0.932278
0.795906
0.683148
0.593689
0.526042
0.472725
0.438345
0.417848
0.408665
0.408988
0.416869
0.434506
0.464324
0.513277
0.583848
0.671593
0.792897
0.938066
0.576302
0.574948
0.932372
0.79809
0.694601
0.595901
0.529673
0.472038
0.436974
0.417467
0.408562
0.408934
0.415933
0.434562
0.464742
0.511767
0.580667
0.674212
0.794636
0.942107
0.599299
0.59779
0.933299
0.799341
0.691043
0.595303
0.527082
0.471325
0.437197
0.417966
0.409261
0.409211
0.417347
0.435076
0.465199
0.512433
0.581939
0.676136
0.794469
0.940892
0.577305
0.574262
0.937444
0.805287
0.687826
0.596442
0.52673
0.471084
0.435778
0.417763
0.409165
0.409052
0.417119
0.434886
0.465328
0.514962
0.587856
0.679719
0.795622
0.943932
0.580431
0.575645
0.937573
0.800149
0.694848
0.600829
0.525315
0.47028
0.43699
0.417732
0.408831
0.408529
0.416654
0.434583
0.465009
0.5125
0.582822
0.687042
0.796723
0.940104
0.605281
0.582327
0.93853
0.799417
0.682623
0.59281
0.52362
0.470502
0.436847
0.417373
0.408381
0.40674
0.414876
0.433575
0.464757
0.512742
0.582365
0.676766
0.797394
0.940303
0.600528
0.587048
0.939372
0.806262
0.685453
0.59633
0.524296
0.470127
0.436375
0.416446
0.408171
0.407
0.415185
0.434037
0.465565
0.513731
0.584342
0.679557
0.804377
0.940758
0.598525
0.598536
0.941234
0.805701
0.686656
0.600579
0.523839
0.470299
0.435613
0.416983
0.408153
0.407714
0.415594
0.433794
0.465403
0.514595
0.585755
0.684852
0.796907
0.936331
0.58493
0.62237
0.940754
0.805399
0.695309
0.600576
0.526582
0.470736
0.435921
0.415342
0.406443
0.407397
0.415049
0.432845
0.465742
0.518228
0.591875
0.679395
0.796778
0.934511
0.589906
0.584886
0.935456
0.802427
0.689895
0.598331
0.525884
0.471041
0.436908
0.41603
0.407327
0.407387
0.415538
0.433195
0.465928
0.518555
0.594058
0.689661
0.806766
0.937795
0.619812
0.555675
0.93143
0.808594
0.698789
0.604409
0.527853
0.471681
0.437229
0.41548
0.405892
0.407157
0.415505
0.433955
0.466411
0.519314
0.596481
0.690769
0.812469
0.944531
0.603705
0.55767
0.930308
0.80283
0.688589
0.596543
0.525908
0.472188
0.437372
0.416365
0.406301
0.407038
0.41553
0.434175
0.466345
0.519263
0.595973
0.694267
0.814335
0.943995
0.587137
0.556457
0.928382
0.798559
0.698929
0.59881
0.527823
0.472307
0.436413
0.415168
0.407265
0.407134
0.415286
0.434034
0.466101
0.51692
0.591302
0.683648
0.807762
0.944207
0.589741
0.560997
0.930574
0.799925
0.697945
0.599645
0.525773
0.472573
0.438255
0.416957
0.406635
0.406732
0.414175
0.434012
0.466058
0.516742
0.589125
0.682908
0.811859
0.943456
0.598527
0.562218
0.933537
0.801437
0.699701
0.60677
0.525885
0.47314
0.438565
0.417317
0.408181
0.406099
0.415479
0.434068
0.466044
0.518371
0.592925
0.683008
0.797366
0.941846
0.618421
0.566795
0.934807
0.802956
0.698615
0.605351
0.525859
0.472799
0.438105
0.417641
0.407075
0.406526
0.415586
0.433885
0.46508
0.513261
0.583223
0.686074
0.796585
0.942993
0.590006
0.568698
0.935715
0.804825
0.692667
0.603971
0.525979
0.472373
0.436583
0.416621
0.407449
0.406894
0.41423
0.43278
0.465326
0.513307
0.582008
0.669527
0.793182
0.944796