/*--------------------------------*- C++ -*----------------------------------*\
  =========                 |
  \\      /  F ield         | OpenFOAM: The Open Source CFD Toolbox
   \\    /   O peration     | Website:  https://openfoam.org
    \\  /    A nd           | Version:  6
     \\/     M anipulation  |
\*---------------------------------------------------------------------------*/
FoamFile
{
    version     2.0;
    format      ascii;
    class       volScalarField;
    location    "9";
    object      nut;
}
// * * * * * * * * * * * * * * * * * * * * * * * * * * * * * * * * * * * * * //

dimensions      [0 2 -1 0 0 0 0];

internalField   nonuniform List<scalar> 
130000
(
0.000887541
0.000890906
0.000893124
0.000894227
0.000894406
0.000893863
0.000892791
0.000891358
0.0008897
0.000887918
0.000886092
0.000884282
0.000882528
0.000880856
0.000879283
0.000877816
0.000876457
0.000875195
0.000874023
0.000872921
0.000887533
0.000890893
0.000893089
0.000894161
0.000894307
0.000893734
0.000892635
0.000891178
0.000889502
0.000887714
0.00088589
0.000884079
0.000882319
0.00088064
0.000879063
0.000877596
0.000876239
0.000874982
0.000873815
0.000872715
0.000887602
0.000890967
0.000893155
0.000894222
0.000894369
0.0008938
0.000892701
0.000891239
0.00088956
0.000887781
0.000885953
0.000884132
0.000882356
0.00088067
0.000879089
0.00087762
0.000876261
0.000874996
0.000873816
0.0008727
0.000887691
0.000891072
0.000893286
0.000894389
0.000894569
0.000894001
0.000892886
0.000891403
0.000889714
0.000887933
0.0008861
0.000884275
0.000882494
0.000880805
0.000879219
0.000877742
0.000876367
0.000875071
0.000873838
0.000872704
0.000887787
0.000891191
0.000893454
0.000894573
0.000894764
0.000894193
0.000893072
0.000891579
0.000889871
0.000888051
0.000886195
0.000884355
0.000882572
0.000880874
0.000879277
0.000877786
0.000876396
0.000875085
0.000873836
0.000872707
0.000887876
0.000891311
0.000893596
0.000894707
0.000894872
0.000894295
0.000893174
0.000891684
0.000889969
0.000888137
0.000886266
0.000884412
0.000882615
0.000880901
0.000879286
0.000877779
0.00087638
0.000875079
0.000873853
0.000872724
0.00088795
0.000891414
0.000893677
0.000894792
0.000894956
0.000894377
0.000893252
0.000891757
0.000890035
0.000888192
0.000886309
0.00088444
0.000882626
0.000880891
0.000879247
0.000877689
0.000876255
0.000874951
0.000873752
0.000872665
0.000887991
0.000891454
0.000893723
0.000894846
0.000895014
0.000894435
0.000893307
0.000891808
0.000890077
0.000888225
0.00088633
0.00088445
0.000882621
0.00088087
0.000879206
0.000877618
0.000876155
0.000874868
0.000873705
0.00087258
0.00088802
0.000891463
0.000893764
0.000894893
0.000895061
0.000894479
0.000893348
0.000891843
0.000890105
0.000888244
0.000886339
0.000884447
0.000882609
0.000880851
0.000879189
0.000877631
0.000876162
0.000874849
0.00087364
0.000872514
0.000888071
0.000891532
0.000893834
0.000894948
0.000895107
0.000894518
0.000893381
0.000891869
0.000890124
0.000888254
0.00088634
0.000884439
0.000882593
0.000880831
0.000879171
0.000877629
0.000876196
0.000874837
0.000873638
0.000872552
0.000888121
0.000891607
0.000893897
0.000894998
0.000895149
0.000894555
0.000893411
0.000891892
0.000890139
0.00088826
0.000886336
0.000884426
0.000882573
0.000880808
0.000879151
0.000877617
0.000876212
0.000874919
0.000873725
0.000872572
0.000888154
0.00089164
0.000893911
0.000895038
0.00089519
0.000894591
0.000893442
0.000891915
0.000890153
0.000888263
0.000886328
0.000884406
0.000882539
0.000880761
0.000879093
0.000877552
0.000876157
0.000874878
0.000873693
0.000872542
0.000888192
0.000891683
0.000893947
0.000895094
0.000895239
0.000894634
0.000893477
0.000891941
0.000890168
0.000888266
0.000886316
0.000884378
0.000882491
0.000880681
0.000878976
0.000877422
0.000876034
0.000874777
0.000873639
0.000872537
0.000888248
0.000891752
0.000894028
0.000895131
0.000895287
0.000894683
0.000893519
0.000891972
0.000890185
0.000888267
0.0008863
0.000884343
0.000882435
0.000880597
0.000878852
0.000877299
0.00087594
0.000874687
0.000873579
0.000872541
0.000888323
0.000891834
0.000894108
0.000895199
0.000895372
0.000894753
0.000893574
0.000892012
0.000890207
0.000888271
0.000886283
0.000884307
0.000882385
0.000880549
0.000878815
0.000877259
0.000875919
0.000874679
0.000873563
0.000872502
0.000888427
0.000891945
0.000894224
0.000895329
0.000895483
0.00089484
0.000893642
0.000892061
0.000890237
0.000888278
0.000886267
0.000884265
0.000882315
0.000880454
0.000878757
0.000877241
0.000875925
0.000874754
0.00087364
0.000872556
0.000888551
0.000892073
0.000894346
0.000895434
0.000895552
0.000894922
0.000893716
0.000892119
0.000890276
0.000888295
0.00088626
0.000884229
0.000882243
0.000880329
0.000878628
0.000877159
0.000875814
0.000874576
0.000873418
0.000872297
0.000888686
0.000892214
0.000894485
0.00089556
0.000895644
0.000895015
0.000893807
0.000892195
0.000890333
0.000888332
0.000886274
0.000884221
0.000882212
0.000880271
0.000878495
0.000876921
0.000875487
0.0008742
0.000872994
0.000871824
0.00088883
0.000892368
0.000894642
0.000895715
0.000895798
0.000895108
0.000893912
0.000892288
0.00089041
0.000888394
0.000886323
0.00088426
0.00088225
0.000880319
0.000878485
0.000876862
0.000875401
0.00087404
0.000872782
0.000871624
0.000888979
0.000892528
0.000894804
0.000895874
0.000895948
0.000895242
0.00089402
0.000892397
0.000890507
0.000888479
0.000886402
0.000884342
0.000882346
0.000880444
0.000878652
0.000877022
0.000875545
0.000874135
0.000872846
0.000871725
0.00088913
0.00089269
0.000894971
0.00089604
0.000896111
0.000895403
0.000894122
0.000892499
0.000890612
0.000888577
0.000886497
0.000884439
0.000882448
0.000880545
0.000878771
0.000877129
0.000875648
0.000874298
0.000873079
0.000871994
0.00088928
0.000892852
0.000895137
0.000896205
0.00089627
0.000895551
0.00089425
0.000892601
0.00089072
0.00088868
0.000886595
0.000884536
0.00088252
0.000880584
0.000878796
0.000877193
0.000875757
0.000874463
0.000873336
0.000872302
0.000889434
0.00089302
0.000895309
0.000896376
0.000896436
0.000895712
0.00089441
0.000892708
0.000890822
0.00088878
0.000886693
0.000884632
0.000882606
0.000880688
0.000878951
0.000877398
0.000875997
0.000874728
0.000873625
0.000872613
0.000889602
0.000893198
0.000895489
0.000896552
0.000896604
0.000895869
0.000894554
0.000892837
0.00089092
0.00088887
0.000886772
0.000884703
0.000882687
0.000880794
0.000879148
0.000877652
0.000876284
0.000875022
0.000873899
0.000872846
0.000889783
0.000893388
0.00089568
0.000896736
0.000896779
0.000896031
0.000894704
0.000892978
0.000891004
0.000888943
0.000886823
0.000884722
0.000882692
0.00088077
0.000879101
0.000877603
0.000876228
0.000874959
0.000873824
0.000872773
0.000889974
0.000893588
0.00089588
0.000896929
0.000896959
0.000896196
0.000894848
0.000893094
0.000891078
0.000889006
0.000886861
0.000884729
0.00088266
0.000880682
0.000878936
0.000877366
0.000875952
0.000874693
0.000873587
0.000872564
0.000890172
0.000893797
0.000896089
0.000897132
0.00089715
0.00089637
0.000895002
0.000893225
0.000891182
0.00088908
0.00088692
0.000884772
0.000882689
0.000880708
0.000878927
0.000877334
0.000875887
0.000874596
0.000873516
0.000872516
0.000890381
0.000894017
0.00089631
0.000897346
0.000897352
0.000896557
0.000895173
0.000893381
0.000891327
0.000889185
0.00088702
0.000884869
0.000882786
0.00088084
0.00087906
0.000877467
0.000875979
0.000874602
0.000873487
0.000872471
0.000890602
0.00089425
0.000896543
0.000897572
0.000897566
0.000896756
0.000895356
0.000893549
0.000891488
0.000889294
0.000887108
0.000884938
0.000882825
0.000880857
0.000879055
0.000877431
0.000875932
0.000874591
0.000873445
0.000872405
0.000890836
0.000894494
0.000896788
0.000897809
0.000897789
0.000896961
0.000895541
0.000893713
0.000891628
0.000889409
0.000887162
0.000884954
0.00088281
0.000880859
0.000879079
0.000877443
0.000875938
0.000874622
0.00087349
0.00087244
0.000891082
0.000894752
0.000897045
0.000898057
0.000898021
0.000897174
0.00089573
0.000893873
0.000891751
0.000889477
0.000887183
0.000884941
0.000882794
0.000880855
0.000879076
0.000877441
0.000875962
0.000874631
0.000873524
0.000872461
0.000891341
0.000895022
0.000897315
0.000898317
0.000898265
0.000897398
0.000895932
0.000894051
0.000891902
0.000889596
0.000887266
0.000884976
0.000882803
0.000880813
0.00087899
0.000877364
0.000875958
0.000874687
0.000873611
0.000872541
0.000891611
0.000895305
0.000897597
0.000898589
0.000898521
0.000897634
0.000896146
0.000894246
0.000892084
0.000889779
0.000887426
0.000885091
0.000882901
0.000880899
0.000879077
0.000877454
0.000875984
0.000874636
0.000873515
0.000872454
0.000891895
0.000895602
0.000897894
0.000898875
0.00089879
0.000897881
0.00089637
0.000894445
0.00089226
0.000889935
0.000887565
0.000885228
0.000883002
0.000880972
0.000879159
0.000877504
0.000875979
0.00087465
0.000873523
0.00087249
0.000892194
0.000895915
0.000898206
0.000899177
0.000899074
0.000898143
0.000896607
0.000894655
0.000892442
0.000890087
0.000887685
0.00088531
0.000883042
0.000880968
0.000879106
0.000877432
0.000875938
0.000874628
0.000873511
0.000872481
0.000892508
0.000896245
0.000898536
0.000899497
0.000899377
0.000898424
0.000896865
0.000894889
0.00089265
0.000890271
0.000887844
0.000885445
0.000883139
0.000880974
0.00087904
0.000877321
0.000875758
0.000874346
0.000873186
0.00087213
0.00089284
0.000896594
0.000898887
0.000899838
0.000899702
0.000898728
0.000897146
0.000895147
0.000892886
0.000890484
0.00088803
0.000885593
0.000883219
0.000881001
0.000879026
0.000877269
0.000875688
0.00087426
0.00087313
0.000872071
0.000893193
0.000896964
0.000899259
0.000900201
0.000900047
0.000899054
0.00089745
0.00089543
0.000893151
0.000890731
0.000888262
0.000885809
0.00088341
0.000881228
0.000879239
0.000877441
0.000875821
0.000874393
0.000873259
0.000872184
0.000893566
0.000897356
0.000899653
0.000900584
0.000900413
0.000899399
0.000897774
0.000895735
0.00089344
0.000891012
0.000888544
0.000886103
0.000883737
0.000881548
0.00087954
0.000877721
0.000876064
0.000874631
0.000873446
0.000872362
0.00089396
0.000897768
0.000900066
0.000900987
0.000900797
0.00089976
0.000898113
0.000896054
0.000893743
0.000891307
0.00088884
0.000886417
0.00088409
0.000881889
0.000879897
0.000878103
0.000876499
0.000875082
0.000873896
0.000872799
0.000894373
0.000898201
0.000900499
0.000901407
0.000901197
0.000900136
0.000898462
0.00089638
0.000894049
0.000891598
0.000889126
0.00088671
0.000884409
0.000882265
0.000880306
0.000878538
0.000876946
0.000875526
0.000874335
0.000873233
0.000894807
0.000898654
0.000900952
0.000901846
0.000901613
0.000900524
0.000898821
0.000896709
0.000894352
0.000891878
0.000889386
0.000886956
0.000884646
0.000882497
0.000880533
0.00087876
0.000877162
0.000875735
0.000874539
0.000873439
0.000895263
0.000899131
0.000901428
0.000902306
0.000902048
0.000900927
0.000899191
0.000897045
0.000894654
0.000892149
0.00088963
0.000887175
0.000884842
0.000882675
0.000880695
0.000878908
0.000877299
0.000875864
0.000874662
0.000873563
0.000895746
0.000899635
0.000901931
0.000902792
0.000902506
0.000901351
0.000899577
0.000897392
0.000894964
0.000892423
0.00088987
0.000887385
0.000885026
0.000882835
0.000880835
0.000879031
0.00087741
0.000875965
0.000874754
0.00087365
0.000896262
0.000900173
0.000902467
0.000903309
0.000902991
0.000901799
0.000899984
0.000897758
0.000895289
0.000892708
0.000890119
0.0008876
0.000885211
0.000882995
0.000880974
0.000879153
0.000877518
0.000876061
0.000874838
0.000873728
0.000896816
0.000900749
0.000903039
0.000903859
0.000903508
0.000902275
0.000900416
0.000898145
0.000895632
0.00089301
0.000890382
0.000887828
0.000885408
0.000883165
0.000881122
0.000879283
0.000877635
0.000876166
0.000874932
0.000873816
0.000897408
0.000901363
0.000903648
0.000904445
0.000904058
0.000902781
0.000900876
0.000898558
0.000895999
0.000893333
0.000890664
0.000888073
0.000885621
0.000883351
0.000881285
0.000879428
0.000877766
0.000876288
0.000875044
0.000873926
0.000898038
0.000902016
0.000904296
0.000905067
0.000904642
0.00090332
0.000901365
0.000898998
0.00089639
0.000893679
0.000890968
0.000888338
0.000885853
0.000883553
0.000881464
0.00087959
0.000877914
0.000876425
0.000875168
0.000874044
0.000898706
0.000902709
0.000904983
0.000905729
0.000905264
0.000903893
0.000901887
0.000899468
0.00089681
0.00089405
0.000891295
0.000888626
0.000886105
0.000883776
0.000881662
0.000879769
0.000878079
0.000876577
0.000875306
0.000874174
0.000899414
0.000903444
0.000905714
0.000906433
0.000905926
0.000904505
0.000902445
0.000899971
0.000897261
0.000894451
0.00089165
0.000888938
0.000886381
0.00088402
0.000881881
0.000879966
0.000878261
0.000876744
0.000875452
0.000874298
0.000900166
0.000904227
0.000906494
0.000907185
0.000906635
0.000905162
0.000903045
0.000900513
0.000897747
0.000894885
0.000892035
0.00088928
0.000886683
0.00088429
0.000882122
0.000880185
0.000878463
0.00087693
0.000875616
0.000874447
0.000900972
0.000905067
0.000907331
0.000907993
0.000907397
0.000905868
0.000903691
0.000901099
0.000898274
0.000895357
0.000892455
0.000889654
0.000887016
0.000884587
0.00088239
0.000880429
0.000878689
0.00087714
0.000875805
0.000874623
0.000901841
0.000905973
0.000908233
0.000908865
0.000908219
0.00090663
0.000904389
0.000901733
0.000898846
0.00089587
0.000892915
0.000890064
0.000887383
0.000884917
0.000882688
0.000880701
0.000878941
0.000877375
0.000876019
0.000874826
0.000902782
0.000906951
0.000909208
0.000909805
0.000909106
0.000907454
0.000905144
0.00090242
0.000899467
0.00089643
0.000893417
0.000890515
0.000887788
0.000885282
0.000883019
0.000881004
0.000879221
0.000877634
0.000876253
0.000875039
0.000903797
0.000908007
0.000910259
0.00091082
0.000910065
0.000908344
0.000905961
0.000903164
0.000900142
0.000897039
0.000893967
0.00089101
0.000888236
0.000885687
0.000883388
0.000881343
0.000879535
0.000877927
0.000876518
0.000875282
0.000904892
0.000909146
0.000911394
0.000911917
0.0009111
0.000909306
0.000906846
0.000903972
0.000900876
0.000897704
0.000894569
0.000891556
0.00088873
0.000886138
0.000883802
0.000881726
0.000879891
0.000878262
0.000876823
0.000875562
0.000906074
0.000910376
0.00091262
0.000913102
0.000912221
0.000910348
0.000907806
0.000904849
0.000901675
0.000898431
0.000895229
0.000892156
0.000889279
0.000886641
0.000884267
0.000882159
0.000880298
0.000878648
0.000877176
0.000875888
0.000907352
0.000911707
0.000913946
0.000914385
0.000913435
0.000911479
0.000908847
0.000905803
0.000902546
0.000899225
0.000895953
0.000892818
0.000889886
0.000887201
0.000884788
0.000882649
0.000880766
0.000879106
0.000877626
0.000876312
0.000908736
0.000913149
0.000915385
0.000915777
0.000914752
0.000912706
0.00090998
0.000906842
0.000903496
0.000900093
0.000896748
0.000893547
0.000890558
0.000887824
0.000885371
0.000883199
0.000881293
0.000879622
0.000878143
0.000876821
0.000910238
0.000914714
0.000916947
0.00091729
0.000916185
0.000914042
0.000911214
0.000907975
0.000904534
0.000901044
0.000897621
0.000894351
0.000891301
0.000888516
0.00088602
0.000883815
0.000881884
0.000880193
0.000878702
0.000877361
0.000911873
0.000916418
0.000918648
0.000918937
0.000917745
0.000915498
0.000912559
0.000909211
0.000905669
0.000902086
0.000898579
0.000895236
0.000892122
0.000889283
0.000886742
0.000884501
0.000882541
0.000880826
0.000879312
0.000877947
0.000913655
0.000918275
0.000920502
0.000920734
0.000919448
0.000917087
0.000914027
0.000910562
0.000906909
0.000903227
0.000899631
0.000896209
0.000893028
0.000890132
0.000887543
0.000885263
0.000883271
0.00088153
0.000879992
0.000878599
0.000915605
0.000920304
0.000922528
0.000922697
0.000921308
0.000918823
0.000915632
0.000912038
0.000908265
0.000904475
0.000900783
0.000897278
0.000894025
0.000891067
0.000888428
0.000886106
0.00088408
0.00088231
0.000880744
0.000879325
0.000917765
0.000922515
0.00092474
0.000924842
0.000923341
0.00092072
0.000917385
0.00091365
0.000909746
0.000905837
0.000902042
0.000898447
0.000895117
0.000892096
0.000889404
0.000887038
0.000884976
0.000883175
0.000881583
0.000880138
0.000920125
0.000924927
0.000927157
0.000927188
0.000925566
0.000922795
0.0009193
0.000915409
0.00091136
0.000907321
0.000903412
0.00089972
0.000896309
0.00089322
0.000890472
0.000888062
0.000885964
0.000884134
0.000882516
0.000881047
0.000922721
0.000927574
0.000929809
0.000929763
0.000928005
0.000925066
0.000921392
0.000917325
0.000913113
0.000908929
0.000904894
0.000901095
0.000897596
0.000894435
0.000891632
0.000889178
0.000887045
0.000885188
0.000883547
0.000882057
0.000925589
0.000930496
0.000932734
0.000932596
0.000930684
0.000927553
0.000923673
0.000919404
0.000915005
0.000910655
0.000906478
0.000902561
0.000898966
0.000895731
0.00089287
0.000890374
0.00088821
0.00088633
0.000884672
0.000883165
0.000928753
0.000933776
0.000935976
0.000935722
0.000933625
0.000930269
0.000926149
0.000921643
0.000917026
0.000912483
0.000908142
0.000904092
0.000900391
0.000897077
0.000894159
0.000891624
0.000889436
0.000887542
0.000885875
0.000884364
0.000932193
0.000937371
0.000939545
0.000939156
0.000936843
0.000933222
0.000928816
0.000924028
0.000919149
0.000914376
0.000909842
0.000905636
0.000901818
0.000898418
0.000895445
0.000892878
0.000890676
0.000888781
0.000887122
0.000885624
0.000935979
0.000941324
0.000943464
0.000942916
0.000940346
0.000936407
0.000931656
0.000926524
0.000921323
0.000916268
0.000911498
0.000907107
0.000903152
0.000899661
0.000896634
0.000894045
0.000891846
0.000889971
0.000888345
0.000886888
0.000940156
0.000945677
0.000947764
0.000947018
0.000944136
0.000939809
0.000934632
0.000929071
0.000923469
0.000918058
0.000912994
0.000908373
0.000904253
0.000900658
0.000897579
0.000894981
0.000892808
0.000890984
0.000889427
0.000888056
0.000944767
0.00095047
0.000952475
0.000951482
0.000948215
0.000943406
0.000937696
0.000931596
0.000925481
0.000919614
0.00091417
0.000909254
0.000904926
0.000901204
0.00089807
0.000895478
0.000893358
0.000891625
0.000890189
0.000888964
0.000949859
0.000955747
0.000957634
0.000956334
0.000952591
0.000947185
0.000940809
0.000934023
0.000927252
0.000920796
0.000914854
0.000909551
0.000904949
0.00090106
0.000897856
0.000895277
0.000893236
0.000891638
0.000890384
0.000889383
0.000955496
0.00096158
0.000963314
0.000961642
0.000957323
0.000951187
0.000943987
0.000936345
0.000928742
0.000921528
0.000914941
0.000909124
0.000904149
0.000900024
0.000896709
0.000894126
0.000892173
0.000890741
0.000889721
0.000889025
0.000961779
0.000968095
0.000969666
0.00096757
0.000962583
0.000955589
0.000947406
0.000938727
0.000930106
0.000921949
0.00091454
0.000908053
0.00090257
0.000898097
0.000894582
0.000891931
0.000890025
0.000888742
0.000887969
0.000887623
0.000968878
0.000975534
0.000977005
0.000974475
0.000968772
0.000960834
0.000951552
0.000941698
0.0009319
0.000922632
0.000914231
0.000906901
0.000900742
0.000895757
0.000891885
0.000889017
0.000887022
0.000885768
0.000885149
0.000885098
0.000977049
0.000984335
0.000985982
0.000983015
0.000976656
0.000967807
0.000957426
0.000946364
0.000935328
0.00092486
0.000915346
0.000907024
0.000900005
0.000894295
0.000889825
0.000886477
0.000884113
0.000882605
0.000881858
0.000881848
0.000986818
0.00099486
0.000997141
0.000994223
0.000987516
0.000977998
0.000966715
0.000954601
0.000942436
0.00093082
0.000920183
0.000910783
0.000902742
0.000896067
0.000890683
0.000886468
0.000883288
0.000881027
0.000879621
0.000879104
0.000998927
0.00100846
0.00101208
0.00100991
0.00100333
0.000993601
0.000981852
0.000969077
0.000956107
0.000943581
0.000931953
0.000921494
0.000912326
0.000904452
0.000897796
0.000892237
0.000887649
0.000883937
0.000881081
0.000879186
0.0010144
0.00102658
0.0010326
0.00103282
0.00102661
0.00101736
0.00100584
0.000993033
0.000979785
0.000966755
0.000954405
0.000943007
0.000932677
0.000923413
0.000915135
0.000907725
0.000901069
0.000895095
0.000889823
0.000885429
0.00103497
0.0010511
0.00106022
0.00106293
0.00105955
0.00105216
0.00104188
0.00102985
0.00101697
0.00100393
0.000991198
0.00097904
0.000967568
0.000956772
0.000946569
0.000936842
0.000927485
0.000918442
0.000909763
0.000901675
0.00106269
0.00108477
0.00109892
0.00110585
0.00110601
0.00110135
0.00109314
0.0010826
0.00107068
0.00105808
0.00104528
0.00103253
0.00101995
0.00100751
0.000995136
0.000982699
0.000970095
0.000957279
0.000944313
0.000931439
0.0010999
0.00113
0.00115099
0.00116321
0.00116842
0.00116739
0.00116195
0.00115347
0.00114298
0.00113116
0.00111849
0.00110523
0.00109151
0.00107733
0.00106258
0.0010471
0.00103078
0.00101361
0.000995645
0.000977118
0.00114899
0.00118913
0.00121847
0.00123755
0.00124829
0.0012524
0.00124966
0.00124359
0.00123479
0.00122389
0.00121137
0.00119752
0.00118254
0.0011665
0.00114922
0.00113036
0.00110988
0.00108782
0.00106428
0.00103945
0.00121219
0.00126401
0.0013027
0.0013293
0.00134565
0.00135399
0.00135574
0.00135266
0.00134575
0.00133574
0.00132314
0.00130841
0.00129172
0.00127377
0.00125412
0.0012314
0.00120607
0.00117854
0.0011489
0.00111729
0.00129112
0.00135568
0.00140435
0.00143881
0.00146127
0.00147421
0.0014799
0.00147943
0.00147411
0.00146436
0.00145094
0.00143441
0.00141514
0.00139344
0.00136955
0.00134396
0.00131568
0.00128257
0.00124624
0.00120747
0.00138636
0.00146364
0.0015221
0.00156415
0.00159256
0.0016099
0.00161847
0.00162006
0.00161567
0.00160572
0.0015912
0.0015722
0.0015493
0.00152298
0.00149382
0.0014624
0.0014293
0.00139308
0.00135091
0.00130462
0.00149696
0.00158553
0.00165243
0.0017009
0.0017341
0.00175472
0.00176527
0.0017681
0.00176405
0.00175363
0.0017373
0.00171507
0.00168755
0.00165557
0.00161982
0.00158109
0.00154018
0.00149782
0.00145248
0.00140034
0.00161959
0.00171614
0.00178873
0.0018414
0.00187698
0.00189863
0.00191044
0.00191363
0.00190909
0.00189741
0.00187865
0.00185258
0.0018195
0.00178065
0.00173697
0.00168951
0.00163942
0.0015879
0.00153571
0.00148129
0.0017476
0.00184635
0.00192016
0.00197298
0.00200718
0.00202797
0.00203946
0.00204166
0.00203568
0.00202182
0.00200022
0.00196995
0.00193064
0.00188355
0.00183041
0.00177259
0.00171169
0.0016503
0.00158917
0.0015285
0.00186964
0.00196178
0.00203026
0.00207712
0.00210586
0.00212325
0.00213168
0.00213084
0.00212256
0.00210641
0.00208082
0.00204443
0.00199767
0.00194101
0.00187723
0.00180866
0.0017381
0.00166718
0.00159668
0.00152877
0.00196846
0.0020424
0.002095
0.00212763
0.00214648
0.00215296
0.0021523
0.00214841
0.00213858
0.00211886
0.00208909
0.0020484
0.00199666
0.00193457
0.00186376
0.00178706
0.00170744
0.00162792
0.00154233
0.00145964
0.00201963
0.00206147
0.00208569
0.00209381
0.00209437
0.002102
0.00209666
0.00208591
0.00206858
0.00204634
0.00201512
0.0019718
0.00191485
0.00184623
0.00176469
0.00167363
0.0015783
0.00148206
0.00139789
0.00132718
0.00199131
0.00198714
0.00197184
0.00196367
0.00195019
0.00192619
0.00191088
0.00189803
0.00188545
0.00186888
0.00184268
0.00180141
0.00174129
0.00166638
0.00157267
0.00146433
0.00135154
0.00124168
0.00114207
0.00105665
0.00184271
0.00179272
0.0017492
0.00169995
0.00165972
0.00162902
0.00161051
0.00160424
0.00160546
0.00160548
0.00159443
0.00156325
0.00150546
0.00142292
0.00131356
0.00117988
0.00104121
0.000912144
0.000800103
0.00070963
0.00154321
0.00145364
0.00137265
0.00130686
0.00125918
0.00123366
0.00123353
0.00126166
0.00130479
0.00134011
0.00135344
0.00133667
0.00128279
0.00119133
0.00105428
0.000879559
0.00070641
0.000570233
0.000463261
0.000377263
0.00111528
0.0010065
0.00092135
0.000859281
0.000842869
0.000866161
0.00091944
0.00097391
0.00100177
0.001024
0.00103913
0.00103667
0.00101053
0.000959521
0.000879146
0.000754882
0.000597933
0.000439826
0.000310568
0.000226717
0.000597516
0.000552261
0.000548003
0.000611108
0.000702374
0.000781842
0.000850012
0.000898739
0.000927633
0.0009411
0.000943848
0.000937631
0.000920553
0.000884099
0.0008134
0.000704507
0.000548795
0.000372859
0.000236945
0.000181471
0.000407497
0.000467941
0.000586058
0.000705735
0.000791299
0.00083823
0.000859831
0.000871467
0.000877678
0.000880202
0.000880318
0.000878772
0.000875336
0.00086654
0.000843174
0.000775791
0.000630192
0.000414575
0.000233513
0.000169257
0.000489681
0.00072383
0.000791425
0.000821749
0.000841218
0.000851326
0.000855465
0.00085641
0.000856336
0.000856238
0.00085632
0.000856447
0.00085637
0.000855868
0.00085533
0.000857261
0.000859445
0.000782765
0.000443753
0.000183795
0.00087221
0.000872513
0.000872978
0.000873362
0.000873644
0.000873846
0.000873959
0.000873972
0.000873912
0.000873806
0.000873677
0.00087354
0.000873397
0.000873242
0.000873071
0.000872887
0.00087268
0.000872432
0.000872113
0.000871707
0.000871989
0.000872387
0.000872946
0.00087345
0.000873715
0.0008739
0.00087401
0.000873957
0.000873841
0.000873688
0.000873529
0.000873381
0.000873244
0.000873098
0.000872908
0.000872709
0.000872517
0.000872321
0.000872022
0.000871647
0.000871913
0.000872392
0.000872976
0.00087353
0.000873805
0.000874019
0.000874041
0.000873907
0.000873751
0.000873564
0.000873376
0.000873231
0.000873148
0.000873029
0.000872891
0.000872737
0.000872583
0.00087243
0.000872061
0.000871607
0.00087209
0.000872604
0.000873155
0.000873593
0.000873815
0.000873939
0.000873922
0.000873899
0.000873818
0.000873644
0.000873399
0.000873245
0.000873202
0.000873032
0.000872875
0.000872745
0.000872606
0.000872434
0.000872097
0.00087161
0.000872219
0.000872695
0.000873233
0.000873604
0.000873752
0.000873821
0.000873903
0.000873929
0.000873847
0.000873645
0.000873406
0.000873324
0.000873269
0.00087312
0.000872853
0.000872683
0.000872492
0.000872265
0.000872007
0.000871595
0.000872057
0.000872513
0.000873064
0.000873522
0.000873783
0.00087391
0.000873873
0.000873826
0.000873711
0.000873528
0.000873392
0.000873324
0.000873189
0.000873084
0.000872878
0.00087267
0.000872408
0.000872174
0.000871953
0.000871616
0.000872016
0.000872431
0.000872976
0.000873458
0.000873782
0.000874009
0.000874003
0.00087394
0.0008738
0.000873592
0.000873431
0.000873323
0.000873173
0.000872964
0.000872783
0.00087258
0.000872324
0.000872233
0.000872143
0.000871868
0.000872048
0.000872406
0.000872937
0.000873366
0.000873685
0.000873992
0.000874078
0.000873992
0.000873843
0.000873598
0.000873422
0.000873315
0.000873124
0.000872911
0.000872786
0.000872601
0.000872346
0.000872217
0.000871956
0.000871669
0.000872133
0.000872432
0.000872943
0.00087341
0.000873774
0.000874033
0.000874111
0.000874068
0.000873952
0.000873778
0.000873562
0.000873333
0.000873092
0.000872925
0.000872839
0.000872664
0.000872422
0.000872225
0.000871957
0.000871575
0.000872246
0.000872526
0.000873113
0.000873639
0.000874027
0.000874234
0.000874241
0.00087417
0.000874042
0.000873872
0.000873682
0.00087348
0.000873299
0.000873139
0.00087296
0.000872711
0.000872457
0.000872239
0.000871846
0.000871348
0.000872159
0.000872589
0.000873342
0.000873792
0.000874086
0.000874217
0.000874162
0.000874069
0.000873923
0.000873749
0.000873594
0.000873459
0.000873401
0.000873273
0.000873037
0.000872751
0.000872447
0.000872111
0.000871659
0.000871166
0.000872178
0.000872703
0.000873282
0.000873668
0.000873968
0.000874168
0.000874189
0.000874176
0.000874029
0.000873834
0.000873653
0.000873554
0.000873434
0.0008733
0.000873081
0.000872821
0.00087254
0.000872233
0.000871818
0.000871329
0.000872477
0.000872793
0.000873241
0.000873633
0.00087394
0.000874152
0.000874219
0.000874235
0.000874106
0.000874
0.000873862
0.00087374
0.000873551
0.000873377
0.000873143
0.000872864
0.000872551
0.00087218
0.000871727
0.000871197
0.000872531
0.000872768
0.000873323
0.000873723
0.000874055
0.000874269
0.000874292
0.000874171
0.000874075
0.000874037
0.000873903
0.000873759
0.000873578
0.000873409
0.000873159
0.000872834
0.000872507
0.000872161
0.000871772
0.000871251
0.000872555
0.000872892
0.000873431
0.000873864
0.000874212
0.000874356
0.000874364
0.000874172
0.000874039
0.000873914
0.000873803
0.000873769
0.000873584
0.00087329
0.000872977
0.000872623
0.000872315
0.000872027
0.000871742
0.000871325
0.000872413
0.000872832
0.000873363
0.000873769
0.000874063
0.000874137
0.000874115
0.000873997
0.00087386
0.000873685
0.000873492
0.000873309
0.000873027
0.000872663
0.000872327
0.000871999
0.00087173
0.000871513
0.000871269
0.00087092
0.000872338
0.000872791
0.000873351
0.000873658
0.000873778
0.000873793
0.000873765
0.000873702
0.000873629
0.000873577
0.000873399
0.000873095
0.000872745
0.00087235
0.000871987
0.000871645
0.000871403
0.00087124
0.000871096
0.000870815
0.000872572
0.000872947
0.000873375
0.000873623
0.000873713
0.000873733
0.000873649
0.000873511
0.000873456
0.000873531
0.000873405
0.000873091
0.000872771
0.000872386
0.000872083
0.000871821
0.000871599
0.000871423
0.000871317
0.000871068
0.000872553
0.00087291
0.00087332
0.000873553
0.000873606
0.000873633
0.000873596
0.000873503
0.00087341
0.000873336
0.000873104
0.000872823
0.000872605
0.000872411
0.000872217
0.000871986
0.000871777
0.00087162
0.000871507
0.000871245
0.000872444
0.00087279
0.000873189
0.000873413
0.000873449
0.000873474
0.00087349
0.000873451
0.000873232
0.000872884
0.000872512
0.000872269
0.000872119
0.000872025
0.00087196
0.000871891
0.000871877
0.000871829
0.000871759
0.000871485
0.000872241
0.000872582
0.000872954
0.000873171
0.000873255
0.000873237
0.000873161
0.000873072
0.000872926
0.000872633
0.000872307
0.000872113
0.000872025
0.000872008
0.000872045
0.000872117
0.000872211
0.000872152
0.000871967
0.00087165
0.000872266
0.000872465
0.000872754
0.000872949
0.000873047
0.000873055
0.000873007
0.000872972
0.000872961
0.000872809
0.000872565
0.000872442
0.000872411
0.00087245
0.000872543
0.000872638
0.000872665
0.000872586
0.000872382
0.000872046
0.000872568
0.000872631
0.00087291
0.00087313
0.000873293
0.000873355
0.000873293
0.000873129
0.000873009
0.000872837
0.000872677
0.000872587
0.00087259
0.000872691
0.000872905
0.000873068
0.000873116
0.000873038
0.000872824
0.000872472
0.000872892
0.000873071
0.000873405
0.000873641
0.000873812
0.000873862
0.000873754
0.000873496
0.000873263
0.00087302
0.000872794
0.000872671
0.00087265
0.000872747
0.000873009
0.000873156
0.000873175
0.000873077
0.000872855
0.000872507
0.00087314
0.000873469
0.000873839
0.000874042
0.000874061
0.000874038
0.000873962
0.00087383
0.000873651
0.000873437
0.000873266