/*--------------------------------*- C++ -*----------------------------------*\
  =========                 |
  \\      /  F ield         | OpenFOAM: The Open Source CFD Toolbox
   \\    /   O peration     | Website:  https://openfoam.org
    \\  /    A nd           | Version:  6
     \\/     M anipulation  |
\*---------------------------------------------------------------------------*/
FoamFile
{
    version     2.0;
    format      ascii;
    class       volScalarField;
    location    "9";
    object      nut;
}
// * * * * * * * * * * * * * * * * * * * * * * * * * * * * * * * * * * * * * //

dimensions      [0 2 -1 0 0 0 0];

internalField   nonuniform List<scalar> 
10000
(
1.2281e-05
6.76457e-05
9.96672e-05
0.000140717
0.000192204
0.00025285
0.000317455
0.000378546
0.000427445
0.000454774
0.000455175
0.000429025
0.000381258
0.000320043
0.000254669
0.000192642
0.000139802
9.94018e-05
6.8832e-05
1.28396e-05
1.14129e-05
6.75689e-05
0.000100957
0.000143661
0.000195376
0.00025423
0.000319443
0.000381208
0.000432165
0.000464777
0.000460174
0.000431641
0.000383014
0.000321023
0.000255325
0.000192988
0.000139989
9.95376e-05
6.89147e-05
1.31626e-05
1.17863e-05
6.71924e-05
9.91837e-05
0.000139402
0.000190291
0.000256144
0.000320865
0.000385151
0.000436678
0.000459642
0.000458249
0.000431033
0.000382797
0.000321246
0.000255307
0.000192944
0.000140558
0.000100418
6.87378e-05
1.26854e-05
1.14253e-05
6.71389e-05
9.83777e-05
0.000140362
0.000188917
0.000254077
0.00032028
0.000383621
0.000437815
0.000461525
0.000460846
0.000432377
0.000384135
0.000324426
0.000256293
0.00019338
0.000141703
9.93485e-05
6.80716e-05
1.30863e-05
1.2042e-05
6.61497e-05
9.62786e-05
0.000135541
0.00018848
0.000251841
0.000322842
0.000386182
0.000437536
0.000462412
0.000460682
0.000433916
0.000385718
0.000322005
0.000255698
0.000193312
0.000140439
9.90191e-05
6.76719e-05
1.26769e-05
1.16183e-05
6.5364e-05
9.45551e-05
0.00013223
0.000186055
0.000253136
0.000323115
0.000387241
0.000433323
0.000460005
0.000460456
0.000433567
0.000385147
0.000324657
0.000259838
0.000197031
0.000143057
9.97463e-05
6.7566e-05
1.23137e-05
1.23667e-05
6.57669e-05
9.51588e-05
0.000132666
0.000185209
0.000249498
0.000320365
0.000383804
0.000431628
0.000459196
0.000462384
0.000436597
0.000383983
0.000321995
0.00025795
0.000194987
0.000142802
0.000100309
6.69054e-05
1.27787e-05
1.26057e-05
6.5155e-05
9.56248e-05
0.000133762
0.000188694
0.000250045
0.000317857
0.000382188
0.000434989
0.00046179
0.000462315
0.000435384
0.000387724
0.000324851
0.000257267
0.000195158
0.000143187
0.000100376
6.60879e-05
1.36031e-05
1.31334e-05
6.62344e-05
9.57108e-05
0.000132828
0.000186144
0.000253307
0.000324006
0.000383969
0.000440691
0.000469819
0.000464862
0.000437603
0.000388979
0.000325501
0.000258278
0.000197855
0.000143525
0.000100456
6.68308e-05
1.34957e-05
1.29171e-05
6.49157e-05
9.5581e-05
0.000135742
0.000186362
0.000250354
0.000320651
0.000383095
0.000433913
0.000463243
0.000466695
0.000441702
0.000388215
0.000325073
0.000258885
0.000196108
0.000142718
0.000100339
6.65619e-05
1.38108e-05
1.28997e-05
6.55177e-05
9.64638e-05
0.000137003
0.000192874
0.000252679
0.000319792
0.000384124
0.00043752
0.000470573
0.000467226
0.000438945
0.000389289
0.000326367
0.000259837
0.000197014
0.000143667
0.000101494
6.80312e-05
1.40378e-05
1.21771e-05
6.59866e-05
9.70185e-05
0.000139589
0.000194232
0.000254382
0.000325477
0.000388754
0.00043797
0.000469128
0.000468642
0.000445363
0.000395805
0.000332788
0.000262135
0.000198487
0.000145322
0.0001037
6.99197e-05
1.42131e-05
1.27081e-05
6.56724e-05
9.79418e-05
0.000138827
0.000194747
0.000255683
0.000323981
0.000392635
0.000444602
0.000467622
0.000467227
0.00044163
0.000392843
0.000330341
0.000264805
0.000199326
0.000145534
0.000103602
7.05963e-05
1.3941e-05
1.23571e-05
6.73603e-05
9.86016e-05
0.000139344
0.000195531
0.000256348
0.000324765
0.000393164
0.000446261
0.000470696
0.000470578
0.000446548
0.000396811
0.000333071
0.00026431
0.000202578
0.000148099
0.00010415
6.96829e-05
1.27211e-05
1.31679e-05
6.6966e-05
9.83968e-05
0.000140011
0.000196641
0.000258294
0.000326493
0.000393556
0.000444548
0.000471645
0.000470687
0.000440811
0.000392848
0.000332976
0.000263936
0.000202542
0.000149183
0.000105143
6.91507e-05
1.39731e-05
1.23906e-05
6.60493e-05
9.83549e-05
0.000142221
0.000196545
0.000259031
0.000329859
0.000393025
0.000442971
0.000476112
0.000475414
0.000440469
0.000391147
0.000330172
0.000265592
0.000202729
0.000150124
0.000106827
6.9945e-05
1.34601e-05
1.23593e-05
6.49035e-05
9.84828e-05
0.00014147
0.000196634
0.000260161
0.000328362
0.000390819
0.000440051
0.00046794
0.000471085
0.000440909
0.000393899
0.000334629
0.000265731
0.000199917
0.000149604
0.000106347
7.04527e-05
1.29561e-05
1.27949e-05
6.65577e-05
9.99719e-05
0.000143607
0.000194326
0.00026015
0.000325964
0.000395088
0.000442831
0.000469245
0.000468908
0.000439741
0.000391183
0.000329176
0.00026204
0.000198069
0.000147256
0.000104703
7.05247e-05
1.40021e-05
1.33486e-05
6.57748e-05
9.92438e-05
0.000140329
0.000193069
0.00025706
0.0003239
0.000387977
0.000442633
0.000473103
0.000474259
0.000441259
0.000393865
0.00033413
0.000265031
0.000197561
0.000144056
0.000104372
6.98929e-05
1.33587e-05
1.34362e-05
6.75508e-05
9.95729e-05
0.000142618
0.000193577
0.000256481
0.000323533
0.000386156
0.000436699
0.000466916
0.00047206
0.000441865
0.000393943
0.000328871
0.000261354
0.00019614
0.000143203
0.00010193
6.9893e-05
1.36316e-05
1.34127e-05
6.61092e-05
9.88071e-05
0.000140901
0.000194972
0.000257001
0.000326305
0.000386752
0.000436758
0.000467104
0.00047176
0.000439832
0.00039255
0.000332078
0.000263865
0.000196787
0.000143558
0.000101006
6.9775e-05
1.40734e-05
1.27856e-05
6.77277e-05
9.84295e-05
0.00013759
0.00019077
0.000257268
0.000324698
0.000386664
0.000438281
0.000470926
0.000469353
0.000437039
0.000389175
0.000325605
0.000259744
0.000197696
0.000140584
0.00010058
6.87027e-05
1.31925e-05
1.31525e-05
6.76262e-05
9.78369e-05
0.000137264
0.000189689
0.000253302
0.000323279
0.000390087
0.000436966
0.000463946
0.000464071
0.000434859
0.000386711
0.000325708
0.00026053
0.000193524
0.000139643
0.000100363
6.87713e-05
1.1941e-05
1.29694e-05
6.63693e-05
9.8427e-05
0.000137701
0.000193348
0.000256576
0.000323607
0.000388016
0.000441581
0.000466652
0.00046957
0.000435967
0.00038322
0.000319914
0.000254515
0.000192267
0.000139134
9.94845e-05
6.85947e-05
1.22889e-05
1.39773e-05
6.74311e-05
9.76075e-05
0.000137809
0.000190054
0.000252573
0.000319686
0.000382576
0.000433676
0.000464315
0.000461493
0.000432409
0.000381164
0.000319387
0.000254275
0.000192311
0.000139061
9.97254e-05
6.81562e-05
1.20461e-05
1.30066e-05
6.69616e-05
9.75918e-05
0.000139927
0.000191727
0.000255507
0.00031986
0.00038283
0.000430885
0.000458481
0.00045926
0.000431992
0.000381179
0.000319544
0.000254561
0.000192074
0.000139113
9.98565e-05
6.85346e-05
1.2625e-05
1.29798e-05
6.72903e-05
9.72998e-05
0.000137336
0.00018936
0.000252264
0.00032085
0.000383418
0.000433364
0.000458805
0.000464977
0.000437588
0.000382716
0.000320087
0.000254602
0.000192303
0.000139511
9.97915e-05
6.80073e-05
1.22415e-05
1.38935e-05
6.75433e-05
9.74467e-05
0.000137381
0.00018969
0.000251605
0.000317583
0.000379412
0.000428966
0.000458379
0.000461779
0.000434963
0.00038653
0.000322026
0.000254482
0.000192254
0.000139893
9.90892e-05
6.8018e-05
1.28794e-05
1.28657e-05
6.6776e-05
9.77946e-05
0.000138002
0.000190438
0.000252494
0.000319776
0.000380593
0.000431249
0.00046188
0.000461449
0.000430433
0.00038172
0.000322172
0.000254357
0.000192558
0.000141077
9.98331e-05
6.84943e-05
1.2637e-05
1.4054e-05
6.78942e-05
9.86921e-05
0.000138611
0.000190813
0.000252764
0.000318616
0.000380068
0.000429322
0.000458393
0.000458794
0.000431894
0.000383754
0.000320772
0.000254526
0.00019264
0.000141863
9.98834e-05
6.91761e-05
1.29475e-05
1.28796e-05
6.79132e-05
9.83754e-05
0.00014088
0.000192222
0.00025429
0.000322462
0.000384369
0.000432912
0.000459215
0.000457828
0.00043083
0.00038347
0.000323786
0.000256654
0.000195333
0.000141517
0.000100374
6.87417e-05
1.25696e-05
1.25161e-05
6.79e-05
9.9044e-05
0.000140044
0.000192146
0.000254614
0.000320884
0.000383581
0.000433277
0.000460157
0.000462622
0.000431433
0.000384323
0.000326166
0.000259211
0.000193244
0.000140371
9.97952e-05
6.88532e-05
1.2774e-05
1.28494e-05
6.78692e-05
0.000100531
0.000142907
0.000196787
0.000259047
0.000322104
0.000385741
0.00043853
0.000466145
0.000461005
0.000431502
0.000383412
0.00032256
0.000256728
0.000193331
0.000140429
9.9741e-05
6.88629e-05
1.30938e-05
1.34449e-05
6.88245e-05
0.000101199
0.000141623
0.000194245
0.000256788
0.000322505
0.000385618
0.000433489
0.000459932
0.000458951
0.000431265
0.000384051
0.000326309
0.000261305
0.000196921
0.000141334
0.00010058
6.87981e-05
1.2791e-05
1.22647e-05
6.88004e-05
0.000101512
0.00014214
0.000194998
0.000257453
0.000323748
0.000386034
0.000439119
0.000466745
0.000466775
0.000433348
0.000384475
0.000326669
0.000260002
0.000194903
0.000141281
0.000101154
7.00543e-05
1.30921e-05
1.33964e-05
6.84493e-05
0.000102042
0.000143097
0.000198587
0.00026325
0.000331078
0.000391544
0.000436957
0.000463182
0.000461757
0.000434941
0.000384553
0.00032307
0.000257797
0.000195203
0.000141948
0.000101801
7.02666e-05
1.35166e-05
1.42239e-05
6.94115e-05
0.000102226
0.000143618
0.000198514
0.000261816
0.000327118
0.000387225
0.000436329
0.00046357
0.000464297
0.000436521
0.000385861
0.000323376
0.000257768
0.000198402
0.000142791
0.000101313
6.98023e-05
1.3499e-05
1.43633e-05
6.99784e-05
0.000104618
0.000146586
0.000199961
0.00026237
0.000326323
0.000388845
0.000439516
0.00046808
0.000470488
0.000442098
0.000390656
0.000325178
0.000258244
0.000196702
0.000143422
0.00010121
6.92558e-05
1.37613e-05
1.45417e-05
6.87724e-05
0.000104218
0.000146304
0.000199109
0.000262545
0.000329934
0.00039656
0.00044933
0.000473519
0.000467298
0.000437635
0.00038972
0.000327483
0.000259538
0.000197936
0.000144285
0.000102212
6.94874e-05
1.36181e-05
1.4725e-05
7.05262e-05
0.000105493
0.000146858
0.000197174
0.000259939
0.000327219
0.000391375
0.000441946
0.00046768
0.000466517
0.000438544
0.000388786
0.000328596
0.000260914
0.000199252
0.00014583
0.00010238
6.74632e-05
1.32591e-05
1.47169e-05
7.19435e-05
0.000105809
0.000145515
0.000196396
0.000259272
0.000324713
0.000389725
0.000437788
0.000465853
0.000471589
0.000443953
0.000394287
0.000329316
0.000261927
0.000202979
0.000149211
0.000104915
6.92186e-05
1.41075e-05
1.39232e-05
7.22848e-05
0.000104816
0.000143113
0.000195671
0.000259188
0.00032442
0.000391588
0.000443439
0.000471339
0.00047098
0.000439591
0.000389189
0.000328901
0.000263232
0.000200217
0.00014591
0.000103348
7.06791e-05
1.37951e-05
1.4176e-05
7.10708e-05
0.00010391
0.000142187
0.000195419
0.000260885
0.000323944
0.000388202
0.000435563
0.000463226
0.000468912
0.000443734
0.000390606
0.000327487
0.000259913
0.000196877
0.000143409
0.000101943
7.03677e-05
1.34622e-05
1.26731e-05
7.03654e-05
0.00010246
0.000141589
0.000194417
0.000260719
0.000323731
0.000385598
0.00043424
0.000460493
0.000461228
0.000436783
0.000387355
0.000325048
0.000258882
0.000197327
0.00014386
0.00010116
6.8853e-05
1.21153e-05
1.2889e-05
6.96214e-05
0.000101232
0.000141205
0.000193722
0.000259188
0.000323832
0.000389185
0.00043615
0.000460817
0.000460903
0.000432658
0.000385502
0.000327341
0.000260086
0.000198086
0.000144438
0.000101739
6.83262e-05
1.26544e-05
1.22888e-05
7.002e-05
0.000101831
0.000141217
0.000193249
0.000258216
0.00032707
0.00038844
0.000440213
0.00046082
0.000462911
0.000432894
0.000387009
0.000325989
0.000259093
0.000199873
0.000141878
0.000100365
6.81767e-05
1.28154e-05
1.3459e-05
6.96489e-05
0.000101087
0.000140931
0.000192629
0.000254772
0.000321239
0.000383691
0.000434477
0.000459011
0.000458581
0.00043143
0.000385194
0.00032492
0.000258851
0.000196082
0.000141433
0.000101022
6.7929e-05
1.32943e-05
1.28686e-05
6.92594e-05
0.000101809
0.000143253
0.000195633
0.000254909
0.000322769
0.000384108
0.000436116
0.000460133
0.00046325
0.000432355
0.000383161
0.000322632
0.000257355
0.000194837
0.000141143
0.000100099
6.74348e-05
1.19759e-05
1.32898e-05
6.90875e-05
0.000100015
0.0001408
0.000192148
0.000254529
0.000321082
0.000383337
0.000432279
0.000459925
0.000459926
0.000436855
0.000385666
0.000324067
0.000260935
0.000197865
0.000141635
9.99844e-05
6.69296e-05
1.27151e-05
1.26825e-05
6.7923e-05
9.91034e-05
0.000140087
0.000194436
0.00025572
0.000324452
0.00038806
0.000437419
0.000460598
0.000461091
0.000435782
0.000383294
0.000321742
0.000258427
0.00019611
0.000142408
0.000100092
6.81967e-05
1.31922e-05
1.22852e-05
6.86082e-05
9.93993e-05
0.000140019
0.000192612
0.000255286
0.000323728
0.000384698
0.000434253
0.000458281
0.000456135
0.00043072
0.000384616
0.00032215
0.000256843
0.000198672
0.000143526
0.000101267
6.6886e-05
1.18145e-05
1.28199e-05
6.77692e-05
9.99089e-05
0.000140788
0.000192897
0.00025572
0.000321491
0.000385705
0.000437232
0.000458536
0.00045656
0.000434167
0.000383008
0.000322806
0.000256905
0.000195143
0.000142262
0.000100843
6.81629e-05
1.27565e-05
1.31112e-05
6.86811e-05
0.000100477
0.000140966
0.000192979
0.000255811
0.000321431
0.000384213
0.000430909
0.00045615
0.000454864
0.00042898
0.000383802
0.00032166
0.000256654
0.000194236
0.000141934
0.000101817
6.91545e-05
1.28923e-05
1.2789e-05
6.89588e-05
0.000102404
0.000141665
0.000193378
0.000256242
0.000321753
0.000384572
0.000430561
0.000456383
0.00046118
0.000432832
0.000382378
0.000325181
0.000261481
0.0001964
0.000143273
0.000102644
6.91748e-05
1.31975e-05
1.32453e-05
6.74657e-05
0.000102218
0.000141568
0.000193432
0.000259182
0.000326329
0.000385423
0.000432059
0.000456364
0.000455584
0.000428588
0.00038161
0.00032513
0.000258816
0.000193543
0.000141634
0.000101466
6.95965e-05
1.37512e-05
1.41836e-05
6.85486e-05
0.000103003
0.000142148
0.000193631
0.000256302
0.000322601
0.000387056
0.000437159
0.000463935
0.000457374
0.000428533
0.000381013
0.000322946
0.000256563
0.000193657
0.000140761
0.000101414
6.99451e-05
1.36411e-05
1.30468e-05
6.9664e-05
0.000103637
0.00014217
0.000193938
0.000257039
0.000324673
0.000384888
0.000433799
0.000459798
0.000459399
0.000429335
0.000381292
0.000322959
0.000257257
0.000195233
0.000140959
0.00010122
6.97297e-05
1.36935e-05
1.41298e-05
7.05722e-05
0.000104253
0.000142496
0.000194224
0.000259746
0.000325602
0.000385477
0.000438435
0.000464649
0.000463856
0.000429744
0.000381084
0.000323629
0.00026039
0.000199467
0.000141747
0.000101013
6.92032e-05
1.35789e-05
1.35165e-05
7.04575e-05
0.000104489
0.000142447
0.000194295
0.000257528
0.000323781
0.000386869
0.000435152
0.000458031
0.000456823
0.000429446
0.000381166
0.000319812
0.000255682
0.000196423
0.00014255
0.000100095
6.82705e-05
1.31698e-05
1.38092e-05
7.02598e-05
0.000104229
0.000143946
0.000197777
0.000261025
0.000326929
0.000386134
0.000434754
0.000460222
0.000459644
0.000431681
0.00038574
0.000322686
0.00025549
0.000193634
0.000141104
0.000100186
6.82283e-05
1.24073e-05
1.43079e-05
6.94978e-05
0.000101898
0.000141469
0.00019535
0.000258686
0.000327856
0.000390615
0.000440754
0.000465027
0.00046518
0.000437896
0.00038781
0.000325377
0.000259039
0.000193728
0.000141423
9.96979e-05
6.71349e-05
1.28286e-05
1.3722e-05
6.90882e-05
0.000101202
0.000141616
0.000198912
0.000262199
0.000329981
0.000388993
0.000438693
0.000467376
0.000460136
0.000431229
0.00038214
0.000320883
0.00025623
0.00019417
0.000144377
0.000101522
6.79718e-05
1.35087e-05
1.22773e-05
6.85003e-05
0.000100701
0.000141568
0.000196673
0.000259837
0.000327695
0.000391998
0.000440254
0.000463314
0.000459434
0.000430897
0.00038193
0.000320727
0.000256134
0.000194197
0.000143648
0.000100962
6.84187e-05
1.22303e-05
1.23816e-05
6.80133e-05
0.000100998
0.000143595
0.000194645
0.000256536
0.000322998
0.000385164
0.000433947
0.000462266
0.000462363
0.000433027
0.000383649
0.000321923
0.000256714
0.00019483
0.000143563
0.000101944
6.90264e-05
1.24752e-05
1.23369e-05
6.75478e-05
9.87516e-05
0.000139955
0.000190532
0.000252447
0.000319727
0.000384098
0.000433967
0.000462194
0.000467183
0.00044001
0.000389378
0.000325196
0.000257648
0.000195489
0.000142884
0.000101321
6.92334e-05
1.20752e-05
1.26421e-05
6.7784e-05
9.91332e-05
0.000139558
0.000191117
0.000253338
0.000320555
0.000387778
0.000435288
0.000462912
0.000467447
0.000438591
0.000388126
0.000325088
0.000259183
0.000198917
0.00014363
0.000101508
6.94637e-05
1.2605e-05
1.22093e-05
6.84573e-05
0.00010084
0.000142509
0.000192573
0.0002544
0.000321081
0.000385621
0.000441613
0.0004688
0.000468185
0.000436875
0.000386922
0.000325346
0.000261172
0.000198121
0.000145275
0.000102037
6.9908e-05
1.20239e-05
1.29729e-05
6.82816e-05
0.000100327
0.000142515
0.000196923
0.000256961
0.000324594
0.000386352
0.000436928
0.000463478
0.000465911
0.000442199
0.000393082
0.000328105
0.00025734
0.000195671
0.000143693
0.000102071
6.93583e-05
1.22359e-05
1.23927e-05
6.81665e-05
0.00010123
0.000142166
0.000196663
0.000260682
0.000328017
0.000392682
0.000438979
0.000468214
0.000468656
0.000437228
0.000386755
0.000324554
0.000257484
0.000197052
0.000145506
0.000103167
6.9678e-05
1.18606e-05
1.34173e-05
6.83417e-05
0.00010203
0.000144276
0.00019697
0.000260036
0.000328076
0.000389681
0.000441125
0.000464487
0.000463705
0.000435915
0.000386286
0.000324079
0.000258416
0.000196072
0.000143393
0.000102996
6.99666e-05
1.26871e-05
1.23388e-05
6.80787e-05
0.000102357
0.00014403
0.000200135
0.000264029
0.000328536
0.000393886
0.00044063
0.000467432
0.000471909
0.000445172
0.000395833
0.000331838
0.000263644
0.00020037
0.000146018
0.000103926
7.0289e-05
1.28166e-05
1.2491e-05
6.88536e-05
0.00010283
0.000145402
0.000198981
0.000262774
0.000333746
0.000399414
0.000450599
0.000477156
0.000475016
0.000445583
0.000396083
0.000332292
0.00026426
0.000200718
0.000145692
0.000103266
7.04789e-05
1.31244e-05
1.30249e-05
6.89305e-05
0.000104262
0.00014746
0.000203106
0.00026648
0.000333137
0.000398616
0.000448647
0.000473288
0.000472564
0.000445917
0.000397365
0.000334557
0.000266647
0.000202682
0.000147643
0.000104631
7.11669e-05
1.27583e-05
1.36733e-05
6.97888e-05
0.000105447
0.00014962
0.000202629
0.000265837
0.000333725
0.000398201
0.000451241
0.000476905
0.000476653
0.000450163
0.000403435
0.000338665
0.000268268
0.000203015
0.000147724
0.000104492
7.04827e-05
1.3448e-05
1.22651e-05
7.01848e-05
0.000105125
0.000150451
0.000204062
0.000267828
0.000337741
0.000403342
0.000451436
0.000480383
0.000484519
0.000456733
0.00040247
0.000337478
0.000267565
0.000202327
0.000147213
0.000104709
7.05105e-05
1.3009e-05
1.32358e-05
7.03866e-05
0.00010568
0.000150286
0.000206119
0.000270759
0.000337126
0.00040102
0.000456815
0.000487276
0.000483454
0.000455391
0.000408323
0.000342717
0.000269521
0.000203652
0.000147812
0.000104537
7.07461e-05
1.35379e-05
1.3758e-05
7.0416e-05
0.000107956
0.000153288
0.000208636
0.000273262
0.000340364
0.000403647
0.000454865
0.000484213
0.000489281
0.000458278
0.000410197
0.000344625
0.000275723
0.000209107
0.00014894
0.000105485
7.05903e-05
1.25631e-05
1.24492e-05
7.02319e-05
0.000108487
0.00015646
0.000214304
0.000280156
0.000350566
0.000411917
0.000461304
0.000488469
0.000489355
0.000465676
0.000414625
0.000347757
0.000277687
0.000210183
0.000150445
0.000105739
7.02571e-05
1.29762e-05
1.30431e-05
7.06604e-05
0.000108349
0.000158936
0.000218033
0.00028479
0.00035425
0.000416338
0.000469231
0.000494371
0.000498885
0.000471246
0.000419265
0.000352756
0.00028055
0.000211889
0.00015356
0.000106072
7.00513e-05
1.35507e-05
1.37058e-05
6.99523e-05
0.000106875
0.000156726
0.000217287
0.000287926
0.000359641
0.000422119
0.000471694
0.00049972
0.000503214
0.00047637
0.000426569
0.000359839
0.000283734
0.000212931
0.000151959
0.000105967
7.03041e-05
1.23155e-05
1.20482e-05
6.92981e-05
0.000108212
0.000160144
0.000222512
0.000292493
0.000363809
0.000431561
0.00047886
0.000508495
0.00051032
0.000478915
0.000428312
0.000364272
0.000289196
0.000218347
0.00015486
0.000108435
7.03364e-05
1.27772e-05
1.23384e-05
6.92917e-05
0.00010287
0.000155118
0.000219236
0.000296166
0.000372936
0.00043741
0.000491974
0.000517465
0.000519214
0.000486539
0.000434883
0.000370101
0.000290864
0.000215253
0.000154974
0.000104578
7.00554e-05
1.34549e-05
1.2816e-05
6.7343e-05
0.000101874
0.000158452
0.000223683
0.000302059
0.000380711
0.000451267
0.000505087
0.000532982
0.000533984
0.000502973
0.000448599
0.000378962
0.000300251
0.000221759
0.000157884
0.000103956
6.91349e-05
1.19524e-05
1.01061e-05
6.50649e-05
0.000100797
0.000153077
0.000221357
0.000306157
0.00038986
0.000464914
0.000521169
0.000549417
0.00054717
0.000510966
0.000455559
0.000386225
0.000303369
0.000218018
0.00015171
0.000103601
6.68575e-05
1.01881e-05
1.04733e-05
6.52966e-05
0.000102223
0.000152252
0.000224869
0.000314508
0.000401129
0.000478325
0.00053629
0.000566585
0.00056336
0.000530675
0.00047246
0.000396743
0.00031108
0.000223339
0.00015462
0.000108751
6.51266e-05
1.1007e-05
9.70484e-06
6.52304e-05
0.000102985
0.000155816
0.000234142
0.000324775
0.000414288
0.000493945
0.00055332
0.000584391
0.000581374
0.000547536
0.000488114
0.000408792
0.000319722
0.000231284
0.000156933
0.000101881
6.26719e-05
1.15417e-05
1.0195e-05
6.38975e-05
0.000101434
0.000154114
0.000234711
0.000332577
0.000428477
0.000511312
0.000571592
0.000603216
0.000600647
0.000566042
0.000505599
0.000422739
0.00032762
0.000233619
0.000165133
9.97238e-05
6.16976e-05
1.06824e-05
9.36197e-06
6.22923e-05
0.000101785
0.000160876
0.000245243
0.000347466
0.000446274
0.000530519
0.000588695
0.000619496
0.000623613
0.000589345
0.000525737
0.000439053
0.000336783
0.000238708
0.000160392
9.83774e-05
6.03936e-05
1.10361e-05
9.85501e-06
6.02929e-05
0.000112731
0.000174884
0.000263635
0.000360816
0.000464267
0.000551763
0.000613869
0.00064767
0.000649026
0.000615212
0.000549642
0.000459435
0.000352824
0.000252848
0.000164184
0.000106167
5.86954e-05
1.20384e-05
9.41007e-06
5.73723e-05
0.000115548
0.000178459
0.000275073
0.000379242
0.000485152
0.000575673
0.000640759
0.000674768
0.000675259
0.000641617
0.000575567
0.000482453
0.000370802
0.000259401
0.000163268
9.75906e-05
5.97661e-05
1.16159e-05
1.08548e-05
6.01316e-05
0.000126656
0.000190334
0.000291302
0.00040393
0.000514049
0.000603346
0.000667289
0.000700297
0.000701174
0.000668216
0.000603035
0.000509409
0.000397641
0.000283873
0.000175758
0.000100144
5.66708e-05
1.25939e-05
1.06717e-05
5.86092e-05
0.000125887
0.000211976
0.000324677
0.000441838
0.000549764
0.000638866
0.000701308
0.00073301
0.000732827
0.000700555
0.000637694
0.00054614
0.000432105
0.000306387
0.000195178
0.000112908
6.13755e-05
1.31754e-05
1.23356e-05
6.03905e-05
0.000133583
0.000229368
0.000353655
0.000476955
0.000586665
0.000673372
0.000732513
0.000762588
0.000763071
0.000733613
0.000673992
0.000585268
0.000471008
0.000340792
0.000218415
0.000125493
6.69579e-05
1.42194e-05
1.55049e-05
6.80494e-05
0.000147391
0.000257444
0.000394298
0.000522367
0.000630465
0.000711891
0.000765179
0.000791413
0.000791735
0.000765984
0.000712686
0.000630364
0.000520254
0.000388723
0.000251769
0.000145693
7.50415e-05
1.469e-05
1.67119e-05
8.04341e-05
0.000172532
0.000297716
0.000443635
0.000574503
0.000678045
0.000751054
0.000796335
0.000817805
0.000818089
0.000797057
0.000751874
0.000678347
0.000573653
0.000441249
0.000293167
0.000167324
7.60397e-05
1.67201e-05
1.89735e-05
9.11564e-05
0.000201959
0.000351609
0.000504821
0.000634312
0.00072821
0.000788684
0.000823736
0.000839253
0.000839402
0.000824085
0.000789116
0.000728379
0.00063395
0.00050435
0.000352873
0.000206093
9.23908e-05
1.87799e-05
2.0593e-05
0.000108616
0.000240423
0.000409429
0.000572538
0.000695656
0.000774371
0.000818509
0.000839625
0.000847889
0.000848003
0.000839898
0.00081882
0.00077458
0.000695346
0.000571564
0.000408124
0.000240504
0.000107884
2.07583e-05
2.22632e-05
0.000130487
0.000289597
0.000485442
0.000652427
0.000757431
0.000811551
0.000836219
0.000846452
0.000850093
0.000850159
0.000846617
0.000836415
0.000811771
0.000757721
0.000652777
0.00048593
0.00029031
0.000130794
2.2218e-05
2.3731e-05
0.000163515
0.000381338
0.000607287
0.000753361
0.000817137
0.000839766
0.000846865
0.000849864
0.000851206
0.000851234
0.000849928
0.000846854
0.000839574
0.000816918
0.000753117
0.000606971
0.000381227
0.000163667
2.376e-05
2.56435e-05
0.000279681
0.000619456
0.000786706
0.00083063
0.000843991
0.000849119
0.000851326
0.000851868
0.000851925
0.000851913
0.000851833
0.000851291
0.000849109
0.000844049
0.000830808
0.000787031
0.000619584
0.000279746
2.56376e-05
4.07513e-05
0.00011415
0.000149532
0.000179699
0.000217471
0.000267431
0.000330683
0.000404011
0.000471575
0.000512975
0.000508381
0.000462923
0.000394224
0.000321639
0.000260243
0.000212222
0.000175822
0.000143489
0.000109375
3.86275e-05
4.33289e-05
0.000116454
0.000154052
0.000180587
0.00021831
0.000271273
0.000338157
0.000414961
0.000485449
0.000536062
0.000530055
0.000481046
0.000408156
0.00033017
0.000266478
0.000214149
0.000178404
0.000146115
0.00010989
4.09223e-05
3.77443e-05
0.000114739
0.000149653
0.000181228
0.000218442
0.000269266
0.00033118
0.000404065
0.00047108
0.000521586
0.000516397
0.000470437
0.000403377
0.000327159
0.000264459
0.000214866
0.000182407
0.000148193
0.000109365
3.57463e-05
4.15891e-05
0.000114231
0.000148757
0.000181458
0.000220103
0.000272
0.000333512
0.000406442
0.000471592
0.000510627
0.000506748
0.000463353
0.000402706
0.000325248
0.000266427
0.000216906
0.000183246
0.000145375
0.000109684
3.75645e-05
3.78259e-05
0.000113302
0.000151795
0.000186253
0.000221977
0.000274871
0.000344609
0.00042304
0.000478455
0.000511237
0.000506684
0.000462204
0.000396054
0.000326206
0.000268566
0.000217831
0.000182222
0.000147385
0.000110392
3.6457e-05
3.64772e-05
0.00011266
0.000147203
0.00018004
0.000225628
0.000274073
0.000340623
0.000417569
0.000491606
0.000535513
0.000531364
0.000477129
0.000398694
0.000331383
0.000264934
0.000220517
0.000179731
0.000146033
0.000109983
3.73872e-05
3.76379e-05
0.000112218
0.000148201
0.000179731
0.000221526
0.00027403
0.000341376
0.000418619
0.000489841
0.000521487
0.000520204
0.000469555
0.000399445
0.000326706
0.000265931
0.000217985
0.000181736
0.00014807
0.000109698
3.61606e-05
3.65018e-05
0.00011413
0.000149383
0.000182294
0.000222501
0.000273257
0.000346024
0.000424074
0.000491151
0.000513001
0.000509807
0.000477536
0.00040796
0.00033198
0.000263555
0.000220217
0.000176425
0.000143831
0.000110217
4.06157e-05
4.09392e-05
0.000114012
0.000150698
0.000184434
0.000223008
0.000271506
0.000344919
0.000421943
0.000476568
0.000512361
0.000506699
0.00046131
0.000394182
0.000324196
0.000263209
0.00021609
0.000177487
0.000146114
0.000111769
3.72884e-05
3.74419e-05
0.000112741
0.00015097
0.000185738
0.000224316
0.000271118
0.000332072
0.000402043
0.000469627
0.000510245
0.000517652
0.000470312
0.000401971
0.000330517
0.000267447
0.000214911
0.000178388
0.000147022
0.000110176
3.61968e-05
3.60454e-05
0.000114701
0.000154101
0.000187302
0.000225835
0.00027242
0.000333062
0.00040418
0.000481127
0.000522036
0.000497192
0.000450415
0.000388656
0.000323019
0.000267121
0.000216346
0.000178279
0.000146578
0.000111217
4.0146e-05
3.62334e-05
0.000113687
0.000153861
0.000191262
0.000229463
0.000274912
0.000333516
0.000404097
0.000468531
0.000502412
0.000497016
0.000450919
0.00038697
0.000322604
0.000263091
0.000218672
0.000183316
0.000147445
0.000111706
3.79938e-05
3.61943e-05
0.000114507
0.000153341
0.000182832
0.000222173
0.000272742
0.000335751
0.000414853
0.000485601
0.000511045
0.000499994
0.000455325
0.000389636
0.000325531
0.00026505
0.000218616
0.000181552
0.000149102
0.000113813
3.93495e-05
3.67405e-05
0.000113537
0.000151051
0.000182891
0.000222723
0.000278814
0.000338492
0.000418461
0.000487603
0.000517485
0.000506604
0.000458523
0.000388945
0.000332466
0.000265099
0.000218476
0.000182835
0.000147728
0.000113503
4.24013e-05
3.53406e-05
0.000115094
0.000153482
0.000183023
0.000223237
0.000273524
0.000345408
0.000413168
0.000492546
0.000537396
0.000525671
0.000474559
0.000391038
0.000323217
0.00026479
0.000219034
0.000183303
0.000149756
0.000114288
4.10139e-05
3.9857e-05
0.000114226
0.000150481
0.000184141
0.000224638
0.000277488
0.00034474
0.000417266
0.000492959
0.000530295
0.000512848
0.000469077
0.000397126
0.000319063
0.000261666
0.000216001
0.000180408
0.000153068
0.000114125
3.84176e-05
3.71931e-05
0.000113312
0.000153638
0.00018927
0.000229064
0.00027827
0.000340376
0.000427934
0.000483891
0.000520813
0.00051117
0.000461097
0.000391058
0.000320403
0.000262472
0.000220226
0.000178464
0.000148053
0.000113795
3.96537e-05
3.78942e-05
0.00011447
0.000152509
0.00018314
0.000222727
0.000271265
0.00033046
0.000419054
0.000482609
0.000531771
0.000515078
0.00046179
0.000392788
0.000324857
0.000258589
0.000214537
0.00017686
0.000143799
0.000112121
4.12396e-05
3.90661e-05
0.000112658
0.000151235
0.000184246
0.000222706
0.000271298
0.000328445
0.000407059
0.000486099
0.000521434
0.000535637
0.000478434
0.000401603
0.000320082
0.000259147
0.000209317
0.000178728
0.000141659
0.000110588
3.91679e-05
4.17253e-05
0.00011293
0.000153925
0.000188661
0.000221894
0.000270895
0.000329226
0.000417334
0.000474039
0.000517571
0.000521347
0.000465373
0.000397959
0.000325214
0.000262494
0.000207971
0.000171429
0.000142932
0.000112147
4.25551e-05
3.94622e-05
0.000112981
0.00014891
0.000183107
0.000222653
0.000269695
0.000327481
0.000401203
0.000467511
0.000522803
0.00051177
0.000473414
0.000392246
0.00032102
0.00025995
0.000208809
0.000171878
0.000142521
0.000109864
3.67832e-05
3.63556e-05
0.000111011
0.00014859
0.000184592
0.000225376
0.000270459
0.000328878
0.000405028
0.000479679
0.000509967
0.000499746
0.000456214
0.00039158
0.000321659
0.000258154
0.000208954
0.000172133
0.000143295
0.000111229
3.50218e-05
3.86813e-05
0.000111621
0.000149642
0.000186738
0.000225703
0.000276524
0.000337743
0.000415299
0.00047001
0.000520558
0.000498177
0.000453918
0.000399835
0.000329442
0.000263644
0.000209705
0.00017388
0.000143795
0.000110239
3.55113e-05
4.17967e-05
0.000112601
0.000152756
0.000187902
0.000227928