/*--------------------------------*- C++ -*----------------------------------*\
  =========                 |
  \\      /  F ield         | OpenFOAM: The Open Source CFD Toolbox
   \\    /   O peration     | Website:  https://openfoam.org
    \\  /    A nd           | Version:  6
     \\/     M anipulation  |
\*---------------------------------------------------------------------------*/
FoamFile
{
    version     2.0;
    format      ascii;
    class       volScalarField;
    location    "9";
    object      p;
}
// * * * * * * * * * * * * * * * * * * * * * * * * * * * * * * * * * * * * * //

dimensions      [0 2 -2 0 0 0 0];

internalField   nonuniform List<scalar> 
10000
(
-0.0825682
-0.0785924
-0.0666523
-0.0432935
-0.0258456
-0.0153228
-0.00930712
-0.00504527
-0.00124893
0.00146859
0.00311262
0.00330699
0.00228026
-0.00032847
-0.0062286
-0.0177164
-0.0367411
-0.061979
-0.0719093
-0.0694059
-0.144097
-0.127528
-0.0944067
-0.0455847
-0.00465233
0.0225472
0.0380838
0.0480041
0.0555074
0.0614625
0.0665491
0.0705948
0.0758746
0.0803811
0.0809015
0.0696859
0.0409395
-0.000930373
-0.0354201
-0.0605081
0.0264369
0.0326255
0.0454554
0.064586
0.0854178
0.105597
0.122698
0.136104
0.146206
0.15373
0.159424
0.164145
0.168543
0.173669
0.179424
0.183567
0.183041
0.175742
0.159572
0.139029
0.211589
0.227496
0.236067
0.239468
0.239716
0.238182
0.23695
0.23735
0.239307
0.242629
0.24671
0.251873
0.258287
0.265545
0.272618
0.278057
0.279416
0.274474
0.264742
0.253567
0.37045
0.388444
0.393313
0.384971
0.370686
0.354828
0.341809
0.333028
0.328654
0.327379
0.328365
0.331106
0.334787
0.339621
0.344413
0.348822
0.353168
0.355602
0.352496
0.345129
0.423796
0.430359
0.434965
0.433845
0.42823
0.420107
0.412028
0.405439
0.401036
0.398363
0.396613
0.395026
0.393538
0.391588
0.389312
0.387343
0.386107
0.385807
0.385657
0.385809
0.437119
0.429345
0.430542
0.436918
0.444869
0.452888
0.458667
0.461892
0.463116
0.462813
0.461626
0.459082
0.454488
0.446967
0.436393
0.424141
0.413105
0.40588
0.406309
0.415168
0.492172
0.485559
0.488714
0.498419
0.509725
0.520964
0.529346
0.534309
0.536178
0.536144
0.534329
0.530688
0.525454
0.517711
0.507926
0.497197
0.487851
0.481971
0.480964
0.486386
0.591815
0.593612
0.59834
0.605382
0.61236
0.616973
0.619123
0.619554
0.618932
0.617542
0.615688
0.613222
0.609567
0.605055
0.600075
0.594339
0.588616
0.583886
0.582381
0.585055
0.697492
0.701748
0.701738
0.700051
0.699904
0.700004
0.700228
0.700657
0.700964
0.701511
0.702439
0.703783
0.706193
0.709693
0.714411
0.719657
0.723362
0.724101
0.721439
0.716624
0.76549
0.762416
0.758999
0.757995
0.760017
0.764516
0.769733
0.77467
0.778718
0.782101
0.785415
0.790272
0.796994
0.807187
0.820006
0.834416
0.848138
0.857259
0.855202
0.84311
0.846034
0.844002
0.840834
0.839071
0.839909
0.843288
0.847751
0.852475
0.856556
0.860031
0.862775
0.865606
0.869107
0.873278
0.878169
0.88382
0.889685
0.895066
0.898074
0.89977
0.934441
0.934024
0.932142
0.930314
0.929713
0.93077
0.932931
0.935346
0.937682
0.93941
0.940763
0.941122
0.940006
0.937183
0.932865
0.927504
0.92306
0.921338
0.925225
0.937837
1.03759
1.043
1.04605
1.04545
1.04152
1.03603
1.03092
1.0272
1.02495
1.02374
1.02292
1.02147
1.01975
1.01654
1.01236
1.00778
1.00412
1.00267
1.00368
1.00971
1.14323
1.1531
1.15599
1.14962
1.13889
1.12775
1.11889
1.11258
1.10856
1.10578
1.10388
1.10233
1.10071
1.0991
1.09717
1.09465
1.09242
1.09118
1.09178
1.09544
1.21166
1.2058
1.20101
1.19845
1.19693
1.19597
1.1946
1.19256
1.19029
1.18851
1.18703
1.18571
1.18525
1.18541
1.18675
1.18927
1.19214
1.1944
1.19521
1.19581
1.30438
1.30126
1.29658
1.29097
1.28664
1.28293
1.27927
1.27594
1.27313
1.27086
1.26916
1.26825
1.26738
1.26758
1.26915
1.27291
1.27901
1.28484
1.28658
1.28346
1.36417
1.36108
1.36127
1.36142
1.36043
1.35841
1.35607
1.35427
1.35289
1.35206
1.35172
1.3516
1.35164
1.35039
1.3473
1.34248
1.33678
1.33225
1.33402
1.34114
1.41931
1.416
1.41906
1.42375
1.42724
1.42894
1.42931
1.42915
1.42903
1.42929
1.43033
1.43258
1.43573
1.44
1.44461
1.44796
1.44938
1.44911
1.44778
1.44482
1.48045
1.47671
1.47795
1.4822
1.48721
1.49156
1.49467
1.49684
1.49818
1.49937
1.50036
1.50193
1.50525
1.51102
1.51993
1.53096
1.54122
1.54755
1.54558
1.53463
1.52788
1.5252
1.525
1.52894
1.53581
1.54358
1.55062
1.55588
1.55947
1.56145
1.56251
1.5627
1.56153
1.55985
1.55774
1.5557
1.55481
1.55474
1.556
1.5589
1.57126
1.56836
1.56936
1.57595
1.58608
1.59757
1.60833
1.61667
1.62234
1.62564
1.62701
1.62574
1.62242
1.61522
1.60432
1.59069
1.57713
1.56774
1.56813
1.58037
1.65705
1.65563
1.65716
1.66229
1.66941
1.6771
1.68469
1.69108
1.69581
1.69834
1.69909
1.69796
1.69497
1.69017
1.68407
1.67675
1.66935
1.66375
1.66153
1.66294
1.78906
1.79358
1.79213
1.78738
1.78327
1.7808
1.7807
1.7822
1.78387
1.78491
1.78472
1.78293
1.7801
1.77649
1.774
1.77379
1.77507
1.77751
1.77769
1.77145
1.90854
1.91162
1.9092
1.90529
1.89982
1.89352
1.88836
1.8846
1.88216
1.88052
1.8797
1.87934
1.87886
1.87861
1.87828
1.87734
1.87592
1.87546
1.87665
1.87562
2.01541
2.02328
2.02661
2.0225
2.01256
2.00064
1.98998
1.98205
1.97702
1.97434
1.9733
1.97375
1.97643
1.98111
1.98733
1.99361
1.9975
1.99786
1.99599
1.99195
2.09527
2.09984
2.10248
2.09664
2.0865
2.07598
2.06708
2.06088
2.05756
2.05632
2.05676
2.05917
2.06314
2.06954
2.07771
2.087
2.09531
2.09917
2.09784
2.09107
2.14957
2.14698
2.14586
2.14367
2.1409
2.13733
2.13387
2.13118
2.12951
2.12919
2.12992
2.1319
2.1356
2.14057
2.14667
2.1534
2.15974
2.16455
2.1657
2.16045
2.18103
2.16907
2.16659
2.17194
2.17977
2.18713
2.19211
2.19433
2.19496
2.19483
2.19464
2.19439
2.19376
2.19305
2.19213
2.19148
2.19186
2.1936
2.19564
2.19377
2.24072
2.23408
2.23349
2.23765
2.24424
2.25166
2.25765
2.26139
2.26296
2.26294
2.26176
2.25897
2.25466
2.24737
2.23751
2.22646
2.2166
2.2104
2.21142
2.21768
2.31255
2.31033
2.30982
2.3136
2.31894
2.32455
2.32924
2.33261
2.33442
2.33439
2.33296
2.33003
2.32527
2.31835
2.30955
2.2996
2.29114
2.28591
2.28541
2.28933
2.40165
2.40587
2.40766
2.41026
2.41211
2.41291
2.41313
2.41334
2.41351
2.41359
2.41281
2.41118
2.40874
2.40523
2.4012
2.39662
2.39175
2.38786
2.38701
2.38724
2.4833
2.49064
2.49244
2.49015
2.48731
2.48616
2.48734
2.48993
2.493
2.49617
2.49938
2.50295
2.50653
2.51126
2.51688
2.5226
2.52664
2.52766
2.52491
2.51737
2.54578
2.53733
2.53355
2.53633
2.54289
2.5521
2.56159
2.56979
2.57593
2.58134
2.58626
2.59227
2.60008
2.61068
2.62383
2.63846
2.65189
2.66061
2.65798
2.64413
2.67087
2.67317
2.67304
2.67198
2.67082
2.66904
2.66725
2.6662
2.66613
2.66676
2.66812
2.6706
2.67398
2.67894
2.6847
2.69077
2.69658
2.7015
2.70412
2.70482
2.79405
2.80626
2.8104
2.80418
2.79271
2.77849
2.76596
2.757
2.75173
2.74881
2.74714
2.7456
2.74425
2.74216
2.73917
2.73555
2.73224
2.73078
2.73472
2.74554
2.85078
2.8485
2.84679
2.84258
2.83769
2.83282
2.82871
2.82552
2.82345
2.82212
2.82136
2.82063
2.8194
2.81732
2.81434
2.81112
2.80883
2.80798
2.80878
2.8127
2.89276
2.87873
2.8722
2.87274
2.87739
2.88401
2.88931
2.89267
2.89413
2.89502
2.895
2.89449
2.89315
2.89078
2.88768
2.88437
2.88148
2.87963
2.87917
2.88144
2.97392
2.96562
2.96056
2.95905
2.9606
2.96443
2.96816
2.97125
2.97291
2.9736
2.97342
2.97278
2.97107
2.96884
2.96581
2.96247
2.95926
2.95676
2.95588
2.95751
3.07134
3.06644
3.06104
3.05727
3.055
3.0541
3.05394
3.05456
3.0549
3.05514
3.0546
3.05392
3.05286
3.05177
3.05052
3.04935
3.04787
3.04642
3.04573
3.04722
3.18232
3.18358
3.18147
3.17653
3.16906
3.16016
3.15172
3.14514
3.14066
3.13777
3.13571
3.13464
3.13408
3.13498
3.13719
3.14093
3.14475
3.14747
3.14739
3.14683
3.26644
3.27224
3.27262
3.26532
3.25428
3.24255
3.23258
3.225
3.21938
3.21557
3.21226
3.20979
3.20768
3.20684
3.20801
3.21221
3.21824
3.22417
3.22555
3.22353
3.29217
3.28312
3.2812
3.28427
3.28846
3.29216
3.29404
3.29378
3.29215
3.29003
3.28769
3.28487
3.28055
3.27436
3.26572
3.25615
3.24717
3.24107
3.24329
3.25625
3.34198
3.3376
3.33835
3.34322
3.35046
3.35786
3.36341
3.36698
3.36851
3.36911
3.36903
3.36894
3.36857
3.36739
3.3637
3.35695
3.34783
3.33917
3.33677
3.34374
3.40669
3.40551
3.40685
3.41254
3.42007
3.42816
3.43531
3.44144
3.44595
3.44955
3.45252
3.45618
3.46069
3.46793
3.4771
3.48668
3.49417
3.4977
3.49331
3.48205
3.50345
3.50867
3.51153
3.51555
3.51914
3.52183
3.52375
3.52585
3.52785
3.53062
3.53341
3.5376
3.54322
3.55165
3.56283
3.57652
3.59001
3.59956
3.59806
3.58579
3.61076
3.62464
3.62846
3.6257
3.62036
3.61459
3.60999
3.60721
3.60582
3.60537
3.60545
3.60652
3.60796
3.6104
3.61331
3.61733
3.6214
3.62455
3.62615
3.62636
3.67736
3.68374
3.68747
3.68817
3.68613
3.68311
3.68047
3.67855
3.67708
3.67602
3.67482
3.67314
3.66991
3.66457
3.65702
3.64868
3.64133
3.63707
3.64003
3.65059
3.72894
3.7297
3.73123
3.7343
3.73745
3.74045
3.74317
3.74548
3.7468
3.74735
3.74684
3.74501
3.74096
3.73487
3.72679
3.71795
3.71055
3.70683
3.70778
3.71229
3.79138
3.78436
3.78042
3.78406
3.79245
3.80291
3.81231
3.81971
3.82408
3.82655
3.82677
3.82569
3.82274
3.81837
3.81229
3.80567
3.79942
3.79534
3.79501
3.79604
3.89902
3.90267
3.90518
3.90701
3.9085
3.91013
3.91132
3.91268
3.91365
3.91469
3.91533
3.91652
3.91767
3.91968
3.92151
3.92327
3.92375
3.92288
3.92129
3.91676
4.00705
4.02043
4.02869
4.02864
4.02275
4.01441
4.00696
4.00224
3.99978
3.99982
4.00091
4.00409
4.00908
4.0174
4.02796
4.03966
4.04956
4.05535
4.05337
4.04157
4.07404
4.07607
4.07567
4.07329
4.07095
4.0698
4.06989
4.07085
4.07193
4.07348
4.07493
4.07727
4.08001
4.08471
4.09019
4.09662
4.10275
4.10711
4.10896
4.10765
4.14812
4.13904
4.133
4.13106
4.13337
4.13869
4.14399
4.14805
4.15016
4.15115
4.15062
4.14904
4.14583
4.14188
4.13714
4.13354
4.13235
4.13383
4.13858
4.14683
4.27357
4.27341
4.27344
4.2695
4.26366
4.25697
4.25041
4.24522
4.24138
4.23849
4.23597
4.23316
4.2288
4.22225
4.21269
4.20099
4.18971
4.18253
4.18521
4.19714
4.37121
4.37574
4.37767
4.37137
4.36101
4.34936
4.33898
4.33128
4.32625
4.3234
4.3218
4.32121
4.32124
4.32155
4.32114
4.31983
4.31681
4.31349
4.31128
4.3091
4.40343
4.39102
4.38743
4.38928
4.3924
4.39581
4.39819
4.3995
4.40006
4.40123
4.40297
4.40646
4.41111
4.41841
4.42759
4.43776
4.44526
4.44743
4.44132
4.42661
4.46114
4.45111
4.45027
4.45585
4.46203
4.46696
4.47004
4.47202
4.47313
4.47471
4.47654
4.4795
4.4832
4.48828
4.49394
4.50012
4.50473
4.50608
4.50252
4.49511
4.54404
4.54483
4.54524
4.54485
4.54511
4.54565
4.54617
4.54635
4.54609
4.54577
4.54526
4.54467
4.54315
4.54128
4.5384
4.53547
4.53391
4.53403
4.53407
4.53661
4.61031
4.60545
4.603
4.60412
4.60757
4.61169
4.61498
4.617
4.61791
4.61784
4.61699
4.61502
4.61179
4.60623
4.59716
4.58547
4.57363
4.5651
4.56404
4.57397
4.69279
4.69433
4.69777
4.70111
4.70236
4.70079
4.6978
4.69486
4.69257
4.69046
4.68821
4.68556
4.68195
4.67765
4.67258
4.66705
4.66234
4.65885
4.6564
4.65688
4.75347
4.75965
4.76492
4.76633
4.76589
4.76487
4.76418
4.76353
4.76258
4.76122
4.75904
4.75571
4.75148
4.74694
4.74312
4.74186
4.74295
4.7448
4.74406
4.74095
4.78247
4.77282
4.77333
4.78235
4.79536
4.8097
4.82219
4.83092
4.83587
4.83817
4.83882
4.83846
4.83638
4.83241
4.82575
4.81674
4.80757
4.80082
4.80179
4.81044
4.87812
4.87676
4.87888
4.88418
4.89209
4.90087
4.9088
4.9155
4.92074
4.92468
4.92805
4.93093
4.93445
4.93827
4.94177
4.94465
4.94572
4.94594
4.94528
4.94218
5.0078
5.01428
5.01548
5.01215
5.00855
5.00589
5.00535
5.00718
5.01043
5.0144
5.01874
5.02425
5.03069
5.04011
5.0523
5.0661
5.07925
5.08847
5.08796
5.07464
5.12511
5.12678
5.12495
5.12159
5.11697
5.11181
5.10751
5.10487
5.10391
5.10418
5.1055
5.10734
5.11062
5.11505
5.12033
5.12647
5.13296
5.13953
5.14437
5.14455
5.22147
5.22486
5.22346
5.21798
5.21027
5.20193
5.19476
5.18952
5.18664
5.18516
5.18479
5.18489
5.1846
5.18392
5.18251
5.18024
5.17908
5.18037
5.18713
5.19874
5.26977
5.26894
5.26543
5.26189
5.25961
5.25891
5.25913
5.25978
5.26089
5.2621
5.26361
5.26435
5.26544
5.26578
5.26588
5.26663
5.26825
5.27159
5.2768
5.2825
5.30735
5.29461
5.28704
5.28931
5.29808
5.30995
5.32118
5.32977
5.33551
5.33938
5.34194
5.34405
5.34493
5.34562
5.34629
5.34697
5.34894
5.35248
5.35791
5.36132
5.41444
5.40546
5.39987
5.40135
5.40665
5.41401
5.4207
5.42572
5.42887
5.43068
5.43151
5.43075
5.42926
5.42643
5.42357
5.42227
5.42295
5.42612
5.43139
5.43375
5.58353
5.59271
5.59057
5.58065
5.56832
5.55555
5.54509
5.53754
5.53275
5.5294
5.5268
5.52438
5.52046
5.51534
5.5094
5.50345
5.49973
5.49928
5.50281
5.50476
5.7199
5.73153
5.72881
5.71333
5.69288
5.67179
5.65436
5.64165
5.63356
5.62813
5.62497
5.6224
5.62169
5.62076
5.61873
5.61516
5.60955
5.60405
5.60304
5.6036
5.78916
5.78704
5.78037
5.76897
5.75641
5.74459
5.73487
5.72736
5.72212
5.71909
5.71788
5.71926
5.72248
5.72941
5.73915
5.75003
5.76077
5.76843
5.76741
5.75568
5.83277
5.82006
5.81057
5.80658
5.80579
5.80714
5.80754
5.80688
5.80567
5.80523
5.80583
5.80761
5.81215
5.81988
5.83163
5.84754
5.86505
5.88004
5.88373
5.87483
5.90216
5.89802
5.89252
5.88844
5.88698
5.88772
5.88882
5.88947
5.88957
5.88959
5.89007
5.89214
5.89464
5.89875
5.90432
5.91159
5.92115
5.93105
5.938
5.94125
5.98176
5.98218
5.97771
5.97323
5.9703
5.96979
5.97099
5.97291
5.97507
5.97708
5.97983
5.98244
5.98599
5.98837
5.98962
5.98994
5.99019
5.99206
5.99748
6.00694
6.08825
6.09565
6.09427
6.08777
6.07961
6.07208
6.06708
6.06456
6.06447
6.06618
6.06976
6.07564
6.08319
6.09281
6.10375
6.11385
6.12175
6.12607
6.12487
6.12023
6.20164
6.21953
6.22239
6.21115
6.19465
6.1781
6.16526
6.15713
6.15324
6.15257
6.1546
6.15911
6.16753
6.17941
6.19513
6.21286
6.22811
6.23627
6.23085
6.21435
6.27338
6.28867
6.29616
6.29182
6.27996
6.26452
6.25005
6.23847
6.23083
6.22671
6.22555
6.22719
6.23052
6.23585
6.24242
6.24894
6.25362
6.25413
6.24814
6.23944
6.31124
6.33014
6.34597
6.34909
6.34129
6.32743
6.31284
6.30048
6.29198
6.2869
6.28486
6.28419
6.28468
6.28375
6.28122
6.27612
6.26804
6.25761
6.24708
6.2418
6.29455
6.31405
6.33516
6.34834
6.35178
6.34871
6.34326
6.33771
6.33337
6.33062
6.32929
6.32934
6.32988
6.33018
6.32964
6.3263
6.31861
6.30514
6.28499
6.26435
6.25632
6.27349
6.30118
6.3299
6.35149
6.36458
6.37038
6.37148
6.3699
6.36775
6.36514
6.36247
6.35972
6.35617
6.35227
6.34595
6.33542
6.31813
6.29131
6.26187
6.24382
6.27536
6.31462
6.34964
6.37541
6.39048
6.39676
6.39777
6.39645
6.39402
6.39103
6.3871
6.38139
6.37177
6.35699
6.33519
6.30624
6.27231
6.23973
6.21789
6.21328
6.2516
6.29646
6.33574
6.3667
6.388
6.40127
6.40846
6.41165
6.41185
6.40976
6.40527
6.39823
6.38694
6.37147
6.34932
6.32036
6.28585
6.24752
6.21428
6.16656
6.18959
6.23031
6.28011
6.3293
6.37115
6.40192
6.42115
6.43121
6.4344
6.43249
6.42573
6.41502
6.39929
6.37966
6.35624
6.32801
6.2947
6.25491
6.21756
6.22127
6.2474
6.28507
6.32759
6.37228
6.41154
6.4409
6.45998
6.47059
6.47432
6.47254
6.46551
6.4524
6.43169
6.40359
6.36739
6.32619
6.28373
6.24575
6.2239
6.36277
6.38777
6.4146
6.43815
6.46523
6.49186
6.51353
6.52836
6.53681
6.53891
6.5359
6.52714
6.51398
6.4947
6.47074
6.44299
6.41255
6.3822
6.34977
6.32813
6.56834
6.57536
6.58507
6.58976
6.60072
6.61553
6.62869
6.63635
6.63869
6.6363
6.63012
6.6209
6.6076
6.59129
6.5748
6.55941
6.54673
6.53477
6.51448
6.50116
6.84153
6.83355
6.82698
6.80593
6.78896
6.78078
6.77752
6.77423
6.77024
6.76491
6.7594
6.75285
6.74629
6.73806
6.72976
6.72394
6.72083
6.72139
6.71927
6.7357
7.15744
7.12388
7.09762
7.04877
7.00261
6.97006
6.95104
6.93914
6.93137
6.92605
6.92339
6.92538
6.93086
6.94244
6.96119
6.98897
7.02575
7.0644
7.08378
7.11454
7.52571
7.46061
7.41598
7.34098
7.26713
7.21045
7.17305
7.14903
7.1349
7.12867
7.1303
7.14146
7.16399
7.20112
7.25523
7.32963
7.41621
7.49529
7.5313
7.57902
7.93944
7.85928
7.81538
7.71363
7.60029
7.50452
7.43647
7.39101
7.3641
7.3538
7.35911
7.384
7.42659
7.49376
7.58412
7.69532
7.81369
7.90952
7.94359
8.01728
8.25568
8.15715
8.14085
8.04292
7.91135
7.7881
7.69416
7.62834
7.58757
7.57021
7.57474
7.60323
7.65612
7.73706
7.84376
7.97197
8.0997
8.19047
8.20307
8.30633
8.29779
8.15588
8.19861
8.15546
8.05688
7.94721
7.85547
7.78798
7.74398
7.72421
7.72528
7.75114
7.79648
7.86531
7.95368
8.05324
8.1438
8.18775
8.15529
8.30888
7.99059
7.76122
7.87446
7.92927
7.91828
7.87644
7.83089
7.79467
7.7701
7.75855
7.75829
7.76985
7.79242
7.82317
7.85676
7.88444
7.88575
7.83371
7.73335
7.97483
7.46012
7.07161
7.24002
7.40506
7.50661
7.56009
7.58754
7.60221
7.60861
7.61237
7.61187
7.60985
7.60071
7.58115
7.54482
7.47769
7.3673
7.20117
7.04067
7.44194
7.1181
6.49422
6.68383
6.91188
7.0736
7.17534
7.23897
7.28088
7.30552
7.31826
7.31977
7.30882
7.28552
7.24247
7.1751
7.06617
6.90075
6.67469
6.49229
7.12825
7.50321
6.59496
6.75737
6.91722
7.00618
7.05371
7.08439
7.10696
7.12134
7.12867
7.12958
7.12334
7.10892
7.08866
7.05553
7.00971
6.91853
6.7695
6.61622
7.53074
8.96271
7.38277
7.40133
7.43688
7.41723
7.38975
7.37601
7.37206
7.37268
7.37137
7.37241
7.36888
7.36607
7.37188
7.3829
7.41815
7.44611
7.42031
7.39998
8.95754
11.5268
7.04649
7.04513
7.33464
7.38805
7.38464
7.38449
7.38592
7.38698
7.38762
7.38777
7.38722
7.38542
7.38482
7.3858
7.39083
7.34192
7.05645
7.05594
11.5282
-0.424856
-0.359006
-0.353334
-0.252008
-0.184421
-0.151992
-0.133684
-0.11957
-0.108625
-0.102683
-0.101052
-0.104566
-0.111618
-0.120632
-0.132086
-0.155647
-0.212659
-0.305449
-0.315621
-0.376744
-0.596185
-0.537821
-0.507863
-0.374108
-0.245301
-0.15534
-0.100489
-0.0661296
-0.0449389
-0.0341064
-0.0310016
-0.0368669
-0.0477462
-0.0663904
-0.0955668
-0.150777
-0.243114
-0.346216
-0.375929
-0.452073
-0.248622
-0.289769
-0.272423
-0.204001
-0.118393
-0.0350836
0.0306594
0.0765788
0.105981
0.123313
0.13094
0.129711
0.119307
0.0981253
0.0649017
0.0219575
-0.0160034
-0.0370344
-0.0448621
-0.0382149
-0.0894399
-0.0946543
-0.0752303
-0.0251728
0.0417886
0.11235
0.173514
0.222142
0.257491
0.282736
0.299692
0.310954
0.317542
0.317488
0.305876
0.275372
0.221359
0.157559
0.138421
0.167344
0.023362
0.0705324
0.112272
0.166935
0.236006
0.310349
0.373596
0.422437
0.459039
0.489066
0.514153
0.53996
0.567792
0.602627
0.645093
0.692734
0.734884
0.761275
0.753029
0.732458
0.347289
0.42984
0.489739
0.527197
0.553443
0.578266
0.605891
0.636592
0.665239
0.693624
0.719718
0.749048
0.781871
0.824002
0.879251
0.953869
1.04136
1.1211
1.14692
1.11566
0.821164
0.898492
0.927907
0.898158
0.86142
0.837494
0.834792
0.848863
0.869092
0.890576
0.911556
0.933216
0.951757
0.964862
0.969896
0.972806
0.979482
0.994039
1.03356
1.06921
1.09167
1.11724
1.12728
1.1279
1.1156
1.09933
1.08712
1.08215
1.08285
1.0869
1.09178
1.09418
1.09184
1.07744
1.04569
0.993818
0.936169
0.897552
0.915055
0.9659
1.38128
1.38715
1.39953
1.3992
1.3817
1.35558
1.32954
1.30784
1.2926
1.28122
1.27076
1.25633
1.23567
1.20802
1.17248
1.12768
1.08351
1.05309
1.04459
1.05504
1.54858
1.4906
1.46487
1.4629
1.47319
1.48449
1.48836
1.48668
1.48194
1.47522
1.46556
1.45039
1.4285
1.39896
1.3626
1.32412
1.28475
1.24698
1.22276
1.21089
1.787
1.69236
1.65063
1.65931
1.68012
1.69471
1.69726
1.69426
1.6882
1.68113
1.67223
1.66146
1.6472
1.63346
1.62357
1.61995
1.61871
1.6101
1.58145
1.53087
2.18291
2.15899
2.12438
2.07252
2.01806
1.96957
1.93412
1.91102
1.89454
1.88313
1.8733
1.86566
1.86063
1.8614
1.87202
1.89587
1.9317
1.96985
1.96143
1.89185
2.21681
2.24278
2.20986
2.15782
2.11332
2.08512
2.07098
2.06396
2.05953
2.05642
2.05416
2.05484
2.05925
2.06793
2.07783
2.08379
2.08216
2.07961
2.08055
2.06719
2.08033
2.06309
2.05633
2.10691
2.1611
2.19905
2.21903
2.2278
2.2308
2.23051
2.22707
2.2209
2.21335
2.20603
2.20263
2.20484
2.20916
2.21234
2.21505
2.22236
2.28416
2.30118
2.31417
2.3393
2.37278
2.40255
2.4237
2.43514
2.43945
2.43646
2.4285
2.41375
2.39023
2.35539
2.31106
2.2657
2.23014
2.2073
2.21227
2.24624
2.5345
2.56647
2.58343
2.60688
2.63768
2.66933
2.69109
2.69866
2.69788
2.69108
2.68202
2.66846
2.65256
2.62775
2.58964
2.53015
2.45059
2.37024
2.34098
2.36443
2.98418
3.03816
3.06734
3.06528
3.04642
3.02162
3.00137
2.98559
2.97406
2.96435
2.95817
2.95498
2.9563
2.96361
2.97823
2.99155
2.99456
2.98007
2.93542
2.87772
3.43754
3.49251
3.49788
3.44045
3.36858
3.30378
3.25892
3.23191
3.2169
3.20935
3.20857
3.21661
3.23737
3.27294
3.32223
3.3834
3.44817
3.49973
3.48704
3.41306
3.58293
3.57124
3.55183
3.52383
3.49082
3.46163
3.43921
3.42235
3.41193
3.40744
3.40956
3.42043
3.44248
3.47921
3.52557
3.57661
3.62519
3.66111
3.67925
3.67635
3.54435
3.51385
3.50073
3.50931
3.52414
3.53911
3.55175
3.56055
3.56744
3.57449
3.58325
3.59331
3.60459
3.61676
3.63221
3.65394
3.68412
3.71612
3.75282
3.79215
3.4029
3.35941
3.36624
3.43675
3.52127
3.59407
3.64727
3.68488
3.71179
3.73189
3.74966
3.76528
3.77696
3.78035
3.77432
3.75683
3.73663
3.72374
3.75165
3.81356
3.50511
3.51859
3.55164
3.60521
3.67109
3.73932
3.79841
3.84506
3.87943
3.90488
3.92364
3.93751
3.94778
3.95287
3.95463
3.95348
3.95493
3.96517
3.98175
4.00364
3.74559
3.77914
3.81685
3.8658
3.91748
3.96997
4.01927
4.05878
4.08728
4.10698
4.11981
4.12673
4.12795
4.12588
4.12276
4.11894
4.11524
4.11716
4.13134
4.15452
4.2378
4.2999
4.33515
4.33974
4.32969
4.31792
4.31499
4.32095
4.32965
4.33705
4.3411
4.34204
4.34098
4.33598
4.32763
4.31758
4.30747
4.30118
4.30741
4.32074
4.81041
4.88049
4.87819
4.80534
4.72377
4.65569
4.60979
4.58537
4.57511
4.57033
4.56684
4.56272
4.55806
4.55269
4.54663
4.541
4.53597
4.53068
4.52865
4.52244
5.1348
5.12965
5.09327
5.0371
4.97313
4.91463
4.86762
4.83446
4.81332
4.80031
4.79071
4.78136
4.77246
4.76423
4.76026
4.76526
4.77971
4.79519
4.79538
4.76777
5.30366
5.25689
5.2152
5.18612
5.15399
5.11914
5.08642
5.05894
5.03832
5.02316
5.01064
4.99877
4.98435
4.96791
4.95017
4.93712
4.93726
4.95213
4.95954
4.93056
5.33196
5.25138
5.21404
5.23604
5.26253
5.27931
5.2828
5.2758
5.26426
5.25299
5.24312
5.23344
5.22343
5.20846
5.18207
5.13421
5.0618
4.98611
4.96695
4.99034
5.56202
5.52472
5.5153
5.52875
5.53465
5.53034
5.5181
5.50363
5.49032
5.48022
5.47365
5.47084
5.47063
5.47479
5.48553
5.49982
5.50784
5.49965
5.46609
5.43691
5.90557
5.91354
5.89979
5.85167
5.80481
5.76208
5.72753
5.70378
5.68841
5.67932
5.6738
5.67275
5.67635
5.68837
5.71441
5.76024
5.82051
5.87504
5.87491
5.83088
5.99639
5.96999
5.9342
5.9069
5.89181
5.88163
5.87252
5.86338
5.85567
5.84983
5.84643
5.8463
5.84877
5.85596
5.86729
5.88247
5.90084
5.92088
5.93923
5.94548
5.99963
5.97725
5.95683
5.95586
5.967
5.98404
5.99915
6.00664
6.00806
6.00746
6.0062
6.00361
5.99842
5.98608
5.96478
5.94007
5.92174
5.91722
5.93417
5.97149
5.92243
5.8974
5.89967
5.94075
6.00107
6.06205
6.10982
6.14084
6.15931
6.16885
6.17406
6.17474
6.17235
6.163
6.14084
6.09909
6.04025
5.98427
5.97733
6.02483
5.97739
5.97239
6.01753
6.10367
6.1865
6.25063
6.2952
6.32547
6.34617
6.35989
6.36914
6.37531
6.38155
6.39068
6.40845
6.43197
6.45184
6.45731
6.43584
6.41725
6.39492
6.46725
6.5197
6.5188
6.51291
6.51507
6.52712
6.54189
6.55565
6.56572
6.57324
6.57912
6.58384
6.59237
6.61109
6.65052
6.7114
6.76803
6.77237
6.73615
6.71741
6.76853
6.77102
6.73824
6.72248
6.72538
6.73974
6.75749
6.77364
6.78498
6.79242
6.79691
6.79978
6.79703
6.78298
6.75775
6.7333
6.72275
6.73808
6.7598
6.96274
6.97862
6.98317
6.99411
7.0011
7.00342
7.00575
7.01078
7.0183
7.02484
7.03098
7.03513
7.03859
7.03803
7.02759
6.99436
6.93845
6.88511
6.87531
6.90656
7.30054
7.33459
7.35886
7.36436
7.34461
7.31502
7.29073
7.27537
7.26844
7.2676
7.27082
7.27661
7.28644
7.3031
7.33305
7.3735
7.40642
7.41895
7.3979
7.36239
7.59555
7.61653
7.63275
7.62703
7.60111
7.56483
7.53163
7.50805
7.49392
7.48714
7.48596
7.49094
7.50058
7.5202
7.55546
7.61659
7.6941
7.75854
7.7641
7.70824
7.79208
7.78888
7.78248
7.76341
7.74486
7.72876
7.71254
7.69862
7.6877
7.68085
7.67663
7.67478
7.67302
7.66774
7.65641
7.64432
7.63762
7.63984
7.66157
7.68111
7.86858
7.83939
7.82027
7.81641
7.82579
7.84359
7.85811
7.86633
7.86856
7.86687
7.86277
7.85546
7.84372
7.82129
7.78149
7.72006
7.65137
7.60275
7.60652
7.65916
8.00199
7.95945
7.95299
7.98649
8.02624
8.05697
8.07374
8.08224
8.08434
8.08231
8.07547
8.06357
8.04673
8.02485
7.99683
7.95772
7.91291
7.87694
7.85829
7.87029
8.40423
8.41525
8.41899
8.39941
8.37212
8.34783
8.33345
8.32673
8.3234
8.32099
8.31882
8.31513
8.30791
8.29833
8.28862
8.27731
8.25824
8.23064
8.20319
8.18705
8.68288
8.6927
8.67246
8.62734
8.58571
8.55929
8.54839
8.54534
8.54569
8.54849
8.55334
8.56185
8.5753
8.59703
8.63039
8.67397
8.71297
8.72924
8.7043
8.6577
8.79148
8.75033
8.7353
8.76088
8.78122
8.78495
8.77655
8.7654
8.75785
8.75566
8.7572
8.7655
8.7821
8.81501
8.86653
8.93929
9.02128
9.08747
9.08949
9.03793
9.13329
9.1387
9.13522
9.10183
9.05526
9.01061
8.97685
8.95446
8.94078
8.93476
8.93323
8.93585
8.93955
8.94416
8.94817
8.95165
8.9564
8.966
8.99066
9.01528
9.22206
9.21259
9.18136
9.13337
9.09767
9.08341
9.08131
9.08308
9.08488
9.08621
9.08744
9.08722
9.08308
9.06935
9.04035
8.99633
8.9517
8.92309
8.9358
8.98927
9.06197
8.98625
8.9669
9.02554
9.10568
9.17755
9.22297
9.24619
9.2551
9.25681
9.2522
9.24292
9.229
9.21069
9.18616
9.15777
9.13368
9.12173
9.12096
9.13744
9.28282
9.26558
9.3015
9.3691
9.42744
9.46339
9.47935
9.48219
9.47718
9.46791
9.45457
9.43652
9.413
9.38616
9.35655
9.32557
9.29454
9.27153
9.26686
9.27626
9.77615
9.84761
9.89177
9.86999
9.82478
9.78055
9.75108
9.73159
9.71539
9.70081
9.68597
9.67067
9.65343
9.63376
9.60989
9.58128
9.54853
9.51869
9.50417
9.50819
10.0141
10.0681
10.0693
10.0288
9.99172
9.96559
9.94921
9.9398
9.93364
9.92979
9.92802
9.92886
9.9312
9.9352
9.93992
9.94232
9.93522
9.91751
9.89586
9.87911
9.94958
9.93546
9.9286
9.95985
10.0071
10.0522
10.0849
10.1097
10.1286
10.1455
10.1623
10.1839
10.2118
10.2505
10.3018
10.3647
10.4224
10.4548
10.4415
10.3993
10.0264
10.0052
10.0223
10.0874
10.1635
10.2314
10.2796
10.3138
10.3379
10.3593
10.3798
10.4069
10.443
10.496
10.566
10.6575
10.7589
10.8443
10.8619
10.8196
10.4736
10.5185
10.5522
10.5559
10.5449
10.5334
10.5292
10.5347
10.544
10.5572
10.5721
10.5922
10.6153
10.6403
10.6609
10.6795
10.7009
10.728
10.7696
10.8139
10.9101
10.9699
10.9671
10.9011
10.8245
10.7636
10.728
10.7143
10.7124
10.7166
10.7237
10.7329
10.7404
10.7413
10.7291
10.7021
10.6728
10.6568
10.6831
10.7576
11.0651
11.0585
11.0288
10.9902
10.9478
10.9099
10.8806
10.8622
10.8518
10.8476
10.8442
10.8393
10.8297
10.8162
10.7993
10.78
10.7649
10.7622
10.7727
10.803
11.0648
11.0233
10.9957
10.9925
10.9935
10.9924
10.9878
10.9819
10.9754
10.9694
10.9602
10.946
10.923
10.8912
10.8509
10.8089
10.7718
10.7497
10.7521
10.768
10.9549
10.8869
10.8761
10.9364
11.0072
11.0667
11.1034
11.1192
11.12
11.1129
11.0976
11.0743
11.0414
10.9991
10.946
10.8864
10.8274
10.7824
10.7662
10.7691
11.1453
11.1426
11.1723
11.2273
11.273
11.3032
11.317
11.319
11.3121
11.2987
11.2791
11.2523
11.2161
11.1711
11.1186
11.0616
11.0016
10.9466
10.909
10.8862
11.5819
11.6576
11.6846
11.6476
11.6033
11.5703
11.551
11.5395
11.529
11.5159
11.4991
11.4767
11.4488
11.4177
11.3886
11.3667
11.3463
11.32
11.2765
11.2176
11.7807
11.811
11.7975
11.7612
11.7436
11.7437
11.7499
11.7561
11.7582
11.7564
11.7507
11.7426
11.7324
11.7242
11.7214
11.7294
11.7495
11.7729
11.7501
11.6718
11.8774
11.8446
11.8501
11.9053
11.9579
11.9898
12.0025
12.0091
12.014
12.0198
12.0277
12.0401
12.0592
12.0816
12.0983
12.1032
12.0961
12.086
12.072
12.0396
12.2893
12.3099
12.3267
12.3177
12.2981
12.279
12.268
12.2657
12.2683
12.275
12.2868
12.3075
12.3401
12.3882
12.4449
12.4968
12.5314
12.5419
12.5265
12.4921
12.5684
12.5828
12.5706
12.5321
12.5014
12.489
12.4891
12.4941
12.5006
12.5082
12.5181
12.5323
12.5542
12.5879
12.6348
12.6938
12.754
12.7954
12.8106
12.8129
12.6884
12.6452
12.6387
12.6776
12.7137
12.7331
12.7374
12.735
12.7331
12.7343
12.7389
12.7461
12.7533
12.7626
12.7754
12.7924
12.8173
12.8501
12.892
12.9432
13.0874
13.0955
13.097
13.0699
13.0333
12.999
12.9743
12.9579
12.9487
12.9453
12.9479
12.953
12.9596
12.9617
12.9571
12.9446
12.929
12.92
12.9492
13.0161
13.2883
13.2877
13.2562
13.1998
13.1563
13.1334
13.1252
13.1248
13.127
13.1311
13.1362
13.1432
13.1501
13.1581
13.1665
13.1748
13.1883
13.2084
13.2299
13.2532
13.2569
13.1908
13.1615
13.1922
13.2346
13.2673
13.2871
13.3013
13.3119
13.3207
13.3268
13.3307
13.3334
13.3377
13.345
13.3565
13.3713
13.3908
13.4154
13.4329
13.4989
13.4732
13.4645
13.4667
13.4771
13.4902
13.502
13.5119
13.5195
13.5259
13.5305
13.5348
13.5362
13.5371
13.5378
13.5398
13.5464
13.5594
13.5803
13.5942
13.764
13.7526
13.7431
13.7371
13.7344
13.7385
13.743
13.7445
13.7447
13.7451
13.7458
13.7454
13.7439
13.7379
13.7286
13.7197
13.7132
13.7135
13.726
13.7414
14.0936
14.1059
14.0953
14.0647
14.0303
14.0015
13.9838
13.975
13.9716
13.9701
13.9693
13.969
13.967
13.9626
13.9536
13.9399
13.9243
13.9114
13.9119
13.9185
14.3255
14.3424
14.3168
14.2688
14.2309
14.2077
14.1984
14.1983
14.2024
14.2066
14.2111
14.2138
14.2181
14.2237
14.2293
14.2335
14.2302
14.2177
14.2041
14.1869
14.4333
14.4067
14.3941
14.4262
14.4541
14.4657
14.4641
14.4592
14.4559
14.4564
14.4603
14.4687
14.4803
14.5004
14.5315
14.5725
14.6143
14.6368
14.6224
14.5763
14.9085
14.9511
14.9633
14.9328
14.8775
14.8173
14.7681
14.7342
14.7128
14.7016
14.6978
14.6998
14.7096
14.7275
14.7576
14.808
14.8767
14.9413
14.949
14.8879
15.2212
15.2738
15.2627
15.1901
15.1072
15.035
14.9828
14.947
14.9255
14.9138
14.9098
14.9118
14.9166
14.9196
14.9143
14.8975
14.8777
14.8676
14.8796
14.8837
15.1703
15.1581
15.1305
15.1228
15.1243
15.1245
15.1201
15.1128
15.1094
15.109
15.1143
15.1218
15.1343
15.1441
15.144
15.12
15.0674
15.0097
14.9881
15.0012
15.2093
15.1924
15.1975
15.2365
15.2721
15.292
15.2957
15.2923
15.2894
15.2911
15.2985
15.3136
15.3355
15.3659
15.407
15.4521
15.4837
15.4874
15.4501
15.3929
15.4982
15.5597
15.5976
15.5976
15.5694
15.5279
15.4896
15.4613
15.4433
15.4352
15.435
15.4421
15.4586
15.4858
15.5294
15.5912
15.6598
15.7109
15.6998
15.6173
15.5747
15.6707
15.6983
15.6723
15.631
15.5883
15.5553
15.5313
15.5165
15.5078
15.5041
15.5025
15.5
15.4948
15.4862
15.4702
15.4507
15.4346
15.4354
15.4182
15.263
15.3016
15.3252
15.3799
15.4431
15.4927
15.5217
15.5334
15.5376
15.536
15.5326
15.5234
15.5098
15.481
15.4328
15.3617
15.2824
15.2129
15.1861
15.1911
15.0621
15.0996
15.1659
15.2791
15.3912
15.4759
15.5256
15.5487
15.5562
15.5522
15.5403
15.5197
15.4912
15.4513
15.3988
15.3328
15.2632
15.2014
15.1523
15.1128
15.1975
15.3062
15.4014
15.4726
15.5246
15.5569
15.576
15.5848
15.5851
15.5753
15.5554
15.5235
15.4805
15.4241
15.3571
15.2788
15.1945
15.1169
15.0598
15.0051
15.3282
15.4563