/*--------------------------------*- C++ -*----------------------------------*\
  =========                 |
  \\      /  F ield         | OpenFOAM: The Open Source CFD Toolbox
   \\    /   O peration     | Website:  https://openfoam.org
    \\  /    A nd           | Version:  6
     \\/     M anipulation  |
\*---------------------------------------------------------------------------*/
FoamFile
{
    version     2.0;
    format      ascii;
    class       volScalarField;
    location    "9";
    object      p;
}
// * * * * * * * * * * * * * * * * * * * * * * * * * * * * * * * * * * * * * //

dimensions      [0 2 -2 0 0 0 0];

internalField   nonuniform List<scalar> 
130000
(
0.00553579
0.00493075
0.00447898
0.00413711
0.0038513
0.0035864
0.00333319
0.00307368
0.00281144
0.00254043
0.00226559
0.00198694
0.00170613
0.00142418
0.00114675
0.00087092
0.000601403
0.000333638
6.20525e-05
-0.000209366
0.00972523
0.00916711
0.00859877
0.00815779
0.00772786
0.00732825
0.00690609
0.00647797
0.00602851
0.00556915
0.00510329
0.0046328
0.00417033
0.00371373
0.00326875
0.00283644
0.00242069
0.00200795
0.0016032
0.00121312
0.0114165
0.0111316
0.0106443
0.0102527
0.00982078
0.00940416
0.00894693
0.00848565
0.00799695
0.00749644
0.00698452
0.00646318
0.00594641
0.00542125
0.00492007
0.00441279
0.00393796
0.00345592
0.00300139
0.00254623
0.0126126
0.0123682
0.011917
0.0115195
0.0110394
0.0105365
0.00998103
0.00941361
0.00882417
0.00822206
0.00761955
0.00700457
0.00640891
0.00580815
0.00523658
0.00466585
0.00413605
0.0036001
0.00310596
0.00260364
0.0137312
0.0136359
0.0132885
0.0129485
0.0124832
0.0119485
0.0113462
0.0107107
0.0100544
0.00937388
0.00869883
0.00800503
0.00733765
0.00665297
0.00601771
0.00536686
0.00477814
0.00417365
0.00363188
0.00306544
0.0145915
0.0145683
0.0143174
0.014053
0.0136381
0.0131114
0.0125053
0.0118397
0.0111529
0.0104222
0.00970299
0.00894755
0.00823026
0.00748828
0.00679943
0.00609457
0.00545953
0.00480354
0.00422181
0.00361051
0.0149146
0.0150581
0.014919
0.0147385
0.0143858
0.013881
0.0132904
0.0126114
0.0119132
0.011149
0.0104007
0.00960041
0.00884343
0.00804239
0.00731198
0.00654409
0.00586391
0.00514825
0.00452083
0.00383841
0.0153794
0.015533
0.0154342
0.0152963
0.0149859
0.0144921
0.0139116
0.0132203
0.0125139
0.0117221
0.0109535
0.0101136
0.00932818
0.00848854
0.00772222
0.006915
0.00620193
0.00544521
0.00478624
0.00406327
0.015782
0.0158826
0.0157702
0.0156539
0.0153679
0.0148805
0.014305
0.0136029
0.0128884
0.0120741
0.0112863
0.0104153
0.00960174
0.00871625
0.0079189
0.00705978
0.00631022
0.0055024
0.00480383
0.00401601
0.0158747
0.016023
0.0159588
0.0158826
0.0156365
0.0151604
0.0145951
0.0138846
0.0131651
0.0123301
0.0115278
0.0106254
0.00979031
0.00887367
0.00804692
0.00715445
0.00637696
0.00553186
0.00480406
0.00397729
0.0160891
0.0161602
0.0160718
0.0159964
0.015762
0.0152786
0.0147116
0.0139846
0.013256
0.0123982
0.0115786
0.0106475
0.00978733
0.00882848
0.00797356
0.00703254
0.00622068
0.00532648
0.00455923
0.0036683
0.0160508
0.0161643
0.0161085
0.0160569
0.0158432
0.0153504
0.0147767
0.0140279
0.0132856
0.0124009
0.0115631
0.0105986
0.00971585
0.00872533
0.00784117
0.00686681
0.00602713
0.0050954
0.00429834
0.0033674
0.0162656
0.0162346
0.0161163
0.0160436
0.0158158
0.0152956
0.0146995
0.0139212
0.013157
0.0122427
0.0113809
0.0103848
0.00947331
0.00844001
0.00752564
0.006503
0.00562732
0.00464657
0.00380834
0.00281374
0.0161744
0.0161365
0.0160198
0.0159608
0.0157323
0.0151932
0.0145765
0.0137698
0.0129824
0.0120373
0.0111513
0.0101195
0.00918161
0.00811523
0.00716934
0.00611219
0.00520649
0.00418739
0.0033169
0.00228127
0.0160508
0.0159861
0.0158572
0.0157881
0.0155455
0.0149735
0.0143288
0.0134867
0.0126722
0.0116935
0.0107785
0.00971297
0.00874275
0.00763405
0.00665467
0.00555077
0.00460693
0.00354072
0.00262626
0.00153008
0.0159984
0.0158552
0.0156896
0.0156023
0.0153361
0.0147281
0.0140502
0.0131719
0.012327
0.0113143
0.0103702
0.00926824
0.00826772
0.00712558
0.00611219
0.00497438
0.003998
0.00289394
0.00194383
0.000806921
0.0157537
0.015573
0.0153793
0.0152844
0.0149968
0.0143581
0.0136457
0.0127343
0.0118571
0.0108137
0.00983674
0.00870401
0.00766755
0.00648718
0.00543714
0.00425749
0.00323996
0.00209357
0.00109648
-9.45848e-05
0.0156592
0.0153278
0.0150562
0.014944
0.0146261
0.0139575
0.0132087
0.0122668
0.0113567
0.010284
0.00927571
0.00811095
0.00704182
0.00583073
0.00474409
0.00353211
0.00247919
0.00129735
0.000261738
-0.00096717
0.0151043
0.0147909
0.0145263
0.0144299
0.014106
0.0134204
0.0126453
0.0116801
0.0107412
0.00964557
0.00860581
0.00741728
0.00631223
0.00506989
0.00394438
0.00269738
0.00160157
0.000384803
-0.000698849
-0.00197149
0.0145986
0.0142542
0.0139795
0.0138882
0.013555
0.0128501
0.0120487
0.0110619
0.0100967
0.00897977
0.00791206
0.00669847
0.00556236
0.00429413
0.00313263
0.00185714
0.000725279
-0.000523643
-0.00164801
-0.00295583
0.0139018
0.0135647
0.0132983
0.0132256
0.0128914
0.0121779
0.0113545
0.0103538
0.00936411
0.00823306
0.00713617
0.00590653
0.00473574
0.00344545
0.0022457
0.000944585
-0.000230305
-0.00150553
-0.00267937
-0.00402138
0.0133037
0.0128937
0.0125852
0.0125299
0.0121883
0.0114744
0.01063
0.00962053
0.00860679
0.00746391
0.00634073
0.00509354
0.00389267
0.00258183
0.00134746
2.23654e-05
-0.00118809
-0.00249208
-0.00370856
-0.00508434
0.0124427
0.0120538
0.0117517
0.0117322
0.0113954
0.0106909
0.00983084
0.00882059
0.00778543
0.00663875
0.00548876
0.00423454
0.00300021
0.00167646
0.000404567
-0.000936138
-0.00218911
-0.00350991
-0.00477653
-0.00617635
0.0115527
0.0111797
0.0108843
0.0109018
0.0105728
0.0098786
0.00900614
0.00799651
0.00694308
0.00579241
0.00462019
0.00335558
0.00209479
0.00075629
-0.000547666
-0.00190824
-0.00319569
-0.00454242
-0.00585298
-0.00728577
0.0106323
0.0102577
0.00996825
0.0100205
0.00970101
0.0090216
0.00813911
0.00713611
0.00606694
0.00492001
0.00372604
0.00246216
0.00117255
-0.000170714
-0.0015092
-0.00287755
-0.00420581
-0.00556163
-0.00692176
-0.00837063
0.00966724
0.00929981
0.00900368
0.00910476
0.00879894
0.00814086
0.00725341
0.00625927
0.0051789
0.00403443
0.00282471
0.00155615
0.000245419
-0.00110806
-0.00247455
-0.00385917
-0.00521898
-0.00659801
-0.00800061
-0.00948116
0.00869672
0.0083284
0.00804192
0.00817855
0.00788925
0.00724884
0.00636042
0.00537693
0.00428957
0.00315292
0.00192919
0.000665373
-0.000667738
-0.00202265
-0.00341814
-0.00480728
-0.00620323
-0.00758762
-0.00903531
-0.010529
0.00759011
0.00727177
0.00702528
0.00721607
0.00696107
0.00634465
0.00546599
0.00449422
0.00340711
0.00227607
0.00104603
-0.000219584
-0.00156607
-0.00292816
-0.0043453
-0.00574762
-0.00716891
-0.00857318
-0.0100571
-0.0115801
0.00660474
0.00627951
0.006057
0.00628392
0.00605886
0.00546134
0.0045938
0.00363457
0.00255143
0.00143005
0.000195576
-0.00106391
-0.00242394
-0.0037869
-0.00522438
-0.00663158
-0.00808107
-0.00949157
-0.0110132
-0.0125527
0.00551938
0.00524126
0.00506482
0.00535244
0.00517004
0.00460158
0.00375241
0.00280937
0.00173525
0.000622986
-0.000609447
-0.00186764
-0.0032322
-0.00459801
-0.00604838
-0.00746491
-0.00893174
-0.0103595
-0.0119097
-0.0134767
0.00454193
0.00427751
0.00413272
0.00447007
0.00432599
0.0037852
0.00295472
0.00202978
0.000967178
-0.000131525
-0.00136059
-0.00260972
-0.00397941
-0.00534486
-0.00680691
-0.00822874
-0.00971582
-0.011152
-0.0127327
-0.0143209
0.00355114
0.00333129
0.00323474
0.00363899
0.00354409
0.0030384
0.00223309
0.00132958
0.000283338
-0.00080142
-0.00202094
-0.00326492
-0.004632
-0.00599686
-0.007465
-0.00889275
-0.0103902
-0.0118409
-0.0134423
-0.0150553
0.00266367
0.00246689
0.00241573
0.00287749
0.00283095
0.00235852
0.00158006
0.00069958
-0.000327326
-0.00139414
-0.0026031
-0.00383507
-0.00520107
-0.0065641
-0.00803762
-0.00947035
-0.0109823
-0.0124418
-0.0140683
-0.015705
0.00182339
0.00167334
0.00167894
0.00221256
0.00222291
0.00178992
0.00104374
0.000189041
-0.00081455
-0.00186319
-0.00305575
-0.00427893
-0.00563628
-0.00699545
-0.00846986
-0.0099056
-0.0114227
-0.0128938
-0.0145358
-0.0161953
0.00111548
0.000996261
0.00105282
0.00164895
0.00171419
0.00131893
0.000606258
-0.00022171
-0.0012002
-0.00222802
-0.00340435
-0.00461261
-0.00596373
-0.00731949
-0.00879488
-0.0102343
-0.0117616
-0.0132408
-0.0149044
-0.0165889
0.000493589
0.000427399
0.000546949
0.00122039
0.00134918
0.000997846
0.00032338
-0.000475566
-0.00142608
-0.00243372
-0.00358987
-0.00478762
-0.00612634
-0.00747612
-0.00894871
-0.0103892
-0.0119189
-0.0134087
-0.0150851
-0.0167915
3.89229e-05
4.80091e-06
0.000184593
0.000924742
0.00111515
0.000804506
0.00016852
-0.000601402
-0.00152261
-0.00250765
-0.00364436
-0.00482596
-0.00615561
-0.0075011
-0.0089727
-0.0104175
-0.0119568
-0.0134555
-0.0151525
-0.016885
-0.000301121
-0.000277619
-2.72431e-05
0.000795157
0.00105443
0.000791085
0.000197394
-0.000540771
-0.0014303
-0.00239285
-0.00350644
-0.00467625
-0.00599149
-0.00733062
-0.00879889
-0.0102452
-0.0117866
-0.0132965
-0.0150066
-0.0167625
-0.0004382
-0.000375428
-6.21217e-05
0.000831905
0.00115613
0.000936951
0.000384813
-0.000321864
-0.00117946
-0.00211785
-0.00321001
-0.00436311
-0.00566819
-0.00700346
-0.00847
-0.00992128
-0.0114723
-0.0129934
-0.0147256
-0.0165116
-0.000423707
-0.000297376
9.03617e-05
0.00107136
0.00146746
0.00129818
0.000790446
0.000117226
-0.000706997
-0.00162192
-0.00268973
-0.00383096
-0.00512135
-0.00645093
-0.00791439
-0.0093686
-0.0109235
-0.0124589
-0.0142071
-0.0160209
-0.000170179
-2.1958e-06
0.000456199
0.00151263
0.00197709
0.00185322
0.00138855
0.000747395
-4.38421e-05
-0.000934415
-0.00198018
-0.00310514
-0.00438564
-0.00571308
-0.00717623
-0.00863866
-0.0102062
-0.0117576
-0.013532
-0.0153819
0.000272014
0.000507467
0.00104595
0.00219256
0.00273138
0.00265836
0.00223916
0.00163169
0.000874313
6.94531e-06
-0.00101435
-0.00212819
-0.00339454
-0.00471819
-0.00618064
-0.00764979
-0.00922517
-0.0107961
-0.0125913
-0.0144753
0.000996169
0.00127603
0.0018864
0.00311066
0.00371957
0.00369278
0.0033177
0.00274237
0.00201841
0.00117463
0.000174913
-0.00092432
-0.00218228
-0.00350695
-0.00497224
-0.0064546
-0.00804733
-0.00964025
-0.0114673
-0.0133953
0.00194371
0.00229199
0.00298659
0.0043047
0.00499115
0.00501633
0.00468793
0.00414628
0.00345628
0.00263453
0.001658
0.000567243
-0.000679238
-0.00200392
-0.00347244
-0.00496649
-0.00657206
-0.00819074
-0.0100448
-0.0120148
0.00320762
0.00359803
0.00437294
0.00577346
0.00653458
0.00660721
0.00632422
0.00581452
0.00515766
0.00435803
0.00340114
0.00232198
0.00108041
-0.000249732
-0.00172569
-0.00323863
-0.00486749
-0.00651522
-0.00840848
-0.0104315
0.0047355
0.00519319
0.00605879
0.00755902
0.00840133
0.00852787
0.00829232
0.00781658
0.00719305
0.00641423
0.00547838
0.00440474
0.00317098
0.00183639
0.000352078
-0.0011785
-0.00282686
-0.00450806
-0.00643659
-0.00851138
0.00660792
0.00711733
0.00806874
0.00966006
0.0105804
0.0107576
0.0105679
0.0101249
0.00953371
0.0087761
0.0078575
0.0067928
0.00555988
0.0042153
0.00271782
0.00116192
-0.000517382
-0.002236
-0.00421325
-0.00635185
0.00880449
0.00938309
0.010428
0.0121265
0.0131304
0.0133644
0.013222
0.0128137
0.0122546
0.011517
0.0106169
0.00955502
0.0083258
0.00697214
0.00546034
0.00388004
0.00217327
0.000412193
-0.00161038
-0.0038123
0.0113663
0.012006
0.0131479
0.0149486
0.0160356
0.0163245
0.0162287
0.0158547
0.0153271
0.0146106
0.0137253
0.0126704
0.0114377
0.0100698
0.00853843
0.0069263
0.00517982
0.00337246
0.00129007
-0.000987412
0.0143073
0.0150182
0.0162619
0.0181808
0.0193569
0.0197074
0.0196605
0.0193238
0.0188283
0.0181324
0.017264
0.0162101
0.0149773
0.0135961
0.0120442
0.0104007
0.00861798
0.00675838
0.00461918
0.0022653
0.0176483
0.0184288
0.0197789
0.0218125
0.0230782
0.02349
0.0234926
0.0231941
0.0227314
0.0220583
0.0212038
0.0201562
0.0189163
0.0175176
0.0159398
0.0142582
0.0124264
0.0105112
0.00829968
0.00585729
0.02141
0.0222719
0.0237352
0.0258997
0.0272629
0.0277439
0.0278001
0.0275439
0.0271159
0.0264661
0.0256284
0.0245816
0.023339
0.0219235
0.0203194
0.0185996
0.0167224
0.0147446
0.0124636
0.00993024
0.0256069
0.0265461
0.0281329
0.030429
0.0318946
0.0324472
0.03256
0.0323489
0.0319578
0.0313351
0.0305124
0.0294731
0.0282211
0.0267861
0.0251503
0.0233868
0.0214509
0.019408
0.0170413
0.0144057
0.0302642
0.0312968
0.0330158
0.0354633
0.0370405
0.0376746
0.0378494
0.037689
0.0373382
0.0367442
0.0359409
0.0349042
0.0336485
0.0321945
0.0305276
0.0287194
0.0267291
0.0246125
0.0221627
0.0194201
0.0354065
0.0365338
0.0383949
0.0409955
0.0426896
0.043409
0.04365
0.0435452
0.0432381
0.0426786
0.0418938
0.0408683
0.0396028
0.038129
0.0364255
0.0345687
0.0325098
0.0303184
0.0277683
0.0249085
0.0410455
0.0422881
0.0443045
0.0470817
0.0489056
0.049723
0.0500383
0.0499967
0.0497388
0.0492168
0.0484567
0.0474385
0.0461704
0.0446773
0.042939
0.0410317
0.0389091
0.0366327
0.0339848
0.0310002
0.0472131
0.0485718
0.0507592
0.0537181
0.0556807
0.056603
0.0569996
0.0570287
0.0568261
0.05635
0.0556156
0.0546154
0.0533399
0.0518288
0.0500506
0.0480908
0.0458904
0.0435291
0.0407653
0.0376466
0.0539079
0.0554126
0.0577885
0.0609573
0.0630756
0.0641189
0.0646085
0.0647189
0.0645801
0.0641552
0.0634554
0.062471
0.0611971
0.0596691
0.0578544
0.0558397
0.0535668
0.0511087
0.0482311
0.0449676
0.061187
0.0628369
0.0654181
0.0688038
0.0710898
0.0722641
0.072857
0.0730594
0.0729935
0.0726312
0.0719695
0.0710143
0.0697391
0.068198
0.0663425
0.0642728
0.0619132
0.0593599
0.0563496
0.0529327
0.069019
0.0708509
0.0736638
0.0773018
0.0797787
0.0811045
0.0818168
0.0821253
0.0821446
0.0818532
0.0812417
0.0803155
0.0790506
0.0774983
0.075607
0.0734794
0.0710391
0.0683769
0.0652354
0.0616508
0.0774762
0.0794897
0.082558
0.0864615
0.0891464
0.0906386
0.0914847
0.0919147
0.092032
0.0918272
0.0912723
0.0903922
0.089137
0.0875804
0.0856501
0.083467
0.0809316
0.0781634
0.0748703
0.0711095
0.0865149
0.0887582
0.0921135
0.0963245
0.0992454
0.10093
0.10193
0.102501
0.102732
0.102626
0.102144
0.101313
0.100082
0.0985239
0.0965618
0.0943198
0.0916962
0.0888059
0.0853617
0.0814062
0.096232
0.0987059
0.102374
0.106909
0.110088
0.111984
0.113157
0.113887
0.114251
0.114263
0.113864
0.113102
0.111897
0.110349
0.108353
0.106057
0.10333
0.100322
0.0967046
0.0925458
0.106554
0.109314
0.113335
0.118246
0.121717
0.123857
0.12523
0.126143
0.12666
0.126808
0.126511
0.125825
0.124665
0.12313
0.12111
0.118756
0.115934
0.112789
0.108998
0.104613
0.117578
0.12063
0.125041
0.130353
0.134145
0.136554
0.138151
0.139274
0.139966
0.140275
0.140097
0.139513
0.138402
0.136896
0.134851
0.132447
0.129514
0.126237
0.122248
0.117627
0.129227
0.132635
0.137482
0.143252
0.147407
0.150123
0.151977
0.15334
0.154237
0.154729
0.154694
0.154223
0.153184
0.151714
0.149656
0.147198
0.144162
0.140733
0.136544
0.131657
0.141596
0.14537
0.150696
0.156957
0.161512
0.164568
0.16671
0.168346
0.169476
0.170184
0.170315
0.169987
0.169031
0.167614
0.165546
0.163042
0.159888
0.156311
0.151893
0.146727
0.154587
0.158792
0.164654
0.171474
0.176481
0.179923
0.182395
0.184341
0.18574
0.186693
0.187022
0.186854
0.186007
0.184655
0.18259
0.180039
0.176774
0.173025
0.168372
0.162891
0.168255
0.17292
0.179378
0.186805
0.19231
0.196181
0.199022
0.201319
0.203025
0.204263
0.204818
0.204848
0.204126
0.202861
0.200804
0.198214
0.194822
0.190902
0.185982
0.180166
0.182526
0.187721
0.194842
0.202952
0.209015
0.213367
0.216626
0.219318
0.221373
0.222932
0.223752
0.224002
0.223436
0.222273
0.220241
0.217611
0.214097
0.209978
0.204778
0.198582
0.197423
0.203191
0.211046
0.219898
0.226573
0.231456
0.235177
0.238313
0.24076
0.242687
0.243806
0.24432
0.243932
0.242896
0.240895
0.238235
0.234581
0.230259
0.22474
0.218135
0.212866
0.219275
0.227941
0.237621
0.244976
0.250447
0.254683
0.258309
0.261196
0.263532
0.264996
0.265802
0.265628
0.264738
0.262788
0.260095
0.256303
0.251746
0.245886
0.238816
0.228804
0.235923
0.24549
0.256071
0.264166
0.270276
0.275073
0.279238
0.28261
0.285404
0.28725
0.288396
0.288462
0.287748
0.285859
0.283143
0.279193
0.274394
0.268147
0.26057
0.245202
0.253091
0.263641
0.275206
0.284104
0.290901
0.296302
0.301046
0.304944
0.308233
0.310507
0.312021
0.312368
0.311854
0.310048
0.307311
0.303208
0.298131
0.29147
0.283322
0.261923
0.270667
0.282298
0.294916
0.304666
0.312182
0.318212
0.32356
0.328013
0.331834
0.334564
0.336493
0.337147
0.336867
0.335162
0.332422
0.328151
0.32279
0.31567
0.306904
0.27896
0.288584
0.301364
0.315097
0.325729
0.333972
0.340631
0.346583
0.351595
0.355956
0.359168
0.36153
0.36253
0.362514
0.360943
0.358215
0.353795
0.348131
0.340537
0.331096
0.295986
0.3066
0.32062
0.335509
0.347018
0.355955
0.363198
0.369713
0.375251
0.380139
0.383826
0.386644
0.388007
0.388291
0.386884
0.384204
0.379645
0.3737
0.365608
0.355448
0.313081
0.324647
0.339914
0.355938
0.368257
0.377785
0.385501
0.392471
0.398446
0.403789
0.407913
0.411162
0.412902
0.413511
0.412309
0.409721
0.405073
0.398859
0.390267
0.379333
0.329682
0.342277
0.35882
0.375914
0.388909
0.398845
0.406842
0.414083
0.420334
0.426008
0.430472
0.434107
0.436193
0.437135
0.436164
0.433709
0.428994
0.422526
0.413401
0.401654
0.345813
0.359256
0.376961
0.394955
0.408391
0.418457
0.426451
0.433692
0.439982
0.445784
0.450436
0.454336
0.456707
0.457949
0.4572
0.454878
0.450089
0.443333
0.433674
0.421137
0.360483
0.374761
0.39352
0.412199
0.425774
0.435622
0.443262
0.450167
0.456195
0.461866
0.466485
0.470483
0.472991
0.47442
0.473794
0.471495
0.46652
0.459433
0.44927
0.435978
0.373567
0.388296
0.407832
0.426869
0.440206
0.449425
0.456311
0.462503
0.467926
0.47315
0.47746
0.481289
0.483705
0.485091
0.484339
0.481827
0.476495
0.469017
0.458246
0.443888
0.383363
0.39841
0.418534
0.437661
0.450429
0.458656
0.464434
0.46957
0.474066
0.478527
0.482207
0.485539
0.487497
0.48843
0.487138
0.484052
0.478091
0.4698
0.457777
0.441818
0.389293
0.404048
0.424426
0.443386
0.45535
0.462359
0.466819
0.470687
0.474028
0.477445
0.480161
0.482564
0.483561
0.483468
0.481082
0.476883
0.469496
0.459359
0.445243
0.42704
0.388219
0.402616
0.423261
0.442138
0.453402
0.459316
0.462579
0.465252
0.467434
0.469668
0.471125
0.472119
0.471509
0.469658
0.465361
0.458815
0.4485
0.435195
0.417803
0.396077
0.378303
0.391758
0.41281
0.432101
0.443293
0.448788
0.4515
0.453524
0.454917
0.456086
0.456138
0.455256
0.452375
0.447806
0.44003
0.429156
0.414045
0.395693
0.372993
0.345679
0.353691
0.366551
0.388981
0.410163
0.422922
0.42965
0.433343
0.436015
0.437604
0.438284
0.437072
0.434036
0.428154
0.419247
0.405739
0.388086
0.365478
0.338939
0.307667
0.271545
0.309198
0.321682
0.347314
0.373129
0.390478
0.401443
0.408867
0.414552
0.418151
0.419542
0.417666
0.412437
0.402418
0.386949
0.365136
0.337586
0.303544
0.264219
0.219583
0.169989
0.23343
0.24793
0.280786
0.316328
0.343531
0.363727
0.3793
0.391669
0.40009
0.404096
0.402646
0.394886
0.378939
0.354402
0.321102
0.279235
0.228439
0.170189
0.105613
0.0358554
0.115506
0.135703
0.182661
0.23611
0.281229
0.317991
0.3479
0.371902
0.388781
0.397773
0.397577
0.386232
0.362226
0.325626
0.276581
0.214951
0.140774
0.0558666
-0.0370875
-0.135793
-0.0619712
-0.0272783
0.0459689
0.13021
0.204671
0.267433
0.319007
0.36003
0.388934
0.404718
0.405291
0.388156
0.353017
0.299943
0.229415
0.140801
0.0353032
-0.0848544
-0.215735
-0.354059
-0.308389
-0.245668
-0.12834
0.0036386
0.121045
0.21973
0.299516
0.361331
0.403741
0.425596
0.424401
0.397969
0.347082
0.271398
0.171892
0.0480241
-0.0979378
-0.263582
-0.443848
-0.634268
-0.624867
-0.509565
-0.322576
-0.122522
0.0508142
0.191988
0.302278
0.384223
0.437229
0.460081
0.451035
0.408979
0.335107
0.228811
0.0915927
-0.0772469
-0.274671
-0.498925
-0.74371
-1.00207
-0.970329
-0.768665
-0.48251
-0.197077
0.0391695
0.222557
0.358117
0.45226
0.50636
0.51991
0.492509
0.424238
0.316568
0.168788
-0.0170615
-0.242142
-0.503792
-0.801457
-1.12812
-1.47551
-1.26537
-0.937782
-0.529804
-0.1541
0.13887
0.351824
0.496984
0.586519
0.625676
0.616256
0.559112
0.454514
0.304105
0.105803
-0.13885
-0.432477
-0.77289
-1.16268
-1.59614
-2.06426
-1.40548
-0.932514
-0.416058
0.0158665
0.328256
0.536612
0.661615
0.721819
0.727472
0.68404
0.593166
0.454493
0.266484
0.0242784
-0.275045
-0.638765
-1.06818
-1.56971
-2.13835
-2.76692
-1.3246
-0.77962
-0.269475
0.109818
0.359529
0.505854
0.574685
0.590239
0.55983
0.489609
0.376823
0.223251
0.0220536
-0.234184
-0.559305
-0.967464
-1.47139
-2.08287
-2.7873
-3.56773
-1.48895
-0.925812
-0.527758
-0.27313
-0.100348
0.0104775
0.0667643
0.0774619
0.0404401
-0.035233
-0.153124
-0.307067
-0.50896
-0.759344
-1.07917
-1.48433
-2.0028
-2.6563
-3.42195
-4.20715
-2.81409
-1.79114
-1.21566
-0.811012
-0.486464
-0.252827
-0.117741
-0.0575334
-0.0717324
-0.137907
-0.264432
-0.430477
-0.660485
-0.933414
-1.30255
-1.74495
-2.31061
-2.94823
-3.60011
-4.09833
-3.95038
-2.69521
-1.93303
-1.3216
-0.831418
-0.503374
-0.308181
-0.209021
-0.191442
-0.238306
-0.349973
-0.513322
-0.736472
-1.00646
-1.354
-1.75272
-2.23479
-2.73797
-2.97163
-2.50394
2.9306e-05
-2.75839e-05
-4.2307e-06
-1.47561e-05
-4.81399e-05
-9.27945e-05
-0.000134774
-0.000187305
-0.000243021
-0.000312331
-0.000387939
-0.000477166
-0.000574363
-0.000686754
-0.000803416
-0.000935118
-0.00107224
-0.00123084
-0.00141773
-0.00162944
0.00342693
0.00329088
0.00325344
0.00318621
0.00306575
0.00294226
0.00280339
0.00266285
0.00250644
0.0023431
0.00216517
0.00197737
0.00177742
0.00157176
0.00135139
0.00112952
0.000893441
0.000638767
0.000349007
7.36822e-05
0.00733243
0.00726807
0.00710401
0.00696354
0.00675679
0.0065632
0.00633302
0.00611516
0.00586368
0.00561805
0.00534241
0.00506988
0.00477202
0.00447373
0.00416314
0.0038541
0.00353655
0.00321564
0.00287066
0.00254364
0.00880016
0.00869083
0.00845109
0.00825912
0.0079747
0.00771128
0.00738967
0.00709065
0.00674481
0.00641688
0.00605203
0.00570168
0.00532395
0.00496422
0.00458166
0.00422254
0.00384942
0.00349116
0.0031125
0.00275985
0.0110288
0.0108736
0.0105753
0.0103431
0.00999491
0.00967482
0.0092777
0.00891396
0.00848965
0.00809522
0.00765326
0.00723905
0.00678893
0.00636147
0.005916
0.00549303
0.00506184
0.00465253
0.00422727
0.0038332
0.013176
0.0129737
0.0126233
0.0123629
0.0119647
0.0116014
0.0111441
0.0107276
0.0102394
0.00978816
0.00928232
0.00880951
0.00829792
0.00782201
0.00731638
0.00685084
0.00636959
0.00592129
0.00545284
0.00502644
0.0150098
0.014778
0.0143867
0.0141032
0.013664
0.0132654
0.0127578
0.012298
0.0117552
0.0112566
0.0106946
0.0101735
0.00960581
0.00907275
0.00851589
0.00799306
0.0074607
0.00696152
0.00644219
0.00595519
0.0167389
0.0164602
0.0160238
0.0157213
0.0152476
0.0148202
0.0142708
0.013774
0.0131854
0.0126451
0.0120363
0.0114702
0.0108558
0.0102858
0.00968049
0.00912408
0.0085504
0.00801759
0.00745926
0.00694039
0.0182262
0.017918
0.0174467
0.0171287
0.0166263
0.0161744
0.0155887
0.0150599
0.0144307
0.0138543
0.0132028
0.012599
0.0119413
0.0113232
0.0106778
0.0100709
0.00945452
0.00887366
0.00826787
0.00768721
0.0196534
0.0193015
0.0187933
0.0184648
0.0179397
0.0174698
0.0168543
0.0162989
0.0156356
0.0150272
0.0143399
0.0137003
0.0130057
0.0123586
0.0116727
0.0110384
0.0103864
0.00977511
0.00913217
0.00851932
0.0208488
0.0204762
0.0199416
0.0196059
0.0190619
0.0185773
0.0179364
0.0173596
0.0166668
0.0160318
0.0153113
0.0146414
0.0139105
0.0132201
0.0124987
0.0118156
0.0111237
0.0104642
0.00977529
0.00909922
0.0220256
0.0216159
0.0210526
0.0207121
0.0201526
0.0196577
0.0189967
0.018403
0.017686
0.0170281
0.0162798
0.0155806
0.0148186
0.014103
0.0133448
0.012636
0.01191
0.0112209
0.010497
0.00978963
0.023007
0.0225903
0.0220094
0.0216701
0.0210996
0.020599
0.0199211
0.0193141
0.0185747
0.017897
0.0171211
0.0163969
0.0156028
0.0148478
0.0140563
0.0133003
0.0125345
0.0117964
0.0110257
0.0102525
0.0240409
0.0235984
0.0229978
0.0226591
0.0220815
0.0215777
0.0208865
0.0202681
0.0195091
0.0188127
0.0180132
0.0172631
0.0164411
0.0156624
0.0148359
0.014053
0.0132521
0.0124809
0.0116724
0.0108635
0.0249235
0.0244936
0.0238887
0.0235573
0.0229753
0.0224709
0.0217689
0.0211416
0.0203649
0.0196523
0.0188284
0.018056
0.0172037
0.016388
0.0155279
0.0146989
0.0138568
0.0130358
0.0121774
0.0113013
0.0259279
0.0254905
0.0248807
0.0245521
0.0239667
0.0234584
0.0227465
0.0221087
0.0213157
0.0205843
0.0197381
0.0189388
0.0180592
0.0172171
0.0163228
0.0154647
0.0145888
0.0137333
0.0128373
0.0119217
0.0268555
0.0264474
0.0258477
0.0255241
0.024935
0.024421
0.0236988
0.0230494
0.0222401
0.0214907
0.0206205
0.019797
0.0188863
0.0180075
0.0170792
0.0161783
0.0152627
0.0143621
0.0134187
0.0124403
0.0279223
0.0275338
0.0269439
0.0266196
0.0260269
0.0255046
0.0247739
0.0241108
0.0232867
0.0225172
0.021627
0.020775
0.0198378
0.0189292
0.0179678
0.017034
0.0160839
0.0151444
0.014162
0.0131389
0.0289605
0.0286237
0.0280559
0.0277369
0.0271442
0.0266162
0.0258801
0.0252051
0.0243682
0.0235799
0.0226682
0.0217912
0.0208235
0.0198777
0.0188794
0.0179008
0.0169062
0.0159196
0.0148858
0.0138003
0.0301749
0.0298714
0.0293243
0.0290042
0.0284124
0.0278754
0.0271362
0.0264478
0.0255997
0.0247886
0.0238572
0.0229488
0.0219552
0.0209755
0.0199427
0.0189252
0.0178932
0.0168616
0.0157837
0.0146448
0.0314449
0.031187
0.0306696
0.0303502
0.0297636
0.0292176
0.0284766
0.0277732
0.0269135
0.02608
0.0251271
0.0241918
0.0231686
0.0221536
0.0210851
0.0200258
0.0189476
0.017868
0.0167332
0.0155297
0.0328876
0.0326688
0.0321819
0.0318614
0.0312809
0.0307239
0.0299815
0.0292613
0.0283914
0.0275345
0.0265643
0.0255976
0.0245495
0.0234989
0.0223958
0.021294
0.0201743
0.0190423
0.0178553
0.0165889
0.0344496
0.0342787
0.0338257
0.0335029
0.0329269
0.0323573
0.0316143
0.0308792
0.0300014
0.0291243
0.0281354
0.0271429
0.0260645
0.0249778
0.0238344
0.0226881
0.0215152
0.0203321
0.019081
0.0177492
0.0362084
0.0360799
0.0356599
0.035334
0.0347653
0.0341837
0.0334427
0.0326925
0.0318071
0.0309058
0.0298988
0.0288726
0.0277672
0.0266412
0.0254587
0.0242634
0.023041
0.0217964
0.0204837
0.019081
0.0381487
0.0380555
0.0376712
0.0373438
0.0367877
0.0361965
0.0354589
0.034693
0.0337986
0.0328735
0.0318442
0.0307882
0.0296482
0.0284827
0.0272546
0.026011
0.0247285
0.0234293
0.0220456
0.0205744
0.0402921
0.0402395
0.0398932
0.0395689
0.039028
0.0384284
0.0376946
0.0369116
0.0360082
0.0350558
0.0340057
0.0329114
0.0317395
0.0305286
0.0292549
0.0279565
0.02662
0.025256
0.0238059
0.0222567
0.0426895
0.0426654
0.0423529
0.0420271
0.0414988
0.0408879
0.0401567
0.0393563
0.0384432
0.0374647
0.0363901
0.0352612
0.0340495
0.0327916
0.031467
0.0301151
0.028716
0.0272946
0.0257703
0.0241458
0.0453413
0.0453497
0.0450678
0.0447425
0.0442258
0.043605
0.0428771
0.0420596
0.0411377
0.0401304
0.0390328
0.0378607
0.036612
0.0353027
0.0339276
0.0325162
0.03106
0.0295698
0.0279763
0.0262678
0.0483003
0.0483263
0.04807
0.0477412
0.0472365
0.0466044
0.0458786
0.0450425
0.0441103
0.0430742
0.04195
0.0407382
0.0394465
0.0380824
0.0366517
0.0351759
0.0336514
0.032093
0.0304201
0.0286239
0.0515675
0.0516195
0.0513899
0.0510643
0.050573
0.0499327
0.0492083
0.0483522
0.0474072
0.0463382
0.0451882
0.0439297
0.0425989
0.0411796
0.0396942
0.0381524
0.0365646
0.0349285
0.0331788
0.031289
0.0551761
0.0552499
0.0550478
0.0547248
0.0542463
0.0535959
0.0528704
0.0519911
0.0510295
0.0499257
0.0487447
0.047442
0.0460656
0.0445858
0.0430426
0.0414282
0.0397673
0.0380499
0.0362115
0.034217
0.0591577
0.0592603
0.0590884
0.0587769
0.0583136
0.0576564
0.0569293
0.0560275
0.055048
0.0539071
0.0526955
0.0513418
0.0499223
0.0483831
0.0467804
0.0450941
0.0433633
0.0415592
0.0396358
0.0375371
0.0635134
0.0636442
0.0635038
0.0632039
0.0627563
0.0620916
0.0613617
0.0604367
0.0594384
0.058261
0.0570146
0.0556127
0.0541425
0.0525364
0.0508698
0.0491018
0.0472893
0.0453921
0.0433697
0.0411512
0.0683071
0.0684668
0.0683556
0.0680716
0.06764
0.0669714
0.0662394
0.0652936
0.0642763
0.0630615
0.0617815
0.0603256
0.0588079
0.0571388
0.0554079
0.0535627
0.0516728
0.0496806
0.0475636
0.0452303
0.0735068
0.0736988
0.0736175
0.0733469
0.0729297
0.0722568
0.0715231
0.070557
0.0695203
0.0682688
0.0669512
0.065445
0.0638731
0.0621337
0.0603339
0.0584007
0.0564216
0.0543276
0.0521019
0.049637
0.0791877
0.0794122
0.0793602
0.079107
0.0787048
0.0780312
0.077297
0.0763132
0.0752578
0.0739699
0.0726164
0.0710544
0.0694299
0.0676222
0.0657498
0.0637327
0.0616681
0.0594714
0.0571413
0.0545515
0.0852964
0.0855626
0.085546
0.0853123
0.0849263
0.0842516
0.0835166
0.0825159
0.0814421
0.0801191
0.078726
0.0771108
0.075425
0.0735396
0.0715895
0.0694772
0.0673146
0.0650067
0.0625563
0.0598227
0.0919168
0.0922279
0.0922511
0.0920458
0.0916801
0.0910078
0.0902723
0.0892553
0.0881617
0.0868019
0.08537
0.0836962
0.0819528
0.0799944
0.0779649
0.0757609
0.0735017
0.0710799
0.0685127
0.0656418
0.0989891
0.0993569
0.0994295
0.0992586
0.0989188
0.0982512
0.0975156
0.0964815
0.0953675
0.0939714
0.0924975
0.090769
0.0889614
0.0869218
0.0848074
0.0824981
0.0801286
0.0775839
0.0748842
0.0718571
0.106605
0.107033
0.107159
0.107031
0.106723
0.106067
0.105335
0.104288
0.103154
0.101722
0.100207
0.0984176
0.0965478
0.0944294
0.0922267
0.0898154
0.0873377
0.0846675
0.0818378
0.0786592
0.114706
0.115208
0.115396
0.115316
0.115046
0.114407
0.113684
0.112625
0.111474
0.110006
0.108448
0.106601
0.104661
0.102455
0.100158
0.0976317
0.0950326
0.0922271
0.0892506
0.085899
0.123388
0.123969
0.124225
0.124201
0.123975
0.123361
0.122652
0.121588
0.120421
0.118919
0.117319
0.115408
0.113401
0.111108
0.108714
0.106077
0.103358
0.100414
0.0972916
0.0937704
0.132598
0.133274
0.13361
0.133649
0.133473
0.132887
0.132197
0.13113
0.129952
0.128418
0.126774
0.124804
0.122721
0.120334
0.117838
0.115076
0.112224
0.109131
0.105845
0.102132
0.142432
0.143212
0.143636
0.143749
0.143631
0.14308
0.142414
0.141351
0.140163
0.138599
0.136915
0.13488
0.132726
0.130248
0.127646
0.124763
0.121779
0.118531
0.115083
0.111181
0.152844
0.153746
0.154272
0.154468
0.154415
0.153906
0.153269
0.152213
0.15102
0.149429
0.147703
0.145609
0.143377
0.1408
0.138088
0.135071
0.13194
0.128528
0.124898
0.120783
0.163933
0.164967
0.165606
0.165899
0.165922
0.165465
0.164864
0.163822
0.162626
0.161011
0.159247
0.157089
0.154784
0.15211
0.149286
0.146136
0.14286
0.139277
0.135465
0.131137
0.175659