/*--------------------------------*- C++ -*----------------------------------*\
  =========                 |
  \\      /  F ield         | OpenFOAM: The Open Source CFD Toolbox
   \\    /   O peration     | Website:  https://openfoam.org
    \\  /    A nd           | Version:  6
     \\/     M anipulation  |
\*---------------------------------------------------------------------------*/
FoamFile
{
    version     2.0;
    format      ascii;
    class       surfaceScalarField;
    location    "9";
    object      phi;
}
// * * * * * * * * * * * * * * * * * * * * * * * * * * * * * * * * * * * * * //

dimensions      [0 3 -1 0 0 0 0];

internalField   nonuniform List<scalar> 
19400
(
-5.89914e-09
-8.81171e-07
-1.03969e-08
-1.15319e-06
-1.19026e-08
-1.25564e-06
-1.1363e-08
-1.3023e-06
-9.81131e-09
-1.32186e-06
-8.09394e-09
-1.32862e-06
-6.60242e-09
-1.32974e-06
-5.42124e-09
-1.32879e-06
-4.43609e-09
-1.32737e-06
-3.58024e-09
-1.32616e-06
-2.71639e-09
-1.32539e-06
-1.73916e-09
-1.32498e-06
-4.87243e-10
-1.32454e-06
1.23872e-09
-1.32325e-06
3.43704e-09
-1.31945e-06
5.89188e-09
-1.30979e-06
7.68248e-09
-1.2874e-06
7.61394e-09
-1.23872e-06
4.4764e-09
-1.13686e-06
-8.67067e-07
-1.99586e-09
-8.79498e-07
-4.27141e-09
-1.15117e-06
-5.3571e-09
-1.25484e-06
-5.62607e-09
-1.30221e-06
-5.50283e-09
-1.32219e-06
-5.09769e-09
-1.32917e-06
-4.57615e-09
-1.3304e-06
-4.00972e-09
-1.32949e-06
-3.39673e-09
-1.32807e-06
-2.83864e-09
-1.32687e-06
-2.21662e-09
-1.32611e-06
-1.65092e-09
-1.32572e-06
-1.00137e-09
-1.32532e-06
-3.42254e-10
-1.32408e-06
3.47217e-10
-1.3203e-06
1.0545e-09
-1.31061e-06
1.49967e-09
-1.28809e-06
1.45897e-09
-1.23896e-06
3.97713e-10
-1.13608e-06
-8.66692e-07
-2.83657e-09
-8.76724e-07
-3.11795e-09
-1.15095e-06
-3.17448e-09
-1.25486e-06
-3.05435e-09
-1.30237e-06
-2.968e-09
-1.32235e-06
-2.86805e-09
-1.32929e-06
-2.77426e-09
-1.33055e-06
-2.59771e-09
-1.32969e-06
-2.36444e-09
-1.32834e-06
-2.07137e-09
-1.32719e-06
-1.75378e-09
-1.32647e-06
-1.39845e-09
-1.3261e-06
-1.06656e-09
-1.32571e-06
-6.72118e-10
-1.32448e-06
-2.74381e-10
-1.32072e-06
1.79517e-10
-1.31105e-06
6.20518e-10
-1.28854e-06
1.01103e-09
-1.23942e-06
1.41514e-09
-1.13656e-06
-8.65264e-07
-2.37396e-09
-8.74308e-07
-2.10506e-09
-1.15118e-06
-1.81018e-09
-1.25511e-06
-1.52346e-09
-1.3026e-06
-1.40071e-09
-1.32243e-06
-1.39301e-09
-1.32925e-06
-1.44198e-09
-1.33047e-06
-1.45876e-09
-1.32964e-06
-1.44015e-09
-1.32835e-06
-1.35034e-09
-1.32726e-06
-1.22845e-09
-1.32659e-06
-1.03437e-09
-1.32626e-06
-8.62594e-10
-1.3259e-06
-6.13525e-10
-1.32468e-06
-4.19795e-10
-1.32091e-06
-2.12014e-10
-1.31121e-06
1.86687e-12
-1.2887e-06
2.83358e-10
-1.23963e-06
4.88536e-10
-1.1367e-06
-8.64761e-07
-1.98825e-09
-8.72242e-07
-1.87452e-09
-1.15125e-06
-1.77437e-09
-1.25512e-06
-1.62006e-09
-1.30269e-06
-1.47193e-09
-1.3225e-06
-1.38816e-09
-1.32928e-06
-1.30771e-09
-1.3305e-06
-1.22675e-09
-1.32968e-06
-1.13076e-09
-1.32842e-06
-9.85977e-10
-1.32737e-06
-8.3484e-10
-1.32674e-06
-6.14748e-10
-1.32644e-06
-4.32291e-10
-1.32609e-06
-2.01329e-10
-1.32485e-06
-5.22331e-11
-1.32105e-06
5.51203e-11
-1.31128e-06
1.25958e-10
-1.28873e-06
2.63084e-10
-1.2397e-06
4.40527e-10
-1.13682e-06
-8.64323e-07
-7.6833e-10
-8.71482e-07
-1.38631e-09
-1.15068e-06
-1.7648e-09
-1.25473e-06
-1.94206e-09
-1.30254e-06
-1.92954e-09
-1.3225e-06
-1.8265e-09
-1.32939e-06
-1.6456e-09
-1.33067e-06
-1.4326e-09
-1.3299e-06
-1.21152e-09
-1.32865e-06
-9.60093e-10
-1.32761e-06
-7.24325e-10
-1.32699e-06
-4.46069e-10
-1.32669e-06
-1.99074e-10
-1.32634e-06
4.73351e-11
-1.32508e-06
1.90694e-10
-1.3212e-06
2.07392e-10
-1.31129e-06
7.67375e-11
-1.2886e-06
-1.13722e-10
-1.23953e-06
-1.72941e-10
-1.13679e-06
-8.64516e-07
-4.83404e-11
-8.71552e-07
-9.24258e-10
-1.14994e-06
-1.46502e-09
-1.25429e-06
-1.69687e-09
-1.3024e-06
-1.75019e-09
-1.32253e-06
-1.69687e-09
-1.32951e-06
-1.58398e-09
-1.33085e-06
-1.41678e-09
-1.33011e-06
-1.2361e-09
-1.32888e-06
-1.02455e-09
-1.32785e-06
-8.22221e-10
-1.32723e-06
-6.09198e-10
-1.32693e-06
-4.22798e-10
-1.32655e-06
-2.67417e-10
-1.32525e-06
-1.87342e-10
-1.3213e-06
-1.93713e-10
-1.3113e-06
-3.6751e-10
-1.28848e-06
-5.91431e-10
-1.23939e-06
-6.93908e-10
-1.13678e-06
-8.65235e-07
-1.02981e-10
-8.71494e-07
-5.26833e-10
-1.14957e-06
-7.59773e-10
-1.25411e-06
-8.91042e-10
-1.30232e-06
-9.75681e-10
-1.32249e-06
-1.03716e-09
-1.32948e-06
-1.08875e-09
-1.33084e-06
-1.09455e-09
-1.33012e-06
-1.08614e-09
-1.32892e-06
-1.03641e-09
-1.32791e-06
-9.94576e-10
-1.3273e-06
-9.4199e-10
-1.32699e-06
-9.05186e-10
-1.32661e-06
-8.79075e-10
-1.3253e-06
-8.55661e-10
-1.32133e-06
-8.62502e-10
-1.31132e-06
-9.3594e-10
-1.28846e-06
-1.0164e-09
-1.23941e-06
-8.93801e-10
-1.13703e-06
-8.66149e-07
-1.67744e-10
-8.71257e-07
-1.50051e-10
-1.14954e-06
-1.08263e-10
-1.2541e-06
-2.66541e-10
-1.30214e-06
-4.52569e-10
-1.32228e-06
-6.43483e-10
-1.32928e-06
-8.06681e-10
-1.33066e-06
-9.4713e-10
-1.32997e-06
-1.06039e-09
-1.3288e-06
-1.16109e-09
-1.32782e-06
-1.25668e-09
-1.32721e-06
-1.36207e-09
-1.3269e-06
-1.46456e-09
-1.32652e-06
-1.55525e-09
-1.32523e-06
-1.61255e-09
-1.3213e-06
-1.62086e-09
-1.31134e-06
-1.57258e-09
-1.28856e-06
-1.49448e-09
-1.23958e-06
-1.31455e-09
-1.13729e-06
-8.67467e-07
-2.68205e-10
-8.70923e-07
-1.1638e-10
-1.14966e-06
-5.75806e-11
-1.2541e-06
-2.34914e-10
-1.30194e-06
-4.51008e-10
-1.32202e-06
-6.71229e-10
-1.32905e-06
-8.29559e-10
-1.33048e-06
-9.80861e-10
-1.32982e-06
-1.10537e-09
-1.32866e-06
-1.24825e-09
-1.32768e-06
-1.3878e-09
-1.32707e-06
-1.54114e-09
-1.32676e-06
-1.69938e-09
-1.32639e-06
-1.81724e-09
-1.32512e-06
-1.90351e-09
-1.32124e-06
-1.87072e-09
-1.31137e-06
-1.75022e-09
-1.2887e-06
-1.56777e-09
-1.23976e-06
-1.29297e-09
-1.13757e-06
-8.68752e-07
1.47727e-10
-8.71101e-07
1.27522e-10
-1.14964e-06
9.46228e-11
-1.25409e-06
-6.46508e-11
-1.30178e-06
-2.73286e-10
-1.32182e-06
-4.50842e-10
-1.32887e-06
-6.04423e-10
-1.33033e-06
-7.17994e-10
-1.3297e-06
-8.3158e-10
-1.32856e-06
-9.18685e-10
-1.32758e-06
-1.01566e-09
-1.32698e-06
-1.07427e-09
-1.32669e-06
-1.14116e-09
-1.32634e-06
-1.14437e-09
-1.3251e-06
-1.14884e-09
-1.32125e-06
-1.13565e-09
-1.31137e-06
-1.12459e-09
-1.28868e-06
-1.09424e-09
-1.23976e-06
-8.50882e-10
-1.13778e-06
-8.69605e-07
2.97081e-10
-8.71469e-07
4.41477e-10
-1.14982e-06
4.23995e-10
-1.25412e-06
3.25309e-10
-1.3017e-06
1.95606e-10
-1.32173e-06
9.10391e-11
-1.32878e-06
-3.99954e-11
-1.33023e-06
-1.38915e-10
-1.32961e-06
-2.41476e-10
-1.32848e-06
-2.95777e-10
-1.32753e-06
-3.35235e-10
-1.32697e-06
-3.11176e-10
-1.32671e-06
-2.80601e-10
-1.32639e-06
-2.1523e-10
-1.32516e-06
-1.91738e-10
-1.32129e-06
-2.63054e-10
-1.31131e-06
-4.54092e-10
-1.28849e-06
-6.4804e-10
-1.23957e-06
-8.0279e-10
-1.13765e-06
-8.70421e-07
2.22174e-10
-8.71788e-07
5.90532e-10
-1.15024e-06
7.50086e-10
-1.25436e-06
7.93954e-10
-1.30178e-06
7.55453e-10
-1.32175e-06
6.91664e-10
-1.32874e-06
5.67854e-10
-1.33015e-06
4.43235e-10
-1.32951e-06
3.22949e-10
-1.32839e-06
2.38303e-10
-1.32747e-06
1.89526e-10
-1.32694e-06
1.78944e-10
-1.32672e-06
1.95003e-10
-1.32642e-06
1.99554e-10
-1.32519e-06
1.55624e-10
-1.32127e-06
4.38687e-11
-1.31122e-06
-1.95728e-10
-1.28831e-06
-4.07518e-10
-1.23942e-06
-6.01518e-10
-1.13752e-06
-8.71037e-07
4.14065e-12
-8.71888e-07
6.87179e-10
-1.15096e-06
9.98767e-10
-1.25475e-06
1.09783e-09
-1.3019e-06
1.0451e-09
-1.32175e-06
9.71161e-10
-1.32868e-06
8.52637e-10
-1.33007e-06
7.36664e-10
-1.32941e-06
6.15311e-10
-1.3283e-06
5.14049e-10
-1.32739e-06
4.28021e-10
-1.32688e-06
3.69152e-10
-1.32668e-06
3.27826e-10
-1.32639e-06
2.72227e-10
-1.32515e-06
2.1362e-10
-1.32122e-06
9.4633e-11
-1.31113e-06
-1.15058e-10
-1.28814e-06
-3.47821e-10
-1.23924e-06
-3.36649e-10
-1.13759e-06
-8.71385e-07
4.54748e-11
-8.72004e-07
6.13492e-10
-1.15159e-06
6.77021e-10
-1.25486e-06
6.59079e-10
-1.30191e-06
6.29983e-10
-1.32175e-06
6.37949e-10
-1.32871e-06
6.35814e-10
-1.33009e-06
6.20183e-10
-1.32941e-06
5.79431e-10
-1.32828e-06
5.27495e-10
-1.32735e-06
4.63245e-10
-1.32683e-06
3.89864e-10
-1.32663e-06
3.18234e-10
-1.32633e-06
2.33235e-10
-1.32509e-06
1.55617e-10
-1.32116e-06
6.34713e-11
-1.31107e-06
-9.63836e-11
-1.28801e-06
-3.26324e-10
-1.23906e-06
-3.68728e-10
-1.1376e-06
-8.71765e-07
5.5938e-10
-8.72633e-07
4.70836e-10
-1.15155e-06
3.36847e-10
-1.25478e-06
2.42532e-10
-1.30184e-06
2.16549e-10
-1.32176e-06
2.76761e-10
-1.32878e-06
3.37942e-10
-1.33017e-06
3.9282e-10
-1.32948e-06
4.2142e-10
-1.32832e-06
4.26536e-10
-1.32737e-06
4.06638e-10
-1.32683e-06
3.68461e-10
-1.32661e-06
3.21857e-10
-1.32631e-06
2.69916e-10
-1.32507e-06
2.27343e-10
-1.32115e-06
2.0526e-10
-1.31108e-06
1.92814e-10
-1.28803e-06
1.31572e-10
-1.23904e-06
6.4194e-11
-1.13759e-06
-8.71712e-07
2.81984e-10
-8.72914e-07
6.36504e-12
-1.15131e-06
-1.81338e-10
-1.25459e-06
-2.50482e-10
-1.30179e-06
-2.03594e-10
-1.32181e-06
-9.69358e-11
-1.3289e-06
1.93112e-11
-1.3303e-06
1.17768e-10
-1.32959e-06
1.81947e-10
-1.3284e-06
2.35732e-10
-1.32743e-06
2.63515e-10
-1.32688e-06
3.04839e-10
-1.32666e-06
3.48786e-10
-1.32638e-06
4.23025e-10
-1.32517e-06
5.16318e-10
-1.32129e-06
6.0306e-10
-1.31123e-06
6.3825e-10
-1.28812e-06
4.77736e-10
-1.23894e-06
2.90591e-10
-1.13746e-06
-8.71426e-07
5.61708e-10
-8.73467e-07
-1.14526e-10
-1.15067e-06
-5.07098e-10
-1.25419e-06
-6.2961e-10
-1.3017e-06
-5.89377e-10
-1.32185e-06
-4.999e-10
-1.32901e-06
-3.61051e-10
-1.33044e-06
-2.3988e-10
-1.32972e-06
-1.2926e-10
-1.32852e-06
-5.34113e-11
-1.32753e-06
1.41592e-11
-1.32696e-06
8.06688e-11
-1.32674e-06
1.53701e-10
-1.32648e-06
2.60411e-10
-1.32529e-06
3.7913e-10
-1.32145e-06
5.40021e-10
-1.31142e-06
6.61489e-10
-1.28829e-06
5.74499e-10
-1.23888e-06
1.45689e-10
-1.13703e-06
-8.71269e-07
6.82243e-10
-8.74146e-07
-8.62906e-11
-1.14994e-06
-6.20992e-10
-1.25366e-06
-8.74952e-10
-1.30148e-06
-8.97235e-10
-1.32184e-06
-8.12261e-10
-1.32911e-06
-6.58074e-10
-1.3306e-06
-4.8061e-10
-1.3299e-06
-3.18328e-10
-1.32869e-06
-1.73646e-10
-1.32767e-06
-5.51493e-11
-1.32708e-06
5.35154e-11
-1.32685e-06
1.53859e-10
-1.32658e-06
2.69125e-10
-1.32541e-06
4.2379e-10
-1.32161e-06
6.70506e-10
-1.31167e-06
1.02853e-09
-1.28863e-06
1.25138e-09
-1.23904e-06
9.79361e-10
-1.1367e-06
-8.70282e-07
4.40625e-10
-8.746e-07
-2.77719e-10
-1.14927e-06
-7.68759e-10
-1.25318e-06
-1.04541e-09
-1.30124e-06
-1.09103e-09
-1.32181e-06
-9.84442e-10
-1.32924e-06
-7.90379e-10
-1.33082e-06
-5.37733e-10
-1.33016e-06
-2.94501e-10
-1.32895e-06
-2.49297e-11
-1.32793e-06
2.21651e-10
-1.32735e-06
4.89938e-10
-1.32712e-06
7.45291e-10
-1.32686e-06
1.00015e-09
-1.32568e-06
1.2551e-09
-1.32188e-06
1.5028e-09
-1.31195e-06
1.8046e-09
-1.28891e-06
1.92496e-09
-1.23914e-06
1.4655e-09
-1.13623e-06
-8.6883e-07
4.3995e-10
-8.75093e-07
-3.45323e-10
-1.14857e-06
-8.02901e-10
-1.25277e-06
-1.02786e-09
-1.30109e-06
-1.02882e-09
-1.32185e-06
-9.09975e-10
-1.32941e-06
-6.91095e-10
-1.33108e-06
-4.18678e-10
-1.33047e-06
-1.15364e-10
-1.3293e-06
2.2557e-10
-1.32831e-06
5.74008e-10
-1.32774e-06
9.53393e-10
-1.32754e-06
1.32432e-09
-1.32728e-06
1.67862e-09
-1.32609e-06
1.95273e-09
-1.32222e-06
2.12832e-09
-1.3122e-06
2.2127e-09
-1.28907e-06
2.09291e-09
-1.23909e-06
1.19029e-09
-1.1354e-06
-8.6766e-07
6.30596e-10
-8.75813e-07
4.15501e-11
-1.14807e-06
-2.7885e-10
-1.25251e-06
-4.23569e-10
-1.30103e-06
-4.34898e-10
-1.3219e-06
-3.81162e-10
-1.32954e-06
-2.39301e-10
-1.33127e-06
-4.97684e-11
-1.33073e-06
2.02582e-10
-1.3296e-06
4.79154e-10
-1.32864e-06
7.84475e-10
-1.32809e-06
1.07749e-09
-1.32788e-06
1.36529e-09
-1.3276e-06
1.58807e-09
-1.32637e-06
1.74489e-09
-1.32243e-06
1.81866e-09
-1.31233e-06
1.82467e-09
-1.28916e-06
1.70996e-09
-1.23906e-06
9.74966e-10
-1.13476e-06
-8.66698e-07
3.21164e-10
-8.76248e-07
3.70918e-10
-1.14821e-06
4.34105e-10
-1.25266e-06
4.14513e-10
-1.30107e-06
3.71644e-10
-1.32192e-06
3.54617e-10
-1.32958e-06
3.84321e-10
-1.33135e-06
4.64791e-10
-1.33085e-06
5.95152e-10
-1.32977e-06
7.54256e-10
-1.32883e-06
9.30843e-10
-1.32829e-06
1.07392e-09
-1.32806e-06
1.19961e-09
-1.32774e-06
1.23909e-09
-1.32645e-06
1.24552e-09
-1.32246e-06
1.20594e-09
-1.31233e-06
1.1722e-09
-1.28916e-06
1.08208e-09
-1.23902e-06
9.74394e-10
-1.13471e-06
-8.65731e-07
-2.17523e-10
-8.7614e-07
3.92688e-10
-1.14889e-06
6.363e-10
-1.25297e-06
7.2631e-10
-1.30121e-06
7.85079e-10
-1.32202e-06
8.21998e-10
-1.32965e-06
8.42561e-10
-1.3314e-06
8.65255e-10
-1.3309e-06
8.99662e-10
-1.32983e-06
9.47779e-10
-1.3289e-06
9.92736e-10
-1.32836e-06
1.02087e-09
-1.32811e-06
1.02779e-09
-1.32777e-06
9.96065e-10
-1.32646e-06
9.59971e-10
-1.32244e-06
9.07413e-10
-1.31232e-06
8.70717e-10
-1.28914e-06
8.37108e-10
-1.23902e-06
1.01226e-09
-1.13492e-06
-8.64728e-07
-1.963e-10
-8.76047e-07
4.45657e-10
-1.1496e-06
6.91235e-10
-1.25329e-06
8.5654e-10
-1.30141e-06
9.62086e-10
-1.32217e-06
1.00748e-09
-1.32972e-06
1.01454e-09
-1.33143e-06
9.90944e-10
-1.3309e-06
9.69353e-10
-1.32982e-06
9.16005e-10
-1.32888e-06
8.66859e-10
-1.32832e-06
7.7612e-10
-1.32806e-06
6.82206e-10
-1.3277e-06
5.707e-10
-1.32639e-06
4.78361e-10
-1.32239e-06
4.33487e-10
-1.31233e-06
4.63162e-10
-1.28922e-06
5.95058e-10
-1.23919e-06
8.21186e-10
-1.13519e-06
-8.63912e-07
-2.3447e-11
-8.76112e-07
3.99342e-10
-1.15008e-06
5.51741e-10
-1.2535e-06
6.37871e-10
-1.30153e-06
6.82407e-10
-1.32224e-06
7.03637e-10
-1.32977e-06
7.21985e-10
-1.33146e-06
7.17829e-10
-1.33092e-06
7.14561e-10
-1.32982e-06
6.61417e-10
-1.32886e-06
6.0552e-10
-1.32828e-06
5.0205e-10
-1.328e-06
3.91578e-10
-1.32762e-06
2.79628e-10
-1.32631e-06
1.77049e-10
-1.32234e-06
1.36163e-10
-1.31233e-06
1.91242e-10
-1.28932e-06
3.86424e-10
-1.23942e-06
7.28752e-10
-1.13555e-06
-8.63188e-07
1.43486e-10
-8.76323e-07
5.97884e-11
-1.15006e-06
-2.87575e-11
-1.25346e-06
-5.46673e-11
-1.30155e-06
-5.83554e-11
-1.32227e-06
-9.98176e-12
-1.32985e-06
8.7401e-11
-1.33158e-06
1.82997e-10
-1.33105e-06
2.77073e-10
-1.32993e-06
3.35202e-10
-1.32894e-06
3.74135e-10
-1.32834e-06
3.79042e-10
-1.32803e-06
3.63867e-10
-1.32764e-06
3.48427e-10
-1.32632e-06
3.23081e-10
-1.32235e-06
2.9795e-10
-1.31233e-06
2.82093e-10
-1.28933e-06
3.62411e-10
-1.23951e-06
5.60344e-10
-1.13577e-06
-8.62638e-07
2.00273e-10
-8.76572e-07
-2.90425e-10
-1.14965e-06
-6.30214e-10
-1.25317e-06
-7.68667e-10
-1.30148e-06
-7.76405e-10
-1.32231e-06
-6.84994e-10
-1.32999e-06
-5.07163e-10
-1.33179e-06
-3.08033e-10
-1.33128e-06
-1.02553e-10
-1.33016e-06
8.1919e-11
-1.32916e-06
2.5016e-10
-1.32853e-06
3.93448e-10
-1.3282e-06
5.2167e-10
-1.3278e-06
6.31442e-10
-1.32646e-06
6.99689e-10
-1.32246e-06
6.89829e-10
-1.31236e-06
5.7056e-10
-1.28925e-06
4.62611e-10
-1.23945e-06
4.49634e-10
-1.13582e-06
-8.62209e-07
6.04064e-10
-8.77241e-07
-8.82841e-11
-1.14905e-06
-5.17491e-10
-1.25281e-06
-7.72417e-10
-1.30131e-06
-8.98802e-10
-1.32225e-06
-9.1488e-10
-1.33004e-06
-8.02185e-10
-1.33196e-06
-6.16873e-10
-1.33152e-06
-3.88414e-10
-1.33044e-06
-1.46955e-10
-1.32945e-06
9.3638e-11
-1.32882e-06
3.31016e-10
-1.32848e-06
5.59208e-10
-1.32807e-06
7.59804e-10
-1.32671e-06
9.00585e-10
-1.32266e-06
9.13829e-10
-1.31244e-06
7.43366e-10
-1.28914e-06
4.91392e-10
-1.23928e-06
2.39468e-10
-1.13568e-06
-8.61997e-07
3.93692e-10
-8.77682e-07
1.19397e-10
-1.14886e-06
-2.11807e-10
-1.25252e-06
-5.519e-10
-1.30105e-06
-7.82182e-10
-1.32206e-06
-9.19886e-10
-1.32998e-06
-9.1088e-10
-1.33201e-06
-8.28658e-10
-1.33167e-06
-6.67855e-10
-1.33064e-06
-4.87265e-10
-1.32968e-06
-2.73114e-10
-1.32907e-06
-7.4828e-11
-1.32874e-06
1.29552e-10
-1.32831e-06
2.77676e-10
-1.32692e-06
3.79264e-10
-1.3228e-06
3.60293e-10
-1.31247e-06
2.06901e-10
-1.28907e-06
-2.26391e-11
-1.23916e-06
-4.2532e-10
-1.1354e-06
-8.62445e-07
1.74887e-10
-8.77912e-07
2.43821e-10
-1.14901e-06
3.10964e-11
-1.25236e-06
-3.40528e-10
-1.30075e-06
-6.3368e-10
-1.32181e-06
-8.54128e-10
-1.32982e-06
-9.66431e-10
-1.33193e-06
-1.01284e-09
-1.33167e-06
-9.81012e-10
-1.3307e-06
-9.16148e-10
-1.3298e-06
-8.11596e-10
-1.3292e-06
-7.1873e-10
-1.32888e-06
-6.11961e-10
-1.32844e-06
-5.41695e-10
-1.32704e-06
-4.77881e-10
-1.3229e-06
-4.8262e-10
-1.31253e-06
-5.20865e-10
-1.2891e-06
-5.44504e-10
-1.23924e-06
-5.56979e-10
-1.13549e-06
-8.63011e-07
-1.38575e-10
-8.77861e-07
2.03524e-10
-1.14942e-06
1.01418e-10
-1.25232e-06
-2.60591e-10
-1.30045e-06
-6.05846e-10
-1.32151e-06
-8.99817e-10
-1.32958e-06
-1.09716e-09
-1.33177e-06
-1.23375e-09
-1.33158e-06
-1.29449e-09
-1.33067e-06
-1.33065e-09
-1.3298e-06
-1.33506e-09
-1.32923e-06
-1.34934e-09
-1.32891e-06
-1.36227e-09
-1.32847e-06
-1.37744e-09
-1.32707e-06
-1.3684e-09
-1.32296e-06
-1.32023e-09
-1.31261e-06
-1.21095e-09
-1.28925e-06
-1.04899e-09
-1.23943e-06
-7.07573e-10
-1.13586e-06
-8.63716e-07
1.19469e-10
-8.78102e-07
3.68445e-10
-1.14978e-06
8.27269e-11
-1.25212e-06
-3.56811e-10
-1.30009e-06
-7.18115e-10
-1.32121e-06
-9.80859e-10
-1.32937e-06
-1.15899e-09
-1.33164e-06
-1.28606e-09
-1.33149e-06
-1.37158e-09
-1.33062e-06
-1.44439e-09
-1.32976e-06
-1.50258e-09
-1.3292e-06
-1.56964e-09
-1.32887e-06
-1.64277e-09
-1.32843e-06
-1.70133e-09
-1.32704e-06
-1.73196e-09
-1.32296e-06
-1.66112e-09
-1.3127e-06
-1.48298e-09
-1.28943e-06
-1.26157e-09
-1.23964e-06
-6.5842e-10
-1.13645e-06
-8.64378e-07
7.4027e-10
-8.78969e-07
7.98754e-10
-1.1499e-06
5.65458e-10
-1.25198e-06
2.4887e-10
-1.29982e-06
-7.72069e-11
-1.32096e-06
-3.24575e-10
-1.32916e-06
-5.5407e-10
-1.33146e-06
-7.19478e-10
-1.33135e-06
-8.62235e-10
-1.33051e-06
-9.51702e-10
-1.32969e-06
-1.021e-09
-1.32916e-06
-1.04734e-09
-1.32887e-06
-1.07468e-09
-1.32845e-06
-1.0699e-09
-1.32707e-06
-1.07207e-09
-1.323e-06
-1.04098e-09
-1.31278e-06
-9.65556e-10
-1.28952e-06
-8.98279e-10
-1.23973e-06
-3.99529e-10
-1.13699e-06
-8.64799e-07
3.80103e-10
-8.79387e-07
8.94638e-10
-1.15042e-06
8.97544e-10
-1.25201e-06
7.53514e-10
-1.29968e-06
5.70495e-10
-1.32079e-06
3.62264e-10
-1.32897e-06
1.48901e-10
-1.33127e-06
-5.15514e-11
-1.33118e-06
-2.02918e-10
-1.33039e-06
-2.99997e-10
-1.32963e-06
-3.3852e-10
-1.32916e-06
-3.17683e-10
-1.32893e-06
-2.76355e-10
-1.32855e-06
-2.13434e-10
-1.32718e-06
-1.97922e-10
-1.32309e-06
-2.13906e-10
-1.31283e-06
-2.99975e-10
-1.28953e-06
-4.40452e-10
-1.2397e-06
-6.04083e-10
-1.13694e-06
-8.65431e-07
4.12023e-10
-8.79852e-07
7.9458e-10
-1.15085e-06
6.20931e-10
-1.25187e-06
3.90015e-10
-1.29949e-06
2.52757e-10
-1.32067e-06
1.27437e-10
-1.3289e-06
5.91434e-11
-1.33121e-06
-2.4755e-11
-1.33115e-06
-5.25918e-11
-1.33038e-06
-8.18452e-11
-1.32966e-06
-5.17587e-11
-1.32922e-06
-1.09866e-11
-1.32902e-06
5.91291e-11
-1.32866e-06
1.15022e-10
-1.32729e-06
1.11394e-10
-1.32316e-06
3.92984e-11
-1.31283e-06
-1.12691e-10
-1.28949e-06
-2.48205e-10
-1.23968e-06
-6.51788e-10
-1.13666e-06
-8.66104e-07
1.0405e-09
-8.81069e-07
6.56014e-10
-1.15062e-06
1.3282e-10
-1.25147e-06
-2.08283e-10
-1.29926e-06
-3.58994e-10
-1.32061e-06
-3.84448e-10
-1.32895e-06
-3.30367e-10
-1.33133e-06
-2.55732e-10
-1.33129e-06
-1.70654e-10
-1.33052e-06
-9.28602e-11
-1.32979e-06
-1.13479e-11
-1.32935e-06
5.98427e-11
-1.32914e-06
1.34191e-10
-1.32877e-06
1.77587e-10
-1.32738e-06
1.78743e-10
-1.32321e-06
8.60147e-11
-1.3128e-06
-6.22373e-11
-1.2894e-06
-2.19863e-10
-1.2396e-06
-4.86374e-10
-1.13648e-06
-8.66605e-07
1.49018e-09
-8.82761e-07
6.91915e-10
-1.14997e-06
8.98666e-11
-1.25103e-06
-2.05955e-10
-1.29908e-06
-3.53182e-10
-1.32059e-06
-3.58488e-10
-1.32903e-06
-3.09349e-10
-1.33148e-06
-2.07033e-10
-1.33146e-06
-1.12128e-10
-1.33069e-06
-6.15901e-12
-1.32994e-06
7.64914e-11
-1.32949e-06
1.50336e-10
-1.32926e-06
2.00082e-10
-1.32887e-06
2.13142e-10
-1.32745e-06
1.83062e-10
-1.32323e-06
7.95741e-11
-1.31276e-06
-1.02103e-10
-1.28928e-06
-3.50818e-10
-1.23941e-06
-6.23224e-10
-1.13628e-06
-8.67241e-07
1.34093e-09
-8.84252e-07
7.02547e-10
-1.14946e-06
2.22328e-10
-1.25067e-06
1.71789e-11
-1.29896e-06
-8.40371e-11
-1.32059e-06
-9.56551e-11
-1.32909e-06
-7.81251e-11
-1.33157e-06
-1.94592e-11
-1.33157e-06
3.39703e-11
-1.3308e-06
1.0022e-10
-1.33006e-06
1.43507e-10
-1.32959e-06
1.75423e-10
-1.32934e-06
1.75626e-10
-1.32893e-06
1.38473e-10
-1.32748e-06
5.71463e-11
-1.32322e-06
-7.88455e-11
-1.3127e-06
-2.6373e-10
-1.28916e-06
-4.75893e-10
-1.23926e-06
-6.41848e-10
-1.13617e-06
-8.67886e-07
1.03451e-09
-8.85378e-07
5.01541e-10
-1.149e-06
1.89333e-10
-1.25043e-06
1.02471e-10
-1.29893e-06
7.16024e-11
-1.32061e-06
6.54972e-11
-1.32912e-06
5.9833e-11
-1.33161e-06
7.16319e-11
-1.33161e-06
8.26948e-11
-1.33085e-06
9.73568e-11
-1.3301e-06
9.43722e-11
-1.32962e-06
7.17132e-11
-1.32936e-06
1.97406e-11
-1.32892e-06
-5.65691e-11
-1.32745e-06
-1.60948e-10
-1.32317e-06
-2.80464e-10
-1.31263e-06
-4.07733e-10
-1.28908e-06
-5.30738e-10
-1.23915e-06
-5.55207e-10
-1.13615e-06
-8.6844e-07
2.63552e-10
-8.85658e-07
-5.12797e-11
-1.14872e-06
-1.60987e-10
-1.25032e-06
-2.17002e-10
-1.29889e-06
-2.22696e-10
-1.3206e-06
-2.27037e-10
-1.32913e-06
-2.1503e-10
-1.33162e-06
-1.95049e-10
-1.33164e-06
-1.59319e-10
-1.33089e-06
-1.26751e-10
-1.33015e-06
-1.03847e-10
-1.32966e-06
-1.01732e-10
-1.32937e-06
-1.21842e-10
-1.32892e-06
-1.6261e-10
-1.32742e-06
-2.08734e-10
-1.32315e-06
-2.33051e-10
-1.31264e-06
-2.12999e-10
-1.2891e-06
-2.11439e-10
-1.23913e-06
-1.79507e-10
-1.13619e-06
-8.68638e-07
-5.58984e-10
-8.85127e-07
-7.82385e-10
-1.14859e-06
-9.60752e-10
-1.25016e-06
-1.12932e-09
-1.29878e-06
-1.12494e-09
-1.32062e-06
-1.07158e-09
-1.32922e-06
-9.65345e-10
-1.33174e-06
-8.55245e-10
-1.33178e-06
-7.35532e-10
-1.33104e-06
-6.11086e-10
-1.33029e-06
-4.89164e-10
-1.32981e-06
-3.62719e-10
-1.32952e-06
-2.32258e-10
-1.32907e-06
-1.18692e-10
-1.32758e-06
9.65509e-12
-1.32331e-06
1.2406e-10
-1.31283e-06
2.76536e-10
-1.2893e-06
3.15855e-10
-1.23926e-06
1.79248e-10
-1.13617e-06
-8.68499e-07
-8.71249e-10
-8.84377e-07
-1.31467e-09
-1.14829e-06
-1.49025e-09
-1.25009e-06
-1.62468e-09
-1.29877e-06
-1.64058e-09
-1.32068e-06
-1.61632e-09
-1.32934e-06
-1.52407e-09
-1.3319e-06
-1.43266e-09
-1.33195e-06
-1.29893e-09
-1.33122e-06
-1.18671e-09
-1.33048e-06
-1.04028e-09
-1.33001e-06
-9.14103e-10
-1.32973e-06
-7.53261e-10
-1.32929e-06
-6.16177e-10
-1.32782e-06
-4.56467e-10
-1.32357e-06
-2.54295e-10
-1.31315e-06
8.51695e-12
-1.28972e-06
2.04619e-10
-1.23964e-06
-4.69205e-12
-1.13615e-06
-8.68532e-07
-1.25487e-09
-8.83244e-07
-1.53015e-09
-1.14816e-06
-1.57302e-09
-1.25015e-06
-1.61194e-09
-1.29885e-06
-1.61679e-09
-1.32076e-06
-1.63612e-09
-1.32942e-06
-1.61144e-09
-1.33198e-06
-1.60434e-09
-1.33205e-06
-1.54922e-09
-1.33132e-06
-1.52338e-09
-1.3306e-06
-1.45979e-09
-1.33012e-06
-1.43279e-09
-1.32985e-06
-1.38075e-09
-1.3294e-06
-1.33913e-09
-1.32794e-06
-1.25989e-09
-1.32373e-06
-1.0531e-09
-1.31343e-06
-6.8079e-10
-1.29021e-06
-1.80507e-10
-1.24026e-06
2.3951e-10
-1.13668e-06
-8.68294e-07
-1.28748e-09
-8.82064e-07
-1.36606e-09
-1.14819e-06
-1.25307e-09
-1.25035e-06
-1.15774e-09
-1.29904e-06
-1.14182e-09
-1.32086e-06
-1.18974e-09
-1.32944e-06
-1.25633e-09
-1.33197e-06
-1.31229e-09
-1.33203e-06
-1.34283e-09
-1.33133e-06
-1.34691e-09
-1.33062e-06
-1.33482e-09
-1.33016e-06
-1.31481e-09
-1.32989e-06
-1.28967e-09
-1.32946e-06
-1.24432e-09
-1.32801e-06
-1.14393e-09
-1.32386e-06
-9.48665e-10
-1.31366e-06
-5.89148e-10
-1.29057e-06
-1.27033e-11
-1.24082e-06
7.46043e-10
-1.13744e-06
-8.67547e-07
-1.15405e-09
-8.80995e-07
-9.46438e-10
-1.14846e-06
-7.59016e-10
-1.25061e-06
-5.95988e-10
-1.29925e-06
-5.70937e-10
-1.32093e-06
-6.40179e-10
-1.3294e-06
-7.44397e-10
-1.3319e-06
-8.08255e-10
-1.33199e-06
-8.3895e-10
-1.33133e-06
-8.09476e-10
-1.33066e-06
-7.47879e-10
-1.33025e-06
-6.3677e-10
-1.33002e-06
-5.10175e-10
-1.32961e-06
-3.50109e-10
-1.3282e-06
-1.65562e-10
-1.32408e-06
1.1082e-11
-1.31388e-06
1.63037e-10
-1.29073e-06
3.98696e-10
-1.24105e-06
7.03409e-10
-1.13775e-06
-8.66858e-07
-1.10969e-09
-8.79921e-07
-8.04585e-10
-1.14881e-06
-6.39221e-10
-1.25079e-06
-5.356e-10
-1.29939e-06
-4.84569e-10
-1.32099e-06
-5.16267e-10
-1.32941e-06
-5.3237e-10
-1.33191e-06
-5.29244e-10
-1.33203e-06
-4.71171e-10
-1.33142e-06
-3.6397e-10
-1.3308e-06
-2.04709e-10
-1.33045e-06
1.09766e-11
-1.33027e-06
2.4774e-10
-1.3299e-06
4.9275e-10
-1.32849e-06
6.78502e-10
-1.32433e-06
7.39286e-10
-1.31401e-06
6.32668e-10
-1.29069e-06
4.3121e-10
-1.24093e-06
1.75353e-10
-1.13758e-06
-8.66709e-07
-8.64939e-10
-8.79134e-07
-8.036e-10
-1.14895e-06
-6.52058e-10
-1.251e-06
-6.10314e-10
-1.2995e-06
-5.95814e-10
-1.32105e-06
-6.02663e-10
-1.32946e-06
-5.47048e-10
-1.332e-06
-4.739e-10
-1.33216e-06
-3.35816e-10
-1.33159e-06
-1.79575e-10
-1.33102e-06
3.0218e-11
-1.33069e-06
2.47919e-10
-1.33054e-06
4.89058e-10
-1.33018e-06
6.77903e-10
-1.32874e-06
7.75187e-10
-1.3245e-06
7.15869e-10
-1.31403e-06
4.83704e-10
-1.29056e-06
9.80014e-11
-1.24065e-06
-2.76225e-10
-1.13732e-06
-8.67007e-07
-3.35115e-10
-8.78924e-07
-4.2763e-10
-1.14897e-06
-3.43379e-10
-1.25118e-06
-3.95894e-10
-1.29954e-06
-4.70443e-10
-1.32105e-06
-4.7954e-10
-1.32953e-06
-4.20879e-10
-1.33212e-06
-3.2643e-10
-1.33232e-06
-2.0353e-10
-1.33177e-06
-6.77908e-11
-1.33121e-06
7.98741e-11
-1.33088e-06
2.19747e-10
-1.33073e-06
3.57028e-10
-1.33035e-06
4.3304e-10
-1.32887e-06
4.42177e-10
-1.32455e-06
2.97142e-10
-1.31396e-06
3.60899e-12
-1.29035e-06
-4.01753e-10
-1.24034e-06
-4.4572e-10
-1.13737e-06
-8.6746e-07
1.09448e-10
-8.79135e-07
1.36261e-10
-1.14906e-06
3.07032e-10
-1.25144e-06
3.33234e-10
-1.29962e-06
2.50479e-10
-1.32104e-06
2.0511e-10
-1.32953e-06
1.65292e-10
-1.33214e-06
1.55598e-10
-1.33234e-06
1.45851e-10
-1.3318e-06
1.50188e-10
-1.33124e-06
1.42035e-10
-1.33092e-06
1.17925e-10
-1.33075e-06
6.89972e-11
-1.33034e-06
-1.33669e-11
-1.32884e-06
-1.29085e-10
-1.32448e-06
-3.07194e-10
-1.31384e-06
-5.72697e-10
-1.29013e-06
-8.19794e-10
-1.24013e-06
-6.53772e-10
-1.13756e-06
-8.68107e-07
1.92545e-10
-8.79346e-07
6.69959e-10
-1.14953e-06
9.04821e-10
-1.25169e-06
1.00589e-09
-1.29971e-06
9.81615e-10
-1.32104e-06
9.22319e-10
-1.32947e-06
8.07208e-10
-1.33204e-06
6.9251e-10
-1.33223e-06
5.58091e-10
-1.33168e-06
4.23739e-10
-1.33112e-06
2.68358e-10
-1.33078e-06
9.89059e-11
-1.33059e-06
-1.02857e-10
-1.33017e-06
-3.08217e-10
-1.32866e-06
-4.92319e-10
-1.32433e-06
-6.41101e-10
-1.31372e-06
-8.05645e-10
-1.28998e-06
-8.92553e-10
-1.24002e-06
-5.877e-10
-1.13783e-06
-8.68688e-07
2.14451e-10
-8.79628e-07
8.65641e-10
-1.15023e-06
9.99698e-10
-1.25188e-06
1.0017e-09
-1.29974e-06
9.70945e-10
-1.32104e-06
9.50583e-10
-1.32946e-06
8.97198e-10
-1.33202e-06
8.47073e-10
-1.33219e-06
7.55387e-10
-1.33162e-06
6.59183e-10
-1.33103e-06
5.21616e-10
-1.33067e-06
3.74342e-10
-1.33047e-06
1.8764e-10
-1.33003e-06
1.318e-11
-1.32851e-06
-1.57521e-10
-1.32421e-06
-2.71573e-10
-1.31365e-06
-3.69626e-10
-1.28988e-06
-4.86493e-10
-1.23988e-06
-2.52858e-10
-1.13805e-06
-8.68951e-07
6.3049e-10
-8.80455e-07
9.54252e-10
-1.15071e-06
8.74228e-10
-1.25195e-06
7.73627e-10
-1.29974e-06
7.35842e-10
-1.32112e-06
7.8486e-10
-1.32958e-06
8.31353e-10
-1.33215e-06
8.84101e-10
-1.3323e-06
8.89059e-10
-1.33169e-06
8.90711e-10
-1.33108e-06
8.42953e-10
-1.33069e-06
7.9936e-10
-1.33046e-06
6.98472e-10
-1.32999e-06
5.95765e-10
-1.32845e-06
4.35235e-10
-1.32411e-06
2.90039e-10
-1.31356e-06
1.62774e-10
-1.28981e-06
-5.80999e-11
-1.23971e-06
-3.48069e-10
-1.13783e-06
-8.69328e-07
1.22718e-09
-8.81839e-07
1.31133e-09
-1.1509e-06
1.14437e-09
-1.2519e-06
1.09175e-09
-1.29976e-06
1.07492e-09
-1.3212e-06
1.11227e-09
-1.32967e-06
1.10838e-09
-1.33222e-06
1.10609e-09
-1.33233e-06
1.06069e-09
-1.33171e-06
1.02251e-09
-1.33107e-06
9.53532e-10
-1.33067e-06
8.92107e-10
-1.33043e-06
8.08979e-10
-1.32996e-06
7.22236e-10
-1.3284e-06
5.90237e-10
-1.32405e-06
4.43317e-10
-1.31348e-06
2.93389e-10
-1.28976e-06
1.54202e-11
-1.23957e-06
-6.1481e-10
-1.13734e-06
-8.69972e-07
9.31003e-10
-8.8276e-07
1.11998e-09
-1.15108e-06
1.04417e-09
-1.25182e-06
1.05917e-09
-1.29977e-06
1.10925e-09
-1.32124e-06
1.12567e-09
-1.32969e-06
1.09324e-09
-1.33219e-06
1.00856e-09
-1.33227e-06
9.04522e-10
-1.33162e-06
7.58651e-10
-1.33096e-06
6.06544e-10
-1.33054e-06
4.19397e-10
-1.33028e-06
2.33614e-10
-1.3298e-06
2.32332e-11
-1.32825e-06
-1.6276e-10
-1.32391e-06
-2.91557e-10
-1.31342e-06
-3.20019e-10
-1.28984e-06
-3.22852e-10
-1.23969e-06
-7.36453e-10
-1.13704e-06
-8.70715e-07
7.36169e-10
-8.8349e-07
5.92703e-10
-1.15099e-06
2.95423e-10
-1.25152e-06
1.81488e-10
-1.29969e-06
2.67912e-10
-1.32132e-06
3.50019e-10
-1.3298e-06
4.22431e-10
-1.33226e-06
4.13141e-10
-1.33229e-06
3.62243e-10
-1.33157e-06
2.28067e-10
-1.33086e-06
5.95436e-11
-1.33038e-06
-1.8116e-10
-1.33009e-06
-4.40602e-10
-1.32957e-06
-7.05688e-10
-1.32802e-06
-9.20411e-10
-1.32375e-06
-9.7521e-10
-1.3134e-06
-7.75939e-10
-1.29008e-06
-3.71643e-10
-1.24012e-06
-3.5783e-11
-1.1374e-06
-8.70741e-07
1.19252e-09
-8.84806e-07
4.43175e-10
-1.15037e-06
-9.62366e-11
-1.25109e-06
-2.73318e-10
-1.29961e-06
-2.36787e-10
-1.32144e-06
-1.32043e-10
-1.32996e-06
-5.19291e-11
-1.33239e-06
4.75701e-12
-1.33237e-06
-7.09969e-12
-1.3316e-06
-5.71622e-11
-1.33082e-06
-1.81366e-10
-1.33029e-06
-3.27168e-10
-1.32994e-06
-5.26257e-10
-1.32941e-06
-7.00578e-10
-1.32785e-06
-8.49646e-10
-1.32361e-06
-9.15654e-10
-1.31335e-06
-7.23396e-10
-1.29024e-06
-2.21946e-10
-1.24057e-06
4.10025e-10
-1.13798e-06
-8.70324e-07
8.51986e-10
-8.85769e-07
2.41687e-10
-1.14986e-06
-1.72685e-10
-1.25077e-06
-2.9115e-10
-1.29957e-06
-2.88129e-10
-1.32153e-06
-2.15804e-10
-1.33007e-06
-1.74549e-10
-1.3325e-06
-1.17992e-10
-1.33244e-06
-1.1094e-10
-1.33164e-06
-1.03401e-10
-1.33084e-06
-1.35925e-10
-1.33028e-06
-1.76057e-10
-1.32992e-06
-2.35309e-10
-1.32937e-06
-2.90577e-10
-1.32781e-06
-3.70735e-10
-1.32357e-06
-4.63842e-10
-1.31328e-06
-4.61864e-10
-1.29025e-06
-1.21918e-10
-1.24089e-06
2.37562e-10
-1.13832e-06
-8.7009e-07
2.61667e-11
-8.85812e-07
-3.47426e-10
-1.14955e-06
-5.57008e-10
-1.25059e-06
-6.35628e-10
-1.29954e-06
-5.98687e-10
-1.32159e-06
-5.507e-10
-1.33016e-06
-4.86174e-10
-1.33259e-06
-4.2511e-10
-1.33253e-06
-3.80469e-10
-1.33172e-06
-3.41216e-10
-1.3309e-06
-3.19364e-10
-1.33033e-06
-2.81411e-10
-1.32997e-06
-2.43005e-10
-1.32943e-06
-1.97929e-10
-1.32789e-06
-1.56162e-10
-1.32364e-06
-1.81694e-10
-1.3133e-06
-2.7669e-10
-1.2902e-06
-1.85442e-10
-1.24101e-06
-2.55279e-11
-1.13849e-06
-8.70111e-07
-3.03235e-10
-8.85464e-07
-8.31006e-10
-1.14901e-06
-8.94884e-10
-1.25049e-06
-8.87954e-10
-1.29956e-06
-8.58607e-10
-1.32161e-06
-8.61129e-10
-1.33017e-06