/*--------------------------------*- C++ -*----------------------------------*\
  =========                 |
  \\      /  F ield         | OpenFOAM: The Open Source CFD Toolbox
   \\    /   O peration     | Website:  https://openfoam.org
    \\  /    A nd           | Version:  6
     \\/     M anipulation  |
\*---------------------------------------------------------------------------*/
FoamFile
{
    version     2.0;
    format      ascii;
    class       surfaceScalarField;
    location    "9";
    object      phi;
}
// * * * * * * * * * * * * * * * * * * * * * * * * * * * * * * * * * * * * * //

dimensions      [0 3 -1 0 0 0 0];

internalField   nonuniform List<scalar> 
258600
(
-4.82625e-09
-8.47617e-08
4.54806e-09
-5.08132e-09
-9.52097e-08
-5.29862e-09
-1.05319e-07
-5.48525e-09
-1.14912e-07
-5.64737e-09
-1.23845e-07
-5.78967e-09
-1.32004e-07
-5.91749e-09
-1.39306e-07
-6.03443e-09
-1.45705e-07
-6.14408e-09
-1.51186e-07
-6.24818e-09
-1.55762e-07
-6.34826e-09
-1.59473e-07
-6.44433e-09
-1.62374e-07
-6.53641e-09
-1.64535e-07
-6.62366e-09
-1.66033e-07
-6.7054e-09
-1.6695e-07
-6.78072e-09
-1.67369e-07
-6.84911e-09
-1.67373e-07
-6.91005e-09
-1.6704e-07
-6.96368e-09
-1.66448e-07
-1.65671e-07
-7.0098e-09
-5.73437e-09
-8.45827e-08
5.55169e-09
-5.91087e-09
-9.50356e-08
-6.07349e-09
-1.05158e-07
-6.21985e-09
-1.14768e-07
-6.35024e-09
-1.23717e-07
-6.46792e-09
-1.31888e-07
-6.57548e-09
-1.392e-07
-6.67654e-09
-1.45606e-07
-6.77288e-09
-1.51091e-07
-6.86677e-09
-1.5567e-07
-6.95828e-09
-1.59382e-07
-7.04818e-09
-1.62285e-07
-7.13524e-09
-1.64448e-07
-7.21926e-09
-1.65949e-07
-7.29874e-09
-1.66871e-07
-7.37335e-09
-1.67295e-07
-7.44171e-09
-1.67304e-07
-7.50401e-09
-1.66977e-07
-7.55906e-09
-1.66392e-07
-1.65622e-07
-7.60776e-09
-7.19698e-09
-8.44977e-08
7.10479e-09
-7.28949e-09
-9.49473e-08
-7.38116e-09
-1.05069e-07
-7.47086e-09
-1.14683e-07
-7.55566e-09
-1.23635e-07
-7.63781e-09
-1.3181e-07
-7.71634e-09
-1.39125e-07
-7.79449e-09
-1.45531e-07
-7.87124e-09
-1.51016e-07
-7.94933e-09
-1.55595e-07
-8.02675e-09
-1.59306e-07
-8.10539e-09
-1.62208e-07
-8.18226e-09
-1.64372e-07
-8.25889e-09
-1.65874e-07
-8.33173e-09
-1.66798e-07
-8.40236e-09
-1.67225e-07
-8.46724e-09
-1.67238e-07
-8.5282e-09
-1.66917e-07
-8.58147e-09
-1.66337e-07
-1.65574e-07
-8.63018e-09
-8.99239e-09
-8.448e-08
8.96641e-09
-9.02038e-09
-9.49253e-08
-9.04829e-09
-1.05045e-07
-9.08102e-09
-1.14656e-07
-9.11492e-09
-1.23605e-07
-9.15405e-09
-1.31776e-07
-9.19515e-09
-1.39086e-07
-9.24228e-09
-1.45489e-07
-9.29198e-09
-1.50969e-07
-9.34781e-09
-1.55542e-07
-9.40564e-09
-1.59249e-07
-9.46841e-09
-1.62148e-07
-9.53147e-09
-1.64309e-07
-9.59723e-09
-1.6581e-07
-9.66103e-09
-1.66733e-07
-9.72514e-09
-1.67162e-07
-9.78496e-09
-1.67177e-07
-9.84318e-09
-1.66859e-07
-9.89489e-09
-1.66283e-07
-1.65524e-07
-9.94398e-09
-1.10292e-08
-8.45285e-08
1.1065e-08
-1.09939e-08
-9.49695e-08
-1.09608e-08
-1.05084e-07
-1.09376e-08
-1.14687e-07
-1.09196e-08
-1.23628e-07
-1.0913e-08
-1.3179e-07
-1.09126e-08
-1.39091e-07
-1.09241e-08
-1.45483e-07
-1.09416e-08
-1.50954e-07
-1.09701e-08
-1.55519e-07
-1.10034e-08
-1.59218e-07
-1.10457e-08
-1.62109e-07
-1.10904e-08
-1.64265e-07
-1.11416e-08
-1.65761e-07
-1.11924e-08
-1.66682e-07
-1.12469e-08
-1.67109e-07
-1.12984e-08
-1.67124e-07
-1.13512e-08
-1.66807e-07
-1.13983e-08
-1.66234e-07
-1.65478e-07
-1.1445e-08
-1.31663e-08
-8.46187e-08
1.32416e-08
-1.30868e-08
-9.50611e-08
-1.30065e-08
-1.05171e-07
-1.29371e-08
-1.14767e-07
-1.28735e-08
-1.23697e-07
-1.28244e-08
-1.31848e-07
-1.27838e-08
-1.39136e-07
-1.2759e-08
-1.45515e-07
-1.27429e-08
-1.50973e-07
-1.27419e-08
-1.55525e-07
-1.27482e-08
-1.59213e-07
-1.27672e-08
-1.62094e-07
-1.2791e-08
-1.64241e-07
-1.28243e-08
-1.6573e-07
-1.28594e-08
-1.66645e-07
-1.29008e-08
-1.67069e-07
-1.29409e-08
-1.67081e-07
-1.29846e-08
-1.66764e-07
-1.30235e-08
-1.66191e-07
-1.65437e-07
-1.30639e-08
-1.53477e-08
-8.47366e-08
1.54434e-08
-1.52372e-08
-9.5186e-08
-1.51214e-08
-1.05296e-07
-1.5014e-08
-1.14886e-07
-1.49113e-08
-1.23807e-07
-1.48243e-08
-1.31945e-07
-1.47466e-08
-1.39218e-07
-1.46873e-08
-1.45582e-07
-1.46386e-08
-1.51024e-07
-1.46079e-08
-1.55562e-07
-1.45866e-08
-1.59235e-07
-1.45811e-08
-1.62104e-07
-1.45821e-08
-1.6424e-07
-1.45958e-08
-1.6572e-07
-1.46126e-08
-1.66627e-07
-1.46386e-08
-1.67045e-07
-1.46644e-08
-1.67053e-07
-1.46962e-08
-1.66733e-07
-1.4724e-08
-1.66159e-07
-1.65407e-07
-1.47554e-08
-1.75501e-08
-8.48761e-08
1.76706e-08
-1.74125e-08
-9.53369e-08
-1.7266e-08
-1.0545e-07
-1.71266e-08
-1.15037e-07
-1.69906e-08
-1.23949e-07
-1.68704e-08
-1.32074e-07
-1.67598e-08
-1.39333e-07
-1.6669e-08
-1.4568e-07
-1.65899e-08
-1.51106e-07
-1.6531e-08
-1.55626e-07
-1.64829e-08
-1.59284e-07
-1.6453e-08
-1.62138e-07
-1.64312e-08
-1.64261e-07
-1.64242e-08
-1.65729e-07
-1.64221e-08
-1.66627e-07
-1.64311e-08
-1.67037e-07
-1.64412e-08
-1.6704e-07
-1.64593e-08
-1.66715e-07
-1.64744e-08
-1.66139e-07
-1.65386e-07
-1.64945e-08
-1.97468e-08
-8.50287e-08
1.98841e-08
-1.95897e-08
-9.55055e-08
-1.94196e-08
-1.05627e-07
-1.92539e-08
-1.15213e-07
-1.90894e-08
-1.24118e-07
-1.89402e-08
-1.32232e-07
-1.88002e-08
-1.39476e-07
-1.86808e-08
-1.45807e-07
-1.85736e-08
-1.51215e-07
-1.8488e-08
-1.55718e-07
-1.84142e-08
-1.59358e-07
-1.83603e-08
-1.62197e-07
-1.83156e-08
-1.64304e-07
-1.82878e-08
-1.6576e-07
-1.82657e-08
-1.66647e-07
-1.82567e-08
-1.67048e-07
-1.82498e-08
-1.67043e-07
-1.82526e-08
-1.66713e-07
-1.82531e-08
-1.66134e-07
-1.65379e-07
-1.82605e-08
-2.19584e-08
-8.52003e-08
2.21176e-08
-2.17777e-08
-9.56953e-08
-2.15824e-08
-1.05826e-07
-2.13906e-08
-1.15413e-07
-2.11992e-08
-1.24313e-07
-2.10229e-08
-1.32416e-07
-2.08557e-08
-1.39646e-07
-2.07096e-08
-1.4596e-07
-2.05761e-08
-1.51349e-07
-2.04653e-08
-1.55834e-07
-2.0367e-08
-1.59456e-07
-2.02899e-08
-1.62277e-07
-2.0223e-08
-1.64369e-07
-2.01741e-08
-1.65812e-07
-2.01322e-08
-1.66686e-07
-2.01046e-08
-1.67076e-07
-2.00802e-08
-1.67063e-07
-2.00667e-08
-1.66727e-07
-2.0052e-08
-1.66143e-07
-1.65385e-07
-2.00452e-08
-2.41396e-08
-8.53793e-08
2.43097e-08
-2.39454e-08
-9.58964e-08
-2.3733e-08
-1.0604e-07
-2.3521e-08
-1.15631e-07
-2.33075e-08
-1.24528e-07
-2.31077e-08
-1.32622e-07
-2.29164e-08
-1.39838e-07
-2.27459e-08
-1.46136e-07
-2.25883e-08
-1.51507e-07
-2.24536e-08
-1.55973e-07
-2.2332e-08
-1.59577e-07
-2.22323e-08
-1.62381e-07
-2.21435e-08
-1.64456e-07
-2.20738e-08
-1.65884e-07
-2.20117e-08
-1.66745e-07
-2.19651e-08
-1.67124e-07
-2.19225e-08
-1.67102e-07
-2.18919e-08
-1.66758e-07
-2.18609e-08
-1.66168e-07
-1.65407e-07
-2.18389e-08
-2.63389e-08
-8.55756e-08
2.65308e-08
-2.61223e-08
-9.61154e-08
-2.58877e-08
-1.06273e-07
-2.56532e-08
-1.15869e-07
-2.54171e-08
-1.24763e-07
-2.51943e-08
-1.32849e-07
-2.49801e-08
-1.40052e-07
-2.47864e-08
-1.46333e-07
-2.46059e-08
-1.51687e-07
-2.44484e-08
-1.56134e-07
-2.43045e-08
-1.59719e-07
-2.41828e-08
-1.62505e-07
-2.40728e-08
-1.64563e-07
-2.39823e-08
-1.65975e-07
-2.39003e-08
-1.66823e-07
-2.38345e-08
-1.6719e-07
-2.37736e-08
-1.67157e-07
-2.37255e-08
-1.66805e-07
-2.36778e-08
-1.66209e-07
-1.65444e-07
-2.36399e-08
-2.85053e-08
-8.57783e-08
2.87123e-08
-2.82758e-08
-9.6344e-08
-2.80263e-08
-1.06518e-07
-2.77749e-08
-1.16121e-07
-2.75205e-08
-1.25015e-07
-2.72778e-08
-1.33093e-07
-2.7043e-08
-1.40285e-07
-2.68278e-08
-1.46551e-07
-2.66257e-08
-1.51887e-07
-2.64462e-08
-1.56316e-07
-2.62807e-08
-1.59882e-07
-2.61374e-08
-1.6265e-07
-2.60063e-08
-1.64691e-07
-2.5895e-08
-1.66088e-07
-2.57929e-08
-1.66921e-07
-2.57076e-08
-1.67275e-07
-2.56278e-08
-1.67232e-07
-2.55616e-08
-1.66871e-07
-2.54965e-08
-1.66268e-07
-1.65497e-07
-2.54419e-08
-3.06729e-08
-8.59945e-08
3.08945e-08
-3.04288e-08
-9.65868e-08
-3.01641e-08
-1.06777e-07
-2.98957e-08
-1.16389e-07
-2.96234e-08
-1.25283e-07
-2.93612e-08
-1.33356e-07
-2.91065e-08
-1.40536e-07
-2.88702e-08
-1.46788e-07
-2.86471e-08
-1.52107e-07
-2.8446e-08
-1.56518e-07
-2.82592e-08
-1.60066e-07
-2.80944e-08
-1.62815e-07
-2.79425e-08
-1.64839e-07
-2.78104e-08
-1.66219e-07
-2.76884e-08
-1.67038e-07
-2.75832e-08
-1.67379e-07
-2.74846e-08
-1.67325e-07
-2.73998e-08
-1.66954e-07
-2.73171e-08
-1.66343e-07
-1.65567e-07
-2.72454e-08
-3.28259e-08
-8.6222e-08
3.3055e-08
-3.25708e-08
-9.68418e-08
-3.22943e-08
-1.0705e-07
-3.20111e-08
-1.16672e-07
-3.17228e-08
-1.25568e-07
-3.14424e-08
-1.33636e-07
-3.11687e-08
-1.40806e-07
-3.0912e-08
-1.47045e-07
-3.06683e-08
-1.52347e-07
-3.04458e-08
-1.5674e-07
-3.02379e-08
-1.6027e-07
-3.00516e-08
-1.63001e-07
-2.98787e-08
-1.65008e-07
-2.97256e-08
-1.66372e-07
-2.95832e-08
-1.67176e-07
-2.94579e-08
-1.67503e-07
-2.93399e-08
-1.67437e-07
-2.9236e-08
-1.67056e-07
-2.91352e-08
-1.66437e-07
-1.65655e-07
-2.90456e-08
-3.49775e-08
-8.64596e-08
3.52173e-08
-3.47108e-08
-9.71079e-08
-3.44223e-08
-1.07336e-07
-3.41245e-08
-1.16968e-07
-3.38206e-08
-1.25868e-07
-3.35221e-08
-1.33933e-07
-3.32298e-08
-1.41094e-07
-3.29529e-08
-1.4732e-07
-3.26889e-08
-1.52607e-07
-3.24449e-08
-1.56982e-07
-3.2216e-08
-1.60494e-07
-3.20081e-08
-1.63207e-07
-3.18143e-08
-1.65197e-07
-3.164e-08
-1.66544e-07
-3.14773e-08
-1.67333e-07
-3.13314e-08
-1.67647e-07
-3.11939e-08
-1.67569e-07
-3.10705e-08
-1.67177e-07
-3.09513e-08
-1.6655e-07
-1.6576e-07
-3.08433e-08
-3.71346e-08
-8.67079e-08
3.73865e-08
-3.68542e-08
-9.73855e-08
-3.65521e-08
-1.07634e-07
-3.62384e-08
-1.17279e-07
-3.59182e-08
-1.26184e-07
-3.56013e-08
-1.34246e-07
-3.52902e-08
-1.41401e-07
-3.49927e-08
-1.47614e-07
-3.47082e-08
-1.52887e-07
-3.44426e-08
-1.57245e-07
-3.41925e-08
-1.6074e-07
-3.39626e-08
-1.63435e-07
-3.37475e-08
-1.65407e-07
-3.35515e-08
-1.66738e-07
-3.33679e-08
-1.67511e-07
-3.3201e-08
-1.67811e-07
-3.30434e-08
-1.67721e-07
-3.28998e-08
-1.67319e-07
-3.27614e-08
-1.66682e-07
-1.65885e-07
-3.26344e-08
-3.92876e-08
-8.69636e-08
3.95546e-08
-3.89954e-08
-9.76728e-08
-3.86803e-08
-1.07944e-07
-3.83514e-08
-1.17603e-07
-3.8015e-08
-1.26514e-07
-3.76797e-08
-1.34577e-07
-3.73496e-08
-1.41725e-07
-3.70315e-08
-1.47928e-07
-3.67263e-08
-1.53187e-07
-3.64388e-08
-1.57529e-07
-3.61672e-08
-1.61006e-07
-3.5915e-08
-1.63684e-07
-3.56783e-08
-1.65639e-07
-3.54601e-08
-1.66953e-07
-3.52552e-08
-1.67711e-07
-3.50667e-08
-1.67997e-07
-3.48885e-08
-1.67893e-07
-3.47241e-08
-1.6748e-07
-3.45663e-08
-1.66834e-07
-1.66029e-07
-3.44195e-08
-4.1457e-08
-8.72347e-08
4.17358e-08
-4.1149e-08
-9.79765e-08
-4.08178e-08
-1.08271e-07
-4.04706e-08
-1.17946e-07
-4.01157e-08
-1.26864e-07
-3.97602e-08
-1.34927e-07
-3.94098e-08
-1.4207e-07
-3.907e-08
-1.48263e-07
-3.87433e-08
-1.53508e-07
-3.84333e-08
-1.57835e-07
-3.81395e-08
-1.61295e-07
-3.78643e-08
-1.63955e-07
-3.76053e-08
-1.65893e-07
-3.73643e-08
-1.67191e-07
-3.71374e-08
-1.67933e-07
-3.69266e-08
-1.68205e-07
-3.6727e-08
-1.68088e-07
-3.65411e-08
-1.67663e-07
-3.63629e-08
-1.67007e-07
-1.66193e-07
-3.61957e-08
-4.36269e-08
-8.75182e-08
4.39172e-08
-4.33038e-08
-9.82951e-08
-4.29564e-08
-1.08615e-07
-4.25906e-08
-1.18306e-07
-4.22167e-08
-1.27233e-07
-4.18404e-08
-1.35297e-07
-4.14693e-08
-1.42435e-07
-4.11072e-08
-1.48619e-07
-4.07585e-08
-1.53851e-07
-4.04253e-08
-1.58163e-07
-4.01088e-08
-1.61606e-07
-3.98101e-08
-1.64249e-07
-3.95283e-08
-1.6617e-07
-3.92638e-08
-1.67451e-07
-3.90145e-08
-1.68178e-07
-3.87807e-08
-1.68435e-07
-3.85592e-08
-1.68305e-07
-3.83511e-08
-1.67868e-07
-3.8152e-08
-1.67201e-07
-1.66379e-07
-3.79637e-08
-4.58085e-08
-8.78179e-08
4.61154e-08
-4.54662e-08
-9.86313e-08
-4.50998e-08
-1.08977e-07
-4.47135e-08
-1.18685e-07
-4.43193e-08
-1.27621e-07
-4.39212e-08
-1.35688e-07
-4.35284e-08
-1.42822e-07
-4.31434e-08
-1.48997e-07
-4.27719e-08
-1.54217e-07
-4.24147e-08
-1.58514e-07
-4.20748e-08
-1.61941e-07
-4.17518e-08
-1.64567e-07
-4.14463e-08
-1.66471e-07
-4.11576e-08
-1.67735e-07
-4.08849e-08
-1.68446e-07
-4.06273e-08
-1.68689e-07
-4.03832e-08
-1.68545e-07
-4.0152e-08
-1.68096e-07
-3.99312e-08
-1.67419e-07
-1.66587e-07
-3.97209e-08
-4.79841e-08
-8.81293e-08
4.83089e-08
-4.76257e-08
-9.89813e-08
-4.7242e-08
-1.09355e-07
-4.68365e-08
-1.19082e-07
-4.64222e-08
-1.28029e-07
-4.60022e-08
-1.36099e-07
-4.55872e-08
-1.43231e-07
-4.51785e-08
-1.49398e-07
-4.47834e-08
-1.54607e-07
-4.44016e-08
-1.58889e-07
-4.40373e-08
-1.62301e-07
-4.36892e-08
-1.6491e-07
-4.33592e-08
-1.66797e-07
-4.30454e-08
-1.68045e-07
-4.27485e-08
-1.6874e-07
-4.24663e-08
-1.68967e-07
-4.21985e-08
-1.6881e-07
-4.19435e-08
-1.68348e-07
-4.17001e-08
-1.6766e-07
-1.66817e-07
-4.14669e-08
-5.01737e-08
-8.84574e-08
5.05146e-08
-4.97965e-08
-9.93497e-08
-4.93932e-08
-1.09753e-07
-4.8966e-08
-1.195e-07
-4.85297e-08
-1.28459e-07
-4.80861e-08
-1.36534e-07
-4.76473e-08
-1.43663e-07
-4.72136e-08
-1.49824e-07
-4.67936e-08
-1.55021e-07
-4.63859e-08
-1.5929e-07
-4.59962e-08
-1.62686e-07
-4.56218e-08
-1.65279e-07
-4.52663e-08
-1.67149e-07
-4.49263e-08
-1.6838e-07
-4.46041e-08
-1.69059e-07
-4.42962e-08
-1.69271e-07
-4.40038e-08
-1.691e-07
-4.37239e-08
-1.68625e-07
-4.34569e-08
-1.67925e-07
-1.67072e-07
-4.32e-08
-5.23687e-08
-8.88007e-08
5.27253e-08
-5.19729e-08
-9.97362e-08
-5.15493e-08
-1.10171e-07
-5.10997e-08
-1.1994e-07
-5.06402e-08
-1.28912e-07
-5.0172e-08
-1.36992e-07
-4.97082e-08
-1.44121e-07
-4.92483e-08
-1.50275e-07
-4.88022e-08
-1.55462e-07
-4.83675e-08
-1.59718e-07
-4.7951e-08
-1.63098e-07
-4.75492e-08
-1.65675e-07
-4.71669e-08
-1.67528e-07
-4.67997e-08
-1.68742e-07
-4.6451e-08
-1.69405e-07
-4.61163e-08
-1.69602e-07
-4.57981e-08
-1.69416e-07
-4.54922e-08
-1.68928e-07
-4.52004e-08
-1.68216e-07
-1.67351e-07
-4.49187e-08
-5.45739e-08
-8.91621e-08
5.49488e-08
-5.41569e-08
-1.00143e-07
-5.37111e-08
-1.1061e-07
-5.32378e-08
-1.20403e-07
-5.27539e-08
-1.29389e-07
-5.22598e-08
-1.37476e-07
-5.17698e-08
-1.44605e-07
-5.12826e-08
-1.50753e-07
-5.08091e-08
-1.55931e-07
-5.03461e-08
-1.60174e-07
-4.99015e-08
-1.63539e-07
-4.94711e-08
-1.66099e-07
-4.90606e-08
-1.67936e-07
-4.86648e-08
-1.69134e-07
-4.82882e-08
-1.6978e-07
-4.79256e-08
-1.69961e-07
-4.75802e-08
-1.6976e-07
-4.72471e-08
-1.69259e-07
-4.69292e-08
-1.68533e-07
-1.67657e-07
-4.66215e-08
-5.67832e-08
-8.95409e-08
5.71789e-08
-5.63455e-08
-1.00569e-07
-5.58772e-08
-1.11072e-07
-5.53797e-08
-1.2089e-07
-5.48705e-08
-1.29892e-07
-5.43496e-08
-1.37986e-07
-5.38321e-08
-1.45116e-07
-5.33163e-08
-1.5126e-07
-5.28139e-08
-1.56428e-07
-5.23213e-08
-1.60659e-07
-5.18472e-08
-1.6401e-07
-5.13867e-08
-1.66554e-07
-5.09464e-08
-1.68374e-07
-5.05207e-08
-1.69555e-07
-5.01146e-08
-1.70184e-07
-4.97225e-08
-1.70349e-07
-4.93484e-08
-1.70134e-07
-4.89867e-08
-1.69618e-07
-4.86413e-08
-1.68879e-07
-1.6799e-07
-4.83063e-08
-5.90009e-08
-8.99384e-08
5.94137e-08
-5.85421e-08
-1.01017e-07
-5.80503e-08
-1.11557e-07
-5.75273e-08
-1.21402e-07
-5.69911e-08
-1.30422e-07
-5.64419e-08
-1.38525e-07
-5.58953e-08
-1.45657e-07
-5.53494e-08
-1.51797e-07
-5.48165e-08
-1.56957e-07
-5.42928e-08
-1.61175e-07
-5.37874e-08
-1.64512e-07
-5.32953e-08
-1.6704e-07
-5.28236e-08
-1.68843e-07
-5.23663e-08
-1.70007e-07
-5.19292e-08
-1.7062e-07
-5.1506e-08
-1.70769e-07
-5.11017e-08
-1.70538e-07
-5.071e-08
-1.70007e-07
-5.03356e-08
-1.69254e-07
-1.68352e-07
-4.99721e-08
-6.12297e-08
-9.03557e-08
6.16625e-08
-6.07481e-08
-1.01488e-07
-6.0231e-08
-1.12068e-07
-5.96807e-08
-1.21942e-07
-5.91157e-08
-1.3098e-07
-5.85365e-08
-1.39094e-07
-5.79589e-08
-1.46229e-07
-5.73812e-08
-1.52365e-07
-5.68159e-08
-1.57517e-07
-5.62593e-08
-1.61724e-07
-5.57209e-08
-1.65047e-07
-5.51956e-08
-1.6756e-07
-5.46907e-08
-1.69346e-07
-5.42002e-08
-1.70493e-07
-5.37303e-08
-1.71089e-07
-5.32746e-08
-1.71221e-07
-5.28384e-08
-1.70973e-07
-5.24152e-08
-1.70427e-07
-5.20102e-08
-1.6966e-07
-1.68743e-07
-5.16167e-08
-6.34616e-08
-9.07923e-08
6.39128e-08
-6.29575e-08
-1.01981e-07
-6.24148e-08
-1.12604e-07
-6.18367e-08
-1.22509e-07
-6.12419e-08
-1.31569e-07
-6.06314e-08
-1.39694e-07
-6.00214e-08
-1.46833e-07
-5.94104e-08
-1.52967e-07
-5.88111e-08
-1.58112e-07
-5.822e-08
-1.62308e-07
-5.76467e-08
-1.65617e-07
-5.70864e-08
-1.68114e-07
-5.65465e-08
-1.69884e-07
-5.60213e-08
-1.71013e-07
-5.55168e-08
-1.71592e-07
-5.5027e-08
-1.71707e-07
-5.45572e-08
-1.71443e-07
-5.4101e-08
-1.70881e-07
-5.36637e-08
-1.70097e-07
-1.69166e-07
-5.32388e-08
-6.57077e-08
-9.12523e-08
6.6183e-08
-6.51775e-08
-1.02501e-07
-6.46062e-08
-1.13169e-07
-6.39979e-08
-1.23107e-07
-6.33711e-08
-1.32189e-07
-6.27275e-08
-1.40327e-07
-6.2083e-08
-1.47471e-07
-6.14368e-08
-1.53604e-07
-6.08015e-08
-1.58743e-07
-6.0174e-08
-1.62928e-07
-5.9564e-08
-1.66224e-07
-5.89669e-08
-1.68705e-07
-5.83901e-08
-1.70458e-07
-5.78282e-08
-1.7157e-07
-5.72873e-08
-1.72131e-07
-5.67615e-08
-1.72228e-07
-5.62562e-08
-1.71947e-07
-5.57652e-08
-1.71368e-07
-5.52939e-08
-1.70568e-07
-1.69621e-07
-5.48358e-08
-6.79552e-08
-9.17332e-08
6.8451e-08
-6.74003e-08
-1.03045e-07
-6.68006e-08
-1.13762e-07
-6.61617e-08
-1.23735e-07
-6.55017e-08
-1.32842e-07
-6.48236e-08
-1.40995e-07
-6.4143e-08
-1.48146e-07
-6.34598e-08
-1.54278e-07
-6.27865e-08
-1.59411e-07
-6.21207e-08
-1.63586e-07
-6.14717e-08
-1.66868e-07
-6.08358e-08
-1.69335e-07
-6.02199e-08
-1.71071e-07
-5.96193e-08
-1.72165e-07
-5.90398e-08
-1.72708e-07
-5.84761e-08
-1.72787e-07
-5.79333e-08
-1.72488e-07
-5.74057e-08
-1.71892e-07
-5.68983e-08
-1.71075e-07
-1.70111e-07
-5.64053e-08
-7.02188e-08
-9.22395e-08
7.07408e-08
-6.96352e-08
-1.03618e-07
-6.90038e-08
-1.14385e-07
-6.83315e-08
-1.24397e-07
-6.76358e-08
-1.3353e-07
-6.69209e-08
-1.417e-07
-6.62016e-08
-1.48858e-07
-6.54793e-08
-1.54991e-07
-6.47656e-08
-1.60119e-07
-6.40592e-08
-1.64285e-07
-6.33691e-08
-1.67554e-07
-6.2692e-08
-1.70005e-07
-6.20349e-08
-1.71724e-07
-6.13933e-08
-1.728e-07
-6.07731e-08
-1.73325e-07
-6.01693e-08
-1.73385e-07
-5.95868e-08
-1.73068e-07
-5.90205e-08
-1.72453e-07
-5.84751e-08
-1.71619e-07
-1.70637e-07
-5.79452e-08
-7.24874e-08
-9.27697e-08
7.30329e-08
-7.18757e-08
-1.04219e-07
-7.12121e-08
-1.15041e-07
-7.05051e-08
-1.25093e-07
-6.9772e-08
-1.34255e-07
-6.90181e-08
-1.42443e-07
-6.82582e-08
-1.49611e-07
-6.74944e-08
-1.55746e-07
-6.6738e-08
-1.60869e-07
-6.59887e-08
-1.65026e-07
-6.52548e-08
-1.68283e-07
-6.45343e-08
-1.70719e-07
-6.38333e-08
-1.72421e-07
-6.31485e-08
-1.73479e-07
-6.24849e-08
-1.73984e-07
-6.18387e-08
-1.74026e-07
-6.12142e-08
-1.73689e-07
-6.0607e-08
-1.73055e-07
-6.00214e-08
-1.72202e-07
-1.71201e-07
-5.94526e-08
-7.47704e-08
-9.3328e-08
7.53446e-08
-7.4127e-08
-1.04851e-07
-7.34282e-08
-1.15731e-07
-7.2684e-08
-1.25827e-07
-7.1911e-08
-1.3502e-07
-7.11158e-08
-1.43228e-07
-7.03126e-08
-1.50406e-07
-6.95048e-08
-1.56544e-07
-6.8703e-08
-1.61664e-07
-6.79082e-08
-1.65813e-07
-6.7128e-08
-1.69057e-07
-6.63614e-08
-1.71478e-07
-6.5614e-08
-1.73163e-07
-6.48832e-08
-1.74203e-07
-6.41739e-08
-1.74689e-07
-6.34828e-08
-1.74711e-07
-6.28138e-08
-1.74354e-07
-6.21634e-08
-1.737e-07
-6.15353e-08
-1.72827e-07
-1.71806e-07
-6.09255e-08
-7.7058e-08
-9.39126e-08
7.76581e-08
-7.63836e-08
-1.05515e-07
-7.56493e-08
-1.16456e-07
-7.48665e-08
-1.266e-07
-7.40516e-08
-1.35826e-07
-7.3213e-08
-1.44056e-07
-7.23641e-08
-1.51247e-07
-7.15097e-08
-1.5739e-07
-7.06599e-08
-1.62507e-07
-6.98168e-08
-1.66648e-07
-6.89874e-08
-1.6988e-07
-6.81717e-08
-1.72286e-07
-6.7375e-08
-1.73954e-07
-6.65956e-08
-1.74976e-07
-6.58376e-08
-1.75442e-07
-6.50989e-08
-1.75443e-07
-6.43828e-08
-1.75065e-07
-6.36866e-08
-1.74391e-07
-6.30133e-08
-1.73496e-07
-1.72454e-07
-6.236e-08
-7.9363e-08
-9.45286e-08
7.99947e-08
-7.86533e-08
-1.06214e-07
-7.78796e-08
-1.17221e-07
-7.7055e-08
-1.27414e-07
-7.61953e-08
-1.36677e-07
-7.53101e-08
-1.44932e-07
-7.44125e-08
-1.52136e-07
-7.35085e-08
-1.58284e-07
-7.26077e-08
-1.634e-07
-7.17132e-08
-1.67534e-07
-7.08316e-08
-1.70755e-07
-6.99639e-08
-1.73147e-07
-6.91149e-08
-1.74797e-07
-6.82838e-08
-1.75799e-07
-6.74744e-08
-1.76245e-07
-6.66852e-08
-1.76225e-07
-6.5919e-08
-1.75826e-07
-6.51743e-08
-1.75129e-07
-6.44532e-08
-1.74212e-07
-1.73147e-07
-6.37538e-08
-8.16742e-08
-9.51745e-08
8.23354e-08
-8.09294e-08
-1.06949e-07
-8.01152e-08
-1.18025e-07
-7.92469e-08
-1.28272e-07
-7.834e-08
-1.37575e-07
-7.74057e-08
-1.45856e-07
-7.64565e-08
-1.53077e-07
-7.54999e-08
-1.59232e-07
-7.45449e-08
-1.64348e-07
-7.35958e-08
-1.68475e-07
-7.26588e-08
-1.71686e-07
-7.17359e-08
-1.74062e-07
-7.08312e-08
-1.75695e-07
-6.99453e-08
-1.76678e-07
-6.9081e-08
-1.77103e-07
-6.82382e-08
-1.77061e-07
-6.74189e-08
-1.76639e-07
-6.66226e-08
-1.75919e-07
-6.58507e-08
-1.74978e-07
-1.73889e-07
-6.51026e-08
-8.40016e-08
-9.58557e-08
8.46981e-08
-8.32172e-08
-1.07723e-07
-8.23589e-08
-1.18874e-07
-8.14436e-08
-1.29178e-07
-8.04863e-08
-1.38522e-07
-7.94996e-08
-1.46833e-07
-7.84956e-08
-1.54073e-07
-7.74831e-08
-1.60236e-07
-7.64705e-08
-1.65352e-07
-7.54635e-08
-1.69474e-07
-7.44676e-08
-1.72674e-07
-7.34861e-08
-1.75036e-07
-7.25224e-08
-1.76652e-07
-7.15781e-08
-1.77615e-07
-7.06558e-08
-1.78019e-07
-6.9756e-08
-1.77954e-07
-6.88805e-08
-1.77508e-07
-6.80295e-08
-1.76763e-07
-6.72041e-08
-1.75798e-07
-1.74683e-07
-6.64043e-08
-8.63346e-08
-9.65708e-08
8.70644e-08
-8.55108e-08
-1.08537e-07
-8.46072e-08
-1.19767e-07
-8.3643e-08
-1.30133e-07
-8.26326e-08
-1.39523e-07
-8.15906e-08
-1.47867e-07
-8.05286e-08
-1.55126e-07
-7.94568e-08
-1.613e-07
-7.83831e-08
-1.66418e-07
-7.73146e-08
-1.70535e-07
-7.62562e-08
-1.73725e-07
-7.52123e-08
-1.76073e-07
-7.41858e-08
-1.77672e-07
-7.31797e-08
-1.78614e-07
-7.21956e-08
-1.78996e-07
-7.12354e-08
-1.78907e-07
-7.03001e-08
-1.78436e-07
-6.93911e-08
-1.77665e-07
-6.85088e-08
-1.76673e-07
-1.75531e-07
-6.76541e-08
-8.86872e-08
-9.73259e-08
8.94568e-08
-8.78186e-08
-1.09397e-07
-8.68653e-08
-1.2071e-07
-8.58479e-08
-1.31141e-07
-8.47805e-08
-1.40581e-07
-8.36794e-08
-1.48959e-07
-8.25554e-08
-1.56241e-07
-8.14204e-08
-1.62427e-07
-8.02818e-08
-1.67549e-07
-7.91478e-08
-1.71662e-07
-7.80229e-08
-1.74843e-07
-7.69127e-08
-1.77177e-07
-7.58197e-08
-1.78757e-07
-7.47477e-08
-1.79679e-07
-7.36981e-08
-1.80038e-07
-7.26736e-08
-1.79924e-07
-7.1675e-08
-1.79427e-07
-7.07044e-08
-1.78629e-07
-6.97616e-08
-1.77609e-07
-1.76437e-07
-6.88487e-08
-9.10476e-08
-9.81197e-08
9.18554e-08
-9.01339e-08
-1.10302e-07
-8.9129e-08
-1.21705e-07
-8.80559e-08
-1.32206e-07
-8.69285e-08
-1.41699e-07
-8.57646e-08
-1.50115e-07
-8.4575e-08
-1.57422e-07
-8.33728e-08
-1.63622e-07
-8.21651e-08
-1.68748e-07
-8.09614e-08
-1.72859e-07
-7.97658e-08
-1.76031e-07
-7.8585e-08
-1.78351e-07
-7.74211e-08
-1.79914e-07
-7.6279e-08
-1.80815e-07
-7.51597e-08
-1.8115e-07
-7.40668e-08
-1.8101e-07
-7.30007e-08
-1.80485e-07
-7.19645e-08
-1.79659e-07
-7.09574e-08
-1.78608e-07
-1.77406e-07
-6.99826e-08
-9.3428e-08
-9.8959e-08
9.42808e-08
-9.24635e-08
-1.11258e-07
-9.14025e-08
-1.22755e-07
-9.02693e-08
-1.33332e-07
-8.90777e-08
-1.42881e-07
-8.78468e-08
-1.51338e-07
-8.65872e-08
-1.58673e-07
-8.53133e-08
-1.64889e-07
-8.40321e-08
-1.70021e-07
-8.27541e-08
-1.7413e-07
-8.14832e-08
-1.77294e-07
-8.02271e-08
-1.796e-07
-7.89879e-08
-1.81145e-07
-7.7771e-08
-1.82025e-07
-7.65775e-08
-1.82335e-07
-7.54117e-08
-1.82169e-07
-7.42739e-08
-1.81615e-07
-7.31677e-08
-1.80758e-07
-7.20924e-08
-1.79676e-07
-1.7844e-07
-7.10515e-08
-9.58168e-08
-9.98419e-08
9.67127e-08
-9.48015e-08
-1.12266e-07
-9.36827e-08
-1.23864e-07
-9.24865e-08
-1.34521e-07
-9.12271e-08
-1.44131e-07
-8.99251e-08
-1.52633e-07
-8.85911e-08
-1.59998e-07
-8.7241e-08
-1.66232e-07
-8.58814e-08
-1.71373e-07
-8.45241e-08
-1.75482e-07
-8.31729e-08
-1.78637e-07
-8.18365e-08
-1.80931e-07
-8.05167e-08
-1.82457e-07
-7.92201e-08
-1.83315e-07
-7.79474e-08
-1.836e-07
-7.67038e-08
-1.83406e-07
-7.54894e-08
-1.82822e-07
-7.43087e-08
-1.81932e-07
-7.31606e-08
-1.80816e-07
-1.79545e-07
-7.20495e-08
-9.82309e-08
-1.00776e-07
9.91779e-08
-9.7158e-08
-1.13332e-07
-9.59755e-08
-1.25037e-07
-9.47109e-08
-1.35778e-07
-9.33785e-08
-1.45455e-07
-9.20002e-08
-1.54005e-07
-9.05867e-08
-1.61403e-07
-8.91549e-08
-1.67658e-07
-8.77116e-08
-1.72808e-07
-8.62696e-08
-1.76918e-07
-8.48326e-08
-1.80067e-07
-8.34105e-08
-1.82347e-07
-8.20048e-08
-1.83855e-07
-8.06231e-08
-1.8469e-07
-7.92659e-08
-1.84949e-07
-7.79394e-08
-1.84726e-07
-7.66435e-08
-1.8411e-07
-7.53834e-08
-1.83186e-07
-7.41578e-08
-1.82034e-07
-1.80725e-07
-7.2972e-08
-1.00656e-07
-1.01761e-07
1.01653e-07
-9.95249e-08
-1.14456e-07
-9.82763e-08
-1.26275e-07
-9.69397e-08
-1.37108e-07
-9.553e-08
-1.46855e-07
-9.40705e-08
-1.55458e-07
-9.25723e-08
-1.62893e-07
-9.10533e-08
-1.69171e-07
-8.95206e-08
-1.74333e-07
-8.79881e-08
-1.78445e-07
-8.64596e-08
-1.81588e-07
-8.49457e-08
-1.83855e-07
-8.34483e-08
-1.85345e-07
-8.19756e-08
-1.86157e-07
-8.05283e-08
-1.86388e-07
-7.91132e-08
-1.86134e-07
-7.77303e-08
-1.85484e-07
-7.63854e-08
-1.84525e-07
-7.50774e-08
-1.83334e-07
-1.81984e-07
-7.38118e-08
-1.03106e-07
-1.02803e-07
1.04161e-07
-1.0191e-07
-1.15646e-07
-1.00589e-07
-1.27586e-07
-9.9175e-08
-1.38516e-07
-9.76824e-08
-1.48339e-07
-9.6136e-08
-1.56998e-07
-9.45471e-08
-1.64473e-07
-9.29348e-08
-1.70777e-07
-9.13067e-08
-1.75953e-07
-8.96774e-08
-1.80068e-07
-8.80511e-08
-1.83206e-07
-8.64392e-08
-1.85462e-07
-8.48439e-08
-1.86933e-07
-8.3274e-08
-1.87721e-07
-8.17305e-08
-1.87924e-07
-8.02208e-08
-1.87637e-07
-7.87451e-08
-1.86952e-07
-7.73098e-08
-1.85954e-07
-7.59138e-08
-1.84722e-07
-1.83329e-07
-7.45632e-08
-1.0557e-07
-1.03903e-07
1.06681e-07
-1.04307e-07
-1.16904e-07
-1.02911e-07
-1.28973e-07
-1.01415e-07
-1.40007e-07
-9.98342e-08
-1.49911e-07
-9.81951e-08
-1.58632e-07
-9.65096e-08
-1.66151e-07
-9.47977e-08
-1.72484e-07
-9.30676e-08
-1.77676e-07
-9.13348e-08
-1.81796e-07
-8.96039e-08
-1.8493e-07
-8.78872e-08
-1.87173e-07
-8.61871e-08
-1.88626e-07
-8.45132e-08
-1.89389e-07
-8.28669e-08
-1.89563e-07
-8.12561e-08
-1.89242e-07
-7.96812e-08
-1.88519e-07
-7.81493e-08
-1.8748e-07
-7.66594e-08
-1.86204e-07
-1.84765e-07
-7.52181e-08
-1.08062e-07
-1.05069e-07
1.09239e-07
-1.06725e-07
-1.18235e-07
-1.05247e-07
-1.30441e-07
-1.03662e-07
-1.41586e-07
-1.01987e-07
-1.51578e-07
-1.00248e-07
-1.60365e-07
-9.84594e-08
-1.67932e-07
-9.66408e-08
-1.74297e-07
-9.48015e-08
-1.79508e-07
-9.29578e-08
-1.83635e-07
-9.11151e-08
-1.86766e-07
-8.92861e-08
-1.88997e-07
-8.7474e-08
-1.90431e-07
-8.56889e-08
-1.91169e-07
-8.39327e-08
-1.91311e-07
-8.22137e-08
-1.90955e-07
-8.05329e-08
-1.90192e-07
-7.88977e-08
-1.89109e-07
-7.73076e-08
-1.87786e-07
-1.86297e-07
-7.57694e-08
-1.10574e-07
-1.06301e-07
1.11817e-07
-1.09159e-07
-1.19645e-07
-1.07595e-07
-1.31997e-07
-1.05916e-07
-1.43261e-07
-1.0414e-07
-1.53346e-07
-1.02295e-07
-1.62205e-07
-1.00395e-07
-1.69824e-07
-9.84623e-08
-1.76225e-07
-9.65061e-08
-1.81457e-07
-9.45436e-08
-1.85593e-07
-9.2581e-08
-1.88721e-07
-9.06318e-08
-1.90941e-07
-8.86997e-08
-1.92356e-07
-8.67954e-08
-1.93068e-07
-8.49214e-08
-1.93178e-07
-8.30866e-08
-1.92784e-07
-8.12924e-08
-1.91979e-07
-7.95467e-08
-1.90849e-07
-7.78494e-08
-1.89476e-07
-1.87934e-07
-7.62078e-08
-1.13116e-07
-1.07607e-07
1.14433e-07
-1.11617e-07
-1.21139e-07
-1.09959e-07
-1.33646e-07
-1.08178e-07
-1.45036e-07
-1.06294e-07
-1.55222e-07
-1.04335e-07
-1.64159e-07
-1.02316e-07
-1.71835e-07
-1.00261e-07
-1.78276e-07
-9.81793e-08
-1.83531e-07
-9.60894e-08
-1.87678e-07
-9.39983e-08
-1.90806e-07
-9.19201e-08
-1.93015e-07
-8.98594e-08
-1.9441e-07
-8.78273e-08
-1.95094e-07
-8.58272e-08
-1.95171e-07
-8.38683e-08
-1.94737e-07
-8.19528e-08
-1.93887e-07
-8.00888e-08
-1.92708e-07
-7.82769e-08
-1.91281e-07
-1.89681e-07
-7.65245e-08
-1.15682e-07
-1.0899e-07
1.17076e-07
-1.14095e-07
-1.22722e-07
-1.12338e-07
-1.35395e-07
-1.10449e-07
-1.46921e-07
-1.08449e-07
-1.57215e-07
-1.06368e-07
-1.66235e-07
-1.04222e-07
-1.73974e-07
-1.02035e-07
-1.80458e-07
-9.98184e-08
-1.85741e-07
-9.75917e-08
-1.899e-07
-9.53627e-08
-1.93028e-07
-9.31459e-08
-1.95227e-07
-9.09472e-08
-1.96602e-07
-8.87779e-08
-1.97259e-07
-8.66425e-08
-1.973e-07
-8.45504e-08
-1.96824e-07
-8.25048e-08
-1.95926e-07
-8.05139e-08
-1.94694e-07
-7.85793e-08
-1.93209e-07
-1.91547e-07
-7.67084e-08
-1.18286e-07
-1.10459e-07
1.19765e-07
-1.16601e-07
-1.24402e-07
-1.14737e-07
-1.37251e-07
-1.12731e-07
-1.48922e-07
-1.10606e-07
-1.59332e-07
-1.08393e-07
-1.68443e-07
-1.0611e-07
-1.7625e-07
-1.03782e-07
-1.82782e-07
-1.01421e-07
-1.88095e-07
-9.9047e-08
-1.92269e-07
-9.66698e-08
-1.95399e-07
-9.43042e-08
-1.97588e-07
-9.19571e-08
-1.98943e-07
-8.96406e-08
-1.9957e-07
-8.73598e-08
-1.99574e-07
-8.51248e-08
-1.99054e-07
-8.29396e-08
-1.98105e-07
-8.08128e-08
-1.96816e-07
-7.87467e-08
-1.95269e-07
-1.93541e-07
-7.67489e-08
-1.20921e-07
-1.12016e-07
1.22488e-07
-1.19133e-07
-1.26185e-07
-1.17155e-07
-1.39223e-07
-1.15023e-07
-1.51049e-07
-1.12765e-07
-1.61584e-07
-1.1041e-07
-1.70793e-07
-1.0798e-07
-1.78674e-07
-1.05499e-07
-1.85258e-07
-1.02983e-07
-1.90605e-07
-1.00451e-07
-1.94797e-07
-9.79143e-08
-1.9793e-07
-9.53886e-08
-2.00109e-07
-9.28821e-08
-2.01444e-07
-9.04071e-08
-2.02041e-07
-8.79702e-08
-2.02005e-07
-8.55816e-08
-2.01438e-07
-8.32465e-08
-2.00434e-07
-8.09737e-08
-1.99084e-07
-7.87664e-08
-1.97471e-07
-1.9567e-07
-7.66326e-08
-1.23595e-07
-1.13671e-07
1.2526e-07
-1.21696e-07
-1.2808e-07
-1.19594e-07
-1.41319e-07
-1.17327e-07
-1.53311e-07
-1.14925e-07
-1.6398e-07
-1.12418e-07
-1.73295e-07
-1.0983e-07
-1.81256e-07
-1.07185e-07
-1.87898e-07
-1.04501e-07
-1.93283e-07
-1.01799e-07
-1.97495e-07
-9.90908e-08
-2.00633e-07
-9.63927e-08
-2.02803e-07
-9.37146e-08
-2.04117e-07
-9.10691e-08
-2.04682e-07
-8.84643e-08
-2.04604e-07
-8.59105e-08
-2.03987e-07
-8.34143e-08
-2.02925e-07
-8.09846e-08
-2.0151e-07
-7.86259e-08
-1.99825e-07
-1.97947e-07
-7.63461e-08
-1.26306e-07
-1.15428e-07
1.28073e-07
-1.24288e-07
-1.30094e-07
-1.22054e-07
-1.43547e-07
-1.19643e-07
-1.55717e-07
-1.17086e-07
-1.66531e-07
-1.14415e-07
-1.7596e-07
-1.11656e-07
-1.84009e-07
-1.08835e-07
-1.90714e-07
-1.05972e-07
-1.96141e-07
-1.03086e-07
-2.00376e-07
-1.00193e-07
-2.03521e-07
-9.73089e-08
-2.05683e-07
-9.4446e-08
-2.06975e-07
-9.16168e-08
-2.07506e-07
-8.88311e-08
-2.07385e-07
-8.60994e-08
-2.06714e-07
-8.34298e-08
-2.0559e-07
-8.08313e-08
-2.04104e-07
-7.83099e-08
-2.02342e-07
-2.0038e-07
-7.58734e-08
-1.29065e-07
-1.17298e-07
1.30945e-07
-1.26917e-07
-1.32237e-07
-1.2454e-07
-1.4592e-07
-1.21973e-07
-1.58281e-07
-1.19249e-07
-1.6925e-07
-1.16401e-07
-1.78803e-07
-1.13459e-07
-1.86946e-07
-1.10447e-07
-1.93721e-07
-1.07389e-07
-1.99194e-07
-1.04306e-07