/*--------------------------------*- C++ -*----------------------------------*\
  =========                 |
  \\      /  F ield         | OpenFOAM: The Open Source CFD Toolbox
   \\    /   O peration     | Website:  https://openfoam.org
    \\  /    A nd           | Version:  6
     \\/     M anipulation  |
\*---------------------------------------------------------------------------*/
FoamFile
{
    version     2.0;
    format      ascii;
    class       volVectorField;
    location    "9";
    object      U;
}
// * * * * * * * * * * * * * * * * * * * * * * * * * * * * * * * * * * * * * //

dimensions      [0 1 -1 0 0 0 0];

internalField   nonuniform List<vector> 
130000
(
(-0.00935088 -0.339814 0)
(-0.00992465 -0.381537 0)
(-0.0103907 -0.421862 0)
(-0.0107959 -0.460141 0)
(-0.0111427 -0.495791 0)
(-0.011445 -0.528358 0)
(-0.011713 -0.557518 0)
(-0.011956 -0.583078 0)
(-0.0121813 -0.604976 0)
(-0.0123943 -0.623265 0)
(-0.0125982 -0.638095 0)
(-0.0127944 -0.649688 0)
(-0.012983 -0.658322 0)
(-0.0131627 -0.664303 0)
(-0.0133322 -0.667959 0)
(-0.0134898 -0.669621 0)
(-0.0136337 -0.669617 0)
(-0.0137632 -0.668268 0)
(-0.0138782 -0.665881 0)
(-0.0139792 -0.662756 0)
(-0.0112962 -0.33862 0)
(-0.0116553 -0.380453 0)
(-0.0119906 -0.420948 0)
(-0.0122998 -0.459386 0)
(-0.0125766 -0.495175 0)
(-0.0128235 -0.527854 0)
(-0.0130473 -0.557098 0)
(-0.0132545 -0.582718 0)
(-0.013451 -0.604656 0)
(-0.0136406 -0.622971 0)
(-0.013826 -0.637818 0)
(-0.0140076 -0.649425 0)
(-0.0141849 -0.658072 0)
(-0.0143566 -0.664068 0)
(-0.0145206 -0.667743 0)
(-0.0146751 -0.669426 0)
(-0.0148183 -0.669448 0)
(-0.0149491 -0.668126 0)
(-0.015067 -0.665768 0)
(-0.0151717 -0.662673 0)
(-0.0142818 -0.338039 0)
(-0.0144872 -0.379849 0)
(-0.0146721 -0.420346 0)
(-0.0148528 -0.458805 0)
(-0.0150285 -0.49462 0)
(-0.015195 -0.527323 0)
(-0.0153552 -0.556586 0)
(-0.0155112 -0.58222 0)
(-0.0156657 -0.604169 0)
(-0.0158203 -0.622491 0)
(-0.0159759 -0.637345 0)
(-0.0161321 -0.64896 0)
(-0.0162882 -0.657618 0)
(-0.0164421 -0.663631 0)
(-0.0165922 -0.667325 0)
(-0.0167362 -0.669031 0)
(-0.016872 -0.669079 0)
(-0.016998 -0.667787 0)
(-0.0171129 -0.66546 0)
(-0.0172152 -0.662395 0)
(-0.0179335 -0.337883 0)
(-0.0180109 -0.379667 0)
(-0.0180689 -0.420149 0)
(-0.0181276 -0.458599 0)
(-0.0181948 -0.494406 0)
(-0.0182674 -0.527102 0)
(-0.0183474 -0.556356 0)
(-0.0184354 -0.581978 0)
(-0.0185323 -0.603912 0)
(-0.0186378 -0.62222 0)
(-0.0187518 -0.63706 0)
(-0.0188728 -0.648665 0)
(-0.0189991 -0.657317 0)
(-0.0191285 -0.663327 0)
(-0.0192587 -0.667023 0)
(-0.0193872 -0.668738 0)
(-0.0195116 -0.668797 0)
(-0.01963 -0.667521 0)
(-0.0197403 -0.665213 0)
(-0.0198413 -0.662169 0)
(-0.0220811 -0.337979 0)
(-0.0220192 -0.379746 0)
(-0.0219553 -0.420212 0)
(-0.0218953 -0.45864 0)
(-0.0218541 -0.494423 0)
(-0.0218286 -0.527092 0)
(-0.0218215 -0.556318 0)
(-0.0218325 -0.58191 0)
(-0.0218617 -0.603816 0)
(-0.021908 -0.622096 0)
(-0.0219703 -0.636912 0)
(-0.0220463 -0.648495 0)
(-0.022134 -0.65713 0)
(-0.0222305 -0.663129 0)
(-0.0223333 -0.666819 0)
(-0.0224392 -0.668532 0)
(-0.0225458 -0.668596 0)
(-0.0226506 -0.667327 0)
(-0.0227508 -0.665031 0)
(-0.0228447 -0.662004 0)
(-0.0264021 -0.33826 0)
(-0.0262499 -0.380023 0)
(-0.0260952 -0.420469 0)
(-0.0259409 -0.458866 0)
(-0.0258071 -0.494611 0)
(-0.0256928 -0.527237 0)
(-0.0256026 -0.556417 0)
(-0.025537 -0.581964 0)
(-0.0254964 -0.603824 0)
(-0.0254796 -0.622061 0)
(-0.0254854 -0.636838 0)
(-0.0255112 -0.648387 0)
(-0.0255547 -0.656993 0)
(-0.0256125 -0.662969 0)
(-0.0256818 -0.666642 0)
(-0.025759 -0.668344 0)
(-0.0258413 -0.668403 0)
(-0.0259256 -0.667134 0)
(-0.0260086 -0.664844 0)
(-0.0260876 -0.661827 0)
(-0.030782 -0.338681 0)
(-0.0305828 -0.380463 0)
(-0.0303627 -0.420901 0)
(-0.0301337 -0.459271 0)
(-0.0299221 -0.494973 0)
(-0.02973 -0.527549 0)
(-0.0295643 -0.556673 0)
(-0.029427 -0.582162 0)
(-0.0293192 -0.603963 0)
(-0.0292401 -0.622145 0)
(-0.0291886 -0.636869 0)
(-0.0291622 -0.648373 0)
(-0.0291585 -0.656938 0)
(-0.0291739 -0.662881 0)
(-0.0292054 -0.666528 0)
(-0.0292491 -0.66821 0)
(-0.0293017 -0.668255 0)
(-0.02936 -0.666981 0)
(-0.0294198 -0.664689 0)
(-0.0294785 -0.661678 0)
(-0.0352112 -0.339219 0)
(-0.0349623 -0.381032 0)
(-0.034683 -0.421473 0)
(-0.034392 -0.459821 0)
(-0.0341146 -0.495485 0)
(-0.0338554 -0.528009 0)
(-0.0336231 -0.557072 0)
(-0.0334211 -0.582496 0)
(-0.0332514 -0.604232 0)
(-0.0331136 -0.622349 0)
(-0.0330071 -0.637013 0)
(-0.0329295 -0.648461 0)
(-0.0328786 -0.656977 0)
(-0.0328506 -0.662878 0)
(-0.0328425 -0.66649 0)
(-0.0328502 -0.668145 0)
(-0.0328703 -0.66817 0)
(-0.0328992 -0.666882 0)
(-0.0329324 -0.664584 0)
(-0.032967 -0.661573 0)
(-0.0396266 -0.339793 0)
(-0.0393389 -0.381666 0)
(-0.0390145 -0.422133 0)
(-0.0386741 -0.460476 0)
(-0.0383416 -0.49611 0)
(-0.0380243 -0.528587 0)
(-0.0377333 -0.557592 0)
(-0.0374729 -0.58295 0)
(-0.0372463 -0.604616 0)
(-0.0370536 -0.622664 0)
(-0.0368947 -0.637261 0)
(-0.0367674 -0.648647 0)
(-0.0366696 -0.657108 0)
(-0.0365978 -0.662959 0)
(-0.0365489 -0.66653 0)
(-0.0365187 -0.668151 0)
(-0.0365039 -0.668149 0)
(-0.0365004 -0.666842 0)
(-0.0365037 -0.664533 0)
(-0.0365109 -0.661517 0)
(-0.0440612 -0.340444 0)
(-0.0437394 -0.382385 0)
(-0.0433648 -0.422886 0)
(-0.042974 -0.461231 0)
(-0.0425885 -0.496841 0)
(-0.0422168 -0.529274 0)
(-0.0418712 -0.558221 0)
(-0.0415568 -0.583511 0)
(-0.0412771 -0.605106 0)
(-0.0410329 -0.623081 0)
(-0.0408242 -0.637607 0)
(-0.0406493 -0.648927 0)
(-0.040506 -0.657327 0)
(-0.040391 -0.663124 0)
(-0.0403013 -0.666648 0)
(-0.0402326 -0.66823 0)
(-0.0401817 -0.668197 0)
(-0.0401444 -0.666866 0)
(-0.0401162 -0.664539 0)
(-0.0400938 -0.661515 0)
(-0.0484342 -0.341147 0)
(-0.0480894 -0.383169 0)
(-0.0476841 -0.423715 0)
(-0.0472562 -0.462072 0)
(-0.0468281 -0.497664 0)
(-0.0464103 -0.530057 0)
(-0.0460167 -0.558948 0)
(-0.0456538 -0.584172 0)
(-0.0453255 -0.605693 0)
(-0.0450332 -0.623593 0)
(-0.0447773 -0.638047 0)
(-0.0445564 -0.649296 0)
(-0.0443686 -0.657632 0)
(-0.0442108 -0.663372 0)
(-0.0440799 -0.666845 0)
(-0.0439722 -0.668383 0)
(-0.043884 -0.668314 0)
(-0.0438113 -0.666954 0)
(-0.0437497 -0.664607 0)
(-0.0436958 -0.661571 0)
(-0.0528482 -0.341901 0)
(-0.0524658 -0.384014 0)
(-0.0520149 -0.424614 0)
(-0.0515434 -0.462988 0)
(-0.0510702 -0.498568 0)
(-0.0506066 -0.530925 0)
(-0.0501669 -0.559763 0)
(-0.0497578 -0.584921 0)
(-0.0493834 -0.60637 0)
(-0.0490453 -0.624195 0)
(-0.0487443 -0.638574 0)
(-0.0484791 -0.649752 0)
(-0.0482481 -0.658021 0)
(-0.0480483 -0.6637 0)
(-0.0478768 -0.667119 0)
(-0.0477299 -0.668611 0)
(-0.0476042 -0.668502 0)
(-0.0474956 -0.66711 0)
(-0.0473997 -0.66474 0)
(-0.0473131 -0.661687 0)
(-0.0572061 -0.342705 0)
(-0.0567869 -0.384912 0)
(-0.0563072 -0.425571 0)
(-0.0558049 -0.463968 0)
(-0.0552964 -0.499542 0)
(-0.054794 -0.531868 0)
(-0.0543135 -0.560656 0)
(-0.0538621 -0.585752 0)
(-0.0534446 -0.60713 0)
(-0.053063 -0.624881 0)
(-0.0527183 -0.639184 0)
(-0.0524097 -0.65029 0)
(-0.0521359 -0.658491 0)
(-0.0518941 -0.664108 0)
(-0.0516818 -0.66747 0)
(-0.0514953 -0.668913 0)
(-0.0513311 -0.668762 0)
(-0.0511854 -0.667336 0)
(-0.051054 -0.664938 0)
(-0.0509335 -0.661866 0)
(-0.0615676 -0.343531 0)
(-0.0611082 -0.385848 0)
(-0.0605987 -0.426576 0)
(-0.0600648 -0.465006 0)
(-0.0595212 -0.500581 0)
(-0.0589809 -0.532882 0)
(-0.0584607 -0.561625 0)
(-0.0579682 -0.586661 0)
(-0.0575085 -0.607971 0)
(-0.0570841 -0.625648 0)
(-0.0566965 -0.639877 0)
(-0.0563451 -0.650911 0)
(-0.056029 -0.659043 0)
(-0.0557456 -0.664595 0)
(-0.0554924 -0.6679 0)
(-0.0552661 -0.669291 0)
(-0.0550633 -0.669096 0)
(-0.0548801 -0.667633 0)
(-0.0547126 -0.665206 0)
(-0.0545573 -0.662112 0)
(-0.0658965 -0.344426 0)
(-0.0654037 -0.386848 0)
(-0.0648728 -0.427645 0)
(-0.0643121 -0.46611 0)
(-0.0637372 -0.501689 0)
(-0.0631621 -0.533969 0)
(-0.0626044 -0.562669 0)
(-0.0620724 -0.587648 0)
(-0.0615717 -0.608891 0)
(-0.0611053 -0.626496 0)
(-0.060675 -0.640652 0)
(-0.0602809 -0.651612 0)
(-0.0599222 -0.659675 0)
(-0.0595968 -0.665163 0)
(-0.0593023 -0.668408 0)
(-0.0590355 -0.669747 0)
(-0.0587931 -0.669505 0)
(-0.0585713 -0.668003 0)
(-0.0583665 -0.665543 0)
(-0.0581754 -0.662426 0)
(-0.0702279 -0.345353 0)
(-0.0696957 -0.387889 0)
(-0.0691422 -0.428761 0)
(-0.0685552 -0.467269 0)
(-0.0679496 -0.502858 0)
(-0.0673404 -0.535122 0)
(-0.0667457 -0.563785 0)
(-0.0661747 -0.588711 0)
(-0.0656333 -0.60989 0)
(-0.0651251 -0.627425 0)
(-0.0646524 -0.641508 0)
(-0.0642157 -0.652396 0)
(-0.0638143 -0.660389 0)
(-0.0634467 -0.665811 0)
(-0.0631105 -0.668997 0)
(-0.0628028 -0.670281 0)
(-0.0625204 -0.669992 0)
(-0.0622595 -0.668448 0)
(-0.0620168 -0.665955 0)
(-0.0617891 -0.662811 0)
(-0.0745678 -0.34633 0)
(-0.0739966 -0.38898 0)
(-0.0734161 -0.42993 0)
(-0.0728004 -0.468483 0)
(-0.0721622 -0.504089 0)
(-0.0715178 -0.536342 0)
(-0.0708856 -0.564973 0)
(-0.0702752 -0.58985 0)
(-0.0696927 -0.610968 0)
(-0.0691424 -0.628435 0)
(-0.0686267 -0.642447 0)
(-0.0681467 -0.653263 0)
(-0.067702 -0.661186 0)
(-0.0672913 -0.666543 0)
(-0.0669125 -0.669667 0)
(-0.0665629 -0.670896 0)
(-0.0662392 -0.670557 0)
(-0.0659378 -0.668971 0)
(-0.0656559 -0.666442 0)
(-0.0653903 -0.663269 0)
(-0.0789057 -0.347333 0)
(-0.0782918 -0.390104 0)
(-0.0776862 -0.431141 0)
(-0.0770431 -0.469749 0)
(-0.0763735 -0.505379 0)
(-0.0756937 -0.537628 0)
(-0.0750239 -0.566233 0)
(-0.0743737 -0.591065 0)
(-0.0737498 -0.612126 0)
(-0.0731568 -0.629528 0)
(-0.0725977 -0.64347 0)
(-0.0720737 -0.654215 0)
(-0.0715851 -0.662069 0)
(-0.0711305 -0.667359 0)
(-0.0707083 -0.670422 0)
(-0.0703157 -0.671595 0)
(-0.0699499 -0.671206 0)
(-0.0696071 -0.669576 0)
(-0.0692848 -0.66701 0)
(-0.0689803 -0.663805 0)
(-0.0832624 -0.348378 0)
(-0.0826148 -0.391279 0)
(-0.0819783 -0.43241 0)
(-0.0813007 -0.471079 0)
(-0.080594 -0.506737 0)
(-0.0798752 -0.538988 0)
(-0.0791647 -0.56757 0)
(-0.0784726 -0.592361 0)
(-0.0778055 -0.613368 0)
(-0.0771684 -0.630706 0)
(-0.0765645 -0.644579 0)
(-0.0759954 -0.655255 0)
(-0.0754614 -0.66304 0)
(-0.0749617 -0.668263 0)
(-0.0744945 -0.671264 0)
(-0.0740577 -0.672379 0)
(-0.0736481 -0.671939 0)
(-0.0732623 -0.670263 0)
(-0.0728982 -0.667658 0)
(-0.0725533 -0.664421 0)
(-0.0876161 -0.34949 0)
(-0.086939 -0.392526 0)
(-0.0862727 -0.433754 0)
(-0.0855603 -0.472485 0)
(-0.0848157 -0.508174 0)
(-0.0840568 -0.540428 0)
(-0.0833046 -0.56899 0)
(-0.0825694 -0.593743 0)
(-0.0818581 -0.614696 0)
(-0.0811758 -0.631973 0)
(-0.080526 -0.645779 0)
(-0.0799106 -0.656385 0)
(-0.0793302 -0.664101 0)
(-0.0787842 -0.669259 0)
(-0.0782711 -0.672197 0)
(-0.0777887 -0.673254 0)
(-0.0773343 -0.672762 0)
(-0.0769042 -0.671039 0)
(-0.0764971 -0.668393 0)
(-0.0761104 -0.665121 0)
(-0.0919997 -0.350661 0)
(-0.0912829 -0.39384 0)
(-0.0905789 -0.435168 0)
(-0.0898274 -0.473965 0)
(-0.0890418 -0.509689 0)
(-0.0882406 -0.541949 0)
(-0.0874447 -0.570494 0)
(-0.0866649 -0.59521 0)
(-0.0859078 -0.616114 0)
(-0.0851788 -0.63333 0)
(-0.0844815 -0.647071 0)
(-0.0838183 -0.657609 0)
(-0.0831899 -0.665256 0)
(-0.0825959 -0.670347 0)
(-0.0820352 -0.673223 0)
(-0.0815057 -0.674221 0)
(-0.0810047 -0.673675 0)
(-0.0805288 -0.671904 0)
(-0.0800769 -0.669216 0)
(-0.0796468 -0.665907 0)
(-0.0963807 -0.351883 0)
(-0.0956191 -0.395211 0)
(-0.094881 -0.436647 0)
(-0.0940936 -0.475516 0)
(-0.0932686 -0.511281 0)
(-0.0924249 -0.543552 0)
(-0.0915848 -0.572084 0)
(-0.090759 -0.596767 0)
(-0.0899546 -0.617624 0)
(-0.0891773 -0.634782 0)
(-0.0884309 -0.648458 0)
(-0.0877182 -0.658929 0)
(-0.0870401 -0.666509 0)
(-0.0863966 -0.671534 0)
(-0.0857865 -0.674346 0)
(-0.0852082 -0.675285 0)
(-0.0846589 -0.674684 0)
(-0.0841354 -0.672864 0)
(-0.0836369 -0.670131 0)
(-0.0831618 -0.666783 0)
(-0.100781 -0.353153 0)
(-0.0999801 -0.396641 0)
(-0.0992036 -0.438193 0)
(-0.0983753 -0.477143 0)
(-0.0975064 -0.512954 0)
(-0.0966167 -0.545241 0)
(-0.095729 -0.573764 0)
(-0.0948544 -0.598418 0)
(-0.0940001 -0.61923 0)
(-0.093172 -0.636332 0)
(-0.0923743 -0.649946 0)
(-0.0916098 -0.66035 0)
(-0.0908798 -0.667863 0)
(-0.0901844 -0.672821 0)
(-0.0895229 -0.675569 0)
(-0.0888936 -0.676448 0)
(-0.0882939 -0.675792 0)
(-0.0877208 -0.67392 0)
(-0.0871739 -0.671142 0)
(-0.0866515 -0.667752 0)
(-0.105186 -0.354499 0)
(-0.104352 -0.398152 0)
(-0.103537 -0.439825 0)
(-0.102666 -0.478858 0)
(-0.101751 -0.514719 0)
(-0.100814 -0.547026 0)
(-0.0998759 -0.575542 0)
(-0.0989501 -0.60017 0)
(-0.0980435 -0.620939 0)
(-0.0971622 -0.637988 0)
(-0.0963107 -0.65154 0)
(-0.095492 -0.661879 0)
(-0.0947078 -0.669324 0)
(-0.0939584 -0.674216 0)
(-0.0932431 -0.676899 0)
(-0.0925605 -0.677717 0)
(-0.0919082 -0.677003 0)
(-0.0912832 -0.675079 0)
(-0.0906854 -0.672253 0)
(-0.0901137 -0.668819 0)
(-0.109615 -0.355909 0)
(-0.108741 -0.399739 0)
(-0.107883 -0.44154 0)
(-0.106967 -0.480663 0)
(-0.106004 -0.516578 0)
(-0.105015 -0.548909 0)
(-0.104026 -0.577423 0)
(-0.103046 -0.602027 0)
(-0.102085 -0.622756 0)
(-0.101148 -0.639752 0)
(-0.10024 -0.653244 0)
(-0.0993645 -0.663518 0)
(-0.0985233 -0.670896 0)
(-0.0977171 -0.675721 0)
(-0.0969453 -0.67834 0)
(-0.0962069 -0.679095 0)
(-0.0954993 -0.678323 0)
(-0.0948198 -0.676345 0)
(-0.0941687 -0.673469 0)
(-0.093545 -0.669989 0)
(-0.114058 -0.35739 0)
(-0.11314 -0.401404 0)
(-0.112238 -0.443341 0)
(-0.111276 -0.48256 0)
(-0.110263 -0.518536 0)
(-0.109222 -0.550895 0)
(-0.108178 -0.579412 0)
(-0.107143 -0.603995 0)
(-0.106124 -0.624687 0)
(-0.105128 -0.641633 0)
(-0.104161 -0.655066 0)
(-0.103226 -0.665275 0)
(-0.102325 -0.672587 0)
(-0.101459 -0.677345 0)
(-0.100628 -0.679897 0)
(-0.0998301 -0.68059 0)
(-0.0990642 -0.679758 0)
(-0.0983274 -0.677723 0)
(-0.09762 -0.674795 0)
(-0.0969416 -0.671266 0)
(-0.118509 -0.358935 0)
(-0.117555 -0.403147 0)
(-0.116609 -0.445231 0)
(-0.115598 -0.484555 0)
(-0.114532 -0.520597 0)
(-0.113436 -0.552992 0)
(-0.112334 -0.581514 0)
(-0.111239 -0.606081 0)
(-0.11016 -0.626737 0)
(-0.109102 -0.643635 0)
(-0.108073 -0.65701 0)
(-0.107075 -0.667156 0)
(-0.10611 -0.674401 0)
(-0.105181 -0.679091 0)
(-0.104288 -0.681577 0)
(-0.103428 -0.682205 0)
(-0.102601 -0.681311 0)
(-0.101804 -0.679219 0)
(-0.101037 -0.676236 0)
(-0.100301 -0.672655 0)
(-0.122979 -0.360566 0)
(-0.12199 -0.404985 0)
(-0.120996 -0.447223 0)
(-0.119933 -0.486658 0)
(-0.118811 -0.522773 0)
(-0.117656 -0.555206 0)
(-0.116492 -0.583738 0)
(-0.115335 -0.608291 0)
(-0.114191 -0.628914 0)
(-0.113069 -0.645766 0)
(-0.111973 -0.659084 0)
(-0.110908 -0.669167 0)
(-0.109878 -0.676345 0)
(-0.108882 -0.680967 0)
(-0.107922 -0.683385 0)
(-0.106998 -0.683947 0)
(-0.106106 -0.68299 0)
(-0.105245 -0.680837 0)
(-0.104416 -0.677797 0)
(-0.10362 -0.67416 0)
(-0.127457 -0.362275 0)
(-0.126432 -0.406914 0)
(-0.12539 -0.449318 0)
(-0.124274 -0.488873 0)
(-0.123095 -0.525067 0)
(-0.121877 -0.557544 0)
(-0.12065 -0.58609 0)
(-0.119427 -0.610631 0)
(-0.118216 -0.631225 0)
(-0.117025 -0.648031 0)
(-0.115859 -0.661294 0)
(-0.114725 -0.671314 0)
(-0.113624 -0.678425 0)
(-0.112559 -0.682978 0)
(-0.11153 -0.685327 0)
(-0.110536 -0.685821 0)
(-0.109577 -0.684799 0)
(-0.108649 -0.682584 0)
(-0.107755 -0.679483 0)
(-0.106895 -0.675788 0)
(-0.131969 -0.364067 0)
(-0.130899 -0.408939 0)
(-0.129803 -0.45152 0)
(-0.128628 -0.491203 0)
(-0.127386 -0.527483 0)
(-0.126103 -0.56001 0)
(-0.124808 -0.588574 0)
(-0.123515 -0.613108 0)
(-0.122233 -0.633673 0)
(-0.120969 -0.650436 0)
(-0.119731 -0.663645 0)
(-0.118523 -0.673603 0)
(-0.117348 -0.680647 0)
(-0.116209 -0.68513 0)
(-0.115107 -0.687409 0)
(-0.114041 -0.687834 0)
(-0.11301 -0.686744 0)
(-0.112012 -0.684463 0)
(-0.111049 -0.681299 0)
(-0.110121 -0.677542 0)
(-0.136482 -0.365949 0)
(-0.13537 -0.411066 0)
(-0.134221 -0.453833 0)
(-0.132988 -0.493654 0)
(-0.131682 -0.530028 0)
(-0.130331 -0.56261 0)
(-0.128965 -0.591198 0)
(-0.127598 -0.615729 0)
(-0.126241 -0.636269 0)
(-0.124901 -0.652991 0)
(-0.123585 -0.666146 0)
(-0.1223 -0.676042 0)
(-0.121047 -0.683019 0)
(-0.11983 -0.687432 0)
(-0.11865 -0.68964 0)
(-0.117508 -0.689993 0)
(-0.116401 -0.688833 0)
(-0.115329 -0.686484 0)
(-0.114293 -0.683253 0)
(-0.113294 -0.679431 0)
(-0.141031 -0.367921 0)
(-0.13987 -0.413298 0)
(-0.138661 -0.456264 0)
(-0.137362 -0.496232 0)
(-0.135987 -0.532708 0)
(-0.134563 -0.565353 0)
(-0.133121 -0.593969 0)
(-0.131677 -0.618501 0)
(-0.13024 -0.639019 0)
(-0.128819 -0.655701 0)
(-0.127421 -0.668804 0)
(-0.126053 -0.678639 0)
(-0.124718 -0.685548 0)
(-0.123419 -0.689891 0)
(-0.122158 -0.692025 0)
(-0.120934 -0.692305 0)
(-0.119748 -0.691072 0)
(-0.118597 -0.688652 0)
(-0.117484 -0.685351 0)
(-0.11641 -0.68146 0)
(-0.145586 -0.369993 0)
(-0.14438 -0.415644 0)
(-0.143111 -0.45882 0)
(-0.141746 -0.498946 0)
(-0.140298 -0.535533 0)
(-0.138797 -0.568246 0)
(-0.137276 -0.596897 0)
(-0.135749 -0.621433 0)
(-0.134228 -0.641933 0)
(-0.132721 -0.658578 0)
(-0.131237 -0.67163 0)
(-0.129781 -0.681404 0)
(-0.128359 -0.688246 0)
(-0.126973 -0.692516 0)
(-0.125624 -0.694576 0)
(-0.124315 -0.69478 0)
(-0.123044 -0.693472 0)
(-0.121811 -0.690977 0)
(-0.120616 -0.687603 0)
(-0.119463 -0.683638 0)
(-0.150176 -0.372169 0)
(-0.148915 -0.418109 0)
(-0.147579 -0.46151 0)
(-0.146143 -0.501804 0)
(-0.144617 -0.53851 0)
(-0.143035 -0.5713 0)
(-0.141428 -0.59999 0)
(-0.139814 -0.624536 0)
(-0.138203 -0.645021 0)
(-0.136606 -0.661631 0)
(-0.13503 -0.674633 0)
(-0.133482 -0.684347 0)
(-0.131966 -0.691121 0)
(-0.130488 -0.695318 0)
(-0.129048 -0.697302 0)
(-0.127648 -0.697428 0)
(-0.126288 -0.696041 0)
(-0.124966 -0.693468 0)
(-0.123686 -0.690016 0)
(-0.122449 -0.685974 0)
(-0.154773 -0.374453 0)
(-0.153461 -0.420699 0)
(-0.152059 -0.464338 0)
(-0.150548 -0.504813 0)
(-0.148942 -0.541649 0)
(-0.147274 -0.574524 0)
(-0.145578 -0.60326 0)
(-0.143871 -0.62782 0)
(-0.142166 -0.648293 0)
(-0.140472 -0.664871 0)
(-0.138798 -0.677825 0)
(-0.137151 -0.687479 0)
(-0.135538 -0.694185 0)
(-0.133961 -0.698308 0)
(-0.132424 -0.700213 0)
(-0.130928 -0.700259 0)
(-0.129472 -0.698791 0)
(-0.128058 -0.696135 0)
(-0.126686 -0.692601 0)
(-0.12536 -0.688476 0)
(-0.159409 -0.376851 0)
(-0.158037 -0.423422 0)
(-0.156561 -0.467315 0)
(-0.154969 -0.507984 0)
(-0.153276 -0.54496 0)
(-0.151516 -0.577928 0)
(-0.149724 -0.606718 0)
(-0.147919 -0.631297 0)
(-0.146113 -0.651762 0)
(-0.144316 -0.66831 0)
(-0.142538 -0.681218 0)
(-0.140788 -0.690813 0)
(-0.13907 -0.69745 0)
(-0.137389 -0.701497 0)
(-0.135748 -0.703323 0)
(-0.13415 -0.703285 0)
(-0.132594 -0.701731 0)
(-0.131081 -0.69899 0)
(-0.129613 -0.695369 0)
(-0.128193 -0.691155 0)
(-0.164055 -0.379373 0)
(-0.162626 -0.426287 0)
(-0.161074 -0.47045 0)
(-0.159399 -0.511326 0)
(-0.157614 -0.548454 0)
(-0.155757 -0.581525 0)
(-0.153864 -0.610374 0)
(-0.151955 -0.634979 0)
(-0.150042 -0.65544 0)
(-0.148136 -0.671962 0)
(-0.146248 -0.684825 0)
(-0.144387 -0.694361 0)
(-0.142558 -0.700929 0)
(-0.140767 -0.704899 0)
(-0.139016 -0.706642 0)
(-0.137309 -0.706518 0)
(-0.135647 -0.704875 0)
(-0.134029 -0.702043 0)
(-0.132458 -0.69833 0)
(-0.130938 -0.694024 0)
(-0.168741 -0.382026 0)
(-0.167242 -0.429303 0)
(-0.165608 -0.473753 0)
(-0.163841 -0.514852 0)
(-0.161959 -0.552142 0)
(-0.159998 -0.585325 0)
(-0.157998 -0.614243 0)
(-0.155978 -0.638879 0)
(-0.153951 -0.659341 0)
(-0.15193 -0.675839 0)
(-0.149925 -0.688659 0)
(-0.147946 -0.698137 0)
(-0.145999 -0.704635 0)
(-0.14409 -0.708527 0)
(-0.142223 -0.710185 0)
(-0.140402 -0.709972 0)
(-0.138626 -0.708236 0)
(-0.136897 -0.705308 0)
(-0.135217 -0.701498 0)
(-0.133592 -0.697092 0)
(-0.173438 -0.384816 0)
(-0.171871 -0.432478 0)
(-0.170152 -0.477234 0)
(-0.168291 -0.51857 0)
(-0.166306 -0.556037 0)
(-0.164237 -0.589342 0)
(-0.162123 -0.618337 0)
(-0.159985 -0.64301 0)
(-0.157838 -0.663478 0)
(-0.155694 -0.679956 0)
(-0.153565 -0.692735 0)
(-0.151461 -0.702155 0)
(-0.149389 -0.708584 0)
(-0.147355 -0.712396 0)
(-0.145364 -0.713966 0)
(-0.14342 -0.71366 0)
(-0.141524 -0.711826 0)
(-0.139677 -0.708797 0)
(-0.137883 -0.704884 0)
(-0.136145 -0.700372 0)
(-0.178179 -0.387753 0)
(-0.176533 -0.435823 0)
(-0.17472 -0.480903 0)
(-0.172756 -0.522494 0)
(-0.170661 -0.560151 0)
(-0.168475 -0.59359 0)
(-0.16624 -0.62267 0)
(-0.163976 -0.647388 0)
(-0.1617 -0.667866 0)
(-0.159426 -0.684327 0)
(-0.157165 -0.697068 0)
(-0.154928 -0.706431 0)
(-0.152723 -0.712789 0)
(-0.150557 -0.71652 0)
(-0.148435 -0.718 0)
(-0.146361 -0.717597 0)
(-0.144336 -0.715661 0)
(-0.142364 -0.712526 0)
(-0.140448 -0.708503 0)
(-0.138591 -0.703878 0)
(-0.182935 -0.390849 0)
(-0.18121 -0.439349 0)
(-0.179302 -0.484776 0)
(-0.177231 -0.526637 0)
(-0.175019 -0.564499 0)
(-0.17271 -0.598083 0)
(-0.170345 -0.627258 0)
(-0.167949 -0.652028 0)
(-0.165537 -0.672522 0)
(-0.163124 -0.68897 0)
(-0.160722 -0.701674 0)
(-0.158343 -0.710982 0)
(-0.155996 -0.717269 0)
(-0.153689 -0.720916 0)
(-0.151427 -0.722303 0)
(-0.149215 -0.721798 0)
(-0.147055 -0.719756 0)
(-0.144949 -0.716508 0)
(-0.142902 -0.712369 0)
(-0.140919 -0.707623 0)
(-0.187739 -0.394113 0)
(-0.185922 -0.443069 0)
(-0.183908 -0.488863 0)
(-0.18172 -0.531014 0)
(-0.179384 -0.569095 0)
(-0.176943 -0.602837 0)
(-0.174441 -0.632116 0)
(-0.171903 -0.656946 0)
(-0.169345 -0.677463 0)
(-0.166784 -0.693902 0)
(-0.164232 -0.706571 0)
(-0.161703 -0.715825 0)
(-0.159205 -0.72204 0)
(-0.156748 -0.725602 0)
(-0.154336 -0.726893 0)
(-0.151977 -0.726283 0)
(-0.149672 -0.724128 0)
(-0.147425 -0.720762 0)
(-0.145239 -0.716499 0)
(-0.143121 -0.711625 0)
(-0.192561 -0.397554 0)
(-0.190651 -0.446994 0)
(-0.188529 -0.493178 0)
(-0.18622 -0.535639 0)
(-0.183753 -0.573955 0)
(-0.181172 -0.607869 0)
(-0.178524 -0.637264 0)
(-0.175835 -0.662162 0)
(-0.173123 -0.682707 0)
(-0.170403 -0.699142 0)
(-0.167692 -0.71178 0)
(-0.165002 -0.720979 0)
(-0.162343 -0.727122 0)
(-0.159725 -0.730597 0)
(-0.157155 -0.731789 0)
(-0.154638 -0.731069 0)
(-0.152179 -0.728795 0)
(-0.14978 -0.725304 0)
(-0.147447 -0.72091 0)
(-0.145186 -0.715899 0)
(-0.19744 -0.401185 0)
(-0.195424 -0.451137 0)
(-0.193181 -0.497736 0)
(-0.19074 -0.540527 0)
(-0.188131 -0.579097 0)
(-0.1854 -0.613197 0)
(-0.182596 -0.642719 0)
(-0.179746 -0.667695 0)
(-0.176867 -0.688275 0)
(-0.17398 -0.704711 0)
(-0.171098 -0.71732 0)
(-0.168236 -0.726466 0)
(-0.165405 -0.732537 0)
(-0.162616 -0.735923 0)
(-0.159876 -0.737011 0)
(-0.157192 -0.736177 0)
(-0.154568 -0.733779 0)
(-0.152008 -0.730155 0)
(-0.149518 -0.72562 0)
(-0.147104 -0.720463 0)
(-0.202341 -0.40502 0)
(-0.200219 -0.455513 0)
(-0.197853 -0.502555 0)
(-0.195273 -0.545698 0)
(-0.192514 -0.58454 0)
(-0.189624 -0.618841 0)
(-0.186654 -0.648503 0)
(-0.183631 -0.673566 0)
(-0.180576 -0.69419 0)
(-0.177508 -0.710631 0)
(-0.174443 -0.723214 0)
(-0.171398 -0.732309 0)
(-0.168384 -0.738306 0)
(-0.165412 -0.741601 0)
(-0.16249 -0.742582 0)
(-0.159627 -0.741628 0)
(-0.156827 -0.739098 0)
(-0.154096 -0.735333 0)
(-0.151438 -0.73065 0)
(-0.148862 -0.725336 0)
(-0.207303 -0.40907 0)
(-0.205057 -0.460139 0)
(-0.202554 -0.50765 0)
(-0.199825 -0.55117 0)
(-0.196905 -0.590303 0)
(-0.193844 -0.624822 0)
(-0.190695 -0.654638 0)
(-0.187488 -0.6798 0)
(-0.184244 -0.700474 0)
(-0.180984 -0.716926 0)
(-0.177725 -0.729487 0)
(-0.174483 -0.738532 0)
(-0.171273 -0.744455 0)
(-0.168105 -0.747655 0)
(-0.16499 -0.748526 0)
(-0.161936 -0.747446 0)
(-0.158949 -0.744777 0)
(-0.156034 -0.740863 0)
(-0.153197 -0.73602 0)
(-0.150448 -0.730539 0)
(-0.212293 -0.413352 0)
(-0.20992 -0.465029 0)
(-0.207277 -0.51304 0)
(-0.20439 -0.556962 0)
(-0.201299 -0.596409 0)
(-0.198057 -0.631164 0)
(-0.194719 -0.661148 0)
(-0.191315 -0.686419 0)
(-0.187869 -0.707153 0)
(-0.184403 -0.723622 0)
(-0.180935 -0.736165 0)
(-0.177484 -0.745161 0)
(-0.174064 -0.751009 0)
(-0.170687 -0.754113 0)
(-0.167365 -0.754867 0)
(-0.164107 -0.753655 0)
(-0.160919 -0.75084 0)
(-0.157808 -0.746767 0)
(-0.15478 -0.741754 0)
(-0.151846 -0.736094 0)
(-0.21735 -0.417877 0)
(-0.214834 -0.470202 0)
(-0.212035 -0.518744 0)
(-0.208978 -0.563095 0)
(-0.205703 -0.60288 0)
(-0.202265 -0.637891 0)
(-0.198723 -0.668059 0)
(-0.195109 -0.693452 0)
(-0.191447 -0.714255 0)
(-0.18776 -0.730748 0)
(-0.18407 -0.743276 0)
(-0.180394 -0.752224 0)
(-0.176749 -0.757997 0)
(-0.173149 -0.761001 0)
(-0.169606 -0.761634 0)
(-0.166129 -0.760283 0)
(-0.162727 -0.757313 0)
(-0.159407 -0.75307 0)
(-0.156175 -0.747877 0)
(-0.153043 -0.742024 0)
(-0.222448 -0.422669 0)
(-0.219784 -0.475679 0)
(-0.216822 -0.524787 0)
(-0.213584 -0.569596 0)
(-0.210113 -0.609743 0)
(-0.206467 -0.645029 0)
(-0.202708 -0.675398 0)
(-0.198868 -0.700926 0)
(-0.194974 -0.721809 0)
(-0.191051 -0.738332 0)
(-0.187122 -0.75085 0)
(-0.183206 -0.759752 0)
(-0.17932 -0.765448 0)
(-0.175481 -0.768349 0)
(-0.1717 -0.768857 0)
(-0.16799 -0.767359 0)
(-0.164358 -0.764225 0)
(-0.160814 -0.759802 0)
(-0.157364 -0.754414 0)
(-0.154021 -0.748355 0)
(-0.227616 -0.427742 0)
(-0.224787 -0.481481 0)
(-0.221648 -0.53119 0)
(-0.218215 -0.576489 0)
(-0.214533 -0.617024 0)
(-0.210664 -0.652609 0)
(-0.206671 -0.683196 0)
(-0.202589 -0.708875 0)
(-0.198447 -0.729847 0)
(-0.194271 -0.746409 0)
(-0.190085 -0.758921 0)
(-0.185911 -0.767779 0)
(-0.181768 -0.773398 0)
(-0.177672 -0.776192 0)
(-0.173637 -0.776567 0)
(-0.169676 -0.774915 0)
(-0.165799 -0.771606 0)
(-0.162014 -0.766992 0)
(-0.158331 -0.761396 0)
(-0.154763 -0.755116 0)
(-0.232837 -0.433115 0)
(-0.229836 -0.487628 0)
(-0.226511 -0.537979 0)
(-0.222869 -0.583802 0)
(-0.218962 -0.624754 0)
(-0.214855 -0.660661 0)
(-0.210611 -0.691487 0)
(-0.20627 -0.717331 0)
(-0.201861 -0.738405 0)
(-0.197413 -0.755014 0)
(-0.192952 -0.767525 0)
(-0.188502 -0.77634 0)
(-0.184081 -0.78188 0)
(-0.179709 -0.784564 0)
(-0.175402 -0.784801 0)
(-0.171172 -0.782986 0)
(-0.167031 -0.779491 0)
(-0.16299 -0.774672 0)
(-0.159057 -0.768854 0)
(-0.155247 -0.762335 0)
(-0.238143 -0.438812 0)
(-0.234951 -0.494148 0)
(-0.231422 -0.545181 0)
(-0.227555 -0.591565 0)
(-0.223406 -0.632965 0)
(-0.21904 -0.66922 0)
(-0.214527 -0.700307 0)
(-0.209907 -0.726333 0)
(-0.205212 -0.747522 0)
(-0.200472 -0.764187 0)
(-0.195715 -0.776701 0)
(-0.190967 -0.785476 0)
(-0.186249 -0.790936 0)
(-0.181581 -0.793505 0)
(-0.176981 -0.793597 0)
(-0.172463 -0.791608 0)
(-0.168039 -0.787917 0)
(-0.163721 -0.782878 0)
(-0.15952 -0.776821 0)
(-0.155451 -0.770045 0)
(-0.243514 -0.444857 0)
(-0.240122 -0.501068 0)
(-0.236377 -0.55283 0)
(-0.232271 -0.599812 0)
(-0.227861 -0.641694 0)
(-0.223219 -0.678326 0)
(-0.218417 -0.709695 0)
(-0.213497 -0.735922 0)
(-0.208493 -0.75724 0)
(-0.203439 -0.773969 0)
(-0.198364 -0.786493 0)
(-0.193296 -0.79523 0)
(-0.188258 -0.800608 0)
(-0.183272 -0.803058 0)
(-0.178356 -0.802996 0)
(-0.173528 -0.800824 0)
(-0.168801 -0.796922 0)
(-0.164187 -0.791648 0)
(-0.159698 -0.785334 0)
(-0.155352 -0.778282 0)
(-0.248977 -0.451274 0)
(-0.245366 -0.508417 0)
(-0.241385 -0.560956 0)
(-0.23702 -0.60858 0)
(-0.23233 -0.65098 0)
(-0.227391 -0.688018 0)
(-0.222277 -0.719695 0)
(-0.217034 -0.746143 0)
(-0.211699 -0.767603 0)
(-0.206306 -0.784408 0)
(-0.200889 -0.796948 0)
(-0.195477 -0.805647 0)
(-0.190094 -0.810943 0)
(-0.184765 -0.813268 0)
(-0.179511 -0.813045 0)
(-0.17435 -0.810678 0)
(-0.169296 -0.806551 0)
(-0.164363 -0.801025 0)
(-0.159565 -0.794434 0)
(-0.154921 -0.787084 0)
(-0.254519 -0.45809 0)
(-0.250674 -0.516225 0)
(-0.246444 -0.569595 0)
(-0.241802 -0.617907 0)
(-0.236812 -0.660863 0)
(-0.231553 -0.698341 0)
(-0.226104 -0.730353 0)
(-0.220513 -0.757042 0)
(-0.214821 -0.778662 0)
(-0.209065 -0.795553 0)
(-0.203278 -0.808115 0)
(-0.197495 -0.81678 0)
(-0.191741 -0.821991 0)
(-0.186043 -0.824186 0)
(-0.180424 -0.823792 0)
(-0.174903 -0.821217 0)
(-0.169498 -0.816849 0)
(-0.164223 -0.811053 0)
(-0.159093 -0.804164 0)
(-0.154129 -0.796491 0)
(-0.260169 -0.465336 0)
(-0.25607 -0.52453 0)
(-0.251567 -0.578786 0)
(-0.246625 -0.627835 0)
(-0.24131 -0.67139 0)
(-0.235706 -0.709343 0)
(-0.229896 -0.741719 0)
(-0.22393 -0.768673 0)
(-0.217853 -0.79047 0)
(-0.211704 -0.80746 0)
(-0.20552 -0.820052 0)
(-0.199336 -0.828685 0)
(-0.193182 -0.833808 0)
(-0.187086 -0.835867 0)
(-0.181073 -0.835292 0)
(-0.175165 -0.832496 0)
(-0.169381 -0.82787 0)
(-0.163737 -0.821782 0)
(-0.15825 -0.814573 0)
(-0.152941 -0.80655 0)
(-0.265916 -0.473046 0)
(-0.261546 -0.533368 0)
(-0.256753 -0.588573 0)
(-0.251488 -0.638412 0)
(-0.245824 -0.682612 0)
(-0.239848 -0.721078 0)
(-0.233648 -0.75385 0)
(-0.227279 -0.781094 0)
(-0.220785 -0.803086 0)
(-0.214212 -0.820189 0)
(-0.207598 -0.832818 0)
(-0.200982 -0.841422 0)
(-0.194396 -0.846456 0)
(-0.18787 -0.848372 0)
(-0.181432 -0.847605 0)
(-0.175107 -0.844572 0)
(-0.168913 -0.839669 0)
(-0.162872 -0.833267 0)
(-0.156999 -0.82571 0)
(-0.151321 -0.817309 0)
(-0.271787 -0.481256 0)
(-0.267121 -0.542784 0)
(-0.262012 -0.599003 0)
(-0.256399 -0.649689 0)
(-0.250357 -0.694583 0)
(-0.243979 -0.733605 0)
(-0.237358 -0.766806 0)
(-0.230552 -0.794368 0)
(-0.223609 -0.816577 0)
(-0.216577 -0.833806 0)
(-0.209499 -0.846481 0)
(-0.202415 -0.855059 0)
(-0.195362 -0.860002 0)
(-0.188372 -0.861767 0)
(-0.181475 -0.860795 0)
(-0.174697 -0.857509 0)
(-0.168063 -0.852308 0)
(-0.161592 -0.845567 0)
(-0.155304 -0.837633 0)
(-0.149226 -0.828822 0)
(-0.277773 -0.490003 0)
(-0.272793 -0.552819 0)
(-0.267346 -0.610125 0)
(-0.261357 -0.661721 0)
(-0.254907 -0.707362 0)
(-0.248096 -0.746985 0)
(-0.24102 -0.780655 0)
(-0.233742 -0.808564 0)
(-0.226313 -0.831012 0)
(-0.218785 -0.848384 0)
(-0.211204 -0.861115 0)
(-0.203614 -0.869669 0)
(-0.196055 -0.874517 0)
(-0.188562 -0.876124 0)
(-0.181167 -0.874934 0)
(-0.173902 -0.871377 0)
(-0.16679 -0.865854 0)
(-0.159855 -0.858746 0)
(-0.153119 -0.850405 0)
(-0.14661 -0.841148 0)
(-0.283909 -0.499332 0)
(-0.278586 -0.563526 0)
(-0.272769 -0.621996 0)
(-0.266371 -0.67457 0)
(-0.25948 -0.721018 0)
(-0.252199 -0.761291 0)
(-0.24463 -0.795469 0)
(-0.236839 -0.823758 0)
(-0.228884 -0.846471 0)
(-0.220818 -0.864003 0)
(-0.212692 -0.876799 0)
(-0.204555 -0.885334 0)
(-0.196447 -0.890085 0)
(-0.188409 -0.891523 0)
(-0.180476 -0.890101 0)
(-0.172681 -0.886252 0)
(-0.165052 -0.880382 0)
(-0.157616 -0.872877 0)
(-0.150394 -0.864093 0)
(-0.14342 -0.854349 0)
(-0.290182 -0.50929 0)
(-0.284492 -0.574959 0)
(-0.278278 -0.634679 0)
(-0.271441 -0.688304 0)
(-0.264072 -0.735621 0)
(-0.256283 -0.776598 0)
(-0.24818 -0.811329 0)
(-0.239835 -0.840035 0)
(-0.231308 -0.863039 0)
(-0.222659 -0.88075 0)
(-0.213942 -0.893623 0)