/*--------------------------------*- C++ -*----------------------------------*\
  =========                 |
  \\      /  F ield         | OpenFOAM: The Open Source CFD Toolbox
   \\    /   O peration     | Website:  https://openfoam.org
    \\  /    A nd           | Version:  6
     \\/     M anipulation  |
\*---------------------------------------------------------------------------*/
FoamFile
{
    version     2.0;
    format      ascii;
    class       volScalarField;
    location    "21";
    object      epsilon;
}
// * * * * * * * * * * * * * * * * * * * * * * * * * * * * * * * * * * * * * //

dimensions      [0 2 -3 0 0 0 0];

internalField   nonuniform List<scalar> 
130000
(
14.5795
14.3455
14.1014
13.8526
13.5994
13.3431
13.0859
12.8308
12.5808
12.3392
12.1089
11.8928
11.6931
11.5115
11.3492
11.2068
11.0846
10.9822
10.8991
10.8346
14.6036
14.3701
14.1262
13.8772
13.6233
13.366
13.1077
12.8512
12.5999
12.357
12.1256
11.9085
11.7079
11.5256
11.3628
11.2201
11.0977
10.9952
10.9121
10.8477
14.6247
14.3918
14.1481
13.8988
13.6442
13.3858
13.1262
12.8684
12.6155
12.3711
12.1381
11.9193
11.7173
11.5338
11.3701
11.2267
11.1039
11.0014
10.9186
10.8546
14.6421
14.4093
14.1655
13.9158
13.6604
13.4008
13.1397
12.8799
12.6252
12.3787
12.1436
11.9233
11.72
11.5356
11.3711
11.2273
11.1042
11.0018
10.9193
10.8559
14.6544
14.4215
14.1773
13.9268
13.67
13.4088
13.1456
12.884
12.6276
12.3797
12.1434
11.9221
11.7182
11.5332
11.3683
11.2243
11.1013
10.9989
10.9167
10.8537
14.6622
14.4285
14.1833
13.9312
13.6728
13.41
13.1453
12.8826
12.6253
12.3769
12.1404
11.919
11.7148
11.5297
11.3649
11.221
11.0982
10.9961
10.9142
10.8515
14.6666
14.4315
14.1847
13.9308
13.6712
13.4074
13.1422
12.8789
12.621
12.3722
12.1355
11.914
11.7099
11.525
11.3604
11.2169
11.0944
10.9928
10.9113
10.8491
14.6692
14.4323
14.1839
13.929
13.6681
13.4033
13.1373
12.8733
12.615
12.3658
12.1291
11.9076
11.7037
11.5191
11.355
11.212
11.0901
10.9891
10.9081
10.8465
14.6713
14.4327
14.1826
13.9262
13.6641
13.3981
13.1311
12.8665
12.6077
12.3583
12.1215
11.9002
11.6966
11.5125
11.349
11.2066
11.0854
10.985
10.9048
10.8438
14.6735
14.4331
14.1812
13.9232
13.6595
13.3923
13.1243
12.8589
12.5996
12.35
12.1133
11.8922
11.689
11.5054
11.3425
11.2009
11.0804
10.9808
10.9013
10.841
14.6759
14.4337
14.18
13.9202
13.6549
13.3864
13.1173
12.851
12.5913
12.3414
12.1047
11.8838
11.6811
11.4981
11.3359
11.195
11.0754
10.9766
10.8979
10.8384
14.6789
14.4348
14.1794
13.9176
13.6506
13.3806
13.1103
12.8432
12.5829
12.3327
12.096
11.8754
11.6731
11.4908
11.3293
11.1892
11.0704
10.9725
10.8946
10.8359
14.6824
14.4363
14.1791
13.9155
13.6467
13.3751
13.1036
12.8356
12.5747
12.3242
12.0875
11.8671
11.6653
11.4835
11.3228
11.1835
11.0655
10.9685
10.8915
10.8335
14.6866
14.4384
14.1791
13.9141
13.6435
13.3703
13.0975
12.8285
12.5669
12.3161
12.0793
11.8591
11.6577
11.4765
11.3165
11.178
11.0609
10.9646
10.8885
10.8313
14.6916
14.4415
14.1801
13.9132
13.6408
13.366
13.0919
12.8219
12.5596
12.3084
12.0715
11.8515
11.6505
11.4698
11.3105
11.1728
11.0565
10.9611
10.8857
10.8293
14.6975
14.4454
14.1819
13.9127
13.6389
13.3626
13.0871
12.816
12.5529
12.3013
12.0642
11.8443
11.6436
11.4635
11.3049
11.1679
11.0524
10.9578
10.8832
10.8274
14.7044
14.4503
14.1848
13.9137
13.6384
13.3604
13.0832
12.8109
12.5469
12.2947
12.0575
11.8376
11.6372
11.4576
11.2996
11.1634
11.0487
10.9549
10.881
10.8258
14.7125
14.4564
14.1888
13.9157
13.6385
13.359
13.0802
12.8065
12.5416
12.2889
12.0513
11.8315
11.6314
11.4522
11.2948
11.1593
11.0454
10.9524
10.8794
10.8253
14.7219
14.4637
14.1939
13.9185
13.6391
13.358
13.0778
12.803
12.5371
12.2837
12.0458
11.826
11.626
11.4473
11.2904
11.1556
11.0424
10.9503
10.8782
10.8251
14.7325
14.4722
14.2002
13.9226
13.6409
13.3579
13.0767
12.8005
12.5335
12.2793
12.041
11.821
11.6212
11.4428
11.2865
11.1522
11.0398
10.9483
10.8769
10.8243
14.7443
14.482
14.2077
13.9278
13.644
13.3591
13.0767
12.7991
12.5308
12.2758
12.0369
11.8168
11.617
11.4389
11.283
11.1493
11.0374
10.9464
10.8754
10.8229
14.7574
14.493
14.2164
13.9342
13.6481
13.3612
13.0769
12.7983
12.5289
12.273
12.0336
11.8132
11.6135
11.4356
11.2801
11.1469
11.0356
10.945
10.8742
10.8216
14.7719
14.5054
14.2265
13.9419
13.6534
13.3641
13.0777
12.798
12.5278
12.271
12.031
11.8103
11.6106
11.4329
11.2779
11.1454
11.0348
10.9449
10.8745
10.8221
14.7878
14.5193
14.238
13.9508
13.6599
13.3683
13.0798
12.7982
12.5273
12.2699
12.0293
11.8082
11.6084
11.4309
11.2762
11.1442
11.0342
10.9449
10.8746
10.8224
14.8051
14.5345
14.2508
13.9612
13.6677
13.3737
13.083
12.7996
12.5273
12.2696
12.0285
11.8069
11.6069
11.4294
11.2749
11.143
11.0333
10.9448
10.8749
10.8234
14.8238
14.5512
14.2652
13.9729
13.6768
13.3804
13.0874
12.8021
12.5282
12.2695
12.0278
11.806
11.6061
11.4289
11.2745
11.1428
11.0331
10.9449
10.8758
10.8248
14.8443
14.5696
14.2811
13.9862
13.6874
13.3883
13.093
12.8056
12.5299
12.2696
12.0276
11.8055
11.6055
11.4282
11.2739
11.1423
11.0326
10.944
10.8749
10.8243
14.8663
14.5896
14.2986
14.0009
13.6994
13.3976
13.0998
12.8102
12.5327
12.2711
12.0282
11.8055
11.6048
11.4273
11.2733
11.142
11.0326
10.9435
10.8745
10.8237
14.89
14.6113
14.3178
14.0174
13.7129
13.4083
13.1079
12.816
12.5365
12.2731
12.0288
11.8058
11.605
11.4276
11.2737
11.1422
11.0325
10.9436
10.8746
10.8235
14.9154
14.6348
14.3388
14.0355
13.7281
13.4206
13.1174
12.823
12.5414
12.2762
12.0303
11.8061
11.605
11.4272
11.2727
11.1411
11.0314
10.9424
10.8738
10.8232
14.9428
14.6604
14.3619
14.0557
13.7452
13.4346
13.1285
12.8315
12.5475
12.2804
12.0329
11.8072
11.6049
11.4265
11.2719
11.1404
11.0309
10.9424
10.8733
10.8226
14.9723
14.6881
14.3871
14.0779
13.7643
13.4505
13.1414
12.8416
12.5552
12.2859
12.0367
11.8096
11.6062
11.427
11.2721
11.1404
11.0312
10.9434
10.8748
10.8245
15.0042
14.7183
14.4148
14.1026
13.7857
13.4686
13.1564
12.8536
12.5646
12.2931
12.0419
11.8133
11.6085
11.4282
11.2723
11.1402
11.0312
10.944
10.876
10.826
15.0386
14.7512
14.4452
14.13
13.8097
13.4893
13.1737
12.8679
12.5762
12.3022
12.049
11.8186
11.6124
11.4309
11.2741
11.1414
11.0317
10.9439
10.8757
10.8257
15.0759
14.787
14.4787
14.1604
13.8367
13.5127
13.1938
12.8848
12.5902
12.3137
12.0583
11.8261
11.6184
11.4356
11.2778
11.1441
11.0337
10.9449
10.8763
10.8263
15.1163
14.8262
14.5155
14.1941
13.867
13.5394
13.2169
12.9046
12.607
12.3279
12.0703
11.8362
11.6269
11.4429
11.284
11.1496
11.0384
10.9491
10.8801
10.8296
15.1603
14.8691
14.5561
14.2316
13.9009
13.5696
13.2435
12.9277
12.627
12.3452
12.0852
11.8491
11.6382
11.4529
11.2929
11.1576
11.0457
10.9558
10.8862
10.8353
15.2081
14.9161
14.6009
14.2733
13.9389
13.6037
13.2738
12.9545
12.6505
12.3658
12.1033
11.8651
11.6525
11.4657
11.3046
11.1684
11.0557
10.9651
10.8949
10.8433
15.2602
14.9676
14.6503
14.3195
13.9814
13.6423
13.3084
12.9852
12.6778
12.39
12.1249
11.8845
11.67
11.4817
11.3193
11.182
11.0684
10.977
10.9061
10.8538
15.317
15.0241
14.7048
14.3709
14.0289
13.6857
13.3476
13.0206
12.7095
12.4185
12.1505
11.9077
11.6911
11.5012
11.3374
11.1989
11.0843
10.9919
10.9201
10.8669
15.3791
15.0861
14.765
14.428
14.0821
13.7346
13.3922
13.0609
12.746
12.4515
12.1806
11.9351
11.7163
11.5245
11.3592
11.2193
11.1035
11.0101
10.9373
10.8831
15.447
15.1544
14.8316
14.4914
14.1416
13.7896
13.4427
13.107
12.788
12.4898
12.2156
11.9673
11.7462
11.5523
11.3851
11.2438
11.1266
11.032
10.958
10.9027
15.5213
15.2296
14.9053
14.562
14.2081
13.8515
13.4999
13.1596
12.8363
12.5341
12.2564
12.0051
11.7812
11.5851
11.416
11.2729
11.1542
11.0582
10.9828
10.9261
15.6029
15.3124
14.987
14.6407
14.2826
13.9213
13.5646
13.2195
12.8916
12.5852
12.3037
12.049
11.8223
11.6237
11.4524
11.3074
11.187
11.0893
11.0124
10.9541
15.6925
15.404
15.0777
14.7285
14.3662
13.9999
13.6381
13.2878
12.955
12.6441
12.3585
12.1003
11.8704
11.669
11.4953
11.3481
11.2257
11.1262
11.0474
10.9873
15.7911
15.5053
15.1786
14.8266
14.4601
14.0887
13.7215
13.3658
13.0277
12.712
12.4221
12.16
11.9267
11.7222
11.5458
11.3962
11.2715
11.1698
11.0889
11.0267
15.9
15.6178
15.2911
14.9366
14.5658
14.1892
13.8163
13.4549
13.1113
12.7905
12.4959
12.2295
11.9924
11.7846
11.6052
11.4528
11.3256
11.2214
11.1381
11.0734
16.0205
15.7429
15.4168
15.0601
14.6851
14.3033
13.9245
13.557
13.2077
12.8813
12.5816
12.3107
12.0695
11.8579
11.6752
11.5196
11.3895
11.2825
11.1963
11.1287
16.1543
15.8826
15.5579
15.1993
14.8203
14.433
14.0482
13.6745
13.3189
12.9868
12.6816
12.4057
12.16
11.9444
11.7578
11.5988
11.4653
11.3549
11.2655
11.1944
16.3032
16.0388
15.7166
15.3567
14.9739
14.5813
14.1902
13.81
13.448
13.1096
12.7987
12.5174
12.2668
12.0466
11.8558
11.6928
11.5554
11.4412
11.3479
11.2728
16.4694
16.2144
15.8959
15.5354
15.1492
14.7514
14.3541
13.9671
13.5984
13.2534
12.9363
12.6492
12.3932
12.168
11.9725
11.8049
11.6631
11.5445
11.4465
11.3667
16.6557
16.4124
16.0993
15.7394
15.3503
14.9476
14.5441
14.1504
13.7746
13.4228
13.0991
12.8059
12.544
12.3132
12.1123
11.9396
11.7926
11.6687
11.5652
11.4796
16.8652
16.6367
16.3312
15.9733
15.5825
15.1754
14.766
14.3656
13.9828
13.6239
13.2933
12.9934
12.7251
12.4881
12.2813
12.1025
11.9494
11.8192
11.7092
11.6165
17.1021
16.8924
16.5974
16.2437
15.8525
15.442
15.0274
14.6205
14.2308
13.8647
13.527
13.22
12.9448
12.701
12.4873
12.3015
12.1412
12.0034
11.8852
11.7838
17.3716
17.1857
16.9053
16.5586
16.1693
15.757
15.3382
14.9257
14.5295
14.1565
13.8115
13.4972
13.2145
12.9631
12.7416
12.5476
12.3785
12.2313
12.103
11.9905
17.6798
17.5248
17.2644
16.9292
16.545
16.1335
15.7125
15.2958
14.8941
14.5147
14.1628
13.8411
13.5505
13.2906
13.06
12.8561
12.6763
12.5173
12.376
12.2493
18.035
17.9206
17.688
17.3703
16.9963
16.5896
16.1696
15.7514
15.3461
14.9618
14.6038
14.2749
13.9762
13.707
13.4657
13.2498
13.0564
12.8822
12.7239
12.5783
18.4487
18.3878
18.194
17.903
17.5466
17.151
16.7374
16.3219
15.9167
15.5302
15.168
14.833
14.5261
14.2468
13.9931
13.7624
13.5515
13.3572
13.1759
13.0046
18.9364
18.9468
18.8074
18.5563
18.229
17.8544
17.4556
17.0502
16.6512
16.2675
15.9048
15.5661
15.2522
14.9621
14.6938
14.4444
14.2107
13.9891
13.7762
13.5688
19.5216
19.624
19.5627
19.3714
19.0905
18.7522
18.3819
17.9986
17.6163
17.2441
16.8879
16.5504
16.2321
15.9315
15.6463
15.3732
15.1088
14.8495
14.5919
14.333
20.2344
20.4624
20.5097
20.4066
20.198
19.9196
19.5993
19.2575
18.9091
18.5635
18.2261
17.8991
17.5822
17.2733
16.9692
16.6661
16.3603
16.0481
15.7264
15.3926
21.1121
21.5213
21.7136
21.7426
21.6456
21.463
21.2258
20.9562
20.6696
20.3751
20.0776
19.7777
19.4738
19.1624
18.8391
18.4989
18.1375
17.7512
17.3372
16.8936
22.2068
22.8762
23.2808
23.4896
23.5631
23.5299
23.4254
23.2742
23.0925
22.8881
22.6642
22.4194
22.1497
21.8487
21.5098
21.1262
20.6922
20.2036
19.658
19.0548
23.5941
24.6215
25.3478
25.8233
26.1245
26.3193
26.4161
26.449
26.4356
26.3785
26.2788
26.1325
25.9314
25.6649
25.3223
24.8934
24.3699
23.7462
23.0194
22.1903
25.3728
26.8967
28.0671
28.9397
29.5952
30.0916
30.468
30.7668
31.0152
31.1795
31.2694
31.2816
31.199
31.0053
30.6838
30.2184
29.5962
28.8076
27.8474
26.7159
27.6672
29.8715
31.6544
33.0718
34.2167
35.1598
35.9518
36.6254
37.1896
37.6414
37.9791
38.2283
38.3228
38.2529
37.9918
37.5155
36.8036
35.8388
34.6093
33.1093
30.6333
33.7521
36.3559
38.4978
40.2878
41.8104
43.1256
44.2688
45.2553
46.086
46.7538
47.242
47.5503
47.6638
47.5101
47.0642
46.2972
45.1799
43.6868
41.7969
34.46
38.7768
42.441
45.5009
48.0906
50.3143
52.2458
53.9314
55.3954
56.644
57.6723
58.4641
59.0024
59.2848
59.2782
58.9053
58.136
56.926
55.2292
52.998
39.3693
45.2045
50.1786
54.3374
57.8514
60.8573
63.454
65.7065
67.6531
69.3127
70.6897
71.7755
72.5556
73.0164
73.1494
72.8747
72.1548
70.9264
69.1193
66.6517
45.6096
53.2977
59.8112
65.2081
69.7195
73.5344
76.7918
79.5872
81.9828
84.0155
85.703
87.049
88.0467
88.6815
88.9365
88.7667
88.1369
86.9546
85.124
82.5319
53.4458
63.3021
71.5346
78.2502
83.7769
88.3813
92.2597
95.5501
98.3452
100.704
102.661
104.233
105.421
106.213
106.585
106.517
105.994
104.896
103.097
100.459
63.139
75.4257
85.4898
93.548
100.069
105.421
109.872
113.609
116.76
119.409
121.607
123.384
124.746
125.686
126.178
126.207
125.788
124.795
123.055
120.41
74.9274
89.8292
101.773
111.159
118.636
124.694
129.678
133.827
137.306
140.222
142.645
144.615
146.15
147.245
147.88
148.015
147.666
146.785
145.123
142.493
89.0045
106.624
120.447
131.13
139.528
146.257
151.744
156.281
160.066
163.233
165.869
168.028
169.732
170.983
171.757
172.009
171.762
170.999
169.433
166.842
105.51
125.879
141.555
153.499
162.784
170.154
176.116
181.012
185.077
188.472
191.303
193.638
195.508
196.918
197.841
198.225
198.091
197.463
196.037
193.534
124.527
147.625
165.111
178.274
188.404
196.37
202.757
207.962
212.258
215.835
218.823
221.305
223.326
224.896
225.986
226.533
226.537
226.062
224.836
222.5
146.083
171.849
191.082
205.397
216.298
224.777
231.499
236.917
241.349
245.019
248.085
250.654
252.786
254.503
255.783
256.574
256.789
256.454
255.5
253.445
170.153
198.482
219.354
234.705
246.242
255.082
261.975
267.437
271.837
275.443
278.448
280.988
283.146
284.959
286.414
287.455
287.969
287.936
287.335
285.728
196.652
227.37
249.7
265.879
277.818
286.761
293.551
298.781
302.88
306.169
308.885
311.205
313.241
315.055
316.65
317.982
318.945
319.392
319.228
318.299
225.416
258.25
281.734
298.399
310.358
318.996
325.261
329.835
333.223
335.812
337.897
339.702
341.379
343.028
344.675
346.295
347.786
348.994
349.665
349.58
256.196
290.718
314.881
331.5
342.9
350.621
355.74
359.045
361.134
362.483
363.448
364.31
365.28
366.508
368.056
369.916
372.004
374.174
376.152
377.557
288.638
324.219
348.351
364.142
374.146
380.082
383.186
384.377
384.36
383.757
382.965
382.296
382.064
382.51
383.757
385.769
388.487
391.851
395.547
399.133
322.293
358.046
381.145
395.009
402.455
405.421
405.354
403.368
400.091
396.189
392.375
389.275
387.228
386.538
387.421
389.437
392.564
397.268
403.139
409.779
356.652
391.381
412.082
422.524
425.875
424.472
419.636
412.507
404.758
397.677
391.208
385.919
382.108
379.975
379.474
381.316
385.679
391.732
399.487
408.685
391.203
423.358
439.809
444.895
442.388
434.24
423.228
410.929
398.286
385.725
374.733
365.686
358.998
354.954
353.743
355.328
359.782
367.347
377.908
391.236
425.522
453.036
462.925
460.596
449.205
433.113
413.929
393.888
374.348
356.432
340.906
328.29
318.904
312.997
310.757
312.1
317.004
326.066
339.34
356.741
459.274
479.498
480.45
467.017
445.182
417.739
388.511
359.807
333.258
309.904
290.318
274.781
263.393
256.23
253.391
254.731
260.2
270.766
286.779
308.471
492.295
502.63
490.749
463.2
426.115
385.518
345.3
308.166
275.669
248.495
226.725
210.151
198.456
191.421
188.992
190.935
197.408
209.765
228.812
255.413
525.056
522.028
491.91
444.914
390.307
335.33
284.878
241.613
206.393
178.942
158.398
143.788
134.259
129.283
128.686
132.202
140.63
155.688
179.066
213.708
559.357
536.465
481.595
410.319
336.029
268.201
211.726
167.892
135.626
112.869
97.516
87.8274
82.5892
81.2254
83.5595
89.8298
101.649
121.236
153.674
202.176
594.568
541.805
454.359
355.297
263.963
190.882
137.606
101.552
78.3588
63.9375
55.6814
51.6566
50.776
52.5064
57.0155
65.7775
80.9691
108.038
152.476
226.306
629.875
533.31
403.381
278.917
181.755
116.431
76.4345
54.3153
42.7164
36.9057
34.2609
33.6748
34.7205
37.604
43.3034
53.6008
72.4945
108.619
177.155
307.685
655.993
493.973
318.38
183.589
101.115
59.7039
41.0278
32.2549
27.8487
25.6713
24.8662
25.1834
26.6693
29.8434
35.8093
47.1511
70.657
121.106
236.623
463.779
656.494
403.252
201.647
95.3158
52.8651
35.6392
27.6653
23.5966
21.4351
20.3809
20.1263
20.6096
22.0211
24.933
30.6812
42.6412
70.3966
144.498
328.628
676.363
597.647
262.03
109.797
56.2864
35.6659
26.516
21.992
19.5784
18.2652
17.6137
17.4605
17.8289
18.9434
21.37
26.4931
38.0342
67.7992
157.725
407.958
882.022
534.812
196.154
80.4652
42.6683
28.4305
22.1661
19.0609
17.4036
16.4913
16.02
15.8846
16.1112
16.9037
18.7432
22.8184
32.5043
59.1628
146.435
427.879
1001.66
583.627
184.435
68.6737
35.8672
24.3086
19.4573
17.1859
16.0492
15.4831
15.2217
15.1515
15.2801
15.7478
16.9096
19.7295
26.7334
46.6687
115.56
372.039
1045.03
696.764
180.215
59.3765
29.9854
20.7465
17.2963
15.872
15.2632
14.9935
14.8706
14.8318
14.8758
15.0796
15.6784
17.2853
21.5262
33.8486
78.038
269.89
950.586
714.88
138.541
43.1575
23.3065
17.9095
16.0523
15.2952
14.9685
14.8429
14.7866
14.7662
14.7807
14.8502
15.0559
15.6606
17.4243
23.0875
43.8854
140.389
602.306
273.256
64.4904
25.7204
17.396
15.4128
14.9364
14.8395
14.829
14.8105
14.7989
14.7941
14.7907
14.7917
14.7786
14.7193
14.6616
14.7817
16.6563
35.5417
223.571
10.7808
10.7431
10.6992
10.6581
10.6201
10.5856
10.5549
10.5284
10.5061
10.4885
10.4757
10.4678
10.4648
10.4666
10.4733
10.4847
10.5007
10.5213
10.5464
10.5761
10.7978
10.7596
10.7156
10.6743
10.6361
10.6014
10.5705
10.5438
10.5214
10.5036
10.4907
10.4827
10.4795
10.4811
10.4876
10.4987
10.5143
10.5344
10.5589
10.588
10.8105
10.7722
10.7281
10.6866
10.6482
10.6133
10.5823
10.5554
10.533
10.5153
10.5023
10.4945
10.4914
10.4928
10.499
10.5096
10.5245
10.5435
10.5671
10.5954
10.8211
10.7828
10.7386
10.6968
10.6581
10.6229
10.5917
10.5649
10.5429
10.5255
10.5126
10.5044
10.5006
10.5011
10.5064
10.5161
10.5298
10.5487
10.573
10.6013
10.8306
10.7924
10.7479
10.7058
10.6664
10.6305
10.5988
10.572
10.5503
10.5324
10.5187
10.5092
10.5042
10.5032
10.5076
10.5172
10.5316
10.5515
10.5764
10.6044
10.8397
10.8018
10.7572
10.7143
10.6737
10.6362
10.6034
10.5757
10.5535
10.5342
10.5193
10.5089
10.5032
10.5016
10.506
10.516
10.5318
10.5517
10.5763
10.6045
10.8454
10.8074
10.7628
10.7196
10.6785
10.6398
10.6062
10.5773
10.5541
10.534
10.5188
10.5086
10.5033
10.5027
10.507
10.5164
10.5308
10.5501
10.5749
10.6031
10.847
10.8087
10.7639
10.7206
10.6802
10.6416
10.6075
10.5778
10.5538
10.5338
10.5186
10.5084
10.5035
10.5037
10.5084
10.5179
10.5322
10.5511
10.5747
10.6025
10.8464
10.8077
10.7632
10.7201
10.6799
10.6421
10.608
10.5785
10.5536
10.5333
10.5179
10.5077
10.5028
10.5036
10.5085
10.5181
10.5326
10.5517
10.5752
10.6029
10.846
10.807
10.7629
10.7203
10.6798
10.6434
10.6107
10.5822
10.5578
10.5377
10.5221
10.5115
10.5061
10.5057
10.5102
10.5196
10.5339
10.5529
10.5764
10.6043
10.8487
10.809
10.7641
10.7223
10.6838
10.6484
10.6164
10.5882
10.5641
10.5443
10.529
10.5185
10.5132
10.5129
10.5174
10.5268
10.5409
10.5596
10.5828
10.6104
10.8537
10.8139
10.7688
10.7268
10.6879
10.6516
10.6193
10.591
10.567
10.5477
10.5331
10.5233
10.5187
10.5188
10.5236
10.5333
10.5478
10.5668
10.5902
10.6179
10.8594
10.8184
10.7717
10.7282
10.6885
10.651
10.6181
10.5894
10.566
10.5475
10.5331
10.5243
10.5202
10.5204
10.5255
10.5355
10.5503
10.5697
10.5935
10.6215
10.8624
10.8202
10.7717
10.7274
10.6874
10.6501
10.616
10.5875
10.5647
10.5469
10.5325
10.5238
10.5189
10.5188
10.5238
10.534
10.5489
10.5685
10.5924
10.6204
10.8616
10.8199
10.7721
10.7279
10.6871
10.6499
10.6168
10.5883
10.5649
10.5475
10.5337
10.5241
10.5185
10.5184
10.5237
10.5341
10.5492
10.5689
10.5928
10.6209
10.8623
10.8214
10.775
10.7313
10.6906
10.6534
10.6204
10.5918
10.5681
10.5497
10.5361
10.5271
10.5229
10.5234
10.529
10.5396
10.555
10.5749
10.5992
10.6274
10.8648
10.8232
10.7765
10.7325
10.6917
10.6547
10.6218
10.5936
10.5697
10.5504
10.5372
10.529
10.5253
10.5273
10.534
10.5451
10.5606
10.5803
10.6039
10.631
10.8645
10.8229
10.7763
10.7323
10.6915
10.6545
10.6213
10.5926
10.5681
10.5484
10.5358
10.5278
10.5246
10.5285
10.536
10.5473
10.5621
10.5812
10.6041
10.6308
10.8651
10.8241
10.7771
10.7328
10.692
10.6548
10.6213
10.5914
10.5672
10.5483
10.5349
10.5271
10.5247
10.5281
10.536
10.5474
10.5623
10.5815
10.6047
10.6316
10.8686
10.8262
10.7785
10.734
10.6929
10.6557
10.6227
10.5941
10.5703
10.5516
10.5381
10.5299
10.5268
10.5288
10.5364
10.5478
10.5632
10.5825
10.6058
10.6327
10.8752
10.8323
10.7843
10.7396
10.6984
10.6613
10.6283
10.5999
10.5763
10.5578
10.5443
10.536
10.5325
10.5335
10.5394
10.5499
10.5649
10.5842
10.6077
10.6356
10.8832
10.8398
10.7914
10.7463
10.7049
10.6676
10.6347
10.6064
10.5831
10.5649
10.5518
10.5437
10.5402
10.541
10.5463
10.5562
10.5706
10.5893
10.6123
10.6397
10.8922
10.8482
10.7992
10.7535
10.7115
10.6738
10.6406
10.6122
10.589
10.5711
10.5586
10.5513
10.5484
10.5492
10.554
10.5632
10.5769
10.5951
10.6176
10.6443
10.9025
10.8578
10.8082
10.7618
10.7192
10.6807
10.6469
10.6181
10.5945
10.5763
10.5638
10.5566
10.5537
10.5545
10.5595
10.569
10.5829
10.6012
10.6236
10.65
10.9144
10.8691
10.819
10.772
10.7287
10.6896
10.6552
10.6257
10.6015
10.5828
10.5695
10.5616
10.5584
10.5595
10.5653
10.5756
10.5902
10.6089
10.6314
10.6577
10.9281
10.8825
10.8319
10.7844
10.7406
10.701
10.666
10.6361
10.6114
10.5922
10.5785
10.5702
10.5669
10.5683
10.5746
10.5854
10.6004
10.6193
10.6419
10.668
10.944
10.898
10.8471
10.7992
10.755
10.715
10.6797
10.6494
10.6245
10.6051
10.5912
10.5829
10.5796
10.5811
10.5875
10.5985
10.6136
10.6326
10.655
10.6809
10.9621
10.9159
10.8647
10.8166
10.7721
10.7318
10.6962
10.6657
10.6406
10.6211
10.6072
10.5988
10.5956
10.5971
10.6036
10.6146
10.6296
10.6484
10.6706
10.696
10.9829
10.9365
10.8852
10.8368
10.7921
10.7516
10.7157
10.685
10.6598
10.6401
10.6262
10.6178
10.6146
10.6161
10.6225
10.6334
10.6483
10.6669
10.6887
10.7135
11.0067
10.9601
10.9088
10.8603
10.8153
10.7746
10.7385
10.7077
10.6822
10.6625
10.6484
10.6401
10.6368
10.6383
10.6446
10.6553
10.67
10.6882
10.7095
10.7337
11.034
10.9874
10.9361
10.8875
10.8423
10.8014
10.7651
10.7341
10.7085
10.6886
10.6745
10.666
10.6627
10.6641
10.6703
10.6808
10.6951
10.7129
10.7336
10.7569
11.0655
11.0189
10.9677
10.9191
10.8738
10.8327
10.7962
10.765
10.7393
10.7193
10.705
10.6964
10.693
10.6942
10.7002
10.7105
10.7244
10.7416
10.7615
10.784
11.1018
11.0554
11.0044
10.9558
10.9105
10.8692
10.8326
10.8012
10.7753
10.7552
10.7408
10.7321
10.7285
10.7295
10.7353
10.7451
10.7586
10.775
10.7941
10.8154
11.1437
11.0977
11.047
10.9986
10.9533
10.9119
10.8752
10.8436
10.8176
10.7973
10.7827
10.7738
10.7701
10.7709
10.7763
10.7857
10.7985
10.8141
10.8321
10.852
11.1923
11.1468
11.0966
11.0485
11.0033
10.9619
10.9251
10.8934
10.8672
10.8467
10.832
10.8229
10.8189
10.8194
10.8243
10.8331
10.8452
10.8598
10.8765
10.8948
11.2488
11.2039
11.1545
11.1069
11.0619
11.0206
10.9837
10.9519
10.9256
10.9049
10.8899
10.8805
10.8762
10.8763
10.8807
10.8888
10.8998
10.9132
10.9284
10.9448
11.3145
11.2706
11.2223
11.1753
11.1307
11.0896
11.0527
11.0209
10.9944
10.9735
10.9582
10.9485
10.9437
10.9433
10.947
10.9541
10.964
10.9759
10.9892
11.0033
11.3912
11.3487
11.3018
11.2558
11.2118
11.171
11.1343
11.1024
11.0757
11.0546
11.039
11.0288
11.0235
11.0224
11.0252
11.0311
11.0395
11.0495
11.0605
11.0719
11.4812
11.4406
11.3957
11.351
11.3079
11.2676
11.2312
11.1993
11.1725
11.1511
11.1351
11.1242
11.1182
11.1163
11.1178
11.1222
11.1287
11.1364
11.1446
11.1526
11.5874
11.5493
11.5071
11.4643
11.4225
11.3831
11.3471
11.3154
11.2885
11.2667
11.2501
11.2385
11.2314
11.2282
11.2282
11.2307
11.2348
11.2395
11.2442
11.248
11.7136
11.6791
11.6405
11.6004
11.5606
11.5224
11.4872
11.4558
11.4288
11.4066
11.3893
11.3766
11.3681
11.3632
11.3611
11.3609
11.3618
11.3629
11.3631
11.3616
11.8652
11.8357
11.8022
11.766
11.729
11.6928
11.6588
11.6279
11.601
11.5783
11.5599
11.5457
11.5352
11.5279
11.5228
11.5191
11.5158
11.5118
11.5062
11.4981
12.0496
12.0274
12.0013
11.9708
11.938
11.9048
11.8727
11.8428
11.8159
11.7926
11.7728
11.7565
11.7432
11.7323
11.7229
11.7141
11.7049
11.6941
11.6807
11.6637
12.278
12.2664
12.2511
12.2291
12.2029
12.1743
12.1452
12.1169
12.0904
12.0661
12.0442
12.0247
12.0072
11.991
11.9753
11.9591
11.9414
11.921
11.8968
11.8676
12.5664
12.5715
12.5727
12.5637
12.5475
12.5262
12.502
12.4764
12.4504
12.4248
12.3997
12.3753
12.3512
12.3268
12.3015
12.2742
12.2439
12.2094
12.1696
12.1234
12.9441
12.9734
12.9992
13.0102
13.0098
13.0003
12.9841
12.9629
12.938
12.9102
12.8802
12.8479
12.8133
12.7761
12.7355
12.691
12.6414
12.5857
12.5228
12.4516
13.4549
13.5208
13.5831
13.625
13.6511
13.6604
13.6575
13.6438
13.621
13.59
13.5518
13.5069
13.4554
13.3973
13.3324
13.2603
13.1803
13.0915
12.9931
12.8841
14.1676
14.2945
14.421
14.5112
14.5704
14.6088
14.6293
14.6283
14.6092
14.5735
14.5224
14.4569
14.3778
14.2858
14.1813
14.0646
13.9357
13.7943
13.6399
13.472
15.1917
15.418
15.6472
15.8209
15.9443
16.0224
16.068
16.0893
16.0771
16.0348
15.9635
15.8651
15.7415
15.5944
15.4256
15.2365
15.0284
14.8022
14.5583
14.297
16.6997
17.0854
17.4782
17.784
18.0085
18.1583
18.2429
18.2835
18.2879
18.2379
18.1368
17.9876
17.7941
17.5599
17.2888
16.9842
16.6493
16.2871
15.8999
15.4896
18.951
19.5844
20.2291
20.7364
21.114
21.372
21.5215
21.5841
21.6001
21.5501
21.4075
21.1847
20.888
20.5236
20.0975
19.6159
19.0849
18.5104
17.8982
17.2531
22.3066
23.3021
24.3084
25.0988
25.6859
26.0874
26.3245
26.432
26.4587
26.4
26.2037
25.8855
25.4528
24.9128
24.2732
23.5422
22.7284
21.8415
20.8917
19.8892
27.2063
28.6775
30.141
31.2729
32.0994
32.6539
32.9734
33.1167
33.162
33.1034
32.8574
32.4425
31.8646
31.1286
30.2406
29.2063
28.0336
26.733
25.3189
23.8083
34.063
36.0559
37.9842
39.4292
40.451
41.1136
41.478
41.6292
41.6801
41.6292
41.3585
40.8848
40.2054
39.317
38.2176
36.9014
35.3649
33.608
31.6426
29.4897
43.0655
45.4742
47.7086
49.3013
50.3745
51.0332
51.3618
51.4715
51.4987
51.462
51.2141
50.7655
50.0846
49.1616
47.9868
46.5323
44.7653
42.6479
40.1729
37.3499
54.0127
56.5778
58.7958
60.2728
61.2143
61.7605
62.0218
62.1076
62.1308
62.1074
61.8723
61.4463
60.8271
59.9955
58.9263
57.5682
55.847
53.6206
50.8593
47.5369
66.393
68.9219
71.1975
72.7302
73.7061
74.2674
74.5373
74.6285
74.6407
74.6228
74.4013
73.9741
73.3379
72.4743
71.3604
69.9471
68.1831
65.9885
63.2554
59.8088
80.482
83.2436
85.71
87.3883
88.4815
89.1407
89.4995
89.6262
89.5844
89.5243
89.3628
88.9174
88.2298
87.2895
86.0808
84.5595
82.6725
80.326
77.4072
73.7605
96.961
100.116
102.942
104.885
106.165
106.958
107.415
107.577
107.574
107.544
107.386
106.909
106.161
105.127
103.788
102.092
99.9861
97.375
94.1464
90.1255
116.418
120.112
123.435
125.751
127.313
128.307
128.882
129.099
129.171
129.254
129.04
128.528
127.708
126.561
125.06
123.154
120.78
117.831
114.176
109.615
139.412
143.795
147.763
150.564
152.494
153.76
154.515
154.845
154.913
154.977
154.899
154.391
153.514
152.25
150.572
148.422
145.725
142.364
138.185
132.955
166.517
171.751
176.522
179.936
182.336
183.952
184.98
185.598
185.801
185.814
185.763
185.242
184.3
182.91
181.035
178.609
175.545
171.706
166.91
160.879
198.335
204.602
210.356
214.536
217.542
219.642
221.037
221.885
222.239
222.323
222.319
221.825
220.842
219.333
217.251
214.524
211.047
206.663
201.155
194.196
235.473
242.979
249.917
255.033
258.79
261.5
263.384
264.587
265.226
265.392
265.309
264.981
263.994
262.378
260.085
257.035
253.104
248.113
241.8
233.78
278.533
287.503
295.853
302.098
306.771
310.23
312.725
314.413
315.417
315.816
315.841
315.616
314.639
312.932
310.435
307.053
302.64
296.984
289.777
280.565
328.045
338.731
348.744
356.336
362.119
366.503
369.766
372.078
373.564
374.309
374.555
374.486
373.588
371.843
369.175
365.472
360.563
354.204
346.028
335.501
384.388
397.059
409.003
418.182
425.297
430.815
435.049
438.181
440.321
441.523
442.025
442.175
441.553
439.855
437.073
433.087
427.697
420.619
411.423
399.483
447.657
462.6
476.74
487.759
496.447
503.335
508.774
512.965
516.011
517.973
519.047
519.473
519.078
517.477
514.656
510.454
504.633
496.862
486.636
473.226
519.678
537.02
553.5
566.45
576.764
585.05
591.711
596.982
600.994
603.789
605.439
606.212
606.096
604.698
601.973
597.677
591.531
583.148
571.944
557.071
602.675
622.601
641.608
656.626
668.669
678.43
686.375
692.783
697.813
701.528
703.94
705.185
705.409
704.315
701.785
697.496
691.108
682.167
669.989
653.589
698.816
721.526
743.253
760.485
774.368
785.7
795.016
802.646
808.779
813.5
816.818
818.779
819.454
818.706
816.467
812.354
805.875
796.507
783.441
765.532
809.948
835.598
860.197
879.755
895.572
908.561
919.339
928.294
935.65
941.515
945.899
948.793
950.159
949.935
948.163
944.487
938.178
928.629
914.888
895.616
937.825
966.452
993.954
1015.85
1033.6
1048.26
1060.53
1070.88
1079.57
1086.73
1092.38
1096.47
1098.89
1099.48
1098.3
1095.4
1089.66
1080.33
1066.28
1045.97
1084.05
1115.49
1145.72
1169.78
1189.31
1205.51
1219.21
1230.94
1241.01
1249.59
1256.7
1262.28
1266.15
1268.04
1267.93
1266.04
1261.4
1252.88
1239.13
1218.34
1249.84
1283.61
1316.09
1341.84
1362.75
1380.16
1395.04
1407.99
1419.4
1429.49
1438.28
1445.7
1451.54
1455.51
1457.13
1456.45
1453.52
1446.68
1434.15
1413.81
1435.66
1470.81
1504.59
1531.19
1552.7
1570.67
1586.19
1600
1612.55
1624.1
1634.72
1644.34
1652.72
1659.52
1664.18
1666.01
1664.88
1660.71
1650.75
1632.28
1640.72
1675.67
1709.15
1735.14
1755.98
1773.42
1788.7
1802.67
1815.89
1828.69
1841.17
1853.28
1864.78
1875.27
1884.1
1890.45
1893.18
1891.94
1886.14
1871.68
1862.24
1894.54
1925.26
1948.44
1966.68
1981.92
1995.57
2008.61
2021.7
2035.24
2049.42
2064.22
2079.38
2094.51
2108.84
2121.46
2131.03
2135.89
2134.98
2127.02
2094.54
2120.63
2145.04
2162.25
2175.14
2185.83
2195.88
2206.38
2218.08
2231.5
2246.9
2264.35
2283.62
2304.29
2325.57
2346.45
2365.4
2380.6
2389.34
2389.51
2327.83
2342.9
2356.13
2363.1
2366.98
2370.06
2373.92
2379.69
2388.23
2400.19
2415.94
2435.66
2459.19
2486.17
2515.78
2546.96
2578.09
2607.21
2631.43
2646.8
2547.51
2545.17
2540.6
2531.75
2522.13
2514.1
2508.82
2507.16
2510.19
2518.81
2533.53
2554.69
2582.24
2615.93
2654.96
2698.28
2744.14
2790.74
2835.41
2873.67
2734.63
2707.4
2678.94
2648.04
2618.52
2592.17
2571.15
2557.9
2552.41
2555.52
2567.51
2588.64
2619.01
2658.69
2707.43
2764.8
2829.52
2899.17
2969.54
3037.34
2859.65
2796.03
2731.16
2672.3
2625.31
2584.22
2551.92
2529.58
2517.63
2515.69
2524.6
2544.63
2575.97
2618.93
2673.53
2739.73
2816.66
2902.61
2992.95
3093.39
2881.19
2784.77
2688.09
2599.49
2517.81
2453.26
2403.34
2367.34
2344.96
2335.08
2337.84
2354.25
2384.55
2429.51
2489.83
2566.54
2660.32
2772.24
2903.73
3037.98
2784.51
2627.46
2484.68
2362.42
2260.01
2177.43
2113.22
2065.97
2034.48
2017.64
2014.33
2025.82
2052.49
2095.71
2156.94
2238.36
2341.91
2469.59
2621.51
2795.29
2494.44
2298.29
2120.84
1974.68
1857.2
1764.73
1693.84
1641.59
1605.78
1584.92
1577.63
1584.34
1605.73