/*--------------------------------*- C++ -*----------------------------------*\
  =========                 |
  \\      /  F ield         | OpenFOAM: The Open Source CFD Toolbox
   \\    /   O peration     | Website:  https://openfoam.org
    \\  /    A nd           | Version:  6
     \\/     M anipulation  |
\*---------------------------------------------------------------------------*/
FoamFile
{
    version     2.0;
    format      ascii;
    class       volScalarField;
    location    "21";
    object      epsilon;
}
// * * * * * * * * * * * * * * * * * * * * * * * * * * * * * * * * * * * * * //

dimensions      [0 2 -3 0 0 0 0];

internalField   nonuniform List<scalar> 
10000
(
262.82
355.867
226.714
142.409
91.9725
63.4648
47.6435
38.9525
34.4206
32.5502
32.7595
35.0331
39.985
49.0655
65.1762
93.3058
141.97
224.153
351.533
263.285
262.523
355.785
226.703
141.462
91.1065
62.9517
47.5445
38.8963
34.379
32.4482
32.6457
34.8646
39.7356
48.9209
65.0467
93.0801
141.468
223.884
351.321
262.788
262.88
355.976
226.787
142.352
92.0462
63.5058
47.5642
38.8559
34.3538
32.4817
32.6818
34.9334
39.9009
48.6167
64.9706
92.8993
140.197
222.671
351.401
262.969
263.295
356.005
225.772
141.036
91.8213
63.3518
47.2782
38.6311
34.2269
32.5023
32.7176
34.9764
39.9223
48.9899
64.8841
92.2725
141.145
224.54
351.45
262.81
263.79
355.979
226.859
141.256
91.5322
63.1764
47.5025
38.7059
34.2766
32.5063
32.7085
34.9375
39.6946
48.8418
64.8251
93.1851
142.463
224.399
351.272
262.32
262.75
355.044
226.596
140.861
91.1534
62.5221
47.3937
38.7165
34.323
32.5035
32.6966
34.9141
39.7351
48.6918
64.0792
92.9064
142.161
223.969
350.259
261.572
262.444
355.478
226.338
140.943
90.287
62.9956
47.2561
38.8164
34.2776
32.4777
32.6769
34.8749
39.5867
48.628
64.1125
92.5523
141.871
223.633
350.111
261.175
261.921
355.206
226.008
141.512
91.3059
63.0684
47.5401
38.7461
34.3115
32.5203
32.6189
34.7797
39.5452
48.5278
63.8389
91.4622
140.676
223.166
349.775
261.094
261.901
354.883
225.457
139.934
92.0183
63.4023
47.4437
38.9586
34.3872
32.531
32.6698
34.8398
39.5222
48.4855
63.8736
91.8887
142.063
222.252
349.803
261.559
262.028
354.214
224.133
140.745
92.1147
63.5836
47.702
38.9995
34.4497
32.5267
32.6384
34.8202
39.5142
48.3834
63.8483
91.9929
142.214
223.371
350.317
261.237
261.923
354.942
225.354
141.488
91.525
62.9764
47.3335
38.7621
34.3323
32.4406
32.5783
34.7293
39.5904
48.0757
64.3077
92.5821
142.038
224.47
351.222
262.183
261.172
354.332
226.073
142.381
92.1803
63.2522
47.5203
38.8782
34.445
32.5198
32.6559
34.8585
39.5427
48.3379
63.7532
92.2443
140.747
224.41
351.244
262.273
261.337
354.666
224.795
141.017
91.8594
63.3067
47.6249
38.9356
34.4053
32.4709
32.7037
34.9074
39.7482
48.6668
64.2463
91.3488
141.776
224.278
351.103
263.013
261.399
354.444
225.669
141.239
91.094
63.6633
47.9366
39.1341
34.5594
32.5821
32.6841
34.7834
39.5346
48.3914
63.737
91.7221
141.501
224.171
350.094
263.398
261.834
353.539
224.571
140.97
91.2307
63.6728
47.951
39.0189
34.5446
32.6442
32.7855
34.9064
39.7319
48.7533
64.2627
92.3165
140.068
223.226
351.252
263.191
261.58
354.274
226.084
141.006
91.2596
63.3168
47.9042
39.2255
34.5916
32.5934
32.7949
35.0234
39.8996
48.6165
64.7747
91.7194
141.293
224.531
351.331
262.702
262.752
354.901
225.99
141.14
91.6805
63.8294
47.7366
39.095
34.4848
32.6534
32.7851
35.016
39.9517
48.9518
64.9073
92.6902
139.965
224.48
351.345
263.358
262.546
354.452
224.853
141.879
90.6984
63.8018
48.0921
39.3248
34.5876
32.6597
32.6941
34.8806
39.8987
48.8736
64.7654
91.9931
141.208
224.626
351.291
263.546
264.298
355.626
226.74
141.16
91.7192
63.8052
48.0961
39.3347
34.6785
32.6293
32.7585
34.9695
39.8564
48.7929
64.6768
92.2995
142.287
224.575
350.983
263.643
264.056
355.351
226.653
142.769
92.744
63.3529
47.8235
39.3004
34.6956
32.7012
32.719
34.8699
39.7751
48.6312
64.1633
92.2106
141.894
224.221
351.286
263.924
263.693
355.003
226.294
142.335
92.6747
63.8467
48.1501
39.2111
34.674
32.6705
32.7602
34.9569
39.5991
48.3529
64.5526
92.6718
140.623
222.848
351.418
263.469
262.697
354.537
226.061
141.02
92.5147
63.1591
48.0925
39.3644
34.6623
32.7462
32.8454
34.9246
39.7573
48.5876
64.381
92.4818
141.74
224.249
350.907
263.594
262.822
354.128
225.878
142.314
92.4837
63.7882
48.1087
39.3709
34.7293
32.7498
32.8507
34.9807
39.5545
48.1482
63.5723
91.2386
140.28
223.358
351.782
263.126
262.861
353.296
225.466
140.831
91.569
63.934
48.0632
39.3212
34.7
32.7265
32.8438
34.9983
39.6861
48.3665
63.9298
91.7445
140.765
224.524
351.959
263.48
263.279
353.874
224.286
141.086
92.1489
63.8282
47.6988
39.238
34.66
32.7117
32.807
34.9702
39.7882
48.5866
64.3138
92.279
140.962
224.35
351.832
263.052
264.071
353.577
225.944
140.956
91.9389
63.6678
47.6969
39.073
34.5951
32.6062
32.7043
34.8794
39.7058
48.2441
63.7429
91.4977
141.832
223.618
351.612
263.379
264.093
354.312
225.742
140.849
90.9841
63.0476
47.657
39.0694
34.5125
32.5978
32.7111
34.886
39.5819
48.5735
64.4193
92.5098
141.746
224.305
351.075
263.31
263.42
353.384
225.421
141.398
91.4031
63.3034
47.78
39.0829
34.5658
32.5857
32.7108
34.844
39.6103
48.4316
64.1726
92.1285
141.193
223.185
352.033
263.59
263.77
353.51
225.101
140.002
90.1444
62.7509
47.456
38.9783
34.4733
32.562
32.6792
34.7938
39.5112
48.007
63.4553
91.0311
139.869
223.858
351.809
262.966
263.564
353.681
224.889
141.503
91.1257
63.0798
47.7543
39.0755
34.5069
32.5797
32.6491
34.7391
39.3477
48.2265
63.9911
91.9464
141.004
223.504
350.873
262.933
262.984
352.723
224.332
141.134
91.616
63.4764
47.5261
39.1225
34.5447
32.5704
32.6242
34.693
39.2555
47.8013
63.3167
90.9614
139.706
222.095
351.589
262.657
263.04
353.62
222.863
140.588
90.6155
63.2781
47.5026
39.0994
34.5193
32.4941
32.5321
34.5789
39.1969
47.8489
63.6283
91.5652
140.414
222.19
350.825
262.371
263.004
353.53
223.98
140.116
91.0743
63.2159
47.4258
39.0358
34.4804
32.5031
32.5266
34.5492
39.1217
47.9185
63.4027
91.3132
140.14
221.866
350.892
261.989
262.75
353.181
223.512
138.621
90.6544
62.9857
47.3398
38.9883
34.3849
32.4439
32.5017
34.5217
39.055
47.7808
62.9621
90.9602
139.744
221.518
350.959
261.194
261.988
352.898
223.116
138.964
89.8192
62.7514
47.2719
38.8633
34.4394
32.4874
32.522
34.5234
39.0002
47.406
62.4269
90.5899
139.302
221.21
351.385
260.865
262.014
352.656
222.62
139.362
90.3351
62.2872
47.2426
38.9297
34.4257
32.4624
32.4957
34.485
39.0441
47.4345
62.4398
89.7047
137.939
220.684
351.162
260.131
261.682
352.377
221.95
137.822
89.3802
62.5833
47.3559
38.9003
34.3906
32.4337
32.4286
34.4735
39.0754
47.3987
62.5932
89.9588
137.83
220.293
350.852
259.489
261.4
352.007
221.325
137.943
89.5777
62.4515
47.2365
38.8005
34.3263
32.396
32.4377
34.4383
39.0271
47.413
62.0309
89.6104
137.377
220.129
350.601
259.052
261.243
351.575
220.597
136.164
89.0862
61.8287
46.8295
38.704
34.2096
32.3133
32.3998
34.368
38.8499
47.3119
62.067
88.7839
136.943
220.334
350.244
259.142
260.709
350.371
219.867
135.894
88.7313
61.942
46.8407
38.6745
34.2649
32.3416
32.3672
34.3097
38.7517
46.9913
62.1613
88.948
136.541
219.783
349.118
259.064
260.199
350.312
219.22
135.248
88.308
61.7142
46.6984
38.6
34.2274
32.3087
32.293
34.2599
38.6786
46.8496
61.8869
88.5413
135.975
218.372
349.771
258.886
259.113
349.682
218.451
134.5
87.2314
61.4162
46.6142
38.5399
34.133
32.238
32.2444
34.1566
38.4955
46.5959
61.1778
87.4223
135.426
218.055
350.031
258.184
258.424
349.624
217.772
133.935
87.2758
61.2472
46.6408
38.4198
34.099
32.2148
32.2146
34.1198
38.4532
46.5246
61.0473
87.1342
135.245
217.306
348.955
258.115
258.161
349.097
216.156
133.333
86.2064
60.9537
46.535
38.3857
34.0915
32.1931
32.1899
34.0759
38.3815
46.471
60.8057
86.9956
134.714
216.81
349.166
257.568
257.85
347.989
215.478
133.075
86.4085
60.7739
46.2233
38.3051
34.0518
32.1659
32.1587
34.0244
38.2799
46.2667
60.5409
86.1696
133.381
216.064
348.747
257.082
257.644
347.656
214.579
132.958
86.3772
60.5474
46.1549
38.318
34.0749
32.1592
32.1331
33.9689
38.1809
46.0968
60.3418
86.4138
133.344
215.76
347.646
256.789
257.194
347.091
213.206
132.189
85.8898
60.2568
46.0028
38.2601
34.0581
32.1477
32.104
33.9072
38.0718
45.8522
59.9701
85.9132
132.619
214.99
348.125
256.195
256.724
346.438
212.034
130.496
84.7243
59.5841
45.8142
38.1912
34.0276
32.1503
32.0956
33.8433
37.9374
45.5649
59.5517
84.7705
130.911
213.009
347.536
255.962
255.756
346.059
211.126
129.992
84.4585
59.3971
45.6694
38.1287
33.9937
32.1076
32.0651
33.7789
37.8431
45.4561
59.3725
84.4708
130.497
212.248
346.25
255.394
254.946
344.403
209.971
128.601
83.3701
58.8594
45.4828
37.9888
33.9108
32.0876
32.0069
33.7054
37.7079
45.2038
58.7091
83.4107
128.901
211.018
346.214
255.062
254.322
343.83
208.937
127.751
82.9182
58.6645
45.3919
37.976
33.911
32.1011
32.0322
33.6798
37.5863
44.9754
58.3694
82.8111
127.811
209.626
345.635
254.971
253.74
342.955
207.645
126.529
82.0939
58.2492
45.2081
37.8121
33.8488
32.0545
32.0201
33.6416
37.4873
44.707
57.7519
81.8022
126.782
208.456
344.383
254.528
253.177
342.122
206.442
125.333
81.2469
57.784
44.9363
37.7643
33.8551
32.0796
32.0174
33.6534
37.4168
44.5237
57.4211
81.1647
125.605
207.016
344.146
254.103
252.868
341.312
205.205
124.338
80.7207
57.4797
44.7837
37.6877
33.8258
32.0553
31.9921
33.6162
37.3391
44.3327
57.0262
80.3827
124.482
205.598
342.522
253.743
252.285
340.475
203.93
123.266
80.0111
57.0825
44.5789
37.5896
33.7473
32.0225
31.9655
33.5676
37.2291
44.1317
56.6508
79.752
123.289
204.317
341.673
253.09
251.873
339.706
202.76
122.304
79.3595
56.6621
44.3462
37.4855
33.7074
31.9754
31.8901
33.4724
37.113
43.9267
56.2848
79.0927
122.304
203.006
340.597
252.434
251.087
338.72
201.476
121.157
78.6052
56.2583
44.1472
37.3709
33.6231
31.9031
31.8413
33.4059
36.9969
43.7077
55.8589
78.3524
121.049
201.639
339.557
252.122
250.578
337.413
200.076
120.063
77.9596
55.9077
43.9427
37.2325
33.5445
31.8396
31.7511
33.2885
36.8461
43.4703
55.4434
77.6193
119.873
200.158
338.521
251.336
250.015
336.245
198.238
118.794
77.209
55.4684
43.6952
37.0886
33.4333
31.7639
31.6818
33.2025
36.7186
43.2472
55.0355
76.8784
118.643
198.627
337.478
250.648
249.359
335.241
196.765
117.589
76.4324
55.0267
43.4447
36.9197
33.3214
31.6842
31.6106
33.1122
36.5709
42.9907
54.5746
76.059
117.328
196.851
335.96
249.936
248.812
333.792
194.954
116.216
75.5919
54.5449
43.1602
36.7543
33.21
31.589
31.5221
33.0114
36.4305
42.7532
54.1405
75.2846
116.083
195.124
334.593
249.377
248.089
332.657
193.095
114.783
74.7289
54.0391
42.8539
36.5645
33.0854
31.4925
31.4295
32.9017
36.2649
42.4708
53.6449
74.4404
114.686
193.364
333.281
248.339
247.224
331.126
191.29
113.369
73.9002
53.5638
42.5667
36.3798
32.9462
31.372
31.3163
32.7739
36.097
42.2027
53.1668
73.5859
113.28
191.434
331.725
247.605
246.439
329.848
189.504
111.95
73.0161
53.0385
42.2365
36.1605
32.7923
31.2466
31.1921
32.6296
35.9057
41.9121
52.6781
72.718
111.805
189.493
330.135
246.358
245.238
328.513
187.462
110.364
72.0462
52.4807
41.9032
35.94
32.6262
31.1045
31.0533
32.4751
35.7029
41.5999
52.1421
71.7731
110.225
187.316
328.504
245.246
244.113
327.12
185.465
108.831
71.0944
51.9181
41.547
35.6967
32.4445
30.9503
30.9026
32.3067
35.4857
41.2865
51.6324
70.8401
108.587
185.09
326.651
243.64
242.898
325.582
183.077
106.988
69.9666
51.2604
41.1505
35.4327
32.2473
30.7847
30.7408
32.1211
35.2395
40.9196
51.0469
69.8311
106.854
182.757
324.803
242.59
241.301
323.709
180.653
105.205
68.8705
50.6125
40.7468
35.1589
32.0386
30.6017
30.5593
31.9184
34.9821
40.5468
50.4391
68.7647
105.001
180.187
322.653
240.901
239.372
321.487
177.908
103.199
67.6744
49.9034
40.3056
34.8475
31.793
30.39
30.3539
31.6903
34.6907
40.1294
49.7738
67.6024
103.081
177.527
320.522
239.38
237.207
318.992
174.95
101.154
66.483
49.1913
39.8305
34.5031
31.5236
30.1559
30.1259
31.4402
34.3798
39.6853
49.0495
66.3479
100.966
174.473
317.761
237.154
234.512
315.976
171.422
98.8514
65.1481
48.4042
39.3135
34.1244
31.2168
29.8824
29.8567
31.1442
34.0144
39.1803
48.2642
65.0185
98.7304
171.187
314.837
235.171
231.527
312.399
167.476
96.3534
63.7438
47.5472
38.7422
33.6942
30.8593
29.5614
29.5414
30.8046
33.6112
38.6341
47.4151
63.6057
96.2967
167.372
311.079
232.183
227.797
307.79
163.011
93.555
62.1735
46.6053
38.1044
33.2116
30.451
29.1857
29.1683
30.4008
33.1318
38.003
46.4902
62.0896
93.5863
162.925
306.473
228.517
223.396
302.134
158.063
90.5356
60.4651
45.559
37.3774
32.6442
29.9739
28.7472
28.7317
29.9329
32.5901
37.3097
45.4761
60.3987
90.5597
157.904
300.793
224.014
218.317
295.251
152.525
87.2631
58.636
44.4402
36.5898
32.0281
29.4373
28.2474
28.2352
29.4011
31.9717
36.5194
44.3475
58.5566
87.2583
152.31
293.775
218.607
212.499
287.091
146.528
83.866
56.6591
43.1772
35.698
31.3197
28.8252
27.6727
27.6592
28.7892
31.2758
35.6531
43.1413
56.6313
83.7738
146.16
285.391
212.257
206.226
277.613
140.052
80.29
54.6328
41.885
34.7643
30.5543
28.1414
27.0293
27.0204
28.1168
30.517
34.7174
41.8317
54.5503
80.1354
139.504
275.746
205.56
199.307
266.81
133.234
76.6397
52.528
40.4952
33.7249
29.7003
27.3811
26.3084
26.3027
27.3638
29.6805
33.7144
40.4936
52.4835
76.4223
132.524
264.768
198.035
192.818
255.096
126.304
73.0032
50.4322
39.1031
32.6494
28.779
26.5468
25.5202
25.5234
26.5556
28.7947
32.6703
39.1251
50.4078
72.7563
125.534
253.09
191.441
186.743
242.544
119.362
69.4325
48.3463
37.6465
31.4939
27.7911
25.6504
24.6645
24.6717
25.6736
27.8379
31.5677
37.7332
48.3959
69.2957
118.695
240.75
185.207
181.583
229.574
112.612
66.0576
46.3209
36.1898
30.3153
26.7627
24.7062
23.7629
23.7782
24.7538
26.8499
30.4473
36.3496
46.4573
66.0537
112.188
228.386
180.614
178.041
216.62
106.208
62.9098
44.3972
34.7645
29.1323
25.7165
23.738
22.8325
22.8511
23.7968
25.8249
29.3039
34.9987
44.6609
63.095
106.161
216.326
178.499
177.303
204.19
100.262
60.0193
42.592
33.3893
27.9716
24.6809
22.777
21.9077
21.9277
22.842
24.8011
28.1648
33.6691
42.9509
60.3944
100.56
204.461
177.72
177.018
192.656
95.012
57.4411
40.9159
32.0841
26.8611
23.6856
21.852
21.0154
21.0337
21.9133
23.8009
27.0458
32.3587
41.2925
57.8898
95.4923
193.386
177.674
177.782
182.495
90.3987
55.1653
39.4088
30.8907
25.8356
22.763
20.9909
20.1826
20.1978
21.0423
22.8599
25.9933
31.1341
39.7555
55.5877
90.8229
183.076
178.397
182.29
173.369
86.1417
53.1675
38.0821
29.824
24.9104
21.9278
20.2095
19.4254
19.4365
20.2457
21.9948
25.0193
29.9935
38.332
53.5061
86.549
173.928
182.68
187.295
165.233
82.5029
51.4819
36.9167
28.8667
24.0756
21.1756
19.508
18.7463
18.7533
19.5306
21.2185
24.1475
28.9808
37.0888
51.7158
82.7582
165.504
187.129
193.697
157.755
79.5549
50.094
35.9002
28.0088
23.3233
20.4987
18.8803
18.1414
18.1452
18.8922
20.5208
23.357
28.0601
35.9773
50.2121
79.7243
158.009
193.975
202.69
151.392
77.4299
48.9127
34.9522
27.1945
22.6167
19.8746
18.3105
17.5977
17.5997
18.3169
19.8873
22.6365
27.2266
35.0006
48.9786
77.4941
151.401
202.673
213.957
146.265
75.7774
47.8605
34.0451
26.4033
21.9349
19.2831
17.7812
17.0991
17.0999
17.7834
19.2886
21.9437
26.4168
34.0617
47.8778
75.8009
146.231
213.775
228.009
142.466
74.4548
46.7835
33.0678
25.5664
21.238
18.6999
17.2762
16.6338
16.6341
17.277
18.7025
21.2441
25.5814
33.1003
46.8451
74.5653
142.62
228.177
245.374
140.083
73.3846
45.6302
31.9871
24.6587
20.5071
18.112
16.7857
16.1921
16.192
16.7849
18.1108
20.5051
24.656
31.9845
45.6282
73.3871
140.065
245.02
265.69
139
72.1843
44.1586
30.6804
23.6235
19.7179
17.5103
16.3082
15.7763
15.7762
16.3078
17.5098
19.7181
23.6258
30.6902
44.1853
72.2377
139.039
266.054
289.108
138.577
70.5981
42.2925
29.126
22.4578
18.8754
16.9039
15.8547
15.3978
15.3975
15.854
16.9024
18.8733
22.4549
29.1232
42.2909
70.5972
138.572
288.899
315.287
138.524
68.2709
39.8576
27.2618
21.1493
17.9877
16.3086
15.4437
15.0747
15.0746
15.4434
16.3081
17.987
21.1494
27.2657
39.872
68.3063
138.567
315.276
343.204
138.045
64.7902
36.7506
25.0887
19.7276
17.0891
15.7556
15.103
14.8356
14.8355
15.1028
15.755
17.0879
19.7262
25.089
36.7585
64.8233
138.123
343.328
373.078
135.712
59.5134
32.7949
22.602
18.2355
16.2263
15.279
14.8598
14.7111
14.711
14.8597
15.2789
16.2255
18.2347
22.6016
32.7955
59.5138
135.688
372.818
402.274
127.902
51.2095
27.8272
19.864
16.7637
15.4753
14.9581
14.7552
14.6775
14.6775
14.7553
14.9584
15.4758
16.7652
19.866
27.8344
51.2343
128.003
402.507
432.689
107.411
38.6437
21.9395
17.0635
15.4923
14.9839
14.81
14.7303
14.7008
14.7009
14.731
14.8114
14.9857
15.493
17.062
21.935
38.6282
107.355
432.551
466.438
57.3969
21.6802
16.2892
15.2347
14.9479
14.845
14.8045
14.7968
14.7964
14.7964
14.7968
14.8048
14.8455
14.9492
15.2365
16.2903
21.6841
57.4116
466.484
733.756
1077.33
687.522
406.374
235.644
140.784
90.9341
66.018
53.5213
48.2752
48.2407
53.5406
65.6482
90.2849
137.784
228.369
397.112
679.471
1064.36
716.179
731.175
1073.9
683.443
403.262
234.024
139.919
89.2087
65.0232
52.8039
47.6721
47.6031
53.3696
65.2779
89.7141
136.647
222.151
387.413
677.022
1062.47
713.633
730.024
1071.54
680.098
400.619
232.865
139.382
91.0055
66.1758
53.5476
48.3101
48.227
53.3756
64.3624
89.2071
136.111
224.279
390.374
675.359
1056.16
712.797
722.178
1061.07
667.224
390.731
227.487
136.475
90.7362
66.115
53.4361
48.2321
48.1383
53.3889
65.2188
87.6576
133.066
225.155
391.33
668.104
1067.8
709.938
727.66
1062.16
669.449
397.24
233.372
139.277
90.4665
65.8893
52.7257
47.6511
47.4928
53.322
64.7282
87.9528
133.633
219.016
382.186
676.601
1067.06
715.535
726.251
1059.63
667.199
403.975
232.86
138.43
89.8938
65.6884
53.3074
48.2515
48.0536
53.3413
65.5486
87.958
134.024
225.076
390.785
674.71
1065.72
715.598
720.607
1062.33
671.745
403.545
227.341
137.034
88.0257
64.8192
52.6905
48.1755
47.545
53.2059
65.5995
88.6567
135.156
228.616
395.628
663.121
1062.64
714.483
725.443
1055.12
680.114
401.573
232.788
134.652
89.059
65.8247
53.3612
48.1922
48.0938
53.0178
65.4162
89.8829
137.105
223.302
387.546
669.482
1055.59
714.147
731.36
1059.23
670.702
391.637
231.635
138.049
90.4032
65.877
52.7273
47.5773
47.5317
52.2294
64.9735
89.4292
136.714
228.677
394.607
677.192
1065.47
713.632
731.333
1070.02
682.875
400.373
230.84
137.119
90.1565
65.7424
53.0679
47.9081
48.0253
52.8927
63.9827
87.5959
132.884
227.121
386.143
674.729
1063.92
713.277
731.278
1079.82
672.236
391.74
229.453
134.217
89.654
65.6094
53.4686
48.1665
47.9494
52.7434
64.3378
88.9552
134.752
225.957
393.644
665.738
1062.39
712.808
728.396
1078.17
674.728
396.953
228.436
137.281
89.4829
65.3759
53.3865
48.0338
47.7381
52.1309
64.6121
88.6567
135.982
220.154
385.096
673.005
1057.2
717.176
723.14
1076.9
676.033
389.254
222.986
136.238
88.9122
65.1335
53.2288
47.5181
47.274
52.6067
64.2934
86.685
135.469
226.546
389.716
670.469
1059.81
715.347
727.082
1068.43
683.019
398.725
229.075
135.885
88.3538
64.2069
53.1442
47.9815
47.6946
52.0807
63.9179
86.7619
132.458
224.93
393.494
661.246
1062.87
713.168
723.869
1071.55
682.037
395.561
227.428
134.792
86.5498
64.6389
53.0224
47.8698
47.2456
52.3889
63.3196
86.791
135.039
220.503
392
663.793
1060.87
706.751
721.589
1073.42
679.281
386.362
225.702
133.015
86.7606
64.4758
52.7881
47.4447
47.444
52.0528
63.8762
87.4528
134.788
224.399
385.302
666.399
1058.76
710.15
715.642
1071.09
676.838
395.583
224.598
133.982
86.6974
63.6676
52.2647
47.8325
47.0283
52.7535
64.9244
88.7099
133.927
222.709
390.261
675.039
1050.16
713.092
714.019
1068.14
672.648
392.589
222.464
133.025
87.4906
64.2042
52.4408
47.9068
47.4951
52.6202
64.6526
88.3964
130.786
219.209
394.727
674.267
1060.82
709.721
711.66
1066.55
662.191
389.91
216.21
129.829
86.07
64.7645
52.5624
47.6468
47.8962
52.0197
64.3534
88.1424
134.321
217.267
392.792
671.91
1066.76
717.629
713.244
1060.44
671.063
387.795
220.222
130.949
87.8154
64.8963
53.048
48.0602
47.9262
52.4729
63.3623
86.4007
133.817
220.019
385.975
660.382
1064.75
716.574
708.466
1065.93
663.108
379.615
214.925
129.362
87.4779
64.7276
52.9643
47.9905
47.8796
51.965
63.559
87.6119
133.271
223.555
394.424
670.488
1057.7
715.499
711.023
1060.64
668.519
386.681
220.086
129.59
87.3228
64.587
52.7548
47.8285
47.8179
52.2143
63.4325
87.2064
130.062
217.157
392.897
661.715
1062.12
708.857
714.849
1059.46
665.424
377.565
215.354
128.632
86.9425
64.3897
52.5674
47.6824
47.7643
52.6687
63.6423
86.2264
132.313
218.876
392.184
669.573
1067.68
712.327
709.86
1057.82
654.545
378.405
219.584
129.243
86.7036
64.2539
51.9672
47.0906
47.5397
52.641
64.2562
87.4395
131.021
219.476
390.473
659.065
1066.65
715.261
717.853
1058.27
657.658
377.22
218.873
130.513
85.5777
64.0986
52.6099
47.3217
47.2354
52.4257
64.0148
87.2205
133.075
223.149
389.128
666.636
1065.27
714.21
716.05
1060.23
661.633
377.526
217.623
128.101
86.4021
63.9921
52.5183
46.7533
46.9144
52.249
63.6959
86.6218
131.919
222.016
387.535
656.559
1056.5
709.112
715.05
1065.9
650.817
380.727
216.575
130.135
86.147
63.2645
52.5013
47.1773
47.0098
51.733
62.7633
84.9467
128.833
220.774
385.48
657.662
1067.54
715.812
707.707
1063.68
659.763
378.636
210.961
128.97
85.6405
63.6802
52.4587
47.5461
47.2261
52.2842
63.8726
86.7766
131.722
219.536
383.758
654.622
1066.18
715.224
708.067
1054.68
655.613
375.271
210.899
128.173
84.1368
63.398
52.3066
47.4218
46.5816
52.1093
63.6044
86.3018
130.821
217.974
381.88
653.531
1066.06
715.008
705.247
1055.62
651.659
371.773
208.813
125.828
84.8165
62.8145
52.0668
47.3827
47.0168
51.9727
63.3254
85.7371
129.896
216.377
380.145
653.95
1064.86
715.514
705.591
1052.74
641.22
363.005
207.743
125.967
83.769
63.004
51.593
46.9507
47.2842
51.4341
62.3655
84.0033
128.662
214.09
377.543
657.472
1057.45
715.293
702.585
1052.93
639.763
362.326
208.464
124.509
84.2134
62.9064
51.5805
47.035
47.2252
51.859
62.5246
84.1318
127.718
212.116
374.374
646.663
1065.88
714.776
699.335
1055.51
637.244
360.198
207.193
125.778
83.2821
62.6292
51.4795
47.1306
47.0944
51.3767
62.2103
83.677
126.55
206.626
366.818
653.09
1058.04
712.736
694.645
1052.49
638.961
361.32
205.676
124.947
83.8292
62.4713
51.6158
47.0043
46.911
51.4936
62.3135
83.8561
125.886
208.164
368.398
643.599
1060.01
711.516
696.572
1043.8
634.812
358.192
203.668
123.779
83.2536
62.1082
51.3955
46.5069
46.685
51.2525
61.959
83.2879
124.642
202.783
365.557
643.426
1061.06
704.636
695.059
1048.82
624.148
349.837
198.917
122.714
82.7349
61.7524
51.1549
46.5634
46.1976
50.9647
61.5408
82.6459
123.791
204.58
357.949
642.81
1067.08
705.854
689.83
1040.35
626.145
350.441
198.138
121.716
82.1306
60.8752
50.8778
46.3955
46.2261
50.3639
61.091
81.1362
121.075
199.843
361.404
647.125
1060.2
703.842
689.544
1049.29
628.523
350.643
195.854
120.785
81.6322
61.0887
50.3299
45.8503
46.0146
50.2395
60.3537
81.16
120.725
198.966
358.123
644.491
1068.38
702.384
686.184
1046.56
625.116
347.461
193.707
118.611
80.2937
60.2569
50.2581
45.8495
45.7785
49.8417
60.1765
80.633
119.528
196.619
354.502
639.988
1059.79
701.29
687.098
1043.6
613.678
339.429
191.397
117.888
79.9573
60.2451
49.7196
45.6012
45.2862
49.8
59.6263
80.0579
119.039
195.549
345.728
636.792
1062.11
699.485
684.524
1039.61
612.564
337.752
189.851
116.707
79.0779
59.8875
49.4771
45.1195
45.2891
49.5676
59.2858
79.4096
117.887
192.089
348.308
632.529
1060.91
692.782
684.865
1032.34
606.647
333.228
188.27
115.484
78.2805
59.1351
49.066
44.6939
44.7052
48.9161
58.7272
77.9768
115.613
190.928
339.864
627.608
1064.79
691.308
684.902
1031.18
602.745
329.432
185.944
114.385
77.7473
58.601
48.7294
44.4146
44.3779
48.5397
58.2485
77.3324
114.108
188.119
337.301
615.978
1061.92
688.263
682.81
1034.73
596.893
324.156
183.567
113.158
77.1131
58.1655
48.3751
44.0647
44.0566
48.1905
57.7901
76.6283
113
186.537
331.245
613.423
1052.38
684.446
676.362
1022.83
589.881
320.278
181.504
112.017
76.5747
57.8146
48.0321
43.7689
43.7021
47.7898
57.2759
75.8319
111.641
183.298
328.134
603.819
1055.27
680.453
672.776
1020.53
582.235
315.009
179.612
111.13
76.0633
57.4018
47.6188
43.4126
43.3212
47.3886
56.8622
75.2117
110.44
180.692
322.609
599.894
1045.02
676.944
669.377
1015.34
577.031
312.509
177.88
110.208
75.5339
57.0213
47.2792
43.1172
42.983
46.9758
56.3758
74.4108
108.829
176.738
316.477
591.812
1051.04
673.318
666.098
1011.26
571.516
309.566
176.122
109.429
75.0275
56.6161
46.9099
42.7525
42.6353
46.6187
55.9194
73.8433
107.918
174.812
313.045
589.018
1053.57
669.999
663.262
1011.67
567.073
306.21
174.178
108.404
74.4532
56.1872
46.5215
42.3063
42.2002
46.1578
55.4092
73.1282
106.52
172.359
308.224
587.673
1044.03
666.182
660.546
1000.96
561.421
301.958
171.84
107.345
73.8001
55.6982
46.1265
41.9526
41.8033
45.6978
54.8673
72.4514
105.499
170.399
304.443
581.354
1042.38
662.053
658.838
1009.09
556.871
297.94
169.596
106.18
73.1368
55.2088
45.7205
41.5196
41.3582
45.243
54.3722
71.7502
104.209
167.846
298.978
570.504
1036.4
658.628
657.188
997.353
551.02
294.083
167.533
105.332
72.6296
54.8237
45.3463
41.1524
40.9655
44.7977
53.8191
71.0007
102.965
165.279
294.987
564.924
1034.29
654.71
656.468
1004.68
546.836
290.433
165.745
104.211
71.9438
54.3042
44.8986
40.6992
40.4893
44.2738
53.2337
70.2502
101.761
162.878
289.822
556.768
1023.43
651.422
654.235
992.456
540.466
286.783
163.736
103.26
71.3693
53.8594
44.4654
40.252
40.0227
43.7793
52.6497
69.4847
100.577
160.566
285.146
549.989
1019.55
646.607
652.581
990.194
534.937
283.194
161.901
102.222
70.6745
53.3055
43.9773
39.7795
39.5464
43.2671
52.068
68.7424
99.3525
157.857
279.109
539.645
1010.89
640.419
649.743
982.87
529.094
279.163
159.862
101.084
69.9544
52.7823
43.5256
39.3509
39.1051
42.7823
51.4976
68.0175
98.2372
155.71
274.386
529.97
1002.24
634.135
646.491
975.932
522.013
275.217
157.951
100.038
69.2179
52.2139
43.0504
38.9218
38.6694
42.2955
50.9071
67.2227
96.967
153.358
270.029
523.117
993.653
627.223
644.106
967.007
515.272
271.212
156.064
98.9416
68.4675
51.6287
42.557
38.4719
38.2255
41.8031
50.3198
66.4543
95.798
151.031
264.786
513.382
984.543
621.072
639.643
959.899
508.367
267.18
153.968
97.762
67.676
51.0198
42.0593
38.0255
37.7725
41.2975
49.706
65.654
94.6163
148.972
260.518
505.035
974.94
613.431
635.484
952.299
500.685
263.237
151.996
96.6421
66.9069
50.4207
41.5612
37.577
37.3286
40.8023
49.0853
64.772
93.228
146.464
255.553
496.887
967.717
607.495
629.227
940.51
491.972
258.475
149.636
95.32
66.0491
49.7932
41.033
37.0904
36.837
40.2541
48.4116
63.8675
91.9132
144.268
250.988
487.988
959.335
601.561
623.577
930.748
484.289
254.194
147.43
94.0488
65.1863
49.1439
40.4997
36.6101
36.3583
39.7134
47.7117
62.8763
90.3958
141.607
246.08
480.189
950.864
595.746
618.805
921.589
475.523
249.334
144.914
92.579
64.2085
48.4092
39.8986
36.0791
35.8426
39.1501
47.008
61.8745
88.8467
139.01
241.127
471.85
940.267
591.837
612.936
911.628
467.44
244.612
142.322
91.0105
63.1475
47.6367
39.2932
35.5574
35.34
38.5962
46.3067
60.8935
87.3035
136.292
236.017
463.012
933.245
586.635
609.397
904.569
458.842
239.259
139.456
89.2928
61.9787
46.7896
38.6394
35.0051
34.816
38.0271
45.6006
59.8891
85.7202
133.581
230.971
454.439
923.564
582.581
603.329
896.269
450.612
233.853
136.283
87.3195
60.6791
45.8808
37.952
34.4363
34.2833
37.4494
44.8709
58.8583
84.1689
130.98
225.912
445.547
914.828
577.976
599.611
887.851
440.357
227.475
132.751
85.1916
59.2744
44.9075
37.2261
33.8341
33.7175
36.8391
44.1117
57.8076
82.6215
128.35
220.804
436.225
904.734
572.994
593.372
878.469
430.631
220.972
128.877
82.865
57.7868
43.8742
36.4542
33.195
33.1136
36.1812
43.2916
56.6586
80.8392
125.446
215.395
426.098
894.456
565.59
588.275
869.092
419.098
214.085
124.867
80.375
56.1855
42.7805
35.6348
32.5047
32.4528
35.4557
42.385
55.4094
78.9429
122.238
209.345
414.746
881.963
556.26
577.991
857.057
406.209
206.169
120.386
77.6645
54.4767
41.6314
34.7739
31.7711
31.7401
34.6723
41.4205
54.0865
76.9647
118.871
202.685
402.261
868.244
547.22
563.305
841.885
391.305
197.931
115.755
74.8505
52.6782
40.4022
33.8442
30.976
30.9624
33.8043
40.3378
52.6049
74.7063
115.021
195.536
388.545
850.648
533.044
545.262
821.895
374.322
188.584
110.603
71.8144
50.7742
39.1046
32.8664
30.1409
30.1459
32.8931
39.198
51.0239
72.2941
111.016
187.95
373.494
830.064
517.268
523.988
798.488
356.223
178.905
105.324
68.6351
48.7309
37.7138
31.8191
29.2422
29.2624
31.9003
37.937
49.2582
69.6471
106.69
179.867
357.023
805.09
497.804
501.339
769.755
335.967
168.392
99.5612
65.2735
46.6269
36.2804
30.7334
28.3079
28.3396
30.8536
36.6044
47.3787
66.773
102.096
171.497
339.545
776.528
476.021
477.91
737.088
315.13
158.041
93.7583
61.7101
44.3588
34.739
29.5758
27.3203
27.3679
29.7542
35.1937
45.3884
63.7872
97.2509
162.592
320.81
743.802
455.785
451.816
699.992
293.526
147.404
87.7983
58.0885
42.062
33.1722
28.3852
26.2952
26.3526
28.5969
33.6935
43.2444
60.5007
91.9544
153.271
301.524
707.588
435.201
428.854
659.983
272.152
136.671
81.7596
54.4101
39.6923
31.5348
27.1368
25.2227
25.2904
27.38
32.1082
40.9604
56.9576
86.2664
143.47
280.995
667.092
414.191
403.767
615.805
250.509
125.84
75.6358
50.7464
37.3143
29.8649
25.8529
24.1125
24.188
26.1135
30.4457
38.5308
53.1786
80.1655
132.985
259.666
622.887
393.866
380.946
567.799
228.654
115.02
69.3957
46.9574
34.8752
28.1599
24.5358
22.9663
23.0474
24.8057
28.7305
36.0278
49.2302
73.6014
121.668
237.198
573.659
370.825
354.738
515.178
206.257
104.455
63.4778
43.3299
32.4969
26.4751
23.2251
21.822
21.9046
23.4971
27.0233
33.535
45.2735
66.9925
110.272
214.438
521.488
347.891
331.128
461.384
184.122
93.9478
57.5713
39.7405
30.1628
24.8272
21.9425
20.6978
20.7756
22.1964
25.324
31.0636
41.3638
60.4671
98.7794
190.887
466.854
324.41
308.206
407.677
162.556
83.8235
51.9864
36.3813
27.9737
23.2729
20.7309
19.6356
19.7077
20.9651
23.7219
28.7632
37.7587
54.4004
87.893
168.827
414.151
305.009
292.299
358.952
143.305
74.7213
46.9566
33.3205
25.9693
21.8526
19.6223
18.6588
18.7197
19.8221
22.2392
26.6448
34.4931
48.9994
78.0927
148.506
365.28
293.288
286.837
316.771
126.795
66.8862
42.6509
30.7046
24.24
20.6157
18.6512
17.8004
17.8477
18.8084
20.9262
24.7802
31.6008
44.1948
69.5713
131.227
323.339
291.539
288.056
282.709
113.748
60.7611
39.1618
28.5143
22.7699
19.5585
17.8212
17.0666
17.0993
17.929
19.7707
23.1485
29.1534
40.1919
62.4488
116.571
286.532
292.184
294.581
255.867
103.234
55.9053
36.377
26.7544
21.5797
18.6989
17.1459
16.4706
16.4925
17.2171
18.8371