/*--------------------------------*- C++ -*----------------------------------*\
  =========                 |
  \\      /  F ield         | OpenFOAM: The Open Source CFD Toolbox
   \\    /   O peration     | Website:  https://openfoam.org
    \\  /    A nd           | Version:  6
     \\/     M anipulation  |
\*---------------------------------------------------------------------------*/
FoamFile
{
    version     2.0;
    format      ascii;
    class       volScalarField;
    location    "21";
    object      k;
}
// * * * * * * * * * * * * * * * * * * * * * * * * * * * * * * * * * * * * * //

dimensions      [0 2 -2 0 0 0 0];

internalField   nonuniform List<scalar> 
10000
(
0.206198
0.523883
0.474798
0.415009
0.369082
0.339997
0.32409
0.316846
0.314243
0.313895
0.314798
0.317429
0.32249
0.332101
0.349003
0.377466
0.42149
0.47798
0.523315
0.206239
0.205936
0.523694
0.474752
0.414446
0.369246
0.340318
0.324385
0.3173
0.31482
0.314461
0.31508
0.317688
0.322665
0.3324
0.349522
0.377388
0.421207
0.477798
0.522923
0.205975
0.205684
0.523414
0.474477
0.415091
0.369429
0.340841
0.324489
0.317852
0.315964
0.31571
0.314979
0.317772
0.322721
0.333096
0.348949
0.377058
0.420674
0.477316
0.522924
0.205914
0.206167
0.5245
0.475855
0.415636
0.369316
0.340357
0.324568
0.316772
0.313611
0.313563
0.314728
0.317191
0.322439
0.332076
0.348784
0.376531
0.418869
0.475484
0.522547
0.205352
0.206016
0.524138
0.474333
0.414148
0.368846
0.340534
0.325865
0.318117
0.313994
0.314004
0.315113
0.317332
0.322647
0.332357
0.349353
0.376511
0.418843
0.475774
0.522375
0.20518
0.20544
0.523366
0.474801
0.414605
0.369227
0.340461
0.325283
0.317135
0.314004
0.313886
0.316489
0.317643
0.322801
0.333412
0.349085
0.376247
0.419163
0.475707
0.521822
0.204853
0.205331
0.523296
0.475549
0.415096
0.369223
0.340525
0.324923
0.317309
0.314315
0.313717
0.315044
0.317686
0.322906
0.333095
0.349496
0.376252
0.419557
0.475624
0.521344
0.205244
0.205394
0.523049
0.475356
0.414183
0.368603
0.340682
0.3253
0.318132
0.315062
0.314182
0.316451
0.319135
0.323935
0.333003
0.349098
0.376092
0.419411
0.47526
0.521572
0.205449
0.2054
0.523475
0.47542
0.415944
0.369147
0.341206
0.326643
0.319325
0.316965
0.314102
0.314636
0.317205
0.322304
0.332197
0.348685
0.37603
0.419011
0.47468
0.521272
0.205682
0.20531
0.522925
0.475027
0.415731
0.369506
0.341516
0.326455
0.318429
0.316059
0.314113
0.314562
0.317083
0.322283
0.331518
0.348342
0.376271
0.419155
0.476805
0.522343
0.20589
0.205071
0.523333
0.473873
0.415517
0.369259
0.341819
0.326764
0.318654
0.315322
0.314388
0.315071
0.31751
0.32267
0.331681
0.348524
0.376635
0.419518
0.476962
0.52252
0.20599
0.205432
0.524389
0.473957
0.41468
0.36934
0.342085
0.326825
0.320393
0.317461
0.316798
0.317287
0.318213
0.323786
0.33246
0.34848
0.376718
0.419898
0.477317
0.523146
0.205619
0.205162
0.524541
0.475021
0.416066
0.369997
0.342226
0.326736
0.31998
0.31698
0.316567
0.317206
0.318966
0.322428
0.331594
0.348244
0.376772
0.420345
0.477346
0.523615
0.206299
0.205626
0.524564
0.476531
0.416091
0.37075
0.342644
0.326935
0.319347
0.316201
0.316406
0.317184
0.317966
0.322375
0.332082
0.348589
0.376581
0.420923
0.477466
0.522801
0.206328
0.206405
0.524488
0.476907
0.41702
0.371754
0.34368
0.328186
0.319757
0.316246
0.315479
0.317089
0.317882
0.322412
0.332182
0.348423
0.376868
0.420037
0.477181
0.522946
0.205967
0.206559
0.523629
0.476729
0.416255
0.371424
0.343978
0.327978
0.320415
0.31688
0.315637
0.317272
0.318047
0.322462
0.331493
0.348391
0.376433
0.420271
0.477268
0.52309
0.206273
0.206918
0.52476
0.477273
0.417508
0.37273
0.344587
0.328275
0.32214
0.318781
0.316057
0.316935
0.317931
0.322399
0.331494
0.348104
0.376529
0.420307
0.477255
0.522999
0.206183
0.20701
0.525284
0.477117
0.4168
0.372796
0.344554
0.328119
0.320884
0.317338
0.316474
0.315838
0.317952
0.322565
0.331741
0.348292
0.376355
0.420508
0.477449
0.523138
0.206329
0.20713
0.526177
0.477246
0.417966
0.372842
0.344354
0.328034
0.319809
0.315759
0.314614
0.315573
0.318049
0.32281
0.331902
0.348514
0.376753
0.420207
0.476674
0.523016
0.206472
0.206558
0.526088
0.478448
0.419142
0.373327
0.345063
0.328467
0.321443
0.316357
0.315132
0.317206
0.319806
0.323354
0.332254
0.349143
0.377098
0.421123
0.477761
0.523572
0.206713
0.206412
0.525031
0.478056
0.418751
0.372998
0.344701
0.32832
0.321347
0.317074
0.315442
0.316184
0.318776
0.323333
0.332482
0.349061
0.377252
0.42073
0.476567
0.522842
0.206557
0.206433
0.525233
0.478202
0.417859
0.372726
0.344454
0.328313
0.321424
0.318376
0.316163
0.316818
0.320323
0.323836
0.333097
0.349582
0.377491
0.421172
0.477501
0.523213
0.206562
0.205985
0.525204
0.478232
0.419095
0.373153
0.344161
0.328162
0.320698
0.318598
0.317907
0.318406
0.31935
0.323838
0.333342
0.349428
0.377379
0.420914
0.477513
0.523536
0.206527
0.206143
0.525213
0.478147
0.419006
0.373243
0.344364
0.328387
0.320772
0.318634
0.317649
0.318164
0.320417
0.324176
0.332724
0.349093
0.377133
0.419901
0.476233
0.523369
0.206484
0.206581
0.524966
0.477682
0.418758
0.373157
0.344811
0.328613
0.321754
0.318609
0.317204
0.31739
0.319479
0.3249
0.332744
0.34918
0.376883
0.420448
0.476904
0.522964
0.206384
0.207011
0.524998
0.477232
0.417666
0.372916
0.344121
0.328981
0.320861
0.317862
0.318756
0.318555
0.320005
0.323364
0.332601
0.349338
0.376532
0.419419
0.476678
0.5233
0.206315
0.206843
0.52497
0.47603
0.418103
0.372867
0.343972
0.327943
0.321438
0.318258
0.317707
0.316421
0.319287
0.323136
0.333081
0.349032
0.376024
0.418823
0.475407
0.523165
0.206192
0.206643
0.524476
0.475808
0.417831
0.372701
0.344258
0.327579
0.319613
0.316029
0.316474
0.315924
0.318345
0.323042
0.331823
0.348323
0.375474
0.418238
0.475083
0.522812
0.205999
0.206525
0.524208
0.475356
0.417274
0.372232
0.343563
0.32763
0.320457
0.315804
0.314999
0.31606
0.316799
0.321047
0.330544
0.347509
0.374676
0.417064
0.474136
0.522385
0.205744
0.20608
0.524063
0.475042
0.416757
0.371891
0.343367
0.327634
0.319522
0.315657
0.314076
0.314399
0.317462
0.320963
0.330481
0.346597
0.373838
0.41606
0.473524
0.522031
0.205383
0.206105
0.523825
0.474672
0.415771
0.371671
0.343386
0.327856
0.320875
0.317061
0.314636
0.31445
0.316135
0.320474
0.32922
0.345567
0.37317
0.415518
0.472923
0.521478
0.205087
0.205896
0.523184
0.47452
0.41604
0.371573
0.343456
0.328011
0.320048
0.317459
0.315098
0.315977
0.316508
0.320666
0.329258
0.345571
0.372643
0.414694
0.472022
0.52118
0.204839
0.205442
0.522612
0.473814
0.415546
0.371283
0.343413
0.328825
0.320069
0.31773
0.316338
0.315171
0.316563
0.320727
0.329352
0.34481
0.371892
0.413881
0.47136
0.520285
0.204378
0.205208
0.521971
0.472302
0.414098
0.370795
0.343475
0.327567
0.319978
0.317726
0.316054
0.316388
0.317951
0.321166
0.329745
0.345322
0.371549
0.413212
0.470728
0.519946
0.203956
0.204923
0.521499
0.471727
0.413269
0.370291
0.342671
0.327435
0.319897
0.31737
0.314849
0.314854
0.316671
0.321752
0.330666
0.344568
0.37076
0.412847
0.469581
0.519369
0.203662
0.204823
0.521297
0.470523
0.412476
0.36995
0.342775
0.327802
0.320182
0.316699
0.314596
0.314607
0.316372
0.320354
0.328889
0.344141
0.370451
0.412107
0.468694
0.51883
0.203132
0.204347
0.520496
0.469891
0.411896
0.369561
0.343333
0.328963
0.321492
0.318518
0.31481
0.314831
0.316777
0.321068
0.327677
0.342948
0.369895
0.411416
0.467882
0.518397
0.202934
0.204196
0.520235
0.469155
0.411355
0.36907
0.342341
0.327126
0.319128
0.316572
0.314219
0.314761
0.317665
0.319783
0.327366
0.342836
0.369419
0.410301
0.467066
0.518191
0.202932
0.203854
0.519611
0.468293
0.410646
0.368545
0.341593
0.326034
0.318364
0.315136
0.314158
0.31477
0.315972
0.319378
0.327161
0.343159
0.368952
0.409662
0.466592
0.518374
0.202861
0.203352
0.518882
0.467106
0.409778
0.368163
0.342261
0.326287
0.31865
0.315362
0.314434
0.316265
0.316428
0.319452
0.326915
0.341859
0.368275
0.408829
0.465864
0.518193
0.20242
0.202883
0.518353
0.466162
0.408996
0.367614
0.341623
0.326384
0.318857
0.315486
0.314382
0.314824
0.317523
0.319849
0.327051
0.341809
0.367774
0.408181
0.465017
0.517216
0.202118
0.202148
0.517288
0.465236
0.407997
0.367035
0.341238
0.327652
0.320444
0.316154
0.314857
0.314864
0.316279
0.320618
0.327295
0.342199
0.367253
0.407313
0.4642
0.516448
0.201763
0.201917
0.516816
0.464851
0.407133
0.366399
0.340324
0.327178
0.31975
0.316403
0.315186
0.315035
0.316156
0.319575
0.32775
0.341174
0.366622
0.406436
0.463493
0.515998
0.201497
0.201654
0.516371
0.46386
0.406472
0.365992
0.340273
0.327058
0.320461
0.318459
0.316179
0.315729
0.316671
0.31974
0.32679
0.341396
0.366067
0.405481
0.462523
0.515328
0.20109
0.201446
0.516052
0.462753
0.405517
0.365358
0.340287
0.328491
0.322305
0.319116
0.316964
0.316377
0.317196
0.320044
0.32668
0.340273
0.365163
0.404408
0.461393
0.514761
0.200743
0.201158
0.515378
0.461824
0.404555
0.364873
0.340262
0.327816
0.322717
0.320306
0.318369
0.318916
0.319697
0.322086
0.327151
0.340602
0.364514
0.403562
0.460221
0.514304
0.200443
0.20074
0.514829
0.460283
0.403363
0.364127
0.340458
0.329176
0.323666
0.321858
0.320414
0.319514
0.319745
0.321929
0.327159
0.339483
0.363618
0.402606
0.4593
0.513581
0.200042
0.200245
0.51407
0.459198
0.402544
0.363747
0.341288
0.329164
0.323999
0.32275
0.321217
0.320197
0.319907
0.322036
0.328473
0.340219
0.363192
0.401844
0.458334
0.512977
0.199776
0.199501
0.512752
0.457717
0.401395
0.362964
0.341434
0.329913
0.325644
0.323824
0.322209
0.320948
0.320815
0.322613
0.328439
0.33932
0.362288
0.400954
0.457424
0.512415
0.199401
0.198957
0.511791
0.456384
0.400454
0.362498
0.342016
0.331644
0.326622
0.324797
0.323861
0.323189
0.323377
0.324771
0.329128
0.339786
0.361396
0.399981
0.456265
0.511828
0.199273
0.198545
0.511064
0.455089
0.399453
0.362682
0.34222
0.332146
0.327681
0.32586
0.324918
0.324259
0.324294
0.325101
0.329182
0.339117
0.360274
0.398965
0.455319
0.511389
0.199027
0.198104
0.510192
0.453827
0.398473
0.362137
0.343695
0.334041
0.329091
0.326735
0.32639
0.326164
0.326229
0.327273
0.330155
0.340235
0.360035
0.397933
0.45404
0.510999
0.198688
0.197738
0.509404
0.452474
0.39733
0.361352
0.343778
0.334601
0.32984
0.327894
0.327461
0.327376
0.327618
0.328536
0.33182
0.340398
0.359776
0.39686
0.45282
0.510397
0.198386
0.197463
0.508852
0.451393
0.396491
0.361106
0.344348
0.335916
0.331511
0.32979
0.328928
0.328606
0.32896
0.329918
0.332562
0.340575
0.359562
0.395799
0.451526
0.509354
0.197926
0.196994
0.508066
0.450035
0.395457
0.360845
0.344743
0.337011
0.33333
0.331283
0.330454
0.330332
0.330565
0.331276
0.333759
0.340649
0.358638
0.394615
0.44998
0.508452
0.197446
0.196617
0.507291
0.448545
0.394206
0.36045
0.344832
0.33788
0.334595
0.333031
0.332366
0.332227
0.332277
0.332659
0.334459
0.340401
0.358637
0.393581
0.448621
0.5078
0.197089
0.196089
0.50639
0.447131
0.393021
0.359159
0.344465
0.338635
0.336074
0.334846
0.334156
0.333696
0.333509
0.333717
0.33521
0.340466
0.357554
0.392266
0.447149
0.507037
0.196699
0.195704
0.50553
0.445609
0.391867
0.358746
0.343549
0.33905
0.337007
0.336093
0.335593
0.33525
0.334987
0.334967
0.336215
0.341154
0.356222
0.390813
0.445275
0.505894
0.196049
0.195289
0.504867
0.444271
0.390636
0.35881
0.344206
0.339646
0.338128
0.337575
0.337228
0.3368
0.336258
0.335915
0.336665
0.340529
0.355788
0.389531
0.443654
0.504893
0.195549
0.194809
0.504069
0.442569
0.389156
0.35753
0.342397
0.339301
0.338786
0.338622
0.338461
0.338068
0.337424
0.336865
0.337289
0.34058
0.355529
0.38809
0.441988
0.503952
0.195028
0.194374
0.503281
0.440849
0.387518
0.355934
0.342066
0.338529
0.339348
0.339617
0.339588
0.33919
0.338458
0.337676
0.337745
0.340692
0.355696
0.386515
0.440176
0.503008
0.1945
0.193723
0.50213
0.438884
0.385702
0.353943
0.342484
0.340144
0.340097
0.340507
0.340634
0.340291
0.33949
0.338482
0.33809
0.340856
0.354025
0.384458
0.437839
0.50146
0.193639
0.193043
0.500804
0.436635
0.38378
0.352442
0.340288
0.338382
0.340009
0.341216
0.341663
0.341396
0.340496
0.339156
0.338027
0.339326
0.35243
0.382521
0.43575
0.500253
0.192992
0.192314
0.499506
0.434216
0.381656
0.352005
0.340117
0.336897
0.339828
0.341926
0.342679
0.342477
0.341448
0.339699
0.337644
0.338651
0.350521
0.380172
0.432931
0.498364
0.191906
0.191293
0.49772
0.43121
0.378992
0.35218
0.340749
0.336812
0.339146
0.342589
0.343699
0.343545
0.342347
0.340055
0.336228
0.336788
0.34828
0.377651
0.430044
0.496671
0.190972
0.190358
0.496057
0.427861
0.37564
0.349392
0.339169
0.336578
0.341161
0.343705
0.344783
0.344604
0.343252
0.34062
0.336154
0.336363
0.346758
0.375082
0.426758
0.494357
0.189716
0.189178
0.494092
0.424344
0.372124
0.346945
0.337932
0.336266
0.340657
0.344252
0.345715
0.345597
0.34408
0.341063
0.336245
0.336102
0.344498
0.37211
0.423497
0.492667
0.188802
0.187702
0.491579
0.420195
0.368039
0.343998
0.336339
0.336563
0.339972
0.344802
0.346578
0.346526
0.344878
0.341366
0.336595
0.336994
0.343937
0.369011
0.419609
0.490059
0.187294
0.186003
0.488744
0.416029
0.364069
0.341049
0.334375
0.334562
0.339156
0.34498
0.347201
0.347296
0.345647
0.342235
0.336632
0.335385
0.343717
0.365419
0.41553
0.48774
0.18593
0.184045
0.485574
0.411573
0.36023
0.338211
0.332337
0.334157
0.338995
0.344755
0.347421
0.347687
0.346066
0.342708
0.33794
0.334727
0.340814
0.361489
0.411109
0.484648
0.184009
0.18168
0.481887
0.406808
0.357501
0.336294
0.332713
0.335684
0.339174
0.343503
0.346659
0.347237
0.345603
0.342104
0.337003
0.332747
0.338109
0.35778
0.406698
0.481768
0.182129
0.178983
0.477588
0.401401
0.355195
0.335177
0.331125
0.334057
0.33911
0.344697
0.345833
0.345844
0.34413
0.340687
0.335998
0.332168
0.335522
0.354499
0.401859
0.47779
0.179332
0.175671
0.47228
0.394977
0.351217
0.333123
0.331759
0.334471
0.339276
0.34337
0.347098
0.347637
0.346099
0.342737
0.337816
0.332178
0.3335
0.351567
0.396376
0.473125
0.176123
0.171879
0.465983
0.388142
0.346651
0.330566
0.330375
0.334702
0.339762
0.343528
0.345512
0.345619
0.343921
0.340534
0.336032
0.332986
0.332761
0.348303
0.389994
0.467241
0.172199
0.16759
0.458711
0.380745
0.342743
0.330246
0.331233
0.33611
0.341177
0.344514
0.346429
0.346395
0.344652
0.341235
0.336451
0.331725
0.330355
0.343856
0.382767
0.460226
0.167689
0.162863
0.45045
0.373054
0.338355
0.330483
0.332313
0.338823
0.343039
0.347623
0.347797
0.347351
0.345536
0.342135
0.337311
0.332374
0.330043
0.340287
0.375415
0.452032
0.162665
0.157924
0.441472
0.365497
0.334858
0.330085
0.33486
0.341344
0.346078
0.349365
0.350806
0.350725
0.349139
0.345872
0.340831
0.333997
0.330691
0.336519
0.367541
0.442948
0.157492
0.152842
0.431654
0.358084
0.331661
0.329148
0.335883
0.342997
0.347951
0.350921
0.35208
0.351912
0.350295
0.347089
0.342117
0.335254
0.329852
0.33335
0.359794
0.432619
0.152116
0.148336
0.421922
0.351772
0.330132
0.331348
0.338686
0.344973
0.349556
0.352533
0.353726
0.353442
0.351929
0.349065
0.344572
0.338302
0.331064
0.331282
0.352852
0.422367
0.147641
0.144317
0.412068
0.346227
0.329036
0.332679
0.340276
0.346684
0.351172
0.353932
0.355353
0.355519
0.354312
0.351575
0.34709
0.340604
0.33223
0.329778
0.346754
0.41175
0.143637
0.141299
0.402354
0.341985
0.328958
0.334418
0.342125
0.348248
0.352423
0.354824
0.356063
0.356332
0.355442
0.35314
0.349192
0.343225
0.335229
0.329793
0.342242
0.401913
0.141303
0.140229
0.392869
0.338994
0.33052
0.336752
0.344174
0.349787
0.353428
0.35519
0.355968
0.356309
0.355847
0.354162
0.35069
0.345232
0.33785
0.331428
0.339309
0.392745
0.140395
0.139292
0.383722
0.337179
0.332473
0.339147
0.346071
0.35117
0.354539
0.356596
0.357584
0.357236
0.35701
0.355436
0.352214
0.347148
0.340139
0.33338
0.337516
0.383914
0.140192
0.13958
0.374898
0.335761
0.333996
0.341123
0.347755
0.352463
0.355486
0.357391
0.358484
0.358647
0.357939
0.356405
0.353482
0.348762
0.342076
0.334817
0.33617
0.375572
0.139927
0.140065
0.36728
0.33537
0.336005
0.343476
0.349706
0.353968
0.356694
0.358562
0.359337
0.3594
0.358783
0.357425
0.354817
0.350573
0.344341
0.336718
0.335045
0.367269
0.14034
0.14351
0.359159
0.334272
0.338358
0.346066
0.351846
0.355642
0.357988
0.359528
0.360202
0.360144
0.359707
0.358476
0.356154
0.352339
0.346496
0.338697
0.334696
0.359178
0.143546
0.146722
0.35148
0.334577
0.340968
0.34869
0.35398
0.357315
0.359356
0.36051
0.361029
0.361096
0.360564
0.359476
0.357591
0.354373
0.349119
0.341329
0.334577
0.351227
0.14659
0.151641
0.343792
0.335561
0.34423
0.351773
0.356412
0.359108
0.360646
0.361481
0.361837
0.361846
0.361517
0.360767
0.359265
0.356575
0.351899
0.344322
0.335656
0.343834
0.151778
0.158412
0.337565
0.337751
0.348038
0.355084
0.358987
0.361075
0.362155
0.36269
0.362871
0.362858
0.362658
0.362198
0.36115
0.359084
0.355194
0.348175
0.337878
0.337514
0.158302
0.16711
0.333909
0.341826
0.352849
0.358887
0.361816
0.363185
0.363786
0.364005
0.364039
0.36402
0.363944
0.363755
0.363172
0.361814
0.358856
0.352751
0.341694
0.33382
0.167053
0.178062
0.332458
0.34708
0.357922
0.362796
0.364722
0.365374
0.365519
0.3655
0.365461
0.365468
0.365512
0.365533
0.36538
0.364735
0.362832
0.357992
0.347185
0.332379
0.178107
0.191477
0.332997
0.354172
0.363732
0.366898
0.367605
0.367469
0.367123
0.366816
0.366643
0.366642
0.366809
0.367114
0.367453
0.367579
0.366862
0.36368
0.354137
0.333011
0.191334
0.207449
0.33927
0.362906
0.36971
0.370809
0.37024
0.369333
0.368532
0.36797
0.367684
0.367682
0.367963
0.36852
0.369319
0.370226
0.370815
0.369765
0.363042
0.339454
0.20767
0.225711
0.348855
0.372759
0.375694
0.374409
0.372509
0.370878
0.369686
0.36892
0.368546
0.368542
0.368908
0.369663
0.370849
0.372471
0.374375
0.375675
0.372756
0.348858
0.225521
0.246188
0.36451
0.383913
0.381428
0.377451
0.374263
0.372033
0.370576
0.369698
0.369286
0.369284
0.369693
0.370565
0.372018
0.374245
0.377444
0.381448
0.383986
0.36457
0.246255
0.268125
0.384942
0.395266
0.386105
0.379355
0.375285
0.372786
0.371264
0.370391
0.369992
0.369991
0.370385
0.371254
0.372772
0.375275
0.379355
0.386131
0.395316
0.385017
0.268125
0.291416
0.410855
0.404946
0.388403
0.380076
0.375718
0.373282
0.371878
0.371115
0.370782
0.370781
0.371114
0.371875
0.373273
0.375709
0.380067
0.3884
0.404957
0.410794
0.291288
0.314292
0.434767
0.409124
0.388883
0.380069
0.375784
0.373612
0.372496
0.371946
0.371724
0.371725
0.371949
0.372501
0.373611
0.375784
0.380062
0.388886
0.409131
0.434764
0.314417
0.338069
0.444961
0.406928
0.385658
0.378075
0.375048
0.373765
0.373196
0.372956
0.372872
0.372872
0.372961
0.373203
0.373772
0.375054
0.37808
0.385662
0.406935
0.444951
0.337963
0.36439
0.421582
0.386486
0.377507
0.375379
0.374625
0.374347
0.374272
0.374255
0.374252
0.374252
0.374255
0.374272
0.374347
0.374626
0.375379
0.377505
0.386481
0.421585
0.364424
0.578417
1.15112
0.991194
0.795652
0.636949
0.528827
0.467929
0.434755
0.418095
0.410822
0.410152
0.415883
0.430836
0.461488
0.5204
0.622082
0.77622
0.970129
1.13083
0.565368
0.573335
1.14833
0.987864
0.793109
0.635854
0.525708
0.46764
0.434956
0.418887
0.41178
0.411085
0.416424
0.430727
0.46001
0.517453
0.619996
0.773043
0.967049
1.12634
0.561709
0.574975
1.14543
0.980671
0.791105
0.635884
0.528836
0.468154
0.43514
0.418845
0.411602
0.410874
0.416035
0.430714
0.461038
0.520736
0.61615
0.769109
0.962999
1.13207
0.563518
0.576534
1.14864
0.990353
0.789119
0.634813
0.526812
0.468079
0.435431
0.419049
0.411584
0.411003
0.416073
0.43065
0.459552
0.520817
0.6229
0.769644
0.959771
1.13216
0.566809
0.575462
1.1412
0.982303
0.778896
0.634041
0.530023
0.468062
0.435528
0.419029
0.410982
0.41098
0.416186
0.430806
0.460625
0.519653
0.618337
0.780123
0.969008
1.12939
0.56603
0.571472
1.1449
0.991603
0.788712
0.629882
0.526498
0.466314
0.435382
0.418915
0.410809
0.410815
0.416462
0.43074
0.461319
0.517211
0.623285
0.778233
0.974712
1.12711
0.564159
0.575538
1.13953
0.991467
0.793375
0.630866
0.527566
0.467202
0.435232
0.41852
0.410655
0.410324
0.415873
0.430499
0.460425
0.519927
0.622284
0.775927
0.971874
1.12622
0.561296
0.573078
1.14556
0.987884
0.784264
0.628608
0.527587
0.466972
0.435199
0.418932
0.410615
0.410884
0.415989
0.430525
0.460956
0.516233
0.616229
0.766034
0.962214
1.12652
0.56029
0.578351
1.14997
0.976927
0.783968
0.628491
0.524577
0.467228
0.4351
0.418086
0.410358
0.409867
0.416167
0.430317
0.460638
0.517047
0.620795
0.773018
0.964649
1.12302
0.560831
0.572616
1.14764
0.978484
0.783784
0.622714
0.525793
0.46695
0.435102
0.418124
0.410364
0.408977
0.415535
0.429932
0.459427
0.516393
0.615042
0.767385
0.961572
1.13115
0.562866
0.57411
1.1467
0.979772
0.777829
0.624946
0.523183
0.46634
0.435271
0.41845
0.410413
0.408781
0.415092
0.429761
0.459714
0.517403
0.618391
0.775959
0.961903
1.13182
0.565389
0.571556
1.1438
0.972179
0.783543
0.622043
0.52295
0.465663
0.434696
0.417479
0.409674
0.40851
0.414462
0.429638
0.460178
0.514762
0.615884
0.774375
0.961581
1.13299
0.564854
0.57183
1.14178
0.978324
0.781619
0.62286
0.520221
0.465
0.434489
0.41773
0.409919
0.408479
0.414398
0.429533
0.460213
0.51701
0.608767
0.77393
0.966971
1.13228
0.560634
0.569919
1.13741
0.974379
0.771209
0.616397
0.520293
0.464583
0.434055
0.417201
0.409064
0.408301
0.414384
0.429474
0.459783
0.516744
0.612594
0.773692
0.966577
1.13231
0.562536
0.565449
1.13232
0.972478
0.771678
0.618737
0.519059
0.464009
0.433582
0.417317
0.409028
0.408357
0.41444
0.429361
0.459377
0.515936
0.615552
0.772874
0.963554
1.13035
0.564079
0.565287
1.13393
0.965076
0.76805
0.611665
0.516764
0.463226
0.432927
0.416896
0.408876
0.408419
0.414719
0.429139
0.457832
0.512249
0.610104
0.772141
0.958583
1.12877
0.562215
0.563872
1.13555
0.967454
0.767166
0.607953
0.514463
0.462354
0.432457
0.416498
0.408807
0.408759
0.414098
0.428987
0.458138
0.513849
0.616763
0.772826
0.971271
1.13573
0.568415
0.563895
1.13365
0.970417
0.769577
0.606212
0.513158
0.461478
0.431348
0.415865
0.408671
0.407879
0.414151
0.428787
0.457902
0.513128
0.614949
0.770131
0.969653
1.12981
0.567103
0.567612
1.13845
0.969471
0.767787
0.605702
0.512042
0.460679
0.431006
0.416426
0.409247
0.407671
0.413396
0.428429
0.456901
0.514326
0.613307
0.766711
0.970498
1.13305
0.566501
0.566641
1.13788
0.966609
0.765058
0.607624
0.511191
0.459695
0.430689
0.415485
0.408188
0.407546
0.413224
0.428236
0.456922
0.513465
0.610676
0.758999
0.968064
1.13517
0.56218
0.56491
1.13546
0.965701
0.763099
0.602052
0.510072
0.459108
0.430849
0.416075
0.408059
0.40757
0.413054
0.427888
0.456436
0.512311
0.606586
0.7672
0.967301
1.13171
0.564067
0.56173
1.13353
0.962746
0.75488
0.604964
0.509712
0.458425
0.429524
0.414889
0.407862
0.407766
0.412956
0.427493
0.45631
0.511866
0.61084
0.764791
0.965716
1.13483
0.565663
0.56716
1.13437
0.961154
0.760153
0.601446
0.508975
0.457972
0.429124
0.414911
0.407667
0.407494
0.412803
0.427044
0.455188
0.508829
0.605437
0.762835
0.964498
1.13014
0.562164
0.565671
1.12811
0.951498
0.758298
0.605318
0.50884
0.457685
0.428943
0.41371
0.407547
0.40825
0.41285
0.426988
0.455123
0.510187
0.607228
0.758528
0.956123
1.13257
0.566807
0.564936
1.12933
0.951703
0.750825
0.602797
0.507458
0.456952
0.429181
0.413577
0.407373
0.407483
0.412698
0.42645
0.454464
0.509185
0.605851
0.75206
0.959038
1.1276
0.562446
0.560278
1.12808
0.948954
0.752149
0.60151
0.506578
0.456198
0.427999
0.41353
0.407409
0.408228
0.412857
0.426428
0.453902
0.506211
0.603833
0.756848
0.958174
1.12791
0.566296
0.56015
1.12553
0.947675
0.749254
0.595872
0.50516
0.455645
0.427762
0.412755
0.407395
0.407077
0.413215
0.425774
0.453289
0.505784
0.602019
0.748629
0.949918
1.12584
0.565871
0.558666
1.12368
0.943719
0.740497
0.595441
0.504303
0.454863
0.427503
0.412368
0.406296
0.406154
0.412786
0.42554
0.452596
0.504137
0.599826
0.750082
0.953713
1.12776
0.563644
0.557079
1.12125
0.935995
0.738378
0.592334
0.503129
0.453897
0.427143
0.412365
0.406968
0.406221
0.412671
0.425526
0.45223
0.503596
0.598345
0.745361
0.952046
1.12501
0.565815
0.554986
1.11778
0.934526
0.733312
0.58943
0.502183
0.453168
0.426583
0.412229
0.406378
0.406139
0.412272
0.425579
0.451727
0.501401
0.593522
0.74699
0.944635
1.13046
0.564962
0.553255
1.11487
0.930816
0.728507
0.587109
0.501443
0.452904
0.42618
0.412428
0.407333
0.406857
0.41183
0.425194
0.451383
0.501006
0.593415
0.743603
0.94416
1.12882
0.559977
0.548584
1.10899
0.922163
0.724325
0.584954
0.500268
0.452181
0.425757
0.412758
0.406852
0.406283
0.410989
0.424707
0.450894
0.499885
0.591231
0.740397
0.941721
1.12284
0.560103
0.548062
1.10671
0.918395
0.72113
0.582507
0.499312
0.451363
0.425026
0.411751
0.406338
0.405806
0.410982
0.424802
0.450456
0.498733
0.586057
0.735329
0.932833
1.12271
0.558314
0.547728
1.10414
0.913843
0.717694
0.581084
0.498626
0.451214
0.425409
0.411892
0.407196
0.405974
0.41097
0.424089
0.449868
0.497834
0.585823
0.731823
0.932109
1.12213
0.557531
0.546718
1.10108
0.910193
0.715391
0.579263
0.497604
0.45042
0.42458
0.411774
0.406401
0.406546
0.411579
0.423539
0.44929
0.496762
0.583745
0.733075
0.930777
1.12284
0.556974
0.543666
1.10064
0.90924
0.713438
0.577688
0.4967
0.449768
0.424568
0.411993
0.407097
0.405887
0.411006
0.423478
0.448679
0.495689
0.581556
0.726922
0.931613
1.12096
0.555549
0.543755
1.09878
0.906263
0.712253
0.576037
0.495936
0.449716
0.424683
0.412079
0.406389
0.405799
0.411553
0.423885
0.448157
0.494686
0.579918
0.724008
0.928152
1.12002
0.550487
0.540796
1.0973
0.908931
0.709862
0.574721
0.495283
0.449753
0.424808
0.413066
0.406675
0.405828
0.410633
0.423056
0.447769
0.493712
0.577235
0.718496
0.918654
1.11306
0.550001
0.542603
1.09875
0.906583
0.70582
0.572929
0.494606
0.449628
0.424712
0.412696
0.407525
0.405964
0.41075
0.423172
0.447041
0.492604
0.575185
0.714608
0.917842
1.11215
0.548029
0.541504
1.10129
0.903184
0.703795
0.571566
0.493824
0.449359
0.424738
0.412244
0.407243
0.406069
0.411328
0.423957
0.446249
0.491446
0.572343
0.710432
0.914493
1.10685
0.545401
0.539966
1.09979
0.899721
0.701436
0.569839
0.493161
0.449238
0.424811
0.412289
0.406764
0.405983
0.41055
0.423208
0.445873
0.490158
0.569381
0.705185
0.906658
1.10461
0.542602
0.537688
1.09226
0.893488
0.700166
0.568689
0.492519
0.449055
0.425039
0.412564
0.407008
0.40623
0.410625
0.422739
0.445802
0.488806
0.56638
0.700795
0.900131
1.10429
0.540321
0.536226
1.09122
0.887498
0.697306
0.567034
0.491858
0.448793
0.425584
0.412783
0.407977
0.406546
0.41051
0.421898
0.444357
0.487654
0.564391
0.696873
0.896276
1.10124
0.53747
0.531661
1.0863
0.881394
0.69331
0.565369
0.490997
0.448266
0.424446
0.412748
0.407912
0.407432
0.41122
0.421358
0.443485
0.486522
0.562276
0.692751
0.891386
1.09512
0.534222
0.527607
1.08254
0.877301
0.687958
0.563127
0.490184
0.447694
0.424372
0.4129
0.407742
0.407368
0.410895
0.421464
0.443197
0.485258
0.559803
0.688625
0.886452
1.09286
0.531585
0.525529
1.07896
0.872759
0.68397
0.561103
0.489189
0.447347
0.424294
0.413731
0.408063
0.407443
0.411436
0.422024
0.443211
0.484167
0.557532
0.684094
0.880038
1.08825
0.528501
0.522881
1.0755
0.867858
0.680797
0.559205
0.488068
0.44684
0.424198
0.413301
0.408822
0.407106
0.41069
0.421106
0.443484
0.483116
0.555369
0.680706
0.875549
1.08486
0.525648
0.520881
1.07386
0.863164
0.677347
0.557415
0.486912
0.446169
0.424208
0.413417
0.408676
0.407199
0.411179
0.421097
0.442365
0.481464
0.552271
0.675367
0.868775
1.08073
0.522724
0.519292
1.07556
0.860507
0.675106
0.555761
0.485598
0.445753
0.424321
0.413701
0.408564
0.407324
0.410584
0.421367
0.441244
0.479525
0.548986
0.670242
0.861398
1.07606
0.519512
0.517499
1.07033
0.856456
0.672231
0.554229
0.483978
0.444915
0.424459
0.414036
0.409503
0.40761
0.410515
0.420293
0.439678
0.477019
0.54547
0.664924
0.854449
1.07181
0.51645
0.516833
1.07368
0.853447
0.669695
0.552913
0.4827
0.445256
0.425227
0.414978
0.409236
0.408297
0.410551
0.419391
0.438684
0.475281
0.542123
0.659884
0.847308
1.06635
0.513591
0.515329
1.07008
0.849023
0.666679
0.551354
0.48236
0.443862
0.424179
0.414744
0.409861
0.4081
0.411058
0.418398
0.437662
0.472756
0.538293
0.654381
0.840744
1.06354
0.510638
0.514039
1.06691
0.84563
0.663542
0.549161
0.482702
0.443624
0.424056
0.414439
0.409585
0.408122
0.410642
0.417667
0.435771
0.469809
0.534504
0.648492
0.833257
1.05942
0.507364
0.511767
1.06107
0.840966
0.660148
0.546905
0.481062
0.443483
0.424191
0.415454
0.409973
0.408318
0.410199
0.417481
0.433892
0.466582
0.53097
0.642742
0.825708
1.05482
0.502969
0.510176
1.05769
0.836228
0.656197
0.543954
0.479214
0.443811
0.424199
0.41483
0.410321
0.408655
0.410281
0.41811
0.432561
0.464571
0.527808
0.636987
0.818715
1.04848
0.497967
0.507409
1.05248
0.831067
0.652205
0.540903
0.476965
0.442594
0.423982
0.415098
0.410795
0.409519
0.410336
0.417204
0.432908
0.46381
0.523657
0.6304
0.811171
1.04279
0.493092
0.504815
1.04755
0.825641
0.647497
0.537214
0.47421
0.441551
0.424552
0.416304
0.412034
0.409286
0.41053
0.415797
0.429892
0.461174
0.518499
0.623744
0.803593
1.03669
0.487855
0.502283
1.04297
0.820742
0.64318
0.533669
0.471396
0.439993
0.423485
0.4161
0.412185
0.409998
0.409634
0.413757
0.426964
0.457219
0.513406
0.616982
0.795126
1.02974
0.482896
0.498242
1.03673
0.814238
0.637838
0.529484
0.468288
0.437875
0.423608
0.416245
0.412543
0.410206
0.409075
0.412865
0.425185
0.454736
0.508738
0.609913
0.786143
1.02028
0.477146
0.494475
1.0309
0.808538
0.632897
0.525508
0.466031
0.435969
0.422657
0.415963
0.412809
0.410496
0.40924
0.413219
0.42383
0.450535
0.50281
0.602415
0.777286
1.01329
0.472924
0.489664
1.02439
0.800807
0.627116
0.521627
0.465015
0.435851
0.423838
0.416439
0.413158
0.41074
0.409353
0.41187
0.423581
0.446172
0.496878
0.594522
0.768569
1.00594
0.468375
0.485844
1.01904
0.794508
0.6217
0.517334
0.462769
0.435527
0.423658
0.4175
0.413678
0.411042
0.409013
0.411324
0.419026
0.440555
0.490047
0.585634
0.759217
1.00122
0.464642
0.482073
1.0137
0.787263
0.615855
0.512712
0.460534
0.43553
0.424272
0.417708
0.414037
0.411426
0.409495
0.410006
0.415863
0.435444
0.482886
0.576611
0.750227
0.997452
0.461701
0.477974
1.0075
0.779206
0.609652
0.508184
0.457701
0.435928
0.423414
0.417728
0.414375
0.411627
0.408832
0.408433
0.413186
0.432485
0.476573
0.567905
0.740296
0.991243
0.457588
0.47511
1.00397
0.771907
0.604067
0.507328
0.457276
0.434304
0.423777
0.417209
0.414499
0.41192
0.409162
0.40865
0.41267
0.430599
0.470345
0.55937
0.731353
0.986979
0.454496
0.470523
0.998947
0.761793
0.596954
0.507367
0.457123
0.434357
0.422439
0.417394