/*--------------------------------*- C++ -*----------------------------------*\
  =========                 |
  \\      /  F ield         | OpenFOAM: The Open Source CFD Toolbox
   \\    /   O peration     | Website:  https://openfoam.org
    \\  /    A nd           | Version:  6
     \\/     M anipulation  |
\*---------------------------------------------------------------------------*/
FoamFile
{
    version     2.0;
    format      ascii;
    class       volScalarField;
    location    "21";
    object      nut;
}
// * * * * * * * * * * * * * * * * * * * * * * * * * * * * * * * * * * * * * //

dimensions      [0 2 -1 0 0 0 0];

internalField   nonuniform List<scalar> 
130000
(
0.000900522
0.000904977
0.0009088
0.000911862
0.000914234
0.000915989
0.000917203
0.00091795
0.000918296
0.000918305
0.000918029
0.000917518
0.000916811
0.000915942
0.000914939
0.000913826
0.000912627
0.000911361
0.000910036
0.000908652
0.000900503
0.00090497
0.000908787
0.000911842
0.000914203
0.000915946
0.000917147
0.00091788
0.000918213
0.000918206
0.000917911
0.000917379
0.000916652
0.000915763
0.000914743
0.000913617
0.000912407
0.000911129
0.000909791
0.0009084
0.000900614
0.000905094
0.000908918
0.000911973
0.00091433
0.000916066
0.000917254
0.000917974
0.000918297
0.000918286
0.000918002
0.000917489
0.000916778
0.000915899
0.000914877
0.000913736
0.000912494
0.000911169
0.000909777
0.00090833
0.000900787
0.000905286
0.00090912
0.000912175
0.000914531
0.000916271
0.000917479
0.000918231
0.000918589
0.000918615
0.000918373
0.000917869
0.000917146
0.000916244
0.000915189
0.000913999
0.000912711
0.000911335
0.000909887
0.000908378
0.000900987
0.000905509
0.000909358
0.000912438
0.000914836
0.000916627
0.000917893
0.000918672
0.000919033
0.000919052
0.000918796
0.000918252
0.000917498
0.000916566
0.000915479
0.000914251
0.000912931
0.000911524
0.000910042
0.000908491
0.000901202
0.00090576
0.000909649
0.000912795
0.000915244
0.000917058
0.000918329
0.000919078
0.000919409
0.000919386
0.000919059
0.00091847
0.000917683
0.000916724
0.000915618
0.000914387
0.000913051
0.000911626
0.000910124
0.000908555
0.000901418
0.000906025
0.000909965
0.000913159
0.0009156
0.00091739
0.000918607
0.00091932
0.000919626
0.00091958
0.000919236
0.000918641
0.000917838
0.00091686
0.000915736
0.000914487
0.000913133
0.000911691
0.000910172
0.000908589
0.000901608
0.000906258
0.000910222
0.000913394
0.000915814
0.000917593
0.000918802
0.00091952
0.000919817
0.000919759
0.0009194
0.00091879
0.000917969
0.000916973
0.000915829
0.000914562
0.00091319
0.00091173
0.000910195
0.000908597
0.000901763
0.000906433
0.000910405
0.000913571
0.000916002
0.000917781
0.000918988
0.000919699
0.000919987
0.000919916
0.000919543
0.000918917
0.00091808
0.000917065
0.000915902
0.000914616
0.000913225
0.000911748
0.000910198
0.000908587
0.000901901
0.00090659
0.000910576
0.000913751
0.000916182
0.000917958
0.000919159
0.000919862
0.00092014
0.000920057
0.00091967
0.000919027
0.000918172
0.00091714
0.000915958
0.000914653
0.000913245
0.00091175
0.000910185
0.00090856
0.000902031
0.000906738
0.000910736
0.000913928
0.000916354
0.000918125
0.000919319
0.000920014
0.000920281
0.000920185
0.000919783
0.000919125
0.000918252
0.000917201
0.000916001
0.000914677
0.000913251
0.000911739
0.000910157
0.000908517
0.000902156
0.000906873
0.000910869
0.000914075
0.00091651
0.000918283
0.000919473
0.000920159
0.000920415
0.000920306
0.000919888
0.000919213
0.000918323
0.000917253
0.000916035
0.000914692
0.000913247
0.000911718
0.000910119
0.000908463
0.000902288
0.000907017
0.000911011
0.000914217
0.000916673
0.000918444
0.000919627
0.000920304
0.000920547
0.000920423
0.00091999
0.000919298
0.00091839
0.000917301
0.000916063
0.000914702
0.000913238
0.000911692
0.000910077
0.000908408
0.000902433
0.000907183
0.000911197
0.000914374
0.000916852
0.000918614
0.000919787
0.000920451
0.000920681
0.000920542
0.000920093
0.000919383
0.000918455
0.000917347
0.00091609
0.000914709
0.000913227
0.000911663
0.000910034
0.000908353
0.000902586
0.000907351
0.000911373
0.000914551
0.000917026
0.000918792
0.000919954
0.000920605
0.00092082
0.000920665
0.000920198
0.00091947
0.000918523
0.000917395
0.000916117
0.000914716
0.000913216
0.000911636
0.000909992
0.000908299
0.000902751
0.000907533
0.000911566
0.000914754
0.000917191
0.000918976
0.000920128
0.000920766
0.000920966
0.000920794
0.000920309
0.000919561
0.000918594
0.000917445
0.000916146
0.000914724
0.000913205
0.000911608
0.000909952
0.00090825
0.000902928
0.000907724
0.000911761
0.000914941
0.000917349
0.000919128
0.000920301
0.00092093
0.000921116
0.000920928
0.000920425
0.000919657
0.000918669
0.000917498
0.000916177
0.000914734
0.000913193
0.000911578
0.000909908
0.000908206
0.000903116
0.000907927
0.000911968
0.000915143
0.000917533
0.000919278
0.000920481
0.0009211
0.000921272
0.000921067
0.000920545
0.000919757
0.000918748
0.000917555
0.00091621
0.000914743
0.000913178
0.000911536
0.000909836
0.000908092
0.000903315
0.000908142
0.000912192
0.000915371
0.000917769
0.000919477
0.000920652
0.000921276
0.000921433
0.00092121
0.00092067
0.000919862
0.000918831
0.000917616
0.000916248
0.000914756
0.000913166
0.000911495
0.000909761
0.000907969
0.000903524
0.000908366
0.000912421
0.0009156
0.000917992
0.000919692
0.000920797
0.000921426
0.000921589
0.000921355
0.000920797
0.00091997
0.000918918
0.00091768
0.00091629
0.000914776
0.000913163
0.000911472
0.000909716
0.00090792
0.000903741
0.000908598
0.000912659
0.000915836
0.000918216
0.000919892
0.000920947
0.000921557
0.00092175
0.00092151
0.000920931
0.000920081
0.000919006
0.000917746
0.000916334
0.0009148
0.000913172
0.000911473
0.000909719
0.000907949
0.000903967
0.000908839
0.000912908
0.000916083
0.000918457
0.000920121
0.000921161
0.000921718
0.000921893
0.000921661
0.000921062
0.000920191
0.000919094
0.000917809
0.000916373
0.000914817
0.000913174
0.000911476
0.000909744
0.000907997
0.000904201
0.000909091
0.000913166
0.000916342
0.000918712
0.000920371
0.00092141
0.000921912
0.000922019
0.000921781
0.000921187
0.0009203
0.000919178
0.000917866
0.000916398
0.000914801
0.000913118
0.000911393
0.000909647
0.000907897
0.000904446
0.000909351
0.000913434
0.000916609
0.000918973
0.000920623
0.000921651
0.000922145
0.00092218
0.000921893
0.000921305
0.000920403
0.000919255
0.000917919
0.000916424
0.000914793
0.000913072
0.000911305
0.000909557
0.000907814
0.0009047
0.000909622
0.00091371
0.000916883
0.00091924
0.000920877
0.00092189
0.000922363
0.000922378
0.000922004
0.000921381
0.000920479
0.000919318
0.000917964
0.000916457
0.000914825
0.000913091
0.000911277
0.000909512
0.00090772
0.000904964
0.000909903
0.000913997
0.000917169
0.000919516
0.00092114
0.000922135
0.000922587
0.000922573
0.000922159
0.000921476
0.000920549
0.000919367
0.000917987
0.000916458
0.000914804
0.000913079
0.000911244
0.000909408
0.00090757
0.00090524
0.000910196
0.000914297
0.000917466
0.000919804
0.000921414
0.000922392
0.000922824
0.000922791
0.000922363
0.000921603
0.000920616
0.000919413
0.000918021
0.000916492
0.000914827
0.000913095
0.00091128
0.000909434
0.000907588
0.000905529
0.000910503
0.00091461
0.000917776
0.000920106
0.000921702
0.000922661
0.000923071
0.000923012
0.000922551
0.000921743
0.000920708
0.000919475
0.000918066
0.00091651
0.000914818
0.000913053
0.000911283
0.000909482
0.000907666
0.000905832
0.000910825
0.000914939
0.000918103
0.000920424
0.000922005
0.000922947
0.000923338
0.000923259
0.000922779
0.000921959
0.000920846
0.000919547
0.00091807
0.000916457
0.000914759
0.000913033
0.000911281
0.000909498
0.00090773
0.00090615
0.000911162
0.000915284
0.000918446
0.000920759
0.000922328
0.000923254
0.000923627
0.00092353
0.000923033
0.000922197
0.000921076
0.000919708
0.000918195
0.000916573
0.000914882
0.000913154
0.000911422
0.000909617
0.000907835
0.000906483
0.000911516
0.000915646
0.000918808
0.000921113
0.00092267
0.000923582
0.000923939
0.000923825
0.000923312
0.000922465
0.000921337
0.000919981
0.000918443
0.000916779
0.000915052
0.000913289
0.000911514
0.000909758
0.000907999
0.000906832
0.000911887
0.000916026
0.000919188
0.000921486
0.000923033
0.00092393
0.000924273
0.000924145
0.000923619
0.00092276
0.000921623
0.000920258
0.000918709
0.000917016
0.000915264
0.000913454
0.000911614
0.000909819
0.000908027
0.000907196
0.000912275
0.000916423
0.000919585
0.000921877
0.000923413
0.000924299
0.000924629
0.000924489
0.000923953
0.000923087
0.000921948
0.000920586
0.000919046
0.000917377
0.00091561
0.000913759
0.000911845
0.000909979
0.000908159
0.000907578
0.00091268
0.000916838
0.00092
0.000922285
0.00092381
0.000924683
0.000925
0.000924848
0.000924303
0.000923432
0.000922291
0.000920932
0.000919399
0.000917731
0.000915967
0.000914131
0.000912233
0.000910368
0.000908529
0.000907976
0.000913102
0.00091727
0.000920431
0.000922708
0.00092422
0.000925078
0.00092538
0.000925214
0.000924657
0.000923777
0.000922631
0.000921272
0.000919743
0.000918084
0.000916331
0.000914514
0.000912659
0.000910789
0.00090892
0.000908393
0.000913543
0.000917719
0.000920877
0.000923145
0.000924642
0.000925483
0.000925766
0.000925583
0.000925009
0.000924115
0.000922957
0.000921589
0.000920054
0.000918391
0.000916636
0.000914817
0.00091296
0.000911084
0.000909206
0.000908831
0.000914003
0.000918186
0.00092134
0.000923595
0.000925075
0.000925896
0.000926158
0.000925953
0.000925359
0.000924446
0.000923272
0.000921889
0.000920341
0.000918669
0.000916905
0.00091508
0.000913217
0.000911337
0.000909455
0.000909286
0.000914481
0.00091867
0.000921817
0.000924058
0.000925519
0.000926316
0.000926554
0.000926325
0.000925708
0.000924772
0.000923578
0.000922177
0.000920614
0.000918929
0.000917154
0.00091532
0.000913451
0.000911568
0.000909684
0.000909758
0.000914976
0.00091917
0.00092231
0.000924534
0.000925973
0.000926745
0.000926956
0.000926699
0.000926056
0.000925096
0.000923879
0.000922458
0.000920878
0.000919178
0.000917391
0.000915548
0.000913672
0.000911784
0.000909899
0.000910248
0.00091549
0.000919687
0.000922817
0.000925022
0.000926436
0.000927179
0.000927361
0.000927074
0.000926402
0.000925416
0.000924175
0.000922732
0.000921133
0.000919418
0.000917619
0.000915766
0.000913884
0.000911992
0.000910104
0.00091076
0.000916023
0.000920222
0.00092334
0.000925523
0.000926909
0.000927621
0.000927769
0.00092745
0.000926747
0.000925731
0.000924464
0.000922998
0.00092138
0.000919648
0.000917836
0.000915974
0.000914086
0.00091219
0.000910301
0.000911294
0.000916578
0.000920776
0.000923879
0.000926037
0.000927391
0.000928068
0.00092818
0.000927825
0.000927088
0.00092604
0.000924745
0.000923254
0.000921615
0.000919866
0.000918041
0.00091617
0.000914275
0.000912377
0.000910487
0.000911851
0.000917155
0.00092135
0.000924434
0.000926564
0.000927883
0.000928521
0.000928593
0.000928199
0.000927424
0.000926343
0.000925016
0.000923499
0.000921837
0.00092007
0.000918232
0.000916351
0.000914451
0.00091255
0.000910661
0.00091243
0.000917755
0.000921944
0.000925007
0.000927104
0.000928383
0.000928979
0.000929007
0.00092857
0.000927755
0.000926636
0.000925276
0.000923731
0.000922045
0.000920259
0.000918407
0.000916516
0.000914611
0.000912708
0.00091082
0.00091304
0.00091838
0.000922559
0.000925596
0.000927656
0.000928892
0.000929439
0.000929419
0.000928935
0.000928076
0.000926917
0.000925522
0.000923946
0.000922235
0.000920429
0.000918563
0.000916663
0.000914753
0.000912849
0.000910964
0.000913677
0.00091903
0.000923196
0.000926202
0.000928219
0.000929405
0.0009299
0.000929827
0.000929291
0.000928383
0.00092718
0.000925747
0.000924139
0.000922401
0.000920576
0.000918695
0.000916787
0.000914873
0.00091297
0.00091109
0.00091434
0.000919703
0.00092385
0.00092682
0.000928789
0.000929919
0.000930355
0.000930223
0.00092963
0.000928669
0.000927419
0.000925944
0.0009243
0.000922536
0.000920689
0.000918795
0.000916879
0.000914963
0.000913064
0.000911191
0.000915032
0.000920399
0.000924521
0.000927446
0.000929359
0.000930426
0.000930796
0.000930597
0.00092994
0.000928921
0.000927617
0.000926097
0.000924417
0.000922623
0.000920756
0.000918848
0.000916927
0.000915012
0.00091312
0.000911258
0.000915749
0.000921112
0.0009252
0.000928073
0.00092992
0.000930914
0.000931207
0.000930933
0.000930204
0.000929118
0.000927757
0.000926187
0.000924466
0.000922641
0.000920753
0.000918834
0.000916909
0.000915
0.000913119
0.000911275
0.00091648
0.000921834
0.000925878
0.000928687
0.000930456
0.000931364
0.000931568
0.000931206
0.000930395
0.000929233
0.000927805
0.000926179
0.000924413
0.000922556
0.000920647
0.000918718
0.000916795
0.000914896
0.000913033
0.000911215
0.000917223
0.000922555
0.000926539
0.000929268
0.000930942
0.000931747
0.000931845
0.00093138
0.000930471
0.00092922
0.000927714
0.000926024
0.000924208
0.000922315
0.000920385
0.00091845
0.000916534
0.000914653
0.000912821
0.00091104
0.000917972
0.000923259
0.000927161
0.000929784
0.00093134
0.000932018
0.000931988
0.000931396
0.000930369
0.000929012
0.000927413
0.000925647
0.000923773
0.000921841
0.00091989
0.000917953
0.000916052
0.000914202
0.000912414
0.00091069
0.000918709
0.000923916
0.000927701
0.000930187
0.00093159
0.000932108
0.000931916
0.000931168
0.000929993
0.000928504
0.000926791
0.000924931
0.000922988
0.000921011
0.00091904
0.000917108
0.000915234
0.000913434
0.000911713
0.000910073
0.000919385
0.000924471
0.000928095
0.000930397
0.000931601
0.000931911
0.000931511
0.00093056
0.000929197
0.000927537
0.000925678
0.0009237
0.00092167
0.000919639
0.00091765
0.000915731
0.000913903
0.000912179
0.00091056
0.000909044
0.00091995
0.000924854
0.000928249
0.000930299
0.000931234
0.000931267
0.000930589
0.000929369
0.000927754
0.000925867
0.000923814
0.00092168
0.000919537
0.00091744
0.00091543
0.000913539
0.000911784
0.000910175
0.00090871
0.000907381
0.000920363
0.000924973
0.000928031
0.000929722
0.000930281
0.00092993
0.000928871
0.000927283
0.000925323
0.000923125
0.000920806
0.000918458
0.000916161
0.000913974
0.000911943
0.000910097
0.000908453
0.000907017
0.000905782
0.000904733
0.000920529
0.000924671
0.000927227
0.0009284
0.000928427
0.000927538
0.000925945
0.000923841
0.000921397
0.000918762
0.000916066
0.000913416
0.000910901
0.000908587
0.000906525
0.000904746
0.000903267
0.000902087
0.000901194
0.000900564
0.00092028
0.000923703
0.00092552
0.000925945
0.000925214
0.000923561
0.000921213
0.000918377
0.000915246
0.000911988
0.000908752
0.000905664
0.000902829
0.000900326
0.000898214
0.000896527
0.000895281
0.00089447
0.000894076
0.000894065
0.000919418
0.00092169
0.000922453
0.00092181
0.00092
0.000917267
0.000913849
0.000909979
0.000905871
0.000901723
0.000897712
0.000893989
0.000890682
0.000887889
0.000885682
0.000884104
0.00088317
0.000882874
0.000883188
0.000884067
0.000917462
0.000918288
0.000917454
0.00091528
0.00091195
0.000907705
0.000902799
0.000897486
0.000892016
0.00088662
0.000881512
0.00087688
0.000872883
0.000869645
0.000867259
0.000865781
0.000865234
0.000865611
0.000866879
0.000868987
0.000913876
0.000912661
0.000909708
0.000905446
0.000900051
0.000893762
0.000886853
0.000879605
0.000872305
0.000865228
0.000858633
0.000852751
0.00084778
0.000843879
0.00084117
0.000839729
0.000839594
0.00084077
0.000843226
0.000846913
0.000908171
0.000903836
0.000898444
0.000891364
0.000883273
0.00087436
0.000864905
0.000855216
0.000845617
0.000836428
0.000827956
0.000820474
0.000814222
0.000809397
0.000806151
0.000804592
0.000804785
0.000806757
0.000810506
0.000816006
0.000899688
0.000891189
0.000882213
0.000872256
0.000860847
0.000848822
0.00083642
0.000823944
0.00081174
0.000800175
0.000789588
0.000780282
0.000772523
0.000766536
0.000762502
0.000760561
0.000760813
0.000763333
0.000768172
0.000775375
0.00088764
0.000874288
0.000860503
0.000847021
0.000832777
0.000817389
0.000802076
0.000786895
0.00077216
0.000758348
0.000745784
0.000734739
0.000725486
0.000718249
0.000713219
0.000710558
0.000710404
0.000712893
0.000718163
0.000726375
0.000871478
0.000852654
0.000834221
0.00081647
0.000799075
0.000781599
0.000764365
0.000747298
0.000730485
0.000715173
0.000701335
0.000689078
0.000678705
0.000670397
0.000664324
0.000660645
0.000659523
0.000661146
0.000665751
0.000673644
0.000851305
0.00082691
0.000804572
0.000783512
0.00076365
0.000744688
0.000726222
0.000708463
0.000691809
0.000676578
0.000662875
0.000650164
0.000639412
0.000630486
0.000623553
0.000618736
0.000616186
0.000616114
0.000618824
0.000624751
0.000827904
0.00079891
0.000774061
0.000751895
0.000731241
0.000712074
0.000694399
0.000677699
0.000662268
0.000648176
0.000635497
0.000624267
0.000614205
0.000605171
0.000597755
0.000591923
0.000587772
0.000585486
0.000585382
0.000587945
0.000802901
0.000771423
0.000746307
0.000725197
0.000706454
0.000689398
0.000673614
0.000659322
0.000646638
0.000634895
0.000624278
0.000614753
0.000606147
0.000598118
0.000590648
0.00058413
0.000578524
0.000573961
0.000570713
0.000569225
0.0007786
0.000747625
0.000725005
0.000707353
0.000692503
0.000679459
0.000667742
0.000657147
0.000647446
0.00063843
0.000630426
0.000623188
0.000616212
0.000609368
0.000602401
0.00059559
0.000588859
0.000582307
0.000576132
0.000570679
0.000757678
0.000730597
0.000713169
0.000701036
0.000691634
0.000683772
0.000676864
0.000670585
0.00066471
0.000659086
0.000653584
0.000648173
0.000642857
0.000637133
0.000630882
0.000624058
0.000616494
0.000608346
0.000599751
0.000590905
0.000742743
0.000722768
0.000712703
0.000707493
0.000704405
0.00070221
0.000700315
0.000698404
0.000696282
0.000693809
0.000690862
0.00068736
0.000683314
0.000678596
0.000672983
0.000666299
0.000658165
0.000648781
0.000638288
0.00062674
0.00073595
0.000725638
0.000724338
0.000726747
0.000730235
0.000733695
0.000736637
0.000738828
0.000740141
0.000740493
0.000739813
0.000738043
0.000735149
0.00073113
0.000725996
0.000719523
0.000711026
0.000700654
0.000688648
0.000674954
0.000738756
0.000739762
0.000747872
0.000758026
0.000767946
0.000776777
0.000784206
0.000790129
0.000794514
0.000797353
0.000798637
0.000798354
0.000796481
0.000792984
0.00078803
0.00078168
0.000773105
0.000761906
0.000748603
0.000733112
0.000751882
0.000764973
0.000782553
0.000800225
0.000816241
0.000830077
0.000841633
0.000850949
0.000858098
0.000863149
0.000866151
0.000867134
0.000866107
0.000863059
0.000858264
0.000851965
0.000843176
0.000831243
0.000816751
0.000799631
0.000775426
0.000800659
0.000827403
0.00085221
0.000873947
0.000892447
0.000907828
0.000920277
0.000929966
0.000937034
0.000941581
0.000943677
0.000943363
0.000940654
0.00093591
0.000929565
0.000920555
0.000907921
0.000892212
0.000873487
0.000809026
0.000845979
0.000881396
0.000912912
0.000940019
0.000962897
0.000981875
0.000997268
0.00100934
0.00101829
0.00102426
0.00102736
0.00102764
0.00102514
0.00102029
0.00101373
0.00100444
0.000991162
0.000974192
0.000953823
0.000852016
0.00089997
0.000943483
0.000981275
0.00101343
0.00104044
0.00106282
0.00108101
0.00109535
0.00110608
0.00111339
0.00111739
0.00111817
0.00111575
0.00111057
0.00110339
0.00109359
0.00107991
0.00106169
0.00103964
0.000903508
0.000961552
0.00101251
0.00105612
0.00109299
0.00112388
0.00114948
0.00117032
0.0011868
0.00119921
0.00120777
0.00121259
0.00121377
0.00121134
0.00120576
0.00119791
0.00118729
0.00117273
0.00115336
0.00112958
0.000962408
0.00102945
0.0010871
0.00113598
0.00117714
0.00121159
0.00124016
0.00126345
0.00128192
0.00129588
0.00130556
0.0013111
0.00131259
0.00131004
0.00130393
0.00129513
0.00128311
0.00126725
0.00124694
0.00122141
0.00102735
0.00110205
0.00116543
0.00121884
0.00126373
0.00130129
0.00133246
0.0013579
0.0013781
0.0013934
0.00140402
0.00141012
0.00141177
0.001409
0.00140225
0.00139225
0.0013785
0.00136057
0.00133849
0.00131169
0.00109659
0.00117725
0.00124506
0.001302
0.00134979
0.00138978
0.00142299
0.00145013
0.00147168
0.00148796
0.00149921
0.00150563
0.00150726
0.00150408
0.00149651
0.00148496
0.00146903
0.0014486
0.00142382
0.00139477
0.00116783
0.00125222
0.00132271
0.00138175
0.00143125
0.0014727
0.00150714
0.0015353
0.00155768
0.00157432
0.00158564
0.00159203
0.00159348
0.00158969
0.00158082
0.00156707
0.00154848
0.00152495
0.00149686
0.00146458
0.00123809
0.00132328
0.00139407
0.00145321
0.00150277
0.00154432
0.00157877
0.00160699
0.00163011
0.00164809
0.0016605
0.00166664
0.00166602
0.00165892
0.00164549
0.00162812
0.001607
0.00158007
0.0015485
0.00151285
0.00130354
0.00138572
0.00145361
0.00151023
0.00155753
0.00159696
0.00162975
0.00165691
0.00167701
0.00168922
0.00169688
0.00170118
0.00169871
0.00169038
0.0016773
0.00165696
0.00162908
0.00159753
0.00156201
0.00152305
0.00135943
0.00143374
0.00149487
0.00154561
0.00158609
0.00161955
0.00164738
0.00167224
0.00169177
0.00170843
0.00171754
0.00171728
0.00171167
0.00169921
0.00167936
0.00165304
0.00162064
0.00158201
0.0015383
0.00149123
0.00140014
0.00146092
0.00151006
0.00154703
0.00158152
0.00160991
0.00163517
0.00165331
0.00166908
0.00168049
0.00168643
0.00168555
0.00167674
0.00165901
0.00163175
0.00159643
0.00155471
0.00150597
0.00145085
0.00139151
0.00141992
0.00146069
0.00148799
0.00151403
0.00153179
0.00154988
0.00156615
0.00158106
0.00159411
0.00160388
0.0016084
0.00160543
0.00159271
0.00156832
0.00153095
0.00148252
0.00142577
0.00135974
0.0012859
0.00120745
0.00141224
0.00142242
0.00142952
0.00142997
0.00143264
0.00143704
0.00144438
0.00145451
0.00146595
0.00147606
0.00148127
0.00147758
0.00146105
0.00142832
0.00137717
0.00131035
0.00123108
0.00113911
0.00103939
0.000935849
0.00136966
0.00134685
0.00131934
0.00129554
0.00127755
0.00126776
0.00126736
0.00127579
0.00129028
0.00130597
0.00131644
0.00131476
0.00129455
0.00125086
0.00118112
0.00109073
0.000981968
0.00085883
0.000733012
0.000612089
0.00128761
0.00122177
0.00116204
0.00111131
0.00107344
0.0010519
0.00104888
0.00106334
0.00109013
0.00112018
0.00114162
0.00114311
0.001116
0.0010554
0.000963466
0.000849142
0.000717661
0.000585364
0.000456869
0.000356941
0.00116193
0.00105959
0.000967805
0.000893615
0.000842283
0.000817389
0.000822828
0.000855638
0.0009057
0.000957676
0.000989171
0.00098643
0.000944567
0.000869985
0.000772893
0.000656539
0.000531031
0.000405375
0.000305641
0.000243339
0.000992109
0.000860543
0.000750552
0.000669184
0.000629561
0.000634835
0.000684232
0.000757743
0.000829026
0.000876701
0.000894358
0.00088005
0.000836728
0.000765575
0.000665502
0.000545678
0.000417269
0.000302884
0.000231803
0.000187039
0.000783401
0.000642042
0.000543114
0.000499395
0.000519519
0.000596606
0.000692067
0.000775877
0.000835623
0.000868453
0.000874762
0.000853092
0.000802961
0.000721306
0.000610243
0.000479538
0.000346474
0.000246429
0.00018609
0.000173955
0.000539453
0.000426478
0.000376956
0.000413448
0.000512597
0.000628007
0.000728694
0.000802491
0.000849745
0.00087222
0.00087042
0.000843958
0.000790097
0.000704169
0.000586252
0.000445882
0.000308352
0.000208733
0.000172387
0.000188224
0.000297919
0.000254321
0.000301218
0.00041321
0.000548443
0.000670732
0.000762706
0.000823455
0.000857632
0.000870551
0.000865314
0.00084071
0.000791739
0.000710531
0.000592353
0.000444892
0.000299031
0.000200682
0.000181568
0.000203202
0.000175506
0.000195052
0.000288939
0.000435411
0.000585929
0.000705451
0.000785604
0.000832831
0.000856901
0.000864747
0.00086033
0.000842731
0.000805632
0.000738708
0.000631378
0.00048336
0.000326038
0.000220031
0.000186731
0.000206365
0.000152155
0.000180105
0.000291864
0.000459722
0.000619759
0.000735013
0.000803398
0.000838694
0.000853596
0.000857479
0.000854841
0.000845335
0.000823905
0.000779579
0.000693338
0.000554556
0.000382532
0.00024317
0.000193634
0.00020433
0.000164882
0.000182583
0.000313267
0.000508382
0.000676141
0.000777168
0.000826277
0.000846387
0.000853321
0.000854962
0.00085403
0.000850565
0.00084166
0.000818341
0.000763148
0.00065161
0.00047781
0.000297066
0.000203362
0.000201755
0.000185176
0.000226692
0.000404337
0.000618265
0.000748173
0.000809368
0.000836844
0.000848536
0.000852118
0.000853081
0.000852978
0.000851597
0.000848841
0.000840934
0.000819076
0.000762186
0.000627283
0.000418986
0.000254962
0.000199982
0.000275742
0.000358299
0.000586946
0.000766
0.000833517
0.000850583
0.000853307
0.000852531
0.000852491
0.000852357
0.000852176
0.000852247
0.00085229
0.000853598
0.000857819
0.000862081
0.000861632
0.000793012
0.00046221
0.000208667
0.000902905
0.000903393
0.000904046
0.000904562
0.000904952
0.000905227
0.000905399
0.000905478
0.000905473
0.00090539
0.000905235
0.000905013
0.000904736
0.000904404
0.000904004
0.000903548
0.000903034
0.000902457
0.000901808
0.000901075
0.000902719
0.000903211
0.000903854
0.000904362
0.000904744
0.000905011
0.000905173
0.00090524
0.000905221
0.000905122
0.000904951
0.000904713
0.000904423
0.000904084
0.000903686
0.000903241
0.000902747
0.000902205
0.000901605
0.000900914
0.000902598
0.000903079
0.000903714
0.000904218
0.000904596
0.000904858
0.000905009
0.000905056
0.000905009
0.000904881
0.00090468
0.000904403
0.000904078
0.000903725
0.000903326
0.000902899
0.000902456
0.000901987
0.000901457
0.000900835
0.000902458
0.000902927
0.000903561
0.000904073
0.000904465
0.000904738
0.000904888
0.000904911
0.000904812
0.00090464
0.000904414
0.000904141
0.000903851
0.00090355
0.000903202
0.000902828
0.000902461
0.000901992
0.000901381
0.000900746
0.000902284
0.000902737
0.000903375
0.000903917
0.000904358
0.000904685
0.000904874
0.000904902
0.000904768
0.000904625
0.000904463
0.000904276
0.00090407
0.000903865
0.000903558
0.00090317
0.000902715
0.000902137
0.000901462
0.000900837
0.000902062
0.000902473
0.000903107
0.000903708
0.000904251
0.00090471
0.000905003
0.000905114
0.000905036
0.000905026
0.000904965
0.000904844
0.000904667
0.000904484
0.000904127
0.000903661
0.00090306
0.000902466
0.000901809
0.000901176
0.000902073
0.000902473
0.000903097
0.000903704
0.000904277
0.000904836
0.000905201
0.000905425
0.000905452
0.000905557
0.000905537
0.000905397
0.000905135
0.000904797
0.000904393
0.000903942
0.000903453
0.000902902
0.000902239
0.000901625
0.000902409
0.000902814
0.00090343
0.000904021
0.000904524
0.000905061
0.000905449
0.000905732
0.000905824
0.000905875
0.000905824
0.000905678
0.00090535
0.000904928
0.000904496
0.000904051
0.000903583
0.000903074
0.000902506
0.000901922
0.000902951
0.000903358
0.000903924
0.000904483
0.00090495
0.000905423
0.000905785
0.000905997
0.000906096
0.000906054
0.000905958
0.000905818
0.000905505
0.000905103
0.000904724
0.000904307
0.000903838
0.000903313
0.000902733
0.000902114
0.000903399
0.000903841
0.000904376
0.000904867
0.000905301
0.000905551
0.00090572
0.0009058
0.00090583
0.000905821
0.000905787
0.000905686
0.000905503
0.000905263
0.000904957
0.000904583
0.000904138
0.000903624
0.000903038
0.000902364
0.000903342
0.000903854
0.000904471
0.000904878
0.000905098
0.000905189
0.000905267
0.000905302
0.000905327
0.000905358
0.000905321
0.000905236
0.000905066
0.000904833
0.000904538
0.000904175
0.000903736
0.000903239
0.000902693
0.00090206
0.000902846
0.000903374
0.000903996
0.000904429
0.000904696
0.000904906
0.000905002
0.000905046
0.000905038
0.000904975
0.000904874
0.000904725
0.000904504
0.000904242
0.000903927
0.000903551
0.000903117
0.000902605
0.000902026
0.000901407
0.000902284
0.000902911
0.000903705
0.000904307
0.000904663
0.00090495
0.00090508
0.000905148
0.000905087
0.000904965
0.000904853
0.00090463
0.00090437
0.000904092
0.000903749
0.000903336
0.000902883
0.000902319
0.000901673
0.000901059
0.00090214
0.000902848
0.000903791
0.000904458
0.000904831
0.000905112
0.000905356
0.00090544
0.000905366
0.000905243
0.000905207
0.000905032
0.00090486
0.000904606
0.00090422
0.000903714
0.000903114
0.000902471
0.000901814
0.000901162
0.000902417
0.000903037
0.000903848
0.000904444
0.000904882
0.000905196
0.000905396
0.000905499
0.000905496
0.000905366
0.000905302
0.000905247
0.000905154
0.000904885
0.000904429
0.000903877
0.000903241
0.00090257
0.00090188
0.00090118
0.000902672
0.000903174
0.000903827
0.000904363
0.000904787
0.0009051
0.000905297
0.000905393
0.000905388
0.000905279
0.000905148
0.00090501
0.000904779
0.000904459
0.000903995
0.000903486
0.000902897
0.000902236
0.000901519
0.000900777
0.000902862
0.000903388
0.000904038
0.00090457
0.000904996
0.000905315
0.000905501
0.000905545
0.000905534
0.000905474
0.000905239
0.000904955
0.000904664
0.000904241
0.000903765
0.000903274
0.000902729
0.000902113
0.000901439
0.000900754
0.000903366
0.000903838
0.000904427
0.000904915
0.0009053
0.000905592
0.000905775
0.000905865
0.000905931
0.000905976
0.000905734
0.000905444
0.0009051
0.000904493
0.000903888
0.000903331
0.000902811
0.000902242
0.000901627
0.000900998
0.000903876
0.000904234
0.000904793
0.000905227
0.000905548
0.000905778
0.000905954
0.000906127
0.000906182
0.000906205
0.000906051
0.000905759
0.000905344
0.00090475
0.000904054
0.000903431
0.000902902
0.000902336
0.000901743
0.000901135
0.000904244
0.000904671
0.000905216
0.000905609
0.000905872
0.00090603
0.00090611
0.000906121
0.000906079
0.000906007
0.000905823
0.000905552
0.000905209
0.00090477
0.000904154
0.00090361
0.000903081
0.000902539
0.000901961
0.000901363
0.000904481
0.000904899
0.000905419
0.000905774
0.000905984
0.000906076
0.000906079
0.000906011
0.000905883
0.000905705
0.000905479
0.000905215
0.000904931
0.000904626
0.000904259
0.000903855
0.000903404
0.00090289
0.000902296
0.000901608
0.000904721
0.000905144
0.000905663
0.000906009
0.0009062
0.000906264
0.000906227
0.00090611
0.000905928
0.000905695
0.000905424
0.000905142
0.000904865
0.0009046
0.0009043
0.000903971
0.000903589
0.00090313
0.000902579
0.000901923
0.000904986
0.000905434
0.000905976
0.000906343
0.000906552
0.000906628
0.000906592
0.000906464
0.000906258
0.000905987
0.000905659
0.000905299
0.000904975
0.000904716
0.000904471
0.00090421
0.000903882
0.000903468
0.000902954
0.000902329
0.000905254
0.000905732
0.000906304
0.000906705
0.00090695
0.000907061
0.000907057
0.000906955
0.00090677
0.00090651
0.000906186
0.000905819
0.000905497
0.000905235
0.000904977
0.000904689
0.000904336
0.000903906
0.000903386
0.000902768
0.000905497
0.000906
0.000906599
0.000907028
0.000907305
0.000907449
0.000907481
0.000907418
0.000907275
0.000907064