/*--------------------------------*- C++ -*----------------------------------*\
  =========                 |
  \\      /  F ield         | OpenFOAM: The Open Source CFD Toolbox
   \\    /   O peration     | Website:  https://openfoam.org
    \\  /    A nd           | Version:  6
     \\/     M anipulation  |
\*---------------------------------------------------------------------------*/
FoamFile
{
    version     2.0;
    format      ascii;
    class       volScalarField;
    location    "21";
    object      nut;
}
// * * * * * * * * * * * * * * * * * * * * * * * * * * * * * * * * * * * * * //

dimensions      [0 2 -1 0 0 0 0];

internalField   nonuniform List<scalar> 
10000
(
1.45597e-05
6.94102e-05
8.94916e-05
0.000108848
0.0001333
0.000163931
0.000198413
0.000231955
0.0002582
0.000272431
0.00027225
0.000258856
0.000234087
0.000202305
0.000168195
0.000137433
0.000112621
9.17313e-05
7.01136e-05
1.45398e-05
1.45391e-05
6.93761e-05
8.94783e-05
0.000109279
0.000134687
0.000165578
0.000199188
0.000232956
0.000259463
0.000274274
0.000273689
0.000260531
0.000235812
0.000203269
0.000169031
0.000137709
0.000112869
9.17715e-05
7.00509e-05
1.453e-05
1.44839e-05
6.92647e-05
8.93419e-05
0.000108935
0.000133444
0.000164639
0.000199234
0.000234011
0.000261542
0.000276173
0.000273213
0.000260156
0.000234917
0.000205398
0.000168675
0.000137736
0.000113605
9.20856e-05
7.00353e-05
1.45114e-05
1.45291e-05
6.95468e-05
9.02655e-05
0.00011024
0.000133689
0.000164571
0.000200537
0.000233775
0.000258618
0.000272256
0.000272479
0.000258887
0.000234381
0.000202587
0.000168739
0.000138284
0.000111876
9.06191e-05
6.99245e-05
1.44411e-05
1.44806e-05
6.94561e-05
8.9259e-05
0.000109281
0.00013377
0.000165199
0.000201188
0.000235309
0.000258874
0.000272989
0.000273221
0.000259406
0.00023603
0.000203545
0.000169444
0.000136915
0.000110826
9.07868e-05
6.9914e-05
1.44438e-05
1.44567e-05
6.9434e-05
8.95393e-05
0.00010983
0.000134603
0.000166857
0.00020093
0.000233795
0.000258539
0.000272808
0.000275714
0.000260088
0.000236014
0.000205471
0.000171154
0.000137134
0.000111231
9.09358e-05
6.99679e-05
1.44389e-05
1.44582e-05
6.93306e-05
8.99241e-05
0.000110027
0.000135892
0.000165665
0.000201069
0.000233449
0.000259395
0.00027273
0.000273366
0.000260451
0.000237053
0.000205349
0.000171469
0.000137662
0.000111668
9.10407e-05
6.9869e-05
1.45161e-05
1.4496e-05
6.9318e-05
8.99822e-05
0.000109102
0.000133925
0.000165626
0.000200332
0.000235087
0.000260372
0.000273181
0.000276303
0.000263552
0.000238817
0.000205659
0.000171811
0.000139184
0.000112539
9.10912e-05
6.99974e-05
1.45497e-05
1.44979e-05
6.94944e-05
9.02262e-05
0.000111273
0.000133281
0.000165261
0.0002024
0.000235563
0.000262948
0.000272952
0.000272717
0.000259924
0.000236555
0.000204844
0.000171312
0.000138493
0.000111227
9.12429e-05
6.99112e-05
1.45568e-05
1.44782e-05
6.94792e-05
9.06095e-05
0.000110519
0.0001334
0.000165089
0.000201073
0.000233996
0.000260971
0.000273007
0.000272852
0.00025987
0.000236572
0.000204437
0.000171043
0.000138513
0.000111185
9.16004e-05
7.0096e-05
1.46042e-05
1.44504e-05
6.9445e-05
8.96812e-05
0.000109825
0.000134081
0.000166977
0.000203021
0.000235762
0.000260645
0.000274211
0.000274241
0.000261253
0.000236684
0.000205948
0.000169999
0.000137898
0.000111516
9.12116e-05
6.99627e-05
1.45657e-05
1.45429e-05
6.98457e-05
8.94276e-05
0.000108697
0.000133185
0.000166508
0.000202299
0.00023763
0.000263329
0.000277754
0.00027745
0.000261439
0.000238611
0.000205794
0.000171433
0.000138464
0.000112743
9.13725e-05
7.0126e-05
1.45082e-05
1.44956e-05
6.98203e-05
9.03402e-05
0.000110483
0.000134127
0.000166502
0.000201744
0.00023667
0.000262833
0.000277767
0.000276904
0.000262309
0.000235391
0.00020334
0.000169887
0.000139861
0.000112164
9.14368e-05
7.02801e-05
1.45633e-05
1.45578e-05
6.987e-05
9.05635e-05
0.000110322
0.000135805
0.000165974
0.000200678
0.000234538
0.000260377
0.000276536
0.000277032
0.000261597
0.000236586
0.000205099
0.000171584
0.000139151
0.000112691
9.15268e-05
7.02636e-05
1.4546e-05
1.46438e-05
7.00287e-05
9.11502e-05
0.000111028
0.000136337
0.000166954
0.000202155
0.000235834
0.000260562
0.000274396
0.000276009
0.000260537
0.000235464
0.0002037
0.000170019
0.000138466
0.000113364
9.18047e-05
7.00708e-05
1.45067e-05
1.468e-05
6.96547e-05
9.04723e-05
0.000110592
0.000136052
0.000168184
0.000202097
0.000235559
0.000261253
0.0002751
0.000276249
0.000259936
0.000234548
0.000203426
0.000168644
0.000139046
0.000112507
9.13044e-05
7.00936e-05
1.45769e-05
1.46653e-05
6.98323e-05
9.07168e-05
0.000111153
0.000136381
0.000167425
0.000203173
0.000238897
0.000265215
0.000275325
0.000275744
0.000259802
0.00023415
0.000202034
0.000168022
0.000137659
0.000113594
9.13201e-05
7.00664e-05
1.45278e-05
1.46899e-05
7.00606e-05
9.11159e-05
0.000110199
0.000137907
0.000167465
0.000201479
0.000235652
0.000262039
0.000275999
0.000274601
0.000260845
0.000234703
0.000202659
0.000168572
0.000138574
0.000112702
9.13345e-05
7.01145e-05
1.45381e-05
1.46095e-05
7.00669e-05
9.04065e-05
0.000111381
0.000136406
0.000167262
0.000201359
0.000234017
0.000258758
0.000273017
0.000273601
0.00026034
0.00023531
0.000203191
0.000169019
0.000138406
0.000111687
9.10593e-05
7.01434e-05
1.45529e-05
1.45422e-05
7.00972e-05
9.08971e-05
0.000110747
0.000135249
0.000169151
0.000203042
0.000236622
0.000259612
0.000273315
0.000276775
0.000263976
0.000236585
0.0002043
0.000170986
0.000138794
0.000112486
9.16193e-05
7.02319e-05
1.45714e-05
1.45417e-05
6.98844e-05
9.08922e-05
0.000110877
0.000135112
0.00016749
0.000201484
0.000237019
0.000260951
0.00027411
0.000274648
0.000261625
0.000237606
0.000205758
0.000169876
0.000138216
0.00011329
9.17239e-05
7.001e-05
1.45744e-05
1.45998e-05
7.00302e-05
9.10415e-05
0.000111435
0.000135148
0.000169071
0.000201717
0.000236209
0.000263188
0.000274729
0.000275035
0.000264415
0.000237397
0.000205522
0.000170837
0.000138675
0.000112633
9.15082e-05
7.02114e-05
1.45682e-05
1.45296e-05
7.01031e-05
9.11266e-05
0.000111076
0.000135503
0.000167119
0.000201463
0.000235104
0.000263047
0.000277737
0.000277754
0.00026239
0.000238618
0.000207703
0.000172858
0.000140482
0.000113666
9.18777e-05
7.01232e-05
1.45892e-05
1.45497e-05
7.02706e-05
9.1261e-05
0.000112198
0.000136923
0.000166935
0.00020193
0.000235509
0.000263329
0.000277484
0.000277389
0.000264015
0.000238323
0.000206
0.000171562
0.000139525
0.000112731
9.09117e-05
7.00434e-05
1.45635e-05
1.45884e-05
7.009e-05
9.15624e-05
0.000111863
0.000135999
0.000167646
0.000203753
0.000237456
0.000263591
0.000276831
0.000276352
0.000262681
0.000238774
0.000205091
0.000170622
0.000138533
0.000112866
9.12386e-05
6.99602e-05
1.45731e-05
1.46052e-05
7.01575e-05
9.07197e-05
0.000111383
0.000136134
0.000167396
0.000204218
0.000237137
0.000262848
0.000280452
0.000279258
0.000264233
0.000237013
0.00020637
0.000172307
0.000139456
0.000111626
9.14505e-05
7.00939e-05
1.45453e-05
1.45803e-05
7.00046e-05
9.03442e-05
0.0001117
0.000137526
0.000168896
0.000203102
0.000238013
0.000264134
0.000278681
0.000275472
0.000262999
0.00023742
0.000205562
0.000170199
0.000137558
0.000111376
9.06849e-05
7.01649e-05
1.45317e-05
1.45893e-05
7.00561e-05
9.03883e-05
0.000111122
0.000136774
0.000168494
0.000202128
0.000235236
0.000260046
0.000276625
0.000274611
0.000261765
0.000237112
0.00020461
0.00017016
0.000137724
0.000111501
9.10156e-05
6.98797e-05
1.44892e-05
1.45534e-05
6.99597e-05
9.03449e-05
0.000111931
0.000138335
0.000169291
0.000203572
0.000237116
0.000260372
0.000274252
0.000275113
0.000259602
0.000234779
0.000204831
0.00017128
0.000138792
0.000111925
9.03808e-05
6.98097e-05
1.44876e-05
1.45021e-05
6.98871e-05
9.03108e-05
0.00011047
0.000136594
0.000168217
0.000202305
0.000235147
0.000259877
0.000272498
0.00027248
0.000261101
0.000235631
0.000203821
0.000168955
0.000136797
0.00011049
9.02904e-05
6.99012e-05
1.44386e-05
1.45375e-05
7.00135e-05
9.03938e-05
0.000110235
0.000135702
0.000167184
0.000203552
0.000236857
0.000261907
0.00027355
0.000272776
0.000259266
0.000235466
0.000204069
0.000169741
0.000137784
0.000111226
9.06327e-05
6.96113e-05
1.44121e-05
1.4505e-05
6.9665e-05
9.09312e-05
0.000110806
0.000137129
0.000167776
0.000203846
0.000235777
0.000262758
0.000274997
0.000276212
0.000260735
0.0002361
0.000203912
0.000168914
0.000136489
0.000110227
9.02491e-05
6.9683e-05
1.43931e-05
1.44431e-05
6.95306e-05
9.02088e-05
0.000110916
0.000136225
0.000167899
0.00020519
0.000236192
0.000263503
0.00027709
0.000274851
0.000261051
0.000236644
0.000203733
0.00016877
0.000136315
0.000110009
9.01276e-05
6.94308e-05
1.43492e-05
1.44241e-05
6.94284e-05
8.98218e-05
0.000111332
0.000136496
0.000168574
0.000203994
0.000236346
0.000264229
0.000277098
0.00027719
0.000263554
0.000237697
0.000204808
0.000170456
0.000136591
0.000109965
9.0027e-05
6.93269e-05
1.43335e-05
1.44258e-05
6.93585e-05
8.9762e-05
0.000110613
0.000137391
0.000168412
0.000204122
0.000236987
0.000263219
0.00027462
0.000274337
0.000261424
0.000238901
0.000207582
0.000171167
0.000136568
0.000110119
8.97136e-05
6.90893e-05
1.43102e-05
1.44104e-05
6.93523e-05
8.95038e-05
0.000109874
0.000136356
0.00016977
0.000204706
0.000237005
0.000262213
0.00027439
0.000274127
0.000261222
0.000236564
0.000205233
0.000170708
0.000137685
0.000110809
8.95883e-05
6.89898e-05
1.4276e-05
1.43616e-05
6.91943e-05
8.95324e-05
0.00011079
0.000137522
0.000169518
0.000205667
0.000239128
0.000265504
0.000275006
0.000275087
0.000261977
0.000237428
0.000203877
0.000169111
0.000136885
0.000110525
8.94363e-05
6.89355e-05
1.42835e-05
1.4356e-05
6.91974e-05
8.95045e-05
0.000110402
0.000136855
0.000168895
0.00020389
0.000236229
0.000262761
0.000274294
0.000274887
0.000263717
0.000235823
0.000203428
0.000170533
0.000137064
0.000110289
8.91909e-05
6.89302e-05
1.43072e-05
1.43165e-05
6.91164e-05
8.94702e-05
0.000111459
0.000137218
0.000169852
0.000204292
0.000235687
0.000261272
0.000274889
0.000275225
0.000261448
0.0002363
0.000203608
0.000170754
0.00013799
0.000110295
8.89275e-05
6.9049e-05
1.42923e-05
1.42752e-05
6.91593e-05
8.93127e-05
0.000111209
0.000137482
0.000170205
0.000204559
0.000236291
0.000261223
0.000275132
0.000278125
0.000262648
0.000237008
0.000204689
0.000169206
0.00013723
0.00011017
8.88721e-05
6.92234e-05
1.42345e-05
1.42373e-05
6.90303e-05
8.92147e-05
0.000111314
0.000137729
0.000170197
0.000205304
0.000237055
0.000261715
0.000275321
0.000276229
0.000264855
0.000238046
0.000205479
0.000169907
0.000137486
0.000110278
8.91216e-05
6.88339e-05
1.42019e-05
1.41936e-05
6.88706e-05
8.91731e-05
0.000111387
0.00013899
0.000170638
0.000207276
0.000239793
0.000263552
0.000276759
0.000276716
0.000263578
0.000240331
0.000206906
0.000172269
0.000138852
0.000110255
8.89379e-05
6.85785e-05
1.41904e-05
1.41989e-05
6.87565e-05
8.93034e-05
0.000111383
0.000138439
0.000170193
0.000206559
0.000239502
0.00026423
0.000277537
0.000277273
0.000263657
0.000239032
0.0002078
0.000171605
0.000138833
0.000109928
8.89728e-05
6.86705e-05
1.41568e-05
1.41764e-05
6.87416e-05
8.95878e-05
0.000111523
0.000139845
0.000170962
0.000206877
0.000240782
0.000267734
0.000279477
0.000278711
0.000264857
0.000239725
0.000206822
0.00017251
0.000138633
0.000109843
8.88033e-05
6.84508e-05
1.41297e-05
1.41642e-05
6.88753e-05
8.94411e-05
0.000111215
0.000139034
0.000171481
0.000210101
0.000244074
0.000269153
0.000281104
0.000280126
0.000266138
0.000240818
0.000207596
0.000172127
0.000139271
0.000110354
8.86751e-05
6.83822e-05
1.41076e-05
1.4135e-05
6.87612e-05
8.94556e-05
0.000110785
0.000138716
0.000172097
0.000209549
0.000244615
0.000270981
0.00028366
0.000284867
0.000270793
0.000244535
0.000208963
0.000173029
0.000138385
0.000109923
8.83495e-05
6.8477e-05
1.40814e-05
1.4101e-05
6.87265e-05
8.94319e-05
0.000110774
0.000138933
0.000173126
0.00021199
0.000246428
0.000273748
0.000287418
0.000286195
0.000271367
0.000244996
0.000210087
0.000172959
0.000138508
0.000110001
8.83113e-05
6.81906e-05
1.40578e-05
1.40573e-05
6.86534e-05
8.95031e-05
0.000111756
0.000140551
0.000175936
0.000212846
0.000247381
0.000275514
0.000288838
0.000287496
0.000272155
0.000246027
0.000213114
0.00017493
0.000140046
0.000111015
8.87579e-05
6.81456e-05
1.40331e-05
1.40058e-05
6.83767e-05
8.93091e-05
0.00011155
0.000140387
0.000176641
0.000214495
0.000250308
0.000277627
0.000291011
0.000289121
0.000274225
0.000247526
0.000213579
0.000174533
0.000139844
0.000110874
8.87232e-05
6.8249e-05
1.40116e-05
1.39737e-05
6.84479e-05
8.92781e-05
0.000112229
0.000141855
0.000178863
0.000217641
0.000252742
0.000279981
0.000294187
0.000293706
0.00027923
0.000251747
0.000215674
0.00017699
0.000140925
0.000111703
8.87883e-05
6.81e-05
1.40118e-05
1.39501e-05
6.83676e-05
8.92114e-05
0.000112411
0.000142773
0.000179671
0.000218737
0.000254469
0.000281815
0.000295985
0.000295419
0.000281028
0.000253075
0.00021684
0.000177319
0.000141065
0.000112084
8.90081e-05
6.8097e-05
1.39821e-05
1.392e-05
6.83082e-05
8.92689e-05
0.000112941
0.000143773
0.000182515
0.00022214
0.000257777
0.000283851
0.000299108
0.000299013
0.000284716
0.000257146
0.000219433
0.000180399
0.000142615
0.00011241
8.90053e-05
6.82403e-05
1.39588e-05
1.38995e-05
6.8263e-05
8.9255e-05
0.000113365
0.000144643
0.000184073
0.000224233
0.00025928
0.000285815
0.000300838
0.000301266
0.000287044
0.000259622
0.000222564
0.000181613
0.000143529
0.000112852
8.91436e-05
6.81265e-05
1.39397e-05
1.38778e-05
6.82769e-05
8.93642e-05
0.00011379
0.000145388
0.000185662
0.000226769
0.000262446
0.00028938
0.00030377
0.000303773
0.000289721
0.000262356
0.000224525
0.00018306
0.000144753
0.000113262
8.92464e-05
6.81699e-05
1.38948e-05
1.38438e-05
6.82336e-05
8.93832e-05
0.000114182
0.000146465
0.000187383
0.000229299
0.000266026
0.000292686
0.00030691
0.000307229
0.000292978
0.000265302
0.000227173
0.000184353
0.000145149
0.000113675
8.91915e-05
6.80976e-05
1.38632e-05
1.38135e-05
6.81795e-05
8.9304e-05
0.000114353
0.000147344
0.000188871
0.000231692
0.000268793
0.000296133
0.000310928
0.000311499
0.000296863
0.000268357
0.000229193
0.000185282
0.000146358
0.000113991
8.92262e-05
6.81376e-05
1.3849e-05
1.37824e-05
6.81353e-05
8.93075e-05
0.000114742
0.000147695
0.000189821
0.000233778
0.000272006
0.000300119
0.000314998
0.000314742
0.000299663
0.000270915
0.000231376
0.000186766
0.00014685
0.000114405
8.92429e-05
6.81413e-05
1.38113e-05
1.37562e-05
6.81671e-05
8.93213e-05
0.000115109
0.000148576
0.000189997
0.000235441
0.000274535
0.000303068
0.000318347
0.000318583
0.000303393
0.000274067
0.000234036
0.000188927
0.000147135
0.000114672
8.91508e-05
6.80418e-05
1.37632e-05
1.37288e-05
6.82244e-05
8.96091e-05
0.000115609
0.000150073
0.000192235
0.000237608
0.000277436
0.000306764
0.000322223
0.000322237
0.00030649
0.000276576
0.000235874
0.000189631
0.00014819
0.000115103
8.91853e-05
6.79821e-05
1.37306e-05
1.36972e-05
6.82126e-05
8.95892e-05
0.00011591
0.000150518
0.000191747
0.000238493
0.000279792
0.000309707
0.000325398
0.0003254
0.000309462
0.000279267
0.000238163
0.00019129
0.000149569
0.000115532
8.93154e-05
6.80352e-05
1.36965e-05
1.36662e-05
6.82948e-05
8.97204e-05
0.000116295
0.000150837
0.000193067
0.000238974
0.000281985
0.000312574
0.000328558
0.000328482
0.000312311
0.000281695
0.000240133
0.00019295
0.00015125
0.000115826
8.93688e-05
6.80576e-05
1.36529e-05
1.36144e-05
6.82148e-05
8.97782e-05
0.000116645
0.000150876
0.00019535
0.000242983
0.000284701
0.000315397
0.000331598
0.000331594
0.000315267
0.000284333
0.000242224
0.00019492
0.000151531
0.000115993
8.9227e-05
6.79054e-05
1.35888e-05
1.35663e-05
6.81687e-05
8.96986e-05
0.000116927
0.000151277
0.000194565
0.000242096
0.000285999
0.000318051
0.000334886
0.000334957
0.000318376
0.000286795
0.000243672
0.000194911
0.000151912
0.000116252
8.92684e-05
6.78959e-05
1.35382e-05
1.35068e-05
6.80787e-05
8.9544e-05
0.000117101
0.000152729
0.000196295
0.000241852
0.000287426
0.000320874
0.000338232
0.000338424
0.000321573
0.000289245
0.000244805
0.000195937
0.000152064
0.000116343
8.90199e-05
6.77088e-05
1.34541e-05
1.34294e-05
6.78672e-05
8.92702e-05
0.000117132
0.000154939
0.000199118
0.000243652
0.00028803
0.00032376
0.000341802
0.000342061
0.000324806
0.000291499
0.000244579
0.000195779
0.000152103
0.000116451
8.88575e-05
6.75833e-05
1.33838e-05
1.33596e-05
6.77016e-05
8.88355e-05
0.00011669
0.000154537
0.000199414
0.000245399
0.00029345
0.000327697
0.000345677
0.00034585
0.000328228
0.000294258
0.000246326
0.000197213
0.000152763
0.000116605
8.8557e-05
6.73348e-05
1.32954e-05
1.32606e-05
6.74834e-05
8.85208e-05
0.000116488
0.000154837
0.000200503
0.000247305
0.000294763
0.000330751
0.000349417
0.000349677
0.00033172
0.000297085
0.000248669
0.000199167
0.000152956
0.000116625
8.83223e-05
6.72557e-05
1.32246e-05
1.31408e-05
6.71852e-05
8.79632e-05
0.000115876
0.00015464
0.000201159
0.000250197
0.000295866
0.000333971
0.000353264
0.000353648
0.000335377
0.000299804
0.000251479
0.000202638
0.000154823
0.000116715
8.79444e-05
6.69889e-05
1.31055e-05
1.3008e-05
6.68718e-05
8.75575e-05
0.000115594
0.000154686
0.000201642
0.000249936
0.000297078
0.000336898
0.000357005
0.000357626
0.000339298
0.000303863
0.00025415
0.00020339
0.000157283
0.000116586
8.75351e-05
6.67976e-05
1.29974e-05
1.28518e-05
6.65234e-05
8.71413e-05
0.000115456
0.000154849
0.000202074
0.000252307
0.000299758
0.000339334
0.000360232
0.000361143
0.000342828
0.000307459
0.000258996
0.000205584
0.000157561
0.000116481
8.71822e-05
6.65264e-05
1.28496e-05
1.26676e-05
6.61422e-05
8.68871e-05
0.000116363
0.000156235
0.000205825
0.000257965
0.000303405
0.000340184
0.000361936
0.000363456
0.00034516
0.000309667
0.00026088
0.000206464
0.000158241
0.000116687
8.69593e-05
6.63488e-05
1.26946e-05
1.24528e-05
6.57112e-05
8.6586e-05
0.000117844
0.000158618
0.000207539
0.000259238
0.000307163
0.000346523
0.000364125
0.000364393
0.000345997
0.000310792
0.000262993
0.000209431
0.00015929
0.000117452
8.68377e-05
6.60457e-05
1.2466e-05
1.21925e-05
6.52209e-05
8.61329e-05
0.000118666
0.000160637
0.000212546
0.000264231
0.000311932
0.000348471
0.000371515
0.000372891
0.000354616
0.000319094
0.000270262
0.000213611
0.000161218
0.000118863
8.67901e-05
6.57357e-05
1.22168e-05
1.19018e-05
6.46819e-05
8.57813e-05
0.000119456
0.00016265
0.000215617
0.000269743
0.000318262
0.000354342
0.000373742
0.000374177
0.00035564
0.000320241
0.000272383
0.000219438
0.000164998
0.000120565
8.6689e-05
6.53216e-05
1.19132e-05
1.15784e-05
6.41402e-05
8.55402e-05
0.000121158
0.0001674
0.000222194
0.000277873
0.000327093
0.000362876
0.000382377
0.000382467
0.000363613
0.000327781
0.000278973
0.000223321
0.000167737
0.000121952
8.65733e-05
6.48888e-05
1.15767e-05
1.12339e-05
6.36087e-05
8.54802e-05
0.000122857
0.000173488
0.000230187
0.000289431
0.000338152
0.0003773
0.000393409
0.00039259
0.00037325
0.000336844
0.000287214
0.000230465
0.000173111
0.000124401
8.67835e-05
6.44377e-05
1.12194e-05
1.08842e-05
6.31842e-05
8.58461e-05
0.000125691
0.00017949
0.000240942
0.000301644
0.000352791
0.000390351
0.000409772
0.000409716
0.000390188
0.000352802
0.000301144
0.000240006
0.000180423
0.000127185
8.71499e-05
6.40382e-05
1.08597e-05
1.05489e-05
6.28511e-05
8.66158e-05
0.000129174
0.000185624
0.000250735
0.000313959
0.000366875
0.000404772
0.000424063
0.000423751
0.000403583
0.000365303
0.000312447
0.000249807
0.000186577
0.000130865
8.79134e-05
6.36193e-05
1.0516e-05
1.02704e-05
6.28065e-05
8.81756e-05
0.000134362
0.000195931
0.000264013
0.000328049
0.000382121
0.000421338
0.000441257
0.000440495
0.000419755
0.000380839
0.000327077
0.000263266
0.00019569
0.000135759
8.92621e-05
6.34379e-05
1.02476e-05
1.00377e-05
6.30072e-05
9.03854e-05
0.000140335
0.00020603
0.00027681
0.000343466
0.00039937
0.000439529
0.000460777
0.000461074
0.000440075
0.000399616
0.000343467
0.000276707
0.000205263
0.000141247
9.11704e-05
6.33787e-05
1.00258e-05
9.89566e-06
6.34654e-05
9.34695e-05
0.000147435
0.000217292
0.00029109
0.000360046
0.000417678
0.000458631
0.000480173
0.000480589
0.000459343
0.000418016
0.00036043
0.000291676
0.000217707
0.000148193
9.39637e-05
6.36557e-05
9.94941e-06
9.94024e-06
6.41267e-05
9.73794e-05
0.000156286
0.000229884
0.000306663
0.000377985
0.000437152
0.000478321
0.000499473
0.00050002
0.000478908
0.000437128
0.000377716
0.000306488
0.000230019
0.000156684
9.7604e-05
6.41734e-05
9.93816e-06
9.84873e-06
6.48997e-05
0.000102053
0.000165754
0.000243047
0.000322824
0.00039679
0.000458363
0.000502458
0.000525293
0.000523792
0.000502191
0.000458452
0.000396415
0.000322137
0.000242428
0.000165624
0.000101955
6.48784e-05
9.95294e-06
9.90533e-06
6.56576e-05
0.000106789
0.000174785
0.00025596
0.000339234
0.000416241
0.000480179
0.000526064
0.000550358
0.000550378
0.000526201
0.000480326
0.000415792
0.000338305
0.000255044
0.000174283
0.000106511
6.56453e-05
9.91794e-06
9.93147e-06
6.65252e-05
0.000111977
0.000184191
0.000269427
0.000356304
0.000436466
0.000503043
0.000551238
0.000575797
0.000575565
0.000550572
0.000502966
0.000435902
0.000355273
0.000268426
0.000183567
0.000111238
6.631e-05
9.93621e-06
1.01683e-05
6.69646e-05
0.000116743
0.000193797
0.000283034
0.00037358
0.00045697
0.000525999
0.000575641
0.000601123
0.000600588
0.000575187
0.000525827
0.000456291
0.000372508
0.000281888
0.000192957
0.000116488
6.67564e-05
1.01516e-05
1.03444e-05
6.72892e-05
0.000122114
0.000203243
0.000296415
0.000390664
0.000477274
0.000548855
0.000599604
0.000625762
0.000625764
0.000599091
0.00054811
0.000476589
0.000389991
0.000295766
0.000202752
0.000121737
6.70828e-05
1.0335e-05
1.06844e-05
6.74296e-05
0.000127385
0.000212889
0.00031022
0.000408181
0.000497627
0.000571056
0.000622881
0.000649527
0.000649425
0.000622611
0.000570823
0.000497341
0.000407808
0.000309777
0.000212503
0.000127186
6.73379e-05
1.06884e-05
1.11426e-05
6.77415e-05
0.000132595
0.000222882
0.00032466
0.0004265
0.000518808
0.000593925
0.000646567
0.000673432
0.000673302
0.000646225
0.000593689
0.000518571
0.000426228
0.000324413
0.000222757
0.000132585
6.77169e-05
1.11281e-05
1.17468e-05
6.86055e-05
0.000138775
0.000234122
0.00034049
0.000446231
0.000541207
0.000617672
0.000670652
0.000697533
0.00069743
0.00067034
0.000617389
0.000540951
0.000445999
0.000340265
0.000233908
0.000138625
6.85846e-05
1.17488e-05
1.2515e-05
6.98242e-05
0.000145616
0.000246449
0.000358231
0.000468269
0.000565723
0.000643017
0.000695933
0.000722659
0.000722671
0.00069595
0.000642977
0.000565582
0.00046803
0.000357951
0.00024622
0.000145488
6.97154e-05
1.25122e-05
1.34477e-05
7.12425e-05
0.000153839
0.000260948
0.000378756
0.000493216
0.000592627
0.000669731
0.000721438
0.000747182
0.000747185
0.000721445
0.000669742
0.00059263
0.0004932
0.000378711
0.000260884
0.000153803
7.12574e-05
1.3447e-05
1.45778e-05
7.45278e-05
0.000164206
0.00027858
0.000403351
0.000522235
0.000622612
0.000698071
0.000747245
0.000771234
0.000771231
0.000747234
0.000698046
0.000622559
0.000522142
0.000403234
0.000278495
0.000164207
7.45881e-05
1.45888e-05
1.58594e-05
7.9039e-05
0.000177136
0.000300364
0.000433166
0.000556094
0.000655857
0.000727647
0.000772588
0.000793905
0.000793901
0.000772574
0.000727623
0.000655825
0.000556054
0.000433129
0.000300344
0.000177135
7.90431e-05
1.58442e-05
1.7301e-05
8.63249e-05
0.0001943
0.000328516
0.000470336
0.000596075
0.000692516
0.000757842
0.000796499
0.000814178
0.000814176
0.00079649
0.000757824
0.000692487
0.000596014
0.000470254
0.000328432
0.000194273
8.63267e-05
1.7311e-05
1.88523e-05
9.66077e-05
0.000217026
0.000365081
0.000516246
0.000642525
0.000731884
0.00078736
0.00081752
0.00083047
0.000830465
0.00081751
0.000787349
0.000731883
0.000642538
0.000516239
0.000365052
0.00021697
9.6591e-05
1.88455e-05
2.04866e-05
0.000111944
0.000247983
0.000414001
0.000575226
0.000696704
0.000772851
0.000814606
0.000834155
0.000841074
0.000841075
0.000834155
0.000814601
0.000772854
0.000696705
0.000575206
0.000413987
0.000247995
0.000111931
2.04828e-05
2.20997e-05
0.000133007
0.000294172
0.000489114
0.000654487
0.000758139
0.000811792
0.000834851
0.000843833
0.00084729
0.000847293
0.00084384
0.000834857
0.000811763
0.00075807
0.000654397
0.000488995
0.000294039
0.000132902
2.21045e-05
2.37727e-05
0.000165897
0.000385656
0.000610128
0.000753926
0.000817149
0.000839101
0.00084637
0.000849857
0.000851177
0.000851174
0.000849844
0.000846325
0.000839035
0.000817136
0.000754011
0.000610264
0.000385822
0.000165975
2.37653e-05
2.56201e-05
0.000278688
0.000620078
0.000787392
0.000832431
0.000844997
0.000849595
0.000851572
0.000851944
0.000851953
0.000851953
0.000851942
0.000851556
0.000849563
0.000844926
0.000832332
0.000787335
0.000619952
0.000278621
2.56224e-05
4.10367e-05
0.000110696
0.00012861
0.000140205
0.000154951
0.000178778
0.000216708
0.000257673
0.000293945
0.000314649
0.000313847
0.000290738
0.000254474
0.000212299
0.000176896
0.000152511
0.000136552
0.000124661
0.00010813
4.01684e-05
4.04612e-05
0.000110513
0.000128509
0.000140385
0.000155488
0.000177769
0.000220627
0.000261857
0.000299068
0.000320116
0.0003195
0.000292428
0.000255788
0.000212284
0.000176354
0.00015573
0.000138827
0.000124319
0.000107465
3.97915e-05
4.07571e-05
0.000110197
0.000127268
0.000140598
0.000156277
0.000180584
0.000216747
0.000257514
0.000294855
0.000315616
0.000315044
0.000291849
0.000259411
0.000214446
0.000179302
0.000152345
0.000136376
0.000123583
0.000109209
4.00952e-05
4.14236e-05
0.00011191
0.000132297
0.000143433
0.000159432
0.000183021
0.00021732
0.000258096
0.000295759
0.000316099
0.000315822
0.00029183
0.000255928
0.000216832
0.000183462
0.000155095
0.000136232
0.000124089
0.000108037
4.07282e-05
4.09589e-05
0.000110352
0.000129723
0.000137451
0.000155034
0.000181531
0.000217952
0.000259096
0.000299715
0.000319018
0.000320079
0.000292355
0.000258055
0.000217114
0.000181868
0.000157115
0.000143316
0.0001249
0.000107582
4.02987e-05
4.04711e-05
0.000111333
0.000132637
0.000138588
0.000153344
0.000180221
0.000217705
0.000259714
0.000296283
0.000314783
0.000316089
0.000292637
0.000254748
0.000217756
0.000179637
0.000155341
0.000139484
0.000126729
0.000107284
4.00292e-05
4.13707e-05
0.00011001
0.000131703
0.000140381
0.000157558
0.000182796
0.000223173
0.000263015
0.000299187
0.000315043
0.000318707
0.000292553
0.000254265
0.000215203
0.000180008
0.000152445
0.000136961
0.000128195
0.000107424
3.96857e-05
4.07444e-05
0.000111937
0.000129144
0.000137849
0.000152771
0.000186044
0.000220367
0.000258958
0.000296009
0.000314873
0.000315931
0.000293755
0.000255008
0.000212757
0.000174937
0.00015305
0.000136275
0.000124465
0.000108199
3.95622e-05
4.11618e-05
0.000112363
0.000128067
0.000141239
0.000153475
0.000179402
0.000217329
0.000258635
0.000298359
0.000318543
0.000318086
0.000298444
0.000256498
0.000213542
0.000175991
0.000151676
0.000136288
0.000123671
0.000106531
3.96672e-05
4.0351e-05
0.00011078
0.000126185
0.000138093
0.000151184
0.000181458
0.000217664
0.000259167
0.000296498
0.000316353
0.000313452
0.000293808
0.000260003
0.000216867
0.000180605
0.000149897
0.000137253
0.000123332
0.000108235
3.99755e-05
4.05648e-05
0.000109595
0.00012852
0.000138999
0.000153192
0.000183545
0.000218313
0.000259894
0.000294735
0.000314731
0.000313646
0.000294011
0.000258363
0.00021382
0.000178799
0.000152315
0.000137663
0.000125084
0.00010852
4.03612e-05
4.03639e-05
0.000109209
0.000126068
0.000139197
0.000152447
0.000179289
0.000218095
0.000260133
0.00029382
0.000314465
0.000314617
0.000296563
0.000257119
0.000214972
0.000175377
0.000155065
0.000140145
0.000123651
0.000109279
4.00396e-05
4.06963e-05
0.000108951
0.000127421
0.000141254
0.000156583
0.000178781
0.00021887
0.000260853
0.000295045
0.000318258
0.000317659
0.000293791
0.000258267
0.000219895
0.000177582
0.000147227
0.000138324
0.000125514
0.000108873
3.95443e-05
4.02055e-05
0.000108977
0.000125102
0.00013425
0.000149275
0.000179295
0.000219859
0.000264089
0.000294766
0.000313871
0.000314582
0.000296736
0.000259713
0.00021929
0.000181433
0.000150155
0.000136912
0.000127161
0.000108566
3.99348e-05
3.9753e-05
0.000107687
0.000124794
0.000135488
0.000151499
0.000179892
0.000223887
0.000261753
0.000295608
0.000314548
0.000317658
0.000295071
0.00026203
0.000218829
0.000177408
0.000154653
0.000137143
0.000125881
0.000108393
4.05187e-05
3.98557e-05
0.000107806
0.0001234
0.000137413
0.000149188
0.000180687
0.000222591
0.000261623
0.000296321
0.000317131
0.000316426
0.000297376
0.000259478
0.000215715
0.000175207
0.000149289
0.000139262
0.000124099
0.000108307
4.00588e-05
3.9986e-05
0.000108349
0.000124457
0.000133901
0.000148107
0.000177789
0.000221914
0.000264369
0.000298717
0.000314453
0.000319755
0.000292548
0.000255108
0.000212943
0.000177437
0.000153724
0.000137737
0.000125775
0.000110544
4.07782e-05
4.00801e-05
0.000108286
0.000126
0.000135772
0.000148673
0.00017816
0.00021907
0.000260817
0.00029681
0.000313757
0.00031525
0.000293364
0.000255941
0.000213478
0.00018119
0.000155261
0.000135231
0.0001255
0.000108297
4.0783e-05
4.07448e-05
0.000109367
0.000127741
0.000136069
0.000152716
0.000181753
0.000221915
0.000258149
0.000296923
0.000316359
0.000312291
0.00029567
0.000256702
0.000213158
0.000177246
0.000155813
0.000134692
0.00012616
0.000108312
4.02479e-05
4.05155e-05
0.000109888
0.000125309
0.00013584
0.000150887
0.0001796
0.000216576
0.000257247
0.000292876
0.000312016
0.000311905
0.000292873
0.000260482
0.000217475
0.000177318
0.000152547
0.000134328
0.000127719
0.000108922
3.96947e-05
4.05399e-05
0.000108858
0.000126574
0.000138058
0.000151783
0.000181009
0.000216858
0.000258109
0.000294173
0.000312273
0.000312245
0.000295491
0.000259254
0.000214013
0.000177246
0.00014813
0.000134306
0.000125596
0.000108981
4.00217e-05
3.99405e-05
0.000109029
0.000124782
0.000132631
0.000149662
0.000180435
0.000216597
0.000257082
0.00029366
0.000313027
0.000312949
0.000293941
0.000259291
0.000214889
0.000181303
0.000154641
0.000133983
0.000126844
0.000109126
4.06255e-05
4.04985e-05
0.000109312
0.000124948
0.000137738
0.000151176
0.000181253
0.000217114
0.00025739
0.000294738
0.000313686
0.000312884
0.000291189
0.000257894
0.000216264
0.00017611
0.000150724
0.000133541
0.000125039
0.000107663
3.9929e-05
4.05693e-05
0.000108276
0.000124486
0.000136762