/*--------------------------------*- C++ -*----------------------------------*\
  =========                 |
  \\      /  F ield         | OpenFOAM: The Open Source CFD Toolbox
   \\    /   O peration     | Website:  https://openfoam.org
    \\  /    A nd           | Version:  6
     \\/     M anipulation  |
\*---------------------------------------------------------------------------*/
FoamFile
{
    version     2.0;
    format      ascii;
    class       volScalarField;
    location    "21";
    object      p;
}
// * * * * * * * * * * * * * * * * * * * * * * * * * * * * * * * * * * * * * //

dimensions      [0 2 -2 0 0 0 0];

internalField   nonuniform List<scalar> 
10000
(
0.0163245
0.0138882
0.0129807
0.0135071
0.0126366
0.0117501
0.0114602
0.011682
0.0121715
0.0124303
0.0123657
0.0116777
0.0100727
0.00758056
0.00417737
0.000708941
-0.00233234
-0.00467585
-0.00136082
0.00565896
0.0280814
0.0253203
0.0304671
0.0413627
0.0500012
0.0547704
0.0567431
0.0576497
0.0583359
0.0586618
0.0588074
0.0581016
0.0571601
0.0551176
0.0516792
0.0456276
0.0363562
0.026634
0.0228734
0.0251884
0.0708924
0.0664267
0.0667932
0.0735812
0.082884
0.0917926
0.0987184
0.103358
0.106118
0.107471
0.107746
0.10698
0.105089
0.102417
0.0992956
0.0960429
0.0930171
0.0909476
0.0892135
0.0871771
0.131649
0.131482
0.131764
0.135579
0.14182
0.148074
0.153215
0.156922
0.159273
0.160601
0.161102
0.161025
0.160517
0.159694
0.15853
0.157325
0.155713
0.153679
0.151674
0.149595
0.210688
0.215696
0.2167
0.215286
0.214398
0.214232
0.214906
0.215823
0.216765
0.217442
0.217952
0.218531
0.219179
0.220456
0.222161
0.224353
0.22668
0.227985
0.226337
0.222294
0.275142
0.279208
0.281013
0.279358
0.276664
0.274273
0.272893
0.272357
0.272436
0.27279
0.273235
0.273898
0.275125
0.277236
0.280351
0.284281
0.287964
0.28994
0.288666
0.285676
0.322483
0.321185
0.321063
0.320509
0.320015
0.320437
0.321375
0.322558
0.323749
0.324821
0.325892
0.32713
0.328529
0.330148
0.331732
0.333094
0.333971
0.333841
0.33343
0.334642
0.370968
0.368284
0.367884
0.368594
0.369553
0.371268
0.373128
0.374895
0.376262
0.377386
0.378113
0.378618
0.379008
0.378951
0.37831
0.377112
0.375776
0.374571
0.374483
0.376811
0.431166
0.431021
0.431787
0.43269
0.43296
0.43254
0.432022
0.431769
0.431761
0.431737
0.431544
0.430965
0.429624
0.427368
0.424194
0.420159
0.416154
0.413672
0.414688
0.418447
0.496993
0.499067
0.49983
0.498833
0.496864
0.494072
0.49154
0.489731
0.488659
0.488053
0.487628
0.486849
0.485677
0.483801
0.481365
0.478649
0.475902
0.474526
0.47541
0.476897
0.55285
0.552319
0.551972
0.551545
0.550522
0.548929
0.547205
0.545821
0.544888
0.544389
0.544144
0.544257
0.544516
0.54544
0.546972
0.549135
0.551669
0.553848
0.553211
0.548956
0.604834
0.603447
0.602339
0.60201
0.601993
0.601707
0.601029
0.600361
0.599795
0.599533
0.599414
0.599645
0.600345
0.601673
0.603779
0.606712
0.609969
0.6125
0.61248
0.610004
0.653369
0.651121
0.649383
0.64952
0.650965
0.652516
0.653575
0.65406
0.654209
0.654215
0.654362
0.654664
0.655031
0.655546
0.656233
0.656989
0.657823
0.658558
0.659315
0.660929
0.704204
0.704337
0.704992
0.706482
0.70815
0.709276
0.70975
0.709824
0.709731
0.70971
0.70982
0.709979
0.710386
0.710658
0.710843
0.710801
0.71066
0.710677
0.710727
0.711597
0.756653
0.760737
0.763598
0.764146
0.763829
0.763351
0.763138
0.763069
0.763142
0.763239
0.763497
0.763892
0.764296
0.764619
0.76454
0.763603
0.762246
0.761143
0.760916
0.761902
0.804303
0.803565
0.803566
0.805093
0.807522
0.81026
0.812559
0.814096
0.814996
0.815606
0.81604
0.816331
0.816781
0.817168
0.817463
0.817389
0.816905
0.816188
0.815478
0.815265
0.862375
0.862579
0.861678
0.860644
0.861155
0.862852
0.864696
0.866147
0.867046
0.867417
0.867369
0.867088
0.866386
0.865669
0.865056
0.864902
0.865432
0.865801
0.865057
0.863274
0.919379
0.91937
0.918792
0.917377
0.916638
0.9171
0.918284
0.919628
0.920663
0.921148
0.921111
0.920366
0.918985
0.916454
0.912773
0.908489
0.904223
0.901363
0.902343
0.905773
0.982027
0.982023
0.981935
0.980594
0.978852
0.977656
0.977221
0.977414
0.97787
0.97822
0.978424
0.978374
0.977921
0.976988
0.975534
0.973535
0.97156
0.970627
0.970922
0.971101
1.05113
1.05146
1.05115
1.04909
1.04575
1.04233
1.03969
1.03819
1.03749
1.03732
1.03727
1.03742
1.03811
1.03966
1.04257
1.04672
1.0512
1.05428
1.05295
1.04744
1.11302
1.1132
1.11268
1.11065
1.1072
1.10327
1.09987
1.09737
1.09589
1.09511
1.09489
1.09519
1.09589
1.0976
1.10044
1.10431
1.10854
1.11121
1.11077
1.10847
1.15921
1.15774
1.15753
1.15776
1.15728
1.15594
1.15428
1.15259
1.15137
1.15075
1.15075
1.15108
1.15198
1.15292
1.15365
1.15388
1.15344
1.1526
1.1529
1.15583
1.2006
1.19842
1.19851
1.20062
1.2029
1.20406
1.2043
1.20391
1.20344
1.20315
1.20327
1.20382
1.20466
1.20557
1.20623
1.20606
1.205
1.20346
1.2027
1.20399
1.24779
1.24735
1.24675
1.24743
1.24925
1.25104
1.25254
1.25354
1.25404
1.25432
1.2544
1.25431
1.25401
1.2533
1.25247
1.25184
1.25139
1.25114
1.25075
1.25
1.29729
1.2962
1.29468
1.29593
1.29893
1.30196
1.30446
1.30597
1.30666
1.30674
1.30659
1.30609
1.30489
1.30284
1.29986
1.29619
1.29276
1.29087
1.29148
1.29307
1.35425
1.35604
1.35691
1.35758
1.3587
1.36001
1.36115
1.3618
1.36202
1.3618
1.36122
1.36012
1.35868
1.35663
1.35405
1.35114
1.34819
1.34596
1.34569
1.34646
1.41621
1.41972
1.42183
1.42076
1.41902
1.41804
1.41772
1.41778
1.41801
1.41799
1.41773
1.41722
1.41636
1.41543
1.41458
1.41412
1.41395
1.41341
1.41291
1.41188
1.47671
1.47992
1.48173
1.48062
1.47832
1.47621
1.47492
1.47446
1.47452
1.4748
1.47512
1.47548
1.47627
1.47756
1.4796
1.48232
1.48498
1.4866
1.48629
1.48375
1.52949
1.52853
1.52905
1.52991
1.53009
1.53
1.52982
1.52974
1.52994
1.53041
1.53113
1.53223
1.53382
1.53637
1.53986
1.54402
1.548
1.55048
1.55026
1.54759
1.58422
1.58294
1.58312
1.5837
1.58402
1.58439
1.58468
1.58493
1.58525
1.58575
1.58651
1.58752
1.58901
1.59067
1.59244
1.59405
1.59504
1.59516
1.59535
1.59636
1.64082
1.6392
1.63853
1.63907
1.63958
1.63997
1.6401
1.64013
1.64008
1.64003
1.64008
1.64032
1.64056
1.64063
1.64027
1.63913
1.63767
1.63655
1.63689
1.63894
1.70013
1.70086
1.70142
1.70189
1.70146
1.70019
1.69841
1.69667
1.69524
1.6942
1.69324
1.69221
1.69087
1.68881
1.68587
1.68195
1.67775
1.67522
1.67632
1.67926
1.74972
1.75282
1.75454
1.75406
1.75254
1.75091
1.74958
1.74855
1.74784
1.74739
1.74708
1.74665
1.74563
1.74401
1.74167
1.73866
1.73548
1.73346
1.73342
1.73344
1.78938
1.78548
1.7837
1.78534
1.78864
1.79266
1.79624
1.79884
1.80032
1.80137
1.80204
1.80265
1.80319
1.80383
1.80472
1.80597
1.80734
1.80814
1.8059
1.8004
1.85019
1.84888
1.84742
1.84768
1.8496
1.85204
1.85425
1.85584
1.85682
1.85734
1.85769
1.8581
1.85851
1.85925
1.86026
1.86161
1.86301
1.86369
1.86236
1.85931
1.92267
1.92776
1.92954
1.92755
1.92429
1.92062
1.91786
1.91608
1.91516
1.91456
1.9142
1.91377
1.91355
1.91329
1.913
1.91274
1.91232
1.91174
1.9117
1.9125
1.98134
1.98443
1.98595
1.9845
1.98132
1.97753
1.97431
1.97199
1.97057
1.96968
1.96921
1.96898
1.96893
1.96895
1.96903
1.96912
1.9692
1.96908
1.96859
1.96794
2.02628
2.02512
2.02526
2.0263
2.02693
2.02694
2.02615
2.02506
2.02398
2.02332
2.02283
2.02257
2.02242
2.02224
2.02206
2.02187
2.02154
2.02104
2.02036
2.01958
2.06992
2.06938
2.06986
2.07179
2.0741
2.07617
2.07731
2.07772
2.07758
2.07733
2.07709
2.07699
2.07671
2.0763
2.07553
2.0744
2.07309
2.07186
2.07109
2.07051
2.11906
2.1185
2.11812
2.11998
2.1231
2.12649
2.12925
2.13124
2.13235
2.13305
2.13345
2.1339
2.13429
2.1345
2.13419
2.13323
2.13176
2.13043
2.12963
2.12894
2.18353
2.18579
2.18652
2.18717
2.18786
2.18849
2.18899
2.18946
2.18992
2.19044
2.19109
2.1922
2.19363
2.19559
2.19765
2.19956
2.20095
2.20136
2.1999
2.19706
2.25134
2.2574
2.26
2.25814
2.25447
2.2509
2.24837
2.24693
2.2462
2.2461
2.24621
2.24686
2.24799
2.24991
2.25277
2.25657
2.26058
2.26295
2.26108
2.25615
2.30445
2.30521
2.30637
2.30668
2.30573
2.30426
2.30266
2.30114
2.29993
2.29905
2.29845
2.29792
2.2971
2.29582
2.29389
2.29169
2.28952
2.28774
2.28798
2.29046
2.35296
2.35312
2.35425
2.3554
2.3561
2.35614
2.35548
2.35444
2.35333
2.35233
2.35144
2.35039
2.3489
2.34634
2.34217
2.33646
2.33011
2.32555
2.32595
2.33027
2.39769
2.3964
2.39636
2.39855
2.4014
2.404
2.40572
2.40669
2.40702
2.40706
2.4069
2.40659
2.40583
2.40478
2.40319
2.401
2.39866
2.39729
2.39626
2.3941
2.45298
2.45266
2.45239
2.45439
2.45738
2.4602
2.46213
2.4634
2.46404
2.46463
2.46502
2.4656
2.46632
2.46747
2.46909
2.47143
2.47419
2.47626
2.47428
2.46793
2.52062
2.52473
2.52571
2.52488
2.52395
2.52329
2.52282
2.52255
2.52242
2.52244
2.52268
2.52347
2.52481
2.52707
2.53011
2.53386
2.53743
2.53922
2.53747
2.53309
2.58324
2.58699
2.5891
2.58872
2.58661
2.58406
2.58186
2.58021
2.57916
2.57866
2.57868
2.57929
2.58042
2.58193
2.5836
2.58521
2.58629
2.58627
2.58588
2.58617
2.63627
2.63851
2.64015
2.64052
2.63936
2.63739
2.63545
2.63396
2.63294
2.63246
2.63242
2.63279
2.63326
2.63378
2.63405
2.63387
2.63342
2.63282
2.63252
2.63282
2.68658
2.6841
2.68187
2.68226
2.68395
2.68573
2.68689
2.68748
2.68749
2.6874
2.68711
2.68679
2.68609
2.6848
2.68262
2.67981
2.67696
2.67507
2.67532
2.67647
2.74896
2.74881
2.74785
2.74766
2.74814
2.74855
2.74841
2.74797
2.7473
2.74671
2.74619
2.74584
2.74522
2.74421
2.74242
2.74011
2.73766
2.73596
2.73575
2.73521
2.81206
2.81739
2.82066
2.82089
2.81895
2.81564
2.81224
2.80955
2.80768
2.80684
2.80662
2.80722
2.80839
2.81034
2.81264
2.81505
2.81682
2.81734
2.81492
2.80879
2.85934
2.86286
2.8648
2.86558
2.86558
2.86488
2.86387
2.86299
2.8624
2.86247
2.86311
2.86472
2.86706
2.87057
2.87459
2.87873
2.88186
2.88263
2.87984
2.87419
2.90541
2.90459
2.90364
2.90499
2.90823
2.91183
2.91446
2.91604
2.91672
2.91728
2.9178
2.91872
2.91989
2.92149
2.92317
2.92488
2.92626
2.92629
2.92477
2.92278
2.9715
2.9745
2.97575
2.97597
2.97647
2.97671
2.9764
2.97578
2.97508
2.97442
2.97398
2.97367
2.97314
2.97187
2.96933
2.96546
2.96114
2.95785
2.95826
2.96138
3.039
3.0462
3.04966
3.04823
3.04505
3.04142
3.03819
3.03561
3.03379
3.03244
3.03146
3.03057
3.02958
3.02789
3.02507
3.02122
3.01704
3.01449
3.01475
3.01525
3.09009
3.09146
3.09284
3.09386
3.094
3.09377
3.0931
3.09218
3.0912
3.09054
3.09011
3.09011
3.09016
3.0905
3.09089
3.09129
3.09138
3.09119
3.08926
3.08373
3.14246
3.14313
3.14499
3.14787
3.1498
3.15061
3.1504
3.14982
3.14909
3.14877
3.14876
3.14938
3.15048
3.1523
3.15463
3.1574
3.15974
3.16068
3.15843
3.15243
3.2009
3.20493
3.20715
3.2081
3.20862
3.20878
3.20858
3.20815
3.20763
3.20742
3.20756
3.20835
3.20953
3.21151
3.21392
3.21666
3.21937
3.22113
3.21994
3.216
3.2627
3.26403
3.2638
3.26414
3.26517
3.26642
3.26731
3.26777
3.26799
3.26834
3.26911
3.27048
3.27249
3.27475
3.27642
3.27706
3.27653
3.27556
3.27493
3.27482
3.33531
3.33901
3.34044
3.3403
3.33892
3.33652
3.33386
3.33169
3.33037
3.32996
3.33046
3.33201
3.33435
3.33729
3.34013
3.34212
3.34307
3.34286
3.34116
3.33823
3.39815
3.40479
3.40818
3.40727
3.40392
3.39947
3.3952
3.39175
3.3894
3.38829
3.38805
3.38862
3.38976
3.39135
3.39316
3.39513
3.39689
3.3974
3.39527
3.39053
3.43854
3.43859
3.44017
3.44337
3.44619
3.44778
3.44789
3.44687
3.44551
3.44449
3.44405
3.44411
3.44407
3.44334
3.4412
3.43741
3.43275
3.42876
3.42815
3.42938
3.48321
3.48457
3.48677
3.49107
3.49608
3.49996
3.50188
3.50222
3.50186
3.50143
3.5014
3.50152
3.50178
3.50134
3.4996
3.49644
3.49214
3.48859
3.48698
3.48485
3.54071
3.54534
3.54773
3.55008
3.55324
3.55609
3.55804
3.55914
3.55967
3.5601
3.56069
3.56168
3.56267
3.56383
3.56487
3.56548
3.56548
3.56444
3.56031
3.55121
3.61243
3.6168
3.61826
3.61978
3.62155
3.62286
3.62337
3.62324
3.62279
3.62236
3.62225
3.62234
3.62285
3.62335
3.62359
3.62341
3.62267
3.621
3.61716
3.60963
3.69232
3.69944
3.70213
3.70163
3.69948
3.69633
3.69293
3.68974
3.68729
3.68542
3.68435
3.68373
3.68332
3.68266
3.68142
3.67915
3.67626
3.67304
3.67032
3.66679
3.75481
3.76197
3.765
3.76467
3.76234
3.75894
3.75521
3.75169
3.74903
3.74718
3.74632
3.7459
3.7462
3.74641
3.74637
3.74582
3.74455
3.74266
3.74004
3.73521
3.79476
3.79587
3.79632
3.79897
3.80234
3.80523
3.8067
3.80681
3.80625
3.80579
3.80583
3.80666
3.80798
3.80982
3.81181
3.81327
3.81404
3.81382
3.8123
3.80724
3.841
3.84013
3.83915
3.84291
3.84932
3.85616
3.86125
3.86415
3.86535
3.86592
3.86651
3.86737
3.86887
3.87072
3.87298
3.87549
3.87774
3.87926
3.87923
3.87475
3.91387
3.9199
3.92015
3.91981
3.92122
3.92369
3.92617
3.92783
3.92865
3.9289
3.92913
3.92968
3.93019
3.93078
3.93136
3.93183
3.93251
3.93361
3.93504
3.93237
4.00015
4.01137
4.01309
4.00877
4.00338
3.99923
3.99706
3.99609
3.99579
3.99551
3.99563
3.99588
3.99679
3.99758
3.99776
3.99697
3.99505
3.99363
3.99467
3.99298
4.08167
4.09155
4.09304
4.08791
4.07996
4.07267
4.06776
4.06509
4.06389
4.06365
4.06414
4.06563
4.06784
4.07116
4.07499
4.07848
4.08131
4.08314
4.08209
4.07357
4.1537
4.16009
4.1607
4.15752
4.1511
4.14421
4.13836
4.13448
4.13232
4.1318
4.13242
4.1342
4.13747
4.14235
4.14872
4.15607
4.1629
4.16708
4.1648
4.15271
4.21785
4.22631
4.22908
4.22774
4.22251
4.21533
4.20838
4.20311
4.19976
4.19822
4.19809
4.19965
4.20234
4.2066
4.21186
4.2174
4.22213
4.22428
4.22205
4.21216
4.26888
4.27821
4.28238
4.28446
4.28303
4.27857
4.27318
4.26852
4.26542
4.26388
4.26388
4.265
4.26729
4.26986
4.27204
4.27301
4.27215
4.27015
4.2681
4.2615
4.3174
4.32917
4.33553
4.34083
4.34294
4.34104
4.33713
4.33319
4.33047
4.32932
4.32977
4.33177
4.33478
4.3384
4.3417
4.34318
4.34211
4.33898
4.33394
4.32244
4.36945
4.38592
4.39496
4.40116
4.4044
4.40377
4.40092
4.3978
4.39556
4.39476
4.39538
4.39742
4.40096
4.40542
4.41027
4.41404
4.41489
4.41183
4.40292
4.38474
4.42201
4.43855
4.44899
4.45791
4.46436
4.46642
4.46525
4.46271
4.46044
4.4592
4.45924
4.46065
4.4629
4.46563
4.46786
4.46808
4.46501
4.45869
4.4489
4.43232
4.47834
4.49629
4.5083
4.51833
4.52584
4.52902
4.5287
4.52661
4.52453
4.5232
4.52307
4.52367
4.52476
4.52484
4.52296
4.51772
4.50882
4.49871
4.48935
4.47648
4.53357
4.54922
4.55928
4.56902
4.57811
4.58419
4.58697
4.5875
4.58706
4.5867
4.58686
4.5875
4.58806
4.58747
4.58488
4.57901
4.57007
4.56057
4.55035
4.53484
4.60097
4.6103
4.61554
4.62416
4.63533
4.64498
4.65102
4.65389
4.65456
4.65451
4.65416
4.65368
4.65271
4.65047
4.64675
4.64083
4.6335
4.62664
4.61745
4.601
4.69593
4.70568
4.708
4.71028
4.71594
4.72175
4.72557
4.7272
4.72733
4.72665
4.72579
4.72455
4.7226
4.71883
4.71278
4.7042
4.69466
4.68802
4.68304
4.67405
4.79894
4.80821
4.80748
4.80254
4.8009
4.80132
4.80233
4.80283
4.80269
4.80192
4.80099
4.79971
4.798
4.79524
4.79154
4.78704
4.78362
4.7844
4.7837
4.77587
4.89507
4.89541
4.88908
4.88115
4.87817
4.87849
4.87999
4.88109
4.88128
4.88074
4.87977
4.8786
4.87742
4.87654
4.87668
4.87926
4.88546
4.89582
4.89998
4.89374
5.00314
5.00308
4.99521
4.98152
4.97253
4.96753
4.96518
4.96423
4.96373
4.96334
4.96312
4.96355
4.96459
4.96704
4.97124
4.97826
4.98912
5.00409
5.01302
5.0143
5.11647
5.11963
5.11281
5.09293
5.07564
5.06286
5.05485
5.05076
5.04911
5.04891
5.04972
5.05212
5.05666
5.06453
5.07612
5.09235
5.11235
5.13411
5.1424
5.14121
5.21849
5.22414
5.22306
5.20309
5.18248
5.16459
5.15129
5.14287
5.1384
5.13706
5.13787
5.14182
5.14874
5.16061
5.17776
5.19991
5.2245
5.24622
5.24645
5.23945
5.28956
5.30273
5.31682
5.30422
5.28526
5.26506
5.24752
5.23466
5.22713
5.22409
5.22476
5.2292
5.23763
5.25033
5.26595
5.28244
5.29572
5.303
5.28905
5.2813
5.3087
5.32638
5.36041
5.36385
5.35746
5.34478
5.33042
5.318
5.30987
5.30618
5.30629
5.3104
5.31766
5.32737
5.33689
5.34241
5.34193
5.3349
5.30261
5.28831
5.29959
5.31236
5.3632
5.38361
5.39713
5.40194
5.39902
5.3926
5.38706
5.38404
5.38378
5.38569
5.38925
5.39198
5.39121
5.38439
5.37191
5.35477
5.30543
5.29005
5.33585
5.3338
5.39354
5.41328
5.43325
5.44991
5.45828
5.45947
5.45805
5.4568
5.45672
5.45764
5.45784
5.45513
5.44686
5.43183
5.41486
5.39697
5.33657
5.33667
5.47901
5.44106
5.50048
5.49744
5.50035
5.51197
5.52217
5.5264
5.52699
5.52655
5.52657
5.52649
5.52581
5.52201
5.51458
5.50675
5.5064
5.50961
5.44813
5.48503
5.73694
5.632
5.6935
5.65578
5.62172
5.60893
5.60642
5.6047
5.60223
5.60043
5.60018
5.602
5.6041
5.60671
5.61154
5.62643
5.66157
5.69998
5.63812
5.74228
6.03366
5.81956
5.90345
5.84412
5.77513
5.7343
5.71414
5.70293
5.69564
5.69163
5.69117
5.69457
5.70167
5.71376
5.73468
5.77623
5.84466
5.9036
5.81889
6.03128
6.24146
5.85105
5.99408
5.95649
5.88538
5.83716
5.81211
5.79856
5.78996
5.78555
5.78488
5.7892
5.7971
5.81128
5.8368
5.88408
5.95332
5.98808
5.84301
6.23313
6.35164
5.68769
5.93003
5.95507
5.90991
5.87154
5.85118
5.84091
5.83444
5.83118
5.83126
5.83472
5.84149
5.85278
5.87332
5.91042
5.9533
5.92566
5.68352
6.35107
6.66059
5.56782
5.90842
5.97295
5.92469
5.87788
5.85267
5.83969
5.83182
5.82795
5.82825
5.83296
5.84076
5.85583
5.87933
5.92625
5.97036
5.90704
5.57015
6.668
7.72812
5.67836
5.94867
6.04135
5.99079
5.93719
5.90974
5.89601
5.88848
5.88417
5.88467
5.88769
5.89448
5.90909
5.93517
5.98983
6.04155
5.95124
5.68168
7.72597
9.7133
5.30309
5.3978
5.78433
5.87686
5.87668
5.87393
5.87316
5.87182
5.87065
5.87066
5.87178
5.87297
5.87392
5.8765
5.87675
5.78431
5.398
5.30336
9.7131
-0.00983979
0.00724512
0.00585783
0.0182856
0.0154015
0.00905054
0.00671757
0.00788281
0.00985144
0.0109164
0.0110815
0.0103081
0.00887354
0.00782988
0.00831454
0.0109105
0.00940141
-0.0033944
0.00285181
-0.00369401
0.0754455
0.095084
0.101863
0.123861
0.134404
0.133673
0.129454
0.126777
0.125629
0.12421
0.122377
0.118796
0.115275
0.111279
0.107701
0.100909
0.0857822
0.0667062
0.0643339
0.0449899
0.290447
0.272498
0.268236
0.269573
0.266136
0.258956
0.251202
0.244744
0.23993
0.235606
0.230436
0.223216
0.212421
0.197562
0.178616
0.158891
0.145349
0.140116
0.138726
0.138051
0.423616
0.399155
0.383565
0.37863
0.37566
0.370266
0.363778
0.357607
0.352511
0.34747
0.341504
0.332801
0.320099
0.301082
0.273789
0.23767
0.195515
0.15837
0.148531
0.160719
0.48314
0.464351
0.449075
0.451384
0.463914
0.475672
0.480636
0.479676
0.476052
0.471849
0.466704
0.460365
0.452042
0.442083
0.430538
0.416785
0.40076
0.384489
0.367012
0.353298
0.572972
0.570521
0.565339
0.570178
0.582004
0.592718
0.598668
0.600469
0.599164
0.597221
0.594009
0.591005
0.588495
0.589443
0.596693
0.612488
0.633351
0.646821
0.634059
0.602364
0.721538
0.73533
0.731116
0.715351
0.70726
0.706663
0.710523
0.715128
0.718218
0.71956
0.719857
0.720754
0.722391
0.726566
0.734624
0.748477
0.764228
0.772415
0.771433
0.763432
0.838895
0.851321
0.852532
0.846748
0.840912
0.838117
0.838104
0.839223
0.840444
0.841045
0.841742
0.842817
0.845415
0.84858
0.851541
0.852425
0.850481
0.846591
0.850309
0.862022
0.955602
0.979064
0.997982
0.998547
0.988979
0.978345
0.970871
0.966106
0.963544
0.961712
0.960394
0.959016
0.957658
0.956292
0.953772
0.948151
0.941044
0.935519
0.937879
0.948929
1.03612
1.04452
1.05981
1.07022
1.07714
1.08294
1.08686
1.08878
1.08941
1.08901
1.08777
1.08525
1.08106
1.07378
1.06181
1.04533
1.02559
1.00857
1.00834
1.02116
1.18216
1.16756
1.17338
1.19464
1.21485
1.22872
1.23466
1.23593
1.23472
1.23265
1.22993
1.22643
1.221
1.2135
1.20379
1.19207
1.17838
1.16536
1.15939
1.15765
1.44376
1.445
1.44682
1.44157
1.42995
1.41644
1.40469
1.39582
1.38872
1.3837
1.37966
1.37668
1.37416
1.37258
1.37265
1.37577
1.3824
1.3901
1.38493
1.36419
1.61321
1.62624
1.62016
1.59872
1.5724
1.55093
1.53686
1.52821
1.52256
1.51951
1.51883
1.5216
1.52814
1.53895
1.55208
1.56472
1.57431
1.57995
1.57937
1.56977
1.65656
1.64511
1.63706
1.64488
1.64857
1.646
1.6408
1.63661
1.63398
1.6336
1.6349
1.63906
1.64699
1.6603
1.67974
1.70421
1.72942
1.74818
1.75438
1.75184
1.69392
1.68709
1.68375
1.69288
1.70597
1.71606
1.72296
1.72773
1.73125
1.73383
1.73601
1.73837
1.7399
1.74098
1.74231
1.74724
1.75802
1.77201
1.79014
1.80894
1.70278
1.69889
1.70026
1.72221
1.75595
1.78901
1.81375
1.82882
1.83762
1.84238
1.84513
1.84541
1.84317
1.83574
1.82164
1.80018
1.77434
1.75672
1.76967
1.802
1.81399
1.82682
1.84238
1.86545
1.89322
1.91899
1.93967
1.9542
1.96375
1.96926
1.97237
1.97256
1.96909
1.96106
1.94909
1.93249
1.914
1.9017
1.89886
1.89974
2.04813
2.07695
2.09268
2.09038
2.08625
2.08618
2.09069
2.09742
2.10368
2.10817
2.11077
2.11171
2.11142
2.10994
2.10764
2.10622
2.10767
2.11211
2.10309
2.07709
2.30386
2.31558
2.31743
2.30401
2.28319
2.26619
2.2561
2.25142
2.24999
2.2495
2.24904
2.2486
2.24921
2.25246
2.25759
2.26416
2.27053
2.27279
2.26498
2.24694
2.52251
2.51964
2.51044
2.48984
2.46061
2.433
2.41277
2.40003
2.39292
2.38884
2.38607
2.38343
2.38135
2.38047
2.38226
2.38814
2.39715
2.40227
2.39907
2.39042
2.64445
2.61957
2.60163
2.59402
2.58246
2.56557
2.54814
2.53467
2.52629
2.52138
2.51919
2.51814
2.51771
2.51637
2.51403
2.50969
2.50394
2.49611
2.49401
2.4991
2.72226
2.702
2.68699
2.68164
2.67851
2.67339
2.66587
2.65816
2.65239
2.64917
2.64792
2.64779
2.64861
2.64916
2.64992
2.65056
2.65134
2.65114
2.64714
2.6438
2.75501
2.73639
2.72649
2.73756
2.75563
2.77083
2.77949
2.78137
2.77991
2.77824
2.77747
2.77727
2.77692
2.77669
2.77691
2.77699
2.77595
2.77348
2.77211
2.77421
2.84637
2.84937
2.85242
2.86605
2.88458
2.8996
2.90876
2.91254
2.91271
2.9118
2.91124
2.91153
2.91263
2.91326
2.91262
2.9099
2.90483
2.8989
2.89824
2.90279
3.01742
3.04689
3.05421
3.04584
3.04119
3.04088
3.04188
3.04237
3.04213
3.04132
3.04125
3.04243
3.04515
3.04868
3.05182
3.05287
3.05109
3.0473
3.04589
3.04672
3.17268
3.19489
3.19912
3.18914
3.17743
3.17039
3.16649
3.16405
3.16241
3.1613
3.16092
3.16133
3.16344
3.16729
3.17409
3.18456
3.19785
3.20857
3.20995
3.20243
3.27437
3.28825
3.29294
3.28837
3.28037
3.27527
3.27334
3.27293
3.27301
3.27286
3.27212
3.27113
3.26903
3.26673
3.26519
3.26794
3.27851
3.29374
3.30132
3.29378
3.30749
3.30195
3.30582
3.3245
3.34409
3.36213
3.37638
3.38543
3.39019
3.39212
3.39258
3.39144
3.38885
3.38266
3.37022
3.34906
3.32055
3.29696
3.3
3.31798
3.41182
3.41571
3.43106
3.45571
3.47786
3.49575
3.5088
3.5177
3.52283
3.5256
3.52717
3.52812
3.52793
3.52586
3.52134
3.51265
3.49978
3.48723
3.47805
3.47429
3.6215
3.64605
3.6638
3.66566
3.66306
3.66005
3.65902
3.66058
3.66272
3.66484
3.66626
3.66798
3.67013
3.67396
3.68098
3.6927
3.70765
3.71983
3.71305
3.68973
3.83138
3.84314
3.84687
3.84053
3.82875
3.81704
3.80861
3.80421
3.80258
3.80243
3.80284
3.80446
3.80748
3.81413
3.82503
3.84002
3.8564
3.86808
3.8677
3.85326
4.01215
4.01629
4.01198
3.99846
3.97896
3.96143
3.94911
3.94144
3.93708
3.93531
3.93475
3.93495
3.9352
3.9348
3.93364
3.93409
3.9381
3.94354
3.94789
3.94775
4.10315
4.09159
4.0816
4.07839
4.07602
4.07328
4.0701
4.06701
4.06492
4.06389
4.06433
4.06517
4.06611
4.06456
4.05726
4.0412
4.01776
3.99733
3.99859
4.01451
4.16639
4.14767
4.14769
4.17032
4.19086
4.20014
4.20057
4.19758
4.19466
4.19331
4.19379
4.19551
4.19872
4.20269
4.2078
4.21138
4.2102
4.20536
4.19749
4.18943
4.30914
4.31943
4.32881
4.33161
4.33308
4.33146
4.3281
4.32351
4.31939
4.31665
4.31542
4.31565
4.31636
4.31941
4.32731
4.34374
4.36761
4.38682
4.38234
4.3583
4.42992
4.43948
4.43349
4.42347
4.42343
4.42893
4.4347
4.43774
4.43845
4.43762
4.43628
4.43457
4.43219
4.42774
4.42007
4.41074
4.40469
4.40301
4.40531
4.4044
4.533
4.53046
4.52139
4.52361
4.53397
4.54639
4.55681
4.56337
4.56695
4.56771
4.56765
4.56599
4.56285
4.55522
4.53996
4.51279
4.47787
4.45016
4.4472
4.46034
4.6869
4.69467
4.69491
4.6966
4.69818
4.70027
4.70347
4.70617
4.70812
4.70917
4.71023
4.71064
4.71116
4.7109
4.71055
4.70799
4.69988
4.68907
4.67683
4.6646
4.86769
4.88129
4.88574
4.88305
4.87512
4.86509
4.85703
4.85241
4.85037
4.85011
4.85108
4.85393
4.85849
4.86735
4.88297
4.90796
4.93713
4.9567
4.94797
4.91431
5.02439
5.03799
5.03952
5.02902
5.01487
5.00156
4.9904
4.98292
4.97878
4.97777
4.9788
4.98225
4.98802
4.99675
5.0093
5.02727
5.04719
5.06027
5.06252
5.05109
5.10552
5.10826
5.10486
5.0998
5.09638
5.09578
5.09492
5.09348
5.09198
5.09136
5.092
5.09405
5.09721
5.10003
5.10056
5.09731
5.09199
5.08844
5.09421
5.10457
5.16718
5.1593
5.15869
5.17363
5.19178
5.2053
5.21092
5.21168
5.20989
5.20771
5.20506
5.20199
5.19763
5.1906
5.17925
5.16238
5.1445
5.13383
5.13578
5.14363
5.30878
5.32383
5.33232
5.33508
5.33728
5.33905
5.34025
5.33993
5.33826
5.33558
5.33265
5.32814
5.32013
5.30618
5.2854
5.25823
5.22878
5.20742
5.2044
5.2081
5.44285
5.46407
5.46936
5.46401
5.46156
5.46472
5.47092
5.47538
5.4771
5.47651
5.47516
5.47277
5.46913
5.46291
5.45452
5.4446
5.43304
5.42237
5.41219
5.39681
5.5719
5.57458
5.58076
5.60062
5.6194
5.63085
5.63506
5.63482
5.63248
5.6297
5.62685
5.6254
5.62587
5.63118
5.64294
5.66264
5.68633
5.70316
5.69395
5.65826
5.81367
5.83825
5.85127
5.84654
5.83185
5.81526
5.80164
5.79205
5.78538
5.7815
5.77983
5.78124
5.78571
5.7949
5.80944
5.82857
5.84789
5.8601
5.86162
5.84709
5.97823
5.99993
5.99922
5.97535
5.94742
5.92853
5.91918
5.91602
5.91599
5.91817
5.92291
5.93104
5.94256
5.9567
5.97138
5.98454
5.99542
6.0022
6.0087
6.01173
6.0015
5.98222
5.96967
5.97875
5.99501
6.01222
6.02493
6.03395
6.04071
6.04782
6.05562
6.06625
6.07981
6.09661
6.11483
6.13342
6.15175
6.16696
6.17458
6.1719
6.10455
6.08829
6.08775
6.10944
6.13446
6.15309
6.16396
6.16998
6.17377
6.17798
6.18286
6.18943
6.19672
6.20529
6.21377
6.22192
6.22963
6.23769
6.24698
6.24833
6.34233
6.36184
6.37061
6.362
6.34658
6.33109
6.32034
6.3134
6.30873
6.30628
6.30508
6.30471
6.30321
6.29874
6.28904
6.27443
6.25903
6.25022
6.25435
6.25828
6.5374
6.5634
6.56158
6.5351
6.50321
6.47523
6.4549
6.44124
6.43261
6.42704
6.42341
6.41934
6.41224
6.39874
6.37685
6.34669
6.31352
6.28887
6.28225
6.27943
6.57997
6.57903
6.57045
6.56713
6.56445
6.56051
6.55515
6.55027
6.54668
6.54411
6.54213
6.53897
6.53315
6.52282
6.50833
6.49073
6.47083
6.45224
6.43458
6.40984
6.58725
6.57309
6.57094
6.59573
6.62786
6.65389
6.6679
6.67313
6.67326
6.672
6.66956
6.66663
6.66277
6.66002
6.66015
6.66623
6.67629
6.68088
6.66046
6.61195
6.71771
6.73181
6.7455
6.76548
6.78711
6.80422
6.81403
6.81791
6.8174
6.81528
6.81242
6.80984
6.80746
6.80564
6.80441
6.80521
6.80699
6.80338
6.79122
6.76362
6.94134
6.98032
6.99387
6.98793
6.97965
6.97463
6.97247
6.9711
6.96899
6.96628
6.96445
6.96421
6.96579
6.96783
6.96898
6.96729
6.96257
6.9527
6.94435
6.93476
7.15898
7.18836
7.19369
7.1816
7.16242
7.14538
7.13288
7.12475
7.11959
7.11697
7.11658
7.11908
7.12461
7.13364
7.14586
7.15888
7.16977
7.1738
7.1699
7.15612
7.31641
7.32969
7.32774
7.3169
7.29979
7.28345
7.2712
7.26374
7.26023
7.26037
7.26337
7.26996
7.27954
7.2923
7.30699
7.32245
7.33568
7.3434
7.34891
7.34207
7.37762
7.36272
7.35413
7.36804
7.3834
7.39377
7.39787
7.39828
7.39775
7.39945
7.40351
7.41122
7.42181
7.43444
7.44598
7.45423
7.458
7.46013
7.47011
7.47103
7.48811
7.48252
7.48429
7.50735
7.52957
7.54136
7.54324
7.54027
7.53653
7.53527
7.53728
7.54301
7.55044
7.55759
7.56106
7.55821
7.54865
7.54032
7.54791
7.55042
7.67667
7.70645
7.71406
7.70713
7.69821
7.68914
7.68084
7.67325
7.66697
7.66311
7.662
7.6628
7.66376
7.66298
7.65971
7.65388
7.64479
7.63795
7.64133
7.63331
7.79169
7.81548
7.81063
7.79832
7.79312
7.79386
7.79498
7.79392
7.79083
7.7876
7.78463
7.78145
7.77557
7.76652
7.75516
7.74515
7.74134
7.74701
7.75171
7.72855
7.85696
7.85548
7.85291
7.87428
7.89889
7.9155
7.92187
7.92222
7.91994
7.91749
7.91581
7.91399
7.9106
7.90227
7.88635
7.86459
7.84325
7.83244
7.83442
7.81781
8.00845
8.02931
8.03508
8.03903
8.04335
8.0469
8.04911
8.04975
8.04891
8.04779
8.04759
8.04843
8.04972
8.05043
8.0482
8.04104
8.03042
8.01963
8.00895
7.97827
8.13394
8.15952
8.15871
8.15094
8.1495
8.15649
8.16627
8.17366
8.1775
8.17875
8.17914
8.17924
8.18003
8.18163
8.18489
8.19063
8.19709
8.19733
8.18742
8.15448
8.23689
8.24067
8.2393
8.2592
8.28225
8.30098
8.31261
8.31794
8.31951
8.31898
8.31783
8.31623
8.31382
8.31114
8.30949
8.30974
8.31262
8.31435
8.31386
8.29379
8.46325
8.49045
8.49549
8.49203
8.48482
8.47892
8.47536
8.47214
8.46895
8.46563
8.46365
8.462
8.46102
8.45821
8.45344
8.44622
8.43678
8.42602
8.42698
8.41874
8.66393
8.69584
8.68998
8.66631
8.64126
8.6255
8.61831
8.61517
8.61286
8.61102
8.61013
8.61075
8.61237
8.61463
8.61746
8.62006
8.62274
8.62334
8.6242
8.60345
8.77771
8.78249
8.76928
8.7698
8.76845
8.76515
8.76183
8.76036
8.7596
8.75964
8.76037
8.76239
8.7663
8.77296
8.78289
8.79527
8.8069
8.81402
8.81953
8.796
8.93828
8.95146
8.94206
8.93708
8.93032
8.92356
8.91822
8.91508
8.9133
8.9132
8.91456
8.91878
8.92544
8.93619
8.95098
8.96846
8.98582
8.9982
9.00793
8.98447
9.10984
9.12782
9.11784
9.11273
9.10416
9.09515
9.08644
9.07853
9.07258
9.06968
9.06989
9.07354
9.08069
9.09086
9.10389
9.11912
9.13391
9.14544
9.15901
9.13948
9.29658
9.3309
9.32311
9.30888
9.28702
9.26453
9.24681
9.23426
9.22643
9.22263
9.22278
9.22714
9.23435
9.2435
9.25221
9.25834
9.26152
9.26403
9.27734
9.25896
9.41983
9.4631
9.45254
9.43332
9.41188
9.39421
9.38288
9.37652
9.37396
9.3743
9.37816
9.38524
9.39557
9.40732
9.41688
9.42068
9.41642
9.40949
9.41583
9.38985
9.48188
9.50845
9.50199
9.51935
9.53291
9.53682
9.5338
9.52955
9.52695
9.52818
9.53345
9.54371
9.55758
9.57534
9.59493
9.61251
9.62339
9.62461
9.62279
9.57553
9.66656
9.72756
9.74055
9.74714
9.73957
9.72248
9.70397
9.68964
9.68026
9.67692
9.67838
9.68484
9.69565
9.71077
9.73045
9.75574
9.78377
9.80339
9.80095
9.7313
9.83024
9.91311
9.93034
9.92259
9.8996
9.87145
9.84664
9.82776
9.81577
9.80958
9.80826
9.81066
9.81445
9.81714
9.81546
9.80821
9.79805
9.78868
9.78767
9.73922
9.86313
9.92335
9.93508
9.95199
9.96274
9.96357
9.95749
9.94885
9.94259
9.93895
9.93896
9.9399
9.941
9.93632
9.92069
9.88838
9.84156
9.79848
9.78474
9.74691
9.91105
9.95665
9.97389
10.0165
10.0562
10.0797
10.0867
10.0847
10.0805
10.0779
10.0779
10.0798
10.0814
10.0791
10.071
10.0535
10.0251
9.99272
9.96416
9.89577
10.0924
10.1635
10.1916
10.2223
10.2432
10.2495
10.2454
10.237
10.2284
10.2225
10.2195
10.2185
10.2188
10.2186
10.2193
10.2212
10.2215
10.2148
10.188
10.0972
10.2708
10.3577
10.3814
10.3908
10.3933
10.3889
10.3815
10.3725
10.3645
10.3584
10.3549
10.3525
10.35
10.3464
10.3423
10.3357
10.3252
10.3118
10.2964
10.2313
10.3184
10.3727
10.3828
10.4098
10.4441
10.4707
10.4858
10.4909
10.4914
10.49
10.4893
10.488
10.4869
10.4822
10.4728
10.4563
10.4346
10.4152
10.4058
10.3653
10.3619
10.3923
10.4017
10.4482
10.511
10.5643
10.5987
10.6165
10.6238
10.6259
10.626
10.625
10.6231
10.619
10.612
10.6015
10.5895
10.5838
10.5802
10.542
10.5447
10.5862
10.5954
10.6187
10.6607
10.7024
10.7354
10.7567
10.7676
10.7718
10.7723
10.7702
10.7658
10.7586
10.749