/*--------------------------------*- C++ -*----------------------------------*\
  =========                 |
  \\      /  F ield         | OpenFOAM: The Open Source CFD Toolbox
   \\    /   O peration     | Website:  https://openfoam.org
    \\  /    A nd           | Version:  6
     \\/     M anipulation  |
\*---------------------------------------------------------------------------*/
FoamFile
{
    version     2.0;
    format      ascii;
    class       surfaceScalarField;
    location    "21";
    object      phi;
}
// * * * * * * * * * * * * * * * * * * * * * * * * * * * * * * * * * * * * * //

dimensions      [0 3 -1 0 0 0 0];

internalField   nonuniform List<scalar> 
19400
(
-7.90094e-10
-7.85289e-07
-1.85166e-09
-1.05064e-06
-2.64044e-09
-1.18076e-06
-2.93755e-09
-1.26756e-06
-2.82471e-09
-1.32388e-06
-2.49725e-09
-1.35859e-06
-2.09992e-09
-1.3791e-06
-1.69394e-09
-1.39071e-06
-1.29384e-09
-1.3967e-06
-8.95322e-10
-1.39886e-06
-4.97706e-10
-1.39798e-06
-8.29626e-11
-1.39404e-06
3.35976e-10
-1.3863e-06
7.80929e-10
-1.37308e-06
1.19339e-09
-1.35132e-06
1.49164e-09
-1.31607e-06
1.48734e-09
-1.26032e-06
1.0891e-09
-1.17521e-06
3.50492e-10
-1.04677e-06
-7.83153e-07
6.2072e-11
-7.85333e-07
-6.55544e-10
-1.04993e-06
-1.14941e-09
-1.18025e-06
-1.46603e-09
-1.26725e-06
-1.5864e-09
-1.32375e-06
-1.56884e-09
-1.35861e-06
-1.42887e-09
-1.37924e-06
-1.23347e-09
-1.39091e-06
-1.00175e-09
-1.39693e-06
-7.7033e-10
-1.3991e-06
-5.25241e-10
-1.39822e-06
-2.93987e-10
-1.39428e-06
-6.7562e-11
-1.38653e-06
1.36609e-10
-1.37329e-06
3.02981e-10
-1.35149e-06
4.05345e-10
-1.31617e-06
3.97654e-10
-1.26031e-06
2.31582e-10
-1.17506e-06
-1.79252e-10
-1.04637e-06
-7.83333e-07
-1.90988e-10
-7.85124e-07
-5.61582e-10
-1.04959e-06
-7.94151e-10
-1.18001e-06
-9.67845e-10
-1.26709e-06
-1.02524e-09
-1.32369e-06
-1.04286e-09
-1.3586e-06
-1.00533e-09
-1.37928e-06
-9.26252e-10
-1.391e-06
-8.05546e-10
-1.39705e-06
-6.68621e-10
-1.39924e-06
-5.23518e-10
-1.39837e-06
-3.81381e-10
-1.39443e-06
-2.45132e-10
-1.38667e-06
-1.10471e-10
-1.37342e-06
2.37253e-11
-1.35162e-06
1.57514e-10
-1.3163e-06
2.54644e-10
-1.26041e-06
2.28542e-10
-1.17503e-06
1.52643e-10
-1.0463e-06
-7.83181e-07
-2.0493e-10
-7.84917e-07
-3.19898e-10
-1.04949e-06
-4.19491e-10
-1.1799e-06
-5.15077e-10
-1.26701e-06
-5.56977e-10
-1.32364e-06
-6.03108e-10
-1.35856e-06
-6.26165e-10
-1.37925e-06
-6.3085e-10
-1.39099e-06
-5.97335e-10
-1.39708e-06
-5.46813e-10
-1.39929e-06
-4.80676e-10
-1.39843e-06
-4.1522e-10
-1.39449e-06
-3.46673e-10
-1.38674e-06
-2.76055e-10
-1.37349e-06
-2.04919e-10
-1.35169e-06
-1.07866e-10
-1.31639e-06
1.57406e-11
-1.26053e-06
4.56969e-11
-1.17506e-06
5.69232e-11
-1.04631e-06
-7.83124e-07
-3.53016e-10
-7.84564e-07
-2.81059e-10
-1.04956e-06
-2.93925e-10
-1.17988e-06
-3.30988e-10
-1.26698e-06
-3.66984e-10
-1.32359e-06
-4.07941e-10
-1.35852e-06
-4.33994e-10
-1.37921e-06
-4.65917e-10
-1.39096e-06
-4.68682e-10
-1.39706e-06
-4.56465e-10
-1.3993e-06
-4.2405e-10
-1.39846e-06
-3.90109e-10
-1.39453e-06
-3.5283e-10
-1.38677e-06
-3.17723e-10
-1.37352e-06
-2.65248e-10
-1.35174e-06
-1.88961e-10
-1.31646e-06
-8.13529e-11
-1.26063e-06
1.47756e-11
-1.17516e-06
1.53915e-10
-1.04645e-06
-7.82969e-07
-2.00978e-10
-7.84369e-07
-1.70096e-10
-1.0496e-06
-1.86901e-10
-1.17986e-06
-2.63783e-10
-1.2669e-06
-3.40876e-10
-1.32351e-06
-3.80005e-10
-1.35849e-06
-3.98e-10
-1.37919e-06
-4.21053e-10
-1.39093e-06
-4.20284e-10
-1.39706e-06
-4.07958e-10
-1.39931e-06
-3.78349e-10
-1.39848e-06
-3.43068e-10
-1.39456e-06
-2.96028e-10
-1.38681e-06
-2.50872e-10
-1.37357e-06
-2.03176e-10
-1.35179e-06
-1.58708e-10
-1.3165e-06
-1.2257e-10
-1.26067e-06
-5.75879e-11
-1.17522e-06
5.66305e-11
-1.04656e-06
-7.8291e-07
-1.07156e-11
-7.84373e-07
-6.31431e-11
-1.04955e-06
-9.04112e-11
-1.17984e-06
-1.90815e-10
-1.26681e-06
-2.77551e-10
-1.32343e-06
-3.14672e-10
-1.35846e-06
-3.38136e-10
-1.37916e-06
-3.55046e-10
-1.39092e-06
-3.55497e-10
-1.39706e-06
-3.43254e-10
-1.39933e-06
-3.17676e-10
-1.3985e-06
-2.78659e-10
-1.39459e-06
-2.31451e-10
-1.38686e-06
-1.80312e-10
-1.37361e-06
-1.55371e-10
-1.35181e-06
-1.56368e-10
-1.3165e-06
-1.52384e-10
-1.26067e-06
-1.18904e-10
-1.17525e-06
-1.01218e-10
-1.04657e-06
-7.8301e-07
7.21954e-11
-7.84456e-07
5.36348e-11
-1.04954e-06
3.39122e-11
-1.17983e-06
-4.9265e-11
-1.26673e-06
-1.09395e-10
-1.32338e-06
-1.53438e-10
-1.35842e-06
-2.02732e-10
-1.37912e-06
-2.40074e-10
-1.39089e-06
-2.68463e-10
-1.39703e-06
-2.74156e-10
-1.39932e-06
-2.65468e-10
-1.39852e-06
-2.37458e-10
-1.39462e-06
-1.99106e-10
-1.3869e-06
-1.57764e-10
-1.37365e-06
-1.40628e-10
-1.35182e-06
-1.59271e-10
-1.31648e-06
-1.86654e-10
-1.26064e-06
-2.00516e-10
-1.17523e-06
-2.23951e-10
-1.04654e-06
-7.83235e-07
4.0506e-11
-7.84503e-07
1.15685e-10
-1.04961e-06
1.24899e-10
-1.17984e-06
8.3032e-11
-1.26668e-06
3.14097e-11
-1.32333e-06
-4.48182e-11
-1.35835e-06
-1.23976e-10
-1.37904e-06
-1.95135e-10
-1.39082e-06
-2.48392e-10
-1.39698e-06
-2.78662e-10
-1.3993e-06
-2.8977e-10
-1.39851e-06
-2.89647e-10
-1.39462e-06
-2.83147e-10
-1.3869e-06
-2.7141e-10
-1.37366e-06
-2.68904e-10
-1.35182e-06
-2.70661e-10
-1.31648e-06
-2.9354e-10
-1.26061e-06
-3.39881e-10
-1.17519e-06
-3.5936e-10
-1.04653e-06
-7.83596e-07
-7.78302e-12
-7.845e-07
1.08508e-10
-1.04974e-06
1.17749e-10
-1.17985e-06
8.9049e-11
-1.26666e-06
3.23596e-11
-1.32327e-06
-5.63956e-11
-1.35826e-06
-1.43616e-10
-1.37895e-06
-2.25854e-10
-1.39074e-06
-2.83706e-10
-1.39692e-06
-3.30845e-10
-1.39925e-06
-3.57902e-10
-1.39848e-06
-3.87938e-10
-1.39459e-06
-4.11227e-10
-1.38688e-06
-4.26579e-10
-1.37365e-06
-4.39986e-10
-1.35181e-06
-4.31067e-10
-1.31648e-06
-4.10126e-10
-1.26064e-06
-3.67833e-10
-1.17523e-06
-2.66996e-10
-1.04663e-06
-7.83863e-07
1.0514e-10
-7.84607e-07
1.65116e-10
-1.0498e-06
1.35642e-10
-1.17982e-06
9.47372e-11
-1.26661e-06
2.76165e-11
-1.3232e-06
-6.92518e-11
-1.35815e-06
-1.69676e-10
-1.37885e-06
-2.50005e-10
-1.39066e-06
-3.09902e-10
-1.39686e-06
-3.56559e-10
-1.3992e-06
-3.90121e-10
-1.39844e-06
-4.14993e-10
-1.39457e-06
-4.27673e-10
-1.38686e-06
-4.3786e-10
-1.37364e-06
-4.40717e-10
-1.3518e-06
-4.43619e-10
-1.31648e-06
-4.14277e-10
-1.26067e-06
-2.9146e-10
-1.17536e-06
-5.79691e-11
-1.04687e-06
-7.83921e-07
1.44329e-10
-7.84751e-07
1.93913e-10
-1.04986e-06
1.45783e-10
-1.17977e-06
7.78231e-11
-1.26655e-06
-1.17871e-12
-1.32311e-06
-1.07474e-10
-1.35804e-06
-2.04231e-10
-1.37875e-06
-2.7329e-10
-1.39058e-06
-3.26778e-10
-1.3968e-06
-3.64238e-10
-1.39916e-06
-3.89307e-10
-1.39841e-06
-3.95886e-10
-1.39456e-06
-3.85532e-10
-1.38687e-06
-3.75902e-10
-1.37364e-06
-3.69893e-10
-1.35181e-06
-3.8283e-10
-1.31646e-06
-3.55955e-10
-1.26069e-06
-2.26772e-10
-1.17549e-06
-5.96305e-11
-1.04704e-06
-7.83981e-07
1.50964e-10
-7.84898e-07
1.76234e-10
-1.0499e-06
1.81829e-10
-1.17977e-06
1.07386e-10
-1.26648e-06
7.91237e-12
-1.32301e-06
-1.09717e-10
-1.35792e-06
-2.03786e-10
-1.37865e-06
-2.71701e-10
-1.39051e-06
-3.24853e-10
-1.39674e-06
-3.60885e-10
-1.39912e-06
-3.86858e-10
-1.39839e-06
-3.93689e-10
-1.39455e-06
-3.84391e-10
-1.38688e-06
-3.65169e-10
-1.37366e-06
-3.58436e-10
-1.35182e-06
-3.53711e-10
-1.31647e-06
-2.92757e-10
-1.26076e-06
-1.74099e-10
-1.17561e-06
-8.70221e-11
-1.04713e-06
-7.84068e-07
1.34836e-10
-7.85029e-07
1.83586e-10
-1.04995e-06
2.36609e-10
-1.17982e-06
1.77669e-10
-1.26642e-06
4.18361e-11
-1.32287e-06
-9.71546e-11
-1.35778e-06
-2.03046e-10
-1.37854e-06
-2.76914e-10
-1.39043e-06
-3.31388e-10
-1.39669e-06
-3.70801e-10
-1.39908e-06
-4.01027e-10
-1.39836e-06
-4.12222e-10
-1.39453e-06
-4.09081e-10
-1.38688e-06
-3.80994e-10
-1.37368e-06
-3.52183e-10
-1.35184e-06
-3.20409e-10
-1.3165e-06
-2.54959e-10
-1.26082e-06
-1.61477e-10
-1.1757e-06
-7.20449e-11
-1.04721e-06
-7.84139e-07
1.95494e-10
-7.8521e-07
2.26124e-10
-1.04999e-06
2.13671e-10
-1.1798e-06
1.22232e-10
-1.26633e-06
-2.46839e-11
-1.32272e-06
-1.63295e-10
-1.35764e-06
-2.608e-10
-1.37844e-06
-3.25455e-10
-1.39037e-06
-3.66938e-10
-1.39664e-06
-3.95973e-10
-1.39904e-06
-4.21019e-10
-1.39833e-06
-4.33984e-10
-1.39451e-06
-4.39583e-10
-1.38688e-06
-4.14255e-10
-1.3737e-06
-3.56559e-10
-1.3519e-06
-3.03781e-10
-1.31655e-06
-2.73508e-10
-1.26085e-06
-1.87144e-10
-1.17578e-06
-1.22739e-10
-1.04727e-06
-7.84259e-07
2.9322e-10
-7.8549e-07
2.43409e-10
-1.04993e-06
2.3444e-10
-1.17978e-06
1.52379e-10
-1.26625e-06
4.81442e-13
-1.32256e-06
-1.49768e-10
-1.35749e-06
-2.58259e-10
-1.37833e-06
-3.27703e-10
-1.39029e-06
-3.68905e-10
-1.3966e-06
-3.92689e-10
-1.39902e-06
-4.08247e-10
-1.39831e-06
-4.16427e-10
-1.3945e-06
-4.2171e-10
-1.38687e-06
-4.1018e-10
-1.37371e-06
-3.52921e-10
-1.35196e-06
-2.93687e-10
-1.31661e-06
-2.72782e-10
-1.26087e-06
-2.06551e-10
-1.17584e-06
-9.93386e-11
-1.04737e-06
-7.84356e-07
1.62124e-10
-7.85641e-07
2.03022e-10
-1.04996e-06
2.28783e-10
-1.1798e-06
1.54903e-10
-1.26617e-06
1.43001e-11
-1.32242e-06
-1.19193e-10
-1.35736e-06
-2.23571e-10
-1.37822e-06
-2.99571e-10
-1.39022e-06
-3.49278e-10
-1.39655e-06
-3.74644e-10
-1.39899e-06
-3.89921e-10
-1.3983e-06
-3.82086e-10
-1.39451e-06
-3.70823e-10
-1.38688e-06
-3.44421e-10
-1.37374e-06
-2.88582e-10
-1.35201e-06
-2.25528e-10
-1.31667e-06
-1.92878e-10
-1.26089e-06
-2.20554e-10
-1.1758e-06
-1.35633e-10
-1.04744e-06
-7.84491e-07
1.37241e-10
-7.85776e-07
2.28493e-10
-1.05004e-06
2.55531e-10
-1.17982e-06
1.82348e-10
-1.2661e-06
6.01121e-11
-1.32229e-06
-6.59448e-11
-1.35724e-06
-1.74236e-10
-1.37811e-06
-2.65582e-10
-1.39013e-06
-3.33848e-10
-1.39648e-06
-3.85851e-10
-1.39894e-06
-4.23482e-10
-1.39826e-06
-4.53298e-10
-1.39448e-06
-4.70398e-10
-1.38686e-06
-4.73384e-10
-1.37373e-06
-4.62659e-10
-1.35201e-06
-3.93298e-10
-1.31673e-06
-3.00592e-10
-1.26097e-06
-2.76462e-10
-1.17582e-06
-2.75312e-10
-1.04744e-06
-7.84766e-07
5.88104e-11
-7.85847e-07
2.23262e-10
-1.05019e-06
2.41999e-10
-1.17985e-06
1.8293e-10
-1.26603e-06
9.55326e-11
-1.32221e-06
-1.49185e-11
-1.35713e-06
-1.31028e-10
-1.378e-06
-2.35055e-10
-1.39003e-06
-3.21269e-10
-1.3964e-06
-4.01743e-10
-1.39886e-06
-4.67236e-10
-1.39819e-06
-5.40249e-10
-1.39441e-06
-5.99268e-10
-1.3868e-06
-6.48899e-10
-1.37368e-06
-6.59236e-10
-1.352e-06
-5.68837e-10
-1.31681e-06
-3.98696e-10
-1.26114e-06
-2.24793e-10
-1.17599e-06
-6.57875e-11
-1.0476e-06
-7.84833e-07
-4.45234e-11
-7.85816e-07
1.69161e-10
-1.0504e-06
1.9772e-10
-1.17989e-06
1.45311e-10
-1.26597e-06
6.82981e-11
-1.32214e-06
-2.23194e-11
-1.35703e-06
-1.3212e-10
-1.37789e-06
-2.37653e-10
-1.38992e-06
-3.31554e-10
-1.3963e-06
-4.1529e-10
-1.39877e-06
-4.82703e-10
-1.39811e-06
-5.48444e-10
-1.39434e-06
-5.94743e-10
-1.38674e-06
-6.37657e-10
-1.37364e-06
-6.35123e-10
-1.352e-06
-5.39905e-10
-1.31691e-06
-3.6116e-10
-1.26132e-06
-1.5688e-10
-1.1762e-06
1.14325e-10
-1.04787e-06
-7.8472e-07
-6.42946e-11
-7.85753e-07
1.07376e-10
-1.05057e-06
1.01168e-10
-1.17988e-06
3.99552e-11
-1.2659e-06
-3.03675e-11
-1.32207e-06
-1.06347e-10
-1.35695e-06
-1.96743e-10
-1.3778e-06
-2.96183e-10
-1.38982e-06
-3.86061e-10
-1.3962e-06
-4.61096e-10
-1.3987e-06
-5.20646e-10
-1.39805e-06
-5.65853e-10
-1.39429e-06
-5.92509e-10
-1.38671e-06
-6.01099e-10
-1.37363e-06
-5.72646e-10
-1.35202e-06
-4.7522e-10
-1.31701e-06
-3.15792e-10
-1.26148e-06
-1.59759e-10
-1.17636e-06
7.04836e-12
-1.04804e-06
-7.84712e-07
4.63261e-11
-7.85789e-07
9.41795e-11
-1.05062e-06
5.4255e-11
-1.17983e-06
-1.57142e-11
-1.26583e-06
-9.50055e-11
-1.32198e-06
-1.84773e-10
-1.35685e-06
-2.74519e-10
-1.3777e-06
-3.70518e-10
-1.38971e-06
-4.53101e-10
-1.39611e-06
-5.25092e-10
-1.39862e-06
-5.78011e-10
-1.39799e-06
-6.16169e-10
-1.39425e-06
-6.41418e-10
-1.38668e-06
-6.3788e-10
-1.37363e-06
-5.93796e-10
-1.35207e-06
-4.83578e-10
-1.31711e-06
-3.21388e-10
-1.26165e-06
-1.68372e-10
-1.17651e-06
-1.00803e-10
-1.0481e-06
-7.84808e-07
1.49107e-10
-7.85919e-07
8.61302e-11
-1.05055e-06
6.6327e-11
-1.1798e-06
1.61451e-11
-1.26578e-06
-8.47559e-11
-1.32186e-06
-2.20775e-10
-1.35671e-06
-3.36018e-10
-1.37757e-06
-4.28687e-10
-1.38961e-06
-5.082e-10
-1.39603e-06
-5.71961e-10
-1.39855e-06
-6.17914e-10
-1.39794e-06
-6.37848e-10
-1.39422e-06
-6.47896e-10
-1.38667e-06
-6.34707e-10
-1.37363e-06
-5.83701e-10
-1.35211e-06
-4.85272e-10
-1.3172e-06
-3.25488e-10
-1.26179e-06
-1.5251e-10
-1.17666e-06
-5.49108e-11
-1.04818e-06
-7.84856e-07
1.58228e-10
-7.86059e-07
7.85389e-11
-1.05047e-06
6.71211e-11
-1.17977e-06
3.09179e-11
-1.26574e-06
-7.02543e-11
-1.32175e-06
-2.18552e-10
-1.35656e-06
-3.47673e-10
-1.37743e-06
-4.49261e-10
-1.3895e-06
-5.41671e-10
-1.39593e-06
-6.13895e-10
-1.39846e-06
-6.67368e-10
-1.39788e-06
-6.83114e-10
-1.39419e-06
-6.73806e-10
-1.38667e-06
-6.36422e-10
-1.37366e-06
-5.62646e-10
-1.35217e-06
-4.67135e-10
-1.31729e-06
-3.20404e-10
-1.26192e-06
-1.58921e-10
-1.17679e-06
-7.14162e-11
-1.04823e-06
-7.84923e-07
1.73483e-10
-7.86219e-07
1.2817e-10
-1.05043e-06
1.67431e-10
-1.1798e-06
1.48065e-10
-1.26572e-06
3.97033e-11
-1.32163e-06
-1.1952e-10
-1.3564e-06
-2.7762e-10
-1.37727e-06
-4.28237e-10
-1.38935e-06
-5.6161e-10
-1.39579e-06
-6.71337e-10
-1.39835e-06
-7.52134e-10
-1.3978e-06
-7.97204e-10
-1.39414e-06
-8.06373e-10
-1.38665e-06
-7.75407e-10
-1.37369e-06
-6.94685e-10
-1.35225e-06
-5.78777e-10
-1.3174e-06
-4.19012e-10
-1.26206e-06
-2.30284e-10
-1.17696e-06
-1.47803e-10
-1.0483e-06
-7.85068e-07
1.1977e-10
-7.86332e-07
1.89204e-10
-1.0505e-06
2.68752e-10
-1.17987e-06
2.55646e-10
-1.26571e-06
1.4472e-10
-1.32151e-06
-2.98053e-11
-1.35622e-06
-2.25861e-10
-1.37707e-06
-4.2143e-10
-1.38915e-06
-5.88989e-10
-1.39562e-06
-7.34041e-10
-1.3982e-06
-8.41915e-10
-1.39768e-06
-9.25353e-10
-1.39406e-06
-9.60917e-10
-1.38661e-06
-9.50322e-10
-1.3737e-06
-8.7305e-10
-1.35231e-06
-7.25311e-10
-1.31754e-06
-5.30412e-10
-1.26225e-06
-3.14202e-10
-1.17717e-06
-1.31297e-10
-1.04847e-06
-7.852e-07
3.33157e-11
-7.86358e-07
1.82907e-10
-1.05064e-06
3.03187e-10
-1.17998e-06
3.03185e-10
-1.2657e-06
1.90974e-10
-1.3214e-06
2.70166e-12
-1.35603e-06
-2.11362e-10
-1.37685e-06
-4.24374e-10
-1.38894e-06
-6.06719e-10
-1.39542e-06
-7.77506e-10
-1.39803e-06
-9.10832e-10
-1.39754e-06
-1.02577e-09
-1.39395e-06
-1.08191e-09
-1.38654e-06
-1.09422e-09
-1.37369e-06
-1.02311e-09
-1.35238e-06
-8.49105e-10
-1.31771e-06
-5.99508e-10
-1.26249e-06
-3.37853e-10
-1.17743e-06
-6.37918e-11
-1.04874e-06
-7.85264e-07
8.29471e-12
-7.86354e-07
2.14871e-10
-1.05083e-06
3.25604e-10
-1.18008e-06
3.16757e-10
-1.26569e-06
2.13944e-10
-1.32128e-06
3.13464e-11
-1.35585e-06
-1.79959e-10
-1.37662e-06
-4.0241e-10
-1.38871e-06
-6.02726e-10
-1.39521e-06
-7.94458e-10
-1.39784e-06
-9.49702e-10
-1.39737e-06
-1.09132e-09
-1.39381e-06
-1.17159e-09
-1.38645e-06
-1.20174e-09
-1.37366e-06
-1.13177e-09
-1.35244e-06
-9.40355e-10
-1.31789e-06
-6.59867e-10
-1.26277e-06
-3.45336e-10
-1.17775e-06
3.08894e-11
-1.04912e-06
-7.85233e-07
1.02904e-10
-7.86445e-07
2.97772e-10
-1.05101e-06
4.06989e-10
-1.18019e-06
4.11471e-10
-1.26569e-06
3.12446e-10
-1.32118e-06
1.28053e-10
-1.35566e-06
-9.77453e-11
-1.37639e-06
-3.405e-10
-1.38847e-06
-5.6585e-10
-1.39498e-06
-7.73441e-10
-1.39763e-06
-9.49381e-10
-1.39718e-06
-1.10225e-09
-1.39365e-06
-1.19918e-09
-1.38634e-06
-1.22675e-09
-1.37363e-06
-1.15021e-09
-1.35251e-06
-9.58264e-10
-1.31808e-06
-6.82821e-10
-1.26304e-06
-3.78695e-10
-1.17805e-06
-4.27553e-12
-1.0495e-06
-7.85235e-07
1.26462e-10
-7.86555e-07
3.34601e-10
-1.0512e-06
4.76787e-10
-1.18032e-06
5.02804e-10
-1.2657e-06
4.11295e-10
-1.32108e-06
2.31287e-10
-1.35547e-06
-7.8374e-13
-1.37615e-06
-2.58688e-10
-1.38821e-06
-5.05974e-10
-1.39472e-06
-7.33378e-10
-1.3974e-06
-9.27402e-10
-1.39698e-06
-1.0871e-09
-1.39349e-06
-1.19709e-09
-1.38623e-06
-1.23549e-09
-1.37358e-06
-1.17494e-09
-1.35256e-06
-1.00905e-09
-1.31824e-06
-7.34347e-10
-1.26331e-06
-3.9984e-10
-1.17837e-06
-1.14579e-10
-1.04977e-06
-7.85346e-07
1.24562e-10
-7.86665e-07
3.61427e-10
-1.05142e-06
5.60849e-10
-1.18051e-06
6.39364e-10
-1.26577e-06
5.59511e-10
-1.321e-06
3.67585e-10
-1.35528e-06
1.1231e-10
-1.3759e-06
-1.70297e-10
-1.38792e-06
-4.53811e-10
-1.39444e-06
-7.0624e-10
-1.39714e-06
-9.29687e-10
-1.39676e-06
-1.10107e-09
-1.3933e-06
-1.22747e-09
-1.38609e-06
-1.28226e-09
-1.37352e-06
-1.23678e-09
-1.3526e-06
-1.08457e-09
-1.31838e-06
-8.01871e-10
-1.26358e-06
-4.409e-10
-1.17872e-06
-1.63833e-10
-1.05003e-06
-7.85505e-07
4.20267e-11
-7.86691e-07
3.65232e-10
-1.05173e-06
6.29862e-10
-1.18077e-06
7.45279e-10
-1.26588e-06
6.45215e-10
-1.32089e-06
4.25819e-10
-1.35505e-06
1.46779e-10
-1.37561e-06
-1.59677e-10
-1.3876e-06
-4.73327e-10
-1.39412e-06
-7.61531e-10
-1.39684e-06
-1.02415e-09
-1.39649e-06
-1.23484e-09
-1.39308e-06
-1.39988e-09
-1.38592e-06
-1.4907e-09
-1.37342e-06
-1.46331e-09
-1.35261e-06
-1.29658e-09
-1.31854e-06
-9.83486e-10
-1.26388e-06
-5.87775e-10
-1.17909e-06
-2.65154e-10
-1.05033e-06
-7.85767e-07
1.5481e-10
-7.86822e-07
4.91163e-10
-1.05204e-06
7.10784e-10
-1.18097e-06
7.72346e-10
-1.26593e-06
6.5909e-10
-1.32077e-06
4.24407e-10
-1.35481e-06
1.37493e-10
-1.37532e-06
-1.7729e-10
-1.38728e-06
-5.06579e-10
-1.39379e-06
-8.31354e-10
-1.39651e-06
-1.13581e-09
-1.39618e-06
-1.40016e-09
-1.39281e-06
-1.61313e-09
-1.3857e-06
-1.74748e-09
-1.37327e-06
-1.74389e-09
-1.35261e-06
-1.55524e-09
-1.31872e-06
-1.18677e-09
-1.26424e-06
-7.03109e-10
-1.17956e-06
-2.28239e-10
-1.05079e-06
-7.85993e-07
3.92698e-10
-7.87193e-07
6.80804e-10
-1.05231e-06
9.39591e-10
-1.18122e-06
1.03825e-09
-1.26602e-06
9.32182e-10
-1.32066e-06
6.67032e-10
-1.35453e-06
3.20912e-10
-1.37497e-06
-4.55464e-11
-1.38691e-06
-4.26349e-10
-1.3934e-06
-7.97871e-10
-1.39613e-06
-1.14625e-09
-1.39582e-06
-1.45071e-09
-1.3925e-06
-1.68874e-09
-1.38546e-06
-1.84052e-09
-1.37312e-06
-1.85408e-09
-1.35259e-06
-1.66643e-09
-1.3189e-06
-1.29316e-09
-1.2646e-06
-7.71451e-10
-1.18008e-06
-1.38906e-10
-1.05141e-06
-7.86131e-07
2.57494e-10
-7.87435e-07
7.44645e-10
-1.05277e-06
1.12608e-09
-1.18159e-06
1.31e-09
-1.26619e-06
1.23446e-09
-1.32057e-06
9.58714e-10
-1.35425e-06
5.63552e-10
-1.37457e-06
1.29014e-10
-1.38646e-06
-3.15285e-10
-1.39295e-06
-7.39168e-10
-1.3957e-06
-1.12914e-09
-1.39543e-06
-1.46663e-09
-1.39216e-06
-1.73015e-09
-1.38519e-06
-1.89789e-09
-1.37295e-06
-1.9374e-09
-1.35255e-06
-1.77782e-09
-1.31906e-06
-1.41075e-09
-1.26496e-06
-8.63067e-10
-1.18062e-06
-2.30473e-10
-1.05204e-06
-7.86361e-07
1.35379e-10
-7.87562e-07
8.07644e-10
-1.05343e-06
1.26131e-09
-1.18204e-06
1.45296e-09
-1.26637e-06
1.36686e-09
-1.32048e-06
1.07482e-09
-1.35395e-06
6.63733e-10
-1.37415e-06
1.98901e-10
-1.38599e-06
-2.73599e-10
-1.39247e-06
-7.35664e-10
-1.39523e-06
-1.16166e-09
-1.39499e-06
-1.54059e-09
-1.39177e-06
-1.83955e-09
-1.38488e-06
-2.03633e-09
-1.37274e-06
-2.1025e-09
-1.35247e-06
-1.95531e-09
-1.31919e-06
-1.54592e-09
-1.26537e-06
-9.40547e-10
-1.18122e-06
-3.16944e-10
-1.05266e-06
-7.86676e-07
2.56967e-10
-7.87811e-07
8.70105e-10
-1.05404e-06
1.36366e-09
-1.18252e-06
1.56497e-09
-1.26656e-06
1.44742e-09
-1.32035e-06
1.13255e-09
-1.35362e-06
7.09022e-10
-1.37371e-06
2.29187e-10
-1.38551e-06
-2.6748e-10
-1.39196e-06
-7.57682e-10
-1.39473e-06
-1.21859e-09
-1.39452e-06
-1.63206e-09
-1.39135e-06
-1.97186e-09
-1.38453e-06
-2.20756e-09
-1.37249e-06
-2.28188e-09
-1.35238e-06
-2.11926e-09
-1.31934e-06
-1.68808e-09
-1.26579e-06
-1.06481e-09
-1.18184e-06
-3.55313e-10
-1.05336e-06
-7.8703e-07
4.09759e-10
-7.88206e-07
9.59687e-10
-1.05458e-06
1.49344e-09
-1.18305e-06
1.73202e-09
-1.26679e-06
1.62202e-09
-1.32023e-06
1.2809e-09
-1.35327e-06
8.17846e-10
-1.37324e-06
2.96303e-10
-1.38497e-06
-2.45249e-10
-1.39141e-06
-7.77674e-10
-1.39419e-06
-1.28204e-09
-1.39401e-06
-1.73355e-09
-1.39089e-06
-2.11004e-09
-1.38414e-06
-2.37496e-09
-1.37222e-06
-2.46257e-09
-1.35228e-06
-2.29677e-09
-1.3195e-06
-1.86179e-09
-1.26621e-06
-1.22241e-09
-1.18247e-06
-4.74487e-10
-1.0541e-06
-7.87504e-07
4.99284e-10
-7.88683e-07
1.12727e-09
-1.0552e-06
1.68942e-09
-1.18359e-06
1.94123e-09
-1.26704e-06
1.85281e-09
-1.32013e-06
1.49414e-09
-1.35291e-06
9.87993e-10
-1.37273e-06
4.12745e-10
-1.38439e-06
-1.83844e-10
-1.39081e-06
-7.7456e-10
-1.39359e-06
-1.33815e-09
-1.39344e-06
-1.84739e-09
-1.39037e-06
-2.27189e-09
-1.38371e-06
-2.56728e-09
-1.37192e-06
-2.67826e-09
-1.35217e-06
-2.53383e-09
-1.31964e-06
-2.07451e-09
-1.26667e-06
-1.37459e-09
-1.18317e-06
-5.86495e-10
-1.05489e-06
-7.88089e-07
5.59894e-10
-7.89221e-07
1.3011e-09
-1.05593e-06
1.94793e-09
-1.18422e-06
2.25562e-09
-1.26734e-06
2.18654e-09
-1.32005e-06
1.8145e-09
-1.35253e-06
1.26322e-09
-1.37217e-06
6.20678e-10
-1.38374e-06
-5.09982e-11
-1.39013e-06
-7.22401e-10
-1.39291e-06
-1.36557e-09
-1.39279e-06
-1.95595e-09
-1.38978e-06
-2.45629e-09
-1.38321e-06
-2.80973e-09
-1.37156e-06
-2.95491e-09
-1.35202e-06
-2.82323e-09
-1.31976e-06
-2.32931e-09
-1.26716e-06
-1.50705e-09
-1.18398e-06
-5.9254e-10
-1.05579e-06
-7.88676e-07
4.69072e-10
-7.8967e-07
1.43852e-09
-1.05688e-06
2.19808e-09
-1.18496e-06
2.5678e-09
-1.26769e-06
2.51148e-09
-1.31998e-06
2.1246e-09
-1.35213e-06
1.53002e-09
-1.37156e-06
8.30977e-10
-1.38303e-06
9.34475e-11
-1.38938e-06
-6.44001e-10
-1.39216e-06
-1.35241e-09
-1.39207e-06
-2.00143e-09
-1.38911e-06
-2.55843e-09
-1.38264e-06
-2.96312e-09
-1.37114e-06
-3.14528e-09
-1.35182e-06
-3.02366e-09
-1.31987e-06
-2.49262e-09
-1.26767e-06
-1.5657e-09
-1.18489e-06
-4.66272e-10
-1.05686e-06
-7.89137e-07
4.72236e-10
-7.90122e-07
1.56258e-09
-1.05795e-06
2.33988e-09
-1.18572e-06
2.71728e-09
-1.26805e-06
2.66958e-09
-1.31992e-06
2.29645e-09
-1.35174e-06
1.69544e-09
-1.37094e-06
9.72118e-10
-1.38229e-06
1.95228e-10
-1.38859e-06
-5.74926e-10
-1.39137e-06
-1.31799e-09
-1.39131e-06
-1.98733e-09
-1.38842e-06
-2.5574e-09
-1.38205e-06
-2.9653e-09
-1.37072e-06
-3.14982e-09
-1.35163e-06
-3.04389e-09
-1.31997e-06
-2.52922e-09
-1.26817e-06
-1.63712e-09
-1.18576e-06
-5.07477e-10
-1.05797e-06
-7.8964e-07
6.75688e-10
-7.90777e-07
1.70681e-09
-1.05896e-06
2.53723e-09
-1.18654e-06
2.93633e-09
-1.26844e-06
2.89547e-09
-1.31987e-06
2.50655e-09
-1.35134e-06
1.87624e-09
-1.3703e-06
1.10436e-09
-1.38151e-06
2.75342e-10
-1.38775e-06
-5.53679e-10
-1.39053e-06
-1.35392e-09
-1.39051e-06
-2.07784e-09
-1.38769e-06
-2.69466e-09
-1.38143e-06
-3.13505e-09
-1.37027e-06
-3.3402e-09
-1.35141e-06
-3.22966e-09
-1.32007e-06
-2.71315e-09
-1.26867e-06
-1.84364e-09
-1.18661e-06
-8.59431e-10
-1.05893e-06
-7.90497e-07
7.92232e-10
-7.91542e-07
1.87321e-09
-1.06002e-06
2.74348e-09
-1.18739e-06
3.1556e-09
-1.26884e-06
3.13374e-09
-1.31983e-06
2.73201e-09
-1.35094e-06
2.07042e-09
-1.36963e-06
1.24396e-09
-1.38068e-06
3.44867e-10
-1.38685e-06
-5.70839e-10
-1.38961e-06
-1.45681e-09
-1.38961e-06
-2.27671e-09
-1.38686e-06
-2.97638e-09
-1.38072e-06
-3.49505e-09
-1.36974e-06
-3.74431e-09
-1.35115e-06
-3.61774e-09
-1.32018e-06
-3.04511e-09
-1.26924e-06
-2.07119e-09
-1.18757e-06
-9.88349e-10
-1.06e-06
-7.91483e-07
9.43427e-10
-7.9246e-07
2.08504e-09
-1.06115e-06
3.01724e-09
-1.18831e-06
3.48075e-09
-1.2693e-06
3.47661e-09
-1.31982e-06
3.05814e-09
-1.35051e-06
2.34947e-09
-1.36892e-06
1.45875e-09
-1.37978e-06
4.74935e-10
-1.38586e-06
-5.34172e-10
-1.3886e-06
-1.51566e-09
-1.38862e-06
-2.43312e-09
-1.38594e-06
-3.21694e-09
-1.37993e-06
-3.8043e-09
-1.36915e-06
-4.08072e-09
-1.35086e-06
-3.95146e-09
-1.3203e-06
-3.33299e-09
-1.26984e-06
-2.21196e-09
-1.18868e-06
-8.56814e-10
-1.06135e-06
-7.92338e-07
9.55759e-10
-7.93393e-07
2.26899e-09
-1.06243e-06
3.33252e-09
-1.18936e-06
3.88741e-09
-1.26984e-06
3.9015e-09
-1.31983e-06
3.45582e-09
-1.35005e-06
2.68309e-09
-1.36814e-06
1.71925e-09
-1.37881e-06
6.54805e-10
-1.38478e-06
-4.34215e-10
-1.3875e-06
-1.497e-09
-1.38755e-06
-2.49213e-09
-1.38494e-06
-3.34589e-09
-1.37906e-06
-3.98552e-09
-1.3685e-06
-4.29454e-09
-1.35054e-06
-4.16953e-09
-1.32042e-06
-3.52764e-09
-1.27048e-06
-2.33426e-09
-1.18987e-06
-8.06998e-10
-1.06287e-06
-7.93143e-07
8.63924e-10
-7.94234e-07
2.36855e-09
-1.06391e-06
3.55216e-09
-1.19053e-06
4.18865e-09
-1.27046e-06
4.22722e-09
-1.31985e-06
3.76987e-09
-1.34958e-06
2.95445e-09
-1.36731e-06
1.93616e-09
-1.37777e-06
8.14603e-10
-1.38365e-06
-3.3579e-10
-1.38634e-06
-1.46294e-09
-1.38641e-06
-2.51212e-09
-1.38388e-06
-3.41583e-09
-1.37815e-06
-4.09636e-09
-1.36782e-06
-4.44421e-09
-1.35019e-06
-4.33519e-09
-1.32052e-06
-3.67866e-09
-1.27112e-06
-2.46822e-09
-1.19107e-06
-9.36417e-10
-1.06439e-06
-7.94077e-07
9.02405e-10
-7.95117e-07
2.48996e-09
-1.06547e-06
3.76532e-09
-1.19179e-06
4.44554e-09
-1.27112e-06
4.48408e-09
-1.31988e-06
3.99871e-09
-1.34908e-06
3.14847e-09
-1.36645e-06
2.091e-09
-1.37671e-06
9.27968e-10
-1.38247e-06
-2.76066e-10
-1.38512e-06
-1.45589e-09
-1.38522e-06
-2.55594e-09
-1.38277e-06
-3.50857e-09
-1.37718e-06
-4.23242e-09
-1.36708e-06
-4.61705e-09
-1.34979e-06
-4.52494e-09
-1.3206e-06
-3.83953e-09
-1.2718e-06
-2.57881e-09
-1.19232e-06
-1.0844e-09
-1.06587e-06
-7.95158e-07
1.10244e-09
-7.96201e-07
2.72968e-09
-1.06708e-06
4.02185e-09
-1.19307e-06
4.70122e-09
-1.27178e-06
4.72735e-09
-1.31989e-06
4.21724e-09
-1.34856e-06
3.33681e-09
-1.36556e-06
2.23975e-09
-1.3756e-06
1.02579e-09
-1.38125e-06
-2.30215e-10
-1.38385e-06
-1.47206e-09
-1.38397e-06
-2.62982e-09
-1.38159e-06
-3.6421e-09
-1.37616e-06
-4.40881e-09
-1.3663e-06
-4.81727e-09
-1.34937e-06
-4.73943e-09
-1.32066e-06
-4.04402e-09
-1.27248e-06
-2.76138e-09
-1.19359e-06
-1.22097e-09
-1.06739e-06
-7.96376e-07
1.28511e-09
-7.97464e-07
2.9329e-09
-1.0687e-06
4.29003e-09
-1.19441e-06
5.03583e-09
-1.27251e-06
5.08698e-09
-1.31993e-06
4.5629e-09
-1.34803e-06
3.63444e-09
-1.36462e-06
2.46564e-09
-1.37442e-06
1.16854e-09
-1.37995e-06
-1.71202e-10
-1.3825e-06
-1.50281e-09
-1.38263e-06
-2.75018e-09
-1.38033e-06
-3.84733e-09
-1.37505e-06
-4.67767e-09
-1.36545e-06
-5.12008e-09
-1.34891e-06
-5.04669e-09
-1.32072e-06
-4.32717e-09
-1.27318e-06
-3.00315e-09
-1.1949e-06
-1.39643e-09
-1.06899e-06
-7.97771e-07
1.25941e-09
-7.98696e-07
3.06678e-09
-1.07048e-06
4.54901e-09
-1.19587e-06
5.37175e-09
-1.27332e-06
5.4532e-09
-1.32e-06
4.91748e-09
-1.34747e-06
3.94457e-09
-1.36364e-06
2.70352e-09
-1.37316e-06
1.31999e-09
-1.37855e-06
-1.19527e-10
-1.38105e-06
-1.54996e-09
-1.38119e-06
-2.9001e-09
-1.37897e-06
-4.08618e-09
-1.37385e-06
-4.99544e-09
-1.36453e-06
-5.49155e-09
-1.3484e-06
-5.40585e-09
-1.3208e-06
-4.61064e-09
-1.27397e-06
-3.16597e-09
-1.19634e-06
-1.38538e-09
-1.07076e-06
-7.99154e-07
1.313e-09
-7.99987e-07
3.26273e-09
-1.07241e-06
4.79422e-09
-1.19738e-06
5.60356e-09
-1.27411e-06
5.66209e-09
-1.32004e-06
5.10647e-09
-1.3469e-06
4.11334e-09
-1.36263e-06
2.84419e-09
-1.37188e-06
1.41674e-09
-1.37711e-06
-8.03873e-11
-1.37954e-06
-1.57455e-09
-1.37969e-06
-2.99049e-09
-1.37755e-06
-4.23931e-09
-1.3726e-06
-5.20209e-09
-1.36356e-06
-5.73962e-09
-1.34786e-06
-5.6535e-09
-1.32087e-06
-4.8179e-09
-1.2748e-06
-3.281e-09
-1.19787e-06
-1.29996e-09
-1.07273e-06
-8.0045e-07
1.57626e-09
-8.01549e-07
3.48915e-09
-1.07432e-06
5.01709e-09
-1.1989e-06
5.81584e-09
-1.27489e-06
5.85857e-09
-1.32007e-06
5.29378e-09
-1.34632e-06
4.2872e-09
-1.36161e-06
2.9994e-09
-1.37058e-06
1.53766e-09
-1.37564e-06
5.48381e-12
-1.378e-06
-1.5319e-09
-1.37814e-06
-2.98452e-09
-1.37608e-06
-4.27667e-09
-1.3713e-06
-5.27606e-09
-1.36254e-06
-5.84323e-09
-1.34728e-06
-5.78637e-09
-1.32092e-06
-4.96782e-09
-1.27561e-06
-3.38167e-09
-1.19944e-06
-1.35013e-09
-1.07475e-06
-8.01797e-07
1.73781e-09
-8.03271e-07
3.68437e-09
-1.07625e-06
5.30733e-09
-1.20051e-06
6.1896e-09
-1.27576e-06
6.26237e-09
-1.32013e-06
5.68469e-09
-1.34573e-06
4.62997e-09
-1.36055e-06
3.27669e-09
-1.36921e-06
1.73712e-09
-1.3741e-06
1.36098e-10
-1.37638e-06
-1.46951e-09
-1.37653e-06
-2.97292e-09
-1.37456e-06
-4.30586e-09
-1.36996e-06
-5.33273e-09
-1.3615e-06
-5.90913e-09
-1.3467e-06
-5.87098e-09
-1.32094e-06
-5.06953e-09
-1.2764e-06
-3.49249e-09
-1.201e-06
-1.52311e-09
-1.0767e-06
-8.03318e-07
1.63011e-09
-8.04877e-07
3.82816e-09
-1.07842e-06
5.59022e-09
-1.20225e-06
6.5399e-09
-1.27669e-06
6.63344e-09
-1.32021e-06
6.03005e-09
-1.34511e-06
4.93048e-09
-1.35944e-06
3.50804e-09
-1.36778e-06
1.8942e-09
-1.37248e-06
2.03785e-10
-1.37468e-06
-1.48296e-09
-1.37484e-06
-3.07002e-09
-1.37296e-06
-4.47355e-09
-1.36855e-06
-5.563e-09
-1.3604e-06
-6.18289e-09
-1.34607e-06
-6.15089e-09
-1.32097e-06
-5.30817e-09
-1.27723e-06
-3.69209e-09
-1.20261e-06
-1.77047e-09
-1.07861e-06
-8.05087e-07
1.66138e-09
-8.06518e-07
3.98704e-09
-1.08074e-06
5.77889e-09
-1.20402e-06
6.71142e-09
-1.27761e-06
6.79443e-09
-1.32027e-06
6.17753e-09
-1.34449e-06
5.06611e-09
-1.35831e-06
3.61197e-09
-1.36632e-06
1.95424e-09
-1.37081e-06
1.9405e-10
-1.37291e-06
-1.56776e-09
-1.37307e-06
-3.24514e-09
-1.37127e-06
-4.73174e-09
-1.36705e-06
-5.89672e-09
-1.35923e-06
-6.55924e-09
-1.34539e-06
-6.51691e-09
-1.321e-06
-5.60142e-09
-1.27814e-06
-3.86969e-09
-1.20433e-06
-1.75782e-09
-1.08072e-06
-8.06844e-07
1.88578e-09
-8.08397e-07
4.15886e-09
-1.083e-06
5.98563e-09
-1.20584e-06
6.94861e-09
-1.27857e-06
7.02172e-09
-1.32034e-06
6.38856e-09
-1.34385e-06
5.24219e-09
-1.35716e-06
3.74656e-09
-1.36481e-06
2.0336e-09
-1.36909e-06
2.10955e-10
-1.37108e-06
-1.62186e-09
-1.37123e-06
-3.37558e-09
-1.36952e-06
-4.93222e-09
-1.36549e-06
-6.16054e-09
-1.358e-06
-6.86589e-09
-1.34468e-06
-6.83879e-09
-1.32101e-06
-5.89428e-09
-1.27907e-06
-4.06171e-09
-1.20616e-06
-1.70196e-09
-1.08308e-06
-8.08548e-07
1.96406e-09
-8.10358e-07
4.34638e-09
-1.08538e-06
6.2526e-09
-1.20775e-06
7.25261e-09
-1.27956e-06
7.31883e-09
-1.32041e-06
6.66001e-09
-1.34318e-06
5.46866e-09
-1.35597e-06
3.92169e-09
-1.36326e-06
2.14879e-09
-1.36731e-06
2.63989e-10
-1.36919e-06
-1.631e-09
-1.36933e-06
-3.44275e-09
-1.36771e-06
-5.05402e-09
-1.36387e-06
-6.33314e-09
-1.35672e-06
-7.08694e-09
-1.34392e-06
-7.08571e-09
-1.32101e-06
-6.13352e-09
-1.28002e-06
-4.24372e-09
-1.20806e-06
-1.77125e-09
-1.08556e-06
-8.10322e-07
2.02311e-09
-8.12379e-07
4.55144e-09
-1.08791e-06
6.51582e-09
-1.20971e-06
7.52745e-09
-1.28057e-06
7.58889e-09
-1.32047e-06
6.90499e-09
-1.34249e-06
5.67876e-09
-1.35474e-06
4.08343e-09
-1.36166e-06
2.25384e-09
-1.36548e-06
3.08794e-10
-1.36725e-06
-1.65074e-09
-1.36737e-06
-3.51986e-09
-1.36583e-06
-5.18323e-09
-1.36221e-06
-6.4944e-09
-1.3554e-06
-7.26659e-09
-1.34315e-06
-7.2661e-09
-1.32101e-06
-6.30597e-09
-1.28099e-06
-4.39811e-09
-1.20998e-06
-1.89477e-09
-1.08808e-06
-8.12218e-07
2.08819e-09
-8.14463e-07
4.69343e-09