/*--------------------------------*- C++ -*----------------------------------*\
  =========                 |
  \\      /  F ield         | OpenFOAM: The Open Source CFD Toolbox
   \\    /   O peration     | Website:  https://openfoam.org
    \\  /    A nd           | Version:  6
     \\/     M anipulation  |
\*---------------------------------------------------------------------------*/
FoamFile
{
    version     2.0;
    format      ascii;
    class       surfaceScalarField;
    location    "21";
    object      phi;
}
// * * * * * * * * * * * * * * * * * * * * * * * * * * * * * * * * * * * * * //

dimensions      [0 3 -1 0 0 0 0];

internalField   nonuniform List<scalar> 
258600
(
-8.47403e-09
-8.50831e-08
8.17054e-09
-8.76333e-09
-9.15747e-08
-9.02426e-09
-9.79664e-08
-9.25898e-09
-1.04179e-07
-9.46896e-09
-1.10157e-07
-9.65622e-09
-1.15854e-07
-9.82319e-09
-1.21233e-07
-9.97213e-09
-1.26266e-07
-1.01053e-08
-1.30929e-07
-1.02248e-08
-1.35207e-07
-1.03325e-08
-1.39092e-07
-1.043e-08
-1.42582e-07
-1.0519e-08
-1.4568e-07
-1.06005e-08
-1.48397e-07
-1.06757e-08
-1.50749e-07
-1.07454e-08
-1.52755e-07
-1.08102e-08
-1.5444e-07
-1.08709e-08
-1.55833e-07
-1.09279e-08
-1.56967e-07
-1.57878e-07
-1.09818e-08
-9.22502e-09
-8.48599e-08
9.00301e-09
-9.44375e-09
-9.13555e-08
-9.65298e-09
-9.77566e-08
-9.84704e-09
-1.03985e-07
-1.00241e-08
-1.09979e-07
-1.01842e-08
-1.15693e-07
-1.03283e-08
-1.21089e-07
-1.04577e-08
-1.26136e-07
-1.05743e-08
-1.30812e-07
-1.06798e-08
-1.35101e-07
-1.07756e-08
-1.38996e-07
-1.08634e-08
-1.42494e-07
-1.09443e-08
-1.45599e-07
-1.10195e-08
-1.48322e-07
-1.10898e-08
-1.50678e-07
-1.11559e-08
-1.52688e-07
-1.12182e-08
-1.54377e-07
-1.12772e-08
-1.55774e-07
-1.13334e-08
-1.56911e-07
-1.57824e-07
-1.13872e-08
-1.03681e-08
-8.46936e-08
1.02035e-08
-1.05324e-08
-9.11903e-08
-1.06907e-08
-9.75976e-08
-1.08385e-08
-1.03836e-07
-1.09745e-08
-1.09842e-07
-1.10981e-08
-1.15569e-07
-1.12102e-08
-1.20976e-07
-1.13118e-08
-1.26033e-07
-1.14044e-08
-1.30718e-07
-1.14891e-08
-1.35015e-07
-1.15674e-08
-1.38917e-07
-1.16402e-08
-1.4242e-07
-1.17088e-08
-1.45529e-07
-1.17738e-08
-1.48256e-07
-1.18361e-08
-1.50615e-07
-1.18959e-08
-1.52627e-07
-1.19538e-08
-1.54318e-07
-1.20097e-08
-1.55717e-07
-1.20642e-08
-1.56856e-07
-1.57771e-07
-1.21169e-08
-1.19244e-08
-8.46048e-08
1.18373e-08
-1.20146e-08
-9.10987e-08
-1.21046e-08
-9.75064e-08
-1.21907e-08
-1.03748e-07
-1.22714e-08
-1.0976e-07
-1.23459e-08
-1.15493e-07
-1.24147e-08
-1.20905e-07
-1.2478e-08
-1.25968e-07
-1.2537e-08
-1.30658e-07
-1.25923e-08
-1.34959e-07
-1.26451e-08
-1.38863e-07
-1.2696e-08
-1.42368e-07
-1.27459e-08
-1.45478e-07
-1.2795e-08
-1.48206e-07
-1.28441e-08
-1.50565e-07
-1.2893e-08
-1.52577e-07
-1.29423e-08
-1.54268e-07
-1.29913e-08
-1.55667e-07
-1.30407e-08
-1.56805e-07
-1.57721e-07
-1.30894e-08
-1.37325e-08
-8.45802e-08
1.37109e-08
-1.37567e-08
-9.10723e-08
-1.37815e-08
-9.74793e-08
-1.38057e-08
-1.03722e-07
-1.38284e-08
-1.09736e-07
-1.38497e-08
-1.15469e-07
-1.38698e-08
-1.20883e-07
-1.38892e-08
-1.25947e-07
-1.39086e-08
-1.30637e-07
-1.39287e-08
-1.34937e-07
-1.39502e-08
-1.3884e-07
-1.39733e-08
-1.42343e-07
-1.39991e-08
-1.45451e-07
-1.40271e-08
-1.48176e-07
-1.40581e-08
-1.50532e-07
-1.40913e-08
-1.52542e-07
-1.41274e-08
-1.54231e-07
-1.41651e-08
-1.55627e-07
-1.42052e-08
-1.56764e-07
-1.57678e-07
-1.42459e-08
-1.57102e-08
-8.46125e-08
1.57458e-08
-1.5675e-08
-9.11041e-08
-1.56398e-08
-9.7511e-08
-1.56055e-08
-1.03753e-07
-1.5572e-08
-1.09766e-07
-1.55404e-08
-1.15499e-07
-1.55108e-08
-1.20911e-07
-1.54843e-08
-1.25971e-07
-1.54615e-08
-1.30657e-07
-1.54431e-08
-1.34954e-07
-1.54297e-08
-1.38851e-07
-1.54215e-08
-1.42349e-07
-1.5419e-08
-1.45452e-07
-1.54219e-08
-1.48171e-07
-1.54306e-08
-1.50522e-07
-1.54441e-08
-1.52527e-07
-1.54628e-08
-1.54211e-07
-1.54852e-08
-1.55603e-07
-1.55118e-08
-1.56737e-07
-1.57648e-07
-1.55408e-08
-1.77902e-08
-8.46896e-08
1.78736e-08
-1.77052e-08
-9.11848e-08
-1.76172e-08
-9.75938e-08
-1.75305e-08
-1.03836e-07
-1.74448e-08
-1.09848e-07
-1.7363e-08
-1.15578e-07
-1.72853e-08
-1.20986e-07
-1.72135e-08
-1.26041e-07
-1.71481e-08
-1.3072e-07
-1.70902e-08
-1.35009e-07
-1.704e-08
-1.38899e-07
-1.69982e-08
-1.42389e-07
-1.69648e-08
-1.45484e-07
-1.69396e-08
-1.48194e-07
-1.69227e-08
-1.50538e-07
-1.6913e-08
-1.52535e-07
-1.69108e-08
-1.54211e-07
-1.69145e-08
-1.55597e-07
-1.69243e-08
-1.56725e-07
-1.57632e-07
-1.6938e-08
-1.99326e-08
-8.48081e-08
2.00558e-08
-1.98041e-08
-9.13098e-08
-1.96701e-08
-9.7723e-08
-1.95366e-08
-1.03967e-07
-1.94037e-08
-1.09977e-07
-1.92758e-08
-1.15703e-07
-1.91527e-08
-1.21106e-07
-1.90376e-08
-1.26154e-07
-1.89304e-08
-1.30825e-07
-1.88332e-08
-1.35105e-07
-1.87459e-08
-1.38984e-07
-1.86694e-08
-1.42464e-07
-1.86035e-08
-1.45548e-07
-1.85483e-08
-1.48248e-07
-1.85035e-08
-1.5058e-07
-1.84683e-08
-1.52568e-07
-1.84426e-08
-1.54236e-07
-1.84246e-08
-1.55613e-07
-1.84146e-08
-1.56734e-07
-1.57634e-07
-1.84103e-08
-2.21068e-08
-8.49617e-08
2.22635e-08
-2.19411e-08
-9.14725e-08
-2.17673e-08
-9.7892e-08
-2.15927e-08
-1.04139e-07
-2.14176e-08
-1.10148e-07
-2.12474e-08
-1.15871e-07
-2.10823e-08
-1.21268e-07
-2.09262e-08
-1.26308e-07
-2.07791e-08
-1.3097e-07
-2.06435e-08
-1.35238e-07
-2.05193e-08
-1.39106e-07
-2.04079e-08
-1.42573e-07
-2.03089e-08
-1.45644e-07
-2.02225e-08
-1.48332e-07
-2.01485e-08
-1.50652e-07
-2.00859e-08
-1.52628e-07
-2.00346e-08
-1.54285e-07
-1.99929e-08
-1.55652e-07
-1.99609e-08
-1.56764e-07
-1.57656e-07
-1.99362e-08
-2.42993e-08
-8.51447e-08
2.44853e-08
-2.41008e-08
-9.16684e-08
-2.38913e-08
-9.80969e-08
-2.36794e-08
-1.04348e-07
-2.34657e-08
-1.10358e-07
-2.32567e-08
-1.16078e-07
-2.30523e-08
-1.21469e-07
-2.28576e-08
-1.26501e-07
-2.26723e-08
-1.31152e-07
-2.24997e-08
-1.35409e-07
-2.23395e-08
-1.39264e-07
-2.21935e-08
-1.42717e-07
-2.20613e-08
-1.45774e-07
-2.19434e-08
-1.48447e-07
-2.18392e-08
-1.50754e-07
-2.17483e-08
-1.52716e-07
-2.167e-08
-1.54361e-07
-2.16031e-08
-1.55717e-07
-2.15472e-08
-1.56818e-07
-1.577e-07
-2.15002e-08
-2.64954e-08
-8.53533e-08
2.67069e-08
-2.6268e-08
-9.18929e-08
-2.60268e-08
-9.83329e-08
-2.57814e-08
-1.04591e-07
-2.55327e-08
-1.10603e-07
-2.52878e-08
-1.16321e-07
-2.5047e-08
-1.21706e-07
-2.48158e-08
-1.2673e-07
-2.45942e-08
-1.31371e-07
-2.4386e-08
-1.35615e-07
-2.41907e-08
-1.39456e-07
-2.40108e-08
-1.42895e-07
-2.38456e-08
-1.45937e-07
-2.36959e-08
-1.48594e-07
-2.35612e-08
-1.50886e-07
-2.34411e-08
-1.52834e-07
-2.33349e-08
-1.54464e-07
-2.32415e-08
-1.55807e-07
-2.31605e-08
-1.56896e-07
-1.57768e-07
-2.30898e-08
-2.86957e-08
-8.55862e-08
2.89324e-08
-2.84405e-08
-9.2145e-08
-2.81693e-08
-9.8599e-08
-2.78922e-08
-1.04865e-07
-2.76104e-08
-1.10881e-07
-2.73316e-08
-1.16598e-07
-2.70564e-08
-1.21978e-07
-2.67905e-08
-1.26994e-07
-2.65342e-08
-1.31624e-07
-2.62915e-08
-1.35856e-07
-2.60622e-08
-1.39683e-07
-2.58489e-08
-1.43106e-07
-2.5651e-08
-1.46132e-07
-2.54697e-08
-1.48773e-07
-2.53042e-08
-1.51049e-07
-2.51544e-08
-1.52981e-07
-2.50197e-08
-1.54596e-07
-2.48989e-08
-1.55925e-07
-2.47917e-08
-1.57001e-07
-1.5786e-07
-2.46961e-08
-3.08883e-08
-8.58424e-08
3.1148e-08
-3.06079e-08
-9.24221e-08
-3.03096e-08
-9.88918e-08
-3.00036e-08
-1.05168e-07
-2.96914e-08
-1.11188e-07
-2.93809e-08
-1.16906e-07
-2.90732e-08
-1.22282e-07
-2.87742e-08
-1.27291e-07
-2.84844e-08
-1.31911e-07
-2.82084e-08
-1.3613e-07
-2.79457e-08
-1.39942e-07
-2.76996e-08
-1.43349e-07
-2.74692e-08
-1.46359e-07
-2.72562e-08
-1.48983e-07
-2.70597e-08
-1.51242e-07
-2.68799e-08
-1.53157e-07
-2.6716e-08
-1.54757e-07
-2.65672e-08
-1.5607e-07
-2.64328e-08
-1.57132e-07
-1.57978e-07
-2.63113e-08
-3.30793e-08
-8.61197e-08
3.33609e-08
-3.27747e-08
-9.27229e-08
-3.24501e-08
-9.92104e-08
-3.21161e-08
-1.05498e-07
-3.17743e-08
-1.11525e-07
-3.14331e-08
-1.17244e-07
-3.10938e-08
-1.22618e-07
-3.07626e-08
-1.2762e-07
-3.04401e-08
-1.3223e-07
-3.01312e-08
-1.36436e-07
-2.98358e-08
-1.40234e-07
-2.95571e-08
-1.43625e-07
-2.92945e-08
-1.46618e-07
-2.90498e-08
-1.49225e-07
-2.88221e-08
-1.51466e-07
-2.86119e-08
-1.53364e-07
-2.84183e-08
-1.54947e-07
-2.82407e-08
-1.56244e-07
-2.80785e-08
-1.57291e-07
-1.58123e-07
-2.79301e-08
-3.52632e-08
-8.64158e-08
3.55642e-08
-3.49365e-08
-9.30454e-08
-3.45871e-08
-9.95535e-08
-3.42262e-08
-1.05855e-07
-3.3856e-08
-1.1189e-07
-3.34849e-08
-1.17612e-07
-3.31147e-08
-1.22984e-07
-3.27519e-08
-1.27979e-07
-3.23973e-08
-1.3258e-07
-3.2056e-08
-1.36775e-07
-3.1728e-08
-1.40558e-07
-3.14167e-08
-1.43934e-07
-3.11218e-08
-1.46909e-07
-3.08452e-08
-1.49498e-07
-3.0586e-08
-1.51722e-07
-3.03449e-08
-1.53602e-07
-3.01211e-08
-1.55167e-07
-2.99141e-08
-1.56447e-07
-2.97231e-08
-1.57478e-07
-1.58295e-07
-2.95471e-08
-3.74433e-08
-8.6732e-08
3.77644e-08
-3.70941e-08
-9.33904e-08
-3.67204e-08
-9.99211e-08
-3.6333e-08
-1.06239e-07
-3.59349e-08
-1.12283e-07
-3.55345e-08
-1.18009e-07
-3.51339e-08
-1.2338e-07
-3.47397e-08
-1.2837e-07
-3.43533e-08
-1.32962e-07
-3.39797e-08
-1.37145e-07
-3.36192e-08
-1.40915e-07
-3.32754e-08
-1.44274e-07
-3.2948e-08
-1.47232e-07
-3.26391e-08
-1.49804e-07
-3.2348e-08
-1.52008e-07
-3.20756e-08
-1.5387e-07
-3.18209e-08
-1.55417e-07
-3.15837e-08
-1.5668e-07
-3.13633e-08
-1.57694e-07
-1.58496e-07
-3.11586e-08
-3.96215e-08
-8.70697e-08
3.99645e-08
-3.92489e-08
-9.37588e-08
-3.88504e-08
-1.00313e-07
-3.84365e-08
-1.06648e-07
-3.80106e-08
-1.12704e-07
-3.75809e-08
-1.18434e-07
-3.715e-08
-1.23806e-07
-3.67246e-08
-1.28792e-07
-3.63062e-08
-1.33376e-07
-3.59001e-08
-1.37548e-07
-3.55069e-08
-1.41303e-07
-3.51301e-08
-1.44647e-07
-3.47699e-08
-1.47588e-07
-3.44282e-08
-1.50141e-07
-3.41047e-08
-1.52327e-07
-3.38002e-08
-1.54171e-07
-3.35139e-08
-1.55699e-07
-3.32457e-08
-1.56944e-07
-3.2995e-08
-1.5794e-07
-1.58725e-07
-3.27607e-08
-4.17953e-08
-8.74286e-08
4.21606e-08
-4.13995e-08
-9.41499e-08
-4.09768e-08
-1.0073e-07
-4.05366e-08
-1.07084e-07
-4.0083e-08
-1.13152e-07
-3.9624e-08
-1.18889e-07
-3.91626e-08
-1.24262e-07
-3.87055e-08
-1.29245e-07
-3.82549e-08
-1.33822e-07
-3.78158e-08
-1.37983e-07
-3.73894e-08
-1.41725e-07
-3.69792e-08
-1.45053e-07
-3.65855e-08
-1.47977e-07
-3.62104e-08
-1.50512e-07
-3.58537e-08
-1.52679e-07
-3.55162e-08
-1.54504e-07
-3.51975e-08
-1.56013e-07
-3.48974e-08
-1.57239e-07
-3.46153e-08
-1.58217e-07
-1.58986e-07
-3.43505e-08
-4.39747e-08
-8.78096e-08
4.4362e-08
-4.35545e-08
-9.45655e-08
-4.31058e-08
-1.01173e-07
-4.26376e-08
-1.07547e-07
-4.21548e-08
-1.13629e-07
-4.1665e-08
-1.19374e-07
-4.11722e-08
-1.24749e-07
-4.06824e-08
-1.2973e-07
-4.01987e-08
-1.343e-07
-3.97258e-08
-1.38451e-07
-3.92654e-08
-1.42181e-07
-3.88207e-08
-1.45493e-07
-3.83927e-08
-1.484e-07
-3.79832e-08
-1.50917e-07
-3.75923e-08
-1.53065e-07
-3.7221e-08
-1.5487e-07
-3.68687e-08
-1.5636e-07
-3.65356e-08
-1.57568e-07
-3.62211e-08
-1.58527e-07
-1.59277e-07
-3.59245e-08
-4.61536e-08
-8.82117e-08
4.65619e-08
-4.57089e-08
-9.50053e-08
-4.52339e-08
-1.01643e-07
-4.4737e-08
-1.08039e-07
-4.42242e-08
-1.14136e-07
-4.37028e-08
-1.19891e-07
-4.31776e-08
-1.25269e-07
-4.26543e-08
-1.30249e-07
-4.21366e-08
-1.34813e-07
-4.16288e-08
-1.38954e-07
-4.11333e-08
-1.42671e-07
-4.06533e-08
-1.45968e-07
-4.01898e-08
-1.48858e-07
-3.97449e-08
-1.51357e-07
-3.93188e-08
-1.53486e-07
-3.89124e-08
-1.55271e-07
-3.85256e-08
-1.56742e-07
-3.81583e-08
-1.5793e-07
-3.78102e-08
-1.5887e-07
-1.59602e-07
-3.74806e-08
-4.83354e-08
-8.86377e-08
4.8768e-08
-4.78641e-08
-9.54714e-08
-4.73612e-08
-1.0214e-07
-4.68344e-08
-1.0856e-07
-4.62907e-08
-1.14674e-07
-4.57367e-08
-1.20439e-07
-4.51781e-08
-1.25822e-07
-4.46203e-08
-1.30801e-07
-4.40675e-08
-1.3536e-07
-4.35237e-08
-1.39493e-07
-4.29921e-08
-1.43197e-07
-4.24754e-08
-1.4648e-07
-4.19753e-08
-1.49353e-07
-4.14935e-08
-1.51834e-07
-4.10309e-08
-1.53944e-07
-4.05881e-08
-1.55709e-07
-4.01654e-08
-1.57159e-07
-3.97626e-08
-1.58327e-07
-3.93796e-08
-1.59248e-07
-1.5996e-07
-3.90157e-08
-5.05142e-08
-8.90882e-08
5.09722e-08
-5.00163e-08
-9.59634e-08
-4.94857e-08
-1.02665e-07
-4.89289e-08
-1.09111e-07
-4.83537e-08
-1.15244e-07
-4.77663e-08
-1.2102e-07
-4.71734e-08
-1.2641e-07
-4.65799e-08
-1.31389e-07
-4.59907e-08
-1.35944e-07
-4.54097e-08
-1.40068e-07
-4.48405e-08
-1.43761e-07
-4.42857e-08
-1.4703e-07
-4.37475e-08
-1.49886e-07
-4.32275e-08
-1.52348e-07
-4.27269e-08
-1.54439e-07
-4.22462e-08
-1.56184e-07
-4.17861e-08
-1.57614e-07
-4.13462e-08
-1.58762e-07
-4.09268e-08
-1.59662e-07
-1.60355e-07
-4.05272e-08
-5.27009e-08
-8.95638e-08
5.31843e-08
-5.21749e-08
-9.64833e-08
-5.16143e-08
-1.0322e-07
-5.10252e-08
-1.09694e-07
-5.04164e-08
-1.15847e-07
-4.97936e-08
-1.21637e-07
-4.91644e-08
-1.27033e-07
-4.85333e-08
-1.32014e-07
-4.79061e-08
-1.36566e-07
-4.72861e-08
-1.40682e-07
-4.66777e-08
-1.44364e-07
-4.60831e-08
-1.47618e-07
-4.55052e-08
-1.50459e-07
-4.49451e-08
-1.52903e-07
-4.44048e-08
-1.54974e-07
-4.38845e-08
-1.56699e-07
-4.33852e-08
-1.58108e-07
-4.29066e-08
-1.59235e-07
-4.24492e-08
-1.60114e-07
-1.60786e-07
-4.20122e-08
-5.48897e-08
-9.00632e-08
5.53974e-08
-5.43355e-08
-9.70307e-08
-5.37441e-08
-1.03806e-07
-5.31214e-08
-1.1031e-07
-5.24775e-08
-1.16485e-07
-5.18177e-08
-1.2229e-07
-5.11504e-08
-1.27694e-07
-5.04799e-08
-1.32678e-07
-4.98128e-08
-1.37227e-07
-4.9152e-08
-1.41337e-07
-4.85025e-08
-1.45008e-07
-4.78662e-08
-1.48249e-07
-4.72467e-08
-1.51073e-07
-4.66447e-08
-1.53499e-07
-4.60628e-08
-1.5555e-07
-4.5501e-08
-1.57255e-07
-4.49607e-08
-1.58643e-07
-4.44415e-08
-1.59748e-07
-4.39443e-08
-1.60606e-07
-1.61256e-07
-4.34681e-08
-5.70846e-08
-9.05898e-08
5.762e-08
-5.64997e-08
-9.76086e-08
-5.58753e-08
-1.04425e-07
-5.52173e-08
-1.1096e-07
-5.45364e-08
-1.1716e-07
-5.38378e-08
-1.22981e-07
-5.31308e-08
-1.28396e-07
-5.2419e-08
-1.33383e-07
-5.171e-08
-1.3793e-07
-5.10064e-08
-1.42034e-07
-5.03139e-08
-1.45695e-07
-4.96338e-08
-1.48922e-07
-4.89706e-08
-1.5173e-07
-4.83246e-08
-1.54138e-07
-4.76991e-08
-1.5617e-07
-4.70936e-08
-1.57854e-07
-4.65104e-08
-1.59221e-07
-4.59485e-08
-1.60304e-07
-4.54097e-08
-1.6114e-07
-1.61767e-07
-4.48923e-08
-5.92804e-08
-9.11459e-08
5.98446e-08
-5.8664e-08
-9.82177e-08
-5.80061e-08
-1.05077e-07
-5.73117e-08
-1.11647e-07
-5.65928e-08
-1.17873e-07
-5.58538e-08
-1.23713e-07
-5.51051e-08
-1.29138e-07
-5.43501e-08
-1.3413e-07
-5.35971e-08
-1.38677e-07
-5.28484e-08
-1.42775e-07
-5.21106e-08
-1.46427e-07
-5.13845e-08
-1.49642e-07
-5.06754e-08
-1.52434e-07
-4.99832e-08
-1.54824e-07
-4.93118e-08
-1.56836e-07
-4.86604e-08
-1.58499e-07
-4.8032e-08
-1.59844e-07
-4.74252e-08
-1.60904e-07
-4.68424e-08
-1.61717e-07
-1.62322e-07
-4.62817e-08
-6.14851e-08
-9.17303e-08
6.20788e-08
-6.08356e-08
-9.88594e-08
-6.01416e-08
-1.05765e-07
-5.94083e-08
-1.12372e-07
-5.86485e-08
-1.18626e-07
-5.78667e-08
-1.24486e-07
-5.70738e-08
-1.29925e-07
-5.62731e-08
-1.34923e-07
-5.54737e-08
-1.39471e-07
-5.46774e-08
-1.43564e-07
-5.38917e-08
-1.47207e-07
-5.31171e-08
-1.50409e-07
-5.23595e-08
-1.53186e-07
-5.16184e-08
-1.55558e-07
-5.08986e-08
-1.5755e-07
-5.01988e-08
-1.59192e-07
-4.95227e-08
-1.60514e-07
-4.88685e-08
-1.61552e-07
-4.82396e-08
-1.62341e-07
-1.62921e-07
-4.76332e-08
-6.36944e-08
-9.23445e-08
6.43177e-08
-6.30109e-08
-9.95348e-08
-6.22794e-08
-1.0649e-07
-6.15054e-08
-1.13138e-07
-6.07028e-08
-1.19423e-07
-5.98758e-08
-1.25305e-07
-5.90363e-08
-1.30758e-07
-5.81874e-08
-1.35765e-07
-5.73389e-08
-1.40314e-07
-5.64923e-08
-1.44403e-07
-5.5656e-08
-1.48038e-07
-5.483e-08
-1.51228e-07
-5.40211e-08
-1.53989e-07
-5.32284e-08
-1.56344e-07
-5.24574e-08
-1.58316e-07
-5.17064e-08
-1.59936e-07
-5.09799e-08
-1.61235e-07
-5.02757e-08
-1.62249e-07
-4.95978e-08
-1.63014e-07
-1.63569e-07
-4.89432e-08
-6.59103e-08
-9.29899e-08
6.65657e-08
-6.51909e-08
-1.00246e-07
-6.44198e-08
-1.07255e-07
-6.3603e-08
-1.13946e-07
-6.27552e-08
-1.20264e-07
-6.18806e-08
-1.26171e-07
-6.0992e-08
-1.31641e-07
-6.00921e-08
-1.36656e-07
-5.91917e-08
-1.41208e-07
-5.8292e-08
-1.45295e-07
-5.74021e-08
-1.48922e-07
-5.65218e-08
-1.52101e-07
-5.56586e-08
-1.54847e-07
-5.48112e-08
-1.57184e-07
-5.39861e-08
-1.59136e-07
-5.31808e-08
-1.60734e-07
-5.2401e-08
-1.6201e-07
-5.16438e-08
-1.62999e-07
-5.09143e-08
-1.63738e-07
-1.64268e-07
-5.02086e-08
-6.81342e-08
-9.36702e-08
6.88237e-08
-6.73763e-08
-1.00995e-07
-6.65634e-08
-1.08062e-07
-6.57014e-08
-1.14799e-07
-6.48059e-08
-1.21154e-07
-6.3881e-08
-1.27088e-07
-6.29405e-08
-1.32576e-07
-6.19867e-08
-1.37602e-07
-6.10314e-08
-1.42158e-07
-6.00754e-08
-1.46244e-07
-5.91288e-08
-1.49864e-07
-5.8191e-08
-1.53031e-07
-5.72703e-08
-1.55763e-07
-5.6365e-08
-1.58082e-07
-5.54823e-08
-1.60014e-07
-5.46197e-08
-1.6159e-07
-5.37834e-08
-1.62842e-07
-5.29701e-08
-1.63805e-07
-5.21858e-08
-1.64518e-07
-1.65021e-07
-5.1426e-08
-7.03671e-08
-9.43865e-08
7.10931e-08
-6.95685e-08
-1.01785e-07
-6.87111e-08
-1.08913e-07
-6.78011e-08
-1.15701e-07
-6.6855e-08
-1.22094e-07
-6.58769e-08
-1.28057e-07
-6.48813e-08
-1.33566e-07
-6.38704e-08
-1.38605e-07
-6.2857e-08
-1.43167e-07
-6.18415e-08
-1.47251e-07
-6.08347e-08
-1.50866e-07
-5.98358e-08
-1.54023e-07
-5.88541e-08
-1.5674e-07
-5.78874e-08
-1.59041e-07
-5.69438e-08
-1.60953e-07
-5.60203e-08
-1.62506e-07
-5.51241e-08
-1.63734e-07
-5.42512e-08
-1.64671e-07
-5.34088e-08
-1.65357e-07
-1.6583e-07
-5.25917e-08
-7.26095e-08
-9.51426e-08
7.3374e-08
-7.17675e-08
-1.0262e-07
-7.0863e-08
-1.09813e-07
-6.99024e-08
-1.16653e-07
-6.89026e-08
-1.23089e-07
-6.78681e-08
-1.29084e-07
-6.68141e-08
-1.34615e-07
-6.57427e-08
-1.39669e-07
-6.46675e-08
-1.44237e-07
-6.35888e-08
-1.48323e-07
-6.25182e-08
-1.51932e-07
-6.14546e-08
-1.55079e-07
-6.04081e-08
-1.57783e-07
-5.93763e-08
-1.60066e-07
-5.8368e-08
-1.61958e-07
-5.738e-08
-1.63488e-07
-5.642e-08
-1.6469e-07
-5.54841e-08
-1.656e-07
-5.45799e-08
-1.66258e-07
-1.66702e-07
-5.3702e-08
-7.48627e-08
-9.5939e-08
7.56681e-08
-7.39748e-08
-1.035e-07
-7.30204e-08
-1.10762e-07
-7.20056e-08
-1.1766e-07
-7.09489e-08
-1.2414e-07
-6.98543e-08
-1.3017e-07
-6.87382e-08
-1.35727e-07
-6.76026e-08
-1.40796e-07
-6.64617e-08
-1.45374e-07
-6.53158e-08
-1.49461e-07
-6.41774e-08
-1.53067e-07
-6.3045e-08
-1.56205e-07
-6.19296e-08
-1.58894e-07
-6.08286e-08
-1.6116e-07
-5.97516e-08
-1.63031e-07
-5.8695e-08
-1.64537e-07
-5.76675e-08
-1.65714e-07
-5.66645e-08
-1.66596e-07
-5.56948e-08
-1.67224e-07
-1.67637e-07
-5.47524e-08
-7.71273e-08
-9.67797e-08
7.79758e-08
-7.61906e-08
-1.04429e-07
-7.51832e-08
-1.11765e-07
-7.41111e-08
-1.18724e-07
-7.29939e-08
-1.25253e-07
-7.18355e-08
-1.31321e-07
-7.06533e-08
-1.36905e-07
-6.94492e-08
-1.41993e-07
-6.82385e-08
-1.46581e-07
-6.70211e-08
-1.50672e-07
-6.58105e-08
-1.54274e-07
-6.4605e-08
-1.57403e-07
-6.34164e-08
-1.6008e-07
-6.22419e-08
-1.62329e-07
-6.10918e-08
-1.64178e-07
-5.99623e-08
-1.65661e-07
-5.88629e-08
-1.6681e-07
-5.77888e-08
-1.67664e-07
-5.67495e-08
-1.68261e-07
-1.68642e-07
-5.57386e-08
-7.94053e-08
-9.76658e-08
8.02998e-08
-7.84169e-08
-1.0541e-07
-7.7353e-08
-1.12825e-07
-7.62198e-08
-1.19849e-07
-7.50379e-08
-1.26431e-07
-7.38115e-08
-1.32539e-07
-7.2559e-08
-1.38154e-07
-7.1282e-08
-1.43262e-07
-6.99968e-08
-1.47863e-07
-6.87033e-08
-1.51958e-07
-6.74157e-08
-1.55558e-07
-6.61323e-08
-1.5868e-07
-6.48657e-08
-1.61344e-07
-6.36128e-08
-1.63575e-07
-6.23849e-08
-1.65403e-07
-6.11778e-08
-1.66861e-07
-6.00019e-08
-1.67984e-07
-5.88521e-08
-1.68808e-07
-5.77387e-08
-1.69373e-07
-1.69719e-07
-5.66551e-08
-8.16974e-08
-9.86019e-08
8.26405e-08
-8.06537e-08
-1.06446e-07
-7.95298e-08
-1.13946e-07
-7.83316e-08
-1.2104e-07
-7.70812e-08
-1.27678e-07
-7.57824e-08
-1.33831e-07
-7.44548e-08
-1.39478e-07
-7.31002e-08
-1.4461e-07
-7.17357e-08
-1.49224e-07
-7.0361e-08
-1.53326e-07
-6.89915e-08
-1.56925e-07
-6.76251e-08
-1.6004e-07
-6.62753e-08
-1.62691e-07
-6.49389e-08
-1.64905e-07
-6.36279e-08
-1.66712e-07
-6.23383e-08
-1.68145e-07
-6.10808e-08
-1.69239e-07
-5.98504e-08
-1.70032e-07
-5.8658e-08
-1.70564e-07
-1.70875e-07
-5.74969e-08
-8.40054e-08
-9.95892e-08
8.50007e-08
-8.29033e-08
-1.07541e-07
-8.17152e-08
-1.15131e-07
-8.04477e-08
-1.22299e-07
-7.9124e-08
-1.28999e-07
-7.7748e-08
-1.35199e-07
-7.63405e-08
-1.40882e-07
-7.4903e-08
-1.4604e-07
-7.34539e-08
-1.50671e-07
-7.19927e-08
-1.5478e-07
-7.05357e-08
-1.5838e-07
-6.90807e-08
-1.61489e-07
-6.76422e-08
-1.64128e-07
-6.62166e-08
-1.66325e-07
-6.48171e-08
-1.6811e-07
-6.34391e-08
-1.69517e-07
-6.20946e-08
-1.70582e-07
-6.07782e-08
-1.71343e-07
-5.95017e-08
-1.71839e-07
-1.72112e-07
-5.82581e-08
-8.63304e-08
-1.00633e-07
8.73808e-08
-8.51657e-08
-1.08698e-07
-8.39094e-08
-1.16385e-07
-8.25682e-08
-1.23633e-07
-8.11664e-08
-1.30398e-07
-7.97082e-08
-1.3665e-07
-7.82154e-08
-1.42373e-07
-7.66896e-08
-1.47559e-07
-7.51502e-08
-1.52208e-07
-7.35967e-08
-1.56327e-07
-7.20462e-08
-1.59929e-07
-7.04967e-08
-1.63032e-07
-6.89634e-08
-1.6566e-07
-6.74428e-08
-1.67839e-07
-6.59486e-08
-1.69603e-07
-6.44766e-08
-1.70984e-07
-6.30391e-08
-1.72019e-07
-6.1631e-08
-1.72746e-07
-6.02646e-08
-1.73205e-07
-1.73439e-07
-5.8933e-08
-8.86747e-08
-1.01735e-07
8.97841e-08
-8.74435e-08
-1.09922e-07
-8.61144e-08
-1.17711e-07
-8.46943e-08
-1.25046e-07
-8.3209e-08
-1.3188e-07
-8.1663e-08
-1.38188e-07
-8.0079e-08
-1.43954e-07
-7.8459e-08
-1.49172e-07
-7.6823e-08
-1.53842e-07
-7.51709e-08
-1.57973e-07
-7.35206e-08
-1.61578e-07
-7.18701e-08
-1.64676e-07
-7.02354e-08
-1.67293e-07
-6.86131e-08
-1.69456e-07
-6.70178e-08
-1.71197e-07
-6.54451e-08
-1.72551e-07
-6.39083e-08
-1.73554e-07
-6.24022e-08
-1.74246e-07
-6.094e-08
-1.74667e-07
-1.74859e-07
-5.95144e-08
-9.10395e-08
-1.02901e-07
9.22117e-08
-8.97371e-08
-1.11218e-07
-8.83303e-08
-1.19116e-07
-8.68262e-08
-1.26543e-07
-8.5252e-08
-1.33453e-07
-8.36122e-08
-1.39821e-07
-8.1931e-08
-1.45634e-07
-8.02101e-08
-1.50886e-07
-7.8471e-08
-1.5558e-07
-7.67134e-08
-1.59724e-07
-7.49563e-08
-1.63334e-07
-7.31978e-08
-1.66429e-07
-7.14546e-08
-1.69036e-07
-6.97237e-08
-1.71182e-07
-6.80202e-08
-1.729e-07
-6.634e-08
-1.74226e-07
-6.4697e-08
-1.75197e-07
-6.30862e-08
-1.75852e-07
-6.15215e-08
-1.76232e-07
-1.7638e-07
-5.99957e-08
-9.34271e-08
-1.04134e-07
9.46665e-08
-9.20492e-08
-1.12589e-07
-9.05592e-08
-1.20604e-07
-8.89654e-08
-1.28129e-07
-8.7296e-08
-1.3512e-07
-8.55559e-08
-1.41554e-07
-8.37705e-08
-1.47418e-07
-8.19419e-08
-1.52708e-07
-8.00924e-08
-1.57428e-07
-7.8222e-08
-1.61589e-07
-7.63505e-08
-1.65205e-07
-7.44763e-08
-1.68298e-07
-7.26171e-08
-1.70894e-07
-7.07698e-08
-1.73024e-07
-6.89505e-08
-1.74719e-07
-6.71551e-08
-1.76016e-07
-6.53984e-08
-1.76954e-07
-6.36756e-08
-1.7757e-07
-6.20011e-08
-1.77907e-07
-1.78007e-07
-6.03682e-08
-9.58396e-08
-1.05439e-07
9.71504e-08
-9.43805e-08
-1.14041e-07
-9.2802e-08
-1.22182e-07
-9.11123e-08
-1.29812e-07
-8.93413e-08
-1.3689e-07
-8.74941e-08
-1.43394e-07
-8.55973e-08
-1.49314e-07
-8.36533e-08
-1.54646e-07
-8.16856e-08
-1.59396e-07
-7.96944e-08
-1.63574e-07
-7.77005e-08
-1.67198e-07
-7.57024e-08
-1.70291e-07
-7.37187e-08
-1.72878e-07
-7.17468e-08
-1.74991e-07
-6.98033e-08
-1.76663e-07
-6.78847e-08
-1.77931e-07
-6.60062e-08
-1.78833e-07
-6.41634e-08
-1.79409e-07
-6.23715e-08
-1.797e-07
-1.79751e-07
-6.06238e-08
-9.82793e-08
-1.0682e-07
9.96666e-08
-9.67341e-08
-1.15579e-07
-9.50607e-08
-1.23854e-07
-9.32684e-08
-1.31597e-07
-9.13885e-08
-1.38769e-07
-8.94266e-08
-1.45349e-07
-8.74105e-08
-1.51329e-07
-8.53431e-08
-1.56707e-07
-8.32487e-08
-1.61489e-07
-8.1128e-08
-1.65689e-07
-7.90027e-08
-1.69324e-07
-7.68718e-08
-1.72417e-07
-7.47547e-08
-1.74995e-07
-7.2649e-08
-1.77092e-07
-7.05724e-08
-1.7874e-07
-6.85214e-08
-1.79977e-07
-6.65123e-08
-1.80842e-07
-6.45409e-08
-1.81376e-07
-6.2623e-08
-1.81619e-07
-1.81617e-07
-6.07525e-08
-1.00749e-07
-1.08284e-07
1.02217e-07
-9.91108e-08
-1.1721e-07
-9.73362e-08
-1.25628e-07
-9.54344e-08
-1.33492e-07
-9.34381e-08
-1.40764e-07
-9.13535e-08
-1.47427e-07
-8.92097e-08
-1.53472e-07
-8.70099e-08
-1.58901e-07
-8.47797e-08
-1.6372e-07
-8.25202e-08
-1.67943e-07
-8.0254e-08
-1.7159e-07
-7.79806e-08
-1.74685e-07
-7.57202e-08
-1.77257e-07
-7.34711e-08
-1.79337e-07
-7.12513e-08
-1.80961e-07
-6.90585e-08
-1.82166e-07
-6.69091e-08
-1.82993e-07
-6.47997e-08
-1.83481e-07
-6.27467e-08
-1.83674e-07
-1.83615e-07
-6.07444e-08
-1.0325e-07
-1.09834e-07
1.04806e-07
-1.01514e-07
-1.1894e-07
-9.96308e-08
-1.2751e-07
-9.76117e-08
-1.35504e-07
-9.54906e-08
-1.42885e-07
-9.32746e-08
-1.49636e-07
-9.09939e-08
-1.55753e-07
-8.86521e-08
-1.61236e-07
-8.62762e-08
-1.66096e-07
-8.38677e-08
-1.70346e-07
-8.14502e-08
-1.74008e-07
-7.90237e-08
-1.77107e-07
-7.66095e-08
-1.79672e-07
-7.4206e-08
-1.81736e-07
-7.18327e-08
-1.83335e-07
-6.94872e-08
-1.84508e-07
-6.71871e-08
-1.85294e-07
-6.49295e-08
-1.85735e-07
-6.27314e-08
-1.85874e-07
-1.85755e-07
-6.05877e-08
-1.05786e-07
-1.11478e-07
1.07436e-07
-1.03944e-07
-1.20775e-07
-1.01946e-07
-1.29509e-07
-9.98012e-08
-1.37641e-07
-9.75468e-08
-1.45139e-07
-9.519e-08
-1.51987e-07
-9.27624e-08
-1.58181e-07
-9.02685e-08
-1.63725e-07
-8.77362e-08
-1.68629e-07
-8.51675e-08
-1.7291e-07
-8.25875e-08
-1.7659e-07
-7.99964e-08
-1.79694e-07
-7.74166e-08
-1.82253e-07
-7.48474e-08
-1.84301e-07
-7.23087e-08
-1.85875e-07
-6.97992e-08
-1.87014e-07
-6.7337e-08
-1.87758e-07
-6.492e-08
-1.88149e-07
-6.25659e-08
-1.88231e-07
-1.88047e-07
-6.02703e-08
-1.08361e-07
-1.13222e-07
1.1011e-07
-1.06407e-07
-1.22722e-07
-1.04284e-07
-1.31631e-07
-1.02005e-07
-1.39913e-07
-9.96076e-08
-1.47536e-07
-9.70997e-08
-1.54488e-07
-9.45146e-08
-1.60766e-07
-9.18572e-08
-1.66376e-07
-8.91568e-08
-1.7133e-07
-8.64161e-08
-1.75646e-07
-8.36611e-08
-1.79346e-07
-8.08929e-08
-1.82458e-07
-7.8135e-08
-1.85013e-07
-7.53871e-08
-1.87046e-07
-7.26704e-08
-1.88594e-07
-6.99841e-08
-1.89697e-07
-6.73474e-08
-1.90396e-07
-6.47588e-08
-1.90734e-07
-6.22368e-08
-1.90755e-07
-1.90503e-07
-5.97779e-08
-1.10977e-07
-1.15072e-07
1.12832e-07
-1.08902e-07
-1.24791e-07
-1.06647e-07
-1.33887e-07
-1.04224e-07
-1.42329e-07
-1.01674e-07
-1.50088e-07
-9.9004e-08
-1.57152e-07
-9.62498e-08
-1.63521e-07
-9.34167e-08
-1.69204e-07
-9.05356e-08
-1.74213e-07
-8.76097e-08
-1.78567e-07
-8.46664e-08
-1.82291e-07
-8.17075e-08
-1.85413e-07
-7.87574e-08
-1.87965e-07
-7.58171e-08
-1.89983e-07
-7.29084e-08
-1.91505e-07
-7.00317e-08
-1.92571e-07
-6.72068e-08
-1.93224e-07
-6.44333e-08
-1.93506e-07
-6.17303e-08
-1.93461e-07
-1.93136e-07
-5.90955e-08
-1.13639e-07
-1.17036e-07
1.15608e-07
-1.11435e-07
-1.26988e-07
-1.09038e-07
-1.36285e-07
-1.06462e-07
-1.44899e-07
-1.03747e-07
-1.52803e-07
-1.00903e-07
-1.59989e-07
-9.79673e-08
-1.66459e-07
-9.49453e-08
-1.72221e-07
-9.18696e-08
-1.77291e-07
-8.87442e-08
-1.81688e-07
-8.55978e-08
-1.8544e-07
-8.24332e-08
-1.88574e-07
-7.92759e-08
-1.91125e-07
-7.61277e-08
-1.93128e-07
-7.30118e-08
-1.94623e-07
-6.99293e-08
-1.95651e-07
-6.69013e-08
-1.96255e-07
-6.39281e-08
-1.96477e-07
-6.10301e-08
-1.96362e-07
-1.95958e-07
-5.82056e-08
-1.1635e-07
-1.19122e-07
1.1844e-07
-1.14009e-07
-1.29323e-07
-1.1146e-07
-1.38835e-07
-1.08719e-07
-1.47634e-07
-1.05828e-07
-1.55696e-07
-1.02798e-07
-1.63014e-07
-9.96664e-08
-1.69592e-07
-9.64411e-08
-1.75441e-07
-9.31558e-08
-1.80578e-07
-8.98153e-08
-1.85025e-07
-8.64498e-08
-1.88808e-07
-8.30629e-08
-1.91958e-07
-7.96818e-08
-1.94509e-07
-7.6309e-08
-1.96499e-07
-7.2969e-08
-1.97967e-07
-6.96641e-08
-1.98955e-07
-6.64165e-08
-1.99506e-07
-6.32277e-08
-1.99664e-07
-6.01188e-08
-1.99475e-07
-1.98986e-07
-5.70896e-08
-1.19117e-07
-1.21338e-07
1.21337e-07
-1.16628e-07
-1.31805e-07
-1.13917e-07
-1.41548e-07
-1.10999e-07
-1.50546e-07
-1.07919e-07
-1.58778e-07
-1.04688e-07
-1.66239e-07
-1.01347e-07
-1.72935e-07
-9.79021e-08
-1.78881e-07
-9.43908e-08
-1.84092e-07
-9.08179e-08
-1.88594e-07
-8.72157e-08
-1.92414e-07
-8.35884e-08
-1.95583e-07
-7.9965e-08
-1.98136e-07
-7.63489e-08
-2.00113e-07
-7.27664e-08
-2.01553e-07
-6.92205e-08
-2.02499e-07
-6.57351e-08
-2.02995e-07
-6.23127e-08
-2.03085e-07
-5.89758e-08
-2.02817e-07
-2.02235e-07
-5.57253e-08
-1.21942e-07
-1.23693e-07
1.243e-07
-1.19296e-07
-1.34445e-07
-1.16412e-07
-1.44435e-07
-1.13304e-07
-1.53648e-07
-1.10021e-07
-1.62063e-07
-1.06575e-07
-1.6968e-07
-1.03007e-07
-1.76506e-07
-9.93263e-08
-1.82557e-07
-9.55709e-08
-1.87852e-07
-9.17468e-08
-1.92415e-07
-8.78883e-08
-1.96276e-07
-8.40006e-08
-1.99468e-07
-8.01145e-08
-2.02027e-07
-7.62347e-08
-2.03991e-07
-7.23889e-08
-2.05403e-07
-6.85819e-08
-2.06306e-07
-6.48385e-08
-2.06743e-07
-6.11631e-08
-2.06761e-07
-5.7579e-08
-2.06406e-07
-2.05725e-07
-5.40889e-08
-1.24833e-07
-1.26194e-07
1.27339e-07
-1.22019e-07
-1.37252e-07
-1.18949e-07
-1.47508e-07
-1.15638e-07
-1.56953e-07
-1.12137e-07
-1.65567e-07
-1.08459e-07
-1.73353e-07
-1.04647e-07
-1.80321e-07
-1.00711e-07
-1.86488e-07
-9.66917e-08
-1.91875e-07
-9.25955e-08
-1.96508e-07
-8.84591e-08
-2.00418e-07
-8.42888e-08
-2.03637e-07
-8.01174e-08
-2.06203e-07
-7.59509e-08
-2.08157e-07
-7.18192e-08
-2.0954e-07
-6.77281e-08
-2.10397e-07
-6.37045e-08
-2.10772e-07
-5.97542e-08
-2.10712e-07
-5.5902e-08
-2.10264e-07
-2.09475e-07
-5.21522e-08
-1.27793e-07
-1.28855e-07
1.30456e-07
-1.248e-07
-1.4024e-07
-1.21532e-07
-1.50782e-07
-1.18003e-07
-1.60476e-07
-1.14269e-07
-1.69306e-07
-1.1034e-07
-1.77277e-07
-1.06265e-07
-1.84401e-07
-1.02054e-07
-1.90696e-07
-9.77483e-08
-1.96186e-07
-9.33569e-08
-2.00898e-07
-8.89187e-08
-2.04862e-07
-8.4441e-08
-2.08114e-07
-7.9959e-08
-2.10692e-07
-7.54806e-08
-2.12636e-07
-7.10372e-08
-2.1399e-07
-6.6637e-08
-2.14799e-07
-6.23083e-08
-2.15107e-07
-5.80591e-08
-2.14963e-07
-5.39154e-08
-2.14415e-07
-2.13509e-07
-4.98838e-08
-1.30831e-07
-1.31683e-07
1.33662e-07
-1.27647e-07
-1.43418e-07
-1.24167e-07
-1.54268e-07
-1.20405e-07
-1.64233e-07
-1.16419e-07
-1.73297e-07
-1.1222e-07
-1.8147e-07
-1.07861e-07
-1.88766e-07
-1.03351e-07
-1.95204e-07
-9.87348e-08
-2.00808e-07
-9.40224e-08
-2.05608e-07
-8.92554e-08
-2.09636e-07
-8.44425e-08
-2.12927e-07
-7.96219e-08
-2.1552e-07
-7.48026e-08
-2.17457e-07
-7.00193e-08
-2.18781e-07
-6.52815e-08
-2.19539e-07
-6.06201e-08
-2.19776e-07
-5.60451e-08
-2.19541e-07
-5.15843e-08
-2.18883e-07
-2.1785e-07
-4.72463e-08
-1.33953e-07
-1.34691e-07
1.36961e-07
-1.30565e-07
-1.46802e-07
-1.26857e-07
-1.57983e-07
-1.22845e-07
-1.6824e-07
-1.18589e-07
-1.77561e-07
-1.141e-07
-1.85955e-07
-1.09433e-07
-1.9344e-07
-1.04598e-07
-2.00036e-07
-9.96441e-08
-2.0577e-07
-9.45817e-08
-2.1067e-07
-8.94557e-08
-2.14771e-07