/*--------------------------------*- C++ -*----------------------------------*\
  =========                 |
  \\      /  F ield         | OpenFOAM: The Open Source CFD Toolbox
   \\    /   O peration     | Website:  https://openfoam.org
    \\  /    A nd           | Version:  6
     \\/     M anipulation  |
\*---------------------------------------------------------------------------*/
FoamFile
{
    version     2.0;
    format      ascii;
    class       volVectorField;
    location    "21";
    object      U;
}
// * * * * * * * * * * * * * * * * * * * * * * * * * * * * * * * * * * * * * //

dimensions      [0 1 -1 0 0 0 0];

internalField   nonuniform List<vector> 
130000
(
(-0.0166534 -0.341257 0)
(-0.0172476 -0.367166 0)
(-0.0177972 -0.392649 0)
(-0.0182959 -0.417418 0)
(-0.0187399 -0.441251 0)
(-0.0191359 -0.463967 0)
(-0.0194889 -0.48542 0)
(-0.0198037 -0.505491 0)
(-0.0200848 -0.524093 0)
(-0.0203365 -0.541164 0)
(-0.0205627 -0.556667 0)
(-0.0207672 -0.570595 0)
(-0.020953 -0.582961 0)
(-0.0211228 -0.593807 0)
(-0.0212791 -0.603193 0)
(-0.0214236 -0.6112 0)
(-0.0215578 -0.617927 0)
(-0.0216831 -0.623488 0)
(-0.0218012 -0.628014 0)
(-0.0219127 -0.631651 0)
(-0.0182781 -0.339776 0)
(-0.0186832 -0.365784 0)
(-0.0191019 -0.391391 0)
(-0.0195079 -0.416291 0)
(-0.0198798 -0.440251 0)
(-0.0202166 -0.463085 0)
(-0.0205201 -0.484644 0)
(-0.0207929 -0.50481 0)
(-0.0210381 -0.523495 0)
(-0.0212593 -0.540637 0)
(-0.0214598 -0.556202 0)
(-0.0216428 -0.570181 0)
(-0.0218109 -0.582591 0)
(-0.0219666 -0.593473 0)
(-0.0221117 -0.60289 0)
(-0.0222477 -0.610923 0)
(-0.0223758 -0.617673 0)
(-0.0224969 -0.623253 0)
(-0.0226125 -0.627794 0)
(-0.0227232 -0.631443 0)
(-0.0206028 -0.33904 0)
(-0.0209098 -0.36502 0)
(-0.021226 -0.390638 0)
(-0.0215345 -0.415574 0)
(-0.021819 -0.439582 0)
(-0.0220783 -0.462467 0)
(-0.0223137 -0.484077 0)
(-0.0225269 -0.50429 0)
(-0.0227205 -0.523016 0)
(-0.0228971 -0.540194 0)
(-0.0230595 -0.55579 0)
(-0.02321 -0.569796 0)
(-0.0233511 -0.582229 0)
(-0.0234843 -0.59313 0)
(-0.0236113 -0.602563 0)
(-0.0237332 -0.610611 0)
(-0.0238507 -0.617373 0)
(-0.0239642 -0.622966 0)
(-0.0240751 -0.627519 0)
(-0.0241835 -0.631178 0)
(-0.0237864 -0.33852 0)
(-0.0239458 -0.364503 0)
(-0.0241196 -0.390137 0)
(-0.0242976 -0.415103 0)
(-0.0244651 -0.439146 0)
(-0.0246202 -0.462069 0)
(-0.0247634 -0.483714 0)
(-0.0248951 -0.503959 0)
(-0.025017 -0.522714 0)
(-0.0251309 -0.539915 0)
(-0.0252386 -0.55553 0)
(-0.0253419 -0.56955 0)
(-0.0254423 -0.581994 0)
(-0.0255411 -0.592904 0)
(-0.0256392 -0.602343 0)
(-0.0257371 -0.610395 0)
(-0.0258352 -0.617161 0)
(-0.0259334 -0.622757 0)
(-0.0260324 -0.627314 0)
(-0.0261319 -0.630976 0)
(-0.0274564 -0.338306 0)
(-0.0274945 -0.364275 0)
(-0.0275378 -0.389905 0)
(-0.0275879 -0.414877 0)
(-0.0276351 -0.438932 0)
(-0.0276789 -0.461868 0)
(-0.0277201 -0.483527 0)
(-0.0277592 -0.503783 0)
(-0.0277977 -0.522547 0)
(-0.0278368 -0.539754 0)
(-0.027878 -0.555371 0)
(-0.0279224 -0.569392 0)
(-0.0279712 -0.581834 0)
(-0.0280248 -0.59274 0)
(-0.0280838 -0.602175 0)
(-0.0281481 -0.610222 0)
(-0.0282175 -0.616984 0)
(-0.0282913 -0.622576 0)
(-0.0283699 -0.627129 0)
(-0.0284521 -0.630789 0)
(-0.0314594 -0.338328 0)
(-0.0313901 -0.364292 0)
(-0.0313144 -0.389919 0)
(-0.0312453 -0.41489 0)
(-0.0311772 -0.438945 0)
(-0.0311115 -0.46188 0)
(-0.0310498 -0.483536 0)
(-0.0309934 -0.503787 0)
(-0.0309438 -0.522542 0)
(-0.0309022 -0.539739 0)
(-0.0308702 -0.555343 0)
(-0.0308485 -0.569349 0)
(-0.0308378 -0.581775 0)
(-0.0308382 -0.592665 0)
(-0.0308499 -0.602084 0)
(-0.0308722 -0.610116 0)
(-0.0309045 -0.616863 0)
(-0.0309458 -0.622442 0)
(-0.0309957 -0.626985 0)
(-0.0310527 -0.630636 0)
(-0.0356547 -0.338556 0)
(-0.0354997 -0.364527 0)
(-0.0353229 -0.390157 0)
(-0.0351477 -0.415126 0)
(-0.0349743 -0.439176 0)
(-0.0348059 -0.462101 0)
(-0.0346458 -0.483743 0)
(-0.0344957 -0.503977 0)
(-0.0343582 -0.522711 0)
(-0.0342344 -0.539884 0)
(-0.0341262 -0.555462 0)
(-0.0340341 -0.56944 0)
(-0.0339589 -0.581838 0)
(-0.0339003 -0.5927 0)
(-0.0338584 -0.602091 0)
(-0.0338321 -0.610098 0)
(-0.0338205 -0.616821 0)
(-0.0338222 -0.622379 0)
(-0.0338364 -0.626904 0)
(-0.0338614 -0.63054 0)
(-0.0399711 -0.338959 0)
(-0.0397416 -0.364949 0)
(-0.0394753 -0.39059 0)
(-0.0392068 -0.415561 0)
(-0.0389392 -0.439604 0)
(-0.0386771 -0.462515 0)
(-0.0384253 -0.484137 0)
(-0.0381864 -0.504344 0)
(-0.0379636 -0.523048 0)
(-0.0377587 -0.540187 0)
(-0.0375739 -0.555729 0)
(-0.0374099 -0.569668 0)
(-0.0372676 -0.582028 0)
(-0.0371466 -0.592851 0)
(-0.0370468 -0.602206 0)
(-0.0369672 -0.610177 0)
(-0.0369066 -0.616868 0)
(-0.0368631 -0.622397 0)
(-0.036836 -0.626896 0)
(-0.0368229 -0.63051 0)
(-0.044351 -0.339508 0)
(-0.044054 -0.365529 0)
(-0.0437103 -0.391192 0)
(-0.0433607 -0.416171 0)
(-0.0430094 -0.440209 0)
(-0.0426625 -0.463106 0)
(-0.0423262 -0.484704 0)
(-0.0420041 -0.504882 0)
(-0.0417002 -0.523549 0)
(-0.0414169 -0.540646 0)
(-0.0411568 -0.556143 0)
(-0.0409209 -0.570036 0)
(-0.0407105 -0.582348 0)
(-0.0405253 -0.593125 0)
(-0.0403651 -0.602434 0)
(-0.0402288 -0.610362 0)
(-0.0401154 -0.617013 0)
(-0.0400227 -0.622505 0)
(-0.0399497 -0.62697 0)
(-0.0398941 -0.630556 0)
(-0.0487555 -0.340185 0)
(-0.0484066 -0.366251 0)
(-0.0479946 -0.391944 0)
(-0.0475719 -0.416938 0)
(-0.0471445 -0.440976 0)
(-0.0467198 -0.463861 0)
(-0.0463052 -0.485435 0)
(-0.0459052 -0.505579 0)
(-0.0455243 -0.524205 0)
(-0.0451657 -0.541257 0)
(-0.0448325 -0.556703 0)
(-0.0445261 -0.570544 0)
(-0.0442478 -0.582802 0)
(-0.0439978 -0.593524 0)
(-0.0437759 -0.602781 0)
(-0.0435811 -0.610658 0)
(-0.0434124 -0.617262 0)
(-0.0432675 -0.62271 0)
(-0.0431454 -0.627137 0)
(-0.0430435 -0.630687 0)
(-0.0531645 -0.34097 0)
(-0.0527703 -0.367095 0)
(-0.0522979 -0.39283 0)
(-0.0518099 -0.417846 0)
(-0.0513137 -0.44189 0)
(-0.050818 -0.464764 0)
(-0.050331 -0.486315 0)
(-0.049858 -0.506426 0)
(-0.0494043 -0.52501 0)
(-0.0489737 -0.542013 0)
(-0.0485697 -0.557405 0)
(-0.0481942 -0.571188 0)
(-0.0478489 -0.583387 0)
(-0.047534 -0.59405 0)
(-0.0472499 -0.603248 0)
(-0.0469953 -0.61107 0)
(-0.0467694 -0.61762 0)
(-0.0465701 -0.623019 0)
(-0.0463964 -0.6274 0)
(-0.0462454 -0.63091 0)
(-0.0575803 -0.341858 0)
(-0.0571431 -0.368052 0)
(-0.0566133 -0.393837 0)
(-0.0560634 -0.418883 0)
(-0.0555024 -0.442937 0)
(-0.0549397 -0.465805 0)
(-0.0543843 -0.487336 0)
(-0.0538421 -0.507415 0)
(-0.053319 -0.525956 0)
(-0.0528191 -0.542908 0)
(-0.0523465 -0.558244 0)
(-0.0519035 -0.571967 0)
(-0.0514921 -0.584103 0)
(-0.0511128 -0.594703 0)
(-0.0507661 -0.603838 0)
(-0.0504511 -0.611599 0)
(-0.0501671 -0.618091 0)
(-0.0499118 -0.623435 0)
(-0.0496844 -0.627766 0)
(-0.0494821 -0.63123 0)
(-0.0619918 -0.342837 0)
(-0.0615045 -0.369111 0)
(-0.0609217 -0.394955 0)
(-0.060316 -0.420038 0)
(-0.0596956 -0.444108 0)
(-0.0590705 -0.466975 0)
(-0.0584508 -0.488489 0)
(-0.0578428 -0.508537 0)
(-0.057253 -0.527037 0)
(-0.0566861 -0.543938 0)
(-0.0561467 -0.559217 0)
(-0.0556374 -0.572877 0)
(-0.0551607 -0.584948 0)
(-0.0547172 -0.595481 0)
(-0.0543078 -0.60455 0)
(-0.0539317 -0.612246 0)
(-0.0535884 -0.618676 0)
(-0.0532758 -0.623961 0)
(-0.0529932 -0.628237 0)
(-0.0527377 -0.631651 0)
(-0.0663986 -0.3439 0)
(-0.0658633 -0.370264 0)
(-0.0652302 -0.396176 0)
(-0.0645699 -0.421303 0)
(-0.0638917 -0.445398 0)
(-0.0632062 -0.468268 0)
(-0.0625239 -0.489769 0)
(-0.061852 -0.509789 0)
(-0.0611972 -0.528249 0)
(-0.0605647 -0.5451 0)
(-0.0599596 -0.560321 0)
(-0.0593849 -0.573918 0)
(-0.0588432 -0.585921 0)
(-0.0583357 -0.596386 0)
(-0.0578634 -0.605386 0)
(-0.0574257 -0.613013 0)
(-0.0570222 -0.619378 0)
(-0.0566512 -0.6246 0)
(-0.0563118 -0.628816 0)
(-0.0560014 -0.632176 0)
(-0.0707902 -0.345049 0)
(-0.0702101 -0.371513 0)
(-0.0695303 -0.397502 0)
(-0.0688181 -0.422681 0)
(-0.0680841 -0.446803 0)
(-0.0673402 -0.469682 0)
(-0.0665971 -0.491173 0)
(-0.0658625 -0.511167 0)
(-0.0651438 -0.529589 0)
(-0.0644467 -0.54639 0)
(-0.0637765 -0.561554 0)
(-0.0631366 -0.575087 0)
(-0.0625301 -0.587022 0)
(-0.0619583 -0.597416 0)
(-0.0614225 -0.606345 0)
(-0.0609224 -0.613902 0)
(-0.0604578 -0.620198 0)
(-0.060027 -0.625354 0)
(-0.0596294 -0.629508 0)
(-0.0592624 -0.63281 0)
(-0.0751812 -0.346277 0)
(-0.0745496 -0.372851 0)
(-0.0738224 -0.398926 0)
(-0.0730595 -0.424164 0)
(-0.0722709 -0.448321 0)
(-0.0714694 -0.471213 0)
(-0.0706664 -0.492698 0)
(-0.06987 -0.51267 0)
(-0.069088 -0.531055 0)
(-0.0683266 -0.547809 0)
(-0.0675915 -0.562915 0)
(-0.0668864 -0.576384 0)
(-0.0662148 -0.588251 0)
(-0.0655782 -0.598574 0)
(-0.0649782 -0.60743 0)
(-0.0644148 -0.614914 0)
(-0.063888 -0.621139 0)
(-0.0633961 -0.626227 0)
(-0.0629388 -0.630315 0)
(-0.0625136 -0.633555 0)
(-0.0795747 -0.347589 0)
(-0.0788844 -0.374282 0)
(-0.0781083 -0.400449 0)
(-0.0772941 -0.425751 0)
(-0.076451 -0.449949 0)
(-0.0755922 -0.47286 0)
(-0.0747296 -0.494343 0)
(-0.0738715 -0.514296 0)
(-0.0730261 -0.532647 0)
(-0.0722002 -0.549355 0)
(-0.0713997 -0.564406 0)
(-0.0706289 -0.577811 0)
(-0.0698914 -0.589609 0)
(-0.0691892 -0.59986 0)
(-0.0685239 -0.608641 0)
(-0.0678959 -0.616052 0)
(-0.0673053 -0.622203 0)
(-0.0667508 -0.62722 0)
(-0.066232 -0.63124 0)
(-0.0657466 -0.634415 0)
(-0.0839624 -0.348979 0)
(-0.0832113 -0.375798 0)
(-0.0823863 -0.402065 0)
(-0.0815218 -0.42744 0)
(-0.0806247 -0.451685 0)
(-0.0797085 -0.47462 0)
(-0.0787858 -0.496107 0)
(-0.0778656 -0.516045 0)
(-0.0769561 -0.534366 0)
(-0.0760649 -0.55103 0)
(-0.0751982 -0.566026 0)
(-0.0743606 -0.579369 0)
(-0.073556 -0.591099 0)
(-0.0727868 -0.601276 0)
(-0.0720548 -0.609983 0)
(-0.0713606 -0.617318 0)
(-0.0707047 -0.623394 0)
(-0.0700858 -0.628338 0)
(-0.0695036 -0.632287 0)
(-0.0689562 -0.635394 0)
(-0.0883497 -0.350453 0)
(-0.0875469 -0.377406 0)
(-0.0866713 -0.403781 0)
(-0.0857527 -0.429236 0)
(-0.084798 -0.453534 0)
(-0.0838219 -0.476499 0)
(-0.0828369 -0.497994 0)
(-0.0818525 -0.517921 0)
(-0.0808773 -0.536214 0)
(-0.0799189 -0.552837 0)
(-0.0789843 -0.56778 0)
(-0.0780782 -0.581061 0)
(-0.0772048 -0.592722 0)
(-0.0763667 -0.602827 0)
(-0.0755661 -0.611458 0)
(-0.0748038 -0.618716 0)
(-0.0740804 -0.624716 0)
(-0.0733949 -0.629584 0)
(-0.0727473 -0.63346 0)
(-0.0721355 -0.636497 0)
(-0.0927282 -0.35202 0)
(-0.091881 -0.379118 0)
(-0.0909547 -0.405607 0)
(-0.089981 -0.431146 0)
(-0.0889675 -0.455503 0)
(-0.0879297 -0.478501 0)
(-0.0868806 -0.500008 0)
(-0.0858302 -0.519928 0)
(-0.0847873 -0.538196 0)
(-0.08376 -0.554779 0)
(-0.0827554 -0.56967 0)
(-0.0817788 -0.582891 0)
(-0.0808345 -0.594484 0)
(-0.0799255 -0.604516 0)
(-0.0790542 -0.61307 0)
(-0.0782216 -0.620251 0)
(-0.0774285 -0.626172 0)
(-0.0766742 -0.630963 0)
(-0.0759586 -0.634764 0)
(-0.0752801 -0.637728 0)
(-0.0971206 -0.353681 0)
(-0.096219 -0.380933 0)
(-0.0952381 -0.407543 0)
(-0.0942065 -0.433173 0)
(-0.0931321 -0.457594 0)
(-0.0920306 -0.48063 0)
(-0.0909156 -0.502152 0)
(-0.0897971 -0.522068 0)
(-0.0886845 -0.540314 0)
(-0.0875861 -0.55686 0)
(-0.0865093 -0.571702 0)
(-0.0854597 -0.584863 0)
(-0.0844421 -0.596388 0)
(-0.0834596 -0.606347 0)
(-0.0825148 -0.614825 0)
(-0.0816093 -0.621927 0)
(-0.0807438 -0.627769 0)
(-0.079918 -0.632481 0)
(-0.0791319 -0.636203 0)
(-0.078384 -0.639092 0)
(-0.101517 -0.355432 0)
(-0.100552 -0.382847 0)
(-0.0995159 -0.409585 0)
(-0.0984267 -0.435315 0)
(-0.0972906 -0.459806 0)
(-0.096124 -0.482887 0)
(-0.0949412 -0.504431 0)
(-0.0937524 -0.524346 0)
(-0.0925676 -0.542574 0)
(-0.0913956 -0.559086 0)
(-0.0902438 -0.57388 0)
(-0.0891186 -0.586982 0)
(-0.0880247 -0.598441 0)
(-0.0869658 -0.608327 0)
(-0.0859448 -0.616728 0)
(-0.0849632 -0.62375 0)
(-0.0840224 -0.629511 0)
(-0.083122 -0.634143 0)
(-0.0822623 -0.637785 0)
(-0.0814422 -0.640595 0)
(-0.105921 -0.357276 0)
(-0.104899 -0.384864 0)
(-0.103804 -0.411739 0)
(-0.102653 -0.437577 0)
(-0.10145 -0.462147 0)
(-0.100215 -0.485279 0)
(-0.09896 -0.506849 0)
(-0.0976974 -0.526768 0)
(-0.0964368 -0.544982 0)
(-0.0951877 -0.561462 0)
(-0.0939577 -0.576211 0)
(-0.0927533 -0.589256 0)
(-0.0915798 -0.600649 0)
(-0.0904411 -0.610462 0)
(-0.0893402 -0.618786 0)
(-0.0882793 -0.625727 0)
(-0.0872596 -0.631406 0)
(-0.0862813 -0.635954 0)
(-0.0853448 -0.639515 0)
(-0.0844492 -0.642244 0)
(-0.110319 -0.359226 0)
(-0.109249 -0.386997 0)
(-0.108096 -0.41402 0)
(-0.106879 -0.439973 0)
(-0.105608 -0.464627 0)
(-0.1043 -0.487816 0)
(-0.10297 -0.509416 0)
(-0.10163 -0.529344 0)
(-0.100291 -0.547545 0)
(-0.0989605 -0.563996 0)
(-0.0976485 -0.578702 0)
(-0.0963614 -0.591692 0)
(-0.0951044 -0.603019 0)
(-0.0938821 -0.61276 0)
(-0.0926977 -0.621006 0)
(-0.0915536 -0.627866 0)
(-0.0904513 -0.633461 0)
(-0.0893913 -0.637924 0)
(-0.0883743 -0.6414 0)
(-0.0873998 -0.644044 0)
(-0.114735 -0.361282 0)
(-0.113609 -0.38925 0)
(-0.112392 -0.41643 0)
(-0.111107 -0.442506 0)
(-0.109764 -0.467252 0)
(-0.10838 -0.490503 0)
(-0.106971 -0.512139 0)
(-0.10555 -0.532078 0)
(-0.104127 -0.550271 0)
(-0.102712 -0.566696 0)
(-0.101314 -0.58136 0)
(-0.0999404 -0.594296 0)
(-0.098596 -0.60556 0)
(-0.0972859 -0.615228 0)
(-0.0960138 -0.623396 0)
(-0.0947823 -0.630173 0)
(-0.0935934 -0.635683 0)
(-0.0924477 -0.64006 0)
(-0.0913462 -0.643448 0)
(-0.0902889 -0.646004 0)
(-0.119164 -0.363445 0)
(-0.117971 -0.391622 0)
(-0.116688 -0.418968 0)
(-0.115334 -0.445178 0)
(-0.113916 -0.470024 0)
(-0.112453 -0.493345 0)
(-0.110962 -0.515024 0)
(-0.109456 -0.534981 0)
(-0.107946 -0.553169 0)
(-0.106442 -0.569571 0)
(-0.104954 -0.584196 0)
(-0.103488 -0.597079 0)
(-0.102052 -0.60828 0)
(-0.100649 -0.617876 0)
(-0.0992849 -0.625965 0)
(-0.0979616 -0.632658 0)
(-0.0966815 -0.638081 0)
(-0.0954457 -0.642369 0)
(-0.0942552 -0.645667 0)
(-0.0931106 -0.648133 0)
(-0.1236 -0.365718 0)
(-0.122349 -0.394117 0)
(-0.120997 -0.421644 0)
(-0.119567 -0.447997 0)
(-0.118069 -0.472954 0)
(-0.116522 -0.496352 0)
(-0.114945 -0.51808 0)
(-0.113348 -0.538059 0)
(-0.111746 -0.556247 0)
(-0.110148 -0.572629 0)
(-0.108564 -0.587217 0)
(-0.107002 -0.60005 0)
(-0.105468 -0.611188 0)
(-0.103969 -0.620713 0)
(-0.102507 -0.628722 0)
(-0.101087 -0.635331 0)
(-0.0997104 -0.640666 0)
(-0.0983794 -0.644862 0)
(-0.0970953 -0.648067 0)
(-0.0958587 -0.650438 0)
(-0.128043 -0.368115 0)
(-0.126735 -0.39675 0)
(-0.125311 -0.424469 0)
(-0.123803 -0.450977 0)
(-0.122221 -0.476051 0)
(-0.120587 -0.499535 0)
(-0.118917 -0.521318 0)
(-0.117226 -0.541325 0)
(-0.115526 -0.559517 0)
(-0.113828 -0.575882 0)
(-0.112143 -0.590436 0)
(-0.110479 -0.60322 0)
(-0.108843 -0.614297 0)
(-0.10724 -0.623749 0)
(-0.105676 -0.63168 0)
(-0.104153 -0.638203 0)
(-0.102675 -0.643446 0)
(-0.101243 -0.647548 0)
(-0.0998602 -0.650657 0)
(-0.0985265 -0.65293 0)
(-0.132505 -0.370634 0)
(-0.131132 -0.399522 0)
(-0.129633 -0.427448 0)
(-0.128043 -0.454123 0)
(-0.126373 -0.479326 0)
(-0.124645 -0.502903 0)
(-0.122878 -0.524748 0)
(-0.121087 -0.544789 0)
(-0.119284 -0.56299 0)
(-0.117481 -0.579342 0)
(-0.115689 -0.593864 0)
(-0.113917 -0.606601 0)
(-0.112172 -0.617617 0)
(-0.110461 -0.626998 0)
(-0.108787 -0.634848 0)
(-0.107156 -0.641284 0)
(-0.10557 -0.646435 0)
(-0.104032 -0.650441 0)
(-0.102544 -0.65345 0)
(-0.101108 -0.655621 0)
(-0.136989 -0.373285 0)
(-0.135543 -0.402442 0)
(-0.133964 -0.43059 0)
(-0.132286 -0.457444 0)
(-0.130523 -0.482786 0)
(-0.128697 -0.506466 0)
(-0.126828 -0.52838 0)
(-0.124931 -0.548462 0)
(-0.123019 -0.566676 0)
(-0.121105 -0.58302 0)
(-0.1192 -0.597513 0)
(-0.117313 -0.610204 0)
(-0.115453 -0.621161 0)
(-0.113626 -0.630471 0)
(-0.111837 -0.638241 0)
(-0.110091 -0.644588 0)
(-0.108391 -0.649645 0)
(-0.10674 -0.65355 0)
(-0.105141 -0.656456 0)
(-0.103596 -0.65852 0)
(-0.141495 -0.376077 0)
(-0.13997 -0.40552 0)
(-0.138305 -0.433905 0)
(-0.136535 -0.460951 0)
(-0.134673 -0.486444 0)
(-0.132743 -0.510236 0)
(-0.130766 -0.532227 0)
(-0.128756 -0.552356 0)
(-0.126729 -0.57059 0)
(-0.124697 -0.586929 0)
(-0.122672 -0.601397 0)
(-0.120664 -0.614045 0)
(-0.118682 -0.624943 0)
(-0.116732 -0.634183 0)
(-0.114821 -0.641872 0)
(-0.112953 -0.648129 0)
(-0.111132 -0.653088 0)
(-0.109362 -0.656891 0)
(-0.107645 -0.65969 0)
(-0.105984 -0.661643 0)
(-0.146025 -0.379019 0)
(-0.144414 -0.408766 0)
(-0.142658 -0.437404 0)
(-0.14079 -0.464656 0)
(-0.138823 -0.49031 0)
(-0.136783 -0.514225 0)
(-0.134691 -0.536303 0)
(-0.132562 -0.556485 0)
(-0.130412 -0.574744 0)
(-0.128255 -0.591083 0)
(-0.126103 -0.60553 0)
(-0.123967 -0.618137 0)
(-0.121855 -0.628979 0)
(-0.119775 -0.638148 0)
(-0.117733 -0.645755 0)
(-0.115736 -0.651921 0)
(-0.113787 -0.65678 0)
(-0.11189 -0.660478 0)
(-0.110048 -0.663164 0)
(-0.108265 -0.665002 0)
(-0.150577 -0.382122 0)
(-0.148877 -0.412192 0)
(-0.147025 -0.441098 0)
(-0.145053 -0.46857 0)
(-0.142974 -0.494399 0)
(-0.140817 -0.518447 0)
(-0.138602 -0.54062 0)
(-0.136347 -0.560864 0)
(-0.134067 -0.579155 0)
(-0.131777 -0.595499 0)
(-0.12949 -0.609928 0)
(-0.127217 -0.622497 0)
(-0.124967 -0.633283 0)
(-0.122749 -0.642382 0)
(-0.120569 -0.649906 0)
(-0.118435 -0.655979 0)
(-0.116349 -0.660737 0)
(-0.114317 -0.664325 0)
(-0.112343 -0.666896 0)
(-0.110429 -0.668612 0)
(-0.155156 -0.385393 0)
(-0.15336 -0.415807 0)
(-0.151405 -0.445 0)
(-0.149323 -0.472708 0)
(-0.147127 -0.498725 0)
(-0.144844 -0.522917 0)
(-0.142499 -0.545195 0)
(-0.14011 -0.565508 0)
(-0.137691 -0.583837 0)
(-0.13526 -0.600192 0)
(-0.132829 -0.614606 0)
(-0.13041 -0.62714 0)
(-0.128014 -0.637872 0)
(-0.125649 -0.646902 0)
(-0.123323 -0.654342 0)
(-0.121042 -0.660321 0)
(-0.118812 -0.664974 0)
(-0.116637 -0.668448 0)
(-0.114521 -0.670899 0)
(-0.112469 -0.672488 0)
(-0.159762 -0.388844 0)
(-0.157867 -0.419623 0)
(-0.155804 -0.449123 0)
(-0.153603 -0.477083 0)
(-0.151281 -0.503302 0)
(-0.148866 -0.52765 0)
(-0.146382 -0.550044 0)
(-0.143849 -0.570436 0)
(-0.141283 -0.58881 0)
(-0.138701 -0.60518 0)
(-0.136117 -0.619585 0)
(-0.133543 -0.632086 0)
(-0.130991 -0.642766 0)
(-0.128469 -0.651726 0)
(-0.125986 -0.659082 0)
(-0.12355 -0.664963 0)
(-0.121166 -0.669509 0)
(-0.118838 -0.672866 0)
(-0.116573 -0.675191 0)
(-0.114374 -0.676648 0)
(-0.164401 -0.392485 0)
(-0.162399 -0.423654 0)
(-0.16022 -0.45348 0)
(-0.157894 -0.48171 0)
(-0.155438 -0.508147 0)
(-0.152881 -0.532665 0)
(-0.15025 -0.555185 0)
(-0.147564 -0.575665 0)
(-0.144841 -0.594092 0)
(-0.142098 -0.610484 0)
(-0.139351 -0.624883 0)
(-0.136612 -0.637354 0)
(-0.133893 -0.647983 0)
(-0.131205 -0.656874 0)
(-0.128555 -0.664145 0)
(-0.125953 -0.669927 0)
(-0.123405 -0.674361 0)
(-0.120915 -0.677597 0)
(-0.11849 -0.679791 0)
(-0.116134 -0.681108 0)
(-0.169073 -0.396328 0)
(-0.16696 -0.427913 0)
(-0.164657 -0.458087 0)
(-0.162198 -0.486606 0)
(-0.159599 -0.513277 0)
(-0.156891 -0.537979 0)
(-0.154103 -0.560638 0)
(-0.151254 -0.581214 0)
(-0.148363 -0.599702 0)
(-0.145449 -0.616122 0)
(-0.142527 -0.63052 0)
(-0.139612 -0.642965 0)
(-0.136716 -0.653545 0)
(-0.133849 -0.662367 0)
(-0.131022 -0.669552 0)
(-0.128243 -0.675233 0)
(-0.125519 -0.679553 0)
(-0.122856 -0.682661 0)
(-0.12026 -0.684719 0)
(-0.117738 -0.685889 0)
(-0.173785 -0.400387 0)
(-0.171551 -0.432414 0)
(-0.169117 -0.46296 0)
(-0.166515 -0.491788 0)
(-0.163764 -0.518711 0)
(-0.160896 -0.543612 0)
(-0.15794 -0.566422 0)
(-0.154916 -0.587107 0)
(-0.151847 -0.605664 0)
(-0.14875 -0.622119 0)
(-0.145642 -0.636521 0)
(-0.142539 -0.648943 0)
(-0.139453 -0.659476 0)
(-0.136397 -0.66823 0)
(-0.133379 -0.675327 0)
(-0.130411 -0.680904 0)
(-0.1275 -0.685105 0)
(-0.124652 -0.688082 0)
(-0.121875 -0.689995 0)
(-0.119174 -0.691011 0)
(-0.178536 -0.404675 0)
(-0.176176 -0.437173 0)
(-0.173602 -0.468116 0)
(-0.170849 -0.497276 0)
(-0.167934 -0.524469 0)
(-0.164895 -0.549586 0)
(-0.161759 -0.57256 0)
(-0.158551 -0.593364 0)
(-0.15529 -0.612001 0)
(-0.151998 -0.628498 0)
(-0.148691 -0.64291 0)
(-0.145387 -0.655312 0)
(-0.142099 -0.6658 0)
(-0.138839 -0.674486 0)
(-0.135619 -0.681495 0)
(-0.132449 -0.686965 0)
(-0.129337 -0.691043 0)
(-0.126292 -0.693883 0)
(-0.12332 -0.695645 0)
(-0.120429 -0.696498 0)
(-0.183335 -0.409208 0)
(-0.180839 -0.442207 0)
(-0.178115 -0.473574 0)
(-0.175199 -0.503089 0)
(-0.172112 -0.530573 0)
(-0.168889 -0.555922 0)
(-0.165562 -0.579076 0)
(-0.162155 -0.600012 0)
(-0.15869 -0.618738 0)
(-0.155189 -0.635285 0)
(-0.15167 -0.649713 0)
(-0.148151 -0.6621 0)
(-0.144646 -0.672545 0)
(-0.141169 -0.681163 0)
(-0.137731 -0.688082 0)
(-0.134346 -0.693443 0)
(-0.13102 -0.697393 0)
(-0.127764 -0.700089 0)
(-0.124584 -0.701692 0)
(-0.12149 -0.702373 0)
(-0.188181 -0.414001 0)
(-0.185542 -0.447535 0)
(-0.182659 -0.479355 0)
(-0.17957 -0.50925 0)
(-0.176297 -0.537047 0)
(-0.172879 -0.562646 0)
(-0.169347 -0.585996 0)
(-0.165728 -0.607077 0)
(-0.162045 -0.625902 0)
(-0.15832 -0.642509 0)
(-0.154574 -0.656959 0)
(-0.150824 -0.669335 0)
(-0.147087 -0.679739 0)
(-0.143377 -0.68829 0)
(-0.139707 -0.695118 0)
(-0.13609 -0.700366 0)
(-0.132536 -0.704184 0)
(-0.129054 -0.706729 0)
(-0.125652 -0.708165 0)
(-0.122341 -0.708663 0)
(-0.193083 -0.419072 0)
(-0.19029 -0.453176 0)
(-0.187237 -0.48548 0)
(-0.183963 -0.515782 0)
(-0.180492 -0.543914 0)
(-0.176865 -0.569786 0)
(-0.173114 -0.593348 0)
(-0.169268 -0.614589 0)
(-0.165351 -0.633525 0)
(-0.161387 -0.6502 0)
(-0.157397 -0.664679 0)
(-0.1534 -0.677049 0)
(-0.149415 -0.687416 0)
(-0.145456 -0.6959 0)
(-0.141537 -0.702635 0)
(-0.137672 -0.707767 0)
(-0.133873 -0.711446 0)
(-0.130148 -0.713833 0)
(-0.126509 -0.715093 0)
(-0.122965 -0.715398 0)
(-0.198043 -0.424439 0)
(-0.195088 -0.459151 0)
(-0.191853 -0.491973 0)
(-0.188382 -0.522711 0)
(-0.184699 -0.551204 0)
(-0.180847 -0.577368 0)
(-0.176862 -0.601162 0)
(-0.172773 -0.622578 0)
(-0.168605 -0.641639 0)
(-0.164384 -0.658392 0)
(-0.160133 -0.672908 0)
(-0.155873 -0.685277 0)
(-0.151621 -0.695609 0)
(-0.147394 -0.704027 0)
(-0.143208 -0.710668 0)
(-0.139077 -0.715679 0)
(-0.135014 -0.719214 0)
(-0.13103 -0.721435 0)
(-0.127136 -0.722509 0)
(-0.123343 -0.722608 0)
(-0.203069 -0.430123 0)
(-0.199939 -0.465484 0)
(-0.196509 -0.498858 0)
(-0.192827 -0.530064 0)
(-0.188918 -0.558945 0)
(-0.184826 -0.585426 0)
(-0.180591 -0.60947 0)
(-0.176241 -0.631079 0)
(-0.171804 -0.650278 0)
(-0.167309 -0.667121 0)
(-0.162778 -0.681682 0)
(-0.158233 -0.694056 0)
(-0.153695 -0.704356 0)
(-0.149181 -0.712708 0)
(-0.144709 -0.719253 0)
(-0.140293 -0.72414 0)
(-0.135947 -0.727525 0)
(-0.131685 -0.729571 0)
(-0.127517 -0.730447 0)
(-0.123456 -0.730328 0)
(-0.208165 -0.436145 0)
(-0.204849 -0.472198 0)
(-0.201211 -0.506164 0)
(-0.197303 -0.53787 0)
(-0.193151 -0.567169 0)
(-0.188803 -0.593991 0)
(-0.184298 -0.618309 0)
(-0.179669 -0.640128 0)
(-0.174945 -0.659481 0)
(-0.170154 -0.676425 0)
(-0.165322 -0.691041 0)
(-0.160473 -0.703426 0)
(-0.155628 -0.713697 0)
(-0.150805 -0.721985 0)
(-0.146024 -0.728432 0)
(-0.141302 -0.73319 0)
(-0.136653 -0.736417 0)
(-0.132091 -0.738279 0)
(-0.127629 -0.738946 0)
(-0.123281 -0.738594 0)
(-0.21334 -0.442528 0)
(-0.209822 -0.47932 0)
(-0.205962 -0.513917 0)
(-0.201812 -0.546161 0)
(-0.1974 -0.575909 0)
(-0.192778 -0.603101 0)
(-0.187985 -0.627715 0)
(-0.183057 -0.649765 0)
(-0.178023 -0.669288 0)
(-0.172916 -0.686348 0)
(-0.167761 -0.701028 0)
(-0.162584 -0.713432 0)
(-0.157408 -0.723678 0)
(-0.152254 -0.731903 0)
(-0.147141 -0.73825 0)
(-0.142089 -0.742874 0)
(-0.137114 -0.745936 0)
(-0.13223 -0.747603 0)
(-0.127452 -0.748048 0)
(-0.122795 -0.747448 0)
(-0.218597 -0.449297 0)
(-0.214865 -0.486878 0)
(-0.210767 -0.522152 0)
(-0.206358 -0.554971 0)
(-0.201669 -0.585203 0)
(-0.196752 -0.612794 0)
(-0.19165 -0.637731 0)
(-0.1864 -0.660033 0)
(-0.181035 -0.679745 0)
(-0.175586 -0.696935 0)
(-0.170084 -0.71169 0)
(-0.164555 -0.72412 0)
(-0.159023 -0.734347 0)
(-0.153512 -0.742509 0)
(-0.148042 -0.748754 0)
(-0.142635 -0.753239 0)
(-0.137308 -0.756128 0)
(-0.132078 -0.75759 0)
(-0.126959 -0.757798 0)
(-0.121971 -0.756932 0)
(-0.223947 -0.456478 0)
(-0.219983 -0.494902 0)
(-0.215631 -0.5309 0)
(-0.210946 -0.564337 0)
(-0.205959 -0.59509 0)
(-0.200726 -0.623112 0)
(-0.195293 -0.648401 0)
(-0.189698 -0.670979 0)
(-0.183975 -0.6909 0)
(-0.178161 -0.708236 0)
(-0.172284 -0.72308 0)
(-0.166376 -0.735544 0)
(-0.160461 -0.745757 0)
(-0.154564 -0.753858 0)
(-0.14871 -0.759999 0)
(-0.14292 -0.764339 0)
(-0.137214 -0.767046 0)
(-0.13161 -0.768289 0)
(-0.126125 -0.768246 0)
(-0.120778 -0.767095 0)
(-0.229396 -0.4641 0)
(-0.225186 -0.503425 0)
(-0.220562 -0.540197 0)
(-0.21558 -0.574299 0)
(-0.210274 -0.605612 0)
(-0.204703 -0.634102 0)
(-0.198913 -0.659772 0)
(-0.192947 -0.682654 0)
(-0.186841 -0.702806 0)
(-0.180631 -0.720306 0)
(-0.174352 -0.735252 0)
(-0.168034 -0.747762 0)
(-0.161705 -0.757965 0)
(-0.155393 -0.766007 0)
(-0.149123 -0.772042 0)
(-0.14292 -0.776232 0)
(-0.136804 -0.778747 0)
(-0.130797 -0.779758 0)
(-0.124917 -0.779446 0)
(-0.119184 -0.77799 0)
(-0.234954 -0.472192 0)
(-0.230479 -0.51248 0)
(-0.225564 -0.550083 0)
(-0.220266 -0.584897 0)
(-0.214618 -0.616816 0)
(-0.208683 -0.645813 0)
(-0.202511 -0.671899 0)
(-0.196145 -0.695113 0)
(-0.189626 -0.715521 0)
(-0.182991 -0.733205 0)
(-0.176277 -0.748269 0)
(-0.169517 -0.760835 0)
(-0.162741 -0.771036 0)
(-0.155981 -0.779021 0)
(-0.149261 -0.784948 0)
(-0.142611 -0.788982 0)
(-0.136053 -0.791293 0)
(-0.12961 -0.792058 0)
(-0.123302 -0.791458 0)
(-0.117153 -0.789675 0)
(-0.24063 -0.480787 0)
(-0.235873 -0.522104 0)
(-0.230648 -0.560597 0)
(-0.225009 -0.596179 0)
(-0.218995 -0.628752 0)
(-0.212669 -0.658298 0)
(-0.206086 -0.684837 0)
(-0.19929 -0.708417 0)
(-0.192325 -0.729107 0)
(-0.185231 -0.746998 0)
(-0.178047 -0.762198 0)
(-0.170809 -0.774833 0)
(-0.163551 -0.78504 0)
(-0.156304 -0.792971 0)
(-0.149098 -0.798788 0)
(-0.141963 -0.802658 0)
(-0.134926 -0.804755 0)
(-0.128011 -0.805257 0)
(-0.121241 -0.804348 0)
(-0.114641 -0.802212 0)
(-0.246436 -0.489918 0)
(-0.241376 -0.532337 0)
(-0.235818 -0.571786 0)
(-0.229816 -0.608194 0)
(-0.223409 -0.641472 0)
(-0.216664 -0.671614 0)
(-0.209638 -0.698649 0)
(-0.202379 -0.72263 0)
(-0.194933 -0.743635 0)
(-0.187343 -0.761759 0)
(-0.179651 -0.777114 0)
(-0.171896 -0.789832 0)
(-0.164113 -0.800054 0)
(-0.156339 -0.807935 0)
(-0.148606 -0.81364 0)
(-0.140946 -0.817339 0)
(-0.133389 -0.819209 0)
(-0.125962 -0.819431 0)
(-0.11869 -0.818189 0)
(-0.111603 -0.815672 0)
(-0.252383 -0.499622 0)
(-0.247 -0.543221 0)
(-0.241086 -0.583695 0)
(-0.234695 -0.620993 0)
(-0.227866 -0.655035 0)
(-0.22067 -0.685826 0)
(-0.213168 -0.713402 0)
(-0.205409 -0.737826 0)
(-0.197443 -0.75918 0)
(-0.189316 -0.777565 0)
(-0.181073 -0.7931 0)
(-0.172757 -0.805917 0)
(-0.164405 -0.816165 0)
(-0.156059 -0.824 0)
(-0.147752 -0.829591 0)
(-0.139521 -0.833111 0)
(-0.131399 -0.83474 0)
(-0.123416 -0.834661 0)
(-0.1156 -0.833062 0)
(-0.107983 -0.830132 0)
(-0.258482 -0.509937 0)
(-0.252754 -0.554799 0)
(-0.24646 -0.596375 0)
(-0.239652 -0.634634 0)
(-0.232371 -0.669504 0)
(-0.224691 -0.701002 0)
(-0.216674 -0.729172 0)
(-0.208376 -0.754084 0)
(-0.199847 -0.775826 0)
(-0.191138 -0.794506 0)
(-0.182297 -0.810245 0)
(-0.17337 -0.823183 0)
(-0.1644 -0.833468 0)
(-0.15543 -0.841263 0)
(-0.146499 -0.846738 0)
(-0.137646 -0.85007 0)
(-0.128909 -0.851442 0)
(-0.120321 -0.85104 0)
(-0.111914 -0.849055 0)
(-0.103722 -0.845677 0)
(-0.264747 -0.520903 0)
(-0.258651 -0.567119 0)
(-0.251952 -0.60988 0)
(-0.244698 -0.649176 0)
(-0.23693 -0.684947 0)
(-0.228729 -0.717216 0)
(-0.220157 -0.746038 0)
(-0.211275 -0.77149 0)
(-0.202136 -0.793666 0)
(-0.192795 -0.812679 0)
(-0.183303 -0.828654 0)
(-0.173711 -0.841733 0)
(-0.164066 -0.852071 0)
(-0.154415 -0.859832 0)
(-0.144802 -0.865189 0)
(-0.135271 -0.868324 0)
(-0.125862 -0.869421 0)
(-0.116615 -0.868671 0)
(-0.107563 -0.866266 0)
(-0.0987463 -0.862401 0)
(-0.271191 -0.532563 0)
(-0.264704 -0.580229 0)
(-0.257571 -0.624267 0)
(-0.249839 -0.664686 0)
(-0.241551 -0.701436 0)
(-0.232787 -0.73455 0)
(-0.223616 -0.764092 0)
(-0.214101 -0.790143 0)
(-0.204298 -0.812805 0)
(-0.194268 -0.832194 0)
(-0.184066 -0.84844 0)
(-0.173748 -0.861688 0)
(-0.163365 -0.872095 0)
(-0.152969 -0.879829 0)
(-0.14261 -0.885067 0)
(-0.132336 -0.887993 0)
(-0.122194 -0.888795 0)
(-0.112226 -0.887667 0)
(-0.102471 -0.884806 0)
(-0.0929728 -0.880407 0)
(-0.27783 -0.54496 0)
(-0.270927 -0.594182 0)
(-0.263332 -0.639597 0)
(-0.255089 -0.681234 0)
(-0.24624 -0.719053 0)
(-0.236869 -0.753095 0)
(-0.227049 -0.783432 0)
(-0.216845 -0.810152 0)
(-0.20632 -0.833359 0)
(-0.195537 -0.853175 0)
(-0.184559 -0.869732 0)
(-0.173444 -0.883179 0)
(-0.162251 -0.893675 0)
(-0.151038 -0.901392 0)
(-0.139859 -0.906509 0)
(-0.12877 -0.909213 0)
(-0.117823 -0.909696 0)
(-0.107066 -0.908156 0)
(-0.0965429 -0.904795 0)
(-0.086302 -0.89981 0)
(-0.284679 -0.558142 0)
(-0.277334 -0.609033 0)
(-0.269246 -0.655934 0)
(-0.260455 -0.698897 0)
(-0.251002 -0.737885 0)
(-0.240975 -0.772951 0)
(-0.23045 -0.80417 0)
(-0.219497 -0.831636 0)
(-0.208182 -0.855459 0)
(-0.196576 -0.87576 0)
(-0.184744 -0.892677 0)
(-0.172754 -0.906358 0)
(-0.160669 -0.916967 0)
(-0.148556 -0.924677 0)
(-0.136474 -0.929669 0)
(-0.124489 -0.932135 0)
(-0.112657 -0.932272 0)
(-0.101034 -0.93028 0)
(-0.0896689 -0.926367 0)
(-0.0786166 -0.920736 0)
(-0.291756 -0.572152 0)
(-0.283943 -0.624837 0)
(-0.275329 -0.673349 0)
(-0.265951 -0.717758 0)
(-0.255846 -0.758031 0)
(-0.245107 -0.794228 0)
(-0.233814 -0.82643 0)
(-0.222042 -0.854734 0)
(-0.209861 -0.879251 0)
(-0.197349 -0.900107 0)
(-0.184578 -0.917439 0)
(-0.171622 -0.931397 0)
(-0.158552 -0.942146 0)
(-0.145443 -0.94986 0)
(-0.132365 -0.954724 0)
(-0.119388 -0.956934 0)
(-0.10658 -0.95669 0)
(-0.0940037 -0.954198 0)
(-0.0817149 -0.949673 0)
(-0.0697754 -0.943321 0)
(-0.299082 -0.587041 0)
(-0.290771 -0.641655 0)
(-0.281595 -0.691917 0)
(-0.271585 -0.737909 0)
(-0.260775 -0.779599 0)
(-0.249262 -0.817052 0)
(-0.23713 -0.850352 0)
(-0.224459 -0.8796 0)
(-0.211326 -0.904906 0)
(-0.197815 -0.926396 0)
(-0.184005 -0.944207 0)
(-0.16998 -0.958491 0)
(-0.155819 -0.969411 0)
(-0.141606 -0.977143 0)
(-0.127421 -0.981876 0)
(-0.113345 -0.983806 0)
(-0.0994564 -0.983139 0)
(-0.0858277 -0.98009 0)
(-0.072522 -0.974878 0)
(-0.0596101 -0.967718 0)
(-0.306674 -0.602855 0)
(-0.297837 -0.659552 0)
(-0.28806 -0.711721 0)
(-0.277367 -0.759453 0)
(-0.26579 -0.802712 0)
(-0.253431 -0.841566 0)
(-0.240378 -0.876098 0)
(-0.226717 -0.906409 0)
(-0.212533 -0.932611 0)
(-0.197916 -0.954828 0)
(-0.182955 -0.973195 0)
(-0.167742 -0.987862 0)