/*--------------------------------*- C++ -*----------------------------------*\
  =========                 |
  \\      /  F ield         | OpenFOAM: The Open Source CFD Toolbox
   \\    /   O peration     | Website:  https://openfoam.org
    \\  /    A nd           | Version:  6
     \\/     M anipulation  |
\*---------------------------------------------------------------------------*/
FoamFile
{
    version     2.0;
    format      ascii;
    class       volVectorField;
    location    "21";
    object      U;
}
// * * * * * * * * * * * * * * * * * * * * * * * * * * * * * * * * * * * * * //

dimensions      [0 1 -1 0 0 0 0];

internalField   nonuniform List<vector> 
10000
(
(-0.000188605 -3.14091 0)
(-0.00243708 -4.20362 0)
(-0.00489016 -4.72369 0)
(-0.00606947 -5.06994 0)
(-0.0060048 -5.29448 0)
(-0.00535046 -5.43298 0)
(-0.00456341 -5.51494 0)
(-0.00376803 -5.56138 0)
(-0.0029749 -5.58535 0)
(-0.00218653 -5.59402 0)
(-0.00138867 -5.59046 0)
(-0.000579544 -5.57467 0)
(0.000240835 -5.54364 0)
(0.00109148 -5.49068 0)
(0.00195344 -5.40364 0)
(0.00277067 -5.26286 0)
(0.00325203 -5.04047 0)
(0.00283893 -4.70092 0)
(0.0016702 -4.18785 0)
(0.000299938 -3.13227 0)
(9.37765e-05 -3.14282 0)
(-0.000447226 -4.20184 0)
(-0.00181756 -4.72256 0)
(-0.00281016 -5.07009 0)
(-0.00329053 -5.29572 0)
(-0.00326559 -5.43487 0)
(-0.00302698 -5.51714 0)
(-0.00265786 -5.56368 0)
(-0.00222555 -5.58767 0)
(-0.00175895 -5.59634 0)
(-0.00128252 -5.59283 0)
(-0.000803176 -5.57711 0)
(-0.000337597 -5.54619 0)
(7.94346e-05 -5.4933 0)
(0.000452742 -5.40627 0)
(0.000699341 -5.26522 0)
(0.00075963 -5.04209 0)
(0.000619048 -4.70144 0)
(0.000308317 -4.18729 0)
(0.000564897 -3.13442 0)
(-0.000656425 -3.14214 0)
(-0.00105444 -4.2001 0)
(-0.00123526 -4.72155 0)
(-0.00172274 -5.0696 0)
(-0.00203882 -5.29548 0)
(-0.00214503 -5.43479 0)
(-0.00210213 -5.51729 0)
(-0.00196332 -5.56401 0)
(-0.00174072 -5.5881 0)
(-0.00146814 -5.59682 0)
(-0.00117145 -5.59332 0)
(-0.000879795 -5.57754 0)
(-0.000605721 -5.54654 0)
(-0.000358968 -5.49362 0)
(-0.000113302 -5.40646 0)
(0.000104686 -5.26517 0)
(0.000307984 -5.04168 0)
(0.000446888 -4.7005 0)
(0.000706586 -4.18572 0)
(0.000627848 -3.1335 0)
(-0.000808147 -3.14034 0)
(-0.000828464 -4.19828 0)
(-0.000689428 -4.71999 0)
(-0.000722954 -5.06837 0)
(-0.000973492 -5.2949 0)
(-0.00117864 -5.43459 0)
(-0.00128201 -5.51724 0)
(-0.00130885 -5.56412 0)
(-0.0012551 -5.58838 0)
(-0.00114921 -5.59719 0)
(-0.00101588 -5.59372 0)
(-0.000877017 -5.57796 0)
(-0.000750454 -5.54694 0)
(-0.000630363 -5.49394 0)
(-0.000535677 -5.40675 0)
(-0.000367077 -5.26552 0)
(-0.000245351 -5.04197 0)
(5.44605e-05 -4.70026 0)
(0.000391632 -4.18523 0)
(0.000204607 -3.13269 0)
(-0.000351015 -3.138 0)
(-0.000693771 -4.19737 0)
(-0.000648247 -4.71881 0)
(-0.000487556 -5.06743 0)
(-0.000599406 -5.29413 0)
(-0.000723977 -5.43391 0)
(-0.000872598 -5.51674 0)
(-0.000947272 -5.56379 0)
(-0.000965697 -5.58821 0)
(-0.000939611 -5.59714 0)
(-0.000879844 -5.59373 0)
(-0.000810354 -5.57799 0)
(-0.000751483 -5.54695 0)
(-0.00067085 -5.49396 0)
(-0.000627457 -5.40667 0)
(-0.000509408 -5.26544 0)
(-0.000280603 -5.042 0)
(-1.64365e-05 -4.69986 0)
(0.000170447 -4.18492 0)
(-5.53201e-05 -3.13145 0)
(0.000376178 -3.13725 0)
(-0.000317822 -4.19784 0)
(-0.000439686 -4.71902 0)
(-0.000464052 -5.0674 0)
(-0.000547664 -5.29392 0)
(-0.000669735 -5.43382 0)
(-0.000804673 -5.51667 0)
(-0.000845129 -5.56369 0)
(-0.000863992 -5.58816 0)
(-0.00084337 -5.59717 0)
(-0.00080135 -5.59381 0)
(-0.000733772 -5.5781 0)
(-0.000664571 -5.54705 0)
(-0.000560955 -5.49401 0)
(-0.000437538 -5.40685 0)
(-0.00034019 -5.26564 0)
(-0.000169685 -5.04223 0)
(-0.000108003 -4.70032 0)
(-0.000203625 -4.18537 0)
(-0.000487483 -3.13086 0)
(0.000397713 -3.13785 0)
(-0.000105001 -4.19862 0)
(-0.000188969 -4.71967 0)
(-0.000377682 -5.06772 0)
(-0.000407177 -5.29411 0)
(-0.000553906 -5.43406 0)
(-0.00065922 -5.51679 0)
(-0.000700207 -5.56377 0)
(-0.000734082 -5.58826 0)
(-0.000721752 -5.5973 0)
(-0.000684035 -5.59396 0)
(-0.000619809 -5.57827 0)
(-0.00052849 -5.54728 0)
(-0.000415242 -5.49425 0)
(-0.000296949 -5.40703 0)
(-0.000218444 -5.26584 0)
(-0.00017283 -5.04243 0)
(-0.000290445 -4.70063 0)
(-0.000396677 -4.18607 0)
(-0.000468281 -3.13151 0)
(3.60013e-05 -3.13809 0)
(4.26142e-05 -4.19859 0)
(8.59026e-05 -4.71984 0)
(-9.23784e-05 -5.06745 0)
(-8.24784e-05 -5.29386 0)
(-0.000230171 -5.43399 0)
(-0.000324861 -5.51675 0)
(-0.000444571 -5.56376 0)
(-0.000531117 -5.58827 0)
(-0.000569386 -5.59736 0)
(-0.000570004 -5.5941 0)
(-0.000522945 -5.57848 0)
(-0.000441157 -5.54756 0)
(-0.000353409 -5.4946 0)
(-0.000262803 -5.40739 0)
(-0.00022991 -5.26614 0)
(-0.000218311 -5.04292 0)
(-0.000492951 -4.70134 0)
(-0.000575897 -4.18657 0)
(-0.000196393 -3.13287 0)
(-0.000157483 -3.13783 0)
(0.000152848 -4.19821 0)
(0.000254885 -4.71919 0)
(0.000205914 -5.06665 0)
(0.000139352 -5.29335 0)
(-3.28645e-06 -5.43354 0)
(-0.000127226 -5.51636 0)
(-0.000312712 -5.56349 0)
(-0.000449508 -5.58809 0)
(-0.000545336 -5.59729 0)
(-0.000587067 -5.59411 0)
(-0.000590625 -5.57857 0)
(-0.000564116 -5.54776 0)
(-0.00055116 -5.49485 0)
(-0.000528513 -5.40759 0)
(-0.000523733 -5.26632 0)
(-0.000642572 -5.04311 0)
(-0.000726314 -4.70166 0)
(-0.000612092 -4.18698 0)
(5.70557e-05 -3.13463 0)
(0.000109042 -3.13759 0)
(0.000223022 -4.19833 0)
(0.000260347 -4.71905 0)
(0.000173665 -5.06639 0)
(6.59057e-05 -5.29299 0)
(-3.98903e-05 -5.43307 0)
(-0.000174799 -5.51593 0)
(-0.000348419 -5.5631 0)
(-0.000496412 -5.5878 0)
(-0.000610536 -5.5971 0)
(-0.000688779 -5.59401 0)
(-0.000745791 -5.57846 0)
(-0.000781138 -5.5476 0)
(-0.000849672 -5.49467 0)
(-0.00089137 -5.40738 0)
(-0.000910639 -5.2661 0)
(-0.00102202 -5.04263 0)
(-0.000865287 -4.70086 0)
(-0.00046128 -4.18643 0)
(0.000359656 -3.13509 0)
(0.000326522 -3.13788 0)
(0.00029774 -4.19887 0)
(0.000378507 -4.71925 0)
(0.000222507 -5.06639 0)
(1.06739e-05 -5.29277 0)
(-8.74395e-05 -5.4327 0)
(-0.000240021 -5.51552 0)
(-0.000395915 -5.56275 0)
(-0.000539551 -5.58753 0)
(-0.000653696 -5.5969 0)
(-0.000734638 -5.59383 0)
(-0.000797391 -5.57828 0)
(-0.000845402 -5.54742 0)
(-0.000884911 -5.49448 0)
(-0.000917264 -5.40705 0)
(-0.000945673 -5.26567 0)
(-0.000884282 -5.04222 0)
(-0.000716466 -4.70061 0)
(-0.000461384 -4.18642 0)
(0.000113546 -3.13509 0)
(8.70026e-07 -3.13865 0)
(0.000407004 -4.19931 0)
(0.000400343 -4.71918 0)
(0.000245507 -5.06641 0)
(-2.25659e-05 -5.29272 0)
(-0.000172246 -5.43245 0)
(-0.000323742 -5.5152 0)
(-0.000468609 -5.56247 0)
(-0.000583139 -5.5873 0)
(-0.000677138 -5.59671 0)
(-0.000747404 -5.5937 0)
(-0.000780499 -5.57825 0)
(-0.000802303 -5.54744 0)
(-0.000781818 -5.4945 0)
(-0.000771033 -5.40714 0)
(-0.000761705 -5.26575 0)
(-0.000649011 -5.04247 0)
(-0.000551327 -4.70141 0)
(-0.000449041 -4.18756 0)
(-0.000357264 -3.13546 0)
(-0.000361399 -3.13945 0)
(0.000350272 -4.19962 0)
(0.00040453 -4.71916 0)
(0.000319447 -5.06622 0)
(9.42719e-05 -5.29242 0)
(-0.000152059 -5.43199 0)
(-0.00032827 -5.5148 0)
(-0.000485545 -5.56217 0)
(-0.000593074 -5.58707 0)
(-0.000681254 -5.59654 0)
(-0.00074792 -5.59359 0)
(-0.000783129 -5.57822 0)
(-0.000797075 -5.54751 0)
(-0.000768604 -5.4946 0)
(-0.000737576 -5.40722 0)
(-0.000657513 -5.26578 0)
(-0.00059136 -5.04284 0)
(-0.000440828 -4.70224 0)
(-0.00031791 -4.18832 0)
(-0.000287805 -3.13614 0)
(-0.000441317 -3.13967 0)
(0.000376447 -4.19957 0)
(0.000494758 -4.71903 0)
(0.000492656 -5.06557 0)
(0.000217357 -5.29161 0)
(-8.9715e-05 -5.43129 0)
(-0.000335476 -5.5143 0)
(-0.000500082 -5.56181 0)
(-0.000616136 -5.5868 0)
(-0.000705127 -5.59634 0)
(-0.000777081 -5.59344 0)
(-0.000821611 -5.57811 0)
(-0.000827886 -5.54749 0)
(-0.000802306 -5.49464 0)
(-0.000739198 -5.40728 0)
(-0.000627869 -5.26595 0)
(-0.00053264 -5.0432 0)
(-0.000378954 -4.70263 0)
(-0.000325693 -4.18874 0)
(-0.000141966 -3.13649 0)
(9.27797e-05 -3.14063 0)
(0.000644154 -4.2 0)
(0.000549366 -4.71921 0)
(0.000386889 -5.06542 0)
(6.79834e-05 -5.29106 0)
(-0.000228793 -5.43076 0)
(-0.000472212 -5.51392 0)
(-0.000607035 -5.56156 0)
(-0.000706444 -5.58664 0)
(-0.000771789 -5.59619 0)
(-0.000819937 -5.59332 0)
(-0.000859315 -5.57803 0)
(-0.000866925 -5.54743 0)
(-0.000838628 -5.49465 0)
(-0.000751099 -5.40731 0)
(-0.000724447 -5.26597 0)
(-0.000536027 -5.0434 0)
(-0.000452722 -4.70299 0)
(-0.00030612 -4.18888 0)
(-7.92539e-05 -3.1365 0)
(0.00035035 -3.1416 0)
(0.000473702 -4.20006 0)
(0.000621207 -4.71942 0)
(0.000508375 -5.06542 0)
(0.000170303 -5.29073 0)
(-0.000184386 -5.43037 0)
(-0.000458028 -5.51357 0)
(-0.000624024 -5.56132 0)
(-0.000722954 -5.58649 0)
(-0.000774521 -5.59612 0)
(-0.000809167 -5.59326 0)
(-0.000826131 -5.578 0)
(-0.000833276 -5.54746 0)
(-0.000790197 -5.49479 0)
(-0.000729817 -5.40763 0)
(-0.000717557 -5.26612 0)
(-0.000598986 -5.04307 0)
(-0.000457634 -4.70294 0)
(-0.000349206 -4.18894 0)
(3.08109e-05 -3.13694 0)
(0.000254455 -3.14262 0)
(0.000308004 -4.19999 0)
(0.000495997 -4.71931 0)
(0.000474717 -5.06506 0)
(0.000271929 -5.29015 0)
(-8.4558e-05 -5.42982 0)
(-0.000379713 -5.5132 0)
(-0.000563437 -5.56111 0)
(-0.000681392 -5.58638 0)
(-0.000749439 -5.59608 0)
(-0.000777037 -5.59331 0)
(-0.000780636 -5.57814 0)
(-0.000764951 -5.54764 0)
(-0.000682412 -5.49508 0)
(-0.000629608 -5.40818 0)
(-0.000484401 -5.26678 0)
(-0.000498689 -5.04373 0)
(-0.000342442 -4.7036 0)
(-0.000525016 -4.19 0)
(-0.000141158 -3.13819 0)
(0.000345261 -3.14326 0)
(0.000283178 -4.20022 0)
(0.000460534 -4.71959 0)
(0.000502178 -5.06482 0)
(0.000376524 -5.28962 0)
(4.82545e-05 -5.42943 0)
(-0.000236933 -5.51286 0)
(-0.000464611 -5.56082 0)
(-0.000630627 -5.58619 0)
(-0.000743753 -5.59596 0)
(-0.000824699 -5.59322 0)
(-0.000881188 -5.5781 0)
(-0.000914575 -5.54765 0)
(-0.000952898 -5.49516 0)
(-0.000953266 -5.40841 0)
(-0.000858354 -5.26731 0)
(-0.000890939 -5.04439 0)
(-0.000618846 -4.70403 0)
(-0.000269893 -4.19076 0)
(-0.000136153 -3.13965 0)
(0.000384842 -3.14336 0)
(0.00024369 -4.20044 0)
(0.0003395 -4.71937 0)
(0.000474211 -5.06432 0)
(0.000388444 -5.28904 0)
(0.00013798 -5.42875 0)
(-0.00011112 -5.5123 0)
(-0.000367752 -5.56041 0)
(-0.000574152 -5.58584 0)
(-0.000740081 -5.59566 0)
(-0.000874846 -5.59296 0)
(-0.00100704 -5.57782 0)
(-0.00112539 -5.54738 0)
(-0.00127324 -5.4949 0)
(-0.0013538 -5.40805 0)
(-0.00133328 -5.26713 0)
(-0.00116163 -5.04425 0)
(-0.000662476 -4.70351 0)
(1.73651e-05 -4.18991 0)
(0.000126255 -3.1392 0)
(0.000424617 -3.14269 0)
(0.00017397 -4.20074 0)
(0.000270731 -4.71904 0)
(0.000293595 -5.06361 0)
(0.000253275 -5.28845 0)
(8.13686e-05 -5.42817 0)
(-0.000111313 -5.51168 0)
(-0.000353701 -5.55984 0)
(-0.000568073 -5.58536 0)
(-0.00075329 -5.59525 0)
(-0.000907264 -5.59258 0)
(-0.00103579 -5.57746 0)
(-0.00116077 -5.547 0)
(-0.00127432 -5.49455 0)
(-0.0013117 -5.40781 0)
(-0.00123223 -5.26709 0)
(-0.000937505 -5.04434 0)
(-0.000450697 -4.7037 0)
(-8.85475e-05 -4.19024 0)
(-0.000312079 -3.13831 0)
(0.000394327 -3.14244 0)
(0.000216131 -4.20135 0)
(9.3098e-05 -4.71916 0)
(6.45202e-05 -5.06344 0)
(-4.31221e-05 -5.28811 0)
(-0.000127307 -5.42768 0)
(-0.000279012 -5.51118 0)
(-0.000469625 -5.55935 0)
(-0.000666398 -5.5849 0)
(-0.000847196 -5.59486 0)
(-0.000990794 -5.59225 0)
(-0.00110597 -5.5772 0)
(-0.00119621 -5.54683 0)
(-0.00123418 -5.49439 0)
(-0.00119775 -5.40783 0)
(-0.00101357 -5.26764 0)
(-0.000692347 -5.04543 0)
(-0.000396441 -4.70489 0)
(-0.000260743 -4.19155 0)
(-0.000827386 -3.13837 0)
(0.00015509 -3.14304 0)
(0.000339844 -4.20238 0)
(8.55417e-05 -4.71927 0)
(-3.64566e-06 -5.06325 0)
(-0.000215699 -5.28794 0)
(-0.000294899 -5.42751 0)
(-0.000466729 -5.51087 0)
(-0.000632219 -5.55894 0)
(-0.000807525 -5.58453 0)
(-0.000971875 -5.59455 0)
(-0.00111233 -5.59199 0)
(-0.00121903 -5.57698 0)
(-0.00128349 -5.54668 0)
(-0.00129506 -5.4944 0)
(-0.00123488 -5.40805 0)
(-0.00103167 -5.2681 0)
(-0.000731834 -5.04617 0)
(-0.000459205 -4.70569 0)
(-0.000229805 -4.1922 0)
(-0.000647412 -3.1389 0)
(-0.000211476 -3.14346 0)
(0.00033162 -4.20251 0)
(0.000251843 -4.71935 0)
(9.65265e-05 -5.06324 0)
(-0.000164998 -5.2877 0)
(-0.000353651 -5.42715 0)
(-0.000579021 -5.51056 0)
(-0.000768442 -5.55864 0)
(-0.000936069 -5.58425 0)
(-0.00108002 -5.59431 0)
(-0.00119591 -5.59182 0)
(-0.00127447 -5.57688 0)
(-0.0013021 -5.54662 0)
(-0.00127263 -5.49441 0)
(-0.00120168 -5.40822 0)
(-0.00102461 -5.26849 0)
(-0.000770862 -5.04669 0)
(-0.000502601 -4.70608 0)
(-0.000253835 -4.19233 0)
(-0.00027237 -3.13914 0)
(-0.000291404 -3.14432 0)
(0.000242643 -4.20236 0)
(0.000282813 -4.71938 0)
(0.00014726 -5.06326 0)
(-7.20178e-05 -5.28746 0)
(-0.000325827 -5.4267 0)
(-0.000590954 -5.51013 0)
(-0.000813252 -5.55833 0)
(-0.00100292 -5.58399 0)
(-0.00116063 -5.59408 0)
(-0.00128866 -5.59169 0)
(-0.00135898 -5.57685 0)
(-0.00136729 -5.54667 0)
(-0.00130984 -5.49462 0)
(-0.00119363 -5.40863 0)
(-0.000997841 -5.26907 0)
(-0.000717866 -5.0475 0)
(-0.0005544 -4.70703 0)
(-0.000335587 -4.19302 0)
(-0.00027047 -3.13978 0)
(-0.000241114 -3.14492 0)
(5.97861e-05 -4.20215 0)
(0.000411241 -4.71953 0)
(0.000451001 -5.06331 0)
(0.000265469 -5.28701 0)
(-7.59693e-05 -5.42602 0)
(-0.000428508 -5.50952 0)
(-0.000739554 -5.55782 0)
(-0.00101239 -5.58355 0)
(-0.00124348 -5.59371 0)
(-0.00142367 -5.59143 0)
(-0.0015493 -5.57676 0)
(-0.00160371 -5.54676 0)
(-0.00158573 -5.49483 0)
(-0.00149851 -5.40902 0)
(-0.00134905 -5.26972 0)
(-0.000992404 -5.04848 0)
(-0.000715836 -4.70803 0)
(-0.000308375 -4.19358 0)
(-0.000143992 -3.14069 0)
(8.95861e-05 -3.14536 0)
(7.94315e-05 -4.20183 0)
(0.000488989 -4.71931 0)
(0.000683721 -5.06286 0)
(0.000542224 -5.28633 0)
(0.000147637 -5.42533 0)
(-0.00028155 -5.50878 0)
(-0.000678152 -5.55708 0)
(-0.00103701 -5.58286 0)
(-0.00133541 -5.59317 0)
(-0.00157755 -5.59105 0)
(-0.00176493 -5.57652 0)
(-0.00187451 -5.54667 0)
(-0.00193729 -5.49498 0)
(-0.00188164 -5.40938 0)
(-0.00173455 -5.27013 0)
(-0.00136711 -5.04891 0)
(-0.000876888 -4.70876 0)
(-0.000284857 -4.19406 0)
(2.43652e-05 -3.14115 0)
(0.000527434 -3.14511 0)
(0.000137665 -4.20198 0)
(0.000492443 -4.71936 0)
(0.000660982 -5.0626 0)
(0.000610771 -5.28573 0)
(0.000234401 -5.42448 0)
(-0.000203649 -5.50782 0)
(-0.000645933 -5.55619 0)
(-0.00105211 -5.5821 0)
(-0.00140144 -5.5925 0)
(-0.00168897 -5.59048 0)
(-0.00193286 -5.57606 0)
(-0.00211708 -5.54637 0)
(-0.00222627 -5.49487 0)
(-0.00219798 -5.40947 0)
(-0.00198422 -5.27059 0)
(-0.00157691 -5.04949 0)
(-0.000986513 -4.70913 0)
(-0.000216207 -4.1944 0)
(-5.3084e-05 -3.141 0)
(0.00077339 -3.14524 0)
(0.000341325 -4.20271 0)
(0.000486656 -4.72008 0)
(0.000648866 -5.06271 0)
(0.000595627 -5.2852 0)
(0.000273128 -5.42364 0)
(-0.000125723 -5.50687 0)
(-0.000582533 -5.55529 0)
(-0.00101583 -5.58128 0)
(-0.00140715 -5.59176 0)
(-0.00175441 -5.58981 0)
(-0.0020479 -5.57551 0)
(-0.00229258 -5.54594 0)
(-0.00242946 -5.49459 0)
(-0.00241182 -5.40944 0)
(-0.00214947 -5.27092 0)
(-0.00166401 -5.05018 0)
(-0.000986794 -4.70993 0)
(-0.000286579 -4.19513 0)
(-0.000238898 -3.1403 0)
(0.000845104 -3.14571 0)
(0.000413948 -4.20383 0)
(0.000686488 -4.72057 0)
(0.000866263 -5.06275 0)
(0.000760341 -5.28496 0)
(0.000466186 -5.42303 0)
(3.96762e-05 -5.50605 0)
(-0.000442346 -5.5544 0)
(-0.000909922 -5.58039 0)
(-0.00135053 -5.59096 0)
(-0.00174359 -5.5891 0)
(-0.0020809 -5.57489 0)
(-0.00234048 -5.54552 0)
(-0.00247733 -5.49443 0)
(-0.00243153 -5.40966 0)
(-0.00211181 -5.27162 0)
(-0.00162062 -5.05116 0)
(-0.000988274 -4.711 0)
(-0.00051965 -4.19662 0)
(-0.000599527 -3.14016 0)
(0.000701715 -3.14614 0)
(0.000427465 -4.20456 0)
(0.000892941 -4.72113 0)
(0.000987802 -5.06295 0)
(0.000963639 -5.28467 0)
(0.000674533 -5.42237 0)
(0.000243111 -5.50516 0)
(-0.000266348 -5.55339 0)
(-0.000770974 -5.57944 0)
(-0.00125614 -5.59008 0)
(-0.00169063 -5.58831 0)
(-0.00205455 -5.57423 0)
(-0.0023267 -5.54507 0)
(-0.00247043 -5.49434 0)
(-0.00243525 -5.41001 0)
(-0.00213963 -5.27245 0)
(-0.00167197 -5.05241 0)
(-0.00116836 -4.71246 0)
(-0.000571269 -4.19822 0)
(-0.000603624 -3.1408 0)
(0.000354163 -3.14617 0)
(0.000392001 -4.2051 0)
(0.00105232 -4.72159 0)
(0.00127019 -5.06283 0)
(0.00125358 -5.28407 0)
(0.000953583 -5.42146 0)
(0.000497555 -5.50409 0)
(-6.19379e-05 -5.55225 0)
(-0.00063574 -5.57833 0)
(-0.00118334 -5.58908 0)
(-0.00166689 -5.58749 0)
(-0.0020683 -5.57361 0)
(-0.00236841 -5.54467 0)
(-0.0025313 -5.49425 0)
(-0.00253254 -5.41042 0)
(-0.00230303 -5.27338 0)
(-0.00185972 -5.05398 0)
(-0.00135509 -4.71442 0)
(-0.000559614 -4.19983 0)
(-0.000277901 -3.14199 0)
(0.00014887 -3.14607 0)
(0.000450324 -4.20559 0)
(0.00112914 -4.72187 0)
(0.00148015 -5.06279 0)
(0.0014181 -5.28348 0)
(0.00110144 -5.42041 0)
(0.000573728 -5.50285 0)
(-1.69429e-05 -5.55095 0)
(-0.000641389 -5.57709 0)
(-0.0012507 -5.58798 0)
(-0.00180836 -5.58654 0)
(-0.0022812 -5.57284 0)
(-0.0026584 -5.54414 0)
(-0.00290024 -5.49404 0)
(-0.00298413 -5.41066 0)
(-0.00283566 -5.27422 0)
(-0.00244063 -5.05549 0)
(-0.00169676 -4.71634 0)
(-0.000549157 -4.20139 0)
(5.80393e-05 -3.14341 0)
(0.000599003 -3.14735 0)
(0.000858808 -4.20775 0)
(0.00130349 -4.72366 0)
(0.00154437 -5.06369 0)
(0.00145951 -5.28329 0)
(0.00109417 -5.41974 0)
(0.000563142 -5.50194 0)
(-4.35776e-05 -5.54984 0)
(-0.000686798 -5.57588 0)
(-0.00134294 -5.58677 0)
(-0.0019698 -5.58541 0)
(-0.00254221 -5.57186 0)
(-0.00302996 -5.54332 0)
(-0.00337942 -5.49348 0)
(-0.00355132 -5.41057 0)
(-0.00346422 -5.27463 0)
(-0.0030093 -5.05629 0)
(-0.00199315 -4.71735 0)
(-0.000568563 -4.20229 0)
(0.000249888 -3.14365 0)
(0.000608226 -3.149 0)
(0.000799884 -4.20962 0)
(0.00179706 -4.72523 0)
(0.00216315 -5.0646 0)
(0.00207447 -5.28345 0)
(0.00163507 -5.41908 0)
(0.000994098 -5.50086 0)
(0.000266044 -5.54858 0)
(-0.000485068 -5.57451 0)
(-0.00123269 -5.58537 0)
(-0.00195054 -5.58407 0)
(-0.00260313 -5.57066 0)
(-0.0031619 -5.54232 0)
(-0.00358494 -5.49275 0)
(-0.00376425 -5.4103 0)
(-0.00368824 -5.27505 0)
(-0.00313947 -5.05739 0)
(-0.00208184 -4.71888 0)
(-0.000852154 -4.20391 0)
(-0.000122912 -3.14381 0)
(7.12726e-05 -3.1491 0)
(0.000705329 -4.20998 0)
(0.00196333 -4.72565 0)
(0.00268667 -5.06456 0)
(0.00272569 -5.28259 0)
(0.00230519 -5.41768 0)
(0.00154801 -5.49918 0)
(0.000686631 -5.54684 0)
(-0.000209919 -5.57278 0)
(-0.00107429 -5.5837 0)
(-0.00188541 -5.58254 0)
(-0.00261632 -5.56935 0)
(-0.00323325 -5.54132 0)
(-0.00369767 -5.49215 0)
(-0.0039111 -5.41027 0)
(-0.00383837 -5.2759 0)
(-0.00328676 -5.059 0)
(-0.00229254 -4.72121 0)
(-0.00107327 -4.2068 0)
(-0.000608592 -3.14488 0)
(0.00036197 -3.14927 0)
(0.00100442 -4.21165 0)
(0.00207599 -4.72641 0)
(0.00284477 -5.06446 0)
(0.0029563 -5.28173 0)
(0.0025558 -5.41618 0)
(0.00179586 -5.49732 0)
(0.000881948 -5.54485 0)
(-8.43306e-05 -5.57079 0)
(-0.00102623 -5.58184 0)
(-0.00192112 -5.58085 0)
(-0.00273159 -5.56787 0)
(-0.00341948 -5.54015 0)
(-0.00394922 -5.49138 0)
(-0.00423158 -5.41004 0)
(-0.00414837 -5.27649 0)
(-0.00361981 -5.06065 0)
(-0.00256252 -4.72371 0)
(-0.00112441 -4.20933 0)
(-0.00053597 -3.14587 0)
(0.000933436 -3.15009 0)
(0.00123849 -4.21451 0)
(0.00231878 -4.72865 0)
(0.00293557 -5.06546 0)
(0.00305925 -5.28139 0)
(0.00266719 -5.41496 0)
(0.00190675 -5.49559 0)
(0.000976784 -5.54293 0)
(-3.12572e-05 -5.56885 0)
(-0.00103416 -5.57992 0)
(-0.00199509 -5.57903 0)
(-0.002882 -5.56625 0)
(-0.00364915 -5.53886 0)
(-0.00424597 -5.49049 0)
(-0.00458568 -5.40965 0)
(-0.00451397 -5.27696 0)
(-0.00394123 -5.06224 0)
(-0.00279215 -4.72601 0)
(-0.00139454 -4.21185 0)
(-0.00044795 -3.14722 0)
(0.000918575 -3.15208 0)
(0.00132428 -4.21726 0)
(0.00261602 -4.73117 0)
(0.00329117 -5.06667 0)
(0.00341717 -5.28106 0)
(0.00296032 -5.41372 0)
(0.00214396 -5.49391 0)
(0.00113716 -5.541 0)
(6.48478e-05 -5.5668 0)
(-0.00102149 -5.57791 0)
(-0.00207371 -5.57715 0)
(-0.00304572 -5.56455 0)
(-0.00389212 -5.53742 0)
(-0.00456413 -5.48952 0)
(-0.00493428 -5.40947 0)
(-0.00488312 -5.2778 0)
(-0.00429373 -5.06407 0)
(-0.00312908 -4.72868 0)
(-0.001686 -4.21502 0)
(-0.000586345 -3.14913 0)
(0.000764335 -3.1544 0)
(0.00153896 -4.21996 0)
(0.00298966 -4.73366 0)
(0.00379803 -5.06799 0)
(0.00393338 -5.281 0)
(0.00340612 -5.41257 0)
(0.00251355 -5.4921 0)
(0.00141084 -5.53887 0)
(0.000234974 -5.56457 0)
(-0.000960666 -5.57569 0)
(-0.00212307 -5.57503 0)
(-0.00321058 -5.56267 0)
(-0.00416736 -5.53588 0)
(-0.00492342 -5.48844 0)
(-0.00537216 -5.40909 0)
(-0.00533261 -5.27852 0)
(-0.00476908 -5.06602 0)
(-0.00355453 -4.73157 0)
(-0.00186379 -4.2184 0)
(-0.000757303 -3.15177 0)
(0.000671726 -3.15633 0)
(0.00158732 -4.22271 0)
(0.00342706 -4.73611 0)
(0.00447308 -5.06917 0)
(0.0046622 -5.28073 0)
(0.00411516 -5.41111 0)
(0.0031207 -5.48995 0)
(0.00188761 -5.5364 0)
(0.00056296 -5.56197 0)
(-0.000785613 -5.5731 0)
(-0.0021079 -5.57254 0)
(-0.00334557 -5.56036 0)
(-0.00445551 -5.53389 0)
(-0.0053339 -5.48698 0)
(-0.00589823 -5.40837 0)
(-0.00596596 -5.27881 0)
(-0.00535051 -5.06775 0)
(-0.00396157 -4.73431 0)
(-0.0019304 -4.22127 0)
(-0.000842972 -3.15352 0)
(0.000659308 -3.15748 0)
(0.00172328 -4.22513 0)
(0.00374258 -4.73805 0)
(0.00507622 -5.06985 0)
(0.00532555 -5.27994 0)
(0.00478718 -5.40927 0)
(0.00371139 -5.48746 0)
(0.00237623 -5.53357 0)
(0.00091191 -5.55904 0)
(-0.000574338 -5.57016 0)
(-0.00202294 -5.5697 0)
(-0.00338625 -5.55771 0)
(-0.00460423 -5.53158 0)
(-0.00558279 -5.48522 0)
(-0.00623519 -5.40741 0)
(-0.00635645 -5.27879 0)
(-0.00570176 -5.06894 0)
(-0.00411671 -4.73686 0)
(-0.00204298 -4.22425 0)
(-0.000968757 -3.15455 0)
(0.00115146 -3.15885 0)
(0.0022069 -4.22913 0)
(0.00394037 -4.74083 0)
(0.00524762 -5.07102 0)
(0.0055616 -5.27952 0)
(0.00512777 -5.40756 0)
(0.00406514 -5.4849 0)
(0.00270314 -5.53061 0)
(0.00116751 -5.55592 0)
(-0.000400831 -5.56705 0)
(-0.00192794 -5.56675 0)
(-0.00335348 -5.55505 0)
(-0.0046048 -5.52934 0)
(-0.005595 -5.48361 0)
(-0.00623446 -5.4067 0)
(-0.00629057 -5.27935 0)
(-0.00564575 -5.07122 0)
(-0.00419013 -4.7407 0)
(-0.00243095 -4.22907 0)
(-0.00145733 -3.15676 0)
(0.00144087 -3.16136 0)
(0.00244377 -4.23349 0)
(0.00438083 -4.74423 0)
(0.00562623 -5.07278 0)
(0.00599113 -5.27933 0)
(0.00553395 -5.40601 0)
(0.00445651 -5.48243 0)
(0.00302303 -5.52758 0)
(0.00139262 -5.55272 0)
(-0.000290867 -5.56388 0)
(-0.0019365 -5.56374 0)
(-0.00347816 -5.55233 0)
(-0.00483429 -5.52709 0)
(-0.00590759 -5.48214 0)
(-0.00659182 -5.4063 0)
(-0.00667484 -5.28038 0)
(-0.00610542 -5.07418 0)
(-0.0047247 -4.74543 0)
(-0.00260475 -4.23456 0)
(-0.00153394 -3.16102 0)
(0.00138458 -3.16475 0)
(0.00274516 -4.23804 0)
(0.00479783 -4.74791 0)
(0.00608172 -5.07458 0)
(0.00648233 -5.27944 0)
(0.00598268 -5.40459 0)
(0.00488063 -5.47991 0)
(0.00335401 -5.52445 0)
(0.00160428 -5.54931 0)
(-0.000224974 -5.56042 0)
(-0.0020408 -5.56039 0)
(-0.00375909 -5.54926 0)
(-0.00529992 -5.52451 0)
(-0.00655723 -5.4803 0)
(-0.0073783 -5.40551 0)
(-0.00760491 -5.28102 0)
(-0.00703134 -5.0765 0)
(-0.00537885 -4.74909 0)
(-0.00268153 -4.23869 0)
(-0.000829828 -3.16502 0)
(0.00128673 -3.16866 0)
(0.00291016 -4.24285 0)
(0.00533904 -4.75189 0)
(0.00679243 -5.07671 0)
(0.00721108 -5.2796 0)
(0.00668017 -5.40314 0)
(0.00549668 -5.4773 0)
(0.00383902 -5.52108 0)
(0.00194715 -5.54555 0)
(-5.39953e-05 -5.55656 0)
(-0.00205327 -5.55662 0)
(-0.00396729 -5.54574 0)
(-0.00569596 -5.52144 0)
(-0.00711907 -5.47791 0)
(-0.00807337 -5.40415 0)
(-0.00840117 -5.28113 0)
(-0.00768351 -5.07826 0)
(-0.00574361 -4.75248 0)
(-0.00285232 -4.2426 0)
(-0.000565378 -3.16771 0)
(0.00107264 -3.17191 0)
(0.0029794 -4.2473 0)
(0.00584649 -4.7555 0)
(0.0076209 -5.07844 0)
(0.00812694 -5.27948 0)
(0.00754481 -5.40128 0)
(0.00623595 -5.47424 0)
(0.00443268 -5.51729 0)
(0.00238233 -5.54137 0)
(0.000221891 -5.55226 0)
(-0.00194304 -5.5524 0)
(-0.00401797 -5.54179 0)
(-0.00589729 -5.51799 0)
(-0.00745592 -5.47528 0)
(-0.00849485 -5.4027 0)
(-0.00882006 -5.28114 0)
(-0.00799922 -5.08018 0)
(-0.00595909 -4.75656 0)
(-0.00318015 -4.24784 0)
(-0.00114619 -3.17031 0)
(0.00123563 -3.17479 0)
(0.00315615 -4.25215 0)
(0.00610204 -4.75931 0)
(0.00809651 -5.08028 0)
(0.00876828 -5.27918 0)
(0.0082293 -5.39922 0)
(0.0068354 -5.47089 0)
(0.00494251 -5.51315 0)
(0.00276403 -5.53685 0)
(0.000472242 -5.54767 0)
(-0.00182676 -5.54792 0)
(-0.00402326 -5.53762 0)
(-0.00600796 -5.51438 0)
(-0.00765322 -5.47255 0)
(-0.00873731 -5.40128 0)
(-0.00905222 -5.28159 0)
(-0.00822316 -5.08277 0)
(-0.00623519 -4.76136 0)
(-0.00356484 -4.25396 0)
(-0.00171348 -3.17368 0)
(0.00156572 -3.17827 0)
(0.00342151 -4.25829 0)
(0.00647556 -4.7641 0)
(0.00848785 -5.08269 0)
(0.00923131 -5.27913 0)
(0.00869722 -5.39716 0)
(0.00728271 -5.46742 0)
(0.00531424 -5.50892 0)
(0.00304336 -5.53224 0)
(0.000643093 -5.54293 0)
(-0.00176866 -5.54327 0)
(-0.00406995 -5.53329 0)
(-0.00615429 -5.51064 0)
(-0.00787633 -5.46974 0)
(-0.00903051 -5.39986 0)
(-0.00937871 -5.28207 0)
(-0.00856599 -5.08562 0)
(-0.00658785 -4.76648 0)
(-0.00370574 -4.26018 0)
(-0.00175938 -3.17799 0)
(0.00172406 -3.1828 0)
(0.00393206 -4.26527 0)
(0.00702496 -4.76991 0)
(0.00899953 -5.08593 0)
(0.00968694 -5.27961 0)
(0.00913812 -5.39535 0)
(0.00769409 -5.4641 0)
(0.00566093 -5.50473 0)
(0.00330054 -5.52758 0)
(0.000794959 -5.53807 0)
(-0.00173355 -5.5385 0)
(-0.00416369 -5.52885 0)
(-0.00636195 -5.5068 0)
(-0.00817862 -5.46685 0)
(-0.00941443 -5.39841 0)
(-0.00981403 -5.28264 0)
(-0.00903462 -5.08874 0)
(-0.00702075 -4.77205 0)
(-0.00399027 -4.26676 0)
(-0.00161978 -3.18333 0)
(0.00143463 -3.18752 0)
(0.00401996 -4.27192 0)
(0.00750779 -4.77542 0)
(0.00971735 -5.08905 0)
(0.0104345 -5.28004 0)
(0.0098801 -5.39348 0)
(0.00834185 -5.4606 0)
(0.00618425 -5.50023 0)
(0.00367459 -5.52258 0)
(0.00100245 -5.53288 0)
(-0.00170026 -5.53338 0)
(-0.00431056 -5.52406 0)
(-0.00668242 -5.50266 0)
(-0.00865799 -5.46379 0)
(-0.0100286 -5.39693 0)
(-0.0104898 -5.28325 0)
(-0.00973748 -5.09192 0)
(-0.00756464 -4.77761 0)
(-0.00425489 -4.27344 0)
(-0.00143764 -3.18918 0)
(0.00107643 -3.19177 0)
(0.00411231 -4.27784 0)
(0.00786675 -4.78015 0)
(0.0103479 -5.09142 0)
(0.0111981 -5.27972 0)
(0.0106404 -5.39092 0)
(0.00902976 -5.45648 0)
(0.00674282 -5.49516 0)
(0.00406712 -5.51703 0)
(0.00120619 -5.52716 0)
(-0.00168818 -5.52772 0)
(-0.00449906 -5.5187 0)
(-0.00707729 -5.49793 0)
(-0.0092414 -5.46013 0)
(-0.010755 -5.39483 0)
(-0.0112727 -5.28321 0)
(-0.0104764 -5.09445 0)
(-0.0080115 -4.78264 0)
(-0.00430494 -4.27964 0)
(-0.00131032 -3.19402 0)
(0.00141736 -3.19672 0)
(0.00464093 -4.28517 0)
(0.00831849 -4.78584 0)
(0.0107804 -5.09422 0)
(0.0115989 -5.2796 0)
(0.0110139 -5.38844 0)
(0.0093921 -5.45234 0)
(0.00706857 -5.48999 0)
(0.00431467 -5.51128 0)
(0.00135021 -5.52115 0)
(-0.00167216 -5.52172 0)
(-0.00461411 -5.513 0)
(-0.00732786 -5.49283 0)
(-0.0096204 -5.45603 0)
(-0.011208 -5.39227 0)
(-0.0117578 -5.28297 0)
(-0.0108881 -5.09705 0)
(-0.00828293 -4.78773 0)
(-0.00457441 -4.2862 0)
(-0.00170928 -3.19837 0)
(0.00198007 -3.2035 0)
(0.00506212 -4.29384 0)
(0.00881235 -4.79288 0)
(0.011235 -5.09825 0)
(0.0119906 -5.28038 0)
(0.0113812 -5.38654 0)
(0.00974243 -5.44853 0)
(0.00739846 -5.48497 0)
(0.00459445 -5.50556 0)
(0.00156034 -5.51511 0)
(-0.00154797 -5.51566 0)
(-0.00457931 -5.50722 0)
(-0.00736458 -5.48771 0)
(-0.00971508 -5.45203 0)
(-0.011354 -5.38996 0)
(-0.0119523 -5.2831 0)
(-0.0110687 -5.10018 0)
(-0.00854414 -4.79378 0)
(-0.00492048 -4.29411 0)
(-0.00225767 -3.20362 0)
(0.00194705 -3.21019 0)
(0.00509824 -4.30162 0)
(0.00929698 -4.79936 0)
(0.0120063 -5.1018 0)
(0.0128611 -5.2808 0)
(0.0122197 -5.3844 0)
(0.0104841 -5.44453 0)
(0.00800243 -5.47974 0)
(0.00506274 -5.49961 0)
(0.0018839 -5.50885 0)
(-0.00136531 -5.50943 0)
(-0.00451531 -5.50134 0)
(-0.00739298 -5.48257 0)
(-0.00979193 -5.44812 0)
(-0.0114575 -5.38797 0)
(-0.0120724 -5.28372 0)
(-0.0112158 -5.104 0)
(-0.00885848 -4.8009 0)
(-0.00518058 -4.30298 0)
(-0.00247198 -3.21021 0)
(0.00185356 -3.21583 0)
(0.00525927 -4.30881 0)
(0.0096561 -4.80508 0)
(0.0126508 -5.10462 0)
(0.0136382 -5.28053 0)
(0.0129689 -5.38164 0)
(0.0111477 -5.44 0)
(0.0085444 -5.47402 0)
(0.00545323 -5.49322 0)
(0.00210521 -5.5022 0)
(-0.00130954 -5.50285 0)
(-0.00461883 -5.49516 0)
(-0.00764674 -5.47718 0)
(-0.0101904 -5.44403 0)
(-0.0119823 -5.38585 0)
(-0.0126866 -5.28425 0)
(-0.0119005 -5.10784 0)
(-0.00944856 -4.80795 0)
(-0.00523572 -4.31138 0)
(-0.00211395 -3.21752 0)
(0.00244643 -3.22223 0)
(0.00576891 -4.31783 0)
(0.00994977 -4.81206 0)
(0.0128856 -5.10823 0)
(0.0139323 -5.28073 0)
(0.0132786 -5.37907 0)
(0.0114503 -5.43544 0)
(0.00880693 -5.46817 0)
(0.00563335 -5.4866 0)
(0.00217044 -5.49523 0)
(-0.0013893 -5.4959 0)
(-0.00486361 -5.48858 0)
(-0.00806826 -5.47135 0)
(-0.0107985 -5.43945 0)
(-0.0127506 -5.38317 0)
(-0.0135348 -5.28424 0)
(-0.0127149 -5.11107 0)
(-0.00990487 -4.81416 0)
(-0.00530673 -4.3189 0)
(-0.00162207 -3.22437 0)
(0.00274645 -3.22986 0)
(0.00597895 -4.32759 0)
(0.0104136 -4.81984 0)
(0.0133394 -5.11243 0)
(0.0143706 -5.28127 0)
(0.013723 -5.37668 0)
(0.0118412 -5.43097 0)
(0.00912279 -5.46229 0)
(0.00585864 -5.47985 0)
(0.00227746 -5.48804 0)
(-0.00141675 -5.48866 0)
(-0.00504525 -5.48166 0)
(-0.00841236 -5.46515 0)
(-0.0112821 -5.4345 0)
(-0.0133545 -5.38015 0)
(-0.0142015 -5.28394 0)
(-0.0133296 -5.11425 0)
(-0.0103019 -4.82074 0)
(-0.0056402 -4.3273 0)
(-0.00188544 -3.23062 0)
(0.00254811 -3.23771 0)
(0.00620061 -4.33682 0)
(0.0109515 -4.82723 0)
(0.0139966 -5.11632 0)
(0.0149844 -5.28154 0)
(0.0142862 -5.3741 0)
(0.0123346 -5.42633 0)
(0.00952691 -5.45623 0)
(0.00615138 -5.47289 0)
(0.002447 -5.48064 0)
(-0.00137793 -5.4812 0)
(-0.00513154 -5.47453 0)
(-0.00861964 -5.4588 0)
(-0.0115994 -5.42948 0)
(-0.0137428 -5.3772 0)
(-0.0146306 -5.28394 0)
(-0.0137581 -5.11796 0)
(-0.0106862 -4.82811 0)
(-0.00599475 -4.3369 0)
(-0.00248168 -3.23734 0)
(0.00270127 -3.24592 0)
(0.00658165 -4.34689 0)
(0.0114267 -4.83515 0)
(0.0145435 -5.1205 0)
(0.0155478 -5.28199 0)
(0.0148147 -5.37155 0)
(0.0127987 -5.42157 0)
(0.00990202 -5.44997 0)
(0.0064184 -5.4657 0)
(0.00259391 -5.47299 0)
(-0.00135824 -5.4735 0)
(-0.00524261 -5.46719 0)
(-0.0088451 -5.45226 0)
(-0.0119029 -5.42432 0)
(-0.0140865 -5.3742 0)
(-0.0149484 -5.28409 0)
(-0.0140454 -5.12206 0)
(-0.0110001 -4.83608 0)
(-0.00630805 -4.34724 0)
(-0.00285081 -3.24496 0)
(0.00276215 -3.25362 0)