# vtk DataFile Version 2.0
track0
ASCII
DATASET POLYDATA
POINTS 12125 float
-0.0205 0.001 1e-05
-0.0204897 0.0011 1e-05
-0.0204792 0.00119999 1e-05
-0.0204687 0.00129996 1e-05
-0.020458 0.00139992 1e-05
-0.0204471 0.0015 1e-05
-0.0204362 0.0016 1e-05
-0.0204251 0.00169998 1e-05
-0.0204138 0.00179995 1e-05
-0.0204024 0.00189989 1e-05
-0.0203908 0.002 1e-05
-0.0203791 0.0021 1e-05
-0.0203671 0.00219998 1e-05
-0.020355 0.00229993 1e-05
-0.0203427 0.00239986 1e-05
-0.0203301 0.0025 1e-05
-0.0203212 0.00257035 1e-05
-0.0203121 0.00264069 1e-05
-0.020303 0.00271102 1e-05
-0.0202937 0.00278133 1e-05
-0.0202854 0.00284363 1e-05
-0.0202812 0.0028749 1e-05
-0.0202769 0.00290617 1e-05
-0.0202727 0.00293744 1e-05
-0.0202684 0.00296871 1e-05
-0.0202641 0.003 1e-05
-0.0202503 0.0031 1e-05
-0.0202362 0.00319997 1e-05
-0.020222 0.0032999 1e-05
-0.0202074 0.0033998 1e-05
-0.0201926 0.0035 1e-05
-0.0201776 0.0036 1e-05
-0.0201623 0.00369996 1e-05
-0.0201468 0.00379988 1e-05
-0.020131 0.00389977 1e-05
-0.0201149 0.004 1e-05
-0.0200986 0.0041 1e-05
-0.020082 0.00419996 1e-05
-0.0200651 0.00429987 1e-05
-0.020048 0.00439973 1e-05
-0.0200306 0.0045 1e-05
-0.0200289 0.00450933 1e-05
-0.0200273 0.00451866 1e-05
-0.0200256 0.00452799 1e-05
-0.020024 0.00453732 1e-05
-0.0200223 0.00454651 1e-05
-0.0200062 0.00463721 1e-05
-0.0199898 0.00472787 1e-05
-0.0199732 0.00481848 1e-05
-0.0199563 0.00490906 1e-05
-0.0199392 0.005 1e-05
-0.01992 0.0051 1e-05
-0.0199006 0.00519995 1e-05
-0.019881 0.00529983 1e-05
-0.019861 0.00539967 1e-05
-0.0198406 0.0055 1e-05
-0.0198248 0.00557695 1e-05
-0.0198087 0.00565387 1e-05
-0.0197925 0.00573075 1e-05
-0.0197762 0.00580759 1e-05
-0.0197614 0.00587639 1e-05
-0.019756 0.00590111 1e-05
-0.0197506 0.00592583 1e-05
-0.0197452 0.00595054 1e-05
-0.0197398 0.00597525 1e-05
-0.0197343 0.006 1e-05
-0.0197122 0.0061 1e-05
-0.0196897 0.00619993 1e-05
-0.019667 0.0062998 1e-05
-0.019644 0.0063996 1e-05
-0.0196205 0.0065 1e-05
-0.0195969 0.00659961 1e-05
-0.019573 0.00669915 1e-05
-0.0195488 0.00679862 1e-05
-0.0195243 0.00689801 1e-05
-0.0195025 0.00698528 1e-05
-0.0195018 0.00698822 1e-05
-0.019501 0.00699117 1e-05
-0.0195003 0.00699411 1e-05
-0.0194995 0.00699706 1e-05
-0.0194988 0.007 1e-05
-0.0194735 0.0071 1e-05
-0.0194479 0.00719992 1e-05
-0.0194219 0.00729976 1e-05
-0.0193957 0.00739952 1e-05
-0.019369 0.0075 1e-05
-0.0193443 0.0075914 1e-05
-0.0193194 0.00768272 1e-05
-0.0192942 0.00777398 1e-05
-0.0192688 0.00786516 1e-05
-0.0192457 0.00794698 1e-05
-0.0192427 0.00795758 1e-05
-0.0192397 0.00796819 1e-05
-0.0192367 0.00797879 1e-05
-0.0192336 0.00798939 1e-05
-0.0192306 0.008 1e-05
-0.019202 0.0081 1e-05
-0.019173 0.00819991 1e-05
-0.0191437 0.00829972 1e-05
-0.0191141 0.00839944 1e-05
-0.0190839 0.0085 1e-05
-0.0190653 0.00856108 1e-05
-0.0190466 0.00862213 1e-05
-0.0190278 0.00868314 1e-05
-0.0190089 0.00874411 1e-05
-0.018991 0.00880118 1e-05
-0.0189785 0.00884095 1e-05
-0.018966 0.00888069 1e-05
-0.0189534 0.00892042 1e-05
-0.0189407 0.00896014 1e-05
-0.0189279 0.009 1e-05
-0.0188957 0.0091 1e-05
-0.0188632 0.00919989 1e-05
-0.0188304 0.00929968 1e-05
-0.0187973 0.00939936 1e-05
-0.0187634 0.0095 1e-05
-0.0187584 0.00951471 1e-05
-0.0187534 0.00952942 1e-05
-0.0187484 0.00954412 1e-05
-0.0187434 0.00955883 1e-05
-0.0187384 0.00957332 1e-05
-0.0187091 0.00965865 1e-05
-0.0186796 0.00974391 1e-05
-0.0186499 0.00982907 1e-05
-0.0186199 0.00991416 1e-05
-0.0185894 0.01 1e-05
-0.0185691 0.0100566 1e-05
-0.0185486 0.0101133 1e-05
-0.0185281 0.0101698 1e-05
-0.0185075 0.0102263 1e-05
-0.0184878 0.0102799 1e-05
-0.0184715 0.0103239 1e-05
-0.0184552 0.0103679 1e-05
-0.0184388 0.0104119 1e-05
-0.0184223 0.0104558 1e-05
-0.0184057 0.0105 1e-05
-0.0183724 0.0105881 1e-05
-0.0183388 0.010676 1e-05
-0.018305 0.0107639 1e-05
-0.0182709 0.0108516 1e-05
-0.0182392 0.0109324 1e-05
-0.0182338 0.010946 1e-05
-0.0182285 0.0109595 1e-05
-0.0182231 0.010973 1e-05
-0.0182178 0.0109865 1e-05
-0.0182124 0.011 1e-05
-0.0181726 0.0111 1e-05
-0.0181324 0.0111999 1e-05
-0.0180919 0.0112996 1e-05
-0.0180511 0.0113992 1e-05
-0.0180093 0.0115 1e-05
-0.018006 0.011508 1e-05
-0.0180026 0.011516 1e-05
-0.0179993 0.011524 1e-05
-0.0179959 0.0115319 1e-05
-0.0179926 0.0115399 1e-05
-0.0179539 0.0116319 1e-05
-0.017915 0.0117238 1e-05
-0.0178757 0.0118156 1e-05
-0.0178361 0.0119072 1e-05
-0.0177957 0.012 1e-05
-0.0177862 0.0120217 1e-05
-0.0177766 0.0120434 1e-05
-0.017767 0.0120651 1e-05
-0.0177574 0.0120868 1e-05
-0.017748 0.0121081 1e-05
-0.0177132 0.0121865 1e-05
-0.0176781 0.0122647 1e-05
-0.0176428 0.0123429 1e-05
-0.0176073 0.012421 1e-05
-0.0175712 0.0125 1e-05
-0.017558 0.0125285 1e-05
-0.0175448 0.0125571 1e-05
-0.0175316 0.0125856 1e-05
-0.0175183 0.0126141 1e-05
-0.0175053 0.0126419 1e-05
-0.0174718 0.0127135 1e-05
-0.0174382 0.012785 1e-05
-0.0174043 0.0128565 1e-05
-0.0173702 0.0129278 1e-05
-0.0173355 0.013 1e-05
-0.0173214 0.0130293 1e-05
-0.0173072 0.0130586 1e-05
-0.0172929 0.0130878 1e-05
-0.0172786 0.0131171 1e-05
-0.0172647 0.0131457 1e-05
-0.0172299 0.0132165 1e-05
-0.0171949 0.0132873 1e-05
-0.0171598 0.013358 1e-05
-0.0171245 0.0134286 1e-05
-0.0170885 0.0135 1e-05
-0.017076 0.0135247 1e-05
-0.0170634 0.0135493 1e-05
-0.0170509 0.013574 1e-05
-0.0170383 0.0135986 1e-05
-0.0170259 0.0136228 1e-05
-0.0169872 0.0136982 1e-05
-0.0169483 0.0137736 1e-05
-0.0169092 0.0138488 1e-05
-0.0168698 0.0139239 1e-05
-0.0168297 0.014 1e-05
-0.0168216 0.0140153 1e-05
-0.0168134 0.0140305 1e-05
-0.0168053 0.0140458 1e-05
-0.0167972 0.0140611 1e-05
-0.0167891 0.0140761 1e-05
-0.0167438 0.0141609 1e-05
-0.0166981 0.0142455 1e-05
-0.0166522 0.01433 1e-05
-0.016606 0.0144143 1e-05
-0.0165588 0.0145 1e-05
-0.0165579 0.0145016 1e-05
-0.0165569 0.0145033 1e-05
-0.016556 0.0145049 1e-05
-0.0165551 0.0145066 1e-05
-0.0165542 0.0145082 1e-05
-0.0165076 0.014592 1e-05
-0.0164607 0.0146756 1e-05
-0.0164136 0.014759 1e-05
-0.0163661 0.0148423 1e-05
-0.0163212 0.0149207 1e-05
-0.016312 0.0149365 1e-05
-0.0163028 0.0149524 1e-05
-0.0162936 0.0149682 1e-05
-0.0162844 0.0149841 1e-05
-0.0162752 0.015 1e-05
-0.0162382 0.0150636 1e-05
-0.016201 0.0151272 1e-05
-0.0161636 0.0151906 1e-05
-0.0161261 0.015254 1e-05
-0.01609 0.0153146 1e-05
-0.0160678 0.0153517 1e-05
-0.0160456 0.0153887 1e-05
-0.0160233 0.0154257 1e-05
-0.0160009 0.0154627 1e-05
-0.0159783 0.0155 1e-05
-0.0159548 0.0155386 1e-05
-0.0159312 0.0155772 1e-05
-0.0159076 0.0156158 1e-05
-0.0158839 0.0156543 1e-05
-0.0158607 0.0156918 1e-05
-0.0158226 0.0157534 1e-05
-0.0157843 0.015815 1e-05
-0.0157458 0.0158764 1e-05
-0.0157072 0.0159378 1e-05
-0.0156678 0.016 1e-05
-0.0156609 0.0160108 1e-05
-0.015654 0.0160217 1e-05
-0.0156471 0.0160325 1e-05
-0.0156402 0.0160433 1e-05
-0.0156333 0.0160541 1e-05
-0.0155882 0.0161246 1e-05
-0.0155429 0.0161951 1e-05
-0.0154973 0.0162654 1e-05
-0.0154516 0.0163355 1e-05
-0.0154077 0.0164025 1e-05
-0.0153949 0.016422 1e-05
-0.015382 0.0164415 1e-05
-0.0153691 0.016461 1e-05
-0.0153562 0.0164804 1e-05
-0.0153432 0.0165 1e-05
-0.0153113 0.0165479 1e-05
-0.0152794 0.0165957 1e-05
-0.0152474 0.0166435 1e-05
-0.0152152 0.0166912 1e-05
-0.0151839 0.0167374 1e-05
-0.0151483 0.0167899 1e-05
-0.0151125 0.0168424 1e-05
-0.0150766 0.0168947 1e-05
-0.0150406 0.016947 1e-05
-0.0150039 0.017 1e-05
-0.0149955 0.0170121 1e-05
-0.0149871 0.0170241 1e-05
-0.0149787 0.0170362 1e-05
-0.0149703 0.0170483 1e-05
-0.0149619 0.0170602 1e-05
-0.0149179 0.0171233 1e-05
-0.0148737 0.0171862 1e-05
-0.0148293 0.017249 1e-05
-0.0147848 0.0173116 1e-05
-0.0147417 0.0173719 1e-05
-0.0147234 0.0173975 1e-05
-0.0147049 0.0174231 1e-05
-0.0146865 0.0174487 1e-05
-0.014668 0.0174743 1e-05
-0.0146494 0.0175 1e-05
-0.0146242 0.0175347 1e-05
-0.0145989 0.0175694 1e-05
-0.0145736 0.017604 1e-05
-0.0145482 0.0176386 1e-05
-0.0145233 0.0176725 1e-05
-0.01448 0.0177313 1e-05
-0.0144365 0.01779 1e-05
-0.0143929 0.0178485 1e-05
-0.0143491 0.017907 1e-05
-0.0143067 0.0179634 1e-05
-0.0143011 0.0179708 1e-05
-0.0142956 0.0179781 1e-05
-0.0142901 0.0179854 1e-05
-0.0142845 0.0179927 1e-05
-0.014279 0.018 1e-05
-0.0142415 0.0180494 1e-05
-0.014204 0.0180987 1e-05
-0.0141663 0.0181479 1e-05
-0.0141286 0.018197 1e-05
-0.0140917 0.0182448 1e-05
-0.0140522 0.0182958 1e-05
-0.0140125 0.0183468 1e-05
-0.0139728 0.0183977 1e-05
-0.0139329 0.0184484 1e-05
-0.0138923 0.0185 1e-05
-0.0138895 0.0185035 1e-05
-0.0138868 0.0185069 1e-05
-0.013884 0.0185104 1e-05
-0.0138813 0.0185138 1e-05
-0.0138786 0.0185173 1e-05
-0.0138363 0.0185706 1e-05
-0.0137939 0.0186238 1e-05
-0.0137513 0.0186769 1e-05
-0.0137087 0.01873 1e-05
-0.0136671 0.0187814 1e-05
-0.0136316 0.0188251 1e-05
-0.0135961 0.0188688 1e-05
-0.0135604 0.0189124 1e-05
-0.0135247 0.0189559 1e-05
-0.0134884 0.019 1e-05
-0.0134822 0.0190075 1e-05
-0.013476 0.019015 1e-05
-0.0134697 0.0190225 1e-05
-0.0134635 0.01903 1e-05
-0.0134573 0.0190375 1e-05
-0.0134157 0.0190877 1e-05
-0.013374 0.0191377 1e-05
-0.0133322 0.0191877 1e-05
-0.0132902 0.0192376 1e-05
-0.0132493 0.0192862 1e-05
-0.013213 0.0193289 1e-05
-0.0131767 0.0193716 1e-05
-0.0131403 0.0194143 1e-05
-0.0131038 0.0194568 1e-05
-0.0130667 0.0195 1e-05
-0.0130619 0.0195055 1e-05
-0.0130571 0.019511 1e-05
-0.0130524 0.0195166 1e-05
-0.0130476 0.0195221 1e-05
-0.0130429 0.0195276 1e-05
-0.0130019 0.0195749 1e-05
-0.0129609 0.0196221 1e-05
-0.0129197 0.0196693 1e-05
-0.0128785 0.0197164 1e-05
-0.0128381 0.0197623 1e-05
-0.0127975 0.0198083 1e-05
-0.0127568 0.0198542 1e-05
-0.012716 0.0199001 1e-05
-0.0126751 0.0199458 1e-05
-0.012635 0.0199905 1e-05
-0.0126333 0.0199924 1e-05
-0.0126316 0.0199943 1e-05
-0.0126299 0.0199962 1e-05
-0.0126282 0.0199981 1e-05
-0.0126265 0.02 1e-05
-0.0125879 0.0200428 1e-05
-0.0125492 0.0200856 1e-05
-0.0125105 0.0201283 1e-05
-0.0124717 0.0201709 1e-05
-0.0124336 0.0202126 1e-05
-0.0123936 0.0202561 1e-05
-0.0123536 0.0202996 1e-05
-0.0123134 0.020343 1e-05
-0.0122732 0.0203863 1e-05
-0.0122338 0.0204287 1e-05
-0.0122204 0.020443 1e-05
-0.0122071 0.0204572 1e-05
[...]
POINT_DATA 12125
 FIELD attributes 2
p 1 12125 float
-0.00802442 -0.00882426 -0.00962224 -0.0104198 -0.0112172 -0.0120155 -0.0128034 -0.0135908 -0.0143771 -0.0151625 -0.0159487 -0.016726 -0.0175032 -0.0182802 -0.019057 -0.0198337 -0.0203777 -0.0209214 -0.0214651 -0.0220088 -0.0224903 -0.0227324 -0.0229743 -0.0232163 -0.0234582 -0.0237002 -0.0244686 -0.0252358 -0.026003 -0.0267699 -0.0275391 -0.0283026 -0.0290657 -0.029828 -0.0305894 -0.0313536 -0.0321124 -0.0328709 -0.0336291 -0.0343872 -0.035148 -0.0352185 -0.0352889 -0.0353593 -0.0354296 -0.0354989 -0.0361837 -0.0368682 -0.0375524 -0.0382365 -0.0389233 -0.0396756 -0.0404275 -0.0411787 -0.0419291 -0.0426833 -0.0432598 -0.0438361 -0.0444121 -0.044988 -0.0455036 -0.045689 -0.0458744 -0.0460597 -0.046245 -0.0464305 -0.047178 -0.0479244 -0.0486704 -0.0494162 -0.0501665 -0.0509092 -0.0516515 -0.0523934 -0.053135 -0.0537862 -0.0538082 -0.0538302 -0.0538522 -0.0538742 -0.0538961 -0.0546404 -0.0553842 -0.0561276 -0.0568706 -0.057619 -0.0582991 -0.0589788 -0.0596582 -0.0603371 -0.0609464 -0.0610254 -0.0611044 -0.0611833 -0.0612623 -0.0613412 -0.0620854 -0.0628286 -0.0635713 -0.0643136 -0.0650622 -0.0655172 -0.0659719 -0.0664264 -0.0668807 -0.067306 -0.0676023 -0.0678984 -0.0681944 -0.0684903 -0.0687873 -0.0695333 -0.0702787 -0.0710234 -0.0717674 -0.0725185 -0.0726286 -0.0727386 -0.0728486 -0.0729585 -0.0730669 -0.0737046 -0.0743418 -0.0749786 -0.0756148 -0.076257 -0.0766818 -0.0771065 -0.0775309 -0.0779551 -0.0783569 -0.078687 -0.079017 -0.0793468 -0.0796764 -0.0800078 -0.0806705 -0.0813325 -0.081994 -0.0826549 -0.0832638 -0.0833654 -0.0834671 -0.0835687 -0.0836703 -0.0837721 -0.0845276 -0.0852823 -0.0860361 -0.0867889 -0.0875515 -0.0876122 -0.0876729 -0.0877336 -0.0877943 -0.0878546 -0.0885528 -0.0892501 -0.0899467 -0.0906424 -0.091347 -0.0915128 -0.0916786 -0.0918443 -0.09201 -0.0921727 -0.0927703 -0.0933673 -0.0939637 -0.0945595 -0.0951623 -0.0953815 -0.0956005 -0.0958196 -0.0960385 -0.0962524 -0.0968013 -0.0973496 -0.0978974 -0.0984445 -0.0989978 -0.0992241 -0.0994504 -0.0996765 -0.0999026 -0.100124 -0.10067 -0.101215 -0.10176 -0.102304 -0.102855 -0.103047 -0.103239 -0.10343 -0.103622 -0.10381 -0.104395 -0.104978 -0.105561 -0.106144 -0.106734 -0.106853 -0.106973 -0.107092 -0.107212 -0.10733 -0.107991 -0.10865 -0.109309 -0.109967 -0.110635 -0.110648 -0.110661 -0.110674 -0.110687 -0.1107 -0.111357 -0.112012 -0.112666 -0.113319 -0.113934 -0.114058 -0.114182 -0.114306 -0.114429 -0.114553 -0.115055 -0.115557 -0.116057 -0.116557 -0.117036 -0.117327 -0.117617 -0.117908 -0.118198 -0.118491 -0.118797 -0.119103 -0.11941 -0.119715 -0.120013 -0.120499 -0.120985 -0.121469 -0.121953 -0.122444 -0.12253 -0.122617 -0.122703 -0.12279 -0.122876 -0.123435 -0.123994 -0.124551 -0.125107 -0.125638 -0.125791 -0.125944 -0.126098 -0.126251 -0.126405 -0.126786 -0.127167 -0.127548 -0.127928 -0.128297 -0.128711 -0.129125 -0.129538 -0.129951 -0.130369 -0.130465 -0.130562 -0.130659 -0.130755 -0.130851 -0.131351 -0.131849 -0.132347 -0.132844 -0.133321 -0.133522 -0.133722 -0.133922 -0.134122 -0.134324 -0.1346 -0.134876 -0.135152 -0.135427 -0.135696 -0.136157 -0.136618 -0.137078 -0.137536 -0.137979 -0.138035 -0.138092 -0.138149 -0.138205 -0.138262 -0.13865 -0.139038 -0.139425 -0.139811 -0.140187 -0.140581 -0.140976 -0.141369 -0.141762 -0.142161 -0.142188 -0.142216 -0.142243 -0.14227 -0.142297 -0.14271 -0.143123 -0.143534 -0.143944 -0.144342 -0.144674 -0.145005 -0.145336 -0.145665 -0.146 -0.146057 -0.146115 -0.146173 -0.146231 -0.14629 -0.146669 -0.147049 -0.147428 -0.147805 -0.148173 -0.148489 -0.148805 -0.14912 -0.149434 -0.149753 -0.149795 -0.149836 -0.149878 -0.14992 -0.149961 -0.15031 -0.150658 -0.151005 -0.151352 -0.151689 -0.152018 -0.152346 -0.152673 -0.153 -0.153318 -0.153332 -0.153345 -0.153358 -0.153371 -0.153384 -0.153688 -0.153992 -0.154295 -0.154597 -0.154893 -0.155191 -0.155488 -0.155785 -0.156081 -0.156373 -0.156466 -0.15656 -0.156654 -0.156748 -0.156842 -0.157033 -0.157222 -0.157411 -0.157599 -0.157785 -0.158053 -0.158321 -0.158588 -0.158856 -0.159118 -0.159311 -0.159504 -0.159695 -0.159887 -0.16008 -0.160136 -0.160192 -0.160249 -0.160305 -0.160362 -0.1606 -0.160839 -0.161078 -0.161316 -0.16155 -0.161769 -0.161988 -0.162206 -0.162423 -0.162639 -0.162714 -0.162789 -0.162864 -0.162939 -0.163016 -0.163146 -0.163276 -0.163406 -0.163535 -0.163662 -0.163852 -0.164041 -0.164231 -0.164421 -0.164606 -0.164778 -0.164948 -0.165117 -0.165286 -0.165453 -0.165475 -0.165498 -0.16552 -0.165542 -0.165563 -0.165699 -0.165836 -0.165973 -0.166108 -0.166243 -0.166381 -0.16652 -0.166661 -0.166802 -0.166942 -0.167063 -0.167183 -0.167303 -0.167422 -0.167541 -0.16755 -0.16756 -0.167571 -0.167582 -0.167593 -0.167694 -0.167794 -0.167893 -0.167992 -0.168089 -0.168179 -0.168268 -0.16836 -0.168452 -0.168542 -0.168613 -0.168683 -0.168753 -0.168822 -0.168893 -0.168907 -0.168921 -0.168935 -0.168948 -0.168961 -0.169004 -0.169048 -0.169092 -0.169135 -0.169179 -0.169213 -0.169252 -0.169293 -0.169334 -0.169376 -0.169392 -0.169409 -0.169426 -0.169444 -0.169467 -0.169465 -0.169465 -0.169464 -0.169464 -0.169464 -0.169467 -0.169469 -0.169471 -0.169473 -0.169475 -0.16946 -0.169449 -0.169438 -0.169426 -0.169413 -0.169377 -0.16934 -0.169305 -0.169275 -0.169244 -0.16919 -0.169135 -0.169079 -0.169022 -0.168968 -0.168949 -0.16893 -0.16891 -0.168891 -0.168871 -0.16882 -0.168771 -0.168721 -0.168671 -0.168623 -0.168527 -0.168438 -0.168353 -0.168266 -0.168181 -0.168066 -0.167952 -0.167837 -0.167732 -0.16763 -0.167496 -0.167363 -0.16723 -0.167096 -0.166966 -0.166941 -0.166919 -0.166896 -0.166873 -0.166852 -0.166731 -0.16661 -0.166488 -0.166366 -0.166245 -0.166072 -0.165906 -0.165744 -0.165581 -0.165417 -0.165225 -0.165033 -0.16484 -0.164659 -0.164478 -0.164268 -0.164056 -0.163843 -0.16363 -0.163423 -0.163346 -0.16327 -0.163193 -0.163116 -0.163039 -0.162888 -0.162738 -0.162588 -0.162438 -0.16229 -0.162031 -0.161787 -0.161543 -0.161298 -0.161055 -0.160776 -0.160498 -0.160228 -0.159965 -0.159705 -0.159406 -0.159108 -0.15881 -0.158513 -0.158233 -0.157968 -0.157704 -0.15744 -0.157176 -0.156911 -0.156859 -0.156807 -0.156756 -0.156704 -0.156653 -0.15632 -0.155989 -0.155658 -0.155327 -0.154996 -0.154627 -0.154266 -0.153916 -0.153565 -0.153216 -0.152828 -0.152439 -0.152051 -0.151681 -0.15131 -0.150901 -0.150492 -0.150082 -0.149672 -0.149281 -0.148988 -0.148693 -0.148398 -0.148103 -0.147804 -0.147671 -0.147538 -0.147405 -0.147272 -0.14714 -0.146685 -0.146241 -0.145796 -0.145351 -0.144909 -0.14442 -0.143941 -0.143476 -0.14301 -0.142547 -0.142037 -0.141529 -0.141025 -0.140542 -0.140061 -0.139533 -0.139004 -0.138475 -0.137948 -0.137446 -0.136943 -0.136443 -0.135941 -0.13544 -0.134937 -0.134893 -0.134849 -0.134804 -0.134761 -0.134718 -0.134158 -0.1336 -0.133041 -0.132482 -0.131924 -0.13132 -0.13074 -0.130166 -0.129591 -0.129019 -0.128398 -0.127777 -0.127175 -0.126583 -0.12599 -0.125351 -0.124713 -0.124076 -0.123456 -0.122851 -0.122196 -0.12154 -0.120883 -0.120227 -0.119587 -0.119226 -0.118867 -0.118507 -0.118148 -0.117789 -0.117475 -0.117161 -0.116848 -0.116535 -0.116223 -0.115518 -0.114827 -0.114137 -0.113447 -0.112755 -0.112008 -0.111279 -0.110569 -0.109859 -0.10915 -0.108387 -0.107622 -0.106874 -0.106146 -0.105416 -0.104627 -0.10384 -0.103052 -0.102282 -0.101533 -0.100728 -0.0999222 -0.0991165 -0.0983111 -0.09752 -0.0971407 -0.0967617 -0.0963827 -0.0960038 -0.0956267 -0.0951747 -0.0947229 -0.0942713 -0.0938198 -0.0933677 -0.0924951 -0.091645 -0.0907954 -0.0899463 -0.0890922 -0.0881748 -0.0872781 -0.0864056 -0.0855337 -0.0846569 -0.0837202 -0.082783 -0.0818673 -0.0809763 -0.080078 -0.0791171 -0.0781568 -0.0771975 -0.0762599 -0.0753392 -0.0743582 -0.073377 -0.072397 -0.071418 -0.0704493 -0.070006 -0.0695623 -0.0691188 -0.0686755 -0.0682368 -0.0676733 -0.0671109 -0.0665489 -0.0659873 -0.0654228 -0.0643666 -0.0633409 -0.0623166 -0.0612939 -0.0602575 -0.059156 -0.0580763 -0.0570304 -0.0559861 -0.0549264 -0.0538039 -0.0526832 -0.0515808 -0.0505163 -0.0494327 -0.0482874 -0.0471448 -0.0460045 -0.0448775 -0.043771 -0.0426054 -0.0414421 -0.0402814 -0.0391233 -0.0379437 -0.0378548 -0.0377659 -0.037677 -0.0375882 -0.0374996 -0.036399 -0.0353005 -0.0342046 -0.0331111 -0.031992 -0.0307222 -0.0295081 -0.0283024 -0.0271 -0.0258627 -0.0245691 -0.0232787 -0.0220323 -0.0208078 -0.0195444 -0.0182279 -0.0169143 -0.015605 -0.0143228 -0.0130322 -0.0116907 -0.0103528 -0.00901953 -0.00769082 -0.00631492 -0.00626074 -0.00620514 -0.00614955 -0.00609397 -0.0060385 -0.00471965 -0.00340478 -0.00209446 -0.000788664 0.000568601 0.00203346 0.00345351 0.00484471 0.0062307 0.00767856 0.00917207 0.01066 0.0121359 0.0135495 0.0150314 0.0165532 0.0180688 0.0195777 0.0210802 0.0226291 0.02307 0.0235114 0.0239522 0.0243925 0.0248281 0.0259511 0.0270722 0.0281897 0.0293036 0.0304622 0.0321297 0.0337421 0.0353294 0.0369096 0.0385821 0.040293 0.0419975 0.0436937 0.0453281 0.047052 0.0486648 0.050271 0.0518698 0.0534613 0.0549961 0.0551625 0.0553286 0.0554943 0.05566 0.0558257 0.0576101 0.0593709 0.0611231 0.0628665 0.0647249 0.0666032 0.0684719 0.0702927 0.0720742 0.0739803 0.0760141 0.0780424 0.0800597 0.0820661 0.0842134 0.0843099 0.0844046 0.0844987 0.0845928 0.0846867 0.0867425 0.0887851 0.090817 0.0928383 0.0950017 0.0971941 0.0993689 0.101498 0.103562 0.105846 0.106846 0.107846 0.108844 0.10984 0.110823 0.113089 0.115348 0.117595 0.119831 0.12234 0.123361 0.124381 0.125399 0.126414 0.127416 0.130107 0.132781 0.135436 0.138074 0.141125 0.141706 0.142285 0.142863 0.14344 0.144013 0.147222 0.150395 0.153539 0.15663 0.159584 0.159903 0.160208 0.160513 0.160817 0.161115 0.163367 0.165574 0.167758 0.16992 0.171993 0.17302 0.174006 0.174982 0.175946 0.177003 0.177538 0.178038 0.178535 0.179029 0.179484 0.179778 0.180008 0.180241 0.18049 0.180678 0.180321 0.179925 0.179523 0.179116 0.178617 0.178029 0.177402 0.17677 0.176133 0.175462 0.173291 0.17107 0.168917 0.166765 0.164598 0.161944 0.159253 0.15655 0.153835 0.150269 0.150131 0.149992 0.149854 0.14971 0.149545 0.145902 0.142241 0.138571 0.134893 0.13122 0.1272 0.123162 0.119152 0.115143 0.11114 0.106963 0.102771 0.0985734 0.0943766 0.0901958 0.085985 0.0817634 0.0775374 0.0733073 0.0690777 0.0681454 0.0672078 0.0662701 0.065331 0.064309 0.061077 0.0578391 0.0546001 0.0513602 0.0481196 0.0440933 0.04004 0.0359851 0.0319287 0.0278739 0.0241386 0.0203301 0.0164899 0.0126482 0.00880673 0.00544632 0.00204866 -0.00151433 -0.00507903 -0.00864287 -0.0115185 -0.0143941 -0.0175354 -0.0207582 -0.0239796 -0.026255 -0.0285276 -0.031036 -0.033849 -0.0366583 -0.0382139 -0.0397652 -0.0414428 -0.0437734 -0.0460985 -0.0469348 -0.0477711 -0.0486106 -0.0503756 -0.0522141 -0.0526087 -0.0530214 -0.0534385 -0.0546725 -0.0562369 -0.0568557 -0.0575278 -0.058206 -0.0594782 -0.0612909 -0.0634381 -0.0657064 -0.0679832 -0.070551 -0.0736603 -0.079644 -0.0858582 -0.0920832 -0.098279 -0.104607 -0.117974 -0.131727 -0.14549 -0.158957 -0.171725 -0.196889 -0.222599 -0.248315 -0.273548 -0.297173 -0.337727 -0.378919 -0.42011 -0.460751 -0.49931 -0.555456 -0.612182 -0.668911 -0.725257 -0.779781 -0.848126 -0.916908 -0.985704 -1.05445 -1.12258 -1.19909 -1.27588 -1.35268 -1.4295 -1.50792 -1.58763 -1.66737 -1.74711 -1.82685 -1.90935 -1.98185 -2.05395 -2.12605 -2.19814 -2.27182 -2.32834 -2.38442 -2.44051 -2.49661 -2.55232 -2.55417 -2.556 -2.55784 -2.55967 -2.56154 -2.60545 -2.64933 -2.69324 -2.73718 -2.78108 -2.81192 -2.84274 -2.87361 -2.90452 -2.93486 -2.94719 -2.9598 -2.97246 -2.98516 -2.99769 -3.00131 -3.00502 -3.00878 -3.01258 -3.01632