# vtk DataFile Version 2.0
track0
ASCII
DATASET POLYDATA
POINTS 12125 float
-0.0205 0.001 1e-05
-0.0204897 0.0011 1e-05
-0.0204792 0.00119999 1e-05
-0.0204687 0.00129996 1e-05
-0.020458 0.00139992 1e-05
-0.0204471 0.0015 1e-05
-0.0204362 0.0016 1e-05
-0.0204251 0.00169998 1e-05
-0.0204138 0.00179995 1e-05
-0.0204024 0.00189989 1e-05
-0.0203908 0.002 1e-05
-0.0203791 0.0021 1e-05
-0.0203671 0.00219998 1e-05
-0.020355 0.00229993 1e-05
-0.0203427 0.00239986 1e-05
-0.0203301 0.0025 1e-05
-0.0203212 0.00257035 1e-05
-0.0203121 0.00264069 1e-05
-0.020303 0.00271102 1e-05
-0.0202937 0.00278133 1e-05
-0.0202854 0.00284363 1e-05
-0.0202812 0.0028749 1e-05
-0.0202769 0.00290617 1e-05
-0.0202727 0.00293744 1e-05
-0.0202684 0.00296871 1e-05
-0.0202641 0.003 1e-05
-0.0202503 0.0031 1e-05
-0.0202362 0.00319997 1e-05
-0.020222 0.0032999 1e-05
-0.0202074 0.0033998 1e-05
-0.0201926 0.0035 1e-05
-0.0201776 0.0036 1e-05
-0.0201623 0.00369996 1e-05
-0.0201468 0.00379988 1e-05
-0.020131 0.00389977 1e-05
-0.0201149 0.004 1e-05
-0.0200986 0.0041 1e-05
-0.020082 0.00419996 1e-05
-0.0200651 0.00429987 1e-05
-0.020048 0.00439973 1e-05
-0.0200306 0.0045 1e-05
-0.0200289 0.00450933 1e-05
-0.0200273 0.00451866 1e-05
-0.0200256 0.00452799 1e-05
-0.020024 0.00453732 1e-05
-0.0200223 0.00454651 1e-05
-0.0200062 0.00463721 1e-05
-0.0199898 0.00472787 1e-05
-0.0199732 0.00481848 1e-05
-0.0199563 0.00490906 1e-05
-0.0199392 0.005 1e-05
-0.01992 0.0051 1e-05
-0.0199006 0.00519995 1e-05
-0.019881 0.00529983 1e-05
-0.019861 0.00539967 1e-05
-0.0198406 0.0055 1e-05
-0.0198248 0.00557695 1e-05
-0.0198087 0.00565387 1e-05
-0.0197925 0.00573075 1e-05
-0.0197762 0.00580759 1e-05
-0.0197614 0.00587639 1e-05
-0.019756 0.00590111 1e-05
-0.0197506 0.00592583 1e-05
-0.0197452 0.00595054 1e-05
-0.0197398 0.00597525 1e-05
-0.0197343 0.006 1e-05
-0.0197122 0.0061 1e-05
-0.0196897 0.00619993 1e-05
-0.019667 0.0062998 1e-05
-0.019644 0.0063996 1e-05
-0.0196205 0.0065 1e-05
-0.0195969 0.00659961 1e-05
-0.019573 0.00669915 1e-05
-0.0195488 0.00679862 1e-05
-0.0195243 0.00689801 1e-05
-0.0195025 0.00698528 1e-05
-0.0195018 0.00698822 1e-05
-0.019501 0.00699117 1e-05
-0.0195003 0.00699411 1e-05
-0.0194995 0.00699706 1e-05
-0.0194988 0.007 1e-05
-0.0194735 0.0071 1e-05
-0.0194479 0.00719992 1e-05
-0.0194219 0.00729976 1e-05
-0.0193957 0.00739952 1e-05
-0.019369 0.0075 1e-05
-0.0193443 0.0075914 1e-05
-0.0193194 0.00768272 1e-05
-0.0192942 0.00777398 1e-05
-0.0192688 0.00786516 1e-05
-0.0192457 0.00794698 1e-05
-0.0192427 0.00795758 1e-05
-0.0192397 0.00796819 1e-05
-0.0192367 0.00797879 1e-05
-0.0192336 0.00798939 1e-05
-0.0192306 0.008 1e-05
-0.019202 0.0081 1e-05
-0.019173 0.00819991 1e-05
-0.0191437 0.00829972 1e-05
-0.0191141 0.00839944 1e-05
-0.0190839 0.0085 1e-05
-0.0190653 0.00856108 1e-05
-0.0190466 0.00862213 1e-05
-0.0190278 0.00868314 1e-05
-0.0190089 0.00874411 1e-05
-0.018991 0.00880118 1e-05
-0.0189785 0.00884095 1e-05
-0.018966 0.00888069 1e-05
-0.0189534 0.00892042 1e-05
-0.0189407 0.00896014 1e-05
-0.0189279 0.009 1e-05
-0.0188957 0.0091 1e-05
-0.0188632 0.00919989 1e-05
-0.0188304 0.00929968 1e-05
-0.0187973 0.00939936 1e-05
-0.0187634 0.0095 1e-05
-0.0187584 0.00951471 1e-05
-0.0187534 0.00952942 1e-05
-0.0187484 0.00954412 1e-05
-0.0187434 0.00955883 1e-05
-0.0187384 0.00957332 1e-05
-0.0187091 0.00965865 1e-05
-0.0186796 0.00974391 1e-05
-0.0186499 0.00982907 1e-05
-0.0186199 0.00991416 1e-05
-0.0185894 0.01 1e-05
-0.0185691 0.0100566 1e-05
-0.0185486 0.0101133 1e-05
-0.0185281 0.0101698 1e-05
-0.0185075 0.0102263 1e-05
-0.0184878 0.0102799 1e-05
-0.0184715 0.0103239 1e-05
-0.0184552 0.0103679 1e-05
-0.0184388 0.0104119 1e-05
-0.0184223 0.0104558 1e-05
-0.0184057 0.0105 1e-05
-0.0183724 0.0105881 1e-05
-0.0183388 0.010676 1e-05
-0.018305 0.0107639 1e-05
-0.0182709 0.0108516 1e-05
-0.0182392 0.0109324 1e-05
-0.0182338 0.010946 1e-05
-0.0182285 0.0109595 1e-05
-0.0182231 0.010973 1e-05
-0.0182178 0.0109865 1e-05
-0.0182124 0.011 1e-05
-0.0181726 0.0111 1e-05
-0.0181324 0.0111999 1e-05
-0.0180919 0.0112996 1e-05
-0.0180511 0.0113992 1e-05
-0.0180093 0.0115 1e-05
-0.018006 0.011508 1e-05
-0.0180026 0.011516 1e-05
-0.0179993 0.011524 1e-05
-0.0179959 0.0115319 1e-05
-0.0179926 0.0115399 1e-05
-0.0179539 0.0116319 1e-05
-0.017915 0.0117238 1e-05
-0.0178757 0.0118156 1e-05
-0.0178361 0.0119072 1e-05
-0.0177957 0.012 1e-05
-0.0177862 0.0120217 1e-05
-0.0177766 0.0120434 1e-05
-0.017767 0.0120651 1e-05
-0.0177574 0.0120868 1e-05
-0.017748 0.0121081 1e-05
-0.0177132 0.0121865 1e-05
-0.0176781 0.0122647 1e-05
-0.0176428 0.0123429 1e-05
-0.0176073 0.012421 1e-05
-0.0175712 0.0125 1e-05
-0.017558 0.0125285 1e-05
-0.0175448 0.0125571 1e-05
-0.0175316 0.0125856 1e-05
-0.0175183 0.0126141 1e-05
-0.0175053 0.0126419 1e-05
-0.0174718 0.0127135 1e-05
-0.0174382 0.012785 1e-05
-0.0174043 0.0128565 1e-05
-0.0173702 0.0129278 1e-05
-0.0173355 0.013 1e-05
-0.0173214 0.0130293 1e-05
-0.0173072 0.0130586 1e-05
-0.0172929 0.0130878 1e-05
-0.0172786 0.0131171 1e-05
-0.0172647 0.0131457 1e-05
-0.0172299 0.0132165 1e-05
-0.0171949 0.0132873 1e-05
-0.0171598 0.013358 1e-05
-0.0171245 0.0134286 1e-05
-0.0170885 0.0135 1e-05
-0.017076 0.0135247 1e-05
-0.0170634 0.0135493 1e-05
-0.0170509 0.013574 1e-05
-0.0170383 0.0135986 1e-05
-0.0170259 0.0136228 1e-05
-0.0169872 0.0136982 1e-05
-0.0169483 0.0137736 1e-05
-0.0169092 0.0138488 1e-05
-0.0168698 0.0139239 1e-05
-0.0168297 0.014 1e-05
-0.0168216 0.0140153 1e-05
-0.0168134 0.0140305 1e-05
-0.0168053 0.0140458 1e-05
-0.0167972 0.0140611 1e-05
-0.0167891 0.0140761 1e-05
-0.0167438 0.0141609 1e-05
-0.0166981 0.0142455 1e-05
-0.0166522 0.01433 1e-05
-0.016606 0.0144143 1e-05
-0.0165588 0.0145 1e-05
-0.0165579 0.0145016 1e-05
-0.0165569 0.0145033 1e-05
-0.016556 0.0145049 1e-05
-0.0165551 0.0145066 1e-05
-0.0165542 0.0145082 1e-05
-0.0165076 0.014592 1e-05
-0.0164607 0.0146756 1e-05
-0.0164136 0.014759 1e-05
-0.0163661 0.0148423 1e-05
-0.0163212 0.0149207 1e-05
-0.016312 0.0149365 1e-05
-0.0163028 0.0149524 1e-05
-0.0162936 0.0149682 1e-05
-0.0162844 0.0149841 1e-05
-0.0162752 0.015 1e-05
-0.0162382 0.0150636 1e-05
-0.016201 0.0151272 1e-05
-0.0161636 0.0151906 1e-05
-0.0161261 0.015254 1e-05
-0.01609 0.0153146 1e-05
-0.0160678 0.0153517 1e-05
-0.0160456 0.0153887 1e-05
-0.0160233 0.0154257 1e-05
-0.0160009 0.0154627 1e-05
-0.0159783 0.0155 1e-05
-0.0159548 0.0155386 1e-05
-0.0159312 0.0155772 1e-05
-0.0159076 0.0156158 1e-05
-0.0158839 0.0156543 1e-05
-0.0158607 0.0156918 1e-05
-0.0158226 0.0157534 1e-05
-0.0157843 0.015815 1e-05
-0.0157458 0.0158764 1e-05
-0.0157072 0.0159378 1e-05
-0.0156678 0.016 1e-05
-0.0156609 0.0160108 1e-05
-0.015654 0.0160217 1e-05
-0.0156471 0.0160325 1e-05
-0.0156402 0.0160433 1e-05
-0.0156333 0.0160541 1e-05
-0.0155882 0.0161246 1e-05
-0.0155429 0.0161951 1e-05
-0.0154973 0.0162654 1e-05
-0.0154516 0.0163355 1e-05
-0.0154077 0.0164025 1e-05
-0.0153949 0.016422 1e-05
-0.015382 0.0164415 1e-05
-0.0153691 0.016461 1e-05
-0.0153562 0.0164804 1e-05
-0.0153432 0.0165 1e-05
-0.0153113 0.0165479 1e-05
-0.0152794 0.0165957 1e-05
-0.0152474 0.0166435 1e-05
-0.0152152 0.0166912 1e-05
-0.0151839 0.0167374 1e-05
-0.0151483 0.0167899 1e-05
-0.0151125 0.0168424 1e-05
-0.0150766 0.0168947 1e-05
-0.0150406 0.016947 1e-05
-0.0150039 0.017 1e-05
-0.0149955 0.0170121 1e-05
-0.0149871 0.0170241 1e-05
-0.0149787 0.0170362 1e-05
-0.0149703 0.0170483 1e-05
-0.0149619 0.0170602 1e-05
-0.0149179 0.0171233 1e-05
-0.0148737 0.0171862 1e-05
-0.0148293 0.017249 1e-05
-0.0147848 0.0173116 1e-05
-0.0147417 0.0173719 1e-05
-0.0147234 0.0173975 1e-05
-0.0147049 0.0174231 1e-05
-0.0146865 0.0174487 1e-05
-0.014668 0.0174743 1e-05
-0.0146494 0.0175 1e-05
-0.0146242 0.0175347 1e-05
-0.0145989 0.0175694 1e-05
-0.0145736 0.017604 1e-05
-0.0145482 0.0176386 1e-05
-0.0145233 0.0176725 1e-05
-0.01448 0.0177313 1e-05
-0.0144365 0.01779 1e-05
-0.0143929 0.0178485 1e-05
-0.0143491 0.017907 1e-05
-0.0143067 0.0179634 1e-05
-0.0143011 0.0179708 1e-05
-0.0142956 0.0179781 1e-05
-0.0142901 0.0179854 1e-05
-0.0142845 0.0179927 1e-05
-0.014279 0.018 1e-05
-0.0142415 0.0180494 1e-05
-0.014204 0.0180987 1e-05
-0.0141663 0.0181479 1e-05
-0.0141286 0.018197 1e-05
-0.0140917 0.0182448 1e-05
-0.0140522 0.0182958 1e-05
-0.0140125 0.0183468 1e-05
-0.0139728 0.0183977 1e-05
-0.0139329 0.0184484 1e-05
-0.0138923 0.0185 1e-05
-0.0138895 0.0185035 1e-05
-0.0138868 0.0185069 1e-05
-0.013884 0.0185104 1e-05
-0.0138813 0.0185138 1e-05
-0.0138786 0.0185173 1e-05
-0.0138363 0.0185706 1e-05
-0.0137939 0.0186238 1e-05
-0.0137513 0.0186769 1e-05
-0.0137087 0.01873 1e-05
-0.0136671 0.0187814 1e-05
-0.0136316 0.0188251 1e-05
-0.0135961 0.0188688 1e-05
-0.0135604 0.0189124 1e-05
-0.0135247 0.0189559 1e-05
-0.0134884 0.019 1e-05
-0.0134822 0.0190075 1e-05
-0.013476 0.019015 1e-05
-0.0134697 0.0190225 1e-05
-0.0134635 0.01903 1e-05
-0.0134573 0.0190375 1e-05
-0.0134157 0.0190877 1e-05
-0.013374 0.0191377 1e-05
-0.0133322 0.0191877 1e-05
-0.0132902 0.0192376 1e-05
-0.0132493 0.0192862 1e-05
-0.013213 0.0193289 1e-05
-0.0131767 0.0193716 1e-05
-0.0131403 0.0194143 1e-05
-0.0131038 0.0194568 1e-05
-0.0130667 0.0195 1e-05
-0.0130619 0.0195055 1e-05
-0.0130571 0.019511 1e-05
-0.0130524 0.0195166 1e-05
-0.0130476 0.0195221 1e-05
-0.0130429 0.0195276 1e-05
-0.0130019 0.0195749 1e-05
-0.0129609 0.0196221 1e-05
-0.0129197 0.0196693 1e-05
-0.0128785 0.0197164 1e-05
-0.0128381 0.0197623 1e-05
-0.0127975 0.0198083 1e-05
-0.0127568 0.0198542 1e-05
-0.012716 0.0199001 1e-05
-0.0126751 0.0199458 1e-05
-0.012635 0.0199905 1e-05
-0.0126333 0.0199924 1e-05
-0.0126316 0.0199943 1e-05
-0.0126299 0.0199962 1e-05
-0.0126282 0.0199981 1e-05
-0.0126265 0.02 1e-05
-0.0125879 0.0200428 1e-05
-0.0125492 0.0200856 1e-05
-0.0125105 0.0201283 1e-05
-0.0124717 0.0201709 1e-05
-0.0124336 0.0202126 1e-05
-0.0123936 0.0202561 1e-05
-0.0123536 0.0202996 1e-05
-0.0123134 0.020343 1e-05
-0.0122732 0.0203863 1e-05
-0.0122338 0.0204287 1e-05
-0.0122204 0.020443 1e-05
-0.0122071 0.0204572 1e-05
[...]
POINT_DATA 12125
 FIELD attributes 1
U 3 12125 float
-0.0291914 	-0.282672 	0 -0.0295353 	-0.282648 	0 -0.02988 	-0.282622 	0 -0.0302241 	-0.282596 	0 -0.0305682 	-0.282568 	0 -0.0309156 	-0.28254 	0 -0.0313671 	-0.282509 	0 -0.031821 	-0.282476 	0 -0.032273 	-0.282441 	0 -0.0327235 	-0.282405 	0 -0.0331771 	-0.282368 	0 -0.0337165 	-0.282323 	0 -0.0342578 	-0.282277 	0 -0.034799 	-0.282231 	0 -0.0353396 	-0.282183 	0 -0.0358801 	-0.282132 	0 -0.0363089 	-0.282091 	0 -0.0367392 	-0.282049 	0 -0.0371694 	-0.282007 	0 -0.0375995 	-0.281964 	0 -0.0379822 	-0.281925 	0 -0.0381722 	-0.281905 	0 -0.0383638 	-0.281885 	0 -0.0385554 	-0.281866 	0 -0.0387469 	-0.281846 	0 -0.0389403 	-0.281825 	0 -0.0396097 	-0.281752 	0 -0.040278 	-0.281677 	0 -0.0409461 	-0.2816 	0 -0.0416139 	-0.281523 	0 -0.0422851 	-0.281443 	0 -0.0430001 	-0.281354 	0 -0.0437159 	-0.281264 	0 -0.0444293 	-0.281172 	0 -0.0451407 	-0.281078 	0 -0.0458557 	-0.280982 	0 -0.0466046 	-0.280877 	0 -0.047354 	-0.28077 	0 -0.0481032 	-0.280662 	0 -0.048852 	-0.280552 	0 -0.0496039 	-0.28044 	0 -0.0496756 	-0.280429 	0 -0.049748 	-0.280417 	0 -0.0498204 	-0.280406 	0 -0.049893 	-0.280394 	0 -0.0499647 	-0.280383 	0 -0.0506691 	-0.280272 	0 -0.0513739 	-0.280159 	0 -0.0520785 	-0.280045 	0 -0.0527828 	-0.27993 	0 -0.0534907 	-0.279813 	0 -0.0542913 	-0.279675 	0 -0.0550921 	-0.279536 	0 -0.0558909 	-0.279395 	0 -0.0566877 	-0.279251 	0 -0.0574891 	-0.279105 	0 -0.0581176 	-0.278986 	0 -0.0587462 	-0.278866 	0 -0.0593746 	-0.278745 	0 -0.0600028 	-0.278624 	0 -0.0605656 	-0.278513 	0 -0.0607678 	-0.278474 	0 -0.0609703 	-0.278434 	0 -0.0611728 	-0.278394 	0 -0.0613754 	-0.278354 	0 -0.0615785 	-0.278314 	0 -0.0624129 	-0.278144 	0 -0.0632445 	-0.277971 	0 -0.0640757 	-0.277796 	0 -0.0649066 	-0.27762 	0 -0.065743 	-0.277441 	0 -0.0665854 	-0.277255 	0 -0.0674276 	-0.277068 	0 -0.0682695 	-0.276879 	0 -0.0691109 	-0.276688 	0 -0.0698501 	-0.276519 	0 -0.069875 	-0.276513 	0 -0.0698999 	-0.276508 	0 -0.0699248 	-0.276502 	0 -0.0699499 	-0.276496 	0 -0.069975 	-0.27649 	0 -0.0708327 	-0.276287 	0 -0.0716898 	-0.276082 	0 -0.0725466 	-0.275876 	0 -0.0734029 	-0.275668 	0 -0.0742658 	-0.275457 	0 -0.07506 	-0.275258 	0 -0.075854 	-0.275057 	0 -0.0766475 	-0.274855 	0 -0.0774407 	-0.274651 	0 -0.0781528 	-0.274467 	0 -0.0782451 	-0.274443 	0 -0.0783376 	-0.274419 	0 -0.0784301 	-0.274395 	0 -0.0785226 	-0.274371 	0 -0.0786153 	-0.274347 	0 -0.0794964 	-0.274114 	0 -0.0803757 	-0.273878 	0 -0.0812546 	-0.27364 	0 -0.082133 	-0.273401 	0 -0.0830192 	-0.273158 	0 -0.083563 	-0.273006 	0 -0.0841069 	-0.272853 	0 -0.0846505 	-0.2727 	0 -0.0851939 	-0.272546 	0 -0.0857029 	-0.272401 	0 -0.086058 	-0.2723 	0 -0.0864133 	-0.272198 	0 -0.0867684 	-0.272097 	0 -0.0871235 	-0.271995 	0 -0.0874801 	-0.271892 	0 -0.0883832 	-0.271629 	0 -0.0892858 	-0.271363 	0 -0.0901879 	-0.271096 	0 -0.0910885 	-0.270827 	0 -0.0919977 	-0.270553 	0 -0.0921317 	-0.270512 	0 -0.0922659 	-0.270471 	0 -0.0924001 	-0.27043 	0 -0.0925343 	-0.270388 	0 -0.0926667 	-0.270347 	0 -0.0934471 	-0.270108 	0 -0.0942273 	-0.269868 	0 -0.095007 	-0.269626 	0 -0.0957862 	-0.269383 	0 -0.0965729 	-0.269137 	0 -0.097097 	-0.26897 	0 -0.097621 	-0.268803 	0 -0.0981447 	-0.268636 	0 -0.0986683 	-0.268468 	0 -0.0991644 	-0.268308 	0 -0.0995731 	-0.268177 	0 -0.0999819 	-0.268045 	0 -0.100391 	-0.267913 	0 -0.100799 	-0.26778 	0 -0.10121 	-0.267647 	0 -0.102036 	-0.267376 	0 -0.102862 	-0.267103 	0 -0.103688 	-0.266829 	0 -0.104513 	-0.266555 	0 -0.105273 	-0.2663 	0 -0.1054 	-0.266257 	0 -0.105528 	-0.266215 	0 -0.105655 	-0.266172 	0 -0.105783 	-0.266129 	0 -0.10591 	-0.266086 	0 -0.106863 	-0.265764 	0 -0.107814 	-0.265441 	0 -0.108765 	-0.265115 	0 -0.109714 	-0.264788 	0 -0.110676 	-0.264454 	0 -0.110753 	-0.264428 	0 -0.11083 	-0.264401 	0 -0.110907 	-0.264374 	0 -0.110984 	-0.264347 	0 -0.11106 	-0.26432 	0 -0.111949 	-0.264009 	0 -0.112837 	-0.263698 	0 -0.113725 	-0.263385 	0 -0.114612 	-0.263071 	0 -0.11551 	-0.262751 	0 -0.115722 	-0.262675 	0 -0.115935 	-0.262598 	0 -0.116147 	-0.262522 	0 -0.116359 	-0.262445 	0 -0.116568 	-0.26237 	0 -0.117336 	-0.262094 	0 -0.118105 	-0.261817 	0 -0.118873 	-0.261539 	0 -0.11964 	-0.261261 	0 -0.120417 	-0.260977 	0 -0.1207 	-0.260873 	0 -0.120983 	-0.260769 	0 -0.121266 	-0.260664 	0 -0.121549 	-0.26056 	0 -0.121826 	-0.260458 	0 -0.12254 	-0.260195 	0 -0.123253 	-0.259932 	0 -0.123965 	-0.259669 	0 -0.124677 	-0.259404 	0 -0.125398 	-0.259135 	0 -0.125693 	-0.259025 	0 -0.125988 	-0.258914 	0 -0.126284 	-0.258803 	0 -0.126579 	-0.258691 	0 -0.126867 	-0.258582 	0 -0.127584 	-0.258314 	0 -0.128301 	-0.258044 	0 -0.129017 	-0.257774 	0 -0.129732 	-0.257502 	0 -0.130457 	-0.257227 	0 -0.130709 	-0.25713 	0 -0.130962 	-0.257034 	0 -0.131214 	-0.256937 	0 -0.131467 	-0.25684 	0 -0.131715 	-0.256745 	0 -0.13249 	-0.256449 	0 -0.133265 	-0.256153 	0 -0.134039 	-0.255855 	0 -0.134812 	-0.255557 	0 -0.135596 	-0.255254 	0 -0.135755 	-0.255192 	0 -0.135914 	-0.25513 	0 -0.136073 	-0.255068 	0 -0.136232 	-0.255006 	0 -0.136389 	-0.254945 	0 -0.137274 	-0.254603 	0 -0.138158 	-0.25426 	0 -0.139041 	-0.253916 	0 -0.139924 	-0.25357 	0 -0.14082 	-0.253218 	0 -0.140838 	-0.253211 	0 -0.140855 	-0.253204 	0 -0.140873 	-0.253197 	0 -0.14089 	-0.25319 	0 -0.140908 	-0.253183 	0 -0.141795 	-0.252836 	0 -0.142682 	-0.252487 	0 -0.143567 	-0.252137 	0 -0.144451 	-0.251786 	0 -0.145285 	-0.251454 	0 -0.145453 	-0.251387 	0 -0.145622 	-0.25132 	0 -0.145791 	-0.251253 	0 -0.14596 	-0.251186 	0 -0.14613 	-0.251118 	0 -0.146816 	-0.250846 	0 -0.147501 	-0.250573 	0 -0.148185 	-0.250299 	0 -0.148868 	-0.250025 	0 -0.149523 	-0.249762 	0 -0.149924 	-0.249602 	0 -0.150325 	-0.249441 	0 -0.150726 	-0.249281 	0 -0.151127 	-0.24912 	0 -0.151531 	-0.248957 	0 -0.151954 	-0.248787 	0 -0.152377 	-0.248617 	0 -0.152799 	-0.248446 	0 -0.153222 	-0.248276 	0 -0.153633 	-0.248109 	0 -0.154311 	-0.247837 	0 -0.154988 	-0.247564 	0 -0.155664 	-0.247291 	0 -0.15634 	-0.247018 	0 -0.157026 	-0.24674 	0 -0.157147 	-0.246691 	0 -0.157267 	-0.246642 	0 -0.157388 	-0.246592 	0 -0.157509 	-0.246543 	0 -0.157629 	-0.246494 	0 -0.158417 	-0.246177 	0 -0.159204 	-0.245859 	0 -0.15999 	-0.245539 	0 -0.160774 	-0.245218 	0 -0.161523 	-0.24491 	0 -0.161742 	-0.244821 	0 -0.16196 	-0.244732 	0 -0.162179 	-0.244643 	0 -0.162397 	-0.244554 	0 -0.162617 	-0.244464 	0 -0.16316 	-0.244243 	0 -0.163703 	-0.244021 	0 -0.164245 	-0.243799 	0 -0.164787 	-0.243577 	0 -0.165313 	-0.243361 	0 -0.165911 	-0.243117 	0 -0.166509 	-0.242874 	0 -0.167106 	-0.242629 	0 -0.167703 	-0.242385 	0 -0.168308 	-0.242136 	0 -0.168447 	-0.242079 	0 -0.168587 	-0.242022 	0 -0.168726 	-0.241965 	0 -0.168866 	-0.241907 	0 -0.169004 	-0.24185 	0 -0.169734 	-0.241554 	0 -0.170462 	-0.241257 	0 -0.171189 	-0.240957 	0 -0.171915 	-0.240657 	0 -0.172613 	-0.240368 	0 -0.172911 	-0.240246 	0 -0.173208 	-0.240124 	0 -0.173505 	-0.240001 	0 -0.173802 	-0.239879 	0 -0.174102 	-0.239756 	0 -0.17451 	-0.239588 	0 -0.174918 	-0.23942 	0 -0.175325 	-0.239252 	0 -0.175733 	-0.239084 	0 -0.176132 	-0.238919 	0 -0.176826 	-0.238636 	0 -0.177519 	-0.238353 	0 -0.178211 	-0.238069 	0 -0.178903 	-0.237785 	0 -0.17957 	-0.237507 	0 -0.179656 	-0.237471 	0 -0.179742 	-0.237436 	0 -0.179829 	-0.2374 	0 -0.179915 	-0.237364 	0 -0.180002 	-0.237329 	0 -0.180594 	-0.237086 	0 -0.181184 	-0.236843 	0 -0.181774 	-0.236599 	0 -0.182364 	-0.236356 	0 -0.182937 	-0.236118 	0 -0.183551 	-0.235867 	0 -0.184164 	-0.235616 	0 -0.184777 	-0.235365 	0 -0.185389 	-0.235113 	0 -0.186011 	-0.234856 	0 -0.186053 	-0.234839 	0 -0.186095 	-0.234822 	0 -0.186137 	-0.234804 	0 -0.186179 	-0.234787 	0 -0.186222 	-0.234769 	0 -0.186873 	-0.234504 	0 -0.187522 	-0.234237 	0 -0.188171 	-0.233969 	0 -0.188819 	-0.233701 	0 -0.189448 	-0.23344 	0 -0.189984 	-0.233222 	0 -0.190519 	-0.233003 	0 -0.191053 	-0.232784 	0 -0.191587 	-0.232565 	0 -0.192129 	-0.232342 	0 -0.192222 	-0.232304 	0 -0.192316 	-0.232265 	0 -0.192409 	-0.232227 	0 -0.192502 	-0.232189 	0 -0.192596 	-0.23215 	0 -0.19322 	-0.231898 	0 -0.193843 	-0.231642 	0 -0.194464 	-0.231387 	0 -0.195085 	-0.231131 	0 -0.19569 	-0.230881 	0 -0.196223 	-0.230664 	0 -0.196756 	-0.230447 	0 -0.197289 	-0.230229 	0 -0.197821 	-0.230012 	0 -0.198361 	-0.22979 	0 -0.19843 	-0.229762 	0 -0.1985 	-0.229734 	0 -0.19857 	-0.229705 	0 -0.19864 	-0.229677 	0 -0.19871 	-0.229648 	0 -0.199309 	-0.229406 	0 -0.199908 	-0.229162 	0 -0.200505 	-0.228917 	0 -0.201101 	-0.228673 	0 -0.201684 	-0.228433 	0 -0.202268 	-0.228197 	0 -0.202851 	-0.227961 	0 -0.203434 	-0.227725 	0 -0.204017 	-0.227488 	0 -0.204586 	-0.227256 	0 -0.204609 	-0.227246 	0 -0.204633 	-0.227236 	0 -0.204658 	-0.227227 	0 -0.204682 	-0.227217 	0 -0.204706 	-0.227207 	0 -0.205258 	-0.226984 	0 -0.205809 	-0.22676 	0 -0.206359 	-0.226537 	0 -0.206909 	-0.226313 	0 -0.207447 	-0.226094 	0 -0.20801 	-0.225869 	0 -0.208573 	-0.225644 	0 -0.209135 	-0.225418 	0 -0.209695 	-0.225191 	0 -0.210243 	-0.224966 	0 -0.210427 	-0.224892 	0 -0.210611 	-0.224817 	0 -0.210795 	-0.224743 	0 -0.210979 	-0.224668 	0 -0.211164 	-0.224593 	0 -0.211531 	-0.224446 	0 -0.211898 	-0.224299 	0 -0.212264 	-0.224152 	0 -0.21263 	-0.224004 	0 -0.212992 	-0.223858 	0 -0.213536 	-0.223644 	0 -0.214079 	-0.223429 	0 -0.21462 	-0.223212 	0 -0.21516 	-0.222993 	0 -0.21569 	-0.222777 	0 -0.216099 	-0.222614 	0 -0.216508 	-0.222451 	0 -0.216917 	-0.222288 	0 -0.217325 	-0.222124 	0 -0.217738 	-0.221959 	0 -0.217857 	-0.221912 	0 -0.217976 	-0.221865 	0 -0.218094 	-0.221817 	0 -0.218213 	-0.22177 	0 -0.218332 	-0.221723 	0 -0.218857 	-0.221518 	0 -0.219381 	-0.221309 	0 -0.219904 	-0.2211 	0 -0.220426 	-0.220891 	0 -0.220939 	-0.220685 	0 -0.221452 	-0.220485 	0 -0.221965 	-0.220284 	0 -0.222476 	-0.220083 	0 -0.222987 	-0.219881 	0 -0.223488 	-0.219678 	0 -0.223675 	-0.219604 	0 -0.223862 	-0.21953 	0 -0.224049 	-0.219456 	0 -0.224236 	-0.219382 	0 -0.224424 	-0.219307 	0 -0.224739 	-0.219183 	0 -0.225055 	-0.219059 	0 -0.22537 	-0.218935 	0 -0.225686 	-0.218811 	0 -0.225998 	-0.218688 	0 -0.226495 	-0.218498 	0 -0.226992 	-0.218306 	0 -0.227486 	-0.21811 	0 -0.22798 	-0.217914 	0 -0.228466 	-0.21772 	0 -0.228951 	-0.217533 	0 -0.229435 	-0.217345 	0 -0.22992 	-0.217157 	0 -0.230403 	-0.216968 	0 -0.230879 	-0.21678 	0 -0.230946 	-0.216754 	0 -0.231015 	-0.216727 	0 -0.231083 	-0.2167 	0 -0.231151 	-0.216673 	0 -0.23122 	-0.216647 	0 -0.23163 	-0.216488 	0 -0.232041 	-0.216328 	0 -0.232451 	-0.216169 	0 -0.232861 	-0.21601 	0 -0.233266 	-0.215852 	0 -0.233737 	-0.215674 	0 -0.234208 	-0.215496 	0 -0.234677 	-0.215313 	0 -0.235145 	-0.215129 	0 -0.235606 	-0.214948 	0 -0.236065 	-0.214772 	0 -0.236525 	-0.214596 	0 -0.236984 	-0.21442 	0 -0.237442 	-0.214244 	0 -0.237894 	-0.214068 	0 -0.237939 	-0.214051 	0 -0.237984 	-0.214034 	0 -0.238028 	-0.214016 	0 -0.238073 	-0.213999 	0 -0.238119 	-0.213982 	0 -0.238529 	-0.213825 	0 -0.238939 	-0.213668 	0 -0.239348 	-0.213512 	0 -0.239758 	-0.213355 	0 -0.240162 	-0.213199 	0 -0.24061 	-0.213034 	0 -0.241057 	-0.212867 	0 -0.241502 	-0.212696 	0 -0.241946 	-0.212524 	0 -0.242385 	-0.212353 	0 -0.242821 	-0.212189 	0 -0.243258 	-0.212025 	0 -0.243694 	-0.211861 	0 -0.244129 	-0.211696 	0 -0.244558 	-0.21153 	0 -0.244668 	-0.211488 	0 -0.244779 	-0.211446 	0 -0.244889 	-0.211404 	0 -0.245 	-0.211362 	0 -0.245111 	-0.211319 	0 -0.245431 	-0.211199 	0 -0.245752 	-0.211079 	0 -0.246072 	-0.210959 	0 -0.246392 	-0.210838 	0 -0.246709 	-0.210719 	0 -0.247135 	-0.210564 	0 -0.24756 	-0.210407 	0 -0.247983 	-0.210246 	0 -0.248405 	-0.210085 	0 -0.248823 	-0.209926 	0 -0.249238 	-0.209773 	0 -0.249654 	-0.20962 	0 -0.250069 	-0.209467 	0 -0.250482 	-0.209312 	0 -0.25089 	-0.209154 	0 -0.251149 	-0.209057 	0 -0.251408 	-0.208961 	0 -0.251667 	-0.208864 	0 -0.251925 	-0.208767 	0 -0.252186 	-0.20867 	0 -0.252334 	-0.208615 	0 -0.252481 	-0.208561 	0 -0.252629 	-0.208507 	0 -0.252777 	-0.208452 	0 -0.252924 	-0.208398 	0 -0.253329 	-0.208253 	0 -0.253733 	-0.208103 	0 -0.254136 	-0.207953 	0 -0.254538 	-0.207803 	0 -0.254937 	-0.207654 	0 -0.255333 	-0.207512 	0 -0.255729 	-0.20737 	0 -0.256124 	-0.207226 	0 -0.256517 	-0.207077 	0 -0.256906 	-0.206929 	0 -0.257292 	-0.206789 	0 -0.257679 	-0.206648 	0 -0.258064 	-0.206508 	0 -0.25845 	-0.206367 	0 -0.258831 	-0.206224 	0 -0.25893 	-0.206187 	0 -0.259029 	-0.20615 	0 -0.259128 	-0.206114 	0 -0.259228 	-0.206077 	0 -0.259328 	-0.20604 	0 -0.25961 	-0.205938 	0 -0.259893 	-0.205835 	0 -0.260176 	-0.205732 	0 -0.260459 	-0.20563 	0 -0.26074 	-0.205528 	0 -0.261118 	-0.205397 	0 -0.261494 	-0.205261 	0 -0.26187 	-0.205123 	0 -0.262245 	-0.204984 	0 -0.262617 	-0.204847 	0 -0.262986 	-0.204717 	0 -0.263354 	-0.204587 	0 -0.263723 	-0.204457 	0 -0.264089 	-0.20432 	0 -0.264452 	-0.204184 	0 -0.264812 	-0.204055 	0 -0.265171 	-0.203926 	0 -0.265531 	-0.203797 	0 -0.26589 	-0.203668 	0 -0.266246 	-0.203538 	0 -0.266298 	-0.203518 	0 -0.266352 	-0.203499 	0 -0.266405 	-0.203479 	0 -0.266459 	-0.20346 	0 -0.266513 	-0.20344 	0 -0.266817 	-0.203332 	0 -0.267121 	-0.203224 	0 -0.267425 	-0.203116 	0 -0.267728 	-0.203007 	0 -0.268031 	-0.2029 	0 -0.268383 	-0.202781 	0 -0.268734 	-0.202657 	0 -0.269084 	-0.20253 	0 -0.269434 	-0.202403 	0 -0.269782 	-0.202277 	0 -0.270125 	-0.202159 	0 -0.270469 	-0.202041 	0 -0.270812 	-0.201922 	0 -0.271153 	-0.201796 	0 -0.271493 	-0.201671 	0 -0.271828 	-0.201554 	0 -0.272163 	-0.201437 	0 -0.272498 	-0.201319 	0 -0.272832 	-0.201202 	0 -0.273164 	-0.201082 	0 -0.273272 	-0.201043 	0 -0.273381 	-0.201004 	0 -0.27349 	-0.200965 	0 -0.273599 	-0.200927 	0 -0.273709 	-0.200888 	0 -0.273931 	-0.200811 	0 -0.274155 	-0.200734 	0 -0.274378 	-0.200657 	0 -0.2746 	-0.200579 	0 -0.274823 	-0.200503 	0 -0.275152 	-0.200396 	0 -0.275479 	-0.200282 	0 -0.275806 	-0.200167 	0 -0.276132 	-0.200052 	0 -0.276457 	-0.199938 	0 -0.276777 	-0.199833 	0 -0.277098 	-0.199728 	0 -0.277418 	-0.199618 	0 -0.277736 	-0.199504 	0 -0.278053 	-0.199391 	0 -0.278365 	-0.199287 	0 -0.278678 	-0.199183 	0 -0.278991 	-0.199079 	0 -0.279302 	-0.198974 	0 -0.279612 	-0.198862 	0 -0.279865 	-0.198777 	0 -0.280118 	-0.198691 	0 -0.280372 	-0.198606 	0 -0.280625 	-0.19852 	0 -0.280881 	-0.198434 	0 -0.280932 	-0.198417 	0 -0.280984 	-0.1984 	0 -0.281035 	-0.198383 	0 -0.281087 	-0.198367 	0 -0.281139 	-0.19835 	0 -0.281445 	-0.198252 	0 -0.281751 	-0.198152 	0 -0.282056 	-0.198052 	0 -0.282361 	-0.197951 	0 -0.282665 	-0.197852 	0 -0.282964 	-0.197762 	0 -0.283263 	-0.197669 	0 -0.283561 	-0.197571 	0 -0.283858 	-0.197473 	0 -0.284155 	-0.197376 	0 -0.284446 	-0.197289 	0 -0.284738 	-0.197202 	0 -0.28503 	-0.197114 	0 -0.285319 	-0.197018 	0 -0.285609 	-0.196923 	0 -0.285892 	-0.196839 	0 -0.286177 	-0.196755 	0 -0.286461 	-0.196671 	0 -0.286744 	-0.196587 	0 -0.287026 	-0.196496 	0 -0.287216 	-0.196441 	0 -0.287406 	-0.196385 	0 -0.287596 	-0.19633 	0 -0.287786 	-0.196275 	0 -0.287978 	-0.19622 	0 -0.288066 	-0.196195 	0 -0.288155 	-0.19617 	0 -0.288243 	-0.196145 	0 -0.288332 	-0.19612 	0 -0.288422 	-0.196096 	0 -0.2887 	-0.196024 	0 -0.288979 	-0.195949 	0 -0.289257 	-0.195874 	0 -0.289535 	-0.195799 	0 -0.289812 	-0.195725 	0 -0.290084 	-0.195664 	0 -0.290356 	-0.1956 	0 -0.290627 	-0.19553 	0 -0.290897 	-0.195461 	0 -0.291168 	-0.195391 	0 -0.291432 	-0.195337 	0 -0.291697 	-0.195283 	0 -0.291962 	-0.195227 	0 -0.292226 	-0.195164 	0 -0.292489 	-0.195101 	0 -0.292746 	-0.195055 	0 -0.293004 	-0.195009 	0 -0.293262 	-0.194963 	0 -0.293519 	-0.194916 	0 -0.293776 	-0.194861 	0 -0.294005 	-0.194827 	0 -0.294235 	-0.194793 	0 -0.294465 	-0.19476 	0 -0.294695 	-0.194726 	0 -0.294927 	-0.194692 	0 -0.294948 	-0.194689 	0 -0.294969 	-0.194686 	0 -0.294989 	-0.194683 	0 -0.29501 	-0.19468 	0 -0.295032 	-0.194678 	0 -0.295284 	-0.194655 	0 -0.295537 	-0.194632 	0 -0.29579 	-0.194608 	0 -0.296042 	-0.194585 	0 -0.296295 	-0.194562 	0 -0.29654 	-0.194562 	0 -0.296786 	-0.194554 	0 -0.297032 	-0.194544 	0 -0.297278 	-0.194534 	0 -0.297524 	-0.194525 	0 -0.297762 	-0.194541 	0 -0.298002 	-0.194558 	0 -0.298241 	-0.194568 	0 -0.29848 	-0.194574 	0 -0.298719 	-0.19458 	0 -0.298951 	-0.194616 	0 -0.299184 	-0.194652 	0 -0.299417 	-0.194688 	0 -0.29965 	-0.194717 	0 -0.299883 	-0.194743 	0 -0.300108 	-0.194801 	0 -0.300334 	-0.19486 	0 -0.300561 	-0.194918 	0 -0.300787 	-0.194977 	0 -0.301014 	-0.19503 	0 -0.30113 	-0.195074 	0 -0.301247 	-0.19512 	0 -0.301365 	-0.195165 	0 -0.301482 	-0.195211 	0 -0.301601 	-0.195257 	0 -0.301706 	-0.195297 	0 -0.301813 	-0.195339 	0 -0.30192 	-0.19538 	0 -0.302026 	-0.195421 	0 -0.302134 	-0.195464 	0 -0.302355 	-0.195589 	0 -0.302578 	-0.195708 	0 -0.302801 	-0.195828 	0 -0.303024 	-0.195947 	0 -0.303247 	-0.196068 	0 -0.303462 	-0.196236 	0 -0.303678 	-0.196398 	0 -0.303895 	-0.196553 	0 -0.304111 	-0.196708 	0 -0.304329 	-0.196864 	0 -0.304537 	-0.197073 	0 -0.304747 	-0.197284 	0 -0.304957 	-0.197488 	0 -0.305167 	-0.197684 	0 -0.305379 	-0.197881 	0 -0.305581 	-0.198137 	0 -0.305785 	-0.198395 	0 -0.305988 	-0.198653 	0 -0.306192 	-0.198904 	0 -0.306398 	-0.199148 	0 -0.306594 	-0.199458 	0 -0.306791 	-0.199769 	0 -0.306988 	-0.200081 	0 -0.307185 	-0.200392 	0 -0.307385 	-0.200699 	0 -0.307471 	-0.200867 	0 -0.307558 	-0.201037 	0 -0.307646 	-0.201207 	0 -0.307733 	-0.201377 	0 -0.307821 	-0.201549 	0 -0.307929 	-0.201752 	0 -0.308038 	-0.201957 	0 -0.308147 	-0.202162 	0 -0.308257 	-0.202367 	0 -0.308368 	-0.202575 	0 -0.308559 	-0.203029 	0 -0.308753 	-0.203474 	0 -0.308948 	-0.203919 	0 -0.309143 	-0.204365 	0 -0.30934 	-0.204815 	0 -0.309525 	-0.205355 	0 -0.309712 	-0.205888 	0 -0.309901 	-0.20641 	0 -0.31009 	-0.206932 	0 -0.310282 	-0.207459 	0 -0.310461 	-0.208085 	0 -0.310641 	-0.208715 	0 -0.310823 	-0.209333 	0 -0.311006 	-0.209939 	0 -0.311193 	-0.210552 	0 -0.311366 	-0.211274 	0 -0.31154 	-0.211998 	0 -0.311715 	-0.212722 	0 -0.311892 	-0.213434 	0 -0.312074 	-0.214143 	0 -0.31224 	-0.214968 	0 -0.312409 	-0.215796 	0 -0.312578 	-0.216624 	0 -0.312748 	-0.217451 	0 -0.312924 	-0.218279 	0 -0.312994 	-0.218691 	0 -0.313066 	-0.219107 	0 -0.313138 	-0.219523 	0 -0.31321 	-0.219939 	0 -0.313283 	-0.220355 	0 -0.313379 	-0.220883 	0 -0.313477 	-0.221416 	0 -0.313576 	-0.221949 	0 -0.313674 	-0.222481 	0 -0.313775 	-0.223021 	0 -0.313938 	-0.224111 	0 -0.314106 	-0.225185 	0 -0.314275 	-0.226259 	0 -0.314445 	-0.227331 	0 -0.314619 	-0.228422 	0 -0.314775 	-0.229661 	0 -0.314934 	-0.230891 	0 -0.315098 	-0.232097 	0 -0.315263 	-0.233302 	0 -0.315434 	-0.23453 	0 -0.315583 	-0.235914 	0 -0.315736 	-0.237302 	0 -0.315891 	-0.238675 	0 -0.316052 	-0.240022 	0 -0.316218 	-0.241397 	0 -0.316362 	-0.242936 	0 -0.31651 	-0.244477 	0 -0.316658 	-0.246016 	0 -0.31681 	-0.247544 	0 -0.316972 	-0.249076 	0 -0.317111 	-0.250777 	0 -0.317253 	-0.252481 	0 -0.317397 	-0.254182 	0 -0.317542 	-0.255879 	0 -0.317694 	-0.257617 	0 -0.317703 	-0.257751 	0 -0.317713 	-0.257893 	0 -0.317724 	-0.258035 	0 -0.317734 	-0.258177 	0 -0.317745 	-0.258319 	0 -0.317879 	-0.260068 	0 -0.318016 	-0.26182 	0 -0.318155 	-0.263568 	0 -0.318296 	-0.265313 	0 -0.318443 	-0.267106 	0 -0.318574 	-0.269228 	0 -0.318716 	-0.271304 	0 -0.318861 	-0.273372 	0 -0.319008 	-0.275434 	0 -0.319162 	-0.277562 	0 -0.319288 	-0.279874 	0 -0.319417 	-0.282188 	0 -0.319554 	-0.284457 	0 -0.319696 	-0.286704 	0 -0.319847 	-0.289028 	0 -0.319966 	-0.291536 	0 -0.32009 	-0.294044 	0 -0.320215 	-0.296545 	0 -0.320347 	-0.299016 	0 -0.320494 	-0.301543 	0 -0.320607 	-0.304252 	0 -0.320725 	-0.30696 	0 -0.320845 	-0.309659 	0 -0.320968 	-0.312349 	0 -0.3211 	-0.315144 	0 -0.321103 	-0.315256 	0 -0.321108 	-0.315376 	0 -0.321113 	-0.315495 	0 -0.321117 	-0.315615 	0 -0.321122 	-0.315734 	0 -0.321237 	-0.318561 	0 -0.321356 	-0.321387 	0 -0.321477 	-0.324203 	0 -0.321601 	-0.32701 	0 -0.321734 	-0.329935 	0 -0.321835 	-0.333163 	0 -0.321947 	-0.336343 	0 -0.322068 	-0.339483 	0 -0.322191 	-0.342612 	0 -0.322325 	-0.345888 	0 -0.322418 	-0.349332 	0 -0.322516 	-0.35277 	0 -0.322