/*--------------------------------*- C++ -*----------------------------------*\
  =========                 |
  \\      /  F ield         | OpenFOAM: The Open Source CFD Toolbox
   \\    /   O peration     | Website:  https://openfoam.org
    \\  /    A nd           | Version:  6
     \\/     M anipulation  |
\*---------------------------------------------------------------------------*/
FoamFile
{
    version     2.0;
    format      ascii;
    class       volScalarField;
    location    "11";
    object      epsilon;
}
// * * * * * * * * * * * * * * * * * * * * * * * * * * * * * * * * * * * * * //

dimensions      [0 2 -3 0 0 0 0];

internalField   nonuniform List<scalar> 
130000
(
16.0721
15.9543
15.7739
15.541
15.2643
14.9559
14.6295
14.2987
13.9764
13.673
13.3967
13.1525
12.9432
12.769
12.6288
12.5201
12.4397
12.3842
12.3504
12.3352
16.0976
15.9825
15.8032
15.5698
15.2915
14.981
14.652
14.3187
13.994
13.6887
13.4106
13.1651
12.9548
12.7801
12.6397
12.5311
12.4511
12.3962
12.363
12.3484
16.1175
16.0044
15.826
15.5924
15.3128
15.0001
14.6685
14.3324
14.0051
13.6973
13.4169
13.1698
12.9583
12.7829
12.6421
12.5335
12.4538
12.3994
12.3667
12.3525
16.1317
16.0197
15.8414
15.6067
15.3252
15.01
14.6757
14.3374
14.0082
13.6988
13.4172
13.1691
12.957
12.781
12.64
12.5313
12.452
12.3978
12.3654
12.3514
16.1407
16.0284
15.8491
15.6123
15.3287
15.0116
14.6756
14.3361
14.006
13.6961
13.4145
13.1664
12.9542
12.7785
12.6376
12.5292
12.45
12.3965
12.3646
12.351
16.1459
16.0323
15.8507
15.6118
15.3266
15.0083
14.6717
14.3316
14.0011
13.6911
13.4097
13.1619
12.9502
12.775
12.6347
12.5269
12.4483
12.3955
12.364
12.3507
16.149
16.0333
15.8494
15.6089
15.3222
15.0028
14.6654
14.3248
13.9942
13.6844
13.4034
13.1561
12.9452
12.7706
12.631
12.5237
12.4455
12.3927
12.3616
12.3489
16.1511
16.033
15.8472
15.6049
15.3165
14.9958
14.6576
14.3166
13.986
13.6765
13.396
13.1496
12.9395
12.7658
12.6271
12.5206
12.4432
12.3914
12.3614
12.3492
16.1534
16.0332
15.845
15.6005
15.3104
14.9882
14.6491
14.3077
13.9771
13.668
13.3883
13.1427
12.9336
12.7609
12.6232
12.5178
12.4416
12.3909
12.3614
12.3493
16.156
16.0335
15.8429
15.5962
15.3042
14.9806
14.6405
14.2987
13.9681
13.6595
13.3804
13.1358
12.9277
12.7561
12.6194
12.515
12.4398
12.3899
12.3607
12.3488
16.1592
16.0341
15.8414
15.5925
15.2985
14.9733
14.6322
14.2899
13.9593
13.6511
13.3727
13.129
12.9219
12.7514
12.6158
12.5122
12.4373
12.3878
12.3592
12.3477
16.1633
16.036
15.8411
15.5896
15.2934
14.9666
14.6244
14.2815
13.9509
13.643
13.3654
13.1226
12.9165
12.7471
12.6124
12.5096
12.4352
12.3854
12.3571
12.3457
16.1681
16.0385
15.8413
15.5875
15.2891
14.9605
14.6171
14.2736
13.9429
13.6354
13.3584
13.1165
12.9115
12.7431
12.6095
12.508
12.4345
12.385
12.3569
12.3464
16.1738
16.0417
15.8419
15.5864
15.2856
14.9552
14.6105
14.2663
13.9355
13.6282
13.3518
13.1108
12.9068
12.7395
12.607
12.5066
12.4343
12.3855
12.3579
12.3476
16.1801
16.0458
15.8435
15.5855
15.2826
14.9505
14.6046
14.2597
13.9286
13.6215
13.3457
13.1055
12.9025
12.7362
12.6046
12.5048
12.4335
12.3852
12.3573
12.3471
16.1871
16.0507
15.8458
15.5851
15.2805
14.9467
14.5994
14.2537
13.9223
13.6153
13.3401
13.1006
12.8985
12.7333
12.6028
12.5038
12.4321
12.3838
12.3558
12.3459
16.1949
16.0565
15.8493
15.5863
15.2799
14.944
14.5952
14.2484
13.9166
13.6097
13.3348
13.0961
12.8949
12.7306
12.6012
12.5034
12.4318
12.3841
12.3568
12.3465
16.2042
16.0637
15.854
15.5885
15.2798
14.942
14.5916
14.2438
13.9115
13.6045
13.3299
13.0917
12.8913
12.7278
12.5993
12.5025
12.4326
12.3864
12.3602
12.3506
16.215
16.0723
15.8599
15.5916
15.2802
14.941
14.589
14.24
13.9069
13.5998
13.3254
13.0876
12.8877
12.7249
12.597
12.5008
12.4321
12.3872
12.3615
12.3523
16.2272
16.0823
15.8672
15.596
15.282
14.9407
14.5869
14.2368
13.903
13.5956
13.3212
13.0838
12.8844
12.7222
12.595
12.4996
12.4316
12.3866
12.3611
12.352
16.2405
16.0934
15.8756
15.6016
15.2848
14.9409
14.5861
14.2346
13.8999
13.592
13.3176
13.0803
12.8814
12.7197
12.5929
12.4975
12.4299
12.3853
12.3605
12.3522
16.2551
16.1058
15.8853
15.6084
15.2888
14.9427
14.5864
14.2335
13.8975
13.589
13.3144
13.0774
12.8788
12.7176
12.5913
12.4964
12.4287
12.3844
12.36
12.3516
16.2711
16.1196
15.8962
15.6163
15.2938
14.9451
14.5866
14.2327
13.8956
13.5864
13.3117
13.0748
12.8767
12.7161
12.5905
12.4961
12.4283
12.384
12.3597
12.3507
16.2882
16.1345
15.9083
15.6252
15.2997
14.9482
14.5872
14.2321
13.894
13.5843
13.3094
13.0727
12.8751
12.7152
12.5901
12.4954
12.4272
12.3831
12.3594
12.351
16.3066
16.1507
15.9216
15.6353
15.3066
14.9522
14.5888
14.2318
13.8931
13.5827
13.3075
13.0709
12.8737
12.7145
12.5901
12.4955
12.4285
12.3852
12.3619
12.3546
16.3264
16.1683
15.9362
15.6466
15.3146
14.9572
14.5911
14.232
13.8924
13.5814
13.306
13.0695
12.8724
12.7136
12.5904
12.4974
12.4316
12.3892
12.3664
12.3593
16.3478
16.1874
15.9522
15.6591
15.3237
14.9631
14.5945
14.2332
13.8922
13.581
13.3054
13.0687
12.8715
12.7127
12.5897
12.4976
12.4329
12.3908
12.3681
12.3606
16.3706
16.2078
15.9694
15.6728
15.3338
14.97
14.5987
14.2353
13.8928
13.5807
13.3046
13.0676
12.8702
12.7115
12.5879
12.496
12.4319
12.3896
12.3669
12.3598
16.3947
16.2295
15.9878
15.6876
15.345
14.9778
14.6035
14.2378
13.8935
13.5801
13.3035
13.0662
12.8691
12.7107
12.587
12.4951
12.431
12.3884
12.3659
12.3598
16.4199
16.2525
16.0075
15.7035
15.3571
14.9864
14.6091
14.2409
13.8948
13.5802
13.303
13.0652
12.868
12.7095
12.5859
12.4943
12.4305
12.3892
12.3674
12.361
16.4465
16.2769
16.0286
15.7207
15.3704
14.9961
14.6156
14.2448
13.8966
13.5805
13.3022
13.0643
12.8669
12.7081
12.5849
12.4933
12.4296
12.3892
12.3679
12.3617
16.4746
16.3027
16.0511
15.7393
15.385
15.0069
14.6231
14.2495
13.8993
13.5818
13.3028
13.0644
12.8664
12.7074
12.5841
12.4925
12.4287
12.3877
12.3663
12.36
16.5042
16.3302
16.0751
15.7594
15.401
15.0189
14.6316
14.2551
13.9026
13.5834
13.3035
13.0646
12.8662
12.707
12.5838
12.4925
12.4288
12.3885
12.3668
12.3604
16.5356
16.3594
16.101
15.7811
15.4184
15.0323
14.6413
14.2617
13.9067
13.5855
13.304
13.0647
12.8665
12.7077
12.5848
12.4937
12.4301
12.3899
12.3683
12.3619
16.5689
16.3907
16.1288
15.8047
15.4376
15.0472
14.6524
14.2696
13.9119
13.5887
13.3056
13.0651
12.8669
12.7081
12.5851
12.4939
12.4301
12.3896
12.3685
12.3624
16.6044
16.4241
16.1587
15.8302
15.4585
15.0636
14.6649
14.2787
13.9183
13.593
13.3084
13.0668
12.8678
12.7087
12.5857
12.4944
12.4306
12.3903
12.3693
12.3635
16.6421
16.4599
16.1909
15.8579
15.4814
15.0819
14.6789
14.2892
13.9259
13.5984
13.3123
13.0698
12.8703
12.7114
12.5886
12.4972
12.4335
12.3935
12.3729
12.3674
16.6824
16.4983
16.2256
15.888
15.5065
15.1021
14.6947
14.3011
13.9347
13.6048
13.3169
13.0731
12.8728
12.7135
12.5905
12.4996
12.4367
12.3973
12.3772
12.3721
16.7255
16.5396
16.2632
15.9208
15.5341
15.1246
14.7125
14.3148
13.945
13.6124
13.3224
13.077
12.8755
12.7151
12.5919
12.5013
12.4386
12.3992
12.3791
12.3738
16.7717
16.5841
16.3039
15.9566
15.5644
15.1496
14.7325
14.3306
13.9572
13.6216
13.3293
13.0822
12.8794
12.7181
12.5942
12.5031
12.4399
12.4
12.3794
12.3737
16.8213
16.6321
16.3481
15.9957
15.5979
15.1775
14.7552
14.3487
13.9715
13.633
13.3383
13.0893
12.8852
12.7228
12.5982
12.5065
12.4428
12.4025
12.3815
12.3754
16.8747
16.684
16.3962
16.0385
15.6348
15.2085
14.7809
14.3696
13.9884
13.6466
13.3495
13.0987
12.8931
12.7298
12.6043
12.512
12.4477
12.407
12.3856
12.379
16.9324
16.7403
16.4484
16.0853
15.6755
15.243
14.8096
14.3933
14.008
13.6628
13.3631
13.1103
12.9034
12.739
12.6129
12.52
12.4553
12.4142
12.3924
12.3853
16.9942
16.8009
16.5051
16.1363
15.7201
15.2812
14.8418
14.4202
14.0303
13.6816
13.3791
13.1243
12.9158
12.7505
12.6236
12.5302
12.4651
12.4236
12.4013
12.3938
17.0607
16.8664
16.5666
16.192
15.7692
15.3235
14.8777
14.4504
14.0558
13.7032
13.3977
13.1406
12.9306
12.764
12.6364
12.5424
12.4768
12.4348
12.4121
12.4041
17.1323
16.9373
16.6335
16.2529
15.823
15.3702
14.9176
14.4843
14.0846
13.7279
13.4191
13.1596
12.9477
12.7799
12.6513
12.5566
12.4905
12.448
12.4247
12.4162
17.2097
17.0142
16.7064
16.3195
15.8823
15.4219
14.9621
14.5224
14.1172
13.7559
13.4436
13.1813
12.9675
12.7982
12.6686
12.5731
12.5063
12.4632
12.4393
12.43
17.2934
17.0978
16.7859
16.3925
15.9475
15.4791
15.0117
14.565
14.1539
13.7877
13.4715
13.2063
12.9902
12.8193
12.6885
12.5921
12.5245
12.4806
12.456
12.446
17.3843
17.1889
16.8729
16.4726
16.0195
15.5426
15.0669
14.6129
14.1953
13.8239
13.5035
13.235
13.0164
12.8436
12.7114
12.6139
12.5455
12.5008
12.4753
12.4644
17.4835
17.2885
16.9682
16.5609
16.0991
15.613
15.1286
14.6666
14.2421
13.8649
13.5399
13.2678
13.0464
12.8716
12.7378
12.6391
12.5696
12.524
12.4975
12.4856
17.5927
17.3978
17.073
16.658
16.187
15.6912
15.1974
14.7268
14.2949
13.9115
13.5814
13.3053
13.0809
12.9038
12.7683
12.6682
12.5975
12.5507
12.523
12.5099
17.7106
17.517
17.1879
16.7651
16.2843
15.7782
15.2743
14.7944
14.3545
13.9643
13.6287
13.3483
13.1206
12.9409
12.8033
12.7016
12.6295
12.5814
12.5523
12.5378
17.839
17.6474
17.3141
16.8831
16.3921
15.8749
15.3602
14.8705
14.4218
14.0243
13.6827
13.3976
13.1662
12.9836
12.8438
12.7403
12.6665
12.6168
12.586
12.5697
17.9794
17.7905
17.4531
17.0136
16.5117
15.9828
15.4566
14.9562
14.4981
14.0927
13.7446
13.4542
13.2187
13.033
12.8906
12.785
12.7095
12.658
12.6253
12.6069
18.133
17.9477
17.6064
17.1581
16.6448
16.1033
15.5647
15.0529
14.5847
14.1706
13.8154
13.5194
13.2794
13.0901
12.945
12.837
12.7594
12.7059
12.671
12.6504
18.3017
18.121
17.776
17.3186
16.7932
16.2384
15.6866
15.1623
14.6832
14.2597
13.8968
13.5945
13.3496
13.1564
13.0081
12.8975
12.8175
12.7617
12.7244
12.7012
18.4874
18.3125
17.9642
17.4974
16.9592
16.3903
15.8241
15.2866
14.7956
14.362
13.9906
13.6815
13.431
13.2335
13.0817
12.9681
12.8855
12.827
12.7869
12.7606
18.6925
18.5249
18.1736
17.6973
17.1456
16.5615
15.9801
15.4282
14.9243
14.4797
14.0991
13.7824
13.526
13.3236
13.1679
13.0509
12.9652
12.9037
12.8604
12.8306
18.9195
18.761
18.4076
17.9214
17.3555
16.7553
16.1575
15.5901
15.0723
14.6157
14.225
13.9002
13.6371
13.4293
13.2692
13.1484
13.0591
12.9941
12.9471
12.9132
19.1716
19.0245
18.6697
18.1736
17.5929
16.9755
16.3602
15.7761
15.2433
14.7735
14.3719
14.038
13.7676
13.5539
13.3887
13.2636
13.1703
13.1012
13.0499
13.0111
19.4526
19.3196
18.9646
18.4587
17.8625
17.227
16.5929
15.9908
15.4416
14.9577
14.5441
14.2003
13.9217
13.7014
13.5306
13.4005
13.3025
13.2286
13.1721
13.1276
19.7668
19.6514
19.2979
18.7825
18.1703
17.5155
16.8613
16.2399
15.6732
15.1738
14.7471
14.3924
14.1048
13.877
13.6998
13.564
13.4605
13.381
13.3184
13.2669
20.1198
20.0263
19.6763
19.1521
18.5235
17.8486
17.173
16.5309
15.9451
15.429
14.988
14.6213
14.3237
14.0875
13.903
13.7606
13.6506
13.5643
13.4942
13.4343
20.518
20.4518
20.1084
19.5764
18.9315
18.2355
17.5374
16.8731
16.2668
15.7326
15.2759
14.896
14.5874
14.3416
14.1489
13.9986
13.8808
13.7864
13.7072
13.6369
20.9695
20.9376
20.6047
20.0668
19.4058
18.6883
17.9665
17.2788
16.6506
16.0968
15.6231
15.2287
14.9077
14.6512
14.4487
14.2892
14.1621
14.0575
13.9671
13.8838
21.4845
21.4954
21.1785
20.6377
19.9618
19.2227
18.4766
17.7641
17.1127
16.5379
16.0458
15.6355
15.3006
15.0319
14.818
14.6475
14.5088
14.3917
14.287
14.1874
22.0766
22.1391
21.8469
21.3078
20.6193
19.8595
19.0888
18.3509
17.6752
17.0781
16.5662
16.1384
15.7881
15.5053
15.278
15.0939
14.9408
14.8078
14.685
14.5645
22.763
22.8913
22.6335
22.1025
21.4051
20.6265
19.832
19.0688
18.3681
17.7479
17.215
16.7683
16.4007
16.1015
15.8582
15.6573
15.486
15.3324
15.186
15.0381
23.5641
23.7774
23.5685
23.055
22.3551
21.5616
20.7456
19.9582
19.2332
18.5896
18.0349
17.5679
17.1811
16.8631
16.6002
16.3782
16.1833
16.0027
15.825
15.6407
24.5077
24.8318
24.6918
24.2102
23.5176
22.7163
21.8838
21.0756
20.3283
19.6624
19.0861
18.5981
18.1902
17.8502
17.5635
17.3147
17.0888
16.8721
16.6522
16.4187
25.6298
26.0996
26.0569
25.6281
24.9585
24.1612
23.3211
22.4989
21.7343
21.0496
20.4537
19.9449
19.5145
19.1492
18.8332
18.5499
18.283
18.0175
17.7399
17.4389
26.9788
27.6416
27.7347
27.3895
26.7671
25.9926
25.16
24.3359
23.5635
22.8673
22.2565
21.7294
21.2762
20.8825
20.5308
20.2031
19.8815
19.5497
19.1929
18.7983
28.6184
29.5416
29.8124
29.6022
29.0635
28.3409
27.5396
26.7333
25.9695
25.2748
24.6589
24.1195
23.6458
23.2214
22.8271
22.4428
22.049
21.6273
21.1613
20.6368
30.6324
31.9243
32.4404
32.4176
32.0099
31.38
30.6452
29.8868
29.1574
28.4854
27.8813
27.3417
26.8539
26.3994
25.9563
25.5021
25.0144
24.4726
23.8579
23.1538
33.1345
34.9219
35.7747
36.0183
35.8112
35.3329
34.7148
34.0481
33.3908
32.774
32.2083
31.6889
31.2007
30.7219
30.2272
29.6903
29.0851
28.3874
27.5745
26.6266
36.2667
38.7224
40.0401
40.6249
40.7254
40.4781
40.0438
39.5271
38.9931
38.476
37.9867
37.5186
37.0534
36.565
36.0232
35.3962
34.6524
33.7616
32.6947
31.4256
40.2143
43.5604
45.5471
46.5903
47.0797
47.1513
46.9809
46.6851
46.3371
45.9752
45.6111
45.2366
44.8295
44.3582
43.786
43.0736
42.1804
41.0665
39.692
38.0188
45.2179
49.7173
52.5827
54.2541
55.1981
55.7187
55.9098
55.9162
55.8238
55.6787
55.4955
55.2654
54.9625
54.5491
53.9802
53.206
52.1731
50.8259
49.1066
46.9567
51.5674
57.548
61.541
64.0654
65.6036
66.5847
67.2437
67.6307
67.8591
67.9884
68.0407
68.0088
67.864
67.5623
67.0491
66.2611
65.1272
63.5692
61.5017
58.8333
59.6019
67.4444
72.8279
76.3956
78.7516
80.3039
81.3913
82.2362
82.8315
83.2776
83.6094
83.8268
83.8968
83.7698
83.3825
82.6548
81.4927
79.7876
77.4158
74.237
69.7076
79.8293
86.8874
91.6828
94.9614
97.2551
98.9033
100.137
101.1
101.877
102.511
103.027
103.367
103.48
103.303
102.737
101.656
99.9122
97.3335
93.7141
82.3066
95.1439
104.152
110.34
114.628
117.663
119.889
121.589
122.956
124.108
125.098
125.93
126.558
126.936
127.049
126.781
125.932
124.308
121.678
117.755
97.8465
113.839
125.062
132.791
138.165
141.969
144.745
146.874
148.609
150.109
151.452
152.656
153.697
154.508
154.959
154.989
154.542
153.255
150.797
146.788
116.773
136.344
150.015
159.389
165.865
170.406
173.68
176.156
178.162
179.92
181.558
183.132
184.626
185.962
187.007
187.567
187.541
186.84
184.884
181.115
139.51
163.042
179.339
190.385
197.878
202.994
206.557
209.162
211.235
213.084
214.906
216.806
218.794
220.797
222.656
224.139
224.928
224.877
223.797
220.768
166.434
194.239
213.243
225.854
234.121
239.469
242.925
245.247
246.995
248.591
250.33
252.39
254.825
257.582
260.488
263.274
265.555
266.851
266.856
265.196
197.857
230.124
251.735
265.574
274.092
279.029
281.678
283.004
283.736
284.457
285.598
287.452
290.144
293.657
297.824
302.349
306.779
310.523
312.804
313.021
234
270.699
294.51
308.843
316.627
320.018
320.716
319.929
318.541
317.368
317.047
318.053
320.594
324.706
330.256
336.952
344.304
351.597
357.872
361.939
274.99
315.722
340.821
354.294
359.765
360.07
357.08
352.275
347.107
342.564
339.492
338.663
340.337
344.669
351.539
360.688
371.772
383.884
395.853
406.347
320.861
364.611
389.225
399.595
400.497
394.974
385.549
374.184
362.564
352.563
345.484
342.475
342.804
346.785
354.412
365.165
380.184
398.51
418.703
438.416
371.613
416.337
437.33
441.4
433.866
418.513
398.841
379.221
361.133
345.918
334.34
326.607
324.187
326.966
335.362
349.797
368.619
392.125
419.617
449.385
427.413
469.052
481.831
474.29
452.415
423.556
392.411
361.643
334.116
311.231
293.85
282.4
277.158
278.187
285.641
300.297
322.605
352.831
390.954
436.11
488.547
520.381
517.785
489.483
448.747
401.992
355.613
313.351
277.501
248.931
227.718
213.622
206.382
205.812
211.755
225.632
248.833
283.287
330.881
392.449
556.192
567.651
534.962
478.533
410.513
343.441
283.85
234.577
195.993
167.271
147.052
134.013
127.222
126.194
130.652
142.397
163.874
198.895
252.897
331.893
632.54
600.513
520.883
421.438
326.052
245.679
183.926
139.348
108.207
87.4936
74.3968
66.6874
63.0563
62.9997
66.7453
76.4116
95.1362
128.408
185.669
287.053
710.298
592.912
441.586
303.736
199.051
127.528
84.461
60.0327
46.6445
39.5168
35.4098
33.1789
32.5414
33.5634
36.845
43.7983
57.502
85.7594
147.371
286.608
715.346
475.325
271.06
142.621
77.028
48.1255
34.8432
28.0643
24.3492
22.2596
21.1331
20.6743
20.8159
21.7627
24.1356
29.3466
40.7094
68.3717
146.839
389.958
493.478
211.255
93.6475
50.1666
32.3562
24.3015
20.4092
18.4383
17.3899
16.8269
16.5651
16.5295
16.7386
17.297
18.5691
21.6046
29.9347
55.1013
149.108
535.284
196.4
79.9602
39.3769
24.709
19.2911
17.1048
16.1205
15.6304
15.3705
15.2344
15.1805
15.1848
15.2666
15.4785
16.0139
17.3298
20.9196
34.4955
105.231
549.86
98.5141
31.2973
18.1906
15.9866
15.4084
15.1437
14.9974
14.9197
14.8827
14.868
14.8688
14.8801
14.9028
14.9324
14.9782
15.1262
15.8721
18.8795
30.5147
85.4615
12.6148
12.5822
12.5395
12.4949
12.4497
12.4056
12.3642
12.3276
12.297
12.2734
12.2575
12.2498
12.2508
12.2596
12.2746
12.2946
12.3184
12.3452
12.3746
12.4065
12.6352
12.6013
12.5574
12.5113
12.4641
12.4177
12.3752
12.3378
12.3069
12.2831
12.2673
12.2597
12.2605
12.2689
12.2839
12.3033
12.3267
12.3534
12.3829
12.4148
12.6459
12.6091
12.5643
12.5172
12.4684
12.4214
12.3787
12.3414
12.3104
12.2869
12.2717
12.2653
12.2658
12.2734
12.2876
12.3061
12.3293
12.3556
12.386
12.4182
12.6495
12.6104
12.5648
12.5175
12.4694
12.4242
12.3825
12.3457
12.3151
12.2916
12.2761
12.2685
12.2681
12.2758
12.2894
12.3076
12.3315
12.3581
12.3887
12.4198
12.6495
12.6112
12.5652
12.5185
12.4723
12.4283
12.388
12.3515
12.3205
12.2961
12.2792
12.2687
12.2671
12.2747
12.2882
12.3066
12.3305
12.3576
12.3879
12.4191
12.6515
12.6156
12.5707
12.5243
12.4778
12.4328
12.391
12.3532
12.3214
12.2966
12.2794
12.2693
12.2684
12.2753
12.2887
12.3066
12.3285
12.355
12.3862
12.4192
12.6563
12.6208
12.5757
12.5286
12.4805
12.4343
12.3911
12.3527
12.3206
12.2959
12.2792
12.2703
12.2697
12.2769
12.2899
12.307
12.3295
12.3546
12.3841
12.4173
12.6582
12.6221
12.5766
12.5291
12.4806
12.4347
12.3924
12.3531
12.3206
12.2958
12.2791
12.2706
12.2688
12.2755
12.289
12.3073
12.3297
12.3559
12.3855
12.4175
12.6571
12.6205
12.5749
12.5279
12.4808
12.4351
12.3921
12.3528
12.3206
12.2959
12.2791
12.2705
12.2683
12.2733
12.2874
12.3066
12.3298
12.3567
12.3862
12.4179
12.6564
12.6186
12.5733
12.5263
12.4791
12.4328
12.3898
12.352
12.3202
12.2954
12.2783
12.269
12.2671
12.2734
12.2869
12.3066
12.3301
12.3571
12.3874
12.42
12.6553
12.6173
12.5713
12.5236
12.4759
12.429
12.3867
12.3502
12.319
12.2942
12.2769
12.2676
12.2663
12.2726
12.2858
12.3043
12.3282
12.3574
12.3884
12.4217
12.6541
12.6165
12.5685
12.5206
12.4737
12.4296
12.3884
12.3521
12.3205
12.2953
12.277
12.2669
12.2645
12.2721
12.2859
12.3044
12.328
12.3566
12.3875
12.4205
12.6556
12.6173
12.5702
12.5216
12.4741
12.4306
12.389
12.351
12.3193
12.2948
12.2767
12.2665
12.2652
12.2742
12.2882
12.3063
12.33
12.3581
12.3875
12.4197
12.656
12.6188
12.5716
12.5218
12.4735
12.4291
12.3871
12.3491
12.318
12.2946
12.2773
12.2666
12.265
12.2731
12.287
12.3063
12.3301
12.3572
12.3863
12.4192
12.6554
12.6178
12.5703
12.5216
12.474
12.4286
12.3868
12.3496
12.318
12.2926
12.2754
12.2657
12.2653
12.273
12.2875
12.3075
12.332
12.3599
12.3904
12.423
12.6559
12.6165
12.5684
12.521
12.4736
12.4285
12.3866
12.3488
12.3166
12.2908
12.2747
12.2678
12.2703
12.2802
12.2959
12.3163
12.3407
12.3679
12.3975
12.429
12.6579
12.6175
12.5693
12.52
12.4727
12.4288
12.3881
12.3507
12.3181
12.293
12.2771
12.2706
12.2735
12.2845
12.3005
12.3209
12.3444
12.3704
12.3991
12.4301
12.6564
12.6175
12.5698
12.5208
12.4741
12.4305
12.3907
12.3529
12.3202
12.2954
12.2796
12.2727
12.2741
12.2842
12.2995
12.3197
12.3439
12.3699
12.3986
12.4295
12.6557
12.6176
12.5706
12.523
12.4762
12.4316
12.3909
12.3531
12.3222
12.2991
12.2844
12.2777
12.2784
12.2862
12.3005
12.3204
12.3449
12.3711
12.3997
12.4307
12.661
12.6233
12.5765
12.5289
12.4816
12.4362
12.3942
12.3572
12.3272
12.3055
12.2927
12.2873
12.2882
12.2956
12.3088
12.3272
12.3494
12.3744
12.4023
12.4329
12.6683
12.6313
12.5854
12.5381
12.4908
12.4448
12.4017
12.3636
12.3329
12.3106
12.2976
12.2927
12.2935
12.3004
12.3124
12.3303
12.3533
12.3788
12.4065
12.436
12.6736
12.6374
12.5923
12.5451
12.4975
12.4512
12.4082
12.3703
12.3392
12.3151
12.2996
12.293
12.2928
12.2994
12.3118
12.3296
12.3538
12.3796
12.4067
12.4346
12.6759
12.6393
12.5942
12.5458
12.4977
12.4516
12.4094
12.3728
12.3431
12.3195
12.3033
12.2946
12.2931
12.2991
12.3122
12.3299
12.3523
12.3773
12.4043
12.4323
12.6781
12.6397
12.5933
12.5448
12.4967
12.4507
12.4086
12.3723
12.3435
12.3206
12.3048
12.2956
12.2937
12.2993
12.3112
12.3297
12.3509
12.3763
12.4045
12.435
12.6813
12.6415
12.5932
12.545
12.4964
12.4499
12.4075
12.3707
12.3407
12.3178
12.3023
12.2934
12.2928
12.2996
12.3128
12.3316
12.3546
12.3809
12.4097
12.4406
12.6861
12.6453
12.5956
12.5454
12.4959
12.4489
12.406
12.3688
12.3386
12.316
12.3015
12.2948
12.2954
12.3033
12.3175
12.3371
12.3607
12.3874
12.4163
12.4471
12.6929
12.6519
12.6019
12.5513
12.5013
12.4538
12.4104
12.3728
12.3423
12.3197
12.3056
12.2994
12.3007
12.3094
12.3242
12.3442
12.368
12.3946
12.4232
12.4536
12.7003
12.6597
12.6099
12.5592
12.5092
12.4615
12.4178
12.3801
12.3495
12.327
12.313
12.3071
12.3085
12.3173
12.3323
12.3522
12.3758
12.4021
12.4303
12.46
12.7066
12.666
12.6166
12.5668
12.5175
12.4701
12.4267
12.389
12.3585
12.3362
12.3224
12.3165
12.3176
12.3258
12.3405
12.3602
12.3836
12.4096
12.4374
12.4667
12.7113
12.6701
12.6205
12.5711
12.5225
12.4766
12.4348
12.3981
12.3681
12.3459
12.332
12.3258
12.3264
12.3333
12.3473
12.3668
12.3899
12.4157
12.4434
12.4726
12.7157
12.6738
12.6235
12.5731
12.5242
12.4789
12.4384
12.4013
12.3711
12.3489
12.335
12.3291
12.3306
12.3395
12.3547
12.3743
12.3967
12.4219
12.4496
12.4789
12.7212
12.6785
12.6273
12.576
12.5262
12.48
12.4395
12.4021
12.3719
12.3495
12.3357
12.3302
12.3326
12.3433
12.3588
12.3784
12.402
12.4292
12.4581
12.4878
12.728
12.6844
12.6323
12.5801
12.5293
12.4819
12.4399
12.4028
12.3725
12.3501
12.3363
12.3306
12.3328
12.3427
12.3592
12.3795
12.4041
12.4333
12.4628
12.4925
12.7363
12.692
12.6391
12.586
12.5342
12.4854
12.4414
12.4036
12.3732
12.351
12.3372
12.3314
12.333
12.3426
12.3595
12.3803
12.4042
12.4327
12.4618
12.4914
12.7459
12.7012
12.648
12.5944
12.5422
12.493
12.4484
12.4101
12.3793
12.3568
12.3429
12.3369
12.3382
12.347
12.3623
12.3827
12.407
12.4339
12.4624
12.4918
12.7565
12.7113
12.6577
12.6039
12.5517
12.5025
12.4572
12.4183
12.3872
12.3645
12.3504
12.3444
12.3457
12.3547
12.37
12.3905
12.4148
12.4417
12.4701
12.4994
12.7679
12.7219
12.6673
12.6126
12.5596
12.5098
12.4644
12.426
12.3963
12.3744
12.3604
12.3539
12.3548
12.3636
12.3792
12.4002
12.4249
12.452
12.4805
12.5096
12.781
12.7339
12.678
12.6218
12.5673
12.5164
12.4708
12.4324
12.4025
12.3806
12.367
12.3612
12.363
12.3729
12.3895
12.4113
12.4368
12.4643
12.4929
12.5218
12.7967
12.7486
12.6915
12.634
12.5781
12.5258
12.4792
12.4396
12.4084
12.3864
12.3736
12.3692
12.3727
12.3841
12.4021
12.425
12.4511
12.4791
12.5077
12.5363
12.8155
12.7666
12.7087
12.6501
12.5929
12.5395
12.4917
12.4514
12.4198
12.3978
12.3855
12.3819
12.3866
12.3992
12.4182
12.4419
12.4685
12.4967
12.5252
12.5533
12.8377
12.7882
12.7296
12.6702
12.6122
12.5579
12.5095
12.4687
12.4369
12.4149
12.403
12.3999
12.4052
12.4185
12.4381
12.4622
12.4892
12.5174
12.5456
12.5731
12.8633
12.8134
12.7543
12.6942
12.6355
12.5805
12.5316
12.4904
12.4585
12.4365
12.4248
12.422
12.4278
12.4416
12.4616
12.4861
12.5132
12.5413
12.5691
12.5959
12.8926
12.8424
12.7828
12.7222
12.6628
12.6073
12.5578
12.5163
12.4842
12.4622
12.4506
12.4481
12.4543
12.4686
12.489
12.5137
12.5409
12.5688
12.5961
12.622
12.926
12.8756
12.8156
12.7544
12.6944
12.6383
12.5883
12.5465
12.5141
12.4922
12.4808
12.4785
12.4851
12.4997
12.5205
12.5454
12.5726
12.6003
12.627
12.6519
12.964
12.9134
12.8531
12.7914
12.7308
12.6741
12.6236
12.5813
12.5488
12.5269
12.5155
12.5135
12.5205
12.5355
12.5566
12.5818
12.609
12.6364
12.6624
12.6861
13.0073
12.9565
12.8961
12.8338
12.7726
12.7153
12.6642
12.6216
12.5888
12.5668
12.5557
12.5539
12.5612
12.5766
12.5981
12.6234
12.6506
12.6776
12.7029
12.7254
13.0567
13.0059
12.9453
12.8826
12.8208
12.7628
12.7112
12.6681
12.6351
12.613
12.6019
12.6004
12.6082
12.624
12.6458
12.6713
12.6984
12.725
12.7494
12.7705
13.1132
13.0625
13.0019
12.9387
12.8764
12.8177
12.7655
12.722
12.6886
12.6664
12.6553
12.654
12.6624
12.6787
12.7008
12.7265
12.7534
12.7795
12.8029
12.8223
13.178
13.1276
13.0671
13.0037
12.9407
12.8814
12.8286
12.7846
12.751
12.7286
12.7176
12.7166
12.7254
12.7421
12.7645
12.7903
12.8169
12.8423
12.8644
12.882
13.2526
13.2028
13.1426
13.0789
13.0155
12.9556
12.9022
12.8577
12.8237
12.8013
12.7903
12.7897
12.7988
12.8159
12.8385
12.8643
12.8906
12.9151
12.9357
12.9509
13.3388
13.2899
13.2302
13.1666
13.1027
13.0422
12.9882
12.9432
12.9089
12.8864
12.8755
12.8752
12.8847
12.902
12.9248
12.9505
12.9763
12.9996
13.0184
13.0309
13.4388
13.3912
13.3325
13.2691
13.2049
13.1439
13.0893
13.0438
13.0092
12.9865
12.9757
12.9756
12.9855
13.0031
13.026
13.0514
13.0764
13.0984
13.115
13.1242
13.5555
13.5097
13.4524
13.3895
13.3253
13.2638
13.2087
13.1627
13.1277
13.1048
13.0941
13.0944
13.1045
13.1223
13.1451
13.17
13.194
13.2142
13.228
13.2333
13.6922
13.6489
13.5937
13.5317
13.4677
13.4061
13.3505
13.3041
13.2687
13.2456
13.2349
13.2354
13.2457
13.2635
13.2861
13.3103
13.3328
13.3506
13.361
13.3615
13.8534
13.8135
13.7611
13.7007
13.6374
13.5758
13.52
13.4731
13.4374
13.4141
13.4034
13.4041
13.4144
13.4321
13.4541
13.4771
13.4976
13.5124
13.5183
13.513
14.0444
14.0092
13.961
13.903
13.8409
13.7797
13.7239
13.6768
13.6408
13.6172
13.6064
13.6072
13.6174
13.6346
13.6556
13.6768
13.6946
13.7054
13.7058
13.6933
14.2723
14.2437
14.2012
14.1469
14.0869
14.0268
13.9714
13.9243
13.888
13.864
13.8531
13.8539
13.8637
13.88
13.8993
13.918
13.9319
13.9373
13.9308
13.9091
14.5468
14.527
14.4926
14.4437
14.3872
14.3291
14.2747
14.2278
14.1914
14.167
14.1558
14.1563
14.1652
14.1799
14.1967
14.2115
14.2202
14.2186
14.2031
14.1696
14.8793
14.8724
14.8495
14.8086
14.7574
14.7026
14.6501
14.6041
14.5676
14.5428
14.5311
14.5309
14.5383
14.5503
14.5632
14.5726
14.574
14.5632
14.5356
14.4867
15.2886
15.2987
15.2917
15.2624
15.2192
15.1698
15.1205
15.0761
15.04
15.0146
15.002
15.0005
15.0052
15.0132
15.0201
15.0215
15.0128
14.9894
14.9456
14.8766
15.7976
15.8307
15.8461
15.8336
15.8025
15.7614
15.7174
15.6759
15.6406
15.6145
15.6004
15.5968
15.5973
15.5988
15.5971
15.5873
15.5648
15.5236
15.4575
15.3614
16.4405
16.5007
16.5496
16.5617
16.5489
16.5207
16.4852
16.4486
16.415
16.3879
16.3715
16.3642
16.358
16.3499
16.3351
16.3096
16.2673
16.2008
16.1041
15.9715
17.2682
17.3719
17.4537
17.5025
17.5166
17.5079
17.4859
17.4573
17.4269
17.3986
17.3782
17.3647
17.3485
17.3259
17.2931
17.2451
17.173
17.071
16.9319
16.7492
18.343
18.507
18.6441
18.7309
18.7864
18.807
18.8053
18.7898
18.7658
18.7369
18.7087
18.6834
18.6545
18.6143
18.5542
18.4703
18.356
18.2038
18.0057
17.7538
19.7583
20.0104
20.2327
20.374
20.4674
20.5325
20.5609
20.5656
20.5543
20.5313
20.5003
20.4603
20.4043
20.3283
20.2266
20.0927
19.9187
19.6961
19.4154
19.0677
21.636
22.0117
22.3536
22.5879
22.7367
22.8346
22.9068
22.9388
22.9457
22.929
22.8905
22.8289
22.7401
22.6194
22.461
22.2576
22.0002
21.6794
21.2845
20.8046
24.1414
24.6895
25.1961
25.557
25.8009
25.95
26.0366
26.1032
26.1468
26.1415
26.0942
26.0052
25.8726
25.6916
25.4553
25.156
24.7844
24.3294
23.7783
23.1178
27.4865
28.2683
28.9964
29.5273
29.8981
30.1415
30.2811
30.3536
30.4087
30.429
30.3723
30.2484
30.0569
29.7942
29.4542
29.0283
28.5053
27.872
27.1124
26.2094
31.9318
33.0195
34.0345
34.7843
35.3167
35.6747
35.8935
36.0025
36.0581
36.0825
36.0103
35.8433
35.5802
35.2174
34.7483
34.1628
33.4473
32.585
31.5555
30.3355
37.7771
39.2504
40.6222
41.6415
42.3719
42.8685
43.1778
43.332
43.3778
43.3883
43.3269
43.1151
42.7699
42.2893
41.6662
40.8883
39.9383
38.7941
37.4277
35.8067
45.352
47.293
49.0915
50.429
51.3913
52.0519
52.4719
52.7015
52.774
52.7561
52.678
52.4111
51.9727
51.3591
50.561
49.5621
48.3397
46.8631
45.0933
42.9832
55.0025
57.4923
59.7862
61.4892
62.7145
63.5565
64.0936
64.3923
64.495
64.4856
64.4045
64.0869
63.5536
62.7994
61.8125
60.5712
59.0451
57.1917
54.9559
52.2695
67.0944
70.2166
73.0793
75.2011
76.7275
77.7734
78.4285
78.8006
78.9751
78.9921
78.9266
78.5677
77.9422
77.0443
75.859
74.3581
72.5011
70.2303
67.4693
64.1203
82.045
85.8974
89.42
92.033
93.9216
95.2291
96.0592
96.5275
96.7597
96.8279
96.7915
96.3996
95.6858
94.6426
93.2503
91.4725
89.2563
86.525
83.1753
79.0707
100.379
105.09
109.398
112.603
114.938
116.574
117.632
118.211
118.503
118.705
118.723
118.315
117.524
116.337
114.728
112.652
110.04
106.793
102.775
97.8002
122.804
128.552
133.82
137.765
140.671
142.753
144.165
145.006
145.417
145.664
145.729
145.332
144.48
143.154
141.319
138.916
135.859
132.02
127.224
121.227
150.293
157.323
163.792
168.674
172.316
174.979
176.852
178.057
178.712
179.01
179.098
178.826
177.952
176.5
174.431
171.669
168.105
163.577
157.858
150.632
184.184
192.818
200.805
206.885
211.479
214.904
217.392
219.105
220.159
220.674
220.864
220.686
219.816
218.263
215.963
212.82
208.685
203.353
196.531
187.81
226.296
236.945
246.849
254.451
260.265
264.678
267.972
270.339
271.916
272.806
273.227
273.261
272.494
270.914
268.433
264.918
260.173
253.928
245.802
235.264
279.075
292.234
304.532
314.038
321.383
327.046
331.379
334.616
336.904
338.353
339.227
339.618
339.106
337.645
335.108
331.308
325.979
318.76
309.147
296.441
345.79
362.015
377.235
389.051
398.251
405.436
411.054
415.412
418.706
421.043
422.563
423.447
423.505
422.437
420.122
416.277
410.538
402.413
391.222
376.034
430.764
450.605
469.255
483.745
495.068
503.995
511.109
516.813
521.371
524.933
527.578
529.398
530.343
530.093
528.517
525.135
519.438
510.745
498.123
480.308
539.629
563.488
585.909
603.244
616.767
627.487
636.172
643.367
649.434
654.575
658.876
662.345
664.819
666.092
666.073
664.138
659.423
651.001
637.577
617.406
679.533
707.398
733.484
753.381
768.755
780.941
790.971
799.589
807.302
814.402
821.004
827.084
832.414
836.539
839.12
840.037
838.049
831.585
818.863
797.449
859.143
890.124
918.857
940.149
956.207
968.818
979.378
988.917
998.147
1007.5
1017.17
1027.13
1037.11
1046.59
1054.77
1060.44
1062.75
1061.18
1052.17
1032.15
1088.15
1119.75
1148.48
1168.47
1182.66
1193.45
1202.72
1211.89
1221.95