/*--------------------------------*- C++ -*----------------------------------*\
  =========                 |
  \\      /  F ield         | OpenFOAM: The Open Source CFD Toolbox
   \\    /   O peration     | Website:  https://openfoam.org
    \\  /    A nd           | Version:  6
     \\/     M anipulation  |
\*---------------------------------------------------------------------------*/
FoamFile
{
    version     2.0;
    format      ascii;
    class       volScalarField;
    location    "11";
    object      epsilon;
}
// * * * * * * * * * * * * * * * * * * * * * * * * * * * * * * * * * * * * * //

dimensions      [0 2 -3 0 0 0 0];

internalField   nonuniform List<scalar> 
10000
(
245.495
312.804
176.492
104.666
69.4981
51.0998
40.6319
34.3925
30.7823
29.1042
29.0489
30.6523
34.2052
40.4658
51.0837
69.6539
104.53
173.67
305.582
240.798
244.709
310.141
176.585
104.273
69.4636
51.0703
40.5685
34.2983
30.6565
28.9324
28.6727
30.2584
33.8382
40.1485
50.8278
69.3036
104.303
173.246
305.201
239.589
239.713
311.984
176.404
104.798
69.3993
50.9505
40.4982
34.2348
30.5746
28.7415
28.715
30.3322
33.8814
40.2311
51.0971
69.6957
103.158
170.412
301.921
238.83
237.583
308.919
175.627
103.887
69.2313
50.8501
40.3143
33.9787
30.3024
28.8557
28.8642
30.4474
33.8398
40.1942
51.1028
69.8278
104.074
171.563
304.999
238.966
234.546
311.607
173.712
104.069
69.2676
50.8058
40.3512
34.0858
30.3414
28.8501
28.8794
30.486
33.8957
40.2145
51.0355
69.8026
105.018
172.112
303.818
238.819
234.674
308.799
175.502
104.299
69.1817
50.7092
40.3109
34.0694
30.2997
28.6334
28.8564
30.5309
34.0512
40.3262
50.7337
69.1339
105.084
174.11
299.559
241.123
234.309
311.581
174.95
103.885
69.0598
50.6644
40.1641
34.0211
30.4061
28.7903
28.8972
30.5567
33.9164
40.2765
50.9959
69.473
104.892
174.429
301.75
242.748
235.273
311.335
172.031
102.61
68.8016
50.6388
40.2473
34.0061
30.1855
28.5321
28.8576
30.5837
34.2398
40.6176
51.1593
69.6869
103.713
174.292
303.977
244.806
235.66
310.103
173.504
103.126
68.8643
50.6704
40.227
34.0012
30.4276
28.79
28.8742
30.5488
34.2218
40.6757
51.3915
70.3515
105.434
172.616
300.011
247.264
235.414
305.41
173.757
103.518
68.6834
50.6352
40.0573
33.743
30.1744
28.7671
28.8722
30.4967
33.9898
40.6966
51.6294
70.8814
106.922
176.604
305.21
253.837
236.095
306.957
171.543
103.684
68.8261
50.6322
40.1642
33.8644
30.2799
28.578
28.8171
30.3124
34.2125
40.6995
51.2901
70.3316
106.758
176.469
308.382
255.217
237.088
309.063
174.426
103.27
68.9628
50.6985
40.1523
33.6764
30.1012
28.7549
28.8744
30.4429
34.1958
40.723
51.53
70.7891
106.483
175.907
308.197
254.58
239.327
303.339
171.871
104.319
68.7651
50.5245
40.1329
33.9282
30.3685
28.8033
28.8846
30.6265
34.2395
40.9016
51.6609
70.177
105.998
174.692
306.89
250.942
239.329
307.851
176.033
104.595
68.9913
50.6409
39.9575
33.8694
30.2781
28.542
28.5621
30.3524
34.1675
40.9423
51.9824
70.5468
104.954
172.269
303.174
250.564
236.249
309.685
175.897
104.432
69.1389
50.7897
40.1869
33.7771
30.0825
28.7684
28.7615
30.5742
34.3761
40.9426
52.01
70.7399
105.602
173.03
306.727
252.181
236.945
307.386
175.786
103.365
69.362
50.9753
40.4028
34.1028
30.3729
28.8543
28.6414
30.2942
34.2375
40.8598
51.9715
70.9827
106.273
174.334
303.377
252.521
235.972
311.789
175.811
104.646
69.4453
50.9645
40.246
33.9956
30.5775
28.9209
28.8399
30.3642
33.9711
40.5058
51.8628
71.2088
106.819
175.98
308.064
257.044
239.486
311.164
175.052
104.271
69.0169
50.9119
40.378
34.2022
30.6082
28.9222
28.8521
30.3236
34.1036
40.5416
51.5294
71.0278
107.269
177.488
309.588
251.967
243.49
307.449
173.78
102.895
69.1429
50.9213
40.2291
34.1683
30.6333
28.9301
28.8179
30.2648
33.9433
40.6449
51.5549
70.4412
105.74
177.641
312.015
250.775
244.396
310.861
171.236
103.728
69.4587
50.9689
40.3983
34.1746
30.6122
28.9059
28.6519
30.3463
34.195
40.6542
51.4579
70.1075
105.363
174.397
310.765
252.504
243.268
309.31
172.76
104.154
69.4871
50.9194
40.3256
34.1115
30.5851
28.9252
28.9017
30.5325
34.2151
40.6141
51.3721
69.9394
104.967
174.795
309.014
248.44
244.909
313.092
174.854
104.914
69.2411
50.8776
40.1858
33.941
30.529
28.8011
28.8862
30.3514
34.1813
40.5545
51.2877
69.7729
105.115
175.369
306.687
248.322
249.741
313.043
176.724
104.268
69.338
50.9286
40.4299
34.2334
30.6673
28.9862
28.9447
30.5593
34.1376
40.3168
51.0824
69.7026
103.97
172.549
303.734
241.238
248.278
311.745
174.263
105.123
69.6136
50.9356
40.4191
34.2254
30.616
28.7417
28.6078
30.2355
33.8563
40.3303
51.3384
69.9312
104.84
175.378
306.816
240.318
245.87
308.22
176.557
105.109
69.5581
50.7929
40.2762
34.1943
30.4797
28.9158
28.7245
30.3752
33.9653
40.4563
51.4144
70.4353
105.441
173.135
303.623
240.547
247.071
311.442
176.225
103.972
69.1915
50.9094
40.4418
34.2547
30.6657
28.9497
28.7501
30.5081
34.057
40.451
51.3902
70.4207
104.754
176.699
307.106
238.758
243.123
310.212
175.329
104.85
69.5609
50.9085
40.261
34.1514
30.5555
28.7049
28.7469
30.5069
33.8635
40.2326
51.3444
70.5038
106.06
176.588
304.594
240.044
244.445
306.185
174.196
104.544
69.4896
50.772
40.2333
33.928
30.3109
28.7124
28.9149
30.572
34.1535
40.4651
51.3091
70.3837
104.733
176.491
308.451
238.4
244.65
307.947
171.618
104.204
69.3985
50.8764
40.2834
33.9835
30.3452
28.6938
28.8866
30.5471
34.1514
40.2752
51.0175
70.4155
106.291
175.906
307.881
237.97
245.854
303.641
172.249
103.689
69.0942
50.8913
40.3537
34.0359
30.3785
28.7072
28.7289
30.5738
34.1901
40.4914
51.2165
70.2611
106.217
173.475
307.553
238.846
246.772
304.813
173.451
104.982
69.5917
51.1551
40.5346
34.2061
30.5394
28.8818
28.9372
30.6064
34.2041
40.5017
51.1205
69.5947
106.275
176.875
306.761
238.466
242.498
303.581
176.095
105.059
69.512
51.1766
40.5507
34.1886
30.3609
28.6715
28.942
30.6296
34.2283
40.4825
51.0723
69.8172
106.023
176.662
303.791
239.964
246.062
308.362
176.47
104.032
69.8422
51.1869
40.4313
34.2761
30.7096
28.9833
28.9686
30.6046
34.2208
40.4838
50.8048
70.0759
105.574
176.517
306.455
241.333
245.533
307.258
176.313
105.16
69.9359
51.1153
40.5761
34.1383
30.6486
28.9349
28.9074
30.5575
34.1912
40.5211
51.0815
69.6226
103.82
175.882
308.71
241.817
245.867
303.125
176.037
104.474
69.5572
51.3614
40.5617
34.3246
30.613
28.6158
28.5378
30.2135
34.0763
40.5263
51.477
70.4672
105.237
173.372
307.938
243.754
251.238
309.384
176.226
104.311
69.9366
51.6884
40.8848
34.3812
30.6257
28.732
28.6891
30.318
33.8768
40.2131
51.4461
70.6422
106.374
176.55
304.674
245.686
258.754
308.22
175.731
105.11
70.1631
51.7668
40.9103
34.2101
30.4349
28.8429
28.8697
30.5249
34.1064
40.3686
51.4178
70.4629
105.132
176.182
307.82
246.646
261.443
303.041
173.06
104.529
70.279
51.8195
40.9915
34.4991
30.7139
28.7297
28.7967
30.4877
34.045
40.4986
51.1778
70.4035
105.883
175.48
307.28
248.33
264.156
307.347
175.671
105.438
70.5816
51.8367
40.9875
34.549
30.8215
29.0309
28.8935
30.4893
34.0896
40.4937
51.3231
69.8572
104.527
172.725
303.705
246.948
262.235
301.58
172.161
105.405
70.7485
51.729
40.8874
34.5221
30.811
28.9975
28.5761
30.1131
33.7089
40.1371
51.0816
70.1241
105.17
174.22
307.333
248.119
256.331
306.769
175.238
106.213
70.9582
51.8517
40.9653
34.5343
30.8291
29.0248
28.6932
30.2449
33.8103
40.2605
51.2588
70.3606
105.448
174.976
310.536
250.643
254.536
307.803
175.932
106.462
70.4187
51.6805
40.6727
34.2706
30.758
29.023
28.8701
30.4235
33.8826
40.3603
51.1468
70.2361
106.304
176.828
310.642
254.814
252.405
310.24
177.159
105.325
70.1982
51.5946
40.732
34.4503
30.6215
28.8266
28.6683
30.3019
33.9843
40.3241
50.7227
69.6065
105.804
175.924
309.245
248.294
250.062
312.346
174.547
105.091
69.9878
51.4731
40.7978
34.5047
30.888
29.1992
29.1082
30.6287
33.8763
40.33
50.8236
69.4291
105.372
174.552
304.611
242.419
249.745
311.02
174.637
104.569
69.8756
51.3208
40.5236
34.2645
30.8259
29.1794
29.075
30.7102
34.1531
40.4116
50.974
69.7551
105.092
171.721
307.841
242.018
252.082
307.135
174.368
104.717
69.9178
51.4961
40.7815
34.537
30.7704
28.9746
28.9655
30.6752
34.103
40.3856
51.1987
70.073
105.041
172.161
307.184
244.213
244.322
307.833
175.65
105.351
70.1186
51.4982
40.8927
34.5982
30.9336
29.1883
29.2085
30.6854
33.921
40.1274
51.1281
69.9858
104.876
172.409
306.191
239.691
242.271
308.944
173.212
103.773
69.9086
51.4413
40.8442
34.3979
30.7525
29.1051
29.2147
30.6905
33.8776
40.3804
51.0993
69.8342
103.894
173.919
302.971
238.589
242.269
308.009
176.264
104.962
69.7956
51.4188
40.8217
34.5406
30.9369
29.3075
29.2546
30.759
33.9954
40.3356
50.8017
69.6008
105.089
172.009
306.178
239.511
241.885
303.57
175.91
105.827
70.0913
51.3421
40.5981
34.2569
30.6485
29.0192
29.1916
30.7852
34.1807
40.6374
51.2335
70.237
104.998
174.596
305.584
240.288
242.797
305.121
175.648
105.644
70.3972
51.5309
40.6949
34.3464
30.6606
29.1326
29.1613
30.8115
34.3851
40.679
51.4861
70.1301
103.306
172.123
302.552
239.691
243.883
305.831
175.053
105.306
70.3423
51.3983
40.7145
34.4189
30.6147
28.8352
28.8271
30.707
34.3298
40.5268
51.5002
70.1917
104.376
174.513
304.727
241.168
247.568
308.945
172.809
103.831
69.9058
51.5482
40.8364
34.4234
30.5821
28.8389
28.8191
30.6444
34.3213
40.5882
51.4929
69.8823
104.834
176.507
308.109
244.384
248.421
308.289
175.718
104.955
70.3938
51.7787
40.7007
34.3603
30.6605
28.8599
28.7282
30.3592
34.0999
40.7452
51.6281
70.4835
105.624
175.871
307.328
244.502
249.921
305.849
174.997
104.944
70.397
51.8218
40.8774
34.182
30.4414
28.7775
28.7486
30.4139
34.2405
40.7255
51.5827
70.6136
106.085
173.259
303.565
244.483
250.296
310.668
172.451
105.307
70.5918
51.8242
40.8835
34.418
30.7068
28.9659
28.8699
30.4065
34.1804
40.6289
51.4726
70.4437
105.916
175.881
306.652
244.4
251.921
311.953
175.367
106.161
70.7717
51.7667
40.6273
34.1681
30.4518
28.8547
28.6549
30.4586
33.9184
40.298
51.0911
70.1707
105.381
174.992
302.973
244.058
253.741
312.274
176.485
106.66
70.9395
51.7369
40.6978
34.3298
30.6057
28.691
28.8326
30.4948
34.0106
40.3843
51.109
69.5637
103.994
173.45
306.476
243.968
253.658
311.816
177.674
106.721
70.5012
51.5688
40.7623
34.3135
30.4104
28.6701
28.6344
30.4248
34.1178
40.4879
51.23
69.9724
105.018
174.937
305.668
245.682
256.896
310.363
174.717
105.922
70.374
51.4464
40.7072
34.2972
30.5938
28.8329
28.8083
30.2623
34.1016
40.4671
51.1286
69.3459
104.068
173.959
300.989
240.922
252.647
307.579
175.499
105.139
70.1902
51.4159
40.4848
34.2426
30.5695
28.6212
28.8097
30.4936
34.1095
40.4367
51.1273
69.6802
104.119
173.512
304.211
242.994
254.936
308.746
175.717
105.176
70.1178
51.35
40.502
34.0567
30.5473
28.8378
28.8049
30.4605
34.0887
40.4021
50.9187
69.8202
104.454
170.923
300.264
241.057
245.389
306.954
174.76
104.702
69.9524
51.2544
40.6065
34.1916
30.5014
28.7562
28.5314
30.1822
33.9934
40.3654
51.0212
69.3311
103.509
171.354
301.147
240.958
244.523
305.638
172.06
104.273
69.8504
51.2413
40.5646
33.9567
30.2396
28.7394
28.7418
30.4005
34.0259
40.3571
50.8446
69.303
103.484
170.765
300.13
241.059
245.526
302.83
172.655
104.115
69.801
51.2866
40.5727
34.146
30.3971
28.7113
28.7332
30.4123
34.0294
40.3671
50.9943
69.2369
103.603
171.084
300.403
240.973
249.748
303.455
169.831
103.254
69.5083
51.2401
40.5697
34.1583
30.1948
28.434
28.4766
30.3527
33.9852
40.3254
50.9622
69.4567
104.311
172.318
301.296
240.778
245.737
301.82
169.582
103.104
69.4321
51.1769
40.3909
34.1558
30.4872
28.8085
28.7725
30.4103
33.9755
40.3033
50.7011
69.0973
103.905
171.604
300.16
241.011
246.632
298.468
168.268
102.721
69.2984
51.1366
40.5178
34.1128
30.2835
28.7876
28.7745
30.3535
33.7285
40.2789
50.8946
69.356
103.514
170.66
298.475
241.494
251.273
296.679
167.638
102.481
69.2035
50.9587
40.466
34.1043
30.4339
28.756
28.7214
30.3289
33.806
40.2691
50.6819
68.8822
102.223
167.823
293.455
242.918
244.381
294.565
167.214
102.39
69.2046
51.0166
40.305
33.8828
30.3697
28.4935
28.6161
30.3088
33.943
40.2929
50.9118
69.2154
103.005
169.818
296.954
242.008
243.478
294.505
167.569
102.629
69.2524
51.1367
40.5085
34.0883
30.4067
28.6356
28.3779
30.0334
33.888
40.2647
50.8472
68.9495
102.453
167.252
297.501
243.962
247.54
290.729
166.711
102.221
69.0518
51.0663
40.4566
34.0494
30.3573
28.6597
28.5928
30.2352
33.8725
40.2053
50.7663
68.7086
102.092
167.048
293.637
244.99
245.402
290.216
165.459
101.147
68.8543
50.8173
40.1903
33.9268
30.0641
28.5444
28.5449
30.1969
33.819
40.1199
50.4987
68.5522
101.135
165.904
293.588
244.436
242.674
289.155
163.517
100.726
68.7105
50.8167
40.3152
33.9301
30.1852
28.4478
28.4155
30.0534
33.6195
39.8146
50.3753
68.2399
100.717
164.99
293.008
242.182
241.375
289.544
162.205
100.143
68.4809
50.7867
40.2096
33.5887
29.9983
28.0798
28.257
29.9155
33.3756
39.7351
50.2604
68.0857
100.255
163.81
293.554
241.371
241.734
285.131
161.043
99.5286
68.2492
50.6137
39.8731
33.4136
29.6952
28.1089
27.8905
29.4992
33.1947
39.5738
50.0619
67.7499
99.4327
162.417
292.045
241.732
241.794
285.234
159.806
98.6656
67.853
50.2689
39.6677
33.2022
29.5256
27.7882
27.7216
29.323
33.0338
39.3958
49.847
67.3559
98.6258
161.133
289.529
240.927
240.711
285.311
158.316
97.7294
67.2601
49.9282
39.386
32.9779
29.4575
27.7389
27.6088
29.3056
33.0031
39.2211
49.5729
66.8627
97.5244
158.318
284.658
241.883
242.658
281.354
156.146
96.465
66.5536
49.5372
39.108
32.7649
29.2284
27.3162
27.3597
29.2024
32.8317
38.9228
49.2254
66.2595
96.3952
156.329
282.49
236.501
233.194
278.895
153.789
95.1887
65.8615
49.1514
38.8167
32.443
28.7518
27.0152
27.0378
28.9716
32.6093
38.6486
48.7672
65.3454
94.7682
153.32
279.424
234.053
229.437
274.044
150.816
93.7518
64.9935
48.6529
38.4212
32.0944
28.3819
26.6978
26.7178
28.4376
32.042
38.1725
48.3033
64.6502
93.1588
149.887
275.163
232.506
227.237
269.62
147.466
92.2378
64.1752
48.0906
37.9288
31.6548
28.0185
26.3749
26.3938
28.1284
31.6447
37.7063
47.719
63.9561
91.7064
146.083
269.341
230.399
224.561
262.741
143.722
90.5743
63.5942
47.5621
37.4595
31.223
27.6389
26.009
26.0261
27.7021
31.1974
37.1553
46.9803
62.9526
89.2952
140.92
260.383
226.677
222.27
255.066
140.655
88.3975
62.5237
46.6849
36.8008
30.7252
27.2332
25.6378
25.6263
27.1829
30.5798
36.4423
45.9804
61.2316
86.1926
134.738
249.514
209.146
220.743
244.936
135.064
84.8774
60.6836
45.5414
36.0187
30.1667
26.7969
25.2451
25.2195
26.698
29.9682
35.6747
44.9479
59.5654
82.5127
127.819
238.187
203.625
214.353
232.377
128.873
81.527
58.9018
44.2329
35.0616
29.4653
26.2525
24.7688
24.7325
26.1359
29.2479
34.7082
43.6285
57.5642
77.8313
121.492
226.967
201.919
205.338
217.756
121.818
79.3955
56.9331
42.6663
33.9006
28.6044
25.5765
24.1706
24.1174
25.4288
28.3723
33.586
42.2012
55.7224
73.681
116.088
215.131
201.717
211.827
205.357
114.404
76.9626
54.3598
40.7388
32.4805
27.5293
24.713
23.4009
23.3352
24.5518
27.3098
32.2345
40.507
53.913
72.0272
112.553
203.949
209.765
203.365
188.67
105.415
71.368
50.9618
38.4062
30.7807
26.2091
23.6119
22.4158
22.3782
23.5075
26.05
30.6159
38.3925
51.4454
70.7388
107.536
186.948
205.117
218.167
174.433
97.7242
66.9794
47.577
35.835
28.836
24.6982
22.3643
21.2995
21.2762
22.3012
24.6004
28.7403
35.8486
48.1971
70.4056
108.275
175.169
211.583
219.913
157.781
90.7841
62.0968
43.7321
32.9426
26.6757
23.0156
20.9647
20.0375
20.0284
20.9442
22.989
26.6744
33.0371
44.1225
63.5462
97.3731
161.771
233.773
232.661
147.603
85.4724
56.7292
39.5412
29.8902
24.3934
21.2261
19.4728
18.6912
18.6955
19.4897
21.2589
24.4583
30.0364
39.9534
58.0641
90.78
149.01
241.548
250.664
145.642
83.781
52.0438
35.5841
26.9468
22.1893
19.5065
18.0449
17.3999
17.4069
18.0699
19.5582
22.2814
27.0998
35.8386
52.4021
84.2207
142.685
259.186
282.435
146.077
78.3392
46.3217
31.5347
24.1319
20.1595
17.964
16.7873
16.2736
16.2817
16.8146
18.0223
20.2689
24.332
31.8791
46.7496
77.5505
139.964
281.273
304.633
138.247
70.7142
41.4202
28.2468
21.8525
18.5343
16.7596
15.8342
15.4304
15.4348
15.8475
16.789
18.5913
21.9676
28.4713
41.8722
71.7729
138.42
306.698
342.539
138.633
66.322
37.3685
25.4145
19.9484
17.2567
15.8886
15.2105
14.9381
14.9399
15.2153
15.9003
17.2773
19.9868
25.479
37.4446
66.2825
138.863
340.273
372.575
137.449
60.1253
33.0115
22.7071
18.295
16.2667
15.311
14.8934
14.7386
14.7392
14.8945
15.3141
16.2718
18.3091
22.7465
33.1409
60.5504
138.492
374.834
404.171
130.463
52.0761
28.0786
19.937
16.7856
15.4859
14.9639
14.7585
14.683
14.6834
14.7588
14.9653
15.4849
16.7815
19.9141
28.0086
51.8466
129.855
403.766
432.144
108.739
38.9157
21.9802
17.052
15.4831
14.9777
14.806
14.7262
14.6946
14.6951
14.7275
14.8098
14.9833
15.4912
17.0654
22.0041
38.9938
108.965
433.038
466.979
57.7577
21.745
16.3126
15.2537
14.9572
14.8456
14.8037
14.7961
14.7959
14.796
14.7961
14.8044
14.8463
14.9574
15.2533
16.3116
21.7233
57.7018
466.775
725.277
773.18
433.078
247.641
150.79
96.8117
65.677
47.7948
38.1935
34.2331
34.2704
38.3351
47.5666
64.6135
94.3741
146.895
245.219
433.276
788.746
706.364
727.3
760.761
432.431
247.609
150.973
96.234
64.6323
46.5485
36.8819
33.215
33.3338
37.4087
46.614
63.6972
93.338
145.777
242.355
424.664
786.222
712.475
725.228
772.74
428.662
249.262
150.998
96.7839
65.3821
47.3212
37.5604
34.2741
34.4452
38.5436
47.8932
64.9118
94.4848
145.093
244.252
426.082
782.588
716.666
729.865
756.651
438.457
249.375
150.281
97.3024
66.0983
48.0162
38.0545
34.4154
34.5373
38.5881
47.8482
64.9182
94.4373
145.034
243.411
423.486
767.534
742.7
732.412
778.594
439.006
248.622
150.267
97.2632
66.0792
47.9656
36.995
34.2566
34.4137
38.3936
47.734
64.708
93.973
145.528
240.296
423.671
778.003
738.776
753.931
792.994
437.795
245.659
150.244
97.0983
65.891
47.9749
37.8753
34.3714
34.3822
38.0758
47.4819
64.4091
94.1529
147.206
242.32
425.441
787.753
740.032
748.329
788.71
434.623
246.384
151.017
97.0503
65.7475
47.8573
37.7211
34.2433
34.2514
37.7438
46.6755
64.0252
95.1645
145.962
238.159
430.801
784.892
728.653
741.728
783.913
424.721
247.103
150.78
96.691
64.6414
46.9066
38.0496
34.2131
34.1851
38.4407
47.9081
64.623
95.3155
149.337
243.605
421.771
780.775
705.529
721.129
768.701
431.455
244.697
149.348
95.7464
65.6215
47.7349
37.1585
33.8731
33.9395
38.2028
47.652
64.8093
94.0618
149.41
248.469
433.81
777.419
707.016
723.649
775.303
424.468
245.636
149.626
96.3874
65.6466
47.7497
37.1471
33.5713
32.876
37.0812
46.5075
63.8451
94.7855
148.729
247.842
430.966
761.049
728.28
738.978
768.345
427.76
243.614
148.441
95.8053
65.2466
47.574
37.0096
33.5059
33.096
37.3432
46.8085
64.2516
95.5777
149.438
246.927
422.779
775.273
708.062
743.566
769.631
431.62
242.731
148.088
94.7986
64.968
47.5781
37.2532
32.9687
33.1482
37.3393
46.8127
64.3089
95.3687
149.182
246.068
431.373
760.667
711.782
742.61
768.41
428.853
241.909
147.822
95.3675
64.7494
47.5809
38.0816
33.6679
33.7076
37.8559
47.3713
64.9592
94.269
147.342
241.372
422.673
782.72
735.186
739.128
767.295
424.836
241.998
147.684
95.1457
63.7344
47.4185
38.1126
33.0516
33.0842
37.1385
47.0794
65.0382
95.2718
148.679
243.586
429.526
778.286
726.271
728.162
768.896
419.883
243.549
148.43
94.514
65.0209
46.9049
38.2456
34.3926
34.4297
38.3218
46.6475
64.8412
94.442
147.971
243.591
435.451
770.019
745.263
706.594
759.708
428.558
246.996
149.24
95.4576
65.1
48.2142
38.0166
34.374
34.4462
38.4072
47.5316
64.849
94.9263
148.089
245.066
433.326
753.129
720.432
707.945
761.863
421.911
246.403
148.155
96.6661
64.3971
48.4512
38.9377
34.4458
34.3745
38.3817
46.8212
64.465
93.6751
146.042
241.778
431.097
767.839
740.257
728.861
762.822
431.624
246.631
150.166
97.2182
66.1879
48.6022
38.8902
34.1834
34.194
38.3666
47.6788
64.3631
93.8993
145.88
241.494
421.565
772.13
703.914
722.532
766.386
429.385
245.837
150.037
97.2551
66.128
48.5896
38.7315
33.1205
33.9925
38.234
47.7212
63.4831
94.0671
145.015
238.699
427.084
779.118
702.416
714.041
776.19
427.149
244.996
149.841
97.2864
65.1991
47.7168
38.6853
33.5954
33.83
37.4253
47.7422
63.8008
93.9371
144.823
237.495
416.241
760.493
704.255
729.683
770.874
416.563
243.956
149.494
97.3407
66.6727
48.8944
38.7439
33.8374
33.3996
38.0317
47.9908
64.0455
93.3733
145.708
237.987
418.944
760.925
710.997
707.658
752.79
421.874
243.968
148.657
97.1436
66.4929
48.8177
38.0222
34.1264
34.1737
38.4239
48.0183
64.8515
94.2237
144.877
239.446
421.259
758.644
684.206
729.295
767.38
427.468
241.925
149.845
97.1368
66.3449
48.9248
38.8297
33.2715
33.1702
37.3928
47.7596
64.7796
94.2434
146.402
240.573
410.821
767.671
702.554
714.71
750.421
424.887
245.293
149.822
96.2207
65.1211
48.7203
38.857
33.7009
33.6756
37.7714
47.6209
64.5831
93.3462
145.064
238.345
422.135
782.518
699.275
719.115
767.384
416.962
244.547
148.648
97.1058
65.7416
48.6422
38.7088
34.1506
34.1925
38.1424
47.3679
64.5338
94.5004
146.814
243.041
430.085
780.3
697.3
740.937
751.426
424.017
244.469
149.935
97.196
64.4925
48.4046
38.3774
33.2726
33.9281
37.8854
46.348
63.4574
94.2144
146.331
241.955
427.042
776.417
684.818
710.68
766.846
417.413
241.272
148.745
97.1993
65.3078
48.3249
37.549
33.9193
33.846
37.1169
46.6866
64.092
93.334
144.432
237.577
423.236
773.437
688.24
720.067
763.294
430.4
247.015
150.95
97.3719
66.0692
48.2582
37.6989
33.1323
33.0628
37.348
47.1683
64.8237
94.3255
145.967
240.775
412.538
758.238
712.569
693.643
755.25
428.649
246.383
150.592
96.3314
64.7596
47.4304
37.9569
33.5424
33.4015
37.8414
46.3864
64.7928
95.2975
146.858
240.507
417.869
776.724
710.054
699.405
736.252
421.051
242.591
150.212
97.1861
65.5418
48.6671
38.9629
34.2993
33.225
37.82
47.2883
64.8306
95.2364
146.312
239.094
418.09
764.171
720.084
702.656
764.737
436.156
246.7
150.054
96.97
66.2337
48.7497
38.9882
34.3057
33.2102
37.4788
46.3811
64.4581
95.0266
144.431
234.716
424.895
784.468
744.837
719.684
777.734
435.391
242.961
148.928
96.8646
65.2825
47.6683
38.6975
34.1505
33.3703
36.8201
46.9705
63.7595
95.0454
146.208
237.698
414.814
772.543
733.116
709.264
759.203
432.983
244.184
149.276
96.0746
65.9841
48.3647
38.6465
34.0193
33.2694
37.6483
46.981
64.629
95.1459
147.055
239.662
430.135
782.834
717.529
713.505
776.727
431.812
242.051
148.795
95.8164
64.874
47.3067
37.7377
33.1351
33.7
37.5025
45.9114
63.6239
94.2919
148.384
241.525
438.058
769.015
737.784
734.164
760.287
422.304
242.214
148.012
95.0721
64.9523
48.1254
38.5791
33.6507
33.7081
37.3887
46.0883
64.1869
94.8325
148.182
244.153
437.574
772.349
707.083
720.106
778.082
429.843
243.429
148.501
94.9074
64.7524
48.0112
38.4701
34.1417
33.6117
36.6031
45.8932
63.9283
94.4795
146.927
247.703
436.857
772.692
728.856
705.028
759.548
426.368
245.162
149.282
95.1184
64.6253
47.2244
38.1508
34.0713
33.5134
37.1639
46.1748
63.087
93.4823
148.09
246.902
434.783
776.729
713.045
706.602
770.736
417.501
244.03
149.088
95.8314
65.0229
48.009
37.4684
33.8607
32.5412
36.26
45.3555
63.6783
93.8464
147.974
245.538
426.609
787.403
707.252
712.63
778.657
420.366
241.962
148.753
95.9004
65.8681
48.1468
38.289
34.0443
33.1688
37.3883
46.4358
63.6801
94.2207
146.572
242.444
434.338
774.348
723.881
726.543
772.864
423.559
244.703
148.589
95.0813
65.7724
47.2641
37.2375
33.8646
33.6128
37.2581
46.1565
62.687
94.0084
147.405
243.667
427.512
791.626
720.712
701.356
752.216
412.199
243.781
147.485
96.0129
65.7816
48.0822
37.6589
33.7423
33.4892
36.5675
45.4996
63.3198
93.0683
147.923
245.314
429.135
787.199
714.784
722.537
763.886
422.921
243.98
148.215
95.5329
65.6877
48.0548
38.056
33.4468
32.8704
37.3036
46.4894
63.5933
93.0429
147.416
243.411
428.477
771.272
731.443
708.511
772.656
428.434
243.278
147.574
96.2303
65.5101
47.3762
37.2882
32.5171
33.1953
36.4852
45.3788
63.3069
92.6253
146.115
245.779
432.905
778.77
713.746
693.924
766.019
418.998
239.449
148.225
96.2163
65.0199
48.7178
38.7238
33.5714
32.9994
36.8735
45.7295
63.1485
92.8476
146.427
242.913
439.271
783.026
735.964
696.671
746.678
426.975
242.324
148.038
95.9458
66.2858
48.952
38.8584
34.377
33.9938
37.4617
46.052
62.8733
91.413
147.179
244.98
438.582
795.341
709.906
717.893
767.947
426.14
244.909
148.289
97.0666
65.699
48.8659
38.0617
33.6104
34.1022
36.7498
44.9655
62.054
92.3356
147.062
241.644
436.012
792.285
710.852
703.749
774.731
417.327
244.56
149.159
97.4186
66.9652
49.1956
39.0944
34.3482
34.2523
38.0249
46.2914
63.2257
93.5285
147.158
243.191
433.784
788.035
715.858
719.2
757.685
425.205
244.703
148.015
97.2815
66.9795
49.1518
39.0282
33.5808
33.9553
38.0317
47.1681
64.2837
92.6808
146.913
238.992
425.77
773.581
729.694
696.86
763.368
419.24
244.234
148.979
97.2737
66.8227
49.034
39.337
34.5977
33.2286
37.1004
47.263
64.4426
94.8282
147.377
240.952
435.429
791.211
696.643
716.946
767.8
427.601
243.932
147.926
97.1417
66.6108
48.0361
39.1693
34.6594
33.8252
37.7485
46.6453
63.4408
94.858
147.308
240.666
433.824
788.276
703.676
702.541
778.1
420.626
242.711
148.883
96.8042
65.9205
48.6995
39.1327
34.7139
34.72
38.6912
47.662
64.5986
95.0483
147.093
242.275
431.122
784.278
708.342
707.262
774.636
427.154
240.091
149.619
97.3799
66.6371
48.5521
38.8761
33.8758
34.7166
38.8143
47.1651
63.7445
94.9978
147.75
237.608
422.601
769.924
733.326
730.942
757.817
424.468
242.177
149.939
97.2791
66.3479
47.4263
38.2285
34.7185
34.7745
38.9288
48.1992
65.1508
95.086
147.975
241.024
432.559
782.434
726.264
730.132
761.878
417.315
242.855
149.813
96.6509
66.0915
47.9393
39.1136
34.8022
34.7286
38.9325
48.128
64.9492
94.7211
147.722
242.907
425.996
792.404
747.091
733.058
757.955
417.757
240.781
149.637
97.1746
65.4362
48.5013
38.997
33.9619
33.793
38.6499
47.9052
64.1566
93.5725
147.959
247.338
436.042
789.95
727.839
725.789
755.159
417.137
241.609
149.025
97.059
66.3005
48.3842
38.7674
34.6331
34.537
38.5368
47.9759
65.6039
94.9351
148.421
246.637
434.72
785.933
712.011
700.909
750.458
419.64
242.631
149.443
96.4037
65.3749
47.1776
38.369
34.3428
34.4073
38.3229
47.8807
64.9109
95.5983
148.238
245.688
432.636
782.253
737.633
709.958
750.616
412.688
241.939
149.23
96.6918
65.9442
47.3495
37.3993
33.2913
34.1023
37.3361
46.9597
65.6128
96.4266
148.494
244.551
430.483
764.339
722.644
676.069
757.705
418.746
241.681
149.051
96.0781
65.7517
47.4863
37.6523
33.7728
34.264
37.7411
47.2866
65.2731
96.0884
148.591
243.122
424.778
773.803
742.663
681.722
753.312
409.746
239.698
148.788
96.5794
64.9622
48.0533
37.7339
34.1859
34.2409
38.1279
46.2537
64.5291
95.3075
148.585
239.662
433.112
781.643
716.077
689.687
741.889
413.425
240.83
148.29
96.0806
65.3674
48.1163
38.2202
34.0611
34.1112
38.1381
46.9709
64.9848
95.5872
148.372
242.797
431.495
766.487
740.216
703.627
752.574
417.263
239.421
148.166
96.4824
65.7665
47.8684
37.2354
33.2139
33.7492
37.872
47.3545
64.7293
94.6848
147.797
243.528
429.795
780.588
720.099
709.717
737.447
409.345
240.385
148.021
96.2601
65.522
47.6597
37.8637
33.5918
33.5071
37.5017
46.3389
64.2508
94.3484
146.459
239.918
427.02
764.896
696.079
712.113
752.087
415.05
239.928
147.722
95.7959
64.3144
46.3385
36.5756
32.3538
32.2602
36.3628
46.0441
63.8846
93.7996
146.046
240.295
424.916
775.005
694.629
716.9
735.68
406.833
237.259
147.08
95.3939
64.1255
46.0945
36.2943
32.1735
32.1511
36.1711
45.5055
62.9007
93.3384
145.308
236.866
420.275
785.432
697.821
719.819
744.784
408.186
237.921
146.808
94.4279
63.6761
45.4342
35.5098
31.5963
31.5898
35.5825
45.0979
62.339
92.9207
145.087
236.741
419.487
782.06
697.354
711.499
725.215
405.964
235.471
146.141
93.6968
62.5706
45.0323
35.2389
31.6993
31.2939
35.1371
44.4644
61.4909
92.2355
144.403
234.155
408.709
777.157
699.665
695.307
738.669
407.904
235.597
145.846
93.2084
62.0921
44.808
34.8392
31.3385
31.062
34.8206
43.571
60.5928
91.3955
143.78
232.887
410.409
773.285
715.675
695.892
745.343
405.287
233.747
144.908
92.3513
61.4802
44.2799
34.345
30.3129
30.4036
33.5794
42.6149
59.966
90.675
142.622
230.561
402.758
766.877
678.13
710.68
728.765
396.633
232.485
144.084
91.622
60.8047
43.6469
33.8442
29.9324
29.7008
33.2005
42.071
59.1178
89.6934
141.572
229.354
405.089
762.675
687.444
667.322
734.058
396.31
230.783
142.88
90.5808
60.1051
43.0389
33.2644
29.0869
28.7826
32.4729
41.2645
58.1293
88.6882
140.566
227.458
401.427
744.823
715.058
658.129
727.629
391.842
228.612
141.421
89.0836
58.7545
41.5727
32.5179
28.6023
28.2759
31.6938
40.1779
56.8562
87.2752
139.259
224.476
394.81
746.864
697.919
653.001
711.029
383.33
225.456
139.371
87.4205
57.0398
40.5619
31.8542
28.1211
27.7991
31.0187
39.0729
55.4396
85.6318
137.561
222.495
392.259
747.705
683.796
644.952
713.52
380.795
222.67
137.326
85.7362
55.7448
39.5687
31.1615
27.3695
27.2547
30.6124
38.3733
54.154
83.9084
135.542
220.159
386.268
740.54
701.751
642.581
706.382
375.828
219.31
134.943
83.8944
54.3313
38.1895
30.1019
26.8954
27.0804
30.6824
37.6912
52.9011
81.922
133.016
217.079
380.392
719.394
663.35
636.327
686.161
369.478
215.208
131.96
81.7161
52.7534
37.163
29.49
26.4317
26.6641
30.3395
37.2614
51.8102
80.196
131.013
213.174
376.545
715.781
685.985
628.621
680.411
363.764
210.241
128.554
79.2434
51.1865
36.2632
28.8291
25.8773
26.5523
29.9371
37.2133
50.9095
78.4164
128.37
209.878
371.665
701.175
648.513
631.285
666.614
355.797
205.292
125.007
76.8884
49.7702
35.2894
28.1445
25.3676
26.0587
29.3758
36.5389
49.7394
76.5153
125.264
202.368
364.185
691.752
658.666
565.643
647.433
344.5
199.486
120.937
74.2023
48.0205
34.1956
27.3468
24.6001
24.8765
27.9706
34.9556
48.3388
74.375
122.133
196.479
357.675
675.49
603.331
545.59
627.73
332.11
194.43
116.472
71.1886
46.1937
33.0349
26.5226
23.8522
23.9745
26.8713
33.6127
46.8275
72.2184
118.946
192.109
349.818
661.027
605.664
518.602
609.108
318.5
187.191
111.208
67.8108
44.1335
31.7925
25.6687
23.1583
23.2493
25.976
32.4178
45.2022
69.5643
114.956
190.119
340.302
644.45
600.837
505.039
590.022
305.352
177.017
105.383
64.1709
41.9865
30.5726
24.9118
22.5637
22.6413
25.1929
31.2497
43.3615
66.5903
110.5
190.214
326.868
623.245
576.597
490.313
569.366
292.815
169.829
99.7105
60.6489
39.9483
29.364
24.0953
21.9314
22.0202
24.3974
30.0097
41.2549
63.2649
105.078
179.913
314.493
601.021
597.163
481.352
545.942
279.692
160.061
93.0531
56.6731
37.8353
28.1735
23.3475
21.3462
21.4147
23.5938
28.7397
39.1584
59.6852
99.18
171.522
300.942
572.373
539.712
467.831
510.963
263.648
149.466
86.2765
52.8019
35.6502
26.9344
22.5899
20.7798
20.8335
22.791
27.4301
36.7883
55.3263
91.6039
159.775
284.878
547.181
478.686
459.614
482.964
247.682
137.289
78.8047
48.6505
33.4281
25.6746
21.7876
20.1672
20.2084
21.9403