/*--------------------------------*- C++ -*----------------------------------*\
  =========                 |
  \\      /  F ield         | OpenFOAM: The Open Source CFD Toolbox
   \\    /   O peration     | Website:  https://openfoam.org
    \\  /    A nd           | Version:  6
     \\/     M anipulation  |
\*---------------------------------------------------------------------------*/
FoamFile
{
    version     2.0;
    format      ascii;
    class       volScalarField;
    location    "11";
    object      k;
}
// * * * * * * * * * * * * * * * * * * * * * * * * * * * * * * * * * * * * * //

dimensions      [0 2 -2 0 0 0 0];

internalField   nonuniform List<scalar> 
10000
(
0.190645
0.48697
0.428386
0.386977
0.368607
0.363084
0.362718
0.363079
0.363364
0.363519
0.363517
0.36325
0.363005
0.363482
0.365684
0.372778
0.391482
0.42985
0.483866
0.188564
0.188548
0.483802
0.428322
0.387454
0.369314
0.363598
0.36407
0.365194
0.365335
0.365439
0.365543
0.365532
0.36531
0.365291
0.368493
0.375383
0.392616
0.429749
0.482001
0.187147
0.186127
0.484597
0.427227
0.388262
0.368877
0.363087
0.363124
0.363626
0.363937
0.364268
0.364969
0.364834
0.364329
0.364733
0.36824
0.375487
0.393588
0.432049
0.485137
0.187705
0.185255
0.48171
0.425891
0.387148
0.36876
0.363033
0.364549
0.364753
0.364005
0.364875
0.364814
0.364224
0.365229
0.365056
0.368817
0.376217
0.393558
0.431488
0.484351
0.187686
0.185251
0.485702
0.426639
0.386345
0.369826
0.362524
0.361979
0.362623
0.363453
0.363808
0.363855
0.363758
0.364149
0.365325
0.369208
0.375988
0.394047
0.430967
0.478928
0.187467
0.185207
0.48557
0.425267
0.385079
0.367838
0.364108
0.362478
0.362727
0.364355
0.364725
0.364772
0.364126
0.36471
0.367202
0.370096
0.376795
0.395017
0.43084
0.481363
0.188821
0.184841
0.480754
0.428075
0.386154
0.368481
0.363022
0.363804
0.362692
0.36313
0.363492
0.36373
0.364036
0.3648
0.36711
0.369918
0.378697
0.396319
0.429496
0.47857
0.19014
0.18464
0.481912
0.429108
0.38703
0.36932
0.363729
0.362737
0.36325
0.364643
0.36414
0.364173
0.364541
0.36529
0.367032
0.370503
0.378905
0.397447
0.432244
0.483666
0.192257
0.18507
0.48157
0.429415
0.388543
0.372252
0.367249
0.365537
0.365458
0.365295
0.364647
0.364678
0.36499
0.365841
0.368018
0.373353
0.380112
0.398107
0.432351
0.481734
0.193654
0.185222
0.483252
0.429767
0.389835
0.372689
0.367592
0.364834
0.365299
0.365772
0.366202
0.366485
0.366811
0.367767
0.370135
0.374556
0.382723
0.40015
0.434676
0.483874
0.195114
0.185278
0.487016
0.430051
0.390418
0.374781
0.368558
0.365242
0.364909
0.365657
0.366184
0.366245
0.366164
0.366832
0.368877
0.374599
0.384313
0.402864
0.437781
0.487441
0.195247
0.186625
0.487023
0.429511
0.390587
0.374454
0.370016
0.367317
0.365529
0.366084
0.366336
0.366833
0.367282
0.367138
0.368966
0.373834
0.385253
0.40426
0.440262
0.493652
0.197531
0.186498
0.480553
0.426879
0.390405
0.375973
0.369726
0.367058
0.366465
0.365544
0.365572
0.366089
0.366448
0.367357
0.370429
0.374375
0.385899
0.405486
0.441165
0.490627
0.195119
0.186294
0.481988
0.429069
0.390308
0.373925
0.368273
0.366062
0.365558
0.365363
0.365401
0.365692
0.367114
0.367448
0.369696
0.375448
0.385265
0.405397
0.443659
0.495453
0.195924
0.186051
0.482424
0.428724
0.390459
0.375387
0.368286
0.367339
0.366792
0.365691
0.366022
0.365457
0.366024
0.3679
0.370788
0.37414
0.3831
0.404494
0.445111
0.496334
0.196772
0.187171
0.480468
0.426867
0.390025
0.372736
0.36931
0.365192
0.364855
0.365541
0.364858
0.365152
0.366614
0.368137
0.370334
0.37543
0.382539
0.403374
0.444627
0.495143
0.19604
0.188313
0.487617
0.429839
0.39061
0.372416
0.367477
0.364949
0.365663
0.364997
0.364423
0.364645
0.365363
0.36734
0.369319
0.37342
0.382086
0.402103
0.441852
0.494055
0.19523
0.188353
0.488996
0.431893
0.39027
0.37232
0.364473
0.364874
0.364685
0.364378
0.364604
0.365455
0.365259
0.36682
0.368459
0.372543
0.382902
0.401256
0.440528
0.493541
0.19384
0.189676
0.488234
0.431583
0.390012
0.370003
0.363228
0.362454
0.363187
0.363692
0.364032
0.364408
0.36477
0.365735
0.367011
0.370471
0.379168
0.39941
0.438221
0.488601
0.192489
0.189399
0.486953
0.430903
0.39027
0.37001
0.363113
0.362413
0.36346
0.36382
0.364022
0.364469
0.365318
0.364399
0.365152
0.368193
0.376269
0.397269
0.436413
0.487822
0.191688
0.189447
0.483068
0.42766
0.388358
0.369886
0.36278
0.362199
0.364893
0.364716
0.363988
0.364373
0.36437
0.364049
0.365913
0.368897
0.375886
0.3969
0.434591
0.483932
0.190432
0.191226
0.487688
0.428383
0.387756
0.370173
0.364112
0.361873
0.363499
0.363108
0.363755
0.365308
0.365329
0.363368
0.363412
0.366082
0.374799
0.395342
0.432917
0.483115
0.190907
0.191338
0.488343
0.42862
0.387392
0.368138
0.361929
0.361156
0.361959
0.362686
0.363341
0.364158
0.364174
0.362851
0.36298
0.365709
0.375501
0.394308
0.432463
0.482205
0.187673
0.191332
0.487639
0.429925
0.38823
0.368709
0.362517
0.362976
0.362857
0.362799
0.36317
0.363339
0.362969
0.362258
0.362351
0.364808
0.373065
0.393416
0.433044
0.482402
0.187805
0.189547
0.486684
0.429228
0.388388
0.369413
0.36299
0.3618
0.363351
0.363078
0.363425
0.363741
0.364122
0.362589
0.362615
0.365133
0.373365
0.393658
0.433456
0.484871
0.187926
0.189597
0.482418
0.426807
0.388754
0.371811
0.365057
0.362309
0.363145
0.363862
0.36436
0.364793
0.363444
0.362494
0.362726
0.365334
0.373566
0.393795
0.431885
0.485609
0.188019
0.189544
0.485131
0.428697
0.389373
0.371714
0.365676
0.362485
0.36218
0.362437
0.362907
0.364131
0.3645
0.364142
0.363696
0.367634
0.37568
0.394582
0.433718
0.484146
0.188384
0.190095
0.487816
0.430321
0.390221
0.371708
0.36609
0.364547
0.364365
0.364071
0.363101
0.363582
0.363598
0.36366
0.364953
0.367661
0.375474
0.394747
0.43229
0.489722
0.188907
0.190759
0.486834
0.429442
0.391175
0.372203
0.365362
0.363776
0.364068
0.363975
0.363093
0.362799
0.362637
0.362855
0.36472
0.367861
0.375299
0.394844
0.433836
0.489189
0.189051
0.191145
0.483662
0.431635
0.391979
0.373219
0.366093
0.365339
0.363766
0.364152
0.364582
0.364562
0.364467
0.364503
0.364955
0.367874
0.376744
0.395072
0.435437
0.490141
0.189402
0.191419
0.487002
0.43157
0.392855
0.375443
0.366643
0.364327
0.363953
0.364813
0.364765
0.364534
0.364259
0.364083
0.364097
0.366849
0.375579
0.394993
0.434901
0.488971
0.188992
0.191888
0.484749
0.429388
0.393399
0.374818
0.367572
0.366651
0.365986
0.365498
0.365217
0.36495
0.364228
0.364769
0.364544
0.367195
0.375291
0.394942
0.434557
0.489399
0.189033
0.193013
0.490298
0.432371
0.395163
0.375792
0.36821
0.366734
0.366155
0.365756
0.365539
0.365451
0.365684
0.365657
0.366687
0.369779
0.377511
0.395704
0.432639
0.48744
0.189932
0.193087
0.487565
0.432977
0.396648
0.378485
0.370546
0.366691
0.366142
0.36531
0.365405
0.36529
0.365442
0.365711
0.36645
0.369542
0.377765
0.396703
0.435709
0.487306
0.190305
0.194287
0.493193
0.434648
0.398942
0.378605
0.369843
0.366826
0.36673
0.365263
0.364924
0.364694
0.364806
0.36575
0.365832
0.368921
0.378027
0.397275
0.43749
0.489676
0.191627
0.198861
0.494676
0.436975
0.400417
0.37944
0.370368
0.367122
0.366876
0.365518
0.365324
0.366091
0.366358
0.366224
0.366128
0.369205
0.377947
0.398125
0.436888
0.48553
0.191787
0.201188
0.496164
0.438749
0.401868
0.380431
0.372494
0.368796
0.367146
0.366543
0.366195
0.365898
0.365919
0.365421
0.366673
0.37011
0.378578
0.398804
0.437132
0.488007
0.19204
0.201708
0.496893
0.441576
0.402822
0.380593
0.370882
0.367161
0.365771
0.365253
0.365071
0.364965
0.365589
0.365747
0.368391
0.372419
0.380442
0.399457
0.436551
0.486959
0.191456
0.200942
0.498318
0.443135
0.402645
0.382558
0.371498
0.367342
0.365727
0.365041
0.364859
0.364654
0.364684
0.36592
0.36683
0.370892
0.379467
0.399441
0.435311
0.484761
0.191861
0.20107
0.497895
0.444257
0.402308
0.382362
0.3736
0.369397
0.366388
0.36529
0.365083
0.365548
0.364488
0.364859
0.366859
0.372808
0.380513
0.398844
0.437247
0.490082
0.194077
0.197573
0.497208
0.443722
0.401824
0.381143
0.372659
0.368643
0.367435
0.365501
0.365338
0.365223
0.364398
0.364912
0.367558
0.37135
0.377521
0.398044
0.437469
0.489283
0.193518
0.196526
0.494684
0.440587
0.401128
0.38249
0.37142
0.369855
0.366563
0.365332
0.364432
0.364514
0.36427
0.365403
0.366159
0.369947
0.376675
0.3975
0.434548
0.488346
0.192058
0.193061
0.489682
0.438243
0.400041
0.380998
0.370602
0.368935
0.367213
0.364894
0.364334
0.364749
0.364468
0.364182
0.366472
0.369063
0.375829
0.394879
0.432822
0.484425
0.190727
0.190864
0.487
0.43585
0.398182
0.379845
0.370303
0.367678
0.366276
0.36556
0.364344
0.363974
0.364484
0.363772
0.364643
0.367594
0.376618
0.394979
0.432071
0.483727
0.187924
0.190447
0.487085
0.434689
0.396586
0.378178
0.371021
0.365783
0.364809
0.364707
0.365159
0.364098
0.363852
0.363644
0.36504
0.368675
0.375474
0.394872
0.432113
0.482983
0.188019
0.190082
0.485132
0.433313
0.394522
0.375621
0.368644
0.366433
0.366405
0.366115
0.365365
0.364212
0.363614
0.363771
0.366256
0.367054
0.375073
0.39473
0.433615
0.487665
0.188376
0.189435
0.484895
0.432746
0.393554
0.373936
0.366587
0.364756
0.365544
0.365584
0.364817
0.364425
0.3637
0.363532
0.365113
0.36667
0.376017
0.395012
0.434308
0.487673
0.187809
0.189485
0.486281
0.433313
0.394673
0.375355
0.368019
0.365218
0.364847
0.364831
0.36485
0.365482
0.363851
0.363324
0.363968
0.36664
0.374945
0.395074
0.433328
0.487532
0.188071
0.189562
0.4891
0.434346
0.394707
0.376314
0.369263
0.365612
0.364927
0.364692
0.364583
0.365198
0.364632
0.364455
0.365964
0.368645
0.37593
0.395637
0.434888
0.487935
0.188536
0.190096
0.488705
0.434184
0.395108
0.376759
0.369485
0.365984
0.365203
0.364723
0.364373
0.364371
0.3633
0.363226
0.364786
0.367084
0.375294
0.395485
0.434114
0.486923
0.188956
0.18996
0.483805
0.433463
0.395569
0.377231
0.369675
0.366448
0.366569
0.364975
0.364244
0.363449
0.362998
0.363785
0.363947
0.367141
0.376043
0.395737
0.432909
0.484127
0.189195
0.191719
0.485543
0.432829
0.396545
0.377224
0.369099
0.367714
0.365566
0.365123
0.365365
0.363591
0.363614
0.362786
0.363964
0.36893
0.376142
0.39637
0.435545
0.489408
0.190278
0.192955
0.486271
0.43421
0.398147
0.377974
0.368995
0.367144
0.365751
0.365629
0.364649
0.363131
0.36262
0.362651
0.364039
0.368887
0.377247
0.396197
0.436733
0.490163
0.191464
0.193356
0.488884
0.43592
0.399391
0.380394
0.369037
0.365911
0.366522
0.36444
0.363704
0.363254
0.362889
0.362853
0.36394
0.36818
0.376139
0.395468
0.435752
0.486242
0.190873
0.193881
0.489709
0.437544
0.399619
0.379438
0.368835
0.36538
0.365699
0.365079
0.364036
0.364461
0.364449
0.363441
0.364467
0.366674
0.374681
0.395016
0.43545
0.489633
0.191118
0.194331
0.48914
0.438913
0.399272
0.378199
0.370021
0.365433
0.364473
0.363994
0.363616
0.363542
0.364073
0.364399
0.363912
0.366365
0.374674
0.394547
0.432637
0.488764
0.190563
0.194586
0.487868
0.440099
0.398491
0.37899
0.368501
0.365508
0.364842
0.364249
0.363672
0.363331
0.363259
0.363693
0.364118
0.366584
0.374964
0.395001
0.432564
0.486848
0.189466
0.19361
0.492208
0.440394
0.397888
0.376901
0.368025
0.365481
0.366101
0.365356
0.363811
0.3634
0.363806
0.362852
0.364053
0.366595
0.374875
0.394402
0.432807
0.486207
0.189127
0.192742
0.490214
0.438647
0.39756
0.378576
0.368434
0.365526
0.364645
0.363987
0.36357
0.363161
0.362685
0.36254
0.363627
0.368169
0.375323
0.39442
0.431492
0.485657
0.189063
0.191709
0.484888
0.437138
0.397016
0.377529
0.368744
0.366075
0.36595
0.364182
0.363703
0.363848
0.362945
0.362748
0.363788
0.367093
0.375445
0.394774
0.431163
0.481083
0.188219
0.190624
0.484486
0.435435
0.395957
0.378904
0.369286
0.366147
0.364859
0.363844
0.363519
0.363316
0.36309
0.362942
0.364311
0.369415
0.377937
0.395864
0.432231
0.482928
0.188358
0.190221
0.483474
0.434644
0.395507
0.378288
0.370989
0.366901
0.366083
0.365027
0.363908
0.364232
0.36347
0.363536
0.364852
0.369401
0.377925
0.39657
0.43333
0.485976
0.188469
0.189642
0.484044
0.433454
0.394846
0.376255
0.368927
0.367527
0.364443
0.3638
0.363648
0.363923
0.364967
0.365702
0.367098
0.370003
0.376964
0.39612
0.43412
0.486102
0.188783
0.189997
0.48637
0.432895
0.394184
0.377107
0.369462
0.366227
0.364276
0.363994
0.364084
0.364996
0.365222
0.365612
0.367072
0.369613
0.377028
0.396065
0.433429
0.482401
0.188592
0.190998
0.486433
0.433104
0.394172
0.375178
0.367516
0.364949
0.364294
0.364325
0.365067
0.365154
0.36528
0.365231
0.366811
0.371527
0.378321
0.394947
0.432853
0.483795
0.188747
0.19044
0.485674
0.433265
0.39463
0.376202
0.368485
0.365755
0.364988
0.364762
0.36477
0.364797
0.364917
0.365524
0.368041
0.370444
0.376259
0.394527
0.431119
0.484523
0.188847
0.190244
0.485375
0.433097
0.396108
0.378601
0.369339
0.366365
0.365552
0.365235
0.365254
0.366061
0.366316
0.366761
0.367548
0.369391
0.376334
0.394828
0.43127
0.483805
0.188778
0.190894
0.484086
0.432537
0.395548
0.377437
0.370007
0.367129
0.366438
0.367065
0.366786
0.365878
0.365679
0.366034
0.366897
0.369444
0.376605
0.394515
0.43126
0.48078
0.189267
0.18979
0.483437
0.432238
0.396092
0.380078
0.371328
0.368101
0.367173
0.367684
0.367853
0.367787
0.367775
0.3674
0.368268
0.371019
0.379151
0.395809
0.431835
0.484596
0.189668
0.189289
0.482839
0.43113
0.397512
0.381331
0.37451
0.371074
0.369444
0.368674
0.368583
0.368785
0.368938
0.368562
0.369591
0.37354
0.379624
0.395578
0.430957
0.483457
0.189619
0.189552
0.481953
0.430953
0.398152
0.382613
0.375438
0.371187
0.369569
0.368845
0.368678
0.369533
0.370307
0.371318
0.372485
0.374331
0.380239
0.39589
0.429481
0.481801
0.189763
0.189442
0.477343
0.429691
0.399009
0.383877
0.377005
0.373807
0.370842
0.369916
0.370305
0.370577
0.371287
0.372264
0.372984
0.374104
0.379408
0.39512
0.429211
0.481629
0.189285
0.189447
0.476809
0.428488
0.397609
0.384973
0.378563
0.375484
0.373311
0.372168
0.371783
0.371874
0.372447
0.373489
0.374911
0.376484
0.380262
0.393839
0.427828
0.480014
0.189073
0.186356
0.474844
0.426911
0.396712
0.386002
0.380141
0.376956
0.37477
0.373322
0.372736
0.372759
0.373376
0.374412
0.375427
0.375459
0.379735
0.393721
0.426802
0.478951
0.186933
0.184888
0.4741
0.423848
0.396439
0.386991
0.38227
0.378734
0.376145
0.374572
0.373878
0.373867
0.37449
0.37564
0.377007
0.37815
0.382206
0.395307
0.425573
0.476973
0.185907
0.184069
0.472534
0.421939
0.397778
0.387559
0.383748
0.380362
0.377746
0.376004
0.375115
0.375018
0.375654
0.376859
0.378123
0.377623
0.380335
0.393483
0.423941
0.475396
0.18511
0.182596
0.468488
0.419242
0.394194
0.384653
0.384665
0.38206
0.379449
0.377552
0.376489
0.376284
0.376868
0.378069
0.37946
0.380067
0.380237
0.395095
0.421915
0.471487
0.184264
0.181531
0.466579
0.417293
0.395705
0.384445
0.385382
0.383726
0.381188
0.379168
0.377998
0.377733
0.378275
0.379397
0.380381
0.378861
0.379225
0.391408
0.418777
0.469566
0.183463
0.180377
0.463031
0.413989
0.389384
0.383762
0.386869
0.385278
0.382836
0.380826
0.379649
0.379357
0.379847
0.380898
0.381842
0.381395
0.378472
0.387489
0.414804
0.466976
0.182723
0.17895
0.45878
0.406883
0.387705
0.383144
0.387325
0.386778
0.384728
0.382824
0.381629
0.381275
0.381648
0.382456
0.382655
0.379645
0.378194
0.385194
0.408781
0.46369
0.180361
0.176261
0.454247
0.405051
0.385564
0.384038
0.388589
0.388602
0.386851
0.385079
0.383896
0.383496
0.383776
0.38442
0.384304
0.380569
0.379241
0.383152
0.406327
0.458587
0.178002
0.173762
0.445851
0.39846
0.381619
0.386334
0.389421
0.390642
0.389293
0.387669
0.386506
0.386046
0.386196
0.386661
0.386433
0.383472
0.375622
0.379015
0.400348
0.450127
0.173466
0.170565
0.434611
0.38639
0.376934
0.385586
0.391624
0.392943
0.39192
0.390483
0.389378
0.388854
0.388828
0.388976
0.388219
0.384142
0.374625
0.373453
0.391826
0.437765
0.165782
0.168074
0.426642
0.378057
0.378299
0.384914
0.392216
0.3949
0.39447
0.393369
0.392392
0.391825
0.391601
0.391341
0.389939
0.384885
0.374081
0.366548
0.383122
0.422534
0.154849
0.163841
0.417234
0.375516
0.373552
0.381541
0.390421
0.396098
0.396755
0.396162
0.395392
0.394814
0.39438
0.393662
0.391159
0.384363
0.374457
0.364395
0.374544
0.407751
0.151359
0.155062
0.401165
0.374871
0.377719
0.382042
0.391288
0.397522
0.39884
0.398674
0.398116
0.39754
0.396932
0.39589
0.393248
0.38561
0.375105
0.362564
0.359276
0.390778
0.147777
0.148456
0.381432
0.357439
0.369179
0.38207
0.394496
0.398381
0.400124
0.400416
0.400127
0.399612
0.398875
0.397564
0.394904
0.389942
0.380789
0.365763
0.3541
0.377799
0.148027
0.149119
0.364904
0.35022
0.367081
0.382833
0.394267
0.397782
0.399677
0.400638
0.400892
0.400496
0.399597
0.397759
0.394095
0.389621
0.380097
0.362507
0.347239
0.361845
0.149623
0.151188
0.345385
0.35095
0.374257
0.384016
0.393258
0.398723
0.40037
0.400405
0.400372
0.399927
0.398908
0.396915
0.393979
0.390396
0.382439
0.368793
0.346686
0.345717
0.152708
0.158241
0.336183
0.351346
0.373615
0.384512
0.39467
0.397871
0.399146
0.399617
0.399668
0.39938
0.39858
0.396325
0.393563
0.390024
0.382893
0.370571
0.347239
0.335508
0.166548
0.171949
0.337115
0.360855
0.373406
0.383927
0.391942
0.395271
0.396263
0.396478
0.396496
0.396445
0.396273
0.395516
0.392775
0.388717
0.382638
0.374901
0.358501
0.332034
0.175871
0.181954
0.331288
0.362426
0.375163
0.383259
0.389333
0.39105
0.391339
0.391298
0.391293
0.391377
0.391544
0.391621
0.391234
0.389175
0.383862
0.380273
0.366166
0.337198
0.18799
0.200085
0.342726
0.370969
0.378419
0.383084
0.386203
0.386116
0.385609
0.385241
0.385131
0.385269
0.385644
0.386189
0.386688
0.386553
0.383874
0.382313
0.373101
0.341771
0.203335
0.222835
0.353702
0.378214
0.380714
0.382967
0.382135
0.380946
0.380009
0.379421
0.379198
0.379323
0.379799
0.380656
0.381847
0.383278
0.384407
0.384853
0.381947
0.354536
0.221944
0.241831
0.367471
0.390063
0.386237
0.38236
0.379324
0.377197
0.375812
0.374991
0.374635
0.374705
0.375186
0.376155
0.377668
0.37993
0.382852
0.385431
0.389334
0.366669
0.243024
0.269824
0.389432
0.398464
0.388077
0.381476
0.377387
0.374827
0.373296
0.372454
0.372089
0.372119
0.372528
0.373435
0.37501
0.37762
0.38166
0.387713
0.399223
0.389883
0.268743
0.291477
0.414765
0.407003
0.389456
0.381088
0.376462
0.37387
0.372512
0.371828
0.371532
0.371543
0.371846
0.372556
0.373916
0.376521
0.381127
0.389404
0.40666
0.41498
0.292923
0.315354
0.437489
0.410596
0.389455
0.380149
0.37575
0.373608
0.372501
0.371946
0.371708
0.371717
0.371955
0.372531
0.373626
0.375783
0.380145
0.389475
0.410602
0.43773
0.314885
0.337434
0.446745
0.407651
0.385792
0.377976
0.374955
0.373647
0.373066
0.372819
0.372738
0.372745
0.372834
0.373101
0.373671
0.374975
0.377974
0.385722
0.407525
0.446975
0.338248
0.364799
0.423078
0.386862
0.377591
0.375362
0.374594
0.374328
0.37426
0.374247
0.374244
0.374245
0.374244
0.374261
0.374328
0.374598
0.375364
0.377591
0.386847
0.423091
0.36459
0.546401
0.982657
0.815669
0.67568
0.581183
0.516964
0.472579
0.443517
0.426087
0.417684
0.416341
0.42218
0.436534
0.462327
0.504244
0.568733
0.665997
0.807014
0.969511
0.538436
0.549103
0.984953
0.81757
0.678396
0.583526
0.518517
0.473053
0.443348
0.425255
0.417328
0.416017
0.421945
0.436506
0.463325
0.50593
0.572428
0.667654
0.807982
0.96935
0.550556
0.553394
0.984826
0.817909
0.679192
0.584604
0.521091
0.473471
0.443212
0.425231
0.41713
0.41583
0.421741
0.436256
0.462469
0.505191
0.569125
0.667293
0.807231
0.961884
0.543234
0.564985
0.983238
0.817476
0.680461
0.585727
0.518671
0.47403
0.443593
0.4257
0.416879
0.414828
0.420841
0.435875
0.461596
0.503581
0.569351
0.669517
0.808003
0.968525
0.537165
0.561176
0.979443
0.816947
0.681664
0.590278
0.521168
0.474494
0.444058
0.42509
0.416127
0.415093
0.420778
0.435626
0.461633
0.503737
0.570386
0.666852
0.807142
0.967239
0.538308
0.55994
0.977484
0.818281
0.68552
0.58596
0.518707
0.474151
0.444339
0.426235
0.416693
0.4144
0.420364
0.43556
0.461892
0.504185
0.568966
0.665716
0.805638
0.963752
0.540266
0.572852
0.971459
0.8196
0.684557
0.589774
0.519006
0.474261
0.444197
0.425865
0.415822
0.414132
0.419989
0.43533
0.462769
0.506473
0.571848
0.667313
0.803687
0.959647
0.549401
0.556612
0.977042
0.822173
0.683584
0.587664
0.518977
0.473282
0.443787
0.425595
0.41618
0.414293
0.419527
0.43499
0.462002
0.506169
0.572307
0.66843
0.806999
0.967499
0.531466
0.548726
0.98437
0.82256
0.683867
0.588866
0.518822
0.472965
0.443362
0.425315
0.416007
0.414233
0.419641
0.435074
0.46221
0.506858
0.573981
0.670959
0.804375
0.962184
0.541757
0.561929
0.98465
0.822926
0.684109
0.592947
0.519208
0.472932
0.442631
0.424195
0.414915
0.414053
0.420202
0.43521
0.462242
0.506177
0.574512
0.673019
0.808589
0.970671
0.53275
0.559987
0.984238
0.821637
0.684739
0.585149
0.518854
0.473344
0.44253
0.424789
0.415655
0.413707
0.420112
0.43504
0.462323
0.506435
0.575065
0.67372
0.807722
0.963151
0.533364
0.557528
0.981776
0.819593
0.676186
0.578469
0.513932
0.471169
0.441987
0.424427
0.415594
0.414023
0.419991
0.435166
0.462361
0.507792
0.571388
0.673115
0.810113
0.969065
0.54322
0.570576
0.980953
0.816142
0.674343
0.577963
0.513135
0.469952
0.441244
0.423253
0.414423
0.412868
0.419682
0.435009
0.46224
0.505871
0.570428
0.669752
0.810997
0.973264
0.530673
0.557161
0.977748
0.814774
0.674624
0.578744
0.513523
0.469988
0.441154
0.42329
0.414767
0.412791
0.419271
0.434717
0.462458
0.507642
0.570031
0.668644
0.812111
0.970372
0.529631
0.546157
0.976063
0.813362
0.674456
0.578874
0.513901
0.46991
0.440777
0.422987
0.414641
0.41286
0.418593
0.434422
0.462897
0.504268
0.569235
0.667711
0.811428
0.976889
0.529204
0.53445
0.97416
0.81371
0.675327
0.580083
0.514675
0.470159
0.440815
0.423065
0.414437
0.413127
0.419066
0.433899
0.462069
0.504489
0.567836
0.665864
0.807054
0.972918
0.525727
0.5445
0.972103
0.812461
0.67562
0.580875
0.515326
0.470475
0.440931
0.42225
0.413708
0.412524
0.418502
0.433512
0.461327
0.506591
0.569349
0.66579
0.803978
0.967732
0.524995
0.537404
0.961889
0.811779
0.678908
0.585614
0.518696
0.471771
0.441303
0.423604
0.415341
0.414049
0.419417
0.433238
0.459147
0.500937
0.562576
0.658083
0.798699
0.961406
0.522382
0.545835
0.964087
0.810877
0.677684
0.584946
0.518507
0.47258
0.442545
0.424736
0.415693
0.414007
0.419364
0.433248
0.458359
0.498745
0.561582
0.658198
0.796183
0.954479
0.525005
0.529376
0.965419
0.811343
0.678809
0.587152
0.519855
0.473406
0.443245
0.424779
0.415541
0.41392
0.419277
0.433423
0.459451
0.500543
0.560446
0.656267
0.795865
0.956719
0.536033
0.531068
0.972068
0.814673
0.683683
0.59381
0.523785
0.474775
0.443593
0.424251
0.415075
0.413975
0.418843
0.433302
0.458558
0.498547
0.56064
0.656652
0.795089
0.958256
0.522975
0.53141
0.97139
0.814423
0.684818
0.594556
0.524699
0.475625
0.444111
0.425503
0.415496
0.41428
0.419502
0.433587
0.458835
0.498783
0.561137
0.656751
0.794429
0.964513
0.524772
0.53425
0.968477
0.814633
0.687652
0.595229
0.526187
0.476866
0.445173
0.42555
0.415996
0.414553
0.419623
0.433879
0.46031
0.501474
0.564279
0.657457
0.793607
0.962574
0.529564
0.535287
0.96176
0.81686
0.685674
0.592995
0.526811
0.477474
0.446018
0.426994
0.416675
0.414659
0.419471
0.433737
0.460085
0.500944
0.564581
0.657557
0.793859
0.95381
0.539229
0.54594
0.972155
0.816825
0.685498
0.591044
0.525752
0.477641
0.446006
0.426649
0.417237
0.414835
0.418939
0.434005
0.460555
0.502754
0.566377
0.658295
0.796554
0.961014
0.528747
0.531273
0.969595
0.818349
0.688842
0.591632
0.523324
0.477887
0.44585
0.426364
0.41695
0.414695
0.419567
0.434407
0.460598
0.502515
0.56728
0.66011
0.796463
0.960934
0.523169
0.530261
0.96379
0.815943
0.685313
0.594954
0.52317
0.477246
0.446236
0.426623
0.415917
0.414286
0.419585
0.434415
0.461471
0.504316
0.57058
0.660846
0.794996
0.959828
0.534111
0.532846
0.975693
0.818178
0.686103
0.588269
0.522289
0.477093
0.44555
0.425492
0.416015
0.413954
0.419596
0.43405
0.460193
0.50191
0.568935
0.660938
0.791946
0.958484
0.531941
0.533433
0.973315
0.819064
0.689906
0.58758
0.522359
0.478004
0.444737
0.424577
0.414445
0.41213
0.418312
0.433468
0.459313
0.502081
0.567564
0.661299
0.796053
0.957938
0.536237
0.541819
0.96307
0.818246
0.683248
0.58865
0.523454
0.476616
0.443574
0.423529
0.413696
0.411537
0.417705
0.432993
0.459273
0.503684
0.569865
0.661884
0.7967
0.947769
0.549201
0.53922
0.97246
0.817294
0.67675
0.58235
0.518363
0.475298
0.442264
0.422279
0.412946
0.410716
0.416963
0.432371
0.459038
0.501099
0.5659
0.661799
0.798055
0.953572
0.537865
0.535847
0.975121
0.816056
0.675949
0.582338
0.518233
0.474364
0.440886
0.421627
0.412548
0.411056
0.417217
0.432241
0.458782
0.501286
0.566603
0.662202
0.800839
0.950496
0.548921
0.537437
0.966336
0.811612
0.674355
0.582482
0.51793
0.472808
0.440133
0.421965
0.413072
0.41178
0.417694
0.432079
0.4591
0.501939
0.56715
0.66332
0.802703
0.959259
0.527428
0.547825
0.967664
0.81142
0.673026
0.578017
0.518256
0.471896
0.43976
0.421728
0.412636
0.411647
0.417729
0.43199
0.459954
0.502733
0.568245
0.662283
0.80255
0.96661
0.530096
0.539161
0.963327
0.810824
0.673391
0.577536
0.521423
0.470859
0.43997
0.421139
0.412534
0.411037
0.417801
0.432266
0.458924
0.504185
0.571121
0.660897
0.800906
0.962413
0.530208
0.546845
0.963763
0.810038
0.673821
0.575849
0.517868
0.470183
0.439913
0.422305
0.413307
0.411754
0.418226
0.432394
0.458107
0.502069
0.566274
0.659903
0.802573
0.967093
0.53407
0.533989
0.963082
0.809538
0.675551
0.575591
0.515852
0.470359
0.440807
0.422683
0.413814
0.412284
0.418547
0.432698
0.457999
0.500977
0.564023
0.661511
0.800767
0.957954
0.539101
0.545438
0.963581
0.808118
0.679821
0.575316
0.512205
0.469447
0.440929
0.423309
0.41474
0.413303
0.418908
0.433221
0.45878
0.500435
0.567024
0.662132
0.800944
0.959445
0.530141
0.537132
0.964611
0.806718
0.675714
0.574891
0.511328
0.470268
0.441229
0.424057
0.415781
0.414462
0.419829
0.433575
0.459183
0.50259
0.567553
0.663037
0.800891
0.959015
0.533755
0.527212
0.968285
0.805821
0.673977
0.574997
0.511459
0.469671
0.441307
0.423475
0.41577
0.414642
0.420094
0.433909
0.459445
0.502237
0.566465
0.663314
0.800836
0.965465
0.54391
0.527197
0.967182
0.805116
0.667822
0.574921
0.511422
0.470717
0.441544
0.423968
0.415885
0.414767
0.420429
0.434366
0.459649
0.501507
0.566154
0.662339
0.799676
0.964884
0.525983
0.530022
0.956977
0.803216
0.668391
0.578451
0.511872
0.469928
0.441471
0.424463
0.415536
0.414788
0.420578
0.43466
0.46007
0.503261
0.568806
0.664584
0.799331
0.964334
0.528307
0.537421
0.964392
0.802125
0.670496
0.573671
0.512094
0.469186
0.441324
0.424357
0.416091
0.414994
0.420853
0.435003
0.460559
0.50103
0.563955
0.659695
0.798082
0.964032
0.529389
0.523279
0.956372
0.798028
0.664154
0.57308
0.511467
0.470004
0.44122
0.424056
0.415074
0.414709
0.420793
0.435118
0.460862
0.503022
0.564495
0.659959
0.795936
0.961334
0.532537
0.532414
0.968676
0.799578
0.66366
0.573093
0.514515
0.469334
0.440928
0.423751
0.415028
0.414512
0.420792
0.435234
0.460761
0.501627
0.564576
0.65955
0.794838
0.95565
0.534138
0.521363
0.965069
0.796901
0.666745
0.576857
0.513927
0.46921
0.440688
0.423483
0.414745
0.414199
0.420158
0.43525
0.461855
0.502289
0.56795
0.662728
0.795648
0.959597
0.548265
0.520791
0.963718
0.7997
0.664722
0.573933
0.512309
0.469183
0.440146
0.422468
0.414228
0.413386
0.420497
0.43554
0.462219
0.503802
0.565371
0.660631
0.796857
0.96183
0.538642
0.522695
0.962064
0.79897
0.66497
0.574617
0.513179
0.470151
0.439783
0.422123
0.413967
0.413403
0.420507
0.435669
0.462373
0.502783
0.565878
0.661576
0.79684
0.953265
0.529575
0.523211
0.960454
0.79764
0.66563
0.579116
0.515718
0.470056
0.439684
0.422172
0.414002
0.41324
0.420303
0.435546
0.462449
0.503566
0.569961
0.664121
0.796792
0.960321
0.531557
0.526521
0.958165
0.79943
0.665842
0.577747
0.512481
0.468894
0.43898
0.421847
0.413414
0.412972
0.420118
0.435349
0.462172
0.505266
0.569286
0.665591
0.795055
0.963399
0.54471
0.528785
0.95355
0.799954
0.666428
0.577332
0.514619
0.468876
0.438713
0.421128
0.413165
0.412652
0.419546
0.435244
0.462736
0.504272
0.568337
0.663685
0.797062
0.957342
0.538046
0.540412
0.961607
0.800078
0.666288
0.573774
0.511451
0.467957
0.438369
0.421028
0.413313
0.412662
0.419479
0.435075
0.462277
0.504971
0.569287
0.666593
0.798776
0.963063
0.532989
0.529896
0.958913
0.798952
0.670349
0.57454
0.513343
0.467347
0.438392
0.421364
0.413149
0.411935
0.418871
0.434991
0.462746
0.507894
0.572833
0.663163
0.796415
0.957989
0.53454
0.531088
0.956843
0.800652
0.669313
0.57758
0.510587
0.467196
0.438518
0.420928
0.412586
0.412637
0.419416
0.435105
0.463023
0.508223
0.572645
0.665577
0.799564
0.965782
0.538388
0.532928
0.953648
0.800902
0.667949
0.574658
0.511203
0.468435
0.438733
0.421809
0.413523
0.412657
0.41923
0.434777
0.463697
0.509639
0.57209
0.664527
0.800616
0.966151
0.546453
0.541826
0.958088
0.800506
0.670956
0.575143
0.513653
0.468805
0.439156
0.421317
0.413268
0.412535
0.419106
0.434385
0.462659
0.508768
0.575341
0.665006
0.800404
0.965366
0.526102
0.518137
0.951807
0.797858
0.666309
0.57579
0.512053
0.469082
0.439301
0.421807
0.413073
0.411621
0.418431
0.434008
0.461377
0.505774
0.5695
0.667371
0.799942
0.965231
0.527833
0.520479
0.949569
0.798123
0.667733
0.577056
0.513032
0.469528
0.43931
0.421606
0.412204
0.411894
0.418675
0.433783
0.461246
0.501666
0.565923
0.663264
0.800234
0.964851
0.527387
0.522201
0.958117
0.799389
0.672835
0.583131
0.516726
0.469916
0.439374
0.421012
0.412269
0.411225
0.418463
0.433476
0.459001
0.50058
0.56463
0.658832
0.798529
0.96352
0.529166
0.5326
0.961779
0.801279
0.672694
0.581516
0.515667
0.469745
0.43953
0.421189
0.412774
0.411861
0.418069
0.433482
0.458683
0.500323
0.564428
0.657699
0.793272
0.956096
0.528341
0.537648
0.961692
0.800745
0.674206
0.580651
0.515534
0.469328
0.439251
0.420893
0.412484
0.410985
0.417854
0.432901
0.458246
0.500051
0.565883
0.652374
0.79044
0.956236
0.530499
0.544066
0.959365
0.800702
0.674275
0.58442
0.517827
0.470198
0.439194
0.420503
0.411474
0.410943
0.417678
0.433105
0.458193
0.499605
0.558791
0.646964
0.785724
0.955808
0.536259
0.544882
0.958176
0.800185
0.67113
0.578786
0.516879
0.469245
0.438654
0.420415
0.411213
0.410485
0.416863
0.432528
0.458489
0.497179
0.560484
0.645856
0.78052
0.953453
0.510328
0.545526
0.955202
0.799353
0.66552
0.579082
0.51715
0.469417
0.438169
0.420049
0.410601
0.409891
0.416142
0.431581
0.455806
0.493149
0.5556
0.644429
0.778114
0.946704
0.512128
0.540326
0.948728
0.797345
0.663798
0.579453
0.515523
0.469782
0.437625
0.419423
0.410288
0.409017
0.415301
0.431114
0.457365
0.49278
0.552448