/*--------------------------------*- C++ -*----------------------------------*\
  =========                 |
  \\      /  F ield         | OpenFOAM: The Open Source CFD Toolbox
   \\    /   O peration     | Website:  https://openfoam.org
    \\  /    A nd           | Version:  6
     \\/     M anipulation  |
\*---------------------------------------------------------------------------*/
FoamFile
{
    version     2.0;
    format      ascii;
    class       volScalarField;
    location    "11";
    object      k;
}
// * * * * * * * * * * * * * * * * * * * * * * * * * * * * * * * * * * * * * //

dimensions      [0 2 -2 0 0 0 0];

internalField   nonuniform List<scalar> 
130000
(
0.398504
0.397844
0.396162
0.393573
0.390211
0.386253
0.381901
0.377362
0.37283
0.368471
0.364416
0.360758
0.357553
0.354822
0.352559
0.35074
0.349325
0.348272
0.347533
0.347066
0.398817
0.398191
0.396522
0.393926
0.390542
0.386553
0.382167
0.377594
0.373031
0.368646
0.36457
0.360898
0.357683
0.354946
0.35268
0.350861
0.349449
0.3484
0.347667
0.347207
0.399081
0.398483
0.396827
0.394227
0.390827
0.386814
0.382398
0.377793
0.373199
0.368784
0.364683
0.360989
0.357756
0.355003
0.352727
0.3509
0.349485
0.348434
0.347702
0.347244
0.399281
0.398701
0.397051
0.394445
0.391029
0.38699
0.382545
0.377911
0.373288
0.368849
0.364728
0.361018
0.357772
0.355008
0.352725
0.350892
0.349473
0.34842
0.347687
0.347231
0.399419
0.398842
0.397187
0.394567
0.391128
0.387064
0.382596
0.377943
0.373304
0.36885
0.364719
0.361002
0.357752
0.354988
0.352704
0.350872
0.349453
0.348402
0.347671
0.347216
0.399506
0.398919
0.397248
0.394604
0.391144
0.38706
0.382577
0.377911
0.373264
0.368808
0.364675
0.360958
0.357709
0.354948
0.352668
0.35084
0.349426
0.348379
0.347653
0.347203
0.399563
0.398954
0.397258
0.39459
0.39111
0.387013
0.382517
0.377843
0.373192
0.368734
0.364603
0.36089
0.357647
0.354894
0.352621
0.350801
0.349394
0.348355
0.347637
0.347195
0.399605
0.398971
0.397246
0.394557
0.391056
0.386941
0.382433
0.377751
0.373096
0.36864
0.364514
0.360808
0.357574
0.354829
0.352566
0.350756
0.349358
0.348328
0.347617
0.347185
0.399647
0.398987
0.397235
0.394519
0.390993
0.386859
0.382337
0.377646
0.372989
0.368535
0.364414
0.360717
0.357493
0.35476
0.352508
0.350708
0.34932
0.348298
0.347594
0.347165
0.399694
0.399009
0.39723
0.394483
0.390931
0.386775
0.382237
0.377538
0.372878
0.368426
0.364311
0.360623
0.35741
0.354689
0.352448
0.35066
0.349282
0.348268
0.347571
0.347145
0.39975
0.399038
0.397231
0.394452
0.390872
0.386694
0.38214
0.377431
0.372767
0.368317
0.364209
0.360529
0.357328
0.354618
0.35239
0.350613
0.349245
0.34824
0.34755
0.347131
0.399813
0.399073
0.397235
0.394429
0.39082
0.386619
0.382048
0.377328
0.372661
0.368211
0.364109
0.360438
0.357247
0.35455
0.352334
0.350568
0.349212
0.348219
0.34754
0.347127
0.399885
0.399118
0.397249
0.394417
0.390779
0.386554
0.381965
0.377233
0.37256
0.368112
0.364014
0.360351
0.357171
0.354485
0.35228
0.350526
0.349181
0.348198
0.347531
0.34712
0.399971
0.399177
0.397277
0.394414
0.390749
0.386499
0.381891
0.377147
0.372467
0.368018
0.363924
0.360269
0.357098
0.354423
0.352229
0.350486
0.34915
0.348174
0.347512
0.347108
0.400069
0.39925
0.397318
0.394422
0.390733
0.386457
0.381828
0.37707
0.372383
0.367932
0.363841
0.360193
0.357031
0.354365
0.352182
0.350449
0.349121
0.348152
0.347492
0.347097
0.40018
0.399337
0.397376
0.394447
0.390729
0.386428
0.381778
0.377005
0.372309
0.367855
0.363766
0.360123
0.356969
0.354313
0.352139
0.350415
0.349096
0.348133
0.347476
0.347084
0.400308
0.399441
0.397449
0.394487
0.390737
0.386414
0.381742
0.376952
0.372246
0.367788
0.3637
0.360061
0.356914
0.354267
0.352103
0.350388
0.349078
0.348123
0.347469
0.347076
0.400454
0.399563
0.39754
0.394545
0.390762
0.386412
0.38172
0.376912
0.372195
0.367732
0.363643
0.360009
0.356868
0.354229
0.352074
0.350367
0.349065
0.348116
0.347467
0.347076
0.400622
0.399706
0.397651
0.394621
0.390804
0.386422
0.381711
0.376885
0.372156
0.367686
0.363597
0.359966
0.356831
0.354201
0.352054
0.350356
0.349059
0.34811
0.347464
0.347074
0.400808
0.399867
0.397779
0.394713
0.390861
0.386447
0.38171
0.376869
0.372127
0.367651
0.36356
0.359932
0.356803
0.35418
0.352042
0.350351
0.349055
0.348107
0.347458
0.347073
0.401009
0.400044
0.397923
0.394821
0.390933
0.386486
0.38172
0.376862
0.372108
0.367625
0.363532
0.359906
0.356783
0.354168
0.352035
0.350344
0.349049
0.348109
0.347472
0.347096
0.401225
0.400237
0.398084
0.394946
0.39102
0.386539
0.381744
0.376863
0.372099
0.367607
0.363511
0.359886
0.356768
0.354159
0.352031
0.350345
0.349062
0.348131
0.347502
0.347132
0.401461
0.400449
0.398263
0.395086
0.391122
0.386606
0.381781
0.376877
0.372096
0.367595
0.363494
0.35987
0.356756
0.354155
0.352037
0.350363
0.349088
0.348163
0.347541
0.347175
0.401713
0.400678
0.398457
0.395242
0.391239
0.386685
0.381828
0.376898
0.372097
0.367588
0.363481
0.359856
0.356746
0.354152
0.352044
0.350384
0.349119
0.348199
0.347581
0.34722
0.401983
0.400924
0.39867
0.395414
0.391369
0.386777
0.381886
0.376928
0.372106
0.367583
0.363467
0.359839
0.356728
0.354135
0.352036
0.350389
0.349139
0.348229
0.34762
0.347266
0.402273
0.40119
0.3989
0.395602
0.391515
0.386882
0.381955
0.376967
0.372122
0.367581
0.363458
0.359825
0.356713
0.354121
0.352025
0.350381
0.349142
0.348249
0.347651
0.347302
0.402584
0.401476
0.399149
0.395808
0.391676
0.387001
0.382036
0.377017
0.372147
0.367589
0.363457
0.359818
0.356703
0.354112
0.352017
0.350376
0.349139
0.348255
0.347661
0.347314
0.402914
0.401781
0.399416
0.396031
0.391852
0.387132
0.382128
0.377075
0.37218
0.367603
0.363461
0.359816
0.356701
0.354111
0.352018
0.350379
0.34914
0.348248
0.347651
0.347303
0.403262
0.402105
0.399701
0.39627
0.392043
0.387278
0.382232
0.377144
0.372221
0.367623
0.363465
0.359815
0.356697
0.354107
0.352018
0.350381
0.349141
0.348241
0.347642
0.347295
0.403629
0.402447
0.400005
0.396527
0.39225
0.387437
0.382348
0.377224
0.372271
0.367651
0.363476
0.359815
0.356693
0.354102
0.352013
0.35038
0.349145
0.348254
0.34766
0.347317
0.404014
0.402809
0.400328
0.396802
0.392475
0.387612
0.382478
0.377316
0.372332
0.367687
0.363495
0.359822
0.356697
0.3541
0.352005
0.350373
0.349144
0.348262
0.347678
0.34734
0.404419
0.403193
0.400672
0.397097
0.392718
0.387805
0.382624
0.377421
0.372403
0.367732
0.36352
0.359833
0.356696
0.354096
0.352001
0.350365
0.349137
0.348255
0.347674
0.347338
0.404847
0.403599
0.401039
0.397415
0.392982
0.388016
0.382786
0.377541
0.372488
0.367789
0.363555
0.359851
0.356702
0.354099
0.352003
0.350369
0.349138
0.348257
0.347673
0.347339
0.405299
0.404031
0.401431
0.397756
0.393269
0.388247
0.382968
0.377678
0.372588
0.367859
0.363603
0.359881
0.356718
0.354104
0.352005
0.350367
0.349132
0.348254
0.347672
0.347342
0.405778
0.40449
0.401851
0.398124
0.39358
0.388502
0.38317
0.377834
0.372706
0.367946
0.363665
0.359926
0.356749
0.354123
0.352013
0.350369
0.349134
0.34825
0.347666
0.347333
0.406286
0.40498
0.402301
0.398521
0.393918
0.388782
0.383395
0.378011
0.372842
0.36805
0.363745
0.359987
0.356796
0.354161
0.352044
0.350395
0.349156
0.34827
0.347682
0.347344
0.406827
0.405504
0.402784
0.39895
0.394286
0.389089
0.383645
0.378211
0.373
0.368174
0.363842
0.360065
0.356861
0.354217
0.352094
0.350441
0.3492
0.348311
0.34772
0.347377
0.407402
0.406063
0.403303
0.399413
0.394687
0.389426
0.383922
0.378435
0.37318
0.368318
0.363959
0.360162
0.356945
0.354291
0.352162
0.350505
0.349262
0.348371
0.347777
0.347431
0.408016
0.406663
0.403861
0.399915
0.395123
0.389796
0.38423
0.378687
0.373385
0.368486
0.364098
0.360279
0.357046
0.354382
0.352247
0.350587
0.34934
0.348447
0.34785
0.3475
0.408671
0.407306
0.404463
0.400457
0.395598
0.390202
0.384571
0.37897
0.373618
0.368678
0.364259
0.360417
0.357168
0.354493
0.35235
0.350685
0.349435
0.348539
0.347938
0.347584
0.409372
0.407995
0.405111
0.401045
0.396116
0.390648
0.384948
0.379285
0.373881
0.368898
0.364445
0.360578
0.35731
0.354622
0.352471
0.3508
0.349545
0.348645
0.34804
0.34768
0.410121
0.408736
0.405811
0.401682
0.39668
0.391137
0.385365
0.379637
0.374176
0.369147
0.364658
0.360763
0.357475
0.354773
0.352612
0.350933
0.349673
0.348767
0.348156
0.347789
0.410925
0.409533
0.406566
0.402374
0.397295
0.391673
0.385825
0.380028
0.374508
0.369429
0.3649
0.360975
0.357665
0.354946
0.352773
0.351086
0.349818
0.348906
0.348288
0.347913
0.411786
0.410392
0.407382
0.403124
0.397966
0.392261
0.386332
0.380463
0.374879
0.369747
0.365176
0.361218
0.357883
0.355146
0.352959
0.351262
0.349986
0.349066
0.34844
0.348056
0.412712
0.411316
0.408265
0.403938
0.398698
0.392906
0.386893
0.380945
0.375294
0.370106
0.365488
0.361494
0.358132
0.355375
0.353173
0.351464
0.350179
0.34925
0.348615
0.348222
0.413708
0.412314
0.409221
0.404824
0.399498
0.393614
0.387511
0.381481
0.375757
0.370508
0.365842
0.361809
0.358417
0.355637
0.353418
0.351696
0.3504
0.349461
0.348817
0.348413
0.414779
0.413392
0.410258
0.405787
0.400371
0.394391
0.388194
0.382076
0.376275
0.370961
0.366241
0.362166
0.358741
0.355937
0.353699
0.351962
0.350654
0.349704
0.349049
0.348632
0.415934
0.414558
0.411383
0.406837
0.401328
0.395246
0.388948
0.382738
0.376855
0.37147
0.366693
0.362572
0.359111
0.356279
0.354021
0.352267
0.350945
0.349982
0.349314
0.348883
0.417182
0.415822
0.412607
0.407984
0.402375
0.396187
0.389783
0.383474
0.377502
0.372043
0.367203
0.363032
0.359532
0.35667
0.354388
0.352616
0.351278
0.350301
0.349618
0.349172
0.418534
0.417196
0.413941
0.409238
0.403526
0.397224
0.390707
0.384292
0.378227
0.372686
0.367779
0.363555
0.360012
0.357117
0.354809
0.353016
0.35166
0.350666
0.349966
0.349502
0.420003
0.418691
0.415397
0.410611
0.40479
0.398369
0.391732
0.385205
0.379038
0.373411
0.368432
0.364148
0.360559
0.357627
0.35529
0.353474
0.352098
0.351085
0.350367
0.349883
0.421598
0.42032
0.416988
0.412115
0.406181
0.399633
0.39287
0.386222
0.379948
0.374227
0.36917
0.364823
0.361183
0.358211
0.355842
0.353999
0.352601
0.351568
0.350828
0.350321
0.423332
0.422097
0.418728
0.413767
0.407713
0.401032
0.394133
0.387358
0.380968
0.375147
0.370006
0.36559
0.361895
0.358879
0.356475
0.354604
0.35318
0.352123
0.351359
0.350826
0.425219
0.424035
0.420634
0.415582
0.409403
0.402582
0.39554
0.388628
0.382115
0.376187
0.370955
0.366465
0.36271
0.359646
0.357204
0.3553
0.353848
0.352764
0.351973
0.351411
0.427275
0.426156
0.422724
0.41758
0.411272
0.404301
0.397108
0.390051
0.383406
0.377363
0.372034
0.367463
0.363643
0.360527
0.358042
0.356103
0.354619
0.353505
0.352683
0.352087
0.429521
0.428479
0.425023
0.419785
0.413341
0.406215
0.39886
0.391649
0.384863
0.378697
0.373263
0.368606
0.364715
0.361542
0.359011
0.357032
0.355512
0.354364
0.353506
0.352872
0.431979
0.431031
0.427557
0.422224
0.415639
0.408348
0.400824
0.393448
0.386512
0.380213
0.374667
0.369916
0.365949
0.362714
0.360131
0.358108
0.356549
0.355362
0.354464
0.353785
0.434675
0.433841
0.430356
0.424929
0.418197
0.410734
0.403029
0.395479
0.388383
0.381942
0.376275
0.371423
0.367374
0.36407
0.361431
0.359359
0.357755
0.356524
0.355579
0.354849
0.437641
0.436942
0.433457
0.427937
0.421054
0.41341
0.405515
0.39778
0.390512
0.38392
0.378123
0.373162
0.369023
0.365645
0.362944
0.360817
0.359163
0.357881
0.356883
0.356094
0.440911
0.440375
0.436903
0.431292
0.424255
0.416422
0.408327
0.400395
0.392945
0.386191
0.380254
0.375176
0.370939
0.367481
0.364711
0.362524
0.360812
0.359473
0.358413
0.357555
0.444526
0.444186
0.440743
0.435046
0.427852
0.419823
0.411517
0.403377
0.395734
0.388807
0.382721
0.377517
0.373174
0.369628
0.366782
0.364527
0.36275
0.361345
0.360213
0.359274
0.448535
0.448429
0.445036
0.439262
0.43191
0.423679
0.415152
0.406794
0.398945
0.391834
0.385588
0.380249
0.375792
0.372149
0.369219
0.366889
0.365038
0.363556
0.362341
0.361307
0.452998
0.453167
0.449853
0.444015
0.436507
0.428068
0.419313
0.410725
0.40266
0.395354
0.388937
0.383452
0.378872
0.375124
0.372101
0.369685
0.36775
0.366179
0.364865
0.363719
0.457986
0.458482
0.455281
0.449395
0.441737
0.433089
0.424098
0.41527
0.406978
0.399466
0.392869
0.387228
0.382515
0.378651
0.375525
0.373012
0.370979
0.369305
0.367875
0.366594
0.463576
0.464466
0.461424
0.455515
0.447718
0.438862
0.429631
0.420556
0.412027
0.404299
0.397509
0.391702
0.386845
0.382855
0.379615
0.376991
0.374845
0.373048
0.371479
0.370039
0.469868
0.471236
0.468409
0.462512
0.454593
0.445537
0.436065
0.426739
0.417965
0.410012
0.403021
0.397037
0.392026
0.387897
0.384528
0.381777
0.379499
0.377556
0.375821
0.374186
0.476981
0.478932
0.476396
0.470557
0.462546
0.453304
0.443597
0.434019
0.424997
0.416811
0.409611
0.403441
0.398263
0.393982
0.390467
0.38757
0.385135
0.383017
0.381079
0.379207
0.485064
0.48773
0.485581
0.479866
0.471803
0.462401
0.452475
0.442652
0.433383
0.424963
0.417548
0.411182
0.405826
0.401378
0.397698
0.39463
0.392007
0.389675
0.387489
0.385324
0.494298
0.497845
0.49621
0.490708
0.482657
0.473138
0.46302
0.45297
0.443465
0.434815
0.427183
0.420616
0.415069
0.410436
0.406568
0.403296
0.400446
0.397851
0.395356
0.392826
0.50491
0.509551
0.508598
0.503431
0.49548
0.48591
0.475649
0.465407
0.455689
0.446822
0.438979
0.432208
0.426461
0.421624
0.417537
0.414023
0.410894
0.407971
0.405087
0.402096
0.517185
0.523193
0.523142
0.518477
0.510756
0.501234
0.490907
0.480531
0.470643
0.46159
0.453554
0.446583
0.440628
0.435564
0.431224
0.427415
0.423938
0.420601
0.417222
0.413643
0.531485
0.539214
0.540348
0.536418
0.529111
0.519784
0.509509
0.499092
0.489108
0.479922
0.471727
0.464574
0.458406
0.453094
0.448456
0.444287
0.440372
0.436506
0.432492
0.428155
0.54826
0.558214
0.560821
0.557983
0.551356
0.542439
0.53239
0.522076
0.51211
0.502879
0.494587
0.487286
0.480914
0.475331
0.470343
0.465731
0.461263
0.456717
0.451879
0.446558
0.568104
0.580975
0.585549
0.584176
0.578563
0.570343
0.560766
0.550764
0.540987
0.531848
0.523559
0.516173
0.509621
0.503752
0.498357
0.493199
0.488031
0.482611
0.476704
0.470099
0.591779
0.608394
0.615553
0.616198
0.612066
0.604941
0.596181
0.586782
0.577442
0.568594
0.56046
0.553091
0.546411
0.540253
0.534393
0.528575
0.522529
0.515994
0.508708
0.500434
0.620211
0.641665
0.652233
0.655576
0.653531
0.648029
0.640538
0.632135
0.623561
0.615276
0.60751
0.600311
0.593592
0.587169
0.580798
0.574201
0.567083
0.559152
0.550116
0.539697
0.654598
0.682234
0.697387
0.704021
0.704934
0.701735
0.696087
0.689167
0.681773
0.674393
0.667269
0.660445
0.65382
0.647194
0.640296
0.632821
0.624442
0.614824
0.603628
0.590521
0.69646
0.73193
0.75311
0.764104
0.768694
0.768518
0.765355
0.760471
0.754724
0.748639
0.742472
0.736266
0.729912
0.723187
0.715794
0.707392
0.697607
0.686047
0.672301
0.65595
0.747648
0.792818
0.821576
0.838274
0.847108
0.850904
0.850956
0.848699
0.845081
0.840682
0.835788
0.830457
0.824572
0.817893
0.810095
0.800788
0.789537
0.77587
0.759273
0.739199
0.810298
0.867409
0.905424
0.929342
0.94346
0.951487
0.955486
0.956393
0.955319
0.952937
0.949585
0.945351
0.940129
0.933664
0.925599
0.915488
0.902819
0.887014
0.867421
0.84331
0.886814
0.958298
1.00729
1.03973
1.06056
1.0734
1.08128
1.08578
1.08754
1.08738
1.08574
1.08275
1.07835
1.07226
1.06409
1.05335
1.03941
1.02158
0.999036
0.9708
0.979748
1.06807
1.12976
1.17185
1.20016
1.21888
1.23089
1.23857
1.24326
1.24536
1.24545
1.24376
1.24025
1.23467
1.22659
1.21542
1.20047
1.18086
1.15559
1.12338
1.09162
1.19909
1.27495
1.3276
1.36389
1.38866
1.40529
1.41616
1.42314
1.42733
1.42898
1.42848
1.42585
1.42085
1.41302
1.4017
1.38606
1.36508
1.33749
1.30172
1.22472
1.35325
1.44439
1.50814
1.55253
1.58316
1.60401
1.61793
1.62688
1.63237
1.63514
1.63551
1.63361
1.62916
1.6217
1.61052
1.59465
1.57286
1.54363
1.50503
1.38081
1.53174
1.63871
1.71353
1.76555
1.8013
1.82539
1.84125
1.85128
1.85724
1.8602
1.8608
1.85932
1.85533
1.84836
1.83764
1.8221
1.80034
1.77049
1.73025
1.56084
1.73458
1.85702
1.94199
2.00029
2.03944
2.06491
2.08077
2.09002
2.09483
2.09662
2.09643
2.09456
2.09069
2.08431
2.07455
2.06015
2.03957
2.01066
1.97066
1.76453
1.96007
2.09628
2.18909
2.25085
2.29029
2.31386
2.32649
2.33197
2.33296
2.33135
2.32844
2.3247
2.3202
2.31437
2.30622
2.29425
2.27663
2.25094
2.21404
1.98982
2.20405
2.35023
2.44642
2.50671
2.5412
2.55763
2.56218
2.55929
2.55212
2.54327
2.53455
2.52689
2.52052
2.51495
2.5091
2.50127
2.48925
2.47016
2.44046
2.23228
2.45905
2.60832
2.70038
2.7512
2.77279
2.77466
2.76361
2.74546
2.72416
2.7029
2.6842
2.66946
2.65923
2.65316
2.65021
2.64845
2.64536
2.63743
2.62055
2.48435
2.71323
2.85438
2.93047
2.96005
2.95826
2.93419
2.89618
2.85105
2.80582
2.76527
2.73191
2.70706
2.69114
2.68364
2.68354
2.68887
2.69743
2.70586
2.71065
2.73457
2.94931
3.06511
3.10841
3.10038
3.05535
2.99045
2.92011
2.84766
2.77979
2.72102
2.6735
2.63845
2.61632
2.60674
2.60842
2.61948
2.63822
2.66228
2.68735
2.96662
3.14305
3.20854
3.19477
3.13103
3.03564
2.92356
2.8036
2.69018
2.58854
2.50199
2.4329
2.38209
2.34962
2.33514
2.33715
2.35424
2.38705
2.43264
2.48776
3.15769
3.26027
3.24733
3.15462
3.00928
2.83995
2.66447
2.49677
2.34593
2.21657
2.11029
2.02709
1.96601
1.926
1.90624
1.90503
1.92106
1.95815
2.01713
2.09752
3.27466
3.26599
3.13203
2.92376
2.68109
2.4342
2.20371
2.00147
1.83202
1.69513
1.58779
1.50613
1.44644
1.40597
1.38331
1.37703
1.38603
1.41744
1.47675
1.56812
3.27919
3.09912
2.80394
2.46347
2.12748
1.8271
1.57857
1.3841
1.23737
1.12903
1.0499
0.992233
0.95011
0.919419
0.899382
0.890171
0.892492
0.918667
0.976474
1.07254
3.08337
2.6805
2.2106
1.76897
1.40372
1.12447
0.935654
0.814286
0.736424
0.685265
0.650338
0.625721
0.608671
0.599103
0.59641
0.600814
0.615039
0.646537
0.714351
0.865594
2.54994
1.94114
1.38152
0.990279
0.75674
0.634773
0.568813
0.528543
0.502941
0.486324
0.475447
0.468441
0.464485
0.463485
0.466573
0.474809
0.492378
0.529352
0.625186
0.872497
1.54186
1.02306
0.732864
0.585522
0.507748
0.464513
0.439629
0.425027
0.41623
0.410859
0.407826
0.406476
0.406649
0.408107
0.411425
0.417858
0.432481
0.471512
0.601411
1.04266
0.893113
0.631332
0.504594
0.445788
0.416986
0.401704
0.393036
0.387891
0.384832
0.383088
0.382297
0.382136
0.382634
0.383884
0.386507
0.391449
0.4027
0.436042
0.566666
1.11347
0.719679
0.473106
0.40629
0.388312
0.382122
0.379098
0.377378
0.376395
0.375877
0.375656
0.375659
0.375816
0.376131
0.376559
0.377227
0.378646
0.383665
0.401262
0.467644
0.719917
0.35058
0.350199
0.349708
0.349179
0.348629
0.348073
0.347537
0.347047
0.346627
0.346295
0.346063
0.345934
0.345904
0.345966
0.346114
0.346332
0.346606
0.346918
0.347256
0.347613
0.350807
0.350419
0.349922
0.349386
0.348828
0.348262
0.347708
0.347197
0.346762
0.346423
0.346195
0.346063
0.346028
0.346087
0.346228
0.346435
0.346702
0.347012
0.347349
0.347707
0.350956
0.350561
0.350053
0.349503
0.348928
0.348348
0.347784
0.347259
0.346812
0.346463
0.346232
0.346094
0.346055
0.346112
0.346251
0.346455
0.346723
0.34703
0.347362
0.347712
0.351079
0.350678
0.35016
0.34959
0.348988
0.348394
0.347829
0.3473
0.346844
0.346481
0.34623
0.346081
0.346038
0.346094
0.346237
0.346454
0.346731
0.347033
0.347367
0.347721
0.351142
0.350738
0.350214
0.349632
0.349023
0.348426
0.347862
0.347341
0.346883
0.346503
0.346234
0.346079
0.346037
0.346093
0.346231
0.346446
0.346729
0.347026
0.34737
0.347736
0.351143
0.35074
0.350221
0.349651
0.349059
0.348463
0.347889
0.347363
0.346905
0.346537
0.346274
0.34612
0.346075
0.346126
0.346259
0.346466
0.346738
0.347038
0.347373
0.347726
0.351161
0.350761
0.350247
0.349687
0.349095
0.348492
0.347901
0.347358
0.346899
0.346544
0.346284
0.346128
0.346076
0.346122
0.346257
0.346466
0.346731
0.347037
0.347363
0.347714
0.351187
0.350789
0.350271
0.349702
0.349103
0.348497
0.347905
0.347369
0.346904
0.346542
0.346281
0.346124
0.346071
0.346118
0.346254
0.346463
0.34673
0.347039
0.34737
0.347719
0.351183
0.350789
0.350265
0.349685
0.349082
0.34848
0.347901
0.347371
0.346912
0.346547
0.346289
0.346127
0.34607
0.346117
0.346254
0.346466
0.34674
0.347044
0.347364
0.347707
0.351191
0.350788
0.350258
0.349683
0.349085
0.348484
0.347904
0.347373
0.346916
0.346533
0.346274
0.346121
0.34607
0.34612
0.346258
0.346467
0.346732
0.347032
0.347359
0.347708
0.351187
0.350776
0.350255
0.349697
0.349103
0.348498
0.34791
0.34737
0.3469
0.346516
0.346252
0.34611
0.346068
0.346123
0.346267
0.34647
0.346725
0.347023
0.347361
0.347713
0.351176
0.350765
0.350249
0.349682
0.349087
0.348488
0.3479
0.347358
0.346884
0.346509
0.346243
0.34609
0.346045
0.3461
0.34625
0.346464
0.346734
0.347034
0.347362
0.34771
0.351211
0.350793
0.350264
0.34969
0.349092
0.348496
0.347906
0.347364
0.346899
0.34653
0.346267
0.346113
0.346061
0.346106
0.346245
0.346464
0.346731
0.347034
0.347362
0.347711
0.351241
0.350811
0.350275
0.349698
0.349098
0.3485
0.347909
0.347365
0.346904
0.346536
0.346276
0.346125
0.346074
0.346127
0.34627
0.346483
0.346748
0.347044
0.347362
0.347703
0.351231
0.350802
0.350265
0.349689
0.349094
0.3485
0.347914
0.347365
0.346893
0.346522
0.346266
0.346126
0.346081
0.346145
0.346292
0.34651
0.346779
0.347079
0.347398
0.347729
0.351217
0.350796
0.35026
0.349686
0.349092
0.348484
0.347901
0.347364
0.3469
0.346525
0.346264
0.346127
0.346078
0.346131
0.346275
0.346494
0.346768
0.34708
0.347418
0.347769
0.351216
0.350786
0.350256
0.34968
0.34908
0.348475
0.347908
0.34739
0.34693
0.346554
0.346283
0.346122
0.346067
0.346118
0.346261
0.34648
0.346757
0.347076
0.347426
0.347793
0.35123
0.350797
0.350263
0.34968
0.349072
0.34848
0.347924
0.347403
0.346946
0.346572
0.346294
0.346114
0.346063
0.346113
0.346256
0.346475
0.346753
0.347072
0.347419
0.347784
0.351273
0.350827
0.350273
0.349682
0.349077
0.348485
0.347925
0.347396
0.346938
0.346557
0.34628
0.346107
0.346054
0.346107
0.346253
0.346475
0.346753
0.347071
0.347414
0.347776
0.351334
0.350877
0.350312
0.34971
0.349096
0.348494
0.347925
0.347385
0.346929
0.346543
0.346274
0.346124
0.346083
0.346146
0.346299
0.346526
0.346806
0.347123
0.347462
0.347815
0.351405
0.350939
0.350363
0.349749
0.34912
0.348501
0.34792
0.34738
0.346928
0.346558
0.346304
0.346166
0.346136
0.346206
0.346366
0.346597
0.34688
0.347199
0.347537
0.347887
0.351485
0.351013
0.350429
0.349807
0.349168
0.348538
0.347943
0.347408
0.346954
0.3466
0.346356
0.346227
0.346202
0.346278
0.346443
0.346678
0.346964
0.347283
0.347623
0.347973
0.351572
0.351095
0.350506
0.349879
0.349236
0.348602
0.348004
0.347468
0.347016
0.346664
0.346424
0.346296
0.346275
0.346355
0.346522
0.346759
0.347047
0.347368
0.347708
0.348059
0.351662
0.351181
0.350589
0.349959
0.349313
0.348678
0.34808
0.347544
0.347093
0.346742
0.346503
0.346376
0.346354
0.346435
0.346602
0.346839
0.347126
0.347447
0.347787
0.348137
0.351751
0.351267
0.350673
0.350041
0.349395
0.34876
0.348163
0.34763
0.34718
0.346831
0.346592
0.346465
0.346442
0.346519
0.346683
0.346916
0.347201
0.347519
0.347858
0.348207
0.35184
0.351354
0.350757
0.350124
0.349478
0.348846
0.348254
0.347725
0.34728
0.346933
0.346695
0.346567
0.34654
0.346609
0.346766
0.346993
0.347273
0.347587
0.347922
0.348268
0.351929
0.351438
0.350839
0.350205
0.34956
0.348932
0.34835
0.347833
0.347396
0.347053
0.346814
0.346681
0.346646
0.346705
0.34685
0.347069
0.347342
0.347652
0.347984
0.348327
0.352017
0.351522
0.350917
0.350279
0.349631
0.349005
0.348429
0.34792
0.347486
0.347144
0.346904
0.34677
0.34673
0.346782
0.34692
0.347135
0.347405
0.347713
0.348043
0.348384
0.352109
0.351606
0.350993
0.350345
0.349689
0.349052
0.348467
0.347957
0.347519
0.347175
0.346936
0.346803
0.34676
0.346818
0.346965
0.347187
0.347462
0.347773
0.348103
0.348442
0.352208
0.351697
0.351075
0.350415
0.349744
0.349092
0.348487
0.347958
0.34751
0.347163
0.346926
0.346798
0.346765
0.346842
0.347007
0.347242
0.347526
0.34784
0.34817
0.348507
0.352319
0.351801
0.351169
0.350498
0.349815
0.349149
0.348528
0.347978
0.34752
0.347171
0.346937
0.346819
0.346807
0.346898
0.347074
0.347317
0.347607
0.347924
0.348254
0.348586
0.352443
0.351918
0.351278
0.350599
0.349907
0.349231
0.348601
0.348045
0.347584
0.347233
0.347003
0.346889
0.346884
0.346983
0.347166
0.347415
0.347708
0.348027
0.348355
0.348684
0.352581
0.35205
0.351404
0.350717
0.350017
0.349334
0.348699
0.348139
0.347676
0.347326
0.347098
0.346988
0.346988
0.347092
0.347281
0.347534
0.34783
0.34815
0.348477
0.348801
0.352734
0.352198
0.351545
0.35085
0.350144
0.349455
0.348815
0.348252
0.347787
0.347438
0.347212
0.347106
0.34711
0.347219
0.347413
0.34767
0.347969
0.34829
0.348616
0.348936
0.352905
0.352362
0.351702
0.351
0.350286
0.349591
0.348946
0.34838
0.347914
0.347565
0.347341
0.347239
0.347248
0.347361
0.34756
0.347821
0.348123
0.348445
0.34877
0.349087
0.353095
0.352546
0.351879
0.351169
0.350447
0.349745
0.349095
0.348524
0.348057
0.347709
0.347487
0.347388
0.347401
0.347519
0.347723
0.347989
0.348294
0.348617
0.34894
0.349253
0.353309
0.352755
0.352081
0.351363
0.350632
0.349922
0.349265
0.34869
0.34822
0.347872
0.347652
0.347556
0.347574
0.347698
0.347906
0.348177
0.348485
0.348809
0.34913
0.349438
0.353552
0.352992
0.35231
0.351584
0.350845
0.350127
0.349463
0.348883
0.348411
0.348062
0.347844
0.347751
0.347774
0.347903
0.348117
0.348391
0.348702
0.349026
0.349345
0.349647
0.353826
0.35326
0.352572
0.351838
0.35109
0.350364
0.349693
0.349109
0.348634
0.348284
0.348068
0.347978
0.348005
0.348139
0.348358
0.348636
0.348949
0.349274
0.349589
0.349884
0.354135
0.353565
0.352871
0.352128
0.351371
0.350637
0.34996
0.34937
0.348892
0.348542
0.348327
0.348241
0.348272
0.348411
0.348634
0.348916
0.349231
0.349555
0.349867
0.350154
0.354485
0.35391
0.353209
0.352458
0.351693
0.35095
0.350266
0.349671
0.34919
0.34884
0.348626
0.348542
0.348578
0.348721
0.348949
0.349235
0.349552
0.349875
0.350182
0.350461
0.354879
0.3543
0.353593
0.352834
0.35206
0.351308
0.350617
0.350017
0.349532
0.349181
0.348969
0.348888
0.348927
0.349076
0.349308
0.349598
0.349916
0.350238
0.35054
0.350809
0.355323
0.354741
0.354028
0.353261
0.352477
0.351717
0.351018
0.350411
0.349924
0.349571
0.34936
0.349282
0.349326
0.34948
0.349717
0.35001
0.350329
0.350649
0.350946
0.351204
0.355824
0.355239
0.354521
0.353746
0.352953
0.352183
0.351475
0.350863
0.350372
0.350018
0.349808
0.349733
0.349781
0.34994
0.350181
0.350478
0.350798
0.351116
0.351405
0.351652
0.35639
0.355804
0.355081
0.354297
0.353494
0.352715
0.351999
0.35138
0.350884
0.350529
0.35032
0.350248
0.350301
0.350465
0.350711
0.351011
0.351332
0.351646
0.351928
0.35216
0.357031
0.356444
0.355717
0.354925
0.354113
0.353324
0.352599
0.351973
0.351472
0.351115
0.350907
0.350838
0.350896
0.351065
0.351316
0.351619
0.35194
0.35225
0.352522
0.352737
0.357758
0.357172
0.356442
0.355643
0.354821
0.354021
0.353287
0.352653
0.352148
0.351789
0.351582
0.351516
0.351579
0.351753
0.352009
0.352314
0.352635
0.35294
0.3532
0.353397
0.358585
0.358001
0.35727
0.356464
0.355632
0.354822
0.354078
0.353437
0.352926
0.352565
0.352358
0.352295
0.352363
0.352543
0.352804
0.353111
0.353431
0.353729
0.353977
0.354152
0.359529
0.35895
0.358218
0.357406
0.356565
0.355744
0.35499
0.35434
0.353825
0.35346
0.353254
0.353195
0.353267
0.353452
0.353717
0.354027
0.354345
0.354635
0.354867
0.355017
0.360607
0.360036
0.359307
0.35849
0.35764
0.356808
0.356044
0.355386
0.354864
0.354497
0.354291
0.354234
0.354312
0.354503
0.354772
0.355082
0.355396
0.355676
0.35589
0.35601
0.361845
0.361285
0.36056
0.35974
0.358882
0.35804
0.357266
0.356599
0.356071
0.3557
0.355495
0.355441
0.355524
0.355719
0.355991
0.356302
0.35661
0.356877
0.357068
0.357154
0.363268
0.362724
0.362008
0.361187
0.360322
0.359471
0.358686
0.358011
0.357477
0.357102
0.356896
0.356846
0.356933
0.357133
0.357408
0.357717
0.358017
0.358267
0.35843
0.358475
0.36491
0.364388
0.363686
0.362867
0.361998
0.361138
0.360344
0.35966
0.359119
0.358741
0.358535
0.358487
0.358579
0.358782
0.359058
0.359363
0.359652
0.359881
0.36001
0.360008
0.366812
0.366319
0.365637
0.364825
0.363954
0.363087
0.362285
0.361592
0.361045
0.360663
0.360456
0.360411
0.360507
0.360713
0.360987
0.361286
0.36156
0.361763
0.361851
0.361792
0.369022
0.368568
0.367914
0.367116
0.366246
0.365376
0.364566
0.363866
0.363313
0.362927
0.362719
0.362676
0.362775
0.362982
0.363253
0.363541
0.363795
0.363965
0.364004
0.363875
0.371602
0.371199
0.370585
0.369807
0.368945
0.368074
0.36726
0.366554
0.365995
0.365605
0.365396
0.365355
0.365456
0.365661
0.365925
0.366198
0.366425
0.366553
0.366532
0.366319
0.374626
0.374291
0.37373
0.372983
0.372136
0.37127
0.370454
0.369745
0.369182
0.368789
0.368581
0.368541
0.368639
0.368839
0.369091
0.369342
0.369533
0.369607
0.369512
0.369198
0.378183
0.37794
0.377452
0.376751
0.37593
0.375076
0.374264
0.373553
0.372987
0.372591
0.372382
0.372342
0.372437
0.372626
0.372861
0.373081
0.373224
0.373232
0.373044
0.372604
0.382404
0.382275
0.381884
0.381247
0.380465
0.379633
0.378832
0.378125
0.377558
0.377159
0.376948
0.376906
0.376993
0.377167
0.377373
0.377551
0.377632
0.377553
0.377248
0.376653
0.387431
0.387454
0.387192
0.386643
0.385921
0.385125
0.384345
0.383648
0.383085
0.382683
0.382468
0.382422
0.382494
0.382644
0.38281
0.382928
0.382926
0.382737
0.382283
0.381494
0.393456
0.393674
0.393587
0.393164
0.392529
0.391791
0.391046
0.39037
0.389814
0.389411
0.389191
0.389135
0.389185
0.389296
0.389406
0.389442
0.389333
0.389
0.388353
0.387318
0.400731
0.401179
0.401347
0.401104
0.400595
0.399944
0.399258
0.398615
0.398074
0.39767
0.397442
0.39737
0.397385
0.397439
0.397465
0.39739
0.397137
0.396612
0.395718
0.394371
0.409632
0.410389
0.410861
0.410856
0.410527
0.410005
0.409407
0.408818
0.408303
0.407899
0.407655
0.407556
0.40752
0.407492
0.407401
0.407177
0.406728
0.405944
0.404726
0.402979
0.420595
0.421778
0.42258
0.422928
0.422862
0.422533
0.422068
0.421564
0.421091
0.420688
0.420407
0.420261
0.420161
0.420011
0.419758
0.419332
0.418611
0.417483
0.415839
0.41357
0.434218
0.435976
0.437263
0.438
0.438332
0.438279
0.438009
0.437635
0.437236
0.436856
0.436546
0.436326
0.436098
0.435783
0.435318
0.434581
0.433472
0.431876
0.429665
0.426714
0.451331
0.453893
0.455914
0.45715
0.457931
0.458237
0.458237
0.458051
0.457768
0.457441
0.457123
0.456801
0.456383
0.455809
0.454993
0.453832
0.452205
0.449981
0.447017
0.443168
0.472933
0.476577
0.479598
0.481565
0.482803
0.48365
0.484035
0.484113