/*--------------------------------*- C++ -*----------------------------------*\
  =========                 |
  \\      /  F ield         | OpenFOAM: The Open Source CFD Toolbox
   \\    /   O peration     | Website:  https://openfoam.org
    \\  /    A nd           | Version:  6
     \\/     M anipulation  |
\*---------------------------------------------------------------------------*/
FoamFile
{
    version     2.0;
    format      ascii;
    class       volScalarField;
    location    "11";
    object      nut;
}
// * * * * * * * * * * * * * * * * * * * * * * * * * * * * * * * * * * * * * //

dimensions      [0 2 -1 0 0 0 0];

internalField   nonuniform List<scalar> 
130000
(
0.000889275
0.000892873
0.000895465
0.000897046
0.000897766
0.000897783
0.000897253
0.000896317
0.000895097
0.000893686
0.000892156
0.000890566
0.000888961
0.000887372
0.000885818
0.000884313
0.000882864
0.000881475
0.000880143
0.000878864
0.000889259
0.000892857
0.000895433
0.000896994
0.000897691
0.00089768
0.000897124
0.000896166
0.000894929
0.00089351
0.000891984
0.000890407
0.000888811
0.000887223
0.00088566
0.000884141
0.000882675
0.000881269
0.000879922
0.000878634
0.000889339
0.000892942
0.000895514
0.000897063
0.000897752
0.000897741
0.000897196
0.000896254
0.000895029
0.00089362
0.000892115
0.000890538
0.000888927
0.000887311
0.000885725
0.000884177
0.000882663
0.000881214
0.000879838
0.000878532
0.000889447
0.000893067
0.000895652
0.00089723
0.000897951
0.000897966
0.000897445
0.0008965
0.000895259
0.00089383
0.000892318
0.000890727
0.000889103
0.00088747
0.000885865
0.000884291
0.000882737
0.000881256
0.000879859
0.00087854
0.000889564
0.000893211
0.000895837
0.000897464
0.000898204
0.000898215
0.000897692
0.000896735
0.000895477
0.000894019
0.000892456
0.000890834
0.000889189
0.000887547
0.000885926
0.000884336
0.000882779
0.000881259
0.000879832
0.000878497
0.000889668
0.000893341
0.000896018
0.000897664
0.000898401
0.000898396
0.000897839
0.000896865
0.000895597
0.000894135
0.000892556
0.000890916
0.000889252
0.000887592
0.000885952
0.000884341
0.000882762
0.000881217
0.000879786
0.000878454
0.000889752
0.000893442
0.000896139
0.000897763
0.000898499
0.000898507
0.000897948
0.000896968
0.000895691
0.000894219
0.000892627
0.000890972
0.000889294
0.000887622
0.000885973
0.000884362
0.000882799
0.000881297
0.000879867
0.000878544
0.000889822
0.000893529
0.000896212
0.000897846
0.000898585
0.000898593
0.000898031
0.000897045
0.000895761
0.000894279
0.000892675
0.000891008
0.000889318
0.000887634
0.000885976
0.000884356
0.000882782
0.000881249
0.000879787
0.000878462
0.00088988
0.000893592
0.000896283
0.000897922
0.00089866
0.000898665
0.000898098
0.000897106
0.000895813
0.000894321
0.000892706
0.000891026
0.000889323
0.000887626
0.000885953
0.000884314
0.000882705
0.000881135
0.000879672
0.000878359
0.000889947
0.000893671
0.000896378
0.000898005
0.000898734
0.000898731
0.000898156
0.000897156
0.000895854
0.000894351
0.000892724
0.000891032
0.000889316
0.000887605
0.000885919
0.000884265
0.000882637
0.000881052
0.000879601
0.00087829
0.00089002
0.000893771
0.00089647
0.000898081
0.000898801
0.00089879
0.000898208
0.000897199
0.000895887
0.000894373
0.000892734
0.000891028
0.000889299
0.000887576
0.000885881
0.000884227
0.000882623
0.000881059
0.000879605
0.000878303
0.000890072
0.000893824
0.000896504
0.000898139
0.000898861
0.000898847
0.000898258
0.00089724
0.000895917
0.000894391
0.000892738
0.000891018
0.000889274
0.000887538
0.000885835
0.000884184
0.000882607
0.000881123
0.000879703
0.000878419
0.000890128
0.000893885
0.000896556
0.000898208
0.000898926
0.000898907
0.00089831
0.000897282
0.000895947
0.000894406
0.000892738
0.000891001
0.000889241
0.000887488
0.000885767
0.00088409
0.0008825
0.000881051
0.00087967
0.000878339
0.000890201
0.000893969
0.000896651
0.00089826
0.000898993
0.000898973
0.000898368
0.000897328
0.000895979
0.000894423
0.000892737
0.000890981
0.000889201
0.00088743
0.000885688
0.000883983
0.000882356
0.000880894
0.000879504
0.000878193
0.000890289
0.000894065
0.000896746
0.000898349
0.000899096
0.000899059
0.000898439
0.000897384
0.000896018
0.000894443
0.000892738
0.000890962
0.000889162
0.000887372
0.000885618
0.00088392
0.000882274
0.000880797
0.000879443
0.000878171
0.000890402
0.000894187
0.000896873
0.000898486
0.000899198
0.000899154
0.00089852
0.00089745
0.000896067
0.000894473
0.000892747
0.000890949
0.000889125
0.00088731
0.00088553
0.000883823
0.000882238
0.0008808
0.000879474
0.000878191
0.000890537
0.000894324
0.000897004
0.000898598
0.000899269
0.000899254
0.000898614
0.00089753
0.000896131
0.000894518
0.000892772
0.000890953
0.000889107
0.000887267
0.000885457
0.000883717
0.000882168
0.000880729
0.000879363
0.000878104
0.000890679
0.000894473
0.000897152
0.000898738
0.000899397
0.000899362
0.000898727
0.000897628
0.000896213
0.000894585
0.000892823
0.000890987
0.000889125
0.000887271
0.00088545
0.00088368
0.00088205
0.000880529
0.000879114
0.000877815
0.00089083
0.000894634
0.000897316
0.000898902
0.000899562
0.000899466
0.000898849
0.000897741
0.000896314
0.000894674
0.000892901
0.000891056
0.000889188
0.000887332
0.00088551
0.000883736
0.00088205
0.000880449
0.000878999
0.000877686
0.000890987
0.000894801
0.000897485
0.000899068
0.000899718
0.000899608
0.000898972
0.000897867
0.000896429
0.000894779
0.000892999
0.000891148
0.000889276
0.000887417
0.000885589
0.000883799
0.000882069
0.000880474
0.000879002
0.000877698
0.000891149
0.000894973
0.00089766
0.000899241
0.000899887
0.000899773
0.000899069
0.000897972
0.000896539
0.000894888
0.000893105
0.000891254
0.000889382
0.000887529
0.0008857
0.000883911
0.000882161
0.000880574
0.000879114
0.000877802
0.000891312
0.000895148
0.000897838
0.000899415
0.000900049
0.000899911
0.000899163
0.000898049
0.000896647
0.000894997
0.000893212
0.000891358
0.000889485
0.000887632
0.000885792
0.000883996
0.000882311
0.000880748
0.000879303
0.000878027
0.000891482
0.00089533
0.000898024
0.000899599
0.000900227
0.000900081
0.000899323
0.000898158
0.000896757
0.000895107
0.000893313
0.000891451
0.000889573
0.000887717
0.000885885
0.000884107
0.000882469
0.000880945
0.000879517
0.000878311
0.000891663
0.000895523
0.00089822
0.000899792
0.000900415
0.000900265
0.000899509
0.000898297
0.000896863
0.000895213
0.0008934
0.000891523
0.000889631
0.000887762
0.000885949
0.000884263
0.000882707
0.000881189
0.000879747
0.000878518
0.000891855
0.000895725
0.000898424
0.000899993
0.000900609
0.000900449
0.000899684
0.000898461
0.000896971
0.000895297
0.000893463
0.000891562
0.00088964
0.000887731
0.000885909
0.000884281
0.000882717
0.000881189
0.000879766
0.000878494
0.000892057
0.000895937
0.000898638
0.000900202
0.000900809
0.00090064
0.000899866
0.000898639
0.000897088
0.000895373
0.000893518
0.000891594
0.000889651
0.000887723
0.00088583
0.000884105
0.000882508
0.000881006
0.000879603
0.000878343
0.000892267
0.000896158
0.00089886
0.000900419
0.000901015
0.000900831
0.000900039
0.000898793
0.000897223
0.000895436
0.000893554
0.00089161
0.000889669
0.000887737
0.000885838
0.000884062
0.0008824
0.000880921
0.000879534
0.000878307
0.000892487
0.00089639
0.000899093
0.000900645
0.000901229
0.000901028
0.000900216
0.000898945
0.000897346
0.000895527
0.000893622
0.000891677
0.000889744
0.000887816
0.000885967
0.000884192
0.000882478
0.000880972
0.000879565
0.000878309
0.000892721
0.000896635
0.000899339
0.000900884
0.000901456
0.000901239
0.000900407
0.000899116
0.000897498
0.000895666
0.000893716
0.000891767
0.0008898
0.000887855
0.000886037
0.00088427
0.000882546
0.000881024
0.000879589
0.000878271
0.000892966
0.000896892
0.000899597
0.000901136
0.000901694
0.000901461
0.00090061
0.000899298
0.000897656
0.000895792
0.000893809
0.000891836
0.000889863
0.000887915
0.000886083
0.000884324
0.000882609
0.000881037
0.000879579
0.000878295
0.000893224
0.000897163
0.000899868
0.000901399
0.000901945
0.000901694
0.000900824
0.000899491
0.000897829
0.00089595
0.000893954
0.000891935
0.000889955
0.000887998
0.000886116
0.000884355
0.000882664
0.000881069
0.000879634
0.000878362
0.000893494
0.000897446
0.000900153
0.000901676
0.000902208
0.000901939
0.000901048
0.000899691
0.000898001
0.000896086
0.000894035
0.000891981
0.000889983
0.000888032
0.000886152
0.000884369
0.000882692
0.000881143
0.000879731
0.000878471
0.000893777
0.000897743
0.000900451
0.000901967
0.000902485
0.000902199
0.000901288
0.00089991
0.000898197
0.000896254
0.000894163
0.000892058
0.000890031
0.000888075
0.000886187
0.000884392
0.000882688
0.000881097
0.000879684
0.000878452
0.000894074
0.000898054
0.000900765
0.000902273
0.000902778
0.000902474
0.000901544
0.000900147
0.000898416
0.00089646
0.000894366
0.000892201
0.000890088
0.000888047
0.000886124
0.000884296
0.000882564
0.000880985
0.000879578
0.000878355
0.000894386
0.000898382
0.000901095
0.000902596
0.000903087
0.000902765
0.000901815
0.000900397
0.000898646
0.000896672
0.000894564
0.000892393
0.00089021
0.000888119
0.00088614
0.000884291
0.000882573
0.000880982
0.000879527
0.000878276
0.000894714
0.000898728
0.000901444
0.000902939
0.000903415
0.000903075
0.000902104
0.000900664
0.00089889
0.000896894
0.000894764
0.000892575
0.00089039
0.000888264
0.000886251
0.000884383
0.000882649
0.000881038
0.000879551
0.000878256
0.000895061
0.000899094
0.000901813
0.000903301
0.000903765
0.000903407
0.000902416
0.000900954
0.000899158
0.000897138
0.000894982
0.000892762
0.000890537
0.000888357
0.000886304
0.000884425
0.000882665
0.000881018
0.000879488
0.000878144
0.000895427
0.000899479
0.000902204
0.000903685
0.000904136
0.000903761
0.000902751
0.000901271
0.000899458
0.000897422
0.000895251
0.000893017
0.000890778
0.000888583
0.000886508
0.000884579
0.000882753
0.000881046
0.000879467
0.000878082
0.000895813
0.000899885
0.000902614
0.000904089
0.000904526
0.000904135
0.000903107
0.000901611
0.000899784
0.000897738
0.000895564
0.000893334
0.000891105
0.000888929
0.000886846
0.000884871
0.000883017
0.000881295
0.000879708
0.000878313
0.000896218
0.000900311
0.000903044
0.000904512
0.000904934
0.000904524
0.000903478
0.000901963
0.000900121
0.000898066
0.000895888
0.000893659
0.000891439
0.000889273
0.000887197
0.000885233
0.000883404
0.000881705
0.000880133
0.000878746
0.00089664
0.000900755
0.000903491
0.000904951
0.000905357
0.000904927
0.000903857
0.000902321
0.00090046
0.000898389
0.000896201
0.000893968
0.00089175
0.000889592
0.000887526
0.000885575
0.000883758
0.000882065
0.000880495
0.00087911
0.000897079
0.000901215
0.000903956
0.000905407
0.000905795
0.000905341
0.000904246
0.000902683
0.000900796
0.000898703
0.000896496
0.000894249
0.000892023
0.000889862
0.000887801
0.00088586
0.00088405
0.000882361
0.000880792
0.000879405
0.000897529
0.000901694
0.000904442
0.000905884
0.000906252
0.000905771
0.000904645
0.000903051
0.000901134
0.000899011
0.000896778
0.000894508
0.000892262
0.000890086
0.000888013
0.000886064
0.000884246
0.000882552
0.000880977
0.000879582
0.00089802
0.000902208
0.000904959
0.000906388
0.000906733
0.000906222
0.000905062
0.000903432
0.000901479
0.000899323
0.000897057
0.000894758
0.000892486
0.000890287
0.000888195
0.00088623
0.000884399
0.000882694
0.000881109
0.000879702
0.000898547
0.000902759
0.00090551
0.000906924
0.000907242
0.000906697
0.0009055
0.000903831
0.00090184
0.000899646
0.000897345
0.000895013
0.000892712
0.000890487
0.000888372
0.000886388
0.000884542
0.000882825
0.000881228
0.000879809
0.00089911
0.000903347
0.000906098
0.000907494
0.000907782
0.000907201
0.000905963
0.000904253
0.000902221
0.000899987
0.000897648
0.000895282
0.000892949
0.000890696
0.000888558
0.000886554
0.000884691
0.000882962
0.000881354
0.00087992
0.000899711
0.000903972
0.000906722
0.000908099
0.000908356
0.000907735
0.000906455
0.000904701
0.000902625
0.000900349
0.000897971
0.000895568
0.000893202
0.000890921
0.000888758
0.000886734
0.000884854
0.000883113
0.000881493
0.000880044
0.000900348
0.000904635
0.000907384
0.000908741
0.000908965
0.000908303
0.000906978
0.000905177
0.000903055
0.000900736
0.000898317
0.000895877
0.000893477
0.000891166
0.000888977
0.000886931
0.000885034
0.00088328
0.000881648
0.000880183
0.000901022
0.000905338
0.000908086
0.000909422
0.000909612
0.000908907
0.000907535
0.000905685
0.000903516
0.000901151
0.000898689
0.000896209
0.000893774
0.000891432
0.000889216
0.000887148
0.000885232
0.000883463
0.00088182
0.000880338
0.000901729
0.000906078
0.000908829
0.000910146
0.0009103
0.000909551
0.000908129
0.000906229
0.00090401
0.000901597
0.00089909
0.00089657
0.000894098
0.000891723
0.000889479
0.000887387
0.000885451
0.000883666
0.000882009
0.00088051
0.000902433
0.000906849
0.000909616
0.000910917
0.000911036
0.00091024
0.000908766
0.000906813
0.000904541
0.000902078
0.000899525
0.000896961
0.000894451
0.000892042
0.000889769
0.000887652
0.000885697
0.000883895
0.000882226
0.000880713
0.000903249
0.000907702
0.00091047
0.000911748
0.000911827
0.000910981
0.000909451
0.000907441
0.000905113
0.000902598
0.000899995
0.000897387
0.000894837
0.000892393
0.000890091
0.000887951
0.000885977
0.000884162
0.000882484
0.000880955
0.000904136
0.000908624
0.000911392
0.000912644
0.000912678
0.000911777
0.000910188
0.000908118
0.000905731
0.00090316
0.000900506
0.000897851
0.000895259
0.000892779
0.000890447
0.000888283
0.000886291
0.000884467
0.000882789
0.000881259
0.000905092
0.000909619
0.000912385
0.000913608
0.000913595
0.000912635
0.000910983
0.000908847
0.000906398
0.000903768
0.00090106
0.000898356
0.00089572
0.000893203
0.00089084
0.00088865
0.00088664
0.000884803
0.00088312
0.000881582
0.000906122
0.00091069
0.000913455
0.000914646
0.000914582
0.000913559
0.000911838
0.000909634
0.000907119
0.000904426
0.000901661
0.000898906
0.000896225
0.000893669
0.000891273
0.000889057
0.000887027
0.000885176
0.000883486
0.00088194
0.000907232
0.000911843
0.000914606
0.000915763
0.000915644
0.000914554
0.00091276
0.000910482
0.000907896
0.000905138
0.000902312
0.000899503
0.000896776
0.00089418
0.00089175
0.000889508
0.000887457
0.000885591
0.000883891
0.000882336
0.000908427
0.000913085
0.000915846
0.000916967
0.000916789
0.000915626
0.000913753
0.000911396
0.000908735
0.000905906
0.000903018
0.000900152
0.000897376
0.000894738
0.000892275
0.000890005
0.000887934
0.000886052
0.000884342
0.000882775
0.000909716
0.000914425
0.000917183
0.000918265
0.000918022
0.00091678
0.000914822
0.000912381
0.000909638
0.000906735
0.000903778
0.000900854
0.000898026
0.000895345
0.000892846
0.000890549
0.000888456
0.000886557
0.000884832
0.000883251
0.000911107
0.000915871
0.000918626
0.000919666
0.000919352
0.000918024
0.000915974
0.000913439
0.000910609
0.000907625
0.000904597
0.000901609
0.000898727
0.000896001
0.000893465
0.000891138
0.000889022
0.000887105
0.000885364
0.000883767
0.000912611
0.000917433
0.000920184
0.000921176
0.000920786
0.000919363
0.000917211
0.000914576
0.000911649
0.000908577
0.000905471
0.000902416
0.000899476
0.000896703
0.000894129
0.000891771
0.000889631
0.000887696
0.000885939
0.000884326
0.000914238
0.000919122
0.000921867
0.000922806
0.00092233
0.000920802
0.000918537
0.00091579
0.000912757
0.000909589
0.000906398
0.00090327
0.000900269
0.000897446
0.000894832
0.000892443
0.00089028
0.000888327
0.000886555
0.00088493
0.000916005
0.000920949
0.000923684
0.000924562
0.000923989
0.000922344
0.000919952
0.000917079
0.000913928
0.000910653
0.000907368
0.00090416
0.000901094
0.000898218
0.000895563
0.000893145
0.00089096
0.000888992
0.00088721
0.000885577
0.000917934
0.000922912
0.000925638
0.000926447
0.000925765
0.000923986
0.00092145
0.000918434
0.000915148
0.000911752
0.000908362
0.000905066
0.000901929
0.000898998
0.000896303
0.000893857
0.000891654
0.000889677
0.000887891
0.000886257
0.00092005
0.000925028
0.000927737
0.000928464
0.000927655
0.000925721
0.000923018
0.000919836
0.000916394
0.000912858
0.000909348
0.000905953
0.000902738
0.000899749
0.000897015
0.000894544
0.000892331
0.000890353
0.000888574
0.000886951
0.000922349
0.000927308
0.000929986
0.000930612
0.00092965
0.000927531
0.000924631
0.00092125
0.000917623
0.000913921
0.00091027
0.00090676
0.000903458
0.000900408
0.000897636
0.000895148
0.000892935
0.00089097
0.000889215
0.000887623
0.000924844
0.000929765
0.00093239
0.000932883
0.00093173
0.000929385
0.000926242
0.000922619
0.000918765
0.00091486
0.000911037
0.000907391
0.000903988
0.000900872
0.000898065
0.000895571
0.000893374
0.000891444
0.000889738
0.000888205
0.000927495
0.00093246
0.000934949
0.000935252
0.000933853
0.000931222
0.000927774
0.000923848
0.000919708
0.000915548
0.000911511
0.000907696
0.000904172
0.000900982
0.000898144
0.000895657
0.000893499
0.000891635
0.000890016
0.000888588
0.000930276
0.000935258
0.000937591
0.000937652
0.000935938
0.000932943
0.000929107
0.000924792
0.000920284
0.000915795
0.000911481
0.000907451
0.000903775
0.000900497
0.00089763
0.000895169
0.000893083
0.000891329
0.000889853
0.000888593
0.000933186
0.000938135
0.000940248
0.000939991
0.000937872
0.000934409
0.00093007
0.00092525
0.000920261
0.000915339
0.00091066
0.000906343
0.000902469
0.000899078
0.000896182
0.000893766
0.000891792
0.000890208
0.000888949
0.000887949
0.000936199
0.000941043
0.000942841
0.00094216
0.000939511
0.00093544
0.00093045
0.00092497
0.000919347
0.000913851
0.000908683
0.000903982
0.000899836
0.000896291
0.000893353
0.000890998
0.000889179
0.000887832
0.000886885
0.000886266
0.000939266
0.000943912
0.000945273
0.000944031
0.000940698
0.000935847
0.000930018
0.000923684
0.000917236
0.000910986
0.000905167
0.000899945
0.000895424
0.000891652
0.000888635
0.00088634
0.000884708
0.000883665
0.000883131
0.000883028
0.000942327
0.000946675
0.000947472
0.000945508
0.000941314
0.000935488
0.000928612
0.000921207
0.000913717
0.000906504
0.000899843
0.000893931
0.000888892
0.000884783
0.000881608
0.000879329
0.000877876
0.000877167
0.000877119
0.000877657
0.000945302
0.000949314
0.000949498
0.000946589
0.000941368
0.000934394
0.000926283
0.000917609
0.000908876
0.000900498
0.000892801
0.000886015
0.000880287
0.000875684
0.000872212
0.000869829
0.000868462
0.000868029
0.00086845
0.000869671
0.000948238
0.000951561
0.000951224
0.000947436
0.000941152
0.000932955
0.000923516
0.000913468
0.000903375
0.000893707
0.000884832
0.000877015
0.000870422
0.000865131
0.000861151
0.000858442
0.000856934
0.000856557
0.000857254
0.000859011
0.000951221
0.000953924
0.000953231
0.000948766
0.000941497
0.000932159
0.000921476
0.000910132
0.000898737
0.000887804
0.000877736
0.000868818
0.000861227
0.000855047
0.000850288
0.000846917
0.000844877
0.000844124
0.000844642
0.000846486
0.000954583
0.000956966
0.000956209
0.000952129
0.000943864
0.000933708
0.00092214
0.000909843
0.000897454
0.000885507
0.000874415
0.000864467
0.000855836
0.000848602
0.000842774
0.000838327
0.000835222
0.00083345
0.000833054
0.000834178
0.000958983
0.000961649
0.000961012
0.000957454
0.00094996
0.000939928
0.000928214
0.000915615
0.000902803
0.000890319
0.000878565
0.000867811
0.000858215
0.00084984
0.000842692
0.000836746
0.000831984
0.000828431
0.000826188
0.000825496
0.000965439
0.000969783
0.00097077
0.000968534
0.000963442
0.000954004
0.000942931
0.000930828
0.000918331
0.000905939
0.000894014
0.000882793
0.000872403
0.000862891
0.000854249
0.000846452
0.000839495
0.000833422
0.00082838
0.000824681
0.000975578
0.000983013
0.000987129
0.000987168
0.000984447
0.000978654
0.000969182
0.000958532
0.000947177
0.000935559
0.000923988
0.000912664
0.000901696
0.000891111
0.000880889
0.000871001
0.000861441
0.000852263
0.000843628
0.000835875
0.000991453
0.00100403
0.00101309
0.00101748
0.00101725
0.00101464
0.00100952
0.00100104
0.000991618
0.000981392
0.000970633
0.000959503
0.000948139
0.000936562
0.000924727
0.000912598
0.000900171
0.000887499
0.000874727
0.000862176
0.00101538
0.00103534
0.00105099
0.00106119
0.00106601
0.00106624
0.00106392
0.00105958
0.00105287
0.00104455
0.00103495
0.00102412
0.00101246
0.000999968
0.000986481
0.000971987
0.000956507
0.000940096
0.000922874
0.000905101
0.00104963
0.00107911
0.00110294
0.00112008
0.00113092
0.00113639
0.00113737
0.00113552
0.0011314
0.00112468
0.00111594
0.00110557
0.00109388
0.00108083
0.00106578
0.00104867
0.00102992
0.00100958
0.000987724
0.000964528
0.00109608
0.00113672
0.00116977
0.00119456
0.00121173
0.00122247
0.00122792
0.00122892
0.00122657
0.00122146
0.00121345
0.00120304
0.00119048
0.00117595
0.00115963
0.00114091
0.00111882
0.00109431
0.00106766
0.00103894
0.00115603
0.00120883
0.00125163
0.0012843
0.00130788
0.00132375
0.00133323
0.0013374
0.00133702
0.00133291
0.00132538
0.00131458
0.00130091
0.00128454
0.00126568
0.00124456
0.00122033
0.00119166
0.00115993
0.00112559
0.00123
0.00129514
0.00134762
0.00138801
0.00141777
0.00143857
0.00145183
0.00145876
0.00146023
0.00145689
0.00144914
0.00143738
0.00142205
0.00140312
0.00138096
0.00135596
0.00132844
0.00129719
0.0012606
0.00122047
0.0013174
0.0013941
0.00145547
0.00150283
0.00153811
0.0015632
0.00157969
0.00158887
0.00159168
0.00158874
0.00158041
0.00156723
0.00154949
0.00152724
0.00150099
0.00147123
0.00143842
0.00140297
0.00136346
0.00131795
0.00141629
0.00150252
0.00157108
0.00162399
0.00166356
0.00169189
0.00171066
0.00172129
0.00172493
0.00172204
0.00171279
0.00169748
0.00167635
0.00164989
0.00161863
0.00158319
0.00154418
0.00150222
0.00145781
0.00140942
0.00152284
0.0016151
0.00168796
0.00174408
0.00178608
0.00181613
0.00183568
0.00184675
0.00185062
0.00184706
0.00183613
0.00181779
0.0017925
0.0017609
0.00172365
0.00168156
0.00163539
0.00158611
0.00153449
0.00148098
0.00163088
0.00172375
0.00179654
0.00185237
0.00189352
0.00192172
0.00194042
0.00195126
0.00195437
0.00194969
0.00193675
0.00191471
0.00188442
0.00184652
0.00180217
0.00175255
0.00169804
0.00164063
0.0015815
0.00152101
0.00173122
0.00181713
0.00188393
0.00193418
0.00196898
0.0019941
0.00200973
0.00201748
0.00201774
0.00200967
0.001992
0.00196132
0.00192395
0.00187956
0.00182886
0.00177488
0.00171155
0.00164324
0.0015738
0.00150836
0.00181105
0.00188035
0.00193341
0.00197009
0.00199396
0.00200749
0.00201798
0.0020237
0.00202094
0.00201045
0.00199305
0.00196961
0.00193262
0.00188418
0.00182358
0.00175058
0.00167531
0.00159749
0.00152018
0.00144635
0.00185318
0.0018955
0.00192293
0.00193677
0.0019502
0.00195809
0.00196031
0.00195612
0.00194943
0.00193763
0.00191729
0.00188637
0.0018426
0.00178608
0.0017181
0.00163707
0.00154622
0.00145345
0.0013623
0.00127722
0.00183685
0.00183835
0.00183293
0.00182978
0.00181621
0.00180571
0.00179674
0.00179047
0.00178488
0.00177634
0.00176006
0.00173118
0.00168555
0.00162213
0.00154442
0.00144759
0.0013348
0.00121817
0.00110673
0.00100896
0.0017352
0.00169118
0.00165033
0.00160773
0.00157593
0.00155276
0.00153979
0.00153693
0.00154122
0.00154607
0.00154297
0.00152343
0.00148006
0.00140978
0.00131815
0.00119847
0.00105506
0.000909136
0.000776092
0.000666811
0.00152999
0.00143945
0.00135843
0.001296
0.00124936
0.00122292
0.00121935
0.0012373
0.00127346
0.00131123
0.00133347
0.0013287
0.00128843
0.00120762
0.00109071
0.000933318
0.000753539
0.000591518
0.000462194
0.000360668
0.00120463
0.00109065
0.000995976
0.000927231
0.000890924
0.000892338
0.00093286
0.00099405
0.0010464
0.00106949
0.00107497
0.00106204
0.00102464
0.000962454
0.000868868
0.000741763
0.000592058
0.00043868
0.000311642
0.000235279
0.000818061
0.000713456
0.000633716
0.000618834
0.000669094
0.000753537
0.000835727
0.000895878
0.000934957
0.000956261
0.000962687
0.000955262
0.000932804
0.000888384
0.000811749
0.00069139
0.000535975
0.000368854
0.000239564
0.000175692
0.000433575
0.000445901
0.00051617
0.000615056
0.000717102
0.000799109
0.000852296
0.00088177
0.000896625
0.000902871
0.000903641
0.000899609
0.000889125
0.000866605
0.000820413
0.000727367
0.000562345
0.000363133
0.000218315
0.000182787
0.000365522
0.000448625
0.000581948
0.000723842
0.000811202
0.000849056
0.000862437
0.000866345
0.000867155
0.000866988
0.000866481
0.000865506
0.000863111
0.00085687
0.000839576
0.000795789
0.000697675
0.000496063
0.000274632
0.000202932
0.000473175
0.000643654
0.000816714
0.000848883
0.000852881
0.000854109
0.000854634
0.000854611
0.000854386
0.000854217
0.000854189
0.000854255
0.000854385
0.000854628
0.000855043
0.000853058
0.000834668
0.000767553
0.000645008
0.000545804
0.00087687
0.000877234
0.000877756
0.000878228
0.000878637
0.000878957
0.00087918
0.000879309
0.000879364
0.00087937
0.000879333
0.000879222
0.000879002
0.000878687
0.000878363
0.000878039
0.000877723
0.000877399
0.000877025
0.000876567
0.000876591
0.000877005
0.000877571
0.00087811
0.000878626
0.000879049
0.00087927
0.000879339
0.000879342
0.000879321
0.000879296
0.000879166
0.000878939
0.00087863
0.000878275
0.00087794
0.000877622
0.000877293
0.000876907
0.000876454
0.000876596
0.00087717
0.000877752
0.000878291
0.000878827
0.000879225
0.000879396
0.0008794
0.000879339
0.000879254
0.000879173
0.000878931
0.000878693
0.000878433
0.000878125
0.000877841
0.000877541
0.00087723
0.000876753
0.000876238
0.000876958
0.000877673
0.000878254
0.00087871
0.000879057
0.000879255
0.000879359
0.0008793
0.00087917
0.000879009
0.000878843
0.000878636
0.000878437
0.00087817
0.000877928
0.000877729
0.000877429
0.000877067
0.000876589
0.000876175
0.00087727
0.000877911
0.000878497
0.000878842
0.000879028
0.000879132
0.000879134
0.000879095
0.000878983
0.000878799
0.000878643
0.000878608
0.00087851
0.000878251
0.000877985
0.000877761
0.000877491
0.000877065
0.000876654
0.000876298
0.00087714
0.000877615
0.000878147
0.000878529
0.000878823
0.000878991
0.000879057
0.000879085
0.000879035
0.000878937
0.000878833
0.000878769
0.000878611
0.000878375
0.000878092
0.00087786
0.000877679
0.000877308
0.000876795
0.000876238
0.000876894
0.000877364
0.000877927
0.000878413
0.000878818
0.000879038
0.000879114
0.000879089
0.000879059
0.000879022
0.000878892
0.00087874
0.000878524
0.00087824
0.000877998
0.000877829
0.000877575
0.000877335
0.000876889
0.000876313
0.000876896
0.000877408
0.000877984
0.000878448
0.000878844
0.000879035
0.000879045
0.000879118
0.000879079
0.000879021
0.00087889
0.000878697
0.000878558
0.000878319
0.000878038
0.000877799
0.000877554
0.00087725
0.000876826
0.000876324
0.000876955
0.000877521
0.000878075
0.000878455
0.000878734
0.000878916
0.000879038
0.000879152
0.000879122
0.000879037
0.000878926
0.000878724
0.00087859
0.000878472
0.000878155
0.000877857
0.000877596
0.000877222
0.00087675
0.000876235
0.000877038
0.000877649
0.000878149
0.00087855
0.000878866
0.000879104
0.000879216
0.00087922
0.000879172
0.000878998
0.000878911
0.000878797
0.000878675
0.000878478
0.000878212
0.000877865
0.000877535
0.000877133
0.000876633
0.000876095
0.000877096
0.000877678
0.000878274
0.000878811
0.000879176
0.000879437
0.000879467
0.000879329
0.000879176
0.000879002
0.000878902
0.000878846
0.000878722
0.000878555
0.000878342
0.00087804
0.000877632
0.00087707
0.000876575
0.000875995
0.000877125
0.000877675
0.000878441
0.000878951
0.000879254
0.000879346
0.000879301
0.00087914
0.000878985
0.000878884
0.000878847
0.000878796
0.000878734
0.00087847
0.000878246
0.000878003
0.000877696
0.000877177
0.000876646
0.000876069
0.00087719
0.000877766
0.000878394
0.000878915
0.000879249
0.000879313
0.000879289
0.000879247
0.000879153
0.000879028
0.000878991
0.000878937
0.000878764
0.000878348
0.000878053
0.000877869
0.000877533
0.000877073
0.000876642
0.000876131
0.000877316
0.000877751
0.000878354
0.000878942
0.000879327
0.000879446
0.000879435
0.000879388
0.000879268
0.000879074
0.000878991
0.000878989
0.00087885
0.000878538
0.000878263
0.000877969
0.000877617
0.000877187
0.000876731
0.000876129
0.000877311
0.000877774
0.000878395
0.000878916
0.000879268
0.00087948
0.000879486
0.00087935
0.00087921
0.000879146
0.000879079
0.000879057
0.000878855
0.000878632
0.000878343
0.000878017
0.000877635
0.000877166
0.000876619
0.000875988
0.000877202
0.000877835
0.000878504
0.000878942
0.000879284
0.000879409
0.000879434
0.000879402
0.000879346
0.000879287
0.000879116
0.000878912
0.00087849
0.000878049
0.000877658
0.000877308
0.000876964
0.000876609
0.000876218
0.000875768
0.000877058
0.000877712
0.000878418
0.000878981
0.000879286
0.000879342
0.000879356
0.0008794
0.000879397
0.00087928
0.00087904
0.00087869
0.000878202
0.000877673
0.000877253
0.000876913
0.00087664
0.000876413
0.000876146
0.000875815
0.000877236
0.000877773
0.000878421
0.000878924
0.000879149
0.000879242
0.000879256
0.00087931
0.000879324
0.000879199
0.000878918
0.0008785
0.000878137
0.000877669
0.0008773
0.000876971
0.000876656
0.000876427
0.000876146
0.000875804
0.000877501
0.000877913
0.00087841
0.000878778
0.00087903
0.000879192
0.000879244
0.000879258
0.000879138
0.000878853
0.000878499
0.000878106
0.00087779
0.000877494
0.000877219
0.000876924
0.000876589
0.000876337
0.000876047
0.000875684
0.00087743
0.000877771
0.000878197
0.00087851
0.000878738
0.000878912
0.000879013
0.000878909
0.000878737
0.000878328
0.000877879
0.000877504
0.000877234
0.000877021
0.000876857
0.000876692
0.000876534
0.000876366
0.000876104
0.000875718
0.000877283
0.000877525
0.000877838
0.000878059
0.000878218
0.00087834
0.000878461
0.000878429
0.000878325
0.000878036
0.00087768
0.000877336
0.000877121
0.000876986
0.000876939
0.00087684
0.000876639
0.000876433
0.000876188
0.000875869
0.000877318
0.000877469
0.000877682
0.00087786
0.00087799
0.000878072
0.000878116
0.000878093
0.000878012
0.00087793
0.000877803
0.000877615
0.000877507
0.000877423
0.000877371
0.000877293
0.00087702
0.000876804
0.000876601
0.0008764
0.000877592
0.000877743
0.000877939
0.00087817
0.00087831
0.000878368
0.000878338
0.000878225
0.000878046
0.000877948
0.000877882
0.000877856
0.000877854
0.00087783
0.000877748
0.000877687
0.000877546
0.000877395
0.000877203
0.000876993
0.000877889
0.000878146
0.00087841
0.000878643
0.00087877
0.000878816
0.000878772
0.000878638
0.000878408
0.00087826
0.000878173
0.000878191
0.000878219
0.000878223
0.000878225
0.000878099
0.000878048
0.000877865
0.000877584
0.000877201
0.000878111
0.000878453
0.000878842
0.000879042
0.000879207
0.000879284
0.000879273