/*--------------------------------*- C++ -*----------------------------------*\
  =========                 |
  \\      /  F ield         | OpenFOAM: The Open Source CFD Toolbox
   \\    /   O peration     | Website:  https://openfoam.org
    \\  /    A nd           | Version:  6
     \\/     M anipulation  |
\*---------------------------------------------------------------------------*/
FoamFile
{
    version     2.0;
    format      ascii;
    class       volScalarField;
    location    "11";
    object      nut;
}
// * * * * * * * * * * * * * * * * * * * * * * * * * * * * * * * * * * * * * //

dimensions      [0 2 -1 0 0 0 0];

internalField   nonuniform List<scalar> 
10000
(
1.33245e-05
6.82299e-05
9.35812e-05
0.000128769
0.000175953
0.000232186
0.000291417
0.00034497
0.000386034
0.00040864
0.000409414
0.000387428
0.000346717
0.000293846
0.000235598
0.000179555
0.000131955
9.57525e-05
6.8955e-05
1.32895e-05
1.30748e-05
6.79233e-05
9.35041e-05
0.000129572
0.000176716
0.00023298
0.000294052
0.000349958
0.000391835
0.000415419
0.000419422
0.000397416
0.000354944
0.000299124
0.000240436
0.000182994
0.000133009
9.59421e-05
6.85098e-05
1.31565e-05
1.30069e-05
6.77442e-05
9.31219e-05
0.000129462
0.000176462
0.000232871
0.000293033
0.000347604
0.000389884
0.000415504
0.00041749
0.000394939
0.000352589
0.000297598
0.000238841
0.000182065
0.000135152
9.85846e-05
7.0158e-05
1.32771e-05
1.30007e-05
6.76035e-05
9.295e-05
0.000129848
0.000176778
0.000233261
0.000296684
0.000352398
0.000393531
0.00041524
0.000414978
0.000392129
0.000354769
0.000298399
0.000239562
0.000182428
0.000133942
9.76689e-05
6.92253e-05
1.3267e-05
1.31685e-05
6.81358e-05
9.43047e-05
0.000129084
0.000177708
0.000232811
0.000292249
0.000347201
0.000391836
0.000412895
0.000412584
0.000390632
0.000352091
0.000298688
0.000240387
0.000182271
0.000133068
9.71224e-05
6.79469e-05
1.32441e-05
1.3155e-05
6.8718e-05
9.27434e-05
0.000127956
0.000176021
0.000235298
0.000293348
0.000347566
0.000394326
0.000418121
0.000414995
0.000390846
0.000351564
0.00030093
0.000242983
0.000184826
0.00013364
9.59516e-05
6.96153e-05
1.33077e-05
1.31235e-05
6.67601e-05
9.42688e-05
0.000129185
0.000176949
0.000234102
0.000296578
0.000347993
0.000390306
0.000413034
0.000412045
0.000390323
0.000353137
0.00030115
0.0002415
0.000185785
0.000134768
9.51791e-05
6.83103e-05
1.3404e-05
1.30414e-05
6.71351e-05
9.63317e-05
0.000131384
0.000178422
0.000235134
0.000294232
0.000349218
0.000396443
0.000418261
0.000413615
0.000391061
0.000350742
0.000298494
0.000241492
0.000185418
0.000137078
9.64768e-05
6.92615e-05
1.3589e-05
1.30807e-05
6.73062e-05
9.56505e-05
0.000131751
0.000181102
0.000239557
0.000298942
0.000353527
0.000394697
0.000415667
0.000414526
0.000392473
0.000351985
0.000299671
0.000244113
0.000184838
0.000135289
9.74619e-05
6.96178e-05
1.36501e-05
1.31158e-05
6.88185e-05
9.56683e-05
0.000132126
0.000182005
0.000240172
0.000299055
0.000355923
0.000399048
0.000419554
0.000418674
0.000397076
0.000358129
0.000302973
0.000244557
0.000185986
0.000134779
9.6288e-05
6.90412e-05
1.34978e-05
1.30858e-05
6.95429e-05
9.70309e-05
0.00013231
0.000183672
0.00024145
0.000298928
0.00035389
0.000397406
0.000422288
0.000418925
0.000398083
0.000353992
0.000300896
0.000246231
0.000189
0.000136824
9.77433e-05
6.93421e-05
1.34431e-05
1.32212e-05
6.90708e-05
9.51879e-05
0.000132955
0.000182988
0.000243046
0.000302423
0.000357076
0.000400701
0.000420039
0.000419436
0.000398801
0.000354756
0.000300868
0.000244084
0.000188698
0.000138129
9.91707e-05
7.11634e-05
1.3794e-05
1.30798e-05
6.85167e-05
9.54223e-05
0.000131495
0.000185007
0.000243501
0.000302143
0.000356244
0.000396003
0.000417586
0.00041759
0.000394611
0.000354726
0.000301933
0.00024417
0.000190983
0.000139604
0.00010027
7.05931e-05
1.36543e-05
1.3051e-05
6.79163e-05
9.41246e-05
0.000131083
0.000182396
0.000241036
0.000301823
0.000355097
0.000396792
0.000421016
0.00042139
0.000399625
0.000355649
0.000300441
0.000244054
0.000189358
0.00014093
0.000102834
7.28712e-05
1.37879e-05
1.31867e-05
6.76364e-05
9.40457e-05
0.000131389
0.000183433
0.000240347
0.000302198
0.000358476
0.00040009
0.000419123
0.000417931
0.000394372
0.000354362
0.000302216
0.000242228
0.000186725
0.000139442
0.000103052
7.22835e-05
1.38183e-05
1.33068e-05
6.75908e-05
9.3292e-05
0.000132451
0.00018027
0.000240804
0.000297081
0.000351312
0.000395939
0.000415221
0.000418982
0.000399301
0.000356254
0.000302088
0.000244082
0.000185542
0.000137796
0.000102059
7.27312e-05
1.36973e-05
1.35252e-05
6.86341e-05
9.4582e-05
0.000131222
0.000179745
0.00023847
0.00029784
0.000353982
0.00039212
0.000413277
0.000414945
0.000395666
0.000357495
0.00030306
0.000241982
0.000184515
0.000136228
9.98464e-05
7.13104e-05
1.33453e-05
1.33323e-05
6.91612e-05
9.59018e-05
0.000131464
0.000180767
0.000234831
0.000296746
0.000349964
0.000390399
0.00041367
0.000416613
0.000395971
0.000355098
0.000301383
0.000242405
0.000185776
0.000135087
9.84058e-05
7.08117e-05
1.34211e-05
1.3298e-05
6.97791e-05
9.64653e-05
0.000133047
0.000178199
0.000233186
0.000293906
0.000347441
0.000388611
0.000412261
0.00041472
0.000395678
0.000354668
0.00029826
0.000239597
0.000183688
0.000135781
9.72943e-05
6.88614e-05
1.32975e-05
1.321e-05
6.86517e-05
9.759e-05
0.000132153
0.000177395
0.00023282
0.000292609
0.000347898
0.000389154
0.000412583
0.000417263
0.000395803
0.000349489
0.000295179
0.000237105
0.00018175
0.000134811
9.82877e-05
6.8918e-05
1.30968e-05
1.32781e-05
6.78994e-05
9.52785e-05
0.000130326
0.000177204
0.000232619
0.00029279
0.000351295
0.000391418
0.000412231
0.000413438
0.00039135
0.000348614
0.000296702
0.00023841
0.000181816
0.000135068
9.72467e-05
6.82076e-05
1.31371e-05
1.3438e-05
6.83682e-05
9.44568e-05
0.000128981
0.00017811
0.000234523
0.00029328
0.000350368
0.000388688
0.000413476
0.000415786
0.00039576
0.000347655
0.00029309
0.000235173
0.000181197
0.000133821
9.61831e-05
6.84934e-05
1.3209e-05
1.31933e-05
6.85629e-05
9.35602e-05
0.000129536
0.000175911
0.000231488
0.000290354
0.000344439
0.000386036
0.000409901
0.000412338
0.000390586
0.000347109
0.000294118
0.000235636
0.00018206
0.000134588
9.75497e-05
6.88989e-05
1.31402e-05
1.32702e-05
6.86499e-05
9.54602e-05
0.00012904
0.000175758
0.000232208
0.000293367
0.000346231
0.000386926
0.000413
0.000415319
0.00039216
0.000348849
0.000293002
0.000233308
0.000179118
0.000132867
9.62344e-05
6.82627e-05
1.3209e-05
1.31514e-05
6.91633e-05
9.39148e-05
0.000129163
0.000176571
0.000233469
0.000292503
0.000347489
0.000389253
0.000411091
0.000414546
0.00039284
0.000348366
0.000292515
0.000233378
0.000178123
0.000132273
9.76671e-05
6.96883e-05
1.32135e-05
1.30943e-05
6.7253e-05
9.30335e-05
0.00013082
0.000179819
0.000235595
0.000292126
0.000346483
0.000388563
0.000412724
0.000416579
0.000389675
0.000347247
0.000292733
0.000233746
0.000178352
0.000133233
9.50044e-05
6.9108e-05
1.33256e-05
1.32995e-05
6.82813e-05
9.43386e-05
0.000130139
0.00017877
0.000236399
0.000293724
0.000345686
0.000386916
0.000412932
0.000415115
0.000391959
0.000352413
0.000295897
0.000236908
0.000180164
0.000132119
9.58733e-05
6.92588e-05
1.33057e-05
1.33047e-05
6.99475e-05
9.56727e-05
0.000131089
0.000178948
0.000237572
0.000297278
0.000352174
0.000393565
0.000413264
0.000411457
0.000389191
0.000348495
0.000296235
0.000237107
0.000180273
0.000133905
9.52952e-05
6.9977e-05
1.3472e-05
1.33865e-05
6.92673e-05
9.6714e-05
0.00013216
0.00017966
0.000236142
0.000295655
0.000351027
0.000392914
0.000413515
0.000410088
0.00038745
0.000346977
0.000297251
0.000238721
0.000180023
0.000132007
9.62969e-05
6.99539e-05
1.35169e-05
1.3375e-05
6.9337e-05
9.73461e-05
0.000133363
0.000181438
0.000237019
0.000297682
0.000349905
0.000392862
0.000416719
0.000416359
0.00039103
0.000349739
0.000296045
0.000237811
0.000181811
0.000132251
9.83686e-05
7.03013e-05
1.35174e-05
1.33635e-05
7.00277e-05
9.66426e-05
0.00013231
0.000182295
0.000236505
0.000294712
0.000348521
0.000392212
0.000414615
0.000413297
0.000390166
0.000348791
0.00029458
0.000236932
0.000182419
0.000132127
9.62406e-05
7.01468e-05
1.34805e-05
1.36656e-05
6.96627e-05
9.42311e-05
0.000132579
0.000181896
0.000237606
0.000298366
0.000352606
0.000396003
0.000418691
0.000414173
0.000389805
0.000349859
0.000295444
0.000237602
0.000181558
0.000132406
9.62038e-05
7.09569e-05
1.34021e-05
1.36261e-05
7.01619e-05
9.5342e-05
0.000135092
0.000181978
0.000238383
0.000299384
0.000352031
0.000392058
0.000414919
0.000414929
0.000393249
0.000351643
0.000298918
0.000242227
0.000183035
0.000133483
9.54347e-05
6.97779e-05
1.3453e-05
1.3666e-05
6.96311e-05
9.56946e-05
0.000134649
0.000184348
0.000241754
0.000298245
0.000353426
0.000391883
0.000415307
0.000415441
0.000393334
0.000352049
0.000298257
0.000240607
0.000184475
0.000136425
9.71437e-05
6.92303e-05
1.34789e-05
1.38175e-05
7.22196e-05
9.65858e-05
0.000137105
0.00018547
0.000239685
0.00029857
0.000352638
0.000392236
0.000418833
0.000419449
0.000396429
0.000353312
0.000297213
0.000237955
0.000182516
0.000134976
9.93571e-05
7.00804e-05
1.35583e-05
1.41664e-05
7.11846e-05
9.75186e-05
0.000138337
0.000185278
0.000238846
0.000296689
0.000352338
0.00039262
0.000418056
0.00042044
0.00039843
0.000356315
0.000300013
0.000238465
0.000181987
0.000134105
9.73006e-05
6.9637e-05
1.34741e-05
1.40786e-05
7.18839e-05
9.85884e-05
0.000138281
0.000185646
0.00024123
0.000299214
0.000354622
0.0003973
0.000418434
0.000417369
0.000394782
0.000352365
0.000299748
0.000239768
0.000183059
0.000136154
9.76127e-05
6.96304e-05
1.34572e-05
1.40059e-05
7.33277e-05
0.000101404
0.000139711
0.000185498
0.000238903
0.000295979
0.000349022
0.000390927
0.000417509
0.000416294
0.000394552
0.000353631
0.000301593
0.000243907
0.000185023
0.00013563
9.77429e-05
6.94531e-05
1.32847e-05
1.3757e-05
7.27157e-05
0.000100604
0.000138386
0.000186615
0.000239617
0.000296301
0.000348435
0.00038911
0.000412697
0.000414195
0.00039258
0.000353503
0.000299079
0.000241226
0.000185515
0.000137379
9.87385e-05
6.96379e-05
1.34156e-05
1.38754e-05
7.39804e-05
0.000103176
0.000138197
0.000185984
0.000242842
0.000300358
0.000349968
0.000389775
0.00041368
0.000420852
0.000397057
0.000355425
0.000301783
0.000244877
0.000185829
0.000136131
9.87636e-05
7.03349e-05
1.36626e-05
1.37055e-05
7.25284e-05
0.00010112
0.000136816
0.000184253
0.000241047
0.000298564
0.000351846
0.000389995
0.000413871
0.000418387
0.000395132
0.000354463
0.000302006
0.000242126
0.000182303
0.000135228
9.84375e-05
6.93828e-05
1.34472e-05
1.36563e-05
7.15526e-05
9.93027e-05
0.000136024
0.000186979
0.000240241
0.000302693
0.000352872
0.000390535
0.000411845
0.000414211
0.000392536
0.000354658
0.000298971
0.000240826
0.000181809
0.000133773
9.61095e-05
6.90935e-05
1.30282e-05
1.32903e-05
6.95623e-05
9.75688e-05
0.000136748
0.000186107
0.000239582
0.00030075
0.000352279
0.000391335
0.000414428
0.000417666
0.00039454
0.000351239
0.00029975
0.00024168
0.00018263
0.000132638
9.58376e-05
6.82957e-05
1.31856e-05
1.31112e-05
6.83382e-05
9.795e-05
0.000135781
0.000185539
0.00023976
0.000298223
0.000349931
0.000389376
0.000409162
0.000409608
0.000390367
0.000351565
0.000296722
0.000239284
0.000183867
0.000133249
9.62559e-05
6.91349e-05
1.31111e-05
1.30706e-05
6.86537e-05
9.73786e-05
0.000135368
0.000184209
0.000241405
0.000297154
0.000349566
0.000388343
0.000411272
0.000410355
0.00038798
0.000348469
0.000296769
0.000239983
0.000181897
0.000133532
9.78619e-05
6.81993e-05
1.31461e-05
1.28997e-05
6.89656e-05
9.69122e-05
0.000133773
0.000181616
0.00023751
0.000296325
0.00034985
0.000392053
0.000414647
0.000412163
0.000387914
0.000349226
0.000298942
0.000236834
0.000180685
0.000133501
9.82914e-05
6.96767e-05
1.30775e-05
1.32191e-05
6.8742e-05
9.59535e-05
0.000132316
0.000179475
0.000234858
0.000292821
0.00034759
0.000388853
0.000410379
0.000409213
0.00038797
0.000350637
0.000298989
0.000236665
0.000181823
0.000133903
9.84641e-05
6.99049e-05
1.32442e-05
1.33381e-05
6.88872e-05
9.75595e-05
0.000135094
0.000181383
0.000236958
0.000293912
0.000348283
0.000389534
0.000411626
0.000411504
0.000388227
0.000350687
0.000295255
0.000236759
0.00018118
0.00013521
9.71691e-05
7.06071e-05
1.33424e-05
1.3349e-05
6.98996e-05
9.63277e-05
0.000133586
0.000182606
0.000238666
0.000294708
0.000346997
0.000386916
0.000408185
0.000410303
0.000389027
0.000351649
0.000298835
0.000240758
0.000182744
0.000134054
9.89569e-05
6.99829e-05
1.33569e-05
1.34456e-05
7.08073e-05
9.64496e-05
0.000132764
0.000182266
0.000239311
0.000296934
0.000350399
0.000390626
0.000411765
0.000409329
0.000385862
0.000347388
0.000294708
0.000236711
0.000180476
0.000134067
9.7144e-05
6.98285e-05
1.33731e-05
1.3376e-05
6.90415e-05
9.62728e-05
0.000133304
0.000181929
0.000238679
0.000296979
0.000352105
0.000391009
0.000409871
0.000407682
0.000384891
0.000346388
0.000293055
0.000235624
0.000181474
0.000136437
9.79935e-05
6.97205e-05
1.34403e-05
1.35641e-05
6.93772e-05
9.63177e-05
0.000134393
0.000182064
0.00023855
0.000298891
0.000349444
0.000391914
0.000416652
0.00041273
0.000387512
0.000345041
0.000294182
0.00023786
0.00018141
0.000135471
9.78319e-05
7.07414e-05
1.35114e-05
1.35351e-05
6.88841e-05
9.81916e-05
0.000137405
0.000183931
0.000237722
0.000297076
0.000349752
0.000393419
0.000414968
0.000411802
0.000386185
0.00034487
0.000293859
0.000237838
0.000183284
0.00013476
9.72549e-05
7.0181e-05
1.35004e-05
1.35447e-05
6.97742e-05
9.73282e-05
0.000136784
0.000185001
0.000236718
0.000296068
0.000351872
0.000389866
0.00041252
0.000413385
0.000390392
0.000347496
0.000292567
0.000236308
0.000180656
0.000133261
9.71689e-05
6.92383e-05
1.34106e-05
1.35366e-05
7.05685e-05
9.84591e-05
0.000136955
0.000184065
0.000236262
0.000293933
0.000352121
0.00039405
0.000414456
0.000415843
0.000393047
0.000347193
0.000293558
0.000234585
0.000178928
0.000132378
9.8497e-05
7.10773e-05
1.34461e-05
1.35792e-05
6.93126e-05
0.000100539
0.000136246
0.000182359
0.000237773
0.000293975
0.000347367
0.000388327
0.000410811
0.000412009
0.000392331
0.000349639
0.00029336
0.000234689
0.000179352
0.000132275
9.57794e-05
7.01125e-05
1.33728e-05
1.3527e-05
6.86685e-05
9.94022e-05
0.000134621
0.000182658
0.000236086
0.00029595
0.000350617
0.000392126
0.000412521
0.000414619
0.000389911
0.000350975
0.000296103
0.000236724
0.000180329
0.000133253
9.62331e-05
7.04086e-05
1.32377e-05
1.32956e-05
6.98239e-05
9.89047e-05
0.000133586
0.000180222
0.000235612
0.000295394
0.000351376
0.000392531
0.000415191
0.00041222
0.000390622
0.000348407
0.000295364
0.000236656
0.000181816
0.000134621
9.71975e-05
6.94206e-05
1.31953e-05
1.3181e-05
6.93609e-05
9.74648e-05
0.00013329
0.000182958
0.000236905
0.000294998
0.000348752
0.000392097
0.000414944
0.000414527
0.000389111
0.000346716
0.00029392
0.000238129
0.000181186
0.00013332
9.57868e-05
6.94468e-05
1.30943e-05
1.28757e-05
6.81797e-05
9.84342e-05
0.000133928
0.000182277
0.000237869
0.000296286
0.000351421
0.000390163
0.000412902
0.000413585
0.000391762
0.000347278
0.000294332
0.000237208
0.000182942
0.000134778
9.61784e-05
6.92041e-05
1.32341e-05
1.29444e-05
6.86828e-05
9.7233e-05
0.000134207
0.000184088
0.000238711
0.000298031
0.000349886
0.000389749
0.000415537
0.000412356
0.000389101
0.000347569
0.0002954
0.000240225
0.00018449
0.000135458
9.69046e-05
6.89975e-05
1.31406e-05
1.2774e-05
6.81376e-05
9.67599e-05
0.000133855
0.000183679
0.000241226
0.000299132
0.00035416
0.000392572
0.000413299
0.000414507
0.00039034
0.00034892
0.000296533
0.000241191
0.000184108
0.000135506
9.88734e-05
7.07896e-05
1.32618e-05
1.31903e-05
6.86972e-05
9.67579e-05
0.000134012
0.00018214
0.000238997
0.000299382
0.000349608
0.000390524
0.00041388
0.000417771
0.000397189
0.000354081
0.000300468
0.000241493
0.000184465
0.000136432
9.89851e-05
7.06187e-05
1.33115e-05
1.32867e-05
6.96577e-05
9.80231e-05
0.000134112
0.000183232
0.000239752
0.000297574
0.000351704
0.000394327
0.000415114
0.000417163
0.00039489
0.000353568
0.000300487
0.00024182
0.000184602
0.000136427
9.90101e-05
6.97829e-05
1.3279e-05
1.33723e-05
7.03216e-05
9.77795e-05
0.000134308
0.000181491
0.000237023
0.000295443
0.000349789
0.000392997
0.000417768
0.000417648
0.000394861
0.000352796
0.000299985
0.000243613
0.000186049
0.000135503
9.85627e-05
7.01231e-05
1.33055e-05
1.30694e-05
6.99582e-05
9.94795e-05
0.000135742
0.000183252
0.000238491
0.000296771
0.000350997
0.00039658
0.000421155
0.000420588
0.000394851
0.000353822
0.000302313
0.000242348
0.000183443
0.000134297
9.70746e-05
7.01259e-05
1.33305e-05
1.32554e-05
7.02503e-05
9.95482e-05
0.00013696
0.0001858
0.000239893
0.00029908
0.000352108
0.000393795
0.000416784
0.000419153
0.00039713
0.000356323
0.000301669
0.000242213
0.000184471
0.000135027
9.75467e-05
7.01829e-05
1.33079e-05
1.32978e-05
7.06626e-05
0.000100067
0.000137082
0.000185015
0.000240952
0.000299388
0.000354263
0.000400427
0.000420593
0.000418703
0.000396492
0.00035751
0.000300783
0.000241362
0.000184047
0.000135323
9.8082e-05
6.96993e-05
1.33502e-05
1.29015e-05
7.08981e-05
0.000100303
0.000137781
0.000187871
0.000243523
0.000301361
0.000355774
0.000399792
0.000423508
0.000423869
0.000401376
0.000359357
0.000303109
0.000244445
0.000187828
0.000137932
0.000100006
7.20212e-05
1.33282e-05
1.31955e-05
7.12306e-05
0.000100043
0.000138894
0.000189109
0.000247433
0.000307471
0.000362544
0.000402799
0.000429108
0.000427738
0.000404185
0.000360174
0.000305111
0.00024666
0.00018739
0.000136725
9.84299e-05
7.08384e-05
1.33715e-05
1.32813e-05
7.0984e-05
9.97489e-05
0.000139018
0.000190251
0.000248078
0.000306114
0.000360602
0.00040268
0.000427199
0.000433081
0.000410924
0.000366175
0.000310124
0.00024802
0.000188723
0.000137678
9.92563e-05
7.02247e-05
1.32844e-05
1.30482e-05
7.05367e-05
9.9676e-05
0.000140174
0.000192067
0.000250497
0.000310847
0.000363506
0.000405683
0.000430615
0.000432258
0.000410346
0.000368211
0.000311415
0.000248114
0.000188558
0.000137629
9.9253e-05
7.10979e-05
1.31621e-05
1.31625e-05
7.05034e-05
9.98688e-05
0.00014067
0.000193719
0.000253809
0.000315722
0.000369694
0.00041464
0.000435813
0.000436019
0.000413436
0.000371225
0.000315312
0.000252613
0.000189839
0.000138031
9.92942e-05
7.06338e-05
1.31624e-05
1.28798e-05
7.01801e-05
0.000100312
0.000140622
0.000195164
0.000255933
0.000317217
0.000372552
0.000415542
0.000439538
0.000440092
0.000417485
0.000375277
0.000318604
0.000251855
0.00019018
0.000138521
9.93661e-05
7.04604e-05
1.29859e-05
1.27459e-05
6.98665e-05
9.96778e-05
0.000141245
0.000196823
0.000258961
0.000321056
0.000379104
0.000420937
0.000448032
0.000445196
0.000421917
0.000380502
0.000321934
0.000256061
0.000193099
0.000140284
9.95062e-05
6.97495e-05
1.28869e-05
1.26144e-05
7.04799e-05
9.94944e-05
0.000143079
0.000198071
0.000261859
0.000326555
0.000384342
0.000428491
0.000450535
0.000453829
0.000430534
0.000385062
0.000325163
0.000256361
0.000192162
0.000140141
9.95914e-05
6.96472e-05
1.27575e-05
1.24102e-05
6.92529e-05
9.89871e-05
0.000141741
0.000196252
0.000264916
0.000331183
0.000390286
0.000434508
0.000459079
0.000459679
0.000435926
0.000389428
0.000328946
0.000260809
0.000193187
0.000142447
9.94279e-05
6.91019e-05
1.26835e-05
1.23211e-05
6.86711e-05
9.89919e-05
0.000144199
0.000197767
0.000267719
0.000336467
0.000396549
0.000439248
0.00046359
0.00046512
0.000439448
0.000392532
0.000332018
0.00026059
0.000193577
0.00014138
9.96962e-05
6.97129e-05
1.25238e-05
1.20673e-05
6.85819e-05
9.87843e-05
0.000141458
0.000199156
0.000271919
0.000341606
0.000402587
0.00044657
0.000474884
0.000473398
0.000444675
0.000397709
0.000337136
0.000265952
0.000194563
0.000140186
9.90576e-05
6.94752e-05
1.27056e-05
1.23592e-05
6.7922e-05
9.6885e-05
0.000142122
0.000200602
0.0002747
0.000346854
0.00041061
0.000458749
0.000485197
0.000483892
0.000452477
0.000403705
0.000340976
0.000265994
0.000196996
0.000140909
9.80898e-05
6.92524e-05
1.25088e-05
1.21869e-05
6.77649e-05
9.79068e-05
0.000142711
0.00020423
0.000279328
0.000353737
0.000419663
0.000470219
0.000496815
0.000495408
0.000466129
0.000415082
0.00034821
0.000269856
0.000200218
0.000141828
9.91356e-05
6.87854e-05
1.22647e-05
1.19583e-05
6.63546e-05
9.68992e-05
0.0001421
0.000209315
0.000283806
0.000362102
0.000430879
0.000482748
0.000509758
0.00050818
0.000477213
0.000425209
0.000356432
0.000277343
0.000198547
0.000140979
9.87459e-05
6.77033e-05
1.17541e-05
1.16598e-05
6.47019e-05
9.34912e-05
0.000141178
0.000210411
0.000290216
0.000370972
0.000442755
0.000496509
0.00052464
0.000522885
0.000491184
0.000436486
0.00036507
0.000282689
0.000200642
0.000140568
9.80519e-05
6.62389e-05
1.09121e-05
1.14384e-05
6.42268e-05
9.14536e-05
0.000145704
0.000213268
0.000296563
0.000381381
0.000455803
0.000511382
0.000540509
0.000539188
0.000507731
0.000450733
0.000375517
0.000289955
0.000205683
0.000140292
9.8045e-05
6.43977e-05
1.03183e-05
1.09446e-05
6.39661e-05
9.39638e-05
0.000147963
0.0002159
0.000301232
0.00039203
0.000469635
0.000527112
0.000557341
0.000556276
0.000524317
0.000465402
0.000386
0.000295812
0.000211862
0.000144833
9.87761e-05
6.28225e-05
1.01258e-05
1.00954e-05
6.23298e-05
9.81394e-05
0.000157499
0.000223016
0.000311522
0.000405633
0.00048588
0.000544889
0.000575913
0.00057509
0.000542546
0.000482277
0.000400999
0.00030674
0.000219986
0.000152005
9.56203e-05
6.05538e-05
9.73375e-06
9.65985e-06
6.01321e-05
9.43924e-05
0.000154497
0.000230762
0.000328279
0.00042134
0.00050373
0.000564189
0.000596144
0.000595924
0.000563106
0.000501374
0.000417895
0.000324278
0.000234197
0.000163413
9.72092e-05
5.97121e-05
9.7765e-06
9.44778e-06
5.83568e-05
9.64896e-05
0.000157574
0.000242652
0.000343412
0.00043844
0.000522234
0.000584549
0.000618107
0.000618625
0.000585334
0.00052139
0.000433634
0.000337286
0.000241178
0.000164202
9.6415e-05
5.77787e-05
9.60526e-06
1.01159e-05
5.69044e-05
0.000105155
0.000176636
0.000260433
0.000362407
0.000464843
0.000550445
0.000611097
0.000643599
0.000643249
0.000609231
0.00054429
0.000456289
0.000357279
0.000255871
0.000173041
0.000100592
5.75392e-05
1.02321e-05
1.03298e-05
5.8313e-05
0.000113687
0.000187564
0.000279682
0.000391203
0.000494073
0.000580551
0.000642652
0.000674949
0.000674718
0.000641129
0.000574649
0.000485043
0.000381903
0.000273764
0.000175541
0.000100224
5.7835e-05
1.17989e-05
1.21001e-05
6.48254e-05
0.000129092
0.000202086
0.000303346
0.000419689
0.000527129
0.000614029
0.000674826
0.000706119
0.000706256
0.000674787
0.00061242
0.000520517
0.00041163
0.000298648
0.000199061
0.000118791
6.13349e-05
1.19079e-05
1.28069e-05
6.69203e-05
0.000138311
0.000223294
0.000334331
0.00045641
0.000564204
0.00064935
0.000707668
0.00073724
0.000737386
0.000707943
0.000649282
0.000563234
0.000453822
0.000331925
0.000224143
0.000132925
6.86747e-05
1.31676e-05
1.43741e-05
7.25855e-05
0.000147833
0.000247639
0.000371172
0.000498159
0.000604692
0.000686051
0.000740208
0.000767209
0.000767448
0.000740731
0.000686302
0.000603978
0.000496243
0.000370056
0.000251034
0.000148756
7.36773e-05
1.43567e-05
1.58231e-05
7.70793e-05
0.000164338
0.000281615
0.000418578
0.000544609
0.000647873
0.000723483
0.000771801
0.000795226
0.000795353
0.000772079
0.000723595
0.000647426
0.000543366
0.000417175
0.000285137
0.000169303
8.08254e-05
1.57616e-05
1.72777e-05
8.79089e-05
0.000193644
0.000324144
0.00046582
0.000592599
0.000690881
0.000758442
0.00079926
0.000818619
0.000818691
0.000799422
0.000758495
0.000690483
0.00059138
0.000463336
0.000319308
0.000190076
8.74158e-05
1.73312e-05
1.91291e-05
9.84557e-05
0.000215458
0.000362721
0.000515344
0.000642552
0.000732733
0.00078934
0.000820815
0.000834143
0.000834177
0.000820882
0.000789342
0.000732575
0.000642109
0.000514534
0.000361305
0.000216408
9.85202e-05
1.91025e-05
2.05228e-05
0.000112643
0.000247959
0.000413517
0.000575612
0.000697189
0.000773365
0.000815683
0.000835472
0.000842909
0.000842922
0.000835494
0.000815707
0.000773312
0.000696874
0.000574732
0.000411792
0.000245803
0.000111911
2.06021e-05
2.2145e-05
0.000132035
0.000291363
0.000486163
0.000652365
0.000757012
0.000811222
0.000834549
0.000843642
0.000846899
0.000846916
0.00084367
0.000834605
0.00081135
0.000757332
0.000653101
0.000487427
0.000292661
0.0001328
2.21013e-05
2.37134e-05
0.000165188
0.000384322
0.000609418
0.000754042
0.000817231
0.000838916
0.000846012
0.000849468
0.000850926
0.000850928
0.000849462
0.000845953
0.000838713
0.000816884
0.000753443
0.000608538
0.000383315
0.000165014
2.37786e-05
2.56479e-05
0.000278916
0.000619435
0.000786613
0.000831321
0.000844331
0.000849472
0.000851566
0.000851943
0.000851943
0.000851943
0.000851934
0.00085153
0.000849431
0.000844337
0.00083135
0.000786664
0.000620003
0.000279203
2.56298e-05
3.70478e-05
0.0001124
0.000138262
0.000165921
0.000201603
0.000248448
0.000306041
0.00037041
0.000427809
0.000458661
0.00045522
0.000418448
0.000360558
0.000297726
0.000242477
0.000198177
0.000162792
0.000135282
0.000107253
3.69387e-05
3.7311e-05
0.000114769
0.000139115
0.00016728
0.000202985
0.000251443
0.000311611
0.000380038
0.000441295
0.000471915
0.000467282
0.000428332
0.00036788
0.000303315
0.000246811
0.0002023
0.000165536
0.000138357
0.000107562
3.82892e-05
3.80046e-05
0.000112961
0.000140455
0.00016656
0.000203703
0.000252503
0.000308582
0.000373602
0.000433273
0.000456898
0.000451799
0.000415319
0.000357645
0.000296541
0.000243104
0.000200914
0.000164073
0.00013764
0.000106403
3.70595e-05
3.93616e-05
0.000114991
0.000137172
0.000167107
0.00020546
0.00024883
0.000305959
0.000368828
0.000428592
0.000454476
0.000448426
0.000413072
0.000357355
0.000295393
0.000241679
0.000201156
0.000165739
0.000138749
0.000109993
3.49659e-05
3.86977e-05
0.000110889
0.000136823
0.000168206
0.000208685
0.000251333
0.000306647
0.000369992
0.000439603
0.000454936
0.000450611
0.000415039
0.000357802
0.0002964
0.000243023
0.000201203
0.000166554
0.000138393
0.000108225
3.53013e-05
3.74278e-05
0.000108441
0.00013765
0.000172167
0.000205675
0.000249388
0.000307079
0.000370389
0.000431702
0.00045465
0.000449519
0.000417681
0.000359593
0.000298109
0.00024299
0.000197921
0.000164601
0.000137304
0.000106117
3.54983e-05
3.94671e-05
0.00010769
0.000139102
0.000171179
0.000207294
0.000249799
0.000307891
0.000371061
0.000432716
0.000454445
0.000450652
0.000420603
0.000365418
0.000301037
0.000242595
0.000201634
0.000168281
0.00013494
0.000105598
3.72821e-05
3.75926e-05
0.000109598
0.00014324
0.000170195
0.000206138
0.0002507
0.000311868
0.000377884
0.000428435
0.000455629
0.000451878
0.000412071
0.000355461
0.000297264
0.000241919
0.000197394
0.000165071
0.000138967
0.000107899
3.60312e-05
3.75787e-05
0.000113449
0.000141137
0.000172012
0.000208967
0.000253022
0.0003068
0.000370614
0.000438133
0.00045982
0.000455017
0.000414862
0.000357509
0.000296677
0.000245811
0.000198453
0.000163066
0.000134233
0.000107177
3.73614e-05
3.92715e-05
0.000112547
0.000143588
0.000171475
0.00021148
0.000251713
0.000306639
0.00036928
0.000435962
0.000461523
0.000469327
0.000428552
0.000366537
0.000301198
0.000243279
0.000199731
0.000164483
0.000136539
0.000111423
3.50745e-05
3.81915e-05
0.000113471
0.000142037
0.000173217
0.000207598
0.000252897
0.000309057
0.000370474
0.000438808
0.000464074
0.000465428
0.000425364
0.000363896
0.000299398
0.000241509
0.000199166
0.000165437
0.000138884
0.00010769
3.61592e-05
3.76232e-05
0.000112716
0.000140068
0.000169532
0.000203369
0.000250757
0.000307537
0.000369534
0.000435195
0.000471496
0.000465406
0.000425164
0.000364073
0.000299181
0.000243337
0.000196964
0.000165716
0.000136924
0.00011111
3.73119e-05
3.94557e-05
0.000112706
0.000139787
0.000169182
0.000203378
0.000248488
0.000306983
0.00036827
0.000423378
0.000459106
0.000455132
0.000418746
0.000359521
0.000296031
0.000244317
0.000198755
0.000167257
0.000140048
0.000108917
3.44746e-05
3.77994e-05
0.000112133
0.000140636
0.00016926
0.000204118
0.000249444
0.000311919
0.000369382
0.000423106
0.000468444
0.000463535
0.000425998
0.000361264
0.000295951
0.000243441
0.000196694
0.000165189
0.000138192
0.000108888
3.47608e-05
3.6868e-05
0.000111514
0.000141802
0.000168098
0.000203183
0.000251481
0.000305647
0.000372788
0.000421033
0.000449905
0.000445569
0.000411511
0.000364114
0.000297413
0.000242326
0.000197083
0.000164724
0.000136083
0.00011154
3.38204e-05
3.6382e-05
0.000112423
0.00013905
0.00016618
0.000202926
0.000249745
0.000305598
0.000362728
0.000423726
0.000449707
0.000445932
0.000411525
0.000356481
0.000296314
0.000241302
0.00019596
0.000162828
0.00013528
0.000113117
3.45279e-05
3.76911e-05
0.000111632
0.000140808
0.000166725
0.000204971
0.000247248
0.000309349
0.000361143
0.000412108
0.000447192
0.000445558
0.000410689
0.000361245
0.000297123
0.000246566
0.000199766
0.000165006
0.000134945
0.00010977
3.35096e-05
3.56615e-05
0.000109161
0.000137408
0.000168196
0.000205539
0.00024907
0.000302641
0.000360629
0.000415263
0.000454191
0.000451229
0.000412649
0.000354299
0.000294788
0.000240517
0.000195258
0.000161398
0.00013619
0.000107737
3.48898e-05
3.71115e-05
0.000109151
0.000137818
0.000168132
0.000205247
0.000248794
0.000303954
0.000362755
0.000419194
0.00046956
0.000453812
0.000413975
0.000354
0.00029785
0.000237992
0.00019573
0.000163344
0.000133584
0.000105238
3.53163e-05
3.53222e-05
0.00010807
0.000138698
0.000169269
0.000207068
0.000250008
0.000309363
0.00037056
0.000419781
0.000462584
0.000455799
0.000422746
0.000354131
0.00029778
0.000240043
0.000195196
0.000163211
0.000136955
0.000108322
3.67193e-05
3.47864e-05
0.000110319
0.000143393
0.000172441
0.000212282
0.000253661
0.000304277
0.000362204
0.000418106
0.000458245
0.000461796
0.000415144
0.0003521
0.00029549
0.000239569
0.000194145
0.000163065
0.000135806
0.000108608
3.46208e-05
3.59153e-05
0.000112812
0.000141501
0.000173005
0.000214015
0.000255064
0.000306194
0.000363621
0.00042856
0.000455288
0.000452
0.000412201
0.000352361
0.000292169
0.000237632
0.000195606
0.00016212
0.000134835
0.000110362
3.6224e-05
3.52232e-05
0.000110004
0.000139721
0.000175914
0.000212799
0.00025653
0.000308481
0.000364561
0.000419739
0.000468111
0.00046629
0.000423812
0.000354748
0.000294378
0.000240154
0.000195742
0.000161708
0.000137975
0.000108626
3.59253e-05
3.60816e-05
0.000110936
0.00014134
0.000172502
0.000211236
0.000259587