/*--------------------------------*- C++ -*----------------------------------*\
  =========                 |
  \\      /  F ield         | OpenFOAM: The Open Source CFD Toolbox
   \\    /   O peration     | Website:  https://openfoam.org
    \\  /    A nd           | Version:  6
     \\/     M anipulation  |
\*---------------------------------------------------------------------------*/
FoamFile
{
    version     2.0;
    format      ascii;
    class       volScalarField;
    location    "11";
    object      p;
}
// * * * * * * * * * * * * * * * * * * * * * * * * * * * * * * * * * * * * * //

dimensions      [0 2 -2 0 0 0 0];

internalField   nonuniform List<scalar> 
130000
(
0.00541836
0.004712
0.00419971
0.00381623
0.00349506
0.00320459
0.00293515
0.0026706
0.00241122
0.00214963
0.00188714
0.00162181
0.0013533
0.0010815
0.000810642
0.000538206
0.000268839
-5.4651e-07
-0.000273585
-0.000543729
0.00800754
0.00738379
0.00675888
0.00626677
0.00579877
0.00536637
0.00492533
0.0044872
0.00403748
0.0035826
0.00312303
0.00265805
0.00219701
0.00173723
0.00128327
0.000836562
0.000401331
-3.30459e-05
-0.000462481
-0.000880497
0.00879512
0.00830081
0.00765557
0.00711407
0.0065559
0.00602368
0.00547258
0.00493022
0.00437615
0.00381979
0.00325982
0.00269509
0.00213617
0.00157025
0.00102428
0.00047204
-5.3197e-05
-0.000585506
-0.0010965
-0.00161194
0.00922423
0.00871387
0.00805021
0.00744814
0.00679252
0.00613127
0.00544242
0.00475527
0.00406057
0.00336221
0.00266988
0.00197083
0.0012913
0.00060898
-4.74882e-05
-0.000702688
-0.00132236
-0.0019465
-0.00253496
-0.00313088
0.00927044
0.00888895
0.00830278
0.00772549
0.00705388
0.00633527
0.00557573
0.00479764
0.00401081
0.00320795
0.00241451
0.00160768
0.000825921
3.06469e-05
-0.000721316
-0.00148591
-0.00219647
-0.0029191
-0.00358716
-0.00427557
0.0089568
0.00862109
0.0080996
0.00756236
0.00690713
0.00616859
0.00537967
0.00454943
0.00370899
0.00283451
0.00197312
0.00108259
0.000226369
-0.000649851
-0.00148003
-0.0023231
-0.00310578
-0.00390457
-0.0046389
-0.00539793
0.00809329
0.00787919
0.00743516
0.00694895
0.00632504
0.0055844
0.00478811
0.00392638
0.00305549
0.00213092
0.00122235
0.000270507
-0.000643271
-0.00159393
-0.00248401
-0.00340555
-0.0042516
-0.00512582
-0.00592314
-0.00676665
0.00718252
0.00698307
0.00657681
0.00612511
0.00553092
0.00479124
0.00399406
0.00311179
0.00222254
0.00126239
0.000322858
-0.000676925
-0.0016304
-0.00262979
-0.00356733
-0.00453944
-0.00543128
-0.00635787
-0.00719958
-0.0080947
0.00610004
0.00586708
0.00546052
0.00503427
0.00446427
0.00373123
0.00293849
0.00204641
0.00114846
0.000166017
-0.000794415
-0.00182633
-0.00281062
-0.00385675
-0.00482948
-0.00585523
-0.00678843
-0.00776889
-0.00865488
-0.00961575
0.00464374
0.00446657
0.00411722
0.00374027
0.00321637
0.00250353
0.00172899
0.00083845
-5.65101e-05
-0.00105056
-0.00201912
-0.00307469
-0.00407599
-0.00514806
-0.00614691
-0.00720267
-0.00816265
-0.00917795
-0.0100929
-0.011091
0.00320977
0.00298418
0.00263329
0.0022752
0.00177791
0.00107606
0.000316954
-0.00057062
-0.00145808
-0.00245727
-0.00342849
-0.00449749
-0.00551107
-0.00661093
-0.00762732
-0.00871886
-0.00970407
-0.0107575
-0.0117033
-0.0127534
0.00142081
0.00126928
0.000981784
0.000678169
0.00022935
-0.00045022
-0.00118667
-0.00206537
-0.00294004
-0.0039393
-0.00490607
-0.00598504
-0.00700172
-0.00811338
-0.00914174
-0.0102495
-0.0112483
-0.0123238
-0.0132866
-0.0143623
-0.000236056
-0.000457813
-0.000751079
-0.00103
-0.00145209
-0.00211776
-0.00283788
-0.00370758
-0.00456977
-0.00556516
-0.00652644
-0.00760783
-0.008627
-0.00975425
-0.0107896
-0.0119208
-0.0129345
-0.0140364
-0.0150202
-0.0161363
-0.00222813
-0.00238546
-0.00261819
-0.00283403
-0.00321008
-0.00384684
-0.00454208
-0.00539537
-0.0062402
-0.00722721
-0.00817778
-0.00926004
-0.0102751
-0.0114049
-0.0124441
-0.0135824
-0.0146015
-0.0157163
-0.0167095
-0.0178424
-0.00427587
-0.00437631
-0.00455491
-0.00472358
-0.00506122
-0.00567605
-0.00634825
-0.00718645
-0.0080135
-0.00899048
-0.00993104
-0.0110091
-0.0120214
-0.0131584
-0.0141995
-0.015352
-0.0163799
-0.0175116
-0.0185203
-0.019683
-0.00628227
-0.00635627
-0.00649231
-0.00661415
-0.00691642
-0.00750819
-0.00815875
-0.00898001
-0.00978966
-0.010755
-0.0116835
-0.0127575
-0.0137634
-0.0148978
-0.0159392
-0.0170927
-0.0181224
-0.0192605
-0.0202755
-0.0214486
-0.00840894
-0.00842391
-0.0085108
-0.00857624
-0.00884093
-0.00940545
-0.0100356
-0.0108376
-0.0116313
-0.0125821
-0.0135013
-0.014566
-0.0155695
-0.0167047
-0.0177474
-0.0189076
-0.0199447
-0.0210919
-0.0221208
-0.0233144
-0.0103126
-0.010374
-0.0104597
-0.0104832
-0.0107237
-0.0112657
-0.0118807
-0.0126644
-0.013445
-0.0143817
-0.0152914
-0.0163487
-0.0173475
-0.0184773
-0.0195213
-0.0206797
-0.0217193
-0.0228693
-0.0239048
-0.0251045
-0.0124703
-0.0124552
-0.0124838
-0.0124488
-0.0126525
-0.0131671
-0.0137634
-0.0145265
-0.0152935
-0.0162136
-0.0171161
-0.018161
-0.0191592
-0.0202853
-0.0213332
-0.0224933
-0.0235422
-0.0246955
-0.0257458
-0.026957
-0.014434
-0.014405
-0.014406
-0.0143332
-0.0145125
-0.0150093
-0.0155933
-0.0163395
-0.0170954
-0.018001
-0.0188965
-0.0199327
-0.0209285
-0.0220481
-0.0230992
-0.0242566
-0.0253104
-0.0264655
-0.0275254
-0.0287415
-0.0164506
-0.0163777
-0.0163392
-0.0162209
-0.0163729
-0.0168478
-0.017421
-0.018149
-0.0188964
-0.0197856
-0.0206783
-0.0217014
-0.0227001
-0.0238128
-0.0248711
-0.026026
-0.0270922
-0.0282463
-0.0293245
-0.0305465
-0.0182554
-0.0182123
-0.0181804
-0.0180239
-0.0181602
-0.0186134
-0.0191811
-0.0198926
-0.0206361
-0.0215112
-0.0224023
-0.0234167
-0.0244176
-0.0255247
-0.02659
-0.0277433
-0.0288182
-0.0299752
-0.0310679
-0.0322967
-0.0201478
-0.0200635
-0.0200059
-0.0198028
-0.0199193
-0.0203479
-0.0209106
-0.0216038
-0.0223456
-0.0232043
-0.0240982
-0.025099
-0.0261083
-0.0272072
-0.0282847
-0.0294328
-0.0305247
-0.0316775
-0.0327932
-0.0340237
-0.0219122
-0.0218059
-0.0217327
-0.0214905
-0.0215919
-0.0220015
-0.0225618
-0.0232407
-0.0239832
-0.0248304
-0.0257277
-0.0267219
-0.0277378
-0.0288333
-0.029922
-0.031071
-0.0321759
-0.0333345
-0.0344707
-0.0357123
-0.0235837
-0.0234708
-0.0233851
-0.0231088
-0.0231976
-0.0235891
-0.0241498
-0.0248143
-0.02556
-0.0263941
-0.0272987
-0.0282816
-0.0293101
-0.0303984
-0.0315037
-0.0326476
-0.0337742
-0.0349283
-0.0360928
-0.0373357
-0.0251672
-0.0250441
-0.0249589
-0.0246409
-0.0247179
-0.0250908
-0.0256525
-0.0263053
-0.0270548
-0.0278811
-0.0287925
-0.0297728
-0.0308117
-0.0319012
-0.0330221
-0.0341715
-0.035316
-0.0364805
-0.0376707
-0.0389301
-0.0266234
-0.0265034
-0.0264123
-0.0260694
-0.0261378
-0.0265001
-0.0270643
-0.0277088
-0.0284633
-0.0292821
-0.0302031
-0.0311772
-0.0322318
-0.0333195
-0.0344608
-0.0356106
-0.0367808
-0.0379454
-0.0391674
-0.0404325
-0.0280607
-0.0279095
-0.027794
-0.027417
-0.0274673
-0.0278187
-0.0283813
-0.0290211
-0.0297794
-0.0305969
-0.0315254
-0.0325029
-0.0335696
-0.034664
-0.0358236
-0.0369845
-0.0381754
-0.0393555
-0.0406058
-0.0418931
-0.0292821
-0.0291507
-0.0290281
-0.028636
-0.0286764
-0.0290255
-0.0295896
-0.0302284
-0.0309914
-0.0318085
-0.0327472
-0.0337257
-0.0348087
-0.0359089
-0.0370896
-0.038259
-0.0394767
-0.0406655
-0.0419491
-0.0432525
-0.0304891
-0.0303328
-0.0301854
-0.0297596
-0.0297819
-0.0301231
-0.0306857
-0.0313235
-0.0320902
-0.0329108
-0.0338581
-0.0348455
-0.0359414
-0.0370527
-0.0382523
-0.0394374
-0.0406769
-0.0418868
-0.0431998
-0.0445317
-0.0314965
-0.0313498
-0.0311945
-0.0307487
-0.0307603
-0.0310985
-0.0316627
-0.0323013
-0.033073
-0.0338968
-0.0348552
-0.035849
-0.0369619
-0.0380857
-0.0393067
-0.040508
-0.0417751
-0.0430026
-0.0443505
-0.04571
-0.0324342
-0.0322686
-0.032091
-0.0316112
-0.0316044
-0.0319351
-0.0324977
-0.033137
-0.0339122
-0.034742
-0.0357094
-0.0367158
-0.0378427
-0.0389817
-0.0402229
-0.041444
-0.0427341
-0.0439875
-0.0453656
-0.046759
-0.0331839
-0.0330257
-0.0328334
-0.0323313
-0.0323098
-0.0326374
-0.0331997
-0.0338408
-0.0346199
-0.0354548
-0.0364328
-0.037449
-0.0385936
-0.0397499
-0.0410133
-0.0422568
-0.0435763
-0.0448544
-0.0462696
-0.0476997
-0.0338295
-0.0336523
-0.0334329
-0.0328955
-0.0328524
-0.0331728
-0.0337315
-0.0343739
-0.0351552
-0.0359967
-0.0369823
-0.0380126
-0.0391711
-0.0403451
-0.0416299
-0.0428964
-0.0442404
-0.0455483
-0.0469958
-0.0484646
-0.0342758
-0.0340986
-0.03386
-0.0332975
-0.0332362
-0.0335522
-0.0341078
-0.034752
-0.0355354
-0.036383
-0.0373778
-0.0384189
-0.0395947
-0.0407889
-0.0420969
-0.0433895
-0.0447643
-0.0461016
-0.0475887
-0.049101
-0.0345908
-0.0343891
-0.0341184
-0.0335167
-0.0334291
-0.0337352
-0.0342837
-0.034928
-0.0357115
-0.0365662
-0.0375677
-0.0386241
-0.0398134
-0.041027
-0.0423567
-0.0436748
-0.0450761
-0.0464467
-0.0479683
-0.0495237
-0.0346817
-0.0344789
-0.0341812
-0.0335503
-0.0334387
-0.0337379
-0.0342791
-0.0349236
-0.0357063
-0.0365664
-0.0375756
-0.0386436
-0.03985
-0.0410857
-0.04244
-0.043788
-0.0452228
-0.0466269
-0.0481909
-0.0497948
-0.0346281
-0.0343933
-0.0340544
-0.0333781
-0.033234
-0.033519
-0.0340486
-0.0346902
-0.0354694
-0.0363345
-0.0373484
-0.0384314
-0.039651
-0.0409076
-0.0422853
-0.0436615
-0.0451248
-0.0465653
-0.0481666
-0.0498179
-0.034327
-0.0340796
-0.033707
-0.0329942
-0.0328205
-0.0330931
-0.0336108
-0.0342488
-0.0350236
-0.035892
-0.0369113
-0.038005
-0.0392406
-0.0405199
-0.0419222
-0.0433298
-0.0448281
-0.0463056
-0.0479523
-0.0496571
-0.0338531
-0.0335634
-0.0331418
-0.0323753
-0.0321627
-0.0324155
-0.0329166
-0.0335473
-0.0343148
-0.0351853
-0.0362064
-0.0373133
-0.0385601
-0.0398595
-0.0412844
-0.0427211
-0.0442494
-0.0457664
-0.0474536
-0.0492106
-0.0331028
-0.0327934
-0.0323266
-0.031515
-0.0312648
-0.0314992
-0.0319825
-0.0326049
-0.0333634
-0.0342335
-0.0352563
-0.0363713
-0.0376317
-0.0389524
-0.0404009
-0.0418699
-0.0434345
-0.0449919
-0.0467279
-0.0485441
-0.032159
-0.0317937
-0.0312647
-0.0303892
-0.0300911
-0.030298
-0.0307577
-0.0313668
-0.0321124
-0.03298
-0.0340002
-0.0351251
-0.0363935
-0.0377324
-0.0392023
-0.0407007
-0.0422964
-0.0438962
-0.0456759
-0.0475494
-0.0309053
-0.030506
-0.0299206
-0.028989
-0.0286433
-0.028823
-0.0292565
-0.0298501
-0.0305799
-0.0314417
-0.0324588
-0.0335881
-0.034867
-0.0362258
-0.0377181
-0.0392494
-0.0408824
-0.0425254
-0.0443569
-0.046295
-0.0294271
-0.0289594
-0.0282978
-0.0272888
-0.0268828
-0.0270247
-0.0274247
-0.027997
-0.0287063
-0.0295596
-0.0305688
-0.0317044
-0.0329883
-0.0343638
-0.0358766
-0.0374377
-0.0391027
-0.0407903
-0.0426685
-0.0446687
-0.0276063
-0.0270937
-0.0263572
-0.0252771
-0.0248093
-0.0249128
-0.0252761
-0.0258239
-0.0265093
-0.0273502
-0.0283507
-0.0294868
-0.0307781
-0.0321719
-0.0337062
-0.0353008
-0.0370044
-0.0387377
-0.0406709
-0.0427409
-0.025526
-0.0249298
-0.0240983
-0.0229237
-0.0223813
-0.0224344
-0.0227534
-0.0232696
-0.023926
-0.024751
-0.0257377
-0.0268752
-0.0281683
-0.0295765
-0.0311303
-0.0327549
-0.034492
-0.0362727
-0.0382563
-0.0403938
-0.0230752
-0.0224086
-0.0214829
-0.0202165
-0.0195971
-0.0195972
-0.0198678
-0.0203482
-0.0209716
-0.0217757
-0.0227474
-0.0238798
-0.0251766
-0.0266004
-0.0281748
-0.029833
-0.0316105
-0.0334398
-0.0354829
-0.0376962
-0.0203026
-0.0195347
-0.0184972
-0.0171163
-0.0164074
-0.0163421
-0.0165566
-0.0169935
-0.0175784
-0.0183574
-0.0193084
-0.0204363
-0.0217307
-0.0231659
-0.0247587
-0.026447
-0.0282597
-0.0301397
-0.0322381
-0.0345258
-0.0171303
-0.0162676
-0.0151116
-0.0136155
-0.0128119
-0.0126767
-0.0128297
-0.0132175
-0.0137591
-0.0145071
-0.0154357
-0.0165515
-0.0178454
-0.0192924
-0.0209047
-0.0226262
-0.0244817
-0.0264134
-0.0285771
-0.0309477
-0.0135777
-0.0125933
-0.0113025
-0.00966801
-0.0087563
-0.00853806
-0.00862081
-0.00895072
-0.00944255
-0.0101544
-0.0110542
-0.0121579
-0.0134446
-0.0148992
-0.0165286
-0.0182802
-0.0201734
-0.0221598
-0.0243849
-0.026838
-0.00958269
-0.00847589
-0.00704153
-0.00526545
-0.0042389
-0.00393137
-0.00393689
-0.00420189
-0.00463779
-0.00530632
-0.00617489
-0.00725801
-0.00853916
-0.010001
-0.0116486
-0.013433
-0.0153719
-0.0174138
-0.0197114
-0.0222557
-0.00515057
-0.00389452
-0.00229894
-0.000357725
0.000798823
0.00121011
0.00129226
0.0011021
0.000729753
0.0001104
-0.000719439
-0.00178176
-0.00304991
-0.004515
-0.00617819
-0.00799305
-0.00997263
-0.0120742
-0.0144409
-0.017078
-0.000223419
0.00118082
0.00295131
0.00506421
0.00636108
0.00688471
0.00706346
0.00695687
0.00665559
0.00609399
0.0053061
0.00427436
0.00301786
0.00155097
-0.000129284
-0.0019763
-0.00400538
-0.00616687
-0.00861489
-0.0113533
0.00519669
0.00678095
0.00874622
0.0110574
0.012511
0.013163
0.01345
0.0134382
0.0132169
0.0127199
0.0119825
0.010982
0.00974537
0.00828031
0.00658629
0.00470837
0.00263476
0.000407333
-0.00211949
-0.00496353
0.0111788
0.0129468
0.0151204
0.0176374
0.0192586
0.0200491
0.0204545
0.0205478
0.0204151
0.0199927
0.0193099
0.0183517
0.0171339
0.0156733
0.0139637
0.0120539
0.009926
0.00763264
0.00501355
0.00205536
0.0177143
0.0197001
0.022105
0.0248575
0.0266656
0.0276128
0.0281504
0.0283618
0.0283282
0.0279885
0.0273701
0.0264554
0.0252657
0.0238128
0.0220913
0.0201496
0.0179721
0.0156047
0.0128948
0.00981496
0.0248798
0.0270857
0.0297399
0.0327379
0.0347467
0.035863
0.0365451
0.0368871
0.0369633
0.0367182
0.0361697
0.0353111
0.0341492
0.0327081
0.0309727
0.0289991
0.0267615
0.0243205
0.0215048
0.0182944
0.0326516
0.0351212
0.0380516
0.0413288
0.0435607
0.0448674
0.0457108
0.0461986
0.0463975
0.0462569
0.0457902
0.0449901
0.0438665
0.0424402
0.0406956
0.0386889
0.0363958
0.0338707
0.0309493
0.027597
0.0411285
0.0438627
0.0470885
0.0506567
0.0531284
0.0546403
0.0556601
0.0563089
0.0566439
0.0566222
0.0562447
0.0555177
0.0544334
0.053028
0.0512722
0.0492338
0.0468737
0.0442652
0.0412212
0.0377174
0.0502604
0.0533081
0.0568638
0.0607626
0.0635019
0.0652441
0.0664611
0.0672894
0.0677766
0.0678863
0.0676125
0.0669627
0.0659301
0.064549
0.0627878
0.0607152
0.0582924
0.0555876
0.0524194
0.0487482
0.0601562
0.0635187
0.0674293
0.071676
0.0747041
0.076696
0.0781291
0.0791563
0.0798125
0.0800717
0.0799119
0.079357
0.0783788
0.0770303
0.075262
0.0731578
0.07066
0.0678594
0.0645479
0.0606986
0.0707452
0.0744832
0.0787892
0.0834302
0.0867801
0.0890523
0.0907267
0.0919759
0.0928215
0.0932464
0.0932185
0.0927651
0.0918562
0.0905444
0.0887761
0.086637
0.0840681
0.081156
0.0776974
0.0736491
0.0821545
0.0862711
0.0910006
0.0960579
0.0997554
0.102332
0.104272
0.105767
0.106823
0.107436
0.107554
0.107223
0.106389
0.105125
0.103356
0.101185
0.0985319
0.0955084
0.091881
0.0876212
0.0942859
0.0988479
0.10405
0.109578
0.113663
0.116581
0.118817
0.120587
0.12188
0.122702
0.122988
0.12279
0.122048
0.120837
0.119075
0.11687
0.114135
0.110982
0.107179
0.102681
0.107258
0.112275
0.117988
0.124017
0.128523
0.131813
0.134376
0.136451
0.138008
0.139068
0.139541
0.139502
0.13886
0.137717
0.135963
0.133727
0.130897
0.127612
0.123609
0.118857
0.120959
0.126507
0.132785
0.139378
0.144354
0.14806
0.150989
0.153406
0.15526
0.156584
0.157273
0.157407
0.156889
0.15582
0.154085
0.151813
0.14889
0.145451
0.141238
0.136198
0.135493
0.14159
0.148481
0.155677
0.161165
0.165328
0.168662
0.171459
0.173644
0.175269
0.176199
0.176538
0.176155
0.175179
0.173463
0.171162
0.168129
0.164533
0.160078
0.154728
0.150725
0.15745
0.165024
0.172897
0.178957
0.18363
0.187417
0.190638
0.193197
0.195156
0.196362
0.196925
0.196705
0.195832
0.194148
0.191811
0.188668
0.184889
0.180177
0.174474
0.166711
0.174103
0.182426
0.191033
0.197718
0.202952
0.207239
0.210932
0.213905
0.216243
0.217756
0.218582
0.218541
0.217793
0.216143
0.213777
0.210507
0.206536
0.201529
0.195443
0.183321
0.191467
0.20062
0.210045
0.217424
0.223279
0.228121
0.232335
0.235771
0.238526
0.240389
0.241502
0.241673
0.241063
0.239464
0.237064
0.233665
0.229471
0.224148
0.217626
0.200567
0.20952
0.21958
0.229892
0.238027
0.244557
0.250004
0.254789
0.258732
0.26195
0.264196
0.265639
0.266044
0.2656
0.264059
0.261633
0.258088
0.253661
0.24798
0.240984
0.218307
0.228152
0.23921
0.250496
0.259455
0.266715
0.272814
0.278211
0.282701
0.286417
0.289086
0.290885
0.291559
0.291302
0.289841
0.287394
0.283707
0.27902
0.272959
0.265435
0.23646
0.247273
0.259418
0.271745
0.281576
0.289602
0.29638
0.302414
0.307473
0.311715
0.314829
0.31702
0.317988
0.317949
0.316589
0.314141
0.31031
0.305367
0.298895
0.29081
0.254891
0.266743
0.280051
0.293481
0.304215
0.313013
0.320467
0.327128
0.332749
0.337512
0.34108
0.343672
0.344962
0.34517
0.343945
0.341523
0.337578
0.332381
0.325503
0.316824
0.27337
0.286342
0.300889
0.315443
0.327064
0.336588
0.344658
0.351885
0.358013
0.363254
0.367247
0.370238
0.371853
0.372335
0.371278
0.36893
0.364904
0.3595
0.35223
0.342964
0.291735
0.305829
0.321632
0.337286
0.349716
0.359848
0.368405
0.376064
0.382577
0.388192
0.392534
0.395869
0.397796
0.398561
0.397709
0.395483
0.391448
0.385891
0.37829
0.368469
0.309457
0.324726
0.341788
0.358459
0.371543
0.382086
0.390915
0.398793
0.405494
0.411315
0.415866
0.419452
0.421624
0.422649
0.422009
0.41995
0.415957
0.410328
0.40246
0.392149
0.326323
0.34264
0.36085
0.37837
0.391872
0.402533
0.411332
0.41913
0.425746
0.431524
0.436081
0.439747
0.442049
0.443259
0.442796
0.440904
0.436983
0.431317
0.423239
0.412481
0.341469
0.358791
0.378014
0.396143
0.409766
0.420203
0.428622
0.435994
0.442202
0.447642
0.451941
0.455466
0.457701
0.458939
0.458533
0.45671
0.452777
0.44702
0.438672
0.427434
0.354589
0.372608
0.392583
0.411018
0.424422
0.434267
0.441936
0.448519
0.453978
0.45875
0.462489
0.465576
0.467486
0.468503
0.467906
0.465909
0.461725
0.455632
0.446824
0.434973
0.364395
0.382993
0.403502
0.421944
0.434814
0.443764
0.450393
0.455892
0.460308
0.46411
0.466974
0.469302
0.470536
0.470946
0.469747
0.467111
0.462191
0.455315
0.445682
0.432887
0.370447
0.389223
0.41001
0.428207
0.440284
0.448119
0.453538
0.457789
0.46098
0.463576
0.465283
0.466483
0.466613
0.465891
0.463468
0.459504
0.453155
0.444858
0.433728
0.419167
0.370677
0.389603
0.410676
0.42868
0.440015
0.44677
0.451033
0.454083
0.456034
0.457304
0.457616
0.457315
0.455808
0.453232
0.448751
0.442542
0.433854
0.423028
0.409091
0.391513
0.364214
0.382942
0.404362
0.422459
0.433447
0.439537
0.442992
0.445127
0.446055
0.446072
0.444874
0.442689
0.438933
0.433671
0.426152
0.416574
0.404091
0.388988
0.370583
0.348435
0.347478
0.366353
0.388722
0.407739
0.41929
0.425667
0.429211
0.431178
0.431638
0.430717
0.428048
0.423677
0.417028
0.408138
0.39639
0.381711
0.363319
0.341774
0.316739
0.287694
0.317892
0.336982
0.361259
0.382657
0.396392
0.404709
0.409908
0.413084
0.414141
0.412963
0.409077
0.402301
0.39217
0.378608
0.36089
0.338818
0.312055
0.281319
0.246594
0.207477
0.268774
0.289338
0.317603
0.344062
0.362801
0.375819
0.385201
0.391759
0.395118
0.394818
0.390259
0.381036
0.366806
0.347016
0.321046
0.288851
0.250531
0.206746
0.158092
0.104482
0.194482
0.218048
0.253561
0.289233
0.317274
0.339133
0.356408
0.36949
0.377565
0.379798
0.375478
0.363977
0.3447
0.316617
0.279795
0.234177
0.180069
0.118178
0.0500383
-0.0238575
0.0847184
0.115399
0.163945
0.215438
0.259218
0.29577
0.32595
0.349646
0.365528
0.372392
0.369546
0.355638
0.329783
0.291043
0.240208
0.176718
0.101392
0.0149442
-0.0798468
-0.181749
-0.0673405
-0.0236335
0.0466471
0.123303
0.191445
0.250122
0.299246
0.338216
0.365204
0.378826
0.378237
0.361108
0.326787
0.27458
0.20565
0.119046
0.0160158
-0.1027
-0.23294
-0.372455
-0.269986
-0.202358
-0.0971219
0.0173723
0.120219
0.208837
0.282296
0.33996
0.379866
0.400664
0.40106
0.378355
0.332846
0.263686
0.172188
0.0565214
-0.0814047
-0.240948
-0.416495
-0.604859
-0.519236
-0.413387
-0.257021
-0.091669
0.0540956
0.176703
0.275804
0.351483
0.40225
0.426959
0.424132
0.391822
0.331388
0.241336
0.122634
-0.0274174
-0.206463
-0.414563
-0.645929
-0.896397
-0.802446
-0.638313
-0.41396
-0.188873
0.00159722
0.154719
0.272675
0.357965
0.410701
0.430318
0.416408
0.368101
0.286839
0.170583
0.0195559
-0.170213
-0.396818
-0.661695
-0.958755
-1.28299
-1.07799
-0.835177
-0.531608
-0.248388
-0.0232917
0.145958
0.267216
0.346939
0.387296
0.388714
0.351968
0.277291
0.16576
0.0145073
-0.177469
-0.415818
-0.699681
-1.03134
-1.40496
-1.81553
-1.29404
-0.955048
-0.572171
-0.244583
-0.00364005
0.16258
0.269216
0.327433
0.341669
0.313824
0.245107
0.135856
-0.0138148
-0.20888
-0.452877
-0.753835
-1.11195
-1.53044
-2.00336
-2.52323
-1.41585
-0.981675
-0.543253
-0.201492
0.0313895
0.178122
0.258579
0.286893
0.269724
0.211421
0.112956
-0.0257627
-0.208102
-0.441396
-0.734685
-1.10011
-1.54187
-2.0641
-2.65975
-3.31487
-1.48326
-1.02394
-0.613562
-0.316822
-0.124911
-0.015483
0.0308924
0.0330188
-0.0041603
-0.0745665
-0.18201
-0.324863
-0.511807
-0.749991
-1.05656
-1.44741
-1.93985
-2.54344
-3.24025
-3.98328
-1.99564
-1.51312
-1.14976
-0.898902
-0.725717
-0.614486
-0.554857
-0.535176
-0.557382
-0.61305
-0.707428
-0.833793
-1.00417
-1.21566
-1.49002
-1.84049
-2.30137
-2.89103
-3.58055
-4.19445
-3.32171
-2.48356
-1.95706
-1.55189
-1.22469
-0.987983
-0.841889
-0.762673
-0.749641
-0.78293
-0.871277
-0.993959
-1.1722
-1.38084
-1.66651
-2.00463
-2.45263
-2.96398
-3.45886
-3.58559
-3.79133
-3.00698
-2.51363
-1.99367
-1.55766
-1.25237
-1.05533
-0.940247
-0.895925
-0.909983
-0.981769
-1.10004
-1.26934
-1.47555
-1.73624
-2.03356
-2.40592
-2.79638
-2.85065
-1.87788
-0.000761232
-0.000828681
-0.000839243
-0.000870104
-0.000919711
-0.000974867
-0.00102505
-0.00108213
-0.00114106
-0.00121102
-0.00128675
-0.00137462
-0.00147051
-0.00158064
-0.00169587
-0.00182499
-0.00195889
-0.00211048
-0.002286
-0.0024823
6.06687e-05
-7.52761e-05
-0.000139228
-0.000223295
-0.000351842
-0.00048007
-0.000619112
-0.000759816
-0.000914781
-0.00107795
-0.00125579
-0.00144536
-0.00164832
-0.00185997
-0.00208742
-0.00231911
-0.00256394
-0.00282562
-0.00311897
-0.00340314
0.00094626
0.000862382
0.000682829
0.00052237
0.000305135
9.88085e-05
-0.000136713
-0.00036389
-0.000620309
-0.000875115
-0.00115665
-0.00143931
-0.00174549
-0.0020568
-0.00238107
-0.00270917
-0.0030463
-0.0033913
-0.00376108
-0.00412584
0.000189907
5.93853e-05
-0.000190209
-0.000402033
-0.00069405
-0.000971244
-0.00129673
-0.00160757
-0.0019598
-0.00230245
-0.00267857
-0.00304835
-0.00344412
-0.00383129
-0.00424169
-0.00463971
-0.00505349
-0.00546231
-0.00589295
-0.006311
0.000154264
-1.80667e-05
-0.000319782
-0.000572144
-0.000926829
-0.00126403
-0.00166616
-0.00204645
-0.00248024
-0.00289678
-0.00335681
-0.00380186
-0.00428103
-0.00475036
-0.00523955
-0.00572028
-0.00621276
-0.00669713
-0.00719972
-0.00768772
4.76092e-05
-0.000168053
-0.00051789
-0.000801651
-0.00120825
-0.00159482
-0.0020616
-0.00250218
-0.00300611
-0.00348872
-0.00402154
-0.00453704
-0.00508999
-0.00562428
-0.00618962
-0.00673355
-0.00729656
-0.00784391
-0.00841407
-0.00896362
-0.000215082
-0.000463452
-0.000855458
-0.00116916
-0.00162167
-0.00205177
-0.00257536
-0.00306892
-0.00363559
-0.00417673
-0.0047761
-0.00535364
-0.00597594
-0.00658288
-0.00721627
-0.00783579
-0.00846933
-0.009089
-0.00973134
-0.0103643
-0.000417771
-0.000717013
-0.00115744
-0.00149939
-0.00199443
-0.00246384
-0.0030378
-0.00357896
-0.0042011
-0.00479628
-0.00545483
-0.00609209
-0.00677638
-0.0074389
-0.00813848
-0.00881333
-0.00950942
-0.0101864
-0.0108907
-0.0115812
-0.000676881
-0.00101297
-0.00149386
-0.00186222
-0.00239594
-0.00290243
-0.00352337
-0.00410929
-0.00478379
-0.00542946
-0.00614466
-0.00683647
-0.00758073
-0.00830911
-0.00906832
-0.00981372
-0.0105739
-0.011321
-0.0120943
-0.0128682
-0.000830915
-0.00121767
-0.00174196
-0.00213305
-0.00270113
-0.00324033
-0.00390428
-0.00453226
-0.00525543
-0.00594949
-0.00671686
-0.0074625
-0.00826189
-0.00904039
-0.0098599
-0.010656
-0.0114743
-0.0122762
-0.0131098
-0.0139412
-0.00102189
-0.00144148
-0.00200111
-0.00241295
-0.0030129
-0.00358321
-0.00428793
-0.00495529
-0.00572491
-0.00646469
-0.00728335
-0.00807925
-0.00893402
-0.00977559
-0.0106517
-0.0115173
-0.0123974
-0.0132689
-0.0141695
-0.0150841
-0.00106299
-0.00153149
-0.00213046
-0.00256271
-0.00319385
-0.00379366
-0.00453672
-0.00524101
-0.00605383
-0.00683704
-0.00770333
-0.00854937
-0.00945589
-0.0103454
-0.0112797
-0.0121948
-0.0131315
-0.0140563
-0.0150142
-0.0159844
-0.00110757
-0.00160038
-0.00223116
-0.00268191
-0.00334313
-0.00397095
-0.00475146
-0.0054914
-0.00634711
-0.00717218
-0.00808649
-0.00897967
-0.00993919
-0.010889
-0.0118781
-0.012861
-0.0138586
-0.014853
-0.0158776
-0.0169317
-0.000955828
-0.00149047
-0.00215713
-0.00262855
-0.00331819
-0.00397315
-0.00478909
-0.0055643
-0.00646163
-0.00732842
-0.00828809
-0.00922933
-0.0102383
-0.0112349
-0.0122802
-0.0133135
-0.0143684
-0.0154187
-0.0165025
-0.0176146
-0.000793387
-0.00134001
-0.00203173
-0.00252003
-0.00323623
-0.00391597
-0.00476515
-0.00557322
-0.00651066
-0.00741729
-0.00842311
-0.0094096
-0.0104701
-0.0115248
-0.0126251
-0.0137251
-0.0148423
-0.0159626
-0.0171154
-0.0183117
-0.000410626
-0.000986774
-0.00170489
-0.0022137
-0.00295515
-0.00366146
-0.00454212
-0.00538335
-0.00635883
-0.00730672
-0.00835687
-0.00939228
-0.0105017
-0.0116053
-0.0127611
-0.0139126
-0.0150852
-0.0162615
-0.0174722
-0.0187284
1.38556e-05
-0.000559931
-0.00129121
-0.00181826
-0.0025848
-0.00331918
-0.00423195
-0.00510732
-0.00612083
-0.00710928
-0.00820487
-0.00928681
-0.0104483
-0.0116094
-0.0128196
-0.0140338
-0.0152655
-0.0165058
-0.017781
-0.0191157
0.00065496
7.59707e-05
-0.000668786
-0.00121893
-0.00201116
-0.00277622
-0.00372044
-0.00463261
-0.00568363
-0.00671429
-0.00785166
-0.0089831
-0.0101922
-0.0114038
-0.0126672
-0.0139343
-0.0152198
-0.0165174
-0.0178496
-0.0192466
0.00135957
0.000802685
5.40201e-05
-0.000515889
-0.00133169
-0.00212544
-0.00309828
-0.0040458
-0.00513287
-0.00620475
-0.0073849
-0.00856245
-0.00982172
-0.0110898
-0.0124086
-0.0137385
-0.0150859
-0.016448
-0.0178471
-0.0193214
0.00228257
0.00173283
0.000978605
0.000383804
-0.000454675
-0.00127949
-0.00227836
-0.00326109
-0.00438188
-0.00549777
-0.00671929
-0.00794792
-0.00925318
-0.0105737
-0.0119455
-0.0133321
-0.0147346
-0.0161581
-0.0176176
-0.0191601
0.00330899
0.00277721
0.00202522
0.001407
0.000549086
-0.000306783
-0.00133058
-0.00234924
-0.00350323
-0.00466212
-0.00592596
-0.00720144
-0.00855515
-0.00992913
-0.0113536
-0.0127987
-0.0142627
-0.0157498
-0.0172789
-0.0188986
0.00452982
0.00401027
0.00326057
0.00261723
0.00174071
0.000852237
-0.000196173
-0.00125227
-0.0024377
-0.00363896
-0.00493987
-0.00626439
-0.00766138
-0.00908736
-0.010563
-0.0120656
-0.0135863
-0.0151386
-0.016732
-0.0184251
0.00588296
0.00538402
0.00464013
0.00397152
0.0030763
0.0021554
0.00108442
-6.51052e-06
-0.00122091
-0.00246097
-0.00379883
-0.00516624
-0.00660945
-0.00808703
-0.0096171
-0.0111783
-0.0127641
-0.0143804
-0.0160475
-0.017817
0.00742022
0.00693922
0.00620305
0.0055116
0.00460293
0.00365299
0.00256387
0.00143967
0.000197788
-0.00108348
-0.00245684
-0.00387235
-0.00535776
-0.00688748
-0.00846979
-0.0100917
-0.011739
-0.0134267
-0.0151653
-0.0170146
0.00911503
0.00864915
0.00792657
0.00721732
0.00630259
0.00532805
0.00422404
0.00306825
0.00179966
0.000479108
-0.000932039
-0.00239138
-0.00392412
-0.00550584
-0.00714505
-0.00882739
-0.0105447
-0.0122986
-0.0141161
-0.0160438
0.010981
0.010537
0.00983311
0.00911366
0.00819827
0.00720288
0.00608685
0.00490084
0.0036078
0.00224737
0.000801575
-0.000707008
-0.00228406
-0.0039217
-0.0056178
-0.00736511
-0.00914703
-0.0109747
-0.0128669
-0.0148793
0.0130465
0.0126175
0.0119323
0.0112022
0.0102874
0.00927212
0.00814636
0.00693287
0.00561791
0.00422105
0.00273956
0.00118605
-0.000440818
-0.00213548
-0.00389214
-0.00570347
-0.00755704
-0.00945287
-0.0114263
-0.0135225
0.0153112
0.0149029
0.0142359
0.0134991
0.0125865
0.0115553
0.0104235
0.00918632
0.00785323
0.00642067
0.00490698
0.00330342
0.0016306
-0.000122838
-0.00193876
-0.00381747
-0.00573734
-0.00770935
-0.00975981
-0.0119458
0.0178103
0.0174135
0.016763
0.0160186
0.0151101
0.0140639
0.0129273
0.0116677
0.0103177
0.00885175
0.00730497
0.0056562
0.00393418
0.00212063
0.000243273
-0.00170557
-0.0036993
-0.00574621
-0.00788106
-0.0101605
0.0205444
0.0201692
0.0195396
0.0187961
0.0178953
0.0168382
0.0156976
0.0144158
0.0130482
0.0115472
0.00996978
0.00827224
0.0065064
0.00463483
0.00269834
0.000680232
-0.00138171
-0.00350959
-0.00572565
-0.00810164
0.023535
0.0231827
0.0225791
0.0218397
0.0209493
0.0198821
0.0187369
0.0174312
0.0160441
0.0145079
0.0128974
0.0111551
0.00934217
0.00740974
0.00541325
0.00332122
0.00118355
-0.00102835
-0.00333532
-0.00581781
0.0268147
0.026495
0.0259231
0.0251989
0.0243244
0.0232531
0.0221059
0.0207795
0.0193741
0.0178031
0.0161617
0.0143704
0.0125134
0.0105223
0.00846506
0.00630077
0.00409023
0.00179029
-0.000605051
-0.00319383
0.0303882
0.0301055
0.0295714
0.0288672
0.0280134
0.0269419
0.0257955
0.0244517
0.0230302
0.0214269
0.0197528
0.0179159
0.0160092
0.0139528
0.011831
0.00958522
0.00729148
0.00489717
0.00240171
-0.000306889
0.0343246
0.0340839
0.0335907
0.0329155
0.0320878
0.0310237
0.0298832
0.0285273
0.0270922
0.025458
0.0237535
0.0218679
0.019915
0.0177978
0.0156108
0.0132869
0.0109123
0.00842154
0.00582839
0.00300332
0.0386137
0.0384229
0.0379756
0.0373316
0.0365327
0.0354795
0.0343484
0.0329839
0.0315372
0.0298748
0.0281385
0.0262088
0.0242061
0.0220231
0.0197685
0.0173581
0.0148933
0.0122993
0.00959518
0.00663677
0.0433408
0.0432049
0.0428069
0.0422005
0.041433
0.0403954
0.0392765
0.0379078
0.0364532
0.0347658
0.0330021
0.0310259
0.0289764
0.0267311
0.0244073
0.0219153
0.0193638
0.0166659
0.0138532
0.0107656
0.0484784
0.04841
0.0480707
0.047507
0.0467747
0.0457546
0.0446499
0.0432798
0.0418197
0.0401111
0.0383191
0.0363008
0.0341991
0.031885
0.0294889
0.026906
0.0242575
0.0214481
0.0185134
0.0152801
0.0541191
0.0541243
0.0538512
0.053342
0.0526529
0.0516578
0.0505714
0.0492033
0.0477387
0.0460088
0.0441907
0.0421272
0.0399776
0.0375997
0.0351298
0.0324591
0.0297147
0.0267919
0.0237379
0.0203642
0.0602362
0.0603296
0.0601343
0.0596889
0.0590523
0.058089
0.0570256
0.0556629
0.054196
0.0524473
0.0506014
0.0484966
0.0462937
0.0438443
0.0412958
0.0385259
0.0356742
0.0326302
0.0294438
0.0259127
0.0669371
0.0671258
0.0670156
0.0666446
0.0660689
0.065147
0.0641138
0.062763
0.0612982
0.0595332
0.0576626
0.0555119