/*--------------------------------*- C++ -*----------------------------------*\
  =========                 |
  \\      /  F ield         | OpenFOAM: The Open Source CFD Toolbox
   \\    /   O peration     | Website:  https://openfoam.org
    \\  /    A nd           | Version:  6
     \\/     M anipulation  |
\*---------------------------------------------------------------------------*/
FoamFile
{
    version     2.0;
    format      ascii;
    class       volScalarField;
    location    "11";
    object      p;
}
// * * * * * * * * * * * * * * * * * * * * * * * * * * * * * * * * * * * * * //

dimensions      [0 2 -2 0 0 0 0];

internalField   nonuniform List<scalar> 
10000
(
-0.056393
-0.0570262
-0.0506197
-0.0344894
-0.0222103
-0.0143475
-0.00928186
-0.0053878
-0.00198642
0.00021128
0.00119902
0.000576114
-0.00154923
-0.0052747
-0.0115247
-0.0212208
-0.035289
-0.0526002
-0.0562738
-0.0489224
-0.112558
-0.103847
-0.0795857
-0.0407352
-0.00739792
0.0153417
0.0288424
0.0377085
0.0442813
0.049016
0.052546
0.0545169
0.057028
0.0585554
0.0571288
0.0471574
0.0243421
-0.00728897
-0.0314118
-0.0462465
0.011046
0.0126968
0.021431
0.0377313
0.0569737
0.0763765
0.0931263
0.106267
0.115863
0.122538
0.126985
0.130053
0.132332
0.135077
0.138553
0.14147
0.141634
0.137377
0.126221
0.111476
0.161124
0.17182
0.177641
0.180898
0.18314
0.184905
0.187119
0.190264
0.193882
0.197822
0.201692
0.20605
0.211246
0.217357
0.223668
0.229225
0.231775
0.229226
0.222057
0.213275
0.303783
0.317981
0.321228
0.313499
0.301497
0.289083
0.279772
0.274283
0.272314
0.272617
0.274498
0.27785
0.282114
0.287872
0.294033
0.300194
0.306126
0.309761
0.307334
0.300371
0.363898
0.369252
0.372584
0.369789
0.362804
0.35417
0.346501
0.340992
0.337909
0.336653
0.336373
0.336574
0.33727
0.338171
0.339206
0.34058
0.342077
0.343304
0.343179
0.342714
0.38316
0.37638
0.376918
0.380362
0.384336
0.38838
0.391183
0.392777
0.393525
0.393672
0.39351
0.392648
0.390418
0.386118
0.379413
0.371148
0.363418
0.358231
0.35882
0.366689
0.427971
0.422177
0.424486
0.431583
0.439431
0.447001
0.452397
0.455479
0.456514
0.456444
0.45513
0.452444
0.448429
0.442204
0.434046
0.424873
0.416759
0.411737
0.411246
0.416798
0.507419
0.509051
0.513383
0.519421
0.524868
0.527901
0.52872
0.528192
0.526992
0.525311
0.523253
0.520518
0.516432
0.51118
0.505148
0.498363
0.491933
0.48733
0.48664
0.490244
0.592853
0.596995
0.598103
0.597794
0.598284
0.59834
0.598028
0.597605
0.597048
0.596677
0.596546
0.596468
0.596888
0.597787
0.599434
0.60165
0.603102
0.603176
0.601407
0.598082
0.647677
0.645282
0.643283
0.643947
0.647084
0.65176
0.656403
0.660332
0.66324
0.665504
0.667605
0.670885
0.675517
0.682988
0.692703
0.704012
0.715101
0.722585
0.720534
0.709205
0.71033
0.708416
0.706271
0.706397
0.709309
0.71431
0.719699
0.724728
0.728696
0.731878
0.734275
0.736763
0.739905
0.743839
0.748612
0.754194
0.759871
0.764604
0.766325
0.765323
0.78039
0.779795
0.778394
0.778303
0.780329
0.784217
0.78881
0.793092
0.796675
0.799269
0.801259
0.802375
0.802334
0.801023
0.798544
0.795086
0.792048
0.790736
0.79338
0.802124
0.866959
0.871774
0.874674
0.875329
0.874133
0.87233
0.870941
0.870468
0.870708
0.871321
0.871851
0.871609
0.870993
0.868962
0.865928
0.862236
0.858958
0.857311
0.857782
0.862485
0.961201
0.970335
0.973666
0.969094
0.961188
0.953471
0.947993
0.944744
0.943216
0.94239
0.941959
0.941492
0.94067
0.939507
0.937744
0.935077
0.932348
0.930527
0.930803
0.934184
1.03111
1.02644
1.02277
1.02048
1.01898
1.01829
1.01767
1.01683
1.01594
1.01536
1.01484
1.01419
1.01401
1.01408
1.01488
1.01642
1.01807
1.01924
1.01969
1.02024
1.12224
1.11948
1.11535
1.10946
1.10448
1.1003
1.09663
1.09367
1.09142
1.08972
1.08843
1.08765
1.08676
1.08669
1.08774
1.09064
1.09554
1.10007
1.10133
1.09851
1.18741
1.18474
1.18422
1.18237
1.17909
1.17503
1.17118
1.16835
1.16639
1.16521
1.16461
1.16421
1.16396
1.16267
1.15993
1.15593
1.15125
1.14758
1.1494
1.15569
1.24642
1.24378
1.2457
1.24777
1.24787
1.24613
1.2436
1.24124
1.23963
1.23894
1.23936
1.24109
1.24375
1.24748
1.25159
1.25476
1.25636
1.2565
1.25557
1.25327
1.30548
1.30265
1.30351
1.3059
1.30779
1.30842
1.30793
1.30713
1.30636
1.30628
1.3067
1.30824
1.31172
1.31768
1.32659
1.33746
1.34755
1.35365
1.35161
1.34115
1.34608
1.34378
1.34372
1.34683
1.35161
1.35627
1.35991
1.36215
1.36348
1.36418
1.36483
1.36552
1.36575
1.3662
1.3667
1.36734
1.36848
1.3693
1.37007
1.37074
1.37523
1.37207
1.37307
1.37943
1.38875
1.39862
1.40728
1.4135
1.41752
1.41987
1.42107
1.4206
1.41891
1.41429
1.40664
1.39641
1.38568
1.37795
1.37849
1.38833
1.43478
1.43297
1.43438
1.44021
1.44853
1.45735
1.46553
1.47199
1.47654
1.47903
1.48002
1.47949
1.4774
1.47357
1.46823
1.46136
1.4542
1.44872
1.447
1.44914
1.53617
1.53973
1.53846
1.53598
1.53536
1.53673
1.53987
1.54361
1.54666
1.54853
1.54885
1.54739
1.5446
1.54056
1.5369
1.53484
1.5343
1.53537
1.53553
1.53175
1.63736
1.63973
1.63732
1.63471
1.6321
1.62973
1.62848
1.62797
1.62783
1.62754
1.62722
1.62656
1.62513
1.62322
1.62081
1.61786
1.61506
1.61406
1.61555
1.61623
1.73688
1.74372
1.74633
1.7426
1.73463
1.72582
1.71854
1.71354
1.7106
1.70905
1.70831
1.70817
1.70935
1.71171
1.71511
1.71868
1.72077
1.72076
1.7199
1.71786
1.81957
1.82442
1.82678
1.82066
1.8106
1.80063
1.79269
1.78747
1.7849
1.784
1.78436
1.78615
1.78904
1.79392
1.80037
1.80794
1.81487
1.81821
1.81754
1.81277
1.8798
1.87926
1.87835
1.8747
1.86955
1.8637
1.85859
1.85494
1.85285
1.85236
1.85304
1.85494
1.85857
1.86362
1.86998
1.87708
1.88362
1.88825
1.88921
1.88512
1.91609
1.90678
1.90412
1.90684
1.91064
1.9137
1.91508
1.91486
1.91415
1.91352
1.9134
1.91374
1.91427
1.91529
1.91657
1.91813
1.92009
1.92227
1.92381
1.92228
1.96837
1.96241
1.96113
1.96344
1.96724
1.97132
1.97417
1.97541
1.97536
1.97452
1.97325
1.97109
1.96812
1.96304
1.95605
1.94797
1.94048
1.93556
1.93645
1.94214
2.0271
2.02417
2.02309
2.02571
2.02953
2.0332
2.03581
2.03718
2.03732
2.03612
2.03399
2.03078
2.02613
2.01963
2.01145
2.00217
1.99415
1.98922
1.98898
1.99339
2.09796
2.10051
2.10207
2.10447
2.10618
2.1066
2.10607
2.10514
2.104
2.10263
2.10048
2.09745
2.09349
2.08827
2.08234
2.07595
2.06977
2.06548
2.06521
2.06694
2.16018
2.16628
2.16865
2.16767
2.16615
2.1657
2.16668
2.16835
2.17006
2.17153
2.17275
2.17394
2.17475
2.17615
2.17813
2.18039
2.18184
2.18175
2.17954
2.17395
2.20751
2.20021
2.19769
2.20127
2.20832
2.21756
2.22664
2.23411
2.23931
2.24346
2.24683
2.2508
2.25605
2.26353
2.27327
2.28459
2.29527
2.3021
2.29897
2.28663
2.30991
2.31125
2.31198
2.31243
2.3134
2.3141
2.31464
2.31529
2.31617
2.3171
2.31833
2.32038
2.32323
2.32765
2.33306
2.33903
2.34477
2.34906
2.34998
2.34889
2.41643
2.42756
2.43281
2.4289
2.42058
2.41003
2.40089
2.39453
2.391
2.38913
2.38823
2.38747
2.38715
2.38654
2.38546
2.38399
2.38251
2.38186
2.38439
2.39187
2.46981
2.47046
2.47127
2.46907
2.46566
2.46188
2.45861
2.45615
2.45473
2.45398
2.45383
2.45387
2.45374
2.45316
2.45199
2.45056
2.44969
2.44956
2.44981
2.45187
2.50754
2.49803
2.49434
2.49634
2.50132
2.50746
2.51212
2.51511
2.51657
2.5177
2.51818
2.5184
2.51808
2.51697
2.51524
2.51323
2.51143
2.5103
2.50977
2.51066
2.57447
2.56896
2.56578
2.56613
2.56918
2.57397
2.57838
2.58198
2.58417
2.58547
2.58598
2.58614
2.58533
2.58397
2.58172
2.57899
2.57628
2.57422
2.57347
2.57403
2.65846
2.65534
2.65098
2.64887
2.64851
2.64956
2.65122
2.65333
2.65488
2.65609
2.65645
2.65656
2.65619
2.65552
2.65438
2.653
2.65122
2.64962
2.64893
2.64955
2.75979
2.76192
2.75998
2.75585
2.74982
2.74294
2.73681
2.73239
2.72969
2.72813
2.7271
2.72674
2.72666
2.72762
2.72946
2.73231
2.7351
2.73685
2.73623
2.73458
2.84224
2.84849
2.84883
2.84167
2.83088
2.81967
2.81045
2.80374
2.79903
2.79596
2.79327
2.79119
2.78936
2.78854
2.78944
2.7929
2.79794
2.80257
2.80278
2.799
2.87495
2.86782
2.86558
2.86651
2.86763
2.86818
2.86753
2.86562
2.8631
2.86047
2.85777
2.85459
2.85006
2.84386
2.83569
2.82694
2.81896
2.81361
2.81532
2.82488
2.92017
2.91539
2.91474
2.91743
2.9218
2.9261
2.92885
2.93008
2.9299
2.92908
2.92781
2.92631
2.92435
2.92136
2.91611
2.9084
2.89914
2.89116
2.88963
2.89614
2.97409
2.97087
2.97016
2.97395
2.97963
2.98579
2.991
2.99517
2.99792
2.99988
3.00129
3.00313
3.00544
3.00975
3.0155
3.0216
3.0263
3.02844
3.02485
3.01627
3.0551
3.05714
3.05773
3.06038
3.06332
3.06574
3.06738
3.06896
3.07025
3.0721
3.07395
3.07699
3.08133
3.08815
3.09741
3.10889
3.12025
3.12819
3.12638
3.11532
3.14775
3.15785
3.16017
3.15718
3.15238
3.1474
3.14343
3.14089
3.13951
3.13898
3.13904
3.14024
3.14216
3.14541
3.14945
3.15452
3.15931
3.16251
3.16325
3.16214
3.20742
3.21221
3.2153
3.21535
3.21286
3.20943
3.20637
3.204
3.20226
3.20111
3.2002
3.19929
3.19761
3.19462
3.19008
3.18481
3.17987
3.17672
3.17913
3.18801
3.25008
3.25058
3.25199
3.25446
3.2567
3.25852
3.26001
3.26118
3.26173
3.26187
3.26142
3.26011
3.25716
3.25258
3.24632
3.23918
3.23304
3.22985
3.23098
3.23579
3.29865
3.2921
3.28822
3.29143
3.29903
3.30834
3.31653
3.32281
3.32642
3.32839
3.32848
3.32737
3.32453
3.32019
3.31411
3.30739
3.30116
3.29738
3.29783
3.30018
3.38461
3.38674
3.38835
3.39023
3.39275
3.39573
3.39818
3.40038
3.40185
3.40302
3.40359
3.4043
3.40455
3.40508
3.40513
3.40502
3.40416
3.40299
3.40224
3.4002
3.47307
3.48453
3.49215
3.49285
3.4892
3.48377
3.47903
3.47635
3.47523
3.47591
3.47721
3.48001
3.48407
3.49069
3.49907
3.50843
3.51639
3.52104
3.5192
3.50998
3.52918
3.53246
3.53328
3.53221
3.5314
3.53173
3.53306
3.53503
3.53696
3.53917
3.54121
3.54402
3.54718
3.55213
3.55788
3.56448
3.5706
3.57463
3.57561
3.57378
3.59418
3.58765
3.58288
3.58163
3.58447
3.59025
3.59614
3.60095
3.60394
3.60586
3.6064
3.60608
3.6045
3.60246
3.59994
3.59845
3.59879
3.60078
3.6047
3.61111
3.70667
3.70723
3.70705
3.70317
3.69814
3.69305
3.68858
3.68541
3.6833
3.68176
3.68034
3.67851
3.6753
3.6702
3.66265
3.65344
3.64476
3.63973
3.64318
3.654
3.80072
3.80607
3.80764
3.80091
3.79049
3.77942
3.77018
3.76375
3.75989
3.75785
3.75677
3.75633
3.75624
3.75621
3.75555
3.7544
3.75231
3.75056
3.7501
3.74908
3.84134
3.83216
3.82877
3.82848
3.82844
3.82876
3.82887
3.82891
3.82894
3.82988
3.83144
3.83457
3.83868
3.84514
3.85336
3.86273
3.87023
3.87327
3.86869
3.85578
3.89847
3.89067
3.88956
3.89246
3.89497
3.89645
3.89689
3.89722
3.8975
3.89879
3.90069
3.90397
3.90828
3.91429
3.92124
3.92886
3.93496
3.93748
3.93429
3.92622
3.97411
3.9757
3.97591
3.97381
3.97139
3.96917
3.96746
3.9662
3.9653
3.96505
3.96523
3.96601
3.9666
3.96754
3.96807
3.96855
3.96957
3.97081
3.97027
3.97006
4.03705
4.03417
4.03171
4.03072
4.03082
4.03139
4.03173
4.03167
4.03143
4.03111
4.03082
4.03024
4.02921
4.02668
4.02141
4.01369
4.00514
3.99846
3.99702
4.00385
4.11126
4.11424
4.11701
4.11805
4.11625
4.1117
4.10625
4.10146
4.09797
4.09537
4.0933
4.09147
4.08924
4.08662
4.0833
4.0792
4.07527
4.07182
4.06881
4.06812
4.16159
4.16914
4.17443
4.1747
4.17198
4.16789
4.16397
4.16045
4.15735
4.1546
4.15171
4.14825
4.14424
4.13999
4.13625
4.13441
4.13429
4.13449
4.13256
4.12848
4.1784
4.172
4.17364
4.18167
4.19182
4.20191
4.20981
4.21438
4.21606
4.21586
4.21466
4.21276
4.20946
4.20442
4.19702
4.18746
4.17762
4.1699
4.16957
4.17609
4.24412
4.24389
4.24735
4.25373
4.26164
4.26928
4.27528
4.27955
4.28229
4.2838
4.28488
4.28543
4.28644
4.28738
4.2878
4.28746
4.28544
4.28292
4.28053
4.27718
4.34011
4.34698
4.35039
4.35028
4.34943
4.34854
4.34865
4.35001
4.35201
4.35426
4.3567
4.36001
4.364
4.37032
4.37882
4.38839
4.39705
4.40195
4.39838
4.3848
4.43135
4.43521
4.43675
4.43682
4.43498
4.43177
4.42862
4.42635
4.42518
4.42481
4.4253
4.42622
4.42853
4.43183
4.43583
4.44015
4.44396
4.44664
4.44697
4.44362
4.50577
4.51197
4.5149
4.51367
4.50915
4.50274
4.49652
4.49156
4.48855
4.48674
4.48608
4.48599
4.48588
4.4855
4.48441
4.4819
4.4792
4.47725
4.47938
4.48614
4.53386
4.53688
4.53866
4.54
4.54079
4.54116
4.54122
4.54117
4.54154
4.54214
4.54327
4.54396
4.54522
4.54578
4.54585
4.54559
4.54486
4.54439
4.5453
4.54793
4.54345
4.53563
4.53361
4.54102
4.5531
4.56623
4.57739
4.58542
4.59065
4.59418
4.59667
4.59884
4.60005
4.6009
4.60125
4.60062
4.59988
4.59948
4.60067
4.60196
4.60796
4.60174
4.60086
4.60854
4.61988
4.63196
4.6419
4.64901
4.65347
4.65614
4.65756
4.65732
4.65621
4.65342
4.64992
4.6467
4.64421
4.64332
4.64462
4.64544
4.73225
4.74116
4.74337
4.74144
4.73836
4.73433
4.73083
4.72822
4.72663
4.72514
4.72354
4.7213
4.71709
4.71087
4.70298
4.69407
4.68647
4.682
4.68235
4.68324
4.84205
4.85433
4.85623
4.84868
4.83724
4.82455
4.81378
4.80578
4.80066
4.79679
4.79405
4.7908
4.7881
4.78385
4.77743
4.76866
4.75791
4.74849
4.74543
4.74534
4.90299
4.90394
4.90178
4.89653
4.89006
4.8832
4.87695
4.87164
4.86758
4.86475
4.86289
4.86231
4.8623
4.86404
4.86691
4.86973
4.87238
4.87383
4.87045
4.85932
4.9429
4.93314
4.92687
4.92676
4.92956
4.93318
4.93464
4.93417
4.93256
4.93114
4.93016
4.92962
4.93068
4.93354
4.93898
4.94737
4.95731
4.96623
4.96716
4.95804
5.0029
4.99791
4.99289
4.99145
4.99365
4.99736
5
5.00084
5.00016
4.99879
4.99739
4.99694
4.99648
4.99697
4.99841
5.00133
5.00674
5.0137
5.0193
5.02143
5.07621
5.07325
5.06638
5.06253
5.06277
5.06579
5.0693
5.07185
5.07329
5.07374
5.07436
5.07463
5.0755
5.07528
5.07414
5.07272
5.07231
5.07525
5.08271
5.09205
5.18283
5.18484
5.17757
5.16883
5.16234
5.15839
5.15659
5.15585
5.15595
5.15677
5.15878
5.16273
5.16817
5.17558
5.18448
5.19363
5.20251
5.21059
5.21515
5.21412
5.31187
5.32192
5.31559
5.29853
5.28064
5.26584
5.25552
5.24926
5.24608
5.24537
5.24701
5.25138
5.25969
5.272
5.28857
5.3083
5.3277
5.34267
5.34565
5.33511
5.42257
5.43051
5.42558
5.40931
5.38947
5.37031
5.35471
5.3431
5.33554
5.33174
5.33137
5.3349
5.34144
5.35172
5.36486
5.37993
5.39499
5.40724
5.41202
5.40817
5.51242
5.52453
5.52498
5.51074
5.48856
5.46483
5.4442
5.42839
5.41805
5.41267
5.41191
5.4149
5.42129
5.42937
5.43839
5.44743
5.45528
5.46124
5.46413
5.4639
5.55495
5.56834
5.57311
5.56491
5.54778
5.52791
5.51015
5.49644
5.4873
5.48298
5.48301
5.48781
5.49614
5.50773
5.52126
5.53465
5.54542
5.55053
5.54538
5.53135
5.56652
5.57948
5.5914
5.59635
5.59265
5.58312
5.57128
5.56023
5.55145
5.5468
5.54583
5.54927
5.5564
5.56685
5.57983
5.59279
5.6025
5.60431
5.59165
5.56697
5.57621
5.60505
5.63114
5.64477
5.64595
5.63747
5.62441
5.61147
5.60157
5.59595
5.59462
5.59753
5.60309
5.60947
5.61412
5.61406
5.60703
5.59232
5.57147
5.55004
5.5392
5.5785
5.61675
5.6412
5.65192
5.65124
5.64477
5.63682
5.63034
5.62673
5.62619
5.62866
5.63311
5.63747
5.64001
5.63675
5.62529
5.60452
5.57279
5.53866
5.4494
5.48097
5.52479
5.56865
5.60415
5.6277
5.64029
5.64497
5.64568
5.64528
5.64506
5.64521
5.64532
5.64354
5.63877
5.62885
5.61094
5.58292
5.54179
5.49956
5.40374
5.44343
5.49468
5.54521
5.59014
5.62296
5.64298
5.65341
5.65818
5.66003
5.66019
5.65869
5.65399
5.64316
5.62449
5.59494
5.55566
5.50944
5.46133
5.42716
5.40536
5.44876
5.50012
5.54722
5.59155
5.62717
5.6516
5.66633
5.67435
5.67723
5.67651
5.67122
5.66166
5.64443
5.61903
5.58414
5.54073
5.49279
5.44036
5.40199
5.45198
5.48277
5.52646
5.56797
5.61176
5.6509
5.6797
5.69703
5.70544
5.70692
5.70291
5.69335
5.67695
5.65222
5.62082
5.58255
5.54072
5.49738
5.44758
5.41332
5.56404
5.58051
5.61339
5.63939
5.6696
5.70119
5.72708
5.74349
5.75176
5.75248
5.74769
5.73558
5.71704
5.68841
5.65133
5.60815
5.5632
5.52321
5.48558
5.47794
5.74493
5.7333
5.7462
5.74748
5.75653
5.77484
5.79558
5.81151
5.82094
5.82309
5.81929
5.80994
5.79446
5.77325
5.74894
5.72539
5.70928
5.70185
5.68523
5.69602
6.03176
5.98202
5.96821
5.93553
5.9145
5.91149
5.91921
5.92842
5.93516
5.9376
5.93664
5.93253
5.92769
5.92423
5.92747
5.94499
5.97823
6.01686
6.02444
6.0596
6.45082
6.37169
6.34087
6.26137
6.18679
6.13808
6.11359
6.10223
6.09757
6.09661
6.09899
6.10735
6.12141
6.14838
6.19159
6.25599
6.33763
6.41364
6.43503
6.50553
6.89424
6.7812
6.75553
6.64704
6.52427
6.42614
6.36202
6.32263
6.30042
6.29151
6.29431
6.31062
6.34237
6.39589
6.47419
6.58122
6.7033
6.80506
6.82422
6.93497
7.18184
7.01643
7.0306
6.93957
6.80889
6.68879
6.6005
6.54169
6.50586
6.49026
6.49125
6.51266
6.55155
6.61588
6.7065
6.82298
6.94826
7.03784
7.02768
7.19638
7.17494
6.92074
7.00147
6.98134
6.90135
6.81181
6.73886
6.68843
6.65721
6.64313
6.64337
6.65937
6.69144
6.74204
6.80952
6.89067
6.96267
6.98206
6.9076
7.16694
6.88699
6.47654
6.62996
6.71714
6.73381
6.71829
6.69779
6.68179
6.67049
6.66619
6.66627
6.67387
6.68486
6.70011
6.71593
6.72152
6.69657
6.60542
6.45571
6.87427
6.62349
5.97373
6.18238
6.35621
6.44729
6.48707
6.5052
6.51622
6.52198
6.52596
6.52775
6.527
6.52365
6.51363
6.49336
6.44751
6.35175
6.17721
5.97403
6.63421
6.91313
5.94678
6.16501
6.31134
6.36578
6.37999
6.38518
6.38969
6.3925
6.3946
6.39592
6.39643
6.39437
6.39311
6.38546
6.37207
6.31364
6.17523
5.96553
6.93893
8.20289
6.49785
6.59316
6.65674
6.6388
6.60575
6.58593
6.57633
6.5726
6.56965
6.57095
6.57093
6.57322
6.58498
6.6023
6.64117
6.66551
6.6096
6.51326
8.19961
10.5032
6.06877
6.11903
6.46442
6.54447
6.5461
6.54576
6.54627
6.54633
6.54656
6.54683
6.54763
6.54718
6.54788
6.54867
6.54814
6.47098
6.12783
6.07628
10.5047
-0.284994
-0.238647
-0.240158
-0.168908
-0.127748
-0.112442
-0.104389
-0.0964672
-0.0892097
-0.0852527
-0.0847024
-0.0886549
-0.095942
-0.104725
-0.114311
-0.130662
-0.171387
-0.241742
-0.247431
-0.291293
-0.388542
-0.346758
-0.330485
-0.233257
-0.14374
-0.0863969
-0.0551897
-0.0370742
-0.0265059
-0.0226609
-0.024226
-0.0334117
-0.0465234
-0.0656683
-0.0917275
-0.136707
-0.2107
-0.293562
-0.31817
-0.379597
-0.105584
-0.149759
-0.146327
-0.101312
-0.0441041
0.00974819
0.049773
0.0754932
0.0900657
0.0964104
0.0956745
0.0878062
0.0720604
0.0473993
0.013303
-0.0274835
-0.0624217
-0.0822729
-0.0910529
-0.08624
-0.00550348
-0.0246124
-0.0204807
0.0131684
0.0625459
0.113582
0.155691
0.186868
0.207522
0.220311
0.226783
0.228528
0.226304
0.218315
0.200513
0.167064
0.114319
0.0554438
0.0377619
0.0630439
0.0286203
0.0554024
0.0807668
0.124712
0.18506
0.24928
0.301464
0.338783
0.364113
0.383409
0.398478
0.414599
0.432959
0.458311
0.49086
0.527849
0.55956
0.577505
0.568632
0.5491
0.234562
0.298755
0.346191
0.381887
0.412709
0.442807
0.472314
0.500745
0.524387
0.546516
0.566236
0.589752
0.618006
0.65732
0.710812
0.782759
0.86492
0.936204
0.957394
0.927616
0.584785
0.655235
0.684887
0.666465
0.644683
0.63514
0.642321
0.661061
0.682316
0.703195
0.723384
0.745888
0.768315
0.790367
0.809665
0.830159
0.853104
0.87747
0.915751
0.94724
0.793588
0.82642
0.845049
0.852064
0.847756
0.841408
0.839217
0.842798
0.850087
0.859553
0.87
0.880051
0.888565
0.889836
0.878808
0.852159
0.819507
0.800203
0.825441
0.878437
1.02478
1.04389
1.06825
1.07605
1.06619
1.0491
1.03321
1.02181
1.01595
1.0136
1.01249
1.0094
1.00226
0.990193
0.971276
0.943527
0.915242
0.899035
0.904111
0.927684
1.16164
1.12446
1.11529
1.12287
1.13741
1.15185
1.16028
1.16462
1.16661
1.16746
1.16616
1.16095
1.15033
1.1328
1.10781
1.07907
1.04857
1.0215
1.01199
1.01736
1.37152
1.29505
1.26555
1.28058
1.30454
1.32224
1.32914
1.33147
1.33121
1.33052
1.32837
1.32492
1.31795
1.3105
1.30449
1.30225
1.30167
1.29672
1.27935
1.24884
1.72467
1.70136
1.67151
1.62999
1.58563
1.54638
1.51856
1.50216
1.49184
1.48653
1.48254
1.4805
1.48008
1.48408
1.49557
1.51814
1.5513
1.58678
1.58216
1.52917
1.77034
1.78536
1.75195
1.7027
1.65901
1.63076
1.61686
1.61157
1.61001
1.61072
1.6125
1.61724
1.62512
1.63717
1.65058
1.66145
1.66655
1.67015
1.67275
1.6603
1.63945
1.6145
1.59883
1.63366
1.67212
1.69875
1.71268
1.72003
1.72419
1.72685
1.72709
1.72524
1.72224
1.71984
1.72134
1.7286
1.7386
1.74709
1.75119
1.75234
1.75799
1.75901
1.7605
1.77801
1.80522
1.83038
1.84889
1.86009
1.86586
1.86565
1.86077
1.84934
1.82916
1.79836
1.75913
1.71993
1.69074
1.67399
1.68056
1.7049
1.92506
1.93773
1.94492
1.96415
1.9938
2.02489
2.04676
2.05561
2.05666
2.05163
2.04347
2.0293
2.01053
1.9811
1.93825
1.87688
1.79999
1.72668
1.70278
1.72191
2.29065
2.32634
2.3473
2.34532
2.3321
2.31417
2.29897
2.2861
2.27581
2.26582
2.25734
2.24882
2.24102
2.23463
2.23157
2.22568
2.21161
2.18632
2.14288
2.08978
2.70045
2.74546
2.74862
2.69513
2.62826
2.56742
2.52385
2.49574
2.47826
2.4669
2.46053
2.45991
2.46819
2.48703
2.51626
2.55474
2.59619
2.62667
2.60423
2.52883
2.87074
2.86378
2.84373
2.80776
2.76326
2.72177
2.68823
2.66197
2.64366
2.63181
2.62635
2.62838
2.64017
2.66498
2.699
2.73752
2.77317
2.79515
2.79791
2.78054
2.85397
2.82877
2.81116
2.80398
2.79759
2.79059
2.78364
2.77621
2.77029
2.76694
2.767
2.76973
2.77545
2.78403
2.79747
2.81728
2.84303
2.866
2.8873
2.90784
2.69502
2.65445
2.65224
2.70206
2.76212
2.81096
2.8432
2.86321
2.87615
2.88547
2.89508
2.90503
2.91399
2.91812
2.91615
2.90514
2.89054
2.87872
2.89722
2.94416
2.68616
2.68972
2.71363
2.76018
2.81937
2.87917
2.92852
2.96503
2.99037
3.00874
3.02282
3.03448
3.04486
3.05216
3.05742
3.06004
3.06362
3.07214
3.08377
3.10415
2.77825
2.80147
2.8361
2.88969
2.95044
3.01103
3.06467
3.10522
3.13297
3.15187
3.16488
3.17372
3.17855
3.18129
3.18324
3.18402
3.18383
3.18676
3.19926
3.22362
3.10535
3.16295
3.20247
3.22522
3.24005
3.25326
3.27005
3.28923
3.30607
3.31895
3.32762
3.33341
3.33762
3.33863
3.33637
3.33177
3.32592
3.32254
3.33042
3.34826
3.55613
3.62832
3.6417
3.59781
3.54771
3.50981
3.48929
3.48398
3.48706
3.49183
3.49583
3.49849
3.50031
3.50136
3.50122
3.50042
3.49909
3.49732
3.49939
3.50225
3.84679
3.85941
3.84341
3.80613
3.76026
3.72067
3.69236
3.67607
3.66869
3.66632
3.66509
3.66294
3.66055
3.65837
3.6595
3.66816
3.68493
3.70256
3.70702
3.69148
4.01732
3.99304
3.9686
3.94829
3.92207
3.89512
3.87269
3.8568
3.84708
3.8412
3.83615
3.83045
3.82138
3.80985
3.79664
3.78778
3.79144
3.80858
3.81876
3.80298
4.07215
4.01024
3.98463
4.00501
4.02662
4.04038
4.04476
4.04226
4.03688
4.03161
4.02687
4.02118
4.01412
4.00148
3.9776
3.93472
3.8715
3.80852
3.79624
3.82465
4.29924
4.26648
4.26104
4.27326
4.2768
4.27072
4.25865
4.24626
4.23593
4.22887
4.2247
4.22329
4.22322
4.22549
4.23137
4.23806
4.2386
4.22767
4.19907
4.17681
4.63555
4.64012
4.62839
4.58446
4.53773
4.49299
4.45619
4.43084
4.41467
4.4055
4.40011
4.39886
4.40156
4.41135
4.43268
4.4702
4.51924
4.56287
4.55884
4.51711
4.76788
4.74016
4.70485
4.6709
4.64305
4.61803
4.59582
4.57716
4.56334
4.55394
4.54832
4.54668
4.54806
4.55468
4.56621
4.58234
4.6015
4.62025
4.63313
4.62972
4.79139
4.76331
4.73577
4.71989
4.71173
4.70787
4.70435
4.69774
4.6897
4.68302
4.67792
4.6732
4.66729
4.65617
4.63845
4.6189
4.60551
4.60341
4.61802
4.64202
4.69667
4.66504
4.65353
4.6758
4.71474
4.75372
4.78193
4.79725
4.80409
4.80558
4.80549
4.80292
4.79851
4.78808
4.76642
4.72759
4.67445
4.62585
4.62238
4.66099
4.67888
4.66224
4.68885
4.75693
4.82523
4.87648
4.90902
4.92808
4.939
4.94497
4.94841
4.95007
4.95232
4.95672
4.96785
4.98295
4.99465
4.99617
4.97924
4.96172
4.95409
5.0077
5.0467
5.04791
5.04854
5.05494
5.0667
5.0777
5.08613
5.091
5.09381
5.09545
5.0961
5.10022
5.11358
5.14541
5.19634
5.24383
5.24701
5.21365
5.16692
5.20917
5.20966
5.18469
5.17804
5.18827
5.20652
5.22453
5.23862
5.24692
5.25107
5.2521
5.25142
5.24583
5.2312
5.2086
5.18863
5.18123
5.1951
5.21448
5.33034
5.34464
5.34813
5.36004
5.37302
5.38456
5.39555
5.40622
5.4162
5.42286
5.42782
5.43
5.4309
5.4274
5.41457
5.38183
5.3309
5.28467
5.27866
5.31054
5.58455
5.61722
5.64097
5.65014
5.64043
5.62403
5.61194
5.60579
5.60464
5.60659
5.61059
5.61565
5.62369
5.63695
5.66069
5.69235
5.71747
5.72631
5.70848
5.68418
5.8195
5.8473
5.86836
5.86886
5.85126
5.82485
5.80109
5.7853
5.77682
5.77383
5.77475
5.78064
5.79054
5.81005
5.84428
5.90177
5.97342
6.03159
6.03446
5.98805
5.97544
5.98581
5.98952
5.97856
5.96493
5.95238
5.93978
5.92961
5.92223
5.91849
5.91697
5.91788
5.91968
5.92028
5.91831
5.91853
5.92433
5.93476
5.95423
5.96974
6.02233
6.00579
5.99805
6.00058
6.01199
6.02954
6.04368
6.05214
6.0553
6.05518
6.05321
6.04904
6.0416
6.02574
5.99601
5.94931
5.89761
5.86312
5.87132
5.91721
6.11101
6.07923
6.07988
6.11536
6.15589
6.18791
6.20648
6.21653
6.21989
6.21909
6.21375
6.20387
6.18921
6.16902
6.14196
6.10462
6.06352
6.03356
6.02315
6.03693
6.43362
6.44736
6.45628
6.44704
6.43151
6.41809
6.4117
6.4101
6.40972
6.40867
6.40673
6.40241
6.39372
6.38088
6.36531
6.34639
6.32146
6.29393
6.27327
6.2642
6.6767
6.68812
6.67661
6.64272
6.61142
6.5935
6.58887
6.59028
6.59341
6.59714
6.60146
6.60764
6.61693
6.6318
6.65505
6.68587
6.71262
6.72196
6.69949
6.65909
6.79556
6.76125
6.75082
6.77232
6.78899
6.79223
6.78612
6.77853
6.77398
6.77364
6.77583
6.78356
6.79815
6.82728
6.87313
6.93791
7.01011
7.06598
7.0636
7.01025
7.11051
7.11701
7.11347
7.08082
7.03547
6.99231
6.96018
6.94005
6.92891
6.92528
6.92593
6.93086
6.93784
6.94763
6.95936
6.97254
6.98595
6.99848
7.01658
7.02881
7.20696
7.20071
7.16928
7.11814
7.07585
7.05358
7.04521
7.04378
7.04513
7.04798
7.05197
7.05591
7.05765
7.05262
7.03604
7.00751
6.97745
6.9578
6.9689
7.01042
7.06981
6.99996
6.97197
7.00975
7.06743
7.1206
7.15415
7.17158
7.17899
7.18204
7.18073
7.17614
7.16778
7.1554
7.13733
7.11567
7.0977
7.08976
7.09028
7.1039
7.23693
7.20877
7.22647
7.27683
7.32309
7.35143
7.3629
7.3635
7.35818
7.34999
7.3387
7.32316
7.30208
7.27672
7.24757
7.21661
7.18676
7.16598
7.16272
7.17449
7.65239
7.70198
7.73131
7.70825
7.66657
7.62534
7.59626
7.57543
7.55787
7.54184
7.52552
7.50771
7.48662
7.4611
7.42983
7.39342
7.35499
7.32356
7.31104
7.31932
7.86928
7.91271
7.90898
7.86797
7.82804
7.79696
7.7751
7.75989
7.74839
7.73901
7.73136
7.72467
7.71765
7.70966
7.70003
7.68685
7.66647
7.64194
7.62084
7.61198
7.81752
7.80281
7.79332
7.81447
7.84835
7.88019
7.9017
7.9167
7.92689
7.93541
7.94394
7.95603
7.97293
7.99823
8.03383
8.07867
8.11878
8.13893
8.12203
8.08593
7.86309
7.84033
7.85244
7.90888
7.97683
8.03733
8.07907
8.10698
8.12496
8.14038
8.15508
8.17627
8.20613
8.25252
8.31585
8.39912
8.48985
8.56294
8.57194
8.52555
8.23108
8.27002
8.30023
8.30922
8.30824
8.3066
8.3088
8.31663
8.326
8.33833
8.35288
8.37393
8.40065
8.43332
8.46642
8.50064
8.53565
8.56867
8.60283
8.62866
8.62988
8.69071
8.69326
8.63994
8.57719
8.52834
8.50137
8.49306
8.49481
8.50267
8.51493
8.53227
8.55216
8.57095
8.58209
8.58216
8.57809
8.57889
8.60674
8.66494
8.81061
8.81975
8.79754
8.75987
8.71583
8.6772
8.64945
8.63462
8.62938
8.6322
8.63844
8.64718
8.65561
8.66439
8.6723
8.67834
8.68555
8.69836
8.71665
8.74699
8.83277
8.80811
8.78399
8.77308
8.7625
8.75171
8.74222
8.73641
8.73423
8.73605
8.73833
8.73964
8.73623
8.72768
8.71282
8.69583
8.68131
8.67689
8.69062
8.71303
8.72188
8.6658
8.65276
8.6986
8.75248
8.79711
8.82436
8.83707
8.84032
8.84008
8.83546
8.82636
8.81042
8.78675
8.7531
8.71229
8.67072
8.64158
8.6395
8.64989
8.83492
8.8275
8.85044
8.89806
8.93831
8.96402
8.97506
8.97661
8.97205
8.96387
8.95181
8.93445
8.90871
8.87385
8.83019
8.7799
8.7262
8.67979
8.65549
8.64259
9.15135
9.21321
9.23929
9.21192
9.17731
9.15053
9.13433
9.12405
9.11489
9.10391
9.08969
9.06948
9.04247
9.00959
8.97548
8.9453
8.91629
8.88616
8.84949
8.80296
9.27154
9.3018
9.29617
9.26869
9.25506
9.25545
9.26043
9.26454
9.26469
9.26055
9.2518
9.23836
9.21967
9.19886
9.17993
9.16917
9.1702
9.17748
9.15098
9.07929
9.30284
9.28161
9.29253
9.34423
9.3924
9.42135
9.43251
9.43682
9.43866
9.43964
9.44074
9.44242
9.44653
9.44965
9.44545
9.4308
9.40736
9.3838
9.35955
9.31849
9.59477
9.62153
9.64606
9.64736
9.63764
9.62543
9.61746
9.61482
9.61488
9.61689
9.62169
9.63174
9.64949
9.67743
9.7105
9.73785
9.74982
9.7409
9.70914
9.66228
9.78649
9.81229
9.81543
9.79275
9.7738
9.76742
9.76928
9.77327
9.77713
9.78045
9.78465
9.79097
9.80305
9.82387
9.8549
9.89458
9.93272
9.95089
9.94167
9.9213
9.85419
9.83272
9.84059
9.88455
9.92322
9.94414
9.94937
9.94653
9.943
9.94085
9.94097
9.94255
9.94416
9.94732
9.95338
9.96169
9.97404
9.98791
10.0033
10.0231
10.1564
10.1811
10.198
10.1881
10.1661
10.1415
10.1214
10.1058
10.0953
10.0888
10.0873
10.0877
10.0897
10.0876
10.0796
10.0633
10.0418
10.0222
10.0313
10.0694
10.2971
10.3166
10.3063
10.2701
10.24
10.2234
10.2164
10.2139
10.2125
10.2124
10.2133
10.2158
10.2186
10.2215
10.224
10.2245
10.227
10.2326
10.2379
10.2436
10.2304
10.1919
10.1795
10.2163
10.2606
10.2933
10.3119
10.3233
10.3301
10.3347
10.3369
10.337
10.3364
10.3365
10.3384
10.3425
10.3479
10.3557
10.367
10.3705
10.3739
10.3641
10.3669
10.3831
10.4064
10.429
10.4458
10.457
10.4633
10.4669
10.468
10.4683
10.4659
10.4625
10.4585
10.4547
10.4543
10.4592
10.4712
10.4783
10.5478
10.5475
10.5476
10.5572
10.572
10.5905
10.6047
10.6112
10.6127
10.6117
10.6094
10.605
10.5989
10.5879
10.5734
10.5585
10.5465
10.5425
10.5523
10.566
10.7908
10.8113
10.8073
10.7932
10.7796
10.7709
10.7682
10.768
10.7678
10.7658
10.7624
10.7576
10.75
10.7385
10.7216
10.7
10.6783
10.6639
10.6674
10.675
10.9706
10.9908
10.9701
10.9372
10.918
10.9136
10.9194
10.9284
10.9363
10.9404
10.942
10.9402
10.9379
10.9349
10.9304
10.924
10.9128
10.8994
10.8925
10.8801
11.0746
11.051
11.0349
11.0652
11.0989
11.1225
11.1341
11.1395
11.1417
11.1433
11.1451
11.1488
11.1541
11.166
11.1872
11.218
11.2515
11.2721
11.2656
11.225
11.5212
11.5552
11.5564
11.5285
11.4854
11.4425
11.4094
11.3873
11.3726
11.3637
11.3588
11.3581
11.3635
11.3772
11.4036
11.4512
11.5183
11.5829
11.5978
11.5399
11.8799
11.9252
11.9027
11.8284
11.7484
11.683
11.6385
11.609
11.5909
11.5801
11.5752
11.5758
11.5797
11.5847
11.586
11.5831
11.5822
11.5907
11.615
11.617
11.9605
11.9461
11.9021
11.872
11.8524
11.8385
11.8268
11.8163
11.8107
11.8088
11.8131
11.8215
11.8365
11.8526
11.8632
11.8574
11.8305
11.8014
11.8018
11.8155
12.1274
12.1027
12.0792
12.0819
12.0851
12.0819
12.0716
12.0603
12.0528
12.0528
12.0611
12.0806
12.1103
12.1523
12.2072
12.2688
12.3204
12.3472
12.3348
12.2839
12.5238
12.569
12.5702
12.5336
12.4734
12.4082
12.3536
12.3152
12.2917
12.2831
12.2873
12.3054
12.3381
12.3883
12.4586
12.5494
12.6464
12.7215
12.7303
12.6528
12.7553
12.8328
12.8263
12.7607
12.6776
12.5983
12.5374
12.4949
12.4699
12.46
12.4632
12.4786
12.5025
12.5345
12.5714
12.6075
12.639
12.6633
12.6831
12.6637
12.6283
12.6532
12.6451
12.647
12.6491
12.6424
12.6277
12.6103
12.5983
12.5937
12.5987
12.611
12.6299
12.6461
12.6523
12.642
12.6208
12.5978
12.5941
12.5963
12.5273
12.5505
12.5835
12.6436
12.6956
12.723
12.7269
12.7181
12.7075
12.7003
12.6985
12.702
12.7085
12.7134
12.7111
12.697
12.6744
12.6492
12.6214
12.5829
12.6547
12.7471
12.8161
12.8536
12.8652
12.8548
12.8355
12.8152
12.798
12.7847
12.7745
12.7656
12.7556
12.7396
12.7152
12.6777