/*--------------------------------*- C++ -*----------------------------------*\
  =========                 |
  \\      /  F ield         | OpenFOAM: The Open Source CFD Toolbox
   \\    /   O peration     | Website:  https://openfoam.org
    \\  /    A nd           | Version:  6
     \\/     M anipulation  |
\*---------------------------------------------------------------------------*/
FoamFile
{
    version     2.0;
    format      ascii;
    class       surfaceScalarField;
    location    "11";
    object      phi;
}
// * * * * * * * * * * * * * * * * * * * * * * * * * * * * * * * * * * * * * //

dimensions      [0 3 -1 0 0 0 0];

internalField   nonuniform List<scalar> 
19400
(
-4.34487e-09
-8.45693e-07
-7.94048e-09
-1.12402e-06
-9.33297e-09
-1.23874e-06
-9.13226e-09
-1.29783e-06
-8.0807e-09
-1.32609e-06
-6.8464e-09
-1.33841e-06
-5.72588e-09
-1.34305e-06
-4.80418e-09
-1.34421e-06
-4.00711e-09
-1.34393e-06
-3.30209e-09
-1.34317e-06
-2.60517e-09
-1.34227e-06
-1.83508e-09
-1.34115e-06
-8.96404e-10
-1.33937e-06
3.8009e-10
-1.33586e-06
1.97871e-09
-1.3286e-06
3.73799e-09
-1.31362e-06
4.96589e-09
-1.28337e-06
4.86919e-09
-1.22381e-06
2.68858e-09
-1.11054e-06
-8.37961e-07
-9.36328e-10
-8.45089e-07
-3.00316e-09
-1.12223e-06
-4.10098e-09
-1.23794e-06
-4.4752e-09
-1.29767e-06
-4.4699e-09
-1.32631e-06
-4.19808e-09
-1.33885e-06
-3.80487e-09
-1.3436e-06
-3.37875e-09
-1.34479e-06
-2.91637e-09
-1.34451e-06
-2.51348e-09
-1.34375e-06
-2.0626e-09
-1.34284e-06
-1.67236e-09
-1.34175e-06
-1.21765e-09
-1.33998e-06
-7.70035e-10
-1.33651e-06
-3.35319e-10
-1.32924e-06
8.21187e-11
-1.3142e-06
2.85402e-10
-1.28385e-06
2.00626e-10
-1.22404e-06
-3.90711e-10
-1.11026e-06
-8.3838e-07
-1.39499e-09
-8.43809e-07
-2.00854e-09
-1.12174e-06
-2.40973e-09
-1.23766e-06
-2.53153e-09
-1.29764e-06
-2.57085e-09
-1.32639e-06
-2.50834e-09
-1.33899e-06
-2.41556e-09
-1.34378e-06
-2.263e-09
-1.345e-06
-2.08104e-09
-1.34476e-06
-1.87485e-09
-1.34401e-06
-1.66563e-09
-1.34312e-06
-1.4344e-09
-1.34203e-06
-1.22432e-09
-1.34027e-06
-9.78229e-10
-1.3368e-06
-7.5307e-10
-1.32952e-06
-5.11984e-10
-1.31448e-06
-2.70106e-10
-1.28414e-06
8.07535e-12
-1.22441e-06
5.93653e-10
-1.11094e-06
-8.37776e-07
-8.10707e-10
-8.4301e-07
-9.43247e-10
-1.1216e-06
-1.08122e-09
-1.23752e-06
-1.14458e-09
-1.29756e-06
-1.22844e-09
-1.3263e-06
-1.291e-09
-1.33891e-06
-1.35608e-09
-1.34371e-06
-1.38109e-09
-1.34497e-06
-1.37994e-09
-1.34477e-06
-1.33391e-09
-1.34406e-06
-1.27196e-09
-1.3432e-06
-1.17059e-09
-1.34213e-06
-1.08956e-09
-1.34039e-06
-9.61677e-10
-1.33691e-06
-8.98016e-10
-1.32961e-06
-8.26945e-10
-1.31452e-06
-7.43845e-10
-1.28419e-06
-4.80081e-10
-1.22462e-06
1.82811e-11
-1.11138e-06
-8.37739e-07
-6.40758e-10
-8.42325e-07
-6.57095e-10
-1.12156e-06
-7.90065e-10
-1.23733e-06
-9.05091e-10
-1.2974e-06
-9.76014e-10
-1.32617e-06
-1.04407e-09
-1.33881e-06
-1.08887e-09
-1.34363e-06
-1.10572e-09
-1.34494e-06
-1.0898e-09
-1.34478e-06
-1.02627e-09
-1.34411e-06
-9.58857e-10
-1.34328e-06
-8.33712e-10
-1.34222e-06
-7.5611e-10
-1.34048e-06
-6.36141e-10
-1.33699e-06
-5.70495e-10
-1.32967e-06
-5.30475e-10
-1.31454e-06
-5.38725e-10
-1.28414e-06
-3.97361e-10
-1.22468e-06
6.92692e-11
-1.11177e-06
-8.37664e-07
-1.14837e-10
-8.42245e-07
-4.11327e-10
-1.12133e-06
-6.90289e-10
-1.23706e-06
-9.55047e-10
-1.29717e-06
-1.12067e-09
-1.32602e-06
-1.19636e-09
-1.33875e-06
-1.18697e-09
-1.34365e-06
-1.1269e-09
-1.345e-06
-1.04383e-09
-1.34488e-06
-9.18716e-10
-1.34423e-06
-7.8603e-10
-1.34343e-06
-6.19311e-10
-1.34239e-06
-4.67943e-10
-1.34065e-06
-3.05851e-10
-1.33715e-06
-1.98677e-10
-1.32979e-06
-1.65379e-10
-1.31458e-06
-2.61967e-10
-1.28404e-06
-4.08342e-10
-1.22452e-06
-4.5241e-10
-1.11171e-06
-8.38128e-07
8.26887e-11
-8.42455e-07
-2.93014e-10
-1.12109e-06
-5.25607e-10
-1.23694e-06
-7.94004e-10
-1.297e-06
-9.85746e-10
-1.32592e-06
-1.06943e-09
-1.33873e-06
-1.07382e-09
-1.34372e-06
-1.01523e-09
-1.34512e-06
-9.35399e-10
-1.34501e-06
-8.20604e-10
-1.34439e-06
-7.01148e-10
-1.3436e-06
-5.49009e-10
-1.34257e-06
-4.05505e-10
-1.34083e-06
-2.69068e-10
-1.33731e-06
-1.71061e-10
-1.32992e-06
-1.57434e-10
-1.31463e-06
-2.64746e-10
-1.28398e-06
-5.48914e-10
-1.22428e-06
-9.44644e-10
-1.11138e-06
-8.39094e-07
-2.64307e-11
-8.42483e-07
-1.54555e-10
-1.12104e-06
-2.33276e-10
-1.23692e-06
-4.17452e-10
-1.29687e-06
-5.78534e-10
-1.32582e-06
-6.73126e-10
-1.33868e-06
-7.29255e-10
-1.34372e-06
-7.31278e-10
-1.34515e-06
-7.20026e-10
-1.34507e-06
-6.71894e-10
-1.34446e-06
-6.16898e-10
-1.34369e-06
-5.46617e-10
-1.34267e-06
-4.64136e-10
-1.34094e-06
-3.99345e-10
-1.33741e-06
-3.52865e-10
-1.33e-06
-3.60457e-10
-1.31467e-06
-4.57381e-10
-1.28394e-06
-7.13436e-10
-1.22412e-06
-9.30814e-10
-1.11126e-06
-8.40043e-07
-9.87594e-11
-8.42321e-07
-3.81976e-11
-1.12107e-06
-3.30538e-11
-1.23689e-06
-1.63829e-10
-1.29674e-06
-3.18891e-10
-1.32565e-06
-4.4254e-10
-1.33856e-06
-5.10826e-10
-1.34365e-06
-5.57248e-10
-1.34511e-06
-5.77302e-10
-1.34506e-06
-5.91603e-10
-1.34447e-06
-5.90906e-10
-1.34371e-06
-5.90108e-10
-1.3427e-06
-5.83031e-10
-1.34097e-06
-5.98463e-10
-1.33744e-06
-6.1678e-10
-1.33001e-06
-6.59873e-10
-1.31468e-06
-7.43308e-10
-1.28392e-06
-8.61406e-10
-1.22408e-06
-8.81915e-10
-1.11132e-06
-8.40927e-07
-7.41323e-11
-8.42188e-07
-7.49818e-11
-1.12105e-06
-1.67132e-10
-1.23675e-06
-2.94791e-10
-1.29661e-06
-3.8709e-10
-1.32552e-06
-4.66252e-10
-1.33848e-06
-4.79054e-10
-1.34361e-06
-4.91514e-10
-1.3451e-06
-4.78794e-10
-1.34506e-06
-4.87233e-10
-1.34447e-06
-4.80551e-10
-1.34371e-06
-5.10625e-10
-1.3427e-06
-5.37481e-10
-1.34096e-06
-5.8045e-10
-1.33742e-06
-6.51159e-10
-1.32998e-06
-7.09473e-10
-1.31464e-06
-7.58607e-10
-1.2839e-06
-7.2575e-10
-1.22412e-06
-5.1904e-10
-1.11152e-06
-8.41436e-07
2.6101e-10
-8.4248e-07
-6.07984e-12
-1.1208e-06
-1.98051e-10
-1.23658e-06
-3.06441e-10
-1.29652e-06
-3.72163e-10
-1.32547e-06
-3.92342e-10
-1.33847e-06
-3.72777e-10
-1.34364e-06
-3.26135e-10
-1.34515e-06
-2.78277e-10
-1.34511e-06
-2.22863e-10
-1.34453e-06
-1.84485e-10
-1.34376e-06
-1.36166e-10
-1.34273e-06
-1.16503e-10
-1.34099e-06
-9.77859e-11
-1.33744e-06
-1.21322e-10
-1.32996e-06
-1.99243e-10
-1.31456e-06
-2.6827e-10
-1.28379e-06
-2.64884e-10
-1.22407e-06
-3.13291e-11
-1.11171e-06
-8.41466e-07
8.72486e-11
-8.42653e-07
7.8439e-12
-1.12077e-06
-1.10381e-10
-1.23653e-06
-1.93504e-10
-1.29647e-06
-2.47689e-10
-1.32547e-06
-2.26357e-10
-1.33852e-06
-1.86782e-10
-1.34372e-06
-1.10496e-10
-1.34524e-06
-4.01183e-11
-1.3452e-06
5.25611e-11
-1.34462e-06
1.41597e-10
-1.34386e-06
2.42881e-10
-1.34284e-06
3.40987e-10
-1.3411e-06
4.27041e-10
-1.33753e-06
4.6079e-10
-1.33001e-06
4.09354e-10
-1.31452e-06
2.76492e-10
-1.28366e-06
1.44698e-10
-1.22394e-06
3.61996e-11
-1.11161e-06
-8.41442e-07
-1.00563e-10
-8.42676e-07
6.11236e-11
-1.121e-06
5.74489e-11
-1.23662e-06
3.99929e-12
-1.29646e-06
-3.48308e-11
-1.3255e-06
-1.5488e-11
-1.33858e-06
1.07666e-11
-1.34379e-06
5.84972e-11
-1.34532e-06
1.14831e-10
-1.3453e-06
1.79947e-10
-1.34472e-06
2.56263e-10
-1.34396e-06
3.49508e-10
-1.34296e-06
4.55424e-10
-1.34122e-06
5.55224e-10
-1.33766e-06
6.48124e-10
-1.33013e-06
6.8466e-10
-1.31459e-06
6.01444e-10
-1.28363e-06
4.31764e-10
-1.22382e-06
7.95329e-11
-1.11132e-06
-8.41379e-07
-1.75569e-10
-8.42631e-07
1.44197e-10
-1.12137e-06
1.63512e-10
-1.23674e-06
1.1248e-10
-1.29644e-06
5.81259e-11
-1.3255e-06
5.85703e-11
-1.33861e-06
6.15191e-11
-1.34383e-06
9.1604e-11
-1.34538e-06
1.26777e-10
-1.34536e-06
1.68598e-10
-1.34479e-06
2.2507e-10
-1.34404e-06
2.81563e-10
-1.34305e-06
3.78202e-10
-1.34133e-06
4.72091e-10
-1.33779e-06
6.1014e-10
-1.33029e-06
7.53064e-10
-1.31477e-06
8.04576e-10
-1.28372e-06
6.14049e-10
-1.2237e-06
1.57424e-10
-1.11094e-06
-8.41236e-07
-3.93248e-12
-8.42736e-07
1.08927e-10
-1.12155e-06
-4.85638e-11
-1.23666e-06
-1.67668e-10
-1.29636e-06
-1.9662e-10
-1.32552e-06
-1.55404e-10
-1.33868e-06
-1.01765e-10
-1.34392e-06
-3.78527e-11
-1.34547e-06
2.49302e-11
-1.34544e-06
7.61858e-11
-1.34486e-06
1.29202e-10
-1.34411e-06
1.77999e-10
-1.34312e-06
2.50566e-10
-1.34142e-06
3.28673e-10
-1.3379e-06
4.62788e-10
-1.33044e-06
6.33479e-10
-1.31498e-06
7.64692e-10
-1.28389e-06
6.43222e-10
-1.22363e-06
2.3126e-10
-1.11059e-06
-8.41019e-07
4.8542e-10
-8.43308e-07
1.37619e-10
-1.12124e-06
-1.12458e-10
-1.23647e-06
-1.82296e-10
-1.29631e-06
-2.08056e-10
-1.32554e-06
-1.67399e-10
-1.33873e-06
-1.2601e-10
-1.34398e-06
-6.95135e-11
-1.34554e-06
-9.41178e-12
-1.34552e-06
4.63046e-11
-1.34494e-06
1.11419e-10
-1.34418e-06
1.60472e-10
-1.3432e-06
2.35969e-10
-1.3415e-06
3.22199e-10
-1.33801e-06
4.45335e-10
-1.33059e-06
6.08801e-10
-1.31517e-06
7.99721e-10
-1.28411e-06
8.24832e-10
-1.22371e-06
5.57872e-10
-1.1104e-06
-8.40475e-07
1.38447e-10
-8.43444e-07
3.37384e-11
-1.12114e-06
-1.69195e-10
-1.23627e-06
-2.42052e-10
-1.29624e-06
-2.17028e-10
-1.32556e-06
-1.54951e-10
-1.33879e-06
-9.82341e-11
-1.34405e-06
-4.80059e-11
-1.34559e-06
5.04978e-12
-1.34558e-06
6.72023e-11
-1.34501e-06
1.34102e-10
-1.34426e-06
2.2358e-10
-1.34329e-06
3.27161e-10
-1.34163e-06
4.67317e-10
-1.33818e-06
6.42038e-10
-1.33078e-06
8.20925e-10
-1.31539e-06
9.84596e-10
-1.28432e-06
9.45211e-10
-1.22373e-06
6.9205e-10
-1.11021e-06
-8.39787e-07
1.68966e-10
-8.43573e-07
1.87994e-11
-1.12097e-06
-1.7008e-10
-1.23605e-06
-2.94042e-10
-1.29611e-06
-2.80198e-10
-1.32556e-06
-2.27114e-10
-1.33884e-06
-1.48193e-10
-1.34411e-06
-8.36039e-11
-1.34566e-06
-3.15632e-12
-1.34565e-06
6.18215e-11
-1.34508e-06
1.44186e-10
-1.34434e-06
2.11911e-10
-1.34338e-06
2.93969e-10
-1.34171e-06
3.87926e-10
-1.33827e-06
4.85221e-10
-1.33091e-06
6.44214e-10
-1.31555e-06
7.93564e-10
-1.2845e-06
8.32548e-10
-1.22379e-06
5.7848e-10
-1.10995e-06
-8.39193e-07
2.19378e-10
-8.43728e-07
-8.2665e-11
-1.12065e-06
-2.74232e-10
-1.23581e-06
-3.77985e-10
-1.29599e-06
-3.68646e-10
-1.32554e-06
-3.10147e-10
-1.33888e-06
-2.1023e-10
-1.34419e-06
-9.71988e-11
-1.34576e-06
2.50869e-11
-1.34575e-06
1.39956e-10
-1.34518e-06
2.41931e-10
-1.34443e-06
3.30753e-10
-1.34344e-06
3.9667e-10
-1.34176e-06
4.5095e-10
-1.3383e-06
5.13156e-10
-1.33094e-06
6.17389e-10
-1.31562e-06
7.78648e-10
-1.28461e-06
9.60554e-10
-1.22389e-06
1.01623e-09
-1.10993e-06
-8.38161e-07
1.44557e-10
-8.43805e-07
-1.88705e-10
-1.12029e-06
-3.95707e-10
-1.23556e-06
-4.95951e-10
-1.29587e-06
-4.8742e-10
-1.32552e-06
-4.09267e-10
-1.33895e-06
-2.81856e-10
-1.3443e-06
-1.05805e-10
-1.34591e-06
7.67745e-11
-1.34593e-06
2.8658e-10
-1.34536e-06
4.76154e-10
-1.34461e-06
6.65295e-10
-1.34361e-06
8.22511e-10
-1.34191e-06
9.5578e-10
-1.33842e-06
1.03611e-09
-1.331e-06
1.0503e-09
-1.31562e-06
1.02446e-09
-1.28453e-06
1.00389e-09
-1.22381e-06
1.04578e-09
-1.10991e-06
-8.37118e-07
2.15286e-10
-8.43976e-07
-1.96615e-10
-1.11989e-06
-4.47975e-10
-1.23528e-06
-5.73552e-10
-1.29577e-06
-5.70187e-10
-1.32552e-06
-5.02146e-10
-1.33903e-06
-3.46119e-10
-1.34447e-06
-1.40389e-10
-1.34613e-06
9.26308e-11
-1.34618e-06
3.52021e-10
-1.34563e-06
5.95206e-10
-1.34488e-06
8.60317e-10
-1.34387e-06
1.07817e-09
-1.34215e-06
1.27058e-09
-1.33861e-06
1.38174e-09
-1.33113e-06
1.37753e-09
-1.31563e-06
1.2091e-09
-1.28438e-06
9.35071e-10
-1.22356e-06
5.50415e-10
-1.10955e-06
-8.36577e-07
3.9123e-10
-8.44359e-07
-2.18183e-11
-1.1195e-06
-2.25667e-10
-1.23507e-06
-3.56122e-10
-1.29567e-06
-3.96818e-10
-1.32548e-06
-3.7873e-10
-1.33908e-06
-2.5944e-10
-1.3446e-06
-9.50045e-11
-1.34632e-06
1.05809e-10
-1.3464e-06
3.13715e-10
-1.34586e-06
5.24745e-10
-1.3451e-06
7.13386e-10
-1.34409e-06
8.81134e-10
-1.34233e-06
9.96903e-10
-1.33874e-06
1.06052e-09
-1.33121e-06
1.05864e-09
-1.31564e-06
9.20092e-10
-1.28428e-06
6.7607e-10
-1.22335e-06
1.55492e-10
-1.10906e-06
-8.36425e-07
3.44676e-10
-8.44735e-07
3.04241e-10
-1.11948e-06
2.43128e-10
-1.23503e-06
1.22842e-10
-1.29558e-06
2.00544e-11
-1.3254e-06
-3.92803e-11
-1.33905e-06
-2.51908e-11
-1.34463e-06
4.02909e-11
-1.3464e-06
1.3661e-10
-1.34651e-06
2.46725e-10
-1.34598e-06
3.5406e-10
-1.34522e-06
4.45803e-10
-1.34418e-06
5.18083e-10
-1.34239e-06
5.44908e-10
-1.33878e-06
5.53946e-10
-1.3312e-06
5.07942e-10
-1.31559e-06
4.46189e-10
-1.28421e-06
3.70443e-10
-1.22328e-06
2.32424e-10
-1.10894e-06
-8.36193e-07
1.04853e-10
-8.44881e-07
4.55734e-10
-1.11985e-06
4.72931e-10
-1.23507e-06
3.93853e-10
-1.29551e-06
2.98646e-10
-1.32531e-06
2.10636e-10
-1.33896e-06
1.50177e-10
-1.34457e-06
1.23907e-10
-1.34638e-06
1.14525e-10
-1.3465e-06
1.24692e-10
-1.34598e-06
1.33156e-10
-1.34522e-06
1.36953e-10
-1.34418e-06
1.4456e-10
-1.34239e-06
1.4755e-10
-1.33878e-06
1.52623e-10
-1.3312e-06
1.21243e-10
-1.31556e-06
9.75002e-11
-1.28417e-06
1.01809e-10
-1.22329e-06
1.81463e-10
-1.10902e-06
-8.36014e-07
9.44103e-11
-8.45022e-07
4.68168e-10
-1.12024e-06
5.94615e-10
-1.23522e-06
5.90307e-10
-1.2955e-06
4.69391e-10
-1.32519e-06
3.21395e-10
-1.33881e-06
1.88462e-10
-1.34443e-06
7.5739e-11
-1.34626e-06
-3.33779e-12
-1.34641e-06
-8.24582e-11
-1.34591e-06
-1.45948e-10
-1.34515e-06
-2.1421e-10
-1.34412e-06
-2.71576e-10
-1.34234e-06
-3.16618e-10
-1.33874e-06
-3.41744e-10
-1.33118e-06
-3.54091e-10
-1.31555e-06
-3.37764e-10
-1.2842e-06
-2.6063e-10
-1.22338e-06
-1.42548e-10
-1.10916e-06
-8.36157e-07
7.67916e-11
-8.45129e-07
4.85959e-10
-1.12065e-06
5.72493e-10
-1.23531e-06
5.14207e-10
-1.29543e-06
3.35763e-10
-1.325e-06
1.46501e-10
-1.33861e-06
-1.01328e-11
-1.34426e-06
-1.42913e-10
-1.34612e-06
-2.31954e-10
-1.3463e-06
-3.20167e-10
-1.34581e-06
-3.79826e-10
-1.34507e-06
-4.5604e-10
-1.34405e-06
-5.17649e-10
-1.34228e-06
-5.62846e-10
-1.3387e-06
-5.96571e-10
-1.33116e-06
-5.77943e-10
-1.31557e-06
-5.27562e-10
-1.28426e-06
-4.13896e-10
-1.2235e-06
-1.6321e-10
-1.1094e-06
-8.36315e-07
1.87932e-10
-8.45313e-07
4.19263e-10
-1.12087e-06
3.67774e-10
-1.23525e-06
1.99722e-10
-1.29524e-06
-2.02502e-11
-1.32477e-06
-2.06637e-10
-1.3384e-06
-3.33701e-10
-1.34411e-06
-4.20977e-10
-1.34602e-06
-4.6293e-10
-1.34624e-06
-4.89982e-10
-1.34578e-06
-4.97123e-10
-1.34506e-06
-4.97906e-10
-1.34404e-06
-5.10678e-10
-1.34227e-06
-5.11181e-10
-1.33869e-06
-5.11493e-10
-1.33116e-06
-4.7855e-10
-1.31559e-06
-4.10895e-10
-1.28432e-06
-3.35001e-10
-1.22355e-06
-1.7449e-10
-1.10954e-06
-8.36486e-07
3.10105e-10
-8.45596e-07
2.92119e-10
-1.12085e-06
1.04486e-10
-1.23505e-06
-1.6794e-10
-1.29496e-06
-3.89056e-10
-1.32453e-06
-5.34601e-10
-1.33825e-06
-6.07165e-10
-1.34403e-06
-6.26305e-10
-1.346e-06
-6.03072e-10
-1.34625e-06
-5.52458e-10
-1.34583e-06
-4.75266e-10
-1.34513e-06
-3.94879e-10
-1.34412e-06
-3.22481e-10
-1.34235e-06
-2.57346e-10
-1.33874e-06
-2.23547e-10
-1.3312e-06
-1.80089e-10
-1.31562e-06
-1.37752e-10
-1.28435e-06
-1.28459e-10
-1.22355e-06
-4.67602e-11
-1.10961e-06
-8.36537e-07
5.80684e-10
-8.46159e-07
3.46097e-10
-1.12062e-06
8.26722e-11
-1.23478e-06
-2.38778e-10
-1.29466e-06
-4.72694e-10
-1.32431e-06
-6.2316e-10
-1.33812e-06
-6.88821e-10
-1.34398e-06
-6.91834e-10
-1.34601e-06
-6.46913e-10
-1.34632e-06
-5.53531e-10
-1.34593e-06
-4.38077e-10
-1.34526e-06
-2.84414e-10
-1.34427e-06
-1.47285e-10
-1.3425e-06
-1.2431e-11
-1.33888e-06
8.65097e-11
-1.3313e-06
1.43744e-10
-1.31568e-06
1.25505e-10
-1.28434e-06
6.56602e-12
-1.22344e-06
-1.81219e-10
-1.10945e-06
-8.36729e-07
4.79737e-10
-8.46602e-07
3.33576e-10
-1.12048e-06
7.78418e-11
-1.2345e-06
-2.3052e-10
-1.29436e-06
-4.42183e-10
-1.32409e-06
-5.84484e-10
-1.33799e-06
-6.45029e-10
-1.34392e-06
-6.61842e-10
-1.346e-06
-6.29229e-10
-1.34636e-06
-5.59456e-10
-1.34601e-06
-4.49403e-10
-1.34538e-06
-3.24976e-10
-1.34441e-06
-1.8234e-10
-1.34264e-06
-6.68955e-11
-1.339e-06
2.40952e-11
-1.33139e-06
6.55574e-11
-1.31572e-06
8.03124e-12
-1.2843e-06
-1.34301e-10
-1.22334e-06
-4.87242e-10
-1.10915e-06
-8.37225e-07
4.73504e-10
-8.47035e-07
3.27312e-10
-1.12033e-06
9.89772e-11
-1.23425e-06
-1.53858e-10
-1.29412e-06
-3.27259e-10
-1.32391e-06
-4.59772e-10
-1.33786e-06
-5.36413e-10
-1.34384e-06
-5.8023e-10
-1.34597e-06
-5.84319e-10
-1.34636e-06
-5.60562e-10
-1.34605e-06
-5.09005e-10
-1.34543e-06
-4.41686e-10
-1.34448e-06
-3.5744e-10
-1.34272e-06
-2.90722e-10
-1.33908e-06
-2.15394e-10
-1.33146e-06
-1.80128e-10
-1.31577e-06
-2.01547e-10
-1.28429e-06
-3.05907e-10
-1.22327e-06
-4.17174e-10
-1.10907e-06
-8.37642e-07
3.43557e-10
-8.47356e-07
2.92032e-10
-1.12027e-06
1.28413e-10
-1.23407e-06
-9.41113e-11
-1.29389e-06
-2.68598e-10
-1.32372e-06
-4.02263e-10
-1.33773e-06
-4.82883e-10
-1.34375e-06
-5.37403e-10
-1.34591e-06
-5.57046e-10
-1.34633e-06
-5.67031e-10
-1.34603e-06
-5.62628e-10
-1.34543e-06
-5.69079e-10
-1.34448e-06
-5.66664e-10
-1.34272e-06
-5.74218e-10
-1.33907e-06
-5.75869e-10
-1.33145e-06
-5.5784e-10
-1.31577e-06
-5.19031e-10
-1.28432e-06
-4.99744e-10
-1.22328e-06
-4.64814e-10
-1.10909e-06
-8.38096e-07
3.13739e-10
-8.47671e-07
3.20245e-10
-1.1203e-06
9.30592e-11
-1.23384e-06
-1.92514e-10
-1.29362e-06
-3.62922e-10
-1.32355e-06
-4.35829e-10
-1.33766e-06
-4.5484e-10
-1.34373e-06
-4.59689e-10
-1.34591e-06
-4.5575e-10
-1.34632e-06
-4.67254e-10
-1.34602e-06
-4.90053e-10
-1.34539e-06
-5.36018e-10
-1.34442e-06
-6.02223e-10
-1.34264e-06
-6.76776e-10
-1.33898e-06
-7.38111e-10
-1.33137e-06
-7.41688e-10
-1.31574e-06
-6.5648e-10
-1.28437e-06
-4.54787e-10
-1.22344e-06
-1.1791e-10
-1.10938e-06
-8.38208e-07
5.36183e-10
-8.48218e-07
4.18221e-10
-1.12016e-06
2.83433e-10
-1.23371e-06
1.2803e-10
-1.29345e-06
-7.65291e-12
-1.32342e-06
-5.92463e-11
-1.3376e-06
-9.34606e-11
-1.34369e-06
-9.73341e-11
-1.34588e-06
-1.14484e-10
-1.3463e-06
-1.24095e-10
-1.34599e-06
-1.50349e-10
-1.34536e-06
-1.83874e-10
-1.34438e-06
-2.39167e-10
-1.34259e-06
-2.9366e-10
-1.33892e-06
-3.55382e-10
-1.33131e-06
-3.83114e-10
-1.31571e-06
-3.28659e-10
-1.2844e-06
-1.50902e-10
-1.22359e-06
2.48941e-10
-1.10977e-06
-8.37969e-07
2.01033e-10
-8.48359e-07
3.14388e-10
-1.12021e-06
3.2773e-10
-1.23368e-06
3.09677e-10
-1.29339e-06
2.75491e-10
-1.32335e-06
2.37036e-10
-1.33753e-06
2.05099e-10
-1.34364e-06
1.71524e-10
-1.34583e-06
1.48211e-10
-1.34627e-06
1.3411e-10
-1.34597e-06
1.25965e-10
-1.34536e-06
1.36256e-10
-1.34439e-06
1.30818e-10
-1.3426e-06
1.33888e-10
-1.33893e-06
9.02486e-11
-1.33129e-06
2.90143e-11
-1.31567e-06
5.93691e-12
-1.28441e-06
6.57535e-11
-1.2237e-06
8.6264e-11
-1.10984e-06
-8.37898e-07
8.86628e-11
-8.48413e-07
2.13315e-10
-1.1203e-06
8.14927e-11
-1.23351e-06
-5.79574e-11
-1.29323e-06
-9.65189e-11
-1.32327e-06
-1.06269e-10
-1.33751e-06
-6.7994e-11
-1.34365e-06
-4.80914e-11
-1.34586e-06
-9.3313e-13
-1.3463e-06
2.77792e-11
-1.34601e-06
7.9669e-11
-1.3454e-06
1.17824e-10
-1.34443e-06
1.61996e-10
-1.34264e-06
1.90289e-10
-1.33896e-06
1.80998e-10
-1.3313e-06
1.5817e-10
-1.31566e-06
1.32078e-10
-1.28444e-06
1.56284e-10
-1.22379e-06
1.34863e-11
-1.10976e-06
-8.37894e-07
2.75091e-10
-8.48772e-07
4.2616e-11
-1.12013e-06
-2.98001e-10
-1.23323e-06
-5.24106e-10
-1.29304e-06
-5.77904e-10
-1.32326e-06
-5.4029e-10
-1.33758e-06
-4.59317e-10
-1.34375e-06
-3.6637e-10
-1.34597e-06
-2.67288e-10
-1.34641e-06
-1.71503e-10
-1.34612e-06
-8.37132e-11
-1.3455e-06
-1.06318e-12
-1.34452e-06
6.89633e-11
-1.34271e-06
1.14319e-10
-1.33901e-06
1.54072e-10
-1.33133e-06
1.59084e-10
-1.31566e-06
1.44128e-10
-1.28443e-06
1.57847e-10
-1.22383e-06
1.39807e-10
-1.10979e-06
-8.37759e-07
2.67594e-10
-8.49156e-07
-1.83437e-10
-1.11975e-06
-5.10942e-10
-1.23301e-06
-6.11126e-10
-1.29299e-06
-6.22691e-10
-1.32332e-06
-5.7311e-10
-1.33766e-06
-5.26198e-10
-1.34385e-06
-4.3901e-10
-1.34608e-06
-3.58983e-10
-1.34652e-06
-2.55964e-10
-1.34623e-06
-1.73244e-10
-1.3456e-06
-8.56708e-11
-1.34461e-06
-9.42935e-12
-1.34279e-06
5.46376e-11
-1.33907e-06
1.01526e-10
-1.33137e-06
1.16754e-10
-1.31568e-06
1.15321e-10
-1.28443e-06
8.75419e-11
-1.22381e-06
1.51226e-11
-1.10974e-06
-8.37745e-07
-1.15195e-10
-8.49121e-07
-3.10753e-10
-1.11959e-06
-4.77443e-10
-1.23291e-06
-4.56445e-10
-1.29304e-06
-4.43459e-10
-1.32339e-06
-4.23332e-10
-1.33771e-06
-4.25798e-10
-1.34389e-06
-3.9066e-10
-1.34613e-06
-3.62653e-10
-1.34658e-06
-3.03872e-10
-1.34629e-06
-2.62712e-10
-1.34567e-06
-1.99281e-10
-1.34468e-06
-1.4196e-10
-1.34286e-06
-7.15591e-11
-1.33915e-06
-3.81223e-13
-1.33145e-06
6.3921e-11
-1.31575e-06
1.0148e-10
-1.28447e-06
5.48364e-11
-1.22378e-06
-5.10999e-11
-1.10963e-06
-8.37787e-07
-5.20425e-10
-8.48619e-07
-4.8896e-10
-1.1196e-06
-4.14173e-10
-1.23299e-06
-2.54981e-10
-1.29318e-06
-2.13783e-10
-1.32343e-06
-2.26341e-10
-1.33768e-06
-2.86238e-10
-1.34383e-06
-3.1709e-10
-1.34608e-06
-3.46456e-10
-1.34656e-06
-3.40814e-10
-1.34629e-06
-3.36741e-10
-1.34567e-06
-3.1143e-10
-1.34469e-06
-2.83755e-10
-1.34289e-06
-2.30489e-10
-1.33919e-06
-1.59278e-10
-1.33152e-06
-4.99491e-11
-1.31584e-06
5.02421e-11
-1.28456e-06
9.64559e-11
-1.22378e-06
6.42497e-11
-1.10954e-06
-8.37709e-07
-1.06044e-09
-8.47504e-07
-8.1512e-10
-1.11976e-06
-5.08854e-10
-1.23325e-06
-2.64234e-10
-1.29337e-06
-2.00972e-10
-1.32345e-06
-2.36663e-10
-1.33759e-06
-3.09361e-10
-1.34373e-06
-3.56306e-10
-1.346e-06
-3.84121e-10
-1.3465e-06
-3.74299e-10
-1.34626e-06
-3.54888e-10
-1.34567e-06
-3.06656e-10
-1.34471e-06
-2.6314e-10
-1.34291e-06
-1.97922e-10
-1.33922e-06
-1.12806e-10
-1.33157e-06
-2.94278e-12
-1.31591e-06
1.60129e-10
-1.28466e-06
3.3688e-10
-1.22388e-06
4.55093e-10
-1.10961e-06
-8.3726e-07
-1.19754e-09
-8.46259e-07
-1.01281e-09
-1.11992e-06
-7.93842e-10
-1.23342e-06
-6.72261e-10
-1.29346e-06
-6.08719e-10
-1.32348e-06
-5.83491e-10
-1.33759e-06
-5.69204e-10
-1.34372e-06
-5.39124e-10
-1.346e-06
-5.03095e-10
-1.34653e-06
-4.24827e-10
-1.34631e-06
-3.37098e-10
-1.34575e-06
-2.12452e-10
-1.34481e-06
-7.82342e-11
-1.34303e-06
6.47257e-11
-1.33935e-06
2.07433e-10
-1.33169e-06
2.9469e-10
-1.316e-06
3.95056e-10
-1.28474e-06
4.67511e-10
-1.22399e-06
5.62314e-10
-1.10976e-06
-8.36728e-07
-6.61054e-10
-8.45636e-07
-9.34516e-10
-1.11968e-06
-8.36496e-10
-1.23356e-06
-7.78867e-10
-1.29354e-06
-7.40148e-10
-1.32355e-06
-7.02486e-10
-1.33765e-06
-6.54867e-10
-1.34379e-06
-6.05646e-10
-1.34607e-06
-5.38e-10
-1.34662e-06
-4.65639e-10
-1.34642e-06
-3.67857e-10
-1.34587e-06
-2.63959e-10
-1.34495e-06
-1.37482e-10
-1.34318e-06
-1.41116e-11
-1.33952e-06
8.82845e-11
-1.33184e-06
1.57403e-10
-1.31613e-06
1.80931e-10
-1.28487e-06
1.89499e-10
-1.22414e-06
9.65856e-11
-1.10981e-06
-8.36653e-07
-4.28538e-10
-8.45241e-07
-6.72568e-10
-1.11948e-06
-6.80106e-10
-1.23358e-06
-6.65801e-10
-1.2936e-06
-6.15426e-10
-1.32363e-06
-5.65866e-10
-1.33774e-06
-5.1099e-10
-1.34386e-06
-4.78982e-10
-1.34614e-06
-4.3638e-10
-1.34667e-06
-4.1871e-10
-1.34648e-06
-3.80645e-10
-1.34593e-06
-3.69367e-10
-1.345e-06
-3.49542e-10
-1.34322e-06
-3.403e-10
-1.33956e-06
-3.29674e-10
-1.33189e-06
-2.77942e-10
-1.3162e-06
-2.13879e-10
-1.285e-06
-8.84264e-11
-1.22434e-06
8.32803e-11
-1.11005e-06
-8.36564e-07
-1.08537e-10
-8.45151e-07
-2.40628e-10
-1.11938e-06
-2.89511e-10
-1.23356e-06
-2.94787e-10
-1.29361e-06
-2.69969e-10
-1.32367e-06
-2.21297e-10
-1.33779e-06
-2.00631e-10
-1.34389e-06
-1.84889e-10
-1.34615e-06
-1.86638e-10
-1.34667e-06
-1.87176e-10
-1.34647e-06
-1.99056e-10
-1.34591e-06
-2.19206e-10
-1.34497e-06
-2.60347e-10
-1.34318e-06
-3.08823e-10
-1.3395e-06
-3.47984e-10
-1.33183e-06
-3.54923e-10
-1.31616e-06
-3.25575e-10
-1.28499e-06
-1.95438e-10
-1.22443e-06
2.14394e-10
-1.11043e-06
-8.36337e-07
-8.36434e-11
-8.45043e-07
2.93975e-11
-1.11946e-06
6.94501e-11
-1.23358e-06
9.8192e-11
-1.29361e-06
1.01834e-10
-1.32367e-06
1.24161e-10
-1.33778e-06
1.12547e-10
-1.34387e-06
1.18928e-10
-1.34613e-06
1.10942e-10
-1.34665e-06
1.26734e-10
-1.34645e-06
1.28021e-10
-1.3459e-06
1.43779e-10
-1.34496e-06
1.32446e-10
-1.34316e-06
1.23564e-10
-1.33946e-06
7.8404e-11
-1.33176e-06
1.12453e-12
-1.31605e-06
-1.24127e-10
-1.28481e-06
-1.79398e-10
-1.22432e-06
1.01963e-10
-1.11066e-06
-8.36236e-07
-1.76344e-10
-8.44784e-07
-1.53205e-11
-1.11957e-06
5.97478e-11
-1.23358e-06
8.12332e-11
-1.29359e-06
1.04102e-10
-1.32364e-06
1.25716e-10
-1.33777e-06
1.50851e-10
-1.34387e-06
1.78173e-10
-1.34613e-06
2.14721e-10
-1.34667e-06
2.69455e-10
-1.34648e-06
3.22876e-10
-1.34595e-06
3.96691e-10
-1.34501e-06
4.52751e-10
-1.34322e-06
5.01488e-10
-1.33949e-06
4.68253e-10
-1.33173e-06
3.58088e-10
-1.31593e-06
1.32993e-10
-1.28458e-06
-1.287e-10
-1.22406e-06
-2.44399e-10
-1.11056e-06
-8.36491e-07
9.27149e-11
-8.44825e-07
2.25462e-11
-1.11948e-06
2.40796e-11
-1.23354e-06
-3.1309e-11
-1.29352e-06
-5.75117e-11
-1.32358e-06
-5.89945e-11
-1.33776e-06
-8.05184e-12
-1.34389e-06
4.41121e-11
-1.34618e-06
1.20935e-10
-1.34674e-06
1.90616e-10
-1.34656e-06
2.6985e-10
-1.34602e-06
3.36304e-10
-1.34508e-06
3.98082e-10
-1.34327e-06
4.18275e-10
-1.33951e-06
3.88581e-10
-1.3317e-06
2.96198e-10
-1.31584e-06
1.12853e-10
-1.28443e-06
-1.41574e-10
-1.22385e-06
-5.88712e-10
-1.11016e-06
-8.3709e-07
3.7688e-10
-8.45204e-07
2.28331e-10
-1.11936e-06
6.58511e-11
-1.23338e-06
-9.32826e-11
-1.29338e-06
-1.71601e-10
-1.3235e-06
-1.84322e-10
-1.33777e-06
-1.29383e-10
-1.34396e-06
-6.21814e-11
-1.34626e-06
2.81826e-12
-1.34681e-06
5.1379e-11
-1.34661e-06
8.50094e-11
-1.34606e-06
9.51189e-11
-1.34509e-06
9.49604e-11
-1.34326e-06
5.91262e-11
-1.33948e-06
2.19752e-11
-1.33165e-06
-5.943e-11
-1.31576e-06
-1.91177e-10
-1.28431e-06
-3.81217e-10
-1.2237e-06
-6.1653e-10
-1.10997e-06
-8.37707e-07
4.58276e-10
-8.45652e-07
3.62838e-10
-1.11926e-06
2.53517e-10
-1.23327e-06
1.53857e-10
-1.29328e-06
8.26371e-11
-1.32343e-06
4.13328e-11
-1.33773e-06
2.90146e-11
-1.34395e-06
2.46128e-11
-1.34626e-06
1.21915e-12
-1.34679e-06
-3.97369e-11
-1.34657e-06
-1.07726e-10
-1.34599e-06
-1.9642e-10
-1.345e-06
-3.05262e-10
-1.34315e-06
-4.16975e-10
-1.33936e-06
-4.97287e-10
-1.33156e-06
-5.54463e-10
-1.31569e-06
-6.05367e-10
-1.28425e-06
-6.78429e-10
-1.22363e-06
-6.48431e-10
-1.10999e-06
-8.38345e-07
1.49559e-10
-8.45736e-07
4.01043e-10
-1.11944e-06
4.09326e-10
-1.23323e-06
3.58384e-10
-1.29318e-06
3.02424e-10
-1.32334e-06
2.43947e-10
-1.33763e-06
1.76027e-10
-1.34385e-06
9.74944e-11
-1.34615e-06
-4.21325e-12
-1.34666e-06
-1.27758e-10
-1.34642e-06
-2.72721e-10
-1.34582e-06
-4.44984e-10
-1.34482e-06
-6.32257e-10
-1.34295e-06
-8.02623e-10
-1.33918e-06
-9.17111e-10
-1.33143e-06
-9.2683e-10
-1.31565e-06
-8.42655e-10
-1.2843e-06
-7.23732e-10
-1.2237e-06
-4.73157e-10
-1.11019e-06
-8.38807e-07
8.60805e-11
-8.45822e-07
4.5277e-10
-1.11981e-06
3.93057e-10
-1.23316e-06
2.24795e-10
-1.293e-06
9.83814e-11
-1.32321e-06
2.46942e-11
-1.33755e-06
-3.27868e-11
-1.34379e-06
-8.61459e-11
-1.34608e-06
-1.61294e-10
-1.34658e-06
-2.49973e-10
-1.34632e-06
-3.71591e-10
-1.3457e-06
-5.03613e-10
-1.34467e-06
-6.62791e-10
-1.3428e-06
-8.00788e-10
-1.33903e-06
-8.99695e-10
-1.33133e-06
-8.94903e-10
-1.31565e-06
-7.79142e-10
-1.28438e-06
-6.01124e-10
-1.22383e-06
-2.25936e-10
-1.11052e-06
-8.3904e-07
3.94408e-10
-8.46361e-07
5.3335e-10
-1.12006e-06
3.34959e-10
-1.23307e-06
7.88742e-11
-1.29282e-06
-9.56801e-11
-1.32311e-06
-1.71909e-10
-1.33752e-06
-2.22513e-10
-1.34379e-06
-2.50458e-10
-1.34608e-06
-2.98194e-10
-1.34657e-06
-3.41224e-10
-1.3463e-06
-4.16169e-10
-1.34566e-06
-4.80635e-10
-1.34462e-06
-5.76433e-10
-1.34273e-06
-6.54415e-10
-1.33896e-06
-7.45521e-10
-1.33126e-06
-7.60168e-10
-1.31564e-06
-6.8499e-10
-1.28447e-06
-5.16608e-10
-1.22403e-06
-3.12065e-10
-1.11078e-06
-8.39381e-07
5.62466e-10
-8.47044e-07
5.43861e-10
-1.12011e-06
3.69603e-10
-1.23299e-06
2.43333e-10
-1.29274e-06
1.24487e-10
-1.32306e-06
3.11324e-11
-1.33746e-06
-9.34032e-11
-1.34371e-06
-2.059e-10
-1.346e-06
-3.37827e-10
-1.34648e-06
-4.48039e-10
-1.34621e-06
-5.72495e-10
-1.34557e-06
-6.52905e-10
-1.34455e-06
-7.29977e-10
-1.34269e-06
-7.67934e-10
-1.33894e-06
-7.92472e-10
-1.33127e-06
-7.60617e-10
-1.31572e-06
-6.63403e-10
-1.28464e-06
-5.21399e-10
-1.2243e-06
-4.08537e-10
-1.11104e-06
-8.39825e-07
3.01241e-10
-8.47333e-07
4.34187e-10
-1.12022e-06
3.42377e-10
-1.23288e-06
2.75567e-10
-1.29265e-06
1.80939e-10
-1.32295e-06
3.13813e-11
-1.3373e-06
-1.49371e-10
-1.34353e-06
-3.52614e-10
-1.34581e-06
-5.49308e-10
-1.34629e-06
-7.5767e-10
-1.34602e-06
-9.45756e-10
-1.3454e-06
-1.12492e-09
-1.34441e-06
-1.25349e-09
-1.34258e-06
-1.3507e-09
-1.33888e-06
-1.38946e-09
-1.33128e-06
-1.32205e-09
-1.31583e-06
-1.09742e-09
-1.28497e-06
-7.60256e-10
-1.22479e-06
-5.38987e-10
-1.11142e-06
-8.4038e-07
2.06379e-10
-8.47534e-07
1.94272e-10
-1.12023e-06
1.94925e-11
-1.2327e-06
-1.60419e-10
-1.29249e-06
-2.90286e-10
-1.3228e-06
-4.61141e-10
-1.33715e-06
-6.1954e-10
-1.34336e-06
-8.04592e-10
-1.34564e-06
-9.76064e-10
-1.34613e-06
-1.17847e-09
-1.34585e-06
-1.37989e-09
-1.34522e-06
-1.58297e-09
-1.34423e-06
-1.76436e-09
-1.34243e-06
-1.88905e-09
-1.33878e-06
-1.94987e-09
-1.33124e-06
-1.86221e-09
-1.31593e-06
-1.52326e-09
-1.28535e-06
-8.99773e-10
-1.22547e-06
-1.09064e-10
-1.11227e-06
-8.40485e-07
3.66034e-10
-8.48021e-07
-9.29424e-11
-1.11988e-06
-2.59191e-10
-1.23263e-06
-3.73026e-10
-1.29244e-06
-5.38481e-10
-1.32271e-06
-7.11234e-10
-1.33701e-06
-9.05655e-10
-1.34321e-06
-1.07121e-09
-1.34549e-06
-1.24695e-09
-1.34598e-06
-1.39482e-09
-1.3457e-06
-1.56551e-09
-1.34507e-06
-1.70787e-09
-1.34409e-06
-1.85768e-09
-1.34231e-06
-1.92367e-09
-1.3387e-06
-1.94819e-09
-1.33122e-06
-1.85694e-09
-1.316e-06
-1.57527e-09
-1.28561e-06
-9.67541e-10
-1.22604e-06
2.60128e-11
-1.11323e-06
-8.40452e-07
-9.64168e-11
-8.4802e-07
-2.62649e-10
-1.11979e-06
-2.36884e-10
-1.23274e-06
-2.86685e-10
-1.29244e-06
-5.0457e-10
-1.32256e-06
-7.22239e-10
-1.33682e-06
-9.64872e-10
-1.34302e-06
-1.14234e-09
-1.34532e-06
-1.32387e-09
-1.34584e-06
-1.44464e-09
-1.34558e-06
-1.57185e-09
-1.34498e-06
-1.63526e-09
-1.34401e-06
-1.71164e-09
-1.34226e-06
-1.70504e-09
-1.33869e-06
-1.67069e-09
-1.33126e-06
-1.5735e-09
-1.31609e-06
-1.37869e-09
-1.28578e-06
-9.63281e-10
-1.22644e-06
-3.12788e-10
-1.11386e-06
-8.40762e-07
-4.94367e-10
-8.47513e-07
-2.94976e-10
-1.12001e-06
-2.06479e-10
-1.23283e-06
-3.34827e-10
-1.29233e-06
-5.86095e-10
-1.32232e-06
-8.5408e-10
-1.33656e-06
-1.10219e-09
-1.34279e-06
-1.28862e-09
-1.34513e-06
-1.46059e-09
-1.34568e-06
-1.56318e-09
-1.34547e-06
-1.6566e-09
-1.34491e-06
-1.66918e-09
-1.34398e-06
-1.67379e-09
-1.34227e-06
-1.59929e-09
-1.33875e-06
-1.50401e-09
-1.33137e-06
-1.36949e-09
-1.31623e-06
-1.23961e-09
-1.28593e-06
-9.71016e-10
-1.2267e-06
-4.56257e-10
-1.11435e-06
-8.41202e-07
-2.74969e-10
-8.47132e-07
-1.61593e-10
-1.12007e-06
-9.41684e-11