/*--------------------------------*- C++ -*----------------------------------*\
  =========                 |
  \\      /  F ield         | OpenFOAM: The Open Source CFD Toolbox
   \\    /   O peration     | Website:  https://openfoam.org
    \\  /    A nd           | Version:  6
     \\/     M anipulation  |
\*---------------------------------------------------------------------------*/
FoamFile
{
    version     2.0;
    format      ascii;
    class       surfaceScalarField;
    location    "11";
    object      phi;
}
// * * * * * * * * * * * * * * * * * * * * * * * * * * * * * * * * * * * * * //

dimensions      [0 3 -1 0 0 0 0];

internalField   nonuniform List<scalar> 
258600
(
-5.53131e-09
-8.47308e-08
5.2428e-09
-5.80154e-09
-9.41082e-08
-6.03636e-09
-1.03205e-07
-6.24016e-09
-1.11899e-07
-6.41663e-09
-1.20081e-07
-6.56969e-09
-1.27658e-07
-6.70383e-09
-1.34558e-07
-6.82304e-09
-1.40731e-07
-6.93094e-09
-1.46148e-07
-7.03036e-09
-1.50804e-07
-7.1234e-09
-1.54711e-07
-7.21154e-09
-1.57901e-07
-7.29547e-09
-1.60417e-07
-7.37557e-09
-1.62317e-07
-7.45164e-09
-1.63662e-07
-7.52344e-09
-1.6452e-07
-7.59044e-09
-1.64962e-07
-7.65232e-09
-1.65058e-07
-7.70888e-09
-1.64878e-07
-1.64489e-07
-7.75978e-09
-6.38296e-09
-8.45341e-08
6.18706e-09
-6.57582e-09
-9.39147e-08
-6.75591e-09
-1.03024e-07
-6.91812e-09
-1.11736e-07
-7.06224e-09
-1.19936e-07
-7.18988e-09
-1.2753e-07
-7.30407e-09
-1.34444e-07
-7.4075e-09
-1.40627e-07
-7.50315e-09
-1.46053e-07
-7.59295e-09
-1.50714e-07
-7.67884e-09
-1.54625e-07
-7.76158e-09
-1.57818e-07
-7.84188e-09
-1.60337e-07
-7.9195e-09
-1.62239e-07
-7.99439e-09
-1.63587e-07
-8.06582e-09
-1.64449e-07
-8.13338e-09
-1.64895e-07
-8.19637e-09
-1.64995e-07
-8.25445e-09
-1.6482e-07
-1.64437e-07
-8.30729e-09
-7.7506e-09
-8.4421e-08
7.63866e-09
-7.86597e-09
-9.37979e-08
-7.97908e-09
-1.0291e-07
-8.08547e-09
-1.11629e-07
-8.18426e-09
-1.19837e-07
-8.2752e-09
-1.27438e-07
-8.36018e-09
-1.34358e-07
-8.44001e-09
-1.40547e-07
-8.51693e-09
-1.45976e-07
-8.59152e-09
-1.50639e-07
-8.66534e-09
-1.54551e-07
-8.73828e-09
-1.57745e-07
-8.81095e-09
-1.60265e-07
-8.88257e-09
-1.62168e-07
-8.9531e-09
-1.63517e-07
-9.02144e-09
-1.64381e-07
-9.08712e-09
-1.64829e-07
-9.14912e-09
-1.64933e-07
-9.20683e-09
-1.64763e-07
-1.64384e-07
-9.25979e-09
-9.48416e-09
-8.4381e-08
9.4458e-09
-9.52893e-09
-9.37514e-08
-9.57512e-09
-1.02862e-07
-9.62124e-09
-1.11581e-07
-9.66707e-09
-1.1979e-07
-9.71237e-09
-1.27392e-07
-9.75851e-09
-1.34312e-07
-9.80558e-09
-1.40499e-07
-9.85514e-09
-1.45926e-07
-9.9069e-09
-1.50587e-07
-9.96192e-09
-1.54497e-07
-1.00193e-08
-1.57687e-07
-1.00794e-08
-1.60205e-07
-1.01409e-08
-1.62106e-07
-1.02035e-08
-1.63454e-07
-1.02659e-08
-1.64318e-07
-1.03274e-08
-1.64768e-07
-1.03867e-08
-1.64874e-07
-1.04433e-08
-1.64707e-07
-1.64331e-07
-1.04961e-08
-1.14739e-08
-8.44087e-08
1.15033e-08
-1.14505e-08
-9.3773e-08
-1.14314e-08
-1.02879e-07
-1.14172e-08
-1.11594e-07
-1.1408e-08
-1.19798e-07
-1.14042e-08
-1.27394e-07
-1.14068e-08
-1.34309e-07
-1.14157e-08
-1.4049e-07
-1.14322e-08
-1.45909e-07
-1.14554e-08
-1.50563e-07
-1.14858e-08
-1.54466e-07
-1.15222e-08
-1.57651e-07
-1.15646e-08
-1.60163e-07
-1.16112e-08
-1.6206e-07
-1.16616e-08
-1.63405e-07
-1.17139e-08
-1.64266e-07
-1.17675e-08
-1.64715e-07
-1.18207e-08
-1.64822e-07
-1.18727e-08
-1.64655e-07
-1.64282e-07
-1.19222e-08
-1.35787e-08
-8.44822e-08
1.36538e-08
-1.35053e-08
-9.38446e-08
-1.34348e-08
-1.02947e-07
-1.33699e-08
-1.11657e-07
-1.33119e-08
-1.19855e-07
-1.32623e-08
-1.27443e-07
-1.32224e-08
-1.34348e-07
-1.31928e-08
-1.40519e-07
-1.31743e-08
-1.45928e-07
-1.31663e-08
-1.50571e-07
-1.31691e-08
-1.54464e-07
-1.31812e-08
-1.57639e-07
-1.32023e-08
-1.60142e-07
-1.32304e-08
-1.62032e-07
-1.32648e-08
-1.63371e-07
-1.33035e-08
-1.64228e-07
-1.33454e-08
-1.64674e-07
-1.33887e-08
-1.64779e-07
-1.34324e-08
-1.64612e-07
-1.64241e-07
-1.34746e-08
-1.57413e-08
-8.45865e-08
1.58468e-08
-1.56318e-08
-9.39523e-08
-1.55212e-08
-1.03056e-07
-1.54146e-08
-1.11762e-07
-1.53145e-08
-1.19953e-07
-1.52238e-08
-1.27533e-07
-1.51447e-08
-1.34427e-07
-1.50781e-08
-1.40585e-07
-1.50252e-08
-1.45981e-07
-1.49856e-08
-1.50611e-07
-1.49596e-08
-1.5449e-07
-1.49456e-08
-1.57653e-07
-1.49432e-08
-1.60145e-07
-1.49503e-08
-1.62025e-07
-1.4966e-08
-1.63356e-07
-1.49881e-08
-1.64206e-07
-1.50154e-08
-1.64647e-07
-1.50457e-08
-1.64749e-07
-1.5078e-08
-1.64581e-07
-1.64209e-07
-1.51103e-08
-1.79378e-08
-8.47182e-08
1.80715e-08
-1.77967e-08
-9.40915e-08
-1.76519e-08
-1.03198e-07
-1.75096e-08
-1.11903e-07
-1.73731e-08
-1.20088e-07
-1.72462e-08
-1.27659e-07
-1.71316e-08
-1.34541e-07
-1.70308e-08
-1.40685e-07
-1.69454e-08
-1.46066e-07
-1.68752e-08
-1.50681e-07
-1.68206e-08
-1.54545e-07
-1.67802e-08
-1.57694e-07
-1.67535e-08
-1.60173e-07
-1.67384e-08
-1.6204e-07
-1.67339e-08
-1.63361e-07
-1.67376e-08
-1.64203e-07
-1.67482e-08
-1.64637e-07
-1.67635e-08
-1.64734e-07
-1.67823e-08
-1.64563e-07
-1.64189e-07
-1.68023e-08
-2.01386e-08
-8.48695e-08
2.02926e-08
-1.99735e-08
-9.42542e-08
-1.98016e-08
-1.03367e-07
-1.96296e-08
-1.12073e-07
-1.94621e-08
-1.20254e-07
-1.93033e-08
-1.27816e-07
-1.91569e-08
-1.34686e-07
-1.90247e-08
-1.40817e-07
-1.89089e-08
-1.46182e-07
-1.88095e-08
-1.5078e-07
-1.87272e-08
-1.54628e-07
-1.86605e-08
-1.5776e-07
-1.86092e-08
-1.60225e-07
-1.85712e-08
-1.62079e-07
-1.85453e-08
-1.63388e-07
-1.85292e-08
-1.6422e-07
-1.85217e-08
-1.64646e-07
-1.85202e-08
-1.64736e-07
-1.85235e-08
-1.6456e-07
-1.64184e-07
-1.85293e-08
-2.23516e-08
-8.50409e-08
2.25265e-08
-2.21626e-08
-9.44404e-08
-2.19646e-08
-1.03561e-07
-2.1765e-08
-1.1227e-07
-2.15689e-08
-1.20448e-07
-2.13809e-08
-1.28002e-07
-2.12051e-08
-1.34861e-07
-2.10439e-08
-1.40977e-07
-2.08996e-08
-1.46326e-07
-2.07724e-08
-1.50907e-07
-2.06633e-08
-1.54737e-07
-2.05711e-08
-1.57853e-07
-2.04955e-08
-1.60301e-07
-2.04344e-08
-1.6214e-07
-2.03868e-08
-1.63436e-07
-2.03503e-08
-1.64257e-07
-2.03236e-08
-1.64673e-07
-2.03041e-08
-1.64756e-07
-2.02907e-08
-1.64575e-07
-1.64195e-07
-2.02809e-08
-2.45456e-08
-8.5225e-08
2.47336e-08
-2.43403e-08
-9.46424e-08
-2.41228e-08
-1.03775e-07
-2.39008e-08
-1.12489e-07
-2.36805e-08
-1.20666e-07
-2.34669e-08
-1.28214e-07
-2.32648e-08
-1.35062e-07
-2.30769e-08
-1.41164e-07
-2.2906e-08
-1.46497e-07
-2.27526e-08
-1.5106e-07
-2.26179e-08
-1.54873e-07
-2.25008e-08
-1.5797e-07
-2.24012e-08
-1.60401e-07
-2.23169e-08
-1.62225e-07
-2.22473e-08
-1.63506e-07
-2.21898e-08
-1.64315e-07
-2.21431e-08
-1.64721e-07
-2.21048e-08
-1.64795e-07
-2.20736e-08
-1.64607e-07
-1.64222e-07
-2.2047e-08
-2.67541e-08
-8.54268e-08
2.69606e-08
-2.65277e-08
-9.48648e-08
-2.62877e-08
-1.04011e-07
-2.60422e-08
-1.12731e-07
-2.57976e-08
-1.20909e-07
-2.55591e-08
-1.28451e-07
-2.53319e-08
-1.35288e-07
-2.51185e-08
-1.41376e-07
-2.49224e-08
-1.46693e-07
-2.47438e-08
-1.51238e-07
-2.45845e-08
-1.55032e-07
-2.44431e-08
-1.58111e-07
-2.432e-08
-1.60525e-07
-2.42128e-08
-1.62332e-07
-2.41212e-08
-1.63599e-07
-2.40424e-08
-1.64394e-07
-2.39755e-08
-1.64789e-07
-2.39177e-08
-1.64854e-07
-2.38681e-08
-1.64658e-07
-1.64267e-07
-2.38239e-08
-2.8943e-08
-8.56415e-08
2.91636e-08
-2.87008e-08
-9.51027e-08
-2.84431e-08
-1.04265e-07
-2.81779e-08
-1.12993e-07
-2.79122e-08
-1.21172e-07
-2.76514e-08
-1.28709e-07
-2.74011e-08
-1.35537e-07
-2.7164e-08
-1.41612e-07
-2.6944e-08
-1.46913e-07
-2.67413e-08
-1.5144e-07
-2.6558e-08
-1.55216e-07
-2.63928e-08
-1.58276e-07
-2.62464e-08
-1.60672e-07
-2.61164e-08
-1.62463e-07
-2.60026e-08
-1.63713e-07
-2.59023e-08
-1.64495e-07
-2.58146e-08
-1.64877e-07
-2.57368e-08
-1.64932e-07
-2.56681e-08
-1.64728e-07
-1.6433e-07
-2.56056e-08
-3.11343e-08
-8.5871e-08
3.13697e-08
-3.08753e-08
-9.53576e-08
-3.05993e-08
-1.04537e-07
-3.03142e-08
-1.13275e-07
-3.00278e-08
-1.21456e-07
-2.97451e-08
-1.28989e-07
-2.94724e-08
-1.35809e-07
-2.92122e-08
-1.41871e-07
-2.89689e-08
-1.47155e-07
-2.87426e-08
-1.51666e-07
-2.85359e-08
-1.55423e-07
-2.83473e-08
-1.58465e-07
-2.81778e-08
-1.60842e-07
-2.80251e-08
-1.62615e-07
-2.78891e-08
-1.6385e-07
-2.7767e-08
-1.64617e-07
-2.76584e-08
-1.64987e-07
-2.75602e-08
-1.65031e-07
-2.7472e-08
-1.64817e-07
-1.64412e-07
-2.73906e-08
-3.33144e-08
-8.61121e-08
3.35599e-08
-3.30416e-08
-9.56268e-08
-3.27499e-08
-1.04826e-07
-3.24468e-08
-1.13574e-07
-3.21411e-08
-1.21759e-07
-3.18377e-08
-1.2929e-07
-3.15435e-08
-1.36102e-07
-3.12609e-08
-1.42151e-07
-3.09949e-08
-1.47421e-07
-3.07454e-08
-1.51914e-07
-3.05154e-08
-1.55653e-07
-3.03035e-08
-1.58676e-07
-3.0111e-08
-1.61035e-07
-2.99353e-08
-1.62791e-07
-2.9777e-08
-1.64009e-07
-2.96329e-08
-1.64761e-07
-2.95028e-08
-1.65118e-07
-2.93838e-08
-1.6515e-07
-2.92754e-08
-1.64926e-07
-1.64513e-07
-2.91746e-08
-3.5496e-08
-8.63671e-08
3.5755e-08
-3.52079e-08
-9.59118e-08
-3.48996e-08
-1.05131e-07
-3.45785e-08
-1.13892e-07
-3.42536e-08
-1.22082e-07
-3.39296e-08
-1.29611e-07
-3.36142e-08
-1.36416e-07
-3.33095e-08
-1.42454e-07
-3.30209e-08
-1.47709e-07
-3.27484e-08
-1.52185e-07
-3.24953e-08
-1.55906e-07
-3.22601e-08
-1.58911e-07
-3.20444e-08
-1.61251e-07
-3.18458e-08
-1.62989e-07
-3.16649e-08
-1.64191e-07
-3.14985e-08
-1.64928e-07
-3.13468e-08
-1.6527e-07
-3.12065e-08
-1.6529e-07
-3.10776e-08
-1.65056e-07
-1.64634e-07
-3.09567e-08
-3.76804e-08
-8.66354e-08
3.79528e-08
-3.73761e-08
-9.62127e-08
-3.70506e-08
-1.05454e-07
-3.67106e-08
-1.14229e-07
-3.63661e-08
-1.22424e-07
-3.60213e-08
-1.29953e-07
-3.56845e-08
-1.36751e-07
-3.53575e-08
-1.42779e-07
-3.50462e-08
-1.4802e-07
-3.47504e-08
-1.5248e-07
-3.4474e-08
-1.56182e-07
-3.42152e-08
-1.59169e-07
-3.39762e-08
-1.61491e-07
-3.37542e-08
-1.63211e-07
-3.35502e-08
-1.64396e-07
-3.33611e-08
-1.65117e-07
-3.31871e-08
-1.65445e-07
-3.3025e-08
-1.65453e-07
-3.28749e-08
-1.65208e-07
-1.64776e-07
-3.27335e-08
-3.9863e-08
-8.69179e-08
4.01511e-08
-3.95426e-08
-9.65294e-08
-3.91999e-08
-1.05795e-07
-3.88414e-08
-1.14584e-07
-3.84774e-08
-1.22786e-07
-3.8112e-08
-1.30315e-07
-3.77536e-08
-1.37108e-07
-3.74042e-08
-1.43126e-07
-3.707e-08
-1.48353e-07
-3.67508e-08
-1.52797e-07
-3.64508e-08
-1.56482e-07
-3.61682e-08
-1.5945e-07
-3.59053e-08
-1.61754e-07
-3.56596e-08
-1.63456e-07
-3.54322e-08
-1.64624e-07
-3.52199e-08
-1.65329e-07
-3.50231e-08
-1.65643e-07
-3.48386e-08
-1.65637e-07
-3.46667e-08
-1.65381e-07
-1.64939e-07
-3.4504e-08
-4.2051e-08
-8.7215e-08
4.23529e-08
-4.1714e-08
-9.68631e-08
-4.13532e-08
-1.06154e-07
-4.09748e-08
-1.14959e-07
-4.05902e-08
-1.23169e-07
-4.0203e-08
-1.30699e-07
-3.98223e-08
-1.37488e-07
-3.94497e-08
-1.43496e-07
-3.9092e-08
-1.4871e-07
-3.87488e-08
-1.53139e-07
-3.84245e-08
-1.56806e-07
-3.81175e-08
-1.59756e-07
-3.78303e-08
-1.62041e-07
-3.75602e-08
-1.63725e-07
-3.73087e-08
-1.64876e-07
-3.70724e-08
-1.65565e-07
-3.68522e-08
-1.65864e-07
-3.66446e-08
-1.65845e-07
-3.64502e-08
-1.65576e-07
-1.65124e-07
-3.62655e-08
-4.4236e-08
-8.7526e-08
4.45513e-08
-4.38831e-08
-9.72126e-08
-4.35048e-08
-1.0653e-07
-4.31069e-08
-1.15353e-07
-4.27016e-08
-1.23573e-07
-4.22924e-08
-1.31105e-07
-4.1889e-08
-1.3789e-07
-4.14928e-08
-1.43889e-07
-4.11111e-08
-1.49091e-07
-4.07433e-08
-1.53504e-07
-4.03943e-08
-1.57155e-07
-4.00623e-08
-1.60087e-07
-3.97501e-08
-1.62354e-07
-3.94551e-08
-1.64019e-07
-3.91788e-08
-1.65153e-07
-3.8918e-08
-1.65825e-07
-3.86736e-08
-1.66109e-07
-3.84423e-08
-1.66076e-07
-3.82246e-08
-1.65795e-07
-1.65331e-07
-3.80172e-08
-4.64291e-08
-8.78529e-08
4.67604e-08
-4.60579e-08
-9.758e-08
-4.56599e-08
-1.06926e-07
-4.52409e-08
-1.15768e-07
-4.48135e-08
-1.23998e-07
-4.43812e-08
-1.31534e-07
-4.39542e-08
-1.38315e-07
-4.35337e-08
-1.44307e-07
-4.31271e-08
-1.49497e-07
-4.2734e-08
-1.53895e-07
-4.23595e-08
-1.5753e-07
-4.20017e-08
-1.60443e-07
-4.16638e-08
-1.62692e-07
-4.13429e-08
-1.6434e-07
-4.1041e-08
-1.65455e-07
-4.07549e-08
-1.66111e-07
-4.04855e-08
-1.66379e-07
-4.02295e-08
-1.66332e-07
-3.99878e-08
-1.66038e-07
-1.65562e-07
-3.97569e-08
-4.86219e-08
-8.8196e-08
4.89707e-08
-4.82323e-08
-9.79655e-08
-4.78145e-08
-1.07342e-07
-4.73743e-08
-1.16204e-07
-4.69246e-08
-1.24446e-07
-4.64688e-08
-1.31986e-07
-4.60175e-08
-1.38765e-07
-4.55718e-08
-1.4475e-07
-4.51396e-08
-1.49929e-07
-4.47203e-08
-1.54312e-07
-4.43194e-08
-1.5793e-07
-4.3935e-08
-1.60826e-07
-4.35704e-08
-1.63057e-07
-4.32229e-08
-1.64686e-07
-4.28945e-08
-1.65784e-07
-4.25821e-08
-1.66423e-07
-4.22868e-08
-1.66676e-07
-4.20054e-08
-1.66614e-07
-4.17387e-08
-1.66306e-07
-1.65818e-07
-4.14834e-08
-5.08207e-08
-8.8556e-08
5.11864e-08
-5.0412e-08
-9.83701e-08
-4.99733e-08
-1.07779e-07
-4.95106e-08
-1.16663e-07
-4.90371e-08
-1.24918e-07
-4.85566e-08
-1.32463e-07
-4.80797e-08
-1.39241e-07
-4.76077e-08
-1.45219e-07
-4.71487e-08
-1.50387e-07
-4.67021e-08
-1.54757e-07
-4.62736e-08
-1.58359e-07
-4.58615e-08
-1.61237e-07
-4.54691e-08
-1.6345e-07
-4.50939e-08
-1.65061e-07
-4.47379e-08
-1.66141e-07
-4.43982e-08
-1.66762e-07
-4.4076e-08
-1.66999e-07
-4.3768e-08
-1.66922e-07
-4.34753e-08
-1.666e-07
-1.66099e-07
-4.31946e-08
-5.30213e-08
-8.89329e-08
5.3404e-08
-5.25934e-08
-9.87938e-08
-5.21336e-08
-1.08237e-07
-5.16479e-08
-1.17144e-07
-5.11501e-08
-1.25414e-07
-5.06438e-08
-1.32965e-07
-5.01402e-08
-1.39743e-07
-4.96408e-08
-1.45715e-07
-4.91538e-08
-1.50873e-07
-4.86787e-08
-1.5523e-07
-4.82215e-08
-1.58816e-07
-4.77803e-08
-1.61677e-07
-4.7359e-08
-1.63871e-07
-4.69548e-08
-1.65464e-07
-4.65701e-08
-1.66526e-07
-4.62018e-08
-1.6713e-07
-4.58515e-08
-1.6735e-07
-4.55159e-08
-1.67258e-07
-4.5196e-08
-1.66921e-07
-1.66407e-07
-4.48887e-08
-5.52286e-08
-8.93278e-08
5.56293e-08
-5.47801e-08
-9.9238e-08
-5.42977e-08
-1.08717e-07
-5.37877e-08
-1.1765e-07
-5.32641e-08
-1.25935e-07
-5.27309e-08
-1.33494e-07
-5.21994e-08
-1.40272e-07
-5.16713e-08
-1.4624e-07
-5.11549e-08
-1.51389e-07
-5.06501e-08
-1.55732e-07
-5.01627e-08
-1.59303e-07
-4.96911e-08
-1.62147e-07
-4.92394e-08
-1.64323e-07
-4.88048e-08
-1.65898e-07
-4.839e-08
-1.66942e-07
-4.79919e-08
-1.67528e-07
-4.76121e-08
-1.67731e-07
-4.72474e-08
-1.67622e-07
-4.68991e-08
-1.67271e-07
-1.66742e-07
-4.6564e-08
-5.74422e-08
-8.97429e-08
5.78633e-08
-5.69715e-08
-9.97043e-08
-5.64651e-08
-1.09221e-07
-5.59296e-08
-1.18181e-07
-5.53791e-08
-1.26484e-07
-5.48176e-08
-1.34051e-07
-5.42569e-08
-1.40832e-07
-5.36986e-08
-1.46795e-07
-5.31514e-08
-1.51935e-07
-5.26153e-08
-1.56266e-07
-5.20963e-08
-1.59822e-07
-5.15929e-08
-1.62649e-07
-5.11092e-08
-1.64807e-07
-5.06428e-08
-1.66363e-07
-5.01962e-08
-1.67389e-07
-4.97667e-08
-1.67957e-07
-4.93558e-08
-1.68143e-07
-4.89606e-08
-1.68018e-07
-4.85824e-08
-1.67651e-07
-1.67107e-07
-4.82181e-08
-5.96585e-08
-9.0177e-08
6.00983e-08
-5.91661e-08
-1.00193e-07
-5.86354e-08
-1.0975e-07
-5.80735e-08
-1.18739e-07
-5.74948e-08
-1.2706e-07
-5.69038e-08
-1.34639e-07
-5.63123e-08
-1.41422e-07
-5.57224e-08
-1.47382e-07
-5.51429e-08
-1.52514e-07
-5.45739e-08
-1.56833e-07
-5.40216e-08
-1.60374e-07
-5.34847e-08
-1.63185e-07
-5.29675e-08
-1.65325e-07
-5.24675e-08
-1.66863e-07
-5.19876e-08
-1.6787e-07
-5.1525e-08
-1.6842e-07
-5.10815e-08
-1.68588e-07
-5.06542e-08
-1.68445e-07
-5.02446e-08
-1.68062e-07
-1.67503e-07
-4.98496e-08
-6.18835e-08
-9.06326e-08
6.23447e-08
-6.13672e-08
-1.00705e-07
-6.08105e-08
-1.10305e-07
-6.02205e-08
-1.19325e-07
-5.96119e-08
-1.27667e-07
-5.89897e-08
-1.35257e-07
-5.83657e-08
-1.42044e-07
-5.77424e-08
-1.48002e-07
-5.71287e-08
-1.53127e-07
-5.6525e-08
-1.57435e-07
-5.59376e-08
-1.60961e-07
-5.53654e-08
-1.63755e-07
-5.48127e-08
-1.65878e-07
-5.42773e-08
-1.67397e-07
-5.37623e-08
-1.68386e-07
-5.32649e-08
-1.68917e-07
-5.27871e-08
-1.69067e-07
-5.23261e-08
-1.68907e-07
-5.18835e-08
-1.68507e-07
-1.67931e-07
-5.14562e-08
-6.41111e-08
-9.11087e-08
6.45928e-08
-6.35712e-08
-1.01241e-07
-6.29878e-08
-1.10887e-07
-6.23688e-08
-1.1994e-07
-6.17292e-08
-1.28305e-07
-6.10743e-08
-1.35908e-07
-6.04162e-08
-1.42701e-07
-5.97577e-08
-1.48658e-07
-5.91081e-08
-1.53776e-07
-5.84678e-08
-1.58073e-07
-5.78434e-08
-1.61586e-07
-5.7234e-08
-1.64364e-07
-5.66439e-08
-1.66469e-07
-5.60714e-08
-1.67969e-07
-5.55194e-08
-1.68939e-07
-5.49854e-08
-1.69451e-07
-5.44714e-08
-1.69582e-07
-5.3975e-08
-1.69404e-07
-5.34975e-08
-1.68986e-07
-1.68393e-07
-5.30364e-08
-6.63518e-08
-9.16095e-08
6.68579e-08
-6.57848e-08
-1.01804e-07
-6.51718e-08
-1.11498e-07
-6.45213e-08
-1.20587e-07
-6.38483e-08
-1.28976e-07
-6.31585e-08
-1.36595e-07
-6.24642e-08
-1.43394e-07
-6.17685e-08
-1.49351e-07
-6.10807e-08
-1.54463e-07
-6.04018e-08
-1.5875e-07
-5.97382e-08
-1.62249e-07
-5.90895e-08
-1.65012e-07
-5.846e-08
-1.67099e-07
-5.78482e-08
-1.68581e-07
-5.72571e-08
-1.69531e-07
-5.66844e-08
-1.70024e-07
-5.61324e-08
-1.70136e-07
-5.55985e-08
-1.69938e-07
-5.50843e-08
-1.69502e-07
-1.68891e-07
-5.45873e-08
-6.85947e-08
-9.21328e-08
6.91233e-08
-6.80013e-08
-1.02394e-07
-6.73586e-08
-1.12139e-07
-6.66757e-08
-1.21266e-07
-6.59679e-08
-1.29682e-07
-6.52415e-08
-1.37318e-07
-6.45091e-08
-1.44126e-07
-6.37741e-08
-1.50083e-07
-6.3046e-08
-1.55191e-07
-6.23262e-08
-1.59468e-07
-6.16212e-08
-1.62955e-07
-6.09309e-08
-1.65701e-07
-6.02598e-08
-1.67771e-07
-5.96064e-08
-1.69234e-07
-5.8974e-08
-1.70164e-07
-5.83605e-08
-1.70638e-07
-5.77681e-08
-1.7073e-07
-5.71946e-08
-1.70513e-07
-5.66417e-08
-1.70057e-07
-1.69426e-07
-5.6107e-08
-7.0852e-08
-9.26834e-08
7.14077e-08
-7.02285e-08
-1.03014e-07
-6.95529e-08
-1.12813e-07
-6.88348e-08
-1.21981e-07
-6.80896e-08
-1.30426e-07
-6.73242e-08
-1.3808e-07
-6.65512e-08
-1.44898e-07
-6.57745e-08
-1.50858e-07
-6.50037e-08
-1.55961e-07
-6.42404e-08
-1.6023e-07
-6.34916e-08
-1.63704e-07
-6.27572e-08
-1.66435e-07
-6.20419e-08
-1.68487e-07
-6.13446e-08
-1.69931e-07
-6.06685e-08
-1.70842e-07
-6.00117e-08
-1.71295e-07
-5.93767e-08
-1.71366e-07
-5.87613e-08
-1.71129e-07
-5.81674e-08
-1.70653e-07
-1.70002e-07
-5.75928e-08
-7.31135e-08
-9.32593e-08
7.36944e-08
-7.24603e-08
-1.03663e-07
-7.17511e-08
-1.1352e-07
-7.09965e-08
-1.22732e-07
-7.02122e-08
-1.31209e-07
-6.94057e-08
-1.38884e-07
-6.85897e-08
-1.45713e-07
-6.77688e-08
-1.51677e-07
-6.69527e-08
-1.56777e-07
-6.61435e-08
-1.61038e-07
-6.53482e-08
-1.645e-07
-6.45671e-08
-1.67215e-07
-6.3805e-08
-1.6925e-07
-6.30611e-08
-1.70675e-07
-6.23386e-08
-1.71566e-07
-6.16361e-08
-1.71998e-07
-6.09558e-08
-1.72048e-07
-6.02962e-08
-1.7179e-07
-5.96589e-08
-1.71292e-07
-1.7062e-07
-5.90421e-08
-7.53901e-08
-9.38656e-08
7.6001e-08
-7.47033e-08
-1.04347e-07
-7.39573e-08
-1.14264e-07
-7.31631e-08
-1.23523e-07
-7.23369e-08
-1.32034e-07
-7.14864e-08
-1.39731e-07
-7.06248e-08
-1.46574e-07
-6.97569e-08
-1.52543e-07
-6.88927e-08
-1.57642e-07
-6.80348e-08
-1.61895e-07
-6.71901e-08
-1.65345e-07
-6.63594e-08
-1.68046e-07
-6.55477e-08
-1.70063e-07
-6.47544e-08
-1.71469e-07
-6.39827e-08
-1.72339e-07
-6.32317e-08
-1.7275e-07
-6.25036e-08
-1.72778e-07
-6.1797e-08
-1.72498e-07
-6.11137e-08
-1.71978e-07
-1.71284e-07
-6.04523e-08
-7.76722e-08
-9.45006e-08
7.83119e-08
-7.69519e-08
-1.05064e-07
-7.61681e-08
-1.15046e-07
-7.53328e-08
-1.24356e-07
-7.44625e-08
-1.32903e-07
-7.35657e-08
-1.40626e-07
-7.26557e-08
-1.47483e-07
-7.17381e-08
-1.53459e-07
-7.08229e-08
-1.58557e-07
-6.99131e-08
-1.62804e-07
-6.9016e-08
-1.66243e-07
-6.81327e-08
-1.68929e-07
-6.72683e-08
-1.70929e-07
-6.64224e-08
-1.72315e-07
-6.55987e-08
-1.73164e-07
-6.47961e-08
-1.73553e-07
-6.40172e-08
-1.73559e-07
-6.32609e-08
-1.73256e-07
-6.25289e-08
-1.72712e-07
-1.71994e-07
-6.18201e-08
-7.99707e-08
-9.51696e-08
8.06439e-08
-7.92127e-08
-1.05819e-07
-7.83875e-08
-1.1587e-07
-7.75079e-08
-1.25232e-07
-7.65902e-08
-1.33819e-07
-7.5644e-08
-1.4157e-07
-7.46825e-08
-1.48444e-07
-7.3712e-08
-1.54428e-07
-7.27425e-08
-1.59527e-07
-7.17777e-08
-1.63769e-07
-7.08249e-08
-1.67197e-07
-6.98857e-08
-1.69869e-07
-6.89652e-08
-1.71851e-07
-6.80636e-08
-1.73218e-07
-6.71844e-08
-1.74045e-07
-6.63272e-08
-1.74412e-07
-6.54943e-08
-1.74394e-07
-6.46852e-08
-1.74066e-07
-6.39015e-08
-1.73499e-07
-1.72756e-07
-6.31425e-08
-8.22757e-08
-9.5871e-08
8.29814e-08
-8.14799e-08
-1.06612e-07
-8.06121e-08
-1.16736e-07
-7.9686e-08
-1.26156e-07
-7.87187e-08
-1.34786e-07
-7.77202e-08
-1.42566e-07
-7.67041e-08
-1.4946e-07
-7.56775e-08
-1.55454e-07
-7.46504e-08
-1.60555e-07
-7.36272e-08
-1.64792e-07
-7.26152e-08
-1.6821e-07
-7.16165e-08
-1.70868e-07
-7.06363e-08
-1.72833e-07
-6.96754e-08
-1.7418e-07
-6.87372e-08
-1.74986e-07
-6.78218e-08
-1.75329e-07
-6.69316e-08
-1.75287e-07
-6.60664e-08
-1.74934e-07
-6.52278e-08
-1.7434e-07
-1.7357e-07
-6.44155e-08
-8.45985e-08
-9.66107e-08
8.53421e-08
-8.37602e-08
-1.07448e-07
-8.28457e-08
-1.17649e-07
-8.18695e-08
-1.2713e-07
-8.08488e-08
-1.35806e-07
-7.97944e-08
-1.43619e-07
-7.87203e-08
-1.50534e-07
-7.76338e-08
-1.56539e-07
-7.65454e-08
-1.61644e-07
-7.546e-08
-1.65878e-07
-7.4385e-08
-1.69287e-07
-7.33231e-08
-1.71931e-07
-7.22796e-08
-1.73879e-07
-7.12556e-08
-1.75205e-07
-7.02548e-08
-1.75989e-07
-6.92777e-08
-1.76308e-07
-6.83266e-08
-1.7624e-07
-6.74019e-08
-1.75861e-07
-6.6505e-08
-1.7524e-07
-1.74442e-07
-6.56361e-08
-8.6929e-08
-9.73873e-08
8.77097e-08
-8.60477e-08
-1.08327e-07
-8.50848e-08
-1.18611e-07
-8.40561e-08
-1.28156e-07
-8.29791e-08
-1.36882e-07
-8.18656e-08
-1.44731e-07
-8.07297e-08
-1.5167e-07
-7.95796e-08
-1.57689e-07
-7.84261e-08
-1.62798e-07
-7.72745e-08
-1.6703e-07
-7.61325e-08
-1.7043e-07
-7.50033e-08
-1.73061e-07
-7.38924e-08
-1.74992e-07
-7.28014e-08
-1.76298e-07
-7.17341e-08
-1.77058e-07
-7.06913e-08
-1.77353e-07
-6.96755e-08
-1.77259e-07
-6.86875e-08
-1.76852e-07
-6.77287e-08
-1.76201e-07
-1.75374e-07
-6.67999e-08
-8.92793e-08
-9.82073e-08
9.01026e-08
-8.83498e-08
-1.09254e-07
-8.7334e-08
-1.19625e-07
-8.62485e-08
-1.2924e-07
-8.51111e-08
-1.38019e-07
-8.39342e-08
-1.45907e-07
-8.27324e-08
-1.52873e-07
-8.15145e-08
-1.58907e-07
-8.02915e-08
-1.64023e-07
-7.90694e-08
-1.68253e-07
-7.78561e-08
-1.71646e-07
-7.66554e-08
-1.74263e-07
-7.54727e-08
-1.76177e-07
-7.43105e-08
-1.77462e-07
-7.31723e-08
-1.78199e-07
-7.20597e-08
-1.78468e-07
-7.09752e-08
-1.78346e-07
-6.992e-08
-1.7791e-07
-6.88955e-08
-1.77229e-07
-1.76369e-07
-6.79029e-08
-9.16389e-08
-9.90693e-08
9.25045e-08
-9.06606e-08
-1.10231e-07
-8.959e-08
-1.20695e-07
-8.84448e-08
-1.30384e-07
-8.72435e-08
-1.3922e-07
-8.59995e-08
-1.4715e-07
-8.47276e-08
-1.54145e-07
-8.34376e-08
-1.60197e-07
-8.21406e-08
-1.65321e-07
-8.08435e-08
-1.69551e-07
-7.9554e-08
-1.72937e-07
-7.8277e-08
-1.75542e-07
-7.70179e-08
-1.77438e-07
-7.57797e-08
-1.78703e-07
-7.4566e-08
-1.79415e-07
-7.33791e-08
-1.79657e-07
-7.22213e-08
-1.79507e-07
-7.10946e-08
-1.7904e-07
-7.00001e-08
-1.78327e-07
-1.77433e-07
-6.89398e-08
-9.40214e-08
-9.99805e-08
9.49355e-08
-9.29883e-08
-1.11262e-07
-9.18578e-08
-1.21824e-07
-9.06481e-08
-1.31592e-07
-8.93782e-08
-1.4049e-07
-8.80623e-08
-1.48466e-07
-8.67156e-08
-1.55492e-07
-8.53485e-08
-1.61565e-07
-8.39726e-08
-1.66699e-07
-8.25953e-08
-1.7093e-07
-8.12248e-08
-1.7431e-07
-7.98664e-08
-1.76903e-07
-7.85257e-08
-1.78782e-07
-7.72064e-08
-1.80024e-07
-7.59122e-08
-1.80712e-07
-7.4646e-08
-1.80926e-07
-7.34101e-08
-1.80746e-07
-7.22071e-08
-1.80246e-07
-7.1038e-08
-1.79499e-07
-1.7857e-07
-6.99054e-08
-9.64159e-08
-1.0094e-07
9.73781e-08
-9.53272e-08
-1.12349e-07
-9.41342e-08
-1.23016e-07
-9.28567e-08
-1.32869e-07
-9.15142e-08
-1.41832e-07
-9.01218e-08
-1.49858e-07
-8.86953e-08
-1.5692e-07
-8.72461e-08
-1.63015e-07
-8.5786e-08
-1.68161e-07
-8.43231e-08
-1.72394e-07
-8.2866e-08
-1.75769e-07
-8.14206e-08
-1.78351e-07
-7.99927e-08
-1.80212e-07
-7.85868e-08
-1.81433e-07
-7.72066e-08
-1.82096e-07
-7.58557e-08
-1.82281e-07
-7.45364e-08
-1.82068e-07
-7.32519e-08
-1.81535e-07
-7.20032e-08
-1.80751e-07
-1.79783e-07
-7.07937e-08
-9.88369e-08
-1.01954e-07
9.98542e-08
-9.76861e-08
-1.13499e-07
-9.64249e-08
-1.24277e-07
-9.50739e-08
-1.34219e-07
-9.36531e-08
-1.43253e-07
-9.21787e-08
-1.51332e-07
-9.06669e-08
-1.58433e-07
-8.91297e-08
-1.64553e-07
-8.75794e-08
-1.69713e-07
-8.6025e-08
-1.73951e-07
-8.44753e-08
-1.77322e-07
-8.29369e-08
-1.79892e-07
-8.14159e-08
-1.81736e-07
-7.99175e-08
-1.82935e-07
-7.84453e-08
-1.83571e-07
-7.70039e-08
-1.83726e-07
-7.55955e-08
-1.8348e-07
-7.4224e-08
-1.8291e-07
-7.28904e-08
-1.82088e-07
-1.8108e-07
-7.15987e-08
-1.01273e-07
-1.03024e-07
1.02345e-07
-1.00058e-07
-1.14712e-07
-9.87257e-08
-1.25609e-07
-9.72971e-08
-1.35647e-07
-9.57933e-08
-1.44757e-07
-9.42316e-08
-1.52895e-07
-9.26285e-08
-1.60037e-07
-9.09974e-08
-1.66186e-07
-8.93507e-08
-1.71362e-07
-8.76985e-08
-1.75606e-07
-8.60496e-08
-1.78973e-07
-8.44119e-08
-1.81533e-07
-8.27912e-08
-1.8336e-07
-8.11937e-08
-1.84536e-07
-7.96233e-08
-1.85145e-07
-7.8085e-08
-1.85268e-07
-7.65813e-08
-1.84987e-07
-7.5117e-08
-1.84379e-07
-7.36927e-08
-1.83516e-07
-1.82464e-07
-7.23134e-08
-1.03737e-07
-1.04157e-07
1.04872e-07
-1.02452e-07
-1.15997e-07
-1.01042e-07
-1.27019e-07
-9.95294e-08
-1.3716e-07
-9.79363e-08
-1.46351e-07
-9.62807e-08
-1.54551e-07
-9.458e-08
-1.6174e-07
-9.28481e-08
-1.6792e-07
-9.10983e-08
-1.73114e-07
-8.93412e-08
-1.77366e-07
-8.75863e-08
-1.80731e-07
-8.5842e-08
-1.83281e-07
-8.41147e-08
-1.85091e-07
-8.24112e-08
-1.86244e-07
-8.07357e-08
-1.86824e-07
-7.9094e-08
-1.86914e-07
-7.74885e-08
-1.86596e-07
-7.59249e-08
-1.85948e-07
-7.44037e-08
-1.85041e-07
-1.83942e-07
-7.29309e-08
-1.0622e-07
-1.05353e-07
1.07419e-07
-1.04862e-07
-1.17355e-07
-1.0337e-07
-1.28511e-07
-1.01769e-07
-1.38762e-07
-1.00081e-07
-1.4804e-07
-9.83247e-08
-1.56308e-07
-9.65196e-08
-1.63547e-07
-9.468e-08
-1.69761e-07
-9.28197e-08
-1.74977e-07
-9.09503e-08
-1.79238e-07
-8.90818e-08
-1.82603e-07
-8.72234e-08
-1.85143e-07
-8.53819e-08
-1.86936e-07
-8.35649e-08
-1.88065e-07
-8.17768e-08
-1.88616e-07
-8.00242e-08
-1.88672e-07
-7.83098e-08
-1.88315e-07
-7.664e-08
-1.87623e-07
-7.50153e-08
-1.8667e-07
-1.85521e-07
-7.34425e-08
-1.08736e-07
-1.06621e-07
1.10005e-07
-1.07297e-07
-1.18794e-07
-1.05716e-07
-1.30092e-07
-1.04018e-07
-1.4046e-07
-1.02228e-07
-1.49832e-07
-1.00364e-07
-1.58173e-07
-9.84469e-08
-1.65466e-07
-9.64917e-08
-1.71719e-07
-9.45129e-08
-1.76959e-07
-9.25232e-08
-1.81232e-07
-9.05329e-08
-1.84597e-07
-8.85522e-08
-1.87128e-07
-8.65883e-08
-1.88904e-07
-8.46496e-08
-1.90009e-07
-8.27409e-08
-1.90528e-07
-8.08697e-08
-1.90548e-07
-7.90386e-08
-1.9015e-07
-7.72551e-08
-1.89413e-07
-7.55196e-08
-1.8841e-07
-1.87207e-07
-7.384e-08
-1.11275e-07
-1.07962e-07
1.12617e-07
-1.09751e-07
-1.20318e-07
-1.08076e-07
-1.31768e-07
-1.06277e-07
-1.42261e-07
-1.04377e-07
-1.51734e-07
-1.02398e-07
-1.60153e-07
-1.00361e-07
-1.67506e-07
-9.82814e-08
-1.73801e-07
-9.61756e-08
-1.79068e-07
-9.40567e-08
-1.83354e-07
-9.19357e-08
-1.86722e-07
-8.98238e-08
-1.89245e-07
-8.77285e-08
-1.91003e-07
-8.56593e-08
-1.92083e-07
-8.36212e-08
-1.92571e-07
-8.16226e-08
-1.92552e-07
-7.96666e-08
-1.9211e-07
-7.77612e-08
-1.91324e-07
-7.59071e-08
-1.90268e-07
-1.89007e-07
-7.41131e-08
-1.1385e-07
-1.09385e-07
1.15273e-07
-1.12234e-07
-1.21935e-07
-1.10457e-07
-1.33546e-07
-1.08546e-07
-1.44172e-07
-1.06529e-07
-1.53753e-07
-1.04426e-07
-1.62258e-07
-1.0226e-07
-1.69676e-07
-1.00048e-07
-1.76017e-07
-9.78053e-08
-1.81314e-07
-9.55476e-08
-1.85617e-07
-9.32863e-08
-1.88988e-07
-9.10334e-08
-1.91503e-07
-8.8797e-08
-1.93244e-07
-8.65877e-08
-1.94298e-07
-8.44107e-08
-1.94752e-07
-8.22756e-08
-1.94694e-07
-8.01854e-08
-1.94205e-07
-7.81494e-08
-1.93367e-07
-7.61682e-08
-1.92254e-07
-1.90931e-07
-7.42517e-08
-1.16454e-07
-1.10893e-07
1.17962e-07
-1.14741e-07
-1.23649e-07
-1.12856e-07
-1.35433e-07
-1.10828e-07
-1.46202e-07
-1.08684e-07
-1.559e-07
-1.06448e-07
-1.64496e-07
-1.04144e-07
-1.71984e-07
-1.01788e-07
-1.78376e-07
-9.93991e-08
-1.83707e-07
-9.69922e-08
-1.88028e-07
-9.45799e-08
-1.91405e-07
-9.21754e-08
-1.93913e-07
-8.97874e-08
-1.95637e-07
-8.74274e-08
-1.96665e-07
-8.51012e-08
-1.97084e-07
-8.28193e-08
-1.96982e-07
-8.0585e-08
-1.96444e-07
-7.84089e-08
-1.95551e-07
-7.62913e-08
-1.94376e-07
-1.92987e-07
-7.42435e-08
-1.191e-07
-1.12494e-07
1.20701e-07
-1.17281e-07
-1.2547e-07
-1.15278e-07
-1.37438e-07
-1.13122e-07
-1.4836e-07
-1.10843e-07
-1.58182e-07
-1.08464e-07
-1.66878e-07
-1.0601e-07
-1.74442e-07
-1.03501e-07
-1.8089e-07
-1.00954e-07
-1.86259e-07
-9.83864e-08
-1.90601e-07
-9.58117e-08
-1.93984e-07
-9.32441e-08
-1.96487e-07
-9.06929e-08
-1.98194e-07
-8.81708e-08
-1.99194e-07
-8.56841e-08
-1.99576e-07
-8.32443e-08
-1.99429e-07
-8.08553e-08
-1.98839e-07
-7.85285e-08
-1.97886e-07
-7.62646e-08
-1.96645e-07
-1.95184e-07
-7.40759e-08
-1.21782e-07
-1.14193e-07
1.2348e-07
-1.1985e-07
-1.27404e-07
-1.17722e-07
-1.39569e-07
-1.1543e-07
-1.50655e-07
-1.13005e-07
-1.60611e-07
-1.10472e-07
-1.69414e-07
-1.07858e-07
-1.7706e-07
-1.05182e-07
-1.8357e-07
-1.02466e-07
-1.88981e-07
-9.97253e-08
-1.93347e-07
-9.69757e-08
-1.9674e-07
-9.42324e-08
-1.99237e-07
-9.15055e-08
-2.00927e-07
-8.88088e-08
-2.01898e-07
-8.61493e-08
-2.02241e-07
-8.35396e-08
-2.02047e-07
-8.09841e-08
-2.014e-07
-7.84953e-08
-2.00383e-07
-7.60741e-08
-1.99072e-07
-1.97533e-07
-7.37342e-08
-1.24511e-07
-1.16e-07
1.26316e-07
-1.22456e-07
-1.29461e-07
-1.20193e-07
-1.41837e-07
-1.17753e-07
-1.53098e-07
-1.1517e-07
-1.63198e-07
-1.12472e-07
-1.72116e-07
-1.09685e-07
-1.79853e-07
-1.06831e-07
-1.86429e-07
-1.03931e-07
-1.91886e-07
-1.01004e-07
-1.9628e-07
-9.80659e-08
-1.99684e-07
-9.51331e-08
-2.02177e-07
-9.22168e-08
-2.03849e-07
-8.93319e-08
-2.04791e-07
-8.64861e-08
-2.05093e-07
-8.36934e-08
-2.04848e-07
-8.09585e-08
-2.04142e-07
-7.82954e-08
-2.03056e-07
-7.57051e-08
-2.01668e-07
-2.00046e-07
-7.32025e-08
-1.27281e-07
-1.1792e-07
1.292e-07
-1.25097e-07
-1.31649e-07
-1.22688e-07
-1.4425e-07
-1.2009e-07
-1.557e-07
-1.17339e-07
-1.65954e-07
-1.14462e-07
-1.74997e-07
-1.11488e-07
-1.82832e-07
-1.08442e-07
-1.89482e-07
-1.05344e-07
-1.9499e-07
-1.02216e-07
-1.99415e-07
-9.90748e-08
-2.02832e-07
-9.59376e-08
-2.05323e-07
-9.28168e-08
-2.06977e-07
-8.97288e-08
-2.07887e-07
-8.66821e-08
-2.08147e-07
-8.3692e-08
-2.07847e-07
-8.07637e-08
-2.07077e-07
-7.79128e-08
-2.05917e-07
-7.51403e-08
-2.04447e-07
-2.02734e-07
-7.24629e-08
-1.30107e-07
-1.19965e-07
1.32149e-07
-1.2778e-07
-1.3398e-07
-1.25214e-07
-1.46821e-07
-1.22445e-07
-1.58473e-07
-1.19511e-07
-1.68894e-07
-1.16442e-07
-1.78072e-07
-1.13267e-07
-1.86013e-07
-1.10012e-07
-1.92743e-07
-1.06701e-07
-1.98307e-07
-1.03356e-07
-2.02768e-07
-9.99949e-08