/*--------------------------------*- C++ -*----------------------------------*\
  =========                 |
  \\      /  F ield         | OpenFOAM: The Open Source CFD Toolbox
   \\    /   O peration     | Website:  https://openfoam.org
    \\  /    A nd           | Version:  6
     \\/     M anipulation  |
\*---------------------------------------------------------------------------*/
FoamFile
{
    version     2.0;
    format      ascii;
    class       volVectorField;
    location    "11";
    object      U;
}
// * * * * * * * * * * * * * * * * * * * * * * * * * * * * * * * * * * * * * //

dimensions      [0 1 -1 0 0 0 0];

internalField   nonuniform List<vector> 
10000
(
(-0.00774531 -3.38994 0)
(-0.0130554 -4.50124 0)
(-0.0183764 -4.95491 0)
(-0.0192626 -5.18767 0)
(-0.01737 -5.29912 0)
(-0.0147488 -5.34841 0)
(-0.0123629 -5.36764 0)
(-0.010403 -5.37296 0)
(-0.00874869 -5.37236 0)
(-0.00728016 -5.36961 0)
(-0.00589348 -5.36609 0)
(-0.00448652 -5.36149 0)
(-0.00290203 -5.35391 0)
(-0.000847455 -5.33921 0)
(0.00193626 -5.30941 0)
(0.00557633 -5.24931 0)
(0.00921682 -5.12946 0)
(0.0108886 -4.89423 0)
(0.00875136 -4.44612 0)
(0.00709322 -3.3582 0)
(-0.00414391 -3.38642 0)
(-0.00413532 -4.49607 0)
(-0.00724255 -4.95726 0)
(-0.00864837 -5.19469 0)
(-0.00903583 -5.30793 0)
(-0.00868062 -5.35699 0)
(-0.00798623 -5.37524 0)
(-0.00716522 -5.37959 0)
(-0.00628656 -5.37826 0)
(-0.00541626 -5.3751 0)
(-0.00456403 -5.37145 0)
(-0.00374379 -5.36709 0)
(-0.00295794 -5.36012 0)
(-0.00213204 -5.34641 0)
(-0.00126509 -5.31767 0)
(-0.000350859 -5.2579 0)
(0.000285189 -5.13681 0)
(0.000852322 -4.89777 0)
(-0.000271827 -4.44294 0)
(0.00337189 -3.35437 0)
(-0.00465075 -3.37862 0)
(-0.00407764 -4.48948 0)
(-0.00440256 -4.95259 0)
(-0.00468102 -5.19194 0)
(-0.00490342 -5.30651 0)
(-0.00494776 -5.35655 0)
(-0.00490189 -5.37538 0)
(-0.00470871 -5.38005 0)
(-0.00438582 -5.3789 0)
(-0.0039822 -5.37579 0)
(-0.00355363 -5.37212 0)
(-0.00312368 -5.36767 0)
(-0.00272167 -5.36055 0)
(-0.00231526 -5.34656 0)
(-0.00185539 -5.31732 0)
(-0.00136573 -5.25697 0)
(-0.00083116 -5.13537 0)
(4.02099e-05 -4.8962 0)
(0.000398578 -4.4418 0)
(0.0026342 -3.35086 0)
(-0.00240727 -3.37067 0)
(-0.00211578 -4.48473 0)
(-0.00219207 -4.94905 0)
(-0.00202158 -5.18968 0)
(-0.00212966 -5.30504 0)
(-0.00233568 -5.35569 0)
(-0.00257082 -5.37499 0)
(-0.00274123 -5.37998 0)
(-0.00280705 -5.37905 0)
(-0.00276496 -5.37609 0)
(-0.00265863 -5.37252 0)
(-0.00249691 -5.36815 0)
(-0.00232133 -5.36109 0)
(-0.0021092 -5.34707 0)
(-0.00186619 -5.31774 0)
(-0.00167808 -5.2573 0)
(-0.00152442 -5.13576 0)
(-0.00102579 -4.89682 0)
(-0.000862745 -4.443 0)
(0.000310022 -3.34936 0)
(-0.00042411 -3.36664 0)
(-0.00101903 -4.48335 0)
(-0.00187874 -4.9471 0)
(-0.00184043 -5.18779 0)
(-0.0018403 -5.30334 0)
(-0.00191502 -5.35433 0)
(-0.00203809 -5.37396 0)
(-0.00215257 -5.37931 0)
(-0.00220743 -5.37871 0)
(-0.00215932 -5.37601 0)
(-0.00203762 -5.37263 0)
(-0.00185266 -5.36836 0)
(-0.00163412 -5.36131 0)
(-0.00138912 -5.34724 0)
(-0.00112939 -5.3178 0)
(-0.000968824 -5.25716 0)
(-0.000843611 -5.1355 0)
(-0.000655792 -4.89731 0)
(-0.00124257 -4.44476 0)
(-0.000277192 -3.34857 0)
(0.000480521 -3.36895 0)
(0.000298171 -4.48503 0)
(-0.0015256 -4.94788 0)
(-0.00200972 -5.18838 0)
(-0.00229416 -5.30379 0)
(-0.00236923 -5.35458 0)
(-0.00233785 -5.37415 0)
(-0.00225914 -5.37957 0)
(-0.00214498 -5.37908 0)
(-0.00197176 -5.37651 0)
(-0.00174146 -5.37326 0)
(-0.00144892 -5.36908 0)
(-0.00110905 -5.36211 0)
(-0.000740249 -5.34812 0)
(-0.000372499 -5.31875 0)
(-0.0001665 -5.25808 0)
(-0.000146007 -5.13621 0)
(-0.000483146 -4.89849 0)
(-0.00169271 -4.44729 0)
(-0.000999519 -3.35108 0)
(0.000342372 -3.3713 0)
(0.000264475 -4.48603 0)
(-0.00103935 -4.9492 0)
(-0.00161054 -5.18941 0)
(-0.00200802 -5.30458 0)
(-0.00216708 -5.35543 0)
(-0.00215617 -5.37506 0)
(-0.00205608 -5.38045 0)
(-0.00191984 -5.37993 0)
(-0.0017482 -5.37738 0)
(-0.00153155 -5.37419 0)
(-0.0012653 -5.37008 0)
(-0.000948197 -5.36316 0)
(-0.000618709 -5.34919 0)
(-0.000345836 -5.31981 0)
(-0.000200278 -5.259 0)
(-0.000325058 -5.13681 0)
(-0.000777716 -4.8986 0)
(-0.00169587 -4.44725 0)
(-0.00128828 -3.35583 0)
(0.000210295 -3.37114 0)
(-0.000250042 -4.48519 0)
(-0.000312303 -4.94858 0)
(-0.00074342 -5.18842 0)
(-0.00114396 -5.30406 0)
(-0.00135069 -5.3553 0)
(-0.00143335 -5.37522 0)
(-0.00145091 -5.3808 0)
(-0.00142963 -5.3804 0)
(-0.001374 -5.37792 0)
(-0.00128166 -5.3748 0)
(-0.00115242 -5.37076 0)
(-0.000989656 -5.36392 0)
(-0.000838386 -5.34999 0)
(-0.000745503 -5.32057 0)
(-0.000733254 -5.25953 0)
(-0.000889815 -5.13702 0)
(-0.00114012 -4.89816 0)
(-0.00171058 -4.44695 0)
(-0.00074351 -3.36033 0)
(-0.000197117 -3.36864 0)
(-7.78427e-05 -4.48386 0)
(0.000214784 -4.94719 0)
(-0.000147151 -5.18676 0)
(-0.000601233 -5.30258 0)
(-0.000866889 -5.35425 0)
(-0.00100738 -5.3746 0)
(-0.00107292 -5.38047 0)
(-0.00111504 -5.38027 0)
(-0.00114372 -5.37793 0)
(-0.00115323 -5.37491 0)
(-0.00115335 -5.37094 0)
(-0.00116049 -5.36412 0)
(-0.00120042 -5.35015 0)
(-0.00128153 -5.32064 0)
(-0.00141402 -5.25951 0)
(-0.00161255 -5.1367 0)
(-0.00158019 -4.89747 0)
(-0.00167022 -4.44624 0)
(-0.000174838 -3.36305 0)
(-0.000287778 -3.36827 0)
(0.000159448 -4.48386 0)
(1.27957e-05 -4.94696 0)
(-0.000376463 -5.18632 0)
(-0.000752751 -5.30192 0)
(-0.000964558 -5.35375 0)
(-0.00101714 -5.37427 0)
(-0.00099663 -5.38025 0)
(-0.000959166 -5.3801 0)
(-0.000931203 -5.3778 0)
(-0.000931916 -5.37477 0)
(-0.0009625 -5.37073 0)
(-0.00104475 -5.36377 0)
(-0.00116901 -5.34959 0)
(-0.00132467 -5.31975 0)
(-0.00148373 -5.25822 0)
(-0.00167107 -5.13494 0)
(-0.00134781 -4.89537 0)
(-0.000887711 -4.44431 0)
(-0.00139821 -3.36355 0)
(-0.000160038 -3.3695 0)
(0.000150649 -4.48416 0)
(0.000101871 -4.94702 0)
(-0.000318458 -5.18649 0)
(-0.000683359 -5.30217 0)
(-0.000832116 -5.35398 0)
(-0.000839384 -5.37453 0)
(-0.000747478 -5.38048 0)
(-0.000618566 -5.38028 0)
(-0.000492882 -5.37791 0)
(-0.00038982 -5.37479 0)
(-0.000317631 -5.37065 0)
(-0.000271266 -5.36357 0)
(-0.000247418 -5.34922 0)
(-0.000253326 -5.31911 0)
(-0.000304905 -5.25728 0)
(-0.000381787 -5.13393 0)
(-0.000350947 -4.89473 0)
(7.94728e-05 -4.44482 0)
(-0.00339633 -3.3639 0)
(-0.000600719 -3.37179 0)
(-2.23382e-05 -4.48362 0)
(6.54453e-05 -4.94672 0)
(-0.000101809 -5.18663 0)
(-0.000340912 -5.30243 0)
(-0.00045942 -5.35438 0)
(-0.000455259 -5.37501 0)
(-0.000345698 -5.38095 0)
(-0.000186748 -5.38073 0)
(-1.29178e-05 -5.37834 0)
(0.00017108 -5.37522 0)
(0.000363091 -5.3711 0)
(0.000568298 -5.36407 0)
(0.000773961 -5.34975 0)
(0.00093998 -5.31967 0)
(0.000982468 -5.2579 0)
(0.000909237 -5.13475 0)
(0.000563136 -4.89584 0)
(0.000529649 -4.44649 0)
(-0.00340239 -3.36661 0)
(-0.000267011 -3.37151 0)
(-0.000268321 -4.48409 0)
(9.73173e-05 -4.94692 0)
(0.000237751 -5.1864 0)
(0.000158859 -5.30236 0)
(4.01712e-05 -5.35452 0)
(1.09093e-06 -5.37526 0)
(3.86737e-05 -5.38129 0)
(0.000131103 -5.38112 0)
(0.000250727 -5.37878 0)
(0.000403286 -5.37572 0)
(0.00057949 -5.37168 0)
(0.000794558 -5.36475 0)
(0.0010406 -5.35054 0)
(0.00126845 -5.32051 0)
(0.00141258 -5.25857 0)
(0.00139676 -5.13509 0)
(0.00108976 -4.8964 0)
(0.000588697 -4.44708 0)
(-0.000783555 -3.36628 0)
(0.000166608 -3.37015 0)
(3.38299e-06 -4.4842 0)
(0.000174514 -4.94623 0)
(0.000379115 -5.18544 0)
(0.000320881 -5.30172 0)
(0.000203826 -5.35423 0)
(0.000157014 -5.37521 0)
(0.000150717 -5.3814 0)
(0.000193325 -5.38133 0)
(0.000266647 -5.37905 0)
(0.000366454 -5.37605 0)
(0.000491996 -5.37209 0)
(0.000656258 -5.36522 0)
(0.000855303 -5.35106 0)
(0.00111139 -5.32109 0)
(0.00137815 -5.25906 0)
(0.00153998 -5.13516 0)
(0.00137455 -4.89577 0)
(0.000742686 -4.44535 0)
(0.000850189 -3.36596 0)
(2.48863e-05 -3.36974 0)
(0.000912031 -4.48641 0)
(-0.000110092 -4.94691 0)
(-0.000357041 -5.18541 0)
(-0.000359961 -5.30187 0)
(-0.000307544 -5.35444 0)
(-0.000200829 -5.37545 0)
(-0.000108596 -5.38169 0)
(-6.77188e-06 -5.38163 0)
(9.32947e-05 -5.37934 0)
(0.000200851 -5.37634 0)
(0.000305338 -5.3724 0)
(0.000431203 -5.36556 0)
(0.000580387 -5.35143 0)
(0.000784529 -5.32152 0)
(0.00105189 -5.25961 0)
(0.00130025 -5.1353 0)
(0.00132606 -4.89467 0)
(0.0010279 -4.44321 0)
(0.0010586 -3.36531 0)
(-0.000156385 -3.37201 0)
(0.00117793 -4.48556 0)
(-0.000131036 -4.94645 0)
(-0.000412078 -5.18556 0)
(-0.000449936 -5.30228 0)
(-0.000351729 -5.35491 0)
(-0.000253907 -5.37589 0)
(-0.00016359 -5.38209 0)
(-6.04486e-05 -5.382 0)
(4.52879e-05 -5.37968 0)
(0.000154821 -5.37666 0)
(0.000268454 -5.37272 0)
(0.000396233 -5.36591 0)
(0.000547345 -5.35187 0)
(0.000734859 -5.32204 0)
(0.00101987 -5.26018 0)
(0.00138281 -5.13561 0)
(0.00149891 -4.89411 0)
(0.00162689 -4.44137 0)
(0.00112202 -3.36207 0)
(0.000196977 -3.37333 0)
(0.000937332 -4.48393 0)
(-0.000634793 -4.94488 0)
(-0.000622936 -5.18484 0)
(-0.000527369 -5.30205 0)
(-0.000350088 -5.35497 0)
(-0.000214165 -5.37603 0)
(-0.00010688 -5.38226 0)
(-1.6292e-05 -5.38221 0)
(8.18055e-05 -5.37992 0)
(0.000199679 -5.37695 0)
(0.000340641 -5.37308 0)
(0.000522052 -5.36639 0)
(0.000761813 -5.35258 0)
(0.00105811 -5.323 0)
(0.00146657 -5.26141 0)
(0.00195419 -5.13726 0)
(0.00193471 -4.89529 0)
(0.00195476 -4.44158 0)
(0.000109827 -3.36174 0)
(0.00136748 -3.37362 0)
(0.000588353 -4.48395 0)
(-0.000549806 -4.94432 0)
(-0.000758506 -5.18436 0)
(-0.000718475 -5.30197 0)
(-0.000547664 -5.35508 0)
(-0.000352317 -5.37614 0)
(-0.000192397 -5.38237 0)
(-5.17985e-05 -5.38233 0)
(8.35801e-05 -5.38008 0)
(0.00021402 -5.37713 0)
(0.000355218 -5.37329 0)
(0.000496072 -5.36667 0)
(0.000653842 -5.35298 0)
(0.000844909 -5.32359 0)
(0.00110743 -5.26225 0)
(0.00140608 -5.13825 0)
(0.0016522 -4.89588 0)
(0.00184856 -4.44116 0)
(0.00121782 -3.35862 0)
(0.00170594 -3.37388 0)
(0.000165587 -4.48278 0)
(-0.000447905 -4.94315 0)
(-0.000921855 -5.1836 0)
(-0.000966296 -5.30171 0)
(-0.000797978 -5.35506 0)
(-0.00054882 -5.37627 0)
(-0.000288155 -5.38256 0)
(-3.94343e-05 -5.38254 0)
(0.000194758 -5.38027 0)
(0.000410116 -5.37726 0)
(0.000592581 -5.37333 0)
(0.000736362 -5.36659 0)
(0.00084954 -5.35271 0)
(0.000959261 -5.32312 0)
(0.00110263 -5.26162 0)
(0.00135004 -5.13723 0)
(0.00189147 -4.89389 0)
(0.00200701 -4.43792 0)
(0.0018219 -3.35268 0)
(0.00110562 -3.37417 0)
(-4.22144e-05 -4.4811 0)
(-0.000484814 -4.94213 0)
(-0.00107771 -5.18319 0)
(-0.00119759 -5.30162 0)
(-0.00107239 -5.3552 0)
(-0.000783605 -5.3766 0)
(-0.000409269 -5.38301 0)
(-1.71438e-05 -5.38306 0)
(0.000384015 -5.3808 0)
(0.000774906 -5.37777 0)
(0.00115277 -5.37378 0)
(0.00149927 -5.36693 0)
(0.00180251 -5.35289 0)
(0.00206916 -5.32312 0)
(0.00222878 -5.26142 0)
(0.00230476 -5.13688 0)
(0.00226859 -4.89373 0)
(0.00203827 -4.43768 0)
(-0.00102669 -3.34855 0)
(0.000163525 -3.37586 0)
(0.000107491 -4.48075 0)
(-0.000476601 -4.94193 0)
(-0.00103969 -5.18341 0)
(-0.00128953 -5.30216 0)
(-0.00124183 -5.35598 0)
(-0.000976761 -5.3775 0)
(-0.000547674 -5.384 0)
(-6.53554e-05 -5.38413 0)
(0.000441386 -5.38191 0)
(0.00095251 -5.37888 0)
(0.00145829 -5.37488 0)
(0.00195442 -5.36804 0)
(0.00241878 -5.35399 0)
(0.00279121 -5.3242 0)
(0.00297928 -5.26257 0)
(0.00287855 -5.13816 0)
(0.00212927 -4.89534 0)
(0.00174395 -4.43977 0)
(-0.00131469 -3.34755 0)
(-0.000319591 -3.37878 0)
(0.000138747 -4.48019 0)
(6.54413e-05 -4.94188 0)
(-0.000412496 -5.18393 0)
(-0.000754898 -5.30281 0)
(-0.000868911 -5.35678 0)
(-0.000757107 -5.37852 0)
(-0.00044534 -5.38519 0)
(-3.43469e-05 -5.38539 0)
(0.000408354 -5.38318 0)
(0.000841382 -5.38015 0)
(0.00125996 -5.37613 0)
(0.00164829 -5.3692 0)
(0.00196755 -5.35504 0)
(0.00217455 -5.32517 0)
(0.00221075 -5.26325 0)
(0.00201956 -5.13824 0)
(0.00126119 -4.89502 0)
(0.00121073 -4.43863 0)
(0.000887404 -3.34789 0)
(0.000440254 -3.37981 0)
(-0.000129563 -4.47873 0)
(0.000863597 -4.94116 0)
(0.000650975 -5.18345 0)
(0.000312094 -5.30261 0)
(8.01825e-07 -5.35698 0)
(-0.000136774 -5.37908 0)
(-7.22552e-05 -5.38596 0)
(0.000117351 -5.38624 0)
(0.000357262 -5.38407 0)
(0.000608026 -5.38101 0)
(0.000834809 -5.37689 0)
(0.00102428 -5.36982 0)
(0.00113107 -5.35547 0)
(0.00112173 -5.32534 0)
(0.00101564 -5.26307 0)
(0.000813968 -5.13756 0)
(0.000551096 -4.89373 0)
(0.00043581 -4.43654 0)
(0.00250678 -3.34585 0)
(0.00117084 -3.37924 0)
(-0.000274554 -4.479 0)
(0.000988905 -4.94066 0)
(0.00109324 -5.1827 0)
(0.000947089 -5.30197 0)
(0.000641133 -5.35656 0)
(0.000377039 -5.37891 0)
(0.000229385 -5.38599 0)
(0.00018875 -5.38641 0)
(0.000214831 -5.38428 0)
(0.000257424 -5.38123 0)
(0.000294589 -5.37709 0)
(0.000307215 -5.36997 0)
(0.000280067 -5.35556 0)
(0.000223379 -5.3253 0)
(0.000155019 -5.26284 0)
(0.000107078 -5.13731 0)
(0.000138309 -4.89364 0)
(-0.000153172 -4.43648 0)
(0.00236151 -3.34498 0)
(0.000138951 -3.37916 0)
(0.000139156 -4.48011 0)
(0.00100191 -4.94033 0)
(0.00135308 -5.18181 0)
(0.00129421 -5.30092 0)
(0.000954938 -5.35554 0)
(0.000578187 -5.37805 0)
(0.000258874 -5.38534 0)
(4.38162e-05 -5.38591 0)
(-0.000105488 -5.38387 0)
(-0.000226073 -5.38086 0)
(-0.000350275 -5.37672 0)
(-0.000494678 -5.36962 0)
(-0.000636082 -5.35523 0)
(-0.000777299 -5.32498 0)
(-0.00087392 -5.26253 0)
(-0.000846752 -5.13717 0)
(-0.000690394 -4.89385 0)
(-0.000190676 -4.43678 0)
(0.00121966 -3.34452 0)
(3.90221e-05 -3.37936 0)
(0.00113522 -4.4805 0)
(0.000741269 -4.94001 0)
(0.00104989 -5.18104 0)
(0.000934434 -5.29974 0)
(0.000597901 -5.35436 0)
(0.000216232 -5.37702 0)
(-0.000130532 -5.38449 0)
(-0.0003814 -5.38521 0)
(-0.00055928 -5.38327 0)
(-0.000703388 -5.38029 0)
(-0.000838093 -5.37617 0)
(-0.000994781 -5.36908 0)
(-0.00113944 -5.35469 0)
(-0.00125023 -5.32444 0)
(-0.00130434 -5.26191 0)
(-0.00124047 -5.13649 0)
(-0.00110205 -4.89327 0)
(-0.000275731 -4.43652 0)
(0.000854971 -3.34395 0)
(0.00216305 -3.37932 0)
(0.00110549 -4.48186 0)
(0.000437279 -4.94005 0)
(0.000292736 -5.18039 0)
(6.38812e-05 -5.29881 0)
(-0.000208346 -5.35348 0)
(-0.000489402 -5.37633 0)
(-0.000715787 -5.38396 0)
(-0.000867551 -5.38479 0)
(-0.000953469 -5.38292 0)
(-0.000990393 -5.37997 0)
(-0.00100945 -5.37584 0)
(-0.00103825 -5.3687 0)
(-0.00105419 -5.35425 0)
(-0.00104059 -5.32396 0)
(-0.000969708 -5.26142 0)
(-0.000885256 -5.13604 0)
(-0.000932772 -4.89287 0)
(-0.000521045 -4.43658 0)
(0.00045327 -3.34388 0)
(0.00270403 -3.38122 0)
(0.00073167 -4.48324 0)
(0.000296639 -4.94047 0)
(-0.000426668 -5.18024 0)
(-0.00079011 -5.29831 0)
(-0.00102558 -5.35302 0)
(-0.00114122 -5.37604 0)
(-0.00119914 -5.38383 0)
(-0.00120195 -5.38479 0)
(-0.00114734 -5.38301 0)
(-0.00104172 -5.38012 0)
(-0.00089323 -5.376 0)
(-0.000736891 -5.36885 0)
(-0.000570686 -5.35435 0)
(-0.000403761 -5.32403 0)
(-0.000250882 -5.26156 0)
(-0.000192136 -5.13628 0)
(-0.000265935 -4.89281 0)
(-0.000810457 -4.43666 0)
(0.00046053 -3.34479 0)
(0.00124646 -3.38414 0)
(0.00085121 -4.48353 0)
(0.000581195 -4.94016 0)
(-0.000369753 -5.17958 0)
(-0.000913832 -5.29791 0)
(-0.00124249 -5.35282 0)
(-0.00137342 -5.376 0)
(-0.00138631 -5.38398 0)
(-0.0013278 -5.3851 0)
(-0.00120156 -5.38348 0)
(-0.00100568 -5.38071 0)
(-0.000748955 -5.37668 0)
(-0.000439488 -5.36956 0)
(-0.000110506 -5.35508 0)
(0.000198816 -5.32481 0)
(0.000418046 -5.26243 0)
(0.000471662 -5.13727 0)
(0.000141394 -4.89405 0)
(-0.000806648 -4.43843 0)
(-7.09614e-05 -3.34633 0)
(-0.000980059 -3.38611 0)
(0.00119163 -4.4828 0)
(0.00059823 -4.93912 0)
(-0.000232345 -5.17851 0)
(-0.00079429 -5.29716 0)
(-0.00113136 -5.35246 0)
(-0.00129995 -5.37596 0)
(-0.00134328 -5.38412 0)
(-0.00130504 -5.38542 0)
(-0.00119541 -5.38397 0)
(-0.00102151 -5.38136 0)
(-0.000781147 -5.37747 0)
(-0.000489531 -5.37044 0)
(-0.000193155 -5.35601 0)
(5.9957e-05 -5.32579 0)
(0.00017384 -5.26343 0)
(0.000161626 -5.13814 0)
(-0.000257309 -4.89446 0)
(-0.000846199 -4.43819 0)
(0.000183913 -3.34972 0)
(-0.00184719 -3.38723 0)
(0.00137752 -4.4817 0)
(0.000546199 -4.93762 0)
(-4.85068e-07 -5.17701 0)
(-0.000514982 -5.29604 0)
(-0.000848299 -5.35175 0)
(-0.00105449 -5.37558 0)
(-0.00115798 -5.384 0)
(-0.00118914 -5.3855 0)
(-0.00115531 -5.38423 0)
(-0.00106654 -5.3818 0)
(-0.000936411 -5.37804 0)
(-0.000774446 -5.3711 0)
(-0.000621599 -5.35669 0)
(-0.000510236 -5.32646 0)
(-0.000451398 -5.26399 0)
(-0.000495979 -5.13843 0)
(-0.000568467 -4.89487 0)
(-0.000876965 -4.43815 0)
(0.00115743 -3.35103 0)
(-0.000915058 -3.38831 0)
(0.00119288 -4.48049 0)
(0.000517508 -4.93584 0)
(9.96918e-05 -5.17538 0)
(-0.000365122 -5.29482 0)
(-0.000726387 -5.3509 0)
(-0.000945794 -5.37505 0)
(-0.00105792 -5.38374 0)
(-0.00110854 -5.38543 0)
(-0.00111962 -5.38428 0)
(-0.00111424 -5.38191 0)
(-0.00110211 -5.37818 0)
(-0.0011117 -5.37124 0)
(-0.00116116 -5.3568 0)
(-0.00124082 -5.32647 0)
(-0.00128742 -5.26389 0)
(-0.0013448 -5.13814 0)
(-0.00115252 -4.894 0)
(-0.000518036 -4.43731 0)
(0.000606213 -3.35312 0)
(0.00056701 -3.3917 0)
(0.00128897 -4.48197 0)
(0.000430177 -4.93653 0)
(-0.000175536 -5.17562 0)
(-0.000578856 -5.29498 0)
(-0.000830363 -5.3511 0)
(-0.00093414 -5.37517 0)
(-0.000935574 -5.38379 0)
(-0.000917106 -5.38543 0)
(-0.000909013 -5.3842 0)
(-0.000929936 -5.38172 0)
(-0.00100318 -5.37785 0)
(-0.00113574 -5.37072 0)
(-0.00132122 -5.35603 0)
(-0.00151639 -5.32541 0)
(-0.00163884 -5.26258 0)
(-0.00160671 -5.13673 0)
(-0.00106995 -4.89254 0)
(-0.000525339 -4.43585 0)
(0.000429837 -3.35134 0)
(-0.00058552 -3.39317 0)
(0.00136651 -4.4828 0)
(0.000724895 -4.93669 0)
(0.000486597 -5.17542 0)
(0.000175703 -5.29494 0)
(-2.80413e-05 -5.35124 0)
(-0.000160106 -5.3753 0)
(-0.00021855 -5.38384 0)
(-0.000232455 -5.38538 0)
(-0.000242963 -5.38405 0)
(-0.000275776 -5.38145 0)
(-0.000340588 -5.37745 0)
(-0.000448422 -5.37016 0)
(-0.000579936 -5.35533 0)
(-0.000683199 -5.32465 0)
(-0.000745006 -5.26189 0)
(-0.000643248 -5.13616 0)
(-0.000153758 -4.89238 0)
(-0.000759731 -4.4367 0)
(-0.00030275 -3.3507 0)
(-0.00172351 -3.39149 0)
(0.00148323 -4.47958 0)
(0.000429727 -4.93407 0)
(0.000759461 -5.17313 0)
(0.000694692 -5.29315 0)
(0.000591499 -5.35 0)
(0.000470397 -5.37452 0)
(0.000359252 -5.38332 0)
(0.000284281 -5.38503 0)
(0.000245661 -5.38381 0)
(0.000230438 -5.38131 0)
(0.000230214 -5.37738 0)
(0.000237164 -5.37019 0)
(0.000255882 -5.35547 0)
(0.00026308 -5.32495 0)
(0.000250724 -5.26254 0)
(0.000244272 -5.13744 0)
(0.000327413 -4.89447 0)
(-0.000335266 -4.43912 0)
(-0.00168702 -3.35174 0)
(0.0014655 -3.39197 0)
(0.00123251 -4.47926 0)
(-1.13523e-05 -4.93261 0)
(-8.14636e-05 -5.17165 0)
(-0.000199783 -5.29205 0)
(-0.000210533 -5.34923 0)
(-0.000156491 -5.37399 0)
(-0.00011083 -5.383 0)
(-6.21065e-05 -5.38486 0)
(2.79167e-06 -5.38377 0)
(7.75769e-05 -5.38138 0)
(0.000171658 -5.37756 0)
(0.000272927 -5.37045 0)
(0.00037792 -5.35581 0)
(0.00043954 -5.32526 0)
(0.000455622 -5.26282 0)
(0.000398215 -5.1381 0)
(0.000452641 -4.89542 0)
(0.00023934 -4.43946 0)
(-0.001536 -3.35181 0)
(0.00397736 -3.39473 0)
(0.000447778 -4.48105 0)
(-0.00044024 -4.93361 0)
(-0.00100004 -5.1725 0)
(-0.00124143 -5.29284 0)
(-0.00121706 -5.34995 0)
(-0.00103173 -5.37461 0)
(-0.00082468 -5.38353 0)
(-0.000628539 -5.38531 0)
(-0.000442604 -5.38418 0)
(-0.000262857 -5.38175 0)
(-9.25545e-05 -5.37788 0)
(7.53616e-05 -5.3707 0)
(0.000218588 -5.35597 0)
(0.00032272 -5.32532 0)
(0.000366797 -5.26271 0)
(0.000398573 -5.13777 0)
(0.000468489 -4.89525 0)
(0.000337648 -4.43925 0)
(-0.00109999 -3.35146 0)
(0.00355285 -3.39702 0)
(-0.000699174 -4.48112 0)
(-0.000675799 -4.93356 0)
(-0.00108527 -5.17279 0)
(-0.00128831 -5.29375 0)
(-0.00127423 -5.35093 0)
(-0.00115726 -5.37549 0)
(-0.000994439 -5.3843 0)
(-0.000805804 -5.38601 0)
(-0.000615303 -5.38481 0)
(-0.000430709 -5.38231 0)
(-0.000252467 -5.37835 0)
(-7.9182e-05 -5.37108 0)
(6.87181e-05 -5.35625 0)
(0.000183914 -5.32554 0)
(0.000245992 -5.26287 0)
(0.000270013 -5.13799 0)
(0.000283622 -4.89572 0)
(0.000524811 -4.4394 0)
(-0.00153902 -3.35125 0)
(0.0027156 -3.39873 0)
(-0.00156598 -4.47946 0)
(-0.000678653 -4.93254 0)
(-0.000804907 -5.17284 0)
(-0.00086628 -5.29414 0)
(-0.000848548 -5.35133 0)
(-0.00087085 -5.3759 0)
(-0.000848875 -5.38471 0)
(-0.000781296 -5.38643 0)
(-0.000681204 -5.3852 0)
(-0.000567078 -5.38266 0)
(-0.000453896 -5.37867 0)
(-0.00032345 -5.37139 0)
(-0.000198512 -5.35655 0)
(-7.74364e-05 -5.32577 0)
(3.71669e-05 -5.26307 0)
(0.000116133 -5.13815 0)
(0.000190572 -4.8957 0)
(0.000570741 -4.43947 0)
(-0.00121549 -3.3517 0)
(0.00197119 -3.39556 0)
(-0.00252217 -4.47851 0)
(-0.000727326 -4.93198 0)
(-0.000539971 -5.17268 0)
(-0.000369194 -5.2939 0)
(-0.000348381 -5.351 0)
(-0.000482356 -5.37563 0)
(-0.000615452 -5.38454 0)
(-0.000694316 -5.38634 0)
(-0.000711436 -5.38518 0)
(-0.000688918 -5.38266 0)
(-0.000642039 -5.37869 0)
(-0.000575922 -5.37142 0)
(-0.000499894 -5.35658 0)
(-0.000411541 -5.32579 0)
(-0.000287025 -5.26301 0)
(-7.49876e-05 -5.13784 0)
(0.000149419 -4.89489 0)
(0.000685665 -4.43805 0)
(-0.000764228 -3.35096 0)
(-0.000167503 -3.39068 0)
(-0.00275021 -4.47697 0)
(-0.00118805 -4.9309 0)
(-0.000747135 -5.17194 0)
(-0.000409626 -5.29296 0)
(-0.00037309 -5.35003 0)
(-0.000499225 -5.37481 0)
(-0.000647896 -5.38396 0)
(-0.000751513 -5.38599 0)
(-0.000779893 -5.38498 0)
(-0.000743127 -5.38256 0)
(-0.000667106 -5.37864 0)
(-0.000560156 -5.37138 0)
(-0.000441346 -5.35652 0)
(-0.000328504 -5.32571 0)
(-0.000161812 -5.26283 0)
(0.000156627 -5.1374 0)
(0.000561869 -4.89388 0)
(0.00109781 -4.43671 0)
(-0.00062159 -3.34838 0)
(-0.00125606 -3.3864 0)
(-0.00189338 -4.47839 0)
(-0.00189516 -4.93231 0)
(-0.00171667 -5.17281 0)
(-0.00137352 -5.2932 0)
(-0.00120209 -5.34982 0)
(-0.00111085 -5.37451 0)
(-0.00106839 -5.38375 0)
(-0.00101993 -5.38593 0)
(-0.000926241 -5.38508 0)
(-0.000774826 -5.38282 0)
(-0.000566541 -5.37904 0)
(-0.000304195 -5.37189 0)
(-2.05158e-05 -5.3572 0)
(0.000274428 -5.3266 0)
(0.000547502 -5.26387 0)
(0.00086922 -5.13882 0)
(0.000974319 -4.89576 0)
(0.00130277 -4.43876 0)
(-0.00161114 -3.34855 0)
(-0.00203569 -3.38362 0)
(-0.00153671 -4.47977 0)
(-0.00167297 -4.93445 0)
(-0.00180643 -5.17424 0)
(-0.00162844 -5.29408 0)
(-0.00150855 -5.35044 0)
(-0.00136122 -5.37496 0)
(-0.00123536 -5.38413 0)
(-0.00110995 -5.38633 0)
(-0.00097947 -5.38556 0)
(-0.000822827 -5.38342 0)
(-0.000632285 -5.37976 0)
(-0.000411202 -5.37279 0)
(-0.000176235 -5.35831 0)
(4.88977e-05 -5.32791 0)
(0.000247555 -5.26554 0)
(0.000375802 -5.14096 0)
(0.000258837 -4.89833 0)
(0.00112109 -4.44144 0)
(-0.000900868 -3.34947 0)
(-0.0029226 -3.38266 0)
(-0.00103594 -4.4791 0)
(-0.00122153 -4.93516 0)
(-0.00138066 -5.17501 0)
(-0.00130415 -5.29487 0)
(-0.00122462 -5.3511 0)
(-0.00109403 -5.37549 0)
(-0.000985831 -5.38457 0)
(-0.000892173 -5.38669 0)
(-0.000822285 -5.38591 0)
(-0.000766755 -5.38375 0)
(-0.000721373 -5.38008 0)
(-0.000708241 -5.37306 0)
(-0.000713526 -5.35851 0)
(-0.000749866 -5.32794 0)
(-0.000738082 -5.26526 0)
(-0.00073526 -5.14056 0)
(-0.000453272 -4.89804 0)
(0.000422567 -4.44075 0)
(0.00184003 -3.34669 0)
(-0.00237696 -3.38175 0)
(-0.000735662 -4.4787 0)
(-0.000363715 -4.93527 0)
(-0.000459377 -5.17524 0)
(-0.000498003 -5.29522 0)
(-0.00046983 -5.35148 0)
(-0.000431976 -5.37579 0)
(-0.000395425 -5.38474 0)
(-0.000371745 -5.38675 0)
(-0.000358016 -5.38588 0)
(-0.000357692 -5.38362 0)
(-0.000392975 -5.37983 0)
(-0.000472008 -5.37261 0)
(-0.000587413 -5.3578 0)
(-0.000710938 -5.32694 0)
(-0.000841238 -5.26399 0)
(-0.000862999 -5.13899 0)
(-0.000487578 -4.89611 0)
(-9.67145e-05 -4.4392 0)
(0.00114804 -3.34356 0)
(-0.0017543 -3.37981 0)
(-0.00051677 -4.47703 0)
(0.000172944 -4.93387 0)
(0.000373963 -5.17423 0)
(0.000318129 -5.29459 0)
(0.00026657 -5.3511 0)
(0.000228932 -5.3755 0)
(0.000214974 -5.38449 0)
(0.000215841 -5.38655 0)
(0.000232308 -5.38568 0)
(0.000249316 -5.38342 0)
(0.000269645 -5.37957 0)
(0.000274279 -5.37226 0)
(0.000254557 -5.35732 0)
(0.0002297 -5.32637 0)
(0.000104398 -5.26332 0)
(-5.06647e-06 -5.1381 0)
(-0.00012664 -4.89572 0)
(-0.000343291 -4.44011 0)
(-0.00153717 -3.34307 0)
(-0.0016339 -3.37777 0)
(0.000166628 -4.47706 0)
(-7.11336e-05 -4.93313 0)
(0.000178901 -5.17337 0)
(0.000235769 -5.29388 0)
(0.000247017 -5.35061 0)
(0.000268366 -5.37513 0)
(0.000320976 -5.38426 0)
(0.000381251 -5.38645 0)
(0.000466333 -5.3857 0)
(0.000570388 -5.38353 0)
(0.000699755 -5.37976 0)
(0.000850155 -5.37254 0)
(0.000991763 -5.35765 0)
(0.0010833 -5.32669 0)
(0.00101135 -5.26363 0)
(0.000716504 -5.13846 0)
(5.03727e-05 -4.89659 0)
(-0.000812093 -4.4425 0)
(-0.00140333 -3.34483 0)
(-0.000967609 -3.37899 0)
(0.000643003 -4.47747 0)
(6.84751e-05 -4.93365 0)
(-9.15544e-05 -5.17363 0)
(-0.0001643 -5.29394 0)
(-0.000169079 -5.35069 0)
(-9.70176e-05 -5.37526 0)
(2.50141e-05 -5.38447 0)
(0.000163479 -5.38675 0)
(0.000305894 -5.38608 0)
(0.000450775 -5.38398 0)
(0.000606088 -5.38028 0)
(0.000759445 -5.37312 0)
(0.0008793 -5.35821 0)
(0.000931446 -5.32714 0)
(0.000818939 -5.26397 0)
(0.000551219 -5.13858 0)
(-0.00035519 -4.89656 0)
(-0.00091419 -4.4425 0)
(0.000248577 -3.34797 0)
(9.51294e-05 -3.38096 0)
(0.000729799 -4.47871 0)
(0.00045123 -4.93497 0)
(-4.57771e-05 -5.17463 0)
(-0.00036773 -5.29473 0)
(-0.000439679 -5.35145 0)
(-0.000361776 -5.37598 0)
(-0.000207383 -5.38512 0)
(-5.40626e-05 -5.38731 0)
(6.87724e-05 -5.38657 0)
(0.000155672 -5.38441 0)
(0.000204843 -5.38065 0)
(0.000222954 -5.37343 0)
(0.000198831 -5.35847 0)
(0.000126951 -5.32733 0)
(-3.86592e-05 -5.264 0)
(-0.000224521 -5.13844 0)
(-0.00091258 -4.89619 0)
(-0.000981195 -4.44128 0)
(0.000316454 -3.35179 0)
(-0.000601813 -3.383 0)
(0.000479353 -4.47834 0)
(0.000787465 -4.93446 0)
(0.000583796 -5.17446 0)
(0.000290593 -5.29481 0)
(0.000117241 -5.35167 0)
(4.14121e-05 -5.37629 0)
(2.77027e-05 -5.38537 0)
(2.25123e-05 -5.38745 0)
(-1.91482e-05 -5.38658 0)
(-0.000115961 -5.38431 0)
(-0.000266282 -5.38045 0)
(-0.00047462 -5.37315 0)
(-0.000723275 -5.35812 0)
(-0.000980041 -5.32701 0)
(-0.00117119 -5.26369 0)
(-0.00134422 -5.13809 0)
(-0.00140224 -4.89584 0)
(-0.00149507 -4.44119 0)
(0.00121296 -3.35297 0)
(-0.00119294 -3.38188 0)
(0.00087043 -4.47644 0)
(0.000659562 -4.93224 0)
(0.000953752 -5.17241 0)
(0.000805572 -5.29322 0)
(0.000615208 -5.3505 0)
(0.000429462 -5.37548 0)
(0.000259496 -5.38473 0)
(8.4955e-05 -5.38683 0)
(-0.000121751 -5.38592 0)
(-0.000370564 -5.38356 0)
(-0.00068466 -5.37957 0)
(-0.00106518 -5.3721 0)
(-0.00147823 -5.35696 0)
(-0.00183552 -5.3258 0)
(-0.00201007 -5.26234 0)
(-0.0020203 -5.13655 0)
(-0.00148968 -4.89392 0)
(-0.00168426 -4.43953 0)
(0.0017918 -3.35334 0)
(0.000596861 -3.38254 0)
(0.00131075 -4.4779 0)
(0.000586581 -4.93195 0)
(0.000673116 -5.17146 0)
(0.000358629 -5.29233 0)
(0.000143647 -5.34977 0)
(-6.95457e-06 -5.37489 0)
(-0.000122921 -5.38419 0)
(-0.000248223 -5.38628 0)
(-0.000404167 -5.3853 0)
(-0.000606837 -5.38283 0)
(-0.000860183 -5.3787 0)
(-0.00117331 -5.37109 0)
(-0.00150391 -5.35584 0)
(-0.00175237 -5.32465 0)
(-0.00186916 -5.26144 0)
(-0.00172734 -5.13587 0)
(-0.00118742 -4.89328 0)
(-0.00137697 -4.43949 0)
(-0.000274869 -3.35373 0)
(0.00272481 -3.38624 0)
(0.00114505 -4.48105 0)
(0.000636023 -4.93363 0)
(0.000405939 -5.17265 0)
(-8.92056e-06 -5.29335 0)
(-0.000264216 -5.3506 0)
(-0.000408493 -5.37546 0)
(-0.000483401 -5.38454 0)
(-0.000556562 -5.38645 0)
(-0.000647318 -5.38534 0)
(-0.000762275 -5.38275 0)
(-0.000904228 -5.37856 0)
(-0.00106841 -5.37093 0)
(-0.00123604 -5.35574 0)
(-0.00137211 -5.32483 0)
(-0.00145881 -5.26207 0)
(-0.00133512 -5.13699 0)
(-0.00109674 -4.8948 0)
(-0.00101751 -4.44185 0)
(-0.00200559 -3.35665 0)
(0.00240531 -3.38682 0)
(0.000795069 -4.48154 0)
(0.000569483 -4.93333 0)
(0.000690605 -5.1721 0)
(0.000492018 -5.29315 0)
(0.000246313 -5.35062 0)
(-3.62368e-05 -5.37551 0)
(-0.000309103 -5.38454 0)
(-0.000564816 -5.38641 0)
(-0.000809372 -5.38526 0)
(-0.00104531 -5.38271 0)
(-0.00125132 -5.37862 0)
(-0.00140781 -5.37117 0)
(-0.00152093 -5.35623 0)
(-0.00155267 -5.32566 0)
(-0.00151407 -5.26355 0)
(-0.00132329 -5.13935 0)
(-0.00111584 -4.89798 0)
(-0.000710654 -4.44496 0)
(-0.00182318 -3.3599 0)
(0.00259901 -3.38719 0)
(0.00048815 -4.4789 0)
(0.000340023 -4.9302 0)
(0.000592428 -5.16965 0)
(0.000550836 -5.29129 0)
(0.000317629 -5.34914 0)
(-4.90826e-05 -5.37432 0)
(-0.000473169 -5.38355 0)
(-0.000904311 -5.38557 0)
(-0.00132221 -5.38453 0)
(-0.00171936 -5.38209 0)
(-0.00208913 -5.37814 0)
(-0.00240756 -5.37088 0)
(-0.00264311 -5.35616 0)
(-0.00282183 -5.32588 0)
(-0.00280605 -5.26421 0)
(-0.00259246 -5.1406 0)
(-0.00197871 -4.89977 0)
(-0.000334245 -4.44664 0)
(-0.000470081 -3.36227 0)
(0.00333161 -3.38857 0)
(0.000445578 -4.48022 0)
(-0.000151886 -4.93022 0)
(-0.000455215 -5.16941 0)
(-0.000520337 -5.2908 0)
(-0.000728959 -5.34839 0)
(-0.00101451 -5.37342 0)
(-0.00136407 -5.38266 0)
(-0.00174562 -5.38468 0)
(-0.00213897 -5.38363 0)
(-0.0025543 -5.38117 0)
(-0.00296502 -5.37724 0)
(-0.00337091 -5.37001 0)
(-0.00372367 -5.35532 0)
(-0.00397219 -5.32504 0)
(-0.00396669 -5.26344 0)
(-0.00360948 -5.14044 0)
(-0.00248677 -4.89999 0)
(-0.000340129 -4.4466 0)
(0.000482242 -3.3616 0)
(0.00205297 -3.39223 0)
(-5.8542e-05 -4.48104 0)
(-0.000434624 -4.93124 0)
(-0.000909867 -5.17029 0)
(-0.00102849 -5.29131 0)
(-0.0012685 -5.34842 0)
(-0.00159123 -5.37314 0)
(-0.00193687 -5.38221 0)
(-0.00228513 -5.38411 0)
(-0.00262571 -5.38298 0)
(-0.00295921 -5.3804 0)
(-0.00328896 -5.37637 0)
(-0.00360355 -5.36911 0)
(-0.00384564 -5.3544 0)
(-0.00393294 -5.32412 0)
(-0.00384805 -5.26281 0)
(-0.0034317 -5.14068 0)
(-0.00243492 -4.90163 0)
(-0.000968216 -4.44945 0)
(-0.000732996 -3.3594 0)
(7.46268e-05 -3.39308 0)
(-0.000380807 -4.47912 0)
(-0.000556769 -4.93062 0)
(-0.000674624 -5.16986 0)
(-0.000906217 -5.29071 0)
(-0.00126343 -5.34782 0)
(-0.00168975 -5.37258 0)
(-0.00209117 -5.38167 0)
(-0.002456 -5.38362 0)
(-0.00277213 -5.38251 0)
(-0.00303987 -5.37998 0)
(-0.00324399 -5.37599 0)
(-0.00338647 -5.36883 0)
(-0.00343593 -5.35436 0)
(-0.00332328 -5.32442 0)
(-0.0031193 -5.26344 0)
(-0.00279313 -5.14187 0)
(-0.00227266 -4.90405 0)
(-0.00141375 -4.45318 0)
(-0.00218553 -3.36103 0)
(0.000233277 -3.39113 0)
(-0.000510839 -4.47957 0)
(-0.00072365 -4.93135 0)
(-0.000727682 -5.16981 0)
(-0.00104294 -5.28997 0)
(-0.00148136 -5.34689 0)
(-0.00196198 -5.37169 0)
(-0.00238597 -5.38094 0)
(-0.00275337 -5.38304 0)
(-0.00304077 -5.38207 0)
(-0.00324933 -5.37972 0)