/*--------------------------------*- C++ -*----------------------------------*\
  =========                 |
  \\      /  F ield         | OpenFOAM: The Open Source CFD Toolbox
   \\    /   O peration     | Website:  https://openfoam.org
    \\  /    A nd           | Version:  6
     \\/     M anipulation  |
\*---------------------------------------------------------------------------*/
FoamFile
{
    version     2.0;
    format      ascii;
    class       volScalarField;
    location    "22";
    object      epsilon;
}
// * * * * * * * * * * * * * * * * * * * * * * * * * * * * * * * * * * * * * //

dimensions      [0 2 -3 0 0 0 0];

internalField   nonuniform List<scalar> 
130000
(
14.4562
14.2131
13.9631
13.7117
13.4585
13.204
12.9499
12.6986
12.4528
12.2152
11.9888
11.7759
11.5786
11.3986
11.2371
11.0948
10.9718
10.8681
10.7831
10.7163
14.4797
14.2371
13.9874
13.7359
13.482
13.2266
12.9714
12.7188
12.4717
12.2329
12.0054
11.7915
11.5934
11.4128
11.2509
11.1082
10.985
10.8811
10.7961
10.7293
14.5006
14.2585
14.0089
13.7571
13.5025
13.246
12.9896
12.7358
12.4872
12.247
12.0179
11.8025
11.6031
11.4213
11.2584
11.1151
10.9915
10.8876
10.8027
10.7362
14.518
14.276
14.0262
13.7739
13.5185
13.261
13.0031
12.7475
12.4971
12.2549
12.0238
11.8067
11.606
11.4233
11.2597
11.1159
10.992
10.8881
10.8035
10.7375
14.5302
14.288
14.0379
13.7849
13.5283
13.2691
13.0092
12.7518
12.4998
12.2562
12.0238
11.8058
11.6043
11.421
11.257
11.1129
10.989
10.8852
10.8008
10.7353
14.5379
14.295
14.0439
13.7894
13.5312
13.2706
13.0092
12.7507
12.4978
12.2536
12.021
11.8028
11.6011
11.4177
11.2536
11.1096
10.9859
10.8823
10.7983
10.7331
14.542
14.2979
14.0454
13.7892
13.5299
13.2682
13.0064
12.7472
12.4937
12.2491
12.0163
11.798
11.5963
11.413
11.2491
11.1054
10.9821
10.8789
10.7953
10.7305
14.5448
14.2989
14.0449
13.7877
13.5272
13.2645
13.0018
12.742
12.488
12.243
12.0101
11.7917
11.5902
11.4072
11.2438
11.1006
10.9778
10.8751
10.7921
10.7279
14.5469
14.2994
14.0438
13.7852
13.5234
13.2596
12.996
12.7354
12.4809
12.2356
12.0026
11.7844
11.5832
11.4006
11.2377
11.0951
10.9729
10.8709
10.7886
10.725
14.5489
14.2997
14.0424
13.7822
13.519
13.254
12.9893
12.728
12.473
12.2275
11.9945
11.7764
11.5756
11.3935
11.2312
11.0893
10.9678
10.8666
10.785
10.7222
14.5513
14.3002
14.0412
13.7793
13.5145
13.2481
12.9824
12.7202
12.4647
12.219
11.9859
11.7681
11.5676
11.3861
11.2244
11.0833
10.9626
10.8622
10.7814
10.7193
14.5542
14.3014
14.0407
13.7768
13.5103
13.2425
12.9756
12.7125
12.4564
12.2104
11.9773
11.7597
11.5597
11.3787
11.2177
11.0773
10.9575
10.8579
10.7779
10.7166
14.5578
14.3031
14.0406
13.7747
13.5064
13.2371
12.969
12.705
12.4483
12.2019
11.9688
11.7514
11.5518
11.3713
11.2111
11.0714
10.9524
10.8537
10.7745
10.7139
14.5617
14.3049
14.0405
13.7729
13.5031
13.2322
12.9629
12.698
12.4406
12.1939
11.9607
11.7434
11.5441
11.3642
11.2047
11.0658
10.9476
10.8497
10.7713
10.7114
14.5663
14.3076
14.0411
13.7722
13.5006
13.2281
12.9574
12.6914
12.4334
12.1862
11.9529
11.7358
11.5368
11.3575
11.1986
11.0604
10.9431
10.8459
10.7683
10.7092
14.5721
14.3114
14.043
13.7723
13.4991
13.2249
12.9528
12.6857
12.4268
12.1791
11.9456
11.7286
11.53
11.3511
11.1928
11.0554
10.9388
10.8425
10.7658
10.7077
14.5789
14.3163
14.0457
13.7728
13.4982
13.2223
12.9489
12.6806
12.4209
12.1727
11.9389
11.7219
11.5236
11.3451
11.1874
11.0507
10.9349
10.8394
10.7636
10.7063
14.587
14.3223
14.0496
13.7746
13.4979
13.2209
12.946
12.6765
12.4158
12.167
11.9329
11.7158
11.5177
11.3396
11.1825
11.0465
10.9314
10.8366
10.7614
10.7047
14.5961
14.3293
14.0546
13.7775
13.499
13.2207
12.9443
12.6733
12.4115
12.1619
11.9275
11.7103
11.5123
11.3346
11.178
11.0426
10.9282
10.8341
10.7595
10.7032
14.6065
14.3377
14.0608
13.7816
13.501
13.2209
12.9433
12.6708
12.4079
12.1576
11.9228
11.7054
11.5076
11.3302
11.1741
11.0392
10.9255
10.832
10.758
10.7022
14.6182
14.3475
14.0683
13.7868
13.504
13.2216
12.9425
12.669
12.4052
12.1541
11.9188
11.7012
11.5034
11.3263
11.1706
11.0363
10.9233
10.8307
10.7574
10.7019
14.6314
14.3585
14.0771
13.7933
13.5082
13.2237
12.9427
12.6684
12.4035
12.1516
11.9156
11.6978
11.4999
11.323
11.1678
11.034
10.9217
10.8299
10.7566
10.7012
14.6457
14.3708
14.0871
13.801
13.5135
13.2269
12.9442
12.6686
12.4028
12.15
11.9133
11.6951
11.4972
11.3204
11.1655
11.0322
10.9203
10.8288
10.7552
10.6998
14.6616
14.3845
14.0986
13.81
13.5202
13.2312
12.9465
12.6691
12.4028
12.1491
11.9117
11.6931
11.4951
11.3186
11.164
11.0312
10.9196
10.8284
10.7552
10.7001
14.6789
14.3998
14.1115
13.8204
13.5281
13.2368
12.9499
12.6708
12.403
12.1487
11.9109
11.6919
11.4937
11.3172
11.1629
11.0303
10.9191
10.8284
10.7561
10.7017
14.6978
14.4166
14.1259
13.8322
13.5373
13.2436
12.9545
12.6733
12.4038
12.1489
11.9108
11.6916
11.493
11.3163
11.1619
11.0295
10.9187
10.8282
10.7566
10.7027
14.718
14.4348
14.1417
13.8454
13.5479
13.2516
12.9602
12.677
12.4057
12.1493
11.9109
11.6917
11.4931
11.3165
11.1622
11.0297
10.919
10.8278
10.7562
10.7025
14.74
14.4548
14.1592
13.8603
13.5601
13.2611
12.9673
12.6818
12.4087
12.1508
11.9111
11.6915
11.4932
11.3166
11.1623
11.0298
10.9185
10.8279
10.7565
10.7026
14.7638
14.4766
14.1786
13.8769
13.5739
13.2722
12.9757
12.688
12.4128
12.1531
11.9121
11.6914
11.4929
11.3158
11.1612
11.0285
10.9172
10.8271
10.7556
10.7017
14.7894
14.5004
14.1999
13.8955
13.5895
13.2849
12.9857
12.6955
12.4181
12.1567
11.9141
11.6922
11.493
11.3153
11.1605
11.0279
10.9169
10.8263
10.755
10.7018
14.817
14.5262
14.2233
13.916
13.607
13.2995
12.9974
12.7046
12.4249
12.1614
11.9171
11.6938
11.4933
11.3153
11.1605
11.0281
10.9172
10.826
10.7552
10.702
14.8469
14.5544
14.249
13.9388
13.6268
13.3161
13.0111
12.7155
12.4333
12.1676
11.9214
11.6965
11.4944
11.3155
11.1604
11.0284
10.9177
10.8271
10.7562
10.7031
14.8792
14.585
14.2772
13.9641
13.6489
13.335
13.0269
12.7284
12.4436
12.1757
11.9275
11.7009
11.4974
11.3175
11.1614
11.0287
10.918
10.8282
10.7578
10.7048
14.9142
14.6185
14.3084
13.9923
13.6738
13.3566
13.0453
12.7437
12.4563
12.1859
11.9357
11.7073
11.5023
11.3211
11.1639
11.0299
10.9186
10.8285
10.7578
10.7048
14.952
14.655
14.3426
14.0236
13.7018
13.3812
13.0665
12.7618
12.4715
12.1986
11.9462
11.716
11.5095
11.327
11.1686
11.0337
10.9214
10.8302
10.759
10.7058
14.9933
14.6951
14.3804
14.0584
13.7333
13.4091
13.091
12.783
12.4898
12.2143
11.9596
11.7275
11.5194
11.3355
11.1761
11.0403
10.9272
10.8354
10.7637
10.7102
15.0381
14.7389
14.4221
14.0971
13.7685
13.4408
13.119
12.8077
12.5113
12.2331
11.9761
11.7419
11.5322
11.3469
11.1864
11.0496
10.9358
10.8433
10.771
10.717
15.087
14.7871
14.4682
14.1402
13.8081
13.4766
13.1512
12.8363
12.5367
12.2555
11.996
11.7597
11.5482
11.3614
11.1997
11.0619
10.9472
10.854
10.781
10.7262
15.1403
14.8399
14.519
14.1881
13.8525
13.5171
13.1878
12.8692
12.5661
12.2819
12.0197
11.7811
11.5676
11.3793
11.2162
11.0772
10.9616
10.8675
10.7937
10.7381
15.1987
14.8981
14.5754
14.2415
13.9022
13.5628
13.2294
12.9069
12.6003
12.3128
12.0477
11.8067
11.5911
11.401
11.2364
11.0961
10.9794
10.8842
10.8095
10.753
15.2624
14.962
14.6377
14.3008
13.9578
13.6143
13.2767
12.9501
12.6396
12.3487
12.0805
11.8368
11.6189
11.4268
11.2606
11.1189
11.0008
10.9046
10.8287
10.7711
15.3323
15.0325
14.7067
14.367
14.0202
13.6724
13.3304
12.9995
12.6849
12.3903
12.1189
11.8722
11.6518
11.4576
11.2895
11.1462
11.0267
10.9291
10.8519
10.7931
15.4089
15.1102
14.7833
14.4407
14.09
13.7379
13.3913
13.0558
12.737
12.4384
12.1634
11.9136
11.6905
11.4939
11.3237
11.1786
11.0574
10.9582
10.8796
10.8193
15.4933
15.1962
14.8684
14.5231
14.1685
13.8118
13.4604
13.1202
12.7968
12.494
12.2152
11.962
11.7359
11.5367
11.3642
11.217
11.0939
10.993
10.9126
10.8506
15.586
15.2913
14.963
14.6152
14.2567
13.8953
13.5389
13.1937
12.8654
12.5581
12.2752
12.0184
11.7891
11.5869
11.4118
11.2623
11.1371
11.0341
10.9518
10.8877
15.6885
15.3969
15.0686
14.7185
14.3561
13.99
13.6283
13.2778
12.9444
12.6323
12.345
12.0842
11.8513
11.646
11.468
11.3159
11.1882
11.0829
10.9982
10.9319
15.8017
15.5144
15.1866
14.8345
14.4683
14.0973
13.7303
13.3742
13.0355
12.7182
12.4262
12.1611
11.9243
11.7155
11.5343
11.3792
11.2487
11.1407
11.0533
10.9842
15.9274
15.6454
15.319
14.9652
14.5955
14.2195
13.847
13.4851
13.1407
12.818
12.5209
12.2511
12.0101
11.7974
11.6126
11.4541
11.3205
11.2094
11.1189
11.0466
16.0672
15.792
15.468
15.113
14.7399
14.3591
13.9809
13.6131
13.2627
12.9342
12.6317
12.3569
12.1112
11.8942
11.7055
11.5432
11.4059
11.2911
11.197
11.1209
16.2234
15.9568
15.6362
15.2809
14.9048
14.5193
14.1354
13.7615
13.4048
13.0703
12.762
12.4818
12.231
12.0093
11.8161
11.6495
11.508
11.3889
11.2905
11.2098
16.3983
16.1425
15.827
15.4724
15.0939
14.704
14.3146
13.9344
13.5714
13.2305
12.9161
12.6301
12.3738
12.1468
11.9485
11.777
11.6306
11.5066
11.4029
11.3169
16.5951
16.353
16.0446
15.6921
15.3121
14.9184
14.5237
14.1374
13.7679
13.4206
13.0997
12.8075
12.5452
12.3124
12.1085
11.9313
11.7791
11.6492
11.5393
11.4466
16.8173
16.5926
16.2942
15.9457
15.5657
15.1692
14.7698
14.3778
14.002
13.648
13.3206
13.0218
12.7531
12.5138
12.3034
12.1196
11.9606
11.8235
11.706
11.6051
17.07
16.8675
16.5827
16.2411
15.8632
15.4654
15.0624
14.6654
14.2837
13.9234
13.5893
13.2837
13.008
12.7617
12.5438
12.3523
12.1851
12.0391
11.9121
11.8009
17.3591
17.1852
16.9192
16.5885
16.2158
15.8191
15.4145
15.0139
14.6274
14.2613
13.9209
13.6085
13.3254
13.0711
12.8448
12.644
12.4666
12.3096
12.1704
12.0458
17.6924
17.5559
17.3159
17.002
16.6392
16.2476
15.8445
15.4428
15.0533
14.6829
14.337
14.018
13.7274
13.4644
13.2281
13.0161
12.826
12.6547
12.4996
12.3573
18.0795
17.993
17.7895
17.501
17.1554
16.7748
16.3783
15.9798
15.5908
15.2188
14.8693
14.5447
14.2467
13.9743
13.7265
13.5005
13.2941
13.1039
12.9273
12.7609
18.5358
18.5159
18.3636
18.1132
17.7956
17.4355
17.0537
16.6655
16.2831
15.9142
15.5648
15.2372
14.9328
14.6505
14.3891
14.1458
13.9179
13.7021
13.4958
13.2956
19.0816
19.1495
19.0708
18.8773
18.6043
18.2795
17.9257
17.5593
17.1935
16.8364
16.4938
16.168
15.8599
15.5682
15.2912
15.0257
14.7691
14.5179
14.2695
14.0209
19.7483
19.9341
19.9582
19.8488
19.6454
19.3786
19.0734
18.7478
18.4155
18.0847
17.761
17.4461
17.1403
16.8413
16.547
16.2536
15.9582
15.6572
15.3484
15.029
20.57
20.925
21.0879
21.1048
21.0088
20.8348
20.6106
20.3554
20.0838
19.8034
19.5193
19.2317
18.9398
18.6397
18.3281
18.0001
17.6525
17.2814
16.885
16.4614
21.5958
22.1968
22.5613
22.7514
22.8198
22.7907
22.6959
22.5565
22.3877
22.1961
21.985
21.7525
21.4955
21.2074
20.8826
20.5144
20.0983
19.63
19.1083
18.5324
22.8972
23.8375
24.5092
24.9574
25.2469
25.44
25.5422
25.583
25.5796
25.5333
25.4454
25.3111
25.1237
24.8721
24.5466
24.1368
23.6362
23.0389
22.3436
21.5507
24.5682
25.9809
27.0788
27.9102
28.5462
29.0382
29.4172
29.7165
29.9712
30.1444
30.2444
30.2672
30.2013
30.0256
29.7247
29.2828
28.6889
27.9333
27.0132
25.9283
26.7273
28.7895
30.4773
31.8379
32.9527
33.8819
34.6699
35.3439
35.9166
36.379
36.7236
36.9699
37.0974
37.0501
36.8134
36.3646
35.6863
34.7614
33.5809
32.1391
29.5235
32.462
34.9438
37.0116
38.7611
40.2641
41.5734
42.7185
43.7139
44.5563
45.2385
45.7438
46.0667
46.199
46.0703
45.6545
44.9259
43.8552
42.4206
40.6017
33.1373
37.2272
40.7389
43.7064
46.2453
48.444
50.3679
52.0549
53.5271
54.7862
55.8283
56.6363
57.1933
57.4921
57.5112
57.1707
56.4438
55.2871
53.6596
51.5149
37.7802
43.3343
48.1224
52.1697
55.6226
58.5973
61.1823
63.4325
65.3836
67.0492
68.4355
69.5316
70.3252
70.8012
70.9588
70.7163
70.0404
68.8711
67.1445
64.7816
43.6898
51.0347
57.3256
62.5903
67.028
70.8021
74.0393
76.8236
79.2145
81.2439
82.9315
84.2778
85.2805
85.924
86.1974
86.0567
85.4682
84.3472
82.6061
80.1364
51.1192
60.563
68.5321
75.0906
80.5257
85.0737
88.9173
92.1818
94.958
97.2998
99.2439
100.804
101.985
102.776
103.16
103.112
102.623
101.584
99.8783
97.3749
60.3197
72.1169
81.8708
89.7402
96.1445
101.419
105.815
109.509
112.624
115.24
117.41
119.16
120.503
121.431
121.923
121.962
121.568
120.625
118.976
116.471
71.5195
85.8468
97.425
106.583
113.913
119.868
124.776
128.863
132.289
135.157
137.539
139.469
140.971
142.04
142.661
142.796
142.463
141.616
140.032
137.537
84.9053
101.856
115.25
125.658
133.875
140.475
145.867
150.326
154.047
157.156
159.739
161.847
163.506
164.717
165.463
165.7
165.454
164.705
163.198
160.726
100.611
120.206
135.382
147.002
156.073
163.292
169.145
173.957
177.954
181.287
184.062
186.339
188.153
189.51
190.388
190.739
190.588
189.951
188.551
186.136
118.715
140.928
157.839
170.632
180.521
188.326
194.605
199.733
203.97
207.496
210.433
212.859
214.819
216.321
217.345
217.834
217.797
217.284
216.04
213.745
139.249
164.016
182.602
196.513
207.164
215.491
222.127
227.497
231.902
235.551
238.591
241.12
243.195
244.835
246.026
246.719
246.846
246.435
245.413
243.329
162.194
189.416
209.586
224.519
235.826
244.556
251.419
256.899
261.34
264.987
268.019
270.559
272.681
274.419
275.76
276.655
277.01
276.837
276.108
274.376
187.479
217.004
238.607
254.395
266.167
275.092
281.963
287.328
291.585
295.025
297.866
300.262
302.313
304.07
305.534
306.655
307.321
307.478
307.156
305.998
214.97
246.562
269.345
285.706
297.631
306.416
312.946
317.847
321.582
324.499
326.865
328.876
330.666
332.314
333.843
335.223
336.361
337.1
337.308
336.882
244.447
277.743
301.309
317.8
329.398
337.534
343.205
347.129
349.848
351.783
353.263
354.54
355.784
357.11
358.573
360.169
361.821
363.377
364.589
365.166
275.597
310.061
333.812
349.778
360.344
367.102
371.18
373.411
374.435
374.748
374.776
374.864
375.174
375.874
377.063
378.791
381.001
383.54
386.152
388.488
308.014
342.884
365.969
380.482
389.034
393.41
394.898
394.487
392.956
390.765
388.4
386.241
384.777
384.306
384.914
386.636
389.449
393.294
397.955
403.02
341.212
375.459
396.716
408.515
413.725
414.412
412.084
407.585
401.833
396.044
391.124
387.004
384.063
382.554
382.608
384.202
387.402
392.192
398.39
405.662
374.68
406.959
424.856
432.246
432.548
427.837
419.632
410.234
400.404
390.83
381.766
374.376
368.885
365.531
364.499
365.818
369.519
375.73
384.322
395.078
407.956
436.561
448.988
450.071
443.124
431.121
416.466
400.226
384.172
369.155
355.936
345.037
336.829
331.584
329.507
330.531
334.585
342.137
353.183
367.555
440.735
463.289
468.089
460.134
443.681
422.149
398.343
374.269
351.442
330.924
313.38
299.208
288.64
281.835
278.943
279.846
284.379
293.328
306.893
325.088
472.649
486.663
481.244
460.835
431.703
398.288
364.042
331.436
302.075
276.843
256.105
239.911
228.177
220.824
217.881
219.144
224.516
235.114
251.415
273.729
503.941
506.86
485.944
449.61
404.781
357.682
312.738
272.668
238.774
211.337
190.032
174.281
163.512
157.33
155.624
158.113
165.168
178.203
198.213
225.693
535.857
523.312
482.498
424.638
361.194
300.188
246.687
202.863
168.813
143.487
125.424
113.234
105.862
102.678
103.555
108.368
118.556
135.544
162.536
202.38
569.007
533.312
465.155
382.2
300.115
229.048
173.406
132.849
104.794
86.2617
74.642
68.0256
65.2822
65.8834
69.5883
77.3729
90.9524
113.977
153.363
207.006
603.103
534.104
430.184
320.285
225.75
154.964
107.192
77.0672
59.1354
49.147
44.0501
42.1368
42.6435
45.279
50.8435
60.9051
78.4087
109.61
163.04
255.998
635.164
515.907
368.818
238.103
144.973
88.0351
57.4798
42.3022
34.8708
31.2341
29.7555
29.8195
31.3235
34.7289
41.1006
52.7241
75.3288
116.945
204.683
369.465
650.66
461.043
273.053
144.503
76.7913
47.3792
34.4529
28.1706
24.9468
23.3819
22.9508
23.5158
25.2141
28.6365
35.1074
47.891
76.1327
137.791
282.359
550.905
639.395
355.504
160.334
76.562
45.1991
31.8922
25.4661
22.0881
20.2806
19.4252
19.2728
19.8195
21.3055
24.3655
30.5174
43.6895
75.469
163.687
384.691
759.118
564.716
230.941
99.5816
52.4632
33.8314
25.4545
21.2707
19.0209
17.7846
17.1703
17.0318
17.4302
18.5965
21.1337
26.5568
39.0348
72.1014
173.974
447.379
938.433
540.824
205.048
82.446
43.0594
28.4781
22.0483
18.8663
17.1807
16.2688
15.8132
15.7079
15.9614
16.7786
18.6777
22.925
33.123
61.5166
154.121
454.278
1047.48
682.281
211.863
75.7887
37.9432
24.9365
19.6002
17.1436
15.9542
15.3745
15.1111
15.0401
15.1657
15.6491
16.8784
19.757
26.9185
47.4673
118.883
382.77
1080.32
873.462
221.188
68.1912
32.1977
21.4198
17.5051
15.9529
15.2859
14.9783
14.8442
14.8067
14.854
15.0588
15.6238
17.147
21.1575
33.0671
76.8111
269.067
957.611
893.655
174.784
48.593
24.1187
17.7918
15.7769
15.1184
14.8882
14.8071
14.7661
14.7499
14.7605
14.809
14.9434
15.3568
16.6077
20.6633
36.9034
124.077
586.502
297.34
43.0989
17.7276
15.023
14.79
14.8573
14.8473
14.8229
14.8066
14.8001
14.7972
14.7959
14.8026
14.8372
14.9468
15.2816
16.266
19.1235
31.2189
155.501
10.6336
10.5956
10.5516
10.5106
10.473
10.4389
10.4087
10.3826
10.3608
10.3436
10.331
10.3233
10.3202
10.3218
10.3281
10.339
10.3544
10.3744
10.3989
10.4281
10.6502
10.6116
10.5676
10.5264
10.4885
10.4543
10.4238
10.3975
10.3756
10.3583
10.3457
10.3378
10.3347
10.3362
10.3423
10.3528
10.3678
10.3873
10.4113
10.44
10.6624
10.6238
10.5796
10.5382
10.5001
10.4656
10.435
10.4086
10.3867
10.3695
10.3569
10.3492
10.3463
10.3479
10.3539
10.364
10.3779
10.3963
10.4196
10.4476
10.6728
10.6341
10.5897
10.5481
10.5096
10.4748
10.444
10.4176
10.3961
10.3793
10.367
10.3591
10.3557
10.3566
10.3619
10.3714
10.3851
10.4035
10.4269
10.4548
10.6818
10.6431
10.5987
10.5566
10.5176
10.4821
10.4508
10.4244
10.4029
10.3858
10.3725
10.3632
10.3593
10.3596
10.3645
10.374
10.3882
10.4071
10.4301
10.4582
10.6904
10.652
10.6076
10.565
10.5248
10.488
10.4557
10.4285
10.4064
10.3874
10.3727
10.3624
10.3584
10.3584
10.3632
10.373
10.3881
10.4071
10.4297
10.4577
10.6963
10.658
10.6136
10.5708
10.5301
10.4921
10.4588
10.4303
10.4068
10.3866
10.372
10.3625
10.3585
10.3586
10.363
10.3722
10.387
10.4057
10.4293
10.4567
10.6981
10.6594
10.6149
10.5725
10.5318
10.4937
10.4601
10.4312
10.408
10.3889
10.3745
10.365
10.3609
10.3604
10.3639
10.3722
10.3856
10.404
10.4284
10.4565
10.6985
10.6597
10.6151
10.5725
10.5321
10.4944
10.4612
10.4328
10.4097
10.3903
10.3756
10.3657
10.3606
10.3597
10.363
10.3718
10.3857
10.4043
10.4277
10.4556
10.7007
10.661
10.6159
10.5727
10.5338
10.4969
10.4645
10.4363
10.4124
10.3928
10.3779
10.3678
10.3627
10.3622
10.3664
10.3755
10.3895
10.408
10.4312
10.4588
10.7027
10.6627
10.6179
10.5763
10.5379
10.5025
10.4706
10.4427
10.419
10.3996
10.385
10.3749
10.3699
10.3694
10.3738
10.383
10.3968
10.4151
10.438
10.4654
10.7083
10.6683
10.6238
10.5818
10.5425
10.5058
10.4733
10.4451
10.4216
10.4026
10.3887
10.3799
10.3757
10.3758
10.3808
10.3903
10.4045
10.4231
10.4462
10.4735
10.7146
10.6736
10.628
10.5844
10.5437
10.5061
10.4735
10.4453
10.4219
10.4033
10.3899
10.3818
10.3776
10.378
10.3835
10.3933
10.4078
10.4266
10.4499
10.4774
10.7179
10.6758
10.6283
10.5841
10.5439
10.5073
10.4741
10.4455
10.4221
10.4035
10.3899
10.3811
10.3772
10.378
10.3833
10.3925
10.4067
10.4256
10.4489
10.4765
10.7175
10.6753
10.6277
10.5842
10.5448
10.5078
10.474
10.4452
10.4217
10.4035
10.3897
10.381
10.3778
10.3782
10.383
10.3918
10.4062
10.4254
10.449
10.4768
10.7184
10.6773
10.6313
10.5879
10.5478
10.5109
10.4781
10.4495
10.4261
10.4077
10.3938
10.385
10.381
10.3811
10.3862
10.3964
10.4116
10.4313
10.4554
10.4835
10.721
10.6798
10.6336
10.59
10.5496
10.5129
10.48
10.4512
10.4276
10.4094
10.3956
10.3872
10.3843
10.3852
10.3911
10.4014
10.4163
10.4352
10.4588
10.487
10.7206
10.6789
10.6322
10.5883
10.548
10.5114
10.4792
10.4505
10.4272
10.4092
10.3952
10.3871
10.3845
10.3866
10.393
10.4025
10.4167
10.4349
10.4581
10.4864
10.7209
10.6785
10.6312
10.5869
10.5464
10.51
10.4785
10.4504
10.427
10.4085
10.3952
10.3869
10.3831
10.3855
10.3917
10.4012
10.4158
10.4348
10.4582
10.4858
10.7257
10.6825
10.6346
10.5899
10.549
10.512
10.4794
10.4511
10.4278
10.4094
10.3962
10.3879
10.3847
10.386
10.3922
10.4028
10.4178
10.4369
10.4603
10.4877
10.7329
10.6892
10.641
10.5959
10.5547
10.5175
10.4848
10.4565
10.4333
10.4149
10.4017
10.3934
10.3899
10.3909
10.3967
10.4069
10.4216
10.4406
10.4638
10.4912
10.7418
10.6976
10.6489
10.6035
10.562
10.5245
10.4916
10.4633
10.4401
10.4218
10.4087
10.4005
10.3971
10.3978
10.4034
10.4133
10.4277
10.4463
10.4692
10.4962
10.7519
10.7072
10.658
10.6121
10.5701
10.5322
10.499
10.4705
10.4472
10.4289
10.4159
10.4079
10.4046
10.4053
10.4108
10.4205
10.4347
10.453
10.4755
10.502
10.7636
10.7184
10.6687
10.6222
10.5797
10.5413
10.5076
10.4787
10.4551
10.4365
10.4234
10.4153
10.412
10.4129
10.4185
10.4283
10.4426
10.4609
10.4833
10.5094
10.7771
10.7314
10.6813
10.6343
10.5913
10.5524
10.5182
10.4889
10.4648
10.4459
10.4324
10.4241
10.4208
10.4217
10.4276
10.4377
10.4523
10.4706
10.493
10.5188
10.7928
10.7467
10.6963
10.6489
10.6055
10.5662
10.5316
10.5018
10.4774
10.4582
10.4446
10.4361
10.4327
10.4338
10.4398
10.4502
10.4648
10.4832
10.5055
10.5311
10.8108
10.7645
10.7138
10.6662
10.6224
10.5827
10.5479
10.5178
10.4932
10.4738
10.4601
10.4515
10.4482
10.4493
10.4553
10.4657
10.4803
10.4986
10.5206
10.5457
10.8316
10.7851
10.7343
10.6864
10.6424
10.6025
10.5674
10.5372
10.5124
10.4929
10.479
10.4705
10.4671
10.4682
10.4742
10.4845
10.499
10.517
10.5386
10.5633
10.8554
10.8088
10.758
10.7099
10.6658
10.6256
10.5903
10.5599
10.535
10.5153
10.5014
10.4928
10.4894
10.4904
10.4963
10.5064
10.5207
10.5383
10.5595
10.5835
10.8828
10.8362
10.7854
10.7373
10.693
10.6527
10.6172
10.5866
10.5616
10.5418
10.5278
10.5191
10.5156
10.5165
10.5223
10.5322
10.5461
10.5633
10.5839
10.6071
10.9144
10.8678
10.8172
10.7691
10.7247
10.6842
10.6486
10.6178
10.5926
10.5728
10.5586
10.5498
10.5462
10.5469
10.5525
10.562
10.5756
10.5922
10.612
10.6342
10.9509
10.9045
10.8541
10.8061
10.7617
10.7211
10.6854
10.6544
10.6291
10.609
10.5948
10.5858
10.582
10.5825
10.5878
10.597
10.61
10.6259
10.6448
10.6659
10.9929
10.947
10.897
10.8491
10.8048
10.7642
10.7283
10.6972
10.6717
10.6515
10.6371
10.6279
10.6239
10.6241
10.6291
10.6377
10.65
10.6651
10.6829
10.7027
11.0418
10.9963
10.9469
10.8994
10.8552
10.8146
10.7787
10.7475
10.7218
10.7015
10.6868
10.6774
10.6731
10.673
10.6774
10.6855
10.697
10.711
10.7276
10.7457
11.0984
11.0537
11.0051
10.9582
10.9142
10.8737
10.8378
10.8065
10.7807
10.7601
10.7453
10.7355
10.7308
10.7303
10.7341
10.7414
10.7519
10.7646
10.7796
10.7958
11.1645
11.1208
11.0734
11.0271
10.9837
10.9434
10.9075
10.8762
10.8503
10.8295
10.8143
10.8041
10.799
10.7979
10.801
10.8072
10.8165
10.8277
10.8407
10.8547
11.2417
11.1995
11.1535
11.1083
11.0656
11.0257
10.99
10.9587
10.9326
10.9115
10.896
10.8853
10.8796
10.8778
10.8798
10.8848
10.8925
10.9017
10.9125
10.9236
11.3325
11.2922
11.2484
11.2047
11.1629
11.1237
11.0883
11.057
11.0309
11.0095
10.9934
10.9821
10.9756
10.9727
10.9735
10.9769
10.9826
10.9894
10.9973
11.0051
11.4398
11.4023
11.3613
11.3197
11.2794
11.2411
11.2063
11.1752
11.1489
11.1272
11.1105
11.0983
11.0906
11.0864
11.0855
11.0867
11.0899
11.0937
11.0979
11.1014
11.568
11.5343
11.4972
11.4586
11.4205
11.3836
11.3497
11.319
11.2927
11.2705
11.253
11.2396
11.2303
11.2242
11.2209
11.2194
11.2191
11.2189
11.2185
11.2166
11.7226
11.6944
11.663
11.6286
11.5937
11.5591
11.5266
11.4966
11.4703
11.4475
11.4289
11.4138
11.4023
11.3933
11.3868
11.3813
11.3764
11.3708
11.3643
11.3553
11.9123
11.8921
11.8688
11.8409
11.8108
11.7797
11.7494
11.7205
11.6943
11.6708
11.6506
11.633
11.6183
11.6053
11.5939
11.5827
11.5713
11.5583
11.5433
11.5248
12.1493
12.1411
12.1302
12.1121
12.0895
12.0637
12.037
12.01
11.9842
11.9595
11.9368
11.9155
11.8958
11.8767
11.858
11.8383
11.8174
11.7936
11.7667
11.7351
12.4529
12.4636
12.4717
12.469
12.4583
12.4411
12.4202
12.3963
12.3711
12.3447
12.3182
12.2909
12.2634
12.2346
12.2046
12.172
12.1366
12.0968
12.0524
12.0018
12.8579
12.8956
12.9324
12.9547
12.9631
12.9599
12.9484
12.9296
12.9057
12.8766
12.8439
12.8071
12.7669
12.7226
12.6744
12.6213
12.5631
12.4986
12.4276
12.3484
13.418
13.5013
13.5837
13.6402
13.6799
13.6988
13.7029
13.6929
13.6711
13.638
13.5952
13.5427
13.4818
13.4121
13.3344
13.248
13.1534
13.0496
12.9369
12.8136
14.2139
14.3711
14.5306
14.6492
14.7312
14.7831
14.8148
14.8196
14.802
14.7627
14.7039
14.6259
14.531
14.4195
14.2933
14.1525
13.9986
13.8312
13.6515
13.4584
15.3798
15.6582
15.9427
16.1625
16.3232
16.4289
16.4893
16.52
16.5102
16.4623
16.3785
16.2602
16.1106
15.9315
15.7264
15.497
15.2464
14.9759
14.6879
14.3824
17.124
17.5957
18.0786
18.4583
18.7413
18.9339
19.0467
19.0962
19.1052
19.0476
18.928
18.7485
18.5147
18.2302
17.9012
17.5314
17.1269
16.6912
16.2295
15.7438
19.7515
20.5182
21.2998
21.917
22.3784
22.694
22.8798
22.9607
22.9806
22.9238
22.7574
22.4932
22.1402
21.7038
21.1929
20.6138
19.976
19.2864
18.5547
17.7868
23.6664
24.8479
26.0387
26.9709
27.6607
28.128
28.4029
28.529
28.5624
28.4992
28.2779
27.913
27.4149
26.7881
26.0424
25.1839
24.2249
23.1753
22.0504
20.862
29.315
31.0027
32.667
33.9386
34.8551
35.4603
35.807
35.9587
36.0069
35.9443
35.6797
35.2286
34.5996
33.7904
32.8049
31.641
30.3084
28.8151
27.1799
25.4202
37.0231
39.1949
41.2653
42.7776
43.8142
44.4644
44.8188
44.9636
45.0088
44.9579
44.6865
44.208
43.5272
42.6273
41.4963
40.1057
38.4533
36.5324
34.3528
31.9276
46.7775
49.2308
51.4744
53.0036
53.9507
54.4912
54.7557
54.8504
54.8805
54.8488
54.6123
54.1858
53.5725
52.7439
51.6651
50.2388
48.4588
46.2921
43.7084
40.6835
58.1635
60.5564
62.6919
64.1256
65.0424
65.557
65.7979
65.8958
65.9483
65.9374
65.7067
65.2749
64.6505
63.8094
62.7407
61.395
59.7237
57.6255
54.9649
51.6109
70.7974
73.2995
75.5372
77.0337
77.9849
78.5127
78.7665
78.879
78.9534
78.9644
78.732
78.2847
77.6383
76.765
75.6536
74.2482
72.5028
70.3209
67.619
64.2479
85.3604
88.1288
90.6129
92.2998
93.3912
94.0076
94.3035
94.4543
94.5953
94.6214
94.3776
93.8972
93.193
92.2326
91.0079
89.4625
87.5592
85.2021
82.2961
78.6672
102.422
105.62
108.495
110.469
111.774
112.539
112.924
113.178
113.422
113.374
113.118
112.606
111.839
110.779
109.418
107.694
105.567
102.929
99.6829
95.6421
122.547
126.308
129.708
132.07
133.659
134.623
135.134
135.46
135.75
135.731
135.51
134.986
134.159
132.989
131.469
129.529
127.124
124.135
120.449
115.851
146.275
150.742
154.803
157.665
159.636
160.889
161.623
162.056
162.256
162.251
162.18
161.666
160.781
159.49
157.789
155.601
152.874
149.47
145.256
139.976
174.169
179.497
184.373
187.858
190.309
191.92
192.874
193.408
193.749
193.842
193.864
193.358
192.413
190.993
189.093
186.625
183.528
179.641
174.81
168.73
206.818
213.185
219.048
223.305
226.37
228.472
229.798
230.473
230.864
231.193
231.319
230.826
229.825
228.273
226.159
223.383
219.87
215.437
209.897
202.893
244.819
252.419
259.465
264.659
268.481
271.202
273.044
274.111
274.691
275.087
275.311
274.856
273.822
272.15
269.819
266.715
262.746
257.704
251.364
243.309
288.743
297.795
306.238
312.555
317.295
320.774
323.252
324.81
325.659
326.224
326.585
326.244
325.229
323.465
320.926
317.484
313.03
307.323
300.098
290.867
339.081
349.825
359.904
367.55
373.392
377.795
381.058
383.286
384.62
385.336
385.813
385.767
384.829
383.013
380.29
376.517
371.563
365.153
356.969
346.447
396.161
408.853
420.822
430.025
437.178
442.701
446.938
450.034
452.125
453.299
453.949
454.078
453.259
451.448
448.591
444.52
439.076
431.945
422.753
410.847
460.016
474.932
489.045
500.046
508.735
515.589
520.996
525.118
528.107
530.002
531.03
531.329
530.843
529.146
526.249
521.946
516.054
508.218
498.003
484.656
532.415
549.687
566.088
578.983
589.267
597.487
604.08
609.24
613.148
615.823
617.38
618.009
617.756
616.184
613.297
608.826
602.555
594.071
582.866
568.075
615.372
635.186
654.065
668.995
680.982
690.653
698.502
704.765
709.642
713.161
715.394
716.473
716.538
715.189
712.432
707.905
701.339
692.26
680.066
663.766
710.828
733.369
754.907
772.009
785.806
797.019
806.209
813.659
819.598
824.071
827.133
828.821
829.272
828.263
825.763
821.34
814.616
805.053
791.938
774.132
820.604
846.016
870.351
889.728
905.417
918.246
928.854
937.577
944.679
950.225
954.271
956.793
957.825
957.263
955.167
951.072
944.41
934.571
920.708
901.508
946.315
974.64
1001.81
1023.48
1041.07
1055.53
1067.59
1077.65
1086.01
1092.76
1097.96
1101.54
1103.42
1103.52
1102.03
1098.59
1092.34
1082.57
1068.29
1047.97
1089.37
1120.47
1150.33
1174.14
1193.51
1209.5
1222.96
1234.36
1244.03
1252.11
1258.65
1263.56
1266.73
1267.9
1267.19
1264.72
1259.38
1250.21
1236.02
1215.08
1250.81
1284.27
1316.39
1341.95
1362.74
1379.98
1394.62
1407.22
1418.18
1427.65
1435.71
1442.25
1447.09
1449.85
1450.44
1449.23
1445.55
1437.79
1424.52
1403.76
1430.97
1465.95
1499.51
1526.06
1547.59
1565.5
1580.88
1594.36
1606.43
1617.29
1627.04
1635.57
1642.69
1648.02
1651.01
1651.52
1649.81
1644.36
1633.18
1613.84
1629.04
1664.15
1697.73
1723.98
1745.13
1762.76
1778.08
1791.85
1804.63
1816.7
1828.17
1838.97
1848.89
1857.53
1864.27
1868.24
1869.11
1866.98
1859.41
1843.36
1842.44
1875.5
1906.91
1930.91
1949.96
1965.82
1979.85
1992.94
2005.74
2018.58
2031.66
2044.91
2058.14
2070.91
2082.56
2092.15
2098.34
2100.38
2098.04
2087.73
2066
2093.84
2119.93
2138.87
2153.34
2165.3
2176.27
2187.24
2198.95
2211.83
2226.13
2241.85
2258.8
2276.55
2294.4
2311.37
2326.04
2336.54
2341.11
2338.93
2290.93
2309.24
2325.7
2335.74
2342.28
2347.48
2352.98
2359.88
2368.95
2380.7
2395.49
2413.4
2434.29
2457.76
2483.08
2509.25
2534.88
2558.16
2576.43
2585.9
2503.56
2506.93
2508.23
2504.45
2498.76
2493.55
2490.67
2491.12
2495.52
2504.54
2518.65
2538.08
2562.8
2592.45
2626.3
2663.27
2702.03
2741.12
2777.49
2806.8
2685.91
2666.95
2646.22
2622.57
2599.38
2579.36
2563.41
2553.16
2549.46
2553.21
2564.81
2584.51
2612.39
2648.4
2692.16
2742.91
2798.94
2857.53
2917.06
2972.48
2813.45
2762.29
2708.6
2657.92
2614.56
2582.45
2555.63
2537
2527.35
2526.59
2535.58
2554.57
2583.72
2623.16
2672.76
2732.04
2799.55
2871.68
2954.74
3042.11
2845.81
2764.09
2681.8
2606.59
2539.6
2478.03
2432.4
2400.1
2380.5
2372.28
2375.83
2392.01
2421.05
2463.49
2519.93
2591.17
2678.25
2783.62
2892.74
3007.55
2769.81
2634.57
2508.97
2399.79
2307.37
2232.03
2173.08
2129.5
2100.6
2085.49
2083.37
2095.42
2122.01
2164.17
2223.12
2300.32
2397.15
2514.56
2651.84
2805.4
2520.3
2345.89
2184.83
2049.97
1939.89
1852.11
1784.12
1733.67
1699.24
1679.56
1673.37
1681.22
1703.81
1742.74
1800.04
1878.33
1980.53
2109.49
2266.56
2450.02
2127.61
1919.4
1735.83
1587.66
1470.77
1380.17
1311.5
1261.2
1226.76
1206.36
1198.89
1204.44
1223.54
1258.37