/*--------------------------------*- C++ -*----------------------------------*\
  =========                 |
  \\      /  F ield         | OpenFOAM: The Open Source CFD Toolbox
   \\    /   O peration     | Website:  https://openfoam.org
    \\  /    A nd           | Version:  6
     \\/     M anipulation  |
\*---------------------------------------------------------------------------*/
FoamFile
{
    version     2.0;
    format      ascii;
    class       volScalarField;
    location    "22";
    object      epsilon;
}
// * * * * * * * * * * * * * * * * * * * * * * * * * * * * * * * * * * * * * //

dimensions      [0 2 -3 0 0 0 0];

internalField   nonuniform List<scalar> 
10000
(
263.933
357.435
229.453
145.421
94.1755
64.8074
48.4001
39.2938
34.5963
32.6714
32.8883
35.2487
40.3566
49.6406
66.0171
94.7695
144.396
226.503
352.843
263.986
263.598
357.239
229.404
145.276
93.9435
64.6607
48.3276
39.0928
34.4665
32.6271
32.8495
35.1985
40.2795
49.2829
65.3384
93.7026
143.094
225.461
352.49
263.648
263.276
357.115
229.262
145.156
93.6896
64.5018
48.276
39.1632
34.511
32.5823
32.7767
35.0922
40.2648
49.5196
65.5747
94.2932
144.215
226.458
352.121
263.57
263.894
357.084
228.996
144.839
92.5694
63.8025
48.1862
39.2477
34.5577
32.6359
32.8325
35.1555
40.2198
49.4568
65.539
94.6201
142.979
226.132
352.381
262.851
263.701
356.411
228.534
144.544
92.7657
64.1138
48.2033
39.2208
34.4891
32.6232
32.7609
35.0274
40.1129
49.123
65.581
94.5081
144.115
225.131
351.656
262.63
262.963
356.469
227.287
144.185
92.884
64.4218
48.0482
39.1419
34.588
32.6184
32.7798
35.0388
40.0691
49.1804
65.8231
93.5731
143.054
225.043
351.77
262.211
262.824
356.258
227.438
143.142
93.5531
64.3569
48.4087
39.3999
34.6162
32.6766
32.8021
35.037
39.9189
49.0695
65.8769
93.9788
143.774
224.981
351.137
262.712
262.904
355.615
227.344
144.518
93.0388
63.9294
48.421
39.4057
34.5304
32.6712
32.8545
35.1137
39.8993
49.0809
65.8908
94.4107
144.563
225.341
351.664
262.975
262.911
356.012
227.524
144.308
94.2651
64.5902
48.4898
39.4275
34.6545
32.7058
32.852
35.1316
40.0559
49.0611
65.8528
93.821
144.458
226.195
350.935
263.273
262.796
356.465
228.345
142.751
94.2062
64.9252
48.4925
39.4645
34.7515
32.6838
32.7947
35.0726
40.2221
49.1966
65.9134
93.7752
144.348
225.413
352.003
263.539
262.491
356.541
227.656
144.274
94.166
64.779
48.3774
39.4123
34.771
32.7708
32.8937
35.1996
40.2884
49.4844
66.0068
94.5647
143.659
226.487
352.734
263.667
262.953
356.615
229.217
145.311
94.0616
64.5479
48.0135
39.2001
34.7882
32.7947
32.862
35.1532
40.2721
49.1913
65.9016
93.8019
144.474
225.435
352.669
263.192
262.608
356.348
229.077
145.056
93.2805
64.5631
48.453
39.4871
34.8492
32.8173
32.9722
35.2507
40.3285
49.6752
65.9951
94.6352
144.457
225.87
352.352
264.063
263.201
355.534
228.965
144.803
94.0584
65.3863
48.8888
39.7421
34.9026
32.7849
32.9696
35.2198
40.2749
49.6343
65.7995
93.7812
143.537
226.215
353.008
264.1
264.198
356.168
228.749
144.325
93.5103
65.3401
48.8422
39.7585
34.9276
32.8808
32.9824
35.1209
40.0686
49.5967
65.4112
95.262
144.954
227.181
353.066
263.638
264.395
355.515
228.463
142.702
93.2855
65.3621
48.6124
39.7584
34.93
32.8872
32.991
35.2539
40.264
49.6281
66.0587
95.2538
144.815
227.101
352.9
264.029
264.855
356.477
227.895
144.247
94.5523
65.5667
49.0083
39.7995
34.9226
32.8892
32.9239
35.1629
40.2413
49.5314
66.05
95.1564
144.478
226.842
352.864
263.914
264.972
356.521
229.016
145.473
94.4406
65.5389
49.0358
39.7986
34.823
32.8899
32.9962
35.2264
40.0291
49.0831
65.3342
94.904
143.237
226.531
352.326
264.101
265.127
356.42
228.657
145.285
93.5001
65.3912
48.987
39.7801
34.9403
32.9019
33.0078
35.2552
40.0979
49.2253
65.6637
94.9605
144.496
225.747
352.954
264.285
264.394
355.497
227.337
145.12
94.5126
65.3714
48.9341
39.6285
34.9263
32.904
33.0016
35.2636
40.1303
49.2613
65.9272
94.808
143.635
226.303
352.834
264.593
264.208
355.413
227.358
144
93.6251
65.2393
48.9073
39.7676
34.8685
32.8911
32.9337
35.2717
40.2803
49.4699
65.7835
94.6564
144.594
227.17
353.541
264.392
264.234
355.223
227.268
145.102
94.193
65.1355
48.8291
39.7424
34.9354
32.9061
33.0124
35.2517
40.2449
49.3857
65.1175
93.57
144.22
227.115
353.55
264.399
263.661
355.365
227.275
144.986
93.724
64.8678
48.6998
39.6625
34.8909
32.8707
32.9746
35.1629
40.174
49.3294
65.5498
94.1706
143.731
226.831
353.336
264.354
263.863
355.922
227.409
144.714
94.2553
64.9669
48.3998
39.4378
34.7462
32.7607
32.8846
35.1553
39.9729
48.959
64.9612
93.2355
142.371
226.531
353.34
264.299
264.424
355.874
228.039
144.379
93.9762
64.3619
48.4819
39.4933
34.759
32.7681
32.868
35.0829
40.1471
49.3945
65.7478
94.3995
143.21
225.874
352.52
264.172
264.974
355.743
227.619
142.87
93.0875
64.5058
48.2802
39.5484
34.7381
32.7565
32.8644
35.0832
39.929
49.273
65.5826
94.2054
143.912
226.822
353.155
264.083
264.758
355.523
226.415
144.115
93.8469
64.8692
48.5869
39.5681
34.7746
32.6771
32.8189
35.0438
39.9657
49.1569
65.3938
93.911
142.592
226.489
353.686
263.925
264.503
355.256
226.41
143.833
93.5996
64.7272
48.5257
39.533
34.7568
32.6714
32.7308
34.8868
39.8327
48.7322
64.7437
93.0995
142.791
226.136
353.547
263.679
264.353
354.509
225.962
143.361
93.2247
64.4864
48.3965
39.4753
34.7294
32.6824
32.7136
34.8342
39.6306
48.8721
65.0943
93.6662
143.226
225.731
352.851
263.352
263.783
355.112
225.867
142.967
92.2399
63.7919
48.2494
39.2949
34.6223
32.6515
32.6769
34.7787
39.5242
48.7267
64.887
93.4017
142.865
224.569
353.306
262.89
263.814
354.897
225.516
141.758
92.8785
64.2234
48.1552
39.3798
34.6835
32.6177
32.6508
34.7264
39.4336
48.5406
64.5857
92.9919
142.405
224.907
353.071
262.511
263.547
354.607
225.763
141.627
92.5664
63.7793
47.7425
39.1617
34.5711
32.6114
32.644
34.6926
39.3483
48.1568
64.2897
92.5904
141.88
224.305
352.681
262.195
262.966
353.738
225.211
141.208
92.2585
63.5804
47.7651
39.1813
34.5823
32.5986
32.5936
34.6582
39.3291
48.2579
63.6053
91.4977
140.404
222.495
351.515
261.604
262.666
353.545
223.889
141.24
91.404
63.3865
47.7028
39.1628
34.5952
32.5851
32.6211
34.7014
39.3212
48.0416
63.5382
91.4687
140.419
222.694
352.125
261.064
262.301
353.253
223.697
139.992
91.6678
63.4016
47.7797
39.2148
34.5797
32.5586
32.5889
34.6704
39.4076
48.131
63.6345
91.1786
139.898
222.141
352.314
260.687
262.174
353.07
223.106
140.355
91.4133
63.5343
47.8994
39.1784
34.4749
32.4704
32.4988
34.5568
39.1982
47.9794
63.0913
91.2116
139.787
221.787
351.543
260.009
261.564
352.712
222.39
139.6
90.937
63.3201
47.7615
38.9847
34.4296
32.4516
32.4873
34.5271
39.24
47.8895
63.3301
90.852
138.409
221.734
351.547
259.756
261.371
352.35
221.738
138.836
90.4417
62.6844
47.3831
38.8909
34.3672
32.4038
32.4524
34.4518
39.032
47.7139
63.0239
89.9688
138.218
221.955
351.427
259.752
260.933
351.904
220.939
137.732
89.3581
62.657
47.4171
38.8733
34.3579
32.3836
32.3936
34.374
38.8837
47.3171
62.4435
89.9919
137.674
221.436
351.412
259.662
260.29
351.73
220.223
136.486
89.1173
62.4449
47.2792
38.7655
34.3203
32.3569
32.3584
34.3206
38.7993
47.1683
62.5224
89.6274
137.15
220.038
351.636
259.098
259.69
350.72
219.508
136.028
88.679
61.854
46.9095
38.672
34.2368
32.2931
32.2912
34.2575
38.7
46.9521
61.8729
88.5706
136.557
219.658
350.814
258.712
258.75
350.766
218.712
135.299
88.5562
61.7338
46.9997
38.6486
34.2083
32.2632
32.2544
34.1937
38.6252
46.85
61.6887
88.2202
136.188
218.592
351.02
258.256
258.454
349.736
217.841
134.764
88.1597
61.4802
46.8759
38.5894
34.1928
32.2392
32.2251
34.1326
38.4916
46.6262
61.2081
87.5998
135.548
218.056
350.605
257.916
258.117
349.297
216.788
134.257
87.7061
61.1816
46.574
38.4859
34.1574
32.2273
32.2035
34.0912
38.4219
46.5409
61.0611
87.4258
135.019
217.434
350.167
257.396
257.851
348.776
215.983
133.777
87.301
60.9269
46.4767
38.502
34.18
32.2288
32.1785
34.0352
38.3049
46.3109
60.7609
87.2354
134.689
216.796
349.239
256.951
257.482
348.043
214.979
133.122
86.3503
60.5651
46.2335
38.4232
34.1512
32.2041
32.1572
33.9842
38.2017
46.1182
60.449
86.7031
133.297
215.978
349.379
256.566
256.948
347.541
213.72
132.043
85.7593
60.1896
46.0786
38.2852
34.0797
32.2085
32.1408
33.9193
38.0778
45.8603
59.9915
85.6942
132.43
214.846
348.902
256.054
256.314
346.869
212.652
131.043
85.0836
59.7985
45.8906
38.2222
34.0577
32.1924
32.1113
33.8584
37.9629
45.6744
59.6569
85.0984
131.437
213.502
347.706
255.713
255.362
346.14
211.631
129.99
84.3066
59.3756
45.7244
38.1505
34.0229
32.1558
32.0913
33.8041
37.8524
45.4551
59.2591
84.3267
130.325
212.51
347.555
255.234
254.665
345.214
210.443
128.769
83.5117
59.0047
45.5571
38.1033
34.0103
32.1727
32.0981
33.7703
37.7268
45.1896
58.6767
83.3853
128.948
211.168
346.302
255.07
254.138
344.361
209.35
127.869
82.9248
58.6726
45.4028
37.9735
33.9688
32.1582
32.0883
33.7313
37.6209
44.9706
58.3138
82.7612
127.997
209.985
345.834
254.754
253.573
343.57
208.053
126.636
82.0722
58.2231
45.1885
37.8866
33.9284
32.1365
32.0701
33.7284
37.5339
44.7273
57.7752
81.8384
126.866
208.753
345.305
254.32
253.105
342.793
206.881
125.567
81.3547
57.8077
44.9535
37.7814
33.8899
32.114
32.0351
33.6932
37.454
44.5539
57.4539
81.2251
125.721
207.307
344.107
253.934
252.753
342.002
205.669
124.576
80.7755
57.4769
44.7862
37.6923
33.8159
32.0567
31.9952
33.6128
37.3467
44.3363
57.0274
80.4516
124.591
205.975
342.903
253.345
252.152
341.167
204.411
123.493
80.0367
57.0449
44.5531
37.5781
33.7506
32.02
31.9552
33.5536
37.2308
44.1252
56.6416
79.7999
123.463
204.696
342.08
252.731
251.67
340.347
203.157
122.447
79.3513
56.6266
44.3222
37.4596
33.6885
31.9628
31.8848
33.4616
37.1025
43.8991
56.2366
79.0917
122.391
203.367
341.039
252.274
250.994
339.274
201.754
121.265
78.59
56.2046
44.0965
37.3253
33.5971
31.8931
31.8253
33.3829
36.972
43.6634
55.7908
78.3108
121.132
201.931
340.086
251.775
250.501
338.1
200.26
120.107
77.9021
55.8016
43.8539
37.1735
33.5034
31.8214
31.7414
33.2739
36.8205
43.4186
55.3583
77.5438
119.933
200.393
339.03
250.943
249.97
337.076
198.581
118.805
77.0897
55.3285
43.5806
37.0085
33.3888
31.7406
31.6708
33.1863
36.6814
43.1707
54.9135
76.7622
118.641
198.79
337.915
250.303
249.355
336.052
197.062
117.547
76.2755
54.8409
43.2899
36.8258
33.27
31.6512
31.587
33.0828
36.5229
42.9024
54.4396
75.9284
117.302
197.046
336.552
249.636
248.799
334.78
195.234
116.127
75.3813
54.3263
42.983
36.6392
33.1444
31.549
31.4898
32.9696
36.3623
42.6374
53.974
75.1105
115.969
195.325
335.32
248.96
247.965
333.654
193.437
114.695
74.4802
53.794
42.6682
36.4379
33.004
31.4378
31.3833
32.8428
36.1776
42.3333
53.4443
74.1969
114.506
193.461
333.928
247.858
247.095
332.237
191.614
113.235
73.6006
53.275
42.3364
36.2188
32.8465
31.3075
31.2586
32.7001
35.9858
42.0319
52.9303
73.3074
113.047
191.525
332.411
247.03
246.162
330.993
189.738
111.697
72.6386
52.7166
41.9834
35.9793
32.6761
31.1691
31.123
32.5421
35.7709
41.7055
52.39
72.3595
111.483
189.475
330.786
245.64
244.856
329.6
187.625
110.013
71.6088
52.1224
41.6222
35.7346
32.4927
31.0145
30.9724
32.3712
35.5417
41.3567
51.8153
71.3606
109.825
187.239
329.133
244.444
243.658
328.186
185.46
108.322
70.5349
51.4719
41.2134
35.4663
32.2949
30.8463
30.8078
32.1847
35.2993
41.005
51.243
70.3393
108.085
184.912
327.257
242.836
242.148
326.48
182.921
106.369
69.3314
50.7632
40.7836
35.1725
32.0721
30.6588
30.6249
31.977
35.028
40.6071
50.5984
69.2273
106.238
182.457
325.383
241.667
240.258
324.419
180.27
104.423
68.1393
50.0466
40.3347
34.8591
31.8285
30.4476
30.4179
31.7472
34.7388
40.197
49.9398
68.068
104.245
179.729
323.13
239.737
238.084
321.955
177.277
102.264
66.8497
49.2771
39.8367
34.5021
31.5474
30.2036
30.1808
31.4861
34.4097
39.7231
49.1949
66.8169
102.143
176.839
320.804
237.991
235.577
319.089
173.99
100.028
65.5383
48.4816
39.3124
34.1205
31.2377
29.9273
29.9093
31.1901
34.05
39.2205
48.3842
65.4459
99.8648
173.518
317.786
235.531
232.551
315.613
170.121
97.5174
64.0811
47.61
38.7408
33.6949
30.8809
29.6022
29.5874
30.8394
33.6262
38.648
47.5188
64.015
97.4424
169.903
314.456
233.126
229.099
311.436
165.803
94.7934
62.5447
46.6663
38.091
33.2007
30.4714
29.2275
29.2147
30.4392
33.1573
38.0316
46.5882
62.4707
94.7802
165.671
310.075
229.545
224.859
306.156
160.937
91.7588
60.8075
45.6211
37.3827
32.6566
30.0021
28.7946
28.7861
29.9788
32.6178
37.331
45.567
60.8033
91.8358
160.85
304.854
225.438
220.005
299.778
155.591
88.5377
58.9772
44.4809
36.5842
32.0332
29.4697
28.2962
28.2859
29.4439
32.0041
36.5627
44.4694
58.9794
88.5889
155.438
298.426
220.414
214.515
292.158
149.7
85.1015
57.0423
43.2803
35.7333
31.3574
28.8778
27.7411
27.7327
28.8547
31.3257
35.7008
43.2497
57.0347
85.1346
149.505
290.698
214.641
208.465
283.312
143.435
81.5652
55.0068
41.9722
34.7937
30.5987
28.2131
27.1143
27.1058
28.1931
30.5812
34.7866
41.99
55.0349
81.5482
143.11
281.698
208.211
202.143
273.273
136.808
77.9502
52.9424
40.6424
33.8103
29.7849
27.481
26.4226
26.421
27.4768
29.7813
33.8104
40.6526
52.9468
77.8675
136.36
271.597
201.589
195.638
262.198
130.005
74.342
50.8544
39.2443
32.7442
28.8913
26.6778
25.6589
25.6611
26.6851
28.9123
32.7866
39.3086
50.8999
74.2375
129.462
260.48
194.708
189.87
250.479
123.221
70.8172
48.826
37.8694
31.66
27.952
25.8199
24.8428
24.8527
25.8503
28.0066
31.7362
37.958
48.8907
70.7336
122.703
248.945
188.98
184.726
238.202
116.551
67.4378
46.8328
36.4535
30.5225
26.9677
24.9185
23.9798
23.9949
24.965
27.0523
30.6488
36.6094
46.9788
67.4701
116.19
236.99
183.856
180.863
225.849
110.196
64.2989
44.948
35.0842
29.3983
25.9746
23.9983
23.0951
23.1153
24.0602
26.0855
29.5653
35.3006
45.1778
64.45
110.089
225.287
180.868
179.493
213.753
104.249
61.4152
43.1887
33.7697
28.2972
24.9923
23.0832
22.211
22.232
23.1483
25.1103
28.4809
34.0261
43.5013
61.7097
104.422
213.845
179.705
178.294
202.205
98.8088
58.7997
41.5597
32.5277
27.2445
24.0476
22.2025
21.3611
21.3807
22.2663
24.1635
27.4261
32.7887
41.9021
59.1844
99.1713
202.667
179.446
178.662
191.544
93.9646
56.4691
40.0737
31.3783
26.2646
23.1655
21.3772
20.5614
20.5781
21.4313
23.2644
26.4211
31.6083
40.3887
56.8482
94.3766
192.157
179.106
179.283
181.891
89.6116
54.4137
38.7598
30.3495
25.3787
22.364
20.6252
19.8309
19.8432
20.6657
22.4387
25.4985
30.5301
39.0141
54.7226
89.9176
182.309
179.636
183.693
173.091
85.5384
52.6044
37.6062
29.4332
24.5833
21.6427
19.9476
19.1723
19.1801
19.9734
21.6895
24.6587
29.5478
37.7738
52.8368
85.8311
173.467
183.739
187.804
164.979
82.1055
51.1
36.5973
28.6083
23.8615
20.9892
19.3364
18.5801
18.5845
19.3511
21.0166
23.907
28.6786
36.6999
51.2346
82.2429
165.125
187.635
194.1
157.604
79.2806
49.8385
35.697
27.8502
23.195
20.3885
18.7789
18.0431
18.0452
18.7859
20.4011
23.2141
27.8788
35.739
49.9036
79.3755
157.757
194.276
202.768
151.253
77.2604
48.763
34.8393
27.1093
22.5487
19.8166
18.2575
17.5465
17.5475
18.261
19.8239
22.5606
27.1293
34.8689
48.8003
77.2838
151.198
202.627
213.9
146.127
75.6435
47.763
33.9801
26.3585
21.9015
19.256
17.7572
17.0766
17.0769
17.7581
19.2587
21.9065
26.3678
33.9945
47.7849
75.6816
146.119
213.827
227.919
142.311
74.3686
46.7301
33.0345
25.5444
21.2225
18.6883
17.2666
16.625
16.6252
17.2668
18.6896
21.226
25.554
33.0565
46.7731
74.4429
142.344
227.977
245.09
139.981
73.3025
45.5857
31.9627
24.6446
20.4985
18.1064
16.7817
16.1888
16.1887
16.781
18.1054
20.497
24.6425
31.9604
45.5833
73.3089
140.052
244.908
265.535
138.86
72.1229
44.1293
30.6652
23.6152
19.7132
17.5075
16.3064
15.775
15.7749
16.3061
17.5072
19.7137
23.6178
30.6743
44.1516
72.1606
138.836
265.817
288.91
138.49
70.5443
42.2685
29.1156
22.4529
18.873
16.9027
15.854
15.3975
15.3973
15.8534
16.9014
18.8712
22.4502
29.1126
42.2665
70.546
138.506
288.667
315.121
138.465
68.2414
39.8485
27.2594
21.1485
17.9874
16.3087
15.4435
15.0756
15.0756
15.4432
16.3081
17.987
21.1489
27.2632
39.8619
68.2738
138.507
315.207
343.2
138.022
64.7763
36.7484
25.0891
19.7274
17.0889
15.756
15.0998
14.8318
14.8317
15.0996
15.7555
17.0882
19.7265
25.0886
36.752
64.7952
138.061
343.2
373.013
135.657
59.4955
32.7951
22.6048
18.2339
16.2248
15.2846
14.8668
14.7154
14.7155
14.867
15.2848
16.225
18.2338
22.6045
32.7962
59.5003
135.652
372.848
402.294
127.874
51.2042
27.8421
19.8799
16.7562
15.4647
14.9476
14.7509
14.6764
14.6765
14.7512
14.9479
15.4644
16.756
19.8802
27.8464
51.2207
127.943
402.454
432.729
107.402
38.6407
22.0033
17.1377
15.5587
15.0138
14.821
14.7333
14.7018
14.7017
14.7332
14.8202
15.0124
15.5583
17.1375
22
38.6276
107.348
432.593
466.419
57.3882
21.6504
16.1834
15.1296
14.8895
14.8336
14.8026
14.796
14.7961
14.7961
14.796
14.8024
14.8331
14.8881
15.1279
16.1838
21.6537
57.4019
466.463
740.373
1086.69
701.039
418.14
243.534
145.409
94.4972
68.3341
55.2892
49.7702
49.6532
54.9175
67.3933
92.4384
142.287
240.091
413.699
692.118
1077.41
723.672
733.869
1077.95
689.585
407.946
237.045
141.603
93.7724
67.9825
55.0894
49.6181
49.4893
54.6956
66.4112
90.3145
138.394
237.978
410.969
682.917
1071.65
718.988
735.968
1083.45
697.026
413.533
241.127
143.729
93.5259
67.7154
54.9483
49.5207
49.3857
54.2961
67.4357
91.3234
139.731
233.759
406.952
689.029
1079.58
721.303
737.963
1087.71
704.42
418.005
244.103
144.94
91.7244
66.5333
54.2713
49.0033
48.9381
54.8063
67.4806
91.9146
140.77
239.954
414.097
694.105
1078.35
725.515
736.592
1085.88
702.453
408.995
242.372
143.866
92.035
66.9229
54.9669
49.6146
49.4513
54.6812
67.2262
91.1088
136.139
238.365
412.312
692.228
1070.42
724.519
731.484
1084.42
700.801
418.072
238.151
140.12
91.8227
67.0563
54.9799
49.6055
49.3959
54.4322
66.9867
89.5872
138.44
233.551
404.462
684.594
1071.65
722.124
736.689
1082.7
689.503
409.185
241.384
141.79
92.7907
67.7031
54.8873
49.4873
49.2438
53.6727
66.8399
91.5071
140.559
241.038
416.358
691.509
1072.25
718.458
733.54
1081.64
703.856
414.918
240.256
143.397
91.352
67.4292
54.7159
49.3326
49.2224
53.915
65.9611
92.4133
142.609
239.328
414.43
682.237
1076.52
717.172
740.289
1071.53
701
419.516
234.664
142.523
92.66
67.1785
54.4366
49.1142
49.0858
54.2441
66.0605
90.7074
139.031
237.282
413.997
691.756
1075.39
717.863
732.949
1085.42
699.307
418.39
235.273
139.799
90.8158
66.047
53.7279
48.5559
48.9009
54.1591
66.4367
91.7883
140.715
230.631
411.816
683.845
1069.11
720.468
734.86
1088.46
695.002
416.2
234.308
141.638
91.2433
66.317
54.2686
49.0151
48.3926
53.4746
65.2759
91.1689
138.474
234.083
411.124
690.549
1072.77
723.697
731.592
1080.87
682.057
414.481
235.134
140.873
90.4511
65.9808
53.6614
48.6353
48.6968
54.1237
65.9139
89.7036
141.18
236.834
408.198
688
1075.67
723.013
731.943
1083.72
690.913
412.765
237.177
138.63
90.1925
66.1182
53.7579
49.0439
49.1175
54.12
64.9593
89.9816
138.021
234.873
399.713
678.329
1067.66
717.611
729.497
1084.33
694.653
410.391
235.06
138.036
90.4636
66.4685
53.6631
48.9642
49.0846
54.1119
65.2735
88.6077
140.016
230.347
407.677
684.05
1073.62
720.046
723.775
1076.3
684.257
401.748
229.11
138.001
91.3687
66.3444
53.5526
48.5207
48.9591
54.1172
65.8828
88.9463
139.548
234.008
399.915
672.042
1065.87
722.021
723.568
1080.46
685.495
406.819
229.813
139.39
91.2209
65.4801
53.5129
48.9102
48.9165
54.0014
65.2288
89.7154
136.207
232.266
406.745
683.146
1071.86
719.636
721.756
1073.68
683.829
404.697
228.645
138.661
90.9398
66.0357
53.7659
48.8124
48.7667
53.972
66.1975
90.9002
137.701
225.486
399.508
689.258
1077.39
727.571
721.785
1074.97
685.431
396.702
229.221
136.394
90.5989
65.2024
53.0342
48.8618
48.3016
53.3329
65.1251
89.3736
139.256
228.225
406.671
680.521
1070.26
725.892
726.543
1077.23
691.505
398.35
232.667
138.649
90.4347
66.0326
53.5918
48.8844
48.911
53.9491
65.6784
90.0382
138.734
231.616
400.973
686.539
1078.15
725.121
725.301
1081.04
689.746
398.732
231.997
138.018
89.9626
65.9511
53.8494
48.7485
48.7216
53.8464
66.1162
90.5495
135.22
226.212
406.679
692.411
1072.99
719.59
723.085
1077.83
686.536
403.017
230.714
137.072
88.322
64.9388
53.1283
48.1278
48.0843
53.5385
65.829
90.3932
137.214
230.816
404.782
691.301
1077.89
722.006
719.014
1072.02
683.014
400.511
229.31
136.227
88.4809
65.1172
53.2376
48.2292
48.1537
52.9234
65.4453
88.9588
138.341
228.255
396.054
688.735
1071.82
724.048
725.964
1069.72
672.658
397.399
227.475
135.2
88.0732
64.8639
53.2216
48.2187
48.0812
53.3657
64.748
90.0444
137.757
224.029
396.96
687.256
1078.01
719.57
724.059
1074.19
677.29
394.938
225.673
132.241
88.1102
64.8495
53.5031
48.4281
47.9238
52.9029
65.3338
89.6277
137.154
225.536
394.455
684.504
1072.1
725.513
723.117
1065.41
667.853
391.345
220.272
134.27
88.6825
64.7814
53.3993
48.3449
47.9042
52.8518
64.3658
87.768
136.275
227.734
393.288
682.817
1075.79
719.931
717.156
1073.64
675.45
384.204
220.062
133.364
88.2338
64.6931
53.0938
48.1922
48.1547
52.9608
64.7193
88.1141
133.436
222.915
391.249
679.545
1079.95
724.859
716.992
1077.19
672.297
388.09
218.462
132.35
86.7224
64.79
52.8092
47.7418
47.697
53.1939
65.0597
88.6215
134.611
222.78
388.795
675.722
1079.1
724.315
715.093
1070.12
668.059
379.347
217.438
129.871
86.8272
64.6355
52.8287
48.1491
48.1249
53.0572
64.7883
88.1206
133.783
221.062
387.148
668.499
1076.67
721.464
713.061
1074.14
658.055
377.791
212.587
129.959
87.129
64.0071
52.5939
47.8244
47.9048
52.3759
63.7952
86.4614
131.057
219.366
385.385
673.705
1071.76
724.243
710.382
1071.96
657.038
375.004
213.103
130.319
86.8655
64.272
52.5613
47.7728
47.5857
52.5603
63.9733
86.479
130.647
217.675
383.194
664.77
1076.89
723.151
708.166
1069.16
655.365
374.528
214.088
129.521
86.3069
63.9988
52.6309
47.8818
47.9126
52.7029
64.0279
86.3518
129.324
215.665
381.284
672.834
1081.51
716.77
702.187
1060.84
647.635
367.289
212.012
128.413
85.744
63.1149
51.9837
47.3672
47.3819
52.4687
63.7163
85.8664
128.493
214.303
379.333
669.38
1079.63
716.931
701.52
1067.15
652.578
370.435
207.929
127.317
85.1269
63.0495
52.2668
47.6018
47.3602
52.1994
63.3299
85.2896
127.448
214.074
379.87
666.187
1077.23
714.642
701.092
1059.59
648.725
367.367
206.691
125.074
84.5309
62.7042
52.0304
47.1445
47.0736
51.9184
62.9233
84.6988
126.498
211.784
376.771
662.349
1068.56
713.64
699.799
1064.31
639.621
359.813
203.938
124.227
83.3393
62.2541
51.4906
47.1107
46.8676
51.2683
61.941
83.2623
125.097
209.034
368.462
653.22
1078.28
712.926
695.893
1062.66
641.94
360.254
202.424
123.088
82.9444
61.9268
51.3183
46.9389
46.7884
51.0718
61.7123
82.8409
123.906
206.797
370.318
660.581
1085.71
711.103
696.007
1059.9
632.254
354.423
198.765
121.878
82.2366
61.7152
50.9852
46.4484
46.5478
50.786
61.1947
82.4284
122.826
203.009
366.547
656.682
1084.37
704.623
692.218
1057.56
636.169
354.563
197.111
120.649
81.5473
61.3561
50.7958
46.3438
46.0505
50.3795
60.8265
81.8085
120.901
199.639
357.785
645.305
1082.76
704.001
694.532
1049.12
625.661
346.504
194.532
119.218
80.7802
60.9231
50.2516
45.8472
45.8154
50.2736
60.26
80.6119
120.212
198.106
355.573
644.047
1081.35
701.477
693.126
1049.28
624.173
343.88
192.605
118.109
79.9899
60.1991
49.8577
45.5935
45.5891
49.8143
59.7857
80.0701
119.066
196.006
352.714
639.027
1079.65
698.114
691.156
1045.69
613.875
338.24
190.755
116.896
79.1951
59.8156
49.5406
45.137
45.2933
49.4951
59.3478
79.1352
117.521
193.489
348.432
634.095
1077.77
694.531
688.241
1046.05
610.11
334.474
188.809
115.708
78.4821
59.1368
49.1249
44.7676
44.6916
48.8989
58.7551
78.0228
115.515
191.049
341.754
627.495
1075.41
691.611
686.369
1043.79
604.835
330.152
186.357
114.575
77.9362
58.7271
48.8122
44.4988
44.4523
48.601
58.319
77.4289
114.339
188.414
337.646
622.248
1067.27
687.961
680.526
1038.7
598.252
325.202
184.084
113.386
77.3042
58.3033
48.4481
44.1472
44.096
48.2121
57.8272
76.6592
113.093
186.307
332.104
614.543
1070.45
683.804
675.338
1031.36
591.696
321.378
182.107
112.364
76.7809
57.9372
48.1057
43.8428
43.7486
47.818
57.3392
75.8974
111.654
182.986
328.482
608.545
1068.02
680.429
672.677
1025.42
585.406
317.134
180.196
111.447
76.2324
57.5102
47.7153
43.4904
43.3835
47.4257
56.904
75.2366
110.365
180.243
322.598
602.82
1064.69
676.481
669.288
1025.72
580.958
314.428
178.382
110.481
75.6718
57.1169
47.3761
43.174
43.0403
47.0205
56.4002
74.4612
108.879
176.978
317.733
598.096
1057.3
672.829
666.728
1029.33
576.018
310.92
176.431
109.563
75.1065
56.6822
46.9895
42.7833
42.662
46.6301
55.9249
73.8504
107.9
175.107
314.01
593.175
1058.92
669.087
664.694
1026.41
571.502
307.309
174.333
108.445
74.468
56.2264
46.598
42.3716
42.2346
46.1582
55.3824
73.0668
106.452
172.461
309.064
588.924
1052.53
664.975
662.399
1022.56
565.908
303.053
172.012
107.342
73.7993
55.7389
46.2028
42.011
41.8427
45.7113
54.8469
72.3742
105.369
170.308
304.775
580.649
1044.73
661.056
661.547
1019.44
561.133
299.229
169.886
106.231
73.1634
55.2764
45.8002
41.5893
41.4091
45.253
54.3186
71.6164
103.982
167.566
299.431
571.957
1041.48
657.396
659.621
1014.12
555.207
295.334
167.86
105.308
72.6017
54.843
45.4006
41.2058
41.0011
44.7874
53.7409
70.8438
102.735
165.083
295.236
566.208
1035.41
653.617
657.97
1008.71
550.343
291.719
165.953
104.162
71.8972
54.3146
44.942
40.7473
40.5257
44.2714
53.1509
70.0607
101.47
162.565
289.742
557.611
1028.83
649.426
655.061
1000.25
543.644
287.878
163.896
103.148
71.2746
53.8397
44.5052
40.3163
40.0807
43.7907
52.5732
69.279
100.225
160.093
284.79
549.976
1022.07
643.8
653.025
992.163
537.95
284.069
161.928
101.997
70.5195
53.2703
44.0203
39.8645
39.6267
43.2958
51.9961
68.5195
98.9683
157.43
279.018
539.99
1013.55
637.398
649.483
985.843
531.362
279.859
159.789
100.826
69.7699
52.7277
43.5699
39.4491
39.201
42.8169
51.4174
67.7607
97.7643
155.188
274.52
531.724
1005.82
631.158
646.164
978.703
524.228
275.774
157.768
99.6953
68.9921
52.1361
43.0854
39.0149
38.7624
42.324
50.804
66.924
96.4338
152.66
269.671
524.074
997.664
624.454
642.922
970.642
517.369
271.608
155.676
98.498
68.2003
51.5362
42.5894
38.5666
38.3168
41.8231
50.1964
66.113
95.1911
150.284
264.46
514.492
988.878
618.107
637.75
963.362
510.041
267.363
153.441
97.2477
67.3685
50.917
42.0895
38.1181
37.8633
41.3137
49.5619
65.2413
93.8546
147.956
259.948
506.538
980.132
610.747
632.929
954.723
502.025
262.968
151.204
95.9934
66.5397
50.2935
41.5749
37.6547
37.4033
40.7995
48.9102
64.299
92.3625
145.302
254.773
498.16
972.87
605.343
626.769
944.279
493.485
258.02
148.652
94.5612
65.6222
49.6344
41.0346
37.1622
36.9075
40.2411
48.2117
63.341
90.9166
142.866
249.981
489.575
964.234
599.52
621.88
936.048
485.849
253.52
146.241
93.1436
64.6776
48.9319
40.4702
36.6654
36.4184
39.6919
47.4924
62.2968
89.302
140.017
244.789
481.653
956.155
594.741
617.054
927.51
477.167
248.333
143.446
91.496
63.6017
48.1536
39.8488
36.1251
35.898
39.1218
46.7772
61.2883
87.7208
137.311
239.645
473.013
947.247
590.978
611.807
919.247
469.02
243.199
140.596
89.7745
62.4591
47.3333
39.2136
35.5869
35.3829
38.5548
46.0619
60.2838
86.13
134.47
234.344
464.151
940.195
585.713
608.141
912.783
460.334
237.421
137.423
87.896
61.1959
46.4333
38.5256
35.0091
34.8392
37.969
45.3344
59.2499
84.5119
131.7
229.128
455.354
931.039
581.755
602.269
904.745
451.228
231.364
133.914
85.7624
59.821
45.4743
37.8012
34.4085
34.2754
37.3606
44.5704
58.1773
82.8985
128.978
223.814
446.049
922.6
576.413
598.278
896.981
440.6
224.489
129.993
83.4377
58.3368
44.4536
37.031
33.7627
33.6641
36.6985
43.7562
57.0557
81.1957
126.087
218.259
436.03
912.578
570.283
590.942
887.662
429.832
217.436
125.839
80.9328
56.7356
43.3546
36.211
33.0749
33.0078
35.9837
42.8684
55.8106
79.2602
122.863
212.202
424.846
901.608
561.421
583.331
877.296
416.9
209.749
121.466
78.2555
55.0307
42.1919
35.3365
32.3352
32.2922
35.199
41.8967
54.4648
77.2238
119.381
205.493
412.37
888.185
551.254
569.432
863.095
402.356
201.081
116.637
75.3733
53.2118
40.9656
34.415
31.5451
31.5243
34.3506
40.8515
53.0323
75.0478
115.674
198.232
398.638
872.524
539.611
552.438
845.236
385.708
192.051
111.659
72.3883
51.3055
39.6543
33.4228
30.6961
30.6939
33.4286
39.697
51.4324
72.5958
111.519
190.518
383.522
852.437
523.045
532.354
822.634
367.217
181.984
106.204
69.1861
49.2783
38.2746
32.3834
29.8052
29.8209
32.4515
38.4752
49.7432
70.0288
107.277
182.389
367.162
829.354
505.579
509.631
795.905
347.542
171.747
100.685
65.8924
47.1622
36.8144
31.2752
28.8532
28.884
31.3981
37.1369
47.8733
67.2281
102.676
173.771
349.381
801.589
484.629
485.988
764.099
326.181
160.899
94.7473
62.4069
44.9722
35.3102
30.1292
27.865
27.9084
30.2951
35.7334
45.9007
64.2234
97.8122
164.864
330.642
770.323
463.271
461.265
728.542
304.541
150.353
88.8434
58.7867
42.6577
33.717
28.9145
26.8186
26.8778
29.134
34.2481
43.7989
61.0424
92.6617
155.46
310.819
734.759
442.974
435.669
688.792
282.419
139.541
82.8438
55.1392
40.3113
32.0949
27.6706
25.7392
25.8038
27.911
32.6716
41.5526
57.5984
87.0709
145.637
290.379
695.333
421.636
412.414
645.891
260.558
128.749
76.8257
51.489
37.9369
30.4277
26.3755
24.6117
24.6858
26.6341
31.0163
39.1788
53.9289
81.1479
135.303
268.787
651.721
400.26
387.254
598.732
238.331
117.908
70.7637
47.8543
35.5695
28.7407
25.0548
23.4578
23.5375
25.3229
29.3136
36.7225
50.0992
74.8505
124.307
246.445
604.248
378.541
363.799
548.012
215.938
107.223
64.7637
44.2005
33.1725
27.0395
23.7255
22.2918
22.3743
23.9956
27.5902
34.2303
46.1948
68.3479
112.911
223.399
552.559
354.955
338.214
494.082
193.518
96.9489
59.0729
40.7189
30.8803
25.3983
22.4344
21.1549
21.2352
22.6951
25.9099
31.8053
42.3735
61.9937
101.798
200.51
499.217
332.834
316.542
440.605
172.022
86.9472
53.5364
37.3585
28.6793
23.8306
21.2032
20.0682
20.1412
21.4386
24.2822
29.4731
38.7425
55.9451
90.9504
177.821
445.382
312.044
297.281
389.442
152.056
77.7703
48.524
34.3298
26.686
22.4003
20.0756
19.0712
19.1357
20.2832
22.7932
27.364
35.4924
50.5254
81.1473
157.494
395.561
297.616
288.649
344.966
135.031
69.8814
44.1776
31.664
24.9183
21.1319
19.0744
18.1821
18.234
19.2439
21.4562
25.4755
32.6155
45.8012
72.5606
139.317
350.571
292.853
287.602
307.32
120.904
63.3748
40.5886
29.4531
23.4355
20.0567
18.2207
17.4218
17.4598
18.3466
20.3031
23.8579
30.1465
41.7487
65.3495
124.277
312.377
292.209
290.113
277.241
109.873
58.4014
37.7466
27.6429
22.2023
19.1585
17.5085
16.7885
16.813
17.5891
19.3154
22.4807
28.1074
38.4769
59.5384
111.633
279.356
293.463
298.363
252.795
100.895
54.4764
35.4937
26.1984
21.2111
18.4345
16.9359
16.2819
16.2976
16.987
18.5316
21.3758
26.4722