/*--------------------------------*- C++ -*----------------------------------*\
  =========                 |
  \\      /  F ield         | OpenFOAM: The Open Source CFD Toolbox
   \\    /   O peration     | Website:  https://openfoam.org
    \\  /    A nd           | Version:  6
     \\/     M anipulation  |
\*---------------------------------------------------------------------------*/
FoamFile
{
    version     2.0;
    format      ascii;
    class       volScalarField;
    location    "22";
    object      k;
}
// * * * * * * * * * * * * * * * * * * * * * * * * * * * * * * * * * * * * * //

dimensions      [0 2 -2 0 0 0 0];

internalField   nonuniform List<scalar> 
130000
(
0.38046
0.378185
0.375648
0.372897
0.36994
0.366802
0.363522
0.360149
0.356738
0.353344
0.350022
0.346822
0.343789
0.340959
0.338361
0.336016
0.333936
0.332126
0.330585
0.329308
0.380765
0.378503
0.375973
0.373222
0.370257
0.367108
0.363813
0.360423
0.356994
0.353582
0.350243
0.347027
0.34398
0.341138
0.338531
0.336179
0.334094
0.332281
0.330739
0.329461
0.381065
0.378815
0.37629
0.373537
0.370565
0.367403
0.364091
0.360683
0.357233
0.353801
0.350443
0.347209
0.344145
0.341289
0.338669
0.336305
0.334209
0.332388
0.330839
0.329558
0.38133
0.379088
0.376565
0.373809
0.370828
0.367653
0.364325
0.360899
0.357431
0.353979
0.3506
0.347346
0.344262
0.341387
0.33875
0.336371
0.334261
0.33243
0.330875
0.329591
0.381534
0.379296
0.376773
0.374012
0.371024
0.367837
0.364494
0.361049
0.357559
0.354085
0.350684
0.347408
0.344306
0.341417
0.338767
0.336378
0.33426
0.332424
0.330867
0.329581
0.381683
0.379443
0.376916
0.374149
0.37115
0.367947
0.364585
0.361117
0.357607
0.354116
0.350699
0.347408
0.344296
0.341399
0.338744
0.336353
0.334237
0.332402
0.330845
0.329561
0.381785
0.379539
0.377004
0.374226
0.37121
0.367987
0.364605
0.361119
0.357595
0.354091
0.350666
0.347372
0.344256
0.341356
0.3387
0.33631
0.334196
0.332363
0.33081
0.329529
0.381863
0.379605
0.377053
0.374256
0.37122
0.367978
0.364582
0.361086
0.357551
0.354039
0.350608
0.34731
0.344193
0.341292
0.338639
0.336251
0.334141
0.332314
0.330766
0.329491
0.381926
0.37965
0.377079
0.37426
0.371205
0.367949
0.364538
0.36103
0.357485
0.353965
0.350529
0.347228
0.34411
0.341212
0.338562
0.336179
0.334075
0.332254
0.330713
0.329445
0.381983
0.379689
0.377098
0.374258
0.371183
0.367908
0.364481
0.36096
0.357404
0.353877
0.350436
0.347134
0.344017
0.341121
0.338476
0.336099
0.334003
0.33219
0.330657
0.329397
0.382044
0.379729
0.377118
0.374258
0.37116
0.367864
0.364419
0.360882
0.357315
0.35378
0.350334
0.347031
0.343915
0.341023
0.338384
0.336014
0.333926
0.332121
0.330597
0.329346
0.382111
0.379775
0.377142
0.374261
0.371138
0.36782
0.364356
0.360803
0.357225
0.353681
0.35023
0.346926
0.343811
0.340924
0.33829
0.335928
0.333848
0.332052
0.330538
0.329296
0.382187
0.379828
0.37717
0.374263
0.37112
0.367779
0.364296
0.360727
0.357136
0.353583
0.350127
0.346821
0.343708
0.340824
0.338196
0.335842
0.33377
0.331984
0.330479
0.329247
0.382271
0.379888
0.377205
0.374273
0.371111
0.367747
0.364243
0.360657
0.357052
0.35349
0.350029
0.34672
0.343608
0.340728
0.338106
0.335759
0.333696
0.331919
0.330423
0.3292
0.382365
0.379961
0.377254
0.374296
0.371109
0.367726
0.364201
0.360596
0.356977
0.353404
0.349936
0.346625
0.343513
0.340636
0.338019
0.335679
0.333625
0.331856
0.33037
0.329156
0.382477
0.38005
0.377318
0.374334
0.37112
0.367719
0.364171
0.360547
0.356912
0.353328
0.349853
0.346537
0.343425
0.34055
0.337939
0.335605
0.333558
0.331798
0.330321
0.329115
0.382605
0.380157
0.377399
0.374387
0.371147
0.367719
0.364153
0.360509
0.356857
0.353261
0.349777
0.346457
0.343344
0.340471
0.337864
0.335536
0.333497
0.331745
0.330276
0.329078
0.382753
0.380281
0.377497
0.374456
0.371187
0.36773
0.364144
0.360482
0.356814
0.353204
0.349712
0.346386
0.343272
0.3404
0.337796
0.335474
0.333441
0.331697
0.330236
0.329046
0.382914
0.38042
0.377609
0.37454
0.371242
0.367758
0.364147
0.360468
0.356784
0.353159
0.349657
0.346325
0.343208
0.340336
0.337735
0.335418
0.333391
0.331653
0.330199
0.329016
0.383096
0.380579
0.377742
0.374643
0.371315
0.367803
0.364166
0.360466
0.356766
0.353126
0.349613
0.346274
0.343153
0.340281
0.337682
0.335369
0.333348
0.331616
0.330168
0.328991
0.383298
0.380759
0.377894
0.374765
0.371406
0.367863
0.364198
0.360473
0.356757
0.353103
0.349579
0.346232
0.343108
0.340234
0.337637
0.335326
0.33331
0.331584
0.330142
0.328971
0.383521
0.380959
0.378066
0.374906
0.371515
0.367941
0.364247
0.360497
0.356759
0.353095
0.349559
0.346203
0.343072
0.340196
0.3376
0.335292
0.33328
0.331559
0.330123
0.328956
0.383759
0.381175
0.378255
0.375064
0.371641
0.368035
0.364311
0.360534
0.356775
0.353095
0.349549
0.346183
0.343046
0.340167
0.33757
0.335263
0.333255
0.331538
0.330108
0.328945
0.38402
0.381414
0.378466
0.375243
0.371786
0.368147
0.364392
0.360586
0.356802
0.353101
0.349545
0.346173
0.34303
0.340147
0.337548
0.335242
0.333235
0.331521
0.330094
0.328934
0.384302
0.381675
0.378698
0.375442
0.371951
0.368276
0.364489
0.360653
0.356843
0.35312
0.349546
0.346167
0.34302
0.340133
0.337531
0.335225
0.333219
0.331506
0.330081
0.328924
0.384608
0.381958
0.378953
0.375663
0.372136
0.368426
0.364604
0.360737
0.356899
0.353153
0.34956
0.346167
0.343016
0.340123
0.33752
0.335214
0.33321
0.3315
0.330078
0.328923
0.384933
0.382263
0.379229
0.375905
0.372342
0.368595
0.364737
0.360838
0.356971
0.3532
0.349587
0.346178
0.343017
0.340121
0.337516
0.335208
0.333205
0.331497
0.330074
0.328918
0.385284
0.382594
0.379531
0.376173
0.372572
0.368787
0.364893
0.360958
0.357061
0.353263
0.349628
0.3462
0.343024
0.340125
0.337518
0.33521
0.333205
0.331494
0.330068
0.328916
0.385661
0.382952
0.379861
0.376468
0.372829
0.369004
0.365071
0.361101
0.357171
0.353345
0.349685
0.346238
0.343046
0.340133
0.337522
0.335211
0.333204
0.331492
0.330072
0.328924
0.386066
0.38334
0.380221
0.376792
0.373114
0.369248
0.365275
0.361268
0.357304
0.353448
0.349763
0.346294
0.343085
0.340158
0.337535
0.335217
0.33321
0.331502
0.330086
0.328942
0.386499
0.383758
0.380612
0.377148
0.373429
0.369522
0.365508
0.361461
0.357462
0.353574
0.349863
0.346372
0.343145
0.340204
0.337571
0.335247
0.333237
0.331528
0.330112
0.328969
0.386966
0.384211
0.381037
0.377538
0.373779
0.369828
0.365772
0.361685
0.357649
0.353728
0.349989
0.346475
0.343229
0.340274
0.33763
0.335299
0.333283
0.331571
0.330154
0.329011
0.387466
0.384699
0.3815
0.377965
0.374165
0.37017
0.36607
0.361941
0.357867
0.353912
0.350143
0.346605
0.343339
0.340368
0.337712
0.335372
0.33335
0.331633
0.330213
0.329067
0.388006
0.385229
0.382005
0.378434
0.374592
0.370552
0.366407
0.362235
0.35812
0.35413
0.35033
0.346766
0.343479
0.34049
0.337821
0.33547
0.33344
0.331717
0.330292
0.329141
0.388587
0.385803
0.382555
0.378949
0.375063
0.370978
0.366786
0.362568
0.358412
0.354384
0.350552
0.34696
0.34365
0.340642
0.337958
0.335595
0.333555
0.331825
0.330392
0.329235
0.389215
0.386426
0.383156
0.379514
0.375585
0.371453
0.367212
0.362948
0.358748
0.354681
0.350814
0.347192
0.343857
0.34083
0.338128
0.335752
0.333701
0.331961
0.33052
0.329355
0.389893
0.387103
0.383811
0.380134
0.376162
0.37198
0.36769
0.363377
0.359131
0.355023
0.35112
0.347466
0.344105
0.341055
0.338335
0.335943
0.33388
0.332129
0.330679
0.329505
0.390628
0.387839
0.384528
0.380817
0.3768
0.372568
0.368226
0.363862
0.359569
0.355417
0.351475
0.347788
0.344398
0.341324
0.338584
0.336176
0.334099
0.332335
0.330873
0.329689
0.391422
0.38864
0.385312
0.381566
0.377504
0.373221
0.368825
0.364409
0.360066
0.355868
0.351885
0.348162
0.344742
0.341642
0.33888
0.336453
0.33436
0.332582
0.331108
0.329911
0.392285
0.389514
0.386171
0.382391
0.378283
0.373948
0.369496
0.365025
0.360629
0.356383
0.352357
0.348596
0.345143
0.342015
0.339229
0.336782
0.334671
0.332877
0.331388
0.330177
0.393221
0.390466
0.387111
0.383299
0.379145
0.374755
0.370246
0.365717
0.361267
0.35697
0.352897
0.349096
0.345607
0.342449
0.339637
0.337167
0.335036
0.333224
0.331718
0.33049
0.394241
0.391508
0.388143
0.3843
0.380099
0.375654
0.371086
0.366497
0.361988
0.357638
0.353517
0.349672
0.346145
0.342954
0.340113
0.337618
0.335465
0.333632
0.332107
0.33086
0.39535
0.392646
0.389277
0.385404
0.381157
0.376655
0.372025
0.367373
0.362805
0.358397
0.354224
0.350333
0.346765
0.343538
0.340666
0.338143
0.335965
0.334109
0.332562
0.331293
0.396561
0.393894
0.390525
0.386625
0.382331
0.377771
0.373078
0.368361
0.363729
0.359261
0.355033
0.351093
0.347481
0.344215
0.341308
0.338755
0.336548
0.334667
0.333094
0.3318
0.397883
0.395263
0.3919
0.387975
0.383636
0.379017
0.374259
0.369474
0.364775
0.360244
0.355958
0.351965
0.348306
0.344997
0.342054
0.339466
0.337228
0.335317
0.333715
0.332393
0.399332
0.39677
0.39342
0.389473
0.385089
0.380412
0.375586
0.370731
0.365962
0.361365
0.357018
0.352968
0.349258
0.345904
0.342919
0.340294
0.338021
0.336077
0.334443
0.333087
0.40092
0.39843
0.3951
0.391137
0.386711
0.381974
0.377079
0.372151
0.367311
0.362644
0.358231
0.354121
0.350357
0.346954
0.343924
0.341257
0.338946
0.336964
0.335292
0.333899
0.402668
0.400263
0.396964
0.39299
0.388524
0.383728
0.378764
0.373762
0.368845
0.364106
0.359624
0.355451
0.351628
0.348172
0.345093
0.342381
0.340026
0.338002
0.336288
0.334851
0.404593
0.402292
0.399036
0.395058
0.390555
0.385702
0.380668
0.375589
0.370595
0.36578
0.361226
0.356985
0.353101
0.349587
0.346455
0.343692
0.341289
0.339217
0.337455
0.335968
0.40672
0.404543
0.401344
0.397371
0.392838
0.38793
0.382826
0.37767
0.372596
0.367702
0.363073
0.358761
0.35481
0.351235
0.348044
0.345227
0.34277
0.340644
0.338827
0.337282
0.409072
0.407046
0.403921
0.399966
0.395409
0.39045
0.385278
0.380045
0.37489
0.369914
0.365207
0.36082
0.356799
0.353157
0.349904
0.347025
0.344508
0.342321
0.340441
0.338829
0.411683
0.409837
0.406808
0.402885
0.398315
0.393311
0.388074
0.382765
0.377528
0.37247
0.367681
0.363216
0.359121
0.355408
0.352086
0.34914
0.346556
0.3443
0.342347
0.340658
0.414586
0.412956
0.41005
0.406179
0.401608
0.396568
0.391272
0.385889
0.380572
0.37543
0.370558
0.366013
0.361839
0.35805
0.354654
0.351634
0.348974
0.34664
0.344604
0.342825
0.417822
0.416453
0.413704
0.409908
0.405356
0.400292
0.394945
0.389494
0.384098
0.378874
0.373918
0.36929
0.365034
0.361165
0.357688
0.354587
0.351842
0.349418
0.347286
0.345401
0.421439
0.420386
0.417836
0.414147
0.409636
0.404566
0.39918
0.393669
0.388201
0.382897
0.377859
0.373146
0.368806
0.364851
0.361287
0.358095
0.355255
0.352728
0.350483
0.348474
0.425501
0.424829
0.422529
0.418988
0.414548
0.409495
0.404089
0.398531
0.393
0.387623
0.382505
0.377708
0.373281
0.369236
0.365578
0.362285
0.359336
0.35669
0.354313
0.352157
0.430078
0.429867
0.427883
0.424541
0.420214
0.415211
0.409809
0.404225
0.398646
0.393206
0.388015
0.383138
0.378624
0.374485
0.370725
0.36732
0.364246
0.36146
0.358926
0.356593
0.435263
0.435603
0.434022
0.430948
0.426789
0.421881
0.416521
0.41094
0.405337
0.399852
0.394602
0.389652
0.385054
0.380818
0.376947
0.373415
0.370197
0.367245
0.364521
0.36197
0.441177
0.442179
0.441106
0.438389
0.434474
0.429724
0.42446
0.418927
0.413337
0.407838
0.402551
0.397544
0.392869
0.388536
0.384546
0.38087
0.37748
0.374326
0.371367
0.368545
0.447946
0.449765
0.449341
0.447102
0.443534
0.439033
0.433943
0.428528
0.42301
0.417546
0.412262
0.407227
0.402493
0.398068
0.393951
0.390109
0.386512
0.383106
0.379848
0.376678
0.455736
0.458579
0.458989
0.457394
0.454323
0.450204
0.445408
0.440217
0.434867
0.429522
0.424309
0.419299
0.414541
0.41004
0.405791
0.401757
0.397903
0.394174
0.390523
0.38689
0.464758
0.468943
0.470387
0.469684
0.467325
0.463786
0.459466
0.454667
0.449638
0.444546
0.439521
0.434629
0.429914
0.425374
0.420998
0.416742
0.412566
0.408411
0.404231
0.399963
0.475298
0.48124
0.48406
0.484556
0.483212
0.48054
0.476969
0.47282
0.46835
0.463728
0.459081
0.454464
0.449912
0.445408
0.44093
0.436424
0.431843
0.427122
0.422216
0.417065
0.48774
0.495982
0.500706
0.502764
0.502888
0.501506
0.499086
0.495965
0.492408
0.488582
0.484603
0.480507
0.476311
0.471975
0.46746
0.462694
0.457618
0.452159
0.446269
0.439891
0.502628
0.513865
0.52125
0.525488
0.52756
0.528057
0.527331
0.525752
0.523592
0.521006
0.51809
0.514854
0.511288
0.507323
0.502894
0.497899
0.492264
0.485892
0.47873
0.470716
0.52067
0.535876
0.546817
0.554242
0.558991
0.56189
0.563551
0.564118
0.563923
0.563082
0.561675
0.559692
0.557084
0.553745
0.54958
0.544455
0.538262
0.530875
0.522209
0.512178
0.542786
0.563238
0.578875
0.590468
0.598989
0.605219
0.609704
0.612933
0.615321
0.616682
0.617176
0.616789
0.61543
0.612962
0.609259
0.604155
0.597507
0.589136
0.578904
0.566655
0.570115
0.597364
0.619033
0.635915
0.649114
0.659494
0.667715
0.674224
0.679297
0.683009
0.685592
0.68706
0.687121
0.685671
0.682579
0.677654
0.670717
0.661532
0.649881
0.6355
0.60399
0.639788
0.668888
0.692133
0.710817
0.725952
0.738309
0.748385
0.756519
0.762878
0.767571
0.770611
0.772095
0.77167
0.769239
0.764597
0.757533
0.747752
0.734951
0.718736
0.645871
0.692019
0.729833
0.760311
0.785043
0.805272
0.821933
0.835645
0.84684
0.855755
0.862537
0.867222
0.869864
0.87039
0.868589
0.864278
0.857195
0.846996
0.833299
0.815583
0.697216
0.755358
0.802897
0.841181
0.872251
0.897679
0.918632
0.935896
0.950025
0.961348
0.970086
0.976324
0.980114
0.981423
0.980172
0.976214
0.969174
0.958665
0.944235
0.925257
0.75934
0.830778
0.888697
0.935075
0.972568
1.00317
1.02832
1.04901
1.06594
1.07953
1.0901
1.09778
1.10266
1.10469
1.10392
1.10029
1.09333
1.08256
1.06747
1.04736
0.83328
0.918875
0.987498
1.04205
1.08594
1.12163
1.15088
1.17489
1.1945
1.21027
1.22257
1.2316
1.23749
1.24022
1.2399
1.23658
1.22969
1.21868
1.20299
1.18182
0.919723
1.0199
1.0993
1.162
1.21221
1.2529
1.28615
1.31337
1.33556
1.3534
1.36734
1.37765
1.3845
1.38788
1.38796
1.38493
1.37814
1.36691
1.35065
1.32848
1.019
1.13382
1.22391
1.29463
1.35103
1.39659
1.4337
1.46399
1.48862
1.50839
1.52385
1.53534
1.54307
1.54708
1.54751
1.54469
1.53801
1.52662
1.50988
1.48684
1.1311
1.26032
1.36085
1.43936
1.50173
1.55192
1.59263
1.62573
1.65254
1.674
1.69075
1.70325
1.71176
1.7164
1.71717
1.71439
1.70779
1.69632
1.67925
1.65556
1.25569
1.39878
1.50928
1.59515
1.66305
1.71741
1.76126
1.79669
1.82522
1.84791
1.86557
1.8787
1.88767
1.89264
1.89363
1.89102
1.88457
1.87317
1.85602
1.83205
1.39206
1.54812
1.66779
1.76025
1.8329
1.89063
1.93679
1.97374
2.00319
2.0264
2.04427
2.05748
2.06643
2.07139
2.07241
2.06992
2.06367
2.05254
2.03571
2.01202
1.53904
1.70664
1.83419
1.93195
2.00803
2.0678
2.11495
2.15212
2.18126
2.20382
2.22087
2.23323
2.24143
2.2458
2.24653
2.24404
2.23804
2.22745
2.21143
2.18882
1.69485
1.87184
2.00521
2.10624
2.18373
2.2435
2.28964
2.32508
2.35205
2.37224
2.38692
2.39707
2.40336
2.40621
2.40607
2.40344
2.39767
2.38793
2.37341
2.35293
1.85697
2.04019
2.17633
2.27764
2.35353
2.41033
2.45254
2.48346
2.50564
2.52105
2.53118
2.53721
2.54004
2.54029
2.53856
2.53502
2.52921
2.5206
2.50839
2.49137
2.02196
2.20697
2.34158
2.43889
2.50897
2.55867
2.59295
2.61549
2.62931
2.63685
2.63956
2.6388
2.63584
2.63179
2.62708
2.62172
2.61565
2.60853
2.59955
2.58744
2.18542
2.36624
2.49342
2.58093
2.63949
2.67658
2.69782
2.70674
2.70654
2.69985
2.68981
2.67826
2.66655
2.65584
2.64766
2.63993
2.63326
2.6275
2.6219
2.61495
2.34201
2.51082
2.62284
2.69292
2.73258
2.74881
2.74791
2.73661
2.72048
2.70002
2.67789
2.65594
2.63512
2.61598
2.59802
2.58507
2.5765
2.5721
2.57157
2.57489
2.4856
2.63259
2.71974
2.76218
2.77177
2.76175
2.73693
2.70246
2.6606
2.61809
2.57662
2.53772
2.50293
2.47319
2.44909
2.43123
2.42003
2.41592
2.41816
2.42521
2.60943
2.72258
2.77149
2.77604
2.74988
2.70089
2.63985
2.57247
2.50378
2.43748
2.37592
2.32055
2.27229
2.23161
2.19883
2.1743
2.15848
2.15211
2.15422
2.16375
2.70664
2.77049
2.76967
2.72175
2.64377
2.5483
2.44542
2.34258
2.24499
2.15581
2.07658
2.00772
1.94896
1.89983
1.85985
1.82885
1.80715
1.79566
1.79405
1.80072
2.76984
2.77049
2.70146
2.58685
2.44647
2.29652
2.14919
2.01263
1.89133
1.78681
1.69853
1.62479
1.56348
1.51258
1.4705
1.43632
1.40977
1.39118
1.38213
1.38283
2.79082
2.71054
2.55725
2.36225
2.15198
1.94726
1.76222
1.60408
1.47439
1.37087
1.28922
1.22463
1.17278
1.13022
1.09457
1.0647
1.04013
1.02065
1.00839
1.00704
2.76763
2.58484
2.33084
2.04764
1.77084
1.52599
1.32606
1.17251
1.05974
0.979069
0.921537
0.879496
0.847464
0.821846
0.800923
0.785347
0.776536
0.773655
0.780209
0.808838
2.6798
2.3805
2.01923
1.6578
1.3423
1.09726
0.924404
0.80935
0.735982
0.691129
0.664023
0.646752
0.635533
0.628421
0.624754
0.624855
0.630651
0.643638
0.686179
0.771565
2.51181
2.08271
1.62777
1.23696
0.949312
0.762578
0.653513
0.594495
0.562857
0.545054
0.534981
0.529558
0.527267
0.527577
0.530376
0.5368
0.552083
0.590662
0.680299
0.85409
2.22466
1.67395
1.18761
0.846275
0.652959
0.560034
0.51597
0.492911
0.479899
0.472533
0.468555
0.466809
0.466893
0.46879
0.473591
0.484581
0.511418
0.583311
0.747319
1.05471
1.77565
1.16857
0.766939
0.582313
0.507648
0.473251
0.454633
0.443515
0.436455
0.431789
0.42885
0.427396
0.427612
0.430047
0.436554
0.451964
0.490982
0.598843
0.869045
1.29548
1.22265
0.754217
0.56125
0.486053
0.452207
0.434273
0.423252
0.415538
0.409804
0.405518
0.402593
0.401096
0.401523
0.404707
0.41279
0.431745
0.480406
0.618631
0.959373
1.47413
1.02405
0.648242
0.50206
0.448615
0.425131
0.411965
0.403187
0.396756
0.391869
0.388227
0.385887
0.384999
0.385985
0.3897
0.398369
0.418046
0.468297
0.614888
0.972079
1.55282
1.05541
0.638235
0.478972
0.428378
0.407315
0.396125
0.389094
0.38431
0.38107
0.37891
0.377642
0.377283
0.378257
0.381483
0.388833
0.40504
0.444884
0.559522
0.899689
1.56516
1.24884
0.64723
0.465943
0.41401
0.394636
0.385584
0.380727
0.377876
0.37617
0.37511
0.374529
0.374386
0.374971
0.376933
0.381968
0.393291
0.421353
0.503627
0.776279
1.46323
1.31192
0.622505
0.445614
0.400108
0.385077
0.378989
0.376374
0.375198
0.374565
0.374136
0.373844
0.373759
0.374041
0.374786
0.376721
0.381792
0.395483
0.438637
0.606716
1.15433
0.928889
0.469384
0.393857
0.379825
0.376282
0.375323
0.374953
0.374683
0.374482
0.374344
0.374301
0.374279
0.374312
0.374493
0.375059
0.376507
0.380254
0.391104
0.436388
0.730666
0.326904
0.326408
0.32585
0.325312
0.324802
0.324324
0.323886
0.323494
0.323154
0.322869
0.322644
0.322482
0.322384
0.322349
0.322377
0.322468
0.322619
0.322829
0.323097
0.323421
0.327127
0.326624
0.326064
0.325523
0.325008
0.324527
0.324084
0.323688
0.323342
0.323053
0.322824
0.322657
0.322555
0.322517
0.322541
0.322629
0.322778
0.322986
0.323252
0.323575
0.327296
0.32679
0.326228
0.325684
0.325165
0.32468
0.324233
0.323832
0.323482
0.323188
0.322954
0.322782
0.322675
0.322632
0.322652
0.322735
0.322881
0.323087
0.323351
0.323672
0.327435
0.326926
0.326361
0.325814
0.325294
0.324805
0.324356
0.323952
0.323599
0.323301
0.323063
0.322887
0.322776
0.322728
0.322744
0.322823
0.322965
0.323167
0.323429
0.323749
0.327549
0.327039
0.326472
0.325923
0.3254
0.324911
0.32446
0.324055
0.323701
0.323401
0.323161
0.322982
0.322866
0.322814
0.322825
0.322899
0.323037
0.323236
0.323496
0.323813
0.327651
0.327137
0.326568
0.326018
0.325494
0.325003
0.324553
0.324148
0.323794
0.323494
0.323254
0.323072
0.322953
0.322895
0.3229
0.32297
0.323105
0.323302
0.32356
0.323877
0.327744
0.327228
0.326656
0.326103
0.325577
0.325085
0.324634
0.324229
0.323875
0.323577
0.323339
0.323155
0.323029
0.322964
0.322965
0.323031
0.323164
0.32336
0.323618
0.323936
0.327836
0.327316
0.326742
0.326185
0.325658
0.325164
0.324712
0.324304
0.323945
0.323639
0.323394
0.323208
0.323081
0.323017
0.323019
0.323087
0.323221
0.323417
0.323674
0.32399
0.327929
0.327406
0.326828
0.326269
0.32574
0.325245
0.324789
0.324373
0.324002
0.323686
0.323435
0.323248
0.323127
0.32307
0.323077
0.323149
0.323285
0.32348
0.323735
0.324046
0.328011
0.327489
0.326912
0.326351
0.325816
0.325311
0.324845
0.324423
0.324052
0.323741
0.323496
0.323315
0.3232
0.323148
0.323159
0.323232
0.323368
0.323563
0.323817
0.324125
0.32804
0.327518
0.326943
0.326385
0.325847
0.325331
0.324856
0.324432
0.324067
0.323765
0.323527
0.323352
0.323242
0.32319
0.323199
0.323269
0.323402
0.323596
0.32385
0.324161
0.328042
0.327521
0.326946
0.326387
0.325843
0.32533
0.324856
0.324433
0.32407
0.323768
0.323532
0.323358
0.323248
0.323198
0.323207
0.323277
0.323411
0.323605
0.323859
0.324168
0.328048
0.327524
0.326945
0.32638
0.325833
0.325326
0.324856
0.324434
0.324071
0.323768
0.323531
0.323357
0.323248
0.323198
0.323209
0.323281
0.323415
0.323608
0.323862
0.324172
0.328056
0.327527
0.326945
0.32638
0.325838
0.325322
0.324853
0.324434
0.324074
0.323777
0.323551
0.323385
0.323281
0.32323
0.323235
0.323294
0.323419
0.323607
0.32386
0.324176
0.328104
0.327567
0.326977
0.326404
0.325859
0.325346
0.324878
0.32446
0.324102
0.323805
0.323579
0.323413
0.323308
0.323257
0.32326
0.323318
0.323443
0.323629
0.323878
0.324187
0.328174
0.327629
0.327032
0.326453
0.325905
0.32539
0.324921
0.3245
0.324138
0.323835
0.323598
0.323425
0.323316
0.323265
0.323275
0.323345
0.323476
0.323664
0.323911
0.324211
0.328258
0.327706
0.327102
0.326517
0.325964
0.325447
0.324975
0.324551
0.324187
0.323882
0.323642
0.323466
0.323355
0.323304
0.323316
0.323389
0.323523
0.323712
0.323958
0.324256
0.328358
0.327796
0.327184
0.326591
0.32603
0.325507
0.32503
0.324605
0.324242
0.323943
0.323709
0.323535
0.323422
0.323366
0.323371
0.32344
0.323573
0.323762
0.324009
0.324308
0.328473
0.327901
0.327279
0.326675
0.326105
0.325571
0.325088
0.324657
0.324291
0.32399
0.323755
0.323579
0.323466
0.323412
0.323418
0.323487
0.323621
0.323813
0.324063
0.324364
0.328608
0.328027
0.327396
0.326782
0.326201
0.325658
0.325165
0.324725
0.324349
0.324037
0.323794
0.323615
0.323506
0.323459
0.323474
0.323552
0.323693
0.323889
0.324141
0.324441
0.328764
0.328176
0.327537
0.326915
0.326325
0.325773
0.325271
0.324823
0.324439
0.32412
0.323873
0.323693
0.323587
0.323544
0.323566
0.32365
0.323795
0.323993
0.324246
0.324545
0.328945
0.328352
0.327706
0.327078
0.326482
0.325923
0.325415
0.324962
0.324574
0.324251
0.324002
0.323822
0.323716
0.323676
0.323701
0.323787
0.323934
0.324133
0.324385
0.32468
0.329148
0.32855
0.3279
0.327267
0.326666
0.326103
0.325591
0.325134
0.324743
0.324418
0.324167
0.323987
0.323882
0.323842
0.323868
0.323954
0.324101
0.324299
0.324548
0.32484
0.329374
0.328773
0.328119
0.327482
0.326877
0.32631
0.325795
0.325335
0.324942
0.324616
0.324364
0.324184
0.324079
0.324039
0.324065
0.324151
0.324296
0.324492
0.324738
0.325025
0.329623
0.329019
0.328362
0.327722
0.327113
0.326543
0.326024
0.325562
0.325167
0.324839
0.324587
0.324406
0.324301
0.32426
0.324285
0.32437
0.324514
0.324706
0.324948
0.325229
0.329901
0.329294
0.328635
0.327991
0.327379
0.326804
0.326283
0.325818
0.325421
0.325092
0.324839
0.324657
0.324552
0.324511
0.324535
0.324618
0.324759
0.324948
0.325185
0.32546
0.33021
0.3296
0.328939
0.328292
0.327676
0.327098
0.326573
0.326105
0.325706
0.325375
0.325121
0.324939
0.324833
0.324791
0.324814
0.324895
0.325034
0.325218
0.32545
0.325717
0.330559
0.329947
0.329284
0.328633
0.328014
0.327433
0.326905
0.326433
0.326032
0.325699
0.325444
0.325261
0.325154
0.325111
0.325133
0.325212
0.325348
0.325528
0.325753
0.326011
0.33095
0.330337
0.329673
0.32902
0.328398
0.327812
0.327281
0.326807
0.326403
0.326069
0.325812
0.325628
0.32552
0.325476
0.325496
0.325573
0.325704
0.325878
0.326096
0.326344
0.331395
0.330782
0.330117
0.329462
0.328837
0.328248
0.327714
0.327236
0.32683
0.326494
0.326236
0.32605
0.325941
0.325896
0.325914
0.325987
0.326114
0.326282
0.32649
0.326727
0.331897
0.331285
0.330621
0.329964
0.329337
0.328745
0.328208
0.327727
0.327319
0.32698
0.32672
0.326533
0.326423
0.326375
0.326391
0.32646
0.326582
0.326741
0.326939
0.327162
0.332469
0.331858
0.331196
0.330539
0.32991
0.329315
0.328775
0.328292
0.32788
0.32754
0.327278
0.327089
0.326976
0.326927
0.326939
0.327004
0.327119
0.327269
0.327455
0.327663
0.333116
0.33251
0.33185
0.331194
0.330564
0.329967
0.329424
0.328938
0.328524
0.32818
0.327917
0.327725
0.32761
0.327557
0.327566
0.327625
0.327731
0.327871
0.328043
0.328233
0.333854
0.333253
0.332599
0.331944
0.331313
0.330715
0.330169
0.32968
0.329264
0.328918
0.328651
0.328457
0.328339
0.328283
0.328286
0.328338
0.328436
0.328563
0.328719
0.328888
0.334693
0.3341
0.333453
0.332802
0.332172
0.331572
0.331024
0.330533
0.330114
0.329765
0.329495
0.329298
0.329176
0.329115
0.329112
0.329156
0.329242
0.329354
0.329491
0.329636
0.335653
0.33507
0.334433
0.333787
0.333159
0.332559
0.33201
0.331516
0.331095
0.330742
0.33047
0.330268
0.330142
0.330075
0.330065
0.330099
0.330172
0.330267
0.330382
0.330499
0.33675
0.336181
0.335557
0.334919
0.334295
0.333696
0.333146
0.332651
0.332226
0.331871
0.331594
0.331388
0.331256
0.331183
0.331165
0.331185
0.331242
0.331316
0.331405
0.33149
0.338011
0.33746
0.336852
0.336225
0.335607
0.335011
0.334462
0.333965
0.333538
0.333179
0.332899
0.332687
0.332548
0.332466
0.332437
0.332443
0.332482
0.332532
0.33259
0.332637
0.33946
0.338932
0.338347
0.337734
0.337125
0.336534
0.335987
0.335489
0.33506
0.334698
0.334413
0.334195
0.334047
0.333954
0.333912
0.333901
0.333917
0.333938
0.33396
0.333962
0.341133
0.340635
0.340078
0.339485
0.338889
0.338305
0.337762
0.337265
0.336834
0.336468
0.336178
0.335952
0.335795
0.335689
0.33563
0.335598
0.335587
0.335574
0.335553
0.335502
0.343067
0.342607
0.342087
0.341519
0.340941
0.340368
0.339831
0.339336
0.338905
0.338535
0.338239
0.338005
0.337835
0.337713
0.337634
0.337576
0.337532
0.337477
0.337405
0.337291
0.345312
0.344902
0.344427
0.343893
0.343339
0.342781
0.342253
0.341763
0.341332
0.34096
0.340657
0.340412
0.340228
0.340086
0.339982
0.339892
0.339807
0.339702
0.339569
0.339381
0.347924
0.347577
0.347161
0.346671
0.346148
0.345613
0.345099
0.344615
0.344187
0.343811
0.3435
0.343242
0.34304
0.342874
0.342739
0.342608
0.342474
0.342307
0.342099
0.341821
0.350979
0.350711
0.350372
0.34994
0.34946
0.348955
0.348461
0.347988
0.347563
0.347184
0.346864
0.34659
0.346365
0.346167
0.345992
0.345811
0.345614
0.345372
0.345073
0.344686
0.354564
0.354402
0.354163
0.353809
0.353389
0.352925
0.35246
0.352004
0.351586
0.351203
0.35087
0.350575
0.350319
0.35008
0.349851
0.349605
0.349329
0.348991
0.348578
0.348056
0.358803
0.358787
0.358687
0.358442
0.358105
0.357703
0.357279
0.356848
0.35644
0.356053
0.355703
0.355376
0.355076
0.354779
0.354478
0.354143
0.353761
0.353298
0.35274
0.352048
0.363899
0.364078
0.364168
0.364079
0.363866
0.363555
0.363196
0.362803
0.36241
0.362017
0.361639
0.361266
0.360899
0.360515
0.360108
0.359645
0.359115
0.358481
0.357726
0.356811
0.370159
0.370602
0.370965
0.371123
0.371101
0.370935
0.370679
0.370348
0.369979
0.369574
0.369152
0.3687
0.368225
0.367703
0.36713
0.366473
0.365721
0.364837
0.363805
0.362582
0.37808
0.378965
0.379751
0.380244
0.380535
0.380603
0.380513
0.380286
0.379959
0.379533
0.379035
0.378451
0.377793
0.37704
0.376192
0.37522
0.374117
0.372846
0.371395
0.36972
0.388472
0.390079
0.391594
0.392662
0.39337
0.393824
0.394001
0.393947
0.393693
0.393238
0.392612
0.391806
0.39084
0.389698
0.388392
0.386897
0.385218
0.383323
0.381209
0.378834
0.402607
0.405395
0.408086
0.410125
0.411582
0.412496
0.413058
0.413312
0.413189
0.412698
0.411879
0.410722
0.409264
0.407495
0.405445
0.403101
0.400487
0.397582
0.3944
0.390911
0.42242
0.427025
0.431496
0.434989
0.43758
0.43931
0.44032
0.440831
0.44094
0.440427
0.439355
0.437711
0.435551
0.432871
0.429724
0.426106
0.422067
0.417602
0.412757
0.40752
0.450337
0.457449
0.464284
0.469648
0.47366
0.476404
0.478043
0.47877
0.47901
0.478584
0.477251
0.475054
0.472068
0.468279
0.463754
0.458481
0.452528
0.445898
0.438672
0.430866
0.488655
0.498687
0.508125
0.515435
0.52086
0.524574
0.526845
0.527892
0.528232
0.527839
0.52629
0.523614
0.519883
0.515043
0.509146
0.502135
0.494063
0.484895
0.474722
0.463567
0.538474
0.55126
0.56298
0.571874
0.578377
0.582785
0.585472
0.586735
0.587217
0.58693
0.585308
0.582369
0.578171
0.572609
0.565696
0.557291
0.547381
0.535833
0.522671
0.507842
0.599216
0.61411
0.627484
0.637475
0.644727
0.649648
0.652685
0.654128
0.654702
0.654519
0.652905
0.649859
0.645425
0.639462
0.631951
0.622676
0.611534
0.598239
0.582666
0.564559
0.669471
0.685963
0.700685
0.711654
0.719635
0.725093
0.728513
0.730161
0.730812
0.730742
0.729209
0.72612
0.72151
0.715225
0.707242
0.697309
0.685288
0.67079
0.653533
0.632981
0.748644
0.766767
0.782972
0.795085
0.803961
0.810106
0.814023
0.815931
0.816555
0.816524
0.815314
0.81221
0.807399
0.800746
0.792238
0.781612
0.768715
0.753106
0.734423
0.711944
0.837404
0.857476
0.875479
0.889011
0.899015
0.906043
0.910656
0.913097
0.913984
0.913982
0.912819
0.909601
0.904511
0.897405
0.888268
0.876819
0.862895
0.846019
0.825777
0.801333
0.937021
0.959448
0.979627
0.994899
1.00629
1.0144
1.01982
1.02284
1.02412
1.02427
1.0232
1.01985
1.01444
1.0068
0.996915
0.984495
0.969354
0.950982
0.928913
0.902216
1.04901
1.07424
1.09701
1.11437
1.12744
1.13689
1.14335
1.14714
1.14886
1.1492
1.14821
1.14472
1.13894
1.13069
1.11995
1.10641
1.08985
1.06973
1.04552
1.0162
1.17507
1.20358
1.22938
1.2492
1.26427
1.2753
1.283
1.2877
1.28998
1.29061
1.28976
1.28614
1.27997
1.27106
1.25937
1.24455
1.22638
1.20426
1.17758
1.14522
1.31707
1.34938
1.3787
1.4014
1.4188
1.43171
1.44089
1.44669
1.44965
1.45067
1.45002
1.44631
1.43974
1.43012
1.41738
1.40115
1.38116
1.35676
1.32728
1.29144
1.47707
1.51376
1.54715
1.57318
1.59332
1.60843
1.61934
1.62642
1.63023
1.63175
1.63139
1.62764
1.62071
1.61035
1.59647
1.57868
1.55668
1.52973
1.49708
1.45732
1.65734
1.69905
1.7371
1.76699
1.79029
1.80797
1.82092
1.82953
1.83437
1.83648
1.83649
1.83284
1.82559
1.81447
1.79938
1.7799
1.75566
1.72589
1.68971
1.64555
1.86039
1.9078
1.95117
1.98547
2.01243
2.0331
2.04844
2.05888
2.06495
2.06757
2.06795
2.06483
2.05735
2.04548
2.0291
2.00779
1.98112
1.94823
1.90813
1.85907
2.0889
2.14274
2.19214
2.23147
2.26261
2.28675
2.30492
2.31761
2.32538
2.32911
2.32995
2.32701
2.31924
2.30655
2.2888
2.26552
2.23622
2.19994
2.15554
2.10107
2.34573
2.40676
2.46292
2.50791
2.54379
2.5719
2.59335
2.60873
2.61859
2.62362
2.62513
2.62244
2.6144
2.60089
2.58173
2.55638
2.52426
2.48433
2.43527
2.3749