/*--------------------------------*- C++ -*----------------------------------*\
  =========                 |
  \\      /  F ield         | OpenFOAM: The Open Source CFD Toolbox
   \\    /   O peration     | Website:  https://openfoam.org
    \\  /    A nd           | Version:  6
     \\/     M anipulation  |
\*---------------------------------------------------------------------------*/
FoamFile
{
    version     2.0;
    format      ascii;
    class       volScalarField;
    location    "22";
    object      k;
}
// * * * * * * * * * * * * * * * * * * * * * * * * * * * * * * * * * * * * * //

dimensions      [0 2 -2 0 0 0 0];

internalField   nonuniform List<scalar> 
10000
(
0.206636
0.524891
0.476965
0.417217
0.369849
0.339224
0.322004
0.313283
0.309738
0.308959
0.309969
0.312929
0.318735
0.329301
0.347528
0.377618
0.422673
0.479319
0.524076
0.206539
0.206113
0.524386
0.47647
0.417185
0.369944
0.339958
0.323134
0.314894
0.311625
0.310891
0.310697
0.313962
0.319725
0.330496
0.347775
0.377397
0.421776
0.478365
0.523627
0.206171
0.206438
0.525133
0.477748
0.416963
0.370223
0.339712
0.322947
0.31347
0.309756
0.309203
0.311359
0.313251
0.318968
0.329519
0.347718
0.377223
0.421709
0.47827
0.523464
0.205964
0.206463
0.525252
0.477969
0.418045
0.370241
0.339801
0.323007
0.313585
0.309655
0.308922
0.310271
0.313339
0.319309
0.329666
0.3476
0.377179
0.421741
0.478195
0.522893
0.205679
0.206092
0.524603
0.477447
0.41768
0.370569
0.339975
0.322832
0.314112
0.310243
0.309494
0.311864
0.315047
0.321148
0.331001
0.347827
0.376817
0.421399
0.477989
0.522932
0.205662
0.206123
0.524766
0.4768
0.416851
0.370533
0.340213
0.323854
0.314736
0.312054
0.310717
0.310577
0.313717
0.320421
0.330372
0.34782
0.377012
0.420613
0.476686
0.522782
0.205831
0.206127
0.524292
0.478198
0.418384
0.370342
0.340413
0.323374
0.315805
0.311907
0.30949
0.310314
0.31446
0.320275
0.330894
0.347975
0.377019
0.421492
0.477314
0.523326
0.205684
0.206188
0.524856
0.478018
0.418249
0.37075
0.340692
0.324143
0.315864
0.312141
0.309726
0.310307
0.313119
0.319051
0.33082
0.348243
0.376713
0.420653
0.477555
0.52341
0.206033
0.206182
0.524762
0.477611
0.418258
0.370317
0.340863
0.32375
0.315198
0.311559
0.310046
0.310484
0.313093
0.318766
0.329888
0.347605
0.376936
0.421349
0.478882
0.523489
0.206195
0.205975
0.524515
0.476249
0.416967
0.370927
0.341231
0.324091
0.31562
0.313185
0.312075
0.311323
0.313715
0.31902
0.329217
0.347233
0.376635
0.42032
0.479058
0.5235
0.206537
0.206545
0.524554
0.476898
0.417663
0.370933
0.341547
0.324726
0.316702
0.312185
0.311876
0.312863
0.315618
0.320432
0.330134
0.347475
0.377134
0.421115
0.478413
0.523305
0.206774
0.206783
0.52571
0.475943
0.418588
0.370548
0.341718
0.324663
0.316284
0.312564
0.311645
0.312153
0.314766
0.319096
0.329207
0.347683
0.377308
0.421536
0.479569
0.524316
0.206906
0.206726
0.525932
0.477971
0.419251
0.371671
0.342179
0.325091
0.317665
0.314242
0.313692
0.313079
0.313877
0.318821
0.329088
0.347371
0.377646
0.422156
0.478982
0.524595
0.206995
0.206465
0.526018
0.479418
0.418862
0.372544
0.342725
0.32581
0.316657
0.312768
0.312496
0.313061
0.313801
0.31908
0.329503
0.34751
0.377689
0.423035
0.479964
0.52441
0.206906
0.207166
0.525368
0.480102
0.420767
0.37364
0.343177
0.325639
0.318129
0.314158
0.311572
0.311731
0.313846
0.320047
0.329404
0.347595
0.377593
0.422752
0.479842
0.523892
0.206796
0.20694
0.525744
0.480032
0.420706
0.373664
0.343367
0.32561
0.317755
0.313982
0.312983
0.312166
0.314009
0.319251
0.329439
0.347744
0.377548
0.422406
0.47985
0.524553
0.206867
0.207398
0.525593
0.480029
0.420606
0.3737
0.343233
0.325628
0.316975
0.313041
0.312368
0.313392
0.314552
0.319737
0.330498
0.34764
0.377548
0.422222
0.479884
0.52457
0.206815
0.207422
0.526345
0.479872
0.420263
0.373379
0.343714
0.326439
0.318008
0.313899
0.311142
0.311887
0.315735
0.321134
0.330767
0.348073
0.377638
0.423207
0.480049
0.524626
0.206671
0.207572
0.526792
0.479033
0.419797
0.373557
0.343178
0.325384
0.316479
0.312532
0.311018
0.311618
0.315118
0.320577
0.330756
0.34803
0.377272
0.423069
0.479977
0.524642
0.20694
0.207303
0.526617
0.480479
0.420998
0.373883
0.343424
0.325603
0.316952
0.314432
0.313063
0.312164
0.314484
0.319946
0.330876
0.348016
0.377664
0.423179
0.479921
0.524661
0.207075
0.207363
0.526635
0.48016
0.420098
0.373553
0.343926
0.325798
0.316925
0.314147
0.312908
0.312382
0.314625
0.320121
0.330902
0.348043
0.377661
0.422913
0.479517
0.524363
0.206932
0.207282
0.526524
0.479815
0.420773
0.373796
0.343609
0.326575
0.31695
0.313497
0.313128
0.313796
0.315083
0.320423
0.330677
0.348138
0.377773
0.422614
0.479336
0.524032
0.206881
0.207112
0.52629
0.479748
0.420594
0.373659
0.3432
0.325898
0.316959
0.313504
0.31234
0.312769
0.314949
0.321485
0.330009
0.348209
0.377336
0.421588
0.478975
0.524374
0.206657
0.206682
0.525957
0.478515
0.419548
0.373581
0.343538
0.326989
0.318048
0.313758
0.313625
0.313995
0.314934
0.320768
0.329575
0.347545
0.37704
0.421661
0.478448
0.523787
0.206577
0.207151
0.525669
0.478329
0.419558
0.373145
0.342827
0.326023
0.316607
0.314171
0.311827
0.311937
0.31436
0.319552
0.329259
0.347724
0.376615
0.421111
0.478147
0.523946
0.206491
0.207223
0.525477
0.477684
0.419494
0.373067
0.342612
0.325106
0.315966
0.312385
0.311853
0.311868
0.314541
0.319632
0.329164
0.347061
0.375991
0.41946
0.47674
0.523712
0.206405
0.206808
0.524924
0.477277
0.419042
0.372758
0.342366
0.32536
0.315928
0.312379
0.313485
0.312019
0.315954
0.320499
0.329251
0.347534
0.375568
0.419169
0.476222
0.523236
0.206194
0.206723
0.524609
0.476308
0.417982
0.37244
0.342266
0.324737
0.31571
0.311917
0.311959
0.310665
0.313879
0.319247
0.329088
0.346564
0.37479
0.41824
0.475363
0.522857
0.205891
0.206491
0.524399
0.476046
0.417676
0.372144
0.342421
0.325065
0.316065
0.313007
0.311245
0.31019
0.312181
0.317396
0.327354
0.345508
0.373871
0.417127
0.474463
0.522522
0.205631
0.20634
0.524126
0.475685
0.417133
0.371766
0.342219
0.326168
0.31616
0.312158
0.310278
0.310104
0.31235
0.318453
0.328068
0.344509
0.37304
0.416293
0.473971
0.522139
0.205302
0.206179
0.523822
0.475391
0.417021
0.371511
0.342206
0.32596
0.31647
0.313578
0.31229
0.31163
0.312465
0.317374
0.326671
0.343305
0.372406
0.415717
0.473254
0.521516
0.204944
0.205645
0.523006
0.474727
0.416538
0.371193
0.341406
0.325495
0.31632
0.313712
0.311537
0.310485
0.312773
0.318374
0.327857
0.343212
0.371838
0.414852
0.472461
0.521173
0.204674
0.205295
0.52248
0.473587
0.415272
0.370653
0.341073
0.324577
0.316198
0.312556
0.310569
0.31023
0.313481
0.318609
0.327502
0.342969
0.37124
0.414193
0.471865
0.520508
0.204147
0.205038
0.521832
0.472551
0.414153
0.370175
0.340965
0.324575
0.317415
0.314521
0.312001
0.31017
0.312194
0.317789
0.327107
0.342871
0.370755
0.413505
0.471003
0.520023
0.203812
0.204802
0.521473
0.471816
0.413433
0.369723
0.340888
0.324494
0.316039
0.312659
0.309722
0.309675
0.312069
0.316479
0.325985
0.342914
0.370109
0.412932
0.469932
0.519422
0.203445
0.204569
0.521111
0.470754
0.412607
0.369344
0.341389
0.325569
0.317009
0.311424
0.309233
0.30947
0.311746
0.316254
0.326296
0.341848
0.369632
0.412128
0.469131
0.519073
0.203161
0.204169
0.52054
0.470119
0.412067
0.368855
0.340432
0.32425
0.315664
0.311483
0.309308
0.309752
0.313157
0.316377
0.324967
0.340307
0.368873
0.411347
0.468325
0.518838
0.203128
0.203978
0.520098
0.469271
0.411367
0.368365
0.340719
0.324908
0.316162
0.312801
0.309641
0.309874
0.311883
0.316596
0.325487
0.340096
0.368394
0.410327
0.467546
0.518923
0.202958
0.203507
0.519381
0.468291
0.41063
0.367786
0.33967
0.323793
0.315425
0.311442
0.30994
0.311423
0.312111
0.3161
0.324823
0.339689
0.367816
0.409664
0.46698
0.518757
0.202804
0.203048
0.518737
0.467196
0.409719
0.367355
0.339867
0.324892
0.317317
0.313449
0.310455
0.310595
0.313384
0.317505
0.324325
0.339175
0.367145
0.408794
0.466158
0.518075
0.202349
0.202524
0.518142
0.4663
0.408866
0.366805
0.340304
0.324771
0.317048
0.313473
0.311009
0.310727
0.312246
0.316927
0.325199
0.339026
0.366665
0.40804
0.465261
0.51714
0.201934
0.202067
0.517325
0.465505
0.407859
0.366046
0.339282
0.324287
0.31696
0.314183
0.313266
0.312941
0.312649
0.31611
0.324455
0.338601
0.365975
0.407005
0.464357
0.516471
0.201576
0.201858
0.51696
0.464834
0.407022
0.365377
0.338454
0.324855
0.317597
0.315147
0.313622
0.313159
0.313248
0.316328
0.323554
0.338075
0.365257
0.406029
0.463491
0.515994
0.201308
0.201599
0.516467
0.463783
0.406157
0.364934
0.338479
0.325055
0.319432
0.316326
0.31481
0.31438
0.315397
0.318265
0.323867
0.337858
0.364562
0.404993
0.462375
0.515212
0.200852
0.20138
0.516077
0.462683
0.405073
0.36426
0.338569
0.325638
0.319943
0.317609
0.315814
0.315184
0.315671
0.318238
0.323955
0.337535
0.363723
0.403944
0.461244
0.514786
0.200577
0.200955
0.515344
0.46161
0.404044
0.363791
0.338814
0.326261
0.321412
0.318881
0.317231
0.316173
0.316065
0.318396
0.324304
0.337428
0.363052
0.403064
0.460129
0.514291
0.200264
0.200498
0.514736
0.460158
0.402898
0.363208
0.339715
0.327035
0.321953
0.320082
0.318573
0.318068
0.318273
0.319346
0.32567
0.337388
0.362307
0.402083
0.459178
0.513546
0.199831
0.199912
0.513821
0.458971
0.401991
0.362718
0.339728
0.327738
0.323099
0.321108
0.31971
0.318791
0.318786
0.320861
0.325487
0.337353
0.361817
0.401282
0.458246
0.513064
0.199599
0.199227
0.512609
0.457441
0.400752
0.361906
0.340631
0.329539
0.324558
0.322293
0.32092
0.320088
0.320157
0.321653
0.325981
0.337312
0.36088
0.400226
0.457206
0.512484
0.199343
0.198865
0.511964
0.456225
0.399832
0.361329
0.34069
0.330144
0.325449
0.323367
0.322414
0.321863
0.321728
0.322567
0.326782
0.337604
0.360095
0.399246
0.456079
0.511905
0.19912
0.198436
0.511201
0.454915
0.398808
0.361214
0.341263
0.331383
0.326636
0.324498
0.323572
0.323173
0.323411
0.324692
0.328672
0.338037
0.359365
0.398199
0.455071
0.511483
0.198847
0.198039
0.510402
0.453635
0.397824
0.361226
0.341312
0.332194
0.327847
0.325658
0.325021
0.324848
0.325073
0.326244
0.329588
0.338706
0.359385
0.397169
0.45375
0.511041
0.198539
0.197702
0.50968
0.452306
0.396654
0.360535
0.342612
0.33357
0.328996
0.327012
0.326274
0.326075
0.32634
0.327421
0.330718
0.339373
0.358851
0.396011
0.452456
0.51028
0.198141
0.197376
0.50906
0.451145
0.395699
0.360196
0.34238
0.334468
0.330553
0.32876
0.327887
0.32757
0.327779
0.328691
0.331409
0.338945
0.358038
0.394799
0.451024
0.509331
0.197689
0.196899
0.508222
0.449643
0.39441
0.359399
0.341646
0.335191
0.33193
0.33023
0.329481
0.329253
0.329324
0.329949
0.332265
0.338517
0.357096
0.393526
0.449486
0.508462
0.197254
0.196513
0.507448
0.44811
0.392993
0.358281
0.341152
0.335731
0.333046
0.331805
0.331206
0.330908
0.330794
0.331117
0.332912
0.338648
0.357241
0.392414
0.448095
0.50779
0.196902
0.196033
0.506573
0.446634
0.391615
0.35657
0.34132
0.336121
0.334128
0.333235
0.332705
0.332278
0.33199
0.332109
0.333606
0.339041
0.355793
0.390831
0.446401
0.506884
0.196404
0.195695
0.505814
0.445125
0.390289
0.35532
0.339263
0.335535
0.334706
0.334295
0.334016
0.333687
0.333304
0.333149
0.334088
0.338313
0.35456
0.389308
0.444539
0.505774
0.195781
0.195273
0.505137
0.443665
0.388941
0.35491
0.338715
0.334541
0.335313
0.335449
0.335355
0.334982
0.334399
0.333972
0.334631
0.338323
0.353826
0.387882
0.442877
0.504859
0.195314
0.194793
0.504286
0.441803
0.387328
0.355023
0.338237
0.335522
0.335855
0.336275
0.336376
0.336059
0.335394
0.334729
0.335029
0.339
0.352542
0.386168
0.441021
0.503894
0.194759
0.194296
0.503419
0.439899
0.385315
0.352698
0.336844
0.333613
0.335523
0.336911
0.337317
0.337059
0.336281
0.335263
0.334753
0.338143
0.351945
0.384358
0.438929
0.50274
0.194103
0.193557
0.502107
0.437629
0.383164
0.350561
0.336155
0.333608
0.33485
0.337469
0.338231
0.338059
0.337178
0.33578
0.333913
0.336995
0.351652
0.382233
0.436423
0.50112
0.193198
0.19283
0.500702
0.435132
0.380865
0.348312
0.335427
0.334722
0.33688
0.338458
0.339212
0.339053
0.338057
0.33649
0.33532
0.337178
0.349685
0.379918
0.434024
0.499721
0.192443
0.191944
0.499132
0.432359
0.378385
0.346803
0.334975
0.332792
0.335739
0.338719
0.340003
0.339957
0.338769
0.33656
0.333859
0.335488
0.347587
0.37727
0.430941
0.497676
0.191263
0.190844
0.497215
0.42904
0.375488
0.34618
0.33511
0.333849
0.334989
0.339192
0.340835
0.340857
0.3395
0.336732
0.33236
0.333653
0.345383
0.374532
0.427862
0.495872
0.190276
0.189769
0.495384
0.425447
0.372131
0.346094
0.335906
0.332837
0.335327
0.339764
0.3416
0.341678
0.34024
0.337285
0.332594
0.333533
0.343573
0.371669
0.424365
0.493544
0.188977
0.188336
0.493078
0.421518
0.368226
0.342656
0.333499
0.331015
0.336401
0.339831
0.341997
0.342235
0.340751
0.337666
0.333476
0.332165
0.341393
0.36848
0.420822
0.491616
0.187895
0.186654
0.490286
0.4171
0.364117
0.339807
0.331678
0.329985
0.334733
0.338478
0.341737
0.342353
0.340879
0.337527
0.332425
0.332043
0.34101
0.365317
0.416685
0.488827
0.186203
0.18474
0.487177
0.412721
0.360279
0.336896
0.32915
0.329122
0.333078
0.337425
0.340601
0.34165
0.340282
0.337255
0.333391
0.332571
0.339883
0.361598
0.412413
0.486306
0.184654
0.182506
0.483637
0.407988
0.356727
0.334454
0.326856
0.328602
0.33303
0.338753
0.339876
0.340044
0.338506
0.335416
0.331704
0.330777
0.336712
0.357645
0.407804
0.483013
0.182497
0.179864
0.479554
0.40287
0.353851
0.332932
0.326702
0.329025
0.333094
0.337196
0.341066
0.34177
0.340324
0.337127
0.332729
0.328959
0.334315
0.354088
0.403132
0.479688
0.180247
0.176808
0.474726
0.396938
0.350576
0.331398
0.326696
0.329641
0.333817
0.337456
0.339406
0.339571
0.337956
0.334754
0.330689
0.327891
0.331978
0.350719
0.397865
0.475152
0.177065
0.173171
0.468903
0.390182
0.346111
0.328938
0.327171
0.332469
0.336842
0.338646
0.340356
0.340344
0.338659
0.335425
0.331313
0.329058
0.330397
0.347445
0.391959
0.469988
0.173578
0.169128
0.462193
0.3832
0.341848
0.326793
0.32754
0.333033
0.337901
0.34128
0.341667
0.341322
0.339531
0.336224
0.331793
0.32795
0.329049
0.34372
0.385214
0.463569
0.169367
0.164677
0.454607
0.375869
0.338253
0.32681
0.330145
0.335258
0.339956
0.343252
0.344978
0.344929
0.343247
0.339948
0.335086
0.328759
0.327015
0.339523
0.377976
0.456171
0.164772
0.159975
0.446249
0.368527
0.334573
0.326998
0.331394
0.337522
0.342136
0.345632
0.346604
0.346243
0.344486
0.341225
0.336536
0.331285
0.327222
0.336402
0.37079
0.447802
0.159865
0.155263
0.437409
0.361586
0.331922
0.328452
0.333338
0.339698
0.344436
0.347431
0.348649
0.34833
0.346638
0.343518
0.33885
0.332793
0.327653
0.333204
0.363368
0.438731
0.154996
0.150729
0.428166
0.355107
0.329602
0.328099
0.334824
0.341332
0.34605
0.348977
0.350298
0.35025
0.348793
0.345791
0.341063
0.334656
0.328369
0.330906
0.356505
0.428974
0.150303
0.146916
0.419228
0.349841
0.328958
0.33073
0.337342
0.343287
0.34765
0.350432
0.351721
0.351711
0.35044
0.347759
0.343454
0.337454
0.330758
0.329613
0.3506
0.419524
0.146593
0.143717
0.410238
0.34529
0.328517
0.331826
0.33883
0.34482
0.34901
0.351526
0.352649
0.352777
0.351993
0.349685
0.345574
0.339538
0.332133
0.328992
0.345681
0.410004
0.143531
0.142087
0.401529
0.341989
0.329119
0.333837
0.340806
0.346411
0.350181
0.352135
0.352833
0.35301
0.352565
0.350909
0.34736
0.341901
0.334881
0.33009
0.342312
0.401393
0.142293
0.140903
0.39295
0.339612
0.330811
0.336085
0.342784
0.347994
0.35147
0.353371
0.353797
0.353949
0.353879
0.352194
0.348872
0.343741
0.337016
0.331518
0.339895
0.393044
0.141695
0.140879
0.384576
0.337833
0.332343
0.338212
0.344646
0.34951
0.352825
0.354915
0.355988
0.356009
0.355301
0.353549
0.350411
0.345579
0.339059
0.333023
0.338082
0.384779
0.140671
0.139983
0.376262
0.336717
0.333804
0.340228
0.346482
0.351013
0.354017
0.355895
0.356869
0.356999
0.356288
0.354659
0.351788
0.347277
0.340966
0.33432
0.336402
0.376621
0.140939
0.141387
0.36838
0.335216
0.335665
0.342635
0.348603
0.352748
0.355449
0.357132
0.357914
0.357966
0.35733
0.355879
0.353303
0.349193
0.343204
0.336088
0.33528
0.368162
0.141161
0.144074
0.359765
0.334583
0.33784
0.345216
0.35084
0.354565
0.356904
0.358307
0.358958
0.358974
0.358431
0.357151
0.354872
0.351158
0.345493
0.338008
0.334381
0.35971
0.144097
0.146924
0.351533
0.334249
0.340411
0.347983
0.353191
0.35646
0.358436
0.359548
0.360055
0.360077
0.359592
0.35852
0.356623
0.353422
0.348241
0.340621
0.334152
0.351342
0.146786
0.151783
0.343655
0.335218
0.343726
0.351206
0.355823
0.358513
0.360043
0.360866
0.361222
0.361225
0.360885
0.360097
0.358587
0.3559
0.351263
0.343778
0.335311
0.343723
0.151864
0.158362
0.337414
0.337506
0.347707
0.354727
0.358625
0.360717
0.361813
0.362355
0.362567
0.362558
0.362338
0.361817
0.360739
0.358669
0.354785
0.347771
0.337525
0.337306
0.158222
0.167033
0.333742
0.341563
0.352583
0.358654
0.361616
0.363012
0.363642
0.3639
0.36398
0.363974
0.36388
0.363627
0.363
0.361609
0.358631
0.35252
0.341483
0.333671
0.167035
0.177947
0.332296
0.346912
0.357772
0.362668
0.364616
0.36529
0.365452
0.365443
0.36541
0.365413
0.365448
0.365461
0.365296
0.364629
0.362697
0.357825
0.346997
0.332242
0.177949
0.191297
0.332831
0.354022
0.363621
0.366816
0.367544
0.367424
0.367089
0.366789
0.366618
0.366617
0.366781
0.36708
0.367409
0.367523
0.366788
0.363584
0.354009
0.332868
0.191254
0.207353
0.339104
0.362775
0.36963
0.370756
0.370203
0.369307
0.368514
0.367956
0.367671
0.367669
0.367949
0.368502
0.369295
0.370192
0.370762
0.369674
0.362882
0.339239
0.207489
0.225577
0.348684
0.372637
0.375632
0.374375
0.372488
0.370866
0.369678
0.368916
0.368544
0.368541
0.368906
0.369661
0.370844
0.372461
0.374351
0.375619
0.372632
0.348666
0.225409
0.246112
0.364324
0.383798
0.381376
0.377435
0.37426
0.372035
0.37058
0.369704
0.369291
0.36929
0.369698
0.37057
0.372022
0.374249
0.377439
0.381415
0.383873
0.364406
0.246205
0.268114
0.384801
0.395181
0.386096
0.379362
0.375296
0.372795
0.371273
0.370399
0.370001
0.369999
0.370394
0.371264
0.372782
0.37528
0.379348
0.386089
0.395205
0.384821
0.268049
0.291371
0.410708
0.404885
0.388389
0.380079
0.375724
0.37329
0.371885
0.371121
0.370787
0.370787
0.37112
0.371882
0.373282
0.375718
0.380072
0.388395
0.404904
0.410679
0.291307
0.314317
0.434704
0.409081
0.388873
0.380073
0.37579
0.373617
0.3725
0.371949
0.371726
0.371727
0.371952
0.372504
0.373616
0.375791
0.380068
0.388877
0.409089
0.434704
0.314386
0.338078
0.444946
0.406899
0.385653
0.378081
0.375053
0.373768
0.373198
0.372958
0.372873
0.372873
0.372962
0.373204
0.373775
0.375058
0.378086
0.385658
0.406907
0.444943
0.337993
0.364382
0.421567
0.386488
0.377503
0.375375
0.374625
0.374347
0.374272
0.374255
0.374253
0.374252
0.374255
0.374272
0.374347
0.374626
0.375375
0.377501
0.386483
0.421567
0.364409
0.585731
1.16064
1.00619
0.808073
0.648887
0.537688
0.471227
0.435177
0.417147
0.409356
0.408683
0.415103
0.431797
0.466195
0.530089
0.634389
0.78974
0.981446
1.1418
0.57253
0.583943
1.15545
0.998382
0.79777
0.646789
0.536866
0.470943
0.435193
0.417405
0.409681
0.408946
0.415203
0.431585
0.465822
0.529636
0.629101
0.781746
0.972226
1.14083
0.570888
0.580876
1.16138
1.0073
0.800281
0.644954
0.53647
0.470659
0.435319
0.417564
0.409942
0.409106
0.415253
0.431248
0.465557
0.529866
0.6366
0.789059
0.976903
1.14132
0.568061
0.585701
1.16087
1.00802
0.80053
0.638977
0.535481
0.469898
0.435343
0.417769
0.410566
0.409374
0.415626
0.431478
0.465003
0.528844
0.636461
0.782584
0.982813
1.13949
0.570908
0.580795
1.15831
1.00594
0.804762
0.641366
0.535156
0.469409
0.435221
0.418168
0.409949
0.409869
0.415366
0.431243
0.463155
0.524877
0.635951
0.792795
0.979767
1.13375
0.566616
0.585814
1.15774
1.00449
0.798489
0.643139
0.534282
0.469713
0.435127
0.417462
0.409744
0.409085
0.414873
0.431005
0.465201
0.528395
0.634564
0.784299
0.987255
1.13835
0.566987
0.585314
1.15527
0.995181
0.803292
0.641717
0.533273
0.46938
0.434799
0.416696
0.409211
0.408324
0.414762
0.430965
0.464538
0.527624
0.629119
0.787568
0.981425
1.14226
0.567129
0.584403
1.15293
0.994221
0.798616
0.63868
0.531789
0.468841
0.434645
0.416587
0.409282
0.408387
0.41505
0.43073
0.463843
0.526879
0.634219
0.792732
0.987046
1.14278
0.568565
0.583318
1.1571
0.994492
0.789547
0.633329
0.530138
0.468184
0.434261
0.416418
0.408608
0.408563
0.414475
0.430095
0.462099
0.526051
0.633046
0.792053
0.986059
1.14195
0.564481
0.58047
1.14956
0.987116
0.793726
0.636074
0.52928
0.467194
0.434352
0.416767
0.408841
0.407773
0.414633
0.430055
0.462882
0.525066
0.630758
0.790002
0.985074
1.14308
0.570292
0.578944
1.14933
0.993716
0.796775
0.634661
0.527464
0.466526
0.43373
0.415687
0.407748
0.407601
0.41393
0.429655
0.461272
0.523958
0.628764
0.78801
0.983931
1.13937
0.57247
0.577107
1.14627
0.989995
0.794261
0.631857
0.524348
0.46568
0.43386
0.415528
0.407563
0.407012
0.413347
0.429653
0.462349
0.522537
0.62159
0.781809
0.982451
1.14482
0.56935
0.575467
1.14415
0.986684
0.785492
0.628854
0.524412
0.465165
0.433597
0.415468
0.407602
0.40743
0.413426
0.429531
0.461869
0.521854
0.625416
0.780761
0.981184
1.14363
0.572221
0.57121
1.14192
0.978075
0.786421
0.625263
0.52269
0.464429
0.433108
0.415389
0.407584
0.406911
0.413182
0.429238
0.460164
0.518323
0.621085
0.780375
0.972745
1.14157
0.569175
0.57239
1.14395
0.97997
0.784367
0.622418
0.519109
0.463505
0.432598
0.415427
0.408276
0.407607
0.413473
0.429195
0.460505
0.52019
0.628006
0.783321
0.97801
1.13887
0.574781
0.568987
1.14041
0.980898
0.77971
0.613911
0.517018
0.46257
0.431912
0.415639
0.407696
0.406911
0.412677
0.428837
0.460545
0.521058
0.62645
0.787179
0.984625
1.14506
0.574594
0.572667
1.14592
0.976065
0.781817
0.614822
0.515592
0.461622
0.431007
0.414389
0.407118
0.40629
0.412424
0.428557
0.459981
0.520133
0.624581
0.78374
0.984564
1.14489
0.574115
0.568866
1.14523
0.981067
0.780123
0.616316
0.514883
0.46083
0.429956
0.413203
0.406294
0.406356
0.412406
0.428238
0.458429
0.518583
0.616593
0.772914
0.981737
1.14211
0.569206
0.573259
1.14443
0.97219
0.770431
0.617798
0.514062
0.460118
0.429503
0.412981
0.40629
0.406351
0.412473
0.427956
0.458428
0.517654
0.617722
0.775389
0.979323
1.13919
0.571256
0.568363
1.13997
0.972575
0.771
0.616616
0.513231
0.459214
0.428538
0.412701
0.406321
0.405739
0.412446
0.427679
0.457702
0.514385
0.616325
0.777502
0.974206
1.14391
0.572887
0.570336
1.14053
0.969392
0.76967
0.614817
0.512879
0.458815
0.428402
0.412629
0.406997
0.406165
0.412159
0.427167
0.456943
0.514547
0.618317
0.775876
0.971897
1.14286
0.569846
0.572309
1.14243
0.967583
0.771022
0.613364
0.511676
0.458142
0.428308
0.412304
0.406413
0.405119
0.411564
0.426634
0.456422
0.51353
0.616775
0.76755
0.970968
1.14243
0.57442
0.571148
1.14032
0.965535
0.769127
0.611443
0.511768
0.457712
0.427798
0.412128
0.406208
0.404933
0.410885
0.426094
0.456001
0.513249
0.614575
0.767749
0.970628
1.14071
0.573362
0.566135
1.13705
0.96421
0.760778
0.609086
0.509546
0.457003
0.427097
0.412005
0.405716
0.404905
0.410858
0.425943
0.454975
0.512054
0.612397
0.765483
0.972085
1.14039
0.573177
0.565935
1.13527
0.960836
0.760673
0.603747
0.508064
0.456223
0.427002
0.412304
0.404979
0.404814
0.410886
0.425276
0.454185
0.508693
0.606785
0.767721
0.970338
1.13859
0.572016
0.564189
1.12821
0.950704
0.756928
0.602257
0.507149
0.455571
0.426915
0.412153
0.405021
0.404954
0.411541
0.425508
0.453631
0.50798
0.606109
0.765615
0.963404
1.13764
0.571638
0.560324
1.12696
0.950295
0.748119
0.59971
0.505493
0.454837
0.426845
0.411331
0.405415
0.405279
0.410765
0.424444
0.452799
0.505862
0.603402
0.762121
0.965513
1.13671
0.568137
0.559644
1.12473
0.944293
0.743924
0.595473
0.504503
0.454005
0.426347
0.410606
0.404018
0.404051
0.411021
0.42396
0.452175
0.504986
0.60164
0.759403
0.963429
1.13646
0.569943
0.557471
1.122
0.941253
0.739122
0.592832
0.50311
0.45309
0.426002
0.411087
0.404135
0.404058
0.411252
0.423867
0.451786
0.503719
0.599723
0.755695
0.954539
1.13518
0.56891
0.555132
1.11812
0.935404
0.734312
0.589881
0.502131
0.452455
0.425363
0.410341
0.404139
0.404026
0.410673
0.423688
0.451209
0.502675
0.598585
0.752724
0.954627
1.13505
0.56554
0.552893
1.1149
0.930899
0.73012
0.587606
0.501072
0.452016
0.424936
0.410816
0.404418
0.404117
0.410063
0.42376
0.450753
0.500932
0.593324
0.743745
0.945423
1.13021
0.564866
0.551069
1.11068
0.923959
0.726077
0.585209
0.499814
0.450962
0.423963
0.40976
0.404965
0.404698
0.409232
0.422689
0.450126
0.500005
0.591989
0.742491
0.9451
1.1301
0.56307
0.548723
1.10816
0.920528
0.722869
0.583153
0.498842
0.450226
0.42308
0.40949
0.403813
0.403766
0.409568
0.422624
0.449643
0.498803
0.590405
0.738137
0.942751
1.12717
0.559607
0.548982
1.1069
0.917363
0.719856
0.58161
0.498137
0.450249
0.423111
0.409713
0.404023
0.404411
0.408821
0.422677
0.449025
0.497621
0.586251
0.73824
0.937666
1.12962
0.559545
0.548028
1.10692
0.917381
0.718212
0.579876
0.497015
0.449231
0.423088
0.410027
0.40409
0.403665
0.408687
0.42168
0.448378
0.49655
0.58474
0.735402
0.939624
1.1277
0.557988
0.548078
1.10328
0.914887
0.716226
0.578438
0.496234
0.448656
0.423295
0.410962
0.404469
0.403913
0.408751
0.421549
0.447789
0.495266
0.581789
0.727102
0.935373
1.12124
0.555447
0.547382
1.1049
0.917198
0.71454
0.576738
0.495461
0.448619
0.423875
0.410991
0.4047
0.404064
0.408932
0.421564
0.447327
0.494292
0.579941
0.724123
0.927385
1.12035
0.553853
0.546066
1.10653
0.914693
0.711189
0.575156
0.494808
0.448639
0.42342
0.41077
0.405647
0.405073
0.409104
0.42156
0.446762
0.493047
0.576952
0.718725
0.924585
1.11644
0.549743
0.545059
1.10285
0.907352
0.7077
0.573312
0.494086
0.449099
0.423705
0.411491
0.405196
0.404676
0.409597
0.4221
0.446046
0.491756
0.574597
0.714802
0.917934
1.11275
0.548228
0.541786
1.10543
0.905284
0.705994
0.571955
0.493266
0.448661
0.424185
0.410949
0.405823
0.404282
0.408843
0.421406
0.445168
0.490331
0.571424
0.710158
0.913722
1.10943
0.545041
0.540335
1.09923
0.900033
0.703108
0.570086
0.492518
0.448535
0.424074
0.411549
0.40528
0.404461
0.408835
0.422071
0.444718
0.488975
0.5684
0.704705
0.906225
1.10899
0.542694
0.537487
1.09631
0.893805
0.700898
0.568734
0.491768
0.448166
0.423831
0.411399
0.406115
0.405476
0.408826
0.42122
0.444471
0.48763
0.565705
0.700941
0.901172
1.10467
0.540027
0.534991
1.09122
0.888089
0.696947
0.56668
0.490892
0.447718
0.423193
0.410936
0.405719
0.405196
0.408693
0.420289
0.442901
0.486375
0.563597
0.696859
0.897423
1.10149
0.537043
0.530345
1.08692
0.882676
0.692545
0.564633
0.489891
0.447207
0.423191
0.411219
0.406568
0.40494
0.408692
0.41961
0.442081
0.485125
0.561163
0.692649
0.891981
1.09719
0.533944
0.527814
1.08443
0.878975
0.687833
0.562238
0.488882
0.446733
0.423744
0.411957
0.406077
0.405021
0.408728
0.420024
0.441605
0.483827
0.558577
0.68821
0.886846
1.09398
0.531236
0.525847
1.08165
0.874363
0.684432
0.560248
0.487714
0.446192
0.42324
0.411569
0.406916
0.405289
0.408724
0.419087
0.441659
0.482649
0.556095
0.683635
0.880417
1.08996
0.528121
0.523699
1.08088
0.869904
0.681024
0.558189
0.486438
0.445514
0.422927
0.411723
0.406585
0.405491
0.408755
0.418823
0.440567
0.481152
0.553401
0.679475
0.875234
1.08616
0.52504
0.522408
1.08275
0.866183
0.677826
0.556328
0.485102
0.444737
0.423581
0.412851
0.407642
0.406552
0.408975
0.41879
0.440796
0.479239
0.549757
0.673414
0.867489
1.08154
0.521898
0.520998
1.08128
0.86334
0.675493
0.554641
0.483549
0.443529
0.423155
0.412604
0.40701
0.406339
0.409007
0.418652
0.439159
0.476965
0.546254
0.668145
0.860261
1.07756
0.518822
0.519979
1.07898
0.859132
0.672341
0.552919
0.481676
0.442077
0.422693
0.412648
0.407238
0.406484
0.409048
0.418967
0.4379
0.474531
0.542518
0.662577
0.853473
1.07302
0.515717
0.518233
1.07691
0.85561
0.669453
0.551224
0.480058
0.441732
0.421861
0.412243
0.407382
0.406206
0.409293
0.417765
0.436641
0.472466
0.538947
0.657281
0.846628
1.06823
0.512722
0.516528
1.07031
0.850714
0.665916
0.549164
0.479052
0.441664
0.421787
0.413154
0.407845
0.406419
0.408644
0.416602
0.435076
0.469593
0.534897
0.651352
0.839851
1.0654
0.509532
0.514548
1.06698
0.846822
0.662437
0.54675
0.478701
0.441606
0.421493
0.41243
0.408186
0.407442
0.409253
0.415461
0.432913
0.466621
0.531053
0.64533
0.832287
1.06093
0.505738
0.512202
1.06184
0.841674
0.65851
0.544182
0.478783
0.440385
0.421349
0.412763
0.409242
0.407462
0.408496
0.414693
0.430584
0.463701
0.527315
0.63932
0.824818
1.05579
0.500941
0.510142
1.0585
0.836629
0.654141
0.540784
0.476138
0.440115
0.421286
0.412933
0.409363
0.407685
0.409286
0.414702
0.42865
0.461797
0.52355
0.633152
0.817688
1.04973
0.496026
0.507035
1.0533
0.831011
0.649631
0.537393
0.473959
0.440556
0.421171
0.413802
0.409766
0.407429
0.408688
0.41526
0.428155
0.460369
0.518746
0.626143
0.809775
1.04422
0.491192
0.504327
1.04882
0.825396
0.64458
0.533413
0.470969
0.438678
0.420676
0.41327
0.409775
0.407649
0.407829
0.413244
0.427335
0.456892
0.513371
0.619153
0.80156
1.03774
0.486001
0.501082
1.04392
0.819762
0.639742
0.529609
0.468197
0.437008
0.42024
0.413508
0.411112
0.408675
0.408118
0.411407
0.424164
0.45306
0.508165
0.611922
0.792609
1.03021
0.480972
0.496745
1.03765
0.812935
0.634059
0.525319
0.465329
0.434794
0.419959
0.4137
0.411219
0.408989
0.407287
0.410217
0.422348
0.45001
0.502855
0.604288
0.783387
1.02153
0.475643
0.492911
1.03233
0.806732
0.628749
0.52134
0.463382
0.433268
0.419841
0.414001
0.411552
0.409264
0.407837
0.410054
0.420414
0.4454
0.496476
0.596278
0.774515
1.01536
0.47181
0.488457
1.02663
0.798943
0.62257
0.517057
0.46195
0.433669
0.420054
0.41508
0.411971
0.409364
0.40702
0.410154
0.419928
0.441044
0.490171
0.587807
0.7655
1.00898
0.467557
0.485033
1.02184
0.7925
0.616823
0.51215
0.459133
0.43216
0.419773
0.414474
0.412153
0.409561
0.40678
0.408856
0.415287
0.435657
0.483182
0.578737
0.756184
1.00506
0.464435
0.48124
1.01667
0.784646
0.610397
0.506351
0.456516
0.432645
0.419766
0.414184
0.412238
0.409744
0.406681
0.407374
0.412944
0.431794
0.476634
0.569981
0.747124
1.00077
0.461231
0.477554
1.01158
0.776412
0.603843
0.501092
0.454125
0.430855
0.419519
0.414067
0.412006
0.409754
0.406697
0.406221
0.411164
0.429312
0.470889
0.561553
0.737404
0.99487
0.457081
0.474427
1.00817
0.76817
0.597349
0.498439
0.454706
0.430918
0.419622
0.413995
0.411911
0.409663
0.407638
0.407032
0.411306
0.427241
0.465513
0.553623
0.728819
0.991181
0.453766
0.469766
1.00327
0.757302
0.588867
0.496692
0.454315
0.431862
0.419842
0.413977
0.410904