/*--------------------------------*- C++ -*----------------------------------*\
  =========                 |
  \\      /  F ield         | OpenFOAM: The Open Source CFD Toolbox
   \\    /   O peration     | Website:  https://openfoam.org
    \\  /    A nd           | Version:  6
     \\/     M anipulation  |
\*---------------------------------------------------------------------------*/
FoamFile
{
    version     2.0;
    format      ascii;
    class       surfaceScalarField;
    location    "22";
    object      phi;
}
// * * * * * * * * * * * * * * * * * * * * * * * * * * * * * * * * * * * * * //

dimensions      [0 3 -1 0 0 0 0];

internalField   nonuniform List<scalar> 
19400
(
-6.84853e-10
-7.81771e-07
-1.56893e-09
-1.04671e-06
-2.23535e-09
-1.1773e-06
-2.49157e-09
-1.26512e-06
-2.39201e-09
-1.32291e-06
-2.10476e-09
-1.35914e-06
-1.7612e-09
-1.38088e-06
-1.41332e-09
-1.39332e-06
-1.07102e-09
-1.39982e-06
-7.2579e-10
-1.40223e-06
-3.77532e-10
-1.40137e-06
-1.1938e-11
-1.39723e-06
3.54883e-10
-1.38903e-06
7.41072e-10
-1.37508e-06
1.09487e-09
-1.35226e-06
1.33817e-09
-1.31562e-06
1.30838e-09
-1.25842e-06
9.26712e-10
-1.17219e-06
2.65754e-10
-1.04329e-06
-7.80237e-07
4.35068e-11
-7.81791e-07
-5.20576e-10
-1.04615e-06
-8.952e-10
-1.17691e-06
-1.18488e-09
-1.26483e-06
-1.30339e-09
-1.32278e-06
-1.29022e-09
-1.35915e-06
-1.18129e-09
-1.38098e-06
-1.02934e-09
-1.39348e-06
-8.41107e-10
-1.40001e-06
-6.45194e-10
-1.40244e-06
-4.37591e-10
-1.40159e-06
-2.40443e-10
-1.39744e-06
-5.63469e-11
-1.38922e-06
1.02058e-10
-1.37524e-06
2.35946e-10
-1.35239e-06
3.28586e-10
-1.31571e-06
3.42013e-10
-1.25844e-06
1.95019e-10
-1.17205e-06
-1.73451e-10
-1.04293e-06
-7.80411e-07
-1.34865e-10
-7.81633e-07
-4.27229e-10
-1.04588e-06
-5.94296e-10
-1.17673e-06
-7.61797e-10
-1.26468e-06
-8.33844e-10
-1.3227e-06
-8.51915e-10
-1.35914e-06
-8.29876e-10
-1.381e-06
-7.79399e-10
-1.39353e-06
-6.87166e-10
-1.4001e-06
-5.72378e-10
-1.40256e-06
-4.54098e-10
-1.40171e-06
-3.36005e-10
-1.39755e-06
-2.31049e-10
-1.38933e-06
-1.34536e-10
-1.37533e-06
-4.04684e-11
-1.35248e-06
8.61713e-11
-1.31583e-06
1.93705e-10
-1.25854e-06
1.59175e-10
-1.17201e-06
1.04327e-10
-1.04288e-06
-7.80307e-07
-8.92096e-11
-7.81538e-07
-1.92076e-10
-1.04579e-06
-2.61581e-10
-1.17665e-06
-3.45587e-10
-1.26461e-06
-4.11869e-10
-1.32263e-06
-4.76914e-10
-1.35908e-06
-5.1203e-10
-1.38096e-06
-5.30785e-10
-1.39351e-06
-5.14064e-10
-1.40011e-06
-4.78856e-10
-1.40259e-06
-4.33068e-10
-1.40175e-06
-3.86798e-10
-1.3976e-06
-3.44248e-10
-1.38937e-06
-3.06406e-10
-1.37537e-06
-2.64675e-10
-1.35253e-06
-1.64154e-10
-1.31593e-06
-7.80647e-11
-1.25863e-06
-6.00336e-11
-1.17203e-06
-6.14627e-12
-1.04293e-06
-7.80313e-07
-2.1827e-10
-7.81317e-07
-1.45155e-10
-1.04587e-06
-1.50324e-10
-1.17663e-06
-1.97794e-10
-1.26456e-06
-2.50061e-10
-1.32256e-06
-3.19338e-10
-1.35902e-06
-3.62719e-10
-1.3809e-06
-3.99144e-10
-1.39347e-06
-4.11793e-10
-1.40009e-06
-4.13582e-10
-1.40258e-06
-3.98528e-10
-1.40176e-06
-3.78939e-10
-1.39761e-06
-3.58863e-10
-1.38939e-06
-3.44177e-10
-1.37538e-06
-3.06638e-10
-1.35256e-06
-2.32448e-10
-1.316e-06
-1.77147e-10
-1.25868e-06
-9.46102e-11
-1.17212e-06
7.7976e-11
-1.04311e-06
-7.80234e-07
-9.56724e-11
-7.81226e-07
-2.78099e-11
-1.04595e-06
-6.06989e-11
-1.17659e-06
-1.70598e-10
-1.26446e-06
-2.56881e-10
-1.32247e-06
-3.16236e-10
-1.35896e-06
-3.47821e-10
-1.38086e-06
-3.7629e-10
-1.39344e-06
-3.88828e-10
-1.40007e-06
-3.93571e-10
-1.40258e-06
-3.80013e-10
-1.40176e-06
-3.6035e-10
-1.39763e-06
-3.28295e-10
-1.38942e-06
-2.95182e-10
-1.37541e-06
-2.72626e-10
-1.35259e-06
-2.5139e-10
-1.31602e-06
-2.23422e-10
-1.25871e-06
-1.46821e-10
-1.17219e-06
3.53234e-12
-1.04325e-06
-7.80229e-07
9.66844e-11
-7.81335e-07
9.12238e-11
-1.04595e-06
3.71567e-11
-1.17654e-06
-9.93451e-11
-1.26433e-06
-1.91848e-10
-1.32238e-06
-2.49752e-10
-1.35891e-06
-2.93717e-10
-1.38082e-06
-3.32153e-10
-1.39341e-06
-3.54692e-10
-1.40004e-06
-3.60232e-10
-1.40257e-06
-3.49654e-10
-1.40177e-06
-3.26705e-10
-1.39765e-06
-2.95018e-10
-1.38945e-06
-2.58266e-10
-1.37544e-06
-2.55833e-10
-1.35259e-06
-2.66606e-10
-1.316e-06
-2.42559e-10
-1.25873e-06
-1.8884e-10
-1.17224e-06
-1.20197e-10
-1.04331e-06
-7.80348e-07
1.58521e-10
-7.81503e-07
1.43241e-10
-1.04594e-06
1.14138e-10
-1.17652e-06
1.2259e-11
-1.26423e-06
-6.06283e-11
-1.32231e-06
-1.17038e-10
-1.35886e-06
-1.90528e-10
-1.38075e-06
-2.53019e-10
-1.39335e-06
-3.0139e-10
-1.4e-06
-3.22872e-10
-1.40255e-06
-3.25575e-10
-1.40177e-06
-3.07958e-10
-1.39767e-06
-2.84263e-10
-1.38947e-06
-2.58901e-10
-1.37547e-06
-2.52853e-10
-1.35259e-06
-2.58417e-10
-1.316e-06
-2.5849e-10
-1.25873e-06
-2.66463e-10
-1.17222e-06
-2.2556e-10
-1.04335e-06
-7.80574e-07
1.13122e-10
-7.81623e-07
1.73264e-10
-1.046e-06
1.68542e-10
-1.17652e-06
1.36395e-10
-1.2642e-06
6.80971e-11
-1.32225e-06
-2.59566e-11
-1.35876e-06
-1.30296e-10
-1.38065e-06
-2.20497e-10
-1.39327e-06
-2.88193e-10
-1.39994e-06
-3.34927e-10
-1.40251e-06
-3.59684e-10
-1.40175e-06
-3.64879e-10
-1.39766e-06
-3.62907e-10
-1.38948e-06
-3.54173e-10
-1.37547e-06
-3.45263e-10
-1.3526e-06
-3.43518e-10
-1.316e-06
-3.38709e-10
-1.25873e-06
-3.33092e-10
-1.17223e-06
-3.19435e-10
-1.04337e-06
-7.80895e-07
7.35124e-11
-7.81703e-07
1.84452e-10
-1.04611e-06
1.59352e-10
-1.1765e-06
1.50383e-10
-1.26419e-06
8.52651e-11
-1.32218e-06
-4.03045e-11
-1.35864e-06
-1.54171e-10
-1.38053e-06
-2.5169e-10
-1.39317e-06
-3.21129e-10
-1.39987e-06
-3.83205e-10
-1.40245e-06
-4.24753e-10
-1.40171e-06
-4.55302e-10
-1.39764e-06
-4.69731e-10
-1.38946e-06
-4.76001e-10
-1.37547e-06
-4.72824e-10
-1.3526e-06
-4.73655e-10
-1.316e-06
-4.20734e-10
-1.25879e-06
-2.90486e-10
-1.17237e-06
-2.05581e-10
-1.04345e-06
-7.81101e-07
1.4781e-10
-7.81854e-07
2.04738e-10
-1.04617e-06
1.7844e-10
-1.17648e-06
1.45853e-10
-1.26415e-06
5.36733e-11
-1.32209e-06
-8.06325e-11
-1.3585e-06
-1.9624e-10
-1.38042e-06
-2.86134e-10
-1.39308e-06
-3.56031e-10
-1.39979e-06
-4.14315e-10
-1.40239e-06
-4.54732e-10
-1.40167e-06
-4.76491e-10
-1.39762e-06
-4.77006e-10
-1.38946e-06
-4.72841e-10
-1.37548e-06
-4.67509e-10
-1.3526e-06
-4.6563e-10
-1.316e-06
-3.93809e-10
-1.25886e-06
-2.20233e-10
-1.17254e-06
-1.62761e-11
-1.04366e-06
-7.81117e-07
1.30718e-10
-7.81984e-07
1.95226e-10
-1.04624e-06
1.90801e-10
-1.17647e-06
1.18629e-10
-1.26408e-06
-1.10607e-11
-1.32196e-06
-1.45838e-10
-1.35836e-06
-2.46577e-10
-1.38031e-06
-3.18156e-10
-1.393e-06
-3.77089e-10
-1.39973e-06
-4.23273e-10
-1.40234e-06
-4.54271e-10
-1.40163e-06
-4.65154e-10
-1.3976e-06
-4.49583e-10
-1.38947e-06
-4.28766e-10
-1.3755e-06
-4.20082e-10
-1.35261e-06
-4.05907e-10
-1.31601e-06
-3.25439e-10
-1.25894e-06
-1.95036e-10
-1.17267e-06
-3.38775e-11
-1.04382e-06
-7.81152e-07
1.3288e-10
-7.82113e-07
1.7101e-10
-1.04629e-06
1.90636e-10
-1.17649e-06
1.34637e-10
-1.26403e-06
-9.46857e-13
-1.32182e-06
-1.39568e-10
-1.35822e-06
-2.43027e-10
-1.38021e-06
-3.19335e-10
-1.39292e-06
-3.77969e-10
-1.39967e-06
-4.22375e-10
-1.4023e-06
-4.54673e-10
-1.4016e-06
-4.668e-10
-1.39759e-06
-4.60295e-10
-1.38948e-06
-4.38816e-10
-1.37552e-06
-4.12443e-10
-1.35264e-06
-3.77544e-10
-1.31605e-06
-3.03918e-10
-1.25902e-06
-1.81781e-10
-1.1728e-06
-7.57244e-11
-1.04393e-06
-7.81228e-07
1.23344e-10
-7.8223e-07
1.54124e-10
-1.04632e-06
1.82899e-10
-1.17651e-06
1.50875e-10
-1.264e-06
3.33295e-11
-1.3217e-06
-1.10506e-10
-1.35808e-06
-2.32336e-10
-1.38009e-06
-3.24108e-10
-1.39283e-06
-3.92094e-10
-1.3996e-06
-4.38754e-10
-1.40225e-06
-4.7304e-10
-1.40157e-06
-4.88919e-10
-1.39757e-06
-4.89277e-10
-1.38948e-06
-4.56776e-10
-1.37555e-06
-3.98698e-10
-1.3527e-06
-3.47453e-10
-1.3161e-06
-2.98028e-10
-1.25907e-06
-1.82525e-10
-1.17292e-06
-7.21833e-11
-1.04404e-06
-7.81299e-07
1.52335e-10
-7.82365e-07
1.74292e-10
-1.04634e-06
1.47954e-10
-1.17647e-06
6.43979e-11
-1.26391e-06
-4.17605e-11
-1.32159e-06
-1.68539e-10
-1.35795e-06
-2.73063e-10
-1.37998e-06
-3.53594e-10
-1.39275e-06
-4.15303e-10
-1.39954e-06
-4.58253e-10
-1.4022e-06
-4.92328e-10
-1.40153e-06
-5.12224e-10
-1.39755e-06
-5.20981e-10
-1.38947e-06
-4.94394e-10
-1.37557e-06
-4.37635e-10
-1.35275e-06
-3.84318e-10
-1.31615e-06
-3.12105e-10
-1.25914e-06
-2.11196e-10
-1.17301e-06
-1.2599e-10
-1.04412e-06
-7.81422e-07
2.44064e-10
-7.82592e-07
2.00902e-10
-1.04629e-06
1.79201e-10
-1.17644e-06
1.02604e-10
-1.26384e-06
-1.66993e-11
-1.32146e-06
-1.45341e-10
-1.35782e-06
-2.47845e-10
-1.37987e-06
-3.28284e-10
-1.39266e-06
-3.89535e-10
-1.39947e-06
-4.30238e-10
-1.40216e-06
-4.59101e-10
-1.4015e-06
-4.79633e-10
-1.39752e-06
-4.90581e-10
-1.38945e-06
-4.81482e-10
-1.37557e-06
-4.44179e-10
-1.35279e-06
-3.75646e-10
-1.31621e-06
-2.81356e-10
-1.25922e-06
-1.81418e-10
-1.1731e-06
-8.59642e-11
-1.0442e-06
-7.81505e-07
1.29261e-10
-7.82706e-07
1.69505e-10
-1.04631e-06
1.54606e-10
-1.17642e-06
9.29904e-11
-1.26377e-06
-4.83422e-12
-1.32136e-06
-1.17411e-10
-1.35771e-06
-2.14879e-10
-1.37977e-06
-2.96933e-10
-1.39258e-06
-3.60318e-10
-1.39941e-06
-4.02198e-10
-1.40211e-06
-4.37373e-10
-1.40146e-06
-4.54669e-10
-1.3975e-06
-4.60276e-10
-1.38945e-06
-4.43235e-10
-1.37558e-06
-3.9919e-10
-1.35282e-06
-3.09258e-10
-1.3163e-06
-2.17637e-10
-1.2593e-06
-1.81549e-10
-1.17312e-06
-1.12632e-10
-1.04426e-06
-7.81616e-07
1.14315e-10
-7.82816e-07
2.0274e-10
-1.04639e-06
2.10161e-10
-1.17642e-06
1.26671e-10
-1.26368e-06
4.43061e-11
-1.32127e-06
-5.80722e-11
-1.35761e-06
-1.71819e-10
-1.37966e-06
-2.76662e-10
-1.39248e-06
-3.59696e-10
-1.39933e-06
-4.30872e-10
-1.40204e-06
-4.93593e-10
-1.4014e-06
-5.47206e-10
-1.39744e-06
-5.83581e-10
-1.38941e-06
-5.96041e-10
-1.37557e-06
-5.69833e-10
-1.35285e-06
-4.65562e-10
-1.3164e-06
-3.32545e-10
-1.25943e-06
-2.51455e-10
-1.1732e-06
-2.42552e-10
-1.04426e-06
-7.81859e-07
5.4947e-11
-7.82883e-07
2.1394e-10
-1.04654e-06
2.51243e-10
-1.17647e-06
1.70747e-10
-1.2636e-06
9.57956e-11
-1.3212e-06
-2.37955e-12
-1.35751e-06
-1.33078e-10
-1.37953e-06
-2.62459e-10
-1.39235e-06
-3.74878e-10
-1.39921e-06
-4.78125e-10
-1.40194e-06
-5.68655e-10
-1.4013e-06
-6.57668e-10
-1.39735e-06
-7.24629e-10
-1.38934e-06
-7.68349e-10
-1.37552e-06
-7.38293e-10
-1.35287e-06
-6.11737e-10
-1.31652e-06
-4.31476e-10
-1.25961e-06
-2.21427e-10
-1.17341e-06
-5.55983e-11
-1.04443e-06
-7.81916e-07
-4.95468e-11
-7.82846e-07
1.71108e-10
-1.04675e-06
2.29494e-10
-1.17654e-06
1.92218e-10
-1.26355e-06
1.06375e-10
-1.32112e-06
-7.98773e-13
-1.3574e-06
-1.33096e-10
-1.3794e-06
-2.6855e-10
-1.39221e-06
-4.00693e-10
-1.39908e-06
-5.19889e-10
-1.40182e-06
-6.14855e-10
-1.4012e-06
-7.00941e-10
-1.39727e-06
-7.58828e-10
-1.38927e-06
-7.84691e-10
-1.3755e-06
-7.32751e-10
-1.35292e-06
-6.11262e-10
-1.31664e-06
-4.3447e-10
-1.25978e-06
-1.97697e-10
-1.17365e-06
9.18621e-11
-1.04473e-06
-7.81826e-07
-5.02751e-11
-7.82798e-07
1.08752e-10
-1.0469e-06
1.6426e-10
-1.17659e-06
1.42741e-10
-1.26352e-06
4.37734e-11
-1.32102e-06
-7.24632e-11
-1.35728e-06
-2.01222e-10
-1.37926e-06
-3.29809e-10
-1.39208e-06
-4.58872e-10
-1.39894e-06
-5.76299e-10
-1.4017e-06
-6.6676e-10
-1.40111e-06
-7.33103e-10
-1.3972e-06
-7.6876e-10
-1.38924e-06
-7.62708e-10
-1.37551e-06
-6.97562e-10
-1.35299e-06
-5.69923e-10
-1.31677e-06
-3.91905e-10
-1.25997e-06
-2.07157e-10
-1.17384e-06
-1.11378e-11
-1.04493e-06
-7.81837e-07
7.64718e-11
-7.82863e-07
1.05708e-10
-1.04693e-06
1.38617e-10
-1.17662e-06
1.29768e-10
-1.26351e-06
1.89459e-11
-1.3209e-06
-1.1768e-10
-1.35713e-06
-2.59785e-10
-1.37911e-06
-3.96458e-10
-1.39194e-06
-5.21092e-10
-1.39881e-06
-6.37676e-10
-1.40158e-06
-7.25406e-10
-1.40102e-06
-7.8296e-10
-1.39714e-06
-8.09948e-10
-1.3892e-06
-7.95069e-10
-1.37551e-06
-7.32405e-10
-1.35305e-06
-5.88186e-10
-1.31691e-06
-3.85631e-10
-1.26017e-06
-2.00211e-10
-1.17403e-06
-9.76501e-11
-1.04503e-06
-7.8193e-07
1.58111e-10
-7.82999e-07
1.22986e-10
-1.04688e-06
1.73136e-10
-1.17665e-06
1.76556e-10
-1.2635e-06
5.25716e-11
-1.32077e-06
-1.08794e-10
-1.35696e-06
-2.75025e-10
-1.37894e-06
-4.31963e-10
-1.39177e-06
-5.68339e-10
-1.39867e-06
-6.82703e-10
-1.40145e-06
-7.72938e-10
-1.40092e-06
-8.27509e-10
-1.39707e-06
-8.53293e-10
-1.38917e-06
-8.36532e-10
-1.37552e-06
-7.70605e-10
-1.3531e-06
-6.35842e-10
-1.31703e-06
-4.32957e-10
-1.26036e-06
-2.22608e-10
-1.17422e-06
-8.24319e-11
-1.04514e-06
-7.82006e-07
1.41477e-10
-7.83117e-07
1.38884e-10
-1.04688e-06
1.92015e-10
-1.17669e-06
1.87106e-10
-1.26349e-06
9.24857e-11
-1.32066e-06
-6.58012e-11
-1.35679e-06
-2.46914e-10
-1.37875e-06
-4.24298e-10
-1.39158e-06
-5.83444e-10
-1.3985e-06
-7.09222e-10
-1.40131e-06
-8.12381e-10
-1.40081e-06
-8.75032e-10
-1.397e-06
-8.97008e-10
-1.38914e-06
-8.68009e-10
-1.37554e-06
-7.76642e-10
-1.35319e-06
-6.26379e-10
-1.31718e-06
-4.43803e-10
-1.26053e-06
-2.62168e-10
-1.17437e-06
-1.03687e-10
-1.04527e-06
-7.82105e-07
1.58167e-10
-7.83258e-07
1.85448e-10
-1.0469e-06
2.75431e-10
-1.17676e-06
3.07832e-10
-1.26353e-06
2.29263e-10
-1.32057e-06
5.2102e-11
-1.35661e-06
-1.58879e-10
-1.37853e-06
-3.7217e-10
-1.39136e-06
-5.62219e-10
-1.39831e-06
-7.22372e-10
-1.40115e-06
-8.5193e-10
-1.40068e-06
-9.3868e-10
-1.39691e-06
-9.81776e-10
-1.38909e-06
-9.71788e-10
-1.37555e-06
-8.81957e-10
-1.35326e-06
-7.10459e-10
-1.31734e-06
-5.05313e-10
-1.26071e-06
-3.18774e-10
-1.17453e-06
-1.72154e-10
-1.0454e-06
-7.82274e-07
1.10489e-10
-7.83357e-07
2.30031e-10
-1.04701e-06
3.6355e-10
-1.17688e-06
4.24265e-10
-1.26359e-06
3.44044e-10
-1.32048e-06
1.40453e-10
-1.35641e-06
-9.25125e-11
-1.37829e-06
-3.30712e-10
-1.39112e-06
-5.49352e-10
-1.39808e-06
-7.4465e-10
-1.40095e-06
-9.05046e-10
-1.40051e-06
-1.03564e-09
-1.39677e-06
-1.11383e-09
-1.389e-06
-1.13619e-09
-1.37552e-06
-1.0628e-09
-1.35333e-06
-8.90447e-10
-1.3175e-06
-6.41798e-10
-1.26095e-06
-3.81689e-10
-1.17478e-06
-1.61654e-10
-1.04561e-06
-7.82436e-07
4.18472e-11
-7.8339e-07
2.77379e-10
-1.04724e-06
4.42401e-10
-1.17704e-06
5.00819e-10
-1.26364e-06
4.26654e-10
-1.3204e-06
2.23052e-10
-1.3562e-06
-2.399e-11
-1.37804e-06
-2.8816e-10
-1.39086e-06
-5.35102e-10
-1.39783e-06
-7.68411e-10
-1.40071e-06
-9.65971e-10
-1.4003e-06
-1.14166e-09
-1.3966e-06
-1.25619e-09
-1.38888e-06
-1.30496e-09
-1.37547e-06
-1.24386e-09
-1.35338e-06
-1.06646e-09
-1.31768e-06
-7.76813e-10
-1.26124e-06
-4.22873e-10
-1.17514e-06
-7.50082e-11
-1.04596e-06
-7.82513e-07
4.18499e-11
-7.83421e-07
3.42157e-10
-1.04753e-06
5.03775e-10
-1.17719e-06
5.4267e-10
-1.26367e-06
4.67982e-10
-1.32032e-06
2.871e-10
-1.35602e-06
4.36036e-11
-1.37778e-06
-2.38629e-10
-1.39057e-06
-5.10076e-10
-1.39754e-06
-7.74737e-10
-1.40045e-06
-1.0031e-09
-1.40006e-06
-1.20861e-09
-1.3964e-06
-1.34644e-09
-1.38873e-06
-1.41476e-09
-1.37541e-06
-1.36643e-09
-1.35343e-06
-1.18008e-09
-1.31786e-06
-8.60311e-10
-1.26156e-06
-4.56916e-10
-1.17555e-06
-1.04351e-12
-1.04642e-06
-7.82514e-07
1.31634e-10
-7.83542e-07
4.28712e-10
-1.04781e-06
6.23364e-10
-1.17738e-06
6.76703e-10
-1.26372e-06
5.9783e-10
-1.32023e-06
4.09195e-10
-1.35583e-06
1.4463e-10
-1.37751e-06
-1.59144e-10
-1.39026e-06
-4.60798e-10
-1.39723e-06
-7.48854e-10
-1.40016e-06
-1.00312e-09
-1.3998e-06
-1.22629e-09
-1.39617e-06
-1.38473e-09
-1.38856e-06
-1.46062e-09
-1.37533e-06
-1.41275e-09
-1.35347e-06
-1.22764e-09
-1.31804e-06
-9.11352e-10
-1.26187e-06
-5.08574e-10
-1.17595e-06
-4.01896e-11
-1.04689e-06
-7.82553e-07
1.4503e-10
-7.83673e-07
4.85803e-10
-1.04814e-06
7.35143e-10
-1.17762e-06
8.17135e-10
-1.26379e-06
7.43652e-10
-1.32015e-06
5.48453e-10
-1.35563e-06
2.62905e-10
-1.37722e-06
-6.26426e-11
-1.38993e-06
-3.9105e-10
-1.3969e-06
-7.0575e-10
-1.39984e-06
-9.84766e-10
-1.39951e-06
-1.22417e-09
-1.39593e-06
-1.40168e-09
-1.38838e-06
-1.49077e-09
-1.37523e-06
-1.46139e-09
-1.35349e-06
-1.29046e-09
-1.3182e-06
-9.79165e-10
-1.26218e-06
-5.53601e-10
-1.17637e-06
-1.26794e-10
-1.04731e-06
-7.82676e-07
1.27446e-10
-7.83789e-07
5.07381e-10
-1.04851e-06
8.36945e-10
-1.17795e-06
9.79367e-10
-1.26393e-06
9.0858e-10
-1.32008e-06
6.97815e-10
-1.35541e-06
3.85956e-10
-1.3769e-06
3.41548e-11
-1.38958e-06
-3.29543e-10
-1.39653e-06
-6.74941e-10
-1.39949e-06
-9.92481e-10
-1.39919e-06
-1.25326e-09
-1.39565e-06
-1.45646e-09
-1.38817e-06
-1.56723e-09
-1.37511e-06
-1.55272e-09
-1.35349e-06
-1.38635e-09
-1.31836e-06
-1.06701e-09
-1.26248e-06
-6.27303e-10
-1.17679e-06
-2.03054e-10
-1.04771e-06
-7.82874e-07
9.16312e-11
-7.83867e-07
5.47157e-10
-1.04894e-06
9.50817e-10
-1.17834e-06
1.13259e-09
-1.2641e-06
1.05569e-09
-1.31999e-06
8.06108e-10
-1.35515e-06
4.53671e-10
-1.37655e-06
6.75338e-11
-1.38918e-06
-3.31019e-10
-1.39613e-06
-7.13634e-10
-1.39909e-06
-1.07185e-09
-1.39883e-06
-1.37714e-09
-1.39533e-06
-1.62255e-09
-1.38791e-06
-1.77202e-09
-1.37495e-06
-1.7802e-09
-1.35347e-06
-1.60413e-09
-1.31852e-06
-1.24622e-09
-1.26282e-06
-7.64363e-10
-1.17725e-06
-3.21812e-10
-1.04813e-06
-7.83193e-07
2.44781e-10
-7.84088e-07
6.95231e-10
-1.04938e-06
1.05116e-09
-1.17868e-06
1.19738e-09
-1.26423e-06
1.11622e-09
-1.3199e-06
8.47781e-10
-1.35487e-06
4.83533e-10
-1.37617e-06
7.69661e-11
-1.38877e-06
-3.45944e-10
-1.3957e-06
-7.61567e-10
-1.39867e-06
-1.15587e-09
-1.39842e-06
-1.50834e-09
-1.39497e-06
-1.79698e-09
-1.38762e-06
-1.98968e-09
-1.37475e-06
-2.02747e-09
-1.35342e-06
-1.8444e-09
-1.3187e-06
-1.43053e-09
-1.26323e-06
-8.46756e-10
-1.17782e-06
-2.82247e-10
-1.04868e-06
-7.83473e-07
4.69864e-10
-7.84536e-07
8.81364e-10
-1.04977e-06
1.26081e-09
-1.17905e-06
1.45413e-09
-1.26441e-06
1.38166e-09
-1.31982e-06
1.0897e-09
-1.35457e-06
6.82013e-10
-1.37576e-06
2.22543e-10
-1.3883e-06
-2.57145e-10
-1.39521e-06
-7.20939e-10
-1.3982e-06
-1.15921e-09
-1.39798e-06
-1.55052e-09
-1.39458e-06
-1.8718e-09
-1.38729e-06
-2.09104e-09
-1.37452e-06
-2.15134e-09
-1.35336e-06
-1.99163e-09
-1.31885e-06
-1.56958e-09
-1.26364e-06
-9.28953e-10
-1.17846e-06
-2.12773e-10
-1.04939e-06
-7.83685e-07
3.64844e-10
-7.84886e-07
9.79154e-10
-1.05036e-06
1.48809e-09
-1.17955e-06
1.75404e-09
-1.26467e-06
1.70675e-09
-1.31977e-06
1.39986e-09
-1.35426e-06
9.40317e-10
-1.37529e-06
4.1472e-10
-1.38777e-06
-1.2992e-10
-1.39466e-06
-6.56558e-10
-1.39766e-06
-1.15085e-09
-1.39748e-06
-1.58676e-09
-1.39413e-06
-1.93935e-09
-1.38693e-06
-2.17632e-09
-1.37428e-06
-2.26555e-09
-1.35327e-06
-2.13574e-09
-1.31898e-06
-1.7083e-09
-1.26406e-06
-1.04892e-09
-1.17911e-06
-3.32408e-10
-1.0501e-06
-7.84017e-07
2.48026e-10
-7.85129e-07
1.05254e-09
-1.05115e-06
1.65866e-09
-1.18015e-06
1.93558e-09
-1.26493e-06
1.86993e-09
-1.31969e-06
1.55051e-09
-1.35393e-06
1.07433e-09
-1.37481e-06
5.17316e-10
-1.3872e-06
-6.46217e-11
-1.39407e-06
-6.42651e-10
-1.39708e-06
-1.18815e-09
-1.39693e-06
-1.67833e-09
-1.39364e-06
-2.07361e-09
-1.38653e-06
-2.34704e-09
-1.374e-06
-2.4617e-09
-1.35314e-06
-2.3204e-09
-1.31911e-06
-1.862e-09
-1.26452e-06
-1.1793e-09
-1.17979e-06
-4.6423e-10
-1.05081e-06
-7.84479e-07
3.66111e-10
-7.85489e-07
1.14811e-09
-1.05193e-06
1.78053e-09
-1.18077e-06
2.06754e-09
-1.26521e-06
1.99121e-09
-1.31961e-06
1.66081e-09
-1.35359e-06
1.16931e-09
-1.37431e-06
5.89953e-10
-1.38662e-06
-2.41072e-11
-1.39345e-06
-6.41555e-10
-1.39645e-06
-1.23201e-09
-1.39633e-06
-1.76459e-09
-1.3931e-06
-2.20313e-09
-1.38608e-06
-2.51718e-09
-1.37368e-06
-2.63995e-09
-1.35301e-06
-2.47797e-09
-1.31925e-06
-2.00271e-09
-1.26498e-06
-1.30498e-09
-1.18048e-06
-5.10933e-10
-1.0516e-06
-7.84989e-07
5.25191e-10
-7.86e-07
1.26275e-09
-1.05266e-06
1.92397e-09
-1.18142e-06
2.23856e-09
-1.26552e-06
2.18253e-09
-1.31954e-06
1.83927e-09
-1.35324e-06
1.31152e-09
-1.37377e-06
6.90715e-10
-1.38599e-06
3.17463e-11
-1.39278e-06
-6.32476e-10
-1.39578e-06
-1.27153e-09
-1.39568e-06
-1.84876e-09
-1.39251e-06
-2.33179e-09
-1.38559e-06
-2.67424e-09
-1.37332e-06
-2.80964e-09
-1.35286e-06
-2.65932e-09
-1.3194e-06
-2.1672e-09
-1.26546e-06
-1.42991e-09
-1.18121e-06
-5.93924e-10
-1.05243e-06
-7.85583e-07
6.29263e-10
-7.86608e-07
1.42973e-09
-1.05345e-06
2.1189e-09
-1.1821e-06
2.45535e-09
-1.26585e-06
2.40958e-09
-1.31949e-06
2.05618e-09
-1.35288e-06
1.50208e-09
-1.37321e-06
8.31955e-10
-1.38531e-06
1.1408e-10
-1.39206e-06
-6.11318e-10
-1.39505e-06
-1.31366e-09
-1.39497e-06
-1.95655e-09
-1.39186e-06
-2.50308e-09
-1.38504e-06
-2.88459e-09
-1.37294e-06
-3.03368e-09
-1.35271e-06
-2.89454e-09
-1.31953e-06
-2.38666e-09
-1.26597e-06
-1.57806e-09
-1.18202e-06
-6.5947e-10
-1.05335e-06
-7.86241e-07
6.96097e-10
-7.87282e-07
1.60922e-09
-1.05435e-06
2.37206e-09
-1.18284e-06
2.77018e-09
-1.26624e-06
2.74539e-09
-1.31945e-06
2.38121e-09
-1.35251e-06
1.7896e-09
-1.37261e-06
1.05289e-09
-1.38457e-06
2.53904e-10
-1.39125e-06
-5.55934e-10
-1.39423e-06
-1.33882e-09
-1.39418e-06
-2.06274e-09
-1.39113e-06
-2.68224e-09
-1.38441e-06
-3.12499e-09
-1.37249e-06
-3.31202e-09
-1.35251e-06
-3.16109e-09
-1.31967e-06
-2.61565e-09
-1.26651e-06
-1.70601e-09
-1.18292e-06
-6.35348e-10
-1.05441e-06
-7.86872e-07
6.17364e-10
-7.87881e-07
1.73332e-09
-1.05545e-06
2.60687e-09
-1.1837e-06
3.07248e-09
-1.26669e-06
3.06725e-09
-1.31943e-06
2.69287e-09
-1.35212e-06
2.06304e-09
-1.37197e-06
1.27116e-09
-1.38376e-06
4.04606e-10
-1.39037e-06
-4.73647e-10
-1.39334e-06
-1.32117e-09
-1.39332e-06
-2.10231e-09
-1.39033e-06
-2.77537e-09
-1.38372e-06
-3.27012e-09
-1.37198e-06
-3.50418e-09
-1.35227e-06
-3.35484e-09
-1.31981e-06
-2.75827e-09
-1.26709e-06
-1.76003e-09
-1.18391e-06
-5.39228e-10
-1.05561e-06
-7.87406e-07
6.28781e-10
-7.88492e-07
1.86262e-09
-1.05667e-06
2.76335e-09
-1.18458e-06
3.23882e-09
-1.26715e-06
3.26039e-09
-1.31943e-06
2.89779e-09
-1.35174e-06
2.25694e-09
-1.37131e-06
1.44129e-09
-1.38293e-06
5.30509e-10
-1.38945e-06
-3.91264e-10
-1.3924e-06
-1.28686e-09
-1.39241e-06
-2.09892e-09
-1.3895e-06
-2.79268e-09
-1.38302e-06
-3.29791e-09
-1.37146e-06
-3.53025e-09
-1.35202e-06
-3.39633e-09
-1.31993e-06
-2.81925e-09
-1.26765e-06
-1.85106e-09
-1.18485e-06
-6.2036e-10
-1.05682e-06
-7.88022e-07
8.11709e-10
-7.89286e-07
2.00027e-09
-1.05784e-06
2.948e-09
-1.18552e-06
3.45455e-09
-1.26765e-06
3.49544e-09
-1.31946e-06
3.11845e-09
-1.35136e-06
2.44585e-09
-1.37063e-06
1.58628e-09
-1.38206e-06
6.25263e-10
-1.38848e-06
-3.56072e-10
-1.3914e-06
-1.31417e-09
-1.39145e-06
-2.1838e-09
-1.38862e-06
-2.92253e-09
-1.38227e-06
-3.45433e-09
-1.37092e-06
-3.70366e-09
-1.35176e-06
-3.57814e-09
-1.32005e-06
-3.01503e-09
-1.2682e-06
-2.04803e-09
-1.1858e-06
-9.41178e-10
-1.0579e-06
-7.88961e-07
9.24195e-10
-7.90185e-07
2.14254e-09
-1.05905e-06
3.13053e-09
-1.18649e-06
3.66256e-09
-1.26817e-06
3.72212e-09
-1.31951e-06
3.33282e-09
-1.35096e-06
2.62417e-09
-1.36991e-06
1.71159e-09
-1.38114e-06
6.95247e-10
-1.38746e-06
-3.57083e-10
-1.39034e-06
-1.38947e-09
-1.39041e-06
-2.34522e-09
-1.38765e-06
-3.16072e-09
-1.38145e-06
-3.75733e-09
-1.37031e-06
-4.04526e-09
-1.35147e-06
-3.9236e-09
-1.32016e-06
-3.313e-09
-1.2688e-06
-2.24042e-09
-1.18686e-06
-1.06516e-09
-1.05907e-06
-7.90024e-07
1.05168e-09
-7.91214e-07
2.32234e-09
-1.0603e-06
3.38606e-09
-1.18754e-06
3.96832e-09
-1.26875e-06
4.04265e-09
-1.31958e-06
3.63076e-09
-1.35054e-06
2.86995e-09
-1.36914e-06
1.89737e-09
-1.38016e-06
8.10725e-10
-1.38636e-06
-3.19024e-10
-1.38921e-06
-1.4329e-09
-1.38929e-06
-2.47708e-09
-1.3866e-06
-3.37535e-09
-1.38054e-06
-4.04494e-09
-1.36964e-06
-4.36517e-09
-1.35114e-06
-4.24119e-09
-1.32028e-06
-3.5791e-09
-1.26946e-06
-2.3925e-09
-1.18804e-06
-9.78493e-10
-1.06047e-06
-7.91001e-07
1.04101e-09
-7.92235e-07
2.46202e-09
-1.0617e-06
3.66202e-09
-1.18872e-06
4.33346e-09
-1.26941e-06
4.41548e-09
-1.31965e-06
3.97055e-09
-1.35009e-06
3.15217e-09
-1.36832e-06
2.11864e-09
-1.37912e-06
9.63348e-10
-1.3852e-06
-2.37987e-10
-1.388e-06
-1.42217e-09
-1.38809e-06
-2.53488e-09
-1.38549e-06
-3.49899e-09
-1.37957e-06
-4.22466e-09
-1.36891e-06
-4.57979e-09
-1.35077e-06
-4.45734e-09
-1.32039e-06
-3.77014e-09
-1.27014e-06
-2.51722e-09
-1.18929e-06
-9.17523e-10
-1.06207e-06
-7.91917e-07
9.49724e-10
-7.93165e-07
2.54659e-09
-1.06328e-06
3.86227e-09
-1.19003e-06
4.60228e-09
-1.27014e-06
4.70187e-09
-1.31974e-06
4.2425e-09
-1.34962e-06
3.39158e-09
-1.36746e-06
2.31159e-09
-1.37802e-06
1.10382e-09
-1.38398e-06
-1.53657e-10
-1.38673e-06
-1.39405e-09
-1.38684e-06
-2.55444e-09
-1.38432e-06
-3.56197e-09
-1.37855e-06
-4.32182e-09
-1.36814e-06
-4.70741e-09
-1.35038e-06
-4.60855e-09
-1.32048e-06
-3.91684e-09
-1.27082e-06
-2.63743e-09
-1.19056e-06
-1.0158e-09
-1.06368e-06
-7.92931e-07
1.01052e-09
-7.9416e-07
2.69533e-09
-1.06494e-06
4.07659e-09
-1.1914e-06
4.84762e-09
-1.27089e-06
4.94386e-09
-1.31982e-06
4.46574e-09
-1.34913e-06
3.58752e-09
-1.36657e-06
2.46564e-09
-1.37689e-06
1.21315e-09
-1.38272e-06
-9.35878e-11
-1.38541e-06
-1.38567e-09
-1.38554e-06
-2.59931e-09
-1.3831e-06
-3.65554e-09
-1.37748e-06
-4.4559e-09
-1.36733e-06
-4.87924e-09
-1.34995e-06
-4.79224e-09
-1.32056e-06
-4.07871e-09
-1.27153e-06
-2.76105e-09
-1.19187e-06
-1.17462e-09
-1.06525e-06
-7.94102e-07
1.21729e-09
-7.95363e-07
2.91502e-09
-1.06663e-06
4.29096e-09
-1.19276e-06
5.05315e-09
-1.27164e-06
5.13391e-09
-1.3199e-06
4.64742e-09
-1.34863e-06
3.75261e-09
-1.36567e-06
2.60169e-09
-1.37573e-06
1.30887e-09
-1.38142e-06
-4.06633e-11
-1.38405e-06
-1.38776e-09
-1.38419e-06
-2.65278e-09
-1.38182e-06
-3.75805e-09
-1.37637e-06
-4.5946e-09
-1.36648e-06
-5.04289e-09
-1.34949e-06
-4.96218e-09
-1.32063e-06
-4.24311e-09
-1.27223e-06
-2.91254e-09
-1.19318e-06
-1.29226e-09
-1.06686e-06
-7.95392e-07
1.37504e-09
-7.96719e-07
3.08434e-09
-1.06831e-06
4.52583e-09
-1.19419e-06
5.34246e-09
-1.27245e-06
5.44013e-09
-1.31998e-06
4.94105e-09
-1.34813e-06
4.00865e-09
-1.36473e-06
2.80306e-09
-1.37452e-06
1.44126e-09
-1.38005e-06
1.81063e-11
-1.38262e-06
-1.40605e-09
-1.38276e-06
-2.74488e-09
-1.38047e-06
-3.91883e-09
-1.37518e-06
-4.81358e-09
-1.36557e-06
-5.29691e-09
-1.34899e-06
-5.21781e-09
-1.3207e-06
-4.4682e-09
-1.27297e-06
-3.09832e-09
-1.19454e-06
-1.44741e-09
-1.0685e-06
-7.96838e-07
1.3336e-09
-7.9803e-07
3.19996e-09
-1.07016e-06
4.75182e-09
-1.19573e-06
5.63406e-09
-1.27331e-06
5.76237e-09
-1.3201e-06
5.25102e-09
-1.3476e-06
4.27511e-09
-1.36374e-06
3.00471e-09
-1.37324e-06
1.56746e-09
-1.37861e-06
5.59492e-11
-1.3811e-06
-1.45386e-09
-1.38124e-06
-2.88417e-09
-1.37903e-06
-4.14215e-09
-1.37392e-06
-5.11084e-09
-1.36459e-06
-5.63983e-09
-1.34845e-06
-5.54691e-09
-1.32078e-06
-4.71943e-09
-1.27379e-06
-3.24063e-09
-1.19602e-06
-1.4513e-09
-1.07028e-06
-7.98288e-07
1.37095e-09
-7.99383e-07
3.35805e-09
-1.07213e-06
4.94128e-09
-1.19729e-06
5.80975e-09
-1.27417e-06
5.92225e-09
-1.3202e-06
5.39908e-09
-1.34706e-06
4.40878e-09
-1.36274e-06
3.11335e-09
-1.37193e-06
1.63776e-09
-1.37712e-06
7.56944e-11
-1.37953e-06
-1.48924e-09
-1.37967e-06
-2.97752e-09
-1.37753e-06
-4.29243e-09
-1.3726e-06
-5.30427e-09
-1.36357e-06
-5.85813e-09
-1.34789e-06
-5.76748e-09
-1.32086e-06
-4.91046e-09
-1.27464e-06
-3.34337e-09
-1.19758e-06
-1.34999e-09
-1.07227e-06
-7.99635e-07
1.60568e-09
-8.00978e-07
3.55741e-09
-1.07407e-06
5.12949e-09
-1.19886e-06
5.98346e-09
-1.27501e-06
6.07742e-09
-1.32028e-06
5.54675e-09
-1.34652e-06
4.54928e-09
-1.36173e-06
3.24027e-09
-1.37061e-06
1.73519e-09
-1.37561e-06
1.42724e-10
-1.37792e-06
-1.46017e-09
-1.37806e-06
-2.97987e-09
-1.376e-06
-4.32971e-09
-1.37124e-06
-5.36839e-09
-1.36252e-06
-5.9472e-09
-1.34731e-06
-5.88597e-09
-1.32091e-06
-5.03717e-09
-1.27548e-06
-3.42719e-09
-1.19918e-06
-1.38706e-09
-1.07429e-06
-8.01018e-07
1.75129e-09
-8.02715e-07
3.72683e-09
-1.07603e-06
5.37984e-09
-1.2005e-06
6.30297e-09
-1.27592e-06
6.41492e-09
-1.32039e-06
5.86832e-09
-1.34597e-06
4.82948e-09
-1.36069e-06
3.46947e-09
-1.36924e-06
1.902e-09
-1.37404e-06
2.53648e-10
-1.37626e-06
-1.40543e-09
-1.37639e-06
-2.96487e-09
-1.37443e-06
-4.34404e-09
-1.36986e-06
-5.40146e-09
-1.36145e-06
-5.99208e-09
-1.34671e-06
-5.94616e-09
-1.32095e-06
-5.11139e-09
-1.27631e-06
-3.5242e-09
-1.20075e-06
-1.55503e-09
-1.07625e-06
-8.02571e-07
1.65346e-09
-8.04349e-07
3.84944e-09
-1.07821e-06
5.62636e-09
-1.20226e-06
6.60645e-09
-1.27688e-06
6.72721e-09
-1.3205e-06
6.15282e-09
-1.34538e-06
5.07301e-09
-1.3596e-06
3.6538e-09
-1.36781e-06
2.02519e-09
-1.3724e-06
3.0365e-10
-1.37453e-06
-1.42314e-09
-1.37466e-06
-3.05218e-09
-1.37279e-06
-4.49074e-09
-1.36841e-06
-5.60255e-09
-1.36033e-06
-6.23176e-09
-1.34607e-06
-6.19601e-09
-1.32098e-06
-5.33345e-09
-1.27716e-06
-3.70751e-09
-1.20236e-06
-1.76951e-09
-1.07817e-06
-8.04339e-07
1.68018e-09
-8.06014e-07
3.99454e-09
-1.08051e-06
5.79258e-09
-1.20404e-06
6.74847e-09
-1.27783e-06
6.85175e-09
-1.32058e-06
6.2624e-09
-1.34478e-06
5.17102e-09
-1.3585e-06
3.72234e-09
-1.36636e-06
2.05582e-09
-1.37073e-06
2.75585e-10
-1.37275e-06
-1.51412e-09
-1.37287e-06
-3.22027e-09
-1.37108e-06
-4.73063e-09
-1.3669e-06
-5.91142e-09
-1.35915e-06
-6.57915e-09
-1.34539e-06
-6.53235e-09
-1.32101e-06
-5.60821e-09
-1.27807e-06
-3.86812e-09
-1.2041e-06
-1.75543e-09
-1.08028e-06
-8.06094e-07
1.87809e-09
-8.07889e-07
4.13977e-09
-1.08277e-06
5.96674e-09
-1.20586e-06
6.94775e-09
-1.2788e-06
7.03923e-09
-1.32067e-06
6.43015e-09
-1.34417e-06
5.30342e-09
-1.35737e-06
3.8152e-09
-1.36487e-06
2.09907e-09
-1.36901e-06
2.63765e-10
-1.37091e-06
-1.58599e-09
-1.37101e-06
-3.35818e-09
-1.36931e-06
-4.92916e-09
-1.36532e-06
-6.16736e-09
-1.35791e-06
-6.87292e-09
-1.34468e-06
-6.83192e-09
-1.32105e-06
-5.87857e-09
-1.27902e-06
-4.0464e-09
-1.20593e-06
-1.71128e-09
-1.08262e-06
-8.07808e-07
1.94132e-09
-8.09831e-07
4.28784e-09
-1.08511e-06
6.18942e-09
-1.20777e-06
7.2105e-09
-1.27982e-06
7.29374e-09
-1.32076e-06
6.65065e-09
-1.34352e-06
5.47751e-09
-1.35619e-06
3.94111e-09
-1.36333e-06
2.17111e-09
-1.36724e-06
2.80071e-10
-1.36902e-06
-1.62418e-09
-1.36911e-06
-3.44884e-09
-1.36748e-06
-5.06889e-09
-1.3637e-06
-6.35139e-09
-1.35663e-06
-7.09803e-09
-1.34393e-06
-7.08298e-09
-1.32106e-06
-6.11003e-09
-1.27999e-06
-4.21584e-09
-1.20783e-06
-1.77099e-09
-1.08507e-06
-8.09582e-07
1.9848e-09
-8.11817e-07
4.46648e-09
-1.0876e-06
6.42841e-09
-1.20973e-06
7.45835e-09
-1.28085e-06
7.53605e-09
-1.32083e-06
6.8622e-09
-1.34285e-06
5.64798e-09
-1.35498e-06
4.06079e-09
-1.36174e-06
2.23604e-09
-1.36541e-06
2.8831e-10
-1.36707e-06
-1.67493e-09
-1.36714e-06
-3.55234e-09
-1.36561e-06
-5.21923e-09
-1.36203e-06
-6.5314e-09
-1.35532e-06
-7.29802e-09
-1.34316e-06
-7.28459e-09
-1.32107e-06
-6.2915e-09
-1.28099e-06
-4.36171e-09
-1.20978e-06
-1.87277e-09
-1.08758e-06
-8.11456e-07
2.02521e-09
-8.13842e-07
4.59335e-09