/*--------------------------------*- C++ -*----------------------------------*\
  =========                 |
  \\      /  F ield         | OpenFOAM: The Open Source CFD Toolbox
   \\    /   O peration     | Website:  https://openfoam.org
    \\  /    A nd           | Version:  6
     \\/     M anipulation  |
\*---------------------------------------------------------------------------*/
FoamFile
{
    version     2.0;
    format      ascii;
    class       volVectorField;
    location    "22";
    object      U;
}
// * * * * * * * * * * * * * * * * * * * * * * * * * * * * * * * * * * * * * //

dimensions      [0 1 -1 0 0 0 0];

internalField   nonuniform List<vector> 
130000
(
(-0.017121 -0.342783 0)
(-0.0177511 -0.368178 0)
(-0.0183146 -0.392744 0)
(-0.0188181 -0.416664 0)
(-0.0192654 -0.439747 0)
(-0.0196638 -0.46182 0)
(-0.0200191 -0.482737 0)
(-0.0203363 -0.502377 0)
(-0.0206197 -0.520646 0)
(-0.0208738 -0.537479 0)
(-0.0211023 -0.552835 0)
(-0.0213089 -0.5667 0)
(-0.0214969 -0.579084 0)
(-0.0216684 -0.590021 0)
(-0.0218263 -0.599563 0)
(-0.0219724 -0.607785 0)
(-0.0221083 -0.614778 0)
(-0.0222357 -0.620645 0)
(-0.0223568 -0.625505 0)
(-0.0224723 -0.629434 0)
(-0.0186889 -0.341149 0)
(-0.0191455 -0.366599 0)
(-0.0195755 -0.391302 0)
(-0.0199855 -0.415359 0)
(-0.0203613 -0.438575 0)
(-0.020702 -0.46077 0)
(-0.0210094 -0.481798 0)
(-0.021286 -0.501536 0)
(-0.0215351 -0.519892 0)
(-0.0217599 -0.536799 0)
(-0.021964 -0.552219 0)
(-0.0221501 -0.566138 0)
(-0.0223209 -0.578568 0)
(-0.0224792 -0.589543 0)
(-0.0226267 -0.599118 0)
(-0.0227649 -0.607368 0)
(-0.0228955 -0.614384 0)
(-0.0230192 -0.620271 0)
(-0.0231379 -0.625146 0)
(-0.0232523 -0.629092 0)
(-0.0209478 -0.340398 0)
(-0.0213129 -0.365839 0)
(-0.0216445 -0.390567 0)
(-0.0219572 -0.414669 0)
(-0.0222463 -0.437937 0)
(-0.0225098 -0.460188 0)
(-0.02275 -0.481269 0)
(-0.0229679 -0.501056 0)
(-0.0231664 -0.519455 0)
(-0.0233476 -0.536401 0)
(-0.0235145 -0.551854 0)
(-0.023669 -0.565802 0)
(-0.0238141 -0.578256 0)
(-0.0239505 -0.589252 0)
(-0.0240806 -0.598845 0)
(-0.0242052 -0.60711 0)
(-0.0243252 -0.614139 0)
(-0.0244413 -0.620039 0)
(-0.0245548 -0.624926 0)
(-0.0246657 -0.628881 0)
(-0.024118 -0.339803 0)
(-0.0243131 -0.365253 0)
(-0.0244916 -0.390007 0)
(-0.0246698 -0.414146 0)
(-0.0248394 -0.437454 0)
(-0.0249979 -0.459746 0)
(-0.0251455 -0.480866 0)
(-0.0252821 -0.500688 0)
(-0.0254095 -0.519119 0)
(-0.0255284 -0.536092 0)
(-0.0256413 -0.551567 0)
(-0.0257489 -0.565532 0)
(-0.0258532 -0.578001 0)
(-0.0259554 -0.589007 0)
(-0.0260565 -0.598608 0)
(-0.0261569 -0.60688 0)
(-0.0262575 -0.613915 0)
(-0.0263578 -0.61982 0)
(-0.0264588 -0.624711 0)
(-0.0265598 -0.62867 0)
(-0.027747 -0.339525 0)
(-0.027808 -0.36496 0)
(-0.0278568 -0.389717 0)
(-0.0279062 -0.413864 0)
(-0.0279552 -0.437187 0)
(-0.0280022 -0.459496 0)
(-0.0280484 -0.480632 0)
(-0.028093 -0.50047 0)
(-0.0281376 -0.518914 0)
(-0.0281824 -0.535896 0)
(-0.0282291 -0.551378 0)
(-0.0282782 -0.565347 0)
(-0.0283316 -0.577817 0)
(-0.0283885 -0.588823 0)
(-0.0284506 -0.598423 0)
(-0.0285174 -0.606693 0)
(-0.028589 -0.613725 0)
(-0.028665 -0.619627 0)
(-0.0287457 -0.624516 0)
(-0.0288301 -0.628475 0)
(-0.0317563 -0.339478 0)
(-0.0316717 -0.364898 0)
(-0.0315882 -0.389653 0)
(-0.0315149 -0.413803 0)
(-0.0314472 -0.43713 0)
(-0.0313851 -0.459442 0)
(-0.0313291 -0.480581 0)
(-0.031279 -0.50042 0)
(-0.0312363 -0.518861 0)
(-0.0312009 -0.535839 0)
(-0.0311747 -0.551313 0)
(-0.0311577 -0.565273 0)
(-0.0311508 -0.577731 0)
(-0.0311544 -0.588725 0)
(-0.0311687 -0.598312 0)
(-0.0311928 -0.606569 0)
(-0.031227 -0.613589 0)
(-0.0312697 -0.61948 0)
(-0.0313209 -0.62436 0)
(-0.031379 -0.628311 0)
(-0.035902 -0.339599 0)
(-0.0357227 -0.365012 0)
(-0.0355485 -0.389777 0)
(-0.0353745 -0.413935 0)
(-0.0352055 -0.437266 0)
(-0.0350425 -0.459579 0)
(-0.0348892 -0.480714 0)
(-0.0347457 -0.500545 0)
(-0.0346149 -0.518974 0)
(-0.0344967 -0.535935 0)
(-0.0343936 -0.55139 0)
(-0.0343054 -0.565329 0)
(-0.0342337 -0.577764 0)
(-0.0341772 -0.588734 0)
(-0.0341371 -0.598297 0)
(-0.0341118 -0.606531 0)
(-0.0341011 -0.61353 0)
(-0.0341034 -0.619402 0)
(-0.0341188 -0.624265 0)
(-0.0341451 -0.628202 0)
(-0.0402257 -0.339872 0)
(-0.0399627 -0.365303 0)
(-0.0396947 -0.39009 0)
(-0.039426 -0.414262 0)
(-0.0391607 -0.437597 0)
(-0.0389018 -0.459908 0)
(-0.0386542 -0.481033 0)
(-0.0384192 -0.500847 0)
(-0.0382004 -0.519254 0)
(-0.0379986 -0.536189 0)
(-0.0378164 -0.551614 0)
(-0.0376539 -0.56552 0)
(-0.0375122 -0.577922 0)
(-0.0373914 -0.588858 0)
(-0.0372915 -0.598388 0)
(-0.0372109 -0.60659 0)
(-0.0371497 -0.613559 0)
(-0.0371053 -0.619403 0)
(-0.0370776 -0.624241 0)
(-0.0370643 -0.628158 0)
(-0.0446619 -0.340368 0)
(-0.0442994 -0.365811 0)
(-0.0439443 -0.390614 0)
(-0.0435907 -0.414794 0)
(-0.0432382 -0.438129 0)
(-0.0428912 -0.460431 0)
(-0.0425553 -0.481538 0)
(-0.0422333 -0.501328 0)
(-0.0419294 -0.519704 0)
(-0.0416453 -0.536604 0)
(-0.0413842 -0.55199 0)
(-0.0411466 -0.565855 0)
(-0.0409345 -0.578213 0)
(-0.0407465 -0.589106 0)
(-0.0405838 -0.598594 0)
(-0.0404447 -0.606755 0)
(-0.0403286 -0.613685 0)
(-0.0402332 -0.619494 0)
(-0.0401587 -0.6243 0)
(-0.0401024 -0.628189 0)
(-0.0490214 -0.341016 0)
(-0.0486394 -0.366486 0)
(-0.0482291 -0.391312 0)
(-0.0478089 -0.415503 0)
(-0.0473824 -0.438839 0)
(-0.0469572 -0.46113 0)
(-0.0465407 -0.482217 0)
(-0.0461377 -0.501978 0)
(-0.0457531 -0.520318 0)
(-0.0453901 -0.537176 0)
(-0.045052 -0.552517 0)
(-0.0447402 -0.566332 0)
(-0.0444562 -0.578641 0)
(-0.0442005 -0.589483 0)
(-0.0439731 -0.59892 0)
(-0.0437726 -0.607034 0)
(-0.0435988 -0.613918 0)
(-0.0434489 -0.619685 0)
(-0.0433229 -0.624452 0)
(-0.0432181 -0.628307 0)
(-0.0534529 -0.341766 0)
(-0.0530088 -0.367281 0)
(-0.0525395 -0.392144 0)
(-0.0520581 -0.416358 0)
(-0.0515645 -0.4397 0)
(-0.0510682 -0.461985 0)
(-0.0505776 -0.483053 0)
(-0.050099 -0.502785 0)
(-0.0496381 -0.521087 0)
(-0.0491994 -0.5379 0)
(-0.0487867 -0.55319 0)
(-0.0484021 -0.566952 0)
(-0.0480482 -0.579204 0)
(-0.0477242 -0.58999 0)
(-0.0474315 -0.599372 0)
(-0.0471687 -0.607431 0)
(-0.0469352 -0.614264 0)
(-0.0467286 -0.619983 0)
(-0.0465493 -0.624705 0)
(-0.0463946 -0.628521 0)
(-0.0578267 -0.34261 0)
(-0.0573741 -0.36819 0)
(-0.0568633 -0.393106 0)
(-0.0563273 -0.417352 0)
(-0.0557716 -0.440708 0)
(-0.055208 -0.46299 0)
(-0.0546469 -0.484041 0)
(-0.054096 -0.503743 0)
(-0.0535621 -0.522006 0)
(-0.0530503 -0.538771 0)
(-0.0525652 -0.554008 0)
(-0.0521094 -0.567713 0)
(-0.0516851 -0.579905 0)
(-0.0512936 -0.59063 0)
(-0.050935 -0.599951 0)
(-0.0506086 -0.607951 0)
(-0.0503141 -0.614728 0)
(-0.0500488 -0.620393 0)
(-0.0498131 -0.625066 0)
(-0.0496045 -0.628837 0)
(-0.062317 -0.343579 0)
(-0.0617819 -0.369238 0)
(-0.0612055 -0.39421 0)
(-0.0606078 -0.418491 0)
(-0.0599881 -0.441862 0)
(-0.0593589 -0.464142 0)
(-0.05873 -0.485176 0)
(-0.0581102 -0.504849 0)
(-0.0575062 -0.523071 0)
(-0.0569242 -0.539788 0)
(-0.0563689 -0.554969 0)
(-0.0558438 -0.568614 0)
(-0.0553515 -0.580743 0)
(-0.0548926 -0.591404 0)
(-0.0544685 -0.600661 0)
(-0.0540784 -0.608598 0)
(-0.0537219 -0.615314 0)
(-0.0533968 -0.620921 0)
(-0.053104 -0.62554 0)
(-0.052841 -0.629262 0)
(-0.0667551 -0.344676 0)
(-0.066158 -0.370407 0)
(-0.0655284 -0.395436 0)
(-0.0648749 -0.419754 0)
(-0.0641964 -0.443145 0)
(-0.0635059 -0.465426 0)
(-0.0628135 -0.486447 0)
(-0.0621286 -0.506092 0)
(-0.061458 -0.524276 0)
(-0.0608087 -0.540945 0)
(-0.0601856 -0.55607 0)
(-0.0595926 -0.569654 0)
(-0.0590324 -0.581719 0)
(-0.0585071 -0.592313 0)
(-0.0580172 -0.601503 0)
(-0.0575627 -0.609374 0)
(-0.0571436 -0.616025 0)
(-0.0567572 -0.621572 0)
(-0.0564049 -0.626133 0)
(-0.0560844 -0.629801 0)
(-0.071169 -0.345815 0)
(-0.0705084 -0.371638 0)
(-0.0698349 -0.396741 0)
(-0.0691305 -0.421112 0)
(-0.0683974 -0.444534 0)
(-0.0676488 -0.466827 0)
(-0.0668957 -0.487841 0)
(-0.0661477 -0.507465 0)
(-0.0654125 -0.525614 0)
(-0.0646973 -0.542237 0)
(-0.0640075 -0.557308 0)
(-0.0633476 -0.570831 0)
(-0.0627211 -0.582831 0)
(-0.0621291 -0.593357 0)
(-0.0615736 -0.602478 0)
(-0.0610545 -0.61028 0)
(-0.0605717 -0.616865 0)
(-0.0601233 -0.622347 0)
(-0.059711 -0.626847 0)
(-0.059333 -0.630458 0)
(-0.0756249 -0.347009 0)
(-0.0748831 -0.372937 0)
(-0.0741545 -0.39813 0)
(-0.073395 -0.422566 0)
(-0.0726046 -0.446031 0)
(-0.0717961 -0.468344 0)
(-0.0709811 -0.489359 0)
(-0.0701693 -0.508966 0)
(-0.0693688 -0.527084 0)
(-0.0685873 -0.543664 0)
(-0.0678307 -0.558682 0)
(-0.0671036 -0.572145 0)
(-0.0664092 -0.584079 0)
(-0.0657504 -0.594537 0)
(-0.0651282 -0.603587 0)
(-0.0645432 -0.611319 0)
(-0.0639958 -0.617834 0)
(-0.0634837 -0.623249 0)
(-0.0630091 -0.627685 0)
(-0.0625705 -0.631236 0)
(-0.0800725 -0.3483 0)
(-0.0792628 -0.374346 0)
(-0.0784843 -0.399636 0)
(-0.0776684 -0.424142 0)
(-0.0768185 -0.447652 0)
(-0.0759477 -0.46999 0)
(-0.0750687 -0.491008 0)
(-0.0741913 -0.510601 0)
(-0.0733243 -0.52869 0)
(-0.0724754 -0.545228 0)
(-0.0716508 -0.560194 0)
(-0.0708555 -0.573597 0)
(-0.0700934 -0.585465 0)
(-0.0693663 -0.595853 0)
(-0.0686767 -0.604831 0)
(-0.068025 -0.612491 0)
(-0.0674114 -0.618935 0)
(-0.0668343 -0.624279 0)
(-0.0662967 -0.628648 0)
(-0.0657974 -0.632134 0)
(-0.0845829 -0.349732 0)
(-0.0836696 -0.375897 0)
(-0.0828208 -0.401277 0)
(-0.0819425 -0.425852 0)
(-0.0810296 -0.449408 0)
(-0.0800953 -0.471769 0)
(-0.0791513 -0.492793 0)
(-0.0782079 -0.512373 0)
(-0.0772735 -0.530433 0)
(-0.0763563 -0.546931 0)
(-0.0754628 -0.561845 0)
(-0.0745981 -0.575188 0)
(-0.073766 -0.58699 0)
(-0.0729697 -0.597308 0)
(-0.0722109 -0.606213 0)
(-0.0714903 -0.613799 0)
(-0.070809 -0.620169 0)
(-0.0701649 -0.625441 0)
(-0.0695614 -0.629739 0)
(-0.0689979 -0.633157 0)
(-0.0889819 -0.351271 0)
(-0.0880186 -0.377558 0)
(-0.0871265 -0.403034 0)
(-0.0861962 -0.427682 0)
(-0.0852265 -0.451287 0)
(-0.0842315 -0.473677 0)
(-0.0832239 -0.49471 0)
(-0.0822145 -0.514281 0)
(-0.0812124 -0.532316 0)
(-0.0802262 -0.548774 0)
(-0.0792626 -0.563639 0)
(-0.0783273 -0.576922 0)
(-0.0774247 -0.588658 0)
(-0.0765572 -0.598905 0)
(-0.0757276 -0.607736 0)
(-0.0749368 -0.615246 0)
(-0.0741856 -0.621539 0)
(-0.0734726 -0.626736 0)
(-0.0728021 -0.630961 0)
(-0.0721739 -0.634308 0)
(-0.093388 -0.352854 0)
(-0.0923679 -0.379287 0)
(-0.0914273 -0.40488 0)
(-0.0904443 -0.429616 0)
(-0.089417 -0.453283 0)
(-0.0883604 -0.47571 0)
(-0.0872882 -0.496758 0)
(-0.0862115 -0.516325 0)
(-0.0851402 -0.534339 0)
(-0.0840831 -0.550761 0)
(-0.0830477 -0.565577 0)
(-0.0820396 -0.578802 0)
(-0.0810633 -0.590472 0)
(-0.0801227 -0.600647 0)
(-0.0792197 -0.609403 0)
(-0.0783558 -0.616836 0)
(-0.0775325 -0.623052 0)
(-0.0767478 -0.628172 0)
(-0.0760067 -0.63232 0)
(-0.0753096 -0.635592 0)
(-0.0978044 -0.354511 0)
(-0.0967297 -0.381109 0)
(-0.0957404 -0.406835 0)
(-0.0947002 -0.43167 0)
(-0.0936111 -0.455407 0)
(-0.0924887 -0.477878 0)
(-0.0913482 -0.498946 0)
(-0.0902008 -0.518512 0)
(-0.0890572 -0.536508 0)
(-0.0879264 -0.552895 0)
(-0.086816 -0.567664 0)
(-0.0857325 -0.580833 0)
(-0.0846808 -0.592437 0)
(-0.0836638 -0.602541 0)
(-0.0826849 -0.611221 0)
(-0.0817457 -0.618576 0)
(-0.0808472 -0.624711 0)
(-0.0799883 -0.629751 0)
(-0.0791749 -0.63382 0)
(-0.0784076 -0.637014 0)
(-0.10231 -0.356311 0)
(-0.101133 -0.383075 0)
(-0.10007 -0.408931 0)
(-0.0989622 -0.433866 0)
(-0.0978047 -0.457674 0)
(-0.0966125 -0.480191 0)
(-0.0954001 -0.501282 0)
(-0.0941792 -0.52085 0)
(-0.0929601 -0.538829 0)
(-0.0917525 -0.555185 0)
(-0.0905644 -0.569908 0)
(-0.0894021 -0.58302 0)
(-0.0882706 -0.594559 0)
(-0.0871745 -0.604591 0)
(-0.0861162 -0.613194 0)
(-0.0850977 -0.620469 0)
(-0.084121 -0.626523 0)
(-0.0831843 -0.631481 0)
(-0.0822944 -0.635468 0)
(-0.0814523 -0.63858 0)
(-0.106725 -0.358238 0)
(-0.105492 -0.385173 0)
(-0.104377 -0.411161 0)
(-0.10321 -0.4362 0)
(-0.101987 -0.460086 0)
(-0.100725 -0.482653 0)
(-0.0994395 -0.50377 0)
(-0.0981428 -0.523343 0)
(-0.0968457 -0.541309 0)
(-0.0955584 -0.557634 0)
(-0.0942892 -0.572314 0)
(-0.093045 -0.585369 0)
(-0.0918315 -0.596843 0)
(-0.0906524 -0.606803 0)
(-0.0895115 -0.615329 0)
(-0.0884108 -0.622522 0)
(-0.0873522 -0.628493 0)
(-0.0863348 -0.633366 0)
(-0.0853659 -0.637268 0)
(-0.0844472 -0.640295 0)
(-0.11115 -0.360239 0)
(-0.109855 -0.387365 0)
(-0.108682 -0.413506 0)
(-0.107452 -0.438663 0)
(-0.106162 -0.462636 0)
(-0.104828 -0.485261 0)
(-0.103466 -0.506411 0)
(-0.10209 -0.525994 0)
(-0.100712 -0.543949 0)
(-0.0993412 -0.560248 0)
(-0.0979874 -0.574884 0)
(-0.0966574 -0.587885 0)
(-0.095357 -0.599294 0)
(-0.0940914 -0.609181 0)
(-0.0928638 -0.617629 0)
(-0.0916766 -0.62474 0)
(-0.0905325 -0.630626 0)
(-0.08943 -0.635411 0)
(-0.0883774 -0.639226 0)
(-0.0873767 -0.642165 0)
(-0.115578 -0.36233 0)
(-0.114226 -0.389668 0)
(-0.112996 -0.415977 0)
(-0.1117 -0.441265 0)
(-0.110336 -0.465333 0)
(-0.108925 -0.488024 0)
(-0.107482 -0.509211 0)
(-0.106022 -0.528809 0)
(-0.104558 -0.546757 0)
(-0.103099 -0.56303 0)
(-0.101656 -0.577626 0)
(-0.100237 -0.590573 0)
(-0.0988462 -0.601918 0)
(-0.0974895 -0.611733 0)
(-0.0961713 -0.620101 0)
(-0.0948939 -0.627128 0)
(-0.09366 -0.632927 0)
(-0.0924689 -0.637623 0)
(-0.0913295 -0.641347 0)
(-0.0902443 -0.644194 0)
(-0.120089 -0.364571 0)
(-0.118636 -0.392123 0)
(-0.117324 -0.4186 0)
(-0.11595 -0.444021 0)
(-0.114506 -0.468189 0)
(-0.113012 -0.49095 0)
(-0.111484 -0.512179 0)
(-0.109935 -0.531794 0)
(-0.10838 -0.549738 0)
(-0.10683 -0.565988 0)
(-0.105293 -0.580546 0)
(-0.103779 -0.593441 0)
(-0.102293 -0.604723 0)
(-0.100841 -0.614465 0)
(-0.0994269 -0.622754 0)
(-0.0980543 -0.629696 0)
(-0.096726 -0.635405 0)
(-0.0954413 -0.64001 0)
(-0.0942094 -0.643639 0)
(-0.0930337 -0.646392 0)
(-0.124505 -0.36694 0)
(-0.123001 -0.394713 0)
(-0.12163 -0.421367 0)
(-0.120184 -0.446928 0)
(-0.118662 -0.471204 0)
(-0.117084 -0.494041 0)
(-0.115467 -0.51532 0)
(-0.113827 -0.534957 0)
(-0.112177 -0.552902 0)
(-0.11053 -0.569132 0)
(-0.108895 -0.583654 0)
(-0.107281 -0.596499 0)
(-0.105696 -0.607718 0)
(-0.104143 -0.617388 0)
(-0.102629 -0.625597 0)
(-0.101156 -0.632452 0)
(-0.0997285 -0.638071 0)
(-0.0983454 -0.642581 0)
(-0.0970172 -0.646114 0)
(-0.0957474 -0.648768 0)
(-0.12896 -0.369398 0)
(-0.127385 -0.397414 0)
(-0.125939 -0.424265 0)
(-0.124416 -0.449984 0)
(-0.122811 -0.47438 0)
(-0.121143 -0.497304 0)
(-0.119434 -0.518639 0)
(-0.117698 -0.538307 0)
(-0.115948 -0.556257 0)
(-0.114199 -0.572473 0)
(-0.112461 -0.586962 0)
(-0.110742 -0.599758 0)
(-0.10905 -0.610916 0)
(-0.107391 -0.620514 0)
(-0.10577 -0.628643 0)
(-0.104192 -0.635411 0)
(-0.102659 -0.640937 0)
(-0.101171 -0.64535 0)
(-0.0997399 -0.648783 0)
(-0.0983691 -0.651335 0)
(-0.133421 -0.371966 0)
(-0.131773 -0.400241 0)
(-0.130256 -0.427307 0)
(-0.12865 -0.453198 0)
(-0.126957 -0.477728 0)
(-0.125195 -0.50075 0)
(-0.123387 -0.522151 0)
(-0.121549 -0.541856 0)
(-0.119694 -0.559819 0)
(-0.117837 -0.576024 0)
(-0.115989 -0.590484 0)
(-0.114159 -0.603234 0)
(-0.112355 -0.614333 0)
(-0.110584 -0.62386 0)
(-0.108851 -0.631908 0)
(-0.10716 -0.638588 0)
(-0.105515 -0.64402 0)
(-0.103918 -0.648334 0)
(-0.102378 -0.651663 0)
(-0.100902 -0.654109 0)
(-0.137942 -0.374675 0)
(-0.1362 -0.403223 0)
(-0.134593 -0.430516 0)
(-0.132896 -0.456592 0)
(-0.131106 -0.481267 0)
(-0.129243 -0.504397 0)
(-0.12733 -0.525873 0)
(-0.125382 -0.545622 0)
(-0.123415 -0.563602 0)
(-0.121443 -0.579803 0)
(-0.119478 -0.594236 0)
(-0.11753 -0.606943 0)
(-0.115607 -0.617984 0)
(-0.113716 -0.627441 0)
(-0.111863 -0.635408 0)
(-0.110053 -0.641999 0)
(-0.10829 -0.647334 0)
(-0.106575 -0.651546 0)
(-0.10492 -0.654769 0)
(-0.10333 -0.657104 0)
(-0.142456 -0.377541 0)
(-0.140629 -0.406379 0)
(-0.138938 -0.433913 0)
(-0.137147 -0.460186 0)
(-0.135255 -0.485016 0)
(-0.133285 -0.508263 0)
(-0.131259 -0.529821 0)
(-0.129196 -0.549622 0)
(-0.127109 -0.567626 0)
(-0.125015 -0.583825 0)
(-0.122926 -0.598236 0)
(-0.120852 -0.610903 0)
(-0.118803 -0.621888 0)
(-0.116785 -0.631274 0)
(-0.114805 -0.63916 0)
(-0.112868 -0.645661 0)
(-0.11098 -0.650897 0)
(-0.109141 -0.655004 0)
(-0.107364 -0.658117 0)
(-0.105655 -0.660337 0)
(-0.147019 -0.380572 0)
(-0.145091 -0.409719 0)
(-0.143301 -0.437509 0)
(-0.141407 -0.463992 0)
(-0.139405 -0.488988 0)
(-0.137321 -0.512362 0)
(-0.135176 -0.534011 0)
(-0.132988 -0.553871 0)
(-0.130775 -0.571904 0)
(-0.128551 -0.588107 0)
(-0.12633 -0.6025 0)
(-0.124122 -0.615129 0)
(-0.121938 -0.626058 0)
(-0.119785 -0.635375 0)
(-0.11767 -0.64318 0)
(-0.115599 -0.649588 0)
(-0.113577 -0.654724 0)
(-0.111606 -0.658723 0)
(-0.109698 -0.661721 0)
(-0.107861 -0.663821 0)
(-0.151573 -0.383774 0)
(-0.149554 -0.413251 0)
(-0.14767 -0.441315 0)
(-0.145669 -0.468022 0)
(-0.143554 -0.493198 0)
(-0.141348 -0.516709 0)
(-0.139076 -0.538459 0)
(-0.136757 -0.558384 0)
(-0.134409 -0.576454 0)
(-0.132047 -0.592666 0)
(-0.129685 -0.607044 0)
(-0.127336 -0.619637 0)
(-0.125009 -0.630513 0)
(-0.122712 -0.639761 0)
(-0.120454 -0.647483 0)
(-0.11824 -0.653798 0)
(-0.116077 -0.658831 0)
(-0.113965 -0.662718 0)
(-0.11192 -0.665598 0)
(-0.109948 -0.667573 0)
(-0.156184 -0.387155 0)
(-0.154054 -0.416985 0)
(-0.152059 -0.44534 0)
(-0.149942 -0.472288 0)
(-0.147703 -0.497657 0)
(-0.145368 -0.521318 0)
(-0.142961 -0.543178 0)
(-0.140502 -0.563178 0)
(-0.13801 -0.58129 0)
(-0.135501 -0.597516 0)
(-0.13299 -0.611883 0)
(-0.130489 -0.624444 0)
(-0.128009 -0.635268 0)
(-0.12556 -0.644447 0)
(-0.123149 -0.652087 0)
(-0.120783 -0.658306 0)
(-0.118469 -0.663233 0)
(-0.116208 -0.667005 0)
(-0.114016 -0.669762 0)
(-0.111899 -0.671606 0)
(-0.160793 -0.390726 0)
(-0.15856 -0.42093 0)
(-0.156457 -0.449597 0)
(-0.15422 -0.476803 0)
(-0.151852 -0.50238 0)
(-0.149379 -0.526203 0)
(-0.146829 -0.548184 0)
(-0.144221 -0.568267 0)
(-0.141576 -0.586429 0)
(-0.13891 -0.602676 0)
(-0.13624 -0.617037 0)
(-0.133578 -0.629567 0)
(-0.130936 -0.640341 0)
(-0.128324 -0.649453 0)
(-0.12575 -0.657008 0)
(-0.123222 -0.663131 0)
(-0.120748 -0.667949 0)
(-0.118329 -0.671601 0)
(-0.115981 -0.674229 0)
(-0.113712 -0.675937 0)
(-0.165462 -0.394494 0)
(-0.163107 -0.425099 0)
(-0.160879 -0.454099 0)
(-0.158511 -0.481581 0)
(-0.156003 -0.507381 0)
(-0.153384 -0.531381 0)
(-0.15068 -0.553494 0)
(-0.147914 -0.57367 0)
(-0.145105 -0.59189 0)
(-0.142273 -0.608163 0)
(-0.139432 -0.622522 0)
(-0.136599 -0.635026 0)
(-0.133783 -0.645752 0)
(-0.130997 -0.654796 0)
(-0.12825 -0.662267 0)
(-0.125549 -0.66829 0)
(-0.122903 -0.672996 0)
(-0.120315 -0.676524 0)
(-0.1178 -0.679018 0)
(-0.115367 -0.680582 0)
(-0.170134 -0.398471 0)
(-0.167665 -0.429501 0)
(-0.165315 -0.458857 0)
(-0.162811 -0.486636 0)
(-0.160156 -0.512677 0)
(-0.157381 -0.536868 0)
(-0.154514 -0.559126 0)
(-0.151579 -0.579406 0)
(-0.148596 -0.597692 0)
(-0.145585 -0.613998 0)
(-0.142564 -0.628361 0)
(-0.139547 -0.640842 0)
(-0.136547 -0.651521 0)
(-0.133576 -0.660498 0)
(-0.130643 -0.667884 0)
(-0.127758 -0.673805 0)
(-0.124929 -0.678395 0)
(-0.122161 -0.681795 0)
(-0.119468 -0.684149 0)
(-0.116862 -0.685561 0)
(-0.174879 -0.40267 0)
(-0.172272 -0.434154 0)
(-0.169781 -0.46389 0)
(-0.167128 -0.491986 0)
(-0.164314 -0.518288 0)
(-0.161372 -0.542684 0)
(-0.158331 -0.565101 0)
(-0.155215 -0.585496 0)
(-0.152046 -0.603858 0)
(-0.148845 -0.620205 0)
(-0.14563 -0.634576 0)
(-0.142417 -0.647038 0)
(-0.13922 -0.657673 0)
(-0.13605 -0.666583 0)
(-0.13292 -0.673883 0)
(-0.129838 -0.6797 0)
(-0.126814 -0.68417 0)
(-0.123852 -0.687436 0)
(-0.120969 -0.689643 0)
(-0.118177 -0.690896 0)
(-0.179637 -0.407107 0)
(-0.176897 -0.439074 0)
(-0.174267 -0.469216 0)
(-0.171457 -0.497652 0)
(-0.168476 -0.524233 0)
(-0.165357 -0.548853 0)
(-0.162129 -0.571442 0)
(-0.15882 -0.591964 0)
(-0.155453 -0.610412 0)
(-0.152049 -0.626806 0)
(-0.148627 -0.641193 0)
(-0.145205 -0.65364 0)
(-0.141797 -0.664233 0)
(-0.138415 -0.673077 0)
(-0.135073 -0.68029 0)
(-0.131781 -0.686 0)
(-0.128548 -0.690346 0)
(-0.12538 -0.693472 0)
(-0.122295 -0.695525 0)
(-0.119305 -0.69661 0)
(-0.184472 -0.411798 0)
(-0.181577 -0.444279 0)
(-0.178787 -0.474854 0)
(-0.175808 -0.503655 0)
(-0.172646 -0.530535 0)
(-0.169336 -0.555396 0)
(-0.16591 -0.578173 0)
(-0.162395 -0.598835 0)
(-0.158815 -0.617379 0)
(-0.155193 -0.633831 0)
(-0.15155 -0.648239 0)
(-0.147904 -0.660675 0)
(-0.144269 -0.671229 0)
(-0.140662 -0.680008 0)
(-0.137093 -0.687132 0)
(-0.133575 -0.692733 0)
(-0.130119 -0.696951 0)
(-0.12673 -0.699931 0)
(-0.123428 -0.701821 0)
(-0.120224 -0.702729 0)
(-0.189324 -0.416756 0)
(-0.186281 -0.449786 0)
(-0.183331 -0.480824 0)
(-0.180175 -0.510015 0)
(-0.176823 -0.537218 0)
(-0.17331 -0.56234 0)
(-0.169671 -0.585322 0)
(-0.165936 -0.606138 0)
(-0.162128 -0.62479 0)
(-0.158274 -0.641308 0)
(-0.154394 -0.655744 0)
(-0.150508 -0.668175 0)
(-0.146632 -0.678692 0)
(-0.142781 -0.687407 0)
(-0.13897 -0.694442 0)
(-0.135211 -0.69993 0)
(-0.131515 -0.704014 0)
(-0.12789 -0.706841 0)
(-0.124356 -0.708561 0)
(-0.120926 -0.709281 0)
(-0.194267 -0.422002 0)
(-0.19105 -0.455615 0)
(-0.187918 -0.48715 0)
(-0.184569 -0.516758 0)
(-0.18101 -0.544308 0)
(-0.17728 -0.569713 0)
(-0.173414 -0.592918 0)
(-0.169442 -0.613903 0)
(-0.165392 -0.632676 0)
(-0.161288 -0.64927 0)
(-0.157155 -0.663742 0)
(-0.153011 -0.676172 0)
(-0.148875 -0.686656 0)
(-0.144765 -0.695308 0)
(-0.140693 -0.702251 0)
(-0.136675 -0.707624 0)
(-0.132722 -0.711568 0)
(-0.128844 -0.714235 0)
(-0.125061 -0.715775 0)
(-0.121386 -0.716297 0)
(-0.199241 -0.427554 0)
(-0.195853 -0.461791 0)
(-0.192538 -0.493854 0)
(-0.188986 -0.523911 0)
(-0.185209 -0.551835 0)
(-0.181246 -0.577544 0)
(-0.177137 -0.600992 0)
(-0.172913 -0.622163 0)
(-0.168601 -0.64107 0)
(-0.164231 -0.657751 0)
(-0.159825 -0.672268 0)
(-0.155406 -0.684703 0)
(-0.150992 -0.695158 0)
(-0.146602 -0.703746 0)
(-0.142251 -0.710598 0)
(-0.137955 -0.71585 0)
(-0.133727 -0.71965 0)
(-0.129578 -0.722149 0)
(-0.125527 -0.723499 0)
(-0.121593 -0.72381 0)
(-0.204313 -0.433433 0)
(-0.200729 -0.468334 0)
(-0.197208 -0.500964 0)
(-0.193435 -0.531502 0)
(-0.189422 -0.559827 0)
(-0.185211 -0.585866 0)
(-0.180841 -0.609578 0)
(-0.176346 -0.630953 0)
(-0.171755 -0.650009 0)
(-0.167098 -0.66679 0)
(-0.1624 -0.68136 0)
(-0.157685 -0.693808 0)
(-0.152972 -0.704236 0)
(-0.148281 -0.712763 0)
(-0.143631 -0.719521 0)
(-0.139036 -0.72465 0)
(-0.134512 -0.728299 0)
(-0.13007 -0.730621 0)
(-0.125733 -0.73177 0)
(-0.121517 -0.731856 0)
(-0.209427 -0.439659 0)
(-0.20565 -0.475269 0)
(-0.201919 -0.508506 0)
(-0.197915 -0.539561 0)
(-0.193652 -0.568319 0)
(-0.189175 -0.594714 0)
(-0.184525 -0.618713 0)
(-0.17974 -0.640312 0)
(-0.174849 -0.659534 0)
(-0.169884 -0.676427 0)
(-0.164873 -0.691061 0)
(-0.159839 -0.703528 0)
(-0.154805 -0.713934 0)
(-0.149792 -0.722401 0)
(-0.144819 -0.729064 0)
(-0.139903 -0.734066 0)
(-0.135061 -0.737557 0)
(-0.130305 -0.739692 0)
(-0.12566 -0.740628 0)
(-0.121143 -0.740475 0)
(-0.21466 -0.446257 0)
(-0.210658 -0.482625 0)
(-0.206692 -0.516511 0)
(-0.202436 -0.548121 0)
(-0.197902 -0.577345 0)
(-0.19314 -0.604126 0)
(-0.188191 -0.628438 0)
(-0.183093 -0.650282 0)
(-0.17788 -0.669687 0)
(-0.172585 -0.686707 0)
(-0.167236 -0.701416 0)
(-0.16186 -0.71391 0)
(-0.15648 -0.724299 0)
(-0.15112 -0.732708 0)
(-0.145799 -0.739275 0)
(-0.140537 -0.744144 0)
(-0.135353 -0.74747 0)
(-0.130259 -0.749408 0)
(-0.125281 -0.750118 0)
(-0.12044 -0.74971 0)
(-0.219953 -0.453255 0)
(-0.215726 -0.490433 0)
(-0.211518 -0.525014 0)
(-0.206995 -0.557219 0)
(-0.202175 -0.586945 0)
(-0.197106 -0.614144 0)
(-0.191836 -0.638795 0)
(-0.186404 -0.660907 0)
(-0.180845 -0.680516 0)
(-0.175194 -0.697679 0)
(-0.169482 -0.712476 0)
(-0.163737 -0.725006 0)
(-0.157986 -0.735383 0)
(-0.152251 -0.743736 0)
(-0.146556 -0.750204 0)
(-0.140922 -0.754937 0)
(-0.135368 -0.758089 0)
(-0.12991 -0.759819 0)
(-0.124574 -0.760288 0)
(-0.119385 -0.759608 0)
(-0.225375 -0.460681 0)
(-0.220892 -0.498723 0)
(-0.216416 -0.534049 0)
(-0.211605 -0.566893 0)
(-0.206474 -0.59716 0)
(-0.201078 -0.62481 0)
(-0.195462 -0.649831 0)
(-0.18967 -0.672238 0)
(-0.183739 -0.692071 0)
(-0.177706 -0.709395 0)
(-0.171603 -0.724294 0)
(-0.165461 -0.73687 0)
(-0.159307 -0.747241 0)
(-0.153169 -0.75554 0)
(-0.147069 -0.761909 0)
(-0.141032 -0.7665 0)
(-0.13508 -0.76947 0)
(-0.129229 -0.770979 0)
(-0.123507 -0.771192 0)
(-0.11794 -0.77022 0)
(-0.230872 -0.468562 0)
(-0.226132 -0.507529 0)
(-0.22138 -0.543653 0)
(-0.216263 -0.577183 0)
(-0.210803 -0.608034 0)
(-0.205055 -0.636174 0)
(-0.199069 -0.661597 0)
(-0.19289 -0.684327 0)
(-0.186558 -0.704409 0)
(-0.180113 -0.721914 0)
(-0.173588 -0.736929 0)
(-0.167018 -0.749562 0)
(-0.160431 -0.759935 0)
(-0.153856 -0.768183 0)
(-0.14732 -0.774452 0)
(-0.140848 -0.778895 0)
(-0.134465 -0.781673 0)
(-0.128189 -0.782948 0)
(-0.122051 -0.782886 0)
(-0.116078 -0.781602 0)
(-0.236517 -0.476928 0)
(-0.231487 -0.516885 0)
(-0.226429 -0.553866 0)
(-0.220982 -0.588134 0)
(-0.215167 -0.619615 0)
(-0.209041 -0.648285 0)
(-0.202657 -0.674147 0)
(-0.196062 -0.697232 0)
(-0.189299 -0.71759 0)
(-0.182409 -0.735297 0)
(-0.175429 -0.750447 0)
(-0.168395 -0.76315 0)
(-0.161339 -0.773533 0)
(-0.154292 -0.781733 0)
(-0.147283 -0.7879 0)
(-0.140341 -0.79219 0)
(-0.133491 -0.794765 0)
(-0.126755 -0.795792 0)
(-0.120165 -0.795436 0)
(-0.113751 -0.793815 0)
(-0.24226 -0.485814 0)
(-0.236935 -0.52683 0)
(-0.23156 -0.564729 0)
(-0.225764 -0.599792 0)
(-0.219569 -0.631954 0)
(-0.213038 -0.6612 0)
(-0.206227 -0.687541 0)
(-0.199184 -0.711015 0)
(-0.191955 -0.73168 0)
(-0.184585 -0.749615 0)
(-0.177113 -0.764919 0)
(-0.169577 -0.777707 0)
(-0.162014 -0.788108 0)
(-0.154455 -0.796265 0)
(-0.146934 -0.802329 0)
(-0.139481 -0.806459 0)
(-0.132125 -0.808821 0)
(-0.124891 -0.809582 0)
(-0.117813 -0.808912 0)
(-0.110923 -0.806928 0)
(-0.248167 -0.495253 0)
(-0.242515 -0.537402 0)
(-0.236792 -0.576286 0)
(-0.230619 -0.612207 0)
(-0.224017 -0.645105 0)
(-0.217051 -0.674977 0)
(-0.209779 -0.701843 0)
(-0.202253 -0.725746 0)
(-0.194522 -0.746751 0)
(-0.186632 -0.764942 0)
(-0.178627 -0.780423 0)
(-0.170548 -0.793313 0)
(-0.162433 -0.803744 0)
(-0.154319 -0.811863 0)
(-0.146241 -0.817823 0)
(-0.138233 -0.821787 0)
(-0.130327 -0.823922 0)
(-0.122552 -0.8244 0)
(-0.114942 -0.82339 0)
(-0.107536 -0.821014 0)
(-0.254194 -0.505279 0)
(-0.248208 -0.548641 0)
(-0.242124 -0.588586 0)
(-0.235551 -0.625431 0)
(-0.228514 -0.659128 0)
(-0.221081 -0.689683 0)
(-0.213313 -0.717123 0)
(-0.205267 -0.7415 0)
(-0.196992 -0.762883 0)
(-0.18854 -0.781363 0)
(-0.179956 -0.797047 0)
(-0.171286 -0.810058 0)
(-0.162572 -0.820533 0)
(-0.153854 -0.828619 0)
(-0.145169 -0.834474 0)
(-0.136558 -0.838264 0)
(-0.128054 -0.840159 0)
(-0.119689 -0.840333 0)
(-0.111504 -0.838958 0)
(-0.103536 -0.836156 0)
(-0.260411 -0.515929 0)
(-0.254057 -0.560591 0)
(-0.247578 -0.601677 0)
(-0.240574 -0.639522 0)
(-0.233069 -0.674086 0)
(-0.225133 -0.705386 0)
(-0.216831 -0.733458 0)
(-0.208221 -0.758359 0)
(-0.199357 -0.780165 0)
(-0.190295 -0.798971 0)
(-0.181082 -0.814888 0)
(-0.171769 -0.828043 0)
(-0.162401 -0.838576 0)
(-0.153023 -0.846637 0)
(-0.143677 -0.852387 0)
(-0.134406 -0.855995 0)
(-0.12525 -0.857634 0)
(-0.116243 -0.85748 0)
(-0.107428 -0.855709 0)
(-0.0988504 -0.852445 0)
(-0.266778 -0.527246 0)
(-0.260045 -0.573301 0)
(-0.253154 -0.615615 0)
(-0.245693 -0.654541 0)
(-0.237687 -0.690049 0)
(-0.229211 -0.722165 0)
(-0.220332 -0.750933 0)
(-0.211112 -0.776416 0)
(-0.201608 -0.798696 0)
(-0.191881 -0.817871 0)
(-0.181982 -0.834056 0)
(-0.171967 -0.847381 0)
(-0.161884 -0.857989 0)
(-0.151785 -0.866033 0)
(-0.141715 -0.871678 0)
(-0.131723 -0.875095 0)
(-0.121853 -0.876459 0)
(-0.112145 -0.87595 0)
(-0.102646 -0.873748 0)
(-0.093404 -0.86998 0)
(-0.273356 -0.539267 0)
(-0.266211 -0.586816 0)
(-0.258873 -0.630455 0)
(-0.250921 -0.670554 0)
(-0.242376 -0.707092 0)
(-0.233317 -0.740104 0)
(-0.223813 -0.769642 0)
(-0.213931 -0.795773 0)
(-0.203732 -0.818585 0)
(-0.193279 -0.838178 0)
(-0.18263 -0.854672 0)
(-0.171845 -0.868198 0)
(-0.160978 -0.878902 0)
(-0.150087 -0.88694 0)
(-0.139223 -0.892479 0)
(-0.128439 -0.895693 0)
(-0.117787 -0.896761 0)
(-0.107311 -0.895867 0)
(-0.0970628 -0.893194 0)
(-0.0870954 -0.888871 0)
(-0.280111 -0.552036 0)
(-0.272543 -0.601185 0)
(-0.264739 -0.646257 0)
(-0.256264 -0.687631 0)
(-0.247142 -0.725297 0)
(-0.237454 -0.759297 0)
(-0.227274 -0.789689 0)
(-0.216671 -0.816545 0)
(-0.205711 -0.839957 0)
(-0.194463 -0.860027 0)
(-0.182991 -0.876877 0)
(-0.17136 -0.890639 0)
(-0.159631 -0.901463 0)
(-0.147867 -0.909506 0)
(-0.136128 -0.914938 0)
(-0.124474 -0.917936 0)
(-0.112962 -0.918683 0)
(-0.101643 -0.917367 0)
(-0.0905749 -0.914174 0)
(-0.0798166 -0.909239 0)
(-0.287111 -0.565592 0)
(-0.279085 -0.616461 0)
(-0.270776 -0.663083 0)
(-0.261739 -0.705849 0)
(-0.251994 -0.744754 0)
(-0.241624 -0.779848 0)
(-0.230707 -0.811191 0)
(-0.219317 -0.838863 0)
(-0.207524 -0.862952 0)
(-0.195403 -0.883567 0)
(-0.183024 -0.900828 0)
(-0.170459 -0.91487 0)
(-0.157777 -0.925841 0)
(-0.145049 -0.933903 0)
(-0.132342 -0.939226 0)
(-0.119726 -0.941992 0)
(-0.107264 -0.942387 0)
(-0.0950173 -0.940603 0)
(-0.0830488 -0.936834 0)
(-0.0714244 -0.931218 0)
(-0.294326 -0.57998 0)
(-0.285829 -0.632697 0)
(-0.27699 -0.681003 0)
(-0.267353 -0.725294 0)
(-0.256935 -0.765566 0)
(-0.245826 -0.801874 0)
(-0.234104 -0.834284 0)
(-0.221851 -0.862872 0)
(-0.209141 -0.887733 0)
(-0.196057 -0.908971 0)
(-0.182675 -0.926708 0)
(-0.169076 -0.941078 0)
(-0.155338 -0.95223 0)
(-0.14154 -0.960326 0)
(-0.127759 -0.965538 0)
(-0.114076 -0.96805 0)
(-0.100563 -0.968055 0)
(-0.0872909 -0.96575 0)
(-0.0743318 -0.961334 0)
(-0.0617592 -0.954956 0)
(-0.301819 -0.59524 0)
(-0.292816 -0.649949 0)
(-0.283406 -0.700092 0)
(-0.273119 -0.746059 0)
(-0.261971 -0.787848 0)
(-0.250053 -0.825511 0)
(-0.237449 -0.859117 0)
(-0.224244 -0.888743 0)
(-0.210522 -0.914481 0)
(-0.196372 -0.936435 0)
(-0.181877 -0.954724 0)
(-0.167129 -0.96948 0)
(-0.152214 -0.980852 0)
(-0.137225 -0.988999 0)
(-0.122249 -0.994097 0)
(-0.107377 -0.996331 0)
(-0.0926961 -0.995899 0)
(-0.0782872 -0.993004 0)
(-0.0642334 -0.987856 0)
(-0.0506184 -0.980613 0)
(-0.309571 -0.611414 0)
(-0.300043 -0.668281 0)
(-0.290027 -0.720436 0)
(-0.279038 -0.768258 0)
(-0.267092 -0.811734 0)
(-0.254284 -0.850916 0)
(-0.240705 -0.88587 0)
(-0.226448 -0.916671 0)
(-0.211603 -0.943409 0)
(-0.196267 -0.966185 0)
(-0.180535 -0.985114 0)
(-0.164508 -1.00032 0)