/*--------------------------------*- C++ -*----------------------------------*\
  =========                 |
  \\      /  F ield         | OpenFOAM: The Open Source CFD Toolbox
   \\    /   O peration     | Website:  https://openfoam.org
    \\  /    A nd           | Version:  6
     \\/     M anipulation  |
\*---------------------------------------------------------------------------*/
FoamFile
{
    version     2.0;
    format      ascii;
    class       volVectorField;
    location    "22";
    object      U;
}
// * * * * * * * * * * * * * * * * * * * * * * * * * * * * * * * * * * * * * //

dimensions      [0 1 -1 0 0 0 0];

internalField   nonuniform List<vector> 
10000
(
(3.54681e-05 -3.12688 0)
(-0.00207265 -4.18761 0)
(-0.00415844 -4.70967 0)
(-0.00519611 -5.0602 0)
(-0.00508937 -5.29076 0)
(-0.00451837 -5.43538 0)
(-0.00383137 -5.52225 0)
(-0.00315035 -5.57204 0)
(-0.00247244 -5.59805 0)
(-0.0017967 -5.60772 0)
(-0.00110403 -5.60424 0)
(-0.000393397 -5.58762 0)
(0.000330844 -5.55478 0)
(0.00108071 -5.49889 0)
(0.00182629 -5.40759 0)
(0.00252923 -5.26121 0)
(0.00290969 -5.03298 0)
(0.00244464 -4.68882 0)
(0.00138109 -4.17381 0)
(9.89309e-05 -3.12041 0)
(0.000218178 -3.12836 0)
(-0.000375429 -4.18626 0)
(-0.00140659 -4.70886 0)
(-0.00230207 -5.06031 0)
(-0.00267207 -5.29173 0)
(-0.0026963 -5.4369 0)
(-0.00250698 -5.52407 0)
(-0.00220761 -5.57398 0)
(-0.00185792 -5.60003 0)
(-0.00147273 -5.60973 0)
(-0.00107297 -5.60631 0)
(-0.000665212 -5.58974 0)
(-0.000284974 -5.55697 0)
(6.85131e-05 -5.50116 0)
(0.000354129 -5.40988 0)
(0.000574828 -5.26329 0)
(0.000640565 -5.03441 0)
(0.000515178 -4.68922 0)
(0.00025125 -4.17327 0)
(0.000429967 -3.12261 0)
(-0.000603313 -3.12791 0)
(-0.00081028 -4.18505 0)
(-0.000882288 -4.70821 0)
(-0.00135649 -5.05977 0)
(-0.00163679 -5.29152 0)
(-0.00175525 -5.43697 0)
(-0.00174733 -5.5242 0)
(-0.00163688 -5.57418 0)
(-0.00146743 -5.60033 0)
(-0.00125015 -5.61009 0)
(-0.001008 -5.60669 0)
(-0.000770359 -5.59008 0)
(-0.000550137 -5.55722 0)
(-0.000365313 -5.5013 0)
(-0.000186675 -5.41 0)
(6.90934e-06 -5.26329 0)
(0.000152296 -5.03421 0)
(0.000332698 -4.68851 0)
(0.000517593 -4.17201 0)
(0.000600064 -3.1219 0)
(-0.000731012 -3.12664 0)
(-0.000568877 -4.1836 0)
(-0.000327852 -4.70699 0)
(-0.000424164 -5.05874 0)
(-0.000707057 -5.29086 0)
(-0.000914408 -5.43668 0)
(-0.0010433 -5.52408 0)
(-0.00108497 -5.57421 0)
(-0.00106237 -5.60054 0)
(-0.000994661 -5.61041 0)
(-0.000901083 -5.60702 0)
(-0.000805911 -5.59041 0)
(-0.000714946 -5.55754 0)
(-0.000667627 -5.50154 0)
(-0.000574907 -5.41012 0)
(-0.000505124 -5.26369 0)
(-0.000415079 -5.03461 0)
(-0.000126309 -4.68819 0)
(0.000136242 -4.17164 0)
(0.000370575 -3.12133 0)
(-0.000347874 -3.12479 0)
(-0.000418553 -4.18256 0)
(-0.000315734 -4.7059 0)
(-0.000203422 -5.05794 0)
(-0.000374121 -5.29009 0)
(-0.000561593 -5.43599 0)
(-0.000703659 -5.52359 0)
(-0.000794619 -5.57388 0)
(-0.000839127 -5.60034 0)
(-0.00083767 -5.6103 0)
(-0.000808354 -5.60697 0)
(-0.00077321 -5.59038 0)
(-0.000745521 -5.55747 0)
(-0.000715244 -5.50144 0)
(-0.000659096 -5.41008 0)
(-0.000625581 -5.2637 0)
(-0.000445208 -5.03429 0)
(-0.000173034 -4.6878 0)
(-0.000100872 -4.17156 0)
(0.000142843 -3.12044 0)
(0.000210411 -3.12456 0)
(3.23702e-05 -4.18323 0)
(-0.000193532 -4.70604 0)
(-0.0002075 -5.05771 0)
(-0.00038638 -5.28979 0)
(-0.000552844 -5.43572 0)
(-0.000679927 -5.52337 0)
(-0.000743296 -5.57374 0)
(-0.000790299 -5.60025 0)
(-0.00079417 -5.61026 0)
(-0.000783707 -5.60697 0)
(-0.000750231 -5.59043 0)
(-0.000706268 -5.55751 0)
(-0.00064798 -5.50142 0)
(-0.000565996 -5.4101 0)
(-0.000495049 -5.26376 0)
(-0.000379521 -5.03437 0)
(-0.000276998 -4.68814 0)
(-0.00042823 -4.17218 0)
(-0.00032085 -3.12022 0)
(0.000327181 -3.12541 0)
(0.000238623 -4.18411 0)
(6.29517e-05 -4.70658 0)
(-0.000100434 -5.05786 0)
(-0.000224457 -5.28983 0)
(-0.000424988 -5.43584 0)
(-0.000549152 -5.52345 0)
(-0.000646122 -5.57376 0)
(-0.000710477 -5.60025 0)
(-0.000733203 -5.61031 0)
(-0.000728574 -5.60706 0)
(-0.000694353 -5.59052 0)
(-0.000633809 -5.55766 0)
(-0.000563706 -5.5016 0)
(-0.000497817 -5.41017 0)
(-0.000421584 -5.26383 0)
(-0.000396923 -5.03463 0)
(-0.000414009 -4.6886 0)
(-0.000542374 -4.17286 0)
(-0.000477277 -3.12074 0)
(0.000114582 -3.12615 0)
(0.000227644 -4.1842 0)
(0.000269627 -4.70647 0)
(5.6305e-05 -5.05741 0)
(5.39966e-05 -5.2897 0)
(-0.000143819 -5.43577 0)
(-0.000293669 -5.52332 0)
(-0.00045489 -5.57365 0)
(-0.000579209 -5.60017 0)
(-0.00064772 -5.6103 0)
(-0.00067371 -5.60712 0)
(-0.000652869 -5.59067 0)
(-0.000599067 -5.55789 0)
(-0.000535781 -5.50188 0)
(-0.000485755 -5.4104 0)
(-0.000416075 -5.26409 0)
(-0.000476641 -5.03515 0)
(-0.000535771 -4.68925 0)
(-0.000661771 -4.17361 0)
(-0.000427838 -3.12225 0)
(3.21063e-05 -3.12625 0)
(0.000248484 -4.18382 0)
(0.000371941 -4.70611 0)
(0.000311304 -5.05672 0)
(0.000229346 -5.28903 0)
(8.19054e-05 -5.43529 0)
(-0.000129995 -5.52285 0)
(-0.000345467 -5.57328 0)
(-0.000524425 -5.59992 0)
(-0.000646257 -5.61018 0)
(-0.00071133 -5.60713 0)
(-0.000734487 -5.59075 0)
(-0.000726313 -5.55802 0)
(-0.000702978 -5.50206 0)
(-0.000696917 -5.41067 0)
(-0.000669973 -5.26446 0)
(-0.00075822 -5.03547 0)
(-0.000744716 -4.68953 0)
(-0.000576102 -4.17423 0)
(-0.000121878 -3.12379 0)
(0.000188786 -3.12626 0)
(0.000354923 -4.18397 0)
(0.000383106 -4.70576 0)
(0.000334405 -5.05652 0)
(0.000169117 -5.28868 0)
(4.69988e-05 -5.43469 0)
(-0.000160833 -5.52231 0)
(-0.000393846 -5.57286 0)
(-0.000570194 -5.59961 0)
(-0.000712093 -5.60994 0)
(-0.000810672 -5.60695 0)
(-0.000875883 -5.59063 0)
(-0.000919438 -5.55792 0)
(-0.000939838 -5.50197 0)
(-0.000985185 -5.4105 0)
(-0.00101874 -5.26416 0)
(-0.000990224 -5.03517 0)
(-0.000847417 -4.68926 0)
(-0.000271571 -4.17377 0)
(0.000200343 -3.12427 0)
(0.000152804 -3.12678 0)
(0.000453034 -4.18433 0)
(0.000469786 -4.70578 0)
(0.000312272 -5.0566 0)
(0.000108607 -5.28847 0)
(-4.93118e-05 -5.4342 0)
(-0.000258159 -5.52182 0)
(-0.000472998 -5.57244 0)
(-0.000630822 -5.59929 0)
(-0.000766852 -5.60967 0)
(-0.000862066 -5.60673 0)
(-0.000929627 -5.59048 0)
(-0.000959115 -5.55779 0)
(-0.000967178 -5.50183 0)
(-0.000977402 -5.41032 0)
(-0.00100502 -5.26377 0)
(-0.000869565 -5.03495 0)
(-0.000660149 -4.68939 0)
(-0.000231401 -4.17373 0)
(-2.36696e-05 -3.12395 0)
(-6.94872e-05 -3.12775 0)
(0.000496455 -4.18472 0)
(0.000413143 -4.70579 0)
(0.000285804 -5.05653 0)
(3.11999e-05 -5.28821 0)
(-0.000184429 -5.43379 0)
(-0.000389471 -5.52149 0)
(-0.000558375 -5.57216 0)
(-0.000683289 -5.59904 0)
(-0.000792921 -5.60945 0)
(-0.000876581 -5.60659 0)
(-0.000921387 -5.59043 0)
(-0.000931843 -5.55783 0)
(-0.000914497 -5.50189 0)
(-0.000880377 -5.41034 0)
(-0.000805743 -5.26388 0)
(-0.000712648 -5.03539 0)
(-0.000480373 -4.69029 0)
(-0.000302535 -4.17478 0)
(-0.000341024 -3.12426 0)
(-0.000302017 -3.1282 0)
(0.000373131 -4.18527 0)
(0.000375315 -4.70615 0)
(0.000377397 -5.05628 0)
(7.58098e-05 -5.28758 0)
(-0.000155624 -5.43319 0)
(-0.000399928 -5.52106 0)
(-0.000562425 -5.57185 0)
(-0.000691892 -5.5988 0)
(-0.000798673 -5.60927 0)
(-0.000878587 -5.60646 0)
(-0.000930887 -5.5904 0)
(-0.000951688 -5.55793 0)
(-0.000920315 -5.50203 0)
(-0.000866923 -5.41044 0)
(-0.00076987 -5.26408 0)
(-0.000636335 -5.03596 0)
(-0.000443391 -4.69089 0)
(-0.000268913 -4.17547 0)
(-0.000286523 -3.12478 0)
(-0.000384762 -3.12854 0)
(0.000340002 -4.18504 0)
(0.00038958 -4.70578 0)
(0.000457104 -5.05586 0)
(0.000163645 -5.28683 0)
(-0.000113173 -5.43243 0)
(-0.000384211 -5.52051 0)
(-0.000572739 -5.57145 0)
(-0.000719478 -5.59852 0)
(-0.000829421 -5.60905 0)
(-0.000914899 -5.60629 0)
(-0.000974266 -5.59028 0)
(-0.000992764 -5.55785 0)
(-0.000963959 -5.50206 0)
(-0.000860353 -5.41064 0)
(-0.000764391 -5.26432 0)
(-0.000549913 -5.0362 0)
(-0.000447783 -4.69148 0)
(-0.000310356 -4.17599 0)
(-0.000175495 -3.12507 0)
(0.000157348 -3.12934 0)
(0.000549113 -4.18537 0)
(0.000400585 -4.70591 0)
(0.00027521 -5.0557 0)
(1.78517e-05 -5.28646 0)
(-0.000278055 -5.43196 0)
(-0.00048712 -5.52005 0)
(-0.000652367 -5.57108 0)
(-0.000780179 -5.59823 0)
(-0.000875099 -5.60885 0)
(-0.000949861 -5.60614 0)
(-0.00100613 -5.59017 0)
(-0.00103912 -5.55781 0)
(-0.00101425 -5.50214 0)
(-0.000949481 -5.41077 0)
(-0.000815126 -5.26433 0)
(-0.000675108 -5.03624 0)
(-0.000538956 -4.69183 0)
(-0.000345544 -4.17629 0)
(-1.33719e-06 -3.12518 0)
(0.000514669 -3.13002 0)
(0.000344172 -4.18545 0)
(0.000514086 -4.70607 0)
(0.000411571 -5.05571 0)
(0.000105683 -5.28625 0)
(-0.000203267 -5.43158 0)
(-0.000447494 -5.51969 0)
(-0.000621547 -5.57081 0)
(-0.000742914 -5.59802 0)
(-0.000827252 -5.6087 0)
(-0.000896562 -5.60604 0)
(-0.000938012 -5.59011 0)
(-0.000966256 -5.5578 0)
(-0.000959957 -5.50222 0)
(-0.000920404 -5.41096 0)
(-0.000819782 -5.26452 0)
(-0.000673294 -5.03644 0)
(-0.000484721 -4.69181 0)
(-0.000307284 -4.1762 0)
(5.15548e-05 -3.1255 0)
(0.000477004 -3.13091 0)
(0.0001637 -4.18534 0)
(0.000365617 -4.70591 0)
(0.000401551 -5.05538 0)
(0.000157211 -5.28576 0)
(-0.00011187 -5.4312 0)
(-0.000370349 -5.51941 0)
(-0.00055593 -5.57056 0)
(-0.000689332 -5.59782 0)
(-0.000784597 -5.60859 0)
(-0.00085399 -5.606 0)
(-0.000897286 -5.59013 0)
(-0.000916307 -5.55791 0)
(-0.000899346 -5.50245 0)
(-0.00083648 -5.4114 0)
(-0.0006914 -5.26517 0)
(-0.000549206 -5.03721 0)
(-0.000374765 -4.69277 0)
(-0.000406891 -4.17732 0)
(-0.00017651 -3.12672 0)
(0.000580045 -3.13158 0)
(0.000151635 -4.18573 0)
(0.000424992 -4.7059 0)
(0.000398041 -5.05524 0)
(0.000319885 -5.2855 0)
(1.60144e-05 -5.43078 0)
(-0.000233162 -5.51902 0)
(-0.000476211 -5.57026 0)
(-0.000666007 -5.59761 0)
(-0.000815817 -5.6084 0)
(-0.000939394 -5.60584 0)
(-0.0010431 -5.59 0)
(-0.00112333 -5.55787 0)
(-0.00118485 -5.50252 0)
(-0.00118162 -5.41164 0)
(-0.00107243 -5.26588 0)
(-0.000963723 -5.03816 0)
(-0.000642066 -4.69341 0)
(-0.000214017 -4.17796 0)
(1.91593e-05 -3.12798 0)
(0.000517946 -3.13152 0)
(0.000156545 -4.18588 0)
(0.0004319 -4.70591 0)
(0.000417391 -5.05464 0)
(0.000434118 -5.28501 0)
(0.000131873 -5.43035 0)
(-0.00010818 -5.51846 0)
(-0.000408316 -5.56975 0)
(-0.000656813 -5.59718 0)
(-0.000873202 -5.60803 0)
(-0.00105375 -5.60548 0)
(-0.00122055 -5.58964 0)
(-0.0013767 -5.55754 0)
(-0.00150685 -5.50225 0)
(-0.00155324 -5.41151 0)
(-0.00151319 -5.26594 0)
(-0.0012072 -5.03816 0)
(-0.000668343 -4.69317 0)
(-7.19527e-06 -4.1773 0)
(0.000360292 -3.12765 0)
(0.000284368 -3.13087 0)
(0.000172152 -4.18617 0)
(0.000325362 -4.70561 0)
(0.000392987 -5.054 0)
(0.000353869 -5.28454 0)
(0.000159955 -5.42975 0)
(-8.50727e-05 -5.51779 0)
(-0.000393187 -5.56909 0)
(-0.000677228 -5.59657 0)
(-0.000931461 -5.6075 0)
(-0.00114673 -5.605 0)
(-0.00132378 -5.58923 0)
(-0.00147438 -5.55719 0)
(-0.00157082 -5.50195 0)
(-0.00158536 -5.41141 0)
(-0.00146626 -5.26605 0)
(-0.00105289 -5.03833 0)
(-0.000534574 -4.69355 0)
(-0.000186194 -4.17774 0)
(-7.99229e-05 -3.12681 0)
(0.00020625 -3.13061 0)
(0.000236521 -4.18685 0)
(0.000227876 -4.70584 0)
(0.00020511 -5.05378 0)
(0.000146814 -5.28399 0)
(8.80324e-06 -5.42916 0)
(-0.000234587 -5.51721 0)
(-0.000498756 -5.56849 0)
(-0.000785117 -5.59597 0)
(-0.00104051 -5.60697 0)
(-0.00125605 -5.60458 0)
(-0.00142479 -5.58889 0)
(-0.00154121 -5.55693 0)
(-0.00157166 -5.50193 0)
(-0.00150828 -5.41171 0)
(-0.00126739 -5.2666 0)
(-0.000878184 -5.03925 0)
(-0.000501564 -4.6948 0)
(-0.000318555 -4.17907 0)
(-0.000667711 -3.12686 0)
(0.000245193 -3.13123 0)
(0.000302532 -4.1876 0)
(0.000270957 -4.70629 0)
(0.000190716 -5.05386 0)
(5.73665e-05 -5.2837 0)
(-8.48455e-05 -5.42866 0)
(-0.000376552 -5.51661 0)
(-0.000629846 -5.56793 0)
(-0.000908 -5.59542 0)
(-0.00115879 -5.60647 0)
(-0.00137616 -5.60416 0)
(-0.00153694 -5.58859 0)
(-0.00162555 -5.55678 0)
(-0.00164122 -5.50191 0)
(-0.00153787 -5.41192 0)
(-0.00127886 -5.26723 0)
(-0.000926458 -5.04019 0)
(-0.000565086 -4.69562 0)
(-0.000243861 -4.17981 0)
(-0.000535389 -3.12741 0)
(2.84626e-05 -3.13179 0)
(0.000311804 -4.1877 0)
(0.000427637 -4.70653 0)
(0.000341836 -5.05402 0)
(0.000151861 -5.28331 0)
(-5.91399e-05 -5.42816 0)
(-0.000419623 -5.51609 0)
(-0.000707383 -5.5674 0)
(-0.00099419 -5.59495 0)
(-0.00125421 -5.60603 0)
(-0.00146757 -5.60383 0)
(-0.00162322 -5.58838 0)
(-0.00169535 -5.55664 0)
(-0.00169685 -5.50192 0)
(-0.00160037 -5.41213 0)
(-0.00138383 -5.26768 0)
(-0.00104332 -5.04086 0)
(-0.00070127 -4.69628 0)
(-0.000303845 -4.18013 0)
(-0.000292021 -3.12761 0)
(-0.000183378 -3.13254 0)
(0.000308526 -4.18773 0)
(0.000453542 -4.70694 0)
(0.000434581 -5.05423 0)
(0.000284152 -5.28297 0)
(-2.23947e-06 -5.4276 0)
(-0.000350131 -5.51547 0)
(-0.000687536 -5.56679 0)
(-0.00100911 -5.59441 0)
(-0.00129828 -5.60558 0)
(-0.0015374 -5.60349 0)
(-0.00170144 -5.58818 0)
(-0.00178019 -5.55666 0)
(-0.00177439 -5.50216 0)
(-0.00163728 -5.41261 0)
(-0.00140773 -5.26846 0)
(-0.00105478 -5.04186 0)
(-0.000717823 -4.69719 0)
(-0.00043248 -4.18079 0)
(-0.000373154 -3.1283 0)
(-0.000145131 -3.13309 0)
(0.00010876 -4.18791 0)
(0.000579827 -4.7072 0)
(0.000762502 -5.05426 0)
(0.000609192 -5.28269 0)
(0.000271801 -5.427 0)
(-0.000134265 -5.51468 0)
(-0.000556868 -5.56598 0)
(-0.000950216 -5.59371 0)
(-0.00129982 -5.605 0)
(-0.001582 -5.60306 0)
(-0.00179724 -5.58791 0)
(-0.0019336 -5.55658 0)
(-0.00196059 -5.50234 0)
(-0.00187113 -5.4131 0)
(-0.00164539 -5.26925 0)
(-0.00130538 -5.04277 0)
(-0.000817407 -4.69827 0)
(-0.000369718 -4.18186 0)
(-0.000333879 -3.12935 0)
(3.28558e-05 -3.13343 0)
(9.54473e-05 -4.18779 0)
(0.000673893 -4.70729 0)
(0.000984753 -5.05429 0)
(0.000874966 -5.28218 0)
(0.00051121 -5.42614 0)
(5.08023e-05 -5.51372 0)
(-0.00045385 -5.56502 0)
(-0.000906429 -5.59285 0)
(-0.00130891 -5.60425 0)
(-0.00165651 -5.60245 0)
(-0.00194059 -5.58747 0)
(-0.00215531 -5.55633 0)
(-0.00226946 -5.50229 0)
(-0.00226257 -5.41342 0)
(-0.00206754 -5.27003 0)
(-0.00165583 -5.0437 0)
(-0.00108793 -4.69898 0)
(-0.000303515 -4.18252 0)
(-0.000174759 -3.13013 0)
(0.000333074 -3.13323 0)
(0.000255968 -4.1882 0)
(0.000689537 -4.70765 0)
(0.00107583 -5.05434 0)
(0.00104847 -5.28167 0)
(0.000700735 -5.42514 0)
(0.000219148 -5.51264 0)
(-0.000330092 -5.56398 0)
(-0.000843452 -5.59185 0)
(-0.00131757 -5.60337 0)
(-0.00173793 -5.60168 0)
(-0.00211127 -5.58681 0)
(-0.0024078 -5.55585 0)
(-0.00260654 -5.50211 0)
(-0.00265102 -5.41356 0)
(-0.00245395 -5.27046 0)
(-0.00193861 -5.04446 0)
(-0.00125472 -4.69991 0)
(-0.000312241 -4.18311 0)
(-0.000110878 -3.13006 0)
(0.000749737 -3.1335 0)
(0.000475595 -4.18934 0)
(0.00076307 -4.70827 0)
(0.00110052 -5.05445 0)
(0.00108696 -5.28133 0)
(0.000819002 -5.42438 0)
(0.000352663 -5.51161 0)
(-0.000192059 -5.56287 0)
(-0.000755906 -5.59078 0)
(-0.00129477 -5.60236 0)
(-0.0017858 -5.60074 0)
(-0.00222505 -5.586 0)
(-0.00258901 -5.55522 0)
(-0.00282673 -5.50172 0)
(-0.00287748 -5.41349 0)
(-0.00264086 -5.27085 0)
(-0.00210454 -5.04526 0)
(-0.0013131 -4.70098 0)
(-0.000410895 -4.18432 0)
(-0.000288335 -3.12941 0)
(0.000894293 -3.134 0)
(0.000533673 -4.19078 0)
(0.00102952 -4.70924 0)
(0.00135824 -5.05485 0)
(0.00134098 -5.2811 0)
(0.00106047 -5.42369 0)
(0.000569682 -5.5106 0)
(-6.46549e-06 -5.56168 0)
(-0.000625236 -5.58957 0)
(-0.00122048 -5.60123 0)
(-0.00177031 -5.59971 0)
(-0.00225823 -5.58512 0)
(-0.00265747 -5.55452 0)
(-0.00290555 -5.50132 0)
(-0.0029502 -5.41356 0)
(-0.00267758 -5.27148 0)
(-0.00212485 -5.04648 0)
(-0.00137412 -4.7025 0)
(-0.000630359 -4.18599 0)
(-0.000679749 -3.12945 0)
(0.00060706 -3.13457 0)
(0.000621707 -4.19203 0)
(0.00124527 -4.71009 0)
(0.00161138 -5.05513 0)
(0.0016487 -5.28093 0)
(0.00134753 -5.42302 0)
(0.000824628 -5.50954 0)
(0.000210341 -5.56046 0)
(-0.000463735 -5.58831 0)
(-0.00111169 -5.60002 0)
(-0.00171947 -5.59861 0)
(-0.00224936 -5.58415 0)
(-0.00266804 -5.55382 0)
(-0.00294596 -5.50105 0)
(-0.00299587 -5.41379 0)
(-0.00275091 -5.27227 0)
(-0.00223832 -5.04778 0)
(-0.00152081 -4.70423 0)
(-0.000740646 -4.18803 0)
(-0.000693752 -3.13007 0)
(0.000342324 -3.13474 0)
(0.000593799 -4.19309 0)
(0.00140813 -4.71099 0)
(0.00190322 -5.05532 0)
(0.00197269 -5.28042 0)
(0.0016749 -5.42208 0)
(0.00110137 -5.50825 0)
(0.000435024 -5.55901 0)
(-0.00030842 -5.58686 0)
(-0.00102739 -5.59866 0)
(-0.0016964 -5.59742 0)
(-0.00228641 -5.58318 0)
(-0.00274967 -5.55311 0)
(-0.00306396 -5.5007 0)
(-0.00314768 -5.41398 0)
(-0.0029509 -5.27317 0)
(-0.00246113 -5.04945 0)
(-0.00176823 -4.70655 0)
(-0.000834675 -4.19027 0)
(-0.000391025 -3.13129 0)
(0.000378323 -3.13463 0)
(0.000637433 -4.19433 0)
(0.00162545 -4.71199 0)
(0.00217772 -5.05554 0)
(0.00228213 -5.27974 0)
(0.00189854 -5.42084 0)
(0.00127052 -5.50675 0)
(0.000533844 -5.55746 0)
(-0.000269658 -5.58531 0)
(-0.00106065 -5.59717 0)
(-0.00181153 -5.59607 0)
(-0.00247539 -5.58205 0)
(-0.00302592 -5.55228 0)
(-0.00343007 -5.50031 0)
(-0.00359556 -5.41421 0)
(-0.00346945 -5.27414 0)
(-0.00299406 -5.05107 0)
(-0.00213907 -4.70861 0)
(-0.000866453 -4.19225 0)
(-7.69584e-05 -3.13288 0)
(0.000756075 -3.13612 0)
(0.00106821 -4.19676 0)
(0.00191829 -4.71413 0)
(0.0023013 -5.05666 0)
(0.00238947 -5.27981 0)
(0.00197948 -5.42011 0)
(0.00135071 -5.50549 0)
(0.000566345 -5.55595 0)
(-0.000266082 -5.58372 0)
(-0.00111127 -5.59558 0)
(-0.00192933 -5.59457 0)
(-0.00268001 -5.58069 0)
(-0.00332944 -5.55114 0)
(-0.00383068 -5.49949 0)
(-0.00408691 -5.41391 0)
(-0.00403467 -5.27455 0)
(-0.00349319 -5.05219 0)
(-0.00239782 -4.71021 0)
(-0.000881364 -4.19368 0)
(0.000195848 -3.13343 0)
(0.000581982 -3.13806 0)
(0.00109716 -4.19908 0)
(0.00233599 -4.7163 0)
(0.00292643 -5.058 0)
(0.00294075 -5.27998 0)
(0.00253905 -5.41926 0)
(0.00180365 -5.50412 0)
(0.000897831 -5.55433 0)
(-3.94327e-05 -5.58197 0)
(-0.000982957 -5.59383 0)
(-0.00189437 -5.59287 0)
(-0.00273026 -5.57914 0)
(-0.00345659 -5.54983 0)
(-0.00401815 -5.49851 0)
(-0.00433942 -5.41349 0)
(-0.00431055 -5.27497 0)
(-0.00370112 -5.05346 0)
(-0.00256328 -4.71216 0)
(-0.00115466 -4.19575 0)
(-0.000126109 -3.13401 0)
(0.000142009 -3.13892 0)
(0.00104811 -4.20019 0)
(0.00257472 -4.71719 0)
(0.00352502 -5.05831 0)
(0.00366791 -5.27931 0)
(0.00322745 -5.41779 0)
(0.00238872 -5.50223 0)
(0.0013542 -5.55223 0)
(0.000271084 -5.57983 0)
(-0.000804657 -5.59179 0)
(-0.00182769 -5.59098 0)
(-0.00276453 -5.57746 0)
(-0.00357079 -5.54845 0)
(-0.00418705 -5.49761 0)
(-0.00456135 -5.41327 0)
(-0.00452643 -5.27563 0)
(-0.00393114 -5.05532 0)
(-0.00283047 -4.71507 0)
(-0.00138222 -4.19892 0)
(-0.000635875 -3.13519 0)
(0.000480732 -3.13933 0)
(0.00130371 -4.2023 0)
(0.00275325 -4.71864 0)
(0.00373802 -5.05866 0)
(0.0040004 -5.27864 0)
(0.0035558 -5.41621 0)
(0.00269843 -5.5001 0)
(0.00161437 -5.54989 0)
(0.000446608 -5.57747 0)
(-0.000723358 -5.58949 0)
(-0.00185525 -5.58884 0)
(-0.00289395 -5.57557 0)
(-0.00379454 -5.54696 0)
(-0.00450672 -5.49657 0)
(-0.00492814 -5.41277 0)
(-0.00490652 -5.2761 0)
(-0.00431678 -5.05717 0)
(-0.00314084 -4.71785 0)
(-0.00151907 -4.20177 0)
(-0.000655481 -3.13681 0)
(0.000994106 -3.14058 0)
(0.00158341 -4.20575 0)
(0.0029911 -4.72147 0)
(0.00390414 -5.05994 0)
(0.00418418 -5.27827 0)
(0.00376513 -5.41484 0)
(0.00290808 -5.49814 0)
(0.00180289 -5.54759 0)
(0.000578416 -5.57503 0)
(-0.000674271 -5.58707 0)
(-0.00189621 -5.58653 0)
(-0.00302703 -5.57349 0)
(-0.00401864 -5.54525 0)
(-0.00480766 -5.49539 0)
(-0.00526552 -5.4123 0)
(-0.00526021 -5.27664 0)
(-0.0046349 -5.05887 0)
(-0.00339112 -4.72037 0)
(-0.00175876 -4.20462 0)
(-0.00064673 -3.13871 0)
(0.00102468 -3.14295 0)
(0.00172696 -4.20911 0)
(0.00332704 -4.7243 0)
(0.00425493 -5.06137 0)
(0.00455461 -5.27822 0)
(0.00409953 -5.4136 0)
(0.00321572 -5.49615 0)
(0.00204355 -5.54524 0)
(0.000745429 -5.57253 0)
(-0.000601921 -5.58454 0)
(-0.001923 -5.5841 0)
(-0.00315536 -5.57131 0)
(-0.00423656 -5.54344 0)
(-0.00509542 -5.49407 0)
(-0.00560557 -5.41183 0)
(-0.00560146 -5.27743 0)
(-0.00499362 -5.06095 0)
(-0.00370477 -4.72342 0)
(-0.00191381 -4.20813 0)
(-0.000870527 -3.14129 0)
(0.000907213 -3.14573 0)
(0.00194865 -4.21259 0)
(0.00373171 -4.72743 0)
(0.00475256 -5.06301 0)
(0.00502535 -5.27828 0)
(0.00456656 -5.41239 0)
(0.00361383 -5.49408 0)
(0.00236255 -5.5427 0)
(0.000963749 -5.56981 0)
(-0.00049728 -5.58178 0)
(-0.00193766 -5.58144 0)
(-0.00330665 -5.56888 0)
(-0.00451694 -5.5414 0)
(-0.00546523 -5.49269 0)
(-0.00607007 -5.41131 0)
(-0.00609403 -5.2781 0)
(-0.00548358 -5.0632 0)
(-0.00407621 -4.72679 0)
(-0.00205847 -4.2119 0)
(-0.001004 -3.14423 0)
(0.000752625 -3.14833 0)
(0.00205855 -4.21599 0)
(0.00414302 -4.73031 0)
(0.00544784 -5.06457 0)
(0.00573549 -5.27819 0)
(0.00528439 -5.41099 0)
(0.00423354 -5.4918 0)
(0.00286341 -5.53987 0)
(0.00131274 -5.56673 0)
(-0.000307384 -5.57865 0)
(-0.0019149 -5.57838 0)
(-0.00343273 -5.56605 0)
(-0.00480278 -5.53895 0)
(-0.00589056 -5.49091 0)
(-0.00658271 -5.41052 0)
(-0.00668974 -5.27843 0)
(-0.00604524 -5.065 0)
(-0.00439939 -4.72993 0)
(-0.00218745 -4.21548 0)
(-0.000890561 -3.14632 0)
(0.00070453 -3.15005 0)
(0.00219707 -4.21925 0)
(0.00442921 -4.73282 0)
(0.0060202 -5.06567 0)
(0.00639244 -5.27767 0)
(0.00595784 -5.40923 0)
(0.00483117 -5.48916 0)
(0.00336147 -5.53668 0)
(0.00167708 -5.56328 0)
(-8.12029e-05 -5.57515 0)
(-0.00182064 -5.575 0)
(-0.00346714 -5.56288 0)
(-0.00493441 -5.53618 0)
(-0.0061381 -5.48876 0)
(-0.00690267 -5.40929 0)
(-0.00705162 -5.27852 0)
(-0.00637468 -5.06655 0)
(-0.00458045 -4.73287 0)
(-0.00232374 -4.21915 0)
(-0.000915178 -3.14745 0)
(0.00119072 -3.15209 0)
(0.00265773 -4.2237 0)
(0.00464265 -4.73607 0)
(0.00622335 -5.06731 0)
(0.00671889 -5.27744 0)
(0.0063457 -5.40756 0)
(0.00525912 -5.48647 0)
(0.00374641 -5.53333 0)
(0.00198166 -5.55963 0)
(0.000126036 -5.57147 0)
(-0.00171029 -5.57147 0)
(-0.0034403 -5.55965 0)
(-0.0049673 -5.53341 0)
(-0.00618451 -5.48675 0)
(-0.00695314 -5.40835 0)
(-0.00705342 -5.27917 0)
(-0.0063453 -5.06906 0)
(-0.00472975 -4.73693 0)
(-0.00272512 -4.22422 0)
(-0.00147375 -3.15006 0)
(0.00155673 -3.15509 0)
(0.00285693 -4.2287 0)
(0.00504793 -4.7399 0)
(0.0066015 -5.0693 0)
(0.00713977 -5.27757 0)
(0.00676989 -5.40606 0)
(0.00567495 -5.48382 0)
(0.00409131 -5.52996 0)
(0.00223048 -5.5559 0)
(0.000264241 -5.56766 0)
(-0.0016981 -5.56781 0)
(-0.0035458 -5.55634 0)
(-0.00518139 -5.53068 0)
(-0.00648044 -5.48489 0)
(-0.00728383 -5.40778 0)
(-0.00743225 -5.28024 0)
(-0.00675272 -5.07211 0)
(-0.00524563 -4.74178 0)
(-0.00295475 -4.23005 0)
(-0.0015519 -3.1546 0)
(0.00156659 -3.15902 0)
(0.00310383 -4.23381 0)
(0.00545198 -4.744 0)
(0.00701325 -5.07164 0)
(0.0075877 -5.27793 0)
(0.00719844 -5.40462 0)
(0.00605529 -5.48112 0)
(0.00439507 -5.52646 0)
(0.0024379 -5.55197 0)
(0.000345475 -5.5636 0)
(-0.00176304 -5.56386 0)
(-0.00376825 -5.55271 0)
(-0.00555867 -5.52764 0)
(-0.00702249 -5.4827 0)
(-0.00796118 -5.40679 0)
(-0.00823515 -5.28092 0)
(-0.00757134 -5.07463 0)
(-0.00584679 -4.74603 0)
(-0.00299284 -4.23469 0)
(-0.000896897 -3.15886 0)
(0.00142634 -3.16342 0)
(0.00325339 -4.23915 0)
(0.00595486 -4.74846 0)
(0.00766088 -5.07419 0)
(0.00827883 -5.27846 0)
(0.00782848 -5.40326 0)
(0.00660431 -5.47829 0)
(0.0048251 -5.52272 0)
(0.00273852 -5.54777 0)
(0.000500131 -5.55922 0)
(-0.00175891 -5.55952 0)
(-0.00393589 -5.54865 0)
(-0.00590451 -5.52411 0)
(-0.0075256 -5.48004 0)
(-0.00861362 -5.40535 0)
(-0.00897426 -5.28099 0)
(-0.00824166 -5.07664 0)
(-0.00621273 -4.74989 0)
(-0.00312591 -4.23908 0)
(-0.000721159 -3.16222 0)
(0.00117685 -3.1671 0)
(0.00327682 -4.24413 0)
(0.0063772 -4.75265 0)
(0.00839591 -5.07649 0)
(0.00908501 -5.27865 0)
(0.00858188 -5.40143 0)
(0.00724148 -5.47506 0)
(0.00532943 -5.51866 0)
(0.00310466 -5.54321 0)
(0.000732011 -5.55447 0)
(-0.00167161 -5.55482 0)
(-0.00399085 -5.54422 0)
(-0.00610413 -5.52024 0)
(-0.00785191 -5.47708 0)
(-0.00903609 -5.40376 0)
(-0.00940256 -5.28117 0)
(-0.00857298 -5.07882 0)
(-0.00639569 -4.75414 0)
(-0.00346204 -4.2445 0)
(-0.0012087 -3.16534 0)
(0.00128031 -3.17042 0)
(0.00343306 -4.24953 0)
(0.00660574 -4.75711 0)
(0.0088156 -5.07883 0)
(0.00967005 -5.27864 0)
(0.00917606 -5.39937 0)
(0.00777694 -5.47152 0)
(0.00577276 -5.51426 0)
(0.00343915 -5.53836 0)
(0.000952192 -5.54945 0)
(-0.00156815 -5.54988 0)
(-0.00400093 -5.5396 0)
(-0.00621363 -5.51619 0)
(-0.00802216 -5.47401 0)
(-0.00925986 -5.40215 0)
(-0.00960972 -5.28149 0)
(-0.0087694 -5.08155 0)
(-0.00663902 -4.75925 0)
(-0.00380422 -4.251 0)
(-0.00175031 -3.16895 0)
(0.00158378 -3.17423 0)
(0.00375979 -4.25604 0)
(0.00699345 -4.76243 0)
(0.00922031 -5.08166 0)
(0.0101165 -5.27881 0)
(0.00964122 -5.39727 0)
(0.00821092 -5.46793 0)
(0.00613004 -5.50979 0)
(0.00371194 -5.5334 0)
(0.00112149 -5.54429 0)
(-0.00150836 -5.54478 0)
(-0.00404442 -5.53483 0)
(-0.00635377 -5.51203 0)
(-0.00825411 -5.47084 0)
(-0.00953997 -5.40051 0)
(-0.00993474 -5.28188 0)
(-0.00911375 -5.08446 0)
(-0.0070218 -4.76461 0)
(-0.00395845 -4.25758 0)
(-0.00184646 -3.17358 0)
(0.00179793 -3.17912 0)
(0.00423431 -4.2633 0)
(0.00748899 -4.76844 0)
(0.0096351 -5.08515 0)
(0.0104625 -5.27952 0)
(0.0100062 -5.39561 0)
(0.00855097 -5.46456 0)
(0.00644519 -5.50535 0)
(0.00395559 -5.52838 0)
(0.00127441 -5.53903 0)
(-0.00145628 -5.53957 0)
(-0.00410085 -5.52993 0)
(-0.00650471 -5.50781 0)
(-0.00850091 -5.46772 0)
(-0.00983497 -5.39897 0)
(-0.0102838 -5.28247 0)
(-0.00947631 -5.08763 0)
(-0.00738373 -4.77019 0)
(-0.00424745 -4.26434 0)
(-0.00167577 -3.17924 0)
(0.00156357 -3.18444 0)
(0.00427203 -4.27021 0)
(0.00791694 -4.77434 0)
(0.0102524 -5.08863 0)
(0.0111062 -5.28013 0)
(0.010631 -5.3938 0)
(0.00911115 -5.46098 0)
(0.00690914 -5.50066 0)
(0.00429234 -5.5231 0)
(0.00146893 -5.53349 0)
(-0.00141254 -5.53405 0)
(-0.0042066 -5.52474 0)
(-0.00675632 -5.50331 0)
(-0.0088891 -5.46437 0)
(-0.0103389 -5.39729 0)
(-0.0108504 -5.28309 0)
(-0.010058 -5.09095 0)
(-0.00782916 -4.77611 0)
(-0.00440373 -4.2714 0)
(-0.00152975 -3.18522 0)
(0.00120083 -3.18899 0)
(0.00433777 -4.27649 0)
(0.00821004 -4.77949 0)
(0.0108203 -5.09129 0)
(0.0117869 -5.28002 0)
(0.0112879 -5.39138 0)
(0.00970425 -5.45692 0)
(0.00738568 -5.49553 0)
(0.00462522 -5.51735 0)
(0.00163655 -5.52749 0)
(-0.00141572 -5.52807 0)
(-0.00438894 -5.51908 0)
(-0.00712068 -5.49833 0)
(-0.00942559 -5.46049 0)
(-0.0110225 -5.39508 0)
(-0.0115835 -5.28315 0)
(-0.0107405 -5.09371 0)
(-0.00822722 -4.78132 0)
(-0.00440286 -4.27774 0)
(-0.00138988 -3.19048 0)
(0.00147867 -3.19422 0)
(0.00478708 -4.28399 0)
(0.0085644 -4.78542 0)
(0.0111475 -5.09439 0)
(0.0120859 -5.28017 0)
(0.0115743 -5.38904 0)
(0.00998707 -5.45277 0)
(0.00764243 -5.49023 0)
(0.0048159 -5.5114 0)
(0.00173551 -5.52122 0)
(-0.00142818 -5.52179 0)
(-0.00452099 -5.51308 0)
(-0.00737393 -5.49297 0)
(-0.00977732 -5.45621 0)
(-0.0114467 -5.39246 0)
(-0.01202 -5.28298 0)
(-0.0111048 -5.09644 0)
(-0.00844702 -4.78658 0)
(-0.00467915 -4.28439 0)
(-0.00164569 -3.1952 0)
(0.00196082 -3.20109 0)
(0.00517231 -4.29273 0)
(0.00898862 -4.79257 0)
(0.0115231 -5.09856 0)
(0.0123938 -5.2811 0)
(0.0118671 -5.38726 0)
(0.0102679 -5.44898 0)
(0.00790844 -5.48512 0)
(0.00504284 -5.50549 0)
(0.00190215 -5.51493 0)
(-0.00133512 -5.51545 0)
(-0.00450344 -5.50703 0)
(-0.00742304 -5.48759 0)
(-0.00986838 -5.45202 0)
(-0.0115777 -5.39011 0)
(-0.0121686 -5.2831 0)
(-0.0112571 -5.09962 0)
(-0.00867173 -4.79277 0)
(-0.00496754 -4.29236 0)
(-0.00219363 -3.20038 0)
(0.00188949 -3.20789 0)
(0.00518879 -4.30067 0)
(0.00941144 -4.79921 0)
(0.0121957 -5.10233 0)
(0.0131304 -5.28172 0)
(0.0125642 -5.38525 0)
(0.0108749 -5.44504 0)
(0.0084054 -5.47984 0)
(0.00543009 -5.49939 0)
(0.00217226 -5.50846 0)
(-0.00117999 -5.50897 0)
(-0.00444308 -5.50091 0)
(-0.00742737 -5.48223 0)
(-0.00991424 -5.44796 0)
(-0.0116335 -5.388 0)
(-0.0122335 -5.28368 0)
(-0.0113501 -5.10352 0)
(-0.00893718 -4.79981 0)
(-0.00522106 -4.30108 0)
(-0.00243726 -3.20711 0)
(0.00177615 -3.21372 0)
(0.00531061 -4.30801 0)
(0.00971959 -4.80514 0)
(0.0127593 -5.10538 0)
(0.0137961 -5.28166 0)
(0.0131968 -5.38266 0)
(0.0114182 -5.4406 0)
(0.00884001 -5.47414 0)
(0.00573623 -5.49294 0)
(0.00234165 -5.50166 0)
(-0.00114618 -5.50221 0)
(-0.00454169 -5.49454 0)
(-0.0076517 -5.47667 0)
(-0.0102546 -5.44376 0)
(-0.0120903 -5.38583 0)
(-0.0127806 -5.28423 0)
(-0.0119689 -5.10743 0)
(-0.00946372 -4.80684 0)
(-0.00530525 -4.30947 0)
(-0.00208157 -3.21448 0)
(0.00230497 -3.22021 0)
(0.00577961 -4.31698 0)
(0.00997026 -4.81216 0)
(0.0129515 -5.1091 0)
(0.0140304 -5.28195 0)
(0.0134384 -5.3802 0)
(0.0116424 -5.43614 0)
(0.00902473 -5.46833 0)
(0.0058497 -5.48629 0)
(0.00235682 -5.49461 0)
(-0.00125266 -5.49514 0)
(-0.00478618 -5.48783 0)
(-0.00804795 -5.47075 0)
(-0.0108142 -5.43914 0)
(-0.0127886 -5.38315 0)
(-0.0135758 -5.28425 0)
(-0.0127305 -5.11079 0)
(-0.0098955 -4.81321 0)
(-0.00532538 -4.31716 0)
(-0.00164919 -3.22134 0)
(0.00258635 -3.22779 0)
(0.00594192 -4.32665 0)
(0.0103655 -4.8199 0)
(0.0133321 -5.11331 0)
(0.0143937 -5.28254 0)
(0.0137997 -5.37792 0)
(0.0119463 -5.43176 0)
(0.00925568 -5.46248 0)
(0.00599529 -5.47952 0)
(0.0023977 -5.48737 0)
(-0.00132713 -5.48782 0)
(-0.00499226 -5.48083 0)
(-0.00839434 -5.46449 0)
(-0.0112901 -5.43416 0)
(-0.0133632 -5.38017 0)
(-0.0142171 -5.28408 0)
(-0.0133087 -5.11407 0)
(-0.0102739 -4.81987 0)
(-0.00561295 -4.32559 0)
(-0.00186929 -3.22771 0)
(0.00241988 -3.23567 0)
(0.00609286 -4.33582 0)
(0.0108219 -4.82729 0)
(0.0138977 -5.11728 0)
(0.0149162 -5.28289 0)
(0.0142653 -5.37544 0)
(0.0123419 -5.4272 0)
(0.00955812 -5.45646 0)
(0.00619544 -5.47257 0)
(0.00248785 -5.47995 0)
(-0.0013528 -5.48032 0)
(-0.00512967 -5.47366 0)
(-0.00864058 -5.45811 0)
(-0.0116353 -5.42912 0)
(-0.0137874 -5.37724 0)
(-0.0146494 -5.28417 0)
(-0.0137409 -5.11784 0)
(-0.0106422 -4.82725 0)
(-0.00594229 -4.33509 0)
(-0.00238052 -3.23449 0)
(0.00256324 -3.24376 0)
(0.00641937 -4.34572 0)
(0.0112426 -4.83524 0)
(0.0143871 -5.12161 0)
(0.0154346 -5.28343 0)
(0.0147297 -5.37292 0)
(0.0127341 -5.4225 0)
(0.00984961 -5.45026 0)
(0.00637966 -5.46541 0)
(0.00255833 -5.47229 0)
(-0.00140025 -5.4726 0)
(-0.00529801 -5.46629 0)
(-0.00891559 -5.45156 0)
(-0.0119808 -5.42399 0)
(-0.0141737 -5.37428 0)
(-0.0150085 -5.28433 0)
(-0.0140649 -5.12202 0)
(-0.0109578 -4.83523 0)
(-0.00621922 -4.3453 0)
(-0.00273159 -3.24204 0)
(0.00262105 -3.25133 0)
(0.0063934 -4.35557 0)
(0.0116196 -4.84322 0)