# vtk DataFile Version 2.0
track0
ASCII
DATASET POLYDATA
POINTS 12135 float
-0.0205 0.001 1e-05
-0.0204884 0.0011 1e-05
-0.0204767 0.00119999 1e-05
-0.0204649 0.00129996 1e-05
-0.020453 0.00139992 1e-05
-0.0204409 0.0015 1e-05
-0.0204288 0.0016 1e-05
-0.0204164 0.00169998 1e-05
-0.020404 0.00179994 1e-05
-0.0203913 0.00189988 1e-05
-0.0203785 0.002 1e-05
-0.0203655 0.0021 1e-05
-0.0203524 0.00219998 1e-05
-0.020339 0.00229993 1e-05
-0.0203255 0.00239985 1e-05
-0.0203118 0.0025 1e-05
-0.0203065 0.0025379 1e-05
-0.0203012 0.0025758 1e-05
-0.0202959 0.00261369 1e-05
-0.0202905 0.00265158 1e-05
-0.0202854 0.00268732 1e-05
-0.0202764 0.00274986 1e-05
-0.0202674 0.00281238 1e-05
-0.0202583 0.00287489 1e-05
-0.0202491 0.00293739 1e-05
-0.0202397 0.003 1e-05
-0.0202247 0.0031 1e-05
-0.0202095 0.00319996 1e-05
-0.020194 0.00329989 1e-05
-0.0201783 0.00339978 1e-05
-0.0201623 0.0035 1e-05
-0.0201461 0.0036 1e-05
-0.0201296 0.00369996 1e-05
-0.0201129 0.00379988 1e-05
-0.0200959 0.00389975 1e-05
-0.0200786 0.004 1e-05
-0.0200674 0.00406428 1e-05
-0.020056 0.00412855 1e-05
-0.0200445 0.00419279 1e-05
-0.0200329 0.00425702 1e-05
-0.0200223 0.00431518 1e-05
-0.0200155 0.00435214 1e-05
-0.0200087 0.0043891 1e-05
-0.0200018 0.00442605 1e-05
-0.0199949 0.004463 1e-05
-0.019988 0.0045 1e-05
-0.0199691 0.0046 1e-05
-0.0199499 0.00469995 1e-05
-0.0199305 0.00479984 1e-05
-0.0199107 0.00489968 1e-05
-0.0198906 0.005 1e-05
-0.0198703 0.0051 1e-05
-0.0198496 0.00519994 1e-05
-0.0198287 0.00529982 1e-05
-0.0198075 0.00539964 1e-05
-0.0197859 0.0055 1e-05
-0.019781 0.00552245 1e-05
-0.0197761 0.00554489 1e-05
-0.0197711 0.00556734 1e-05
-0.0197662 0.00558977 1e-05
-0.0197614 0.00561154 1e-05
-0.0197441 0.00568923 1e-05
-0.0197267 0.00576688 1e-05
-0.0197091 0.00584449 1e-05
-0.0196913 0.00592207 1e-05
-0.0196733 0.006 1e-05
-0.0196498 0.0061 1e-05
-0.0196261 0.00619993 1e-05
-0.0196021 0.00629978 1e-05
-0.0195778 0.00639957 1e-05
-0.019553 0.0065 1e-05
-0.0195429 0.00654035 1e-05
-0.0195327 0.00658069 1e-05
-0.0195226 0.00662101 1e-05
-0.0195123 0.00666132 1e-05
-0.0195025 0.00669965 1e-05
-0.0194871 0.00675972 1e-05
-0.0194715 0.00681976 1e-05
-0.0194559 0.00687977 1e-05
-0.0194401 0.00693976 1e-05
-0.0194242 0.007 1e-05
-0.0193975 0.0071 1e-05
-0.0193705 0.00719992 1e-05
-0.0193432 0.00729974 1e-05
-0.0193156 0.00739949 1e-05
-0.0192874 0.0075 1e-05
-0.0192791 0.00752934 1e-05
-0.0192707 0.00755868 1e-05
-0.0192623 0.007588 1e-05
-0.0192539 0.00761732 1e-05
-0.0192457 0.00764567 1e-05
-0.0192253 0.00771654 1e-05
-0.0192046 0.00778736 1e-05
-0.0191838 0.00785813 1e-05
-0.0191629 0.00792885 1e-05
-0.0191416 0.008 1e-05
-0.0191115 0.00809993 1e-05
-0.0190811 0.00819977 1e-05
-0.0190503 0.0082995 1e-05
-0.0190192 0.00839914 1e-05
-0.018991 0.00848832 1e-05
-0.0189903 0.00849066 1e-05
-0.0189896 0.00849299 1e-05
-0.0189888 0.00849533 1e-05
-0.0189881 0.00849766 1e-05
-0.0189873 0.0085 1e-05
-0.0189554 0.0086 1e-05
-0.0189231 0.00869989 1e-05
-0.0188905 0.00879968 1e-05
-0.0188576 0.00889935 1e-05
-0.018824 0.009 1e-05
-0.0188068 0.00905066 1e-05
-0.0187896 0.00910129 1e-05
-0.0187724 0.00915189 1e-05
-0.018755 0.00920246 1e-05
-0.0187384 0.00925049 1e-05
-0.0187211 0.00930039 1e-05
-0.0187036 0.00935026 1e-05
-0.0186861 0.00940011 1e-05
-0.0186686 0.00944992 1e-05
-0.0186508 0.0095 1e-05
-0.0186182 0.00959136 1e-05
-0.0185853 0.00968262 1e-05
-0.0185521 0.00977378 1e-05
-0.0185187 0.00986483 1e-05
-0.0184878 0.00994805 1e-05
-0.0184839 0.00995844 1e-05
-0.01848 0.00996883 1e-05
-0.0184761 0.00997922 1e-05
-0.0184722 0.0099896 1e-05
-0.0184683 0.01 1e-05
-0.0184306 0.0101 1e-05
-0.0183927 0.0101999 1e-05
-0.0183543 0.0102996 1e-05
-0.0183156 0.0103992 1e-05
-0.0182761 0.0105 1e-05
-0.0182687 0.0105186 1e-05
-0.0182613 0.0105372 1e-05
-0.0182539 0.0105558 1e-05
-0.0182465 0.0105744 1e-05
-0.0182392 0.0105927 1e-05
-0.0182066 0.0106741 1e-05
-0.0181737 0.0107555 1e-05
-0.0181406 0.0108368 1e-05
-0.0181073 0.010918 1e-05
-0.0180734 0.011 1e-05
-0.0180572 0.0110387 1e-05
-0.018041 0.0110774 1e-05
-0.0180247 0.0111161 1e-05
-0.0180084 0.0111547 1e-05
-0.0179926 0.011192 1e-05
-0.0179664 0.0112536 1e-05
-0.01794 0.0113152 1e-05
-0.0179136 0.0113766 1e-05
-0.0178869 0.0114381 1e-05
-0.0178599 0.0115 1e-05
-0.0178375 0.011551 1e-05
-0.0178151 0.011602 1e-05
-0.0177925 0.011653 1e-05
-0.0177698 0.0117039 1e-05
-0.017748 0.0117526 1e-05
-0.0177257 0.0118021 1e-05
-0.0177034 0.0118515 1e-05
-0.0176809 0.0119009 1e-05
-0.0176584 0.0119503 1e-05
-0.0176356 0.012 1e-05
-0.0176096 0.0120565 1e-05
-0.0175834 0.012113 1e-05
-0.0175571 0.0121694 1e-05
-0.0175307 0.0122258 1e-05
-0.0175053 0.0122796 1e-05
-0.0174845 0.0123237 1e-05
-0.0174635 0.0123677 1e-05
-0.0174425 0.0124117 1e-05
-0.0174214 0.0124557 1e-05
-0.0174001 0.0125 1e-05
-0.017373 0.012556 1e-05
-0.0173458 0.0126119 1e-05
-0.0173185 0.0126678 1e-05
-0.017291 0.0127236 1e-05
-0.0172647 0.012777 1e-05
-0.0172425 0.0128216 1e-05
-0.0172203 0.0128661 1e-05
-0.017198 0.0129107 1e-05
-0.0171756 0.0129552 1e-05
-0.0171529 0.013 1e-05
-0.0171275 0.0130501 1e-05
-0.017102 0.0131001 1e-05
-0.0170764 0.0131501 1e-05
-0.0170507 0.0132 1e-05
-0.0170259 0.013248 1e-05
-0.0169997 0.0132984 1e-05
-0.0169735 0.0133487 1e-05
-0.0169471 0.013399 1e-05
-0.0169206 0.0134493 1e-05
-0.0168938 0.0135 1e-05
-0.0168728 0.0135394 1e-05
-0.0168518 0.0135787 1e-05
-0.0168308 0.013618 1e-05
-0.0168097 0.0136573 1e-05
-0.0167891 0.0136954 1e-05
-0.0167561 0.0137563 1e-05
-0.016723 0.0138171 1e-05
-0.0166897 0.0138779 1e-05
-0.0166562 0.0139386 1e-05
-0.0166222 0.014 1e-05
-0.0166086 0.0140244 1e-05
-0.016595 0.0140488 1e-05
-0.0165813 0.0140732 1e-05
-0.0165677 0.0140976 1e-05
-0.0165542 0.0141215 1e-05
-0.0165115 0.0141972 1e-05
-0.0164686 0.0142728 1e-05
-0.0164255 0.0143482 1e-05
-0.0163822 0.0144235 1e-05
-0.0163379 0.0145 1e-05
-0.0163345 0.0145057 1e-05
-0.0163312 0.0145115 1e-05
-0.0163279 0.0145172 1e-05
-0.0163245 0.0145229 1e-05
-0.0163212 0.0145286 1e-05
-0.0162749 0.0146076 1e-05
-0.0162285 0.0146865 1e-05
-0.0161817 0.0147652 1e-05
-0.0161348 0.0148438 1e-05
-0.01609 0.0149181 1e-05
-0.0160801 0.0149345 1e-05
-0.0160701 0.0149508 1e-05
-0.0160602 0.0149672 1e-05
-0.0160502 0.0149836 1e-05
-0.0160402 0.015 1e-05
-0.0160043 0.0150588 1e-05
-0.0159683 0.0151174 1e-05
-0.0159321 0.015176 1e-05
-0.0158958 0.0152345 1e-05
-0.0158607 0.0152907 1e-05
-0.0158345 0.0153326 1e-05
-0.0158082 0.0153744 1e-05
-0.0157818 0.0154161 1e-05
-0.0157553 0.0154579 1e-05
-0.0157285 0.0155 1e-05
-0.0157094 0.0155298 1e-05
-0.0156904 0.0155595 1e-05
-0.0156713 0.0155893 1e-05
-0.0156521 0.015619 1e-05
-0.0156333 0.0156481 1e-05
-0.0155882 0.0157177 1e-05
-0.0155429 0.0157873 1e-05
-0.0154974 0.0158567 1e-05
-0.0154516 0.0159259 1e-05
-0.0154077 0.0159921 1e-05
-0.0154066 0.0159936 1e-05
-0.0154056 0.0159952 1e-05
-0.0154045 0.0159968 1e-05
-0.0154035 0.0159984 1e-05
-0.0154024 0.016 1e-05
-0.0153587 0.0160654 1e-05
-0.0153148 0.0161306 1e-05
-0.0152708 0.0161957 1e-05
-0.0152266 0.0162607 1e-05
-0.0151839 0.016323 1e-05
-0.0151596 0.0163584 1e-05
-0.0151351 0.0163938 1e-05
-0.0151107 0.0164291 1e-05
-0.0150861 0.0164644 1e-05
-0.0150613 0.0165 1e-05
-0.0150414 0.0165284 1e-05
-0.0150215 0.0165568 1e-05
-0.0150016 0.0165852 1e-05
-0.0149816 0.0166136 1e-05
-0.0149619 0.0166414 1e-05
-0.0149179 0.0167036 1e-05
-0.0148737 0.0167657 1e-05
-0.0148293 0.0168276 1e-05
-0.0147848 0.0168895 1e-05
-0.0147417 0.016949 1e-05
-0.0147343 0.0169592 1e-05
-0.0147269 0.0169694 1e-05
-0.0147194 0.0169796 1e-05
-0.014712 0.0169898 1e-05
-0.0147045 0.017 1e-05
-0.0146683 0.0170496 1e-05
-0.0146319 0.0170991 1e-05
-0.0145955 0.0171485 1e-05
-0.0145589 0.0171978 1e-05
-0.0145233 0.0172457 1e-05
-0.0144853 0.0172966 1e-05
-0.0144472 0.0173473 1e-05
-0.014409 0.017398 1e-05
-0.0143707 0.0174486 1e-05
-0.0143316 0.0175 1e-05
-0.0143266 0.0175065 1e-05
-0.0143216 0.017513 1e-05
-0.0143166 0.0175196 1e-05
-0.0143116 0.0175261 1e-05
-0.0143067 0.0175326 1e-05
-0.0142637 0.0175886 1e-05
-0.0142206 0.0176446 1e-05
-0.0141773 0.0177005 1e-05
-0.0141339 0.0177563 1e-05
-0.0140917 0.0178102 1e-05
-0.0140619 0.0178482 1e-05
-0.0140321 0.0178861 1e-05
-0.0140021 0.0179239 1e-05
-0.0139721 0.0179618 1e-05
-0.0139417 0.018 1e-05
-0.0139291 0.0180158 1e-05
-0.0139164 0.0180316 1e-05
-0.0139038 0.0180474 1e-05
-0.0138911 0.0180632 1e-05
-0.0138786 0.0180788 1e-05
-0.0138363 0.0181314 1e-05
-0.0137939 0.0181839 1e-05
-0.0137513 0.0182363 1e-05
-0.0137087 0.0182886 1e-05
-0.0136671 0.0183393 1e-05
-0.0136406 0.0183714 1e-05
-0.0136142 0.0184035 1e-05
-0.0135876 0.0184356 1e-05
-0.013561 0.0184676 1e-05
-0.0135341 0.0185 1e-05
-0.0135187 0.0185184 1e-05
-0.0135034 0.0185368 1e-05
-0.013488 0.0185551 1e-05
-0.0134726 0.0185735 1e-05
-0.0134573 0.0185917 1e-05
-0.0134157 0.0186411 1e-05
-0.013374 0.0186905 1e-05
-0.0133322 0.0187398 1e-05
-0.0132902 0.018789 1e-05
-0.0132493 0.0188368 1e-05
-0.0132212 0.0188695 1e-05
-0.0131931 0.0189021 1e-05
-0.0131649 0.0189346 1e-05
-0.0131368 0.0189671 1e-05
-0.0131082 0.019 1e-05
-0.0130951 0.019015 1e-05
-0.013082 0.0190299 1e-05
-0.013069 0.0190449 1e-05
-0.0130559 0.0190599 1e-05
-0.0130429 0.0190747 1e-05
-0.0130019 0.0191213 1e-05
-0.0129609 0.0191679 1e-05
-0.0129197 0.0192144 1e-05
-0.0128785 0.0192608 1e-05
-0.0128381 0.019306 1e-05
-0.0128034 0.0193448 1e-05
-0.0127686 0.0193836 1e-05
-0.0127337 0.0194222 1e-05
-0.0126987 0.0194609 1e-05
-0.0126632 0.0195 1e-05
-0.0126576 0.0195062 1e-05
-0.0126519 0.0195124 1e-05
-0.0126463 0.0195185 1e-05
-0.0126407 0.0195247 1e-05
-0.012635 0.0195309 1e-05
-0.0125947 0.019575 1e-05
-0.0125544 0.019619 1e-05
-0.0125139 0.0196629 1e-05
-0.0124734 0.0197068 1e-05
-0.0124336 0.0197497 1e-05
-0.0123936 0.0197926 1e-05
-0.0123536 0.0198355 1e-05
-0.0123134 0.0198782 1e-05
-0.0122732 0.0199209 1e-05
-0.0122338 0.0199627 1e-05
-0.0122267 0.0199702 1e-05
-0.0122196 0.0199776 1e-05
-0.0122125 0.0199851 1e-05
-0.0122054 0.0199925 1e-05
-0.0121983 0.02 1e-05
-0.0121658 0.0200342 1e-05
[...]
POINT_DATA 12135
 FIELD attributes 2
p 1 12135 float
-0.00687941 -0.00755255 -0.00822456 -0.00889629 -0.00956795 -0.0102402 -0.0109017 -0.0115628 -0.0122236 -0.0128836 -0.0135445 -0.0141981 -0.0148514 -0.0155046 -0.0161577 -0.0168117 -0.0170577 -0.0173036 -0.0175494 -0.0177952 -0.0180269 -0.0184328 -0.0188385 -0.0192442 -0.0196498 -0.020056 -0.0206994 -0.0213419 -0.0219842 -0.0226264 -0.0232705 -0.0239083 -0.0245457 -0.025183 -0.0258197 -0.0264586 -0.0268656 -0.0272722 -0.0276789 -0.0280854 -0.0284534 -0.0286875 -0.0289215 -0.0291554 -0.0293892 -0.0296233 -0.030252 -0.03088 -0.0315077 -0.0321352 -0.0327656 -0.0333903 -0.0340146 -0.0346385 -0.0352622 -0.0358889 -0.0360285 -0.0361679 -0.0363072 -0.0364466 -0.0365816 -0.037064 -0.0375461 -0.038028 -0.0385097 -0.0389936 -0.0396115 -0.0402289 -0.0408459 -0.0414625 -0.0420831 -0.0423314 -0.0425795 -0.0428276 -0.0430756 -0.0433114 -0.0436808 -0.0440499 -0.0444189 -0.0447877 -0.045158 -0.0457706 -0.0463826 -0.0469942 -0.0476053 -0.0482211 -0.0484004 -0.0485796 -0.0487587 -0.0489378 -0.0491109 -0.0495433 -0.0499753 -0.0504071 -0.0508386 -0.0512727 -0.051881 -0.0524887 -0.0530959 -0.0537026 -0.0542456 -0.0542598 -0.0542741 -0.0542883 -0.0543024 -0.0543166 -0.0549234 -0.0555294 -0.0561349 -0.0567398 -0.0573506 -0.0576578 -0.0579648 -0.0582717 -0.0585784 -0.0588696 -0.0591715 -0.0594733 -0.0597749 -0.0600763 -0.0603793 -0.060932 -0.0614841 -0.0620356 -0.0625865 -0.06309 -0.0631527 -0.0632154 -0.0632781 -0.0633407 -0.0634034 -0.064007 -0.0646099 -0.0652121 -0.0658135 -0.0664221 -0.0665346 -0.0666471 -0.0667596 -0.066872 -0.0669825 -0.0674733 -0.0679636 -0.0684533 -0.0689423 -0.0694366 -0.0696704 -0.0699041 -0.0701376 -0.070371 -0.0705966 -0.070967 -0.071337 -0.0717066 -0.0720759 -0.0724484 -0.0727563 -0.0730639 -0.0733713 -0.0736784 -0.0739723 -0.0742693 -0.074566 -0.0748624 -0.0751586 -0.0754569 -0.0757976 -0.076138 -0.0764781 -0.0768178 -0.077142 -0.077406 -0.0776699 -0.0779335 -0.0781969 -0.0784622 -0.0787993 -0.0791361 -0.0794725 -0.0798085 -0.0801297 -0.0803964 -0.0806628 -0.080929 -0.0811949 -0.0814629 -0.0817641 -0.082065 -0.0823656 -0.0826659 -0.0829547 -0.0832554 -0.0835559 -0.083856 -0.0841558 -0.0844583 -0.0846949 -0.0849313 -0.0851675 -0.0854034 -0.0856324 -0.0859953 -0.0863577 -0.0867195 -0.0870808 -0.0874462 -0.0875927 -0.0877392 -0.0878856 -0.088032 -0.0881758 -0.0886258 -0.089075 -0.0895233 -0.0899706 -0.0904248 -0.0904592 -0.0904935 -0.0905279 -0.0905622 -0.0905964 -0.0910654 -0.0915334 -0.0920004 -0.0924664 -0.0929066 -0.0930026 -0.0930985 -0.0931944 -0.0932902 -0.0933864 -0.0937344 -0.0940819 -0.0944287 -0.094775 -0.0951074 -0.0953516 -0.0955956 -0.0958393 -0.0960826 -0.0963284 -0.0965043 -0.0966801 -0.0968557 -0.0970311 -0.097203 -0.0976082 -0.0980123 -0.0984154 -0.0988175 -0.0992012 -0.0992103 -0.0992193 -0.0992284 -0.0992375 -0.0992466 -0.0996257 -0.100004 -0.100382 -0.100758 -0.101119 -0.10132 -0.101521 -0.101722 -0.101922 -0.102124 -0.102288 -0.102452 -0.102616 -0.102779 -0.10294 -0.103292 -0.103642 -0.103992 -0.104341 -0.104677 -0.104733 -0.104789 -0.104846 -0.104902 -0.104958 -0.105237 -0.105516 -0.105793 -0.10607 -0.106339 -0.106618 -0.106896 -0.107173 -0.10745 -0.10773 -0.107766 -0.107803 -0.107839 -0.107875 -0.107912 -0.108217 -0.108522 -0.108825 -0.109128 -0.109421 -0.109621 -0.109821 -0.11002 -0.110219 -0.110419 -0.110504 -0.110589 -0.110674 -0.110759 -0.110843 -0.111117 -0.11139 -0.111664 -0.111936 -0.112201 -0.112362 -0.112523 -0.112684 -0.112844 -0.113007 -0.113101 -0.113196 -0.113291 -0.113385 -0.113478 -0.113723 -0.113967 -0.114212 -0.114455 -0.114692 -0.114846 -0.115 -0.115154 -0.115308 -0.115463 -0.115535 -0.115608 -0.115681 -0.115753 -0.115826 -0.116042 -0.116259 -0.116475 -0.116691 -0.116901 -0.117072 -0.117242 -0.117411 -0.11758 -0.117752 -0.11778 -0.117808 -0.117836 -0.117864 -0.117892 -0.118082 -0.118272 -0.118462 -0.11865 -0.118834 -0.119007 -0.119178 -0.119349 -0.119519 -0.119686 -0.119715 -0.119742 -0.11977 -0.119798 -0.119826 -0.119959 -0.120093 -0.120226 -0.120359 -0.120489 -0.120634 -0.120779 -0.120924 -0.12107 -0.121213 -0.121296 -0.121379 -0.121462 -0.121544 -0.121628 -0.121676 -0.121723 -0.12177 -0.121818 -0.121865 -0.121983 -0.122104 -0.122225 -0.122345 -0.122462 -0.122565 -0.122667 -0.122769 -0.122869 -0.12297 -0.122994 -0.123018 -0.123042 -0.123066 -0.123091 -0.123158 -0.123226 -0.123293 -0.123361 -0.123428 -0.123503 -0.123578 -0.123657 -0.123734 -0.123811 -0.12387 -0.12393 -0.123989 -0.124047 -0.124106 -0.124109 -0.124113 -0.124116 -0.124121 -0.124125 -0.124174 -0.124222 -0.124269 -0.124316 -0.124362 -0.124395 -0.124427 -0.124462 -0.124498 -0.124533 -0.12455 -0.124567 -0.124583 -0.124598 -0.124613 -0.124613 -0.124613 -0.124613 -0.124613 -0.124613 -0.124622 -0.12463 -0.124639 -0.124647 -0.124655 -0.124643 -0.124631 -0.124624 -0.124617 -0.12461 -0.124582 -0.124554 -0.124526 -0.124497 -0.124474 -0.12446 -0.124448 -0.124435 -0.124422 -0.12441 -0.124387 -0.124362 -0.124338 -0.124313 -0.124287 -0.124231 -0.124178 -0.124128 -0.124077 -0.124026 -0.123955 -0.123882 -0.123809 -0.123738 -0.123671 -0.123607 -0.123542 -0.123477 -0.123411 -0.123345 -0.123322 -0.123301 -0.123279 -0.123258 -0.123238 -0.123138 -0.123042 -0.122946 -0.122849 -0.122753 -0.122631 -0.122511 -0.122395 -0.122283 -0.122173 -0.122035 -0.121898 -0.121761 -0.121623 -0.121494 -0.121427 -0.121362 -0.121296 -0.12123 -0.121166 -0.121084 -0.121002 -0.12092 -0.120838 -0.120756 -0.120587 -0.120428 -0.120268 -0.120108 -0.119947 -0.119761 -0.119575 -0.119391 -0.119215 -0.11904 -0.118838 -0.118635 -0.118432 -0.118227 -0.118031 -0.117944 -0.117857 -0.11777 -0.117682 -0.117594 -0.117466 -0.117339 -0.117212 -0.117085 -0.11696 -0.116719 -0.116491 -0.116263 -0.116035 -0.115808 -0.11555 -0.115292 -0.115041 -0.114797 -0.114555 -0.11428 -0.114006 -0.113731 -0.113455 -0.113197 -0.113 -0.112806 -0.112611 -0.112416 -0.112221 -0.112128 -0.112035 -0.111942 -0.111849 -0.111757 -0.111451 -0.111153 -0.110853 -0.110554 -0.110255 -0.109923 -0.109593 -0.109277 -0.108961 -0.108647 -0.108299 -0.107949 -0.1076 -0.107262 -0.10693 -0.106564 -0.106199 -0.105832 -0.105466 -0.105107 -0.105003 -0.104898 -0.104793 -0.104689 -0.104583 -0.104309 -0.104037 -0.103764 -0.103491 -0.103219 -0.102807 -0.102414 -0.102022 -0.101629 -0.10124 -0.100809 -0.100379 -0.0999647 -0.0995548 -0.0991471 -0.0986985 -0.0982515 -0.0978041 -0.0973674 -0.0969448 -0.0964799 -0.0960152 -0.0955502 -0.0950849 -0.0946281 -0.094513 -0.0943998 -0.0942866 -0.0941736 -0.0940619 -0.0936996 -0.0933384 -0.0929771 -0.0926155 -0.0922561 -0.0917444 -0.0912543 -0.0907638 -0.090273 -0.0897834 -0.0892507 -0.0887191 -0.08821 -0.0877027 -0.0871981 -0.0866482 -0.0860979 -0.0855473 -0.085016 -0.0844917 -0.0839231 -0.0833556 -0.082788 -0.0822201 -0.0816715 -0.0813384 -0.0810048 -0.0806712 -0.0803376 -0.0800026 -0.0797529 -0.0795031 -0.0792531 -0.0790032 -0.0787532 -0.0781409 -0.0775438 -0.0769465 -0.076349 -0.0757539 -0.075108 -0.0744745 -0.0738579 -0.0732412 -0.0726245 -0.0719591 -0.071295 -0.0706421 -0.0700089 -0.0693774 -0.0686943 -0.0680104 -0.0673265 -0.0666522 -0.0659994 -0.0652973 -0.0645966 -0.063896 -0.0631954 -0.0625042 -0.0623301 -0.062155 -0.0619798 -0.0618045 -0.0616285 -0.0610897 -0.0605505 -0.0600113 -0.0594722 -0.0589323 -0.0581712 -0.0574407 -0.0567104 -0.0559803 -0.0552509 -0.0544673 -0.0536905 -0.052944 -0.0521978 -0.0514491 -0.0506454 -0.0498439 -0.049049 -0.0482862 -0.0475225 -0.0467068 -0.0458911 -0.0450759 -0.0442667 -0.0434865 -0.0426518 -0.0418191 -0.040987 -0.0401555 -0.0393259 -0.0392246 -0.0391227 -0.0390207 -0.0389187 -0.0388169 -0.0380765 -0.0373366 -0.0365972 -0.0358583 -0.0351152 -0.0342178 -0.0333606 -0.0325042 -0.0316487 -0.0307883 -0.0298745 -0.0289645 -0.028095 -0.0272265 -0.0263501 -0.0254193 -0.0244914 -0.0235656 -0.022683 -0.0217925 -0.0208492 -0.0199072 -0.0189665 -0.0180271 -0.0171187 -0.0162456 -0.0153752 -0.014506 -0.0136381 -0.0127955 -0.0127023 -0.0126091 -0.012516 -0.0124236 -0.0123331 -0.0113633 -0.0104006 -0.00943969 -0.00848043 -0.00750658 -0.00647752 -0.00549061 -0.00451544 -0.00354212 -0.00255318 -0.00150975 -0.000468792 0.000537691 0.00152578 0.00253364 0.0035945 0.00465127 0.00570555 0.00673328 0.00775716 0.00883267 0.0099055 0.0109756 0.0120431 0.0131222 0.0133878 0.0136518 0.0139157 0.0141793 0.0144389 0.0152651 0.0160881 0.0169095 0.0177291 0.0185643 0.0197191 0.0208205 0.0219187 0.0230138 0.0241422 0.0253197 0.026492 0.0276222 0.0287348 0.0298828 0.031078 0.0322695 0.033457 0.0346225 0.0357943 0.0369563 0.0381131 0.0392659 0.0404149 0.0415141 0.0415873 0.0416604 0.0417336 0.0418065 0.0418771 0.0431118 0.0443365 0.0455566 0.0467722 0.0480377 0.049348 0.0506297 0.0518715 0.0531086 0.0543988 0.0557314 0.0570581 0.0583791 0.0596539 0.0609736 0.0623312 0.0636808 0.0650246 0.0663625 0.0677647 0.0677726 0.0677804 0.0677883 0.0677962 0.067804 0.0691681 0.0705261 0.0718779 0.0732237 0.07464 0.0761098 0.0775621 0.0789555 0.0803427 0.0818059 0.0833188 0.0848249 0.0863235 0.0878085 0.0893236 0.0901642 0.091001 0.0918355 0.0926678 0.0934822 0.0942061 0.0949247 0.0956416 0.0963568 0.0970886 0.0987262 0.100289 0.101842 0.103386 0.105027 0.106717 0.108396 0.110065 0.111688 0.113386 0.114533 0.115678 0.116818 0.117955 0.119071 0.11974 0.120409 0.121077 0.121743 0.122428 0.124369 0.126224 0.128069 0.129903 0.131864 0.133839 0.135795 0.137736 0.139656 0.1417 0.142098 0.142497 0.142895 0.143292 0.143688 0.14597 0.148228 0.150467 0.152686 0.155236 0.155566 0.155891 0.156215 0.156538 0.156855 0.159199 0.161496 0.163757 0.165984 0.168235 0.168308 0.168373 0.168433 0.168488 0.168539 0.170043 0.171488 0.172897 0.174273 0.175551 0.175787 0.175991 0.17619 0.176383 0.176562 0.176734 0.176863 0.17698 0.177086 0.177147 0.176406 0.175599 0.17476 0.173891 0.172945 0.172885 0.172797 0.172709 0.172608 0.172502 0.170674 0.1688 0.166906 0.164994 0.163072 0.160441 0.157769 0.155077 0.152366 0.149698 0.148928 0.148142 0.147354 0.146565 0.145696 0.14334 0.140965 0.138583 0.136196 0.133809 0.130442 0.127056 0.123656 0.120246 0.116848 0.113457 0.110054 0.106642 0.103219 0.099778 0.0975537 0.0953239 0.0930907 0.0908542 0.0880783 0.0870834 0.0860853 0.0850868 0.0840878 0.0830867 0.079902 0.0766952 0.0734837 0.0702675 0.0670554 0.0641419 0.0611892 0.0581989 0.0552045 0.0522116 0.0496025 0.0469886 0.044301 0.0415694 0.0388379 0.0365887 0.0343351 0.032078 0.0296468 0.0272057 0.0253682 0.0235277 0.0216838 0.0197231 0.0175926 0.0162136 0.0148322 0.0134473 0.0120591 0.0102672 0.00938101 0.00849354 0.00760256 0.00670822 0.00546804 0.00508612 0.00470266 0.00431563 0.00392517 0.00333363 0.00333646 0.00333295 0.003327 0.00331868 0.00330232 0.0032969 0.00329139 0.00328579 0.00328011 0.0032655 0.0033008 0.0032641 0.00322377 0.00317995 0.00310017 0.00260271 0.0018254 0.00104398 0.000258598 -0.00060449 -0.00315796 -0.0059831 -0.00881293 -0.0116473 -0.0146316 -0.0218618 -0.0289149 -0.0359727 -0.043035 -0.0503568 -0.0659617 -0.0804453 -0.0949316 -0.109421 -0.124307 -0.151993 -0.177576 -0.203056 -0.228536 -0.254533 -0.296396 -0.336074 -0.375282 -0.414488 -0.454273 -0.510116 -0.564354 -0.617907 -0.671465 -0.725567 -0.792363 -0.858611 -0.924333 -0.990073 -1.05623 -1.12886 -1.20198 -1.27545 -1.34894 -1.42266 -1.49592 -1.5698 -1.64616 -1.72253 -1.79894 -1.86975 -1.94048 -2.01562 -2.09157 -2.16744 -2.23319 -2.29873 -2.36704 -2.43895 -2.51066 -2.56431 -2.6175 -2.67082 -2.72986 -2.78845 -2.82345 -2.85802 -2.89263 -2.92936 -2.96679 -2.98863 -3.01047 -3.03237 -3.05423 -3.07592 -3.08826 -3.10043 -3.11265 -3.12459 -3.13478 -3.13891 -3.14309 -3.14732 -3.15152 -3.15495 -3.15642 -3.15787 -3.15935 -3.16086 -3.16242