# vtk DataFile Version 2.0
track0
ASCII
DATASET POLYDATA
POINTS 12135 float
-0.0205 0.001 1e-05
-0.0204884 0.0011 1e-05
-0.0204767 0.00119999 1e-05
-0.0204649 0.00129996 1e-05
-0.020453 0.00139992 1e-05
-0.0204409 0.0015 1e-05
-0.0204288 0.0016 1e-05
-0.0204164 0.00169998 1e-05
-0.020404 0.00179994 1e-05
-0.0203913 0.00189988 1e-05
-0.0203785 0.002 1e-05
-0.0203655 0.0021 1e-05
-0.0203524 0.00219998 1e-05
-0.020339 0.00229993 1e-05
-0.0203255 0.00239985 1e-05
-0.0203118 0.0025 1e-05
-0.0203065 0.0025379 1e-05
-0.0203012 0.0025758 1e-05
-0.0202959 0.00261369 1e-05
-0.0202905 0.00265158 1e-05
-0.0202854 0.00268732 1e-05
-0.0202764 0.00274986 1e-05
-0.0202674 0.00281238 1e-05
-0.0202583 0.00287489 1e-05
-0.0202491 0.00293739 1e-05
-0.0202397 0.003 1e-05
-0.0202247 0.0031 1e-05
-0.0202095 0.00319996 1e-05
-0.020194 0.00329989 1e-05
-0.0201783 0.00339978 1e-05
-0.0201623 0.0035 1e-05
-0.0201461 0.0036 1e-05
-0.0201296 0.00369996 1e-05
-0.0201129 0.00379988 1e-05
-0.0200959 0.00389975 1e-05
-0.0200786 0.004 1e-05
-0.0200674 0.00406428 1e-05
-0.020056 0.00412855 1e-05
-0.0200445 0.00419279 1e-05
-0.0200329 0.00425702 1e-05
-0.0200223 0.00431518 1e-05
-0.0200155 0.00435214 1e-05
-0.0200087 0.0043891 1e-05
-0.0200018 0.00442605 1e-05
-0.0199949 0.004463 1e-05
-0.019988 0.0045 1e-05
-0.0199691 0.0046 1e-05
-0.0199499 0.00469995 1e-05
-0.0199305 0.00479984 1e-05
-0.0199107 0.00489968 1e-05
-0.0198906 0.005 1e-05
-0.0198703 0.0051 1e-05
-0.0198496 0.00519994 1e-05
-0.0198287 0.00529982 1e-05
-0.0198075 0.00539964 1e-05
-0.0197859 0.0055 1e-05
-0.019781 0.00552245 1e-05
-0.0197761 0.00554489 1e-05
-0.0197711 0.00556734 1e-05
-0.0197662 0.00558977 1e-05
-0.0197614 0.00561154 1e-05
-0.0197441 0.00568923 1e-05
-0.0197267 0.00576688 1e-05
-0.0197091 0.00584449 1e-05
-0.0196913 0.00592207 1e-05
-0.0196733 0.006 1e-05
-0.0196498 0.0061 1e-05
-0.0196261 0.00619993 1e-05
-0.0196021 0.00629978 1e-05
-0.0195778 0.00639957 1e-05
-0.019553 0.0065 1e-05
-0.0195429 0.00654035 1e-05
-0.0195327 0.00658069 1e-05
-0.0195226 0.00662101 1e-05
-0.0195123 0.00666132 1e-05
-0.0195025 0.00669965 1e-05
-0.0194871 0.00675972 1e-05
-0.0194715 0.00681976 1e-05
-0.0194559 0.00687977 1e-05
-0.0194401 0.00693976 1e-05
-0.0194242 0.007 1e-05
-0.0193975 0.0071 1e-05
-0.0193705 0.00719992 1e-05
-0.0193432 0.00729974 1e-05
-0.0193156 0.00739949 1e-05
-0.0192874 0.0075 1e-05
-0.0192791 0.00752934 1e-05
-0.0192707 0.00755868 1e-05
-0.0192623 0.007588 1e-05
-0.0192539 0.00761732 1e-05
-0.0192457 0.00764567 1e-05
-0.0192253 0.00771654 1e-05
-0.0192046 0.00778736 1e-05
-0.0191838 0.00785813 1e-05
-0.0191629 0.00792885 1e-05
-0.0191416 0.008 1e-05
-0.0191115 0.00809993 1e-05
-0.0190811 0.00819977 1e-05
-0.0190503 0.0082995 1e-05
-0.0190192 0.00839914 1e-05
-0.018991 0.00848832 1e-05
-0.0189903 0.00849066 1e-05
-0.0189896 0.00849299 1e-05
-0.0189888 0.00849533 1e-05
-0.0189881 0.00849766 1e-05
-0.0189873 0.0085 1e-05
-0.0189554 0.0086 1e-05
-0.0189231 0.00869989 1e-05
-0.0188905 0.00879968 1e-05
-0.0188576 0.00889935 1e-05
-0.018824 0.009 1e-05
-0.0188068 0.00905066 1e-05
-0.0187896 0.00910129 1e-05
-0.0187724 0.00915189 1e-05
-0.018755 0.00920246 1e-05
-0.0187384 0.00925049 1e-05
-0.0187211 0.00930039 1e-05
-0.0187036 0.00935026 1e-05
-0.0186861 0.00940011 1e-05
-0.0186686 0.00944992 1e-05
-0.0186508 0.0095 1e-05
-0.0186182 0.00959136 1e-05
-0.0185853 0.00968262 1e-05
-0.0185521 0.00977378 1e-05
-0.0185187 0.00986483 1e-05
-0.0184878 0.00994805 1e-05
-0.0184839 0.00995844 1e-05
-0.01848 0.00996883 1e-05
-0.0184761 0.00997922 1e-05
-0.0184722 0.0099896 1e-05
-0.0184683 0.01 1e-05
-0.0184306 0.0101 1e-05
-0.0183927 0.0101999 1e-05
-0.0183543 0.0102996 1e-05
-0.0183156 0.0103992 1e-05
-0.0182761 0.0105 1e-05
-0.0182687 0.0105186 1e-05
-0.0182613 0.0105372 1e-05
-0.0182539 0.0105558 1e-05
-0.0182465 0.0105744 1e-05
-0.0182392 0.0105927 1e-05
-0.0182066 0.0106741 1e-05
-0.0181737 0.0107555 1e-05
-0.0181406 0.0108368 1e-05
-0.0181073 0.010918 1e-05
-0.0180734 0.011 1e-05
-0.0180572 0.0110387 1e-05
-0.018041 0.0110774 1e-05
-0.0180247 0.0111161 1e-05
-0.0180084 0.0111547 1e-05
-0.0179926 0.011192 1e-05
-0.0179664 0.0112536 1e-05
-0.01794 0.0113152 1e-05
-0.0179136 0.0113766 1e-05
-0.0178869 0.0114381 1e-05
-0.0178599 0.0115 1e-05
-0.0178375 0.011551 1e-05
-0.0178151 0.011602 1e-05
-0.0177925 0.011653 1e-05
-0.0177698 0.0117039 1e-05
-0.017748 0.0117526 1e-05
-0.0177257 0.0118021 1e-05
-0.0177034 0.0118515 1e-05
-0.0176809 0.0119009 1e-05
-0.0176584 0.0119503 1e-05
-0.0176356 0.012 1e-05
-0.0176096 0.0120565 1e-05
-0.0175834 0.012113 1e-05
-0.0175571 0.0121694 1e-05
-0.0175307 0.0122258 1e-05
-0.0175053 0.0122796 1e-05
-0.0174845 0.0123237 1e-05
-0.0174635 0.0123677 1e-05
-0.0174425 0.0124117 1e-05
-0.0174214 0.0124557 1e-05
-0.0174001 0.0125 1e-05
-0.017373 0.012556 1e-05
-0.0173458 0.0126119 1e-05
-0.0173185 0.0126678 1e-05
-0.017291 0.0127236 1e-05
-0.0172647 0.012777 1e-05
-0.0172425 0.0128216 1e-05
-0.0172203 0.0128661 1e-05
-0.017198 0.0129107 1e-05
-0.0171756 0.0129552 1e-05
-0.0171529 0.013 1e-05
-0.0171275 0.0130501 1e-05
-0.017102 0.0131001 1e-05
-0.0170764 0.0131501 1e-05
-0.0170507 0.0132 1e-05
-0.0170259 0.013248 1e-05
-0.0169997 0.0132984 1e-05
-0.0169735 0.0133487 1e-05
-0.0169471 0.013399 1e-05
-0.0169206 0.0134493 1e-05
-0.0168938 0.0135 1e-05
-0.0168728 0.0135394 1e-05
-0.0168518 0.0135787 1e-05
-0.0168308 0.013618 1e-05
-0.0168097 0.0136573 1e-05
-0.0167891 0.0136954 1e-05
-0.0167561 0.0137563 1e-05
-0.016723 0.0138171 1e-05
-0.0166897 0.0138779 1e-05
-0.0166562 0.0139386 1e-05
-0.0166222 0.014 1e-05
-0.0166086 0.0140244 1e-05
-0.016595 0.0140488 1e-05
-0.0165813 0.0140732 1e-05
-0.0165677 0.0140976 1e-05
-0.0165542 0.0141215 1e-05
-0.0165115 0.0141972 1e-05
-0.0164686 0.0142728 1e-05
-0.0164255 0.0143482 1e-05
-0.0163822 0.0144235 1e-05
-0.0163379 0.0145 1e-05
-0.0163345 0.0145057 1e-05
-0.0163312 0.0145115 1e-05
-0.0163279 0.0145172 1e-05
-0.0163245 0.0145229 1e-05
-0.0163212 0.0145286 1e-05
-0.0162749 0.0146076 1e-05
-0.0162285 0.0146865 1e-05
-0.0161817 0.0147652 1e-05
-0.0161348 0.0148438 1e-05
-0.01609 0.0149181 1e-05
-0.0160801 0.0149345 1e-05
-0.0160701 0.0149508 1e-05
-0.0160602 0.0149672 1e-05
-0.0160502 0.0149836 1e-05
-0.0160402 0.015 1e-05
-0.0160043 0.0150588 1e-05
-0.0159683 0.0151174 1e-05
-0.0159321 0.015176 1e-05
-0.0158958 0.0152345 1e-05
-0.0158607 0.0152907 1e-05
-0.0158345 0.0153326 1e-05
-0.0158082 0.0153744 1e-05
-0.0157818 0.0154161 1e-05
-0.0157553 0.0154579 1e-05
-0.0157285 0.0155 1e-05
-0.0157094 0.0155298 1e-05
-0.0156904 0.0155595 1e-05
-0.0156713 0.0155893 1e-05
-0.0156521 0.015619 1e-05
-0.0156333 0.0156481 1e-05
-0.0155882 0.0157177 1e-05
-0.0155429 0.0157873 1e-05
-0.0154974 0.0158567 1e-05
-0.0154516 0.0159259 1e-05
-0.0154077 0.0159921 1e-05
-0.0154066 0.0159936 1e-05
-0.0154056 0.0159952 1e-05
-0.0154045 0.0159968 1e-05
-0.0154035 0.0159984 1e-05
-0.0154024 0.016 1e-05
-0.0153587 0.0160654 1e-05
-0.0153148 0.0161306 1e-05
-0.0152708 0.0161957 1e-05
-0.0152266 0.0162607 1e-05
-0.0151839 0.016323 1e-05
-0.0151596 0.0163584 1e-05
-0.0151351 0.0163938 1e-05
-0.0151107 0.0164291 1e-05
-0.0150861 0.0164644 1e-05
-0.0150613 0.0165 1e-05
-0.0150414 0.0165284 1e-05
-0.0150215 0.0165568 1e-05
-0.0150016 0.0165852 1e-05
-0.0149816 0.0166136 1e-05
-0.0149619 0.0166414 1e-05
-0.0149179 0.0167036 1e-05
-0.0148737 0.0167657 1e-05
-0.0148293 0.0168276 1e-05
-0.0147848 0.0168895 1e-05
-0.0147417 0.016949 1e-05
-0.0147343 0.0169592 1e-05
-0.0147269 0.0169694 1e-05
-0.0147194 0.0169796 1e-05
-0.014712 0.0169898 1e-05
-0.0147045 0.017 1e-05
-0.0146683 0.0170496 1e-05
-0.0146319 0.0170991 1e-05
-0.0145955 0.0171485 1e-05
-0.0145589 0.0171978 1e-05
-0.0145233 0.0172457 1e-05
-0.0144853 0.0172966 1e-05
-0.0144472 0.0173473 1e-05
-0.014409 0.017398 1e-05
-0.0143707 0.0174486 1e-05
-0.0143316 0.0175 1e-05
-0.0143266 0.0175065 1e-05
-0.0143216 0.017513 1e-05
-0.0143166 0.0175196 1e-05
-0.0143116 0.0175261 1e-05
-0.0143067 0.0175326 1e-05
-0.0142637 0.0175886 1e-05
-0.0142206 0.0176446 1e-05
-0.0141773 0.0177005 1e-05
-0.0141339 0.0177563 1e-05
-0.0140917 0.0178102 1e-05
-0.0140619 0.0178482 1e-05
-0.0140321 0.0178861 1e-05
-0.0140021 0.0179239 1e-05
-0.0139721 0.0179618 1e-05
-0.0139417 0.018 1e-05
-0.0139291 0.0180158 1e-05
-0.0139164 0.0180316 1e-05
-0.0139038 0.0180474 1e-05
-0.0138911 0.0180632 1e-05
-0.0138786 0.0180788 1e-05
-0.0138363 0.0181314 1e-05
-0.0137939 0.0181839 1e-05
-0.0137513 0.0182363 1e-05
-0.0137087 0.0182886 1e-05
-0.0136671 0.0183393 1e-05
-0.0136406 0.0183714 1e-05
-0.0136142 0.0184035 1e-05
-0.0135876 0.0184356 1e-05
-0.013561 0.0184676 1e-05
-0.0135341 0.0185 1e-05
-0.0135187 0.0185184 1e-05
-0.0135034 0.0185368 1e-05
-0.013488 0.0185551 1e-05
-0.0134726 0.0185735 1e-05
-0.0134573 0.0185917 1e-05
-0.0134157 0.0186411 1e-05
-0.013374 0.0186905 1e-05
-0.0133322 0.0187398 1e-05
-0.0132902 0.018789 1e-05
-0.0132493 0.0188368 1e-05
-0.0132212 0.0188695 1e-05
-0.0131931 0.0189021 1e-05
-0.0131649 0.0189346 1e-05
-0.0131368 0.0189671 1e-05
-0.0131082 0.019 1e-05
-0.0130951 0.019015 1e-05
-0.013082 0.0190299 1e-05
-0.013069 0.0190449 1e-05
-0.0130559 0.0190599 1e-05
-0.0130429 0.0190747 1e-05
-0.0130019 0.0191213 1e-05
-0.0129609 0.0191679 1e-05
-0.0129197 0.0192144 1e-05
-0.0128785 0.0192608 1e-05
-0.0128381 0.019306 1e-05
-0.0128034 0.0193448 1e-05
-0.0127686 0.0193836 1e-05
-0.0127337 0.0194222 1e-05
-0.0126987 0.0194609 1e-05
-0.0126632 0.0195 1e-05
-0.0126576 0.0195062 1e-05
-0.0126519 0.0195124 1e-05
-0.0126463 0.0195185 1e-05
-0.0126407 0.0195247 1e-05
-0.012635 0.0195309 1e-05
-0.0125947 0.019575 1e-05
-0.0125544 0.019619 1e-05
-0.0125139 0.0196629 1e-05
-0.0124734 0.0197068 1e-05
-0.0124336 0.0197497 1e-05
-0.0123936 0.0197926 1e-05
-0.0123536 0.0198355 1e-05
-0.0123134 0.0198782 1e-05
-0.0122732 0.0199209 1e-05
-0.0122338 0.0199627 1e-05
-0.0122267 0.0199702 1e-05
-0.0122196 0.0199776 1e-05
-0.0122125 0.0199851 1e-05
-0.0122054 0.0199925 1e-05
-0.0121983 0.02 1e-05
-0.0121658 0.0200342 1e-05
[...]
POINT_DATA 12135
 FIELD attributes 1
U 3 12135 float
-0.0319238 	-0.275914 	0 -0.0322514 	-0.275888 	0 -0.0325799 	-0.27586 	0 -0.0329077 	-0.275832 	0 -0.0332354 	-0.275803 	0 -0.0335664 	-0.275773 	0 -0.0339982 	-0.27574 	0 -0.0344323 	-0.275706 	0 -0.0348653 	-0.27567 	0 -0.035296 	-0.275633 	0 -0.0357298 	-0.275594 	0 -0.0362481 	-0.275549 	0 -0.0367682 	-0.275502 	0 -0.0372882 	-0.275454 	0 -0.0378079 	-0.275406 	0 -0.0383284 	-0.275355 	0 -0.0385507 	-0.275333 	0 -0.0387746 	-0.27531 	0 -0.0389985 	-0.275287 	0 -0.0392223 	-0.275264 	0 -0.0394351 	-0.275242 	0 -0.0398035 	-0.275204 	0 -0.0401736 	-0.275166 	0 -0.0405435 	-0.275126 	0 -0.0409134 	-0.275087 	0 -0.0412856 	-0.275046 	0 -0.0419373 	-0.274974 	0 -0.042587 	-0.274899 	0 -0.0432357 	-0.274822 	0 -0.0438841 	-0.274744 	0 -0.044536 	-0.274665 	0 -0.0452338 	-0.274576 	0 -0.0459325 	-0.274486 	0 -0.0466308 	-0.274395 	0 -0.0473266 	-0.274301 	0 -0.0480246 	-0.274205 	0 -0.0484965 	-0.274138 	0 -0.0489691 	-0.27407 	0 -0.0494416 	-0.274001 	0 -0.0499139 	-0.273931 	0 -0.0503426 	-0.273868 	0 -0.0506142 	-0.273827 	0 -0.0508867 	-0.273787 	0 -0.0511591 	-0.273746 	0 -0.0514314 	-0.273705 	0 -0.0517051 	-0.273663 	0 -0.0524741 	-0.273542 	0 -0.0532399 	-0.273419 	0 -0.0540054 	-0.273294 	0 -0.0547705 	-0.273167 	0 -0.05554 	-0.273039 	0 -0.0563323 	-0.272901 	0 -0.0571247 	-0.272761 	0 -0.0579167 	-0.27262 	0 -0.0587083 	-0.272478 	0 -0.0595022 	-0.272332 	0 -0.0596839 	-0.272298 	0 -0.0598661 	-0.272263 	0 -0.0600482 	-0.272228 	0 -0.0602303 	-0.272193 	0 -0.0604073 	-0.272158 	0 -0.0610389 	-0.272037 	0 -0.0616706 	-0.271914 	0 -0.0623021 	-0.271791 	0 -0.0629334 	-0.271666 	0 -0.0635682 	-0.27154 	0 -0.0643996 	-0.271369 	0 -0.065231 	-0.271197 	0 -0.0660619 	-0.271023 	0 -0.0668899 	-0.270847 	0 -0.0677234 	-0.270667 	0 -0.068064 	-0.270592 	0 -0.0684048 	-0.270516 	0 -0.0687455 	-0.270439 	0 -0.0690862 	-0.270363 	0 -0.0694104 	-0.270289 	0 -0.069919 	-0.270175 	0 -0.0704278 	-0.27006 	0 -0.0709364 	-0.269944 	0 -0.0714449 	-0.269828 	0 -0.071956 	-0.26971 	0 -0.0728167 	-0.269507 	0 -0.0736771 	-0.269302 	0 -0.0745371 	-0.269096 	0 -0.0753947 	-0.268887 	0 -0.0762588 	-0.268675 	0 -0.0765143 	-0.26861 	0 -0.07677 	-0.268545 	0 -0.0770256 	-0.26848 	0 -0.0772812 	-0.268415 	0 -0.0775285 	-0.268352 	0 -0.0781477 	-0.268195 	0 -0.0787668 	-0.268037 	0 -0.0793856 	-0.267878 	0 -0.0800042 	-0.267718 	0 -0.0806269 	-0.267556 	0 -0.0815119 	-0.267321 	0 -0.0823965 	-0.267084 	0 -0.0832806 	-0.266846 	0 -0.0841641 	-0.266607 	0 -0.0849554 	-0.266391 	0 -0.0849761 	-0.266385 	0 -0.0849968 	-0.266379 	0 -0.0850175 	-0.266374 	0 -0.0850384 	-0.266368 	0 -0.0850593 	-0.266362 	0 -0.0859572 	-0.266111 	0 -0.0868544 	-0.265858 	0 -0.0877511 	-0.265604 	0 -0.0886471 	-0.265348 	0 -0.0895525 	-0.265088 	0 -0.090013 	-0.264953 	0 -0.0904735 	-0.264817 	0 -0.0909339 	-0.264681 	0 -0.0913941 	-0.264545 	0 -0.0918315 	-0.264415 	0 -0.0922868 	-0.26428 	0 -0.0927421 	-0.264145 	0 -0.0931973 	-0.264009 	0 -0.0936523 	-0.263873 	0 -0.0941101 	-0.263736 	0 -0.0949535 	-0.263479 	0 -0.0957965 	-0.26322 	0 -0.0966389 	-0.262961 	0 -0.0974807 	-0.2627 	0 -0.0982506 	-0.26246 	0 -0.0983468 	-0.26243 	0 -0.0984432 	-0.2624 	0 -0.0985395 	-0.26237 	0 -0.0986359 	-0.26234 	0 -0.0987326 	-0.26231 	0 -0.0996698 	-0.262014 	0 -0.100606 	-0.261716 	0 -0.101541 	-0.261417 	0 -0.102475 	-0.261116 	0 -0.103421 	-0.260809 	0 -0.103597 	-0.260751 	0 -0.103773 	-0.260693 	0 -0.10395 	-0.260635 	0 -0.104126 	-0.260576 	0 -0.1043 	-0.260519 	0 -0.105074 	-0.260264 	0 -0.105849 	-0.260009 	0 -0.106623 	-0.259752 	0 -0.107396 	-0.259494 	0 -0.108178 	-0.259232 	0 -0.10855 	-0.259106 	0 -0.108923 	-0.25898 	0 -0.109296 	-0.258853 	0 -0.109668 	-0.258726 	0 -0.110028 	-0.258603 	0 -0.110624 	-0.2584 	0 -0.111219 	-0.258197 	0 -0.111813 	-0.257994 	0 -0.112408 	-0.25779 	0 -0.113008 	-0.257583 	0 -0.113507 	-0.257409 	0 -0.114006 	-0.257235 	0 -0.114505 	-0.25706 	0 -0.115003 	-0.256885 	0 -0.115481 	-0.256717 	0 -0.115967 	-0.256547 	0 -0.116452 	-0.256377 	0 -0.116938 	-0.256206 	0 -0.117423 	-0.256035 	0 -0.117913 	-0.255862 	0 -0.118474 	-0.255661 	0 -0.119036 	-0.25546 	0 -0.119597 	-0.255259 	0 -0.120158 	-0.255057 	0 -0.120694 	-0.254864 	0 -0.121134 	-0.254706 	0 -0.121574 	-0.254548 	0 -0.122014 	-0.254389 	0 -0.122453 	-0.254231 	0 -0.122896 	-0.25407 	0 -0.123461 	-0.253864 	0 -0.124027 	-0.253657 	0 -0.124591 	-0.25345 	0 -0.125156 	-0.253243 	0 -0.125696 	-0.253043 	0 -0.126148 	-0.252878 	0 -0.126601 	-0.252711 	0 -0.127053 	-0.252545 	0 -0.127505 	-0.252378 	0 -0.127961 	-0.25221 	0 -0.128475 	-0.252019 	0 -0.128988 	-0.251827 	0 -0.129502 	-0.251635 	0 -0.130015 	-0.251443 	0 -0.130509 	-0.251257 	0 -0.131029 	-0.251063 	0 -0.131548 	-0.250869 	0 -0.132067 	-0.250674 	0 -0.132586 	-0.250479 	0 -0.13311 	-0.250282 	0 -0.133521 	-0.250126 	0 -0.133932 	-0.24997 	0 -0.134342 	-0.249814 	0 -0.134753 	-0.249658 	0 -0.135151 	-0.249506 	0 -0.13579 	-0.249264 	0 -0.136428 	-0.249022 	0 -0.137066 	-0.248779 	0 -0.137704 	-0.248536 	0 -0.138349 	-0.248289 	0 -0.138608 	-0.248189 	0 -0.138867 	-0.248089 	0 -0.139126 	-0.247989 	0 -0.139385 	-0.247889 	0 -0.13964 	-0.247791 	0 -0.140446 	-0.247482 	0 -0.141253 	-0.247172 	0 -0.142058 	-0.246861 	0 -0.142862 	-0.24655 	0 -0.14368 	-0.246232 	0 -0.143741 	-0.246208 	0 -0.143803 	-0.246184 	0 -0.143865 	-0.24616 	0 -0.143927 	-0.246136 	0 -0.143989 	-0.246112 	0 -0.144845 	-0.245781 	0 -0.1457 	-0.245448 	0 -0.146553 	-0.245114 	0 -0.147406 	-0.24478 	0 -0.148212 	-0.244462 	0 -0.14839 	-0.244392 	0 -0.148569 	-0.244323 	0 -0.148747 	-0.244253 	0 -0.148926 	-0.244183 	0 -0.149105 	-0.244113 	0 -0.149752 	-0.243859 	0 -0.150398 	-0.243604 	0 -0.151045 	-0.243349 	0 -0.15169 	-0.243094 	0 -0.15231 	-0.242847 	0 -0.152774 	-0.242665 	0 -0.153237 	-0.242483 	0 -0.1537 	-0.2423 	0 -0.154162 	-0.242117 	0 -0.15463 	-0.241932 	0 -0.154964 	-0.2418 	0 -0.155297 	-0.241667 	0 -0.155631 	-0.241535 	0 -0.155965 	-0.241402 	0 -0.156292 	-0.241271 	0 -0.157076 	-0.240962 	0 -0.157859 	-0.240652 	0 -0.158642 	-0.240342 	0 -0.159424 	-0.240031 	0 -0.16017 	-0.239732 	0 -0.160188 	-0.239725 	0 -0.160206 	-0.239718 	0 -0.160224 	-0.239711 	0 -0.160242 	-0.239703 	0 -0.16026 	-0.239696 	0 -0.161007 	-0.239399 	0 -0.161753 	-0.239101 	0 -0.162499 	-0.238803 	0 -0.163243 	-0.238504 	0 -0.163958 	-0.238216 	0 -0.164364 	-0.238054 	0 -0.164771 	-0.237892 	0 -0.165178 	-0.237729 	0 -0.165584 	-0.237567 	0 -0.165995 	-0.237402 	0 -0.166326 	-0.23727 	0 -0.166657 	-0.237137 	0 -0.166987 	-0.237004 	0 -0.167318 	-0.236871 	0 -0.167643 	-0.23674 	0 -0.16837 	-0.236451 	0 -0.169097 	-0.236162 	0 -0.169823 	-0.235872 	0 -0.170547 	-0.235581 	0 -0.171243 	-0.235298 	0 -0.171363 	-0.23525 	0 -0.171483 	-0.235202 	0 -0.171603 	-0.235154 	0 -0.171722 	-0.235106 	0 -0.171843 	-0.235058 	0 -0.172431 	-0.234822 	0 -0.17302 	-0.234585 	0 -0.173607 	-0.234349 	0 -0.174194 	-0.234112 	0 -0.174765 	-0.233881 	0 -0.175372 	-0.233639 	0 -0.175978 	-0.233397 	0 -0.176585 	-0.233154 	0 -0.17719 	-0.232911 	0 -0.177805 	-0.232664 	0 -0.177884 	-0.232632 	0 -0.177963 	-0.2326 	0 -0.178042 	-0.232569 	0 -0.178121 	-0.232537 	0 -0.178199 	-0.232505 	0 -0.17888 	-0.232235 	0 -0.179559 	-0.231962 	0 -0.180237 	-0.231689 	0 -0.180914 	-0.231415 	0 -0.18157 	-0.23115 	0 -0.182032 	-0.230965 	0 -0.182494 	-0.230781 	0 -0.182956 	-0.230596 	0 -0.183417 	-0.230411 	0 -0.183884 	-0.230223 	0 -0.184079 	-0.230145 	0 -0.184275 	-0.230067 	0 -0.18447 	-0.229988 	0 -0.184665 	-0.22991 	0 -0.184859 	-0.229832 	0 -0.185511 	-0.229575 	0 -0.186162 	-0.229316 	0 -0.18681 	-0.229055 	0 -0.187458 	-0.228794 	0 -0.188087 	-0.228539 	0 -0.188486 	-0.22838 	0 -0.188885 	-0.228221 	0 -0.189284 	-0.228062 	0 -0.189683 	-0.227903 	0 -0.190086 	-0.227742 	0 -0.190318 	-0.227649 	0 -0.19055 	-0.227557 	0 -0.190781 	-0.227464 	0 -0.191013 	-0.227371 	0 -0.191243 	-0.227279 	0 -0.191868 	-0.227034 	0 -0.192493 	-0.226787 	0 -0.193115 	-0.226538 	0 -0.193737 	-0.226288 	0 -0.194342 	-0.226044 	0 -0.194756 	-0.225881 	0 -0.195169 	-0.225717 	0 -0.195582 	-0.225553 	0 -0.195995 	-0.225389 	0 -0.196413 	-0.225223 	0 -0.196605 	-0.225147 	0 -0.196798 	-0.22507 	0 -0.19699 	-0.224994 	0 -0.197183 	-0.224918 	0 -0.197374 	-0.224841 	0 -0.197976 	-0.224607 	0 -0.198576 	-0.224371 	0 -0.199175 	-0.224132 	0 -0.199773 	-0.223894 	0 -0.200356 	-0.22366 	0 -0.200857 	-0.223464 	0 -0.201358 	-0.223267 	0 -0.201859 	-0.223071 	0 -0.202359 	-0.222874 	0 -0.202866 	-0.222674 	0 -0.202947 	-0.222642 	0 -0.203028 	-0.22261 	0 -0.203109 	-0.222578 	0 -0.20319 	-0.222546 	0 -0.203272 	-0.222514 	0 -0.203851 	-0.222289 	0 -0.204429 	-0.222062 	0 -0.205006 	-0.221835 	0 -0.205582 	-0.221607 	0 -0.206146 	-0.221384 	0 -0.206712 	-0.221165 	0 -0.207277 	-0.220946 	0 -0.207841 	-0.220727 	0 -0.208405 	-0.220507 	0 -0.208956 	-0.220289 	0 -0.209053 	-0.220251 	0 -0.209152 	-0.220213 	0 -0.20925 	-0.220174 	0 -0.209348 	-0.220136 	0 -0.209447 	-0.220098 	0 -0.209905 	-0.21992 	0 -0.210362 	-0.219742 	0 -0.210819 	-0.219564 	0 -0.211275 	-0.219386 	0 -0.211725 	-0.219211 	0 -0.212272 	-0.219003 	0 -0.212818 	-0.218794 	0 -0.213364 	-0.218585 	0 -0.213906 	-0.218372 	0 -0.214439 	-0.218162 	0 -0.214782 	-0.218031 	0 -0.215125 	-0.217899 	0 -0.215468 	-0.217767 	0 -0.21581 	-0.217635 	0 -0.216157 	-0.217501 	0 -0.216346 	-0.217429 	0 -0.216535 	-0.217356 	0 -0.216724 	-0.217284 	0 -0.216913 	-0.217211 	0 -0.217102 	-0.217139 	0 -0.217632 	-0.216941 	0 -0.218159 	-0.216739 	0 -0.218685 	-0.216536 	0 -0.219211 	-0.216333 	0 -0.219728 	-0.216133 	0 -0.220244 	-0.215939 	0 -0.220761 	-0.215745 	0 -0.221277 	-0.21555 	0 -0.221792 	-0.215355 	0 -0.222296 	-0.215159 	0 -0.222436 	-0.215106 	0 -0.222575 	-0.215053 	0 -0.222715 	-0.215 	0 -0.222855 	-0.214947 	0 -0.222995 	-0.214894 	0 -0.223364 	-0.214755 	0 -0.223732 	-0.214616 	0 -0.2241 	-0.214477 	0 -0.224467 	-0.214338 	0 -0.224831 	-0.2142 	0 -0.225333 	-0.214016 	0 -0.225834 	-0.213832 	0 -0.226333 	-0.213642 	0 -0.22683 	-0.213452 	0 -0.227321 	-0.213265 	0 -0.22781 	-0.213084 	0 -0.228299 	-0.212902 	0 -0.228788 	-0.212721 	0 -0.229276 	-0.212539 	0 -0.229757 	-0.212359 	0 -0.229797 	-0.212344 	0 -0.229838 	-0.212328 	0 -0.229879 	-0.212313 	0 -0.229919 	-0.212298 	0 -0.229961 	-0.212283 	0 -0.230404 	-0.212118 	0 -0.230848 	-0.211954 	0 -0.231291 	-0.211789 	0 -0.231733 	-0.211625 	0 -0.23217 	-0.211462 	0 -0.232647 	-0.211291 	0 -0.233123 	-0.211119 	0 -0.233597 	-0.210944 	0 -0.234069 	-0.210767 	0 -0.234536 	-0.210591 	0 -0.235 	-0.210423 	0 -0.235465 	-0.210254 	0 -0.23593 	-0.210085 	0 -0.236393 	-0.209916 	0 -0.236851 	-0.209747 	0 -0.236889 	-0.209733 	0 -0.236928 	-0.209719 	0 -0.236967 	-0.209705 	0 -0.237006 	-0.20969 	0 -0.237046 	-0.209676 	0 -0.237467 	-0.209523 	0 -0.237889 	-0.20937 	0 -0.23831 	-0.209217 	0 -0.23873 	-0.209064 	0 -0.239147 	-0.208912 	0 -0.2396 	-0.208753 	0 -0.240053 	-0.208594 	0 -0.240504 	-0.208429 	0 -0.240953 	-0.208264 	0 -0.241397 	-0.2081 	0 -0.24184 	-0.207944 	0 -0.242282 	-0.207787 	0 -0.242724 	-0.20763 	0 -0.243166 	-0.207473 	0 -0.243601 	-0.207314 	0 -0.243728 	-0.207268 	0 -0.243857 	-0.207222 	0 -0.243985 	-0.207176 	0 -0.244114 	-0.20713 	0 -0.244243 	-0.207084 	0 -0.244551 	-0.206974 	0 -0.244859 	-0.206865 	0 -0.245167 	-0.206756 	0 -0.245475 	-0.206647 	0 -0.24578 	-0.206538 	0 -0.246213 	-0.206391 	0 -0.246644 	-0.206241 	0 -0.247073 	-0.206087 	0 -0.247501 	-0.205934 	0 -0.247925 	-0.205781 	0 -0.248347 	-0.205637 	0 -0.24877 	-0.205492 	0 -0.249191 	-0.205346 	0 -0.249611 	-0.205198 	0 -0.250025 	-0.205048 	0 -0.250328 	-0.204942 	0 -0.250632 	-0.204837 	0 -0.250935 	-0.204731 	0 -0.251237 	-0.204626 	0 -0.251544 	-0.204519 	0 -0.251652 	-0.204482 	0 -0.251761 	-0.204444 	0 -0.25187 	-0.204407 	0 -0.251979 	-0.204369 	0 -0.252089 	-0.204332 	0 -0.252501 	-0.204193 	0 -0.252911 	-0.204051 	0 -0.253321 	-0.203909 	0 -0.25373 	-0.203766 	0 -0.254136 	-0.203625 	0 -0.254539 	-0.203492 	0 -0.254943 	-0.203359 	0 -0.255344 	-0.203221 	0 -0.255744 	-0.20308 	0 -0.25614 	-0.202941 	0 -0.256534 	-0.202809 	0 -0.256927 	-0.202677 	0 -0.257321 	-0.202545 	0 -0.257714 	-0.202413 	0 -0.258101 	-0.202277 	0 -0.258266 	-0.202221 	0 -0.258432 	-0.202165 	0 -0.258598 	-0.202109 	0 -0.258763 	-0.202052 	0 -0.25893 	-0.201996 	0 -0.259152 	-0.201922 	0 -0.259375 	-0.201847 	0 -0.259597 	-0.201773 	0 -0.259819 	-0.201699 	0 -0.260041 	-0.201625 	0 -0.260427 	-0.201503 	0 -0.26081 	-0.201374 	0 -0.261193 	-0.201245 	0 -0.261576 	-0.201115 	0 -0.261955 	-0.200987 	0 -0.262332 	-0.200867 	0 -0.262709 	-0.200747 	0 -0.263085 	-0.200624 	0 -0.263458 	-0.200496 	0 -0.263829 	-0.200369 	0 -0.264197 	-0.20025 	0 -0.264565 	-0.200132 	0 -0.264932 	-0.200013 	0 -0.2653 	-0.199894 	0 -0.265663 	-0.199771 	0 -0.265805 	-0.199724 	0 -0.265949 	-0.199677 	0 -0.266093 	-0.199631 	0 -0.266236 	-0.199584 	0 -0.266381 	-0.199537 	0 -0.2666 	-0.199466 	0 -0.26682 	-0.199396 	0 -0.26704 	-0.199325 	0 -0.267259 	-0.199255 	0 -0.267478 	-0.199185 	0 -0.267839 	-0.199076 	0 -0.268198 	-0.198961 	0 -0.268557 	-0.198845 	0 -0.268915 	-0.198728 	0 -0.269271 	-0.198613 	0 -0.269623 	-0.198507 	0 -0.269976 	-0.198401 	0 -0.270327 	-0.19829 	0 -0.270677 	-0.198176 	0 -0.271024 	-0.198062 	0 -0.271368 	-0.197958 	0 -0.271713 	-0.197853 	0 -0.272056 	-0.197748 	0 -0.2724 	-0.197644 	0 -0.272739 	-0.197532 	0 -0.272964 	-0.197463 	0 -0.273189 	-0.197394 	0 -0.273414 	-0.197325 	0 -0.273639 	-0.197256 	0 -0.273866 	-0.197187 	0 -0.273978 	-0.197153 	0 -0.27409 	-0.197119 	0 -0.274203 	-0.197085 	0 -0.274315 	-0.197052 	0 -0.274429 	-0.197018 	0 -0.274766 	-0.196921 	0 -0.275102 	-0.196821 	0 -0.275438 	-0.19672 	0 -0.275773 	-0.196619 	0 -0.276108 	-0.196519 	0 -0.276438 	-0.196429 	0 -0.276768 	-0.196338 	0 -0.277096 	-0.19624 	0 -0.277423 	-0.196142 	0 -0.277749 	-0.196044 	0 -0.278071 	-0.195956 	0 -0.278394 	-0.195869 	0 -0.278716 	-0.195782 	0 -0.279036 	-0.195689 	0 -0.279354 	-0.195593 	0 -0.279668 	-0.195509 	0 -0.279982 	-0.195425 	0 -0.280296 	-0.195341 	0 -0.28061 	-0.195257 	0 -0.280922 	-0.19517 	0 -0.281005 	-0.195148 	0 -0.281089 	-0.195126 	0 -0.281173 	-0.195103 	0 -0.281258 	-0.195081 	0 -0.281343 	-0.195059 	0 -0.28157 	-0.195001 	0 -0.281799 	-0.194943 	0 -0.282027 	-0.194884 	0 -0.282255 	-0.194826 	0 -0.282484 	-0.194768 	0 -0.282793 	-0.194701 	0 -0.2831 	-0.194625 	0 -0.283408 	-0.194548 	0 -0.283715 	-0.194472 	0 -0.284021 	-0.194396 	0 -0.284322 	-0.194334 	0 -0.284624 	-0.194272 	0 -0.284925 	-0.194203 	0 -0.285224 	-0.194132 	0 -0.285523 	-0.194061 	0 -0.285817 	-0.194005 	0 -0.286111 	-0.193949 	0 -0.286405 	-0.193892 	0 -0.286698 	-0.193831 	0 -0.28699 	-0.193766 	0 -0.287276 	-0.193717 	0 -0.287563 	-0.193667 	0 -0.28785 	-0.193618 	0 -0.288136 	-0.193568 	0 -0.288422 	-0.193516 	0 -0.288487 	-0.193506 	0 -0.288552 	-0.193497 	0 -0.288618 	-0.193487 	0 -0.288684 	-0.193477 	0 -0.288751 	-0.193468 	0 -0.28897 	-0.193436 	0 -0.289191 	-0.193405 	0 -0.289411 	-0.193374 	0 -0.289631 	-0.193343 	0 -0.289851 	-0.193313 	0 -0.290133 	-0.193291 	0 -0.290415 	-0.193259 	0 -0.290696 	-0.193228 	0 -0.290976 	-0.193197 	0 -0.291257 	-0.193166 	0 -0.291532 	-0.193156 	0 -0.291807 	-0.193147 	0 -0.292081 	-0.193128 	0 -0.292355 	-0.193108 	0 -0.292629 	-0.193088 	0 -0.292896 	-0.193091 	0 -0.293165 	-0.193094 	0 -0.293433 	-0.193098 	0 -0.2937 	-0.193093 	0 -0.293967 	-0.193086 	0 -0.294227 	-0.193105 	0 -0.294489 	-0.193123 	0 -0.29475 	-0.193142 	0 -0.295011 	-0.193161 	0 -0.295271 	-0.193173 	0 -0.295415 	-0.193193 	0 -0.29556 	-0.193213 	0 -0.295705 	-0.193234 	0 -0.295849 	-0.193255 	0 -0.295995 	-0.193276 	0 -0.296108 	-0.193292 	0 -0.296221 	-0.193308 	0 -0.296334 	-0.193324 	0 -0.296448 	-0.193341 	0 -0.296562 	-0.193358 	0 -0.296818 	-0.193422 	0 -0.297075 	-0.19348 	0 -0.297332 	-0.193539 	0 -0.297588 	-0.193597 	0 -0.297845 	-0.193657 	0 -0.298095 	-0.193751 	0 -0.298346 	-0.19384 	0 -0.298596 	-0.193923 	0 -0.298846 	-0.194005 	0 -0.299096 	-0.194088 	0 -0.299339 	-0.194209 	0 -0.299584 	-0.194332 	0 -0.299827 	-0.194449 	0 -0.300071 	-0.194558 	0 -0.300315 	-0.194668 	0 -0.300551 	-0.194821 	0 -0.300789 	-0.194975 	0 -0.301026 	-0.195128 	0 -0.301264 	-0.195278 	0 -0.301502 	-0.195419 	0 -0.301732 	-0.195606 	0 -0.301963 	-0.195795 	0 -0.302194 	-0.195984 	0 -0.302425 	-0.196173 	0 -0.302657 	-0.19636 	0 -0.302711 	-0.196415 	0 -0.302766 	-0.19647 	0 -0.302821 	-0.196526 	0 -0.302876 	-0.196582 	0 -0.302931 	-0.196639 	0 -0.303107 	-0.196814 	0 -0.303284 	-0.196989 	0 -0.303461 	-0.197164 	0 -0.303638 	-0.19734 	0 -0.303817 	-0.197517 	0 -0.304043 	-0.197806 	0 -0.304271 	-0.198083 	0 -0.304499 	-0.19836 	0 -0.304727 	-0.198637 	0 -0.304957 	-0.198917 	0 -0.305177 	-0.199261 	0 -0.305399 	-0.199603 	0 -0.305621 	-0.199931 	0 -0.305843 	-0.200258 	0 -0.306067 	-0.200589 	0 -0.30628 	-0.20099 	0 -0.306495 	-0.201393 	0 -0.306711 	-0.201792 	0 -0.306927 	-0.202176 	0 -0.307146 	-0.202564 	0 -0.307353 	-0.203028 	0 -0.307562 	-0.203494 	0 -0.307772 	-0.20396 	0 -0.307982 	-0.204423 	0 -0.308195 	-0.204874 	0 -0.308396 	-0.205408 	0 -0.3086 	-0.205944 	0 -0.308803 	-0.20648 	0 -0.309007 	-0.207015 	0 -0.309214 	-0.207554 	0 -0.309237 	-0.207625 	0 -0.30926 	-0.207699 	0 -0.309284 	-0.207773 	0 -0.309308 	-0.207848 	0 -0.309333 	-0.207923 	0 -0.309513 	-0.208464 	0 -0.309696 	-0.209008 	0 -0.309879 	-0.209552 	0 -0.310062 	-0.210096 	0 -0.310248 	-0.210645 	0 -0.310446 	-0.211369 	0 -0.310647 	-0.212071 	0 -0.310849 	-0.212773 	0 -0.311052 	-0.213475 	0 -0.311258 	-0.214186 	0 -0.31145 	-0.215004 	0 -0.311644 	-0.215824 	0 -0.31184 	-0.216617 	0 -0.312038 	-0.21741 	0 -0.312239 	-0.218214 	0 -0.312425 	-0.219133 	0 -0.312613 	-0.220055 	0 -0.312802 	-0.220976 	0 -0.312994 	-0.221867 	0 -0.313191 	-0.222772 	0 -0.313371 	-0.223799 	0 -0.313553 	-0.224829 	0 -0.313737 	-0.225858 	0 -0.313921 	-0.226886 	0 -0.314113 	-0.227901 	0 -0.314271 	-0.22894 	0 -0.314432 	-0.229983 	0 -0.314594 	-0.231024 	0 -0.314757 	-0.232064 	0 -0.314917 	-0.23308 	0 -0.314935 	-0.233192 	0 -0.314954 	-0.233303 	0 -0.314972 	-0.233415 	0 -0.314991 	-0.233528 	0 -0.315011 	-0.233645 	0 -0.31519 	-0.234926 	0 -0.315372 	-0.236206 	0 -0.315555 	-0.237484 	0 -0.31574 	-0.238761 	0 -0.31593 	-0.240062 	0 -0.316099 	-0.24151 	0 -0.316275 	-0.242929 	0 -0.316453 	-0.244338 	0 -0.316633 	-0.245745 	0 -0.316819 	-0.247183 	0 -0.316982 	-0.248771 	0 -0.317149 	-0.250362 	0 -0.31732 	-0.251922 	0 -0.317495 	-0.253466 	0 -0.317677 	-0.255047 	0 -0.317835 	-0.256782 	0 -0.317996 	-0.25852 	0 -0.318158 	-0.260254 	0 -0.318326 	-0.261963 	0 -0.318503 	-0.263694 	0 -0.318655 	-0.265583 	0 -0.318811 	-0.267474 	0 -0.318968 	-0.26936 	0 -0.319127 	-0.271243 	0 -0.319296 	-0.273165 	0 -0.319331 	-0.273655 	0 -0.319367 	-0.274152 	0 -0.319403 	-0.274648 	0 -0.319439 	-0.275145 	0 -0.319476 	-0.275642 	0 -0.319598 	-0.277211 	0 -0.319722 	-0.278783 	0 -0.319848 	-0.280353 	0 -0.319975 	-0.28192 	0 -0.320107 	-0.283526 	0 -0.320252 	-0.285813 	0 -0.320408 	-0.288048 	0 -0.320567 	-0.290277 	0 -0.320727 	-0.2925 	0 -0.320897 	-0.294798 	0 -0.321035 	-0.297261 	0 -0.321177 	-0.299723 	0 -0.321328 	-0.302137 	0 -0.321484 	-0.304528 	0 -0.321649 	-0.307005 	0 -0.321781 	-0.309645 	0 -0.321917 	-0.312284 	0 -0.322056 	-0.314914 	0 -0.322201 	-0.317516 	0 -0.322361 	-0.320177 	0 -0.322482 	-0.32287 	0 -0.322606 	-0.325561 	0 -0.322733 	-0.328243 	0 -0.322862 	-0.330917 	0 -0.322989 	-0.333486 	0 -0.322998 	-0.333656 	0 -0.323008 	-0.333826 	0 -0.323017 	-0.333996 	0 -0.323026 	-0.334167 	0 -0.323036 	-0.334347 	0 -0.323167 	-0.33739 	0 -0.323304 	-0.340425 	0 -0.323443 	-0.343448 	0 -0.323585 	-0.346461 	0 -0.323738 	-0.349607 	0 -0.323852 	-0.352906 	0 -0.323975 	-0.356172 	0 -0.324108 	-0.359381 	0 -0.324245 	-0.362577 	0 -0.324392 	-0.365925 	0 -0.324499 	-0.369416 	0 -0.32461 	-0.3729 	0 -0.324725 	-0.37637 	0 -0.324852 	-0.379771 	0 -0.324994 	-0.383322 	0 -0.325094 	-0.387006 	0 -0.325198 	-0.390682 	0 -0.325305