/*--------------------------------*- C++ -*----------------------------------*\
  =========                 |
  \\      /  F ield         | OpenFOAM: The Open Source CFD Toolbox
   \\    /   O peration     | Website:  https://openfoam.org
    \\  /    A nd           | Version:  6
     \\/     M anipulation  |
\*---------------------------------------------------------------------------*/
FoamFile
{
    version     2.0;
    format      ascii;
    class       volScalarField;
    location    "29";
    object      epsilon;
}
// * * * * * * * * * * * * * * * * * * * * * * * * * * * * * * * * * * * * * //

dimensions      [0 2 -3 0 0 0 0];

internalField   nonuniform List<scalar> 
10000
(
266.801
360.286
239.464
158.096
105.546
72.8024
53.2374
42.0031
35.9694
33.4104
33.568
36.4274
42.6847
54.0145
73.5441
105.893
157.719
237.789
357.799
266.307
266.548
359.971
238.916
157.478
104.932
72.3719
52.9935
41.8881
35.9236
33.4054
33.5577
36.4119
42.6373
53.8948
73.4044
105.733
157.616
237.605
357.419
266.131
266.452
359.943
239.042
157.551
105.55
72.8728
53.2813
42.0164
35.9714
33.4069
33.5493
36.3903
42.5817
53.6652
73.2627
105.583
157.575
237.051
357.666
266.257
266.557
359.853
238.93
157.476
105.51
72.8421
53.2654
41.9966
35.9673
33.4048
33.5393
36.347
42.5625
53.689
73.1094
104.946
157.483
237.666
357.766
266.218
266.591
359.882
238.997
157.406
105.362
72.7348
53.1917
41.9574
35.9474
33.3899
33.5199
36.316
42.4703
53.7712
72.755
105.288
157.436
238.262
358.206
266.58
266.621
359.858
239.226
157.475
105.223
72.6219
53.1142
41.9199
35.9292
33.3843
33.5118
36.2854
42.4147
53.5766
72.992
104.708
157.19
238.184
358.14
266.675
266.564
359.812
239.094
157.711
104.807
72.4371
52.8381
41.8578
35.867
33.3647
33.491
36.2418
42.3545
53.4675
72.6468
105.063
156.536
238.121
358.517
266.697
266.737
359.738
238.612
157.466
104.583
72.321
52.952
41.7542
35.8748
33.359
33.4753
36.2031
42.2367
53.3164
72.5344
104.501
156.998
238.072
358.464
266.886
266.81
359.724
238.775
156.803
104.415
71.8729
52.858
41.8251
35.8926
33.3472
33.4566
36.1755
42.1936
53.2372
72.3816
104.391
156.311
237.978
358.753
266.939
267.023
359.743
238.604
156.718
104.448
71.8251
52.6104
41.7531
35.8205
33.3131
33.4185
36.1305
42.1364
53.1443
72.2298
104.258
156.548
237.849
358.735
266.74
267.101
359.663
238.02
156.369
103.839
71.7794
52.5957
41.7176
35.7912
33.2739
33.3855
36.0861
42.0876
53.1358
72.0859
104.295
155.784
237.655
358.544
266.792
267.015
359.593
238.105
156.205
104.137
71.3821
52.5952
41.5762
35.7365
33.2372
33.341
36.0293
42.003
52.9648
71.8611
103.657
156.18
237.223
358.951
266.667
266.848
359.47
237.417
156.105
103.94
71.4431
52.5361
41.5367
35.6854
33.2039
33.3119
35.9826
41.9192
52.8461
71.726
103.912
155.918
237.376
359.094
266.43
266.796
359.426
237.528
155.709
103.637
71.534
52.4301
41.4857
35.6368
33.1638
33.2678
35.9225
41.8388
52.7943
71.5808
103.581
155.526
237.094
359.048
266.189
266.605
359.257
236.814
155.126
103.306
71.3095
52.286
41.396
35.5896
33.1365
33.2422
35.8895
41.7724
52.5846
71.4471
102.759
154.531
236.741
358.867
266.005
266.53
359.157
236.512
154.248
102.471
70.7295
51.9222
41.2393
35.5314
33.0964
33.197
35.8256
41.702
52.5213
71.2158
102.455
154.255
236.455
358.9
265.742
266.329
358.946
236.178
154.005
102.297
70.6624
51.8411
41.178
35.4882
33.0534
33.1496
35.7611
41.5874
52.2858
70.8771
102.11
153.677
235.731
358.874
265.514
266.118
358.777
235.768
153.546
101.734
70.1952
51.7895
41.1603
35.4421
33.007
33.0904
35.6885
41.4886
52.0667
70.4063
101.465
153.53
235.767
358.612
265.346
265.886
358.586
235.324
153.107
101.458
70.0483
51.6538
41.0263
35.375
32.9581
33.036
35.6044
41.3654
51.9288
70.3162
101.163
152.456
234.97
358.707
265.104
265.543
358.426
234.844
152.659
101.102
69.7903
51.3327
40.913
35.3192
32.9145
32.9795
35.5251
41.2436
51.7338
69.973
100.77
152.318
235.123
358.804
264.826
265.241
358.243
234.42
152.244
100.762
69.5114
51.2367
40.8182
35.2527
32.8626
32.919
35.4282
41.0879
51.4965
69.5661
100.381
151.841
234.75
358.561
264.447
264.926
358.044
233.958
151.801
100.409
69.2314
51.0833
40.7306
35.2044
32.8214
32.8718
35.3509
40.9468
51.281
69.2919
100.017
151.421
233.98
358.498
264.133
264.728
357.905
233.536
151.324
100.053
69.0239
51.0275
40.6665
35.1572
32.7783
32.8145
35.2604
40.7972
51.0216
68.9063
99.5897
150.993
233.515
358.316
263.618
264.431
357.714
233.078
150.844
99.6526
68.7473
50.8086
40.5764
35.1047
32.7361
32.7657
35.1895
40.688
50.8578
68.6631
99.1963
150.495
233.033
358.012
263.294
264.193
357.524
232.593
150.268
98.9872
68.351
50.6179
40.4802
35.0467
32.6923
32.7175
35.1191
40.5686
50.647
68.3308
98.753
149.938
232.466
357.834
262.838
263.91
357.315
232.06
149.583
98.5035
67.9621
50.3733
40.3493
34.9796
32.6537
32.6804
35.059
40.4628
50.4697
68.0493
98.3256
149.361
231.96
357.568
262.62
263.643
357.137
231.482
148.908
97.921
67.7013
50.2058
40.2381
34.9088
32.6044
32.6314
34.9844
40.3367
50.2623
67.7197
97.8548
148.723
231.479
357.423
262.262
263.332
356.912
230.955
148.299
97.4741
67.3703
49.9848
40.1277
34.8493
32.5607
32.5904
34.9214
40.2163
50.0372
67.3712
97.3925
148.193
230.977
357.224
261.855
262.99
356.657
230.304
147.582
96.9014
66.9863
49.7519
40.0102
34.7881
32.5137
32.5322
34.8335
40.0613
49.7842
67.0006
96.8698
147.548
230.434
357.061
261.523
262.602
356.446
229.719
146.902
96.3675
66.6488
49.5669
39.9163
34.7408
32.4813
32.4892
34.7577
39.9329
49.5651
66.6314
96.3114
146.837
229.789
356.819
261.152
262.246
356.199
229.049
146.183
95.7858
66.264
49.3334
39.7995
34.6797
32.4395
32.445
34.69
39.7956
49.3022
66.2189
95.7318
146.098
229.159
356.646
260.856
261.952
355.984
228.413
145.463
95.2109
65.9041
49.1494
39.7065
34.6309
32.4109
32.4091
34.6153
39.6643
49.0807
65.8434
95.1776
145.433
228.552
356.392
260.592
261.584
355.729
227.742
144.737
94.6394
65.5297
48.9262
39.5986
34.5874
32.3844
32.3713
34.5439
39.5274
48.8376
65.4451
94.6089
144.701
227.894
356.073
260.391
261.179
355.444
227.132
144.065
94.1289
65.1778
48.733
39.5078
34.5493
32.3652
32.3437
34.4869
39.4106
48.6239
65.0932
94.0723
144.021
227.212
355.846
260.174
260.782
355.144
226.423
143.313
93.5431
64.8116
48.5331
39.4113
34.5094
32.3468
32.3185
34.4287
39.2833
48.3844
64.6946
93.4811
143.275
226.526
355.579
259.802
260.283
354.844
225.725
142.61
93.0247
64.4786
48.3368
39.3191
34.4726
32.3295
32.2969
34.3825
39.1871
48.1904
64.3363
92.9146
142.559
225.792
355.195
259.36
259.875
354.542
225.012
141.869
92.446
64.094
48.1311
39.2203
34.4298
32.3093
32.2728
34.3266
39.0673
47.9635
63.9409
92.3095
141.791
225.084
354.829
258.877
259.432
354.176
224.29
141.124
91.8855
63.7544
47.944
39.1303
34.3953
32.2985
32.2608
34.2887
38.974
47.7654
63.5756
91.7321
141.03
224.3
354.394
258.367
259.128
353.867
223.587
140.368
91.2942
63.3646
47.7374
39.0358
34.3596
32.285
32.242
34.2398
38.863
47.5461
63.1872
91.1271
140.251
223.547
354.005
257.879
258.788
353.529
222.815
139.555
90.6692
62.9757
47.5257
38.9383
34.3233
32.2725
32.2269
34.1959
38.7577
47.3308
62.8018
90.524
139.448
222.756
353.656
257.5
258.42
353.174
221.982
138.702
90.0295
62.5768
47.3181
38.8458
34.2865
32.2565
32.2065
34.1467
38.645
47.1035
62.397
89.8923
138.595
221.897
353.244
257.045
257.979
352.795
221.076
137.795
89.3581
62.1727
47.0978
38.736
34.2384
32.2359
32.1857
34.0971
38.5304
46.8678
61.968
89.2088
137.687
221.007
352.834
256.653
257.42
352.301
220.116
136.843
88.6596
61.7458
46.8667
38.6239
34.1882
32.2124
32.163
34.0485
38.4187
46.637
61.5442
88.5296
136.776
220.112
352.345
256.287
256.875
351.776
219.144
135.88
87.955
61.3243
46.6341
38.5036
34.1337
32.1882
32.1396
33.9959
38.2985
46.3922
61.0957
87.8104
135.829
219.215
351.881
255.982
256.346
351.242
218.156
134.906
87.2523
60.8887
46.3855
38.3781
34.0771
32.1612
32.1136
33.9424
38.1792
46.1497
60.6522
87.0964
134.862
218.263
351.448
255.701
255.771
350.677
217.138
133.916
86.5386
60.4469
46.1325
38.2448
34.0127
32.1284
32.0832
33.8845
38.0542
45.8979
60.1902
86.3475
133.852
217.257
351.007
255.349
255.334
350.192
216.112
132.915
85.81
59.989
45.8692
38.1006
33.9367
32.085
32.0435
33.8183
37.9221
45.6451
59.7374
85.6039
132.826
216.224
350.568
255.034
254.825
349.641
215.041
131.881
85.0521
59.5332
45.5938
37.9372
33.8473
32.032
31.9955
33.7443
37.7818
45.3831
59.2723
84.8281
131.749
215.124
350.007
254.579
254.406
349.142
213.98
130.846
84.2924
59.056
45.3144
37.7698
33.7484
31.9676
31.9348
33.6563
37.6271
45.1114
58.8094
84.063
130.682
214.031
349.463
254.14
253.858
348.548
212.85
129.769
83.5161
58.5517
45.0038
37.5883
33.6382
31.8909
31.862
33.5561
37.4625
44.8285
58.3241
83.2795
129.555
212.863
348.861
253.625
253.341
347.971
211.68
128.651
82.72
58.0462
44.7068
37.4004
33.5133
31.7997
31.774
33.4386
37.2813
44.5317
57.819
82.4662
128.397
211.657
348.269
253.077
252.848
347.409
210.477
127.488
81.8939
57.5134
44.3824
37.2044
33.3799
31.6951
31.6729
33.3112
37.0901
44.2209
57.3136
81.6283
127.186
210.367
347.674
252.461
252.253
346.785
209.211
126.256
81.0216
56.9752
44.0626
36.9951
33.2355
31.5815
31.5605
33.1739
36.8914
43.906
56.7825
80.7437
125.928
209.021
347.028
251.792
251.756
346.199
207.915
124.979
80.1337
56.4072
43.7101
36.7741
33.0728
31.4525
31.4373
33.0163
36.6654
43.5764
56.2376
79.8303
124.602
207.596
346.302
251.079
251.127
345.568
206.509
123.627
79.1999
55.8255
43.3393
36.5267
32.9
31.3062
31.292
32.8523
36.4458
43.229
55.6677
78.8923
123.237
206.12
345.496
250.303
250.458
344.919
205
122.21
78.1841
55.1796
42.9317
36.2533
32.7049
31.1527
31.1426
32.6762
36.1969
42.8437
55.0381
77.8927
121.777
204.522
344.621
249.411
249.571
344.105
203.354
120.679
77.1463
54.5265
42.5148
35.9812
32.5013
30.983
30.978
32.4829
35.9407
42.4578
54.4012
76.8612
120.257
202.819
343.704
248.439
248.579
343.205
201.593
119.054
76.0177
53.8338
42.0743
35.6898
32.294
30.8019
30.797
32.27
35.656
42.0276
53.7309
75.7667
118.618
200.956
342.655
247.316
247.338
342.181
199.651
117.307
74.8179
53.0841
41.6141
35.3827
32.0663
30.612
30.6077
32.0546
35.3597
41.5858
53.0206
74.6109
116.883
198.937
341.436
245.958
245.948
341.018
197.543
115.463
73.5639
52.2961
41.1222
35.0554
31.8248
30.4017
30.4044
31.8229
35.0515
41.1114
52.2552
73.4026
115.067
196.787
340.085
244.509
244.294
339.631
195.206
113.48
72.2246
51.478
40.6022
34.7035
31.5574
30.1726
30.1726
31.5593
34.7176
40.6205
51.4562
72.1338
113.136
194.45
338.544
242.904
242.469
338.025
192.656
111.377
70.8341
50.6183
40.0645
34.337
31.2789
29.9316
29.931
31.2819
34.3535
40.0827
50.6185
70.8072
111.102
191.94
336.797
241.16
240.437
336.068
189.873
109.137
69.3842
49.71
39.5
33.9596
30.9871
29.673
29.6725
30.9896
33.9775
39.5379
49.7586
69.4206
108.957
189.24
334.774
239.271
238.138
333.76
186.827
106.759
67.873
48.8
38.9187
33.5428
30.6544
29.3759
29.3744
30.652
33.5506
38.9479
48.8669
67.9535
106.674
186.286
332.452
237.207
235.664
331.102
183.481
104.226
66.3044
47.8575
38.3089
33.1039
30.2975
29.0511
29.0521
30.2988
33.1095
38.3325
47.9279
66.4257
104.259
183.059
329.797
234.965
232.777
327.885
179.776
101.537
64.6817
46.8623
37.6449
32.6125
29.8936
28.6857
28.6885
29.9038
32.6404
37.6999
46.9574
64.8226
101.669
179.493
326.615
232.373
229.658
324.11
175.719
98.6931
62.9837
45.8254
36.943
32.0878
29.4591
28.2899
28.2929
29.4699
32.1176
37.0071
45.9366
63.1737
98.9427
175.637
322.962
229.639
226.175
319.616
171.31
95.7259
61.2093
44.7265
36.1989
31.52
28.9771
27.8445
27.8504
28.998
31.5678
36.2937
44.8859
61.4406
96.0209
171.365
318.612
226.424
222.397
314.36
166.577
92.6382
59.3742
43.6054
35.4273
30.9168
28.4574
27.3601
27.3663
28.4783
30.9622
35.513
43.7547
59.6343
93.0006
166.786
313.664
223.051
218.451
308.44
161.603
89.5017
57.5306
42.4434
34.6088
30.268
27.8912
26.8301
26.8402
27.9235
30.3311
34.7183
42.6236
57.7992
89.8498
161.818
307.87
219.186
214.423
301.905
156.403
86.33
55.6829
41.2734
33.7639
29.5822
27.2856
26.26
26.2721
27.3242
29.6539
33.8772
41.4456
55.9453
86.6722
156.671
301.539
215.384
210.485
294.855
151.079
83.1994
53.8776
40.1122
32.9098
28.8784
26.6555
25.6611
25.6748
26.6979
28.9546
33.0276
40.2823
54.1112
83.4915
151.308
294.507
211.359
206.803
287.347
145.688
80.1203
52.1277
38.9725
32.0502
28.1562
26.0026
25.0392
25.0553
26.0521
28.2416
32.1745
39.1389
52.3394
80.3708
145.901
287.148
207.684
203.492
279.487
140.314
77.1447
50.4397
37.8583
31.1971
27.4313
25.3417
24.4057
24.423
25.394
27.5198
31.3214
38.0133
50.6188
77.3391
140.439
279.286
204.073
200.718
271.405
135.008
74.2876
48.8142
36.7746
30.3607
26.7156
24.6862
23.7764
23.7949
24.7422
26.8102
30.494
36.9415
48.9977
74.4554
135.106
271.274
201.069
198.494
263.153
129.8
71.5656
47.2729
35.7403
29.5566
26.0233
24.0488
23.1617
23.1796
24.103
26.1141
29.6832
35.8955
47.4378
71.7024
129.844
262.962
198.305
196.959
254.725
124.666
68.9455
45.8127
34.767
28.7981
25.3672
23.4429
22.5764
22.5933
23.4942
25.4535
28.9187
34.9156
45.9735
69.0891
124.736
254.6
196.089
195.195
246.077
119.607
66.4513
44.4395
33.8534
28.0867
24.7523
22.8746
22.0265
22.0409
22.9187
24.8273
28.1934
33.9878
44.5873
66.5812
119.667
245.971
193.975
192.608
237.098
114.604
64.0714
43.1576
33.0109
27.4333
24.1872
22.3515
21.5195
21.531
22.3868
24.2475
27.5197
33.1212
43.2828
64.1917
114.69
237.13
191.986
190.482
227.931
109.695
61.8216
41.9709
32.2374
26.8348
23.669
21.8709
21.0529
21.0615
21.8973
23.7147
26.9014
32.325
42.0721
61.9199
109.773
227.953
189.871
188.254
218.555
104.906
59.6994
40.8781
31.534
26.2909
23.1962
21.4306
20.6244
20.6302
21.4482
23.2268
26.3354
31.5929
40.9467
59.7652
104.951
218.543
187.711
185.95
208.945
100.258
57.7195
39.8765
30.8896
25.7896
22.7578
21.0209
20.2253
20.2289
21.032
22.7777
25.8192
30.93
39.9246
57.7642
100.279
208.919
185.54
184.086
199.333
95.8332
55.9088
38.9748
30.3042
25.3253
22.3457
20.6325
19.8458
19.8478
20.6385
22.3568
25.3422
30.328
39.0047
55.9392
95.851
199.299
184.065
182.931
189.799
91.6523
54.2605
38.1514
29.7543
24.8784
21.9438
20.2522
19.4743
19.4754
20.2554
21.95
24.8881
29.7688
38.1711
54.2844
91.6762
189.756
182.855
182.761
180.663
87.8112
52.8046
37.4069
29.2319
24.4387
21.5425
19.8709
19.1019
19.1024
19.8725
21.5456
24.4438
29.2397
37.4183
52.8198
87.8344
180.664
182.737
184.574
172.149
84.3011
51.5166
36.7107
28.7123
23.9883
21.1288
19.4787
18.72
18.7202
19.4795
21.1303
23.9912
28.7166
36.7174
51.5253
84.3139
172.165
184.557
187.957
164.239
81.2768
50.392
36.042
28.1779
23.5154
20.6949
19.0703
18.3244
18.3245
19.0706
20.6954
23.5168
28.1802
36.0464
50.3983
81.2808
164.24
187.924
193.9
157.137
78.7512
49.3944
35.3669
27.6067
23.007
20.2337
18.642
17.9131
17.913
18.642
20.2336
23.0073
27.6076
35.3693
49.3994
78.757
157.17
193.9
202.087
150.755
76.876
48.4826
34.6508
26.9801
22.4543
19.7424
18.1942
17.4877
17.4876
18.1941
19.7423
22.4547
26.9814
34.6539
48.4879
76.8757
150.751
202.05
213.291
145.688
75.3146
47.55
33.8521
26.28
21.8506
19.2202
17.7295
17.0524
17.0523
17.7295
19.2203
21.8511
26.2816
33.8562
47.5591
75.3309
145.715
213.314
227.12
141.779
74.068
46.5651
32.9441
25.493
21.1922
18.6694
17.2535
16.6145
16.6145
17.2536
18.6696
21.1928
25.4947
32.9472
46.5694
74.0697
141.76
227.089
244.297
139.394
72.9854
45.4206
31.8782
24.6004
20.4751
18.0936
16.7741
16.1835
16.1835
16.7741
18.0937
20.4755
24.6018
31.8815
45.4273
72.9979
139.398
244.31
265.001
138.453
71.8654
44.006
30.6058
23.5853
19.698
17.4996
16.3021
15.7722
15.7721
16.302
17.4995
19.698
23.5857
30.6069
44.0081
71.8682
138.449
264.963
288.273
138.099
70.3164
42.1706
29.0737
22.4341
18.8642
16.8986
15.8522
15.3965
15.3964
15.852
16.8983
18.8639
22.4339
29.0744
42.1731
70.3211
138.098
288.27
314.83
138.151
68.1068
39.8041
27.2452
21.1441
17.9862
16.3086
15.4442
15.0757
15.0756
15.4441
16.3083
17.9859
21.1439
27.2458
39.8068
68.1131
138.149
314.803
342.978
137.851
64.6879
36.7238
25.0839
19.7283
17.0907
15.7571
15.1041
14.8361
14.8361
15.1039
15.7568
17.09
19.7276
25.084
36.726
64.6953
137.86
342.943
372.861
135.404
59.418
32.7778
22.6006
18.2373
16.2281
15.2806
14.8612
14.7122
14.7121
14.861
15.2803
16.2274
18.2369
22.6012
32.7805
59.4274
135.426
372.875
402.401
127.759
51.1735
27.8213
19.864
16.7646
15.4754
14.9582
14.7556
14.678
14.6779
14.7555
14.958
15.4754
16.7652
19.8641
27.8213
51.1737
127.759
402.367
432.709
107.318
38.6064
21.933
17.0639
15.493
14.9848
14.8106
14.7307
14.7011
14.7012
14.7312
14.8118
14.9866
15.4942
17.0641
21.933
38.6102
107.333
432.733
466.392
57.375
21.6801
16.2869
15.2321
14.9465
14.8448
14.8046
14.7968
14.7964
14.7964
14.7968
14.8048
14.8452
14.9473
15.2334
16.288
21.6795
57.3721
466.386
782.533
1139.05
780.245
496.974
301.788
181.262
114.499
79.9154
62.7132
55.601
55.6709
62.8667
80.417
115.705
182.589
301.297
493.712
774.546
1133.1
777.436
781.004
1138.61
778.145
494.063
299.19
179.442
112.184
78.6232
61.906
54.9792
55.0578
62.0437
79.8196
114.69
180.85
295.602
487.077
768.8
1130.55
776.183
780.076
1138.25
776.459
491.623
296.972
177.954
112.837
79.0876
62.1783
55.1599
55.2729
62.0766
79.3798
113.843
179.701
295.902
487.306
768.578
1131.5
775.59
775.935
1135.76
771.317
484.942
291.38
176.28
112.008
78.6706
61.9091
54.9257
55.0715
62.0128
78.8566
111.549
176.063
295.502
486.932
766.396
1132.02
772.341
777.637
1137.77
773.319
484.002
290.389
174.79
110.973
78.1314
61.1031
54.206
54.4606
61.6488
78.4347
111.203
175.502
290.529
481.082
765.465
1131.71
773.309
776.08
1139.25
771.547
481.078
287.724
171.22
110.017
77.7157
61.0894
54.2147
54.454
61.1458
77.2905
110.09
174.274
292.837
484.141
765.759
1129.65
772.415
771.841
1138.76
769.352
478.276
285.541
170.25
108.068
76.6333
60.8047
54.0298
54.43
60.8709
77.002
109.225
172.84
290.881
478.199
759.995
1130.97
769.886
771.764
1136.19
766.769
474.772
283.1
167.735
107.712
76.754
60.9641
54.0256
54.058
60.9638
76.4722
109.024
171.552
286.386
480.488
760.528
1128.84
772.516
769.976
1136.71
760.744
471.524
281.673
166.519
106.732
76.3465
60.7406
53.9077
54.185
60.3985
76.0201
106.859
171.456
286.818
478.372
758.779
1131.6
771.796
765.887
1137.33
760.23
466.346
276.947
165.335
107.015
75.3637
60.065
53.9471
53.7928
60.3167
75.3967
106.557
169.863
281.417
475.78
757.326
1133.79
770.34
764.277
1136.31
757.346
462.728
276.199
164.59
105.447
75.0938
59.9348
53.7617
53.7466
60.0271
74.9675
105.498
168.107
281.782
470.749
756.232
1134.13
769.342
762.327
1133.51
750.698
459.351
274.345
164.912
105.104
74.6448
59.5605
53.2405
53.2208
59.4085
74.3731
104.56
165.125
278.274
471.78
756.496
1134.6
768.096
758.778
1134.37
747.186
455.646
271.456
163.353
104.089
74.123
59.3291
53.0577
53.0611
59.1718
73.8542
103.653
163.395
276.564
469.641
757.749
1134.89
767.187
756.335
1133.14
743.614
451.506
265.873
159.884
103.131
73.8372
58.8451
52.6914
52.7455
58.7802
73.2833
102.485
160.481
275.012
466.922
751.229
1135.03
766.172
753.813
1132.36
740.153
448.375
263.761
157.985
102.177
73.3635
58.6288
52.5372
52.6277
58.5271
72.8316
101.658
158.766
270.145
461.323
754.994
1135.12
765.145
751.308
1130.87
736.481
444.495
260.244
156.322
101.157
72.48
58.2772
52.3054
52.3498
58.1954
72.4093
100.712
156.936
268.13
461.075
749.003
1134.46
763.628
748.607
1129.51
733.883
441.433
257.917
154.43
99.9042
72.0717
58.0289
52.1927
52.1896
57.898
71.7755
99.664
155.347
264.667
458.42
751.296
1133.86
762.087
746.2
1127.89
730.096
437.074
256.096
153.196
99.17
71.5622
57.7304
52.2008
52.1595
57.6004
71.2898
98.9596
153.801
261.948
452.161
745.342
1131.13
758.15
743.578
1124.48
726.526
432.592
253.118
151.665
98.2067
71.0586
57.4626
52.015
51.9676
57.3138
70.7861
98.1089
152.291
258.649
449.195
743.558
1133.15
757.559
740.073
1124.01
722.699
428.645
249.194
149.726
97.2741
70.5135
57.1328
51.5811
51.5276
56.9619
70.2759
97.3243
150.727
255.615
444.992
740.678
1130.71
754.717
736.026
1121.46
719.59
425.602
246.622
147.851
96.2469
69.9338
56.8036
51.2365
51.2026
56.6102
69.8113
96.5522
149.405
253.033
441.405
736.486
1133.87
753.887
732.807
1119.95
717.444
422.742
244.45
146.443
95.3404
69.4439
56.4589
50.9951
50.9733
56.3457
69.262
95.5076
147.752
250.33
437.876
734.224
1133.27
750.858
730.708
1118.59
718.139
420.387
241.853
144.548
94.3097
68.8477
56.0767
50.6624
50.6458
56.0092
68.7789
94.6195
146.027
248.238
434.731
731.138
1130.95
747.287
729.517
1116.93
715.322
417.58
239.286
142.718
93.3637
68.3195
55.701
50.3456
50.331
55.6257
68.2182
93.6532
144.145
244.918
430.073
728.412
1133.27
745.115
730.667
1115.69
709.144
413.764
236.184
141.036
92.4496
67.7347
55.3056
50.1093
50.089
55.2817
67.7556
92.8546
142.859
242.733
427.069
724.257
1131.26
742.524
730.239
1114.18
705.508
410.166
233.48
139.519
91.5883
67.2386
54.9932
49.8113
49.762
54.874
67.2033
91.9346
141.071
240.18
423.59
723.993
1132.87
739.438
728.962
1113.15
702.101
406.458
230.615
137.717
90.6171
66.6404
54.5898
49.5265
49.5058
54.5676
66.6896
91.0717
139.602
237.074
418.472
717.357
1132.06
736.594
727.02
1110.08
697.555
401.561
227.633
136.156
89.8213
66.1801
54.272
49.23
49.184
54.1684
66.1341
90.1506
137.923
234.201
414.565
716.146
1131.16
734.848
724.989
1108.83
693.913
397.793
224.94
134.642
88.956
65.6664
53.9299
48.9371
48.8694
53.7913
65.5914
89.2708
136.283
230.664
408.441
709.154
1129.75
732.366
721.426
1107.22
688.902
394.049
222.431
133.291
88.2166
65.1833
53.5908
48.6633
48.6015
53.4436
65.0679
88.3936
134.606
227.403
404.543
705.386
1127
729.796
719.441
1104.32
683.988
389.532
219.697
131.779
87.4231
64.7134
53.2602
48.3871
48.3031
53.0839
64.559
87.5396
132.898
223.706
399.053
698.717
1125.84
726.263
716.271
1101.89
679.013
385.478
217.209
130.49
86.684
64.2396
52.912
48.102
48.0406
52.7488
64.0562
86.6726
131.345
220.908
393.959
694.381
1123.43
721.983
714.303
1098.41
673.759
381.035
214.65
129.054
85.921
63.7973
52.5892
47.8203
47.7421
52.3942
63.5363
85.8161
129.7
217.574
388.875
688.72
1121.82
718.302
711.671
1096.13
668.641
376.679
212.058
127.715
85.1523
63.3092
52.2363
47.514
47.4443
52.0302
63.0159
84.9494
128.149
214.723
384.075
683.659
1119.1
715.591
709.279
1092.97
663.397
372.643
209.583
126.313
84.3748
62.8315
51.8854
47.2083
47.1277
51.6655
62.4978
84.0854
126.587
211.968
379.929
679.042
1117.94
712.472
706.252
1090.58
658.404
368.118
206.945
124.942
83.6048
62.3367
51.5107
46.8837
46.7991
51.2692
61.9375
83.1814
124.996
209.028
375.259
674.371
1116.21
709.098
702.856
1088.43
652.957
363.873
204.56
123.621
82.8571
61.8594
51.1579
46.568
46.4759
50.8855
61.4016
82.2899
123.402
206.216
370.726
669.331
1114.65
706.059
699.965
1089.19
648.492
359.921
202.111
122.293
82.1131
61.3858
50.8
46.2548
46.1497
50.4809
60.8415
81.4071
121.817
203.35
366.295
664.446
1112.73
702.398
697.159
1083.34
643.3
355.717
199.626
120.978
81.3895
60.93
50.4588
45.9419
45.8237
50.0923
60.3079
80.5358
120.193
200.311
361.321
658.992
1109.67
698.898
694.643
1083.12
638.918
351.78
197.225
119.684
80.6832
60.4766
50.1134
45.6315
45.498
49.7028
59.7676
79.6709
118.655
197.503
356.777
653.447
1105.74
694.685
692.285
1079.28
633.994
347.689
194.774
118.397
79.9635
60.0088
49.7524
45.3077
45.1683
49.3136
59.2338
78.8095
117.085
194.518
351.9
648.079
1103.18
691.656
690.228
1075.87
629.309
343.955
192.528
117.167
79.2653
59.5488
49.397
44.9837
44.8274
48.9159
58.6909
77.9535
115.524
191.583
347.189
642.412
1099.09
687.758
687.735
1071.5
624.316
339.867
190.083
115.84
78.5207
59.0715
49.0126
44.6316
44.4699
48.4988
58.1228
77.0568
113.918
188.555
342.098
636.468
1095.29
684.341
686.004
1067.21
619.226
336.085
187.834
114.592
77.7878
58.5737
48.627
44.2857
44.1071
48.0718
57.5578
76.185
112.348
185.63
337.274
630.7
1092.11
680.588
683.8
1063.43
614.268
331.93
185.341
113.235
77.0103
58.0676
48.2311
43.9271
43.7407
47.6465
56.9787
75.275
110.749
182.584
332.022
624.217
1087.98
676.971
681.277
1059.18
608.764
327.825
182.948
111.92
76.2163
57.5283
47.815
43.55
43.3481
47.1852
56.3663
74.342
109.129
179.598
326.896
617.842
1084.6
673.128
678.72
1055.43
603.273
323.479
180.401
110.552
75.4245
57.0003
47.4057
43.1805
42.9672
46.7389
55.7763
73.4255
107.513
176.506
321.612
611.287
1081.31
669.527
675.663
1051.28
597.596
319.193
177.935
109.201
74.6162
56.4423
46.964
42.7814
42.5579
46.2625
55.1483
72.4832
105.867
173.419
316.1
604.157
1077.33
664.929
673.026
1047.28
592.001
314.835
175.361
107.798
73.7976
55.8864
46.5292
42.3915
42.1599
45.8012
54.5365
71.5442
104.218
170.292
310.721
597.191
1073.16
660.549
669.24
1042.94
585.769
310.195
172.706
106.35
72.9315
55.3009
46.0689
41.9766
41.7396
45.3204
53.909
70.5979
102.573
167.169
305.009
589.586
1068.34
655.169
666.292
1038.82
579.649
305.572
169.991
104.856
72.0429
54.6979
45.6015
41.5641
41.32
44.8428
53.2767
69.6252
100.873
163.998
299.448
582.165
1063.38
650.117
662.65
1034.13
573.145
300.692
167.184
103.319
71.1178
54.0703
45.1173
41.1334
40.8873
44.3447
52.6304
68.665
99.2001
160.843
293.652
574.051
1057.66
643.961
658.805
1029.47
566.688
295.857
164.361
101.735
70.1621
53.4267
44.6175
40.688
40.4371
43.8259
51.9495
67.6349
97.4191
157.567
287.866
566.179
1052.41
638.439
654.631
1024.57
559.788
290.712
161.392
100.067
69.1599
52.7464
44.0953
40.2287
39.9752
43.2963
51.2466
66.5949
95.6933
154.374
282.057
557.997
1046.71
632.628
650.551
1020.28
552.921
285.549
158.385
98.3364
68.1077
52.0345
43.5439
39.7417
39.4861
42.7388
50.5198
65.4943
93.852
151.044
276.101
549.744
1041.07
626.968
646.043
1015.41
545.424
280.005
155.195
96.5413
67.0123
51.2802
42.9563
39.235
38.9835
42.1668
49.7719
64.3907
92.0488
147.78
270.236
541.599
1035.85
621.79
642.085
1011.47
538.192
274.427
151.907
94.6514
65.8314
50.4704
42.3295
38.6915
38.4527
41.5715
49.0029
63.2493
90.1754
144.398
264.16
533.184
1030.67
616.976
637.518
1006.87
530.237
268.436
148.432
92.6591
64.5842
49.6086
41.6713
38.123
37.9003
40.9569
48.2186
62.1027
88.3139
141.065
258.201
524.975
1026.02
612.613
633.815
1003.35
522.377
262.268
144.769
90.5172
63.2498
48.6803
40.9617
37.5181
37.3133
40.3067
47.3983
60.929
86.418
137.633
251.914
516.102
1020.87
608.072
628.815
999.096
513.318
255.439
140.822
88.2182
61.8095
47.6952
40.2127
36.8806
36.6997
39.6297
46.5492
59.7468
84.5418
134.234
245.614
506.949
1015.6
603.058
623.724
994.912
503.713
248.207
136.649
85.7851
60.2553
46.632
39.4098
36.1947
36.0388
38.9084
45.6546
58.5082
82.5771
130.667
238.916
496.896
1009.38
597.022
617.354
989.504
492.873
240.286
132.145
83.1928
58.6049
45.4951
38.5492
35.4642
35.3383
38.1432
44.7112
57.2153
80.5546
127.027
231.969
486.027
1002.18
590.043
609.232
982.762
480.582
231.636
127.271
80.4074
56.8532
44.2866
37.6238
34.6749
34.5828
37.3214
43.7024
55.8236
78.3702
123.133
224.504
473.903
993.131
581.055
599.129
973.843
466.754
222.403
122.122
77.4588
55.0082
43.0003
36.6379
33.8337
33.7795
36.4469
42.618
54.3187
76.0285
118.996
216.488
460.422
982.226
570.787
585.829
961.643
450.977
212.433
116.634
74.3001
53.0398
41.6356
35.5886
32.9349
32.9114
35.5061
41.4683
52.7256
73.546
114.639
207.959
445.311
967.86
557.515
570.007
946.279
433.541
202.046
111.02
71.0654
50.9916
40.2023
34.483
31.9831
31.9889
34.4932
40.2211
51.0005
70.8922
110.017
198.935
428.941
950.829
542.695
551.034
926.541
414.081
191.041
105.179
67.711
48.8708
38.7107
33.3217
30.9759
31.0075
33.424
38.9074
49.1882
68.1249
105.244
189.548
411.133
930.14
525.991
529.88
902.592
393.424
179.898
99.3825
64.284
46.6611
37.1628
32.1151
29.9211
29.9721
32.2844
37.5025
47.2635
65.2038
100.264
179.779
392.013
905.621
507.131
507.425
874.56
371.569
168.492
93.432
60.8646
44.4587
35.5826
30.8613
28.8192
28.8881
31.0856
36.022
45.2419
62.1626
95.1313
169.783
371.918
877.45
487.784
483.423
842.099
348.965
157.235
87.5951
57.387
42.1777
33.9534
29.5729
27.6816
27.7595
29.8359
34.4834
43.1363
58.9809
89.8087
159.496
350.69
844.897
466.72
460.057
806.265
326.049
146.081
81.7961
53.9913
39.9384
32.3211
28.2662
26.5188
26.6018
28.5433
32.8828
40.9529
55.7037
84.3626
149.098
328.942
808.954
446.261
435.653
766.296
302.856
135.174
76.0926
50.58
37.6856
30.694
26.962
25.3503
25.432
27.2357
31.2541
38.7162
52.3247
78.7523
138.515
306.36
768.751
424.551
413.296
723.908
280.093
124.742
70.6529
47.319
35.5116
29.0948
25.6635
24.1824
24.2616
25.9258
29.6217
36.462
48.9311
73.1438
128.005
283.673
725.772
403.833
390.366
678.2
257.203
114.473
65.3293
44.1269
33.3965
27.548
24.4067
23.0473
23.1217
24.6495
28.0305
34.2681
45.6081
67.6356
117.614
260.836
679.838
383.341
369.769
631.158
235.245
104.972
60.4576
41.2001
31.424
26.0816
23.2059
21.9608
22.0287
23.4252
26.5023
32.1547
42.4115
62.3333
107.677
238.651
632.205
364.084
350.385
582.947
214.091
95.9479
55.8389
38.4554
29.5895
24.7231
22.0944
20.9531
21.0139
22.2891
25.0922
30.2174
39.482
57.4699
98.4595
217.611
584.692
347.771
334.327
535.852
194.724
88.0341
51.8243
36.0465
27.9613
23.5055
21.093
20.0429
20.0949
21.2572
23.8088
28.4565
36.8337
53.0827
90.0651
197.917
538.017
334.007
322.563
491.252
177.164
80.9512
48.2492
33.917
26.5332
22.4448
20.2227
19.2509
19.2924
20.3537
22.6869
26.9315
34.562
49.3135
82.7736
180.289
494.26
324.767
316.092
450.242
161.942
75.0738
45.3198
32.1535
25.3317
21.5426
19.4785
18.5721
18.604
19.5785
21.7262
25.6299
32.6299
46.1103
76.4773
164.549
453.308
321.054
314.62
413.054
148.867
70.1163
42.8682
30.6872
24.3347
20.7925
18.8572
18.0032
18.0261
18.9286
20.9228
24.5458
31.03
43.4537
71.1669
150.839
415.563
314.553
308.238
379.121
137.694
66.0753
40.8931
29.4908
23.5085
20.165
18.336
17.5259
17.5411
18.3834
20.2515
23.6463
29.7094
41.2603
66.7218
138.893
380.934
311.112
305.883
348.298
127.896
62.629
39.2258
28.484
22.8131
19.6368
17.8979
17.1256
17.1349
17.9267
19.6896
22.8967
28.6148
39.4372
62.9578
128.403
349.064
306.83
304.607
319.738
119.016
59.6149
37.7922
27.6127
22.2066
19.1761
17.5183
16.7813
16.7863
17.5338
19.2053
22.2533
27.6835
37.8979
59.7638
119.206
319.974
305.404
302.009
293.46
110.95
56.9555
36.5188
26.8315
21.6607
18.763
17.1813
16.4791
16.4816
17.1892
18.7785
21.6874
26.8731
36.5771
57.0331
111.054
293.595
302.5
303.45
269.375
103.638
54.5442
35.3316
26.0888
21.1403
18.3737
16.8695
16.2037
16.205
16.8733
18.3801
21.151
26.1074
35.3661
54.6018
103.691
269.355
303.758
307.072
247.411
97.4938
52.4178
34.2076
25.3616
20.6298
17.9978
16.5756
15.9491
15.9498
16.5782
18.0023
20.6372
25.374
34.2343
52.4781