/*--------------------------------*- C++ -*----------------------------------*\
  =========                 |
  \\      /  F ield         | OpenFOAM: The Open Source CFD Toolbox
   \\    /   O peration     | Website:  https://openfoam.org
    \\  /    A nd           | Version:  6
     \\/     M anipulation  |
\*---------------------------------------------------------------------------*/
FoamFile
{
    version     2.0;
    format      ascii;
    class       volScalarField;
    location    "29";
    object      epsilon;
}
// * * * * * * * * * * * * * * * * * * * * * * * * * * * * * * * * * * * * * //

dimensions      [0 2 -3 0 0 0 0];

internalField   nonuniform List<scalar> 
130000
(
13.6321
13.356
13.0835
12.8194
12.5629
12.3136
12.0715
11.8372
11.6114
11.3952
11.1895
10.9956
10.8145
10.647
10.494
10.356
10.2333
10.1261
10.0344
9.9579
13.6536
13.3774
13.1049
12.8405
12.5835
12.3335
12.0906
11.8554
11.6287
11.4115
11.2049
11.0102
10.8284
10.6603
10.5069
10.3685
10.2455
10.1381
10.0462
9.96954
13.6732
13.397
13.1244
12.8596
12.602
12.3511
12.1073
11.8711
11.6433
11.425
11.2174
11.0216
10.8387
10.6696
10.5152
10.3761
10.2527
10.145
10.053
9.97646
13.6899
13.4136
13.1406
12.8753
12.6169
12.3652
12.1204
11.883
11.6538
11.434
11.225
11.0277
10.8433
10.6731
10.5179
10.3782
10.2543
10.1464
10.0544
9.97813
13.7026
13.4258
13.1524
12.8865
12.6272
12.3743
12.128
11.889
11.6582
11.437
11.2267
11.0284
10.843
10.6722
10.5165
10.3765
10.2524
10.1444
10.0525
9.97645
13.7112
13.4338
13.1596
12.8925
12.6317
12.3773
12.1297
11.8894
11.6575
11.4355
11.2246
11.0259
10.8406
10.6696
10.5138
10.3737
10.2497
10.1418
10.0501
9.9742
13.7167
13.438
13.1623
12.8937
12.6315
12.376
12.1276
11.8867
11.6545
11.4321
11.2209
11.022
10.8366
10.6656
10.5099
10.3699
10.2461
10.1385
10.047
9.97144
13.7194
13.4392
13.1618
12.8921
12.6292
12.373
12.1238
11.8824
11.6497
11.427
11.2155
11.0165
10.8311
10.6603
10.5047
10.3651
10.2416
10.1344
10.0433
9.96816
13.7212
13.4392
13.1607
12.8898
12.6259
12.3688
12.1188
11.8768
11.6437
11.4206
11.209
11.01
10.8247
10.654
10.4988
10.3595
10.2365
10.1297
10.0392
9.96458
13.7228
13.4393
13.1592
12.887
12.622
12.3638
12.1131
11.8703
11.6367
11.4134
11.2016
11.0026
10.8174
10.6471
10.4922
10.3534
10.2309
10.1247
10.0348
9.96071
13.7246
13.4394
13.1578
12.8842
12.6178
12.3586
12.1069
11.8635
11.6293
11.4057
11.1937
10.9947
10.8098
10.6397
10.4853
10.347
10.2251
10.1195
10.0302
9.95677
13.7267
13.4398
13.1567
12.8815
12.6138
12.3534
12.1007
11.8565
11.6218
11.3978
11.1857
10.9867
10.8019
10.6322
10.4782
10.3405
10.2191
10.1142
10.0255
9.95277
13.7293
13.4408
13.1562
12.8795
12.6103
12.3486
12.0948
11.8497
11.6144
11.39
11.1777
10.9787
10.7941
10.6247
10.4712
10.334
10.2132
10.109
10.021
9.94892
13.7328
13.4425
13.1564
12.8782
12.6073
12.3443
12.0894
11.8434
11.6074
11.3825
11.17
10.971
10.7865
10.6174
10.4643
10.3276
10.2075
10.1039
10.0166
9.94518
13.7371
13.445
13.1569
12.8774
12.605
12.3407
12.0846
11.8376
11.6009
11.3755
11.1627
10.9636
10.7793
10.6105
10.4578
10.3216
10.2021
10.0991
10.0125
9.94174
13.7423
13.4483
13.1584
12.8771
12.6037
12.338
12.0806
11.8326
11.595
11.3691
11.156
10.9568
10.7725
10.6039
10.4516
10.3159
10.197
10.0946
10.0086
9.93853
13.7485
13.4527
13.161
12.878
12.6033
12.3363
12.0776
11.8284
11.59
11.3634
11.1499
10.9506
10.7663
10.598
10.446
10.3108
10.1923
10.0906
10.0052
9.93569
13.7558
13.4582
13.1647
12.8799
12.6035
12.3355
12.0754
11.8252
11.5859
11.3586
11.1446
10.9451
10.7608
10.5926
10.4409
10.3061
10.1881
10.0869
10.0021
9.93317
13.7647
13.4652
13.1698
12.8831
12.605
12.3355
12.0744
11.8232
11.5828
11.3547
11.1402
10.9404
10.756
10.5879
10.4365
10.3021
10.1846
10.0839
9.99963
9.93124
13.7747
13.4734
13.176
12.8874
12.6074
12.3361
12.0742
11.822
11.5805
11.3517
11.1367
10.9365
10.752
10.584
10.4328
10.2987
10.1817
10.0816
9.99803
9.93026
13.786
13.4828
13.1835
12.893
12.611
12.338
12.0744
11.8213
11.5791
11.3497
11.1342
10.9337
10.7491
10.581
10.43
10.2961
10.1795
10.0799
9.99681
9.92944
13.7987
13.4937
13.1925
12.9
12.6161
12.3412
12.076
11.8216
11.579
11.3491
11.1331
10.9322
10.7473
10.5791
10.428
10.2944
10.178
10.0785
9.99555
9.9286
13.8131
13.5064
13.2031
12.9086
12.6226
12.3459
12.0789
11.8231
11.5794
11.3487
11.1322
10.931
10.7459
10.5777
10.4267
10.2935
10.1774
10.0781
9.99516
9.92842
13.8291
13.5205
13.2153
12.9187
12.6306
12.3518
12.0831
11.8255
11.5802
11.3485
11.1315
10.9299
10.7447
10.5766
10.4258
10.2928
10.1766
10.0773
9.99425
9.92741
13.8466
13.5363
13.2291
12.9304
12.6402
12.3593
12.0886
11.8293
11.5826
11.3498
11.1321
10.9302
10.7448
10.5762
10.4252
10.292
10.1756
10.0765
9.99396
9.92756
13.8658
13.5539
13.2447
12.9438
12.6514
12.3684
12.0956
11.8344
11.586
11.3519
11.133
10.9307
10.7449
10.5763
10.4253
10.292
10.1759
10.0769
9.9943
9.92754
13.8872
13.5737
13.2625
12.9593
12.6646
12.3792
12.1042
11.841
11.5908
11.3551
11.1349
10.9313
10.7449
10.5764
10.4254
10.2921
10.1761
10.0771
9.99466
9.92775
13.9105
13.5955
13.2823
12.9768
12.6797
12.392
12.1147
11.8493
11.5972
11.3597
11.138
10.9332
10.7458
10.5763
10.425
10.2918
10.1758
10.0775
9.99564
9.92946
13.936
13.6195
13.3043
12.9966
12.697
12.4068
12.1271
11.8595
11.6053
11.366
11.1427
10.9365
10.748
10.5777
10.4257
10.2921
10.1764
10.0785
9.99659
9.93046
13.9638
13.6459
13.3288
13.0189
12.7168
12.424
12.1418
11.8719
11.6155
11.3743
11.1492
10.9415
10.7517
10.5804
10.4276
10.2932
10.177
10.0785
9.99632
9.93015
13.9943
13.6752
13.3563
13.044
12.7394
12.444
12.1592
11.8868
11.6282
11.3849
11.158
10.9487
10.7574
10.5849
10.4311
10.2959
10.1788
10.0795
9.99704
9.93077
14.0277
13.7075
13.3868
13.0723
12.7651
12.4671
12.1797
11.9047
11.6437
11.3982
11.1694
10.9584
10.7657
10.5919
10.437
10.3009
10.1832
10.0833
10.0004
9.93385
14.0643
13.7433
13.421
13.1042
12.7945
12.4937
12.2036
11.926
11.6625
11.4148
11.184
10.9712
10.777
10.6019
10.4458
10.3088
10.1903
10.0897
10.0063
9.93923
14.1044
13.7829
13.4591
13.1401
12.8278
12.5243
12.2313
11.951
11.685
11.4349
11.202
10.9874
10.7915
10.6151
10.4578
10.3198
10.2004
10.099
10.0149
9.9472
14.1486
13.8268
13.5016
13.1806
12.8657
12.5594
12.2635
11.9804
11.7117
11.4592
11.224
11.0074
10.8099
10.6319
10.4734
10.3342
10.2138
10.1116
10.0267
9.95823
14.1972
13.8755
13.5492
13.2261
12.9087
12.5995
12.3007
12.0146
11.7431
11.488
11.2505
11.0318
10.8324
10.6528
10.4929
10.3525
10.231
10.1278
10.0419
9.97254
14.2509
13.9296
13.6023
13.2774
12.9574
12.6453
12.3434
12.0544
11.7799
11.5221
11.2821
11.0612
10.8598
10.6784
10.5169
10.3751
10.2524
10.148
10.0611
9.99066
14.31
13.9896
13.6617
13.335
13.0125
12.6975
12.3925
12.1003
11.8228
11.5621
11.3195
11.0961
10.8926
10.7093
10.546
10.4027
10.2785
10.1729
10.0846
10.013
14.3755
14.0565
13.7283
13.4
13.0751
12.7571
12.4489
12.1534
11.8728
11.609
11.3636
11.1376
10.9317
10.7463
10.5811
10.4361
10.3103
10.2031
10.1134
10.0403
14.4479
14.1309
13.8028
13.4732
13.1459
12.825
12.5136
12.2147
11.9307
11.6638
11.4153
11.1866
10.9781
10.7904
10.6231
10.4761
10.3484
10.2395
10.1481
10.0733
14.5282
14.214
13.8865
13.5558
13.2264
12.9026
12.5879
12.2855
11.9981
11.7278
11.4761
11.2444
11.0332
10.8429
10.6733
10.524
10.3943
10.2833
10.1899
10.1131
14.6175
14.307
13.9807
13.6493
13.3179
12.9913
12.6733
12.3674
12.0763
11.8025
11.5475
11.3126
11.0984
10.9053
10.7331
10.5813
10.4492
10.3359
10.2401
10.1609
14.717
14.4112
14.0869
13.7554
13.4223
13.0931
12.7718
12.4624
12.1676
11.8901
11.6315
11.3932
11.1758
10.9797
10.8045
10.6499
10.5151
10.399
10.3005
10.2185
14.8281
14.5285
14.2071
13.8761
13.5419
13.2102
12.8858
12.5729
12.2744
11.9931
11.7308
11.4889
11.2679
11.0684
10.89
10.7323
10.5942
10.475
10.3733
10.2879
14.9527
14.6609
14.3438
14.0142
13.6794
13.3458
13.0185
12.7022
12.3999
12.1148
11.8486
11.6029
11.3782
11.175
10.993
10.8316
10.69
10.567
10.4615
10.3721
15.0929
14.8111
14.4999
14.173
13.8385
13.5036
13.174
12.8545
12.5487
12.2597
11.9896
11.7399
11.5112
11.304
11.1179
10.9524
10.8064
10.6791
10.5688
10.4745
15.2517
14.9826
14.6795
14.3569
14.0241
13.689
13.3577
13.0356
12.7266
12.434
12.16
11.9062
11.6732
11.4616
11.2709
11.1007
10.9497
10.817
10.701
10.6006
15.4323
15.1796
14.8877
14.572
14.2427
13.9088
13.5771
13.2534
12.9419
12.6462
12.3685
12.1107
11.8733
11.6569
11.4611
11.2852
11.1282
10.9888
10.8657
10.7574
15.6396
15.4083
15.1317
14.8262
14.5034
14.1732
13.843
13.5193
13.2065
12.9086
12.6279
12.3664
12.1246
11.9031
11.7014
11.5189
11.3543
11.2067
11.0742
10.9557
15.8794
15.6765
15.4212
15.131
14.819
14.4962
14.1707
13.8496
13.5378
13.2394
12.957
12.6925
12.4466
12.2197
12.0113
11.8208
11.6469
11.4884
11.3436
11.2112
16.1604
15.9954
15.7699
15.5026
15.208
14.8983
14.5826
14.2686
13.9616
13.6659
13.3842
13.1184
12.8692
12.637
12.421
12.2207
12.0346
11.8616
11.6999
11.5483
16.4935
16.3805
16.1974
15.9642
15.697
15.4095
15.1119
14.8123
14.5165
14.229
13.9524
13.6886
13.4382
13.2012
12.9769
12.7644
12.5622
12.3692
12.1837
12.0045
16.8939
16.8535
16.7317
16.5494
16.3252
16.0743
15.8078
15.5347
15.2608
14.9909
14.7274
14.4717
14.2242
13.9844
13.7513
13.5237
13.3
13.079
12.8591
12.6394
17.3849
17.4459
17.4126
17.3067
17.1492
16.9571
16.7426
16.5153
16.2813
16.045
15.8081
15.5718
15.3352
15.0973
14.8562
14.6104
14.3577
14.0969
13.8267
13.5465
18.0043
18.201
18.2975
18.3053
18.2505
18.1512
18.0211
17.8705
17.705
17.5284
17.3413
17.1436
16.9329
16.7067
16.4616
16.1948
15.9036
15.5866
15.2426
14.8722
18.7888
19.1935
19.4679
19.6395
19.7431
19.7872
19.79
19.7635
19.711
19.635
19.5345
19.4073
19.2484
19.0523
18.8128
18.5253
18.1853
17.791
17.3411
16.8375
19.7996
20.4936
21.0397
21.4602
21.7873
22.0411
22.2417
22.4131
22.538
22.6212
22.6598
22.651
22.5851
22.4507
22.2368
21.9355
21.5393
21.0447
20.45
19.7581
21.1142
22.2146
23.1439
23.9209
24.5816
25.1536
25.6542
26.095
26.4758
26.7896
27.0257
27.1982
27.2869
27.2595
27.1037
26.8067
26.3566
25.7462
24.9709
24.033
22.8308
24.4923
25.9538
27.2271
28.3524
29.3608
30.2704
31.0915
31.8227
32.4575
32.9826
33.385
33.6482
33.7776
33.7187
33.4567
32.9722
32.2521
31.2842
30.0658
25.0692
27.4878
29.6648
31.5991
33.3341
34.9043
36.3291
37.6197
38.774
39.7857
40.6397
41.3215
41.8092
42.0916
42.1658
41.9736
41.492
40.7
39.573
38.0953
27.9731
31.3827
34.4823
37.2487
39.7282
41.9611
43.9714
45.7753
47.3744
48.7686
49.9467
50.8988
51.6058
52.0558
52.2471
52.1507
51.7113
50.9054
49.6932
48.0405
31.7061
36.3665
40.5964
44.343
47.6601
50.602
53.2067
55.5054
57.5132
59.2435
60.6956
61.8712
62.7603
63.3576
63.655
63.6408
63.2633
62.4925
61.2711
59.5468
36.4505
42.6242
48.1617
52.9833
57.1673
60.8005
63.9518
66.6814
69.0274
71.0242
72.6869
74.0316
75.0577
75.7682
76.1511
76.2013
75.8877
75.1765
73.9897
72.2629
42.3951
50.317
57.2806
63.205
68.2259
72.4899
76.1151
79.2024
81.82
84.026
85.8522
87.3281
88.4611
89.261
89.7166
89.8191
89.5562
88.9036
87.7598
86.0502
49.7253
59.5726
68.0096
75.0077
80.8034
85.6288
89.6644
93.057
95.9055
98.2905
100.258
101.849
103.077
103.955
104.474
104.625
104.405
103.8
102.689
100.987
58.6025
70.4772
80.3734
88.3867
94.8938
100.228
104.636
108.309
111.375
113.931
116.038
117.744
119.066
120.023
120.604
120.802
120.617
120.051
118.96
117.247
69.1556
83.0848
94.3893
103.358
110.53
116.345
121.113
125.062
128.346
131.08
133.333
135.16
136.584
137.625
138.272
138.515
138.364
137.83
136.752
135.016
81.4694
97.4247
110.077
119.954
127.767
134.054
139.18
143.411
146.921
149.84
152.245
154.201
155.733
156.863
157.581
157.874
157.755
157.254
156.191
154.43
95.5956
113.517
127.461
138.217
146.659
153.414
158.9
163.415
167.152
170.256
172.816
174.902
176.544
177.767
178.56
178.908
178.827
178.363
177.328
175.558
111.553
131.369
146.56
158.17
167.228
174.442
180.277
185.063
189.013
192.289
194.989
197.196
198.942
200.258
201.13
201.541
201.506
201.092
200.11
198.358
129.346
150.98
167.369
179.802
189.446
197.086
203.234
208.252
212.375
215.784
218.592
220.89
222.721
224.119
225.074
225.564
225.591
225.242
224.345
222.658
148.95
172.315
189.84
203.035
213.2
221.195
227.579
232.75
236.968
240.436
243.283
245.616
247.489
248.945
249.982
250.594
250.728
250.433
249.651
248.093
170.321
195.3
213.856
227.704
238.27
246.491
252.978
258.165
262.346
265.749
268.523
270.794
272.628
274.081
275.157
275.85
276.103
275.949
275.359
274.049
193.364
219.791
239.208
253.527
264.297
272.536
278.911
283.904
287.843
290.988
293.517
295.577
297.251
298.611
299.671
300.433
300.836
300.879
300.561
299.642
217.94
245.563
265.579
280.085
290.756
298.699
304.647
309.132
312.53
315.141
317.174
318.804
320.139
321.271
322.233
323.044
323.659
324.016
324.045
323.658
243.829
272.29
292.517
306.795
316.932
324.131
329.2
332.74
335.179
336.867
338.062
338.961
339.701
340.404
341.128
341.911
342.723
343.512
344.144
344.464
270.744
299.542
319.438
332.909
341.905
347.742
351.322
353.325
354.238
354.48
354.406
354.181
353.975
353.97
354.262
354.908
355.903
357.211
358.698
360.175
298.323
326.791
345.625
357.509
364.553
368.209
369.495
369.213
367.862
365.868
363.496
361.309
359.596
358.522
358.187
358.568
359.695
361.582
364.125
367.173
326.159
353.443
370.27
379.552
383.585
384.007
381.948
378.036
373.248
368.546
364.091
360.224
357.178
355.116
354.156
354.32
355.51
357.854
361.281
365.642
353.839
378.888
392.517
397.891
397.674
393.412
386.479
378.675
370.302
361.736
353.959
347.252
341.871
338.094
336.079
335.862
337.159
340.207
345.088
351.656
381.021
402.58
411.46
411.505
405.232
395.082
382.752
368.959
355.284
342.418
330.91
321.175
313.486
308.047
304.985
304.398
305.997
309.806
316.134
324.867
407.511
423.935
426.601
419.349
405.367
387.303
367.328
347.031
327.63
309.995
294.684
282.049
272.273
265.467
261.692
261.02
263.046
267.837
275.808
286.88
433.139
442.968
437.511
420.588
396.627
368.963
340.285
312.618
287.332
265.271
246.838
232.166
221.22
213.93
210.226
210.076
212.949
219.167
229.154
242.813
458.154
459.96
443.526
414.488
378.232
339.352
301.343
266.607
236.505
211.59
191.841
176.957
166.538
160.269
157.991
159.279
163.758
172.347
185.324
202.248
483.537
474.837
444.462
400.174
349.514
298.706
252.192
212.449
180.324
155.577
137.388
124.802
116.978
113.364
113.782
117.63
125.42
137.888
156.361
181.326
510.162
487.565
439.267
376.554
310.269
248.834
197.321
157.073
127.398
106.626
92.8998
84.671
80.848
80.8391
84.0489
90.9716
102.462
120.763
148.11
180.484
537.773
496.249
425.172
341.639
261.356
194.009
143.064
107.52
84.2214
69.8065
61.5832
57.7874
57.4725
60.0753
65.9417
76.2396
92.7648
118.069
154.824
206.919
565.829
497.805
397.951
292.782
202.795
136.93
93.9891
68.237
53.6017
45.8494
42.3697
41.8469
43.709
48.1318
56.1642
69.4715
91.7784
127.348
186.35
271.126
592.637
486.001
350.911
228.275
140.209
87.0954
58.1739
43.5754
36.3909
33.0499
32.1284
33.0837
35.9082
41.335
50.7507
67.3631
96.3939
150.291
245.186
375.242
609.131
449.3
279.803
156.479
86.6571
53.808
38.9597
31.7061
28.054
26.5225
26.5003
27.8596
30.9528
36.6973
47.1595
67.3527
106.684
186.869
330.842
507.652
608.274
380.865
194.341
97.059
56.7515
39.1638
30.5066
25.9517
23.6073
22.6538
22.8111
24.156
27.1449
32.8874
44.013
67.2158
120.173
231.602
428.556
644.51
577.311
292.966
136.724
72.5337
45.5459
32.8488
26.3238
22.7463
20.8152
19.9991
20.1138
21.2956
24.02
29.487
40.7024
65.8415
128.377
270.357
518.209
773.803
551.515
264.292
123.104
64.9965
40.7543
29.5639
23.7569
20.5442
18.7992
18.0436
18.0947
19.0774
21.4358
26.3061
36.6363
60.9272
126.241
282.601
579.135
896.348
603.044
275.622
123.097
62.0062
37.9845
27.1586
21.7307
18.8308
17.2952
16.6303
16.6423
17.4247
19.355
23.4135
32.1431
52.8573
108.649
267.204
601.214
1014.07
793.109
330.522
130.418
60.5799
35.3989
24.9035
19.9715
17.4814
16.2186
15.6788
15.6698
16.2495
17.7207
20.8837
27.8355
44.7366
91.9642
233.306
590.355
1105.46
1060.74
391.898
135.212
56.7379
31.9179
22.4933
18.3721
16.4219
15.4908
15.1013
15.0819
15.4553
16.456
18.6605
23.6046
35.7851
70.8355
185.701
524.664
1146.29
1228.97
399.079
118.11
47.3199
26.9821
19.8111
16.8809
15.5864
15.0262
14.8277
14.8265
15.0242
15.5702
16.9082
20.0369
27.8848
50.799
131.31
421.451
1132.27
1256.12
313.363
83.6108
34.1496
21.3509
17.191
15.6375
15.046
14.8149
14.7315
14.7299
14.8127
15.0552
15.6853
17.287
21.4969
33.9111
79.1373
276.897
964.664
905.706
151.112
40.2723
22.0088
17.3097
15.6887
15.0716
14.8519
14.7607
14.7238
14.7247
14.7684
14.8821
15.1905
15.9536
17.9864
24.0156
45.5163
142.814
605.858
199.818
43.2207
20.6307
15.9893
15.0104
14.8419
14.8267
14.8066
14.7991
14.7988
14.7974
14.7934
14.7891
14.7509
14.7062
14.6773
14.8871
17.1301
38.481
239.899
9.69241
9.65468
9.61253
9.57357
9.53816
9.50651
9.47876
9.45502
9.43539
9.41992
9.40865
9.40161
9.39868
9.3998
9.40513
9.41462
9.42824
9.44596
9.46776
9.49362
9.7066
9.66822
9.62586
9.58666
9.55099
9.5191
9.49113
9.4672
9.4474
9.4318
9.42042
9.41327
9.41024
9.41126
9.4165
9.42592
9.43949
9.45717
9.47894
9.50478
9.7169
9.67823
9.63558
9.59608
9.56013
9.52796
9.49976
9.47563
9.45569
9.43996
9.42849
9.42126
9.41812
9.41902
9.42417
9.43353
9.44707
9.46476
9.48656
9.5124
9.72514
9.68616
9.6432
9.60339
9.56714
9.53468
9.50622
9.48188
9.46178
9.44593
9.43435
9.427
9.42377
9.42459
9.42973
9.43913
9.45277
9.47056
9.49244
9.5183
9.73197
9.69268
9.6494
9.60926
9.57268
9.5399
9.51114
9.4865
9.46612
9.45003
9.43828
9.43084
9.42765
9.42861
9.43399
9.44371
9.45771
9.47581
9.49788
9.52382
9.73793
9.69831
9.65472
9.61426
9.57736
9.54425
9.51516
9.4902
9.46954
9.45321
9.44134
9.43391
9.43087
9.43213
9.43793
9.44824
9.46309
9.48204
9.50452
9.53062
9.7435
9.70355
9.65966
9.6189
9.58172
9.54833
9.51898
9.49378
9.47292
9.45644
9.44449
9.43707
9.4341
9.43549
9.44144
9.45183
9.46655
9.4857
9.5082
9.53428
9.74904
9.70878
9.66461
9.62359
9.58616
9.55254
9.523
9.49763
9.47661
9.46001
9.44795
9.44039
9.43727
9.43843
9.44403
9.45382
9.46753
9.48599
9.50801
9.53401
9.7548
9.71426
9.66982
9.62855
9.59091
9.55711
9.52742
9.50194
9.48085
9.46417
9.45203
9.44436
9.44106
9.4419
9.44709
9.45638
9.46966
9.487
9.50851
9.53427
9.7608
9.71997
9.67527
9.63376
9.59593
9.56199
9.53222
9.5067
9.48563
9.46903
9.457
9.44945
9.44626
9.44715
9.45233
9.46161
9.47496
9.49228
9.51362
9.53892
9.76683
9.72573
9.68079
9.63905
9.60104
9.56697
9.53714
9.51163
9.49066
9.47424
9.4625
9.45534
9.45258
9.45391
9.45947
9.46905
9.48261
9.50003
9.52135
9.54651
9.7726
9.73127
9.68612
9.64419
9.60604
9.57186
9.54197
9.51645
9.49552
9.47924
9.46779
9.46114
9.45922
9.46139
9.46767
9.47776
9.49157
9.50903
9.53025
9.55513
9.77783
9.73636
9.69112
9.64912
9.61092
9.57669
9.54673
9.52111
9.50006
9.48362
9.47198
9.46513
9.46303
9.46508
9.47143
9.48204
9.49606
9.51352
9.53454
9.55886
9.78273
9.74124
9.69608
9.65416
9.61602
9.58181
9.55182
9.52608
9.50483
9.48805
9.47591
9.46834
9.46526
9.46643
9.47216
9.48257
9.4963
9.51367
9.53468
9.55898
9.78831
9.74682
9.70176
9.65994
9.62188
9.5877
9.5577
9.5319
9.51052
9.49353
9.48108
9.47307
9.46946
9.46995
9.4749
9.48408
9.49747
9.51487
9.5363
9.56157
9.79549
9.75384
9.70874
9.66686
9.62876
9.59453
9.56448
9.53862
9.51719
9.50012
9.48758
9.47942
9.47563
9.47591
9.48064
9.48965
9.50295
9.52037
9.54189
9.5673
9.8046
9.76263
9.71728
9.67515
9.63681
9.60236
9.57215
9.54617
9.52465
9.5075
9.49488
9.48665
9.48279
9.48297
9.48759
9.49648
9.5097
9.52705
9.54852
9.57386
9.816
9.77362
9.72792
9.68539
9.64665
9.61183
9.58128
9.55501
9.53325
9.5159
9.50313
9.49479
9.49086
9.49098
9.49553
9.50432
9.51738
9.53448
9.5556
9.58048
9.83009
9.78733
9.74129
9.69836
9.65919
9.62393
9.59298
9.56632
9.54423
9.52661
9.51364
9.50516
9.50113
9.50116
9.50563
9.51427
9.52708
9.54378
9.56435
9.58852
9.84711
9.80406
9.75779
9.71455
9.67504
9.63942
9.60811
9.58112
9.55874
9.54088
9.52772
9.51907
9.51492
9.51481
9.51912
9.52753
9.54
9.55625
9.57624
9.59967
9.86729
9.82407
9.77769
9.73426
9.69452
9.65863
9.62706
9.59982
9.57721
9.55914
9.54581
9.537
9.53269
9.53241
9.53649
9.5446
9.55671
9.57248
9.59187
9.61457
9.89086
9.84758
9.80121
9.7577
9.71782
9.68175
9.65
9.62255
9.59977
9.58152
9.56802
9.55906
9.55466
9.5542
9.55793
9.56568
9.57738
9.59263
9.61139
9.63329
9.9182
9.87498
9.82873
9.78523
9.7453
9.70912
9.67723
9.64964
9.62669
9.60828
9.59461
9.58547
9.58087
9.58019
9.58363
9.59101
9.60224
9.61691
9.63496
9.65598
9.9498
9.90678
9.86079
9.81742
9.77752
9.74129
9.70932
9.6816
9.65851
9.63994
9.6261
9.61675
9.61193
9.61099
9.61407
9.62102
9.6317
9.6457
9.66292
9.68293
9.98641
9.94373
9.89816
9.85504
9.81526
9.77906
9.74705
9.71923
9.69602
9.67727
9.66324
9.65364
9.64853
9.64727
9.64995
9.65638
9.66642
9.67962
9.69587
9.71469
10.0289
9.98674
9.94178
9.89906
9.85953
9.82344
9.79145
9.76357
9.74023
9.72131
9.70704
9.69714
9.69168
9.69001
9.69219
9.69797
9.70723
9.71946
9.73454
9.75197
10.0783
10.037
9.99289
9.95076
9.91163
9.87576
9.84386
9.81596
9.79251
9.77339
9.75884
9.74858
9.74266
9.74048
9.74202
9.747
9.75528
9.76633
9.77999
9.79572
10.1362
10.0959
10.053
10.0118
9.97326
9.93777
9.90606
9.87819
9.85465
9.8353
9.82042
9.80968
9.80318
9.80032
9.80103
9.80499
9.81203
9.8216
9.83351
9.84716
10.2043
10.1656
10.1244
10.0844
10.0468
10.0119
9.98053
9.95278
9.92916
9.90955
9.89423
9.88289
9.87561
9.87185
9.87147
9.87408
9.87952
9.8872
9.89689
9.90796
10.2853
10.2489
10.21
10.1719
10.1356
10.1016
10.0708
10.0433
10.0196
9.99966
9.98378
9.97162
9.96328
9.95828
9.95641
9.95719
9.9605
9.96569
9.97252
9.9803
10.3828
10.3497
10.3143
10.2788
10.2446
10.212
10.1821
10.155
10.1313
10.111
10.0943
10.081
10.0711
10.0643
10.0603
10.0586
10.059
10.0608
10.0638
10.0673
10.5024
10.4742
10.444
10.4125
10.3814
10.351
10.3226
10.2962
10.2725
10.2516
10.2338
10.2188
10.2068
10.1972
10.19
10.1846
10.1809
10.178
10.1757
10.1733
10.6525
10.6319
10.6095
10.5844
10.5582
10.5314
10.5053
10.4801
10.4567
10.4349
10.4154
10.3978
10.3823
10.3686
10.3565
10.3455
10.3355
10.3256
10.3158
10.3049
10.8465
10.8379
10.8281
10.8132
10.7949
10.774
10.7518
10.7287
10.7057
10.6827
10.6603
10.6385
10.6176
10.5971
10.5772
10.5575
10.5377
10.5172
10.4958
10.4726
11.1061
11.1176
11.1281
11.1301
11.125
11.1139
11.0984
11.0789
11.0565
11.0315
11.0046
10.9759
10.9458
10.9143
10.8817
10.8475
10.8121
10.7747
10.7353
10.693
11.4709
11.5141
11.557
11.5875
11.6043
11.6099
11.6056
11.5924
11.5715
11.5433
11.5089
11.4685
11.4232
11.3731
11.3191
11.2611
11.1997
11.1346
11.0661
10.9935
12.004
12.1005
12.2
12.2741
12.3256
12.3603
12.375
12.373
12.3551
12.3219
12.275
12.2151
12.144
12.0626
11.9724
11.8742
11.7693
11.6582
11.5417
11.4194
12.8065
12.9923
13.1854
13.3375
13.4503
13.5252
13.5694
13.5884
13.5767
13.5361
13.4689
13.3769
13.2629
13.129
12.9782
12.8126
12.6349
12.4468
12.2503
12.0459
14.0419
14.3748
14.7215
15.0009
15.214
15.3626
15.4522
15.4939
15.4964
15.4453
15.3468
15.2039
15.0211
14.8023
14.5528
14.2768
13.9793
13.6641
13.3356
12.996
15.9584
16.5229
17.1094
17.5861
17.9528
18.2125
18.3727
18.4501
18.4688
18.4042
18.2615
18.0441
17.759
17.4119
17.0111
16.5634
16.0775
15.5605
15.0204
14.463
18.8998
19.8019
20.731
21.4826
22.0575
22.4629
22.7126
22.8311
22.8607
22.7934
22.5985
22.2877
21.87
21.3523
20.7447
20.0562
19.299
18.4841
17.625
16.7331
23.2659
24.5971
25.9425
27.0105
27.8102
28.3613
28.6939
28.8495
28.8927
28.8194
28.5768
28.1771
27.6274
26.9305
26.0942
25.125
24.0348
22.8357
21.546
20.1848
29.3692
31.1259
32.8466
34.1632
35.1114
35.7352
36.0933
36.2503
36.2944
36.223
35.963
35.524
34.9058
34.0976
33.0965
31.8984
30.5049
28.9171
27.1489
25.2231
37.1929
39.1984
41.0794
42.4453
43.3763
43.931
44.2172
44.3256
44.3498
44.2878
44.0552
43.6594
43.0908
42.3087
41.2943
40.0355
38.5114
36.6892
34.5503
32.1058
46.2722
48.221
49.9513
51.146
51.9386
52.4181
52.6657
52.7585
52.7818
52.727
52.5012
52.1162
51.5742
50.8614
49.9613
48.8368
47.4383
45.6764
43.4363
40.7205
55.9968
57.8754
59.5839
60.7628
61.54
62.0006
62.2315
62.3188
62.3454
62.3006
62.0809
61.6995
61.1594
60.4455
59.5427
58.4156
57.0222
55.2999
53.1784
50.5444
66.7401
68.7214
70.5219
71.779
72.6193
73.1259
73.3917
73.4937
73.5206
73.4838
73.2577
72.8558
72.2819
71.5215
70.5623
69.3733
67.9197
66.1421
63.9621
61.2677
78.9703
81.1736
83.1772
84.5848
85.5379
86.125
86.4418
86.5663
86.6002
86.5754
86.3447
85.9195
85.3033
84.4813
83.4426
82.1547
80.5817
78.6614
76.3171
73.4365
93.0919
95.6048
97.8986
99.5216
100.634
101.336
101.734
101.893
101.924
101.913
101.688
101.242
100.577
99.6795
98.5382
97.1187
95.3826
93.2637
90.6783
87.5015
109.462
112.369
115.033
116.932
118.251
119.1
119.595
119.802
119.834
119.823
119.655
119.188
118.466
117.476
116.211
114.631
112.695
110.328
107.436
103.877
128.458
131.846
134.96
137.202
138.779
139.818
140.444
140.736
140.83
140.853
140.683
140.175
139.381
138.284
136.872
135.103
132.928
130.264
127.003
122.982
150.473
154.435
158.089
160.746
162.639
163.909
164.681
165.06
165.296
165.42
165.197
164.645
163.772
162.554
160.975
158.985
156.531
153.517
149.822
145.256
175.93
180.571
184.866
188.021
190.302
191.869
192.859
193.376
193.691
193.873
193.667
193.088
192.138
190.789
189.022
186.781
184.006
180.589
176.391
171.194
205.269
210.705
215.753
219.498
222.245
224.174
225.436
226.13
226.534
226.783
226.623
226.033
225.008
223.52
221.545
219.022
215.884
212.008
207.235
201.313
238.938
245.297
251.222
255.666
258.972
261.346
262.961
263.907
264.387
264.631
264.618
264.037
262.944
261.309
259.108
256.275
252.731
248.341
242.919
236.179
277.362
284.785
291.727
296.988
300.956
303.866
305.917
307.203
307.876
308.184
308.224
307.655
306.496
304.708
302.266
299.094
295.104
290.141
283.997
276.34
320.928
329.569
337.678
343.888
348.633
352.177
354.745
356.444
357.397
357.78
357.841
357.387
356.185
354.25
351.554
348.019
343.543
337.956
331.016
322.348
369.916
379.946
389.388
396.694
402.347
406.64
409.816
411.989
413.295
413.928
414.111
413.714
412.466
410.378
407.419
403.498
398.502
392.236
384.429
374.655
424.461
436.072
447.023
455.588
462.3
467.483
471.403
474.192
475.994
476.922
477.226
476.904
475.628
473.399
470.175
465.856
460.309
453.32
444.581
433.615
484.956
498.259
510.832
520.749
528.596
534.736
539.475
542.957
545.319
546.636
547.17
546.987
545.725
543.381
539.903
535.177
529.056
521.3
511.569
499.329
552.738
567.895
582.257
593.663
602.759
609.951
615.572
619.787
622.739
624.489
625.285
625.26
624.05
621.63
617.931
612.827
606.146
597.619
586.86
573.272
629.031
646.218
662.541
675.572
686.023
694.352
700.927
705.936
709.538
711.784
712.869
712.998
711.932
709.481
705.604
700.15
692.92
683.613
671.786
656.767
715.023
734.408
752.853
767.637
779.549
789.102
796.708
802.585
806.911
809.743
811.231
811.583
810.64
808.2
804.203
798.447
790.703
780.63
767.72
751.214
811.822
833.546
854.247
870.891
884.349
895.203
903.909
910.72
915.835
919.325
921.311
921.963
921.205
918.855
914.82
908.841
900.655
889.869
875.903
857.894
920.454
944.605
967.644
986.208
1001.26
1013.46
1023.32
1031.11
1037.08
1041.3
1043.86
1044.91
1044.43
1042.27
1038.33
1032.26
1023.76
1012.38
997.452
978.001
1041.76
1068.34
1093.71
1114.18
1130.81
1144.35
1155.36
1164.17
1171.03
1176.04
1179.29
1180.84
1180.74
1178.91
1175.24
1169.27
1160.66
1148.88
1133.18
1112.45
1176.3
1205.18
1232.74
1254.98
1273.08
1287.86
1299.96
1309.76
1317.52
1323.38
1327.41
1329.64
1330.07
1328.69
1325.51
1319.93
1311.5
1299.65
1283.5
1261.8
1324.19
1355.04
1384.44
1408.14
1427.43
1443.23
1456.25
1466.92
1475.54
1482.26
1487.16
1490.22
1491.4
1490.71
1488.27
1483.47
1475.67
1464.22
1448.13
1425.98
1484.86
1517.06
1547.68
1572.26
1592.25
1608.66
1622.28
1633.59
1642.93
1650.48
1656.32
1660.4
1662.61
1662.9
1661.52
1658.03
1651.47
1641.1
1625.82
1604.01
1656.74
1689.28
1720.09
1744.65
1764.53
1780.87
1794.54
1806.07
1815.87
1824.13
1830.96
1836.31
1840.04
1841.91
1841.91
1840.13
1835.59
1827.26
1813.85
1793.54
1836.85
1868.21
1897.65
1920.8
1939.38
1954.62
1967.48
1978.58
1988.37
1997.09
2004.85
2011.63
2017.26
2021.46
2023.81
2024.21
2022.61
2017.64
2007.58
1990.41
2020.27
2048.25
2074.12
2093.88
2109.42
2122.08
2132.93
2142.63
2151.7
2160.41
2168.93
2177.25
2185.2
2192.49
2198.6
2202.89
2204.89
2204.45
2199.69
2187.89
2199.53
2221.13
2240.38
2254.09
2264.24
2272.32
2279.49
2286.46
2293.77
2301.77
2310.67
2320.5
2331.13
2342.23
2353.27
2363.58
2372.26
2378.07
2379.76
2375.95
2363.9
2375.19
2383.91
2388.1
2389.78
2390.73
2392.2
2394.74
2398.91
2405.16
2413.81
2424.96
2438.49
2454.05
2471.02
2488.62
2506.07
2522.07
2534.59
2540.96
2498.79
2494.84
2488.4
2479.12
2468.25
2458.85
2450.82
2445.39
2443.87
2446.6
2453.93
2465.96
2482.64
2503.76
2528.83
2557
2586.65
2615.98
2643.78
2666.71
2586.89
2561.43
2532.07
2503.37
2478.27
2460.07
2444.07
2432.79
2426.92
2426.6
2432.53
2444.78
2463.35
2488.03
2518.42
2553.79
2592.77
2632.68
2677.43
2722
2602.79
2558.17
2509.19
2462.35
2418.7
2376.17
2344.58
2322.09
2308.43
2302.72
2305.49
2317.35
2338.23
2368.1
2406.8
2454.12
2510
2575.34
2639.11
2702.47
2542.02
2458.22
2376.51
2302.44
2237.16
2182.24
2138.24
2105.23
2083.39
2072.36
2071.8
2082.62
2104.86
2138.83
2184.53
2241.85
2310.2
2388.57
2475.18
2566.81
2355.72
2245.11
2135.23
2038.08
1954.81
1885.61
1830.32
1788.6
1760.29
1744.96
1741.78
1751.37
1774.01
1810.45
1861.09
1926.24
2005.81
2099.03
2204.25
2318.52
2068.59
1932.66
1801.48
1687.94
1592.46
1514.49
1453.1
1407.29
1376.2
1359.05
1354.97
1364.16
1386.93
1424.47
1477.8
1547.82
1635.1
1739.5
1859.46
1991.27
1719.86
1569.48
1429.92
1311.04
1212.84
1134.19
1073.51
1029.14
999.741
984.175
981.541
991.863
1015.61
1054.4
1109.72
1183.1
1275.94
1388.96
1520.79
1665.45
1402.48
1241.36
1099.01
980.934
886.136
812.172
756.416
716.443
690.435
676.984
675.082
684.79
706.885
743.253
795.989
867.797
961.979
1082.33
1230.62
1396.1
1142.86
963.008
814.181
699.308
611.833
546.286
498.363
464.792
443.387
432.595
431.356
439.871
459.175
491.465
539.594
607.928
703.189
836.669
1022.29
1246.09
1033.56
771.648
596.53
480.062
398.873
342.025
302.291
275.313
258.528
250.302
249.543
256.659
272.873
300.718
344.054
409.801
510.862
675.701
969.701
1272.6
1108.06
731.449
481.547
332.541
251.067
200.331
167.102
145.542
132.602
126.515
126.217
132.256
145.998
170.312
210.476
277.861
401.858
645.553
1074.66
1565.31
1481.47
882.416
481.054
272.44
169.074
117.438
88.7078
71.978
62.6657
58.5921
58.744
63.6243
74.7248
95.6658
134.948
216.186
388.047
750.57
1432.21
2171.79
2198.25