/*--------------------------------*- C++ -*----------------------------------*\
  =========                 |
  \\      /  F ield         | OpenFOAM: The Open Source CFD Toolbox
   \\    /   O peration     | Website:  https://openfoam.org
    \\  /    A nd           | Version:  6
     \\/     M anipulation  |
\*---------------------------------------------------------------------------*/
FoamFile
{
    version     2.0;
    format      ascii;
    class       volScalarField;
    location    "29";
    object      k;
}
// * * * * * * * * * * * * * * * * * * * * * * * * * * * * * * * * * * * * * //

dimensions      [0 2 -2 0 0 0 0];

internalField   nonuniform List<scalar> 
10000
(
0.208479
0.528424
0.488255
0.43011
0.377432
0.33747
0.310724
0.294649
0.285873
0.282479
0.283212
0.287784
0.297711
0.314553
0.341406
0.380532
0.431729
0.488386
0.527591
0.208385
0.208313
0.528132
0.488038
0.429953
0.377411
0.337608
0.311014
0.295164
0.28642
0.283212
0.284262
0.288284
0.298156
0.314821
0.341554
0.380523
0.43163
0.48794
0.527189
0.208357
0.208375
0.528168
0.487681
0.429392
0.377355
0.337646
0.311089
0.296103
0.286701
0.284767
0.285313
0.288379
0.298996
0.315106
0.341803
0.38035
0.431562
0.488212
0.527392
0.20841
0.208372
0.528207
0.488212
0.429688
0.377355
0.337871
0.311056
0.294929
0.286608
0.284307
0.284776
0.288158
0.297645
0.315523
0.341397
0.380232
0.431134
0.488434
0.527344
0.20844
0.208402
0.528196
0.488124
0.429627
0.377343
0.337618
0.311172
0.295182
0.286618
0.283625
0.283977
0.287988
0.297626
0.31532
0.341309
0.3802
0.431471
0.488535
0.527723
0.208506
0.208463
0.528181
0.488128
0.429712
0.377262
0.337547
0.311843
0.296275
0.287002
0.28499
0.285234
0.288234
0.297661
0.314951
0.341105
0.380187
0.431418
0.488431
0.527814
0.208535
0.208437
0.527976
0.487646
0.429735
0.377191
0.337387
0.310917
0.295157
0.286758
0.283343
0.283642
0.288091
0.2976
0.315807
0.341084
0.380033
0.431222
0.487929
0.527675
0.208491
0.208447
0.527991
0.487758
0.429291
0.376926
0.337284
0.310815
0.295172
0.287949
0.283568
0.284824
0.289397
0.297664
0.314968
0.34084
0.37979
0.431029
0.488228
0.527947
0.208633
0.208524
0.527972
0.487689
0.429118
0.37684
0.33733
0.31089
0.295153
0.287129
0.284254
0.283818
0.288262
0.297524
0.314135
0.340634
0.379487
0.430458
0.488074
0.528076
0.208615
0.208595
0.528077
0.487221
0.428759
0.376644
0.337409
0.310883
0.295099
0.287752
0.283144
0.284693
0.289233
0.298236
0.314399
0.340689
0.379393
0.430298
0.487751
0.527991
0.208528
0.208554
0.528022
0.487043
0.428448
0.376363
0.337294
0.310956
0.294982
0.285863
0.282845
0.28333
0.287215
0.297436
0.314958
0.340969
0.379241
0.429805
0.487178
0.52786
0.208438
0.208501
0.527948
0.486634
0.427837
0.375928
0.336821
0.311352
0.295786
0.285828
0.283225
0.282393
0.287206
0.298103
0.314243
0.340328
0.378855
0.429507
0.486976
0.527556
0.208211
0.208352
0.527636
0.486003
0.427476
0.375704
0.3363
0.310279
0.294384
0.285489
0.282646
0.282457
0.287296
0.29702
0.314343
0.340302
0.378451
0.428959
0.486487
0.527385
0.208044
0.208304
0.527495
0.485648
0.426983
0.3754
0.336181
0.311119
0.295704
0.285928
0.282133
0.282749
0.28755
0.296927
0.31317
0.339412
0.377942
0.428314
0.48578
0.527117
0.207856
0.208149
0.527294
0.485239
0.426655
0.375047
0.33583
0.310476
0.295375
0.287246
0.283713
0.283855
0.288258
0.297283
0.313207
0.339384
0.377764
0.42795
0.485436
0.527001
0.207713
0.208082
0.527161
0.484847
0.426198
0.374719
0.33566
0.309763
0.294812
0.286656
0.282837
0.283896
0.289691
0.298173
0.313312
0.339407
0.377333
0.427255
0.484754
0.526685
0.207501
0.207872
0.526819
0.484309
0.425621
0.374286
0.33568
0.309764
0.293625
0.286064
0.281824
0.282619
0.288219
0.296363
0.313426
0.339698
0.376963
0.426705
0.484371
0.526471
0.207352
0.207706
0.526551
0.483722
0.424902
0.373709
0.334786
0.309038
0.293279
0.285211
0.281974
0.282615
0.28715
0.295957
0.312081
0.338916
0.376359
0.426093
0.483767
0.526196
0.207171
0.207494
0.526263
0.483054
0.424124
0.373255
0.334722
0.309025
0.293512
0.285442
0.283437
0.284322
0.287349
0.295872
0.311677
0.3385
0.375816
0.425367
0.483108
0.525897
0.206942
0.20723
0.525902
0.482416
0.423581
0.372831
0.335035
0.309835
0.293902
0.285647
0.282502
0.284057
0.288664
0.296829
0.31151
0.338082
0.375073
0.424475
0.482265
0.525556
0.20668
0.207003
0.525511
0.481669
0.422827
0.372163
0.334249
0.309105
0.294853
0.285967
0.282493
0.283926
0.288061
0.295587
0.310928
0.337319
0.374245
0.42354
0.48142
0.52514
0.206373
0.206789
0.525188
0.481042
0.422113
0.371597
0.334319
0.30906
0.294344
0.287252
0.282623
0.283103
0.287585
0.295588
0.31063
0.336439
0.3733
0.422531
0.480631
0.524724
0.206094
0.206623
0.524923
0.480465
0.421442
0.370988
0.333489
0.309806
0.295418
0.286981
0.282665
0.283192
0.289075
0.296524
0.310441
0.335278
0.37233
0.421477
0.47969
0.524084
0.205689
0.206396
0.524628
0.479968
0.420816
0.370502
0.332922
0.309392
0.294871
0.286229
0.282819
0.283116
0.28779
0.295102
0.310025
0.334341
0.371386
0.420474
0.478911
0.52375
0.205468
0.206218
0.524358
0.479334
0.420149
0.370053
0.332825
0.309229
0.2943
0.286372
0.283048
0.283103
0.286624
0.294663
0.310082
0.334152
0.370611
0.419644
0.478182
0.523299
0.205161
0.206001
0.524088
0.47881
0.419546
0.3696
0.332808
0.308708
0.294446
0.287004
0.283776
0.283717
0.286988
0.294694
0.309956
0.334237
0.369755
0.41873
0.477512
0.52304
0.20499
0.205789
0.523805
0.478062
0.418833
0.369183
0.333307
0.308906
0.294926
0.28863
0.285551
0.284347
0.287354
0.29464
0.308584
0.332938
0.368848
0.417852
0.476699
0.522663
0.204688
0.205542
0.523505
0.477339
0.417979
0.368511
0.332848
0.309254
0.296095
0.288017
0.284725
0.285033
0.28916
0.295229
0.308629
0.332114
0.368098
0.416981
0.475906
0.522306
0.204409
0.205274
0.523128
0.476551
0.417195
0.367955
0.33266
0.309568
0.296792
0.289923
0.28674
0.285791
0.288957
0.295552
0.308876
0.331187
0.367333
0.416138
0.475139
0.521988
0.20417
0.20499
0.522729
0.475741
0.416281
0.367312
0.332501
0.310118
0.297472
0.290805
0.287765
0.287888
0.290114
0.297159
0.308984
0.331061
0.366773
0.415322
0.474371
0.521601
0.203908
0.204746
0.522405
0.474978
0.415477
0.366726
0.332142
0.31126
0.298943
0.29203
0.289125
0.289226
0.292194
0.297908
0.309874
0.331043
0.366074
0.414489
0.473632
0.521252
0.203708
0.204499
0.522071
0.474236
0.414675
0.366165
0.331794
0.311587
0.299858
0.293466
0.291123
0.290957
0.293204
0.298907
0.309992
0.331053
0.365511
0.413692
0.472937
0.520924
0.203514
0.204193
0.521651
0.473413
0.413851
0.365677
0.33184
0.312338
0.301106
0.295223
0.292433
0.292184
0.294318
0.299416
0.30997
0.330685
0.364692
0.412755
0.472127
0.520688
0.203358
0.203879
0.521185
0.472558
0.412986
0.365085
0.331982
0.312664
0.302139
0.296664
0.294091
0.29357
0.295384
0.30039
0.310333
0.330489
0.364075
0.411858
0.471351
0.52043
0.203132
0.20356
0.520737
0.471631
0.412061
0.364527
0.331792
0.312693
0.302941
0.297671
0.295203
0.294763
0.296615
0.301309
0.311359
0.330309
0.363377
0.410854
0.470405
0.519968
0.202794
0.203198
0.520226
0.470629
0.411089
0.363913
0.331656
0.313564
0.303982
0.298879
0.296437
0.29594
0.297649
0.302242
0.311936
0.330619
0.362784
0.409835
0.469455
0.519422
0.202436
0.202901
0.51974
0.469605
0.410018
0.363239
0.331886
0.314147
0.304868
0.299988
0.297696
0.297271
0.298836
0.303218
0.312543
0.330458
0.361991
0.408697
0.468329
0.51882
0.202053
0.202588
0.519211
0.468613
0.408979
0.362567
0.331657
0.314707
0.3057
0.301014
0.298848
0.29844
0.299871
0.304039
0.313105
0.330312
0.361279
0.407567
0.467235
0.518149
0.201666
0.202353
0.518783
0.467658
0.407907
0.361826
0.331424
0.315329
0.30664
0.302188
0.300124
0.299709
0.30105
0.304976
0.31357
0.330007
0.360448
0.406367
0.466099
0.517528
0.20132
0.202056
0.518312
0.466613
0.406795
0.361181
0.331689
0.315841
0.307528
0.303283
0.301315
0.30092
0.302156
0.305867
0.314058
0.330266
0.359759
0.405239
0.465
0.517024
0.201023
0.20174
0.517844
0.465526
0.405657
0.360393
0.33115
0.316299
0.308415
0.304349
0.302436
0.302019
0.303171
0.306673
0.314357
0.329692
0.358929
0.404096
0.463884
0.51648
0.200684
0.201352
0.517271
0.46427
0.404396
0.359573
0.330408
0.316377
0.30905
0.30532
0.303579
0.303205
0.304264
0.307546
0.31482
0.329281
0.358229
0.402989
0.462762
0.515945
0.200403
0.200918
0.516603
0.46302
0.40315
0.35874
0.330034
0.316105
0.309555
0.306157
0.304592
0.304292
0.305341
0.308484
0.315414
0.329334
0.35765
0.401973
0.461767
0.515407
0.200135
0.200505
0.515893
0.46171
0.401826
0.35787
0.329768
0.315148
0.309832
0.306975
0.305658
0.305423
0.30639
0.30931
0.315899
0.32965
0.356976
0.400874
0.460741
0.514926
0.199905
0.200096
0.515197
0.460409
0.400455
0.356824
0.32998
0.315452
0.310024
0.307631
0.30657
0.306419
0.307328
0.310023
0.316175
0.329329
0.356219
0.399757
0.45968
0.514504
0.199665
0.199683
0.514459
0.459023
0.398986
0.355467
0.328041
0.3134
0.309233
0.308023
0.30738
0.307358
0.308171
0.31052
0.316015
0.328913
0.355349
0.398481
0.458461
0.514013
0.199376
0.199344
0.513845
0.457647
0.397472
0.354137
0.32653
0.312878
0.307933
0.308134
0.307922
0.308024
0.308716
0.31062
0.315261
0.328124
0.35441
0.397157
0.457201
0.513507
0.199086
0.198942
0.513129
0.456199
0.395893
0.352809
0.32545
0.312941
0.308419
0.308074
0.308039
0.308263
0.308801
0.310084
0.315987
0.327196
0.3534
0.395745
0.45582
0.512851
0.1987
0.198588
0.512472
0.454742
0.394224
0.35133
0.325005
0.312322
0.305927
0.306574
0.307092
0.307589
0.30804
0.309118
0.314544
0.326739
0.352307
0.394205
0.454362
0.512145
0.198324
0.198145
0.511713
0.453205
0.392519
0.349721
0.32496
0.311161
0.305227
0.304555
0.305244
0.306014
0.306759
0.309896
0.313642
0.326793
0.351154
0.392611
0.452826
0.511396
0.197886
0.197744
0.510947
0.451568
0.390737
0.34793
0.322956
0.309524
0.305
0.305474
0.306887
0.308015
0.307789
0.307983
0.313278
0.324916
0.349651
0.390831
0.45114
0.510616
0.197426
0.197323
0.510196
0.449903
0.388937
0.346208
0.32171
0.309224
0.304778
0.302258
0.303174
0.304712
0.304545
0.305614
0.311012
0.323183
0.348254
0.389024
0.44936
0.50979
0.196908
0.196848
0.509321
0.448089
0.387011
0.344316
0.321704
0.310203
0.304652
0.30166
0.301525
0.302225
0.302726
0.305217
0.312027
0.322803
0.346979
0.387075
0.44743
0.508872
0.196346
0.196412
0.50853
0.446276
0.385098
0.342437
0.320342
0.308618
0.302725
0.30106
0.301195
0.302148
0.302231
0.304867
0.310802
0.321403
0.345476
0.385034
0.445406
0.50784
0.195733
0.19584
0.507589
0.44418
0.38302
0.34176
0.320237
0.310161
0.302765
0.30046
0.30071
0.302988
0.301618
0.303475
0.309537
0.321092
0.344006
0.382796
0.443205
0.506694
0.195051
0.195211
0.506565
0.441898
0.380622
0.341137
0.318619
0.307944
0.303051
0.300326
0.300461
0.30111
0.301277
0.302958
0.308102
0.3216
0.342221
0.380297
0.440775
0.505413
0.194274
0.194395
0.505225
0.439282
0.377937
0.338688
0.316296
0.305779
0.300743
0.299961
0.300723
0.302752
0.301499
0.302988
0.307679
0.31988
0.340059
0.377604
0.438135
0.504042
0.193416
0.193487
0.503729
0.436396
0.374979
0.336601
0.314877
0.304175
0.301167
0.300566
0.300704
0.300985
0.301114
0.303827
0.307877
0.318522
0.337944
0.374738
0.435219
0.502459
0.192413
0.192384
0.501983
0.43315
0.371687
0.334116
0.31325
0.303944
0.303506
0.303237
0.30173
0.301435
0.301244
0.301842
0.305167
0.316671
0.33549
0.371518
0.431961
0.500611
0.191263
0.191164
0.50006
0.429646
0.368188
0.331463
0.311194
0.303851
0.303423
0.302805
0.302448
0.302527
0.302194
0.30235
0.305016
0.315237
0.332984
0.368192
0.428552
0.498645
0.190048
0.189744
0.497859
0.425842
0.36456
0.328944
0.310061
0.304022
0.303451
0.304621
0.305262
0.303916
0.303189
0.302966
0.30504
0.313545
0.330323
0.364687
0.424891
0.496472
0.188701
0.188199
0.495428
0.421819
0.360886
0.326529
0.310075
0.306098
0.304844
0.3055
0.306861
0.307177
0.306567
0.305629
0.30537
0.31173
0.327603
0.361086
0.421055
0.494116
0.187252
0.186478
0.49273
0.417657
0.357284
0.324267
0.310508
0.307127
0.308015
0.309235
0.309553
0.309208
0.308062
0.306075
0.305909
0.310757
0.325333
0.35762
0.417137
0.491578
0.185686
0.184573
0.489751
0.413286
0.35378
0.32221
0.309767
0.308345
0.309478
0.311046
0.311484
0.31152
0.310112
0.307421
0.307083
0.309803
0.322976
0.354068
0.413024
0.488873
0.183983
0.182513
0.486624
0.408821
0.350534
0.320754
0.311113
0.30986
0.311429
0.312992
0.313601
0.313473
0.312363
0.31035
0.307747
0.30919
0.320893
0.350724
0.408822
0.485982
0.182122
0.180163
0.483064
0.404059
0.347306
0.319524
0.311697
0.311677
0.313455
0.315112
0.315862
0.315704
0.31442
0.312409
0.310466
0.31085
0.319458
0.347657
0.404461
0.482742
0.180031
0.177662
0.479214
0.399181
0.344319
0.319422
0.312758
0.313107
0.315419
0.317434
0.318449
0.318254
0.316785
0.314397
0.311894
0.311517
0.318347
0.344736
0.400008
0.4793
0.177812
0.174906
0.474865
0.394093
0.341321
0.31996
0.313998
0.31506
0.317572
0.31964
0.320666
0.320542
0.319224
0.31691
0.314315
0.313439
0.318379
0.342136
0.395351
0.475405
0.175284
0.172027
0.470125
0.388962
0.338388
0.31916
0.315297
0.316933
0.319715
0.321978
0.323136
0.323034
0.321689
0.319248
0.316409
0.314678
0.318366
0.339359
0.390547
0.471229
0.172668
0.16911
0.465157
0.383915
0.335749
0.318815
0.316387
0.318662
0.321681
0.324005
0.325198
0.325159
0.323873
0.321509
0.318513
0.316497
0.319122
0.33714
0.385713
0.466526
0.169802
0.166249
0.460127
0.379144
0.333568
0.318723
0.317585
0.320351
0.323563
0.326008
0.327281
0.327265
0.32599
0.323585
0.320438
0.317717
0.319013
0.33482
0.380926
0.46168
0.167057
0.163563
0.455123
0.374772
0.331983
0.318957
0.319058
0.322231
0.325535
0.327961
0.329212
0.32922
0.327982
0.325581
0.32234
0.319337
0.319526
0.333109
0.37639
0.456587
0.164261
0.161145
0.450243
0.370909
0.331113
0.320437
0.320812
0.324093
0.327407
0.329831
0.331097
0.331139
0.329959
0.327621
0.324387
0.32119
0.320964
0.33198
0.372249
0.451626
0.161783
0.159046
0.445461
0.367414
0.330541
0.321479
0.322479
0.325918
0.329217
0.33159
0.332825
0.33288
0.331746
0.329457
0.326209
0.322782
0.321782
0.331113
0.368361
0.446524
0.159405
0.157324
0.440866
0.364356
0.330283
0.322666
0.324164
0.327725
0.331012
0.33335
0.334568
0.33464
0.333562
0.331351
0.328166
0.324681
0.323221
0.330731
0.365008
0.441621
0.157447
0.155885
0.436265
0.361533
0.330274
0.32388
0.325866
0.329546
0.332808
0.335087
0.336268
0.33634
0.335297
0.333128
0.329933
0.326261
0.324223
0.330454
0.361797
0.4366
0.155596
0.1546
0.431482
0.358763
0.330254
0.325236
0.327677
0.331434
0.33466
0.336887
0.338037
0.338111
0.337105
0.334997
0.331846
0.328093
0.325571
0.330411
0.358873
0.431633
0.154023
0.152934
0.426259
0.355868
0.330086
0.32651
0.32944
0.333316
0.336533
0.338722
0.33984
0.339903
0.338908
0.336822
0.333672
0.329803
0.326801
0.330193
0.355839
0.426233
0.15236
0.150963
0.420405
0.352808
0.32993
0.327859
0.331288
0.335276
0.338477
0.340624
0.341712
0.341764
0.340778
0.338714
0.335566
0.331577
0.328071
0.329923
0.352694
0.420311
0.150678
0.149201
0.413764
0.349515
0.329795
0.329292
0.33321
0.337297
0.340468
0.342559
0.343605
0.343644
0.342675
0.340648
0.337518
0.333434
0.329455
0.329828
0.3494
0.4136
0.14882
0.147197
0.406241
0.346052
0.329909
0.330865
0.335278
0.339444
0.342566
0.344586
0.345581
0.345607
0.344663
0.342685
0.339588
0.33542
0.330957
0.3299
0.345885
0.406012
0.146916
0.14525
0.39777
0.342503
0.330173
0.332614
0.337492
0.341716
0.344773
0.346712
0.347653
0.34767
0.346759
0.344849
0.34181
0.337592
0.332685
0.330167
0.34238
0.397568
0.145077
0.143638
0.38864
0.33922
0.330869
0.334718
0.339948
0.344155
0.347098
0.348928
0.349804
0.349812
0.348951
0.347137
0.344203
0.339999
0.334754
0.330862
0.339144
0.388472
0.143636
0.142947
0.37894
0.336305
0.331981
0.33711
0.342591
0.346716
0.349504
0.351203
0.352004
0.352008
0.351213
0.349522
0.346738
0.342614
0.337125
0.331979
0.336291
0.378843
0.142944
0.142744
0.369171
0.334314
0.333729
0.339895
0.345457
0.349397
0.351972
0.353507
0.354222
0.354224
0.35351
0.351978
0.349405
0.345465
0.339901
0.333729
0.334312
0.369166
0.142735
0.144132
0.35967
0.33337
0.336037
0.343017
0.348483
0.352138
0.354442
0.355783
0.356399
0.356399
0.355783
0.35444
0.352136
0.348478
0.343011
0.336029
0.333375
0.359697
0.144121
0.146803
0.350821
0.333121
0.338972
0.346443
0.351633
0.354898
0.356873
0.35799
0.358493
0.358492
0.357988
0.356869
0.354894
0.351626
0.346438
0.338973
0.333128
0.35086
0.146792
0.151429
0.343089
0.334278
0.342655
0.350165
0.354858
0.357623
0.359213
0.360078
0.360458
0.360456
0.360074
0.359206
0.357616
0.354849
0.350159
0.342654
0.334273
0.343123
0.151426
0.157844
0.336827
0.336761
0.346972
0.354103
0.358097
0.360265
0.361424
0.362016
0.362265
0.362263
0.362013
0.361419
0.360261
0.358095
0.354108
0.34699
0.336772
0.336835
0.157824
0.166591
0.33316
0.340842
0.351978
0.358216
0.361304
0.362787
0.363479
0.363783
0.363895
0.363894
0.363781
0.363476
0.362784
0.361304
0.358221
0.351991
0.34086
0.33317
0.166598
0.177404
0.331709
0.346363
0.357354
0.362373
0.364411
0.36515
0.365353
0.365363
0.365338
0.365337
0.365362
0.365352
0.36515
0.364415
0.36238
0.357364
0.346375
0.331719
0.177382
0.190821
0.332036
0.35344
0.36323
0.366557
0.367375
0.367318
0.367024
0.366747
0.366589
0.366589
0.366746
0.367024
0.367318
0.367377
0.36656
0.363233
0.353447
0.332037
0.190825
0.207009
0.338504
0.362329
0.369351
0.370569
0.370076
0.369226
0.368463
0.367925
0.36765
0.367649
0.367923
0.368462
0.369225
0.370076
0.370572
0.369357
0.362344
0.338514
0.206983
0.225188
0.348007
0.372179
0.375396
0.374243
0.372407
0.370817
0.369652
0.368904
0.36854
0.36854
0.368902
0.369649
0.370813
0.372403
0.374241
0.375399
0.372189
0.348017
0.225186
0.245945
0.363725
0.383399
0.381215
0.37738
0.374241
0.372029
0.370584
0.369714
0.369305
0.369305
0.369712
0.37058
0.372025
0.374237
0.37738
0.381224
0.38342
0.36373
0.245921
0.267935
0.384184
0.394818
0.385997
0.379345
0.375304
0.372815
0.371296
0.370423
0.370024
0.370024
0.370421
0.371292
0.37281
0.375301
0.379345
0.386004
0.394835
0.384178
0.26792
0.291299
0.410157
0.404657
0.388344
0.380081
0.375743
0.373314
0.371907
0.37114
0.370804
0.370804
0.371139
0.371905
0.37331
0.375741
0.380081
0.388349
0.404671
0.410168
0.2913
0.314374
0.434488
0.408941
0.388849
0.380082
0.375806
0.37363
0.372511
0.371958
0.371733
0.371733
0.371958
0.372512
0.373629
0.375806
0.38008
0.388853
0.408951
0.434488
0.314354
0.338056
0.44494
0.406827
0.385644
0.378089
0.375061
0.373775
0.373204
0.372963
0.372877
0.372877
0.372964
0.373206
0.373777
0.375062
0.37809
0.385645
0.406831
0.444934
0.338072
0.364366
0.421464
0.38648
0.377509
0.375381
0.374627
0.374348
0.374272
0.374255
0.374253
0.374253
0.374255
0.374272
0.374348
0.374628
0.375382
0.377509
0.38648
0.421467
0.364361
0.613557
1.19029
1.05909
0.866976
0.690799
0.560605
0.479145
0.433583
0.40889
0.398049
0.397917
0.408457
0.433089
0.4805
0.564897
0.695197
0.86785
1.05381
1.18452
0.609668
0.610646
1.18826
1.05546
0.860148
0.682191
0.554775
0.476445
0.433282
0.409313
0.398683
0.398483
0.408507
0.432363
0.478724
0.561782
0.691041
0.863954
1.04969
1.18252
0.607256
0.610704
1.1876
1.05139
0.856743
0.679719
0.55251
0.475402
0.432309
0.408804
0.398108
0.397624
0.408594
0.431807
0.476709
0.558703
0.685976
0.85711
1.04474
1.18202
0.607944
0.610326
1.18747
1.05107
0.852892
0.675499
0.5497
0.473832
0.431626
0.408584
0.397892
0.397561
0.40767
0.431074
0.47595
0.558016
0.685716
0.858144
1.04595
1.18386
0.608379
0.609394
1.18655
1.04905
0.849759
0.6737
0.547995
0.472746
0.430797
0.407696
0.397317
0.396524
0.407067
0.430566
0.475035
0.55698
0.682476
0.855366
1.04621
1.18352
0.607748
0.606269
1.18494
1.04794
0.84841
0.672787
0.545986
0.471488
0.429985
0.406513
0.396426
0.396295
0.406269
0.429912
0.473841
0.555119
0.681344
0.855256
1.04194
1.18289
0.605391
0.605754
1.1829
1.04503
0.848515
0.67479
0.544915
0.470618
0.429313
0.405454
0.395159
0.395058
0.405194
0.429373
0.472717
0.550467
0.674748
0.852692
1.04487
1.18289
0.606879
0.602823
1.18153
1.04234
0.849763
0.669994
0.543193
0.469452
0.428745
0.405364
0.395113
0.394998
0.404933
0.428874
0.471721
0.549784
0.674038
0.845135
1.04142
1.17944
0.605953
0.60125
1.17971
1.03858
0.847239
0.672268
0.542089
0.468424
0.428057
0.40535
0.395037
0.395012
0.404651
0.428179
0.470323
0.547359
0.669922
0.841468
1.03913
1.17905
0.603294
0.598798
1.17684
1.03426
0.839217
0.665239
0.539999
0.467265
0.427342
0.405798
0.395064
0.395496
0.404376
0.427584
0.469013
0.544674
0.666184
0.835455
1.03482
1.17793
0.602735
0.597248
1.17469
1.02956
0.834577
0.662147
0.538136
0.466198
0.426367
0.404147
0.394901
0.394391
0.404051
0.426776
0.46735
0.541045
0.662502
0.831952
1.03092
1.17717
0.601878
0.595318
1.17261
1.02423
0.829975
0.657946
0.536729
0.465258
0.425709
0.403217
0.393624
0.394172
0.403868
0.426099
0.465868
0.538506
0.659291
0.828743
1.02983
1.17494
0.600884
0.592675
1.16967
1.02003
0.824049
0.653457
0.53487
0.464136
0.425209
0.403168
0.393519
0.394268
0.403878
0.425441
0.464517
0.536211
0.655865
0.826362
1.02906
1.17535
0.600284
0.590938
1.16748
1.01454
0.817808
0.64928
0.532364
0.462803
0.424873
0.403308
0.393418
0.394691
0.404307
0.424769
0.463354
0.534213
0.652697
0.823055
1.02902
1.17419
0.599287
0.588854
1.16519
1.01138
0.814036
0.644496
0.529282
0.461264
0.423811
0.402889
0.392971
0.393117
0.403247
0.423889
0.461915
0.531845
0.649356
0.82029
1.02683
1.1736
0.598294
0.586878
1.16253
1.00646
0.808419
0.641263
0.526451
0.459728
0.422905
0.402402
0.392831
0.392883
0.402312
0.423134
0.460744
0.529633
0.646006
0.816896
1.0207
1.17172
0.596849
0.584735
1.16015
1.00254
0.803589
0.636685
0.524192
0.45858
0.421761
0.401482
0.39284
0.392958
0.401193
0.422281
0.459187
0.526982
0.642532
0.81295
1.01656
1.16969
0.595064
0.582854
1.15869
0.998699
0.799091
0.633118
0.522219
0.457433
0.420818
0.400391
0.391423
0.391744
0.400924
0.421685
0.457889
0.524314
0.638775
0.809532
1.01382
1.16833
0.593786
0.580353
1.15587
0.994518
0.794296
0.629244
0.519875
0.456154
0.419829
0.40085
0.391442
0.391826
0.401296
0.420907
0.456576
0.522242
0.635428
0.805439
1.01017
1.16771
0.59177
0.57747
1.15214
0.989319
0.789716
0.625707
0.517577
0.454995
0.419123
0.400126
0.39137
0.392138
0.400314
0.420006
0.455223
0.519885
0.631786
0.801327
1.0068
1.16486
0.590351
0.574835
1.14838
0.98418
0.783501
0.621366
0.515131
0.453826
0.418974
0.400803
0.390963
0.391119
0.40039
0.419066
0.453949
0.517801
0.628717
0.796783
1.00161
1.16202
0.588458
0.573348
1.14588
0.979145
0.778288
0.617353
0.512784
0.452573
0.418217
0.39988
0.390899
0.391171
0.398921
0.418041
0.452729
0.515527
0.624771
0.791997
0.997828
1.16076
0.58603
0.573198
1.14504
0.974884
0.772501
0.613096
0.510643
0.451533
0.417031
0.399015
0.390894
0.390732
0.398125
0.417164
0.45169
0.513688
0.621664
0.787407
0.992737
1.15856
0.583616
0.574257
1.14575
0.971139
0.767671
0.60974
0.508806
0.450558
0.416142
0.398286
0.391662
0.391716
0.398144
0.416308
0.450678
0.51164
0.618118
0.783166
0.989515
1.15635
0.58191
0.573494
1.14398
0.970582
0.76379
0.606386
0.506943
0.449777
0.416218
0.398312
0.391109
0.391518
0.398099
0.415711
0.449806
0.509769
0.614667
0.778304
0.984577
1.15435
0.579726
0.570936
1.14606
0.972135
0.7604
0.603707
0.505342
0.448836
0.415435
0.398306
0.391204
0.391337
0.398202
0.415746
0.448961
0.507919
0.611528
0.774448
0.981531
1.15267
0.577586
0.570177
1.14243
0.969773
0.756875
0.600934
0.503865
0.448176
0.415372
0.398467
0.391498
0.392273
0.398266
0.415288
0.447973
0.505946
0.608241
0.770084
0.977072
1.15103
0.575652
0.568214
1.14094
0.96345
0.754138
0.599056
0.5026
0.447372
0.415367
0.398515
0.39158
0.391605
0.398248
0.414931
0.447158
0.504182
0.605337
0.76674
0.974319
1.14973
0.574242
0.566196
1.13798
0.960265
0.750451
0.596578
0.501225
0.446659
0.415783
0.398605
0.391821
0.392442
0.398751
0.414215
0.446147
0.502298
0.602158
0.762439
0.970273
1.14805
0.571985
0.56378
1.13577
0.953924
0.747264
0.594616
0.50002
0.445767
0.41495
0.398587
0.392004
0.391698
0.397653
0.413278
0.445332
0.500635
0.599227
0.758321
0.966186
1.14577
0.569642
0.562272
1.13391
0.950027
0.743805
0.592427
0.49881
0.445046
0.415252
0.398738
0.393111
0.392783
0.397724
0.412946
0.444417
0.498759
0.595688
0.752668
0.960739
1.14217
0.566535
0.559887
1.13136
0.94634
0.740939
0.590384
0.497596
0.444275
0.413989
0.398587
0.392611
0.392223
0.39758
0.412556
0.443537
0.496881
0.592252
0.747602
0.955214
1.13835
0.563463
0.558429
1.12928
0.942851
0.737715
0.588119
0.496371
0.44367
0.413185
0.399089
0.392099
0.391628
0.397579
0.41226
0.44268
0.494968
0.588867
0.742853
0.950832
1.13547
0.561053
0.556213
1.12702
0.938565
0.734126
0.5858
0.495055
0.442954
0.412885
0.398301
0.392147
0.391644
0.397576
0.411915
0.441696
0.493071
0.585508
0.737951
0.945548
1.13336
0.5589
0.55419
1.12414
0.934273
0.730336
0.583277
0.493719
0.442046
0.41265
0.398333
0.393032
0.391853
0.397686
0.411662
0.44074
0.491
0.58188
0.732842
0.941045
1.13074
0.556334
0.551689
1.12138
0.929531
0.72652
0.580852
0.492447
0.441448
0.412529
0.398289
0.391926
0.391918
0.398308
0.411416
0.439627
0.488991
0.578553
0.728454
0.936076
1.12816
0.553783
0.549256
1.11827
0.925235
0.722723
0.57821
0.491007
0.441307
0.412482
0.398929
0.391831
0.391337
0.397184
0.41121
0.438569
0.486902
0.574785
0.722896
0.931058
1.1252
0.551256
0.547199
1.11599
0.9207
0.718655
0.575479
0.489398
0.44003
0.411672
0.397525
0.391829
0.391426
0.397689
0.411593
0.437432
0.484897
0.571458
0.718261
0.925706
1.12245
0.548364
0.545107
1.11346
0.916185
0.714446
0.572597
0.487808
0.439262
0.411397
0.397546
0.391914
0.391463
0.396597
0.410222
0.436188
0.482878
0.567983
0.713133
0.920441
1.11917
0.545592
0.54338
1.11195
0.911659
0.709926
0.569543
0.486094
0.438361
0.411326
0.397624
0.392214
0.392237
0.397108
0.409721
0.43498
0.480655
0.564239
0.707842
0.914912
1.11612
0.542624
0.541662
1.10999
0.907765
0.706021
0.566742
0.484311
0.436631
0.411608
0.397584
0.392781
0.391031
0.396097
0.409209
0.433698
0.478471
0.560648
0.702622
0.909463
1.11331
0.540246
0.540032
1.10771
0.903552
0.701658
0.563693
0.482599
0.435342
0.410518
0.397448
0.3916
0.39072
0.395151
0.408249
0.432162
0.475926
0.556338
0.696463
0.903394
1.11002
0.537211
0.538199
1.10489
0.899327
0.697726
0.560897
0.480968
0.434801
0.410766
0.397731
0.391894
0.390954
0.39501
0.407113
0.430683
0.473489
0.55231
0.690572
0.896941
1.1067
0.534619
0.536889
1.10329
0.895251
0.693571
0.557928
0.479142
0.433749
0.410426
0.397679
0.392284
0.391318
0.394926
0.405774
0.428979
0.470657
0.547727
0.684293
0.890762
1.10362
0.531691
0.534824
1.10013
0.890679
0.689427
0.554993
0.477338
0.433477
0.409839
0.398547
0.393018
0.392538
0.395712
0.405791
0.427429
0.467805
0.543114
0.677694
0.883872
1.10045
0.52891
0.532861
1.09772
0.886033
0.685037
0.551848
0.475319
0.433693
0.408679
0.397771
0.393181
0.391904
0.3946
0.404332
0.425374
0.464754
0.538388
0.671311
0.877456
1.09737
0.525905
0.530662
1.09461
0.88103
0.680348
0.548514
0.473108
0.431964
0.408273
0.396854
0.392078
0.391194
0.394826
0.404861
0.423641
0.461785
0.533607
0.664556
0.870627
1.09418
0.522851
0.528247
1.0913
0.875751
0.675505
0.545103
0.470926
0.430672
0.408366
0.397328
0.392927
0.391795
0.39346
0.402539
0.421408
0.458723
0.528768
0.657864
0.863547
1.09024
0.51912
0.525975
1.08833
0.870527
0.670319
0.541384
0.468646
0.429161
0.40669
0.395588
0.391467
0.390407
0.393189
0.401284
0.419559
0.455614
0.523635
0.650628
0.856212
1.08644
0.515531
0.523046
1.08468
0.864562
0.664854
0.537548
0.46638
0.427948
0.406753
0.395573
0.392522
0.390606
0.39412
0.399846
0.417756
0.452475
0.51837
0.64315
0.848148
1.08154
0.511205
0.520717
1.08184
0.858863
0.65911
0.533386
0.463924
0.426357
0.405995
0.395324
0.39146
0.390301
0.393384
0.399505
0.416421
0.449355
0.512978
0.635576
0.840276
1.07706
0.50715
0.517634
1.07817
0.852478
0.653039
0.529094
0.461489
0.424855
0.405486
0.395319
0.392325
0.390406
0.392504
0.399304
0.415072
0.445939
0.507094
0.627294
0.831354
1.07117
0.502365
0.514607
1.07445
0.846191
0.64687
0.524598
0.458934
0.423251
0.404999
0.395138
0.390648
0.390583
0.392673
0.399822
0.414527
0.4424
0.501086
0.618941
0.822523
1.066
0.498221
0.511363
1.07053
0.839359
0.640297
0.519863
0.456286
0.422042
0.4046
0.396036
0.390576
0.390799
0.393508
0.397514
0.411152
0.43811
0.494581
0.610024
0.813095
1.0602
0.493732
0.508225
1.0672
0.832625
0.633661
0.515049
0.453547
0.422295
0.404267
0.394912
0.390166
0.389982
0.392012
0.395974
0.409372
0.434266
0.488313
0.601329
0.803777
1.05458
0.489619
0.504849
1.06325
0.825089
0.626515
0.510052
0.45049
0.420502
0.402738
0.395525
0.389805
0.389451
0.391088
0.393696
0.406624
0.429978
0.481761
0.592294
0.794401
1.04952
0.485826
0.501817
1.06009
0.817709
0.619265
0.504963
0.447477
0.418694
0.40092
0.393859
0.389423
0.388992
0.390369
0.392926
0.404692
0.426193
0.475537
0.583495
0.785217
1.04476
0.482231
0.498313
1.05605
0.809461
0.611509
0.49963
0.444124
0.416689
0.400385
0.393385
0.38931
0.388128
0.389136
0.392623
0.402551
0.422302
0.469218
0.574474
0.775905
1.04058
0.478752
0.495164
1.05288
0.801055
0.603428
0.494226
0.441044
0.41504
0.400146
0.392335
0.388379
0.387207
0.387791
0.393289
0.40046
0.41872
0.463411
0.565853
0.76662
1.03631
0.474871
0.490795
1.04839
0.791112
0.594505
0.488439
0.437424
0.413018
0.397893
0.391708
0.388637
0.387859
0.387528
0.391367
0.398005
0.41536
0.457768
0.556967
0.756648
1.03167
0.470408
0.486222
1.04386
0.780349
0.584938
0.482568
0.433792
0.411058
0.397384
0.391495
0.389584
0.387091
0.385879
0.389694
0.395685
0.412344
0.45249
0.5482
0.746138
1.02632
0.465006
0.480137
1.03802
0.768062
0.574494
0.476501
0.430056
0.408603
0.396624
0.391938
0.388954
0.387144
0.385492
0.388036
0.393375
0.409496
0.447252
0.539117
0.734722
1.0201
0.458601
0.472546
1.03066
0.753819
0.562747
0.469921
0.426418
0.406393
0.396393
0.390469
0.387837
0.386341
0.385174
0.386234
0.391278
0.406904
0.44202
0.52953
0.721894
1.01227
0.450583
0.463051
1.02144
0.737982
0.550202
0.46285
0.42251
0.404276
0.397415
0.390494
0.387894
0.387704
0.386254
0.385199
0.389896
0.404304
0.436576
0.519392
0.707696
1.00305
0.441328
0.45114
1.00936
0.719886
0.53665
0.455155
0.417639
0.401779
0.395619
0.389872
0.387827
0.387129
0.385351
0.385187
0.39031
0.402197
0.431266
0.508752
0.691709
0.990951
0.429895
0.437388
0.99492
0.700397
0.523055
0.447747
0.413881
0.399421
0.394237
0.389612
0.387988
0.386557
0.385463
0.385238
0.389151
0.399651
0.425883
0.497879
0.674644