/*--------------------------------*- C++ -*----------------------------------*\
  =========                 |
  \\      /  F ield         | OpenFOAM: The Open Source CFD Toolbox
   \\    /   O peration     | Website:  https://openfoam.org
    \\  /    A nd           | Version:  6
     \\/     M anipulation  |
\*---------------------------------------------------------------------------*/
FoamFile
{
    version     2.0;
    format      ascii;
    class       volScalarField;
    location    "29";
    object      nut;
}
// * * * * * * * * * * * * * * * * * * * * * * * * * * * * * * * * * * * * * //

dimensions      [0 2 -1 0 0 0 0];

internalField   nonuniform List<scalar> 
10000
(
1.46616e-05
6.97525e-05
8.95974e-05
0.000105313
0.000121473
0.000140788
0.000163221
0.000186025
0.000204482
0.000214948
0.00021505
0.00020462
0.000186878
0.000164862
0.000142639
0.000123071
0.000106361
9.02769e-05
7.0016e-05
1.46755e-05
1.46522e-05
6.97364e-05
8.97232e-05
0.000105649
0.00012217
0.000141742
0.000164279
0.000187188
0.000205527
0.000216097
0.000216715
0.000205418
0.000187646
0.00016551
0.000143034
0.000123252
0.000106381
9.01817e-05
6.99837e-05
1.46813e-05
1.46661e-05
6.97514e-05
8.95445e-05
0.000105325
0.000121419
0.000140799
0.00016347
0.000187805
0.000205656
0.000218467
0.000218374
0.000205676
0.000188951
0.000166518
0.000143519
0.000123315
0.000106375
9.04934e-05
6.99893e-05
1.46817e-05
1.46599e-05
6.97791e-05
8.9782e-05
0.00010552
0.000121464
0.000141046
0.000163484
0.000186407
0.000205547
0.000217775
0.000217618
0.000205605
0.000187333
0.000166885
0.000143479
0.000123987
0.000106227
9.03417e-05
6.99571e-05
1.46881e-05
1.46623e-05
6.97705e-05
8.97241e-05
0.000105537
0.000121627
0.000141043
0.000163833
0.000186902
0.000205674
0.000216828
0.000216525
0.000205538
0.000187715
0.000166416
0.000144104
0.000123563
0.000106425
9.01527e-05
6.99716e-05
1.46774e-05
1.46692e-05
6.97713e-05
8.964e-05
0.000105532
0.000121736
0.000141203
0.00016478
0.000188457
0.000206331
0.000218957
0.000218498
0.000206063
0.000188005
0.00016663
0.000143465
0.000124239
0.000106565
9.01438e-05
7.00087e-05
1.46764e-05
1.46687e-05
6.9726e-05
8.95124e-05
0.000105386
0.000122172
0.000141429
0.000164658
0.000187315
0.000206338
0.000216562
0.0002162
0.000206107
0.000188195
0.000167878
0.000144128
0.000123719
0.000106913
8.99825e-05
6.98982e-05
1.4669e-05
1.46606e-05
6.97442e-05
8.97345e-05
0.000105331
0.000122262
0.00014157
0.000164197
0.000187799
0.00020801
0.000216943
0.000218109
0.000208202
0.000188801
0.000167461
0.000144145
0.000124225
0.000106503
9.01114e-05
6.99806e-05
1.46785e-05
1.46674e-05
6.9742e-05
8.96477e-05
0.000105692
0.000122403
0.000142491
0.000164568
0.000187457
0.000206725
0.00021807
0.00021669
0.00020673
0.000188817
0.000166825
0.000144274
0.000124158
0.000106688
9.009e-05
6.99584e-05
1.46731e-05
1.46657e-05
6.97662e-05
8.95402e-05
0.000105572
0.000122237
0.000142653
0.000165335
0.000187711
0.00020804
0.000216592
0.000218277
0.000208385
0.000189979
0.000167397
0.000144625
0.000124254
0.000106447
9.00198e-05
6.99393e-05
1.46718e-05
1.46557e-05
6.97671e-05
8.96942e-05
0.000105655
0.000122771
0.000142646
0.000165459
0.000187722
0.000205485
0.000216389
0.000216407
0.000205739
0.00018918
0.00016802
0.000145151
0.000124111
0.000106724
8.98815e-05
6.99419e-05
1.46562e-05
1.46528e-05
6.97613e-05
8.95116e-05
0.000105464
0.000122138
0.000143038
0.000165882
0.000189388
0.000205749
0.00021721
0.000215264
0.000206051
0.000190411
0.000167798
0.000145059
0.00012462
0.000106306
8.99709e-05
6.97823e-05
1.46312e-05
1.46411e-05
6.97025e-05
8.95382e-05
0.000105353
0.000122223
0.000142474
0.000164927
0.000187775
0.000205557
0.000216542
0.000215549
0.000206447
0.00018941
0.000168281
0.00014531
0.00012405
0.000106213
8.9732e-05
6.97093e-05
1.46207e-05
1.46372e-05
6.96737e-05
8.93656e-05
0.000105378
0.000122382
0.000142192
0.000166156
0.000189696
0.000206471
0.000216016
0.000216281
0.000207158
0.000189654
0.000167192
0.000144844
0.000124112
0.000106161
8.95779e-05
6.96474e-05
1.46076e-05
1.46258e-05
6.96536e-05
8.94841e-05
0.000105612
0.000122543
0.000142343
0.000165926
0.000189684
0.000208655
0.000218622
0.000218146
0.000208371
0.000190411
0.000167899
0.000145091
0.000124987
0.000106663
8.95846e-05
6.96517e-05
1.45976e-05
1.46205e-05
6.96379e-05
8.94541e-05
0.000105985
0.000123326
0.000143365
0.000166321
0.00018968
0.000208138
0.000217537
0.000218505
0.000210823
0.000191877
0.000168213
0.000145582
0.000125071
0.000106507
8.94409e-05
6.9562e-05
1.45822e-05
1.46022e-05
6.95884e-05
8.93816e-05
0.000105865
0.00012325
0.000143517
0.000166583
0.000188436
0.000207532
0.000216263
0.000216854
0.000209063
0.000190077
0.000169095
0.000146529
0.000125247
0.000106632
8.9574e-05
6.95104e-05
1.45737e-05
1.45904e-05
6.95503e-05
8.93199e-05
0.000105823
0.00012355
0.000143705
0.000165968
0.000188073
0.000206564
0.000216798
0.000217236
0.000207938
0.000190007
0.000168351
0.00014683
0.000125641
0.000106428
8.93368e-05
6.94886e-05
1.45575e-05
1.45732e-05
6.95112e-05
8.92414e-05
0.000105738
0.000123586
0.000143951
0.00016639
0.000188987
0.000207291
0.000219379
0.000220229
0.000208717
0.000190463
0.000168362
0.000146658
0.000125653
0.000106813
8.93959e-05
6.93911e-05
1.45386e-05
1.4555e-05
6.94469e-05
8.9188e-05
0.000105778
0.000123739
0.000144753
0.00016831
0.000190014
0.000207917
0.000218223
0.000220196
0.000211102
0.000192264
0.000168815
0.000147013
0.000125644
0.000106462
8.90267e-05
6.92823e-05
1.45171e-05
1.45397e-05
6.93791e-05
8.90726e-05
0.000105689
0.000123713
0.000144652
0.000167832
0.00019169
0.000208777
0.000218552
0.000220397
0.000210796
0.000191382
0.000168961
0.000147207
0.000125575
0.000106327
8.88557e-05
6.92198e-05
1.44947e-05
1.45269e-05
6.93323e-05
8.90166e-05
0.000105639
0.00012377
0.000145298
0.000168287
0.000191439
0.000210946
0.000219028
0.000219435
0.00021056
0.000192041
0.000169345
0.000147019
0.000125397
0.000106114
8.8856e-05
6.91223e-05
1.44727e-05
1.45144e-05
6.92892e-05
8.89635e-05
0.000105635
0.000123803
0.000145013
0.000169285
0.000193144
0.000210831
0.000219382
0.000219958
0.000213293
0.000193969
0.000169999
0.000146823
0.000125281
0.000105885
8.86851e-05
6.89888e-05
1.4444e-05
1.44989e-05
6.92485e-05
8.8954e-05
0.000105657
0.000123975
0.000145101
0.00016956
0.000192856
0.000210042
0.000219904
0.000220167
0.000211827
0.000192629
0.000170089
0.000146521
0.000125141
0.00010573
8.85799e-05
6.89595e-05
1.44307e-05
1.44869e-05
6.92138e-05
8.89041e-05
0.000105726
0.000124506
0.000145858
0.00017002
0.000192566
0.000210599
0.000220555
0.000220472
0.000210535
0.000192622
0.00017086
0.000147066
0.000125178
0.000105705
8.85257e-05
6.88748e-05
1.44126e-05
1.44719e-05
6.91828e-05
8.89139e-05
0.000105906
0.000124812
0.000146677
0.00017027
0.000193382
0.000211935
0.000221952
0.000221679
0.000211432
0.000193165
0.000171322
0.00014775
0.000125142
0.000105651
8.84703e-05
6.88578e-05
1.44006e-05
1.44568e-05
6.91428e-05
8.88575e-05
0.000106025
0.000125271
0.000147685
0.000171058
0.00019455
0.000214778
0.000225079
0.000222999
0.000212424
0.000193698
0.000170509
0.000147317
0.000125128
0.00010566
8.83523e-05
6.87866e-05
1.43777e-05
1.44392e-05
6.91072e-05
8.8791e-05
0.000106026
0.000125388
0.000148001
0.000172201
0.000196636
0.000214233
0.000224078
0.000224358
0.00021549
0.000195056
0.000171326
0.000147348
0.000125211
0.000105596
8.825e-05
6.87308e-05
1.4361e-05
1.44202e-05
6.90569e-05
8.87482e-05
0.000106142
0.000125748
0.000148681
0.000173359
0.000198142
0.000217459
0.000227589
0.000225957
0.000215731
0.000196239
0.000172472
0.000147336
0.000125365
0.000105629
8.81733e-05
6.86783e-05
1.43455e-05
1.44015e-05
6.89925e-05
8.8672e-05
0.000106167
0.000126003
0.000149292
0.000174624
0.000199519
0.000219082
0.000229449
0.000229589
0.000217936
0.000199017
0.000173356
0.00014804
0.000125707
0.000105724
8.81351e-05
6.86232e-05
1.43291e-05
1.43868e-05
6.89548e-05
8.86465e-05
0.000106277
0.000126364
0.000149835
0.000176745
0.000202088
0.000221321
0.000231921
0.000232044
0.000221503
0.000200712
0.000175286
0.000148946
0.000125987
0.000105834
8.81025e-05
6.85647e-05
1.43172e-05
1.43682e-05
6.89083e-05
8.86156e-05
0.000106391
0.000126739
0.000150337
0.00017778
0.000203805
0.000223817
0.000235345
0.000235089
0.000223519
0.000202729
0.000176211
0.000149805
0.000126331
0.000105909
8.80772e-05
6.85272e-05
1.43043e-05
1.43455e-05
6.88469e-05
8.85687e-05
0.0001065
0.000127164
0.000151239
0.000179453
0.000206064
0.000226791
0.000237663
0.000237353
0.000225685
0.000204124
0.000177062
0.000150381
0.000126521
0.000105963
8.80292e-05
6.85265e-05
1.42935e-05
1.43236e-05
6.8779e-05
8.84862e-05
0.00010655
0.000127441
0.000152185
0.000180541
0.000207956
0.000229263
0.000240508
0.000239815
0.0002277
0.000206063
0.000178258
0.000151015
0.000126812
0.000106001
8.80035e-05
6.85021e-05
1.42736e-05
1.43005e-05
6.87186e-05
8.8415e-05
0.00010663
0.000127847
0.00015287
0.000181318
0.000209574
0.000231089
0.000242467
0.000241956
0.000229989
0.000207998
0.000180327
0.00015178
0.000127126
0.000106034
8.79161e-05
6.84322e-05
1.42466e-05
1.4277e-05
6.86419e-05
8.83122e-05
0.000106651
0.000128127
0.000153533
0.00018307
0.000211512
0.000233216
0.00024463
0.000244057
0.000231907
0.000209802
0.000181724
0.000152912
0.000127483
0.000106039
8.7846e-05
6.83624e-05
1.42205e-05
1.42577e-05
6.85721e-05
8.82069e-05
0.00010665
0.000128452
0.000154669
0.000184536
0.000213282
0.000235242
0.000246866
0.00024644
0.000234142
0.000211806
0.000183295
0.000153708
0.000127759
0.000106022
8.77003e-05
6.82741e-05
1.41931e-05
1.42378e-05
6.85033e-05
8.8117e-05
0.00010667
0.000128757
0.000155279
0.000185918
0.000214942
0.000237093
0.000248864
0.000248475
0.000236026
0.000213465
0.000184718
0.000154455
0.000128058
0.000106005
8.75958e-05
6.81813e-05
1.41668e-05
1.42216e-05
6.845e-05
8.80345e-05
0.000106683
0.000129062
0.000156014
0.000187461
0.000216789
0.000239193
0.000251098
0.000250739
0.000238225
0.000215396
0.000186121
0.000155117
0.000128315
0.000105968
8.74643e-05
6.80928e-05
1.41449e-05
1.41984e-05
6.8391e-05
8.79449e-05
0.000106721
0.000129489
0.000157229
0.000188908
0.000218592
0.000241184
0.000253193
0.000252888
0.000240287
0.000217244
0.00018755
0.000156314
0.000128677
0.000105987
8.73611e-05
6.80272e-05
1.4124e-05
1.41743e-05
6.83363e-05
8.78642e-05
0.000106777
0.000129841
0.000157717
0.000190288
0.000220378
0.000243144
0.000255207
0.0002549
0.000242253
0.000219028
0.000188815
0.000156782
0.000128985
0.000106039
8.7279e-05
6.79632e-05
1.41012e-05
1.41439e-05
6.82585e-05
8.77487e-05
0.000106813
0.000130221
0.000158032
0.000191272
0.000221915
0.000245042
0.000257304
0.000257071
0.000244357
0.000220932
0.000190324
0.000157474
0.000129466
0.000106154
8.72073e-05
6.79015e-05
1.40833e-05
1.41136e-05
6.81778e-05
8.76579e-05
0.000106894
0.00013064
0.000158764
0.000191885
0.000223287
0.000246749
0.000259213
0.000259101
0.000246443
0.000222928
0.000191988
0.000158609
0.000130038
0.000106323
8.71855e-05
6.7854e-05
1.40657e-05
1.40855e-05
6.80919e-05
8.7549e-05
0.000106945
0.000131049
0.000159598
0.000191675
0.000224385
0.000248465
0.000261227
0.000261219
0.000248521
0.000224827
0.000193595
0.000160081
0.00013061
0.000106479
8.71538e-05
6.78167e-05
1.40501e-05
1.4057e-05
6.80117e-05
8.74506e-05
0.000106984
0.000131333
0.000160947
0.000193075
0.000225397
0.000249942
0.000263009
0.000263139
0.00025044
0.000226571
0.000194953
0.000160938
0.000131122
0.000106646
8.71313e-05
6.77889e-05
1.40319e-05
1.40305e-05
6.79262e-05
8.73324e-05
0.000106986
0.000131411
0.000160223
0.000191617
0.00022503
0.000251054
0.000264671
0.000265005
0.000252246
0.000228045
0.000195824
0.000161763
0.000131614
0.000106766
8.70709e-05
6.77446e-05
1.40105e-05
1.40069e-05
6.78579e-05
8.72216e-05
0.000106975
0.000131537
0.000159962
0.000192075
0.000223986
0.000251798
0.000265963
0.000266484
0.000253636
0.000228985
0.00019597
0.000162208
0.000132057
0.000106877
8.70067e-05
6.76961e-05
1.3987e-05
1.39783e-05
6.77757e-05
8.71027e-05
0.000106959
0.000131716
0.000160122
0.000193313
0.000225663
0.000252365
0.000266606
0.000267299
0.000254331
0.000229043
0.000198009
0.000162557
0.000132506
0.000106986
8.69242e-05
6.76313e-05
1.39578e-05
1.39516e-05
6.76988e-05
8.6976e-05
0.000106898
0.000131791
0.000160975
0.000193736
0.000223014
0.000250645
0.000265504
0.000266637
0.000253741
0.000228555
0.000197387
0.00016338
0.000132886
0.000107022
8.68098e-05
6.75503e-05
1.3929e-05
1.39194e-05
6.76134e-05
8.68477e-05
0.000106855
0.0001318
0.000162317
0.000193626
0.000223067
0.000248165
0.000262948
0.000264516
0.000252385
0.000230716
0.000197495
0.000164794
0.00013326
0.000107081
8.66973e-05
6.7469e-05
1.38958e-05
1.38913e-05
6.75229e-05
8.66981e-05
0.000106807
0.000131709
0.000161717
0.000192866
0.000223855
0.000250597
0.000266549
0.000268729
0.000254977
0.000228984
0.000198351
0.000164329
0.000133425
0.000107069
8.65432e-05
6.73778e-05
1.38611e-05
1.38592e-05
6.74336e-05
8.65515e-05
0.00010679
0.000131724
0.000161958
0.000193901
0.000224706
0.000246328
0.000260996
0.000263836
0.000250586
0.000226637
0.000196865
0.000164014
0.00013372
0.000107091
8.63883e-05
6.7275e-05
1.38221e-05
1.3825e-05
6.73232e-05
8.63747e-05
0.000106767
0.000131691
0.000163482
0.000196546
0.000225791
0.000246419
0.000259093
0.000260471
0.000248625
0.000227266
0.000199574
0.00016516
0.000134196
0.00010708
8.6199e-05
6.71575e-05
1.37799e-05
1.37911e-05
6.7228e-05
8.62116e-05
0.000106794
0.000131701
0.000163733
0.000196112
0.000224284
0.000246648
0.000259588
0.000261358
0.000248996
0.000228143
0.000199507
0.000165316
0.000134558
0.000107081
8.60076e-05
6.70257e-05
1.37328e-05
1.37453e-05
6.71017e-05
8.59849e-05
0.0001068
0.000132727
0.00016533
0.000199772
0.000225863
0.000246957
0.00025996
0.000264035
0.000249225
0.000227426
0.000199477
0.000166685
0.000135002
0.000107013
8.57692e-05
6.68791e-05
1.36795e-05
1.36936e-05
6.69568e-05
8.57301e-05
0.00010669
0.000133962
0.00016558
0.000198795
0.000227995
0.000248208
0.000260809
0.000262023
0.000250001
0.000228211
0.000199409
0.000169126
0.000135319
0.000106887
8.5494e-05
6.67104e-05
1.36194e-05
1.36276e-05
6.67606e-05
8.54038e-05
0.000106525
0.000133821
0.000165128
0.000197933
0.000226235
0.000249155
0.000262695
0.000266295
0.00025186
0.000229884
0.000200669
0.000169281
0.000135408
0.00010671
8.51822e-05
6.6526e-05
1.35521e-05
1.35545e-05
6.65399e-05
8.50217e-05
0.000106295
0.00013414
0.000165756
0.000197912
0.000228725
0.000251768
0.000264207
0.000264742
0.000252875
0.000233003
0.000202985
0.000169941
0.000135661
0.000106549
8.48314e-05
6.63111e-05
1.34729e-05
1.34676e-05
6.62773e-05
8.45759e-05
0.000105992
0.000134286
0.000166364
0.000199797
0.000234307
0.000258083
0.000267663
0.000267178
0.000254794
0.000231896
0.000201545
0.000170222
0.000135769
0.00010628
8.44143e-05
6.60593e-05
1.33858e-05
1.33724e-05
6.59948e-05
8.4101e-05
0.000105667
0.000134415
0.000166662
0.000202063
0.000236366
0.000259301
0.000270798
0.000270915
0.000258271
0.000234724
0.000203669
0.000171154
0.000135949
0.000106033
8.3995e-05
6.58018e-05
1.32946e-05
1.32637e-05
6.56823e-05
8.36076e-05
0.000105405
0.000134834
0.00016808
0.000204881
0.000238807
0.000264643
0.000277956
0.00027551
0.000262145
0.000237947
0.000206163
0.000171951
0.000136139
0.0001058
8.35582e-05
6.55266e-05
1.31934e-05
1.31467e-05
6.53513e-05
8.31209e-05
0.000105241
0.00013547
0.000170949
0.000210476
0.000243576
0.000268543
0.000283137
0.000283727
0.000270396
0.000244716
0.000209381
0.000172779
0.000136415
0.000105619
8.31297e-05
6.52427e-05
1.30855e-05
1.30165e-05
6.50179e-05
8.26832e-05
0.000105268
0.000136391
0.00017456
0.000214923
0.000251434
0.00027774
0.000290637
0.000289994
0.000275615
0.000248146
0.000213016
0.000174669
0.000137218
0.000105641
8.2754e-05
6.49646e-05
1.29691e-05
1.2875e-05
6.46784e-05
8.22818e-05
0.000105512
0.000137665
0.000176967
0.000219866
0.000256982
0.000284054
0.00029725
0.000297335
0.000282371
0.000253519
0.000217907
0.000176766
0.000138156
0.000105768
8.24162e-05
6.47001e-05
1.28432e-05
1.27214e-05
6.43676e-05
8.19822e-05
0.000106103
0.000139651
0.000182024
0.000225566
0.000263682
0.000291007
0.000304675
0.000304414
0.000289826
0.000261814
0.000222363
0.000179517
0.000139517
0.000106184
8.21713e-05
6.4452e-05
1.27047e-05
1.25497e-05
6.40516e-05
8.17338e-05
0.000106916
0.000142059
0.000186589
0.000232245
0.00027115
0.000298946
0.00031302
0.000312676
0.000297535
0.000269114
0.000230107
0.0001852
0.000141691
0.000106993
8.20253e-05
6.42152e-05
1.25531e-05
1.23695e-05
6.37689e-05
8.16136e-05
0.000108113
0.000145795
0.000192111
0.000238834
0.000279048
0.000307844
0.00032262
0.00032219
0.000306472
0.000276985
0.000236576
0.000190129
0.000144381
0.000108102
8.19906e-05
6.40186e-05
1.23914e-05
1.21733e-05
6.34973e-05
8.1594e-05
0.000109531
0.000150527
0.000198395
0.000246794
0.000287966
0.000317329
0.00033236
0.000332032
0.000316275
0.000286331
0.000244985
0.000196988
0.000148483
0.000109717
8.20894e-05
6.38422e-05
1.22125e-05
1.19759e-05
6.32765e-05
8.17416e-05
0.000111246
0.000154405
0.000205183
0.000255176
0.000297559
0.000327868
0.000343476
0.00034318
0.00032704
0.000296255
0.000253719
0.000203681
0.000152968
0.000111449
8.2306e-05
6.3715e-05
1.20299e-05
1.17822e-05
6.31353e-05
8.20848e-05
0.000113355
0.000159008
0.00021226
0.000264068
0.000307688
0.000338749
0.000354744
0.000354525
0.000338083
0.000306719
0.000262989
0.00021151
0.000158574
0.000113853
8.27454e-05
6.36248e-05
1.1839e-05
1.16009e-05
6.31143e-05
8.27193e-05
0.000115998
0.000164191
0.000219935
0.000273554
0.000318514
0.000350562
0.000367104
0.000366899
0.000350029
0.000317788
0.000272787
0.000219203
0.000163717
0.000116408
8.33556e-05
6.36183e-05
1.16616e-05
1.14391e-05
6.32254e-05
8.36707e-05
0.000119222
0.000169942
0.000228404
0.000283956
0.000330267
0.000363162
0.000380117
0.000379934
0.000362631
0.000329491
0.000283135
0.000227838
0.000169812
0.000119611
8.4267e-05
6.37079e-05
1.14893e-05
1.1301e-05
6.34935e-05
8.49871e-05
0.000123155
0.00017728
0.000237676
0.000294953
0.000342645
0.000376538
0.000394034
0.000393879
0.000376114
0.000342056
0.000294346
0.000237224
0.000177144
0.000123415
8.54776e-05
6.39285e-05
1.13424e-05
1.11877e-05
6.38998e-05
8.65871e-05
0.000127464
0.000184406
0.000247221
0.000306439
0.000355599
0.00039049
0.000408492
0.000408336
0.000390052
0.000354971
0.000305769
0.000246675
0.000184101
0.000127584
8.69567e-05
6.42515e-05
1.12062e-05
1.1098e-05
6.44521e-05
8.84986e-05
0.00013216
0.000191957
0.000257173
0.000318383
0.000369119
0.000405124
0.000423707
0.000423562
0.000404723
0.00036857
0.000317846
0.000256827
0.000191896
0.00013222
8.87511e-05
6.47042e-05
1.1096e-05
1.1018e-05
6.50933e-05
9.06284e-05
0.000137179
0.00019971
0.000267402
0.000330688
0.000383061
0.000420208
0.000439382
0.000439232
0.00041979
0.000382464
0.000330053
0.000266891
0.000199437
0.000137067
9.07303e-05
6.52403e-05
1.09877e-05
1.09216e-05
6.57803e-05
9.29203e-05
0.000142375
0.000207804
0.00027795
0.000343299
0.000397353
0.000435714
0.000455528
0.000455388
0.000435325
0.000396804
0.000342719
0.00027747
0.000207504
0.000142213
9.29255e-05
6.58588e-05
1.08883e-05
1.07841e-05
6.64535e-05
9.52934e-05
0.000147569
0.000215907
0.000288531
0.000356004
0.000411798
0.000451414
0.000471894
0.000471762
0.000451041
0.000411258
0.000355414
0.000288024
0.000215574
0.000147376
9.52304e-05
6.64743e-05
1.07705e-05
1.0649e-05
6.70888e-05
9.77502e-05
0.000152905
0.000224161
0.000299223
0.000368781
0.0004263
0.000467183
0.000488348
0.000488236
0.000466866
0.000425836
0.000368261
0.000298748
0.000223801
0.000152612
9.76144e-05
6.705e-05
1.06432e-05
1.05179e-05
6.75998e-05
0.000100228
0.00015834
0.000232518
0.000309968
0.000381566
0.000440773
0.000482889
0.000504718
0.000504628
0.000482633
0.000440389
0.000381119
0.000309545
0.000232188
0.000158121
0.00010009
6.75397e-05
1.0498e-05
1.03584e-05
6.79592e-05
0.000102736
0.000164082
0.000241021
0.000320828
0.000394433
0.000455317
0.000498658
0.000521146
0.000521081
0.000498472
0.000455035
0.0003941
0.000320502
0.000240751
0.000163892
0.000102594
6.78864e-05
1.03489e-05
1.02112e-05
6.81514e-05
0.000105305
0.000169982
0.000249693
0.000331862
0.000407501
0.000470087
0.000514672
0.000537826
0.00053778
0.00051454
0.000469885
0.000407259
0.000331624
0.000249499
0.000169845
0.000105209
6.80907e-05
1.02094e-05
1.0087e-05
6.81959e-05
0.000108066
0.000176228
0.000258712
0.000343213
0.000420916
0.000485236
0.000531084
0.00055491
0.000554881
0.000530999
0.000485105
0.000420755
0.000343048
0.000258569
0.000176125
0.000107998
6.81487e-05
1.00878e-05
1.00533e-05
6.80909e-05
0.000111062
0.000182804
0.000268086
0.000355013
0.000434878
0.000500997
0.000548134
0.000572634
0.000572615
0.000548077
0.000500907
0.000434763
0.000354888
0.000267972
0.000182721
0.000111024
6.80714e-05
1.0057e-05
1.00341e-05
6.78934e-05
0.000114552
0.000189827
0.000277958
0.000367429
0.000449576
0.000517562
0.000566007
0.000591178
0.000591166
0.000565971
0.000517505
0.000449502
0.000367348
0.000277884
0.000189773
0.00011452
6.78914e-05
1.0034e-05
1.01296e-05
6.76312e-05
0.000118648
0.000197274
0.000288458
0.00038066
0.000465229
0.000535128
0.000584862
0.000610674
0.000610666
0.000584836
0.000535085
0.000465171
0.000380592
0.000288394
0.000197232
0.000118634
6.76348e-05
1.01291e-05
1.03193e-05
6.74429e-05
0.000122879
0.000205215
0.000299707
0.000394924
0.000482057
0.00055387
0.00060482
0.00063121
0.000631205
0.000604804
0.000553841
0.000482016
0.000394875
0.000299662
0.000205191
0.000122878
6.74576e-05
1.03197e-05
1.06435e-05
6.7418e-05
0.000127703
0.000213933
0.000312026
0.000410523
0.000500304
0.000573945
0.000625952
0.000652801
0.000652798
0.000625942
0.000573926
0.000500276
0.000410488
0.000311993
0.000213911
0.000127689
6.74175e-05
1.06431e-05
1.10958e-05
6.77308e-05
0.000132769
0.000223483
0.000325677
0.000427761
0.000520221
0.000595495
0.000648284
0.000675404
0.000675401
0.000648277
0.00059548
0.0005202
0.000427736
0.000325658
0.000223482
0.000132778
6.77354e-05
1.10951e-05
1.17104e-05
6.85681e-05
0.000138826
0.00023449
0.00034115
0.000447057
0.000542104
0.000618646
0.000671784
0.00069889
0.000698888
0.000671779
0.000618634
0.000542084
0.00044703
0.000341119
0.000234462
0.00013881
6.85599e-05
1.17102e-05
1.24714e-05
6.98469e-05
0.000145772
0.00024682
0.000358737
0.000468818
0.00056625
0.000643483
0.000696328
0.000723011
0.00072301
0.000696324
0.000643474
0.000566234
0.000468797
0.000358716
0.00024681
0.000145779
6.98604e-05
1.247e-05
1.34145e-05
7.11818e-05
0.000154042
0.000261428
0.000379343
0.000493763
0.000593063
0.00067005
0.000721665
0.000747357
0.000747356
0.000721663
0.000670045
0.00059305
0.000493741
0.00037931
0.000261394
0.000154021
7.118e-05
1.34144e-05
1.45537e-05
7.44847e-05
0.00016441
0.000279003
0.000403811
0.000522617
0.000622881
0.000698237
0.000747339
0.000771293
0.000771293
0.000747339
0.000698236
0.000622877
0.000522608
0.000403801
0.000278999
0.000164418
7.44914e-05
1.45522e-05
1.58317e-05
7.89275e-05
0.000177292
0.000300754
0.00043356
0.000556378
0.000656027
0.000727742
0.000772645
0.000793946
0.000793947
0.000772645
0.000727742
0.000656024
0.000556369
0.000433545
0.000300741
0.00017729
7.8933e-05
1.58317e-05
1.72919e-05
8.61859e-05
0.000194247
0.000328591
0.000470445
0.000596151
0.000692558
0.000757879
0.000796541
0.000814212
0.000814212
0.000796541
0.000757877
0.000692557
0.000596146
0.000470436
0.000328583
0.00019425
8.6189e-05
1.729e-05
1.8838e-05
9.63634e-05
0.000216877
0.000365142
0.000516315
0.00064257
0.000731928
0.000787417
0.000817605
0.000830582
0.00083058
0.000817605
0.00078742
0.00073194
0.000642581
0.000516314
0.000365134
0.000216871
9.6354e-05
1.88378e-05
2.0482e-05
0.000111818
0.000248027
0.000414093
0.000575274
0.000696732
0.000772901
0.000814648
0.000834191
0.000841114
0.000841117
0.000834195
0.000814654
0.000772917
0.000696738
0.000575258
0.000414068
0.000248004
0.000111806
2.04814e-05
2.21043e-05
0.000132986
0.000294116
0.000489133
0.000654531
0.000758187
0.000811866
0.000834913
0.000843866
0.000847303
0.000847305
0.000843872
0.000834926
0.000811863
0.000758161
0.000654522
0.000489143
0.000294129
0.000132986
2.21034e-05
2.37697e-05
0.000166025
0.000385836
0.000610265
0.000753967
0.000817165
0.000839097
0.000846372
0.000849863
0.000851183
0.000851178
0.000849842
0.000846311
0.000839004
0.000817109
0.000753959
0.000610269
0.000385806
0.000165998
2.37707e-05
2.56193e-05
0.000278638
0.000620062
0.000787513
0.000832583
0.000845088
0.000849611
0.000851573
0.000851945
0.000851954
0.000851954
0.000851943
0.000851559
0.000849585
0.000845042
0.000832515
0.000787459
0.00062008
0.000278656
2.5619e-05
4.32962e-05
0.000111946
0.000129382
0.00013612
0.000142313
0.000156045
0.000180458
0.000211717
0.000239936
0.000256468
0.000255976
0.000238844
0.000209917
0.000179588
0.000157292
0.000144365
0.000137296
0.000129039
0.000111444
4.30293e-05
4.29704e-05
0.000111607
0.000128844
0.000134774
0.000139993
0.000154366
0.000182111
0.000214898
0.000243568
0.000260195
0.000259563
0.000242072
0.00021078
0.00017984
0.000157058
0.000145393
0.00013792
0.000128988
0.000111319
4.27584e-05
4.30296e-05
0.000111518
0.000128129
0.000134373
0.000140019
0.000154389
0.000180266
0.000212678
0.000241899
0.000258596
0.00025744
0.000242046
0.000211403
0.000179656
0.000156334
0.000143124
0.000135679
0.000127812
0.000111131
4.28882e-05
4.32057e-05
0.000111738
0.000128906
0.000135002
0.00014094
0.000154274
0.000180403
0.00021313
0.00024269
0.000259417
0.000258299
0.000241201
0.000212084
0.000182768
0.000159172
0.000143209
0.000136111
0.000128473
0.000111426
4.31303e-05
4.29795e-05
0.000111368
0.000128079
0.000134272
0.000140668
0.000154624
0.00018125
0.000213777
0.000244823
0.000262101
0.000259836
0.000241908
0.000212723
0.000182632
0.000159089
0.000144287
0.000136876
0.000128694
0.000111392
4.2987e-05
4.26252e-05
0.000110921
0.000128101
0.00013466
0.000141586
0.000156693
0.000181854
0.000214112
0.000243459
0.000260886
0.000259568
0.000242942
0.000215217
0.000183552
0.000159141
0.000142676
0.000135976
0.000127595
0.000111477
4.27036e-05
4.27865e-05
0.000110587
0.000127755
0.000135482
0.00014352
0.000156968
0.000184452
0.000216458
0.000243326
0.000260108
0.000258063
0.000242749
0.000215482
0.000184129
0.000157783
0.000140867
0.000136842
0.000129288
0.000111348
4.30547e-05
4.23778e-05
0.000110582
0.000127526
0.000136884
0.000142707
0.000158316
0.000184145
0.000215546
0.000242583
0.000260067
0.00025976
0.000242068
0.00021647
0.000183692
0.000158574
0.000142778
0.000133787
0.000128344
0.000110908
4.27773e-05
4.22547e-05
0.00011019
0.000127611
0.000137009
0.000144405
0.000158825
0.000185023
0.000216002
0.000243457
0.000260535
0.000259169
0.000243994
0.000217052
0.000186305
0.000157266
0.000140827
0.000133215
0.000128075
0.000110564
4.24422e-05
4.21346e-05
0.000109595
0.000126636
0.00013592
0.000143814
0.000158732
0.000183622
0.000218087
0.000246741
0.000260381
0.000261699
0.000243992
0.000218239
0.000185793
0.000157187
0.000141932
0.000132033
0.000127259
0.000110141
4.24436e-05
4.2005e-05
0.000109293
0.000125966
0.000135472
0.000142866
0.000158351
0.000185503
0.000217874
0.000245269
0.000261064
0.000260463
0.000244775
0.00021866
0.000186329
0.000156719
0.000140186
0.000132327
0.000126486
0.000109967
4.2378e-05
4.18408e-05
0.000109176
0.000125768
0.000134967
0.000142012
0.000157217
0.000185358
0.000218509
0.000245675
0.000261916
0.000262744
0.0002471
0.000219709
0.000186811
0.000158056
0.00014058
0.000131022
0.000126174
0.000109503
4.23066e-05
4.16639e-05
0.000108546
0.000125327
0.000134128
0.000141572
0.00015762
0.000186264
0.000219531
0.000246573
0.00026268
0.000263663
0.000248101
0.00022057
0.000187355
0.000158371
0.000139983
0.000130863
0.000125777
0.000109553
4.22722e-05
4.15539e-05
0.000108257
0.000124576
0.000133316
0.000142703
0.000159534
0.000186916
0.000220032
0.000248775
0.00026437
0.00026581
0.000250285
0.000221586
0.000188542
0.000160047
0.000139417
0.000130574
0.000126858
0.000109323
4.21877e-05
4.13995e-05
0.000107907
0.000124379
0.000133011
0.000141733
0.000159588
0.000187409
0.000220347
0.000249173
0.000264544
0.000264285
0.000250051
0.000222038
0.000188898
0.000160345
0.000140479
0.000131272
0.00012569
0.000109205
4.21045e-05
4.12592e-05
0.000107557
0.000123787
0.000132327
0.000142211
0.000159565
0.000188038
0.00022208
0.000250072
0.000265526
0.000265372
0.000250312
0.000222538
0.000189706
0.000160869
0.000140078
0.000130258
0.000125186
0.000108918
4.19845e-05
4.11061e-05
0.000107247
0.00012326
0.000131658
0.000141453
0.000160137
0.000189447
0.000222131
0.000249995
0.000266112
0.000266287
0.000250199
0.000223598
0.000190407
0.00016089
0.000140389
0.00012975
0.000123794
0.000108599
4.18182e-05
4.09738e-05
0.000107129
0.000122951
0.000131486
0.000140867
0.000160214
0.000189896
0.000222713
0.000249923
0.000264154
0.000264798
0.000251155
0.000224487
0.00019068
0.000160866
0.000140192
0.000130442
0.000124112
0.000108608
4.1855e-05
4.07663e-05
0.000106931
0.000122523
0.000131259
0.000140785
0.000160381
0.000190689
0.00022324
0.000251664
0.000265124
0.000265887
0.000252879
0.000225251
0.000191232
0.000161181
0.000140496
0.000129979
0.000123515
0.000108298
4.16037e-05
4.05533e-05
0.000106288
0.000121887
0.000130945
0.000141399
0.000161025
0.00019154
0.00022421
0.000252203
0.000267255
0.000268585
0.000253197
0.000225916
0.000191633
0.000161387
0.000140539
0.00012987
0.000123168
0.000108003
4.15603e-05
4.04051e-05
0.000105835
0.000121145
0.000129813
0.000140898
0.00016153
0.00019259
0.000225907
0.000254524
0.000268494
0.000268885
0.000254867
0.000226402
0.000192086
0.000161511
0.000140597
0.000129445
0.000122597
0.000107178
4.13397e-05
4.03728e-05
0.000105516
0.000120268
0.000128958
0.00014032
0.000161601
0.00019335
0.00022668
0.0002549
0.000269676
0.000270167
0.000254188
0.000227084
0.000193144
0.000161887
0.000140337
0.000128926
0.000122047
0.000107003
4.11647e-05
4.04677e-05
0.000105491
0.000119108
0.000127759
0.000139878
0.000162355
0.000194565
0.000227348
0.000255529
0.000271441
0.000271305
0.000254697
0.00022772
0.000194063
0.000162633
0.000140115
0.000128357
0.000121314
0.000106815
4.10214e-05
4.06836e-05
0.000105778
0.00011866
0.000127014
0.000139835