/*--------------------------------*- C++ -*----------------------------------*\
  =========                 |
  \\      /  F ield         | OpenFOAM: The Open Source CFD Toolbox
   \\    /   O peration     | Website:  https://openfoam.org
    \\  /    A nd           | Version:  6
     \\/     M anipulation  |
\*---------------------------------------------------------------------------*/
FoamFile
{
    version     2.0;
    format      ascii;
    class       volScalarField;
    location    "29";
    object      p;
}
// * * * * * * * * * * * * * * * * * * * * * * * * * * * * * * * * * * * * * //

dimensions      [0 2 -2 0 0 0 0];

internalField   nonuniform List<scalar> 
10000
(
0.0283125
0.0285159
0.0279358
0.026284
0.0235958
0.0215188
0.0204319
0.0200237
0.0199316
0.0198362
0.0196762
0.0193689
0.0187722
0.0179734
0.0170251
0.0164922
0.0165326
0.0166981
0.0185711
0.0212403
0.0695891
0.0685909
0.0704415
0.0731648
0.0737953
0.0727534
0.0712653
0.0701668
0.0696359
0.0693593
0.0692942
0.0690888
0.0689846
0.0685637
0.0676759
0.0657567
0.0624674
0.0590099
0.0583944
0.0608489
0.112939
0.110372
0.109892
0.11185
0.114194
0.115933
0.116991
0.117521
0.117754
0.117802
0.117665
0.117251
0.116358
0.115041
0.113339
0.111399
0.109625
0.108778
0.10886
0.109255
0.160646
0.159163
0.158461
0.160163
0.163013
0.165336
0.166837
0.167607
0.167908
0.167961
0.167798
0.167385
0.166614
0.165403
0.163622
0.16153
0.159392
0.157972
0.157849
0.158231
0.218825
0.220484
0.22064
0.220311
0.220599
0.22084
0.220959
0.220829
0.220618
0.220336
0.220049
0.21972
0.219219
0.218691
0.218014
0.217384
0.217091
0.217193
0.216747
0.215347
0.274772
0.277151
0.278352
0.277812
0.276917
0.275882
0.27491
0.274027
0.273358
0.272873
0.272526
0.272274
0.272237
0.272545
0.273346
0.274682
0.276173
0.277107
0.276299
0.274248
0.323267
0.323322
0.323685
0.323601
0.323498
0.323705
0.323915
0.323956
0.323912
0.323883
0.324005
0.324363
0.324991
0.326002
0.327346
0.328909
0.330285
0.330751
0.330138
0.329511
0.369512
0.368315
0.368165
0.368696
0.369622
0.371125
0.372538
0.373525
0.374068
0.374433
0.374702
0.375095
0.375743
0.376571
0.377515
0.378416
0.379044
0.379002
0.37848
0.378565
0.41994
0.419724
0.420086
0.420912
0.42188
0.422883
0.423814
0.424508
0.424949
0.425141
0.425204
0.425208
0.425041
0.424623
0.423873
0.422644
0.421094
0.419854
0.420169
0.421901
0.474888
0.476299
0.477121
0.477155
0.476875
0.476466
0.476325
0.476386
0.476529
0.47661
0.476617
0.476372
0.475887
0.474914
0.473396
0.471407
0.469153
0.467729
0.468214
0.469641
0.528727
0.529299
0.529734
0.529764
0.529322
0.528729
0.528305
0.528188
0.528229
0.528301
0.528309
0.528282
0.52811
0.52794
0.527727
0.527519
0.527418
0.527455
0.5268
0.524968
0.582184
0.582207
0.581996
0.581586
0.580984
0.580361
0.579869
0.579689
0.579667
0.579726
0.579705
0.579664
0.579658
0.579721
0.580017
0.580677
0.581538
0.582096
0.581416
0.579515
0.634725
0.633629
0.632364
0.631708
0.63146
0.631373
0.631371
0.631402
0.631463
0.631489
0.631507
0.631485
0.631408
0.631351
0.631442
0.63173
0.632129
0.632317
0.632158
0.631988
0.687984
0.687584
0.687187
0.687099
0.686908
0.686367
0.685675
0.685082
0.684697
0.684517
0.684439
0.684376
0.68445
0.684546
0.68477
0.685072
0.685401
0.685584
0.685337
0.685073
0.740397
0.742323
0.743681
0.743597
0.742565
0.74097
0.739458
0.738327
0.737671
0.737363
0.737364
0.737596
0.737983
0.738517
0.739021
0.739204
0.739168
0.738983
0.738854
0.738968
0.788799
0.78873
0.789113
0.790154
0.79101
0.791205
0.790849
0.790262
0.789761
0.789558
0.789661
0.790035
0.790802
0.791862
0.793084
0.794134
0.794751
0.79476
0.794236
0.793645
0.838078
0.8386
0.838801
0.839233
0.840168
0.840932
0.84118
0.841
0.84064
0.840337
0.840183
0.840299
0.840573
0.841201
0.842107
0.843209
0.844277
0.844587
0.843692
0.842161
0.884759
0.885228
0.885588
0.886147
0.887326
0.888707
0.8898
0.890414
0.890597
0.890527
0.890381
0.890136
0.889763
0.888932
0.887479
0.885515
0.883193
0.881318
0.88164
0.883381
0.934134
0.93477
0.935388
0.936061
0.937177
0.938589
0.939854
0.940763
0.941278
0.941462
0.941516
0.941422
0.941015
0.940038
0.938308
0.935792
0.933086
0.931421
0.931597
0.93232
0.990346
0.99164
0.992298
0.992343
0.992247
0.992432
0.99282
0.993298
0.993634
0.993807
0.993785
0.993619
0.993429
0.993202
0.993149
0.993294
0.993643
0.993923
0.992788
0.989887
1.04895
1.05066
1.05133
1.05071
1.04937
1.04821
1.04753
1.0472
1.04707
1.04695
1.04681
1.04665
1.04646
1.04656
1.0471
1.04814
1.04955
1.05034
1.04936
1.04694
1.10373
1.1046
1.10532
1.10526
1.10429
1.10309
1.10211
1.10134
1.10088
1.10064
1.10062
1.10065
1.10092
1.10128
1.10171
1.1021
1.10225
1.10197
1.10166
1.10174
1.15546
1.1555
1.15621
1.157
1.15698
1.15622
1.15524
1.15437
1.15382
1.15359
1.15372
1.15421
1.15505
1.15617
1.15742
1.15843
1.15883
1.15842
1.15768
1.15726
1.20648
1.20683
1.20698
1.2072
1.2072
1.20674
1.20619
1.20578
1.20554
1.20556
1.20581
1.20633
1.2071
1.20799
1.20905
1.21029
1.21129
1.21163
1.21098
1.20963
1.25574
1.25505
1.25413
1.25474
1.25597
1.25681
1.25724
1.25728
1.25716
1.2571
1.25729
1.25771
1.25808
1.25823
1.25797
1.25729
1.25641
1.25575
1.25579
1.25591
1.30667
1.30695
1.30683
1.30732
1.30835
1.30924
1.30971
1.30971
1.30943
1.30914
1.30896
1.30882
1.3086
1.30795
1.30675
1.30504
1.3031
1.30157
1.30127
1.3015
1.36046
1.36208
1.36282
1.36249
1.36223
1.36226
1.3623
1.36215
1.36191
1.36158
1.36126
1.3609
1.36027
1.35922
1.35768
1.35585
1.35413
1.35274
1.35216
1.35159
1.41483
1.41727
1.41845
1.41798
1.41702
1.41617
1.41555
1.4151
1.4148
1.41456
1.41435
1.41408
1.41384
1.41342
1.41291
1.41243
1.41203
1.41159
1.41075
1.40883
1.46646
1.46739
1.46821
1.46865
1.46861
1.46841
1.46808
1.46774
1.46753
1.46745
1.46751
1.46769
1.46802
1.46864
1.46961
1.47091
1.47226
1.47287
1.47173
1.46884
1.5189
1.51955
1.52019
1.52055
1.52061
1.52068
1.52068
1.52063
1.52064
1.52078
1.52113
1.52168
1.5226
1.52379
1.52526
1.52686
1.52815
1.52834
1.52738
1.52585
1.57389
1.57406
1.57406
1.57435
1.57451
1.57458
1.57453
1.57442
1.57429
1.57424
1.57439
1.57489
1.5757
1.57681
1.57805
1.5791
1.57974
1.57961
1.57895
1.57831
1.63167
1.63316
1.63403
1.63436
1.63385
1.63267
1.63116
1.62972
1.62857
1.62784
1.6274
1.62728
1.62735
1.62739
1.62717
1.6264
1.62518
1.62424
1.62465
1.62562
1.68373
1.68683
1.68891
1.68904
1.6878
1.68598
1.68413
1.68249
1.68129
1.68058
1.6803
1.68032
1.68029
1.68006
1.67933
1.67797
1.67628
1.67522
1.67556
1.67602
1.72809
1.72719
1.72714
1.72859
1.73034
1.7319
1.73287
1.73322
1.73317
1.73323
1.73344
1.73392
1.73452
1.73511
1.73555
1.73584
1.73602
1.73607
1.73493
1.73224
1.77978
1.77924
1.77868
1.7797
1.78183
1.78399
1.78555
1.78636
1.78666
1.78681
1.78708
1.7876
1.78825
1.78904
1.78977
1.7904
1.79088
1.79089
1.78973
1.78735
1.84003
1.84303
1.84424
1.84391
1.84337
1.84273
1.84225
1.84187
1.84165
1.84153
1.84163
1.84188
1.84237
1.84287
1.8432
1.84331
1.8431
1.84257
1.84205
1.84138
1.89922
1.90219
1.90367
1.90308
1.90143
1.89951
1.89791
1.8968
1.89614
1.89581
1.89582
1.89612
1.89664
1.89726
1.89783
1.89821
1.89831
1.89807
1.89738
1.89609
1.9531
1.95411
1.95494
1.95526
1.95469
1.95355
1.9521
1.95078
1.94978
1.94924
1.94902
1.94911
1.9494
1.94974
1.95007
1.95025
1.95015
1.94975
1.94902
1.94773
2.00261
2.00329
2.00404
2.00497
2.00549
2.00543
2.00477
2.00388
2.00301
2.00241
2.00208
2.00199
2.0019
2.00175
2.00132
2.00057
1.99961
1.99871
1.99809
1.99719
2.05129
2.05109
2.05088
2.05213
2.05402
2.05565
2.05654
2.05684
2.05674
2.05662
2.05655
2.05664
2.05672
2.05661
2.05603
2.0549
2.05338
2.05223
2.05178
2.05108
2.10697
2.10799
2.1081
2.10891
2.11026
2.11143
2.1121
2.11234
2.1124
2.11249
2.11278
2.11343
2.11434
2.11549
2.11656
2.11733
2.11762
2.11748
2.11642
2.11413
2.16778
2.17152
2.17301
2.17233
2.17105
2.16989
2.16907
2.16858
2.16831
2.16837
2.16868
2.1695
2.17085
2.1729
2.17561
2.17879
2.18177
2.1832
2.18126
2.17683
2.22574
2.22772
2.22883
2.22877
2.22777
2.22649
2.22527
2.22424
2.2235
2.22314
2.22315
2.22359
2.22433
2.22536
2.22646
2.22753
2.22818
2.22792
2.22721
2.2265
2.28052
2.2823
2.28362
2.28392
2.28327
2.28205
2.28061
2.27924
2.27815
2.27746
2.27716
2.27716
2.27731
2.27725
2.27646
2.27468
2.27207
2.26988
2.27001
2.27173
2.33036
2.33087
2.33142
2.33249
2.33331
2.33362
2.33341
2.33292
2.33234
2.33193
2.33175
2.33176
2.3317
2.3314
2.33047
2.32866
2.3264
2.32495
2.3246
2.32399
2.38245
2.38272
2.38277
2.38412
2.38595
2.38739
2.38806
2.3882
2.38801
2.38792
2.38794
2.38816
2.38842
2.38863
2.38862
2.38846
2.38835
2.3884
2.38711
2.38367
2.44078
2.44337
2.44419
2.44435
2.44476
2.44521
2.44539
2.44531
2.44507
2.44488
2.44489
2.44525
2.44587
2.44681
2.44793
2.44918
2.4503
2.45059
2.44884
2.44515
2.49931
2.50268
2.50472
2.50518
2.50474
2.50403
2.50326
2.50253
2.50192
2.50157
2.5016
2.50208
2.50299
2.50422
2.50561
2.50693
2.50775
2.50753
2.50623
2.50427
2.55394
2.55712
2.5595
2.56049
2.56021
2.55934
2.55836
2.55751
2.55687
2.55658
2.55668
2.55722
2.55809
2.55923
2.56041
2.56129
2.56165
2.56121
2.56001
2.5583
2.60721
2.60755
2.60749
2.60842
2.60963
2.6107
2.61133
2.61157
2.61148
2.6114
2.61136
2.6115
2.61161
2.61153
2.61099
2.60993
2.60853
2.60728
2.60694
2.60662
2.66688
2.66759
2.66743
2.66777
2.66846
2.66908
2.66933
2.66924
2.6689
2.66853
2.66822
2.66799
2.66759
2.66678
2.66531
2.66331
2.66116
2.65977
2.65983
2.65956
2.7285
2.73216
2.73438
2.73484
2.7339
2.73213
2.7303
2.72881
2.72771
2.72707
2.72676
2.72679
2.72697
2.72724
2.72742
2.72749
2.72734
2.72712
2.7259
2.72248
2.7826
2.78573
2.7877
2.78862
2.78846
2.78746
2.78624
2.78521
2.7845
2.78426
2.78445
2.7852
2.78638
2.78814
2.79024
2.79243
2.7941
2.79441
2.79225
2.78764
2.83398
2.83439
2.83441
2.83579
2.83783
2.83955
2.84051
2.84088
2.8409
2.84107
2.84146
2.84234
2.84365
2.84552
2.84776
2.85018
2.85209
2.85228
2.85017
2.8465
2.89366
2.89573
2.89652
2.89733
2.89853
2.89937
2.89955
2.8993
2.89893
2.89869
2.89881
2.89934
2.90013
2.90092
2.90128
2.90093
2.89977
2.89806
2.89724
2.89678
2.95597
2.96094
2.96331
2.96308
2.96206
2.96073
2.95937
2.95811
2.95718
2.95657
2.95639
2.95653
2.95681
2.95675
2.95588
2.95401
2.9514
2.9493
2.94888
2.94825
3.01205
3.01472
3.01628
3.01718
3.01737
3.01712
3.01648
3.01563
3.01481
3.01431
3.01415
3.01434
3.01456
3.01459
3.01408
3.01291
3.01118
3.00956
3.00785
3.00428
3.06593
3.06819
3.07016
3.07244
3.07389
3.07429
3.07382
3.07302
3.07215
3.07161
3.0714
3.07152
3.07176
3.07193
3.07183
3.07145
3.07061
3.06929
3.06681
3.06201
3.11982
3.12377
3.1262
3.12806
3.12952
3.13029
3.13036
3.12994
3.1293
3.12878
3.12847
3.12842
3.1284
3.12841
3.12831
3.1281
3.12777
3.127
3.12472
3.12008
3.17684
3.17944
3.18027
3.18176
3.18385
3.18585
3.18718
3.18772
3.18777
3.18764
3.18765
3.18786
3.18829
3.18864
3.18853
3.18775
3.1863
3.18458
3.18287
3.18001
3.24346
3.24757
3.24898
3.24957
3.2499
3.24987
3.24947
3.24892
3.24843
3.24812
3.24821
3.24878
3.24979
3.25111
3.25238
3.25311
3.25317
3.25232
3.25011
3.24566
3.3105
3.31693
3.31961
3.31899
3.31679
3.3142
3.31188
3.31004
3.30877
3.30812
3.30797
3.30835
3.30924
3.31064
3.3124
3.31428
3.31585
3.316
3.31356
3.30793
3.36764
3.37099
3.37264
3.37361
3.3734
3.37242
3.37102
3.3695
3.36822
3.36739
3.36709
3.36733
3.36788
3.36849
3.36876
3.3683
3.36707
3.36549
3.36474
3.36287
3.42081
3.42422
3.426
3.42785
3.42907
3.42931
3.42877
3.42786
3.42698
3.4264
3.42635
3.42672
3.42749
3.42825
3.42853
3.42801
3.42662
3.42539
3.42502
3.4226
3.47532
3.48011
3.48189
3.48321
3.48428
3.4849
3.48521
3.48533
3.48535
3.48553
3.48602
3.48701
3.48833
3.49004
3.49183
3.49333
3.49429
3.49452
3.49281
3.48663
3.53821
3.54322
3.54438
3.54517
3.54573
3.54601
3.54617
3.54628
3.54633
3.5465
3.54694
3.54777
3.54908
3.5508
3.55264
3.55432
3.55543
3.55543
3.55337
3.54689
3.61137
3.61895
3.62119
3.62048
3.61809
3.61512
3.61254
3.61069
3.60961
3.60906
3.60906
3.60957
3.61047
3.61163
3.61274
3.61339
3.6133
3.61214
3.61022
3.60503
3.68138
3.69052
3.69399
3.69304
3.68898
3.68371
3.6789
3.67534
3.67323
3.67221
3.67209
3.67254
3.67366
3.67506
3.67647
3.67755
3.67766
3.67644
3.6739
3.66743
3.73796
3.74437
3.74711
3.74828
3.74702
3.7439
3.7402
3.73704
3.73496
3.73407
3.73417
3.73519
3.73688
3.73916
3.74162
3.74357
3.74434
3.74337
3.74054
3.73299
3.7884
3.79258
3.79441
3.79779
3.80038
3.80092
3.7997
3.79787
3.79634
3.79569
3.79594
3.79702
3.79892
3.80138
3.80416
3.80669
3.80809
3.8076
3.80483
3.79678
3.84427
3.85095
3.85336
3.85644
3.85962
3.86113
3.86085
3.85957
3.85825
3.85747
3.85746
3.85825
3.85947
3.86098
3.86247
3.86339
3.86338
3.86228
3.86027
3.85335
3.90672
3.91634
3.91979
3.9217
3.92332
3.92395
3.92353
3.92239
3.92123
3.92037
3.92022
3.92055
3.9214
3.9221
3.92212
3.92089
3.91815
3.91519
3.91372
3.90854
3.97266
3.98213
3.98531
3.98644
3.98694
3.98699
3.98656
3.98576
3.9849
3.98436
3.98437
3.98501
3.98596
3.98701
3.98761
3.9871
3.98559
3.9839
3.98177
3.97393
4.04155
4.04879
4.05035
4.05104
4.05135
4.05146
4.05109
4.05042
4.04969
4.04933
4.04948
4.05014
4.05136
4.05287
4.05446
4.05587
4.05676
4.05683
4.05422
4.04434
4.11285
4.11972
4.12055
4.12011
4.11936
4.11849
4.11746
4.11636
4.11534
4.11465
4.11445
4.11487
4.11567
4.11686
4.11821
4.1195
4.12052
4.12084
4.11906
4.11061
4.18262
4.18805
4.18736
4.18624
4.18537
4.18451
4.18359
4.18258
4.18165
4.18091
4.18063
4.18065
4.18103
4.18129
4.18122
4.18069
4.17985
4.17964
4.17998
4.17501
4.25324
4.25812
4.25634
4.25442
4.25319
4.25206
4.25099
4.24997
4.24911
4.24851
4.24838
4.24872
4.24934
4.25008
4.25069
4.25098
4.25121
4.25238
4.25342
4.24793
4.32641
4.33282
4.33093
4.3272
4.32417
4.32176
4.32003
4.31886
4.31807
4.31766
4.31771
4.31828
4.31951
4.32135
4.32392
4.32721
4.33083
4.33438
4.33474
4.32642
4.40004
4.40701
4.40558
4.40158
4.39777
4.39432
4.39168
4.38981
4.38859
4.38792
4.38783
4.3885
4.38987
4.39228
4.39572
4.40007
4.40458
4.40852
4.40898
4.40107
4.47164
4.48134
4.48248
4.47902
4.47415
4.46897
4.46469
4.46163
4.45976
4.45882
4.45878
4.45961
4.4614
4.46415
4.46768
4.47166
4.47509
4.47797
4.47847
4.47185
4.53507
4.54667
4.55032
4.5487
4.54464
4.53947
4.53494
4.53176
4.52987
4.52918
4.52949
4.531
4.53358
4.53744
4.54224
4.54725
4.55115
4.55352
4.55162
4.54189
4.59473
4.60632
4.61175
4.61333
4.61246
4.6094
4.60579
4.60292
4.60101
4.60037
4.60071
4.60233
4.6051
4.60926
4.61448
4.61973
4.6233
4.6241
4.61855
4.60486
4.65935
4.67454
4.68349
4.6868
4.68691
4.68389
4.6797
4.67601
4.67354
4.67247
4.67273
4.67435
4.67712
4.68079
4.68448
4.68664
4.68546
4.68122
4.67241
4.65857
4.72337
4.74174
4.75443
4.75956
4.76057
4.75772
4.75336
4.74927
4.74644
4.74512
4.74528
4.74677
4.74937
4.75241
4.75487
4.75477
4.75063
4.74346
4.73089
4.71407
4.7831
4.79841
4.8118
4.82059
4.82634
4.82756
4.82574
4.82283
4.82024
4.81877
4.81855
4.81944
4.82111
4.82272
4.82327
4.82122
4.81551
4.80722
4.79247
4.7741
4.85207
4.86543
4.8783
4.88724
4.89519
4.89912
4.89939
4.89772
4.89568
4.89426
4.89388
4.8944
4.89529
4.89546
4.89384
4.88899
4.88099
4.87236
4.85951
4.84587
4.93977
4.95006
4.95929
4.96311
4.96859
4.97254
4.97404
4.97378
4.9728
4.97194
4.97174
4.97212
4.97288
4.97304
4.972
4.96926
4.96558
4.96337
4.95462
4.94432
5.05014
5.05469
5.05829
5.0535
5.05269
5.05348
5.05401
5.05385
5.05322
5.05265
5.05249
5.05303
5.05398
5.05534
5.05736
5.06041
5.06535
5.07239
5.0678
5.06136
5.17296
5.1741
5.1761
5.16211
5.15144
5.14458
5.14039
5.1378
5.1363
5.13548
5.1355
5.13645
5.13867
5.14248
5.14824
5.15636
5.16655
5.17855
5.17579
5.17658
5.27938
5.27818
5.28593
5.26892
5.25227
5.23871
5.22913
5.22319
5.22006
5.21872
5.21879
5.22058
5.22435
5.23097
5.24045
5.25223
5.2657
5.28004
5.27256
5.27586
5.34983
5.34479
5.36581
5.35475
5.34188
5.32881
5.3173
5.30906
5.30442
5.30246
5.30252
5.30462
5.30928
5.317
5.32716
5.33863
5.35049
5.3619
5.34166
5.34628
5.39906
5.38622
5.42544
5.42145
5.41639
5.40941
5.40056
5.39261
5.38755
5.38538
5.3855
5.38801
5.39278
5.39998
5.40784
5.41403
5.41922
5.4237
5.38484
5.39739
5.47058
5.43486
5.4913
5.48605
5.48332
5.48197
5.47759
5.47161
5.46702
5.46485
5.46499
5.4672
5.4716
5.4771
5.48154
5.48353
5.48704
5.4926
5.43594
5.47164
5.61471
5.52633
5.59863
5.57761
5.5621
5.55684
5.55228
5.54634
5.54127
5.53867
5.53872
5.54152
5.54628
5.55203
5.55705
5.56302
5.5793
5.6012
5.52928
5.61748
5.83717
5.64916
5.74556
5.70209
5.66117
5.64188
5.63121
5.62247
5.61573
5.61219
5.6121
5.61555
5.62211
5.63092
5.64188
5.66181
5.70317
5.74714
5.65052
5.83744
6.06962
5.70959
5.85927
5.81311
5.75457
5.72391
5.70888
5.69866
5.69103
5.68698
5.68669
5.69071
5.69786
5.7082
5.7236
5.75441
5.81288
5.85819
5.70716
6.06622
6.26687
5.63058
5.88476
5.87425
5.81522
5.78034
5.76408
5.75418
5.74688
5.74291
5.74289
5.74683
5.75407
5.76441
5.78096
5.81574
5.87417
5.8833
5.62858
6.26596
6.62546
5.52395
5.90259
5.93707
5.86575
5.81595
5.79245
5.77937
5.77059
5.76597
5.7661
5.77108
5.77977
5.79404
5.81666
5.86676
5.93579
5.9014
5.52434
6.62841
7.67907
5.53806
5.86229
5.96121
5.89914
5.84446
5.81971
5.80751
5.80014
5.79603
5.79631
5.7998
5.80693
5.81957
5.84379
5.89878
5.9611
5.86309
5.53936
7.6785
9.63169
5.21876
5.3169
5.70563
5.79771
5.79713
5.79443
5.79375
5.79239
5.79118
5.7912
5.79238
5.79373
5.79447
5.79711
5.79771
5.7056
5.31695
5.21889
9.63178
0.0255987
0.0362261
0.0362372
0.0402679
0.0385137
0.0376517
0.039265
0.0415116
0.0430305
0.0436697
0.0439839
0.0443243
0.0449577
0.0464364
0.0494227
0.0544696
0.0583745
0.0559993
0.0602062
0.0581796
0.121185
0.139186
0.148051
0.159031
0.16341
0.163619
0.163064
0.163245
0.163629
0.163835
0.164366
0.16541
0.168283
0.17331
0.18093
0.188627
0.191965
0.190713
0.192776
0.184131
0.284348
0.288284
0.295456
0.299504
0.297045
0.292149
0.28796
0.285444
0.283969
0.283104
0.282348
0.282113
0.281757
0.281744
0.281552
0.28239
0.286538
0.293033
0.297646
0.297834
0.426136
0.424068
0.424548
0.425585
0.422141
0.415424
0.40907
0.404787
0.402312
0.400771
0.399455
0.397941
0.395217
0.390065
0.380346
0.365524
0.347954
0.334996
0.337773
0.349091
0.530142
0.524434
0.521017
0.525881
0.531807
0.534281
0.532796
0.529586
0.52646
0.52429
0.522503
0.520789
0.517983
0.513286
0.505189
0.493092
0.479512
0.470262
0.466863
0.465847
0.638467
0.635684
0.633355
0.639958
0.649032
0.654582
0.655444
0.653778
0.651127
0.649208
0.647423
0.646108
0.644612
0.643499
0.643174
0.645171
0.650146
0.6544
0.648199
0.632091
0.772715
0.776358
0.771188
0.765672
0.765719
0.76836
0.770907
0.772274
0.77243
0.772172
0.771913
0.772366
0.773139
0.774906
0.77816
0.784798
0.793695
0.798643
0.795736
0.786032
0.895001
0.898733
0.89364
0.888642
0.886896
0.88778
0.889347
0.890379
0.890803
0.891013
0.891633
0.893059
0.895817
0.899741
0.904681
0.910224
0.915136
0.917072
0.917572
0.917277
1.00137
1.01501
1.0207
1.01672
1.01014
1.00547
1.00335
1.00263
1.00267
1.00303
1.00372
1.00496
1.0069
1.01001
1.01378
1.01719
1.0201
1.02189
1.02361
1.02543
1.07207
1.08142
1.08891
1.09205
1.095
1.09987
1.10486
1.10891
1.1119
1.11399
1.11533
1.11612
1.1162
1.11506
1.11162
1.10579
1.09811
1.09167
1.09354
1.09996
1.17376
1.17091
1.17563
1.18936
1.2043
1.21737
1.2259
1.23101
1.2338
1.23527
1.2356
1.23472
1.23188
1.22677
1.21899
1.20866
1.19682
1.1873
1.18513
1.18538
1.36149
1.36733
1.37169
1.37399
1.37363
1.37279
1.37184
1.37107
1.37011
1.36924
1.3679
1.36574
1.36199
1.35641
1.34923
1.34151
1.33524
1.33194
1.32589
1.31308
1.55101
1.56451
1.5646
1.55346
1.53741
1.5244
1.51612
1.51106
1.50778
1.50577
1.50475
1.50465
1.50541
1.50669
1.50759
1.50668
1.50331
1.49822
1.49023
1.47751
1.69724
1.69725
1.6924
1.68881
1.67854
1.66507
1.65285
1.64407
1.63841
1.63543
1.63435
1.63525
1.63864
1.64512
1.65525
1.66791
1.6795
1.68401
1.6772
1.66361
1.81224
1.81058
1.80423
1.79867
1.79071
1.78018
1.77017
1.76246
1.75741
1.75451
1.75337
1.75403
1.75609
1.75992
1.76616
1.7759
1.78743
1.79504
1.79747
1.79591
1.86643
1.86157
1.85521
1.85883
1.86717
1.87365
1.87592
1.87455
1.87223
1.8703
1.86954
1.86966
1.87047
1.87063
1.86926
1.86527
1.85781
1.85138
1.85825
1.8718
1.92425
1.92757
1.93102
1.9433
1.96054
1.97518
1.98434
1.98828
1.98931
1.98926
1.98953
1.99
1.98987
1.98809
1.98421
1.97704
1.96736
1.96124
1.96394
1.96811
2.03156
2.04946
2.06067
2.06836
2.07868
2.09003
2.09974
2.10639
2.11005
2.11193
2.11326
2.11455
2.11557
2.11555
2.11387
2.11067
2.10804
2.10909
2.10791
2.09767
2.17862
2.19688
2.20809
2.21308
2.21618
2.22119
2.22716
2.23206
2.23506
2.23652
2.23735
2.23824
2.23961
2.24177
2.2438
2.24518
2.24623
2.24686
2.24422
2.23389
2.34784
2.36388
2.37265
2.37227
2.36605
2.36116
2.35981
2.36055
2.36158
2.36209
2.36207
2.36174
2.36154
2.36177
2.36288
2.36559
2.37003
2.37298
2.37112
2.36233
2.50074
2.50426
2.5064
2.5081
2.50337
2.49583
2.48971
2.48661
2.48571
2.48548
2.48566
2.48591
2.48628
2.48624
2.48561
2.48404
2.48203
2.47905
2.47769
2.47503
2.63199
2.6319
2.63047
2.62958
2.62483
2.61797
2.61191
2.60831
2.60698
2.60698
2.60747
2.60807
2.60881
2.60931
2.60986
2.61043
2.61141
2.61161
2.60843
2.60074
2.72619
2.71858
2.71373
2.72022
2.72735
2.73086
2.73179
2.73143
2.73099
2.73115
2.73168
2.73215
2.73205
2.7317
2.73155
2.73141
2.73094
2.72923
2.72661
2.72117
2.83436
2.83154
2.82976
2.83939
2.85132
2.85854
2.8615
2.86218
2.86197
2.86198
2.86245
2.86324
2.86399
2.86405
2.86303
2.86031
2.85582
2.85036
2.84766
2.84445
2.98752
2.99849
2.99882
2.99708
2.99811
2.99888
2.99831
2.99702
2.99586
2.99527
2.9958
2.99742
2.99997
3.00275
3.00477
3.00445
3.00089
2.99513
2.99171
2.98731
3.15183
3.1629
3.16133
3.15408
3.14637
3.13977
3.13397
3.12921
3.12593
3.12426
3.12421
3.12561
3.12873
3.13331
3.13979
3.14787
3.15569
3.15939
3.1571
3.14698
3.28739
3.29612
3.29352
3.28418
3.27298
3.26333
3.25599
3.25062
3.24714
3.24529
3.24452
3.24485
3.24557
3.24719
3.25036
3.25688
3.26723
3.27687
3.279
3.26834
3.36432
3.36134
3.35637
3.35826
3.36185
3.36534
3.36746
3.36751
3.36647
3.36539
3.36486
3.36458
3.3642
3.36246
3.35782
3.34906
3.33655
3.32609
3.32941
3.33585
3.44501
3.44537
3.44718
3.45727
3.46925
3.47955
3.48631
3.48952
3.49024
3.4901
3.49017
3.49056
3.49051
3.48878
3.48429
3.47577
3.46409
3.45415
3.45118
3.44915
3.57289
3.58735
3.59561
3.59975
3.60453
3.60953
3.61362
3.61641
3.6176
3.61806
3.61833
3.619
3.61977
3.62046
3.6212
3.6225
3.62442
3.6257
3.6209
3.60561
3.72692
3.74071
3.74633
3.74701
3.74585
3.74554
3.74604
3.74672
3.74697
3.74688
3.74674
3.74717
3.74832
3.75118
3.75622
3.76353
3.77147
3.77584
3.7726
3.75712
3.89056
3.90386
3.90644
3.90014
3.88966
3.88194
3.87819
3.87671
3.87596
3.87557
3.8752
3.87501
3.87478
3.87444
3.87439
3.87634
3.88085
3.88454
3.8847
3.87592
4.0195
4.02345
4.02079
4.01647
4.01062
4.0066
4.0049
4.00449
4.00461
4.00481
4.00543
4.00614
4.00691
4.00631
4.00259
3.99433
3.98238
3.97225
3.97387
3.97756
4.12832
4.12454
4.12484
4.13459
4.1411
4.14202
4.1399
4.13754
4.13605
4.13573
4.13664
4.13847
4.14145
4.14486
4.14829
4.1498
4.14768
4.14398
4.14129
4.13463
4.26371
4.27372
4.28067
4.28384
4.28286
4.27825
4.27265
4.26755
4.26392
4.26211
4.26186
4.2631
4.2653
4.26955
4.27721
4.28984
4.30574
4.31718
4.31477
4.29664
4.38374
4.39415
4.39438
4.39169
4.39073
4.39047
4.38965
4.38783
4.38577
4.3841
4.38307
4.38273
4.38268
4.38262
4.38243
4.38332
4.38678
4.39045
4.3929
4.38619
4.48743
4.49006
4.4866
4.4899
4.49673
4.5036
4.50829
4.51016
4.5103
4.50935
4.50856
4.50746
4.50575
4.50157
4.49292
4.47796
4.45957
4.44635
4.44854
4.45367
4.61552
4.62185
4.62184
4.62578
4.63111
4.63645
4.64094
4.64338
4.64415
4.64386
4.64364
4.64307
4.64215
4.63947
4.63434
4.62552
4.61338
4.60324
4.59927
4.59279
4.77419
4.7847
4.78742
4.78902
4.78878
4.7873
4.78597
4.78524
4.78472
4.7844
4.78454
4.78549
4.78701
4.78982
4.79481
4.80316
4.81316
4.81905
4.81283
4.78997
4.93835
4.9512
4.95322
4.9486
4.94084
4.93333
4.9274
4.92387
4.92217
4.92208
4.92325
4.92607
4.9307
4.93779
4.94822
4.96267
4.97787
4.9863
4.98459
4.96814
5.06724
5.07397
5.07192
5.06724
5.06146
5.05703
5.05371
5.05167
5.05074
5.05118
5.0531
5.05709
5.06328
5.07175
5.08182
5.0922
5.10088
5.10523
5.10782
5.10326
5.17286
5.17035
5.16646
5.17123
5.17687
5.17958
5.17876
5.17689
5.17526
5.17495
5.17567
5.17788
5.18118
5.18528
5.18892
5.1907
5.19086
5.19087
5.19433
5.1929
5.2965
5.30399
5.30407
5.30357
5.30311
5.30183
5.30007
5.29827
5.29705
5.29667
5.2973
5.29827
5.29808
5.29495
5.28729
5.27468
5.25948
5.24847
5.25067
5.25216
5.40544
5.41675
5.41604
5.41237
5.41155
5.41377
5.41721
5.41955
5.42076
5.42128
5.42194
5.42201
5.4205
5.41522
5.40525
5.39089
5.37444
5.36154
5.35752
5.34976
5.51629
5.51865
5.51915
5.53068
5.54396
5.55316
5.55707
5.5573
5.55575
5.55373
5.5515
5.54893
5.54534
5.54072
5.53561
5.53156
5.52924
5.5262
5.51672
5.4926
5.69592
5.7141
5.72256
5.72399
5.72033
5.71407
5.70712
5.7006
5.69484
5.6901
5.68611
5.68234
5.67819
5.67369
5.66978
5.66699
5.66449
5.65926
5.65161
5.63251
5.85298
5.87602
5.88135
5.87092
5.85526
5.84294
5.83504
5.82992
5.82634
5.82366
5.82218
5.82152
5.82161
5.82166
5.82148
5.82035
5.81771
5.81191
5.80707
5.79552
5.93204
5.93254
5.9296
5.93494
5.94203
5.94904
5.95369
5.95602
5.957
5.9579
5.95936
5.96228
5.96709
5.97402
5.98282
5.99255
6.00128
6.00503
6.00338
5.98968
6.03441
6.03037
6.03054
6.04647
6.06554
6.08046
6.08929
6.09347
6.09514
6.09653
6.09861
6.10261
6.10883
6.11823
6.13047
6.1443
6.15678
6.16442
6.16875
6.15969
6.22017
6.2344
6.24038
6.24264
6.24266
6.24166
6.24074
6.23943
6.23776
6.2369
6.23736
6.24011
6.2449
6.25155
6.25849
6.26431
6.2684
6.27191
6.28005
6.27811
6.41736
6.43935
6.44113
6.42899
6.41207
6.39695
6.38615
6.37895
6.37445
6.37215
6.37213
6.37409
6.37692
6.3788
6.37723
6.37057
6.36078
6.35509
6.36282
6.36441
6.53906
6.54698
6.54208
6.53592
6.52691
6.51742
6.50937
6.50379
6.50069
6.49974
6.50083
6.50324
6.50571
6.50626
6.50316
6.49568
6.48556
6.47904
6.48131
6.47351
6.60615
6.6009
6.59445
6.60361
6.61601
6.62474
6.62772
6.62743
6.62607
6.6257
6.62617
6.62751
6.62845
6.62889
6.62845
6.62855
6.63043
6.6327
6.62859
6.60314
6.70016
6.70552
6.70662
6.71916
6.73545
6.74837
6.75501
6.75693
6.75613
6.75506
6.7542
6.7536
6.75222
6.74935
6.74457
6.73946
6.7357
6.73173
6.72678
6.70537
6.84424
6.86627
6.87122
6.87382
6.87871
6.88494
6.88948
6.89112
6.89024
6.88816
6.88622
6.88435
6.88197
6.87756
6.87048
6.86101
6.85114
6.84063
6.83376
6.81788
7.01343
7.03809
7.04248
7.03958
7.03432
7.03134
7.0298
7.02826
7.02602
7.0234
7.0209
7.01855
7.01613
7.01338
7.01075
7.00842
7.00634
7.00109
6.99305
6.97208
7.16969
7.19055
7.19215
7.18578
7.17479
7.16656
7.16238
7.1606
7.15954
7.15851
7.15757
7.15692
7.15661
7.15692
7.1585
7.1619
7.16547
7.16409
7.15987
7.14047
7.28062
7.28434
7.27939
7.28388
7.28743
7.29046
7.29301
7.29479
7.29565
7.29623
7.29683
7.29822
7.30079
7.30487
7.31005
7.31562
7.3193
7.31796
7.3179
7.30353
7.41156
7.41514
7.41259
7.42345
7.43265
7.43694
7.43774
7.43722
7.43645
7.43632
7.43737
7.44029
7.44505
7.45145
7.45812
7.46281
7.46254
7.4576
7.45983
7.44999
7.58656
7.60958
7.61088
7.60648
7.59817
7.58953
7.5829
7.57846
7.57571
7.57448
7.57497
7.57735
7.58165
7.58761
7.59469
7.60096
7.60271
7.59994
7.60348
7.59146
7.73535
7.75903
7.75415
7.74396
7.73294
7.72497
7.71974
7.7162
7.71358
7.71211
7.71163
7.71241
7.71366
7.71581
7.7191
7.72378
7.72942
7.73522
7.74262
7.72409
7.8562
7.86748
7.86164
7.86767
7.87095
7.86901
7.86364
7.85817
7.85413
7.85211
7.85194
7.85333
7.85548
7.85703
7.85613
7.8526
7.84813
7.84698
7.85624
7.84104
8.00206
8.02683
8.02617
8.02561
8.02016
8.0117
8.00308
7.99632
7.99196
7.99022
7.99099
7.9942
7.99915
8.005
8.0095
8.01059
8.00873
8.00595
8.00817
7.98277
8.12094
8.1525
8.15055
8.14601
8.13948
8.13434
8.1306
8.12776
8.12596
8.12565
8.12712
8.13059
8.13604
8.14296
8.15056
8.15808
8.1644
8.1655
8.16457
8.13139
8.21733
8.24041
8.23913
8.25266
8.2639
8.26914
8.26898
8.26637
8.26395
8.26297
8.26374
8.2663
8.26988
8.27421
8.2787
8.28281
8.28657
8.28664
8.28749
8.25519
8.36785
8.40804
8.41412
8.42121
8.4224
8.41953
8.4143
8.40845
8.40383
8.40123
8.40121
8.40303
8.40615
8.40835
8.40825
8.40471
8.39799
8.38804
8.38774
8.3589
8.5146
8.56478
8.56986
8.56842
8.56109
8.5542
8.54825
8.54306
8.53894
8.53671
8.53671
8.5387
8.5415
8.54334
8.54281
8.53882
8.5326
8.5233
8.51979
8.48184
8.62127
8.66045
8.66253
8.67429
8.68024
8.68112
8.67853
8.67528
8.67262
8.67148
8.67199
8.67378
8.67624
8.67803
8.67835
8.67637
8.6719
8.66302
8.65885
8.61592
8.74369
8.78586
8.7895
8.80165
8.80948
8.81297
8.81256
8.81049
8.80837
8.80741
8.80782
8.8096
8.81194
8.81417
8.81583
8.81614
8.8148
8.80826
8.80483
8.7594
8.88292
8.92482
8.92654
8.93976
8.94955
8.95504
8.95524
8.9519
8.94788
8.94503
8.94384
8.94381
8.94454
8.94473
8.94455
8.94396
8.94259
8.93716
8.93699
8.89411
9.04307
9.09077
9.09104
9.09732
9.09942
9.09876
9.09572
9.09084
9.08595
9.082
9.0797
9.07846
9.07735
9.07493
9.07055
9.0639
9.05612
9.04762
9.05147
9.0142
9.17863
9.22648
9.22039
9.21923
9.21909
9.22131
9.22362
9.22396
9.223
9.22154
9.22098
9.22073
9.22063
9.21885
9.2139
9.2047
9.19206
9.1803
9.18614
9.15245
9.29134
9.32152
9.30874
9.321
9.33788
9.35291
9.36235
9.36664
9.36774
9.36805
9.36908
9.37127
9.37431
9.3778
9.38119
9.38325
9.38305
9.38059
9.38709
9.34761
9.47525
9.51641
9.50778
9.50938
9.51234
9.51601
9.51862
9.51962
9.51888
9.51812
9.51811
9.5197
9.52324
9.5294
9.53964
9.55572
9.57628
9.5934
9.60364
9.5544
9.67086
9.72231
9.71363
9.69882
9.68316
9.67325
9.66892
9.66683
9.66524
9.66375
9.66296
9.66349
9.66523
9.66865
9.6737
9.68143
9.69213
9.70393
9.72126
9.6877
9.80677
9.84356
9.8286
9.81762
9.809
9.8054
9.80578
9.80722
9.80865
9.80918
9.80988
9.81078
9.81247
9.81381
9.81279
9.80772
9.7991
9.79555
9.81214
9.79325
9.94201
9.96424
9.94804
9.94582
9.94735
9.95068
9.95442
9.95781
9.96025
9.96206
9.96384
9.96637
9.96948
9.97265
9.97471
9.97472
9.97215
9.97201
9.98049
9.95028
10.1502
10.1831
10.1735
10.1622
10.1479
10.1351
10.1272
10.1237
10.1222
10.1222
10.1228
10.1249
10.1285
10.1341
10.1423
10.1544
10.1684
10.181
10.1839
10.1379
10.3718
10.4184
10.4141
10.3888
10.3541
10.3221
10.3006
10.2888
10.2834
10.2815
10.2817
10.2837
10.2873
10.2937
10.3035
10.3163
10.3287
10.3378
10.3391
10.2993
10.5111
10.5477
10.5469
10.5341
10.5112
10.4839
10.462
10.4479
10.4411
10.4389
10.44
10.4434
10.4494
10.458
10.4684
10.479
10.4858
10.4879
10.4845
10.4523
10.5859
10.6143
10.6272
10.6416
10.646
10.6356
10.6199
10.6066
10.5984
10.5955
10.5964
10.6007
10.6079
10.6184
10.6312
10.6443
10.6524
10.6543
10.6439
10.6078
10.6604
10.7004
10.7324
10.7617
10.7818
10.7829
10.7739
10.763
10.7548
10.7513
10.7515
10.7553
10.7616
10.7702
10.7801
10.788