/*--------------------------------*- C++ -*----------------------------------*\
  =========                 |
  \\      /  F ield         | OpenFOAM: The Open Source CFD Toolbox
   \\    /   O peration     | Website:  https://openfoam.org
    \\  /    A nd           | Version:  6
     \\/     M anipulation  |
\*---------------------------------------------------------------------------*/
FoamFile
{
    version     2.0;
    format      ascii;
    class       volScalarField;
    location    "29";
    object      p;
}
// * * * * * * * * * * * * * * * * * * * * * * * * * * * * * * * * * * * * * //

dimensions      [0 2 -2 0 0 0 0];

internalField   nonuniform List<scalar> 
130000
(
0.0038894
0.00310769
0.00258404
0.00217323
0.00180576
0.00147549
0.00117958
0.00091217
0.0006693
0.000446425
0.000240846
4.95965e-05
-0.00012974
-0.000299805
-0.000461159
-0.000617154
-0.00076754
-0.000916455
-0.00106727
-0.00121243
-0.000867074
-0.00119105
-0.00159803
-0.00192128
-0.00221647
-0.00249117
-0.00275316
-0.00300158
-0.00324162
-0.00347453
-0.00370298
-0.00392892
-0.00415252
-0.00437508
-0.00459789
-0.00482036
-0.00504324
-0.00527019
-0.00550608
-0.00574798
-0.00406522
-0.00460746
-0.00514696
-0.00557902
-0.00597316
-0.00633682
-0.00668501
-0.00701534
-0.00733708
-0.00764963
-0.00795777
-0.00826171
-0.0085632
-0.00886419
-0.00916174
-0.00946106
-0.00975695
-0.0100567
-0.0103596
-0.0106669
-0.00814345
-0.00856608
-0.00904505
-0.00945631
-0.00985401
-0.0102393
-0.0106226
-0.010999
-0.0113754
-0.0117489
-0.0121223
-0.0124955
-0.0128676
-0.0132399
-0.0136116
-0.0139839
-0.0143544
-0.0147282
-0.015103
-0.0154784
-0.0123627
-0.0127216
-0.0131589
-0.0135507
-0.013944
-0.0143378
-0.0147394
-0.0151444
-0.0155564
-0.0159729
-0.0163938
-0.0168191
-0.0172467
-0.0176802
-0.0181127
-0.0185518
-0.0189878
-0.0194307
-0.0198724
-0.0203189
-0.0167868
-0.0170911
-0.017477
-0.017836
-0.0182095
-0.0185971
-0.0190018
-0.0194207
-0.0198544
-0.0203021
-0.0207599
-0.0212301
-0.0217058
-0.0221916
-0.0226806
-0.0231777
-0.0236737
-0.0241779
-0.0246807
-0.0251889
-0.0213479
-0.0215548
-0.0218799
-0.0222008
-0.0225524
-0.0229306
-0.0233356
-0.0237661
-0.0242193
-0.0246962
-0.0251889
-0.0257012
-0.026223
-0.0267619
-0.0273035
-0.0278598
-0.0284136
-0.0289796
-0.0295422
-0.0301158
-0.0257235
-0.0259117
-0.0262172
-0.0265277
-0.0268762
-0.0272616
-0.0276793
-0.0281313
-0.0286109
-0.0291214
-0.0296509
-0.0302061
-0.0307722
-0.0313587
-0.0319509
-0.0325591
-0.0331667
-0.0337882
-0.0344063
-0.0350367
-0.0300426
-0.0302444
-0.0305503
-0.0308638
-0.031222
-0.0316258
-0.0320654
-0.0325456
-0.0330559
-0.0336024
-0.0341697
-0.034767
-0.035377
-0.0360127
-0.0366527
-0.037315
-0.0379751
-0.0386533
-0.0393264
-0.0400182
-0.034477
-0.0346383
-0.0349221
-0.0352306
-0.0355941
-0.0360151
-0.0364755
-0.0369834
-0.0375236
-0.0381053
-0.0387089
-0.0393474
-0.0399987
-0.0406783
-0.0413647
-0.0420744
-0.0427835
-0.0435126
-0.0442367
-0.0449813
-0.0389155
-0.0390627
-0.0393321
-0.0396377
-0.0400078
-0.0404463
-0.0409278
-0.0414632
-0.0420329
-0.0426492
-0.0432886
-0.0439666
-0.0446586
-0.045384
-0.0461145
-0.0468744
-0.0476321
-0.048414
-0.0491896
-0.0499921
-0.0433775
-0.0434852
-0.0437389
-0.0440446
-0.0444242
-0.0448824
-0.0453859
-0.0459492
-0.0465479
-0.0471982
-0.047872
-0.0485891
-0.0493199
-0.0500868
-0.0508609
-0.0516656
-0.0524697
-0.0533
-0.0541241
-0.0549774
-0.0477496
-0.0478967
-0.0481664
-0.0484863
-0.0488802
-0.0493587
-0.0498827
-0.0504716
-0.051097
-0.0517789
-0.0524858
-0.0532397
-0.0540088
-0.0548193
-0.0556357
-0.0564888
-0.0573401
-0.0582219
-0.0590965
-0.0600069
-0.0522775
-0.0524155
-0.052676
-0.0529913
-0.0533848
-0.0538697
-0.0544039
-0.0550099
-0.055656
-0.0563648
-0.0571009
-0.0578898
-0.058695
-0.0595449
-0.0604036
-0.061301
-0.0621984
-0.0631289
-0.0640527
-0.065015
-0.056891
-0.0569973
-0.0572363
-0.0575403
-0.0579284
-0.058415
-0.0589557
-0.0595761
-0.0602409
-0.060975
-0.0617396
-0.0625623
-0.0634039
-0.0642963
-0.0651974
-0.0661436
-0.0670895
-0.0680729
-0.0690496
-0.0700712
-0.0614034
-0.0615088
-0.0617424
-0.0620464
-0.0624391
-0.0629344
-0.0634868
-0.0641249
-0.0648111
-0.0655724
-0.0663668
-0.0672249
-0.0681037
-0.0690368
-0.0699821
-0.0709747
-0.0719696
-0.0730049
-0.0740345
-0.0751121
-0.0658414
-0.0659508
-0.0661944
-0.0665122
-0.0669233
-0.0674386
-0.0680108
-0.068672
-0.069384
-0.0701754
-0.0710026
-0.0718974
-0.072816
-0.0737941
-0.0747852
-0.0758295
-0.0768767
-0.0779686
-0.0790555
-0.080197
-0.0701826
-0.0703458
-0.0706148
-0.0709512
-0.0713819
-0.0719185
-0.0725114
-0.0731958
-0.0739339
-0.0747558
-0.0756165
-0.0765494
-0.0775084
-0.0785302
-0.0795689
-0.080663
-0.0817632
-0.0829108
-0.0840555
-0.0852577
-0.0747121
-0.0748433
-0.075096
-0.0754271
-0.0758612
-0.0764088
-0.0770167
-0.0777206
-0.0784823
-0.0793333
-0.0802274
-0.0811978
-0.0821986
-0.083267
-0.0843544
-0.0855026
-0.0866587
-0.0878659
-0.0890723
-0.090342
-0.0792088
-0.0793115
-0.0795441
-0.0798663
-0.0803008
-0.0808578
-0.0814812
-0.0822053
-0.0829912
-0.0838716
-0.0847994
-0.0858087
-0.0868515
-0.0879653
-0.0891027
-0.090303
-0.0915151
-0.092781
-0.0940487
-0.0953829
-0.0836047
-0.0836889
-0.0839164
-0.0842418
-0.0846872
-0.0852606
-0.0859051
-0.0866545
-0.0874688
-0.0883806
-0.0893443
-0.0903928
-0.0914795
-0.0926414
-0.0938296
-0.0950854
-0.0963559
-0.0976831
-0.0990152
-0.100419
-0.0878255
-0.0879542
-0.0882023
-0.0885426
-0.089005
-0.0895977
-0.0902654
-0.0910419
-0.0918869
-0.0928319
-0.0938319
-0.0949205
-0.096051
-0.0972593
-0.0984988
-0.099808
-0.101136
-0.102524
-0.103919
-0.10539
-0.0921583
-0.0922612
-0.0924966
-0.0928324
-0.0932999
-0.0939035
-0.0945883
-0.0953872
-0.0962609
-0.0972376
-0.0982736
-0.0994005
-0.100575
-0.10183
-0.10312
-0.104485
-0.105872
-0.107321
-0.108783
-0.110323
-0.0964585
-0.0965302
-0.0967444
-0.0970681
-0.0975345
-0.0981438
-0.0988413
-0.0996586
-0.100558
-0.101565
-0.102635
-0.1038
-0.105016
-0.106316
-0.107656
-0.109072
-0.110517
-0.112026
-0.113552
-0.11516
-0.100655
-0.1007
-0.100901
-0.101219
-0.101689
-0.102307
-0.103018
-0.103852
-0.104774
-0.105808
-0.106912
-0.108112
-0.109369
-0.110713
-0.112102
-0.113571
-0.115073
-0.116642
-0.118233
-0.119911
-0.104701
-0.10476
-0.104961
-0.105275
-0.105746
-0.106367
-0.107086
-0.107932
-0.108871
-0.109928
-0.111061
-0.112294
-0.113589
-0.114973
-0.116409
-0.117927
-0.119484
-0.121111
-0.122764
-0.124509
-0.108789
-0.108797
-0.108963
-0.109253
-0.109709
-0.110322
-0.11104
-0.11189
-0.11284
-0.113913
-0.115069
-0.116331
-0.11766
-0.119085
-0.120565
-0.122132
-0.123743
-0.125427
-0.127143
-0.128956
-0.112768
-0.112725
-0.112847
-0.113101
-0.11353
-0.114126
-0.114833
-0.11568
-0.116635
-0.117719
-0.118892
-0.120179
-0.121539
-0.122999
-0.124522
-0.126134
-0.127796
-0.129535
-0.131312
-0.13319
-0.11656
-0.116466
-0.116544
-0.116764
-0.117167
-0.117745
-0.11844
-0.119283
-0.120239
-0.121331
-0.12252
-0.123827
-0.125215
-0.12671
-0.128273
-0.129932
-0.131645
-0.13344
-0.135277
-0.137224
-0.120118
-0.119986
-0.120024
-0.120209
-0.120585
-0.121143
-0.121824
-0.122661
-0.123617
-0.124716
-0.125917
-0.127244
-0.128657
-0.130183
-0.131784
-0.133486
-0.135248
-0.137098
-0.138994
-0.141006
-0.123463
-0.123282
-0.123279
-0.12343
-0.123779
-0.124318
-0.124985
-0.125815
-0.126769
-0.127875
-0.129087
-0.130432
-0.131869
-0.133426
-0.135063
-0.13681
-0.138622
-0.140526
-0.142483
-0.144564
-0.126582
-0.126356
-0.126308
-0.126419
-0.126736
-0.127251
-0.127901
-0.12872
-0.129671
-0.13078
-0.132001
-0.133363
-0.134822
-0.136408
-0.13808
-0.139867
-0.141726
-0.143685
-0.1457
-0.147848
-0.129499
-0.129211
-0.12911
-0.129179
-0.12946
-0.129949
-0.130578
-0.131385
-0.13233
-0.13344
-0.134669
-0.136046
-0.137526
-0.13914
-0.140846
-0.142677
-0.144584
-0.146598
-0.148674
-0.150894
-0.132178
-0.131833
-0.131675
-0.131694
-0.131933
-0.13239
-0.132993
-0.133783
-0.134717
-0.135825
-0.137058
-0.138448
-0.139946
-0.141587
-0.143325
-0.145196
-0.147149
-0.149218
-0.151354
-0.153643
-0.134642
-0.134222
-0.133999
-0.133963
-0.134156
-0.134577
-0.135149
-0.135918
-0.136838
-0.137941
-0.139176
-0.140575
-0.14209
-0.143758
-0.145528
-0.14744
-0.149442
-0.151566
-0.153765
-0.15613
-0.136851
-0.136359
-0.136065
-0.135965
-0.136103
-0.13648
-0.137015
-0.137758
-0.138657
-0.139752
-0.140983
-0.14239
-0.143918
-0.145608
-0.147408
-0.14936
-0.151407
-0.153587
-0.155847
-0.158285
-0.138819
-0.138234
-0.137859
-0.13769
-0.137768
-0.138096
-0.138589
-0.1393
-0.140176
-0.141256
-0.142482
-0.143892
-0.145432
-0.147144
-0.148973
-0.150964
-0.153059
-0.155296
-0.157621
-0.160138
-0.14049
-0.139818
-0.139357
-0.13911
-0.139119
-0.13939
-0.139834
-0.140507
-0.141352
-0.142413
-0.143627
-0.145037
-0.146584
-0.148313
-0.150169
-0.152197
-0.154336
-0.156629
-0.159017
-0.161611
-0.141884
-0.141104
-0.140547
-0.140216
-0.14015
-0.140358
-0.140746
-0.141375
-0.142184
-0.143221
-0.144418
-0.145823
-0.147374
-0.149119
-0.150999
-0.153064
-0.155249
-0.1576
-0.160053
-0.16273
-0.142958
-0.142071
-0.14141
-0.140982
-0.140831
-0.140965
-0.141289
-0.141864
-0.142629
-0.143634
-0.144809
-0.146203
-0.147752
-0.149507
-0.151407
-0.153504
-0.155732
-0.158137
-0.160655
-0.163411
-0.143732
-0.142714
-0.141936
-0.141403
-0.141157
-0.141209
-0.141459
-0.141973
-0.142686
-0.143651
-0.144796
-0.146173
-0.147714
-0.149477
-0.151393
-0.153523
-0.155792
-0.158253
-0.160837
-0.16368
-0.144154
-0.143007
-0.142102
-0.141452
-0.141098
-0.141055
-0.14122
-0.141661
-0.142312
-0.143227
-0.144332
-0.145684
-0.147211
-0.148972
-0.1509
-0.153054
-0.155361
-0.157874
-0.160521
-0.163446
-0.144254
-0.142953
-0.141907
-0.141127
-0.140654
-0.140506
-0.140573
-0.14093
-0.141507
-0.142362
-0.143418
-0.144735
-0.146239
-0.147993
-0.149926
-0.152103
-0.154445
-0.15701
-0.159722
-0.162736
-0.143992
-0.142535
-0.141336
-0.14041
-0.139802
-0.139531
-0.139485
-0.139743
-0.140231
-0.141012
-0.142006
-0.143276
-0.144746
-0.146482
-0.148412
-0.150602
-0.152973
-0.155585
-0.158358
-0.161454
-0.143403
-0.14176
-0.14039
-0.139304
-0.138545
-0.138137
-0.137962
-0.138105
-0.138489
-0.139181
-0.140097
-0.141307
-0.14273
-0.14444
-0.146357
-0.148555
-0.15095
-0.153607
-0.156442
-0.159627
-0.142438
-0.140612
-0.139059
-0.137795
-0.136867
-0.136299
-0.135976
-0.135982
-0.136241
-0.136824
-0.137646
-0.138777
-0.140139
-0.141804
-0.143697
-0.145891
-0.148301
-0.150995
-0.153885
-0.157154
-0.141162
-0.139122
-0.137365
-0.135903
-0.134784
-0.134037
-0.133541
-0.133388
-0.133499
-0.133949
-0.134654
-0.135687
-0.136968
-0.138576
-0.140429
-0.14261
-0.145028
-0.147755
-0.150699
-0.154057
-0.139549
-0.137293
-0.135315
-0.133629
-0.132293
-0.131335
-0.130636
-0.130292
-0.130225
-0.130515
-0.131074
-0.131983
-0.133161
-0.134688
-0.136485
-0.138634
-0.141047
-0.143795
-0.146787
-0.150226
-0.137698
-0.135182
-0.132952
-0.131013
-0.129425
-0.128222
-0.127285
-0.126714
-0.126433
-0.126525
-0.126907
-0.127661
-0.128707
-0.130132
-0.131851
-0.133956
-0.136352
-0.139116
-0.142152
-0.145678
-0.135571
-0.132796
-0.13029
-0.128061
-0.126181
-0.124688
-0.123465
-0.12262
-0.122079
-0.121932
-0.122094
-0.122656
-0.123537
-0.124826
-0.126445
-0.128481
-0.130844
-0.13361
-0.136681
-0.140286
-0.13331
-0.13022
-0.127392
-0.124825
-0.122601
-0.120763
-0.119199
-0.118022
-0.117167
-0.116726
-0.116621
-0.116946
-0.117623
-0.118747
-0.120235
-0.122185
-0.124499
-0.127259
-0.130362
-0.134053
-0.130878
-0.127463
-0.124274
-0.121313
-0.118679
-0.116425
-0.114448
-0.112871
-0.111634
-0.110837
-0.110407
-0.110443
-0.11087
-0.111786
-0.113114
-0.114948
-0.117194
-0.119933
-0.12306
-0.126831
-0.128434
-0.124619
-0.120999
-0.117566
-0.114441
-0.111687
-0.109214
-0.107154
-0.105459
-0.104234
-0.103415
-0.103104
-0.103233
-0.103903
-0.105036
-0.106732
-0.108892
-0.1116
-0.114748
-0.118606
-0.125905
-0.12167
-0.117555
-0.113565
-0.109852
-0.1065
-0.103434
-0.100803
-0.0985661
-0.0968403
-0.0955653
-0.0948504
-0.0946295
-0.0950072
-0.0959098
-0.0974352
-0.099487
-0.102146
-0.105302
-0.109239
-0.123473
-0.118709
-0.113995
-0.109336
-0.104925
-0.100869
-0.0971151
-0.0938256
-0.090974
-0.0886821
-0.0868967
-0.0857289
-0.0851174
-0.0851686
-0.0858065
-0.087135
-0.0890532
-0.0916432
-0.094792
-0.0988011
-0.121054
-0.115715
-0.110303
-0.104863
-0.0996457
-0.0947915
-0.0902729
-0.0862677
-0.0827582
-0.0798699
-0.0775504
-0.0759113
-0.0748893
-0.0745878
-0.0749355
-0.07603
-0.077777
-0.0802553
-0.0833542
-0.0873892
-0.118856
-0.112814
-0.106586
-0.100256
-0.0941481
-0.0884454
-0.0831418
-0.0784275
-0.0742854
-0.070836
-0.0680215
-0.065945
-0.0645377
-0.0638963
-0.0639427
-0.0647785
-0.0663082
-0.0686151
-0.0715929
-0.0755797
-0.116824
-0.11005
-0.102949
-0.0956876
-0.0886843
-0.082173
-0.0761632
-0.0708503
-0.0662044
-0.0623298
-0.0591469
-0.0567451
-0.0550371
-0.0541062
-0.0538715
-0.0544258
-0.0556846
-0.0577331
-0.0604785
-0.0642807
-0.115355
-0.107753
-0.0997516
-0.0916073
-0.0838261
-0.0766829
-0.0701843
-0.0645136
-0.0596089
-0.0555462
-0.0522095
-0.0496653
-0.0478043
-0.046693
-0.0462337
-0.0465225
-0.0474751
-0.0491887
-0.0515856
-0.0550611
-0.114673
-0.106293
-0.0974779
-0.0886317
-0.0803373
-0.0728846
-0.0662449
-0.0605685
-0.05574
-0.0517972
-0.0485744
-0.0461146
-0.0442798
-0.0431242
-0.0425394
-0.0426113
-0.0432645
-0.0446042
-0.0465746
-0.0496076
-0.11555
-0.106415
-0.0969454
-0.0876797
-0.0792387
-0.0718846
-0.0655111
-0.0602119
-0.055802
-0.052281
-0.0494317
-0.0472755
-0.0456498
-0.0446076
-0.0440218
-0.0439873
-0.0444181
-0.0454395
-0.0470106
-0.0496113
-0.118461
-0.108769
-0.0989162
-0.0895922
-0.0814036
-0.0745417
-0.0687954
-0.0641881
-0.0604604
-0.0575835
-0.055297
-0.0536134
-0.0523468
-0.0515589
-0.0511179
-0.0511207
-0.0514811
-0.0523409
-0.053665
-0.0559697
-0.124257
-0.114137
-0.104161
-0.0951029
-0.087488
-0.0813965
-0.0764967
-0.0727496
-0.0698304
-0.0676969
-0.0660627
-0.0649459
-0.0641461
-0.0637453
-0.0635977
-0.0638313
-0.0643434
-0.0653006
-0.0666479
-0.0689469
-0.133154
-0.122838
-0.112985
-0.104429
-0.0975679
-0.092355
-0.0883459
-0.08546
-0.0833309
-0.0819245
-0.08094
-0.0804213
-0.0801526
-0.0802422
-0.0805412
-0.0812041
-0.0821218
-0.0834745
-0.0851761
-0.0878213
-0.145493
-0.135055
-0.125431
-0.117448
-0.111338
-0.106937
-0.103707
-0.101557
-0.1001
-0.09933
-0.0989436
-0.0990168
-0.0993265
-0.100014
-0.100914
-0.102226
-0.103813
-0.105879
-0.108291
-0.111685
-0.160816
-0.150375
-0.141009
-0.133536
-0.128036
-0.124257
-0.121605
-0.120004
-0.119064
-0.118824
-0.118977
-0.119641
-0.120576
-0.121962
-0.123622
-0.125783
-0.128288
-0.131358
-0.134807
-0.139309
-0.178886
-0.168365
-0.159135
-0.151986
-0.146862
-0.143458
-0.141152
-0.139913
-0.139355
-0.139564
-0.14023
-0.14151
-0.14315
-0.145374
-0.147967
-0.151201
-0.154872
-0.159236
-0.164042
-0.170021
-0.198794
-0.188174
-0.178934
-0.171887
-0.166888
-0.16362
-0.161462
-0.160437
-0.16017
-0.160796
-0.16199
-0.163957
-0.166414
-0.169631
-0.173356
-0.177881
-0.182969
-0.188905
-0.195374
-0.203157
-0.220121
-0.209212
-0.199735
-0.192538
-0.187421
-0.184087
-0.181925
-0.181025
-0.181012
-0.182074
-0.183862
-0.186627
-0.190062
-0.194481
-0.199569
-0.205662
-0.212457
-0.220291
-0.228772
-0.238748
-0.241939
-0.230659
-0.220764
-0.213208
-0.207778
-0.204224
-0.201957
-0.201135
-0.201382
-0.202934
-0.205415
-0.209134
-0.213741
-0.219595
-0.226322
-0.234276
-0.243111
-0.253204
-0.264081
-0.276655
-0.264057
-0.25217
-0.24163
-0.233505
-0.227587
-0.223687
-0.221239
-0.220474
-0.221005
-0.223125
-0.226425
-0.231276
-0.237287
-0.244872
-0.253563
-0.26377
-0.275057
-0.287869
-0.301628
-0.317338
-0.285871
-0.273263
-0.261904
-0.253034
-0.246474
-0.24211
-0.239407
-0.238672
-0.239506
-0.242269
-0.246519
-0.252701
-0.260372
-0.270001
-0.281045
-0.293937
-0.308165
-0.324226
-0.34144
-0.360892
-0.30764
-0.29403
-0.281606
-0.271765
-0.264369
-0.259387
-0.256314
-0.255546
-0.256675
-0.260138
-0.265463
-0.273183
-0.2828
-0.294859
-0.308707
-0.324841
-0.342615
-0.362611
-0.384012
-0.408014
-0.329214
-0.314435
-0.300717
-0.28965
-0.281168
-0.275342
-0.271711
-0.270776
-0.272132
-0.276307
-0.282808
-0.29227
-0.304133
-0.319027
-0.336204
-0.356197
-0.378241
-0.402979
-0.429448
-0.458936
-0.351398
-0.335066
-0.319687
-0.307011
-0.297066
-0.290046
-0.285555
-0.284216
-0.285645
-0.290485
-0.298225
-0.309621
-0.324054
-0.342262
-0.363362
-0.387982
-0.41518
-0.445692
-0.478345
-0.514554
-0.374566
-0.356377
-0.338913
-0.324125
-0.312193
-0.303472
-0.29767
-0.295557
-0.296792
-0.302156
-0.311139
-0.324639
-0.341969
-0.363985
-0.389689
-0.419787
-0.453181
-0.490665
-0.530841
-0.57521
-0.400077
-0.379441
-0.359255
-0.341635
-0.32698
-0.31585
-0.308096
-0.304677
-0.305315
-0.310974
-0.321151
-0.33691
-0.357498
-0.383915
-0.415001
-0.451611
-0.492436
-0.538373
-0.587711
-0.64206
-0.428733
-0.405122
-0.381454
-0.360093
-0.341765
-0.327301
-0.316758
-0.311324
-0.310836
-0.316458
-0.327714
-0.345851
-0.370042
-0.401448
-0.438789
-0.483055
-0.53276
-0.588865
-0.649298
-0.715718
-0.462383
-0.434906
-0.406709
-0.380412
-0.35719
-0.338228
-0.323852
-0.315535
-0.313236
-0.318383
-0.330557
-0.351236
-0.379514
-0.416737
-0.461421
-0.514756
-0.574986
-0.643202
-0.716956
-0.798023
-0.502126
-0.469947
-0.436025
-0.403394
-0.373836
-0.349014
-0.329645
-0.317559
-0.312911
-0.317372
-0.330567
-0.354165
-0.387145
-0.431083
-0.484351
-0.54825
-0.620807
-0.703308
-0.793002
-0.891649
-0.55017
-0.512038
-0.470918
-0.430338
-0.39294
-0.361011
-0.335689
-0.319215
-0.311947
-0.315845
-0.330497
-0.357804
-0.396689
-0.448836
-0.512301
-0.588619
-0.675578
-0.774704
-0.882935
-1.0022
-0.607718
-0.562571
-0.512786
-0.462737
-0.416146
-0.376083
-0.344246
-0.323363
-0.313972
-0.318243
-0.335682
-0.368302
-0.414774
-0.476988
-0.552802
-0.643825
-0.747554
-0.865891
-0.995861
-1.13959
-0.677356
-0.623694
-0.563691
-0.502849
-0.446247
-0.397895
-0.360051
-0.335867
-0.325955
-0.332706
-0.355387
-0.396081
-0.453154
-0.528601
-0.61998
-0.729088
-0.853204
-0.994857
-1.15115
-1.32405
-0.760808
-0.697429
-0.626017
-0.553901
-0.487766
-0.432582
-0.391011
-0.36651
-0.359523
-0.372491
-0.404399
-0.457316
-0.529267
-0.622507
-0.734342
-0.866692
-1.0168
-1.18792
-1.37714
-1.58596
-0.862911
-0.788185
-0.704502
-0.621687
-0.548238
-0.4899
-0.449244
-0.429525
-0.430663
-0.454949
-0.501
-0.571136
-0.663139
-0.779675
-0.917797
-1.08
-1.26377
-1.47309
-1.70459
-1.95829
-0.988026
-0.901056
-0.805668
-0.715053
-0.639175
-0.583783
-0.550468
-0.541617
-0.556315
-0.596685
-0.661159
-0.752483
-0.868555
-1.01257
-1.18172
-1.3793
-1.60308
-1.8572
-2.13707
-2.43984
-1.14501
-1.04471
-0.939696
-0.846633
-0.775678
-0.730828
-0.711415
-0.718289
-0.749953
-0.808546
-0.892803
-1.00576
-1.14588
-1.31696
-1.51676
-1.74912
-2.0121
-2.30927
-2.63428
-2.98063
-1.34185
-1.22797
-1.11696
-1.02862
-0.970419
-0.942068
-0.939856
-0.96348
-1.01152
-1.08635
-1.18713
-1.31725
-1.47589
-1.66753
-1.89087
-2.15013
-2.44315
-2.77227
-3.12977
-3.50547
-1.58554
-1.45848
-1.34652
-1.2695
-1.22821
-1.21684
-1.22971
-1.26635
-1.32586
-1.41061
-1.52012
-1.65821
-1.82538
-2.02687
-2.26223
-2.53541
-2.84378
-3.18817
-3.55969
-3.94361
-1.87697
-1.74014
-1.63351
-1.57137
-1.54507
-1.54498
-1.5657
-1.60738
-1.66942
-1.75406
-1.86174
-1.99699
-2.16167
-2.36113
-2.5955
-2.86759
-3.17421
-3.51443
-3.87807
-4.24554
-2.22715
-2.08553
-1.98762
-1.9361
-1.91505
-1.91496
-1.93218
-1.96736
-2.02061
-2.09427
-2.18974
-2.3117
-2.46301
-2.64847
-2.86854
-3.12427
-3.41203
-3.72863
-4.06281
-4.39166
-2.66836
-2.52264
-2.42468
-2.36646
-2.33158
-2.31374
-2.31185
-2.32722
-2.36047
-2.41333
-2.48764
-2.58703
-2.71472
-2.8743
-3.0668
-3.29168
-3.5453
-3.82169
-4.10985
-4.38686
-3.25128
-3.07974
-2.9511
-2.85496
-2.77949
-2.72254
-2.68544
-2.66905
-2.67333
-2.698
-2.74412
-2.81322
-2.90854
-3.0318
-3.18507
-3.36645
-3.57344
-3.79726
-4.02878
-4.24845
-3.955
-3.71724
-3.52173
-3.36034
-3.22484
-3.11574
-3.03498
-2.98141
-2.95292
-2.94625
-2.96096
-2.99579
-3.05371
-3.13434
-3.24095
-3.37038
-3.52167
-3.68383
-3.84998
-4.00763
-4.61475
-4.29552
-4.02483
-3.79809
-3.60639
-3.45044
-3.33125
-3.24505
-3.18743
-3.1521
-3.13725
-3.13893
-3.15981
-3.19715
-3.25579
-3.33114
-3.42387
-3.52002
-3.61537
-3.70576
-5.00357
-4.63909
-4.31801
-4.05336
-3.83306
-3.65502
-3.5175
-3.41421
-3.33917
-3.28436
-3.24765
-3.22323
-3.21378
-3.21408
-3.22959
-3.25352
-3.28845
-3.32092
-3.35421
-3.38406
-4.92364
-4.61539
-4.2974
-4.05012
-3.85476
-3.70003
-3.57846
-3.48181
-3.40587
-3.34367
-3.29496
-3.2533
-3.2218
-3.19306
-3.17159
-3.14638
-3.12218
-3.09508
-3.0785
-3.02947
-4.20632
-4.23926
-4.03013
-3.87258
-3.76138
-3.67135
-3.59183
-3.5184
-3.45342
-3.39303
-3.33989
-3.28822
-3.2423
-3.19261
-3.14192
-3.07466
-2.99987
-2.92692
-2.84523
-2.55385
-3.07893
-3.81446
-3.81048
-3.72638
-3.67081
-3.62415
-3.5732
-3.51571
-3.45988
-3.40226
-3.35034
-3.29573
-3.24747
-3.19189
-3.13843
-3.06825
-3.00569
-2.95577
-2.8163
-2.15995
-2.5616
-3.74072
-3.90524
-3.7871
-3.69841
-3.63916
-3.58229
-3.52426
-3.46672
-3.41052
-3.35648
-3.30392
-3.25396
-3.20535
-3.15885
-3.11779
-3.09574
-3.07854
-2.87653
-2.39393
0.000955541
0.000871758
0.000756137
0.000660184
0.00056023
0.000468652
0.000389021
0.000318005
0.000256788
0.000202658
0.000156492
0.000115622
8.03965e-05
4.82665e-05
1.93365e-05
-8.56041e-06
-3.5243e-05
-6.44778e-05
-0.000107701
-0.000179426
0.00880845
0.0087037
0.0085935
0.00850108
0.00839537
0.00829457
0.00819603
0.0081004
0.00800424
0.00790852
0.00781111
0.00771201
0.00761009
0.00750489
0.00739541
0.00728184
0.00716451
0.0070399
0.00690015
0.00675676
0.0165557
0.0164898
0.0163659
0.016257
0.0161235
0.01599
0.0158483
0.0157076
0.0155583
0.0154083
0.0152495
0.0150878
0.0149166
0.0147403
0.0145541
0.0143613
0.0141587
0.0139461
0.0137132
0.013468
0.024083
0.024038
0.0239194
0.0238119
0.0236664
0.0235159
0.0233464
0.023174
0.0229838
0.0227892
0.0225778
0.0223598
0.0221257
0.0218833
0.0216248
0.0213567
0.0210735
0.0207771
0.0204581
0.0201242
0.0316938
0.0316723
0.0315648
0.0314633
0.031311
0.0311489
0.0309573
0.0307587
0.0305329
0.0302988
0.0300396
0.029771
0.0294788
0.0291753
0.0288496
0.0285107
0.028151
0.0277755
0.0273729
0.0269524
0.0392954
0.0392999
0.0392067
0.039116
0.0389624
0.0387941
0.0385864
0.0383672
0.0381114
0.0378431
0.0375418
0.0372268
0.0368815
0.036521
0.0361314
0.0357248
0.0352918
0.0348394
0.0343559
0.0338491
0.0469781
0.0470113
0.046936
0.0468594
0.0467087
0.0465394
0.0463212
0.0460871
0.0458069
0.0455096
0.0451706
0.0448137
0.0444184
0.044003
0.0435521
0.0430794
0.0425748
0.0420474
0.0414838
0.0408913
0.0547572
0.0548219
0.0547685
0.0547106
0.0545674
0.0544012
0.0541771
0.0539321
0.0536321
0.0533094
0.0529368
0.0525403
0.052098
0.0516305
0.0511206
0.0505846
0.0500107
0.0494092
0.0487663
0.0480879
0.0626506
0.0627523
0.0627256
0.0626906
0.0625589
0.0623997
0.0621731
0.0619209
0.0616044
0.0612596
0.0608559
0.0604231
0.0599362
0.0594186
0.058852
0.0582534
0.0576107
0.0569352
0.0562125
0.0554466
0.0706939
0.0708358
0.0708399
0.0708319
0.070716
0.0705668
0.0703412
0.0700845
0.0697547
0.0693907
0.0689594
0.0684925
0.0679641
0.067399
0.066777
0.0661172
0.0654061
0.0646562
0.0638534
0.0629997
0.0788953
0.0790846
0.0791251
0.0791488
0.0790526
0.0789168
0.0786949
0.0784363
0.0780958
0.0777152
0.0772587
0.0767604
0.0761919
0.0755794
0.0749024
0.0741798
0.0733993
0.0725736
0.0716893
0.0707447
0.0872865
0.0875256
0.0876061
0.0876651
0.0875922
0.0874736
0.0872595
0.0870027
0.0866546
0.0862596
0.0857794
0.0852498
0.0846416
0.0839824
0.0832502
0.0824658
0.0816162
0.0807148
0.0797484
0.0787127
0.0958696
0.0961655
0.0962903
0.0963882
0.0963432
0.0962472
0.096046
0.0957953
0.0954424
0.0950344
0.0945308
0.09397
0.0933215
0.0926145
0.0918273
0.0909799
0.0900603
0.0890812
0.0880308
0.0869007
0.104685
0.10504
0.105213
0.105355
0.105343
0.105273
0.105088
0.104845
0.104489
0.104069
0.103545
0.102954
0.102267
0.101514
0.100673
0.0997632
0.0987734
0.0977163
0.096581
0.0953557
0.113741
0.114165
0.114393
0.114583
0.114607
0.114567
0.114399
0.114165
0.113808
0.113381
0.112837
0.112221
0.111498
0.1107
0.109805
0.108832
0.10777
0.106632
0.105409
0.104084
0.123076
0.123574
0.123863
0.124104
0.124168
0.124158
0.12401
0.123789
0.123435
0.123001
0.122442
0.121801
0.121044
0.120202
0.119253
0.118216
0.117081
0.11586
0.114546
0.113117
0.132684
0.133268
0.133626
0.133926
0.134035
0.134061
0.133938
0.133734
0.133385
0.132948
0.132375
0.13171
0.130918
0.130032
0.129027
0.127924
0.126713
0.125405
0.123996
0.122458
0.1426
0.143279
0.143714
0.144081
0.144245
0.144314
0.144223
0.144039
0.143699
0.14326
0.142674
0.141985
0.141159
0.140227
0.139166
0.137995
0.136705
0.135307
0.133799
0.132147
0.152851
0.153638
0.154161
0.154605
0.154832
0.154953
0.1549
0.154742
0.154415
0.153977
0.153381
0.152669
0.151808
0.150828
0.149708
0.148465
0.147092
0.145601
0.143987
0.142216
0.163491
0.164395
0.165016
0.165544
0.165843
0.166023
0.166015
0.165888
0.165579
0.165145
0.164539
0.163804
0.162908
0.161878
0.160696
0.159377
0.157918
0.156325
0.154602
0.152702
0.174562
0.175593
0.176322
0.176944
0.177322
0.177567
0.17761
0.17752
0.177233
0.176805
0.176191
0.175433
0.1745
0.173419
0.172171
0.170772
0.16922
0.167522
0.165679
0.163644
0.186103
0.187275
0.188124
0.188847
0.189313
0.189629
0.189729
0.189677
0.189414
0.188995
0.188374
0.187592
0.186619
0.185483
0.184166
0.182682
0.18103
0.179217
0.177248
0.175066
0.198175
0.199499
0.200476
0.20131
0.20187
0.202263
0.202423
0.202414
0.202178
0.201767
0.201138
0.200331
0.199317
0.198122
0.196731
0.195156
0.193397
0.191462
0.189357
0.18702
0.210823
0.21231
0.213425
0.214377
0.215038
0.215514
0.215739
0.215776
0.215568
0.215165
0.214528
0.213693
0.212634
0.211375
0.209904
0.208229
0.206357
0.204289
0.202038
0.19953
0.224102
0.225761
0.227023
0.228103
0.228873
0.229438
0.229734
0.229819
0.229642
0.229249
0.228602
0.227737
0.22663
0.225302
0.223744
0.221964
0.219967
0.217757
0.215348
0.212659
0.238033
0.239881
0.241306
0.242524
0.243414
0.244076
0.244448
0.244587
0.244442
0.244059
0.243402
0.242504
0.241345
0.239942
0.23829
0.236393
0.234263
0.231898
0.229318
0.226432
0.252687
0.254736
0.256334
0.257703
0.258721
0.259486
0.25994
0.260137
0.260028
0.259655
0.258987
0.258053
0.256836
0.255352
0.253597
0.251576
0.249299
0.246769
0.244004
0.240907
0.268099
0.270365
0.272149
0.273679
0.274835
0.275711
0.276253
0.276511
0.276439
0.276076
0.275395
0.27442
0.27314
0.271567
0.269701
0.267541
0.265108
0.262395
0.259431
0.256104
0.284325
0.286819
0.288802
0.290504
0.291806
0.292801
0.293436
0.293758
0.293725
0.293372
0.292674
0.291655
0.290304
0.288632
0.286644
0.284335
0.281729
0.278819
0.275638
0.272061
0.301375
0.304118
0.306315
0.308202
0.309662
0.310785
0.311521
0.311911
0.311919
0.311575
0.310859
0.309788
0.30836
0.306578
0.304455
0.301981
0.299187
0.296062
0.292644
0.288797
0.319279
0.322289
0.324717
0.326806
0.328438
0.329699
0.330544
0.331009
0.33106
0.330724
0.329986
0.328857
0.327341
0.325437
0.323164
0.320508
0.317507
0.314144
0.310467
0.306323
0.338035
0.341338
0.344021
0.346333
0.348153
0.349568
0.350534
0.351081
0.351181
0.350853
0.350088
0.348894
0.347279
0.345239
0.342799
0.339941
0.33671
0.333086
0.329125
0.324658
0.357656
0.361279
0.364243
0.366801
0.368833
0.37042
0.37152
0.37216
0.372313
0.371994
0.371199
0.369929
0.368202
0.366007
0.363379
0.360293
0.356805
0.352891
0.348616
0.343791
0.378134
0.382113
0.385391
0.388227
0.390498
0.392281
0.393535
0.394281
0.394494
0.394185
0.393354
0.391999
0.390144
0.387775
0.384933
0.381592
0.377817
0.37358
0.368958
0.363743
0.399464
0.403837
0.407466
0.410616
0.413158
0.415164
0.416594
0.417461
0.417743
0.417445
0.416573
0.41512
0.413118
0.410548
0.407464
0.403833
0.399734
0.395134
0.390124
0.384475
0.421621
0.426431
0.430453
0.433958
0.436808
0.43907
0.440701
0.441706
0.442066
0.441781
0.440862
0.439298
0.43713
0.434336
0.430977
0.427023
0.422561
0.41756
0.41212
0.405997
0.444544
0.449829
0.454283
0.458179
0.461371
0.463915
0.465768
0.466926
0.467372
0.467101
0.46613
0.464446
0.462094
0.459052
0.455392
0.451079
0.446215
0.44077
0.434857
0.428214
0.468095
0.473877
0.478785
0.483094
0.486645
0.489486
0.49157
0.492885
0.49342
0.493165
0.492144
0.490339
0.487804
0.484512
0.48054
0.475858
0.470574
0.464663
0.458251
0.451061
0.491962
0.498215
0.503551
0.508242
0.512126
0.515238
0.517532
0.518989
0.519605
0.519368
0.518311
0.516409
0.513721
0.510213
0.505966
0.500942
0.495261
0.488898
0.481993
0.474254
0.515543
0.522158
0.52781
0.532773
0.536884
0.540178
0.542613
0.544167
0.544842
0.54463
0.543572
0.541638
0.538884
0.535266
0.530856
0.525611
0.519643
0.512933
0.505625
0.49742
0.53776
0.544505
0.550244
0.555255
0.559394
0.562702
0.565152
0.566722
0.567423
0.567252
0.566253
0.564396
0.561723
0.558175
0.553811
0.548564
0.542537
0.5357
0.528196
0.51971
0.557027
0.563569
0.569073
0.573834
0.577741
0.580856
0.58317
0.584667
0.585357
0.585248
0.584385
0.582737
0.580331
0.577093
0.57305
0.568123
0.562375
0.555765
0.548413
0.539993
0.571384
0.577372
0.582321
0.58655
0.58999
0.592733
0.594786
0.59614
0.596801
0.596782
0.596127
0.594811
0.592835
0.59012
0.586666
0.582369
0.577263
0.571276
0.564495
0.556569
0.579031
0.584233
0.588433
0.591982
0.594842
0.597138
0.598881
0.600074
0.60071
0.600813
0.600415
0.599501
0.598053
0.595998
0.593299
0.589861
0.585668
0.580635
0.5748
0.567795
0.578738
0.583136
0.586596
0.589498
0.59183
0.593735
0.595221
0.5963
0.596949
0.5972
0.597074
0.596568
0.595647
0.594252
0.592334
0.589797
0.586605
0.582662
0.577963
0.572122
0.570287
0.574089
0.577028
0.579513
0.58153
0.583231
0.584609
0.585678
0.5864
0.586816
0.586937
0.586773
0.586285
0.585434
0.58416
0.582398
0.580091
0.577152
0.573541
0.568878
0.55427
0.557875
0.560673
0.56309
0.565099
0.566848
0.568313
0.569502
0.570372
0.570964
0.571288
0.571359
0.571146
0.570622
0.569752
0.568479
0.56676
0.564508
0.561693
0.557937
0.532006
0.535857
0.53893
0.541651
0.543957
0.545995
0.547724
0.549152
0.550234
0.551011
0.551495
0.5517
0.551611
0.55121
0.550474
0.549365
0.547851
0.545874
0.543425
0.540146
0.50481
0.509278
0.512947
0.51625
0.519082
0.521584
0.523707
0.525458
0.526801
0.527772
0.528392
0.528666
0.528591
0.528137
0.52732
0.526086
0.524448
0.522343
0.519808
0.516482
0.473817
0.479135
0.483588
0.487632
0.491119
0.494193
0.496791
0.498923
0.500559