/*--------------------------------*- C++ -*----------------------------------*\
  =========                 |
  \\      /  F ield         | OpenFOAM: The Open Source CFD Toolbox
   \\    /   O peration     | Website:  https://openfoam.org
    \\  /    A nd           | Version:  6
     \\/     M anipulation  |
\*---------------------------------------------------------------------------*/
FoamFile
{
    version     2.0;
    format      ascii;
    class       surfaceScalarField;
    location    "29";
    object      phi;
}
// * * * * * * * * * * * * * * * * * * * * * * * * * * * * * * * * * * * * * //

dimensions      [0 3 -1 0 0 0 0];

internalField   nonuniform List<scalar> 
19400
(
-1.02256e-10
-7.65887e-07
-1.7576e-10
-1.02685e-06
-2.57567e-10
-1.15814e-06
-2.58876e-10
-1.25022e-06
-2.20327e-10
-1.31531e-06
-2.05294e-10
-1.35975e-06
-2.31902e-10
-1.38871e-06
-2.77162e-10
-1.4066e-06
-3.2047e-10
-1.41668e-06
-3.40087e-10
-1.421e-06
-3.319e-10
-1.42051e-06
-2.86055e-10
-1.41524e-06
-2.05579e-10
-1.40432e-06
-8.97751e-11
-1.38577e-06
3.40507e-11
-1.35652e-06
1.23833e-10
-1.31237e-06
1.10981e-10
-1.2481e-06
-6.49065e-12
-1.1571e-06
-1.32698e-10
-1.02674e-06
-7.66419e-07
1.36358e-10
-7.66031e-07
1.35978e-10
-1.02686e-06
1.33111e-10
-1.15814e-06
8.42943e-11
-1.25018e-06
1.50007e-11
-1.31523e-06
-7.41447e-11
-1.35966e-06
-1.66103e-10
-1.38862e-06
-2.57129e-10
-1.40651e-06
-3.4444e-10
-1.41659e-06
-4.21863e-10
-1.42093e-06
-4.80869e-10
-1.42045e-06
-5.12554e-10
-1.41521e-06
-5.20923e-10
-1.40431e-06
-5.04793e-10
-1.38579e-06
-4.54392e-10
-1.35657e-06
-3.76051e-10
-1.31245e-06
-2.93188e-10
-1.24819e-06
-2.1922e-10
-1.15717e-06
-2.09114e-10
-1.02675e-06
-7.66628e-07
1.41667e-10
-7.66182e-07
1.68343e-10
-1.02691e-06
2.11683e-10
-1.15818e-06
1.86623e-10
-1.25017e-06
1.24153e-10
-1.31517e-06
2.35291e-11
-1.35956e-06
-9.25141e-11
-1.3885e-06
-2.12188e-10
-1.40639e-06
-3.31739e-10
-1.41647e-06
-4.41783e-10
-1.42081e-06
-5.3757e-10
-1.42036e-06
-5.98856e-10
-1.41514e-06
-6.38835e-10
-1.40427e-06
-6.41437e-10
-1.38579e-06
-5.81694e-10
-1.35664e-06
-4.68515e-10
-1.31257e-06
-3.3411e-10
-1.24832e-06
-2.16014e-10
-1.15729e-06
-1.16108e-10
-1.02685e-06
-7.66744e-07
1.68243e-10
-7.66364e-07
2.53015e-10
-1.02702e-06
3.31658e-10
-1.15827e-06
3.24764e-10
-1.25017e-06
2.60669e-10
-1.31511e-06
1.42677e-10
-1.35944e-06
1.07052e-12
-1.38836e-06
-1.5625e-10
-1.40623e-06
-3.13711e-10
-1.41632e-06
-4.61862e-10
-1.42066e-06
-5.91945e-10
-1.42023e-06
-6.88957e-10
-1.41504e-06
-7.57484e-10
-1.4042e-06
-7.74259e-10
-1.38577e-06
-7.30634e-10
-1.35668e-06
-6.22103e-10
-1.31268e-06
-4.58947e-10
-1.24849e-06
-3.02858e-10
-1.15745e-06
-1.6398e-10
-1.02699e-06
-7.66909e-07
6.43686e-11
-7.66439e-07
2.51377e-10
-1.02722e-06
3.67229e-10
-1.15839e-06
3.83464e-10
-1.2502e-06
3.33997e-10
-1.31506e-06
2.21863e-10
-1.35933e-06
7.03166e-11
-1.3882e-06
-1.14296e-10
-1.40605e-06
-3.02809e-10
-1.41613e-06
-4.78277e-10
-1.42048e-06
-6.31077e-10
-1.42007e-06
-7.61045e-10
-1.41492e-06
-8.53018e-10
-1.40411e-06
-8.80835e-10
-1.38574e-06
-8.34333e-10
-1.35673e-06
-7.18163e-10
-1.31279e-06
-5.2977e-10
-1.24868e-06
-3.13807e-10
-1.15767e-06
-9.49667e-11
-1.02721e-06
-7.67005e-07
9.59086e-11
-7.66544e-07
2.98493e-10
-1.02744e-06
4.17364e-10
-1.15851e-06
4.29584e-10
-1.25022e-06
3.70298e-10
-1.315e-06
2.54793e-10
-1.35922e-06
9.43866e-11
-1.38804e-06
-1.05627e-10
-1.40585e-06
-3.10548e-10
-1.41592e-06
-5.02062e-10
-1.42029e-06
-6.69768e-10
-1.4199e-06
-8.16092e-10
-1.41477e-06
-9.17177e-10
-1.40401e-06
-9.51496e-10
-1.38571e-06
-8.97201e-10
-1.35678e-06
-7.71534e-10
-1.31292e-06
-5.78968e-10
-1.24887e-06
-3.34776e-10
-1.15791e-06
-8.01595e-11
-1.02747e-06
-7.67085e-07
1.93785e-10
-7.66742e-07
3.43037e-10
-1.0276e-06
4.52771e-10
-1.15862e-06
4.89887e-10
-1.25026e-06
4.3207e-10
-1.31494e-06
3.05856e-10
-1.3591e-06
1.31253e-10
-1.38787e-06
-8.07931e-11
-1.40564e-06
-2.96261e-10
-1.4157e-06
-4.99776e-10
-1.42009e-06
-6.81176e-10
-1.41972e-06
-8.34157e-10
-1.41461e-06
-9.43134e-10
-1.4039e-06
-9.88284e-10
-1.38566e-06
-9.43685e-10
-1.35683e-06
-8.06117e-10
-1.31306e-06
-5.94241e-10
-1.24909e-06
-3.3952e-10
-1.15817e-06
-9.66827e-11
-1.02771e-06
-7.67182e-07
2.33312e-10
-7.66973e-07
3.775e-10
-1.02774e-06
5.0171e-10
-1.15875e-06
5.71391e-10
-1.25034e-06
5.34238e-10
-1.31491e-06
3.99801e-10
-1.35897e-06
2.06077e-10
-1.38767e-06
-2.19655e-11
-1.40541e-06
-2.57074e-10
-1.41546e-06
-4.7445e-10
-1.41987e-06
-6.70099e-10
-1.41952e-06
-8.32862e-10
-1.41445e-06
-9.47676e-10
-1.40378e-06
-9.96804e-10
-1.38561e-06
-9.59022e-10
-1.35687e-06
-8.21911e-10
-1.3132e-06
-5.98309e-10
-1.24931e-06
-3.45168e-10
-1.15842e-06
-1.30998e-10
-1.02793e-06
-7.67312e-07
2.08819e-10
-7.67177e-07
4.02704e-10
-1.02793e-06
5.75687e-10
-1.15892e-06
6.78305e-10
-1.25044e-06
6.51418e-10
-1.31488e-06
5.0062e-10
-1.35882e-06
2.84719e-10
-1.38746e-06
3.32652e-11
-1.40516e-06
-2.2193e-10
-1.41521e-06
-4.61931e-10
-1.41963e-06
-6.79526e-10
-1.41931e-06
-8.63034e-10
-1.41426e-06
-1.00021e-09
-1.40365e-06
-1.06317e-09
-1.38555e-06
-1.03558e-09
-1.3569e-06
-8.9573e-10
-1.31334e-06
-6.47022e-10
-1.24956e-06
-3.74094e-10
-1.15869e-06
-1.99295e-10
-1.0281e-06
-7.67511e-07
1.6321e-10
-7.67333e-07
4.25116e-10
-1.02819e-06
6.40248e-10
-1.15913e-06
7.62606e-10
-1.25056e-06
7.46197e-10
-1.31486e-06
5.91201e-10
-1.35867e-06
3.55629e-10
-1.38722e-06
8.25016e-11
-1.40489e-06
-1.90721e-10
-1.41494e-06
-4.56144e-10
-1.41936e-06
-7.01695e-10
-1.41906e-06
-9.16734e-10
-1.41405e-06
-1.08769e-09
-1.40347e-06
-1.17626e-09
-1.38546e-06
-1.15561e-09
-1.35692e-06
-9.93938e-10
-1.3135e-06
-7.01725e-10
-1.24985e-06
-3.82478e-10
-1.15901e-06
-1.61653e-10
-1.02831e-06
-7.67671e-07
1.69355e-10
-7.67494e-07
4.63996e-10
-1.02847e-06
7.12775e-10
-1.15937e-06
8.54355e-10
-1.2507e-06
8.43896e-10
-1.31485e-06
6.84749e-10
-1.35851e-06
4.32174e-10
-1.38697e-06
1.46155e-10
-1.4046e-06
-1.48485e-10
-1.41464e-06
-4.37541e-10
-1.41907e-06
-7.10599e-10
-1.41879e-06
-9.52336e-10
-1.4138e-06
-1.14023e-09
-1.40328e-06
-1.24366e-09
-1.38536e-06
-1.22015e-09
-1.35694e-06
-1.04191e-09
-1.31368e-06
-7.40908e-10
-1.25015e-06
-3.98743e-10
-1.15934e-06
-7.24188e-11
-1.02863e-06
-7.67742e-07
1.86089e-10
-7.67671e-07
4.99529e-10
-1.02877e-06
7.75075e-10
-1.15964e-06
9.33932e-10
-1.25085e-06
9.22815e-10
-1.31483e-06
7.64098e-10
-1.35834e-06
5.09788e-10
-1.38671e-06
2.13536e-10
-1.4043e-06
-1.01092e-10
-1.41433e-06
-4.16102e-10
-1.41876e-06
-7.15699e-10
-1.41848e-06
-9.81823e-10
-1.41354e-06
-1.17811e-09
-1.40309e-06
-1.28373e-09
-1.38525e-06
-1.26148e-09
-1.35696e-06
-1.08139e-09
-1.31386e-06
-7.83436e-10
-1.25044e-06
-4.30831e-10
-1.15969e-06
-8.28324e-11
-1.02897e-06
-7.67824e-07
2.04201e-10
-7.6787e-07
5.2529e-10
-1.02908e-06
8.29207e-10
-1.15994e-06
1.01354e-09
-1.25102e-06
1.01758e-09
-1.31484e-06
8.71545e-10
-1.35819e-06
6.1147e-10
-1.38645e-06
2.89202e-10
-1.40398e-06
-5.51008e-11
-1.41398e-06
-3.99115e-10
-1.41841e-06
-7.24632e-10
-1.41816e-06
-1.01278e-09
-1.41325e-06
-1.22588e-09
-1.40287e-06
-1.3425e-09
-1.38513e-06
-1.33085e-09
-1.35696e-06
-1.15188e-09
-1.31403e-06
-8.33879e-10
-1.25075e-06
-4.57371e-10
-1.16006e-06
-1.21348e-10
-1.02931e-06
-7.67945e-07
1.91917e-10
-7.6806e-07
5.61459e-10
-1.02945e-06
9.03639e-10
-1.16029e-06
1.10997e-09
-1.25122e-06
1.13012e-09
-1.31485e-06
9.88997e-10
-1.35805e-06
7.14243e-10
-1.38617e-06
3.65923e-10
-1.40363e-06
-9.64013e-12
-1.4136e-06
-3.8332e-10
-1.41803e-06
-7.33721e-10
-1.4178e-06
-1.04113e-09
-1.41294e-06
-1.27237e-09
-1.40263e-06
-1.40168e-09
-1.385e-06
-1.39678e-09
-1.35696e-06
-1.22014e-09
-1.3142e-06
-8.86611e-10
-1.25108e-06
-4.9153e-10
-1.16046e-06
-1.36232e-10
-1.02966e-06
-7.68081e-07
2.24277e-10
-7.68281e-07
6.27715e-10
-1.02985e-06
9.6918e-10
-1.16062e-06
1.17116e-09
-1.25142e-06
1.20145e-09
-1.31488e-06
1.05873e-09
-1.3579e-06
7.82895e-10
-1.38589e-06
4.25641e-10
-1.40326e-06
3.2314e-11
-1.4132e-06
-3.65974e-10
-1.41763e-06
-7.41752e-10
-1.41742e-06
-1.0723e-09
-1.4126e-06
-1.328e-09
-1.40237e-06
-1.47659e-09
-1.38485e-06
-1.48538e-09
-1.35695e-06
-1.31583e-09
-1.31437e-06
-9.61782e-10
-1.25144e-06
-5.37134e-10
-1.16088e-06
-1.56033e-10
-1.03004e-06
-7.68236e-07
2.95451e-10
-7.68571e-07
6.86552e-10
-1.03024e-06
1.05832e-09
-1.16099e-06
1.29742e-09
-1.25166e-06
1.33392e-09
-1.31491e-06
1.1679e-09
-1.35773e-06
8.74366e-10
-1.38559e-06
5.02745e-10
-1.40289e-06
8.92675e-11
-1.41278e-06
-3.32391e-10
-1.4172e-06
-7.30444e-10
-1.41702e-06
-1.07735e-09
-1.41225e-06
-1.35417e-09
-1.40209e-06
-1.52415e-09
-1.38467e-06
-1.54507e-09
-1.35693e-06
-1.37997e-09
-1.31453e-06
-1.02059e-09
-1.25179e-06
-5.68069e-10
-1.16133e-06
-1.40479e-10
-1.03046e-06
-7.68375e-07
2.98084e-10
-7.68859e-07
7.30386e-10
-1.03067e-06
1.13297e-09
-1.16138e-06
1.39535e-09
-1.25192e-06
1.44954e-09
-1.31496e-06
1.28291e-09
-1.35756e-06
9.72034e-10
-1.38527e-06
5.83504e-10
-1.40249e-06
1.44022e-10
-1.41234e-06
-3.03214e-10
-1.41675e-06
-7.24749e-10
-1.41659e-06
-1.08458e-09
-1.41188e-06
-1.37223e-09
-1.4018e-06
-1.5419e-09
-1.3845e-06
-1.55487e-09
-1.35691e-06
-1.38989e-09
-1.31469e-06
-1.05285e-09
-1.25213e-06
-6.21505e-10
-1.16175e-06
-1.98038e-10
-1.03088e-06
-7.6857e-07
3.50583e-10
-7.69198e-07
8.08474e-10
-1.03113e-06
1.23973e-09
-1.16181e-06
1.5113e-09
-1.25219e-06
1.57754e-09
-1.31502e-06
1.41574e-09
-1.35739e-06
1.08837e-09
-1.38494e-06
6.67654e-10
-1.40206e-06
1.95638e-10
-1.41186e-06
-2.90816e-10
-1.41625e-06
-7.52373e-10
-1.41612e-06
-1.15071e-09
-1.41147e-06
-1.46774e-09
-1.40148e-06
-1.65976e-09
-1.3843e-06
-1.6852e-09
-1.35688e-06
-1.51478e-09
-1.31486e-06
-1.15623e-09
-1.25248e-06
-7.08494e-10
-1.16219e-06
-3.29427e-10
-1.03125e-06
-7.68897e-07
3.71188e-10
-7.69558e-07
8.85237e-10
-1.03163e-06
1.364e-09
-1.16228e-06
1.66295e-09
-1.25249e-06
1.73773e-09
-1.31509e-06
1.57497e-09
-1.35723e-06
1.22946e-09
-1.38459e-06
7.73481e-10
-1.4016e-06
2.64803e-10
-1.41135e-06
-2.62887e-10
-1.41572e-06
-7.68392e-10
-1.41561e-06
-1.21597e-09
-1.41102e-06
-1.57366e-09
-1.40111e-06
-1.80351e-09
-1.38406e-06
-1.84125e-09
-1.35684e-06
-1.65226e-09
-1.31504e-06
-1.25359e-09
-1.25287e-06
-7.53133e-10
-1.16268e-06
-2.94995e-10
-1.03169e-06
-7.6919e-07
3.36152e-10
-7.69885e-07
9.45042e-10
-1.03223e-06
1.47886e-09
-1.16281e-06
1.81563e-09
-1.25282e-06
1.90027e-09
-1.31517e-06
1.7366e-09
-1.35706e-06
1.37399e-09
-1.38422e-06
8.88864e-10
-1.40111e-06
3.4414e-10
-1.4108e-06
-2.20117e-10
-1.41515e-06
-7.63733e-10
-1.41507e-06
-1.24935e-09
-1.41053e-06
-1.63372e-09
-1.40072e-06
-1.88186e-09
-1.38381e-06
-1.92302e-09
-1.35679e-06
-1.72892e-09
-1.31523e-06
-1.32862e-09
-1.25326e-06
-7.97197e-10
-1.1632e-06
-2.22552e-10
-1.03226e-06
-7.69412e-07
3.24807e-10
-7.70202e-07
9.97505e-10
-1.03289e-06
1.56545e-09
-1.16337e-06
1.93415e-09
-1.25318e-06
2.02917e-09
-1.31526e-06
1.86563e-09
-1.35689e-06
1.49722e-09
-1.38385e-06
9.87777e-10
-1.4006e-06
4.09467e-10
-1.41021e-06
-1.89806e-10
-1.41455e-06
-7.69149e-10
-1.41448e-06
-1.28604e-09
-1.41002e-06
-1.69065e-09
-1.40031e-06
-1.94871e-09
-1.38355e-06
-1.99589e-09
-1.35674e-06
-1.80423e-09
-1.31541e-06
-1.40631e-09
-1.25365e-06
-8.63377e-10
-1.16374e-06
-2.51912e-10
-1.03287e-06
-7.69663e-07
3.81491e-10
-7.70574e-07
1.06052e-09
-1.03356e-06
1.65563e-09
-1.16396e-06
2.05182e-09
-1.25357e-06
2.15427e-09
-1.31536e-06
1.98518e-09
-1.35672e-06
1.60392e-09
-1.38347e-06
1.07189e-09
-1.40007e-06
4.61666e-10
-1.4096e-06
-1.74485e-10
-1.41391e-06
-7.86396e-10
-1.41386e-06
-1.33544e-09
-1.40946e-06
-1.77201e-09
-1.39987e-06
-2.05388e-09
-1.38326e-06
-2.12025e-09
-1.35666e-06
-1.93344e-09
-1.31559e-06
-1.51919e-09
-1.25406e-06
-9.41078e-10
-1.16432e-06
-3.08395e-10
-1.0335e-06
-7.69971e-07
4.41044e-10
-7.71004e-07
1.12575e-09
-1.03424e-06
1.75704e-09
-1.16458e-06
2.17914e-09
-1.25399e-06
2.29152e-09
-1.31546e-06
2.1097e-09
-1.35653e-06
1.70459e-09
-1.38305e-06
1.15193e-09
-1.39951e-06
5.15962e-10
-1.40895e-06
-1.47737e-10
-1.41324e-06
-7.88784e-10
-1.41321e-06
-1.36659e-09
-1.40888e-06
-1.83013e-09
-1.3994e-06
-2.13244e-09
-1.38295e-06
-2.22667e-09
-1.35656e-06
-2.05329e-09
-1.31576e-06
-1.62974e-09
-1.25448e-06
-1.01543e-09
-1.16493e-06
-3.32173e-10
-1.03418e-06
-7.70302e-07
4.76134e-10
-7.71469e-07
1.17744e-09
-1.03493e-06
1.82717e-09
-1.16522e-06
2.26879e-09
-1.25442e-06
2.40521e-09
-1.31559e-06
2.22906e-09
-1.35635e-06
1.81385e-09
-1.38263e-06
1.24334e-09
-1.39893e-06
5.83406e-10
-1.40829e-06
-1.06038e-10
-1.41254e-06
-7.79113e-10
-1.41253e-06
-1.38241e-09
-1.40827e-06
-1.8682e-09
-1.39891e-06
-2.18156e-09
-1.38264e-06
-2.28408e-09
-1.35645e-06
-2.11998e-09
-1.31592e-06
-1.69931e-09
-1.2549e-06
-1.07861e-09
-1.16555e-06
-3.87517e-10
-1.03486e-06
-7.70688e-07
5.17343e-10
-7.71975e-07
1.2292e-09
-1.03564e-06
1.91834e-09
-1.16591e-06
2.39246e-09
-1.25489e-06
2.54747e-09
-1.31574e-06
2.3748e-09
-1.35617e-06
1.94561e-09
-1.3822e-06
1.35274e-09
-1.39833e-06
6.61819e-10
-1.40759e-06
-6.28818e-11
-1.41181e-06
-7.75578e-10
-1.41182e-06
-1.41352e-09
-1.40762e-06
-1.93344e-09
-1.39838e-06
-2.27212e-09
-1.38229e-06
-2.3859e-09
-1.35634e-06
-2.22916e-09
-1.31607e-06
-1.79209e-09
-1.25533e-06
-1.14955e-09
-1.16618e-06
-4.77784e-10
-1.03552e-06
-7.71163e-07
5.4055e-10
-7.72506e-07
1.29996e-09
-1.03639e-06
2.02872e-09
-1.16663e-06
2.53231e-09
-1.25539e-06
2.6987e-09
-1.3159e-06
2.52697e-09
-1.35599e-06
2.08642e-09
-1.38175e-06
1.46566e-09
-1.3977e-06
7.35747e-10
-1.40686e-06
-3.18023e-11
-1.41103e-06
-7.89883e-10
-1.41105e-06
-1.47305e-09
-1.40693e-06
-2.0331e-09
-1.39782e-06
-2.39934e-09
-1.38192e-06
-2.52246e-09
-1.35621e-06
-2.36464e-09
-1.31623e-06
-1.90245e-09
-1.25579e-06
-1.22681e-09
-1.16685e-06
-5.33226e-10
-1.03621e-06
-7.71695e-07
5.37502e-10
-7.73035e-07
1.35236e-09
-1.0372e-06
2.11623e-09
-1.16738e-06
2.64464e-09
-1.25592e-06
2.82676e-09
-1.31608e-06
2.66295e-09
-1.35582e-06
2.21604e-09
-1.3813e-06
1.56354e-09
-1.39704e-06
7.95007e-10
-1.40608e-06
-1.51217e-11
-1.41022e-06
-8.17167e-10
-1.41025e-06
-1.55084e-09
-1.40619e-06
-2.15416e-09
-1.39721e-06
-2.54987e-09
-1.38152e-06
-2.67999e-09
-1.35607e-06
-2.50879e-09
-1.31639e-06
-2.01536e-09
-1.25627e-06
-1.29852e-09
-1.16756e-06
-5.44749e-10
-1.03695e-06
-7.72238e-07
5.40507e-10
-7.73566e-07
1.39446e-09
-1.03804e-06
2.17815e-09
-1.16816e-06
2.71662e-09
-1.25645e-06
2.91181e-09
-1.31626e-06
2.75739e-09
-1.35566e-06
2.30934e-09
-1.38084e-06
1.63759e-09
-1.39636e-06
8.37961e-10
-1.40528e-06
-1.27313e-11
-1.40936e-06
-8.53114e-10
-1.4094e-06
-1.62887e-09
-1.40541e-06
-2.26483e-09
-1.39657e-06
-2.68789e-09
-1.38109e-06
-2.82829e-09
-1.35593e-06
-2.642e-09
-1.31657e-06
-2.11771e-09
-1.25679e-06
-1.35224e-09
-1.16832e-06
-5.09009e-10
-1.03779e-06
-7.72747e-07
5.82823e-10
-7.74138e-07
1.44871e-09
-1.0389e-06
2.26307e-09
-1.16896e-06
2.82272e-09
-1.257e-06
3.02134e-09
-1.31646e-06
2.86464e-09
-1.3555e-06
2.40539e-09
-1.38038e-06
1.71561e-09
-1.39567e-06
8.88036e-10
-1.40444e-06
1.19051e-12
-1.40847e-06
-8.7551e-10
-1.40852e-06
-1.68282e-09
-1.4046e-06
-2.34164e-09
-1.3959e-06
-2.7797e-09
-1.38065e-06
-2.9262e-09
-1.35577e-06
-2.72964e-09
-1.31676e-06
-2.19188e-09
-1.25732e-06
-1.39878e-09
-1.16911e-06
-5.00464e-10
-1.03869e-06
-7.73247e-07
6.14466e-10
-7.74743e-07
1.51248e-09
-1.03979e-06
2.34977e-09
-1.16979e-06
2.92936e-09
-1.25758e-06
3.13825e-09
-1.31666e-06
2.98528e-09
-1.35534e-06
2.51656e-09
-1.3799e-06
1.81064e-09
-1.39495e-06
9.61187e-10
-1.40359e-06
4.41991e-11
-1.40754e-06
-8.67284e-10
-1.4076e-06
-1.70679e-09
-1.40375e-06
-2.39427e-09
-1.39521e-06
-2.84867e-09
-1.38019e-06
-3.00529e-09
-1.35561e-06
-2.81313e-09
-1.31695e-06
-2.26671e-09
-1.25787e-06
-1.44977e-09
-1.16992e-06
-5.4416e-10
-1.03959e-06
-7.73789e-07
6.1746e-10
-7.75354e-07
1.54881e-09
-1.04071e-06
2.42578e-09
-1.17067e-06
3.0421e-09
-1.25819e-06
3.27181e-09
-1.31688e-06
3.12146e-09
-1.35519e-06
2.6386e-09
-1.37942e-06
1.91189e-09
-1.39422e-06
1.03153e-09
-1.4027e-06
8.28627e-11
-1.40659e-06
-8.63734e-10
-1.40665e-06
-1.7288e-09
-1.40288e-06
-2.44024e-09
-1.39449e-06
-2.91218e-09
-1.37971e-06
-3.07341e-09
-1.35545e-06
-2.88176e-09
-1.31713e-06
-2.33193e-09
-1.25841e-06
-1.51483e-09
-1.17073e-06
-6.10941e-10
-1.04049e-06
-7.74399e-07
5.72609e-10
-7.75922e-07
1.5651e-09
-1.0417e-06
2.48392e-09
-1.17158e-06
3.12415e-09
-1.25882e-06
3.36124e-09
-1.31712e-06
3.20089e-09
-1.35502e-06
2.70104e-09
-1.37891e-06
1.95478e-09
-1.39347e-06
1.04763e-09
-1.40179e-06
7.16519e-11
-1.4056e-06
-9.02223e-10
-1.40567e-06
-1.79193e-09
-1.40198e-06
-2.53164e-09
-1.39375e-06
-3.02917e-09
-1.37921e-06
-3.19747e-09
-1.35527e-06
-2.99438e-09
-1.31733e-06
-2.42464e-09
-1.25898e-06
-1.59578e-09
-1.17156e-06
-7.11576e-10
-1.04136e-06
-7.75109e-07
6.47014e-10
-7.76559e-07
1.64106e-09
-1.04269e-06
2.53741e-09
-1.17247e-06
3.15019e-09
-1.25943e-06
3.38102e-09
-1.31734e-06
3.21501e-09
-1.35485e-06
2.71414e-09
-1.3784e-06
1.96203e-09
-1.39271e-06
1.0442e-09
-1.40087e-06
4.92534e-11
-1.4046e-06
-9.47462e-10
-1.40467e-06
-1.87223e-09
-1.40105e-06
-2.64608e-09
-1.39297e-06
-3.17274e-09
-1.37867e-06
-3.35743e-09
-1.35509e-06
-3.13756e-09
-1.31755e-06
-2.52848e-09
-1.25958e-06
-1.64922e-09
-1.17243e-06
-7.16399e-10
-1.04229e-06
-7.75825e-07
7.83831e-10
-7.7733e-07
1.72771e-09
-1.04363e-06
2.6423e-09
-1.17337e-06
3.27287e-09
-1.26006e-06
3.50726e-09
-1.31757e-06
3.32715e-09
-1.35467e-06
2.80431e-09
-1.37788e-06
2.02812e-09
-1.39193e-06
1.08749e-09
-1.39992e-06
6.92949e-11
-1.40358e-06
-9.55385e-10
-1.40364e-06
-1.91019e-09
-1.40009e-06
-2.71199e-09
-1.39217e-06
-3.26083e-09
-1.37812e-06
-3.45685e-09
-1.35489e-06
-3.23221e-09
-1.31777e-06
-2.60811e-09
-1.2602e-06
-1.69405e-09
-1.17334e-06
-6.6639e-10
-1.04331e-06
-7.76491e-07
7.54453e-10
-7.78075e-07
1.77862e-09
-1.04464e-06
2.7509e-09
-1.17434e-06
3.42839e-09
-1.26073e-06
3.68109e-09
-1.31782e-06
3.49039e-09
-1.35447e-06
2.93703e-09
-1.37732e-06
2.12456e-09
-1.39111e-06
1.14907e-09
-1.39894e-06
1.00373e-10
-1.40252e-06
-9.53971e-10
-1.40258e-06
-1.9361e-09
-1.3991e-06
-2.76536e-09
-1.39133e-06
-3.33688e-09
-1.37755e-06
-3.5443e-09
-1.35468e-06
-3.32299e-09
-1.31799e-06
-2.69026e-09
-1.26083e-06
-1.75218e-09
-1.17428e-06
-6.96017e-10
-1.04437e-06
-7.77187e-07
6.9939e-10
-7.78769e-07
1.83867e-09
-1.04578e-06
2.84415e-09
-1.17534e-06
3.53295e-09
-1.26142e-06
3.78736e-09
-1.31807e-06
3.59013e-09
-1.35427e-06
3.01784e-09
-1.37674e-06
2.18078e-09
-1.39027e-06
1.1815e-09
-1.39794e-06
1.05016e-10
-1.40144e-06
-9.76344e-10
-1.4015e-06
-1.98593e-09
-1.39809e-06
-2.84333e-09
-1.39047e-06
-3.43948e-09
-1.37695e-06
-3.66207e-09
-1.35445e-06
-3.43944e-09
-1.31821e-06
-2.78316e-09
-1.26149e-06
-1.80667e-09
-1.17525e-06
-7.33037e-10
-1.04544e-06
-7.77919e-07
7.33146e-10
-7.79499e-07
1.89163e-09
-1.04693e-06
2.90893e-09
-1.17636e-06
3.60066e-09
-1.2621e-06
3.84958e-09
-1.31831e-06
3.64615e-09
-1.35407e-06
3.06069e-09
-1.37616e-06
2.20929e-09
-1.38941e-06
1.19381e-09
-1.39692e-06
9.92926e-11
-1.40034e-06
-1.00286e-09
-1.40039e-06
-2.03428e-09
-1.39705e-06
-2.91175e-09
-1.38959e-06
-3.52725e-09
-1.37633e-06
-3.76379e-09
-1.35421e-06
-3.54282e-09
-1.31843e-06
-2.87195e-09
-1.26216e-06
-1.86764e-09
-1.17625e-06
-7.45553e-10
-1.04656e-06
-7.78663e-07
7.97486e-10
-7.80293e-07
1.93863e-09
-1.04807e-06
2.97471e-09
-1.17739e-06
3.67741e-09
-1.2628e-06
3.91875e-09
-1.31855e-06
3.70002e-09
-1.35384e-06
3.09643e-09
-1.37555e-06
2.22872e-09
-1.38854e-06
1.19658e-09
-1.39589e-06
8.56087e-11
-1.39923e-06
-1.03453e-09
-1.39927e-06
-2.08433e-09
-1.396e-06
-2.97823e-09
-1.3887e-06
-3.60922e-09
-1.3757e-06
-3.86118e-09
-1.35396e-06
-3.64873e-09
-1.31864e-06
-2.97245e-09
-1.26283e-06
-1.94914e-09
-1.17727e-06
-8.02694e-10
-1.0477e-06
-7.79465e-07
8.75861e-10
-7.8116e-07
2.01989e-09
-1.04921e-06
3.06295e-09
-1.17843e-06
3.76121e-09
-1.2635e-06
3.99087e-09
-1.31878e-06
3.75232e-09
-1.3536e-06
3.13181e-09
-1.37493e-06
2.24564e-09
-1.38765e-06
1.19448e-09
-1.39483e-06
6.122e-11
-1.39809e-06
-1.08171e-09
-1.39812e-06
-2.15677e-09
-1.39492e-06
-3.07383e-09
-1.38778e-06
-3.72349e-09
-1.37505e-06
-3.99e-09
-1.35369e-06
-3.78575e-09
-1.31884e-06
-3.1e-09
-1.26351e-06
-2.05468e-09
-1.17831e-06
-8.88542e-10
-1.04886e-06
-7.80353e-07
9.36986e-10
-7.82089e-07
2.10389e-09
-1.05037e-06
3.18265e-09
-1.1795e-06
3.9e-09
-1.26421e-06
4.12591e-09
-1.319e-06
3.86453e-09
-1.35334e-06
3.21813e-09
-1.37428e-06
2.30144e-09
-1.38674e-06
1.21814e-09
-1.39375e-06
4.77383e-11
-1.39692e-06
-1.13219e-09
-1.39694e-06
-2.24674e-09
-1.39381e-06
-3.20217e-09
-1.38682e-06
-3.88417e-09
-1.37436e-06
-4.17186e-09
-1.3534e-06
-3.96886e-09
-1.31904e-06
-3.25331e-09
-1.26422e-06
-2.1555e-09
-1.17941e-06
-9.30037e-10
-1.05008e-06
-7.81283e-07
8.99329e-10
-7.82983e-07
2.1692e-09
-1.05163e-06
3.31414e-09
-1.18064e-06
4.06374e-09
-1.26496e-06
4.28408e-09
-1.31922e-06
3.99764e-09
-1.35305e-06
3.32164e-09
-1.3736e-06
2.376e-09
-1.38579e-06
1.26203e-09
-1.39263e-06
5.8385e-11
-1.39572e-06
-1.15376e-09
-1.39573e-06
-2.304e-09
-1.39266e-06
-3.29337e-09
-1.38583e-06
-4.01088e-09
-1.37364e-06
-4.32519e-09
-1.35308e-06
-4.12516e-09
-1.31924e-06
-3.37831e-09
-1.26497e-06
-2.2103e-09
-1.18058e-06
-8.73603e-10
-1.05142e-06
-7.82156e-07
8.74775e-10
-7.83855e-07
2.23867e-09
-1.05299e-06
3.40982e-09
-1.18181e-06
4.16202e-09
-1.26571e-06
4.37397e-09
-1.31943e-06
4.07859e-09
-1.35275e-06
3.39212e-09
-1.37291e-06
2.43416e-09
-1.38483e-06
1.30114e-09
-1.3915e-06
7.96111e-11
-1.39449e-06
-1.15153e-09
-1.39449e-06
-2.31339e-09
-1.3915e-06
-3.31264e-09
-1.38483e-06
-4.03854e-09
-1.37292e-06
-4.36032e-09
-1.35276e-06
-4.17154e-09
-1.31943e-06
-3.43548e-09
-1.2657e-06
-2.26408e-09
-1.18175e-06
-8.73726e-10
-1.05281e-06
-7.83029e-07
9.18604e-10
-7.84772e-07
2.29927e-09
-1.05436e-06
3.50796e-09
-1.18302e-06
4.27143e-09
-1.26646e-06
4.46898e-09
-1.31962e-06
4.1526e-09
-1.35243e-06
3.44932e-09
-1.37221e-06
2.47375e-09
-1.38385e-06
1.32077e-09
-1.39034e-06
7.89376e-11
-1.39325e-06
-1.17327e-09
-1.39324e-06
-2.34994e-09
-1.39031e-06
-3.36446e-09
-1.38381e-06
-4.10074e-09
-1.37218e-06
-4.43609e-09
-1.35242e-06
-4.25621e-09
-1.3196e-06
-3.5226e-09
-1.26644e-06
-2.35479e-09
-1.18291e-06
-1.03119e-09
-1.05413e-06
-7.84059e-07
9.74992e-10
-7.85745e-07
2.37709e-09
-1.05576e-06
3.59975e-09
-1.18424e-06
4.35956e-09
-1.26722e-06
4.54185e-09
-1.3198e-06
4.2066e-09
-1.3521e-06
3.48827e-09
-1.37149e-06
2.49289e-09
-1.38286e-06
1.31651e-09
-1.38917e-06
4.6671e-11
-1.39198e-06
-1.23429e-09
-1.39196e-06
-2.44108e-09
-1.38911e-06
-3.4859e-09
-1.38277e-06
-4.25189e-09
-1.37141e-06
-4.60913e-09
-1.35206e-06
-4.42895e-09
-1.31978e-06
-3.66559e-09
-1.2672e-06
-2.45921e-09
-1.18411e-06
-1.14e-09
-1.05544e-06
-7.85198e-07
1.07996e-09
-7.8682e-07
2.48427e-09
-1.05716e-06
3.72434e-09
-1.18548e-06
4.48763e-09
-1.26798e-06
4.65715e-09
-1.31997e-06
4.30265e-09
-1.35174e-06
3.55835e-09
-1.37074e-06
2.53224e-09
-1.38183e-06
1.3213e-09
-1.38796e-06
1.45968e-11
-1.39068e-06
-1.3034e-09
-1.39064e-06
-2.54942e-09
-1.38786e-06
-3.62868e-09
-1.38169e-06
-4.42811e-09
-1.3706e-06
-4.80501e-09
-1.35168e-06
-4.61827e-09
-1.31997e-06
-3.81839e-09
-1.26799e-06
-2.54882e-09
-1.18538e-06
-1.12645e-09
-1.05686e-06
-7.86324e-07
1.12477e-09
-7.87941e-07
2.58509e-09
-1.05862e-06
3.87566e-09
-1.18676e-06
4.66455e-09
-1.26877e-06
4.83348e-09
-1.32014e-06
4.45458e-09
-1.35136e-06
3.66904e-09
-1.36996e-06
2.60138e-09
-1.38077e-06
1.34926e-09
-1.3867e-06
8.26812e-13
-1.38933e-06
-1.35676e-09
-1.38929e-06
-2.64083e-09
-1.38658e-06
-3.75162e-09
-1.38057e-06
-4.5794e-09
-1.36978e-06
-4.97486e-09
-1.35129e-06
-4.78321e-09
-1.32016e-06
-3.95626e-09
-1.26882e-06
-2.62611e-09
-1.18671e-06
-1.08917e-09
-1.05839e-06
-7.87413e-07
1.10047e-09
-7.89038e-07
2.65784e-09
-1.06017e-06
4.00195e-09
-1.1881e-06
4.82e-09
-1.26958e-06
5.00453e-09
-1.32032e-06
4.60843e-09
-1.35096e-06
3.78522e-09
-1.36913e-06
2.67632e-09
-1.37966e-06
1.38246e-09
-1.38541e-06
-7.06434e-12
-1.38794e-06
-1.40116e-09
-1.38789e-06
-2.71702e-09
-1.38526e-06
-3.85206e-09
-1.37944e-06
-4.70141e-09
-1.36893e-06
-5.11582e-09
-1.35087e-06
-4.9283e-09
-1.32034e-06
-4.08332e-09
-1.26966e-06
-2.70629e-09
-1.18808e-06
-1.10351e-09
-1.05999e-06
-7.88515e-07
1.11501e-09
-7.9015e-07
2.73902e-09
-1.06179e-06
4.13571e-09
-1.1895e-06
4.97404e-09
-1.27042e-06
5.15685e-09
-1.3205e-06
4.73994e-09
-1.35054e-06
3.88087e-09
-1.36827e-06
2.73249e-09
-1.37851e-06
1.40253e-09
-1.38408e-06
-2.18388e-11
-1.38652e-06
-1.44647e-09
-1.38646e-06
-2.79026e-09
-1.38392e-06
-3.95029e-09
-1.37828e-06
-4.82218e-09
-1.36806e-06
-5.25746e-09
-1.35043e-06
-5.07418e-09
-1.32052e-06
-4.20231e-09
-1.27053e-06
-2.77092e-09
-1.18951e-06
-1.13217e-09
-1.06163e-06
-7.89645e-07
1.20869e-09
-7.91354e-07
2.86794e-09
-1.06344e-06
4.29114e-09
-1.19092e-06
5.13075e-09
-1.27125e-06
5.29038e-09
-1.32066e-06
4.85501e-09
-1.35011e-06
3.96679e-09
-1.36738e-06
2.78089e-09
-1.37732e-06
1.41716e-09
-1.38271e-06
-3.47456e-11
-1.38507e-06
-1.48761e-09
-1.38501e-06
-2.85498e-09
-1.38255e-06
-4.04007e-09
-1.37709e-06
-4.93281e-09
-1.36716e-06
-5.37921e-09
-1.34999e-06
-5.20658e-09
-1.32069e-06
-4.32095e-09
-1.27141e-06
-2.85931e-09
-1.19096e-06
-1.18775e-09
-1.06329e-06
-7.90831e-07
1.28283e-09
-7.92631e-07
2.97105e-09
-1.06513e-06
4.45845e-09
-1.1924e-06
5.34681e-09
-1.27214e-06
5.50787e-09
-1.32082e-06
5.05081e-09
-1.34965e-06
4.11791e-09
-1.36645e-06
2.87636e-09
-1.37608e-06
1.4587e-09
-1.3813e-06
-4.15069e-11
-1.38357e-06
-1.54027e-09
-1.38351e-06
-2.94953e-09
-1.38114e-06
-4.1759e-09
-1.37586e-06
-5.1035e-09
-1.36623e-06
-5.56615e-09
-1.34952e-06
-5.39917e-09
-1.32086e-06
-4.48892e-09
-1.27231e-06
-2.98707e-09
-1.19245e-06
-1.29623e-09
-1.06497e-06
-7.92126e-07
1.24376e-09
-7.9387e-07
3.03444e-09
-1.06691e-06
4.61275e-09
-1.19398e-06
5.57218e-09
-1.27309e-06
5.75572e-09
-1.321e-06
5.2763e-09
-1.34917e-06
4.29219e-09
-1.36547e-06
2.98475e-09
-1.37478e-06
1.50224e-09
-1.37981e-06
-6.30246e-11
-1.382e-06
-1.62163e-09
-1.38195e-06
-3.0949e-09
-1.37967e-06
-4.37915e-09
-1.37457e-06
-5.3538e-09
-1.36526e-06
-5.8437e-09
-1.34902e-06
-5.65935e-09
-1.32104e-06
-4.69514e-09
-1.27327e-06
-3.1056e-09
-1.19404e-06
-1.3183e-09
-1.06675e-06
-7.93443e-07
1.23881e-09
-7.95104e-07
3.13707e-09
-1.0688e-06
4.7711e-09
-1.19561e-06
5.75486e-09
-1.27407e-06
5.93241e-09
-1.32118e-06
5.42169e-09
-1.34865e-06
4.40201e-09
-1.36444e-06
3.05166e-09
-1.37343e-06
1.52188e-09
-1.37828e-06
-9.55345e-11
-1.38039e-06
-1.70579e-09
-1.38034e-06
-3.23375e-09
-1.37814e-06
-4.56853e-09
-1.37323e-06
-5.58683e-09
-1.36424e-06
-6.10082e-09
-1.3485e-06
-5.90007e-09
-1.32123e-06
-4.89216e-09
-1.27427e-06
-3.21439e-09
-1.19571e-06
-1.26944e-09
-1.06869e-06
-7.94712e-07
1.35893e-09
-7.96458e-07
3.28212e-09
-1.07072e-06
4.94845e-09
-1.19727e-06
5.94441e-09
-1.27506e-06
6.10519e-09
-1.32134e-06
5.56467e-09
-1.34811e-06
4.51588e-09
-1.36339e-06
3.13405e-09
-1.37204e-06
1.56614e-09
-1.37671e-06
-9.32988e-11
-1.37873e-06
-1.74962e-09
-1.37868e-06
-3.31985e-09
-1.37657e-06
-4.69483e-09
-1.37185e-06
-5.75442e-09
-1.36318e-06
-6.29532e-09
-1.34796e-06
-6.09949e-09
-1.32142e-06
-5.0679e-09
-1.2753e-06
-3.31679e-09
-1.19746e-06
-1.26428e-09
-1.07074e-06
-7.95976e-07
1.44989e-09
-7.97901e-07
3.42019e-09
-1.07269e-06
5.17235e-09
-1.19902e-06
6.22462e-09
-1.27611e-06
6.39026e-09
-1.3215e-06
5.81872e-09
-1.34754e-06
4.72558e-09
-1.3623e-06
3.29143e-09
-1.37061e-06
1.66045e-09
-1.37508e-06
-5.4571e-11
-1.37701e-06
-1.76437e-09
-1.37696e-06
-3.37893e-09
-1.37496e-06
-4.79694e-09
-1.37043e-06
-5.88246e-09
-1.36209e-06
-6.4394e-09
-1.3474e-06
-6.25687e-09
-1.32161e-06
-5.22024e-09
-1.27634e-06
-3.43522e-09
-1.19924e-06
-1.34277e-09
-1.07283e-06
-7.97318e-07
1.40459e-09
-7.99298e-07
3.54382e-09
-1.07482e-06
5.4162e-09
-1.20089e-06
6.51691e-09
-1.27721e-06
6.69136e-09
-1.32167e-06
6.08489e-09
-1.34693e-06
4.94042e-09
-1.36115e-06
3.44876e-09
-1.36911e-06
1.75225e-09
-1.37338e-06
-3.0151e-11
-1.37522e-06
-1.80471e-09
-1.37519e-06
-3.47922e-09
-1.37328e-06
-4.95205e-09
-1.36896e-06
-6.07431e-09
-1.36097e-06
-6.66005e-09
-1.34681e-06
-6.4986e-09
-1.32177e-06
-5.44031e-09
-1.2774e-06
-3.59654e-09
-1.20109e-06
-1.47982e-09
-1.07495e-06
-7.98797e-07
1.40336e-09
-8.00694e-07
3.68358e-09
-1.0771e-06
5.62724e-09
-1.20283e-06
6.73978e-09
-1.27832e-06
6.90417e-09
-1.32183e-06
6.27107e-09
-1.34629e-06
5.08833e-09
-1.35996e-06
3.54606e-09
-1.36757e-06
1.79631e-09
-1.37163e-06
-4.62342e-11
-1.37338e-06
-1.88457e-09
-1.37335e-06
-3.6219e-09
-1.37153e-06
-5.15312e-09
-1.36743e-06
-6.32575e-09
-1.35979e-06
-6.94649e-09
-1.34619e-06
-6.79459e-09
-1.32192e-06
-5.69252e-09
-1.2785e-06
-3.75508e-09
-1.20302e-06
-1.52647e-09
-1.07717e-06
-8.00321e-07
1.48648e-09
-8.02173e-07
3.82246e-09
-1.07943e-06
5.84331e-09
-1.20485e-06
6.99301e-09
-1.27947e-06
7.14676e-09
-1.32199e-06
6.47961e-09
-1.34562e-06
5.24673e-09
-1.35873e-06
3.64709e-09
-1.36597e-06
1.83446e-09
-1.36981e-06
-6.67914e-11
-1.37147e-06
-1.96526e-09
-1.37145e-06
-3.76344e-09
-1.36973e-06
-5.35023e-09
-1.36584e-06
-6.57341e-09
-1.35857e-06
-7.23799e-09
-1.34553e-06
-7.10208e-09
-1.32206e-06
-5.96895e-09
-1.27963e-06
-3.93775e-09
-1.20504e-06
-1.54423e-09
-1.07955e-06
-8.01863e-07
1.54301e-09
-8.03706e-07
3.99759e-09
-1.08187e-06
6.11229e-09
-1.20696e-06
7.28902e-09
-1.28065e-06
7.42368e-09
-1.32212e-06
6.71232e-09
-1.34491e-06
5.41744e-09
-1.35743e-06
3.75899e-09
-1.3643e-06
1.88717e-09
-1.36794e-06
-7.25665e-11
-1.36951e-06
-2.02772e-09
-1.36949e-06
-3.88705e-09
-1.36787e-06
-5.5291e-09
-1.36419e-06
-6.80824e-09
-1.35729e-06
-7.5216e-09
-1.34481e-06
-7.41538e-09
-1.32216e-06
-6.26556e-09
-1.28077e-06
-4.14151e-09
-1.20715e-06
-1.59499e-09
-1.08209e-06
-8.03457e-07
1.62764e-09
-8.05321e-07
4.2368e-09
-1.08448e-06
6.42924e-09
-1.20915e-06
7.60588e-09
-1.28182e-06
7.70652e-09
-1.32222e-06
6.94533e-09
-1.34415e-06
5.58978e-09
-1.35608e-06
3.86865e-09
-1.36258e-06
1.94017e-09
-1.36601e-06
-7.7626e-11
-1.36749e-06
-2.09168e-09
-1.36747e-06
-4.01062e-09
-1.36596e-06
-5.71183e-09
-1.36249e-06
-7.04635e-09
-1.35596e-06
-7.79744e-09
-1.34406e-06
-7.71911e-09
-1.32224e-06
-6.5609e-09
-1.28192e-06
-4.36165e-09
-1.20935e-06
-1.68138e-09
-1.08476e-06
-8.05136e-07
1.70115e-09
-8.0701e-07
4.47415e-09
-1.08724e-06
6.79084e-09
-1.21146e-06
8.00458e-09
-1.28304e-06
8.07824e-09
-1.32229e-06
7.25009e-09
-1.34332e-06