/*--------------------------------*- C++ -*----------------------------------*\
  =========                 |
  \\      /  F ield         | OpenFOAM: The Open Source CFD Toolbox
   \\    /   O peration     | Website:  https://openfoam.org
    \\  /    A nd           | Version:  6
     \\/     M anipulation  |
\*---------------------------------------------------------------------------*/
FoamFile
{
    version     2.0;
    format      ascii;
    class       surfaceScalarField;
    location    "29";
    object      phi;
}
// * * * * * * * * * * * * * * * * * * * * * * * * * * * * * * * * * * * * * //

dimensions      [0 3 -1 0 0 0 0];

internalField   nonuniform List<scalar> 
258600
(
-1.05932e-08
-8.50018e-08
1.02854e-08
-1.08806e-08
-9.03926e-08
-1.11437e-08
-9.57378e-08
-1.13827e-08
-1.00929e-07
-1.15975e-08
-1.05944e-07
-1.17905e-08
-1.10763e-07
-1.19628e-08
-1.15367e-07
-1.21174e-08
-1.1974e-07
-1.2255e-08
-1.23868e-07
-1.23787e-08
-1.2774e-07
-1.24891e-08
-1.31347e-07
-1.25887e-08
-1.34685e-07
-1.26779e-08
-1.37752e-07
-1.27595e-08
-1.4055e-07
-1.28328e-08
-1.43084e-07
-1.29006e-08
-1.45361e-07
-1.2962e-08
-1.47393e-07
-1.30193e-08
-1.49192e-07
-1.30712e-08
-1.50773e-07
-1.52163e-07
-1.31204e-08
-1.13167e-08
-8.47783e-08
1.10849e-08
-1.15407e-08
-9.01791e-08
-1.17559e-08
-9.55333e-08
-1.19548e-08
-1.00738e-07
-1.21381e-08
-1.05769e-07
-1.23029e-08
-1.10604e-07
-1.24523e-08
-1.15224e-07
-1.25852e-08
-1.19612e-07
-1.2705e-08
-1.23753e-07
-1.28115e-08
-1.27636e-07
-1.29077e-08
-1.31253e-07
-1.29937e-08
-1.34601e-07
-1.30723e-08
-1.37675e-07
-1.31426e-08
-1.4048e-07
-1.32082e-08
-1.4302e-07
-1.32673e-08
-1.45302e-07
-1.33228e-08
-1.47338e-07
-1.33737e-08
-1.49141e-07
-1.3422e-08
-1.50725e-07
-1.52116e-07
-1.3467e-08
-1.24035e-08
-8.46156e-08
1.22148e-08
-1.25773e-08
-9.00188e-08
-1.27482e-08
-9.53801e-08
-1.29026e-08
-1.00595e-07
-1.30473e-08
-1.05638e-07
-1.31744e-08
-1.10486e-07
-1.32915e-08
-1.15118e-07
-1.33933e-08
-1.19517e-07
-1.34867e-08
-1.23668e-07
-1.35677e-08
-1.2756e-07
-1.36427e-08
-1.31186e-07
-1.37082e-08
-1.34539e-07
-1.37694e-08
-1.3762e-07
-1.38243e-08
-1.40429e-07
-1.3876e-08
-1.42973e-07
-1.39235e-08
-1.45259e-07
-1.39692e-08
-1.47297e-07
-1.40118e-08
-1.49101e-07
-1.40539e-08
-1.50687e-07
-1.52079e-07
-1.4094e-08
-1.38798e-08
-8.45131e-08
1.37644e-08
-1.39894e-08
-8.99211e-08
-1.4098e-08
-9.52874e-08
-1.41937e-08
-1.0051e-07
-1.42851e-08
-1.0556e-07
-1.43624e-08
-1.10416e-07
-1.44351e-08
-1.15055e-07
-1.44952e-08
-1.19462e-07
-1.45521e-08
-1.23619e-07
-1.45987e-08
-1.27517e-07
-1.46439e-08
-1.31147e-07
-1.46814e-08
-1.34504e-07
-1.47191e-08
-1.37587e-07
-1.47509e-08
-1.40399e-07
-1.47846e-08
-1.42943e-07
-1.48139e-08
-1.45229e-07
-1.48458e-08
-1.47267e-07
-1.48748e-08
-1.49071e-07
-1.49074e-08
-1.50656e-07
-1.52047e-07
-1.49376e-08
-1.56153e-08
-8.44873e-08
1.55578e-08
-1.56576e-08
-8.98958e-08
-1.57047e-08
-9.52646e-08
-1.57391e-08
-1.0049e-07
-1.57738e-08
-1.05545e-07
-1.57961e-08
-1.10405e-07
-1.58187e-08
-1.15049e-07
-1.58311e-08
-1.19458e-07
-1.58449e-08
-1.23618e-07
-1.5851e-08
-1.27518e-07
-1.586e-08
-1.31148e-07
-1.58636e-08
-1.34506e-07
-1.5871e-08
-1.37589e-07
-1.58757e-08
-1.40399e-07
-1.58844e-08
-1.42942e-07
-1.5892e-08
-1.45226e-07
-1.59042e-08
-1.47262e-07
-1.59158e-08
-1.49063e-07
-1.59327e-08
-1.50645e-07
-1.52034e-07
-1.59489e-08
-1.7521e-08
-8.4515e-08
1.75183e-08
-1.751e-08
-8.99341e-08
-1.7498e-08
-9.53071e-08
-1.74732e-08
-1.00536e-07
-1.745e-08
-1.05592e-07
-1.74158e-08
-1.10453e-07
-1.73855e-08
-1.15097e-07
-1.7347e-08
-1.19506e-07
-1.73141e-08
-1.23664e-07
-1.7276e-08
-1.27562e-07
-1.72448e-08
-1.3119e-07
-1.72107e-08
-1.34544e-07
-1.71847e-08
-1.37623e-07
-1.71569e-08
-1.40429e-07
-1.71382e-08
-1.42967e-07
-1.71187e-08
-1.45246e-07
-1.71082e-08
-1.47278e-07
-1.70977e-08
-1.49074e-07
-1.70963e-08
-1.50651e-07
-1.52034e-07
-1.70945e-08
-1.9568e-08
-8.46266e-08
1.96077e-08
-1.94915e-08
-9.0049e-08
-1.94216e-08
-9.54214e-08
-1.93364e-08
-1.00649e-07
-1.92574e-08
-1.05704e-07
-1.91672e-08
-1.10562e-07
-1.90847e-08
-1.15203e-07
-1.89953e-08
-1.19608e-07
-1.89153e-08
-1.23762e-07
-1.88317e-08
-1.27655e-07
-1.87586e-08
-1.31277e-07
-1.86847e-08
-1.34625e-07
-1.86216e-08
-1.37697e-07
-1.856e-08
-1.40497e-07
-1.85089e-08
-1.43028e-07
-1.84606e-08
-1.45301e-07
-1.84226e-08
-1.47325e-07
-1.83874e-08
-1.49114e-07
-1.83625e-08
-1.50684e-07
-1.52061e-07
-1.83396e-08
-2.16602e-08
-8.47689e-08
2.1753e-08
-2.15357e-08
-9.01995e-08
-2.14149e-08
-9.55758e-08
-2.12786e-08
-1.00805e-07
-2.11483e-08
-1.0586e-07
-2.10075e-08
-1.10717e-07
-2.08756e-08
-1.15355e-07
-2.07381e-08
-1.19755e-07
-2.06118e-08
-1.23904e-07
-2.04837e-08
-1.2779e-07
-2.03683e-08
-1.31405e-07
-2.02539e-08
-1.34745e-07
-2.01534e-08
-1.37809e-07
-2.0055e-08
-1.40599e-07
-1.9971e-08
-1.43121e-07
-1.98902e-08
-1.45384e-07
-1.98232e-08
-1.47399e-07
-1.97597e-08
-1.49179e-07
-1.971e-08
-1.5074e-07
-1.52108e-07
-1.96628e-08
-2.37865e-08
-8.49328e-08
2.39215e-08
-2.3624e-08
-9.03812e-08
-2.34578e-08
-9.5768e-08
-2.3276e-08
-1.01004e-07
-2.30979e-08
-1.06061e-07
-2.29105e-08
-1.10918e-07
-2.27316e-08
-1.15553e-07
-2.25484e-08
-1.1995e-07
-2.23771e-08
-1.24093e-07
-2.22056e-08
-1.27971e-07
-2.2048e-08
-1.31577e-07
-2.18931e-08
-1.34908e-07
-2.17532e-08
-1.37961e-07
-2.16184e-08
-1.40741e-07
-2.14982e-08
-1.43253e-07
-2.13845e-08
-1.45505e-07
-2.12853e-08
-1.47509e-07
-2.11922e-08
-1.49279e-07
-2.11135e-08
-1.50829e-07
-1.52188e-07
-2.10399e-08
-2.59662e-08
-8.51431e-08
2.61543e-08
-2.57555e-08
-9.06041e-08
-2.55417e-08
-9.60004e-08
-2.53148e-08
-1.01243e-07
-2.50903e-08
-1.06304e-07
-2.48581e-08
-1.11161e-07
-2.46338e-08
-1.15794e-07
-2.44067e-08
-1.20186e-07
-2.41914e-08
-1.24323e-07
-2.39774e-08
-1.28193e-07
-2.3778e-08
-1.3179e-07
-2.35827e-08
-1.3511e-07
-2.3404e-08
-1.38152e-07
-2.32307e-08
-1.40919e-07
-2.30751e-08
-1.43418e-07
-2.29259e-08
-1.45658e-07
-2.2794e-08
-1.47649e-07
-2.26689e-08
-1.49406e-07
-2.2561e-08
-1.50945e-07
-1.52291e-07
-2.24587e-08
-2.81484e-08
-8.53819e-08
2.83714e-08
-2.79016e-08
-9.08641e-08
-2.76459e-08
-9.62734e-08
-2.73773e-08
-1.01524e-07
-2.71092e-08
-1.0659e-07
-2.68344e-08
-1.11449e-07
-2.65665e-08
-1.1608e-07
-2.6297e-08
-1.20468e-07
-2.60389e-08
-1.24598e-07
-2.57833e-08
-1.28459e-07
-2.55424e-08
-1.32046e-07
-2.5307e-08
-1.35355e-07
-2.50881e-08
-1.38384e-07
-2.48775e-08
-1.41139e-07
-2.46837e-08
-1.43624e-07
-2.44995e-08
-1.4585e-07
-2.43325e-08
-1.47827e-07
-2.41748e-08
-1.49571e-07
-2.40343e-08
-1.51096e-07
-1.52429e-07
-2.39021e-08
-3.03505e-08
-8.56613e-08
3.06192e-08
-3.00588e-08
-9.11572e-08
-2.97613e-08
-9.65785e-08
-2.94522e-08
-1.01838e-07
-2.91428e-08
-1.0691e-07
-2.88275e-08
-1.11772e-07
-2.85179e-08
-1.16403e-07
-2.82075e-08
-1.20787e-07
-2.79076e-08
-1.24911e-07
-2.76113e-08
-1.28764e-07
-2.73293e-08
-1.32341e-07
-2.7054e-08
-1.35637e-07
-2.67959e-08
-1.38654e-07
-2.65461e-08
-1.41394e-07
-2.63153e-08
-1.43865e-07
-2.6094e-08
-1.46075e-07
-2.58919e-08
-1.48037e-07
-2.56998e-08
-1.49765e-07
-2.55269e-08
-1.51275e-07
-1.52593e-07
-2.53631e-08
-3.25214e-08
-8.59464e-08
3.2822e-08
-3.22058e-08
-9.1468e-08
-3.18747e-08
-9.69093e-08
-3.15321e-08
-1.02184e-07
-3.11842e-08
-1.07266e-07
-3.08313e-08
-1.12132e-07
-3.04809e-08
-1.16765e-07
-3.01308e-08
-1.21147e-07
-2.97896e-08
-1.25265e-07
-2.9453e-08
-1.2911e-07
-2.91299e-08
-1.32677e-07
-2.88147e-08
-1.35961e-07
-2.85159e-08
-1.38964e-07
-2.82279e-08
-1.4169e-07
-2.79577e-08
-1.44145e-07
-2.76998e-08
-1.4634e-07
-2.74605e-08
-1.48286e-07
-2.72336e-08
-1.49998e-07
-2.70255e-08
-1.51492e-07
-1.52795e-07
-2.68291e-08
-3.47079e-08
-8.62634e-08
3.50361e-08
-3.43632e-08
-9.18124e-08
-3.39981e-08
-9.72749e-08
-3.36209e-08
-1.02565e-07
-3.32347e-08
-1.07658e-07
-3.28435e-08
-1.12531e-07
-3.24525e-08
-1.17165e-07
-3.20624e-08
-1.21544e-07
-3.16796e-08
-1.25658e-07
-3.13024e-08
-1.29495e-07
-3.09378e-08
-1.33051e-07
-3.05822e-08
-1.36323e-07
-3.02432e-08
-1.39312e-07
-2.99152e-08
-1.42022e-07
-2.96063e-08
-1.44462e-07
-2.93098e-08
-1.46639e-07
-2.90333e-08
-1.48568e-07
-2.87698e-08
-1.50263e-07
-2.85267e-08
-1.51739e-07
-1.53024e-07
-2.82963e-08
-3.69022e-08
-8.66254e-08
3.72488e-08
-3.65242e-08
-9.22009e-08
-3.61252e-08
-9.76837e-08
-3.57119e-08
-1.02989e-07
-3.52878e-08
-1.08092e-07
-3.48579e-08
-1.12971e-07
-3.44264e-08
-1.17607e-07
-3.3996e-08
-1.21985e-07
-3.35716e-08
-1.26093e-07
-3.31534e-08
-1.29922e-07
-3.27469e-08
-1.33468e-07
-3.23506e-08
-1.36727e-07
-3.19696e-08
-1.39702e-07
-3.16022e-08
-1.42397e-07
-3.12521e-08
-1.44819e-07
-3.09173e-08
-1.4698e-07
-3.06013e-08
-1.48891e-07
-3.0301e-08
-1.50568e-07
-3.00201e-08
-1.52026e-07
-1.53293e-07
-2.97548e-08
-3.90794e-08
-8.70089e-08
3.94479e-08
-3.86746e-08
-9.26167e-08
-3.82437e-08
-9.81229e-08
-3.77961e-08
-1.03446e-07
-3.73354e-08
-1.08561e-07
-3.68678e-08
-1.13447e-07
-3.63966e-08
-1.18086e-07
-3.59263e-08
-1.22463e-07
-3.54604e-08
-1.26566e-07
-3.50012e-08
-1.30388e-07
-3.45525e-08
-1.33923e-07
-3.41149e-08
-1.3717e-07
-3.36924e-08
-1.4013e-07
-3.32834e-08
-1.42809e-07
-3.28928e-08
-1.45215e-07
-3.25176e-08
-1.47357e-07
-3.21621e-08
-1.49249e-07
-3.18231e-08
-1.50907e-07
-3.15045e-08
-1.52346e-07
-1.53593e-07
-3.12027e-08
-4.12548e-08
-8.74217e-08
4.16515e-08
-4.0817e-08
-9.30594e-08
-4.03534e-08
-9.85911e-08
-3.98722e-08
-1.03934e-07
-3.93752e-08
-1.09064e-07
-3.88709e-08
-1.1396e-07
-3.83603e-08
-1.18604e-07
-3.78505e-08
-1.22981e-07
-3.73428e-08
-1.27081e-07
-3.68425e-08
-1.30896e-07
-3.6351e-08
-1.34421e-07
-3.58716e-08
-1.37656e-07
-3.54054e-08
-1.40602e-07
-3.49555e-08
-1.43265e-07
-3.45215e-08
-1.45653e-07
-3.4106e-08
-1.47778e-07
-3.37085e-08
-1.49651e-07
-3.33305e-08
-1.51289e-07
-3.29711e-08
-1.52709e-07
-1.53937e-07
-3.26318e-08
-4.34067e-08
-8.78335e-08
4.3833e-08
-4.29504e-08
-9.35144e-08
-4.24565e-08
-9.90803e-08
-4.19442e-08
-1.0445e-07
-4.14106e-08
-1.09598e-07
-4.08694e-08
-1.14507e-07
-4.03185e-08
-1.19157e-07
-3.97685e-08
-1.23537e-07
-3.92182e-08
-1.27635e-07
-3.86759e-08
-1.31444e-07
-3.81404e-08
-1.3496e-07
-3.76182e-08
-1.38183e-07
-3.71083e-08
-1.41115e-07
-3.66148e-08
-1.43762e-07
-3.61378e-08
-1.46132e-07
-3.56795e-08
-1.48238e-07
-3.52397e-08
-1.50092e-07
-3.48204e-08
-1.51709e-07
-3.44203e-08
-1.53108e-07
-1.54315e-07
-3.40418e-08
-4.55944e-08
-8.8294e-08
4.60491e-08
-4.51014e-08
-9.4014e-08
-4.45702e-08
-9.96121e-08
-4.40206e-08
-1.05007e-07
-4.34469e-08
-1.10175e-07
-4.28658e-08
-1.15096e-07
-4.22724e-08
-1.19755e-07
-4.16805e-08
-1.24137e-07
-4.10857e-08
-1.28234e-07
-4.04999e-08
-1.32037e-07
-3.99189e-08
-1.35545e-07
-3.93525e-08
-1.38756e-07
-3.87963e-08
-1.41674e-07
-3.82593e-08
-1.44305e-07
-3.77359e-08
-1.46658e-07
-3.72347e-08
-1.48745e-07
-3.67497e-08
-1.50579e-07
-3.62884e-08
-1.52176e-07
-3.58441e-08
-1.53554e-07
-1.5474e-07
-3.54253e-08
-4.77782e-08
-8.87869e-08
4.8261e-08
-4.72516e-08
-9.45502e-08
-4.66827e-08
-1.00182e-07
-4.60942e-08
-1.05603e-07
-4.54793e-08
-1.10791e-07
-4.48566e-08
-1.15726e-07
-4.42193e-08
-1.20393e-07
-4.35839e-08
-1.24779e-07
-4.29435e-08
-1.28875e-07
-4.23127e-08
-1.32674e-07
-4.16847e-08
-1.36173e-07
-4.10726e-08
-1.39373e-07
-4.04695e-08
-1.42277e-07
-3.9886e-08
-1.44892e-07
-3.93162e-08
-1.47227e-07
-3.87691e-08
-1.49294e-07
-3.82382e-08
-1.51108e-07
-3.77325e-08
-1.52684e-07
-3.72438e-08
-1.5404e-07
-1.55203e-07
-3.67824e-08
-4.99609e-08
-8.93174e-08
5.0476e-08
-4.9395e-08
-9.51213e-08
-4.87878e-08
-1.00788e-07
-4.81601e-08
-1.06238e-07
-4.75035e-08
-1.11448e-07
-4.68388e-08
-1.16399e-07
-4.61568e-08
-1.21076e-07
-4.54768e-08
-1.25467e-07
-4.47893e-08
-1.29563e-07
-4.41122e-08
-1.33358e-07
-4.34358e-08
-1.3685e-07
-4.27763e-08
-1.40039e-07
-4.21234e-08
-1.4293e-07
-4.14931e-08
-1.45529e-07
-4.08733e-08
-1.47847e-07
-4.02796e-08
-1.49895e-07
-3.96998e-08
-1.51688e-07
-3.91484e-08
-1.53243e-07
-3.86117e-08
-1.54576e-07
-1.55716e-07
-3.81063e-08
-5.21156e-08
-8.98489e-08
5.26645e-08
-5.15266e-08
-9.57075e-08
-5.08842e-08
-1.01418e-07
-5.022e-08
-1.06903e-07
-4.95212e-08
-1.1214e-07
-4.8814e-08
-1.17111e-07
-4.80856e-08
-1.21801e-07
-4.73595e-08
-1.26199e-07
-4.66232e-08
-1.30297e-07
-4.5898e-08
-1.34089e-07
-4.51711e-08
-1.37574e-07
-4.44624e-08
-1.40753e-07
-4.37588e-08
-1.43631e-07
-4.30781e-08
-1.46214e-07
-4.2408e-08
-1.48514e-07
-4.17643e-08
-1.50543e-07
-4.11345e-08
-1.52315e-07
-4.05345e-08
-1.53847e-07
-3.99494e-08
-1.55157e-07
-1.56272e-07
-3.93972e-08
-5.43039e-08
-9.04279e-08
5.4886e-08
-5.36747e-08
-9.63385e-08
-5.29901e-08
-1.02094e-07
-5.22835e-08
-1.07614e-07
-5.15386e-08
-1.12879e-07
-5.07855e-08
-1.17871e-07
-5.00079e-08
-1.22575e-07
-4.92333e-08
-1.26981e-07
-4.84455e-08
-1.31082e-07
-4.76699e-08
-1.34873e-07
-4.68901e-08
-1.38352e-07
-4.61297e-08
-1.41522e-07
-4.5372e-08
-1.44387e-07
-4.46399e-08
-1.46955e-07
-4.39153e-08
-1.49238e-07
-4.32205e-08
-1.51247e-07
-4.25371e-08
-1.52998e-07
-4.18869e-08
-1.54507e-07
-4.1249e-08
-1.55794e-07
-1.56885e-07
-4.06482e-08
-5.64938e-08
-9.10413e-08
5.71093e-08
-5.58265e-08
-9.70096e-08
-5.50983e-08
-1.02811e-07
-5.43469e-08
-1.0837e-07
-5.3554e-08
-1.13664e-07
-5.27524e-08
-1.18678e-07
-5.19234e-08
-1.23398e-07
-5.10976e-08
-1.27814e-07
-5.0256e-08
-1.31919e-07
-4.94271e-08
-1.35709e-07
-4.85919e-08
-1.39184e-07
-4.77772e-08
-1.42344e-07
-4.69637e-08
-1.45197e-07
-4.61761e-08
-1.47751e-07
-4.5396e-08
-1.50015e-07
-4.46461e-08
-1.52004e-07
-4.39075e-08
-1.53733e-07
-4.32035e-08
-1.55219e-07
-4.25119e-08
-1.56481e-07
-1.57546e-07
-4.18593e-08
-5.86917e-08
-9.16995e-08
5.93456e-08
-5.79785e-08
-9.77231e-08
-5.7205e-08
-1.03573e-07
-5.64071e-08
-1.09172e-07
-5.55648e-08
-1.145e-07
-5.47131e-08
-1.19538e-07
-5.38308e-08
-1.24277e-07
-5.29516e-08
-1.28704e-07
-5.20536e-08
-1.32815e-07
-5.11689e-08
-1.36606e-07
-5.02754e-08
-1.40076e-07
-4.94034e-08
-1.43229e-07
-4.85301e-08
-1.4607e-07
-4.76853e-08
-1.48608e-07
-4.68449e-08
-1.50856e-07
-4.60381e-08
-1.52825e-07
-4.52402e-08
-1.54532e-07
-4.44802e-08
-1.55994e-07
-4.37303e-08
-1.57231e-07
-1.5827e-07
-4.30233e-08
-6.08702e-08
-9.23685e-08
6.15645e-08
-6.01262e-08
-9.84632e-08
-5.93094e-08
-1.04372e-07
-5.84664e-08
-1.10018e-07
-5.7573e-08
-1.15382e-07
-5.66693e-08
-1.2045e-07
-5.57311e-08
-1.25209e-07
-5.47956e-08
-1.2965e-07
-5.38384e-08
-1.33769e-07
-5.28946e-08
-1.37561e-07
-5.19397e-08
-1.41029e-07
-5.1007e-08
-1.44174e-07
-5.00718e-08
-1.47004e-07
-4.9165e-08
-1.49527e-07
-4.82629e-08
-1.51757e-07
-4.73944e-08
-1.53705e-07
-4.65352e-08
-1.5539e-07
-4.5715e-08
-1.56828e-07
-4.49054e-08
-1.58038e-07
-1.59048e-07
-4.41404e-08
-6.30899e-08
-9.30982e-08
6.38248e-08
-6.22953e-08
-9.92603e-08
-6.14276e-08
-1.05227e-07
-6.05324e-08
-1.10921e-07
-5.95836e-08
-1.16325e-07
-5.86235e-08
-1.21423e-07
-5.76256e-08
-1.26204e-07
-5.663e-08
-1.30661e-07
-5.56099e-08
-1.34788e-07
-5.46034e-08
-1.38584e-07
-5.35835e-08
-1.42049e-07
-5.25864e-08
-1.45187e-07
-5.15846e-08
-1.48006e-07
-5.06137e-08
-1.50516e-07
-4.96444e-08
-1.52727e-07
-4.87121e-08
-1.54656e-07
-4.77868e-08
-1.56318e-07
-4.69037e-08
-1.57731e-07
-4.60291e-08
-1.58914e-07
-1.59896e-07
-4.52031e-08
-6.53084e-08
-9.38666e-08
6.60845e-08
-6.44694e-08
-1.00105e-07
-6.35505e-08
-1.06134e-07
-6.2601e-08
-1.1188e-07
-6.1594e-08
-1.17325e-07
-6.05739e-08
-1.22456e-07
-5.9513e-08
-1.27262e-07
-5.84533e-08
-1.31736e-07
-5.73669e-08
-1.35873e-07
-5.62937e-08
-1.39672e-07
-5.52052e-08
-1.43136e-07
-5.41398e-08
-1.46268e-07
-5.30687e-08
-1.49077e-07
-5.20282e-08
-1.51571e-07
-5.09899e-08
-1.53765e-07
-4.99884e-08
-1.55673e-07
-4.89945e-08
-1.57311e-07
-4.80437e-08
-1.58698e-07
-4.71023e-08
-1.59853e-07
-1.60805e-07
-4.6211e-08
-6.75421e-08
-9.46903e-08
6.83592e-08
-6.66503e-08
-1.01006e-07
-6.5677e-08
-1.07099e-07
-6.46696e-08
-1.129e-07
-6.36015e-08
-1.1839e-07
-6.25179e-08
-1.23555e-07
-6.13907e-08
-1.28388e-07
-6.02634e-08
-1.3288e-07
-5.91068e-08
-1.37029e-07
-5.7963e-08
-1.40834e-07
-5.6802e-08
-1.44297e-07
-5.56642e-08
-1.47424e-07
-5.45188e-08
-1.50222e-07
-5.34059e-08
-1.52703e-07
-5.22927e-08
-1.54879e-07
-5.12192e-08
-1.56766e-07
-5.01515e-08
-1.5838e-07
-4.91298e-08
-1.59741e-07
-4.81159e-08
-1.60867e-07
-1.61788e-07
-4.71558e-08
-6.97714e-08
-9.55486e-08
7.0635e-08
-6.88325e-08
-1.01951e-07
-6.78037e-08
-1.08117e-07
-6.67369e-08
-1.13977e-07
-6.56047e-08
-1.19515e-07
-6.44545e-08
-1.24719e-07
-6.32574e-08
-1.29581e-07
-6.20585e-08
-1.34094e-07
-6.08279e-08
-1.38257e-07
-5.96092e-08
-1.42068e-07
-5.83714e-08
-1.45532e-07
-5.71569e-08
-1.48654e-07
-5.59339e-08
-1.51443e-07
-5.47427e-08
-1.53909e-07
-5.3552e-08
-1.56068e-07
-5.24005e-08
-1.57933e-07
-5.12558e-08
-1.59522e-07
-5.0158e-08
-1.60855e-07
-4.90692e-08
-1.61951e-07
-1.62839e-07
-4.80356e-08
-7.20206e-08
-9.64627e-08
7.29319e-08
-7.10246e-08
-1.02954e-07
-6.99355e-08
-1.09195e-07
-6.88047e-08
-1.15119e-07
-6.76045e-08
-1.20709e-07
-6.63837e-08
-1.25954e-07
-6.51125e-08
-1.30848e-07
-6.38377e-08
-1.35385e-07
-6.25287e-08
-1.39563e-07
-6.12305e-08
-1.43383e-07
-5.99114e-08
-1.46849e-07
-5.86152e-08
-1.49967e-07
-5.73088e-08
-1.52747e-07
-5.60358e-08
-1.552e-07
-5.4761e-08
-1.5734e-07
-5.35281e-08
-1.59183e-07
-5.23006e-08
-1.60748e-07
-5.11226e-08
-1.62052e-07
-4.99527e-08
-1.63117e-07
-1.63971e-07
-4.88414e-08
-7.42733e-08
-9.74173e-08
7.52379e-08
-7.32234e-08
-1.04007e-07
-7.20716e-08
-1.10331e-07
-7.0874e-08
-1.16324e-07
-6.96018e-08
-1.21971e-07
-6.8306e-08
-1.27261e-07
-6.69562e-08
-1.3219e-07
-6.56009e-08
-1.36753e-07
-6.42084e-08
-1.40949e-07
-6.28258e-08
-1.44779e-07
-6.14202e-08
-1.48248e-07
-6.00371e-08
-1.51363e-07
-5.8643e-08
-1.54135e-07
-5.72816e-08
-1.56574e-07
-5.59192e-08
-1.58696e-07
-5.45982e-08
-1.60517e-07
-5.32837e-08
-1.62056e-07
-5.20195e-08
-1.63331e-07
-5.07651e-08
-1.64363e-07
-1.65181e-07
-4.95707e-08
-7.65514e-08
-9.84353e-08
7.75706e-08
-7.54367e-08
-1.05126e-07
-7.42167e-08
-1.11536e-07
-7.29466e-08
-1.17602e-07
-7.15976e-08
-1.23309e-07
-7.02219e-08
-1.28649e-07
-6.87885e-08
-1.33616e-07
-6.73474e-08
-1.38208e-07
-6.58663e-08
-1.42424e-07
-6.43937e-08
-1.46266e-07
-6.2896e-08
-1.4974e-07
-6.14204e-08
-1.52853e-07
-5.9932e-08
-1.55617e-07
-5.84776e-08
-1.58044e-07
-5.70202e-08
-1.60148e-07
-5.56065e-08
-1.61946e-07
-5.41983e-08
-1.63458e-07
-5.28429e-08
-1.64703e-07
-5.14968e-08
-1.65702e-07
-1.66483e-07
-5.02142e-08
-7.88357e-08
-9.95009e-08
7.99147e-08
-7.76597e-08
-1.06304e-07
-7.63686e-08
-1.12808e-07
-7.50229e-08
-1.18953e-07
-7.35925e-08
-1.24726e-07
-7.2132e-08
-1.30119e-07
-7.06095e-08
-1.35128e-07
-6.9077e-08
-1.39751e-07
-6.75015e-08
-1.4399e-07
-6.5933e-08
-1.47846e-07
-6.43373e-08
-1.51326e-07
-6.2763e-08
-1.54439e-07
-6.1175e-08
-1.57196e-07
-5.96201e-08
-1.5961e-07
-5.8063e-08
-1.61696e-07
-5.65491e-08
-1.63471e-07
-5.5042e-08
-1.64956e-07
-5.35885e-08
-1.66169e-07
-5.21461e-08
-1.67132e-07
-1.67874e-07
-5.07688e-08
-8.11489e-08
-1.00637e-07
8.22889e-08
-7.99002e-08
-1.07555e-07
-7.85324e-08
-1.14159e-07
-7.71048e-08
-1.20388e-07
-7.55875e-08
-1.26231e-07
-7.40364e-08
-1.31681e-07
-7.24192e-08
-1.36736e-07
-7.07893e-08
-1.41394e-07
-6.91131e-08
-1.45657e-07
-6.74423e-08
-1.4953e-07
-6.5742e-08
-1.53019e-07
-6.40623e-08
-1.56132e-07
-6.2367e-08
-1.58883e-07
-6.0706e-08
-1.61285e-07
-5.90407e-08
-1.63353e-07
-5.7421e-08
-1.65105e-07
-5.58072e-08
-1.66562e-07
-5.42495e-08
-1.67742e-07
-5.27028e-08
-1.68669e-07
-1.6937e-07
-5.12247e-08
-8.34732e-08
-1.0183e-07
8.46805e-08
-8.21546e-08
-1.08874e-07
-8.07063e-08
-1.15586e-07
-7.91928e-08
-1.21906e-07
-7.75832e-08
-1.27825e-07
-7.59358e-08
-1.33337e-07
-7.42175e-08
-1.38442e-07
-7.24837e-08
-1.43138e-07
-7.07001e-08
-1.4743e-07
-6.892e-08
-1.51321e-07
-6.7108e-08
-1.5482e-07
-6.53157e-08
-1.57936e-07
-6.35068e-08
-1.60681e-07
-6.17309e-08
-1.63071e-07
-5.99518e-08
-1.65121e-07
-5.82176e-08
-1.6685e-07
-5.64907e-08
-1.68277e-07
-5.48208e-08
-1.69424e-07
-5.31641e-08
-1.70311e-07
-1.70969e-07
-5.15778e-08
-8.58313e-08
-1.03102e-07
8.71078e-08
-8.44304e-08
-1.10278e-07
-8.28952e-08
-1.17103e-07
-8.12888e-08
-1.2352e-07
-7.95807e-08
-1.29519e-07
-7.78302e-08
-1.35099e-07
-7.60042e-08
-1.40257e-07
-7.41594e-08
-1.44996e-07
-7.22612e-08
-1.49319e-07
-7.03643e-08
-1.53231e-07
-6.8433e-08
-1.56742e-07
-6.65201e-08
-1.59862e-07
-6.45887e-08
-1.62603e-07
-6.26912e-08
-1.64982e-07
-6.07885e-08
-1.67014e-07
-5.8933e-08
-1.6872e-07
-5.7084e-08
-1.70117e-07
-5.52947e-08
-1.71229e-07
-5.35186e-08
-1.72076e-07
-1.72689e-07
-5.18168e-08
-8.8203e-08
-1.04439e-07
8.95549e-08
-8.67228e-08
-1.11759e-07
-8.50968e-08
-1.18707e-07
-8.3393e-08
-1.25229e-07
-8.15803e-08
-1.31316e-07
-7.97203e-08
-1.36968e-07
-7.77794e-08
-1.42185e-07
-7.58161e-08
-1.4697e-07
-7.37955e-08
-1.51328e-07
-7.17736e-08
-1.55264e-07
-6.97146e-08
-1.5879e-07
-6.76727e-08
-1.61915e-07
-6.56111e-08
-1.64654e-07
-6.35821e-08
-1.67022e-07
-6.15487e-08
-1.69037e-07
-5.95617e-08
-1.70717e-07
-5.7583e-08
-1.72084e-07
-5.56648e-08
-1.73159e-07
-5.37626e-08
-1.73963e-07
-1.74528e-07
-5.19365e-08
-9.0613e-08
-1.05864e-07
9.20426e-08
-8.90408e-08
-1.13334e-07
-8.73168e-08
-1.20412e-07
-8.55079e-08
-1.27045e-07
-8.35836e-08
-1.33226e-07
-8.16065e-08
-1.38957e-07
-7.9543e-08
-1.44238e-07
-7.74531e-08
-1.49073e-07
-7.53016e-08
-1.53469e-07
-7.31461e-08
-1.57433e-07
-7.09503e-08
-1.60976e-07
-6.87702e-08
-1.64108e-07
-6.6568e-08
-1.66846e-07
-6.43992e-08
-1.69204e-07
-6.22238e-08
-1.71202e-07
-6.00972e-08
-1.72858e-07
-5.7978e-08
-1.74193e-07
-5.59224e-08
-1.7523e-07
-5.3883e-08
-1.75991e-07
-1.76506e-07
-5.19239e-08
-9.30436e-08
-1.07363e-07
9.45583e-08
-9.13813e-08
-1.14997e-07
-8.95543e-08
-1.22216e-07
-8.76349e-08
-1.2897e-07
-8.55918e-08
-1.35253e-07
-8.34899e-08
-1.41068e-07
-8.12956e-08
-1.46419e-07
-7.90702e-08
-1.5131e-07
-7.67786e-08
-1.55749e-07
-7.44799e-08
-1.59744e-07
-7.21377e-08
-1.63306e-07
-6.98093e-08
-1.66449e-07
-6.74574e-08
-1.69186e-07
-6.5137e-08
-1.71536e-07
-6.2811e-08
-1.73516e-07
-6.05329e-08
-1.75147e-07
-5.82641e-08
-1.76449e-07
-5.60598e-08
-1.77446e-07
-5.38749e-08
-1.7816e-07
-1.78621e-07
-5.17725e-08
-9.55201e-08
-1.08962e-07
9.7123e-08
-9.37536e-08
-1.16767e-07
-9.18156e-08
-1.24134e-07
-8.97769e-08
-1.31016e-07
-8.76068e-08
-1.37408e-07
-8.53715e-08
-1.43315e-07
-8.30373e-08
-1.48742e-07
-8.0667e-08
-1.53694e-07
-7.82256e-08
-1.5818e-07
-7.57734e-08
-1.6221e-07
-7.32741e-08
-1.65795e-07
-7.07864e-08
-1.6895e-07
-6.82725e-08
-1.7169e-07
-6.57906e-08
-1.74032e-07
-6.33009e-08
-1.75995e-07
-6.08611e-08
-1.77601e-07
-5.84302e-08
-1.7887e-07
-5.60667e-08
-1.79826e-07
-5.37235e-08
-1.8049e-07
-1.80896e-07
-5.14673e-08
-9.80223e-08
-1.10645e-07
9.97211e-08
-9.61538e-08
-1.18637e-07
-9.40993e-08
-1.26166e-07
-9.19351e-08
-1.33186e-07
-8.963e-08
-1.39696e-07
-8.72526e-08
-1.45703e-07
-8.47689e-08
-1.51212e-07
-8.22436e-08
-1.56231e-07
-7.96415e-08
-1.6077e-07
-7.70247e-08
-1.64839e-07
-7.43567e-08
-1.68451e-07
-7.16979e-08
-1.71621e-07
-6.90109e-08
-1.74364e-07
-6.63537e-08
-1.767e-07
-6.36894e-08
-1.78647e-07
-6.10741e-08
-1.80227e-07
-5.84697e-08
-1.81461e-07
-5.59339e-08
-1.82373e-07
-5.34218e-08
-1.82986e-07
-1.83331e-07
-5.09995e-08
-1.00578e-07
-1.12439e-07
1.02376e-07
-9.85923e-08
-1.20625e-07
-9.64124e-08
-1.28325e-07
-9.41133e-08
-1.35493e-07
-9.16641e-08
-1.4213e-07
-8.91347e-08
-1.48244e-07
-8.64912e-08
-1.53843e-07
-8.37999e-08
-1.58936e-07
-8.10256e-08
-1.63533e-07
-7.82319e-08
-1.67647e-07
-7.53827e-08
-1.7129e-07
-7.25395e-08
-1.74478e-07
-6.96651e-08
-1.77228e-07
-6.68204e-08
-1.79559e-07
-6.3966e-08
-1.8149e-07
-6.11626e-08
-1.83044e-07
-5.83697e-08
-1.84243e-07
-5.56487e-08
-1.8511e-07
-5.29527e-08
-1.85668e-07
-1.85951e-07
-5.03516e-08
-1.03167e-07
-1.14328e-07
1.05073e-07
-1.01067e-07
-1.22728e-07
-9.87551e-08
-1.30612e-07
-9.63137e-08
-1.3794e-07
-9.37111e-08
-1.44715e-07
-9.10196e-08
-1.50946e-07
-8.82052e-08
-1.56643e-07
-8.5336e-08
-1.61817e-07
-8.23769e-08
-1.66479e-07
-7.93932e-08
-1.70642e-07
-7.63488e-08
-1.74321e-07
-7.33072e-08
-1.77531e-07
-7.02316e-08
-1.8029e-07
-6.71829e-08
-1.82618e-07
-6.4125e-08
-1.84535e-07
-6.1117e-08
-1.86062e-07
-5.81215e-08
-1.87224e-07
-5.51993e-08
-1.88043e-07
-5.23063e-08
-1.88544e-07
-1.88758e-07
-4.95115e-08
-1.0582e-07
-1.16343e-07
1.07837e-07
-1.03587e-07
-1.24964e-07
-1.01134e-07
-1.33044e-07
-9.85403e-08
-1.40543e-07
-9.57741e-08
-1.47466e-07
-9.29094e-08
-1.53824e-07
-8.99122e-08
-1.59628e-07
-8.68522e-08
-1.64891e-07
-8.36946e-08
-1.69625e-07
-8.05064e-08
-1.73845e-07
-7.72517e-08
-1.77564e-07
-7.39956e-08
-1.80801e-07
-7.07015e-08
-1.83572e-07
-6.74336e-08
-1.85899e-07
-6.41535e-08
-1.87802e-07
-6.09252e-08
-1.89304e-07
-5.77092e-08
-1.90428e-07
-5.45699e-08
-1.91197e-07
-5.14617e-08
-1.91637e-07
-1.9178e-07
-4.84576e-08
-1.08513e-07
-1.18464e-07
1.10651e-07
-1.06151e-07
-1.27328e-07
-1.0355e-07
-1.35619e-07
-1.00796e-07
-1.43303e-07
-9.78556e-08
-1.50387e-07
-9.48063e-08
-1.56883e-07
-9.16134e-08
-1.62806e-07
-8.83489e-08
-1.68167e-07
-8.49777e-08
-1.72982e-07
-8.1569e-08
-1.77265e-07
-7.80872e-08
-1.81032e-07
-7.45992e-08
-1.843e-07
-7.10696e-08
-1.87088e-07
-6.75625e-08
-1.89416e-07
-6.40434e-08
-1.91307e-07
-6.05745e-08
-1.92782e-07
-5.71202e-08
-1.93866e-07
-5.37445e-08
-1.94583e-07
-5.04047e-08
-1.94958e-07
-1.95023e-07
-4.71732e-08
-1.11277e-07
-1.20722e-07
1.1354e-07
-1.0877e-07
-1.29838e-07
-1.06011e-07
-1.38354e-07
-1.03085e-07
-1.46237e-07
-9.99598e-08
-1.53495e-07
-9.6713e-08
-1.60142e-07
-9.33105e-08
-1.66194e-07
-8.98261e-08
-1.71666e-07
-8.62249e-08
-1.76571e-07
-8.25779e-08
-1.80926e-07
-7.88502e-08
-1.84747e-07
-7.51108e-08
-1.88052e-07
-7.13242e-08
-1.90861e-07
-6.75588e-08
-1.93195e-07
-6.37776e-08
-1.95075e-07
-6.00485e-08
-1.96524e-07
-5.63337e-08
-1.97568e-07
-5.27016e-08
-1.9823e-07
-4.91083e-08
-1.98535e-07
-1.98518e-07
-4.56303e-08
-1.14095e-07
-1.23099e-07
1.16491e-07
-1.11444e-07
-1.3249e-07
-1.08519e-07
-1.41251e-07
-1.05413e-07
-1.49349e-07
-1.0209e-07
-1.56797e-07
-9.86327e-08
-1.6361e-07
-9.50052e-08
-1.69805e-07
-9.1284e-08
-1.75398e-07
-8.74342e-08
-1.80405e-07
-8.35292e-08
-1.84842e-07
-7.95345e-08
-1.88726e-07
-7.55216e-08
-1.92076e-07
-7.14563e-08
-1.94911e-07
-6.74075e-08
-1.97252e-07
-6.33425e-08
-1.99123e-07
-5.9328e-08
-2.00547e-07
-5.53304e-08
-2.01548e-07
-5.14179e-08
-2.02151e-07
-4.75503e-08
-2.02382e-07
-2.02274e-07
-4.38038e-08
-1.16999e-07
-1.25626e-07
1.19532e-07
-1.14186e-07
-1.35306e-07
-1.11085e-07
-1.44326e-07
-1.07785e-07
-1.52657e-07
-1.04252e-07
-1.6031e-07
-1.00568e-07
-1.67305e-07
-9.66988e-08
-1.73659e-07
-9.27218e-08
-1.79389e-07
-8.86024e-08
-1.8451e-07
-8.4417e-08
-1.89041e-07
-8.01314e-08
-1.92997e-07
-7.58198e-08
-1.96399e-07
-7.14485e-08
-1.99267e-07
-6.70913e-08
-2.01622e-07
-6.27135e-08
-2.03486e-07
-5.8388e-08
-2.04884e-07
-5.40798e-08
-2.05841e-07
-4.9862e-08
-2.06382e-07
-4.56932e-08
-2.06532e-07
-2.06329e-07
-4.16545e-08
-1.19967e-07
-1.28285e-07
1.22647e-07
-1.16994e-07
-1.38278e-07
-1.13709e-07
-1.4758e-07
-1.10206e-07
-1.56164e-07
-1.06449e-07
-1.64044e-07
-1.02523e-07
-1.7124e-07
-9.83918e-08
-1.77771e-07
-9.41377e-08
-1.83654e-07
-8.97249e-08
-1.88905e-07
-8.52334e-08
-1.93543e-07
-8.06291e-08
-1.97584e-07
-7.599e-08
-2.01048e-07
-7.12839e-08
-2.03955e-07
-6.65861e-08
-2.06327e-07
-6.18666e-08
-2.08187e-07
-5.7198e-08
-2.09559e-07
-5.25503e-08
-2.10469e-07
-4.79969e-08
-2.10942e-07
-4.35008e-08
-2.11006e-07
-2.10695e-07
-3.9143e-08
-1.23035e-07
-1.31107e-07
1.25865e-07
-1.19886e-07
-1.41428e-07
-1.16404e-07
-1.51032e-07
-1.12683e-07
-1.59892e-07
-1.08685e-07
-1.6802e-07
-1.04498e-07
-1.75439e-07
-1.00084e-07
-1.82168e-07
-9.5528e-08
-1.88223e-07
-9.07944e-08
-1.93623e-07
-8.59667e-08
-1.98383e-07
-8.10118e-08
-2.02523e-07
-7.60115e-08
-2.0606e-07
-7.09345e-08
-2.09015e-07
-6.58621e-08
-2.11411e-07
-6.0763e-08
-2.13269e-07
-5.57175e-08
-2.14615e-07
-5.06944e-08
-2.15475e-07
-4.57731e-08
-2.15875e-07
-4.09163e-08
-2.15842e-07
-2.15415e-07
-3.62105e-08
-1.26184e-07
-1.34073e-07
1.29174e-07
-1.2286e-07
-1.44751e-07
-1.19173e-07
-1.54685e-07
-1.15223e-07
-1.63846e-07
-1.10966e-07
-1.7225e-07
-1.06497e-07
-1.79918e-07
-1.01774e-07
-1.86869e-07
-9.6887e-08
-1.93121e-07
-9.18002e-08
-1.98689e-07
-8.66015e-08
-2.03592e-07
-8.12582e-08
-2.07846e-07
-7.58573e-08
-2.11469e-07
-7.03697e-08
-2.14483e-07
-6.48793e-08
-2.16907e-07
-5.9361e-08
-2.18767e-07
-5.38958e-08
-2.20085e-07
-4.84586e-08
-2.2089e-07
-4.31306e-08
-2.21208e-07
-3.78795e-08
-2.21068e-07
-2.20509e-07
-3.27924e-08
-1.29454e-07
-1.37214e-07
1.32605e-07
-1.25936e-07
-1.4827e-07
-1.2203e-07
-1.58559e-07
-1.17832e-07
-1.68052e-07
-1.13296e-07
-1.76761e-07
-1.08519e-07
-1.84708e-07
-1.03457e-07
-1.91911e-07
-9.82056e-08
-1.98386e-07
-9.27274e-08
-2.04149e-07
-8.71163e-08
-2.09216e-07
-8.13402e-08
-2.13603e-07
-7.5492e-08
-2.17329e-07
-6.95437e-08
-2.20412e-07
-6.35881e-08
-2.22873e-07
-5.75989e-08
-2.24736e-07
-5.16672e-08
-2.26026e-07
-4.5768e-08
-2.2677e-07
-3.99902e-08
-2.26996e-07
-3.43021e-08
-2.26734e-07
-2.26026e-07
-2.87976e-08
-1.32822e-07
-1.40508e-07
1.36142e-07
-1.29115e-07
-1.51976e-07
-1.24978e-07
-1.62657e-07
-1.20516e-07
-1.72518e-07
-1.15677e-07
-1.81571e-07
-1.10562e-07
-1.89834e-07
-1.05125e-07
-1.97323e-07
-9.9469e-08
-2.04054e-07
-9.35539e-08
-2.10041e-07
-8.74815e-08
-2.15299e-07
-8.12196e-08
-2.19842e-07
-7.48691e-08
-2.23688e-07
-6.84043e-08
-2.26853e-07
-6.19235e-08
-2.29359e-07
-5.54074e-08
-2.31229e-07
-4.89508e-08
-2.32486e-07
-4.2536e-08
-2.3316e-07
-3.62564e-08
-2.33279e-07
-3.00865e-08
-2.32876e-07
-2.31995e-07
-2.41227e-08
-1.36333e-07
-1.43985e-07
1.39822e-07
-1.32417e-07
-1.55894e-07
-1.28032e-07
-1.67005e-07
-1.23281e-07
-1.77277e-07
-1.18107e-07
-1.86717e-07
-1.12617e-07
-1.95338e-07
-1.06762e-07
-2.03155e-07
-1.00651e-07
-2.1018e-07
-9.42451e-08
-2.16426e-07
-8.7653e-08
-2.21905e-07
-8.08431e-08
-2.26631e-07
-7.39255e-08
-2.30617e-07
-6.68757e-08
-2.33881e-07
-5.98041e-08
-2.36442e-07
-5.26907e-08
-2.3832e-07
-4.56446e-08
-2.39541e-07
-3.86488e-08
-2.40133e-07
-3.1809e-08
-2.40128e-07
-2.5101e-08
-2.3956e-07
-2.38477e-07
-1.86313e-08
-1.39967e-07
-1.47624e-07
1.43633e-07
-1.3584e-07
-1.60021e-07
-1.31187e-07
-1.71614e-07
-1.26119e-07
-1.82352e-07
-1.2057e-07
-1.92232e-07
-1.14658e-07
-2.01263e-07
-1.08329e-07
-2.09456e-07
-1.01704e-07
-2.1682e-07
-9.47408e-08
-2.23364e-07
-8.75603e-08
-2.29099e-07
-8.01294e-08
-2.34036e-07
-7.25708e-08