/*--------------------------------*- C++ -*----------------------------------*\
  =========                 |
  \\      /  F ield         | OpenFOAM: The Open Source CFD Toolbox
   \\    /   O peration     | Website:  https://openfoam.org
    \\  /    A nd           | Version:  6
     \\/     M anipulation  |
\*---------------------------------------------------------------------------*/
FoamFile
{
    version     2.0;
    format      ascii;
    class       volVectorField;
    location    "29";
    object      U;
}
// * * * * * * * * * * * * * * * * * * * * * * * * * * * * * * * * * * * * * //

dimensions      [0 1 -1 0 0 0 0];

internalField   nonuniform List<vector> 
130000
(
(-0.0208982 -0.340859 0)
(-0.0214842 -0.36236 0)
(-0.0220339 -0.383673 0)
(-0.0225388 -0.404367 0)
(-0.0229919 -0.424359 0)
(-0.0233986 -0.443569 0)
(-0.0237629 -0.461925 0)
(-0.0240888 -0.479362 0)
(-0.0243801 -0.495824 0)
(-0.0246405 -0.511266 0)
(-0.0248737 -0.525655 0)
(-0.025083 -0.538972 0)
(-0.0252711 -0.551211 0)
(-0.0254413 -0.562378 0)
(-0.0255957 -0.572492 0)
(-0.0257363 -0.581583 0)
(-0.0258651 -0.589694 0)
(-0.0259834 -0.596875 0)
(-0.0260929 -0.603187 0)
(-0.0261946 -0.608741 0)
(-0.0224593 -0.339477 0)
(-0.0228728 -0.3611 0)
(-0.023302 -0.382514 0)
(-0.0237184 -0.403319 0)
(-0.0241016 -0.423421 0)
(-0.0244496 -0.442739 0)
(-0.0247633 -0.461194 0)
(-0.0250449 -0.478722 0)
(-0.0252968 -0.495266 0)
(-0.0255224 -0.510781 0)
(-0.0257243 -0.525234 0)
(-0.0259058 -0.538607 0)
(-0.0260698 -0.550894 0)
(-0.0262182 -0.562103 0)
(-0.0263536 -0.572252 0)
(-0.0264778 -0.581375 0)
(-0.0265921 -0.589512 0)
(-0.026698 -0.596716 0)
(-0.0267974 -0.603047 0)
(-0.0268917 -0.608609 0)
(-0.0246714 -0.33874 0)
(-0.0249926 -0.360341 0)
(-0.0253291 -0.381771 0)
(-0.0256567 -0.402613 0)
(-0.0259566 -0.422763 0)
(-0.0262283 -0.442132 0)
(-0.0264722 -0.460639 0)
(-0.0266905 -0.478215 0)
(-0.026885 -0.494803 0)
(-0.0270589 -0.510358 0)
(-0.0272143 -0.524846 0)
(-0.0273541 -0.53825 0)
(-0.0274803 -0.550563 0)
(-0.0275959 -0.561795 0)
(-0.0277021 -0.571963 0)
(-0.027801 -0.581102 0)
(-0.0278938 -0.589252 0)
(-0.0279818 -0.596468 0)
(-0.0280669 -0.602809 0)
(-0.0281505 -0.60838 0)
(-0.0276931 -0.338182 0)
(-0.0278796 -0.359808 0)
(-0.0280889 -0.381268 0)
(-0.0282951 -0.402147 0)
(-0.0284831 -0.422339 0)
(-0.0286518 -0.44175 0)
(-0.0288015 -0.460298 0)
(-0.028934 -0.477912 0)
(-0.0290505 -0.494534 0)
(-0.0291536 -0.510118 0)
(-0.0292449 -0.524632 0)
(-0.0293271 -0.538057 0)
(-0.0294019 -0.550388 0)
(-0.029471 -0.561632 0)
(-0.0295361 -0.571811 0)
(-0.0295989 -0.580956 0)
(-0.0296598 -0.589112 0)
(-0.0297205 -0.596331 0)
(-0.0297826 -0.602672 0)
(-0.0298472 -0.608241 0)
(-0.0312213 -0.337939 0)
(-0.0312832 -0.35957 0)
(-0.0313629 -0.38104 0)
(-0.0314457 -0.401938 0)
(-0.0315154 -0.422151 0)
(-0.0315724 -0.441585 0)
(-0.0316171 -0.460155 0)
(-0.0316516 -0.47779 0)
(-0.0316774 -0.494429 0)
(-0.0316969 -0.510028 0)
(-0.0317116 -0.524552 0)
(-0.0317239 -0.537985 0)
(-0.0317346 -0.550319 0)
(-0.0317463 -0.561565 0)
(-0.0317595 -0.571743 0)
(-0.0317755 -0.580886 0)
(-0.0317951 -0.589038 0)
(-0.0318188 -0.59625 0)
(-0.0318479 -0.602584 0)
(-0.0318831 -0.608146 0)
(-0.0350757 -0.337946 0)
(-0.035041 -0.359599 0)
(-0.0350085 -0.381082 0)
(-0.0349725 -0.401993 0)
(-0.0349246 -0.422217 0)
(-0.0348669 -0.44166 0)
(-0.034802 -0.460237 0)
(-0.0347327 -0.477876 0)
(-0.034661 -0.494517 0)
(-0.0345895 -0.510114 0)
(-0.0345198 -0.524634 0)
(-0.0344542 -0.53806 0)
(-0.0343938 -0.550386 0)
(-0.0343398 -0.561621 0)
(-0.0342931 -0.571787 0)
(-0.0342548 -0.580916 0)
(-0.0342247 -0.589053 0)
(-0.0342035 -0.596251 0)
(-0.0341924 -0.60257 0)
(-0.0341916 -0.608116 0)
(-0.039217 -0.338233 0)
(-0.0390713 -0.359914 0)
(-0.0389139 -0.381403 0)
(-0.038759 -0.402316 0)
(-0.0385946 -0.422539 0)
(-0.0384247 -0.441978 0)
(-0.0382515 -0.460547 0)
(-0.0380791 -0.478177 0)
(-0.0379091 -0.494805 0)
(-0.037745 -0.510388 0)
(-0.037588 -0.524891 0)
(-0.0374407 -0.538298 0)
(-0.0373034 -0.550603 0)
(-0.0371786 -0.561815 0)
(-0.0370658 -0.571958 0)
(-0.0369663 -0.581063 0)
(-0.0368799 -0.589176 0)
(-0.0368067 -0.596349 0)
(-0.0367474 -0.602645 0)
(-0.036702 -0.608168 0)
(-0.0434501 -0.338748 0)
(-0.0432077 -0.360451 0)
(-0.042952 -0.381946 0)
(-0.0426948 -0.402859 0)
(-0.0424275 -0.423078 0)
(-0.0421555 -0.442508 0)
(-0.0418821 -0.461065 0)
(-0.0416119 -0.478677 0)
(-0.0413474 -0.495286 0)
(-0.0410925 -0.510844 0)
(-0.0408486 -0.525321 0)
(-0.0406185 -0.538698 0)
(-0.0404033 -0.550973 0)
(-0.0402042 -0.562154 0)
(-0.0400217 -0.572263 0)
(-0.0398569 -0.581336 0)
(-0.0397091 -0.589416 0)
(-0.0395787 -0.596557 0)
(-0.0394663 -0.602822 0)
(-0.0393717 -0.608314 0)
(-0.0477252 -0.339365 0)
(-0.0474219 -0.36112 0)
(-0.0470841 -0.382644 0)
(-0.0467356 -0.403572 0)
(-0.0463747 -0.423797 0)
(-0.0460081 -0.443223 0)
(-0.0456407 -0.461769 0)
(-0.0452777 -0.479363 0)
(-0.0449225 -0.495948 0)
(-0.044579 -0.511477 0)
(-0.0442494 -0.525922 0)
(-0.0439366 -0.539264 0)
(-0.0436414 -0.5515 0)
(-0.0433664 -0.562641 0)
(-0.0431114 -0.572711 0)
(-0.0428775 -0.581742 0)
(-0.0426645 -0.589782 0)
(-0.0424723 -0.596884 0)
(-0.0423014 -0.60311 0)
(-0.0421514 -0.608564 0)
(-0.0521564 -0.340117 0)
(-0.0517343 -0.361933 0)
(-0.0513003 -0.383497 0)
(-0.0508589 -0.40445 0)
(-0.0504062 -0.424687 0)
(-0.0499482 -0.444115 0)
(-0.0494905 -0.462652 0)
(-0.049038 -0.480228 0)
(-0.0485947 -0.496787 0)
(-0.0481647 -0.512285 0)
(-0.0477506 -0.526692 0)
(-0.0473554 -0.539994 0)
(-0.0469811 -0.552187 0)
(-0.0466288 -0.563282 0)
(-0.0462998 -0.573305 0)
(-0.0459949 -0.582289 0)
(-0.0457139 -0.590281 0)
(-0.045457 -0.597336 0)
(-0.0452246 -0.603517 0)
(-0.0450167 -0.608927 0)
(-0.05655 -0.341018 0)
(-0.0560633 -0.362902 0)
(-0.0555517 -0.384511 0)
(-0.0550264 -0.405494 0)
(-0.0544882 -0.425748 0)
(-0.0539437 -0.445178 0)
(-0.0533997 -0.463707 0)
(-0.052861 -0.481265 0)
(-0.0523324 -0.497798 0)
(-0.0518177 -0.513262 0)
(-0.0513205 -0.527631 0)
(-0.0508436 -0.540887 0)
(-0.050389 -0.553032 0)
(-0.0499591 -0.564077 0)
(-0.0495545 -0.574047 0)
(-0.0491765 -0.582978 0)
(-0.0488252 -0.590917 0)
(-0.0485005 -0.59792 0)
(-0.048203 -0.604048 0)
(-0.0479324 -0.609408 0)
(-0.0610198 -0.342057 0)
(-0.060424 -0.364011 0)
(-0.0598252 -0.385669 0)
(-0.0592175 -0.406688 0)
(-0.0585973 -0.426963 0)
(-0.0579708 -0.446401 0)
(-0.0573444 -0.464926 0)
(-0.0567229 -0.482468 0)
(-0.0561115 -0.498975 0)
(-0.0555143 -0.514405 0)
(-0.0549351 -0.528732 0)
(-0.0543772 -0.541942 0)
(-0.0538433 -0.554036 0)
(-0.053335 -0.565026 0)
(-0.0528543 -0.574939 0)
(-0.052402 -0.583812 0)
(-0.0519786 -0.591693 0)
(-0.0515843 -0.598637 0)
(-0.0512199 -0.604709 0)
(-0.0508851 -0.610012 0)
(-0.0653741 -0.343188 0)
(-0.0647413 -0.36522 0)
(-0.0640867 -0.386942 0)
(-0.0634118 -0.408009 0)
(-0.0627195 -0.428315 0)
(-0.0620165 -0.44777 0)
(-0.0613116 -0.466296 0)
(-0.0606096 -0.483826 0)
(-0.059917 -0.50031 0)
(-0.059238 -0.515708 0)
(-0.0585773 -0.529994 0)
(-0.0579382 -0.543155 0)
(-0.0573237 -0.555196 0)
(-0.0567365 -0.566128 0)
(-0.056178 -0.575981 0)
(-0.0556497 -0.584792 0)
(-0.0551524 -0.59261 0)
(-0.0546861 -0.599491 0)
(-0.0542515 -0.6055 0)
(-0.0538486 -0.610742 0)
(-0.0697679 -0.344392 0)
(-0.0690859 -0.36653 0)
(-0.0683688 -0.388335 0)
(-0.067625 -0.409463 0)
(-0.0668595 -0.429811 0)
(-0.0660799 -0.449288 0)
(-0.0652959 -0.46782 0)
(-0.0645131 -0.485342 0)
(-0.0637387 -0.501805 0)
(-0.0629774 -0.51717 0)
(-0.0622345 -0.531414 0)
(-0.0615135 -0.544527 0)
(-0.0608183 -0.556512 0)
(-0.0601507 -0.567385 0)
(-0.0595135 -0.577175 0)
(-0.0589078 -0.58592 0)
(-0.0583347 -0.593671 0)
(-0.0577946 -0.600485 0)
(-0.0572884 -0.606427 0)
(-0.0568162 -0.611602 0)
(-0.0741694 -0.34575 0)
(-0.0734425 -0.367996 0)
(-0.072658 -0.389885 0)
(-0.071844 -0.411075 0)
(-0.0710043 -0.431465 0)
(-0.070148 -0.450966 0)
(-0.0692847 -0.469504 0)
(-0.0684211 -0.487019 0)
(-0.0675646 -0.503461 0)
(-0.0667206 -0.518793 0)
(-0.0658948 -0.532996 0)
(-0.065091 -0.546058 0)
(-0.0643129 -0.557987 0)
(-0.0635639 -0.568798 0)
(-0.0628459 -0.578522 0)
(-0.0621608 -0.587199 0)
(-0.0615098 -0.59488 0)
(-0.0608934 -0.601622 0)
(-0.0603124 -0.607494 0)
(-0.0597669 -0.612598 0)
(-0.0785314 -0.347242 0)
(-0.0777705 -0.369606 0)
(-0.0769282 -0.391581 0)
(-0.0760479 -0.412837 0)
(-0.075137 -0.433271 0)
(-0.0742061 -0.452799 0)
(-0.0732653 -0.471347 0)
(-0.072322 -0.488855 0)
(-0.071384 -0.505278 0)
(-0.0704574 -0.520579 0)
(-0.0695483 -0.534739 0)
(-0.0686609 -0.547751 0)
(-0.0678 -0.559622 0)
(-0.0669677 -0.57037 0)
(-0.0661677 -0.580027 0)
(-0.0654015 -0.588633 0)
(-0.0646705 -0.596241 0)
(-0.0639758 -0.602909 0)
(-0.0633182 -0.608705 0)
(-0.0626982 -0.613735 0)
(-0.0829035 -0.348835 0)
(-0.0820886 -0.371323 0)
(-0.0811815 -0.393396 0)
(-0.0802346 -0.414726 0)
(-0.0792538 -0.435215 0)
(-0.0782498 -0.454776 0)
(-0.0772326 -0.47334 0)
(-0.0762103 -0.490847 0)
(-0.075191 -0.507253 0)
(-0.0741814 -0.522525 0)
(-0.0731882 -0.536646 0)
(-0.0722161 -0.549608 0)
(-0.0712696 -0.561422 0)
(-0.0703528 -0.572106 0)
(-0.0694683 -0.581694 0)
(-0.0686184 -0.590227 0)
(-0.0678051 -0.59776 0)
(-0.0670293 -0.604351 0)
(-0.0662915 -0.61007 0)
(-0.0655926 -0.615021 0)
(-0.0872118 -0.350483 0)
(-0.086373 -0.373117 0)
(-0.0854193 -0.39531 0)
(-0.0844109 -0.416732 0)
(-0.0833622 -0.437288 0)
(-0.0822845 -0.456894 0)
(-0.08119 -0.475482 0)
(-0.080087 -0.492995 0)
(-0.0789848 -0.50939 0)
(-0.0778904 -0.524636 0)
(-0.0768111 -0.538719 0)
(-0.0757521 -0.551633 0)
(-0.0747191 -0.56339 0)
(-0.0737149 -0.57401 0)
(-0.0727438 -0.583528 0)
(-0.071808 -0.591987 0)
(-0.0709096 -0.599443 0)
(-0.07005 -0.605955 0)
(-0.0692301 -0.611592 0)
(-0.0684507 -0.616462 0)
(-0.0916195 -0.352225 0)
(-0.0907131 -0.375024 0)
(-0.0896852 -0.39735 0)
(-0.0886019 -0.418876 0)
(-0.0874757 -0.439508 0)
(-0.086318 -0.459165 0)
(-0.0851409 -0.477783 0)
(-0.0839533 -0.495306 0)
(-0.0827647 -0.511694 0)
(-0.0815823 -0.526917 0)
(-0.0804139 -0.540964 0)
(-0.0792652 -0.553832 0)
(-0.0781415 -0.565532 0)
(-0.0770473 -0.576088 0)
(-0.0759863 -0.585536 0)
(-0.0749611 -0.59392 0)
(-0.0739744 -0.601297 0)
(-0.0730277 -0.607727 0)
(-0.0721214 -0.613281 0)
(-0.0712566 -0.618066 0)
(-0.0960138 -0.354132 0)
(-0.0950484 -0.377096 0)
(-0.0939492 -0.399553 0)
(-0.0927892 -0.421183 0)
(-0.0915826 -0.441893 0)
(-0.0903419 -0.461604 0)
(-0.0890794 -0.480254 0)
(-0.0878043 -0.497789 0)
(-0.0865262 -0.514172 0)
(-0.0852531 -0.529376 0)
(-0.0839927 -0.543389 0)
(-0.0827512 -0.55621 0)
(-0.0815347 -0.567855 0)
(-0.0803471 -0.578347 0)
(-0.0791931 -0.587724 0)
(-0.0780756 -0.596032 0)
(-0.0769971 -0.603328 0)
(-0.0759599 -0.609675 0)
(-0.0749645 -0.615143 0)
(-0.0740123 -0.61984 0)
(-0.100414 -0.356179 0)
(-0.0993756 -0.37931 0)
(-0.0981989 -0.401904 0)
(-0.0969612 -0.423644 0)
(-0.0956736 -0.444437 0)
(-0.0943492 -0.464208 0)
(-0.0929998 -0.482895 0)
(-0.0916352 -0.500447 0)
(-0.0902654 -0.51683 0)
(-0.0888988 -0.532016 0)
(-0.0875436 -0.545997 0)
(-0.0862061 -0.558775 0)
(-0.0848925 -0.570365 0)
(-0.0836082 -0.580793 0)
(-0.0823572 -0.590099 0)
(-0.081143 -0.59833 0)
(-0.079969 -0.605545 0)
(-0.0788372 -0.611806 0)
(-0.0777478 -0.617185 0)
(-0.0767026 -0.621791 0)
(-0.104734 -0.358302 0)
(-0.103661 -0.381623 0)
(-0.102428 -0.404375 0)
(-0.101119 -0.426242 0)
(-0.0997523 -0.447133 0)
(-0.0983428 -0.466974 0)
(-0.0969044 -0.485708 0)
(-0.0954474 -0.503284 0)
(-0.0939826 -0.519671 0)
(-0.0925189 -0.534845 0)
(-0.091065 -0.548798 0)
(-0.0896277 -0.561533 0)
(-0.0882141 -0.57307 0)
(-0.0868286 -0.583436 0)
(-0.0854768 -0.592671 0)
(-0.0841622 -0.600825 0)
(-0.0828882 -0.607956 0)
(-0.0816577 -0.614129 0)
(-0.0804709 -0.619417 0)
(-0.0793299 -0.623929 0)
(-0.109145 -0.36052 0)
(-0.107999 -0.384055 0)
(-0.106684 -0.406984 0)
(-0.105289 -0.428993 0)
(-0.103834 -0.449993 0)
(-0.102333 -0.469915 0)
(-0.100799 -0.488703 0)
(-0.0992441 -0.50631 0)
(-0.0976792 -0.522706 0)
(-0.0961135 -0.537871 0)
(-0.0945561 -0.551799 0)
(-0.0930142 -0.564496 0)
(-0.0914947 -0.575982 0)
(-0.0900036 -0.586285 0)
(-0.0885458 -0.59545 0)
(-0.0871255 -0.603525 0)
(-0.0857467 -0.610572 0)
(-0.0844124 -0.616655 0)
(-0.0831223 -0.621849 0)
(-0.0818791 -0.626263 0)
(-0.113556 -0.362904 0)
(-0.112342 -0.386658 0)
(-0.110945 -0.409768 0)
(-0.109462 -0.431924 0)
(-0.107914 -0.45304 0)
(-0.106316 -0.473048 0)
(-0.104682 -0.491895 0)
(-0.103025 -0.509538 0)
(-0.101354 -0.525949 0)
(-0.0996816 -0.541109 0)
(-0.0980155 -0.555016 0)
(-0.0963637 -0.567676 0)
(-0.094734 -0.579112 0)
(-0.0931315 -0.589355 0)
(-0.0915626 -0.598449 0)
(-0.0900316 -0.606445 0)
(-0.0885424 -0.613406 0)
(-0.087099 -0.619397 0)
(-0.0857012 -0.624495 0)
(-0.0843518 -0.628808 0)
(-0.117995 -0.365446 0)
(-0.116694 -0.389426 0)
(-0.115206 -0.412726 0)
(-0.113631 -0.435037 0)
(-0.111986 -0.456278 0)
(-0.110288 -0.476381 0)
(-0.108551 -0.495296 0)
(-0.106787 -0.512982 0)
(-0.105007 -0.529412 0)
(-0.103222 -0.544572 0)
(-0.101441 -0.55846 0)
(-0.0996737 -0.571087 0)
(-0.0979267 -0.582475 0)
(-0.0962072 -0.592658 0)
(-0.0945207 -0.601681 0)
(-0.0928724 -0.609598 0)
(-0.0912669 -0.616471 0)
(-0.089708 -0.622369 0)
(-0.0881955 -0.627366 0)
(-0.0867327 -0.631574 0)
(-0.122376 -0.368098 0)
(-0.12102 -0.39233 0)
(-0.11946 -0.415844 0)
(-0.117796 -0.438331 0)
(-0.116055 -0.459712 0)
(-0.114254 -0.479922 0)
(-0.112409 -0.498914 0)
(-0.110532 -0.516651 0)
(-0.108636 -0.533108 0)
(-0.106732 -0.548273 0)
(-0.104831 -0.562147 0)
(-0.102942 -0.574742 0)
(-0.101072 -0.586084 0)
(-0.0992285 -0.596208 0)
(-0.0974183 -0.605161 0)
(-0.0956465 -0.612997 0)
(-0.0939179 -0.619781 0)
(-0.0922374 -0.625582 0)
(-0.0906048 -0.630477 0)
(-0.0890236 -0.634576 0)
(-0.126868 -0.370892 0)
(-0.125411 -0.395401 0)
(-0.123749 -0.419147 0)
(-0.121982 -0.441826 0)
(-0.120133 -0.463359 0)
(-0.11822 -0.483687 0)
(-0.116258 -0.502767 0)
(-0.114262 -0.520561 0)
(-0.112243 -0.537051 0)
(-0.110213 -0.552225 0)
(-0.108185 -0.566089 0)
(-0.106165 -0.578655 0)
(-0.104165 -0.589953 0)
(-0.10219 -0.600019 0)
(-0.100248 -0.608901 0)
(-0.0983456 -0.616656 0)
(-0.0964869 -0.623349 0)
(-0.0946773 -0.629051 0)
(-0.0929166 -0.633839 0)
(-0.0912086 -0.637825 0)
(-0.131348 -0.373887 0)
(-0.129806 -0.398683 0)
(-0.128048 -0.422668 0)
(-0.126175 -0.445547 0)
(-0.124214 -0.467241 0)
(-0.122182 -0.487696 0)
(-0.120097 -0.506869 0)
(-0.117973 -0.524728 0)
(-0.115824 -0.541255 0)
(-0.113661 -0.556444 0)
(-0.111497 -0.5703 0)
(-0.109341 -0.582841 0)
(-0.107202 -0.594095 0)
(-0.105089 -0.604103 0)
(-0.103008 -0.612914 0)
(-0.100967 -0.620587 0)
(-0.0989706 -0.627187 0)
(-0.0970246 -0.632787 0)
(-0.0951291 -0.637466 0)
(-0.0932884 -0.641334 0)
(-0.135864 -0.377069 0)
(-0.134224 -0.402171 0)
(-0.132357 -0.426411 0)
(-0.130372 -0.449502 0)
(-0.128291 -0.471368 0)
(-0.126135 -0.491958 0)
(-0.12392 -0.511232 0)
(-0.121662 -0.529162 0)
(-0.119375 -0.545733 0)
(-0.117071 -0.560941 0)
(-0.114763 -0.574793 0)
(-0.112462 -0.58731 0)
(-0.110177 -0.598523 0)
(-0.107917 -0.608474 0)
(-0.105689 -0.617214 0)
(-0.103501 -0.624803 0)
(-0.101358 -0.631308 0)
(-0.0992672 -0.636804 0)
(-0.097228 -0.641368 0)
(-0.0952455 -0.645114 0)
(-0.140365 -0.380431 0)
(-0.138637 -0.40586 0)
(-0.136668 -0.430375 0)
(-0.134568 -0.453693 0)
(-0.132363 -0.475744 0)
(-0.130076 -0.49648 0)
(-0.127725 -0.515866 0)
(-0.125325 -0.533875 0)
(-0.122892 -0.550496 0)
(-0.120439 -0.565728 0)
(-0.11798 -0.579581 0)
(-0.115525 -0.592077 0)
(-0.113085 -0.603251 0)
(-0.110669 -0.613145 0)
(-0.108285 -0.621814 0)
(-0.105941 -0.629317 0)
(-0.103643 -0.635726 0)
(-0.101399 -0.641113 0)
(-0.0992087 -0.645559 0)
(-0.0970773 -0.649177 0)
(-0.144915 -0.383973 0)
(-0.143081 -0.409754 0)
(-0.140994 -0.434563 0)
(-0.138769 -0.458126 0)
(-0.136433 -0.480378 0)
(-0.134007 -0.501274 0)
(-0.13151 -0.520782 0)
(-0.12896 -0.53888 0)
(-0.126373 -0.555559 0)
(-0.123762 -0.57082 0)
(-0.121141 -0.584679 0)
(-0.118523 -0.597158 0)
(-0.115918 -0.608294 0)
(-0.113337 -0.618133 0)
(-0.110787 -0.62673 0)
(-0.108277 -0.634147 0)
(-0.105815 -0.640456 0)
(-0.103408 -0.645731 0)
(-0.101056 -0.650055 0)
(-0.0987651 -0.65354 0)
(-0.14947 -0.387707 0)
(-0.147535 -0.413863 0)
(-0.145332 -0.438988 0)
(-0.142977 -0.462816 0)
(-0.140501 -0.485285 0)
(-0.137928 -0.506354 0)
(-0.135278 -0.525996 0)
(-0.132568 -0.544192 0)
(-0.129816 -0.560938 0)
(-0.127038 -0.576236 0)
(-0.124246 -0.590105 0)
(-0.121454 -0.602571 0)
(-0.118675 -0.613672 0)
(-0.115917 -0.623457 0)
(-0.113191 -0.631981 0)
(-0.110505 -0.639311 0)
(-0.107868 -0.645517 0)
(-0.105288 -0.650677 0)
(-0.102764 -0.654873 0)
(-0.100306 -0.658219 0)
(-0.154088 -0.391649 0)
(-0.152029 -0.418204 0)
(-0.149693 -0.443666 0)
(-0.147197 -0.467778 0)
(-0.144572 -0.490481 0)
(-0.141841 -0.511739 0)
(-0.139027 -0.531527 0)
(-0.136148 -0.549833 0)
(-0.133222 -0.566653 0)
(-0.130264 -0.581996 0)
(-0.127291 -0.595881 0)
(-0.124314 -0.608338 0)
(-0.121347 -0.619407 0)
(-0.118402 -0.629138 0)
(-0.115488 -0.637591 0)
(-0.112614 -0.644831 0)
(-0.109791 -0.650932 0)
(-0.107025 -0.655973 0)
(-0.104319 -0.660036 0)
(-0.101679 -0.663236 0)
(-0.158715 -0.395812 0)
(-0.156539 -0.422792 0)
(-0.15407 -0.448616 0)
(-0.151427 -0.473033 0)
(-0.148645 -0.495987 0)
(-0.145748 -0.517448 0)
(-0.14276 -0.537397 0)
(-0.1397 -0.555824 0)
(-0.136588 -0.572729 0)
(-0.13344 -0.588124 0)
(-0.130272 -0.602032 0)
(-0.127098 -0.614484 0)
(-0.123933 -0.625524 0)
(-0.120787 -0.635203 0)
(-0.117673 -0.643584 0)
(-0.1146 -0.650733 0)
(-0.111577 -0.656726 0)
(-0.108614 -0.661643 0)
(-0.105713 -0.665567 0)
(-0.102882 -0.668615 0)
(-0.16341 -0.400212 0)
(-0.161097 -0.427645 0)
(-0.158478 -0.453856 0)
(-0.155676 -0.478599 0)
(-0.152724 -0.501824 0)
(-0.149649 -0.523506 0)
(-0.146476 -0.54363 0)
(-0.143224 -0.56219 0)
(-0.139913 -0.57919 0)
(-0.136562 -0.594646 0)
(-0.133187 -0.608582 0)
(-0.129803 -0.621035 0)
(-0.126425 -0.632048 0)
(-0.123065 -0.641678 0)
(-0.119736 -0.649987 0)
(-0.116449 -0.657044 0)
(-0.113213 -0.662926 0)
(-0.110039 -0.667715 0)
(-0.106929 -0.671495 0)
(-0.103893 -0.674383 0)
(-0.168126 -0.404865 0)
(-0.165679 -0.432782 0)
(-0.162909 -0.459406 0)
(-0.159941 -0.484499 0)
(-0.15681 -0.508016 0)
(-0.153547 -0.529937 0)
(-0.150175 -0.550251 0)
(-0.146718 -0.568957 0)
(-0.143196 -0.586064 0)
(-0.139627 -0.601589 0)
(-0.136031 -0.615562 0)
(-0.132423 -0.62802 0)
(-0.128818 -0.639011 0)
(-0.12523 -0.648593 0)
(-0.121672 -0.65683 0)
(-0.118156 -0.663793 0)
(-0.114693 -0.669562 0)
(-0.111293 -0.674217 0)
(-0.107961 -0.677846 0)
(-0.104705 -0.680566 0)
(-0.172922 -0.409791 0)
(-0.170317 -0.438223 0)
(-0.167377 -0.465289 0)
(-0.164228 -0.490757 0)
(-0.160906 -0.514587 0)
(-0.157441 -0.536766 0)
(-0.153859 -0.557287 0)
(-0.150182 -0.576154 0)
(-0.146434 -0.593379 0)
(-0.142634 -0.608984 0)
(-0.138801 -0.623001 0)
(-0.134953 -0.63547 0)
(-0.131105 -0.646444 0)
(-0.127273 -0.655979 0)
(-0.123469 -0.664145 0)
(-0.119708 -0.671013 0)
(-0.116001 -0.676664 0)
(-0.11236 -0.681182 0)
(-0.108788 -0.684653 0)
(-0.105297 -0.687197 0)
(-0.177741 -0.415006 0)
(-0.174985 -0.443988 0)
(-0.171875 -0.471525 0)
(-0.168538 -0.497395 0)
(-0.165013 -0.521563 0)
(-0.161333 -0.54402 0)
(-0.157526 -0.564766 0)
(-0.153616 -0.583809 0)
(-0.149626 -0.601166 0)
(-0.145579 -0.616861 0)
(-0.141493 -0.630931 0)
(-0.137388 -0.64342 0)
(-0.133281 -0.654379 0)
(-0.129186 -0.663872 0)
(-0.12512 -0.671966 0)
(-0.121097 -0.678738 0)
(-0.117128 -0.684268 0)
(-0.113228 -0.688642 0)
(-0.109401 -0.691948 0)
(-0.105659 -0.694306 0)
(-0.182649 -0.420525 0)
(-0.179718 -0.450094 0)
(-0.176417 -0.478137 0)
(-0.172876 -0.504438 0)
(-0.169135 -0.528969 0)
(-0.165225 -0.551728 0)
(-0.161178 -0.572719 0)
(-0.157019 -0.591955 0)
(-0.152771 -0.609458 0)
(-0.148459 -0.625257 0)
(-0.144103 -0.639389 0)
(-0.139722 -0.651903 0)
(-0.135335 -0.662855 0)
(-0.13096 -0.672306 0)
(-0.126612 -0.680331 0)
(-0.122307 -0.687004 0)
(-0.118058 -0.69241 0)
(-0.11388 -0.696635 0)
(-0.109777 -0.699767 0)
(-0.105765 -0.70193 0)
(-0.187597 -0.426368 0)
(-0.184494 -0.456565 0)
(-0.180999 -0.485149 0)
(-0.177244 -0.511913 0)
(-0.173273 -0.536835 0)
(-0.16912 -0.559919 0)
(-0.164817 -0.581177 0)
(-0.160391 -0.600626 0)
(-0.155867 -0.618291 0)
(-0.151271 -0.634206 0)
(-0.146625 -0.648412 0)
(-0.14195 -0.66096 0)
(-0.137265 -0.671909 0)
(-0.132588 -0.681324 0)
(-0.127937 -0.689279 0)
(-0.123329 -0.695853 0)
(-0.118779 -0.70113 0)
(-0.114302 -0.705199 0)
(-0.109905 -0.70815 0)
(-0.105603 -0.710106 0)
(-0.192651 -0.432558 0)
(-0.189348 -0.463425 0)
(-0.185637 -0.492587 0)
(-0.181652 -0.519848 0)
(-0.177434 -0.545191 0)
(-0.17302 -0.568628 0)
(-0.168443 -0.590176 0)
(-0.163732 -0.609857 0)
(-0.158913 -0.627702 0)
(-0.154013 -0.643748 0)
(-0.149056 -0.65804 0)
(-0.144064 -0.670632 0)
(-0.139057 -0.681584 0)
(-0.134057 -0.690966 0)
(-0.129081 -0.698853 0)
(-0.124147 -0.705326 0)
(-0.119273 -0.710471 0)
(-0.114474 -0.714378 0)
(-0.109759 -0.717138 0)
(-0.105144 -0.718875 0)
(-0.197754 -0.439116 0)
(-0.194256 -0.470698 0)
(-0.190326 -0.500479 0)
(-0.186098 -0.528272 0)
(-0.181619 -0.554069 0)
(-0.176928 -0.577888 0)
(-0.172059 -0.599752 0)
(-0.167043 -0.619688 0)
(-0.161908 -0.637733 0)
(-0.156683 -0.653926 0)
(-0.151392 -0.668318 0)
(-0.146059 -0.680963 0)
(-0.140708 -0.691928 0)
(-0.135359 -0.701281 0)
(-0.130033 -0.709102 0)
(-0.124748 -0.715473 0)
(-0.119525 -0.720482 0)
(-0.11438 -0.724218 0)
(-0.109323 -0.726777 0)
(-0.104372 -0.728283 0)
(-0.202977 -0.446063 0)
(-0.199256 -0.478408 0)
(-0.195083 -0.508852 0)
(-0.190594 -0.537218 0)
(-0.185836 -0.563504 0)
(-0.180848 -0.587736 0)
(-0.175667 -0.609944 0)
(-0.170324 -0.630161 0)
(-0.164851 -0.648427 0)
(-0.159276 -0.664787 0)
(-0.153627 -0.679293 0)
(-0.147928 -0.692005 0)
(-0.142205 -0.70299 0)
(-0.13648 -0.712321 0)
(-0.130776 -0.720078 0)
(-0.125113 -0.726345 0)
(-0.119512 -0.731213 0)
(-0.113993 -0.734772 0)
(-0.108566 -0.737119 0)
(-0.103252 -0.738378 0)
(-0.208269 -0.453424 0)
(-0.204327 -0.486583 0)
(-0.199906 -0.517737 0)
(-0.195143 -0.546718 0)
(-0.190088 -0.573532 0)
(-0.184784 -0.598213 0)
(-0.17927 -0.620796 0)
(-0.173578 -0.641322 0)
(-0.167742 -0.659833 0)
(-0.161791 -0.67638 0)
(-0.155756 -0.691018 0)
(-0.149664 -0.703811 0)
(-0.14354 -0.714826 0)
(-0.13741 -0.724141 0)
(-0.131297 -0.731837 0)
(-0.125226 -0.738001 0)
(-0.119218 -0.742723 0)
(-0.113294 -0.746097 0)
(-0.107469 -0.748218 0)
(-0.101763 -0.749217 0)
(-0.2137 -0.461226 0)
(-0.209507 -0.495253 0)
(-0.204812 -0.527167 0)
(-0.199754 -0.556808 0)
(-0.194383 -0.584192 0)
(-0.188742 -0.60936 0)
(-0.182871 -0.632354 0)
(-0.176805 -0.653218 0)
(-0.170579 -0.672003 0)
(-0.164225 -0.688761 0)
(-0.157775 -0.703551 0)
(-0.151257 -0.71644 0)
(-0.1447 -0.727499 0)
(-0.138131 -0.736805 0)
(-0.131577 -0.744444 0)
(-0.125063 -0.750503 0)
(-0.118613 -0.755075 0)
(-0.112251 -0.758254 0)
(-0.105992 -0.760139 0)
(-0.0998609 -0.760858 0)
(-0.21921 -0.469491 0)
(-0.214771 -0.504445 0)
(-0.209798 -0.537172 0)
(-0.204432 -0.567524 0)
(-0.198726 -0.595524 0)
(-0.192726 -0.621221 0)
(-0.186474 -0.644665 0)
(-0.180007 -0.665904 0)
(-0.173363 -0.684994 0)
(-0.166574 -0.70199 0)
(-0.159676 -0.716956 0)
(-0.152698 -0.729959 0)
(-0.145673 -0.741075 0)
(-0.138629 -0.750383 0)
(-0.131596 -0.757969 0)
(-0.124601 -0.763923 0)
(-0.117672 -0.76834 0)
(-0.110835 -0.771315 0)
(-0.104107 -0.772948 0)
(-0.0975159 -0.773369 0)
(-0.224876 -0.478242 0)
(-0.220163 -0.514185 0)
(-0.214886 -0.547785 0)
(-0.209189 -0.578903 0)
(-0.203126 -0.607571 0)
(-0.196743 -0.633846 0)
(-0.190083 -0.657783 0)
(-0.183187 -0.679438 0)
(-0.176091 -0.698868 0)
(-0.168834 -0.716134 0)
(-0.161451 -0.731302 0)
(-0.153975 -0.744442 0)
(-0.146441 -0.755631 0)
(-0.138881 -0.764952 0)
(-0.131327 -0.772491 0)
(-0.123809 -0.778341 0)
(-0.116358 -0.782598 0)
(-0.109004 -0.785358 0)
(-0.101765 -0.786722 0)
(-0.0946724 -0.786824 0)
(-0.230648 -0.487504 0)
(-0.225663 -0.524502 0)
(-0.220075 -0.559039 0)
(-0.214033 -0.590985 0)
(-0.207591 -0.620379 0)
(-0.2008 -0.647285 0)
(-0.193704 -0.671766 0)
(-0.186345 -0.693882 0)
(-0.178764 -0.713694 0)
(-0.170999 -0.731267 0)
(-0.16309 -0.746668 0)
(-0.155073 -0.75997 0)
(-0.146986 -0.771253 0)
(-0.138863 -0.7806 0)
(-0.130741 -0.788099 0)
(-0.122653 -0.793846 0)
(-0.114633 -0.797936 0)
(-0.106715 -0.800469 0)
(-0.0989202 -0.801547 0)
(-0.0912833 -0.801305 0)
(-0.236606 -0.497307 0)
(-0.231318 -0.53543 0)
(-0.225391 -0.570973 0)
(-0.218979 -0.603813 0)
(-0.212133 -0.633996 0)
(-0.204905 -0.661596 0)
(-0.197341 -0.686678 0)
(-0.189483 -0.709308 0)
(-0.181376 -0.729551 0)
(-0.173061 -0.747473 0)
(-0.164579 -0.763144 0)
(-0.155972 -0.776639 0)
(-0.147279 -0.788037 0)
(-0.138541 -0.797426 0)
(-0.129796 -0.804894 0)
(-0.121084 -0.810537 0)
(-0.112441 -0.814454 0)
(-0.103906 -0.816746 0)
(-0.0955032 -0.817516 0)
(-0.0872714 -0.816902 0)
(-0.24269 -0.507673 0)
(-0.237105 -0.546997 0)
(-0.230834 -0.583622 0)
(-0.224033 -0.617431 0)
(-0.21676 -0.648478 0)
(-0.209065 -0.67684 0)
(-0.200996 -0.702591 0)
(-0.1926 -0.725797 0)
(-0.183921 -0.746527 0)
(-0.175006 -0.764848 0)
(-0.165898 -0.780831 0)
(-0.156644 -0.794553 0)
(-0.147288 -0.806095 0)
(-0.137873 -0.815543 0)
(-0.128445 -0.822989 0)
(-0.119046 -0.828529 0)
(-0.10972 -0.832265 0)
(-0.100508 -0.834298 0)
(-0.091441 -0.834735 0)
(-0.082561 -0.833716 0)
(-0.248989 -0.51863 0)
(-0.243076 -0.559236 0)
(-0.236431 -0.597026 0)
(-0.229217 -0.631889 0)
(-0.221485 -0.663883 0)
(-0.213287 -0.69309 0)
(-0.204674 -0.719586 0)
(-0.195692 -0.743441 0)
(-0.186389 -0.764723 0)
(-0.176816 -0.783501 0)
(-0.167021 -0.799848 0)
(-0.157053 -0.813839 0)
(-0.146963 -0.825555 0)
(-0.136802 -0.835083 0)
(-0.126618 -0.842517 0)
(-0.116461 -0.847954 0)
(-0.106381 -0.851496 0)
(-0.0964247 -0.85325 0)
(-0.0866271 -0.853322 0)
(-0.0770361 -0.851859 0)
(-0.25545 -0.5302 0)
(-0.249212 -0.572176 0)
(-0.242186 -0.611226 0)
(-0.234537 -0.64724 0)
(-0.226318 -0.680277 0)
(-0.217579 -0.710423 0)
(-0.208374 -0.737756 0)
(-0.198751 -0.762344 0)
(-0.188764 -0.784257 0)
(-0.178465 -0.803562 0)
(-0.167909 -0.820331 0)
(-0.157151 -0.834639 0)
(-0.146248 -0.846565 0)
(-0.135256 -0.856198 0)
(-0.124233 -0.863631 0)
(-0.113236 -0.868961 0)
(-0.102321 -0.872296 0)
(-0.0915415 -0.873741 0)
(-0.0809405 -0.87341 0)
(-0.0705715 -0.871452 0)
(-0.262165 -0.54241 0)
(-0.255572 -0.585853 0)
(-0.248133 -0.626268 0)
(-0.240018 -0.663544 0)
(-0.231272 -0.697738 0)
(-0.221945 -0.728934 0)
(-0.212093 -0.75721 0)
(-0.201766 -0.782632 0)
(-0.191022 -0.805268 0)
(-0.179917 -0.825182 0)
(-0.168514 -0.842443 0)
(-0.156874 -0.857124 0)
(-0.145062 -0.869303 0)
(-0.133142 -0.879067 0)
(-0.12118 -0.886509 0)
(-0.109243 -0.891728 0)
(-0.0973973 -0.894832 0)
(-0.0857041 -0.895934 0)
(-0.0742135 -0.895148 0)
(-0.0629868 -0.892634 0)
(-0.269075 -0.555278 0)
(-0.262134 -0.600295 0)
(-0.254275 -0.642199 0)
(-0.245667 -0.680867 0)
(-0.236354 -0.716352 0)
(-0.226386 -0.748731 0)
(-0.215821 -0.778077 0)
(-0.204713 -0.804452 0)
(-0.193125 -0.827919 0)
(-0.181121 -0.848537 0)
(-0.168769 -0.866373 0)
(-0.156139 -0.881494 0)
(-0.143305 -0.893975 0)
(-0.13034 -0.903901 0)
(-0.117324 -0.911362 0)
(-0.104333 -0.91646 0)
(-0.0914432 -0.919305 0)
(-0.0787298 -0.920013 0)
(-0.066252 -0.918707 0)
(-0.0540806 -0.915556 0)
(-0.276286 -0.568817 0)
(-0.268966 -0.615533 0)
(-0.26065 -0.659071 0)
(-0.251505 -0.69929 0)
(-0.241569 -0.736226 0)
(-0.230892 -0.769944 0)
(-0.219532 -0.800511 0)
(-0.20755 -0.827979 0)
(-0.195016 -0.852405 0)
(-0.181998 -0.873842 0)
(-0.168576 -0.892349 0)
(-0.154828 -0.907988 0)
(-0.140839 -0.920828 0)
(-0.126695 -0.93095 0)
(-0.112488 -0.938441 0)
(-0.0983058 -0.943403 0)
(-0.0842424 -0.945948 0)
(-0.0703843 -0.946198 0)
(-0.0568037 -0.944285 0)
(-0.0435834 -0.940393 0)
(-0.283743 -0.583042 0)
(-0.276043 -0.631608 0)
(-0.267249 -0.676957 0)
(-0.257523 -0.718915 0)
(-0.246895 -0.757493 0)
(-0.23542 -0.792739 0)
(-0.223163 -0.824704 0)
(-0.210191 -0.853429 0)
(-0.196583 -0.878963 0)
(-0.182418 -0.901351 0)
(-0.167784 -0.920641 0)
(-0.15277 -0.936887 0)
(-0.137477 -0.950152 0)
(-0.122 -0.960507 0)
(-0.106449 -0.968038 0)
(-0.0909259 -0.972843 0)
(-0.0755414 -0.975036 0)
(-0.0603992 -0.974745 0)
(-0.0455873 -0.972112 0)
(-0.0312045 -0.967344 0)
(-0.291549 -0.597976 0)
(-0.283422 -0.648576 0)
(-0.274078 -0.695961 0)
(-0.263684 -0.739891 0)
(-0.252261 -0.780341 0)
(-0.239866 -0.817336 0)
(-0.226576 -0.850906 0)
(-0.212467 -0.881077 0)
(-0.197629 -0.907887 0)
(-0.182153 -0.931371 0)
(-0.166143 -0.951569 0)
(-0.149699 -0.968519 0)
(-0.132935 -0.982277 0)
(-0.115964 -0.992905 0)
(-0.0989078 -1.00048 0)
(-0.0818868 -1.0051 0)
(-0.0650291 -1.00688 0)
(-0.048456 -1.00595 0)
(-0.0322733 -1.00246 0)
(-0.0165999 -0.996645 0)
(-0.299617 -0.613671 0)
(-0.291027 -0.666545 0)
(-0.28106 -0.716242 0)
(-0.269874 -0.762439 0)
(-0.257503 -0.805043 0)
(-0.244014 -0.844043 0)
(-0.229504 -0.879446 0)
(-0.214066 -0.911267 0)
(-0.197805 -0.939534 0)
(-0.180828 -0.96427 0)
(-0.163257 -0.985497 0)
(-0.14521 -1.00324 0)
(-0.126814 -1.01756 0)
(-0.108193 -1.02849 0)
(-0.0894871 -1.03611 0)
(-0.0708292 -1.04051 0)
(-0.052363 -1.0418 0)
(-0.0342274 -1.04011 0)
(-0.0165454 -1.03561 0)
(0.000542575 -1.02856 0)
(-0.307998 -0.630228 0)
(-0.298823 -0.685709 0)
(-0.288068 -0.738085 0)
(-0.275894 -0.786905 0)
(-0.262347 -0.83199 0)
(-0.247522 -0.873287 0)
(-0.231538 -0.910777 0)
(-0.214519 -0.944461 0)
(-0.196596 -0.974353 0)
(-0.177903 -1.00046 0)
(-0.158582 -1.0228 0)
(-0.138768 -1.0414 0)
(-0.118596 -1.05631 0)
(-0.0982052 -1.06755 0)
(-0.077744 -1.0752 0)
(-0.057356 -1.07933 0)
(-0.0371937 -1.08005 0)
(-0.0174058 -1.07749 0)
(0.0018757 -1.07183 0)
(0.0204902 -1.06336 0)
(-0.316511 -0.647866 0)
(-0.30659 -0.706409 0)
(-0.294818 -0.76193 0)
(-0.281379 -0.8138 0)
(-0.266352 -0.861743 0)
(-0.24988 -0.905646 0)
(-0.232125 -0.945463 0)
(-0.213248 -0.981185 0)
(-0.193416 -1.01281 0)
(-0.172794 -1.04035 0)
(-0.151544 -1.06384 0)
(-0.12982 -1.08328 0)
(-0.107779 -1.09874 0)
(-0.0855574 -1.11025 0)
(-0.0633024 -1.11786 0)
(-0.041161 -1.12166 0)
(-0.0192829 -1.12175 0)
(0.00218394 -1.11823 0)
(0.0231109 -1.11129 0)
(0.0433276 -1.10127 0)
(-0.325059 -0.666975 0)
(-0.314098 -0.729183 0)
(-0.30095 -0.788415 0)
(-0.285866 -0.843816 0)
(-0.26899 -0.894987 0)
(-0.250526 -0.941769 0)
(-0.23069 -0.984098 0)
(-0.209696 -1.02195 0)
(-0.18775 -1.05534 0)
(-0.165043 -1.08428 0)