/*--------------------------------*- C++ -*----------------------------------*\
  =========                 |
  \\      /  F ield         | OpenFOAM: The Open Source CFD Toolbox
   \\    /   O peration     | Website:  https://openfoam.org
    \\  /    A nd           | Version:  6
     \\/     M anipulation  |
\*---------------------------------------------------------------------------*/
FoamFile
{
    version     2.0;
    format      ascii;
    class       volVectorField;
    location    "29";
    object      U;
}
// * * * * * * * * * * * * * * * * * * * * * * * * * * * * * * * * * * * * * //

dimensions      [0 1 -1 0 0 0 0];

internalField   nonuniform List<vector> 
10000
(
(0.000423901 -3.0631 0)
(-0.000144499 -4.107 0)
(-0.000596589 -4.6323 0)
(-0.000689616 -5.00062 0)
(-0.000493296 -5.26099 0)
(-0.000372411 -5.43891 0)
(-0.000395491 -5.55491 0)
(-0.000497776 -5.62653 0)
(-0.000607166 -5.66684 0)
(-0.000677485 -5.68406 0)
(-0.000693454 -5.682 0)
(-0.000639477 -5.66081 0)
(-0.000515725 -5.61696 0)
(-0.000322143 -5.54266 0)
(-5.90274e-05 -5.42554 0)
(0.000220744 -5.2489 0)
(0.000383834 -4.99197 0)
(0.000187184 -4.62811 0)
(-0.000181053 -4.10664 0)
(-0.000612502 -3.06463 0)
(0.000439342 -3.06396 0)
(0.000415004 -4.10747 0)
(0.000269699 -4.63254 0)
(9.8148e-05 -5.00077 0)
(2.77039e-05 -5.26106 0)
(-6.1945e-05 -5.43882 0)
(-0.000216174 -5.55468 0)
(-0.00040042 -5.62626 0)
(-0.000597983 -5.6666 0)
(-0.000772466 -5.68392 0)
(-0.000916895 -5.682 0)
(-0.00100834 -5.66098 0)
(-0.00105214 -5.61736 0)
(-0.00103908 -5.54325 0)
(-0.000947758 -5.4263 0)
(-0.00081552 -5.24975 0)
(-0.000658665 -4.99275 0)
(-0.000541069 -4.62876 0)
(-0.000410133 -4.10726 0)
(-8.65261e-05 -3.06654 0)
(0.000102857 -3.0649 0)
(0.000300275 -4.10797 0)
(0.00044597 -4.63306 0)
(0.000366273 -5.00107 0)
(0.000279399 -5.26106 0)
(0.000135428 -5.43858 0)
(-5.78851e-05 -5.55433 0)
(-0.000288972 -5.62589 0)
(-0.000539211 -5.66621 0)
(-0.000778473 -5.68354 0)
(-0.000984834 -5.68169 0)
(-0.00114311 -5.66076 0)
(-0.00125936 -5.61721 0)
(-0.00129117 -5.54322 0)
(-0.00124444 -5.42653 0)
(-0.00107256 -5.25018 0)
(-0.000833735 -4.99317 0)
(-0.000572774 -4.62911 0)
(-0.000304655 -4.10738 0)
(0.000124854 -3.06702 0)
(-9.6068e-05 -3.06536 0)
(0.000325771 -4.10807 0)
(0.000657424 -4.63312 0)
(0.000736848 -5.00084 0)
(0.000614457 -5.26071 0)
(0.000395083 -5.43816 0)
(0.000148804 -5.55384 0)
(-0.00015613 -5.62535 0)
(-0.000465445 -5.66567 0)
(-0.000779711 -5.68302 0)
(-0.00105718 -5.68124 0)
(-0.00128766 -5.66045 0)
(-0.00145659 -5.61704 0)
(-0.00154859 -5.5432 0)
(-0.00155889 -5.42677 0)
(-0.00139504 -5.25065 0)
(-0.00118997 -4.99382 0)
(-0.000775503 -4.62972 0)
(-0.000346608 -4.10794 0)
(9.99212e-05 -3.06763 0)
(-2.327e-05 -3.06533 0)
(0.000314967 -4.10817 0)
(0.000620513 -4.63306 0)
(0.000842785 -5.00059 0)
(0.000781817 -5.26022 0)
(0.000565398 -5.43744 0)
(0.000295541 -5.55306 0)
(-5.05162e-05 -5.62453 0)
(-0.000413968 -5.66489 0)
(-0.000782316 -5.6823 0)
(-0.00111345 -5.68062 0)
(-0.00140225 -5.65996 0)
(-0.00162314 -5.61666 0)
(-0.00175104 -5.54304 0)
(-0.00179332 -5.42682 0)
(-0.00164057 -5.25098 0)
(-0.00132734 -4.99434 0)
(-0.000807318 -4.63013 0)
(-0.000342379 -4.10832 0)
(7.2974e-06 -3.06784 0)
(0.000330398 -3.06562 0)
(0.000484062 -4.10908 0)
(0.000713159 -4.63349 0)
(0.00088748 -5.0005 0)
(0.00085507 -5.25989 0)
(0.000635984 -5.43699 0)
(0.000343709 -5.55243 0)
(-1.40583e-05 -5.62375 0)
(-0.00041145 -5.66406 0)
(-0.000809103 -5.68153 0)
(-0.001181 -5.67994 0)
(-0.00149972 -5.65935 0)
(-0.00175961 -5.61622 0)
(-0.00189843 -5.54288 0)
(-0.00191163 -5.42696 0)
(-0.00174783 -5.25127 0)
(-0.0013485 -4.99489 0)
(-0.000866033 -4.63094 0)
(-0.000430642 -4.10911 0)
(-0.000277714 -3.06786 0)
(0.00048103 -3.06656 0)
(0.00056978 -4.11011 0)
(0.000814106 -4.63433 0)
(0.000991212 -5.00099 0)
(0.000942302 -5.25992 0)
(0.000771366 -5.43667 0)
(0.000431042 -5.55182 0)
(5.06036e-05 -5.62296 0)
(-0.000379281 -5.66323 0)
(-0.000800061 -5.68076 0)
(-0.00119186 -5.67925 0)
(-0.00153544 -5.65875 0)
(-0.00181354 -5.61577 0)
(-0.00197225 -5.54266 0)
(-0.0019693 -5.4271 0)
(-0.00177402 -5.25176 0)
(-0.00137688 -4.99566 0)
(-0.000899522 -4.63185 0)
(-0.000474372 -4.11001 0)
(-0.000409068 -3.06809 0)
(0.00035816 -3.06769 0)
(0.000578041 -4.11087 0)
(0.000881267 -4.63492 0)
(0.00115414 -5.00138 0)
(0.00114579 -5.25982 0)
(0.000998511 -5.43626 0)
(0.000616802 -5.55116 0)
(0.000178721 -5.62214 0)
(-0.000296235 -5.66237 0)
(-0.000743784 -5.67994 0)
(-0.00116707 -5.67851 0)
(-0.00152461 -5.65814 0)
(-0.00181408 -5.61535 0)
(-0.0019855 -5.54252 0)
(-0.00198559 -5.42736 0)
(-0.00177122 -5.25246 0)
(-0.00138292 -4.99671 0)
(-0.000944578 -4.63309 0)
(-0.000532997 -4.11123 0)
(-0.000419666 -3.06894 0)
(0.00026739 -3.06844 0)
(0.00056021 -4.11144 0)
(0.00100209 -4.63535 0)
(0.00134326 -5.00156 0)
(0.0013967 -5.25961 0)
(0.00122802 -5.43564 0)
(0.00081496 -5.55031 0)
(0.000312327 -5.62117 0)
(-0.000205913 -5.66137 0)
(-0.000704724 -5.67902 0)
(-0.00116556 -5.67769 0)
(-0.00156868 -5.65746 0)
(-0.00189025 -5.61492 0)
(-0.00209797 -5.5424 0)
(-0.00212819 -5.42764 0)
(-0.00194424 -5.25324 0)
(-0.00155738 -4.99796 0)
(-0.00109141 -4.63452 0)
(-0.000481267 -4.11239 0)
(-0.000286444 -3.07003 0)
(0.000362349 -3.06902 0)
(0.000598038 -4.11215 0)
(0.0010991 -4.63599 0)
(0.00145878 -5.00196 0)
(0.00158912 -5.25941 0)
(0.00141197 -5.43494 0)
(0.000985715 -5.54937 0)
(0.000443636 -5.62011 0)
(-0.000119007 -5.66032 0)
(-0.000666557 -5.678 0)
(-0.00117718 -5.67677 0)
(-0.00164524 -5.65665 0)
(-0.00202356 -5.61428 0)
(-0.0022958 -5.54207 0)
(-0.00237941 -5.4277 0)
(-0.0022079 -5.25378 0)
(-0.00180686 -4.99896 0)
(-0.00115854 -4.63559 0)
(-0.000358659 -4.11298 0)
(1.34907e-05 -3.07061 0)
(0.000456746 -3.06961 0)
(0.000640685 -4.11325 0)
(0.00121872 -4.63692 0)
(0.0016083 -5.00243 0)
(0.00177544 -5.25938 0)
(0.00159386 -5.43435 0)
(0.00116611 -5.54837 0)
(0.000597246 -5.61897 0)
(-1.06877e-05 -5.65917 0)
(-0.000602958 -5.6769 0)
(-0.00116532 -5.67573 0)
(-0.00168336 -5.65573 0)
(-0.00211573 -5.61352 0)
(-0.00242234 -5.54163 0)
(-0.00252581 -5.42769 0)
(-0.00235383 -5.25431 0)
(-0.00189999 -4.99995 0)
(-0.00113735 -4.63659 0)
(-0.000416991 -4.11374 0)
(-9.48473e-06 -3.0708 0)
(0.000426111 -3.07032 0)
(0.000690054 -4.11451 0)
(0.0013407 -4.63802 0)
(0.00172682 -5.00311 0)
(0.00192145 -5.25941 0)
(0.00175311 -5.43375 0)
(0.00133534 -5.5474 0)
(0.000750306 -5.61787 0)
(0.000112486 -5.65799 0)
(-0.000531453 -5.67571 0)
(-0.00115155 -5.67459 0)
(-0.00171548 -5.65473 0)
(-0.00218626 -5.61276 0)
(-0.00252494 -5.54123 0)
(-0.00261334 -5.42782 0)
(-0.00243456 -5.25508 0)
(-0.00193419 -5.00113 0)
(-0.00118371 -4.63801 0)
(-0.000489555 -4.11517 0)
(-0.000278446 -3.07104 0)
(0.000307752 -3.07105 0)
(0.000642273 -4.11572 0)
(0.00141766 -4.63928 0)
(0.00187537 -5.00383 0)
(0.00210523 -5.2594 0)
(0.00197166 -5.43312 0)
(0.00154429 -5.54637 0)
(0.000929328 -5.61662 0)
(0.000243108 -5.65668 0)
(-0.000464201 -5.67439 0)
(-0.00114048 -5.67332 0)
(-0.00176145 -5.65362 0)
(-0.00227802 -5.61198 0)
(-0.00264378 -5.54084 0)
(-0.00274583 -5.42789 0)
(-0.00255666 -5.2558 0)
(-0.0020369 -5.0024 0)
(-0.00129367 -4.63954 0)
(-0.000491669 -4.11663 0)
(-0.000335335 -3.07158 0)
(0.000199934 -3.07169 0)
(0.000669661 -4.11685 0)
(0.00150234 -4.64027 0)
(0.00206987 -5.00439 0)
(0.00232983 -5.2593 0)
(0.00220034 -5.43243 0)
(0.00175805 -5.54523 0)
(0.00111216 -5.6152 0)
(0.00036914 -5.65517 0)
(-0.000395126 -5.67291 0)
(-0.0011333 -5.67195 0)
(-0.00180365 -5.65241 0)
(-0.00236122 -5.61102 0)
(-0.00275706 -5.54028 0)
(-0.00287648 -5.42791 0)
(-0.00268399 -5.25654 0)
(-0.00214012 -5.00372 0)
(-0.00138472 -4.64106 0)
(-0.000561092 -4.11793 0)
(-0.000317687 -3.07209 0)
(0.000355853 -3.07253 0)
(0.000910237 -4.11844 0)
(0.00163039 -4.64166 0)
(0.0021834 -5.00509 0)
(0.00243614 -5.25932 0)
(0.00231423 -5.43182 0)
(0.00189742 -5.54409 0)
(0.00124517 -5.61375 0)
(0.000478274 -5.6536 0)
(-0.000331071 -5.67132 0)
(-0.00111864 -5.67043 0)
(-0.00184401 -5.65105 0)
(-0.00245088 -5.60997 0)
(-0.00287906 -5.53965 0)
(-0.00305491 -5.42776 0)
(-0.00286285 -5.25706 0)
(-0.0023166 -5.00493 0)
(-0.00151401 -4.64258 0)
(-0.000607633 -4.11927 0)
(-0.000294047 -3.07242 0)
(0.0004497 -3.07359 0)
(0.000923468 -4.12012 0)
(0.00182458 -4.64315 0)
(0.00246953 -5.00607 0)
(0.00267571 -5.25951 0)
(0.00254082 -5.43121 0)
(0.00209036 -5.54292 0)
(0.00140381 -5.61225 0)
(0.000609573 -5.65194 0)
(-0.000237017 -5.66966 0)
(-0.00107198 -5.66886 0)
(-0.00184168 -5.64968 0)
(-0.00248909 -5.60887 0)
(-0.00293658 -5.53895 0)
(-0.00315025 -5.4276 0)
(-0.0029778 -5.25756 0)
(-0.00243904 -5.00617 0)
(-0.00160972 -4.64404 0)
(-0.000685195 -4.12056 0)
(-0.000276746 -3.07275 0)
(0.00043149 -3.07484 0)
(0.000975396 -4.12178 0)
(0.00193327 -4.64473 0)
(0.00266574 -5.00717 0)
(0.002932 -5.25972 0)
(0.00278354 -5.43053 0)
(0.00228957 -5.54173 0)
(0.00157999 -5.61075 0)
(0.0007325 -5.65025 0)
(-0.000157595 -5.66793 0)
(-0.00104031 -5.66723 0)
(-0.00184867 -5.64829 0)
(-0.00251321 -5.60778 0)
(-0.00297069 -5.53832 0)
(-0.00316827 -5.42766 0)
(-0.00299263 -5.25842 0)
(-0.00243947 -5.00779 0)
(-0.00169431 -4.6461 0)
(-0.000899946 -4.12265 0)
(-0.000427974 -3.07387 0)
(0.000483545 -3.07638 0)
(0.00106671 -4.12379 0)
(0.00210906 -4.64653 0)
(0.00290578 -5.00836 0)
(0.00322907 -5.26005 0)
(0.00306678 -5.42998 0)
(0.00253941 -5.5405 0)
(0.00177596 -5.60919 0)
(0.00086337 -5.64846 0)
(-9.97146e-05 -5.66606 0)
(-0.00105687 -5.6655 0)
(-0.00193198 -5.64677 0)
(-0.00266411 -5.60661 0)
(-0.00318843 -5.53769 0)
(-0.00342549 -5.42773 0)
(-0.00327308 -5.2593 0)
(-0.00276061 -5.0095 0)
(-0.0019544 -4.64832 0)
(-0.000879425 -4.12471 0)
(-0.000356831 -3.0754 0)
(0.000497198 -3.07781 0)
(0.00114068 -4.12571 0)
(0.00230272 -4.64833 0)
(0.00318899 -5.00952 0)
(0.00358189 -5.26035 0)
(0.00341617 -5.42935 0)
(0.0028542 -5.53916 0)
(0.00202033 -5.60742 0)
(0.00103781 -5.64649 0)
(-9.11749e-06 -5.66403 0)
(-0.00104132 -5.66355 0)
(-0.00199852 -5.64507 0)
(-0.0028307 -5.60526 0)
(-0.00343608 -5.5368 0)
(-0.00374625 -5.42751 0)
(-0.00363816 -5.25992 0)
(-0.00309397 -5.01086 0)
(-0.00209033 -4.64991 0)
(-0.000808533 -4.12602 0)
(-0.000105131 -3.07646 0)
(0.000536089 -3.07885 0)
(0.00119789 -4.12767 0)
(0.00245778 -4.65014 0)
(0.00343901 -5.01061 0)
(0.00390682 -5.26053 0)
(0.00376537 -5.42863 0)
(0.00317939 -5.5377 0)
(0.00229247 -5.60551 0)
(0.00123623 -5.64435 0)
(0.000113688 -5.6618 0)
(-0.000999644 -5.66142 0)
(-0.00203147 -5.64318 0)
(-0.00292531 -5.60373 0)
(-0.00359238 -5.53581 0)
(-0.00391877 -5.42731 0)
(-0.00382666 -5.26053 0)
(-0.00321263 -5.01217 0)
(-0.00214758 -4.65163 0)
(-0.000932271 -4.12775 0)
(-0.000257913 -3.07714 0)
(0.0006618 -3.07994 0)
(0.00131416 -4.13005 0)
(0.00257529 -4.65218 0)
(0.00360186 -5.01189 0)
(0.00412055 -5.2608 0)
(0.00404355 -5.42789 0)
(0.00345658 -5.53614 0)
(0.0025273 -5.60344 0)
(0.00141163 -5.64206 0)
(0.000210301 -5.65945 0)
(-0.000979165 -5.65914 0)
(-0.00208481 -5.64115 0)
(-0.0030352 -5.60213 0)
(-0.00373091 -5.53478 0)
(-0.00407042 -5.42709 0)
(-0.00395276 -5.26132 0)
(-0.00330656 -5.01382 0)
(-0.00226033 -4.65386 0)
(-0.00107343 -4.13019 0)
(-0.000578427 -3.07807 0)
(0.000755853 -3.08137 0)
(0.00145626 -4.13277 0)
(0.00275029 -4.65451 0)
(0.00378579 -5.01337 0)
(0.00432762 -5.26111 0)
(0.0042935 -5.42715 0)
(0.00368701 -5.5346 0)
(0.00272941 -5.60132 0)
(0.00155492 -5.63962 0)
(0.000287673 -5.65692 0)
(-0.000985252 -5.65668 0)
(-0.0021636 -5.63896 0)
(-0.00317343 -5.60037 0)
(-0.0039143 -5.53363 0)
(-0.00430094 -5.42678 0)
(-0.0041949 -5.26198 0)
(-0.00355378 -5.01539 0)
(-0.0024616 -4.65608 0)
(-0.00115412 -4.13265 0)
(-0.000594472 -3.07915 0)
(0.000719143 -3.08302 0)
(0.00156623 -4.13546 0)
(0.00297049 -4.65694 0)
(0.00403367 -5.01498 0)
(0.00458174 -5.26152 0)
(0.00452539 -5.42644 0)
(0.00390421 -5.53301 0)
(0.00291767 -5.59913 0)
(0.00169661 -5.63709 0)
(0.000372953 -5.6543 0)
(-0.000960116 -5.65415 0)
(-0.00220665 -5.63667 0)
(-0.00325922 -5.59849 0)
(-0.00405854 -5.53237 0)
(-0.00446066 -5.42636 0)
(-0.00440874 -5.26256 0)
(-0.00378609 -5.01687 0)
(-0.00267539 -4.65823 0)
(-0.00131391 -4.13505 0)
(-0.000516208 -3.08016 0)
(0.000663752 -3.0849 0)
(0.0016555 -4.13831 0)
(0.00311351 -4.65959 0)
(0.00421446 -5.0168 0)
(0.00478677 -5.26209 0)
(0.00473811 -5.42576 0)
(0.00413393 -5.53139 0)
(0.00312103 -5.5969 0)
(0.00186381 -5.63451 0)
(0.000482854 -5.65158 0)
(-0.000911303 -5.65151 0)
(-0.0022163 -5.63429 0)
(-0.00331347 -5.5966 0)
(-0.00415094 -5.53115 0)
(-0.0045576 -5.42595 0)
(-0.00451708 -5.26325 0)
(-0.00389311 -5.01859 0)
(-0.00281827 -4.66073 0)
(-0.00150908 -4.13782 0)
(-0.000614059 -3.08168 0)
(0.000552617 -3.087 0)
(0.00161551 -4.14124 0)
(0.0032604 -4.66238 0)
(0.00449221 -5.01874 0)
(0.00509139 -5.26274 0)
(0.00503065 -5.42508 0)
(0.00440632 -5.52969 0)
(0.00336347 -5.59454 0)
(0.00204735 -5.6318 0)
(0.000602319 -5.64875 0)
(-0.000861647 -5.64875 0)
(-0.00223739 -5.6318 0)
(-0.00341118 -5.5946 0)
(-0.00428964 -5.52986 0)
(-0.00477476 -5.4256 0)
(-0.00474327 -5.26402 0)
(-0.0041192 -5.02049 0)
(-0.00300028 -4.66349 0)
(-0.00159166 -4.14083 0)
(-0.000620764 -3.08374 0)
(0.00047385 -3.08905 0)
(0.00168128 -4.14411 0)
(0.00341607 -4.66512 0)
(0.00478072 -5.02062 0)
(0.00542473 -5.26333 0)
(0.00536139 -5.42436 0)
(0.00470661 -5.52791 0)
(0.00361093 -5.59208 0)
(0.00222512 -5.62894 0)
(0.000707574 -5.64572 0)
(-0.0008394 -5.64579 0)
(-0.00230037 -5.62915 0)
(-0.00356581 -5.59248 0)
(-0.00452051 -5.52851 0)
(-0.00506367 -5.42521 0)
(-0.00504847 -5.26474 0)
(-0.00441635 -5.0224 0)
(-0.00321954 -4.66627 0)
(-0.0016479 -4.14372 0)
(-0.000512487 -3.08607 0)
(0.000558906 -3.09099 0)
(0.00177472 -4.14704 0)
(0.00352211 -4.66791 0)
(0.00496375 -5.02255 0)
(0.00568395 -5.2639 0)
(0.0056572 -5.4236 0)
(0.00498404 -5.5261 0)
(0.00383494 -5.58951 0)
(0.00238736 -5.62592 0)
(0.000783659 -5.64254 0)
(-0.00084455 -5.64267 0)
(-0.00239891 -5.6263 0)
(-0.00376366 -5.59015 0)
(-0.00480045 -5.52695 0)
(-0.00539923 -5.42467 0)
(-0.00538856 -5.26538 0)
(-0.0047203 -5.02429 0)
(-0.00341085 -4.66903 0)
(-0.00168704 -4.14654 0)
(-0.000459591 -3.08818 0)
(0.000757614 -3.09312 0)
(0.00190093 -4.15037 0)
(0.00359945 -4.67096 0)
(0.00505348 -5.02463 0)
(0.00583629 -5.26462 0)
(0.00584439 -5.42295 0)
(0.00518515 -5.52427 0)
(0.00401176 -5.58681 0)
(0.00251309 -5.62275 0)
(0.000833676 -5.63919 0)
(-0.000879042 -5.63934 0)
(-0.00250859 -5.62323 0)
(-0.00395699 -5.5876 0)
(-0.00506609 -5.52527 0)
(-0.00570385 -5.42407 0)
(-0.0056887 -5.26596 0)
(-0.00496013 -5.02612 0)
(-0.00353518 -4.67171 0)
(-0.00175244 -4.14944 0)
(-0.000523905 -3.08997 0)
(0.000844821 -3.09549 0)
(0.00196095 -4.15394 0)
(0.00375883 -4.67428 0)
(0.00523923 -5.02692 0)
(0.00604209 -5.26545 0)
(0.00606706 -5.42234 0)
(0.00539217 -5.52246 0)
(0.00419285 -5.58409 0)
(0.00264729 -5.61947 0)
(0.000902699 -5.63569 0)
(-0.000886948 -5.63588 0)
(-0.00259642 -5.62004 0)
(-0.00409888 -5.58497 0)
(-0.00525527 -5.52346 0)
(-0.0058891 -5.42335 0)
(-0.00585877 -5.26656 0)
(-0.00506703 -5.02806 0)
(-0.00362621 -4.67463 0)
(-0.00189996 -4.15271 0)
(-0.000764787 -3.09172 0)
(0.000812751 -3.09792 0)
(0.0020573 -4.15751 0)
(0.00391717 -4.67765 0)
(0.0054328 -5.02929 0)
(0.00626455 -5.26635 0)
(0.0063177 -5.42179 0)
(0.00562703 -5.52064 0)
(0.0044104 -5.58129 0)
(0.00281714 -5.61609 0)
(0.0010179 -5.63205 0)
(-0.000840937 -5.63226 0)
(-0.00262443 -5.61671 0)
(-0.0041804 -5.5822 0)
(-0.00538029 -5.52159 0)
(-0.00603006 -5.42265 0)
(-0.0059849 -5.26725 0)
(-0.00518949 -5.03015 0)
(-0.00377568 -4.67778 0)
(-0.00202144 -4.15625 0)
(-0.000922558 -3.09369 0)
(0.000735001 -3.10007 0)
(0.00203933 -4.16094 0)
(0.00403422 -4.68091 0)
(0.00564134 -5.03153 0)
(0.00651971 -5.26709 0)
(0.00659299 -5.42107 0)
(0.00589745 -5.51864 0)
(0.00464255 -5.57836 0)
(0.00298785 -5.61259 0)
(0.00112143 -5.62828 0)
(-0.000803331 -5.62851 0)
(-0.0026487 -5.61326 0)
(-0.00426014 -5.57942 0)
(-0.00548154 -5.5198 0)
(-0.00615042 -5.42209 0)
(-0.00609989 -5.26809 0)
(-0.00531825 -5.03248 0)
(-0.00393866 -4.68124 0)
(-0.00217133 -4.16007 0)
(-0.000937147 -3.09626 0)
(0.000723146 -3.10211 0)
(0.0020785 -4.16439 0)
(0.0041164 -4.68408 0)
(0.00578479 -5.03366 0)
(0.00668657 -5.26773 0)
(0.00674473 -5.42024 0)
(0.00603681 -5.51655 0)
(0.0047512 -5.57532 0)
(0.00305142 -5.60896 0)
(0.00113081 -5.62438 0)
(-0.000851702 -5.62465 0)
(-0.00274869 -5.60976 0)
(-0.00441906 -5.57654 0)
(-0.0056819 -5.5179 0)
(-0.00638332 -5.42153 0)
(-0.00636286 -5.26907 0)
(-0.00559018 -5.03497 0)
(-0.00414789 -4.68482 0)
(-0.00221188 -4.16394 0)
(-0.000832918 -3.09922 0)
(0.000979999 -3.10489 0)
(0.0023819 -4.1687 0)
(0.00427177 -4.68797 0)
(0.00582283 -5.03637 0)
(0.00670137 -5.26881 0)
(0.00675541 -5.41968 0)
(0.00606072 -5.5146 0)
(0.00477329 -5.57235 0)
(0.00306276 -5.60532 0)
(0.00111533 -5.62043 0)
(-0.000912663 -5.62071 0)
(-0.00286759 -5.6061 0)
(-0.00460292 -5.57348 0)
(-0.00594334 -5.51581 0)
(-0.00669889 -5.4208 0)
(-0.00671425 -5.26984 0)
(-0.00590969 -5.03719 0)
(-0.00430422 -4.68805 0)
(-0.00218231 -4.16736 0)
(-0.000642071 -3.10201 0)
(0.000955884 -3.10821 0)
(0.00237961 -4.17306 0)
(0.00452642 -4.69211 0)
(0.00611554 -5.03931 0)
(0.00697404 -5.27007 0)
(0.00700106 -5.4192 0)
(0.00626288 -5.51268 0)
(0.00491853 -5.56936 0)
(0.00316958 -5.60163 0)
(0.00117947 -5.6164 0)
(-0.000898476 -5.61666 0)
(-0.00291199 -5.60232 0)
(-0.00470393 -5.57031 0)
(-0.006107 -5.51361 0)
(-0.00689988 -5.41993 0)
(-0.00692422 -5.27059 0)
(-0.00606978 -5.03946 0)
(-0.00438645 -4.69139 0)
(-0.00230984 -4.17106 0)
(-0.000722942 -3.1046 0)
(0.000659637 -3.11106 0)
(0.00232232 -4.1767 0)
(0.0046607 -4.69563 0)
(0.0064512 -5.04178 0)
(0.00736923 -5.27093 0)
(0.00737111 -5.4184 0)
(0.0065656 -5.51048 0)
(0.00514021 -5.56614 0)
(0.0033187 -5.59778 0)
(0.0012645 -5.61224 0)
(-0.000868511 -5.61248 0)
(-0.00293973 -5.59842 0)
(-0.00479095 -5.56703 0)
(-0.00623503 -5.51136 0)
(-0.00707172 -5.41913 0)
(-0.00709813 -5.27151 0)
(-0.00621859 -5.04204 0)
(-0.00452681 -4.6952 0)
(-0.00241765 -4.17534 0)
(-0.000942235 -3.10731 0)
(0.000733116 -3.11348 0)
(0.00248759 -4.18061 0)
(0.00475886 -4.69916 0)
(0.00662019 -5.04415 0)
(0.00759182 -5.27169 0)
(0.00759553 -5.41746 0)
(0.00675616 -5.50813 0)
(0.00528715 -5.56277 0)
(0.00340835 -5.59377 0)
(0.00129962 -5.60793 0)
(-0.000889148 -5.60816 0)
(-0.00301469 -5.59439 0)
(-0.00492063 -5.56362 0)
(-0.00641741 -5.50899 0)
(-0.00729618 -5.41825 0)
(-0.00733502 -5.27238 0)
(-0.00644024 -5.0446 0)
(-0.00470137 -4.699 0)
(-0.00244959 -4.17953 0)
(-0.000940917 -3.11008 0)
(0.00101095 -3.11616 0)
(0.00265034 -4.18514 0)
(0.00487498 -4.70314 0)
(0.00669703 -5.04683 0)
(0.00768399 -5.27262 0)
(0.00770793 -5.41659 0)
(0.00686275 -5.50575 0)
(0.00537466 -5.55935 0)
(0.00345777 -5.58971 0)
(0.00130843 -5.60356 0)
(-0.000920467 -5.60377 0)
(-0.00308933 -5.59028 0)
(-0.00503927 -5.56012 0)
(-0.00658036 -5.50653 0)
(-0.00748807 -5.41729 0)
(-0.00754426 -5.27321 0)
(-0.00663294 -5.04717 0)
(-0.00485099 -4.70285 0)
(-0.00257162 -4.18379 0)
(-0.000905218 -3.11294 0)
(0.00108743 -3.11934 0)
(0.0027305 -4.18981 0)
(0.00503105 -4.70732 0)
(0.00683597 -5.04966 0)
(0.00780418 -5.27362 0)
(0.00781427 -5.41574 0)
(0.0069489 -5.50337 0)
(0.00543372 -5.55591 0)
(0.00348718 -5.58562 0)
(0.00130441 -5.59916 0)
(-0.000963749 -5.59935 0)
(-0.00316999 -5.58614 0)
(-0.00515698 -5.55662 0)
(-0.00673843 -5.50409 0)
(-0.00766952 -5.41638 0)
(-0.00774907 -5.27416 0)
(-0.00684519 -5.04997 0)
(-0.00504121 -4.70703 0)
(-0.00271612 -4.18851 0)
(-0.000947133 -3.11626 0)
(0.00106187 -3.12305 0)
(0.00287207 -4.19465 0)
(0.00523878 -4.71172 0)
(0.00703741 -5.05267 0)
(0.00796508 -5.27473 0)
(0.00793091 -5.41494 0)
(0.00702959 -5.50099 0)
(0.0054831 -5.55243 0)
(0.00350346 -5.58149 0)
(0.00128241 -5.59469 0)
(-0.00102999 -5.59485 0)
(-0.00328764 -5.58193 0)
(-0.00532582 -5.55305 0)
(-0.00695147 -5.50161 0)
(-0.00793148 -5.41546 0)
(-0.00803112 -5.27517 0)
(-0.00713517 -5.05292 0)
(-0.00528888 -4.71144 0)
(-0.00285787 -4.19342 0)
(-0.000970325 -3.12002 0)
(0.000959693 -3.12684 0)
(0.00287923 -4.19944 0)
(0.00545638 -4.71616 0)
(0.0073689 -5.05569 0)
(0.0082875 -5.27576 0)
(0.00819389 -5.41402 0)
(0.00722825 -5.4985 0)
(0.0056172 -5.54885 0)
(0.00357815 -5.57722 0)
(0.00129218 -5.59008 0)
(-0.00109215 -5.59019 0)
(-0.00342492 -5.57753 0)
(-0.00554185 -5.54927 0)
(-0.00724335 -5.4989 0)
(-0.00829493 -5.41429 0)
(-0.00843299 -5.27592 0)
(-0.00752009 -5.05566 0)
(-0.00554504 -4.71566 0)
(-0.0029232 -4.1981 0)
(-0.000932818 -3.12352 0)
(0.000854627 -3.13023 0)
(0.00287646 -4.20398 0)
(0.00562366 -4.7203 0)
(0.0077095 -5.05839 0)
(0.00865951 -5.27651 0)
(0.00850727 -5.41285 0)
(0.007471 -5.4958 0)
(0.00579191 -5.54509 0)
(0.00369075 -5.57278 0)
(0.0013412 -5.5853 0)
(-0.00110556 -5.58535 0)
(-0.0035061 -5.57293 0)
(-0.00569263 -5.54528 0)
(-0.00746252 -5.49595 0)
(-0.00857996 -5.41286 0)
(-0.00875319 -5.27638 0)
(-0.00779765 -5.05811 0)
(-0.00570139 -4.7196 0)
(-0.00299925 -4.20258 0)
(-0.000963893 -3.12643 0)
(0.00105739 -3.13346 0)
(0.00308312 -4.20902 0)
(0.00573974 -4.72471 0)
(0.00784549 -5.0612 0)
(0.00883971 -5.27724 0)
(0.00869369 -5.41158 0)
(0.00764048 -5.49301 0)
(0.00592793 -5.54124 0)
(0.00378923 -5.56825 0)
(0.00139733 -5.58042 0)
(-0.00109139 -5.58043 0)
(-0.00352385 -5.56828 0)
(-0.00573455 -5.54126 0)
(-0.00751725 -5.49302 0)
(-0.00862934 -5.41152 0)
(-0.00878223 -5.27705 0)
(-0.00780444 -5.06095 0)
(-0.00578311 -4.72414 0)
(-0.0032865 -4.20792 0)
(-0.00130197 -3.12975 0)
(0.00122688 -3.13692 0)
(0.00317131 -4.21446 0)
(0.00592283 -4.72943 0)
(0.0080233 -5.06416 0)
(0.00901687 -5.27797 0)
(0.00885845 -5.41029 0)
(0.00777955 -5.49019 0)
(0.00603105 -5.53735 0)
(0.00385257 -5.56368 0)
(0.00141622 -5.5755 0)
(-0.00111695 -5.57548 0)
(-0.00358876 -5.56363 0)
(-0.00582935 -5.53728 0)
(-0.00763306 -5.49018 0)
(-0.0087496 -5.41036 0)
(-0.00890789 -5.27805 0)
(-0.00797134 -5.06429 0)
(-0.00602743 -4.72935 0)
(-0.00342993 -4.21393 0)
(-0.00147098 -3.13413 0)
(0.00126697 -3.14089 0)
(0.0033663 -4.22011 0)
(0.00612239 -4.73438 0)
(0.00818942 -5.06726 0)
(0.00915599 -5.2788 0)
(0.00897719 -5.40902 0)
(0.00787248 -5.48737 0)
(0.00608985 -5.53344 0)
(0.00387185 -5.55905 0)
(0.00138439 -5.57051 0)
(-0.0012064 -5.57046 0)
(-0.00373514 -5.5589 0)
(-0.00603317 -5.53323 0)
(-0.00789673 -5.48725 0)
(-0.00907294 -5.4091 0)
(-0.00929362 -5.27896 0)
(-0.00839808 -5.06753 0)
(-0.00634632 -4.73437 0)
(-0.00344312 -4.21948 0)
(-0.00118723 -3.13891 0)
(0.00124458 -3.14532 0)
(0.00350002 -4.22604 0)
(0.00639779 -4.73961 0)
(0.00848635 -5.07055 0)
(0.00940822 -5.27966 0)
(0.00919245 -5.40776 0)
(0.00803296 -5.48454 0)
(0.00619515 -5.52946 0)
(0.00391611 -5.55432 0)
(0.00136069 -5.56538 0)
(-0.00130013 -5.56528 0)
(-0.00390393 -5.554 0)
(-0.00627655 -5.52898 0)
(-0.00821377 -5.48412 0)
(-0.00946439 -5.40762 0)
(-0.00974797 -5.27966 0)
(-0.00882325 -5.07055 0)
(-0.00657611 -4.73915 0)
(-0.00349158 -4.22476 0)
(-0.000989277 -3.14334 0)
(0.00110808 -3.14967 0)
(0.00354996 -4.23168 0)
(0.00665612 -4.74463 0)
(0.00888974 -5.07366 0)
(0.00981409 -5.28036 0)
(0.00953102 -5.40631 0)
(0.00828944 -5.4815 0)
(0.00637113 -5.52528 0)
(0.00400978 -5.54939 0)
(0.00137575 -5.56006 0)
(-0.00136534 -5.55991 0)
(-0.00404546 -5.54892 0)
(-0.00649093 -5.52457 0)
(-0.00850334 -5.48081 0)
(-0.00980915 -5.40598 0)
(-0.0101165 -5.28026 0)
(-0.00911363 -5.07358 0)
(-0.00673972 -4.74407 0)
(-0.0036207 -4.2304 0)
(-0.00116144 -3.14746 0)
(0.00115536 -3.15381 0)
(0.00366268 -4.23741 0)
(0.00680743 -4.7496 0)
(0.00917553 -5.07662 0)
(0.0101862 -5.28089 0)
(0.00986778 -5.40466 0)
(0.00857245 -5.4782 0)
(0.0065647 -5.52086 0)
(0.00411335 -5.54424 0)
(0.00139681 -5.55455 0)
(-0.00142051 -5.55436 0)
(-0.00417113 -5.54368 0)
(-0.0066755 -5.52002 0)
(-0.00874181 -5.47739 0)
(-0.0100773 -5.40426 0)
(-0.0103883 -5.2809 0)
(-0.00933866 -5.07678 0)
(-0.00693513 -4.74935 0)
(-0.0037809 -4.23653 0)
(-0.00146692 -3.15158 0)
(0.00138104 -3.15816 0)
(0.0038285 -4.24367 0)
(0.00703322 -4.75492 0)
(0.0094324 -5.07975 0)
(0.0104899 -5.28148 0)
(0.0101518 -5.4029 0)
(0.00880942 -5.47476 0)
(0.00672142 -5.51632 0)
(0.00418807 -5.53897 0)
(0.00139947 -5.54891 0)
(-0.00148573 -5.5487 0)
(-0.00429511 -5.53835 0)
(-0.00685126 -5.51539 0)
(-0.00896647 -5.47391 0)
(-0.0103309 -5.40249 0)
(-0.0106517 -5.28155 0)
(-0.0095889 -5.08013 0)
(-0.00715608 -4.75487 0)
(-0.00386162 -4.2429 0)
(-0.00157854 -3.15592 0)
(0.0016272 -3.16311 0)
(0.00410845 -4.25052 0)
(0.00736376 -4.76084 0)
(0.00972431 -5.08333 0)
(0.0107523 -5.28236 0)
(0.0104097 -5.40132 0)
(0.00900167 -5.47134 0)
(0.00685781 -5.51172 0)
(0.00425507 -5.53364 0)
(0.00140082 -5.54321 0)
(-0.00154247 -5.54299 0)
(-0.00440534 -5.53298 0)
(-0.00700996 -5.51075 0)
(-0.00915597 -5.47044 0)
(-0.0105651 -5.4008 0)
(-0.0108934 -5.28238 0)
(-0.00984227 -5.08378 0)
(-0.00739891 -4.76081 0)
(-0.00403287 -4.24971 0)
(-0.00159734 -3.16086 0)
(0.00158746 -3.16818 0)
(0.00412101 -4.25736 0)
(0.00766301 -4.7669 0)
(0.0101593 -5.08703 0)
(0.0112072 -5.28319 0)
(0.0108505 -5.3997 0)
(0.00934643 -5.46783 0)
(0.00710564 -5.50694 0)
(0.00439242 -5.52813 0)
(0.00143325 -5.53736 0)
(-0.00160389 -5.53714 0)
(-0.0045517 -5.52749 0)
(-0.00724178 -5.50601 0)
(-0.00945374 -5.46694 0)
(-0.0109424 -5.39917 0)
(-0.0112997 -5.28331 0)
(-0.010264 -5.08771 0)
(-0.00773782 -4.76713 0)
(-0.00414205 -4.25684 0)
(-0.00153136 -3.16631 0)
(0.0013811 -3.1728 0)
(0.00410058 -4.26386 0)
(0.00786924 -4.77262 0)
(0.0105803 -5.09037 0)
(0.0117147 -5.28363 0)
(0.0113474 -5.39765 0)
(0.00975648 -5.46388 0)
(0.00739657 -5.50178 0)
(0.00454491 -5.52229 0)
(0.00145406 -5.53121 0)
(-0.00170472 -5.53101 0)
(-0.00477454 -5.52173 0)
(-0.00758576 -5.50098 0)
(-0.00992387 -5.46314 0)
(-0.0114929 -5.39728 0)
(-0.0119001 -5.28401 0)
(-0.0108131 -5.09143 0)
(-0.00806523 -4.77324 0)
(-0.00415319 -4.26368 0)
(-0.00134237 -3.17151 0)
(0.00150525 -3.17759 0)
(0.00434633 -4.27102 0)
(0.00814934 -4.77876 0)
(0.0109108 -5.09396 0)
(0.0120453 -5.28411 0)
(0.0116555 -5.39552 0)
(0.0100202 -5.45976 0)
(0.0075835 -5.49638 0)
(0.00464208 -5.5162 0)
(0.00144714 -5.52481 0)
(-0.00181941 -5.52461 0)
(-0.00499903 -5.51567 0)
(-0.00791725 -5.49566 0)
(-0.0103647 -5.45904 0)
(-0.011992 -5.39505 0)
(-0.0124346 -5.28449 0)
(-0.0112568 -5.09499 0)
(-0.00832234 -4.77933 0)
(-0.00430156 -4.27068 0)
(-0.00141126 -3.17617 0)
(0.00178334 -3.18322 0)
(0.00460538 -4.2791 0)
(0.00852507 -4.78579 0)
(0.0112965 -5.09828 0)
(0.0123753 -5.28507 0)
(0.0119523 -5.39356 0)
(0.0102758 -5.4557 0)
(0.00778592 -5.49098 0)
(0.00477669 -5.51002 0)
(0.00149637 -5.51826 0)
(-0.00186216 -5.51806 0)
(-0.00513426 -5.50945 0)
(-0.00814922 -5.49016 0)
(-0.0106602 -5.45479 0)
(-0.0123407 -5.3928 0)
(-0.0128068 -5.28509 0)
(-0.0115819 -5.0988 0)
(-0.00859557 -4.78587 0)
(-0.00451144 -4.27837 0)
(-0.00173565 -3.18086 0)
(0.00175127 -3.189 0)
(0.00462321 -4.28704 0)
(0.00892206 -4.79285 0)
(0.0118905 -5.10261 0)
(0.0129809 -5.28588 0)
(0.0125011 -5.39146 0)
(0.0107429 -5.45148 0)
(0.00814816 -5.48538 0)
(0.00502362 -5.50365 0)
(0.0016217 -5.51154 0)
(-0.00184674 -5.51133 0)
(-0.00521709 -5.50311 0)
(-0.00832105 -5.4846 0)
(-0.0108957 -5.45051 0)
(-0.0125952 -5.39064 0)
(-0.0130591 -5.28592 0)
(-0.0118417 -5.10307 0)
(-0.00891552 -4.79314 0)
(-0.00477153 -4.28687 0)
(-0.00202046 -3.18627 0)
(0.00165696 -3.19429 0)
(0.00469232 -4.29478 0)
(0.00927208 -4.79965 0)
(0.0124676 -5.10659 0)
(0.013643 -5.28632 0)
(0.0130751 -5.38894 0)
(0.0112349 -5.44694 0)
(0.00851643 -5.47948 0)
(0.00526299 -5.49696 0)
(0.00173694 -5.50453 0)
(-0.00186787 -5.50437 0)
(-0.00536571 -5.49652 0)
(-0.00856806 -5.47883 0)
(-0.0112283 -5.44616 0)
(-0.0130106 -5.38848 0)
(-0.0135222 -5.28685 0)
(-0.0123699 -5.10758 0)
(-0.00939309 -4.80076 0)
(-0.00489985 -4.29564 0)
(-0.00198776 -3.1923 0)
(0.00193366 -3.19969 0)
(0.00497842 -4.30348 0)
(0.00960394 -4.80713 0)
(0.0128561 -5.11083 0)
(0.0140852 -5.28691 0)
(0.0134865 -5.38641 0)
(0.0115747 -5.44222 0)
(0.00876405 -5.47339 0)
(0.00540614 -5.49005 0)
(0.00176642 -5.49725 0)
(-0.00195869 -5.49712 0)
(-0.00557869 -5.48967 0)
(-0.00889955 -5.47283 0)
(-0.0116696 -5.44158 0)
(-0.0135701 -5.38611 0)
(-0.0141619 -5.28748 0)
(-0.0130268 -5.1119 0)
(-0.00984394 -4.80828 0)
(-0.00498497 -4.30426 0)
(-0.0017776 -3.19836 0)
(0.00212712 -3.20556 0)
(0.00509137 -4.31289 0)
(0.0100224 -4.81525 0)
(0.013349 -5.11551 0)
(0.0145749 -5.28758 0)
(0.0139446 -5.38382 0)
(0.0119374 -5.4374 0)
(0.0090185 -5.4671 0)
(0.00554905 -5.48292 0)
(0.00178779 -5.48975 0)
(-0.00204823 -5.48963 0)
(-0.0057921 -5.48258 0)
(-0.00923056 -5.46656 0)
(-0.0121242 -5.43675 0)
(-0.0141227 -5.38348 0)
(-0.0148094 -5.28796 0)
(-0.0136689 -5.1162 0)
(-0.0103051 -4.81601 0)
(-0.0052127 -4.3133 0)
(-0.00184826 -3.20437 0)
(0.00209757 -3.21179 0)
(0.00526205 -4.32248 0)
(0.0105511 -4.82351 0)
(0.0139876 -5.12017 0)
(0.0151719 -5.28819 0)
(0.014441 -5.38108 0)
(0.012324 -5.43237 0)
(0.00929211 -5.4606 0)
(0.00571606 -5.47556 0)
(0.00184227 -5.48204 0)
(-0.00211275 -5.48195 0)
(-0.00597047 -5.4753 0)
(-0.00953277 -5.46015 0)
(-0.0125491 -5.4318 0)
(-0.0146543 -5.38074 0)
(-0.0154233 -5.28846 0)
(-0.0142948 -5.12076 0)
(-0.0108229 -4.82428 0)
(-0.0054959 -4.32315 0)
(-0.00214141 -3.21064 0)
(0.00223127 -3.21838 0)
(0.00560666 -4.33284 0)
(0.01115 -4.83237 0)
(0.0146724 -5.12513 0)
(0.0158099 -5.28887 0)
(0.0149653 -5.37828 0)
(0.0127161 -5.42715 0)
(0.00956884 -5.45388 0)
(0.00587442 -5.46799 0)
(0.00189453 -5.4741 0)
(-0.00218189 -5.47404 0)
(-0.00615951 -5.46778 0)
(-0.00984368 -5.45351 0)
(-0.0129718 -5.42664 0)
(-0.0151893 -5.3779 0)
(-0.0160159 -5.28896 0)
(-0.0148904 -5.12553 0)
(-0.0113589 -4.83309 0)
(-0.00581672 -4.33375 0)
(-0.00242703 -3.21733 0)
(0.00229411 -3.22489 0)
(0.00574959 -4.34355 0)
(0.0117727 -4.84143 0)
(0.0155075 -5.12998 0)
(0.0166498 -5.28928 0)
(0.0156642 -5.37518 0)
(0.0132631 -5.42161 0)
(0.00993927 -5.44685 0)
(0.00610127 -5.46012 0)
(0.00197265 -5.46587 0)
(-0.00224691 -5.4658 0)
(-0.00635699 -5.45993 0)
(-0.0101849 -5.44649 0)
(-0.0134529 -5.42111 0)
(-0.015832 -5.3747 0)
(-0.0167732 -5.28911 0)
(-0.0156878 -5.13012 0)
(-0.0120221 -4.84201 0)
(-0.00604801 -4.34461 0)