/*--------------------------------*- C++ -*----------------------------------*\
  =========                 |
  \\      /  F ield         | OpenFOAM: The Open Source CFD Toolbox
   \\    /   O peration     | Website:  https://openfoam.org
    \\  /    A nd           | Version:  6
     \\/     M anipulation  |
\*---------------------------------------------------------------------------*/
FoamFile
{
    version     2.0;
    format      ascii;
    class       volScalarField;
    location    "7";
    object      epsilon;
}
// * * * * * * * * * * * * * * * * * * * * * * * * * * * * * * * * * * * * * //

dimensions      [0 2 -3 0 0 0 0];

internalField   nonuniform List<scalar> 
10000
(
364.766
288.309
165.857
104.859
70.8728
50.7237
38.4256
30.9464
26.6723
24.7337
24.7243
26.555
30.5364
37.5
49.1449
68.4105
101.212
160.732
280.476
346.601
397.797
297.62
171.843
107.028
71.7103
50.5838
37.9732
30.3752
26.0561
24.1031
24.4942
26.3995
30.3879
37.095
49.1389
68.8493
102.315
164.612
286.383
371.259
395.765
296.699
168.952
105.992
71.5019
50.7623
38.497
30.9395
26.5558
24.3324
24.38
26.0131
30.0811
37.4935
49.1783
69.1163
103.041
163.078
284.16
381.288
382.226
297.277
171.468
107.672
71.7711
50.8263
38.4852
30.9152
26.5937
24.6267
24.3928
26.3145
30.4595
37.5614
49.4908
68.9931
101.079
159.944
279.249
352.902
349.363
296.477
165.496
104.66
71.7186
50.8292
38.0491
30.3674
26.0936
24.6368
24.7515
26.7309
30.9027
38.0727
49.7835
69.1802
101.19
159.608
276.698
308.742
347.416
291.582
165
104.73
71.336
51.0239
38.4236
30.8065
26.3544
24.659
24.7485
26.728
30.8734
38.0069
49.7562
69.1092
102.938
160.463
275.045
301.149
354.29
294.875
165.412
105.349
72.1713
51.0948
38.3839
30.8093
26.531
24.687
24.7343
26.688
30.8005
37.6938
49.6994
69.2212
101.695
163.213
278.651
307.09
377.807
291.218
165.786
106.866
71.6475
50.6418
37.749
30.538
26.4048
24.5149
24.3323
26.5528
30.7918
37.9742
49.7104
68.8785
101.485
160.657
279.586
315.781
337.611
293.283
169.81
107.589
71.7838
50.668
37.6925
29.953
26.073
24.3783
24.5057
26.5488
30.7912
37.9937
49.7526
69.0967
103.148
163.296
282.636
330.278
378.329
297.931
170.72
108.08
71.9115
50.7485
37.8997
30.028
25.7254
23.9556
24.0749
26.3555
30.6363
37.8877
49.5951
68.9396
102.345
162.109
283.22
369.768
357.38
303.271
171.414
107.979
72.1574
50.7492
37.5442
30.2722
25.9801
24.388
24.4128
25.9852
30.0919
37.4697
49.5367
68.8983
101.418
160.017
280.127
343.875
384.552
300.486
168.173
106.678
71.6154
50.7253
37.9745
30.0405
26.1914
24.3911
24.3658
26.0084
30.1531
37.6356
49.4578
68.9022
102.904
160.703
279.898
319.501
327.919
300.252
169.909
109.601
72.0433
50.5438
37.9588
30.4183
26.1938
24.2517
23.9514
25.8376
30.0345
37.5733
49.3967
68.818
101.616
161.569
281.953
322.659
333.548
291.498
162.32
105.601
71.6344
50.2998
37.3154
29.7952
25.5929
24.0645
23.8911
25.7774
29.9523
37.4704
49.4198
68.9989
101.939
162.084
283.464
333.85
333.051
287.162
161.666
103.113
70.7782
50.0856
37.3339
30.0565
25.6925
24.0629
23.8718
25.7308
29.896
37.4082
49.4715
69.2826
103.518
164.133
285.449
341.117
367.009
280.16
163.125
103.653
71.2318
49.9265
37.4817
30.0251
25.6289
23.9826
23.9781
25.8689
29.9656
37.0376
49.2779
69.611
102.672
163.172
288.414
386.771
344.605
277.986
159.222
105.047
70.5394
49.8117
37.308
29.5462
25.7495
23.9129
23.6328
25.466
29.6125
37.2247
49.3378
69.4906
104.033
164.047
289.047
385.221
329.697
278.179
159.566
102.208
69.5913
49.3487
36.7621
29.4699
25.7223
23.9649
24.0132
25.9224
30.0381
37.2547
49.3057
69.3453
103.457
166.097
291.256
392.879
361.63
279.723
163.365
104.193
69.822
49.5871
37.0067
29.5672
25.3858
23.5299
23.5734
25.5024
29.5775
36.6922
48.9529
69.5561
104.819
167.791
293.222
388.475
320.357
280.021
163.343
102.454
69.8999
49.6593
37.3955
30.0389
25.8714
23.9583
23.9479
25.9406
30.0368
37.0833
49.2333
69.678
105.114
168.189
291.988
360.992
360.4
284.118
164.48
102.612
69.5935
49.533
37.0814
30.0085
25.9361
24.0067
23.691
25.981
29.8927
37.4095
49.123
69.8625
105.339
169.43
294.345
377.764
334.898
282.657
162.988
102.852
69.7862
49.6943
37.3193
29.6931
25.8939
24.0694
23.8559
26.0894
30.3437
37.6913
49.7796
70.1131
105.889
171.059
297.011
345.582
365.909
284.022
164.121
103.377
69.9803
49.4118
36.8975
29.9426
25.9498
24.136
23.9153
26.0677
30.3291
37.6878
49.7299
69.8807
104.598
171.87
295.283
350.511
326.771
283.265
165.616
103.925
70.4253
49.6411
36.9562
29.4625
25.46
24.0301
23.9929
25.8239
29.9977
37.6505
49.7172
69.732
103.922
169.454
289.762
347.41
367.791
285.933
168.185
105.444
70.2985
49.329
37.1734
29.69
25.6363
23.8922
24.3539
26.3829
30.5363
37.7076
49.4718
69.813
103.617
167.105
289.835
344.93
362.202
284.732
164.765
104.112
70.7063
49.6265
36.8902
30.0209
26.0342
24.2992
24.4574
26.4286
30.5569
37.6698
49.5065
69.353
103.373
169.241
290.503
342.137
361.487
285.039
166.401
105.269
70.6994
49.9919
37.3833
29.8827
25.7812
24.0269
24.1351
26.2704
30.4864
37.556
49.2737
69.1367
103.239
163.634
293.037
344.405
345.105
285.475
163.674
103.49
70.1472
50.1421
37.8547
30.4718
26.3507
24.5628
24.7094
26.5933
30.7035
37.799
49.4431
68.876
101.42
161.551
286.149
338.755
378.524
289.149
164.879
104.131
70.3808
49.9639
37.4404
30.3103
26.2454
24.2456
24.5625
26.4509
30.3141
37.4864
49.4728
69.3472
102.833
163.612
286.359
372.543
342.504
286.948
166.491
105.503
70.8764
50.2873
37.8992
30.039
26.0091
24.4837
24.5239
26.1818
30.6526
37.8923
49.6906
69.1164
102.295
161.264
280.912
322.606
389.824
288.862
162.834
103.503
70.2907
50.3107
38.0933
30.6327
26.4599
24.582
24.3101
26.2175
30.6573
37.9034
49.7479
69.2558
102.672
161.526
281.664
322.908
368.022
287.04
162.932
105.187
71.1053
50.334
38.0222
30.5316
26.3826
24.5409
24.5676
26.4693
30.6838
37.8366
49.687
69.6977
103.393
164.291
285.766
357.506
341.114
286.393
162.953
102.662
70.1844
50.0625
37.8904
30.0453
26.1305
24.0489
24.3509
26.3211
30.5351
37.8217
49.768
69.2783
102.677
164.112
284.246
316.122
341.582
286.357
165.01
103.983
69.6682
50.0829
37.8704
30.3677
25.882
24.0142
24.2086
25.7931
29.9509
37.2859
49.4502
68.9922
102.128
162.86
284.979
317.502
354.474
287.807
162.358
102.286
69.4669
49.9462
37.7663
30.0355
26.0621
24.1765
24.2191
26.099
30.211
37.4243
49.3637
68.9277
102.229
163.352
288.838
350.089
382.137
286.795
163.959
103.581
69.58
49.8134
37.6745
30.3508
26.1132
23.8759
23.8282
25.6883
29.8032
37.2902
49.2148
68.9444
102.518
163.819
285.349
331.218
339.376
279.412
159.228
103.46
69.5485
49.6825
37.5951
30.377
26.1907
24.2866
24.2772
26.1377
30.2019
37.1125
49.1505
69.4045
103.682
165.09
285.027
360.093
377.264
280.858
159.868
102.261
69.5276
49.6033
37.2679
30.318
26.1706
24.191
23.918
25.6718
29.866
37.3151
49.0998
68.4444
100.731
160.262
280.399
319.593
351.273
280.393
161.021
104.604
70.4139
49.9115
37.6098
30.3206
26.0982
23.9134
24.1484
25.8744
30.1615
37.323
49.0991
68.7078
100.88
160.428
279.146
350.122
382.188
280.983
162.622
103.375
69.9179
49.7734
37.1355
30.0903
26.0476
24.1903
24.2781
26.1489
30.2058
37.3033
48.794
68.0678
101.797
162.469
276.033
300.55
324.453
278.983
162.003
105.074
70.5646
49.7756
37.557
30.1516
25.7128
23.8398
24.1903
26.0718
29.802
37.1961
48.842
67.7011
99.6433
158.945
277.374
302.006
333.256
282.4
164.239
103.726
70.0992
49.6889
37.1533
29.8459
26.0581
24.26
24.2836
26.0599
29.8468
37.1929
48.9011
67.995
100.108
160.108
280.871
317.407
335.93
284.729
165.227
105.261
70.417
49.9958
37.5642
30.2647
26.1341
24.2778
24.2603
25.9929
29.8239
36.8886
48.6909
68.1569
100.703
161.144
283.435
354.945
346.477
287.945
165.59
105.579
70.8238
50.0525
37.2446
30.2959
26.1867
24.3342
24.288
25.7905
30.0938
37.1815
48.8501
68.2228
101.506
162.139
284.617
352.933
350.178
288.979
165.946
105.491
70.8466
50.2457
37.7908
30.3046
26.1616
24.3285
24.3503
26.1851
30.2079
37.2147
48.8506
68.1947
101.235
162.509
287.352
364.712
354.661
288.648
166.116
104.836
70.8337
50.1389
37.726
30.1818
26.1035
24.3081
24.3479
26.2009
30.1858
37.1578
48.799
68.0686
100.734
161.654
286.893
368.772
360.486
288.925
166.266
105.056
70.9908
50.0392
37.7536
29.7538
25.9799
24.3443
24.422
26.2959
30.2311
37.1658
48.7665
68.0093
100.787
160.518
283.52
367.25
400.778
291.13
168.147
106.526
71.2848
49.984
37.9014
30.1501
25.9445
24.3535
24.4288
26.3105
30.1554
37.0438
48.4351
67.818
101.222
160.362
281.537
356.706
369.393
287.642
165.83
105.688
71.2484
50.3727
38.0391
30.5461
26.3821
24.4846
24.4271
26.2987
29.8731
36.7654
48.6778
67.7492
101.182
161.657
280.378
331.105
334.779
285.045
163.106
104.642
70.8333
50.5129
37.6647
30.0135
26.3212
24.5018
24.322
26.4593
30.4992
37.3747
48.8652
67.8156
101.013
159.975
280.517
334.507
332.094
281.185
162.226
102.951
70.1606
50.4157
37.993
30.2543
26.438
24.6402
24.6539
26.5019
30.4866
37.413
48.921
67.8388
100.13
160.965
281.165
348.704
343.569
282.639
164.372
103.136
70.1699
50.2044
37.7103
30.6069
26.502
24.6722
24.6795
26.4869
30.4159
37.0511
48.8673
67.7981
100.639
158.665
281.754
392.642
366.487
281.749
160.917
102.952
70.1201
50.1949
37.8192
30.6889
26.5747
24.7689
24.7635
26.5428
30.4398
37.2011
48.8767
68.012
100.219
159.074
280.024
350.601
316.879
279.346
160.783
104.954
70.9061
50.3465
38.0665
30.6761
26.5414
24.7413
24.7436
26.5104
30.1874
37.3601
48.9778
68.5243
101.494
159.796
279.206
326.233
330.479
284.581
161.56
102.929
70.2333
50.297
38.0731
30.6458
26.2093
24.6856
24.7483
26.5853
30.5501
37.2291
49.2678
69.1299
102.613
161.633
281.528
362.239
372.969
283.331
162.355
103.558
70.3908
50.2931
38.0179
30.6688
26.553
24.7659
24.8271
26.684
30.6964
37.7309
49.5754
69.4345
103.357
163.006
281.712
338.393
364.877
283.716
163.517
105.672
70.827
50.3891
37.9849
30.55
26.4852
24.7228
24.8136
26.6889
30.6652
37.6083
49.8347
69.8837
104.113
164.194
282.485
362.51
372.243
284.304
164.347
105.217
70.8279
50.2473
37.7998
29.9735
26.2894
24.615
24.7605
26.7015
30.5192
37.9129
50.1699
70.1405
104.811
165.604
281.61
322.386
367.926
285.509
167.3
105.55
70.6595
50.067
37.7915
30.0699
25.9153
24.1572
24.3459
26.6202
30.9181
38.284
50.2245
70.0872
104.431
166.269
283.586
351.157
350.064
286.982
166.275
104.907
70.7143
50.0204
37.772
30.4694
26.338
24.5501
24.6593
26.3548
30.5293
38.1321
50.1332
69.6613
102.936
164.872
282.655
326.879
356.176
288.249
166.909
105.301
70.8706
50.1449
37.4841
30.4763
26.3396
24.5485
24.7035
26.6451
30.8104
38.082
50.0655
69.6667
102.787
163.899
282.903
329.433
389.553
290.036
167.519
106.516
71.0483
50.3461
37.8532
30.4331
26.1763
24.0752
24.4767
26.5023
30.6438
37.6367
49.954
69.7675
103.092
166.791
287.155
364.994
384.916
292.331
167.989
105.513
70.9194
49.8511
37.2804
30.2598
26.0896
24.0296
24.0479
26.0039
30.195
37.5327
49.7489
69.7892
102.525
162.519
281.542
333.625
386.042
293.696
168.566
105.733
70.8599
50.057
37.4751
30.1941
25.6909
24.1572
24.2939
26.3109
30.5
37.6295
49.642
69.9818
103.5
160.845
281.908
334.826
359.015
294.941
169.343
106.172
70.8872
50.2481
37.7184
30.1849
25.7372
24.117
24.0254
26.2591
30.1798
37.4513
49.5919
69.3335
101.578
160.983
283.812
344.591
361.078
293.542
170.699
107.358
71.0806
50.3076
37.708
30.161
25.9254
24.1551
24.319
26.3621
30.5122
37.7471
49.7863
69.739
101.491
161.087
285.427
368.131
371.678
292.543
169.108
107.151
71.134
50.2457
37.2277
29.5766
25.238
23.6154
23.8351
26.2241
30.462
37.7154
49.7156
69.4405
101.591
160.997
286.191
327.612
404.003
294.541
169.237
105.929
70.9019
50.2782
37.6755
30.0435
25.6023
24.0309
23.9732
26.1831
30.3459
37.5693
49.5998
69.0791
101.488
160.275
281.703
336.417
360.764
292.206
171.6
107.801
71.1256
50.2399
37.6495
29.7399
25.8196
24.079
24.022
26.171
30.0202
37.2027
49.3647
69.283
102.818
160.208
281.937
343.606
406.114
296.697
169.321
105.95
71.0658
50.1431
37.6009
30.0403
25.5631
23.8267
24.2008
26.2598
30.4955
37.6837
49.3831
68.54
101.204
159.537
281.55
384.739
390.86
292.795
170.129
106.237
70.6899
49.6652
37.0774
29.7202
25.938
24.1895
24.0565
25.9935
30.4689
37.664
49.2699
68.499
101.339
157.935
276.089
358.693
365.769
290.818
166.032
103.449
69.8199
49.8184
37.52
30.1189
25.9416
23.978
24.476
26.5048
30.5947
37.6836
49.216
68.5519
102.237
157.075
272.429
329.844
345.983
291.358
167.939
103.156
69.6816
49.7346
37.487
30.1308
25.7969
24.0119
24.3823
26.3452
30.4985
37.6433
49.2849
68.6089
102.88
156.942
271.718
343.917
347.727
283.033
161.545
102.49
69.4221
49.1717
37.2295
30.0721
26.0718
24.2647
24.1439
26.2561
30.4052
37.5636
49.1579
68.5039
102.108
157.185
271.093
307.42
363.528
284.553
161.791
102.672
70.0835
49.2846
37.1248
29.9804
26.0098
24.2392
24.3123
26.121
29.9075
37.1119
49.1739
68.3816
101.356
157.851
272.194
320.346
392.445
286.393
161.679
103.099
69.565
49.0405
36.5731
29.4759
25.8361
24.1388
24.2303
26.06
29.9493
37.1514
49.164
68.3283
100.48
159.356
273.728
335.629
331.958
278.001
161.485
104.888
69.4777
49.0749
37.1202
29.9577
25.4939
23.6303
23.9787
25.7157
29.9027
37.1538
49.1705
68.4363
100.688
158.954
274.2
319.172
338.926
279.311
163.752
103.266
69.3137
49.2915
37.2399
29.9534
25.7205
23.7333
23.7979
26.0019
30.206
37.3461
49.1578
68.5936
101.119
159.55
276.112
323.044
340.525
282.742
161.253
102.049
69.0145
48.8889
36.703
29.7581
25.3435
23.9391
24.0429
26.0132
30.1741
37.2921
49.1321
68.7949
101.768
160.535
278.302
353.74
371.246
277.559
161.126
102.56
69.2649
48.9541
36.7046
29.7247
25.4945
23.9247
23.6862
25.4868
29.9271
37.1329
48.8397
68.9175
102.105
160.979
276.931
331.495
340.884
278.361
163.583
104.161
69.5413
48.8854
36.4875
29.3051
25.6198
23.889
23.8458
25.4319
29.46
36.9675
48.9168
68.8603
103.723
163.893
277.734
333.174
343.893
275.954
162.133
103.507
69.3819
48.6471
36.2985
29.1705
25.1466
23.3677
23.658
25.2581
29.3045
36.4263
48.7027
68.7004
102.812
162.48
281.112
340.163
355.37
270.967
160.12
102.619
69.1314
48.4829
36.1707
29.3136
25.3365
23.4143
23.6562
25.4814
29.3888
36.1995
48.1736
68.5398
101.787
160.376
277.201
347.687
361.815
269.662
161.247
102.954
68.6988
48.366
36.0186
29.1721
25.2147
23.4319
23.4913
25.3092
29.1709
35.7277
47.6743
68.229
102.896
160.825
277.165
357.364
370.732
268.593
156.029
101.265
67.9103
47.9617
35.5605
28.4604
24.8528
23.1621
22.909
24.6529
28.4995
35.3499
47.2486
67.5285
101.22
161.841
277.429
404.937
382.851
268.106
154.918
101.109
67.3382
46.9627
35.0232
28.1449
24.5394
22.682
22.9481
24.7048
28.4879
35.1277
46.7399
66.9251
101.032
160.767
272.5
381.477
425.491
265.766
152.91
101.011
66.2708
45.9491
34.323
27.5588
23.8375
22.1975
22.3476
24.3516
28.0955
34.4346
45.8798
65.7261
101.068
156.613
270.437
355.235
393.897
261.926
151.162
99.1749
64.897
44.8864
33.3297
26.8561
23.5898
22.0223
22.001
23.6173
27.1356
33.4721
44.4166
64.0109
98.6352
156.974
276.932
356.414
403.576
261.653
150.17
96.9499
62.9371
43.5222
32.5194
26.3515
23.0965
21.6777
21.7368
23.475
26.7749
32.4728
42.9229
61.8477
96.2231
155.982
260.664
363.257
415.7
264.356
149.018
93.5172
60.1212
41.6551
31.4624
25.8586
23.0251
21.6698
21.5758
22.7954
25.8322
31.4377
41.361
59.3524
92.6871
151.604
249.19
363.485
456.362
247.178
149.279
89.4742
57.1518
39.8688
30.4442
25.2681
22.6642
21.3722
21.126
22.2162
24.9509
30.1172
39.4315
56.469
88.6675
149.79
255.14
370.421
388.741
238.579
139.72
83.043
53.1884
37.5099
29.0065
24.2856
21.7213
20.6238
20.6155
21.6532
24.1003
28.7045
37.104
52.6697
82.3266
138.465
234.953
372.245
399.928
248.998
131.5
76.2587
48.8079
34.8053
27.3246
23.2089
20.9876
19.9918
19.9717
20.9152
23.0827
27.1431
34.5761
48.5522
76.0528
131.712
246.304
410.535
426.697
222.921
117.455
67.5822
43.5268
31.531
25.2243
21.7968
19.9853
19.1942
19.1993
19.9918
21.8061
25.2382
31.607
43.7668
68.1517
118.324
218.14
362.303
357.238
201.27
104.192
58.5486
37.8216
27.9275
22.8669
20.1609
18.7408
18.1295
18.1433
18.7781
20.2202
22.9617
28.1339
38.2639
59.447
106.185
204.72
372.328
340.168
185.187
89.5489
48.6862
31.7662
24.0866
20.2873
18.3206
17.3216
16.8962
16.9056
17.3506
18.3826
20.4002
24.3125
32.275
49.7813
91.5396
186.373
342.706
348.616
165.578
73.3154
38.7978
25.8581
20.361
17.7627
16.4849
15.8737
15.63
15.6362
15.8942
16.5261
17.8412
20.5134
26.1693
39.3814
74.2594
166.895
348.714
395.734
144.842
56.6448
29.7566
20.8178
17.3732
15.9141
15.2643
14.9892
14.889
14.8918
14.9989
15.2801
15.9346
17.4145
20.8907
29.9166
56.8926
145.243
397.92
437.707
116.997
40.0749
22.2729
17.2287
15.6163
15.0598
14.8594
14.7845
14.7581
14.7587
14.7897
14.868
15.0697
15.6196
17.2213
22.2361
39.897
116.357
438.978
468.346
59.0686
22.0196
16.4823
15.3439
14.9895
14.8583
14.8106
14.7914
14.7844
14.7848
14.7923
14.812
14.8592
14.9886
15.3379
16.4775
22.0339
59.1317
468.019
980.368
685.197
397.548
244.788
149.649
88.7885
54.3595
36.5932
28.0986
24.87
25.3007
29.1458
37.8626
54.8208
85.3505
140.096
231.925
388.647
683.28
952.202
999.855
692.31
401.549
246.729
149.707
85.9275
51.4588
34.3303
26.3762
23.4338
24.3142
27.8798
36.3245
53.9171
83.4087
140.044
233.126
391.514
689.605
968.588
1010.53
695.153
403.491
247.869
149.86
86.57
52.4172
35.2135
27.1208
23.9165
25.1206
29.1558
37.8921
54.9691
85.6992
139.548
233.576
391.983
691.815
975.85
1028.9
697.228
406.219
248.837
149.42
87.4162
53.4474
36.0271
27.7725
23.9794
25.0211
29.1323
37.7628
54.6331
85.3334
141.109
233.425
391.541
695.882
1037.49
1085.92
698.459
408.184
249.306
148.074
84.8339
51.3728
34.65
27.6815
24.4447
24.4338
28.2975
37.8518
53.118
85.3568
140.884
233.89
390.993
687.567
957.064
986.23
695.728
405.221
248.856
148.526
88.2852
54.3393
36.5464
27.7611
24.0437
25.3243
29.3607
38.0873
54.4991
84.4875
140.27
234.417
390.579
685.296
959.344
998.722
703.165
405.166
247.747
147.061
87.2972
53.7921
36.359
27.1269
24.8575
25.4435
29.3563
38.0154
54.2733
81.9064
139.39
232.346
390.915
689.155
984.928
1008.8
704.11
405.847
245.497
146.44
86.7155
53.2623
36.1265
27.8426
24.7241
25.1829
29.0317
37.6312
54.1091
83.3922
138.81
231.409
392.457
694.028
1029.6
1031.6
701.128
409.524
244.149
146.302
85.3497
52.1494
35.42
27.0736
23.5513
24.1184
27.8678
36.1994
52.4878
84.2513
136.943
228.696
388.42
693.896
1054.5
1082.41
700.796
400.472
240.71
145.86
83.2682
49.289
33.4566
26.6662
23.8208
24.909
28.9362
37.5476
53.9595
82.8692
136.583
227.696
386.816
694.939
1047.76
989.534
689.413
394.462
240.236
146.354
85.0964
52.2374
35.3855
27.61
23.9982
24.7986
28.8121
37.3233
53.9346
84.4184
136.446
225.327
384.275
695.373
1062.13
1055.47
694.207
395.558
240.389
146.822
88.5739
54.6919
36.7223
27.2075
24.2592
23.9155
27.762
35.5989
51.648
83.9288
135.84
224.571
382.474
690.93
1029.5
985.478
685.499
395.588
240.892
146.654
88.0471
53.9971
35.5938
28.1741
23.9976
24.3594
28.7745
36.4062
52.326
83.6779
133.586
223.252
381.277
684.444
974.816
990.977
690.641
395.523
241.216
146.56
87.565
51.6858
36.5179
28.3287
24.9254
24.9704
29.1136
37.3275
52.9707
83.7825
135.247
224.183
381.011
687.296
986.525
1012.21
686.664
395.53
239.477
145.207
85.6032
53.5512
36.3025
27.247
24.6668
23.9791
29.0176
36.6699
54.721
82.4982
137.278
225.358
381.833
690.817
1064.48
1026.06
689.282
395.223
239.046
144.588
85.5901
51.2416
34.5315
27.747
24.8854
24.7757
29.4109
38.5023
55.5557
85.1156
137.543
224.41
383.304
690.72
994.459
1097.03
688.601
395.129
238.684
144.233
86.1346
51.3718
34.6063
27.1425
24.7047
25.3518
29.2433
38.2007
55.4717
83.937
139.371
228.885
386.69
694.15
1059.35
1038.02
685.29
394.423
236.884
143.152
85.1959
50.6576
34.1734
26.5352
24.3907
25.0322
28.1244
36.7518
55.3703
87.82
142.407
232.365
389.764
687.874
988.333
973.893
679.35
394.257
236.476
141.001
82.4922
50.2467
34.2007
26.4965
23.4946
24.8338
29.0178
38.0335
54.1874
87.8193
142.643
233.485
395.604
703.572
1063.83
975.365
681.178
391.901
235.532
140.334
83.7897
51.0032
34.8048
26.8698
23.5051
24.0332
28.7748
38.1369
55.8692
87.8771
142.819
235.716
396.428
705.336
1041.81
984.972
681.289
388.684
231.606
138.233
81.6748
52.8363
36.2198
27.7798
23.757
24.3531
28.3659
37.6017
55.2431
87.0455
141.692
234.271
395.427
704.562
1113.98
984.709
677.177
385.349
230.386
139.533
84.7249
53.1193
36.2069
27.8858
24.269
23.5615
27.0457
36.1488
53.2936
84.8231
140.883
233.776
392.986
694.529
1018.46
997.873
673.497
383.258
229.883
139.747
82.3106
51.2044
35.7016
27.7464
24.0444
24.4417
28.2004
37.7392
54.4546
86.0771
139.668
232.835
392.847
691.025
961.061
1051.79
677.25
384.367
230.388
142.302
84.3307
53.7745
35.138
27.1543
24.6413
25.2473
28.896
37.4472
53.0829
85.2469
139.015
231.748
391.688
693.467
985.527
977.96
676.562
383.188
231.817
142.834
86.5434
54.3027
37.2199
28.8007
25.2789
25.1759
27.9588
36.2247
53.0905
83.1668
137.899
229.926
386.653
689.94
1051.38
1043.79
679.003
387.28
232.845
142.863
85.491
53.7237
36.8433
28.5738
25.1992
25.1101
28.8001
37.1499
53.7205
84.0796
138.504
228.231
382.247
679.203
1013.94
1027.29
687.488
388.598
234.417
142.899
85.7626
51.4852
36.2024
28.2765
25.0527
24.579
28.0352
37.9954
54.8319
84.9321
137.344
226.991
378.031
672.787
988.387
1096.7
687.185
386.858
233.431
141.185
84.9914
53.0145
35.6277
27.1685
24.9148
25.3451
29.1081
37.9472
54.3832
83.9331
138.919
227.461
376.784
667.965
929.6
1024.58
673.942
383.754
233.516
141.188
82.952
51.2113
35.9623
27.8982
24.8802
25.1292
28.0854
37.2621
53.7759
84.9887
138.827
226.697
377.206
669.891
938.347
978.62
671.43
380.88
232.236
140.78
85.6005
53.3475
34.5656
26.4806
24.4974
24.73
28.5352
37.5271
51.8555
84.366
137.682
226.689
377.558
671.095
998.909
1050.27
672.469
381.502
231.125
140.36
83.0849
51.7007
34.62
26.9131
24.5143
25.3051
29.1839
37.5402
53.522
83.3669
138.02
226.843
378.491
668.332
956.298
977.693
662.259
383.418
230.403
139.032
84.5513
53.648
35.2229
27.3752
23.7505
25.1039
29.053
37.9497
54.8112
85.3315
138.629
227.354
378.831
666.19
924.31
905.065
653.15
378.605
229.651
141.15
86.9883
53.5563
36.4772
26.9041
24.093
24.9686
27.8866
36.3889
52.9283
83.0946
137.209
228.492
380.289
670.768
940.464
897.729
651.846
377.527
230.336
142.119
87.1641
54.3298
36.5876
28.109
24.9578
25.1273
28.3381
37.0446
54.2514
84.6015
138.743
229.087
380.909
670.592
1008.46
902.622
652.417
376.645
230.793
141.567
85.1056
52.1654
34.5425
27.7187
24.8711
25.427
28.7304
37.5845
55.7734
86.4772
140.117
229.466
380.992
670.773
996.359
902.738
653.129
377.692
231.561
143.102
88.1268
54.744
35.479
26.7708
23.837
25.2867
29.5072
38.7001
55.9065
86.6353
140.501
229.438
382.317
678.042
1005.48
893.604
654.978
377.21
231.999
144.039
88.4029
54.8822
36.7078
27.4992
24.2146
25.1026
29.342
38.6441
55.6646
86.5797
140.03
230.453
384.189
682.29
991.053
899.078
654.693
378.651
232.266
142.446
87.8062
53.2088
35.5413
28.3229
24.5496
24.1792
28.1452
38.2923
55.4135
86.1622
140.587
230.741
385.552
682.91
1017.28
913.62
665.896
382.226
233.233
143.618
87.8203
55.2241
37.5971
28.6031
23.9132
24.5966
28.7522
38.1307
54.9168
85.4805
140.277
230.948
387.603
691.228
1062.95
931.566
674.238
384.718
233.995
142.9
85.2709
54.5777
37.3796
28.5749
24.1693
23.6826
27.7492
37.8162
54.4793
83.5355
139.345
231.345
388.52
692.783
1084.82
951.344
678.951
386.236
234.733
142.111
87.1431
53.186
36.9358
28.3858
24.8982
24.5216
28.7492
37.6657
53.9518
85.5959
140.424
231.623
388.732
693.469
1051.1
1008.4
679.221
387.124
235.033
140.371
86.8333
54.2839
36.8542
28.2016
24.7656
24.9787
28.7184
37.1524
51.4593
83.8851
141.517
232.025
389.79
692.013
1022.86
996.152
679.351
388.58
236.082
142.332
86.3846
51.8209
34.7646
26.5396
23.3876
23.8304
27.4816
36.8355
52.9031
86.1097
141.975
233.32
390.76
692.585
1097.52
1009.45
678.885
389.927
237.59
143.873
84.2502
51.9322
35.1543
26.8706
23.7793
24.2887
27.6575
35.693
53.6208
84.4712
142.126
233.778
390.856
690.785
1010.1
983.426
672.165
388.534
236.293
143.008
84.2597
51.6717
35.1115
26.8819
24.1589
23.8358
28.0115
35.5248
52.0893
85.1948
140.98
234.409
392.983
692.449
995.303
945.97
673.654
386.848
236.603
141.299
83.2537
51.5619
35.8511
27.4549
24.2863
24.5153
28.0662
35.6526
53.0058
83.6099
141.538
234.066
394.089
702.763
1069.02
954.311
675.104
386.822
234.603
141.328
83.4576
52.5079
35.8633
26.5223
23.9063
23.7688
27.2311
35.9153
51.7591
85.8589
141.524
234.012
395.063
704.162
1043.93
1013.83
677.321
389.251
234.787
141.571
84.6904
51.0804
35.581
27.5584
23.627
24.5068
27.9465
34.8799
53.4087
85.7243
141.235
234.469
395.152
703.015
1120.62
962.32
676.009
387.027
234.54
141.15
83.0862
53.601
34.4883
27.476
24.4387
24.6474
28.0765
35.5038
53.2802
85.3647
141.08
234.974
395.157
697.697
1041.67
973.986
677.361
389.083
233.314
140.156
86.3779
54.0787
35.3979
26.8855
24.284
24.4885
27.9281
36.0808
51.4388
84.4607
140.185
234.392
394.89
699.029
996.66
1036.8
678.811
386.727
233.516
142.082
86.155
54.0553
36.9341
28.1596
24.2625
24.0768
26.995
34.9113
51.731
83.8622
139.083
235.655
396.073
702.645
1075.42
965.291
676.224
385.457
233.737
142.15
85.5519
54.0539
37.1655
28.3242
24.4473
24.5032
27.9724
35.6117
52.4737
83.047
139.613
236.058
397.012
698.667
1020.59
976.747
678.232
387.176
234.624
141.743
82.7594
52.3003
37.067
28.2275
23.4074
23.4151
26.9743
36.075
51.9452
81.9713
137.832
234.939
396.177
696.424
966.889
993.656
682.087
389.962
236.361
141.509
85.5592
55.3369
37.707
28.4334
23.9362
23.9182
27.393
35.8807
49.834
78.66
135.909
233.132
394.692
697.713
969.548
1054.99
685.893
389.887
237.433
145.792
88.6416
55.6908
37.764
28.4254
24.4643
24.4343
27.8792
35.7843
50.6509
80.4461
134.885
234.544
397.712
700.191
986.229
967.212
679.282
390.231
237.885
146.425
88.8983
55.7316
37.6031
28.2301
23.8157
23.6969
27.0676
34.8217
51.6511
82.3109
134.506
230.674
394.402
700.422
977.155
1028.16
685.942
390.308
237.804
146.003
88.2446
55.3685
37.3391
27.5218
24.8942
24.7885
28.3965
36.6854
53.8741
81.3143
136.324
228.765
392.741
705.585
978.227
949.612
678.932
391.413
238.312
146.274
86.4005
54.5316
36.8051
28.5945
25.0138
23.8984
27.339
37.0562
54.3777
85.6052
135.217
225.919
387.103
693.106
978.596
957.241
681.342
390.486
237.8
145.726
89.7116
55.5656
37.3715
28.5521
25.0935
24.4608
27.8074
35.9086
52.4982
86.0032
137.725
227.115
384.364
687.56
983.645
970.927
672.265
388.023
239.664
146.74
89.1691
53.2718
35.3783
27.0201
24.9083
25.1778
28.7978
37.3793
54.1978
86.597
139.009
227.045
385.164
688.766
999.61
1004.66
668.719
387.456
240.421
147.145
89.5269
54.0441
36.1697
27.3855
24.8233
24.957
28.1424
36.6914
55.0885
85.8753
141.064
229.723
387.195
689.627
1051.5
908.991
663.051
386.777
240.024
147.566
87.5681
53.3355
36.6361
27.3285
24.2227
25.3919
29.4751
38.3126
54.2888
87.7484
143.585
232.691
390.933
688.304
979.578
924.206
666.109
388.099
238.932
147.157
88.5256
53.4649
35.4414
28.0901
24.8786
25.3312
29.3284
38.2248
55.3351
87.1279
143.741
235.662
392.541
693.718
1050.69
933.107
668.692
391.752
239.743
146.97
87.8055
54.0054
35.9885
28.0308
24.6652
25.1366
29.1245
37.9317
54.9289
85.3753
143.63
235.848
392.777
694.541
1020.08
993.942
672.05
390.21
237.552
145.874
89.4661
55.4856
36.5149
27.0382
23.3906
24.0811
27.9993
36.4109
53.1571
86.7239
143.437
236.613
394.899
696.648
998.604
936.58
667.718
391.448
237.053
146.392
89.3429
55.1729
35.4347
27.7921
23.9434
25.0429
29.1194
37.8842
54.7086
85.0065
143.14
236.875
395.177
702.017
1016.56
946.676
671.611
388.221
236.348
145.792
87.1762
53.4497
35.9816
27.9265
24.4978
25.2298
28.477
36.7821
53.4826
87.4381
142.023
237.152
396.339
707.83
1097.15
1002.12
673.128
388.121
235.632
144.794
89.2572
55.6138
37.3605
27.8275
23.6436
25.3767
29.6221
38.6398
55.9013
86.4848
142.975
237.593
399.348
705.197
1079.58
953.7
666.993
390.445
237.021
145.387
89.2595
55.4792
37.3899
27.1162
24.3162
25.4304
29.4551
37.5145
55.2672
88.8724
141.591
238.456
399.603
703.911
1050.66
966.812
669.85
385.306
234.381
145.098
89.2453
53.529
37.2475
27.7751
25.0958
25.4427
29.4853
38.4584
56.2828
89.1492
144.84
239.545
400.663
706.16
976.196
1034.64
672.176
383.549
234.436
144.64
88.8449
55.193
37.395
28.4779
24.8321
24.4156
28.89
37.8722
54.2414
87.0323
144.538
240.177
397.573
702.643
974.343
1002.22
667.252
384.043
236.278
143.69
87.9887
54.6
36.8019
27.9618
23.921
24.5274
27.7385
36.4233
54.301
88.1641
144.374
240.416
397.779
702.586
988.353
1049.81
666.527
385.681
234.571
144.644
85.5155
52.0371
34.8766
26.6186
24.1856
24.2009
28.0553
36.3407
53.7325
87.4085
144.469
236.595
396.634
698.21
991.664
1005.18
661.735
382.753
234.224
143.633
86.0594
53.0432
35.7294
26.8977
24.0498
24.1755
27.1065
36.3914
53.7246
86.3426
143.782
235.188
401.51
695.932
1059.84
962.714
660.716
381.935
233.344
142.003
85.0445
51.1381
35.1711
26.2976
22.9975
23.2019
27.2783
35.7485
52.8192
85.4172
142.485
234.165
395.312
692.71
973.702
1022.52
665.7
382.241
233.391
140.862
84.0049
51.6849
33.8844
26.1822
23.3922
22.9707
25.9453
33.5573
50.0535
82.7307
141.032
233.899
391
694.28
980.981
1008.59
660.277
383.367
234.464
139.581
82.8131
50.8277
33.6619
26.4049
23.233
22.6657
25.5973
32.802
48.6506
80.1295
138.921
233.983
393.751
693.819
996.811
986.295
660.984
381.833
232.729
137.37
79.385
48.0971
32.7673
25.9494
22.8985
22.3735
25.1783
31.9422
47.1799
78.4653
137.465
236.511
385.917
695.093
1008.34
999.417
659.081
382.616
233.487
135.523
77.7829
47.1889
32.1229
25.5012
22.5947
22.252
24.8669
31.4133
45.8343
75.7265
134.401
233.428
384.776
697.094
1030.74
1016.19
651.224
375.845
228.227
131.71
75.1238
45.6908
31.2162
24.321
22.1605
21.8355
24.6573
30.769
44.3337
73.5569
130.57
229.544
383.589
694.071
1092.18
1077.58
639.209
369.656
224.184
126.362
73.4839
44.9655
30.6653
24.1277
22.0013
22.172
24.9065
30.8354
43.4957
71.3785
127.25
226.737
383.311
675.718
981.66
966.492
617.645
356.589
214.379
122.229
69.636
43.3461
29.7082
23.8734
21.5655
21.8029
24.5776
30.7067
42.4916
69.0262
122.786
221.314
382.89
674.15
994.775
898.246
603.239
343.179
206.724
118.002
66.8196
40.1759
28.5151
23.2072
20.4625
20.6397
23.3237
30.0461
42.4191
66.3523
118.609
214.664
374.811
669.807
998.658
912.687
595.376
329.888
199.663
111.846
62.2438
38.5067
27.4267
22.1625
20.1947
20.3118
22.7267
28.305
40.0586
64.1957
114.698
208.434
362.551
654.132
1067.21
922.035
586.5
317.755
192.529
106.145
59.0612
36.4292
26.1314
21.5269
19.6781
19.7837
22.0473
27.1711
38.5033
61.4741
110.762
201.469
350.126
617.493
950.132
989.298
584.25
309.772
185.206
99.4685
54.7717
34.4087
25.1453
20.8425
19.1918
19.3644
21.4385
26.1434
36.173
58.2486
104.784
194.446
340.265
598.01