/*--------------------------------*- C++ -*----------------------------------*\
  =========                 |
  \\      /  F ield         | OpenFOAM: The Open Source CFD Toolbox
   \\    /   O peration     | Website:  https://openfoam.org
    \\  /    A nd           | Version:  6
     \\/     M anipulation  |
\*---------------------------------------------------------------------------*/
FoamFile
{
    version     2.0;
    format      ascii;
    class       volScalarField;
    location    "7";
    object      k;
}
// * * * * * * * * * * * * * * * * * * * * * * * * * * * * * * * * * * * * * //

dimensions      [0 2 -2 0 0 0 0];

internalField   nonuniform List<scalar> 
10000
(
0.249013
0.473088
0.445746
0.422454
0.406983
0.396091
0.388691
0.383467
0.380156
0.378532
0.378487
0.379977
0.382953
0.387229
0.393192
0.402494
0.418321
0.442368
0.466327
0.236335
0.257872
0.481257
0.455805
0.433215
0.414028
0.397641
0.389362
0.383692
0.38044
0.378755
0.378765
0.380232
0.383578
0.389253
0.394558
0.404024
0.425957
0.453572
0.473451
0.251518
0.280449
0.482729
0.451502
0.428229
0.410589
0.397568
0.390354
0.384018
0.380028
0.378258
0.378404
0.38038
0.384101
0.388713
0.396805
0.404641
0.418779
0.444056
0.466901
0.230884
0.246553
0.477294
0.442288
0.422049
0.407183
0.398445
0.389968
0.383426
0.379537
0.377837
0.377978
0.379872
0.383659
0.389357
0.395402
0.402141
0.421483
0.445599
0.464277
0.239443
0.223343
0.47612
0.439154
0.416278
0.408645
0.39665
0.389192
0.382892
0.379116
0.37742
0.377483
0.379214
0.382767
0.388104
0.393179
0.401101
0.412993
0.432352
0.456603
0.209352
0.225911
0.459791
0.432916
0.414167
0.402176
0.396913
0.388588
0.382241
0.378633
0.377011
0.377003
0.378497
0.381611
0.386719
0.394347
0.402998
0.418793
0.43829
0.453393
0.214018
0.241724
0.458706
0.4336
0.415948
0.401633
0.394769
0.387784
0.381511
0.378174
0.376669
0.376622
0.377874
0.380438
0.384645
0.390959
0.402033
0.411773
0.430001
0.453685
0.232412
0.215363
0.453773
0.432571
0.421175
0.400709
0.391882
0.386993
0.381647
0.378177
0.376693
0.376729
0.378304
0.380625
0.384861
0.391071
0.399655
0.411757
0.430661
0.453909
0.231298
0.213717
0.460928
0.439944
0.411292
0.3994
0.391157
0.386472
0.381049
0.378079
0.37671
0.376725
0.378076
0.380834
0.385237
0.392045
0.403847
0.419786
0.433934
0.454966
0.23453
0.21653
0.464227
0.435642
0.410992
0.399894
0.390923
0.386101
0.380987
0.378127
0.376807
0.37688
0.378277
0.381206
0.386088
0.394636
0.403262
0.416493
0.438555
0.453714
0.225899
0.214057
0.464494
0.429292
0.410261
0.398611
0.391056
0.385223
0.380893
0.378188
0.376917
0.377134
0.379105
0.382585
0.38778
0.39413
0.400337
0.411862
0.428638
0.455054
0.240446
0.213781
0.456864
0.427766
0.417253
0.403929
0.395063
0.38692
0.381335
0.378412
0.377327
0.377565
0.379279
0.38262
0.387673
0.393233
0.40164
0.413263
0.431688
0.461587
0.223225
0.209782
0.454927
0.427763
0.409307
0.399292
0.393148
0.386716
0.381341
0.378454
0.377389
0.377701
0.379441
0.38273
0.38818
0.394707
0.408075
0.422081
0.435091
0.465212
0.243903
0.213102
0.462647
0.428621
0.410136
0.403657
0.392243
0.385793
0.381356
0.37858
0.377535
0.377915
0.379806
0.38328
0.388438
0.395078
0.407537
0.421475
0.440412
0.463395
0.242469
0.215749
0.451417
0.434935
0.417208
0.401379
0.39242
0.386247
0.381778
0.379129
0.377823
0.378073
0.379803
0.382912
0.388177
0.396266
0.408117
0.422132
0.43768
0.460608
0.241791
0.219257
0.443086
0.428877
0.411592
0.405959
0.396143
0.387558
0.382945
0.379645
0.378132
0.378275
0.379868
0.383194
0.388508
0.396301
0.407022
0.422236
0.446547
0.465775
0.235021
0.232456
0.442298
0.4264
0.412464
0.403985
0.395135
0.38819
0.383374
0.379973
0.378421
0.378547
0.380164
0.383629
0.389275
0.397466
0.408676
0.424663
0.449853
0.47083
0.239084
0.207205
0.44419
0.43683
0.416627
0.404063
0.39489
0.388394
0.383656
0.380261
0.378711
0.378926
0.380921
0.384779
0.390243
0.399471
0.415224
0.434013
0.456668
0.476649
0.244148
0.210753
0.447562
0.431423
0.422863
0.409145
0.396047
0.389761
0.384136
0.380542
0.378947
0.379183
0.381257
0.385362
0.391916
0.40037
0.415516
0.435508
0.463215
0.480494
0.261501
0.210726
0.452304
0.431656
0.4163
0.404821
0.397125
0.389586
0.383996
0.380419
0.378897
0.379179
0.38131
0.385522
0.392485
0.402538
0.416547
0.436685
0.465668
0.480734
0.229532
0.215153
0.454162
0.435826
0.425735
0.410832
0.396202
0.388512
0.383405
0.380255
0.378799
0.379065
0.381074
0.385005
0.39137
0.401284
0.415483
0.435331
0.465288
0.489343
0.232733
0.215825
0.45648
0.436726
0.422546
0.408585
0.3957
0.388191
0.383219
0.380344
0.378878
0.37907
0.381288
0.385299
0.391076
0.401092
0.419544
0.440951
0.460816
0.487497
0.232351
0.221401
0.462222
0.445242
0.418253
0.40567
0.395524
0.388071
0.383033
0.380052
0.378614
0.378915
0.38086
0.384457
0.390912
0.400446
0.413082
0.430513
0.461129
0.488248
0.235559
0.22247
0.462613
0.43755
0.417592
0.408575
0.397253
0.388757
0.383356
0.379803
0.378285
0.378575
0.38049
0.383652
0.3888
0.395902
0.406089
0.420671
0.443779
0.474593
0.250047
0.228595
0.459822
0.436647
0.416781
0.402659
0.393126
0.386579
0.382392
0.37923
0.377886
0.378236
0.380258
0.383684
0.389736
0.395769
0.405758
0.419839
0.442485
0.475396
0.230028
0.233399
0.460313
0.43952
0.422459
0.406947
0.393494
0.386219
0.381931
0.378764
0.377459
0.377831
0.379916
0.383781
0.388502
0.39537
0.405309
0.418182
0.439536
0.46816
0.213689
0.245663
0.45676
0.441674
0.416223
0.400892
0.392876
0.385839
0.381381
0.37849
0.377053
0.377346
0.379308
0.38325
0.389584
0.396206
0.40712
0.423705
0.444227
0.469779
0.214128
0.220869
0.455743
0.432279
0.412782
0.400164
0.391736
0.385647
0.381333
0.3785
0.376919
0.376821
0.378455
0.381932
0.388403
0.398262
0.410476
0.416334
0.435262
0.461179
0.214647
0.22655
0.456556
0.436649
0.416083
0.401805
0.392428
0.385796
0.381402
0.378746
0.377024
0.376861
0.377711
0.380354
0.385691
0.392954
0.403772
0.416196
0.440879
0.461384
0.216582
0.229914
0.465451
0.44431
0.422511
0.407303
0.395911
0.386305
0.381436
0.378433
0.376829
0.376608
0.377686
0.380108
0.384119
0.390099
0.399609
0.418848
0.435476
0.457443
0.214561
0.237333
0.461201
0.42999
0.409975
0.402082
0.393506
0.385747
0.381296
0.37837
0.376789
0.376644
0.377781
0.380274
0.384381
0.390445
0.399585
0.413624
0.432623
0.455769
0.228659
0.254705
0.469369
0.428187
0.407529
0.399401
0.391924
0.385842
0.381449
0.378492
0.377072
0.37679
0.378206
0.38051
0.384719
0.390643
0.400313
0.416917
0.438723
0.457046
0.212712
0.2314
0.464048
0.429072
0.409028
0.405775
0.395993
0.386826
0.381803
0.378832
0.376981
0.376787
0.377943
0.380644
0.385938
0.391094
0.401068
0.423988
0.434503
0.458752
0.212254
0.250404
0.462939
0.430538
0.409398
0.403649
0.394645
0.386831
0.382188
0.378884
0.377107
0.376966
0.378433
0.38082
0.385
0.390826
0.399853
0.418261
0.434431
0.458491
0.226483
0.237068
0.464322
0.436915
0.411575
0.401831
0.393481
0.387471
0.381799
0.378661
0.377316
0.377226
0.378387
0.38131
0.387031
0.39383
0.400843
0.414128
0.441715
0.458568
0.211606
0.219428
0.46238
0.435181
0.411809
0.40637
0.396
0.387003
0.381813
0.378705
0.37723
0.377363
0.378778
0.381332
0.38622
0.392178
0.405351
0.419041
0.441342
0.464276
0.21121
0.217111
0.452908
0.431228
0.412782
0.401716
0.393294
0.387081
0.382055
0.378925
0.377511
0.377183
0.378385
0.38094
0.38514
0.391593
0.403331
0.412651
0.435327
0.460282
0.212708
0.221315
0.454451
0.434384
0.421229
0.407796
0.39682
0.388048
0.3831
0.379667
0.377885
0.377644
0.378563
0.381089
0.385354
0.393221
0.402952
0.412938
0.43436
0.457029
0.20974
0.222383
0.458081
0.438238
0.419163
0.405366
0.395707
0.388339
0.382956
0.379712
0.377992
0.37781
0.379086
0.381491
0.386137
0.390922
0.399755
0.413943
0.44129
0.457133
0.212653
0.227531
0.460165
0.441134
0.424972
0.406816
0.396451
0.388925
0.383769
0.380037
0.37815
0.377865
0.378984
0.382045
0.385584
0.391225
0.399879
0.414065
0.434147
0.457618
0.213549
0.229977
0.467868
0.445572
0.423325
0.408006
0.397612
0.390619
0.384299
0.380289
0.378322
0.377995
0.379065
0.381982
0.387391
0.394425
0.401975
0.415176
0.435138
0.459137
0.231096
0.2452
0.47773
0.449502
0.426017
0.409854
0.398824
0.391044
0.384575
0.38049
0.378494
0.378218
0.379323
0.382188
0.386876
0.393687
0.404302
0.423541
0.44521
0.464726
0.233938
0.250313
0.481736
0.460525
0.435778
0.416345
0.40154
0.391885
0.384961
0.380746
0.378691
0.378408
0.37992
0.382735
0.388478
0.394393
0.405101
0.423076
0.448561
0.47201
0.233612
0.25192
0.486069
0.460769
0.434526
0.415086
0.402051
0.391717
0.384861
0.380747
0.378724
0.378517
0.380024
0.383214
0.388315
0.39537
0.409427
0.422212
0.447944
0.475699
0.239231
0.258532
0.487673
0.470365
0.44275
0.419884
0.401083
0.390798
0.384371
0.38056
0.378655
0.37844
0.379857
0.382661
0.387636
0.395411
0.408989
0.42565
0.442555
0.475808
0.252866
0.256894
0.482215
0.460909
0.434252
0.41489
0.401203
0.391413
0.384779
0.380555
0.378534
0.378282
0.379768
0.383088
0.38914
0.397758
0.408066
0.419015
0.440758
0.470891
0.242981
0.252749
0.479533
0.453102
0.427244
0.410146
0.398131
0.389853
0.384069
0.380533
0.378648
0.378295
0.379759
0.383208
0.388366
0.396118
0.404879
0.419096
0.440646
0.46811
0.262534
0.241393
0.480307
0.460846
0.433365
0.41434
0.399018
0.390824
0.384265
0.380531
0.378613
0.378358
0.379436
0.382254
0.386889
0.394182
0.406484
0.421643
0.441281
0.458995
0.237698
0.250409
0.483727
0.451236
0.424274
0.408689
0.399208
0.390142
0.38441
0.38044
0.378495
0.378236
0.379324
0.382083
0.386654
0.394478
0.400298
0.412508
0.429973
0.45514
0.22536
0.219226
0.470168
0.438902
0.425161
0.409936
0.39687
0.390585
0.384261
0.380259
0.378353
0.378131
0.379309
0.38212
0.386527
0.39252
0.400749
0.418469
0.431549
0.457318
0.247967
0.223959
0.462039
0.434146
0.41402
0.40258
0.395178
0.389628
0.383753
0.37997
0.378154
0.37792
0.37935
0.382333
0.387211
0.395385
0.401211
0.413054
0.430807
0.45361
0.238356
0.24068
0.464337
0.435428
0.414748
0.402756
0.395252
0.389356
0.383445
0.379744
0.378038
0.377925
0.379548
0.3832
0.388527
0.395517
0.404634
0.414059
0.433854
0.458033
0.227789
0.220244
0.462712
0.43608
0.41574
0.403571
0.397142
0.389256
0.383135
0.379408
0.377804
0.377992
0.379686
0.38247
0.387138
0.393481
0.401523
0.41593
0.441839
0.462035
0.239232
0.220264
0.455239
0.435104
0.415778
0.403609
0.39712
0.388849
0.382842
0.379044
0.377456
0.377656
0.379408
0.382827
0.388116
0.395351
0.401747
0.415971
0.441727
0.462492
0.215212
0.240005
0.460041
0.445162
0.425229
0.409251
0.396702
0.388239
0.382595
0.379216
0.377701
0.377657
0.378937
0.38176
0.386143
0.392477
0.401562
0.415815
0.438768
0.467166
0.218459
0.229041
0.459567
0.442384
0.421551
0.406561
0.394429
0.387081
0.381993
0.378864
0.377556
0.377654
0.379065
0.38243
0.386389
0.392695
0.40148
0.415833
0.439086
0.46974
0.217496
0.232587
0.462596
0.442171
0.41981
0.405132
0.394858
0.387459
0.382245
0.378939
0.377527
0.377642
0.379248
0.381936
0.386395
0.392961
0.402013
0.416443
0.439278
0.471792
0.219569
0.239015
0.467612
0.444872
0.42158
0.406066
0.395425
0.387824
0.382839
0.379056
0.377345
0.377423
0.379055
0.382516
0.386831
0.393514
0.402715
0.416108
0.44034
0.471133
0.21812
0.258337
0.479142
0.456866
0.430493
0.411588
0.397494
0.388181
0.382548
0.379023
0.377295
0.377113
0.378492
0.381899
0.388075
0.396283
0.404484
0.417233
0.445623
0.468148
0.220947
0.238047
0.481583
0.45849
0.425667
0.406925
0.395533
0.387758
0.382415
0.379024
0.3773
0.377097
0.378453
0.381532
0.386668
0.394461
0.407739
0.41668
0.436517
0.462072
0.221576
0.25584
0.483737
0.458838
0.429999
0.406557
0.39498
0.387424
0.382268
0.379011
0.377487
0.377197
0.37857
0.381849
0.388286
0.396438
0.403904
0.415743
0.434843
0.459652
0.236506
0.239662
0.482278
0.460758
0.422881
0.405436
0.39457
0.387247
0.382221
0.378998
0.377403
0.377393
0.378607
0.381648
0.38755
0.395877
0.407864
0.417561
0.436444
0.460034
0.223945
0.240356
0.488078
0.459782
0.422111
0.404449
0.394097
0.387044
0.382137
0.378978
0.377398
0.37729
0.378688
0.381558
0.386398
0.393464
0.403502
0.416952
0.436519
0.459475
0.225794
0.241592
0.481095
0.454507
0.421484
0.404118
0.393902
0.386915
0.382087
0.379003
0.377661
0.377645
0.379018
0.382535
0.386791
0.393487
0.404201
0.418278
0.438327
0.462576
0.247916
0.244534
0.474938
0.443842
0.42055
0.403481
0.393595
0.386782
0.3823
0.3791
0.377617
0.377626
0.379304
0.382821
0.388388
0.393971
0.403533
0.41862
0.443231
0.467396
0.237595
0.266236
0.474461
0.442108
0.41765
0.404054
0.394099
0.387033
0.38211
0.378962
0.377369
0.377289
0.378727
0.382116
0.387823
0.394158
0.404494
0.423531
0.438912
0.468689
0.227637
0.256055
0.482329
0.445203
0.419519
0.408767
0.397115
0.388707
0.382998
0.379454
0.377545
0.37731
0.378643
0.381725
0.386844
0.394337
0.40387
0.418012
0.440308
0.468689
0.229925
0.244428
0.476582
0.44547
0.41928
0.403727
0.393846
0.38699
0.382136
0.379071
0.377584
0.377372
0.378577
0.381566
0.386842
0.396166
0.404516
0.417603
0.448096
0.470006
0.249298
0.24653
0.476172
0.453911
0.426498
0.404057
0.39352
0.38682
0.382081
0.379245
0.377629
0.377547
0.378913
0.381442
0.387121
0.394903
0.40683
0.417417
0.44662
0.473533
0.240342
0.25652
0.478988
0.449393
0.422019
0.404089
0.393878
0.387984
0.38236
0.379209
0.37749
0.377349
0.37864
0.380828
0.38461
0.390322
0.39937
0.415796
0.443177
0.469958
0.231636
0.276732
0.482484
0.454499
0.426484
0.405163
0.394248
0.387246
0.382659
0.379187
0.377291
0.37712
0.378621
0.381161
0.38624
0.391829
0.403477
0.418774
0.44896
0.469981
0.240823
0.244246
0.46606
0.438088
0.416709
0.407529
0.396756
0.387632
0.382339
0.379023
0.377307
0.377092
0.378387
0.38111
0.385527
0.391673
0.400411
0.413524
0.437786
0.454549
0.211026
0.234864
0.465858
0.439039
0.417533
0.404308
0.39478
0.387696
0.382622
0.379554
0.377828
0.37762
0.37876
0.381657
0.386616
0.395429
0.406186
0.420115
0.435035
0.455021
0.21404
0.256344
0.466195
0.440134
0.419194
0.40522
0.395366
0.388255
0.383564
0.379975
0.378122
0.377919
0.379103
0.382038
0.38687
0.394136
0.403995
0.417934
0.441825
0.460289
0.215746
0.244946
0.472273
0.446204
0.427042
0.411921
0.399769
0.390581
0.384243
0.380372
0.378506
0.378451
0.380172
0.383703
0.389221
0.395444
0.405398
0.419185
0.440084
0.460807
0.231267
0.228455
0.467142
0.450331
0.426761
0.410345
0.398561
0.390062
0.384055
0.380492
0.378721
0.378719
0.3805
0.384114
0.390327
0.399345
0.411665
0.421674
0.446377
0.461926
0.218096
0.227903
0.467569
0.45015
0.424619
0.408887
0.397588
0.389413
0.383867
0.380559
0.378964
0.379045
0.380912
0.384781
0.390919
0.398895
0.411465
0.422343
0.440752
0.463056
0.221173
0.239207
0.474499
0.451867
0.426683
0.410504
0.398648
0.390057
0.384293
0.380996
0.37935
0.379464
0.381409
0.385191
0.391262
0.401619
0.414473
0.429378
0.447758
0.463167
0.235879
0.243856
0.470562
0.450063
0.435074
0.417805
0.403598
0.393018
0.385936
0.381769
0.379881
0.37998
0.382046
0.386232
0.392644
0.400137
0.410908
0.425073
0.443477
0.462938
0.225993
0.234316
0.469476
0.452841
0.436631
0.419303
0.404787
0.393829
0.386565
0.382313
0.380407
0.380572
0.382784
0.387151
0.393862
0.40178
0.412787
0.426898
0.444739
0.464322
0.229264
0.238446
0.475146
0.457445
0.437925
0.421181
0.407225
0.3955
0.387744
0.383169
0.381168
0.381352
0.383691
0.388414
0.396085
0.407033
0.420278
0.436348
0.448321
0.465904
0.250253
0.260127
0.473565
0.464758
0.44583
0.426806
0.410023
0.397323
0.388994
0.384194
0.382113
0.382297
0.384699
0.389516
0.397274
0.408023
0.4211
0.437112
0.453579
0.468481
0.247758
0.259352
0.472887
0.455113
0.440049
0.425005
0.411005
0.398631
0.390242
0.385335
0.383218
0.383421
0.385938
0.390978
0.399046
0.410224
0.423435
0.439094
0.456332
0.467035
0.252127
0.264009
0.464975
0.455345
0.442286
0.430297
0.413947
0.400914
0.392073
0.38689
0.384653
0.384843
0.387414
0.392598
0.400869
0.412199
0.42543
0.440282
0.455388
0.460963
0.249824
0.266867
0.467411
0.463165
0.449642
0.43264
0.416665
0.403257
0.394153
0.388825
0.386504
0.386696
0.38932
0.394579
0.402863
0.413966
0.425588
0.43733
0.448262
0.451293
0.240609
0.263898
0.453753
0.451888
0.444612
0.432534
0.419019
0.405811
0.396636
0.391205
0.388813
0.388962
0.391574
0.396826
0.405048
0.41559
0.423717
0.431013
0.436035
0.445614
0.256537
0.251426
0.4471
0.450097
0.4456
0.437777
0.422343
0.408974
0.399683
0.394143
0.391642
0.391681
0.394179
0.399296
0.40728
0.417479
0.424714
0.430679
0.432062
0.429708
0.228957
0.257012
0.435543
0.456407
0.452164
0.438808
0.424627
0.411957
0.403025
0.39756
0.394979
0.394887
0.397184
0.402067
0.409659
0.419299
0.426297
0.432463
0.432117
0.425842
0.251037
0.290761
0.432338
0.439949
0.443482
0.436482
0.426275
0.414991
0.406646
0.401393
0.398803
0.398586
0.400653
0.405146
0.412141
0.421037
0.42767
0.434101
0.433947
0.417267
0.233405
0.26744
0.423279
0.43559
0.443485
0.437833
0.42763
0.417859
0.410297
0.405425
0.40295
0.40264
0.404398
0.408408
0.414738
0.423382
0.43306
0.444676
0.449841
0.414978
0.260215
0.246212
0.421392
0.435397
0.443615
0.437002
0.426791
0.419432
0.413221
0.409132
0.407001
0.406705
0.408123
0.411386
0.416438
0.422954
0.428463
0.435727
0.435459
0.411118
0.244011
0.246366
0.419028
0.437348
0.437618
0.431409
0.4249
0.419457
0.414957
0.411966
0.410399
0.410181
0.411211
0.413674
0.417478
0.422269
0.427893
0.44115
0.449072
0.414841
0.25286
0.274677
0.443631
0.443402
0.437299
0.429075
0.422697
0.418012
0.414603
0.412813
0.41194
0.411904
0.412611
0.414313
0.417043
0.422275
0.42526
0.427161
0.426825
0.431306
0.233536
0.24368
0.413735
0.451859
0.439325
0.427064
0.419513
0.41506
0.412528
0.411335
0.410855
0.410924
0.411457
0.412733
0.415088
0.419769
0.425759
0.426827
0.426941
0.406326
0.233814
0.248994
0.424643
0.433921
0.42401
0.416319
0.411601
0.408678
0.406982
0.406232
0.406019
0.406197
0.406709
0.407804
0.409845
0.413477
0.419052
0.428245
0.438185
0.422965
0.241485
0.249384
0.409908
0.425066
0.414698
0.407232
0.402665
0.399973
0.398425
0.397661
0.397406
0.397591
0.398177
0.399299
0.40122
0.404415
0.409425
0.416608
0.425618
0.40846
0.249231
0.281062
0.407997
0.420054
0.405418
0.396776
0.391815
0.388952
0.387286
0.38637
0.385972
0.386121
0.386798
0.387991
0.389955
0.393126
0.398469
0.407475
0.421962
0.408395
0.281003
0.31344
0.440923
0.418792
0.396747
0.386612
0.381507
0.378925
0.377565
0.376868
0.376588
0.376661
0.377103
0.377957
0.379454
0.38219
0.387365
0.397724
0.419584
0.441914
0.314934
0.339972
0.449343
0.409057
0.387237
0.379094
0.376086
0.374955
0.374467
0.374235
0.374159
0.374172
0.374317
0.374588
0.375108
0.376258
0.379216
0.38723
0.408894
0.450105
0.340787
0.365214
0.430662
0.388796
0.378206
0.375655
0.374839
0.374492
0.374337
0.374266
0.37424
0.374245
0.374281
0.374364
0.374521
0.374863
0.375666
0.378168
0.388666
0.430518
0.365001
0.717091
0.969988
0.87665
0.759868
0.641628
0.541052
0.472181
0.431133
0.4095
0.400516
0.401015
0.410181
0.429892
0.465162
0.522463
0.607496
0.713236
0.836567
0.95484
0.68992
0.764657
0.9853
0.90921
0.783218
0.645969
0.540783
0.471136
0.430143
0.408662
0.399525
0.400069
0.409274
0.429005
0.464785
0.524063
0.611892
0.729279
0.861315
0.982769
0.730229
0.747562
0.982803
0.892378
0.768692
0.647399
0.540209
0.470744
0.430137
0.408767
0.397946
0.398307
0.407543
0.427085
0.464296
0.523432
0.617205
0.714941
0.841662
0.976066
0.706897
0.740857
0.969806
0.877501
0.781006
0.641268
0.538807
0.469938
0.429723
0.409207
0.400613
0.401011
0.410185
0.429701
0.464778
0.522902
0.612901
0.714509
0.842167
0.976576
0.686391
0.707989
0.973259
0.877197
0.758977
0.639695
0.537913
0.46949
0.429396
0.408951
0.400693
0.401183
0.410381
0.429832
0.465032
0.523374
0.61076
0.7186
0.860958
0.964358
0.693335
0.715875
0.991486
0.884029
0.762128
0.644923
0.537449
0.468017
0.428022
0.408307
0.400373
0.39993
0.41036
0.430213
0.465783
0.525023
0.615552
0.719222
0.854767
0.9634
0.73777
0.762185
0.981922
0.895916
0.769372
0.636891
0.535048
0.465325
0.425199
0.405821
0.40011
0.401305
0.410421
0.428837
0.465596
0.526333
0.613741
0.721592
0.851162
0.975337
0.735376
0.743912
0.995125
0.863878
0.742678
0.631398
0.538682
0.471607
0.430045
0.407935
0.399524
0.40149
0.410952
0.430472
0.46437
0.52671
0.620514
0.730191
0.835202
0.963563
0.731621
0.731525
0.984804
0.868134
0.744929
0.632138
0.539225
0.473233
0.431944
0.409692
0.401508
0.401927
0.411116
0.43061
0.465701
0.524864
0.610787
0.707687
0.830406
0.962334
0.687026
0.686979
0.964633
0.882293
0.745931
0.633424
0.539838
0.471129
0.430499
0.408889
0.401307
0.401673
0.411115
0.431177
0.466466
0.523386
0.604501
0.706956
0.830755
0.955097
0.692014
0.688662
0.962286
0.859245
0.748609
0.636202
0.541397
0.474884
0.433722
0.411154
0.401451
0.401352
0.410494
0.430305
0.465511
0.525089
0.605039
0.705319
0.830301
0.958278
0.701339
0.703646
0.985639
0.880834
0.754222
0.638906
0.542125
0.47476
0.433268
0.410631
0.400919
0.399577
0.409756
0.429678
0.464661
0.523137
0.609964
0.707426
0.84588
0.969474
0.736433
0.713393
0.981155
0.864572
0.767307
0.647187
0.54319
0.474743
0.433316
0.410527
0.400802
0.400481
0.409161
0.427536
0.464092
0.521364
0.602356
0.705339
0.829213
0.935024
0.674893
0.761359
0.986167
0.862275
0.758898
0.642152
0.541282
0.471632
0.431893
0.409601
0.398802
0.399756
0.407496
0.427408
0.463159
0.521923
0.604709
0.716834
0.8221
0.93809
0.71474
0.751828
0.978857
0.860556
0.744028
0.635684
0.541365
0.471259
0.431148
0.40777
0.399983
0.398903
0.4077
0.427641
0.464731
0.522685
0.605488
0.711253
0.828516
0.947607
0.667356
0.744581
0.980104
0.859262
0.74119
0.633596
0.540616
0.472191
0.428896
0.409383
0.400448
0.400271
0.408768
0.428358
0.465211
0.524652
0.607737
0.715465
0.833754
0.957018
0.668976
0.716461
0.995906
0.860329
0.7399
0.632308
0.539587
0.471637
0.429131
0.40747
0.399751
0.40007
0.408647
0.42666
0.464582
0.523987
0.610806
0.732481
0.854464
0.958929
0.679027
0.742246
0.96764
0.855085
0.735841
0.630291
0.53676
0.467864
0.429615
0.408294
0.398019
0.399384
0.408535
0.428648
0.464647
0.523921
0.611794
0.732215
0.854764
0.966238
0.683296
0.681838
0.961275
0.856814
0.735679
0.630537
0.535152
0.466514
0.426079
0.40557
0.397244
0.397802
0.408194
0.428157
0.463978
0.524243
0.615862
0.731696
0.857794
0.990909
0.696585
0.716644
0.967997
0.860942
0.734168
0.635207
0.535229
0.466155
0.426397
0.406572
0.398179
0.398819
0.408238
0.428197
0.462561
0.523541
0.610324
0.722415
0.850713
0.989825
0.702499
0.676641
0.98137
0.865521
0.730258
0.623882
0.532429
0.465243
0.427877
0.40501
0.396552
0.39731
0.407659
0.42807
0.464145
0.524212
0.611147
0.72277
0.853284
0.980308
0.712939
0.685307
0.953039
0.857386
0.730061
0.623751
0.532112
0.465226
0.428244
0.407218
0.398918
0.399429
0.406799
0.427756
0.463881
0.523661
0.61573
0.726563
0.870806
0.990537
0.740728
0.720464
0.946068
0.839511
0.727828
0.622887
0.532135
0.467619
0.428491
0.405616
0.397451
0.39924
0.407924
0.427105
0.462282
0.522244
0.608638
0.725936
0.855756
0.968322
0.695272
0.66948
0.947249
0.84409
0.731599
0.624012
0.531814
0.468421
0.429687
0.408322
0.399341
0.399348
0.407588
0.425602
0.461522
0.520561
0.608091
0.738321
0.870765
0.975118
0.737791
0.670314
0.947017
0.845802
0.733567
0.624987
0.530888
0.468176
0.429444
0.408448
0.399342
0.399186
0.407602
0.426753
0.461498
0.520802
0.606055
0.719001
0.832057
0.975479
0.711227
0.681519
0.963006
0.8657
0.739997
0.628163
0.531404
0.468102
0.429318
0.408262
0.399274
0.398724
0.406899
0.425981
0.46128
0.518779
0.60759
0.729187
0.828256
0.941169
0.747799
0.687108
0.947844
0.852595
0.744654
0.635936
0.533838
0.467072
0.42782
0.406854
0.399206
0.398235
0.405691
0.424261
0.461051
0.517111
0.598036
0.702553
0.826587
0.925662
0.687655
0.697483
0.945609
0.855867
0.762191
0.640126
0.539091
0.474173
0.433777
0.410868
0.400018
0.398016
0.40666
0.426253
0.461656
0.519222
0.603884
0.693942
0.800045
0.914409
0.655294
0.726974
0.945786
0.873455
0.754981
0.643444
0.54073
0.475408
0.434617
0.411761
0.399386
0.399311
0.409268
0.428426
0.461375
0.519095
0.600394
0.697568
0.803983
0.918495
0.696239
0.660929
0.936656
0.855462
0.743131
0.644927
0.547398
0.477325
0.434709
0.413088
0.402557
0.40129
0.41004
0.428816
0.463656
0.522046
0.608976
0.700616
0.809479
0.920254
0.665753
0.670281
0.94159
0.84566
0.743241
0.649103
0.550042
0.480259
0.437959
0.413467
0.402862
0.400689
0.410036
0.427771
0.462842
0.522008
0.60745
0.713332
0.82794
0.92554
0.699222
0.695387
0.949214
0.852961
0.747662
0.646427
0.54908
0.478962
0.437349
0.411372
0.402961
0.402182
0.410729
0.430522
0.465125
0.522806
0.60383
0.699807
0.819327
0.927492
0.660583
0.626758
0.963126
0.86257
0.75289
0.643179
0.548476
0.479781
0.437244
0.413324
0.402348
0.400132
0.409787
0.430079
0.465938
0.523081
0.610469
0.701469
0.82506
0.934901
0.701625
0.631478
0.967923
0.887806
0.773951
0.6512
0.54817
0.475739
0.432662
0.409074
0.39935
0.400106
0.407637
0.427648
0.464482
0.522415
0.60343
0.702064
0.815248
0.935529
0.675551
0.639489
0.971478
0.876287
0.762202
0.640006
0.544637
0.474187
0.433138
0.409121
0.39946
0.39976
0.407514
0.427593
0.464429
0.523755
0.611998
0.707604
0.819805
0.944193
0.686289
0.648597
0.969499
0.865394
0.753619
0.638965
0.542552
0.471937
0.431775
0.408297
0.399537
0.399028
0.406515
0.426204
0.463054
0.524738
0.612202
0.722461
0.837474
0.954859
0.701551
0.659217
0.955435
0.875661
0.76452
0.640717
0.538922
0.467811
0.427614
0.408197
0.398961
0.398509
0.406007
0.425807
0.462627
0.523277
0.610066
0.715247
0.832112
0.960768
0.718875
0.694082
0.952693
0.844402
0.738747
0.641883
0.536442
0.466877
0.426958
0.407422
0.398194
0.397941
0.405846
0.425304
0.462359
0.522121
0.605859
0.709049
0.829587
0.970985
0.773521
0.693342
0.969659
0.850238
0.74124
0.633741
0.53326
0.465993
0.42604
0.404951
0.395972
0.39581
0.403047
0.422563
0.461573
0.522969
0.607536
0.711541
0.844354
0.982959
0.749051
0.702393
0.966545
0.869231
0.75571
0.633957
0.533192
0.463407
0.427854
0.406521
0.396569
0.397125
0.403803
0.422597
0.459906
0.523988
0.616421
0.722399
0.83941
0.9596
0.708779
0.693541
0.953288
0.858085
0.733331
0.62508
0.531752
0.465961
0.428617
0.405416
0.397515
0.397639
0.404598
0.423887
0.45828
0.521399
0.6109
0.710337
0.838894
0.939438
0.742082
0.669643
0.949895
0.849506
0.736736
0.628132
0.533412
0.46688
0.429055
0.408095
0.397061
0.396954
0.406238
0.424971
0.458743
0.519505
0.605116
0.709644
0.83554
0.935288
0.674585
0.676617
0.969592
0.854357
0.74001
0.634538
0.533543
0.465926
0.428271
0.408724
0.39962
0.399144
0.407031
0.425446
0.459445
0.517963
0.610471
0.721464
0.825941
0.93938
0.683442
0.685853
0.962372
0.861291
0.745677
0.631509
0.535455
0.467466
0.429613
0.40908
0.399815
0.399327
0.407134
0.425512
0.459369
0.516392
0.600111
0.707373
0.827084
0.945696
0.691354
0.71675
0.972862
0.877482
0.759398
0.633915
0.536507
0.469004
0.427232
0.408442
0.399783
0.399519
0.407482
0.425884
0.45935
0.516757
0.600131
0.708039
0.833492
0.954497
0.681818
0.669846
0.950059
0.851807
0.741749
0.636195
0.536323
0.466708
0.427931
0.407156
0.398328
0.398123
0.406291
0.425887
0.458575
0.517099
0.600415
0.710193
0.837336
0.960355
0.693987
0.706174
0.964705
0.869062
0.74651
0.635963
0.536269
0.47044
0.431243
0.410094
0.400947
0.400641
0.408801
0.426234
0.46199
0.518492
0.601081
0.712641
0.857924
0.98286
0.702104
0.670763
0.943117
0.845889
0.754824
0.630321
0.537918
0.468662
0.430994
0.410382
0.401367
0.401149
0.409539
0.428471
0.462776
0.520217
0.601405
0.721417
0.844831
0.968017
0.713582
0.677007
0.940369
0.843227
0.730583
0.62823
0.537646
0.471821
0.430046
0.408454
0.400984
0.400896
0.40927
0.428237
0.462326
0.519127
0.600996
0.706706
0.83028
0.953588
0.744876
0.717961
0.938675
0.860709
0.73182
0.629838
0.53684
0.471421
0.432284
0.41084
0.401252
0.400715
0.409171
0.428099
0.462007
0.521023
0.602681
0.707221
0.831636
0.950764
0.687133
0.680824
0.937129
0.834043
0.728533
0.634841
0.535896
0.467996
0.43138
0.410557
0.400902
0.400002
0.407717
0.428465
0.463587
0.521381
0.609985
0.712467
0.853065
0.959599
0.701413
0.689596
0.941737
0.832456
0.729795
0.63012
0.533475
0.467663
0.430545
0.409963
0.400502
0.398664
0.40863
0.427405
0.46239
0.520519
0.604814
0.713327
0.841486
0.962133
0.734346
0.736933
0.960217
0.836799
0.732034
0.627944
0.532004
0.467378
0.42935
0.408996
0.400337
0.400214
0.40896
0.428961
0.463742
0.52161
0.6072
0.717739
0.857641
0.976476
0.68028
0.698216
0.947653
0.839992
0.749333
0.623498
0.530642
0.464259
0.425576
0.406228
0.399569
0.399975
0.407448
0.428996
0.464663
0.523585
0.612891
0.730322
0.839486
0.958696
0.71604
0.661491
0.937692
0.838631
0.736879
0.623164
0.530005
0.466294
0.426326
0.407347
0.399309
0.400004
0.409353
0.428952
0.463264
0.523413
0.611618
0.725852
0.856656
0.974692
0.683407
0.662656
0.94305
0.851007
0.725071
0.627726
0.529621
0.463904
0.425803
0.406932
0.397401
0.39945
0.409139
0.428184
0.464492
0.523282
0.608226
0.71877
0.83884
0.960285
0.697215
0.674118
0.948781
0.838567
0.723597
0.619216
0.529998
0.466605
0.427834
0.407109
0.398007
0.398051
0.408898
0.429706
0.465601
0.523679
0.613979
0.704861
0.81759
0.942396
0.731827
0.680831
0.951885
0.859967
0.729889
0.621742
0.531159
0.467181
0.427687
0.40667
0.396467
0.398495
0.406992
0.427162
0.463382
0.522776
0.609108
0.704282
0.814579
0.935779
0.728509
0.724485
0.968807
0.859169
0.732927
0.624119
0.532011
0.467319
0.425597
0.406694
0.398057
0.398746
0.40754
0.427741
0.463713
0.522644
0.610501
0.710345
0.82134
0.94035
0.728813
0.689227
0.956749
0.862513
0.74805
0.632486
0.533742
0.468298
0.427529
0.406559
0.396153
0.398155
0.408103
0.428242
0.464174
0.522746
0.608837
0.715578
0.829703
0.945873
0.716499
0.657773
0.941475
0.853766
0.741557
0.631523
0.534977
0.468303
0.42482
0.406146
0.396337
0.39629
0.40756
0.428079
0.464502
0.524627
0.61761
0.725667
0.840095
0.963868
0.68636
0.662147
0.940968
0.872921
0.755679
0.629161
0.535135
0.469485
0.426949
0.405745
0.397429
0.397164
0.407088
0.42641
0.464158
0.525585
0.619764
0.741551
0.846706
0.960389
0.693363
0.703235
0.955328
0.853425
0.742026
0.629027
0.535331
0.470596
0.430445
0.408768
0.399542
0.397806
0.406486
0.428414
0.46358
0.526741
0.622949
0.74071
0.860735
0.952947
0.710662
0.677987
0.948938
0.87272
0.759937
0.636773
0.537888
0.471732
0.431458
0.409774
0.400169
0.398754
0.408399
0.429387
0.466514
0.527937
0.62335
0.735327
0.850324
0.952917
0.751175
0.660074
0.942663
0.842431
0.749977
0.633338
0.537635
0.47145
0.429165
0.409836
0.400463
0.399914
0.407102
0.428943
0.466545
0.527544
0.62089
0.720526
0.840558