/*--------------------------------*- C++ -*----------------------------------*\
  =========                 |
  \\      /  F ield         | OpenFOAM: The Open Source CFD Toolbox
   \\    /   O peration     | Website:  https://openfoam.org
    \\  /    A nd           | Version:  6
     \\/     M anipulation  |
\*---------------------------------------------------------------------------*/
FoamFile
{
    version     2.0;
    format      ascii;
    class       volScalarField;
    location    "7";
    object      nut;
}
// * * * * * * * * * * * * * * * * * * * * * * * * * * * * * * * * * * * * * //

dimensions      [0 2 -1 0 0 0 0];

internalField   nonuniform List<scalar> 
10000
(
1.52994e-05
6.98664e-05
0.000107816
0.000153177
0.000210337
0.00027837
0.000353859
0.000427649
0.000487645
0.000521386
0.000521461
0.000489339
0.000432232
0.00035987
0.000283122
0.000213127
0.000155607
0.000109574
6.97795e-05
1.45034e-05
1.50448e-05
7.00382e-05
0.00010881
0.000157816
0.00021514
0.000281328
0.000359312
0.000436203
0.000499925
0.000535656
0.000527132
0.000492883
0.000435763
0.000367614
0.000285126
0.000213382
0.000159601
0.000112479
7.04441e-05
1.53357e-05
1.7886e-05
7.06861e-05
0.000108592
0.000155713
0.000212198
0.000280236
0.000356232
0.000428976
0.000489456
0.000529217
0.000528593
0.000500594
0.000441408
0.000362698
0.000288153
0.000213207
0.000153181
0.000108823
6.90444e-05
1.25828e-05
1.43134e-05
6.89689e-05
0.000102677
0.00014889
0.000207909
0.00028112
0.000355636
0.00042799
0.000487496
0.000521729
0.000527125
0.000493539
0.000434922
0.000363243
0.000284312
0.000210957
0.000158177
0.000111728
6.94713e-05
1.46216e-05
1.28502e-05
6.8815e-05
0.000104879
0.000149014
0.000209557
0.000278576
0.000358283
0.000434497
0.000495739
0.000520364
0.000518126
0.000484168
0.000426693
0.000356062
0.000279472
0.0002093
0.000151702
0.000105405
6.7813e-05
1.27762e-05
1.32211e-05
6.52533e-05
0.000102227
0.000147409
0.000204064
0.000277881
0.00035369
0.000426849
0.000489581
0.000518768
0.000516872
0.000482393
0.000424521
0.000354136
0.000281289
0.000211501
0.000153343
0.000107743
6.72649e-05
1.36887e-05
1.4843e-05
6.42203e-05
0.000102295
0.000147805
0.000201158
0.000274506
0.000352593
0.000425183
0.000485145
0.000517243
0.000516123
0.000481527
0.000422916
0.000353258
0.000276792
0.000210149
0.000150059
0.000101959
6.64802e-05
1.58305e-05
1.10488e-05
6.36359e-05
0.00010158
0.000149392
0.000201697
0.000272926
0.000357061
0.000429265
0.000487471
0.000520939
0.000524949
0.00048508
0.000423449
0.000351044
0.000276889
0.000208703
0.000150357
0.0001039
6.6323e-05
1.52475e-05
1.2176e-05
6.5196e-05
0.000102583
0.000141506
0.000200001
0.000271776
0.000356635
0.000436277
0.000493419
0.000523906
0.000521223
0.00048457
0.000423923
0.00035155
0.000278034
0.000212432
0.000153758
0.00010378
6.59134e-05
1.49885e-05
1.11534e-05
6.5101e-05
0.00010005
0.000140658
0.00020014
0.00027102
0.000354004
0.000435049
0.000500213
0.000533427
0.00053099
0.000488644
0.000426899
0.000354092
0.000282616
0.000212299
0.000152543
0.000106779
6.54157e-05
1.24206e-05
1.15391e-05
6.40284e-05
9.67614e-05
0.000140289
0.00019818
0.000271201
0.000355734
0.000431326
0.00049547
0.000524272
0.000524345
0.000497777
0.000437774
0.000361187
0.000282224
0.000209356
0.000150534
0.000103337
6.65293e-05
1.51313e-05
1.06961e-05
6.25161e-05
9.79262e-05
0.000146881
0.000205044
0.000276918
0.000354807
0.000435661
0.000492055
0.000525347
0.000526556
0.000497789
0.000436964
0.000359398
0.00028139
0.000210709
0.00014937
0.000104365
6.85094e-05
1.40364e-05
1.20784e-05
6.20356e-05
9.69247e-05
0.000137571
0.000199173
0.000275224
0.000354579
0.000430264
0.000492119
0.000528539
0.000536053
0.00050151
0.000438942
0.000360936
0.000283854
0.000217781
0.000157788
0.000105449
6.90826e-05
1.65933e-05
1.22535e-05
6.60855e-05
0.000101863
0.000143361
0.000204713
0.000275287
0.000358974
0.000439296
0.00050401
0.000533065
0.000538016
0.000503648
0.000441413
0.000362408
0.000284255
0.000216637
0.000156836
0.000107701
6.81786e-05
1.58491e-05
1.25785e-05
6.38663e-05
0.000105311
0.000151927
0.000204858
0.000276715
0.000359641
0.000436443
0.000503512
0.000533916
0.0005389
0.000504552
0.000441396
0.000362522
0.000285668
0.000216365
0.000154926
0.000105041
6.68924e-05
1.54248e-05
1.17889e-05
6.30685e-05
0.000101482
0.000147093
0.000208224
0.000282888
0.000360658
0.000439572
0.000506136
0.000536578
0.000537084
0.000502029
0.000441019
0.000366774
0.00028684
0.000214191
0.000156279
0.000109984
6.76984e-05
1.28529e-05
1.41124e-05
6.33358e-05
0.000102772
0.000145757
0.000208229
0.0002821
0.00036352
0.0004477
0.000504636
0.000538964
0.000545717
0.000510769
0.000447291
0.000366374
0.000288179
0.000216309
0.000156012
0.000111023
6.90243e-05
1.33547e-05
1.17201e-05
6.38347e-05
0.000107628
0.000152845
0.000211147
0.000284393
0.000369306
0.000449517
0.000505937
0.00053862
0.000538147
0.000503775
0.000443601
0.000367902
0.000291283
0.000223764
0.000163866
0.000113001
7.02044e-05
1.3655e-05
1.10541e-05
6.44497e-05
0.000102539
0.000154455
0.000215777
0.000284687
0.000369453
0.000449163
0.000513401
0.000549261
0.000548933
0.000512975
0.000451877
0.000376751
0.000294705
0.0002234
0.000162853
0.000115091
7.08633e-05
1.58426e-05
1.24751e-05
6.57526e-05
0.000102664
0.000152239
0.000211004
0.000285823
0.000365283
0.000441786
0.000503439
0.000539297
0.000540334
0.000504453
0.000445335
0.000373861
0.000296209
0.000224117
0.000163274
0.000116037
7.12339e-05
1.3135e-05
1.15599e-05
6.5338e-05
0.000103933
0.000158972
0.000218274
0.000285221
0.000366349
0.000440872
0.00050175
0.000537933
0.000545866
0.000503043
0.000446282
0.0003685
0.000295027
0.000222385
0.000161917
0.000114999
7.32171e-05
1.29045e-05
1.2518e-05
6.63477e-05
0.000105319
0.000156235
0.000215297
0.000283575
0.000363412
0.000445124
0.000502802
0.000536756
0.000542109
0.000501516
0.000440321
0.000365194
0.000290857
0.000225943
0.000165262
0.000111725
7.20135e-05
1.40599e-05
1.20567e-05
6.77007e-05
0.00010871
0.000152299
0.000211647
0.000284944
0.000367339
0.000440987
0.000500952
0.000534527
0.000540321
0.000500807
0.000438611
0.000364922
0.000290211
0.000219765
0.000159475
0.000111349
7.26582e-05
1.42476e-05
1.36315e-05
6.79964e-05
0.000104039
0.000151017
0.000213332
0.000286111
0.000368054
0.000448928
0.000509918
0.000535952
0.000537605
0.000504554
0.000441602
0.000361346
0.000283734
0.000212839
0.000153257
0.000104598
6.9959e-05
1.61974e-05
1.27872e-05
6.65515e-05
0.000102027
0.000148264
0.000207574
0.00028197
0.000361816
0.000443251
0.000504884
0.000537908
0.000528688
0.000493259
0.000433885
0.00036254
0.00028495
0.000212246
0.000153101
0.000105451
7.01782e-05
1.38061e-05
1.3536e-05
6.69751e-05
0.00010552
0.000154281
0.000210795
0.000280805
0.000363914
0.00043731
0.000495947
0.000527702
0.000525324
0.000491523
0.000433811
0.000360608
0.000284176
0.000213181
0.000152253
0.000102737
6.79017e-05
1.20118e-05
1.50256e-05
6.58741e-05
0.000105509
0.000148113
0.000204589
0.000277877
0.000358408
0.000438067
0.000500089
0.000532537
0.000530975
0.0004929
0.000433612
0.000363719
0.000286727
0.000215764
0.000156504
0.000108537
6.7781e-05
1.19817e-05
1.27222e-05
6.54809e-05
0.000102752
0.000148178
0.000205451
0.000275439
0.000353593
0.000429489
0.000489309
0.000520548
0.00051719
0.000484728
0.000427589
0.000359192
0.000288718
0.000220166
0.000153816
0.000105544
6.68943e-05
1.22407e-05
1.22033e-05
6.48796e-05
0.000104074
0.000149631
0.000206452
0.000277401
0.000357781
0.000431935
0.000491908
0.000527652
0.000520396
0.000485426
0.000429511
0.000357148
0.000280905
0.000211585
0.000151602
0.000106922
6.69048e-05
1.13321e-05
1.38902e-05
6.79497e-05
0.000106714
0.000152284
0.000210657
0.000280529
0.000354383
0.000435914
0.00049556
0.00052198
0.000520512
0.000490349
0.000424217
0.000350447
0.000275624
0.000207937
0.000154348
0.000105836
6.70421e-05
1.28432e-05
1.30043e-05
6.62723e-05
0.000102191
0.000146152
0.000207002
0.000277003
0.00035156
0.000427151
0.000486953
0.000519781
0.000525191
0.000489926
0.000424524
0.000350823
0.000275797
0.000207493
0.000149969
0.000104285
6.63744e-05
1.45728e-05
1.58652e-05
6.90765e-05
0.000101275
0.0001421
0.000201911
0.000274652
0.000352391
0.000428911
0.000488694
0.000521437
0.000520089
0.000486358
0.000424683
0.000352061
0.000276414
0.00020693
0.000151305
0.000105441
6.57887e-05
1.13905e-05
1.41276e-05
6.76715e-05
0.000101681
0.000146669
0.000211141
0.000281906
0.000355423
0.000436662
0.000494296
0.000531847
0.00052471
0.000488419
0.000427054
0.000354435
0.000276602
0.000208969
0.000157571
0.000103535
6.66352e-05
1.28262e-05
1.65207e-05
6.73571e-05
0.000101101
0.000145067
0.000210482
0.000279877
0.000355619
0.000432895
0.000499181
0.00053297
0.000528296
0.00049971
0.000435784
0.000357783
0.000277997
0.000208566
0.000154167
0.000104297
6.63882e-05
1.454e-05
1.42693e-05
6.74185e-05
0.000105819
0.000149047
0.000209195
0.000278989
0.00035778
0.000436794
0.000495148
0.00052998
0.000528794
0.000493732
0.000433145
0.00036023
0.000282782
0.000209796
0.000150986
0.000107499
6.55232e-05
1.15112e-05
1.13398e-05
6.70917e-05
0.000103955
0.00014735
0.0002136
0.000283327
0.000357786
0.000432288
0.000494294
0.000536409
0.000537861
0.000502662
0.000439122
0.000360012
0.000281263
0.00021449
0.000154154
0.000107011
6.79858e-05
1.21215e-05
1.25005e-05
6.6072e-05
0.000105108
0.000148222
0.00020883
0.000280204
0.000358687
0.000432463
0.000493403
0.000528121
0.000527408
0.000492994
0.000432435
0.000359715
0.000280791
0.00021095
0.000147811
0.000103313
6.68967e-05
1.13082e-05
1.16848e-05
6.61805e-05
0.000106225
0.00015616
0.000215264
0.000285706
0.000363645
0.00043568
0.000495716
0.00053126
0.000536642
0.000502416
0.000437642
0.000358161
0.000283424
0.000213507
0.000152352
0.000105953
6.70429e-05
1.23882e-05
1.26707e-05
6.73535e-05
0.000107344
0.000151168
0.000210029
0.000282351
0.000360882
0.000435313
0.000497211
0.000537734
0.000531988
0.000499858
0.000434269
0.000359542
0.000280124
0.000209327
0.000152869
0.000109247
6.73746e-05
1.16243e-05
1.21912e-05
6.78249e-05
0.000107697
0.000157235
0.000213034
0.0002842
0.000366593
0.000440509
0.000499028
0.000532022
0.000529298
0.000494346
0.00043489
0.000358701
0.000282312
0.000211426
0.000151581
0.000104411
6.82792e-05
1.36559e-05
1.4671e-05
7.06175e-05
0.000110294
0.000153495
0.000212319
0.000285854
0.000365644
0.00044083
0.000506199
0.000540336
0.000531585
0.000496019
0.00044064
0.000363116
0.000286667
0.000214805
0.000155689
0.000107214
6.84009e-05
1.59151e-05
1.6237e-05
7.27349e-05
0.000110721
0.000157473
0.000215669
0.000288101
0.000370421
0.000445986
0.000500019
0.000531459
0.000530166
0.000496924
0.000440452
0.000362182
0.00028525
0.00021636
0.000161275
0.000111419
6.92038e-05
1.55177e-05
1.67865e-05
7.33548e-05
0.000115523
0.00016237
0.00022155
0.000290247
0.000367947
0.000440697
0.000499236
0.000531621
0.000531212
0.000499771
0.000442054
0.000368199
0.00028751
0.0002167
0.000159969
0.000112375
7.07442e-05
1.38379e-05
1.64852e-05
7.38465e-05
0.000115392
0.000160951
0.000218948
0.000290655
0.000370787
0.000440013
0.000498236
0.000530484
0.00053091
0.00050397
0.000439187
0.000364992
0.000287995
0.000221139
0.000158056
0.000111379
7.15558e-05
1.45944e-05
1.71784e-05
7.40686e-05
0.00011999
0.000167242
0.000223967
0.000288146
0.000363716
0.000438767
0.000498225
0.000530413
0.000529338
0.000495939
0.000436266
0.000363393
0.000288052
0.000220758
0.00016107
0.000108468
7.09075e-05
1.57788e-05
1.6747e-05
7.25029e-05
0.000115096
0.000161887
0.00021871
0.000288933
0.000365486
0.00044149
0.00049932
0.00053052
0.000528947
0.000495409
0.00043756
0.000366778
0.000291789
0.000220169
0.000156864
0.000108157
6.95606e-05
1.44088e-05
1.5949e-05
7.16299e-05
0.00011113
0.000156377
0.000213264
0.000285092
0.000362315
0.000446189
0.000501639
0.000530051
0.000527379
0.000493594
0.000437176
0.000365243
0.000289581
0.000216933
0.000156843
0.000108867
6.95592e-05
1.68908e-05
1.30855e-05
7.1317e-05
0.000113675
0.000158669
0.00021675
0.000286679
0.000362702
0.000440774
0.000502316
0.000529752
0.000527407
0.000492483
0.000436094
0.000363663
0.000288719
0.000219273
0.000158072
0.000109288
6.73477e-05
1.42555e-05
1.52775e-05
7.32132e-05
0.000110506
0.000153288
0.000210986
0.000284738
0.00036013
0.000435389
0.000493748
0.000526586
0.000527103
0.000492411
0.000439824
0.000365973
0.000287711
0.000212866
0.000151358
0.000102927
6.64951e-05
1.38048e-05
1.29202e-05
6.97968e-05
0.000106294
0.000155468
0.000213519
0.000280631
0.000364535
0.000442771
0.000494422
0.000525822
0.000529088
0.000489385
0.000430878
0.000359769
0.00028377
0.000213137
0.000156024
0.000104773
6.70995e-05
1.65433e-05
1.35931e-05
6.83292e-05
0.000104567
0.000149849
0.0002079
0.00027878
0.000359616
0.000438087
0.000491487
0.00052232
0.000521383
0.000488705
0.000431535
0.000360674
0.0002876
0.000213555
0.000153353
0.000103771
6.58639e-05
1.46635e-05
1.51743e-05
6.86558e-05
0.000103812
0.000150107
0.000208054
0.000280059
0.000361806
0.000432344
0.000489716
0.000521322
0.000520855
0.000489492
0.000434504
0.000366677
0.000288108
0.000217345
0.00015332
0.000106769
6.70143e-05
1.18936e-05
1.19122e-05
6.83912e-05
0.000106358
0.000151096
0.000209045
0.000282796
0.00036058
0.000430491
0.000487515
0.000518645
0.000519273
0.000488815
0.000432508
0.000362593
0.000285095
0.000213343
0.000155357
0.000110451
6.86116e-05
1.46916e-05
1.37796e-05
6.67697e-05
0.000105971
0.00014824
0.000206766
0.000281914
0.000357487
0.000430012
0.000487189
0.000518267
0.000518767
0.000488695
0.000436939
0.000362875
0.000287216
0.000211984
0.000153437
0.000109897
6.89487e-05
1.27775e-05
1.5687e-05
6.69314e-05
0.000110394
0.000158107
0.000214624
0.000281598
0.000356306
0.000429883
0.000493812
0.000520109
0.000518672
0.000486108
0.00042935
0.00036046
0.00028139
0.000209933
0.000151649
0.000107197
6.97692e-05
1.18573e-05
1.26589e-05
6.70882e-05
0.000108486
0.00015444
0.000211338
0.000278402
0.000354698
0.000428209
0.000486515
0.000518025
0.000517017
0.000484639
0.000428803
0.000356119
0.000279954
0.000208927
0.00015057
0.000106448
7.04938e-05
1.25812e-05
1.33435e-05
6.78832e-05
0.000107612
0.000150102
0.000208563
0.000278475
0.000355699
0.000430443
0.000487953
0.00051885
0.000517266
0.000485019
0.000428131
0.00035729
0.000278874
0.000208136
0.000149916
0.000105771
7.09168e-05
1.19691e-05
1.38123e-05
6.92199e-05
0.000108381
0.000152026
0.000209523
0.000280065
0.000358114
0.000440086
0.00049189
0.000520617
0.000517773
0.000484296
0.000431488
0.000355221
0.000277792
0.000208098
0.000148679
0.000105377
7.09383e-05
1.32818e-05
1.6325e-05
7.23687e-05
0.000112286
0.000158021
0.000215773
0.000284022
0.000358853
0.000438007
0.000498904
0.000530344
0.000525725
0.000484332
0.000424548
0.000354043
0.000281409
0.000210091
0.000150027
0.000107489
6.95542e-05
1.25117e-05
1.45688e-05
7.27327e-05
0.000113782
0.000155446
0.000210748
0.000281489
0.000358255
0.000431965
0.0004909
0.000521871
0.000519
0.000489111
0.000429129
0.000352882
0.000279334
0.000214791
0.000151803
0.000104015
6.79839e-05
1.35177e-05
1.65392e-05
7.30625e-05
0.000113523
0.000158031
0.000209904
0.000280005
0.000360386
0.000431534
0.000490836
0.00052242
0.000518346
0.00048408
0.00042592
0.000356309
0.000282523
0.000210753
0.00015134
0.000103832
6.72143e-05
1.52813e-05
1.32701e-05
7.21749e-05
0.000114058
0.0001511
0.000208226
0.000278308
0.000356546
0.000432041
0.000493864
0.000532456
0.000523696
0.000486784
0.000427785
0.000359158
0.000282353
0.000214595
0.000152214
0.000102785
6.63293e-05
1.23663e-05
1.35078e-05
7.33408e-05
0.000113257
0.000151982
0.00020759
0.000280398
0.000361645
0.000434324
0.000495455
0.00053345
0.000532739
0.000496326
0.000433938
0.000358017
0.000280072
0.000209964
0.000152611
0.000105522
6.74876e-05
1.37533e-05
1.36073e-05
7.09261e-05
0.000110295
0.000151215
0.000207424
0.000278968
0.000359526
0.000435157
0.000503211
0.000531371
0.000528338
0.000491391
0.000431802
0.000357821
0.000280708
0.000210112
0.000152135
0.000107505
6.83127e-05
1.65209e-05
1.49902e-05
6.88304e-05
0.000104696
0.000149923
0.00020669
0.000277474
0.000356961
0.000435776
0.000502561
0.000532135
0.000534191
0.000493103
0.000437037
0.000362498
0.000281683
0.000211377
0.000155269
0.00010983
6.92758e-05
1.47439e-05
1.76674e-05
6.90197e-05
0.000103055
0.000146228
0.000206715
0.000277855
0.000357524
0.000435685
0.000498548
0.000530599
0.000526801
0.000489684
0.000430686
0.000358614
0.000280849
0.00021115
0.00015907
0.000107631
6.92655e-05
1.26685e-05
1.58761e-05
7.15714e-05
0.000105486
0.000147825
0.000211406
0.000282473
0.000365277
0.000446362
0.00051346
0.000543231
0.000537553
0.00049204
0.000430511
0.000357105
0.000281505
0.000211404
0.000154798
0.000108378
6.90805e-05
1.4523e-05
1.33094e-05
6.9402e-05
0.000105532
0.000149362
0.0002069
0.000277662
0.000357752
0.000437448
0.000505131
0.000533948
0.000534633
0.00049264
0.000431799
0.00035849
0.000284785
0.000213191
0.000154652
0.000112751
7.05763e-05
1.66266e-05
1.51621e-05
6.98363e-05
0.000108061
0.000151864
0.000206586
0.000277414
0.000357685
0.000441789
0.000501339
0.000533009
0.000534043
0.000493745
0.0004362
0.000362544
0.000284319
0.000215002
0.000152516
0.000112056
7.15798e-05
1.51301e-05
1.45826e-05
6.95951e-05
0.000107346
0.000151289
0.000206793
0.000278454
0.000360307
0.000438009
0.000506274
0.000538255
0.000529541
0.000491363
0.00042802
0.00035329
0.000277659
0.000209435
0.000153747
0.000110799
7.06001e-05
1.25513e-05
1.76336e-05
7.15558e-05
0.000109277
0.000154089
0.000208999
0.000281662
0.000364005
0.00044342
0.000498901
0.000529625
0.000532069
0.000496348
0.000429142
0.000356475
0.000280449
0.000213893
0.000155749
0.000114862
7.20036e-05
1.45517e-05
1.46788e-05
6.7221e-05
0.000104034
0.000151072
0.000214082
0.00028438
0.000360428
0.000436817
0.0004984
0.000534341
0.000522874
0.000486172
0.000427264
0.000354977
0.000280533
0.000210492
0.000150535
0.000109814
6.82575e-05
1.21509e-05
1.4349e-05
6.70382e-05
0.0001033
0.000152099
0.000211129
0.00028203
0.000360865
0.000437292
0.000502599
0.000535062
0.000526354
0.000490082
0.000429843
0.000357366
0.000285539
0.000216427
0.0001544
0.00010853
6.85782e-05
1.19889e-05
1.70078e-05
6.91098e-05
0.000107925
0.000154309
0.000212876
0.000286106
0.00036441
0.000440304
0.000498404
0.000530314
0.000532395
0.000492637
0.000432024
0.000358595
0.000284408
0.000214427
0.000153956
0.000111772
7.03373e-05
1.36268e-05
1.48541e-05
7.0545e-05
0.000110753
0.000159857
0.000217899
0.000291842
0.000369829
0.000443218
0.000500637
0.000531948
0.000530195
0.000497981
0.00044305
0.000367385
0.000286206
0.000216305
0.000156029
0.000110425
7.02105e-05
1.50263e-05
1.19692e-05
6.85768e-05
0.000112889
0.000158986
0.000217846
0.000291526
0.00037441
0.000450364
0.000504321
0.000534767
0.000532742
0.000500007
0.000443381
0.000369084
0.000291939
0.000223219
0.000159263
0.000112532
7.01566e-05
1.2755e-05
1.40818e-05
7.07763e-05
0.000112934
0.000154709
0.000216572
0.000289901
0.000367666
0.000442685
0.000511269
0.000546978
0.00053926
0.0005078
0.000445614
0.00037018
0.000291243
0.000222649
0.000159439
0.000109992
7.0379e-05
1.37937e-05
1.51945e-05
7.2548e-05
0.000112222
0.000158671
0.000218806
0.000290168
0.000367696
0.000443733
0.00050793
0.000545713
0.000544559
0.000503521
0.000442081
0.000368921
0.00029531
0.000225399
0.000164093
0.000113092
6.99251e-05
1.5501e-05
1.57167e-05
7.04831e-05
0.000113052
0.00016694
0.000227641
0.000299868
0.000378761
0.000450472
0.000517579
0.000542536
0.000540476
0.000504986
0.000444943
0.000372069
0.000293289
0.000220889
0.000159793
0.000110259
6.93061e-05
1.29942e-05
1.33102e-05
7.14685e-05
0.000114543
0.000167299
0.000228447
0.000301236
0.000380311
0.000452449
0.000515981
0.000544367
0.000550329
0.000517409
0.000450752
0.000375985
0.000297473
0.000222517
0.000160636
0.000110582
7.00662e-05
1.42705e-05
1.50112e-05
7.29943e-05
0.000115129
0.000165705
0.000229582
0.000305304
0.000385826
0.000461733
0.00051576
0.000547365
0.000548889
0.000520987
0.000460893
0.000381943
0.000304819
0.000230859
0.000165209
0.000110373
7.03405e-05
1.69173e-05
1.77088e-05
7.31417e-05
0.000119902
0.000172827
0.000236297
0.00031103
0.000391419
0.000466858
0.00052828
0.000562355
0.000555988
0.00052733
0.000465971
0.000389949
0.000307651
0.000232303
0.000167256
0.000113959
7.02663e-05
1.62409e-05
1.7035e-05
7.42746e-05
0.000116422
0.000169831
0.000235156
0.00031358
0.000395391
0.000467564
0.00052744
0.000564486
0.000559306
0.000526084
0.000468129
0.0003959
0.000314394
0.000235436
0.000170478
0.00011686
7.08185e-05
1.64548e-05
1.73377e-05
7.21576e-05
0.000115726
0.000171004
0.000242566
0.000318854
0.000401622
0.000474252
0.000534274
0.000568295
0.000567419
0.000533722
0.000475541
0.000404803
0.000320755
0.000238742
0.000169553
0.000116052
6.89981e-05
1.57181e-05
1.7289e-05
7.32058e-05
0.00012374
0.000179688
0.000248062
0.000325778
0.000411566
0.000491283
0.000547489
0.000580461
0.000587457
0.000553333
0.000491668
0.000413208
0.000326424
0.000241398
0.000170056
0.000111742
6.60706e-05
1.2867e-05
1.63714e-05
6.91155e-05
0.000118632
0.00017596
0.000250047
0.000336479
0.000423189
0.000503069
0.000561291
0.000599852
0.00059335
0.000558587
0.000497488
0.000420344
0.000332572
0.000241438
0.000165487
0.000106436
6.55835e-05
1.55265e-05
1.33713e-05
6.76945e-05
0.000119239
0.000176915
0.000260271
0.000349379
0.00043858
0.000521692
0.000586529
0.000621894
0.000617841
0.000574252
0.000510735
0.000433545
0.000341893
0.000247
0.000165172
0.000107277
6.14504e-05
1.32811e-05
1.50927e-05
6.51817e-05
0.000124024
0.000185538
0.000267034
0.00036153
0.000458265
0.000544332
0.000603009
0.000637568
0.000637891
0.000601168
0.000536168
0.000451237
0.000356241
0.000255513
0.000170651
0.000107058
5.89341e-05
1.59134e-05
1.88534e-05
6.42928e-05
0.000116001
0.000182577
0.000272438
0.000375761
0.000476625
0.00056477
0.000627822
0.000660306
0.000657798
0.000615423
0.000551745
0.000470775
0.000371702
0.000266157
0.000176257
0.000108653
6.01157e-05
1.34974e-05
1.54852e-05
6.09969e-05
0.000114593
0.000189282
0.000286967
0.000395104
0.00049947
0.000585915
0.000642484
0.000674356
0.000676253
0.000645671
0.000581127
0.000492423
0.000390046
0.000284381
0.000192005
0.00012013
6.21958e-05
1.67657e-05
1.19551e-05
6.46555e-05
0.000114292
0.000197951
0.000300731
0.000411187
0.000520069
0.000608183
0.000664707
0.000697563
0.000704667
0.000674767
0.000610458
0.000518237
0.000408307
0.00029259
0.000192711
0.000113934
5.96206e-05
1.44666e-05
1.40522e-05
6.62364e-05
0.000123208
0.000207554
0.000314923
0.000433181
0.000545911
0.000638116
0.000703201
0.000735
0.000734515
0.000702828
0.000639052
0.000546461
0.000432514
0.000312862
0.000212753
0.000131079
6.59212e-05
1.54588e-05
1.69787e-05
7.11361e-05
0.000134559
0.000225689
0.000339483
0.000462014
0.000575529
0.00066658
0.000730782
0.000763937
0.000764575
0.00073259
0.000669289
0.000576691
0.000464149
0.00033523
0.000215928
0.000124485
6.79737e-05
1.19564e-05
1.25246e-05
6.91093e-05
0.000156451
0.00025703
0.000377113
0.000502337
0.000614674
0.000702679
0.000761941
0.000791496
0.000791552
0.00076215
0.000703075
0.00061442
0.000501742
0.000372757
0.000240585
0.000138646
6.81172e-05
1.35804e-05
1.56193e-05
8.06326e-05
0.000162641
0.000276362
0.000412434
0.000545962
0.000657352
0.000739409
0.000792504
0.000818366
0.000818466
0.000792789
0.000740219
0.000658382
0.000546909
0.000413036
0.00027765
0.00016274
7.86486e-05
1.40961e-05
1.64546e-05
8.16588e-05
0.000181592
0.000317908
0.000469851
0.000605834
0.000709706
0.000779821
0.000821642
0.000841245
0.00084156
0.000822397
0.000780607
0.000710189
0.000605435
0.000467439
0.000313785
0.000178104
8.05675e-05
1.63127e-05
2.03938e-05
9.04803e-05
0.0002166
0.000381278
0.000547945
0.000678588
0.000766522
0.000818881
0.000846392
0.00085782
0.00085814
0.000847169
0.000819813
0.000767092
0.000678059
0.000546059
0.00037945
0.000215794
8.99418e-05
2.03796e-05
2.23434e-05
0.000120802
0.000278664
0.000476087
0.000646185
0.000753997
0.00081202
0.000840521
0.00085279
0.000857252
0.000857426
0.0008533
0.000841398
0.000813241
0.000754901
0.000646442
0.000475875
0.0002785
0.00012101
2.2433e-05
2.37655e-05
0.000155319
0.000375783
0.000605924
0.000750733
0.000815153
0.000840199
0.000849313
0.000852558
0.000853738
0.000853762
0.000852635
0.000849372
0.000840334
0.000815725
0.000751536
0.000606907
0.000377159
0.000156704
2.38103e-05
2.56312e-05
0.000282591
0.00061784
0.000781055
0.000827723
0.000843617
0.000849491
0.000851524
0.000852303
0.000852586
0.000852591
0.000852319
0.000851561
0.000849568
0.000843775
0.000828092
0.000781123
0.000617026
0.000282102
2.56193e-05
4.72066e-05
0.000123583
0.000173982
0.000212289
0.000247591
0.000296732
0.000369134
0.000457156
0.000537113
0.000580508
0.000572045
0.000519538
0.000439289
0.000355226
0.000287837
0.000237084
0.000197406
0.000162065
0.00012009
4.49895e-05
5.26306e-05
0.000126206
0.000185282
0.000223763
0.000250856
0.000306306
0.000388218
0.000485055
0.000569848
0.000613038
0.000592449
0.00054073
0.000456003
0.000360596
0.000296346
0.000240617
0.000205324
0.000170537
0.000126051
4.95475e-05
4.97724e-05
0.000125053
0.000177626
0.000214548
0.000251711
0.000303388
0.000380486
0.000472875
0.000554489
0.000595929
0.000568393
0.0005127
0.000433234
0.00035295
0.000287731
0.000245684
0.00019695
0.000162649
0.00012394
4.60863e-05
4.80109e-05
0.000121405
0.000170599
0.000220615
0.000247692
0.000298894
0.000371874
0.000461308
0.000542642
0.000602358
0.000578429
0.000519788
0.00044006
0.000355859
0.000288379
0.000239589
0.000196839
0.000163028
0.000123344
4.08697e-05
4.1543e-05
0.000122056
0.000169661
0.000207954
0.000248719
0.000306971
0.000386155
0.000478911
0.000543743
0.000591129
0.000592837
0.000535635
0.000439292
0.000366409
0.000288821
0.000238299
0.000198703
0.000170623
0.000121732
4.52051e-05
4.67669e-05
0.000127168
0.000173573
0.000210064
0.000252032
0.000294462
0.000362786
0.000451161
0.00054048
0.000600028
0.000568426
0.000516186
0.000437351
0.000358278
0.000293635
0.000243112
0.000198601
0.000168356
0.000121893
5.10634e-05
5.23503e-05
0.000123407
0.000178297
0.000215034
0.000248241
0.00029514
0.000362273
0.000447523
0.000546401
0.000579621
0.000569658
0.000516418
0.000435378
0.00035948
0.000304401
0.00024321
0.000201693
0.000166796
0.000124233
4.94148e-05
4.93722e-05
0.000126578
0.000165495
0.000202208
0.000245012
0.000301169
0.000375822
0.000460727
0.000537916
0.000581043
0.000576085
0.000523542
0.000443183
0.000358675
0.000299406
0.000249647
0.000207365
0.000159968
0.0001204
4.67893e-05
4.66861e-05
0.000124493
0.000165629
0.000204559
0.000245819
0.000306606
0.000386494
0.000474078
0.000557972
0.000616052
0.000602819
0.000545845
0.000461009
0.000371877
0.000294279
0.000245177
0.00019709
0.00015978
0.000120116
4.02851e-05
3.92408e-05
0.000119502
0.000174943
0.000208039
0.000247568
0.000314985
0.000405296
0.000498546
0.000564279
0.00060847
0.000582949
0.000525688
0.000445627
0.000362923
0.000297504
0.000240791
0.000197548
0.000160577
0.000118138
4.1135e-05
4.31344e-05
0.000120885
0.00016845
0.000209949
0.000248903
0.000310001
0.000388541
0.000478454
0.000551043
0.000604407
0.00058461
0.000526356
0.000446494
0.000361605
0.000293948
0.000241463
0.000198701
0.000161462
0.000118852
4.16792e-05
4.22189e-05
0.000125947
0.000176531
0.000212974
0.000250222
0.000298632
0.000370909
0.000460071
0.000557774
0.00059632
0.000600849
0.000544303
0.000466759
0.000376237
0.000293469
0.000246503
0.000200563
0.000168368
0.000122428
4.74112e-05
4.64786e-05
0.000126389
0.00017006
0.000219967
0.000257045
0.0003016
0.000375656
0.000474765
0.000538365
0.00060247
0.000592568
0.000523628
0.000451868
0.000370453
0.000292357
0.00024445
0.000200559
0.000162306
0.000114961
4.20523e-05
5.26451e-05
0.000126734
0.000169185
0.000214884
0.000253223
0.000301134
0.000387327
0.000459716
0.000533014
0.000574267
0.000575979
0.000513326
0.000440452
0.000364475
0.000292619
0.000243336
0.000206289
0.000159644
0.000115236
4.66048e-05
5.02584e-05
0.000125585
0.000168509
0.000208046
0.00025046
0.000308129
0.000373243
0.000460849
0.000549232
0.000583729
0.000597235
0.000515542
0.00044884
0.000355216
0.000298043
0.000240355
0.000202031
0.000161797
0.000116987
3.76547e-05
4.86288e-05
0.000125427
0.000168132
0.000206833
0.000249882
0.000307324
0.000391611
0.000479437
0.000543608
0.000579951
0.000582005
0.000511312
0.000428914
0.000350601
0.000291056
0.000241676
0.000205294
0.000163221
0.000119338
4.0502e-05
4.21123e-05
0.000129632
0.00016859
0.000206426
0.000249481
0.00030422
0.000389703
0.000478925
0.000550534
0.00058216
0.000568204
0.000513942
0.000428879
0.000350183
0.000294395
0.000240922
0.000210969
0.000169929
0.000119224
3.91722e-05
4.77677e-05
0.000122969
0.00016684
0.00020572
0.000249763
0.000304357
0.000388899
0.000486086
0.000565412
0.000584554
0.000573488
0.000534094
0.000449951
0.000350922
0.000281307
0.000236549
0.000207658
0.000168707
0.000122152
4.25165e-05
4.29629e-05
0.000122418
0.000167585
0.000205983
0.000253772
0.000312452
0.000389821
0.000477735
0.000558709
0.00060449
0.000573499
0.000516786
0.000433793
0.000357552
0.000281656
0.000239308
0.000206369
0.000167397
0.000125603
4.10505e-05
4.73895e-05
0.000123803
0.000170221
0.00020596
0.000258767
0.000307703
0.000383448
0.000470145
0.000553673
0.000607069
0.000595639
0.000521265
0.000432696
0.000344673
0.000280716
0.000234735
0.000199263
0.000164303
0.000125015
4.26332e-05
4.18346e-05
0.000127226
0.000173461
0.000207227
0.000253417
0.000312376
0.000368697
0.00045492
0.00053143
0.000595732
0.000583374
0.000527277
0.000438597
0.000350971
0.000284126
0.000237241
0.00020069
0.000165716
0.000122758
4.10648e-05
4.29245e-05
0.000120715
0.000171688
0.000208212
0.000250951
0.000300772
0.000366706
0.000455862
0.000535195
0.000590144
0.000609423
0.000550688
0.000455554
0.000363396
0.000290957
0.000242195
0.00020323
0.000173664
0.000127143
4.84861e-05
4.68158e-05
0.000119606
0.000165503
0.000207392
0.000249872
0.000309621
0.000384344
0.000462848
0.000533662
0.000591286
0.000586922
0.000531062
0.000435029
0.000353201
0.000285169
0.000238707
0.0002037
0.000167772
0.00012212
4.52691e-05
3.83522e-05
0.00011924
0.00016683
0.000209088
0.000246273
0.00030184
0.000367231