/*--------------------------------*- C++ -*----------------------------------*\
  =========                 |
  \\      /  F ield         | OpenFOAM: The Open Source CFD Toolbox
   \\    /   O peration     | Website:  https://openfoam.org
    \\  /    A nd           | Version:  6
     \\/     M anipulation  |
\*---------------------------------------------------------------------------*/
FoamFile
{
    version     2.0;
    format      ascii;
    class       volScalarField;
    location    "7";
    object      nut;
}
// * * * * * * * * * * * * * * * * * * * * * * * * * * * * * * * * * * * * * //

dimensions      [0 2 -1 0 0 0 0];

internalField   nonuniform List<scalar> 
130000
(
0.000886047
0.000889138
0.000890889
0.000891379
0.000890863
0.000889613
0.000887872
0.000885844
0.000883677
0.00088148
0.000879338
0.000877314
0.000875447
0.000873755
0.000872243
0.000870906
0.00086973
0.0008687
0.00086778
0.000866927
0.000886058
0.000889136
0.000890855
0.000891309
0.000890756
0.000889469
0.000887695
0.000885636
0.000883445
0.000881228
0.000879066
0.000877018
0.000875129
0.000873422
0.000871904
0.000870569
0.000869405
0.000868394
0.000867493
0.000866656
0.000886107
0.000889179
0.000890898
0.000891356
0.000890798
0.000889498
0.000887711
0.000885643
0.000883436
0.000881203
0.000879027
0.000876964
0.000875056
0.000873333
0.000871808
0.000870475
0.00086932
0.000868325
0.000867434
0.000866602
0.000886169
0.000889256
0.000891015
0.000891472
0.000890908
0.000889601
0.000887804
0.000885731
0.000883518
0.000881284
0.000879106
0.00087704
0.000875128
0.000873401
0.000871873
0.000870541
0.000869389
0.000868395
0.000867499
0.000866663
0.000886242
0.000889351
0.000891135
0.000891597
0.000891034
0.00088972
0.000887912
0.000885818
0.000883595
0.000881354
0.000879175
0.000877111
0.000875205
0.00087348
0.000871952
0.000870617
0.000869464
0.000868479
0.000867586
0.000866752
0.000886292
0.000889428
0.0008912
0.000891672
0.000891111
0.000889794
0.00088798
0.000885879
0.000883649
0.000881402
0.000879218
0.000877152
0.000875244
0.000873518
0.000871988
0.000870653
0.000869504
0.000868531
0.000867651
0.00086683
0.000886338
0.000889493
0.000891259
0.000891728
0.000891164
0.000889844
0.000888026
0.000885918
0.000883682
0.000881428
0.000879237
0.000877165
0.000875251
0.000873519
0.000871984
0.000870645
0.000869494
0.000868512
0.000867634
0.000866823
0.00088639
0.000889539
0.000891301
0.000891768
0.000891202
0.000889878
0.000888055
0.000885942
0.000883698
0.000881437
0.000879239
0.00087716
0.000875239
0.000873501
0.000871959
0.000870615
0.000869461
0.000868466
0.000867537
0.000866693
0.000886425
0.000889566
0.000891328
0.000891795
0.000891226
0.0008899
0.000888072
0.000885953
0.000883703
0.000881435
0.00087923
0.000877146
0.000875222
0.000873485
0.000871947
0.000870605
0.000869455
0.000868459
0.000867512
0.000866657
0.000886453
0.000889591
0.000891354
0.000891816
0.000891244
0.000889913
0.000888081
0.000885957
0.000883701
0.000881426
0.000879214
0.000877123
0.000875196
0.000873459
0.000871928
0.000870601
0.000869479
0.000868511
0.000867571
0.000866716
0.000886479
0.000889628
0.000891388
0.000891838
0.000891259
0.000889924
0.000888088
0.000885959
0.000883696
0.000881413
0.000879192
0.000877091
0.000875148
0.000873388
0.000871844
0.000870519
0.000869394
0.00086842
0.000867522
0.000866718
0.000886496
0.000889641
0.000891385
0.000891844
0.000891271
0.000889937
0.000888098
0.000885963
0.000883693
0.000881401
0.000879171
0.000877059
0.000875101
0.000873332
0.00087177
0.000870458
0.000869333
0.000868375
0.00086756
0.000866753
0.000886516
0.000889662
0.000891396
0.00089188
0.000891303
0.000889963
0.000888117
0.000885973
0.000883693
0.00088139
0.000879151
0.000877033
0.00087508
0.000873349
0.000871811
0.000870517
0.000869389
0.000868472
0.000867628
0.000866776
0.000886554
0.000889713
0.000891461
0.000891945
0.000891354
0.000890004
0.000888147
0.000885991
0.000883695
0.000881377
0.000879121
0.000876989
0.000875026
0.000873302
0.000871819
0.000870501
0.000869354
0.000868421
0.000867533
0.000866669
0.000886619
0.000889785
0.00089153
0.000892007
0.000891414
0.000890057
0.000888189
0.000886017
0.000883704
0.000881366
0.000879091
0.000876942
0.000874969
0.000873263
0.000871799
0.000870498
0.000869382
0.000868438
0.000867543
0.000866679
0.000886729
0.000889903
0.000891644
0.000892071
0.000891494
0.000890127
0.000888242
0.000886052
0.000883718
0.000881358
0.000879062
0.000876895
0.000874915
0.000873213
0.00087177
0.00087051
0.000869423
0.000868467
0.000867564
0.0008667
0.000886871
0.000890052
0.000891783
0.000892184
0.000891585
0.000890206
0.000888303
0.000886092
0.000883736
0.000881351
0.000879025
0.000876819
0.00087478
0.000873043
0.000871547
0.000870255
0.000869155
0.000868177
0.000867257
0.000866371
0.000887019
0.000890213
0.000891944
0.00089234
0.000891673
0.000890286
0.000888374
0.000886145
0.000883769
0.000881363
0.000879014
0.000876786
0.000874722
0.000872882
0.000871294
0.000869944
0.000868777
0.000867772
0.00086683
0.000865945
0.000887165
0.000890374
0.000892109
0.000892501
0.000891818
0.000890385
0.000888465
0.000886221
0.000883825
0.000881397
0.000879027
0.000876777
0.000874694
0.00087281
0.000871207
0.000869822
0.000868631
0.000867607
0.000866671
0.00086584
0.000887315
0.000890535
0.000892275
0.000892669
0.000891993
0.000890528
0.000888568
0.00088631
0.000883893
0.000881444
0.000879049
0.000876766
0.000874671
0.000872813
0.000871221
0.000869821
0.000868657
0.000867696
0.000866772
0.000865967
0.000887464
0.000890694
0.000892435
0.000892828
0.000892149
0.000890683
0.000888688
0.00088641
0.000883974
0.000881503
0.000879087
0.000876779
0.000874657
0.000872796
0.00087124
0.00086989
0.000868731
0.000867805
0.000866965
0.000866202
0.000887606
0.000890848
0.000892591
0.00089298
0.000892295
0.000890822
0.000888822
0.000886509
0.000884053
0.000881564
0.000879129
0.000876824
0.000874704
0.000872899
0.000871428
0.000870121
0.000868974
0.000868071
0.000867287
0.000866515
0.000887748
0.000891004
0.000892748
0.000893132
0.000892437
0.000890951
0.000888934
0.000886596
0.000884131
0.000881629
0.000879182
0.000876905
0.000874851
0.000873069
0.000871581
0.000870288
0.000869202
0.000868316
0.000867481
0.000866689
0.000887908
0.000891174
0.000892917
0.000893293
0.000892587
0.000891087
0.000889057
0.000886708
0.000884236
0.000881733
0.000879296
0.000877031
0.000874975
0.000873169
0.000871626
0.00087035
0.000869329
0.000868484
0.000867665
0.00086688
0.000888088
0.000891361
0.000893099
0.000893465
0.000892746
0.000891233
0.000889191
0.000886838
0.000884342
0.000881828
0.000879393
0.000877089
0.000875012
0.000873176
0.000871584
0.00087032
0.000869316
0.000868457
0.000867637
0.000866861
0.000888278
0.000891558
0.000893292
0.000893647
0.000892913
0.000891384
0.000889326
0.000886956
0.000884444
0.000881919
0.000879474
0.000877181
0.000875085
0.000873204
0.000871528
0.000870207
0.000869113
0.000868208
0.000867387
0.000866624
0.000888472
0.000891763
0.000893494
0.000893839
0.00089309
0.000891543
0.000889464
0.000887071
0.00088453
0.00088199
0.000879531
0.000877216
0.000875103
0.000873209
0.000871532
0.000870156
0.000868995
0.000868054
0.00086723
0.000866542
0.000888677
0.00089198
0.000893708
0.000894044
0.000893279
0.000891713
0.000889612
0.000887193
0.000884618
0.00088204
0.00087954
0.000877192
0.000875066
0.000873177
0.000871534
0.000870148
0.000868985
0.000868072
0.000867266
0.000866651
0.000888895
0.000892207
0.000893934
0.00089426
0.000893479
0.000891893
0.000889771
0.000887331
0.000884737
0.000882111
0.000879571
0.000877205
0.000875077
0.000873193
0.000871538
0.000870141
0.000869032
0.000868155
0.000867361
0.000866634
0.00088912
0.000892427
0.000894166
0.000894485
0.000893689
0.000892082
0.000889937
0.000887473
0.00088486
0.000882224
0.000879663
0.000877287
0.000875143
0.00087325
0.000871588
0.000870196
0.000869051
0.000868148
0.000867315
0.000866522
0.000889365
0.00089268
0.000894416
0.000894724
0.000893909
0.00089228
0.000890109
0.000887618
0.000884976
0.00088231
0.00087975
0.000877356
0.000875175
0.000873277
0.000871655
0.000870278
0.000869122
0.000868197
0.00086729
0.000866466
0.000889623
0.000892947
0.00089468
0.000894974
0.000894139
0.000892485
0.000890288
0.00088777
0.000885099
0.000882397
0.000879799
0.000877377
0.000875199
0.000873302
0.000871691
0.00087035
0.000869243
0.000868329
0.00086733
0.000866519
0.000889891
0.000893226
0.000894955
0.000895235
0.000894378
0.000892699
0.000890476
0.000887933
0.000885242
0.000882529
0.000879886
0.000877436
0.000875229
0.000873305
0.000871676
0.000870362
0.000869233
0.000868278
0.000867309
0.000866535
0.000890173
0.000893518
0.000895243
0.000895507
0.000894627
0.000892921
0.00089067
0.000888099
0.000885383
0.000882653
0.000880008
0.000877528
0.000875266
0.000873276
0.000871579
0.000870156
0.000869018
0.000868145
0.000867265
0.00086649
0.000890469
0.000893825
0.000895545
0.000895792
0.000894889
0.000893154
0.000890871
0.000888267
0.000885515
0.000882745
0.000880051
0.000877525
0.000875243
0.000873262
0.000871551
0.000870075
0.000868927
0.000868114
0.000867303
0.000866535
0.000890779
0.000894148
0.000895864
0.000896096
0.000895168
0.000893405
0.000891092
0.000888457
0.000885676
0.000882879
0.000880164
0.000877634
0.000875372
0.000873408
0.000871682
0.000870193
0.000868999
0.000868053
0.000867157
0.000866338
0.000891108
0.000894491
0.000896203
0.00089642
0.000895469
0.000893679
0.000891337
0.000888675
0.00088587
0.000883056
0.000880334
0.000877786
0.000875502
0.000873491
0.000871775
0.000870287
0.000869062
0.000868065
0.000867131
0.000866297
0.000891457
0.000894856
0.000896565
0.000896765
0.000895791
0.000893974
0.000891604
0.000888915
0.000886086
0.00088325
0.000880509
0.000877939
0.000875644
0.00087364
0.000871925
0.000870368
0.000869187
0.000868259
0.000867366
0.000866551
0.000891829
0.000895244
0.00089695
0.000897133
0.000896134
0.000894289
0.000891891
0.000889176
0.000886325
0.000883473
0.000880723
0.000878158
0.000875826
0.000873807
0.000872095
0.000870596
0.000869426
0.000868502
0.000867686
0.000866858
0.000892224
0.000895655
0.000897356
0.000897521
0.000896496
0.000894621
0.000892194
0.000889454
0.000886581
0.000883713
0.000880951
0.00087837
0.000876024
0.00087401
0.000872325
0.00087088
0.000869679
0.000868793
0.000867913
0.000867072
0.000892635
0.000896084
0.00089778
0.000897926
0.000896873
0.000894967
0.00089251
0.000889743
0.000886849
0.000883968
0.000881204
0.000878637
0.000876325
0.000874307
0.000872584
0.000871127
0.000869945
0.000868987
0.000868071
0.000867214
0.000893067
0.000896531
0.000898222
0.000898348
0.000897266
0.000895326
0.000892835
0.000890037
0.000887117
0.000884215
0.000881438
0.000878866
0.000876551
0.000874522
0.000872781
0.000871296
0.000870091
0.00086911
0.000868179
0.000867318
0.000893518
0.000896999
0.000898685
0.000898789
0.000897676
0.0008957
0.00089317
0.000890334
0.000887379
0.000884447
0.000881644
0.000879049
0.000876714
0.000874667
0.000872907
0.000871404
0.000870185
0.000869194
0.000868257
0.000867395
0.000893993
0.00089749
0.000899172
0.000899255
0.000898108
0.000896093
0.000893521
0.000890642
0.000887647
0.000884677
0.00088184
0.000879215
0.000876856
0.000874787
0.000873008
0.00087149
0.000870262
0.000869264
0.00086832
0.000867456
0.000894506
0.000898022
0.000899697
0.000899755
0.000898571
0.000896511
0.000893893
0.000890968
0.000887928
0.000884917
0.000882042
0.000879385
0.000876997
0.000874905
0.000873108
0.000871575
0.000870336
0.000869331
0.000868381
0.000867509
0.000895061
0.000898596
0.000900262
0.000900292
0.000899067
0.000896959
0.00089429
0.000891316
0.000888228
0.000885172
0.000882258
0.000879565
0.000877148
0.000875032
0.000873215
0.000871668
0.000870419
0.000869408
0.000868451
0.000867573
0.000895658
0.000899212
0.000900867
0.000900865
0.000899596
0.000897437
0.000894715
0.000891687
0.000888549
0.000885446
0.00088249
0.00087976
0.000877312
0.000875171
0.000873334
0.000871773
0.000870514
0.000869497
0.000868536
0.000867655
0.000896295
0.000899868
0.000901511
0.000901476
0.000900159
0.000897946
0.000895167
0.000892084
0.000888893
0.000885741
0.00088274
0.000879972
0.000877492
0.000875324
0.000873466
0.00087189
0.000870621
0.000869599
0.000868635
0.000867753
0.000896967
0.000900562
0.000902193
0.000902123
0.000900756
0.000898487
0.000895649
0.000892508
0.000889261
0.000886058
0.000883011
0.000880203
0.000877688
0.000875492
0.000873613
0.00087202
0.000870741
0.000869713
0.000868745
0.000867861
0.000897679
0.000901297
0.000902916
0.00090281
0.000901392
0.000899063
0.000896164
0.000892962
0.000889658
0.000886401
0.000883306
0.000880455
0.000877903
0.000875678
0.000873776
0.000872166
0.000870875
0.00086984
0.000868868
0.000867981
0.000898431
0.000902077
0.000903686
0.000903543
0.000902072
0.000899681
0.000896717
0.000893452
0.000890087
0.000886774
0.000883627
0.000880731
0.000878141
0.000875884
0.000873957
0.000872329
0.000871025
0.000869983
0.000869007
0.000868118
0.000899236
0.000902914
0.000904514
0.000904332
0.000902804
0.000900348
0.000897315
0.000893982
0.000890553
0.00088718
0.000883979
0.000881035
0.000878405
0.000876114
0.00087416
0.000872513
0.000871196
0.000870147
0.000869166
0.000868274
0.00090011
0.00090382
0.000905409
0.000905185
0.000903596
0.000901069
0.000897963
0.000894558
0.000891061
0.000887625
0.000884367
0.000881373
0.000878699
0.000876373
0.000874391
0.000872723
0.000871392
0.000870339
0.000869358
0.000868434
0.000901058
0.000904802
0.000906377
0.000906108
0.000904453
0.00090185
0.000898666
0.000895184
0.000891615
0.000888112
0.000884794
0.000881747
0.000879028
0.000876664
0.000874651
0.000872959
0.000871608
0.000870539
0.000869548
0.000868612
0.000902083
0.000905863
0.000907424
0.000907105
0.00090538
0.000902695
0.000899428
0.000895865
0.000892218
0.000888645
0.000885264
0.00088216
0.000879393
0.00087699
0.000874944
0.000873227
0.000871852
0.000870764
0.000869764
0.000868815
0.000903189
0.000907008
0.000908554
0.000908183
0.000906382
0.000903611
0.000900254
0.000896605
0.000892877
0.000889229
0.000885781
0.000882618
0.0008798
0.000877355
0.000875275
0.000873529
0.00087213
0.00087102
0.000870009
0.000869048
0.000904384
0.000908246
0.000909777
0.00090935
0.000907468
0.000904604
0.000901152
0.000897411
0.000893597
0.00088987
0.000886351
0.000883126
0.000880254
0.000877764
0.000875648
0.000873873
0.000872446
0.000871312
0.000870287
0.000869311
0.000905677
0.000909587
0.000911101
0.000910614
0.000908646
0.000905683
0.00090213
0.00089829
0.000894385
0.000890575
0.000886981
0.00088369
0.000880762
0.000878224
0.000876069
0.000874262
0.000872805
0.000871644
0.000870601
0.000869605
0.000907078
0.00091104
0.000912538
0.000911988
0.000909927
0.000906858
0.000903196
0.000899252
0.00089525
0.000891352
0.000887678
0.000884318
0.00088133
0.000878743
0.000876546
0.000874705
0.000873215
0.000872024
0.000870957
0.000869967
0.0009086
0.00091262
0.000914101
0.000913483
0.000911322
0.00090814
0.000904362
0.000900306
0.000896201
0.000892209
0.000888451
0.000885017
0.000881967
0.000879327
0.000877086
0.000875209
0.000873684
0.000872461
0.000871374
0.000870372
0.000910257
0.000914341
0.000915806
0.000915114
0.000912847
0.000909542
0.000905639
0.000901465
0.00089725
0.000893158
0.00088931
0.000885798
0.00088268
0.000879983
0.000877695
0.000875781
0.000874219
0.000872961
0.000871853
0.000870833
0.000912068
0.000916223
0.00091767
0.0009169
0.000914517
0.00091108
0.000907043
0.000902741
0.000898408
0.000894209
0.000890267
0.000886671
0.000883481
0.000880724
0.000878387
0.000876432
0.00087483
0.000873538
0.000872398
0.000871356
0.000914052
0.000918286
0.000919714
0.000918859
0.000916351
0.000912771
0.000908589
0.000904149
0.00089969
0.000895378
0.000891334
0.00088765
0.000884384
0.000881563
0.000879174
0.000877176
0.000875533
0.000874204
0.000873035
0.000871975
0.000916247
0.000920555
0.000921961
0.000921013
0.000918369
0.000914635
0.000910296
0.000905708
0.000901113
0.000896679
0.000892528
0.000888749
0.000885402
0.000882513
0.000880071
0.000878029
0.00087634
0.000874969
0.000873766
0.000872685
0.000918646
0.000923027
0.000924422
0.000923381
0.000920594
0.000916693
0.000912185
0.000907437
0.000902696
0.000898131
0.000893864
0.000889984
0.000886551
0.000883589
0.000881088
0.000878999
0.000877265
0.000875855
0.00087462
0.000873522
0.000921288
0.000925748
0.000927136
0.000925998
0.000923055
0.000918974
0.000914283
0.000909361
0.000904462
0.000899756
0.000895365
0.000891376
0.000887849
0.000884809
0.000882243
0.000880106
0.000878329
0.000876859
0.00087561
0.000874466
0.000924213
0.000928759
0.000930145
0.000928901
0.000925792
0.000921513
0.000916621
0.000911509
0.000906437
0.000901579
0.000897053
0.000892948
0.00088932
0.000886193
0.000883556
0.00088136
0.00087954
0.000878041
0.00087674
0.00087555
0.000927463
0.000932105
0.000933494
0.000932139
0.000928846
0.000924351
0.000919237
0.000913915
0.000908654
0.000903628
0.000898957
0.000894726
0.00089099
0.000887771
0.000885055
0.000882794
0.000880933
0.000879385
0.000878037
0.0008768
0.000931093
0.000935851
0.000937246
0.000935768
0.000932272
0.000927536
0.000922174
0.000916619
0.000911148
0.000905938
0.000901108
0.000896741
0.00089289
0.000889572
0.000886771
0.000884441
0.000882533
0.000880932
0.000879534
0.000878245
0.000935153
0.000940116
0.000941479
0.000939857
0.000936132
0.000931124
0.000925483
0.000919665
0.000913958
0.000908543
0.000903538
0.000899024
0.000895049
0.000891627
0.000888741
0.000886346
0.000884377
0.000882718
0.000881263
0.000879916
0.000939673
0.000944876
0.000946245
0.000944473
0.000940494
0.00093518
0.000929223
0.000923103
0.000917127
0.00091148
0.00090628
0.000901603
0.000897495
0.000893963
0.000890987
0.000888525
0.00088649
0.00088477
0.000883255
0.000881846
0.000944771
0.000950266
0.000951647
0.00094971
0.000945445
0.000939782
0.000933458
0.00092699
0.000920702
0.000914787
0.000909363
0.000904505
0.000900252
0.000896602
0.000893533
0.000890997
0.000888896
0.000887113
0.000885538
0.000884066
0.000950532
0.000956368
0.000957781
0.000955668
0.000951083
0.000945019
0.00093827
0.000931392
0.000924734
0.000918502
0.000912818
0.000907753
0.000903339
0.000899567
0.000896402
0.000893787
0.000891622
0.000889781
0.000888146
0.000886611
0.000957075
0.000963319
0.000964784
0.000962485
0.000957538
0.000951009
0.000943757
0.000936387
0.000929282
0.000922667
0.000916671
0.000911362
0.000906765
0.000902859
0.000899597
0.000896907
0.000894682
0.000892787
0.000891098
0.000889506
0.000964555
0.000971291
0.000972839
0.000970341
0.000964982
0.00095791
0.000950056
0.000942088
0.000934434
0.000927344
0.00092096
0.000915352
0.000910538
0.000906482
0.000903118
0.000900357
0.000898079
0.000896139
0.000894408
0.00089277
0.000973165
0.000980506
0.000982181
0.000979478
0.000973654
0.000965946
0.000957373
0.000948674
0.000940336
0.00093265
0.000925776
0.000919789
0.0009147
0.000910461
0.00090698
0.000904146
0.000901818
0.000899843
0.000898084
0.000896418
0.00098316
0.000991259
0.000993137
0.000990244
0.00098391
0.000975471
0.000966044
0.000956461
0.00094728
0.000938845
0.000931345
0.000924866
0.000919415
0.000914928
0.000911292
0.000908364
0.000905978
0.00090397
0.000902184
0.000900495
0.000994885
0.00100396
0.00100618
0.00100315
0.000996294
0.000987048
0.000976646
0.000966023
0.000955829
0.000946472
0.000938186
0.000931071
0.000925129
0.000920283
0.0009164
0.000913309
0.000910821
0.000908736
0.000906881
0.000905135
0.00100882
0.00101922
0.001022
0.00101898
0.00101166
0.00100159
0.000990143
0.000978364
0.000967011
0.000956574
0.000947335
0.000939417
0.000932824
0.000927465
0.000923184
0.00091978
0.000917029
0.000914709
0.000912636
0.000910695
0.00102567
0.00103789
0.00104163
0.00103891
0.0010313
0.00102052
0.00100806
0.000995112
0.000982535
0.000970909
0.000960574
0.00095168
0.000944235
0.000938135
0.000933201
0.000929203
0.000925892
0.000923026
0.000920416
0.000917965
0.00104641
0.00106125
0.00106657
0.00106459
0.00105708
0.00104588
0.00103263
0.00101866
0.00100493
0.00099211
0.000980601
0.000970577
0.000962052
0.000954911
0.00094896
0.000943945
0.000939599
0.00093567
0.000931969
0.000928429
0.0010723
0.00109116
0.00109891
0.00109825
0.00109145
0.00108037
0.00106678
0.00105213
0.00103749
0.00102362
0.00101095
0.000999686
0.000989847
0.000981317
0.00097389
0.000967301
0.000961271
0.000955542
0.000949937
0.00094443
0.00110522
0.0011291
0.00114063
0.00114256
0.00113741
0.00112722
0.00111395
0.00109915
0.00108401
0.00106934
0.00105561
0.00104305
0.00103168
0.00102139
0.00101197
0.00100315
0.000994653
0.000986223
0.000977698
0.000969093
0.00114743
0.0011782
0.00119497
0.00120074
0.00119829
0.0011899
0.0011777
0.00116338
0.0011482
0.00113304
0.00111839
0.00110449
0.0010914
0.00107899
0.00106705
0.00105531
0.0010435
0.00103139
0.00101883
0.00100585
0.00120149
0.00124142
0.00126509
0.00127599
0.00127729
0.00127159
0.0012612
0.00124794
0.00123314
0.00121772
0.00120223
0.00118695
0.00117193
0.00115705
0.00114207
0.00112673
0.00111076
0.00109397
0.00107624
0.00105761
0.00127011
0.00132138
0.00135422
0.00137113
0.00137693
0.00137468
0.00136668
0.00135487
0.00134067
0.00132506
0.00130866
0.00129179
0.00127459
0.00125692
0.0012384
0.00121872
0.00119767
0.0011752
0.00115121
0.00112576
0.00135658
0.00142076
0.00146329
0.00148733
0.00149852
0.00150018
0.00149484
0.00148457
0.0014709
0.00145488
0.00143721
0.00141831
0.00139862
0.00137805
0.00135545
0.00133054
0.00130319
0.00127396
0.00124264
0.00120932
0.00146297
0.00154096
0.00159362
0.00162486
0.00164134
0.0016469
0.00164408
0.00163507
0.0016215
0.0016045
0.00158487
0.00156273
0.00153741
0.00150954
0.00148093
0.00145219
0.00142203
0.00138638
0.00134634
0.00130425
0.00159018
0.00168124
0.00174329
0.00178059
0.00180076
0.00181034
0.00180949
0.00180103
0.00178673
0.00176771
0.0017447
0.00171754
0.00168566
0.00165089
0.0016142
0.00157642
0.00153869
0.00149945
0.00145362
0.0014028
0.00173639
0.00183811
0.00190715
0.00194886
0.00197164
0.00198235
0.00198163
0.00197237
0.00195628
0.00193427
0.00190684
0.00187362
0.00183397
0.00179049
0.00174386
0.0016951
0.00164598
0.00159778
0.00154905
0.00149249
0.00189518
0.00200189
0.00207317
0.00211524
0.00213801
0.00214619
0.00214331
0.00213175
0.00211285
0.00208706
0.00205435
0.00201395
0.00196506
0.00191153
0.00185464
0.0017928
0.0017291
0.00166822
0.00161042
0.00155289
0.00205299
0.00215423
0.0022193
0.00225507
0.00227204
0.00227494
0.00226801
0.00225294
0.00223072
0.00220127
0.00216326
0.00211557
0.00205824
0.00199415
0.00192582
0.00185231
0.00177737
0.00170135
0.00162713
0.00155955
0.00218644
0.00226678
0.00231363
0.00233438
0.00234055
0.00233258
0.00231447
0.00229378
0.00226863
0.00223593
0.00219283
0.00213853
0.00207495
0.00200275
0.00192602
0.00183183
0.00174197
0.00165806
0.00157973
0.00150435
0.0022575
0.00229945
0.00231615
0.00231157
0.0022934
0.00227969
0.00226082
0.00223705
0.00220726
0.00216907
0.0021228
0.00206347
0.00199303
0.00190826
0.00181488
0.00172856
0.00163641
0.00154812
0.00145362
0.00136546
0.00221001
0.00219924
0.00217035
0.00214527
0.00212344
0.00208323
0.0020502
0.00202232
0.00199734
0.00196881
0.00192923
0.00187113
0.00179761
0.00170254
0.00159571
0.00148683
0.00138061
0.00127763
0.00119451
0.0011265
0.0019762
0.00191672
0.00186292
0.00180748
0.00175057
0.00171021
0.00168254
0.00166858
0.00166357
0.00165717
0.00163611
0.00158934
0.00151543
0.00141016
0.00128509
0.00115685
0.00103791
0.00093497
0.000849418
0.000776164
0.00151634
0.0014429
0.00137042
0.00130803
0.00125907
0.00123152
0.00123479
0.00126484
0.00130477
0.00133698
0.00134395
0.00131374
0.0012436
0.00112445
0.00096446
0.000799012
0.000662647
0.000568781
0.000501953
0.000445782
0.000918607
0.0008411
0.000779371
0.000761812
0.000773791
0.000822836
0.000893181
0.000950453
0.000996863
0.00102923
0.001042
0.00103238
0.00100228
0.000952138
0.000873956
0.000743298
0.000596402
0.000459184
0.000353359
0.000297923
0.000252054
0.00041439
0.000597316
0.000702376
0.000745484
0.000794114
0.000840555
0.000875817
0.000896108
0.00090388
0.000904123
0.00090011
0.000893141
0.000880141
0.000857074
0.000816168
0.000737867
0.000601332
0.000444396
0.000346983
0.000754589
0.000683015
0.000707476
0.000776407
0.000826896
0.00085242
0.000860932
0.000861333
0.000860248
0.000859862
0.00086024
0.00086087
0.000860781
0.00085935
0.000855859
0.000846141
0.000820684
0.000751134
0.000592018
0.000510548
0.000867106
0.0008674
0.000867826
0.000868156
0.000868397
0.000868544
0.000868618
0.000868658
0.000868691
0.000868675
0.000868592
0.000868446
0.000868272
0.000868107
0.000867963
0.000867812
0.000867665
0.000867483
0.000867235
0.000866903
0.000867067
0.000867377
0.000867825
0.000868193
0.000868504
0.000868655
0.000868671
0.00086857
0.000868474
0.000868341
0.000868225
0.000868143
0.000868006
0.00086784
0.000867639
0.000867505
0.000867448
0.000867306
0.000867054
0.000866709
0.000867014
0.000867456
0.000867979
0.000868386
0.000868728
0.000868855
0.000868821
0.00086862
0.000868423
0.000868189
0.000868008
0.000867865
0.000867714
0.000867584
0.000867457
0.000867405
0.000867394
0.000867175
0.00086684
0.000866454
0.000867038
0.000867585
0.000868135
0.000868519
0.000868756
0.00086886
0.000868848
0.000868739
0.000868553
0.000868335
0.000868096
0.000867813
0.000867656
0.000867588
0.000867635
0.000867599
0.000867461
0.00086714
0.000866712
0.000866295
0.000867213
0.000867651
0.000868164
0.000868525
0.00086875
0.000868856
0.000868856
0.000868768
0.000868613
0.000868416
0.000868205
0.000868006
0.000867852
0.00086777
0.000867764
0.000867744
0.000867618
0.000867354
0.000866929
0.000866517
0.000867276
0.000867655
0.000868092
0.000868418
0.000868656
0.000868791
0.000868809
0.000868732
0.000868585
0.000868394
0.000868177
0.000867949
0.000867737
0.000867669
0.000867705
0.000867703
0.00086761
0.000867439
0.000867222
0.000866907
0.000867252
0.000867559
0.000867999
0.00086832
0.000868545
0.000868671
0.000868715
0.000868652
0.000868511
0.000868324
0.000868109
0.000867862
0.000867594
0.000867602
0.000867691
0.0008677
0.000867626
0.00086745
0.000867306
0.000866986
0.000867202
0.000867531
0.000867986
0.000868271
0.000868444
0.000868525
0.000868601
0.000868521
0.000868359
0.000868187
0.000868019
0.000867819
0.000867528
0.000867516
0.000867575
0.000867594
0.000867582
0.000867409
0.000867233
0.000866843
0.000867254
0.000867606
0.000867984
0.000868274
0.000868447
0.000868515
0.000868517
0.000868412
0.000868255
0.000868097
0.000867951
0.000867786
0.000867563
0.000867482
0.000867349
0.000867262
0.00086728
0.000867291
0.000867148
0.000866821
0.00086737
0.000867725
0.00086807
0.000868391
0.000868579
0.000868645
0.000868601
0.000868501
0.000868284
0.000868127
0.000867999
0.000867878
0.000867766
0.000867733
0.000867527
0.000867294
0.000867257
0.000867246
0.000867083
0.00086668
0.000867324
0.000867653
0.000868003
0.000868276
0.000868471
0.000868583
0.000868665
0.000868584
0.000868429
0.000868344
0.000868254
0.000868165
0.000868079
0.000868027
0.000867877
0.000867521
0.000867502
0.000867297
0.00086707
0.000866669
0.000867218
0.000867559
0.000867966
0.000868192
0.000868381
0.000868571
0.00086862
0.000868596
0.000868565
0.000868508
0.000868443
0.000868423
0.000868342
0.000868221
0.000868036
0.000867745
0.000867672
0.000867426
0.000867211
0.000866828
0.000867199
0.000867579
0.000868042
0.000868346
0.000868513
0.00086867
0.000868694
0.000868656
0.000868578
0.000868522
0.000868415
0.000868333
0.0008682
0.000868061
0.000867909
0.000867747
0.00086758
0.000867357
0.000867018
0.000866574
0.000867037
0.000867493
0.000868089
0.000868544
0.000868663
0.000868735
0.00086876
0.000868709
0.000868692
0.000868572
0.000868402
0.000868248
0.000868122
0.000867973
0.00086779
0.000867629
0.000867462
0.000867256
0.000866967
0.000866547
0.000867191
0.000867678
0.000868267
0.000868587
0.000868751
0.000868739
0.000868765
0.000868627
0.000868472
0.000868302
0.000868147
0.000868059
0.000867939
0.000867797
0.000867641
0.000867498
0.000867342
0.000867168
0.000866937
0.000866594
0.000867283
0.000867721
0.000868174
0.000868427
0.000868517
0.000868533
0.000868498
0.000868401
0.000868236
0.000868021
0.000867805
0.000867616
0.000867425
0.000867243
0.000867087
0.000866914
0.000866761
0.000866617
0.000866441
0.000866195
0.000867314
0.000867732
0.000868126
0.000868333
0.000868382
0.000868388
0.000868318
0.00086819
0.000868036
0.000867906
0.000867792
0.000867605
0.000867337
0.000867059
0.000866861
0.000866689
0.000866557
0.000866443
0.000866301
0.000866114
0.00086743
0.000867743
0.000868114
0.000868329
0.000868393
0.000868448
0.00086834
0.000868108
0.000867916
0.000867888
0.000867865
0.000867684
0.000867423
0.000867175
0.000867061
0.000866893
0.000866833
0.000866752
0.000866597
0.000866364
0.00086742
0.000867724
0.000868063
0.000868256
0.000868383
0.000868463
0.000868361
0.000868097
0.000867875
0.000867795
0.000867683
0.000867472
0.000867319
0.000867208
0.000867124
0.000866997
0.000866925
0.000866805
0.00086663
0.000866373
0.000867377
0.000867712
0.000868057
0.000868243
0.000868364
0.000868327
0.000868213
0.000868014
0.000867755
0.000867475
0.00086726
0.000867064
0.000866986
0.000866983
0.000867044
0.00086715
0.000867171
0.00086713
0.000866978
0.000866709
0.000867214
0.000867645
0.000868079
0.000868298
0.000868345
0.000868238
0.000868012
0.000867778
0.000867545
0.000867351
0.00086712
0.000866997
0.000866969
0.000867022
0.000867171
0.000867458
0.000867672
0.000867691
0.000867548
0.000867251
0.000867276
0.000867683
0.000867998
0.000868148
0.000868177
0.000868108
0.000868002
0.000867856
0.000867707
0.000867616
0.000867411
0.000867328
0.000867331
0.000867416
0.000867591
0.000867871
0.000868001
0.000867982
0.000867801
0.00086746
0.000867579
0.00086792
0.000868111
0.000868226
0.000868259
0.000868249
0.000868222
0.000868068
0.000867857
0.000867631
0.000867456
0.000867372
0.000867367
0.000867476
0.000867698
0.000868004
0.000868188
0.000868187
0.000867984
0.000867592
0.00086786
0.000868254
0.000868514
0.000868661
0.000868686
0.000868612
0.000868521
0.00086834
0.000868065
0.000867713
0.000867472
0.000867351
0.000867327
0.000867438
0.000867721
0.000868051
0.000868238
0.00086828
0.000868067
0.000867674
0.000868125
0.000868462
0.000868826
0.000869015
0.000869057
0.000868957
0.00086892
0.000868744
0.000868476
0.000868115