/*--------------------------------*- C++ -*----------------------------------*\
  =========                 |
  \\      /  F ield         | OpenFOAM: The Open Source CFD Toolbox
   \\    /   O peration     | Website:  https://openfoam.org
    \\  /    A nd           | Version:  6
     \\/     M anipulation  |
\*---------------------------------------------------------------------------*/
FoamFile
{
    version     2.0;
    format      ascii;
    class       volScalarField;
    location    "7";
    object      p;
}
// * * * * * * * * * * * * * * * * * * * * * * * * * * * * * * * * * * * * * //

dimensions      [0 2 -2 0 0 0 0];

internalField   nonuniform List<scalar> 
10000
(
-0.123095
-0.112815
-0.0928055
-0.0591264
-0.0344621
-0.0205921
-0.0139233
-0.00994761
-0.00628063
-0.0031922
-0.000598242
0.00116721
0.00230522
0.00191491
-0.0030568
-0.016908
-0.0428768
-0.0793437
-0.099059
-0.104729
-0.198339
-0.17442
-0.129902
-0.0680559
-0.0172949
0.0152399
0.0325538
0.0427675
0.0505324
0.0575406
0.064621
0.0718002
0.0812953
0.0901556
0.093261
0.0801294
0.0433448
-0.0119019
-0.0604316
-0.0986966
0.0197356
0.0269683
0.0448228
0.0677044
0.0907735
0.111805
0.128753
0.141571
0.151381
0.159293
0.166237
0.173016
0.180106
0.188063
0.196217
0.201242
0.199339
0.188346
0.16613
0.138518
0.229511
0.247575
0.258819
0.262772
0.261346
0.256461
0.251242
0.24804
0.247444
0.24945
0.253281
0.258925
0.266246
0.274123
0.281225
0.285767
0.285411
0.278267
0.266767
0.252248
0.386766
0.406194
0.411743
0.403167
0.387363
0.368821
0.35253
0.340523
0.333512
0.330254
0.329833
0.331325
0.333567
0.336438
0.33877
0.340537
0.343077
0.345105
0.343245
0.335098
0.41364
0.41875
0.423861
0.424791
0.421764
0.415901
0.409161
0.402878
0.398005
0.394283
0.391015
0.387221
0.382864
0.377204
0.370784
0.364926
0.360967
0.359912
0.361526
0.363525
0.405605
0.394615
0.396327
0.405532
0.418213
0.431922
0.442846
0.449765
0.453079
0.453445
0.451925
0.448085
0.44125
0.430524
0.416074
0.399951
0.385983
0.37728
0.378382
0.390534
0.460342
0.453303
0.457323
0.468996
0.4835
0.499055
0.511739
0.520214
0.524494
0.525916
0.524835
0.521346
0.515988
0.507832
0.497551
0.48639
0.47673
0.470534
0.46921
0.475751
0.572267
0.575458
0.580664
0.587824
0.595398
0.601163
0.604863
0.607061
0.608184
0.608443
0.608241
0.607578
0.605907
0.603732
0.601363
0.597996
0.59387
0.589462
0.587052
0.58894
0.688984
0.694211
0.693123
0.689128
0.687258
0.686502
0.68687
0.688406
0.690332
0.692903
0.696151
0.700227
0.705951
0.713252
0.722067
0.731115
0.73757
0.739349
0.735781
0.728057
0.756384
0.75406
0.749557
0.746784
0.747167
0.750718
0.755919
0.761695
0.767152
0.772193
0.777355
0.784379
0.793607
0.80669
0.822528
0.839742
0.855797
0.866532
0.864875
0.849974
0.840074
0.839949
0.836847
0.834014
0.832843
0.834052
0.83682
0.840589
0.844397
0.847975
0.850878
0.853654
0.85681
0.860091
0.863683
0.867894
0.872604
0.8778
0.882552
0.886108
0.929833
0.931991
0.931216
0.929276
0.926914
0.92523
0.924493
0.924324
0.924689
0.924865
0.924867
0.923559
0.920098
0.91414
0.906092
0.896854
0.889247
0.885743
0.890755
0.90813
1.03197
1.03888
1.04356
1.04399
1.03913
1.03104
1.02253
1.01533
1.01005
1.00634
1.00338
0.999755
0.995839
0.990142
0.983354
0.976316
0.970617
0.967651
0.968313
0.977907
1.13039
1.14003
1.14375
1.13771
1.12654
1.11409
1.1033
1.09468
1.08835
1.08338
1.07955
1.07627
1.07308
1.07012
1.06702
1.06339
1.06008
1.05744
1.05666
1.06233
1.1758
1.1678
1.16342
1.1628
1.1642
1.16601
1.16642
1.16492
1.16228
1.15968
1.15721
1.15487
1.15361
1.15317
1.15421
1.15665
1.15933
1.16084
1.16006
1.16041
1.25287
1.2498
1.24617
1.2427
1.24156
1.24105
1.23988
1.23814
1.2361
1.23398
1.23211
1.2309
1.22963
1.22947
1.23073
1.23427
1.24026
1.24586
1.24651
1.24235
1.29333
1.29196
1.29393
1.29731
1.30043
1.3026
1.30388
1.30497
1.30555
1.30588
1.30607
1.30605
1.30593
1.30399
1.29959
1.29281
1.28482
1.27817
1.27851
1.28665
1.33691
1.33579
1.34032
1.34796
1.35541
1.36152
1.36608
1.3694
1.3718
1.37355
1.37529
1.37775
1.38085
1.38503
1.38951
1.39247
1.39334
1.39256
1.39024
1.38626
1.39885
1.39599
1.39751
1.40297
1.41034
1.41801
1.42473
1.43019
1.43399
1.43656
1.43789
1.43896
1.44141
1.44628
1.45464
1.46568
1.47639
1.48376
1.48261
1.46997
1.45445
1.45266
1.45178
1.45507
1.46226
1.47147
1.48068
1.4882
1.49357
1.49645
1.49749
1.49664
1.49337
1.48887
1.48358
1.47865
1.47605
1.47625
1.47969
1.48422
1.51346
1.51191
1.51209
1.51716
1.5258
1.53647
1.54716
1.5559
1.56199
1.56543
1.56641
1.56398
1.5588
1.54893
1.53489
1.51825
1.5026
1.49279
1.49446
1.50966
1.62485
1.62462
1.62516
1.62813
1.63191
1.63585
1.6402
1.64417
1.64727
1.64864
1.64854
1.64676
1.64328
1.63839
1.63273
1.62637
1.6202
1.61576
1.61383
1.61607
1.78196
1.787
1.78445
1.77669
1.76766
1.75928
1.75357
1.75053
1.74893
1.74792
1.7467
1.74474
1.74268
1.74079
1.74107
1.74436
1.7489
1.75371
1.75427
1.74781
1.90631
1.90847
1.90586
1.90083
1.89227
1.88131
1.871
1.86255
1.85649
1.8526
1.85094
1.8512
1.85254
1.85522
1.85834
1.86056
1.86124
1.86169
1.86281
1.86201
2.00331
2.01088
2.01486
2.01061
1.9992
1.98464
1.97074
1.95971
1.95223
1.94813
1.94667
1.94791
1.95268
1.96054
1.97054
1.98035
1.98656
1.98748
1.98503
1.97974
2.06349
2.06675
2.06914
2.06347
2.05419
2.04458
2.03614
2.02999
2.02654
2.02523
2.0258
2.02889
2.03398
2.04206
2.05226
2.06366
2.07377
2.07842
2.07698
2.06858
2.09878
2.09424
2.09179
2.09075
2.09125
2.09163
2.09171
2.0916
2.09144
2.09188
2.09282
2.09472
2.0982
2.10276
2.10838
2.11484
2.12132
2.12669
2.12845
2.12284
2.11835
2.10394
2.10039
2.10773
2.11992
2.1328
2.14299
2.1492
2.15237
2.15349
2.15357
2.15274
2.15073
2.14803
2.14478
2.1421
2.14133
2.14304
2.14593
2.14347
2.18449
2.17651
2.17568
2.18057
2.18927
2.20003
2.20969
2.2168
2.2209
2.22248
2.222
2.21903
2.21374
2.20462
2.19232
2.17882
2.16704
2.15986
2.16102
2.16704
2.26819
2.26585
2.26549
2.26919
2.2747
2.28121
2.28748
2.29291
2.29681
2.29862
2.29869
2.29702
2.29323
2.28712
2.27896
2.26946
2.26123
2.25587
2.25456
2.25798
2.37297
2.37828
2.38001
2.38174
2.38208
2.38157
2.38123
2.38189
2.38329
2.38518
2.38652
2.38735
2.38773
2.38734
2.38663
2.385
2.382
2.37839
2.37636
2.37403
2.469
2.4772
2.47807
2.47345
2.4676
2.46385
2.46356
2.46592
2.46981
2.47462
2.48016
2.48681
2.49402
2.50296
2.513
2.52264
2.52943
2.53123
2.52731
2.51614
2.53731
2.52664
2.52206
2.52366
2.52857
2.53622
2.54458
2.55218
2.55827
2.56431
2.57044
2.57832
2.58862
2.60215
2.61835
2.63573
2.65142
2.66158
2.65851
2.64329
2.67415
2.67626
2.67647
2.67408
2.67008
2.66449
2.65875
2.65439
2.652
2.65119
2.65169
2.65364
2.65642
2.66058
2.66517
2.66981
2.67459
2.67956
2.683
2.68511
2.79723
2.81191
2.81608
2.80811
2.79344
2.77498
2.75806
2.74535
2.73719
2.73214
2.72862
2.72505
2.7212
2.71592
2.7092
2.70181
2.69549
2.6927
2.69752
2.70975
2.83747
2.83577
2.83303
2.82788
2.82245
2.81715
2.81244
2.80838
2.80525
2.80271
2.80061
2.79819
2.79473
2.78995
2.78398
2.77801
2.77363
2.77174
2.77268
2.77589
2.86669
2.85271
2.84577
2.84666
2.85272
2.86128
2.86814
2.87231
2.8738
2.8742
2.87322
2.8714
2.86842
2.86415
2.85915
2.85423
2.85006
2.84737
2.84677
2.84771
2.94819
2.94301
2.93901
2.93817
2.9404
2.94487
2.94894
2.95203
2.95331
2.95329
2.95218
2.95053
2.94772
2.94456
2.94077
2.93691
2.93328
2.93043
2.92973
2.92999
3.04522
3.04487
3.04136
3.03909
3.03757
3.03674
3.03613
3.03613
3.03571
3.03522
3.0339
3.03258
3.03109
3.02992
3.02899
3.0284
3.02736
3.02598
3.02574
3.0267
3.15343
3.15861
3.15888
3.15643
3.15055
3.14219
3.13347
3.12625
3.12108
3.11763
3.11514
3.11393
3.11346
3.11493
3.11814
3.12323
3.12825
3.13167
3.13218
3.13293
3.22966
3.23634
3.23843
3.2337
3.2253
3.21604
3.20816
3.20216
3.19757
3.19453
3.19176
3.18986
3.18835
3.18824
3.19025
3.19554
3.20266
3.20985
3.21235
3.21244
3.24097
3.22846
3.22739
3.23434
3.24407
3.25401
3.26164
3.26606
3.26782
3.26825
3.26786
3.26672
3.26366
3.25825
3.24951
3.23909
3.22889
3.22197
3.22482
3.24103
3.29369
3.28697
3.28839
3.29572
3.30693
3.31924
3.32985
3.33818
3.34367
3.34763
3.35036
3.353
3.35536
3.3569
3.35535
3.34972
3.34064
3.33124
3.32817
3.33657
3.36899
3.3664
3.368
3.37463
3.38372
3.39414
3.40418
3.41361
3.42137
3.42803
3.43376
3.44019
3.44759
3.45827
3.47119
3.4844
3.49469
3.49973
3.49495
3.483
3.4808
3.48478
3.48796
3.49158
3.49447
3.49669
3.49867
3.50155
3.50482
3.50917
3.51344
3.51898
3.52574
3.53526
3.5476
3.56281
3.578
3.58929
3.5889
3.57692
3.59934
3.61229
3.61594
3.61123
3.60341
3.59539
3.58924
3.5858
3.58435
3.58408
3.58413
3.58468
3.58474
3.58499
3.58511
3.58654
3.58883
3.59177
3.59507
3.59846
3.66588
3.67087
3.67332
3.6724
3.66894
3.66483
3.66155
3.65945
3.65793
3.6568
3.65501
3.65196
3.64609
3.63692
3.62466
3.61166
3.60072
3.59481
3.5987
3.61284
3.72098
3.72055
3.71958
3.72102
3.72331
3.72589
3.72856
3.73108
3.73254
3.73304
3.73206
3.72918
3.72329
3.71484
3.70404
3.69263
3.6832
3.67821
3.67867
3.68351
3.79227
3.78382
3.77741
3.77967
3.7872
3.79709
3.80606
3.81318
3.81717
3.81923
3.81889
3.81722
3.81365
3.8088
3.80228
3.79529
3.78841
3.78311
3.78097
3.78156
3.91579
3.91995
3.92216
3.92259
3.92147
3.9198
3.91761
3.91611
3.91484
3.91431
3.91389
3.91469
3.91604
3.91902
3.92218
3.92534
3.92659
3.92512
3.9213
3.91599
4.03477
4.04868
4.0568
4.05507
4.04581
4.03304
4.02103
4.0123
4.00662
4.00432
4.00367
4.00586
4.01054
4.0195
4.03134
4.04469
4.05604
4.06253
4.05965
4.04546
4.09985
4.1006
4.09771
4.09344
4.08923
4.08613
4.08413
4.08285
4.08162
4.08086
4.08
4.0801
4.08058
4.08327
4.0869
4.09194
4.09747
4.10216
4.10489
4.10328
4.17142
4.15967
4.1516
4.14906
4.15134
4.15658
4.16123
4.16391
4.16401
4.16263
4.1594
4.15482
4.14819
4.1406
4.13212
4.12535
4.12223
4.12358
4.12941
4.13908
4.30108
4.29924
4.29959
4.29602
4.29022
4.28269
4.27435
4.26684
4.26047
4.25515
4.25033
4.24543
4.23886
4.23
4.21779
4.20332
4.18958
4.18092
4.18322
4.19517
4.39276
4.39699
4.39916
4.39346
4.38404
4.37297
4.36238
4.35381
4.34746
4.34329
4.34054
4.33934
4.33927
4.34011
4.34049
4.33999
4.33733
4.33388
4.33094
4.32587
4.41024
4.39543
4.39134
4.39535
4.4024
4.41026
4.41633
4.41995
4.42152
4.42297
4.42473
4.42856
4.43399
4.44286
4.45422
4.46691
4.47658
4.48019
4.47472
4.45723
4.47079
4.45918
4.45848
4.46606
4.4756
4.4844
4.49093
4.49536
4.49782
4.49995
4.5018
4.50468
4.50822
4.51335
4.51921
4.52604
4.5318
4.53501
4.5342
4.52832
4.56876
4.56995
4.56969
4.56906
4.57027
4.57276
4.57547
4.57744
4.57822
4.57824
4.57744
4.57617
4.57357
4.57054
4.56652
4.56314
4.56249
4.56529
4.56942
4.57609
4.64825
4.6426
4.63819
4.63863
4.64275
4.64876
4.65433
4.65845
4.66093
4.66186
4.66147
4.65967
4.65635
4.65066
4.64133
4.62984
4.61914
4.6128
4.6151
4.62911
4.75256
4.7531
4.75477
4.75667
4.75719
4.75578
4.7536
4.75198
4.75112
4.75049
4.74964
4.74866
4.74696
4.74527
4.74347
4.742
4.74187
4.74259
4.74294
4.74548
4.83722
4.84245
4.8448
4.84263
4.83961
4.83778
4.83783
4.83893
4.84014
4.84126
4.84184
4.84181
4.8415
4.84183
4.84368
4.84898
4.85665
4.86411
4.86649
4.86363
4.89018
4.87749
4.87383
4.87898
4.88972
4.90373
4.91748
4.92848
4.93621
4.94189
4.94652
4.95116
4.95477
4.95715
4.95677
4.95356
4.94938
4.94637
4.94992
4.9594
5.02583
5.02393
5.02254
5.02236
5.02479
5.02909
5.03416
5.04005
5.04625
5.0528
5.06012
5.06834
5.07845
5.08994
5.10147
5.11212
5.11974
5.12463
5.12605
5.1226
5.19071
5.19849
5.19695
5.18726
5.17588
5.16553
5.15888
5.15707
5.15913
5.16416
5.17127
5.18114
5.19301
5.20907
5.22855
5.24971
5.26957
5.28407
5.28624
5.27244
5.32705
5.32827
5.32439
5.31644
5.30548
5.29345
5.28299
5.27581
5.27227
5.2719
5.27412
5.27795
5.28392
5.29141
5.29971
5.30888
5.31857
5.32852
5.33655
5.3384
5.43269
5.43511
5.43221
5.42325
5.41051
5.39659
5.3843
5.37504
5.36954
5.36691
5.36647
5.36722
5.36758
5.3674
5.36613
5.36387
5.36326
5.36563
5.37401
5.38807
5.48231
5.48144
5.47675
5.47111
5.46588
5.46205
5.45936
5.45756
5.45693
5.45721
5.45851
5.45929
5.46053
5.46077
5.46057
5.46123
5.46305
5.46663
5.47138
5.47781
5.52477
5.51197
5.50518
5.50736
5.51509
5.52533
5.53468
5.54124
5.54518
5.54772
5.54947
5.55113
5.55143
5.55141
5.55123
5.55099
5.55212
5.55452
5.55789
5.56045
5.64608
5.63936
5.63804
5.64094
5.64479
5.64883
5.65143
5.65241
5.65218
5.65146
5.65062
5.64852
5.64597
5.64181
5.63752
5.63472
5.63358
5.6343
5.63592
5.63451
5.82104
5.8373
5.84149
5.83361
5.81927
5.80164
5.78536
5.77236
5.76323
5.75673
5.75207
5.74846
5.74368
5.73774
5.7307
5.72292
5.71648
5.71202
5.71039
5.70551
5.9348
5.95435
5.95864
5.94762
5.92852
5.90633
5.88658
5.87124
5.86077
5.85342
5.84902
5.84578
5.8453
5.8448
5.84288
5.83818
5.82936
5.81814
5.8101
5.80218
5.96079
5.96466
5.96589
5.96254
5.957
5.95081
5.94521
5.94023
5.93627
5.9337
5.93259
5.93411
5.93769
5.94537
5.95597
5.96678
5.97574
5.97885
5.97051
5.94922
5.96222
5.95408
5.95425
5.96163
5.97225
5.98419
5.99332
5.99909
6.00214
6.00402
6.00558
6.007
6.01061
6.01656
6.02604
6.03881
6.05187
6.06094
6.05756
6.04215
6.00267
6.00564
6.01185
6.02039
6.03097
6.04262
6.05304
6.06111
6.06653
6.06956
6.07098
6.072
6.07151
6.07062
6.06946
6.06819
6.06809
6.06812
6.06682
6.06618
6.05506
6.06567
6.07351
6.08261
6.09221
6.1027
6.11323
6.1228
6.13067
6.13596
6.13957
6.14014
6.13933
6.13436
6.12589
6.11412
6.10084
6.08924
6.08421
6.08914
6.13768
6.15572
6.16699
6.17503
6.18019
6.18373
6.18763
6.1921
6.19707
6.20133
6.20485
6.20774
6.20973
6.21123
6.21209
6.20996
6.20404
6.19412
6.18122
6.1703
6.22643
6.25161
6.26642
6.27004
6.26803
6.26386
6.26089
6.26021
6.2613
6.26251
6.26325
6.26282
6.2635
6.26478
6.26823
6.27232
6.27317
6.26758
6.25138
6.23036
6.26585
6.28321
6.30053
6.31172
6.31721
6.31786
6.31661
6.31481
6.31335
6.31137
6.30829
6.30357
6.29661
6.28806
6.27854
6.26787
6.2559
6.24261
6.22838
6.21918
6.28227
6.2999
6.32131
6.33767
6.34726
6.35151
6.35294
6.35309
6.35287
6.35124
6.34782
6.34063
6.33025
6.3145
6.29494
6.2721
6.24769
6.22486
6.20895
6.20705
6.26679
6.27872
6.29891
6.32065
6.33945
6.35499
6.36763
6.37707
6.38312
6.38539
6.38379
6.37845
6.36957
6.35747
6.34334
6.32686
6.30805
6.28746
6.26613
6.25245
6.26729
6.26888
6.28868
6.3193
6.35134
6.38025
6.40295
6.41879
6.42782
6.43122
6.42913
6.42236
6.41205
6.39901
6.38559
6.37154
6.35656
6.33956
6.31853
6.30155
6.34245
6.35396
6.37702
6.40271
6.42773
6.44933
6.46582
6.47753
6.48484
6.48767
6.48611
6.48021
6.47007
6.45506
6.43547
6.41157
6.38456
6.35791
6.33875
6.33717
6.43882
6.45072
6.46919
6.4857
6.50231
6.51865
6.53386
6.54648
6.55547
6.56011
6.5603
6.55663
6.54968
6.53994
6.52886
6.51568
6.50064
6.48473
6.46791
6.45934
6.55017
6.53929
6.54405
6.55889
6.5807
6.6058
6.62905
6.64668
6.65799
6.66357
6.66426
6.66099
6.65547
6.64881
6.64326
6.6406
6.63872
6.63533
6.62507
6.61499
6.79949
6.79038
6.78605
6.78127
6.78236
6.78752
6.79397
6.79966
6.80383
6.8063
6.80703
6.80693
6.80492
6.80163
6.79724
6.79166
6.78608
6.78084
6.77834
6.78686
7.13289
7.12477
7.10662
7.07449
7.04481
7.02188
7.00615
6.9959
6.98989
6.98659
6.98563
6.98688
6.99138
6.99918
7.01085
7.02668
7.04332
7.0584
7.06543
7.07357
7.49216
7.46844
7.43513
7.38401
7.33357
7.29046
7.2566
7.23027
7.21149
7.20022
7.196
7.20023
7.2107
7.22991
7.25871
7.29609
7.33745
7.3743
7.39362
7.40806
7.85617
7.82296
7.78228
7.7135
7.63809
7.57004
7.51532
7.47334
7.44485
7.42945
7.42714
7.43751
7.46001
7.49296
7.53435
7.58268
7.63071
7.67337
7.70456
7.74427
8.16713
8.11933
8.07411
7.99522
7.90442
7.8202
7.75378
7.70489
7.67331
7.65859
7.66019
7.68088
7.71742
7.77144
7.83941
7.91709
7.99625
8.06418
8.10444
8.14673
8.41708
8.35495
8.31164
8.23439
8.14199
8.05342
7.98159
7.92807
7.89406
7.87977
7.88552
7.91321
7.96283
8.03497
8.12681
8.23432
8.34125
8.42526
8.46347
8.50817
8.59329
8.53584
8.51755
8.44813
8.35064
8.25141
8.16944
8.10757
8.06778
8.05168
8.05922
8.0945
8.15324
8.23789
8.34164
8.45356
8.55512
8.62033
8.63459
8.69156
8.55113
8.48917
8.51912
8.49184
8.4183
8.32943
8.25073
8.1883
8.14603
8.12648
8.13019
8.15803
8.20879
8.27983
8.3645
8.45179
8.51986
8.54461
8.52053
8.59569
8.16333
8.06458
8.15895
8.21576
8.21504
8.1797
8.13646
8.09689
8.06658
8.05102
8.0487
8.06262
8.08514
8.11416
8.14325
8.16036
8.15281
8.10413
8.0308
8.15164
7.46853
7.2788
7.42648
7.58697
7.69396
7.75319
7.7817
7.79444
7.79812
7.79772
7.79371
7.78493
7.77001
7.74004
7.68932
7.60929
7.49254
7.34111
7.21445
7.42655
6.72943
6.37158
6.53532
6.78134
6.9889
7.14187
7.24751
7.31705
7.35683
7.37496
7.37127
7.34776
7.29808
7.21554
7.0945
6.92379
6.70742
6.46396
6.31166
6.68679
6.44627
5.85314
5.98813
6.24847
6.47316
6.64101
6.75946
6.84178
6.892
6.91587
6.91498
6.88724
6.83382
6.74578
6.62064
6.44435
6.21684
5.96063
5.83181
6.43484
7.10746
6.2652
6.3285
6.4639
6.55877
6.62292
6.67082
6.70791
6.73224
6.74329
6.74189
6.72681
6.6986
6.66077
6.60933
6.54726
6.45145
6.32787
6.27059
7.11385
8.90134
7.46549
7.36009
7.3184
7.25443
7.20295
7.17694
7.16801
7.16675
7.1635
7.16246
7.15582
7.15105
7.1596
7.18108
7.24141
7.31427
7.36556
7.46504
8.87029
11.9949
7.40935
7.29377
7.43655
7.40209
7.36191
7.34546
7.33875
7.33525
7.33263
7.3312
7.32909
7.32888
7.33381
7.35061
7.39261
7.43281
7.29509
7.4039
11.9698
-0.651947
-0.557484
-0.541739
-0.400658
-0.297225
-0.240663
-0.207616
-0.184569
-0.168213
-0.159017
-0.155278
-0.157548
-0.164242
-0.174539
-0.191089
-0.228134
-0.310289
-0.434243
-0.451427
-0.539012
-0.967819
-0.888864
-0.842506
-0.663949
-0.486594
-0.355827
-0.270878
-0.215266
-0.179513
-0.158557
-0.148536
-0.150073
-0.159439
-0.180893
-0.219782
-0.295036
-0.416989
-0.54955
-0.586646
-0.683156
-0.577569
-0.621329
-0.587622
-0.493647
-0.377338
-0.262208
-0.16812
-0.0992253
-0.0520794
-0.0213815
-0.00387893
0.00138982
-0.00606459
-0.0291445
-0.0697389
-0.125157
-0.176139
-0.205639
-0.215554
-0.20427
-0.383731
-0.37807
-0.342028
-0.278052
-0.197473
-0.111754
-0.0350572
0.0287083
0.0776624
0.114688
0.141101
0.159167
0.169723
0.169835
0.15437
0.115354
0.0488861
-0.0289799
-0.0526617
-0.0230334
-0.223535
-0.150453
-0.0948823
-0.03537
0.0345124
0.110301
0.176518
0.229827
0.272112
0.307926
0.338184
0.367411
0.396518
0.430201
0.470473
0.516389
0.558095
0.585182
0.576141
0.548742
0.189167
0.290718
0.3565
0.387958
0.400299
0.409389
0.424669
0.447615
0.472263
0.498253
0.522136
0.547308
0.573183
0.604341
0.646294
0.708606
0.788352
0.8677
0.895924
0.867545
0.744213
0.817539
0.838378
0.788876
0.729596
0.682985
0.661158
0.660445
0.669358
0.680751
0.691531
0.70034
0.701798
0.691212
0.666215
0.635641
0.611517
0.605301
0.641438
0.69477
1.00495
1.00642
1.00124
0.991868
0.969594
0.940292
0.912686
0.891367
0.876063
0.86406
0.852152
0.835124
0.810251
0.768702
0.705275
0.617784
0.525406
0.458827
0.462275
0.522517
1.27541
1.25551
1.25113
1.2418
1.21758
1.18265
1.14459
1.108
1.07668
1.04808
1.01958
0.985291
0.943683
0.894974
0.839596
0.776195
0.714826
0.667402
0.640728
0.638657
1.38753
1.30998
1.26417
1.25338
1.26256
1.27401
1.27524
1.26727
1.25344
1.23531
1.21298
1.18414
1.149
1.10783
1.06286
1.01905
0.974713
0.926868
0.885224
0.855493
1.58119
1.47416
1.42216
1.42864
1.45141
1.46789
1.47031
1.46483
1.45422
1.44079
1.42499
1.40777
1.38884
1.37386
1.36704
1.36984
1.37486
1.36624
1.32514
1.25705
1.96401
1.94488
1.91086
1.85467
1.79597
1.74406
1.70667
1.6819
1.66313
1.64879
1.63624
1.62708
1.6232
1.62827
1.64666
1.6805
1.72649
1.77312
1.76309
1.67851
1.93182
1.9727
1.94497
1.89796
1.86079
1.84114
1.83509
1.83406
1.83343
1.83254
1.8321
1.83542
1.84393
1.85786
1.873
1.88175
1.87929
1.87533
1.87854
1.86268
1.75199
1.73668
1.74388
1.81948
1.89851
1.95698
1.99198
2.01098
2.02091
2.02558
2.0263
2.02412
2.02085
2.01793
2.01892
2.02468
2.03054
2.03442
2.0389
2.04933
2.02407
2.04231
2.07191
2.10929
2.15293
2.19227
2.2224
2.24182
2.25305
2.2562
2.25437
2.24623
2.22948
2.20084
2.16119
2.11866
2.08459
2.06213
2.06945
2.10598
2.32376
2.35884
2.38995
2.41922
2.45181
2.48613
2.51198
2.5249
2.53041
2.53123
2.53122
2.52895
2.52685
2.51755
2.4945
2.44627
2.37197
2.29023
2.26026
2.2812
2.80886
2.87412
2.91289
2.90926
2.88289
2.85082
2.8278
2.81451
2.80937
2.80912
2.81493
2.82707
2.84707
2.87716
2.91792
2.95874
2.98733
2.99118
2.95123
2.88672
3.25226
3.31726
3.32209
3.25713
3.17763
3.10809
3.06374
3.04252
3.03677
3.04106
3.05392
3.07788
3.11702
3.17344
3.2454
3.33165
3.42372
3.50302
3.50767
3.43844
3.32489
3.30884
3.2848
3.26157
3.23833
3.22108
3.21104
3.20677
3.20898
3.21726
3.23192
3.25491
3.28791
3.3345
3.38892
3.44739
3.50556
3.55637
3.59572
3.61789
3.24148
3.20393
3.18913
3.20862
3.24031
3.27346
3.30316
3.32738
3.34787
3.36679
3.38522
3.40147
3.41445
3.42333
3.43191
3.44643
3.47395
3.51182
3.56614
3.63274
3.11016
3.06082
3.06971
3.15378
3.25437
3.34205
3.40799
3.45661
3.49275
3.51993
3.54214
3.55842
3.5659
3.55971
3.53959
3.50539
3.47085
3.45063
3.48532
3.56512
3.32612
3.34348
3.3787
3.42826
3.48704
3.54857
3.60309
3.64731
3.68039
3.70406
3.71938
3.72698
3.72839
3.72219
3.71173
3.69899
3.69156
3.69768
3.71386
3.73489
3.6917
3.72809
3.76256
3.79584
3.82403
3.85182
3.88019
3.90304
3.91853
3.92679
3.92846
3.92315
3.91124
3.8958
3.88025
3.86562
3.8527
3.84736
3.85649
3.87399
4.2899
4.35686
4.38102
4.35869
4.31263
4.26244
4.22525
4.20316
4.18967
4.17858
4.16636
4.152
4.13687
4.11854
4.0983
4.07828
4.05971
4.04521
4.04172
4.04684
4.90113
4.96572
4.9432
4.83784
4.7214
4.61791
4.53893
4.48537
4.45076
4.42534
4.40418
4.3844
4.36602
4.34875
4.33299
4.31979
4.30845
4.29576
4.28236
4.26304
5.15233
5.12164
5.06528
4.99549
4.92029
4.8478
4.7832
4.73007
4.68921
4.65828
4.63319
4.61055
4.59064
4.57339
4.5627
4.56303
4.57384
4.5847
4.57543
4.53172
5.21259
5.14144
5.08847
5.06123
5.03543
5.00352
4.96784
4.93179
4.8997
4.87252
4.84933
4.82869
4.8075
4.78593
4.76423
4.74738
4.74351
4.75446
4.75544
4.71239
5.12186
5.02618
4.98864
5.02514
5.07049
5.10384
5.11755
5.11355
5.09981
5.08413
5.0697
5.05668
5.04503
5.02972
5.0031
4.95185
4.87011
4.7793
4.74998
4.7647
5.28673
5.25528
5.25589
5.28217
5.30227
5.31199
5.31095
5.30364
5.29399
5.28543
5.27993
5.2789
5.2818
5.29142
5.31103
5.33686
5.35556
5.35153
5.31015
5.26679
5.58779
5.61457
5.61178
5.56833
5.53053
5.50013
5.47839
5.46586
5.45907
5.45626
5.45567
5.45912
5.46762
5.48536
5.51919
5.57596
5.64955
5.71699
5.71976
5.66499
5.60068
5.58911
5.56476
5.55203
5.55785
5.57173
5.58533
5.59488
5.60134
5.60577
5.61007
5.61617
5.62357
5.63413
5.6467
5.66081
5.67714
5.69744
5.72187
5.72729
5.57255
5.56979
5.5656
5.5846
5.61911
5.66173
5.701
5.72865
5.74558
5.75657
5.76393
5.76754
5.76643
5.7551
5.73123
5.70099
5.67615
5.66732
5.68748
5.72856
5.51826
5.51646
5.53557
5.59607
5.67644
5.75803
5.82519
5.87331
5.90608
5.92688
5.94056
5.94739
5.94957
5.94351
5.92248
5.87821
5.81244
5.74641
5.73541
5.78644
5.66142
5.67907
5.74175
5.84202
5.93265
6.00237
6.05315
6.09116
6.12042
6.14222
6.15828
6.17016
6.18181
6.19723
6.22346
6.25702
6.28569
6.29481
6.26907
6.24393
6.22961
6.32607
6.38623
6.37331
6.34945
6.33603
6.33886
6.35048
6.36516
6.3779
6.38882
6.39823
6.40669
6.41947
6.44334
6.48971
6.55953
6.62477
6.6324
6.59444
6.63493
6.69436
6.68956
6.63957
6.60514
6.59086
6.59208
6.60195
6.61438
6.62446
6.63195
6.63733
6.64178
6.64
6.62418
6.59278
6.55957
6.54252
6.56097
6.59638
6.91089
6.92196
6.91959
6.92399
6.91916
6.90535
6.89156
6.88392
6.88301
6.88434
6.88737
6.88985
6.89263
6.89227
6.88174
6.84515
6.78094
6.7172
6.70387
6.74925
7.26787
7.295
7.31323
7.311
7.27768
7.23104
7.19022
7.16091
7.1435
7.13537
7.13359
7.13609
7.14409
7.16095
7.19466
7.24243
7.28214
7.29717
7.27226
7.24461
7.54603
7.55131
7.55605
7.54158
7.50711
7.46145
7.41873
7.3862
7.3643
7.35084
7.34445
7.3453
7.35143
7.36771
7.40049
7.46228
7.54371
7.61378
7.62212
7.57631
7.70376
7.67767
7.65529
7.62734
7.60654
7.59096
7.57454
7.55887
7.54492
7.53432
7.52596
7.51944
7.51196
7.49802
7.47367
7.44519
7.42253
7.41506
7.44023
7.47376
7.73394
7.68055
7.64812
7.63988
7.65185
7.67546
7.69544
7.70737
7.71129
7.70943
7.70363
7.6932
7.67694
7.64771
7.59734
7.52039
7.43402
7.37147
7.37196
7.4306
7.83469
7.7772
7.76519
7.80103
7.84561
7.88078
7.90091
7.9124
7.91691
7.91652
7.9103
7.89818
7.88105
7.85996
7.83434
7.79749
7.75283
7.71419
7.68889
7.69396
8.24812
8.25801
8.25954
8.23409
8.2
8.17008
8.15278
8.14579
8.14387
8.14404
8.14515
8.14548
8.14299
8.14025
8.1406
8.14174
8.13346
8.10996
8.07833
8.0515
8.49299
8.50001
8.47536
8.42502
8.3802
8.35274
8.34248
8.34125
8.34427
8.35107
8.36081
8.37562
8.39677
8.42845
8.47471
8.53399
8.5887
8.61593
8.59292
8.539
8.51908
8.47286
8.45904
8.49721
8.53111
8.54515
8.54319
8.53604
8.53188
8.53332
8.53882
8.55143
8.57258
8.61061
8.66781
8.74815
8.84054
8.92027
8.93303
8.885
8.83824
8.85104
8.85266
8.82462
8.78423
8.74661
8.71979
8.70317
8.69375
8.69115
8.69201
8.69558
8.69753
8.69655
8.69044
8.68064
8.67372
8.68027
8.71642
8.76277
8.88267
8.87758
8.85027
8.81013
8.78746
8.78913
8.8015
8.81426
8.82335
8.82914
8.83233
8.83143
8.8234
8.80164
8.75933
8.69791
8.63685
8.59898
8.61614
8.69105
8.67439
8.60018
8.59279
8.67656
8.78381
8.87974
8.94276
8.97785
8.99426
9.0004
8.99743
8.98748
8.97133
8.95013
8.92183
8.88917
8.86108
8.84731
8.84688
8.87046
8.94816
8.94719
9.00374
9.08811
9.15639
9.19869
9.21985
9.22799
9.22785
9.22278
9.21248
9.19672
9.17506
9.15114
9.12551
9.09889
9.07044
9.04763
9.0417
9.05012
9.5223
9.61437
9.67205
9.6451
9.58912
9.53634
9.50394
9.48657
9.47489
9.46617
9.45746
9.44936
9.44032
9.43078
9.41853
9.40208
9.379
9.35339
9.33658
9.33536
9.76562
9.8309
9.82967
9.78071
9.73874
9.71159
9.69701
9.69241
9.69285
9.6971
9.70421
9.71555
9.72969
9.74772
9.76861
9.7888
9.79757
9.78922
9.76667
9.74304
9.68077
9.66171
9.64911
9.68167
9.73399
9.78526
9.82339
9.85467
9.88061
9.90555
9.93055
9.96157
9.99947
10.0496
10.1147
10.1941
10.2691
10.3156
10.3067
10.2576
9.79693
9.76511
9.77959
9.84304
9.91621
9.98115
10.0269
10.0603
10.0851
10.1084
10.1308
10.1598
10.1973
10.2512
10.3216
10.4161
10.525
10.6235
10.6531
10.6082
10.3287
10.3723
10.4016
10.3876
10.3527
10.3182
10.2962
10.2893
10.2899
10.2964
10.3048
10.3169
10.329
10.3384
10.3379
10.3332
10.3356
10.3556
10.4073
10.4645
10.7924
10.8538
10.8364
10.7458
10.6438
10.5599
10.5055
10.4766
10.4614
10.453
10.4471
10.441
10.4293
10.4064
10.3658
10.3082
10.2521
10.2195
10.2461
10.3297
10.9128
10.8944
10.849
10.8022
10.7551
10.7114
10.6733
10.6432
10.6192
10.6003
10.5807
10.5574
10.5267
10.4909
10.4516
10.4116
10.3791
10.3649
10.3695
10.3959
10.9021
10.8443
10.8077
10.8071
10.8146
10.8174
10.8118
10.7994
10.7826
10.7636
10.74
10.7099
10.6704
10.6223
10.5666
10.5112
10.4624
10.4296
10.4223
10.4302
10.8136
10.734
10.7216
10.791
10.8722
10.9399
10.98
10.9937
10.9882
10.9724
10.9475
10.9152
10.8749
10.828
10.7729
10.713
10.6526
10.6023
10.5751
10.5651
11.1099
11.109
11.1429
11.1978
11.239
11.2641
11.2729
11.2699
11.2581
11.2409
11.2188
11.1927
11.1607
11.125
11.086
11.0447
10.998
10.9477
10.9023
10.8651
11.6799
11.7649
11.7888
11.7327
11.6675
11.6176
11.587
11.569
11.5557
11.5439
11.5324
11.521
11.5098
11.5021
11.5014
11.5108
11.5189
11.5106
11.4678
11.3978
11.9336
11.9643
11.9369
11.8844
11.8549
11.8467
11.8473
11.8514
11.8551
11.8595
11.8654
11.8761
11.8919
11.9167
11.9508
11.9967
12.0527
12.1057
12.0962
12.0118
12.0539
12.0114
12.0086
12.0643
12.1168
12.1455
12.1538
12.1584
12.1655
12.1792
12.2011
12.2351
12.2832
12.3404
12.3923
12.4289
12.448
12.4595
12.4639
12.4429
12.5403
12.5555
12.5652
12.5435
12.5095
12.4774
12.4574
12.4511
12.454
12.4665
12.4893
12.5274
12.5829
12.6594
12.7468
12.8284
12.8895
12.9231
12.9274
12.9111
12.8329
12.8386
12.8142
12.7605
12.7171
12.6958
12.6901
12.6923
12.6987
12.7097
12.7263
12.7501
12.7836
12.8306
12.8918
12.967
13.0459
13.1088
13.148
13.1719
12.906
12.8529
12.8392
12.8798
12.9177
12.9364
12.938
12.9325
12.9291
12.9313
12.9389
12.9501
12.9599
12.9699
12.9812
12.9961
13.0229
13.0656
13.1279
13.2024
13.3065
13.3166
13.314
13.2791
13.2342
13.1927
13.1628
13.1429
13.1317
13.1278
13.1308
13.1363
13.1414
13.1386
13.1252
13.1012
13.0753
13.061
13.0958
13.1818
13.4626
13.4581
13.4209
13.3589
13.3136
13.2912
13.2843
13.2852
13.288
13.292
13.2963
13.3011
13.3038
13.3052
13.305
13.3036
13.3088
13.3245
13.3424
13.3692
13.3467
13.2749
13.2482
13.2941
13.3524
13.3965
13.4227
13.4401
13.4518
13.4598
13.4636
13.4624
13.4579
13.452
13.4471
13.4453
13.4464
13.4545
13.4702
13.4834
13.5784
13.5608
13.5632
13.575
13.5917
13.6085
13.6219
13.6318
13.6381
13.6419
13.6426
13.6408
13.6334
13.6221
13.6078
13.5919
13.5793
13.5738
13.5792
13.5816
13.8132
13.8106
13.8169
13.822
13.8251
13.8321
13.8373
13.8375
13.8351
13.8317
13.8273
13.8193
13.8083
13.7889
13.7634
13.7354
13.7071
13.6839
13.6741
13.6679
14.092
14.1202
14.1273
14.1089
14.0813
14.0546
14.0367
14.0265
14.0208
14.0153
14.009
14.0009
13.989
13.972
13.9482
13.9167
13.8798
13.8409
13.8131
13.795
14.2387
14.2711
14.2625
14.2303
14.2059
14.1919
14.1879
14.1901
14.1943
14.1958
14.1954
14.1897
14.1837
14.1767
14.1684
14.157
14.1347
14.0973
14.0529
14.0106
14.2144
14.1942
14.2055
14.2726
14.3309
14.3637
14.3744
14.3754
14.3738
14.3725
14.3716
14.3717
14.372
14.3779
14.3935
14.4179
14.4422
14.4436
14.402
14.3316
14.6022
14.6624
14.7021
14.6972
14.6631
14.6196
14.5828
14.5568
14.5394
14.5274
14.5188
14.5109
14.5072
14.5067
14.5146
14.541
14.5872
14.6329
14.6222
14.5417
14.771
14.8357
14.8462
14.7984
14.7442
14.7003
14.6718
14.6528
14.6414
14.6328
14.6256
14.6174
14.606
14.5855
14.5491
14.4939
14.4338
14.3894
14.3841
14.3878
14.5306
14.5136
14.5068
14.539
14.5899
14.6379
14.6724
14.693
14.7075
14.7148
14.7189
14.7157
14.7107
14.6961
14.6668
14.608
14.5173
14.4245
14.3807
14.4014
14.4425
14.4214
14.4529
14.5349
14.6203
14.6887
14.733
14.7601
14.7774
14.788
14.794
14.7976
14.8005
14.807
14.8238
14.847
14.8592
14.8466
14.7937
14.7379
14.6868
14.7546
14.8159
14.8437
14.8487
14.8431
14.8388
14.8387
14.8401
14.8402
14.8372
14.8304
14.8247
14.8242
14.8393
14.8767
14.9288
14.9743
14.9634
14.8912
14.7339
14.8262
14.8629
14.8524
14.8391
14.8321
14.8353
14.8421
14.849
14.8501
14.8441
14.8282
14.8015
14.7645
14.7201
14.6689
14.6212
14.5922
14.6014
14.615
14.4221
14.4358
14.4569
14.5269
14.6219
14.7122
14.7811
14.8264
14.8545
14.865
14.8616
14.8415
14.8085
14.7543
14.678
14.5801
14.4815
14.4054
14.3904
14.4254
14.3584
14.3743
14.4306
14.5437
14.6667
14.7728
14.8484
14.8967
14.9242
14.932
14.9227
14.897
14.8591
14.8099
14.7514
14.6868
14.6264
14.5814
14.5524
14.5367
14.7774
14.8707
14.9402
14.9776
15.0018
15.0211
15.0415
15.0608
15.074
15.075
15.062
15.0346
14.9961
14.9493
14.8997
14.8486
14.7979