/*--------------------------------*- C++ -*----------------------------------*\
  =========                 |
  \\      /  F ield         | OpenFOAM: The Open Source CFD Toolbox
   \\    /   O peration     | Website:  https://openfoam.org
    \\  /    A nd           | Version:  6
     \\/     M anipulation  |
\*---------------------------------------------------------------------------*/
FoamFile
{
    version     2.0;
    format      ascii;
    class       volScalarField;
    location    "7";
    object      p;
}
// * * * * * * * * * * * * * * * * * * * * * * * * * * * * * * * * * * * * * //

dimensions      [0 2 -2 0 0 0 0];

internalField   nonuniform List<scalar> 
130000
(
0.00734523
0.00672045
0.0062043
0.0057723
0.00538784
0.00502006
0.00466254
0.00429835
0.00393367
0.00356496
0.00319899
0.00283813
0.00248353
0.00213726
0.00180306
0.0014771
0.00116041
0.000846294
0.000524024
0.000194757
0.0167315
0.0158702
0.0150125
0.0142814
0.013555
0.0128663
0.0121616
0.011461
0.0107516
0.0100447
0.00934842
0.00866116
0.00800033
0.00735792
0.00674231
0.00614716
0.00557728
0.00500964
0.00445265
0.00390642
0.022751
0.0221198
0.0212946
0.0205745
0.0198079
0.0190576
0.0182696
0.0174798
0.0166713
0.0158536
0.015037
0.014214
0.0134103
0.0126005
0.0118304
0.011054
0.0103233
0.0095816
0.0088802
0.00817502
0.027544
0.0268917
0.0260452
0.0252643
0.0243945
0.0234947
0.0225458
0.0215833
0.0206114
0.0196264
0.0186567
0.0176721
0.0167238
0.0157668
0.0148559
0.0139409
0.013083
0.0122104
0.0113954
0.0105585
0.0324715
0.0318291
0.0309864
0.0301801
0.0292517
0.0282429
0.0271744
0.0260687
0.0249615
0.0238287
0.0227231
0.0215943
0.0205129
0.0194062
0.0183703
0.0173082
0.0163289
0.0153197
0.0143925
0.0134172
0.0370364
0.0363876
0.0355792
0.0347956
0.0338692
0.0328137
0.0316884
0.0304944
0.029303
0.0280628
0.0268611
0.0256145
0.024432
0.0232126
0.022071
0.020899
0.0198208
0.0187027
0.0176814
0.0166016
0.0407744
0.0402838
0.0395761
0.0388599
0.0379813
0.0369217
0.0357864
0.0345444
0.0333095
0.0319971
0.0307308
0.0293985
0.0281379
0.0268154
0.0255916
0.0243101
0.0231434
0.0219164
0.0208024
0.0195962
0.0444796
0.0440032
0.0433381
0.0426664
0.041835
0.0407838
0.0396548
0.0383881
0.0371323
0.0357728
0.0344675
0.0330705
0.0317584
0.0303687
0.0290821
0.0277295
0.0265001
0.0251964
0.0240168
0.0227292
0.04798
0.047479
0.0468175
0.0461878
0.0454017
0.0443731
0.0432617
0.0419896
0.0407289
0.0393433
0.0380144
0.0365764
0.0352259
0.0337746
0.0324425
0.031018
0.0297338
0.028355
0.0271123
0.025729
0.0511321
0.050716
0.0501351
0.0495764
0.0488636
0.047874
0.0467976
0.0455343
0.0442834
0.0428854
0.0415498
0.0400819
0.0387122
0.037227
0.0358635
0.0343994
0.0330822
0.0316556
0.0303744
0.0289372
0.0544216
0.053971
0.0534041
0.0528881
0.0522297
0.0512688
0.0502232
0.0489684
0.0477313
0.0463278
0.0449914
0.0435069
0.0421237
0.0406036
0.0392203
0.0377116
0.036365
0.0348899
0.0335701
0.0320643
0.0575921
0.0572138
0.0567127
0.0562567
0.0556593
0.0547235
0.0537036
0.0524538
0.0512291
0.049821
0.0484893
0.0469904
0.0456052
0.0440706
0.0426764
0.0411496
0.0397919
0.0382918
0.036956
0.0354203
0.0611406
0.0606421
0.0601028
0.0596624
0.0590885
0.0581606
0.05715
0.0558994
0.0546807
0.0532695
0.0519409
0.0504365
0.0490492
0.0474965
0.0460981
0.0445467
0.0431778
0.041651
0.0402965
0.0387167
0.0645372
0.0640482
0.0635301
0.0631353
0.0625941
0.0616789
0.0606766
0.0594246
0.0582107
0.0567967
0.0554745
0.0539645
0.0525832
0.0510292
0.0496327
0.0480792
0.0467144
0.045181
0.0438275
0.0422381
0.0680455
0.0675266
0.0670083
0.0666287
0.0661045
0.0651846
0.0641824
0.0629218
0.0617098
0.0602928
0.0589746
0.0574658
0.0560889
0.0545302
0.0531391
0.0515783
0.0502155
0.0486752
0.0473172
0.045707
0.0717151
0.0711088
0.0705615
0.0701893
0.0696735
0.0687481
0.0677426
0.0664755
0.0652648
0.0638476
0.0625373
0.061031
0.0596655
0.0581164
0.0567363
0.0551873
0.0538393
0.0523081
0.0509623
0.0493597
0.075225
0.0745789
0.0740154
0.0736657
0.073164
0.0722431
0.0712358
0.0699692
0.0687605
0.0673508
0.0660471
0.0645539
0.0631969
0.0616578
0.0602893
0.0587503
0.0574122
0.0558929
0.0545523
0.0529516
0.0789553
0.078155
0.0775168
0.0771782
0.0766771
0.075761
0.0747486
0.0734853
0.0722777
0.0708777
0.0695834
0.0681036
0.066761
0.065242
0.063889
0.0623729
0.0610558
0.0595592
0.0582384
0.0566609
0.082313
0.0815128
0.0808795
0.0805735
0.0800891
0.0791821
0.0781688
0.076912
0.075707
0.0743225
0.073037
0.071581
0.07025
0.0687546
0.0674164
0.0659259
0.0646243
0.0631574
0.0618492
0.0602962
0.0857447
0.0848922
0.0842416
0.0839519
0.083476
0.0825712
0.0815542
0.080304
0.0791035
0.0777361
0.0764637
0.0750306
0.0737182
0.0722521
0.0709344
0.0694767
0.0682009
0.0667672
0.0654825
0.0639632
0.0889355
0.0880631
0.0874152
0.0871572
0.0867006
0.0858123
0.0847989
0.0835666
0.0823745
0.0810345
0.0797747
0.0783766
0.0770794
0.0756506
0.0743512
0.0729339
0.0716772
0.070288
0.0690188
0.0675409
0.0920771
0.0911364
0.0904491
0.0902342
0.089796
0.0889408
0.087936
0.0867313
0.0855499
0.0842412
0.0829981
0.0816335
0.0803572
0.0789657
0.0776899
0.0763128
0.0750843
0.0737347
0.0724891
0.0710497
0.0948839
0.0939588
0.0932801
0.0931233
0.0927144
0.0919009
0.0909088
0.0897398
0.0885713
0.087303
0.0860753
0.0847564
0.0834963
0.0821528
0.0808957
0.079571
0.0783619
0.0770687
0.0758381
0.0744531
0.0975104
0.0966094
0.0959449
0.0958497
0.0954745
0.0947034
0.0937279
0.0925956
0.0914435
0.0902147
0.0890073
0.0877291
0.0864923
0.0851912
0.0839584
0.0826768
0.0814951
0.0802431
0.0790326
0.0776854
0.0999622
0.0990489
0.0983957
0.0983604
0.0980235
0.0973031
0.0963496
0.0952635
0.0941319
0.0929526
0.0917658
0.0905411
0.0893239
0.0880779
0.0868646
0.0856415
0.0844778
0.0832878
0.082089
0.0808018
0.102105
0.101228
0.100583
0.100634
0.100344
0.0996855
0.0987618
0.0977255
0.0966202
0.0954885
0.094329
0.09315
0.0919601
0.0907588
0.089571
0.0883908
0.0872529
0.0861013
0.0849177
0.0836626
0.104094
0.103217
0.102595
0.10271
0.102469
0.101866
0.100976
0.0999909
0.0989161
0.0978372
0.0967053
0.0955813
0.0944146
0.0932674
0.0920998
0.0909754
0.0898537
0.0887601
0.0875847
0.0863832
0.105665
0.10487
0.104315
0.104521
0.104352
0.103812
0.102968
0.102033
0.100996
0.0999645
0.0988667
0.0977861
0.0966495
0.0955431
0.0944004
0.0933134
0.0922153
0.0911537
0.0899901
0.088812
0.107173
0.10638
0.10587
0.106144
0.106042
0.105559
0.104761
0.103877
0.102879
0.101898
0.100833
0.0998016
0.0986904
0.0976286
0.0965061
0.0954627
0.0943784
0.0933607
0.0922012
0.0910585
0.108318
0.107596
0.107155
0.107527
0.107505
0.107089
0.106344
0.105511
0.104556
0.103619
0.102591
0.101597
0.100517
0.0994895
0.0983901
0.0973754
0.0963106
0.0953134
0.0941605
0.0930276
0.109358
0.108662
0.108275
0.10873
0.108783
0.10843
0.107736
0.106953
0.106039
0.105148
0.104152
0.1032
0.102143
0.101149
0.100066
0.0990793
0.0980227
0.0970504
0.0958935
0.0947719
0.110151
0.109519
0.1092
0.109756
0.10989
0.109605
0.108965
0.108231
0.107358
0.106506
0.105545
0.104622
0.103591
0.102621
0.101556
0.100586
0.0995412
0.0985758
0.0974175
0.0962904
0.110842
0.110244
0.109989
0.11063
0.110843
0.110619
0.110029
0.109341
0.108508
0.107694
0.106761
0.10587
0.104857
0.103907
0.102851
0.101893
0.100847
0.099888
0.0987147
0.0975765
0.111375
0.110834
0.110649
0.111387
0.111683
0.111522
0.110985
0.11034
0.109545
0.108764
0.10786
0.10699
0.105996
0.10506
0.104012
0.103059
0.102015
0.10105
0.0998639
0.0987044
0.111855
0.111347
0.111224
0.112046
0.11242
0.112316
0.111828
0.111222
0.110462
0.10971
0.10883
0.107981
0.106998
0.106069
0.105022
0.104067
0.103011
0.102036
0.100823
0.0996325
0.112254
0.111802
0.111749
0.112666
0.113122
0.113076
0.112637
0.112066
0.111339
0.11061
0.109751
0.108912
0.107941
0.107015
0.105966
0.105004
0.103939
0.102943
0.101705
0.100479
0.112681
0.112257
0.112269
0.113264
0.113795
0.113799
0.113404
0.112864
0.112166
0.111456
0.110613
0.109784
0.108814
0.107883
0.106825
0.105847
0.104757
0.103737
0.102459
0.101185
0.113107
0.112733
0.112813
0.113898
0.114507
0.114564
0.114212
0.1137
0.113028
0.112332
0.111503
0.110674
0.109706
0.108767
0.107696
0.106699
0.105589
0.104535
0.10322
0.101894
0.113642
0.113293
0.11343
0.11459
0.115269
0.115369
0.115055
0.114566
0.113916
0.113232
0.112409
0.111581
0.110605
0.109649
0.108559
0.107533
0.106389
0.105297
0.103929
0.102541
0.114266
0.113963
0.114163
0.115408
0.116159
0.116304
0.116025
0.115556
0.114924
0.114245
0.113428
0.112589
0.111606
0.110631
0.109519
0.108462
0.107286
0.106148
0.104731
0.103279
0.115079
0.114795
0.115052
0.116367
0.117181
0.11736
0.117111
0.116655
0.116037
0.115359
0.114541
0.113692
0.112692
0.11169
0.110549
0.109451
0.108229
0.107039
0.105559
0.104029
0.116062
0.115816
0.116131
0.117525
0.118404
0.118619
0.118398
0.117952
0.117345
0.116663
0.115843
0.114975
0.11396
0.112928
0.111755
0.110616
0.109351
0.108103
0.106564
0.104956
0.117307
0.117071
0.117435
0.118891
0.119828
0.12007
0.119872
0.119432
0.11883
0.118142
0.117313
0.116427
0.115387
0.114318
0.113106
0.111915
0.110595
0.109283
0.107669
0.105971
0.11879
0.118583
0.119001
0.120532
0.121529
0.1218
0.121623
0.121186
0.120588
0.119887
0.119049
0.118134
0.117071
0.115963
0.114711
0.113468
0.112095
0.110714
0.10903
0.107243
0.120597
0.120388
0.120857
0.122447
0.123499
0.123791
0.123631
0.123191
0.122592
0.121877
0.121022
0.120081
0.118984
0.11783
0.11653
0.115225
0.113787
0.112331
0.110562
0.108671
0.122708
0.122514
0.123036
0.124699
0.125809
0.126126
0.125981
0.125538
0.124936
0.124202
0.123331
0.122353
0.121225
0.120024
0.118675
0.117308
0.115808
0.114273
0.112423
0.110431
0.125192
0.124995
0.125562
0.127288
0.128451
0.128785
0.128651
0.128201
0.127592
0.126837
0.125942
0.124931
0.123762
0.122506
0.121101
0.119663
0.118087
0.116467
0.114521
0.112413
0.128059
0.127869
0.128483
0.130283
0.1315
0.131855
0.131731
0.131272
0.130654
0.129873
0.128955
0.127901
0.126693
0.125383
0.12392
0.122412
0.120765
0.119054
0.117016
0.114794
0.131326
0.131134
0.131799
0.133666
0.134935
0.135307
0.135189
0.134718
0.134087
0.133281
0.132333
0.13124
0.129984
0.128612
0.127085
0.125496
0.123763
0.121957
0.119811
0.117461
0.135031
0.134839
0.135553
0.137502
0.138827
0.139221
0.139109
0.138627
0.137983
0.137149
0.136173
0.135033
0.133731
0.132299
0.130705
0.129038
0.127224
0.125317
0.123066
0.120589
0.139174
0.138978
0.139747
0.141773
0.143152
0.143565
0.143458
0.142966
0.142306
0.141446
0.140436
0.139254
0.137899
0.1364
0.134734
0.132979
0.131068
0.129057
0.126685
0.124066
0.143802
0.143607
0.14443
0.146546
0.147986
0.148424
0.148325
0.147824
0.147149
0.14626
0.14522
0.143988
0.142583
0.141018
0.139279
0.137438
0.135435
0.133311
0.130823
0.128062
0.148902
0.148703
0.149591
0.151796
0.153301
0.153765
0.153674
0.153166
0.152477
0.151563
0.150488
0.149213
0.14775
0.146115
0.144296
0.142361
0.140251
0.138012
0.135388
0.132473
0.154517
0.154324
0.155282
0.157596
0.159173
0.159673
0.159595
0.159083
0.158381
0.157442
0.156335
0.15501
0.153494
0.151789
0.14989
0.147861
0.145649
0.143286
0.14053
0.137457
0.160658
0.16047
0.161507
0.16393
0.165583
0.166121
0.166057
0.165544
0.164832
0.163872
0.16273
0.161363
0.159785
0.158008
0.156022
0.153892
0.151561
0.149073
0.146166
0.142923
0.167353
0.167186
0.168311
0.170865
0.172605
0.173192
0.173148
0.17264
0.171919
0.170938
0.169766
0.16835
0.166717
0.164867
0.162794
0.160561
0.158117
0.155492
0.152437
0.149017
0.174621
0.174471
0.175698
0.178385
0.18022
0.180859
0.18084
0.180341
0.179615
0.17862
0.177416
0.175962
0.174265
0.172341
0.170174
0.167834
0.165259
0.162495
0.159272
0.155663
0.182466
0.182359
0.183702
0.186549
0.188494
0.1892
0.189214
0.188732
0.188007
0.187
0.185771
0.184271
0.182518
0.180519
0.17826
0.175809
0.173107
0.170192
0.166801
0.162993
0.190942
0.190871
0.192343
0.195355
0.197418
0.198197
0.198252
0.197795
0.197076
0.196065
0.19481
0.193276
0.191461
0.189387
0.187027
0.184462
0.181616
0.178548
0.174968
0.170949
0.200023
0.200021
0.201644
0.204854
0.207056
0.207926
0.208033
0.20761
0.206905
0.205893
0.204621
0.203047
0.201178
0.199028
0.196571
0.193884
0.190899
0.187661
0.183892
0.179646
0.209787
0.209841
0.211635
0.21505
0.217405
0.218375
0.218544
0.218165
0.217482
0.216481
0.215191
0.213593
0.211662
0.209438
0.206874
0.204066
0.20092
0.197513
0.193529
0.189047
0.220187
0.220343
0.222333
0.225993
0.228524
0.229616
0.229861
0.229539
0.228888
0.227902
0.226606
0.224977
0.222996
0.220696
0.218028
0.21509
0.211787
0.20819
0.203991
0.199248
0.231337
0.23158
0.233786
0.2377
0.240422
0.241648
0.241981
0.241728
0.241118
0.240162
0.238862
0.237218
0.23518
0.232807
0.230026
0.226957
0.223476
0.219689
0.215245
0.210232
0.24316
0.24354
0.245993
0.250208
0.25315
0.254535
0.254974
0.254804
0.254248
0.253329
0.252037
0.250374
0.248291
0.245843
0.242953
0.239741
0.236085
0.232083
0.227392
0.22208
0.255776
0.256278
0.259004
0.263535
0.266717
0.268277
0.268837
0.268767
0.268278
0.267411
0.266132
0.264469
0.262335
0.259819
0.256808
0.253455
0.2496
0.245383
0.240412
0.234787
0.269096
0.269776
0.272812
0.27771
0.281166
0.282931
0.283633
0.283682
0.283277
0.282473
0.281222
0.279557
0.277387
0.274797
0.271671
0.268163
0.26411
0.259648
0.254391
0.248418
0.283249
0.284094
0.287469
0.292755
0.29651
0.298499
0.299364
0.299551
0.299245
0.298524
0.29731
0.295663
0.293452
0.290798
0.287546
0.283883
0.279606
0.274898
0.269316
0.262976
0.298132
0.299196
0.302955
0.308687
0.312782
0.31503
0.316083
0.316431
0.316245
0.31562
0.314461
0.312833
0.310596
0.307875
0.304501
0.300668
0.296167
0.291177
0.285259
0.278509
0.313851
0.315128
0.319313
0.32552
0.329987
0.332519
0.333784
0.334317
0.334271
0.333767
0.332673
0.331088
0.328825
0.326045
0.322539
0.318536
0.31378
0.308502
0.302206
0.295019
0.33033
0.33187
0.336526
0.343273
0.348156
0.351009
0.352516
0.35326
0.353377
0.35301
0.352004
0.350464
0.348191
0.34535
0.341716
0.337524
0.33251
0.326903
0.320208
0.312531
0.347653
0.349458
0.35463
0.36195
0.367285
0.370487
0.372261
0.373241
0.373546
0.373344
0.372439
0.37097
0.368687
0.365795
0.362021
0.357637
0.352329
0.346382
0.339237
0.331034
0.365734
0.367847
0.373588
0.38155
0.387384
0.390974
0.393047
0.394291
0.39481
0.394791
0.394012
0.392619
0.390346
0.3874
0.383488
0.378892
0.373282
0.366945
0.359322
0.350526
0.384599
0.387036
0.393404
0.402052
0.408425
0.412432
0.41483
0.416365
0.417122
0.417315
0.416678
0.415391
0.413128
0.410138
0.406075
0.40126
0.395308
0.388562
0.380399
0.370962
0.404209
0.406999
0.414045
0.423446
0.430405
0.434863
0.437613
0.439463
0.440483
0.440907
0.440439
0.439261
0.437029
0.433992
0.42978
0.424722
0.418413
0.411203
0.402459
0.392301
0.424532
0.427695
0.435484
0.445682
0.453262
0.45819
0.46131
0.463494
0.464797
0.465477
0.465191
0.464152
0.461951
0.458877
0.454503
0.449191
0.44248
0.434775
0.42538
0.414435
0.445575
0.449098
0.45767
0.468722
0.476956
0.482372
0.485872
0.488399
0.489999
0.490947
0.490865
0.489968
0.487819
0.484707
0.480169
0.474581
0.46745
0.459189
0.449091
0.437265
0.467159
0.471086
0.48051
0.492458
0.501361
0.507261
0.51113
0.513994
0.515889
0.517117
0.517245
0.516514
0.514416
0.511274
0.506562
0.500684
0.493083
0.484228
0.473341
0.460537
0.48946
0.49372
0.504001
0.516859
0.526416
0.532761
0.536957
0.54012
0.542286
0.543776
0.544115
0.543544
0.541511
0.53834
0.533453
0.527262
0.519168
0.509643
0.497882
0.483954
0.51219
0.516804
0.527976
0.541728
0.551886
0.558591
0.563026
0.566411
0.568787
0.570503
0.571027
0.570617
0.568639
0.565437
0.560361
0.553834
0.54518
0.534906
0.522132
0.50694
0.535563
0.540358
0.552354
0.566926
0.577566
0.584482
0.589005
0.592475
0.594952
0.59681
0.597469
0.597178
0.595246
0.592002
0.586716
0.579812
0.570536
0.559402
0.545536
0.529019
0.559064
0.564008
0.576778
0.592049
0.602984
0.609881
0.614262
0.617609
0.620016
0.621888
0.622582
0.622358
0.620415
0.617084
0.611538
0.604184
0.594192
0.582162
0.567227
0.549368
0.583008
0.587732
0.601052
0.616773
0.627702
0.634244
0.638156
0.641081
0.643169
0.64485
0.64543
0.64514
0.643098
0.639596
0.633699
0.625818
0.615099
0.602257
0.58622
0.566671
0.606449
0.610775
0.624435
0.640308
0.650858
0.656625
0.659659
0.661791
0.66324
0.664466
0.664705
0.664168
0.661849
0.658017
0.651646
0.643212
0.631827
0.61801
0.600383
0.578742
0.629457
0.63272
0.646297
0.661905
0.671623
0.676136
0.677835
0.67875
0.679192
0.679625
0.679227
0.678149
0.675296
0.670917
0.663964
0.654931
0.642532
0.627108
0.607478
0.583544
0.650056
0.651936
0.665128
0.680133
0.688625
0.691463
0.691424
0.690748
0.689833
0.689132
0.687741
0.685766
0.682027
0.676844
0.669062
0.658788
0.644465
0.626821
0.604764
0.577981
0.667549
0.667051
0.679391
0.69351
0.700541
0.701487
0.699516
0.697051
0.694568
0.692452
0.689738
0.686458
0.681476
0.67505
0.665507
0.652768
0.635575
0.614861
0.589379
0.558692
0.677666
0.67433
0.685738
0.699179
0.705054
0.704432
0.700836
0.696822
0.6929
0.689342
0.685129
0.680279
0.67363
0.664841
0.65193
0.635233
0.613665
0.58811
0.557339
0.520924
0.676425
0.669185
0.679865
0.693561
0.699481
0.698555
0.694509
0.689943
0.685327
0.680776
0.675279
0.668815
0.659584
0.646616
0.628474
0.605709
0.577127
0.543757
0.504748
0.459827
0.653306
0.642462
0.653979
0.670497
0.679386
0.681045
0.679151
0.676213
0.672577
0.6682
0.662154
0.653635
0.640093
0.620881
0.595124
0.562992
0.52343
0.477796
0.426053
0.368343
0.595886
0.582142
0.59817
0.622671
0.640057
0.649594
0.654445
0.656856
0.656941
0.654506
0.648353
0.636478
0.616609
0.588698
0.551861
0.505888
0.449827
0.385575
0.314554
0.237833
0.481162
0.469636
0.499028
0.541945
0.57775
0.603877
0.622587
0.63574
0.643173
0.644493
0.637578
0.619936
0.590613
0.549578
0.495949
0.429133
0.349097
0.258318
0.159397
0.0547046
0.28791
0.288839
0.347943
0.427139
0.497456
0.553335
0.595845
0.626638
0.645383
0.65126
0.641699
0.614612
0.570307
0.508433
0.428644
0.330637
0.215419
0.0861099
-0.053383
-0.199102
-0.00429079
0.0341546
0.153205
0.29757
0.426042
0.529329
0.607705
0.663259
0.696265
0.705316
0.688706
0.645358
0.576377
0.481543
0.361953
0.217448
0.0499395
-0.136895
-0.336943
-0.543426
-0.378879
-0.259682
-0.0347467
0.21275
0.426348
0.593695
0.716494
0.799872
0.845704
0.85292
0.821318
0.75087
0.643931
0.500748
0.323802
0.11256
-0.129843
-0.399424
-0.688012
-0.985239
-0.774891
-0.509657
-0.127196
0.253489
0.56527
0.79827
0.959418
1.05999
1.10678
1.10142
1.04548
0.938712
0.784426
0.581834
0.334664
0.0409292
-0.296278
-0.676711
-1.09126
-1.52471
-1.05254
-0.582192
-0.0268994
0.466248
0.839304
1.09584
1.25528
1.3386
1.35981
1.32496
1.23695
1.09439
0.897971
0.644483
0.334763
-0.0383926
-0.47636
-0.984996
-1.55548
-2.17262
-0.996046
-0.356233
0.258142
0.723651
1.03443
1.21842
1.30856
1.33478
1.30904
1.23718
1.11775
0.950165
0.730364
0.451394
0.10524
-0.322813
-0.845886
-1.48007
-2.20982
-3.01612
-0.811268
-0.0998633
0.370903
0.642245
0.812893
0.91553
0.962158
0.958992
0.903085
0.801429
0.653305
0.462495
0.219036
-0.0819842
-0.457145
-0.924191
-1.50685
-2.23488
-3.09648
-4.03834
-1.7118
-0.505144
0.0786803
0.452596
0.747393
0.952043
1.05197
1.06994
1.00751
0.887278
0.703225
0.472872
0.169475
-0.194792
-0.676951
-1.25932
-1.98682
-2.81804
-3.73438
-4.67776
-3.50701
-1.5172
-0.388773
0.228237
0.696039
0.971779
1.09657
1.12076
1.06314
0.944178
0.761259
0.524869
0.218436
-0.154376
-0.64453
-1.21566
-1.89198
-2.63532
-3.38963
-3.6991
-0.00058823
-0.000586894
-0.000481595
-0.00043276
-0.000415294
-0.000420564
-0.000428285
-0.00045291
-0.000481974
-0.000527324
-0.000577709
-0.000642216
-0.000712901
-0.000799786
-0.000890849
-0.00100141
-0.00112305
-0.00127734
-0.00147269
-0.00170601
0.00308984
0.00308486
0.00320198
0.0032719
0.00327085
0.00325697
0.00321466
0.00316631
0.00309467
0.00301479
0.00291615
0.00280739
0.00268337
0.00255254
0.00240091
0.00224147
0.00205414
0.00183227
0.00155646
0.00128703
0.00807766
0.0082506
0.00831048
0.0083986
0.00839997
0.00841283
0.00836748
0.0083324
0.00824489
0.00816084
0.00802954
0.00789796
0.00772469
0.00754597
0.00733895
0.00712529
0.00688393
0.00662727
0.00632791
0.00604725
0.00972552
0.00994006
0.0099976
0.0101161
0.0101163
0.0101416
0.0100795
0.0100405
0.00992789
0.00983189
0.00967369
0.00952615
0.00932711
0.00914083
0.00890838
0.00869256
0.00843911
0.00818998
0.0078965
0.00762437
0.0123807
0.0126254
0.0126916
0.0128466
0.0128547
0.012901
0.0128334
0.0128031
0.0126773
0.0125827
0.0124078
0.0122589
0.0120426
0.0118443
0.0115992
0.0113697
0.0111032
0.0108483
0.0105467
0.0102698
0.0153768
0.0156418
0.0157196
0.0159199
0.0159472
0.0160251
0.0159663
0.015955
0.0158301
0.0157448
0.0155656
0.0154184
0.0151953
0.0150042
0.0147484
0.0145268
0.0142552
0.0140057
0.0136996
0.0134295
0.0183745
0.0186806
0.018782
0.0190321
0.0190868
0.0192028
0.0191607
0.019176
0.0190593
0.0189913
0.0188135
0.0186769
0.0184502
0.0182545
0.0179952
0.0177635
0.017483
0.0172238
0.0169013
0.016604
0.0216143
0.0219383
0.022055
0.022355
0.0224409
0.0225985
0.0225789
0.022623
0.0225202
0.0224708
0.0223012
0.0221748
0.0219519
0.0217705
0.0215086
0.0212902
0.0210101
0.020758
0.0204315
0.0201366
0.0250056
0.02536
0.0254963
0.0258435
0.0259611
0.0261595
0.0261634
0.0262371
0.0261494
0.0261207
0.0259598
0.0258483
0.0256292
0.0254471
0.0251888
0.024963
0.0246798
0.0244183
0.0240777
0.0237536
0.0288121
0.0291721
0.029318
0.0297096
0.029858
0.0300963
0.0301241
0.0302268
0.0301557
0.0301468
0.0299975
0.0298982
0.0296871
0.0295219
0.0292652
0.0290551
0.0287753
0.0285223
0.0281796
0.027859
0.0328733
0.0332569
0.033416
0.0338482
0.0340234
0.0342974
0.0343461
0.0344759
0.0344196
0.0344306
0.0342911
0.0342065
0.0340008
0.0338351
0.0335836
0.0333654
0.0330838
0.0328204
0.0324658
0.0321157
0.0374434
0.0378231
0.0379845
0.0384501
0.0386471
0.0389529
0.0390206
0.0391755
0.0391338
0.0391632
0.0390349
0.0389619
0.0387644
0.0386151
0.0383661
0.0381637
0.0378874
0.0376343
0.0372817
0.0369383
0.0423179
0.0427203
0.0428873
0.0433842
0.0435986
0.0439333
0.0440165
0.0441951
0.0441656
0.0442131
0.0440927
0.0440332
0.0438397
0.0436894
0.0434446
0.0432342
0.0429567
0.0426938
0.0423311
0.0419593
0.0477604
0.0481541
0.0483168
0.048835
0.0490636
0.0494222
0.0495191
0.0497173
0.0496985
0.0497606
0.0496488
0.0495982
0.0494112
0.0492744
0.0490314
0.0488339
0.0485606
0.0483057
0.0479451
0.0475794
0.0535076
0.0539304
0.0540998
0.054642
0.0548817
0.0552611
0.055368
0.0555835
0.0555721
0.0556474
0.0555397
0.0554995
0.055314
0.055176
0.0549351
0.0547305
0.0544549
0.0541916
0.0538214
0.0534317
0.0598424
0.0602609
0.0604289
0.060981
0.0612258
0.0616146
0.0617269
0.0619516
0.0619448
0.0620264
0.0619223
0.0618847
0.0617027
0.0615725
0.0613331
0.0611384
0.0608695
0.0606146
0.0602504
0.0598679
0.0664888
0.0669374
0.0671141
0.0676738
0.0679181
0.0683097
0.0684226
0.068652
0.0686467
0.0687329
0.0686287
0.0685957
0.068412
0.0682795
0.0680411
0.0678436
0.0675755
0.0673207
0.0669536
0.0665578
0.0736288
0.0740905
0.0742723
0.0748284
0.0750688
0.0754559
0.0755682
0.0757964
0.0757923
0.0758782
0.0757768
0.0757415
0.0755611
0.0754315
0.0751962
0.075005
0.0747449
0.0744961
0.0741374
0.0737468
0.0810302
0.0815372
0.0817346
0.082292
0.0825293
0.082911
0.0830223
0.083248
0.0832449
0.0833303
0.0832289
0.0831949
0.0830125
0.0828802
0.0826438
0.0824499
0.082188
0.0819407
0.0815787
0.0811806
0.0888628
0.0893902
0.0895983
0.0901441
0.0903751
0.0907416
0.0908499
0.0910666
0.0910634
0.0911416
0.0910413
0.0910001
0.090821
0.0906866
0.0904532
0.0902603
0.0900061
0.0897611
0.0894058
0.0890078
0.0969372
0.0974953
0.0977212
0.0982545
0.0984803
0.0988292
0.0989338
0.0991382
0.0991326
0.0992027
0.0991002
0.0990565
0.0988755
0.0987402
0.0985071
0.0983168
0.0980615
0.0978215
0.0974618
0.0970604
0.105284
0.105868
0.106114
0.106632
0.106854
0.107182
0.107284
0.107473
0.107466
0.107525
0.107423
0.10737
0.107192
0.107051
0.10682
0.106627
0.106377
0.106134
0.105775
0.105368
0.113804
0.114419
0.114688
0.11519
0.115406
0.115713
0.115812
0.115988
0.115982
0.116033
0.115931
0.115874
0.115692
0.115548
0.115312
0.115119
0.114861
0.114622
0.114253
0.113844
0.122495
0.123136
0.123425
0.123907
0.12412
0.124404
0.124503
0.124665
0.124661
0.1247
0.124598
0.124529
0.124347
0.124194
0.123955
0.123753
0.123492
0.12324
0.122864
0.122442
0.131297
0.131951
0.132261
0.132724
0.132938
0.133202
0.133304
0.133453
0.133449
0.133478
0.133373
0.133298
0.133108
0.132951
0.132703
0.1325
0.132224
0.131975
0.131582
0.131159
0.140118
0.140797
0.141134
0.141585
0.141806
0.142053
0.142159
0.142294
0.142292
0.142308
0.142203
0.142115
0.141923
0.141754
0.141501
0.141284
0.141003
0.14074
0.140335
0.139891
0.148984
0.149676
0.150037
0.150474
0.150702
0.150932
0.151043
0.151166
0.151168
0.151176
0.151069
0.150974
0.150774
0.150597
0.150332
0.150112
0.149816
0.149553
0.149128
0.148675
0.157798
0.158515
0.158904
0.159334
0.159573
0.159792
0.159914
0.160029
0.160038
0.160036
0.159931
0.159821
0.159619
0.159426
0.159154
0.158919
0.158616
0.158336
0.157896
0.157415
0.166604
0.167333
0.167747
0.168171
0.168427
0.16864
0.168776
0.168886
0.168905
0.168895
0.168791
0.168673
0.168462
0.168255
0.167969
0.167719
0.167397
0.167105
0.16664
0.166135
0.175322
0.176083
0.176531
0.176965
0.177244
0.17746
0.177615
0.177723
0.177753
0.177736
0.177637
0.177503
0.17729
0.177067
0.17677
0.176499
0.176163
0.175843
0.175354
0.17481
0.183998
0.184785
0.185273
0.18572
0.186028
0.18625
0.186426
0.186535
0.186577
0.186555
0.186457
0.186315
0.186094
0.185852
0.18554
0.185243
0.184882
0.184533
0.184008
0.183417
0.192617
0.193448
0.193983
0.194457
0.194802
0.195039
0.195241
0.195355
0.195411
0.195385
0.195293
0.195136
0.194913
0.194651
0.194324
0.194001
0.193618
0.19323
0.19267
0.192024
0.201205
0.202079
0.202664
0.203171
0.203557
0.203813
0.204043
0.204166
0.204238
0.204211
0.204123
0.203956
0.203723
0.203437
0.20309
0.202732
0.202314
0.201884
0.201272
0.20056
0.209811
0.210737
0.211377
0.211924
0.212355
0.212638
0.2129
0.213038
0.21313
0.213103
0.213021
0.21284
0.2126
0.212293
0.211925
0.211533
0.211085
0.210606
0.209947
0.209167
0.218441
0.219427
0.220125
0.220715
0.221194
0.221506
0.221803
0.221959
0.222071
0.222048
0.221969
0.221779
0.221525
0.221189
0.220795
0.220359
0.219866
0.219332
0.218609
0.217745
0.227185
0.228237
0.228998
0.229642
0.230173
0.230522
0.230859
0.231035
0.231169
0.23115
0.231076
0.230871
0.230607
0.230243
0.229818
0.22934
0.228805
0.22821
0.227426
0.22648
0.236039
0.237168
0.238001
0.238703
0.239291
0.23968
0.240057
0.240258
0.240414
0.2404
0.240327
0.24011
0.239824
0.239425
0.238962
0.238432
0.23784
0.237178
0.236313
0.235266
0.245123
0.246335
0.247246
0.248016
0.248666
0.249099
0.249517
0.249743
0.249921
0.24991
0.249839
0.249603
0.2493
0.248868
0.248368
0.247786
0.247139
0.246403
0.245461
0.244315
0.254429
0.255736
0.256734
0.257578
0.258293
0.258771
0.259231
0.259481
0.259679
0.259673
0.2596
0.25935
0.259023
0.25855
0.258005
0.25736
0.256642
0.255823
0.254785
0.253521
0.264084
0.26549
0.26658
0.267505
0.268292
0.268822
0.269326
0.269602
0.269821
0.269818
0.269744
0.269472
0.269123
0.268611
0.268018
0.267309
0.266522
0.265614
0.264483
0.263104
0.274077
0.275595
0.276784
0.277795
0.278658
0.279244
0.279794
0.280099
0.280338
0.28034
0.28026
0.27997
0.279589
0.279028
0.278378
0.277594
0.276722
0.275717
0.274474
0.272958
0.28454
0.286174
0.287467
0.288572
0.289516
0.290163
0.290765
0.291101
0.291362
0.291366
0.291282
0.290965
0.290554
0.289943
0.289233
0.288374
0.287419
0.286311
0.284958
0.283306
0.295463
0.297226
0.298633
0.299836
0.300865
0.301575
0.302231
0.3026
0.302884
0.302892
0.302799
0.302458
0.302007
0.301338
0.300559
0.299612
0.298558
0.297337
0.295853
0.294045
0.306977
0.308875
0.310401
0.31171
0.312828
0.313608
0.314319
0.314724
0.315032
0.315042
0.314943
0.31457
0.31408
0.313353
0.312503
0.311468
0.310316
0.308975
0.307361
0.305396
0.319067
0.321115
0.32277
0.32419
0.325404
0.326255
0.327025
0.327467
0.327799
0.327813
0.327702
0.327301
0.326764
0.32597
0.325041
0.323904
0.322638
0.321166
0.319402
0.317257
0.331859
0.334064
0.335856
0.337399
0.338713
0.339643
0.340475
0.340957
0.341314
0.341332
0.34121
0.340773
0.340192
0.33933
0.338319
0.33708
0.335699
0.334087
0.332173
0.329846
0.345338
0.347718
0.349659
0.351332
0.352755
0.353767
0.354665
0.35519
0.355574
0.355596
0.355461
0.354992
0.354356
0.353419
0.352316
0.350961
0.349449
0.347686
0.345598
0.343067
0.359628
0.362193
0.364293
0.366109
0.367649
0.368752
0.369721
0.370294
0.370706
0.370733
0.370586
0.370078
0.36939
0.368375
0.367177
0.365705
0.364059
0.362134
0.359872
0.357131
0.374714
0.377485
0.37976
0.38173
0.383395
0.384597
0.385643
0.386268
0.386712
0.386746
0.386584
0.386041
0.385292
0.384192
0.382889
0.381285
0.379486
0.377389
0.374928
0.371953
0.390715
0.393707
0.39617
0.398309
0.400113
0.401424
0.402555
0.403239
0.403717
0.40376
0.403587
0.403
0.402192
0.401005
0.399593
0.397853
0.395901
0.393617
0.390953
0.387735
0.407622
0.410859
0.41353
0.415854
0.417807
0.419239
0.420462
0.421211
0.42173
0.421786
0.421598
0.420975
0.420098
0.418816
0.417284
0.415396
0.413268
0.410786
0.407892
0.404407
0.425547
0.42905
0.431947
0.434475
0.436595
0.43816
0.439486
0.44031
0.440874
0.440945
0.440748
0.44008
0.439138
0.437759
0.436102
0.434058
0.431753
0.429056
0.425927
0.422161
0.444489
0.448287
0.451435
0.454186
0.456488
0.458201
0.459642
0.46055
0.461166
0.46126
0.461051
0.460347
0.45933
0.457847
0.456053
0.453843
0.451335
0.448412
0.445018
0.440945
0.464553
0.468674
0.472097
0.475096
0.477601
0.47948
0.48105
0.482053
0.48273
0.482851
0.482637
0.481889
0.480801
0.479209
0.477276
0.474888
0.472176
0.469005
0.465337
0.460939
0.485747
0.490226
0.493953
0.497227
0.499955
0.50202
0.503734
0.504846
0.505593
0.505751
0.505532
0.504749
0.50358
0.501875
0.499788
0.497211
0.494269
0.490838
0.486864
0.482114
0.50817
0.513044
0.517107
0.520685
0.523664
0.525937
0.527814
0.52905
0.529879
0.530079
0.529864
0.529039
0.527796
0.525972
0.523727
0.520949
0.51777
0.514054
0.509763
0.504634
0.531838
0.53715
0.541587
0.545502
0.548759
0.551264
0.553324
0.554703
0.555627
0.555882
0.555673
0.554818
0.55349
0.551544
0.549127
0.546135
0.542692
0.538677
0.534032
0.528496
0.556843
0.56264
0.56749
0.571782
0.57535
0.578117
0.580383
0.581924
0.582958
0.583279
0.583085
0.582196
0.580791
0.578714
0.576121
0.572901
0.569187
0.564842
0.559828
0.553852
0.583209
0.589544
0.594855
0.599564
0.603478
0.606538
0.609038