/*--------------------------------*- C++ -*----------------------------------*\
  =========                 |
  \\      /  F ield         | OpenFOAM: The Open Source CFD Toolbox
   \\    /   O peration     | Website:  https://openfoam.org
    \\  /    A nd           | Version:  6
     \\/     M anipulation  |
\*---------------------------------------------------------------------------*/
FoamFile
{
    version     2.0;
    format      ascii;
    class       surfaceScalarField;
    location    "7";
    object      phi;
}
// * * * * * * * * * * * * * * * * * * * * * * * * * * * * * * * * * * * * * //

dimensions      [0 3 -1 0 0 0 0];

internalField   nonuniform List<scalar> 
258600
(
-4.00237e-09
-8.47857e-08
3.76481e-09
-4.22832e-09
-9.67013e-08
-4.42477e-09
-1.08143e-07
-4.59869e-09
-1.18864e-07
-4.75279e-09
-1.28675e-07
-4.8942e-09
-1.3744e-07
-5.02613e-09
-1.45074e-07
-5.15418e-09
-1.51553e-07
-5.2787e-09
-1.569e-07
-5.40185e-09
-1.61177e-07
-5.52098e-09
-1.64471e-07
-5.63592e-09
-1.66884e-07
-5.74287e-09
-1.68519e-07
-5.8414e-09
-1.69479e-07
-5.92858e-09
-1.6986e-07
-6.0051e-09
-1.69754e-07
-6.06971e-09
-1.69251e-07
-6.12448e-09
-1.68435e-07
-6.16989e-09
-1.67388e-07
-1.66188e-07
-6.20724e-09
-4.89508e-09
-8.46343e-08
4.74462e-09
-5.05254e-09
-9.65462e-08
-5.20757e-09
-1.07993e-07
-5.34653e-09
-1.18726e-07
-5.47513e-09
-1.2855e-07
-5.59127e-09
-1.37323e-07
-5.70432e-09
-1.44963e-07
-5.81295e-09
-1.51444e-07
-5.92358e-09
-1.5679e-07
-6.03229e-09
-1.61068e-07
-6.14202e-09
-1.64363e-07
-6.24704e-09
-1.6678e-07
-6.34885e-09
-1.6842e-07
-6.44179e-09
-1.69387e-07
-6.52795e-09
-1.69776e-07
-6.60298e-09
-1.69681e-07
-6.6702e-09
-1.69187e-07
-6.72631e-09
-1.68381e-07
-6.77604e-09
-1.67342e-07
-1.66151e-07
-6.81502e-09
-6.39852e-09
-8.45864e-08
6.34865e-09
-6.46258e-09
-9.64828e-08
-6.54791e-09
-1.07916e-07
-6.62892e-09
-1.18645e-07
-6.71692e-09
-1.28467e-07
-6.79741e-09
-1.3724e-07
-6.88484e-09
-1.44879e-07
-6.96778e-09
-1.51358e-07
-7.05885e-09
-1.56703e-07
-7.14631e-09
-1.60978e-07
-7.24009e-09
-1.64273e-07
-7.32797e-09
-1.66691e-07
-7.41842e-09
-1.68334e-07
-7.49965e-09
-1.69305e-07
-7.58012e-09
-1.69701e-07
-7.64909e-09
-1.69612e-07
-7.71542e-09
-1.69126e-07
-7.76892e-09
-1.68328e-07
-7.81956e-09
-1.67299e-07
-1.66116e-07
-7.85634e-09
-8.21672e-09
-8.45937e-08
8.22468e-09
-8.22195e-09
-9.64769e-08
-8.24997e-09
-1.07898e-07
-8.27559e-09
-1.18617e-07
-8.31758e-09
-1.28431e-07
-8.35548e-09
-1.37198e-07
-8.40884e-09
-1.4483e-07
-8.45927e-09
-1.51303e-07
-8.5245e-09
-1.56642e-07
-8.58633e-09
-1.60913e-07
-8.66028e-09
-1.64205e-07
-8.72827e-09
-1.66621e-07
-8.80455e-09
-1.68264e-07
-8.87175e-09
-1.69237e-07
-8.94373e-09
-1.69636e-07
-9.00428e-09
-1.69552e-07
-9.0672e-09
-1.69072e-07
-9.11684e-09
-1.6828e-07
-9.16849e-09
-1.67258e-07
-1.66081e-07
-9.20506e-09
-1.02469e-08
-8.46539e-08
1.03046e-08
-1.01997e-08
-9.65236e-08
-1.01785e-08
-1.07931e-07
-1.01544e-08
-1.18638e-07
-1.01524e-08
-1.28442e-07
-1.01475e-08
-1.37198e-07
-1.01643e-08
-1.4482e-07
-1.01793e-08
-1.51283e-07
-1.02151e-08
-1.56613e-07
-1.0248e-08
-1.60876e-07
-1.02986e-08
-1.64162e-07
-1.03436e-08
-1.66573e-07
-1.04025e-08
-1.68214e-07
-1.04527e-08
-1.69186e-07
-1.0513e-08
-1.69586e-07
-1.05623e-08
-1.69504e-07
-1.0619e-08
-1.69027e-07
-1.06622e-08
-1.68239e-07
-1.07126e-08
-1.67221e-07
-1.66049e-07
-1.07465e-08
-1.23755e-08
-8.47485e-08
1.24672e-08
-1.229e-08
-9.66099e-08
-1.22301e-08
-1.08006e-07
-1.21652e-08
-1.18701e-07
-1.21245e-08
-1.28494e-07
-1.20805e-08
-1.37238e-07
-1.20622e-08
-1.44847e-07
-1.20424e-08
-1.51298e-07
-1.20478e-08
-1.56616e-07
-1.2051e-08
-1.60869e-07
-1.20767e-08
-1.64146e-07
-1.20974e-08
-1.6655e-07
-1.21367e-08
-1.68185e-07
-1.21679e-08
-1.69154e-07
-1.22139e-08
-1.69552e-07
-1.2249e-08
-1.69469e-07
-1.2296e-08
-1.68993e-07
-1.23294e-08
-1.68208e-07
-1.23738e-08
-1.67192e-07
-1.66025e-07
-1.24006e-08
-1.45462e-08
-8.48621e-08
1.46505e-08
-1.44352e-08
-9.67231e-08
-1.4346e-08
-1.08113e-07
-1.42465e-08
-1.188e-07
-1.41722e-08
-1.28581e-07
-1.40929e-08
-1.37313e-07
-1.40422e-08
-1.44909e-07
-1.39896e-08
-1.51346e-07
-1.3966e-08
-1.56651e-07
-1.39402e-08
-1.60891e-07
-1.39408e-08
-1.64157e-07
-1.39369e-08
-1.66551e-07
-1.39554e-08
-1.68179e-07
-1.39662e-08
-1.69143e-07
-1.39958e-08
-1.69536e-07
-1.40146e-08
-1.69452e-07
-1.40491e-08
-1.68975e-07
-1.40695e-08
-1.68189e-07
-1.41049e-08
-1.67176e-07
-1.66011e-07
-1.41215e-08
-1.6747e-08
-8.49944e-08
1.68713e-08
-1.66098e-08
-9.68611e-08
-1.64922e-08
-1.08249e-07
-1.63619e-08
-1.18928e-07
-1.62573e-08
-1.287e-07
-1.61468e-08
-1.37419e-07
-1.60668e-08
-1.45001e-07
-1.59847e-08
-1.51423e-07
-1.59341e-08
-1.56714e-07
-1.58814e-08
-1.6094e-07
-1.58579e-08
-1.64193e-07
-1.58301e-08
-1.66577e-07
-1.58279e-08
-1.68196e-07
-1.58181e-08
-1.69152e-07
-1.58303e-08
-1.69541e-07
-1.58318e-08
-1.69452e-07
-1.58519e-08
-1.68973e-07
-1.5858e-08
-1.68186e-07
-1.5882e-08
-1.67173e-07
-1.6601e-07
-1.58868e-08
-1.89457e-08
-8.51373e-08
1.90819e-08
-1.87901e-08
-9.70173e-08
-1.86498e-08
-1.08407e-07
-1.84936e-08
-1.19083e-07
-1.83625e-08
-1.28846e-07
-1.82245e-08
-1.37554e-07
-1.81179e-08
-1.45122e-07
-1.80089e-08
-1.51528e-07
-1.79331e-08
-1.56804e-07
-1.78551e-08
-1.61015e-07
-1.78085e-08
-1.64255e-07
-1.77576e-08
-1.66627e-07
-1.77346e-08
-1.68236e-07
-1.77041e-08
-1.69183e-07
-1.7698e-08
-1.69565e-07
-1.76814e-08
-1.69471e-07
-1.76859e-08
-1.68988e-07
-1.76763e-08
-1.682e-07
-1.76874e-08
-1.67185e-07
-1.66022e-07
-1.7679e-08
-2.11646e-08
-8.52988e-08
2.13172e-08
-2.09863e-08
-9.71967e-08
-2.08212e-08
-1.08592e-07
-2.06391e-08
-1.19265e-07
-2.04823e-08
-1.2902e-07
-2.03184e-08
-1.37715e-07
-2.01867e-08
-1.45269e-07
-2.00526e-08
-1.5166e-07
-1.99529e-08
-1.56919e-07
-1.98511e-08
-1.61115e-07
-1.97821e-08
-1.64341e-07
-1.9709e-08
-1.667e-07
-1.96655e-08
-1.68297e-07
-1.96146e-08
-1.69235e-07
-1.959e-08
-1.69609e-07
-1.9555e-08
-1.69509e-07
-1.95432e-08
-1.69021e-07
-1.95173e-08
-1.68229e-07
-1.95144e-08
-1.67213e-07
-1.66048e-07
-1.9492e-08
-2.33485e-08
-8.54654e-08
2.35045e-08
-2.31615e-08
-9.73864e-08
-2.29821e-08
-1.08792e-07
-2.27821e-08
-1.19466e-07
-2.2605e-08
-1.29215e-07
-2.24193e-08
-1.37899e-07
-2.22653e-08
-1.45439e-07
-2.21086e-08
-1.51815e-07
-2.19863e-08
-1.57058e-07
-2.18621e-08
-1.61238e-07
-2.17714e-08
-1.64449e-07
-2.16767e-08
-1.66795e-07
-2.16126e-08
-1.68381e-07
-2.15416e-08
-1.69308e-07
-2.1498e-08
-1.69673e-07
-2.14443e-08
-1.69566e-07
-2.14153e-08
-1.69072e-07
-2.13727e-08
-1.68276e-07
-2.13547e-08
-1.67257e-07
-1.6609e-07
-2.13176e-08
-2.55662e-08
-8.56488e-08
2.57368e-08
-2.53592e-08
-9.75964e-08
-2.51583e-08
-1.09013e-07
-2.49367e-08
-1.19689e-07
-2.47373e-08
-1.29433e-07
-2.45297e-08
-1.38106e-07
-2.43534e-08
-1.45633e-07
-2.41747e-08
-1.51993e-07
-2.40305e-08
-1.57219e-07
-2.38847e-08
-1.61384e-07
-2.37725e-08
-1.6458e-07
-2.36569e-08
-1.66911e-07
-2.35725e-08
-1.68484e-07
-2.34815e-08
-1.69401e-07
-2.34189e-08
-1.69756e-07
-2.33466e-08
-1.69641e-07
-2.33001e-08
-1.69141e-07
-2.32405e-08
-1.68339e-07
-2.32068e-08
-1.67316e-07
-1.66146e-07
-2.31545e-08
-2.77672e-08
-8.58415e-08
2.79487e-08
-2.75472e-08
-9.78197e-08
-2.73297e-08
-1.0925e-07
-2.70908e-08
-1.1993e-07
-2.6872e-08
-1.2967e-07
-2.66448e-08
-1.38334e-07
-2.64475e-08
-1.45847e-07
-2.62481e-08
-1.52192e-07
-2.60824e-08
-1.57403e-07
-2.59156e-08
-1.61551e-07
-2.57822e-08
-1.64731e-07
-2.5646e-08
-1.67049e-07
-2.55409e-08
-1.68609e-07
-2.54302e-08
-1.69514e-07
-2.53479e-08
-1.69859e-07
-2.5257e-08
-1.69735e-07
-2.51922e-08
-1.69228e-07
-2.51153e-08
-1.6842e-07
-2.50649e-08
-1.67391e-07
-1.66217e-07
-2.49972e-08
-2.99769e-08
-8.60463e-08
3.01703e-08
-2.97431e-08
-9.8057e-08
-2.95087e-08
-1.09504e-07
-2.92524e-08
-1.20189e-07
-2.90138e-08
-1.29926e-07
-2.8767e-08
-1.38582e-07
-2.85485e-08
-1.46082e-07
-2.83285e-08
-1.52412e-07
-2.81409e-08
-1.57607e-07
-2.79534e-08
-1.61739e-07
-2.77985e-08
-1.64904e-07
-2.7642e-08
-1.67206e-07
-2.75162e-08
-1.68753e-07
-2.73857e-08
-1.69646e-07
-2.72838e-08
-1.6998e-07
-2.71742e-08
-1.69847e-07
-2.70908e-08
-1.69331e-07
-2.69967e-08
-1.68517e-07
-2.69293e-08
-1.67482e-07
-1.66303e-07
-2.68458e-08
-3.21743e-08
-8.62579e-08
3.23735e-08
-3.19327e-08
-9.83024e-08
-3.16854e-08
-1.09769e-07
-3.14146e-08
-1.20462e-07
-3.11578e-08
-1.30199e-07
-3.08925e-08
-1.38848e-07
-3.0653e-08
-1.46338e-07
-3.04128e-08
-1.52653e-07
-3.02034e-08
-1.57832e-07
-2.99953e-08
-1.61948e-07
-2.98186e-08
-1.65097e-07
-2.96417e-08
-1.67385e-07
-2.94946e-08
-1.68917e-07
-2.93447e-08
-1.69797e-07
-2.92222e-08
-1.70121e-07
-2.90941e-08
-1.69977e-07
-2.89915e-08
-1.69453e-07
-2.888e-08
-1.68631e-07
-2.87945e-08
-1.67589e-07
-1.66405e-07
-2.86951e-08
-3.43854e-08
-8.64807e-08
3.45974e-08
-3.4132e-08
-9.8559e-08
-3.38688e-08
-1.10048e-07
-3.35819e-08
-1.20752e-07
-3.33056e-08
-1.3049e-07
-3.30212e-08
-1.39134e-07
-3.27603e-08
-1.46613e-07
-3.24997e-08
-1.52915e-07
-3.22682e-08
-1.58078e-07
-3.20395e-08
-1.62178e-07
-3.18408e-08
-1.65311e-07
-3.16437e-08
-1.67583e-07
-3.14753e-08
-1.69101e-07
-3.13056e-08
-1.69968e-07
-3.11628e-08
-1.70279e-07
-3.10159e-08
-1.70125e-07
-3.08939e-08
-1.69591e-07
-3.07648e-08
-1.68761e-07
-3.06611e-08
-1.67712e-07
-1.66521e-07
-3.05453e-08
-3.6605e-08
-8.67141e-08
3.68283e-08
-3.63379e-08
-9.88281e-08
-3.60568e-08
-1.10342e-07
-3.57522e-08
-1.21058e-07
-3.54551e-08
-1.308e-07
-3.51511e-08
-1.3944e-07
-3.48681e-08
-1.46909e-07
-3.45871e-08
-1.53197e-07
-3.43331e-08
-1.58346e-07
-3.40838e-08
-1.62429e-07
-3.38627e-08
-1.65545e-07
-3.36452e-08
-1.67802e-07
-3.34548e-08
-1.69306e-07
-3.32657e-08
-1.70159e-07
-3.31015e-08
-1.70458e-07
-3.29359e-08
-1.70292e-07
-3.27937e-08
-1.69749e-07
-3.2647e-08
-1.68909e-07
-3.25237e-08
-1.67852e-07
-1.66654e-07
-3.23915e-08
-3.88154e-08
-8.69569e-08
3.90536e-08
-3.85359e-08
-9.91088e-08
-3.82377e-08
-1.10649e-07
-3.79169e-08
-1.21381e-07
-3.76002e-08
-1.31127e-07
-3.72776e-08
-1.39763e-07
-3.69732e-08
-1.47224e-07
-3.66721e-08
-1.535e-07
-3.63959e-08
-1.58633e-07
-3.61261e-08
-1.627e-07
-3.58826e-08
-1.658e-07
-3.56449e-08
-1.68041e-07
-3.54326e-08
-1.69529e-07
-3.52235e-08
-1.70368e-07
-3.50382e-08
-1.70654e-07
-3.48535e-08
-1.70477e-07
-3.4691e-08
-1.69923e-07
-3.45262e-08
-1.69073e-07
-3.43834e-08
-1.68008e-07
-1.66803e-07
-3.42342e-08
-4.10164e-08
-8.72137e-08
4.12656e-08
-4.07248e-08
-9.94037e-08
-4.04111e-08
-1.10972e-07
-4.00752e-08
-1.2172e-07
-3.97397e-08
-1.31472e-07
-3.93992e-08
-1.40107e-07
-3.90738e-08
-1.47559e-07
-3.87533e-08
-1.53823e-07
-3.84549e-08
-1.58941e-07
-3.81649e-08
-1.62992e-07
-3.78989e-08
-1.66076e-07
-3.76409e-08
-1.68301e-07
-3.74059e-08
-1.69774e-07
-3.71771e-08
-1.70599e-07
-3.69697e-08
-1.70871e-07
-3.6766e-08
-1.70682e-07
-3.65822e-08
-1.70117e-07
-3.63994e-08
-1.69257e-07
-3.62358e-08
-1.68183e-07
-1.6697e-07
-3.60695e-08
-4.32045e-08
-8.74834e-08
4.34663e-08
-4.29016e-08
-9.97111e-08
-4.25741e-08
-1.11308e-07
-4.22246e-08
-1.22073e-07
-4.18718e-08
-1.31833e-07
-4.15145e-08
-1.40467e-07
-4.11689e-08
-1.47912e-07
-4.08294e-08
-1.54164e-07
-4.05091e-08
-1.59269e-07
-4.01991e-08
-1.63304e-07
-3.99105e-08
-1.66372e-07
-3.96321e-08
-1.6858e-07
-3.93747e-08
-1.70038e-07
-3.91255e-08
-1.70848e-07
-3.88962e-08
-1.71107e-07
-3.86729e-08
-1.70905e-07
-3.84678e-08
-1.70328e-07
-3.82664e-08
-1.69458e-07
-3.80821e-08
-1.68374e-07
-1.67152e-07
-3.78979e-08
-4.53981e-08
-8.77687e-08
4.56741e-08
-4.50802e-08
-1.00033e-07
-4.47368e-08
-1.11659e-07
-4.43721e-08
-1.22442e-07
-4.40011e-08
-1.32211e-07
-4.36264e-08
-1.40845e-07
-4.32602e-08
-1.48285e-07
-4.29014e-08
-1.54527e-07
-4.25589e-08
-1.59617e-07
-4.22285e-08
-1.63638e-07
-4.19167e-08
-1.6669e-07
-4.16176e-08
-1.68882e-07
-4.13368e-08
-1.70324e-07
-4.10674e-08
-1.71119e-07
-4.08149e-08
-1.71364e-07
-4.0572e-08
-1.71149e-07
-4.03445e-08
-1.7056e-07
-4.01244e-08
-1.69679e-07
-3.99178e-08
-1.68585e-07
-1.67356e-07
-3.97156e-08
-4.75861e-08
-8.80596e-08
4.78764e-08
-4.72572e-08
-1.00365e-07
-4.6898e-08
-1.12022e-07
-4.65182e-08
-1.22826e-07
-4.61285e-08
-1.32605e-07
-4.57357e-08
-1.41242e-07
-4.53482e-08
-1.48677e-07
-4.49694e-08
-1.54909e-07
-4.4604e-08
-1.59986e-07
-4.42525e-08
-1.63992e-07
-4.39171e-08
-1.67028e-07
-4.35966e-08
-1.69204e-07
-4.32922e-08
-1.70631e-07
-4.30013e-08
-1.71411e-07
-4.27257e-08
-1.71641e-07
-4.2462e-08
-1.71412e-07
-4.2212e-08
-1.7081e-07
-4.19719e-08
-1.69918e-07
-4.17433e-08
-1.68814e-07
-1.67575e-07
-4.15219e-08
-4.97805e-08
-8.83663e-08
5.00826e-08
-4.94373e-08
-1.00712e-07
-4.9061e-08
-1.12402e-07
-4.86644e-08
-1.23227e-07
-4.82546e-08
-1.33019e-07
-4.78427e-08
-1.41658e-07
-4.74329e-08
-1.4909e-07
-4.70333e-08
-1.55313e-07
-4.66441e-08
-1.60378e-07
-4.62708e-08
-1.64369e-07
-4.59109e-08
-1.6739e-07
-4.55681e-08
-1.69551e-07
-4.52389e-08
-1.70962e-07
-4.49263e-08
-1.71726e-07
-4.46261e-08
-1.71942e-07
-4.43412e-08
-1.71698e-07
-4.40673e-08
-1.71084e-07
-4.38068e-08
-1.70179e-07
-4.35545e-08
-1.69065e-07
-1.67817e-07
-4.33135e-08
-5.19755e-08
-8.86877e-08
5.22919e-08
-5.16173e-08
-1.01076e-07
-5.12231e-08
-1.12798e-07
-5.08089e-08
-1.23647e-07
-5.03786e-08
-1.33451e-07
-4.99466e-08
-1.42095e-07
-4.95139e-08
-1.49524e-07
-4.90923e-08
-1.55739e-07
-4.86787e-08
-1.60792e-07
-4.82825e-08
-1.64769e-07
-4.78973e-08
-1.67775e-07
-4.75313e-08
-1.6992e-07
-4.71768e-08
-1.71315e-07
-4.68409e-08
-1.72063e-07
-4.65158e-08
-1.72264e-07
-4.62082e-08
-1.72006e-07
-4.591e-08
-1.71378e-07
-4.56278e-08
-1.70461e-07
-4.53518e-08
-1.69336e-07
-1.68078e-07
-4.50899e-08
-5.41715e-08
-8.90263e-08
5.45029e-08
-5.37964e-08
-1.01457e-07
-5.3384e-08
-1.13213e-07
-5.29517e-08
-1.24086e-07
-5.25003e-08
-1.33905e-07
-5.20476e-08
-1.42554e-07
-5.15913e-08
-1.49981e-07
-5.11469e-08
-1.56189e-07
-5.07079e-08
-1.61232e-07
-5.02877e-08
-1.65195e-07
-4.98763e-08
-1.68185e-07
-4.94859e-08
-1.70315e-07
-4.91048e-08
-1.71694e-07
-4.87448e-08
-1.72427e-07
-4.83933e-08
-1.72612e-07
-4.80622e-08
-1.72339e-07
-4.77383e-08
-1.71697e-07
-4.74336e-08
-1.70767e-07
-4.71324e-08
-1.69631e-07
-1.68363e-07
-4.68488e-08
-5.63705e-08
-8.93759e-08
5.67205e-08
-5.59798e-08
-1.01852e-07
-5.55479e-08
-1.13645e-07
-5.50961e-08
-1.24544e-07
-5.46222e-08
-1.34379e-07
-5.41471e-08
-1.43036e-07
-5.36658e-08
-1.50462e-07
-5.31971e-08
-1.56664e-07
-5.27315e-08
-1.61696e-07
-5.22859e-08
-1.65646e-07
-5.1847e-08
-1.68622e-07
-5.14308e-08
-1.70735e-07
-5.10221e-08
-1.72098e-07
-5.06361e-08
-1.72815e-07
-5.02575e-08
-1.72984e-07
-4.99011e-08
-1.72697e-07
-4.95507e-08
-1.7204e-07
-4.92218e-08
-1.71097e-07
-4.88949e-08
-1.69948e-07
-1.68669e-07
-4.85882e-08
-5.85735e-08
-8.97441e-08
5.89372e-08
-5.81655e-08
-1.02267e-07
-5.77139e-08
-1.14098e-07
-5.72413e-08
-1.25025e-07
-5.67437e-08
-1.34877e-07
-5.62448e-08
-1.43542e-07
-5.57372e-08
-1.50969e-07
-5.52426e-08
-1.57166e-07
-5.47491e-08
-1.62188e-07
-5.42765e-08
-1.66125e-07
-5.38089e-08
-1.69086e-07
-5.33652e-08
-1.71184e-07
-5.29274e-08
-1.72531e-07
-5.25143e-08
-1.73232e-07
-5.21068e-08
-1.73385e-07
-5.1724e-08
-1.73082e-07
-5.13456e-08
-1.7241e-07
-5.09912e-08
-1.71453e-07
-5.06371e-08
-1.70292e-07
-1.69002e-07
-5.03061e-08
-6.07902e-08
-9.01315e-08
6.11734e-08
-6.03615e-08
-1.02704e-07
-5.98866e-08
-1.14574e-07
-5.939e-08
-1.2553e-07
-5.88665e-08
-1.35401e-07
-5.83412e-08
-1.44076e-07
-5.78056e-08
-1.51504e-07
-5.7283e-08
-1.57695e-07
-5.67601e-08
-1.62708e-07
-5.62585e-08
-1.66633e-07
-5.57607e-08
-1.6958e-07
-5.52878e-08
-1.71662e-07
-5.48197e-08
-1.72993e-07
-5.43774e-08
-1.73678e-07
-5.39401e-08
-1.73815e-07
-5.35287e-08
-1.73495e-07
-5.31213e-08
-1.72807e-07
-5.27396e-08
-1.71835e-07
-5.23576e-08
-1.70661e-07
-1.69359e-07
-5.20007e-08
-6.30006e-08
-9.05365e-08
6.33978e-08
-6.2553e-08
-1.03161e-07
-6.20563e-08
-1.15073e-07
-6.15359e-08
-1.26061e-07
-6.09862e-08
-1.35953e-07
-6.04337e-08
-1.44638e-07
-5.9869e-08
-1.52068e-07
-5.93171e-08
-1.58255e-07
-5.87634e-08
-1.6326e-07
-5.82312e-08
-1.67173e-07
-5.77018e-08
-1.70105e-07
-5.71979e-08
-1.72172e-07
-5.66979e-08
-1.73487e-07
-5.62249e-08
-1.74155e-07
-5.57561e-08
-1.74275e-07
-5.53148e-08
-1.73939e-07
-5.48768e-08
-1.73235e-07
-5.44664e-08
-1.72248e-07
-5.40549e-08
-1.71059e-07
-1.69745e-07
-5.36707e-08
-6.52239e-08
-9.0962e-08
6.56434e-08
-6.4753e-08
-1.03642e-07
-6.42309e-08
-1.15597e-07
-6.36838e-08
-1.26618e-07
-6.31056e-08
-1.36531e-07
-6.25237e-08
-1.45228e-07
-6.19282e-08
-1.52662e-07
-6.13449e-08
-1.58846e-07
-6.07588e-08
-1.63842e-07
-6.01941e-08
-1.67744e-07
-5.96314e-08
-1.70663e-07
-5.90946e-08
-1.72714e-07
-5.85613e-08
-1.74013e-07
-5.80555e-08
-1.74664e-07
-5.75538e-08
-1.74767e-07
-5.70803e-08
-1.74413e-07
-5.66104e-08
-1.73693e-07
-5.61692e-08
-1.7269e-07
-5.57272e-08
-1.71486e-07
-1.70158e-07
-5.53139e-08
-6.74416e-08
-9.14047e-08
6.78764e-08
-6.69503e-08
-1.04144e-07
-6.64043e-08
-1.16146e-07
-6.58304e-08
-1.27203e-07
-6.52231e-08
-1.3714e-07
-6.46104e-08
-1.4585e-07
-6.39826e-08
-1.53289e-07
-6.33661e-08
-1.59471e-07
-6.27459e-08
-1.6446e-07
-6.21468e-08
-1.6835e-07
-6.15491e-08
-1.71255e-07
-6.09772e-08
-1.73292e-07
-6.04087e-08
-1.74574e-07
-5.98681e-08
-1.75208e-07
-5.93316e-08
-1.75294e-07
-5.88242e-08
-1.74923e-07
-5.83205e-08
-1.74185e-07
-5.78466e-08
-1.73165e-07
-5.73724e-08
-1.71946e-07
-1.70604e-07
-5.69282e-08
-6.96775e-08
-9.18699e-08
7.01362e-08
-6.91602e-08
-1.04671e-07
-6.85858e-08
-1.16724e-07
-6.79813e-08
-1.27818e-07
-6.7342e-08
-1.37781e-07
-6.66956e-08
-1.46506e-07
-6.60332e-08
-1.5395e-07
-6.53812e-08
-1.60131e-07
-6.47247e-08
-1.65113e-07
-6.40887e-08
-1.68993e-07
-6.3454e-08
-1.71885e-07
-6.28448e-08
-1.73906e-07
-6.22392e-08
-1.75172e-07
-6.16616e-08
-1.75789e-07
-6.10885e-08
-1.75857e-07
-6.05448e-08
-1.75468e-07
-6.00055e-08
-1.74712e-07
-5.94967e-08
-1.73675e-07
-5.89886e-08
-1.72439e-07
-1.71081e-07
-5.85114e-08
-7.19157e-08
-9.23563e-08
7.23936e-08
-7.1373e-08
-1.05225e-07
-7.077e-08
-1.17331e-07
-7.01336e-08
-1.28465e-07
-6.94607e-08
-1.38456e-07
-6.87786e-08
-1.47197e-07
-6.80796e-08
-1.54649e-07
-6.73896e-08
-1.60829e-07
-6.66947e-08
-1.65805e-07
-6.60195e-08
-1.69675e-07
-6.53455e-08
-1.72554e-07
-6.46968e-08
-1.74561e-07
-6.40518e-08
-1.7581e-07
-6.34348e-08
-1.7641e-07
-6.28228e-08
-1.7646e-07
-6.22405e-08
-1.76053e-07
-6.16635e-08
-1.75278e-07
-6.11175e-08
-1.74222e-07
-6.05735e-08
-1.72969e-07
-1.71595e-07
-6.00613e-08
-7.41664e-08
-9.28682e-08
7.46704e-08
-7.35947e-08
-1.05808e-07
-7.29602e-08
-1.17971e-07
-7.22894e-08
-1.29147e-07
-7.15804e-08
-1.39168e-07
-7.08602e-08
-1.47927e-07
-7.01222e-08
-1.55387e-07
-6.93916e-08
-1.61568e-07
-6.8656e-08
-1.66538e-07
-6.7939e-08
-1.70399e-07
-6.72234e-08
-1.73266e-07
-6.65323e-08
-1.75258e-07
-6.58457e-08
-1.76491e-07
-6.51866e-08
-1.77073e-07
-6.45335e-08
-1.77105e-07
-6.39101e-08
-1.76679e-07
-6.32932e-08
-1.75885e-07
-6.27076e-08
-1.7481e-07
-6.21258e-08
-1.73538e-07
-1.72146e-07
-6.15763e-08
-7.64177e-08
-9.34028e-08
7.69423e-08
-7.58188e-08
-1.06419e-07
-7.51533e-08
-1.18643e-07
-7.4447e-08
-1.29866e-07
-7.37006e-08
-1.39918e-07
-7.29401e-08
-1.48698e-07
-7.2161e-08
-1.56167e-07
-7.13872e-08
-1.6235e-07
-7.06083e-08
-1.67316e-07
-6.98467e-08
-1.71168e-07
-6.90868e-08
-1.74023e-07
-6.83506e-08
-1.76e-07
-6.76196e-08
-1.77217e-07
-6.69157e-08
-1.77782e-07
-6.6219e-08
-1.77795e-07
-6.55517e-08
-1.77349e-07
-6.48926e-08
-1.76535e-07
-6.42649e-08
-1.75441e-07
-6.36431e-08
-1.74149e-07
-1.72738e-07
-6.30539e-08
-7.86899e-08
-9.39666e-08
7.92437e-08
-7.80579e-08
-1.07064e-07
-7.73566e-08
-1.19352e-07
-7.6611e-08
-1.30624e-07
-7.58238e-08
-1.40711e-07
-7.50198e-08
-1.49512e-07
-7.41964e-08
-1.56993e-07
-7.33766e-08
-1.63179e-07
-7.25514e-08
-1.68142e-07
-7.17422e-08
-1.71985e-07
-7.09352e-08
-1.74828e-07
-7.01509e-08
-1.76791e-07
-6.93728e-08
-1.77992e-07
-6.86212e-08
-1.78539e-07
-6.78782e-08
-1.78532e-07
-6.71644e-08
-1.78067e-07
-6.64605e-08
-1.77232e-07
-6.5788e-08
-1.76117e-07
-6.51236e-08
-1.74804e-07
-1.73373e-07
-6.44923e-08
-8.09675e-08
-9.45581e-08
8.15466e-08
-8.03025e-08
-1.07742e-07
-7.95648e-08
-1.201e-07
-7.87781e-08
-1.31424e-07
-7.7948e-08
-1.41548e-07
-7.70979e-08
-1.50373e-07
-7.62277e-08
-1.57867e-07
-7.53588e-08
-1.64057e-07
-7.44845e-08
-1.69018e-07
-7.36245e-08
-1.72854e-07
-7.27674e-08
-1.75685e-07
-7.1932e-08
-1.77634e-07
-7.11038e-08
-1.78818e-07
-7.03015e-08
-1.79347e-07
-6.95092e-08
-1.79321e-07
-6.87458e-08
-1.78835e-07
-6.79941e-08
-1.77979e-07
-6.7274e-08
-1.76841e-07
-6.65645e-08
-1.75506e-07
-1.74053e-07
-6.58882e-08
-8.32601e-08
-9.51823e-08
8.3872e-08
-8.25581e-08
-1.08459e-07
-8.17804e-08
-1.20889e-07
-8.09497e-08
-1.32268e-07
-8.00738e-08
-1.42432e-07
-7.91748e-08
-1.51283e-07
-7.82548e-08
-1.58792e-07
-7.73336e-08
-1.64988e-07
-7.64071e-08
-1.69947e-07
-7.54932e-08
-1.73777e-07
-7.45828e-08
-1.76597e-07
-7.36929e-08
-1.78532e-07
-7.28115e-08
-1.797e-07
-7.19552e-08
-1.8021e-07
-7.11105e-08
-1.80164e-07
-7.02944e-08
-1.79656e-07
-6.94921e-08
-1.78778e-07
-6.87215e-08
-1.77617e-07
-6.7964e-08
-1.76259e-07
-1.74783e-07
-6.72401e-08
-8.55557e-08
-9.58366e-08
8.61955e-08
-8.4818e-08
-1.09211e-07
-8.40003e-08
-1.2172e-07
-8.31241e-08
-1.33159e-07
-8.22004e-08
-1.43365e-07
-8.12497e-08
-1.52245e-07
-8.0277e-08
-1.59771e-07
-7.93004e-08
-1.65974e-07
-7.83184e-08
-1.70933e-07
-7.73472e-08
-1.74757e-07
-7.63801e-08
-1.77567e-07
-7.54323e-08
-1.79488e-07
-7.44942e-08
-1.80639e-07
-7.35804e-08
-1.81131e-07
-7.268e-08
-1.81064e-07
-7.18079e-08
-1.80534e-07
-7.09518e-08
-1.79632e-07
-7.01274e-08
-1.78448e-07
-6.9319e-08
-1.77064e-07
-1.75563e-07
-6.85446e-08
-8.7875e-08
-9.65283e-08
8.85523e-08
-8.7095e-08
-1.10007e-07
-8.62318e-08
-1.22598e-07
-8.53057e-08
-1.341e-07
-8.433e-08
-1.44352e-07
-8.33239e-08
-1.53264e-07
-8.22948e-08
-1.60808e-07
-8.12592e-08
-1.6702e-07
-8.02181e-08
-1.7198e-07
-7.91859e-08
-1.75799e-07
-7.81583e-08
-1.78599e-07
-7.7149e-08
-1.80507e-07
-7.61504e-08
-1.81641e-07
-7.51757e-08
-1.82113e-07
-7.4216e-08
-1.82025e-07
-7.32844e-08
-1.81473e-07
-7.23711e-08
-1.80546e-07
-7.14897e-08
-1.79336e-07
-7.06271e-08
-1.77926e-07
-1.76398e-07
-6.97989e-08
-9.02031e-08
-9.72562e-08
9.09144e-08
-8.93804e-08
-1.10846e-07
-8.84705e-08
-1.23524e-07
-8.7492e-08
-1.35094e-07
-8.64616e-08
-1.45396e-07
-8.53967e-08
-1.54341e-07
-8.43077e-08
-1.61906e-07
-8.32093e-08
-1.68129e-07
-8.21052e-08
-1.73092e-07
-8.1008e-08
-1.76906e-07
-7.99161e-08
-1.79697e-07
-7.88411e-08
-1.81591e-07
-7.77782e-08
-1.82709e-07
-7.67385e-08
-1.83161e-07
-7.57156e-08
-1.83051e-07
-7.47208e-08
-1.82475e-07
-7.37465e-08
-1.81523e-07
-7.28044e-08
-1.80285e-07
-7.1884e-08
-1.78848e-07
-1.77291e-07
-7.09987e-08
-9.25511e-08
-9.8026e-08
9.33047e-08
-9.1681e-08
-1.11732e-07
-9.072e-08
-1.24503e-07
-8.96855e-08
-1.36144e-07
-8.85963e-08
-1.46499e-07
-8.74689e-08
-1.55481e-07
-8.63158e-08
-1.63069e-07
-8.51505e-08
-1.69305e-07
-8.39791e-08
-1.74271e-07
-8.28127e-08
-1.78082e-07
-8.16521e-08
-1.80864e-07
-8.05073e-08
-1.82745e-07
-7.93759e-08
-1.83846e-07
-7.8267e-08
-1.84279e-07
-7.71769e-08
-1.84146e-07
-7.61148e-08
-1.83545e-07
-7.50754e-08
-1.82566e-07
-7.40688e-08
-1.813e-07
-7.30869e-08
-1.79833e-07
-1.78246e-07
-7.21407e-08
-9.49076e-08
-9.88352e-08
9.56987e-08
-9.39911e-08
-1.12666e-07
-9.29781e-08
-1.25535e-07
-9.18851e-08
-1.37253e-07
-9.07341e-08
-1.47665e-07
-8.95402e-08
-1.56687e-07
-8.83189e-08
-1.64302e-07
-8.70824e-08
-1.70552e-07
-8.58391e-08
-1.75524e-07
-8.4599e-08
-1.79333e-07
-8.3365e-08
-1.82107e-07
-8.21457e-08
-1.83975e-07
-8.09408e-08
-1.85058e-07
-7.97582e-08
-1.8547e-07
-7.85961e-08
-1.85314e-07
-7.74622e-08
-1.84687e-07
-7.63535e-08
-1.8368e-07
-7.52783e-08
-1.82384e-07
-7.42308e-08
-1.80885e-07
-1.79265e-07
-7.322e-08
-9.72955e-08
-9.96921e-08
9.81348e-08
-9.63248e-08
-1.13654e-07
-9.5253e-08
-1.26628e-07
-9.40959e-08
-1.38427e-07
-9.28776e-08
-1.48899e-07
-9.16122e-08
-1.57965e-07
-9.03176e-08
-1.65609e-07
-8.90048e-08
-1.71876e-07
-8.76845e-08
-1.76854e-07
-8.63655e-08
-1.80662e-07
-8.5053e-08
-1.83428e-07
-8.37542e-08
-1.85283e-07
-8.2471e-08
-1.8635e-07
-8.12097e-08
-1.86741e-07
-7.99708e-08
-1.8656e-07
-7.87605e-08
-1.85906e-07
-7.75779e-08
-1.84869e-07
-7.64296e-08
-1.83541e-07
-7.53121e-08
-1.82009e-07
-1.80354e-07
-7.42327e-08
-9.96974e-08
-1.00595e-07
1.00581e-07
-9.86721e-08
-1.14697e-07
-9.75395e-08
-1.27782e-07
-9.63148e-08
-1.39668e-07
-9.50249e-08
-1.50207e-07
-9.36834e-08
-1.5932e-07
-9.23105e-08
-1.66996e-07
-9.09162e-08
-1.73281e-07
-8.95136e-08
-1.78268e-07
-8.81104e-08
-1.82076e-07
-8.67139e-08
-1.84835e-07
-8.53301e-08
-1.86677e-07
-8.3963e-08
-1.87726e-07
-8.26178e-08
-1.88096e-07
-8.12968e-08
-1.8789e-07
-8.00049e-08
-1.87206e-07
-7.87433e-08
-1.86138e-07
-7.75171e-08
-1.84777e-07
-7.63251e-08
-1.83208e-07
-1.81515e-07
-7.51725e-08
-1.02126e-07
-1.01552e-07
1.03064e-07
-1.0104e-07
-1.15801e-07
-9.98406e-08
-1.29004e-07
-9.85432e-08
-1.40982e-07
-9.71766e-08
-1.51591e-07
-9.57537e-08
-1.60756e-07
-9.42968e-08
-1.68466e-07
-9.28155e-08
-1.74774e-07
-9.13249e-08
-1.79771e-07
-8.98317e-08
-1.8358e-07
-8.83454e-08
-1.86332e-07
-8.68709e-08
-1.88162e-07
-8.54143e-08
-1.89193e-07
-8.39794e-08
-1.8954e-07
-8.25708e-08
-1.89307e-07
-8.1192e-08
-1.88594e-07
-7.9846e-08
-1.87493e-07
-7.85369e-08
-1.86095e-07
-7.72651e-08
-1.84488e-07
-1.82755e-07
-7.60347e-08
-1.04567e-07
-1.02561e-07
1.05556e-07
-1.0342e-07
-1.16966e-07
-1.02152e-07
-1.30295e-07
-1.00779e-07
-1.42373e-07
-9.9331e-08
-1.53058e-07
-9.78216e-08
-1.62278e-07
-9.62753e-08
-1.70028e-07
-9.47011e-08
-1.76359e-07
-9.31163e-08
-1.81368e-07
-9.1527e-08
-1.85179e-07
-8.99446e-08
-1.87927e-07
-8.83732e-08
-1.89744e-07
-8.68207e-08
-1.90756e-07
-8.52901e-08
-1.9108e-07
-8.37876e-08
-1.9082e-07
-8.2316e-08
-1.90075e-07
-8.08798e-08
-1.88938e-07
-7.94821e-08
-1.87502e-07
-7.81253e-08
-1.85854e-07
-1.84078e-07
-7.68118e-08
-1.07042e-07
-1.03629e-07
1.08092e-07
-1.05826e-07
-1.182e-07
-1.04482e-07
-1.31662e-07
-1.03026e-07
-1.43846e-07
-1.0149e-07
-1.54613e-07
-9.98879e-08
-1.63893e-07
-9.82455e-08
-1.71685e-07
-9.6572e-08
-1.78043e-07
-9.48863e-08
-1.83067e-07
-9.31943e-08
-1.86882e-07
-9.1509e-08
-1.89624e-07
-8.98341e-08
-1.91429e-07
-8.8179e-08
-1.92423e-07
-8.65462e-08
-1.92722e-07
-8.49434e-08
-1.92433e-07
-8.33726e-08
-1.91654e-07
-8.18401e-08
-1.9048e-07
-8.03479e-08
-1.89003e-07
-7.89001e-08
-1.87312e-07
-1.85488e-07
-7.74982e-08
-1.09539e-07
-1.0476e-07
1.10649e-07
-1.08251e-07
-1.19507e-07
-1.06827e-07
-1.33111e-07
-1.05283e-07
-1.45408e-07
-1.03653e-07
-1.56262e-07
-1.01952e-07
-1.65608e-07
-1.00207e-07
-1.73446e-07
-9.84267e-08
-1.79834e-07
-9.66329e-08
-1.84874e-07
-9.48309e-08
-1.88695e-07
-9.30353e-08
-1.91433e-07
-9.12496e-08
-1.93225e-07
-8.94845e-08
-1.942e-07
-8.77423e-08
-1.94474e-07
-8.6032e-08
-1.94154e-07
-8.43552e-08
-1.9334e-07
-8.27195e-08
-1.92126e-07
-8.11264e-08
-1.90606e-07
-7.95813e-08
-1.88867e-07
-1.86994e-07
-7.8085e-08
-1.12068e-07
-1.05958e-07
1.13246e-07
-1.10701e-07
-1.20891e-07
-1.09191e-07
-1.34646e-07
-1.07552e-07
-1.47065e-07
-1.05821e-07
-1.58013e-07
-1.04013e-07
-1.67429e-07
-1.02158e-07
-1.75318e-07
-1.00264e-07
-1.81739e-07
-9.83542e-08
-1.86798e-07
-9.64344e-08
-1.90625e-07
-9.45205e-08
-1.93359e-07
-9.26161e-08
-1.9514e-07
-9.07333e-08
-1.96095e-07
-8.88739e-08
-1.96343e-07
-8.70485e-08
-1.9599e-07
-8.52583e-08
-1.95139e-07
-8.35121e-08
-1.93883e-07
-8.18112e-08
-1.92316e-07
-8.01621e-08
-1.90526e-07
-1.886e-07
-7.8565e-08
-1.14621e-07
-1.07226e-07
1.15868e-07
-1.13174e-07
-1.22357e-07
-1.11572e-07
-1.36274e-07
-1.09832e-07
-1.48822e-07
-1.07994e-07
-1.59872e-07
-1.06072e-07
-1.69365e-07
-1.04098e-07
-1.77308e-07
-1.02082e-07
-1.83767e-07
-1.00048e-07
-1.88847e-07
-9.80016e-08
-1.92682e-07
-9.59608e-08
-1.95414e-07
-9.3929e-08
-1.97182e-07
-9.19196e-08
-1.98117e-07
-8.99347e-08
-1.98337e-07
-8.79857e-08
-1.97951e-07
-8.6074e-08
-1.97059e-07
-8.42094e-08
-1.95758e-07
-8.23929e-08
-1.94141e-07
-8.06325e-08
-1.92298e-07
-1.90313e-07
-7.89277e-08
-1.17216e-07
-1.08573e-07
1.18542e-07
-1.15678e-07
-1.23913e-07
-1.13976e-07
-1.38002e-07
-1.12127e-07
-1.50689e-07
-1.10173e-07
-1.61847e-07
-1.08128e-07
-1.71423e-07
-1.06027e-07
-1.79426e-07
-1.03879e-07
-1.85925e-07
-1.01711e-07
-1.91029e-07
-9.95293e-08
-1.94874e-07
-9.7352e-08
-1.97604e-07
-9.51837e-08
-1.99361e-07
-9.30385e-08
-2.00274e-07
-9.09189e-08
-2.00466e-07
-8.88374e-08
-2.00044e-07
-8.67954e-08
-1.9911e-07
-8.48039e-08
-1.9776e-07
-8.28638e-08
-1.9609e-07
-8.09841e-08
-1.94188e-07
-1.92141e-07
-7.91642e-08
-1.19843e-07
-1.1e-07
1.21248e-07
-1.1821e-07
-1.25565e-07
-1.16401e-07
-1.39837e-07
-1.14436e-07
-1.52673e-07
-1.12356e-07
-1.63948e-07
-1.1018e-07
-1.73614e-07
-1.07942e-07
-1.81682e-07
-1.05653e-07
-1.88225e-07
-1.03341e-07
-1.93356e-07
-1.01013e-07
-1.97213e-07
-9.86893e-08
-1.99942e-07
-9.63741e-08
-2.01686e-07
-9.4083e-08
-2.02578e-07
-9.18187e-08
-2.02739e-07
-8.95948e-08
-2.02279e-07
-8.7413e-08
-2.013e-07
-8.52852e-08
-1.99899e-07
-8.32127e-08
-1.98171e-07
-8.1205e-08
-1.96207e-07
-1.94093e-07
-7.92618e-08
-1.2251e-07
-1.11517e-07
1.24006e-07
-1.20775e-07
-1.2732e-07
-1.1885e-07
-1.41788e-07
-1.16759e-07
-1.54782e-07
-1.14545e-07
-1.66184e-07
-1.12227e-07
-1.75946e-07
-1.09841e-07
-1.84085e-07
-1.07401e-07
-1.90677e-07
-1.04934e-07
-1.95838e-07
-1.02449e-07
-1.99709e-07
-9.99675e-08
-2.02438e-07
-9.74945e-08
-2.0417e-07
-9.50465e-08
-2.05039e-07
-9.26268e-08
-2.05168e-07
-9.025e-08
-2.04667e-07
-8.79181e-08
-2.0364e-07
-8.56441e-08
-2.02183e-07
-8.34294e-08
-2.00394e-07
-8.12847e-08
-1.98362e-07
-1.96175e-07
-7.92095e-08
-1.25211e-07
-1.13127e-07
1.26799e-07
-1.23367e-07
-1.29183e-07
-1.2132e-07
-1.43861e-07
-1.19095e-07
-1.57027e-07
-1.16736e-07
-1.68564e-07
-1.14266e-07
-1.78431e-07
-1.11722e-07
-1.86647e-07
-1.09119e-07
-1.93293e-07
-1.06485e-07
-1.98487e-07
-1.03832e-07
-2.02373e-07
-1.0118e-07
-2.05103e-07
-9.85376e-08
-2.06823e-07
-9.59206e-08
-2.07669e-07
-9.33338e-08
-2.07764e-07
-9.07923e-08
-2.0722e-07
-8.82992e-08
-2.06141e-07
-8.58679e-08
-2.04625e-07
-8.35006e-08
-2.02769e-07
-8.12087e-08
-2.00664e-07
-1.98399e-07
-7.8992e-08
-1.27961e-07
-1.1484e-07
1.29654e-07
-1.25998e-07
-1.31166e-07
-1.23817e-07
-1.46068e-07
-1.21446e-07
-1.59417e-07
-1.18932e-07
-1.711e-07
-1.16298e-07
-1.81079e-07
-1.13583e-07
-1.8938e-07
-1.10804e-07
-1.96084e-07
-1.07991e-07
-2.01315e-07
-1.05156e-07
-2.05219e-07
-1.02322e-07
-2.07951e-07