/*--------------------------------*- C++ -*----------------------------------*\
  =========                 |
  \\      /  F ield         | OpenFOAM: The Open Source CFD Toolbox
   \\    /   O peration     | Website:  https://openfoam.org
    \\  /    A nd           | Version:  6
     \\/     M anipulation  |
\*---------------------------------------------------------------------------*/
FoamFile
{
    version     2.0;
    format      ascii;
    class       surfaceScalarField;
    location    "7";
    object      phi;
}
// * * * * * * * * * * * * * * * * * * * * * * * * * * * * * * * * * * * * * //

dimensions      [0 3 -1 0 0 0 0];

internalField   nonuniform List<scalar> 
19400
(
-7.53061e-09
-9.47982e-07
-1.32035e-08
-1.18835e-06
-1.492e-08
-1.26989e-06
-1.38945e-08
-1.30141e-06
-1.15585e-08
-1.31137e-06
-9.04879e-09
-1.31262e-06
-6.9093e-09
-1.31079e-06
-5.27872e-09
-1.30832e-06
-3.98432e-09
-1.30621e-06
-2.91832e-09
-1.30483e-06
-1.85609e-09
-1.3043e-06
-6.31384e-10
-1.30449e-06
9.74913e-10
-1.30516e-06
3.20008e-09
-1.30567e-06
6.02881e-09
-1.30487e-06
9.09648e-09
-1.30022e-06
1.11704e-08
-1.28634e-06
1.07212e-08
-1.25182e-06
6.28926e-09
-1.16866e-06
-9.23105e-07
-2.23009e-09
-9.46489e-07
-5.05861e-09
-1.18612e-06
-6.52349e-09
-1.26908e-06
-6.89345e-09
-1.30148e-06
-6.68751e-09
-1.31205e-06
-5.98752e-09
-1.31364e-06
-5.1039e-09
-1.31197e-06
-4.14808e-09
-1.30954e-06
-3.15836e-09
-1.3074e-06
-2.25807e-09
-1.30601e-06
-1.28814e-09
-1.30545e-06
-4.42814e-10
-1.30568e-06
4.95962e-10
-1.30636e-06
1.35168e-09
-1.3069e-06
2.13056e-09
-1.30603e-06
2.80289e-09
-1.30121e-06
3.01554e-09
-1.28705e-06
2.62554e-09
-1.25197e-06
1.24424e-09
-1.1678e-06
-9.21904e-07
-2.86074e-09
-9.43838e-07
-3.47127e-09
-1.18574e-06
-4.05473e-09
-1.26873e-06
-4.30079e-09
-1.3014e-06
-4.34518e-09
-1.31221e-06
-4.13942e-09
-1.31397e-06
-3.80639e-09
-1.31245e-06
-3.29358e-09
-1.31016e-06
-2.68074e-09
-1.30813e-06
-1.98137e-09
-1.30681e-06
-1.28485e-09
-1.30628e-06
-5.6125e-10
-1.30648e-06
3.87472e-11
-1.3071e-06
6.01358e-10
-1.30753e-06
1.04238e-09
-1.30655e-06
1.40538e-09
-1.30164e-06
1.76339e-09
-1.28746e-06
2.12558e-09
-1.25247e-06
2.72933e-09
-1.16856e-06
-9.19175e-07
-2.3908e-09
-9.41445e-07
-2.01557e-09
-1.18614e-06
-1.83781e-09
-1.26891e-06
-1.94199e-09
-1.3013e-06
-2.15187e-09
-1.31201e-06
-2.29801e-09
-1.31382e-06
-2.34306e-09
-1.31243e-06
-2.21851e-09
-1.31029e-06
-1.9691e-09
-1.30842e-06
-1.58177e-09
-1.30721e-06
-1.1549e-09
-1.30676e-06
-6.80577e-10
-1.30697e-06
-2.75398e-10
-1.30756e-06
1.3556e-10
-1.30793e-06
4.08618e-10
-1.30688e-06
6.95088e-10
-1.30193e-06
1.06963e-09
-1.28781e-06
1.49793e-09
-1.25286e-06
1.69338e-09
-1.16877e-06
-9.17496e-07
-3.05319e-09
-9.38398e-07
-2.31246e-09
-1.18695e-06
-1.6242e-09
-1.26959e-06
-1.5438e-09
-1.30142e-06
-1.63659e-09
-1.31191e-06
-1.78073e-09
-1.31371e-06
-1.82407e-09
-1.3124e-06
-1.76649e-09
-1.31039e-06
-1.58949e-09
-1.30865e-06
-1.3042e-09
-1.30754e-06
-9.95502e-10
-1.30715e-06
-5.89501e-10
-1.3074e-06
-2.48774e-10
-1.308e-06
1.51058e-10
-1.30836e-06
5.00719e-10
-1.30729e-06
8.51288e-10
-1.30234e-06
1.17661e-09
-1.28819e-06
1.43761e-09
-1.25319e-06
1.34664e-09
-1.16878e-06
-9.16201e-07
-2.46602e-09
-9.36129e-07
-2.77796e-09
-1.1869e-06
-2.47125e-09
-1.27005e-06
-2.36949e-09
-1.30172e-06
-2.25038e-09
-1.31216e-06
-2.13615e-09
-1.31397e-06
-1.96223e-09
-1.31268e-06
-1.74799e-09
-1.31071e-06
-1.49538e-09
-1.309e-06
-1.18765e-09
-1.30792e-06
-8.63356e-10
-1.30757e-06
-5.056e-10
-1.30785e-06
-1.31889e-10
-1.30847e-06
2.63646e-10
-1.30885e-06
6.22984e-10
-1.30779e-06
9.19879e-10
-1.30276e-06
1.0208e-09
-1.28846e-06
8.97087e-10
-1.2533e-06
4.93204e-10
-1.16865e-06
-9.15782e-07
-1.26367e-09
-9.35242e-07
-2.42582e-09
-1.18612e-06
-2.69131e-09
-1.2701e-06
-2.74703e-09
-1.30197e-06
-2.59907e-09
-1.31257e-06
-2.34819e-09
-1.31445e-06
-2.05617e-09
-1.31318e-06
-1.74027e-09
-1.31119e-06
-1.43831e-09
-1.30946e-06
-1.13371e-09
-1.30837e-06
-8.50263e-10
-1.308e-06
-5.46704e-10
-1.30827e-06
-2.59442e-10
-1.3089e-06
1.51376e-11
-1.30927e-06
2.51774e-10
-1.30817e-06
4.14476e-10
-1.30308e-06
3.86582e-10
-1.28867e-06
8.92578e-11
-1.25332e-06
-4.97068e-10
-1.16843e-06
-9.16349e-07
-4.61788e-10
-9.35011e-07
-1.47356e-09
-1.18534e-06
-2.00775e-09
-1.26977e-06
-2.16498e-09
-1.302e-06
-2.13063e-09
-1.31278e-06
-1.97487e-09
-1.31475e-06
-1.77084e-09
-1.31353e-06
-1.51707e-09
-1.31155e-06
-1.28976e-09
-1.30981e-06
-1.05708e-09
-1.30869e-06
-8.6492e-10
-1.30829e-06
-7.01673e-10
-1.30854e-06
-5.65706e-10
-1.30914e-06
-4.58807e-10
-1.30949e-06
-4.08246e-10
-1.30836e-06
-3.87932e-10
-1.30324e-06
-4.66917e-10
-1.28878e-06
-6.226e-10
-1.25346e-06
-7.55646e-10
-1.16861e-06
-9.17148e-07
-3.15146e-10
-9.34727e-07
-8.40449e-10
-1.18486e-06
-1.10877e-09
-1.26953e-06
-1.14567e-09
-1.30202e-06
-1.16486e-09
-1.31279e-06
-1.21444e-09
-1.31475e-06
-1.21366e-09
-1.31357e-06
-1.16865e-09
-1.31165e-06
-1.08999e-09
-1.30994e-06
-1.0028e-09
-1.30884e-06
-9.46991e-10
-1.30843e-06
-9.17145e-10
-1.30863e-06
-9.62443e-10
-1.30919e-06
-1.03848e-09
-1.30951e-06
-1.15114e-09
-1.30836e-06
-1.26463e-09
-1.30324e-06
-1.33753e-09
-1.28886e-06
-1.26342e-09
-1.25372e-06
-9.86722e-10
-1.16907e-06
-9.18145e-07
-4.62646e-10
-9.34295e-07
-4.85983e-10
-1.18489e-06
-5.88994e-10
-1.26944e-06
-5.95283e-10
-1.30205e-06
-6.52806e-10
-1.31274e-06
-8.07793e-10
-1.31463e-06
-9.31639e-10
-1.31346e-06
-1.02112e-09
-1.31159e-06
-1.05808e-09
-1.30993e-06
-1.08412e-09
-1.30885e-06
-1.12095e-09
-1.30842e-06
-1.20453e-09
-1.3086e-06
-1.36241e-09
-1.30911e-06
-1.54066e-09
-1.30938e-06
-1.78177e-09
-1.30821e-06
-1.92591e-09
-1.30314e-06
-1.94293e-09
-1.2889e-06
-1.73393e-09
-1.25395e-06
-1.22193e-09
-1.16961e-06
-9.19364e-07
-6.14766e-10
-9.33847e-07
-3.51137e-10
-1.18528e-06
-3.34196e-10
-1.26957e-06
-4.3872e-10
-1.30204e-06
-6.51112e-10
-1.31261e-06
-8.68254e-10
-1.31447e-06
-1.06162e-09
-1.31333e-06
-1.18306e-09
-1.3115e-06
-1.28771e-09
-1.30988e-06
-1.33273e-09
-1.30882e-06
-1.42361e-09
-1.3084e-06
-1.45161e-09
-1.30857e-06
-1.57819e-09
-1.30905e-06
-1.64843e-09
-1.30929e-06
-1.74981e-09
-1.30814e-06
-1.74834e-09
-1.30315e-06
-1.62614e-09
-1.28901e-06
-1.59656e-09
-1.25396e-06
-1.29495e-09
-1.16992e-06
-9.20675e-07
-1.04048e-09
-9.3301e-07
-3.88613e-10
-1.18607e-06
-2.35477e-10
-1.26988e-06
-3.72594e-10
-1.30199e-06
-6.48472e-10
-1.31245e-06
-9.0512e-10
-1.31428e-06
-1.15631e-09
-1.31316e-06
-1.32805e-09
-1.31136e-06
-1.48532e-09
-1.30979e-06
-1.55747e-09
-1.30876e-06
-1.61587e-09
-1.30839e-06
-1.60494e-09
-1.3086e-06
-1.57933e-09
-1.30913e-06
-1.47584e-09
-1.30942e-06
-1.35111e-09
-1.30833e-06
-1.12347e-09
-1.30342e-06
-8.87458e-10
-1.2893e-06
-9.57819e-10
-1.25397e-06
-1.31509e-09
-1.16965e-06
-9.22018e-07
-6.59865e-10
-9.32536e-07
-2.57733e-10
-1.18662e-06
-9.4282e-11
-1.27019e-06
-1.02763e-10
-1.30208e-06
-3.07915e-10
-1.31235e-06
-5.80837e-10
-1.31408e-06
-8.82404e-10
-1.31293e-06
-1.14325e-09
-1.31116e-06
-1.35829e-09
-1.30964e-06
-1.49588e-09
-1.30868e-06
-1.57291e-09
-1.30837e-06
-1.55796e-09
-1.30865e-06
-1.47786e-09
-1.30926e-06
-1.32102e-09
-1.30962e-06
-1.11459e-09
-1.30859e-06
-9.04893e-10
-1.30369e-06
-7.7521e-10
-1.28954e-06
-7.97356e-10
-1.25408e-06
-1.30143e-09
-1.16928e-06
-9.23338e-07
-9.28711e-10
-9.31739e-07
-5.57042e-10
-1.18707e-06
1.66112e-11
-1.27087e-06
2.40169e-10
-1.30236e-06
1.1369e-10
-1.3123e-06
-1.28618e-10
-1.31387e-06
-4.36134e-10
-1.31268e-06
-7.12356e-10
-1.31091e-06
-9.58044e-10
-1.30943e-06
-1.12436e-09
-1.30853e-06
-1.22427e-09
-1.3083e-06
-1.2508e-09
-1.30866e-06
-1.20316e-09
-1.30933e-06
-1.10382e-09
-1.30975e-06
-1.00906e-09
-1.30872e-06
-9.63197e-10
-1.30377e-06
-9.87871e-10
-1.28957e-06
-9.14453e-10
-1.25422e-06
-8.77669e-10
-1.16939e-06
-9.2422e-07
-1.2589e-09
-9.3052e-07
-6.0498e-10
-1.18779e-06
1.92295e-11
-1.27154e-06
2.04786e-10
-1.30259e-06
1.88635e-10
-1.31232e-06
7.19593e-11
-1.31378e-06
-1.10761e-10
-1.31253e-06
-3.02789e-10
-1.31075e-06
-4.93614e-10
-1.30927e-06
-6.4122e-10
-1.30841e-06
-7.58829e-10
-1.30822e-06
-8.08512e-10
-1.30861e-06
-8.44592e-10
-1.30932e-06
-8.50926e-10
-1.30976e-06
-8.69046e-10
-1.30871e-06
-9.43673e-10
-1.30371e-06
-1.02517e-09
-1.28949e-06
-8.98693e-10
-1.25436e-06
-6.47901e-10
-1.16965e-06
-9.24866e-07
-3.96224e-10
-9.3012e-07
2.61822e-11
-1.18821e-06
2.85795e-10
-1.27181e-06
3.53335e-10
-1.30265e-06
3.45079e-10
-1.31233e-06
3.24336e-10
-1.31376e-06
2.43455e-10
-1.31246e-06
1.50092e-10
-1.31065e-06
2.94063e-11
-1.30916e-06
-7.43872e-11
-1.3083e-06
-1.78796e-10
-1.30812e-06
-2.78361e-10
-1.30853e-06
-3.78509e-10
-1.30924e-06
-4.72809e-10
-1.30967e-06
-6.03527e-10
-1.30861e-06
-7.43875e-10
-1.30358e-06
-9.28419e-10
-1.28931e-06
-1.05725e-09
-1.25423e-06
-8.69371e-10
-1.16984e-06
-9.25736e-07
9.76933e-11
-9.30081e-07
2.24283e-10
-1.18827e-06
7.41808e-11
-1.27157e-06
6.56188e-12
-1.30255e-06
1.3194e-10
-1.31241e-06
2.88952e-10
-1.3139e-06
4.02487e-10
-1.31256e-06
4.54362e-10
-1.31069e-06
4.40546e-10
-1.30915e-06
4.0951e-10
-1.30826e-06
3.18614e-10
-1.30806e-06
2.60309e-10
-1.30845e-06
1.4353e-10
-1.30915e-06
5.11281e-11
-1.30958e-06
-6.69649e-11
-1.30851e-06
-2.31104e-10
-1.30345e-06
-5.15445e-10
-1.28905e-06
-8.80472e-10
-1.25388e-06
-6.29474e-10
-1.17008e-06
-9.26351e-07
4.54464e-10
-9.30415e-07
-1.80748e-10
-1.18757e-06
-4.70985e-10
-1.27119e-06
-4.73409e-10
-1.30252e-06
-2.40636e-10
-1.31259e-06
2.51218e-11
-1.31414e-06
2.69345e-10
-1.31278e-06
4.3454e-10
-1.31084e-06
5.27798e-10
-1.30923e-06
5.54459e-10
-1.30828e-06
5.41026e-10
-1.30803e-06
4.89004e-10
-1.3084e-06
4.29141e-10
-1.30909e-06
3.61473e-10
-1.3095e-06
2.57972e-10
-1.30843e-06
1.48318e-10
-1.30333e-06
-1.06392e-10
-1.28881e-06
-4.58426e-10
-1.25347e-06
-4.72907e-10
-1.16997e-06
-9.26791e-07
6.31039e-10
-9.30987e-07
-3.28141e-10
-1.18659e-06
-7.0267e-10
-1.27079e-06
-6.79134e-10
-1.30253e-06
-4.71697e-10
-1.31279e-06
-1.94475e-10
-1.31441e-06
6.13343e-11
-1.31303e-06
2.73494e-10
-1.31103e-06
3.93287e-10
-1.30935e-06
4.66451e-10
-1.30833e-06
4.70467e-10
-1.30803e-06
4.95689e-10
-1.30837e-06
5.02856e-10
-1.30906e-06
5.36037e-10
-1.30947e-06
5.64246e-10
-1.30838e-06
5.07474e-10
-1.30321e-06
3.15633e-10
-1.28851e-06
-6.62464e-11
-1.25292e-06
-3.00299e-11
-1.16986e-06
-9.26809e-07
1.30581e-10
-9.31125e-07
-2.16112e-10
-1.18626e-06
-5.6475e-10
-1.27046e-06
-6.73655e-10
-1.30243e-06
-5.99085e-10
-1.31289e-06
-3.77743e-10
-1.31462e-06
-1.65203e-10
-1.31327e-06
5.9395e-11
-1.31123e-06
1.83616e-10
-1.30949e-06
3.11393e-10
-1.30842e-06
3.83455e-10
-1.30811e-06
4.8612e-10
-1.30846e-06
6.19324e-10
-1.30918e-06
7.8534e-10
-1.30963e-06
9.581e-10
-1.30854e-06
1.0319e-09
-1.30329e-06
1.03367e-09
-1.28845e-06
8.44207e-10
-1.25269e-06
5.90076e-10
-1.16959e-06
-9.2625e-07
3.18974e-10
-9.31547e-07
7.89327e-11
-1.18611e-06
-3.55163e-10
-1.2701e-06
-6.05536e-10
-1.30227e-06
-6.3172e-10
-1.31294e-06
-5.0167e-10
-1.31482e-06
-3.21833e-10
-1.31352e-06
-1.39521e-10
-1.31147e-06
6.09695e-13
-1.3097e-06
1.34316e-10
-1.3086e-06
2.4486e-10
-1.30829e-06
4.12871e-10
-1.30867e-06
6.17175e-10
-1.30944e-06
8.77868e-10
-1.30996e-06
1.19297e-09
-1.30892e-06
1.48755e-09
-1.30369e-06
1.71251e-09
-1.28879e-06
1.623e-09
-1.25276e-06
7.68419e-10
-1.1689e-06
-9.25521e-07
1.06773e-09
-9.32776e-07
3.30267e-10
-1.18549e-06
-2.44254e-10
-1.26964e-06
-4.38261e-10
-1.30215e-06
-4.39565e-10
-1.31302e-06
-3.592e-10
-1.31497e-06
-2.56691e-10
-1.31368e-06
-1.62738e-10
-1.31162e-06
-7.31224e-11
-1.30983e-06
7.39395e-12
-1.30873e-06
1.21021e-10
-1.30844e-06
2.46325e-10
-1.30886e-06
4.54425e-10
-1.30968e-06
6.94603e-10
-1.31027e-06
9.89635e-10
-1.3093e-06
1.32138e-09
-1.3041e-06
1.55341e-09
-1.28916e-06
1.56561e-09
-1.25293e-06
1.02342e-09
-1.16853e-06
-9.24515e-07
1.07987e-09
-9.34016e-07
8.44148e-10
-1.18534e-06
4.8906e-10
-1.2694e-06
3.74258e-10
-1.30209e-06
2.83411e-10
-1.31299e-06
1.96079e-10
-1.31492e-06
1.07206e-10
-1.31363e-06
5.84605e-11
-1.3116e-06
4.4286e-11
-1.30985e-06
6.4941e-11
-1.30878e-06
1.18511e-10
-1.30851e-06
2.05768e-10
-1.30896e-06
3.24048e-10
-1.3098e-06
4.43645e-10
-1.31041e-06
6.07186e-10
-1.30944e-06
7.62829e-10
-1.30427e-06
1.00185e-09
-1.28943e-06
1.36347e-09
-1.25335e-06
1.61131e-09
-1.16885e-06
-9.22906e-07
5.1689e-10
-9.34644e-07
1.12257e-09
-1.18599e-06
1.12061e-09
-1.26946e-06
9.91136e-10
-1.30196e-06
7.75523e-10
-1.3128e-06
5.77295e-10
-1.31471e-06
4.08257e-10
-1.31347e-06
3.24034e-10
-1.3115e-06
2.96266e-10
-1.30982e-06
3.3323e-10
-1.3088e-06
3.92082e-10
-1.30857e-06
4.5416e-10
-1.30902e-06
5.04123e-10
-1.30986e-06
5.35478e-10
-1.31044e-06
5.38966e-10
-1.30946e-06
5.76529e-10
-1.30432e-06
7.89175e-10
-1.28963e-06
1.16784e-09
-1.25374e-06
1.47039e-09
-1.16916e-06
-9.21437e-07
6.52483e-11
-9.3478e-07
6.38064e-10
-1.18659e-06
7.79897e-10
-1.26964e-06
7.8248e-10
-1.30195e-06
6.99525e-10
-1.31273e-06
6.23311e-10
-1.31462e-06
5.68107e-10
-1.3134e-06
5.63257e-10
-1.31149e-06
6.25843e-10
-1.30987e-06
7.12033e-10
-1.3089e-06
8.18528e-10
-1.30868e-06
9.11061e-10
-1.30913e-06
9.3959e-10
-1.30993e-06
9.27116e-10
-1.31045e-06
8.59448e-10
-1.30942e-06
8.33017e-10
-1.30431e-06
9.65956e-10
-1.28978e-06
1.16103e-09
-1.25395e-06
1.03037e-09
-1.16904e-06
-9.20412e-07
-1.70585e-10
-9.34661e-07
-4.99546e-11
-1.18673e-06
1.12883e-10
-1.26984e-06
2.96566e-10
-1.30213e-06
4.38883e-10
-1.31288e-06
5.78276e-10
-1.31475e-06
6.95413e-10
-1.31352e-06
8.11213e-10
-1.31161e-06
9.53725e-10
-1.31e-06
1.08958e-09
-1.30905e-06
1.2377e-09
-1.30883e-06
1.33035e-09
-1.30926e-06
1.37374e-09
-1.31002e-06
1.38658e-09
-1.31049e-06
1.33462e-09
-1.30944e-06
1.337e-09
-1.30433e-06
1.40384e-09
-1.28988e-06
1.4498e-09
-1.25402e-06
1.20207e-09
-1.16882e-06
-9.19224e-07
-3.5175e-11
-9.34688e-07
-2.94246e-10
-1.18653e-06
-1.44445e-10
-1.27004e-06
2.97624e-11
-1.30236e-06
2.28505e-10
-1.31312e-06
4.68018e-10
-1.31503e-06
7.06823e-10
-1.31379e-06
9.29527e-10
-1.31187e-06
1.1349e-09
-1.31024e-06
1.31701e-09
-1.30927e-06
1.46051e-09
-1.30903e-06
1.58568e-09
-1.30941e-06
1.62477e-09
-1.31014e-06
1.67292e-09
-1.31057e-06
1.67491e-09
-1.3095e-06
1.71494e-09
-1.3044e-06
1.7563e-09
-1.28997e-06
1.79229e-09
-1.25412e-06
1.33592e-09
-1.16845e-06
-9.17922e-07
1.75882e-10
-9.34929e-07
-2.42433e-10
-1.18622e-06
-4.62625e-10
-1.26989e-06
-4.53513e-10
-1.30246e-06
-2.0164e-10
-1.31344e-06
1.44861e-10
-1.31544e-06
5.03162e-10
-1.31421e-06
8.37477e-10
-1.31225e-06
1.11718e-09
-1.31058e-06
1.35651e-09
-1.30956e-06
1.5508e-09
-1.30927e-06
1.70171e-09
-1.30963e-06
1.8139e-09
-1.31032e-06
1.90883e-09
-1.31073e-06
1.9707e-09
-1.30965e-06
2.03477e-09
-1.30453e-06
2.03123e-09
-1.29005e-06
1.99502e-09
-1.25422e-06
1.29049e-09
-1.16793e-06
-9.16687e-07
8.25766e-10
-9.35878e-07
-1.72438e-10
-1.18536e-06
-6.54297e-10
-1.26953e-06
-6.36638e-10
-1.30261e-06
-3.49112e-10
-1.31384e-06
1.06786e-11
-1.31591e-06
3.86062e-10
-1.31469e-06
7.41038e-10
-1.3127e-06
1.0423e-09
-1.31097e-06
1.30633e-09
-1.3099e-06
1.50932e-09
-1.30957e-06
1.70834e-09
-1.30989e-06
1.86459e-09
-1.31057e-06
2.0184e-09
-1.31097e-06
2.12785e-09
-1.30985e-06
2.1659e-09
-1.30466e-06
2.00237e-09
-1.29003e-06
1.5677e-09
-1.25402e-06
8.97235e-10
-1.16753e-06
-9.15847e-07
8.61348e-10
-9.36822e-07
-3.51718e-11
-1.18457e-06
-4.88666e-10
-1.26915e-06
-4.76408e-10
-1.30272e-06
-2.69816e-10
-1.31412e-06
1.12225e-11
-1.31628e-06
3.43959e-10
-1.31509e-06
6.59357e-10
-1.31308e-06
9.35243e-10
-1.31131e-06
1.163e-09
-1.31019e-06
1.34746e-09
-1.30981e-06
1.48935e-09
-1.3101e-06
1.61571e-09
-1.31075e-06
1.70977e-09
-1.31113e-06
1.74468e-09
-1.30997e-06
1.72187e-09
-1.30471e-06
1.50907e-09
-1.28998e-06
1.06511e-09
-1.25381e-06
5.48717e-10
-1.16728e-06
-9.15331e-07
7.20098e-10
-9.37614e-07
2.43649e-10
-1.18417e-06
-9.20602e-11
-1.26888e-06
-1.87332e-10
-1.3027e-06
-1.62774e-10
-1.3142e-06
-1.69113e-11
-1.31648e-06
2.05844e-10
-1.31536e-06
4.52894e-10
-1.31337e-06
6.7109e-10
-1.31158e-06
8.51331e-10
-1.31041e-06
9.70766e-10
-1.30998e-06
1.05408e-09
-1.31023e-06
1.09844e-09
-1.31084e-06
1.10616e-09
-1.31119e-06
1.1025e-09
-1.31e-06
1.02822e-09
-1.30469e-06
8.48285e-10
-1.28988e-06
6.21244e-10
-1.25372e-06
4.43866e-10
-1.16723e-06
-9.14885e-07
3.10146e-10
-9.38024e-07
3.32435e-10
-1.18426e-06
1.8947e-10
-1.26881e-06
1.22922e-11
-1.30257e-06
-1.4603e-10
-1.3141e-06
-1.80631e-10
-1.31648e-06
-1.14919e-10
-1.31546e-06
2.82316e-11
-1.31354e-06
1.75482e-10
-1.31176e-06
3.13308e-10
-1.31056e-06
3.86457e-10
-1.31009e-06
4.10844e-10
-1.31027e-06
3.52937e-10
-1.31082e-06
2.80359e-10
-1.31113e-06
1.49798e-10
-1.3099e-06
1.87101e-11
-1.30456e-06
-1.89979e-10
-1.28967e-06
-4.47891e-10
-1.25344e-06
-5.03378e-10
-1.16714e-06
-9.15362e-07
-6.38251e-10
-9.37529e-07
-1.04551e-10
-1.18492e-06
-4.33634e-11
-1.26898e-06
-2.67231e-10
-1.30242e-06
-5.22668e-10
-1.31391e-06
-6.45416e-10
-1.31639e-06
-6.74382e-10
-1.31548e-06
-5.95514e-10
-1.31363e-06
-5.02668e-10
-1.31188e-06
-3.78801e-10
-1.31068e-06
-3.20905e-10
-1.31017e-06
-2.82321e-10
-1.31029e-06
-3.72535e-10
-1.31077e-06
-4.66908e-10
-1.31099e-06
-6.26226e-10
-1.30973e-06
-7.16884e-10
-1.30441e-06
-7.16944e-10
-1.2896e-06
-6.51186e-10
-1.25339e-06
-4.79079e-10
-1.16719e-06
-9.15829e-07
-1.80889e-10
-9.37466e-07
5.77239e-11
-1.1852e-06
5.60186e-11
-1.26907e-06
-1.62614e-10
-1.30221e-06
-5.29103e-10
-1.31361e-06
-7.67954e-10
-1.31614e-06
-9.62867e-10
-1.31533e-06
-9.99702e-10
-1.31356e-06
-1.00465e-09
-1.3119e-06
-9.05323e-10
-1.31075e-06
-8.25057e-10
-1.31027e-06
-7.19129e-10
-1.31038e-06
-6.91028e-10
-1.31083e-06
-6.51998e-10
-1.31103e-06
-6.49071e-10
-1.30976e-06
-5.83808e-10
-1.30447e-06
-4.16234e-10
-1.28972e-06
-2.15798e-10
-1.25355e-06
4.15822e-11
-1.16742e-06
-9.15812e-07
-2.47316e-10
-9.3715e-07
3.18003e-10
-1.18569e-06
3.54471e-10
-1.26905e-06
6.05659e-11
-1.30186e-06
-3.24304e-10
-1.31319e-06
-6.87061e-10
-1.31575e-06
-9.77129e-10
-1.31502e-06
-1.15674e-09
-1.31338e-06
-1.2327e-09
-1.31183e-06
-1.19918e-09
-1.31079e-06
-1.10962e-09
-1.3104e-06
-9.28514e-10
-1.31057e-06
-7.56308e-10
-1.31106e-06
-5.33047e-10
-1.31127e-06
-3.48684e-10
-1.31002e-06
-1.59203e-10
-1.30473e-06
-9.7827e-11
-1.28989e-06
-3.23439e-10
-1.25345e-06
-6.90942e-10
-1.16719e-06
-9.16537e-07
-5.5806e-10
-9.36546e-07
2.78651e-10
-1.18654e-06
2.87221e-10
-1.26901e-06
-1.25285e-10
-1.30146e-06
-4.77447e-10
-1.3128e-06
-8.36109e-10
-1.31541e-06
-1.07953e-09
-1.31475e-06
-1.26567e-09
-1.31322e-06
-1.32704e-09
-1.31177e-06
-1.31855e-09
-1.31083e-06
-1.20509e-09
-1.31052e-06
-1.03069e-09
-1.31077e-06
-7.7929e-10
-1.31132e-06
-5.00076e-10
-1.31158e-06
-2.3785e-10
-1.31034e-06
-1.48751e-11
-1.305e-06
2.54218e-11
-1.29005e-06
-9.65487e-11
-1.25347e-06
-3.84794e-10
-1.16705e-06
-9.16938e-07
-3.16184e-10
-9.36392e-07
-7.90406e-12
-1.18703e-06
-2.00853e-10
-1.26895e-06
-5.354e-10
-1.30125e-06
-7.7031e-10
-1.31265e-06
-9.62023e-10
-1.3153e-06
-1.09561e-09
-1.31468e-06
-1.17327e-09
-1.31319e-06
-1.20158e-09
-1.31179e-06
-1.16784e-09
-1.3109e-06
-1.09242e-09
-1.31063e-06
-9.4616e-10
-1.31093e-06
-7.49325e-10
-1.31152e-06
-5.3725e-10
-1.3118e-06
-3.24527e-10
-1.31053e-06
-2.17419e-10
-1.30512e-06
-1.58768e-10
-1.29013e-06
5.92573e-11
-1.25374e-06
5.04912e-10
-1.16755e-06
-9.16431e-07
6.59695e-10
-9.37211e-07
4.96285e-10
-1.18701e-06
-6.71505e-11
-1.26852e-06
-4.30728e-10
-1.30099e-06
-6.43915e-10
-1.31255e-06
-7.52697e-10
-1.31525e-06
-8.44469e-10
-1.31467e-06
-8.73104e-10
-1.31319e-06
-9.03923e-10
-1.31181e-06
-8.74575e-10
-1.31094e-06
-8.39992e-10
-1.31069e-06
-7.53788e-10
-1.31102e-06
-6.41553e-10
-1.31163e-06
-5.12172e-10
-1.31193e-06
-4.06664e-10
-1.31063e-06
-3.69363e-10
-1.30515e-06
-3.00284e-10
-1.29018e-06
-2.7971e-11
-1.254e-06
4.09284e-10
-1.16797e-06
-9.16009e-07
1.07503e-09
-9.38268e-07
1.01776e-09
-1.18698e-06
4.38664e-10
-1.26794e-06
-1.88755e-11
-1.30055e-06
-2.58245e-10
-1.31232e-06
-3.78601e-10
-1.31515e-06
-4.53922e-10
-1.31462e-06
-4.96966e-10
-1.31315e-06
-5.45765e-10
-1.31178e-06
-5.49789e-10
-1.31093e-06
-5.49528e-10
-1.31071e-06
-4.92057e-10
-1.31106e-06
-4.37944e-10
-1.3117e-06
-3.58556e-10
-1.31199e-06
-2.83648e-10
-1.31069e-06
-2.3908e-10
-1.30519e-06
-2.41593e-10
-1.29015e-06
-3.79825e-10
-1.25381e-06
-3.77995e-10
-1.1679e-06
-9.1636e-07
1.13626e-09
-9.39242e-07
1.01587e-09
-1.18676e-06
6.31593e-10
-1.26742e-06
2.81469e-10
-1.30013e-06
1.22445e-10
-1.31207e-06
3.87309e-11
-1.31501e-06
-4.56214e-12
-1.31452e-06
-4.94084e-11
-1.31307e-06
-9.24949e-11
-1.31171e-06
-1.18861e-10
-1.31087e-06
-1.31799e-10
-1.31067e-06
-1.27581e-10
-1.31104e-06
-1.27737e-10
-1.31169e-06
-1.16679e-10
-1.31198e-06
-1.53195e-10
-1.31064e-06
-2.02736e-10
-1.3051e-06
-3.60889e-10
-1.28994e-06
-6.83748e-10
-1.25337e-06
-9.47431e-10
-1.16749e-06
-9.17276e-07
1.20326e-09
-9.40147e-07
7.25603e-10
-1.18609e-06
4.14337e-10
-1.26687e-06
2.21443e-10
-1.29981e-06
2.04905e-10
-1.31189e-06
1.94216e-10
-1.31491e-06
2.40973e-10
-1.31445e-06
2.53243e-10
-1.31302e-06
2.86181e-10
-1.31167e-06
2.93103e-10
-1.31083e-06
2.96019e-10
-1.31063e-06
2.83298e-10
-1.31098e-06
2.33018e-10
-1.3116e-06
1.62717e-10
-1.31185e-06
2.97385e-11
-1.31045e-06
-1.67863e-10
-1.30482e-06
-3.89589e-10
-1.28961e-06
-5.49312e-10
-1.25306e-06
-7.7471e-10
-1.16714e-06
-9.18049e-07
6.17279e-10
-9.4052e-07
-1.65921e-10
-1.18521e-06
-4.36925e-10
-1.26641e-06
-5.34714e-10
-1.29965e-06
-3.96209e-10
-1.3119e-06
-2.4167e-10
-1.31502e-06
-1.74397e-11
-1.3146e-06
1.60442e-10
-1.31316e-06
3.34456e-10
-1.31179e-06
4.62575e-10
-1.31092e-06
5.63591e-10
-1.31068e-06
6.06215e-10
-1.311e-06
6.11634e-10
-1.31158e-06
5.62006e-10
-1.31179e-06
4.57861e-10
-1.31033e-06
2.48132e-10
-1.30461e-06
-5.64315e-11
-1.28927e-06
-4.33783e-10
-1.2527e-06
-7.85812e-10
-1.16682e-06
-9.18858e-07
6.15876e-10
-9.41071e-07
-5.9007e-10
-1.18402e-06
-1.05742e-09
-1.26591e-06
-1.19682e-09
-1.29955e-06
-1.05803e-09
-1.31203e-06
-8.38902e-10
-1.31528e-06
-5.26413e-10
-1.3149e-06
-2.57759e-10
-1.31347e-06
2.38564e-11
-1.31206e-06
2.1614e-10
-1.31115e-06
3.94209e-10
-1.31087e-06
4.9099e-10
-1.31113e-06
5.57484e-10
-1.31167e-06
5.49655e-10
-1.31183e-06
5.03674e-10
-1.31033e-06
3.71679e-10
-1.30454e-06
5.21558e-11
-1.28907e-06
-3.93094e-10
-1.25239e-06
-1.15581e-09
-1.16615e-06
-9.20007e-07
2.51569e-10
-9.41265e-07
-8.41313e-10
-1.18292e-06
-1.46588e-09
-1.26525e-06
-1.71467e-09
-1.29932e-06
-1.63565e-09
-1.31209e-06
-1.43344e-09
-1.3155e-06
-1.12986e-09
-1.31519e-06
-8.64503e-10
-1.31375e-06
-5.91287e-10
-1.31232e-06
-4.06834e-10
-1.31136e-06
-2.29428e-10
-1.31102e-06
-1.55144e-10
-1.31124e-06
-9.81353e-11
-1.31171e-06
-1.09073e-10
-1.31182e-06
-1.61255e-10
-1.31029e-06
-1.94495e-10
-1.30449e-06
-2.58158e-10
-1.28903e-06
-2.71119e-10
-1.25233e-06
-3.94175e-10
-1.16594e-06
-9.20346e-07
-1.11592e-10
-9.41055e-07
-1.13825e-09
-1.18182e-06
-1.6845e-09
-1.26464e-06
-1.92094e-09
-1.29903e-06
-1.93491e-09
-1.31203e-06
-1.82161e-09
-1.31558e-06
-1.63833e-09
-1.31534e-06
-1.4292e-09
-1.31392e-06
-1.23062e-09
-1.31247e-06
-1.05116e-09
-1.31149e-06
-9.20735e-10
-1.3111e-06
-8.15909e-10
-1.31126e-06
-7.73912e-10
-1.31167e-06
-7.73124e-10
-1.31172e-06
-7.76661e-10
-1.31016e-06
-7.54642e-10
-1.30439e-06
-4.91442e-10
-1.2891e-06
9.68091e-11
-1.25266e-06
9.4821e-10
-1.16652e-06
-9.19345e-07
-9.41099e-10
-9.39981e-07
-1.56181e-09
-1.18103e-06
-1.77432e-09
-1.26431e-06
-1.83638e-09
-1.29884e-06
-1.87255e-09
-1.3119e-06
-1.85024e-09
-1.31549e-06
-1.80496e-09
-1.31531e-06
-1.69274e-09
-1.31394e-06
-1.57358e-09
-1.31253e-06
-1.41279e-09
-1.31155e-06
-1.26213e-09
-1.31117e-06
-1.10364e-09
-1.31133e-06
-9.47686e-10
-1.31173e-06
-8.03998e-10
-1.31177e-06
-6.55592e-10
-1.3102e-06
-4.73124e-10
-1.30448e-06
-8.17759e-11
-1.28931e-06
6.35965e-10
-1.25315e-06
1.50816e-09
-1.16717e-06
-9.17819e-07
-1.85132e-09
-9.37947e-07
-1.97526e-09
-1.18073e-06
-1.89276e-09
-1.26424e-06
-1.87967e-09
-1.29873e-06
-1.88532e-09
-1.31177e-06
-1.90461e-09
-1.31539e-06
-1.87366e-09
-1.31525e-06
-1.82205e-09
-1.31393e-06
-1.72251e-09
-1.31257e-06
-1.5843e-09
-1.31165e-06
-1.40144e-09
-1.31132e-06
-1.15336e-09
-1.31152e-06
-8.5181e-10
-1.31197e-06
-5.21571e-10
-1.31205e-06
-1.42645e-10
-1.31052e-06
2.33552e-10
-1.30484e-06
6.66764e-10
-1.28971e-06
1.12395e-09
-1.25356e-06
1.28452e-09
-1.16726e-06
-9.16535e-07
-1.82544e-09
-9.36029e-07
-1.78461e-09
-1.18065e-06
-1.67063e-09
-1.26426e-06
-1.73543e-09
-1.29858e-06
-1.84943e-09
-1.31157e-06
-1.93613e-09
-1.31525e-06
-1.93054e-09
-1.31519e-06
-1.89297e-09
-1.31394e-06
-1.77875e-09
-1.31263e-06
-1.63946e-09
-1.31176e-06
-1.41418e-09
-1.31148e-06
-1.16868e-09
-1.31174e-06
-8.01909e-10
-1.31226e-06
-4.30181e-10
-1.31239e-06
-1.5071e-11
-1.31089e-06
3.78723e-10
-1.3052e-06
6.95524e-10
-1.29004e-06
8.48832e-10
-1.25371e-06
6.17059e-10
-1.16702e-06
-9.15901e-07
-1.5778e-09
-9.34446e-07
-1.38346e-09
-1.18079e-06
-1.3868e-09
-1.26424e-06
-1.50479e-09
-1.29842e-06
-1.68373e-09
-1.31137e-06
-1.80046e-09
-1.31511e-06
-1.83466e-09
-1.31514e-06
-1.7888e-09
-1.31397e-06
-1.67393e-09
-1.31272e-06
-1.52027e-09
-1.31189e-06
-1.31231e-09
-1.31164e-06
-1.06378e-09
-1.31194e-06
-7.43131e-10
-1.3125e-06
-4.34475e-10
-1.31266e-06
-8.63625e-11
-1.31114e-06
1.21819e-10
-1.30537e-06
2.22778e-10
-1.29007e-06
2.59952e-10
-1.25368e-06
4.45379e-10
-1.1671e-06
-9.15408e-07
-1.13569e-09
-9.33276e-07
-9.86734e-10
-1.18081e-06
-1.00431e-09
-1.2642e-06
-1.03333e-09
-1.29828e-06
-1.19027e-09
-1.31118e-06
-1.29864e-09
-1.31492e-06
-1.39354e-09
-1.315e-06
-1.38786e-09
-1.3139e-06
-1.33e-09
-1.31273e-06
-1.20432e-09
-1.31195e-06
-1.02722e-09
-1.31175e-06
-8.44445e-10
-1.31208e-06
-6.2847e-10
-1.31264e-06
-4.48812e-10
-1.31278e-06
-3.26493e-10
-1.31118e-06
-3.33231e-10
-1.30526e-06
-4.59204e-10
-1.28981e-06
-5.48538e-10
-1.25339e-06
-4.10222e-10
-1.16698e-06
-9.15748e-07
-4.84675e-10
-9.32633e-07
-3.03007e-10
-1.18076e-06
-2.65179e-10
-1.26411e-06
-2.94847e-10
-1.29807e-06
-4.65167e-10
-1.31091e-06
-6.12131e-10
-1.31463e-06
-7.69398e-10
-1.31475e-06
-8.37824e-10
-1.31373e-06
-8.42178e-10
-1.31264e-06
-7.73681e-10
-1.31194e-06
-6.64827e-10
-1.31179e-06
-5.27388e-10
-1.31213e-06
-4.28812e-10
-1.31266e-06
-3.74247e-10
-1.31274e-06
-3.98207e-10
-1.31103e-06
-5.62642e-10
-1.30496e-06
-8.11625e-10
-1.28936e-06
-1.0819e-09
-1.25282e-06
-1.05215e-09
-1.16668e-06
-9.16748e-07
-4.06911e-10
-9.32171e-07
4.4568e-11
-1.1811e-06
3.33486e-10
-1.26435e-06
3.54901e-10
-1.29798e-06
1.5478e-10
-1.31065e-06
-4.12657e-11
-1.31434e-06
-2.34134e-10
-1.31451e-06
-3.19135e-10
-1.31357e-06
-3.50668e-10
-1.31256e-06
-2.9101e-10
-1.31192e-06
-1.967e-10
-1.31182e-06
-9.34171e-11
-1.31218e-06
-7.52456e-12
-1.3127e-06
3.24829e-11
-1.31272e-06
-1.70271e-11
-1.31092e-06
-2.06353e-10
-1.3047e-06
-5.44464e-10
-1.28887e-06
-1.01633e-09
-1.25214e-06
-1.08935e-09
-1.1664e-06
-9.17836e-07
-2.13413e-10
-9.32132e-07
2.5241e-10
-1.18167e-06
4.81412e-10
-1.26471e-06
5.89858e-10
-1.29816e-06
5.40996e-10
-1.31069e-06
4.62816e-10
-1.3143e-06
3.43699e-10
-1.31445e-06
2.7901e-10
-1.31352e-06
2.39018e-10
-1.31255e-06
2.65737e-10
-1.31196e-06
3.0777e-10
-1.3119e-06
4.09229e-10
-1.31227e-06
4.74063e-10
-1.3128e-06
5.44421e-10
-1.31278e-06
5.38893e-10
-1.31092e-06
4.09676e-10
-1.30458e-06
6.41038e-11
-1.28853e-06
-4.55498e-10
-1.25163e-06
-8.11393e-10
-1.16608e-06
-9.18686e-07
5.8336e-10
-9.32838e-07
8.77344e-10
-1.182e-06
9.22828e-10
-1.26486e-06
1.04102e-09
-1.29829e-06
1.08521e-09
-1.31081e-06
1.11367e-09
-1.31434e-06
1.04373e-09
-1.31442e-06
9.83035e-10
-1.31347e-06
9.13412e-10
-1.31251e-06
8.89486e-10
-1.31194e-06
9.00714e-10
-1.31192e-06
9.26662e-10
-1.31233e-06
9.91663e-10
-1.31287e-06
1.03887e-09
-1.31287e-06
1.05569e-09
-1.311e-06
9.9691e-10
-1.30458e-06
7.28706e-10
-1.28838e-06
2.00572e-10
-1.25128e-06
-1.93465e-10
-1.16588e-06
-9.18921e-07
9.86647e-10
-9.33715e-07
1.4391e-09
-1.18235e-06
1.58587e-09
-1.26492e-06
1.60089e-09
-1.29823e-06
1.57226e-09
-1.31073e-06
1.52809e-09
-1.31426e-06
1.47906e-09
-1.31434e-06
1.40978e-09
-1.3134e-06
1.37797e-09
-1.31246e-06
1.32582e-09
-1.31192e-06
1.31377e-09
-1.3119e-06
1.26904e-09
-1.31231e-06
1.23527e-09
-1.31284e-06
1.11707e-09
-1.31281e-06
9.72993e-10
-1.31087e-06
7.26245e-10
-1.3044e-06
2.99543e-10
-1.28807e-06
-4.04973e-10
-1.25075e-06
-9.63843e-10
-1.1655e-06
-9.19902e-07
1.42863e-09
-9.35096e-07
1.67474e-09
-1.18261e-06
1.47845e-09
-1.26469e-06
1.27407e-09
-1.29804e-06
1.22925e-09
-1.31066e-06
1.23766e-09
-1.31428e-06
1.3113e-09
-1.3144e-06
1.36295e-09
-1.31347e-06
1.42924e-09
-1.31251e-06
1.43975e-09
-1.31196e-06
1.44382e-09
-1.3119e-06
1.34417e-09
-1.31227e-06
1.21048e-09
-1.31272e-06
9.66591e-10
-1.31261e-06
6.57919e-10
-1.31061e-06
3.31349e-10
-1.30409e-06
-2.62944e-11
-1.28775e-06
-4.42256e-10
-1.25038e-06
-6.70701e-10
-1.16534e-06
-9.20581e-07
1.93772e-09
-9.37272e-07
1.40488e-09
-1.18231e-06
8.26641e-10
-1.26432e-06
6.62104e-10
-1.29804e-06
7.25945e-10
-1.31088e-06
9.1556e-10
-1.31457e-06
1.09525e-09
-1.31468e-06
1.26849e-09
-1.3137e-06
1.37649e-09
-1.31269e-06
1.44733e-09
-1.31207e-06
1.43155e-09
-1.31195e-06
1.37105e-09
-1.31223e-06
1.20091e-09
-1.31261e-06
9.7713e-10
-1.31241e-06
6.99568e-10
-1.31035e-06
4.48442e-10
-1.30386e-06
3.42053e-10
-1.28763e-06
2.20507e-10
-1.25027e-06
3.61049e-11
-1.16521e-06
-9.20581e-07
2.06731e-09
-9.3959e-07
1.4377e-09
-1.18188e-06
7.8037e-10
-1.26388e-06
7.11842e-10
-1.29812e-06
8.34504e-10
-1.31117e-06
1.06513e-09
-1.3149e-06
1.23299e-09
-1.31496e-06
1.38324e-09
-1.31391e-06
1.44435e-09
-1.31283e-06
1.47887e-09
-1.31215e-06
1.45321e-09
-1.31198e-06
1.37489e-09
-1.31222e-06
1.25293e-09
-1.31255e-06
1.08412e-09
-1.31232e-06
8.91422e-10
-1.31025e-06
7.60134e-10
-1.30382e-06
7.81604e-10
-1.28775e-06
8.03939e-10
-1.25045e-06
4.50876e-10
-1.16507e-06
-9.20201e-07
2.1434e-09
-9.4189e-07
1.59201e-09
-1.1815e-06
9.68348e-10
-1.26338e-06
8.83891e-10
-1.29817e-06
1.03774e-09
-1.31142e-06
1.22121e-09
-1.31519e-06
1.37482e-09
-1.31521e-06
1.45955e-09
-1.31409e-06
1.48547e-09
-1.31294e-06
1.46006e-09
-1.31221e-06
1.3901e-09
-1.312e-06
1.30481e-09
-1.31221e-06
1.19952e-09
-1.31254e-06
1.08394e-09
-1.31231e-06
9.67651e-10
-1.31026e-06
8.6864e-10
-1.30387e-06
7.94269e-10
-1.28789e-06
7.59468e-10
-1.25072e-06
5.83802e-10
-1.16524e-06
-9.19687e-07
1.71209e-09
-9.4369e-07
9.23883e-10
-1.1808e-06
6.05499e-10
-1.26312e-06
6.801e-10
-1.29833e-06
9.13076e-10
-1.31171e-06
1.1301e-09
-1.31548e-06