/*--------------------------------*- C++ -*----------------------------------*\
  =========                 |
  \\      /  F ield         | OpenFOAM: The Open Source CFD Toolbox
   \\    /   O peration     | Website:  https://openfoam.org
    \\  /    A nd           | Version:  6
     \\/     M anipulation  |
\*---------------------------------------------------------------------------*/
FoamFile
{
    version     2.0;
    format      ascii;
    class       volVectorField;
    location    "7";
    object      U;
}
// * * * * * * * * * * * * * * * * * * * * * * * * * * * * * * * * * * * * * //

dimensions      [0 1 -1 0 0 0 0];

internalField   nonuniform List<vector> 
10000
(
(-0.013671 -3.80736 0)
(-0.0216383 -4.76322 0)
(-0.0304137 -5.07932 0)
(-0.0301395 -5.199 0)
(-0.0256866 -5.2363 0)
(-0.0201866 -5.24134 0)
(-0.0154417 -5.23535 0)
(-0.011826 -5.22688 0)
(-0.00906737 -5.2195 0)
(-0.00683172 -5.21459 0)
(-0.00480519 -5.21261 0)
(-0.00267029 -5.21312 0)
(-5.87429e-05 -5.21499 0)
(0.00355414 -5.21585 0)
(0.00858758 -5.21137 0)
(0.0150807 -5.19259 0)
(0.0212311 -5.13941 0)
(0.0239785 -5.00749 0)
(0.0188894 -4.68498 0)
(0.0131449 -3.70978 0)
(-0.00155894 -3.79476 0)
(-0.00867155 -4.75353 0)
(-0.0122613 -5.08408 0)
(-0.0138727 -5.21196 0)
(-0.0138346 -5.25212 0)
(-0.0126646 -5.25668 0)
(-0.0109532 -5.24874 0)
(-0.00911306 -5.23824 0)
(-0.00721946 -5.22925 0)
(-0.00538287 -5.22342 0)
(-0.00357072 -5.22111 0)
(-0.00182148 -5.22201 0)
(-0.000124164 -5.22487 0)
(0.00163394 -5.22729 0)
(0.00337966 -5.22432 0)
(0.00508208 -5.20574 0)
(0.00611248 -5.14958 0)
(0.00625277 -5.00932 0)
(0.00500717 -4.67273 0)
(0.00091244 -3.69011 0)
(0.00192866 -3.77973 0)
(-0.00945663 -4.74386 0)
(-0.00797989 -5.07616 0)
(-0.0084265 -5.20645 0)
(-0.00856604 -5.24932 0)
(-0.00836205 -5.25598 0)
(-0.00787161 -5.24951 0)
(-0.00707208 -5.23992 0)
(-0.00598318 -5.23148 0)
(-0.00469147 -5.22592 0)
(-0.00331381 -5.22363 0)
(-0.0019139 -5.2243 0)
(-0.000606958 -5.22668 0)
(0.000557936 -5.2283 0)
(0.00164647 -5.2242 0)
(0.00255462 -5.20422 0)
(0.00352401 -5.14691 0)
(0.00418155 -5.00656 0)
(0.00715427 -4.67104 0)
(-0.00429723 -3.68156 0)
(0.00383057 -3.76735 0)
(-0.00678877 -4.73946 0)
(-0.00429981 -5.07146 0)
(-0.00384561 -5.20307 0)
(-0.00402233 -5.24723 0)
(-0.00435008 -5.25499 0)
(-0.00456685 -5.2495 0)
(-0.00454494 -5.24074 0)
(-0.0042227 -5.23297 0)
(-0.00361287 -5.22788 0)
(-0.00281581 -5.22587 0)
(-0.00190565 -5.22659 0)
(-0.000992418 -5.22886 0)
(-0.000113982 -5.23022 0)
(0.000687437 -5.22587 0)
(0.00132363 -5.20589 0)
(0.00204801 -5.14915 0)
(0.00232433 -5.00925 0)
(0.00601794 -4.67251 0)
(-0.00742228 -3.6686 0)
(-0.00206335 -3.75472 0)
(-0.00487051 -4.74246 0)
(-0.00447434 -5.07327 0)
(-0.00346985 -5.20208 0)
(-0.00333917 -5.24513 0)
(-0.0034724 -5.25312 0)
(-0.00357068 -5.24837 0)
(-0.00355417 -5.24053 0)
(-0.00335919 -5.23361 0)
(-0.00293251 -5.22913 0)
(-0.00235274 -5.22751 0)
(-0.00163543 -5.2284 0)
(-0.000838591 -5.2307 0)
(-7.59426e-06 -5.23202 0)
(0.000843978 -5.22763 0)
(0.00156996 -5.20772 0)
(0.00226633 -5.15113 0)
(0.00239882 -5.01086 0)
(0.0022121 -4.67395 0)
(0.00197302 -3.66469 0)
(-0.00470478 -3.74895 0)
(-0.00383269 -4.7483 0)
(-0.00557942 -5.07965 0)
(-0.00516907 -5.20606 0)
(-0.004971 -5.24745 0)
(-0.00461655 -5.25458 0)
(-0.00415804 -5.24953 0)
(-0.00368572 -5.24177 0)
(-0.00320545 -5.23506 0)
(-0.00266974 -5.23084 0)
(-0.00206354 -5.22948 0)
(-0.00138491 -5.23061 0)
(-0.000614919 -5.23317 0)
(0.000231089 -5.23476 0)
(0.00107723 -5.23066 0)
(0.00175476 -5.21089 0)
(0.00207695 -5.15426 0)
(0.00210313 -5.01426 0)
(-0.00221988 -4.67603 0)
(0.00895232 -3.6653 0)
(-0.00317972 -3.74552 0)
(-0.00321952 -4.74981 0)
(-0.00479395 -5.08335 0)
(-0.00577005 -5.20958 0)
(-0.00568475 -5.25104 0)
(-0.00520428 -5.25786 0)
(-0.0045319 -5.25233 0)
(-0.00380993 -5.24415 0)
(-0.00314765 -5.23719 0)
(-0.0025387 -5.23285 0)
(-0.00195621 -5.23143 0)
(-0.00137539 -5.23262 0)
(-0.000759339 -5.23527 0)
(-0.000157662 -5.23698 0)
(0.000366715 -5.23294 0)
(0.000758794 -5.21305 0)
(0.000712254 -5.15588 0)
(0.000480631 -5.01515 0)
(-0.00276684 -4.67631 0)
(0.00669587 -3.66636 0)
(-0.00281754 -3.74121 0)
(-0.0011993 -4.74395 0)
(-0.0031863 -5.08136 0)
(-0.00423438 -5.20934 0)
(-0.00449779 -5.25191 0)
(-0.00429409 -5.25938 0)
(-0.0038796 -5.25416 0)
(-0.00333967 -5.24601 0)
(-0.00280393 -5.23894 0)
(-0.00231159 -5.23445 0)
(-0.00188791 -5.23295 0)
(-0.00152685 -5.23409 0)
(-0.00122458 -5.23671 0)
(-0.00100464 -5.23838 0)
(-0.000891315 -5.23422 0)
(-0.000863526 -5.21411 0)
(-0.000992853 -5.15655 0)
(-0.00139626 -5.01512 0)
(-0.0025423 -4.67553 0)
(0.00452359 -3.66843 0)
(-0.00310377 -3.73739 0)
(-6.23754e-05 -4.73962 0)
(-0.00203648 -5.07741 0)
(-0.00191399 -5.20721 0)
(-0.00228396 -5.25069 0)
(-0.00249222 -5.25886 0)
(-0.00254768 -5.25424 0)
(-0.00246006 -5.24653 0)
(-0.00228669 -5.23967 0)
(-0.00208643 -5.23523 0)
(-0.0019198 -5.23364 0)
(-0.00182581 -5.23459 0)
(-0.0018629 -5.23699 0)
(-0.00202954 -5.23841 0)
(-0.00228025 -5.23392 0)
(-0.00255271 -5.21346 0)
(-0.00272071 -5.15575 0)
(-0.0029661 -5.01495 0)
(-0.00325561 -4.67629 0)
(0.00357637 -3.67057 0)
(0.00365718 -3.73937 0)
(-0.00248004 -4.7376 0)
(-0.00114843 -5.07742 0)
(-0.00075704 -5.20783 0)
(-0.00109974 -5.25085 0)
(-0.00148833 -5.2586 0)
(-0.00183231 -5.25396 0)
(-0.00204068 -5.24643 0)
(-0.00213269 -5.23974 0)
(-0.00215415 -5.23537 0)
(-0.00219318 -5.23366 0)
(-0.00230636 -5.23434 0)
(-0.00256814 -5.23633 0)
(-0.00294839 -5.23727 0)
(-0.00337742 -5.23231 0)
(-0.00377668 -5.21146 0)
(-0.00384152 -5.15364 0)
(-0.00379185 -5.01291 0)
(-0.00285629 -4.6742 0)
(-0.00303158 -3.67287 0)
(0.00676406 -3.73654 0)
(-0.00479067 -4.74142 0)
(-0.000180949 -5.07833 0)
(-0.000440451 -5.20877 0)
(-0.000921402 -5.25129 0)
(-0.00146815 -5.2586 0)
(-0.00199033 -5.25382 0)
(-0.00232766 -5.24633 0)
(-0.00253998 -5.2397 0)
(-0.00266588 -5.23532 0)
(-0.00277816 -5.23353 0)
(-0.00289952 -5.23404 0)
(-0.00305517 -5.23577 0)
(-0.00324144 -5.23641 0)
(-0.00336606 -5.23132 0)
(-0.00340268 -5.21063 0)
(-0.00318289 -5.15349 0)
(-0.00290933 -5.01362 0)
(-0.00232287 -4.67668 0)
(-0.00771404 -3.67615 0)
(0.00267166 -3.73475 0)
(-0.00424542 -4.74225 0)
(-0.000150308 -5.07944 0)
(-0.00045265 -5.20877 0)
(-0.000791532 -5.25075 0)
(-0.00142431 -5.25805 0)
(-0.00204794 -5.2534 0)
(-0.00253954 -5.24603 0)
(-0.00288927 -5.23953 0)
(-0.0031187 -5.23526 0)
(-0.00324376 -5.2336 0)
(-0.00327462 -5.23425 0)
(-0.00321096 -5.23619 0)
(-0.00303807 -5.23717 0)
(-0.00273205 -5.23269 0)
(-0.00228249 -5.21307 0)
(-0.00184023 -5.1568 0)
(-0.00148522 -5.01619 0)
(-0.00398103 -4.68039 0)
(0.000542889 -3.68592 0)
(-0.000817744 -3.73 0)
(-0.00220227 -4.74703 0)
(-0.000121165 -5.08063 0)
(-0.000127057 -5.20819 0)
(-0.000202783 -5.24967 0)
(-0.000713895 -5.25682 0)
(-0.00138458 -5.25231 0)
(-0.00203676 -5.24518 0)
(-0.00256717 -5.23895 0)
(-0.00293671 -5.23497 0)
(-0.00314428 -5.23362 0)
(-0.0031877 -5.23464 0)
(-0.003057 -5.237 0)
(-0.00276452 -5.2385 0)
(-0.00235269 -5.23457 0)
(-0.00189222 -5.21538 0)
(-0.00159207 -5.15918 0)
(-0.00145713 -5.0175 0)
(-0.00421878 -4.67873 0)
(0.00469149 -3.69328 0)
(-0.00899393 -3.72773 0)
(0.000631065 -4.74564 0)
(-0.000420716 -5.08024 0)
(0.000224328 -5.20756 0)
(0.000407458 -5.24832 0)
(8.98603e-05 -5.25526 0)
(-0.000479257 -5.25084 0)
(-0.00111647 -5.24394 0)
(-0.00169554 -5.23802 0)
(-0.00212995 -5.23439 0)
(-0.0024051 -5.23337 0)
(-0.00251481 -5.2347 0)
(-0.00246437 -5.23736 0)
(-0.00229106 -5.23908 0)
(-0.00207279 -5.23513 0)
(-0.00193309 -5.21557 0)
(-0.00188113 -5.15892 0)
(-0.00185243 -5.01718 0)
(-0.00370484 -4.67804 0)
(0.00465587 -3.69659 0)
(-0.00919801 -3.72475 0)
(0.00229959 -4.7489 0)
(-0.00130177 -5.084 0)
(-4.81429e-05 -5.20907 0)
(0.000277902 -5.24848 0)
(0.000279055 -5.25471 0)
(2.81897e-05 -5.24997 0)
(-0.000356774 -5.24304 0)
(-0.000774303 -5.23724 0)
(-0.00114295 -5.23381 0)
(-0.00141387 -5.23304 0)
(-0.00158149 -5.23459 0)
(-0.00165616 -5.23738 0)
(-0.00168143 -5.2391 0)
(-0.0017166 -5.23494 0)
(-0.00183984 -5.21503 0)
(-0.00193517 -5.15825 0)
(-0.00166101 -5.01752 0)
(-0.00448592 -4.67857 0)
(0.00706961 -3.69699 0)
(-0.000263353 -3.72052 0)
(0.000871491 -4.75154 0)
(-0.000535054 -5.08739 0)
(0.00048531 -5.21093 0)
(0.000540852 -5.2494 0)
(0.000623347 -5.25495 0)
(0.000577789 -5.24976 0)
(0.000427598 -5.24258 0)
(0.000218367 -5.2367 0)
(-1.81288e-05 -5.23332 0)
(-0.000243566 -5.23265 0)
(-0.000450873 -5.23429 0)
(-0.000651192 -5.23714 0)
(-0.000856046 -5.23882 0)
(-0.00107736 -5.23448 0)
(-0.00136465 -5.21417 0)
(-0.00166567 -5.157 0)
(-0.00144505 -5.01634 0)
(-0.00272478 -4.67701 0)
(-0.000693729 -3.70062 0)
(0.00682472 -3.71796 0)
(-0.00169705 -4.75264 0)
(-6.13501e-05 -5.08671 0)
(-4.28176e-05 -5.21031 0)
(-1.13264e-05 -5.24927 0)
(0.000347306 -5.25506 0)
(0.000689695 -5.24979 0)
(0.000895426 -5.24241 0)
(0.000939069 -5.23643 0)
(0.000885576 -5.23298 0)
(0.000758172 -5.23226 0)
(0.000591423 -5.2339 0)
(0.00039981 -5.23678 0)
(0.000176847 -5.23852 0)
(-3.97775e-05 -5.23431 0)
(-0.000267483 -5.21413 0)
(-0.000571588 -5.15676 0)
(-0.000739957 -5.01633 0)
(-0.000282022 -4.68053 0)
(-0.00766486 -3.70505 0)
(0.00179766 -3.72091 0)
(-0.00091476 -4.75336 0)
(-0.000256589 -5.08562 0)
(-0.00109348 -5.20965 0)
(-0.000899257 -5.24958 0)
(-0.000331547 -5.25575 0)
(0.000269389 -5.25042 0)
(0.000731378 -5.24283 0)
(0.00100846 -5.23657 0)
(0.00113522 -5.23288 0)
(0.00113788 -5.23197 0)
(0.00106293 -5.23346 0)
(0.000935394 -5.23623 0)
(0.000782751 -5.23793 0)
(0.000602472 -5.23379 0)
(0.000422864 -5.21376 0)
(0.00011026 -5.15639 0)
(-0.000210307 -5.01592 0)
(0.00136633 -4.68126 0)
(-0.00806432 -3.70739 0)
(-0.00229149 -3.72378 0)
(0.000861304 -4.74785 0)
(-0.000495351 -5.08378 0)
(-0.00152967 -5.21 0)
(-0.0013319 -5.25065 0)
(-0.000807842 -5.25692 0)
(-0.000200732 -5.25143 0)
(0.000336116 -5.24354 0)
(0.000702731 -5.23695 0)
(0.000909711 -5.23298 0)
(0.000989274 -5.23184 0)
(0.00100272 -5.23315 0)
(0.00101579 -5.23576 0)
(0.00103861 -5.23726 0)
(0.00110544 -5.23276 0)
(0.00111299 -5.21197 0)
(0.000894227 -5.15313 0)
(0.000536605 -5.01075 0)
(0.00293187 -4.67721 0)
(-0.0104015 -3.70553 0)
(-0.00581767 -3.72391 0)
(0.00216059 -4.74509 0)
(-0.000705773 -5.08237 0)
(-0.00118636 -5.21022 0)
(-0.00135259 -5.25159 0)
(-0.00109796 -5.25816 0)
(-0.000634292 -5.25265 0)
(-0.000141562 -5.24453 0)
(0.000248874 -5.23766 0)
(0.000522025 -5.23344 0)
(0.000717519 -5.2322 0)
(0.000884172 -5.23352 0)
(0.00110816 -5.23622 0)
(0.00140487 -5.23774 0)
(0.00179513 -5.23305 0)
(0.00213484 -5.21176 0)
(0.002301 -5.15212 0)
(0.00208416 -5.00929 0)
(0.00232944 -4.67825 0)
(-0.00451165 -3.70301 0)
(-0.000792199 -3.72813 0)
(0.000698818 -4.74628 0)
(-0.000153515 -5.08255 0)
(-0.000762203 -5.21042 0)
(-0.00117623 -5.25251 0)
(-0.00116755 -5.25954 0)
(-0.000895067 -5.25407 0)
(-0.000514502 -5.24574 0)
(-0.00016044 -5.23864 0)
(0.00012315 -5.23425 0)
(0.000375554 -5.23301 0)
(0.000646198 -5.23449 0)
(0.00102199 -5.23753 0)
(0.00152002 -5.23955 0)
(0.00210806 -5.23539 0)
(0.00277282 -5.21464 0)
(0.00334944 -5.15552 0)
(0.00371078 -5.01233 0)
(0.00201523 -4.67871 0)
(0.00072952 -3.70811 0)
(0.00315984 -3.72852 0)
(-0.00076363 -4.74616 0)
(0.00085067 -5.08191 0)
(-0.000459386 -5.21056 0)
(-0.000650558 -5.25319 0)
(-0.000686745 -5.26061 0)
(-0.000618941 -5.25523 0)
(-0.00046437 -5.24683 0)
(-0.0002765 -5.2396 0)
(-9.21844e-05 -5.23513 0)
(0.000105486 -5.23387 0)
(0.000354824 -5.23551 0)
(0.000704159 -5.23883 0)
(0.00115131 -5.24127 0)
(0.00164928 -5.2376 0)
(0.00224771 -5.21724 0)
(0.00275818 -5.15805 0)
(0.00343624 -5.01372 0)
(0.0037069 -4.67713 0)
(-0.00080808 -3.70422 0)
(-0.00228108 -3.73549 0)
(0.00185337 -4.74133 0)
(0.00185527 -5.07826 0)
(0.00113188 -5.20917 0)
(0.000968378 -5.25294 0)
(0.000682449 -5.26072 0)
(0.00036514 -5.25545 0)
(0.000147335 -5.2471 0)
(5.73012e-05 -5.23987 0)
(7.00438e-05 -5.23546 0)
(0.000163273 -5.23433 0)
(0.000316818 -5.23612 0)
(0.000522111 -5.23956 0)
(0.00073106 -5.24211 0)
(0.000921201 -5.23842 0)
(0.00116409 -5.21773 0)
(0.00152145 -5.15796 0)
(0.00217765 -5.01303 0)
(0.00486055 -4.6751 0)
(0.000502727 -3.69435 0)
(-0.00584093 -3.7361 0)
(0.00454491 -4.74218 0)
(0.00182353 -5.07691 0)
(0.00217201 -5.20791 0)
(0.00199392 -5.25168 0)
(0.00156248 -5.25942 0)
(0.00110351 -5.25435 0)
(0.000756814 -5.24633 0)
(0.000602076 -5.23945 0)
(0.000606215 -5.2353 0)
(0.000704789 -5.23432 0)
(0.000837755 -5.23618 0)
(0.00093034 -5.23964 0)
(0.000946375 -5.2421 0)
(0.000896166 -5.23827 0)
(0.000862885 -5.21759 0)
(0.00112768 -5.15841 0)
(0.00156905 -5.01448 0)
(0.00460841 -4.67616 0)
(0.0019059 -3.68784 0)
(-0.00212668 -3.73875 0)
(0.00305905 -4.74309 0)
(0.000402874 -5.07696 0)
(0.00150397 -5.2065 0)
(0.00154325 -5.24977 0)
(0.00146227 -5.25764 0)
(0.00131844 -5.253 0)
(0.00119585 -5.24546 0)
(0.00120666 -5.23896 0)
(0.00133583 -5.23508 0)
(0.00152898 -5.23422 0)
(0.00172073 -5.23603 0)
(0.00181508 -5.23931 0)
(0.00178789 -5.24149 0)
(0.00164544 -5.23743 0)
(0.00148756 -5.21691 0)
(0.00157947 -5.15857 0)
(0.00141593 -5.01542 0)
(0.00421427 -4.67669 0)
(0.0035327 -3.6829 0)
(0.00552445 -3.73674 0)
(-0.000149935 -4.74564 0)
(-0.000825872 -5.0767 0)
(8.25733e-05 -5.20601 0)
(0.00058555 -5.24952 0)
(0.00105045 -5.25738 0)
(0.00136472 -5.25279 0)
(0.00158389 -5.24541 0)
(0.00180849 -5.23914 0)
(0.00206754 -5.23542 0)
(0.00234012 -5.23459 0)
(0.00257315 -5.2363 0)
(0.00268706 -5.23932 0)
(0.00270861 -5.24115 0)
(0.00265108 -5.2368 0)
(0.00259127 -5.21618 0)
(0.00263172 -5.15806 0)
(0.00217509 -5.01435 0)
(0.00377852 -4.67367 0)
(0.00502159 -3.67812 0)
(0.00725256 -3.73709 0)
(-0.0011718 -4.74466 0)
(-0.000731243 -5.07881 0)
(-0.000617297 -5.20822 0)
(-6.50987e-05 -5.25126 0)
(0.000573266 -5.25892 0)
(0.00118582 -5.25408 0)
(0.00169779 -5.24652 0)
(0.00212123 -5.24012 0)
(0.00249198 -5.2363 0)
(0.00280902 -5.23537 0)
(0.00306405 -5.23693 0)
(0.0032248 -5.23977 0)
(0.00331628 -5.24141 0)
(0.00336862 -5.23689 0)
(0.00340269 -5.21622 0)
(0.00350722 -5.15823 0)
(0.00310524 -5.01454 0)
(0.00284512 -4.67328 0)
(0.00649356 -3.67201 0)
(0.00393045 -3.7386 0)
(-0.00051802 -4.7464 0)
(-0.000683353 -5.0809 0)
(-0.00126049 -5.21023 0)
(-0.00102461 -5.25326 0)
(-0.000303345 -5.26091 0)
(0.000578803 -5.25593 0)
(0.00137193 -5.24816 0)
(0.00201436 -5.24155 0)
(0.00252589 -5.23755 0)
(0.00293847 -5.23646 0)
(0.00327615 -5.23788 0)
(0.00355258 -5.24061 0)
(0.00380165 -5.24219 0)
(0.00401724 -5.23773 0)
(0.00409309 -5.21715 0)
(0.00419948 -5.15927 0)
(0.00378045 -5.01588 0)
(0.00198015 -4.67166 0)
(0.00713647 -3.66784 0)
(0.00129864 -3.74335 0)
(8.38486e-05 -4.74533 0)
(-0.000364718 -5.08029 0)
(-0.00145074 -5.21089 0)
(-0.00123132 -5.2552 0)
(-0.000553566 -5.26316 0)
(0.000280218 -5.25807 0)
(0.00110448 -5.25007 0)
(0.00181193 -5.24324 0)
(0.00239005 -5.23904 0)
(0.0028494 -5.23782 0)
(0.00324042 -5.23921 0)
(0.00361445 -5.24199 0)
(0.0039816 -5.2437 0)
(0.00430026 -5.23942 0)
(0.00443132 -5.21894 0)
(0.00424774 -5.16093 0)
(0.00380352 -5.01744 0)
(0.00232321 -4.67124 0)
(0.000829681 -3.6685 0)
(-0.00100684 -3.74651 0)
(0.00131546 -4.74112 0)
(-0.000245448 -5.07831 0)
(-0.00107982 -5.21184 0)
(-0.000826734 -5.25702 0)
(-0.000365598 -5.26519 0)
(0.00025821 -5.26008 0)
(0.000954647 -5.25193 0)
(0.00159522 -5.24485 0)
(0.00212812 -5.24044 0)
(0.00254205 -5.23907 0)
(0.00287439 -5.24038 0)
(0.00315951 -5.24317 0)
(0.0033972 -5.24495 0)
(0.00353026 -5.24072 0)
(0.00352337 -5.22024 0)
(0.00310016 -5.16194 0)
(0.00257256 -5.01799 0)
(0.00216967 -4.67263 0)
(0.000911951 -3.66284 0)
(0.00218571 -3.75 0)
(0.000569019 -4.73672 0)
(6.47524e-05 -5.07622 0)
(-0.000228118 -5.2113 0)
(-0.00029154 -5.25712 0)
(-0.00020533 -5.26594 0)
(0.000125191 -5.26124 0)
(0.000618775 -5.25319 0)
(0.00111274 -5.24603 0)
(0.00154045 -5.24145 0)
(0.0018626 -5.2399 0)
(0.00206846 -5.24108 0)
(0.00219385 -5.24376 0)
(0.00221831 -5.24542 0)
(0.00216046 -5.24098 0)
(0.00202886 -5.22016 0)
(0.00171495 -5.16133 0)
(0.00106159 -5.01668 0)
(0.000972973 -4.67057 0)
(0.00528296 -3.66139 0)
(0.00767026 -3.75093 0)
(-0.00181975 -4.73531 0)
(0.000408384 -5.07409 0)
(0.000382527 -5.20976 0)
(-2.07098e-05 -5.25619 0)
(-0.000329546 -5.26579 0)
(-0.00034423 -5.26169 0)
(-0.000126394 -5.25394 0)
(0.000192544 -5.24682 0)
(0.00051082 -5.24209 0)
(0.000737421 -5.2403 0)
(0.00084321 -5.2412 0)
(0.000790614 -5.2436 0)
(0.000597771 -5.24498 0)
(0.000340837 -5.24018 0)
(2.91388e-05 -5.21886 0)
(-0.00035508 -5.15941 0)
(-0.000982036 -5.01488 0)
(0.000412427 -4.66888 0)
(-0.00096585 -3.66156 0)
(-0.000704205 -3.75249 0)
(-0.000454923 -4.73989 0)
(-0.000313044 -5.07643 0)
(-0.000250046 -5.21067 0)
(-0.000711736 -5.25662 0)
(-0.00113663 -5.26623 0)
(-0.00133974 -5.26223 0)
(-0.00130564 -5.25458 0)
(-0.00111235 -5.24743 0)
(-0.00087019 -5.24253 0)
(-0.000667176 -5.24044 0)
(-0.00057434 -5.24091 0)
(-0.000647598 -5.24281 0)
(-0.000872036 -5.24366 0)
(-0.00113842 -5.23836 0)
(-0.00138805 -5.21658 0)
(-0.00151799 -5.15659 0)
(-0.0013958 -5.01117 0)
(-0.00181263 -4.66692 0)
(0.00160483 -3.65817 0)
(-0.00392662 -3.75082 0)
(0.000362806 -4.74182 0)
(0.000128111 -5.07818 0)
(5.24236e-05 -5.21094 0)
(-0.000572161 -5.25629 0)
(-0.0012057 -5.26593 0)
(-0.00173023 -5.26217 0)
(-0.00201294 -5.25469 0)
(-0.0020491 -5.24767 0)
(-0.00193574 -5.24281 0)
(-0.00174433 -5.24065 0)
(-0.00155386 -5.24089 0)
(-0.00142706 -5.24248 0)
(-0.00135393 -5.243 0)
(-0.00125286 -5.23753 0)
(-0.00111197 -5.21583 0)
(-0.00082967 -5.15631 0)
(-1.35229e-05 -5.01121 0)
(-0.00361222 -4.66596 0)
(0.00536836 -3.66101 0)
(-0.00136963 -3.74689 0)
(0.000154279 -4.73917 0)
(0.000511628 -5.07421 0)
(0.000524902 -5.20677 0)
(-0.000164495 -5.25264 0)
(-0.000926183 -5.26319 0)
(-0.00164078 -5.26034 0)
(-0.00216537 -5.25362 0)
(-0.00245137 -5.24726 0)
(-0.00249957 -5.2429 0)
(-0.00236445 -5.24111 0)
(-0.00207933 -5.24162 0)
(-0.00170204 -5.24342 0)
(-0.00125251 -5.24418 0)
(-0.000760614 -5.23916 0)
(-0.000276344 -5.21817 0)
(-3.64123e-05 -5.15931 0)
(0.000159692 -5.01443 0)
(-0.000732668 -4.66932 0)
(-0.00553392 -3.66574 0)
(0.00124999 -3.74565 0)
(0.000529713 -4.74151 0)
(-3.00654e-05 -5.07329 0)
(4.31448e-06 -5.20404 0)
(-0.000698838 -5.24989 0)
(-0.0013537 -5.26082 0)
(-0.00189812 -5.25855 0)
(-0.00234894 -5.25257 0)
(-0.00263044 -5.24685 0)
(-0.00270262 -5.24306 0)
(-0.00257866 -5.24176 0)
(-0.00226724 -5.24272 0)
(-0.00179878 -5.2449 0)
(-0.00121076 -5.246 0)
(-0.000611222 -5.24122 0)
(-7.77676e-05 -5.22028 0)
(0.0001307 -5.16097 0)
(-0.000133349 -5.01474 0)
(0.00166957 -4.66945 0)
(-0.00627083 -3.66786 0)
(-0.000168165 -3.74544 0)
(0.00118427 -4.74901 0)
(-0.000950396 -5.07685 0)
(-0.00096708 -5.20567 0)
(-0.00149798 -5.25084 0)
(-0.00183708 -5.26119 0)
(-0.00208965 -5.25865 0)
(-0.00227493 -5.25264 0)
(-0.00238439 -5.24703 0)
(-0.00239037 -5.24346 0)
(-0.00227911 -5.24237 0)
(-0.00204557 -5.24355 0)
(-0.00166619 -5.2459 0)
(-0.00122144 -5.24706 0)
(-0.000790117 -5.2421 0)
(-0.000457568 -5.22058 0)
(-0.000222538 -5.16045 0)
(-0.000246215 -5.01414 0)
(0.00149579 -4.669 0)
(-0.00205695 -3.66902 0)
(0.00508939 -3.74919 0)
(-8.06422e-05 -4.74894 0)
(6.10053e-05 -5.07695 0)
(-0.000561346 -5.20612 0)
(-0.00120687 -5.25157 0)
(-0.00147108 -5.26186 0)
(-0.00165166 -5.25919 0)
(-0.00174276 -5.25308 0)
(-0.00178662 -5.24742 0)
(-0.00177821 -5.24383 0)
(-0.00171438 -5.24278 0)
(-0.00158062 -5.24403 0)
(-0.00136485 -5.24647 0)
(-0.0011152 -5.24766 0)
(-0.000893997 -5.24256 0)
(-0.000763354 -5.22087 0)
(-0.000521328 -5.16114 0)
(-0.000457621 -5.01644 0)
(0.000435849 -4.67261 0)
(0.000120291 -3.66374 0)
(0.00797985 -3.75052 0)
(-0.000994174 -4.74963 0)
(0.0016644 -5.07364 0)
(0.000325137 -5.20389 0)
(-0.000340295 -5.25051 0)
(-0.000647288 -5.26138 0)
(-0.00084395 -5.25896 0)
(-0.000959344 -5.25294 0)
(-0.00105553 -5.24736 0)
(-0.00110204 -5.24383 0)
(-0.00109504 -5.24289 0)
(-0.00102856 -5.24423 0)
(-0.000904867 -5.24676 0)
(-0.000779923 -5.24799 0)
(-0.000657391 -5.24285 0)
(-0.000565065 -5.22101 0)
(-0.000483358 -5.16134 0)
(-0.000656692 -5.01678 0)
(-0.000571845 -4.67207 0)
(-0.000500381 -3.66542 0)
(0.00325917 -3.75465 0)
(0.000715913 -4.74674 0)
(0.00173546 -5.07027 0)
(0.000708728 -5.20112 0)
(0.000376842 -5.24864 0)
(0.000190032 -5.26022 0)
(7.33701e-05 -5.25822 0)
(-2.87183e-05 -5.25238 0)
(-0.000139303 -5.24691 0)
(-0.000214913 -5.24352 0)
(-0.000251119 -5.24271 0)
(-0.000247196 -5.24416 0)
(-0.00023716 -5.24671 0)
(-0.00023877 -5.24788 0)
(-0.000286317 -5.2426 0)
(-0.000400068 -5.22055 0)
(-0.000560871 -5.15997 0)
(-0.00114828 -5.01384 0)
(-0.00254732 -4.6712 0)
(0.00229446 -3.66518 0)
(0.00127864 -3.7557 0)
(0.00202361 -4.74411 0)
(0.000866029 -5.06635 0)
(0.000342082 -5.19777 0)
(0.000291438 -5.24641 0)
(0.000359575 -5.25884 0)
(0.000462619 -5.25732 0)
(0.00054326 -5.25178 0)
(0.000575011 -5.24649 0)
(0.000596174 -5.24321 0)
(0.000601654 -5.24247 0)
(0.000589088 -5.24394 0)
(0.000525815 -5.24645 0)
(0.000401718 -5.24743 0)
(0.000196897 -5.24177 0)
(-0.000119774 -5.21909 0)
(-0.000464773 -5.15793 0)
(-0.000901139 -5.01111 0)
(-0.00504173 -4.66684 0)
(0.00938017 -3.66854 0)
(-0.00353626 -3.76128 0)
(0.00254545 -4.74176 0)
(-0.000882993 -5.0655 0)
(-0.00139808 -5.19791 0)
(-0.00122819 -5.24663 0)
(-0.000791524 -5.25908 0)
(-0.00028094 -5.25751 0)
(0.000183359 -5.25194 0)
(0.000554638 -5.24664 0)
(0.00084359 -5.24334 0)
(0.00105435 -5.24255 0)
(0.00118193 -5.24397 0)
(0.00121364 -5.24644 0)
(0.00116664 -5.24739 0)
(0.00104249 -5.24167 0)
(0.000793019 -5.21898 0)
(0.000388508 -5.15801 0)
(-9.57828e-05 -5.0119 0)
(-0.00462007 -4.66849 0)
(0.00654652 -3.67473 0)
(-0.0020084 -3.76543 0)
(0.00073332 -4.73939 0)
(-0.00168081 -5.06582 0)
(-0.00244687 -5.19928 0)
(-0.00249947 -5.24834 0)
(-0.00209776 -5.26077 0)
(-0.00147452 -5.25902 0)
(-0.000802639 -5.25323 0)
(-0.000191073 -5.24769 0)
(0.000297194 -5.24416 0)
(0.000659228 -5.24315 0)
(0.000913578 -5.24438 0)
(0.00105411 -5.24672 0)
(0.00109697 -5.24766 0)
(0.00105179 -5.24209 0)
(0.000908281 -5.21959 0)
(0.000582085 -5.15851 0)
(-0.000268096 -5.01263 0)
(-0.00202319 -4.66891 0)
(0.000273539 -3.68209 0)
(-0.000493474 -3.76629 0)
(-0.00120374 -4.73574 0)
(-0.00190731 -5.06403 0)
(-0.00320093 -5.1991 0)
(-0.00346782 -5.24929 0)
(-0.00321883 -5.2623 0)
(-0.00268419 -5.26064 0)
(-0.00205274 -5.2547 0)
(-0.00145254 -5.2489 0)
(-0.000957203 -5.2451 0)
(-0.000582907 -5.2438 0)
(-0.000334874 -5.24473 0)
(-0.000228259 -5.24674 0)
(-0.00021488 -5.24732 0)
(-0.000305324 -5.24133 0)
(-0.000413872 -5.21818 0)
(-0.000482886 -5.15625 0)
(-0.00047611 -5.0094 0)
(-0.000258104 -4.66393 0)
(-0.00160615 -3.68117 0)
(-0.00292766 -3.76632 0)
(-0.00168127 -4.73072 0)
(-0.00213464 -5.06072 0)
(-0.00346916 -5.19759 0)
(-0.00385347 -5.24902 0)
(-0.00382091 -5.26278 0)
(-0.00355297 -5.26148 0)
(-0.00314131 -5.25558 0)
(-0.00270213 -5.24966 0)
(-0.00228429 -5.24565 0)
(-0.00194483 -5.24409 0)
(-0.00170423 -5.24472 0)
(-0.00156421 -5.24632 0)
(-0.00153479 -5.2464 0)
(-0.00155249 -5.23983 0)
(-0.00153458 -5.21614 0)
(-0.00127724 -5.15395 0)
(-3.12152e-05 -5.00687 0)
(0.000615123 -4.66133 0)
(-0.00144657 -3.67694 0)
(-0.00636903 -3.76176 0)
(-0.00143124 -4.7246 0)
(-0.00297242 -5.05686 0)
(-0.00343466 -5.19514 0)
(-0.00360581 -5.24758 0)
(-0.00371545 -5.26206 0)
(-0.00371595 -5.2613 0)
(-0.00357946 -5.25573 0)
(-0.00333859 -5.24999 0)
(-0.0030352 -5.24599 0)
(-0.00270737 -5.24436 0)
(-0.00237944 -5.24483 0)
(-0.00204716 -5.24625 0)
(-0.0017159 -5.24614 0)
(-0.00137723 -5.23951 0)
(-0.000987462 -5.21613 0)
(-0.000318519 -5.15488 0)
(0.00115325 -5.00931 0)
(0.00186888 -4.66501 0)
(-0.00411221 -3.67276 0)
(-0.00557737 -3.75469 0)
(-0.00205607 -4.72157 0)
(-0.00391377 -5.05541 0)
(-0.00374756 -5.19389 0)
(-0.00369292 -5.24648 0)
(-0.0037759 -5.26119 0)
(-0.00381975 -5.26076 0)
(-0.00376532 -5.25555 0)
(-0.00361933 -5.25011 0)
(-0.00338119 -5.24636 0)
(-0.00305577 -5.24496 0)
(-0.00260645 -5.24566 0)
(-0.00201516 -5.24734 0)
(-0.00131697 -5.24753 0)
(-0.000515093 -5.24132 0)
(0.000338968 -5.21857 0)
(0.00120231 -5.15826 0)
(0.00203333 -5.01442 0)
(0.00306254 -4.67043 0)
(-0.00455157 -3.66907 0)
(0.00439396 -3.74949 0)
(-0.00504999 -4.7216 0)
(-0.00332812 -5.05634 0)
(-0.00338993 -5.19412 0)
(-0.0036066 -5.24634 0)
(-0.00383529 -5.26108 0)
(-0.00393159 -5.26081 0)
(-0.00389395 -5.25576 0)
(-0.00373225 -5.25047 0)
(-0.00348031 -5.24695 0)
(-0.00311459 -5.24581 0)
(-0.00262253 -5.24682 0)
(-0.00196821 -5.2489 0)
(-0.00117162 -5.24956 0)
(-0.000324741 -5.24386 0)
(0.00052068 -5.22163 0)
(0.00116726 -5.1616 0)
(0.00119867 -5.01676 0)
(0.00333524 -4.67017 0)
(-0.00346263 -3.66689 0)
(0.00759988 -3.74194 0)
(-0.00579873 -4.72506 0)
(-0.00244531 -5.05899 0)
(-0.00274683 -5.1954 0)
(-0.00319204 -5.24688 0)
(-0.00354423 -5.26144 0)
(-0.00371159 -5.26117 0)
(-0.00368793 -5.2562 0)
(-0.00351222 -5.25101 0)
(-0.0032356 -5.24757 0)
(-0.00286203 -5.24655 0)
(-0.00239275 -5.24777 0)
(-0.00180568 -5.25007 0)
(-0.00115954 -5.25092 0)
(-0.000506565 -5.2452 0)
(2.001e-05 -5.22266 0)
(0.00026019 -5.16201 0)
(0.000237829 -5.01662 0)
(0.000472458 -4.67042 0)
(0.00377461 -3.66284 0)
(-0.00250069 -3.73489 0)
(-0.00230105 -4.72548 0)
(-0.0016262 -5.05887 0)
(-0.00174672 -5.19522 0)
(-0.00208048 -5.24655 0)
(-0.00243617 -5.26105 0)
(-0.00271889 -5.26093 0)
(-0.00283356 -5.25616 0)
(-0.00276954 -5.25116 0)
(-0.00256848 -5.24788 0)
(-0.00224939 -5.24697 0)
(-0.00187512 -5.24826 0)
(-0.00147863 -5.25058 0)
(-0.00110371 -5.25133 0)
(-0.000835473 -5.24525 0)
(-0.000760742 -5.22205 0)
(-0.000944787 -5.16072 0)
(-0.00115842 -5.01534 0)
(-0.00221831 -4.66947 0)
(0.00568234 -3.66327 0)
(-0.00465257 -3.72972 0)
(0.000223971 -4.72096 0)
(-0.000264928 -5.05503 0)
(-0.00036575 -5.19168 0)
(-0.000582269 -5.24357 0)
(-0.000951208 -5.25878 0)
(-0.00134556 -5.25934 0)
(-0.00162009 -5.25516 0)
(-0.00172217 -5.25059 0)
(-0.00165282 -5.24762 0)
(-0.00145736 -5.2469 0)
(-0.00120058 -5.24821 0)
(-0.00096656 -5.25036 0)
(-0.000838637 -5.25067 0)
(-0.00082003 -5.24389 0)
(-0.00102612 -5.21965 0)
(-0.00149207 -5.1573 0)
(-0.00214573 -5.01134 0)
(-0.00224802 -4.66574 0)
(0.00076778 -3.66132 0)
(-0.00223762 -3.72922 0)
(0.000526409 -4.72241 0)
(0.000836594 -5.05484 0)
(0.000718959 -5.19006 0)
(0.00053244 -5.24156 0)
(0.000154637 -5.25692 0)
(-0.000238205 -5.25791 0)
(-0.0005434 -5.25424 0)
(-0.000686185 -5.25018 0)
(-0.000668923 -5.24757 0)
(-0.000512022 -5.24703 0)
(-0.000306619 -5.24832 0)
(-0.000116563 -5.25023 0)
(2.0792e-05 -5.25008 0)
(5.62651e-05 -5.24262 0)
(-0.000174515 -5.21757 0)
(-0.000662884 -5.15417 0)
(-0.00167767 -5.00695 0)
(-0.00081558 -4.66288 0)
(-0.00649897 -3.66805 0)
(-0.00219518 -3.73066 0)
(0.00137498 -4.72656 0)
(0.000750521 -5.05985 0)
(0.00105609 -5.19366 0)
(0.00111514 -5.24347 0)
(0.00103283 -5.25767 0)
(0.000847478 -5.25814 0)
(0.000645964 -5.25435 0)
(0.00051514 -5.25039 0)
(0.000484295 -5.24795 0)
(0.000547962 -5.24759 0)
(0.00069514 -5.249 0)
(0.000881671 -5.25098 0)
(0.00105931 -5.25086 0)
(0.00119062 -5.24341 0)
(0.00108739 -5.21815 0)
(0.000595892 -5.15439 0)
(-0.000456571 -5.00732 0)
(-6.4428e-05 -4.66509 0)
(-0.00632663 -3.67326 0)
(-0.00462904 -3.72823 0)
(0.0036478 -4.72899 0)
(0.00141067 -5.06056 0)
(0.001998 -5.19422 0)
(0.00216804 -5.24411 0)
(0.00228398 -5.25806 0)
(0.00222934 -5.25826 0)
(0.00207096 -5.25433 0)
(0.0019109 -5.25037 0)
(0.00179439 -5.24803 0)
(0.00176841 -5.24787 0)
(0.00180533 -5.24955 0)
(0.00191543 -5.25187 0)
(0.00206664 -5.25213 0)
(0.00216451 -5.24501 0)
(0.00217036 -5.21988 0)
(0.00174555 -5.15573 0)
(0.000882905 -5.00816 0)
(-0.00144294 -4.66678 0)
(0.00361723 -3.6775 0)
(-0.00564369 -3.72951 0)
(0.00532193 -4.72575 0)
(0.00286372 -5.05705 0)
(0.00306731 -5.19109 0)
(0.00309697 -5.24177 0)
(0.00311559 -5.2564 0)
(0.00307917 -5.25703 0)
(0.00296422 -5.25342 0)
(0.0028395 -5.24972 0)
(0.00272832 -5.24762 0)
(0.00265071 -5.24765 0)
(0.00259087 -5.24946 0)
(0.00251839 -5.25181 0)
(0.00238149 -5.25204 0)
(0.00210702 -5.2448 0)
(0.0016869 -5.21946 0)
(0.000890854 -5.1548 0)
(-0.000462363 -5.00616 0)
(-0.000664227 -4.66425 0)
(-0.00144135 -3.68067 0)
(0.00200353 -3.73778 0)
(0.00447181 -4.72862 0)
(0.00291132 -5.05817 0)
(0.00241361 -5.19144 0)
(0.00225008 -5.24164 0)
(0.00235688 -5.25609 0)
(0.00257358 -5.25671 0)
(0.00276294 -5.25319 0)
(0.00288551 -5.24956 0)
(0.00294534 -5.24749 0)
(0.00294117 -5.24741 0)
(0.0028359 -5.249 0)
(0.00259056 -5.25097 0)
(0.00218806 -5.25067 0)
(0.00160547 -5.24272 0)
(0.000903082 -5.21654 0)
(0.000177319 -5.15078 0)
(-0.00110252 -5.00104 0)
(0.000307173 -4.66101 0)
(-0.00339734 -3.6783 0)
(0.00494941 -3.7459 0)
(0.00273944 -4.7329 0)
(0.00236979 -5.06018 0)
(0.0012634 -5.19326 0)
(0.00111692 -5.24359 0)
(0.00149455 -5.25789 0)
(0.00198234 -5.25817 0)
(0.00242163 -5.2543 0)
(0.00273464 -5.25034 0)
(0.00291102 -5.24795 0)
(0.00295207 -5.24753 0)
(0.00285494 -5.24871 0)
(0.00260231 -5.25017 0)
(0.002192 -5.24924 0)
(0.00169449 -5.24068 0)
(0.00116696 -5.21407 0)
(0.000756451 -5.14834 0)
(0.00046953 -4.99869 0)
(-0.00100559 -4.65864 0)
(0.000750322 -3.68111 0)
(0.00387573 -3.75378 0)
(0.00242508 -4.72826 0)
(0.00268065 -5.05662 0)
(0.00149828 -5.19272 0)
(0.00138579 -5.2445 0)
(0.00177753 -5.25933 0)
(0.00225302 -5.25963 0)
(0.00264077 -5.25549 0)
(0.00288363 -5.25123 0)
(0.00298259 -5.24855 0)
(0.00297989 -5.24788 0)
(0.00286665 -5.24882 0)
(0.00265877 -5.25011 0)
(0.00237686 -5.2491 0)
(0.00204468 -5.24069 0)
(0.00173983 -5.21475 0)
(0.00151398 -5.15 0)
(0.00210756 -5.0003 0)
(-0.00114869 -4.65978 0)
(0.0018089 -3.68155 0)
(0.00494556 -3.7635 0)
(0.00233725 -4.72711 0)
(0.00292311 -5.05477 0)
(0.00193773 -5.1929 0)
(0.00190148 -5.24551 0)
(0.0022109 -5.26044 0)
(0.00256538 -5.26054 0)
(0.0028389 -5.25615 0)
(0.00297582 -5.2517 0)
(0.00298337 -5.24888 0)
(0.00288615 -5.24815 0)
(0.00272287 -5.2491 0)
(0.00253097 -5.25049 0)
(0.00233422 -5.24973 0)
(0.00211479 -5.24171 0)
(0.00186214 -5.21638 0)
(0.00157984 -5.15274 0)
(0.00189627 -5.00411 0)
(0.00104212 -4.66125 0)
(-0.00209267 -3.68274 0)
(-0.00243727 -3.77109 0)
(0.00294314 -4.72559 0)
(0.00189648 -5.05329 0)
(0.00145594 -5.19335 0)
(0.00168298 -5.24652 0)
(0.00205303 -5.26148 0)
(0.00242809 -5.26137 0)
(0.00271177 -5.25671 0)
(0.00283995 -5.25199 0)