/*--------------------------------*- C++ -*----------------------------------*\
  =========                 |
  \\      /  F ield         | OpenFOAM: The Open Source CFD Toolbox
   \\    /   O peration     | Website:  https://openfoam.org
    \\  /    A nd           | Version:  6
     \\/     M anipulation  |
\*---------------------------------------------------------------------------*/
FoamFile
{
    version     2.0;
    format      ascii;
    class       volVectorField;
    location    "7";
    object      U;
}
// * * * * * * * * * * * * * * * * * * * * * * * * * * * * * * * * * * * * * //

dimensions      [0 1 -1 0 0 0 0];

internalField   nonuniform List<vector> 
130000
(
(-0.00779147 -0.339802 0)
(-0.00824498 -0.387416 0)
(-0.00865955 -0.433091 0)
(-0.00903184 -0.47589 0)
(-0.00935804 -0.515062 0)
(-0.00965152 -0.550063 0)
(-0.00992288 -0.580565 0)
(-0.0101816 -0.606459 0)
(-0.0104337 -0.627835 0)
(-0.0106818 -0.644937 0)
(-0.010925 -0.658108 0)
(-0.0111603 -0.667748 0)
(-0.0113834 -0.674272 0)
(-0.0115899 -0.678087 0)
(-0.0117762 -0.679584 0)
(-0.0119401 -0.679135 0)
(-0.0120809 -0.677093 0)
(-0.0121995 -0.673802 0)
(-0.0122993 -0.66959 0)
(-0.0123841 -0.664768 0)
(-0.00977424 -0.338824 0)
(-0.009958 -0.386516 0)
(-0.010264 -0.432333 0)
(-0.0105584 -0.475278 0)
(-0.0108255 -0.514575 0)
(-0.0110688 -0.54967 0)
(-0.0112967 -0.58023 0)
(-0.0115174 -0.606155 0)
(-0.0117365 -0.627542 0)
(-0.0119562 -0.644649 0)
(-0.0121757 -0.657825 0)
(-0.0123916 -0.667478 0)
(-0.0125996 -0.674023 0)
(-0.0127954 -0.67787 0)
(-0.0129751 -0.679405 0)
(-0.0131365 -0.678998 0)
(-0.0132784 -0.676998 0)
(-0.013401 -0.673747 0)
(-0.0135074 -0.669571 0)
(-0.0135995 -0.664785 0)
(-0.0128965 -0.338306 0)
(-0.0128625 -0.385932 0)
(-0.0130088 -0.431706 0)
(-0.0131751 -0.474646 0)
(-0.0133452 -0.513954 0)
(-0.0135134 -0.549063 0)
(-0.013681 -0.579632 0)
(-0.0138511 -0.605563 0)
(-0.0140254 -0.626955 0)
(-0.0142045 -0.644069 0)
(-0.0143866 -0.657257 0)
(-0.0145692 -0.66693 0)
(-0.0147486 -0.673502 0)
(-0.0149211 -0.677383 0)
(-0.0150835 -0.678958 0)
(-0.0152332 -0.678594 0)
(-0.0153684 -0.676638 0)
(-0.0154878 -0.673431 0)
(-0.0155932 -0.669298 0)
(-0.0156853 -0.664551 0)
(-0.0165897 -0.338277 0)
(-0.0164385 -0.38583 0)
(-0.0164684 -0.431536 0)
(-0.0165217 -0.474432 0)
(-0.01659 -0.513709 0)
(-0.0166694 -0.548793 0)
(-0.0167606 -0.579338 0)
(-0.0168645 -0.605246 0)
(-0.0169808 -0.626616 0)
(-0.0171086 -0.643712 0)
(-0.0172453 -0.65689 0)
(-0.0173882 -0.666559 0)
(-0.0175334 -0.673135 0)
(-0.0176777 -0.677029 0)
(-0.0178176 -0.678621 0)
(-0.0179505 -0.67828 0)
(-0.0180742 -0.676351 0)
(-0.0181865 -0.673174 0)
(-0.0182894 -0.669072 0)
(-0.0183837 -0.664355 0)
(-0.0207306 -0.338472 0)
(-0.0204456 -0.385967 0)
(-0.0203761 -0.431619 0)
(-0.020329 -0.474468 0)
(-0.0203028 -0.513705 0)
(-0.0202946 -0.548751 0)
(-0.0203062 -0.579261 0)
(-0.0203383 -0.605135 0)
(-0.0203898 -0.626475 0)
(-0.0204593 -0.643545 0)
(-0.0205438 -0.656702 0)
(-0.0206403 -0.666359 0)
(-0.0207452 -0.672929 0)
(-0.020855 -0.676824 0)
(-0.0209663 -0.678423 0)
(-0.0210765 -0.678095 0)
(-0.0211828 -0.676183 0)
(-0.0212826 -0.673026 0)
(-0.0213781 -0.668946 0)
(-0.0214699 -0.664253 0)
(-0.0250474 -0.33878 0)
(-0.0246652 -0.386238 0)
(-0.0245198 -0.431843 0)
(-0.0243923 -0.474646 0)
(-0.0242859 -0.513839 0)
(-0.0241991 -0.54884 0)
(-0.024136 -0.579305 0)
(-0.0240979 -0.605134 0)
(-0.0240843 -0.626433 0)
(-0.0240937 -0.643466 0)
(-0.0241236 -0.656593 0)
(-0.0241709 -0.666226 0)
(-0.0242318 -0.672781 0)
(-0.0243031 -0.676666 0)
(-0.0243811 -0.678262 0)
(-0.0244629 -0.677936 0)
(-0.0245456 -0.676031 0)
(-0.0246259 -0.672886 0)
(-0.0247058 -0.668821 0)
(-0.0247856 -0.664145 0)
(-0.0293967 -0.339193 0)
(-0.0289819 -0.386636 0)
(-0.0287829 -0.432207 0)
(-0.0285902 -0.47497 0)
(-0.0284151 -0.514117 0)
(-0.0282588 -0.549069 0)
(-0.0281276 -0.579481 0)
(-0.0280241 -0.605258 0)
(-0.0279486 -0.626505 0)
(-0.0279 -0.643492 0)
(-0.0278759 -0.656579 0)
(-0.0278734 -0.666179 0)
(-0.027889 -0.672708 0)
(-0.0279192 -0.676574 0)
(-0.0279604 -0.678158 0)
(-0.0280096 -0.677826 0)
(-0.0280635 -0.675921 0)
(-0.0281182 -0.67278 0)
(-0.0281763 -0.668725 0)
(-0.0282377 -0.664062 0)
(-0.0338141 -0.339709 0)
(-0.0333578 -0.387153 0)
(-0.0331038 -0.432701 0)
(-0.0328519 -0.475429 0)
(-0.0326159 -0.514533 0)
(-0.0323978 -0.549433 0)
(-0.0322058 -0.579789 0)
(-0.0320433 -0.605507 0)
(-0.0319111 -0.626699 0)
(-0.0318085 -0.643632 0)
(-0.0317333 -0.656672 0)
(-0.0316829 -0.666231 0)
(-0.0316538 -0.672727 0)
(-0.0316427 -0.676566 0)
(-0.031646 -0.678132 0)
(-0.0316604 -0.677787 0)
(-0.0316828 -0.675875 0)
(-0.0317088 -0.672733 0)
(-0.0317413 -0.668681 0)
(-0.0317802 -0.664026 0)
(-0.0382296 -0.340244 0)
(-0.0377382 -0.387733 0)
(-0.0374426 -0.433285 0)
(-0.0371416 -0.475994 0)
(-0.0368534 -0.515062 0)
(-0.0365808 -0.549914 0)
(-0.0363345 -0.580215 0)
(-0.0361184 -0.605873 0)
(-0.035934 -0.627005 0)
(-0.0357809 -0.643881 0)
(-0.0356572 -0.656869 0)
(-0.0355604 -0.666382 0)
(-0.0354874 -0.672839 0)
(-0.0354348 -0.676647 0)
(-0.0353992 -0.678187 0)
(-0.0353773 -0.677824 0)
(-0.0353658 -0.6759 0)
(-0.0353604 -0.672751 0)
(-0.0353643 -0.668698 0)
(-0.0353777 -0.664045 0)
(-0.0426679 -0.340855 0)
(-0.0421534 -0.388406 0)
(-0.0418097 -0.433972 0)
(-0.0414585 -0.476669 0)
(-0.041119 -0.515704 0)
(-0.0407946 -0.550508 0)
(-0.0404971 -0.580751 0)
(-0.0402306 -0.606348 0)
(-0.0399972 -0.627416 0)
(-0.0397963 -0.644233 0)
(-0.0396264 -0.657165 0)
(-0.039485 -0.666628 0)
(-0.0393691 -0.673042 0)
(-0.0392757 -0.676813 0)
(-0.0392012 -0.678324 0)
(-0.0391424 -0.677937 0)
(-0.0390962 -0.675996 0)
(-0.0390581 -0.672837 0)
(-0.0390318 -0.668777 0)
(-0.0390174 -0.664122 0)
(-0.0470465 -0.341514 0)
(-0.0465138 -0.389147 0)
(-0.046148 -0.434744 0)
(-0.0457637 -0.477437 0)
(-0.0453857 -0.516444 0)
(-0.0450188 -0.551203 0)
(-0.0446769 -0.581389 0)
(-0.0443652 -0.606923 0)
(-0.0440865 -0.627927 0)
(-0.0438406 -0.64468 0)
(-0.0436264 -0.657554 0)
(-0.0434417 -0.666964 0)
(-0.0432837 -0.673331 0)
(-0.0431494 -0.677063 0)
(-0.0430357 -0.678541 0)
(-0.0429393 -0.678126 0)
(-0.0428573 -0.676165 0)
(-0.042785 -0.67299 0)
(-0.0427267 -0.66892 0)
(-0.0426828 -0.664258 0)
(-0.0514873 -0.342218 0)
(-0.0509293 -0.38995 0)
(-0.0505217 -0.435591 0)
(-0.0500949 -0.478288 0)
(-0.0496732 -0.517272 0)
(-0.0492619 -0.551988 0)
(-0.0488754 -0.582119 0)
(-0.0485194 -0.60759 0)
(-0.0481967 -0.62853 0)
(-0.0479071 -0.645219 0)
(-0.04765 -0.658033 0)
(-0.0474229 -0.667388 0)
(-0.0472236 -0.673706 0)
(-0.0470491 -0.677394 0)
(-0.0468964 -0.678836 0)
(-0.0467622 -0.678391 0)
(-0.046644 -0.676405 0)
(-0.0465371 -0.67321 0)
(-0.046446 -0.669126 0)
(-0.0463712 -0.664453 0)
(-0.0559017 -0.342974 0)
(-0.0553188 -0.390819 0)
(-0.0548816 -0.43651 0)
(-0.0544218 -0.479217 0)
(-0.0539633 -0.518182 0)
(-0.0535124 -0.552858 0)
(-0.0530849 -0.582936 0)
(-0.052687 -0.608345 0)
(-0.052322 -0.62922 0)
(-0.05199 -0.645845 0)
(-0.0516905 -0.658598 0)
(-0.0514215 -0.667896 0)
(-0.0511809 -0.674163 0)
(-0.0509658 -0.677806 0)
(-0.0507737 -0.679208 0)
(-0.0506013 -0.67873 0)
(-0.0504461 -0.676716 0)
(-0.0503035 -0.673499 0)
(-0.0501784 -0.669395 0)
(-0.0500713 -0.664708 0)
(-0.0603098 -0.343754 0)
(-0.0597243 -0.391733 0)
(-0.0592565 -0.437488 0)
(-0.058764 -0.480215 0)
(-0.0582681 -0.519167 0)
(-0.057777 -0.553808 0)
(-0.0573083 -0.583835 0)
(-0.0568683 -0.609184 0)
(-0.0564608 -0.629996 0)
(-0.0560862 -0.646556 0)
(-0.0557445 -0.659247 0)
(-0.0554336 -0.668487 0)
(-0.055152 -0.674701 0)
(-0.0548965 -0.678297 0)
(-0.054665 -0.679657 0)
(-0.0544541 -0.679142 0)
(-0.0542617 -0.677098 0)
(-0.0540831 -0.673854 0)
(-0.0539235 -0.669729 0)
(-0.053783 -0.665023 0)
(-0.0646781 -0.344594 0)
(-0.0641115 -0.392703 0)
(-0.0636234 -0.438528 0)
(-0.0631053 -0.481282 0)
(-0.0625758 -0.520228 0)
(-0.0620472 -0.554837 0)
(-0.0615384 -0.584817 0)
(-0.0610571 -0.610108 0)
(-0.0606075 -0.630856 0)
(-0.0601905 -0.647351 0)
(-0.0598064 -0.659979 0)
(-0.0594534 -0.669159 0)
(-0.0591301 -0.675319 0)
(-0.0588337 -0.678865 0)
(-0.0585623 -0.680181 0)
(-0.0583124 -0.679628 0)
(-0.058082 -0.67755 0)
(-0.0578667 -0.674277 0)
(-0.0576714 -0.670125 0)
(-0.0574962 -0.665399 0)
(-0.0690757 -0.345458 0)
(-0.0685217 -0.393704 0)
(-0.0680054 -0.439614 0)
(-0.0674578 -0.482407 0)
(-0.0668923 -0.521356 0)
(-0.0663243 -0.555942 0)
(-0.0657745 -0.585879 0)
(-0.0652511 -0.611114 0)
(-0.0647591 -0.631799 0)
(-0.0642993 -0.64823 0)
(-0.0638726 -0.660794 0)
(-0.0634773 -0.669914 0)
(-0.0631125 -0.676017 0)
(-0.0627751 -0.679511 0)
(-0.0624636 -0.680781 0)
(-0.0621745 -0.680186 0)
(-0.061906 -0.678072 0)
(-0.0616536 -0.674766 0)
(-0.0614223 -0.670587 0)
(-0.0612116 -0.665836 0)
(-0.0734829 -0.346377 0)
(-0.0729473 -0.394759 0)
(-0.0723977 -0.440762 0)
(-0.0718178 -0.483602 0)
(-0.0712134 -0.522561 0)
(-0.0706043 -0.557126 0)
(-0.0700124 -0.587023 0)
(-0.0694463 -0.612204 0)
(-0.0689112 -0.632827 0)
(-0.0684084 -0.649193 0)
(-0.0679387 -0.661692 0)
(-0.0675007 -0.670749 0)
(-0.0670935 -0.676795 0)
(-0.0667145 -0.680235 0)
(-0.0663621 -0.681456 0)
(-0.0660331 -0.680817 0)
(-0.0657256 -0.678664 0)
(-0.0654352 -0.675324 0)
(-0.0651665 -0.671113 0)
(-0.0649186 -0.666336 0)
(-0.0778896 -0.347332 0)
(-0.0773556 -0.395863 0)
(-0.0767752 -0.44197 0)
(-0.0761653 -0.484864 0)
(-0.0755249 -0.523839 0)
(-0.0748767 -0.558389 0)
(-0.0742442 -0.588248 0)
(-0.0736364 -0.613376 0)
(-0.073059 -0.633939 0)
(-0.0725134 -0.650239 0)
(-0.0720009 -0.662673 0)
(-0.0715202 -0.671667 0)
(-0.0710709 -0.677652 0)
(-0.07065 -0.681037 0)
(-0.0702565 -0.682208 0)
(-0.0698872 -0.681523 0)
(-0.0695402 -0.679328 0)
(-0.0692115 -0.675951 0)
(-0.0689049 -0.671707 0)
(-0.0686192 -0.666902 0)
(-0.0822842 -0.348332 0)
(-0.081746 -0.397017 0)
(-0.0811373 -0.443235 0)
(-0.0804989 -0.486192 0)
(-0.0798242 -0.525187 0)
(-0.0791386 -0.559726 0)
(-0.0784668 -0.589551 0)
(-0.0778183 -0.614628 0)
(-0.0771992 -0.635131 0)
(-0.0766113 -0.651367 0)
(-0.0760561 -0.663735 0)
(-0.0755325 -0.672665 0)
(-0.0750401 -0.67859 0)
(-0.0745769 -0.681918 0)
(-0.0741415 -0.683036 0)
(-0.073731 -0.682302 0)
(-0.0733438 -0.680064 0)
(-0.0729757 -0.676648 0)
(-0.0726299 -0.672369 0)
(-0.0723047 -0.667533 0)
(-0.0866702 -0.34939 0)
(-0.0861113 -0.398224 0)
(-0.0854778 -0.444555 0)
(-0.0848134 -0.487578 0)
(-0.0841074 -0.5266 0)
(-0.083387 -0.561134 0)
(-0.0826777 -0.590928 0)
(-0.0819899 -0.615959 0)
(-0.0813298 -0.636403 0)
(-0.0806999 -0.652576 0)
(-0.080102 -0.66488 0)
(-0.0795354 -0.673745 0)
(-0.0790002 -0.679609 0)
(-0.078494 -0.682878 0)
(-0.0780163 -0.683942 0)
(-0.0775643 -0.683159 0)
(-0.0771361 -0.680875 0)
(-0.0767281 -0.677417 0)
(-0.0763426 -0.673102 0)
(-0.0759774 -0.668234 0)
(-0.0910696 -0.350495 0)
(-0.0904839 -0.399478 0)
(-0.0898194 -0.445923 0)
(-0.0891255 -0.489019 0)
(-0.0883858 -0.528075 0)
(-0.0876293 -0.562609 0)
(-0.0868815 -0.592379 0)
(-0.0861535 -0.617366 0)
(-0.0854518 -0.637755 0)
(-0.0847792 -0.653866 0)
(-0.0841377 -0.666106 0)
(-0.0835272 -0.674908 0)
(-0.0829477 -0.680709 0)
(-0.0823979 -0.68392 0)
(-0.0818768 -0.684928 0)
(-0.081382 -0.684092 0)
(-0.0809117 -0.681761 0)
(-0.0804625 -0.67826 0)
(-0.0800358 -0.673906 0)
(-0.0796286 -0.669004 0)
(-0.095443 -0.351645 0)
(-0.0948482 -0.400783 0)
(-0.0941575 -0.447348 0)
(-0.0934343 -0.490522 0)
(-0.0926608 -0.529618 0)
(-0.0918668 -0.564158 0)
(-0.0910793 -0.593907 0)
(-0.0903098 -0.618854 0)
(-0.0895652 -0.63919 0)
(-0.0888486 -0.655241 0)
(-0.0881623 -0.667418 0)
(-0.0875066 -0.676156 0)
(-0.0868821 -0.681895 0)
(-0.0862871 -0.685045 0)
(-0.0857214 -0.685996 0)
(-0.0851826 -0.685107 0)
(-0.084669 -0.682726 0)
(-0.0841773 -0.67918 0)
(-0.0837082 -0.674786 0)
(-0.0832583 -0.66985 0)
(-0.0998266 -0.352837 0)
(-0.099222 -0.40214 0)
(-0.0985008 -0.448833 0)
(-0.097745 -0.492092 0)
(-0.0969345 -0.531233 0)
(-0.0961009 -0.565783 0)
(-0.0952715 -0.595515 0)
(-0.0944587 -0.620425 0)
(-0.0936693 -0.640711 0)
(-0.0929071 -0.656704 0)
(-0.0921743 -0.668818 0)
(-0.091472 -0.677492 0)
(-0.0908003 -0.683168 0)
(-0.0901588 -0.686257 0)
(-0.0895467 -0.687149 0)
(-0.0889621 -0.686204 0)
(-0.0884033 -0.683772 0)
(-0.0878673 -0.680179 0)
(-0.0873538 -0.675744 0)
(-0.0868591 -0.670771 0)
(-0.104221 -0.354099 0)
(-0.103596 -0.403566 0)
(-0.102844 -0.450387 0)
(-0.102053 -0.493735 0)
(-0.101204 -0.532925 0)
(-0.10033 -0.56749 0)
(-0.0994569 -0.597208 0)
(-0.0985991 -0.622084 0)
(-0.0977632 -0.642322 0)
(-0.0969535 -0.658258 0)
(-0.0961726 -0.67031 0)
(-0.0954216 -0.678921 0)
(-0.0947014 -0.684533 0)
(-0.0940112 -0.68756 0)
(-0.093351 -0.688392 0)
(-0.0927188 -0.687391 0)
(-0.0921128 -0.684906 0)
(-0.0915308 -0.681264 0)
(-0.0909714 -0.676786 0)
(-0.0904309 -0.671776 0)
(-0.10863 -0.355415 0)
(-0.107971 -0.405051 0)
(-0.107185 -0.452007 0)
(-0.106358 -0.495449 0)
(-0.10547 -0.534693 0)
(-0.104553 -0.569279 0)
(-0.103636 -0.598989 0)
(-0.102731 -0.623834 0)
(-0.101847 -0.644026 0)
(-0.100988 -0.659907 0)
(-0.100157 -0.671898 0)
(-0.0993552 -0.680446 0)
(-0.0985839 -0.685995 0)
(-0.097843 -0.688959 0)
(-0.0971321 -0.68973 0)
(-0.0964501 -0.68867 0)
(-0.0957949 -0.686129 0)
(-0.0951647 -0.682438 0)
(-0.0945573 -0.677914 0)
(-0.0939686 -0.672864 0)
(-0.113042 -0.356792 0)
(-0.112353 -0.406602 0)
(-0.111533 -0.453698 0)
(-0.110668 -0.497241 0)
(-0.109738 -0.536547 0)
(-0.108776 -0.571158 0)
(-0.10781 -0.600863 0)
(-0.106857 -0.625682 0)
(-0.105921 -0.645831 0)
(-0.10501 -0.661658 0)
(-0.104126 -0.67359 0)
(-0.103271 -0.682075 0)
(-0.102446 -0.68756 0)
(-0.101652 -0.69046 0)
(-0.100888 -0.691169 0)
(-0.100153 -0.690049 0)
(-0.0994461 -0.687451 0)
(-0.098765 -0.683706 0)
(-0.0981074 -0.679136 0)
(-0.0974691 -0.674045 0)
(-0.117463 -0.358221 0)
(-0.116741 -0.408219 0)
(-0.115886 -0.455464 0)
(-0.11498 -0.499116 0)
(-0.114006 -0.53849 0)
(-0.112996 -0.573132 0)
(-0.11198 -0.602837 0)
(-0.110974 -0.627633 0)
(-0.109985 -0.647741 0)
(-0.109019 -0.663516 0)
(-0.108078 -0.675389 0)
(-0.107167 -0.683812 0)
(-0.106286 -0.689232 0)
(-0.105435 -0.692069 0)
(-0.104615 -0.692714 0)
(-0.103825 -0.691531 0)
(-0.103063 -0.688874 0)
(-0.102329 -0.685074 0)
(-0.101618 -0.680455 0)
(-0.100928 -0.67532 0)
(-0.121912 -0.359734 0)
(-0.121153 -0.409923 0)
(-0.120256 -0.457321 0)
(-0.119303 -0.501087 0)
(-0.118279 -0.540533 0)
(-0.117216 -0.57521 0)
(-0.116145 -0.604919 0)
(-0.115083 -0.629694 0)
(-0.114036 -0.649764 0)
(-0.113012 -0.665488 0)
(-0.112012 -0.677303 0)
(-0.111042 -0.685664 0)
(-0.110101 -0.69102 0)
(-0.10919 -0.693791 0)
(-0.108311 -0.694371 0)
(-0.107463 -0.693125 0)
(-0.106644 -0.690406 0)
(-0.105853 -0.686549 0)
(-0.105087 -0.681877 0)
(-0.104342 -0.676696 0)
(-0.126355 -0.36132 0)
(-0.125555 -0.411711 0)
(-0.124619 -0.459271 0)
(-0.12362 -0.503157 0)
(-0.122545 -0.542681 0)
(-0.121429 -0.577398 0)
(-0.120302 -0.607114 0)
(-0.119181 -0.631871 0)
(-0.118074 -0.651904 0)
(-0.116988 -0.66758 0)
(-0.115926 -0.679338 0)
(-0.114893 -0.687637 0)
(-0.113889 -0.692928 0)
(-0.112916 -0.695633 0)
(-0.111975 -0.696147 0)
(-0.111065 -0.694835 0)
(-0.110185 -0.692052 0)
(-0.109335 -0.688135 0)
(-0.10851 -0.683409 0)
(-0.107708 -0.678179 0)
(-0.130831 -0.362976 0)
(-0.129978 -0.413583 0)
(-0.128995 -0.461315 0)
(-0.127944 -0.505329 0)
(-0.126814 -0.544938 0)
(-0.125639 -0.5797 0)
(-0.124451 -0.609428 0)
(-0.123268 -0.63417 0)
(-0.122097 -0.654169 0)
(-0.120946 -0.669798 0)
(-0.119819 -0.6815 0)
(-0.118719 -0.689738 0)
(-0.117649 -0.694964 0)
(-0.11661 -0.697602 0)
(-0.115603 -0.698048 0)
(-0.114628 -0.696669 0)
(-0.113684 -0.69382 0)
(-0.112771 -0.68984 0)
(-0.111885 -0.685056 0)
(-0.111023 -0.679773 0)
(-0.135293 -0.364713 0)
(-0.134394 -0.415547 0)
(-0.133368 -0.46346 0)
(-0.132266 -0.507611 0)
(-0.13108 -0.547311 0)
(-0.129844 -0.582124 0)
(-0.128593 -0.611867 0)
(-0.127344 -0.636599 0)
(-0.126106 -0.656567 0)
(-0.124886 -0.672151 0)
(-0.123689 -0.683798 0)
(-0.122519 -0.691975 0)
(-0.121379 -0.697136 0)
(-0.12027 -0.699707 0)
(-0.119193 -0.700083 0)
(-0.11815 -0.698635 0)
(-0.117138 -0.695718 0)
(-0.116158 -0.691672 0)
(-0.115206 -0.686827 0)
(-0.114282 -0.681489 0)
(-0.139798 -0.366526 0)
(-0.13884 -0.417603 0)
(-0.137761 -0.46571 0)
(-0.136599 -0.510008 0)
(-0.135351 -0.549807 0)
(-0.134049 -0.584676 0)
(-0.132729 -0.614441 0)
(-0.13141 -0.639165 0)
(-0.1301 -0.659105 0)
(-0.128807 -0.674646 0)
(-0.127536 -0.686239 0)
(-0.126292 -0.694356 0)
(-0.125077 -0.699452 0)
(-0.123894 -0.701954 0)
(-0.122743 -0.70226 0)
(-0.121627 -0.700742 0)
(-0.120543 -0.697753 0)
(-0.119492 -0.69364 0)
(-0.118472 -0.68873 0)
(-0.117481 -0.683332 0)
(-0.144307 -0.368429 0)
(-0.143291 -0.419764 0)
(-0.14216 -0.468078 0)
(-0.140937 -0.512531 0)
(-0.139623 -0.552436 0)
(-0.138252 -0.587368 0)
(-0.136859 -0.617157 0)
(-0.135465 -0.641878 0)
(-0.134079 -0.661793 0)
(-0.132708 -0.677293 0)
(-0.131359 -0.688834 0)
(-0.130036 -0.696891 0)
(-0.128741 -0.701922 0)
(-0.127479 -0.704356 0)
(-0.12625 -0.70459 0)
(-0.125057 -0.702999 0)
(-0.123896 -0.699938 0)
(-0.122771 -0.695752 0)
(-0.121677 -0.690774 0)
(-0.120616 -0.685312 0)
(-0.14885 -0.370424 0)
(-0.147764 -0.422036 0)
(-0.146573 -0.470569 0)
(-0.145285 -0.515188 0)
(-0.1439 -0.555207 0)
(-0.142454 -0.590208 0)
(-0.140984 -0.620028 0)
(-0.13951 -0.644749 0)
(-0.138042 -0.664642 0)
(-0.136589 -0.680103 0)
(-0.135156 -0.691593 0)
(-0.133749 -0.699591 0)
(-0.132371 -0.704556 0)
(-0.131025 -0.706921 0)
(-0.129713 -0.707083 0)
(-0.128437 -0.705417 0)
(-0.127195 -0.70228 0)
(-0.12599 -0.69802 0)
(-0.124819 -0.69297 0)
(-0.123683 -0.687439 0)
(-0.15339 -0.372514 0)
(-0.152241 -0.424422 0)
(-0.150993 -0.473191 0)
(-0.149638 -0.517987 0)
(-0.148179 -0.558129 0)
(-0.146655 -0.593206 0)
(-0.145103 -0.623062 0)
(-0.143545 -0.647788 0)
(-0.141991 -0.667662 0)
(-0.14045 -0.683087 0)
(-0.138927 -0.694528 0)
(-0.137431 -0.702467 0)
(-0.135963 -0.707367 0)
(-0.134528 -0.709662 0)
(-0.133127 -0.70975 0)
(-0.131764 -0.708007 0)
(-0.130436 -0.704792 0)
(-0.129146 -0.700454 0)
(-0.127893 -0.695327 0)
(-0.126677 -0.689723 0)
(-0.157979 -0.37471 0)
(-0.156753 -0.426932 0)
(-0.155437 -0.475951 0)
(-0.154006 -0.520938 0)
(-0.152468 -0.561213 0)
(-0.150859 -0.596373 0)
(-0.149219 -0.626271 0)
(-0.147571 -0.651008 0)
(-0.145923 -0.670866 0)
(-0.144288 -0.686256 0)
(-0.142671 -0.69765 0)
(-0.141079 -0.705532 0)
(-0.139516 -0.710367 0)
(-0.137986 -0.71259 0)
(-0.136492 -0.712602 0)
(-0.135035 -0.71078 0)
(-0.133616 -0.707484 0)
(-0.132236 -0.703064 0)
(-0.130896 -0.697857 0)
(-0.129596 -0.692174 0)
(-0.162576 -0.377019 0)
(-0.161276 -0.429577 0)
(-0.159892 -0.478863 0)
(-0.158384 -0.524052 0)
(-0.156761 -0.56447 0)
(-0.155062 -0.599721 0)
(-0.153329 -0.629668 0)
(-0.151584 -0.654419 0)
(-0.149839 -0.674265 0)
(-0.148104 -0.689625 0)
(-0.146386 -0.700972 0)
(-0.144693 -0.708797 0)
(-0.143028 -0.713566 0)
(-0.141397 -0.715717 0)
(-0.139803 -0.715651 0)
(-0.138247 -0.713749 0)
(-0.136731 -0.710368 0)
(-0.135255 -0.705863 0)
(-0.133822 -0.70057 0)
(-0.132433 -0.694803 0)
(-0.167211 -0.379449 0)
(-0.165825 -0.432364 0)
(-0.164366 -0.481935 0)
(-0.162773 -0.527338 0)
(-0.16106 -0.56791 0)
(-0.159266 -0.60326 0)
(-0.157434 -0.633263 0)
(-0.155587 -0.658034 0)
(-0.153737 -0.677873 0)
(-0.151895 -0.693204 0)
(-0.15007 -0.704507 0)
(-0.148269 -0.712275 0)
(-0.146497 -0.716978 0)
(-0.144759 -0.719056 0)
(-0.143057 -0.718911 0)
(-0.141397 -0.716925 0)
(-0.139777 -0.713457 0)
(-0.1382 -0.708861 0)
(-0.136668 -0.703477 0)
(-0.135184 -0.69762 0)
(-0.171849 -0.382004 0)
(-0.170382 -0.4353 0)
(-0.168849 -0.485173 0)
(-0.16717 -0.530806 0)
(-0.165363 -0.571543 0)
(-0.163469 -0.607003 0)
(-0.161532 -0.637069 0)
(-0.159577 -0.661866 0)
(-0.157615 -0.681702 0)
(-0.155661 -0.697007 0)
(-0.153722 -0.708267 0)
(-0.151806 -0.71598 0)
(-0.149919 -0.720617 0)
(-0.148066 -0.722621 0)
(-0.146252 -0.722395 0)
(-0.144479 -0.720321 0)
(-0.142749 -0.716762 0)
(-0.141065 -0.712072 0)
(-0.139428 -0.706591 0)
(-0.137843 -0.700637 0)
(-0.176541 -0.384694 0)
(-0.17498 -0.438395 0)
(-0.173359 -0.488588 0)
(-0.171585 -0.534467 0)
(-0.169676 -0.575381 0)
(-0.167674 -0.610961 0)
(-0.165625 -0.641098 0)
(-0.163554 -0.665927 0)
(-0.161474 -0.685765 0)
(-0.1594 -0.701048 0)
(-0.157339 -0.712268 0)
(-0.155301 -0.719925 0)
(-0.153291 -0.724497 0)
(-0.151317 -0.726424 0)
(-0.149383 -0.726115 0)
(-0.147491 -0.723951 0)
(-0.145644 -0.720296 0)
(-0.143846 -0.715506 0)
(-0.142097 -0.709923 0)
(-0.140405 -0.703866 0)
(-0.181248 -0.387531 0)
(-0.179594 -0.441661 0)
(-0.177886 -0.492194 0)
(-0.176012 -0.538334 0)
(-0.173996 -0.579438 0)
(-0.17188 -0.615148 0)
(-0.169712 -0.645365 0)
(-0.167517 -0.670233 0)
(-0.165312 -0.690077 0)
(-0.163109 -0.705342 0)
(-0.160919 -0.716524 0)
(-0.158751 -0.724127 0)
(-0.156611 -0.728631 0)
(-0.154508 -0.730482 0)
(-0.152445 -0.730086 0)
(-0.150427 -0.727828 0)
(-0.148456 -0.724074 0)
(-0.146535 -0.719179 0)
(-0.144668 -0.713487 0)
(-0.142861 -0.70732 0)
(-0.186002 -0.390524 0)
(-0.184244 -0.445109 0)
(-0.182439 -0.496002 0)
(-0.180457 -0.542419 0)
(-0.178327 -0.583727 0)
(-0.176088 -0.619578 0)
(-0.173793 -0.649884 0)
(-0.171467 -0.674799 0)
(-0.169127 -0.694655 0)
(-0.166788 -0.709905 0)
(-0.16446 -0.72105 0)
(-0.162153 -0.7286 0)
(-0.159875 -0.733037 0)
(-0.157634 -0.734809 0)
(-0.155434 -0.734324 0)
(-0.153282 -0.731969 0)
(-0.151178 -0.728109 0)
(-0.149128 -0.723104 0)
(-0.147134 -0.717297 0)
(-0.145205 -0.711011 0)
(-0.190769 -0.393679 0)
(-0.188913 -0.448745 0)
(-0.18701 -0.500021 0)
(-0.184918 -0.546733 0)
(-0.182666 -0.588262 0)
(-0.180299 -0.624267 0)
(-0.177868 -0.654672 0)
(-0.175403 -0.679641 0)
(-0.17292 -0.699515 0)
(-0.170435 -0.714754 0)
(-0.167959 -0.725865 0)
(-0.165504 -0.733363 0)
(-0.163078 -0.737732 0)
(-0.160689 -0.739422 0)
(-0.158344 -0.738846 0)
(-0.156048 -0.736389 0)
(-0.153803 -0.73242 0)
(-0.151614 -0.727298 0)
(-0.149486 -0.721368 0)
(-0.147427 -0.714955 0)
(-0.195605 -0.397008 0)
(-0.193636 -0.452585 0)
(-0.191622 -0.504266 0)
(-0.189407 -0.551295 0)
(-0.187023 -0.593059 0)
(-0.184516 -0.629232 0)
(-0.18194 -0.659747 0)
(-0.179325 -0.684778 0)
(-0.176688 -0.704677 0)
(-0.174047 -0.719909 0)
(-0.171414 -0.730988 0)
(-0.1688 -0.738434 0)
(-0.166216 -0.742734 0)
(-0.163671 -0.744341 0)
(-0.16117 -0.743669 0)
(-0.15872 -0.741106 0)
(-0.156325 -0.737021 0)
(-0.153989 -0.731775 0)
(-0.151718 -0.725715 0)
(-0.14952 -0.719166 0)
(-0.200463 -0.400526 0)
(-0.198387 -0.456643 0)
(-0.196259 -0.508755 0)
(-0.193915 -0.55612 0)
(-0.191392 -0.598137 0)
(-0.188737 -0.634492 0)
(-0.186006 -0.665128 0)
(-0.18323 -0.690231 0)
(-0.180429 -0.71016 0)
(-0.177622 -0.72539 0)
(-0.174819 -0.73644 0)
(-0.172037 -0.743834 0)
(-0.169284 -0.748065 0)
(-0.16657 -0.749586 0)
(-0.163903 -0.748815 0)
(-0.16129 -0.74614 0)
(-0.158734 -0.741933 0)
(-0.156241 -0.736556 0)
(-0.153817 -0.730356 0)
(-0.151471 -0.723662 0)
(-0.205383 -0.404242 0)
(-0.203185 -0.460933 0)
(-0.20093 -0.513503 0)
(-0.198448 -0.561227 0)
(-0.195775 -0.603516 0)
(-0.192961 -0.640067 0)
(-0.190063 -0.670837 0)
(-0.187117 -0.69602 0)
(-0.184141 -0.715987 0)
(-0.181154 -0.731219 0)
(-0.178172 -0.742242 0)
(-0.175209 -0.749586 0)
(-0.172276 -0.753745 0)
(-0.169383 -0.755178 0)
(-0.166538 -0.754303 0)
(-0.16375 -0.751511 0)
(-0.161022 -0.747175 0)
(-0.158362 -0.741658 0)
(-0.155775 -0.73531 0)
(-0.153272 -0.72846 0)
(-0.210326 -0.40817 0)
(-0.20801 -0.465468 0)
(-0.205627 -0.518524 0)
(-0.203 -0.566632 0)
(-0.200168 -0.609213 0)
(-0.197185 -0.645978 0)
(-0.194111 -0.676895 0)
(-0.190982 -0.702169 0)
(-0.187818 -0.722181 0)
(-0.184642 -0.737419 0)
(-0.181467 -0.748419 0)
(-0.178311 -0.755712 0)
(-0.175184 -0.759799 0)
(-0.172099 -0.761141 0)
(-0.169065 -0.760157 0)
(-0.16609 -0.757242 0)
(-0.163179 -0.752768 0)
(-0.16034 -0.747103 0)
(-0.157579 -0.740596 0)
(-0.154908 -0.73358 0)
(-0.215343 -0.41232 0)
(-0.212893 -0.470262 0)
(-0.210366 -0.523837 0)
(-0.20758 -0.572354 0)
(-0.204578 -0.615251 0)
(-0.201413 -0.652248 0)
(-0.198149 -0.683326 0)
(-0.194824 -0.708702 0)
(-0.19146 -0.728766 0)
(-0.188079 -0.744017 0)
(-0.184699 -0.754995 0)
(-0.181336 -0.762239 0)
(-0.178003 -0.766252 0)
(-0.174713 -0.767499 0)
(-0.171476 -0.766402 0)
(-0.168301 -0.763355 0)
(-0.165195 -0.758737 0)
(-0.162164 -0.752914 0)
(-0.159218 -0.746237 0)
(-0.156367 -0.739041 0)
(-0.220403 -0.416715 0)
(-0.217818 -0.475339 0)
(-0.21514 -0.529463 0)
(-0.212187 -0.578419 0)
(-0.209002 -0.621653 0)
(-0.205642 -0.658901 0)
(-0.202176 -0.690156 0)
(-0.198641 -0.715646 0)
(-0.195062 -0.735771 0)
(-0.191463 -0.75104 0)
(-0.187862 -0.761999 0)
(-0.184278 -0.769194 0)
(-0.180724 -0.773131 0)
(-0.177214 -0.774279 0)
(-0.17376 -0.773063 0)
(-0.170372 -0.769879 0)
(-0.167056 -0.765107 0)
(-0.163821 -0.759115 0)
(-0.160676 -0.752257 0)
(-0.157633 -0.744868 0)
(-0.225532 -0.421367 0)
(-0.2228 -0.480716 0)
(-0.219957 -0.535425 0)
(-0.216824 -0.584849 0)
(-0.213442 -0.628446 0)
(-0.209875 -0.665965 0)
(-0.20619 -0.697413 0)
(-0.202431 -0.723029 0)
(-0.198621 -0.743225 0)
(-0.194788 -0.758517 0)
(-0.190951 -0.769461 0)
(-0.187129 -0.776607 0)
(-0.183339 -0.780467 0)
(-0.179594 -0.781512 0)
(-0.175907 -0.78017 0)
(-0.17229 -0.776841 0)
(-0.16875 -0.771904 0)
(-0.165297 -0.765732 0)
(-0.161939 -0.758679 0)
(-0.158691 -0.751083 0)
(-0.23071 -0.426295 0)
(-0.227829 -0.486411 0)
(-0.224815 -0.541745 0)
(-0.22149 -0.591669 0)
(-0.217899 -0.635657 0)
(-0.214109 -0.673471 0)
(-0.210191 -0.705129 0)
(-0.20619 -0.730885 0)
(-0.202134 -0.751161 0)
(-0.19805 -0.766483 0)
(-0.193959 -0.777415 0)
(-0.189883 -0.784512 0)
(-0.185837 -0.788292 0)
(-0.18184 -0.78923 0)
(-0.177904 -0.787755 0)
(-0.174042 -0.784271 0)
(-0.170262 -0.77916 0)
(-0.166574 -0.772795 0)
(-0.162989 -0.765533 0)
(-0.159521 -0.757715 0)
(-0.235979 -0.431519 0)
(-0.232933 -0.492449 0)
(-0.229729 -0.548449 0)
(-0.226195 -0.598909 0)
(-0.222378 -0.643318 0)
(-0.218347 -0.681449 0)
(-0.214178 -0.713337 0)
(-0.209917 -0.739247 0)
(-0.205595 -0.759614 0)
(-0.201241 -0.774972 0)
(-0.196878 -0.785895 0)
(-0.192528 -0.792943 0)
(-0.188211 -0.796642 0)
(-0.183943 -0.797466 0)
(-0.179739 -0.795852 0)
(-0.175614 -0.792204 0)
(-0.171576 -0.786906 0)
(-0.167637 -0.780334 0)
(-0.163809 -0.772849 0)
(-0.160107 -0.76479 0)
(-0.241313 -0.43706 0)
(-0.238096 -0.498857 0)
(-0.234691 -0.555567 0)
(-0.230935 -0.606602 0)
(-0.226875 -0.651462 0)
(-0.222585 -0.689937 0)
(-0.218147 -0.722075 0)
(-0.213608 -0.748155 0)
(-0.209 -0.768622 0)
(-0.204356 -0.784024 0)
(-0.199699 -0.794941 0)
(-0.195056 -0.801942 0)
(-0.190445 -0.805555 0)
(-0.185886 -0.806261 0)
(-0.181395 -0.804499 0)
(-0.176987 -0.800675 0)
(-0.172673 -0.795178 0)
(-0.168465 -0.788385 0)
(-0.164376 -0.780658 0)
(-0.160422 -0.772341 0)
(-0.246736 -0.442942 0)
(-0.243332 -0.505662 0)
(-0.239709 -0.56313 0)
(-0.235713 -0.61478 0)
(-0.231391 -0.660125 0)
(-0.226824 -0.698972 0)
(-0.222095 -0.731382 0)
(-0.217256 -0.757648 0)
(-0.212341 -0.778228 0)
(-0.207385 -0.793681 0)
(-0.202414 -0.804596 0)
(-0.197454 -0.811548 0)
(-0.192528 -0.815073 0)
(-0.187657 -0.815655 0)
(-0.182857 -0.813735 0)
(-0.178146 -0.809724 0)
(-0.173535 -0.804014 0)
(-0.169039 -0.796983 0)
(-0.164669 -0.788996 0)
(-0.160446 -0.7804 0)
(-0.252228 -0.449189 0)
(-0.248632 -0.512891 0)
(-0.244778 -0.571169 0)
(-0.240525 -0.623478 0)
(-0.235924 -0.669346 0)
(-0.231059 -0.708594 0)
(-0.226018 -0.7413 0)
(-0.220857 -0.76777 0)
(-0.215612 -0.788477 0)
(-0.21032 -0.803989 0)
(-0.205009 -0.814905 0)
(-0.19971 -0.821809 0)
(-0.194445 -0.825241 0)
(-0.189237 -0.825692 0)
(-0.184105 -0.823605 0)
(-0.179067 -0.819395 0)
(-0.174138 -0.813455 0)
(-0.169331 -0.806168 0)
(-0.164661 -0.7979 0)
(-0.160148 -0.789003 0)
(-0.25783 -0.455828 0)
(-0.254018 -0.520575 0)
(-0.249912 -0.57972 0)
(-0.245381 -0.632736 0)
(-0.240477 -0.679167 0)
(-0.23529 -0.718849 0)
(-0.229914 -0.751876 0)
(-0.224405 -0.77857 0)
(-0.218804 -0.799417 0)
(-0.213151 -0.814997 0)
(-0.207475 -0.825919 0)
(-0.20181 -0.832774 0)
(-0.196179 -0.83611 0)
(-0.190609 -0.836422 0)
(-0.185119 -0.834157 0)
(-0.179731 -0.829733 0)
(-0.174459 -0.823547 0)
(-0.169318 -0.815983 0)
(-0.164326 -0.807414 0)
(-0.159502 -0.798191 0)
(-0.263521 -0.462891 0)
(-0.259482 -0.528753 0)
(-0.255106 -0.588824 0)
(-0.250277 -0.642598 0)
(-0.245048 -0.689634 0)
(-0.239515 -0.729785 0)
(-0.233777 -0.763161 0)
(-0.227894 -0.790099 0)
(-0.22191 -0.811101 0)
(-0.215866 -0.826758 0)
(-0.209797 -0.837691 0)
(-0.203737 -0.844498 0)
(-0.197712 -0.847734 0)
(-0.191752 -0.847897 0)
(-0.185877 -0.845443 0)
(-0.18011 -0.840789 0)
(-0.174468 -0.834338 0)
(-0.168969 -0.826477 0)
(-0.16363 -0.817581 0)
(-0.158472 -0.808004 0)
(-0.269328 -0.470411 0)
(-0.26504 -0.537462 0)
(-0.260371 -0.598523 0)
(-0.25522 -0.65311 0)
(-0.249639 -0.700797 0)
(-0.243732 -0.741454 0)
(-0.237604 -0.77521 0)
(-0.231317 -0.802416 0)
(-0.224919 -0.823589 0)
(-0.218454 -0.839334 0)
(-0.211961 -0.850281 0)
(-0.205474 -0.85704 0)
(-0.199025 -0.86017 0)
(-0.192643 -0.860177 0)
(-0.186352 -0.857519 0)
(-0.180178 -0.85262 0)
(-0.174138 -0.845883 0)
(-0.168252 -0.837701 0)
(-0.16254 -0.82845 0)
(-0.157023 -0.818491 0)
(-0.275238 -0.478421 0)
(-0.270685 -0.54674 0)
(-0.265705 -0.608862 0)
(-0.260207 -0.664322 0)
(-0.254248 -0.71271 0)
(-0.247939 -0.753915 0)
(-0.241389 -0.788082 0)
(-0.234666 -0.815581 0)
(-0.227821 -0.836943 0)
(-0.220902 -0.852787 0)
(-0.213949 -0.863755 0)
(-0.207002 -0.870465 0)
(-0.200093 -0.873484 0)
(-0.193256 -0.873325 0)
(-0.186517 -0.870449 0)
(-0.179902 -0.865285 0)
(-0.173433 -0.85824 0)
(-0.16713 -0.84971 0)
(-0.161015 -0.840075 0)
(-0.155112 -0.829701 0)
(-0.281291 -0.486961 0)
(-0.276446 -0.556636 0)
(-0.271123 -0.619894 0)
(-0.265248 -0.676291 0)
(-0.258879 -0.725435 0)
(-0.252134 -0.767231 0)
(-0.245127 -0.801846 0)
(-0.237932 -0.829664 0)
(-0.230604 -0.851234 0)
(-0.223193 -0.867189 0)
(-0.215743 -0.878184 0)
(-0.208298 -0.884844 0)
(-0.200893 -0.887747 0)
(-0.193563 -0.88741 0)
(-0.186339 -0.884301 0)
(-0.179248 -0.878851 0)
(-0.172315 -0.871473 0)
(-0.165563 -0.862566 0)
(-0.159014 -0.852515 0)
(-0.152695 -0.841689 0)
(-0.287468 -0.496076 0)
(-0.28231 -0.5672 0)
(-0.276621 -0.631675 0)
(-0.270339 -0.689079 0)
(-0.263527 -0.739036 0)
(-0.256311 -0.781472 0)
(-0.248811 -0.816572 0)
(-0.241106 -0.84474 0)
(-0.233254 -0.866539 0)
(-0.22531 -0.882619 0)
(-0.217322 -0.893645 0)
(-0.209337 -0.900256 0)