/*--------------------------------*- C++ -*----------------------------------*\
  =========                 |
  \\      /  F ield         | OpenFOAM: The Open Source CFD Toolbox
   \\    /   O peration     | Website:  https://openfoam.org
    \\  /    A nd           | Version:  6
     \\/     M anipulation  |
\*---------------------------------------------------------------------------*/
FoamFile
{
    version     2.0;
    format      ascii;
    class       volScalarField;
    location    "24";
    object      k;
}
// * * * * * * * * * * * * * * * * * * * * * * * * * * * * * * * * * * * * * //

dimensions      [0 2 -2 0 0 0 0];

internalField   nonuniform List<scalar> 
10000
(
0.207707
0.527305
0.481923
0.42273
0.372962
0.338585
0.318208
0.307102
0.301711
0.299866
0.301014
0.304873
0.312285
0.324751
0.345444
0.378327
0.425192
0.481926
0.524881
0.206953
0.207524
0.527203
0.481252
0.422934
0.373297
0.339246
0.319636
0.309004
0.303058
0.300549
0.30163
0.305536
0.313976
0.326175
0.346121
0.378424
0.424535
0.481254
0.52451
0.206805
0.20744
0.527284
0.482199
0.423299
0.373563
0.339399
0.319503
0.308738
0.303772
0.301005
0.301938
0.306555
0.313491
0.325595
0.345769
0.378449
0.42488
0.482057
0.524367
0.206672
0.207126
0.527187
0.482601
0.42327
0.373605
0.339677
0.319593
0.30847
0.303853
0.302297
0.303066
0.305538
0.312712
0.325114
0.345682
0.378439
0.425196
0.482256
0.524646
0.206954
0.207192
0.52699
0.482257
0.423043
0.373704
0.339929
0.320107
0.308654
0.303144
0.301164
0.301787
0.305325
0.312829
0.325299
0.345805
0.378461
0.425847
0.482325
0.524872
0.207034
0.207196
0.526812
0.48201
0.422699
0.373581
0.339979
0.320322
0.310009
0.303662
0.30149
0.302164
0.305662
0.314109
0.326482
0.346179
0.378642
0.42595
0.48235
0.525187
0.207182
0.207389
0.526166
0.48105
0.422592
0.373427
0.340212
0.320405
0.309371
0.305324
0.303282
0.302827
0.305783
0.312779
0.325757
0.34566
0.37819
0.42575
0.482091
0.525393
0.207054
0.20744
0.526425
0.481356
0.422125
0.37327
0.340387
0.320751
0.310439
0.305271
0.302582
0.304196
0.30624
0.312772
0.325099
0.345464
0.378215
0.425642
0.481868
0.525466
0.207275
0.207457
0.526709
0.480682
0.421823
0.373693
0.340631
0.320682
0.31014
0.305434
0.302557
0.303536
0.30723
0.312747
0.325669
0.34586
0.37796
0.425566
0.48322
0.525699
0.20726
0.207475
0.526975
0.481659
0.422224
0.374271
0.340801
0.320387
0.309638
0.305352
0.30268
0.304559
0.306296
0.312577
0.32462
0.345298
0.377945
0.424594
0.483239
0.525441
0.207327
0.207728
0.527197
0.481829
0.423
0.374411
0.341092
0.320596
0.309813
0.305442
0.302662
0.303054
0.306108
0.312614
0.324829
0.345489
0.378212
0.425189
0.483253
0.525683
0.20751
0.208144
0.527543
0.482881
0.422723
0.374307
0.341344
0.32148
0.31097
0.304808
0.302801
0.303357
0.306503
0.31296
0.325865
0.345754
0.378252
0.424541
0.483109
0.52601
0.207735
0.20817
0.527324
0.483014
0.423974
0.373982
0.341423
0.320835
0.310339
0.305081
0.304356
0.30497
0.306962
0.313163
0.325694
0.346117
0.378739
0.425517
0.4825
0.526153
0.207808
0.208209
0.527661
0.48301
0.424036
0.374906
0.341512
0.320828
0.311306
0.306293
0.303057
0.303714
0.308098
0.313557
0.325578
0.345975
0.378811
0.426022
0.482606
0.526089
0.207741
0.207977
0.527498
0.483294
0.424182
0.375087
0.341184
0.320698
0.310611
0.305427
0.30285
0.303365
0.307159
0.313614
0.326112
0.346154
0.37874
0.425809
0.482486
0.526136
0.20777
0.208125
0.527143
0.48237
0.423655
0.374903
0.341202
0.320657
0.309542
0.304342
0.303917
0.303611
0.307132
0.314478
0.325837
0.346035
0.378703
0.425292
0.48292
0.52629
0.20771
0.208003
0.527414
0.482766
0.423327
0.37495
0.34171
0.32093
0.30957
0.304021
0.302374
0.303576
0.308008
0.313602
0.326348
0.346342
0.37864
0.425999
0.482334
0.526098
0.207582
0.208229
0.527433
0.482474
0.4232
0.374605
0.341624
0.321181
0.310091
0.30454
0.302427
0.303208
0.30636
0.313208
0.325503
0.345943
0.3784
0.425656
0.482695
0.525968
0.207504
0.208385
0.527785
0.483156
0.424007
0.374765
0.341574
0.322167
0.311814
0.306493
0.304051
0.304785
0.306563
0.313395
0.326302
0.345673
0.378037
0.424759
0.482124
0.525814
0.207369
0.20804
0.527391
0.482137
0.422978
0.374496
0.341079
0.321559
0.311283
0.305459
0.302311
0.303291
0.306107
0.3132
0.325469
0.345502
0.377918
0.42453
0.481785
0.525724
0.207286
0.207881
0.527173
0.481976
0.42264
0.37417
0.34083
0.321984
0.310883
0.304357
0.302105
0.304228
0.306094
0.313443
0.32624
0.345562
0.377548
0.424107
0.48101
0.525445
0.207091
0.207628
0.52659
0.481493
0.422275
0.373857
0.340447
0.320665
0.309806
0.30412
0.30168
0.301878
0.305417
0.313944
0.325333
0.345531
0.377166
0.423295
0.480311
0.525319
0.20694
0.207391
0.526264
0.480305
0.421955
0.373561
0.340236
0.319963
0.31071
0.30452
0.30188
0.301874
0.305061
0.312075
0.325313
0.344694
0.376593
0.422894
0.479795
0.524859
0.206764
0.207251
0.525762
0.479795
0.421033
0.373302
0.340575
0.319651
0.308874
0.305244
0.303045
0.301912
0.304934
0.311682
0.324994
0.344329
0.376036
0.421959
0.479054
0.524526
0.206603
0.207106
0.525502
0.478958
0.420549
0.372926
0.339977
0.319469
0.308404
0.303019
0.301181
0.301497
0.304528
0.311048
0.323723
0.343477
0.375238
0.420814
0.478242
0.524151
0.206422
0.206909
0.525151
0.478561
0.419795
0.372547
0.340357
0.319316
0.308338
0.303084
0.301278
0.301466
0.304446
0.310753
0.323131
0.342646
0.374584
0.419987
0.477373
0.523485
0.206072
0.20669
0.524772
0.478011
0.419362
0.372116
0.339501
0.319227
0.308515
0.303259
0.301318
0.301413
0.304174
0.310238
0.321757
0.341791
0.373872
0.419178
0.476735
0.523154
0.205794
0.206531
0.524547
0.477515
0.418756
0.371728
0.338849
0.319226
0.308583
0.303402
0.301648
0.301529
0.304228
0.310121
0.321567
0.341583
0.373033
0.418178
0.475869
0.522897
0.205538
0.206259
0.524196
0.476834
0.418275
0.371382
0.338736
0.319329
0.309013
0.304813
0.303138
0.301729
0.30426
0.309867
0.321325
0.341814
0.372257
0.417224
0.475095
0.522508
0.205214
0.205993
0.523844
0.476366
0.417762
0.37097
0.338629
0.319208
0.308428
0.303343
0.301449
0.301821
0.304753
0.309974
0.321865
0.340639
0.37156
0.416616
0.474469
0.522103
0.204862
0.205639
0.523353
0.475484
0.416909
0.370562
0.338669
0.31932
0.308404
0.304522
0.302926
0.303358
0.306606
0.309981
0.320851
0.339593
0.370843
0.415797
0.473688
0.52161
0.204564
0.20522
0.522621
0.474551
0.416008
0.369955
0.338971
0.319919
0.30823
0.302986
0.30113
0.301508
0.305067
0.309666
0.321636
0.339535
0.370291
0.415004
0.472997
0.521142
0.204202
0.20503
0.522195
0.473579
0.414794
0.369155
0.338117
0.318352
0.308071
0.303186
0.301178
0.301452
0.303766
0.309147
0.32032
0.339408
0.369633
0.414286
0.472191
0.520508
0.203785
0.204715
0.521676
0.472833
0.414117
0.368648
0.337605
0.318333
0.308456
0.304866
0.302879
0.302147
0.304992
0.309187
0.320632
0.338165
0.368922
0.41351
0.471324
0.520175
0.203545
0.204486
0.521378
0.472092
0.413404
0.368065
0.336782
0.318312
0.308848
0.303671
0.301699
0.302871
0.303819
0.30866
0.318878
0.3371
0.368166
0.412741
0.470468
0.519934
0.203373
0.204135
0.520914
0.471131
0.412603
0.367721
0.337051
0.318624
0.308875
0.303999
0.301991
0.301939
0.303846
0.30899
0.319821
0.336948
0.367645
0.411852
0.469619
0.519884
0.203256
0.203777
0.520392
0.470358
0.411981
0.367122
0.336436
0.319133
0.310671
0.30501
0.303002
0.302758
0.30445
0.309337
0.318957
0.336572
0.366905
0.410972
0.468859
0.519454
0.202992
0.203407
0.519744
0.469282
0.411039
0.36662
0.336426
0.320272
0.311019
0.305728
0.303969
0.304747
0.305266
0.309837
0.319947
0.336639
0.366419
0.410132
0.468063
0.519122
0.202743
0.202903
0.519006
0.4683
0.410215
0.366082
0.336341
0.320393
0.311887
0.307918
0.306235
0.304472
0.305984
0.3112
0.319256
0.336683
0.365706
0.409275
0.467303
0.518355
0.202294
0.202557
0.518457
0.467318
0.409232
0.365499
0.33627
0.320764
0.312571
0.308604
0.306947
0.306261
0.306727
0.31126
0.319214
0.335686
0.364982
0.408228
0.466257
0.517669
0.201837
0.20219
0.517946
0.466477
0.408304
0.364777
0.336089
0.320607
0.312788
0.309261
0.30779
0.306898
0.308575
0.311414
0.320204
0.335725
0.364361
0.407238
0.465282
0.517018
0.201491
0.201956
0.517527
0.465559
0.407283
0.364151
0.336168
0.321209
0.313876
0.311295
0.309441
0.308884
0.309674
0.311832
0.319599
0.335849
0.363515
0.406019
0.464176
0.516418
0.201132
0.20177
0.517199
0.464626
0.406287
0.363538
0.336285
0.322934
0.315784
0.312624
0.310744
0.30993
0.310379
0.312637
0.319893
0.334995
0.362672
0.404938
0.463063
0.515802
0.200831
0.201373
0.516518
0.463418
0.405161
0.36298
0.336343
0.323312
0.316755
0.313688
0.312118
0.311495
0.311782
0.314547
0.321585
0.33559
0.362065
0.403854
0.461925
0.515082
0.200424
0.201038
0.51599
0.462284
0.404002
0.362309
0.336393
0.323997
0.317892
0.314931
0.313312
0.312643
0.312988
0.315239
0.321665
0.334795
0.361231
0.402862
0.460904
0.514685
0.20021
0.200502
0.515203
0.461044
0.40292
0.361806
0.336498
0.324624
0.318765
0.316045
0.314561
0.313852
0.314182
0.316512
0.321908
0.334922
0.360746
0.40197
0.459847
0.514113
0.199825
0.20002
0.51449
0.459652
0.401756
0.361137
0.336604
0.325397
0.319876
0.317235
0.315818
0.315141
0.315381
0.317499
0.322926
0.335698
0.360137
0.400902
0.458871
0.513654
0.199601
0.199453
0.513559
0.458333
0.400646
0.360525
0.336767
0.326226
0.320956
0.318392
0.317093
0.316575
0.316951
0.318813
0.323576
0.335356
0.359394
0.399915
0.457814
0.513154
0.199379
0.199031
0.512751
0.456931
0.399403
0.359661
0.336813
0.327016
0.322065
0.319613
0.318422
0.317953
0.318251
0.31996
0.324731
0.335216
0.358545
0.398742
0.456653
0.512581
0.199103
0.198752
0.512253
0.455814
0.39845
0.359064
0.336957
0.327871
0.323078
0.320793
0.319791
0.319467
0.31978
0.321302
0.325643
0.335735
0.357859
0.397701
0.455548
0.512058
0.198868
0.198296
0.511427
0.454416
0.397297
0.358512
0.336935
0.32852
0.324156
0.322031
0.321093
0.320824
0.321206
0.322711
0.326637
0.335835
0.35715
0.396507
0.454321
0.511524
0.198526
0.197971
0.51074
0.453116
0.396248
0.358549
0.336948
0.32907
0.32518
0.323311
0.32251
0.32226
0.322505
0.323702
0.327077
0.335079
0.356772
0.395333
0.452899
0.510901
0.198168
0.19759
0.509978
0.451682
0.394882
0.357838
0.336602
0.329043
0.326077
0.32459
0.32387
0.32359
0.323749
0.324747
0.327712
0.334839
0.355983
0.393933
0.451424
0.510111
0.197738
0.197197
0.50922
0.450272
0.393492
0.356804
0.336279
0.328046
0.326816
0.325864
0.325328
0.325052
0.325067
0.325753
0.328186
0.334572
0.354573
0.392412
0.449805
0.509186
0.19729
0.196756
0.508378
0.448598
0.391807
0.355465
0.336488
0.32823
0.32748
0.326932
0.326616
0.326377
0.326253
0.326632
0.328568
0.334273
0.353624
0.391009
0.448246
0.508328
0.196861
0.196401
0.50767
0.447028
0.390147
0.353807
0.3347
0.328731
0.327867
0.327859
0.327805
0.327577
0.327292
0.327342
0.328763
0.334071
0.353379
0.38962
0.446625
0.507494
0.196405
0.195985
0.506854
0.445415
0.388492
0.352254
0.333686
0.326816
0.327291
0.328413
0.328744
0.328589
0.328156
0.327794
0.328302
0.333562
0.352395
0.387838
0.444694
0.506439
0.195807
0.195618
0.506097
0.443743
0.386838
0.351061
0.334608
0.326754
0.326224
0.328779
0.329587
0.32954
0.328945
0.328092
0.327112
0.332237
0.350952
0.386068
0.442807
0.505473
0.195265
0.195094
0.505229
0.44186
0.385
0.349765
0.333633
0.32686
0.327272
0.32929
0.330313
0.330303
0.329515
0.328313
0.327762
0.331628
0.349877
0.384223
0.440814
0.504488
0.194696
0.194507
0.504192
0.439626
0.382901
0.348704
0.332753
0.326605
0.325365
0.328698
0.33068
0.330865
0.329827
0.327625
0.325632
0.330549
0.348317
0.382013
0.438467
0.503227
0.193932
0.193783
0.502997
0.43721
0.380474
0.347221
0.331403
0.325594
0.325109
0.327725
0.330954
0.33135
0.330062
0.32652
0.325122
0.329885
0.347251
0.379754
0.435875
0.501712
0.193048
0.192846
0.501359
0.434307
0.377633
0.344558
0.329864
0.324351
0.325101
0.329057
0.331373
0.331632
0.330361
0.327656
0.324722
0.329117
0.345347
0.376994
0.432956
0.499945
0.19204
0.191892
0.499638
0.431269
0.374805
0.342398
0.328039
0.324768
0.325955
0.327372
0.330512
0.331006
0.329531
0.325936
0.32409
0.327856
0.343093
0.374139
0.429963
0.498135
0.191019
0.19067
0.497553
0.427805
0.371684
0.340056
0.325897
0.322957
0.324152
0.327088
0.329088
0.329359
0.328071
0.32605
0.323765
0.327682
0.341035
0.371082
0.426491
0.495897
0.189715
0.189355
0.495359
0.423978
0.36836
0.338245
0.325787
0.324185
0.324096
0.328704
0.331336
0.329661
0.328399
0.327579
0.323141
0.324504
0.33807
0.367821
0.422993
0.493862
0.188557
0.187846
0.492994
0.419853
0.3648
0.338286
0.325784
0.322728
0.323399
0.326104
0.329535
0.330551
0.329531
0.326809
0.322804
0.323599
0.335268
0.364493
0.419057
0.491313
0.187029
0.185969
0.490089
0.41529
0.360478
0.334539
0.326098
0.324039
0.323459
0.325661
0.327639
0.328
0.326674
0.324695
0.322457
0.322921
0.332471
0.361038
0.415025
0.488864
0.185539
0.183906
0.486825
0.410568
0.356651
0.332084
0.323617
0.323014
0.323739
0.326308
0.328454
0.329875
0.327278
0.325373
0.324305
0.324196
0.332039
0.35782
0.410546
0.485753
0.183519
0.181512
0.483092
0.405713
0.352959
0.329633
0.321949
0.322589
0.32423
0.327033
0.330153
0.328968
0.327594
0.326727
0.323395
0.322312
0.332006
0.354103
0.405922
0.482736
0.181533
0.178754
0.478786
0.400403
0.349504
0.328016
0.321124
0.322898
0.327061
0.329701
0.329847
0.329453
0.327907
0.325355
0.322516
0.321959
0.329257
0.350313
0.40092
0.478835
0.178848
0.1756
0.473878
0.394587
0.346016
0.326905
0.322889
0.325404
0.329255
0.331662
0.333131
0.333097
0.331554
0.328692
0.325255
0.323325
0.327841
0.346901
0.395682
0.474564
0.175968
0.172028
0.468192
0.388087
0.34199
0.325274
0.323294
0.327015
0.331087
0.333978
0.334861
0.334559
0.332857
0.329829
0.32593
0.322492
0.326169
0.343379
0.389798
0.46916
0.172332
0.168103
0.461801
0.381403
0.338073
0.323914
0.324708
0.328793
0.333154
0.336154
0.337625
0.337207
0.335387
0.332247
0.328095
0.324505
0.325494
0.340003
0.383537
0.463279
0.168577
0.163992
0.454805
0.374823
0.334907
0.323291
0.325855
0.330952
0.335351
0.338305
0.339524
0.339312
0.337656
0.334566
0.330204
0.32541
0.324523
0.336488
0.376839
0.456339
0.164292
0.159787
0.447305
0.368333
0.332309
0.323848
0.327789
0.332949
0.337337
0.34034
0.341773
0.341568
0.339945
0.336951
0.332701
0.327648
0.324371
0.333589
0.370327
0.448902
0.160083
0.155751
0.439564
0.362329
0.330085
0.325217
0.329276
0.334799
0.339221
0.342128
0.343443
0.343367
0.341895
0.338957
0.334595
0.329421
0.325619
0.331604
0.364134
0.440925
0.155899
0.152092
0.431832
0.357066
0.328686
0.325842
0.331003
0.336626
0.340939
0.343702
0.345027
0.345038
0.343734
0.340996
0.336734
0.331236
0.326559
0.329711
0.358268
0.432811
0.152152
0.149016
0.424245
0.352577
0.328299
0.327361
0.332824
0.338315
0.342423
0.344998
0.346193
0.346301
0.345257
0.342799
0.338774
0.333355
0.328071
0.329019
0.353398
0.42477
0.148985
0.146759
0.416991
0.348991
0.328516
0.329422
0.334921
0.34012
0.34393
0.346173
0.346674
0.34682
0.346464
0.344414
0.34073
0.335526
0.329897
0.328924
0.349343
0.417119
0.146703
0.145459
0.409653
0.345841
0.328818
0.330786
0.336539
0.3417
0.345405
0.34765
0.348621
0.348734
0.347949
0.346003
0.342495
0.337404
0.331538
0.32938
0.346126
0.409573
0.145112
0.145246
0.402415
0.343472
0.329867
0.332893
0.338617
0.343503
0.346987
0.349162
0.350246
0.350378
0.349544
0.347575
0.344237
0.339429
0.333671
0.33045
0.34366
0.402407
0.143994
0.14317
0.394741
0.341201
0.330943
0.334773
0.340507
0.345218
0.348537
0.350599
0.35159
0.351698
0.350914
0.349035
0.345834
0.341151
0.335325
0.331264
0.341211
0.394776
0.143454
0.142999
0.38685
0.339055
0.331997
0.336725
0.34249
0.347007
0.350145
0.352108
0.353064
0.35317
0.35237
0.350559
0.347531
0.343047
0.337216
0.332284
0.338963
0.38677
0.142437
0.141863
0.378373
0.336985
0.33326
0.338855
0.344617
0.348893
0.351774
0.353546
0.354414
0.354468
0.353716
0.352051
0.349249
0.344992
0.33918
0.333403
0.336757
0.378226
0.142339
0.142581
0.369445
0.33505
0.334877
0.3413
0.346977
0.350968
0.353571
0.35513
0.355868
0.355896
0.35522
0.353724
0.351176
0.347206
0.341512
0.334997
0.334956
0.369185
0.14234
0.144432
0.360073
0.333977
0.336926
0.344014
0.349493
0.35314
0.355432
0.356768
0.357388
0.357401
0.356813
0.355505
0.353242
0.349604
0.344115
0.336985
0.33397
0.360067
0.144406
0.146997
0.351327
0.33367
0.339628
0.347088
0.35224
0.355469
0.357413
0.358508
0.359003
0.359006
0.358522
0.357437
0.355515
0.352303
0.347165
0.339706
0.333681
0.351263
0.146905
0.151782
0.343405
0.334784
0.343132
0.350577
0.355204
0.357917
0.359467
0.360304
0.360671
0.360669
0.360304
0.359468
0.35792
0.355206
0.350573
0.343133
0.334793
0.343459
0.151792
0.158153
0.33716
0.337146
0.34731
0.354357
0.358286
0.360408
0.361536
0.362106
0.362343
0.36234
0.362099
0.361529
0.360405
0.358293
0.354373
0.347327
0.337112
0.337045
0.158048
0.166872
0.333485
0.341217
0.352272
0.358412
0.36143
0.362868
0.363533
0.363821
0.363925
0.363924
0.363817
0.363529
0.362863
0.361429
0.358408
0.352263
0.341218
0.333457
0.166922
0.177709
0.332041
0.34668
0.357586
0.362525
0.364508
0.36521
0.36539
0.365389
0.365358
0.365359
0.365387
0.365391
0.36521
0.364515
0.362541
0.357614
0.346729
0.33203
0.177688
0.191063
0.332527
0.353783
0.363456
0.366702
0.367466
0.367372
0.367054
0.366763
0.366598
0.366597
0.366758
0.367048
0.367362
0.367454
0.366689
0.363439
0.353787
0.332563
0.191094
0.207208
0.338841
0.362581
0.369512
0.370678
0.37015
0.369273
0.368491
0.367941
0.36766
0.367658
0.367936
0.368484
0.369264
0.370143
0.370682
0.369537
0.362639
0.338895
0.20722
0.225386
0.348414
0.372453
0.37554
0.374325
0.372459
0.370848
0.369669
0.368913
0.368544
0.368542
0.368906
0.369658
0.370835
0.372442
0.374312
0.375534
0.372457
0.348409
0.225305
0.24604
0.364069
0.383631
0.381314
0.377417
0.374258
0.372038
0.370586
0.369712
0.3693
0.369299
0.369707
0.370578
0.372028
0.374249
0.37742
0.381341
0.383693
0.364138
0.246101
0.268063
0.384571
0.395042
0.386058
0.379357
0.375303
0.372807
0.371285
0.370412
0.370013
0.370012
0.370408
0.371279
0.372797
0.375292
0.379349
0.386056
0.395053
0.384538
0.26796
0.291315
0.410477
0.404794
0.388372
0.380082
0.375734
0.373301
0.371895
0.37113
0.370795
0.370795
0.37113
0.371893
0.373295
0.375729
0.380078
0.388377
0.404812
0.410488
0.291329
0.31436
0.434608
0.409022
0.388862
0.380077
0.375798
0.373623
0.372505
0.371953
0.37173
0.37173
0.371955
0.372508
0.373623
0.375799
0.380074
0.388867
0.409032
0.434614
0.314351
0.338067
0.44493
0.406866
0.385648
0.378085
0.375057
0.373771
0.373201
0.37296
0.372875
0.372875
0.372964
0.373205
0.373777
0.375061
0.378089
0.385652
0.406873
0.444933
0.33804
0.364377
0.421533
0.386487
0.377504
0.375376
0.374626
0.374347
0.374272
0.374255
0.374253
0.374253
0.374255
0.374272
0.374347
0.374626
0.375376
0.377503
0.386483
0.421531
0.364386
0.600567
1.17681
1.03275
0.83497
0.666361
0.547542
0.475596
0.435938
0.415582
0.406714
0.406292
0.413988
0.43365
0.472897
0.54328
0.657832
0.821408
1.01252
1.15818
0.585243
0.598987
1.17338
1.02438
0.824797
0.663044
0.545543
0.474725
0.43578
0.415781
0.406926
0.406541
0.413988
0.433327
0.472065
0.538969
0.651
0.815862
1.00569
1.15361
0.583655
0.597977
1.17218
1.0256
0.827696
0.657677
0.543899
0.474068
0.435632
0.416191
0.40727
0.40712
0.414022
0.433072
0.471767
0.540414
0.654223
0.816596
1.01277
1.15646
0.582914
0.593064
1.17158
1.02337
0.830755
0.66177
0.539901
0.473071
0.435091
0.415261
0.405971
0.405929
0.413395
0.432067
0.471063
0.54151
0.656984
0.819102
1.01291
1.15937
0.578943
0.593482
1.17088
1.02472
0.829175
0.659792
0.539672
0.472583
0.43479
0.414564
0.405785
0.404931
0.413513
0.431949
0.470375
0.540458
0.655864
0.812442
1.00583
1.15972
0.581871
0.59165
1.16852
1.02159
0.819614
0.657398
0.538148
0.471034
0.434225
0.414657
0.406211
0.40464
0.412662
0.43114
0.467827
0.535636
0.654434
0.814585
1.00738
1.15983
0.58478
0.591244
1.16409
1.01352
0.820737
0.654692
0.536447
0.470245
0.433438
0.413329
0.404957
0.404269
0.412242
0.430897
0.467941
0.53648
0.653684
0.818589
1.00555
1.1597
0.582114
0.589608
1.16631
1.01449
0.821542
0.653269
0.535197
0.469219
0.432942
0.413171
0.405433
0.404244
0.41224
0.430328
0.46596
0.534383
0.647651
0.817605
1.00539
1.15535
0.586747
0.584367
1.1601
1.01076
0.819289
0.650447
0.53376
0.46836
0.432283
0.412929
0.404849
0.404016
0.41161
0.430174
0.466469
0.53088
0.650806
0.81559
1.00673
1.15587
0.583819
0.584378
1.15859
1.00811
0.816288
0.643205
0.531898
0.467484
0.432007
0.412947
0.405093
0.404067
0.41125
0.429769
0.465195
0.53044
0.649588
0.814479
1.00519
1.15493
0.586964
0.583893
1.15915
1.00683
0.814486
0.640834
0.531134
0.466719
0.431377
0.413194
0.404624
0.404428
0.411199
0.429738
0.465218
0.530642
0.648286
0.812926
1.00258
1.15498
0.586409
0.586123
1.15919
1.00678
0.811256
0.637236
0.52874
0.465839
0.431043
0.412433
0.40389
0.403407
0.411047
0.429362
0.464898
0.532119
0.646398
0.811502
0.995208
1.15337
0.582943
0.583598
1.15604
1.00069
0.808687
0.634792
0.526497
0.464785
0.430898
0.412791
0.404108
0.403898
0.411327
0.429244
0.46486
0.528283
0.639811
0.809926
1.00103
1.15538
0.583806
0.586977
1.16081
1.00574
0.802219
0.633676
0.523342
0.4636
0.43095
0.411697
0.404524
0.403275
0.410889
0.428876
0.46439
0.530132
0.640477
0.809436
1.00555
1.15377
0.583414
0.583046
1.15644
1.00361
0.80462
0.635365
0.522099
0.462584
0.430117
0.411393
0.403962
0.403432
0.410618
0.428329
0.462557
0.528436
0.638862
0.806735
1.00339
1.15707
0.583426
0.583845
1.15688
1.00147
0.80242
0.629595
0.520646
0.46176
0.429396
0.411174
0.403059
0.40237
0.410292
0.427858
0.461957
0.527054
0.639645
0.805036
1.00152
1.15283
0.583956
0.581825
1.15497
0.992746
0.794541
0.630999
0.520852
0.461019
0.428602
0.41099
0.403382
0.40214
0.409695
0.427324
0.461026
0.524222
0.637297
0.801592
0.997676
1.15255
0.581272
0.580684
1.15467
0.991833
0.795167
0.627661
0.518438
0.460135
0.427696
0.409595
0.402271
0.402035
0.410171
0.427083
0.459556
0.521928
0.635151
0.799342
0.995398
1.15046
0.584302
0.579301
1.15322
0.98675
0.792343
0.62725
0.517975
0.459439
0.427035
0.409485
0.402885
0.402055
0.409691
0.426533
0.458785
0.521658
0.628621
0.796495
0.988335
1.15331
0.583736
0.577577
1.14918
0.983856
0.783689
0.622894
0.516828
0.45875
0.426249
0.409311
0.40195
0.401945
0.409069
0.425962
0.457855
0.519547
0.62835
0.795161
0.992753
1.1535
0.583144
0.577059
1.14953
0.982223
0.781617
0.6188
0.516522
0.458294
0.426221
0.409473
0.401955
0.401746
0.409413
0.425386
0.45693
0.517674
0.624655
0.792115
0.991853
1.15194
0.58009
0.57505
1.14697
0.978423
0.777487
0.61677
0.514632
0.457448
0.426475
0.410185
0.402177
0.401605
0.408109
0.424576
0.455988
0.515674
0.622328
0.789391
0.985908
1.15057
0.579912
0.571706
1.14069
0.969347
0.773103
0.613113
0.512478
0.456462
0.425172
0.408968
0.402672
0.400416
0.407215
0.4239
0.455182
0.513926
0.617958
0.782361
0.989083
1.14695
0.578356
0.56927
1.13894
0.96802
0.767671
0.609825
0.51031
0.455457
0.424427
0.408069
0.401174
0.400046
0.407477
0.423379
0.454081
0.511894
0.615759
0.780368
0.98224
1.14638
0.579037
0.565703
1.13519
0.961841
0.760497
0.606286
0.508842
0.454814
0.4245
0.408554
0.400163
0.399697
0.406401
0.422487
0.453229
0.509997
0.612699
0.775955
0.982204
1.14732
0.576641
0.564089
1.13173
0.957768
0.755822
0.602983
0.507248
0.454098
0.424992
0.407687
0.40007
0.399695
0.406369
0.422357
0.452515
0.508224
0.609818
0.772247
0.979443
1.14823
0.577658
0.561604
1.12811
0.950823
0.749578
0.599304
0.505403
0.453071
0.424238
0.407892
0.400127
0.399712
0.406103
0.422369
0.45175
0.506897
0.606746
0.766116
0.971338
1.14699
0.576396
0.559554
1.12616
0.947276
0.745917
0.596036
0.50412
0.452246
0.423717
0.407055
0.400171
0.399985
0.406111
0.421771
0.451173
0.505622
0.604435
0.762717
0.968441
1.14518
0.57229
0.557431
1.12234
0.942859
0.740729
0.593424
0.502637
0.45135
0.423267
0.40766
0.401132
0.401043
0.40607
0.421357
0.450492
0.504136
0.601759
0.758619
0.963974
1.14355
0.57079
0.556201
1.12041
0.93843
0.736634
0.590607
0.501328
0.450586
0.422578
0.406929
0.400453
0.400507
0.406022
0.420607
0.449745
0.502647
0.598835
0.754688
0.960716
1.14168
0.568623
0.555976
1.11959
0.936547
0.73326
0.58836
0.500101
0.449596
0.421869
0.4064
0.401076
0.399986
0.406366
0.420325
0.449106
0.500924
0.595623
0.751253
0.956751
1.13851
0.566728
0.556593
1.12105
0.937845
0.730053
0.586395
0.498928
0.44842
0.420964
0.406392
0.400377
0.399996
0.405531
0.419888
0.448419
0.499764
0.593111
0.750324
0.956233
1.13944
0.566097
0.555678
1.11772
0.936258
0.727782
0.584602
0.498088
0.447913
0.420567
0.406711
0.401547
0.401178
0.406293
0.419967
0.447852
0.49832
0.590636
0.74386
0.948504
1.13752
0.563716
0.553181
1.12058
0.934414
0.725813
0.583103
0.49723
0.447937
0.421219
0.407078
0.401518
0.401089
0.40589
0.419694
0.447155
0.496899
0.587456
0.740491
0.947049
1.13203
0.56005
0.552337
1.11558
0.92732
0.72326
0.581281
0.496139
0.447254
0.420862
0.407734
0.401891
0.401196
0.406467
0.41959
0.446534
0.495538
0.584442
0.732518
0.940423
1.12735
0.557994
0.550975
1.11591
0.925917
0.720619
0.579551
0.495346
0.446484
0.42044
0.407063
0.401208
0.400796
0.40614
0.419317
0.445877
0.494102
0.581495
0.72803
0.933263
1.12431
0.55486
0.54997
1.11565
0.921403
0.717713
0.577756
0.494548
0.446374
0.420636
0.408029
0.402193
0.401618
0.406969
0.419196
0.445263
0.492858
0.579196
0.724172
0.929621
1.12137
0.552811
0.547106
1.11405
0.915385
0.713843
0.575787
0.493737
0.446295
0.421172
0.407917
0.401443
0.400642
0.406124
0.418778
0.444464
0.491141
0.575688
0.71884
0.924363
1.11842
0.549652
0.544752
1.10855
0.911727
0.71154
0.5741
0.492858
0.446133
0.420641
0.408136
0.402395
0.400824
0.405573
0.418332
0.443677
0.489602
0.5729
0.714548
0.918659
1.11707
0.547699
0.541953
1.10566
0.906385
0.708307
0.572153
0.491943
0.446173
0.420647
0.408226
0.402354
0.40094
0.406141
0.417804
0.442885
0.487957
0.569437
0.709261
0.913676
1.11408
0.544567
0.539137
1.10012
0.900544
0.704627
0.569979
0.490987
0.446704
0.420719
0.408146
0.402595
0.401088
0.405594
0.417964
0.442273
0.48653
0.566764
0.704788
0.90731
1.10972
0.542074
0.536162
1.09734
0.895323
0.700934
0.567913
0.489835
0.445744
0.42074
0.407614
0.402697
0.401215
0.405916
0.416793
0.441108
0.484965
0.564121
0.701042
0.903498
1.10629
0.538899
0.533415
1.09388
0.890589
0.696413
0.565288
0.488597
0.445172
0.419696
0.407565
0.402872
0.401365
0.404976
0.416419
0.439654
0.483424
0.561451
0.696239
0.898268
1.10282
0.536007
0.531276
1.09369
0.88661
0.692399
0.562931
0.487331
0.444576
0.419589
0.407789
0.403167
0.401651
0.405121
0.415103
0.438446
0.481867
0.558537
0.691693
0.892533
1.09894
0.532883
0.529841
1.09439
0.883136
0.6886
0.560519
0.486005
0.443946
0.419512
0.407964
0.403407
0.402112
0.406096
0.414952
0.437369
0.480228
0.555476
0.686491
0.886647
1.09615
0.530233
0.528126
1.09043
0.878642
0.685317
0.55841
0.484571
0.443171
0.419457
0.408722
0.40375
0.402844
0.405684
0.414644
0.43678
0.478489
0.552195
0.681272
0.879753
1.09172
0.526785
0.526995
1.09195
0.875021
0.681685
0.556054
0.482994
0.442193
0.419274
0.408234
0.403711
0.402074
0.405033
0.414258
0.435339
0.476281
0.548416
0.675567
0.873314
1.08797
0.523837
0.525185
1.08603
0.870963
0.678635
0.554061
0.481389
0.441123
0.419717
0.408507
0.404011
0.402355
0.405164
0.414095
0.433869
0.4739
0.54426
0.669167
0.865464
1.08379
0.520611
0.523671
1.0837
0.867245
0.675507
0.551939
0.479581
0.439485
0.418882
0.409324
0.404355
0.403387
0.405471
0.41421
0.433536
0.471579
0.540479
0.663765
0.859165
1.08076
0.517838
0.521915
1.08058
0.862553
0.671686
0.549595
0.477738
0.438011
0.419112
0.40926
0.404215
0.403267
0.405977
0.413358
0.433663
0.46903
0.536272
0.657612
0.852254
1.07592
0.514385
0.51949
1.07647
0.857882
0.667883
0.547049
0.475972
0.437194
0.418156
0.409381
0.405189
0.403146
0.405059
0.412905
0.431655
0.466355
0.532259
0.651743
0.845401
1.07215
0.51107
0.517218
1.07151
0.852462
0.663469
0.544132
0.474115
0.437027
0.418349
0.40944
0.404849
0.402665
0.404875
0.412941
0.429811
0.463293
0.527837
0.64523
0.838189
1.0685
0.507232
0.514955
1.06867
0.847917
0.65925
0.541135
0.47245
0.437421
0.418767
0.40966
0.405568
0.402738
0.403891
0.410959
0.427687
0.460552
0.523684
0.638863
0.830482
1.06306
0.502607
0.512247
1.06394
0.842015
0.654346
0.537825
0.471196
0.435607
0.418865
0.409242
0.405219
0.402962
0.403954
0.409745
0.425917
0.457891
0.519127
0.632041
0.822825
1.05788
0.497857
0.509586
1.06073
0.836498
0.649269
0.534035
0.470498
0.434397
0.418505
0.409858
0.40481
0.403178
0.404738
0.409627
0.42471
0.455415
0.514204
0.624908
0.814853
1.05198
0.493106
0.505999
1.05549
0.830126
0.643847
0.529898
0.466901
0.432498
0.41793
0.409063
0.404967
0.404001
0.403894
0.40949
0.423496
0.452168
0.508492
0.617067
0.805948
1.04603
0.488228
0.502909
1.05151
0.823967
0.63815
0.525641
0.464518
0.431892
0.417594
0.409986
0.405334
0.403519
0.403804
0.408832
0.420981
0.448021
0.502772
0.609355
0.796879
1.03897
0.483207
0.498769
1.04606
0.817183
0.632387
0.521424
0.461744
0.431535
0.416717
0.409376
0.405555
0.40438
0.403184
0.406634
0.418143
0.444183
0.496896
0.601117
0.787429
1.0318
0.478587
0.494858
1.04091
0.810172
0.626189
0.516949
0.459097
0.428799
0.415438
0.410488
0.405876
0.403339
0.402523
0.405567
0.416054
0.440208
0.4906
0.592652
0.778204
1.02524
0.474367
0.491397
1.03678
0.803289
0.620079
0.512561
0.456898
0.427451
0.414159
0.409583
0.406217
0.403465
0.403104
0.405107
0.413857
0.435613
0.483934
0.584006
0.769317
1.02048
0.471118
0.487619
1.03209
0.795316
0.613171
0.507573
0.454304
0.42706
0.414126
0.408778
0.407297
0.403569
0.402086
0.404719
0.412499
0.431645
0.477588
0.575121
0.760029
1.01554
0.46742
0.484458
1.02794
0.788029
0.606623
0.502543
0.451
0.425928
0.414784
0.408872
0.406359
0.404077
0.402286
0.403593
0.408623
0.427358
0.471279
0.566429
0.750907
1.0119
0.464457
0.480626
1.0234
0.778979
0.599125
0.497705
0.447596
0.424424
0.413419
0.409
0.405112
0.402461
0.400503
0.401464
0.406688
0.424875
0.465974
0.558251
0.741645
1.00681
0.460272
0.477018
1.01937
0.769728
0.591429
0.493941
0.445144
0.422731
0.413154
0.409745
0.405451
0.403477
0.400547
0.400481
0.40488
0.422379
0.460948
0.550222
0.732067
1.00188
0.455846
0.472513
1.01499
0.759021
0.582512
0.490652
0.445564
0.422604
0.413013
0.408616
0.405794
0.402307
0.400579
0.400975
0.404574
0.420185
0.456292
0.542478
0.722593
0.997417
0.450899
0.466422
1.009
0.746137
0.571562
0.48553
0.442221
0.422183
0.41338
0.407641
0.404367
0.402103
0.400266
0.399956
0.403867
0.417652