/*--------------------------------*- C++ -*----------------------------------*\
  =========                 |
  \\      /  F ield         | OpenFOAM: The Open Source CFD Toolbox
   \\    /   O peration     | Website:  https://openfoam.org
    \\  /    A nd           | Version:  6
     \\/     M anipulation  |
\*---------------------------------------------------------------------------*/
FoamFile
{
    version     2.0;
    format      ascii;
    class       volScalarField;
    location    "24";
    object      k;
}
// * * * * * * * * * * * * * * * * * * * * * * * * * * * * * * * * * * * * * //

dimensions      [0 2 -2 0 0 0 0];

internalField   nonuniform List<scalar> 
130000
(
0.377495
0.375047
0.372387
0.369565
0.366588
0.363477
0.360262
0.35698
0.353673
0.350388
0.347168
0.344059
0.341097
0.338317
0.335746
0.333404
0.331305
0.329456
0.32786
0.326515
0.377797
0.375358
0.372703
0.369879
0.366897
0.363776
0.360548
0.35725
0.353928
0.350626
0.347391
0.344266
0.341291
0.338499
0.335918
0.333568
0.331464
0.329611
0.328013
0.326666
0.378095
0.375666
0.373016
0.37019
0.3672
0.364067
0.360824
0.35751
0.354169
0.350848
0.347595
0.344452
0.341462
0.338656
0.336062
0.333701
0.331587
0.329726
0.328122
0.32677
0.378363
0.37594
0.37329
0.370461
0.367462
0.364317
0.361059
0.357728
0.35437
0.351031
0.347759
0.344599
0.341589
0.338765
0.336156
0.33378
0.331652
0.329779
0.328166
0.326811
0.378575
0.376155
0.373503
0.370669
0.367662
0.364507
0.361235
0.357888
0.35451
0.351151
0.347858
0.344677
0.341647
0.338807
0.336184
0.333798
0.331662
0.329782
0.328165
0.326808
0.378732
0.37631
0.373654
0.370813
0.367797
0.364628
0.361339
0.357972
0.354572
0.351194
0.347884
0.344689
0.341646
0.338797
0.336167
0.333777
0.331639
0.329762
0.328147
0.32679
0.378846
0.376416
0.373751
0.370899
0.367868
0.36468
0.361372
0.357987
0.354571
0.351179
0.347859
0.344656
0.341611
0.338759
0.336128
0.333737
0.331601
0.329726
0.328113
0.32676
0.37893
0.376487
0.373808
0.37094
0.367888
0.36468
0.361356
0.357958
0.354534
0.351134
0.347807
0.3446
0.341552
0.338699
0.336069
0.33368
0.331547
0.329676
0.328068
0.32672
0.378996
0.376536
0.373838
0.37095
0.367879
0.364657
0.361319
0.357909
0.354474
0.351066
0.347734
0.344523
0.341475
0.338622
0.335994
0.333609
0.331481
0.329616
0.328014
0.326673
0.379056
0.376577
0.373858
0.370948
0.36786
0.364621
0.361268
0.357845
0.3544
0.350984
0.347646
0.344432
0.341383
0.338533
0.335908
0.333529
0.331407
0.329548
0.327954
0.326621
0.379118
0.376618
0.373878
0.370949
0.367839
0.364581
0.361211
0.357773
0.354317
0.350893
0.347549
0.344333
0.341284
0.338436
0.335816
0.333442
0.331327
0.329477
0.327891
0.326566
0.379185
0.376663
0.373901
0.370949
0.367819
0.364541
0.361152
0.3577
0.354231
0.350798
0.347449
0.34423
0.341182
0.338336
0.335721
0.333353
0.331246
0.329404
0.327827
0.32651
0.379261
0.376716
0.373929
0.370954
0.367805
0.364505
0.361098
0.357628
0.354147
0.350704
0.347349
0.344128
0.341079
0.338236
0.335625
0.333264
0.331164
0.329331
0.327762
0.326455
0.379346
0.376778
0.373968
0.370969
0.367798
0.364476
0.361049
0.357563
0.354068
0.350615
0.347253
0.344028
0.340979
0.338139
0.335532
0.333178
0.331085
0.32926
0.3277
0.326402
0.379443
0.376853
0.374018
0.370994
0.367798
0.364458
0.36101
0.357506
0.353996
0.350532
0.347163
0.343934
0.340884
0.338046
0.335443
0.333094
0.331009
0.329192
0.327641
0.326351
0.379555
0.376942
0.374083
0.371033
0.367812
0.364451
0.360983
0.35746
0.353934
0.350459
0.347081
0.343847
0.340796
0.337959
0.33536
0.333016
0.330938
0.329128
0.327585
0.326303
0.379685
0.377049
0.374164
0.371088
0.36784
0.364453
0.360968
0.357426
0.353884
0.350395
0.347008
0.343769
0.340715
0.337878
0.335282
0.332943
0.330871
0.329069
0.327533
0.326259
0.379832
0.377173
0.374262
0.371159
0.367884
0.364472
0.360965
0.357405
0.353845
0.350342
0.346945
0.343699
0.340642
0.337805
0.335211
0.332877
0.33081
0.329014
0.327486
0.326219
0.379995
0.377314
0.374377
0.371246
0.367944
0.364505
0.360972
0.357397
0.353819
0.350301
0.346893
0.343639
0.340578
0.33774
0.335148
0.332817
0.330756
0.328966
0.327444
0.326184
0.380179
0.377475
0.374512
0.371352
0.368021
0.364554
0.360996
0.357398
0.353805
0.350272
0.346852
0.34359
0.340524
0.337684
0.335093
0.332765
0.330707
0.328923
0.327407
0.326154
0.380382
0.377656
0.374666
0.371478
0.368116
0.36462
0.361034
0.35741
0.353801
0.350255
0.346823
0.343552
0.34048
0.337637
0.335045
0.332719
0.330666
0.328886
0.327376
0.326129
0.380606
0.377858
0.374841
0.371622
0.36823
0.364703
0.361088
0.357438
0.353808
0.350251
0.346807
0.343525
0.340446
0.337599
0.335006
0.332682
0.330631
0.328855
0.32735
0.326108
0.380849
0.378079
0.375035
0.371786
0.368362
0.364803
0.361159
0.357483
0.353829
0.350253
0.346798
0.343509
0.340422
0.337571
0.334976
0.332652
0.330603
0.328831
0.32733
0.326092
0.381113
0.378322
0.375251
0.371971
0.368514
0.364923
0.361248
0.357543
0.353864
0.350265
0.346795
0.343499
0.340407
0.337552
0.334956
0.332632
0.330585
0.328815
0.327317
0.326082
0.3814
0.378588
0.37549
0.372178
0.368687
0.365062
0.361355
0.35762
0.353915
0.350294
0.346806
0.343497
0.340401
0.337542
0.334943
0.332619
0.330574
0.328807
0.327313
0.32608
0.38171
0.378878
0.375752
0.372407
0.368882
0.365223
0.361481
0.357716
0.353983
0.350338
0.346832
0.343509
0.340405
0.33754
0.334936
0.33261
0.330567
0.328804
0.327312
0.32608
0.382044
0.379192
0.376038
0.372661
0.369101
0.365405
0.361629
0.35783
0.354068
0.350398
0.34687
0.343529
0.340413
0.337542
0.334937
0.33261
0.330564
0.328803
0.32731
0.326078
0.382404
0.379534
0.376353
0.372942
0.369345
0.365612
0.3618
0.357967
0.354174
0.350476
0.346924
0.343563
0.340429
0.337548
0.334939
0.332611
0.330565
0.328803
0.327309
0.326074
0.382791
0.379905
0.376696
0.373253
0.369619
0.365847
0.361997
0.358129
0.354303
0.350576
0.347
0.343618
0.340465
0.33757
0.334949
0.332614
0.330567
0.3288
0.327306
0.326072
0.383209
0.380307
0.377072
0.373595
0.369923
0.366113
0.362223
0.358318
0.354458
0.350701
0.347099
0.343695
0.340525
0.337615
0.334983
0.332638
0.330582
0.328812
0.327319
0.326092
0.383659
0.380742
0.377482
0.373972
0.370262
0.366411
0.362482
0.358538
0.354643
0.350854
0.347225
0.343798
0.340609
0.337684
0.335041
0.332687
0.330626
0.328853
0.327359
0.326132
0.384143
0.381215
0.37793
0.374386
0.370638
0.366746
0.362775
0.358792
0.35486
0.351039
0.347381
0.34393
0.340721
0.33778
0.335124
0.332762
0.330694
0.328916
0.327419
0.32619
0.384665
0.381728
0.37842
0.374842
0.371055
0.36712
0.363107
0.359083
0.355113
0.351258
0.347569
0.344093
0.340863
0.337905
0.335236
0.332863
0.330787
0.329003
0.3275
0.326267
0.385229
0.382285
0.378955
0.375345
0.371517
0.36754
0.363483
0.359416
0.355406
0.351515
0.347795
0.344291
0.341038
0.338062
0.335377
0.332992
0.330906
0.329115
0.327606
0.326367
0.385839
0.382891
0.37954
0.375897
0.372029
0.368008
0.363906
0.359795
0.355744
0.351814
0.348061
0.344528
0.341251
0.338254
0.335553
0.333154
0.331057
0.329256
0.327738
0.326492
0.386499
0.38355
0.380181
0.376506
0.372598
0.368531
0.364382
0.360226
0.356131
0.352162
0.348373
0.344809
0.341506
0.338487
0.335766
0.333352
0.331242
0.32943
0.327903
0.326647
0.387215
0.384269
0.380882
0.377176
0.373227
0.369114
0.364917
0.360713
0.356573
0.352562
0.348736
0.34514
0.341807
0.338764
0.336024
0.333593
0.331468
0.329643
0.328104
0.326838
0.387992
0.385054
0.381652
0.377915
0.373925
0.369765
0.365518
0.361264
0.357077
0.353022
0.349156
0.345525
0.342163
0.339093
0.336331
0.33388
0.331739
0.3299
0.328348
0.327068
0.388836
0.38591
0.382496
0.37873
0.374698
0.37049
0.366192
0.361887
0.35765
0.353549
0.349641
0.345973
0.342578
0.33948
0.336693
0.334222
0.332062
0.330206
0.328639
0.327345
0.389755
0.386846
0.383424
0.379629
0.375556
0.371299
0.366948
0.362589
0.3583
0.354151
0.350199
0.346491
0.343061
0.339933
0.337119
0.334625
0.332444
0.33057
0.328985
0.327674
0.390756
0.387871
0.384443
0.380622
0.376508
0.372201
0.367795
0.363381
0.359038
0.354838
0.350839
0.347088
0.343621
0.34046
0.337617
0.335097
0.332894
0.330998
0.329393
0.328062
0.391849
0.388995
0.385567
0.381721
0.377566
0.373208
0.368746
0.364274
0.359875
0.355621
0.351572
0.347777
0.344269
0.341073
0.338198
0.33565
0.333421
0.331501
0.329873
0.32852
0.393042
0.390229
0.386805
0.382937
0.378743
0.374333
0.369814
0.365283
0.360824
0.356514
0.352413
0.34857
0.345019
0.341783
0.338874
0.336294
0.334037
0.33209
0.330436
0.329057
0.39435
0.391586
0.388173
0.384287
0.380054
0.375593
0.371015
0.366422
0.361902
0.357532
0.353376
0.349482
0.345885
0.342608
0.339661
0.337047
0.334757
0.33278
0.331097
0.329688
0.395784
0.393081
0.389687
0.385786
0.381517
0.377005
0.372368
0.367711
0.363127
0.358695
0.354481
0.350532
0.346886
0.343564
0.340576
0.337924
0.335598
0.333587
0.33187
0.330427
0.39736
0.394732
0.391365
0.387456
0.383153
0.378591
0.373893
0.369171
0.364521
0.360025
0.355749
0.351744
0.348044
0.344674
0.341641
0.338947
0.336582
0.334532
0.332777
0.331295
0.399095
0.396559
0.39323
0.389319
0.384986
0.380376
0.375618
0.37083
0.366112
0.361548
0.357208
0.353142
0.349386
0.345963
0.342882
0.340142
0.337733
0.335639
0.333841
0.332314
0.40101
0.398584
0.395307
0.391403
0.387046
0.382389
0.377572
0.372717
0.367929
0.363296
0.358889
0.354759
0.350943
0.347464
0.34433
0.34154
0.339081
0.336939
0.335091
0.333512
0.403129
0.400836
0.397626
0.39374
0.389365
0.384666
0.379791
0.37487
0.370011
0.365307
0.36083
0.356633
0.352754
0.349215
0.346023
0.343177
0.340664
0.338467
0.336562
0.334924
0.40548
0.403345
0.400222
0.396367
0.391983
0.387248
0.382319
0.377332
0.372403
0.367627
0.363077
0.358811
0.354865
0.351262
0.348008
0.345101
0.342527
0.340268
0.338298
0.336591
0.408091
0.406148
0.403135
0.399329
0.394948
0.390185
0.385207
0.380158
0.375159
0.37031
0.365687
0.361349
0.357333
0.353661
0.35034
0.347366
0.344724
0.342394
0.34035
0.338563
0.411001
0.409288
0.406415
0.402679
0.398318
0.393538
0.388518
0.383412
0.378346
0.373425
0.368729
0.364317
0.360227
0.356483
0.353089
0.350041
0.347324
0.344914
0.342784
0.340904
0.414252
0.412815
0.410119
0.406481
0.40216
0.397379
0.392329
0.387173
0.382046
0.377056
0.372287
0.3678
0.363635
0.359813
0.356342
0.353213
0.35041
0.347909
0.34568
0.343692
0.417893
0.416791
0.414317
0.410813
0.406559
0.401798
0.396734
0.391541
0.38636
0.381307
0.376468
0.371908
0.367665
0.363764
0.360208
0.35699
0.354091
0.351485
0.34914
0.347023
0.421986
0.42129
0.419096
0.415771
0.411621
0.406908
0.401853
0.39664
0.39142
0.386313
0.381411
0.376779
0.37246
0.368475
0.364828
0.361511
0.358502
0.355775
0.353294
0.351024
0.426609
0.426405
0.424563
0.421475
0.417478
0.412853
0.407839
0.402632
0.397393
0.392248
0.387295
0.382599
0.378205
0.374135
0.370391
0.366963
0.363829
0.360958
0.358314
0.355857
0.431855
0.432241
0.430849
0.428079
0.4243
0.419819
0.414892
0.409731
0.404506
0.39935
0.394364
0.389619
0.385158
0.381003
0.377156
0.373603
0.370322
0.367278
0.364433
0.361745
0.437859
0.438956
0.438133
0.435784
0.432313
0.428055
0.423285
0.418229
0.413069
0.407946
0.402964
0.398195
0.393683
0.389449
0.385493
0.381799
0.378341
0.375084
0.371985
0.369002
0.444751
0.446734
0.446639
0.444856
0.441823
0.437903
0.433393
0.428538
0.423527
0.418509
0.413591
0.408846
0.404316
0.400019
0.395953
0.392097
0.388423
0.384893
0.381462
0.378087
0.452715
0.45583
0.456657
0.455655
0.453249
0.449839
0.445751
0.441243
0.436518
0.431726
0.426978
0.422342
0.417857
0.413534
0.409366
0.405326
0.401382
0.397492
0.393613
0.389699
0.461987
0.466618
0.468642
0.468692
0.467181
0.46454
0.461117
0.457188
0.452964
0.448597
0.444193
0.439814
0.435487
0.431212
0.426971
0.422729
0.418445
0.414076
0.409576
0.404904
0.472898
0.479525
0.483188
0.484639
0.484437
0.482943
0.480549
0.477549
0.474155
0.470519
0.466735
0.462848
0.458866
0.454772
0.450528
0.446083
0.441385
0.436381
0.431027
0.425286
0.485917
0.495161
0.50117
0.504551
0.506162
0.506322
0.505464
0.503877
0.501777
0.499301
0.496523
0.493464
0.490104
0.486397
0.482276
0.477669
0.472501
0.466705
0.460228
0.453033
0.501674
0.514397
0.523567
0.529804
0.533792
0.536233
0.537606
0.538039
0.537802
0.536997
0.535678
0.533845
0.531444
0.528388
0.52458
0.519913
0.514283
0.507593
0.499766
0.490746
0.520995
0.538363
0.551757
0.561803
0.569284
0.574846
0.578925
0.581908
0.584161
0.585509
0.586057
0.585809
0.584669
0.582521
0.57923
0.574659
0.568666
0.561113
0.551868
0.540822
0.544911
0.568368
0.587265
0.602215
0.614092
0.623604
0.631267
0.637452
0.642367
0.646066
0.648663
0.650264
0.650556
0.649472
0.646852
0.642536
0.636346
0.628095
0.617577
0.604589
0.574655
0.605864
0.631628
0.652553
0.669646
0.683728
0.695397
0.705066
0.712983
0.719281
0.72401
0.727176
0.728863
0.728895
0.726996
0.723032
0.716802
0.708071
0.696555
0.681933
0.611587
0.652289
0.686195
0.713972
0.736852
0.755842
0.771681
0.784888
0.795793
0.8046
0.811406
0.816246
0.819138
0.820088
0.818831
0.815236
0.809058
0.800017
0.787756
0.771844
0.657085
0.708889
0.751943
0.787141
0.816083
0.840065
0.860035
0.876667
0.890407
0.901551
0.910265
0.916635
0.920684
0.922408
0.921704
0.918478
0.912408
0.903155
0.890308
0.873344
0.712394
0.776585
0.829424
0.872301
0.907353
0.93626
0.960234
0.980138
0.996554
1.00988
1.02035
1.02812
1.03323
1.03568
1.03547
1.03259
1.02665
1.01722
1.00385
0.98595
0.778503
0.855922
0.918837
0.969432
1.01053
1.04425
1.07211
1.09516
1.11414
1.12954
1.14169
1.15077
1.15689
1.16003
1.16026
1.1577
1.15188
1.14228
1.12841
1.10961
0.856069
0.947119
1.02014
1.07838
1.12542
1.16386
1.19551
1.22163
1.24309
1.26051
1.27427
1.28463
1.29172
1.29555
1.29618
1.29388
1.28819
1.27842
1.26405
1.24438
0.945415
1.05014
1.13316
1.19892
1.25179
1.29485
1.3302
1.3593
1.38317
1.40252
1.41783
1.42942
1.43748
1.44207
1.44315
1.44097
1.43532
1.42538
1.41055
1.39005
1.04656
1.16474
1.25753
1.33063
1.38918
1.43671
1.47561
1.50754
1.53367
1.55481
1.57154
1.58425
1.59315
1.59837
1.59985
1.59787
1.5923
1.58226
1.56706
1.54587
1.15927
1.29046
1.39267
1.47281
1.53677
1.58849
1.63065
1.66513
1.69322
1.71589
1.73378
1.74738
1.75696
1.76267
1.76447
1.76269
1.75725
1.7472
1.73181
1.71018
1.28302
1.42653
1.5376
1.62427
1.69312
1.74852
1.79342
1.82991
1.85947
1.88318
1.90181
1.91593
1.92588
1.93186
1.93387
1.93226
1.92699
1.91708
1.90175
1.88005
1.41698
1.57176
1.69077
1.78309
1.85596
1.91415
1.9609
1.99855
2.02873
2.05271
2.07137
2.0854
2.09522
2.10111
2.1031
2.10157
2.09651
2.08693
2.07203
2.05083
1.55984
1.72434
1.84985
1.94643
2.02191
2.08148
2.12871
2.16615
2.19568
2.21873
2.23634
2.24934
2.25826
2.26346
2.26506
2.26347
2.25861
2.24957
2.23559
2.21564
1.70973
1.88167
2.01152
2.11023
2.18621
2.24508
2.29072
2.32599
2.35299
2.37336
2.38835
2.39893
2.40579
2.40943
2.41007
2.40811
2.40339
2.39514
2.38264
2.36491
1.86408
2.04021
2.17128
2.26906
2.34251
2.39769
2.43885
2.46916
2.49104
2.50634
2.51649
2.52269
2.52584
2.52669
2.52556
2.52275
2.51792
2.51066
2.5003
2.48587
2.01949
2.19538
2.32335
2.41596
2.48271
2.53012
2.56283
2.58442
2.5979
2.60498
2.60733
2.60648
2.60349
2.59905
2.59385
2.58849
2.58297
2.57708
2.57022
2.56139
2.1717
2.34147
2.4606
2.54237
2.59687
2.63131
2.6504
2.65771
2.65605
2.64911
2.63942
2.62865
2.61907
2.60918
2.60011
2.59234
2.58601
2.581
2.57683
2.57271
2.31568
2.47183
2.57468
2.63834
2.6731
2.68576
2.68369
2.67329
2.65646
2.63603
2.61402
2.5914
2.56814
2.54856
2.53252
2.52025
2.51189
2.50749
2.50673
2.50917
2.44581
2.57909
2.65638
2.6915
2.69711
2.68528
2.65888
2.62197
2.58135
2.5395
2.49843
2.4601
2.42568
2.39611
2.372
2.35389
2.34227
2.3377
2.3395
2.34634
2.55621
2.65568
2.69493
2.69423
2.66448
2.61295
2.55081
2.48365
2.41598
2.35099
2.29076
2.23665
2.18936
2.14929
2.11666
2.09182
2.07527
2.06785
2.0689
2.07708
2.64075
2.69204
2.68413
2.63144
2.55119
2.45521
2.35311
2.25194
2.15649
2.06964
1.99266
1.92582
1.86872
1.82077
1.78139
1.75035
1.72783
1.71444
1.71127
1.71707
2.69407
2.68576
2.61149
2.49539
2.35577
2.20794
2.06348
1.93016
1.8122
1.71093
1.62566
1.55458
1.49551
1.44639
1.40558
1.37212
1.34571
1.32668
1.31683
1.31614
2.71072
2.62625
2.47363
2.28196
2.07617
1.87622
1.69574
1.54181
1.41594
1.31581
1.23713
1.17514
1.12557
1.08504
1.05127
1.02321
1.00012
0.982016
0.972035
0.97166
2.68686
2.51046
2.26574
1.99224
1.72392
1.48585
1.29085
1.14093
1.03086
0.952133
0.896096
0.85546
0.824846
0.800831
0.782089
0.770123
0.763585
0.762318
0.770192
0.798185
2.61287
2.33099
1.98802
1.64121
1.33516
1.09616
0.925213
0.810755
0.737414
0.691456
0.663164
0.645634
0.634645
0.628229
0.625611
0.626709
0.633442
0.64715
0.690338
0.769673
2.4732
2.07454
1.64317
1.26373
0.976658
0.786498
0.671942
0.60782
0.572678
0.553092
0.54229
0.536763
0.534731
0.535365
0.538427
0.545318
0.561474
0.602121
0.690072
0.849091
2.23615
1.72281
1.24882
0.901411
0.689685
0.581883
0.530165
0.503848
0.489481
0.48163
0.477576
0.475962
0.476254
0.478379
0.483524
0.49527
0.523895
0.598632
0.759985
1.03299
1.86047
1.27788
0.844416
0.620415
0.527136
0.485881
0.464549
0.452385
0.44501
0.440375
0.437609
0.436402
0.436872
0.439661
0.446878
0.464106
0.50809
0.622826
0.882446
1.25547
1.35345
0.831207
0.596285
0.504375
0.464201
0.443597
0.431437
0.423253
0.417348
0.413059
0.410206
0.408897
0.409567
0.413193
0.422464
0.444611
0.501602
0.656197
0.996918
1.43626
1.05423
0.678603
0.523697
0.462783
0.43541
0.420368
0.410506
0.403356
0.39798
0.394027
0.391421
0.390472
0.391718
0.396155
0.406534
0.430524
0.492016
0.662491
1.03154
1.5427
1.04046
0.656011
0.498156
0.441385
0.416754
0.403449
0.395005
0.389116
0.384826
0.381891
0.380279
0.380013
0.381576
0.386076
0.395927
0.41777
0.472194
0.623156
1.00367
1.58527
1.18317
0.668356
0.484451
0.425585
0.402342
0.390954
0.38439
0.380256
0.377699
0.376132
0.375352
0.37542
0.376765
0.380368
0.388375
0.405753
0.448204
0.570204
0.92223
1.58586
1.28289
0.670526
0.469028
0.411714
0.391597
0.382751
0.378354
0.376088
0.374822
0.37408
0.373745
0.373873
0.374774
0.377184
0.382882
0.395691
0.426548
0.514042
0.797867
1.48076
1.21571
0.591349
0.436261
0.396296
0.383026
0.377833
0.375665
0.374676
0.374095
0.373708
0.373535
0.37361
0.374092
0.375199
0.37788
0.385186
0.404477
0.458801
0.647751
1.20601
0.798954
0.459092
0.394195
0.379866
0.376158
0.375166
0.374811
0.374567
0.374443
0.374379
0.374343
0.374331
0.374391
0.374678
0.375514
0.377611
0.384087
0.407137
0.492536
0.826907
0.323075
0.322569
0.322006
0.321467
0.320958
0.320485
0.320053
0.319667
0.319332
0.319053
0.318831
0.318669
0.318569
0.318531
0.318554
0.318638
0.318783
0.318987
0.319248
0.319566
0.323295
0.322782
0.322217
0.321674
0.32116
0.320683
0.320247
0.319857
0.319517
0.319233
0.319006
0.318841
0.318737
0.318695
0.318715
0.318797
0.318939
0.319141
0.319401
0.319718
0.323468
0.322951
0.322382
0.321835
0.321318
0.320836
0.320395
0.32
0.319656
0.319366
0.319135
0.318965
0.318857
0.318811
0.318827
0.318905
0.319044
0.319244
0.319502
0.319817
0.323611
0.32309
0.322518
0.321968
0.321447
0.320961
0.320517
0.320118
0.31977
0.319476
0.319241
0.319067
0.318955
0.318906
0.318918
0.318993
0.319129
0.319326
0.319582
0.319896
0.323733
0.323209
0.322634
0.322081
0.321557
0.321069
0.320621
0.32022
0.319869
0.319573
0.319335
0.319158
0.319043
0.31899
0.318999
0.319072
0.319206
0.3194
0.319654
0.319966
0.323842
0.323316
0.322738
0.322182
0.321656
0.321165
0.320716
0.320312
0.31996
0.319661
0.319421
0.319242
0.319124
0.319069
0.319076
0.319146
0.319278
0.319472
0.319724
0.320035
0.323946
0.323417
0.322836
0.322278
0.321749
0.321256
0.320805
0.320399
0.320044
0.319743
0.319501
0.31932
0.3192
0.319144
0.319149
0.319218
0.319349
0.319541
0.319792
0.320101
0.324048
0.323517
0.322934
0.322373
0.321842
0.321347
0.320893
0.320484
0.320126
0.319822
0.319577
0.319394
0.319274
0.319216
0.319221
0.31929
0.31942
0.319611
0.319861
0.320168
0.324152
0.323618
0.323032
0.322469
0.321939
0.321443
0.320985
0.320573
0.320209
0.3199
0.319653
0.31947
0.31935
0.319294
0.319299
0.319367
0.319495
0.319683
0.319932
0.320239
0.324239
0.323704
0.323118
0.322555
0.322022
0.321523
0.321059
0.320642
0.320281
0.319976
0.319733
0.319553
0.319437
0.319382
0.319385
0.319447
0.319567
0.31975
0.319997
0.320308
0.324275
0.323739
0.323161
0.3226
0.322061
0.321561
0.321091
0.320675
0.320324
0.320027
0.319789
0.319613
0.319497
0.31944
0.319437
0.319487
0.319604
0.319788
0.320036
0.320345
0.324272
0.323739
0.323173
0.322611
0.322076
0.32158
0.321114
0.320698
0.320338
0.320038
0.319801
0.319629
0.319513
0.319454
0.319449
0.319495
0.319621
0.319818
0.320068
0.320367
0.324277
0.323747
0.323174
0.322616
0.322091
0.321591
0.32113
0.320712
0.320341
0.320035
0.319794
0.319615
0.319496
0.319438
0.319439
0.319498
0.319632
0.319835
0.320089
0.320393
0.324316
0.323773
0.323185
0.322624
0.322086
0.321582
0.321119
0.320702
0.320339
0.320034
0.31979
0.319602
0.319485
0.319431
0.319438
0.319509
0.319643
0.319839
0.320096
0.320413
0.324384
0.32383
0.323227
0.322647
0.322098
0.321587
0.32112
0.320703
0.320342
0.320039
0.3198
0.319623
0.31951
0.319459
0.319467
0.319538
0.31967
0.319863
0.320115
0.320426
0.324477
0.323915
0.323304
0.322715
0.322159
0.321642
0.321171
0.320751
0.320388
0.320084
0.319843
0.319666
0.319554
0.319503
0.319512
0.319583
0.319715
0.319905
0.320151
0.320453
0.324591
0.324021
0.323403
0.322807
0.322245
0.321722
0.321246
0.320822
0.320456
0.32015
0.319908
0.319729
0.319616
0.319565
0.319575
0.319646
0.319778
0.319967
0.320211
0.320509
0.324724
0.324147
0.323521
0.322918
0.322349
0.321819
0.321338
0.32091
0.32054
0.320232
0.319988
0.319809
0.319696
0.319645
0.319655
0.319727
0.319859
0.320048
0.320291
0.320587
0.324877
0.324292
0.323659
0.323049
0.322472
0.321936
0.321448
0.321015
0.320641
0.32033
0.320084
0.319904
0.319791
0.319741
0.319752
0.319825
0.319958
0.320147
0.32039
0.320684
0.325052
0.324461
0.323821
0.323204
0.32262
0.322077
0.321583
0.321144
0.320765
0.32045
0.320202
0.320022
0.319909
0.31986
0.319873
0.319948
0.320082
0.320272
0.320514
0.320805
0.325252
0.324655
0.32401
0.323387
0.322796
0.322247
0.321747
0.321303
0.32092
0.320602
0.320352
0.320171
0.320059
0.320011
0.320025
0.320101
0.320236
0.320425
0.320665
0.320953
0.325479
0.324877
0.324228
0.323599
0.323004
0.322449
0.321945
0.321497
0.321111
0.320791
0.320539
0.320357
0.320245
0.320197
0.320212
0.320288
0.320422
0.32061
0.320847
0.32113
0.325734
0.325128
0.324475
0.323843
0.323243
0.322685
0.322177
0.321725
0.321337
0.321015
0.320762
0.320579
0.320466
0.320418
0.320433
0.320508
0.320641
0.320826
0.321059
0.321337
0.326018
0.325411
0.324755
0.324119
0.323516
0.322954
0.322443
0.321989
0.321598
0.321274
0.32102
0.320836
0.320722
0.320674
0.320687
0.320761
0.320891
0.321073
0.321302
0.321573
0.326337
0.325727
0.325069
0.324431
0.323824
0.323259
0.322745
0.322288
0.321895
0.321569
0.321313
0.321129
0.321014
0.320965
0.320976
0.321048
0.321176
0.321353
0.321576
0.321839
0.326694
0.326082
0.325423
0.324782
0.324173
0.323604
0.323087
0.322627
0.322232
0.321904
0.321647
0.321461
0.321345
0.321295
0.321304
0.321374
0.321497
0.32167
0.321886
0.322141
0.327095
0.326483
0.325823
0.32518
0.324567
0.323996
0.323476
0.323013
0.322615
0.322286
0.322027
0.32184
0.321722
0.32167
0.321677
0.321744
0.321863
0.32203
0.322238
0.322482
0.327549
0.326937
0.326276
0.325632
0.325017
0.324443
0.323919
0.323454
0.323054
0.322722
0.322462
0.322272
0.322153
0.322098
0.322103
0.322166
0.32228
0.32244
0.322639
0.322872
0.328062
0.327451
0.326792
0.326147
0.32553
0.324953
0.324427
0.323959
0.323556
0.323222
0.322959
0.322768
0.322646
0.322589
0.322591
0.322649
0.322757
0.322909
0.323097
0.323316
0.328645
0.328037
0.32738
0.326735
0.326117
0.325538
0.325009
0.324538
0.324133
0.323796
0.323531
0.323338
0.323213
0.323153
0.323151
0.323203
0.323304
0.323446
0.323622
0.323826
0.329308
0.328704
0.328051
0.327407
0.326788
0.326208
0.325677
0.325203
0.324795
0.324456
0.324189
0.323992
0.323865
0.323801
0.323794
0.32384
0.323932
0.324062
0.324224
0.324409
0.330064
0.329465
0.328818
0.328176
0.327558
0.326977
0.326444
0.325968
0.325557
0.325215
0.324945
0.324745
0.324614
0.324546
0.324534
0.324571
0.324653
0.32477
0.324915
0.325079
0.330925
0.330335
0.329695
0.329058
0.328442
0.32786
0.327326
0.326848
0.326435
0.32609
0.325816
0.325612
0.325476
0.325403
0.325384
0.325412
0.325481
0.325583
0.325708
0.325848
0.331909
0.331331
0.330702
0.330072
0.329458
0.328877
0.328342
0.327863
0.327447
0.327099
0.326821
0.326613
0.326472
0.326391
0.326363
0.326381
0.326436
0.32652
0.326622
0.326733
0.333037
0.332473
0.331859
0.331237
0.330629
0.330051
0.329516
0.329035
0.328616
0.328265
0.327984
0.32777
0.327622
0.327534
0.327496
0.3275
0.327538
0.3276
0.327676
0.327753
0.334331
0.333788
0.333192
0.332583
0.331982
0.331407
0.330874
0.330392
0.329972
0.329617
0.329331
0.329112
0.328955
0.328857
0.328806
0.328795
0.328813
0.32885
0.328893
0.328932
0.335821
0.335303
0.33473
0.334138
0.333548
0.33298
0.332449
0.331968
0.331546
0.331188
0.330896
0.33067
0.330504
0.330393
0.330328
0.330298
0.330291
0.330298
0.330304
0.330295
0.33754
0.337054
0.336512
0.335942
0.335366
0.334807
0.334281
0.333802
0.333379
0.333017
0.33272
0.332485
0.332308
0.332183
0.332099
0.332046
0.33201
0.331981
0.331942
0.331879
0.339529
0.339084
0.338581
0.338038
0.337483
0.336937
0.336418
0.335942
0.335519
0.335154
0.33485
0.334605
0.334415
0.334272
0.334165
0.334084
0.334013
0.33394
0.333848
0.33372
0.341837
0.341444
0.34099
0.340485
0.339955
0.339427
0.33892
0.338449
0.338026
0.337658
0.337347
0.33709
0.336884
0.336719
0.336584
0.336468
0.336354
0.336229
0.336072
0.335867
0.344524
0.344198
0.343807
0.34335
0.342856
0.342352
0.34186
0.341398
0.340978
0.340606
0.340286
0.340015
0.339787
0.339595
0.339426
0.339266
0.339099
0.338908
0.338674
0.338376
0.347667
0.347428
0.347121
0.346727
0.346281
0.345811
0.345342
0.344893
0.344477
0.344101
0.343769
0.343479
0.343224
0.342996
0.342782
0.342566
0.342331
0.34206
0.341729
0.341317
0.351369
0.351248
0.351053
0.350749
0.35037
0.34995
0.349514
0.349085
0.348675
0.348294
0.347946
0.347628
0.347335
0.347058
0.346781
0.346491
0.346167
0.34579
0.345337
0.344781
0.355781
0.355827
0.355795
0.35562
0.355342
0.354996
0.354612
0.354212
0.353813
0.353425
0.353051
0.352693
0.352342
0.35199
0.351623
0.351225
0.350776
0.350256
0.349638
0.348895
0.361165
0.361442
0.361659
0.361684
0.361562
0.361336
0.361035
0.360685
0.360304
0.359903
0.359488
0.35906
0.358615
0.358144
0.357635
0.357071
0.356434
0.355704
0.354852
0.35385
0.36798
0.36863
0.369188
0.369537
0.36967
0.369643
0.369485
0.369221
0.36887
0.368447
0.367961
0.367415
0.366807
0.366134
0.365386
0.36455
0.363611
0.36255
0.361342
0.359957
0.376916
0.378188
0.379375
0.380194
0.380739
0.381068
0.381154
0.381039
0.380744
0.380287
0.379678
0.378928
0.378041
0.377019
0.37586
0.374563
0.373117
0.371512
0.369728
0.36774
0.389165
0.391485
0.393728
0.395434
0.396635
0.397417
0.397905
0.398028
0.397839
0.397336
0.396534
0.395452
0.394104
0.392503
0.390663
0.388595
0.386304
0.383795
0.381062
0.378092
0.406554
0.410534
0.414414
0.417473
0.419735
0.421255
0.422126
0.422584
0.422618
0.422072
0.421007
0.41945
0.417426
0.414961
0.412084
0.408823
0.405207
0.401263
0.397009
0.39246
0.431473
0.437801
0.443915
0.448759
0.452384
0.454889
0.456382
0.457105
0.457318
0.456737
0.455383
0.453272
0.450428
0.446883
0.442667
0.437817
0.432371
0.426379
0.41989
0.412957
0.466262
0.475372
0.483979
0.490705
0.49569
0.499122
0.501178
0.502138
0.502426
0.501989
0.500436
0.497854
0.494262
0.489677
0.484103
0.477552
0.470036
0.461593
0.452274
0.442164
0.51208
0.523807
0.534584
0.542827
0.548839
0.552937
0.555396
0.556572
0.556974
0.556622
0.554974
0.552119
0.548053
0.542756
0.536178
0.528264
0.51895
0.508195
0.495979
0.482343
0.568247
0.581896
0.594161
0.603378
0.610039
0.614578
0.617324
0.618649
0.619147
0.618889
0.617236
0.614279
0.609995
0.604337
0.59721
0.588495
0.578023
0.565619
0.551105
0.534353
0.633084
0.648072
0.661447
0.671458
0.678705
0.683678
0.686738
0.688244
0.688835
0.688684
0.687062
0.684052
0.679615
0.673694
0.666177
0.656918
0.645703
0.632265
0.616254
0.597291
0.705706
0.722008
0.736577
0.747511
0.755479
0.76101
0.764474
0.766206
0.766895
0.766861
0.765313
0.762258
0.757646
0.751427
0.743485
0.733672
0.721751
0.70742
0.690238
0.669667
0.786574
0.804471
0.820517
0.832621
0.841514
0.847764
0.851761
0.853796
0.854476
0.854491
0.853237
0.850154
0.845331
0.838742
0.830279
0.819791
0.807026
0.791662
0.773212
0.751044
0.876801
0.896663
0.914526
0.928084
0.938137
0.945307
0.950034
0.952635
0.953596
0.953651
0.952421
0.949207
0.944093
0.937047
0.927948
0.916637
0.902846
0.88623
0.86626
0.842235
0.97774
0.999955
1.01999
1.03529
1.04674
1.055
1.06056
1.06379
1.06514
1.06535
1.06418
1.06083
1.0554
1.04783
1.03799
1.02572
1.01072
0.992616
0.970836
0.944604
1.09087
1.11584
1.13842
1.15578
1.16888
1.17845
1.18501
1.18898
1.19078
1.1912
1.19014
1.18668
1.1809
1.17275
1.16208
1.14871
1.13232
1.1125
1.08862
1.05981
1.21778
1.24595
1.27147
1.29124
1.30628
1.31739
1.32512
1.32992
1.33227
1.33301
1.33213
1.32858
1.32244
1.31365
1.30205
1.28744
1.26948
1.24771
1.22142
1.18968
1.3602
1.39204
1.42096
1.44351
1.46081
1.47375
1.48293
1.48881
1.49181
1.49291
1.49222
1.48858
1.48205
1.47257
1.45995
1.44398
1.42426
1.4003
1.3713
1.33622
1.52002
1.55604
1.58885
1.61459
1.63451
1.64957
1.66043
1.66756
1.6714
1.67297
1.67254
1.66885
1.66196
1.65176
1.63804
1.62056
1.59889
1.57249
1.54048
1.50165
1.69929
1.74006
1.77728
1.80668
1.82962
1.84712
1.85992
1.86853
1.87336
1.87549
1.8754
1.87179
1.86457
1.85364
1.83875
1.81965
1.79585
1.76676
1.73138
1.6884
1.90017
1.94631
1.98853
2.0221
2.04848
2.06882
2.08387
2.09421
2.10019
2.10281
2.10308
2.09993
2.09249
2.08081
2.06469
2.04383
2.01772
1.98568
1.94661
1.89902
2.12499
2.17714
2.225
2.26328
2.29359
2.31718
2.3349
2.34734
2.35492
2.35857
2.35926
2.35626
2.3485
2.33602
2.31857
2.29584
2.26723
2.23199
2.18888
2.13625
2.37613
2.43497
2.48911
2.53267
2.56742
2.59471
2.61549
2.63042
2.63993
2.64478
2.64607
2.64326
2.6352
2.62192
2.6031
2.57838
2.54711
2.50842
2.46096
2.40285
2.65672
2.72289
2.78391
2.83326
2.87288
2.90423
2.92838
2.94607
2.95774
2.96403
2.96606
2.96356
2.95527
2.94119
2.92098
2.89421
2.86013
2.8178
2.76567
2.70166
2.97035
3.04446
3.11293
3.16853
3.2134
3.24914
3.27692
3.29757
3.31158
3.31953
3.32249
3.32041
3.31198
3.29717
3.27557
3.24671
3.20974
3.16358
3.10652
3.03623