/*--------------------------------*- C++ -*----------------------------------*\
  =========                 |
  \\      /  F ield         | OpenFOAM: The Open Source CFD Toolbox
   \\    /   O peration     | Website:  https://openfoam.org
    \\  /    A nd           | Version:  6
     \\/     M anipulation  |
\*---------------------------------------------------------------------------*/
FoamFile
{
    version     2.0;
    format      ascii;
    class       volScalarField;
    location    "24";
    object      nut;
}
// * * * * * * * * * * * * * * * * * * * * * * * * * * * * * * * * * * * * * //

dimensions      [0 2 -1 0 0 0 0];

internalField   nonuniform List<scalar> 
130000
(
0.000902495
0.000907063
0.000911079
0.000914403
0.000917087
0.000919187
0.000920764
0.000921878
0.000922584
0.000922935
0.000922977
0.000922751
0.000922296
0.000921643
0.00092082
0.00091985
0.000918754
0.000917549
0.000916249
0.000914864
0.00090248
0.000907059
0.000911072
0.00091439
0.000917065
0.000919156
0.000920722
0.000921823
0.000922516
0.000922853
0.000922878
0.000922632
0.000922156
0.00092148
0.000920634
0.000919642
0.000918527
0.000917308
0.000915998
0.000914608
0.000902603
0.000907196
0.000911215
0.000914535
0.000917207
0.000919291
0.000920847
0.000921936
0.000922618
0.000922945
0.000922967
0.000922732
0.000922272
0.000921608
0.000920764
0.000919764
0.00091863
0.000917377
0.000916024
0.000914585
0.000902793
0.000907406
0.000911436
0.000914757
0.000917428
0.000919512
0.000921076
0.000922188
0.000922903
0.000923267
0.000923327
0.000923133
0.000922681
0.000922003
0.000921134
0.0009201
0.00091892
0.000917605
0.000916193
0.000914695
0.000903017
0.000907653
0.000911696
0.000915033
0.000917738
0.000919869
0.000921484
0.000922651
0.000923389
0.000923755
0.000923807
0.000923595
0.000923098
0.000922386
0.000921488
0.000920423
0.000919207
0.000917854
0.000916405
0.000914863
0.000903259
0.00090793
0.000912007
0.000915396
0.000918167
0.000920341
0.000921974
0.000923136
0.000923836
0.000924162
0.000924165
0.000923881
0.000923336
0.000922591
0.000921664
0.000920576
0.000919344
0.000917988
0.000916522
0.00091496
0.000903506
0.000908226
0.000912358
0.000915803
0.0009186
0.000920751
0.000922346
0.000923448
0.000924105
0.000924401
0.000924376
0.000924071
0.00092352
0.000922758
0.000921812
0.000920704
0.000919453
0.000918079
0.000916595
0.000915015
0.000903732
0.0009085
0.000912678
0.000916135
0.000918888
0.000921006
0.000922581
0.000923669
0.000924327
0.000924612
0.000924572
0.000924249
0.000923681
0.0009229
0.000921934
0.000920805
0.000919534
0.00091814
0.000916638
0.000915041
0.000903921
0.000908719
0.000912905
0.000916356
0.000919099
0.000921225
0.000922797
0.000923879
0.000924528
0.000924801
0.000924746
0.000924407
0.000923821
0.00092302
0.000922033
0.000920883
0.000919593
0.000918179
0.000916659
0.000915048
0.000904085
0.000908902
0.000913097
0.000916546
0.000919301
0.000921429
0.000922999
0.000924073
0.000924713
0.000924973
0.000924903
0.000924547
0.000923942
0.000923121
0.000922113
0.000920944
0.000919633
0.000918201
0.000916665
0.00091504
0.000904238
0.000909073
0.000913281
0.000916747
0.0009195
0.000921626
0.00092319
0.000924257
0.000924886
0.000925132
0.000925046
0.000924672
0.000924048
0.000923208
0.00092218
0.00092099
0.00091966
0.00091821
0.000916659
0.000915022
0.000904385
0.000909234
0.000913442
0.000916926
0.00091969
0.000921816
0.000923375
0.000924433
0.00092505
0.000925282
0.00092518
0.000924788
0.000924145
0.000923284
0.000922236
0.000921025
0.000919676
0.000918209
0.000916643
0.000914994
0.000904538
0.000909401
0.000913613
0.000917106
0.000919891
0.00092201
0.00092356
0.000924607
0.000925211
0.000925428
0.000925309
0.000924898
0.000924235
0.000923354
0.000922284
0.000921054
0.000919685
0.0009182
0.000916619
0.000914958
0.000904704
0.000909588
0.000913822
0.000917296
0.000920081
0.000922198
0.000923743
0.00092478
0.00092537
0.000925572
0.000925435
0.000925005
0.000924321
0.000923419
0.000922329
0.000921077
0.000919689
0.000918185
0.000916587
0.000914913
0.000904879
0.000909777
0.000914011
0.000917463
0.000920242
0.000922387
0.000923928
0.000924954
0.00092553
0.000925715
0.00092556
0.000925111
0.000924406
0.000923482
0.00092237
0.000921097
0.000919687
0.000918164
0.000916548
0.000914858
0.000905063
0.000909976
0.000914213
0.000917657
0.000920418
0.000922575
0.000924114
0.00092513
0.000925692
0.000925861
0.000925687
0.000925217
0.000924491
0.000923545
0.00092241
0.000921114
0.000919683
0.000918139
0.000916503
0.000914793
0.000905259
0.00091019
0.000914439
0.000917895
0.000920626
0.00092276
0.000924312
0.000925314
0.000925859
0.000926009
0.000925816
0.000925325
0.000924577
0.000923608
0.00092245
0.00092113
0.000919676
0.00091811
0.000916454
0.000914725
0.000905466
0.000910413
0.000914671
0.000918129
0.000920859
0.000922941
0.000924486
0.000925496
0.000926028
0.000926161
0.000925948
0.000925435
0.000924664
0.000923672
0.000922489
0.000921146
0.000919669
0.000918082
0.000916408
0.000914665
0.000905683
0.000910646
0.000914909
0.000918363
0.000921075
0.000923112
0.00092464
0.000925678
0.000926201
0.000926315
0.000926081
0.000925546
0.000924751
0.000923734
0.000922527
0.000921159
0.000919659
0.00091805
0.000916358
0.000914605
0.000905911
0.00091089
0.000915161
0.000918616
0.000921322
0.00092335
0.000924825
0.000925848
0.000926376
0.000926471
0.000926215
0.000925656
0.000924836
0.000923794
0.000922561
0.000921168
0.000919644
0.000918013
0.000916298
0.000914536
0.00090615
0.000911146
0.000915426
0.000918883
0.000921589
0.00092362
0.00092505
0.000926014
0.000926533
0.000926623
0.000926346
0.000925761
0.000924914
0.000923844
0.000922584
0.000921166
0.000919619
0.000917971
0.000916246
0.000914489
0.000906399
0.000911412
0.0009157
0.000919157
0.000921858
0.000923879
0.000925294
0.000926174
0.000926654
0.000926747
0.000926457
0.000925849
0.000924975
0.000923875
0.000922584
0.000921138
0.000919568
0.000917909
0.000916192
0.000914449
0.000906656
0.000911687
0.000915982
0.000919438
0.000922131
0.000924136
0.000925526
0.000926367
0.000926777
0.000926814
0.000926519
0.000925907
0.000925006
0.000923868
0.000922535
0.000921048
0.000919448
0.000917769
0.000916049
0.000914315
0.000906924
0.000911973
0.000916275
0.00091973
0.000922415
0.000924408
0.000925784
0.000926612
0.000926951
0.000926913
0.000926589
0.00092597
0.000925049
0.000923884
0.000922524
0.00092101
0.000919388
0.000917681
0.000915977
0.00091426
0.000907203
0.00091227
0.000916579
0.000920033
0.00092271
0.00092469
0.00092605
0.000926861
0.000927188
0.000927087
0.000926728
0.00092606
0.000925129
0.000923951
0.000922574
0.000921027
0.000919381
0.000917654
0.000915962
0.000914239
0.000907495
0.00091258
0.000916896
0.000920349
0.000923018
0.000924985
0.000926329
0.000927121
0.000927425
0.000927299
0.000926857
0.000926127
0.000925173
0.000923991
0.000922597
0.000921023
0.000919372
0.000917644
0.000915882
0.000914119
0.000907799
0.000912904
0.000917228
0.000920679
0.000923341
0.000925296
0.000926625
0.0009274
0.00092769
0.000927553
0.000927039
0.000926255
0.000925247
0.000924076
0.000922704
0.000921167
0.000919496
0.000917739
0.000915934
0.0009141
0.000908119
0.000913243
0.000917575
0.000921026
0.00092368
0.000925624
0.000926938
0.000927697
0.000927971
0.000927822
0.000927306
0.000926479
0.00092539
0.000924172
0.000922797
0.000921269
0.000919618
0.000917878
0.000916055
0.000914157
0.000908453
0.000913599
0.00091794
0.000921391
0.000924039
0.000925971
0.000927271
0.000928015
0.000928272
0.000928105
0.00092757
0.000926717
0.000925597
0.000924319
0.000922898
0.000921341
0.000919683
0.000917916
0.000916085
0.000914184
0.000908806
0.000913974
0.000918325
0.000921776
0.000924418
0.00092634
0.000927627
0.000928357
0.000928601
0.000928421
0.000927873
0.000927006
0.000925857
0.000924532
0.000923041
0.000921432
0.000919728
0.00091795
0.000916117
0.000914242
0.000909175
0.000914367
0.000918728
0.000922181
0.000924817
0.00092673
0.000928005
0.000928723
0.000928955
0.000928767
0.000928215
0.000927349
0.000926213
0.000924842
0.00092333
0.000921699
0.000919973
0.000918179
0.000916343
0.000914478
0.000909562
0.000914778
0.000919151
0.000922605
0.000925236
0.000927139
0.000928403
0.000929109
0.00092933
0.000929134
0.000928578
0.000927715
0.000926592
0.000925255
0.000923746
0.000922108
0.000920369
0.000918557
0.000916699
0.000914816
0.000909968
0.000915209
0.000919592
0.000923047
0.000925673
0.000927566
0.000928817
0.000929509
0.000929718
0.000929512
0.000928949
0.000928082
0.00092696
0.000925625
0.000924116
0.00092247
0.00092072
0.000918894
0.000917022
0.000915128
0.000910391
0.000915658
0.000920052
0.000923507
0.000926126
0.000928007
0.000929243
0.00092992
0.000930115
0.000929895
0.000929322
0.000928448
0.000927321
0.000925985
0.000924476
0.000922832
0.000921084
0.000919261
0.000917389
0.000915493
0.000910832
0.000916125
0.00092053
0.000923984
0.000926593
0.00092846
0.000929679
0.000930339
0.000930516
0.000930279
0.000929691
0.000928806
0.00092767
0.000926327
0.000924816
0.000923171
0.000921423
0.0009196
0.000917727
0.000915824
0.000911295
0.000916613
0.000921026
0.000924476
0.000927074
0.000928924
0.000930124
0.000930762
0.000930917
0.000930661
0.000930054
0.000929152
0.000928002
0.000926648
0.000925127
0.000923475
0.000921722
0.000919894
0.000918015
0.000916104
0.000911779
0.000917121
0.00092154
0.000924985
0.000927569
0.000929399
0.000930576
0.000931189
0.00093132
0.000931039
0.000930409
0.000929487
0.000928319
0.000926949
0.000925415
0.000923752
0.00092199
0.000920155
0.00091827
0.000916354
0.000912283
0.000917649
0.000922072
0.000925509
0.000928076
0.000929884
0.000931034
0.00093162
0.000931722
0.000931414
0.000930759
0.000929812
0.000928623
0.000927235
0.000925685
0.000924009
0.000922237
0.000920395
0.000918505
0.000916586
0.000912807
0.000918196
0.000922623
0.00092605
0.000928597
0.000930379
0.0009315
0.000932054
0.000932125
0.000931787
0.000931103
0.00093013
0.000928917
0.000927508
0.000925942
0.000924252
0.000922469
0.000920619
0.000918725
0.000916804
0.000913353
0.000918764
0.000923192
0.000926606
0.000929131
0.000930883
0.000931972
0.000932491
0.000932528
0.000932156
0.000931441
0.000930439
0.000929201
0.000927771
0.000926186
0.000924482
0.000922688
0.000920831
0.000918932
0.000917011
0.000913922
0.000919355
0.000923781
0.000927179
0.000929677
0.000931397
0.000932449
0.00093293
0.000932929
0.00093252
0.000931771
0.000930739
0.000929474
0.00092802
0.000926417
0.000924698
0.000922893
0.000921029
0.000919127
0.000917205
0.000914519
0.000919969
0.000924391
0.000927769
0.000930236
0.000931919
0.00093293
0.000933369
0.000933326
0.000932877
0.000932091
0.000931026
0.000929732
0.000928254
0.00092663
0.000924896
0.000923081
0.000921211
0.000919306
0.000917385
0.000915139
0.000920607
0.00092502
0.000928374
0.000930806
0.000932447
0.000933411
0.000933804
0.000933715
0.000933223
0.000932396
0.000931295
0.00092997
0.000928466
0.000926822
0.000925073
0.000923248
0.000921372
0.000919467
0.000917548
0.000915788
0.000921268
0.000925668
0.000928992
0.000931384
0.000932977
0.00093389
0.00093423
0.00093409
0.00093355
0.000932679
0.000931539
0.000930181
0.00092865
0.000926985
0.000925221
0.000923387
0.000921507
0.000919603
0.000917689
0.000916463
0.000921952
0.000926333
0.000929621
0.000931966
0.000933503
0.000934358
0.000934639
0.000934441
0.000933848
0.000932929
0.000931746
0.000930352
0.000928792
0.000927106
0.000925327
0.000923485
0.000921605
0.000919704
0.000917799
0.00091716
0.000922654
0.00092701
0.000930254
0.000932542
0.000934016
0.000934804
0.000935018
0.000934755
0.000934101
0.000933128
0.000931899
0.000930466
0.000928876
0.000927167
0.000925375
0.000923528
0.000921648
0.000919756
0.000917866
0.000917881
0.000923371
0.000927691
0.00093088
0.0009331
0.000934499
0.000935209
0.000935345
0.000935008
0.000934285
0.000933251
0.000931969
0.000930493
0.00092887
0.00092714
0.000925335
0.000923485
0.000921613
0.000919735
0.000917866
0.000918619
0.000924093
0.000928363
0.000931482
0.000933619
0.000934928
0.000935544
0.000935588
0.000935163
0.00093436
0.000933255
0.000931913
0.000930389
0.000928731
0.000926978
0.000925164
0.000923316
0.000921457
0.000919603
0.000917766
0.000919366
0.000924804
0.000929003
0.000932031
0.000934064
0.000935261
0.000935763
0.000935696
0.000935166
0.000934266
0.000933077
0.000931664
0.000930085
0.000928387
0.000926612
0.000924792
0.000922954
0.000921119
0.000919301
0.000917512
0.00092011
0.000925481
0.000929577
0.000932483
0.000934382
0.000935437
0.000935796
0.000935589
0.000934928
0.000933909
0.000932615
0.000931117
0.000929472
0.00092773
0.000925932
0.000924111
0.000922293
0.000920497
0.000918737
0.000917019
0.000920806
0.000926072
0.000930025
0.000932766
0.000934486
0.000935356
0.00093553
0.000935143
0.000934313
0.000933141
0.000931715
0.000930108
0.000928381
0.000926587
0.000924766
0.000922951
0.000921169
0.000919436
0.000917763
0.000916154
0.000921418
0.000926516
0.000930259
0.000932771
0.000934248
0.000934868
0.000934793
0.000934165
0.000933109
0.000931734
0.000930131
0.000928381
0.000926548
0.000924688
0.000922842
0.000921046
0.000919322
0.000917687
0.000916147
0.000914703
0.000921881
0.00092671
0.000930145
0.000932329
0.000933464
0.000933737
0.000933318
0.000932358
0.000930991
0.000929334
0.000927488
0.000925541
0.000923563
0.000921614
0.000919741
0.000917977
0.000916346
0.000914861
0.000913524
0.000912331
0.000922077
0.000926492
0.00092947
0.000931179
0.000931827
0.000931607
0.000930701
0.00092927
0.000927462
0.000925404
0.000923213
0.000920983
0.000918799
0.000916725
0.000914814
0.000913102
0.000911612
0.000910353
0.000909324
0.000908511
0.000921862
0.000925635
0.00092793
0.000928941
0.000928881
0.000927952
0.000926345
0.000924237
0.000921791
0.000919154
0.000916458
0.000913817
0.000911327
0.000909067
0.000907097
0.000905457
0.000904171
0.000903247
0.000902675
0.000902434
0.000921056
0.000923812
0.00092508
0.000925066
0.000923976
0.00092202
0.0009194
0.000916314
0.000912945
0.000909465
0.000906031
0.000902781
0.000899833
0.000897285
0.00089521
0.000893658
0.000892656
0.000892208
0.0008923
0.0008929
0.000919272
0.000920493
0.000920281
0.000918787
0.000916221
0.000912796
0.000908733
0.000904251
0.000899562
0.000894872
0.00089037
0.000886229
0.000882599
0.000879604
0.000877339
0.000875868
0.000875228
0.000875424
0.000876437
0.000878227
0.000915976
0.000915146
0.000912748
0.000909143
0.000904499
0.00089903
0.000892968
0.000886557
0.000880045
0.000873676
0.000867685
0.000862287
0.000857672
0.000854
0.000851398
0.000849953
0.000849718
0.00085071
0.000852913
0.000856285
0.000910389
0.000906675
0.00090153
0.000895004
0.000887566
0.000879383
0.000870696
0.000861771
0.00085289
0.000844339
0.000836402
0.000829342
0.000823395
0.000818761
0.000815604
0.000814044
0.000814163
0.000816001
0.000819566
0.000824835
0.000901942
0.000893743
0.000885113
0.000875293
0.000864309
0.000852788
0.000840943
0.000829039
0.000817366
0.000806251
0.000796029
0.000787002
0.000779437
0.000773569
0.000769596
0.000767675
0.000767925
0.000770432
0.000775253
0.000782427
0.000889734
0.000876242
0.000862388
0.000848634
0.000834307
0.000819028
0.000803885
0.000788966
0.000774473
0.000760767
0.000748282
0.000737299
0.000728073
0.000720852
0.000715851
0.00071325
0.000713209
0.000715872
0.000721379
0.000729877
0.000872987
0.000853384
0.000834084
0.000815571
0.000797426
0.00077928
0.000761558
0.000744507
0.00072778
0.000711892
0.000697795
0.000685409
0.000674883
0.000666494
0.000660437
0.000656886
0.000656017
0.000658028
0.000663157
0.000671693
0.000851569
0.00082547
0.000801301
0.000778605
0.000757445
0.000737013
0.000717473
0.000698924
0.000681547
0.000665683
0.000651575
0.000638961
0.000627784
0.00061876
0.000611898
0.000607318
0.000605175
0.000605689
0.000609167
0.000616027
0.000826039
0.000794074
0.000766237
0.00074143
0.00071856
0.000697543
0.000678322
0.000660409
0.000644021
0.000629198
0.000615997
0.000604424
0.000594388
0.000585463
0.000578297
0.000572871
0.000569294
0.000567763
0.000568594
0.000572264
0.00079785
0.000761953
0.000732686
0.000708061
0.000686487
0.000667222
0.000649805
0.000634168
0.00062052
0.000608154
0.000597148
0.00058746
0.000578938
0.000571311
0.000564317
0.000558401
0.000553549
0.000549895
0.000547709
0.000547428
0.000769269
0.000732439
0.000704679
0.000682894
0.000664876
0.000649494
0.000636121
0.0006244
0.000614061
0.000604779
0.000596525
0.000589372
0.000582741
0.000576519
0.000570316
0.000564266
0.000558495
0.000553035
0.000548076
0.000543948
0.000743067
0.000708903
0.000685651
0.000669073
0.000656428
0.0006463
0.000637897
0.000630728
0.000624441
0.000618753
0.000613445
0.000608353
0.000603549
0.000598723
0.000593429
0.000587641
0.000581318
0.000574505
0.000567348
0.000560035
0.000722015
0.000694057
0.000677801
0.000668079
0.000661835
0.000657537
0.000654345
0.000651755
0.000649425
0.000647104
0.000644589
0.000641717
0.000638418
0.000634678
0.000630147
0.000624712
0.000618064
0.000610284
0.000601514
0.0005918
0.000708419
0.00068956
0.000681935
0.000679879
0.000680324
0.000681808
0.000683578
0.000685205
0.000686422
0.000687041
0.000686918
0.000685934
0.000684011
0.000681113
0.000677168
0.000672083
0.000665304
0.000656825
0.000646866
0.000635379
0.00070385
0.000696001
0.000697757
0.000703489
0.000710409
0.000717294
0.000723566
0.000728936
0.00073324
0.000736375
0.000738262
0.000738836
0.00073804
0.000735822
0.000732237
0.000727412
0.000720714
0.000711733
0.000700845
0.000687976
0.00070909
0.000713161
0.000724352
0.000737565
0.00075052
0.000762328
0.000772642
0.00078133
0.000788346
0.000793671
0.000797292
0.000799193
0.000799346
0.000797709
0.000794422
0.000789801
0.000783106
0.000773684
0.000761979
0.000747921
0.000724247
0.000740331
0.000760582
0.000780791
0.000799301
0.000815601
0.000829581
0.00084127
0.000850731
0.000858027
0.000863205
0.000866292
0.00086729
0.000866173
0.000863099
0.000858567
0.000851845
0.000841989
0.000829466
0.000814272
0.000748946
0.000776595
0.000805333
0.000832025
0.000855665
0.000876113
0.000893485
0.000907955
0.000919686
0.000928813
0.000935436
0.000939629
0.000941439
0.000940901
0.000938052
0.000933365
0.000926492
0.000916175
0.000902781
0.00088642
0.000782517
0.000820986
0.000857583
0.000890283
0.000918699
0.000943031
0.000963594
0.000980692
0.000994574
0.00100543
0.00101341
0.00101863
0.00102114
0.001021
0.00101825
0.00101343
0.00100637
0.000995613
0.000981314
0.000963757
0.000824132
0.000872538
0.000916365
0.000954634
0.000987517
0.00101551
0.0010391
0.0010587
0.00107464
0.00108715
0.00109642
0.00110257
0.0011057
0.00110585
0.00110305
0.00109784
0.00109042
0.00107943
0.00106426
0.00104549
0.000872865
0.000930244
0.000980656
0.00102405
0.00106109
0.00109251
0.00111895
0.00114093
0.00115882
0.0011729
0.00118338
0.0011904
0.00119407
0.00119444
0.00119156
0.00118599
0.00117807
0.00116652
0.0011505
0.00113047
0.000927674
0.000992969
0.00104925
0.00109727
0.00113807
0.00117263
0.0012017
0.00122587
0.00124556
0.00126108
0.00127265
0.00128044
0.00128455
0.00128504
0.00128197
0.00127593
0.0012673
0.00125507
0.00123822
0.00121678
0.000987336
0.00105932
0.00112059
0.00117256
0.00121662
0.0012539
0.00128526
0.00131135
0.00133261
0.00134937
0.00136186
0.00137025
0.00137463
0.0013751
0.00137167
0.00136489
0.00135501
0.00134146
0.00132385
0.0013014
0.00105033
0.0011275
0.00119262
0.00124766
0.00129423
0.00133363
0.00136678
0.00139436
0.00141686
0.00143456
0.00144766
0.00145637
0.00146082
0.00146108
0.00145715
0.0014495
0.00143818
0.00142279
0.00140331
0.00137977
0.00111474
0.00119516
0.00126262
0.00131947
0.00136753
0.00140818
0.00144239
0.00147085
0.00149411
0.00151236
0.00152551
0.00153409
0.00153829
0.00153814
0.00153359
0.00152484
0.00151165
0.00149409
0.00147231
0.0014466
0.00117808
0.00125926
0.00132703
0.001384
0.00143213
0.00147284
0.00150708
0.00153539
0.001559
0.00157786
0.0015924
0.00160172
0.00160549
0.00160366
0.00159664
0.00158517
0.00156924
0.00154904
0.00152473
0.00149636
0.00123723
0.00131599
0.00138138
0.00143621
0.00148252
0.00152174
0.00155473
0.00158258
0.00160406
0.0016188
0.00162883
0.00163421
0.00163632
0.0016323
0.00162291
0.00160914
0.00159082
0.00156808
0.00154132
0.00151083
0.00128839
0.00136069
0.00142028
0.00147016
0.00151122
0.00154535
0.00157479
0.00159922
0.00161945
0.0016368
0.00164854
0.00165385
0.0016508
0.0016431
0.00162963
0.00161089
0.00158778
0.00155953
0.00152679
0.00149098
0.00132711
0.00138809
0.00143793
0.00147683
0.0015098
0.00154005
0.00156491
0.00158584
0.00160335
0.00161658
0.00162454
0.00162671
0.00162221
0.00161044
0.00159096
0.00156492
0.00153472
0.00149936
0.00145897
0.0014141
0.00134853
0.00139333
0.00142584
0.00145409
0.00147758
0.00149618
0.0015134
0.00152909
0.00154263
0.00155295
0.00155859
0.00155794
0.00154938
0.00153149
0.00150336
0.00146638
0.00142437
0.0013759
0.00132143
0.00126231
0.00134807
0.00136775
0.00138065
0.001389
0.00139664
0.00140456
0.00141371
0.00142403
0.00143447
0.00144314
0.00144745
0.00144448
0.00143131
0.00140544
0.00136512
0.00131236
0.0012516
0.00118119
0.0011056
0.00102766
0.00132143
0.00131132
0.0012968
0.00128221
0.00127119
0.00126534
0.00126556
0.00127149
0.00128121
0.00129122
0.00129693
0.00129326
0.00127535
0.0012393
0.00118269
0.00110946
0.0010233
0.000925156
0.000824581
0.000727484
0.00126254
0.00121687
0.0011718
0.00113313
0.00110247
0.00108308
0.00107649
0.00108219
0.00109673
0.00111373
0.00112504
0.00112226
0.00109837
0.00104887
0.000972523
0.000877309
0.000766145
0.000649026
0.00053532
0.000434095
0.00117199
0.00109079
0.00101587
0.000952043
0.000903921
0.00087573
0.000868703
0.000882072
0.000909652
0.0009396
0.000958387
0.00095435
0.000920509
0.000855746
0.000770249
0.000670266
0.00056218
0.000450062
0.000352218
0.000284055
0.00104882
0.000936557
0.000836978
0.00075668
0.000701861
0.000681404
0.000695567
0.000736158
0.000790362
0.000834989
0.000855825
0.000846017
0.000805013
0.000739917
0.000650667
0.000543956
0.000432484
0.000328994
0.00025889
0.000212784
0.000892864
0.000759652
0.000651201
0.000581472
0.000557258
0.000582029
0.000648604
0.000727351
0.000790262
0.000826499
0.000834474
0.000812833
0.000763244
0.000684878
0.000581529
0.00046355
0.000345535
0.000260963
0.000204803
0.000183134
0.000706683
0.000570476
0.00048264
0.000452472
0.000488348
0.000573699
0.000668198
0.0007485
0.000804504
0.000833731
0.00083323
0.000802833
0.000742728
0.000652393
0.00053786
0.000411035
0.000291805
0.000216051
0.000181376
0.000186229
0.000490067
0.000382954
0.000342571
0.000384638
0.000482928
0.000596009
0.00069613
0.000772369
0.000820975
0.000841379
0.000834754
0.00080045
0.000736261
0.000640721
0.000518339
0.000383167
0.000261713
0.000192097
0.000179907
0.000202522
0.000279753
0.00023176
0.000271171
0.000372313
0.000500045
0.000622549
0.000720513
0.000788481
0.000828665
0.000844125
0.000836704
0.000804496
0.000743695
0.000649896
0.000524821
0.000384438
0.000261957
0.000192037
0.000188252
0.000214156
0.000180569
0.000178566
0.000250666
0.000375779
0.00051778
0.000643083
0.000736635
0.000798188
0.000832908
0.000846164
0.000840691
0.000814637
0.000763555
0.000678864
0.000556316
0.000408491
0.000273572
0.000197077
0.000190659
0.000213946
0.000152656
0.000162908
0.000240308
0.00037947
0.000533846
0.00066426
0.000755033
0.000809571
0.000837424
0.000847732
0.000845216
0.00082927
0.000792544
0.00072539
0.000616082
0.00046735
0.000314243
0.000214514
0.000190836
0.000212851
0.000144376
0.000151596
0.000237345
0.000397273
0.00057028
0.00070273
0.000783292
0.0008256
0.000844798
0.000850826
0.000849779
0.000841962
0.000821999
0.000777248
0.000691106
0.000551388
0.000377948
0.000240421
0.00019498
0.000210837
0.000148899
0.000155445
0.000266721
0.0004657
0.00065245
0.000765688
0.000819473
0.000841286
0.000849241
0.000851562
0.00085102
0.00084748
0.000837887
0.00081561
0.000767708
0.000666766
0.000497651
0.000312162
0.000214109
0.000210281
0.000154182
0.000209395
0.000412438
0.000641125
0.000764909
0.000817091
0.00083966
0.000848666
0.00085126
0.000852133
0.000851954
0.000850885
0.000848946
0.00084325
0.000823129
0.000772134
0.00065665
0.000461213
0.000290179
0.000226718
0.000326123
0.000506931
0.000753306
0.000842525
0.000856558
0.000856578
0.000854195
0.00085261
0.000852454
0.000852254
0.000852123
0.000851939
0.000851133
0.000848028
0.000837717
0.00080345
0.000710819
0.000536173
0.000340785
0.000251464
0.000907699
0.000908199
0.000908874
0.000909421
0.00090984
0.000910138
0.000910324
0.000910407
0.000910394
0.000910297
0.000910123
0.000909884
0.000909594
0.000909258
0.000908863
0.000908418
0.000907921
0.000907365
0.000906743
0.000906048
0.000907547
0.000908053
0.000908721
0.000909261
0.000909674
0.000909964
0.000910139
0.000910205
0.000910171
0.00091005
0.000909851
0.000909589
0.00090928
0.000908933
0.000908535
0.000908096
0.000907614
0.00090708
0.000906483
0.000905819
0.000907492
0.000907987
0.000908648
0.000909183
0.000909591
0.000909873
0.000910031
0.00091007
0.000909998
0.000909831
0.000909587
0.000909281
0.000908936
0.000908565
0.000908153
0.000907714
0.00090725
0.000906747
0.000906177
0.000905553
0.000907451
0.000907932
0.000908586
0.000909121
0.000909533
0.000909814
0.00090996
0.000909964
0.000909828
0.000909588
0.000909281
0.000908939
0.000908588
0.000908233
0.000907844
0.000907426
0.000906975
0.000906479
0.000905923
0.000905321
0.000907414
0.00090787
0.000908515
0.000909059
0.000909491
0.000909798
0.000909954
0.000909928
0.00090974
0.000909507
0.000909254
0.000909006
0.00090867
0.000908329
0.00090796
0.00090756
0.000907113
0.000906612
0.000906065
0.00090547
0.000907388
0.000907787
0.000908402
0.00090897
0.000909453
0.000909839
0.000910084
0.000910114
0.000909944
0.00090977
0.000909579
0.000909393
0.000909063
0.000908789
0.000908448
0.000908051
0.000907618
0.000907123
0.000906577
0.000905959
0.000907542
0.000907898
0.000908453
0.000909015
0.000909567
0.000910063
0.000910398
0.000910521
0.000910426
0.000910269
0.000910097
0.00090985
0.000909504
0.000909218
0.00090886
0.000908498
0.00090804
0.000907539
0.000907031
0.000906372
0.000907909
0.000908274
0.000908783
0.000909336
0.00090995
0.000910462
0.000910776
0.000910928
0.000910928
0.000910776
0.000910655
0.00091036
0.000909922
0.000909502
0.000909131
0.000908828
0.00090828
0.000907775
0.000907313
0.000906637
0.000908294
0.000908738
0.0009093
0.000909864
0.000910435
0.000910831
0.000911081
0.000911207
0.000911214
0.00091112
0.000910952
0.000910699
0.000910362
0.00090995
0.00090959
0.000909238
0.000908703
0.000908171
0.000907633
0.000906945
0.00090846
0.000908971
0.000909633
0.000910183
0.000910622
0.000910941
0.000911113
0.000911198
0.00091123
0.00091117
0.000911041
0.000910839
0.000910572
0.000910266
0.000909892
0.000909435
0.000908903
0.000908318
0.000907704
0.00090705
0.000908197
0.000908722
0.000909432
0.000909977
0.000910345
0.000910655
0.000910833
0.000910934
0.000911014
0.000910975
0.000910843
0.000910622
0.000910324
0.000909982
0.000909565
0.000909044
0.000908497
0.000907923
0.000907312
0.000906652
0.000907598
0.000908142
0.000908906
0.000909458
0.000909929
0.000910377
0.000910626
0.000910717
0.000910701
0.000910589
0.000910381
0.000910122
0.000909792
0.000909439
0.000909037
0.000908516
0.000907995
0.000907444
0.00090678
0.000906036
0.000907021
0.000907624
0.000908413
0.000909094
0.000909778
0.000910255
0.000910428
0.00091043
0.000910301
0.000910141
0.00090994
0.00090974
0.000909416
0.000909105
0.000908795
0.000908352
0.000907845
0.000907275
0.000906555
0.000905824
0.000906926
0.000907516
0.000908278
0.000909016
0.000909685
0.000910062
0.000910188
0.000910196
0.000910108
0.00090993
0.000909779
0.000909664
0.000909384
0.000909119
0.000908831
0.000908393
0.000907873
0.000907281
0.000906597
0.000905973
0.000907374
0.000907886
0.000908555
0.000909131
0.00090963
0.000909933
0.000910102
0.000910153
0.000910096
0.000909928
0.000909808
0.000909714
0.000909498
0.000909203
0.000908795
0.000908316
0.000907779
0.000907201
0.000906597
0.000905971
0.000907915
0.000908317
0.000908879
0.000909312
0.00090963
0.000909853
0.000909993
0.000910031
0.000909981
0.00090988
0.000909742
0.00090954
0.000909293
0.00090899
0.000908578
0.000908065
0.000907479
0.000906843
0.000906181
0.000905495
0.000908353
0.000908758
0.000909307
0.000909715
0.000909986
0.000910122
0.000910219
0.000910165
0.000910052
0.00090991
0.000909722
0.000909467
0.000909176
0.000908834
0.000908395
0.000907887
0.000907331
0.00090674
0.00090613
0.000905397
0.000908961
0.000909389
0.000909958
0.000910381
0.000910648
0.000910738
0.000910811
0.000910627
0.000910473
0.000910292
0.000910051
0.000909753
0.000909411
0.000909047
0.000908609
0.000908121
0.000907608
0.000907064
0.000906485
0.000905718
0.000909432
0.000909883
0.00091047
0.000910911
0.000911211
0.000911375
0.000911405
0.000911276
0.000911144
0.000910958
0.000910706
0.000910377
0.000909973
0.000909586
0.000909147
0.000908681
0.00090823
0.000907696
0.000907065
0.000906328
0.000909809
0.000910294
0.000910901
0.000911357
0.000911671
0.000911858
0.000911934
0.000911912
0.000911809
0.000911631
0.000911378
0.000911041
0.000910613
0.000910232
0.000909814
0.000909384
0.000908966
0.000908412
0.000907757
0.000906993
0.000910102
0.0009106
0.000911214
0.000911672
0.000911987
0.000912173
0.000912248
0.000912227
0.000912124
0.00091195
0.000911713
0.000911422
0.000911101
0.000910757
0.00091035
0.000909899
0.000909395
0.000908826
0.000908183
0.000907457
0.000910367
0.000910876
0.000911495
0.000911957
0.000912274
0.00091246
0.000912533
0.000912509
0.000912404
0.000912228
0.000911993
0.000911709
0.000911398
0.000911066
0.000910667
0.000910222
0.000909723
0.000909163
0.000908531
0.000907821
0.000910625
0.000911145
0.000911773
0.000912243
0.000912566
0.000912759
0.000912837
0.000912816
0.000912713
0.000912539
0.000912305
0.000912022
0.000911712
0.000911382
0.000910985
0.000910543
0.000910047
0.000909492
0.000908868
0.000908169
0.00091087
0.000911403
0.000912039
0.000912518
0.000912851
0.000913052
0.000913138
0.000913126
0.00091303
0.000912861
0.000912631
0.000912349
0.00091204
0.000911707
0.000911307
0.00091086
0.000910361
0.000909804
0.000909181
0.000908487
0.000911096
0.000911638
0.000912279
0.000912764
0.000913103
0.000913311
0.000913405
0.000913401
0.000913311
0.000913148