/*--------------------------------*- C++ -*----------------------------------*\
  =========                 |
  \\      /  F ield         | OpenFOAM: The Open Source CFD Toolbox
   \\    /   O peration     | Website:  https://openfoam.org
    \\  /    A nd           | Version:  6
     \\/     M anipulation  |
\*---------------------------------------------------------------------------*/
FoamFile
{
    version     2.0;
    format      ascii;
    class       volScalarField;
    location    "24";
    object      p;
}
// * * * * * * * * * * * * * * * * * * * * * * * * * * * * * * * * * * * * * //

dimensions      [0 2 -2 0 0 0 0];

internalField   nonuniform List<scalar> 
130000
(
0.00590427
0.00510197
0.0045663
0.00415341
0.00378881
0.00346294
0.00317078
0.0029068
0.00266578
0.00244379
0.00223669
0.00204245
0.00185723
0.00168005
0.00150809
0.00134079
0.0011759
0.00101241
0.000845073
0.000685553
0.00566707
0.00529688
0.00485879
0.00450881
0.00419015
0.00389309
0.00360974
0.00333794
0.00307448
0.00281544
0.00256093
0.00230651
0.00205522
0.00180266
0.00155199
0.00129989
0.00105013
0.000795575
0.000534957
0.000270167
0.0067366
0.00617745
0.00561353
0.00515002
0.00472769
0.00433137
0.00395352
0.00358857
0.00323529
0.00288668
0.00254628
0.00220689
0.0018748
0.00154161
0.00121598
0.000887907
0.000567677
0.000242762
-8.09733e-05
-0.000409998
0.00697153
0.0065459
0.00604494
0.0055955
0.00515832
0.00472482
0.00429796
0.00387128
0.00345089
0.00302759
0.00261198
0.00219235
0.00178249
0.00136832
0.000964206
0.00055552
0.000158404
-0.000245402
-0.000640699
-0.00104102
0.00701648
0.0066713
0.006229
0.00580313
0.00537122
0.00492429
0.0044757
0.00401442
0.00355447
0.00308221
0.00261541
0.00213809
0.00166926
0.00119037
0.000722858
0.000245825
-0.000217402
-0.000690037
-0.00115015
-0.001618
0.00678642
0.00653419
0.00615362
0.00576109
0.00534489
0.0048975
0.00444166
0.00396051
0.00347528
0.00296666
0.00246065
0.00193484
0.00141721
0.000882816
0.000360177
-0.000176583
-0.000697329
-0.00123157
-0.00174938
-0.00227942
0.00646833
0.00627241
0.00594145
0.00557636
0.00518176
0.00474019
0.00428582
0.00379199
0.00328951
0.00275178
0.00221336
0.00164677
0.00108653
0.000503075
-6.79984e-05
-0.000658616
-0.00123186
-0.00182155
-0.00239229
-0.00297968
0.00600325
0.00586197
0.00558289
0.00525944
0.00489448
0.00446691
0.00401842
0.00351839
0.00300379
0.0024439
0.00187997
0.00127935
0.000684238
5.94786e-05
-0.000553467
-0.00119077
-0.00180965
-0.00244952
-0.00306783
-0.00370755
0.0054694
0.00537805
0.00514041
0.00485668
0.00451552
0.00410084
0.00365643
0.00315241
0.00262752
0.00204985
0.00146356
0.000834838
0.000208374
-0.000452955
-0.00110339
-0.00178314
-0.00244469
-0.00313021
-0.00379351
-0.00448301
0.0049187
0.00485616
0.0046516
0.0043971
0.00407519
0.00367019
0.00322906
0.00272134
0.00218744
0.0015941
0.000988716
0.000334457
-0.000318906
-0.00101242
-0.00169631
-0.00241383
-0.00311294
-0.00384053
-0.00454446
-0.00527957
0.00431844
0.0042948
0.00412046
0.00389062
0.00358347
0.00318488
0.00274548
0.00223341
0.00169109
0.00108346
0.000460307
-0.000216276
-0.000894911
-0.00161817
-0.00233299
-0.003086
-0.00382134
-0.00458804
-0.00533131
-0.00611051
0.00369355
0.00368654
0.00353712
0.00333011
0.00304015
0.00265017
0.00221518
0.00170166
0.00115371
0.000534589
-0.000103036
-0.000799879
-0.00150012
-0.00224993
-0.00299277
-0.00377799
-0.00454575
-0.00534936
-0.00612871
-0.00694908
0.00303616
0.00305324
0.00292578
0.00274363
0.00246723
0.00208538
0.00165294
0.00113848
0.000584716
-4.44372e-05
-0.000696207
-0.00141067
-0.00213216
-0.00290691
-0.00367662
-0.00449273
-0.00529293
-0.00613153
-0.00694695
-0.00780775
0.00239193
0.00243367
0.00232441
0.00215914
0.00189162
0.00151527
0.00108423
0.000567866
8.08781e-06
-0.000631072
-0.00129593
-0.00202802
-0.00276888
-0.00356716
-0.00436232
-0.00520766
-0.00603787
-0.00691057
-0.00776006
-0.00865969
0.00180224
0.00185183
0.00175279
0.001591
0.00132631
0.00095038
0.000518564
-2.06153e-06
-0.000568944
-0.00121873
-0.00189764
-0.00264629
-0.00340743
-0.00422856
-0.00504953
-0.00592341
-0.00678489
-0.0076903
-0.00857518
-0.00951303
0.00118608
0.00125748
0.00117557
0.00102572
0.000767928
0.00039598
-3.45047e-05
-0.000557521
-0.00113074
-0.00179031
-0.0024823
-0.00324756
-0.00402783
-0.00487131
-0.00571729
-0.00661914
-0.00751042
-0.00844887
-0.00936806
-0.010344
0.000599034
0.000676872
0.000609407
0.000475092
0.000225368
-0.000140294
-0.000568729
-0.00109195
-0.00167131
-0.00233905
-0.00304488
-0.00382483
-0.00462551
-0.00548995
-0.00636204
-0.00729053
-0.00821356
-0.00918308
-0.0101386
-0.0111511
1.31725e-05
0.000124056
7.74584e-05
-3.21833e-05
-0.000273664
-0.000632721
-0.00106044
-0.00158363
-0.00216993
-0.00284613
-0.00356586
-0.00436135
-0.0051819
-0.00606794
-0.00696574
-0.00792172
-0.00887549
-0.00987778
-0.0108691
-0.0119198
-0.000455414
-0.000335528
-0.000372155
-0.000472236
-0.000711105
-0.00106856
-0.00149854
-0.00202315
-0.00261745
-0.0033021
-0.00403705
-0.00484681
-0.00568882
-0.00659479
-0.00751985
-0.00850125
-0.00948793
-0.0105203
-0.0115495
-0.0126356
-0.000872521
-0.00073333
-0.000756674
-0.000847248
-0.00108278
-0.00143961
-0.00187282
-0.00239992
-0.003002
-0.00369546
-0.00444515
-0.0052703
-0.00613296
-0.00706041
-0.00801194
-0.00902076
-0.0100392
-0.0111044
-0.0121709
-0.0132959
-0.00124031
-0.00109144
-0.00109732
-0.00117136
-0.00139756
-0.00174762
-0.00218118
-0.00270817
-0.00331661
-0.004016
-0.00478017
-0.00561807
-0.00650225
-0.0074482
-0.00842756
-0.00946056
-0.0105127
-0.0116068
-0.0127124
-0.0138718
-0.00159281
-0.00139952
-0.00137937
-0.0014236
-0.00163728
-0.00197574
-0.00240855
-0.00293438
-0.0035495
-0.00425414
-0.00503166
-0.00588276
-0.00678724
-0.00775373
-0.00875975
-0.00982003
-0.0109048
-0.0120321
-0.0131765
-0.0143756
-0.00177855
-0.00157084
-0.00153715
-0.00156367
-0.00177032
-0.00209982
-0.00253287
-0.00305724
-0.0036803
-0.0043893
-0.00518069
-0.00604254
-0.00696838
-0.00795188
-0.00898613
-0.0100695
-0.0111891
-0.012345
-0.0135299
-0.014763
-0.00189171
-0.00165137
-0.00159736
-0.00160333
-0.00180023
-0.0021198
-0.0025509
-0.0030729
-0.0037031
-0.00441761
-0.00522197
-0.00609571
-0.00704122
-0.00804461
-0.00910557
-0.0102164
-0.0113694
-0.0125594
-0.0137845
-0.0150585
-0.00188152
-0.00162803
-0.00155214
-0.00153381
-0.00171618
-0.00202122
-0.00244699
-0.00296264
-0.00359759
-0.00431536
-0.00513268
-0.00601551
-0.00698088
-0.00799977
-0.00908846
-0.0102215
-0.0114094
-0.0126273
-0.0138937
-0.0152016
-0.00185517
-0.00153247
-0.00141697
-0.00135737
-0.00151758
-0.0018021
-0.00221854
-0.00272515
-0.00336177
-0.00408224
-0.00491093
-0.00580451
-0.00678769
-0.0078251
-0.00893925
-0.0100991
-0.0113198
-0.0125716
-0.0138785
-0.0152288
-0.00156957
-0.00123193
-0.00109376
-0.00100994
-0.00115373
-0.00142282
-0.00183081
-0.00232899
-0.00296602
-0.00368743
-0.00452688
-0.00542971
-0.00643157
-0.00748413
-0.00862447
-0.00980625
-0.011061
-0.012341
-0.0136889
-0.0150748
-0.00121834
-0.000822673
-0.000643727
-0.00052572
-0.000645388
-0.000895516
-0.00129076
-0.00177926
-0.00241367
-0.00313551
-0.00398287
-0.00489646
-0.00591535
-0.00698697
-0.00815182
-0.0093604
-0.0106471
-0.0119614
-0.0133493
-0.0147787
-0.000632095
-0.000213873
-3.00313e-06
0.000142474
4.56852e-05
-0.00018661
-0.000568126
-0.00104623
-0.00167638
-0.00239705
-0.00325099
-0.00417295
-0.0052087
-0.00629677
-0.00748673
-0.00871879
-0.0100386
-0.0113827
-0.012811
-0.0142787
3.84757e-05
0.000520909
0.000780512
0.000967925
0.000902317
0.000694476
0.000331375
-0.000133165
-0.000756096
-0.00147417
-0.00233168
-0.00326185
-0.00431156
-0.00541802
-0.00663136
-0.00789073
-0.009242
-0.0106214
-0.0120894
-0.0136021
0.000968253
0.00148302
0.00178088
0.00200392
0.00196727
0.00178336
0.00143917
0.000989329
0.000375011
-0.000338568
-0.00119831
-0.00213397
-0.00319672
-0.00431876
-0.00555547
-0.00683971
-0.00822358
-0.00963535
-0.0111438
-0.0126984
0.00201911
0.00260473
0.00295778
0.00323002
0.00323082
0.00307714
0.00275668
0.00232499
0.00172245
0.00101519
0.000156081
-0.000784649
-0.00185755
-0.00299563
-0.00425349
-0.00556468
-0.00697961
-0.00842782
-0.00997639
-0.0115785
0.0033499
0.00397556
0.00437594
0.00469149
0.00472907
0.00460568
0.00431058
0.00389873
0.00331003
0.00261117
0.00175412
0.000810969
-0.000271279
-0.00142271
-0.00270096
-0.00403654
-0.00548338
-0.00696596
-0.0085562
-0.0102044
0.00482723
0.00553392
0.0060001
0.00637369
0.0064576
0.0063718
0.00610781
0.00572008
0.00514902
0.00446098
0.00360921
0.00266455
0.00157593
0.00041114
-0.000885496
-0.00224653
-0.00372335
-0.00524306
-0.00687445
-0.00857289
0.0066084
0.00736904
0.00789428
0.00832164
0.00845237
0.00840555
0.00817536
0.00781439
0.00726382
0.00658931
0.00574466
0.00480133
0.00370716
0.00253131
0.00121663
-0.000167832
-0.00167537
-0.00322994
-0.00490361
-0.00665127
0.0085745
0.00942899
0.0100317
0.0105282
0.0107158
0.010716
0.010526
0.0101968
0.00967129
0.0090135
0.00817962
0.00723889
0.00614222
0.0049557
0.00362496
0.00221621
0.000679502
-0.000912512
-0.00262819
-0.00442891
0.0108838
0.011803
0.0124777
0.0130392
0.0132852
0.0133343
0.0131879
0.0128939
0.0123969
0.0117593
0.0109387
0.0100039
0.00890575
0.00771098
0.0063645
0.00493311
0.00336594
0.00173793
-2.17204e-05
-0.00187531
0.0134078
0.0144366
0.0152036
0.0158476
0.0161633
0.0162708
0.0161754
0.0159227
0.0154596
0.0148462
0.0140431
0.0131162
0.01202
0.0108176
0.00945724
0.00800242
0.00640615
0.00473935
0.00293554
0.00102507
0.0163124
0.0174242
0.0182785
0.0190025
0.0193901
0.0195592
0.0195189
0.0193118
0.0188867
0.0183017
0.017519
0.0166039
0.0155112
0.0143038
0.0129302
0.0114537
0.00982704
0.00812265
0.00627265
0.0043052
0.0194743
0.0207139
0.0216767
0.022499
0.0229707
0.0232117
0.0232348
0.0230803
0.0226992
0.0221474
0.0213901
0.0204894
0.0194041
0.0181931
0.0168085
0.0153099
0.0136542
0.0119097
0.0100133
0.00798492
0.0230637
0.0244024
0.0254695
0.0263877
0.0269467
0.0272636
0.0273553
0.0272585
0.0269267
0.026413
0.025685
0.0248033
0.0237276
0.0225162
0.0211218
0.0196031
0.0179176
0.0161343
0.0141895
0.0120996
0.0269437
0.0284314
0.0296269
0.0306616
0.0313221
0.0317269
0.031897
0.0318664
0.0315911
0.0311217
0.030429
0.02957
0.0285088
0.0272991
0.0258978
0.0243594
0.0226458
0.0208214
0.0188279
0.0166724
0.0312932
0.032903
0.0342232
0.0353738
0.0361402
0.0366385
0.0368936
0.0369359
0.0367238
0.036305
0.0356528
0.0348224
0.0337791
0.0325753
0.031169
0.0296134
0.0278713
0.0260073
0.0239631
0.0217411
0.0359768
0.0377583
0.0392288
0.0405172
0.0414056
0.0420109
0.0423625
0.042488
0.0423481
0.0419876
0.0413836
0.040587
0.0395677
0.0383733
0.036966
0.0353943
0.033626
0.0317206
0.0296256
0.027333
0.0411721
0.0430975
0.0447166
0.0461436
0.0471603
0.0478801
0.0483371
0.0485544
0.0484955
0.048202
0.0476532
0.0468982
0.0459079
0.0447286
0.0433235
0.0417395
0.0399454
0.0380005
0.0358528
0.0334886
0.0467324
0.0488552
0.0506508
0.0522416
0.053405
0.0542561
0.0548327
0.0551552
0.055189
0.0549731
0.0544896
0.053784
0.0528311
0.0516723
0.0502749
0.048681
0.0468644
0.0448791
0.0426789
0.0402388
0.0528258
0.0551251
0.0570986
0.0588582
0.0601784
0.0611721
0.0618807
0.0623209
0.0624597
0.0623332
0.0619254
0.0612799
0.060372
0.0592419
0.0578574
0.0562592
0.0544216
0.0523988
0.0501448
0.0476279
0.0593196
0.0618463
0.0640262
0.0659818
0.0674798
0.0686364
0.0694949
0.07007
0.0703296
0.0703072
0.069989
0.069415
0.0685637
0.0674706
0.0661072
0.0645092
0.0626557
0.0605954
0.0582884
0.0556907
0.0663562
0.0690941
0.0714871
0.0736484
0.0753394
0.0766754
0.0777015
0.0784296
0.0788273
0.0789262
0.0787127
0.0782255
0.0774425
0.0763984
0.0750643
0.0734746
0.0716086
0.0695153
0.0671546
0.0644754
0.0737984
0.0768007
0.0794391
0.0818383
0.0837489
0.0852907
0.0865086
0.0874135
0.0879716
0.0882129
0.088124
0.0877405
0.0870425
0.0860601
0.084767
0.0831933
0.0813221
0.0791974
0.0767849
0.0740201
0.081763
0.0850223
0.0879194
0.0905738
0.092727
0.0944994
0.0959354
0.0970436
0.0977877
0.0981965
0.0982546
0.0979973
0.0974018
0.0964984
0.0952589
0.0937129
0.0918425
0.0896929
0.0872288
0.0843781
0.0901139
0.0936838
0.0968767
0.0998249
0.102256
0.104295
0.105983
0.107328
0.10829
0.108897
0.109131
0.109025
0.108556
0.10775
0.106581
0.105074
0.103215
0.101044
0.0985312
0.0955902
0.0989362
0.102815
0.106326
0.109596
0.112339
0.114681
0.116661
0.118282
0.119501
0.120343
0.120786
0.120863
0.120547
0.119863
0.118783
0.117331
0.115492
0.113308
0.110747
0.107716
0.108072
0.112321
0.116197
0.119839
0.122943
0.12564
0.12796
0.129908
0.131431
0.132552
0.133246
0.133542
0.133412
0.132877
0.131909
0.130528
0.128723
0.12653
0.123925
0.120797
0.117575
0.122204
0.126479
0.130538
0.134057
0.137165
0.139884
0.142217
0.144098
0.145553
0.146546
0.147107
0.147199
0.146846
0.146014
0.144726
0.142966
0.140775
0.138126
0.1349
0.127276
0.13235
0.137085
0.141631
0.145634
0.149227
0.152418
0.155206
0.157514
0.159364
0.160713
0.161588
0.161947
0.161812
0.161147
0.159971
0.158272
0.156089
0.1534
0.150068
0.137193
0.142738
0.147988
0.153089
0.157656
0.161815
0.16556
0.168883
0.171693
0.174008
0.175775
0.177021
0.177694
0.177819
0.177351
0.176314
0.174692
0.172528
0.169799
0.16636
0.147134
0.153235
0.159084
0.164837
0.170065
0.17489
0.179282
0.183228
0.186618
0.189472
0.191722
0.193395
0.194435
0.19486
0.194626
0.193755
0.19223
0.190097
0.187337
0.183787
0.157084
0.163797
0.170331
0.176833
0.182823
0.188411
0.19354
0.198191
0.202235
0.205691
0.20848
0.210633
0.212081
0.21285
0.212887
0.212216
0.210817
0.20874
0.205965
0.202317
0.166841
0.174267
0.1816
0.188966
0.195822
0.202263
0.208202
0.213614
0.218356
0.22245
0.225809
0.228468
0.230357
0.231502
0.231847
0.231415
0.230187
0.228207
0.22546
0.221748
0.176343
0.184546
0.192772
0.201097
0.208893
0.21623
0.222999
0.229172
0.234595
0.239303
0.243209
0.246361
0.248686
0.250222
0.250905
0.250764
0.249766
0.24796
0.245318
0.241628
0.185338
0.194397
0.203585
0.212922
0.221674
0.229879
0.237409
0.244245
0.250241
0.255454
0.259809
0.263372
0.266081
0.267986
0.269022
0.269218
0.268532
0.267004
0.264593
0.261059
0.193614
0.203556
0.213707
0.223996
0.233595
0.242512
0.250613
0.2579
0.26425
0.269759
0.274376
0.2782
0.281179
0.283386
0.284756
0.285323
0.285024
0.283897
0.28187
0.278678
0.200724
0.211542
0.222581
0.233651
0.243846
0.253175
0.261524
0.268935
0.275329
0.280848
0.285481
0.289357
0.292444
0.294841
0.296483
0.297411
0.297544
0.296908
0.295402
0.292725
0.206111
0.217724
0.229481
0.241045
0.25147
0.260799
0.268988
0.276136
0.282223
0.287442
0.291822
0.295529
0.298544
0.300985
0.302788
0.304008
0.304539
0.304409
0.303474
0.301403
0.209096
0.221347
0.233563
0.245267
0.255513
0.26442
0.272046
0.278567
0.284036
0.288687
0.292586
0.295923
0.298692
0.30102
0.302836
0.304208
0.305016
0.305282
0.304832
0.303305
0.208961
0.221665
0.234054
0.245535
0.255234
0.263381
0.270157
0.275809
0.280456
0.284365
0.287629
0.290452
0.292825
0.294874
0.296524
0.297846
0.298707
0.299136
0.298934
0.297718
0.205264
0.218196
0.230484
0.241458
0.250363
0.257562
0.263361
0.268059
0.271825
0.274932
0.277492
0.279702
0.281558
0.283173
0.28446
0.285487
0.286112
0.28637
0.286056
0.284776
0.197645
0.210672
0.2227
0.23303
0.24107
0.24731
0.25217
0.25597
0.258911
0.261249
0.263102
0.264649
0.265882
0.266901
0.267615
0.268073
0.268129
0.267827
0.266971
0.265159
0.18634
0.19933
0.211031
0.220727
0.227992
0.233416
0.237498
0.240553
0.242789
0.244432
0.245601
0.24644
0.246951
0.247213
0.247134
0.246744
0.245892
0.244625
0.242785
0.239951
0.171534
0.184532
0.195996
0.205214
0.211914
0.216756
0.220286
0.222781
0.22445
0.225472
0.225966
0.226045
0.225717
0.225034
0.223925
0.222384
0.220274
0.217641
0.214367
0.210011
0.154024
0.167051
0.17842
0.187384
0.193781
0.198301
0.201503
0.203612
0.204826
0.205273
0.205076
0.204306
0.202995
0.201161
0.198758
0.195756
0.192038
0.187633
0.182483
0.176118
0.134166
0.147427
0.158953
0.167952
0.174334
0.17879
0.181875
0.18374
0.184574
0.18445
0.183507
0.181766
0.179284
0.176037
0.172034
0.167207
0.161482
0.154855
0.147343
0.138428
0.112826
0.12644
0.138353
0.147665
0.154305
0.158936
0.162086
0.163826
0.164332
0.163617
0.161838
0.158965
0.155087
0.150134
0.144171
0.137113
0.128928
0.119569
0.109149
0.097099
0.0900735
0.10434
0.116951
0.126891
0.134078
0.139123
0.142521
0.144253
0.14448
0.143146
0.140435
0.136248
0.130706
0.123681
0.115338
0.105536
0.0943263
0.0816015
0.0675934
0.0516605
0.0663766
0.0814795
0.0950705
0.105958
0.113999
0.119732
0.12359
0.12546
0.125485
0.12353
0.1198
0.114105
0.10661
0.0971206
0.0858934
0.0727533
0.0578467
0.0410047
0.0225917
0.00189758
0.0411481
0.0574896
0.0724624
0.0847153
0.0940105
0.100794
0.10542
0.107664
0.107639
0.105113
0.100301
0.0929064
0.0831388
0.0707158
0.0560254
0.0388147
0.0193722
-0.00256194
-0.0264357
-0.0530506
0.0141867
0.0320702
0.0488601
0.062991
0.0740603
0.0823949
0.088236
0.0912192
0.0914021
0.0884452
0.0825607
0.0733094
0.0609562
0.0451174
0.0262998
0.00418419
-0.0208072
-0.0490034
-0.0796319
-0.113562
-0.0159274
0.00410081
0.0233717
0.0401209
0.0537176
0.0643222
0.0720224
0.0762897
0.0771044
0.0739765
0.0671003
0.0558723
0.0406128
0.0208018
-0.00289491
-0.0309377
-0.0627064
-0.0986305
-0.137638
-0.180696
-0.0501407
-0.0274082
-0.004849
0.0154858
0.0326127
0.0464712
0.0569297
0.0632523
0.0652977
0.0624025
0.0547169
0.0414447
0.0229581
-0.00140623
-0.0308356
-0.0659262
-0.105896
-0.151259
-0.200592
-0.254907
-0.0906734
-0.06425
-0.0372269
-0.0119636
0.010064
0.0284907
0.0429003
0.0522998
0.0563788
0.0542525
0.0460259
0.0306886
0.00868054
-0.0208572
-0.0569511
-0.100461
-0.150354
-0.207259
-0.269285
-0.337523
-0.138994
-0.107863
-0.0749339
-0.0430624
-0.0144193
0.0102307
0.0300751
0.0438159
0.050941
0.0503138
0.0419336
0.0245312
-0.00138947
-0.0368763
-0.080807
-0.134258
-0.195962
-0.266676
-0.344115
-0.429396
-0.197755
-0.160316
-0.119527
-0.0788903
-0.0414918
-0.00864038
0.0183483
0.0377592
0.0487777
0.0500138
0.041471
0.0216852
-0.00874628
-0.0511688
-0.104269
-0.169396
-0.244986
-0.332165
-0.428193
-0.534158
-0.268305
-0.222865
-0.171954
-0.120092
-0.0716883
-0.0288072
0.00667157
0.0326363
0.0480398
0.0511537
0.0419499
0.0188589
-0.0173534
-0.0682852
-0.13241
-0.211233
-0.302943
-0.409083
-0.526698
-0.657184
-0.353048
-0.2972
-0.233416
-0.167698
-0.106113
-0.051649
-0.00689289
0.0256183
0.0447007
0.0485468
0.0372172
0.0089256
-0.0352614
-0.0970835
-0.174637
-0.269699
-0.380285
-0.508733
-0.652128
-0.812068
-0.452344
-0.383638
-0.304193
-0.222317
-0.146203
-0.0798505
-0.0264368
0.0111429
0.0317187
0.0334821
0.0168391
-0.0200412
-0.07576
-0.152142
-0.247022
-0.362469
-0.496401
-0.652021
-0.826616
-1.02193
-0.567779
-0.483033
-0.385339
-0.286078
-0.19573
-0.119336
-0.0603059
-0.021525
-0.00375827
-0.00871653
-0.0355025
-0.0858099
-0.157907
-0.254127
-0.371984
-0.51401
-0.678301
-0.869332
-1.08437
-1.32468
-0.700633
-0.596664
-0.478667
-0.362646
-0.261348
-0.180098
-0.121658
-0.0881477
-0.0793574
-0.096628
-0.13874
-0.207635
-0.301423
-0.423094
-0.570263
-0.746403
-0.950152
-1.18703
-1.45377
-1.74987
-0.855629
-0.729308
-0.591126
-0.462575
-0.357687
-0.280353
-0.230857
-0.209671
-0.215569
-0.249719
-0.31061
-0.400753
-0.518964
-0.669248
-0.849615
-1.06483
-1.314
-1.60294
-1.92676
-2.28136
-1.0392
-0.88951
-0.735688
-0.604378
-0.507287
-0.443941
-0.410751
-0.406467
-0.429273
-0.480541
-0.559216
-0.668778
-0.808864
-0.984594
-1.19499
-1.44594
-1.73657
-2.07187
-2.44507
-2.84787
-1.26552
-1.09396
-0.933311
-0.81161
-0.732435
-0.688344
-0.672817
-0.684161
-0.721052
-0.784866
-0.874996
-0.995671
-1.14811
-1.33883
-1.56843
-1.84315
-2.16155
-2.52656
-2.93051
-3.36055
-1.54754
-1.36072
-1.20415
-1.09932
-1.03812
-1.00865
-1.00447
-1.02431
-1.06687
-1.13311
-1.22344
-1.34266
-1.49385
-1.68454
-1.91692
-2.19685
-2.52223
-2.89341
-3.30231
-3.73039
-1.90956
-1.71537
-1.5679
-1.47443
-1.41926
-1.3911
-1.38535
-1.4004
-1.4353
-1.49064
-1.56815
-1.6723
-1.80791
-1.98203
-2.19861
-2.46204
-2.77049
-3.1208
-3.50389
-3.89655
-2.40172
-2.20045
-2.05033
-1.94793
-1.87763
-1.83074
-1.80481
-1.79843
-1.81155
-1.84386
-1.89763
-1.97544
-2.08309
-2.2258
-2.40917
-2.6353
-2.90277
-3.20369
-3.52789
-3.85311
-3.08534
-2.84667
-2.6553
-2.50705
-2.39021
-2.29914
-2.23366
-2.19161
-2.17287
-2.17442
-2.19799
-2.24276
-2.31473
-2.41571
-2.55326
-2.72597
-2.93352
-3.1623
-3.40309
-3.63928
-3.89382
-3.56171
-3.27409
-3.03943
-2.85029
-2.70102
-2.58931
-2.50922
-2.45795
-2.42882
-2.42239
-2.43413
-2.46965
-2.52604
-2.61174
-2.72122
-2.8571
-3.00441
-3.16113
-3.30787
-4.4799
-4.07537
-3.69226
-3.38671
-3.14999
-2.9698
-2.83501
-2.73313
-2.65967
-2.60634
-2.57435
-2.55623
-2.55723
-2.56927
-2.60015
-2.63869
-2.69351
-2.75896
-2.84178
-2.87482
-4.34691
-4.15461
-3.8025
-3.52224
-3.31431
-3.15608
-3.03107
-2.9275
-2.84519
-2.77701
-2.72606
-2.68371
-2.65575
-2.62882
-2.60879
-2.57861
-2.5559
-2.54999
-2.54748
-2.30588
-3.46748
-3.90601
-3.73855
-3.52165
-3.35208
-3.21843
-3.10595
-3.00392
-2.91926
-2.84329
-2.78528
-2.73126
-2.69332
-2.65011
-2.61749
-2.56929
-2.54236
-2.53728
-2.45936
-1.82173
-2.67871
-3.74692
-3.80553
-3.58127
-3.39886
-3.26166
-3.14391
-3.03964
-2.95018
-2.87328
-2.80982
-2.75595
-2.71301
-2.67602
-2.64582
-2.62071
-2.61652
-2.61548
-2.426
-1.9913
0.00289459
0.00281095
0.00271195
0.00263112
0.00254535
0.00246669
0.00239897
0.00233686
0.00228233
0.00223146
0.0021861
0.00214276
0.00210255
0.00206291
0.00202322
0.00198295
0.00194086
0.00189474
0.00183275
0.00175177
0.012556
0.0124653
0.0123769
0.0123049
0.0122177
0.0121369
0.0120568
0.0119791
0.0118983
0.011817
0.0117317
0.0116439
0.0115513
0.0114537
0.0113514
0.0112432
0.0111312
0.0110102
0.0108719
0.0107325
0.0224282
0.0223823
0.0222751
0.0221899
0.0220775
0.0219708
0.0218527
0.0217387
0.0216125
0.0214884
0.0213529
0.0212176
0.021071
0.0209236
0.0207642
0.0206038
0.020432
0.0202553
0.0200557
0.0198537
0.0320185
0.0319972
0.0318975
0.0318202
0.0317006
0.031584
0.0314435
0.0313062
0.0311466
0.0309888
0.0308115
0.0306342
0.0304395
0.0302428
0.0300311
0.0298159
0.0295876
0.029352
0.0290948
0.0288332
0.0418039
0.0418084
0.0417227
0.0416591
0.0415375
0.0414173
0.0412607
0.0411071
0.0409202
0.0407353
0.0405217
0.0403096
0.0400724
0.0398362
0.0395768
0.0393173
0.0390367
0.0387524
0.0384403
0.0381292
0.0515264
0.0515621
0.0514943
0.0514486
0.0513305
0.0512122
0.0510464
0.0508826
0.0506759
0.05047
0.0502275
0.0499858
0.0497128
0.0494386
0.049137
0.0488319
0.0485028
0.0481674
0.0478022
0.0474329
0.0613452
0.0614101
0.0613613
0.0613363
0.0612261
0.061116
0.0609481
0.0607819
0.0605624
0.0603432
0.0600779
0.059813
0.0595082
0.059203
0.0588617
0.0585186
0.0581437
0.0577652
0.0573503
0.0569334
0.0712412
0.0713399
0.0713158
0.0713163
0.0712194
0.0711217
0.0709569
0.0707927
0.070566
0.0703377
0.070055
0.06977
0.0694377
0.0691016
0.0687247
0.0683424
0.0679251
0.0675008
0.0670373
0.0665664
0.0812522
0.0813892
0.0813947
0.0814257
0.0813465
0.0812653
0.0811074
0.0809492
0.0807192
0.0804854
0.080188
0.0798866
0.0795297
0.0791685
0.0787582
0.0783428
0.0778848
0.0774205
0.07691
0.0763917
0.0913689
0.0915512
0.0915933
0.0916601
0.091604
0.0915423
0.0913947
0.0912445
0.091014
0.0907769
0.0904686
0.0901531
0.0897756
0.0893896
0.0889495
0.0884994
0.0880023
0.0874943
0.0869362
0.0863639
0.10161
0.101845
0.101931
0.10204
0.102011
0.101973
0.101837
0.101697
0.101467
0.10123
0.100913
0.100588
0.100192
0.0997866
0.0993182
0.0988376
0.0983022
0.0977546
0.0971502
0.0965289
0.111966
0.112257
0.112391
0.112545
0.112547
0.112534
0.112415
0.112287
0.112062
0.111827
0.111505
0.111171
0.110761
0.110335
0.109841
0.109329
0.108758
0.108169
0.107519
0.106845
0.122445
0.122797
0.12298
0.123182
0.123219
0.123238
0.123141
0.123032
0.122817
0.122587
0.122262
0.121921
0.121496
0.121054
0.120535
0.119995
0.119389
0.118763
0.11807
0.117347
0.133059
0.133472
0.133708
0.133962
0.13404
0.134095
0.134024
0.133937
0.133734
0.133513
0.133188
0.132842
0.132405
0.131945
0.131403
0.130834
0.130194
0.129527
0.12879
0.128014
0.143837
0.144318
0.14461
0.144919
0.145041
0.145135
0.145093
0.145031
0.144845
0.144634
0.144313
0.143966
0.143519
0.143046
0.14248
0.141885
0.141209
0.140504
0.139721
0.138893
0.154818
0.155366
0.155715
0.156077
0.156243
0.156377
0.156367
0.156332
0.156163
0.155966
0.155649
0.155302
0.154847
0.154357
0.15377
0.153142
0.15243
0.15168
0.150847
0.149959
0.16602
0.166643
0.167054
0.167472
0.167685
0.167862
0.167887
0.167882
0.167735
0.167552
0.16724
0.166892
0.166428
0.165924
0.165312
0.164657
0.163906
0.163114
0.16223
0.161285
0.177474
0.178176
0.178654
0.17913
0.179396
0.179618
0.179681
0.179706
0.179582
0.179414
0.17911
0.178759
0.178286
0.177762
0.177127
0.176435
0.175646
0.174802
0.173864
0.172848
0.189242
0.190032
0.190582
0.191122
0.191445
0.191717
0.191822
0.19188
0.191781
0.191629
0.191333
0.190981
0.190497
0.189956
0.189293
0.188569
0.187736
0.186845
0.185848
0.184767
0.201355
0.202239
0.202867
0.203474
0.203858
0.204182
0.204332
0.204423
0.20435
0.204213
0.203924
0.203569
0.203075
0.202509
0.201817
0.201049
0.200168
0.199216
0.198153
0.19699
0.213898
0.214877
0.215589
0.216266
0.216716
0.217093
0.217291
0.217417
0.217371
0.217249
0.216967
0.216607
0.216099
0.215513
0.214787
0.21398
0.213046
0.212035
0.2109
0.209659
0.226866
0.227953
0.228756
0.229507
0.230026
0.230459
0.230705
0.230866
0.230847
0.230739
0.230463
0.230097
0.229575
0.228958
0.228197
0.227337
0.226345
0.22526
0.224047
0.222706
0.240376
0.241571
0.242469
0.243298
0.243889
0.244381
0.244677
0.244874
0.244882
0.244788
0.244517
0.244143
0.243602
0.24296
0.242157
0.24125
0.240194
0.239039
0.23774
0.236308
0.254428
0.255742
0.256741
0.257652
0.258319
0.258872
0.259221
0.259454
0.259489
0.259407
0.259137
0.258751
0.25819
0.257509
0.256663
0.255692
0.254567
0.253325
0.251932
0.250383
0.269151
0.270581
0.271684
0.272682
0.273428
0.274045
0.274448
0.27472
0.274782
0.274712
0.274443
0.274044
0.273457
0.272742
0.271842
0.270813
0.26961
0.268284
0.266789
0.265131
0.284521
0.286083
0.287299
0.28839
0.289221
0.289904
0.290364
0.290675
0.290765
0.290706
0.290437
0.290021
0.289406
0.288642
0.287686
0.286579
0.285291
0.283861
0.282253
0.280458
0.300679
0.302372
0.303705
0.304894
0.305813
0.306567
0.307085
0.307437
0.307555
0.307507
0.307235
0.306801
0.306151
0.305342
0.30432
0.30314
0.301756
0.300224
0.298495
0.296569
0.317596
0.319437
0.320897
0.322191
0.323203
0.324029
0.324608
0.325001
0.325147
0.325107
0.324831
0.324372
0.323685
0.322816
0.321725
0.320452
0.318967
0.317311
0.31545
0.313363
0.335413
0.3374
0.33899
0.340394
0.341502
0.342404
0.343045
0.343479
0.343653
0.34362
0.343336
0.342849
0.342119
0.341191
0.340021
0.338656
0.337059
0.335279
0.333275
0.33103
0.354092
0.356244
0.357975
0.359497
0.360707
0.361688
0.362393
0.362869
0.363069
0.363041
0.362745
0.362226
0.361447
0.360446
0.359192
0.357716
0.355998
0.354072
0.351913
0.349481
0.373758
0.376078
0.377957
0.379603
0.380919
0.381983
0.382755
0.383273
0.383499
0.383473
0.383164
0.382607
0.381773
0.380698
0.379349
0.377759
0.375907
0.373832
0.371503
0.368881
0.394382
0.39689
0.398928
0.400709
0.402138
0.403291
0.404132
0.404695
0.404946
0.404921
0.404593
0.403993
0.403099
0.401934
0.400482
0.39876
0.396763
0.394514
0.392
0.389157
0.416073
0.418776
0.420982
0.422908
0.424458
0.425705
0.426619
0.427229
0.427506
0.42748
0.427131
0.426482
0.425518
0.42426
0.422692
0.420831
0.418673
0.416243
0.413528
0.410456
0.438807
0.441727
0.444118
0.4462
0.447881
0.449231
0.450223
0.450883
0.451186
0.451157
0.450783
0.450078
0.449039
0.447672
0.445977
0.443957
0.441623
0.438985
0.43605
0.432718
0.46268
0.46583
0.46842
0.470673
0.472496
0.473957
0.475034
0.475748
0.476079
0.476046
0.475641
0.474876
0.47375
0.472269
0.470432
0.468244
0.465716
0.462859
0.459682
0.456075
0.487668
0.491076
0.493885
0.496326
0.498305
0.499888
0.501058
0.501831
0.502192
0.502155
0.501717
0.500884
0.499663
0.498049
0.496058
0.493677
0.490936
0.487831
0.484388
0.480472
0.513857
0.517542
0.52059
0.523239
0.525389
0.527109
0.528382
0.529222
0.529616
0.529574
0.529099
0.528191
0.526863
0.525109
0.522943
0.520357
0.517381
0.514011
0.510277
0.506033
0.541211
0.545209
0.548524
0.551405
0.553747
0.555619
0.557009
0.557924
0.558356
0.558309
0.557793
0.556802
0.555356
0.553441
0.551085
0.548265
0.545029
0.541361
0.537306
0.532692
0.569801
0.574141
0.577751
0.580892
0.58345
0.585497
0.587018
0.588019
0.588495
0.588446
0.587884
0.586802
0.585224
0.583134
0.580563
0.577492
0.573968
0.569978
0.565572
0.560563
0.599575
0.604301
0.608245
0.611679
0.614482
0.616727
0.618399
0.619501
0.620029
0.619978
0.619368
0.618183
0.616459
0.614169
0.611362
0.608003
0.604161
0.599809
0.595014
0.589564
0.630576
0.635727
0.640043
0.643808
0.646892
0.649364
0.651211
0.65243
0.653019
0.652971
0.652306
0.65101
0.649121
0.646614
0.64354
0.639868
0.635671
0.630925
0.625705
0.61978
0.662707
0.668338
0.673075
0.677215
0.680617
0.683351
0.6854
0.686755
0.687417
0.687374
0.686652
0.685231
0.68316
0.680407
0.677038
0.673013
0.668423
0.663237
0.657546
0.651094
0.69595
0.702103
0.707304
0.711864
0.715624
0.718654
0.720931
0.722443
0.723189
0.723156
0.722374
0.72082
0.71855
0.715532
0.711839
0.707433
0.702412
0.69675
0.690549
0.683534
0.73009
0.736812
0.742519
0.747536
0.751687
0.75504
0.757566
0.75925
0.760091
0.760073
0.759232
0.757543
0.755068
0.75177
0.747736
0.742921
0.737442
0.731268
0.72452
0.716898
0.764902
0.772197
0.778419
0.7839
0.78845
0.79213
0.794908
0.796767
0.797707
0.797713
0.796825
0.795015
0.79235
0.788792
0.784429
0.779218
0.773282
0.766596
0.759295
0.751059
0.799816
0.807637
0.814321
0.820217
0.825118
0.829087
0.832087
0.834101
0.835134
0.835176
0.834271
0.832386
0.829592
0.825838
0.821217
0.815674
0.809345
0.802197
0.794384
0.785565
0.834021
0.842206
0.849195
0.855354
0.86047
0.864616
0.867755
0.869874
0.870982
0.871078
0.870209
0.868343
0.865539
0.861738
0.857018
0.851316
0.844756
0.837306
0.829126
0.819857
0.8661
0.874376
0.881397
0.887558
0.892658
0.896795
0.899938
0.902082
0.903237
0.903414
0.902664
0.900951
0.898322
0.894698
0.890138
0.884552
0.878052
0.870586
0.862313
0.85285
0.894266
0.902251
0.908947
0.91478
0.919587
0.923494
0.926489
0.928572
0.929748
0.93004
0.929499
0.928096
0.92585
0.922672
0.918584
0.913477
0.907423
0.900354
0.892398
0.883154