/*--------------------------------*- C++ -*----------------------------------*\
  =========                 |
  \\      /  F ield         | OpenFOAM: The Open Source CFD Toolbox
   \\    /   O peration     | Website:  https://openfoam.org
    \\  /    A nd           | Version:  6
     \\/     M anipulation  |
\*---------------------------------------------------------------------------*/
FoamFile
{
    version     2.0;
    format      ascii;
    class       volScalarField;
    location    "24";
    object      p;
}
// * * * * * * * * * * * * * * * * * * * * * * * * * * * * * * * * * * * * * //

dimensions      [0 2 -2 0 0 0 0];

internalField   nonuniform List<scalar> 
10000
(
0.0236963
0.0224865
0.021573
0.0206651
0.0184168
0.0165159
0.0155459
0.0152934
0.015418
0.0154764
0.0153648
0.0148713
0.0137511
0.0120644
0.0098155
0.00776123
0.00627791
0.0053132
0.00822983
0.0134716
0.0500283
0.0477634
0.0510888
0.057777
0.0621705
0.0636849
0.0635655
0.0631617
0.0630357
0.0629383
0.0629076
0.0623735
0.0617581
0.0603769
0.0579782
0.053684
0.0470832
0.0403493
0.0384288
0.0413733
0.0908533
0.0869663
0.0867281
0.0911728
0.0971466
0.102544
0.106473
0.108892
0.110218
0.110776
0.110713
0.109965
0.108366
0.106086
0.10329
0.100263
0.0974768
0.0958718
0.0952091
0.0946427
0.142944
0.141921
0.141668
0.144673
0.149639
0.154313
0.157847
0.160111
0.16136
0.161928
0.161953
0.161521
0.160648
0.159328
0.157508
0.155519
0.153337
0.151462
0.150423
0.149642
0.21064
0.214049
0.214715
0.214027
0.214094
0.214541
0.215225
0.21575
0.216127
0.216252
0.216258
0.216247
0.216158
0.216365
0.216741
0.217456
0.2185
0.219235
0.218094
0.215206
0.27054
0.273893
0.2755
0.274484
0.272939
0.271563
0.270663
0.270149
0.269955
0.269906
0.269932
0.270103
0.270685
0.271939
0.274015
0.276843
0.279692
0.281301
0.280137
0.277391
0.317922
0.317279
0.317396
0.317116
0.317034
0.317679
0.318579
0.319492
0.320288
0.320948
0.321644
0.32254
0.323663
0.32514
0.326823
0.328514
0.329822
0.330063
0.329496
0.329712
0.364766
0.362717
0.362388
0.363007
0.364082
0.36597
0.367944
0.369688
0.370954
0.371929
0.372598
0.373188
0.373816
0.374278
0.374485
0.374369
0.373991
0.37332
0.37302
0.374315
0.420293
0.420038
0.420577
0.421411
0.421974
0.422295
0.422657
0.423126
0.423608
0.423909
0.423999
0.423806
0.423058
0.421604
0.419426
0.416533
0.413497
0.411495
0.412236
0.415225
0.481843
0.483514
0.484227
0.4836
0.48219
0.480294
0.478814
0.477949
0.477593
0.477455
0.47734
0.476856
0.47595
0.474299
0.472001
0.469302
0.466527
0.465028
0.465782
0.467421
0.538185
0.537954
0.537746
0.537216
0.536012
0.534444
0.533034
0.532099
0.531586
0.531375
0.531276
0.531307
0.531267
0.531486
0.531973
0.53284
0.534074
0.535282
0.534666
0.53159
0.591838
0.590828
0.589786
0.58893
0.588081
0.587131
0.586159
0.585448
0.584965
0.584765
0.584649
0.58471
0.585025
0.585714
0.586977
0.588943
0.591268
0.593064
0.592791
0.590567
0.642296
0.640269
0.638399
0.63774
0.637967
0.63834
0.63854
0.638493
0.638353
0.638201
0.638194
0.638312
0.6385
0.638868
0.639491
0.640298
0.641238
0.64199
0.642425
0.643232
0.693279
0.692895
0.692912
0.693546
0.694199
0.694316
0.693959
0.693406
0.692904
0.692627
0.692558
0.692617
0.692969
0.693356
0.693818
0.69421
0.694576
0.694945
0.695029
0.695508
0.743796
0.746789
0.749063
0.749523
0.749068
0.748114
0.747176
0.746397
0.74591
0.74567
0.745747
0.746102
0.746619
0.74724
0.747642
0.74741
0.746867
0.746394
0.746412
0.747232
0.789487
0.789027
0.789387
0.791121
0.793332
0.795266
0.796501
0.797053
0.79722
0.797366
0.797598
0.797944
0.798629
0.79947
0.800319
0.800824
0.800896
0.80061
0.800132
0.799957
0.841076
0.84142
0.841186
0.841323
0.842696
0.844579
0.846152
0.847126
0.84757
0.84766
0.847543
0.847419
0.847154
0.847039
0.847069
0.847379
0.848019
0.848321
0.847586
0.846096
0.891678
0.891929
0.891879
0.891699
0.89243
0.893995
0.895738
0.897206
0.89815
0.898525
0.898461
0.897876
0.896821
0.894856
0.891917
0.888388
0.88472
0.882175
0.882944
0.885813
0.947807
0.948201
0.948479
0.948159
0.948065
0.948562
0.949412
0.950401
0.951233
0.951707
0.95191
0.951766
0.951129
0.949851
0.947871
0.945243
0.94265
0.941264
0.941562
0.942147
1.01199
1.01288
1.01302
1.01184
1.00993
1.00824
1.0072
1.00689
1.00692
1.00709
1.00714
1.00711
1.00725
1.00775
1.00906
1.01122
1.01378
1.01561
1.01434
1.01002
1.07423
1.07515
1.07512
1.07346
1.07058
1.06758
1.06526
1.06375
1.06298
1.06261
1.06251
1.06262
1.06291
1.06388
1.06574
1.06853
1.07176
1.07376
1.07306
1.07061
1.12583
1.12533
1.12541
1.12516
1.12391
1.12209
1.12032
1.11881
1.11786
1.11744
1.11749
1.11778
1.11853
1.11942
1.1203
1.121
1.12123
1.12088
1.12095
1.12254
1.17207
1.17064
1.17086
1.17212
1.1729
1.17269
1.17193
1.17099
1.17031
1.17
1.17018
1.17083
1.17188
1.17317
1.17444
1.17514
1.17499
1.17405
1.17329
1.17383
1.21972
1.2193
1.21889
1.21926
1.22007
1.22058
1.22086
1.22096
1.22096
1.22105
1.22123
1.22151
1.22185
1.22205
1.22229
1.22262
1.22279
1.22267
1.22207
1.22107
1.26719
1.26594
1.26451
1.26548
1.26775
1.2698
1.27129
1.27203
1.27226
1.2722
1.27215
1.27203
1.27152
1.27044
1.26863
1.26613
1.2635
1.26182
1.26202
1.26295
1.31938
1.32027
1.32057
1.32125
1.32256
1.32389
1.32484
1.32521
1.32518
1.32484
1.32432
1.32348
1.32237
1.32066
1.31832
1.31545
1.3124
1.31005
1.30955
1.31001
1.37608
1.37876
1.38027
1.37966
1.37882
1.37851
1.37851
1.37855
1.37858
1.37834
1.37791
1.37721
1.3761
1.37467
1.37299
1.37134
1.36994
1.36864
1.36787
1.36689
1.43274
1.43584
1.43755
1.43685
1.4353
1.43389
1.43302
1.43265
1.43259
1.4326
1.43256
1.4324
1.4324
1.43256
1.43307
1.43403
1.43504
1.43549
1.43472
1.43224
1.48432
1.48452
1.4854
1.48619
1.48638
1.48633
1.48617
1.48605
1.48612
1.48633
1.48668
1.48723
1.48811
1.48968
1.49198
1.4949
1.49777
1.4994
1.49862
1.49559
1.53737
1.53722
1.53783
1.53846
1.53879
1.53915
1.5394
1.53962
1.53986
1.54021
1.54078
1.54155
1.5428
1.54437
1.54622
1.54814
1.54958
1.5499
1.54951
1.5492
1.5927
1.59211
1.59196
1.59258
1.59307
1.59343
1.59359
1.59365
1.59362
1.5936
1.59371
1.5941
1.59466
1.59534
1.59594
1.59607
1.5958
1.59527
1.5952
1.59604
1.65073
1.65198
1.6529
1.65355
1.65326
1.65213
1.65057
1.64904
1.64777
1.64688
1.64616
1.64553
1.64483
1.64374
1.64208
1.63964
1.63682
1.63503
1.63593
1.63812
1.7006
1.7038
1.70588
1.70593
1.70475
1.70318
1.70172
1.70051
1.69962
1.69907
1.69876
1.69847
1.6978
1.69666
1.69489
1.69248
1.68982
1.68816
1.68834
1.68873
1.74142
1.73888
1.73792
1.73964
1.74246
1.74558
1.7482
1.74997
1.75089
1.75155
1.75202
1.7525
1.75292
1.75332
1.75377
1.75437
1.75504
1.75538
1.75357
1.74939
1.79721
1.79616
1.79503
1.79568
1.79787
1.80046
1.8027
1.80422
1.80511
1.80559
1.80594
1.80636
1.80677
1.80735
1.80804
1.80891
1.80982
1.81013
1.80877
1.80598
1.86411
1.86828
1.86975
1.8684
1.8663
1.8641
1.86258
1.86166
1.86123
1.86096
1.86084
1.86069
1.86071
1.86066
1.8605
1.86032
1.86
1.85941
1.85911
1.85924
1.9237
1.92686
1.92834
1.92704
1.92424
1.9211
1.91854
1.91677
1.91573
1.91511
1.91484
1.91478
1.91489
1.91506
1.91524
1.91541
1.91551
1.91535
1.91479
1.91387
1.97296
1.97286
1.97324
1.97371
1.97344
1.97263
1.97131
1.96995
1.9688
1.96813
1.96768
1.96749
1.96742
1.96736
1.96734
1.96729
1.96708
1.96668
1.96603
1.96501
2.01855
2.01854
2.01904
2.02034
2.02166
2.0226
2.02275
2.0224
2.02178
2.02127
2.02091
2.02073
2.02046
2.02011
2.01944
2.01848
2.01736
2.01634
2.01568
2.01487
2.06647
2.06601
2.06557
2.06707
2.06964
2.07225
2.07413
2.07527
2.07574
2.07599
2.07614
2.07641
2.07666
2.07677
2.0764
2.07545
2.07403
2.07282
2.07215
2.07129
2.12633
2.12805
2.12843
2.12909
2.13011
2.13104
2.13165
2.13199
2.13222
2.13251
2.13304
2.13403
2.13537
2.13714
2.13898
2.14061
2.14165
2.14184
2.14046
2.13762
2.19103
2.19621
2.19836
2.19697
2.1943
2.19172
2.18986
2.18874
2.18814
2.18809
2.18837
2.18927
2.19074
2.19301
2.19612
2.19994
2.20368
2.20566
2.20362
2.19864
2.24664
2.24821
2.24947
2.24955
2.2484
2.24671
2.24497
2.2434
2.24222
2.24151
2.24124
2.24131
2.24143
2.24144
2.24111
2.24055
2.23974
2.23865
2.23839
2.23928
2.29743
2.29857
2.29994
2.30075
2.30073
2.29991
2.29853
2.29701
2.29568
2.29471
2.29407
2.29357
2.29291
2.29153
2.28885
2.28474
2.27989
2.27628
2.27657
2.27976
2.34319
2.3429
2.3433
2.34513
2.34712
2.34856
2.34917
2.34924
2.34896
2.34868
2.34845
2.34827
2.34781
2.34699
2.34545
2.34305
2.3404
2.3388
2.33805
2.33664
2.39553
2.39565
2.39572
2.39765
2.40031
2.40256
2.40389
2.40457
2.40475
2.40496
2.40515
2.40554
2.40601
2.40664
2.40735
2.40832
2.40958
2.41063
2.40886
2.40369
2.45792
2.46161
2.46279
2.46265
2.46253
2.46249
2.46237
2.4622
2.46202
2.46196
2.4621
2.46272
2.46378
2.46552
2.46775
2.47043
2.47297
2.47415
2.47231
2.468
2.51848
2.5224
2.52478
2.52499
2.52374
2.52203
2.52046
2.51921
2.51838
2.51799
2.51806
2.5187
2.51989
2.52151
2.52332
2.52507
2.52628
2.52635
2.52555
2.52467
2.57239
2.57529
2.57748
2.57828
2.57752
2.57597
2.57436
2.5731
2.57225
2.57189
2.57198
2.57253
2.57336
2.57442
2.5754
2.57597
2.57613
2.57582
2.57523
2.57465
2.62426
2.62307
2.62183
2.62249
2.62394
2.62531
2.62614
2.6265
2.62645
2.62639
2.62625
2.62621
2.626
2.62544
2.62418
2.62232
2.62028
2.61888
2.6191
2.61977
2.68555
2.68563
2.68487
2.68485
2.68542
2.68589
2.68587
2.68554
2.685
2.68452
2.6841
2.68385
2.6834
2.68257
2.68101
2.67891
2.67669
2.67532
2.67548
2.67527
2.74815
2.75253
2.75515
2.75537
2.75386
2.75124
2.74849
2.74628
2.74472
2.74395
2.74372
2.74413
2.74495
2.74628
2.74777
2.74926
2.75033
2.75069
2.74893
2.74409
2.79855
2.80169
2.80345
2.80417
2.80411
2.80332
2.80218
2.80116
2.80046
2.80039
2.80089
2.80226
2.8043
2.80734
2.8108
2.81435
2.81709
2.81782
2.8153
2.81
2.84669
2.84615
2.84534
2.84656
2.84931
2.85223
2.8542
2.85525
2.85563
2.85605
2.85662
2.85773
2.85924
2.86133
2.86362
2.86593
2.86775
2.86794
2.8661
2.86325
2.90942
2.91171
2.91242
2.9127
2.91357
2.91429
2.91441
2.91407
2.91358
2.91318
2.91309
2.91331
2.91355
2.91339
2.91229
2.91003
2.9071
2.90449
2.90438
2.90599
2.97454
2.98052
2.98318
2.98201
2.97974
2.97727
2.97504
2.97318
2.97183
2.97085
2.97025
2.96983
2.96937
2.96831
2.96614
2.96286
2.95908
2.9566
2.95665
2.9569
3.0282
3.02995
3.03108
3.03167
3.03163
3.03141
3.03085
3.03004
3.02916
3.02854
3.02816
3.0281
3.02801
3.02789
3.02749
3.02675
3.02567
3.02473
3.02299
3.01857
3.08131
3.08243
3.08396
3.08616
3.08762
3.08823
3.08802
3.08744
3.08668
3.08622
3.086
3.0862
3.08666
3.08744
3.08839
3.08952
3.09035
3.09035
3.08812
3.0828
3.13787
3.14158
3.14354
3.14447
3.14509
3.14543
3.14545
3.14515
3.14465
3.14428
3.14415
3.14444
3.14493
3.1459
3.14718
3.14875
3.15038
3.15132
3.14986
3.14573
3.19853
3.20018
3.20006
3.2004
3.20142
3.20275
3.20379
3.20434
3.20455
3.20472
3.20517
3.20604
3.2074
3.20897
3.21017
3.2107
3.21036
3.2096
3.20884
3.20768
3.26999
3.27371
3.27483
3.27444
3.27317
3.27129
3.26934
3.26782
3.2669
3.26662
3.26705
3.26835
3.27039
3.27306
3.2758
3.27799
3.27931
3.27944
3.27791
3.27457
3.33615
3.34265
3.34563
3.34437
3.34076
3.33633
3.33235
3.32934
3.3274
3.32657
3.32654
3.32734
3.32883
3.33097
3.33353
3.33629
3.33874
3.3397
3.3378
3.33295
3.38451
3.38605
3.38775
3.38972
3.39054
3.39012
3.38886
3.38719
3.38568
3.38477
3.38458
3.38508
3.38582
3.38636
3.38602
3.38442
3.38189
3.37942
3.37907
3.37924
3.43165
3.43397
3.43628
3.43966
3.44276
3.44449
3.44476
3.44415
3.44336
3.44287
3.44301
3.4436
3.44457
3.44521
3.44486
3.44325
3.44047
3.43806
3.4371
3.43512
3.48569
3.49057
3.49326
3.49573
3.49823
3.49996
3.50085
3.50121
3.50132
3.50164
3.50237
3.50368
3.50521
3.507
3.50863
3.50968
3.50994
3.50914
3.50579
3.49798
3.55168
3.55675
3.55893
3.56104
3.5629
3.5639
3.56403
3.5637
3.56325
3.56305
3.56332
3.56399
3.56516
3.56642
3.56738
3.56776
3.56728
3.56558
3.56181
3.55434
3.62716
3.63514
3.63877
3.63942
3.6381
3.63535
3.63213
3.62914
3.62696
3.62551
3.62494
3.62493
3.62521
3.62532
3.62479
3.62313
3.62045
3.61696
3.61353
3.60857
3.69121
3.70001
3.70456
3.70553
3.70374
3.70013
3.69586
3.6919
3.68902
3.68723
3.68655
3.68644
3.68698
3.68734
3.68722
3.68623
3.6841
3.68097
3.67711
3.67071
3.73531
3.73941
3.74215
3.74598
3.74916
3.75065
3.75026
3.74875
3.74712
3.7461
3.7459
3.74656
3.74768
3.74905
3.7502
3.75037
3.7494
3.74719
3.74377
3.73671
3.77877
3.78051
3.78173
3.78725
3.79442
3.8006
3.80417
3.80541
3.80534
3.80511
3.80524
3.8058
3.80689
3.80807
3.80924
3.81005
3.81013
3.80922
3.80687
3.8
3.83994
3.84642
3.84814
3.85099
3.85581
3.86061
3.86395
3.86545
3.86574
3.86548
3.8653
3.86541
3.86543
3.86522
3.86465
3.86353
3.86226
3.86119
3.86043
3.85533
3.91439
3.92499
3.92743
3.92677
3.92657
3.92721
3.92821
3.92878
3.92891
3.92855
3.92829
3.92792
3.92781
3.92717
3.92564
3.92296
3.91936
3.91661
3.91646
3.91305
3.99154
4.00122
4.00266
4.00002
3.99669
3.99454
3.99374
3.99361
3.9936
3.99355
3.99364
3.99408
3.9947
3.99566
3.99659
3.99705
3.99727
3.99758
3.99656
3.98848
4.06781
4.07427
4.07368
4.07058
4.06649
4.06336
4.06135
4.06035
4.05985
4.05982
4.06012
4.06083
4.06229
4.06464
4.068
4.0723
4.07682
4.08016
4.07884
4.06806
4.14226
4.14936
4.14897
4.1452
4.13982
4.13473
4.13087
4.1284
4.12691
4.12615
4.12593
4.12655
4.12777
4.13013
4.13354
4.13784
4.14241
4.14574
4.14546
4.13681
4.20884
4.21554
4.21491
4.21194
4.20743
4.20256
4.19855
4.19577
4.19411
4.19322
4.19309
4.19348
4.19464
4.19623
4.19808
4.20002
4.20167
4.20327
4.20455
4.1996
4.27288
4.28069
4.28096
4.27921
4.2758
4.27121
4.26698
4.26387
4.26205
4.26132
4.26156
4.26285
4.26493
4.26793
4.27148
4.27489
4.27759
4.2796
4.27961
4.27184
4.33735
4.34877
4.35124
4.34969
4.34603
4.34098
4.33625
4.33286
4.33093
4.33034
4.33085
4.33257
4.33571
4.34035
4.34637
4.35303
4.35864
4.36159
4.35868
4.34567
4.39897
4.41132
4.41605
4.41711
4.41552
4.41143
4.40674
4.40282
4.40027
4.39917
4.39938
4.40109
4.40405
4.40855
4.41401
4.41939
4.42292
4.42342
4.41909
4.40658
4.45775
4.47291
4.48125
4.48502
4.48497
4.48137
4.47642
4.47191
4.46888
4.46746
4.46764
4.46918
4.47197
4.47539
4.47858
4.48025
4.47893
4.47535
4.46994
4.45935
4.50871
4.5242
4.53413
4.54071
4.54389
4.54324
4.54047
4.53743
4.53518
4.53432
4.53482
4.53674
4.53961
4.54291
4.54561
4.54608
4.54311
4.53763
4.52912
4.51485
4.5625
4.57497
4.58409
4.59345
4.60146
4.60558
4.60619
4.6051
4.6036
4.60293
4.60311
4.60432
4.60615
4.60797
4.60903
4.60777
4.60335
4.59653
4.58553
4.56822
4.63389
4.64812
4.65755
4.66549
4.6729
4.67695
4.67761
4.67635
4.67469
4.67354
4.67329
4.67374
4.6744
4.67407
4.67158
4.66545
4.65562
4.64509
4.63424
4.62077
4.71246
4.72715
4.73595
4.74094
4.74589
4.74871
4.74927
4.74828
4.74686
4.74566
4.74515
4.74501
4.74488
4.7435
4.7401
4.73344
4.72431
4.71608
4.70628
4.69269
4.79044
4.79757
4.8018
4.80558
4.81185
4.81732
4.82052
4.82144
4.82095
4.82
4.81913
4.81823
4.81712
4.81501
4.81172
4.80732
4.80287
4.80055
4.79411
4.78196
4.88533
4.88969
4.89014
4.88823
4.89065
4.89417
4.89677
4.89795
4.89798
4.89742
4.89679
4.89621
4.89538
4.89392
4.89174
4.88923
4.88811
4.89091
4.89072
4.8866
4.99795
5.00113
4.99769
4.98655
4.98033
4.97783
4.97732
4.97758
4.97784
4.97791
4.978
4.97836
4.97935
4.98122
4.98443
4.99007
4.99906
5.01207
5.01634
5.01413
5.11831
5.11949
5.1147
5.09633
5.08179
5.07209
5.06641
5.06356
5.06229
5.06198
5.06226
5.06386
5.06686
5.07277
5.08257
5.09715
5.11612
5.13649
5.14023
5.13747
5.22522
5.22951
5.23225
5.21216
5.19129
5.17378
5.16111
5.15313
5.14902
5.14748
5.14795
5.15061
5.15608
5.16537
5.17848
5.19507
5.21267
5.22875
5.22568
5.22538
5.28782
5.29537
5.31382
5.30228
5.28514
5.26699
5.2515
5.24045
5.23414
5.23156
5.23184
5.23534
5.24199
5.25246
5.26551
5.27885
5.2904
5.29845
5.28118
5.2767
5.30699
5.31265
5.34984
5.35379
5.35166
5.34404
5.33343
5.32363
5.31717
5.31422
5.31429
5.31712
5.32277
5.33043
5.33809
5.34333
5.34509
5.34292
5.30716
5.30014
5.33281
5.32899
5.38248
5.39331
5.40227
5.40689
5.40522
5.40012
5.39562
5.39338
5.39349
5.39593
5.39961
5.40327
5.40403
5.39946
5.39201
5.38253
5.32915
5.33192
5.42774
5.39482
5.45721
5.45719
5.46103
5.46876
5.47267
5.47164
5.46912
5.46752
5.46765
5.46907
5.47133
5.47206
5.46934
5.46377
5.4618
5.4623
5.39888
5.43124
5.62787
5.53389
5.60367
5.57671
5.5548
5.54888
5.5476
5.54478
5.54123
5.53903
5.53896
5.54129
5.54443
5.54748
5.55018
5.55765
5.58072
5.60866
5.53888
5.63228
5.89631
5.69603
5.78718
5.73555
5.68064
5.65194
5.63825
5.62942
5.62287
5.61921
5.61894
5.62225
5.6286
5.63791
5.65225
5.68184
5.73687
5.78863
5.69682
5.89553
6.12598
5.74956
5.89619
5.85326
5.78652
5.7464
5.72685
5.71561
5.70783
5.70369
5.70319
5.70725
5.71443
5.72609
5.74619
5.78607
5.85194
5.89296
5.74444
6.12006
6.28286
5.6298
5.87812
5.88579
5.83223
5.79428
5.77574
5.76591
5.75924
5.75568
5.7557
5.75932
5.76612
5.77676
5.79564
5.83298
5.88507
5.87529
5.62669
6.28213
6.61486
5.51505
5.87368
5.92445
5.8646
5.81542
5.79069
5.77774
5.76955
5.76536
5.76559
5.77041
5.77852
5.79322
5.81664
5.86608
5.92255
5.87237
5.51646
6.62024
7.6731
5.57842
5.87407
5.96975
5.91379
5.85935
5.83299
5.82
5.81261
5.80842
5.80884
5.81206
5.81896
5.83266
5.85806
5.91322
5.96987
5.87585
5.58086
7.67186
9.64061
5.22927
5.32569
5.71326
5.80559
5.80523
5.8025
5.80178
5.80044
5.79925
5.79927
5.80043
5.80171
5.80257
5.80521
5.80565
5.71335
5.32594
5.22959
9.64063
0.00692493
0.0218711
0.0221302
0.0305185
0.0275038
0.0231017
0.022309
0.0238584
0.0255015
0.0262435
0.0264146
0.0262566
0.0260703
0.0267065
0.029118
0.0339769
0.0365389
0.0302901
0.0369446
0.0339967
0.0974865
0.117294
0.126633
0.143997
0.151311
0.150226
0.147221
0.145762
0.145334
0.144706
0.14405
0.142861
0.142746
0.143643
0.146237
0.147459
0.142673
0.134273
0.13619
0.123768
0.290363
0.283068
0.285397
0.288521
0.285131
0.277944
0.270899
0.265722
0.262217
0.259468
0.256426
0.252687
0.247023
0.239353
0.229291
0.219371
0.214883
0.217157
0.220875
0.222287
0.429915
0.415417
0.407292
0.40512
0.401485
0.394625
0.387322
0.381383
0.37715
0.373613
0.369793
0.364436
0.356199
0.343044
0.322779
0.29532
0.264013
0.238927
0.236682
0.249825
0.510499
0.496023
0.4848
0.487752
0.497082
0.504344
0.505962
0.503579
0.499884
0.496452
0.492732
0.48831
0.48203
0.473467
0.461905
0.447227
0.431031
0.417523
0.407128
0.400078
0.606525
0.601435
0.595429
0.600189
0.610851
0.619673
0.62353
0.623766
0.621761
0.619735
0.617025
0.614495
0.611919
0.611028
0.613584
0.622071
0.635028
0.64357
0.633252
0.609124
0.744595
0.751747
0.744882
0.732629
0.728098
0.729565
0.733419
0.736927
0.738892
0.739583
0.739543
0.739973
0.740813
0.743388
0.748737
0.75938
0.772791
0.779506
0.77652
0.767564
0.860725
0.868288
0.864631
0.857535
0.852856
0.85186
0.853024
0.854559
0.85581
0.856484
0.857189
0.858238
0.86059
0.863851
0.867701
0.871107
0.873155
0.872082
0.873344
0.879268
0.968654
0.988096
1.00016
0.996903
0.987517
0.979262
0.974278
0.971597
0.970579
0.97002
0.969685
0.969297
0.969018
0.96925
0.96927
0.967417
0.964569
0.961907
0.963282
0.970396
1.04308
1.0526
1.06436
1.07016
1.07409
1.0789
1.08296
1.08567
1.08737
1.0881
1.08787
1.08643
1.08348
1.07808
1.06885
1.0558
1.04004
1.0265
1.02639
1.03685
1.17191
1.16262
1.16789
1.18496
1.20181
1.21446
1.22072
1.22293
1.2229
1.2219
1.22002
1.21696
1.21172
1.20404
1.19365
1.18061
1.16559
1.15216
1.14653
1.14568
1.40712
1.40996
1.41279
1.4101
1.40215
1.39271
1.38413
1.37731
1.37162
1.36737
1.36363
1.36006
1.35597
1.35146
1.34713
1.3441
1.34323
1.34402
1.33664
1.31867
1.59398
1.60646
1.60278
1.5844
1.56034
1.5401
1.52609
1.51674
1.51024
1.50613
1.50416
1.50475
1.50807
1.51424
1.52185
1.52865
1.53228
1.53217
1.52664
1.51465
1.68524
1.67792
1.67061
1.67152
1.66659
1.65666
1.64589
1.63735
1.63144
1.62838
1.62759
1.62977
1.63563
1.64633
1.6626
1.68323
1.70365
1.71648
1.71625
1.70839
1.74665
1.74102
1.73602
1.73809
1.74136
1.74165
1.74007
1.73807
1.73657
1.73569
1.73575
1.73725
1.73941
1.74252
1.7473
1.75617
1.76912
1.78168
1.79364
1.80397
1.75721
1.752
1.75071
1.76611
1.79072
1.81392
1.82999
1.83834
1.84223
1.84381
1.84487
1.84526
1.84485
1.84137
1.83357
1.82086
1.80429
1.79296
1.80497
1.83079
1.82452
1.8336
1.8462
1.86817
1.89548
1.92036
1.93939
1.95161
1.9587
1.9624
1.96462
1.96525
1.96355
1.9584
1.94978
1.93695
1.92209
1.91308
1.91438
1.91913
1.98991
2.01611
2.03385
2.04063
2.04751
2.05697
2.06786
2.07773
2.08498
2.0896
2.09236
2.09383
2.09422
2.09313
2.09038
2.08707
2.086
2.08918
2.08458
2.06724
2.19851
2.21631
2.22637
2.22469
2.21748
2.21319
2.21321
2.21555
2.21826
2.22011
2.22109
2.22164
2.22262
2.22504
2.2281
2.23149
2.23519
2.23702
2.23164
2.21787
2.40609
2.41418
2.41559
2.40547
2.38709
2.37018
2.35943
2.3542
2.3522
2.35135
2.35054
2.34928
2.34805
2.34739
2.34838
2.35232
2.35918
2.36361
2.36076
2.35216
2.55577
2.54441
2.53598
2.5319
2.52197
2.50787
2.4947
2.48589
2.48134
2.47915
2.4785
2.47825
2.47815
2.47715
2.47514
2.47165
2.46747
2.46204
2.45996
2.46127
2.66649
2.65502
2.6449
2.63971
2.6337
2.62575
2.61722
2.61036
2.60625
2.60456
2.60429
2.60463
2.6054
2.60571
2.60594
2.60593
2.60636
2.60615
2.60194
2.59606
2.73058
2.7159
2.70613
2.71315
2.72454
2.73282
2.73631
2.73577
2.73389
2.73269
2.73245
2.73262
2.7324
2.73202
2.73178
2.73109
2.7296
2.72703
2.72435
2.72236
2.82961
2.82866
2.82731
2.83766
2.85225
2.8628
2.86789
2.86889
2.86781
2.86666
2.86628
2.86676
2.86777
2.86818
2.86724
2.86394
2.8583
2.85189
2.84957
2.85027
2.99141
3.01196
3.01462
3.00809
3.00524
3.00463
3.00386
3.00233
3.00058
2.99908
2.99886
3.00013
3.00287
3.00624
3.00895
3.00913
3.00591
3.00053
2.99756
2.99586
3.14929
3.16665
3.1673
3.1573
3.14652
3.13885
3.13315
3.12859
3.12522
3.12308
3.12236
3.12302
3.1256
3.12991
3.13676
3.1463
3.15695
3.16406
3.16337
3.15447
3.26131
3.27326
3.27412
3.26652
3.25654
3.24906
3.24432
3.24109
3.2389
3.23737
3.23616
3.23548
3.23451
3.23389
3.23446
3.23893
3.24932
3.26178
3.26673
3.25761
3.30521
3.30147
3.30145
3.31264
3.32557
3.33778
3.34714
3.35233
3.35432
3.35455
3.35422
3.35317
3.3513
3.34681
3.3375
3.32141
3.2995
3.28136
3.28458
3.29747
3.38885
3.39233
3.40262
3.42204
3.4414
3.45767
3.46935
3.47664
3.48018
3.48164
3.48238
3.48283
3.48242
3.48008
3.47499
3.46548
3.452
3.43966
3.43315
3.43026
3.55638
3.57832
3.59398
3.59882
3.60141
3.60379
3.60663
3.60994
3.61238
3.61407
3.61502
3.61618
3.61756
3.61984
3.6239
3.63066
3.63925
3.64597
3.63967
3.61963
3.74375
3.75857
3.76555
3.76384
3.75758
3.7516
3.74795
3.74666
3.74656
3.74686
3.74723
3.74841
3.75071
3.75596
3.76482
3.77709
3.79037
3.79926
3.79751
3.78212
3.92326
3.93302
3.93349
3.92378
3.90789
3.89412
3.88546
3.8808
3.87847
3.87772
3.87755
3.87789
3.87833
3.87861
3.87889
3.8812
3.88669
3.89244
3.89539
3.8913
4.03701
4.03306
4.02702
4.02319
4.01831
4.01376
4.01039
4.00817
4.0071
4.00685
4.0077
4.00896
4.01047
4.0102
4.00556
3.99416
3.97703
3.96237
3.9646
3.9752
4.12287
4.11083
4.11101
4.12775
4.14136
4.14579
4.14403
4.14062
4.13803
4.13716
4.13809
4.14039
4.14424
4.14892
4.15439
4.15818
4.15755
4.15405
4.14889
4.14121
4.26092
4.27082
4.27923
4.28255
4.28288
4.27933
4.27414
4.2686
4.26425
4.26183
4.2612
4.26233
4.26439
4.26891
4.27783
4.29389
4.31537
4.33175
4.32801
4.30569
4.37992
4.38948
4.3863
4.37988
4.37964
4.3824
4.38482
4.38522
4.38434
4.38303
4.38193
4.38118
4.38035
4.3785
4.37488
4.37104
4.37014
4.37138
4.37363
4.36915
4.48213
4.48138
4.47439
4.47713
4.48621
4.49642
4.50439
4.50884
4.51086
4.5109
4.51068
4.50958
4.50747
4.5017
4.48945
4.4676
4.43989
4.41861
4.41785
4.42678
4.6243
4.63108
4.63056
4.63301
4.63645
4.64036
4.64445
4.64729
4.64894
4.64965
4.65046
4.6508
4.6511
4.65006
4.64754
4.64169
4.63101
4.61988
4.61081
4.60037
4.79692
4.80948
4.81254
4.81106
4.80617
4.7998
4.79467
4.79188
4.79076
4.79084
4.79189
4.79441
4.7982
4.80502
4.81651
4.83446
4.85511
4.86815
4.85953
4.82928
4.95843
4.97251
4.97379
4.96491
4.95263
4.94109
4.93162
4.92562
4.92263
4.92238
4.92398
4.92778
4.9338
4.94276
4.95556
4.9732
4.99198
5.00319
5.00261
4.98723
5.0595
5.06475
5.06138
5.05548
5.05001
5.0468
5.04407
5.04186
5.04047
5.0405
5.0421
5.04552
5.05057
5.05649
5.0619
5.0653
5.06667
5.06676
5.07036
5.07273
5.13565
5.13044
5.12752
5.13732
5.14958
5.15799
5.16035
5.15952
5.15753
5.15612
5.15502
5.15431
5.15314
5.15044
5.14471
5.13471
5.12345
5.11662
5.11858
5.12145
5.26139
5.27316
5.27733
5.27875
5.28043
5.28142
5.28153
5.28041
5.27864
5.27661
5.27484
5.27204
5.26628
5.25512
5.23736
5.2133
5.18696
5.16802
5.1663
5.1685
5.3782
5.39514
5.39778
5.39383
5.39333
5.3972
5.40283
5.40638
5.40749
5.4067
5.40532
5.4026
5.39789
5.3892
5.37649
5.36055
5.34303
5.32857
5.31957
5.30687
5.49703
5.49982
5.50395
5.52098
5.53864
5.55035
5.55516
5.55515
5.55264
5.54923
5.54539
5.54173
5.53825
5.53651
5.53793
5.54424
5.55385
5.55973
5.54864
5.51679
5.7117
5.7341
5.74602
5.74505
5.73639
5.72543
5.71537
5.7071
5.70027
5.69501
5.69112
5.68883
5.68807
5.68994
5.69547
5.70453
5.71412
5.71833
5.71477
5.69685
5.87677
5.89979
5.90259
5.8851
5.863
5.84756
5.83933
5.83537
5.83344
5.83284
5.83415
5.83784
5.84419
5.85265
5.86214
5.87101
5.87808
5.88092
5.88297
5.8792
5.92872
5.91825
5.90986
5.91687
5.92908
5.94233
5.95225
5.95885
5.96327
5.96767
5.97277
5.98051
5.99141
6.00596
6.023
6.04127
6.05904
6.07234
6.07811
6.07164
6.03329
6.0215
6.02037
6.03893
6.06159
6.07957
6.09077
6.09704
6.10067
6.10428
6.1087
6.11544
6.12423
6.136
6.14963
6.16427
6.17825
6.19023
6.20086
6.19975
6.25078
6.26694
6.27337
6.26868
6.25984
6.25128
6.24582
6.24244
6.24005
6.23924
6.23983
6.24232
6.2455
6.24827
6.24843
6.24556
6.24181
6.24216
6.25202
6.25607
6.451
6.47465
6.47317
6.45115
6.42429
6.40123
6.38517
6.37499
6.36898
6.36572
6.36463
6.36433
6.3627
6.35693
6.34456
6.32521
6.30327
6.28914
6.29222
6.294
6.52948
6.53173
6.52302
6.51592
6.50831
6.50062
6.49374
6.48887
6.48606
6.48484
6.48478
6.48446
6.48226
6.47607
6.46527
6.45059
6.43402
6.42116
6.41412
6.39831
6.55798
6.54648
6.54037
6.55626
6.57839
6.59623
6.60547
6.60875
6.60875
6.60826
6.6072
6.60577
6.603
6.59986
6.59743
6.59857
6.60333
6.60616
6.59286
6.55397
6.6649
6.67405
6.6807
6.69638
6.71538
6.73096
6.74005
6.74384
6.74375
6.74227
6.73999
6.73738
6.73389
6.72953
6.72456
6.72095
6.71896
6.7142
6.70389
6.67691
6.85125
6.88287
6.89218
6.88924
6.88618
6.88597
6.88709
6.88759
6.88642
6.88397
6.88161
6.87963
6.87803
6.87561
6.87178
6.86581
6.85815
6.84704
6.83756
6.82265
7.05293
7.08146
7.08644
7.07694
7.06186
7.04926
7.04066
7.03522
7.03141
7.02869
7.027
7.02673
7.02806
7.03142
7.03718
7.044
7.04955
7.04894
7.04148
7.02221
7.21832
7.23635
7.23598
7.22511
7.2076
7.19165
7.18068
7.17458
7.17176
7.1713
7.17257
7.17612
7.18186
7.1903
7.20114
7.2136
7.22434
7.22843
7.22848
7.21446
7.30949
7.30353
7.29628
7.30412
7.3111
7.31444
7.31465
7.31366
7.31287
7.314
7.31702
7.32305
7.33192
7.3435
7.35564
7.36618
7.37242
7.37403
7.37926
7.37305
7.43381
7.43195
7.43163
7.4483
7.46254
7.46754
7.46539
7.46091
7.45715
7.45625
7.45866
7.46497
7.47399
7.48444
7.49334
7.49737
7.49418
7.48836
7.494
7.49223
7.61818
7.64429
7.64972
7.64405
7.63419
7.62234
7.61114
7.60193
7.59544
7.59239
7.59287
7.59643
7.60182
7.6076
7.61242
7.61457
7.61154
7.60698
7.61114
7.60365
7.74739
7.77059
7.76719
7.75683
7.74877
7.74339
7.73832
7.73297
7.72797
7.72486
7.72364
7.72401
7.72374
7.72229
7.71952
7.71703
7.71727
7.72261
7.7289
7.71046
7.8315
7.83493
7.83292
7.84962
7.86615
7.87384
7.87262
7.86758
7.86237
7.85922
7.85854
7.85943
7.86011
7.85749
7.84858
7.83402
7.81844
7.81057
7.81547
7.80176
7.9682
7.9898
7.99561
8.00147
8.00511
8.00488
8.0016
7.9971
7.99293
7.99062
7.99092
7.99356
7.99725
8.00023
7.99963
7.99332
7.9831
7.97315
7.96666
7.93967
8.07603
8.10334
8.1057
8.10457
8.10637
8.1117
8.11676
8.11908
8.11931
8.11906
8.11975
8.12147
8.1242
8.12694
8.12939
8.13172
8.13342
8.1302
8.12153
8.08883
8.16149
8.17295
8.17544
8.19839
8.22309
8.24151
8.25109
8.25377
8.25322
8.25184
8.25104
8.25068
8.24975
8.24768
8.2447
8.24137
8.23919
8.23574
8.23252
8.20667
8.34072
8.37296
8.38216
8.38956
8.39384
8.39643
8.3969
8.39464
8.39119
8.38767
8.38572
8.38422
8.38281
8.37846
8.37053
8.35878
8.34466
8.32972
8.32686
8.30888
8.50908
8.54889
8.55085
8.54218
8.53217
8.52778
8.52681
8.52583
8.52371
8.5213
8.51967
8.51884
8.51788
8.51528
8.51072
8.50398
8.49701
8.48906
8.48515
8.45614
8.61634
8.63623
8.63102
8.63957
8.64718
8.6528
8.65594
8.65752
8.65751
8.65685
8.65617
8.65559
8.65527
8.65485
8.65489
8.65542
8.65564
8.65297
8.65246
8.61972
8.7596
8.78503
8.78055
8.78412
8.78792
8.79214
8.79531
8.79707
8.79727
8.79686
8.79648
8.79694
8.79801
8.80043
8.80484
8.81106
8.81817
8.82174
8.82572
8.79225
8.92261
8.95017
8.94234
8.94354
8.9446
8.94681
8.9478
8.94645
8.94382
8.9413
8.93968
8.9392
8.9402
8.94232
8.94651
8.95335
8.9617
8.96794
8.97777
8.94832
9.10865
9.1476
9.13827
9.12818
9.11511
9.10461
9.0979
9.09301
9.08912
9.08594
9.08417
9.08409
9.08516
9.08696
9.08881
9.09032
9.09197
9.09437
9.10808
9.08281
9.25206
9.29615
9.28072
9.26156
9.24416
9.2346
9.23201
9.2322
9.23304
9.23368
9.23537
9.2382
9.24279
9.24824
9.25267
9.25433
9.25215
9.24991
9.26229
9.23497
9.35383
9.381
9.36365
9.36844
9.37482
9.3797
9.38253
9.38449
9.38596
9.38828
9.39218
9.399
9.40858
9.42192
9.43825
9.45536
9.46949
9.47742
9.48621
9.44408
9.55473
9.60684
9.60238
9.59562
9.58159
9.56644
9.55471
9.54779
9.54394
9.54336
9.54529
9.55088
9.56048
9.57556
9.59725
9.62712
9.66174
9.68925
9.69904
9.63883
9.74848
9.81923
9.81871
9.79684
9.76392
9.73313
9.71139
9.69812
9.69118
9.68842
9.68886
9.69262
9.69871
9.707
9.71566
9.72444
9.73348
9.74184
9.75454
9.7113
9.83816
9.89181
9.88776
9.88295
9.87161
9.85751
9.84533
9.83676
9.83274
9.8317
9.83368
9.83741
9.84274
9.84651
9.84455
9.83248
9.81031
9.79037
9.79352
9.76098
9.92666
9.96759
9.96932
9.98652
9.99807
9.99954
9.99436
9.98818
9.98408
9.98334
9.98569
9.9909
9.99744
10.0033
10.006
10.0025
9.99008
9.97368
9.96142
9.9046
10.1122
10.1741
10.1895
10.2015
10.1999
10.1863
10.1691
10.1547
10.1449
10.1405
10.1401
10.1434
10.1493
10.1569
10.1664
10.1771
10.1852
10.1849
10.167
10.0884
10.2934
10.3718
10.3921
10.3925
10.3772
10.3525
10.3285
10.3094
10.2971
10.2907
10.2891
10.291
10.2949
10.3002
10.3061
10.3103
10.3084
10.2992
10.2836
10.2213
10.3549
10.4104
10.4287
10.4509
10.4661
10.4668
10.4587
10.4477
10.4393
10.4347
10.4345
10.4368
10.4415
10.4453
10.4462
10.4404
10.4257
10.4065
10.39
10.346
10.3761
10.4121
10.4378
10.4886
10.5404
10.5721
10.5839
10.5839
10.5801
10.5773
10.5769
10.5787
10.5819
10.5844
10.5842
10.5785
10.5656
10.5509
10.5338
10.4919
10.4748
10.5184
10.5512
10.5985
10.6523
10.6912
10.7129
10.7212
10.7224
10.7215
10.7208
10.7205
10.7198
10.7167
10.71
10.6971