/*--------------------------------*- C++ -*----------------------------------*\
  =========                 |
  \\      /  F ield         | OpenFOAM: The Open Source CFD Toolbox
   \\    /   O peration     | Website:  https://openfoam.org
    \\  /    A nd           | Version:  6
     \\/     M anipulation  |
\*---------------------------------------------------------------------------*/
FoamFile
{
    version     2.0;
    format      ascii;
    class       surfaceScalarField;
    location    "24";
    object      phi;
}
// * * * * * * * * * * * * * * * * * * * * * * * * * * * * * * * * * * * * * //

dimensions      [0 3 -1 0 0 0 0];

internalField   nonuniform List<scalar> 
19400
(
-4.62438e-10
-7.76121e-07
-1.03984e-09
-1.0398e-06
-1.49613e-09
-1.17081e-06
-1.67228e-09
-1.26029e-06
-1.60659e-09
-1.32069e-06
-1.41527e-09
-1.35968e-06
-1.18852e-09
-1.38375e-06
-9.58783e-10
-1.39789e-06
-7.29047e-10
-1.40547e-06
-4.88473e-10
-1.40842e-06
-2.40346e-10
-1.40761e-06
2.91734e-11
-1.40306e-06
3.0549e-10
-1.39398e-06
5.98864e-10
-1.37857e-06
8.56495e-10
-1.35369e-06
1.01237e-09
-1.31459e-06
9.45062e-10
-1.25492e-06
6.11039e-10
-1.16676e-06
1.18812e-10
-1.03723e-06
-7.75232e-07
8.35616e-11
-7.76183e-07
-2.8135e-10
-1.03944e-06
-5.12396e-10
-1.17056e-06
-7.14793e-10
-1.26009e-06
-8.35746e-10
-1.32056e-06
-8.71265e-10
-1.35965e-06
-8.16605e-10
-1.3838e-06
-7.26654e-10
-1.39799e-06
-6.10798e-10
-1.40559e-06
-4.83514e-10
-1.40855e-06
-3.46057e-10
-1.40775e-06
-2.13015e-10
-1.4032e-06
-8.54228e-11
-1.39411e-06
3.32577e-11
-1.37869e-06
1.13168e-10
-1.35377e-06
1.45204e-10
-1.31462e-06
1.21295e-10
-1.2549e-06
1.9601e-11
-1.16665e-06
-2.09153e-10
-1.037e-06
-7.7544e-07
-8.34565e-12
-7.76155e-07
-2.16868e-10
-1.03925e-06
-3.19849e-10
-1.17044e-06
-4.36148e-10
-1.25999e-06
-5.20476e-10
-1.32047e-06
-5.83073e-10
-1.35959e-06
-5.87663e-10
-1.38379e-06
-5.70118e-10
-1.398e-06
-5.30783e-10
-1.40562e-06
-4.69264e-10
-1.40861e-06
-3.94941e-10
-1.40782e-06
-3.16215e-10
-1.40327e-06
-2.42176e-10
-1.39419e-06
-1.58837e-10
-1.37877e-06
-8.02931e-11
-1.35384e-06
-2.63542e-11
-1.31467e-06
-1.66814e-11
-1.2549e-06
-2.01138e-11
-1.16664e-06
5.40914e-12
-1.03702e-06
-7.75434e-07
2.25888e-11
-7.76171e-07
-4.45989e-11
-1.0392e-06
-9.67824e-11
-1.17038e-06
-1.7656e-10
-1.25992e-06
-2.48006e-10
-1.32039e-06
-3.29147e-10
-1.35951e-06
-3.8096e-10
-1.38374e-06
-4.23023e-10
-1.39796e-06
-4.48274e-10
-1.40559e-06
-4.57425e-10
-1.4086e-06
-4.43172e-10
-1.40784e-06
-4.15613e-10
-1.4033e-06
-3.80031e-10
-1.39422e-06
-3.3369e-10
-1.37881e-06
-2.95452e-10
-1.35388e-06
-2.65647e-10
-1.3147e-06
-2.43559e-10
-1.25492e-06
-1.95914e-10
-1.16669e-06
-1.02971e-10
-1.03711e-06
-7.75537e-07
-1.03286e-10
-7.76063e-07
-2.48154e-11
-1.03928e-06
-3.1899e-11
-1.17036e-06
-1.08004e-10
-1.25985e-06
-1.56122e-10
-1.32033e-06
-2.18745e-10
-1.35945e-06
-2.91291e-10
-1.38365e-06
-3.64562e-10
-1.39788e-06
-4.17451e-10
-1.40553e-06
-4.59135e-10
-1.40856e-06
-4.74437e-10
-1.40781e-06
-4.74033e-10
-1.4033e-06
-4.57311e-10
-1.39424e-06
-4.25721e-10
-1.37884e-06
-3.93663e-10
-1.35391e-06
-3.68123e-10
-1.31472e-06
-3.19638e-10
-1.25497e-06
-2.12671e-10
-1.1668e-06
-2.41291e-11
-1.0373e-06
-7.75561e-07
-1.80816e-11
-7.76046e-07
4.82292e-11
-1.03935e-06
1.88237e-11
-1.17033e-06
-9.09804e-11
-1.25974e-06
-1.56771e-10
-1.32026e-06
-2.3053e-10
-1.35938e-06
-3.12047e-10
-1.38356e-06
-3.86593e-10
-1.39781e-06
-4.36814e-10
-1.40547e-06
-4.7842e-10
-1.40851e-06
-4.94883e-10
-1.40779e-06
-4.94656e-10
-1.4033e-06
-4.75815e-10
-1.39425e-06
-4.41128e-10
-1.37888e-06
-3.89506e-10
-1.35396e-06
-3.59944e-10
-1.31475e-06
-3.31175e-10
-1.255e-06
-2.33049e-10
-1.1669e-06
-4.41316e-11
-1.03748e-06
-7.75603e-07
1.09815e-10
-7.76161e-07
9.31853e-11
-1.03934e-06
5.32515e-11
-1.17029e-06
-3.01349e-11
-1.25966e-06
-1.24596e-10
-1.32016e-06
-2.20959e-10
-1.35929e-06
-3.08823e-10
-1.38347e-06
-3.84418e-10
-1.39774e-06
-4.35673e-10
-1.40542e-06
-4.75936e-10
-1.40847e-06
-4.93798e-10
-1.40777e-06
-4.86175e-10
-1.40331e-06
-4.65176e-10
-1.39427e-06
-4.3683e-10
-1.3789e-06
-3.86979e-10
-1.35401e-06
-3.42341e-10
-1.31479e-06
-3.13544e-10
-1.25503e-06
-2.43981e-10
-1.16696e-06
-1.1629e-10
-1.0376e-06
-7.75718e-07
1.48536e-10
-7.76312e-07
1.32729e-10
-1.03933e-06
1.18738e-10
-1.17028e-06
6.98079e-11
-1.25962e-06
-3.11143e-11
-1.32006e-06
-1.37822e-10
-1.35919e-06
-2.37996e-10
-1.38338e-06
-3.25608e-10
-1.39765e-06
-3.94063e-10
-1.40535e-06
-4.42031e-10
-1.40843e-06
-4.70997e-10
-1.40774e-06
-4.67262e-10
-1.40331e-06
-4.40937e-10
-1.3943e-06
-4.06967e-10
-1.37893e-06
-3.60771e-10
-1.35406e-06
-3.106e-10
-1.31484e-06
-2.80844e-10
-1.25505e-06
-2.32289e-10
-1.167e-06
-1.63587e-10
-1.03767e-06
-7.75881e-07
1.3031e-10
-7.76446e-07
1.95339e-10
-1.03939e-06
1.95046e-10
-1.17028e-06
1.638e-10
-1.25959e-06
5.86995e-11
-1.31996e-06
-7.06011e-11
-1.35906e-06
-1.90272e-10
-1.38326e-06
-2.96945e-10
-1.39755e-06
-3.81513e-10
-1.40527e-06
-4.44718e-10
-1.40837e-06
-4.89901e-10
-1.4077e-06
-5.06536e-10
-1.40329e-06
-4.92412e-10
-1.39431e-06
-4.69269e-10
-1.37896e-06
-4.4011e-10
-1.35408e-06
-3.82936e-10
-1.3149e-06
-3.18771e-10
-1.25512e-06
-2.5482e-10
-1.16706e-06
-2.35467e-10
-1.03768e-06
-7.76117e-07
9.60739e-11
-7.76548e-07
2.22027e-10
-1.03952e-06
2.20364e-10
-1.17028e-06
1.61774e-10
-1.25953e-06
5.00987e-11
-1.31985e-06
-8.01496e-11
-1.35893e-06
-2.03645e-10
-1.38314e-06
-3.14225e-10
-1.39744e-06
-4.03238e-10
-1.40518e-06
-4.82335e-10
-1.40829e-06
-5.41254e-10
-1.40764e-06
-5.86918e-10
-1.40325e-06
-6.0148e-10
-1.3943e-06
-6.0561e-10
-1.37895e-06
-5.88169e-10
-1.3541e-06
-5.07554e-10
-1.31498e-06
-3.83106e-10
-1.25524e-06
-2.58268e-10
-1.16719e-06
-1.486e-10
-1.03779e-06
-7.76265e-07
1.29901e-10
-7.76684e-07
2.29416e-10
-1.03962e-06
2.51955e-10
-1.17031e-06
1.62662e-10
-1.25943e-06
2.98395e-11
-1.31972e-06
-9.72659e-11
-1.3588e-06
-2.19352e-10
-1.38302e-06
-3.19666e-10
-1.39734e-06
-4.08943e-10
-1.40509e-06
-4.87808e-10
-1.40821e-06
-5.51221e-10
-1.40757e-06
-6.02617e-10
-1.4032e-06
-6.26271e-10
-1.39427e-06
-6.28515e-10
-1.37896e-06
-5.93941e-10
-1.35414e-06
-5.09088e-10
-1.31507e-06
-3.72262e-10
-1.25538e-06
-2.0555e-10
-1.16735e-06
1.31712e-11
-1.03801e-06
-7.76252e-07
1.20364e-10
-7.76808e-07
2.14471e-10
-1.03971e-06
2.40588e-10
-1.17034e-06
1.4152e-10
-1.25933e-06
2.63556e-12
-1.31958e-06
-1.14362e-10
-1.35868e-06
-2.26312e-10
-1.3829e-06
-3.20928e-10
-1.39724e-06
-4.04704e-10
-1.40501e-06
-4.78862e-10
-1.40814e-06
-5.4233e-10
-1.40751e-06
-5.94151e-10
-1.40315e-06
-6.22877e-10
-1.39424e-06
-6.19614e-10
-1.37896e-06
-5.69878e-10
-1.35419e-06
-4.82857e-10
-1.31516e-06
-3.59095e-10
-1.2555e-06
-1.78045e-10
-1.16754e-06
8.57997e-12
-1.0382e-06
-7.76245e-07
1.12597e-10
-7.76922e-07
1.82502e-10
-1.03979e-06
1.99288e-10
-1.17036e-06
1.42748e-10
-1.25928e-06
3.96471e-11
-1.31948e-06
-7.07522e-11
-1.35857e-06
-1.82509e-10
-1.38279e-06
-2.92538e-10
-1.39713e-06
-3.90811e-10
-1.40491e-06
-4.77799e-10
-1.40805e-06
-5.53921e-10
-1.40743e-06
-6.16595e-10
-1.40309e-06
-6.59226e-10
-1.3942e-06
-6.63217e-10
-1.37896e-06
-6.17045e-10
-1.35423e-06
-5.15692e-10
-1.31526e-06
-3.70383e-10
-1.25565e-06
-1.88899e-10
-1.16772e-06
-5.62581e-11
-1.03834e-06
-7.76302e-07
9.02882e-11
-7.7701e-07
1.57875e-10
-1.03986e-06
1.74877e-10
-1.17037e-06
1.62272e-10
-1.25927e-06
8.52327e-11
-1.3194e-06
-3.40223e-11
-1.35845e-06
-1.59101e-10
-1.38267e-06
-2.86e-10
-1.39701e-06
-4.03687e-10
-1.40479e-06
-5.02666e-10
-1.40795e-06
-5.90062e-10
-1.40734e-06
-6.63395e-10
-1.40301e-06
-7.09928e-10
-1.39415e-06
-7.12637e-10
-1.37895e-06
-6.57736e-10
-1.35429e-06
-5.47402e-10
-1.31537e-06
-3.75071e-10
-1.25582e-06
-2.07878e-10
-1.16789e-06
-8.91116e-11
-1.03846e-06
-7.7639e-07
1.37889e-10
-7.77134e-07
1.88467e-10
-1.03991e-06
1.61368e-10
-1.17034e-06
1.12495e-10
-1.25922e-06
5.62349e-11
-1.31934e-06
-5.58984e-11
-1.35834e-06
-1.82394e-10
-1.38254e-06
-3.10936e-10
-1.39687e-06
-4.28966e-10
-1.40467e-06
-5.29804e-10
-1.40784e-06
-6.19371e-10
-1.40725e-06
-6.93385e-10
-1.40293e-06
-7.45674e-10
-1.39409e-06
-7.48816e-10
-1.37895e-06
-6.8611e-10
-1.35435e-06
-5.78831e-10
-1.31547e-06
-3.94682e-10
-1.25601e-06
-2.02421e-10
-1.16808e-06
-9.24189e-11
-1.03856e-06
-7.7648e-07
2.24643e-10
-7.77341e-07
2.07596e-10
-1.03988e-06
2.0669e-10
-1.17032e-06
1.70679e-10
-1.25918e-06
1.05236e-10
-1.31927e-06
-1.70462e-11
-1.35821e-06
-1.64035e-10
-1.38238e-06
-3.07366e-10
-1.39673e-06
-4.31051e-10
-1.40454e-06
-5.35189e-10
-1.40773e-06
-6.21392e-10
-1.40716e-06
-6.94359e-10
-1.40285e-06
-7.48853e-10
-1.39404e-06
-7.5759e-10
-1.37893e-06
-7.04326e-10
-1.3544e-06
-5.83056e-10
-1.31559e-06
-4.02961e-10
-1.25618e-06
-1.82878e-10
-1.16829e-06
-2.23636e-11
-1.03871e-06
-7.76499e-07
1.36409e-10
-7.77457e-07
1.81139e-10
-1.03992e-06
2.03467e-10
-1.17033e-06
1.80276e-10
-1.25916e-06
1.14171e-10
-1.31919e-06
-1.16943e-11
-1.35809e-06
-1.6514e-10
-1.38222e-06
-3.21498e-10
-1.39657e-06
-4.60999e-10
-1.4044e-06
-5.72852e-10
-1.40762e-06
-6.68377e-10
-1.40707e-06
-7.3483e-10
-1.40278e-06
-7.75533e-10
-1.39399e-06
-7.66437e-10
-1.37894e-06
-6.97672e-10
-1.35446e-06
-5.57526e-10
-1.31573e-06
-3.82689e-10
-1.25635e-06
-2.06279e-10
-1.16845e-06
-5.45963e-11
-1.03885e-06
-7.76551e-07
1.24251e-10
-7.7757e-07
2.22936e-10
-1.04e-06
2.79435e-10
-1.17038e-06
2.46707e-10
-1.25912e-06
1.7997e-10
-1.31912e-06
5.1137e-11
-1.35796e-06
-1.21682e-10
-1.38205e-06
-3.07598e-10
-1.39638e-06
-4.80568e-10
-1.40422e-06
-6.29719e-10
-1.40746e-06
-7.52213e-10
-1.40694e-06
-8.39347e-10
-1.40269e-06
-8.88482e-10
-1.39394e-06
-8.88087e-10
-1.37893e-06
-8.29374e-10
-1.35452e-06
-6.90832e-10
-1.31586e-06
-4.71143e-10
-1.25656e-06
-2.65848e-10
-1.16865e-06
-1.88528e-10
-1.03892e-06
-7.76739e-07
8.81439e-11
-7.77662e-07
2.55466e-10
-1.04016e-06
3.655e-10
-1.17049e-06
3.73227e-10
-1.25913e-06
3.02603e-10
-1.31905e-06
1.58578e-10
-1.35782e-06
-4.34493e-11
-1.38185e-06
-2.58856e-10
-1.39617e-06
-4.66257e-10
-1.40402e-06
-6.58052e-10
-1.40727e-06
-8.13999e-10
-1.40678e-06
-9.37145e-10
-1.40257e-06
-1.0146e-09
-1.39386e-06
-1.03969e-09
-1.37891e-06
-9.86529e-10
-1.35456e-06
-8.34852e-10
-1.31601e-06
-5.57071e-10
-1.25683e-06
-2.738e-10
-1.16893e-06
-7.49919e-11
-1.03911e-06
-7.76815e-07
-5.13339e-12
-7.77665e-07
2.41023e-10
-1.0404e-06
3.97753e-10
-1.17066e-06
4.76108e-10
-1.2592e-06
4.04904e-10
-1.31899e-06
2.36492e-10
-1.35765e-06
1.8666e-11
-1.38163e-06
-2.1532e-10
-1.39593e-06
-4.47255e-10
-1.40378e-06
-6.60409e-10
-1.40706e-06
-8.34334e-10
-1.4066e-06
-9.76414e-10
-1.40243e-06
-1.06049e-09
-1.39377e-06
-1.08518e-09
-1.37889e-06
-1.02266e-09
-1.35462e-06
-8.63029e-10
-1.31617e-06
-6.01526e-10
-1.25709e-06
-3.00422e-10
-1.16923e-06
3.01937e-11
-1.03945e-06
-7.76787e-07
-5.29426e-11
-7.77616e-07
2.15407e-10
-1.04066e-06
4.00717e-10
-1.17085e-06
4.92804e-10
-1.25929e-06
4.21635e-10
-1.31892e-06
2.53914e-10
-1.35748e-06
4.0435e-11
-1.38142e-06
-2.04198e-10
-1.39569e-06
-4.46936e-10
-1.40354e-06
-6.70373e-10
-1.40684e-06
-8.55335e-10
-1.40641e-06
-1.00409e-09
-1.40228e-06
-1.09147e-09
-1.39368e-06
-1.10347e-09
-1.37888e-06
-1.01964e-09
-1.35471e-06
-8.57962e-10
-1.31633e-06
-6.26927e-10
-1.25733e-06
-3.36635e-10
-1.16954e-06
-4.06377e-11
-1.03976e-06
-7.76829e-07
3.09195e-11
-7.77641e-07
2.40361e-10
-1.04086e-06
4.39525e-10
-1.17105e-06
5.31464e-10
-1.25937e-06
4.59485e-10
-1.31884e-06
2.87383e-10
-1.3573e-06
6.20911e-11
-1.38119e-06
-1.94301e-10
-1.39543e-06
-4.48478e-10
-1.40327e-06
-6.89502e-10
-1.4066e-06
-8.95317e-10
-1.4062e-06
-1.06321e-09
-1.40211e-06
-1.16976e-09
-1.39357e-06
-1.19592e-09
-1.37885e-06
-1.12454e-09
-1.35478e-06
-9.51573e-10
-1.3165e-06
-6.83835e-10
-1.2576e-06
-3.75294e-10
-1.16984e-06
-1.30155e-10
-1.04e-06
-7.76956e-07
1.37219e-10
-7.77762e-07
3.10102e-10
-1.04102e-06
5.28707e-10
-1.17125e-06
6.37469e-10
-1.25947e-06
5.66493e-10
-1.31876e-06
3.69907e-10
-1.35709e-06
1.11532e-10
-1.38092e-06
-1.59534e-10
-1.39515e-06
-4.26509e-10
-1.403e-06
-6.76916e-10
-1.40634e-06
-9.0226e-10
-1.40597e-06
-1.08384e-09
-1.40192e-06
-1.20564e-09
-1.39344e-06
-1.25978e-09
-1.37878e-06
-1.22529e-09
-1.3548e-06
-1.04258e-09
-1.31667e-06
-7.36517e-10
-1.25789e-06
-4.14545e-10
-1.17016e-06
-1.33597e-10
-1.04027e-06
-7.77085e-07
1.76643e-10
-7.7792e-07
3.79243e-10
-1.04122e-06
5.89654e-10
-1.17145e-06
7.04956e-10
-1.25958e-06
6.55116e-10
-1.3187e-06
4.56259e-10
-1.35689e-06
1.87838e-10
-1.38065e-06
-9.69619e-11
-1.39486e-06
-3.80617e-10
-1.40271e-06
-6.47014e-10
-1.40606e-06
-8.94269e-10
-1.40572e-06
-1.0907e-09
-1.40171e-06
-1.23054e-09
-1.39329e-06
-1.3001e-09
-1.37871e-06
-1.26668e-09
-1.35483e-06
-1.0725e-09
-1.31686e-06
-7.59224e-10
-1.25819e-06
-4.38812e-10
-1.17045e-06
-1.49801e-10
-1.04053e-06
-7.7723e-07
2.08059e-10
-7.78112e-07
4.7063e-10
-1.04147e-06
7.10213e-10
-1.17168e-06
8.39654e-10
-1.25971e-06
8.08911e-10
-1.31866e-06
6.07659e-10
-1.35668e-06
3.19672e-10
-1.38035e-06
2.02382e-12
-1.39453e-06
-3.18959e-10
-1.40239e-06
-6.23631e-10
-1.40575e-06
-9.04597e-10
-1.40544e-06
-1.13417e-09
-1.40147e-06
-1.31054e-09
-1.39311e-06
-1.40715e-09
-1.3786e-06
-1.38857e-09
-1.35484e-06
-1.19742e-09
-1.31705e-06
-8.68779e-10
-1.25851e-06
-5.08112e-10
-1.1708e-06
-2.12816e-10
-1.04081e-06
-7.7744e-07
2.03762e-10
-7.78304e-07
5.69009e-10
-1.04183e-06
8.62834e-10
-1.17196e-06
1.00517e-09
-1.25985e-06
9.6962e-10
-1.31862e-06
7.63812e-10
-1.35647e-06
4.50814e-10
-1.38003e-06
8.86684e-11
-1.39416e-06
-2.80866e-10
-1.40202e-06
-6.32062e-10
-1.40539e-06
-9.53876e-10
-1.40511e-06
-1.22895e-09
-1.40119e-06
-1.44159e-09
-1.39289e-06
-1.56647e-09
-1.37847e-06
-1.55457e-09
-1.35484e-06
-1.37035e-09
-1.31722e-06
-1.0395e-09
-1.25883e-06
-6.20345e-10
-1.1712e-06
-2.191e-10
-1.0412e-06
-7.77659e-07
1.75994e-10
-7.78471e-07
6.03641e-10
-1.04225e-06
9.64388e-10
-1.17231e-06
1.13732e-09
-1.26001e-06
1.09541e-09
-1.31857e-06
8.85573e-10
-1.35626e-06
5.52768e-10
-1.37969e-06
1.5207e-10
-1.39376e-06
-2.54918e-10
-1.4016e-06
-6.51958e-10
-1.40499e-06
-1.01821e-09
-1.40474e-06
-1.34497e-09
-1.40086e-06
-1.59974e-09
-1.39263e-06
-1.7556e-09
-1.37831e-06
-1.75169e-09
-1.35484e-06
-1.56803e-09
-1.3174e-06
-1.21622e-09
-1.25918e-06
-7.27515e-10
-1.17169e-06
-2.17246e-10
-1.04171e-06
-7.77878e-07
1.93479e-10
-7.78655e-07
6.75369e-10
-1.04273e-06
1.07235e-09
-1.1727e-06
1.25921e-09
-1.2602e-06
1.22317e-09
-1.31853e-06
1.00608e-09
-1.35604e-06
6.55156e-10
-1.37933e-06
2.28531e-10
-1.39333e-06
-2.0769e-10
-1.40116e-06
-6.42742e-10
-1.40455e-06
-1.04562e-09
-1.40432e-06
-1.41423e-09
-1.4005e-06
-1.70173e-09
-1.39234e-06
-1.88488e-09
-1.37813e-06
-1.90926e-09
-1.35481e-06
-1.73209e-09
-1.31758e-06
-1.33969e-09
-1.25957e-06
-7.89005e-10
-1.17225e-06
-1.70612e-10
-1.04233e-06
-7.7805e-07
2.81801e-10
-7.78928e-07
7.84972e-10
-1.04322e-06
1.22841e-09
-1.17314e-06
1.44364e-09
-1.2604e-06
1.40911e-09
-1.31848e-06
1.17105e-09
-1.35579e-06
7.92188e-10
-1.37895e-06
3.39904e-10
-1.39287e-06
-1.30397e-10
-1.40068e-06
-5.96336e-10
-1.40408e-06
-1.03186e-09
-1.40388e-06
-1.42362e-09
-1.4001e-06
-1.73187e-09
-1.39202e-06
-1.93227e-09
-1.37793e-06
-1.97236e-09
-1.35477e-06
-1.80844e-09
-1.31774e-06
-1.4029e-09
-1.25998e-06
-8.2307e-10
-1.17283e-06
-1.6749e-10
-1.04299e-06
-7.78217e-07
3.24606e-10
-7.79243e-07
8.82934e-10
-1.04377e-06
1.36063e-09
-1.17361e-06
1.61464e-09
-1.26065e-06
1.59221e-09
-1.31846e-06
1.33726e-09
-1.35554e-06
9.3814e-10
-1.37854e-06
4.66359e-10
-1.3924e-06
-3.53234e-11
-1.40017e-06
-5.38408e-10
-1.40358e-06
-1.00899e-09
-1.4034e-06
-1.4298e-09
-1.39968e-06
-1.7721e-09
-1.39167e-06
-2.00045e-09
-1.3777e-06
-2.06199e-09
-1.3547e-06
-1.91013e-09
-1.31788e-06
-1.50109e-09
-1.26038e-06
-8.9492e-10
-1.17343e-06
-2.68217e-10
-1.04362e-06
-7.78482e-07
3.55073e-10
-7.7959e-07
9.72221e-10
-1.04438e-06
1.49958e-09
-1.17413e-06
1.81232e-09
-1.26096e-06
1.81041e-09
-1.31845e-06
1.5379e-09
-1.35526e-06
1.11373e-09
-1.37812e-06
6.07634e-10
-1.39189e-06
5.6361e-11
-1.39962e-06
-4.91025e-10
-1.40302e-06
-1.00802e-09
-1.40288e-06
-1.46156e-09
-1.39921e-06
-1.83973e-09
-1.39129e-06
-2.09022e-09
-1.37743e-06
-2.16574e-09
-1.35462e-06
-2.01615e-09
-1.31803e-06
-1.61045e-09
-1.26078e-06
-1.0018e-09
-1.17403e-06
-3.54161e-10
-1.04425e-06
-7.78833e-07
3.28705e-10
-7.7991e-07
1.05657e-09
-1.04509e-06
1.63771e-09
-1.17471e-06
1.97845e-09
-1.26129e-06
1.98119e-09
-1.31845e-06
1.69337e-09
-1.35496e-06
1.23994e-09
-1.37766e-06
6.93188e-10
-1.39133e-06
9.33009e-11
-1.39901e-06
-5.00992e-10
-1.40242e-06
-1.06739e-09
-1.40231e-06
-1.56493e-09
-1.3987e-06
-1.98272e-09
-1.39086e-06
-2.26359e-09
-1.37714e-06
-2.35906e-09
-1.35451e-06
-2.21405e-09
-1.31816e-06
-1.78081e-09
-1.2612e-06
-1.12881e-09
-1.17467e-06
-4.69096e-10
-1.0449e-06
-7.793e-07
4.5494e-10
-7.80345e-07
1.20403e-09
-1.04583e-06
1.77854e-09
-1.17527e-06
2.07634e-09
-1.26158e-06
2.0586e-09
-1.31842e-06
1.7759e-09
-1.35467e-06
1.3133e-09
-1.37719e-06
7.42478e-10
-1.39076e-06
1.12817e-10
-1.39838e-06
-5.25851e-10
-1.40177e-06
-1.14356e-09
-1.40169e-06
-1.69991e-09
-1.39814e-06
-2.16493e-09
-1.39039e-06
-2.48535e-09
-1.37681e-06
-2.60722e-09
-1.35438e-06
-2.4565e-09
-1.31831e-06
-1.96692e-09
-1.26168e-06
-1.22656e-09
-1.1754e-06
-4.726e-10
-1.04564e-06
-7.79771e-07
6.39853e-10
-7.80964e-07
1.34077e-09
-1.04651e-06
1.99624e-09
-1.17591e-06
2.3402e-09
-1.26192e-06
2.32294e-09
-1.3184e-06
2.02411e-09
-1.35437e-06
1.52733e-09
-1.37669e-06
9.10412e-10
-1.39013e-06
2.26893e-10
-1.39769e-06
-4.68057e-10
-1.40107e-06
-1.14339e-09
-1.40101e-06
-1.75584e-09
-1.39752e-06
-2.25988e-09
-1.38989e-06
-2.61301e-09
-1.37646e-06
-2.74869e-09
-1.35424e-06
-2.5882e-09
-1.31846e-06
-2.09475e-09
-1.26217e-06
-1.31781e-09
-1.17617e-06
-4.30751e-10
-1.04652e-06
-7.80201e-07
5.49155e-10
-7.815e-07
1.41183e-09
-1.04736e-06
2.19767e-09
-1.17669e-06
2.64641e-09
-1.26236e-06
2.66236e-09
-1.31841e-06
2.34594e-09
-1.35404e-06
1.80869e-09
-1.37615e-06
1.13172e-09
-1.38945e-06
3.82384e-10
-1.39694e-06
-3.78847e-10
-1.4003e-06
-1.11593e-09
-1.40027e-06
-1.78199e-09
-1.39685e-06
-2.33789e-09
-1.38933e-06
-2.72709e-09
-1.37606e-06
-2.87909e-09
-1.35409e-06
-2.72288e-09
-1.31861e-06
-2.22433e-09
-1.26267e-06
-1.43509e-09
-1.17696e-06
-5.47658e-10
-1.04741e-06
-7.80748e-07
4.57379e-10
-7.81954e-07
1.49533e-09
-1.04839e-06
2.35116e-09
-1.17754e-06
2.82709e-09
-1.26283e-06
2.86381e-09
-1.31844e-06
2.54923e-09
-1.35372e-06
1.99007e-09
-1.37558e-06
1.27494e-09
-1.38873e-06
4.8153e-10
-1.39614e-06
-3.35558e-10
-1.39948e-06
-1.12725e-09
-1.39947e-06
-1.85004e-09
-1.39612e-06
-2.4621e-09
-1.38871e-06
-2.88877e-09
-1.37563e-06
-3.06349e-09
-1.35391e-06
-2.90716e-09
-1.31876e-06
-2.36609e-09
-1.2632e-06
-1.53782e-09
-1.17778e-06
-6.43351e-10
-1.0483e-06
-7.8139e-07
5.5334e-10
-7.82504e-07
1.59758e-09
-1.04943e-06
2.46737e-09
-1.17841e-06
2.95068e-09
-1.2633e-06
3.00911e-09
-1.31849e-06
2.70473e-09
-1.35341e-06
2.12983e-09
-1.375e-06
1.38661e-09
-1.38797e-06
5.54168e-10
-1.3953e-06
-3.06596e-10
-1.39861e-06
-1.14811e-09
-1.39862e-06
-1.91974e-09
-1.39534e-06
-2.57382e-09
-1.38805e-06
-3.03907e-09
-1.37516e-06
-3.22763e-09
-1.35371e-06
-3.06051e-09
-1.31892e-06
-2.50691e-09
-1.26375e-06
-1.63506e-09
-1.17865e-06
-6.39419e-10
-1.04928e-06
-7.82029e-07
6.92011e-10
-7.83186e-07
1.70876e-09
-1.05044e-06
2.60202e-09
-1.17929e-06
3.11489e-09
-1.26381e-06
3.19174e-09
-1.31856e-06
2.88639e-09
-1.3531e-06
2.29174e-09
-1.3744e-06
1.51275e-09
-1.38719e-06
6.32417e-10
-1.39441e-06
-2.77767e-10
-1.39769e-06
-1.17088e-09
-1.39773e-06
-1.99171e-09
-1.39451e-06
-2.6859e-09
-1.38735e-06
-3.18362e-09
-1.37465e-06
-3.38797e-09
-1.3535e-06
-3.22397e-09
-1.31908e-06
-2.66376e-09
-1.2643e-06
-1.75258e-09
-1.17956e-06
-6.79834e-10
-1.05035e-06
-7.82709e-07
8.12217e-10
-7.83981e-07
1.86466e-09
-1.05148e-06
2.77169e-09
-1.18019e-06
3.29248e-09
-1.26432e-06
3.38837e-09
-1.31865e-06
3.08291e-09
-1.35279e-06
2.46704e-09
-1.37378e-06
1.64943e-09
-1.38636e-06
7.16845e-10
-1.39348e-06
-2.53824e-10
-1.39671e-06
-1.20689e-09
-1.39677e-06
-2.08478e-09
-1.39363e-06
-2.82799e-09
-1.3866e-06
-3.35716e-09
-1.37412e-06
-3.59007e-09
-1.35326e-06
-3.42766e-09
-1.31923e-06
-2.83016e-09
-1.2649e-06
-1.88296e-09
-1.1805e-06
-7.57986e-10
-1.05148e-06
-7.83467e-07
9.05405e-10
-7.84869e-07
2.02382e-09
-1.05259e-06
2.98711e-09
-1.18114e-06
3.55701e-09
-1.26489e-06
3.67958e-09
-1.31876e-06
3.36858e-09
-1.35247e-06
2.71745e-09
-1.37312e-06
1.84382e-09
-1.38548e-06
8.44705e-10
-1.39247e-06
-2.01513e-10
-1.39566e-06
-1.23001e-09
-1.39574e-06
-2.17806e-09
-1.39267e-06
-2.98562e-09
-1.38579e-06
-3.56782e-09
-1.37353e-06
-3.83531e-09
-1.35299e-06
-3.65964e-09
-1.3194e-06
-3.01695e-09
-1.26554e-06
-2.0039e-09
-1.18152e-06
-8.05002e-10
-1.05268e-06
-7.8427e-07
8.60462e-10
-7.85716e-07
2.13235e-09
-1.05385e-06
3.19227e-09
-1.18218e-06
3.83154e-09
-1.26552e-06
3.97531e-09
-1.31889e-06
3.64853e-09
-1.35214e-06
2.96114e-09
-1.37242e-06
2.03881e-09
-1.38455e-06
9.83339e-10
-1.3914e-06
-1.21865e-10
-1.39455e-06
-1.21284e-09
-1.39463e-06
-2.22397e-09
-1.39165e-06
-3.08618e-09
-1.38492e-06
-3.71921e-09
-1.37289e-06
-4.01146e-09
-1.35269e-06
-3.84083e-09
-1.31957e-06
-3.17489e-09
-1.2662e-06
-2.08347e-09
-1.1826e-06
-7.55488e-10
-1.054e-06
-7.85022e-07
8.54632e-10
-7.86561e-07
2.22315e-09
-1.05521e-06
3.31377e-09
-1.18326e-06
3.98257e-09
-1.26618e-06
4.14294e-09
-1.31904e-06
3.82064e-09
-1.3518e-06
3.11996e-09
-1.37171e-06
2.1737e-09
-1.38359e-06
1.08685e-09
-1.39031e-06
-4.70774e-11
-1.3934e-06
-1.17324e-09
-1.3935e-06
-2.21198e-09
-1.3906e-06
-3.09644e-09
-1.38402e-06
-3.73652e-09
-1.37224e-06
-4.03069e-09
-1.35239e-06
-3.88376e-09
-1.31971e-06
-3.24583e-09
-1.26682e-06
-2.16099e-09
-1.18367e-06
-8.00209e-10
-1.05534e-06
-7.85819e-07
9.57325e-10
-7.87508e-07
2.30676e-09
-1.05655e-06
3.4589e-09
-1.18441e-06
4.16978e-09
-1.26688e-06
4.33321e-09
-1.3192e-06
3.98784e-09
-1.35145e-06
3.25693e-09
-1.37097e-06
2.27752e-09
-1.3826e-06
1.15877e-09
-1.38918e-06
-9.70411e-12
-1.39222e-06
-1.17304e-09
-1.39233e-06
-2.24677e-09
-1.38951e-06
-3.1702e-09
-1.38309e-06
-3.83656e-09
-1.37156e-06
-4.15285e-09
-1.35207e-06
-4.0224e-09
-1.31983e-06
-3.38952e-09
-1.26745e-06
-2.30434e-09
-1.18474e-06
-1.05475e-09
-1.05657e-06
-7.86871e-07
1.01781e-09
-7.88509e-07
2.39952e-09
-1.05792e-06
3.59696e-09
-1.18559e-06
4.32846e-09
-1.26761e-06
4.492e-09
-1.31935e-06
4.12367e-09
-1.35107e-06
3.36898e-09
-1.37021e-06
2.35933e-09
-1.38159e-06
1.20418e-09
-1.38802e-06
-1.20903e-11
-1.39099e-06
-1.22619e-09
-1.39111e-06
-2.36165e-09
-1.38837e-06
-3.3465e-09
-1.3821e-06
-4.0738e-09
-1.37082e-06
-4.42677e-09
-1.35171e-06
-4.30033e-09
-1.31995e-06
-3.62386e-09
-1.26812e-06
-2.46762e-09
-1.18589e-06
-1.17877e-09
-1.05785e-06
-7.88049e-07
1.1254e-09
-7.89616e-07
2.52978e-09
-1.05932e-06
3.77861e-09
-1.18683e-06
4.536e-09
-1.26836e-06
4.69496e-09
-1.3195e-06
4.3094e-09
-1.35069e-06
3.52388e-09
-1.36942e-06
2.47553e-09
-1.38053e-06
1.27227e-09
-1.38682e-06
6.78635e-13
-1.38972e-06
-1.27212e-09
-1.38984e-06
-2.47515e-09
-1.38716e-06
-3.52155e-09
-1.38105e-06
-4.30312e-09
-1.37004e-06
-4.69019e-09
-1.35131e-06
-4.56314e-09
-1.32007e-06
-3.83994e-09
-1.26883e-06
-2.59218e-09
-1.18713e-06
-1.11575e-09
-1.05932e-06
-7.89164e-07
1.13916e-09
-7.9074e-07
2.65792e-09
-1.06083e-06
3.99694e-09
-1.18816e-06
4.79812e-09
-1.26915e-06
4.96165e-09
-1.31966e-06
4.55821e-09
-1.35028e-06
3.73423e-09
-1.36859e-06
2.63905e-09
-1.37943e-06
1.38255e-09
-1.38555e-06
5.35953e-11
-1.38838e-06
-1.27737e-09
-1.3885e-06
-2.53925e-09
-1.38589e-06
-3.63664e-09
-1.37995e-06
-4.45821e-09
-1.36921e-06
-4.87259e-09
-1.35089e-06
-4.74464e-09
-1.32019e-06
-3.99807e-09
-1.26957e-06
-2.69811e-09
-1.18843e-06
-1.07697e-09
-1.06094e-06
-7.9024e-07
1.08637e-09
-7.91813e-07
2.75208e-09
-1.06248e-06
4.15475e-09
-1.18955e-06
4.98996e-09
-1.26998e-06
5.17173e-09
-1.31983e-06
4.7663e-09
-1.34986e-06
3.91995e-09
-1.36774e-06
2.78773e-09
-1.37829e-06
1.48799e-09
-1.38425e-06
1.11886e-10
-1.387e-06
-1.26678e-09
-1.38711e-06
-2.5725e-09
-1.38458e-06
-3.70866e-09
-1.37881e-06
-4.56159e-09
-1.36836e-06
-4.99449e-09
-1.35046e-06
-4.87396e-09
-1.32031e-06
-4.1261e-09
-1.27032e-06
-2.80569e-09
-1.18975e-06
-1.15639e-09
-1.06259e-06
-7.91395e-07
1.14169e-09
-7.92945e-07
2.86345e-09
-1.06419e-06
4.3016e-09
-1.19098e-06
5.15035e-09
-1.27082e-06
5.32352e-09
-1.32e-06
4.90637e-09
-1.34944e-06
4.04365e-09
-1.36687e-06
2.88704e-09
-1.37713e-06
1.55919e-09
-1.38291e-06
1.48798e-10
-1.38558e-06
-1.26457e-09
-1.38569e-06
-2.60439e-09
-1.38324e-06
-3.77655e-09
-1.37763e-06
-4.66368e-09
-1.36746e-06
-5.11637e-09
-1.35e-06
-4.9992e-09
-1.32042e-06
-4.23347e-09
-1.27108e-06
-2.87526e-09
-1.1911e-06
-1.24687e-09
-1.0642e-06
-7.92639e-07
1.30341e-09
-7.94237e-07
3.0293e-09
-1.06591e-06
4.46128e-09
-1.1924e-06
5.28933e-09
-1.27164e-06
5.43844e-09
-1.32014e-06
5.0049e-09
-1.349e-06
4.13178e-09
-1.36599e-06
2.96283e-09
-1.37595e-06
1.61221e-09
-1.38156e-06
1.7551e-10
-1.38414e-06
-1.27137e-09
-1.38424e-06
-2.63952e-09
-1.38186e-06
-3.84133e-09
-1.37642e-06
-4.75406e-09
-1.36654e-06
-5.22343e-09
-1.34952e-06
-5.11156e-09
-1.32052e-06
-4.33747e-09
-1.27184e-06
-2.96991e-09
-1.19245e-06
-1.33103e-09
-1.06583e-06
-7.93967e-07
1.41925e-09
-7.95643e-07
3.15624e-09
-1.06763e-06
4.63763e-09
-1.19388e-06
5.50573e-09
-1.2725e-06
5.65911e-09
-1.32029e-06
5.20688e-09
-1.34854e-06
4.30106e-09
-1.36508e-06
3.08969e-09
-1.37474e-06
1.68716e-09
-1.38015e-06
1.95574e-10
-1.38264e-06
-1.30781e-09
-1.38273e-06
-2.72964e-09
-1.38043e-06
-3.97914e-09
-1.37516e-06
-4.92957e-09
-1.36558e-06
-5.42644e-09
-1.34901e-06
-5.32285e-09
-1.32062e-06
-4.52439e-09
-1.27263e-06
-3.12362e-09
-1.19384e-06
-1.46679e-09
-1.06748e-06
-7.95433e-07
1.36872e-09
-7.96997e-07
3.22722e-09
-1.06947e-06
4.79045e-09
-1.19543e-06
5.71681e-09
-1.27342e-06
5.89033e-09
-1.32046e-06
5.42465e-09
-1.34807e-06
4.48346e-09
-1.36413e-06
3.21844e-09
-1.37347e-06
1.75444e-09
-1.37868e-06
1.91142e-10
-1.38107e-06
-1.38036e-09
-1.38116e-06
-2.87443e-09
-1.37893e-06
-4.18446e-09
-1.37385e-06
-5.18391e-09
-1.36458e-06
-5.71215e-09
-1.34848e-06
-5.60452e-09
-1.32072e-06
-4.74724e-09
-1.27348e-06
-3.2453e-09
-1.19534e-06
-1.46203e-09
-1.06926e-06
-7.96895e-07
1.3853e-09
-7.98371e-07
3.34962e-09
-1.07142e-06
4.93453e-09
-1.19701e-06
5.84243e-09
-1.27431e-06
5.99429e-09
-1.3206e-06
5.51314e-09
-1.34758e-06
4.55935e-09
-1.36317e-06
3.27294e-09
-1.37217e-06
1.77844e-09
-1.37718e-06
1.73617e-10
-1.37946e-06
-1.44259e-09
-1.37953e-06
-2.9838e-09
-1.37739e-06
-4.33684e-09
-1.37249e-06
-5.36889e-09
-1.36354e-06
-5.91747e-09
-1.34793e-06
-5.80888e-09
-1.32082e-06
-4.92117e-09
-1.27437e-06
-3.33692e-09
-1.19692e-06
-1.3741e-09
-1.07122e-06
-7.98267e-07
1.57678e-09
-7.99939e-07
3.5168e-09
-1.07335e-06
5.09115e-09
-1.19857e-06
5.96852e-09
-1.27518e-06
6.0927e-09
-1.32072e-06
5.598e-09
-1.34708e-06
4.63459e-09
-1.3622e-06
3.33804e-09
-1.37087e-06
1.82388e-09
-1.37566e-06
1.98836e-10
-1.37783e-06
-1.44359e-09
-1.37789e-06
-3.00688e-09
-1.37582e-06
-4.38614e-09
-1.37111e-06
-5.44377e-09
-1.36248e-06
-6.01954e-09
-1.34735e-06
-5.9294e-09
-1.32091e-06
-5.04196e-09
-1.27525e-06
-3.41406e-09
-1.19854e-06
-1.39222e-09
-1.07323e-06
-7.99656e-07
1.70234e-09
-8.0163e-07
3.65562e-09
-1.07529e-06
5.29864e-09
-1.20021e-06
6.22163e-09
-1.2761e-06
6.3506e-09
-1.32085e-06
5.8352e-09
-1.34655e-06
4.82988e-09
-1.36119e-06
3.48821e-09
-1.36952e-06
1.92406e-09
-1.37409e-06
2.5834e-10
-1.37616e-06
-1.42411e-09
-1.3762e-06
-3.01347e-09
-1.37422e-06
-4.41407e-09
-1.3697e-06
-5.48694e-09
-1.3614e-06
-6.07603e-09
-1.34675e-06
-6.00096e-09
-1.32098e-06
-5.12218e-09
-1.27612e-06
-3.49987e-09
-1.20015e-06
-1.51286e-09
-1.0752e-06
-8.01166e-07
1.62076e-09
-8.03236e-07
3.75397e-09
-1.07741e-06
5.50325e-09
-1.20195e-06
6.47239e-09
-1.27705e-06
6.6055e-09
-1.32097e-06
6.05632e-09
-1.346e-06
5.00456e-09
-1.36014e-06
3.60587e-09
-1.36812e-06
1.98778e-09
-1.37247e-06
2.65293e-10
-1.37443e-06
-1.46837e-09
-1.37446e-06
-3.10741e-09
-1.37257e-06
-4.55217e-09
-1.36825e-06
-5.66646e-09
-1.36028e-06
-6.29032e-09
-1.34612e-06
-6.22679e-09
-1.32104e-06
-5.31724e-09
-1.27702e-06
-3.65106e-09
-1.20181e-06
-1.68743e-09
-1.07715e-06
-8.02851e-07
1.628e-09
-8.04852e-07
3.86586e-09
-1.07963e-06
5.64081e-09
-1.20371e-06
6.59697e-09
-1.278e-06
6.7197e-09
-1.32108e-06
6.14038e-09
-1.34541e-06
5.06102e-09
-1.35905e-06
3.62874e-09
-1.36668e-06
1.97427e-09
-1.37081e-06
2.02813e-10
-1.37265e-06
-1.5813e-09
-1.37268e-06
-3.28114e-09
-1.37087e-06
-4.78185e-09
-1.36675e-06
-5.94982e-09
-1.35911e-06
-6.60512e-09
-1.34546e-06
-6.53253e-09
-1.3211e-06
-5.56194e-09
-1.27798e-06
-3.79509e-09
-1.20356e-06
-1.69271e-09
-1.07924e-06
-8.04542e-07
1.76549e-09
-8.06614e-07
3.96834e-09
-1.08183e-06
5.78834e-09
-1.20553e-06
6.78162e-09
-1.27899e-06
6.89512e-09
-1.32119e-06
6.27989e-09
-1.3448e-06
5.14842e-09
-1.35792e-06
3.66982e-09
-1.3652e-06
1.96803e-09
-1.36911e-06
1.46738e-10
-1.37083e-06
-1.68814e-09
-1.37084e-06
-3.44421e-09
-1.36912e-06
-4.99536e-09
-1.36519e-06
-6.2111e-09
-1.35789e-06
-6.89566e-09
-1.34477e-06
-6.82539e-09
-1.32116e-06
-5.81986e-09
-1.27898e-06
-3.9621e-09
-1.20541e-06
-1.66923e-09
-1.08153e-06
-8.06212e-07
1.80195e-09
-8.08415e-07
4.08491e-09
-1.08411e-06
5.98996e-09
-1.20743e-06
7.03418e-09
-1.28003e-06
7.13115e-09
-1.32129e-06
6.46882e-09
-1.34413e-06
5.27966e-09
-1.35673e-06
3.7451e-09
-1.36367e-06
1.98872e-09
-1.36735e-06
1.14165e-10
-1.36896e-06
-1.76914e-09
-1.36895e-06
-3.57318e-09
-1.36732e-06
-5.16642e-09
-1.36359e-06
-6.42587e-09
-1.35664e-06
-7.14828e-09
-1.34404e-06
-7.09219e-09
-1.32122e-06
-6.06443e-09
-1.28e-06
-4.12613e-09
-1.20735e-06
-1.71241e-09
-1.08395e-06
-8.07927e-07
1.83437e-09
-8.1025e-07
4.25222e-09
-1.08652e-06
6.22161e-09
-1.2094e-06
7.28404e-09
-1.28109e-06
7.36187e-09
-1.32137e-06
6.65788e-09
-1.34343e-06
5.41741e-09
-1.35549e-06
3.82255e-09
-1.36207e-06
2.00854e-09
-1.36554e-06
7.7032e-11
-1.36703e-06
-1.86128e-09
-1.36701e-06
-3.71645e-09
-1.36547e-06
-5.35484e-09
-1.36196e-06
-6.64693e-09
-1.35535e-06
-7.39124e-09
-1.3433e-06
-7.33789e-09
-1.32127e-06
-6.28298e-09
-1.28106e-06
-4.28165e-09
-1.20937e-06
-1.78369e-09
-1.08646e-06
-8.09713e-07
1.85717e-09
-8.12109e-07
4.39054e-09
-1.08905e-06
6.48101e-09
-1.2115e-06
7.60806e-09
-1.28221e-06
7.68439e-09