/*--------------------------------*- C++ -*----------------------------------*\
  =========                 |
  \\      /  F ield         | OpenFOAM: The Open Source CFD Toolbox
   \\    /   O peration     | Website:  https://openfoam.org
    \\  /    A nd           | Version:  6
     \\/     M anipulation  |
\*---------------------------------------------------------------------------*/
FoamFile
{
    version     2.0;
    format      ascii;
    class       surfaceScalarField;
    location    "24";
    object      phi;
}
// * * * * * * * * * * * * * * * * * * * * * * * * * * * * * * * * * * * * * //

dimensions      [0 3 -1 0 0 0 0];

internalField   nonuniform List<scalar> 
258600
(
-9.26611e-09
-8.52895e-08
8.96156e-09
-9.55643e-09
-9.13708e-08
-9.8187e-09
-9.73098e-08
-1.00555e-08
-1.03066e-07
-1.02682e-08
-1.0861e-07
-1.04589e-08
-1.13913e-07
-1.06295e-08
-1.18949e-07
-1.07822e-08
-1.23696e-07
-1.09191e-08
-1.28135e-07
-1.10421e-08
-1.3225e-07
-1.1153e-08
-1.36033e-07
-1.12535e-08
-1.39479e-07
-1.1345e-08
-1.42588e-07
-1.14288e-08
-1.45367e-07
-1.1506e-08
-1.47824e-07
-1.15774e-08
-1.49974e-07
-1.16439e-08
-1.51835e-07
-1.17058e-08
-1.53426e-07
-1.17638e-08
-1.5477e-07
-1.55892e-07
-1.18181e-08
-1.00094e-08
-8.50631e-08
9.78389e-09
-1.023e-08
-9.11496e-08
-1.04408e-08
-9.70986e-08
-1.06369e-08
-1.02869e-07
-1.0817e-08
-1.08429e-07
-1.09805e-08
-1.13749e-07
-1.11283e-08
-1.18801e-07
-1.12613e-08
-1.23562e-07
-1.13813e-08
-1.28014e-07
-1.14896e-08
-1.32141e-07
-1.15879e-08
-1.35934e-07
-1.16776e-08
-1.39389e-07
-1.176e-08
-1.42505e-07
-1.18362e-08
-1.4529e-07
-1.19071e-08
-1.47753e-07
-1.19734e-08
-1.49908e-07
-1.20358e-08
-1.51772e-07
-1.20947e-08
-1.53367e-07
-1.21503e-08
-1.54714e-07
-1.55839e-07
-1.22037e-08
-1.11213e-08
-8.48866e-08
1.09462e-08
-1.12923e-08
-9.09778e-08
-1.1455e-08
-9.69352e-08
-1.16066e-08
-1.02717e-07
-1.17463e-08
-1.08289e-07
-1.18737e-08
-1.1362e-07
-1.19894e-08
-1.18684e-07
-1.20943e-08
-1.23457e-07
-1.21895e-08
-1.27918e-07
-1.22762e-08
-1.32054e-07
-1.23558e-08
-1.35854e-07
-1.24293e-08
-1.39315e-07
-1.24979e-08
-1.42436e-07
-1.25624e-08
-1.45225e-07
-1.26234e-08
-1.47691e-07
-1.26819e-08
-1.49849e-07
-1.27379e-08
-1.51716e-07
-1.27921e-08
-1.53313e-07
-1.28445e-08
-1.54662e-07
-1.55787e-07
-1.2896e-08
-1.2643e-08
-8.47874e-08
1.25454e-08
-1.27411e-08
-9.08788e-08
-1.28369e-08
-9.68387e-08
-1.29278e-08
-1.02625e-07
-1.30129e-08
-1.08203e-07
-1.30914e-08
-1.13541e-07
-1.31636e-08
-1.18611e-07
-1.32297e-08
-1.23389e-07
-1.32906e-08
-1.27856e-07
-1.3347e-08
-1.31996e-07
-1.33998e-08
-1.358e-07
-1.345e-08
-1.39264e-07
-1.34981e-08
-1.42387e-07
-1.35451e-08
-1.45177e-07
-1.35911e-08
-1.47644e-07
-1.36369e-08
-1.49803e-07
-1.36823e-08
-1.5167e-07
-1.3728e-08
-1.53266e-07
-1.37735e-08
-1.54615e-07
-1.5574e-07
-1.38197e-08
-1.44126e-08
-8.47531e-08
1.43803e-08
-1.44449e-08
-9.08454e-08
-1.44767e-08
-9.68062e-08
-1.45064e-08
-1.02594e-07
-1.45344e-08
-1.08173e-07
-1.45598e-08
-1.13514e-07
-1.45834e-08
-1.18586e-07
-1.46051e-08
-1.23366e-07
-1.46257e-08
-1.27834e-07
-1.46457e-08
-1.31975e-07
-1.4666e-08
-1.35779e-07
-1.46871e-08
-1.39241e-07
-1.47094e-08
-1.42364e-07
-1.47336e-08
-1.45152e-07
-1.47595e-08
-1.47617e-07
-1.4788e-08
-1.49773e-07
-1.48183e-08
-1.51638e-07
-1.48512e-08
-1.53233e-07
-1.48855e-08
-1.5458e-07
-1.55703e-07
-1.49222e-08
-1.63623e-08
-8.47799e-08
1.63914e-08
-1.6332e-08
-9.08741e-08
-1.63024e-08
-9.68348e-08
-1.62726e-08
-1.02622e-07
-1.62439e-08
-1.08201e-07
-1.62156e-08
-1.1354e-07
-1.61889e-08
-1.18611e-07
-1.61637e-08
-1.2339e-07
-1.61411e-08
-1.27855e-07
-1.61215e-08
-1.31993e-07
-1.61055e-08
-1.35793e-07
-1.60936e-08
-1.39252e-07
-1.60861e-08
-1.4237e-07
-1.60834e-08
-1.45154e-07
-1.60853e-08
-1.47614e-07
-1.60923e-08
-1.49766e-07
-1.61033e-08
-1.51626e-07
-1.61192e-08
-1.53217e-07
-1.61383e-08
-1.5456e-07
-1.5568e-07
-1.61618e-08
-1.84181e-08
-8.48578e-08
1.84996e-08
-1.8334e-08
-9.09561e-08
-1.82502e-08
-9.6917e-08
-1.81667e-08
-1.02703e-07
-1.80853e-08
-1.0828e-07
-1.8006e-08
-1.13617e-07
-1.79304e-08
-1.18685e-07
-1.78588e-08
-1.23459e-07
-1.77924e-08
-1.2792e-07
-1.77318e-08
-1.32052e-07
-1.76776e-08
-1.35846e-07
-1.76304e-08
-1.39298e-07
-1.75903e-08
-1.42409e-07
-1.75578e-08
-1.45185e-07
-1.75323e-08
-1.47638e-07
-1.75144e-08
-1.49783e-07
-1.75027e-08
-1.51637e-07
-1.7498e-08
-1.53221e-07
-1.74984e-08
-1.54558e-07
-1.55673e-07
-1.75051e-08
-2.054e-08
-8.49785e-08
2.06643e-08
-2.04105e-08
-9.10832e-08
-2.02797e-08
-9.70462e-08
-2.01481e-08
-1.02832e-07
-2.00185e-08
-1.08408e-07
-1.98916e-08
-1.13741e-07
-1.97694e-08
-1.18805e-07
-1.96528e-08
-1.23573e-07
-1.95432e-08
-1.28027e-07
-1.94416e-08
-1.32152e-07
-1.93485e-08
-1.35937e-07
-1.92648e-08
-1.3938e-07
-1.91904e-08
-1.42481e-07
-1.9126e-08
-1.45249e-07
-1.90707e-08
-1.47692e-07
-1.90253e-08
-1.49827e-07
-1.89881e-08
-1.51672e-07
-1.896e-08
-1.53248e-07
-1.89386e-08
-1.54578e-07
-1.55686e-07
-1.89254e-08
-2.27025e-08
-8.51364e-08
2.28645e-08
-2.25332e-08
-9.12499e-08
-2.23607e-08
-9.72168e-08
-2.21859e-08
-1.03004e-07
-2.20124e-08
-1.08579e-07
-2.18414e-08
-1.1391e-07
-2.16755e-08
-1.18968e-07
-2.1516e-08
-1.2373e-07
-2.13646e-08
-1.28176e-07
-2.12226e-08
-1.32291e-07
-2.10908e-08
-1.36067e-07
-2.09702e-08
-1.39499e-07
-2.08606e-08
-1.42589e-07
-2.07631e-08
-1.45345e-07
-2.06764e-08
-1.47777e-07
-2.06017e-08
-1.49901e-07
-2.05369e-08
-1.51735e-07
-2.04831e-08
-1.53301e-07
-2.04376e-08
-1.54622e-07
-1.55721e-07
-2.04022e-08
-2.48821e-08
-8.53244e-08
2.50746e-08
-2.46793e-08
-9.14498e-08
-2.44707e-08
-9.74234e-08
-2.42577e-08
-1.03214e-07
-2.40445e-08
-1.08789e-07
-2.38329e-08
-1.14118e-07
-2.36262e-08
-1.19172e-07
-2.34261e-08
-1.23928e-07
-2.32346e-08
-1.28365e-07
-2.30534e-08
-1.3247e-07
-2.28834e-08
-1.36234e-07
-2.27261e-08
-1.39654e-07
-2.25811e-08
-1.42732e-07
-2.24498e-08
-1.45475e-07
-2.23308e-08
-1.47894e-07
-2.22255e-08
-1.50005e-07
-2.21316e-08
-1.51828e-07
-2.20504e-08
-1.53382e-07
-2.19789e-08
-1.54691e-07
-1.5578e-07
-2.19191e-08
-2.70807e-08
-8.5543e-08
2.73042e-08
-2.68447e-08
-9.16826e-08
-2.66013e-08
-9.76645e-08
-2.63521e-08
-1.0346e-07
-2.61015e-08
-1.09037e-07
-2.58517e-08
-1.14365e-07
-2.56063e-08
-1.19415e-07
-2.53675e-08
-1.24164e-07
-2.51374e-08
-1.28592e-07
-2.49182e-08
-1.32687e-07
-2.47108e-08
-1.36439e-07
-2.45171e-08
-1.39846e-07
-2.43367e-08
-1.4291e-07
-2.41712e-08
-1.45639e-07
-2.40193e-08
-1.48044e-07
-2.38825e-08
-1.50141e-07
-2.37583e-08
-1.5195e-07
-2.36485e-08
-1.53491e-07
-2.35494e-08
-1.54788e-07
-1.55866e-07
-2.34638e-08
-2.92761e-08
-8.57856e-08
2.9523e-08
-2.90132e-08
-9.1943e-08
-2.87398e-08
-9.79363e-08
-2.8458e-08
-1.0374e-07
-2.81729e-08
-1.0932e-07
-2.78873e-08
-1.14647e-07
-2.76052e-08
-1.19694e-07
-2.73292e-08
-1.24437e-07
-2.70618e-08
-1.28857e-07
-2.68055e-08
-1.32941e-07
-2.65614e-08
-1.36681e-07
-2.63316e-08
-1.40074e-07
-2.61159e-08
-1.43124e-07
-2.59162e-08
-1.45837e-07
-2.57308e-08
-1.48227e-07
-2.55618e-08
-1.50309e-07
-2.54064e-08
-1.52103e-07
-2.52668e-08
-1.5363e-07
-2.5139e-08
-1.54914e-07
-1.55979e-07
-2.50261e-08
-3.14805e-08
-8.60548e-08
3.1752e-08
-3.11896e-08
-9.22323e-08
-3.08859e-08
-9.82388e-08
-3.0572e-08
-1.04051e-07
-3.02533e-08
-1.09636e-07
-2.99331e-08
-1.14965e-07
-2.96154e-08
-1.20009e-07
-2.93033e-08
-1.24746e-07
-2.89995e-08
-1.29158e-07
-2.87069e-08
-1.33231e-07
-2.84265e-08
-1.36959e-07
-2.8161e-08
-1.40338e-07
-2.79099e-08
-1.43372e-07
-2.76757e-08
-1.4607e-07
-2.74566e-08
-1.48444e-07
-2.72549e-08
-1.5051e-07
-2.70675e-08
-1.52289e-07
-2.68973e-08
-1.53801e-07
-2.67396e-08
-1.5507e-07
-1.5612e-07
-2.65984e-08
-3.36822e-08
-8.63473e-08
3.3977e-08
-3.3365e-08
-9.25476e-08
-3.30326e-08
-9.857e-08
-3.26881e-08
-1.04393e-07
-3.23371e-08
-1.09985e-07
-3.19834e-08
-1.15316e-07
-3.1631e-08
-1.20359e-07
-3.12838e-08
-1.25091e-07
-3.09442e-08
-1.29495e-07
-3.06159e-08
-1.33558e-07
-3.02996e-08
-1.37273e-07
-2.99985e-08
-1.40638e-07
-2.97121e-08
-1.43657e-07
-2.94432e-08
-1.46338e-07
-2.91898e-08
-1.48696e-07
-2.89549e-08
-1.50745e-07
-2.87349e-08
-1.52507e-07
-2.85331e-08
-1.54003e-07
-2.83447e-08
-1.55256e-07
-1.56292e-07
-2.8174e-08
-3.58847e-08
-8.6663e-08
3.62047e-08
-3.55409e-08
-9.28887e-08
-3.51797e-08
-9.89292e-08
-3.4805e-08
-1.04766e-07
-3.44221e-08
-1.10366e-07
-3.40354e-08
-1.157e-07
-3.36489e-08
-1.20743e-07
-3.32669e-08
-1.25471e-07
-3.28919e-08
-1.29868e-07
-3.2528e-08
-1.3392e-07
-3.21759e-08
-1.37623e-07
-3.18393e-08
-1.40973e-07
-3.15173e-08
-1.43977e-07
-3.12134e-08
-1.46642e-07
-3.09253e-08
-1.48982e-07
-3.06565e-08
-1.51014e-07
-3.04031e-08
-1.52758e-07
-3.0169e-08
-1.54237e-07
-2.99489e-08
-1.55474e-07
-1.56494e-07
-2.97477e-08
-3.80885e-08
-8.70027e-08
3.84327e-08
-3.77181e-08
-9.32565e-08
-3.73279e-08
-9.93173e-08
-3.69229e-08
-1.05169e-07
-3.65079e-08
-1.10779e-07
-3.60881e-08
-1.16119e-07
-3.56672e-08
-1.21162e-07
-3.52505e-08
-1.25887e-07
-3.48399e-08
-1.30276e-07
-3.44403e-08
-1.34319e-07
-3.4052e-08
-1.38009e-07
-3.36794e-08
-1.41346e-07
-3.33214e-08
-1.44333e-07
-3.29821e-08
-1.46981e-07
-3.26586e-08
-1.49304e-07
-3.23552e-08
-1.51318e-07
-3.20676e-08
-1.53045e-07
-3.18003e-08
-1.54506e-07
-3.15474e-08
-1.55726e-07
-1.56728e-07
-3.13147e-08
-4.02872e-08
-8.73642e-08
4.06529e-08
-3.98927e-08
-9.36495e-08
-3.94746e-08
-9.97338e-08
-3.90395e-08
-1.05602e-07
-3.85924e-08
-1.11224e-07
-3.81394e-08
-1.1657e-07
-3.7684e-08
-1.21615e-07
-3.72321e-08
-1.26338e-07
-3.67856e-08
-1.30721e-07
-3.63498e-08
-1.34755e-07
-3.59249e-08
-1.38432e-07
-3.55159e-08
-1.41755e-07
-3.51213e-08
-1.44726e-07
-3.47457e-08
-1.47357e-07
-3.43862e-08
-1.49662e-07
-3.40473e-08
-1.51658e-07
-3.37246e-08
-1.53366e-07
-3.3423e-08
-1.54809e-07
-3.31365e-08
-1.56011e-07
-1.56995e-07
-3.28712e-08
-4.24919e-08
-8.77534e-08
4.28806e-08
-4.20694e-08
-9.40716e-08
-4.16214e-08
-1.00181e-07
-4.11548e-08
-1.06068e-07
-4.06747e-08
-1.11703e-07
-4.01878e-08
-1.17057e-07
-3.96973e-08
-1.22105e-07
-3.92098e-08
-1.26825e-07
-3.87267e-08
-1.31203e-07
-3.82542e-08
-1.35227e-07
-3.77921e-08
-1.38893e-07
-3.73459e-08
-1.42202e-07
-3.69138e-08
-1.45157e-07
-3.65013e-08
-1.47771e-07
-3.61047e-08
-1.50058e-07
-3.57294e-08
-1.52035e-07
-3.53705e-08
-1.53724e-07
-3.50336e-08
-1.55148e-07
-3.47122e-08
-1.56331e-07
-1.57297e-07
-3.44131e-08
-4.46858e-08
-8.8163e-08
4.50981e-08
-4.42379e-08
-9.4518e-08
-4.37613e-08
-1.00656e-07
-4.32642e-08
-1.06565e-07
-4.27515e-08
-1.12214e-07
-4.22308e-08
-1.17577e-07
-4.17051e-08
-1.22629e-07
-4.11816e-08
-1.27349e-07
-4.06615e-08
-1.31722e-07
-4.01516e-08
-1.35738e-07
-3.96514e-08
-1.39393e-07
-3.91672e-08
-1.42687e-07
-3.86968e-08
-1.45627e-07
-3.82461e-08
-1.48223e-07
-3.78115e-08
-1.50491e-07
-3.73986e-08
-1.52449e-07
-3.70024e-08
-1.54119e-07
-3.6629e-08
-1.55523e-07
-3.62715e-08
-1.56687e-07
-1.57633e-07
-3.59374e-08
-4.68828e-08
-8.85979e-08
4.73215e-08
-4.64068e-08
-9.4992e-08
-4.59e-08
-1.0116e-07
-4.53713e-08
-1.07093e-07
-4.48249e-08
-1.12759e-07
-4.42694e-08
-1.18133e-07
-4.37075e-08
-1.2319e-07
-4.3147e-08
-1.27911e-07
-4.25889e-08
-1.3228e-07
-4.20406e-08
-1.36288e-07
-4.15013e-08
-1.39932e-07
-4.09779e-08
-1.43212e-07
-4.04679e-08
-1.46136e-07
-3.9978e-08
-1.48716e-07
-3.95039e-08
-1.50965e-07
-3.90522e-08
-1.52904e-07
-3.86173e-08
-1.54553e-07
-3.8206e-08
-1.55938e-07
-3.78109e-08
-1.57081e-07
-1.58007e-07
-3.74403e-08
-4.90761e-08
-8.90558e-08
4.95382e-08
-4.85743e-08
-9.54933e-08
-4.80374e-08
-1.01695e-07
-4.74765e-08
-1.07654e-07
-4.68955e-08
-1.13339e-07
-4.63041e-08
-1.18725e-07
-4.57046e-08
-1.23789e-07
-4.51059e-08
-1.28511e-07
-4.45083e-08
-1.32877e-07
-4.39202e-08
-1.36878e-07
-4.33404e-08
-1.40511e-07
-4.27764e-08
-1.43778e-07
-4.22255e-08
-1.46687e-07
-4.16947e-08
-1.49249e-07
-4.11798e-08
-1.5148e-07
-4.06877e-08
-1.53399e-07
-4.02126e-08
-1.55028e-07
-3.97619e-08
-1.56391e-07
-3.93277e-08
-1.57514e-07
-1.58419e-07
-3.89192e-08
-5.1279e-08
-8.95455e-08
5.17663e-08
-5.07461e-08
-9.60275e-08
-5.01764e-08
-1.02265e-07
-4.95808e-08
-1.08251e-07
-4.89633e-08
-1.13956e-07
-4.83342e-08
-1.19356e-07
-4.76957e-08
-1.24428e-07
-4.7057e-08
-1.29152e-07
-4.64186e-08
-1.33515e-07
-4.57891e-08
-1.3751e-07
-4.51671e-08
-1.41133e-07
-4.45609e-08
-1.44387e-07
-4.39672e-08
-1.47281e-07
-4.33941e-08
-1.49825e-07
-4.28365e-08
-1.52037e-07
-4.23023e-08
-1.53936e-07
-4.17852e-08
-1.55545e-07
-4.12934e-08
-1.56887e-07
-4.08184e-08
-1.57988e-07
-1.58872e-07
-4.03703e-08
-5.34735e-08
-9.00592e-08
5.39875e-08
-5.29119e-08
-9.65898e-08
-5.231e-08
-1.02866e-07
-5.16798e-08
-1.08882e-07
-5.10255e-08
-1.14611e-07
-5.03579e-08
-1.20026e-07
-4.96791e-08
-1.25106e-07
-4.89992e-08
-1.29834e-07
-4.83183e-08
-1.34196e-07
-4.76458e-08
-1.38185e-07
-4.698e-08
-1.41799e-07
-4.63298e-08
-1.45041e-07
-4.56917e-08
-1.47919e-07
-4.50741e-08
-1.50446e-07
-4.44722e-08
-1.52639e-07
-4.3894e-08
-1.54517e-07
-4.33331e-08
-1.56105e-07
-4.27981e-08
-1.57425e-07
-4.22806e-08
-1.58504e-07
-1.59365e-07
-4.1791e-08
-5.5674e-08
-9.06023e-08
5.62181e-08
-5.50802e-08
-9.7184e-08
-5.44438e-08
-1.03501e-07
-5.37772e-08
-1.0955e-07
-5.30841e-08
-1.15303e-07
-5.23761e-08
-1.20736e-07
-5.16552e-08
-1.25827e-07
-5.09321e-08
-1.3056e-07
-5.02069e-08
-1.34922e-07
-4.94894e-08
-1.38906e-07
-4.87778e-08
-1.4251e-07
-4.80815e-08
-1.4574e-07
-4.73968e-08
-1.48603e-07
-4.67329e-08
-1.51113e-07
-4.60842e-08
-1.53287e-07
-4.54599e-08
-1.55145e-07
-4.4853e-08
-1.56711e-07
-4.4273e-08
-1.58009e-07
-4.37106e-08
-1.59065e-07
-1.59902e-07
-4.31775e-08
-5.78732e-08
-9.1172e-08
5.84449e-08
-5.72491e-08
-9.78096e-08
-5.65776e-08
-1.04172e-07
-5.58733e-08
-1.10257e-07
-5.51397e-08
-1.16037e-07
-5.43895e-08
-1.21489e-07
-5.36244e-08
-1.26592e-07
-5.2856e-08
-1.31331e-07
-5.2084e-08
-1.35693e-07
-5.13193e-08
-1.39673e-07
-5.05596e-08
-1.4327e-07
-4.9815e-08
-1.46487e-07
-4.90814e-08
-1.49336e-07
-4.83687e-08
-1.51828e-07
-4.76712e-08
-1.53983e-07
-4.69984e-08
-1.55821e-07
-4.63433e-08
-1.57364e-07
-4.57158e-08
-1.58639e-07
-4.51065e-08
-1.59672e-07
-1.60484e-07
-4.45276e-08
-6.00871e-08
-9.17787e-08
6.0689e-08
-5.94258e-08
-9.84735e-08
-5.87155e-08
-1.04883e-07
-5.79699e-08
-1.11005e-07
-5.7193e-08
-1.16814e-07
-5.63978e-08
-1.22286e-07
-5.55861e-08
-1.27404e-07
-5.47698e-08
-1.3215e-07
-5.39488e-08
-1.36514e-07
-5.31343e-08
-1.4049e-07
-5.23239e-08
-1.44079e-07
-5.15284e-08
-1.47286e-07
-5.07433e-08
-1.50119e-07
-4.99794e-08
-1.52595e-07
-4.92303e-08
-1.54731e-07
-4.85066e-08
-1.56547e-07
-4.78005e-08
-1.58069e-07
-4.71231e-08
-1.5932e-07
-4.64642e-08
-1.60328e-07
-1.61115e-07
-4.5837e-08
-6.22946e-08
-9.2413e-08
6.29286e-08
-6.15989e-08
-9.91706e-08
-6.08498e-08
-1.05631e-07
-6.00625e-08
-1.11794e-07
-5.92411e-08
-1.17634e-07
-5.83993e-08
-1.2313e-07
-5.75388e-08
-1.28263e-07
-5.66725e-08
-1.33018e-07
-5.57999e-08
-1.37385e-07
-5.4933e-08
-1.41359e-07
-5.40693e-08
-1.44941e-07
-5.32201e-08
-1.48137e-07
-5.2381e-08
-1.50957e-07
-5.15628e-08
-1.53415e-07
-5.07596e-08
-1.55532e-07
-4.9982e-08
-1.57327e-07
-4.92225e-08
-1.58826e-07
-4.84923e-08
-1.60053e-07
-4.77814e-08
-1.61035e-07
-1.61796e-07
-4.71032e-08
-6.45154e-08
-9.3084e-08
6.51854e-08
-6.37797e-08
-9.99072e-08
-6.2988e-08
-1.06421e-07
-6.21556e-08
-1.12627e-07
-6.12866e-08
-1.18502e-07
-6.03953e-08
-1.24023e-07
-5.94834e-08
-1.29174e-07
-5.85641e-08
-1.33939e-07
-5.76371e-08
-1.38311e-07
-5.67148e-08
-1.42284e-07
-5.57947e-08
-1.4586e-07
-5.48886e-08
-1.49045e-07
-5.39921e-08
-1.51851e-07
-5.31168e-08
-1.54293e-07
-5.22561e-08
-1.5639e-07
-5.14217e-08
-1.58164e-07
-5.06055e-08
-1.59639e-07
-4.98196e-08
-1.60842e-07
-4.90534e-08
-1.61798e-07
-1.62532e-07
-4.83214e-08
-6.67371e-08
-9.37878e-08
6.74433e-08
-6.59623e-08
-1.00682e-07
-6.5127e-08
-1.07254e-07
-6.42479e-08
-1.13507e-07
-6.33291e-08
-1.19419e-07
-6.23856e-08
-1.24968e-07
-6.14193e-08
-1.30138e-07
-6.04441e-08
-1.34916e-07
-5.94594e-08
-1.39293e-07
-5.84785e-08
-1.43267e-07
-5.74987e-08
-1.46838e-07
-5.65326e-08
-1.50014e-07
-5.55755e-08
-1.52806e-07
-5.46394e-08
-1.55231e-07
-5.37181e-08
-1.57309e-07
-5.28234e-08
-1.59061e-07
-5.19474e-08
-1.60512e-07
-5.11024e-08
-1.61689e-07
-5.02779e-08
-1.62618e-07
-1.63323e-07
-4.94889e-08
-6.89725e-08
-9.45329e-08
6.97174e-08
-6.81538e-08
-1.01502e-07
-6.72713e-08
-1.08135e-07
-6.63419e-08
-1.14438e-07
-6.53699e-08
-1.20389e-07
-6.43709e-08
-1.25969e-07
-6.33468e-08
-1.31161e-07
-6.23121e-08
-1.35953e-07
-6.12662e-08
-1.40338e-07
-6.02231e-08
-1.44312e-07
-5.918e-08
-1.47879e-07
-5.815e-08
-1.51046e-07
-5.71285e-08
-1.53826e-07
-5.61282e-08
-1.56234e-07
-5.51423e-08
-1.58292e-07
-5.41838e-08
-1.60022e-07
-5.32441e-08
-1.61449e-07
-5.23366e-08
-1.626e-07
-5.14501e-08
-1.63501e-07
-1.64177e-07
-5.06006e-08
-7.12114e-08
-9.53159e-08
7.19963e-08
-7.0349e-08
-1.02365e-07
-6.94178e-08
-1.09064e-07
-6.84359e-08
-1.15421e-07
-6.74079e-08
-1.21416e-07
-6.63502e-08
-1.27029e-07
-6.52649e-08
-1.32245e-07
-6.4167e-08
-1.37053e-07
-6.30563e-08
-1.41447e-07
-6.19472e-08
-1.45424e-07
-6.08369e-08
-1.48988e-07
-5.97392e-08
-1.52146e-07
-5.86494e-08
-1.54913e-07
-5.75807e-08
-1.57306e-07
-5.65266e-08
-1.59344e-07
-5.55002e-08
-1.61051e-07
-5.44931e-08
-1.62453e-07
-5.35191e-08
-1.63577e-07
-5.25671e-08
-1.64449e-07
-1.65094e-07
-5.16534e-08
-7.34667e-08
-9.61452e-08
7.42948e-08
-7.25549e-08
-1.03278e-07
-7.15708e-08
-1.10047e-07
-7.05323e-08
-1.16462e-07
-6.94444e-08
-1.22503e-07
-6.83241e-08
-1.28152e-07
-6.71735e-08
-1.33395e-07
-6.60085e-08
-1.38221e-07
-6.48288e-08
-1.42626e-07
-6.36493e-08
-1.46606e-07
-6.24676e-08
-1.50168e-07
-6.12979e-08
-1.53319e-07
-6.01354e-08
-1.56074e-07
-5.89943e-08
-1.5845e-07
-5.78674e-08
-1.60469e-07
-5.6769e-08
-1.62153e-07
-5.56902e-08
-1.6353e-07
-5.46456e-08
-1.64625e-07
-5.36237e-08
-1.65467e-07
-1.6608e-07
-5.26419e-08
-7.57277e-08
-9.70171e-08
7.66008e-08
-7.47665e-08
-1.04241e-07
-7.37274e-08
-1.11084e-07
-7.26295e-08
-1.17562e-07
-7.14784e-08
-1.23653e-07
-7.02916e-08
-1.29341e-07
-6.90718e-08
-1.34614e-07
-6.78353e-08
-1.39461e-07
-6.65823e-08
-1.43877e-07
-6.53281e-08
-1.47864e-07
-6.40705e-08
-1.51424e-07
-6.28241e-08
-1.54569e-07
-6.15845e-08
-1.57312e-07
-6.0366e-08
-1.59672e-07
-5.9162e-08
-1.61671e-07
-5.79868e-08
-1.63332e-07
-5.68319e-08
-1.64682e-07
-5.57122e-08
-1.65749e-07
-5.46164e-08
-1.66559e-07
-1.67138e-07
-5.3562e-08
-7.80082e-08
-9.79411e-08
7.89299e-08
-7.69913e-08
-1.0526e-07
-7.58924e-08
-1.12183e-07
-7.47303e-08
-1.18727e-07
-7.35114e-08
-1.24871e-07
-7.22535e-08
-1.30602e-07
-7.09599e-08
-1.35907e-07
-6.96472e-08
-1.40777e-07
-6.8316e-08
-1.45208e-07
-6.69821e-08
-1.49201e-07
-6.56435e-08
-1.52762e-07
-6.43155e-08
-1.55901e-07
-6.29935e-08
-1.58633e-07
-6.16927e-08
-1.60977e-07
-6.04063e-08
-1.62955e-07
-5.91494e-08
-1.64593e-07
-5.79133e-08
-1.65916e-07
-5.67138e-08
-1.66953e-07
-5.55391e-08
-1.67731e-07
-1.68275e-07
-5.44077e-08
-8.02971e-08
-9.89136e-08
8.12699e-08
-7.92241e-08
-1.06335e-07
-7.80627e-08
-1.13344e-07
-7.68332e-08
-1.19959e-07
-7.55425e-08
-1.26162e-07
-7.42091e-08
-1.31939e-07
-7.28369e-08
-1.37279e-07
-7.14431e-08
-1.42174e-07
-7.00286e-08
-1.46622e-07
-6.86098e-08
-1.50624e-07
-6.71849e-08
-1.54186e-07
-6.57697e-08
-1.5732e-07
-6.43602e-08
-1.60041e-07
-6.29714e-08
-1.6237e-07
-6.15974e-08
-1.64328e-07
-6.02532e-08
-1.65941e-07
-5.89308e-08
-1.67236e-07
-5.7646e-08
-1.68242e-07
-5.63875e-08
-1.68986e-07
-1.69493e-07
-5.51741e-08
-8.26082e-08
-9.99443e-08
8.36359e-08
-8.14722e-08
-1.07473e-07
-8.02431e-08
-1.14573e-07
-7.89408e-08
-1.21264e-07
-7.75732e-08
-1.2753e-07
-7.61591e-08
-1.33357e-07
-7.4703e-08
-1.38735e-07
-7.32226e-08
-1.43659e-07
-7.17192e-08
-1.48125e-07
-7.02097e-08
-1.52138e-07
-6.86928e-08
-1.55703e-07
-6.71846e-08
-1.58832e-07
-6.56813e-08
-1.61544e-07
-6.41989e-08
-1.63857e-07
-6.27311e-08
-1.65794e-07
-6.12939e-08
-1.67383e-07
-5.98791e-08
-1.6865e-07
-5.85034e-08
-1.69623e-07
-5.71552e-08
-1.70332e-07
-1.708e-07
-5.58541e-08
-8.49305e-08
-1.0103e-07
8.6016e-08
-8.37308e-08
-1.08676e-07
-8.24309e-08
-1.15873e-07
-8.1052e-08
-1.22646e-07
-7.96028e-08
-1.28979e-07
-7.81029e-08
-1.3486e-07
-7.65575e-08
-1.40281e-07
-7.49847e-08
-1.45235e-07
-7.33865e-08
-1.49723e-07
-7.17803e-08
-1.53748e-07
-7.01651e-08
-1.57317e-07
-6.85575e-08
-1.60444e-07
-6.69544e-08
-1.63146e-07
-6.53716e-08
-1.65444e-07
-6.38039e-08
-1.67361e-07
-6.22671e-08
-1.68924e-07
-6.07538e-08
-1.70161e-07
-5.92807e-08
-1.71101e-07
-5.78371e-08
-1.71772e-07
-1.72199e-07
-5.64424e-08
-8.72792e-08
-1.02182e-07
8.8427e-08
-8.60082e-08
-1.0995e-07
-8.46314e-08
-1.17251e-07
-8.31698e-08
-1.24112e-07
-8.16332e-08
-1.30516e-07
-8.00414e-08
-1.36456e-07
-7.84005e-08
-1.41922e-07
-7.67289e-08
-1.46911e-07
-7.50294e-08
-1.51423e-07
-7.33196e-08
-1.55462e-07
-7.15994e-08
-1.59037e-07
-6.98856e-08
-1.62163e-07
-6.81754e-08
-1.64856e-07
-6.64856e-08
-1.67138e-07
-6.48106e-08
-1.69035e-07
-6.31676e-08
-1.70572e-07
-6.15488e-08
-1.71779e-07
-5.99717e-08
-1.72683e-07
-5.84256e-08
-1.73316e-07
-1.737e-07
-5.6931e-08
-8.96431e-08
-1.03396e-07
9.08565e-08
-8.82993e-08
-1.11297e-07
-8.68418e-08
-1.1871e-07
-8.52929e-08
-1.25664e-07
-8.36634e-08
-1.32147e-07
-8.19738e-08
-1.38149e-07
-8.0231e-08
-1.43666e-07
-7.84539e-08
-1.48693e-07
-7.66462e-08
-1.53231e-07
-7.48258e-08
-1.57287e-07
-7.29932e-08
-1.6087e-07
-7.11657e-08
-1.63995e-07
-6.93412e-08
-1.6668e-07
-6.75365e-08
-1.68948e-07
-6.57472e-08
-1.70823e-07
-6.39901e-08
-1.72334e-07
-6.22586e-08
-1.73508e-07
-6.05702e-08
-1.74377e-07
-5.8915e-08
-1.74968e-07
-1.75307e-07
-5.73134e-08
-9.20371e-08
-1.04685e-07
9.33213e-08
-9.06125e-08
-1.12725e-07
-8.90676e-08
-1.20257e-07
-8.74246e-08
-1.27311e-07
-8.56955e-08
-1.33877e-07
-8.3901e-08
-1.39948e-07
-8.20492e-08
-1.45519e-07
-8.01592e-08
-1.50587e-07
-7.82356e-08
-1.55156e-07
-7.62967e-08
-1.59231e-07
-7.43438e-08
-1.62823e-07
-7.23945e-08
-1.65949e-07
-7.04473e-08
-1.68627e-07
-6.85198e-08
-1.7088e-07
-6.66076e-08
-1.72735e-07
-6.47286e-08
-1.74218e-07
-6.28761e-08
-1.7536e-07
-6.10686e-08
-1.7619e-07
-5.92961e-08
-1.76739e-07
-1.7703e-07
-5.75801e-08
-9.44505e-08
-1.06045e-07
9.58092e-08
-9.29431e-08
-1.14236e-07
-9.13064e-08
-1.21895e-07
-8.95638e-08
-1.29058e-07
-8.77288e-08
-1.35714e-07
-8.58225e-08
-1.41859e-07
-8.38542e-08
-1.47488e-07
-8.18435e-08
-1.52602e-07
-7.97959e-08
-1.57204e-07
-7.77301e-08
-1.61301e-07
-7.56483e-08
-1.64905e-07
-7.35685e-08
-1.68033e-07
-7.149e-08
-1.70705e-07
-6.94305e-08
-1.72945e-07
-6.7387e-08
-1.74778e-07
-6.5377e-08
-1.76233e-07
-6.3395e-08
-1.77341e-07
-6.14597e-08
-1.78131e-07
-5.95619e-08
-1.78634e-07
-1.78874e-07
-5.77232e-08
-9.68999e-08
-1.0749e-07
9.83388e-08
-9.53006e-08
-1.1584e-07
-9.35643e-08
-1.23634e-07
-9.17144e-08
-1.30912e-07
-8.97656e-08
-1.37665e-07
-8.77394e-08
-1.4389e-07
-8.56463e-08
-1.49583e-07
-8.35061e-08
-1.54747e-07
-8.13257e-08
-1.59386e-07
-7.91238e-08
-1.63508e-07
-7.69037e-08
-1.67126e-07
-7.46838e-08
-1.70259e-07
-7.24643e-08
-1.72925e-07
-7.02634e-08
-1.75151e-07
-6.80784e-08
-1.76963e-07
-6.5928e-08
-1.7839e-07
-6.38069e-08
-1.79462e-07
-6.17344e-08
-1.8021e-07
-5.97019e-08
-1.80665e-07
-1.80852e-07
-5.77316e-08
-9.9374e-08
-1.09017e-07
1.00898e-07
-9.76802e-08
-1.17538e-07
-9.58391e-08
-1.25478e-07
-9.38754e-08
-1.3288e-07
-9.18054e-08
-1.39738e-07
-8.96512e-08
-1.46048e-07
-8.74246e-08
-1.51812e-07
-8.51459e-08
-1.5703e-07
-8.2823e-08
-1.6171e-07
-8.04751e-08
-1.6586e-07
-7.81067e-08
-1.69496e-07
-7.57365e-08
-1.72634e-07
-7.33656e-08
-1.75297e-07
-7.10125e-08
-1.77509e-07
-6.8676e-08
-1.79299e-07
-6.63744e-08
-1.80696e-07
-6.4104e-08
-1.81731e-07
-6.1884e-08
-1.82436e-07
-5.97072e-08
-1.8284e-07
-1.82969e-07
-5.75956e-08
-1.0189e-07
-1.10638e-07
1.03505e-07
-1.00091e-07
-1.19341e-07
-9.8137e-08
-1.27437e-07
-9.60508e-08
-1.34972e-07
-9.38507e-08
-1.41941e-07
-9.15592e-08
-1.48345e-07
-8.91894e-08
-1.54184e-07
-8.67621e-08
-1.59463e-07
-8.42863e-08
-1.64188e-07
-8.17817e-08
-1.6837e-07
-7.92539e-08
-1.72025e-07
-7.67219e-08
-1.75171e-07
-7.41882e-08
-1.77832e-07
-7.16717e-08
-1.80032e-07
-6.91717e-08
-1.818e-07
-6.67078e-08
-1.83167e-07
-6.42764e-08
-1.84163e-07
-6.18979e-08
-1.84821e-07
-5.95654e-08
-1.85172e-07
-1.85241e-07
-5.7302e-08
-1.04436e-07
-1.12353e-07
1.06148e-07
-1.0253e-07
-1.21252e-07
-1.00456e-07
-1.29515e-07
-9.82403e-08
-1.37193e-07
-9.59015e-08
-1.44283e-07
-9.34632e-08
-1.50788e-07
-9.09401e-08
-1.5671e-07
-8.83534e-08
-1.62054e-07
-8.57135e-08
-1.6683e-07
-8.30405e-08
-1.71048e-07
-8.03414e-08
-1.74726e-07
-7.76355e-08
-1.77882e-07
-7.49267e-08
-1.80541e-07
-7.22339e-08
-1.8273e-07
-6.95583e-08
-1.84476e-07
-6.69192e-08
-1.85811e-07
-6.43148e-08
-1.86767e-07
-6.17654e-08
-1.87376e-07
-5.92657e-08
-1.8767e-07
-1.87674e-07
-5.68387e-08
-1.07032e-07
-1.14176e-07
1.08847e-07
-1.05008e-07
-1.23282e-07
-1.02804e-07
-1.31723e-07
-1.00448e-07
-1.39555e-07
-9.79606e-08
-1.46775e-07
-9.53648e-08
-1.53389e-07
-9.26771e-08
-1.59401e-07
-8.99191e-08
-1.64818e-07
-8.71028e-08
-1.69649e-07
-8.42488e-08
-1.73908e-07
-8.13652e-08
-1.77612e-07
-7.8472e-08
-1.80782e-07
-7.55741e-08
-1.83441e-07
-7.26916e-08
-1.85619e-07
-6.98262e-08
-1.87343e-07
-6.69984e-08
-1.88646e-07
-6.42071e-08
-1.8956e-07
-6.14735e-08
-1.90117e-07
-5.87932e-08
-1.90351e-07
-1.90285e-07
-5.61901e-08
-1.09667e-07
-1.16106e-07
1.11591e-07
-1.07519e-07
-1.25435e-07
-1.0518e-07
-1.34068e-07
-1.02675e-07
-1.42065e-07
-1.00028e-07
-1.49426e-07
-9.7264e-08
-1.56159e-07
-9.43998e-08
-1.62269e-07
-9.14581e-08
-1.67765e-07
-8.84521e-08
-1.72658e-07
-8.54031e-08
-1.76962e-07
-8.23208e-08
-1.80696e-07
-7.92256e-08
-1.83882e-07
-7.61241e-08
-1.86545e-07
-7.30364e-08
-1.88712e-07
-6.99665e-08
-1.90414e-07
-6.69345e-08
-1.91684e-07
-6.39416e-08
-1.92553e-07
-6.1009e-08
-1.93056e-07
-5.81341e-08
-1.93225e-07
-1.93085e-07
-5.53408e-08
-1.12358e-07
-1.18157e-07
1.14399e-07
-1.10076e-07
-1.27723e-07
-1.07589e-07
-1.36561e-07
-1.04925e-07
-1.44735e-07
-1.02108e-07
-1.52249e-07
-9.91626e-08
-1.5911e-07
-9.61089e-08
-1.65327e-07
-9.29694e-08
-1.7091e-07
-8.97593e-08
-1.75872e-07
-8.65002e-08
-1.80227e-07
-8.32034e-08
-1.83997e-07
-7.98901e-08
-1.87202e-07
-7.65682e-08
-1.89869e-07
-7.3259e-08
-1.92028e-07
-6.99674e-08
-1.93708e-07
-6.67149e-08
-1.94944e-07
-6.35036e-08
-1.95767e-07
-6.03559e-08
-1.96212e-07
-5.727e-08
-1.96312e-07
-1.96093e-07
-5.42714e-08
-1.15097e-07
-1.20329e-07
1.17263e-07
-1.12676e-07
-1.3015e-07
-1.10033e-07
-1.39209e-07
-1.07199e-07
-1.47575e-07
-1.042e-07
-1.55253e-07
-1.01061e-07
-1.62254e-07
-9.78042e-08
-1.68589e-07
-9.4452e-08
-1.74268e-07
-9.1022e-08
-1.79306e-07
-8.75361e-08
-1.83719e-07
-8.40076e-08
-1.87528e-07
-8.04584e-08
-1.90757e-07
-7.68983e-08
-1.93432e-07
-7.33488e-08
-1.95583e-07
-6.98174e-08
-1.97242e-07
-6.63256e-08
-1.98442e-07
-6.28779e-08
-1.99216e-07
-5.9497e-08
-1.996e-07
-5.61833e-08
-1.99626e-07
-1.99321e-07
-5.29623e-08
-1.17902e-07
-1.22638e-07
1.20201e-07
-1.15329e-07
-1.32731e-07
-1.1252e-07
-1.42026e-07
-1.09504e-07
-1.50598e-07
-1.06309e-07
-1.58454e-07
-1.02962e-07
-1.65608e-07
-9.94863e-08
-1.7207e-07
-9.5905e-08
-1.77855e-07
-9.22375e-08
-1.82978e-07
-8.85065e-08
-1.87456e-07
-8.47274e-08
-1.91312e-07
-8.09224e-08
-1.94569e-07
-7.71036e-08
-1.97255e-07
-7.32938e-08
-1.994e-07
-6.95016e-08
-2.01038e-07
-6.57503e-08
-2.022e-07
-6.20456e-08
-2.02924e-07
-5.84117e-08
-2.03242e-07
-5.48504e-08
-2.03189e-07
-2.02792e-07
-5.13885e-08
-1.20767e-07
-1.25084e-07
1.23205e-07
-1.18035e-07
-1.35469e-07
-1.1505e-07
-1.45019e-07
-1.1184e-07
-1.53815e-07
-1.08437e-07
-1.61864e-07
-1.04867e-07
-1.69184e-07
-1.01155e-07
-1.75787e-07
-9.73269e-08
-1.81689e-07
-9.34028e-08
-1.86907e-07
-8.94065e-08
-1.91458e-07
-8.53553e-08
-1.95367e-07
-8.12728e-08
-1.98657e-07
-7.71732e-08
-2.01358e-07
-7.30798e-08
-2.035e-07
-6.90043e-08
-2.05116e-07
-6.49703e-08
-2.06241e-07
-6.09864e-08
-2.0691e-07
-5.70772e-08
-2.07158e-07
-5.32474e-08
-2.0702e-07
-2.06523e-07
-4.95239e-08
-1.23708e-07
-1.27684e-07
1.26296e-07
-1.20806e-07
-1.38379e-07
-1.17631e-07
-1.48203e-07
-1.14214e-07
-1.57239e-07
-1.10586e-07
-1.65499e-07
-1.06777e-07
-1.73e-07
-1.02811e-07
-1.79759e-07
-9.87162e-08
-1.85791e-07
-9.45143e-08
-1.91114e-07
-9.02299e-08
-1.95749e-07
-8.58831e-08
-1.99719e-07
-8.14983e-08
-2.03049e-07
-7.70923e-08
-2.05768e-07
-7.26901e-08
-2.07909e-07
-6.83051e-08
-2.09505e-07
-6.39631e-08
-2.10591e-07
-5.96745e-08
-2.11202e-07
-5.54657e-08
-2.11375e-07
-5.13431e-08
-2.11146e-07
-2.1054e-07
-4.73355e-08
-1.26721e-07
-1.30438e-07
1.29466e-07
-1.23641e-07
-1.41467e-07
-1.20266e-07
-1.51587e-07
-1.16628e-07
-1.60884e-07
-1.12761e-07
-1.69373e-07
-1.08693e-07
-1.77074e-07
-1.04455e-07
-1.84004e-07
-1.00071e-07
-1.90181e-07
-9.55669e-08
-1.95624e-07
-9.09692e-08
-2.00353e-07
-8.63001e-08
-2.04393e-07
-8.15854e-08
-2.0777e-07
-7.68448e-08
-2.10513e-07
-7.21044e-08
-2.12656e-07
-6.73814e-08
-2.14232e-07
-6.27024e-08
-2.15277e-07
-5.8081e-08
-2.15827e-07
-5.3545e-08
-2.15919e-07
-4.91037e-08
-2.15589e-07
-2.14864e-07
-4.47869e-08
-1.29824e-07
-1.33362e-07
1.32736e-07
-1.26552e-07
-1.44747e-07
-1.22963e-07
-1.55185e-07
-1.19089e-07
-1.64766e-07
-1.14965e-07
-1.73505e-07
-1.1062e-07
-1.81426e-07
-1.06085e-07
-1.88546e-07
-1.01387e-07
-1.94885e-07
-9.65548e-08
-2.00462e-07
-9.1615e-08
-2.05299e-07
-8.65933e-08
-2.0942e-07
-8.1517e-08
-2.12853e-07
-7.64092e-08
-2.15626e-07
-7.12981e-08
-2.17774e-07
-6.62038e-08
-2.19331e-07
-6.11552e-08
-2.20333e-07
-5.61691e-08
-2.20817e-07
-5.12752e-08
-2.20821e-07
-4.64855e-08
-2.20382e-07
-2.19527e-07
-4.18318e-08
-1.33014e-07
-1.36458e-07
1.36101e-07
-1.29542e-07
-1.48227e-07
-1.25727e-07
-1.59009e-07
-1.21601e-07
-1.68899e-07
-1.17201e-07
-1.77914e-07
-1.12556e-07
-1.86077e-07
-1.077e-07
-1.93409e-07
-1.02661e-07
-1.9993e-07
-9.74695e-08
-2.05659e-07
-9.2155e-08
-2.10619e-07
-8.67461e-08
-2.14834e-07
-8.12722e-08
-2.18332e-07
-7.57603e-08
-2.21143e-07
-7.02406e-08
-2.233e-07
-6.47376e-08
-2.24838e-07
-5.92823e-08
-2.25795e-07
-5.38955e-08
-2.26207e-07
-4.86089e-08
-2.26115e-07
-4.34386e-08
-2.25555e-07
-2.24556e-07
-3.84174e-08
-1.36308e-07
-1.39742e-07
1.39579e-07
-1.32624e-07
-1.5192e-07
-1.28568e-07
-1.63076e-07
-1.24171e-07
-1.73303e-07
-1.19474e-07
-1.82621e-07
-1.14504e-07
-1.91054e-07
-1.09298e-07
-1.98623e-07
-1.03885e-07
-2.05349e-07
-9.83003e-08
-2.11251e-07
-9.25735e-08
-2.16352e-07
-8.67376e-08
-2.20677e-07