/*--------------------------------*- C++ -*----------------------------------*\
  =========                 |
  \\      /  F ield         | OpenFOAM: The Open Source CFD Toolbox
   \\    /   O peration     | Website:  https://openfoam.org
    \\  /    A nd           | Version:  6
     \\/     M anipulation  |
\*---------------------------------------------------------------------------*/
FoamFile
{
    version     2.0;
    format      ascii;
    class       volVectorField;
    location    "24";
    object      U;
}
// * * * * * * * * * * * * * * * * * * * * * * * * * * * * * * * * * * * * * //

dimensions      [0 1 -1 0 0 0 0];

internalField   nonuniform List<vector> 
130000
(
(-0.0182318 -0.342079 0)
(-0.0188315 -0.366351 0)
(-0.0193848 -0.390029 0)
(-0.0198864 -0.412979 0)
(-0.0203353 -0.435081 0)
(-0.0207375 -0.456225 0)
(-0.0210977 -0.476308 0)
(-0.02142 -0.49524 0)
(-0.0217087 -0.512944 0)
(-0.0219676 -0.529363 0)
(-0.0222007 -0.544457 0)
(-0.0224113 -0.558209 0)
(-0.0226026 -0.570619 0)
(-0.0227773 -0.581709 0)
(-0.0229378 -0.591518 0)
(-0.023086 -0.600102 0)
(-0.0232236 -0.60753 0)
(-0.0233517 -0.613882 0)
(-0.0234721 -0.619247 0)
(-0.0235851 -0.623725 0)
(-0.0198331 -0.340584 0)
(-0.020252 -0.364946 0)
(-0.020676 -0.388739 0)
(-0.0210847 -0.411809 0)
(-0.021462 -0.434028 0)
(-0.0218056 -0.455284 0)
(-0.0221164 -0.47547 0)
(-0.0223966 -0.494495 0)
(-0.0226488 -0.512282 0)
(-0.0228763 -0.528773 0)
(-0.0230822 -0.543929 0)
(-0.0232695 -0.557734 0)
(-0.0234409 -0.57019 0)
(-0.023599 -0.581319 0)
(-0.0237457 -0.591161 0)
(-0.0238826 -0.599773 0)
(-0.024011 -0.607225 0)
(-0.0241319 -0.613598 0)
(-0.0242468 -0.618982 0)
(-0.0243566 -0.623473 0)
(-0.022101 -0.339845 0)
(-0.0224217 -0.364194 0)
(-0.0227507 -0.388007 0)
(-0.0230663 -0.411115 0)
(-0.0233587 -0.433382 0)
(-0.0236259 -0.454688 0)
(-0.0238687 -0.474924 0)
(-0.0240888 -0.493996 0)
(-0.0242883 -0.511826 0)
(-0.0244697 -0.528355 0)
(-0.0246354 -0.543545 0)
(-0.0247879 -0.557379 0)
(-0.0249295 -0.569859 0)
(-0.025062 -0.581008 0)
(-0.0251873 -0.590868 0)
(-0.0253065 -0.599496 0)
(-0.0254207 -0.606962 0)
(-0.0255307 -0.613347 0)
(-0.0256377 -0.618742 0)
(-0.0257425 -0.623243 0)
(-0.0252356 -0.339275 0)
(-0.0253913 -0.363643 0)
(-0.0255789 -0.387482 0)
(-0.0257664 -0.410624 0)
(-0.0259435 -0.432928 0)
(-0.0261075 -0.454272 0)
(-0.0262582 -0.474545 0)
(-0.0263963 -0.493652 0)
(-0.0265229 -0.511512 0)
(-0.0266397 -0.528068 0)
(-0.0267485 -0.54328 0)
(-0.0268511 -0.557131 0)
(-0.026949 -0.569625 0)
(-0.0270437 -0.580786 0)
(-0.0271365 -0.590655 0)
(-0.0272281 -0.599289 0)
(-0.0273191 -0.606759 0)
(-0.0274102 -0.613148 0)
(-0.0275019 -0.618545 0)
(-0.0275946 -0.623048 0)
(-0.0288513 -0.339022 0)
(-0.0288646 -0.363388 0)
(-0.0289216 -0.38723 0)
(-0.0289832 -0.41038 0)
(-0.0290417 -0.432698 0)
(-0.0290954 -0.454057 0)
(-0.0291444 -0.474347 0)
(-0.0291894 -0.493468 0)
(-0.0292313 -0.511341 0)
(-0.0292716 -0.527906 0)
(-0.0293116 -0.543125 0)
(-0.0293525 -0.556981 0)
(-0.0293957 -0.569477 0)
(-0.029442 -0.580637 0)
(-0.029492 -0.590503 0)
(-0.0295464 -0.599134 0)
(-0.0296052 -0.606601 0)
(-0.0296684 -0.612986 0)
(-0.0297361 -0.618379 0)
(-0.0298083 -0.622878 0)
(-0.0328243 -0.339014 0)
(-0.032702 -0.363385 0)
(-0.0326339 -0.387228 0)
(-0.032574 -0.410378 0)
(-0.0325159 -0.432696 0)
(-0.032459 -0.454057 0)
(-0.0324039 -0.474346 0)
(-0.0323518 -0.493466 0)
(-0.0323037 -0.511336 0)
(-0.0322611 -0.527896 0)
(-0.0322252 -0.543107 0)
(-0.032197 -0.556953 0)
(-0.0321774 -0.569437 0)
(-0.0321672 -0.580585 0)
(-0.0321664 -0.590438 0)
(-0.0321753 -0.599055 0)
(-0.0321934 -0.606509 0)
(-0.0322205 -0.612881 0)
(-0.0322561 -0.618263 0)
(-0.0322998 -0.622751 0)
(-0.0370025 -0.339233 0)
(-0.0367607 -0.363615 0)
(-0.0365843 -0.387456 0)
(-0.0364158 -0.410602 0)
(-0.0362508 -0.432914 0)
(-0.0360899 -0.454267 0)
(-0.0359347 -0.474546 0)
(-0.0357871 -0.493653 0)
(-0.0356486 -0.511508 0)
(-0.0355212 -0.52805 0)
(-0.0354061 -0.543241 0)
(-0.0353046 -0.557064 0)
(-0.0352172 -0.569525 0)
(-0.0351445 -0.580649 0)
(-0.0350865 -0.590478 0)
(-0.0350432 -0.599071 0)
(-0.0350138 -0.606502 0)
(-0.0349977 -0.612854 0)
(-0.0349941 -0.618216 0)
(-0.0350023 -0.622687 0)
(-0.0412973 -0.339632 0)
(-0.0409608 -0.364037 0)
(-0.0406909 -0.387883 0)
(-0.040427 -0.411027 0)
(-0.0401654 -0.433331 0)
(-0.0399083 -0.454672 0)
(-0.0396586 -0.474935 0)
(-0.0394193 -0.494022 0)
(-0.0391926 -0.511853 0)
(-0.0389809 -0.528367 0)
(-0.0387857 -0.543528 0)
(-0.0386087 -0.557319 0)
(-0.0384504 -0.569747 0)
(-0.0383116 -0.580836 0)
(-0.038192 -0.590632 0)
(-0.0380914 -0.599193 0)
(-0.0380091 -0.606592 0)
(-0.0379441 -0.612914 0)
(-0.0378953 -0.61825 0)
(-0.0378619 -0.622696 0)
(-0.0456628 -0.340198 0)
(-0.0452475 -0.364632 0)
(-0.0448954 -0.388489 0)
(-0.0445464 -0.411635 0)
(-0.0441974 -0.433934 0)
(-0.0438519 -0.455261 0)
(-0.0435142 -0.475505 0)
(-0.0431881 -0.494567 0)
(-0.0428765 -0.512367 0)
(-0.0425825 -0.528847 0)
(-0.0423082 -0.54397 0)
(-0.0420554 -0.557721 0)
(-0.0418251 -0.570107 0)
(-0.0416179 -0.581154 0)
(-0.0414339 -0.590907 0)
(-0.0412727 -0.599427 0)
(-0.0411334 -0.606788 0)
(-0.0410152 -0.613074 0)
(-0.0409166 -0.618375 0)
(-0.0408367 -0.622789 0)
(-0.0500587 -0.340894 0)
(-0.0495749 -0.365369 0)
(-0.049153 -0.389248 0)
(-0.0487292 -0.412403 0)
(-0.0483018 -0.434701 0)
(-0.0478757 -0.456018 0)
(-0.0474564 -0.476243 0)
(-0.0470486 -0.495278 0)
(-0.0466561 -0.513045 0)
(-0.0462827 -0.529486 0)
(-0.045931 -0.544566 0)
(-0.0456033 -0.55827 0)
(-0.0453007 -0.570608 0)
(-0.0450244 -0.581606 0)
(-0.0447742 -0.59131 0)
(-0.0445501 -0.599783 0)
(-0.0443511 -0.607097 0)
(-0.0441764 -0.613339 0)
(-0.0440243 -0.618601 0)
(-0.043894 -0.622977 0)
(-0.054488 -0.341709 0)
(-0.0539396 -0.366236 0)
(-0.05345 -0.390145 0)
(-0.0529549 -0.413316 0)
(-0.0524537 -0.435619 0)
(-0.0519518 -0.456929 0)
(-0.0514555 -0.477137 0)
(-0.0509701 -0.496145 0)
(-0.0505001 -0.513878 0)
(-0.05005 -0.530278 0)
(-0.0496227 -0.545311 0)
(-0.0492211 -0.558965 0)
(-0.0488467 -0.57125 0)
(-0.0485008 -0.582193 0)
(-0.0481835 -0.591843 0)
(-0.0478949 -0.600262 0)
(-0.0476342 -0.607525 0)
(-0.0474004 -0.613718 0)
(-0.0471921 -0.618933 0)
(-0.0470083 -0.623265 0)
(-0.0589022 -0.342632 0)
(-0.0583048 -0.367223 0)
(-0.0577587 -0.39117 0)
(-0.0572004 -0.414367 0)
(-0.0566318 -0.43668 0)
(-0.0560593 -0.457988 0)
(-0.0554902 -0.478181 0)
(-0.0549308 -0.497164 0)
(-0.0543863 -0.514862 0)
(-0.0538616 -0.53122 0)
(-0.0533604 -0.546204 0)
(-0.052886 -0.559805 0)
(-0.0524401 -0.572033 0)
(-0.0520244 -0.582918 0)
(-0.0516393 -0.592509 0)
(-0.0512851 -0.600869 0)
(-0.050961 -0.608076 0)
(-0.0506664 -0.614214 0)
(-0.0503994 -0.619377 0)
(-0.0501593 -0.623661 0)
(-0.0633298 -0.343654 0)
(-0.0626867 -0.368322 0)
(-0.062082 -0.39232 0)
(-0.0614615 -0.41555 0)
(-0.060827 -0.437879 0)
(-0.060186 -0.459189 0)
(-0.0595464 -0.479371 0)
(-0.0589152 -0.498331 0)
(-0.058298 -0.515994 0)
(-0.0577005 -0.532309 0)
(-0.0571267 -0.547243 0)
(-0.0565801 -0.560788 0)
(-0.0560632 -0.572957 0)
(-0.0555776 -0.58378 0)
(-0.0551242 -0.593309 0)
(-0.0547034 -0.601607 0)
(-0.0543147 -0.608752 0)
(-0.0539574 -0.614831 0)
(-0.0536299 -0.619939 0)
(-0.0533314 -0.624169 0)
(-0.0677512 -0.344783 0)
(-0.0670648 -0.369535 0)
(-0.0664052 -0.39359 0)
(-0.0657252 -0.41686 0)
(-0.0650277 -0.439212 0)
(-0.0643206 -0.460528 0)
(-0.0636128 -0.480702 0)
(-0.0629116 -0.49964 0)
(-0.0622235 -0.517271 0)
(-0.0615543 -0.533543 0)
(-0.0609087 -0.548427 0)
(-0.0602906 -0.561915 0)
(-0.0597026 -0.574023 0)
(-0.059147 -0.584782 0)
(-0.0586247 -0.594245 0)
(-0.0581363 -0.602478 0)
(-0.0576816 -0.609558 0)
(-0.0572601 -0.615575 0)
(-0.0568703 -0.620621 0)
(-0.0565112 -0.624793 0)
(-0.0721772 -0.345998 0)
(-0.0714437 -0.370847 0)
(-0.0707291 -0.39497 0)
(-0.0699901 -0.418288 0)
(-0.0692302 -0.440671 0)
(-0.0684582 -0.462 0)
(-0.0676831 -0.48217 0)
(-0.0669129 -0.50109 0)
(-0.0661545 -0.51869 0)
(-0.0654143 -0.534921 0)
(-0.0646971 -0.549754 0)
(-0.0640075 -0.563186 0)
(-0.0633484 -0.575231 0)
(-0.0627221 -0.585925 0)
(-0.06213 -0.59532 0)
(-0.061573 -0.603484 0)
(-0.061051 -0.610497 0)
(-0.0605638 -0.616447 0)
(-0.0601098 -0.62143 0)
(-0.0596883 -0.625539 0)
(-0.0765996 -0.347306 0)
(-0.0758252 -0.372262 0)
(-0.0750553 -0.396463 0)
(-0.074257 -0.419837 0)
(-0.0734344 -0.442256 0)
(-0.0725971 -0.463603 0)
(-0.0717545 -0.483774 0)
(-0.0709152 -0.50268 0)
(-0.0700862 -0.520252 0)
(-0.0692745 -0.536443 0)
(-0.0684855 -0.551227 0)
(-0.0677238 -0.564601 0)
(-0.0669926 -0.576583 0)
(-0.0662948 -0.58721 0)
(-0.0656317 -0.596535 0)
(-0.0650047 -0.604629 0)
(-0.0644139 -0.611571 0)
(-0.0638591 -0.617452 0)
(-0.063339 -0.622367 0)
(-0.062853 -0.626411 0)
(-0.0810063 -0.348706 0)
(-0.0801994 -0.373782 0)
(-0.0793775 -0.39807 0)
(-0.0785213 -0.421509 0)
(-0.0776364 -0.443972 0)
(-0.0767335 -0.465343 0)
(-0.0758231 -0.485518 0)
(-0.0749139 -0.504412 0)
(-0.0740138 -0.521958 0)
(-0.0731299 -0.53811 0)
(-0.072268 -0.552846 0)
(-0.0714332 -0.566163 0)
(-0.0706289 -0.578081 0)
(-0.0698581 -0.58864 0)
(-0.0691227 -0.597894 0)
(-0.0684242 -0.605915 0)
(-0.0677627 -0.612785 0)
(-0.0671385 -0.618593 0)
(-0.0665504 -0.623438 0)
(-0.0659977 -0.627413 0)
(-0.0854255 -0.35021 0)
(-0.0845817 -0.375414 0)
(-0.0837014 -0.399799 0)
(-0.082784 -0.42331 0)
(-0.0818347 -0.445821 0)
(-0.0808647 -0.46722 0)
(-0.0798852 -0.487404 0)
(-0.0789053 -0.506289 0)
(-0.0779329 -0.523811 0)
(-0.0769757 -0.539926 0)
(-0.0760397 -0.554614 0)
(-0.0751304 -0.567874 0)
(-0.0742514 -0.579729 0)
(-0.0734062 -0.590219 0)
(-0.0725966 -0.599401 0)
(-0.0718245 -0.607348 0)
(-0.0710904 -0.614142 0)
(-0.0703947 -0.619876 0)
(-0.0697362 -0.624647 0)
(-0.0691145 -0.628549 0)
(-0.0898295 -0.351811 0)
(-0.0889447 -0.377154 0)
(-0.0880111 -0.401645 0)
(-0.0870344 -0.425235 0)
(-0.0860218 -0.447802 0)
(-0.0849853 -0.469234 0)
(-0.0839366 -0.489431 0)
(-0.0828853 -0.508312 0)
(-0.0818397 -0.525812 0)
(-0.080808 -0.541892 0)
(-0.0797965 -0.556533 0)
(-0.0788111 -0.569737 0)
(-0.0778557 -0.581529 0)
(-0.076934 -0.591949 0)
(-0.0760482 -0.601059 0)
(-0.0752004 -0.60893 0)
(-0.0743913 -0.615647 0)
(-0.0736217 -0.621304 0)
(-0.0728904 -0.625998 0)
(-0.0721973 -0.629824 0)
(-0.0942455 -0.353498 0)
(-0.0933111 -0.378993 0)
(-0.0923198 -0.403602 0)
(-0.091281 -0.427282 0)
(-0.0902028 -0.449912 0)
(-0.0890979 -0.471384 0)
(-0.0879781 -0.491601 0)
(-0.0868535 -0.510481 0)
(-0.0857329 -0.527964 0)
(-0.0846247 -0.544012 0)
(-0.0835356 -0.558608 0)
(-0.0824717 -0.571757 0)
(-0.0814375 -0.583486 0)
(-0.0804368 -0.593837 0)
(-0.0794723 -0.602872 0)
(-0.0785462 -0.610666 0)
(-0.0776595 -0.617305 0)
(-0.0768132 -0.622882 0)
(-0.0760063 -0.627497 0)
(-0.0752388 -0.631244 0)
(-0.0986486 -0.355278 0)
(-0.097673 -0.380939 0)
(-0.0966258 -0.405677 0)
(-0.0955248 -0.429457 0)
(-0.0943796 -0.45216 0)
(-0.0932038 -0.473678 0)
(-0.0920105 -0.493919 0)
(-0.09081 -0.512803 0)
(-0.0896116 -0.530272 0)
(-0.088424 -0.54629 0)
(-0.0872545 -0.560843 0)
(-0.0861094 -0.573939 0)
(-0.0849936 -0.585605 0)
(-0.0839111 -0.595886 0)
(-0.0828648 -0.604847 0)
(-0.0818574 -0.612563 0)
(-0.08089 -0.619121 0)
(-0.079964 -0.624617 0)
(-0.0790786 -0.62915 0)
(-0.0782338 -0.632814 0)
(-0.103073 -0.357174 0)
(-0.102049 -0.383011 0)
(-0.100937 -0.407887 0)
(-0.099769 -0.431773 0)
(-0.0985525 -0.454554 0)
(-0.0973025 -0.476124 0)
(-0.0960323 -0.496392 0)
(-0.0947527 -0.515284 0)
(-0.0934734 -0.532742 0)
(-0.0922035 -0.548733 0)
(-0.0909504 -0.563245 0)
(-0.0897209 -0.576288 0)
(-0.0885199 -0.587891 0)
(-0.0873522 -0.598104 0)
(-0.0862208 -0.606989 0)
(-0.0851286 -0.614626 0)
(-0.0840771 -0.621102 0)
(-0.0830679 -0.626514 0)
(-0.0821003 -0.630962 0)
(-0.0811746 -0.634541 0)
(-0.107488 -0.359184 0)
(-0.106411 -0.385205 0)
(-0.105238 -0.410229 0)
(-0.104003 -0.434231 0)
(-0.102715 -0.457096 0)
(-0.101389 -0.478724 0)
(-0.10004 -0.499026 0)
(-0.0986788 -0.517929 0)
(-0.0973157 -0.535379 0)
(-0.0959602 -0.551346 0)
(-0.0946203 -0.565819 0)
(-0.0933028 -0.57881 0)
(-0.0920134 -0.590353 0)
(-0.0907568 -0.600495 0)
(-0.0895365 -0.609305 0)
(-0.0883558 -0.616861 0)
(-0.0872164 -0.623254 0)
(-0.0861202 -0.62858 0)
(-0.0850668 -0.63294 0)
(-0.0840567 -0.63643 0)
(-0.111921 -0.361295 0)
(-0.110781 -0.387516 0)
(-0.109542 -0.4127 0)
(-0.108235 -0.436828 0)
(-0.106872 -0.459788 0)
(-0.105467 -0.481482 0)
(-0.104035 -0.501824 0)
(-0.102589 -0.520743 0)
(-0.101138 -0.53819 0)
(-0.0996928 -0.554135 0)
(-0.0982619 -0.568572 0)
(-0.0968525 -0.581514 0)
(-0.0954703 -0.592995 0)
(-0.0941206 -0.603069 0)
(-0.0928072 -0.611803 0)
(-0.0915337 -0.619277 0)
(-0.0903021 -0.625585 0)
(-0.0891147 -0.630822 0)
(-0.0879712 -0.635092 0)
(-0.0868724 -0.638489 0)
(-0.116345 -0.363515 0)
(-0.11515 -0.389951 0)
(-0.113846 -0.415308 0)
(-0.112467 -0.439574 0)
(-0.111025 -0.462638 0)
(-0.109537 -0.484405 0)
(-0.108018 -0.504793 0)
(-0.106482 -0.523734 0)
(-0.104939 -0.541181 0)
(-0.1034 -0.557108 0)
(-0.101874 -0.571511 0)
(-0.100368 -0.584405 0)
(-0.0988884 -0.595827 0)
(-0.0974411 -0.605832 0)
(-0.0960299 -0.614489 0)
(-0.094659 -0.621882 0)
(-0.0933306 -0.628102 0)
(-0.0920474 -0.633248 0)
(-0.0908094 -0.637425 0)
(-0.0896175 -0.640726 0)
(-0.120802 -0.365869 0)
(-0.119543 -0.39253 0)
(-0.118162 -0.41807 0)
(-0.116702 -0.442481 0)
(-0.115175 -0.465657 0)
(-0.113599 -0.487504 0)
(-0.111989 -0.507944 0)
(-0.110358 -0.526912 0)
(-0.108718 -0.544363 0)
(-0.10708 -0.560275 0)
(-0.105454 -0.574646 0)
(-0.103846 -0.587494 0)
(-0.102264 -0.598858 0)
(-0.100714 -0.608794 0)
(-0.0991996 -0.617375 0)
(-0.0977261 -0.624683 0)
(-0.0962958 -0.630815 0)
(-0.0949117 -0.635868 0)
(-0.0935738 -0.639949 0)
(-0.0922836 -0.64315 0)
(-0.125252 -0.368352 0)
(-0.123925 -0.395252 0)
(-0.122471 -0.420987 0)
(-0.12093 -0.445554 0)
(-0.119317 -0.46885 0)
(-0.11765 -0.490785 0)
(-0.115944 -0.511284 0)
(-0.114214 -0.530284 0)
(-0.112473 -0.547744 0)
(-0.110731 -0.563645 0)
(-0.108998 -0.577986 0)
(-0.107283 -0.59079 0)
(-0.105593 -0.602097 0)
(-0.103935 -0.611966 0)
(-0.102312 -0.620469 0)
(-0.100731 -0.627693 0)
(-0.099193 -0.633734 0)
(-0.0977025 -0.638692 0)
(-0.0962597 -0.642673 0)
(-0.094866 -0.645771 0)
(-0.129733 -0.37096 0)
(-0.128328 -0.398117 0)
(-0.126791 -0.424062 0)
(-0.125163 -0.448797 0)
(-0.123457 -0.472224 0)
(-0.121692 -0.494256 0)
(-0.119886 -0.514821 0)
(-0.118051 -0.53386 0)
(-0.116202 -0.551336 0)
(-0.11435 -0.567229 0)
(-0.112505 -0.581545 0)
(-0.110677 -0.594306 0)
(-0.108873 -0.605558 0)
(-0.1071 -0.615359 0)
(-0.105363 -0.623785 0)
(-0.103667 -0.630924 0)
(-0.102015 -0.636872 0)
(-0.100413 -0.641732 0)
(-0.0988585 -0.64561 0)
(-0.0973553 -0.648601 0)
(-0.134215 -0.373706 0)
(-0.132734 -0.401138 0)
(-0.131115 -0.427305 0)
(-0.129396 -0.452222 0)
(-0.127593 -0.47579 0)
(-0.125726 -0.497929 0)
(-0.123813 -0.518569 0)
(-0.121868 -0.537654 0)
(-0.119905 -0.555149 0)
(-0.117937 -0.571041 0)
(-0.115974 -0.585334 0)
(-0.114026 -0.598056 0)
(-0.112101 -0.609253 0)
(-0.110206 -0.618987 0)
(-0.108347 -0.627336 0)
(-0.10653 -0.634388 0)
(-0.104759 -0.640242 0)
(-0.103037 -0.645001 0)
(-0.101365 -0.648773 0)
(-0.0997462 -0.651652 0)
(-0.138728 -0.376602 0)
(-0.137163 -0.404324 0)
(-0.135452 -0.43073 0)
(-0.133636 -0.45584 0)
(-0.131729 -0.479562 0)
(-0.129753 -0.501817 0)
(-0.127727 -0.52254 0)
(-0.125664 -0.541678 0)
(-0.123581 -0.5592 0)
(-0.121489 -0.575094 0)
(-0.1194 -0.589369 0)
(-0.117325 -0.602054 0)
(-0.115271 -0.613198 0)
(-0.113248 -0.622866 0)
(-0.11126 -0.631136 0)
(-0.109315 -0.638101 0)
(-0.107416 -0.643858 0)
(-0.105567 -0.648514 0)
(-0.103771 -0.652176 0)
(-0.102029 -0.654938 0)
(-0.143249 -0.379656 0)
(-0.141599 -0.407687 0)
(-0.139796 -0.434347 0)
(-0.137878 -0.459665 0)
(-0.135863 -0.483552 0)
(-0.133772 -0.505935 0)
(-0.131625 -0.52675 0)
(-0.129438 -0.545949 0)
(-0.127226 -0.563503 0)
(-0.125003 -0.579405 0)
(-0.122781 -0.593665 0)
(-0.120571 -0.606316 0)
(-0.118381 -0.617409 0)
(-0.116221 -0.627011 0)
(-0.114097 -0.635203 0)
(-0.112015 -0.642078 0)
(-0.109981 -0.647736 0)
(-0.107998 -0.652286 0)
(-0.10607 -0.655833 0)
(-0.104198 -0.658475 0)
(-0.147808 -0.382878 0)
(-0.146063 -0.411237 0)
(-0.144157 -0.438168 0)
(-0.142129 -0.463709 0)
(-0.139997 -0.487775 0)
(-0.137784 -0.510296 0)
(-0.135509 -0.531213 0)
(-0.133189 -0.550481 0)
(-0.130841 -0.568075 0)
(-0.128479 -0.583989 0)
(-0.126115 -0.598238 0)
(-0.123761 -0.610858 0)
(-0.121426 -0.621901 0)
(-0.119121 -0.631438 0)
(-0.116851 -0.639551 0)
(-0.114624 -0.646335 0)
(-0.112446 -0.651893 0)
(-0.110321 -0.656332 0)
(-0.108252 -0.659762 0)
(-0.106242 -0.662277 0)
(-0.15238 -0.386278 0)
(-0.150539 -0.414985 0)
(-0.148527 -0.442206 0)
(-0.146385 -0.467986 0)
(-0.14413 -0.492245 0)
(-0.141787 -0.514917 0)
(-0.139376 -0.535946 0)
(-0.136916 -0.555291 0)
(-0.134422 -0.572931 0)
(-0.131912 -0.588863 0)
(-0.129397 -0.603107 0)
(-0.12689 -0.615698 0)
(-0.124402 -0.626694 0)
(-0.121942 -0.636166 0)
(-0.119517 -0.6442 0)
(-0.117137 -0.650892 0)
(-0.114805 -0.656346 0)
(-0.112529 -0.660671 0)
(-0.11031 -0.663978 0)
(-0.108153 -0.666363 0)
(-0.156996 -0.389867 0)
(-0.155047 -0.418944 0)
(-0.15292 -0.446474 0)
(-0.150653 -0.472512 0)
(-0.148266 -0.496978 0)
(-0.145783 -0.519814 0)
(-0.143227 -0.540965 0)
(-0.140617 -0.560397 0)
(-0.137969 -0.578091 0)
(-0.1353 -0.594048 0)
(-0.132624 -0.608289 0)
(-0.129955 -0.620856 0)
(-0.127302 -0.631806 0)
(-0.124677 -0.641214 0)
(-0.122088 -0.649168 0)
(-0.119543 -0.655766 0)
(-0.117049 -0.661113 0)
(-0.114612 -0.665321 0)
(-0.112234 -0.668501 0)
(-0.10992 -0.670747 0)
(-0.161631 -0.393656 0)
(-0.159572 -0.423129 0)
(-0.157325 -0.450989 0)
(-0.154928 -0.477301 0)
(-0.152402 -0.501992 0)
(-0.149771 -0.525004 0)
(-0.147061 -0.546291 0)
(-0.144291 -0.565819 0)
(-0.141478 -0.583575 0)
(-0.138641 -0.599563 0)
(-0.135794 -0.613807 0)
(-0.132951 -0.626352 0)
(-0.130123 -0.637258 0)
(-0.127323 -0.646603 0)
(-0.124558 -0.654476 0)
(-0.121838 -0.660978 0)
(-0.11917 -0.666216 0)
(-0.116561 -0.670302 0)
(-0.114014 -0.673349 0)
(-0.111534 -0.675451 0)
(-0.166316 -0.39766 0)
(-0.164134 -0.427553 0)
(-0.161756 -0.455765 0)
(-0.159219 -0.482372 0)
(-0.156542 -0.507304 0)
(-0.153754 -0.530508 0)
(-0.150879 -0.551942 0)
(-0.147938 -0.571577 0)
(-0.144949 -0.589404 0)
(-0.141932 -0.605429 0)
(-0.138902 -0.619682 0)
(-0.135874 -0.632209 0)
(-0.13286 -0.643074 0)
(-0.129871 -0.652356 0)
(-0.126919 -0.660148 0)
(-0.124012 -0.666552 0)
(-0.121158 -0.671677 0)
(-0.118366 -0.675636 0)
(-0.115638 -0.678544 0)
(-0.11298 -0.680495 0)
(-0.171027 -0.401889 0)
(-0.168719 -0.43223 0)
(-0.166206 -0.46082 0)
(-0.16352 -0.487742 0)
(-0.160685 -0.512933 0)
(-0.157729 -0.536344 0)
(-0.154679 -0.557939 0)
(-0.151556 -0.577693 0)
(-0.14838 -0.5956 0)
(-0.145171 -0.611671 0)
(-0.141946 -0.625938 0)
(-0.13872 -0.638451 0)
(-0.135506 -0.649277 0)
(-0.132317 -0.658497 0)
(-0.129164 -0.666207 0)
(-0.126057 -0.672511 0)
(-0.123005 -0.677519 0)
(-0.120017 -0.681347 0)
(-0.117096 -0.684109 0)
(-0.114249 -0.685902 0)
(-0.175796 -0.406359 0)
(-0.173349 -0.437179 0)
(-0.170687 -0.466171 0)
(-0.167841 -0.493431 0)
(-0.164836 -0.518901 0)
(-0.1617 -0.542537 0)
(-0.158462 -0.564307 0)
(-0.155144 -0.584192 0)
(-0.151768 -0.602189 0)
(-0.148354 -0.618313 0)
(-0.14492 -0.632601 0)
(-0.141482 -0.645104 0)
(-0.138055 -0.655893 0)
(-0.134652 -0.665053 0)
(-0.131285 -0.672681 0)
(-0.127964 -0.678882 0)
(-0.1247 -0.68377 0)
(-0.121502 -0.687461 0)
(-0.118374 -0.690071 0)
(-0.115325 -0.691697 0)
(-0.1806 -0.411087 0)
(-0.178008 -0.442417 0)
(-0.175192 -0.471838 0)
(-0.172178 -0.499461 0)
(-0.168992 -0.52523 0)
(-0.165665 -0.549109 0)
(-0.162226 -0.57107 0)
(-0.158701 -0.591099 0)
(-0.155111 -0.609197 0)
(-0.151478 -0.625384 0)
(-0.147821 -0.639698 0)
(-0.144157 -0.652197 0)
(-0.140501 -0.662953 0)
(-0.136869 -0.672054 0)
(-0.133272 -0.679598 0)
(-0.129723 -0.685694 0)
(-0.126232 -0.690457 0)
(-0.12281 -0.694005 0)
(-0.119461 -0.696456 0)
(-0.116195 -0.697905 0)
(-0.185471 -0.41609 0)
(-0.18272 -0.447962 0)
(-0.179734 -0.477843 0)
(-0.176538 -0.505854 0)
(-0.173158 -0.531946 0)
(-0.169626 -0.556087 0)
(-0.165974 -0.578256 0)
(-0.162226 -0.598443 0)
(-0.158407 -0.616654 0)
(-0.15454 -0.632912 0)
(-0.150643 -0.647262 0)
(-0.146737 -0.659761 0)
(-0.142836 -0.670487 0)
(-0.138958 -0.679529 0)
(-0.135115 -0.686989 0)
(-0.131321 -0.692978 0)
(-0.127587 -0.697612 0)
(-0.123925 -0.701011 0)
(-0.120339 -0.703293 0)
(-0.116841 -0.704557 0)
(-0.190385 -0.421383 0)
(-0.187469 -0.453836 0)
(-0.184308 -0.484208 0)
(-0.18092 -0.512635 0)
(-0.177334 -0.539073 0)
(-0.173584 -0.563498 0)
(-0.169703 -0.585893 0)
(-0.165718 -0.606254 0)
(-0.161653 -0.62459 0)
(-0.157535 -0.640932 0)
(-0.153382 -0.655323 0)
(-0.149216 -0.667829 0)
(-0.145054 -0.678528 0)
(-0.140912 -0.687514 0)
(-0.136805 -0.694889 0)
(-0.132749 -0.700768 0)
(-0.128754 -0.705268 0)
(-0.124834 -0.70851 0)
(-0.120995 -0.710616 0)
(-0.117248 -0.711682 0)
(-0.195378 -0.426988 0)
(-0.192281 -0.460059 0)
(-0.188927 -0.490957 0)
(-0.185332 -0.51983 0)
(-0.181524 -0.546641 0)
(-0.17754 -0.571373 0)
(-0.173414 -0.594014 0)
(-0.169174 -0.614565 0)
(-0.164847 -0.633041 0)
(-0.160459 -0.649477 0)
(-0.156032 -0.66392 0)
(-0.151587 -0.676439 0)
(-0.147143 -0.687115 0)
(-0.142719 -0.696045 0)
(-0.138329 -0.703335 0)
(-0.133991 -0.7091 0)
(-0.129716 -0.713461 0)
(-0.125519 -0.71654 0)
(-0.121408 -0.718459 0)
(-0.117394 -0.719317 0)
(-0.200425 -0.432925 0)
(-0.19714 -0.466656 0)
(-0.193586 -0.498116 0)
(-0.189772 -0.527468 0)
(-0.185728 -0.55468 0)
(-0.181495 -0.579743 0)
(-0.177107 -0.602651 0)
(-0.172595 -0.623412 0)
(-0.167986 -0.642044 0)
(-0.163309 -0.658585 0)
(-0.158588 -0.67309 0)
(-0.153844 -0.685629 0)
(-0.149098 -0.696287 0)
(-0.14437 -0.705163 0)
(-0.139676 -0.712367 0)
(-0.135034 -0.718016 0)
(-0.130459 -0.722231 0)
(-0.125964 -0.725138 0)
(-0.121561 -0.726861 0)
(-0.117261 -0.727497 0)
(-0.205563 -0.439216 0)
(-0.202073 -0.473652 0)
(-0.1983 -0.505713 0)
(-0.194249 -0.535578 0)
(-0.189953 -0.563223 0)
(-0.185451 -0.588644 0)
(-0.180782 -0.611843 0)
(-0.175978 -0.632833 0)
(-0.171068 -0.651637 0)
(-0.166081 -0.668299 0)
(-0.161042 -0.682876 0)
(-0.155977 -0.695443 0)
(-0.150906 -0.706087 0)
(-0.145851 -0.714912 0)
(-0.14083 -0.722029 0)
(-0.135862 -0.727558 0)
(-0.130963 -0.731622 0)
(-0.126149 -0.734349 0)
(-0.121431 -0.735863 0)
(-0.116824 -0.736263 0)
(-0.210768 -0.445883 0)
(-0.207065 -0.481073 0)
(-0.203063 -0.513778 0)
(-0.198763 -0.544194 0)
(-0.194197 -0.572304 0)
(-0.18941 -0.598113 0)
(-0.18444 -0.621629 0)
(-0.179323 -0.642869 0)
(-0.174089 -0.661865 0)
(-0.168769 -0.678662 0)
(-0.16339 -0.693324 0)
(-0.157979 -0.705927 0)
(-0.152559 -0.716564 0)
(-0.147152 -0.72534 0)
(-0.141779 -0.73237 0)
(-0.13646 -0.737775 0)
(-0.131212 -0.741681 0)
(-0.126054 -0.744218 0)
(-0.120997 -0.745511 0)
(-0.116058 -0.74566 0)
(-0.21608 -0.452951 0)
(-0.212146 -0.488947 0)
(-0.207894 -0.522341 0)
(-0.203323 -0.55335 0)
(-0.198469 -0.581962 0)
(-0.193374 -0.608191 0)
(-0.188082 -0.632051 0)
(-0.182628 -0.653567 0)
(-0.177046 -0.672774 0)
(-0.171368 -0.689724 0)
(-0.165624 -0.704483 0)
(-0.159841 -0.717133 0)
(-0.154043 -0.72777 0)
(-0.148257 -0.7365 0)
(-0.142504 -0.743441 0)
(-0.136806 -0.748719 0)
(-0.131182 -0.75246 0)
(-0.125653 -0.754796 0)
(-0.12023 -0.755854 0)
(-0.114934 -0.755736 0)
(-0.221475 -0.460449 0)
(-0.217299 -0.497305 0)
(-0.212787 -0.531439 0)
(-0.207931 -0.563083 0)
(-0.202768 -0.592237 0)
(-0.197345 -0.618921 0)
(-0.191708 -0.643157 0)
(-0.185893 -0.664975 0)
(-0.179937 -0.684416 0)
(-0.173874 -0.701538 0)
(-0.167735 -0.71641 0)
(-0.161551 -0.729118 0)
(-0.155348 -0.73976 0)
(-0.149152 -0.748448 0)
(-0.142989 -0.755302 0)
(-0.136882 -0.760448 0)
(-0.130852 -0.764017 0)
(-0.124921 -0.766141 0)
(-0.119104 -0.766949 0)
(-0.113423 -0.766544 0)
(-0.226993 -0.468402 0)
(-0.222556 -0.506178 0)
(-0.21776 -0.541105 0)
(-0.212596 -0.573434 0)
(-0.207103 -0.603172 0)
(-0.201328 -0.630349 0)
(-0.19532 -0.654995 0)
(-0.189117 -0.677145 0)
(-0.182759 -0.696847 0)
(-0.176281 -0.714161 0)
(-0.169717 -0.729163 0)
(-0.163099 -0.741941 0)
(-0.156457 -0.752599 0)
(-0.149819 -0.761249 0)
(-0.143212 -0.768015 0)
(-0.136662 -0.773025 0)
(-0.130193 -0.776413 0)
(-0.123828 -0.778313 0)
(-0.117584 -0.778855 0)
(-0.111486 -0.778143 0)
(-0.232613 -0.476841 0)
(-0.227903 -0.5156 0)
(-0.22281 -0.551378 0)
(-0.217321 -0.584444 0)
(-0.211475 -0.614814 0)
(-0.205325 -0.642527 0)
(-0.198918 -0.66762 0)
(-0.192299 -0.690135 0)
(-0.185507 -0.710125 0)
(-0.178582 -0.727657 0)
(-0.171559 -0.742808 0)
(-0.164474 -0.755672 0)
(-0.157357 -0.766355 0)
(-0.15024 -0.774973 0)
(-0.143152 -0.781651 0)
(-0.136122 -0.786521 0)
(-0.129176 -0.789719 0)
(-0.122341 -0.79138 0)
(-0.115636 -0.791638 0)
(-0.109086 -0.790596 0)
(-0.238376 -0.485795 0)
(-0.233372 -0.525605 0)
(-0.227958 -0.562297 0)
(-0.222119 -0.596157 0)
(-0.215895 -0.627212 0)
(-0.20934 -0.655507 0)
(-0.202506 -0.68109 0)
(-0.195439 -0.704008 0)
(-0.18818 -0.724319 0)
(-0.180771 -0.742095 0)
(-0.173252 -0.757418 0)
(-0.165659 -0.770385 0)
(-0.158027 -0.781104 0)
(-0.15039 -0.789696 0)
(-0.142781 -0.796287 0)
(-0.13523 -0.801014 0)
(-0.127767 -0.804011 0)
(-0.120421 -0.805419 0)
(-0.113214 -0.805372 0)
(-0.106175 -0.803975 0)
(-0.244264 -0.495297 0)
(-0.238953 -0.536232 0)
(-0.233202 -0.573906 0)
(-0.226993 -0.608623 0)
(-0.220365 -0.640419 0)
(-0.213378 -0.66935 0)
(-0.206086 -0.695469 0)
(-0.198535 -0.718832 0)
(-0.190771 -0.739501 0)
(-0.18284 -0.757552 0)
(-0.174783 -0.773072 0)
(-0.16664 -0.786162 0)
(-0.158448 -0.796931 0)
(-0.150246 -0.805504 0)
(-0.142069 -0.812011 0)
(-0.133952 -0.816588 0)
(-0.125926 -0.819375 0)
(-0.118025 -0.820512 0)
(-0.110273 -0.820138 0)
(-0.102703 -0.818357 0)
(-0.250317 -0.505381 0)
(-0.244676 -0.547519 0)
(-0.238563 -0.586248 0)
(-0.231956 -0.621891 0)
(-0.224897 -0.654492 0)
(-0.217445 -0.684117 0)
(-0.209658 -0.710826 0)
(-0.201586 -0.734682 0)
(-0.193277 -0.755751 0)
(-0.18478 -0.774114 0)
(-0.176138 -0.789861 0)
(-0.167396 -0.803096 0)
(-0.158595 -0.813932 0)
(-0.149777 -0.822495 0)
(-0.14098 -0.828919 0)
(-0.132244 -0.833341 0)
(-0.123605 -0.835905 0)
(-0.115098 -0.836753 0)
(-0.106753 -0.836026 0)
(-0.0986049 -0.833829 0)
(-0.256522 -0.516078 0)
(-0.250536 -0.559504 0)
(-0.244042 -0.59937 0)
(-0.237015 -0.636015 0)
(-0.229495 -0.669493 0)
(-0.221545 -0.699878 0)
(-0.213226 -0.727238 0)
(-0.204591 -0.751641 0)
(-0.19569 -0.77316 0)
(-0.186577 -0.791876 0)
(-0.177298 -0.807884 0)
(-0.167903 -0.821291 0)
(-0.158436 -0.832212 0)
(-0.148944 -0.840777 0)
(-0.13947 -0.847119 0)
(-0.130058 -0.851382 0)
(-0.120748 -0.853708 0)
(-0.111581 -0.854245 0)
(-0.102588 -0.853135 0)
(-0.0938106 -0.850485 0)
(-0.262918 -0.527424 0)
(-0.256564 -0.572229 0)
(-0.249662 -0.61332 0)
(-0.242184 -0.651053 0)
(-0.23417 -0.685487 0)
(-0.225685 -0.716708 0)
(-0.216791 -0.744789 0)
(-0.207545 -0.769803 0)
(-0.198001 -0.791826 0)
(-0.188216 -0.810945 0)
(-0.178241 -0.827255 0)
(-0.168131 -0.840864 0)
(-0.157934 -0.851893 0)
(-0.147703 -0.860471 0)
(-0.137486 -0.866735 0)
(-0.127332 -0.870831 0)
(-0.117286 -0.872904 0)
(-0.107395 -0.873104 0)
(-0.097694 -0.871576 0)
(-0.08823 -0.868431 0)
(-0.269496 -0.539456 0)
(-0.262759 -0.585738 0)
(-0.255429 -0.628152 0)
(-0.247472 -0.667066 0)
(-0.23893 -0.702549 0)
(-0.229868 -0.734692 0)
(-0.220352 -0.763574 0)
(-0.210443 -0.789272 0)
(-0.200198 -0.811865 0)
(-0.189677 -0.831442 0)
(-0.17894 -0.848101 0)
(-0.168043 -0.861951 0)
(-0.157043 -0.873113 0)
(-0.145998 -0.881718 0)
(-0.134962 -0.887907 0)
(-0.123991 -0.891826 0)
(-0.113136 -0.893626 0)
(-0.10245 -0.893458 0)
(-0.091974 -0.891472 0)
(-0.08176 -0.887782 0)
(-0.276295 -0.552208 0)
(-0.26915 -0.600072 0)
(-0.261363 -0.643918 0)
(-0.252896 -0.684122 0)
(-0.243785 -0.720757 0)
(-0.2341 -0.753921 0)
(-0.223909 -0.783697 0)
(-0.213276 -0.810165 0)
(-0.202262 -0.833405 0)
(-0.190935 -0.853507 0)
(-0.179356 -0.87057 0)
(-0.167592 -0.884703 0)
(-0.155704 -0.896028 0)
(-0.143758 -0.904678 0)
(-0.131816 -0.910794 0)
(-0.119942 -0.914526 0)
(-0.108194 -0.916028 0)
(-0.0966322 -0.915455 0)
(-0.0853045 -0.912961 0)
(-0.0742692 -0.908665 0)
(-0.283313 -0.565716 0)
(-0.275743 -0.615278 0)
(-0.267476 -0.660677 0)
(-0.258465 -0.702293 0)
(-0.248743 -0.7402 0)
(-0.238384 -0.774501 0)
(-0.227457 -0.80528 0)
(-0.21603 -0.832617 0)
(-0.204172 -0.856594 0)
(-0.191953 -0.8773 0)
(-0.179444 -0.894831 0)
(-0.166718 -0.909298 0)
(-0.153845 -0.920821 0)
(-0.140898 -0.929535 0)
(-0.12795 -0.935581 0)
(-0.115072 -0.939111 0)
(-0.102335 -0.940284 0)
(-0.0898049 -0.939259 0)
(-0.0775389 -0.936197 0)
(-0.0656032 -0.931223 0)
(-0.290588 -0.580011 0)
(-0.282571 -0.631399 0)
(-0.273792 -0.678492 0)
(-0.264196 -0.721661 0)
(-0.253814 -0.760981 0)
(-0.242718 -0.796553 0)
(-0.230984 -0.828461 0)
(-0.218684 -0.856785 0)
(-0.205891 -0.881603 0)
(-0.192685 -0.903003 0)
(-0.179143 -0.921079 0)
(-0.165346 -0.935939 0)
(-0.151374 -0.947702 0)
(-0.137311 -0.956501 0)
(-0.123239 -0.962479 0)
(-0.109244 -0.965789 0)
(-0.0954045 -0.966594 0)
(-0.0817995 -0.96506 0)
(-0.0684959 -0.961353 0)
(-0.0555697 -0.95561 0)
(-0.298126 -0.595128 0)
(-0.289642 -0.648488 0)
(-0.28032 -0.697433 0)
(-0.270095 -0.742322 0)
(-0.258993 -0.783217 0)
(-0.247089 -0.820217 0)
(-0.234464 -0.853402 0)
(-0.221196 -0.882847 0)
(-0.207366 -0.908629 0)
(-0.193061 -0.93083 0)
(-0.178366 -0.94954 0)
(-0.163374 -0.964863 0)
(-0.148174 -0.976914 0)
(-0.132863 -0.985824 0)
(-0.117535 -0.991735 0)
(-0.102289 -0.994803 0)
(-0.0872194 -0.995191 0)
(-0.0724172 -0.993074 0)
(-0.0579629 -0.988629 0)
(-0.0439448 -0.982004 0)
(-0.305962 -0.611098 0)
(-0.29698 -0.666601 0)
(-0.287072 -0.717589 0)
(-0.276159 -0.76439 0)
(-0.26426 -0.807053 0)
(-0.251459 -0.845664 0)
(-0.237841 -0.880296 0)
(-0.223492 -0.911019 0)
(-0.208503 -0.937904 0)
(-0.192969 -0.961027 0)
(-0.176987 -0.980473 0)
(-0.160658 -0.99634 0)
(-0.144086 -1.00874 0)
(-0.127379 -1.01779 0)
(-0.110648 -1.02363 0)
(-0.094004 -1.02643 0)
(-0.0775598 -1.02634 0)
(-0.061423 -1.02355 0)
(-0.0456901 -1.01825 0)
(-0.0304657 -1.0106 0)
(-0.314097 -0.627963 0)
(-0.304582 -0.685812 0)
(-0.294026 -0.739075 0)
(-0.282344 -0.788021 0)
(-0.269551 -0.832675 0)
(-0.255734 -0.873108 0)
(-0.240994 -0.909383 0)
(-0.225426 -0.941559 0)
(-0.209133 -0.969703 0)
(-0.192221 -0.993884 0)
(-0.174799 -1.01418 0)