/*--------------------------------*- C++ -*----------------------------------*\
  =========                 |
  \\      /  F ield         | OpenFOAM: The Open Source CFD Toolbox
   \\    /   O peration     | Website:  https://openfoam.org
    \\  /    A nd           | Version:  6
     \\/     M anipulation  |
\*---------------------------------------------------------------------------*/
FoamFile
{
    version     2.0;
    format      ascii;
    class       volVectorField;
    location    "24";
    object      U;
}
// * * * * * * * * * * * * * * * * * * * * * * * * * * * * * * * * * * * * * //

dimensions      [0 1 -1 0 0 0 0];

internalField   nonuniform List<vector> 
10000
(
(0.000203519 -3.10417 0)
(-0.00130952 -4.15954 0)
(-0.00280502 -4.68346 0)
(-0.00353743 -5.04096 0)
(-0.00343933 -5.2822 0)
(-0.00302507 -5.43798 0)
(-0.00256627 -5.53421 0)
(-0.00212796 -5.59077 0)
(-0.00168262 -5.62106 0)
(-0.00122452 -5.63283 0)
(-0.000735546 -5.62954 0)
(-0.000220401 -5.61131 0)
(0.00032434 -5.57492 0)
(0.00088712 -5.51322 0)
(0.0014482 -5.41369 0)
(0.00197507 -5.25747 0)
(0.00219775 -5.01919 0)
(0.00171758 -4.66708 0)
(0.000805781 -4.14923 0)
(-0.000158812 -3.1001 0)
(0.000270839 -3.1054 0)
(-4.01282e-05 -4.15884 0)
(-0.000750222 -4.68296 0)
(-0.00142333 -5.04094 0)
(-0.00173038 -5.28269 0)
(-0.00178404 -5.43885 0)
(-0.0016987 -5.53533 0)
(-0.00153881 -5.59201 0)
(-0.00132705 -5.62238 0)
(-0.00108536 -5.63422 0)
(-0.000828608 -5.63099 0)
(-0.000556599 -5.61282 0)
(-0.000282785 -5.57651 0)
(-4.51967e-05 -5.51489 0)
(0.000160726 -5.41532 0)
(0.000289759 -5.2589 0)
(0.000261637 -5.02017 0)
(0.000134351 -4.66734 0)
(-0.000119144 -4.14903 0)
(0.000389489 -3.10233 0)
(-0.000304102 -3.10557 0)
(-0.000361711 -4.15818 0)
(-0.000373897 -4.6828 0)
(-0.000771994 -5.04077 0)
(-0.00103704 -5.28247 0)
(-0.0011744 -5.43874 0)
(-0.00120199 -5.53537 0)
(-0.00118142 -5.5921 0)
(-0.00109942 -5.62252 0)
(-0.000990622 -5.63442 0)
(-0.000855314 -5.63123 0)
(-0.000699603 -5.61302 0)
(-0.000544355 -5.57669 0)
(-0.000392223 -5.51504 0)
(-0.000254996 -5.41536 0)
(-0.000166251 -5.25883 0)
(-0.000104905 -5.01996 0)
(4.36312e-06 -4.66694 0)
(2.39388e-05 -4.14833 0)
(0.000651917 -3.10216 0)
(-0.000536058 -3.10489 0)
(-0.00019958 -4.1571 0)
(-4.44601e-06 -4.68191 0)
(-0.000115021 -5.04004 0)
(-0.000415123 -5.28192 0)
(-0.000621526 -5.43839 0)
(-0.000747382 -5.53522 0)
(-0.000835532 -5.59205 0)
(-0.000884805 -5.62254 0)
(-0.000903398 -5.63452 0)
(-0.000889816 -5.6314 0)
(-0.000845491 -5.61322 0)
(-0.0007852 -5.5769 0)
(-0.000725373 -5.51529 0)
(-0.000659239 -5.41566 0)
(-0.000638683 -5.25892 0)
(-0.000622583 -5.01975 0)
(-0.000413664 -4.66685 0)
(-0.000169813 -4.14853 0)
(0.000285703 -3.10221 0)
(-0.000311896 -3.10382 0)
(-0.000111652 -4.15639 0)
(-5.01724e-05 -4.681 0)
(-2.64272e-05 -5.03926 0)
(-0.000181221 -5.2812 0)
(-0.000390101 -5.43772 0)
(-0.000545331 -5.53467 0)
(-0.000679746 -5.59163 0)
(-0.000802241 -5.6222 0)
(-0.000883352 -5.63428 0)
(-0.000925483 -5.63128 0)
(-0.0009426 -5.6132 0)
(-0.000928101 -5.57691 0)
(-0.00089789 -5.51524 0)
(-0.000872281 -5.41545 0)
(-0.000844101 -5.25874 0)
(-0.000717717 -5.01966 0)
(-0.000460609 -4.66666 0)
(-0.000223257 -4.1484 0)
(-8.70994e-05 -3.10182 0)
(0.000306007 -3.10377 0)
(0.000153389 -4.15693 0)
(2.22953e-05 -4.68103 0)
(-5.49779e-05 -5.03877 0)
(-0.000166472 -5.28088 0)
(-0.00041398 -5.43752 0)
(-0.000569859 -5.53434 0)
(-0.0007169 -5.59131 0)
(-0.00084076 -5.62195 0)
(-0.000924865 -5.6341 0)
(-0.000977798 -5.63116 0)
(-0.000995615 -5.61315 0)
(-0.000984658 -5.57691 0)
(-0.000919675 -5.51535 0)
(-0.000862886 -5.41558 0)
(-0.000788521 -5.25863 0)
(-0.000608305 -5.01953 0)
(-0.000484389 -4.667 0)
(-0.000391443 -4.14916 0)
(-0.000532434 -3.10172 0)
(0.000403751 -3.10463 0)
(0.00024404 -4.15762 0)
(0.00013317 -4.68139 0)
(1.51102e-05 -5.03896 0)
(-0.000124124 -5.28105 0)
(-0.000330357 -5.43745 0)
(-0.000546471 -5.53412 0)
(-0.00071416 -5.59113 0)
(-0.000841656 -5.6218 0)
(-0.000929698 -5.63398 0)
(-0.000982149 -5.6311 0)
(-0.000993498 -5.61316 0)
(-0.000976737 -5.57697 0)
(-0.000890309 -5.51543 0)
(-0.000811605 -5.41576 0)
(-0.000709799 -5.25884 0)
(-0.000589268 -5.01984 0)
(-0.000496607 -4.66744 0)
(-0.000467464 -4.14978 0)
(-0.000635291 -3.10219 0)
(0.000146118 -3.10539 0)
(0.000262801 -4.15768 0)
(0.000247538 -4.6815 0)
(0.000183182 -5.0389 0)
(8.06382e-05 -5.28069 0)
(-0.000109403 -5.43716 0)
(-0.000371168 -5.53385 0)
(-0.000585029 -5.59086 0)
(-0.000747912 -5.6216 0)
(-0.000862675 -5.63383 0)
(-0.000936764 -5.63106 0)
(-0.000955955 -5.61326 0)
(-0.000921967 -5.57715 0)
(-0.000842285 -5.51568 0)
(-0.000730941 -5.41622 0)
(-0.000639025 -5.25935 0)
(-0.000551838 -5.02018 0)
(-0.00050233 -4.66798 0)
(-0.000509261 -4.15078 0)
(-0.000400165 -3.10341 0)
(-1.09327e-05 -3.10553 0)
(0.000358008 -4.1575 0)
(0.00038418 -4.6812 0)
(0.000407254 -5.03839 0)
(0.000246894 -5.28005 0)
(5.10223e-05 -5.43651 0)
(-0.000247864 -5.53331 0)
(-0.000498244 -5.59046 0)
(-0.000702048 -5.6213 0)
(-0.000852982 -5.63362 0)
(-0.000957782 -5.63093 0)
(-0.00100635 -5.61326 0)
(-0.00100244 -5.57732 0)
(-0.000967623 -5.51593 0)
(-0.000875985 -5.41649 0)
(-0.000816723 -5.25979 0)
(-0.000770419 -5.02079 0)
(-0.000656707 -4.66875 0)
(-0.000402828 -4.15133 0)
(-4.71126e-05 -3.10479 0)
(0.000163505 -3.10576 0)
(0.000462702 -4.15756 0)
(0.00043455 -4.68089 0)
(0.000386828 -5.03815 0)
(0.000221578 -5.27953 0)
(5.23072e-06 -5.43592 0)
(-0.000272884 -5.53277 0)
(-0.000512927 -5.58996 0)
(-0.000728764 -5.62091 0)
(-0.000898138 -5.63333 0)
(-0.00103627 -5.6307 0)
(-0.00112716 -5.61311 0)
(-0.00118803 -5.57727 0)
(-0.00121702 -5.5159 0)
(-0.00120122 -5.4165 0)
(-0.00113212 -5.25994 0)
(-0.00107815 -5.02088 0)
(-0.000688401 -4.66867 0)
(-0.000241523 -4.1511 0)
(0.000284438 -3.10504 0)
(0.000335511 -3.10626 0)
(0.000430161 -4.15812 0)
(0.000520309 -4.68102 0)
(0.000364584 -5.03779 0)
(0.000206592 -5.27908 0)
(-7.39551e-05 -5.43541 0)
(-0.000307777 -5.53225 0)
(-0.000525261 -5.58954 0)
(-0.000730569 -5.62055 0)
(-0.000899817 -5.633 0)
(-0.00104322 -5.63045 0)
(-0.00115626 -5.61291 0)
(-0.00123538 -5.57715 0)
(-0.00127176 -5.51579 0)
(-0.00126341 -5.41639 0)
(-0.00114878 -5.25997 0)
(-0.000972387 -5.02102 0)
(-0.000555935 -4.66873 0)
(-0.000242203 -4.15127 0)
(0.000155995 -3.10474 0)
(0.000202507 -3.10698 0)
(0.000397488 -4.1586 0)
(0.000492476 -4.6813 0)
(0.000329529 -5.03758 0)
(0.00014918 -5.27862 0)
(-0.000128726 -5.43498 0)
(-0.000345163 -5.53187 0)
(-0.000533583 -5.58921 0)
(-0.00071557 -5.62022 0)
(-0.000882642 -5.63271 0)
(-0.00102635 -5.63019 0)
(-0.00115016 -5.61271 0)
(-0.00123197 -5.57704 0)
(-0.00127298 -5.51583 0)
(-0.00121405 -5.41659 0)
(-0.00108591 -5.26035 0)
(-0.000806739 -5.02162 0)
(-0.000516484 -4.6696 0)
(-0.000248988 -4.15228 0)
(-0.000244742 -3.10483 0)
(-5.10872e-05 -3.10747 0)
(0.0002829 -4.1591 0)
(0.000379936 -4.68156 0)
(0.000372325 -5.03726 0)
(0.000170268 -5.27817 0)
(-3.13241e-05 -5.43457 0)
(-0.000256029 -5.5314 0)
(-0.000469564 -5.58875 0)
(-0.000676364 -5.61985 0)
(-0.00087216 -5.63238 0)
(-0.00103515 -5.6299 0)
(-0.0011892 -5.61249 0)
(-0.00129738 -5.57689 0)
(-0.00136077 -5.51585 0)
(-0.00128522 -5.41683 0)
(-0.00113513 -5.26078 0)
(-0.000845689 -5.02225 0)
(-0.000576525 -4.67058 0)
(-0.000226467 -4.15313 0)
(-0.000297764 -3.10503 0)
(-0.000101408 -3.1077 0)
(0.000218946 -4.15909 0)
(0.000346487 -4.68123 0)
(0.000448457 -5.03687 0)
(0.00021454 -5.27756 0)
(4.47476e-05 -5.43391 0)
(-0.000205409 -5.53087 0)
(-0.0004506 -5.58825 0)
(-0.000688475 -5.61938 0)
(-0.000905492 -5.63196 0)
(-0.00110115 -5.62952 0)
(-0.0012633 -5.61215 0)
(-0.00139954 -5.57665 0)
(-0.0014543 -5.51579 0)
(-0.00139896 -5.41703 0)
(-0.00118081 -5.26131 0)
(-0.000891761 -5.02297 0)
(-0.000599399 -4.67125 0)
(-0.000296446 -4.1536 0)
(-0.000191377 -3.10532 0)
(0.000277259 -3.10823 0)
(0.000439241 -4.15952 0)
(0.000406722 -4.68135 0)
(0.000338621 -5.03687 0)
(0.00015376 -5.27733 0)
(-5.42728e-05 -5.43346 0)
(-0.00025982 -5.53032 0)
(-0.000505735 -5.58769 0)
(-0.000739677 -5.61887 0)
(-0.000957069 -5.63154 0)
(-0.00115373 -5.62914 0)
(-0.00131988 -5.61182 0)
(-0.00146179 -5.57643 0)
(-0.00149959 -5.51571 0)
(-0.00148156 -5.41715 0)
(-0.00126181 -5.26156 0)
(-0.000950028 -5.02353 0)
(-0.000613364 -4.67177 0)
(-0.000254067 -4.15385 0)
(-0.000105807 -3.10555 0)
(0.000395519 -3.10904 0)
(0.000345212 -4.15969 0)
(0.0005593 -4.68135 0)
(0.000466555 -5.03685 0)
(0.000295547 -5.27731 0)
(4.65349e-05 -5.43314 0)
(-0.000222211 -5.52984 0)
(-0.000497968 -5.5872 0)
(-0.000750311 -5.6184 0)
(-0.00097115 -5.63113 0)
(-0.00116563 -5.6288 0)
(-0.00132952 -5.61153 0)
(-0.00144846 -5.5762 0)
(-0.00150774 -5.51565 0)
(-0.00146441 -5.41731 0)
(-0.00131846 -5.26183 0)
(-0.000982301 -5.02407 0)
(-0.000585445 -4.67241 0)
(-0.000221959 -4.15415 0)
(-3.75639e-05 -3.10559 0)
(0.00029993 -3.10978 0)
(0.000238295 -4.15966 0)
(0.000459498 -4.68147 0)
(0.000507316 -5.03684 0)
(0.000355877 -5.277 0)
(0.000105892 -5.4327 0)
(-0.000213172 -5.52928 0)
(-0.000521994 -5.58664 0)
(-0.000804442 -5.61794 0)
(-0.00104964 -5.63075 0)
(-0.00125436 -5.6285 0)
(-0.00141957 -5.6113 0)
(-0.00151982 -5.5761 0)
(-0.00155545 -5.51581 0)
(-0.00146108 -5.41784 0)
(-0.00126845 -5.26277 0)
(-0.000933432 -5.02515 0)
(-0.000573458 -4.67365 0)
(-0.000381387 -4.15537 0)
(-0.000123268 -3.10641 0)
(0.000291711 -3.11056 0)
(0.000260666 -4.16016 0)
(0.000510807 -4.68165 0)
(0.000635284 -5.03689 0)
(0.000565875 -5.27689 0)
(0.00026618 -5.43225 0)
(-8.26091e-05 -5.52869 0)
(-0.000461426 -5.58602 0)
(-0.000818198 -5.61735 0)
(-0.00113071 -5.63026 0)
(-0.00139725 -5.62811 0)
(-0.00160267 -5.61104 0)
(-0.00173295 -5.576 0)
(-0.00179515 -5.51592 0)
(-0.00175382 -5.41822 0)
(-0.00155799 -5.26358 0)
(-0.00126195 -5.02634 0)
(-0.000821907 -4.67488 0)
(-0.000208172 -4.15632 0)
(-2.25965e-05 -3.10745 0)
(0.000303404 -3.11079 0)
(0.000265631 -4.16054 0)
(0.000627539 -4.68192 0)
(0.000814228 -5.03653 0)
(0.000825266 -5.27643 0)
(0.000525398 -5.43173 0)
(0.000128463 -5.52793 0)
(-0.000314263 -5.58521 0)
(-0.000755921 -5.61658 0)
(-0.00114701 -5.62955 0)
(-0.0014818 -5.62751 0)
(-0.00175733 -5.61056 0)
(-0.00195829 -5.57566 0)
(-0.00207053 -5.51576 0)
(-0.00211732 -5.41826 0)
(-0.00193302 -5.26389 0)
(-0.00155879 -5.02693 0)
(-0.000872681 -4.67529 0)
(-4.72763e-05 -4.1561 0)
(0.000222077 -3.10729 0)
(0.000411031 -3.11029 0)
(0.000189477 -4.16081 0)
(0.000627748 -4.68206 0)
(0.000932298 -5.0365 0)
(0.000954264 -5.27603 0)
(0.00072386 -5.43093 0)
(0.000301598 -5.52695 0)
(-0.000195532 -5.58423 0)
(-0.000682057 -5.61563 0)
(-0.00112466 -5.6287 0)
(-0.00151138 -5.6268 0)
(-0.00182488 -5.61003 0)
(-0.00205743 -5.57528 0)
(-0.00218948 -5.51558 0)
(-0.00219922 -5.41829 0)
(-0.00200274 -5.26414 0)
(-0.00152521 -5.02755 0)
(-0.000833524 -4.67592 0)
(-0.000250362 -4.15672 0)
(-0.000114892 -3.10677 0)
(0.000516706 -3.11009 0)
(0.000225271 -4.16165 0)
(0.000566521 -4.68262 0)
(0.000870851 -5.03672 0)
(0.000936456 -5.27561 0)
(0.000756407 -5.43012 0)
(0.000351098 -5.52602 0)
(-0.000152852 -5.58321 0)
(-0.00064944 -5.61461 0)
(-0.00113034 -5.62778 0)
(-0.00154728 -5.62602 0)
(-0.00189177 -5.6094 0)
(-0.002138 -5.5749 0)
(-0.00224549 -5.51549 0)
(-0.00220107 -5.41857 0)
(-0.00195611 -5.26494 0)
(-0.0014056 -5.02872 0)
(-0.000890405 -4.67734 0)
(-0.00040746 -4.15816 0)
(-0.000590929 -3.10687 0)
(0.000430298 -3.11025 0)
(0.000354414 -4.16293 0)
(0.000692691 -4.68363 0)
(0.000919295 -5.03712 0)
(0.0009849 -5.27535 0)
(0.000798073 -5.42941 0)
(0.000389764 -5.52511 0)
(-0.000112401 -5.58215 0)
(-0.000634929 -5.61356 0)
(-0.00114416 -5.62683 0)
(-0.00160664 -5.62519 0)
(-0.00199213 -5.60873 0)
(-0.00228023 -5.57442 0)
(-0.002415 -5.51537 0)
(-0.00238186 -5.41889 0)
(-0.00209867 -5.26547 0)
(-0.00158763 -5.02966 0)
(-0.0010546 -4.6787 0)
(-0.000411079 -4.15945 0)
(-0.000518236 -3.10738 0)
(0.000220337 -3.1108 0)
(0.000458993 -4.16373 0)
(0.000975142 -4.68454 0)
(0.0011742 -5.03757 0)
(0.00119192 -5.27509 0)
(0.000944494 -5.42874 0)
(0.000496049 -5.52419 0)
(-2.9052e-05 -5.58114 0)
(-0.000581619 -5.61252 0)
(-0.00111166 -5.62584 0)
(-0.00160092 -5.62432 0)
(-0.0020122 -5.60803 0)
(-0.00232645 -5.57397 0)
(-0.00251727 -5.51517 0)
(-0.00250237 -5.41903 0)
(-0.00225405 -5.26612 0)
(-0.00179725 -5.03071 0)
(-0.00119047 -4.67969 0)
(-0.000518198 -4.16017 0)
(-0.000344876 -3.10773 0)
(0.000193582 -3.11144 0)
(0.000509059 -4.16454 0)
(0.00110986 -4.68554 0)
(0.00137513 -5.03823 0)
(0.00137075 -5.27504 0)
(0.00110671 -5.42804 0)
(0.000653348 -5.52319 0)
(9.67666e-05 -5.58007 0)
(-0.000470875 -5.61148 0)
(-0.0010375 -5.62484 0)
(-0.00156287 -5.6234 0)
(-0.00201001 -5.60727 0)
(-0.00235396 -5.57349 0)
(-0.00257723 -5.51499 0)
(-0.00257929 -5.41925 0)
(-0.00232937 -5.26704 0)
(-0.00184141 -5.03211 0)
(-0.00123562 -4.68111 0)
(-0.000635951 -4.16152 0)
(-0.000413459 -3.10857 0)
(0.000117305 -3.11235 0)
(0.00045459 -4.16556 0)
(0.00124855 -4.68653 0)
(0.00175254 -5.03885 0)
(0.00173816 -5.27488 0)
(0.00143222 -5.42723 0)
(0.000935082 -5.52208 0)
(0.000316482 -5.57884 0)
(-0.000324211 -5.61028 0)
(-0.000957339 -5.62369 0)
(-0.0015415 -5.62239 0)
(-0.0020577 -5.60646 0)
(-0.00246976 -5.5729 0)
(-0.0027538 -5.5147 0)
(-0.00282672 -5.41947 0)
(-0.00263347 -5.26799 0)
(-0.00214912 -5.03365 0)
(-0.00142495 -4.68279 0)
(-0.000611935 -4.16298 0)
(-0.000369348 -3.1098 0)
(4.52101e-05 -3.11295 0)
(0.000606373 -4.16669 0)
(0.00144947 -4.68727 0)
(0.00208899 -5.03913 0)
(0.00212092 -5.27467 0)
(0.00180094 -5.42636 0)
(0.00122445 -5.52082 0)
(0.000529376 -5.57747 0)
(-0.000210802 -5.60889 0)
(-0.00092637 -5.62234 0)
(-0.00159656 -5.62117 0)
(-0.0021931 -5.60541 0)
(-0.00268786 -5.57213 0)
(-0.00304604 -5.51429 0)
(-0.00318678 -5.41956 0)
(-0.00305227 -5.26885 0)
(-0.00255946 -5.03507 0)
(-0.00170042 -4.68436 0)
(-0.000677599 -4.16441 0)
(-0.000184374 -3.1108 0)
(0.00029637 -3.11337 0)
(0.000708339 -4.16792 0)
(0.00158037 -4.6883 0)
(0.00223857 -5.03957 0)
(0.00238107 -5.2743 0)
(0.00209007 -5.42546 0)
(0.00145801 -5.5195 0)
(0.000707514 -5.57589 0)
(-0.000112853 -5.60727 0)
(-0.000920577 -5.62081 0)
(-0.00167598 -5.61976 0)
(-0.00237081 -5.60419 0)
(-0.0029662 -5.57115 0)
(-0.0034083 -5.51367 0)
(-0.00361342 -5.41951 0)
(-0.00349915 -5.2694 0)
(-0.00292464 -5.03614 0)
(-0.00200947 -4.68596 0)
(-0.000767772 -4.16603 0)
(-0.00018738 -3.11127 0)
(0.000700062 -3.11414 0)
(0.000889481 -4.16984 0)
(0.00174615 -4.6899 0)
(0.00240508 -5.0403 0)
(0.00261687 -5.27408 0)
(0.00232358 -5.42453 0)
(0.00169923 -5.51803 0)
(0.000906628 -5.57419 0)
(2.16201e-05 -5.60555 0)
(-0.000859817 -5.61911 0)
(-0.00169837 -5.61815 0)
(-0.00247476 -5.60274 0)
(-0.0031494 -5.56997 0)
(-0.0036642 -5.5129 0)
(-0.00391399 -5.41931 0)
(-0.00378347 -5.26987 0)
(-0.00319672 -5.03729 0)
(-0.00216745 -4.6876 0)
(-0.000865771 -4.16771 0)
(-0.000379 -3.11153 0)
(0.000844035 -3.11523 0)
(0.000999751 -4.17192 0)
(0.00205961 -4.6917 0)
(0.00275362 -5.04124 0)
(0.0029838 -5.27406 0)
(0.00266363 -5.42372 0)
(0.00201017 -5.5166 0)
(0.00115772 -5.57243 0)
(0.000213311 -5.6037 0)
(-0.000735158 -5.61731 0)
(-0.00164592 -5.61644 0)
(-0.00248438 -5.6012 0)
(-0.003213 -5.56871 0)
(-0.00374536 -5.51206 0)
(-0.00401989 -5.41903 0)
(-0.00385985 -5.2704 0)
(-0.003251 -5.03873 0)
(-0.00223061 -4.68968 0)
(-0.00104801 -4.17017 0)
(-0.000701108 -3.11194 0)
(0.000786855 -3.11649 0)
(0.00112147 -4.17412 0)
(0.00232265 -4.69364 0)
(0.00307652 -5.0422 0)
(0.00333279 -5.27399 0)
(0.00301598 -5.42278 0)
(0.00233625 -5.51508 0)
(0.00143683 -5.57061 0)
(0.000430486 -5.60175 0)
(-0.000585851 -5.61536 0)
(-0.00157537 -5.61458 0)
(-0.00247999 -5.59953 0)
(-0.00326035 -5.56734 0)
(-0.00384553 -5.51114 0)
(-0.00415778 -5.41878 0)
(-0.00402294 -5.271 0)
(-0.00341203 -5.04046 0)
(-0.00245227 -4.69225 0)
(-0.00119092 -4.17286 0)
(-0.000823228 -3.11291 0)
(0.000664514 -3.11742 0)
(0.00118571 -4.17611 0)
(0.00256887 -4.6954 0)
(0.00346096 -5.04318 0)
(0.0037488 -5.2738 0)
(0.00344836 -5.42159 0)
(0.00273152 -5.5133 0)
(0.00174767 -5.56857 0)
(0.000659958 -5.5996 0)
(-0.000453179 -5.61322 0)
(-0.00152788 -5.6126 0)
(-0.00251829 -5.5978 0)
(-0.0033547 -5.56595 0)
(-0.00399549 -5.51029 0)
(-0.00433519 -5.41867 0)
(-0.00423987 -5.27183 0)
(-0.0036697 -5.04235 0)
(-0.00268526 -4.69496 0)
(-0.00138823 -4.17575 0)
(-0.000646985 -3.11472 0)
(0.000578316 -3.11837 0)
(0.00138282 -4.17833 0)
(0.00276444 -4.69716 0)
(0.00380391 -5.04406 0)
(0.00408501 -5.27343 0)
(0.00377214 -5.42017 0)
(0.0030012 -5.51142 0)
(0.00195398 -5.56638 0)
(0.000787252 -5.59725 0)
(-0.000419804 -5.61091 0)
(-0.0015937 -5.61044 0)
(-0.00267486 -5.5959 0)
(-0.00359204 -5.5644 0)
(-0.00430216 -5.50928 0)
(-0.00471655 -5.41846 0)
(-0.00468475 -5.27267 0)
(-0.00414442 -5.04431 0)
(-0.00303188 -4.69784 0)
(-0.00146052 -4.1788 0)
(-0.000353326 -3.11678 0)
(0.000903528 -3.12063 0)
(0.00183359 -4.18189 0)
(0.0030821 -4.69985 0)
(0.00398782 -5.04568 0)
(0.00424438 -5.27374 0)
(0.00393054 -5.41926 0)
(0.00313201 -5.50972 0)
(0.0020873 -5.56423 0)
(0.000864651 -5.59485 0)
(-0.000414518 -5.60846 0)
(-0.001682 -5.60809 0)
(-0.00287117 -5.59376 0)
(-0.00390357 -5.56258 0)
(-0.00471431 -5.508 0)
(-0.00521741 -5.41792 0)
(-0.00523812 -5.27304 0)
(-0.00465672 -5.04585 0)
(-0.00332946 -4.70021 0)
(-0.00148478 -4.18111 0)
(-0.000120871 -3.11826 0)
(0.000841998 -3.12334 0)
(0.0017842 -4.18536 0)
(0.00353703 -4.70301 0)
(0.00453545 -5.04755 0)
(0.00482845 -5.27407 0)
(0.00447044 -5.41841 0)
(0.00360763 -5.50797 0)
(0.00246001 -5.56192 0)
(0.00114129 -5.59226 0)
(-0.000242362 -5.60579 0)
(-0.00162662 -5.60549 0)
(-0.00292055 -5.59139 0)
(-0.00406606 -5.5606 0)
(-0.00496225 -5.50656 0)
(-0.00548317 -5.41719 0)
(-0.00554684 -5.27339 0)
(-0.00486335 -5.04752 0)
(-0.00347735 -4.70286 0)
(-0.00175705 -4.18401 0)
(-0.00039382 -3.1197 0)
(0.000435411 -3.12511 0)
(0.00168794 -4.1878 0)
(0.00376423 -4.70529 0)
(0.00512597 -5.04866 0)
(0.00554207 -5.27377 0)
(0.00518494 -5.41697 0)
(0.00424072 -5.50578 0)
(0.00295831 -5.55926 0)
(0.00151355 -5.58933 0)
(-7.72615e-06 -5.60282 0)
(-0.00151628 -5.60262 0)
(-0.00293324 -5.5888 0)
(-0.00418311 -5.55849 0)
(-0.00515376 -5.50506 0)
(-0.0057312 -5.41666 0)
(-0.00580284 -5.2741 0)
(-0.00507785 -5.04955 0)
(-0.00375002 -4.70621 0)
(-0.00198079 -4.18785 0)
(-0.000843494 -3.12172 0)
(0.00063702 -3.12635 0)
(0.00194022 -4.19095 0)
(0.00393212 -4.70794 0)
(0.00537492 -5.05001 0)
(0.00592979 -5.27341 0)
(0.00559577 -5.41538 0)
(0.00464468 -5.50341 0)
(0.00330768 -5.55633 0)
(0.00176658 -5.58616 0)
(0.000135013 -5.59958 0)
(-0.0014853 -5.59951 0)
(-0.00302337 -5.58596 0)
(-0.00437219 -5.55609 0)
(-0.00544406 -5.50339 0)
(-0.00610361 -5.41601 0)
(-0.00614277 -5.27475 0)
(-0.00544844 -5.05172 0)
(-0.0040334 -4.70945 0)
(-0.00203657 -4.19126 0)
(-0.000947353 -3.12413 0)
(0.00107674 -3.12836 0)
(0.00221558 -4.19524 0)
(0.00415557 -4.71153 0)
(0.00553691 -5.0519 0)
(0.0061551 -5.27359 0)
(0.00586622 -5.41411 0)
(0.00494862 -5.50106 0)
(0.00358379 -5.55337 0)
(0.00196785 -5.58287 0)
(0.000245521 -5.59618 0)
(-0.00147399 -5.59621 0)
(-0.00311086 -5.58293 0)
(-0.00456451 -5.55354 0)
(-0.00571648 -5.5016 0)
(-0.0064158 -5.41521 0)
(-0.00648607 -5.27528 0)
(-0.00575544 -5.05382 0)
(-0.00422892 -4.71268 0)
(-0.00219044 -4.19493 0)
(-0.000931045 -3.12666 0)
(0.00112583 -3.13122 0)
(0.002374 -4.1996 0)
(0.00445914 -4.71527 0)
(0.00586885 -5.05411 0)
(0.00647968 -5.27399 0)
(0.00621207 -5.41294 0)
(0.00528531 -5.49876 0)
(0.00387277 -5.55034 0)
(0.00218538 -5.57947 0)
(0.000364116 -5.59267 0)
(-0.00146716 -5.59278 0)
(-0.00320237 -5.57978 0)
(-0.00475897 -5.55087 0)
(-0.00598059 -5.49967 0)
(-0.00672754 -5.4145 0)
(-0.00681706 -5.27608 0)
(-0.00609878 -5.05614 0)
(-0.00448833 -4.71646 0)
(-0.00237227 -4.19931 0)
(-0.000945178 -3.12965 0)
(0.000993821 -3.13469 0)
(0.00263004 -4.20413 0)
(0.00481205 -4.71924 0)
(0.00627506 -5.05647 0)
(0.00688903 -5.27457 0)
(0.006612 -5.41188 0)
(0.00565029 -5.49645 0)
(0.00418295 -5.5472 0)
(0.00240268 -5.57587 0)
(0.000478011 -5.58892 0)
(-0.00147313 -5.5891 0)
(-0.00333491 -5.57639 0)
(-0.00498905 -5.54804 0)
(-0.00631003 -5.49771 0)
(-0.00713314 -5.41376 0)
(-0.0072138 -5.27686 0)
(-0.00652458 -5.05864 0)
(-0.0048045 -4.72046 0)
(-0.00253728 -4.20409 0)
(-0.000949869 -3.13285 0)
(0.00085828 -3.13816 0)
(0.0027356 -4.20853 0)
(0.00517233 -4.72305 0)
(0.00685233 -5.05879 0)
(0.00751478 -5.27511 0)
(0.00723487 -5.41072 0)
(0.00619247 -5.49393 0)
(0.00462346 -5.5438 0)
(0.00271451 -5.57198 0)
(0.000653982 -5.58484 0)
(-0.00144373 -5.58509 0)
(-0.00345364 -5.57267 0)
(-0.00523652 -5.54485 0)
(-0.00668667 -5.49536 0)
(-0.00758967 -5.41256 0)
(-0.00774039 -5.27735 0)
(-0.006989 -5.06101 0)
(-0.00514028 -4.72419 0)
(-0.00263755 -4.20841 0)
(-0.000929099 -3.13554 0)
(0.000842153 -3.14102 0)
(0.00281503 -4.21268 0)
(0.00543203 -4.72648 0)
(0.00736957 -5.0607 0)
(0.00812786 -5.27527 0)
(0.00783974 -5.40925 0)
(0.00673712 -5.49112 0)
(0.00506418 -5.54011 0)
(0.00304597 -5.56777 0)
(0.000863087 -5.58043 0)
(-0.00135478 -5.58074 0)
(-0.00348219 -5.56862 0)
(-0.00539393 -5.54134 0)
(-0.00692834 -5.49269 0)
(-0.00791198 -5.41113 0)
(-0.00811206 -5.27759 0)
(-0.00729935 -5.06296 0)
(-0.00536432 -4.72756 0)
(-0.00279379 -4.21257 0)
(-0.00104989 -3.13769 0)
(0.00129855 -3.14405 0)
(0.00313025 -4.21769 0)
(0.00559207 -4.73048 0)
(0.00754581 -5.06305 0)
(0.0084018 -5.27567 0)
(0.00819091 -5.40774 0)
(0.00708693 -5.4882 0)
(0.00537378 -5.53627 0)
(0.00329667 -5.56342 0)
(0.00103935 -5.57588 0)
(-0.0012513 -5.57625 0)
(-0.00344233 -5.56447 0)
(-0.00540234 -5.53783 0)
(-0.00696722 -5.49012 0)
(-0.00793348 -5.40996 0)
(-0.00811054 -5.27822 0)
(-0.00727865 -5.06555 0)
(-0.00550132 -4.73191 0)
(-0.00318594 -4.21803 0)
(-0.00151551 -3.14092 0)
(0.00159675 -3.14776 0)
(0.00324159 -4.22319 0)
(0.00588345 -4.73501 0)
(0.00784658 -5.06583 0)
(0.00873716 -5.27628 0)
(0.00853461 -5.40639 0)
(0.00738915 -5.48531 0)
(0.00562603 -5.53236 0)
(0.0034814 -5.55899 0)
(0.00115309 -5.57125 0)
(-0.00120911 -5.5717 0)
(-0.00348112 -5.56027 0)
(-0.00551046 -5.53431 0)
(-0.00714131 -5.4877 0)
(-0.00814913 -5.40902 0)
(-0.00835776 -5.27924 0)
(-0.00758903 -5.06878 0)
(-0.00589227 -4.73715 0)
(-0.00336982 -4.22422 0)
(-0.00160445 -3.14574 0)
(0.00156297 -3.15201 0)
(0.00344476 -4.22889 0)
(0.00616581 -4.73991 0)
(0.00814914 -5.06891 0)
(0.00904426 -5.27708 0)
(0.0088122 -5.40503 0)
(0.00763689 -5.48237 0)
(0.00582103 -5.52842 0)
(0.00361407 -5.55448 0)
(0.00120701 -5.5665 0)
(-0.00125562 -5.56699 0)
(-0.00363179 -5.55588 0)
(-0.00579007 -5.53055 0)
(-0.00754194 -5.48496 0)
(-0.00868411 -5.40781 0)
(-0.00899433 -5.27994 0)
(-0.00827382 -5.07164 0)
(-0.00637165 -4.74187 0)
(-0.00340213 -4.22948 0)
(-0.00108075 -3.15059 0)
(0.00144696 -3.15672 0)
(0.00354609 -4.23487 0)
(0.00654179 -4.74518 0)
(0.0086118 -5.07222 0)
(0.00949025 -5.27794 0)
(0.00921384 -5.40369 0)
(0.00797319 -5.47939 0)
(0.00608667 -5.52435 0)
(0.00379828 -5.54978 0)
(0.00129363 -5.56152 0)
(-0.00127877 -5.562 0)
(-0.00378193 -5.55116 0)
(-0.0060666 -5.52643 0)
(-0.00795537 -5.48186 0)
(-0.0092166 -5.4062 0)
(-0.00960929 -5.28021 0)
(-0.00883729 -5.07405 0)
(-0.00667027 -4.74616 0)
(-0.00350397 -4.23443 0)
(-0.000875656 -3.15469 0)
(0.00122 -3.16094 0)
(0.00359106 -4.24045 0)
(0.00689858 -4.75016 0)
(0.00917478 -5.07525 0)
(0.0100973 -5.27851 0)
(0.00975072 -5.40205 0)
(0.00843656 -5.47612 0)
(0.00645584 -5.52002 0)
(0.00406855 -5.54481 0)
(0.00145717 -5.55625 0)
(-0.00123147 -5.55672 0)
(-0.00385619 -5.54615 0)
(-0.00625361 -5.52203 0)
(-0.00824887 -5.47851 0)
(-0.00958171 -5.40437 0)
(-0.00998169 -5.2804 0)
(-0.00912817 -5.07659 0)
(-0.00684462 -4.75083 0)
(-0.00375484 -4.24019 0)
(-0.00127612 -3.15844 0)
(0.00129707 -3.1648 0)
(0.00378732 -4.24632 0)
(0.0070865 -4.75517 0)
(0.00950109 -5.0781 0)
(0.0105362 -5.27889 0)
(0.0101947 -5.40023 0)
(0.00884636 -5.47263 0)
(0.00679776 -5.51543 0)
(0.00432338 -5.5396 0)
(0.00161509 -5.55075 0)
(-0.00117028 -5.55122 0)
(-0.0038912 -5.54094 0)
(-0.00637713 -5.51748 0)
(-0.00843377 -5.47507 0)
(-0.0098023 -5.40255 0)
(-0.0101947 -5.28078 0)
(-0.00929812 -5.07948 0)
(-0.00706886 -4.75596 0)
(-0.00404681 -4.24665 0)
(-0.00174617 -3.16273 0)
(0.00159084 -3.16913 0)
(0.00406532 -4.25301 0)
(0.00736868 -4.76068 0)
(0.00975906 -5.08126 0)
(0.0108086 -5.27943 0)
(0.0104874 -5.39844 0)
(0.00911879 -5.46911 0)
(0.00703239 -5.51079 0)
(0.00449923 -5.5343 0)
(0.00172247 -5.54515 0)
(-0.00113812 -5.5456 0)
(-0.00392956 -5.53562 0)
(-0.00648605 -5.51284 0)
(-0.00859656 -5.47157 0)
(-0.0100088 -5.40077 0)
(-0.0104161 -5.28125 0)
(-0.00950777 -5.08253 0)
(-0.00731324 -4.76137 0)
(-0.00414263 -4.25324 0)
(-0.00183869 -3.16757 0)
(0.00183259 -3.17449 0)
(0.00444598 -4.26032 0)
(0.00775538 -4.76686 0)
(0.0100424 -5.08499 0)
(0.0110203 -5.28034 0)
(0.0106814 -5.39694 0)
(0.00930573 -5.46577 0)
(0.00720651 -5.50623 0)
(0.00463584 -5.52901 0)
(0.00180575 -5.53951 0)
(-0.0011175 -5.53994 0)
(-0.00397382 -5.53026 0)
(-0.00658949 -5.50816 0)
(-0.00874935 -5.46806 0)
(-0.0101955 -5.39909 0)
(-0.0106377 -5.28192 0)
(-0.00974681 -5.08588 0)
(-0.00754869 -4.76713 0)
(-0.00432222 -4.26012 0)
(-0.00175596 -3.17333 0)
(0.00168051 -3.18003 0)
(0.00443562 -4.26738 0)
(0.00808381 -4.77296 0)
(0.0105212 -5.08867 0)
(0.0114913 -5.2812 0)
(0.0111233 -5.39532 0)
(0.00968221 -5.46231 0)
(0.00750357 -5.50152 0)
(0.00483943 -5.52355 0)
(0.00190335 -5.53367 0)
(-0.00113143 -5.53408 0)
(-0.00409651 -5.52472 0)
(-0.00681166 -5.50333 0)
(-0.00907131 -5.46446 0)
(-0.0105998 -5.39734 0)
(-0.0110962 -5.28267 0)
(-0.0102335 -5.08941 0)
(-0.00792323 -4.77312 0)
(-0.00444956 -4.2672 0)
(-0.00160241 -3.17948 0)
(0.0013448 -3.18487 0)
(0.00443275 -4.27385 0)
(0.00827557 -4.77836 0)
(0.0109355 -5.09167 0)
(0.0119754 -5.2814 0)
(0.0116016 -5.39319 0)
(0.0100962 -5.45842 0)
(0.00782038 -5.49642 0)
(0.00503762 -5.5177 0)
(0.00196855 -5.52747 0)
(-0.00120216 -5.52785 0)
(-0.00430754 -5.51881 0)
(-0.00716229 -5.49813 0)
(-0.00954591 -5.46048 0)
(-0.0111864 -5.39519 0)
(-0.0117207 -5.28293 0)
(-0.0108232 -5.09248 0)
(-0.00826207 -4.7786 0)
(-0.00445136 -4.27367 0)
(-0.00137959 -3.18498 0)
(0.00152826 -3.19022 0)
(0.00479467 -4.28127 0)
(0.00855074 -4.78434 0)
(0.0111779 -5.09499 0)
(0.0121713 -5.28177 0)
(0.0117754 -5.39104 0)
(0.0102625 -5.45444 0)
(0.00795994 -5.49119 0)
(0.00512577 -5.51168 0)
(0.00198297 -5.52104 0)
(-0.0012785 -5.52136 0)
(-0.00447896 -5.51262 0)
(-0.00743248 -5.49264 0)
(-0.00989721 -5.45618 0)
(-0.0115916 -5.39267 0)
(-0.0121373 -5.28287 0)
(-0.0111673 -5.09539 0)
(-0.00846138 -4.7841 0)
(-0.00465491 -4.28044 0)
(-0.00157793 -3.18983 0)
(0.00191159 -3.19689 0)
(0.00512043 -4.28979 0)
(0.00891465 -4.79135 0)
(0.0114711 -5.09916 0)
(0.0123874 -5.28274 0)
(0.0119402 -5.38937 0)
(0.0104106 -5.45078 0)
(0.00809745 -5.48611 0)
(0.00523903 -5.5057 0)
(0.0020549 -5.51459 0)
(-0.00125689 -5.51483 0)
(-0.00451202 -5.50638 0)
(-0.00751247 -5.48712 0)
(-0.0100169 -5.45191 0)
(-0.0117404 -5.3903 0)
(-0.0123166 -5.28306 0)
(-0.0113251 -5.09869 0)
(-0.00866306 -4.79025 0)
(-0.0049126 -4.28818 0)
(-0.00204257 -3.19504 0)
(0.0018072 -3.20356 0)
(0.00511678 -4.29769 0)
(0.0092724 -4.798 0)
(0.0120234 -5.10297 0)
(0.0129786 -5.28346 0)
(0.0124653 -5.38749 0)
(0.0108404 -5.44695 0)
(0.00842846 -5.48089 0)
(0.00547795 -5.49959 0)
(0.00220664 -5.50803 0)
(-0.00118775 -5.50821 0)
(-0.00450872 -5.5001 0)
(-0.00755257 -5.48162 0)
(-0.0100841 -5.44774 0)
(-0.0118182 -5.38814 0)
(-0.0123945 -5.28368 0)
(-0.0114315 -5.1026 0)
(-0.00889835 -4.79723 0)
(-0.00515772 -4.29672 0)
(-0.00227701 -3.20145 0)
(0.00165826 -3.20943 0)
(0.00519331 -4.30504 0)
(0.00952172 -4.80402 0)
(0.0125028 -5.10613 0)
(0.0135431 -5.28355 0)
(0.012973 -5.38511 0)
(0.0112466 -5.4427 0)
(0.00871924 -5.47532 0)
(0.00565322 -5.49319 0)
(0.00227162 -5.50122 0)
(-0.00122563 -5.50139 0)
(-0.00464283 -5.49366 0)
(-0.00777541 -5.476 0)
(-0.0103932 -5.44349 0)
(-0.0122191 -5.38593 0)
(-0.0128633 -5.28428 0)
(-0.011978 -5.10664 0)
(-0.00936351 -4.80435 0)
(-0.00519663 -4.30515 0)
(-0.0020494 -3.2085 0)
(0.00207502 -3.21575 0)
(0.00555477 -4.31369 0)
(0.00971491 -4.81093 0)
(0.0126773 -5.10982 0)
(0.01377 -5.28392 0)
(0.0131661 -5.38274 0)
(0.0114083 -5.43835 0)
(0.00881026 -5.4696 0)
(0.00567159 -5.4866 0)
(0.00220315 -5.4942 0)
(-0.00139204 -5.49434 0)
(-0.00491591 -5.48696 0)
(-0.00816416 -5.47009 0)
(-0.0109108 -5.43889 0)
(-0.012855 -5.38333 0)
(-0.0135738 -5.2845 0)
(-0.0126708 -5.11028 0)
(-0.009767 -4.81099 0)
(-0.00521115 -4.313 0)
(-0.00167224 -3.21519 0)
(0.00230869 -3.22289 0)
(0.00562827 -4.32296 0)
(0.0100282 -4.81849 0)
(0.0130189 -5.11397 0)
(0.0141207 -5.28455 0)
(0.0134841 -5.38043 0)
(0.0116386 -5.43397 0)
(0.00894368 -5.46381 0)
(0.00571176 -5.47989 0)
(0.00214683 -5.48701 0)
(-0.00154682 -5.48708 0)
(-0.00517911 -5.48002 0)
(-0.00854307 -5.46393 0)
(-0.0113993 -5.43405 0)
(-0.0134384 -5.38049 0)
(-0.0142143 -5.28452 0)
(-0.0132504 -5.11387 0)
(-0.0101385 -4.81784 0)
(-0.00546444 -4.32142 0)
(-0.0017932 -3.2215 0)
(0.00217591 -3.23028 0)
(0.00570592 -4.33191 0)
(0.0104271 -4.82592 0)
(0.0135444 -5.11803 0)
(0.0146113 -5.28501 0)
(0.0139141 -5.37792 0)
(0.0119614 -5.42936 0)
(0.00914979 -5.45781 0)
(0.00580531 -5.473 0)
(0.00213574 -5.47966 0)
(-0.00166196 -5.47966 0)
(-0.00539365 -5.47295 0)
(-0.00885441 -5.45766 0)
(-0.0118089 -5.42913 0)
(-0.0139114 -5.37768 0)
(-0.0147326 -5.28476 0)
(-0.0137282 -5.11786 0)
(-0.0105268 -4.82534 0)
(-0.0057291 -4.33077 0)
(-0.00222582 -3.22818 0)
(0.00230078 -3.2378 0)
(0.00596906 -4.34154 0)
(0.010834 -4.83393 0)
(0.0140447 -5.12249 0)
(0.0151033 -5.28557 0)
(0.0143643 -5.37531 0)
(0.0123005 -5.4246 0)
(0.00936341 -5.45163 0)
(0.00589808 -5.4659 0)
(0.00211498 -5.4721 0)
(-0.00179545 -5.47204 0)
(-0.00564048 -5.46569 0)
(-0.00920322 -5.45123 0)
(-0.0122371 -5.4241 0)
(-0.0143898 -5.37481 0)
(-0.0151981 -5.28511 0)
(-0.0141434 -5.12223 0)
(-0.0108953 -4.83349 0)
(-0.00596611 -4.34086 0)
(-0.00256295 -3.23539 0)
(0.00234572 -3.24486 0)
(0.00593871 -4.35125 0)
(0.011227 -4.84199 0)
(0.0146716 -5.12684 0)
(0.0157946 -5.28586 0)
(0.0150131 -5.37241 0)
(0.0128044 -5.41948 0)
(0.0097022 -5.44507 0)
(0.00607104 -5.45846 0)
(0.00213972 -5.4642 0)