/*--------------------------------*- C++ -*----------------------------------*\
  =========                 |
  \\      /  F ield         | OpenFOAM: The Open Source CFD Toolbox
   \\    /   O peration     | Website:  https://openfoam.org
    \\  /    A nd           | Version:  6
     \\/     M anipulation  |
\*---------------------------------------------------------------------------*/
FoamFile
{
    version     2.0;
    format      ascii;
    class       volScalarField;
    location    "27";
    object      epsilon;
}
// * * * * * * * * * * * * * * * * * * * * * * * * * * * * * * * * * * * * * //

dimensions      [0 2 -3 0 0 0 0];

internalField   nonuniform List<scalar> 
130000
(
13.8598
13.5904
13.3224
13.0608
12.8049
12.5545
12.3099
12.0718
11.8415
11.6203
11.4096
11.211
11.0256
10.8547
10.6991
10.5594
10.436
10.3289
10.2382
10.1635
13.8817
13.6124
13.3445
13.0827
12.8263
12.5751
12.3296
12.0906
11.8592
11.637
11.4254
11.226
11.0399
10.8684
10.7123
10.5722
10.4485
10.3412
10.2504
10.1756
13.9017
13.6326
13.3646
13.1024
12.8453
12.5933
12.3467
12.1066
11.8741
11.6508
11.438
11.2374
11.0501
10.8775
10.7205
10.5797
10.4555
10.3481
10.2572
10.1825
13.9187
13.6494
13.3811
13.1183
12.8606
12.6076
12.36
12.1185
11.8845
11.6596
11.4452
11.2428
11.0542
10.8805
10.7228
10.5814
10.4569
10.3493
10.2584
10.1841
13.9312
13.6617
13.3929
13.1295
12.8708
12.6165
12.3673
12.124
11.8884
11.6621
11.4465
11.2429
11.0535
10.8793
10.721
10.5793
10.4546
10.347
10.2563
10.1822
13.9396
13.6694
13.3998
13.1353
12.8749
12.6192
12.3685
12.124
11.8874
11.6603
11.4442
11.2406
11.051
10.8765
10.7181
10.5764
10.4518
10.3443
10.2538
10.18
13.9446
13.6732
13.4022
13.1361
12.8744
12.6176
12.3662
12.1213
11.8842
11.6567
11.4402
11.2364
11.0467
10.8723
10.714
10.5725
10.4481
10.3409
10.2507
10.1772
13.9474
13.6744
13.4017
13.1345
12.872
12.6144
12.3622
12.1167
11.8792
11.6513
11.4346
11.2308
11.0411
10.8668
10.7088
10.5676
10.4436
10.3368
10.2471
10.1741
13.9492
13.6746
13.4006
13.1321
12.8685
12.61
12.357
12.1108
11.8729
11.6446
11.4278
11.224
11.0345
10.8604
10.7028
10.562
10.4385
10.3322
10.2431
10.1706
13.951
13.6747
13.3992
13.1293
12.8645
12.6048
12.351
12.1042
11.8657
11.6372
11.4202
11.2164
11.0271
10.8534
10.6962
10.5559
10.433
10.3273
10.2388
10.1669
13.953
13.6749
13.3978
13.1264
12.8603
12.5994
12.3447
12.097
11.858
11.6292
11.4121
11.2084
11.0193
10.846
10.6892
10.5496
10.4272
10.3223
10.2344
10.1632
13.9553
13.6756
13.3968
13.1238
12.8562
12.5941
12.3383
12.0899
11.8503
11.6211
11.4039
11.2002
11.0114
10.8385
10.6822
10.5431
10.4215
10.3172
10.23
10.1595
13.9583
13.6768
13.3965
13.1218
12.8526
12.5891
12.3322
12.0829
11.8426
11.6131
11.3958
11.1921
11.0035
10.831
10.6752
10.5367
10.4157
10.3122
10.2257
10.1559
13.9619
13.6786
13.3966
13.1204
12.8495
12.5846
12.3265
12.0763
11.8354
11.6054
11.3879
11.1843
10.9959
10.8237
10.6684
10.5305
10.4102
10.3073
10.2216
10.1525
13.9663
13.681
13.3971
13.1194
12.847
12.5808
12.3215
12.0703
11.8287
11.5982
11.3804
11.1768
10.9885
10.8167
10.6619
10.5246
10.4049
10.3027
10.2177
10.1493
13.9716
13.6844
13.3986
13.1191
12.8456
12.5779
12.3173
12.065
11.8226
11.5916
11.3735
11.1698
10.9817
10.8101
10.6558
10.519
10.4
10.2984
10.2141
10.1464
13.978
13.689
13.4013
13.1201
12.8453
12.5761
12.314
12.0606
11.8173
11.5856
11.3672
11.1634
10.9753
10.8041
10.6501
10.5139
10.3954
10.2946
10.2109
10.1439
13.9855
13.6946
13.405
13.122
12.8455
12.5751
12.3116
12.057
11.8128
11.5805
11.3616
11.1576
10.9696
10.7986
10.645
10.5093
10.3914
10.2911
10.2081
10.1418
13.9943
13.7015
13.4099
13.1249
12.8464
12.5747
12.3102
12.0545
11.8093
11.5762
11.3569
11.1526
10.9646
10.7937
10.6405
10.5052
10.3879
10.2882
10.2058
10.1399
14.0044
13.7097
13.4161
13.129
12.8486
12.5752
12.3099
12.0531
11.8068
11.5728
11.3529
11.1484
10.9603
10.7896
10.6366
10.5018
10.3849
10.2858
10.2039
10.1385
14.0158
13.7192
13.4236
13.1345
12.852
12.5769
12.31
12.0522
11.805
11.5704
11.3499
11.1451
10.9569
10.7861
10.6334
10.4989
10.3824
10.2838
10.2023
10.1373
14.0286
13.7301
13.4324
13.1413
12.8567
12.5796
12.3109
12.0519
11.8043
11.5689
11.3479
11.1426
10.9542
10.7835
10.6309
10.4966
10.3805
10.2822
10.2011
10.1365
14.0429
13.7425
13.4428
13.1495
12.8628
12.5837
12.3133
12.0531
11.8047
11.5686
11.3471
11.1413
10.9526
10.7817
10.6292
10.4951
10.3792
10.2812
10.2004
10.1359
14.0587
13.7564
13.4546
13.1591
12.8703
12.5891
12.3168
12.0549
11.8052
11.5685
11.3466
11.1404
10.9514
10.7807
10.6285
10.4947
10.379
10.2812
10.2005
10.1361
14.0761
13.772
13.468
13.1703
12.8792
12.5958
12.3215
12.0577
11.8061
11.5684
11.346
11.1395
10.9508
10.7805
10.6284
10.4944
10.3786
10.2809
10.2003
10.1359
14.0951
13.7892
13.4831
13.1831
12.8897
12.604
12.3275
12.0618
11.8086
11.5696
11.3462
11.1398
10.951
10.7806
10.6282
10.4939
10.3782
10.2801
10.1997
10.1351
14.116
13.8083
13.5001
13.1977
12.9018
12.6138
12.3351
12.0674
11.8124
11.5719
11.3474
11.1403
10.951
10.7803
10.628
10.4943
10.3786
10.2803
10.1997
10.1359
14.1388
13.8294
13.519
13.2142
12.9158
12.6253
12.3443
12.0744
11.8175
11.5753
11.3493
11.1408
10.9508
10.78
10.6277
10.4942
10.3788
10.2812
10.2012
10.1378
14.1636
13.8525
13.54
13.2327
12.9318
12.6388
12.3553
12.0831
11.8242
11.5801
11.3526
11.1428
10.9517
10.7801
10.6274
10.4938
10.3786
10.2814
10.2017
10.1385
14.1906
13.878
13.5634
13.2536
12.9501
12.6544
12.3683
12.0938
11.8326
11.5866
11.3574
11.146
10.9536
10.7807
10.6273
10.4936
10.3784
10.2814
10.2017
10.1386
14.22
13.906
13.5893
13.2771
12.9709
12.6725
12.3837
12.1066
11.8432
11.5951
11.364
11.1511
10.9573
10.7832
10.6289
10.4946
10.379
10.2819
10.2025
10.1395
14.2521
13.9369
13.6182
13.3035
12.9945
12.6933
12.4018
12.1221
11.8562
11.606
11.373
11.1584
10.9632
10.7878
10.6323
10.4966
10.3803
10.2827
10.2031
10.1399
14.2872
13.9708
13.6502
13.3331
13.0214
12.7173
12.4229
12.1405
11.8722
11.6197
11.3847
11.1684
10.9716
10.7949
10.6384
10.5018
10.3846
10.2862
10.2057
10.1421
14.3256
14.0083
13.6859
13.3663
13.0518
12.7448
12.4475
12.1623
11.8913
11.6365
11.3994
11.1813
10.983
10.8049
10.6473
10.5097
10.3918
10.2927
10.2116
10.1474
14.3676
14.0497
13.7256
13.4036
13.0863
12.7763
12.476
12.1878
11.9141
11.6568
11.4175
11.1975
10.9975
10.8181
10.6592
10.5207
10.4019
10.3021
10.2203
10.1555
14.4137
14.0954
13.7698
13.4455
13.1253
12.8122
12.5088
12.2176
11.9411
11.6812
11.4396
11.2175
11.0157
10.8348
10.6746
10.535
10.4152
10.3145
10.232
10.1664
14.4643
14.146
13.819
13.4924
13.1694
12.8532
12.5465
12.2522
11.9727
11.71
11.466
11.2417
11.0381
10.8554
10.6939
10.553
10.4321
10.3305
10.247
10.1806
14.52
14.2019
13.8738
13.545
13.2192
12.8998
12.5898
12.2922
12.0096
11.744
11.4973
11.2707
11.065
10.8806
10.7174
10.5751
10.453
10.3502
10.2657
10.1982
14.5813
14.2639
13.9349
13.6041
13.2754
12.9527
12.6393
12.3383
12.0524
11.7838
11.5343
11.3052
11.0972
10.9108
10.7459
10.6021
10.4785
10.3744
10.2886
10.22
14.6489
14.3328
14.0031
13.6704
13.3389
13.0129
12.696
12.3915
12.1021
11.8302
11.5777
11.3459
11.1355
10.9469
10.7801
10.6345
10.5093
10.4037
10.3165
10.2464
14.7236
14.4093
14.0794
13.7449
13.4107
13.0814
12.7608
12.4526
12.1596
11.8843
11.6286
11.3938
11.1808
10.9899
10.8209
10.6733
10.5463
10.4389
10.35
10.2782
14.8062
14.4944
14.1648
13.8288
13.492
13.1593
12.835
12.5229
12.2262
11.9472
11.6881
11.4502
11.2344
11.0408
10.8694
10.7195
10.5905
10.4811
10.3902
10.3164
14.8979
14.5894
14.2606
13.9234
13.5841
13.2482
12.9201
12.6041
12.3033
12.0206
11.7578
11.5166
11.2976
11.1011
10.927
10.7747
10.6432
10.5316
10.4384
10.3623
14.9997
14.6957
14.3683
14.0304
13.6889
13.3497
13.0179
12.6978
12.3929
12.1061
11.8396
11.5947
11.3723
11.1726
10.9956
10.8404
10.7063
10.5919
10.496
10.4172
15.1132
14.8148
14.4899
14.1518
13.8084
13.4662
13.1306
12.8064
12.4973
12.2063
11.9357
11.6869
11.4608
11.2577
11.0773
10.919
10.7817
10.6642
10.5652
10.4831
15.2401
14.9489
14.6275
14.2901
13.9453
13.6003
13.2611
12.9328
12.6194
12.3241
12.0492
11.7962
11.5662
11.3593
11.1752
11.0132
10.8723
10.7512
10.6484
10.5625
15.3824
15.1005
14.7841
14.4484
14.1029
13.7556
13.4131
13.0809
12.7632
12.4634
12.1841
11.9268
11.6924
11.4813
11.293
11.1269
10.9818
10.8565
10.7492
10.6586
15.5429
15.2727
14.9632
14.6306
14.2856
13.9368
13.5915
13.2556
12.9337
12.6296
12.3457
12.0838
11.8449
11.6291
11.4362
11.2653
11.1153
10.9848
10.8722
10.7758
15.7247
15.4696
15.1696
14.8422
14.499
14.1499
13.8027
13.4638
13.1382
12.8298
12.5415
12.2749
12.0311
11.8102
11.612
11.4357
11.2798
11.1431
11.0237
10.9201
15.9322
15.6964
15.4095
15.09
14.7511
14.4034
14.0556
13.7148
13.3864
13.0744
12.7818
12.5105
12.2616
12.0353
11.8311
11.6482
11.4852
11.3408
11.213
11.1001
16.1706
15.9601
15.6913
15.3838
15.0525
14.709
14.3631
14.0223
13.6924
13.3778
13.0818
12.8062
12.5522
12.3198
12.1088
11.9181
11.7464
11.592
11.4533
11.3283
16.4471
16.2702
16.0265
15.7371
15.4184
15.0836
14.7433
14.4055
14.0768
13.7618
13.4638
13.1848
12.926
12.6873
12.4684
12.2682
12.0854
11.9181
11.7646
11.6232
16.7716
16.6397
16.4314
16.1689
15.8708
15.5515
15.2228
14.8935
14.5704
14.2587
13.9615
13.6811
13.4184
13.1734
12.9455
12.7336
12.5362
12.3515
12.1778
12.0133
17.1564
17.0868
16.929
16.7069
16.4413
16.1484
15.841
15.5287
15.219
14.9169
14.6259
14.3479
14.0836
13.833
13.595
13.3685
13.1517
12.943
12.7407
12.5429
17.6216
17.6377
17.5524
17.3908
17.1761
16.9264
16.6558
16.3749
16.0912
15.81
15.5344
15.266
15.0051
14.751
14.5023
14.2575
14.0146
13.7721
13.5282
13.2817
18.1968
18.3281
18.3485
18.2775
18.1416
17.9613
17.7522
17.5254
17.2888
17.0472
16.8032
16.5575
16.3094
16.0571
15.7986
15.5314
15.2533
14.9627
14.6581
14.3388
18.9195
19.2183
19.383
19.4475
19.432
19.3615
19.2518
19.1149
18.9589
18.7876
18.6021
18.4016
18.1836
17.9445
17.6803
17.3874
17.0628
16.7043
16.3111
15.8834
19.8358
20.3786
20.7627
21.012
21.1755
21.2777
21.3232
21.3297
21.306
21.2522
21.1674
21.0485
20.8901
20.6851
20.4265
20.1079
19.7247
19.2738
18.7545
18.1683
21.0176
21.9015
22.6021
23.1462
23.575
23.9174
24.1884
24.408
24.5957
24.7256
24.8002
24.8153
24.7622
24.6263
24.3955
24.0593
23.6096
23.0411
22.3523
21.5454
22.5536
23.9138
25.0605
26.017
26.829
27.5302
28.1426
28.6797
29.1459
29.5326
29.8287
30.039
30.1566
30.1384
29.9709
29.638
29.1264
28.426
27.5316
26.4437
24.5557
26.5693
28.3295
29.8522
31.1888
32.3774
33.443
34.3985
35.2462
35.9787
36.5835
37.0446
37.3473
37.4972
37.4337
37.1379
36.5894
35.7698
34.6653
33.2678
27.161
30.0488
32.6245
34.8896
36.9014
38.7037
40.3251
41.7813
43.0757
44.2023
45.1491
45.8996
46.4342
46.7397
46.8152
46.5931
46.0504
45.1585
43.8899
42.2192
30.5313
34.5525
38.1651
41.3481
44.1667
46.6749
48.9111
50.8991
52.6492
54.1635
55.4368
56.4588
57.2137
57.6873
57.8824
57.7592
57.2639
56.3634
55.014
53.1673
34.8509
40.2863
45.1493
49.3927
53.0993
56.3458
59.192
61.6814
63.8421
65.6922
67.2393
68.4846
69.4229
70.0456
70.3484
70.3087
69.8803
69.0213
67.6686
65.7525
40.3205
47.4455
53.7319
59.1182
63.7285
67.6845
71.0859
74.0099
76.5118
78.6313
80.3929
81.8115
82.8923
83.6328
84.0244
84.0516
83.6942
82.9002
81.5852
79.665
47.1456
56.1969
64.0138
70.5581
76.0343
80.6369
84.5233
87.8143
90.5973
92.9357
94.8711
96.4311
97.6285
98.4671
98.9388
99.0254
98.7228
97.9937
96.7238
94.8171
55.521
66.6678
76.0499
83.7165
89.997
95.1823
99.4975
103.111
106.141
108.674
110.765
112.454
113.759
114.687
115.232
115.376
115.123
114.449
113.215
111.313
65.6121
78.9431
89.8683
98.5997
105.628
111.351
116.064
119.98
123.246
125.969
128.216
130.034
131.448
132.468
133.087
133.286
133.078
132.451
131.244
129.333
77.5441
93.0743
105.491
115.232
122.969
129.207
134.307
138.523
142.028
144.944
147.352
149.305
150.834
151.951
152.648
152.905
152.74
152.158
150.977
149.05
91.3974
109.091
122.94
133.652
142.076
148.82
154.305
158.821
162.565
165.677
168.247
170.338
171.986
173.204
173.985
174.305
174.186
173.652
172.506
170.574
107.215
127.008
142.239
153.89
162.985
170.226
176.087
180.894
184.868
188.165
190.889
193.113
194.876
196.197
197.067
197.458
197.392
196.918
195.831
193.922
125.011
146.827
163.389
175.949
185.689
193.399
199.607
204.673
208.843
212.294
215.143
217.476
219.339
220.758
221.722
222.202
222.205
221.804
220.812
218.973
144.772
168.524
186.355
199.77
210.1
218.218
224.705
229.96
234.258
237.795
240.71
243.102
245.031
246.528
247.593
248.207
248.322
247.98
247.122
245.422
166.456
192.032
211.038
225.21
236.022
244.431
251.075
256.393
260.694
264.202
267.078
269.441
271.363
272.889
274.024
274.751
275.007
274.821
274.164
272.709
189.981
217.222
237.245
252.006
263.116
271.621
278.219
283.398
287.506
290.801
293.473
295.664
297.464
298.935
300.093
300.923
301.36
301.392
301.022
299.975
215.209
243.876
264.669
279.75
290.87
299.167
305.412
310.147
313.769
316.579
318.801
320.608
322.115
323.404
324.51
325.437
326.133
326.516
326.513
326.024
241.931
271.676
292.864
307.862
318.565
326.213
331.66
335.515
338.236
340.172
341.599
342.726
343.694
344.612
345.537
346.495
347.45
348.326
348.968
349.208
269.855
300.184
321.233
335.574
345.256
351.64
355.673
358.053
359.306
359.84
360.005
360.075
360.178
360.461
361.017
361.91
363.125
364.6
366.166
367.599
298.614
328.856
349.031
361.931
369.774
374.061
375.866
375.985
375.059
373.452
371.54
369.643
368.166
367.342
367.279
367.958
369.409
371.603
374.449
377.749
327.777
357.059
375.393
385.814
390.74
391.845
390.408
387.062
382.556
377.88
373.772
370.164
367.365
365.588
364.972
365.417
366.986
369.729
373.568
378.323
356.897
384.121
399.379
405.974
406.678
403.247
396.833
389.327
381.344
373.418
365.711
359.248
354.19
350.732
349.021
349.134
350.867
354.492
359.926
367.016
385.578
409.408
419.961
421.178
415.867
406.255
394.4
381.08
367.763
355.132
343.813
334.264
326.797
321.647
318.979
318.806
320.739
325.166
332.227
341.791
413.561
432.243
436.44
430.305
417.014
399.502
379.91
359.859
340.604
323.049
307.785
295.201
285.513
278.868
275.346
275.024
277.497
282.972
291.846
304.048
440.579
452.319
448.287
432.093
408.625
381.24
352.681
325.019
299.659
277.472
258.888
244.075
233.028
225.718
222.105
222.195
225.481
232.405
243.427
258.515
466.87
470.111
454.417
425.683
389.446
350.424
312.182
277.164
246.743
221.49
201.393
186.178
175.465
168.972
166.564
167.909
172.723
182.007
196.078
214.74
493.276
485.331
454.846
409.947
358.566
307.047
259.875
219.578
186.963
161.766
143.144
130.149
121.942
117.979
118.03
121.746
129.768
142.92
162.398
189.28
520.882
497.813
447.978
383.485
315.628
252.918
200.317
159.451
129.375
108.305
94.3121
85.8231
81.7398
81.5064
84.6347
91.5858
103.355
122.042
150.815
186.611
549.353
505.292
430.949
344.25
261.846
193.413
142.087
106.481
83.2316
68.8803
60.674
56.822
56.3709
58.8127
64.4781
74.6998
91.2989
117.471
156.168
212.876
578.396
505.29
399.543
290.349
198.631
132.643
90.3407
65.2058
51.1107
43.7716
40.5141
40.0013
41.718
45.8549
53.4832
66.4815
89.3115
124.753
186.74
281.022
605.529
489.087
345.845
219.793
132.172
80.7568
53.8765
40.6946
34.2571
31.2245
30.334
31.1494
33.6735
38.5881
47.216
62.5984
91.8113
145.687
246.891
396.151
619.715
444.105
266.18
143.619
78.1878
49.1409
36.0773
29.6245
26.3345
24.9142
24.8298
25.9715
28.6492
33.6981
42.9989
61.0031
98.6957
179.72
336.187
545.609
614.648
363.38
174.824
86.3872
51.3595
35.9705
28.3335
24.2859
22.1686
21.2636
21.3167
22.3919
24.8848
29.7725
39.4229
59.9892
108.495
221.419
437.547
699.424
573.109
268.026
123.624
65.6286
41.4588
30.2164
24.4733
21.3152
19.5901
18.8211
18.8335
19.7302
21.9074
26.3583
35.6088
56.6873
111.765
247.559
523.948
841.046
552.555
247.517
112.475
58.3888
36.8606
27.0476
22.0179
19.2625
17.7637
17.0847
17.0582
17.7689
19.5726
23.3667
31.4727
50.4787
101.444
249.843
564.679
969.641
648.481
269.707
113.458
55.1348
33.8124
24.559
20.0467
17.69
16.4558
15.9038
15.8672
16.4001
17.7952
20.8023
27.3875
43.2474
87.2956
220.107
570.433
1084.56
881.875
329.574
114.302
51.6676
30.6342
22.2139
18.3832
16.5138
15.592
15.1968
15.1637
15.5157
16.4801
18.6103
23.391
35.1103
68.6762
179.074
511.487
1131.77
1130.11
363.976
110.463
46.0165
26.8729
19.9027
16.9817
15.6736
15.0996
14.8803
14.8611
15.045
15.5754
16.8633
19.9039
27.5636
50.0487
129.434
417.579
1127.66
1218.36
316.077
87.2705
36.164
22.2868
17.628
15.8696
15.169
14.8645
14.7526
14.7329
14.7948
15.0068
15.5687
17.0101
20.8335
32.3688
75.966
269.48
956.225
1004.92
202.265
52.6558
24.8075
17.7844
15.731
15.0769
14.8488
14.7713
14.731
14.7247
14.753
14.834
15.0221
15.5561
16.9928
21.1323
36.0817
116.193
570.78
308.955
47.4446
18.5382
15.2619
15.0052
14.919
14.8467
14.8125
14.8013
14.7998
14.7988
14.797
14.7998
14.8106
14.7909
14.7996
15.1764
17.4728
29.7675
102.89
9.94636
9.9085
9.8658
9.82624
9.7902
9.75792
9.72958
9.70532
9.68523
9.6694
9.65788
9.65068
9.64773
9.64893
9.65444
9.66421
9.67819
9.69636
9.71868
9.74516
9.96122
9.92274
9.87987
9.84011
9.80386
9.77138
9.74288
9.71849
9.69832
9.68244
9.67087
9.66364
9.66063
9.66179
9.66726
9.67696
9.69087
9.70898
9.73122
9.75757
9.97204
9.93336
9.89026
9.85027
9.8138
9.78115
9.75252
9.7281
9.70797
9.69216
9.68064
9.67342
9.67041
9.67162
9.67708
9.68673
9.70061
9.71878
9.74116
9.7675
9.98068
9.94178
9.89845
9.85821
9.82151
9.78867
9.75994
9.73556
9.71571
9.70018
9.68883
9.68162
9.67841
9.67922
9.68416
9.69322
9.70685
9.72512
9.74816
9.77483
9.98771
9.94857
9.90498
9.86447
9.82746
9.79431
9.76532
9.74074
9.72063
9.70462
9.69287
9.68535
9.6819
9.68247
9.6873
9.69638
9.71008
9.72827
9.75125
9.77812
9.99351
9.95411
9.91024
9.8694
9.83201
9.79839
9.76888
9.74372
9.72287
9.70622
9.69409
9.6864
9.68311
9.68415
9.68974
9.69994
9.71403
9.73179
9.75359
9.78013
9.99846
9.95873
9.91455
9.87337
9.83559
9.80156
9.7716
9.74593
9.7247
9.70801
9.69587
9.68833
9.68549
9.68762
9.69385
9.70401
9.71745
9.73405
9.75508
9.78132
10.0031
9.96299
9.91848
9.87698
9.83894
9.80468
9.77447
9.74854
9.72706
9.71016
9.69786
9.69023
9.68742
9.68975
9.69613
9.70567
9.71841
9.73426
9.75466
9.78061
10.0081
9.96762
9.92279
9.88104
9.84279
9.80836
9.77797
9.75184
9.73011
9.71293
9.70036
9.69246
9.68914
9.69036
9.69637
9.70564
9.71858
9.73523
9.75556
9.78096
10.0137
9.97294
9.92782
9.88582
9.84735
9.81276
9.78226
9.75607
9.73433
9.71716
9.70459
9.69661
9.69303
9.69366
9.69864
9.70784
9.72116
9.7386
9.76016
9.78595
10.02
9.97889
9.93342
9.89108
9.85233
9.81752
9.78693
9.76077
9.73918
9.72231
9.71015
9.70262
9.6994
9.7003
9.70553
9.71501
9.72864
9.74627
9.76784
9.7935
10.0267
9.98523
9.93931
9.8964
9.85719
9.8221
9.79138
9.76525
9.74388
9.72746
9.71622
9.70969
9.70721
9.70841
9.71366
9.72304
9.73656
9.75419
9.77593
9.80177
10.0329
9.99103
9.94433
9.90082
9.86132
9.82609
9.79529
9.76908
9.74761
9.73108
9.71974
9.71326
9.71122
9.71252
9.71765
9.72684
9.74017
9.75781
9.77961
9.80534
10.0358
9.99363
9.94702
9.90399
9.86488
9.82989
9.79915
9.77282
9.75101
9.73387
9.72152
9.71411
9.71163
9.71248
9.71744
9.7266
9.73997
9.75768
9.77951
9.80512
10.0367
9.99523
9.94977
9.90765
9.86923
9.83467
9.80408
9.7777
9.75571
9.73824
9.72534
9.71706
9.71323
9.71363
9.71851
9.7278
9.74142
9.75933
9.78138
9.80751
10.0403
9.99906
9.95404
9.91257
9.875
9.84098
9.81041
9.78396
9.76201
9.74458
9.73165
9.72327
9.7193
9.71961
9.7245
9.73373
9.74729
9.76525
9.78748
9.81382
10.0456
10.004
9.95881
9.91719
9.87953
9.84549
9.81524
9.7897
9.7687
9.75188
9.73926
9.73094
9.72681
9.7267
9.73086
9.73934
9.75273
9.77107
9.79418
9.82121
10.0528
10.0105
9.96454
9.92207
9.88347
9.84896
9.81882
9.79344
9.77234
9.75541
9.74274
9.73443
9.73035
9.7302
9.73413
9.74266
9.75629
9.77476
9.79791
9.82482
10.0625
10.0195
9.97279
9.92947
9.88998
9.85468
9.82376
9.79726
9.77522
9.75775
9.74483
9.73652
9.73258
9.7328
9.73744
9.74666
9.76028
9.77823
9.8003
9.82634
10.0748
10.0313
9.98413
9.94022
9.90005
9.86402
9.83232
9.80516
9.7826
9.76477
9.75165
9.74327
9.73937
9.73974
9.74459
9.75382
9.76721
9.78465
9.80595
9.83105
10.0899
10.046
9.99852
9.95423
9.91365
9.8772
9.84508
9.81754
9.79466
9.77658
9.76327
9.75474
9.75074
9.75102
9.75575
9.7648
9.77792
9.795
9.8158
9.84025
10.1077
10.0635
10.0158
9.9713
9.93045
9.89371
9.86131
9.83351
9.81041
9.79213
9.77865
9.76999
9.76586
9.766
9.77058
9.77942
9.79227
9.80899
9.82932
9.85317
10.1283
10.084
10.0362
9.99151
9.95045
9.91349
9.88087
9.85287
9.82958
9.81114
9.79751
9.78872
9.78446
9.78446
9.78886
9.79749
9.81005
9.82638
9.8462
9.86939
10.1521
10.1078
10.06
10.0152
9.97397
9.93684
9.90404
9.87586
9.85239
9.8338
9.82003
9.8111
9.80671
9.80656
9.81076
9.81912
9.83134
9.84723
9.86647
9.88893
10.1796
10.1353
10.0876
10.0428
10.0015
9.96428
9.93132
9.90299
9.87937
9.86063
9.84672
9.83765
9.83312
9.83278
9.83673
9.84477
9.85658
9.87194
9.89052
9.91214
10.2113
10.1672
10.1197
10.075
10.0337
9.99643
9.96336
9.9349
9.91114
9.89226
9.8782
9.86899
9.86433
9.8638
9.86734
9.87496
9.88626
9.90099
9.91878
9.93943
10.248
10.2042
10.1571
10.1126
10.0714
10.0341
10.001
9.9724
9.94851
9.92948
9.91523
9.90581
9.90091
9.9001
9.90325
9.9104
9.92108
9.93505
9.95189
9.97138
10.2904
10.2471
10.2006
10.1565
10.1155
10.0782
10.0451
10.0165
9.99244
9.97324
9.95879
9.9491
9.94388
9.94272
9.94539
9.95192
9.96185
9.97489
9.99059
10.0087
10.3398
10.2972
10.2514
10.2079
10.1672
10.1301
10.097
10.0684
10.0442
10.0248
10.0101
10.0001
9.99446
9.99283
9.99491
10.0007
10.0097
10.0216
10.0359
10.0523
10.3973
10.3558
10.3111
10.2683
10.2281
10.1914
10.1584
10.1297
10.1055
10.0859
10.0708
10.0604
10.0542
10.052
10.0533
10.0581
10.066
10.0764
10.0891
10.1035
10.4649
10.4247
10.3815
10.3398
10.3004
10.2642
10.2314
10.2028
10.1785
10.1586
10.1432
10.1322
10.1253
10.1223
10.1226
10.1262
10.1326
10.1413
10.1518
10.1637
10.5446
10.5065
10.4654
10.4252
10.387
10.3514
10.3191
10.2907
10.2662
10.2461
10.2301
10.2184
10.2106
10.2065
10.2055
10.2075
10.2119
10.2183
10.2262
10.235
10.6398
10.6045
10.5663
10.5285
10.4918
10.4574
10.4258
10.3977
10.3732
10.3527
10.336
10.3233
10.3142
10.3086
10.3058
10.3056
10.3074
10.3109
10.3152
10.32
10.755
10.7237
10.6898
10.6553
10.6211
10.5885
10.558
10.5303
10.5058
10.4848
10.4672
10.4531
10.4422
10.4343
10.4289
10.4257
10.4239
10.4233
10.423
10.4226
10.8968
10.8716
10.844
10.8145
10.7842
10.7543
10.7256
10.6988
10.6744
10.6527
10.6337
10.6176
10.604
10.5927
10.5834
10.5756
10.5688
10.5624
10.5557
10.5481
11.0755
11.0598
11.042
11.0203
10.996
10.9705
10.9447
10.9195
10.8953
10.8725
10.8514
10.832
10.8142
10.7979
10.7825
10.7679
10.7533
10.7384
10.7224
10.7045
11.3078
11.307
11.3047
11.2956
11.2812
11.2629
11.2419
11.2192
11.1954
11.1712
11.1466
11.122
11.0974
11.0728
11.0478
11.0224
10.9958
10.9679
10.9377
10.9047
11.6203
11.6445
11.6673
11.6787
11.6805
11.6743
11.6615
11.6432
11.6203
11.5935
11.5633
11.5301
11.4943
11.456
11.4153
11.3722
11.3263
11.2775
11.2252
11.1688
12.0633
12.1259
12.1883
12.2326
12.2626
12.2764
12.2776
12.267
12.2458
12.215
12.1755
12.1281
12.0734
12.0123
11.9452
11.8727
11.7949
11.7121
11.624
11.5303
12.7111
12.8392
12.9711
13.0715
13.1414
13.1865
13.2126
13.2156
13.1979
13.161
13.1062
13.035
12.9488
12.8493
12.7379
12.6162
12.4851
12.3459
12.1988
12.0443
13.6863
13.9238
14.1697
14.3639
14.5078
14.6045
14.6612
14.6882
14.6774
14.6317
14.5527
14.443
14.305
14.1422
13.9574
13.7538
13.5342
13.3012
13.0565
12.8019
15.1842
15.599
16.0289
16.3744
16.6362
16.8186
16.9272
16.9766
16.9821
16.9257
16.8109
16.6417
16.4228
16.1595
15.8573
15.5218
15.1584
14.7724
14.3683
13.9499
17.4933
18.1817
18.892
19.4649
19.9009
20.2065
20.3903
20.473
20.4917
20.4311
20.2683
20.0156
19.6804
19.2706
18.7938
18.259
17.6749
17.0508
16.3954
15.7167
20.9972
22.0707
23.1654
24.0404
24.6996
25.1581
25.4351
25.5641
25.5953
25.5232
25.3037
24.952
24.4754
23.8818
23.1793
22.3776
21.4881
20.5243
19.5003
18.4312
26.108
27.6433
29.1736
30.3657
31.2387
31.8286
32.1737
32.3308
32.3749
32.3007
32.039
31.6057
31.0053
30.2403
29.3121
28.2242
26.9846
25.6064
24.1073
22.5098
33.0847
35.0345
36.9091
38.3029
39.273
39.8965
40.2411
40.3875
40.4285
40.3615
40.0936
39.64
38.9985
38.1597
37.1085
35.8256
34.3042
32.5455
30.5576
28.3612
41.7911
43.929
45.8965
47.2544
48.1167
48.6282
48.8835
48.9778
48.9997
48.9446
48.7096
48.3105
47.7416
46.9845
46.0037
44.7252
43.1249
41.1854
38.8768
36.1832
51.6654
53.6727
55.4855
56.7364
57.5523
58.0324
58.2645
58.3511
58.3771
58.3307
58.099
57.7012
57.133
56.38
55.4243
54.2355
52.7672
50.9447
48.6522
45.7568
62.3448
64.386
66.226
67.494
68.3229
68.8185
69.0687
69.1605
69.1815
69.1416
68.9036
68.491
67.9034
67.132
66.1574
64.9461
63.4512
61.6041
59.3214
56.498
74.397
76.6075
78.6063
79.999
80.9215
81.4877
81.7967
81.9079
81.9187
81.8888
81.642
81.2044
80.5743
79.7425
78.6897
77.3851
75.7855
73.8292
71.4311
68.4696
88.2858
90.7861
93.0514
94.643
95.7141
96.3906
96.77
96.9089
96.936
96.9247
96.6681
96.1981
95.5128
94.6031
93.4478
92.0159
90.2609
88.1172
85.4934
82.2643
104.44
107.327
109.952
111.809
113.075
113.887
114.355
114.55
114.615
114.629
114.367
113.866
113.121
112.121
110.843
109.252
107.297
104.907
101.979
98.3728
123.269
126.638
129.715
131.912
133.429
134.42
135.002
135.264
135.372
135.431
135.177
134.648
133.839
132.737
131.314
129.534
127.338
124.647
121.344
117.269
145.199
149.156
152.783
155.399
157.231
158.451
159.183
159.534
159.702
159.817
159.583
159.034
158.157
156.939
155.349
153.349
150.87
147.824
144.076
139.441
170.69
175.347
179.634
182.76
184.984
186.493
187.407
187.862
188.131
188.307
188.122
187.565
186.619
185.274
183.496
181.243
178.438
174.981
170.715
165.425
200.218
205.702
210.772
214.512
217.219
219.105
220.308
220.947
221.249
221.436
221.386
220.83
219.813
218.329
216.342
213.804
210.628
206.701
201.84
195.797
234.273
240.726
246.716
251.186
254.477
256.833
258.423
259.388
259.865
260.029
260.017
259.447
258.355
256.723
254.509
251.657
248.067
243.61
238.077
231.18
273.333
280.908
287.97
293.299
297.281
300.192
302.213
303.478
304.154
304.481
304.545
304.002
302.855
301.078
298.625
295.432
291.388
286.343
280.06
272.204
317.827
326.696
334.998
341.333
346.138
349.726
352.307
354.018
354.998
355.438
355.494
355.091
353.913
351.996
349.296
345.741
341.206
335.521
328.412
319.496
368.089
378.441
388.166
395.666
401.435
405.826
409.082
411.366
412.794
413.477
413.622
413.267
412.05
409.996
407.046
403.116
398.061
391.686
383.683
373.611
424.29
436.338
447.685
456.522
463.406
468.73
472.766
475.689
477.619
478.654
478.999
478.779
477.584
475.432
472.252
467.946
462.352
455.251
446.292
434.979
486.575
500.445
513.549
523.877
532.035
538.45
543.412
547.106
549.647
551.121
551.77
551.752
550.646
548.442
545.057
540.384
534.241
526.385
516.424
503.798
556.508
572.372
587.407
599.346
608.859
616.42
622.353
626.865
630.075
632.063
633.006
633.134
632.195
629.973
626.421
621.411
614.738
606.126
595.131
581.123
635.453
653.49
670.632
684.317
695.29
704.082
711.06
716.455
720.409
722.998
724.354
724.708
723.897
721.688
718.018
712.712
705.535
696.17
684.112
668.646
724.736
745.117
764.53
780.09
792.628
802.739
810.838
817.191
821.96
825.232
827.096
827.754
827.133
825.002
821.288
815.755
808.13
798.047
784.929
767.961
825.625
848.487
870.304
887.843
902.031
913.534
922.823
930.2
935.853
939.882
942.349
943.411
943.069
941.118
937.484
931.838
923.87
913.158
899.038
880.58
939.264
964.685
988.976
1008.54
1024.42
1037.36
1047.88
1056.34
1062.94
1067.81
1070.99
1072.57
1072.61
1070.96
1067.57
1061.99
1053.85
1042.68
1027.69
1007.85
1066.6
1094.55
1121.28
1142.83
1160.36
1174.7
1186.45
1196.01
1203.61
1209.4
1213.41
1215.69
1216.25
1215.04
1212.08
1206.82
1198.78
1187.4
1171.82
1150.82
1208.26
1238.55
1267.51
1290.86
1309.87
1325.49
1338.38
1348.98
1357.59
1364.34
1369.3
1372.46
1373.75
1373.18
1370.89
1366.31
1358.75
1347.58
1331.82
1310.08
1364.35
1396.54
1427.29
1452.03
1472.17
1488.77
1502.57
1514.08
1523.61
1531.36
1537.36
1541.6
1543.91
1544.27
1542.91
1539.49
1532.96
1522.61
1507.31
1485.49
1534.19
1567.5
1599.25
1624.66
1645.32
1662.37
1676.66
1688.76
1699.05
1707.73
1714.88
1720.46
1724.3
1726.18
1726.06
1724.11
1719.29
1710.6
1696.69
1675.81
1715.93
1749.12
1780.61
1805.58
1825.75
1842.41
1856.5
1868.67
1879.34
1888.78
1897.06
1904.17
1909.92
1914.03
1916.06
1915.97
1913.74
1907.88
1896.69
1878.19
1906.1
1937.31
1966.65
1989.49
2007.72
2022.72
2035.57
2046.98
2057.44
2067.27
2076.59
2085.4
2093.49
2100.57
2106.1
2109.45
2110.22
2108.34
2101.65
2087.56
2098.94
2125.53
2150.08
2168.44
2182.65
2194.23
2204.33
2213.76
2223.1
2232.71
2242.76
2253.3
2264.13
2274.95
2285.13
2293.96
2300.32
2303.42
2302.83
2295.82
2285.65
2304.11
2320.3
2331.02
2338.47
2344.27
2349.63
2355.43
2362.32
2370.76
2381
2393.14
2406.99
2422.26
2438.31
2454.39
2469.29
2481.72
2489.7
2491.33
2453.58
2459.51
2462.83
2461.91
2459.17
2456.35
2454.47
2454.51
2457.21
2463.19
2472.77
2486.13
2503.12
2523.49
2546.54
2571.41
2596.71
2621
2642.63
2658.8
2585.44
2574.16
2559.22
2541.59
2523.2
2506.43
2493.52
2485.44
2482.24
2484.57
2492.57
2506.39
2525.98
2551.27
2581.86
2617.31
2656.5
2697.79
2737.87
2774.57
2662.25
2623.41
2583.63
2549.48
2517.24
2489.54
2467.68
2452.5
2444.22
2442.7
2448.7
2462.37
2483.71
2512.73
2549.06
2592.35
2641.49
2694.79
2748.13
2806.17
2660.94
2597.95
2531.78
2466.11
2410.69
2364.47
2327.72
2300.7
2283.59
2275.83
2277.73
2290.19
2313.17
2346.92
2391.32
2446.41
2511.79
2587.46
2674.02
2757.13
2553.8
2453.81
2354.46
2265.39
2188.79
2125.08
2074.31
2036.24
2010.66
1997.23
1995.25
2005.85
2029.09
2065.73
2116.02
2180.33
2258.47
2350.09
2453.53
2566.05
2321.82
2189.8
2061.66
1950.54
1856.88
1780.32
1719.98
1674.88
1644.14
1627.04
1622.58
1631.32
1653.61
1690.73
1743.65
1813.59
1901.16
2006.65
2128.44
2263.59
1985.37
1828.97
1682.2
1557.71
1455.22
1373.2
1309.69
1262.79
1230.92
1212.96
1207.91
1215.95
1237.43
1274.17
1327.87
1400.71
1494.46
1610.83
1747.8
1901.14
1615.29
1445.53
1293.24
1166.51
1064.51
984.681
924.177
880.428
851.434
835.834
832.625
841.915
864.184
901.724
956.736
1032.31
1131.32
1256.57
1408.61
1583.22
1297.23
1112.68
957.948
834.61
739.582
667.738
614.744
577.233
552.834
540.018
537.717
546.135
566.038
599.928
650.56
722.38
820.804
953.282
1127.23
1346.81
1076.91
852.858
687.777
566.326
480.534
419.25
375.816
345.927
326.925
317.191
315.689
322.77
339.398
368.166
412.619
479.101
578.312
727.373
965.947
1302.42
1050
740.081
509.134
373.288
292.925
240.769
206.247
183.566
169.63
162.644
161.75
167.491
180.95