/*--------------------------------*- C++ -*----------------------------------*\
  =========                 |
  \\      /  F ield         | OpenFOAM: The Open Source CFD Toolbox
   \\    /   O peration     | Website:  https://openfoam.org
    \\  /    A nd           | Version:  6
     \\/     M anipulation  |
\*---------------------------------------------------------------------------*/
FoamFile
{
    version     2.0;
    format      ascii;
    class       volScalarField;
    location    "27";
    object      epsilon;
}
// * * * * * * * * * * * * * * * * * * * * * * * * * * * * * * * * * * * * * //

dimensions      [0 2 -3 0 0 0 0];

internalField   nonuniform List<scalar> 
10000
(
266.619
360.121
237.284
155.074
102.658
70.7029
51.9752
41.3776
35.6952
33.3133
33.4942
36.2353
42.2247
53.1358
71.832
103.113
154.368
235.525
356.866
265.555
266.341
359.663
236.558
154.162
101.85
70.1684
51.6606
41.2541
35.6297
33.3075
33.4934
36.2256
42.1829
53.0916
71.7572
102.915
154.067
235.45
356.71
265.492
266.253
359.771
237.241
154.996
102.389
70.5506
51.9211
41.4271
35.6961
33.3136
33.4995
36.2145
42.0302
53.058
71.7288
102.34
153.275
235.402
356.707
265.517
266.132
359.641
236.627
154.164
102.762
70.8285
52.1353
41.4669
35.7473
33.3111
33.4965
36.233
42.1765
53.0066
71.7099
103.288
154.073
235.35
356.657
265.525
265.939
359.639
237.371
155.012
102.697
70.7029
52.1055
41.4631
35.7715
33.3396
33.4937
36.2295
42.0566
52.7155
71.5577
103.223
154.828
234.987
356.444
265.863
266.056
359.574
237.153
154.167
102.001
70.1049
52.035
41.4429
35.7688
33.3434
33.4797
36.2376
42.1842
52.8866
71.0197
103.002
154.743
235.447
356.958
266.072
266.113
359.514
236.74
154.606
102.59
70.4422
52.0731
41.4298
35.7666
33.3231
33.5072
36.2295
42.1667
52.896
71.1189
102.307
154.587
235.975
357.187
266.061
266.132
359.474
237.354
155.034
102.162
70.7415
52.0477
41.3822
35.7615
33.3467
33.4715
36.2069
42.127
52.8668
71.1119
102.756
153.915
235.925
357.212
266.234
266.122
359.514
237.125
154.436
102.993
70.4943
51.8107
41.2347
35.7097
33.3242
33.4874
36.184
42.0973
52.8605
71.3539
102.278
154.539
235.9
357.128
266.2
266.554
359.557
236.632
155.105
102.956
70.9728
52.0634
41.322
35.7496
33.3505
33.4661
36.1522
42.0339
52.7719
70.9958
102.913
154.409
235.802
357.352
266.375
266.947
359.551
236.685
154.394
102.715
70.8364
51.8037
41.3779
35.7317
33.3118
33.4535
36.1178
41.9824
52.7229
71.3253
102.735
154.013
235.194
357.422
266.38
267.095
359.595
236.591
154.829
102.555
70.7181
51.8562
41.2882
35.6561
33.2834
33.4147
36.0767
41.9108
52.3961
70.7783
102.486
153.064
235.643
357.815
266.639
267.011
359.497
236.428
154.543
101.738
70.5164
51.9155
41.3497
35.6569
33.2657
33.3888
36.0454
41.8698
52.4061
70.8411
102.341
153.542
235.489
358.161
266.624
266.955
359.4
236.303
153.761
101.72
70.4012
51.8108
41.2774
35.615
33.2346
33.3526
35.9486
41.7187
52.2815
70.6058
101.633
153.76
234.651
358.042
266.365
266.85
359.32
236.438
153.712
101.596
69.9629
51.471
41.0896
35.5687
33.2074
33.324
35.9195
41.6752
52.1925
70.5247
101.952
153.064
235.003
358.292
266.19
266.728
359.088
236.215
153.442
101.783
70.1882
51.5085
41.0835
35.5481
33.1831
33.2992
35.865
41.6062
52.0997
70.3179
101.25
153.12
235.205
358.305
265.971
266.657
359.051
235.929
153.179
101.572
70.0416
51.3953
41.0156
35.4975
33.1565
33.2633
35.8205
41.5811
52.094
70.3105
101.184
151.982
234.415
358.201
265.764
266.523
358.929
235.622
152.846
101.268
69.8429
51.3668
40.9467
35.4667
33.1143
33.2148
35.7686
41.5005
51.9589
70.0711
100.423
151.902
234.369
358.147
265.592
266.385
358.682
235.266
152.461
100.989
69.6624
51.2012
40.8632
35.4094
33.0704
33.1686
35.7026
41.405
51.7988
69.6005
100.275
151.55
234.029
358.07
265.417
266.041
358.525
234.446
151.945
100.64
69.1224
51.1941
40.8668
35.3663
33.0209
33.1127
35.6366
41.313
51.6972
69.6868
99.9997
151.242
233.728
357.865
265.226
265.771
358.369
234.113
151.567
100.38
69.0778
51.0839
40.7337
35.3098
32.9757
33.0537
35.5462
41.1834
51.5279
69.4738
99.7141
150.879
233.46
357.903
264.886
265.398
358.076
233.624
150.939
100.03
68.7971
50.7864
40.6338
35.2501
32.9267
32.9946
35.4628
41.0281
51.3538
69.2348
99.4111
150.553
233.502
357.83
264.704
265.178
357.862
233.174
150.711
99.7461
68.6368
50.7043
40.5682
35.1899
32.8831
32.9412
35.3732
40.8476
50.979
68.6632
99.0258
150.226
233.174
357.791
264.293
264.929
357.692
232.661
150.276
99.0058
68.5364
50.5431
40.5184
35.1492
32.8376
32.8837
35.2865
40.7221
50.7898
68.4254
98.6817
150.083
232.805
357.849
263.985
264.697
357.49
232.198
150.056
98.9309
68.3449
50.5539
40.4728
35.1171
32.8094
32.8367
35.2004
40.5822
50.575
68.0881
98.302
149.427
232.364
357.657
263.532
264.398
357.242
231.728
149.514
98.4971
67.7415
50.3769
40.3894
35.0724
32.7721
32.7958
35.1482
40.5034
50.4113
67.8296
97.9225
149.174
231.43
357.212
263.113
264.131
357.065
231.052
148.365
97.5745
67.4149
50.0926
40.2619
34.9975
32.7305
32.7571
35.0956
40.4154
50.2711
67.5536
97.4794
148.123
231.033
357.202
262.881
263.836
356.813
230.602
147.936
97.166
67.2368
50.0167
40.1654
34.9373
32.6906
32.7303
35.0523
40.3304
50.106
67.2608
97.0575
147.691
230.516
357.069
262.454
263.489
356.426
229.943
147.231
96.657
66.8459
49.7369
40.0453
34.876
32.6448
32.6854
34.9789
40.1948
49.8384
66.9264
96.6073
147.198
230.15
356.921
262.054
263.123
356.196
229.361
146.508
96.1384
66.5283
49.5749
39.943
34.8202
32.6051
32.6369
34.9035
40.0524
49.6323
66.584
96.1233
146.604
229.605
356.657
261.638
262.653
355.867
228.653
145.8
95.5714
66.1728
49.3094
39.8294
34.7663
32.5657
32.5851
34.8287
39.9156
49.3762
66.1918
95.53
145.73
228.908
356.335
261.209
262.31
355.571
227.96
145.044
94.9545
65.8169
49.141
39.728
34.704
32.5162
32.5351
34.7489
39.7891
49.1537
65.7996
94.9423
145.032
228.21
356.073
260.831
262.018
355.311
227.161
144.216
94.259
65.4346
48.9124
39.6193
34.647
32.4743
32.4801
34.6583
39.6304
48.8809
65.3709
94.3296
144.21
227.599
356.032
260.534
261.606
355.015
226.559
143.534
93.7955
65.0839
48.712
39.5212
34.59
32.4295
32.4342
34.589
39.5062
48.671
65.0237
93.814
143.51
226.774
355.564
260.405
261.271
354.749
225.844
142.761
93.1836
64.6729
48.5179
39.4247
34.5457
32.4038
32.3933
34.5114
39.3566
48.4128
64.6239
93.239
142.75
226.096
355.313
260.141
260.748
354.431
225.083
141.999
92.6562
64.3636
48.3298
39.342
34.5129
32.3886
32.3698
34.4586
39.2513
48.2132
64.2725
92.6909
142.066
225.249
354.955
259.831
260.295
354.085
224.371
141.285
92.125
63.9717
48.117
39.2436
34.4662
32.357
32.33
34.3861
39.1139
47.98
63.8918
92.0826
141.324
224.596
354.57
259.38
259.762
353.653
223.625
140.55
91.5833
63.6508
47.9295
39.1469
34.4243
32.3389
32.3093
34.34
39.0139
47.7778
63.5247
91.5105
140.581
223.833
354.132
258.908
259.322
353.262
222.923
139.843
91.0714
63.3225
47.7546
39.0611
34.3915
32.3244
32.2873
34.2908
38.9108
47.5705
63.1492
90.9495
139.847
223.061
353.68
258.306
259.002
352.924
222.211
139.123
90.509
62.9525
47.5448
38.9612
34.3571
32.3124
32.2709
34.2431
38.8045
47.3658
62.7886
90.3677
139.119
222.323
353.334
257.888
258.654
352.555
221.408
138.323
89.9037
62.5693
47.3456
38.8826
34.3323
32.3039
32.2539
34.1972
38.7007
47.164
62.4308
89.8296
138.348
221.495
352.914
257.442
258.362
352.217
220.563
137.508
89.297
62.1932
47.1487
38.793
34.298
32.2916
32.2365
34.1477
38.5879
46.94
62.0346
89.1853
137.496
220.644
352.486
257.002
257.901
351.759
219.636
136.601
88.6314
61.7939
46.9333
38.6983
34.2576
32.2724
32.2156
34.1018
38.4829
46.7209
61.6341
88.5563
136.621
219.749
351.95
256.587
257.327
351.212
218.664
135.651
87.9318
61.3793
46.7214
38.5918
34.2093
32.2515
32.1955
34.0535
38.3707
46.4918
61.2062
87.8482
135.694
218.847
351.427
256.194
256.818
350.671
217.673
134.679
87.2345
60.9681
46.4999
38.4866
34.1651
32.2331
32.1755
34.004
38.2541
46.2517
60.7722
87.1532
134.72
217.871
350.964
255.924
256.141
350.045
216.617
133.677
86.5242
60.5531
46.2894
38.3869
34.124
32.2173
32.1588
33.9587
38.143
46.0136
60.3165
86.3935
133.703
216.827
350.435
255.542
255.623
349.501
215.568
132.681
85.82
60.136
46.07
38.2823
34.0772
32.1948
32.1367
33.9081
38.0254
45.7715
59.8697
85.674
132.712
215.801
349.962
255.308
255.053
348.878
214.478
131.652
85.0804
59.6897
45.8274
38.1603
34.0192
32.1657
32.1106
33.8582
37.9108
45.5286
59.4081
84.9021
131.623
214.68
349.326
254.939
254.664
348.343
213.408
130.635
84.3702
59.2608
45.586
38.0325
33.9544
32.128
32.0754
33.7994
37.7898
45.2839
58.9492
84.1475
130.585
213.599
348.728
254.573
254.2
347.714
212.296
129.604
83.6395
58.8088
45.321
37.8869
33.877
32.0814
32.0327
33.7351
37.6656
45.0449
58.515
83.4113
129.507
212.452
348.1
254.154
253.642
347.035
211.114
128.521
82.8919
58.3537
45.0592
37.7385
33.7935
32.0277
31.9801
33.6561
37.5247
44.7854
58.0522
82.6393
128.396
211.257
347.431
253.668
253.223
346.408
209.93
127.411
82.1412
57.8944
44.7708
37.5649
33.6929
31.9615
31.917
33.5662
37.3724
44.5186
57.5851
81.8448
127.225
209.97
346.778
253.14
252.652
345.683
208.697
126.267
81.358
57.4125
44.4845
37.3867
33.5809
31.8834
31.8427
33.4659
37.207
44.2369
57.1062
81.0361
126.057
208.671
346.064
252.539
252.167
344.973
207.42
125.064
80.5186
56.8947
44.166
37.1928
33.4581
31.7942
31.7568
33.3514
37.0254
43.9318
56.589
80.1816
124.805
207.3
345.302
251.919
251.637
344.274
206.082
123.842
79.6512
56.3569
43.8452
36.9922
33.3212
31.6902
31.6577
33.2268
36.8395
43.6354
56.0972
79.3598
123.55
205.905
344.464
251.288
251.15
343.592
204.664
122.542
78.7594
55.7983
43.5031
36.764
33.163
31.5704
31.5433
33.0828
36.6244
43.2972
55.5527
78.4531
122.194
204.404
343.592
250.557
250.517
342.792
203.157
121.166
77.8192
55.2139
43.1436
36.5371
33.0009
31.44
31.4185
32.9315
36.4119
42.9644
54.9895
77.5265
120.807
202.82
342.711
249.745
249.834
341.965
201.573
119.716
76.8288
54.6234
42.7808
36.2919
32.825
31.2957
31.2772
32.7643
36.1798
42.6004
54.3996
76.5517
119.332
201.129
341.779
248.929
248.917
341.058
199.834
118.153
75.7653
53.9722
42.3848
36.0361
32.6303
31.1376
31.1244
32.585
35.9327
42.235
53.7843
75.5197
117.752
199.284
340.69
247.868
247.88
340.062
197.963
116.517
74.6663
53.3005
41.96
35.7457
32.42
30.9601
30.9559
32.3909
35.6686
41.8304
53.1234
74.4454
116.108
197.321
339.457
246.629
246.587
338.898
195.9
114.756
73.4911
52.5575
41.4948
35.44
32.1929
30.7678
30.7609
32.1726
35.3946
41.4169
52.4301
73.3102
114.354
195.2
338.085
245.267
245.087
337.566
193.66
112.888
72.2601
51.7952
41.0113
35.1168
31.9543
30.5575
30.5526
31.9389
35.0876
40.9513
51.6935
72.1121
112.51
192.931
336.542
243.765
243.456
335.977
191.226
110.884
70.9625
50.9828
40.5049
34.7821
31.6966
30.3329
30.3306
31.6892
34.7662
40.4795
50.9396
70.8704
110.58
190.521
334.802
242.143
241.495
334.119
188.563
108.746
69.5868
50.1528
39.9804
34.4107
31.4085
30.0788
30.0762
31.4039
34.4071
39.9739
50.1417
69.5391
108.509
187.875
332.821
240.31
239.42
332.033
185.628
106.444
68.1451
49.2964
39.4386
34.0261
31.1008
29.8056
29.8024
31.0958
34.0163
39.4193
49.283
68.1619
106.333
185.023
330.666
238.448
236.931
329.495
182.363
103.978
66.647
48.3942
38.8477
33.5953
30.7517
29.4881
29.4873
30.753
33.6028
38.8552
48.4085
66.6846
103.966
181.837
328.026
236.129
234.111
326.426
178.731
101.354
65.0664
47.4197
38.1983
33.131
30.3764
29.1465
29.1468
30.3745
33.1382
38.2269
47.471
65.1638
101.464
178.396
325.042
233.751
230.978
322.742
174.748
98.6136
63.3931
46.3839
37.5065
32.6149
29.9525
28.7632
28.7652
29.9629
32.6491
37.578
46.4948
63.5423
98.7377
174.522
321.4
230.786
227.384
318.234
170.341
95.6555
61.6374
45.3048
36.7783
32.067
29.4906
28.3346
28.3342
29.493
32.0865
36.8405
45.4268
61.8332
95.8593
170.303
317.209
227.688
223.416
312.973
165.565
92.5597
59.8049
44.1778
36.0149
31.4782
28.9844
27.863
27.8648
28.9907
31.5012
36.0773
44.3117
60.0164
92.7989
165.577
312.029
223.802
219.082
306.921
160.389
89.306
57.8987
42.9962
35.1875
30.8231
28.4162
27.3356
27.3406
28.4353
30.8655
35.2687
43.143
58.1414
89.5999
160.512
306.168
219.777
214.487
300.097
154.918
85.9968
55.9792
41.7867
34.3233
30.1288
27.8063
26.7604
26.7668
27.8285
30.1768
34.411
41.9353
56.2135
86.2847
155.047
299.337
215.15
209.833
292.507
149.214
82.6652
54.067
40.5653
33.4304
29.3959
27.1528
26.1431
26.153
27.1851
29.4566
33.5311
40.7232
54.2935
82.9262
149.37
291.94
210.641
205.283
284.251
143.394
79.3826
52.2028
39.3499
32.516
28.6302
26.4623
25.4853
25.4976
26.5012
28.6998
32.6207
39.493
52.3872
79.5919
143.477
283.702
205.882
201.065
275.483
137.543
76.1617
50.3786
38.1469
31.5932
27.8459
25.7485
24.8037
24.8196
25.7978
27.9312
31.7173
38.3073
50.5686
76.3628
137.623
275.078
201.634
197.425
266.392
131.791
73.1117
48.6285
36.9629
30.6715
27.0544
25.0226
24.1063
24.1242
25.0775
27.1485
30.8071
37.137
48.8199
73.2677
131.813
265.995
197.663
194.516
257.093
126.145
70.1983
46.9691
35.8338
29.7799
26.2783
24.3049
23.4145
23.4341
24.3645
26.3788
29.9207
36.008
47.157
70.3596
126.194
256.829
194.455
192.494
247.735
120.678
67.4459
45.4052
34.7572
28.9202
25.5257
23.6067
22.7393
22.7586
23.6659
25.6271
29.0649
34.9403
45.6058
67.6193
120.739
247.524
191.828
191.943
238.281
115.377
64.8578
43.9451
33.7511
28.114
24.8169
22.9468
22.0998
22.1174
23.0006
24.9094
28.2464
33.9205
44.1363
65.0382
115.484
238.163
189.799
189.036
228.622
110.25
62.4425
42.5938
32.8175
27.3642
24.1565
22.3311
21.5022
21.5172
22.377
24.2367
27.4819
32.974
42.7786
62.6273
110.398
228.642
188.019
187.783
218.987
105.345
60.2001
41.3666
31.9767
26.6866
23.5559
21.768
20.9535
20.9648
21.8027
23.6165
26.7757
32.0961
41.5102
60.3485
105.476
219.067
186.46
185.403
209.265
100.634
58.1134
40.2372
31.205
26.0659
23.0063
21.2528
20.4512
20.4593
21.2774
23.05
26.131
31.2937
40.345
58.2217
100.716
209.328
184.922
184.489
199.642
96.1677
56.2096
39.2297
30.5181
25.508
22.5072
20.7819
19.991
19.9961
20.7975
22.5352
25.5503
30.5768
39.3031
56.2847
96.2222
199.66
183.737
182.647
190.095
91.9307
54.4767
38.3219
29.8913
24.9917
22.0419
20.3416
19.5605
19.5634
20.3505
22.0581
25.0169
29.927
38.3688
54.5287
91.9748
190.079
182.725
182.859
180.921
88.009
52.9445
37.5134
29.3145
24.5047
21.598
19.9205
19.1492
19.1507
19.9251
21.6064
24.5182
29.3339
37.5405
52.9785
88.0499
180.931
182.786
184.747
172.333
84.4333
51.6087
36.7773
28.7609
24.0252
21.1583
19.5042
18.7438
18.7445
19.5063
21.1622
24.0318
28.7704
36.791
51.6263
84.4581
172.388
184.736
188.075
164.372
81.3745
50.4559
36.0847
28.2067
23.5358
20.7102
19.0828
18.3357
18.3359
19.0837
20.7117
23.5389
28.2115
36.0922
50.4651
81.3748
164.359
187.989
194.086
157.238
78.8148
49.4376
35.3948
27.6246
23.0187
20.2419
18.6482
17.9183
17.9183
18.6483
20.242
23.0196
27.6266
35.3993
49.4469
78.8267
157.278
194.087
202.219
150.832
76.9312
48.5174
34.6714
26.9922
22.4617
19.7471
18.1974
17.4903
17.4902
18.1974
19.7472
22.4626
26.9948
34.6766
48.5252
76.9295
150.806
202.145
213.427
145.752
75.3606
47.5791
33.8687
26.2892
21.8559
19.2233
17.7314
17.0538
17.0538
17.7314
19.2234
21.8566
26.2917
33.8748
47.593
75.3872
145.784
213.481
227.251
141.857
74.119
46.5937
32.9592
25.5009
21.1964
18.6716
17.2548
16.6154
16.6154
17.2548
18.672
21.1972
25.5031
32.9633
46.5994
74.1212
141.824
227.218
244.399
139.462
73.0363
45.4486
31.8924
24.6077
20.4787
18.0955
16.7751
16.1842
16.1841
16.775
18.0956
20.4792
24.6092
31.896
45.4561
73.0518
139.471
244.432
265.093
138.52
71.9152
44.0302
30.6173
23.591
19.7008
17.5011
16.3028
15.7727
15.7726
16.3027
17.5009
19.7008
23.5916
30.6193
44.0341
71.9203
138.517
265.055
288.356
138.171
70.361
42.1903
29.0824
22.4382
18.8662
16.8996
15.8527
15.3968
15.3967
15.8524
16.8991
18.8656
22.4374
29.0823
42.1915
70.3639
138.167
288.33
314.878
138.21
68.1369
39.8149
27.2492
21.1458
17.987
16.3089
15.4444
15.0757
15.0756
15.4442
16.3086
17.9865
21.1455
27.2502
39.8192
68.1465
138.21
314.886
343.04
137.899
64.7099
36.73
25.0854
19.7286
17.0907
15.7571
15.104
14.8362
14.8362
15.1039
15.7566
17.0898
19.7275
25.0848
36.7309
64.7153
137.903
342.952
372.862
135.45
59.432
32.7801
22.6008
18.237
16.2279
15.2804
14.861
14.712
14.712
14.8609
15.2802
16.2272
18.2366
22.6014
32.7833
59.4431
135.477
372.897
402.401
127.789
51.1806
27.8226
19.8642
16.7646
15.4755
14.9582
14.7555
14.6779
14.6779
14.7555
14.9581
15.4754
16.7651
19.8641
27.8222
51.1794
127.786
402.358
432.71
107.333
38.6121
21.9338
17.0637
15.4929
14.9847
14.8105
14.7307
14.7011
14.7012
14.7312
14.8118
14.9865
15.4941
17.0641
21.9338
38.6148
107.341
432.723
466.398
57.3791
21.6804
16.2875
15.2326
14.9468
14.8448
14.8046
14.7968
14.7964
14.7964
14.7968
14.8048
14.8452
14.9476
15.2338
16.2884
21.6797
57.3769
466.395
773.998
1129.51
766.834
482.882
290.701
174.221
109.855
77.0441
60.8288
54.1461
54.1592
61.0279
77.5053
110.497
173.929
289.254
478.895
759.864
1123.69
764.325
771.368
1128.12
764.127
479.74
288.081
172.523
107.349
75.6546
59.9456
53.488
53.4632
60.1916
76.9898
109.543
172.265
283.881
472.336
756.229
1123.33
762.927
767.628
1125.38
758.372
473.238
282.25
170.909
107.79
76.0048
60.1502
53.6934
53.6517
60.7276
76.6622
107.494
169.106
288.223
477.625
757.876
1123.8
760.595
767.795
1127.97
762.707
477.202
284.947
170.038
108.007
76.1635
60.2567
53.8466
53.6986
60.5849
76.3768
108.815
171.654
287.077
476.106
752.428
1123.18
766.625
765.644
1124.72
760.521
470.151
278.893
166.161
107.197
75.7879
59.5358
53.7007
53.2755
60.3351
75.1356
106.484
167.569
284.95
473.99
758.221
1120.83
765.559
765.102
1127.29
759.058
472.433
279.184
167.865
105.51
74.7853
59.8904
53.6615
53.715
60.2969
75.945
106.713
168.507
283.243
471.864
756.888
1124.41
764.722
767.089
1129.5
756.407
465.268
277.815
167.047
106.47
75.1646
59.284
53.4831
53.5485
60.0773
74.9988
105.832
164.246
277.946
464.36
755.269
1124.05
761.591
766.253
1129.13
749.957
469.227
278.708
165.959
105.836
74.7766
59.2359
53.3201
53.3366
59.8993
75.477
105.756
165.815
280.416
464.257
753.913
1123.29
760.962
765.089
1129.27
754.573
466.955
276.475
164.446
104.972
73.6163
59.0114
53.182
52.8698
59.1377
75.1879
105.379
165.959
279.165
462.453
752.634
1122.45
760.635
760.829
1128.98
752.058
459.534
270.645
162.702
104.308
73.7273
59.0872
53.043
53.2234
59.3345
74.8571
104.916
166.549
277.913
461.958
751.181
1119.5
761.155
761.176
1128.3
746.275
458.533
270.039
161.298
102.392
72.5523
58.4287
52.5136
53.0401
59.4804
74.5688
104.37
165.246
276.184
463.34
749.512
1121.52
762.308
759.458
1128.35
747.985
455.055
267.426
159.195
102.539
72.8087
58.8824
52.862
52.6213
59.2529
74.1189
103.423
161.585
270.685
460.948
744.378
1123.32
761.046
757.968
1127.68
744.992
452.938
265.692
157.229
100.772
72.308
58.6763
52.7333
52.828
58.9784
73.7306
102.924
162.125
272.198
458.22
743.638
1123.17
756.998
756.271
1126.6
741.176
447.207
265.652
158.006
101.427
72.3994
58.5206
52.2211
52.2873
58.6617
72.669
101.976
160.507
269.916
451.509
741.456
1121.06
757.711
753.417
1122.37
737.851
445.041
263.361
157.529
99.6427
72.5295
58.3194
52.136
52.214
58.1158
72.3847
100.969
156.618
265.078
454.591
739.858
1123.82
758.075
751.11
1123.01
733.207
441.085
257.891
156.18
100.472
72.2846
58.0896
51.9569
52.1564
57.9766
72.2418
100.414
155.339
265.338
452.294
738.405
1123.33
757.044
749.216
1123.99
728.687
438.619
256.018
153.21
99.8905
71.8212
57.8173
51.7679
51.9601
57.7126
71.7983
98.8787
153.73
263.143
446.021
736.984
1120.85
754.162
744.867
1123.11
727.018
435.668
252.754
152.146
98.3275
71.3719
57.539
51.569
51.6469
57.3514
70.8777
98.209
152.084
261.01
445.974
736.818
1123.77
754.318
743.65
1121.73
723.46
430.445
249.623
150.733
97.846
70.9364
56.8899
51.422
51.4302
57.089
70.5757
97.4548
150.846
258.938
446.277
738.182
1122.96
754.057
741.541
1117.56
721.229
424.661
249.307
150.213
97.0773
70.5759
56.7658
51.5014
51.4884
56.8483
69.9975
96.6411
149.182
253.22
443.277
735.867
1121.74
752.873
738.21
1118.85
713.627
420.944
244.761
147.266
96.1119
69.7098
56.7292
51.3426
51.293
56.4194
69.6014
96.1836
148.015
251.521
440.048
733.199
1117.02
749.462
733.932
1113.96
709.732
417.376
242.415
146.089
95.184
69.3898
56.4387
50.8773
50.8497
56.1722
69.062
95.2623
146.919
248.348
436.876
730.856
1120.42
750.003
730.31
1114.38
706.603
414.984
240.215
144.697
94.2222
68.8302
56.111
50.7575
50.7478
55.9978
68.629
94.3618
145.501
244.905
429.69
723.552
1121.72
748.584
727.365
1110.08
704.045
412.696
238.461
142.67
93.2062
68.3549
55.8076
50.3247
50.3339
55.6567
68.0664
93.3472
143.17
244.038
429.21
723.118
1124.3
744.922
724
1111.78
705.261
411.81
235.605
140.618
92.2186
67.7207
55.2906
50.086
50.1158
55.344
67.6224
92.4604
141.829
240.735
426.014
715.76
1121.35
743.22
722.085
1107.97
703.723
407.69
232.557
139.276
91.4435
67.262
55.0119
49.8337
49.7782
54.8523
67.1485
91.6321
140.067
239.153
419.662
714.342
1123.45
740.816
720.16
1107.62
700.882
405.865
229.995
137.575
90.4642
66.6264
54.599
49.5584
49.5195
54.552
66.6478
90.8101
138.666
236.62
418.79
711.165
1125.23
736.043
720.379
1105.84
694.184
400.829
226.987
135.794
89.635
66.0979
54.2271
49.2656
49.2609
54.2211
66.1302
89.928
137.157
234.2
415.84
709.937
1125.03
734.174
721.834
1104.73
691.705
395.236
223.691
134.018
88.7059
65.6074
53.9078
48.9497
48.879
53.807
65.5774
89.0471
135.669
231.097
408.95
709.859
1124.48
731.728
720.745
1103.32
687.417
392.186
221.056
132.701
87.9299
65.0719
53.5577
48.649
48.5999
53.4354
65.0116
88.1722
134.173
227.96
403.882
706.205
1123.64
729.787
719.447
1102.97
682.628
388.049
218.355
131.098
87.1594
64.6122
53.2394
48.3896
48.2714
53.0527
64.4855
87.3793
132.49
223.461
399.667
697.992
1119.72
727.672
714.811
1097.18
677.652
383.921
215.655
129.807
86.4055
64.1075
52.8835
48.0964
48.0211
52.7129
64.0071
86.5287
130.957
220.503
394.24
693.14
1120.57
724.117
713.389
1095.99
672.271
379.672
213.287
128.415
85.6783
63.7009
52.5668
47.8291
47.7351
52.3866
63.5082
85.7249
129.426
217.239
388.794
687.768
1118.68
719.708
710.69
1093.11
666.719
374.583
210.617
127.125
84.9462
63.25
52.2251
47.5336
47.4654
52.0231
62.9875
84.8789
127.854
213.796
382.494
681.239
1116.77
715.935
708.539
1089.85
660.407
370.615
208.276
125.786
84.2013
62.8053
51.9065
47.242
47.166
51.6942
62.519
84.0905
126.376
211.159
378.077
675.202
1115.25
713.394
706.479
1086.82
655.678
366.339
205.641
124.413
83.4436
62.3237
51.5267
46.9204
46.8443
51.3172
61.9858
83.2592
124.923
208.357
373.713
670.906
1113.54
709.627
703.381
1082.74
649.212
361.407
203.177
123.109
82.6809
61.8282
51.1611
46.5883
46.5167
50.9478
61.4664
82.3796
123.376
205.585
368.848
665.552
1111.8
706.987
699.667
1078.94
643.77
357.256
200.87
121.819
81.9416
61.3371
50.7861
46.2649
46.1906
50.5487
60.9131
81.4964
121.881
203.014
364.783
660.359
1107.48
703.232
696.498
1075.59
638.111
352.9
198.403
120.527
81.2069
60.8658
50.4321
45.9473
45.8627
50.1497
60.379
80.6337
120.257
199.957
359.735
655.399
1107.68
700.285
693.254
1074.8
633.204
348.973
196.136
119.294
80.5322
60.4262
50.0979
45.6329
45.5243
49.7599
59.8537
79.7823
118.718
197.19
355.179
649.794
1105.34
695.917
690.083
1076.17
628.413
344.603
193.594
118
79.8438
59.9782
49.7387
45.3085
45.1967
49.375
59.3267
78.9336
117.215
194.339
350.212
644.138
1099.68
692.416
687.691
1069.64
623.532
340.98
191.46
116.86
79.2052
59.541
49.4027
45.0109
44.877
48.9951
58.8288
78.1676
115.785
191.582
345.862
638.921
1098.08
688.449
685.303
1070.66
618.937
336.808
189.063
115.61
78.5215
59.1068
49.0459
44.674
44.5349
48.6061
58.2958
77.3239
114.268
188.632
340.879
632.955
1092.46
685.01
683.172
1063.12
613.768
333.276
187.011
114.484
77.8367
58.6276
48.6695
44.3308
44.174
48.1852
57.7511
76.4888
112.742
185.783
336.148
627.307
1089.27
681.08
681.412
1059.88
608.965
329.36
184.692
113.256
77.1382
58.1661
48.2988
43.9891
43.8277
47.793
57.2341
75.6819
111.286
182.898
331.238
621.275
1084.66
677.499
679.257
1055.22
603.697
325.453
182.433
112.02
76.3943
57.6494
47.8885
43.611
43.4346
47.3424
56.6489
74.8033
109.772
180.111
326.166
614.656
1079.38
673.211
677.206
1050.25
598.319
321.361
180.06
110.762
75.6659
57.1566
47.4984
43.2523
43.062
46.9084
56.081
73.9523
108.269
177.219
321.31
608.356
1075.37
669.799
674.214
1045.64
592.664
317.2
177.745
109.514
74.9074
56.6325
47.0776
42.8603
42.6585
46.4485
55.4883
73.0709
106.736
174.315
315.842
601.116
1071.45
665.678
672.221
1041.24
587.315
313.187
175.411
108.248
74.1599
56.1174
46.6671
42.4815
42.2641
45.9932
54.899
72.1783
105.165
171.334
310.742
594.241
1066.83
661.744
668.838
1036.61
581.235
308.792
172.979
106.95
73.3828
55.5771
46.2313
42.0801
41.8496
45.5235
54.3128
71.3125
103.675
168.465
305.325
586.772
1061.89
656.785
665.642
1031.87
575.128
304.503
170.537
105.609
72.5831
55.0296
45.7889
41.6711
41.431
45.0443
53.6954
70.391
102.073
165.443
299.94
579.581
1056.89
652.155
662.556
1026.47
568.796
299.964
167.99
104.235
71.7561
54.4508
45.3265
41.258
41.0115
44.5706
53.0914
69.515
100.593
162.578
294.445
571.493
1050.94
646.346
659.146
1021.44
562.583
295.524
165.456
102.829
70.9033
53.8594
44.8527
40.8303
40.5821
44.0769
52.4526
68.5691
98.9683
159.489
288.781
563.429
1045.04
640.404
655.161
1015.73
555.687
290.714
162.776
101.363
70.0123
53.243
44.3731
40.4043
40.154
43.5859
51.8147
67.6408
97.4128
156.572
283.391
555.51
1039.02
634.565
651.206
1010.89
548.998
285.961
160.088
99.8182
69.0573
52.5901
43.8601
39.9482
39.6942
43.0669
51.1409
66.6329
95.7314
153.473
277.649
547.082
1032.55
628.482
646.44
1004.78
541.414
280.83
157.263
98.2504
68.0869
51.9158
43.3377
39.491
39.232
42.5347
50.4431
65.607
94.0629
150.452
272.118
538.967
1026.39
622.545
642.284
999.584
534.3
275.746
154.351
96.5946
67.0632
51.1938
42.7695
38.9964
38.7428
41.9737
49.7114
64.5452
92.3271
147.285
266.238
530.294
1019.82
616.896
637.15
993.519
526.495
270.322
151.301
94.8758
65.9865
50.4378
42.1843
38.4905
38.24
41.405
48.9762
63.4711
90.5791
144.185
260.679
522.291
1014.11
611.999
633.217
988.546
518.973
264.84
148.114
93.0361
64.8275
49.6222
41.5572
37.9465
37.7084
40.8124
48.2167
62.3492
88.7544
140.927
254.777
513.871
1008.28
607.552
628.862
983.548
510.776
258.898
144.693
91.0417
63.5899
48.7734
40.8964
37.3779
37.1586
40.2012
47.4385
61.2406
86.9878
137.758
248.926
505.301
1002.69
603.395
624.333
978.832
502.241
252.662
141.095
88.9176
62.2391
47.8496
40.1928
36.7697
36.5726
39.5575
46.6345
60.1063
85.1769
134.491
242.891
496.331
996.702
598.493
619.774
973.909
493.129
245.977
137.261
86.6707
60.7968
46.8506
39.4381
36.1292
35.9564
38.887
45.7984
58.9484
83.3561
131.199
236.671
486.784
990.49
593.513
613.99
968.434
482.818
238.519
133.035
84.2275
59.2526
45.7856
38.6259
35.4383
35.2977
38.1724
44.9248
57.7484
81.4554
127.817
230.231
476.428
982.971
586.637
607.472
962.228
471.593
230.624
128.567
81.6527
57.6256
44.6547
37.7556
34.7026
34.599
37.4124
43.9781
56.426
79.3977
124.189
223.284
465.125
974.763
579.305
598.324
953.593
458.514
221.849
123.614
78.8049
55.8657
43.4354
36.8214
33.9065
33.8376
36.5901
42.976
55.035
77.2274
120.403
215.904
452.34
963.773
569.462
586.722
942.715
443.913
212.617
118.467
75.8104
53.9778
42.1326
35.8289
33.0624
33.0259
35.7032
41.8694
53.5012
74.8601
116.266
207.876
438.149
950.421
557.117
571.936
928.249
427.159
202.618
113
72.6609
51.9838
40.749
34.7752
32.1596
32.1516
34.7468
40.6904
51.8701
72.3544
111.917
199.391
422.537
934.077
543.339
553.381
909.295
408.642
192.188
107.46
69.359
49.8784
39.3066
33.6669
31.2009
31.2201
33.7276
39.4351
50.1254
69.6787
107.335
190.399
405.355
914.005
526.402
533.11
886.492
388.486
181.194
101.678
66.0217
47.7416
37.8027
32.4982
30.1882
30.2298
32.6353
38.0787
48.2622
66.8762
102.565
181.081
387.027
890.32
508.512
509.605
858.565
366.953
170.04
95.8203
62.5652
45.513
36.2288
31.2734
29.1257
29.1866
31.4834
36.6552
46.2951
63.8881
97.5611
171.381
367.313
862.149
488.009
486.463
826.974
344.622
158.812
89.9567
59.1286
43.2625
34.6175
30.0112
28.018
28.0922
30.2629
35.1369
44.2207
60.7866
92.4007
161.445
346.811
830.364
467.695
461.011
790.431
321.566
147.549
84.0049
55.6003
40.9685
32.9872
28.7265
26.8803
26.9586
28.9964
33.5656
42.0569
57.5075
86.9742
151.176
325.207
794.164
446.122
437.18
750.822
298.66
136.735
78.2539
52.1458
38.6966
31.3394
27.4085
25.7079
25.7883
27.6895
31.9296
39.7875
54.067
81.3062
140.697
302.931
754.049
424.344
412.704
707.363
275.372
125.853
72.4609
48.6598
36.4118
29.6989
26.0912
24.5305
24.6119
26.3681
30.2778
37.4967
50.5879
75.5869
130.062
280.119
710.401
402.985
389.384
661.061
252.456
115.522
67.0253
45.3637
34.2023
28.0804
24.7851
23.3592
23.4378
25.0483
28.6175
35.1795
47.062
69.7669
119.373
257.024
662.861
380.811
366.856
612.049
229.808
105.358
61.6808
42.1644
32.0753
26.5226
23.5231
22.2232
22.2968
23.7634
27.0036
32.9458
43.6579
64.1157
108.997
234.4
613.772
360.492
345.562
561.762
208.135
96.0102
56.7802
39.2067
30.0864
25.0497
22.3248
21.1435
21.2127
22.5463
25.473
30.8118
40.4133
58.7428
99.0436
212.295
563.531
341.532
327.142
512.055
187.693
87.3127
52.2312
36.4798
28.2681
23.7079
21.2323
20.1565
20.2168
21.4237
24.0664
28.8684
37.471
53.8689
89.9807
191.751
514.563
325.88
312.98
464.899
169.368
79.7582
48.3006
34.0915
26.6558
22.5142
20.2613
19.2796
19.3298
20.4196
22.8088
27.1434
34.8815
49.606
81.985
173.108
468.17
315.059
306.671
421.903
153.521
73.2817
44.9477
32.0637
25.286
21.4968
19.4298
18.5248
18.5642
19.5537
21.7253
25.6604
32.6737
45.978
75.077
156.707
425.525
309.536
302.294
383.791
140.29
68.0068
42.2267
30.3954
24.1438
20.6418
18.7277
17.8859
17.9151
18.819
20.8094
24.4158
30.8348
42.974
69.3263
142.661
387.123
308.498
302.75
350.374
129.287
63.7693
40.0361
29.043
23.2104
19.9376
18.1472
17.3568
17.3767
18.2097
20.0523
23.394
29.3353
40.5286
64.6021
130.702
352.553
302.987
301.333
320.753
119.856
60.2457
38.2371
27.9237
22.4311
19.349
17.6635
16.9172
16.9291
17.7012
19.4193
22.5438
28.098
38.5182
60.6763
120.435
321.565
302.581
300.851
294.061
111.532
57.3128
36.7509
26.9893
21.7753
18.8527
17.2578
16.5513
16.5577
17.2782
18.8914
21.8401
27.0897
36.8994
57.5235
111.839
294.51
300.507
302.029
270.061
104.038
54.7478
35.4412
26.1558
21.1889
18.4135
16.9048
16.2378
16.241
16.9148
18.4316
21.2202
26.2071
35.5175
54.8423
104.102
269.99
302.803
306.85
247.748
97.6834
52.5176
34.261
25.3931
20.651
18.0142
16.59
15.9632
15.965
16.5961
18.0246
20.6669
25.4183
34.3133