/*--------------------------------*- C++ -*----------------------------------*\
  =========                 |
  \\      /  F ield         | OpenFOAM: The Open Source CFD Toolbox
   \\    /   O peration     | Website:  https://openfoam.org
    \\  /    A nd           | Version:  6
     \\/     M anipulation  |
\*---------------------------------------------------------------------------*/
FoamFile
{
    version     2.0;
    format      ascii;
    class       volScalarField;
    location    "27";
    object      k;
}
// * * * * * * * * * * * * * * * * * * * * * * * * * * * * * * * * * * * * * //

dimensions      [0 2 -2 0 0 0 0];

internalField   nonuniform List<scalar> 
130000
(
0.373231
0.370539
0.367709
0.364786
0.361773
0.358682
0.355531
0.352348
0.349161
0.346005
0.342914
0.339922
0.33706
0.334357
0.331836
0.329516
0.327411
0.325531
0.32388
0.32246
0.373525
0.37084
0.368014
0.365091
0.362073
0.358973
0.355811
0.352614
0.349413
0.346242
0.343137
0.340132
0.337257
0.334543
0.332012
0.329684
0.327572
0.325687
0.324033
0.322611
0.373822
0.371145
0.368322
0.365397
0.362372
0.359261
0.356085
0.352873
0.349655
0.346468
0.343345
0.340323
0.337434
0.334706
0.332164
0.329825
0.327706
0.325814
0.324154
0.322728
0.374093
0.37142
0.368598
0.365668
0.362635
0.359513
0.356324
0.353095
0.349861
0.346657
0.343518
0.34048
0.337574
0.334831
0.332273
0.329921
0.32779
0.325889
0.324223
0.322792
0.374311
0.371642
0.368818
0.365883
0.362842
0.359709
0.356507
0.353264
0.350014
0.346792
0.343634
0.340576
0.337652
0.334889
0.332317
0.329954
0.327814
0.325906
0.324234
0.3228
0.374479
0.371807
0.368979
0.366038
0.362988
0.359844
0.356627
0.353367
0.350097
0.346853
0.343677
0.340604
0.337666
0.334891
0.33231
0.32994
0.327795
0.325883
0.32421
0.322775
0.374603
0.371925
0.369089
0.366137
0.363075
0.359915
0.356678
0.353399
0.350112
0.346853
0.343665
0.340582
0.337638
0.334861
0.332277
0.329905
0.327759
0.325848
0.324176
0.322743
0.374694
0.372006
0.369157
0.366191
0.36311
0.359931
0.356676
0.353383
0.350084
0.346818
0.343623
0.340535
0.337587
0.334808
0.332223
0.329852
0.327707
0.325799
0.32413
0.322702
0.374766
0.372063
0.369198
0.366215
0.363113
0.359916
0.356649
0.353344
0.350035
0.346761
0.343559
0.340466
0.337515
0.334736
0.332152
0.329783
0.327642
0.325738
0.324075
0.322652
0.37483
0.372109
0.369226
0.366225
0.363103
0.359889
0.356607
0.353289
0.349969
0.346687
0.343479
0.340382
0.33743
0.334651
0.332069
0.329703
0.327567
0.325669
0.324012
0.322595
0.374893
0.372152
0.369247
0.366224
0.363085
0.359855
0.356557
0.353225
0.349894
0.346603
0.343389
0.340289
0.337335
0.334557
0.331978
0.329617
0.327486
0.325594
0.323944
0.322535
0.37496
0.372198
0.369271
0.366225
0.363069
0.35982
0.356506
0.353159
0.349816
0.346515
0.343295
0.34019
0.337235
0.334458
0.331882
0.329526
0.327401
0.325516
0.323874
0.322473
0.375035
0.372253
0.369304
0.366237
0.363061
0.359791
0.356458
0.353095
0.349739
0.346428
0.3432
0.340091
0.337135
0.334359
0.331786
0.329434
0.327316
0.325438
0.323803
0.32241
0.375122
0.372318
0.369347
0.366258
0.36306
0.359769
0.356416
0.353036
0.349666
0.346344
0.343108
0.339995
0.337037
0.334261
0.331691
0.329344
0.327231
0.325361
0.323734
0.322349
0.375221
0.372396
0.369402
0.366288
0.363066
0.359758
0.356385
0.352986
0.3496
0.346266
0.343022
0.339904
0.336943
0.334167
0.3316
0.329257
0.32715
0.325286
0.323667
0.322291
0.375335
0.372488
0.36947
0.366332
0.363086
0.359756
0.356364
0.352947
0.349545
0.346198
0.342944
0.339819
0.336855
0.334079
0.331513
0.329174
0.327073
0.325216
0.323604
0.322236
0.375466
0.372597
0.369555
0.366391
0.36312
0.359765
0.356357
0.35292
0.3495
0.34614
0.342875
0.339743
0.336775
0.333998
0.331434
0.329098
0.327001
0.32515
0.323545
0.322184
0.375614
0.372724
0.369657
0.366467
0.36317
0.359789
0.356358
0.352905
0.349469
0.346093
0.342817
0.339677
0.336704
0.333925
0.331361
0.329028
0.326936
0.32509
0.323492
0.322138
0.375781
0.37287
0.369778
0.366561
0.363236
0.359829
0.356371
0.352901
0.34945
0.346059
0.342771
0.339621
0.336643
0.333861
0.331296
0.328965
0.326877
0.325036
0.323444
0.322096
0.375968
0.373036
0.369919
0.366674
0.363321
0.359886
0.356402
0.352908
0.349442
0.346037
0.342736
0.339577
0.336592
0.333806
0.331241
0.32891
0.326825
0.324989
0.323401
0.32206
0.376175
0.373222
0.37008
0.366807
0.363425
0.359961
0.356451
0.352932
0.349445
0.34603
0.342715
0.339545
0.336552
0.333762
0.331194
0.328865
0.326781
0.324949
0.323366
0.32203
0.376403
0.37343
0.370262
0.366961
0.363549
0.360056
0.356518
0.352973
0.349464
0.346031
0.342707
0.339526
0.336525
0.333729
0.331159
0.328829
0.326747
0.324918
0.32334
0.322008
0.376654
0.37366
0.370467
0.367136
0.363694
0.36017
0.356602
0.353031
0.349497
0.346043
0.342707
0.339519
0.336512
0.333711
0.331137
0.328805
0.326725
0.324898
0.323325
0.321999
0.376926
0.373914
0.370695
0.367335
0.363861
0.360305
0.356707
0.353107
0.349548
0.346071
0.342716
0.33952
0.336506
0.333702
0.331127
0.328795
0.326715
0.324891
0.32332
0.321996
0.377223
0.374192
0.370947
0.367558
0.364051
0.360463
0.356833
0.353203
0.349617
0.346116
0.342741
0.339527
0.336503
0.333696
0.33112
0.32879
0.32671
0.324884
0.323314
0.321987
0.377545
0.374496
0.371227
0.367806
0.364267
0.360645
0.356982
0.353321
0.349706
0.346181
0.342784
0.339552
0.336514
0.333695
0.331113
0.328781
0.326702
0.324873
0.323303
0.321976
0.377895
0.374829
0.371535
0.368084
0.36451
0.360854
0.357156
0.353463
0.349818
0.346265
0.342846
0.339594
0.33654
0.333709
0.331118
0.32878
0.326701
0.324873
0.323301
0.321977
0.378273
0.375192
0.371873
0.368391
0.364783
0.361091
0.357358
0.35363
0.349954
0.346374
0.342929
0.339656
0.336585
0.333739
0.331137
0.32879
0.326705
0.324876
0.323302
0.321978
0.378682
0.375587
0.372244
0.368732
0.365089
0.36136
0.35759
0.353828
0.350119
0.346509
0.343039
0.339744
0.336654
0.333793
0.331177
0.328819
0.326723
0.324889
0.323312
0.321986
0.379124
0.376018
0.372652
0.369109
0.365431
0.361664
0.357857
0.354058
0.350316
0.346675
0.343178
0.33986
0.33675
0.333873
0.331245
0.328877
0.326773
0.324933
0.323353
0.322025
0.379603
0.376487
0.373099
0.369526
0.365812
0.362007
0.358162
0.354325
0.350548
0.346876
0.34335
0.340007
0.336878
0.333984
0.331342
0.328963
0.326851
0.325006
0.323421
0.32209
0.380121
0.376998
0.37359
0.369987
0.366237
0.362394
0.358508
0.354633
0.350819
0.347114
0.343559
0.340191
0.337039
0.334127
0.331471
0.32908
0.326959
0.325106
0.323516
0.32218
0.380682
0.377556
0.374129
0.370496
0.366711
0.362828
0.358901
0.354986
0.351135
0.347394
0.343808
0.340413
0.337238
0.334307
0.331634
0.329231
0.327099
0.325237
0.32364
0.322297
0.381291
0.378164
0.374721
0.37106
0.367238
0.363314
0.359346
0.35539
0.351499
0.347722
0.344103
0.340679
0.337479
0.334526
0.331836
0.329418
0.327274
0.325402
0.323795
0.322444
0.381953
0.378829
0.375371
0.371682
0.367824
0.363859
0.359848
0.355849
0.351917
0.348102
0.344448
0.340993
0.337767
0.334791
0.332082
0.329647
0.327488
0.325604
0.323987
0.322626
0.382673
0.379556
0.376086
0.37237
0.368476
0.36447
0.360414
0.356371
0.352396
0.348541
0.344851
0.341363
0.338108
0.335107
0.332376
0.329923
0.327749
0.32585
0.32422
0.322847
0.383457
0.380352
0.376872
0.373132
0.369202
0.365153
0.361052
0.356963
0.352943
0.349046
0.345317
0.341795
0.338509
0.335482
0.332727
0.330253
0.328061
0.326146
0.324501
0.323114
0.384312
0.381225
0.377739
0.373975
0.370009
0.365918
0.36177
0.357633
0.353567
0.349626
0.345857
0.342297
0.338979
0.335922
0.333142
0.330645
0.328433
0.3265
0.324838
0.323434
0.385246
0.382182
0.378694
0.374908
0.370908
0.366773
0.362578
0.358392
0.354278
0.350291
0.346478
0.34288
0.339526
0.336438
0.33363
0.331109
0.328874
0.32692
0.325238
0.323816
0.386266
0.383234
0.379748
0.375944
0.37191
0.367732
0.363488
0.359251
0.355087
0.351051
0.347194
0.343554
0.340162
0.337041
0.334202
0.331653
0.329393
0.327416
0.325712
0.324268
0.387383
0.384391
0.380914
0.377093
0.373027
0.368806
0.364513
0.360224
0.356007
0.351922
0.348017
0.344333
0.340901
0.337743
0.334871
0.332292
0.330004
0.328001
0.326272
0.324803
0.388608
0.385666
0.382203
0.378371
0.374274
0.370011
0.365668
0.361326
0.357056
0.352917
0.348962
0.345232
0.341757
0.338559
0.335652
0.33304
0.330721
0.328689
0.326931
0.325433
0.389955
0.387073
0.383633
0.379794
0.37567
0.371365
0.366972
0.362576
0.35825
0.354057
0.350049
0.34627
0.342749
0.33951
0.336563
0.333915
0.331562
0.329496
0.327706
0.326175
0.391436
0.38863
0.385222
0.381382
0.377234
0.372889
0.368446
0.363995
0.359612
0.355363
0.3513
0.347469
0.3439
0.340615
0.337626
0.334938
0.332547
0.330444
0.328616
0.327048
0.39307
0.390355
0.38699
0.383157
0.378989
0.374607
0.370116
0.36561
0.361169
0.356861
0.352742
0.348856
0.345236
0.341902
0.338868
0.336136
0.333702
0.331558
0.329688
0.328076
0.394876
0.39227
0.388962
0.385145
0.380965
0.376549
0.372012
0.367451
0.362951
0.358583
0.354406
0.350463
0.346788
0.343403
0.340319
0.337539
0.335058
0.332867
0.330949
0.329287
0.396876
0.394402
0.391168
0.387379
0.383193
0.378749
0.374168
0.369554
0.364996
0.360568
0.356329
0.352328
0.348595
0.345155
0.342018
0.339185
0.336653
0.334408
0.332436
0.330717
0.399096
0.396781
0.39364
0.389893
0.385712
0.381247
0.376627
0.371963
0.367347
0.362859
0.358559
0.354496
0.350704
0.347205
0.34401
0.34112
0.33853
0.336226
0.334192
0.332407
0.401568
0.399442
0.396418
0.392732
0.388569
0.384093
0.379441
0.37473
0.37006
0.365512
0.36115
0.357025
0.353171
0.34961
0.346353
0.343401
0.340746
0.338375
0.33627
0.334408
0.404326
0.402427
0.39955
0.395946
0.39182
0.387345
0.382669
0.377919
0.373199
0.368594
0.364171
0.359983
0.356064
0.352438
0.349115
0.346094
0.343368
0.340922
0.338735
0.336785
0.407409
0.405784
0.403091
0.399599
0.39553
0.391074
0.386388
0.381609
0.376845
0.372187
0.367706
0.363455
0.359472
0.355778
0.352383
0.349288
0.346482
0.34395
0.341669
0.339615
0.410866
0.409572
0.407108
0.403764
0.399783
0.395368
0.390691
0.385895
0.381099
0.376396
0.371862
0.367551
0.363502
0.359738
0.356268
0.353091
0.350196
0.347565
0.345175
0.342999
0.414756
0.413861
0.411684
0.408536
0.40468
0.400338
0.395695
0.390904
0.386091
0.381356
0.376778
0.372413
0.368301
0.364465
0.360915
0.357648
0.354651
0.351906
0.349387
0.347064
0.419149
0.41874
0.416924
0.414032
0.410353
0.406128
0.401555
0.3968
0.391995
0.387248
0.38264
0.378232
0.374063
0.370156
0.366522
0.363155
0.360042
0.357162
0.354486
0.351985
0.424137
0.424321
0.42296
0.420408
0.416977
0.412929
0.40848
0.403806
0.39905
0.394324
0.389714
0.385281
0.381068
0.377097
0.373374
0.369896
0.366646
0.363602
0.360733
0.358006
0.429848
0.430737
0.429966
0.427867
0.424785
0.421004
0.41676
0.412239
0.407596
0.402947
0.398381
0.393963
0.389731
0.385708
0.381899
0.378297
0.374882
0.371631
0.368511
0.365489
0.436425
0.438201
0.438185
0.436695
0.434107
0.430727
0.426811
0.422559
0.418134
0.413657
0.409219
0.404882
0.400683
0.39664
0.392754
0.389013
0.385396
0.381875
0.378417
0.37499
0.444047
0.44698
0.447927
0.447286
0.445407
0.442633
0.439238
0.43544
0.431406
0.42726
0.423093
0.418958
0.414887
0.410888
0.406954
0.403066
0.399196
0.395314
0.391387
0.387383
0.452966
0.457465
0.459693
0.46021
0.459352
0.457488
0.454913
0.451855
0.448487
0.444931
0.441268
0.43754
0.433761
0.429925
0.426009
0.421979
0.417801
0.413435
0.40885
0.404018
0.463538
0.470121
0.474177
0.476239
0.476873
0.476369
0.475047
0.473152
0.470858
0.468275
0.465466
0.462452
0.459221
0.455742
0.451966
0.44784
0.443308
0.438322
0.432844
0.426848
0.476284
0.485633
0.492254
0.496594
0.499217
0.500702
0.50121
0.501037
0.500356
0.49924
0.497731
0.495825
0.49348
0.490622
0.487175
0.483052
0.478172
0.472463
0.465868
0.458353
0.491878
0.504967
0.515051
0.522582
0.528152
0.532233
0.535156
0.537337
0.538917
0.539785
0.540021
0.539618
0.538488
0.536529
0.533626
0.529661
0.524519
0.518088
0.510276
0.501007
0.511195
0.529278
0.543983
0.555729
0.565155
0.572787
0.579011
0.584104
0.588202
0.591322
0.593558
0.594964
0.59526
0.594385
0.592195
0.588546
0.583294
0.57628
0.567352
0.556359
0.535303
0.559883
0.580505
0.597535
0.611678
0.623526
0.633509
0.641917
0.648915
0.654579
0.658923
0.66192
0.663614
0.663884
0.662467
0.659236
0.654024
0.646633
0.636844
0.624405
0.565424
0.598138
0.62595
0.649188
0.668683
0.685146
0.699101
0.710917
0.720819
0.72894
0.735332
0.739995
0.742917
0.744124
0.743422
0.740617
0.735534
0.727937
0.717543
0.704006
0.602824
0.645256
0.681313
0.711388
0.736557
0.757743
0.775638
0.790741
0.803379
0.813766
0.822019
0.828194
0.832294
0.834316
0.834177
0.831762
0.826846
0.819133
0.808294
0.793909
0.648691
0.702161
0.747158
0.78436
0.815251
0.841074
0.862753
0.880956
0.896138
0.908608
0.918555
0.926091
0.931252
0.934026
0.934374
0.932312
0.927567
0.919766
0.908547
0.893431
0.703992
0.769403
0.82366
0.868016
0.904529
0.934838
0.960141
0.981291
0.998879
1.01331
1.02485
1.03366
1.03981
1.04333
1.04415
1.04235
1.03775
1.02986
1.01826
1.00244
0.769399
0.847207
0.910754
0.962154
1.00415
1.03882
1.06763
1.09164
1.11156
1.12789
1.14097
1.15101
1.15812
1.16234
1.16362
1.16208
1.1576
1.14961
1.13763
1.1211
0.845266
0.935548
1.00825
1.06655
1.11391
1.15284
1.18511
1.21192
1.23412
1.25232
1.2669
1.27815
1.28619
1.2911
1.29283
1.29154
1.28718
1.27909
1.26672
1.24949
0.931676
1.03425
1.11589
1.18093
1.23355
1.27667
1.31232
1.34187
1.36631
1.38632
1.40237
1.41478
1.42373
1.4293
1.43147
1.43042
1.42618
1.41801
1.40531
1.38742
1.02849
1.143
1.23332
1.30491
1.36264
1.40983
1.44872
1.4809
1.50746
1.52917
1.54658
1.56006
1.56984
1.57603
1.5786
1.57779
1.57369
1.5655
1.55254
1.53413
1.13538
1.26133
1.35997
1.43783
1.50041
1.5514
1.5933
1.62785
1.65628
1.67946
1.69802
1.7124
1.72287
1.72957
1.73249
1.7319
1.72797
1.71985
1.70678
1.68805
1.25183
1.38853
1.49494
1.57858
1.64555
1.69988
1.74432
1.78079
1.81064
1.83488
1.85423
1.86919
1.88008
1.88711
1.89028
1.88988
1.88615
1.8782
1.86525
1.84653
1.37704
1.52351
1.63685
1.72547
1.79604
1.85293
1.89913
1.93675
1.96732
1.99195
2.01147
2.02648
2.03738
2.04441
2.04763
2.04735
2.04383
2.03621
2.02367
2.00542
1.50984
1.66465
1.78363
1.87599
1.94891
2.00713
2.05389
2.09151
2.12168
2.14568
2.16445
2.17871
2.18894
2.19546
2.19841
2.1981
2.19478
2.18764
2.17589
2.15874
1.64857
1.8097
1.93239
2.02662
2.10007
2.1578
2.20335
2.23927
2.26744
2.28932
2.30599
2.31831
2.32688
2.33213
2.33428
2.33368
2.33047
2.32396
2.31346
2.29819
1.79098
1.95557
2.07926
2.17271
2.24405
2.29874
2.34059
2.37243
2.39638
2.41409
2.4268
2.43552
2.441
2.44385
2.4444
2.44308
2.43977
2.43401
2.42524
2.4128
1.93409
2.09832
2.21928
2.3083
2.37397
2.42212
2.45691
2.48144
2.49826
2.50917
2.51542
2.51826
2.5187
2.51752
2.51509
2.51175
2.50774
2.50298
2.49695
2.48873
2.07425
2.23307
2.34639
2.42616
2.48144
2.51851
2.54191
2.55458
2.55904
2.55782
2.55326
2.54696
2.54002
2.53421
2.52807
2.5225
2.5177
2.51366
2.50995
2.50587
2.20711
2.35417
2.45356
2.51787
2.55667
2.57566
2.58022
2.57584
2.56712
2.55417
2.53917
2.52338
2.5075
2.49135
2.4785
2.46873
2.46207
2.45857
2.45801
2.46016
2.32789
2.45541
2.53312
2.57381
2.58717
2.58407
2.56839
2.54395
2.51249
2.47997
2.44766
2.41714
2.38945
2.3654
2.3457
2.3309
2.32145
2.31791
2.31969
2.32538
2.43163
2.53038
2.57628
2.58496
2.56846
2.53193
2.48489
2.43214
2.37749
2.32397
2.2736
2.2278
2.1874
2.15297
2.12487
2.1036
2.08966
2.08385
2.08529
2.09268
2.51376
2.57263
2.57725
2.54303
2.48318
2.40766
2.32461
2.24023
2.1589
2.0835
2.01558
1.95582
1.90426
1.86074
1.825
1.79714
1.77754
1.76719
1.76567
1.77086
2.56964
2.5779
2.52892
2.44094
2.32937
2.20706
2.08395
1.96725
1.86129
1.76817
1.68807
1.62018
1.56308
1.51537
1.47581
1.44375
1.41902
1.40195
1.39364
1.39365
2.59595
2.54236
2.42757
2.27486
2.10415
1.93209
1.77097
1.62838
1.50741
1.40781
1.32712
1.2621
1.20936
1.16611
1.13019
1.10056
1.07658
1.0578
1.04468
1.03936
2.5933
2.46404
2.27192
2.04686
1.81568
1.59994
1.41356
1.26223
1.14481
1.05639
0.990549
0.941302
0.903658
0.874122
0.850599
0.83336
0.822374
0.816317
0.815975
0.828479
2.55266
2.33915
2.06284
1.76643
1.4868
1.24933
1.0654
0.932795
0.841264
0.779914
0.739324
0.712591
0.694987
0.683694
0.677269
0.674993
0.677393
0.684569
0.706131
0.762673
2.47106
2.1622
1.80151
1.45141
1.15908
0.941832
0.79522
0.703009
0.647389
0.614594
0.595537
0.584864
0.579498
0.577861
0.579424
0.584245
0.595317
0.622114
0.68311
0.786112
2.32935
1.91702
1.48807
1.12447
0.863677
0.702139
0.61145
0.562884
0.536717
0.522627
0.515356
0.512199
0.511827
0.513646
0.518148
0.528232
0.551477
0.609744
0.725978
0.911712
2.09617
1.58639
1.13026
0.813013
0.632673
0.546816
0.50666
0.486181
0.475235
0.469337
0.46641
0.465514
0.466377
0.469394
0.476581
0.493285
0.534746
0.630876
0.828795
1.10086
1.74165
1.1783
0.778537
0.585743
0.508404
0.47403
0.45617
0.44599
0.439683
0.435681
0.433377
0.43262
0.433731
0.43773
0.447629
0.471422
0.532855
0.679529
0.959555
1.28988
1.2934
0.804981
0.58586
0.498508
0.46024
0.440755
0.429186
0.421339
0.415723
0.411767
0.409372
0.408659
0.410219
0.415383
0.427793
0.457084
0.532016
0.721543
1.06778
1.43887
1.06085
0.698958
0.533297
0.466758
0.437235
0.421254
0.410916
0.403549
0.398164
0.394404
0.392293
0.392014
0.394234
0.400361
0.414202
0.445941
0.525947
0.73004
1.1107
1.5476
1.06134
0.692012
0.518901
0.450987
0.422027
0.406699
0.397105
0.390506
0.385834
0.382736
0.381262
0.381567
0.384266
0.390532
0.403785
0.433035
0.506031
0.697405
1.11137
1.62104
1.21407
0.737595
0.518777
0.440808
0.410687
0.396008
0.387507
0.382078
0.37858
0.376538
0.375751
0.376314
0.378838
0.384428
0.395912
0.420517
0.480757
0.645557
1.04725
1.64674
1.42994
0.785266
0.515311
0.432344
0.402348
0.388772
0.381608
0.377494
0.375191
0.373976
0.373586
0.374047
0.375862
0.380131
0.389
0.408023
0.454321
0.585191
0.951377
1.62528
1.48954
0.776518
0.499838
0.421065
0.394412
0.383189
0.377839
0.37519
0.3739
0.37326
0.373055
0.373354
0.374352
0.376751
0.382312
0.394781
0.425214
0.512785
0.799582
1.49724
1.3844
0.655497
0.453686
0.401908
0.384852
0.378051
0.375359
0.374283
0.373656
0.373331
0.373268
0.373405
0.373939
0.375077
0.377573
0.383674
0.3988
0.445447
0.622418
1.20114
0.885046
0.474091
0.395914
0.38028
0.376146
0.375079
0.374648
0.374419
0.374365
0.374344
0.374332
0.374325
0.374357
0.374533
0.374991
0.375965
0.379966
0.394884
0.458096
0.741112
0.317575
0.317056
0.316488
0.315947
0.315438
0.314968
0.314542
0.314162
0.313833
0.313558
0.313339
0.313179
0.313079
0.313038
0.313057
0.313135
0.313273
0.313469
0.313722
0.314032
0.317795
0.317268
0.316697
0.316151
0.315638
0.315164
0.314732
0.314347
0.314014
0.313734
0.313512
0.313348
0.313244
0.3132
0.313215
0.313291
0.313427
0.313621
0.313873
0.314181
0.317973
0.317442
0.316867
0.316316
0.315798
0.315318
0.314881
0.314492
0.314153
0.313868
0.313641
0.313473
0.313365
0.313317
0.313329
0.313402
0.313535
0.313727
0.313977
0.314284
0.318125
0.31759
0.31701
0.316456
0.315933
0.315449
0.315007
0.314613
0.31427
0.313981
0.31375
0.313578
0.313466
0.313416
0.313425
0.313495
0.313626
0.313816
0.314063
0.314368
0.318258
0.317719
0.317136
0.316577
0.316051
0.315563
0.315118
0.314721
0.314374
0.314082
0.313848
0.313673
0.31356
0.313507
0.313513
0.313581
0.31371
0.313898
0.314144
0.314447
0.318377
0.317836
0.317249
0.316688
0.316159
0.315668
0.31522
0.31482
0.314471
0.314177
0.313941
0.313764
0.313649
0.313594
0.313598
0.313664
0.313791
0.313977
0.314222
0.314523
0.318488
0.317944
0.317355
0.316791
0.316259
0.315765
0.315315
0.314914
0.314563
0.314268
0.314031
0.313853
0.313736
0.313679
0.313682
0.313746
0.313871
0.314056
0.314299
0.314598
0.318592
0.318046
0.317454
0.316886
0.316352
0.315856
0.315405
0.315002
0.314652
0.314357
0.314119
0.313941
0.313823
0.313765
0.313765
0.313827
0.31395
0.314132
0.314373
0.314671
0.31869
0.318141
0.317544
0.316973
0.316436
0.315939
0.315487
0.315085
0.314736
0.314443
0.314208
0.314031
0.313912
0.313853
0.31385
0.313906
0.314024
0.314203
0.314442
0.314739
0.318775
0.318222
0.317621
0.317046
0.316508
0.316011
0.31556
0.315161
0.314815
0.314527
0.314299
0.314127
0.314008
0.313944
0.313933
0.31398
0.31409
0.314264
0.3145
0.314796
0.318823
0.318269
0.31767
0.317099
0.316565
0.316073
0.315627
0.31523
0.314888
0.314604
0.314376
0.3142
0.314077
0.314007
0.313985
0.314027
0.314135
0.314309
0.314546
0.314843
0.318854
0.318302
0.317709
0.317145
0.316618
0.316138
0.315698
0.315301
0.314953
0.314658
0.314416
0.314231
0.314104
0.314032
0.314007
0.314052
0.314167
0.314346
0.314586
0.314884
0.318911
0.318355
0.317758
0.317191
0.316662
0.31618
0.315743
0.315342
0.314984
0.314676
0.314419
0.314228
0.314101
0.314034
0.314022
0.314078
0.3142
0.314384
0.314627
0.314928
0.318995
0.318431
0.317825
0.317247
0.316705
0.316206
0.315757
0.315347
0.314986
0.314676
0.314419
0.314232
0.31411
0.314052
0.314054
0.314119
0.314245
0.314431
0.314675
0.314975
0.319111
0.318537
0.317921
0.317332
0.316776
0.316263
0.315795
0.315378
0.315014
0.314709
0.314465
0.314283
0.314166
0.314111
0.314116
0.314183
0.31431
0.314495
0.314737
0.315032
0.319256
0.318674
0.31805
0.317452
0.316889
0.316367
0.315892
0.31547
0.315103
0.314797
0.314553
0.314373
0.314256
0.314202
0.314207
0.314274
0.3144
0.314583
0.314821
0.315111
0.319429
0.318841
0.318211
0.317606
0.317036
0.316508
0.316028
0.315601
0.315231
0.314923
0.314677
0.314495
0.314378
0.314324
0.314329
0.314395
0.31452
0.3147
0.314934
0.315219
0.319629
0.319035
0.3184
0.317791
0.317215
0.316681
0.316196
0.315765
0.315392
0.315081
0.314833
0.31465
0.314532
0.314477
0.314481
0.314547
0.31467
0.314848
0.315078
0.315359
0.319857
0.319259
0.318619
0.318005
0.317424
0.316886
0.316397
0.315962
0.315586
0.315272
0.315022
0.314838
0.314719
0.314663
0.314666
0.314731
0.314852
0.315028
0.315254
0.31553
0.320115
0.319513
0.31887
0.318251
0.317666
0.317124
0.31663
0.316192
0.315812
0.315496
0.315244
0.315059
0.314939
0.314882
0.314884
0.314947
0.315067
0.31524
0.315462
0.315732
0.320406
0.319802
0.319155
0.318533
0.317944
0.317397
0.3169
0.316458
0.316076
0.315757
0.315504
0.315317
0.315195
0.315138
0.315139
0.3152
0.315317
0.315487
0.315704
0.315967
0.320735
0.320127
0.319479
0.318854
0.318261
0.317711
0.31721
0.316765
0.31638
0.31606
0.315804
0.315616
0.315493
0.315434
0.315433
0.315492
0.315606
0.315771
0.315983
0.316238
0.321104
0.320496
0.319846
0.319219
0.318623
0.31807
0.317566
0.317118
0.31673
0.316407
0.31615
0.31596
0.315835
0.315775
0.315772
0.315828
0.315938
0.316098
0.316303
0.316549
0.32152
0.320911
0.320261
0.319632
0.319034
0.318479
0.317972
0.317521
0.317131
0.316806
0.316546
0.316354
0.316228
0.316165
0.316159
0.316212
0.316317
0.316471
0.316667
0.316904
0.321989
0.321381
0.320732
0.320102
0.319502
0.318944
0.318434
0.317981
0.317589
0.317261
0.316999
0.316805
0.316677
0.316612
0.316603
0.316651
0.31675
0.316896
0.317083
0.317307
0.322518
0.321912
0.321265
0.320636
0.320035
0.319474
0.318962
0.318507
0.318111
0.317781
0.317517
0.317321
0.317189
0.317121
0.317109
0.317151
0.317243
0.317381
0.317556
0.317767
0.323118
0.322516
0.321872
0.321243
0.320642
0.32008
0.319566
0.319108
0.31871
0.318377
0.318111
0.317911
0.317776
0.317704
0.317687
0.317723
0.317807
0.317935
0.318098
0.318292
0.323799
0.323202
0.322563
0.321937
0.321336
0.320773
0.320257
0.319797
0.319397
0.319061
0.318791
0.318588
0.318449
0.318373
0.31835
0.318379
0.318453
0.318569
0.318717
0.318892
0.324574
0.323985
0.323353
0.322731
0.322131
0.321569
0.321051
0.320589
0.320186
0.319848
0.319574
0.319368
0.319224
0.319142
0.319112
0.319132
0.319196
0.319297
0.319427
0.319581
0.325459
0.32488
0.324257
0.323641
0.323045
0.322483
0.321965
0.321501
0.321095
0.320754
0.320477
0.320266
0.320117
0.320027
0.31999
0.32
0.320051
0.320135
0.320245
0.320372
0.326471
0.325905
0.325295
0.324687
0.324095
0.323536
0.323018
0.322553
0.322145
0.321801
0.32152
0.321303
0.321148
0.32105
0.321004
0.321001
0.321036
0.321102
0.321187
0.321285
0.327631
0.327082
0.326489
0.325892
0.325307
0.324751
0.324235
0.323769
0.323359
0.323012
0.322726
0.322504
0.322341
0.322234
0.322175
0.322159
0.322176
0.322218
0.322275
0.322338
0.328964
0.328437
0.327865
0.327283
0.326707
0.326157
0.325643
0.325178
0.324767
0.324416
0.324125
0.323896
0.323724
0.323606
0.323534
0.3235
0.323495
0.32351
0.323533
0.323556
0.330498
0.33
0.329454
0.328891
0.328328
0.327786
0.327277
0.326813
0.326401
0.326046
0.32575
0.325514
0.325331
0.3252
0.32511
0.325056
0.325025
0.325008
0.324991
0.324965
0.332269
0.331806
0.331294
0.330755
0.33021
0.329679
0.329176
0.328715
0.328302
0.327945
0.327643
0.327397
0.327202
0.327055
0.326945
0.326865
0.326802
0.326747
0.326684
0.326601
0.334317
0.333898
0.333429
0.332922
0.332399
0.331884
0.33139
0.330934
0.330522
0.330161
0.329851
0.329595
0.329385
0.329218
0.329083
0.328973
0.328872
0.328771
0.328652
0.328502
0.336693
0.336331
0.335915
0.335449
0.334957
0.334463
0.333983
0.333534
0.333123
0.332758
0.332441
0.332171
0.331942
0.331751
0.331585
0.331436
0.331289
0.331132
0.330945
0.330715
0.339461
0.339174
0.338829
0.338417
0.337966
0.337501
0.33704
0.336601
0.336193
0.335825
0.335496
0.335209
0.334956
0.334732
0.334527
0.334329
0.334123
0.333895
0.333626
0.333297
0.342711
0.342524
0.342276
0.341941
0.341548
0.341126
0.340693
0.340271
0.339868
0.339494
0.33915
0.338837
0.338549
0.338281
0.33802
0.337757
0.337473
0.337154
0.336778
0.336326
0.346573
0.346535
0.34643
0.34621
0.345905
0.345549
0.345162
0.344765
0.34437
0.343987
0.343619
0.343266
0.342924
0.342588
0.342245
0.341885
0.341489
0.341043
0.340523
0.33991
0.351303
0.351481
0.351591
0.351552
0.351392
0.351145
0.350835
0.350483
0.350102
0.349705
0.349294
0.348875
0.348441
0.347992
0.347514
0.347
0.346431
0.345794
0.345065
0.344222
0.357314
0.357832
0.358285
0.358556
0.358643
0.35859
0.358417
0.358147
0.357793
0.357371
0.356886
0.356347
0.355752
0.355103
0.354392
0.353615
0.352758
0.35181
0.350749
0.349555
0.365338
0.366458
0.36752
0.36826
0.368767
0.369066
0.369135
0.369012
0.368711
0.368249
0.367637
0.366888
0.366008
0.365006
0.363884
0.362647
0.36129
0.359811
0.358195
0.356429
0.376586
0.378742
0.380856
0.382493
0.383663
0.384432
0.384906
0.385021
0.384822
0.384308
0.383494
0.382402
0.381048
0.379455
0.377638
0.37562
0.373413
0.37103
0.368474
0.365747
0.392916
0.396724
0.400473
0.403467
0.405706
0.407231
0.408113
0.408565
0.408576
0.408012
0.406928
0.405352
0.403312
0.400842
0.397975
0.39475
0.391203
0.387373
0.383291
0.37899
0.416717
0.422826
0.428758
0.4335
0.43707
0.439555
0.441045
0.441766
0.441951
0.441349
0.439982
0.437866
0.435029
0.431501
0.427319
0.422522
0.417161
0.411292
0.404981
0.398302
0.450143
0.458864
0.467115
0.473595
0.478411
0.481736
0.483727
0.484658
0.484932
0.484456
0.482914
0.480376
0.476865
0.472387
0.466951
0.460564
0.453246
0.44503
0.435983
0.426205
0.493892
0.504892
0.515001
0.522755
0.528418
0.532285
0.534603
0.535712
0.536077
0.535674
0.534065
0.531319
0.527435
0.522378
0.516108
0.508559
0.499676
0.489399
0.477716
0.464663
0.546763
0.559278
0.57054
0.57904
0.585202
0.589411
0.591961
0.593204
0.593664
0.593342
0.591732
0.588908
0.584857
0.57953
0.572847
0.564688
0.554904
0.543307
0.529722
0.513997
0.606905
0.620441
0.632563
0.64168
0.648299
0.652853
0.655657
0.657063
0.657627
0.657402
0.655813
0.652941
0.648769
0.643243
0.636269
0.627704
0.617361
0.604982
0.590255
0.572803
0.673571
0.688164
0.701258
0.711129
0.718339
0.723348
0.726488
0.728107
0.728809
0.728699
0.727134
0.7242
0.719874
0.714103
0.706786
0.697779
0.686877
0.6738
0.658169
0.639486
0.747248
0.76316
0.777478
0.788319
0.796294
0.801888
0.805457
0.807357
0.808232
0.808256
0.806723
0.803716
0.799201
0.793121
0.785371
0.775808
0.764215
0.7503
0.733647
0.713694
0.828928
0.846474
0.862305
0.874356
0.883284
0.889606
0.893698
0.89593
0.896998
0.897172
0.895727
0.892663
0.88793
0.881477
0.873197
0.862947
0.850497
0.835543
0.817634
0.796161
0.919758
0.939264
0.956908
0.970418
0.980507
0.987725
0.992455
0.995089
0.996294
0.996538
0.995404
0.992301
0.987315
0.980418
0.971508
0.960439
0.946966
0.930765
0.911345
0.888045
1.02098
1.04278
1.06254
1.07777
1.08926
1.09759
1.10319
1.10645
1.10798
1.10837
1.10728
1.10404
1.09873
1.09131
1.08167
1.06966
1.055
1.03735
1.01616
0.990723
1.13392
1.15836
1.18056
1.19778
1.21087
1.2205
1.22713
1.23113
1.23308
1.23367
1.23266
1.22928
1.22361
1.21561
1.20516
1.19208
1.17607
1.15677
1.13357
1.10567
1.25999
1.28744
1.31243
1.33194
1.34689
1.35802
1.36582
1.3707
1.37318
1.37404
1.37315
1.36964
1.36359
1.35496
1.34361
1.32934
1.31184
1.29068
1.26521
1.23453
1.40073
1.4316
1.45977
1.48187
1.49896
1.51182
1.52101
1.52694
1.53006
1.53124
1.5305
1.52688
1.52045
1.51114
1.49881
1.48324
1.46408
1.44085
1.41283
1.37904
1.5578
1.59253
1.62427
1.64934
1.66887
1.68369
1.69446
1.70158
1.7055
1.70711
1.7066
1.70291
1.6961
1.68609
1.6727
1.65571
1.63472
1.60921
1.57838
1.54113
1.73292
1.772
1.80778
1.83621
1.8585
1.87558
1.88814
1.89664
1.90151
1.90368
1.90348
1.89977
1.89258
1.88184
1.86733
1.84881
1.82582
1.79781
1.76388
1.7228
1.92793
1.97188
2.01221
2.04442
2.06985
2.0895
2.10413
2.11422
2.1202
2.12301
2.12319
2.11954
2.11203
2.10055
2.08486
2.06468
2.03954
2.0088
1.97148
1.9262
2.14473
2.1941
2.2395
2.27596
2.30492
2.3275
2.34449
2.35643
2.3637
2.3671
2.36762
2.36438
2.35663
2.3444
2.32747
2.30554
2.27807
2.24438
2.20336
2.15351
2.38529
2.44064
2.49165
2.53283
2.56576
2.59162
2.6113
2.62539
2.63429
2.63874
2.63975
2.63667
2.62862
2.6156
2.59736
2.57355
2.5436
2.50673
2.46173
2.40692
2.65218
2.71405
2.7712
2.81755
2.85481
2.8843
2.90697
2.92347
2.93425
2.93993
2.94154
2.93865
2.93031
2.91648
2.89688
2.87111
2.83854
2.79829
2.74902
2.68888
2.94831
3.01725
3.08102
3.13294
3.17489
3.20829
3.23418
3.25329
3.26611
3.2732
3.27556
3.27295
3.26436
3.24974
3.22877
3.20099
3.16569
3.12189
3.06812
3.00231
3.27665
3.35313
3.42395
3.48181
3.52874
3.56629
3.59561
3.61751
3.63252
3.64117
3.64442
3.64219
3.63345
3.61812
3.59581
3.56602
3.52794
3.48049
3.42203
3.35027
3.63989
3.72429
3.8025
3.86656
3.9187
3.9606
3.99352
4.01835
4.03568
4.04603
4.05029
4.04856
4.03978
4.02386
4.00031
3.96859
3.92778
3.87667
3.81344
3.73557
4.04019
4.13273
4.21847
4.28886
4.34629
4.39262
4.42922
4.45706
4.47681
4.48895
4.49435
4.49324
4.48459
4.46825
4.44366
4.41019
4.3668
4.31218
4.24428
4.16032
4.47881
4.57942
4.67256
4.74913
4.81174
4.86239
4.90259
4.93342
4.95558
4.96958
4.97621
4.97585
4.96752
4.95104
4.9257
4.8908