/*--------------------------------*- C++ -*----------------------------------*\
  =========                 |
  \\      /  F ield         | OpenFOAM: The Open Source CFD Toolbox
   \\    /   O peration     | Website:  https://openfoam.org
    \\  /    A nd           | Version:  6
     \\/     M anipulation  |
\*---------------------------------------------------------------------------*/
FoamFile
{
    version     2.0;
    format      ascii;
    class       volScalarField;
    location    "27";
    object      k;
}
// * * * * * * * * * * * * * * * * * * * * * * * * * * * * * * * * * * * * * //

dimensions      [0 2 -2 0 0 0 0];

internalField   nonuniform List<scalar> 
10000
(
0.208408
0.528437
0.486605
0.427769
0.376214
0.338389
0.313903
0.299446
0.292074
0.289421
0.290259
0.294517
0.303091
0.318192
0.342886
0.379863
0.429718
0.486233
0.526636
0.207782
0.208116
0.528122
0.486339
0.427038
0.376161
0.338656
0.314416
0.300016
0.292769
0.291161
0.292069
0.295251
0.303493
0.318393
0.343027
0.379908
0.429756
0.48617
0.526483
0.207748
0.208065
0.527771
0.486216
0.427102
0.375882
0.339026
0.315373
0.300392
0.29389
0.289955
0.290876
0.296357
0.303677
0.318388
0.343069
0.379795
0.429835
0.486173
0.526475
0.207662
0.207985
0.527506
0.485471
0.426862
0.376018
0.338906
0.314911
0.301132
0.293509
0.289852
0.290693
0.295883
0.3044
0.318533
0.343461
0.38001
0.429746
0.486049
0.526437
0.207738
0.208044
0.527572
0.485752
0.427252
0.376361
0.339122
0.31465
0.300641
0.292931
0.290124
0.290882
0.29512
0.303451
0.318448
0.343236
0.379961
0.429729
0.485863
0.526297
0.207999
0.208007
0.527724
0.486351
0.426982
0.376441
0.339283
0.315511
0.301628
0.293268
0.290445
0.291103
0.295326
0.303587
0.318531
0.343082
0.379781
0.429652
0.486456
0.526691
0.208153
0.208166
0.527573
0.486461
0.427946
0.376517
0.339211
0.315097
0.301323
0.294477
0.291538
0.29163
0.296718
0.303906
0.318686
0.343405
0.379719
0.429523
0.486119
0.526646
0.208198
0.208268
0.527745
0.486249
0.427893
0.376443
0.338987
0.31469
0.300728
0.293648
0.291753
0.291588
0.295435
0.303725
0.318779
0.343282
0.379835
0.429298
0.486547
0.527113
0.208294
0.208326
0.527751
0.485734
0.427911
0.37653
0.339055
0.314961
0.301005
0.293798
0.291045
0.292727
0.295566
0.303845
0.31944
0.343194
0.379759
0.42965
0.486997
0.527354
0.208329
0.208466
0.527985
0.486139
0.427389
0.376468
0.339132
0.315907
0.302487
0.294494
0.291238
0.291785
0.295673
0.303776
0.318749
0.343223
0.37941
0.429511
0.486875
0.527169
0.208318
0.208706
0.528313
0.485945
0.427812
0.376489
0.339103
0.315671
0.302286
0.295983
0.292492
0.292893
0.296764
0.304673
0.319052
0.342797
0.379432
0.429302
0.486761
0.52747
0.208284
0.208702
0.528297
0.486324
0.427632
0.376257
0.339112
0.31535
0.301732
0.294582
0.290537
0.290808
0.294558
0.303105
0.318967
0.342748
0.379294
0.428659
0.4861
0.527465
0.208394
0.208563
0.528057
0.48595
0.427332
0.376072
0.338709
0.314699
0.300973
0.293631
0.291347
0.29187
0.294558
0.302914
0.318484
0.342703
0.3791
0.428939
0.486137
0.527428
0.208239
0.208526
0.527929
0.485644
0.426606
0.375871
0.338894
0.314713
0.301857
0.293683
0.289741
0.290148
0.294111
0.302618
0.317616
0.341837
0.378731
0.428149
0.485682
0.527158
0.208036
0.208397
0.527669
0.484936
0.426343
0.375608
0.338306
0.314613
0.300667
0.292874
0.289659
0.29004
0.294218
0.302843
0.318423
0.341746
0.378456
0.427866
0.485197
0.527005
0.207913
0.208325
0.527595
0.484774
0.425848
0.375297
0.338231
0.314754
0.301939
0.29417
0.290994
0.29032
0.294364
0.30308
0.317787
0.341483
0.378167
0.427391
0.484563
0.526772
0.207726
0.208235
0.527371
0.484401
0.42566
0.375069
0.338103
0.315077
0.301059
0.292592
0.289285
0.290205
0.294765
0.304494
0.318855
0.341391
0.377781
0.426588
0.484069
0.526368
0.207531
0.208082
0.527128
0.483976
0.425226
0.374746
0.337835
0.313826
0.29983
0.292549
0.289014
0.290006
0.295669
0.303881
0.318033
0.340946
0.377303
0.426045
0.483568
0.5262
0.207408
0.20793
0.526947
0.483334
0.424189
0.37427
0.337807
0.313661
0.29971
0.292061
0.28901
0.289983
0.294591
0.302984
0.31705
0.340606
0.376983
0.425499
0.482995
0.526024
0.207248
0.207666
0.526669
0.482656
0.423593
0.37384
0.338258
0.313798
0.300861
0.292461
0.289186
0.29041
0.295608
0.303948
0.317027
0.340308
0.376403
0.424794
0.482313
0.52583
0.207058
0.20744
0.526234
0.481919
0.423073
0.373289
0.337452
0.31354
0.299695
0.293482
0.289312
0.289528
0.293733
0.302437
0.31699
0.3401
0.375897
0.42404
0.481549
0.525438
0.206786
0.207158
0.525749
0.481204
0.422383
0.372772
0.336809
0.313292
0.299532
0.292531
0.289591
0.289987
0.293946
0.303477
0.318116
0.339927
0.375186
0.423196
0.480938
0.525156
0.206596
0.207006
0.525441
0.480471
0.421688
0.372224
0.336112
0.314105
0.300708
0.294276
0.291534
0.291738
0.294036
0.302194
0.317232
0.339689
0.374439
0.422266
0.479988
0.524544
0.206223
0.206787
0.525084
0.480052
0.421085
0.371785
0.335921
0.313311
0.299476
0.293311
0.29063
0.291036
0.294091
0.30207
0.316238
0.339699
0.373512
0.421138
0.479108
0.524143
0.205973
0.206594
0.524783
0.479379
0.420458
0.37132
0.336132
0.314206
0.299289
0.292448
0.289814
0.29023
0.294397
0.303238
0.316607
0.338462
0.372548
0.420266
0.478261
0.523515
0.205582
0.206367
0.524467
0.478953
0.419822
0.370733
0.335222
0.313249
0.299222
0.292594
0.290034
0.290363
0.294099
0.301205
0.314315
0.337236
0.371662
0.419404
0.477586
0.523232
0.205346
0.206159
0.524184
0.478268
0.419286
0.370297
0.334948
0.312569
0.299192
0.293016
0.290648
0.291869
0.293503
0.29977
0.312819
0.336194
0.370775
0.418485
0.476891
0.52296
0.205129
0.20592
0.523895
0.477616
0.418514
0.369774
0.334605
0.312443
0.299381
0.29418
0.291785
0.291737
0.294912
0.300078
0.312752
0.335493
0.370041
0.417628
0.476047
0.522572
0.204783
0.205656
0.523549
0.476864
0.417836
0.369281
0.334321
0.311809
0.2993
0.292893
0.290237
0.2908
0.294468
0.300784
0.312379
0.334566
0.36929
0.416817
0.475289
0.522219
0.204499
0.205352
0.523109
0.476059
0.416933
0.368653
0.334115
0.312072
0.29995
0.294722
0.291923
0.292199
0.293593
0.299837
0.312236
0.334469
0.368687
0.415988
0.474511
0.521778
0.204184
0.205026
0.522624
0.475148
0.416034
0.368085
0.333832
0.312273
0.300264
0.294751
0.291306
0.291207
0.293726
0.300054
0.312209
0.333737
0.367933
0.415126
0.473692
0.521352
0.203906
0.204792
0.522246
0.474387
0.415192
0.36748
0.333578
0.313355
0.300901
0.29461
0.292046
0.292273
0.295726
0.301298
0.312566
0.334101
0.367479
0.414422
0.473054
0.520973
0.203661
0.204533
0.521883
0.473627
0.414392
0.367052
0.333865
0.313604
0.301606
0.295502
0.29311
0.294303
0.296238
0.301739
0.312586
0.333121
0.366594
0.413574
0.472233
0.520682
0.203499
0.204214
0.521435
0.472873
0.413677
0.366468
0.333451
0.314278
0.303679
0.29807
0.295464
0.29499
0.296806
0.301828
0.313316
0.333166
0.365896
0.412691
0.471473
0.520499
0.203356
0.203925
0.521047
0.47198
0.412805
0.365944
0.333419
0.314703
0.304467
0.299402
0.297115
0.296414
0.298422
0.3024
0.312646
0.332263
0.365148
0.411786
0.470652
0.520243
0.203122
0.203517
0.520513
0.471018
0.411971
0.365512
0.333735
0.315371
0.305702
0.300655
0.298277
0.297422
0.299425
0.304023
0.3138
0.332529
0.364599
0.410863
0.469862
0.519757
0.202812
0.203176
0.519976
0.470007
0.410979
0.364806
0.333335
0.315433
0.306716
0.302029
0.299655
0.298955
0.300645
0.304559
0.313898
0.332134
0.363814
0.409847
0.468884
0.519247
0.202444
0.20279
0.519337
0.468956
0.409958
0.364262
0.333709
0.315875
0.307593
0.30299
0.300827
0.300317
0.301644
0.305451
0.314508
0.33219
0.3632
0.40881
0.467852
0.518596
0.20205
0.202516
0.518856
0.468055
0.408974
0.363529
0.333365
0.316893
0.308442
0.304162
0.302132
0.301566
0.302822
0.306399
0.314971
0.331954
0.362335
0.407656
0.46677
0.517877
0.201624
0.202271
0.51843
0.46708
0.407893
0.362862
0.333631
0.317394
0.309355
0.305385
0.30353
0.303083
0.30416
0.307525
0.315717
0.331754
0.361641
0.406505
0.465639
0.517344
0.201323
0.202002
0.518035
0.46612
0.406871
0.362204
0.333329
0.318421
0.310587
0.306608
0.304699
0.304205
0.305261
0.308571
0.316137
0.331658
0.360863
0.405355
0.46452
0.516765
0.200966
0.201716
0.517598
0.46497
0.405697
0.361593
0.333607
0.319036
0.311616
0.307901
0.306067
0.305527
0.306348
0.309383
0.316571
0.331361
0.360076
0.404155
0.463302
0.516155
0.200636
0.2013
0.516986
0.46378
0.404527
0.360899
0.333692
0.319718
0.312548
0.308896
0.307144
0.306654
0.307506
0.310472
0.317253
0.331791
0.359551
0.403154
0.462257
0.515522
0.200327
0.20086
0.516263
0.462504
0.403304
0.360202
0.333598
0.320199
0.313379
0.309998
0.308399
0.307961
0.308748
0.311527
0.317921
0.331559
0.358905
0.402118
0.461253
0.514984
0.200062
0.200449
0.515609
0.461287
0.402107
0.359454
0.333437
0.320535
0.314188
0.311047
0.309538
0.309114
0.309874
0.312538
0.318695
0.331969
0.35831
0.401132
0.460275
0.514596
0.199852
0.199958
0.514808
0.459941
0.400857
0.358659
0.333057
0.320729
0.31493
0.312096
0.310764
0.310403
0.311102
0.31357
0.319375
0.331496
0.357609
0.400018
0.459165
0.514126
0.199576
0.199594
0.514165
0.458602
0.399523
0.357683
0.33238
0.32036
0.315561
0.313104
0.31195
0.311656
0.312305
0.31456
0.319961
0.33149
0.356853
0.398817
0.458028
0.513693
0.199368
0.199183
0.513434
0.457251
0.398154
0.356637
0.332662
0.319805
0.316027
0.314035
0.313115
0.312908
0.313511
0.315551
0.320554
0.331778
0.356159
0.397635
0.456799
0.513116
0.199045
0.198877
0.512831
0.455919
0.396698
0.355179
0.331536
0.320125
0.316396
0.314877
0.314214
0.314078
0.314595
0.316388
0.320926
0.331418
0.355264
0.396293
0.455498
0.512481
0.198734
0.198475
0.512146
0.454566
0.395262
0.353582
0.330148
0.318248
0.315877
0.315464
0.315197
0.315181
0.315613
0.317083
0.320985
0.330969
0.354444
0.394984
0.45416
0.511814
0.198366
0.198058
0.511336
0.453029
0.393725
0.351961
0.328948
0.317871
0.314875
0.315891
0.316053
0.316119
0.316402
0.317457
0.320372
0.330083
0.353422
0.393464
0.452643
0.511126
0.197966
0.197705
0.510644
0.451547
0.392239
0.350418
0.327288
0.31786
0.3159
0.316337
0.316734
0.31688
0.31697
0.317541
0.319609
0.32942
0.352402
0.391898
0.451024
0.510369
0.197519
0.197246
0.509766
0.449866
0.390573
0.349201
0.326873
0.318077
0.314237
0.315685
0.316901
0.317246
0.317095
0.317011
0.320033
0.329341
0.351175
0.390132
0.449277
0.509515
0.197026
0.196874
0.509014
0.448244
0.388951
0.348781
0.32673
0.317525
0.314733
0.314564
0.316397
0.317052
0.316455
0.315184
0.318294
0.329572
0.349979
0.388407
0.447491
0.50857
0.196511
0.196436
0.508213
0.446421
0.387087
0.348724
0.327278
0.317297
0.313132
0.315613
0.315204
0.316
0.315158
0.314925
0.317953
0.328592
0.348777
0.386603
0.445643
0.507602
0.195967
0.195998
0.507436
0.444565
0.385
0.346357
0.324419
0.315974
0.312157
0.313977
0.316389
0.315579
0.316713
0.315816
0.318184
0.327626
0.347431
0.384558
0.443568
0.506516
0.195338
0.195415
0.506406
0.442453
0.382868
0.344742
0.32206
0.314454
0.311286
0.311489
0.314178
0.316172
0.31452
0.312955
0.316978
0.326303
0.34555
0.382244
0.441309
0.505378
0.194656
0.194767
0.505278
0.440132
0.380532
0.343185
0.320732
0.312667
0.312269
0.311248
0.311703
0.313743
0.31195
0.311985
0.315674
0.325068
0.343878
0.379919
0.438913
0.504176
0.193906
0.193929
0.503917
0.437425
0.377802
0.341377
0.320202
0.312292
0.310814
0.3119
0.311319
0.311753
0.311519
0.311338
0.313835
0.323888
0.341988
0.377216
0.436115
0.502651
0.192952
0.192983
0.502378
0.434412
0.374739
0.339193
0.319812
0.312313
0.312026
0.311789
0.311154
0.311983
0.3118
0.311405
0.313533
0.32249
0.339789
0.374279
0.433082
0.500934
0.191901
0.191828
0.500549
0.431054
0.371341
0.336524
0.320076
0.312361
0.310416
0.310965
0.31122
0.313459
0.313306
0.312798
0.313601
0.320838
0.337463
0.37115
0.429799
0.499026
0.190744
0.190529
0.49842
0.427354
0.367732
0.333346
0.317027
0.309806
0.309188
0.310129
0.310991
0.311204
0.310697
0.31067
0.313697
0.317975
0.334614
0.367686
0.426244
0.496906
0.189474
0.189093
0.496082
0.423506
0.364125
0.33042
0.31506
0.309935
0.310301
0.313007
0.3142
0.314007
0.311498
0.310842
0.313387
0.315455
0.332057
0.364288
0.422577
0.494605
0.188098
0.187422
0.493401
0.419309
0.360397
0.3274
0.313619
0.310453
0.31118
0.313591
0.314548
0.314293
0.312179
0.311008
0.312383
0.31443
0.329522
0.360708
0.418632
0.492115
0.18658
0.18564
0.490654
0.414994
0.356935
0.325279
0.314924
0.313297
0.314313
0.31568
0.315456
0.31588
0.314827
0.311896
0.311066
0.313549
0.32655
0.357057
0.414557
0.489542
0.184968
0.183521
0.487476
0.410334
0.35345
0.323736
0.314331
0.313731
0.315366
0.317026
0.316763
0.317212
0.316079
0.314438
0.312055
0.314563
0.324328
0.353657
0.410222
0.486533
0.183037
0.181187
0.483932
0.405438
0.349989
0.323346
0.315774
0.31461
0.317247
0.319215
0.320016
0.319967
0.318091
0.315608
0.312842
0.313326
0.322248
0.350318
0.405797
0.483423
0.181026
0.178576
0.479914
0.400328
0.346518
0.323117
0.31524
0.316372
0.3192
0.321248
0.32203
0.321947
0.320334
0.317795
0.314476
0.31428
0.321994
0.347347
0.401067
0.479785
0.17859
0.175652
0.475303
0.39497
0.343194
0.322261
0.316954
0.318246
0.321399
0.323822
0.324923
0.324661
0.323192
0.320125
0.317231
0.315287
0.32104
0.344063
0.396126
0.4759
0.176024
0.172508
0.470218
0.389354
0.339894
0.321486
0.318186
0.320521
0.323812
0.326159
0.327217
0.32712
0.325605
0.322914
0.319366
0.317665
0.322055
0.341175
0.390885
0.471202
0.172945
0.16918
0.464763
0.383636
0.336721
0.320742
0.319186
0.32213
0.325604
0.328239
0.329581
0.329436
0.327961
0.325321
0.32193
0.318893
0.321065
0.338161
0.385505
0.466168
0.169837
0.16579
0.459005
0.378016
0.333924
0.320255
0.320401
0.323957
0.327631
0.330269
0.331551
0.331474
0.330033
0.327314
0.323668
0.320284
0.320541
0.335393
0.379964
0.460498
0.166408
0.162491
0.453125
0.372837
0.33188
0.320284
0.321783
0.325807
0.329603
0.332296
0.333655
0.333622
0.332234
0.329566
0.325886
0.322139
0.321095
0.333301
0.374684
0.454756
0.163175
0.159396
0.447147
0.368049
0.330518
0.321651
0.323525
0.327693
0.331461
0.334088
0.335406
0.33541
0.334103
0.331497
0.327757
0.323609
0.321684
0.331389
0.369536
0.448581
0.15989
0.156678
0.441291
0.363802
0.329613
0.322898
0.325279
0.329504
0.333233
0.335822
0.33714
0.337183
0.335962
0.333476
0.329855
0.325731
0.323498
0.330498
0.365067
0.442524
0.157075
0.154454
0.435621
0.360168
0.329363
0.323925
0.326866
0.331239
0.33492
0.337414
0.338675
0.338742
0.337609
0.335224
0.331637
0.327363
0.324526
0.329798
0.360937
0.436376
0.154489
0.15278
0.430098
0.356994
0.329271
0.325377
0.328725
0.333074
0.336634
0.339021
0.340228
0.340317
0.339283
0.337041
0.333574
0.329239
0.325853
0.329718
0.357423
0.430506
0.152447
0.15205
0.42455
0.354049
0.329099
0.32682
0.330534
0.334881
0.33835
0.340644
0.341788
0.341878
0.340911
0.338771
0.335409
0.331095
0.327334
0.329639
0.354269
0.424622
0.150678
0.150082
0.418664
0.351281
0.32933
0.328333
0.332389
0.336746
0.340149
0.342396
0.343526
0.34361
0.342643
0.340541
0.337234
0.332892
0.328731
0.329519
0.351277
0.418584
0.149171
0.148334
0.412224
0.348448
0.32969
0.329865
0.334252
0.338616
0.341951
0.344139
0.345243
0.345317
0.344356
0.342297
0.339054
0.334722
0.330268
0.329927
0.348461
0.412119
0.147691
0.146845
0.405207
0.345578
0.330145
0.331574
0.336271
0.340596
0.343812
0.345893
0.346929
0.346988
0.34606
0.344073
0.340913
0.336595
0.331824
0.330233
0.345442
0.40502
0.14625
0.145214
0.397254
0.342445
0.330547
0.333257
0.338302
0.342626
0.345746
0.347728
0.348699
0.348739
0.347844
0.345933
0.342858
0.338542
0.333439
0.330581
0.34227
0.397003
0.144784
0.143858
0.388582
0.339444
0.331294
0.335276
0.340587
0.344839
0.347811
0.349664
0.350557
0.350583
0.349736
0.347929
0.344987
0.340745
0.335402
0.331322
0.339305
0.38833
0.143562
0.143149
0.379125
0.336601
0.332362
0.337544
0.343051
0.347185
0.349978
0.351681
0.352488
0.352501
0.351717
0.350038
0.347261
0.343129
0.337601
0.332363
0.33653
0.378935
0.143086
0.142748
0.369376
0.33452
0.334
0.340193
0.345759
0.349692
0.35226
0.353792
0.354507
0.354512
0.353808
0.352288
0.349729
0.345798
0.34023
0.334018
0.334503
0.369326
0.14271
0.144275
0.359837
0.333536
0.336233
0.343211
0.348662
0.352303
0.354596
0.35593
0.356543
0.356544
0.355934
0.354602
0.352313
0.348669
0.343216
0.336231
0.333533
0.359876
0.144263
0.146887
0.350974
0.333268
0.339115
0.346567
0.351738
0.354988
0.35695
0.358059
0.358559
0.358558
0.358058
0.356946
0.354986
0.351734
0.346567
0.339122
0.333267
0.35099
0.146841
0.151551
0.343175
0.334411
0.342762
0.350247
0.35492
0.357671
0.35925
0.360108
0.360485
0.360483
0.360104
0.359241
0.357661
0.354908
0.350236
0.342756
0.334397
0.343209
0.151552
0.157926
0.336926
0.336863
0.347054
0.35416
0.358136
0.360292
0.361443
0.36203
0.362277
0.362275
0.362027
0.361437
0.360287
0.358136
0.354169
0.347074
0.336863
0.336895
0.157885
0.166684
0.333254
0.340948
0.352057
0.358266
0.361334
0.362805
0.36349
0.363789
0.3639
0.363899
0.363787
0.363486
0.362801
0.361335
0.358271
0.352071
0.340973
0.333254
0.166714
0.177483
0.331805
0.34646
0.357424
0.362416
0.364437
0.365164
0.36536
0.365367
0.36534
0.36534
0.365366
0.365359
0.365163
0.364441
0.362424
0.357435
0.346478
0.331811
0.177457
0.19089
0.332186
0.353544
0.363298
0.3666
0.367401
0.367333
0.367032
0.366751
0.366591
0.366591
0.366749
0.367031
0.36733
0.3674
0.366599
0.363297
0.353551
0.332193
0.190908
0.207066
0.338597
0.362405
0.369401
0.370604
0.370099
0.369241
0.368472
0.36793
0.367653
0.367653
0.367928
0.368469
0.369237
0.370097
0.370606
0.369411
0.362428
0.338612
0.207035
0.225242
0.348137
0.372267
0.375444
0.374271
0.372425
0.370828
0.369659
0.368908
0.368543
0.368542
0.368905
0.369653
0.370821
0.372417
0.374266
0.375445
0.372279
0.348151
0.225234
0.24598
0.36383
0.383471
0.381248
0.377393
0.374249
0.372034
0.370586
0.369715
0.369305
0.369304
0.369712
0.370581
0.372028
0.374242
0.377393
0.381259
0.383503
0.363849
0.245968
0.267973
0.384308
0.394891
0.386015
0.379348
0.375304
0.372813
0.371293
0.37042
0.370022
0.370021
0.370418
0.371289
0.372807
0.3753
0.379348
0.386024
0.394906
0.384287
0.267927
0.291298
0.410252
0.4047
0.388353
0.380081
0.37574
0.37331
0.371903
0.371137
0.370802
0.370801
0.371136
0.371902
0.373306
0.375737
0.38008
0.388357
0.404716
0.410272
0.291318
0.314377
0.434524
0.408968
0.388853
0.38008
0.375803
0.373628
0.372509
0.371956
0.371732
0.371732
0.371957
0.372511
0.373627
0.375803
0.380078
0.388858
0.408979
0.434528
0.314344
0.338053
0.444934
0.406841
0.385646
0.378086
0.375059
0.373774
0.373203
0.372962
0.372876
0.372876
0.372964
0.373206
0.373777
0.375061
0.378088
0.385648
0.406847
0.444932
0.338071
0.364371
0.421485
0.386481
0.377509
0.375381
0.374627
0.374348
0.374272
0.374255
0.374253
0.374253
0.374255
0.374272
0.374348
0.374627
0.375381
0.377508
0.38648
0.421486
0.364367
0.607528
1.18496
1.05263
0.861483
0.687197
0.558587
0.479162
0.435027
0.411372
0.401219
0.400999
0.410599
0.433638
0.478619
0.560339
0.687059
0.857265
1.04481
1.17896
0.602639
0.604233
1.18121
1.04942
0.857601
0.679359
0.55271
0.476315
0.434613
0.411559
0.401758
0.401569
0.410591
0.432854
0.47678
0.558349
0.684396
0.854251
1.04188
1.17792
0.599655
0.605591
1.18339
1.0471
0.854979
0.677455
0.551785
0.475242
0.43381
0.41061
0.400951
0.400875
0.410546
0.432396
0.475039
0.556901
0.682366
0.85183
1.03899
1.1776
0.602697
0.604629
1.1824
1.03982
0.846425
0.67259
0.547662
0.474002
0.433245
0.410425
0.401332
0.400338
0.409763
0.431854
0.474497
0.551918
0.674936
0.843895
1.03116
1.17633
0.602126
0.60283
1.18185
1.04167
0.844845
0.668798
0.54596
0.47274
0.432491
0.410164
0.400227
0.399419
0.409144
0.431322
0.473916
0.551679
0.67506
0.845596
1.03115
1.17389
0.598817
0.603761
1.18088
1.03699
0.841256
0.665081
0.543378
0.471541
0.431829
0.409794
0.400055
0.399244
0.408945
0.430781
0.472612
0.550138
0.672586
0.84346
1.02963
1.17422
0.599119
0.602621
1.17769
1.03644
0.838258
0.66188
0.541089
0.470561
0.431185
0.408939
0.398918
0.399014
0.408285
0.430338
0.471819
0.550099
0.670522
0.836329
1.02853
1.17451
0.598493
0.599131
1.17802
1.03647
0.835291
0.659808
0.539555
0.469391
0.43058
0.408964
0.398866
0.399569
0.40823
0.430003
0.471039
0.548623
0.668801
0.835286
1.02889
1.17288
0.59748
0.599218
1.17736
1.03489
0.833396
0.657594
0.537624
0.468334
0.429915
0.408463
0.398619
0.398924
0.408153
0.4295
0.469837
0.544366
0.668265
0.835826
1.03144
1.17411
0.599123
0.598446
1.17362
1.03259
0.835092
0.659372
0.536545
0.467262
0.429256
0.408319
0.398599
0.399494
0.408505
0.429141
0.469053
0.544383
0.666324
0.832933
1.02938
1.17341
0.59685
0.597123
1.17353
1.03093
0.832758
0.65896
0.534862
0.46622
0.428373
0.4076
0.398405
0.398689
0.407412
0.428414
0.468018
0.542475
0.660216
0.828228
1.02651
1.16986
0.598185
0.593403
1.16977
1.0235
0.829484
0.656533
0.533541
0.465311
0.427615
0.406829
0.398028
0.397905
0.406437
0.427833
0.466545
0.538589
0.658624
0.823445
1.02504
1.17001
0.595475
0.593067
1.16945
1.02041
0.826065
0.653172
0.532844
0.464469
0.427095
0.40696
0.398793
0.398116
0.406249
0.427188
0.465017
0.535847
0.654913
0.82118
1.01896
1.16662
0.595781
0.590829
1.16673
1.01261
0.817134
0.649751
0.532596
0.463637
0.426993
0.407347
0.398313
0.398334
0.406037
0.426532
0.46394
0.533659
0.65145
0.818177
1.01826
1.16716
0.593941
0.588781
1.16446
1.0095
0.813032
0.643726
0.530503
0.462576
0.426468
0.406583
0.398448
0.398754
0.405932
0.425849
0.462456
0.531411
0.648361
0.815185
1.01592
1.16713
0.595249
0.586989
1.1621
1.00507
0.808289
0.640586
0.526742
0.461107
0.425814
0.406648
0.397759
0.397836
0.405805
0.425274
0.461579
0.529652
0.645108
0.81284
1.01772
1.16881
0.592815
0.58498
1.1589
1.00044
0.802766
0.636463
0.523695
0.459732
0.424504
0.405073
0.396871
0.396816
0.404789
0.424494
0.460196
0.527629
0.641919
0.810013
1.01616
1.16824
0.593557
0.58293
1.15746
0.996226
0.79809
0.632331
0.522009
0.458835
0.423595
0.404147
0.395719
0.395701
0.404686
0.424035
0.458963
0.524501
0.638145
0.806996
1.01014
1.16441
0.592383
0.581197
1.15613
0.993141
0.792505
0.628391
0.520317
0.457846
0.422562
0.404266
0.395812
0.39563
0.40481
0.423295
0.457791
0.522299
0.634828
0.803785
1.00879
1.16405
0.589508
0.578897
1.15353
0.989095
0.789159
0.625074
0.518324
0.456853
0.421739
0.403751
0.396259
0.395409
0.404378
0.422578
0.456587
0.520036
0.630489
0.79971
1.00658
1.16135
0.58921
0.575807
1.14952
0.984016
0.783627
0.621381
0.51599
0.455837
0.421887
0.403369
0.394719
0.395132
0.403774
0.421731
0.455411
0.518062
0.628024
0.796166
1.00172
1.16135
0.588647
0.572648
1.14489
0.978537
0.778497
0.617862
0.513733
0.454532
0.420717
0.402836
0.394554
0.395271
0.40239
0.420744
0.454202
0.515801
0.62413
0.791606
0.998113
1.15918
0.587343
0.570358
1.14247
0.974169
0.77274
0.613419
0.511517
0.453613
0.420294
0.402303
0.394388
0.393818
0.401113
0.419813
0.453143
0.513962
0.621059
0.786805
0.992112
1.15797
0.584111
0.568086
1.13873
0.968182
0.766782
0.60986
0.509661
0.4526
0.419149
0.401581
0.395245
0.393926
0.400939
0.418918
0.452125
0.51205
0.618034
0.782647
0.988819
1.15654
0.582111
0.566263
1.13603
0.963656
0.761474
0.605937
0.507744
0.451882
0.41946
0.401547
0.394738
0.39387
0.400815
0.418148
0.451344
0.51024
0.614459
0.77773
0.983227
1.15341
0.580434
0.566068
1.13523
0.959647
0.756962
0.602809
0.505939
0.450878
0.418786
0.401442
0.394234
0.394023
0.400907
0.418408
0.45063
0.508632
0.611399
0.773405
0.980101
1.15222
0.57803
0.566814
1.13667
0.95747
0.752091
0.599355
0.504292
0.450184
0.41935
0.401661
0.394389
0.394173
0.400948
0.41762
0.449704
0.506814
0.608161
0.768732
0.97486
1.14912
0.57541
0.564676
1.13683
0.957334
0.74956
0.597157
0.502939
0.449297
0.418696
0.401817
0.394701
0.39448
0.401147
0.417951
0.449047
0.505114
0.605284
0.76555
0.972449
1.1477
0.573873
0.566048
1.13607
0.957513
0.746036
0.594773
0.50157
0.44849
0.419306
0.402103
0.394984
0.394742
0.401237
0.417239
0.448071
0.503218
0.601922
0.761173
0.968836
1.14676
0.572084
0.562945
1.13434
0.955104
0.743588
0.592757
0.500335
0.447514
0.41843
0.402742
0.396067
0.395878
0.402057
0.417595
0.447354
0.501574
0.599181
0.758248
0.965799
1.14558
0.57037
0.561946
1.13307
0.948574
0.740129
0.590775
0.499215
0.446585
0.417724
0.402301
0.395847
0.395756
0.401508
0.416563
0.446479
0.499963
0.596217
0.753627
0.961413
1.14337
0.568108
0.559273
1.13035
0.943722
0.737153
0.588901
0.498124
0.445802
0.416869
0.401894
0.396807
0.396069
0.401139
0.415821
0.44573
0.498396
0.593072
0.748075
0.955355
1.13946
0.564925
0.557679
1.1274
0.940587
0.734588
0.586982
0.497128
0.445349
0.416141
0.401857
0.39651
0.39597
0.401174
0.415727
0.44502
0.496589
0.589666
0.742897
0.95079
1.13458
0.561585
0.555646
1.12564
0.936721
0.731639
0.585051
0.496029
0.444977
0.416099
0.402046
0.396262
0.395729
0.401246
0.415653
0.444224
0.494955
0.58656
0.738237
0.944948
1.1319
0.559223
0.553943
1.12303
0.932651
0.728207
0.582812
0.494867
0.44421
0.416001
0.402265
0.397488
0.396084
0.401391
0.415733
0.443456
0.493171
0.583156
0.732444
0.939943
1.12932
0.556995
0.5519
1.12048
0.927819
0.724631
0.580697
0.493842
0.443594
0.416061
0.402499
0.397529
0.396586
0.401553
0.416254
0.442572
0.491389
0.580154
0.728811
0.935285
1.12688
0.554231
0.549188
1.11681
0.923203
0.721107
0.578457
0.49273
0.443506
0.416258
0.402685
0.397576
0.396237
0.401759
0.415396
0.441549
0.489526
0.576699
0.723483
0.930701
1.12403
0.551976
0.546608
1.11436
0.918638
0.717525
0.576156
0.491491
0.442853
0.41627
0.40327
0.397351
0.396702
0.400761
0.414392
0.440433
0.487565
0.573214
0.718589
0.925178
1.12167
0.549081
0.544272
1.11125
0.914181
0.713969
0.573775
0.490171
0.441832
0.415253
0.402215
0.396487
0.396019
0.400337
0.41317
0.439402
0.485863
0.570195
0.713938
0.920017
1.11879
0.546597
0.542047
1.1096
0.90896
0.709358
0.570935
0.488814
0.441531
0.415117
0.402328
0.396718
0.397147
0.400877
0.412029
0.438308
0.483918
0.566706
0.708801
0.9145
1.11471
0.543102
0.540011
1.10829
0.904694
0.705483
0.568372
0.487392
0.440686
0.415063
0.403043
0.396873
0.396824
0.400196
0.411576
0.437274
0.482153
0.563821
0.704413
0.909251
1.11149
0.540544
0.538292
1.10666
0.900685
0.701236
0.565558
0.485902
0.439782
0.414877
0.4026
0.39741
0.396216
0.400429
0.411299
0.435966
0.480036
0.560171
0.699067
0.904163
1.10857
0.537564
0.536402
1.10351
0.896467
0.697226
0.562832
0.48443
0.439713
0.415276
0.401747
0.396372
0.396614
0.399974
0.411086
0.434734
0.47804
0.556676
0.6935
0.897649
1.10484
0.534807
0.534821
1.10119
0.892455
0.693405
0.56022
0.482856
0.440038
0.414282
0.401537
0.396126
0.39535
0.399175
0.409437
0.433351
0.475763
0.552798
0.687936
0.891694
1.10172
0.531852
0.533427
1.09858
0.888444
0.689631
0.557588
0.481094
0.438718
0.414184
0.40158
0.396279
0.395494
0.399986
0.409001
0.431994
0.473295
0.548628
0.681599
0.884764
1.09834
0.528987
0.531537
1.0958
0.88397
0.685798
0.554951
0.479275
0.437649
0.414569
0.401562
0.396339
0.395407
0.399208
0.408614
0.43027
0.470584
0.544285
0.675514
0.878059
1.09477
0.525849
0.529721
1.09293
0.879606
0.68172
0.552104
0.477327
0.436302
0.413473
0.40159
0.396634
0.395592
0.398445
0.408563
0.428233
0.46775
0.539784
0.66904
0.871467
1.09199
0.523198
0.527368
1.08924
0.874683
0.677695
0.549359
0.475395
0.43502
0.412979
0.401662
0.396885
0.395849
0.398114
0.407018
0.426245
0.465013
0.535374
0.662791
0.864507
1.08819
0.519789
0.525561
1.08648
0.87008
0.673216
0.546216
0.47334
0.433591
0.411869
0.402371
0.398031
0.397195
0.398221
0.406
0.42415
0.462175
0.530826
0.65639
0.857925
1.08473
0.516536
0.522677
1.08255
0.864382
0.668369
0.542943
0.471358
0.432451
0.411958
0.40134
0.397096
0.396575
0.39819
0.405062
0.422061
0.459239
0.525982
0.649398
0.850259
1.07998
0.512488
0.5203
1.07917
0.859015
0.663328
0.539368
0.469266
0.431006
0.410619
0.401166
0.397129
0.396006
0.398835
0.405163
0.420841
0.456427
0.521271
0.642665
0.843034
1.07613
0.508694
0.517705
1.07568
0.853167
0.657904
0.535608
0.46719
0.429433
0.410452
0.401291
0.397523
0.396064
0.39834
0.405884
0.420439
0.453401
0.516059
0.635173
0.834841
1.07068
0.503961
0.51483
1.07213
0.847449
0.652457
0.531693
0.46512
0.427763
0.411065
0.401335
0.398735
0.396998
0.397823
0.403826
0.42035
0.450364
0.51079
0.62763
0.826495
1.06528
0.499472
0.511606
1.06775
0.840866
0.646428
0.527374
0.462861
0.426669
0.409874
0.401108
0.39759
0.395964
0.397649
0.401992
0.417918
0.446716
0.504821
0.619338
0.81766
1.05974
0.494924
0.508427
1.06432
0.834628
0.640413
0.522866
0.460205
0.426376
0.410919
0.401175
0.397242
0.396346
0.39706
0.401407
0.416188
0.443
0.498806
0.611032
0.808447
1.05353
0.490277
0.504773
1.05971
0.827459
0.633906
0.518216
0.457251
0.426253
0.409803
0.401223
0.398101
0.394971
0.395788
0.401018
0.41378
0.438761
0.492406
0.602289
0.79896
1.04765
0.485921
0.501587
1.05623
0.820601
0.627336
0.51357
0.454751
0.425351
0.41063
0.401517
0.397264
0.394869
0.395048
0.401467
0.411426
0.43471
0.486183
0.593697
0.789685
1.04178
0.481868
0.497819
1.05158
0.813016
0.620444
0.508681
0.451478
0.422853
0.408316
0.399372
0.395848
0.395315
0.394628
0.399766
0.409084
0.430696
0.47968
0.584686
0.780348
1.03679
0.478334
0.494951
1.04837
0.805655
0.61335
0.503755
0.448728
0.421155
0.406862
0.399063
0.395486
0.394035
0.394137
0.398928
0.406955
0.426709
0.473413
0.576028
0.77139
1.03238
0.47493
0.491363
1.04448
0.797268
0.605728
0.498549
0.44561
0.419834
0.405411
0.399103
0.395626
0.394968
0.394104
0.397711
0.404579
0.422956
0.467391
0.567266
0.762149
1.02825
0.471424
0.487716
1.0404
0.788129
0.597507
0.49314
0.44209
0.418505
0.405405
0.398677
0.39557
0.393599
0.394299
0.396139
0.402127
0.419675
0.461853
0.558687
0.752529
1.02365
0.467238
0.483591
1.03616
0.778359
0.58895
0.487927
0.438287
0.415914
0.406415
0.399561
0.396221
0.393775
0.392567
0.394081
0.39932
0.416633
0.456629
0.550307
0.742712
1.01892
0.462632
0.478296
1.03092
0.766621
0.57902
0.482527
0.434709
0.412814
0.404703
0.397821
0.395003
0.39256
0.391363
0.392099
0.396741
0.414219
0.451728
0.541721
0.73188
1.01284
0.456504
0.471915
1.02481
0.753786
0.568277
0.47693
0.431947
0.410145
0.40361
0.397534
0.394134
0.393478
0.392502
0.390884
0.394204
0.411431
0.446531
0.532698
0.720078
1.00638
0.449703
0.463157
1.01629
0.738488
0.555907
0.47022
0.429085
0.409152
0.40239
0.397583
0.393984
0.392461
0.391913
0.391465
0.393344
0.409162
0.441405
0.523099
0.706507
0.99728
0.440602
0.4524
1.00551
0.721444
0.542784
0.462614
0.425704
0.408535
0.400981
0.396409
0.393927
0.39249
0.391033
0.390109
0.392516
0.406461
0.435894