/*--------------------------------*- C++ -*----------------------------------*\
  =========                 |
  \\      /  F ield         | OpenFOAM: The Open Source CFD Toolbox
   \\    /   O peration     | Website:  https://openfoam.org
    \\  /    A nd           | Version:  6
     \\/     M anipulation  |
\*---------------------------------------------------------------------------*/
FoamFile
{
    version     2.0;
    format      ascii;
    class       volScalarField;
    location    "27";
    object      nut;
}
// * * * * * * * * * * * * * * * * * * * * * * * * * * * * * * * * * * * * * //

dimensions      [0 2 -1 0 0 0 0];

internalField   nonuniform List<scalar> 
10000
(
1.46615e-05
6.97881e-05
8.98106e-05
0.000106199
0.000124086
0.00014576
0.000170623
0.000195036
0.00021509
0.000226301
0.000226384
0.000215442
0.000195805
0.000171488
0.000147308
0.000125945
0.00010766
9.03427e-05
6.99453e-05
1.46319e-05
1.46358e-05
6.97936e-05
8.99877e-05
0.000106463
0.000125035
0.000147102
0.000172223
0.000196365
0.000216511
0.000229069
0.000229221
0.000216576
0.000196518
0.000171848
0.000147582
0.000126218
0.000107889
9.03485e-05
6.99353e-05
1.46306e-05
1.46334e-05
6.96798e-05
8.96829e-05
0.000105922
0.000124191
0.000146625
0.000172404
0.000196035
0.000217767
0.000227134
0.00022731
0.000218268
0.000197472
0.000171951
0.000147677
0.000126852
0.000108486
9.03679e-05
6.99337e-05
1.46171e-05
1.46288e-05
6.96351e-05
8.96404e-05
0.000106374
0.00012383
0.000145947
0.000171193
0.000196813
0.000216891
0.00022699
0.000227046
0.000217459
0.000197725
0.000172275
0.000148053
0.000125829
0.00010788
9.03416e-05
6.99334e-05
1.46274e-05
1.46478e-05
6.96528e-05
8.94628e-05
0.000105985
0.000124134
0.000146392
0.000171007
0.000196191
0.000215892
0.000227221
0.00022736
0.00021636
0.000197055
0.000173134
0.000148174
0.000125876
0.000107345
9.04122e-05
6.99381e-05
1.46456e-05
1.46361e-05
6.97056e-05
8.97661e-05
0.000106431
0.000125035
0.000147781
0.000172177
0.000197577
0.000216405
0.000227699
0.0002278
0.000216614
0.000196635
0.000172664
0.000149162
0.000126027
0.000107366
9.04557e-05
6.99418e-05
1.46558e-05
1.46553e-05
6.96772e-05
8.99637e-05
0.000106609
0.000124367
0.000147011
0.0001716
0.00019724
0.000218207
0.000229556
0.000228439
0.00021871
0.000197129
0.000172801
0.000149235
0.000126842
0.000107409
9.01285e-05
6.98851e-05
1.46628e-05
1.46687e-05
6.97305e-05
8.96527e-05
0.000106289
0.00012484
0.000146196
0.00017124
0.000196688
0.00021701
0.000229731
0.000228615
0.000216958
0.000197081
0.000172997
0.000149142
0.000126365
0.000107765
9.0306e-05
7.00042e-05
1.46667e-05
1.46773e-05
6.97243e-05
8.95492e-05
0.000106709
0.00012389
0.000146767
0.00017232
0.000197754
0.000217547
0.000228772
0.000230297
0.000217287
0.000197375
0.000173736
0.000148561
0.000126904
0.000107506
9.04832e-05
7.00848e-05
1.46735e-05
1.46734e-05
6.97779e-05
8.98855e-05
0.000105989
0.000123893
0.000145844
0.000172515
0.000199285
0.000218336
0.000228895
0.000228962
0.000217636
0.000197583
0.000173276
0.000149335
0.00012589
0.000107527
9.04752e-05
6.99917e-05
1.46623e-05
1.46855e-05
6.98656e-05
8.97939e-05
0.000106689
0.000124197
0.0001461
0.000173122
0.000198751
0.000220659
0.000231138
0.000230792
0.000219453
0.000198995
0.000173767
0.000148277
0.000126122
0.000107699
9.06667e-05
7.00577e-05
1.46573e-05
1.46768e-05
6.98532e-05
8.99697e-05
0.000106299
0.000124239
0.000146352
0.000172594
0.000198453
0.000219039
0.000228254
0.000227781
0.00021645
0.000197289
0.000174757
0.00014938
0.000126336
0.000108042
9.02484e-05
6.99795e-05
1.46585e-05
1.46619e-05
6.98086e-05
8.98934e-05
0.000106347
0.000125112
0.000146422
0.000171687
0.000197163
0.000217622
0.00022965
0.000229625
0.000216638
0.000197233
0.000174195
0.000149208
0.000126387
0.000107847
9.03213e-05
6.99023e-05
1.46376e-05
1.46597e-05
6.97935e-05
8.98276e-05
0.000106525
0.000125001
0.000146822
0.000172048
0.000198671
0.000217954
0.000227338
0.000227171
0.000216562
0.000197561
0.00017366
0.00014895
0.000127019
0.000107298
9.04739e-05
6.9854e-05
1.46232e-05
1.46473e-05
6.97405e-05
8.95147e-05
0.000106427
0.000124979
0.000147229
0.000173074
0.000198008
0.000217038
0.000227396
0.000227195
0.000216895
0.000198061
0.000174841
0.000149042
0.000126438
0.000107643
9.01579e-05
6.97646e-05
1.46155e-05
1.46439e-05
6.97659e-05
8.95393e-05
0.000106367
0.000124542
0.000146691
0.000173103
0.000199717
0.000219091
0.000229663
0.000227805
0.00021744
0.0001987
0.000174453
0.00014925
0.00012712
0.000107365
8.98455e-05
6.97003e-05
1.46013e-05
1.46352e-05
6.9714e-05
8.95101e-05
0.000106456
0.00012465
0.000146887
0.000173841
0.000198883
0.000217055
0.000227157
0.00022787
0.000218304
0.00020068
0.000175647
0.000149185
0.000126944
0.000107762
8.99644e-05
6.96136e-05
1.45852e-05
1.4621e-05
6.96732e-05
8.94691e-05
0.00010647
0.000124809
0.000147072
0.000172559
0.000197593
0.00021718
0.00022702
0.00022789
0.000219964
0.000200261
0.000175197
0.000149305
0.000127582
0.000107544
8.97959e-05
6.95799e-05
1.45773e-05
1.46072e-05
6.96735e-05
8.93671e-05
0.000106219
0.000124836
0.000147429
0.000172935
0.000197839
0.000216805
0.000227315
0.000228171
0.000218767
0.000199539
0.000174654
0.000150015
0.000127554
0.000107519
8.97137e-05
6.95482e-05
1.45644e-05
1.4589e-05
6.96304e-05
8.94284e-05
0.000106281
0.000124981
0.000148977
0.00017311
0.000199345
0.000217664
0.000227934
0.00022923
0.000220688
0.000201259
0.000174972
0.000149567
0.000127511
0.000107381
8.95759e-05
6.95367e-05
1.45482e-05
1.45721e-05
6.95456e-05
8.92823e-05
0.000106284
0.000124935
0.000148364
0.000173199
0.000198448
0.000219539
0.000228445
0.000228247
0.000218451
0.000199889
0.000175505
0.000149842
0.000127533
0.000107257
8.93944e-05
6.94256e-05
1.45286e-05
1.45529e-05
6.94744e-05
8.92038e-05
0.000106379
0.000125025
0.000148402
0.000173938
0.00019872
0.000218486
0.000229226
0.000229381
0.000219282
0.000202029
0.000177354
0.000150207
0.000127438
0.000107063
8.9152e-05
6.93653e-05
1.4512e-05
1.45436e-05
6.94344e-05
8.91039e-05
0.000106189
0.000125013
0.000148134
0.000175125
0.000200607
0.00022148
0.000232621
0.000232536
0.000219973
0.000201209
0.000177666
0.000151245
0.000127425
0.000106824
8.89247e-05
6.92114e-05
1.44821e-05
1.45264e-05
6.9373e-05
8.91444e-05
0.000106192
0.000125651
0.000148182
0.000174797
0.000199211
0.000220284
0.000231501
0.000231822
0.000220596
0.000201664
0.000177213
0.00015178
0.000127237
0.000106356
8.87394e-05
6.90943e-05
1.44639e-05
1.45121e-05
6.93327e-05
8.90722e-05
0.000106032
0.000125432
0.000148784
0.000175758
0.000199187
0.00021919
0.0002304
0.00023087
0.000221596
0.000203927
0.000178381
0.000151422
0.000127071
0.00010638
8.8594e-05
6.89659e-05
1.44337e-05
1.44966e-05
6.92973e-05
8.90941e-05
0.000106094
0.000125586
0.000149297
0.000175304
0.000199508
0.000219689
0.000231014
0.00023137
0.000221476
0.000201594
0.000176378
0.0001509
0.000126957
0.000106124
8.87004e-05
6.89771e-05
1.44236e-05
1.44819e-05
6.92568e-05
8.90994e-05
0.000106643
0.000126476
0.000149776
0.000175533
0.000200101
0.000220795
0.000232288
0.000234051
0.000220909
0.000200111
0.000175191
0.000150582
0.000126926
0.000106409
8.85946e-05
6.89073e-05
1.44058e-05
1.44645e-05
6.92293e-05
8.90304e-05
0.000106558
0.000126649
0.000149865
0.000175659
0.000200835
0.000222935
0.000234393
0.000234032
0.000223312
0.000200945
0.000175693
0.000150607
0.000126974
0.000106284
8.84792e-05
6.88308e-05
1.43806e-05
1.44465e-05
6.92129e-05
8.90044e-05
0.000106723
0.000126976
0.000150486
0.000175931
0.000201328
0.000221377
0.000232238
0.00023285
0.000223107
0.000202573
0.000176214
0.000150525
0.000127048
0.000106226
8.8338e-05
6.87664e-05
1.43626e-05
1.44238e-05
6.91414e-05
8.8929e-05
0.000106786
0.000127228
0.000151018
0.000176803
0.000202721
0.00022451
0.00023523
0.000235446
0.000222262
0.000202016
0.000176784
0.000151211
0.000127271
0.000106232
8.82576e-05
6.87011e-05
1.43412e-05
1.44039e-05
6.90771e-05
8.88635e-05
0.000106842
0.000127588
0.000151572
0.000177985
0.000203725
0.000224902
0.000234521
0.000234222
0.000222941
0.000203001
0.000177671
0.000151442
0.000127538
0.000106427
8.82213e-05
6.86511e-05
1.43257e-05
1.43897e-05
6.90345e-05
8.88482e-05
0.000106965
0.000127995
0.00015216
0.000179834
0.000205113
0.00022509
0.000236073
0.000236303
0.000226507
0.000205338
0.000178883
0.000152677
0.000128011
0.000106577
8.82527e-05
6.86016e-05
1.43119e-05
1.43693e-05
6.89889e-05
8.88756e-05
0.000107165
0.000128639
0.000153312
0.000180962
0.000206641
0.000226829
0.000238102
0.000240002
0.000227886
0.000206765
0.000179905
0.000152778
0.000128223
0.000106746
8.8183e-05
6.85328e-05
1.43055e-05
1.43471e-05
6.8928e-05
8.88281e-05
0.000107303
0.000128864
0.000153756
0.000182488
0.000210011
0.000231169
0.000242276
0.000241464
0.000229219
0.000207538
0.000181525
0.000153635
0.000128437
0.000106809
8.8219e-05
6.85747e-05
1.42924e-05
1.43248e-05
6.88771e-05
8.87732e-05
0.000107429
0.00012934
0.000154704
0.000183714
0.000211619
0.000233538
0.000245186
0.000244109
0.000232242
0.000209116
0.000181714
0.000153749
0.000128701
0.000106908
8.81758e-05
6.85558e-05
1.42741e-05
1.42962e-05
6.87979e-05
8.87106e-05
0.00010757
0.000129769
0.000155742
0.000185213
0.000213788
0.000235721
0.000247223
0.00024595
0.000234164
0.000211934
0.000183816
0.000154837
0.000129074
0.000106941
8.82105e-05
6.84969e-05
1.42475e-05
1.42732e-05
6.8723e-05
8.86104e-05
0.000107594
0.000130014
0.000156321
0.000186105
0.000215747
0.000238203
0.000249757
0.000248799
0.000236575
0.00021343
0.000184825
0.000155391
0.000129367
0.000106972
8.8099e-05
6.84367e-05
1.42205e-05
1.42482e-05
6.86378e-05
8.85086e-05
0.00010762
0.000130393
0.000157462
0.000187357
0.000217519
0.000240013
0.000251855
0.000251233
0.000238469
0.000215232
0.000186328
0.000156341
0.000129737
0.000106994
8.80108e-05
6.83494e-05
1.41911e-05
1.42339e-05
6.85865e-05
8.84465e-05
0.000107645
0.000130599
0.000157952
0.000189257
0.000219202
0.000242104
0.000254159
0.000253498
0.00024068
0.000217143
0.000187692
0.000157048
0.000129916
0.000106949
8.7907e-05
6.82472e-05
1.41642e-05
1.42169e-05
6.85396e-05
8.83606e-05
0.000107631
0.000130929
0.000159134
0.000190693
0.000221067
0.0002443
0.000256611
0.000256185
0.00024315
0.000219341
0.000189398
0.000157759
0.000130252
0.000106903
8.77721e-05
6.81735e-05
1.41448e-05
1.41982e-05
6.85068e-05
8.83171e-05
0.000107711
0.000131332
0.000159818
0.000192738
0.000223283
0.000246436
0.000258659
0.000258222
0.000245242
0.000221429
0.000190714
0.000158572
0.000130469
0.000106891
8.76772e-05
6.8102e-05
1.41191e-05
1.41741e-05
6.84569e-05
8.82186e-05
0.000107725
0.000131779
0.000161054
0.00019429
0.000225283
0.000248769
0.000261088
0.000260612
0.00024735
0.000223247
0.00019215
0.000159299
0.000130839
0.000106917
8.75545e-05
6.8024e-05
1.40969e-05
1.41409e-05
6.83841e-05
8.81379e-05
0.000107816
0.000132259
0.000162177
0.000196018
0.000227187
0.000250674
0.000263085
0.000262708
0.000249559
0.000225433
0.000193884
0.00016075
0.000131384
0.000107069
8.7515e-05
6.79604e-05
1.40763e-05
1.41106e-05
6.82991e-05
8.80434e-05
0.000107916
0.000132798
0.00016318
0.0001975
0.000229028
0.000252822
0.000265411
0.000265118
0.000251935
0.000227632
0.000195661
0.000161648
0.000131968
0.000107248
8.74943e-05
6.79194e-05
1.40606e-05
1.40808e-05
6.82313e-05
8.79792e-05
0.00010805
0.000133303
0.000164122
0.000198858
0.000230841
0.000254865
0.000267528
0.000267274
0.000254146
0.000229811
0.000197636
0.000163205
0.00013258
0.000107494
8.75143e-05
6.79066e-05
1.40459e-05
1.40488e-05
6.81412e-05
8.7893e-05
0.000108185
0.000133803
0.00016487
0.000200004
0.000232534
0.000256897
0.000269783
0.000269646
0.000256506
0.000232005
0.000199507
0.00016397
0.000133222
0.000107712
8.75115e-05
6.7885e-05
1.4028e-05
1.4026e-05
6.80767e-05
8.78071e-05
0.000108272
0.000134169
0.000165339
0.000200493
0.000234105
0.000258914
0.000272036
0.000272014
0.000258879
0.000234194
0.000201299
0.000165187
0.000133774
0.000107865
8.74928e-05
6.78625e-05
1.40116e-05
1.39997e-05
6.80046e-05
8.77343e-05
0.000108373
0.000134544
0.000166859
0.000200857
0.000235547
0.0002609
0.00027432
0.000274427
0.000261268
0.000236384
0.000203123
0.000166761
0.000134466
0.000108113
8.74786e-05
6.78333e-05
1.39865e-05
1.3978e-05
6.79492e-05
8.76611e-05
0.000108419
0.00013457
0.00016693
0.000202326
0.000236892
0.000262801
0.000276572
0.000276787
0.000263535
0.0002384
0.000204695
0.000167694
0.000134991
0.000108239
8.7421e-05
6.77816e-05
1.39628e-05
1.39469e-05
6.78902e-05
8.7598e-05
0.000108492
0.000134528
0.000166808
0.000201129
0.000237022
0.000264386
0.000278712
0.000279106
0.000265749
0.000240239
0.000205857
0.000168481
0.000135554
0.00010842
8.73775e-05
6.77273e-05
1.39342e-05
1.39189e-05
6.78083e-05
8.74938e-05
0.000108556
0.000134499
0.000166889
0.000201819
0.000236448
0.000265756
0.000280696
0.000281231
0.000267705
0.000241711
0.000206261
0.000168916
0.000136033
0.000108518
8.72856e-05
6.76754e-05
1.39045e-05
1.38923e-05
6.7747e-05
8.74126e-05
0.000108677
0.000134541
0.000166519
0.000203104
0.000239089
0.000267304
0.00028249
0.000283146
0.000269387
0.000242825
0.000206509
0.000169603
0.000136562
0.000108647
8.71939e-05
6.7602e-05
1.38708e-05
1.38591e-05
6.76561e-05
8.72756e-05
0.000108732
0.000134894
0.000167492
0.000204691
0.000237706
0.000267091
0.000283481
0.000284463
0.000270407
0.00024309
0.000208375
0.000170943
0.000136965
0.000108667
8.70582e-05
6.75149e-05
1.38344e-05
1.38334e-05
6.75952e-05
8.71809e-05
0.000108868
0.000135973
0.000168868
0.000205452
0.0002397
0.000266171
0.000283373
0.000284883
0.000270241
0.000241474
0.000207549
0.000172747
0.000137484
0.000108789
8.69385e-05
6.74134e-05
1.37961e-05
1.3801e-05
6.75196e-05
8.70347e-05
0.000108891
0.000137408
0.000171052
0.000206658
0.000238554
0.00026905
0.000282163
0.000283883
0.000269036
0.000242294
0.000208512
0.000173227
0.000137955
0.000108875
8.6806e-05
6.73201e-05
1.37543e-05
1.37662e-05
6.7447e-05
8.69105e-05
0.000108863
0.000137085
0.000169759
0.000206549
0.000238542
0.000267537
0.000285368
0.000284152
0.00027288
0.000245099
0.000210445
0.000173898
0.000138474
0.000108922
8.6631e-05
6.72026e-05
1.3706e-05
1.3719e-05
6.73304e-05
8.67252e-05
0.000108883
0.00013745
0.00016907
0.000206272
0.000238685
0.000264608
0.00028256
0.000286354
0.00027035
0.000242083
0.000210471
0.000174263
0.000138616
0.000108851
8.6421e-05
6.7073e-05
1.36546e-05
1.36654e-05
6.71927e-05
8.64923e-05
0.000108861
0.000137967
0.000169492
0.000205664
0.00024182
0.000265614
0.000279408
0.000283245
0.000267307
0.000242127
0.000210526
0.000174821
0.000139026
0.00010886
8.62035e-05
6.69363e-05
1.35941e-05
1.35979e-05
6.70089e-05
8.61749e-05
0.000108724
0.000138434
0.00017097
0.000207088
0.000241271
0.00026832
0.000280136
0.000281038
0.000268036
0.000242783
0.000209881
0.00017554
0.000139381
0.000108757
8.58958e-05
6.67447e-05
1.35182e-05
1.35219e-05
6.67952e-05
8.5795e-05
0.00010847
0.000138679
0.000172703
0.000209212
0.000245132
0.000269868
0.000281443
0.000282983
0.000270129
0.000244685
0.000211504
0.000176193
0.00013958
0.000108586
8.55477e-05
6.65303e-05
1.34385e-05
1.34307e-05
6.65374e-05
8.53631e-05
0.000108147
0.000138688
0.000175435
0.000211622
0.000244701
0.000270336
0.000283323
0.000287477
0.000274596
0.00024879
0.000213707
0.000176698
0.000139807
0.000108416
8.51711e-05
6.62923e-05
1.33507e-05
1.33305e-05
6.6233e-05
8.48745e-05
0.00010781
0.0001384
0.00017464
0.000210629
0.000245003
0.000270893
0.000284852
0.000285289
0.000272017
0.000247564
0.00021627
0.000176032
0.00013974
0.000108144
8.47533e-05
6.60318e-05
1.32548e-05
1.32182e-05
6.59235e-05
8.44141e-05
0.000107616
0.000138467
0.000175229
0.000213441
0.000249145
0.000278187
0.000292913
0.000292576
0.000275576
0.00025013
0.000218359
0.000175817
0.000140024
0.000108008
8.43551e-05
6.57616e-05
1.31505e-05
1.30911e-05
6.55755e-05
8.39178e-05
0.000107495
0.000138635
0.000176503
0.000216964
0.000253264
0.000281788
0.000296044
0.00029559
0.000279297
0.00025301
0.000219706
0.000177456
0.000140534
0.000107917
8.39536e-05
6.54885e-05
1.30377e-05
1.29546e-05
6.52549e-05
8.34996e-05
0.000107721
0.000139739
0.000181066
0.000223993
0.000261309
0.00028838
0.000300484
0.000301325
0.00028687
0.00025738
0.000220922
0.000179538
0.000140799
0.000107907
8.3596e-05
6.52278e-05
1.29135e-05
1.27935e-05
6.49082e-05
8.30961e-05
0.000108132
0.000141529
0.000183749
0.000228029
0.000266436
0.000294146
0.000306242
0.000307118
0.000292379
0.000264811
0.000225556
0.000183966
0.000141967
0.000108271
8.32908e-05
6.49468e-05
1.27695e-05
1.26205e-05
6.45693e-05
8.27738e-05
0.00010877
0.000144617
0.000189251
0.000233208
0.000273403
0.000301907
0.000316227
0.000316128
0.000299804
0.000270526
0.000230421
0.000186126
0.000143422
0.000108857
8.3076e-05
6.47078e-05
1.26174e-05
1.24257e-05
6.42264e-05
8.25396e-05
0.000109586
0.000148224
0.000192822
0.000240177
0.00028116
0.000310093
0.000324487
0.000324297
0.000308224
0.000278397
0.000236855
0.000191193
0.000146851
0.000109973
8.2952e-05
6.44599e-05
1.24379e-05
1.22121e-05
6.38907e-05
8.24238e-05
0.000110819
0.00015164
0.000199568
0.000247842
0.000289918
0.000320017
0.000335342
0.000334805
0.000318745
0.000287448
0.000245848
0.000196944
0.000150017
0.000111143
8.29254e-05
6.42582e-05
1.22475e-05
1.1988e-05
6.35821e-05
8.24068e-05
0.000112333
0.000155536
0.000206254
0.000256728
0.000299791
0.00033032
0.000345849
0.00034562
0.000329129
0.000297913
0.00025444
0.000204957
0.000155537
0.00011289
8.30502e-05
6.40416e-05
1.20281e-05
1.1758e-05
6.33401e-05
8.25859e-05
0.000114262
0.000159914
0.000213255
0.00026541
0.00030956
0.000341237
0.000357635
0.000357253
0.000340431
0.000308598
0.00026447
0.00021214
0.000159567
0.000114864
8.33286e-05
6.38803e-05
1.1812e-05
1.15334e-05
6.31853e-05
8.30156e-05
0.000116696
0.000164895
0.000221102
0.000275187
0.000320649
0.000353049
0.000369701
0.000369441
0.000352262
0.000319521
0.000273997
0.000220157
0.000164501
0.000117332
8.38037e-05
6.37587e-05
1.15838e-05
1.13247e-05
6.31746e-05
8.38436e-05
0.000119917
0.000170758
0.000229728
0.000285773
0.000332613
0.000365999
0.000383249
0.000383026
0.000365425
0.000331853
0.000285053
0.000229343
0.000170908
0.000120566
8.45884e-05
6.37539e-05
1.13765e-05
1.11389e-05
6.33055e-05
8.50204e-05
0.000123853
0.000178368
0.000239394
0.000297222
0.000345368
0.00037961
0.000397278
0.000397095
0.000379084
0.000344606
0.000296382
0.000238651
0.000177778
0.00012418
8.56594e-05
6.38354e-05
1.11755e-05
1.09882e-05
6.36208e-05
8.66031e-05
0.000128385
0.000186263
0.000249629
0.000309293
0.000358903
0.000394192
0.000412425
0.000412268
0.000393767
0.00035833
0.000308739
0.000249275
0.000186254
0.000128736
8.71559e-05
6.40708e-05
1.10126e-05
1.08752e-05
6.4112e-05
8.85861e-05
0.000133538
0.000194195
0.000260145
0.000321952
0.000373152
0.000409483
0.000428231
0.000428083
0.00040906
0.000372536
0.000321305
0.000259714
0.000194152
0.000133606
8.89498e-05
6.44303e-05
1.08671e-05
1.07999e-05
6.47569e-05
9.09275e-05
0.000139003
0.000202864
0.000271403
0.000335275
0.000388116
0.0004256
0.000444936
0.000444797
0.000425215
0.000387572
0.0003347
0.000270936
0.000202647
0.000139061
9.11103e-05
6.49467e-05
1.07563e-05
1.08093e-05
6.54806e-05
9.34846e-05
0.000144524
0.000211716
0.000282898
0.000348998
0.000403642
0.000442393
0.000462358
0.000462211
0.000441979
0.000403046
0.000348356
0.000282372
0.000211448
0.000144627
9.3554e-05
6.55588e-05
1.0652e-05
1.05616e-05
6.6204e-05
9.62574e-05
0.000150502
0.00022078
0.00029461
0.000363015
0.0004196
0.000459808
0.000480588
0.000480442
0.000459395
0.000419004
0.000362361
0.000294026
0.000220358
0.000150257
9.61655e-05
6.62116e-05
1.05516e-05
1.04756e-05
6.68943e-05
9.91152e-05
0.000156666
0.000229915
0.000306397
0.000377116
0.000435648
0.000477309
0.000498895
0.000498762
0.000476932
0.000435088
0.000376472
0.000305801
0.000229482
0.000156428
9.89899e-05
6.68546e-05
1.04411e-05
1.03348e-05
6.74806e-05
0.000102028
0.00016295
0.000239196
0.000318264
0.000391226
0.000451633
0.000494659
0.000516975
0.000516868
0.000494351
0.000451157
0.00039065
0.000317692
0.000238728
0.000162637
0.000101821
6.73938e-05
1.0324e-05
1.02363e-05
6.7871e-05
0.000104877
0.000169213
0.000248413
0.000330085
0.000405332
0.00046764
0.000512041
0.000535086
0.000535
0.000511791
0.000467257
0.000404869
0.000329618
0.000248019
0.000168932
0.000104685
6.77645e-05
1.02022e-05
1.00958e-05
6.80699e-05
0.000107833
0.000175735
0.000257889
0.00034209
0.000419565
0.000483735
0.000529489
0.000553256
0.000553196
0.000529311
0.000483461
0.000419231
0.00034175
0.000257601
0.00017553
0.000107683
6.79755e-05
1.00954e-05
1.00973e-05
6.80516e-05
0.000110921
0.000182497
0.000267582
0.000354337
0.00043408
0.000500121
0.000547211
0.000571678
0.000571635
0.000547084
0.000499924
0.000433833
0.000354074
0.000267346
0.000182324
0.000110821
6.79891e-05
1.00842e-05
1.00293e-05
6.78724e-05
0.000114435
0.000189633
0.000277657
0.000367034
0.000449123
0.000517078
0.000565507
0.000590665
0.000590638
0.000565428
0.000516956
0.000448971
0.000366874
0.000277515
0.000189532
0.00011437
6.78499e-05
1.00279e-05
1.01402e-05
6.76217e-05
0.000118581
0.000197151
0.000288261
0.000380409
0.000464953
0.000534845
0.00058458
0.000610391
0.000610374
0.00058453
0.000534765
0.00046485
0.000380297
0.000288161
0.000197082
0.000118544
6.76146e-05
1.01391e-05
1.03247e-05
6.74473e-05
0.000122841
0.000205128
0.000299567
0.000394755
0.000481881
0.0005537
0.000604658
0.000631052
0.000631041
0.000604626
0.000553647
0.000481812
0.000394679
0.000299505
0.0002051
0.000122839
6.74588e-05
1.03229e-05
1.06504e-05
6.74087e-05
0.000127701
0.00021388
0.000311926
0.000410401
0.000500182
0.000573834
0.000625853
0.000652709
0.000652703
0.000625834
0.000573801
0.000500135
0.000410343
0.000311867
0.000213832
0.000127671
6.74052e-05
1.06505e-05
1.11002e-05
6.77359e-05
0.000132754
0.000223429
0.000325589
0.000427662
0.000520128
0.000595416
0.00064822
0.000675347
0.000675343
0.000648207
0.000595392
0.000520092
0.00042762
0.000325556
0.000223418
0.000132756
6.77352e-05
1.10984e-05
1.17161e-05
6.8577e-05
0.000138827
0.000234452
0.000341078
0.000446973
0.000542026
0.000618583
0.000671736
0.00069885
0.000698848
0.000671729
0.000618568
0.000541999
0.000446933
0.000341028
0.000234402
0.000138799
6.85622e-05
1.17173e-05
1.24753e-05
6.98485e-05
0.000145754
0.000246764
0.000358659
0.00046874
0.000566184
0.000643433
0.000696292
0.000722982
0.00072298
0.000696284
0.000643418
0.000566159
0.000468708
0.000358629
0.00024675
0.000145764
6.98673e-05
1.24734e-05
1.34187e-05
7.12111e-05
0.000154025
0.000261365
0.000379262
0.000493688
0.000593005
0.000670011
0.000721639
0.000747338
0.000747337
0.000721635
0.000670001
0.000592985
0.000493656
0.000379218
0.00026132
0.000153998
7.12097e-05
1.34193e-05
1.45567e-05
7.44899e-05
0.000164365
0.000278926
0.000403734
0.000522555
0.00062284
0.000698212
0.000747326
0.000771285
0.000771285
0.000747324
0.000698208
0.000622829
0.000522537
0.000403713
0.000278916
0.000164375
7.44977e-05
1.45543e-05
1.58348e-05
7.89456e-05
0.000177264
0.00030069
0.000433495
0.00055633
0.000655998
0.000727726
0.000772637
0.000793942
0.000793943
0.000772638
0.000727727
0.000655997
0.000556325
0.000433486
0.000300683
0.000177267
7.89542e-05
1.58352e-05
1.72941e-05
8.61985e-05
0.000194234
0.000328558
0.000470411
0.000596129
0.000692547
0.000757873
0.000796537
0.000814209
0.000814209
0.000796534
0.000757868
0.000692542
0.000596116
0.000470393
0.000328542
0.000194239
8.62074e-05
1.7292e-05
1.884e-05
9.6392e-05
0.000216883
0.000365115
0.000516293
0.000642559
0.000731921
0.00078741
0.000817595
0.000830569
0.000830566
0.000817594
0.000787415
0.000731938
0.00064258
0.000516307
0.000365123
0.000216882
9.63787e-05
1.88383e-05
2.04818e-05
0.000111832
0.00024802
0.00041408
0.000575269
0.000696728
0.000772894
0.000814642
0.000834187
0.00084111
0.000841113
0.000834192
0.000814648
0.000772909
0.000696734
0.000575249
0.000414051
0.000247994
0.000111821
2.04827e-05
2.21047e-05
0.000132977
0.000294113
0.00048912
0.000654518
0.000758176
0.000811853
0.000834904
0.000843861
0.000847301
0.000847304
0.000843868
0.000834918
0.000811852
0.000758154
0.000654515
0.00048914
0.000294136
0.000132982
2.21025e-05
2.37693e-05
0.000165997
0.000385806
0.000610246
0.000753964
0.000817164
0.000839098
0.000846373
0.000849862
0.000851182
0.000851177
0.000849843
0.000846314
0.000839008
0.000817109
0.000753956
0.000610254
0.000385789
0.000165983
2.3771e-05
2.56197e-05
0.000278646
0.000620059
0.000787487
0.000832553
0.000845071
0.000849608
0.000851572
0.000851945
0.000851954
0.000851954
0.000851943
0.000851558
0.000849582
0.000845026
0.00083249
0.000787441
0.000620072
0.000278658
2.56192e-05
4.29176e-05
0.000111881
0.000130045
0.000138323
0.000146204
0.000161185
0.000188099
0.000221073
0.000250382
0.00026757
0.000267213
0.000248628
0.000218356
0.000186582
0.000162469
0.000146876
0.000138112
0.000129295
0.000111325
4.2764e-05
4.25981e-05
0.000111311
0.00012971
0.000137977
0.000144187
0.000159364
0.00019021
0.000224705
0.000254301
0.00027159
0.000271462
0.000252072
0.000219024
0.000186764
0.000162876
0.000148498
0.000139047
0.000129189
0.000111166
4.24192e-05
4.29981e-05
0.000111994
0.000130117
0.000139019
0.000146342
0.000160331
0.00018858
0.000222844
0.00025227
0.000269466
0.000269573
0.000249792
0.000219495
0.000188937
0.000165059
0.000145395
0.000136729
0.000128193
0.000111057
4.2982e-05
4.28523e-05
0.000111551
0.000127586
0.000135119
0.000142883
0.000158753
0.000187219
0.0002218
0.000251596
0.000269211
0.000268617
0.000249428
0.000219763
0.000186219
0.000159712
0.000142814
0.000134622
0.000127183
0.000110879
4.25631e-05
4.27174e-05
0.000111769
0.000128408
0.000136634
0.000144343
0.000161449
0.000187631
0.000222125
0.000254319
0.000268457
0.000269509
0.000249704
0.000222843
0.000189828
0.000163464
0.000143932
0.000135769
0.000126209
0.000110652
4.21553e-05
4.28798e-05
0.000111332
0.000127501
0.000134821
0.000142594
0.000158302
0.000189665
0.000224415
0.000252358
0.000268423
0.000267069
0.000249619
0.000219916
0.000188381
0.000161647
0.00014374
0.000135692
0.00012606
0.000110361
4.2244e-05
4.26074e-05
0.000110513
0.000127814
0.000135924
0.000141921
0.00015774
0.000187175
0.000222616
0.000253876
0.000267789
0.000267591
0.000249723
0.000222233
0.000189311
0.000165818
0.000145582
0.000135563
0.000126058
0.00011045
4.23291e-05
4.21613e-05
0.000110612
0.00012892
0.000133824
0.000140581
0.000157875
0.000187361
0.000223143
0.000254113
0.000268538
0.000269402
0.000250398
0.000220481
0.000188822
0.000163368
0.00014356
0.000135255
0.000126374
0.00011022
4.22208e-05
4.22377e-05
0.000110475
0.000127741
0.000133866
0.000140768
0.000158189
0.000188053
0.000225962
0.000254456
0.000268902
0.000270904
0.000253527
0.000220811
0.000188531
0.000160703
0.000143972
0.000135959
0.000127218
0.000110533
4.24715e-05
4.23648e-05
0.000109802
0.0001276
0.000136582
0.000144579
0.000159243
0.000188385
0.00022493
0.00025395
0.00026958
0.000269873
0.000253122
0.000221416
0.000188732
0.000160144
0.000143782
0.000135164
0.000126954
0.000110693
4.21211e-05
4.21585e-05
0.000109851
0.000128175
0.000136116
0.000144722
0.000159624
0.000191055
0.000227633
0.000255909
0.000272033
0.000269717
0.000251152
0.00022152
0.000188882
0.000160277
0.000142042
0.000133242
0.00012653
0.000109826
4.22458e-05
4.17291e-05
0.000109144
0.000126045
0.00013608
0.000145061
0.000160934
0.000190037
0.000226029
0.000252977
0.000269728
0.000270795
0.00025091
0.000222261
0.000189415
0.000161568
0.000144229
0.000132391
0.000127037
0.000109678
4.19333e-05
4.17637e-05
0.00010915
0.000125789
0.000135592
0.000144517
0.000162522
0.000192671
0.000227041
0.000254028
0.000271427
0.000270021
0.000251845
0.000222758
0.000189088
0.000159395
0.000141816
0.000132448
0.000125659
0.000109057
4.22009e-05
4.15421e-05
0.000108746
0.00012451
0.000134376
0.000143029
0.000161572
0.000190742
0.000226647
0.000255189
0.00027343
0.000273112
0.000252941
0.000225318
0.000189963
0.000159689
0.000141506
0.000133435
0.000125857
0.000109364
4.19011e-05
4.14109e-05
0.000108732
0.000124304
0.000133677
0.000141609
0.00016079
0.00019327
0.000225684
0.00025511
0.000274062
0.000274073
0.000255185
0.000225479
0.000190631
0.000162279
0.000142726
0.000131563
0.000125549
0.000109091
4.20656e-05
4.12857e-05
0.000108229
0.000123996
0.000133307
0.000143206
0.000159887
0.00019046
0.000225754
0.000256201
0.000274056
0.000273113
0.000255638
0.000225316
0.000190959
0.000162534
0.000141159
0.000131471
0.000126241
0.000109451
4.17791e-05
4.11071e-05
0.000107541
0.000123618
0.000132231
0.000142403
0.000161106
0.000190427
0.000225815
0.000255418
0.00027383
0.00027274
0.000255522
0.000225876
0.000192764
0.000162982
0.000140932
0.000132395
0.000126098
0.000109588
4.20438e-05
4.10579e-05
0.000107357
0.000122861
0.00013158
0.000142375
0.00016119
0.0001927
0.000226265
0.000255481
0.000273292
0.000272856
0.000257001
0.000228316
0.000193039
0.000162798
0.000140419
0.000131424
0.000124636
0.000108586
4.18691e-05
4.0881e-05
0.000107243
0.000122702
0.000131319
0.00014237
0.000161647
0.000192814
0.000226545
0.000258549
0.000274202
0.000273906
0.000258341
0.000228493
0.000193542
0.00016276
0.000140075
0.000130292
0.000124073
0.000108598
4.14779e-05
4.06733e-05
0.000107158
0.00012208
0.000131987
0.000141049
0.000160967
0.000193498
0.000226816
0.000258454
0.000274399
0.000273291
0.000258881
0.000229601
0.000194146
0.000163152
0.000141286
0.000129847
0.000123919
0.000108213
4.15012e-05
4.04219e-05
0.000106292
0.000122117
0.000131292
0.000141976
0.000162713
0.000194574
0.000229795
0.000258132
0.000273112
0.000273949
0.00026007
0.000229983
0.000194066
0.000163192
0.00014113
0.000129643
0.000123173
0.00010867
4.16105e-05
4.02125e-05
0.000105901
0.000121423
0.000130686
0.000141731
0.000162592
0.000195347
0.000229577
0.000258775
0.000275379
0.000276531
0.000259427
0.000230695
0.000194903
0.000162978
0.000141167
0.000129093
0.000122679
0.000107935
4.13965e-05
4.00895e-05
0.000105414
0.000120875
0.000129502
0.00014098
0.000162744
0.000196544
0.000230978
0.000259598
0.000275797
0.000275053
0.000258586
0.000231125
0.000195847
0.000163395
0.000141746
0.000129665
0.000122432
0.000107585
4.10198e-05
3.99317e-05
0.000105131
0.000119827
0.00012822
0.000140373
0.00016386