/*--------------------------------*- C++ -*----------------------------------*\
  =========                 |
  \\      /  F ield         | OpenFOAM: The Open Source CFD Toolbox
   \\    /   O peration     | Website:  https://openfoam.org
    \\  /    A nd           | Version:  6
     \\/     M anipulation  |
\*---------------------------------------------------------------------------*/
FoamFile
{
    version     2.0;
    format      ascii;
    class       volScalarField;
    location    "27";
    object      nut;
}
// * * * * * * * * * * * * * * * * * * * * * * * * * * * * * * * * * * * * * //

dimensions      [0 2 -1 0 0 0 0];

internalField   nonuniform List<scalar> 
130000
(
0.000904571
0.000909239
0.000913418
0.000916956
0.000919894
0.000922278
0.000924157
0.000925578
0.000926591
0.000927238
0.00092756
0.000927594
0.000927372
0.000926925
0.000926279
0.000925456
0.000924477
0.00092336
0.000922121
0.000920771
0.000904562
0.000909242
0.000913418
0.000916952
0.000919883
0.000922258
0.000924127
0.000925538
0.000926539
0.000927173
0.000927482
0.000927499
0.000927258
0.00092679
0.000926124
0.000925281
0.000924283
0.000923149
0.000921895
0.000920536
0.000904695
0.000909391
0.000913575
0.000917111
0.000920041
0.000922411
0.000924273
0.000925672
0.00092666
0.000927284
0.000927586
0.000927602
0.000927372
0.000926917
0.000926259
0.000925416
0.000924409
0.000923257
0.000921976
0.000920578
0.000904903
0.000909619
0.000913816
0.000917357
0.000920285
0.000922652
0.000924515
0.000925927
0.00092694
0.000927598
0.000927939
0.000928007
0.000927802
0.000927348
0.000926672
0.000925804
0.000924767
0.000923577
0.000922251
0.000920801
0.000905148
0.000909888
0.000914097
0.000917651
0.000920603
0.000923009
0.000924922
0.000926396
0.000927448
0.000928119
0.000928459
0.000928519
0.000928281
0.00092778
0.000927068
0.000926168
0.000925098
0.000923873
0.000922507
0.000921013
0.000905412
0.000910184
0.000914425
0.000918026
0.000921048
0.000923508
0.000925451
0.000926935
0.000927962
0.000928588
0.000928876
0.000928862
0.000928572
0.000928026
0.000927279
0.000926345
0.000925242
0.000923986
0.000922592
0.000921074
0.000905687
0.000910504
0.000914805
0.000918465
0.000921531
0.000923988
0.000925891
0.000927312
0.000928295
0.000928878
0.000929133
0.000929088
0.000928774
0.00092822
0.000927454
0.000926497
0.00092537
0.000924091
0.000922676
0.000921141
0.00090595
0.000910823
0.000915175
0.000918851
0.00092188
0.000924305
0.000926177
0.000927574
0.000928541
0.000929122
0.000929361
0.000929298
0.000928964
0.000928391
0.000927603
0.000926625
0.000925476
0.000924177
0.000922743
0.000921191
0.000906179
0.000911093
0.000915457
0.000919138
0.000922142
0.000924554
0.000926428
0.000927818
0.000928774
0.000929343
0.000929567
0.000929486
0.000929133
0.000928539
0.00092773
0.00092673
0.000925561
0.000924241
0.000922789
0.000921221
0.000906373
0.000911311
0.000915691
0.000919382
0.000922381
0.00092479
0.00092666
0.000928043
0.000928989
0.000929545
0.000929754
0.000929655
0.000929283
0.000928668
0.000927837
0.000926816
0.000925626
0.000924286
0.000922816
0.000921232
0.000906547
0.000911503
0.00091589
0.000919582
0.000922593
0.000925008
0.000926877
0.000928254
0.00092919
0.000929732
0.000929925
0.000929808
0.000929416
0.00092878
0.000927928
0.000926885
0.000925674
0.000924315
0.000922826
0.000921226
0.000906716
0.000911685
0.000916075
0.000919768
0.0009228
0.000925221
0.000927087
0.000928457
0.000929381
0.000929909
0.000930085
0.000929949
0.000929536
0.000928879
0.000928006
0.000926941
0.000925709
0.000924329
0.000922822
0.000921205
0.000906889
0.000911872
0.000916262
0.00091997
0.000923023
0.00092544
0.000927298
0.000928656
0.000929567
0.000930079
0.000930237
0.000930081
0.000929648
0.000928969
0.000928073
0.000926987
0.000925733
0.000924334
0.000922808
0.000921175
0.000907074
0.000912074
0.000916469
0.000920173
0.000923238
0.000925657
0.000927508
0.000928854
0.000929749
0.000930244
0.000930384
0.000930208
0.000929753
0.000929052
0.000928134
0.000927025
0.00092575
0.00092433
0.000922787
0.000921138
0.000907272
0.000912294
0.000916708
0.00092039
0.000923446
0.000925881
0.000927721
0.000929052
0.000929931
0.000930408
0.000930528
0.000930331
0.000929854
0.00092913
0.000928189
0.000927058
0.000925761
0.000924321
0.000922759
0.000921094
0.000907477
0.000912518
0.000916943
0.000920634
0.000923651
0.000926084
0.000927933
0.000929251
0.000930113
0.000930571
0.00093067
0.000930451
0.000929951
0.000929204
0.000928239
0.000927084
0.000925765
0.000924304
0.000922723
0.000921042
0.000907692
0.000912749
0.000917179
0.00092086
0.000923843
0.000926265
0.00092814
0.00092945
0.000930296
0.000930734
0.000930812
0.00093057
0.000930046
0.000929274
0.000928284
0.000927105
0.000925762
0.000924279
0.000922676
0.000920971
0.000907919
0.000912993
0.00091743
0.00092111
0.000924084
0.000926463
0.000928327
0.000929648
0.00093048
0.000930897
0.000930952
0.000930686
0.000930137
0.000929339
0.000928323
0.000927118
0.00092575
0.000924243
0.000922619
0.000920895
0.000908158
0.00091325
0.000917697
0.000921381
0.000924359
0.000926693
0.000928501
0.000929819
0.000930657
0.000931058
0.000931089
0.000930798
0.000930223
0.000929397
0.000928354
0.000927122
0.000925728
0.000924198
0.000922556
0.000920827
0.000908408
0.000913518
0.000917974
0.000921658
0.000924631
0.000926953
0.000928684
0.000929963
0.000930812
0.000931213
0.000931223
0.000930906
0.000930304
0.00092945
0.000928379
0.00092712
0.0009257
0.000924147
0.000922489
0.000920753
0.000908669
0.000913796
0.00091826
0.000921944
0.00092491
0.000927219
0.000928931
0.00093016
0.000930964
0.00093137
0.000931357
0.000931012
0.000930381
0.0009295
0.000928401
0.000927116
0.000925674
0.000924104
0.000922434
0.000920692
0.00090894
0.000914086
0.000918558
0.000922242
0.000925202
0.000927503
0.000929213
0.000930398
0.00093112
0.000931493
0.000931476
0.00093111
0.000930454
0.000929548
0.000928424
0.000927115
0.000925652
0.000924067
0.000922386
0.000920642
0.000909223
0.000914387
0.000918867
0.00092255
0.000925501
0.000927787
0.000929472
0.000930616
0.000931271
0.000931579
0.000931546
0.000931184
0.000930524
0.000929601
0.00092845
0.000927118
0.000925638
0.000924044
0.000922366
0.000920637
0.000909518
0.000914701
0.000919189
0.000922871
0.000925814
0.000928087
0.000929753
0.000930874
0.000931501
0.000931741
0.000931636
0.000931263
0.000930586
0.000929637
0.000928452
0.000927098
0.000925603
0.000924003
0.000922334
0.000920608
0.000909825
0.000915029
0.000919525
0.000923207
0.000926143
0.000928405
0.000930058
0.000931169
0.000931796
0.000931998
0.000931821
0.000931375
0.000930629
0.000929623
0.000928419
0.000927091
0.000925607
0.000923996
0.00092231
0.000920572
0.000910147
0.000915372
0.000919877
0.000923559
0.000926489
0.000928738
0.000930377
0.000931468
0.000932074
0.000932247
0.000932037
0.000931487
0.000930669
0.000929608
0.000928399
0.000927083
0.000925607
0.000924002
0.000922309
0.000920585
0.000910485
0.000915731
0.000920246
0.000923929
0.000926852
0.00092909
0.000930713
0.000931786
0.00093237
0.000932517
0.000932274
0.000931676
0.000930812
0.00092971
0.000928444
0.000927042
0.000925559
0.000923984
0.000922288
0.000920516
0.000910839
0.000916109
0.000920635
0.000924318
0.000927236
0.000929463
0.000931072
0.000932128
0.000932695
0.000932826
0.000932571
0.000931975
0.000931075
0.000929903
0.000928581
0.00092711
0.00092556
0.000923921
0.000922168
0.000920346
0.000911212
0.000916506
0.000921043
0.000924728
0.000927641
0.000929859
0.000931454
0.000932497
0.000933049
0.000933166
0.000932899
0.000932292
0.000931381
0.000930196
0.000928834
0.000927311
0.000925688
0.00092397
0.000922176
0.000920329
0.000911603
0.000916922
0.000921471
0.00092516
0.000928068
0.000930276
0.00093186
0.00093289
0.00093343
0.000933537
0.000933263
0.000932654
0.000931751
0.000930592
0.000929217
0.000927646
0.000925986
0.000924229
0.000922406
0.000920542
0.000912014
0.000917359
0.000921921
0.000925611
0.000928515
0.000930714
0.000932287
0.000933304
0.000933833
0.00093393
0.00093365
0.00093304
0.000932142
0.000930992
0.000929623
0.000928054
0.000926372
0.00092459
0.000922722
0.000920834
0.000912445
0.000917817
0.00092239
0.000926083
0.000928981
0.00093117
0.00093273
0.000933734
0.000934249
0.000934336
0.000934047
0.000933433
0.000932537
0.000931397
0.000930051
0.000928531
0.00092687
0.000925092
0.000923211
0.000921313
0.000912895
0.000918294
0.000922879
0.000926573
0.000929464
0.000931641
0.000933187
0.000934175
0.000934674
0.000934746
0.000934446
0.000933822
0.00093292
0.00093178
0.000930438
0.000928927
0.000927279
0.000925522
0.000923681
0.000921779
0.000913366
0.000918792
0.000923388
0.00092708
0.000929963
0.000932126
0.000933654
0.000934623
0.000935103
0.000935157
0.00093484
0.000934203
0.000933289
0.00093214
0.000930792
0.000929279
0.000927631
0.000925876
0.000924038
0.000922138
0.000913858
0.00091931
0.000923916
0.000927605
0.000930476
0.000932622
0.00093413
0.000935077
0.000935535
0.000935567
0.000935229
0.000934573
0.000933644
0.000932481
0.000931122
0.0009296
0.000927945
0.000926186
0.000924345
0.000922444
0.000914373
0.000919851
0.000924463
0.000928147
0.000931004
0.00093313
0.000934613
0.000935534
0.000935966
0.000935972
0.000935611
0.000934933
0.000933983
0.000932803
0.000931429
0.000929895
0.000928231
0.000926464
0.000924618
0.000922714
0.00091491
0.000920413
0.00092503
0.000928706
0.000931545
0.000933647
0.000935103
0.000935995
0.000936397
0.000936374
0.000935985
0.000935282
0.000934309
0.000933109
0.000931718
0.00093017
0.000928495
0.000926719
0.000924867
0.00092296
0.00091547
0.000920996
0.000925616
0.000929281
0.0009321
0.000934175
0.000935599
0.000936458
0.000936826
0.000936771
0.000936351
0.000935619
0.000934621
0.000933399
0.00093199
0.000930426
0.000928739
0.000926955
0.000925098
0.000923188
0.000916055
0.000921603
0.000926223
0.000929873
0.000932667
0.000934711
0.0009361
0.000936922
0.000937253
0.000937161
0.000936708
0.000935945
0.000934919
0.000933673
0.000932244
0.000930665
0.000928966
0.000927174
0.000925312
0.000923401
0.000916663
0.000922231
0.000926848
0.000930481
0.000933246
0.000935254
0.000936604
0.000937384
0.000937674
0.000937543
0.000937052
0.000936255
0.0009352
0.000933929
0.000932478
0.000930883
0.000929172
0.000927373
0.000925508
0.000923597
0.000917297
0.000922883
0.000927493
0.000931103
0.000933835
0.000935802
0.000937107
0.000937841
0.000938085
0.00093791
0.000937378
0.000936545
0.000935458
0.000934159
0.000932687
0.000931076
0.000929354
0.000927549
0.000925682
0.000923773
0.000917956
0.000923557
0.000928156
0.000931738
0.00093443
0.00093635
0.000937604
0.000938286
0.000938478
0.000938254
0.000937678
0.000936804
0.000935683
0.000934356
0.000932861
0.000931234
0.000929502
0.000927692
0.000925826
0.000923923
0.000918641
0.000924251
0.000928833
0.00093238
0.000935025
0.00093689
0.000938085
0.000938707
0.000938842
0.000938563
0.000937937
0.000937019
0.00093586
0.000934503
0.000932986
0.000931342
0.000929602
0.00092779
0.000925929
0.000924035
0.00091935
0.000924964
0.00092952
0.000933021
0.000935609
0.00093741
0.000938536
0.00093909
0.000939157
0.000938816
0.000938134
0.000937167
0.000935966
0.000934576
0.000933035
0.000931377
0.000929631
0.000927821
0.000925969
0.000924091
0.000920081
0.000925688
0.000930204
0.000933648
0.000936165
0.000937888
0.000938933
0.000939405
0.000939395
0.000938981
0.000938233
0.00093721
0.000935964
0.000934539
0.000932974
0.000931302
0.000929553
0.000927751
0.000925916
0.000924062
0.000920825
0.000926408
0.000930868
0.000934237
0.000936665
0.000938291
0.000939237
0.000939611
0.000939507
0.000939007
0.000938182
0.000937094
0.000935795
0.000934331
0.000932741
0.000931059
0.000929313
0.000927526
0.000925718
0.000923903
0.000921571
0.000927106
0.000931483
0.000934749
0.000937062
0.000938566
0.000939387
0.000939639
0.000939419
0.000938813
0.000937895
0.000936728
0.000935366
0.000933858
0.000932242
0.000930553
0.000928818
0.000927061
0.000925297
0.000923539
0.000922289
0.000927741
0.000931999
0.000935125
0.000937285
0.000938628
0.000939288
0.000939383
0.000939014
0.000938272
0.000937235
0.000935969
0.000934531
0.000932971
0.000931328
0.000929638
0.000927927
0.000926217
0.000924522
0.000922853
0.000922946
0.00092826
0.000932341
0.000935269
0.000937218
0.000938344
0.000938788
0.000938671
0.000938105
0.000937183
0.000935989
0.000934593
0.000933057
0.000931432
0.00092976
0.000928076
0.000926408
0.000924774
0.000923188
0.000921656
0.000923484
0.000928572
0.000932386
0.00093503
0.000936681
0.000937504
0.000937647
0.000937239
0.000936399
0.000935229
0.000933818
0.000932245
0.000930575
0.000928865
0.000927159
0.000925494
0.000923896
0.000922383
0.000920965
0.000919644
0.000923802
0.000928531
0.000931946
0.000934172
0.000935394
0.000935784
0.000935497
0.000934676
0.000933446
0.000931922
0.000930203
0.000928376
0.000926516
0.000924686
0.000922935
0.000921303
0.000919816
0.000918489
0.00091733
0.000916333
0.000923749
0.000927917
0.000930731
0.00093234
0.000932934
0.000932694
0.000931785
0.000930362
0.000928566
0.000926524
0.000924353
0.000922154
0.000920013
0.000918005
0.000916188
0.000914604
0.000913283
0.000912238
0.00091147
0.000910968
0.000923111
0.000926413
0.00092832
0.000929012
0.000928682
0.000927518
0.000925699
0.000923395
0.000920767
0.000917965
0.000915124
0.000912368
0.000909803
0.000907521
0.000905593
0.000904069
0.000902984
0.00090235
0.000902163
0.000902404
0.000921622
0.00092357
0.000924114
0.000923451
0.000921769
0.00091926
0.000916118
0.000912534
0.000908694
0.000904777
0.00090095
0.000897367
0.000894162
0.000891452
0.00088933
0.000887861
0.000887087
0.000887025
0.000887666
0.000888982
0.000918778
0.000918732
0.000917285
0.000914668
0.00091105
0.000906627
0.000901608
0.00089621
0.000890651
0.000885148
0.00087991
0.000875129
0.000870981
0.000867616
0.000865157
0.000863695
0.000863288
0.000863962
0.000865711
0.000868503
0.000913857
0.000911069
0.000906797
0.000901454
0.000895171
0.000888132
0.000880566
0.000872717
0.000864843
0.000857204
0.000850056
0.00084364
0.000838177
0.00083386
0.000830851
0.000829274
0.000829215
0.000830723
0.000833808
0.000838453
0.00090605
0.000899239
0.00089153
0.000882544
0.000872806
0.0008624
0.000851614
0.000840708
0.000829964
0.000819694
0.000810198
0.000801757
0.00079463
0.000789052
0.000785226
0.000783315
0.000783442
0.000785697
0.000790134
0.000796779
0.000894648
0.000882358
0.00086971
0.000856929
0.000843183
0.000828715
0.000814309
0.000800043
0.000786162
0.00077308
0.000761107
0.000750521
0.000741587
0.000734569
0.000729693
0.000727154
0.000727117
0.000729725
0.000735106
0.000743377
0.000878597
0.00085997
0.000841452
0.000823522
0.000805532
0.00078757
0.000770002
0.000752851
0.00073601
0.000720578
0.00070663
0.000694316
0.00068384
0.000675505
0.000669529
0.000666103
0.000665414
0.000667659
0.000673054
0.000681851
0.000857431
0.000831787
0.000807482
0.000784577
0.000762858
0.000741855
0.000721689
0.000702536
0.000684612
0.000668255
0.000653709
0.000640752
0.000629366
0.00062024
0.000613416
0.000609029
0.000607249
0.000608293
0.000612453
0.000620109
0.000831423
0.000798873
0.000769807
0.00074348
0.000719156
0.000696883
0.000676046
0.000656814
0.000639275
0.00062347
0.000609462
0.000597277
0.000586843
0.000577746
0.000570624
0.000565473
0.000562413
0.000561643
0.000563473
0.000568353
0.0008017
0.000763732
0.00073181
0.000704459
0.000680327
0.000658709
0.000639187
0.000621948
0.000606812
0.000593251
0.00058132
0.000570961
0.000562026
0.000554298
0.000547432
0.000541896
0.000537688
0.000534946
0.000533934
0.000535081
0.000770318
0.000729677
0.000697825
0.000672222
0.000650854
0.000632624
0.000616892
0.000603272
0.000591431
0.000581011
0.000571967
0.000564277
0.000557386
0.000551185
0.000545287
0.000539737
0.000534731
0.000530289
0.000526593
0.000523972
0.000739994
0.000700293
0.000671744
0.000650588
0.000634161
0.000620998
0.000610217
0.000601237
0.000593623
0.00058702
0.00058115
0.000575786
0.000570913
0.0005663
0.000561458
0.000556308
0.000550902
0.000545225
0.000539413
0.000533659
0.000713615
0.000678657
0.000656282
0.000641597
0.000631466
0.000624194
0.000618785
0.000614597
0.000611176
0.000608179
0.000605329
0.000602401
0.000599251
0.000595876
0.00059198
0.000587333
0.000581772
0.000575275
0.000567972
0.000559922
0.000693716
0.000666799
0.000652624
0.000645519
0.000642164
0.000640844
0.000640597
0.000640834
0.000641162
0.000641297
0.000641021
0.000640161
0.000638585
0.000636228
0.000632983
0.000628774
0.000623266
0.000616244
0.000607923
0.000598271
0.000682119
0.000665579
0.000660646
0.000661397
0.000664656
0.00066889
0.000673292
0.000677404
0.000680941
0.000683708
0.000685564
0.000686396
0.000686107
0.000684614
0.000681884
0.000678032
0.000672621
0.000665251
0.000656195
0.000645385
0.00067982
0.000674895
0.000679411
0.000687737
0.000697124
0.000706355
0.000714852
0.000722323
0.000728608
0.000733609
0.000737258
0.000739501
0.000740286
0.000739564
0.000737284
0.000733639
0.000728319
0.000720679
0.000711021
0.000699283
0.000687065
0.000694051
0.00070767
0.000723031
0.000737982
0.000751684
0.000763813
0.000774247
0.000782948
0.000789907
0.000795122
0.000798588
0.000800292
0.000800212
0.000798311
0.000794859
0.000789604
0.000781712
0.000771495
0.000758921
0.000703552
0.000722083
0.000744192
0.000765996
0.000786
0.000803754
0.000819175
0.0008323
0.000843201
0.000851945
0.000858586
0.000863162
0.000865691
0.000866175
0.000864597
0.000861288
0.000856074
0.000847935
0.000837147
0.000823748
0.000728643
0.000757986
0.000787899
0.000815603
0.000840247
0.000861742
0.00088022
0.000895859
0.000908823
0.000919246
0.00092723
0.000932846
0.000936138
0.00093713
0.00093582
0.000932598
0.000927393
0.000919003
0.000907616
0.000893369
0.000761542
0.000800808
0.000837862
0.000870998
0.000899952
0.000924952
0.000946319
0.00096435
0.000979289
0.000991324
0.00100059
0.0010072
0.0010112
0.00101264
0.00101153
0.00100831
0.00100306
0.00099444
0.000982438
0.000967328
0.000801391
0.00084965
0.000893222
0.000931375
0.000964354
0.00099266
0.00101678
0.0010371
0.00105394
0.00106753
0.00107804
0.00108559
0.00109025
0.00109207
0.00109105
0.00108761
0.00108218
0.00107351
0.00106093
0.00104496
0.000847298
0.000903607
0.000953085
0.000995841
0.00103256
0.00106396
0.00109067
0.00111317
0.00113182
0.0011469
0.00115859
0.00116703
0.00117232
0.00117449
0.00117356
0.00116996
0.00116426
0.00115526
0.00114211
0.00112526
0.000898309
0.000961674
0.00101639
0.00106328
0.00110338
0.00113762
0.00116672
0.00119123
0.00121156
0.00122801
0.0012408
0.00125006
0.00125589
0.00125835
0.00125745
0.00125363
0.00124752
0.0012381
0.0012244
0.00120662
0.000953332
0.00102263
0.0010818
0.00113223
0.00117525
0.00121194
0.00124312
0.00126939
0.0012912
0.00130885
0.00132257
0.0013325
0.00133875
0.00134137
0.00134039
0.00133619
0.00132931
0.00131913
0.00130502
0.00128645
0.00101104
0.00108494
0.00114754
0.0012007
0.00124598
0.00128458
0.0013174
0.00134506
0.00136803
0.00138661
0.00140101
0.00141137
0.00141782
0.00142043
0.00141923
0.00141458
0.00140682
0.00139545
0.00138032
0.00136123
0.00106977
0.00114658
0.00121127
0.00126607
0.0013127
0.00135246
0.00138625
0.00141476
0.00143844
0.00145761
0.00147232
0.00148263
0.00148889
0.00149119
0.00148956
0.00148429
0.00147532
0.00146241
0.00144568
0.00142532
0.00112742
0.00120498
0.00127
0.00132496
0.0013717
0.00141154
0.0014454
0.00147394
0.00149768
0.00151729
0.0015327
0.00154406
0.00155079
0.00155281
0.00155008
0.00154311
0.00153214
0.00151732
0.00149854
0.00147569
0.00118137
0.00125692
0.00131995
0.0013731
0.00141828
0.00145685
0.00148951
0.0015174
0.00154064
0.00155822
0.00156973
0.00157723
0.00158058
0.00158101
0.00157602
0.00156717
0.00155454
0.00153805
0.00151776
0.00149382
0.00122842
0.00129853
0.00135659
0.00140543
0.00144657
0.00148063
0.00150989
0.00153379
0.00155531
0.00157234
0.00158668
0.0015952
0.00159768
0.00159271
0.00158405
0.00157108
0.00155489
0.00153462
0.00151076
0.00148417
0.0012649
0.00132536
0.00137514
0.00141557
0.00144857
0.00147929
0.00150532
0.00152842
0.00154484
0.00155864
0.00156827
0.0015731
0.00157239
0.00156558
0.00155248
0.00153379
0.0015122
0.00148706
0.0014577
0.00142387
0.00128676
0.00133317
0.00136869
0.00139758
0.00142376
0.0014442
0.00146277
0.0014794
0.00149359
0.00150464
0.00151155
0.00151313
0.00150825
0.00149596
0.00147581
0.0014481
0.00141623
0.00138112
0.00134098
0.00129629
0.00129082
0.0013169
0.00133352
0.001347
0.0013581
0.00136846
0.00137898
0.00138969
0.00139984
0.00140803
0.00141231
0.00141052
0.00140051
0.00138053
0.00134962
0.00130819
0.00126116
0.00120939
0.00115263
0.00109176
0.00127289
0.00127226
0.00126665
0.00125971
0.00125393
0.00125105
0.00125202
0.00125668
0.00126365
0.00127039
0.00127344
0.00126895
0.00125318
0.00122311
0.00117685
0.00111726
0.00104923
0.000971901
0.000891481
0.000814026
0.00122955
0.00119862
0.00116607
0.00113612
0.00111129
0.00109419
0.00108617
0.00108684
0.00109382
0.00110266
0.00110736
0.00110151
0.00107944
0.00103732
0.000973981
0.000895392
0.000803839
0.000704615
0.000604821
0.000513651
0.00116201
0.00109767
0.00103699
0.000983269
0.000940038
0.000910901
0.000897739
0.000899274
0.000911715
0.000927343
0.000936325
0.000929171
0.000899119
0.000843713
0.000769385
0.000682463
0.000588914
0.000491419
0.000397331
0.000331031
0.00106752
0.000974576
0.000888684
0.000815755
0.000759801
0.000726293
0.000718978
0.000735434
0.000765277
0.000794768
0.000810792
0.000804279
0.000771154
0.000715311
0.000640254
0.000548935
0.000452333
0.000359042
0.000287356
0.00024592
0.000950134
0.000832707
0.000731062
0.000652984
0.000608731
0.000601872
0.00062999
0.000682147
0.00073801
0.000776652
0.000787868
0.000769623
0.000724474
0.000655395
0.000564961
0.000462095
0.000357135
0.00027921
0.000224898
0.000197912
0.000806451
0.000676257
0.000576246
0.000517758
0.000507931
0.000549427
0.000624548
0.000700719
0.000756801
0.000787284
0.000788
0.000758003
0.000700164
0.000615342
0.000511754
0.00040117
0.000298127
0.000229677
0.000192125
0.000188841
0.000638122
0.000510007
0.00043194
0.000414216
0.000460746
0.000547624
0.000640386
0.000718104
0.000771853
0.000795729
0.000788503
0.00075095
0.00068329
0.000588455
0.0004754
0.000358993
0.000260759
0.000199312
0.000183889
0.000199906
0.000444161
0.000343866
0.000312033
0.000357443
0.000452939
0.000562222
0.000660991
0.000737121
0.000784845
0.00080342
0.000792967
0.000752253
0.000680376
0.000579214
0.000457437
0.000333418
0.000235533
0.00018769
0.00018939
0.000214091
0.000262705
0.000217589
0.000249877
0.000340795
0.000459827
0.000578623
0.000677394
0.000749579
0.000793985
0.000810777
0.000800844
0.000761786
0.000691325
0.000589146
0.000462543
0.000331703
0.000227923
0.000189273
0.000195847
0.000221548
0.000183305
0.000177639
0.000227576
0.000335812
0.000466776
0.000590475
0.000690195
0.000760889
0.00080322
0.000819443
0.000811953
0.000778369
0.000714663
0.000617373
0.000490608
0.000354559
0.000245415
0.000191986
0.000196622
0.000222305
0.000156335
0.0001598
0.000213587
0.000332006
0.000474075
0.000606147
0.000707962
0.000775835
0.00081419
0.000828971
0.000824501
0.000798981
0.000746797
0.000659849
0.000535784
0.000390237
0.000264
0.000198874
0.000194876
0.000218061
0.000150426
0.000148568
0.000211909
0.000338473
0.000495517
0.000635368
0.000735157
0.00079561
0.000827287
0.000839666
0.000837988
0.000821436
0.000783774
0.000714694
0.000603103
0.00045329
0.000302892
0.000209449
0.000192977
0.000215642
0.000162838
0.000152477
0.000216354
0.000365584
0.000542166
0.000683471
0.000771786
0.000818264
0.000839035
0.000845896
0.000845226
0.000836952
0.000816322
0.000771199
0.000684235
0.000543595
0.000371172
0.000238116
0.000195078
0.000210822
0.000163897
0.000171693
0.000257652
0.000441229
0.000628198
0.000749661
0.00080964
0.000835195
0.000846451
0.000849956
0.000850161
0.00084796
0.000840454
0.000820535
0.000773346
0.000673276
0.000502725
0.000311526
0.000213522
0.000210991
0.000171647
0.000191189
0.000351809
0.000586019
0.000749534
0.000817684
0.000841055
0.000849084
0.000850682
0.000851527
0.000851603
0.000850594
0.000848373
0.000842853
0.000824792
0.000779654
0.000677339
0.000494934
0.000300074
0.000227487
0.000228181
0.000426362
0.000760988
0.000852789
0.000848624
0.000848692
0.000850861
0.000851781
0.000852181
0.000852178
0.000852175
0.000852247
0.000852236
0.000852413
0.000855634
0.00085958
0.000856174
0.00080319
0.000634472
0.000480439
0.00091258
0.000913076
0.000913746
0.000914288
0.000914703
0.000914996
0.000915176
0.00091525
0.000915229
0.000915121
0.000914936
0.000914683
0.000914378
0.000914026
0.00091361
0.000913145
0.000912628
0.000912059
0.000911435
0.000910752
0.000912481
0.000912984
0.000913646
0.00091418
0.000914586
0.000914868
0.000915033
0.000915089
0.000915047
0.000914917
0.000914711
0.000914439
0.000914117
0.000913751
0.000913324
0.000912851
0.00091233
0.000911758
0.000911134
0.00091046
0.000912515
0.000913011
0.000913666
0.000914192
0.000914587
0.000914853
0.000914997
0.000915025
0.000914948
0.000914782
0.000914543
0.000914243
0.000913899
0.000913507
0.000913061
0.000912577
0.000912045
0.000911455
0.000910809
0.000910129
0.000912596
0.000913088
0.000913739
0.000914261
0.00091465
0.000914906
0.000915032
0.000915029
0.000914899
0.000914682
0.000914404
0.000914082
0.000913736
0.000913364
0.000912951
0.000912508
0.000911986
0.000911374
0.000910656
0.000909934
0.000912713
0.000913206
0.00091386
0.000914385
0.00091478
0.000915043
0.000915173
0.000915168
0.000915044
0.000914853
0.000914596
0.000914287
0.00091395
0.000913587
0.00091317
0.000912712
0.000912171
0.000911556
0.000910833
0.000910083
0.000912869
0.000913368
0.000914029
0.000914565
0.000914978
0.000915267
0.00091543
0.000915466
0.000915397
0.000915255
0.000915022
0.000914718
0.000914353
0.000913934
0.000913435
0.00091286
0.000912273
0.000911689
0.000911067
0.000910337
0.000913054
0.000913568
0.000914241
0.000914791
0.000915224
0.000915537
0.00091573
0.000915803
0.000915762
0.000915617
0.000915377
0.000915053
0.000914637
0.000914106
0.000913535
0.000912953
0.000912416
0.000911932
0.000911373
0.000910664
0.000913228
0.000913761
0.000914447
0.000915009
0.000915451
0.000915774
0.000915981
0.000916073
0.000916053
0.000915928
0.000915703
0.000915385
0.000914962
0.000914404
0.000913806
0.000913268
0.000912782
0.000912355
0.000911844
0.000911152
0.000913332
0.00091388
0.00091457
0.000915135
0.000915581
0.000915911
0.000916131
0.000916245
0.000916256
0.000916169
0.000915984
0.000915699
0.000915323
0.00091486
0.000914275
0.000913732
0.000913201
0.000912679
0.000912161
0.000911512
0.000913304
0.00091386
0.000914547
0.000915115
0.000915571
0.000915917
0.000916154
0.000916286
0.000916319
0.000916261
0.000916118
0.000915866
0.000915515
0.000915082
0.000914547
0.000913953
0.000913338
0.000912716
0.000912069
0.000911379
0.000913002
0.000913583
0.000914314
0.000914934
0.000915442
0.000915833
0.000916102
0.000916249
0.000916288
0.000916224
0.000916042
0.000915728
0.000915315
0.000914821
0.000914203
0.00091355
0.000912898
0.000912261
0.000911618
0.000910945
0.000912574
0.000913197
0.000913998
0.000914704
0.000915297
0.000915779
0.000916101
0.000916243
0.000916225
0.000916053
0.000915705
0.000915241
0.000914733
0.000914199
0.000913561
0.000912945
0.000912342
0.00091173
0.000911092
0.000910415
0.000912333
0.000912965
0.000913817
0.00091456
0.000915166
0.000915653
0.000915992
0.000916118
0.000916057
0.000915817
0.000915389
0.000914886
0.000914338
0.000913829
0.000913273
0.00091274
0.000912196
0.000911614
0.00091099
0.00091034
0.000912559
0.000913164
0.000913955
0.00091459
0.000915082
0.00091545
0.000915712
0.000915802
0.000915747
0.000915554
0.000915223
0.000914831
0.000914356
0.000913935
0.000913478
0.000912996
0.000912475
0.000911899
0.000911276
0.000910631
0.000913137
0.000913627
0.000914256
0.000914741
0.000915092
0.000915331
0.000915473
0.000915519
0.000915471
0.000915337
0.000915127
0.000914851
0.000914527
0.000914169
0.000913739
0.000913257
0.000912718
0.000912118
0.000911458
0.000910739
0.000913633
0.000914065
0.000914608
0.000914984
0.000915205
0.000915347
0.000915444
0.000915467
0.000915397
0.000915254
0.000915048
0.000914787
0.000914481
0.000914136
0.000913708
0.000913231
0.000912692
0.000912075
0.000911378
0.00091061
0.000914142
0.000914566
0.000915092
0.000915445
0.000915638
0.000915745
0.000915782
0.000915692
0.000915513
0.000915297
0.000915053
0.000914779
0.000914485
0.000914179
0.000913818
0.000913408
0.000912876
0.000912211
0.00091141
0.000910549
0.000914632
0.00091509
0.000915655
0.000916057
0.000916305
0.000916426
0.000916424
0.000916296
0.000916107
0.000915885
0.000915634
0.000915352
0.000915048
0.000914742
0.000914398
0.000913977
0.000913414
0.000912722
0.000911898
0.00091102
0.000915058
0.000915552
0.000916158
0.000916609
0.000916912
0.000917079
0.000917126
0.00091708
0.000916959
0.000916775
0.000916536
0.000916246
0.000915923
0.000915578
0.000915161
0.00091467
0.000914097
0.000913439
0.000912694
0.000911868
0.000915411
0.000915928
0.000916557
0.000917037
0.000917375
0.000917584
0.000917679
0.000917674
0.000917585
0.00091742
0.000917189
0.000916898
0.000916565
0.0009162
0.000915758
0.000915257
0.000914696
0.000914069
0.000913372
0.000912598
0.000915709
0.000916238
0.000916877
0.000917368
0.000917718
0.000917942
0.000918052
0.000918063
0.000917985
0.00091783
0.000917606
0.00091732
0.00091699
0.000916628
0.00091619
0.000915697
0.000915146
0.000914534
0.000913855
0.000913105
0.000915975
0.00091651
0.00091715
0.000917643
0.000917996
0.000918224
0.000918338
0.000918352
0.000918278
0.000918127
0.000917907
0.000917625
0.000917299
0.000916942
0.000916509
0.000916024
0.000915481
0.000914878
0.000914211
0.000913473
0.000916217
0.000916755
0.000917392
0.000917883
0.000918235
0.000918461
0.000918575
0.00091859
0.000918517
0.000918367
0.000918149
0.000917869
0.000917545
0.000917191
0.000916763
0.000916282
0.000915745
0.00091515
0.000914492
0.000913766
0.000916436
0.000916973
0.000917604
0.00091809
0.000918437
0.000918659
0.00091877
0.000918783
0.000918709
0.000918559
0.000918341
0.000918062
0.000917739
0.000917388
0.000916964
0.000916487
0.000915956
0.000915368
0.000914718
0.000914002
0.000916628
0.00091716
0.000917781
0.000918256
0.000918595
0.00091881
0.000918915