/*--------------------------------*- C++ -*----------------------------------*\
  =========                 |
  \\      /  F ield         | OpenFOAM: The Open Source CFD Toolbox
   \\    /   O peration     | Website:  https://openfoam.org
    \\  /    A nd           | Version:  6
     \\/     M anipulation  |
\*---------------------------------------------------------------------------*/
FoamFile
{
    version     2.0;
    format      ascii;
    class       volScalarField;
    location    "27";
    object      p;
}
// * * * * * * * * * * * * * * * * * * * * * * * * * * * * * * * * * * * * * //

dimensions      [0 2 -2 0 0 0 0];

internalField   nonuniform List<scalar> 
10000
(
0.0273275
0.0270839
0.0263664
0.024847
0.022138
0.0199707
0.0188187
0.0184035
0.0183603
0.0183112
0.0181711
0.0178084
0.0170373
0.0159384
0.0145485
0.0135194
0.0131014
0.0129667
0.0152752
0.0188906
0.0639675
0.06248
0.0647853
0.0687616
0.0705123
0.0701467
0.0689496
0.0679622
0.0675012
0.0672517
0.0671884
0.0668681
0.0665734
0.0657774
0.0642943
0.0614994
0.0570842
0.0525881
0.0516629
0.0544729
0.106054
0.10297
0.102541
0.105367
0.108926
0.111796
0.113686
0.114737
0.11526
0.115428
0.115286
0.114736
0.11356
0.111811
0.109563
0.107093
0.104928
0.103873
0.103807
0.104012
0.154715
0.15332
0.152771
0.155025
0.158698
0.161834
0.163977
0.165181
0.16573
0.165894
0.165744
0.165275
0.164408
0.163049
0.161075
0.158834
0.156606
0.155061
0.154702
0.154778
0.215856
0.218087
0.218451
0.218108
0.218437
0.218808
0.219136
0.219205
0.219142
0.218937
0.218694
0.21842
0.217998
0.217644
0.217235
0.216967
0.217063
0.217391
0.216761
0.21488
0.273111
0.275826
0.277195
0.27656
0.275516
0.274398
0.273492
0.272761
0.272241
0.271868
0.271611
0.27147
0.271611
0.272218
0.273462
0.275343
0.277301
0.278482
0.277585
0.275273
0.321123
0.320932
0.321204
0.32106
0.321003
0.321415
0.321954
0.322368
0.322638
0.322847
0.323158
0.323699
0.324509
0.325703
0.327215
0.32891
0.330329
0.330755
0.330168
0.329804
0.367332
0.365791
0.36555
0.366101
0.367111
0.368853
0.370604
0.371971
0.372835
0.373447
0.373872
0.374347
0.375007
0.375733
0.376468
0.377074
0.377381
0.377131
0.376688
0.377203
0.419383
0.419086
0.419464
0.42026
0.421116
0.421993
0.422859
0.423601
0.424149
0.424432
0.424537
0.424492
0.424124
0.42333
0.422063
0.420217
0.418084
0.416532
0.417017
0.419265
0.476752
0.478207
0.478939
0.478674
0.477984
0.477093
0.476542
0.476346
0.47638
0.476437
0.476438
0.476121
0.475469
0.474193
0.472305
0.469953
0.467398
0.465874
0.466481
0.468092
0.531831
0.532075
0.532218
0.531947
0.531163
0.530178
0.529351
0.528915
0.528772
0.528777
0.528774
0.528765
0.528605
0.528486
0.528403
0.528458
0.528734
0.52913
0.5285
0.526307
0.585722
0.58532
0.584731
0.584039
0.583244
0.58239
0.581576
0.581102
0.580882
0.580856
0.580815
0.5808
0.580869
0.581099
0.581675
0.582748
0.584115
0.585103
0.584564
0.582571
0.637786
0.636278
0.634696
0.633936
0.633726
0.633624
0.633516
0.633394
0.633321
0.633263
0.633267
0.633281
0.63327
0.63335
0.63364
0.634132
0.634773
0.635214
0.635276
0.635445
0.690252
0.68977
0.689444
0.689563
0.689564
0.689074
0.688336
0.687631
0.687122
0.686861
0.686765
0.686736
0.686907
0.687137
0.687509
0.687904
0.688298
0.688606
0.688509
0.688513
0.741663
0.743909
0.745599
0.745753
0.744907
0.743419
0.741967
0.740837
0.74015
0.739808
0.739809
0.740085
0.740545
0.741179
0.741749
0.741852
0.741653
0.7414
0.741358
0.741745
0.788523
0.788293
0.788726
0.790115
0.791537
0.792357
0.792495
0.792216
0.791872
0.79174
0.791867
0.792242
0.793019
0.79407
0.795243
0.796143
0.79656
0.796454
0.795942
0.795526
0.837741
0.838208
0.838338
0.838805
0.84008
0.841407
0.8422
0.84242
0.842314
0.842128
0.841969
0.841996
0.842094
0.842488
0.84311
0.843921
0.84478
0.845015
0.844144
0.842654
0.884968
0.8854
0.885707
0.886162
0.887395
0.889093
0.890628
0.891657
0.892156
0.892251
0.892109
0.891706
0.891057
0.889789
0.88774
0.885111
0.882202
0.880007
0.880472
0.882659
0.936199
0.936814
0.9374
0.937868
0.938742
0.940086
0.941467
0.942594
0.943334
0.943662
0.943749
0.943574
0.943002
0.941799
0.939819
0.937093
0.93429
0.932647
0.932864
0.933588
0.995199
0.996436
0.99699
0.996693
0.996063
0.995754
0.995846
0.996233
0.996594
0.996828
0.996825
0.996645
0.996476
0.996374
0.996653
0.997387
0.998439
0.999229
0.998037
0.994628
1.05549
1.05701
1.05751
1.05653
1.05465
1.05287
1.05171
1.05109
1.05083
1.05068
1.05055
1.05045
1.05037
1.05071
1.05166
1.05331
1.05541
1.05666
1.05577
1.05329
1.10968
1.1101
1.11064
1.11049
1.10935
1.10787
1.1066
1.10559
1.105
1.10473
1.10474
1.10486
1.1053
1.10587
1.1065
1.10709
1.1074
1.10717
1.10699
1.10757
1.15977
1.15927
1.15979
1.1607
1.1609
1.16026
1.15929
1.15837
1.15776
1.15751
1.15768
1.15827
1.15922
1.16047
1.16182
1.16284
1.16318
1.16264
1.16189
1.16178
1.20953
1.20953
1.20942
1.20965
1.2099
1.20975
1.20947
1.2092
1.20901
1.20906
1.20931
1.2098
1.21047
1.21118
1.21203
1.21303
1.21382
1.21401
1.21335
1.21209
1.25782
1.25684
1.25565
1.25634
1.25794
1.25924
1.26007
1.26035
1.26033
1.26026
1.26038
1.26063
1.26071
1.26044
1.25963
1.25831
1.25681
1.25575
1.25581
1.25618
1.30876
1.30918
1.30912
1.30964
1.31081
1.31191
1.3126
1.31275
1.31256
1.31224
1.31193
1.31152
1.31094
1.30985
1.30816
1.30594
1.3035
1.30158
1.30117
1.30147
1.36322
1.3652
1.36617
1.36571
1.36526
1.3652
1.36527
1.36522
1.36509
1.36478
1.36439
1.36385
1.36296
1.36165
1.35992
1.35802
1.35626
1.35478
1.35408
1.35333
1.41816
1.42088
1.42225
1.42167
1.42047
1.41942
1.41872
1.41834
1.41815
1.41799
1.4178
1.4175
1.41724
1.41689
1.41663
1.41657
1.41659
1.4164
1.41551
1.4133
1.46963
1.47039
1.47124
1.47177
1.47177
1.47159
1.47131
1.47107
1.47099
1.47102
1.47115
1.4714
1.47186
1.47275
1.47416
1.47605
1.47797
1.47894
1.47785
1.4748
1.52214
1.52259
1.52326
1.52369
1.52381
1.52394
1.52401
1.52408
1.52419
1.52442
1.52484
1.52544
1.52645
1.52779
1.52945
1.53128
1.53273
1.53303
1.53223
1.53104
1.57716
1.57714
1.57712
1.57753
1.57777
1.5779
1.5779
1.57786
1.57777
1.57774
1.57789
1.57835
1.57906
1.58006
1.58116
1.58201
1.58246
1.58226
1.58182
1.58167
1.63492
1.6364
1.63733
1.63779
1.63733
1.63612
1.63456
1.63308
1.63188
1.6311
1.63056
1.63026
1.63006
1.62972
1.62903
1.62774
1.62604
1.62487
1.62551
1.62694
1.68596
1.68917
1.69132
1.69144
1.69021
1.68847
1.68673
1.68522
1.68411
1.68344
1.68315
1.68306
1.68282
1.68226
1.68113
1.67938
1.67738
1.67616
1.6765
1.677
1.72871
1.72728
1.72694
1.72853
1.73068
1.73284
1.73441
1.73526
1.73554
1.73581
1.73611
1.7366
1.73715
1.73766
1.73806
1.73841
1.73876
1.73894
1.73759
1.73442
1.78145
1.78074
1.78
1.78093
1.78315
1.78556
1.78743
1.78852
1.78904
1.78933
1.78965
1.79015
1.79073
1.79145
1.79214
1.79285
1.79349
1.79363
1.79241
1.78988
1.84391
1.84738
1.8487
1.84803
1.84698
1.84586
1.84506
1.84453
1.84426
1.8441
1.84415
1.84429
1.84463
1.84494
1.84509
1.84511
1.84487
1.84435
1.84394
1.84353
1.90344
1.90655
1.90806
1.9072
1.90512
1.90275
1.9008
1.89944
1.89864
1.8982
1.89812
1.8983
1.89869
1.89916
1.89959
1.89989
1.90001
1.89982
1.89919
1.89801
1.95586
1.95653
1.95719
1.95753
1.95702
1.95592
1.95446
1.95308
1.95197
1.95136
1.95105
1.95104
1.9512
1.9514
1.9516
1.95169
1.95156
1.95118
1.95049
1.94927
2.00392
2.00433
2.00496
2.00598
2.00676
2.00702
2.0066
2.00584
2.00501
2.0044
2.00403
2.00391
2.00376
2.00354
2.00302
2.0022
2.00118
2.00024
1.99962
1.99872
2.05215
2.0518
2.05145
2.05275
2.05489
2.05688
2.0581
2.05866
2.05872
2.0587
2.05871
2.05888
2.05904
2.05904
2.05857
2.05753
2.05605
2.05488
2.05435
2.05357
2.10924
2.11045
2.1106
2.11132
2.11255
2.11365
2.11428
2.11453
2.11463
2.11479
2.11519
2.11601
2.11715
2.11861
2.12005
2.1212
2.1218
2.1218
2.12061
2.11807
2.17156
2.17582
2.17752
2.17654
2.17472
2.17299
2.17174
2.17097
2.17056
2.1706
2.17093
2.17186
2.17337
2.17564
2.17866
2.1822
2.18555
2.18721
2.1852
2.1805
2.22898
2.23088
2.23204
2.23195
2.23078
2.22921
2.22766
2.22633
2.22539
2.22491
2.22486
2.22524
2.22587
2.2267
2.22746
2.22809
2.22831
2.2278
2.22725
2.22706
2.28243
2.28404
2.28538
2.2858
2.28525
2.284
2.28241
2.28086
2.27962
2.2788
2.2784
2.27828
2.27823
2.27779
2.2764
2.27384
2.27044
2.26775
2.26797
2.27025
2.33065
2.33091
2.33141
2.33272
2.33387
2.33446
2.33439
2.33398
2.33344
2.33305
2.33285
2.33282
2.33266
2.3322
2.33105
2.32897
2.32651
2.32497
2.32451
2.32367
2.38248
2.38272
2.38279
2.38435
2.38646
2.38813
2.38895
2.38921
2.38911
2.38911
2.38918
2.38948
2.38984
2.39021
2.39045
2.39064
2.39096
2.39133
2.38986
2.38581
2.44198
2.445
2.44599
2.44607
2.4463
2.44658
2.44662
2.44647
2.44623
2.44608
2.44615
2.44662
2.44744
2.44872
2.45029
2.45207
2.4537
2.4543
2.4525
2.44854
2.50119
2.50483
2.50706
2.50746
2.50672
2.50564
2.50457
2.50361
2.50291
2.50254
2.5026
2.50318
2.50426
2.50574
2.5074
2.50895
2.50998
2.50989
2.50876
2.50713
2.55562
2.55877
2.56116
2.56211
2.56164
2.56047
2.55922
2.55819
2.55746
2.55714
2.55725
2.55784
2.55878
2.56
2.56123
2.5621
2.56246
2.5621
2.56114
2.55984
2.60847
2.6083
2.60785
2.6087
2.60997
2.61109
2.61175
2.612
2.6119
2.61182
2.61176
2.61187
2.61193
2.61177
2.61105
2.60976
2.60816
2.6069
2.60682
2.60692
2.6688
2.66926
2.66887
2.66908
2.66971
2.67023
2.67038
2.67019
2.66975
2.66933
2.66898
2.66877
2.66839
2.66762
2.66614
2.66411
2.66194
2.6606
2.66078
2.66062
2.73087
2.73474
2.73708
2.73745
2.73631
2.73422
2.73206
2.73029
2.72899
2.72828
2.72799
2.72818
2.72864
2.72932
2.72999
2.73057
2.73088
2.73092
2.72957
2.7257
2.78374
2.78681
2.78868
2.78954
2.78945
2.78855
2.78735
2.78628
2.78551
2.78531
2.78562
2.78665
2.78821
2.79052
2.79317
2.79591
2.79804
2.79856
2.79628
2.79142
2.83392
2.83389
2.83356
2.83489
2.83727
2.8395
2.84082
2.84141
2.84152
2.84177
2.84226
2.84329
2.84478
2.84684
2.8492
2.85166
2.85363
2.85386
2.85183
2.84843
2.89452
2.89654
2.89722
2.89785
2.89904
2.89995
2.90016
2.8999
2.89949
2.8992
2.89928
2.89977
2.90045
2.90095
2.90081
2.8998
2.89802
2.89599
2.89542
2.89573
2.95772
2.96293
2.96533
2.96476
2.96339
2.96175
2.96016
2.95873
2.95767
2.95693
2.95661
2.95657
2.9566
2.95613
2.9547
2.9522
2.94905
2.94674
2.94649
2.94626
3.01286
3.0151
3.01643
3.0172
3.01738
3.01723
3.0167
3.01594
3.01512
3.01455
3.01428
3.01433
3.01436
3.0142
3.01352
3.01226
3.01056
3.00907
3.00734
3.00355
3.06625
3.06798
3.0697
3.07192
3.07344
3.07405
3.07382
3.07321
3.07243
3.07189
3.07159
3.07163
3.0718
3.07199
3.07204
3.07196
3.07154
3.07059
3.06818
3.06323
3.12087
3.1246
3.12675
3.12823
3.12945
3.13024
3.13051
3.1303
3.12978
3.12928
3.12895
3.12888
3.12887
3.12901
3.12921
3.12949
3.12977
3.12957
3.12757
3.12313
3.17928
3.18141
3.18177
3.18273
3.18444
3.18635
3.18781
3.18854
3.18873
3.18869
3.18877
3.18909
3.18969
3.19032
3.19056
3.19021
3.18918
3.18786
3.18653
3.18431
3.24803
3.25189
3.25305
3.25311
3.25276
3.25213
3.25135
3.25061
3.25005
3.24976
3.24991
3.25064
3.25192
3.25365
3.25543
3.25675
3.25738
3.25701
3.25514
3.25116
3.31537
3.32175
3.32441
3.32333
3.32041
3.31707
3.31419
3.31202
3.31059
3.30989
3.30976
3.31024
3.31131
3.31298
3.3151
3.31747
3.31954
3.32018
3.31807
3.31283
3.36989
3.37254
3.37411
3.3752
3.37507
3.37407
3.37263
3.37107
3.36975
3.36892
3.36866
3.36898
3.36961
3.37027
3.37047
3.36981
3.36836
3.3667
3.36627
3.36529
3.42096
3.42393
3.42583
3.42806
3.42969
3.43021
3.42982
3.429
3.42818
3.42768
3.42773
3.42821
3.42911
3.42994
3.43015
3.42944
3.42777
3.42632
3.42592
3.42385
3.47509
3.47992
3.48205
3.4837
3.48507
3.48583
3.48618
3.48633
3.48641
3.4867
3.48735
3.48855
3.49004
3.49192
3.49382
3.49535
3.49624
3.49624
3.49404
3.48738
3.53896
3.54413
3.54578
3.54704
3.5479
3.54816
3.54808
3.54791
3.54777
3.54787
3.54834
3.54923
3.55063
3.55236
3.55408
3.55549
3.55616
3.55559
3.55287
3.546
3.61294
3.62092
3.62394
3.62384
3.62173
3.61854
3.6154
3.61291
3.61133
3.61047
3.61035
3.61079
3.61163
3.61259
3.61329
3.61325
3.61225
3.61014
3.60749
3.6022
3.68062
3.69003
3.69434
3.69437
3.69114
3.6862
3.68117
3.67712
3.67452
3.67316
3.67288
3.67325
3.6743
3.67547
3.67644
3.67679
3.67596
3.67376
3.67041
3.66365
3.73189
3.73793
3.74123
3.74388
3.74447
3.7429
3.74005
3.7371
3.73493
3.73388
3.73388
3.73485
3.73645
3.7385
3.74051
3.74169
3.74152
3.73966
3.73615
3.72834
3.77815
3.7819
3.78411
3.78902
3.79387
3.79669
3.79709
3.79612
3.79489
3.79427
3.79446
3.79539
3.79707
3.79908
3.80119
3.80282
3.80328
3.80206
3.7989
3.79076
3.83392
3.84092
3.84367
3.84756
3.85226
3.85559
3.85688
3.8566
3.85576
3.85507
3.85496
3.85548
3.85624
3.85702
3.85751
3.85725
3.85619
3.85446
3.85236
3.8456
3.89918
3.90953
3.91308
3.91492
3.91691
3.91844
3.9191
3.91882
3.91818
3.91746
3.91721
3.9172
3.91756
3.91749
3.91652
3.91416
3.91042
3.90691
3.90548
3.90053
3.9687
3.97852
3.98132
3.98169
3.98171
3.98191
3.98208
3.98195
3.98159
3.98125
3.98123
3.98164
3.98223
3.98282
3.98298
3.98213
3.98056
3.97907
3.97706
3.96886
4.04094
4.04797
4.04866
4.04817
4.04746
4.04721
4.04701
4.04676
4.0464
4.04625
4.0464
4.04688
4.04786
4.04919
4.05084
4.05268
4.05439
4.05537
4.05317
4.04284
4.11499
4.12171
4.1216
4.11965
4.11737
4.11553
4.11414
4.11311
4.11227
4.11167
4.11141
4.11168
4.11228
4.11342
4.11502
4.117
4.11913
4.12064
4.11966
4.11125
4.1859
4.19123
4.18969
4.18711
4.18458
4.18245
4.18087
4.17971
4.17885
4.17818
4.1779
4.17784
4.17816
4.17851
4.17879
4.17903
4.17929
4.18027
4.18157
4.17702
4.25661
4.26175
4.2596
4.25654
4.25371
4.25108
4.24904
4.24761
4.24668
4.24616
4.24613
4.24662
4.2475
4.24879
4.25035
4.25197
4.2537
4.2561
4.25769
4.25206
4.32885
4.33619
4.33473
4.33038
4.32593
4.32189
4.31891
4.31706
4.31604
4.31568
4.31589
4.31677
4.31855
4.32138
4.3254
4.3305
4.33583
4.34037
4.34062
4.33139
4.39962
4.4079
4.40775
4.4042
4.39978
4.39506
4.39115
4.3884
4.38674
4.386
4.38604
4.38709
4.38909
4.39253
4.39726
4.40296
4.40838
4.41237
4.41209
4.40322
4.46693
4.47837
4.4816
4.4797
4.47522
4.46938
4.46403
4.46005
4.45764
4.45654
4.45664
4.45786
4.46026
4.46379
4.46805
4.47237
4.47537
4.477
4.47606
4.46847
4.52486
4.53806
4.54408
4.54497
4.54253
4.5378
4.53293
4.5292
4.52691
4.52611
4.52658
4.52847
4.53158
4.53594
4.54093
4.54542
4.54782
4.54793
4.54379
4.5325
4.58009
4.59257
4.60008
4.60478
4.60673
4.60539
4.60239
4.59948
4.59736
4.59662
4.597
4.59878
4.60172
4.60576
4.61033
4.61402
4.61511
4.61299
4.60493
4.58952
4.64392
4.65963
4.67002
4.67609
4.67922
4.67845
4.67539
4.67198
4.66942
4.6682
4.66837
4.66987
4.67235
4.67516
4.67714
4.67651
4.67184
4.66435
4.65364
4.6391
4.70994
4.72795
4.74077
4.74751
4.75108
4.75065
4.74789
4.74455
4.7419
4.74049
4.74046
4.74159
4.7435
4.74518
4.74551
4.7425
4.73538
4.72619
4.71309
4.69643
4.77394
4.78705
4.79851
4.80734
4.81493
4.8187
4.81906
4.81748
4.81548
4.81408
4.81361
4.81392
4.81462
4.81469
4.81326
4.80917
4.80221
4.7942
4.78099
4.76401
4.85157
4.86192
4.87105
4.87757
4.88529
4.89054
4.89253
4.89226
4.89103
4.88987
4.88934
4.88933
4.88934
4.88833
4.88548
4.87998
4.87275
4.86677
4.85765
4.84706
4.94993
4.95723
4.96167
4.9607
4.96323
4.96629
4.96821
4.96884
4.96863
4.96817
4.96798
4.96809
4.96846
4.96842
4.96779
4.96676
4.96653
4.96926
4.96536
4.9583
5.06783
5.07018
5.06953
5.05923
5.05371
5.05154
5.0508
5.05046
5.05007
5.04976
5.04969
5.05031
5.05148
5.05377
5.05781
5.06442
5.07436
5.08687
5.08642
5.08227
5.18969
5.19072
5.19118
5.17334
5.15805
5.14721
5.14032
5.13631
5.13429
5.13341
5.13357
5.1349
5.13795
5.14341
5.15172
5.16328
5.17719
5.19229
5.19118
5.19282
5.28369
5.28465
5.29458
5.27757
5.25906
5.24279
5.23065
5.22286
5.21875
5.21708
5.21724
5.21958
5.22435
5.23255
5.2439
5.25738
5.27177
5.28573
5.27639
5.27796
5.3357
5.33418
5.36017
5.35314
5.3426
5.3301
5.31795
5.30865
5.30319
5.30086
5.30095
5.30342
5.30868
5.31695
5.32715
5.33765
5.34726
5.35506
5.33013
5.33099
5.37297
5.3638
5.40838
5.40952
5.40893
5.40526
5.39811
5.39053
5.38532
5.383
5.38314
5.38579
5.39054
5.39708
5.40313
5.40617
5.40728
5.40693
5.36271
5.37136
5.448
5.41427
5.47381
5.47121
5.47139
5.4734
5.47171
5.46711
5.46296
5.46087
5.46102
5.4631
5.467
5.4711
5.47313
5.47221
5.47319
5.4762
5.41623
5.44975
5.60911
5.51984
5.59225
5.57002
5.55324
5.54853
5.54551
5.5407
5.53608
5.53357
5.53358
5.53629
5.54054
5.54524
5.54902
5.55472
5.57246
5.59565
5.5235
5.61244
5.84838
5.65685
5.752
5.70593
5.66059
5.63869
5.6275
5.61897
5.61235
5.60876
5.60862
5.61203
5.61845
5.62716
5.63876
5.66142
5.70715
5.75363
5.65809
5.84832
6.08253
5.71704
5.86596
5.82062
5.75895
5.72512
5.70881
5.69843
5.69081
5.68673
5.68636
5.69039
5.69747
5.70806
5.72482
5.7587
5.82007
5.86421
5.71371
6.07824
6.26775
5.62524
5.87765
5.87322
5.81558
5.77937
5.76236
5.75258
5.74554
5.7417
5.74169
5.74551
5.75255
5.7629
5.78022
5.81618
5.87293
5.87571
5.62282
6.26684
6.61735
5.5156
5.88751
5.92771
5.86013
5.8103
5.78633
5.77334
5.7648
5.76032
5.76048
5.76541
5.77386
5.78824
5.81118
5.8613
5.92619
5.88622
5.51629
6.6211
7.67185
5.54607
5.86057
5.95844
5.89849
5.84382
5.81848
5.80604
5.79868
5.79455
5.79488
5.79827
5.8053
5.81828
5.84293
5.89804
5.95838
5.86166
5.54774
7.67106
9.62903
5.21661
5.31419
5.70261
5.79479
5.79426
5.79154
5.79085
5.7895
5.7883
5.78832
5.78949
5.79081
5.79158
5.79424
5.7948
5.70261
5.31429
5.21678
9.62909
0.0187323
0.0313377
0.0317923
0.0373579
0.0350317
0.0328698
0.0336302
0.0355959
0.0370973
0.0377077
0.0379315
0.0381173
0.0385653
0.0399421
0.043022
0.0484396
0.0523961
0.0491291
0.054445
0.0525967
0.112022
0.131379
0.141039
0.154507
0.159915
0.159708
0.158333
0.157954
0.158068
0.157995
0.158131
0.15848
0.16047
0.164308
0.170556
0.176642
0.177953
0.174953
0.177478
0.168255
0.285945
0.286405
0.292516
0.296655
0.293989
0.288328
0.283041
0.279489
0.27726
0.275744
0.274231
0.27289
0.270838
0.268349
0.264984
0.262541
0.264298
0.269953
0.274719
0.276259
0.427881
0.421217
0.418981
0.419419
0.41628
0.409603
0.402764
0.397759
0.394597
0.392344
0.390185
0.387412
0.382837
0.374905
0.361396
0.342092
0.319825
0.302917
0.304257
0.316986
0.524158
0.514495
0.508203
0.512918
0.520654
0.525081
0.524644
0.521643
0.518243
0.515588
0.513113
0.510459
0.506408
0.500222
0.490546
0.477189
0.462641
0.451922
0.446007
0.442894
0.628081
0.622981
0.618921
0.625216
0.635539
0.642806
0.644955
0.644023
0.641608
0.63964
0.637507
0.635727
0.633758
0.632568
0.633031
0.637157
0.645102
0.650947
0.64291
0.623258
0.762696
0.766302
0.759919
0.752003
0.751026
0.753956
0.757418
0.759793
0.760718
0.760856
0.760692
0.761126
0.761873
0.763882
0.76794
0.776245
0.787094
0.792876
0.789683
0.779334
0.881854
0.886189
0.880816
0.874656
0.872225
0.872995
0.874887
0.876482
0.87744
0.877972
0.878718
0.880046
0.882651
0.886367
0.891125
0.896314
0.900637
0.901762
0.902437
0.903899
0.987846
1.00301
1.01024
1.00596
0.998428
0.992786
0.990043
0.989036
0.989012
0.989291
0.989787
0.990519
0.991647
0.993671
0.996108
0.99773
0.998896
0.999337
1.00082
1.00449
1.05937
1.06851
1.07706
1.08048
1.08342
1.08828
1.09323
1.09713
1.09995
1.10179
1.10274
1.10277
1.10167
1.09876
1.09289
1.08415
1.07351
1.06447
1.06543
1.07332
1.17134
1.16617
1.17078
1.18501
1.20001
1.21266
1.22041
1.22458
1.2265
1.22722
1.22683
1.2251
1.22118
1.21473
1.20541
1.19344
1.17988
1.16844
1.16465
1.16434
1.37826
1.3832
1.38688
1.38673
1.38268
1.37802
1.37393
1.37073
1.36795
1.3658
1.36352
1.36069
1.35653
1.35086
1.34406
1.33727
1.33223
1.32976
1.32267
1.30753
1.57054
1.58392
1.58255
1.56796
1.54762
1.53073
1.51947
1.51216
1.50724
1.50414
1.50255
1.50249
1.50397
1.50674
1.50966
1.51107
1.50987
1.50619
1.49843
1.48534
1.69944
1.69709
1.69114
1.6882
1.67839
1.66472
1.65179
1.64209
1.63558
1.63205
1.63074
1.63192
1.63619
1.64426
1.65663
1.67219
1.6871
1.69448
1.68939
1.67747
1.79369
1.79075
1.78474
1.78133
1.77653
1.76892
1.76096
1.75443
1.74991
1.74717
1.74612
1.74695
1.74914
1.753
1.75909
1.76894
1.78142
1.79099
1.79664
1.79936
1.82733
1.82249
1.8181
1.82598
1.84014
1.85257
1.8596
1.86132
1.86077
1.8597
1.85933
1.85948
1.85995
1.85906
1.85572
1.8489
1.83835
1.8306
1.83988
1.85835
1.88172
1.8876
1.89501
1.91156
1.93335
1.95256
1.9659
1.97308
1.97627
1.97743
1.9783
1.97883
1.97821
1.97533
1.96984
1.96053
1.94878
1.94192
1.94494
1.95022
2.00447
2.02625
2.04095
2.04967
2.06023
2.07223
2.08347
2.09206
2.09742
2.10044
2.10234
2.10377
2.10462
2.10425
2.10216
2.09866
2.09625
2.09818
2.09624
2.08413
2.17174
2.19111
2.20325
2.20717
2.20782
2.21066
2.2156
2.2205
2.224
2.22594
2.22701
2.22789
2.22921
2.23152
2.23396
2.23592
2.23766
2.23876
2.23537
2.22392
2.3559
2.37053
2.37789
2.37485
2.3649
2.3564
2.35237
2.35167
2.35216
2.35256
2.35249
2.35197
2.35148
2.35148
2.35264
2.35581
2.36103
2.36454
2.36239
2.35357
2.51049
2.51002
2.50917
2.50909
2.50248
2.49266
2.48417
2.47933
2.47748
2.47687
2.47697
2.47717
2.47746
2.47714
2.47612
2.47396
2.47121
2.46737
2.46567
2.46451
2.63699
2.63365
2.62932
2.62686
2.62146
2.61394
2.6068
2.60201
2.59984
2.59945
2.59985
2.60048
2.60131
2.6018
2.6023
2.60276
2.60355
2.60342
2.59963
2.59277
2.72225
2.71227
2.70538
2.71192
2.72048
2.72542
2.72692
2.72629
2.72531
2.72508
2.72546
2.72593
2.72588
2.7256
2.72549
2.72525
2.72443
2.72214
2.7192
2.71487
2.828
2.82564
2.82357
2.83342
2.84638
2.85461
2.85797
2.85846
2.85778
2.85737
2.8576
2.85838
2.85932
2.85964
2.85877
2.85594
2.85098
2.84486
2.84199
2.8399
2.98519
2.99915
2.99997
2.99649
2.99613
2.9962
2.99517
2.99343
2.99181
2.99079
2.99106
2.99264
2.99539
2.99855
3.00102
3.00102
2.99747
2.99148
2.98799
2.98432
3.1486
3.16121
3.16003
3.15157
3.14249
3.13512
3.12892
3.12384
3.12023
3.11823
3.1179
3.1191
3.12216
3.12682
3.13366
3.14244
3.15119
3.15584
3.15398
3.14396
3.27609
3.28495
3.28297
3.27385
3.26276
3.25353
3.24678
3.24186
3.23859
3.23669
3.2357
3.23569
3.23587
3.2368
3.23918
3.24504
3.25528
3.26577
3.26881
3.25838
3.33974
3.3354
3.33149
3.33627
3.34305
3.34959
3.35425
3.35604
3.35596
3.35524
3.35472
3.35413
3.3532
3.35046
3.3441
3.33257
3.31634
3.30292
3.30621
3.31498
3.41844
3.41918
3.42353
3.43671
3.45151
3.46427
3.47311
3.47798
3.47977
3.48018
3.48044
3.48079
3.48052
3.47842
3.47348
3.46418
3.45129
3.44009
3.4358
3.43367
3.5579
3.57502
3.58579
3.59018
3.59449
3.599
3.60313
3.60646
3.60829
3.60924
3.60974
3.61051
3.61138
3.61247
3.61417
3.61711
3.62112
3.62406
3.61853
3.60159
3.72337
3.73819
3.74448
3.74432
3.74135
3.73917
3.7385
3.73878
3.73911
3.73925
3.73928
3.73991
3.74139
3.74501
3.75135
3.76049
3.77052
3.77655
3.77372
3.75809
3.89381
3.90664
3.90877
3.90111
3.88834
3.87826
3.87277
3.8703
3.86913
3.8687
3.86843
3.8684
3.86839
3.86828
3.86845
3.87081
3.87606
3.88077
3.88197
3.87447
4.01894
4.02059
4.01692
4.01251
4.00649
4.00186
3.99933
3.99822
3.99796
3.99805
3.99879
3.99972
4.00081
4.00043
3.99656
3.98748
3.97408
3.96275
3.96478
3.97066
4.12037
4.11389
4.11425
4.12629
4.13493
4.13667
4.13434
4.1314
4.12945
4.12892
4.12985
4.13191
4.1353
4.13932
4.14371
4.14633
4.14512
4.14189
4.13861
4.13162
4.25644
4.26653
4.27412
4.27737
4.27671
4.27219
4.26642
4.26093
4.25689
4.25481
4.25442
4.25567
4.25793
4.26248
4.27088
4.28514
4.30352
4.31721
4.31464
4.29505
4.37575
4.38599
4.38512
4.3812
4.38045
4.38112
4.38124
4.38002
4.37824
4.37662
4.37555
4.37511
4.37488
4.37436
4.37319
4.37275
4.37514
4.37849
4.38121
4.37531
4.47864
4.48026
4.47552
4.47861
4.48626
4.49435
4.50018
4.50292
4.50368
4.50306
4.50249
4.50146
4.49971
4.49509
4.48527
4.46794
4.44639
4.43062
4.43208
4.43868
4.61199
4.61864
4.61833
4.62168
4.62639
4.63132
4.63573
4.63837
4.63951
4.63963
4.63987
4.63976
4.63943
4.6375
4.63341
4.62567
4.61404
4.60362
4.59796
4.59009
4.77683
4.78821
4.79093
4.79135
4.78935
4.78605
4.7833
4.78186
4.78121
4.78116
4.78181
4.78354
4.78615
4.79073
4.79842
4.81056
4.82466
4.83325
4.82602
4.80015
4.94152
4.95495
4.95661
4.95028
4.94059
4.9313
4.92384
4.91933
4.91722
4.91725
4.91882
4.92233
4.92788
4.93618
4.94813
4.96446
4.98161
4.99142
4.98988
4.97315
5.06128
5.06746
5.06476
5.05937
5.0533
5.04886
5.04539
5.04311
5.04201
5.04247
5.04456
5.04872
5.05495
5.06304
5.07203
5.08053
5.08714
5.09028
5.0931
5.09052
5.15576
5.152
5.14818
5.1545
5.16227
5.16671
5.16674
5.16506
5.16325
5.16267
5.16295
5.1644
5.16637
5.16822
5.16858
5.16609
5.16202
5.15942
5.16221
5.1621
5.27799
5.28673
5.28812
5.28825
5.2886
5.28809
5.28689
5.2852
5.28371
5.28276
5.28262
5.28229
5.28002
5.27367
5.26176
5.24417
5.22404
5.20944
5.2099
5.21153
5.38756
5.40076
5.40128
5.39767
5.39723
5.40021
5.40445
5.40713
5.40818
5.40812
5.40794
5.40677
5.40365
5.39632
5.3842
5.36784
5.34954
5.33489
5.32845
5.31869
5.49996
5.50251
5.50452
5.51833
5.53356
5.54393
5.54823
5.54825
5.54613
5.54335
5.54024
5.53681
5.53258
5.528
5.524
5.52228
5.52284
5.52176
5.51085
5.48347
5.69146
5.71142
5.72157
5.72262
5.71763
5.70997
5.70196
5.69463
5.68817
5.68286
5.6785
5.67473
5.67118
5.66821
5.6669
5.66758
5.66864
5.66601
5.65912
5.63991
5.85177
5.87529
5.88024
5.86768
5.85005
5.83682
5.82884
5.82395
5.82064
5.81833
5.81749
5.81801
5.82002
5.82284
5.82602
5.82847
5.82928
5.82643
5.82382
5.81484
5.9218
5.91867
5.91406
5.92027
5.92952
5.93908
5.9458
5.94962
5.95165
5.95357
5.95615
5.96071
5.96779
5.97777
5.99007
6.00354
6.01616
6.02385
6.02518
6.01424
6.02513
6.01826
6.01799
6.03517
6.05608
6.07268
6.08279
6.08788
6.09025
6.0924
6.09535
6.10053
6.1081
6.11906
6.13274
6.14793
6.16204
6.17226
6.17971
6.17402
6.22295
6.23777
6.24386
6.24385
6.24117
6.23802
6.23591
6.23412
6.2323
6.23155
6.23223
6.23523
6.23998
6.24597
6.25134
6.25495
6.25722
6.26071
6.27067
6.27174
6.42281
6.44528
6.44573
6.42993
6.40949
6.39174
6.37931
6.37124
6.36634
6.36384
6.36364
6.36511
6.36674
6.36628
6.36117
6.35025
6.33652
6.32862
6.3359
6.33854
6.52968
6.53527
6.52855
6.52163
6.51294
6.50416
6.49673
6.49161
6.48878
6.48786
6.48869
6.49027
6.49113
6.48917
6.48299
6.47254
6.4599
6.45144
6.45123
6.44126
6.58126
6.57322
6.56622
6.57741
6.59335
6.60567
6.61134
6.61272
6.61208
6.61179
6.61174
6.61198
6.61128
6.60987
6.60793
6.60761
6.60998
6.61236
6.60521
6.57511
6.67698
6.68313
6.68561
6.69909
6.71671
6.73128
6.73957
6.74278
6.7426
6.74149
6.74001
6.73835
6.73561
6.73134
6.72554
6.72013
6.71644
6.71192
6.70484
6.68107
6.83469
6.85987
6.86599
6.8664
6.86866
6.8732
6.87732
6.87925
6.87869
6.87657
6.87426
6.87186
6.86902
6.8644
6.85758
6.84869
6.83918
6.82813
6.81988
6.80374
7.01657
7.04261
7.04689
7.04107
7.03191
7.02555
7.02193
7.01957
7.01718
7.01461
7.01219
7.01009
7.00835
7.00707
7.00691
7.00759
7.00816
7.00438
6.99605
6.97515
7.17872
7.19853
7.19901
7.19008
7.17578
7.1642
7.15756
7.15454
7.15318
7.15248
7.15221
7.15276
7.15425
7.15724
7.16223
7.1693
7.17591
7.17668
7.17368
7.15595
7.28586
7.28573
7.27932
7.28383
7.28728
7.28935
7.29055
7.29133
7.29179
7.29272
7.29423
7.29728
7.30219
7.30934
7.31779
7.3262
7.33176
7.33202
7.3339
7.3227
7.41745
7.41825
7.41577
7.42757
7.43717
7.44036
7.43921
7.43691
7.43508
7.43483
7.43657
7.44102
7.44784
7.45662
7.4654
7.47131
7.47121
7.46673
7.4706
7.46447
7.59845
7.62164
7.6239
7.61804
7.60773
7.59632
7.58675
7.57988
7.57556
7.57378
7.57456
7.57791
7.58343
7.59058
7.5984
7.60477
7.60603
7.60346
7.60786
7.59867
7.74255
7.76523
7.76064
7.74951
7.73809
7.72921
7.72239
7.71712
7.71316
7.71109
7.71066
7.71194
7.7136
7.71576
7.71836
7.72188
7.72662
7.733
7.74064
7.72344
7.85111
7.85878
7.85433
7.86364
7.87053
7.87032
7.86468
7.85806
7.8529
7.85035
7.8503
7.85218
7.85476
7.85601
7.85347
7.84701
7.83923
7.83619
7.84433
7.83077
7.99205
8.01502
8.01715
8.01905
8.01643
8.00968
8.00141
7.99412
7.98903
7.98689
7.98778
7.99145
7.99687
8.0027
8.00622
8.00514
8.00036
7.99499
7.99408
7.96884
8.10362
8.13338
8.13399
8.13157
8.12837
8.12639
8.12463
8.12245
8.12059
8.12007
8.12151
8.12497
8.13024
8.13644
8.14266
8.14827
8.1524
8.15132
8.147
8.11413
8.19159
8.21072
8.21224
8.23072
8.24798
8.25814
8.26084
8.25922
8.25677
8.25538
8.25575
8.25773
8.26026
8.26269
8.26445
8.26524
8.26574
8.26333
8.26156
8.23109
8.34697
8.38505
8.39412
8.40359
8.40793
8.40807
8.40489
8.39977
8.39499
8.39177
8.39109
8.39196
8.39366
8.3934
8.3898
8.38196
8.37081
8.35731
8.35455
8.3287
8.49656
8.54433
8.5504
8.54896
8.54321
8.53892
8.53534
8.53147
8.52764
8.52503
8.52433
8.52526
8.52653
8.5261
8.52278
8.5158
8.50698
8.49598
8.49053
8.45457
8.59932
8.63313
8.63454
8.64768
8.65704
8.66188
8.66252
8.66125
8.65933
8.65805
8.65788
8.65849
8.65937
8.65921
8.65765
8.65422
8.64894
8.64006
8.63542
8.59468
8.72542
8.76303
8.76525
8.77671
8.78613
8.79269
8.79537
8.79541
8.79419
8.79316
8.79289
8.79359
8.79454
8.79534
8.79597
8.79601
8.79539
8.79058
8.78837
8.74578
8.87111
8.90906
8.90815
8.91889
8.92839
8.93575
8.93851
8.93707
8.93389
8.93095
8.92912
8.92809
8.92772
8.9269
8.92622
8.9261
8.92639
8.92389
8.92654
8.88732
9.04038
9.0858
9.08251
9.08381
9.08268
9.08143
9.07963
9.07633
9.07243
9.06867
9.06604
9.06427
9.06263
9.06
9.05595
9.05044
9.04486
9.03985
9.04736
9.01374
9.18054
9.22747
9.21686
9.20893
9.20381
9.20429
9.20747
9.20963
9.21026
9.20967
9.20948
9.20944
9.20979
9.20911
9.20607
9.19966
9.19045
9.18262
9.19188
9.16026
9.29309
9.32214
9.30545
9.31337
9.32645
9.33953
9.34898
9.35446
9.35689
9.35828
9.36009
9.36322
9.36765
9.37366
9.38099
9.38837
9.3941
9.3969
9.40607
9.36569
9.48807
9.53285
9.52269
9.51851
9.51397
9.51145
9.51067
9.5107
9.51017
9.51004
9.51069
9.51327
9.51839
9.52737
9.5419
9.56399
9.59159
9.61492
9.62744
9.57432
9.68954
9.74774
9.73865
9.7175
9.69264
9.6742
9.66426
9.65952
9.65723
9.65597
9.65578
9.65733
9.66045
9.66584
9.67312
9.68318
9.69615
9.70988
9.72835
9.69137
9.81577
9.85865
9.8443
9.83106
9.81709
9.80706
9.80223
9.80062
9.80099
9.80164
9.80314
9.80524
9.80847
9.8114
9.81145
9.80619
9.79576
9.78951
9.80403
9.78041
9.93986
9.969
9.95647
9.95684
9.95693
9.95567
9.95417
9.9537
9.95416
9.95562
9.95806
9.96202
9.96699
9.97227
9.97635
9.97756
9.97434
9.97102
9.97413
9.93447
10.1436
10.1874
10.1853
10.1789
10.1641
10.1463
10.1318
10.1228
10.118
10.1166
10.1174
10.1207
10.126
10.1339
10.1448
10.1591
10.1736
10.1835
10.1798
10.122
10.352
10.4107
10.4156
10.3977
10.3658
10.3313
10.3047
10.2877
10.2786
10.2749
10.2749
10.2777
10.2827
10.2906
10.3015
10.3139
10.3233
10.3267
10.3216
10.2735
10.4602
10.5044
10.5128
10.5132
10.5016
10.4801
10.4587
10.4425
10.4332
10.4296
10.4304
10.4343
10.4413
10.4502
10.4595
10.4664
10.4666
10.4605
10.4508
10.414
10.5066
10.5387
10.5601
10.5911
10.6132
10.6159
10.6068
10.5951
10.5864
10.5827
10.5832
10.5874
10.5945
10.6038
10.6137
10.6209
10.621
10.6148
10.5995
10.5604
10.5768
10.6193
10.6564
10.6981
10.7344
10.7502
10.7511
10.7451
10.7385
10.7349
10.7347
10.7376
10.7423