/*--------------------------------*- C++ -*----------------------------------*\
  =========                 |
  \\      /  F ield         | OpenFOAM: The Open Source CFD Toolbox
   \\    /   O peration     | Website:  https://openfoam.org
    \\  /    A nd           | Version:  6
     \\/     M anipulation  |
\*---------------------------------------------------------------------------*/
FoamFile
{
    version     2.0;
    format      ascii;
    class       volScalarField;
    location    "27";
    object      p;
}
// * * * * * * * * * * * * * * * * * * * * * * * * * * * * * * * * * * * * * //

dimensions      [0 2 -2 0 0 0 0];

internalField   nonuniform List<scalar> 
130000
(
0.00620235
0.005376
0.0048218
0.00438848
0.00400266
0.00365658
0.00334559
0.00306434
0.00280763
0.00257165
0.00235249
0.002148
0.0019547
0.00177119
0.00159501
0.00142496
0.00125918
0.0010958
0.000930092
0.000772558
0.00625211
0.00584891
0.00537697
0.00499227
0.00463976
0.0043088
0.00399337
0.00369153
0.00340049
0.00311651
0.0028393
0.00256464
0.00229462
0.00202528
0.00175875
0.00149215
0.00122819
0.000960563
0.000687241
0.000409434
0.00786693
0.00723181
0.00660982
0.00609093
0.00561464
0.00516491
0.00473491
0.00431984
0.00391828
0.00352416
0.00313991
0.00275901
0.00238633
0.00201445
0.00165072
0.00128605
0.00092934
0.000569285
0.000210823
-0.000152085
0.00847946
0.00797404
0.0074082
0.00689624
0.00639775
0.00590255
0.00541338
0.00492529
0.00444384
0.00396181
0.00348794
0.00301241
0.00254644
0.00207853
0.0016201
0.00115907
0.000708415
0.000252843
-0.000195486
-0.000647603
0.00888377
0.00843597
0.00790949
0.00740662
0.00690043
0.00637979
0.00585575
0.00531993
0.00478506
0.00424064
0.0037017
0.00315505
0.00261653
0.00207033
0.00153449
0.000990874
0.000459434
-8.0139e-05
-0.000609215
-0.00114563
0.00893509
0.00856414
0.00808971
0.00761262
0.0071154
0.00658756
0.00604806
0.00548429
0.0049152
0.00432571
0.00373771
0.00313291
0.00253458
0.00192197
0.00131868
0.000703333
0.000100972
-0.000513208
-0.00111427
-0.00172658
0.0087944
0.0084859
0.00806054
0.00761035
0.00713164
0.00660768
0.00606583
0.00548602
0.00489467
0.00427098
0.00364406
0.00299143
0.00234216
0.00167137
0.00100968
0.000329738
-0.000336477
-0.00101838
-0.00168516
-0.00236832
0.00848911
0.00822984
0.00784968
0.00743404
0.00697972
0.00646651
0.00592763
0.00533882
0.00473181
0.00408219
0.00342493
0.0027331
0.00204239
0.00132352
0.000611745
-0.000123266
-0.000845023
-0.00158704
-0.00231269
-0.00305936
0.00805908
0.00784125
0.00749828
0.0071164
0.00668342
0.00618103
0.00564545
0.00505133
0.00443288
0.00376362
0.00308177
0.00235846
0.00163238
0.000871577
0.000116316
-0.000668437
-0.00144069
-0.00223755
-0.00301779
-0.00382496
0.00753098
0.00734772
0.00703919
0.0066858
0.00627293
0.00578133
0.00525093
0.00465446
0.00402832
0.00334385
0.00264264
0.00189259
0.00113716
0.000340942
-0.000452422
-0.00128017
-0.00209673
-0.00294273
-0.00377197
-0.00463327
0.0069143
0.00676713
0.00649066
0.00616352
0.00576865
0.00528665
0.00476142
0.00416326
0.00353108
0.00283371
0.00211557
0.00134269
0.000560819
-0.000267827
-0.00109539
-0.00196336
-0.00282136
-0.0037132
-0.00458884
-0.0055026
0.00625455
0.0061319
0.00588143
0.0055759
0.0051975
0.00472421
0.00420427
0.00360537
0.0029685
0.00226007
0.00152756
0.000733914
-7.09394e-05
-0.00092804
-0.00178667
-0.0026903
-0.00358547
-0.00451924
-0.00543716
-0.00639843
0.0055591
0.00545346
0.0052225
0.00493783
0.0045727
0.00410726
0.00359109
0.00299148
0.00234966
0.00163116
0.000884719
7.25508e-05
-0.00075442
-0.00163863
-0.0025263
-0.0034643
-0.00439544
-0.00536913
-0.00632805
-0.00733604
0.00481736
0.00473867
0.00452984
0.0042646
0.00391281
0.00345634
0.00294488
0.00234523
0.00169919
0.000971474
0.000212519
-0.000617431
-0.00146444
-0.00237328
-0.00328823
-0.00425755
-0.00522171
-0.00623268
-0.00722967
-0.00828065
0.00406566
0.00401119
0.00382413
0.00357274
0.00323206
0.00278259
0.00227519
0.00167449
0.00102388
0.0002869
-0.000484829
-0.00133133
-0.00219841
-0.00313129
-0.00407276
-0.00507279
-0.00606984
-0.00711673
-0.00815167
-0.00924516
0.00331143
0.00328199
0.00311621
0.00287999
0.00254928
0.00210624
0.00160241
0.00100066
0.000345155
-0.000400899
-0.00118485
-0.00204777
-0.00293378
-0.00388929
-0.00485627
-0.00588507
-0.00691307
-0.00799442
-0.00906528
-0.0101988
0.00259099
0.00257322
0.00242125
0.00219709
0.00187207
0.00143293
0.000930572
0.000327647
-0.000333579
-0.00108819
-0.00188505
-0.00276304
-0.00366862
-0.004646
-0.00563854
-0.0066954
-0.00775506
-0.00886948
-0.00997694
-0.0111498
0.00187512
0.00187389
0.0017363
0.00152958
0.00121103
0.000776504
0.000275412
-0.00032764
-0.000994301
-0.00175693
-0.00256612
-0.00345918
-0.00438339
-0.00538195
-0.00639941
-0.00748354
-0.0085735
-0.00972076
-0.0108636
-0.0120749
0.00117419
0.00119305
0.0010728
0.000880251
0.000569551
0.000139891
-0.000359789
-0.000962243
-0.00163351
-0.00240306
-0.0032246
-0.00413122
-0.00507459
-0.00609334
-0.00713619
-0.00824663
-0.00936803
-0.0105467
-0.0117261
-0.012975
0.000491118
0.0005399
0.000442599
0.00026688
-3.34923e-05
-0.000457554
-0.000955945
-0.00155833
-0.00223373
-0.00300997
-0.00384326
-0.00476396
-0.00572578
-0.00676503
-0.00783278
-0.00896997
-0.0101219
-0.011333
-0.0125484
-0.0138358
-0.000124364
-5.99076e-05
-0.000139155
-0.000299658
-0.000590733
-0.00100853
-0.00150615
-0.00210893
-0.00278905
-0.00357092
-0.00441625
-0.00534963
-0.00633079
-0.00738936
-0.00848296
-0.00964572
-0.0108298
-0.0120717
-0.0133248
-0.0146492
-0.000698213
-0.000609736
-0.000671056
-0.00081042
-0.00109142
-0.00150049
-0.0019969
-0.00259997
-0.0032861
-0.00407393
-0.00493095
-0.00587763
-0.00687758
-0.00795656
-0.00907573
-0.0102658
-0.0114816
-0.0127571
-0.0140479
-0.0154123
-0.00120357
-0.00109197
-0.00113419
-0.00125461
-0.00152545
-0.00192502
-0.00241915
-0.00302124
-0.00371413
-0.00450795
-0.00537758
-0.00633621
-0.00735603
-0.00845409
-0.00960033
-0.0108162
-0.0120661
-0.0133733
-0.0147041
-0.0161067
-0.00166804
-0.00151673
-0.00153121
-0.00162786
-0.00188478
-0.00227307
-0.00276284
-0.00336274
-0.00406156
-0.00486263
-0.00574524
-0.00671756
-0.0077569
-0.00887622
-0.0100495
-0.0112942
-0.0125781
-0.013921
-0.0152921
-0.0167373
-0.00200569
-0.00183546
-0.00182853
-0.00190489
-0.00214952
-0.00252708
-0.00301274
-0.0036095
-0.0043136
-0.00512131
-0.00601819
-0.00700375
-0.00806402
-0.00920321
-0.010405
-0.0116768
-0.0129967
-0.0143731
-0.0157868
-0.0172724
-0.00229145
-0.0020791
-0.00204437
-0.0020916
-0.00231967
-0.00268296
-0.00316213
-0.00375421
-0.0044617
-0.00527574
-0.0061861
-0.00718686
-0.00826767
-0.00942923
-0.0106591
-0.0119615
-0.0133171
-0.0147315
-0.0161885
-0.0177204
-0.00242333
-0.00218827
-0.00212884
-0.0021532
-0.00236529
-0.00271557
-0.00318752
-0.00377465
-0.00448428
-0.00530312
-0.00622631
-0.0072415
-0.00834431
-0.00952775
-0.0107873
-0.012119
-0.0135124
-0.0149629
-0.0164652
-0.0180419
-0.00249597
-0.00220938
-0.00211038
-0.00210193
-0.00228976
-0.00262221
-0.00308236
-0.00366262
-0.00437168
-0.00519458
-0.00612842
-0.00715913
-0.00828333
-0.0094918
-0.0107814
-0.0121462
-0.0135773
-0.0150687
-0.0166167
-0.0182441
-0.0023665
-0.0020527
-0.00192145
-0.00188615
-0.00205198
-0.00236848
-0.00281697
-0.0033906
-0.00409861
-0.00492514
-0.00586919
-0.00691405
-0.00805991
-0.00929292
-0.0106139
-0.0120118
-0.0134833
-0.0150153
-0.0166116
-0.0182895
-0.00213018
-0.00176189
-0.00158681
-0.00151491
-0.00165302
-0.00194918
-0.00238305
-0.00294823
-0.0036537
-0.0044835
-0.00543635
-0.00649585
-0.00766172
-0.00892045
-0.0102725
-0.0117067
-0.0132189
-0.0147964
-0.0164423
-0.0181762
-0.00166646
-0.00126176
-0.00104914
-0.000945008
-0.00105745
-0.00133428
-0.00175376
-0.00231039
-0.00301301
-0.00384561
-0.00480722
-0.00588036
-0.00706643
-0.00835028
-0.00973402
-0.0112044
-0.0127593
-0.0143825
-0.0160803
-0.0178712
-0.00106003
-0.000593702
-0.000330934
-0.000183992
-0.000263634
-0.000515854
-0.000917027
-0.00146242
-0.00216002
-0.00299442
-0.00396331
-0.00505057
-0.00625561
-0.00756506
-0.00897984
-0.0104877
-0.0120849
-0.0137567
-0.0155072
-0.0173591
-0.00019612
0.000314202
0.000622668
0.000808745
0.000761424
0.000533765
0.000151977
-0.00038116
-0.00107245
-0.00190752
-0.00288313
-0.00398327
-0.00520755
-0.00654232
-0.00798833
-0.00953384
-0.0111749
-0.0128958
-0.0147015
-0.0166162
0.000848102
0.00142801
0.00179527
0.00203161
0.00202446
0.00182749
0.00146989
0.000952603
0.00027064
-0.000563199
-0.0015433
-0.00265596
-0.00389784
-0.00525793
-0.00673485
-0.0083188
-0.0100035
-0.0117757
-0.0136371
-0.0156177
0.002181
0.00281587
0.0032385
0.00352288
0.00355654
0.00339147
0.00306018
0.00256077
0.00189032
0.00105964
7.63316e-05
-0.00104702
-0.00230629
-0.00369136
-0.00519945
-0.0068223
-0.00855225
-0.0103763
-0.0122959
-0.0143445
0.00373029
0.00444656
0.00493886
0.00528373
0.0053672
0.00524123
0.00494198
0.004465
0.00380995
0.00298524
0.0020016
0.000868571
-0.000405991
-0.00181532
-0.00335389
-0.00501599
-0.00679093
-0.00866883
-0.0106473
-0.0127666
0.00560496
0.00638806
0.00694823
0.00735223
0.00748728
0.00740244
0.0071383
0.00668663
0.00605004
0.00523409
0.00425218
0.00311199
0.00182293
0.000390134
-0.00117881
-0.00288053
-0.00470221
-0.00663482
-0.00867503
-0.0108679
0.00773151
0.00860986
0.00925319
0.00972995
0.00992648
0.00989125
0.00966894
0.00924832
0.008635
0.00783168
0.00685527
0.00570989
0.0044091
0.00295423
0.00135602
-0.000385108
-0.00225295
-0.00424203
-0.00634472
-0.00861364
0.0102187
0.0111799
0.011905
0.0124546
0.0127154
0.0127332
0.012557
0.0121716
0.0115857
0.0107989
0.0098311
0.00868406
0.00737324
0.00589787
0.00427125
0.00249087
0.000575561
-0.00147067
-0.00363849
-0.00598644
0.0129905
0.0140644
0.0148886
0.0155266
0.0158634
0.0159445
0.0158227
0.0154798
0.0149276
0.0141627
0.0132086
0.0120632
0.0107462
0.00925294
0.0075999
0.00578136
0.00381976
0.00171526
-0.000518089
-0.00294723
0.0161579
0.0173324
0.0182563
0.0189841
0.0194015
0.0195509
0.0194895
0.0191951
0.0186826
0.0179452
0.0170094
0.0158707
0.0145508
0.0130423
0.0113649
0.00950929
0.00750094
0.00533806
0.00303696
0.000523625
0.0196403
0.0209483
0.021991
0.0228262
0.023338
0.0235681
0.0235777
0.0233413
0.022877
0.0221745
0.0212642
0.0201374
0.0188202
0.0173009
0.0156026
0.0137123
0.0116594
0.00943795
0.00706921
0.0044699
0.0235491
0.0249802
0.0261437
0.02709
0.0277031
0.0280214
0.0281106
0.0279408
0.0275331
0.0268737
0.0259961
0.0248886
0.0235794
0.0220541
0.0203386
0.0184162
0.0163195
0.0140402
0.0116023
0.00891416
0.0277984
0.0293875
0.030694
0.031772
0.0325034
0.0329255
0.033108
0.0330175
0.0326781
0.0320725
0.0312377
0.0301575
0.0288648
0.0273401
0.025613
0.0236629
0.0215262
0.0191902
0.016684
0.0139059
0.0324971
0.0342362
0.035691
0.0369073
0.0377671
0.038304
0.0385921
0.0385933
0.0383345
0.0377946
0.0370133
0.0359715
0.0347037
0.0331874
0.031455
0.0294819
0.0273078
0.0249173
0.0223423
0.0194719
0.0375582
0.0394834
0.0411107
0.0424891
0.0434977
0.044169
0.0445809
0.0446913
0.0445294
0.0440707
0.0433576
0.0423666
0.041136
0.0396386
0.0379098
0.035921
0.0337155
0.0312733
0.0286317
0.0256686
0.0430726
0.0451823
0.0469911
0.0485435
0.0497162
0.0505392
0.0510929
0.051331
0.0512845
0.0509248
0.0502964
0.0493726
0.0481927
0.0467263
0.0450113
0.0430147
0.040783
0.0382936
0.0355862
0.0325286
0.048954
0.0512847
0.0533026
0.0550579
0.0564211
0.0574223
0.0581431
0.0585342
0.0586268
0.0583892
0.0578671
0.0570296
0.0559186
0.0544994
0.0528114
0.0508185
0.0485697
0.0460382
0.0432689
0.0401173
0.055265
0.0578228
0.0600668
0.0620452
0.0636234
0.0648292
0.0657451
0.0663177
0.0665773
0.0664892
0.0660987
0.0653722
0.0643509
0.0629973
0.0613523
0.0593753
0.0571183
0.0545517
0.0517227
0.0484759
0.0619215
0.0647443
0.0672473
0.0694856
0.0713148
0.072763
0.0739111
0.0747024
0.0751649
0.0752608
0.0750343
0.0744479
0.0735435
0.0722792
0.0706966
0.0687522
0.0664997
0.0639061
0.0610229
0.0576819
0.0689508
0.0720554
0.0748446
0.0773759
0.0794945
0.0812269
0.0826504
0.0837046
0.0844131
0.0847347
0.0847108
0.084301
0.0835446
0.0823971
0.0809
0.0790061
0.0767709
0.0741597
0.0712259
0.0677893
0.0762615
0.079691
0.0828104
0.085686
0.0881474
0.0902202
0.0919755
0.0933488
0.0943573
0.0949564
0.095183
0.0949929
0.0944234
0.0934263
0.092042
0.0902208
0.0880199
0.0854013
0.082423
0.0788908
0.0838494
0.0876335
0.0911274
0.0944005
0.0972655
0.099744
0.101898
0.103657
0.10503
0.105969
0.106502
0.106584
0.106245
0.105437
0.104196
0.102472
0.100321
0.0977064
0.0946874
0.0910568
0.0916227
0.0958122
0.0997409
0.103486
0.106833
0.109801
0.112436
0.114663
0.116478
0.117828
0.118734
0.119146
0.119091
0.118515
0.117454
0.115854
0.113775
0.111176
0.108122
0.104392
0.0995428
0.104188
0.10862
0.112919
0.116842
0.120394
0.123605
0.126392
0.128734
0.130575
0.131926
0.132733
0.133016
0.13272
0.131876
0.130431
0.128443
0.125875
0.122793
0.11896
0.107512
0.112682
0.117706
0.122666
0.127273
0.131519
0.13541
0.138853
0.14181
0.144221
0.146087
0.147351
0.148028
0.14806
0.147475
0.14622
0.144353
0.141836
0.13874
0.134813
0.115455
0.121233
0.126954
0.132687
0.138092
0.143138
0.147804
0.151984
0.155627
0.158668
0.1611
0.162869
0.163981
0.164382
0.164096
0.16307
0.161358
0.158929
0.155849
0.151855
0.123268
0.12974
0.136269
0.142892
0.149197
0.155125
0.160627
0.165585
0.169936
0.17362
0.176627
0.178908
0.180469
0.181263
0.181308
0.180556
0.179055
0.176772
0.173773
0.169776
0.130809
0.138061
0.145495
0.153095
0.160358
0.167185
0.173505
0.179195
0.184193
0.188451
0.191966
0.194705
0.196678
0.19785
0.198241
0.197805
0.19658
0.194536
0.191722
0.18784
0.137898
0.145983
0.154366
0.162948
0.17113
0.178764
0.18577
0.19203
0.197498
0.202154
0.206018
0.209078
0.211363
0.212855
0.213575
0.213484
0.212608
0.210912
0.208425
0.204828
0.144172
0.153125
0.162432
0.171885
0.1808
0.189001
0.196417
0.202955
0.208609
0.213393
0.217369
0.220552
0.222991
0.22469
0.225681
0.225929
0.225448
0.224196
0.222177
0.21904
0.149181
0.158946
0.169049
0.179136
0.188462
0.196855
0.204297
0.210736
0.216226
0.220822
0.224636
0.227712
0.230124
0.231893
0.233055
0.233588
0.233492
0.23272
0.231244
0.228682
0.1522
0.162683
0.173371
0.183764
0.193101
0.20126
0.20831
0.214268
0.219261
0.223386
0.226796
0.229562
0.231775
0.233461
0.234667
0.235369
0.235569
0.235206
0.23423
0.232217
0.152607
0.163614
0.174598
0.18493
0.193888
0.20144
0.207771
0.212968
0.217234
0.220695
0.223542
0.225849
0.227728
0.229194
0.230297
0.23101
0.231335
0.231197
0.230536
0.228897
0.149704
0.161067
0.172082
0.182047
0.19034
0.197054
0.202498
0.20682
0.210278
0.213009
0.215226
0.216999
0.218444
0.219561
0.220405
0.220927
0.221135
0.220941
0.220295
0.218712
0.143277
0.15479
0.165622
0.175031
0.182538
0.188366
0.192929
0.196416
0.199117
0.20116
0.202763
0.203974
0.204922
0.205582
0.206006
0.206124
0.205943
0.20537
0.204385
0.202472
0.133181
0.144769
0.155341
0.16417
0.170942
0.175995
0.179828
0.182631
0.184708
0.18616
0.187204
0.18786
0.188256
0.188344
0.188184
0.187667
0.186818
0.185536
0.183836
0.18117
0.119896
0.131483
0.141813
0.150168
0.156381
0.160876
0.164199
0.166517
0.168128
0.169095
0.169633
0.169726
0.169512
0.16891
0.167988
0.166618
0.164839
0.162537
0.159769
0.15596
0.103791
0.115467
0.125703
0.133799
0.13971
0.143906
0.14695
0.148969
0.150248
0.150803
0.150853
0.150344
0.149426
0.147981
0.146108
0.143646
0.140667
0.137029
0.132844
0.127498
0.0857523
0.0975731
0.107889
0.11597
0.121844
0.125987
0.128956
0.13082
0.131852
0.132022
0.131556
0.13036
0.128605
0.126139
0.123095
0.119295
0.114833
0.109541
0.103595
0.0963373
0.0662396
0.078406
0.0890456
0.0973756
0.103467
0.107771
0.110824
0.112629
0.113453
0.113216
0.112163
0.110156
0.107389
0.10367
0.0991942
0.0937443
0.087464
0.0801443
0.0720384
0.062428
0.0460777
0.0587149
0.0698865
0.0786981
0.0852186
0.089856
0.0931114
0.0949209
0.0955458
0.0948573
0.0931187
0.0901428
0.086156
0.0809247
0.0747033
0.0672532
0.058766
0.0489919
0.038267
0.0258158
0.0254201
0.0387866
0.050747
0.0602848
0.0674466
0.0725811
0.0761541
0.0780259
0.0784546
0.0772575
0.0747235
0.0706003
0.0651493
0.0580846
0.0497446
0.0398444
0.0286641
0.0158899
0.00196567
-0.0139662
0.0047241
0.0189847
0.0319556
0.042456
0.0504762
0.0562933
0.0603242
0.0623479
0.0626127
0.0608711
0.0574327
0.0519698
0.0447876
0.0355361
0.024632
0.0117672
-0.0026895
-0.0191091
-0.0369343
-0.0570979
-0.0163828
-0.000901172
0.0133934
0.0251692
0.0343411
0.0410983
0.0458005
0.0481299
0.0483188
0.0460356
0.0416077
0.0346129
0.0254001
0.0135365
-0.000444249
-0.0169181
-0.0353805
-0.0562846
-0.0789134
-0.104304
-0.0379914
-0.0210293
-0.00506999
0.00837281
0.0190918
0.0271642
0.0328606
0.0357525
0.0360388
0.0332906
0.0278354
0.0191333
0.00758494
-0.00733452
-0.0249909
-0.0458137
-0.0691624
-0.0955543
-0.124093
-0.155903
-0.0611009
-0.0421716
-0.0240327
-0.00835592
0.00448405
0.0144202
0.0216045
0.0254657
0.0261502
0.0230977
0.0166306
0.00606698
-0.00813955
-0.0266377
-0.0486514
-0.0747249
-0.104032
-0.137189
-0.173044
-0.212828
-0.0863633
-0.0650102
-0.044066
-0.0254103
-0.00967534
0.00288212
0.0122438
0.0176605
0.0191862
0.0161074
0.00871993
-0.00382634
-0.0210213
-0.0436492
-0.0708097
-0.103154
-0.139693
-0.181112
-0.22596
-0.275539
-0.115401
-0.0908545
-0.066205
-0.0435432
-0.0238577
-0.00766626
0.0047864
0.0125291
0.015495
0.0127608
0.00458921
-0.0100611
-0.030613
-0.0580307
-0.0912379
-0.131086
-0.176355
-0.227853
-0.283734
-0.345405
-0.149341
-0.12082
-0.0913737
-0.0634227
-0.0384659
-0.0173676
-0.000678735
0.0103491
0.015497
0.0136231
0.00490537
-0.0119427
-0.0362807
-0.0692519
-0.109609
-0.158356
-0.214073
-0.277712
-0.347036
-0.423475
-0.19027
-0.156583
-0.120897
-0.0860369
-0.0541718
-0.0266329
-0.00436147
0.01102
0.0190731
0.0183521
0.0090191
-0.010443
-0.0392844
-0.078822
-0.127595
-0.186924
-0.25512
-0.333308
-0.418777
-0.513104
-0.239431
-0.199397
-0.155854
-0.112259
-0.0717227
-0.0362485
-0.00726178
0.0131881
0.0244594
0.0248316
0.014459
-0.00834964
-0.042686
-0.0901387
-0.149044
-0.220852
-0.303597
-0.398722
-0.503352
-0.619243
-0.299093
-0.25108
-0.197784
-0.143581
-0.0927586
-0.0481277
-0.0116981
0.0140215
0.0282173
0.0288769
0.0162954
-0.0114125
-0.0531122
-0.110567
-0.181797
-0.268487
-0.368374
-0.483492
-0.610864
-0.75233
-0.370562
-0.313006
-0.248056
-0.181597
-0.119451
-0.0653252
-0.021746
0.00826062
0.0238358
0.0227339
0.0054422
-0.0299675
-0.0820076
-0.152702
-0.239749
-0.344911
-0.465687
-0.604771
-0.759272
-0.931176
-0.457078
-0.387927
-0.309381
-0.229399
-0.155676
-0.0930865
-0.0445264
-0.0132717
5.86216e-05
-0.00678157
-0.0328841
-0.0803759
-0.147317
-0.23603
-0.34377
-0.472702
-0.620226
-0.789969
-0.978989
-1.18884
-0.560548
-0.478146
-0.384931
-0.291911
-0.208789
-0.141305
-0.0923113
-0.0649262
-0.0591479
-0.0770538
-0.117231
-0.182011
-0.26919
-0.381538
-0.516163
-0.675909
-0.858364
-1.06787
-1.301
-1.55812
-0.686778
-0.589292
-0.481649
-0.378567
-0.291303
-0.225508
-0.182942
-0.165757
-0.173118
-0.206942
-0.265664
-0.351812
-0.46339
-0.603909
-0.770688
-0.967296
-1.19172
-1.44863
-1.73348
-2.04385
-0.843287
-0.729623
-0.609511
-0.502109
-0.41873
-0.362967
-0.334049
-0.332497
-0.356727
-0.408702
-0.487215
-0.595365
-0.731652
-0.90026
-1.09909
-1.33243
-1.5985
-1.90146
-2.23519
-2.59349
-1.04118
-0.91047
-0.782035
-0.678556
-0.608107
-0.569305
-0.557943
-0.57336
-0.614115
-0.682401
-0.777314
-0.902427
-1.05737
-1.24716
-1.47068
-1.7326
-2.03093
-2.36858
-2.73816
-3.12963
-1.28724
-1.1416
-1.01244
-0.921861
-0.869773
-0.848863
-0.852997
-0.881596
-0.933716
-1.01149
-1.11447
-1.24691
-1.40988
-1.60921
-1.84493
-2.12145
-2.43613
-2.79019
-3.17548
-3.57696
-1.59016
-1.43416
-1.31198
-1.23793
-1.20142
-1.19178
-1.20367
-1.23693
-1.29088
-1.3674
-1.46712
-1.59496
-1.75366
-1.94934
-2.18294
-2.45764
-2.77019
-3.11944
-3.49617
-3.87974
-1.96436
-1.80476
-1.69168
-1.62635
-1.59225
-1.57996
-1.58615
-1.61095
-1.65425
-1.71783
-1.80347
-1.91578
-2.05853
-2.23718
-2.45351
-2.70912
-3.0006
-3.32377
-3.66842
-4.01011
-2.45747
-2.28991
-2.16975
-2.08932
-2.03399
-1.99794
-1.9805
-1.98198
-2.00264
-2.04304
-2.10516
-2.19198
-2.3078
-2.4564
-2.64068
-2.86047
-3.11322
-3.39125
-3.68405
-3.96784
-3.11504
-2.90919
-2.74625
-2.61785
-2.51408
-2.43287
-2.37572
-2.34209
-2.33131
-2.34145
-2.37352
-2.42771
-2.50834
-2.61685
-2.75743
-2.92805
-3.1272
-3.34364
-3.56783
-3.7824
-3.86851
-3.5871
-3.34886
-3.14929
-2.98141
-2.84531
-2.74269
-2.67063
-2.62644
-2.60477
-2.60514
-2.62446
-2.66673
-2.73052
-2.82168
-2.9359
-3.07307
-3.21787
-3.36335
-3.50053
-4.49905
-4.13519
-3.81366
-3.54625
-3.32443
-3.14612
-3.00998
-2.90962
-2.83987
-2.79258
-2.76636
-2.75537
-2.76335
-2.78544
-2.82821
-2.88447
-2.95652
-3.02911
-3.10295
-3.16815
-4.69041
-4.33088
-3.97202
-3.68662
-3.46093
-3.28442
-3.14867
-3.04348
-2.96406
-2.90233
-2.85821
-2.82442
-2.80474
-2.79102
-2.78887
-2.78646
-2.7897
-2.79327
-2.80748
-2.77962
-4.14992
-4.099
-3.82815
-3.61444
-3.45692
-3.33278
-3.22956
-3.13988
-3.06488
-2.99913
-2.94527
-2.89613
-2.85643
-2.81477
-2.77486
-2.71973
-2.66114
-2.60805
-2.54863
-2.26338
-3.04677
-3.69217
-3.63405
-3.5015
-3.40161
-3.31962
-3.24281
-3.16602
-3.09732
-3.03121
-2.97598
-2.921
-2.87648
-2.8255
-2.78011
-2.71774
-2.66733
-2.6309
-2.50611
-1.8266
-2.42268
-3.51768
-3.68822
-3.54484
-3.42612
-3.33895
-3.25903
-3.1827
-3.11218
-3.04733
-2.98935
-2.9364
-2.88991
-2.84737
-2.81058
-2.78179
-2.77899
-2.79028
-2.63121
-2.01199
0.00154714
0.00145426
0.00133476
0.00123394
0.00112749
0.00102863
0.000940418
0.000859712
0.000787287
0.000720811
0.000660738
0.000604851
0.000552978
0.000503136
0.000454822
0.000406599
0.000357975
0.000305781
0.000238239
0.000145151
0.00964303
0.00951418
0.00938192
0.00926376
0.00913031
0.00899947
0.00886985
0.0087408
0.00861038
0.00847827
0.00834389
0.00820577
0.00806439
0.00791765
0.00776636
0.00760911
0.00744805
0.0072777
0.00709174
0.00690114
0.0176782
0.0175669
0.0173974
0.0172392
0.0170551
0.0168672
0.0166706
0.0164713
0.0162637
0.0160521
0.0158324
0.0156069
0.0153729
0.0151311
0.0148808
0.0146218
0.0143548
0.014076
0.0137794
0.0134699
0.0253784
0.0252654
0.025079
0.0248991
0.0246801
0.0244505
0.0242019
0.0239456
0.0236727
0.0233912
0.023095
0.0227884
0.0224682
0.0221365
0.0217919
0.0214351
0.0210673
0.020684
0.0202834
0.0198666
0.0330937
0.03298
0.0327819
0.0325838
0.0323338
0.032067
0.0317715
0.0314632
0.0311299
0.0307835
0.0304154
0.0300336
0.0296325
0.0292164
0.0287834
0.0283343
0.0278705
0.0273884
0.0268864
0.0263649
0.0406792
0.0405665
0.0403582
0.0401449
0.039868
0.0395683
0.039231
0.0388757
0.0384874
0.038081
0.0376468
0.0371943
0.0367179
0.0362222
0.0357048
0.0351671
0.034611
0.0340325
0.0334323
0.032806
0.0482403
0.0481285
0.0479112
0.0476841
0.0473828
0.0470541
0.0466799
0.0462828
0.0458448
0.0453838
0.0448881
0.0443695
0.0438208
0.0432479
0.0426488
0.0420244
0.0413779
0.0407052
0.0400077
0.0392778
0.0557879
0.0556787
0.0554552
0.0552174
0.0548951
0.0545406
0.0541332
0.0536977
0.0532141
0.0527016
0.052148
0.0515653
0.050947
0.0502992
0.0496203
0.0489115
0.0481766
0.0474104
0.0466163
0.0457824
0.063347
0.0632447
0.0630192
0.0627738
0.0624336
0.0620554
0.0616172
0.0611455
0.0606186
0.0600568
0.059447
0.0588022
0.0581159
0.057394
0.0566367
0.055843
0.0550194
0.0541588
0.0532668
0.0523266
0.0709639
0.0708714
0.0706472
0.0703979
0.0700429
0.069643
0.0691756
0.0686689
0.0681005
0.0674908
0.066827
0.0661214
0.0653691
0.0645749
0.0637394
0.0628615
0.0619488
0.0609928
0.0600019
0.0589542
0.078667
0.0785906
0.0783726
0.0781228
0.0777556
0.0773355
0.0768397
0.0762985
0.0756893
0.0750328
0.074316
0.0735511
0.072733
0.0718656
0.0709517
0.069987
0.0689832
0.0679293
0.0668369
0.0656775
0.0865119
0.0864518
0.0862417
0.0859927
0.085615
0.0851765
0.0846547
0.0840811
0.0834326
0.08273
0.0819607
0.0811355
0.0802515
0.0793108
0.0783174
0.0772663
0.0761709
0.0750184
0.0738234
0.0725514
0.094525
0.0944855
0.0942845
0.0940375
0.0936514
0.0931984
0.0926545
0.0920514
0.091365
0.0906161
0.0897928
0.0889061
0.087954
0.0869374
0.0858634
0.0847232
0.083534
0.0822797
0.080979
0.0795902
0.102777
0.102755
0.102564
0.102321
0.101929
0.101463
0.100898
0.100265
0.0995405
0.0987448
0.0978676
0.0969184
0.0958979
0.0948052
0.0936493
0.0924193
0.0911352
0.0897779
0.0883705
0.0868643
0.1113
0.111303
0.111123
0.110884
0.110486
0.110006
0.109418
0.108753
0.107989
0.107146
0.106214
0.105203
0.104114
0.102943
0.101703
0.10038
0.0989978
0.0975339
0.0960157
0.0943864
0.120157
0.120182
0.120014
0.119776
0.11937
0.118871
0.118257
0.117559
0.116754
0.115862
0.114875
0.113799
0.112639
0.111389
0.110063
0.108644
0.10716
0.105586
0.103954
0.102199
0.129351
0.129402
0.129247
0.129009
0.128593
0.128075
0.127434
0.126699
0.125852
0.124908
0.123862
0.122719
0.121485
0.120151
0.118735
0.117218
0.115629
0.113942
0.112191
0.110304
0.138911
0.138989
0.138846
0.138609
0.138185
0.137647
0.136978
0.136205
0.135313
0.134314
0.133208
0.131994
0.130683
0.129262
0.127755
0.126134
0.124439
0.122634
0.120762
0.118739
0.148841
0.148949
0.148823
0.148589
0.14816
0.147604
0.14691
0.146098
0.145161
0.144107
0.142938
0.141651
0.140261
0.138751
0.137147
0.135421
0.133614
0.131688
0.129689
0.127527
0.159157
0.159298
0.159192
0.158963
0.158532
0.157961
0.157244
0.156396
0.155416
0.154305
0.153074
0.151711
0.15024
0.148637
0.146935
0.145098
0.143176
0.141122
0.138993
0.136683
0.169873
0.170051
0.169969
0.169748
0.169318
0.168733
0.167996
0.167113
0.166091
0.164923
0.163629
0.162191
0.160637
0.15894
0.157136
0.155187
0.153144
0.15096
0.148693
0.146232
0.180987
0.181208
0.181154
0.180943
0.180517
0.179921
0.179164
0.178247
0.177183
0.17596
0.174603
0.173087
0.171451
0.169655
0.167747
0.16568
0.163513
0.161191
0.158782
0.15616
0.192515
0.192783
0.192761
0.192565
0.192145
0.19154
0.190766
0.189816
0.188711
0.187432
0.186011
0.184419
0.182696
0.180801
0.178785
0.176598
0.174301
0.171839
0.169281
0.166495
0.204443
0.204766
0.204784
0.204608
0.204201
0.20359
0.202801
0.20182
0.200675
0.19934
0.197855
0.196182
0.194371
0.192372
0.190245
0.18793
0.185499
0.182887
0.180172
0.17721
0.216804
0.217187
0.217251
0.217102
0.216712
0.216099
0.2153
0.21429
0.213106
0.211715
0.210165
0.20841
0.206507
0.204402
0.202158
0.199712
0.197138
0.194371
0.191491
0.188346
0.22959
0.230047
0.230167
0.230051
0.229684
0.229075
0.228268
0.227231
0.226011
0.224564
0.222948
0.221109
0.219111
0.216894
0.214526
0.211939
0.209215
0.206281
0.203226
0.199883
0.242852
0.243389
0.243573
0.243499
0.243163
0.242562
0.241752
0.240692
0.239436
0.237934
0.236251
0.234326
0.23223
0.229895
0.227398
0.224664
0.22178
0.218671
0.215428
0.211877
0.256586
0.257222
0.257484
0.257463
0.257165
0.256581
0.255775
0.254695
0.253407
0.251851
0.2501
0.248085
0.245887
0.243429
0.240796
0.237905
0.234852
0.231554
0.228111
0.224333
0.270861
0.271608
0.27196
0.272004
0.271755
0.271195
0.270399
0.269305
0.267987
0.266379
0.26456
0.262454
0.26015
0.257563
0.254786
0.25173
0.248496
0.244998
0.241341
0.237323
0.285697
0.286577
0.287036
0.287161
0.286974
0.286449
0.285671
0.284569
0.283227
0.281568
0.279682
0.277483
0.275069
0.272347
0.269418
0.266185
0.26276
0.259046
0.255162
0.250883
0.301176
0.302206
0.302789
0.30301
0.302898
0.30242
0.30167
0.300567
0.299206
0.297499
0.295545
0.293251
0.290723
0.287858
0.28477
0.281349
0.277719
0.273776
0.269645
0.265088
0.31734
0.318546
0.319275
0.319611
0.319591
0.319174
0.318464
0.317371
0.315996
0.314245
0.312225
0.309833
0.307186
0.304172
0.300913
0.297293
0.293444
0.289253
0.284859
0.280001
0.334273
0.335679
0.336576
0.337049
0.337139
0.3368
0.336143
0.335069
0.333689
0.331897
0.329811
0.327319
0.324547
0.321373
0.317932
0.314097
0.310011
0.305553
0.300873
0.29569
0.352032
0.353671
0.354764
0.3554
0.355623
0.355382
0.354794
0.353753
0.352375
0.350548
0.348397
0.345801
0.342897
0.339554
0.335916
0.331848
0.327507
0.322759
0.31777
0.312236
0.3707
0.372604
0.373925
0.374754
0.375136
0.375016
0.374517
0.373522
0.372157
0.370299
0.368083
0.365378
0.362331
0.358803
0.354951
0.350628
0.346004
0.340939
0.335611
0.329692
0.390341
0.392553
0.394139
0.395198
0.395772
0.395802
0.395414
0.394484
0.393143
0.391259
0.388977
0.386156
0.382954
0.379225
0.375135
0.370531
0.365597
0.360183
0.354482
0.348141
0.41103
0.413594
0.415491
0.41682
0.417624
0.417837
0.417588
0.416743
0.415439
0.413534
0.411183
0.408236
0.404862
0.400906
0.39655
0.39163
0.386347
0.380543
0.374425
0.367618
0.43282
0.435792
0.43805
0.439701
0.440781
0.441216
0.441137
0.4404
0.439147
0.437227
0.434802
0.431716
0.42815
0.423942
0.419284
0.414011
0.408336
0.402096
0.395516
0.388193
0.455752
0.459186
0.46186
0.463885
0.465288
0.465985
0.466108
0.465503
0.464313
0.462382
0.459878
0.45664
0.452858
0.448365
0.44337
0.437697
0.43158
0.424851
0.417752
0.409857
0.479798
0.483747
0.486888
0.489335
0.491103
0.4921
0.492451
0.491996
0.49088
0.488941
0.486355
0.482954
0.478941
0.474142
0.468777
0.462671
0.45607
0.448805
0.441138
0.43262
0.504818
0.509303
0.512933
0.515821
0.517971
0.519277
0.519864
0.519561
0.51852
0.516576
0.51391
0.510353
0.50611
0.501005
0.495267
0.488714
0.481608
0.473781
0.465513
0.456333
0.530435
0.535415
0.539491
0.542776
0.545264
0.546841
0.547629
0.547456
0.546477
0.544532
0.541807
0.538129
0.533705
0.528352
0.522295
0.515354
0.507788
0.499437
0.490592
0.480769
0.555894
0.561213
0.565579
0.569103
0.571785
0.57351
0.574406
0.5743
0.573353
0.571415
0.568674
0.56496
0.560463
0.554998
0.548774
0.541598
0.533724
0.52499
0.515691
0.505333
0.579906
0.585275
0.589642
0.593129
0.595756
0.597426
0.598277
0.598142
0.597183
0.595265
0.592577
0.588951
0.584559
0.579206
0.573068
0.565943
0.558051
0.549226
0.53975
0.529118
0.600648
0.605676
0.609675
0.61278
0.615058
0.616434
0.617071
0.616802
0.61579
0.613909
0.61135
0.607952
0.60386
0.59887
0.593123
0.586397
0.578872
0.570366
0.561122
0.550621
0.616096
0.620422
0.623723
0.626165
0.627861
0.628766
0.629061
0.628585
0.627495
0.62567
0.623302
0.620233
0.616593
0.612172
0.607073
0.601068
0.594285
0.586523
0.577971
0.568096
0.624482
0.627907
0.630352
0.632011
0.633042
0.633418
0.63334
0.632642
0.631483
0.629733
0.627589
0.624893
0.621766
0.617996
0.613675
0.608559
0.602749
0.596017
0.588507
0.579662
0.624844
0.627411
0.629066
0.630034
0.630496
0.630436
0.63006
0.629196
0.628007
0.62635
0.62443
0.622077
0.619428