/*--------------------------------*- C++ -*----------------------------------*\
  =========                 |
  \\      /  F ield         | OpenFOAM: The Open Source CFD Toolbox
   \\    /   O peration     | Website:  https://openfoam.org
    \\  /    A nd           | Version:  6
     \\/     M anipulation  |
\*---------------------------------------------------------------------------*/
FoamFile
{
    version     2.0;
    format      ascii;
    class       surfaceScalarField;
    location    "27";
    object      phi;
}
// * * * * * * * * * * * * * * * * * * * * * * * * * * * * * * * * * * * * * //

dimensions      [0 3 -1 0 0 0 0];

internalField   nonuniform List<scalar> 
258600
(
-1.0065e-08
-8.54359e-08
9.75588e-09
-1.03597e-08
-9.11368e-08
-1.06261e-08
-9.66968e-08
-1.08663e-08
-1.02091e-07
-1.10819e-08
-1.07297e-07
-1.12749e-08
-1.1229e-07
-1.14476e-08
-1.17051e-07
-1.16019e-08
-1.2156e-07
-1.17401e-08
-1.25803e-07
-1.18639e-08
-1.29766e-07
-1.19752e-08
-1.33441e-07
-1.20755e-08
-1.36824e-07
-1.21664e-08
-1.39913e-07
-1.2249e-08
-1.4271e-07
-1.23246e-08
-1.45223e-07
-1.2394e-08
-1.47461e-07
-1.2458e-08
-1.49437e-07
-1.25174e-08
-1.51165e-07
-1.25728e-08
-1.52665e-07
-1.53954e-07
-1.26246e-08
-1.07891e-08
-8.52058e-08
1.05574e-08
-1.10156e-08
-9.09115e-08
-1.12311e-08
-9.64824e-08
-1.14311e-08
-1.01893e-07
-1.16142e-08
-1.07115e-07
-1.17802e-08
-1.12125e-07
-1.19297e-08
-1.16903e-07
-1.20641e-08
-1.21427e-07
-1.21847e-08
-1.25683e-07
-1.22932e-08
-1.29659e-07
-1.2391e-08
-1.33344e-07
-1.24796e-08
-1.36736e-07
-1.25602e-08
-1.39833e-07
-1.26341e-08
-1.42637e-07
-1.27021e-08
-1.45156e-07
-1.27652e-08
-1.47399e-07
-1.28239e-08
-1.49379e-07
-1.28791e-08
-1.51111e-07
-1.2931e-08
-1.52613e-07
-1.53904e-07
-1.29807e-08
-1.18816e-08
-8.50257e-08
1.16989e-08
-1.20589e-08
-9.07357e-08
-1.22265e-08
-9.63163e-08
-1.23822e-08
-1.01739e-07
-1.25246e-08
-1.06974e-07
-1.26539e-08
-1.11998e-07
-1.27704e-08
-1.16788e-07
-1.28754e-08
-1.21324e-07
-1.29698e-08
-1.2559e-07
-1.30551e-08
-1.29575e-07
-1.31323e-08
-1.33268e-07
-1.32029e-08
-1.36667e-07
-1.32676e-08
-1.39769e-07
-1.33278e-08
-1.42578e-07
-1.33839e-08
-1.45101e-07
-1.34371e-08
-1.47347e-07
-1.34874e-08
-1.49329e-07
-1.3536e-08
-1.51063e-07
-1.35827e-08
-1.52567e-07
-1.53859e-07
-1.36288e-08
-1.33834e-08
-8.49215e-08
1.32765e-08
-1.34887e-08
-9.06324e-08
-1.35894e-08
-9.62173e-08
-1.36842e-08
-1.01646e-07
-1.37712e-08
-1.06889e-07
-1.38508e-08
-1.11921e-07
-1.39223e-08
-1.16718e-07
-1.39871e-08
-1.21261e-07
-1.40452e-08
-1.25534e-07
-1.40983e-08
-1.29523e-07
-1.41465e-08
-1.33222e-07
-1.41915e-08
-1.36624e-07
-1.42333e-08
-1.39728e-07
-1.42735e-08
-1.42539e-07
-1.43119e-08
-1.45063e-07
-1.43499e-08
-1.4731e-07
-1.43871e-08
-1.49293e-07
-1.44248e-08
-1.51027e-07
-1.44622e-08
-1.5253e-07
-1.53822e-07
-1.45007e-08
-1.51325e-08
-8.48822e-08
1.50895e-08
-1.51727e-08
-9.05947e-08
-1.52093e-08
-9.61829e-08
-1.52425e-08
-1.01615e-07
-1.52713e-08
-1.06862e-07
-1.52967e-08
-1.11898e-07
-1.53179e-08
-1.16699e-07
-1.53366e-08
-1.21245e-07
-1.53523e-08
-1.2552e-07
-1.53669e-08
-1.29511e-07
-1.538e-08
-1.3321e-07
-1.53935e-08
-1.36612e-07
-1.54067e-08
-1.39717e-07
-1.54215e-08
-1.42527e-07
-1.54371e-08
-1.45049e-07
-1.54551e-08
-1.47294e-07
-1.54744e-08
-1.49274e-07
-1.54966e-08
-1.51006e-07
-1.55203e-08
-1.52507e-07
-1.53797e-07
-1.5547e-08
-1.70627e-08
-8.49034e-08
1.70797e-08
-1.70416e-08
-9.06193e-08
-1.70164e-08
-9.62106e-08
-1.69894e-08
-1.01646e-07
-1.696e-08
-1.06894e-07
-1.693e-08
-1.11931e-07
-1.6899e-08
-1.16732e-07
-1.68688e-08
-1.21278e-07
-1.68389e-08
-1.25552e-07
-1.68114e-08
-1.29541e-07
-1.67856e-08
-1.33238e-07
-1.67635e-08
-1.36637e-07
-1.67442e-08
-1.39738e-07
-1.67294e-08
-1.42543e-07
-1.67181e-08
-1.45062e-07
-1.67118e-08
-1.47302e-07
-1.67092e-08
-1.49278e-07
-1.67118e-08
-1.51006e-07
-1.67178e-08
-1.52502e-07
-1.53788e-07
-1.67287e-08
-1.91081e-08
-8.49785e-08
1.91772e-08
-1.90315e-08
-9.07e-08
-1.895e-08
-9.62954e-08
-1.88669e-08
-1.01733e-07
-1.87823e-08
-1.06982e-07
-1.8699e-08
-1.12018e-07
-1.86165e-08
-1.16817e-07
-1.85374e-08
-1.2136e-07
-1.84612e-08
-1.25631e-07
-1.83902e-08
-1.29616e-07
-1.83235e-08
-1.33307e-07
-1.82635e-08
-1.367e-07
-1.82088e-08
-1.39794e-07
-1.81614e-08
-1.42594e-07
-1.81199e-08
-1.45105e-07
-1.8086e-08
-1.47338e-07
-1.80579e-08
-1.49308e-07
-1.80372e-08
-1.51029e-07
-1.80218e-08
-1.52519e-07
-1.53798e-07
-1.80134e-08
-2.12226e-08
-8.50993e-08
2.13378e-08
-2.10976e-08
-9.0829e-08
-2.0966e-08
-9.64302e-08
-2.08323e-08
-1.0187e-07
-2.0697e-08
-1.07121e-07
-2.05635e-08
-1.12155e-07
-2.0432e-08
-1.16952e-07
-2.03055e-08
-1.21491e-07
-2.01835e-08
-1.25755e-07
-2.00689e-08
-1.29734e-07
-1.99607e-08
-1.33417e-07
-1.98614e-08
-1.36802e-07
-1.97697e-08
-1.39888e-07
-1.96876e-08
-1.42678e-07
-1.96136e-08
-1.45181e-07
-1.95494e-08
-1.47405e-07
-1.9493e-08
-1.49366e-07
-1.94462e-08
-1.51078e-07
-1.94065e-08
-1.5256e-07
-1.53831e-07
-1.93756e-08
-2.33794e-08
-8.52598e-08
2.35348e-08
-2.32119e-08
-9.10006e-08
-2.30357e-08
-9.66095e-08
-2.28561e-08
-1.02054e-07
-2.26741e-08
-1.07306e-07
-2.24939e-08
-1.1234e-07
-2.2316e-08
-1.17133e-07
-2.21439e-08
-1.21667e-07
-2.19775e-08
-1.25925e-07
-2.18198e-08
-1.29895e-07
-2.16701e-08
-1.3357e-07
-2.15311e-08
-1.36945e-07
-2.14014e-08
-1.4002e-07
-2.12834e-08
-1.428e-07
-2.11752e-08
-1.45291e-07
-2.10788e-08
-1.47505e-07
-2.09921e-08
-1.49455e-07
-2.09168e-08
-1.51156e-07
-2.08502e-08
-1.52628e-07
-1.5389e-07
-2.07944e-08
-2.55632e-08
-8.54563e-08
2.57546e-08
-2.53568e-08
-9.12109e-08
-2.51398e-08
-9.68296e-08
-2.49178e-08
-1.0228e-07
-2.46924e-08
-1.07535e-07
-2.44683e-08
-1.12568e-07
-2.42464e-08
-1.17359e-07
-2.40307e-08
-1.21887e-07
-2.38213e-08
-1.26137e-07
-2.36215e-08
-1.30099e-07
-2.34309e-08
-1.33763e-07
-2.32522e-08
-1.37127e-07
-2.30842e-08
-1.40191e-07
-2.29294e-08
-1.42958e-07
-2.27861e-08
-1.45437e-07
-2.26562e-08
-1.47638e-07
-2.25375e-08
-1.49575e-07
-2.24319e-08
-1.51265e-07
-2.23367e-08
-1.52725e-07
-1.53976e-07
-2.22538e-08
-2.77593e-08
-8.56843e-08
2.79824e-08
-2.7518e-08
-9.14561e-08
-2.72635e-08
-9.70872e-08
-2.70022e-08
-1.02546e-07
-2.67362e-08
-1.07804e-07
-2.64708e-08
-1.12838e-07
-2.62071e-08
-1.17626e-07
-2.59496e-08
-1.22149e-07
-2.56986e-08
-1.26392e-07
-2.54577e-08
-1.30344e-07
-2.52267e-08
-1.33998e-07
-2.50086e-08
-1.3735e-07
-2.48022e-08
-1.404e-07
-2.46103e-08
-1.43154e-07
-2.4431e-08
-1.45619e-07
-2.42666e-08
-1.47806e-07
-2.41148e-08
-1.49729e-07
-2.39775e-08
-1.51406e-07
-2.3852e-08
-1.52853e-07
-1.54091e-07
-2.37404e-08
-2.99601e-08
-8.5942e-08
3.02133e-08
-2.9686e-08
-9.17336e-08
-2.93967e-08
-9.73794e-08
-2.90986e-08
-1.02848e-07
-2.87945e-08
-1.08112e-07
-2.84899e-08
-1.13147e-07
-2.81864e-08
-1.17933e-07
-2.78886e-08
-1.22451e-07
-2.75972e-08
-1.26687e-07
-2.73162e-08
-1.30629e-07
-2.70455e-08
-1.34272e-07
-2.67883e-08
-1.37611e-07
-2.65436e-08
-1.40648e-07
-2.63143e-08
-1.43387e-07
-2.60986e-08
-1.45837e-07
-2.5899e-08
-1.48009e-07
-2.57131e-08
-1.49918e-07
-2.5543e-08
-1.51579e-07
-2.5386e-08
-1.53012e-07
-1.54236e-07
-2.52442e-08
-3.21591e-08
-8.62262e-08
3.24399e-08
-3.1855e-08
-9.20407e-08
-3.15332e-08
-9.77037e-08
-3.12006e-08
-1.03184e-07
-3.08603e-08
-1.08456e-07
-3.05181e-08
-1.13494e-07
-3.01761e-08
-1.18279e-07
-2.98393e-08
-1.22793e-07
-2.95085e-08
-1.27021e-07
-2.91881e-08
-1.30954e-07
-2.88781e-08
-1.34585e-07
-2.8582e-08
-1.37911e-07
-2.8299e-08
-1.40934e-07
-2.8032e-08
-1.43658e-07
-2.77795e-08
-1.46093e-07
-2.75439e-08
-1.48249e-07
-2.73231e-08
-1.50141e-07
-2.71193e-08
-1.51787e-07
-2.69296e-08
-1.53204e-07
-1.54412e-07
-2.67564e-08
-3.43579e-08
-8.65369e-08
3.4665e-08
-3.40248e-08
-9.2377e-08
-3.36714e-08
-9.80596e-08
-3.33052e-08
-1.03554e-07
-3.29296e-08
-1.08835e-07
-3.25508e-08
-1.13877e-07
-3.21712e-08
-1.18662e-07
-3.17959e-08
-1.23172e-07
-3.14263e-08
-1.27395e-07
-3.10669e-08
-1.31318e-07
-3.07178e-08
-1.34938e-07
-3.03829e-08
-1.38251e-07
-3.00614e-08
-1.41259e-07
-2.97564e-08
-1.43967e-07
-2.94666e-08
-1.46385e-07
-2.91945e-08
-1.48525e-07
-2.8938e-08
-1.504e-07
-2.86995e-08
-1.52029e-07
-2.84761e-08
-1.53429e-07
-1.54622e-07
-2.82703e-08
-3.65554e-08
-8.68742e-08
3.68876e-08
-3.61934e-08
-9.27427e-08
-3.5809e-08
-9.84472e-08
-3.54096e-08
-1.03958e-07
-3.49993e-08
-1.09249e-07
-3.45842e-08
-1.14297e-07
-3.41674e-08
-1.19083e-07
-3.3754e-08
-1.2359e-07
-3.33459e-08
-1.27807e-07
-3.29475e-08
-1.31721e-07
-3.25594e-08
-1.3533e-07
-3.21854e-08
-1.38629e-07
-3.18252e-08
-1.41622e-07
-3.14817e-08
-1.44315e-07
-3.11541e-08
-1.46716e-07
-3.08446e-08
-1.48838e-07
-3.05517e-08
-1.50696e-07
-3.02774e-08
-1.52307e-07
-3.00193e-08
-1.5369e-07
-1.54865e-07
-2.97797e-08
-3.8748e-08
-8.72365e-08
3.91052e-08
-3.83581e-08
-9.31364e-08
-3.79431e-08
-9.88653e-08
-3.75111e-08
-1.04394e-07
-3.70665e-08
-1.09697e-07
-3.66156e-08
-1.14752e-07
-3.61618e-08
-1.1954e-07
-3.57105e-08
-1.24046e-07
-3.52638e-08
-1.28257e-07
-3.48262e-08
-1.32163e-07
-3.43989e-08
-1.3576e-07
-3.39854e-08
-1.39047e-07
-3.3586e-08
-1.42025e-07
-3.32035e-08
-1.44701e-07
-3.28373e-08
-1.47085e-07
-3.24897e-08
-1.4919e-07
-3.21593e-08
-1.51029e-07
-3.18483e-08
-1.52622e-07
-3.15545e-08
-1.53986e-07
-1.55143e-07
-3.12799e-08
-4.09367e-08
-8.76248e-08
4.13199e-08
-4.05183e-08
-9.3558e-08
-4.00731e-08
-9.93134e-08
-3.96087e-08
-1.04862e-07
-3.91299e-08
-1.10179e-07
-3.86433e-08
-1.15243e-07
-3.81524e-08
-1.20035e-07
-3.76629e-08
-1.2454e-07
-3.71774e-08
-1.28746e-07
-3.67003e-08
-1.32645e-07
-3.62332e-08
-1.36231e-07
-3.57796e-08
-1.39505e-07
-3.53402e-08
-1.42468e-07
-3.49179e-08
-1.45128e-07
-3.45122e-08
-1.47494e-07
-3.41254e-08
-1.4958e-07
-3.37567e-08
-1.51401e-07
-3.34078e-08
-1.52974e-07
-3.3077e-08
-1.5432e-07
-1.55457e-07
-3.27663e-08
-4.3122e-08
-8.80369e-08
4.35313e-08
-4.26762e-08
-9.40067e-08
-4.22005e-08
-9.97915e-08
-4.17033e-08
-1.05363e-07
-4.11899e-08
-1.10695e-07
-4.06669e-08
-1.15769e-07
-4.01385e-08
-1.20567e-07
-3.96101e-08
-1.25072e-07
-3.9085e-08
-1.29275e-07
-3.85676e-08
-1.33166e-07
-3.80599e-08
-1.36742e-07
-3.75654e-08
-1.40003e-07
-3.70851e-08
-1.42952e-07
-3.66218e-08
-1.45595e-07
-3.61756e-08
-1.47944e-07
-3.57486e-08
-1.50011e-07
-3.53402e-08
-1.51812e-07
-3.49521e-08
-1.53366e-07
-3.45832e-08
-1.54691e-07
-1.55809e-07
-3.42349e-08
-4.5311e-08
-8.84766e-08
4.57466e-08
-4.48353e-08
-9.44856e-08
-4.43276e-08
-1.00302e-07
-4.37962e-08
-1.05898e-07
-4.32468e-08
-1.11248e-07
-4.26863e-08
-1.16334e-07
-4.21192e-08
-1.21137e-07
-4.1551e-08
-1.25644e-07
-4.09853e-08
-1.29844e-07
-4.04265e-08
-1.33729e-07
-3.9877e-08
-1.37295e-07
-3.93404e-08
-1.40543e-07
-3.8818e-08
-1.43477e-07
-3.83125e-08
-1.46104e-07
-3.78245e-08
-1.48435e-07
-3.73558e-08
-1.50483e-07
-3.69064e-08
-1.52265e-07
-3.64778e-08
-1.53798e-07
-3.60692e-08
-1.55103e-07
-1.562e-07
-3.56819e-08
-4.75008e-08
-8.89438e-08
4.79637e-08
-4.69943e-08
-9.49953e-08
-4.64534e-08
-1.00846e-07
-4.58864e-08
-1.06468e-07
-4.52999e-08
-1.11838e-07
-4.47006e-08
-1.16937e-07
-4.40937e-08
-1.21748e-07
-4.34844e-08
-1.26257e-07
-4.28768e-08
-1.30455e-07
-4.22753e-08
-1.34334e-07
-4.16828e-08
-1.37891e-07
-4.11027e-08
-1.41127e-07
-4.05368e-08
-1.44046e-07
-3.99877e-08
-1.46657e-07
-3.94563e-08
-1.48969e-07
-3.89445e-08
-1.50998e-07
-3.84525e-08
-1.5276e-07
-3.79817e-08
-1.54272e-07
-3.75319e-08
-1.55555e-07
-1.5663e-07
-3.7104e-08
-4.96879e-08
-8.94395e-08
5.01791e-08
-4.91499e-08
-9.55359e-08
-4.85754e-08
-1.01423e-07
-4.79724e-08
-1.07074e-07
-4.7348e-08
-1.12465e-07
-4.67089e-08
-1.17579e-07
-4.60608e-08
-1.22399e-07
-4.54092e-08
-1.26912e-07
-4.47584e-08
-1.31109e-07
-4.41128e-08
-1.34983e-07
-4.34757e-08
-1.38531e-07
-4.28505e-08
-1.41755e-07
-4.22395e-08
-1.4466e-07
-4.1645e-08
-1.47254e-07
-4.10686e-08
-1.49549e-07
-4.05118e-08
-1.51558e-07
-3.99755e-08
-1.53299e-07
-3.94607e-08
-1.5479e-07
-3.89679e-08
-1.56051e-07
-1.57104e-07
-3.84976e-08
-5.18735e-08
-8.99616e-08
5.23941e-08
-5.13044e-08
-9.61066e-08
-5.06955e-08
-1.02034e-07
-5.00555e-08
-1.07716e-07
-4.93919e-08
-1.13131e-07
-4.87115e-08
-1.18262e-07
-4.80208e-08
-1.23092e-07
-4.7325e-08
-1.27611e-07
-4.66294e-08
-1.31808e-07
-4.59378e-08
-1.35677e-07
-4.52544e-08
-1.39218e-07
-4.45822e-08
-1.42431e-07
-4.39242e-08
-1.45321e-07
-4.32824e-08
-1.47899e-07
-4.2659e-08
-1.50175e-07
-4.20552e-08
-1.52165e-07
-4.14727e-08
-1.53885e-07
-4.09119e-08
-1.55354e-07
-4.03741e-08
-1.56592e-07
-1.57621e-07
-3.98594e-08
-5.40658e-08
-9.05153e-08
5.46169e-08
-5.34625e-08
-9.67118e-08
-5.28169e-08
-1.02681e-07
-5.21375e-08
-1.08397e-07
-5.14327e-08
-1.13839e-07
-5.0709e-08
-1.18988e-07
-4.99736e-08
-1.23831e-07
-4.92317e-08
-1.28355e-07
-4.84891e-08
-1.32553e-07
-4.77495e-08
-1.3642e-07
-4.70177e-08
-1.39953e-07
-4.62963e-08
-1.43155e-07
-4.55891e-08
-1.46032e-07
-4.48978e-08
-1.48593e-07
-4.42252e-08
-1.50851e-07
-4.35723e-08
-1.52821e-07
-4.29412e-08
-1.54519e-07
-4.23323e-08
-1.55966e-07
-4.17473e-08
-1.5718e-07
-1.58185e-07
-4.11861e-08
-5.62629e-08
-9.1101e-08
5.68459e-08
-5.56237e-08
-9.73528e-08
-5.49393e-08
-1.03367e-07
-5.42186e-08
-1.0912e-07
-5.34703e-08
-1.14589e-07
-5.27012e-08
-1.19759e-07
-5.19189e-08
-1.24616e-07
-5.11287e-08
-1.29148e-07
-5.03367e-08
-1.33348e-07
-4.95468e-08
-1.37212e-07
-4.87641e-08
-1.40738e-07
-4.79913e-08
-1.4393e-07
-4.72325e-08
-1.46794e-07
-4.64892e-08
-1.49339e-07
-4.5765e-08
-1.51579e-07
-4.50605e-08
-1.53528e-07
-4.43784e-08
-1.55205e-07
-4.37189e-08
-1.56628e-07
-4.30843e-08
-1.57818e-07
-1.58798e-07
-4.24742e-08
-5.84617e-08
-9.17204e-08
5.90782e-08
-5.77852e-08
-9.80305e-08
-5.70609e-08
-1.04094e-07
-5.62973e-08
-1.09885e-07
-5.55039e-08
-1.15385e-07
-5.46875e-08
-1.20578e-07
-5.38562e-08
-1.2545e-07
-5.30153e-08
-1.29991e-07
-5.21715e-08
-1.34195e-07
-5.13287e-08
-1.38057e-07
-5.04926e-08
-1.41578e-07
-4.96657e-08
-1.4476e-07
-4.88525e-08
-1.4761e-07
-4.80547e-08
-1.5014e-07
-4.7276e-08
-1.52361e-07
-4.65172e-08
-1.5429e-07
-4.57814e-08
-1.55944e-07
-4.50687e-08
-1.57343e-07
-4.43818e-08
-1.58509e-07
-1.59463e-07
-4.37202e-08
-6.06639e-08
-9.2372e-08
6.13154e-08
-5.99499e-08
-9.87451e-08
-5.91839e-08
-1.04861e-07
-5.83756e-08
-1.10695e-07
-5.75347e-08
-1.16228e-07
-5.66685e-08
-1.21446e-07
-5.57856e-08
-1.26335e-07
-5.48913e-08
-1.30888e-07
-5.39929e-08
-1.35096e-07
-5.30945e-08
-1.38958e-07
-5.22019e-08
-1.42474e-07
-5.13179e-08
-1.45647e-07
-5.04475e-08
-1.48484e-07
-4.95921e-08
-1.50998e-07
-4.87561e-08
-1.53201e-07
-4.79399e-08
-1.55109e-07
-4.71475e-08
-1.5674e-07
-4.63786e-08
-1.58115e-07
-4.56367e-08
-1.59255e-07
-1.60182e-07
-4.49207e-08
-6.28765e-08
-9.30618e-08
6.35645e-08
-6.2121e-08
-9.95016e-08
-6.13105e-08
-1.05673e-07
-6.04544e-08
-1.11552e-07
-5.95632e-08
-1.17121e-07
-5.86443e-08
-1.22366e-07
-5.77068e-08
-1.27276e-07
-5.67562e-08
-1.31841e-07
-5.58002e-08
-1.36056e-07
-5.48429e-08
-1.39918e-07
-5.38908e-08
-1.43429e-07
-5.29465e-08
-1.46594e-07
-5.20155e-08
-1.49419e-07
-5.10993e-08
-1.51917e-07
-5.02027e-08
-1.54101e-07
-4.93261e-08
-1.55988e-07
-4.84738e-08
-1.57597e-07
-4.76456e-08
-1.58947e-07
-4.68454e-08
-1.60059e-07
-1.60958e-07
-4.60719e-08
-6.50968e-08
-9.37896e-08
6.58233e-08
-6.42983e-08
-1.00301e-07
-6.34407e-08
-1.06532e-07
-6.2534e-08
-1.1246e-07
-6.15895e-08
-1.18068e-07
-6.06149e-08
-1.23343e-07
-5.96196e-08
-1.28274e-07
-5.86094e-08
-1.32853e-07
-5.75925e-08
-1.37076e-07
-5.65729e-08
-1.4094e-07
-5.55578e-08
-1.44448e-07
-5.45497e-08
-1.47604e-07
-5.35548e-08
-1.50418e-07
-5.25742e-08
-1.529e-07
-5.16135e-08
-1.55066e-07
-5.06729e-08
-1.56932e-07
-4.97573e-08
-1.58516e-07
-4.88662e-08
-1.59841e-07
-4.80042e-08
-1.60926e-07
-1.61795e-07
-4.71699e-08
-6.73233e-08
-9.45585e-08
6.80897e-08
-6.64794e-08
-1.01146e-07
-6.55724e-08
-1.07441e-07
-6.46128e-08
-1.13421e-07
-6.36123e-08
-1.19071e-07
-6.25789e-08
-1.24378e-07
-6.15227e-08
-1.29333e-07
-6.04496e-08
-1.33928e-07
-5.93683e-08
-1.3816e-07
-5.82829e-08
-1.42028e-07
-5.72012e-08
-1.45533e-07
-5.61256e-08
-1.48682e-07
-5.50627e-08
-1.51484e-07
-5.40141e-08
-1.53951e-07
-5.29853e-08
-1.56099e-07
-5.1977e-08
-1.57943e-07
-5.09942e-08
-1.59503e-07
-5.00365e-08
-1.60801e-07
-4.9109e-08
-1.61858e-07
-1.62697e-07
-4.82102e-08
-6.9559e-08
-9.53697e-08
7.0369e-08
-6.86672e-08
-1.02039e-07
-6.77079e-08
-1.08402e-07
-6.66921e-08
-1.14438e-07
-6.56323e-08
-1.20133e-07
-6.45366e-08
-1.25476e-07
-6.34159e-08
-1.30457e-07
-6.2276e-08
-1.3507e-07
-6.11264e-08
-1.39313e-07
-5.99713e-08
-1.43185e-07
-5.88188e-08
-1.46689e-07
-5.76717e-08
-1.49832e-07
-5.65369e-08
-1.52623e-07
-5.5416e-08
-1.55075e-07
-5.43152e-08
-1.57203e-07
-5.32349e-08
-1.59025e-07
-5.21808e-08
-1.60561e-07
-5.11525e-08
-1.61832e-07
-5.01556e-08
-1.62859e-07
-1.63667e-07
-4.91884e-08
-7.18045e-08
-9.62271e-08
7.266e-08
-7.08616e-08
-1.02982e-07
-6.9847e-08
-1.09418e-07
-6.87718e-08
-1.15514e-07
-6.76492e-08
-1.21258e-07
-6.64876e-08
-1.26639e-07
-6.52984e-08
-1.31648e-07
-6.40878e-08
-1.36282e-07
-6.28657e-08
-1.40538e-07
-6.16366e-08
-1.44416e-07
-6.04089e-08
-1.4792e-07
-5.91857e-08
-1.51057e-07
-5.79745e-08
-1.53838e-07
-5.67769e-08
-1.56275e-07
-5.55994e-08
-1.58384e-07
-5.44428e-08
-1.60184e-07
-5.3313e-08
-1.61695e-07
-5.22098e-08
-1.62938e-07
-5.11391e-08
-1.63934e-07
-1.64709e-07
-5.00995e-08
-7.40624e-08
-9.7132e-08
7.4967e-08
-7.30656e-08
-1.03979e-07
-7.1992e-08
-1.10492e-07
-7.08537e-08
-1.16653e-07
-6.96641e-08
-1.22449e-07
-6.84324e-08
-1.27871e-07
-6.71703e-08
-1.32913e-07
-6.58845e-08
-1.3757e-07
-6.45852e-08
-1.4184e-07
-6.32773e-08
-1.45725e-07
-6.19698e-08
-1.4923e-07
-6.06658e-08
-1.52363e-07
-5.93732e-08
-1.55133e-07
-5.80939e-08
-1.57556e-07
-5.68349e-08
-1.59647e-07
-5.55971e-08
-1.61424e-07
-5.43869e-08
-1.62909e-07
-5.32041e-08
-1.64123e-07
-5.2055e-08
-1.65087e-07
-1.65828e-07
-5.09384e-08
-7.63334e-08
-9.80887e-08
7.72891e-08
-7.5279e-08
-1.05034e-07
-7.41429e-08
-1.11629e-07
-7.29375e-08
-1.17859e-07
-7.16769e-08
-1.23711e-07
-7.03707e-08
-1.29178e-07
-6.90311e-08
-1.34254e-07
-6.76653e-08
-1.38937e-07
-6.6284e-08
-1.43224e-07
-6.48923e-08
-1.47118e-07
-6.34996e-08
-1.50626e-07
-6.21096e-08
-1.53754e-07
-6.07303e-08
-1.56516e-07
-5.93642e-08
-1.58924e-07
-5.80183e-08
-1.60996e-07
-5.66941e-08
-1.6275e-07
-5.5398e-08
-1.64209e-07
-5.41305e-08
-1.65392e-07
-5.28979e-08
-1.66324e-07
-1.67028e-07
-5.16993e-08
-7.86195e-08
-9.90989e-08
7.96303e-08
-7.75044e-08
-1.06148e-07
-7.63017e-08
-1.12832e-07
-7.5025e-08
-1.19136e-07
-7.36887e-08
-1.25049e-07
-7.23031e-08
-1.30564e-07
-7.0881e-08
-1.35678e-07
-6.943e-08
-1.40388e-07
-6.79611e-08
-1.44695e-07
-6.64802e-08
-1.486e-07
-6.49968e-08
-1.52112e-07
-6.35151e-08
-1.55237e-07
-6.20435e-08
-1.5799e-07
-6.05846e-08
-1.60384e-07
-5.91462e-08
-1.62437e-07
-5.77298e-08
-1.64168e-07
-5.63423e-08
-1.65599e-07
-5.49843e-08
-1.66752e-07
-5.36628e-08
-1.67649e-07
-1.68316e-07
-5.23768e-08
-8.09221e-08
-1.00167e-07
8.19905e-08
-7.97421e-08
-1.07328e-07
-7.84688e-08
-1.14105e-07
-7.71162e-08
-1.20488e-07
-7.56994e-08
-1.26466e-07
-7.42294e-08
-1.32034e-07
-7.27194e-08
-1.3719e-07
-7.11776e-08
-1.41931e-07
-6.96155e-08
-1.46259e-07
-6.80394e-08
-1.50177e-07
-6.64593e-08
-1.53694e-07
-6.48797e-08
-1.56818e-07
-6.33095e-08
-1.59562e-07
-6.17518e-08
-1.61943e-07
-6.02145e-08
-1.63977e-07
-5.86997e-08
-1.65685e-07
-5.72146e-08
-1.67087e-07
-5.57602e-08
-1.68208e-07
-5.43435e-08
-1.69069e-07
-1.69697e-07
-5.29645e-08
-8.32439e-08
-1.01296e-07
8.43742e-08
-8.19952e-08
-1.08575e-07
-8.06465e-08
-1.15453e-07
-7.9213e-08
-1.21921e-07
-7.77104e-08
-1.27969e-07
-7.61503e-08
-1.33594e-07
-7.45464e-08
-1.38795e-07
-7.29078e-08
-1.4357e-07
-7.12462e-08
-1.47922e-07
-6.95685e-08
-1.51856e-07
-6.7885e-08
-1.55379e-07
-6.6201e-08
-1.58503e-07
-6.45255e-08
-1.6124e-07
-6.28622e-08
-1.63607e-07
-6.12193e-08
-1.65622e-07
-5.95994e-08
-1.67306e-07
-5.80099e-08
-1.68679e-07
-5.64524e-08
-1.69766e-07
-5.49343e-08
-1.7059e-07
-1.71176e-07
-5.34558e-08
-8.5586e-08
-1.02491e-07
8.67815e-08
-8.42639e-08
-1.09896e-07
-8.28351e-08
-1.16882e-07
-8.13155e-08
-1.2344e-07
-7.97214e-08
-1.29564e-07
-7.80654e-08
-1.3525e-07
-7.63615e-08
-1.405e-07
-7.46195e-08
-1.45312e-07
-7.28517e-08
-1.49691e-07
-7.10655e-08
-1.53643e-07
-6.92717e-08
-1.57175e-07
-6.7476e-08
-1.60299e-07
-6.56879e-08
-1.6303e-07
-6.39116e-08
-1.65384e-07
-6.21557e-08
-1.6738e-07
-6.04234e-08
-1.69039e-07
-5.87222e-08
-1.70383e-07
-5.70546e-08
-1.71435e-07
-5.54278e-08
-1.7222e-07
-1.72762e-07
-5.38429e-08
-8.7951e-08
-1.03755e-07
8.92165e-08
-8.65511e-08
-1.11295e-07
-8.5037e-08
-1.18395e-07
-8.34255e-08
-1.2505e-07
-8.17339e-08
-1.31255e-07
-7.99754e-08
-1.37008e-07
-7.81648e-08
-1.42311e-07
-7.63124e-08
-1.47164e-07
-7.4431e-08
-1.51574e-07
-7.25288e-08
-1.55545e-07
-7.06169e-08
-1.59088e-07
-6.87018e-08
-1.62215e-07
-6.67932e-08
-1.6494e-07
-6.4896e-08
-1.67282e-07
-6.30192e-08
-1.69259e-07
-6.11663e-08
-1.70893e-07
-5.93457e-08
-1.72206e-07
-5.756e-08
-1.73222e-07
-5.58171e-08
-1.73965e-07
-1.74462e-07
-5.41184e-08
-9.03406e-08
-1.05093e-07
9.16798e-08
-8.88577e-08
-1.12776e-07
-8.72528e-08
-1.19998e-07
-8.55436e-08
-1.26758e-07
-8.37481e-08
-1.33051e-07
-8.18803e-08
-1.38876e-07
-7.99557e-08
-1.44236e-07
-7.79854e-08
-1.49135e-07
-7.59826e-08
-1.53577e-07
-7.39563e-08
-1.57572e-07
-7.19181e-08
-1.61128e-07
-6.9875e-08
-1.64259e-07
-6.78372e-08
-1.6698e-07
-6.58105e-08
-1.69309e-07
-6.3804e-08
-1.71267e-07
-6.18222e-08
-1.72875e-07
-5.98734e-08
-1.74157e-07
-5.79612e-08
-1.75135e-07
-5.60936e-08
-1.75835e-07
-1.76284e-07
-5.42731e-08
-9.27585e-08
-1.06508e-07
9.41769e-08
-9.11875e-08
-1.14345e-07
-8.94856e-08
-1.21699e-07
-8.76721e-08
-1.2857e-07
-8.57655e-08
-1.34956e-07
-8.3781e-08
-1.40859e-07
-8.17345e-08
-1.46283e-07
-7.9638e-08
-1.51231e-07
-7.75053e-08
-1.55711e-07
-7.53461e-08
-1.59731e-07
-7.31725e-08
-1.63302e-07
-7.09923e-08
-1.66439e-07
-6.88162e-08
-1.69157e-07
-6.66505e-08
-1.71475e-07
-6.45049e-08
-1.73414e-07
-6.23846e-08
-1.74996e-07
-6.02984e-08
-1.76244e-07
-5.82505e-08
-1.77183e-07
-5.62493e-08
-1.77838e-07
-1.78235e-07
-5.4298e-08
-9.52068e-08
-1.08008e-07
9.67088e-08
-9.35415e-08
-1.16008e-07
-9.17365e-08
-1.23502e-07
-8.98117e-08
-1.30494e-07
-8.77868e-08
-1.36981e-07
-8.56776e-08
-1.42968e-07
-8.35009e-08
-1.4846e-07
-8.12694e-08
-1.53462e-07
-7.89976e-08
-1.57983e-07
-7.6696e-08
-1.62032e-07
-7.43773e-08
-1.65622e-07
-7.20499e-08
-1.68767e-07
-6.97252e-08
-1.71483e-07
-6.74104e-08
-1.73791e-07
-6.51153e-08
-1.75711e-07
-6.28463e-08
-1.77266e-07
-6.06123e-08
-1.7848e-07
-5.84187e-08
-1.79378e-07
-5.62739e-08
-1.79985e-07
-1.80328e-07
-5.41822e-08
-9.76889e-08
-1.09597e-07
9.92804e-08
-9.59236e-08
-1.17771e-07
-9.40085e-08
-1.25415e-07
-9.19652e-08
-1.32535e-07
-8.98137e-08
-1.39131e-07
-8.75713e-08
-1.45209e-07
-8.52552e-08
-1.50775e-07
-8.28792e-08
-1.55837e-07
-8.04584e-08
-1.60404e-07
-7.80041e-08
-1.64486e-07
-7.55295e-08
-1.68097e-07
-7.30442e-08
-1.71252e-07
-7.05599e-08
-1.73968e-07
-6.80846e-08
-1.76266e-07
-6.5629e-08
-1.78167e-07
-6.31999e-08
-1.79695e-07
-6.08072e-08
-1.80874e-07
-5.84567e-08
-1.81729e-07
-5.61576e-08
-1.82286e-07
-1.82571e-07
-5.3915e-08
-1.00208e-07
-1.1128e-07
1.01894e-07
-9.83355e-08
-1.19641e-07
-9.63035e-08
-1.27445e-07
-9.41337e-08
-1.34703e-07
-9.18473e-08
-1.41417e-07
-8.94625e-08
-1.47593e-07
-8.69974e-08
-1.5324e-07
-8.44666e-08
-1.58368e-07
-8.1886e-08
-1.62985e-07
-7.92679e-08
-1.67104e-07
-7.6626e-08
-1.7074e-07
-7.39709e-08
-1.73907e-07
-7.13148e-08
-1.76625e-07
-6.86669e-08
-1.78914e-07
-6.60383e-08
-1.80797e-07
-6.3437e-08
-1.82297e-07
-6.0873e-08
-1.83439e-07
-5.83537e-08
-1.84249e-07
-5.58882e-08
-1.84753e-07
-1.84977e-07
-5.34832e-08
-1.02767e-07
-1.13064e-07
1.04555e-07
-1.00782e-07
-1.21623e-07
-9.86253e-08
-1.29599e-07
-9.63205e-08
-1.37006e-07
-9.389e-08
-1.43846e-07
-9.13529e-08
-1.50129e-07
-8.87282e-08
-1.55865e-07
-8.60315e-08
-1.61064e-07
-8.32795e-08
-1.65737e-07
-8.04852e-08
-1.69898e-07
-7.76634e-08
-1.73562e-07
-7.48255e-08
-1.76745e-07
-7.19846e-08
-1.79467e-07
-6.91506e-08
-1.81748e-07
-6.63356e-08
-1.83613e-07
-6.35484e-08
-1.85084e-07
-6.07999e-08
-1.86188e-07
-5.80983e-08
-1.86951e-07
-5.54536e-08
-1.87398e-07
-1.87558e-07
-5.28734e-08
-1.05372e-07
-1.14955e-07
1.07266e-07
-1.03265e-07
-1.23726e-07
-1.00976e-07
-1.31886e-07
-9.85274e-08
-1.39452e-07
-9.59433e-08
-1.46428e-07
-9.32435e-08
-1.52827e-07
-9.0448e-08
-1.5866e-07
-8.75734e-08
-1.63937e-07
-8.46373e-08
-1.68673e-07
-8.16537e-08
-1.72882e-07
-7.86382e-08
-1.76578e-07
-7.56034e-08
-1.7978e-07
-7.25629e-08
-1.82508e-07
-6.95282e-08
-1.84783e-07
-6.65116e-08
-1.8663e-07
-6.35237e-08
-1.88073e-07
-6.05757e-08
-1.89137e-07
-5.76773e-08
-1.8985e-07
-5.48389e-08
-1.90238e-07
-1.90328e-07
-5.20695e-08
-1.08024e-07
-1.16959e-07
1.10033e-07
-1.0579e-07
-1.25957e-07
-1.0336e-07
-1.34314e-07
-1.00758e-07
-1.42051e-07
-9.80101e-08
-1.49175e-07
-9.51362e-08
-1.55699e-07
-9.21578e-08
-1.61637e-07
-8.90923e-08
-1.67002e-07
-8.59583e-08
-1.71807e-07
-8.27708e-08
-1.76069e-07
-7.95466e-08
-1.79802e-07
-7.62991e-08
-1.83027e-07
-7.30432e-08
-1.85764e-07
-6.97913e-08
-1.88035e-07
-6.65569e-08
-1.89865e-07
-6.33516e-08
-1.91279e-07
-6.01878e-08
-1.92302e-07
-5.70764e-08
-1.92962e-07
-5.40284e-08
-1.93287e-07
-1.93303e-07
-5.10545e-08
-1.1073e-07
-1.19084e-07
1.12859e-07
-1.08361e-07
-1.28324e-07
-1.0578e-07
-1.36892e-07
-1.03016e-07
-1.44813e-07
-1.00093e-07
-1.52097e-07
-9.70329e-08
-1.58758e-07
-9.38585e-08
-1.64811e-07
-9.05879e-08
-1.70272e-07
-8.7241e-08
-1.75154e-07
-8.38338e-08
-1.79475e-07
-8.03841e-08
-1.83252e-07
-7.69066e-08
-1.86505e-07
-7.34175e-08
-1.89254e-07
-6.99303e-08
-1.91523e-07
-6.64597e-08
-1.93336e-07
-6.30189e-08
-1.9472e-07
-5.96209e-08
-1.95701e-07
-5.62784e-08
-1.96306e-07
-5.30033e-08
-1.96563e-07
-1.965e-07
-4.98077e-08
-1.13496e-07
-1.21336e-07
1.15752e-07
-1.10982e-07
-1.30834e-07
-1.08243e-07
-1.39628e-07
-1.05305e-07
-1.47748e-07
-1.02195e-07
-1.55205e-07
-9.89362e-08
-1.62015e-07
-9.55516e-08
-1.68195e-07
-9.20604e-08
-1.73762e-07
-8.8484e-08
-1.78731e-07
-8.48393e-08
-1.8312e-07
-8.11458e-08
-1.86946e-07
-7.74191e-08
-1.90232e-07
-7.3677e-08
-1.92997e-07
-6.99343e-08
-1.95266e-07
-6.62072e-08
-1.97065e-07
-6.25102e-08
-1.98418e-07
-5.88579e-08
-1.99354e-07
-5.52644e-08
-1.99901e-07
-5.17427e-08
-2.00086e-07
-1.99937e-07
-4.83067e-08
-1.16326e-07
-1.23723e-07
1.18717e-07
-1.1366e-07
-1.33496e-07
-1.10752e-07
-1.42533e-07
-1.0763e-07
-1.50868e-07
-1.04321e-07
-1.58512e-07
-1.00849e-07
-1.65486e-07
-9.72383e-08
-1.71806e-07
-9.35095e-08
-1.7749e-07
-8.96852e-08
-1.82556e-07
-8.57835e-08
-1.87021e-07
-8.18254e-08
-1.90906e-07
-7.7828e-08
-1.9423e-07
-7.38106e-08
-1.97016e-07
-6.97897e-08
-1.99288e-07
-6.57831e-08
-2.01073e-07
-6.18071e-08
-2.02396e-07
-5.78777e-08
-2.03285e-07
-5.40109e-08
-2.0377e-07
-5.02209e-08
-2.03877e-07
-2.03637e-07
-4.65237e-08
-1.19226e-07
-1.26251e-07
1.21759e-07
-1.164e-07
-1.36318e-07
-1.13314e-07
-1.45617e-07
-1.09995e-07
-1.54184e-07
-1.06474e-07
-1.62033e-07
-1.02773e-07
-1.69184e-07
-9.89201e-08
-1.75659e-07
-9.49346e-08
-1.81475e-07
-9.08421e-08
-1.86649e-07
-8.66613e-08
-1.91202e-07
-8.24154e-08
-1.95153e-07
-7.81228e-08
-1.98523e-07
-7.38051e-08
-2.01335e-07
-6.94804e-08
-2.03614e-07
-6.51685e-08
-2.05386e-07
-6.08877e-08
-2.06679e-07
-5.66557e-08
-2.07519e-07
-5.24907e-08
-2.07937e-07
-4.84084e-08
-2.07961e-07
-2.07621e-07
-4.44268e-08
-1.22205e-07
-1.28929e-07
1.24887e-07
-1.19209e-07
-1.3931e-07
-1.15935e-07
-1.4889e-07
-1.12407e-07
-1.57708e-07
-1.08659e-07
-1.6578e-07
-1.04713e-07
-1.73129e-07
-1.00598e-07
-1.79775e-07
-9.63344e-08
-1.85737e-07
-9.19505e-08
-1.91035e-07
-8.74656e-08
-1.95688e-07
-8.29055e-08
-1.99715e-07
-7.82901e-08
-2.0314e-07
-7.36434e-08
-2.05985e-07
-6.89857e-08
-2.08274e-07
-6.43391e-08
-2.10036e-07
-5.97241e-08
-2.11297e-07
-5.51608e-08
-2.12085e-07
-5.06697e-08
-2.12432e-07
-4.6268e-08
-2.12366e-07
-2.11916e-07
-4.19766e-08
-1.25268e-07
-1.31762e-07
1.28106e-07
-1.22094e-07
-1.4248e-07
-1.1862e-07
-1.52362e-07
-1.14871e-07
-1.61454e-07
-1.1088e-07
-1.69771e-07
-1.0667e-07
-1.77337e-07
-1.02272e-07
-1.84174e-07
-9.77066e-08
-1.90302e-07
-9.30049e-08
-1.95739e-07
-8.81873e-08
-2.00506e-07
-8.32827e-08
-2.04623e-07
-7.83125e-08
-2.08112e-07
-7.3304e-08
-2.10997e-07
-6.82797e-08
-2.13302e-07
-6.32646e-08
-2.15054e-07
-5.82822e-08
-2.16283e-07
-5.33548e-08
-2.17016e-07
-4.85061e-08
-2.17285e-07
-4.37551e-08
-2.1712e-07
-2.1655e-07
-3.91256e-08
-1.28425e-07
-1.3476e-07
1.31426e-07
-1.25064e-07
-1.45836e-07
-1.21379e-07
-1.56046e-07
-1.17394e-07
-1.65437e-07
-1.13142e-07
-1.74024e-07
-1.08646e-07
-1.81831e-07
-1.03941e-07
-1.88882e-07
-9.90467e-08
-1.95196e-07
-9.3997e-08
-2.00792e-07
-8.88137e-08
-2.05691e-07
-8.35294e-08
-2.09912e-07
-7.81674e-08
-2.13477e-07
-7.2759e-08
-2.1641e-07
-6.7329e-08
-2.18735e-07
-6.19066e-08
-2.20481e-07
-5.65181e-08
-2.21676e-07
-5.11893e-08
-2.2235e-07
-4.59471e-08
-2.22533e-07
-4.08129e-08
-2.22258e-07
-2.21555e-07
-3.58141e-08
-1.31682e-07
-1.37926e-07
1.34853e-07
-1.28126e-07
-1.49388e-07
-1.24219e-07
-1.59953e-07
-1.19981e-07
-1.69671e-07
-1.1545e-07
-1.78557e-07
-1.10645e-07
-1.86634e-07
-1.05604e-07
-1.93926e-07
-1.00348e-07
-2.00451e-07
-9.49153e-08
-2.0623e-07
-8.93278e-08
-2.1128e-07
-8.36228e-08
-2.15622e-07
-7.78259e-08
-2.19277e-07
-7.19729e-08
-2.22268e-07
-6.6092e-08
-2.24621e-07
-6.02168e-08
-2.26362e-07
-5.43775e-08
-2.27521e-07
-4.8604e-08
-2.28129e-07
-4.29274e-08
-2.28216e-07
-3.7372e-08
-2.27818e-07
-2.26966e-07
-3.19689e-08
-1.35052e-07
-1.41268e-07
1.38398e-07
-1.31291e-07
-1.53143e-07
-1.27149e-07
-1.64096e-07
-1.22641e-07
-1.74175e-07
-1.17806e-07
-1.83393e-07
-1.12664e-07
-1.91774e-07
-1.07255e-07
-1.99339e-07
-1.01601e-07
-2.06105e-07
-9.57432e-08
-2.12093e-07
-8.97064e-08
-2.17318e-07
-8.35326e-08
-2.21802e-07
-7.72502e-08
-2.25563e-07
-7.09004e-08
-2.28624e-07
-6.45153e-08
-2.31011e-07
-5.81341e-08
-2.3275e-07
-5.17918e-08
-2.3387e-07
-4.55234e-08
-2.34403e-07
-3.93649e-08
-2.34383e-07
-3.33447e-08
-2.33844e-07
-2.32821e-07
-2.74983e-08
-1.38544e-07
-1.44789e-07
1.42069e-07
-1.34569e-07
-1.57112e-07
-1.30177e-07
-1.6849e-07
-1.25378e-07
-1.7897e-07
-1.20213e-07
-1.88562e-07
-1.147e-07
-1.97285e-07
-1.08884e-07
-2.05159e-07
-1.02787e-07
-2.12202e-07
-9.64558e-08
-2.1843e-07
-8.99167e-08
-2.23859e-07
-8.32181e-08
-2.28507e-07