/*--------------------------------*- C++ -*----------------------------------*\
  =========                 |
  \\      /  F ield         | OpenFOAM: The Open Source CFD Toolbox
   \\    /   O peration     | Website:  https://openfoam.org
    \\  /    A nd           | Version:  6
     \\/     M anipulation  |
\*---------------------------------------------------------------------------*/
FoamFile
{
    version     2.0;
    format      ascii;
    class       surfaceScalarField;
    location    "27";
    object      phi;
}
// * * * * * * * * * * * * * * * * * * * * * * * * * * * * * * * * * * * * * //

dimensions      [0 3 -1 0 0 0 0];

internalField   nonuniform List<scalar> 
19400
(
-2.34628e-10
-7.69428e-07
-4.88501e-10
-1.0313e-06
-7.12474e-10
-1.16257e-06
-7.85206e-10
-1.25377e-06
-7.39366e-10
-1.31731e-06
-6.5827e-10
-1.35991e-06
-5.90405e-10
-1.38711e-06
-5.31591e-10
-1.40359e-06
-4.66453e-10
-1.41272e-06
-3.82285e-10
-1.41648e-06
-2.74874e-10
-1.41584e-06
-1.30764e-10
-1.41083e-06
3.77887e-11
-1.40057e-06
2.29012e-10
-1.38318e-06
3.94125e-10
-1.3555e-06
4.78156e-10
-1.31313e-06
4.14082e-10
-1.25044e-06
2.03075e-10
-1.16034e-06
-5.08549e-11
-1.03018e-06
-7.69266e-07
7.85399e-11
-7.69507e-07
-7.21216e-11
-1.03117e-06
-1.87109e-10
-1.16245e-06
-2.91929e-10
-1.25367e-06
-3.57528e-10
-1.31723e-06
-4.13572e-10
-1.35986e-06
-4.51542e-10
-1.38707e-06
-4.70564e-10
-1.40357e-06
-4.70741e-10
-1.41272e-06
-4.6105e-10
-1.41649e-06
-4.34906e-10
-1.41587e-06
-3.83334e-10
-1.41088e-06
-3.11896e-10
-1.40064e-06
-2.35716e-10
-1.38325e-06
-1.84469e-10
-1.35556e-06
-1.65446e-10
-1.31315e-06
-1.47879e-10
-1.25046e-06
-1.36277e-10
-1.16035e-06
-2.10482e-10
-1.0301e-06
-7.69476e-07
5.47813e-11
-7.69564e-07
-3.54381e-11
-1.0311e-06
-1.04045e-10
-1.16238e-06
-1.46733e-10
-1.25364e-06
-1.83412e-10
-1.3172e-06
-2.68489e-10
-1.35977e-06
-3.51861e-10
-1.38698e-06
-4.10549e-10
-1.40351e-06
-4.55425e-10
-1.41267e-06
-4.83695e-10
-1.41646e-06
-5.0113e-10
-1.41585e-06
-4.91813e-10
-1.41088e-06
-4.58307e-10
-1.40067e-06
-4.03038e-10
-1.3833e-06
-3.39441e-10
-1.35562e-06
-2.7906e-10
-1.31321e-06
-2.12897e-10
-1.25052e-06
-1.42077e-10
-1.16042e-06
-7.69604e-11
-1.03016e-06
-7.69553e-07
9.81822e-11
-7.69671e-07
9.23089e-11
-1.03112e-06
7.01167e-11
-1.16236e-06
4.77792e-11
-1.25363e-06
6.6183e-13
-1.31715e-06
-1.13146e-10
-1.35967e-06
-2.28147e-10
-1.38686e-06
-3.2927e-10
-1.40341e-06
-4.19515e-10
-1.41258e-06
-4.91558e-10
-1.41639e-06
-5.47309e-10
-1.4158e-06
-5.81073e-10
-1.41085e-06
-5.89607e-10
-1.40066e-06
-5.63172e-10
-1.38333e-06
-5.03842e-10
-1.35568e-06
-4.28322e-10
-1.31328e-06
-3.46523e-10
-1.2506e-06
-2.60179e-10
-1.16051e-06
-1.37902e-10
-1.03028e-06
-7.69691e-07
-1.70786e-11
-7.69662e-07
8.80352e-11
-1.03124e-06
1.25601e-10
-1.1624e-06
1.03431e-10
-1.25362e-06
4.72177e-11
-1.31709e-06
-6.45542e-11
-1.35956e-06
-1.80246e-10
-1.38674e-06
-3.00375e-10
-1.40329e-06
-4.10371e-10
-1.41246e-06
-5.07288e-10
-1.41629e-06
-5.84971e-10
-1.41572e-06
-6.46112e-10
-1.41079e-06
-6.82317e-10
-1.40063e-06
-6.78672e-10
-1.38333e-06
-6.20747e-10
-1.35574e-06
-5.15883e-10
-1.31339e-06
-3.99875e-10
-1.25072e-06
-2.76874e-10
-1.16063e-06
-6.61168e-11
-1.0305e-06
-7.69758e-07
2.55975e-11
-7.69694e-07
1.35087e-10
-1.03136e-06
1.74713e-10
-1.16244e-06
1.28113e-10
-1.25359e-06
3.48378e-11
-1.31699e-06
-9.47819e-11
-1.35943e-06
-2.07514e-10
-1.38663e-06
-3.24895e-10
-1.40317e-06
-4.35708e-10
-1.41235e-06
-5.37662e-10
-1.41619e-06
-6.20116e-10
-1.41563e-06
-6.87673e-10
-1.41072e-06
-7.24741e-10
-1.40059e-06
-7.2021e-10
-1.38334e-06
-6.70894e-10
-1.35579e-06
-5.58794e-10
-1.3135e-06
-4.26095e-10
-1.25086e-06
-2.79739e-10
-1.16078e-06
-5.47086e-11
-1.03072e-06
-7.69812e-07
1.53868e-10
-7.6985e-07
1.98651e-10
-1.03141e-06
2.35663e-10
-1.16248e-06
1.85363e-10
-1.25354e-06
7.66318e-11
-1.31689e-06
-5.88058e-11
-1.3593e-06
-1.79927e-10
-1.3865e-06
-3.05873e-10
-1.40305e-06
-4.28377e-10
-1.41222e-06
-5.38351e-10
-1.41608e-06
-6.26331e-10
-1.41554e-06
-6.96223e-10
-1.41065e-06
-7.33679e-10
-1.40055e-06
-7.3304e-10
-1.38333e-06
-6.93505e-10
-1.35583e-06
-5.85625e-10
-1.31361e-06
-4.29156e-10
-1.25101e-06
-2.56926e-10
-1.16095e-06
-8.50535e-11
-1.03089e-06
-7.69897e-07
2.2026e-10
-7.70069e-07
2.58275e-10
-1.03145e-06
3.08438e-10
-1.16253e-06
2.72404e-10
-1.25351e-06
1.73766e-10
-1.31679e-06
5.3631e-11
-1.35919e-06
-8.48916e-11
-1.38637e-06
-2.34476e-10
-1.4029e-06
-3.80902e-10
-1.41208e-06
-5.12205e-10
-1.41594e-06
-6.18468e-10
-1.41543e-06
-6.93827e-10
-1.41057e-06
-7.37526e-10
-1.4005e-06
-7.45562e-10
-1.38332e-06
-6.98558e-10
-1.35587e-06
-5.84972e-10
-1.31372e-06
-4.34644e-10
-1.25116e-06
-2.64301e-10
-1.16112e-06
-1.37038e-10
-1.03102e-06
-7.70033e-07
1.91337e-10
-7.70257e-07
2.8852e-10
-1.03154e-06
3.57337e-10
-1.1626e-06
3.53708e-10
-1.25351e-06
2.71452e-10
-1.31671e-06
1.45372e-10
-1.35906e-06
-1.33447e-11
-1.38621e-06
-1.88566e-10
-1.40273e-06
-3.58633e-10
-1.41191e-06
-5.12381e-10
-1.41579e-06
-6.42204e-10
-1.41531e-06
-7.3629e-10
-1.41047e-06
-7.96433e-10
-1.40045e-06
-8.14401e-10
-1.38331e-06
-7.65587e-10
-1.35592e-06
-6.51322e-10
-1.31384e-06
-4.90335e-10
-1.25132e-06
-3.1149e-10
-1.1613e-06
-2.18319e-10
-1.03111e-06
-7.7025e-07
1.16421e-10
-7.7037e-07
2.73524e-10
-1.0317e-06
3.48873e-10
-1.16267e-06
3.64877e-10
-1.25352e-06
3.06052e-10
-1.31665e-06
1.78032e-10
-1.35894e-06
6.2092e-12
-1.38604e-06
-1.88957e-10
-1.40254e-06
-3.75993e-10
-1.41172e-06
-5.47745e-10
-1.41562e-06
-6.95079e-10
-1.41516e-06
-8.16635e-10
-1.41035e-06
-8.93784e-10
-1.40037e-06
-9.18048e-10
-1.38328e-06
-8.77548e-10
-1.35596e-06
-7.57283e-10
-1.31396e-06
-5.47833e-10
-1.25153e-06
-3.18315e-10
-1.16152e-06
-1.71078e-10
-1.03125e-06
-7.7042e-07
1.1147e-10
-7.7048e-07
2.80578e-10
-1.03186e-06
3.82514e-10
-1.16277e-06
4.10542e-10
-1.25354e-06
3.62886e-10
-1.3166e-06
2.38954e-10
-1.35881e-06
4.43088e-11
-1.38584e-06
-1.75864e-10
-1.40232e-06
-3.83283e-10
-1.41151e-06
-5.69629e-10
-1.41544e-06
-7.29627e-10
-1.415e-06
-8.64334e-10
-1.41022e-06
-9.48839e-10
-1.40028e-06
-9.74795e-10
-1.38326e-06
-9.30568e-10
-1.356e-06
-7.94621e-10
-1.31409e-06
-5.6826e-10
-1.25175e-06
-3.12621e-10
-1.16177e-06
-5.98665e-11
-1.03149e-06
-7.70479e-07
1.14868e-10
-7.70592e-07
3.01668e-10
-1.03204e-06
4.15531e-10
-1.16289e-06
4.61799e-10
-1.25359e-06
4.21053e-10
-1.31656e-06
2.91158e-10
-1.35868e-06
8.28485e-11
-1.38563e-06
-1.52828e-10
-1.40208e-06
-3.74302e-10
-1.41129e-06
-5.73029e-10
-1.41524e-06
-7.45023e-10
-1.41482e-06
-8.88393e-10
-1.41008e-06
-9.83347e-10
-1.40018e-06
-1.01939e-09
-1.38322e-06
-9.65101e-10
-1.35606e-06
-8.16879e-10
-1.31424e-06
-5.87954e-10
-1.25198e-06
-3.23674e-10
-1.16203e-06
-6.32425e-11
-1.03175e-06
-7.70542e-07
1.19195e-10
-7.70712e-07
3.03662e-10
-1.03222e-06
4.37803e-10
-1.16302e-06
5.28197e-10
-1.25367e-06
5.05686e-10
-1.31654e-06
3.66543e-10
-1.35854e-06
1.50344e-10
-1.38542e-06
-9.70844e-11
-1.40183e-06
-3.39422e-10
-1.41105e-06
-5.64405e-10
-1.41501e-06
-7.60878e-10
-1.41462e-06
-9.22035e-10
-1.40992e-06
-1.0379e-09
-1.40006e-06
-1.0894e-09
-1.38317e-06
-1.03155e-09
-1.35611e-06
-8.62769e-10
-1.3144e-06
-6.0841e-10
-1.25223e-06
-3.21114e-10
-1.16232e-06
-7.98579e-11
-1.03199e-06
-7.70622e-07
9.64284e-11
-7.7081e-07
3.11121e-10
-1.03244e-06
4.93895e-10
-1.16321e-06
6.09714e-10
-1.25379e-06
5.91316e-10
-1.31652e-06
4.39913e-10
-1.35838e-06
2.08712e-10
-1.38518e-06
-4.85611e-11
-1.40157e-06
-3.10646e-10
-1.41078e-06
-5.58453e-10
-1.41476e-06
-7.77492e-10
-1.4144e-06
-9.59641e-10
-1.40973e-06
-1.09385e-09
-1.39993e-06
-1.15616e-09
-1.38311e-06
-1.09284e-09
-1.35617e-06
-9.02516e-10
-1.31459e-06
-6.28607e-10
-1.2525e-06
-3.25146e-10
-1.16262e-06
-7.46252e-11
-1.03224e-06
-7.70697e-07
1.34383e-10
-7.7094e-07
3.60461e-10
-1.03266e-06
5.40108e-10
-1.16338e-06
6.34046e-10
-1.25388e-06
6.13947e-10
-1.31649e-06
4.59799e-10
-1.35822e-06
2.30599e-10
-1.38495e-06
-2.85262e-11
-1.4013e-06
-2.97654e-10
-1.41051e-06
-5.57388e-10
-1.4145e-06
-7.92161e-10
-1.41416e-06
-9.93655e-10
-1.40953e-06
-1.14772e-09
-1.39977e-06
-1.22171e-09
-1.38303e-06
-1.16718e-09
-1.35622e-06
-9.75616e-10
-1.31478e-06
-6.73897e-10
-1.2528e-06
-3.34209e-10
-1.16296e-06
-8.41966e-11
-1.03249e-06
-7.7078e-07
2.12081e-10
-7.71144e-07
4.15029e-10
-1.03287e-06
6.33206e-10
-1.16359e-06
7.37069e-10
-1.25398e-06
7.11417e-10
-1.31646e-06
5.49897e-10
-1.35806e-06
3.10144e-10
-1.38471e-06
3.25288e-11
-1.40102e-06
-2.5425e-10
-1.41022e-06
-5.28929e-10
-1.41422e-06
-7.77125e-10
-1.41391e-06
-9.92916e-10
-1.40931e-06
-1.16056e-09
-1.3996e-06
-1.24576e-09
-1.38294e-06
-1.21175e-09
-1.35626e-06
-1.02472e-09
-1.31497e-06
-7.02754e-10
-1.25312e-06
-3.43216e-10
-1.16332e-06
-5.04693e-11
-1.03278e-06
-7.70828e-07
1.86004e-10
-7.71314e-07
4.45951e-10
-1.03312e-06
6.97348e-10
-1.16383e-06
8.2443e-10
-1.25411e-06
8.01457e-10
-1.31643e-06
6.40307e-10
-1.3579e-06
3.96167e-10
-1.38445e-06
1.0224e-10
-1.40072e-06
-2.03448e-10
-1.40991e-06
-4.92216e-10
-1.41392e-06
-7.63653e-10
-1.41363e-06
-9.9408e-10
-1.40907e-06
-1.16648e-09
-1.39942e-06
-1.24479e-09
-1.38286e-06
-1.20456e-09
-1.35629e-06
-1.02514e-09
-1.31515e-06
-7.29115e-10
-1.25341e-06
-4.09529e-10
-1.16362e-06
-1.15406e-10
-1.03306e-06
-7.7094e-07
2.34118e-10
-7.71533e-07
5.24964e-10
-1.03341e-06
8.04899e-10
-1.1641e-06
9.59679e-10
-1.25426e-06
9.37511e-10
-1.3164e-06
7.66016e-10
-1.35772e-06
5.05562e-10
-1.38419e-06
1.8536e-10
-1.4004e-06
-1.51389e-10
-1.40957e-06
-4.79103e-10
-1.41359e-06
-7.91375e-10
-1.41332e-06
-1.0598e-09
-1.40879e-06
-1.25922e-09
-1.39922e-06
-1.35633e-09
-1.38276e-06
-1.32979e-09
-1.35632e-06
-1.15978e-09
-1.31531e-06
-8.58917e-10
-1.2537e-06
-5.14135e-10
-1.16396e-06
-2.61903e-10
-1.0333e-06
-7.712e-07
2.48775e-10
-7.71772e-07
6.03638e-10
-1.03375e-06
9.34013e-10
-1.16443e-06
1.11653e-09
-1.25444e-06
1.09367e-09
-1.31637e-06
9.17836e-10
-1.35755e-06
6.31494e-10
-1.3839e-06
2.77557e-10
-1.40004e-06
-9.87605e-11
-1.40919e-06
-4.75528e-10
-1.41321e-06
-8.27852e-10
-1.41296e-06
-1.14098e-09
-1.40848e-06
-1.37805e-09
-1.39898e-06
-1.51501e-09
-1.38262e-06
-1.51134e-09
-1.35631e-06
-1.32524e-09
-1.31549e-06
-9.83095e-10
-1.25404e-06
-5.68956e-10
-1.16436e-06
-2.0354e-10
-1.03366e-06
-7.71402e-07
1.86794e-10
-7.71953e-07
6.43745e-10
-1.03419e-06
1.04125e-09
-1.16482e-06
1.25268e-09
-1.25465e-06
1.23765e-09
-1.31636e-06
1.05624e-09
-1.35737e-06
7.50511e-10
-1.38359e-06
3.69502e-10
-1.39966e-06
-4.32311e-11
-1.40877e-06
-4.57212e-10
-1.41279e-06
-8.42239e-10
-1.41257e-06
-1.1839e-09
-1.40814e-06
-1.44558e-09
-1.39871e-06
-1.6033e-09
-1.38246e-06
-1.60102e-09
-1.35631e-06
-1.41588e-09
-1.31567e-06
-1.06601e-09
-1.25438e-06
-6.12972e-10
-1.16481e-06
-1.11239e-10
-1.03415e-06
-7.71514e-07
1.65773e-10
-7.72113e-07
6.9036e-10
-1.0347e-06
1.1178e-09
-1.16525e-06
1.35504e-09
-1.25488e-06
1.35729e-09
-1.31636e-06
1.17361e-09
-1.35718e-06
8.51866e-10
-1.38327e-06
4.48583e-10
-1.39926e-06
7.00902e-12
-1.40832e-06
-4.38828e-10
-1.41234e-06
-8.54314e-10
-1.41215e-06
-1.21976e-09
-1.40777e-06
-1.50158e-09
-1.39842e-06
-1.6646e-09
-1.3823e-06
-1.66017e-09
-1.35631e-06
-1.48291e-09
-1.31584e-06
-1.13077e-09
-1.25473e-06
-6.64637e-10
-1.16528e-06
-1.46027e-10
-1.03467e-06
-7.7166e-07
2.51733e-10
-7.72357e-07
7.77189e-10
-1.03522e-06
1.21338e-09
-1.16568e-06
1.46514e-09
-1.25512e-06
1.47999e-09
-1.31637e-06
1.29674e-09
-1.35699e-06
9.53698e-10
-1.38292e-06
5.2019e-10
-1.39882e-06
5.08193e-11
-1.40785e-06
-4.29225e-10
-1.41186e-06
-8.76833e-10
-1.4117e-06
-1.27306e-09
-1.40737e-06
-1.5852e-09
-1.3981e-06
-1.76908e-09
-1.38211e-06
-1.787e-09
-1.35629e-06
-1.60883e-09
-1.31601e-06
-1.22891e-09
-1.25511e-06
-7.22879e-10
-1.16578e-06
-2.17728e-10
-1.03518e-06
-7.71877e-07
3.36833e-10
-7.72683e-07
8.74642e-10
-1.03575e-06
1.34236e-09
-1.16614e-06
1.60569e-09
-1.25538e-06
1.62446e-09
-1.31638e-06
1.42492e-09
-1.35678e-06
1.06111e-09
-1.38255e-06
6.03613e-10
-1.39836e-06
1.04025e-10
-1.40734e-06
-4.03106e-10
-1.41135e-06
-8.80842e-10
-1.41121e-06
-1.29942e-09
-1.40695e-06
-1.63315e-09
-1.39776e-06
-1.84594e-09
-1.38189e-06
-1.89188e-09
-1.35623e-06
-1.72639e-09
-1.31618e-06
-1.33123e-09
-1.2555e-06
-7.84869e-10
-1.16633e-06
-2.3568e-10
-1.03572e-06
-7.7211e-07
3.78624e-10
-7.73049e-07
9.50917e-10
-1.03631e-06
1.4457e-09
-1.16663e-06
1.73708e-09
-1.25566e-06
1.75956e-09
-1.3164e-06
1.55023e-09
-1.35657e-06
1.18204e-09
-1.38218e-06
7.12734e-10
-1.39788e-06
1.80871e-10
-1.40681e-06
-3.61487e-10
-1.4108e-06
-8.76018e-10
-1.41069e-06
-1.31853e-09
-1.40649e-06
-1.67163e-09
-1.3974e-06
-1.89556e-09
-1.38166e-06
-1.95641e-09
-1.35617e-06
-1.80506e-09
-1.31632e-06
-1.4124e-09
-1.25589e-06
-8.56668e-10
-1.16687e-06
-2.80205e-10
-1.03629e-06
-7.72388e-07
4.32277e-10
-7.7347e-07
1.03393e-09
-1.03691e-06
1.58367e-09
-1.16717e-06
1.91886e-09
-1.25599e-06
1.95588e-09
-1.31643e-06
1.73172e-09
-1.35634e-06
1.34066e-09
-1.38178e-06
8.38754e-10
-1.39737e-06
2.68489e-10
-1.40623e-06
-3.12557e-10
-1.41021e-06
-8.6827e-10
-1.41013e-06
-1.3506e-09
-1.406e-06
-1.738e-09
-1.39701e-06
-1.98804e-09
-1.3814e-06
-2.07436e-09
-1.35608e-06
-1.92884e-09
-1.31647e-06
-1.52547e-09
-1.25628e-06
-9.48653e-10
-1.16744e-06
-3.79773e-10
-1.03684e-06
-7.72765e-07
4.55282e-10
-7.73917e-07
1.12046e-09
-1.03757e-06
1.72275e-09
-1.16776e-06
2.08803e-09
-1.25635e-06
2.1487e-09
-1.31648e-06
1.9165e-09
-1.3561e-06
1.49368e-09
-1.38135e-06
9.52202e-10
-1.39682e-06
3.43562e-10
-1.40562e-06
-2.77596e-10
-1.40958e-06
-8.78428e-10
-1.40953e-06
-1.40941e-09
-1.40546e-06
-1.83687e-09
-1.39658e-06
-2.1286e-09
-1.3811e-06
-2.23112e-09
-1.35597e-06
-2.07837e-09
-1.31661e-06
-1.65675e-09
-1.2567e-06
-1.05545e-09
-1.16803e-06
-4.41964e-10
-1.03744e-06
-7.73205e-07
4.49439e-10
-7.74358e-07
1.17645e-09
-1.03829e-06
1.83166e-09
-1.16841e-06
2.23727e-09
-1.25675e-06
2.3131e-09
-1.31655e-06
2.0846e-09
-1.35587e-06
1.63949e-09
-1.3809e-06
1.05762e-09
-1.39623e-06
4.11101e-10
-1.40497e-06
-2.53441e-10
-1.40891e-06
-9.02796e-10
-1.40888e-06
-1.49008e-09
-1.40487e-06
-1.96959e-09
-1.3961e-06
-2.30148e-09
-1.38076e-06
-2.41604e-09
-1.35585e-06
-2.25439e-09
-1.31677e-06
-1.80197e-09
-1.25714e-06
-1.1453e-09
-1.16868e-06
-4.48355e-10
-1.03813e-06
-7.73653e-07
4.66313e-10
-7.74816e-07
1.24371e-09
-1.03906e-06
1.93074e-09
-1.16909e-06
2.36249e-09
-1.25718e-06
2.45343e-09
-1.31663e-06
2.23228e-09
-1.35564e-06
1.77674e-09
-1.38044e-06
1.16344e-09
-1.39561e-06
4.78994e-10
-1.40427e-06
-2.29954e-10
-1.4082e-06
-9.24277e-10
-1.40817e-06
-1.56284e-09
-1.40423e-06
-2.09111e-09
-1.39556e-06
-2.4553e-09
-1.3804e-06
-2.57749e-09
-1.35572e-06
-2.40836e-09
-1.31693e-06
-1.92562e-09
-1.25762e-06
-1.20527e-09
-1.16939e-06
-4.04066e-10
-1.03893e-06
-7.74057e-07
5.25848e-10
-7.75332e-07
1.3255e-09
-1.03985e-06
2.05582e-09
-1.16981e-06
2.51726e-09
-1.25764e-06
2.62266e-09
-1.31673e-06
2.39615e-09
-1.35541e-06
1.92096e-09
-1.37996e-06
1.28048e-09
-1.39497e-06
5.54707e-10
-1.40354e-06
-1.99142e-10
-1.40744e-06
-9.32243e-10
-1.40743e-06
-1.6097e-09
-1.40355e-06
-2.17492e-09
-1.39499e-06
-2.56161e-09
-1.38001e-06
-2.69023e-09
-1.35558e-06
-2.51236e-09
-1.3171e-06
-2.01447e-09
-1.25811e-06
-1.27107e-09
-1.17014e-06
-4.1066e-10
-1.03979e-06
-7.74467e-07
5.59904e-10
-7.75883e-07
1.41017e-09
-1.04069e-06
2.17656e-09
-1.17057e-06
2.66836e-09
-1.25812e-06
2.79383e-09
-1.31685e-06
2.56793e-09
-1.35517e-06
2.08029e-09
-1.37946e-06
1.41812e-09
-1.3943e-06
6.55454e-10
-1.40277e-06
-1.4516e-10
-1.40663e-06
-9.20849e-10
-1.40665e-06
-1.63362e-09
-1.40283e-06
-2.23087e-09
-1.39439e-06
-2.64285e-09
-1.37959e-06
-2.79335e-09
-1.35543e-06
-2.6196e-09
-1.31727e-06
-2.11118e-09
-1.25862e-06
-1.33787e-09
-1.17091e-06
-4.82664e-10
-1.04065e-06
-7.74949e-07
5.72016e-10
-7.76449e-07
1.46507e-09
-1.04158e-06
2.28605e-09
-1.17139e-06
2.82803e-09
-1.25866e-06
2.9814e-09
-1.317e-06
2.76228e-09
-1.35495e-06
2.25817e-09
-1.37895e-06
1.56844e-09
-1.3936e-06
7.6425e-10
-1.40196e-06
-7.83437e-11
-1.40578e-06
-9.04256e-10
-1.40582e-06
-1.65091e-09
-1.40208e-06
-2.27329e-09
-1.39376e-06
-2.70266e-09
-1.37915e-06
-2.86729e-09
-1.35526e-06
-2.70462e-09
-1.31743e-06
-2.1994e-09
-1.25912e-06
-1.41758e-09
-1.17168e-06
-5.60058e-10
-1.0415e-06
-7.75507e-07
5.29386e-10
-7.76973e-07
1.49119e-09
-1.04254e-06
2.36648e-09
-1.17226e-06
2.94318e-09
-1.25923e-06
3.10848e-09
-1.31716e-06
2.8903e-09
-1.35473e-06
2.37017e-09
-1.37843e-06
1.65171e-09
-1.39288e-06
8.13429e-10
-1.40112e-06
-6.71444e-11
-1.40489e-06
-9.39999e-10
-1.40494e-06
-1.73152e-09
-1.40127e-06
-2.38693e-09
-1.3931e-06
-2.83341e-09
-1.3787e-06
-3.00944e-09
-1.35508e-06
-2.84914e-09
-1.31758e-06
-2.32768e-09
-1.25964e-06
-1.52817e-09
-1.17248e-06
-6.79685e-10
-1.04234e-06
-7.76185e-07
6.19414e-10
-7.77578e-07
1.58621e-09
-1.0435e-06
2.44288e-09
-1.1731e-06
2.99206e-09
-1.25978e-06
3.15778e-09
-1.31732e-06
2.94877e-09
-1.35451e-06
2.43216e-09
-1.37791e-06
1.69983e-09
-1.39214e-06
8.37751e-10
-1.40025e-06
-8.00656e-11
-1.40397e-06
-9.94504e-10
-1.40402e-06
-1.84077e-09
-1.40042e-06
-2.54116e-09
-1.39239e-06
-3.0141e-09
-1.37822e-06
-3.20126e-09
-1.35489e-06
-3.03047e-09
-1.31775e-06
-2.46598e-09
-1.26019e-06
-1.61318e-09
-1.17332e-06
-7.00433e-10
-1.04324e-06
-7.76885e-07
7.77145e-10
-7.78338e-07
1.69442e-09
-1.04441e-06
2.58177e-09
-1.17398e-06
3.15924e-09
-1.26035e-06
3.33782e-09
-1.31749e-06
3.12498e-09
-1.35429e-06
2.58904e-09
-1.37736e-06
1.82584e-09
-1.39137e-06
9.21105e-10
-1.39934e-06
-4.24671e-11
-1.40299e-06
-1.00022e-09
-1.40306e-06
-1.88504e-09
-1.39953e-06
-2.62042e-09
-1.39165e-06
-3.12006e-09
-1.37772e-06
-3.31367e-09
-1.35469e-06
-3.13522e-09
-1.31792e-06
-2.55709e-09
-1.26077e-06
-1.67691e-09
-1.1742e-06
-6.55289e-10
-1.04426e-06
-7.7754e-07
7.26558e-10
-7.79053e-07
1.75218e-09
-1.04542e-06
2.71364e-09
-1.17493e-06
3.35399e-09
-1.26099e-06
3.56296e-09
-1.31769e-06
3.34895e-09
-1.35408e-06
2.78528e-09
-1.3768e-06
1.9796e-09
-1.39056e-06
1.02773e-09
-1.39839e-06
1.77617e-11
-1.40198e-06
-9.85157e-10
-1.40206e-06
-1.90488e-09
-1.3986e-06
-2.67341e-09
-1.39088e-06
-3.20467e-09
-1.37718e-06
-3.4139e-09
-1.35448e-06
-3.22964e-09
-1.31811e-06
-2.64494e-09
-1.26135e-06
-1.74451e-09
-1.1751e-06
-6.93777e-10
-1.04531e-06
-7.78233e-07
6.59606e-10
-7.79707e-07
1.82498e-09
-1.04658e-06
2.82594e-09
-1.17593e-06
3.48357e-09
-1.26164e-06
3.70577e-09
-1.31791e-06
3.48937e-09
-1.35386e-06
2.91124e-09
-1.37621e-06
2.07911e-09
-1.38972e-06
1.09733e-09
-1.3974e-06
5.13931e-11
-1.40093e-06
-9.89582e-10
-1.40101e-06
-1.95052e-09
-1.39764e-06
-2.75934e-09
-1.39007e-06
-3.32505e-09
-1.37661e-06
-3.55066e-09
-1.35425e-06
-3.35811e-09
-1.31829e-06
-2.74168e-09
-1.26197e-06
-1.79445e-09
-1.17605e-06
-7.29001e-10
-1.04637e-06
-7.7896e-07
7.18028e-10
-7.80421e-07
1.89838e-09
-1.04775e-06
2.90986e-09
-1.17694e-06
3.57606e-09
-1.2623e-06
3.80146e-09
-1.31813e-06
3.57892e-09
-1.35363e-06
2.99133e-09
-1.37562e-06
2.14753e-09
-1.38887e-06
1.14425e-09
-1.39639e-06
7.14523e-11
-1.39985e-06
-1.00082e-09
-1.39993e-06
-1.99634e-09
-1.39664e-06
-2.83891e-09
-1.38922e-06
-3.43045e-09
-1.37601e-06
-3.66551e-09
-1.35401e-06
-3.46821e-09
-1.31849e-06
-2.82628e-09
-1.2626e-06
-1.84375e-09
-1.17702e-06
-7.29993e-10
-1.04748e-06
-7.79689e-07
8.13038e-10
-7.81228e-07
1.96613e-09
-1.0489e-06
2.99646e-09
-1.17796e-06
3.6799e-09
-1.26298e-06
3.90501e-09
-1.31836e-06
3.67141e-09
-1.35339e-06
3.06658e-09
-1.37501e-06
2.20516e-09
-1.388e-06
1.1795e-09
-1.39536e-06
8.11032e-11
-1.39874e-06
-1.02062e-09
-1.39883e-06
-2.04542e-09
-1.39561e-06
-2.91663e-09
-1.38835e-06
-3.53052e-09
-1.3754e-06
-3.7757e-09
-1.35376e-06
-3.57945e-09
-1.31868e-06
-2.92889e-09
-1.26325e-06
-1.92765e-09
-1.17802e-06
-7.85425e-10
-1.04861e-06
-7.80474e-07
9.11256e-10
-7.82128e-07
2.06752e-09
-1.05005e-06
3.10518e-09
-1.17899e-06
3.7901e-09
-1.26366e-06
4.01046e-09
-1.31857e-06
3.7676e-09
-1.35314e-06
3.14348e-09
-1.37439e-06
2.25422e-09
-1.38711e-06
1.20173e-09
-1.39431e-06
7.30475e-11
-1.39761e-06
-1.06084e-09
-1.39769e-06
-2.1219e-09
-1.39454e-06
-3.02519e-09
-1.38744e-06
-3.66391e-09
-1.37475e-06
-3.92549e-09
-1.35349e-06
-3.72748e-09
-1.31887e-06
-3.06565e-09
-1.26391e-06
-2.04386e-09
-1.17904e-06
-8.77111e-10
-1.04978e-06
-7.81351e-07
9.80891e-10
-7.83097e-07
2.16288e-09
-1.05123e-06
3.2419e-09
-1.18007e-06
3.95738e-09
-1.26437e-06
4.18274e-09
-1.31879e-06
3.9273e-09
-1.35289e-06
3.2725e-09
-1.37373e-06
2.34033e-09
-1.38617e-06
1.24673e-09
-1.39321e-06
7.42165e-11
-1.39643e-06
-1.10365e-09
-1.39651e-06
-2.21288e-09
-1.39343e-06
-3.16299e-09
-1.38649e-06
-3.84044e-09
-1.37407e-06
-4.12893e-09
-1.3532e-06
-3.92885e-09
-1.31907e-06
-3.23549e-09
-1.2646e-06
-2.15563e-09
-1.18012e-06
-9.23166e-10
-1.05101e-06
-7.82274e-07
9.30159e-10
-7.84021e-07
2.22925e-09
-1.05252e-06
3.38723e-09
-1.18122e-06
4.14776e-09
-1.26513e-06
4.37706e-09
-1.31901e-06
4.09917e-09
-1.3526e-06
3.41127e-09
-1.37303e-06
2.44465e-09
-1.3852e-06
1.31495e-09
-1.39208e-06
1.05657e-10
-1.39522e-06
-1.1084e-09
-1.39529e-06
-2.25799e-09
-1.39228e-06
-3.249e-09
-1.38549e-06
-3.96836e-09
-1.37335e-06
-4.28708e-09
-1.35288e-06
-4.09507e-09
-1.31926e-06
-3.37122e-09
-1.26532e-06
-2.2141e-09
-1.18127e-06
-8.62393e-10
-1.05236e-06
-7.83136e-07
8.95648e-10
-7.84913e-07
2.29592e-09
-1.05391e-06
3.48661e-09
-1.1824e-06
4.256e-09
-1.26589e-06
4.48325e-09
-1.31924e-06
4.19692e-09
-1.35231e-06
3.49929e-09
-1.37233e-06
2.52275e-09
-1.38422e-06
1.3749e-09
-1.39092e-06
1.48698e-10
-1.39399e-06
-1.08528e-09
-1.39405e-06
-2.24663e-09
-1.39111e-06
-3.24929e-09
-1.38449e-06
-3.97915e-09
-1.37262e-06
-4.30742e-09
-1.35255e-06
-4.13222e-09
-1.31943e-06
-3.42509e-09
-1.26603e-06
-2.2709e-09
-1.18242e-06
-8.70856e-10
-1.05376e-06
-7.84005e-07
9.47136e-10
-7.85858e-07
2.35086e-09
-1.05531e-06
3.5839e-09
-1.18363e-06
4.36871e-09
-1.26667e-06
4.58424e-09
-1.31945e-06
4.27703e-09
-1.352e-06
3.56187e-09
-1.37161e-06
2.56865e-09
-1.38322e-06
1.40275e-09
-1.38976e-06
1.56542e-10
-1.39274e-06
-1.09975e-09
-1.39279e-06
-2.27784e-09
-1.38992e-06
-3.2983e-09
-1.38346e-06
-4.04093e-09
-1.37187e-06
-4.38627e-09
-1.3522e-06
-4.22472e-09
-1.31959e-06
-3.52379e-09
-1.26673e-06
-2.37869e-09
-1.18356e-06
-1.06447e-09
-1.05507e-06
-7.85069e-07
1.00333e-09
-7.86856e-07
2.42271e-09
-1.05673e-06
3.66818e-09
-1.18487e-06
4.44715e-09
-1.26744e-06
4.6521e-09
-1.31965e-06
4.32758e-09
-1.35167e-06
3.59785e-09
-1.37088e-06
2.58639e-09
-1.38221e-06
1.39843e-09
-1.38857e-06
1.22703e-10
-1.39146e-06
-1.16568e-09
-1.39151e-06
-2.38047e-09
-1.3887e-06
-3.4377e-09
-1.38241e-06
-4.21367e-09
-1.37109e-06
-4.58219e-09
-1.35183e-06
-4.42461e-09
-1.31975e-06
-3.69166e-09
-1.26745e-06
-2.50378e-09
-1.18475e-06
-1.18782e-09
-1.05638e-06
-7.86255e-07
1.11378e-09
-7.87963e-07
2.5338e-09
-1.05814e-06
3.79415e-09
-1.18613e-06
4.572e-09
-1.26822e-06
4.76612e-09
-1.31984e-06
4.42374e-09
-1.35132e-06
3.67038e-09
-1.37013e-06
2.63171e-09
-1.38117e-06
1.41007e-09
-1.38734e-06
9.54807e-11
-1.39014e-06
-1.23404e-09
-1.39017e-06
-2.49519e-09
-1.38744e-06
-3.5935e-09
-1.38131e-06
-4.40599e-09
-1.37027e-06
-4.7921e-09
-1.35144e-06
-4.6301e-09
-1.31991e-06
-3.85916e-09
-1.26822e-06
-2.60505e-09
-1.186e-06
-1.16366e-09
-1.05781e-06
-7.87419e-07
1.15571e-09
-7.89112e-07
2.64253e-09
-1.05963e-06
3.95401e-09
-1.18744e-06
4.75366e-09
-1.26902e-06
4.94064e-09
-1.32002e-06
4.57491e-09
-1.35096e-06
3.78949e-09
-1.36934e-06
2.71502e-09
-1.38009e-06
1.45336e-09
-1.38608e-06
9.61348e-11
-1.38878e-06
-1.27513e-09
-1.3888e-06
-2.57766e-09
-1.38614e-06
-3.71123e-09
-1.38017e-06
-4.55351e-09
-1.36943e-06
-4.9553e-09
-1.35104e-06
-4.78872e-09
-1.32007e-06
-3.99509e-09
-1.26901e-06
-2.68484e-09
-1.18731e-06
-1.1225e-09
-1.05937e-06
-7.88541e-07
1.12637e-09
-7.90233e-07
2.72011e-09
-1.06121e-06
4.08047e-09
-1.18879e-06
4.90214e-09
-1.26983e-06
5.08877e-09
-1.32021e-06
4.71072e-09
-1.35058e-06
3.90348e-09
-1.36853e-06
2.79688e-09
-1.37898e-06
1.49866e-09
-1.38478e-06
1.03391e-10
-1.38738e-06
-1.30268e-09
-1.38739e-06
-2.63594e-09
-1.3848e-06
-3.79385e-09
-1.37901e-06
-4.65726e-09
-1.36857e-06
-5.0763e-09
-1.35062e-06
-4.91436e-09
-1.32023e-06
-4.10886e-09
-1.26982e-06
-2.76102e-09
-1.18865e-06
-1.1495e-09
-1.06098e-06
-7.89689e-07
1.15239e-09
-7.91382e-07
2.8058e-09
-1.06286e-06
4.20793e-09
-1.19019e-06
5.03931e-09
-1.27066e-06
5.20917e-09
-1.32037e-06
4.80945e-09
-1.35017e-06
3.98079e-09
-1.3677e-06
2.84824e-09
-1.37785e-06
1.52303e-09
-1.38345e-06
9.81322e-11
-1.38596e-06
-1.33477e-09
-1.38596e-06
-2.69254e-09
-1.38344e-06
-3.87298e-09
-1.37783e-06
-4.75819e-09
-1.36768e-06
-5.1984e-09
-1.35018e-06
-5.04063e-09
-1.32039e-06
-4.21091e-09
-1.27065e-06
-2.81719e-09
-1.19004e-06
-1.19026e-09
-1.06261e-06
-7.90878e-07
1.26271e-09
-7.92639e-07
2.93782e-09
-1.06453e-06
4.34859e-09
-1.1916e-06
5.16679e-09
-1.27147e-06
5.31174e-09
-1.32052e-06
4.8843e-09
-1.34974e-06
4.03374e-09
-1.36684e-06
2.88228e-09
-1.37669e-06
1.53467e-09
-1.3821e-06
8.76743e-11
-1.38451e-06
-1.37039e-09
-1.3845e-06
-2.74813e-09
-1.38206e-06
-3.94715e-09
-1.37663e-06
-4.84906e-09
-1.36678e-06
-5.30429e-09
-1.34972e-06
-5.15486e-09
-1.32053e-06
-4.31615e-09
-1.27148e-06
-2.90153e-09
-1.19145e-06
-1.25057e-09
-1.06425e-06
-7.92126e-07
1.34526e-09
-7.93977e-07
3.03695e-09
-1.06621e-06
4.49969e-09
-1.19306e-06
5.35978e-09
-1.27233e-06
5.50582e-09
-1.32066e-06
5.04819e-09
-1.34928e-06
4.15314e-09
-1.36595e-06
2.95787e-09
-1.3755e-06
1.56604e-09
-1.38071e-06
7.54812e-11
-1.38301e-06
-1.42566e-09
-1.38299e-06
-2.84225e-09
-1.38064e-06
-4.07538e-09
-1.37539e-06
-5.00813e-09
-1.36584e-06
-5.48527e-09
-1.34923e-06
-5.34053e-09
-1.32067e-06
-4.48149e-09
-1.27233e-06
-3.03158e-09
-1.19289e-06
-1.36743e-09
-1.0659e-06
-7.93493e-07
1.29974e-09
-7.95271e-07
3.09244e-09
-1.068e-06
4.63612e-09
-1.1946e-06
5.56507e-09
-1.27325e-06
5.72928e-09
-1.32082e-06
5.24396e-09
-1.3488e-06
4.29941e-09
-1.365e-06
3.04548e-09
-1.37424e-06
1.59542e-09
-1.37926e-06
4.28629e-11
-1.38146e-06
-1.51458e-09
-1.38143e-06
-2.99015e-09
-1.37917e-06
-4.27403e-09
-1.3741e-06
-5.25228e-09
-1.36486e-06
-5.75758e-09
-1.34873e-06
-5.59994e-09
-1.32083e-06
-4.6897e-09
-1.27324e-06
-3.14944e-09
-1.19443e-06
-1.37994e-09
-1.06767e-06
-7.94873e-07
1.30123e-09
-7.96568e-07
3.19348e-09
-1.06989e-06
4.77296e-09
-1.19617e-06
5.7105e-09
-1.27419e-06
5.86356e-09
-1.32097e-06
5.34915e-09
-1.34828e-06
4.36851e-09
-1.36402e-06
3.07525e-09
-1.37295e-06
1.58673e-09
-1.37777e-06
-8.73083e-12
-1.37987e-06
-1.60885e-09
-1.37983e-06
-3.12899e-09
-1.37765e-06
-4.45383e-09
-1.37277e-06
-5.46703e-09
-1.36385e-06
-5.99594e-09
-1.34819e-06
-5.83156e-09
-1.32099e-06
-4.8826e-09
-1.27418e-06
-3.25451e-09
-1.19605e-06
-1.31688e-09
-1.06961e-06
-7.96189e-07
1.44511e-09
-7.98007e-07
3.33555e-09
-1.07177e-06
4.92392e-09
-1.19776e-06
5.85077e-09
-1.27511e-06
5.98812e-09
-1.32111e-06
5.45156e-09
-1.34774e-06
4.43859e-09
-1.363e-06
3.11252e-09
-1.37162e-06
1.59302e-09
-1.37624e-06
-2.90974e-11
-1.37824e-06
-1.65781e-09
-1.3782e-06
-3.2044e-09
-1.3761e-06
-4.55771e-09
-1.37142e-06
-5.59773e-09
-1.36281e-06
-6.15432e-09
-1.34763e-06
-6.00945e-09
-1.32113e-06
-5.04073e-09
-1.27515e-06
-3.34618e-09
-1.19775e-06
-1.31722e-09
-1.07163e-06
-7.97506e-07
1.54657e-09
-7.99546e-07
3.46256e-09
-1.07368e-06
5.128e-09
-1.19942e-06
6.09977e-09
-1.27608e-06
6.24665e-09
-1.32125e-06
5.68738e-09
-1.34718e-06
4.62175e-09
-1.36193e-06
3.23589e-09
-1.37023e-06
1.65913e-09
-1.37466e-06
-7.04101e-12
-1.37658e-06
-1.67689e-09
-1.37653e-06
-3.25125e-09
-1.37452e-06
-4.63058e-09
-1.37004e-06
-5.68843e-09
-1.36174e-06
-6.25952e-09
-1.34706e-06
-6.1338e-09
-1.32125e-06
-5.16047e-09
-1.27612e-06
-3.4461e-09
-1.19946e-06
-1.40808e-09
-1.07367e-06
-7.98912e-07
1.48271e-09
-8.01019e-07
3.5634e-09
-1.07575e-06
5.34456e-09
-1.2012e-06
6.36775e-09
-1.2771e-06
6.51632e-09
-1.3214e-06
5.92794e-09
-1.34659e-06
4.80924e-09
-1.36081e-06
3.3591e-09
-1.36878e-06
1.72044e-09
-1.37302e-06
-4.54514e-12
-1.37485e-06
-1.72827e-09
-1.3748e-06
-3.35169e-09
-1.3729e-06
-4.77755e-09
-1.36861e-06
-5.87525e-09
-1.36064e-06
-6.47698e-09
-1.34646e-06
-6.36119e-09
-1.32137e-06
-5.36133e-09
-1.27712e-06
-3.59616e-09
-1.20122e-06
-1.55685e-09
-1.0757e-06
-8.00466e-07
1.4746e-09
-8.02484e-07
3.68045e-09
-1.07795e-06
5.51849e-09
-1.20303e-06
6.55224e-09
-1.27813e-06
6.68606e-09
-1.32153e-06
6.07012e-09
-1.34597e-06
4.91836e-09
-1.35966e-06
3.42161e-09
-1.36728e-06
1.73395e-09
-1.37133e-06
-4.44327e-11
-1.37307e-06
-1.82233e-09
-1.37302e-06
-3.50658e-09
-1.37121e-06
-4.99373e-09
-1.36712e-06
-6.14639e-09
-1.35949e-06
-6.77468e-09
-1.34583e-06
-6.64954e-09
-1.32149e-06
-5.60026e-09
-1.27816e-06
-3.74076e-09
-1.20306e-06
-1.58718e-09
-1.07784e-06
-8.02051e-07
1.56612e-09
-8.04041e-07
3.79711e-09
-1.08017e-06
5.70405e-09
-1.20493e-06
6.77571e-09
-1.2792e-06
6.90529e-09
-1.32165e-06
6.25081e-09
-1.34531e-06
5.05e-09
-1.35846e-06
3.50171e-09
-1.36573e-06
1.75794e-09
-1.36959e-06
-7.54246e-11
-1.37123e-06
-1.90777e-09
-1.37119e-06
-3.6527e-09
-1.36946e-06
-5.19926e-09
-1.36557e-06
-6.40502e-09
-1.35828e-06
-7.06093e-09
-1.34517e-06
-6.94029e-09
-1.32161e-06
-5.85528e-09
-1.27924e-06
-3.90216e-09
-1.205e-06
-1.58084e-09
-1.08014e-06
-8.03629e-07
1.6076e-09
-8.05638e-07
3.9468e-09
-1.0825e-06
5.94764e-09
-1.20693e-06
7.05439e-09
-1.2803e-06
7.16961e-09
-1.32177e-06
6.47079e-09
-1.34461e-06
5.21258e-09
-1.3572e-06
3.60778e-09
-1.36413e-06
1.80692e-09
-1.36779e-06
-8.53645e-11
-1.36934e-06
-1.97486e-09
-1.36929e-06
-3.77985e-09
-1.36766e-06
-5.37922e-09
-1.36397e-06
-6.63897e-09
-1.35703e-06
-7.33463e-09
-1.34447e-06
-7.2336e-09
-1.3217e-06
-6.12299e-09
-1.28034e-06
-4.07685e-09
-1.20704e-06
-1.61193e-09
-1.0826e-06
-8.05239e-07
1.66727e-09
-8.07295e-07
4.16201e-09
-1.08499e-06
6.24229e-09
-1.209e-06
7.35578e-09
-1.28141e-06
7.44375e-09
-1.32186e-06
6.70043e-09
-1.34387e-06
5.39119e-09
-1.35589e-06
3.72576e-09
-1.36247e-06
1.86022e-09
-1.36592e-06
-9.72984e-11
-1.36739e-06
-2.04998e-09
-1.36734e-06
-3.91693e-09
-1.3658e-06
-5.57372e-09
-1.36231e-06
-6.88222e-09
-1.35572e-06
-7.60817e-09
-1.34374e-06
-7.51953e-09
-1.32179e-06
-6.38907e-09
-1.28146e-06
-4.26744e-09
-1.20915e-06
-1.6796e-09
-1.08518e-06
-8.06918e-07
1.71374e-09
-8.09e-07
4.366e-09
-1.08762e-06
6.5799e-09
-1.21122e-06
7.74606e-09
-1.28257e-06
7.81192e-09
-1.32192e-06
7.01823e-09