/*--------------------------------*- C++ -*----------------------------------*\
  =========                 |
  \\      /  F ield         | OpenFOAM: The Open Source CFD Toolbox
   \\    /   O peration     | Website:  https://openfoam.org
    \\  /    A nd           | Version:  6
     \\/     M anipulation  |
\*---------------------------------------------------------------------------*/
FoamFile
{
    version     2.0;
    format      ascii;
    class       volVectorField;
    location    "27";
    object      U;
}
// * * * * * * * * * * * * * * * * * * * * * * * * * * * * * * * * * * * * * //

dimensions      [0 1 -1 0 0 0 0];

internalField   nonuniform List<vector> 
10000
(
(0.000380307 -3.07738 0)
(-0.000563004 -4.12514 0)
(-0.00140018 -4.65027 0)
(-0.00174112 -5.01489 0)
(-0.00159203 -5.26889 0)
(-0.00137341 -5.43932 0)
(-0.00121363 -5.54817 0)
(-0.00110723 -5.61413 0)
(-0.000999417 -5.65061 0)
(-0.000865335 -5.66562 0)
(-0.000672417 -5.66298 0)
(-0.000425709 -5.64281 0)
(-0.000111143 -5.60166 0)
(0.000246729 -5.53201 0)
(0.000626127 -5.42132 0)
(0.000964521 -5.25193 0)
(0.00108717 -5.0014 0)
(0.000709981 -4.64125 0)
(0.000130396 -4.1206 0)
(-0.000474185 -3.07607 0)
(0.000367982 -3.07817 0)
(0.000166487 -4.12506 0)
(-0.000260072 -4.65012 0)
(-0.000617078 -5.01489 0)
(-0.000770437 -5.26909 0)
(-0.000813193 -5.4396 0)
(-0.000856203 -5.54845 0)
(-0.000900019 -5.61443 0)
(-0.000934863 -5.65099 0)
(-0.000936787 -5.6661 0)
(-0.000903748 -5.66358 0)
(-0.000824507 -5.64357 0)
(-0.000700993 -5.60256 0)
(-0.000552957 -5.53304 0)
(-0.000402994 -5.42233 0)
(-0.000316727 -5.25279 0)
(-0.000292929 -5.00206 0)
(-0.000322861 -4.64168 0)
(-0.000304178 -4.12093 0)
(2.88505e-05 -3.07812 0)
(-4.92363e-05 -3.0788 0)
(-2.74205e-05 -4.12512 0)
(-6.11261e-05 -4.65025 0)
(-0.000227077 -5.01502 0)
(-0.000425552 -5.26914 0)
(-0.000499841 -5.43947 0)
(-0.000628319 -5.54823 0)
(-0.000750405 -5.61426 0)
(-0.000867362 -5.65085 0)
(-0.000938692 -5.66598 0)
(-0.000986882 -5.66351 0)
(-0.000986941 -5.64361 0)
(-0.000958453 -5.60272 0)
(-0.000866395 -5.53321 0)
(-0.000750117 -5.42245 0)
(-0.000651201 -5.25285 0)
(-0.000526017 -5.00218 0)
(-0.000364108 -4.64182 0)
(-0.000165108 -4.12076 0)
(0.000246025 -3.0784 0)
(-0.000252897 -3.07868 0)
(5.46704e-05 -4.12463 0)
(0.000251275 -4.64972 0)
(0.000265762 -5.01485 0)
(3.74223e-05 -5.26893 0)
(-0.000142689 -5.43902 0)
(-0.000359726 -5.54778 0)
(-0.000569011 -5.61392 0)
(-0.000758027 -5.65058 0)
(-0.000909628 -5.66579 0)
(-0.00104106 -5.66339 0)
(-0.00112148 -5.64355 0)
(-0.00117295 -5.60278 0)
(-0.00115497 -5.53337 0)
(-0.00111192 -5.42273 0)
(-0.00098902 -5.25315 0)
(-0.000890208 -5.00245 0)
(-0.000577948 -4.64212 0)
(-0.000297991 -4.12113 0)
(0.000205834 -3.07879 0)
(-0.000201178 -3.07826 0)
(8.74588e-05 -4.1243 0)
(0.000226829 -4.64914 0)
(0.000329552 -5.01426 0)
(0.000203449 -5.26833 0)
(-2.45721e-05 -5.43836 0)
(-0.000258959 -5.54717 0)
(-0.000503377 -5.61337 0)
(-0.000717134 -5.65006 0)
(-0.000919496 -5.66533 0)
(-0.00109157 -5.66302 0)
(-0.00123159 -5.64327 0)
(-0.0013323 -5.6026 0)
(-0.00136856 -5.53334 0)
(-0.00136663 -5.42282 0)
(-0.00121171 -5.25328 0)
(-0.00101216 -5.00256 0)
(-0.000567728 -4.64214 0)
(-0.000345835 -4.12141 0)
(6.0093e-05 -3.07879 0)
(0.000210727 -3.07832 0)
(0.000289554 -4.12491 0)
(0.000307172 -4.64938 0)
(0.000332328 -5.01411 0)
(0.000194392 -5.26795 0)
(-7.28009e-05 -5.43784 0)
(-0.000309696 -5.54663 0)
(-0.000552977 -5.61283 0)
(-0.000764846 -5.64957 0)
(-0.000974772 -5.66493 0)
(-0.00116067 -5.66267 0)
(-0.00131887 -5.64299 0)
(-0.00142401 -5.60238 0)
(-0.00147962 -5.53326 0)
(-0.00142906 -5.42297 0)
(-0.00126458 -5.25361 0)
(-0.00100792 -5.00287 0)
(-0.000588941 -4.6425 0)
(-0.000417549 -4.12211 0)
(-0.000295809 -3.07871 0)
(0.000428592 -3.07916 0)
(0.000379627 -4.12569 0)
(0.0004723 -4.64995 0)
(0.000417224 -5.01437 0)
(0.000304496 -5.26782 0)
(1.55289e-05 -5.43747 0)
(-0.000242288 -5.54627 0)
(-0.000508822 -5.61245 0)
(-0.000748651 -5.64915 0)
(-0.000974188 -5.66452 0)
(-0.00117407 -5.66232 0)
(-0.00133652 -5.64269 0)
(-0.00145146 -5.60222 0)
(-0.00150375 -5.53325 0)
(-0.00144708 -5.42306 0)
(-0.00125883 -5.254 0)
(-0.000978067 -5.00345 0)
(-0.000642631 -4.64312 0)
(-0.000408276 -4.12292 0)
(-0.0004313 -3.07896 0)
(0.000283994 -3.08015 0)
(0.000422324 -4.126 0)
(0.000620876 -4.65031 0)
(0.000584647 -5.01435 0)
(0.000521656 -5.26754 0)
(0.000270369 -5.43711 0)
(-3.32792e-05 -5.54584 0)
(-0.000338369 -5.61195 0)
(-0.000639448 -5.64863 0)
(-0.000911805 -5.66407 0)
(-0.00114989 -5.66197 0)
(-0.00133266 -5.64244 0)
(-0.00145369 -5.60211 0)
(-0.00151167 -5.5333 0)
(-0.00144213 -5.42336 0)
(-0.00128015 -5.25462 0)
(-0.000939865 -5.00437 0)
(-0.000712905 -4.64413 0)
(-0.000480029 -4.12382 0)
(-0.000386776 -3.0799 0)
(0.000145678 -3.08076 0)
(0.000435772 -4.12605 0)
(0.000683201 -4.65031 0)
(0.000767763 -5.01404 0)
(0.00068931 -5.26699 0)
(0.000484688 -5.43656 0)
(0.000143919 -5.54522 0)
(-0.000210958 -5.61131 0)
(-0.000574573 -5.64803 0)
(-0.000897026 -5.66351 0)
(-0.00117433 -5.66152 0)
(-0.00139414 -5.64214 0)
(-0.00155216 -5.60196 0)
(-0.00162703 -5.53335 0)
(-0.00158996 -5.42373 0)
(-0.0014476 -5.25537 0)
(-0.00114002 -5.00526 0)
(-0.000864261 -4.64523 0)
(-0.00046569 -4.12471 0)
(-0.000163403 -3.08106 0)
(0.000249759 -3.08121 0)
(0.000439127 -4.12634 0)
(0.000623898 -4.6504 0)
(0.000765834 -5.01395 0)
(0.000710093 -5.26663 0)
(0.000542619 -5.43598 0)
(0.000211919 -5.54451 0)
(-0.000182032 -5.61056 0)
(-0.000581159 -5.64728 0)
(-0.000940563 -5.66285 0)
(-0.00126067 -5.66094 0)
(-0.00152025 -5.64169 0)
(-0.00172043 -5.60166 0)
(-0.00183439 -5.53323 0)
(-0.00184403 -5.4239 0)
(-0.00168436 -5.25574 0)
(-0.00141439 -5.00586 0)
(-0.000935623 -4.6458 0)
(-0.000309679 -4.12485 0)
(0.000113626 -3.08162 0)
(0.0003922 -3.08164 0)
(0.000415562 -4.12703 0)
(0.000679172 -4.65078 0)
(0.000806957 -5.01407 0)
(0.000818098 -5.26642 0)
(0.000646814 -5.43544 0)
(0.00030628 -5.54374 0)
(-0.000122388 -5.60972 0)
(-0.000560793 -5.64649 0)
(-0.000964549 -5.66214 0)
(-0.00131325 -5.66033 0)
(-0.00160865 -5.64117 0)
(-0.00182429 -5.60132 0)
(-0.00195896 -5.53308 0)
(-0.00195823 -5.42387 0)
(-0.00179559 -5.25599 0)
(-0.00146706 -5.00645 0)
(-0.000881396 -4.64643 0)
(-0.000318419 -4.12531 0)
(5.3505e-06 -3.08168 0)
(0.000342164 -3.08214 0)
(0.000440258 -4.12779 0)
(0.00073703 -4.65135 0)
(0.00089003 -5.01423 0)
(0.000915954 -5.26632 0)
(0.000748455 -5.43505 0)
(0.000396322 -5.54301 0)
(-5.52094e-05 -5.60884 0)
(-0.000518377 -5.64565 0)
(-0.000956954 -5.66139 0)
(-0.0013336 -5.65968 0)
(-0.00165153 -5.64064 0)
(-0.00189744 -5.60096 0)
(-0.00204054 -5.53298 0)
(-0.00203464 -5.42411 0)
(-0.0018437 -5.25662 0)
(-0.0014521 -5.00736 0)
(-0.000897219 -4.64749 0)
(-0.00036528 -4.12642 0)
(-0.000297335 -3.08198 0)
(0.000174893 -3.08254 0)
(0.000365153 -4.12851 0)
(0.000737921 -4.65188 0)
(0.00102057 -5.01463 0)
(0.00104926 -5.26631 0)
(0.00092295 -5.43452 0)
(0.000555259 -5.54214 0)
(7.31475e-05 -5.60782 0)
(-0.000430751 -5.6447 0)
(-0.000915102 -5.66054 0)
(-0.00133635 -5.65892 0)
(-0.00170643 -5.64003 0)
(-0.00200145 -5.60055 0)
(-0.00217009 -5.53285 0)
(-0.00217144 -5.42437 0)
(-0.00193942 -5.25729 0)
(-0.00149398 -5.00842 0)
(-0.000931198 -4.64871 0)
(-0.000320578 -4.1275 0)
(-0.000355387 -3.08236 0)
(4.95935e-05 -3.08287 0)
(0.000354493 -4.1291 0)
(0.000804193 -4.65223 0)
(0.00117483 -5.01474 0)
(0.00122692 -5.26596 0)
(0.00107233 -5.43375 0)
(0.000685136 -5.54118 0)
(0.000184404 -5.60678 0)
(-0.00035738 -5.64366 0)
(-0.000873972 -5.65955 0)
(-0.00135002 -5.65806 0)
(-0.00176263 -5.63934 0)
(-0.00209873 -5.6 0)
(-0.00230192 -5.53257 0)
(-0.00229286 -5.42457 0)
(-0.00204639 -5.25801 0)
(-0.00153127 -5.00948 0)
(-0.000957651 -4.64988 0)
(-0.000342993 -4.12849 0)
(-0.00027861 -3.08265 0)
(0.000260741 -3.08336 0)
(0.000577997 -4.13009 0)
(0.000939337 -4.65301 0)
(0.00121736 -5.01515 0)
(0.00125827 -5.26587 0)
(0.00107546 -5.43312 0)
(0.000721657 -5.5402 0)
(0.00022405 -5.6057 0)
(-0.000319354 -5.64255 0)
(-0.000856068 -5.6585 0)
(-0.0013612 -5.6571 0)
(-0.00181189 -5.63848 0)
(-0.00217767 -5.59934 0)
(-0.00241465 -5.53221 0)
(-0.00243559 -5.42471 0)
(-0.00220344 -5.25867 0)
(-0.0016437 -5.01047 0)
(-0.00104913 -4.65101 0)
(-0.000325331 -4.12932 0)
(-0.000185839 -3.08271 0)
(0.000373351 -3.08411 0)
(0.000554125 -4.13102 0)
(0.00114845 -4.65393 0)
(0.00146167 -5.01575 0)
(0.00148948 -5.26589 0)
(0.00125324 -5.43248 0)
(0.000870013 -5.53924 0)
(0.000343258 -5.60462 0)
(-0.000218528 -5.64143 0)
(-0.000784519 -5.65741 0)
(-0.00131991 -5.65611 0)
(-0.00179656 -5.63765 0)
(-0.00218238 -5.59867 0)
(-0.00244345 -5.53186 0)
(-0.00249505 -5.42481 0)
(-0.00227222 -5.25923 0)
(-0.0017548 -5.01152 0)
(-0.00107047 -4.65219 0)
(-0.000369912 -4.13008 0)
(-0.000128929 -3.08277 0)
(0.000325206 -3.08501 0)
(0.000571779 -4.13201 0)
(0.00121767 -4.65486 0)
(0.00164356 -5.01617 0)
(0.00171063 -5.26581 0)
(0.00146839 -5.43196 0)
(0.00103086 -5.53835 0)
(0.000484022 -5.60351 0)
(-0.000102083 -5.64026 0)
(-0.000704662 -5.65629 0)
(-0.00127545 -5.65512 0)
(-0.00178232 -5.63678 0)
(-0.00219291 -5.59805 0)
(-0.00244587 -5.53162 0)
(-0.00249079 -5.42511 0)
(-0.00224711 -5.26029 0)
(-0.00176669 -5.01312 0)
(-0.00113798 -4.65388 0)
(-0.000603294 -4.13172 0)
(-0.000298522 -3.08358 0)
(0.000405896 -3.08603 0)
(0.00065116 -4.13332 0)
(0.00139373 -4.65611 0)
(0.00190311 -5.01697 0)
(0.00201547 -5.26583 0)
(0.00177723 -5.43135 0)
(0.00127819 -5.53738 0)
(0.000675783 -5.6023 0)
(2.26647e-05 -5.63901 0)
(-0.000645828 -5.65509 0)
(-0.00129056 -5.65398 0)
(-0.00186975 -5.63581 0)
(-0.00234148 -5.59738 0)
(-0.00265298 -5.53138 0)
(-0.00274273 -5.42542 0)
(-0.00255801 -5.2612 0)
(-0.00211291 -5.01464 0)
(-0.00144839 -4.65568 0)
(-0.000577281 -4.13329 0)
(-0.000214713 -3.08489 0)
(0.000437251 -3.08691 0)
(0.000722593 -4.1345 0)
(0.00159526 -4.65721 0)
(0.00217845 -5.01757 0)
(0.0023645 -5.26571 0)
(0.00212977 -5.43067 0)
(0.00156818 -5.53631 0)
(0.0009056 -5.601 0)
(0.000160037 -5.6376 0)
(-0.000590957 -5.65367 0)
(-0.00131692 -5.65262 0)
(-0.0019812 -5.6346 0)
(-0.00253747 -5.59646 0)
(-0.00294288 -5.53086 0)
(-0.0031006 -5.42538 0)
(-0.0029844 -5.26175 0)
(-0.00249341 -5.01566 0)
(-0.00160377 -4.6568 0)
(-0.000516007 -4.13404 0)
(5.17636e-05 -3.0855 0)
(0.000472256 -3.08733 0)
(0.000747945 -4.13573 0)
(0.00172952 -4.65838 0)
(0.00237226 -5.01816 0)
(0.00265985 -5.26547 0)
(0.00241647 -5.42988 0)
(0.00185867 -5.53505 0)
(0.00112786 -5.59946 0)
(0.000315891 -5.63598 0)
(-0.000513061 -5.65206 0)
(-0.00131624 -5.65113 0)
(-0.0020459 -5.63329 0)
(-0.00266279 -5.59545 0)
(-0.00310868 -5.5302 0)
(-0.00330618 -5.42523 0)
(-0.00317175 -5.26228 0)
(-0.00261597 -5.01669 0)
(-0.00165208 -4.65811 0)
(-0.000662784 -4.13537 0)
(-0.000173666 -3.08567 0)
(0.000598869 -3.08781 0)
(0.000867975 -4.13751 0)
(0.00181908 -4.65992 0)
(0.00251298 -5.01884 0)
(0.00284548 -5.2653 0)
(0.00264728 -5.42902 0)
(0.00209567 -5.53372 0)
(0.0013324 -5.59785 0)
(0.000457962 -5.63421 0)
(-0.000443623 -5.65031 0)
(-0.00131465 -5.64948 0)
(-0.00210776 -5.63185 0)
(-0.00277361 -5.59429 0)
(-0.00322845 -5.52953 0)
(-0.0034489 -5.42525 0)
(-0.00325687 -5.26302 0)
(-0.00266958 -5.01817 0)
(-0.00174172 -4.66008 0)
(-0.000800652 -4.13754 0)
(-0.000547108 -3.08617 0)
(0.000685086 -3.08869 0)
(0.00106173 -4.13968 0)
(0.00202482 -4.66169 0)
(0.00271485 -5.01988 0)
(0.00303732 -5.26531 0)
(0.0028872 -5.42821 0)
(0.00230778 -5.53231 0)
(0.00152056 -5.59612 0)
(0.000583487 -5.63234 0)
(-0.000383446 -5.64841 0)
(-0.0013296 -5.64769 0)
(-0.00219454 -5.63027 0)
(-0.00290977 -5.59304 0)
(-0.0034257 -5.52878 0)
(-0.00366227 -5.42514 0)
(-0.00349342 -5.26362 0)
(-0.00289005 -5.01958 0)
(-0.00195547 -4.66203 0)
(-0.000834292 -4.13963 0)
(-0.000557975 -3.08691 0)
(0.000608884 -3.08994 0)
(0.00122651 -4.14177 0)
(0.0023035 -4.6635 0)
(0.00301648 -5.02086 0)
(0.00331561 -5.2654 0)
(0.00312824 -5.4275 0)
(0.00254334 -5.53091 0)
(0.00170444 -5.59432 0)
(0.000724415 -5.63037 0)
(-0.000302208 -5.64642 0)
(-0.00130487 -5.64581 0)
(-0.00222555 -5.6286 0)
(-0.00299229 -5.59168 0)
(-0.00354001 -5.52792 0)
(-0.00381768 -5.42492 0)
(-0.00370666 -5.26422 0)
(-0.00311235 -5.02099 0)
(-0.00217328 -4.66392 0)
(-0.000962946 -4.14144 0)
(-0.000455972 -3.08757 0)
(0.0005277 -3.09146 0)
(0.00134504 -4.14412 0)
(0.00249705 -4.66552 0)
(0.00329005 -5.02208 0)
(0.00356317 -5.26563 0)
(0.00339608 -5.42675 0)
(0.00279739 -5.52948 0)
(0.00193429 -5.59248 0)
(0.000905531 -5.62832 0)
(-0.000183665 -5.64433 0)
(-0.00125766 -5.64383 0)
(-0.00223772 -5.62688 0)
(-0.00304633 -5.59032 0)
(-0.00363969 -5.52704 0)
(-0.00393416 -5.42477 0)
(-0.00382843 -5.26493 0)
(-0.00325333 -5.02264 0)
(-0.00232009 -4.66619 0)
(-0.00117514 -4.14379 0)
(-0.00053177 -3.08878 0)
(0.000425175 -3.09319 0)
(0.00131903 -4.14658 0)
(0.00271781 -4.66776 0)
(0.00369181 -5.02346 0)
(0.00399121 -5.26571 0)
(0.00378535 -5.42586 0)
(0.00314119 -5.52798 0)
(0.00220705 -5.59057 0)
(0.00111404 -5.62614 0)
(-4.91453e-05 -5.64206 0)
(-0.00119649 -5.64171 0)
(-0.00225481 -5.62505 0)
(-0.00313455 -5.58889 0)
(-0.00380501 -5.52618 0)
(-0.00415819 -5.42455 0)
(-0.00410104 -5.26565 0)
(-0.00352719 -5.02446 0)
(-0.00253717 -4.66875 0)
(-0.0012714 -4.1464 0)
(-0.000528042 -3.09042 0)
(0.000377887 -3.09487 0)
(0.00140605 -4.14899 0)
(0.00292014 -4.66986 0)
(0.00403081 -5.02473 0)
(0.00442593 -5.26587 0)
(0.00416818 -5.42492 0)
(0.0034876 -5.52633 0)
(0.0024672 -5.58843 0)
(0.00130013 -5.62375 0)
(6.08887e-05 -5.63965 0)
(-0.00117092 -5.63941 0)
(-0.00230751 -5.62302 0)
(-0.00329357 -5.58729 0)
(-0.00404174 -5.52512 0)
(-0.00447434 -5.42423 0)
(-0.00445753 -5.26633 0)
(-0.00389178 -5.0262 0)
(-0.00278333 -4.67124 0)
(-0.00136535 -4.1489 0)
(-0.000406738 -3.09238 0)
(0.000528741 -3.09642 0)
(0.00151228 -4.15154 0)
(0.00306422 -4.67219 0)
(0.00425779 -5.02609 0)
(0.00474636 -5.26601 0)
(0.00453705 -5.4239 0)
(0.00380697 -5.52452 0)
(0.00272837 -5.58616 0)
(0.00147796 -5.62122 0)
(0.000151901 -5.63703 0)
(-0.00116627 -5.63688 0)
(-0.00240874 -5.62076 0)
(-0.00350567 -5.58547 0)
(-0.00435097 -5.52384 0)
(-0.00486205 -5.42376 0)
(-0.00486251 -5.26692 0)
(-0.00425827 -5.02785 0)
(-0.00303161 -4.67358 0)
(-0.00141831 -4.15139 0)
(-0.000387941 -3.09405 0)
(0.000805871 -3.09824 0)
(0.00168354 -4.15456 0)
(0.00320356 -4.67486 0)
(0.00444004 -5.02777 0)
(0.0049942 -5.26629 0)
(0.00483804 -5.42297 0)
(0.0040996 -5.52268 0)
(0.00298806 -5.58371 0)
(0.00166628 -5.61852 0)
(0.000246989 -5.63427 0)
(-0.00116805 -5.63415 0)
(-0.00250956 -5.61826 0)
(-0.00370487 -5.58338 0)
(-0.0046356 -5.52237 0)
(-0.00519792 -5.42315 0)
(-0.00519222 -5.26738 0)
(-0.00451688 -5.02947 0)
(-0.00319743 -4.67605 0)
(-0.00149065 -4.15399 0)
(-0.000512911 -3.09531 0)
(0.000908971 -3.10039 0)
(0.00178361 -4.15786 0)
(0.00343619 -4.67782 0)
(0.00471217 -5.02964 0)
(0.00532126 -5.26673 0)
(0.00516638 -5.42211 0)
(0.00441416 -5.52081 0)
(0.00325824 -5.58121 0)
(0.00186477 -5.61569 0)
(0.000357458 -5.63132 0)
(-0.00114729 -5.63125 0)
(-0.00257806 -5.61559 0)
(-0.00385139 -5.58112 0)
(-0.00484072 -5.52078 0)
(-0.00541496 -5.42253 0)
(-0.00537532 -5.2679 0)
(-0.00464998 -5.03123 0)
(-0.00331583 -4.67877 0)
(-0.00169559 -4.15713 0)
(-0.00080034 -3.09665 0)
(0.000848891 -3.10258 0)
(0.00191547 -4.16121 0)
(0.00365191 -4.68089 0)
(0.00499164 -5.03164 0)
(0.00564432 -5.26729 0)
(0.00551469 -5.42127 0)
(0.00475714 -5.51892 0)
(0.00356288 -5.57859 0)
(0.00210321 -5.61267 0)
(0.000514811 -5.62818 0)
(-0.0010859 -5.62819 0)
(-0.00260376 -5.61275 0)
(-0.0039422 -5.57872 0)
(-0.00499261 -5.51913 0)
(-0.00557434 -5.42192 0)
(-0.00554995 -5.26855 0)
(-0.00480896 -5.03321 0)
(-0.0035178 -4.68176 0)
(-0.00184514 -4.16054 0)
(-0.000962876 -3.09838 0)
(0.000750398 -3.10448 0)
(0.00192282 -4.16445 0)
(0.00382431 -4.68387 0)
(0.00529318 -5.03354 0)
(0.00600056 -5.26769 0)
(0.0059041 -5.42023 0)
(0.00513961 -5.51683 0)
(0.00389991 -5.57583 0)
(0.00236111 -5.6095 0)
(0.000686021 -5.62485 0)
(-0.00100592 -5.62498 0)
(-0.00260982 -5.60984 0)
(-0.00401043 -5.5763 0)
(-0.0050908 -5.51747 0)
(-0.00569382 -5.42134 0)
(-0.00569818 -5.26935 0)
(-0.00498253 -5.03545 0)
(-0.00371618 -4.68514 0)
(-0.00202074 -4.16422 0)
(-0.000904452 -3.10084 0)
(0.00073462 -3.10634 0)
(0.00197837 -4.16773 0)
(0.0039386 -4.6868 0)
(0.00550097 -5.03537 0)
(0.00623602 -5.26802 0)
(0.00615056 -5.41914 0)
(0.00536823 -5.51465 0)
(0.00409917 -5.57291 0)
(0.00250433 -5.60615 0)
(0.000749902 -5.62136 0)
(-0.00103355 -5.62156 0)
(-0.00271902 -5.60676 0)
(-0.00419369 -5.57378 0)
(-0.00533428 -5.51577 0)
(-0.005973 -5.4208 0)
(-0.00601848 -5.2702 0)
(-0.00533656 -5.03776 0)
(-0.00399244 -4.68864 0)
(-0.00210756 -4.16801 0)
(-0.000724986 -3.10368 0)
(0.00102813 -3.1091 0)
(0.00231943 -4.17204 0)
(0.00413837 -4.69062 0)
(0.00557682 -5.03791 0)
(0.00631112 -5.26887 0)
(0.00624303 -5.4184 0)
(0.00548284 -5.51263 0)
(0.0042137 -5.57004 0)
(0.00258372 -5.60278 0)
(0.000770346 -5.61776 0)
(-0.00109127 -5.61799 0)
(-0.00287234 -5.60345 0)
(-0.00444397 -5.57104 0)
(-0.00566929 -5.51388 0)
(-0.0063814 -5.41998 0)
(-0.00644121 -5.27075 0)
(-0.00573708 -5.03976 0)
(-0.00421323 -4.6917 0)
(-0.00212919 -4.17121 0)
(-0.000536392 -3.10628 0)
(0.000981901 -3.11238 0)
(0.00230837 -4.17635 0)
(0.00445796 -4.69468 0)
(0.00595205 -5.04067 0)
(0.00669782 -5.26993 0)
(0.00662131 -5.41782 0)
(0.00582026 -5.51068 0)
(0.00448369 -5.56711 0)
(0.0027843 -5.59928 0)
(0.000894448 -5.614 0)
(-0.00105588 -5.61423 0)
(-0.00292253 -5.59994 0)
(-0.00457266 -5.56813 0)
(-0.00585835 -5.5119 0)
(-0.0066224 -5.41914 0)
(-0.00666975 -5.27125 0)
(-0.00592006 -5.04178 0)
(-0.00430934 -4.69485 0)
(-0.00229776 -4.17481 0)
(-0.00071224 -3.10874 0)
(0.000638738 -3.11503 0)
(0.00223661 -4.17979 0)
(0.00461289 -4.698 0)
(0.00635328 -5.04287 0)
(0.00718808 -5.27053 0)
(0.00711588 -5.41687 0)
(0.00625325 -5.50842 0)
(0.00482835 -5.56394 0)
(0.00303599 -5.59552 0)
(0.00105315 -5.60999 0)
(-0.000981327 -5.61028 0)
(-0.0029345 -5.59631 0)
(-0.00466031 -5.56511 0)
(-0.00600146 -5.50982 0)
(-0.00680128 -5.41832 0)
(-0.00685867 -5.27202 0)
(-0.00608081 -5.0442 0)
(-0.00446042 -4.69855 0)
(-0.00241686 -4.17909 0)
(-0.00100452 -3.1115 0)
(0.000751388 -3.1172 0)
(0.00244101 -4.18368 0)
(0.00473182 -4.70143 0)
(0.00655222 -5.04503 0)
(0.00746797 -5.27107 0)
(0.00741037 -5.41581 0)
(0.00654131 -5.506 0)
(0.00506657 -5.56055 0)
(0.00321319 -5.59158 0)
(0.0011549 -5.60582 0)
(-0.000958874 -5.60614 0)
(-0.00298751 -5.5925 0)
(-0.00479426 -5.56192 0)
(-0.00621061 -5.50758 0)
(-0.00706108 -5.41744 0)
(-0.0071287 -5.27277 0)
(-0.00632153 -5.04659 0)
(-0.00464226 -4.70222 0)
(-0.00242463 -4.18329 0)
(-0.000991757 -3.11426 0)
(0.00107494 -3.1198 0)
(0.00265757 -4.18834 0)
(0.00488763 -4.70543 0)
(0.00666512 -5.04762 0)
(0.0076096 -5.27191 0)
(0.00758054 -5.41487 0)
(0.00672882 -5.50361 0)
(0.00523356 -5.55714 0)
(0.00334024 -5.58757 0)
(0.00122721 -5.60154 0)
(-0.000949785 -5.60189 0)
(-0.00304827 -5.58855 0)
(-0.00492135 -5.55859 0)
(-0.00639927 -5.50523 0)
(-0.00728825 -5.41647 0)
(-0.00736127 -5.27348 0)
(-0.00651436 -5.04903 0)
(-0.00478365 -4.70597 0)
(-0.0025178 -4.1875 0)
(-0.000935924 -3.1171 0)
(0.00112627 -3.12306 0)
(0.00277753 -4.19315 0)
(0.00508766 -4.70965 0)
(0.00685837 -5.05042 0)
(0.0077914 -5.27286 0)
(0.00775961 -5.41396 0)
(0.00689383 -5.50124 0)
(0.00537228 -5.55374 0)
(0.00344203 -5.58353 0)
(0.00127979 -5.59721 0)
(-0.000956632 -5.59756 0)
(-0.00311801 -5.58453 0)
(-0.00505331 -5.5552 0)
(-0.00658244 -5.50288 0)
(-0.00750388 -5.41558 0)
(-0.00758789 -5.27437 0)
(-0.00673514 -5.05173 0)
(-0.00497532 -4.71009 0)
(-0.00266618 -4.19222 0)
(-0.000969249 -3.12038 0)
(0.00106128 -3.12693 0)
(0.00295556 -4.19808 0)
(0.00533106 -4.71407 0)
(0.00711514 -5.0534 0)
(0.00801874 -5.27395 0)
(0.00796803 -5.41313 0)
(0.00705195 -5.49886 0)
(0.00549626 -5.55029 0)
(0.00351491 -5.57941 0)
(0.00129876 -5.59277 0)
(-0.000999411 -5.59312 0)
(-0.00323228 -5.58039 0)
(-0.00523895 -5.5517 0)
(-0.00683651 -5.50044 0)
(-0.007799 -5.4147 0)
(-0.00790466 -5.27533 0)
(-0.00704823 -5.05458 0)
(-0.00524338 -4.71442 0)
(-0.00283115 -4.19715 0)
(-0.000982128 -3.12408 0)
(0.000955287 -3.13085 0)
(0.00296633 -4.20289 0)
(0.00556945 -4.71846 0)
(0.00749941 -5.05636 0)
(0.00841251 -5.27495 0)
(0.00833138 -5.41222 0)
(0.0073339 -5.49635 0)
(0.00570619 -5.54666 0)
(0.00364137 -5.57511 0)
(0.00134365 -5.58815 0)
(-0.00104035 -5.58846 0)
(-0.00336354 -5.57601 0)
(-0.00546327 -5.54794 0)
(-0.00716082 -5.49774 0)
(-0.00819048 -5.4135 0)
(-0.00834893 -5.27603 0)
(-0.00746823 -5.0572 0)
(-0.00553227 -4.7185 0)
(-0.00291579 -4.20176 0)
(-0.000955086 -3.12744 0)
(0.000878242 -3.13427 0)
(0.00295762 -4.20741 0)
(0.00574448 -4.72252 0)
(0.00787672 -5.059 0)
(0.00884722 -5.27565 0)
(0.00871798 -5.41104 0)
(0.00765474 -5.49357 0)
(0.0059489 -5.54278 0)
(0.00380891 -5.57059 0)
(0.00143734 -5.58332 0)
(-0.00101661 -5.5836 0)
(-0.00341728 -5.57139 0)
(-0.00559934 -5.54393 0)
(-0.00737198 -5.49477 0)
(-0.00847741 -5.41202 0)
(-0.00867979 -5.27641 0)
(-0.00775868 -5.05947 0)
(-0.0057047 -4.72229 0)
(-0.00300908 -4.20619 0)
(-0.00101979 -3.13021 0)
(0.00115928 -3.13758 0)
(0.00317792 -4.21255 0)
(0.00585749 -4.72696 0)
(0.00800965 -5.06184 0)
(0.00904393 -5.2764 0)
(0.00892763 -5.40977 0)
(0.00786276 -5.49071 0)
(0.00612573 -5.53883 0)
(0.00395125 -5.56599 0)
(0.00153703 -5.5784 0)
(-0.000959917 -5.57866 0)
(-0.00339345 -5.56674 0)
(-0.00560336 -5.5399 0)
(-0.00738932 -5.49183 0)
(-0.00849248 -5.41068 0)
(-0.00867667 -5.27708 0)
(-0.007741 -5.06226 0)
(-0.00578447 -4.72683 0)
(-0.00333293 -4.21164 0)
(-0.00139399 -3.13359 0)
(0.00136078 -3.14117 0)
(0.00325279 -4.21816 0)
(0.00604574 -4.73181 0)
(0.00818562 -5.0649 0)
(0.00922189 -5.27722 0)
(0.00909782 -5.40852 0)
(0.00800882 -5.48783 0)
(0.00624319 -5.53486 0)
(0.0040319 -5.56136 0)
(0.0015748 -5.57345 0)
(-0.000968071 -5.57371 0)
(-0.00344437 -5.56208 0)
(-0.0056877 -5.53592 0)
(-0.00749815 -5.489 0)
(-0.00861991 -5.40953 0)
(-0.00881795 -5.2781 0)
(-0.00793772 -5.06559 0)
(-0.00606813 -4.73211 0)
(-0.00349395 -4.21782 0)
(-0.00153568 -3.13821 0)
(0.00136432 -3.14531 0)
(0.00344312 -4.22395 0)
(0.00623989 -4.7369 0)
(0.00833754 -5.06814 0)
(0.00934906 -5.27814 0)
(0.00919907 -5.4073 0)
(0.00809347 -5.48498 0)
(0.00629867 -5.53087 0)
(0.00405056 -5.55668 0)
(0.00154381 -5.56843 0)
(-0.00106092 -5.56866 0)
(-0.0036036 -5.55733 0)
(-0.00591692 -5.53183 0)
(-0.00779836 -5.48603 0)
(-0.00900101 -5.40824 0)
(-0.00926648 -5.27894 0)
(-0.00843683 -5.06872 0)
(-0.00643906 -4.73706 0)
(-0.0035171 -4.22334 0)
(-0.0011722 -3.14317 0)
(0.00130694 -3.14992 0)
(0.00357301 -4.23 0)
(0.00652677 -4.74226 0)
(0.00864041 -5.07153 0)
(0.00960794 -5.27913 0)
(0.00940685 -5.4061 0)
(0.00825809 -5.4821 0)
(0.00641199 -5.52683 0)
(0.00410729 -5.55189 0)
(0.00153288 -5.56327 0)
(-0.00114693 -5.56344 0)
(-0.00377657 -5.55237 0)
(-0.00617925 -5.52752 0)
(-0.00814313 -5.48283 0)
(-0.00943611 -5.40669 0)
(-0.00975501 -5.27947 0)
(-0.00889564 -5.07153 0)
(-0.00668548 -4.74166 0)
(-0.00358994 -4.22854 0)
(-0.00096821 -3.14765 0)
(0.00113979 -3.15432 0)
(0.00363311 -4.23568 0)
(0.00680023 -4.74731 0)
(0.00906048 -5.07467 0)
(0.0100224 -5.27989 0)
(0.00974719 -5.40469 0)
(0.00852723 -5.47902 0)
(0.0066066 -5.52259 0)
(0.00422931 -5.54691 0)
(0.0015775 -5.55789 0)
(-0.00118597 -5.558 0)
(-0.00389801 -5.5472 0)
(-0.00638368 -5.52299 0)
(-0.0084232 -5.47944 0)
(-0.00977063 -5.40498 0)
(-0.0101049 -5.27992 0)
(-0.00916391 -5.07437 0)
(-0.00683816 -4.74644 0)
(-0.00375127 -4.2342 0)
(-0.00121678 -3.15181 0)
(0.00120499 -3.15849 0)
(0.00378131 -4.24147 0)
(0.00694921 -4.75229 0)
(0.00932766 -5.07761 0)
(0.0103536 -5.28044 0)
(0.0100634 -5.40305 0)
(0.00878576 -5.47572 0)
(0.00680122 -5.51814 0)
(0.00435296 -5.54172 0)
(0.00162529 -5.55233 0)
(-0.00121063 -5.55238 0)
(-0.00399142 -5.54187 0)
(-0.00653524 -5.51834 0)
(-0.00862404 -5.47595 0)
(-0.00999371 -5.40323 0)
(-0.0103289 -5.28045 0)
(-0.00934072 -5.07744 0)
(-0.00701741 -4.75163 0)
(-0.00392899 -4.24042 0)
(-0.00159163 -3.15609 0)
(0.00147391 -3.16296 0)
(0.00397816 -4.24787 0)
(0.00718035 -4.75765 0)
(0.00955024 -5.08071 0)
(0.0105895 -5.28097 0)
(0.0102906 -5.40138 0)
(0.00896942 -5.47238 0)
(0.00693279 -5.51362 0)
(0.00442912 -5.53644 0)
(0.00164195 -5.54667 0)
(-0.00125377 -5.54668 0)
(-0.00408693 -5.53647 0)
(-0.00667622 -5.51363 0)
(-0.00880553 -5.47242 0)
(-0.0102028 -5.40146 0)
(-0.0105479 -5.28103 0)
(-0.00955412 -5.08067 0)
(-0.00721995 -4.75707 0)
(-0.00399923 -4.24683 0)
(-0.00169363 -3.1607 0)
(0.00173815 -3.16817 0)
(0.00427767 -4.25486 0)
(0.00750895 -4.76361 0)
(0.00979871 -5.08428 0)
(0.0107861 -5.28181 0)
(0.0104516 -5.39987 0)
(0.00909972 -5.46913 0)
(0.00702434 -5.50914 0)
(0.00447844 -5.53116 0)
(0.00164362 -5.54098 0)
(-0.00130127 -5.54095 0)
(-0.00418174 -5.53105 0)
(-0.00680846 -5.50893 0)
(-0.00896685 -5.46892 0)
(-0.0103893 -5.39978 0)
(-0.0107605 -5.2818 0)
(-0.00978352 -5.0842 0)
(-0.00744436 -4.7629 0)
(-0.00416659 -4.25364 0)
(-0.00166577 -3.16598 0)
(0.00165625 -3.17346 0)
(0.00426866 -4.26175 0)
(0.00779211 -4.76962 0)
(0.0102073 -5.0879 0)
(0.0111975 -5.28262 0)
(0.0108224 -5.39826 0)
(0.0093838 -5.46576 0)
(0.00722127 -5.50452 0)
(0.00458505 -5.52574 0)
(0.00166284 -5.53515 0)
(-0.00136883 -5.53508 0)
(-0.00432857 -5.52552 0)
(-0.00702772 -5.50415 0)
(-0.0092583 -5.46539 0)
(-0.0107408 -5.39812 0)
(-0.0111643 -5.28268 0)
(-0.0102036 -5.08796 0)
(-0.00778179 -4.76906 0)
(-0.00426726 -4.26073 0)
(-0.00156486 -3.17174 0)
(0.00139065 -3.17822 0)
(0.00424411 -4.26817 0)
(0.00797087 -4.77513 0)
(0.0105998 -5.09105 0)
(0.0116492 -5.28293 0)
(0.0112668 -5.39618 0)
(0.00974077 -5.46194 0)
(0.0074613 -5.49952 0)
(0.00470052 -5.51999 0)
(0.00165952 -5.52901 0)
(-0.00148643 -5.52893 0)
(-0.00455939 -5.51971 0)
(-0.007372 -5.49909 0)
(-0.0097163 -5.46156 0)
(-0.0112865 -5.39612 0)
(-0.011763 -5.28324 0)
(-0.0107519 -5.0914 0)
(-0.00810449 -4.7749 0)
(-0.00427221 -4.26739 0)
(-0.00135174 -3.17711 0)
(0.00152843 -3.18326 0)
(0.0045223 -4.27533 0)
(0.0082274 -4.78108 0)
(0.0108734 -5.09447 0)
(0.0118886 -5.28329 0)
(0.0114897 -5.39397 0)
(0.00992196 -5.45796 0)
(0.00757062 -5.49436 0)
(0.00472828 -5.51404 0)
(0.00160516 -5.52267 0)
(-0.00162909 -5.52254 0)
(-0.00479163 -5.51365 0)
(-0.00769452 -5.49375 0)
(-0.0101292 -5.45741 0)
(-0.0117548 -5.3938 0)
(-0.0122595 -5.28353 0)
(-0.011165 -5.09466 0)
(-0.00834291 -4.7807 0)
(-0.00444556 -4.27424 0)
(-0.00145797 -3.18186 0)
(0.00182498 -3.18929 0)
(0.00479693 -4.28344 0)
(0.00856836 -4.78795 0)
(0.0111834 -5.09866 0)
(0.0121391 -5.2842 0)
(0.0116922 -5.39207 0)
(0.0100835 -5.45407 0)
(0.00767886 -5.48918 0)
(0.00477653 -5.50805 0)
(0.0015929 -5.51625 0)
(-0.00170039 -5.51606 0)
(-0.00492378 -5.50749 0)
(-0.00788111 -5.48834 0)
(-0.0103636 -5.45321 0)
(-0.0120402 -5.39148 0)
(-0.0125543 -5.28395 0)
(-0.0114364 -5.09822 0)
(-0.00858949 -4.78704 0)
(-0.00466972 -4.28189 0)
(-0.00183458 -3.18675 0)
(0.00174606 -3.19544 0)
(0.00479334 -4.2912 0)
(0.00892217 -4.79468 0)
(0.0117223 -5.1027 0)
(0.0127248 -5.28496 0)
(0.0122021 -5.39 0)
(0.0104947 -5.45 0)
(0.00796996 -5.48381 0)
(0.00495933 -5.50189 0)
(0.00167362 -5.5097 0)
(-0.0017068 -5.50949 0)
(-0.00500012 -5.50128 0)
(-0.00801109 -5.48291 0)
(-0.0105198 -5.44907 0)
(-0.0122267 -5.38931 0)
(-0.0127239 -5.28462 0)
(-0.0116319 -5.10233 0)
(-0.00886629 -4.79416 0)
(-0.00491516 -4.29035 0)
(-0.00211008 -3.19253 0)
(0.00162145 -3.20096 0)
(0.00483815 -4.29859 0)
(0.0092082 -4.801 0)
(0.012245 -5.10623 0)
(0.0133276 -5.28528 0)
(0.0127434 -5.38754 0)
(0.0109178 -5.44554 0)
(0.00828134 -5.47807 0)
(0.00513597 -5.49543 0)
(0.00172842 -5.5029 0)
(-0.00175887 -5.50271 0)
(-0.00515032 -5.49489 0)
(-0.00825315 -5.47734 0)
(-0.0108461 -5.44484 0)
(-0.0126241 -5.38714 0)
(-0.0131806 -5.28537 0)
(-0.0121492 -5.10666 0)
(-0.00932263 -4.80156 0)
(-0.00500416 -4.29893 0)
(-0.00200611 -3.19896 0)
(0.00193896 -3.20668 0)
(0.00512007 -4.30705 0)
(0.00946783 -4.8081 0)
(0.012553 -5.1102 0)
(0.013672 -5.2857 0)
(0.0130702 -5.38505 0)
(0.0111784 -5.44093 0)
(0.00846022 -5.47215 0)
(0.00521499 -5.48876 0)
(0.00170406 -5.49587 0)
(-0.00188771 -5.49569 0)
(-0.0053879 -5.48827 0)
(-0.00860964 -5.47153 0)
(-0.0113279 -5.44035 0)
(-0.0132132 -5.38467 0)
(-0.0138459 -5.28585 0)
(-0.012799 -5.11073 0)
(-0.00973803 -4.80871 0)
(-0.00505069 -4.30718 0)
(-0.00172608 -3.20527 0)
(0.00213819 -3.21294 0)
(0.00519041 -4.31616 0)
(0.00983178 -4.81584 0)
(0.012984 -5.1146 0)
(0.0141191 -5.28632 0)
(0.0134612 -5.38257 0)
(0.0115006 -5.43625 0)
(0.00867008 -5.46606 0)
(0.00532394 -5.48189 0)
(0.00169986 -5.48865 0)
(-0.00199713 -5.48846 0)
(-0.00561176 -5.4814 0)
(-0.00895753 -5.46542 0)
(-0.0117913 -5.43558 0)
(-0.0137855 -5.38203 0)
(-0.0144821 -5.28621 0)
(-0.0133962 -5.11475 0)
(-0.0101389 -4.81604 0)
(-0.00524927 -4.31586 0)
(-0.00180902 -3.21139 0)
(0.00206084 -3.21948 0)
(0.00530608 -4.32529 0)
(0.0103041 -4.82365 0)
(0.0135807 -5.11897 0)
(0.0146887 -5.28685 0)
(0.0139332 -5.37987 0)
(0.0118798 -5.43136 0)
(0.00893731 -5.45979 0)
(0.00548092 -5.47482 0)
(0.00174041 -5.48122 0)
(-0.002073 -5.48104 0)
(-0.00580356 -5.47433 0)
(-0.00927237 -5.45915 0)
(-0.0122164 -5.43071 0)
(-0.0143094 -5.37934 0)
(-0.0150618 -5.28665 0)
(-0.013959 -5.1191 0)
(-0.010586 -4.82396 0)
(-0.0054837 -4.32536 0)
(-0.00214955 -3.21776 0)
(0.00217827 -3.22628 0)
(0.00560753 -4.33517 0)
(0.0108362 -4.83205 0)
(0.0142132 -5.12365 0)
(0.0153059 -5.28747 0)
(0.0144528 -5.37716 0)
(0.0122919 -5.42632 0)
(0.0092382 -5.4533 0)
(0.00564691 -5.46754 0)
(0.00177622 -5.47357 0)
(-0.00216111 -5.47339 0)
(-0.00601777 -5.46705 0)
(-0.00961879 -5.45269 0)
(-0.0126702 -5.42564 0)
(-0.0148426 -5.37657 0)
(-0.0156255 -5.28715 0)
(-0.0144904 -5.12374 0)
(-0.0110506 -4.83248 0)
(-0.00575563 -4.33563 0)
(-0.00243808 -3.22448 0)
(0.00222271 -3.23282 0)
(0.00567286 -4.34535 0)
(0.0113825 -4.84064 0)
(0.0149959 -5.12824 0)
(0.0161268 -5.28783 0)
(0.0151951 -5.3741 0)
(0.0128707 -5.42096 0)
(0.00964819 -5.44651 0)
(0.00588585 -5.45989 0)
(0.00185059 -5.46557 0)
(-0.00224776 -5.46538 0)
(-0.0062475 -5.45941 0)
(-0.0099895 -5.44583 0)
(-0.013186 -5.42021 0)
(-0.0154891 -5.37344 0)