/*--------------------------------*- C++ -*----------------------------------*\
  =========                 |
  \\      /  F ield         | OpenFOAM: The Open Source CFD Toolbox
   \\    /   O peration     | Website:  https://openfoam.org
    \\  /    A nd           | Version:  6
     \\/     M anipulation  |
\*---------------------------------------------------------------------------*/
FoamFile
{
    version     2.0;
    format      ascii;
    class       volVectorField;
    location    "27";
    object      U;
}
// * * * * * * * * * * * * * * * * * * * * * * * * * * * * * * * * * * * * * //

dimensions      [0 1 -1 0 0 0 0];

internalField   nonuniform List<vector> 
130000
(
(-0.0198158 -0.342675 0)
(-0.0204336 -0.365428 0)
(-0.0209955 -0.387589 0)
(-0.0215049 -0.409091 0)
(-0.02196 -0.429838 0)
(-0.0223675 -0.449743 0)
(-0.022732 -0.468723 0)
(-0.023058 -0.486704 0)
(-0.0233495 -0.503623 0)
(-0.0236106 -0.519432 0)
(-0.0238449 -0.534094 0)
(-0.0240558 -0.54759 0)
(-0.0242463 -0.559915 0)
(-0.0244192 -0.571081 0)
(-0.0245769 -0.581111 0)
(-0.0247214 -0.590044 0)
(-0.0248544 -0.59793 0)
(-0.0249775 -0.604831 0)
(-0.0250926 -0.610815 0)
(-0.0252003 -0.615963 0)
(-0.021366 -0.341157 0)
(-0.0218174 -0.363995 0)
(-0.022252 -0.386273 0)
(-0.0226699 -0.407896 0)
(-0.023054 -0.428764 0)
(-0.0234029 -0.448782 0)
(-0.0237178 -0.467866 0)
(-0.024001 -0.485942 0)
(-0.0242553 -0.502946 0)
(-0.0244836 -0.518829 0)
(-0.0246892 -0.533556 0)
(-0.0248749 -0.547109 0)
(-0.0250435 -0.559483 0)
(-0.0251974 -0.57069 0)
(-0.0253389 -0.580756 0)
(-0.0254696 -0.589721 0)
(-0.0255911 -0.597634 0)
(-0.0257046 -0.604557 0)
(-0.0258118 -0.610561 0)
(-0.0259137 -0.615723 0)
(-0.0235851 -0.340413 0)
(-0.0239483 -0.363237 0)
(-0.0242888 -0.38554 0)
(-0.0246145 -0.407206 0)
(-0.0249133 -0.428125 0)
(-0.0251849 -0.448198 0)
(-0.0254303 -0.467335 0)
(-0.0256513 -0.485459 0)
(-0.0258501 -0.502508 0)
(-0.0260292 -0.518431 0)
(-0.0261911 -0.533193 0)
(-0.0263383 -0.546776 0)
(-0.0264731 -0.559177 0)
(-0.0265975 -0.570406 0)
(-0.0267134 -0.580491 0)
(-0.0268223 -0.589471 0)
(-0.0269255 -0.597398 0)
(-0.0270241 -0.604334 0)
(-0.0271196 -0.610347 0)
(-0.0272127 -0.615517 0)
(-0.0266665 -0.339819 0)
(-0.0268789 -0.362664 0)
(-0.0270792 -0.385 0)
(-0.0272768 -0.406706 0)
(-0.0274594 -0.427668 0)
(-0.027626 -0.447784 0)
(-0.0277769 -0.466962 0)
(-0.0279128 -0.485125 0)
(-0.0280354 -0.502208 0)
(-0.0281461 -0.518161 0)
(-0.0282469 -0.532948 0)
(-0.0283396 -0.546552 0)
(-0.0284259 -0.558969 0)
(-0.0285076 -0.570212 0)
(-0.0285859 -0.580308 0)
(-0.028662 -0.589296 0)
(-0.028737 -0.597228 0)
(-0.0288117 -0.604167 0)
(-0.028887 -0.610183 0)
(-0.0289631 -0.615353 0)
(-0.0302263 -0.339545 0)
(-0.0303114 -0.36239 0)
(-0.0303821 -0.384736 0)
(-0.0304534 -0.40646 0)
(-0.030516 -0.427443 0)
(-0.0305701 -0.447581 0)
(-0.0306164 -0.46678 0)
(-0.030656 -0.484963 0)
(-0.0306901 -0.502062 0)
(-0.03072 -0.518028 0)
(-0.0307473 -0.532827 0)
(-0.0307735 -0.546438 0)
(-0.0307998 -0.558859 0)
(-0.0308276 -0.570104 0)
(-0.0308578 -0.580199 0)
(-0.0308912 -0.589185 0)
(-0.0309284 -0.597114 0)
(-0.0309698 -0.604049 0)
(-0.031016 -0.610059 0)
(-0.0310664 -0.615224 0)
(-0.0341466 -0.339513 0)
(-0.0341108 -0.362368 0)
(-0.0340578 -0.384727 0)
(-0.0340066 -0.406462 0)
(-0.0339503 -0.427456 0)
(-0.0338907 -0.447602 0)
(-0.0338293 -0.466809 0)
(-0.0337677 -0.484995 0)
(-0.0337072 -0.502096 0)
(-0.0336494 -0.518061 0)
(-0.0335958 -0.532855 0)
(-0.0335476 -0.54646 0)
(-0.0335059 -0.558873 0)
(-0.0334716 -0.570108 0)
(-0.0334454 -0.580191 0)
(-0.0334277 -0.589164 0)
(-0.0334188 -0.59708 0)
(-0.0334188 -0.604002 0)
(-0.0334276 -0.609999 0)
(-0.0334444 -0.61515 0)
(-0.0382902 -0.339716 0)
(-0.0381467 -0.362588 0)
(-0.0379815 -0.38496 0)
(-0.0378174 -0.406704 0)
(-0.0376495 -0.427701 0)
(-0.037481 -0.447847 0)
(-0.0373146 -0.467049 0)
(-0.0371526 -0.485228 0)
(-0.0369968 -0.502319 0)
(-0.0368491 -0.51827 0)
(-0.0367111 -0.533048 0)
(-0.0365841 -0.546634 0)
(-0.0364691 -0.559027 0)
(-0.0363669 -0.57024 0)
(-0.036278 -0.580301 0)
(-0.0362025 -0.589251 0)
(-0.0361406 -0.597145 0)
(-0.0360918 -0.604044 0)
(-0.0360561 -0.610019 0)
(-0.0360321 -0.61515 0)
(-0.0425683 -0.340115 0)
(-0.0423285 -0.363015 0)
(-0.0420643 -0.385406 0)
(-0.0417992 -0.407159 0)
(-0.0415294 -0.428158 0)
(-0.0412597 -0.448299 0)
(-0.040994 -0.467492 0)
(-0.0407352 -0.485656 0)
(-0.0404861 -0.502727 0)
(-0.040249 -0.518655 0)
(-0.0400258 -0.533407 0)
(-0.039818 -0.546965 0)
(-0.0396268 -0.559327 0)
(-0.0394529 -0.570508 0)
(-0.0392968 -0.580537 0)
(-0.0391586 -0.589456 0)
(-0.0390381 -0.597318 0)
(-0.038935 -0.604186 0)
(-0.0388487 -0.610132 0)
(-0.0387778 -0.615235 0)
(-0.0469245 -0.340683 0)
(-0.0466011 -0.363621 0)
(-0.0462491 -0.386039 0)
(-0.0458932 -0.407807 0)
(-0.0455305 -0.42881 0)
(-0.0451671 -0.448946 0)
(-0.044808 -0.468126 0)
(-0.0444571 -0.486271 0)
(-0.0441179 -0.503317 0)
(-0.0437932 -0.519215 0)
(-0.0434853 -0.533934 0)
(-0.0431963 -0.547455 0)
(-0.0429274 -0.559779 0)
(-0.0426795 -0.57092 0)
(-0.0424533 -0.580909 0)
(-0.0422487 -0.589787 0)
(-0.0420657 -0.597609 0)
(-0.0419037 -0.604439 0)
(-0.0417621 -0.610348 0)
(-0.0416393 -0.615417 0)
(-0.0513289 -0.341399 0)
(-0.0509309 -0.364387 0)
(-0.0504989 -0.38684 0)
(-0.0500595 -0.40863 0)
(-0.0496108 -0.429641 0)
(-0.0491599 -0.449775 0)
(-0.0487128 -0.468942 0)
(-0.0482742 -0.487065 0)
(-0.0478481 -0.504083 0)
(-0.0474382 -0.519947 0)
(-0.0470472 -0.534626 0)
(-0.0466774 -0.548105 0)
(-0.0463305 -0.560384 0)
(-0.0460076 -0.571479 0)
(-0.0457094 -0.58142 0)
(-0.0454361 -0.590251 0)
(-0.0451876 -0.598027 0)
(-0.0449635 -0.604812 0)
(-0.0447629 -0.610677 0)
(-0.0445843 -0.615704 0)
(-0.0557493 -0.342251 0)
(-0.0552892 -0.365301 0)
(-0.0547845 -0.387799 0)
(-0.0542682 -0.409616 0)
(-0.0537394 -0.430641 0)
(-0.0532064 -0.450774 0)
(-0.052676 -0.469929 0)
(-0.0521536 -0.488031 0)
(-0.0516441 -0.505019 0)
(-0.0511513 -0.520846 0)
(-0.0506788 -0.535483 0)
(-0.0502292 -0.548915 0)
(-0.0498044 -0.561144 0)
(-0.0494059 -0.572187 0)
(-0.0490346 -0.582075 0)
(-0.0486909 -0.590853 0)
(-0.0483747 -0.598576 0)
(-0.0480857 -0.605309 0)
(-0.0478231 -0.611125 0)
(-0.0475854 -0.616104 0)
(-0.0601807 -0.343225 0)
(-0.059659 -0.366349 0)
(-0.0590867 -0.388901 0)
(-0.0584985 -0.410753 0)
(-0.0578947 -0.431796 0)
(-0.0572841 -0.451934 0)
(-0.0566745 -0.471079 0)
(-0.0560719 -0.489161 0)
(-0.0554816 -0.506118 0)
(-0.0549083 -0.521908 0)
(-0.0543559 -0.5365 0)
(-0.0538273 -0.549882 0)
(-0.0533251 -0.562058 0)
(-0.0528508 -0.573045 0)
(-0.0524057 -0.582876 0)
(-0.0519903 -0.591595 0)
(-0.0516048 -0.59926 0)
(-0.0512489 -0.605936 0)
(-0.0509219 -0.611697 0)
(-0.0506224 -0.616622 0)
(-0.0646062 -0.34431 0)
(-0.0640283 -0.367519 0)
(-0.0633933 -0.390134 0)
(-0.062738 -0.412031 0)
(-0.0620632 -0.433099 0)
(-0.0613786 -0.453245 0)
(-0.0606928 -0.472386 0)
(-0.0600125 -0.490449 0)
(-0.0593437 -0.507378 0)
(-0.0586915 -0.523129 0)
(-0.0580602 -0.537676 0)
(-0.0574534 -0.551006 0)
(-0.0568738 -0.563126 0)
(-0.0563235 -0.574053 0)
(-0.0558038 -0.583823 0)
(-0.0553156 -0.59248 0)
(-0.0548593 -0.600083 0)
(-0.0544346 -0.606698 0)
(-0.0540411 -0.612398 0)
(-0.0536773 -0.617265 0)
(-0.0690309 -0.345499 0)
(-0.0683981 -0.368806 0)
(-0.0677024 -0.391495 0)
(-0.0669817 -0.413444 0)
(-0.0662378 -0.434545 0)
(-0.0654812 -0.454705 0)
(-0.0647209 -0.473844 0)
(-0.0639645 -0.491892 0)
(-0.0632183 -0.508793 0)
(-0.0624881 -0.524507 0)
(-0.0617786 -0.539008 0)
(-0.0610939 -0.552286 0)
(-0.0604369 -0.564347 0)
(-0.05981 -0.575213 0)
(-0.059215 -0.584919 0)
(-0.0586529 -0.593511 0)
(-0.0581243 -0.601047 0)
(-0.0576292 -0.607596 0)
(-0.0571672 -0.613232 0)
(-0.0567371 -0.618036 0)
(-0.0734518 -0.346796 0)
(-0.0727653 -0.37021 0)
(-0.0720098 -0.392982 0)
(-0.0712246 -0.414991 0)
(-0.0704125 -0.436131 0)
(-0.0695848 -0.456311 0)
(-0.0687511 -0.475453 0)
(-0.0679192 -0.493488 0)
(-0.0670963 -0.510364 0)
(-0.0662884 -0.526041 0)
(-0.0655009 -0.540496 0)
(-0.0647379 -0.553721 0)
(-0.064003 -0.565723 0)
(-0.0632989 -0.576526 0)
(-0.0626275 -0.586165 0)
(-0.0619901 -0.594689 0)
(-0.0613877 -0.602156 0)
(-0.0608203 -0.608636 0)
(-0.0602878 -0.614203 0)
(-0.0597891 -0.618939 0)
(-0.0778644 -0.348197 0)
(-0.0771238 -0.371731 0)
(-0.0763097 -0.394595 0)
(-0.0754613 -0.416671 0)
(-0.0745821 -0.437856 0)
(-0.0736841 -0.458061 0)
(-0.0727774 -0.477209 0)
(-0.0718705 -0.495235 0)
(-0.0709709 -0.512088 0)
(-0.0700852 -0.527731 0)
(-0.0692192 -0.542141 0)
(-0.0683774 -0.555313 0)
(-0.0675638 -0.567256 0)
(-0.0667813 -0.577994 0)
(-0.0660322 -0.587564 0)
(-0.0653181 -0.596017 0)
(-0.0646401 -0.603413 0)
(-0.0639985 -0.60982 0)
(-0.0633935 -0.615315 0)
(-0.062824 -0.61998 0)
(-0.0822736 -0.349698 0)
(-0.0814741 -0.373362 0)
(-0.0806012 -0.396328 0)
(-0.0796899 -0.41848 0)
(-0.078744 -0.439717 0)
(-0.0777758 -0.459953 0)
(-0.0767963 -0.479113 0)
(-0.075814 -0.497134 0)
(-0.0748372 -0.513967 0)
(-0.073873 -0.529577 0)
(-0.0729276 -0.543943 0)
(-0.0720059 -0.557063 0)
(-0.0711122 -0.568946 0)
(-0.0702498 -0.579618 0)
(-0.0694213 -0.58912 0)
(-0.0686285 -0.5975 0)
(-0.0678728 -0.604822 0)
(-0.0671549 -0.611154 0)
(-0.066475 -0.616573 0)
(-0.0658324 -0.621163 0)
(-0.0866737 -0.351297 0)
(-0.0858189 -0.375101 0)
(-0.0848876 -0.398179 0)
(-0.083913 -0.420416 0)
(-0.0828995 -0.441714 0)
(-0.0818602 -0.461987 0)
(-0.0808065 -0.481165 0)
(-0.0797477 -0.499186 0)
(-0.0786924 -0.516002 0)
(-0.0776482 -0.531581 0)
(-0.0766218 -0.545906 0)
(-0.0756185 -0.558974 0)
(-0.0746428 -0.570797 0)
(-0.0736985 -0.581404 0)
(-0.0727885 -0.590835 0)
(-0.0719148 -0.599141 0)
(-0.0710792 -0.606386 0)
(-0.0702824 -0.612641 0)
(-0.069525 -0.617982 0)
(-0.0688068 -0.622494 0)
(-0.0910805 -0.352999 0)
(-0.0901682 -0.376954 0)
(-0.089175 -0.400155 0)
(-0.0881339 -0.422486 0)
(-0.0870501 -0.443851 0)
(-0.0859372 -0.464169 0)
(-0.0848072 -0.483369 0)
(-0.0836698 -0.501393 0)
(-0.0825339 -0.518197 0)
(-0.0814077 -0.533748 0)
(-0.080298 -0.548033 0)
(-0.0792107 -0.56105 0)
(-0.0781508 -0.572815 0)
(-0.0771221 -0.583355 0)
(-0.0761279 -0.592714 0)
(-0.0751707 -0.600946 0)
(-0.0742524 -0.608112 0)
(-0.0733739 -0.614287 0)
(-0.0725363 -0.619546 0)
(-0.0717394 -0.623977 0)
(-0.095488 -0.354813 0)
(-0.0945181 -0.378931 0)
(-0.0934608 -0.402263 0)
(-0.0923509 -0.424695 0)
(-0.0911943 -0.446134 0)
(-0.0900054 -0.466502 0)
(-0.0887966 -0.48573 0)
(-0.0875781 -0.503762 0)
(-0.0863592 -0.520555 0)
(-0.0851484 -0.536082 0)
(-0.0839528 -0.550329 0)
(-0.0827789 -0.563297 0)
(-0.0816319 -0.575002 0)
(-0.080516 -0.585477 0)
(-0.0794348 -0.594764 0)
(-0.0783911 -0.602919 0)
(-0.0773869 -0.610005 0)
(-0.0764237 -0.616097 0)
(-0.0755026 -0.621273 0)
(-0.0746239 -0.625618 0)
(-0.0998952 -0.356739 0)
(-0.0988623 -0.381032 0)
(-0.0977398 -0.404504 0)
(-0.09656 -0.427047 0)
(-0.0953292 -0.448567 0)
(-0.0940624 -0.468991 0)
(-0.0927727 -0.488251 0)
(-0.0914706 -0.506296 0)
(-0.090166 -0.523084 0)
(-0.0888677 -0.538588 0)
(-0.0875834 -0.552799 0)
(-0.0863198 -0.565719 0)
(-0.0850824 -0.577367 0)
(-0.0838759 -0.587776 0)
(-0.0827043 -0.59699 0)
(-0.0815705 -0.605067 0)
(-0.0804769 -0.612072 0)
(-0.0794254 -0.618079 0)
(-0.0784171 -0.623168 0)
(-0.077453 -0.627425 0)
(-0.104299 -0.358773 0)
(-0.103204 -0.383253 0)
(-0.102016 -0.406878 0)
(-0.100764 -0.429541 0)
(-0.0994572 -0.451153 0)
(-0.0981098 -0.471639 0)
(-0.096736 -0.490939 0)
(-0.0953471 -0.509001 0)
(-0.0939533 -0.525787 0)
(-0.0925641 -0.541273 0)
(-0.0911874 -0.55545 0)
(-0.0898304 -0.568324 0)
(-0.0884989 -0.579915 0)
(-0.0871981 -0.590258 0)
(-0.085932 -0.5994 0)
(-0.0847042 -0.607398 0)
(-0.0835174 -0.61432 0)
(-0.0823734 -0.62024 0)
(-0.0812742 -0.625239 0)
(-0.0802208 -0.629405 0)
(-0.108718 -0.360922 0)
(-0.107556 -0.385602 0)
(-0.106296 -0.409392 0)
(-0.104969 -0.432187 0)
(-0.103581 -0.453897 0)
(-0.102149 -0.474455 0)
(-0.100687 -0.4938 0)
(-0.0992072 -0.511885 0)
(-0.0977202 -0.528673 0)
(-0.0962358 -0.544145 0)
(-0.0947626 -0.558291 0)
(-0.0933079 -0.57112 0)
(-0.0918781 -0.582656 0)
(-0.0904784 -0.592934 0)
(-0.0891136 -0.602002 0)
(-0.0877873 -0.609921 0)
(-0.0865027 -0.616757 0)
(-0.085262 -0.622588 0)
(-0.0840673 -0.627495 0)
(-0.0829202 -0.631565 0)
(-0.113146 -0.363201 0)
(-0.111916 -0.388094 0)
(-0.110581 -0.412059 0)
(-0.109174 -0.434993 0)
(-0.107701 -0.456812 0)
(-0.106179 -0.477448 0)
(-0.104625 -0.496845 0)
(-0.10305 -0.514957 0)
(-0.101465 -0.531752 0)
(-0.0998812 -0.547211 0)
(-0.0983067 -0.56133 0)
(-0.0967495 -0.574117 0)
(-0.0952165 -0.585598 0)
(-0.0937132 -0.595811 0)
(-0.0922447 -0.604806 0)
(-0.0908151 -0.612644 0)
(-0.0894278 -0.619394 0)
(-0.0880854 -0.625134 0)
(-0.0867904 -0.629945 0)
(-0.0855449 -0.633917 0)
(-0.117582 -0.36561 0)
(-0.116278 -0.390729 0)
(-0.114866 -0.414881 0)
(-0.113375 -0.437966 0)
(-0.111814 -0.459902 0)
(-0.1102 -0.480624 0)
(-0.10855 -0.50008 0)
(-0.106875 -0.518226 0)
(-0.105187 -0.535033 0)
(-0.103498 -0.550484 0)
(-0.101817 -0.564577 0)
(-0.100153 -0.577324 0)
(-0.098511 -0.588753 0)
(-0.0968987 -0.598902 0)
(-0.0953211 -0.607823 0)
(-0.0937826 -0.615579 0)
(-0.0922873 -0.622241 0)
(-0.0908378 -0.627887 0)
(-0.0894373 -0.6326 0)
(-0.088088 -0.636469 0)
(-0.122024 -0.368149 0)
(-0.120647 -0.393512 0)
(-0.119155 -0.417865 0)
(-0.117578 -0.441113 0)
(-0.115925 -0.463177 0)
(-0.114213 -0.483995 0)
(-0.112461 -0.503517 0)
(-0.110681 -0.521703 0)
(-0.108885 -0.538527 0)
(-0.107086 -0.553974 0)
(-0.105293 -0.568045 0)
(-0.103514 -0.580754 0)
(-0.101758 -0.592131 0)
(-0.100031 -0.602216 0)
(-0.0983384 -0.611064 0)
(-0.0966853 -0.618738 0)
(-0.0950759 -0.62531 0)
(-0.0935135 -0.63086 0)
(-0.0920015 -0.63547 0)
(-0.0905428 -0.639233 0)
(-0.126487 -0.370829 0)
(-0.125033 -0.396451 0)
(-0.123455 -0.42102 0)
(-0.121785 -0.444445 0)
(-0.120033 -0.466647 0)
(-0.118219 -0.48757 0)
(-0.116359 -0.507166 0)
(-0.114467 -0.525399 0)
(-0.112558 -0.542245 0)
(-0.110642 -0.557692 0)
(-0.108731 -0.571744 0)
(-0.106832 -0.584418 0)
(-0.104955 -0.595745 0)
(-0.103106 -0.605767 0)
(-0.101292 -0.614541 0)
(-0.0995179 -0.622132 0)
(-0.0977881 -0.628612 0)
(-0.0961065 -0.634063 0)
(-0.0944766 -0.638568 0)
(-0.092902 -0.642221 0)
(-0.130964 -0.373663 0)
(-0.129432 -0.399561 0)
(-0.127764 -0.424361 0)
(-0.125996 -0.447974 0)
(-0.12414 -0.470325 0)
(-0.122216 -0.491362 0)
(-0.120243 -0.51104 0)
(-0.118234 -0.529327 0)
(-0.116204 -0.5462 0)
(-0.114165 -0.561653 0)
(-0.112128 -0.57569 0)
(-0.110103 -0.58833 0)
(-0.108098 -0.599608 0)
(-0.106121 -0.609568 0)
(-0.104178 -0.618268 0)
(-0.102275 -0.625774 0)
(-0.100418 -0.632161 0)
(-0.0986101 -0.63751 0)
(-0.0968555 -0.641907 0)
(-0.0951582 -0.645445 0)
(-0.135459 -0.376655 0)
(-0.133842 -0.402849 0)
(-0.132079 -0.427896 0)
(-0.130208 -0.45171 0)
(-0.128243 -0.474222 0)
(-0.126205 -0.495383 0)
(-0.124111 -0.515152 0)
(-0.121978 -0.533499 0)
(-0.119821 -0.550407 0)
(-0.117651 -0.565869 0)
(-0.115482 -0.579894 0)
(-0.113322 -0.592505 0)
(-0.111182 -0.603735 0)
(-0.109068 -0.613634 0)
(-0.106989 -0.622259 0)
(-0.104951 -0.62968 0)
(-0.102959 -0.635971 0)
(-0.101017 -0.641216 0)
(-0.09913 -0.645501 0)
(-0.0973025 -0.64892 0)
(-0.139977 -0.379814 0)
(-0.138268 -0.406322 0)
(-0.136404 -0.431632 0)
(-0.134425 -0.455663 0)
(-0.132344 -0.478349 0)
(-0.130184 -0.499645 0)
(-0.127963 -0.519514 0)
(-0.125699 -0.53793 0)
(-0.123406 -0.554878 0)
(-0.121098 -0.570355 0)
(-0.118788 -0.584373 0)
(-0.116486 -0.596956 0)
(-0.114202 -0.608141 0)
(-0.111945 -0.617979 0)
(-0.109721 -0.62653 0)
(-0.107539 -0.633864 0)
(-0.105403 -0.640057 0)
(-0.103319 -0.645195 0)
(-0.101292 -0.649364 0)
(-0.0993264 -0.652659 0)
(-0.144517 -0.383148 0)
(-0.14271 -0.409991 0)
(-0.140739 -0.435583 0)
(-0.138646 -0.459846 0)
(-0.136442 -0.482719 0)
(-0.134153 -0.504162 0)
(-0.131798 -0.524141 0)
(-0.129394 -0.542634 0)
(-0.126958 -0.559629 0)
(-0.124504 -0.575127 0)
(-0.122044 -0.589142 0)
(-0.119591 -0.601701 0)
(-0.117154 -0.612843 0)
(-0.114743 -0.622621 0)
(-0.112366 -0.631097 0)
(-0.110031 -0.638342 0)
(-0.107743 -0.644437 0)
(-0.105508 -0.649464 0)
(-0.103332 -0.653512 0)
(-0.10122 -0.656678 0)
(-0.149085 -0.38667 0)
(-0.147175 -0.413869 0)
(-0.145091 -0.43976 0)
(-0.142874 -0.464272 0)
(-0.140541 -0.487347 0)
(-0.138114 -0.508949 0)
(-0.135616 -0.529049 0)
(-0.133064 -0.547628 0)
(-0.130475 -0.564678 0)
(-0.127865 -0.580203 0)
(-0.125246 -0.59422 0)
(-0.122632 -0.606757 0)
(-0.120033 -0.617859 0)
(-0.117459 -0.627578 0)
(-0.114919 -0.635979 0)
(-0.11242 -0.643135 0)
(-0.109971 -0.649127 0)
(-0.107576 -0.65404 0)
(-0.105241 -0.657963 0)
(-0.102974 -0.660995 0)
(-0.153682 -0.39039 0)
(-0.151662 -0.417968 0)
(-0.149457 -0.444179 0)
(-0.147111 -0.468957 0)
(-0.144639 -0.492249 0)
(-0.142067 -0.514023 0)
(-0.139416 -0.534256 0)
(-0.136707 -0.552931 0)
(-0.133956 -0.570044 0)
(-0.131179 -0.585603 0)
(-0.128392 -0.599626 0)
(-0.125606 -0.612146 0)
(-0.122834 -0.623209 0)
(-0.120086 -0.63287 0)
(-0.117372 -0.641196 0)
(-0.1147 -0.648261 0)
(-0.112078 -0.654148 0)
(-0.109513 -0.658943 0)
(-0.10701 -0.662737 0)
(-0.104576 -0.665629 0)
(-0.158311 -0.39432 0)
(-0.156176 -0.422302 0)
(-0.153844 -0.448854 0)
(-0.15136 -0.473917 0)
(-0.14874 -0.497443 0)
(-0.146013 -0.519404 0)
(-0.1432 -0.539781 0)
(-0.140323 -0.558563 0)
(-0.137398 -0.575748 0)
(-0.134445 -0.591347 0)
(-0.131477 -0.605382 0)
(-0.128509 -0.61789 0)
(-0.125553 -0.628916 0)
(-0.12262 -0.63852 0)
(-0.11972 -0.64677 0)
(-0.116864 -0.653743 0)
(-0.114058 -0.659522 0)
(-0.11131 -0.664195 0)
(-0.108628 -0.667855 0)
(-0.106017 -0.670599 0)
(-0.162977 -0.398474 0)
(-0.16072 -0.426886 0)
(-0.158252 -0.453802 0)
(-0.155621 -0.47917 0)
(-0.152844 -0.502947 0)
(-0.149951 -0.525111 0)
(-0.146966 -0.545646 0)
(-0.14391 -0.564545 0)
(-0.140802 -0.581811 0)
(-0.137659 -0.597458 0)
(-0.1345 -0.611512 0)
(-0.131337 -0.62401 0)
(-0.128184 -0.635003 0)
(-0.125053 -0.644552 0)
(-0.121956 -0.652726 0)
(-0.118901 -0.659605 0)
(-0.1159 -0.665273 0)
(-0.112958 -0.66982 0)
(-0.110083 -0.673339 0)
(-0.107284 -0.675929 0)
(-0.167684 -0.402865 0)
(-0.165298 -0.431736 0)
(-0.162685 -0.45904 0)
(-0.159898 -0.484735 0)
(-0.156954 -0.508783 0)
(-0.153885 -0.531166 0)
(-0.150716 -0.551873 0)
(-0.147469 -0.570902 0)
(-0.144164 -0.588259 0)
(-0.14082 -0.603962 0)
(-0.137455 -0.61804 0)
(-0.134084 -0.630534 0)
(-0.130721 -0.641497 0)
(-0.12738 -0.650991 0)
(-0.124071 -0.659089 0)
(-0.120806 -0.665872 0)
(-0.117594 -0.671426 0)
(-0.114445 -0.675842 0)
(-0.111365 -0.679214 0)
(-0.108365 -0.681643 0)
(-0.172438 -0.407508 0)
(-0.169913 -0.436868 0)
(-0.167146 -0.464588 0)
(-0.164192 -0.490634 0)
(-0.161071 -0.514972 0)
(-0.157813 -0.537591 0)
(-0.154448 -0.558486 0)
(-0.150997 -0.577657 0)
(-0.147482 -0.595117 0)
(-0.143924 -0.610885 0)
(-0.14034 -0.624995 0)
(-0.136746 -0.637489 0)
(-0.133159 -0.648425 0)
(-0.129592 -0.657866 0)
(-0.126057 -0.665888 0)
(-0.122566 -0.672574 0)
(-0.11913 -0.67801 0)
(-0.115758 -0.68229 0)
(-0.11246 -0.685508 0)
(-0.109244 -0.687768 0)
(-0.17724 -0.412421 0)
(-0.174569 -0.442302 0)
(-0.171638 -0.470465 0)
(-0.168507 -0.496886 0)
(-0.165196 -0.521538 0)
(-0.161738 -0.544412 0)
(-0.158163 -0.565511 0)
(-0.154495 -0.584839 0)
(-0.150756 -0.602413 0)
(-0.146967 -0.618256 0)
(-0.143149 -0.632404 0)
(-0.139318 -0.644905 0)
(-0.135491 -0.655817 0)
(-0.131681 -0.665208 0)
(-0.127904 -0.673154 0)
(-0.124172 -0.679739 0)
(-0.120496 -0.685055 0)
(-0.116886 -0.689193 0)
(-0.113353 -0.692251 0)
(-0.109907 -0.694331 0)
(-0.182098 -0.417619 0)
(-0.179269 -0.448056 0)
(-0.176164 -0.476693 0)
(-0.172844 -0.503517 0)
(-0.169331 -0.528504 0)
(-0.16566 -0.551656 0)
(-0.161861 -0.572976 0)
(-0.157961 -0.592477 0)
(-0.153982 -0.610177 0)
(-0.149948 -0.626105 0)
(-0.145879 -0.640301 0)
(-0.141793 -0.652815 0)
(-0.137708 -0.663708 0)
(-0.13364 -0.673049 0)
(-0.129603 -0.680919 0)
(-0.125612 -0.687403 0)
(-0.121679 -0.692593 0)
(-0.117814 -0.696583 0)
(-0.11403 -0.699473 0)
(-0.110336 -0.701365 0)
(-0.187017 -0.423121 0)
(-0.184021 -0.454151 0)
(-0.180731 -0.483295 0)
(-0.177209 -0.510551 0)
(-0.17348 -0.5359 0)
(-0.169581 -0.55935 0)
(-0.165543 -0.580912 0)
(-0.161394 -0.600601 0)
(-0.157159 -0.618442 0)
(-0.152862 -0.634468 0)
(-0.148524 -0.64872 0)
(-0.144166 -0.661254 0)
(-0.139805 -0.672131 0)
(-0.135459 -0.681426 0)
(-0.131144 -0.68922 0)
(-0.126875 -0.6956 0)
(-0.122665 -0.70066 0)
(-0.118528 -0.704497 0)
(-0.114473 -0.70721 0)
(-0.110515 -0.708903 0)
(-0.192002 -0.428947 0)
(-0.188829 -0.46061 0)
(-0.18534 -0.490296 0)
(-0.181603 -0.518014 0)
(-0.177644 -0.543753 0)
(-0.173501 -0.567526 0)
(-0.169209 -0.58935 0)
(-0.164794 -0.609247 0)
(-0.160284 -0.627244 0)
(-0.155705 -0.64338 0)
(-0.15108 -0.657699 0)
(-0.146429 -0.670259 0)
(-0.141772 -0.681127 0)
(-0.137128 -0.690378 0)
(-0.132514 -0.698096 0)
(-0.127947 -0.70437 0)
(-0.12344 -0.709297 0)
(-0.119009 -0.712973 0)
(-0.114664 -0.715499 0)
(-0.110421 -0.716982 0)
(-0.19706 -0.435119 0)
(-0.193698 -0.467456 0)
(-0.189998 -0.497721 0)
(-0.186033 -0.525936 0)
(-0.181828 -0.552094 0)
(-0.177425 -0.576217 0)
(-0.172859 -0.598327 0)
(-0.16816 -0.61845 0)
(-0.163357 -0.636621 0)
(-0.158476 -0.65288 0)
(-0.153541 -0.667278 0)
(-0.148576 -0.679874 0)
(-0.143602 -0.690738 0)
(-0.138638 -0.699948 0)
(-0.133702 -0.70759 0)
(-0.128814 -0.713757 0)
(-0.123988 -0.718544 0)
(-0.11924 -0.722052 0)
(-0.114584 -0.724383 0)
(-0.110035 -0.725643 0)
(-0.202198 -0.441657 0)
(-0.198634 -0.474714 0)
(-0.19471 -0.5056 0)
(-0.1905 -0.534347 0)
(-0.186034 -0.560957 0)
(-0.181354 -0.585458 0)
(-0.176496 -0.607878 0)
(-0.171493 -0.628251 0)
(-0.166374 -0.646614 0)
(-0.161169 -0.663013 0)
(-0.155903 -0.677501 0)
(-0.1506 -0.690143 0)
(-0.145284 -0.70101 0)
(-0.139975 -0.710183 0)
(-0.134694 -0.71775 0)
(-0.129459 -0.723806 0)
(-0.12429 -0.72845 0)
(-0.119202 -0.731782 0)
(-0.11421 -0.733905 0)
(-0.109331 -0.734929 0)
(-0.207425 -0.448585 0)
(-0.203647 -0.482411 0)
(-0.199484 -0.51396 0)
(-0.195014 -0.543279 0)
(-0.190268 -0.570376 0)
(-0.185291 -0.595286 0)
(-0.180121 -0.618046 0)
(-0.174791 -0.638692 0)
(-0.169335 -0.657268 0)
(-0.163782 -0.673824 0)
(-0.15816 -0.688417 0)
(-0.152494 -0.701115 0)
(-0.146809 -0.711993 0)
(-0.141129 -0.721133 0)
(-0.135475 -0.728627 0)
(-0.129868 -0.734571 0)
(-0.124327 -0.739065 0)
(-0.118872 -0.742212 0)
(-0.113518 -0.744117 0)
(-0.108284 -0.744889 0)
(-0.212749 -0.455928 0)
(-0.208741 -0.490575 0)
(-0.204323 -0.522835 0)
(-0.199577 -0.552768 0)
(-0.194533 -0.58039 0)
(-0.189239 -0.605744 0)
(-0.183735 -0.628872 0)
(-0.178056 -0.649819 0)
(-0.172238 -0.668632 0)
(-0.166311 -0.685365 0)
(-0.160305 -0.700079 0)
(-0.154248 -0.712846 0)
(-0.148166 -0.723743 0)
(-0.142085 -0.732856 0)
(-0.136028 -0.740278 0)
(-0.130018 -0.746107 0)
(-0.124077 -0.750446 0)
(-0.118225 -0.753399 0)
(-0.11248 -0.755072 0)
(-0.106862 -0.755577 0)
(-0.218177 -0.463712 0)
(-0.213927 -0.499235 0)
(-0.209238 -0.532256 0)
(-0.204197 -0.562849 0)
(-0.198836 -0.591038 0)
(-0.193203 -0.616874 0)
(-0.187341 -0.640405 0)
(-0.181289 -0.661682 0)
(-0.175081 -0.680758 0)
(-0.168751 -0.69769 0)
(-0.162332 -0.712544 0)
(-0.155854 -0.725394 0)
(-0.149343 -0.736321 0)
(-0.142829 -0.745413 0)
(-0.136337 -0.752765 0)
(-0.129891 -0.758478 0)
(-0.123517 -0.762656 0)
(-0.117235 -0.765405 0)
(-0.111066 -0.766833 0)
(-0.105033 -0.767051 0)
(-0.22372 -0.471964 0)
(-0.219211 -0.508422 0)
(-0.214236 -0.542258 0)
(-0.208881 -0.573562 0)
(-0.203182 -0.602363 0)
(-0.197187 -0.628723 0)
(-0.190943 -0.652695 0)
(-0.184489 -0.674336 0)
(-0.177863 -0.693704 0)
(-0.1711 -0.710861 0)
(-0.164235 -0.725876 0)
(-0.157301 -0.738826 0)
(-0.150327 -0.749795 0)
(-0.143343 -0.758874 0)
(-0.136379 -0.766159 0)
(-0.129461 -0.771754 0)
(-0.122616 -0.775764 0)
(-0.115868 -0.778298 0)
(-0.109241 -0.779464 0)
(-0.102758 -0.779377 0)
(-0.229389 -0.48071 0)
(-0.224606 -0.518167 0)
(-0.219327 -0.552877 0)
(-0.21364 -0.584945 0)
(-0.20758 -0.614411 0)
(-0.201199 -0.64134 0)
(-0.194545 -0.665796 0)
(-0.18766 -0.68784 0)
(-0.180582 -0.707534 0)
(-0.173352 -0.724945 0)
(-0.166005 -0.740146 0)
(-0.158577 -0.753215 0)
(-0.1511 -0.76424 0)
(-0.143607 -0.773314 0)
(-0.13613 -0.780537 0)
(-0.128699 -0.786012 0)
(-0.121343 -0.789848 0)
(-0.114089 -0.792154 0)
(-0.106963 -0.793042 0)
(-0.0999916 -0.792626 0)
(-0.235198 -0.489981 0)
(-0.230124 -0.528503 0)
(-0.224522 -0.56415 0)
(-0.218482 -0.597044 0)
(-0.212037 -0.62723 0)
(-0.205244 -0.654782 0)
(-0.19815 -0.679769 0)
(-0.190801 -0.702259 0)
(-0.183237 -0.722318 0)
(-0.175502 -0.740017 0)
(-0.167633 -0.755431 0)
(-0.159668 -0.768643 0)
(-0.151644 -0.779741 0)
(-0.143598 -0.788821 0)
(-0.135562 -0.795985 0)
(-0.127571 -0.801339 0)
(-0.119658 -0.804993 0)
(-0.111853 -0.807058 0)
(-0.104184 -0.807648 0)
(-0.096682 -0.806878 0)
(-0.241155 -0.499803 0)
(-0.235774 -0.539464 0)
(-0.229832 -0.576118 0)
(-0.223417 -0.609903 0)
(-0.216564 -0.640871 0)
(-0.209329 -0.669105 0)
(-0.201763 -0.694679 0)
(-0.193914 -0.717664 0)
(-0.185825 -0.738133 0)
(-0.177541 -0.756159 0)
(-0.169104 -0.77182 0)
(-0.160556 -0.7852 0)
(-0.151936 -0.796391 0)
(-0.143284 -0.805491 0)
(-0.134638 -0.812602 0)
(-0.126036 -0.817833 0)
(-0.117515 -0.821296 0)
(-0.109109 -0.823105 0)
(-0.100848 -0.823375 0)
(-0.0927671 -0.822222 0)
(-0.247278 -0.510208 0)
(-0.241573 -0.551084 0)
(-0.235271 -0.58882 0)
(-0.228459 -0.623571 0)
(-0.221169 -0.655392 0)
(-0.213461 -0.684374 0)
(-0.205388 -0.710597 0)
(-0.196998 -0.734137 0)
(-0.18834 -0.755067 0)
(-0.179459 -0.773465 0)
(-0.170403 -0.789411 0)
(-0.161217 -0.802991 0)
(-0.151944 -0.814299 0)
(-0.142629 -0.823432 0)
(-0.133314 -0.830497 0)
(-0.124042 -0.835604 0)
(-0.114855 -0.838866 0)
(-0.10579 -0.8404 0)
(-0.0968816 -0.840324 0)
(-0.0881701 -0.838754 0)
(-0.253579 -0.521223 0)
(-0.247534 -0.563398 0)
(-0.240852 -0.6023 0)
(-0.233619 -0.638098 0)
(-0.225864 -0.670853 0)
(-0.217649 -0.700661 0)
(-0.209028 -0.727605 0)
(-0.200053 -0.751766 0)
(-0.190774 -0.773219 0)
(-0.181242 -0.792043 0)
(-0.171508 -0.808319 0)
(-0.161621 -0.822136 0)
(-0.15163 -0.833586 0)
(-0.141585 -0.842771 0)
(-0.131534 -0.849797 0)
(-0.121525 -0.854777 0)
(-0.111604 -0.857826 0)
(-0.101816 -0.859063 0)
(-0.0921996 -0.858609 0)
(-0.0827986 -0.856583 0)
(-0.260077 -0.532878 0)
(-0.253674 -0.576442 0)
(-0.246592 -0.616602 0)
(-0.238912 -0.65354 0)
(-0.230661 -0.687321 0)
(-0.221899 -0.718044 0)
(-0.212685 -0.745794 0)
(-0.203072 -0.770654 0)
(-0.193115 -0.792701 0)
(-0.182868 -0.812013 0)
(-0.172387 -0.828673 0)
(-0.161727 -0.842769 0)
(-0.150943 -0.854395 0)
(-0.140091 -0.863651 0)
(-0.129225 -0.870646 0)
(-0.118401 -0.875494 0)
(-0.107672 -0.878314 0)
(-0.0970871 -0.879226 0)
(-0.0866918 -0.878358 0)
(-0.0765358 -0.875829 0)
(-0.266786 -0.545198 0)
(-0.260008 -0.590249 0)
(-0.252507 -0.631771 0)
(-0.244353 -0.669957 0)
(-0.235569 -0.704871 0)
(-0.226218 -0.736611 0)
(-0.216359 -0.765266 0)
(-0.206048 -0.790918 0)
(-0.195345 -0.813642 0)
(-0.184309 -0.833518 0)
(-0.173002 -0.850624 0)
(-0.161485 -0.86505 0)
(-0.149819 -0.876887 0)
(-0.13807 -0.886238 0)
(-0.126298 -0.89321 0)
(-0.114569 -0.89792 0)
(-0.102942 -0.900489 0)
(-0.0914763 -0.901043 0)
(-0.0802227 -0.899712 0)
(-0.0692383 -0.896621 0)
(-0.273729 -0.558209 0)
(-0.266561 -0.604854 0)
(-0.258617 -0.647857 0)
(-0.249958 -0.687414 0)
(-0.240601 -0.723584 0)
(-0.230609 -0.756465 0)
(-0.220044 -0.786142 0)
(-0.208966 -0.812694 0)
(-0.197438 -0.836194 0)
(-0.185527 -0.85672 0)
(-0.173299 -0.874347 0)
(-0.160826 -0.889162 0)
(-0.148176 -0.901254 0)
(-0.135423 -0.910725 0)
(-0.122639 -0.917683 0)
(-0.109898 -0.922245 0)
(-0.0972704 -0.924535 0)
(-0.0848256 -0.924685 0)
(-0.0726225 -0.922832 0)
(-0.0607264 -0.919105 0)
(-0.280924 -0.57193 0)
(-0.27335 -0.620291 0)
(-0.26494 -0.664913 0)
(-0.255742 -0.705987 0)
(-0.245763 -0.743561 0)
(-0.23507 -0.777726 0)
(-0.223726 -0.808561 0)
(-0.211797 -0.83614 0)
(-0.199351 -0.860533 0)
(-0.186462 -0.881811 0)
(-0.173206 -0.900046 0)
(-0.15966 -0.915319 0)
(-0.145905 -0.927716 0)
(-0.132026 -0.937337 0)
(-0.118104 -0.944288 0)
(-0.104228 -0.948688 0)
(-0.0904806 -0.950664 0)
(-0.0769429 -0.950352 0)
(-0.0636847 -0.947899 0)
(-0.0507822 -0.943444 0)
(-0.288401 -0.586381 0)
(-0.280402 -0.6366 0)
(-0.271496 -0.683002 0)
(-0.261711 -0.725767 0)
(-0.25105 -0.76492 0)
(-0.239579 -0.800537 0)
(-0.227367 -0.832691 0)
(-0.214486 -0.861447 0)
(-0.201011 -0.886867 0)
(-0.187025 -0.909016 0)
(-0.172611 -0.927959 0)
(-0.15786 -0.943771 0)
(-0.142862 -0.956533 0)
(-0.127714 -0.966338 0)
(-0.112514 -0.97329 0)
(-0.0973621 -0.977508 0)
(-0.0823569 -0.979121 0)
(-0.0675957 -0.978274 0)
(-0.0531618 -0.975122 0)
(-0.0391453 -0.969819 0)
(-0.29617 -0.60158 0)
(-0.287722 -0.653829 0)
(-0.278278 -0.702212 0)
(-0.267847 -0.746875 0)
(-0.256422 -0.787813 0)
(-0.244074 -0.825083 0)
(-0.230881 -0.858743 0)
(-0.216922 -0.888847 0)
(-0.202283 -0.915448 0)
(-0.187058 -0.938603 0)
(-0.171341 -0.958369 0)
(-0.155233 -0.97481 0)
(-0.138838 -0.988001 0)
(-0.122268 -0.998027 0)
(-0.105634 -1.00499 0)
(-0.0890533 -1.009 0)
(-0.0726416 -1.01019 0)
(-0.056514 -1.00872 0)
(-0.0407712 -1.00474 0)
(-0.0255208 -0.998443 0)
(-0.304253 -0.617567 0)
(-0.295316 -0.672054 0)
(-0.285259 -0.72267 0)
(-0.274083 -0.769488 0)
(-0.261775 -0.812453 0)
(-0.248414 -0.851607 0)
(-0.234088 -0.886988 0)
(-0.218893 -0.918632 0)
(-0.202927 -0.946584 0)
(-0.186296 -0.970891 0)
(-0.169108 -0.9916 0)
(-0.151479 -1.00877 0)
(-0.133528 -1.02245 0)
(-0.115378 -1.03274 0)
(-0.097156 -1.03971 0)
(-0.0789963 -1.04349 0)
(-0.0610312 -1.04419 0)
(-0.0433945 -1.04198 0)
(-0.0262063 -1.03704 0)
(-0.0095959 -1.02956 0)
(-0.312626 -0.634414 0)
(-0.303128 -0.69142 0)
(-0.292352 -0.744578 0)
(-0.280279 -0.793862 0)
(-0.266909 -0.839157 0)
(-0.252337 -0.88046 0)
(-0.236675 -0.91779 0)
(-0.220039 -0.951171 0)
(-0.202545 -0.980644 0)
(-0.184314 -1.00625 0)
(-0.165476 -1.02801 0)
(-0.146161 -1.04599 0)
(-0.1265 -1.06022 0)
(-0.106629 -1.07079 0)
(-0.0866903 -1.07777 0)
(-0.066828 -1.08127 0)
(-0.0471899 -1.08142 0)
(-0.0279247 -1.07836 0)
(-0.00917101 -1.07228 0)
(0.00891891 -1.06344 0)
(-0.321251 -0.652276 0)
(-0.311058 -0.71218 0)
(-0.299375 -0.768279 0)
(-0.286183 -0.820409 0)
(-0.271498 -0.868369 0)
(-0.255454 -0.912106 0)
(-0.238191 -0.951623 0)
(-0.219854 -0.986937 0)
(-0.200592 -1.01808 0)
(-0.180549 -1.04508 0)
(-0.15988 -1.06796 0)