/*--------------------------------*- C++ -*----------------------------------*\
  =========                 |
  \\      /  F ield         | OpenFOAM: The Open Source CFD Toolbox
   \\    /   O peration     | Website:  https://openfoam.org
    \\  /    A nd           | Version:  6
     \\/     M anipulation  |
\*---------------------------------------------------------------------------*/
FoamFile
{
    version     2.0;
    format      ascii;
    class       volScalarField;
    location    "3";
    object      epsilon;
}
// * * * * * * * * * * * * * * * * * * * * * * * * * * * * * * * * * * * * * //

dimensions      [0 2 -3 0 0 0 0];

internalField   nonuniform List<scalar> 
10000
(
954.83
405.614
223.225
119.652
66.152
40.3855
27.7592
21.5943
18.6779
17.5905
17.8331
19.4043
22.8219
29.4249
41.9737
65.842
112.517
202.283
379.626
965.941
892.547
400.175
217.297
113.278
60.2261
36.1286
25.1952
20.1025
17.7434
16.9131
17.1276
18.4382
21.2656
26.793
37.8194
60.6486
108.297
196.5
370.905
895.255
894.601
420.475
221.242
113.415
61.3948
37.031
25.664
20.3308
17.8588
16.9494
17.1648
18.4934
21.3171
26.774
37.5378
59.46
105.873
195.052
372.983
896.174
893.701
387.908
211.86
114.973
63.6417
38.4636
26.4656
20.7535
18.1224
17.0856
17.251
18.6361
21.5276
27.0647
38.173
60.0673
103.309
191.786
378.167
885.982
911.61
392.07
213.682
115.704
64.1759
38.8549
26.6806
20.8181
17.9117
16.9953
17.3471
18.9611
22.1197
27.9238
38.3505
55.9801
97.8791
197.104
379.19
897.143
888.967
390.76
211.964
115.177
64.2922
39.1532
26.968
21.0601
18.1709
17.1653
17.5375
18.94
22.0555
27.9412
38.8135
60.1506
103.826
192.751
374.268
896.464
880.516
411.751
216.538
112.319
61.5768
37.4581
26.0392
20.5937
18.2722
17.3671
17.7261
19.4022
22.9171
29.5972
42.0567
65.3096
113.073
209.059
390.392
895.383
895.393
411.622
226.691
122.837
68.3143
41.1088
27.9277
21.4482
18.5339
17.4434
17.7318
19.3879
22.8602
29.5183
42.6701
68.2696
118.212
213.947
390.357
883.135
908.35
433.151
229.008
121.6
66.1935
39.9927
27.9727
21.157
18.4901
17.4182
17.583
19.3369
22.7416
29.0349
40.3635
64.5548
114.736
216.277
402.434
883.876
912.568
418.059
227.796
127.194
71.3532
42.9463
28.739
21.5274
18.5883
17.5078
17.7715
19.361
22.6005
28.2154
40.2422
64.0483
112.06
208.711
391.467
881.707
888.612
425.201
238.733
128.478
71.1542
42.6708
28.516
21.777
18.4323
17.3072
17.6598
19.4483
22.9167
28.9254
40.9077
64.3992
111.778
206.839
387.996
881.569
879.211
459.091
246.791
124.325
69.3474
41.6853
28.2473
21.7429
18.6635
17.5532
17.8586
19.5921
23.2302
30.1143
42.9615
67.5095
115.599
209.542
389.694
902.281
882.338
439.302
238.257
122.287
64.826
38.3444
26.3581
21.1832
18.3147
17.4968
17.8806
19.6283
23.2882
30.1507
42.1073
65.297
112.828
208.199
388.822
892.359
873.693
430.632
233.152
121.473
66.0939
39.2825
26.6579
20.8771
18.4851
17.4987
17.85
19.5683
23.1928
30.1761
43.6039
69.5572
120.035
216.173
391.99
881.815
886.615
418.752
230.702
124.375
68.4951
40.52
27.0079
21.0264
18.4585
17.4775
17.805
19.472
22.9757
29.53
41.2137
66.1307
117.252
219.766
405.576
882.595
901.734
405.225
230.681
130.434
73.3384
43.1159
27.951
21.325
18.2719
17.1333
17.37
18.857
22.0585
28.3555
40.9427
65.7346
114.678
212.071
394.249
880.384
909.964
411.171
235.281
131.239
73.1131
42.3769
28.7287
21.9492
18.6461
17.2982
17.4596
18.9339
22.1503
28.4204
40.766
65.576
113.45
207.911
387.182
880.288
891.009
409.537
235.462
130.44
72.4652
43.2477
28.9726
22.0074
18.4535
17.2571
17.4972
19.0266
22.3189
28.6993
41.2579
67.579
115.247
205.818
381.039
896.094
886.705
416.64
237.896
129.504
71.0993
42.3545
28.514
21.8498
18.6429
17.3308
17.6793
19.3339
22.854
29.5658
42.2364
66.8158
114.72
206.365
380.24
881.179
916.647
425.696
240.965
127.941
66.0126
38.8559
27.4471
21.0168
18.1439
17.1319
17.5888
19.313
22.885
29.6735
42.2051
64.1197
110.678
205.901
388.846
880.599
908.089
431.237
245.911
123.954
65.9965
39.0006
26.5808
21.1838
18.367
17.253
17.344
18.8939
22.652
29.5226
42.4247
67.1216
114.486
207.233
387.139
901.502
891.19
455.863
243.139
122.61
64.7841
38.3351
26.337
20.9926
18.0751
17.1842
17.4057
18.7767
22.3531
29.0239
41.7977
66.2703
110.504
204.099
384.292
891.836
886.8
438.169
235.074
118.969
63.3919
37.6414
25.8468
20.4028
18.0711
17.1221
17.3553
18.8216
22.068
28.4223
40.8327
65.9496
115.602
211.083
386.83
881.354
915.846
435.827
231.06
116.292
61.6308
36.6852
25.3425
20.0901
17.6824
16.9541
17.233
18.6409
21.7183
27.8093
39.6039
61.8655
110.909
212.005
398.409
881.618
901.86
418.811
218.913
111.993
60.4431
36.4643
25.3265
20.0888
17.64
16.7264
16.9682
18.2943
20.7872
26.006
36.8649
59.068
105.454
202.558
388.514
896.325
879.04
396.842
208.408
114.026
62.7409
38.1831
26.372
20.6884
17.9966
16.9572
17.0997
18.3786
21.1841
26.6875
37.4463
58.3879
101.414
194.168
377.114
894.516
869.166
380.298
208.751
118.086
62.1836
37.364
25.8975
20.4434
17.8363
16.7939
16.9208
18.0704
20.5889
25.528
35.697
59.2021
103.479
192.178
371.03
896.131
871.023
395.459
207.262
121.016
68.3833
40.9818
27.927
21.583
18.522
17.1866
17.2858
18.5208
21.2683
26.468
36.2693
55.2709
96.1038
185.219
365.273
894.762
872.475
413.211
223.408
123.46
68.9044
39.5973
27.7356
21.5168
18.5472
17.4052
17.6123
19.0107
22.1242
28.0357
38.9524
60.0962
103.915
194.566
376.103
894.413
866.98
412.091
230.358
124.656
69.0716
41.2395
27.8437
21.1433
18.4235
17.2292
17.5123
19.3285
22.8706
29.518
41.8643
65.0955
112.812
208.216
388.787
892.923
870.575
441.135
236.498
123.328
67.6194
40.6804
27.6646
21.4196
18.5007
17.4225
17.7123
19.3643
22.8399
29.4546
42.5024
68.0013
117.901
213.423
389.175
880.869
873.756
422.05
225.145
115.14
62.1905
37.5355
26.8204
21.1802
18.3893
17.1997
17.4978
19.2978
22.7385
28.9999
40.274
64.4044
114.629
216.22
402.346
881.784
880.819
408.245
219.716
115.82
63.727
38.3428
25.9996
20.5216
18.2305
17.3482
17.6642
19.133
22.592
28.2117
40.1981
64.0288
112.131
208.776
391.242
879.817
887.666
392.668
216.213
118.161
66.163
39.8717
26.5232
20.6584
18.0152
17.1555
17.6887
19.4538
23.0154
29.046
41.0264
64.6541
112.326
207.496
388.173
879.844
886.011
395.912
217.401
117.282
65.1631
39.4692
27.0355
21.046
18.2974
17.3546
17.6509
19.4105
23.4023
30.3832
43.2563
68.0897
116.683
210.865
390.268
900.768
881.268
412.779
218.726
112.995
61.9018
37.9036
27.0438
21.2099
18.4283
17.4807
17.8977
19.7843
23.6204
30.5498
42.3336
66.4319
114.761
210.681
391.275
890.981
900.653
402.688
220.122
119.108
66.6703
40.7322
27.8516
21.5115
18.5538
17.5112
17.8301
19.4342
23.4276
30.7784
44.7185
71.5633
123.063
219.69
395.768
880.689
885.352
414.78
222.261
115.698
63.8301
40.1239
27.9199
21.6544
18.6611
17.5415
17.8085
19.3883
22.5363
29.2849
43.8234
70.6012
122.334
221.365
412.431
881.812
866.166
412.941
231.464
125.472
69.4984
41.3991
28.1068
21.6941
18.6407
17.4675
17.5159
18.9641
22.2739
28.6966
41.2516
66.6609
118.545
221.943
404.981
880.269
869.769
443.239
238.603
124.817
68.5208
41.1371
27.9174
21.5593
18.5831
17.4681
17.6296
18.9618
22.1684
28.5038
41.0576
66.0735
116.725
217.324
401.089
881.47
872.61
425.975
228.848
117.587
63.6179
38.2485
27.1647
21.3212
18.4866
17.415
17.6013
18.8977
22.0241
28.2232
40.4843
64.6452
113.41
211.654
394.89
879.341
879.062
415.838
226.299
120.102
66.265
39.62
26.5024
20.6224
17.958
17.0168
17.3005
18.7981
21.9793
28.2181
40.694
64.3962
111.524
205.83
385.322
879.153
884.842
404.156
225.675
124.098
69.6525
41.6882
27.3122
20.9344
18.1297
17.1331
17.4258
18.9391
22.1938
28.6353
42.2327
66.5958
112.958
203.05
378.193
892.044
879.936
411.359
229.017
123.728
68.7506
41.0546
27.8868
21.1955
18.275
17.2507
17.6349
19.2637
22.6979
29.2459
42.2338
66.8099
113.876
204.208
377.618
877.579
869.849
437.598
233.898
121.949
67.104
40.6179
27.7703
21.5175
18.5705
17.4838
17.738
19.3471
22.7483
28.6535
42.184
66.6291
113.667
204.586
380.81
900.525
893.134
418.787
221.483
112.958
61.196
37.237
26.8584
21.2851
18.5083
17.4537
17.7106
19.3529
22.8804
29.6121
42.4893
66.8191
113.969
205.166
380.735
884.678
904.116
403.679
214.339
111.161
60.9172
37.0917
25.7413
20.4683
18.2387
17.3258
17.4625
19.0604
22.7636
29.5125
42.3025
66.2983
113.322
205.563
384.774
900.905
910.37
390.615
206.49
108.459
60.2281
36.9309
25.7465
20.3901
17.9275
17.2261
17.599
19.2182
22.673
29.3198
41.9574
63.6646
110.131
204.168
384.26
887.372
906.151
389.835
211.403
110.985
61.8257
37.8545
26.1466
20.4542
17.88
16.9544
17.2852
19.0266
22.4069
28.875
41.7166
66.8174
116.204
211.34
388.156
889.064
909.008
403.117
210.156
115.173
64.6564
39.485
26.9816
20.6961
17.9503
16.9885
17.2779
18.9512
22.2222
28.2805
39.1932
62.8893
112.375
213.346
399.98
885.691
884.189
389.422
212.781
114.786
63.8945
38.9022
26.7676
20.8699
18.1232
17.1518
17.4373
18.9605
22.1177
27.9579
38.541
61.2947
107.781
202.69
385.647
884.267
876.223
403.235
212.84
110.231
60.394
36.8873
25.758
20.7084
18.1285
17.1833
17.4703
18.9893
22.1627
28.0443
38.4796
60.1348
104.395
195.702
376.418
887.049
878.483
386.665
210.448
114.622
64.3889
39.4678
27.0574
21.0294
18.2161
17.2009
17.4604
18.9695
22.1537
28.1523
39.6068
61.6525
104.726
192.268
370.823
900.754
880.611
404.682
214.126
111.187
61.2401
38.7694
27.0072
21.0746
18.2637
17.2332
17.476
18.9818
22.1234
27.3989
38.1463
58.8893
98.4379
184.77
363.79
890.952
888.902
399.143
220.322
119.07
65.8351
39.6253
27.0511
21.0306
18.2351
17.209
17.4237
18.7734
22.2561
28.578
40.6541
64.1155
106.947
197.511
377.143
891.018
883.776
416.284
223.116
116.301
63.3439
38.1675
26.9351
21.1005
18.3125
17.2764
17.5112
19.0057
22.2407
28.4009
40.1278
63.2612
109.356
199.709
375.365
894.594
895.327
396.569
220.254
121.142
67.6156
40.5943
27.5066
21.3197
18.4215
17.3319
17.5327
19.0398
22.2668
28.3932
39.7708
60.0155
104.368
196.488
378.595
894.187
882.017
398.775
222.979
122.997
69.06
41.5094
27.9153
21.5775
18.5489
17.3826
17.4025
19.0082
22.2458
28.3812
39.9269
61.7736
105.317
192.332
368.544
893.363
896.793
403.487
224.918
123.087
68.9011
41.5282
27.1595
21.3909
18.5041
17.3816
17.4759
18.8683
21.9434
27.79
38.7234
58.7277
100.944
189.544
368.933
887.721
878.518
409.256
227.529
122.574
68.0206
41.0527
27.7385
21.4493
18.4485
17.271
17.6799
19.3458
22.8461
29.5221
42.097
64.9225
111.552
205.217
386.091
901.171
880.65
435.828
231.685
117.571
63.4924
39.9094
27.4491
21.3539
18.4582
17.4098
17.712
19.355
22.8527
29.5538
42.3742
67.4327
116.139
208.762
383.007
885.551
887.556
410.821
222.113
117.432
64.5961
38.5679
26.2037
21.037
18.3852
17.4023
17.7109
19.341
22.8019
29.4408
42.048
65.1125
113.116
209.062
390.803
885.168
894.168
399.558
220.416
120.309
67.2719
40.381
26.6863
20.7091
18.0278
17.0999
17.4103
18.9388
22.1335
28.3127
40.6372
67.0109
114.936
205.947
381.669
898.024
891.596
404.005
221.799
118.837
65.6479
39.5592
26.945
21.0404
18.3085
17.3575
17.7134
19.3788
22.8288
29.3858
41.856
66.2668
114.47
206.656
381.157
885.394
888.595
423.928
222.887
112.452
60.1811
36.3718
26.1441
20.7855
18.2269
17.3513
17.745
19.456
23.0017
29.6585
41.9888
63.7344
111.012
207.153
390.453
884.607
910.308
402.972
211.01
110.695
60.887
36.8173
25.4067
20.1194
17.7551
17.0476
17.6802
19.4747
23.0743
29.7977
42.5146
67.0213
115.325
209.505
390.014
904.695
915.355
392.379
206.395
113.686
63.5179
38.373
26.3114
20.6201
18.0466
17.2297
17.7315
19.4873
23.0825
29.4227
41.0975
64.8908
112.836
208.403
389.631
894.988
908.549
389.226
211.761
116.158
64.4638
38.789
26.5177
20.7326
18.0967
17.2142
17.6082
19.3551
22.975
29.8942
43.265
69.2821
119.836
215.984
393.392
884.647
897.504
398.034
207.478
114.993
64.1694
38.7031
26.4855
20.708
18.0584
17.1367
17.4187
18.7484
21.9059
28.1588
40.6654
65.9084
117.34
217.011
409.058
885.249
880.463
388.99
214.069
116.887
65.1254
39.1919
26.7243
20.8209
18.1072
17.1527
17.4266
18.7963
21.9167
28.1059
40.4673
65.1235
115.095
216.69
400.682
882.885
898.324
390.986
214.94
117.245
65.3111
39.3955
26.8704
20.8919
18.1317
17.1559
17.443
18.9587
22.0102
27.8994
39.8724
63.6832
112.077
210.423
395.252
883.059
881.922
393.822
217.194
118.564
66.4152
40.2254
27.388
21.1798
18.2935
17.2424
17.3855
18.908
22.3728
28.4436
40.4626
63.8952
110.406
204.78
387.427
879.6
896.343
400.714
219.238
119.079
66.905
40.8125
27.8294
21.444
18.4637
17.3974
17.684
19.3428
22.5123
29.5178
42.268
66.457
113.05
203.856
381.087
904.119
876.67
413.076
221.456
115.345
63.7171
39.84
27.8538
21.6024
18.5963
17.4545
17.6869
19.3625
22.9182
29.6949
42.4846
66.6974
113.078
203.647
380.08
888.176
865.396
411.813
230.684
125.184
69.5652
41.3164
28.1247
21.677
18.5944
17.4298
17.6353
19.0998
22.8428
29.6003
42.2415
66.1656
111.822
202.828
382.562
900.677
868.741
440.846
237.219
124.049
68.2671
41.0759
27.911
21.5333
18.5315
17.3874
17.4975
19.093
22.7867
29.4967
42.077
65.6607
107.222
198.037
378.578
901.837
871.63
423.274
226.407
115.513
62.388
37.6541
26.9526
21.2525
18.4287
17.3044
17.6763
19.3371
22.8433
29.4565
41.8542
65.6835
112.593
203.829
378.977
891.004
878.504
413.023
220.68
113.949
62.307
37.6045
25.8369
20.4355
18.1888
17.3421
17.722
19.4215
22.9748
29.6519
41.9155
63.0916
108.697
202.32
383.987
891.127
884.898
397.122
211.556
110.658
62.0618
37.9144
26.1757
20.5759
17.98
17.1283
17.658
19.4152
23.0052
29.7617
42.4743
66.1461
112.116
202.085
378.133
888.572
875.59
379.726
204.395
110.881
64.6043
39.7827
27.2652
21.1946
18.3572
17.3474
17.6848
19.3895
22.9508
29.6955
42.1674
64.1861
109.84
203.084
384.167
901.759
879.007
383.128
208.314
110.734
65.7509
40.5255
27.6833
21.4325
18.4798
17.3811
17.5256
19.2946
22.8296
29.5382
42.6106
67.8541
116.236
208.964
383.664
887.332
871.192
394.18
208.311
116.28
66.4998
40.7248
27.7079
21.4057
18.4519
17.3725
17.6314
19.2684
22.717
29.1457
40.5226
64.9319
112.751
208.561
390.112
884.081
859.794
386.171
212.993
116.605
65.9519
40.1711
27.395
21.2728
18.3941
17.3252
17.5296
18.8898
22.0883
28.4071
41.0403
67.2275
114.838
205.877
381.716
900.459
863.139
403.024
213.997
112.028
62.3278
38.1209
26.9816
21.2156
18.3961
17.3232
17.449
19.1363
22.5789
29.177
41.7952
66.5095
114.316
206.182
380.52
885.081
878.229
380.566
207.513
113.9
65.0478
39.7797
26.4954
20.7099
18.2583
17.2901
17.5494
19.1098
22.4857
28.975
41.2542
63.6027
110.293
205.44
387.648
884.041
858.53
382.889
207.955
112.112
63.5171
39.0971
26.891
21.0489
18.2932
17.2533
17.4305
18.6535
21.665
27.6199
39.5026
64.7557
111.375
201.952
379.301
907.458
866.527
404.151
209.202
105.945
58.4147
36.1371
26.2007
20.8669
18.243
17.2461
17.4447
18.8838
22.0612
28.2083
40.0287
63.5457
110.122
201.447
377.036
885.39
893.205
380.874
196
101.566
57.9449
36.2435
25.4529
20.2857
17.8592
16.9756
17.3421
18.7979
21.916
27.8931
39.1555
59.7011
105.135
199.854
383.498
886.775
891.819
365.541
187.354
98.0339
58.6084
37.2186
26.2594
20.853
18.2552
17.2353
17.3274
18.3946
21.1044
26.4906
37.121
58.5138
104.446
195.337
375.589
896.478
884.447
361.474
186.981
97.8416
58.5419
37.2926
26.3804
20.9921
18.3728
17.3057
17.29
18.6139
21.4008
26.8704
37.539
58.5058
102.065
193.549
373.853
886.548
876.195
364.525
181.969
98.5614
57.6221
36.6612
26.0344
20.8407
18.2755
17.1327
17.3432
18.5266
21.1458
26.347
36.5198
56.3546
96.0786
186.87
371.733
887.214
862.57
355.232
181.984
96.548
55.8288
35.3679
25.194
19.9803
17.9683
17.1207
17.2146
18.1476
20.1365
24.5136
33.3016
51.0442
87.9945
170.827
349.176
874.165
843.237
359.403
177.01
88.8213
50.0535
31.6777
23.1329
19.2548
17.4136
16.7175
16.9036
18.0615
20.2124
24.4984
32.9183
49.7106
84.4019
161.947
335.292
856.948
802.127
322.279
157.387
80.6159
46.8153
30.3418
22.5599
19.2834
17.6664
16.9247
17.0063
17.8372
19.9027
23.8328
31.6845
47.4967
80.6402
155.994
317.391
822.083
743.439
295.85
146.406
75.6434
44.5292
29.7888
22.8444
19.2755
17.7736
17.2306
17.326
18.0764
19.8751
23.0058
28.5201
41.4999
70.8781
143.136
303.903
764.715
656.193
281.06
131.729
69.8356
41.7402
28.588
22.3715
19.7145
18.4421
17.9109
17.9521
18.544
19.8522
22.495
28.1615
39.8747
67.2434
134.606
286.946
677.081
550.405
263.37
118.049
58.2021
35.4119
26.9364
22.4603
20.2977
19.1475
18.6363
18.6592
19.215
20.4099
22.7295
26.827
36.3607
59.7914
118.84
266.047
565.383
459.601
245.752
102.555
51.0227
32.0066
25.2924
21.9688
20.1161
19.0934
18.6353
18.6555
19.161
20.2155
21.9554
24.7644
31.9772
50.8137
101.606
253.203
468.225
437.689
199.851
65.5501
33.1358
21.9318
17.7932
16.2958
15.7158
15.4414
15.3333
15.3534
15.5121
15.8521
16.5687
18.2702
22.4995
33.581
65.2538
196.873
441.303
461.474
74.9574
32.9408
21.49
17.2836
15.8947
15.3611
15.1285
15.016
14.9688
14.9688
15.0178
15.1338
15.383
15.95
17.3563
21.5016
32.5296
73.717
461.074
2079.52
847.761
507.29
285.252
127.18
56.3298
31.3536
21.7167
17.9651
16.833
17.2789
19.376
24.291
35.2735
61.1887
124.863
258.533
464.59
831.726
2114.18
1693.54
779.221
467.303
258.122
113.258
50.1471
28.371
20.0399
16.8988
15.9973
16.3335
17.9709
21.8751
30.7771
52.082
106.57
229.408
424.219
760.594
1745.87
1684.07
759.528
436.377
232.846
106.825
50.6466
29.7166
20.4839
16.973
16.0053
16.3332
17.9743
21.8862
30.6524
51.0248
101.568
210.055
389.481
682.378
1766.21
1505.84
744.479
447.893
256.436
121.578
55.8241
30.9665
21.0179
17.1018
15.9729
16.2062
17.766
21.5586
30.2065
50.8836
107.774
226.497
412.469
746.735
1724.47
1681.86
749.433
454.543
258.367
118.438
54.4648
30.492
20.3401
16.9928
15.917
16.1663
17.6893
21.4308
29.9709
49.6025
94.1694
215.207
405.828
739.881
1705.34
1608.68
731.819
442.296
249.353
113.356
52.3894
29.8878
21.0311
17.4224
16.0685
16.2052
17.7105
21.5089
30.5177
52.8681
99.4999
191.887
370.618
679.259
1731.65
1628.46
713.613
429.057
239.08
108.472
50.3644
28.7926
20.4802
17.2032
16.0032
16.3154
17.9711
22.0056
31.6732
58.4463
111.897
210.986
392.839
733.216
1727.77
1579.11
651.48
391.455
201.177
89.3591
42.8695
25.3745
18.7777
16.4317
16.1076
16.6004
18.5103
22.9883
33.1941
57.7015
109.946
189.47
365.932
672.874
1719.91
1385.6
664.27
402.314
218.004
100.875
48.0497
27.6684
19.8222
16.9005
16.1837
16.3176
17.8721
21.6974
30.8072
57.1741
111.979
225.626
422.384
755.485
1715.06
1476.11
701.395
419.464
237.155
112.434
53.2268
29.9288
20.7876
17.3428
16.3251
16.7265
18.603
23.0739
32.8551
56.1176
110.83
224.409
409.909
731.052
1715.61
1510.75
699.012
415.646
233.052
109.17
52.078
29.7365
20.719
17.3496
16.2877
16.6115
18.3284
22.5846
31.3811
48.9332
95.8184
206.065
391.424
653.525
1697.83
1606.09
755.17
455.296
242.419
107.735
51.7339
29.6716
19.9108
16.8221
15.8955
16.1264
17.9951
21.3151
30.9371
48.9322
94.6336
197.051
382.694
664.419
1682.88
1687.43
736.984
430.282
224.922
106.267
51.2762
29.5759
20.9238
17.4838
16.3056
16.4022
17.8839
21.6127
29.5294
47.5419
87.9203
181.047
355.309
643.777
1635.16
1601.8
717.322
430.893
240.69
96.7136
46.8582
28.8348
20.8402
17.4765
16.2611
16.7575
18.6996
23.1153
32.7113
53.2055
94.188
183.341
352.867
650.895
1511.01
1594.19
712.214
427.864
215.9
106.948
52.4709
28.1189
19.951
17.2543
16.3767
16.6887
18.6931
23.1095
32.7208
53.5583
87.2047
174.963
368.626
691.198
1600.49
1592.35
666.654
419.327
231.728
106.138
51.5495
29.7906
20.9719
17.1245
16.3052
16.5589
18.6928
22.9845
32.4556
54.8248
103.268
201.979
348.803
654.032
1746.79
1562.73
666.86
401.571
212.126
93.013
49.1652
29.1824
20.8912
17.442
16.2511
16.8743
18.7377
22.8076
30.4887
54.2252
100.93
198.806
377.872
704.856
1683.96
1371.93
635.404
391.02
208.017
96.0239
49.3133
28.7937
20.5855
17.0067
16.453
16.9324
18.7396
22.9733
32.7454
53.7577
99.3154
195.032
364.127
636.877
1654.17
1429.29
646.497
386.14
206.94
96.3354
46.1886
26.6518
19.5732
17.3008
16.5362
16.9699
18.5527
21.7548
32.3742
52.6622
95.0395
183.097
341.798
649.138
1564.65
1463.8
672.141
402.007
227.586
108.052
51.4394
28.749
20.5689
17.4088
16.5142
16.997
18.89
22.5522
30.2872
47.7683
84.1664
167.671
377.62
695.691
1536.34
1575.82
656.229
376.883
193.708
104.336
50.6465
26.5829
19.3969
17.0896
16.376
16.9098
18.9982
24.0168
34.7546
58.0968
107.463
205.704
373.124
674.771
1640.43
1597.79
707.083
424.598
227.316
104.699
49.6093
27.3316
20.0901
16.7179
15.9695
16.3828
18.206
23.7519
34.5334
57.983
109.585
234.024
427.176
759.276
1716.75
1606.23
659.898
408.912
225.906
101.949
43.8599
27.821
20.3378
16.8898
16.2462
16.7628
18.728
23.4874
33.9699
57.5644
112.726
231.178
417.338
735.503
1721.7
1589.43
656.13
381.864
192.665
86.0753
45.0747
27.29
20.0558
16.8886
15.9563
16.5022
17.866
21.7627
30.6023
50.7647
99.0978
222.39
402.704
660.84
1713.01
1581.47
637.472
373.678
193.058
86.6985
41.366
26.2776
19.6407
16.9062
16.0958
16.342
18.2281
21.9875
30.934
51.4709
100.047
215.65
396.973
678.555
1716.33
1456.3
615.596
355.225
177.861
80.8081
40.1034
24.307
18.4004
16.6094
16.0142
16.3849
17.663
21.4131
29.8852
49.1088
93.5708
191.085
376.582
668.959
1703.2
1411.9
649.168
378.023
191.587
87.9423
42.6221
25.6966
18.8834
16.4041
15.754
16.3373
17.6502
21.3068
29.7249
48.7731
93.7841
195.603
381.016
681.075
1696.64
1494.64
644.605
365.434
214.455
101.986
47.6506
28.0572
19.6699
16.817
15.9586
16.3696
17.6782
21.4018
30.4702
49.9167
93.7395
190.469
386.995
708.894
1693.26
1545.46
708.089
415.093
225.594
102.935
45.0798
27.7985
20.492
17.3302
16.2029
16.3094
17.8927
21.9128
32.6151
54.5321
102.351
200.952
376.743
687.022
1529.47
1455.11
704.218
414.113
223.57
100.968
43.2613
27.283
20.445
17.3352
16.1046
16.6225
18.3976
22.4878
31.806
53.448
101.647
201.08
369.88
647.878
1692.03
1593.42
711.571
415.939
216.845
84.4458
43.2458
26.4253
20.1454
17.3249
16.2783
16.6489
18.3733
22.2289
29.0454
48.1263
92.6581
178.366
342.02
649.065
1660.08
1580.83
695.974
389.899
192.717
94.7769
46.9075
28.3304
20.6195
17.379
16.0925
16.5668
18.3235
22.5242
32.0949
56.2018
107.124
207.504
372.235
679.285
1560.8
1583.42
657.779
390.397
200.39
87.7667
42.5563
27.807
20.5707
17.4436
16.3382
16.3502
17.7363
21.4425
32.1586
55.7508
107.232
207.022
349.004
639.766
1713.94
1555.24
672.072
389.187
202.756
94.6583
46.4906
28.3084
20.6506
17.4126
16.4053
16.8095
18.6467
22.6856
30.4146
55.3404
105.538
204.762
380.185
681.304
1515.68
1451.75
690.444
405.424
224.528
105.182
49.6982
26.6515
20.1276
17.1971
16.3213
16.8026
18.7261
22.9617
32.3481
54.8923
106.715
192.643
357.514
646.087
1672.36
1627.73
691.379
400.699
217.099
97.9031
46.3534
27.0095
19.7983
16.6346
16.149
16.759
18.7775
22.8775
29.9574
49.1821
106.397
206.207
368.282
672.507
1626.3
1608.48
622.455
358.007
178.874
78.6528
39.0038
25.5032
19.3129
16.766
15.8991
16.4574
18.8296
23.3899
32.9034
53.6282
103.467
184.087
346.097
625.578
1534.33
1581.36
603.721
339.692
176.267
80.8448
40.5134
24.2793
18.3462
16.6013
16.117
16.7879
18.8544
23.3812
32.6379
51.0628
106.764
204.412
382.631
689.93
1557.18
1328.69
576.877
324.034
177.643
85.413
43.2849
25.5954
18.8765
16.4428
15.9167
16.7713
18.8164
23.3502
33.8651
58.6336
109.762
192.56
359.728
651.563
1686.43
1399.66
552.176
304.19
149.958
84.4789
44.1826
25.3929
18.933
16.7538
16.2335
16.8331
18.7887
23.0111
31.2151
58.2105
111.183
206.626
371.365
681.547
1632.66
1444.2
599.387
338.158
183.506
84.102
41.0321
26.9912
19.8613
16.708
16.2357
16.812
18.746
23.0789
32.9755
56.8372
107.54
188.028
357.847
637.202
1531.59
1569.87
655.347
384.37
214.421
101.497
48.6088
28.2061
20.133
17.1171
16.274
16.7434
18.5037
21.7832
30.7205
56.3987
108.222
217.786
402.988
705.077
1579.61
1426.13
688.155
414.409
217.152
98.6131
47.6814
27.8438
19.217
16.554
15.8933
16.412
18.6631
23.1119
33.0351
55.6764
106.783
213.791
389.824
662.621
1725.03
1610.16
669.471
392.56
194.987
96.8782
46.7569
27.3612
19.8265
17.0065
16.2248
16.6709
18.5317
22.6037
30.2722
49.0931
92.1113
187.966
364.559
666.945
1719.22
1575.4
692.292
406.919
200.77
89.2125
42.3719
25.1804
19.4293
16.9362
16.1821
16.4047
18.1115
22.3509
32.5747
54.1003
101.445
200.104
372.373
672.129
1721.14
1417.53
684.098
411.2
220.406
102.242
47.5544
27.3618
19.1698
16.5926
16.209
16.8538
19.0015
23.9751
35.0527
59.0393
111.28
211.503
380.595
699.182
1678.73
1594.19
667.315
407.604
225.78
104.566
46.9492
27.3948
19.863
16.9916
16.2244
16.7721
18.8117
23.6094
34.4571
56.9598
96.4478
192.543
365.276
646.237
1482.68
1547
688.753
402.872
222.925
104.13
43.2004
26.9841
19.8498
17.0015
16.1756
16.4541
18.0244
22.3103
34.1049
57.7036
110.909
229.878
422.789
743.242
1592.18
1348.12
685.222
407.141
222.55
103.871
47.1812
27.5408
19.9348
16.9874
16.1723
16.6876
18.676
23.3097
33.7105
56.9746
110.556
223.849
411.769
735.89
1730.38
1510.78
692.647
400.758
222.731
106.531
45.0382
27.0264
19.7825
16.9141
16.0759
16.2868
18.3339
21.7598
30.4561
50.3426
96.6306
208.784
391.733
660.902
1727.83
1611.5
689.363
398.105
222.545
106.744
50.4494
26.3815
19.5977
16.8933
16.0837
16.3986
18.3886
22.0601
30.8964
51.5226
98.2119
198.205
378.392
677.815
1738.04
1562.39
665.783
383.968
215.185
105.371
51.1671
29.0174
19.5705
16.6059
15.8659
16.5311
18.3642
22.3759
30.4048
50.7945
95.9447
194.594
371.938
671.35
1737.41
1361.61
620.056
366.353
195.763
100.918
49.3931
28.7871
20.5175
17.1884
16.1962
16.5269
18.0123
22.8094
31.0456
53.8562
101.84
201.469
376.985
685.546
1749.8
1480.96
676.922
405.812
219.583
99.239
47.7886
28.0959
20.2556
16.7099
15.8582
16.2974
18.5728
23.169
32.2478
59.1879
112.739
215.309
388.841
718.553
1720.33
1581.79
635.03
373.871
209.175
96.3246
46.0148
27.0354
19.7959
16.918
16.1354
16.6083
18.5208
23.1157
33.5575
57.9683
99.0609
197.538
371.63
661.49
1557.58
1465.88
616.703
357.062
177.601
79.9153
39.4739
23.8925
18.2945
16.5594
15.8305
16.424
17.8965
21.7765
31.6743
59.7959
116.552
240.906
434.075
766.543
1722.94
1398.92
646.072
375.753
193.142
90.7543
44.3501
25.2865
18.8344
16.4358
16.045
16.6512
18.6465
23.2947
33.8992
59.6769
119.423
239.693
425.434
743.761
1732.9
1561.43
652.081
367.978
217.683
105.79
50.2913
26.8403
19.3923
16.6757
15.9131
16.5736
18.5231
22.9364
32.5003
53.2608
114.165
231.918
411.354
667.409
1727.16
1563.51
708.977
415.1
228.483
107.509
50.7486
28.8336
20.4341
17.182
16.1845
16.5297
18.3258
22.5184
31.7965
52.5082
102.209
224.469
406.332
686.352
1734.78
1474.09
702.407
413.822
227.394
106.83
50.5647
28.9112
20.4744
17.228
16.1909
16.2188
18.0337
21.8868
30.3739
49.4823
99.2319
209.464
394.956
674.585
1729.62
1597.77
705.77
418.078
225.415
102.91
48.5448
28.3542
20.2711
17.1968
16.2671
16.4975
17.9264
21.4888
29.4946
47.1974
93.4489
196.693
383.557
667.86
1734.76
1552.44
689.231
411.489
199.518
89.5208
43.9644
27.9988
20.1738
17.2036
16.3256
16.5232
17.4643
20.4864
26.9872
44.3131
86.0349
179.806
354.819
647.379
1701.12
1390.78
681.948
418.491
223.936
104.012
49.9714
28.675
19.5177
16.7322
16.2745
16.7272
18.3284
21.9065
29.8232
47.9038
89.0007
172.369
344.376
635.916
1633.21
1597.6
675.505
419.329
228.024
104.552
49.266
28.2898
20.199
17.1919
16.375
16.7788
18.2575
20.9689
27.1147
43.4596
93.9433
184.231
347.269
649.868
1507.85
1561.75
695.158
417.411
204.974
91.0295
43.9461
25.9988
19.8157
17.1366
16.3845
16.9872
19.1138
23.4996
32.1317
50.6789
84.2444
163.291
322.825
608.602
1566.11
1393.59
688.111
424.817
232.944
106.228
50.3882
28.4495
19.6257
16.73
16.0182
16.8509
19.1387
24.4243
35.5807
59.6703
108.607
210.615
391.16
702.899
1668.47
1603.99
682.168
427.067
239.046
106.459
49.8956
26.7169
20.206
17.2223
16.2694
16.4627
18.3665
24.1783
35.425
59.9101
113
239.179
432.721
765.676
1726.91
1573.3
705.65
424.266
233.31
92.7803
45.1165
28.498
20.4618
17.2264
16.2595
16.723
18.7681
23.9055
34.8354
59.6136
116.533
238.246
424.979
741.998
1732.57
1392.73
698.052
421.552
206.896
100.948
49.9854
28.9509
19.756
16.9302
15.7999
16.1272
17.7317
22.3333
33.2724
53.3072
108.185
230.865
411.543
667.147
1725.07
1607.69
703.218
416.944
224.248
101.159
48.8009
28.5315
20.3087
16.7241
15.9156
16.4418
18.1432
22.4076
31.492
53.4196
103.144
225.23
407.335
685.405
1730.7
1599.7
655.661
385.507
193.638
84.9728
46.2357
27.7879
20.1233
16.8975
16.0452
16.7518
18.6444
22.7757
31.3016
52.158
100.763
215.073
396.106
673.147
1722.62
1601.73
664.451
392.382
201.773
91.2797
46.7464
27.4748
19.7895
16.9301
16.1868
16.728
18.546
22.5484
30.8107
51.2453
98.5074
197.735
375.946
668.535
1726.52
1557.04
670.758
394.341
198.88
91.7371
44.1391
25.6768
18.48
16.62
16.0661
16.6076
18.2912
21.3406
29.9889
50.1454
97.69
196.821
370.779
662.292
1713.02
1389.73
657.098
391.944
216.736
104.287
50.1495
28.1938
18.9899
16.3263
15.7073
16.2901
18.4132
21.645
30.0709
50.3695
102.248
202.568
372.207
664.614
1704.59
1591.47
641.644
375.062
218.712
106.941
51.2466
28.6404
19.3107
16.5991
15.9555
16.5243
18.7513
22.5275
31.4142
52.1959
111.551
215.28
381.134
685.773
1642.44
1534.07
648.624
377.261
213.289
106.672
51.71
29.0832
20.267
17.0973
16.2628
16.8299
19.0412
24.1974
34.4935
56.0863
108.793
192.133
358.836
639.984
1513.44
1308.64
609.337
362.592
193.547
104.478
51.2295
29.001
20.1781
17.0876
16.2109
16.467
19.0478
24.3927
34.9611
53.3391
112.448
216.188
403.303
722.374
1620.91
1452.38
670.452
403.719
222.239
107.674
52.2286
29.3387
19.6997
16.6272
16.1114
16.5573
18.5197
24.402
35.9138
61.7386
115.245
201.515
373.458
673.546
1748.97
1587.92
647.089
381.476
205.667
109.387
53.4426
29.9392
19.8868
16.9934
16.1042
16.9321
19.2116
24.3473
34.9982
61.7847
116.462
219.296
391.708
716.237
1719.33
1527.78
660.312
391.489
222.312
111.164
53.9765
30.5016
21.0609
17.0255
16.3179
16.8909
19.0757
24.1639
35.6849
59.7827
100.26
201.026
375.675
663.109
1562.1
1308.25
624.969
378.042
200.889
107.817
52.6115
30.1842
21.1508
17.4517
16.2856
16.4353
18.2359
22.7893
35.3821
60.8659
118.214
245.311
438.999
766.14
1725.3
1479.13
691.762
428.198
233.231
109.154
51.8896
29.7449
20.9056
16.9394
16.2224
16.7269
18.8568
23.7571
34.7341
59.8792
118.844
243.073
430.109
743.03
1732.1
1570.53
651.806
411.95
232.869
106.593
49.7561
28.5366
20.3724
17.0473
15.8123
16.2848
17.848
21.9007
31.008
52.0898
103.617
234.201
415.528
666.465
1718.32
1401.62
626.749
380.787
196.101
86.5783
41.6047
24.9371
18.7302
16.7111
15.7499
16.0274
17.7817
21.8919
31.1702
52.7667
104.588
227.675
410.189
682.575
1713.41
1356.75
622.114
376.763
202.47
92.4696
44.9772
26.7331
19.5787
16.7179
15.8226
16.0857
17.5497
21.2969
29.8189
49.6208
97.5884
209.411
392.474
669.418
1680.7
1403.82
634.868
382.252
216.841
101.16
48.8769
28.561
20.4885
17.2292
16.1267
16.3263
17.4833
21.0046
29.1805
48.3112
95.7671
209.176
395.169
674.733