/*--------------------------------*- C++ -*----------------------------------*\
  =========                 |
  \\      /  F ield         | OpenFOAM: The Open Source CFD Toolbox
   \\    /   O peration     | Website:  https://openfoam.org
    \\  /    A nd           | Version:  6
     \\/     M anipulation  |
\*---------------------------------------------------------------------------*/
FoamFile
{
    version     2.0;
    format      ascii;
    class       volScalarField;
    location    "3";
    object      epsilon;
}
// * * * * * * * * * * * * * * * * * * * * * * * * * * * * * * * * * * * * * //

dimensions      [0 2 -3 0 0 0 0];

internalField   nonuniform List<scalar> 
130000
(
17.8997
18.1104
17.7713
17.081
16.3155
15.6377
15.1072
14.7241
14.4628
14.2932
14.1878
14.126
14.0931
14.0801
14.0817
14.0949
14.1168
14.1443
14.1707
14.1937
17.868
18.0928
17.75
17.0562
16.2939
15.622
15.0984
14.7213
14.465
14.2986
14.1954
14.1346
14.1023
14.0891
14.0904
14.1027
14.1242
14.1511
14.1778
14.2012
17.871
18.0891
17.7448
17.0516
16.2909
15.62
15.0976
14.7209
14.4651
14.2986
14.1953
14.1339
14.1013
14.0875
14.0884
14.1002
14.1215
14.1485
14.1768
14.2013
17.8809
18.0913
17.7415
17.0462
16.2846
15.6142
15.093
14.7172
14.4624
14.2963
14.1936
14.1324
14.1001
14.0863
14.0873
14.0991
14.1205
14.1476
14.1768
14.2016
17.8841
18.0874
17.7336
17.0371
16.2761
15.6069
15.0873
14.7129
14.4594
14.2942
14.1923
14.1318
14.1002
14.0872
14.0888
14.1012
14.123
14.1499
14.1785
14.2018
17.889
18.0876
17.7288
17.0294
16.2678
15.5993
15.081
14.708
14.4559
14.2918
14.1908
14.1311
14.1
14.0873
14.0894
14.1026
14.1247
14.1512
14.1788
14.2011
17.9
18.0908
17.7252
17.0221
16.2593
15.5913
15.0746
14.7031
14.4525
14.2895
14.1897
14.1309
14.1002
14.0876
14.0897
14.1026
14.1238
14.1496
14.1774
14.2006
17.9028
18.087
17.7172
17.0117
16.2487
15.5818
15.0668
14.6973
14.4482
14.2866
14.1877
14.1297
14.0999
14.0879
14.0893
14.1011
14.1209
14.1459
14.1737
14.1969
17.9027
18.0856
17.7112
17.0024
16.2381
15.5723
15.0592
14.6917
14.4443
14.2839
14.1858
14.1279
14.0988
14.0873
14.0885
14.1007
14.1211
14.1471
14.1752
14.1985
17.9039
18.0852
17.7054
16.9922
16.2265
15.5625
15.0519
14.6865
14.4406
14.2814
14.184
14.1267
14.0975
14.0851
14.0868
14.0983
14.1197
14.146
14.1744
14.1984
17.9061
18.0855
17.7022
16.9857
16.219
15.5568
15.0472
14.683
14.4382
14.2801
14.1836
14.1262
14.0962
14.0824
14.0833
14.0948
14.1162
14.1427
14.1714
14.196
17.9103
18.087
17.702
16.9839
16.2162
15.5535
15.0437
14.68
14.4359
14.2787
14.1831
14.1255
14.0952
14.0809
14.0822
14.0937
14.1153
14.1417
14.17
14.1936
17.9141
18.0904
17.7029
16.9831
16.2148
15.5509
15.0408
14.6775
14.4338
14.2771
14.1814
14.1232
14.0931
14.0803
14.0821
14.0942
14.116
14.1426
14.1708
14.1939
17.9243
18.1006
17.7083
16.984
16.2141
15.5484
15.0378
14.6747
14.4315
14.2753
14.1796
14.1222
14.0928
14.0806
14.0829
14.0953
14.1174
14.1444
14.1731
14.1967
17.9328
18.1078
17.712
16.9845
16.2114
15.5445
15.034
14.6717
14.4293
14.2735
14.1786
14.1229
14.0944
14.0828
14.0855
14.0986
14.1211
14.1483
14.1764
14.1998
17.9353
18.1089
17.7096
16.9795
16.2042
15.5373
15.0281
14.6676
14.4272
14.2734
14.1801
14.1257
14.0981
14.0871
14.0902
14.1034
14.1257
14.1523
14.179
14.2007
17.935
18.1078
17.7051
16.9712
16.1941
15.5279
15.0206
14.663
14.4247
14.2727
14.1804
14.1268
14.0995
14.0888
14.0919
14.1052
14.1276
14.1545
14.1817
14.2027
17.9389
18.1123
17.7072
16.9701
16.191
15.5239
15.0166
14.66
14.422
14.2702
14.1782
14.1248
14.0978
14.0874
14.0909
14.1045
14.1273
14.1546
14.1823
14.204
17.9552
18.1278
17.7187
16.978
16.1962
15.5268
15.0171
14.6593
14.4212
14.2697
14.178
14.1247
14.0982
14.0879
14.092
14.1059
14.128
14.1556
14.1827
14.2055
17.9681
18.1399
17.7277
16.9839
16.1997
15.5291
15.0183
14.6597
14.4213
14.27
14.1784
14.1253
14.0989
14.0883
14.0919
14.1059
14.1273
14.1556
14.1821
14.2057
17.9804
18.1518
17.7373
16.9905
16.2034
15.5312
15.0201
14.6606
14.4218
14.271
14.1797
14.1274
14.1007
14.0907
14.0932
14.1078
14.1295
14.1578
14.1842
14.2078
17.9955
18.1673
17.75
16.9994
16.2085
15.5338
15.0211
14.6608
14.4219
14.271
14.1798
14.1279
14.1014
14.0918
14.0951
14.1093
14.1317
14.1593
14.1858
14.2092
18.0184
18.1879
17.7648
17.0088
16.2138
15.5358
15.0214
14.6611
14.4219
14.2706
14.1796
14.1279
14.1013
14.0918
14.095
14.1096
14.1319
14.16
14.1864
14.2106
18.0382
18.2051
17.777
17.0163
16.2178
15.5374
15.0215
14.6611
14.4216
14.2704
14.1791
14.1271
14.0998
14.0906
14.0933
14.1087
14.1307
14.1599
14.1869
14.211
18.0552
18.2205
17.7883
17.0235
16.222
15.5404
15.0224
14.6615
14.4217
14.2705
14.178
14.1256
14.0979
14.0895
14.0924
14.1083
14.1304
14.16
14.1868
14.2113
18.0741
18.238
17.8011
17.0316
16.2265
15.5427
15.0234
14.6617
14.4216
14.2703
14.1771
14.125
14.098
14.0892
14.0929
14.1083
14.131
14.1599
14.1871
14.2106
18.1033
18.2633
17.8191
17.043
16.2331
15.5464
15.0258
14.6629
14.4224
14.2713
14.1789
14.1275
14.1009
14.0921
14.0958
14.1111
14.1339
14.1628
14.19
14.213
18.1327
18.2884
17.8373
17.0547
16.2399
15.5503
15.0284
14.6639
14.4226
14.2714
14.1795
14.1284
14.1019
14.0932
14.0971
14.1129
14.1367
14.1661
14.1932
14.2159
18.1623
18.3135
17.8553
17.0663
16.2466
15.5538
15.0299
14.6642
14.4224
14.2707
14.1785
14.1273
14.1008
14.0921
14.0961
14.1123
14.1367
14.166
14.1926
14.2142
18.1924
18.3392
17.8738
17.0782
16.2534
15.5573
15.0314
14.6645
14.4218
14.2699
14.1771
14.1257
14.099
14.0901
14.094
14.1097
14.133
14.1621
14.1887
14.2102
18.2229
18.3656
17.8929
17.0904
16.2604
15.5608
15.0328
14.6648
14.4209
14.2681
14.1745
14.123
14.0964
14.0869
14.0904
14.1061
14.1295
14.159
14.1862
14.2091
18.2537
18.3929
17.9129
17.1033
16.2678
15.5646
15.0343
14.6652
14.4205
14.267
14.1738
14.1225
14.0961
14.0865
14.0903
14.1064
14.1301
14.16
14.1872
14.21
18.2857
18.422
17.9346
17.1176
16.2763
15.5692
15.0366
14.6663
14.421
14.2673
14.1739
14.1223
14.0957
14.0872
14.0916
14.1082
14.1321
14.1619
14.1888
14.2114
18.3188
18.4525
17.9579
17.1331
16.2856
15.5745
15.0396
14.6681
14.4223
14.2685
14.1753
14.1239
14.0976
14.0896
14.0946
14.1121
14.1359
14.1642
14.1906
14.213
18.3527
18.4842
17.9823
17.1495
16.2957
15.5804
15.043
14.6703
14.4244
14.2707
14.1782
14.1276
14.1018
14.0938
14.0986
14.1153
14.1387
14.1659
14.1923
14.2145
18.388
18.5175
18.008
17.1669
16.3064
15.5865
15.0464
14.6724
14.426
14.273
14.1811
14.1308
14.1048
14.0957
14.0995
14.1149
14.1383
14.1663
14.1932
14.2156
18.4258
18.5533
18.036
17.186
16.3181
15.5932
15.0499
14.674
14.4268
14.2738
14.1816
14.131
14.1047
14.0951
14.0991
14.1153
14.1376
14.1669
14.1943
14.2168
18.4656
18.5914
18.066
17.2066
16.3309
15.6005
15.0537
14.6755
14.4268
14.2725
14.18
14.1292
14.1029
14.0938
14.098
14.1142
14.1375
14.1677
14.1956
14.218
18.5072
18.6314
18.0977
17.2285
16.3447
15.6085
15.0579
14.6773
14.4267
14.271
14.1778
14.1265
14.0999
14.0904
14.0953
14.1126
14.138
14.169
14.1973
14.2197
18.5509
18.6736
18.1313
17.2519
16.3597
15.6174
15.0628
14.6797
14.4276
14.2706
14.176
14.1241
14.0979
14.0899
14.0955
14.1135
14.1395
14.171
14.1995
14.2217
18.5975
18.7189
18.1676
17.2774
16.3761
15.6273
15.0686
14.683
14.4294
14.2716
14.1766
14.1246
14.0985
14.0908
14.0968
14.1152
14.1416
14.1734
14.2022
14.2242
18.6468
18.7669
18.2063
17.3047
16.3938
15.6381
15.075
14.6867
14.4317
14.2731
14.1778
14.1257
14.0997
14.0921
14.0984
14.1172
14.144
14.1762
14.2051
14.2269
18.6989
18.8178
18.2474
17.3339
16.4129
15.6499
15.0821
14.691
14.4344
14.2749
14.1793
14.127
14.1011
14.0937
14.1004
14.1194
14.1467
14.1792
14.2083
14.2299
18.7545
18.8721
18.2914
17.3653
16.4335
15.6628
15.0899
14.6957
14.4374
14.277
14.181
14.1286
14.1027
14.0955
14.1025
14.1219
14.1497
14.1825
14.2118
14.2332
18.8143
18.9307
18.3391
17.3995
16.4563
15.6772
15.0988
14.7011
14.4409
14.2794
14.1829
14.1304
14.1046
14.0975
14.1048
14.1247
14.153
14.1862
14.2158
14.237
18.8781
18.9932
18.3902
17.4364
16.4809
15.6928
15.1085
14.7071
14.4448
14.2822
14.1851
14.1324
14.1067
14.0998
14.1075
14.1278
14.1566
14.1903
14.22
14.241
18.9451
19.059
18.4442
17.4757
16.5073
15.7097
15.1191
14.7138
14.4492
14.2853
14.1877
14.1347
14.109
14.1024
14.1104
14.1312
14.1606
14.1948
14.2248
14.2455
19.0126
19.1275
18.5011
17.5172
16.5355
15.7279
15.1306
14.7211
14.454
14.2888
14.1905
14.1373
14.1117
14.1052
14.1137
14.135
14.1649
14.1996
14.2299
14.2504
19.0873
19.2015
18.5625
17.5624
16.5663
15.748
15.1434
14.7294
14.4596
14.2928
14.1939
14.1403
14.1147
14.1084
14.1173
14.1392
14.1698
14.2051
14.2356
14.2559
19.1669
19.2811
18.629
17.6116
16.6001
15.7702
15.1577
14.7386
14.4658
14.2974
14.1976
14.1437
14.1181
14.112
14.1214
14.1439
14.1752
14.211
14.2418
14.2618
19.2566
19.3699
18.703
17.6663
16.6378
15.795
15.1738
14.7491
14.473
14.3026
14.2019
14.1475
14.122
14.1161
14.126
14.1491
14.1811
14.2176
14.2488
14.2684
19.3563
19.4676
18.784
17.7263
16.6792
15.8224
15.1916
14.7608
14.481
14.3085
14.2067
14.1519
14.1263
14.1207
14.1311
14.1548
14.1877
14.2249
14.2563
14.2757
19.4613
19.5714
18.8707
17.7909
16.7241
15.8523
15.2112
14.7738
14.49
14.3152
14.2122
14.1569
14.1313
14.1259
14.1369
14.1614
14.1951
14.233
14.2648
14.2838
19.5727
19.6818
18.9633
17.8602
16.7725
15.8847
15.2326
14.7881
14.5
14.3226
14.2184
14.1625
14.1368
14.1318
14.1433
14.1686
14.2032
14.2419
14.2741
14.2928
19.6921
19.8
19.0627
17.9349
16.8249
15.9201
15.2562
14.804
14.5112
14.3312
14.2255
14.169
14.1432
14.1385
14.1506
14.1767
14.2124
14.2519
14.2846
14.3028
19.8201
19.9271
19.1697
18.0156
16.8817
15.9586
15.282
14.8215
14.5237
14.3407
14.2335
14.1764
14.1505
14.146
14.1588
14.1859
14.2226
14.263
14.2961
14.3139
19.9587
20.0645
19.2857
18.1033
16.9438
16.0009
15.3106
14.8411
14.5378
14.3516
14.2427
14.1848
14.1588
14.1547
14.1683
14.1963
14.2341
14.2756
14.3091
14.3265
20.1079
20.2127
19.411
18.1983
17.0113
16.0472
15.342
14.8629
14.5536
14.3639
14.2531
14.1944
14.1683
14.1645
14.1788
14.2079
14.247
14.2895
14.3235
14.3404
20.2693
20.373
19.5468
18.3017
17.0851
16.098
15.3768
14.8872
14.5714
14.3779
14.2651
14.2055
14.1792
14.1758
14.191
14.2212
14.2616
14.3053
14.3399
14.3562
20.4439
20.5465
19.6941
18.4141
17.1656
16.1539
15.4153
14.9143
14.5914
14.3937
14.2787
14.2181
14.1917
14.1887
14.2048
14.2363
14.2781
14.323
14.3581
14.3739
20.6342
20.7356
19.8549
18.5372
17.2542
16.2156
15.4582
14.9447
14.6142
14.4119
14.2945
14.2328
14.2061
14.2036
14.2207
14.2535
14.2969
14.3432
14.3789
14.3939
20.8406
20.9408
20.0299
18.6716
17.3514
16.2837
15.5057
14.9788
14.6398
14.4326
14.3125
14.2496
14.2226
14.2206
14.2388
14.273
14.3181
14.3658
14.402
14.4163
21.0655
21.1643
20.2208
18.8188
17.4582
16.359
15.5588
15.0172
14.669
14.4564
14.3333
14.2691
14.2419
14.2404
14.2597
14.2956
14.3424
14.3916
14.4283
14.4414
21.3103
21.408
20.4293
18.98
17.5758
16.4424
15.618
15.0603
14.7022
14.4836
14.3572
14.2915
14.264
14.2631
14.2837
14.3213
14.3701
14.4211
14.4584
14.4705
21.5787
21.6752
20.6583
19.1576
17.7059
16.5352
15.6844
15.1092
14.7401
14.515
14.385
14.3177
14.2899
14.2897
14.3116
14.3512
14.4022
14.455
14.493
14.5042
21.8723
21.9678
20.9097
19.3533
17.8498
16.6386
15.7588
15.1645
14.7834
14.5511
14.4172
14.3481
14.3199
14.3204
14.3439
14.3855
14.4389
14.4937
14.5325
14.5425
22.1951
22.2896
21.1867
19.5697
18.0098
16.7543
15.8429
15.2276
14.8332
14.5931
14.4547
14.3837
14.3551
14.3564
14.3815
14.4255
14.4815
14.5386
14.5782
14.587
22.5506
22.6442
21.4927
19.8096
18.1881
16.884
15.9379
15.2996
14.8906
14.6418
14.4986
14.4253
14.3962
14.3985
14.4254
14.4719
14.5308
14.5903
14.6308
14.6381
22.9445
23.0372
21.8325
20.0771
18.388
17.0305
16.0462
15.3824
14.9573
14.6988
14.5501
14.4745
14.4448
14.448
14.4769
14.5263
14.5884
14.6506
14.692
14.6976
23.3807
23.4727
22.2102
20.3756
18.6124
17.196
16.1696
15.4776
15.0347
14.7655
14.6108
14.5324
14.5021
14.5064
14.5375
14.5899
14.6555
14.7207
14.7631
14.7667
23.8661
23.9575
22.6317
20.7103
18.8655
17.3843
16.3113
15.5881
15.1254
14.8443
14.6828
14.6013
14.5703
14.5757
14.6092
14.6651
14.7345
14.803
14.8464
14.8478
24.4075
24.4987
23.1035
21.0868
19.152
17.5991
16.4744
15.7166
15.2318
14.9374
14.7683
14.6832
14.6515
14.6581
14.6942
14.7538
14.8275
14.8996
14.9441
14.9427
25.0149
25.1062
23.6348
21.5127
19.4782
17.8458
16.6637
15.8673
15.3579
15.0484
14.8708
14.7816
14.7488
14.7568
14.7958
14.8596
14.938
15.014
15.0597
15.0551
25.6975
25.7897
24.2346
21.9962
19.8513
18.1305
16.8843
16.0447
15.5077
15.1813
14.9939
14.9
14.866
14.8754
14.9175
14.9859
15.0694
15.1497
15.1965
15.1879
26.4695
26.5635
24.9159
22.5486
20.281
18.4614
17.1435
16.2555
15.6873
15.342
15.1434
15.0439
15.0083
15.0191
15.0646
15.1379
15.2271
15.3121
15.36
15.3467
27.3465
27.4435
25.6937
23.1834
20.7787
18.8485
17.45
16.5074
15.904
15.537
15.3257
15.2196
15.182
15.194
15.243
15.3215
15.4167
15.5068
15.5556
15.5364
28.3489
28.4504
26.5877
23.9178
21.3597
19.3051
17.8156
16.8112
16.168
15.7762
15.5501
15.4362
15.3958
15.4088
15.4612
15.5453
15.647
15.7425
15.792
15.7655
29.4989
29.6078
27.6203
24.7727
22.0425
19.8477
18.2552
17.1806
16.4918
16.0716
15.8283
15.7049
15.6607
15.6741
15.7297
15.8194
15.9279
16.029
16.079
16.0435
30.8287
30.9488
28.8232
25.7767
22.8527
20.499
18.7895
17.6346
16.8934
16.4406
16.177
16.0419
15.9924
16.0053
16.0635
16.1588
16.2743
16.3813
16.4314
16.3849
32.3761
32.5136
30.2351
26.9658
23.8229
21.2887
19.4453
18.1984
17.3968
16.9059
16.6185
16.4688
16.4119
16.4227
16.4826
16.5829
16.7056
16.8186
16.868
16.8077
34.1911
34.3549
31.9077
28.3882
24.9974
22.2573
20.2606
18.9075
18.0361
17.5007
17.185
17.0173
16.95
16.9566
17.0166
17.1212
17.2507
17.3695
17.416
17.3387
36.3354
36.5393
33.9073
30.1071
26.4351
23.4599
21.2867
19.8111
18.8586
18.271
17.9219
17.732
17.6506
17.6497
17.7077
17.8153
17.9508
18.0737
18.114
18.0128
38.8938
39.1586
36.3251
32.2098
28.2183
24.9735
22.5972
20.9799
19.9333
19.2851
18.8967
18.6798
18.5797
18.5673
18.6201
18.7282
18.8665
18.9893
19.0165
18.8815
41.9753
42.3318
39.2813
34.8125
30.4577
26.9039
24.2935
22.5129
21.3581
20.6401
20.2066
19.9584
19.835
19.8055
19.8473
19.9504
20.085
20.1995
20.2023
20.0188
45.7244
46.2184
42.9376
38.0732
33.3051
29.3967
26.5174
24.5497
23.2722
22.4766
21.9937
21.7119
21.5612
21.5067
21.5278
21.6172
21.7374
21.8308
21.7922
21.5392
50.33
51.0278
47.5077
42.2009
36.962
32.6469
29.4592
27.2796
25.8669
24.9897
24.4581
24.1453
23.9676
23.8809
23.8672
23.9285
24.0216
24.0772
23.9724
23.6184
56.0454
57.0395
53.2742
47.4698
41.6915
36.9078
33.3672
30.9507
29.3948
28.4407
27.8726
27.543
27.3492
27.2303
27.1664
27.1802
27.2361
27.2366
27.0315
26.5321
63.1954
64.6081
60.5924
54.221
47.8168
42.4881
38.5415
35.8625
34.1629
33.1517
32.5804
32.2723
32.0979
31.9804
31.8741
31.8047
31.8144
31.7555
31.4089
30.7049
72.1891
74.1738
69.8941
62.8592
55.7118
49.7359
45.3143
42.3425
40.5061
39.4756
38.9605
38.7415
38.6572
38.6087
38.5236
38.4208
38.3956
38.2962
37.7652
36.7837
83.5262
86.2602
81.6776
73.8325
65.7709
58.9997
54.0011
50.6886
48.7232
47.7278
47.354
47.3402
47.501
47.7056
47.8654
47.9141
47.892
47.7939
47.0533
45.717
97.7995
101.47
96.4895
87.5999
78.3614
70.5655
64.8221
61.0805
58.9761
58.0665
57.9261
58.2819
58.9677
59.7193
60.4428
61.0287
61.4095
61.4597
60.5928
58.8707
115.683
120.467
114.895
104.581
93.7494
84.558
77.7814
73.426
71.0992
70.2903
70.554
71.6129
73.1037
74.8735
76.7578
78.5692
80.0436
80.7889
80.2005
78.2564
137.943
143.995
137.468
125.107
112.001
100.785
92.4514
87.0975
84.2978
83.5114
84.2824
86.2956
89.1709
92.7284
96.7406
100.91
104.774
107.64
108.474
106.923
165.6
173.021
164.86
149.376
132.823
118.461
107.573
100.438
96.6035
95.57
96.9116
100.276
105.328
111.858
119.617
128.225
136.977
144.716
149.603
150.089
200.55
209.246
198.047
177.419
155.257
135.727
120.334
109.736
103.751
102.023
104.05
109.466
117.76
128.893
142.777
159.177
177.271
195.43
210.743
219.017
247.286
256.533
239.121
209.157
177.099
147.79
126.13
111.675
103.463
100.81
103.037
109.886
121.254
137.726
160.569
189.227
223.539
261.953
300.332
330.856
319.029
324.616
292.231
243.278
192.407
150.592
119.734
98.9703
87.292
83.4057
86.0759
95.0113
110.272
132.737
164.123
207.67
265.763
339.284
426.036
517.332
473.778
444.259
364.1
268.749
189.355
128.902
88.7214
65.1065
53.2878
49.8924
52.8605
62.0395
78.1625
103.155
140.084
192.861
273.654
392.017
558.431
796.571
980.4
679.308
430.359
253.079
139.552
73.9097
41.9129
28.4277
23.5136
22.8703
25.0997
30.6456
41.2306
59.6374
91.0594
146.929
232.785
365.306
615.161
1027.79
1507.99
506.483
156.104
41.6604
16.1472
16.9305
17.5545
16.8114
16.2794
16.1487
16.2187
16.2608
15.934
15.9204
18.3383
27.5247
61.3829
181.433
379.089
659.934
14.5771
14.5638
14.4925
14.398
14.303
14.2221
14.1604
14.1174
14.0901
14.0755
14.0714
14.077
14.093
14.1208
14.1626
14.2198
14.2902
14.3655
14.4287
14.4649
14.5808
14.5653
14.4937
14.3992
14.3047
14.2247
14.1638
14.1215
14.0946
14.08
14.0756
14.0806
14.0956
14.1221
14.1624
14.2178
14.2866
14.3609
14.424
14.4605
14.5762
14.5597
14.4882
14.3945
14.3009
14.2218
14.1617
14.1199
14.0932
14.0788
14.0742
14.0788
14.093
14.1186
14.1576
14.2116
14.279
14.3522
14.415
14.4523
14.5721
14.5548
14.4834
14.3901
14.2971
14.2188
14.1592
14.1179
14.0916
14.0773
14.0727
14.0772
14.0912
14.1163
14.1546
14.2076
14.2741
14.3468
14.4101
14.4486
14.5679
14.5515
14.4804
14.3876
14.2952
14.2177
14.1589
14.1183
14.0923
14.0785
14.074
14.0786
14.0925
14.1175
14.1554
14.2079
14.2734
14.345
14.4079
14.4479
14.5668
14.5502
14.479
14.3864
14.2943
14.2172
14.1588
14.1184
14.0925
14.0788
14.0744
14.079
14.093
14.1181
14.1561
14.2086
14.2736
14.3447
14.4077
14.4482
14.5693
14.5527
14.4812
14.3881
14.2952
14.2174
14.1575
14.1163
14.09
14.0762
14.0717
14.0764
14.0904
14.1158
14.1542
14.2076
14.2743
14.3465
14.4097
14.4491
14.5696
14.5537
14.4822
14.3887
14.2953
14.2169
14.1561
14.1151
14.089
14.0754
14.071
14.0758
14.0899
14.1153
14.1538
14.2074
14.2748
14.3462
14.4074
14.4445
14.5684
14.5529
14.4801
14.3862
14.2928
14.2151
14.156
14.1156
14.0898
14.0764
14.0721
14.0769
14.091
14.1165
14.1549
14.2081
14.2739
14.3432
14.4029
14.4399
14.5704
14.5521
14.4776
14.3834
14.2899
14.2122
14.1532
14.113
14.0873
14.074
14.0698
14.0748
14.0891
14.1148
14.1537
14.2074
14.2744
14.3431
14.4032
14.4394
14.5695
14.5498
14.4759
14.3821
14.2887
14.2109
14.152
14.1118
14.0862
14.073
14.0688
14.0739
14.0883
14.1143
14.1533
14.2069
14.2745
14.3462
14.4079
14.4439
14.5688
14.5476
14.4726
14.3782
14.2839
14.2058
14.1465
14.1061
14.0803
14.0671
14.0628
14.068
14.0825
14.1086
14.1479
14.2019
14.2727
14.3471
14.409
14.4454
14.5674
14.5468
14.4698
14.3727
14.2778
14.1992
14.1396
14.099
14.073
14.0597
14.0554
14.0607
14.0754
14.102
14.142
14.1978
14.2681
14.3424
14.405
14.4422
14.5632
14.543
14.466
14.3704
14.276
14.1978
14.1384
14.0979
14.0721
14.0589
14.0547
14.06
14.0748
14.1014
14.1412
14.1962
14.2643
14.3386
14.4035
14.4403
14.5626
14.5408
14.4658
14.3708
14.2767
14.1987
14.1394
14.0992
14.0736
14.0605
14.0565
14.0619
14.0769
14.1037
14.1437
14.1988
14.2666
14.34
14.4028
14.4408
14.5638
14.5443
14.4697
14.3742
14.2797
14.2017
14.1427
14.1027
14.0773
14.0645
14.0606
14.0662
14.0813
14.1084
14.1492
14.2055
14.2738
14.3469
14.4085
14.4434
14.5672
14.548
14.4743
14.3791
14.2851
14.2077
14.1492
14.1098
14.0848
14.0722
14.0683
14.074
14.0891
14.1159
14.1561
14.2117
14.2783
14.3513
14.4129
14.447
14.5684
14.5499
14.4757
14.3805
14.2867
14.2096
14.1515
14.1124
14.0876
14.0752
14.0714
14.0768
14.0915
14.1179
14.1572
14.2115
14.2774
14.3504
14.4117
14.4451
14.5722
14.5517
14.4745
14.379
14.2856
14.2088
14.1512
14.1123
14.0879
14.0756
14.0719
14.0772
14.0919
14.1181
14.1572
14.2113
14.2774
14.3491
14.4094
14.4437
14.5738
14.5515
14.4763
14.3809
14.2875
14.2109
14.1535
14.1151
14.091
14.079
14.0754
14.0808
14.0955
14.1214
14.1601
14.2125
14.276
14.3467
14.4067
14.4415
14.5743
14.5546
14.4796
14.383
14.2884
14.2113
14.1539
14.1164
14.0928
14.0809
14.0774
14.0828
14.0976
14.1238
14.1627
14.2159
14.2801
14.3516
14.4115
14.4462
14.5754
14.5555
14.4802
14.3839
14.2897
14.2118
14.154
14.1163
14.0922
14.0801
14.0765
14.0821
14.097
14.1236
14.1631
14.217
14.2822
14.354
14.4141
14.4493
14.5752
14.5558
14.482
14.3872
14.2924
14.2129
14.1535
14.1136
14.0887
14.0762
14.0725
14.0782
14.0935
14.1209
14.161
14.2163
14.2823
14.3553
14.416
14.4512
14.5773
14.5576
14.484
14.3875
14.2917
14.2104
14.15
14.1095
14.0844
14.0718
14.0681
14.0739
14.0896
14.1176
14.1583
14.2151
14.2828
14.3566
14.4172
14.452
14.579
14.5583
14.4834
14.3863
14.2908
14.2107
14.1515
14.1117
14.0868
14.0745
14.0708
14.0767
14.0923
14.1202
14.1608
14.2167
14.2844
14.3576
14.418
14.452
14.581
14.5593
14.4826
14.3856
14.2911
14.2132
14.1551
14.1159
14.0914
14.0794
14.0758
14.0817
14.0971
14.1248
14.1651
14.2204
14.2876
14.3605
14.4203
14.4536
14.5846
14.5625
14.4859
14.3897
14.296
14.2188
14.1612
14.1225
14.0985
14.0867
14.0832
14.0891
14.1043
14.1317
14.1717
14.2263
14.2926
14.3646
14.4235
14.4556
14.5875
14.5653
14.4892
14.3928
14.2981
14.2201
14.1623
14.1235
14.0996
14.0879
14.0845
14.0905
14.1061
14.1341
14.1757
14.231
14.297
14.3681
14.4262
14.4578
14.5901
14.5671
14.4903
14.3928
14.2965
14.2181
14.16
14.1212
14.0975
14.086
14.0827
14.0886
14.1045
14.1332
14.1759
14.2321
14.2984
14.3695
14.4283
14.4602
14.5917
14.5672
14.4882
14.3901
14.2942
14.2154
14.1572
14.1187
14.096
14.0849
14.0813
14.0862
14.1015
14.1298
14.1714
14.2282
14.2958
14.3695
14.4295
14.4617
14.5942
14.5687
14.4881
14.3875
14.2905
14.211
14.1523
14.1136
14.0915
14.0801
14.0762
14.0803
14.0961
14.1251
14.1676
14.2259
14.2963
14.3714
14.432
14.4642
14.5971
14.5711
14.49
14.3888
14.2913
14.2115
14.1523
14.1126
14.0883
14.0765
14.0735
14.0802
14.0969
14.1265
14.1696
14.2284
14.2991
14.3743
14.4351
14.4671
14.6006
14.5744
14.493
14.3919
14.2945
14.2148
14.1557
14.116
14.0916
14.08
14.0772
14.0842
14.1014
14.1311
14.1744
14.233
14.3032
14.3781
14.4387
14.4705
14.6039
14.5777
14.4966
14.3968
14.3002
14.2209
14.1623
14.1228
14.0983
14.0867
14.0842
14.0919
14.1093
14.139
14.1817
14.2393
14.3076
14.3818
14.4423
14.4738
14.6073
14.5807
14.4993
14.3998
14.3024
14.223
14.1649
14.1268
14.1034
14.0922
14.0897
14.0967
14.1128
14.1419
14.185
14.2426
14.3103
14.385
14.4458
14.4773
14.6102
14.5827
14.4999
14.3986
14.3004
14.2207
14.1623
14.1253
14.1023
14.0912
14.0884
14.0946
14.1103
14.1403
14.1841
14.2418
14.3113
14.3874
14.449
14.4806
14.6136
14.5852
14.5009
14.3976
14.3003
14.2205
14.1615
14.1229
14.0997
14.0886
14.0861
14.0928
14.1104
14.1405
14.1826
14.2403
14.3128
14.3904
14.4529
14.4845
14.6174
14.5883
14.5027
14.3978
14.2984
14.2189
14.16
14.1213
14.0989
14.0881
14.0853
14.0909
14.1075
14.1371
14.18
14.241
14.3153
14.394
14.457
14.4885
14.6218
14.592
14.5053
14.3991
14.2979
14.2158
14.1558
14.1165
14.0946
14.0834
14.0804
14.0854
14.1031
14.1345
14.1806
14.2433
14.3189
14.3985
14.462
14.4933
14.6265
14.5962
14.5087
14.4014
14.2993
14.2163
14.1554
14.1149
14.0906
14.079
14.0768
14.0846
14.1035
14.1359
14.183
14.2465
14.3231
14.4034
14.4673
14.4984
14.6319
14.601
14.5126
14.4045
14.3016
14.218
14.1567
14.1159
14.0915
14.0799
14.0779
14.086
14.1054
14.1383
14.1862
14.2505
14.3279
14.409
14.4734
14.5042
14.6378
14.6064
14.5171
14.408
14.3044
14.2202
14.1586
14.1175
14.0931
14.0815
14.0797
14.088
14.1078
14.1411
14.1897
14.2548
14.3331
14.4149
14.4797
14.5104
14.6448
14.6127
14.5224
14.4122
14.3077
14.2229
14.1609
14.1196
14.0951
14.0835
14.0818
14.0903
14.1105
14.1444
14.1936
14.2596
14.3389
14.4215
14.4868
14.5173
14.6523
14.6196
14.5283
14.4169
14.3114
14.2259
14.1635
14.1219
14.0973
14.0858
14.0842
14.0929
14.1135
14.1479
14.1979
14.2647
14.345
14.4284
14.4943
14.5245
14.6605
14.6271
14.5347
14.4221
14.3156
14.2293
14.1665
14.1247
14.1
14.0885
14.087
14.096
14.117
14.1519
14.2027
14.2704
14.3518
14.4361
14.5024
14.5322
14.6693
14.6352
14.5416
14.4277
14.3202
14.2332
14.1698
14.1277
14.103
14.0914
14.0902
14.0993
14.1208
14.1563
14.208
14.2767
14.3592
14.4445
14.5114
14.541
14.679
14.6441
14.5494
14.4341
14.3255
14.2376
14.1738
14.1313
14.1065
14.0949
14.0938
14.1032
14.1251
14.1613
14.2139
14.2836
14.3674
14.4538
14.5214
14.5509
14.6895
14.6539
14.5579
14.4413
14.3314
14.2426
14.1782
14.1354
14.1105
14.0989
14.0979
14.1075
14.13
14.1668
14.2203
14.2912
14.3763
14.4639
14.5323
14.5616
14.7013
14.6649
14.5675
14.4493
14.3382
14.2484
14.1833
14.1402
14.1151
14.1035
14.1026
14.1126
14.1355
14.1731
14.2276
14.2998
14.3863
14.4751
14.5443
14.5735
14.7141
14.6769
14.5782
14.4583
14.3458
14.2549
14.1891
14.1455
14.1203
14.1087
14.108
14.1182
14.1418
14.18
14.2357
14.3091
14.3971
14.4874
14.5574
14.5865
14.7285
14.6904
14.5901
14.4685
14.3545
14.2624
14.1959
14.1518
14.1264
14.1147
14.1142
14.1247
14.1489
14.188
14.2448
14.3196
14.4093
14.501
14.5719
14.6009
14.7443
14.7053
14.6034
14.4798
14.3642
14.2709
14.2035
14.1589
14.1333
14.1216
14.1213
14.1321
14.1569
14.1969
14.255
14.3313
14.4227
14.5159
14.5879
14.6168
14.7619
14.7219
14.6183
14.4928
14.3753
14.2806
14.2124
14.1672
14.1414
14.1296
14.1294
14.1406
14.1661
14.207
14.2664
14.3444
14.4377
14.5326
14.6057
14.6345
14.7814
14.7404
14.635
14.5072
14.3879
14.2917
14.2225
14.1767
14.1506
14.1387
14.1387
14.1503
14.1765
14.2185
14.2793
14.359
14.4543
14.5511
14.6253
14.654
14.8032
14.7612
14.6538
14.5237
14.4023
14.3045
14.2342
14.1876
14.1612
14.1493
14.1494
14.1615
14.1885
14.2315
14.2939
14.3755
14.4729
14.5717
14.6472
14.6759
14.8276
14.7844
14.6749
14.5423
14.4186
14.319
14.2475
14.2002
14.1733
14.1613
14.1616
14.1742
14.2021
14.2463
14.3104
14.394
14.4938
14.5947
14.6716
14.7002
14.8549
14.8105
14.6988
14.5634
14.4374
14.3358
14.263
14.2147
14.1873
14.1748
14.1752
14.1888
14.2178
14.2634
14.3293
14.415
14.5174
14.6206
14.699
14.7275
14.8855
14.8399
14.7257
14.5874
14.4587
14.3551
14.2808
14.2316
14.2037
14.1911
14.1918
14.2059
14.2359
14.2828
14.3507
14.4388
14.5439
14.6496
14.7296
14.758
14.9201
14.8731
14.7564
14.6149
14.4833
14.3774
14.3016
14.2513
14.223
14.2101
14.2111
14.2259
14.2569
14.3053
14.3752
14.466
14.574
14.6825
14.7642
14.7925
14.959
14.9106
14.7911
14.6462
14.5115
14.4031
14.3256
14.2742
14.2453
14.2323
14.2336
14.249
14.2811
14.3312
14.4034
14.4969
14.6081
14.7195
14.8032
14.8313
15.0032
14.9533
14.8308
14.6822
14.5441
14.433
14.3536
14.301
14.2715
14.2583
14.26
14.276
14.3094
14.3612
14.4358
14.5323
14.647
14.7618
14.8474
14.8755
15.0534
15.0019
14.8762
14.7235
14.5817
14.4677
14.3862
14.3323
14.302
14.2887
14.2907
14.3075
14.3422
14.3959
14.4732
14.573
14.6915
14.8098
14.8977
14.9255
15.1106
15.0575
14.9284
14.7713
14.6254
14.5082
14.4245
14.3691
14.338
14.3245
14.3269
14.3445
14.3806
14.4364
14.5166
14.6201
14.7427
14.8648
14.9552
14.9828
15.1761
15.1213
14.9885
14.8266
14.6763
14.5555
14.4693
14.4123
14.3804
14.3666
14.3695
14.388
14.4257
14.4837
14.5671
14.6745
14.8016
14.928
15.021
15.0483
15.2515
15.1949
15.0581
14.8909
14.7358
14.6112
14.5223
14.4634
14.4305
14.4165
14.4199
14.4394
14.4788
14.5393
14.6261
14.7379
14.87
15.0009
15.0968
15.1237
15.3385
15.2799
15.1389
14.9661
14.8057
14.6767
14.5848
14.524
14.49
14.4758
14.4797
14.5003
14.5416
14.6048
14.6954
14.8118
14.9494
15.0854
15.1844
15.2107
15.4394
15.379
15.2334
15.0543
14.8881
14.7545
14.6593
14.5962
14.5611
14.5465
14.551
14.5729
14.6162
14.6824
14.7771
14.8988
15.0423
15.1838
15.2862
15.3118
15.5569
15.4946
15.3442
15.1583
14.9857
14.847
14.7481
14.6826
14.6462
14.6313
14.6365
14.6597
14.7052
14.7747
14.8739
15.0013
15.1513
15.2989
15.4049
15.4296
15.6946
15.6304
15.4749
15.2817
15.1021
14.9577
14.8548
14.7866
14.7487
14.7335
14.7394
14.7641
14.8121
14.8851
14.9893
15.1229
15.2801
15.4344
15.5442
15.5676
15.8558
15.7905
15.6299
15.4288
15.2416
15.091
14.9836
14.9124
14.8728
14.8572
14.864
14.8903
14.9409
15.0178
15.1275
15.2679
15.433
15.5945
15.7086
15.7303
16.0479
15.9813
15.8152
15.6056
15.4099
15.2525
15.1402
15.0657
15.0242
15.0081
15.0159
15.0439
15.0974
15.1785
15.2941
15.442
15.6157
15.7852
15.9038
15.9232
16.2774
16.2099
16.0383
15.8193
15.6145
15.4496
15.3318
15.2535
15.2099
15.1932
15.2021
15.2319
15.2885
15.3741
15.4961
15.6522
15.8353
16.0135
16.137
16.1534
16.554
16.4862
16.309
16.0801
15.8653
15.6921
15.5683
15.4858
15.4396
15.4223
15.4324
15.464
15.5238
15.6142
15.7431
15.9082
16.1016
16.2894
16.4179
16.4304
16.8899
16.8227
16.6404
16.4009
16.1753
15.9931
15.8627
15.7756
15.7263
15.708
15.7193
15.7528
15.8158
15.9113
16.0475
16.2222
16.4269
16.6252
16.7591
16.7664
17.3018
17.2367
17.0502
16.7999
16.5628
16.3711
16.2334
16.141
16.0881
16.0684
16.0807
16.1159
16.182
16.2825
16.4263
16.6114
16.8285
17.0381
17.1777
17.1782
17.811
17.7513
17.5625
17.3016
17.0527
16.8508
16.7055
16.6073
16.5499
16.5279
16.541
16.5774
16.6461
16.7514
16.903
17.0989
17.3291
17.551
17.6961
17.6877
18.449
18.399
18.2112
17.9407
17.6802
17.468
17.3148
17.2106
17.1477
17.1218
17.1347
17.1715
17.2421
17.3515
17.5105
17.7174
17.9612
18.1959
18.3459
18.3256
19.2585
19.225
19.0435
18.7656
18.4941
18.2721
18.1111
18.0005
17.9311
17.8996
17.9111
17.9466
18.0174
18.1294
18.2948
18.5124
18.7703
19.0178
19.1712
19.1334
20.2997
20.2928
20.1258
19.8443
19.564
19.3331
19.165
19.0478
18.9703
18.9304
18.9371
18.9695
19.0383
19.1509
19.3212
19.5485
19.8198
20.0795
20.2337
20.1707
21.6561
21.6904
21.5501
21.2712
20.9855
20.7479
20.5741
20.4512
20.3664
20.3112
20.3007
20.3333
20.3971
20.507
20.6793
20.9145
21.1977
21.4671
21.6169
21.5176
23.4434
23.5393
23.4426
23.1752
22.8887
22.6474
22.4698
22.3429
22.253
22.1847
22.1515
22.1678
22.2193
22.3211
22.4917
22.7318
23.0235
23.2982
23.4366
23.2862
25.8172
26.0017
25.9708
25.7259
25.4444
25.2022
25.0221
24.8907
24.7936
24.7147
24.653
24.6252
24.6663
24.754
24.9168
25.1566
25.4525
25.7277
25.8458
25.6255
28.9818
29.2883
29.3502
29.1407
28.8698
28.6291
28.4466
28.3077
28.1961
28.0951
28.0031
27.9404
27.9493
28.0117
28.158
28.3898
28.6837
28.9551
29.0447
28.7337
33.1944
33.662
33.8477
33.6872
33.4314
33.1936
33.0101
32.8607
32.7295
32.6016
32.4788
32.3697
32.3153
32.3443
32.4606
32.6785
32.9678
33.2328
33.2873
32.8643
38.7704
39.4428
39.7878
39.6929
39.4583
39.225
39.0411
38.8756
38.7164
38.5515
38.3843
38.222
38.1032
38.0681
38.133
38.3294
38.6155
38.8772
38.895
38.3408
46.0956
47.0221
47.5711
47.5681
47.3745
47.1557
46.9676
46.7845
46.5969
46.3901
46.1691
45.9444
45.7484
45.6133
45.5919
45.7553