/*--------------------------------*- C++ -*----------------------------------*\
  =========                 |
  \\      /  F ield         | OpenFOAM: The Open Source CFD Toolbox
   \\    /   O peration     | Website:  https://openfoam.org
    \\  /    A nd           | Version:  6
     \\/     M anipulation  |
\*---------------------------------------------------------------------------*/
FoamFile
{
    version     2.0;
    format      ascii;
    class       volScalarField;
    location    "3";
    object      k;
}
// * * * * * * * * * * * * * * * * * * * * * * * * * * * * * * * * * * * * * //

dimensions      [0 2 -2 0 0 0 0];

internalField   nonuniform List<scalar> 
10000
(
0.498651
0.632988
0.610928
0.528563
0.463025
0.422516
0.398999
0.386865
0.381172
0.379217
0.380148
0.384039
0.391988
0.406411
0.430573
0.466739
0.520753
0.589348
0.626227
0.51062
0.499576
0.625552
0.599998
0.521135
0.456963
0.416611
0.394452
0.384279
0.379418
0.377595
0.378374
0.381842
0.388705
0.401484
0.424081
0.461638
0.516237
0.586052
0.63263
0.514145
0.509826
0.630138
0.602438
0.522158
0.457636
0.417284
0.395183
0.384513
0.379474
0.377447
0.378165
0.381676
0.388763
0.40157
0.423942
0.460675
0.517184
0.593149
0.687295
0.524963
0.524513
0.637196
0.605395
0.523906
0.458616
0.41772
0.395424
0.384201
0.378961
0.377169
0.377979
0.381537
0.388506
0.401142
0.423129
0.46198
0.522787
0.592546
0.643991
0.535216
0.542608
0.648902
0.613964
0.524034
0.45776
0.417065
0.394967
0.384141
0.37879
0.376945
0.377791
0.381196
0.387707
0.399621
0.421869
0.460204
0.522225
0.603913
0.668199
0.559037
0.591265
0.663408
0.644502
0.529141
0.458657
0.41709
0.39425
0.384124
0.379046
0.377187
0.378008
0.381432
0.387971
0.399976
0.422074
0.459646
0.523517
0.635198
0.746726
0.629901
0.556976
0.676569
0.631244
0.523678
0.456218
0.415543
0.394005
0.383462
0.378603
0.376823
0.377597
0.380862
0.387192
0.399339
0.421154
0.457365
0.514028
0.601757
0.674067
0.548716
0.627339
0.760096
0.6313
0.522811
0.454646
0.412131
0.391756
0.383022
0.378575
0.376841
0.377548
0.38088
0.387369
0.399237
0.420972
0.457626
0.516415
0.581124
0.613374
0.487589
0.552632
0.687428
0.604941
0.518023
0.453824
0.413583
0.392056
0.382561
0.378133
0.376514
0.37739
0.380649
0.387209
0.398766
0.420784
0.458549
0.516672
0.598767
0.637327
0.496228
0.5207
0.621352
0.600291
0.515013
0.450533
0.411045
0.392201
0.382743
0.378256
0.376493
0.377293
0.380601
0.387058
0.399639
0.422104
0.459281
0.52062
0.616217
0.717738
0.510429
0.561792
0.61672
0.589086
0.513225
0.451471
0.412079
0.391805
0.382578
0.378078
0.37653
0.377338
0.380613
0.38695
0.398798
0.420697
0.457192
0.510959
0.585839
0.6738
0.514552
0.505786
0.616193
0.589456
0.514491
0.453165
0.414083
0.392891
0.382862
0.378233
0.376553
0.377354
0.380657
0.387341
0.399572
0.421493
0.457145
0.512791
0.583946
0.637836
0.523781
0.524168
0.626919
0.593904
0.51788
0.453777
0.414253
0.39297
0.382884
0.378087
0.376492
0.377251
0.380511
0.386989
0.398915
0.420583
0.456055
0.512594
0.606797
0.694046
0.573339
0.54998
0.642513
0.598987
0.516031
0.453635
0.414023
0.391943
0.382619
0.378083
0.376505
0.377398
0.380708
0.386836
0.397912
0.42007
0.455177
0.511093
0.571481
0.605884
0.480526
0.632809
0.66436
0.60741
0.517669
0.453117
0.41374
0.392057
0.382329
0.377818
0.376281
0.377231
0.38071
0.38707
0.398601
0.420647
0.45557
0.507444
0.578326
0.628162
0.486238
0.579596
0.719458
0.617582
0.519791
0.453513
0.413733
0.39274
0.382742
0.378088
0.376451
0.37727
0.38061
0.387081
0.399536
0.421504
0.457275
0.516023
0.588777
0.708971
0.496758
0.527939
0.653048
0.628813
0.516719
0.451555
0.41258
0.39229
0.382633
0.378114
0.376514
0.377427
0.380863
0.387542
0.399773
0.421487
0.456297
0.508809
0.584413
0.663139
0.496878
0.555902
0.661913
0.602786
0.514574
0.450644
0.411275
0.39195
0.382503
0.378115
0.376386
0.377243
0.380706
0.387564
0.399867
0.421617
0.456719
0.508988
0.575597
0.619137
0.500473
0.542129
0.732601
0.609782
0.516498
0.453713
0.414089
0.392767
0.38255
0.378023
0.376504
0.377397
0.380854
0.387597
0.399806
0.42144
0.456663
0.51034
0.581523
0.630556
0.508806
0.557685
0.673533
0.606447
0.517414
0.454419
0.414715
0.393165
0.382968
0.378267
0.376583
0.377347
0.380623
0.386905
0.398995
0.421287
0.457863
0.513467
0.592105
0.698152
0.527506
0.628121
0.744779
0.61223
0.520957
0.455923
0.415385
0.393457
0.383105
0.378342
0.376636
0.377354
0.3806
0.387183
0.399856
0.422093
0.458209
0.514474
0.59097
0.648782
0.539432
0.548641
0.660199
0.603511
0.518931
0.456004
0.415569
0.393578
0.383241
0.37842
0.376655
0.377475
0.380733
0.386979
0.398753
0.420119
0.457279
0.516809
0.617975
0.709575
0.598383
0.544061
0.727354
0.610685
0.520465
0.456981
0.41609
0.393117
0.383218
0.378451
0.376857
0.377819
0.381188
0.387654
0.399795
0.421229
0.456739
0.512651
0.589688
0.638587
0.529332
0.560533
0.665401
0.606294
0.520457
0.456918
0.416584
0.394389
0.383638
0.378521
0.376896
0.377892
0.38145
0.387931
0.399858
0.42191
0.459403
0.517798
0.619283
0.700418
0.593101
0.63469
0.729149
0.611207
0.520138
0.456871
0.416992
0.394758
0.383934
0.378769
0.377011
0.377937
0.381635
0.38874
0.401286
0.42352
0.459733
0.514994
0.589545
0.6393
0.527542
0.556284
0.634408
0.601988
0.519156
0.456398
0.41664
0.394821
0.384195
0.378789
0.376983
0.377963
0.381746
0.388891
0.401546
0.423829
0.460523
0.51789
0.596879
0.652921
0.543185
0.531381
0.648661
0.628586
0.527536
0.454619
0.413064
0.393283
0.382943
0.378225
0.376642
0.377702
0.381259
0.387843
0.400214
0.423662
0.462135
0.523562
0.608873
0.676169
0.566185
0.589297
0.703515
0.604762
0.51752
0.451503
0.411467
0.391653
0.382462
0.378089
0.376551
0.377522
0.380868
0.387468
0.400182
0.422763
0.460527
0.53007
0.644849
0.761705
0.611253
0.522327
0.627334
0.592452
0.514312
0.452227
0.412103
0.392592
0.383036
0.378412
0.376692
0.377424
0.380706
0.387185
0.398445
0.419961
0.458109
0.520326
0.622872
0.721825
0.610918
0.54352
0.637565
0.595765
0.517261
0.452751
0.413131
0.392731
0.383047
0.378394
0.376662
0.377384
0.380606
0.386806
0.39882
0.420329
0.456286
0.51369
0.604167
0.682081
0.562434
0.62461
0.628098
0.599802
0.517937
0.453751
0.412563
0.392785
0.383036
0.378373
0.376667
0.377523
0.380833
0.386918
0.398233
0.420073
0.456135
0.51529
0.581403
0.617441
0.50261
0.586745
0.628217
0.626334
0.524686
0.456375
0.415386
0.393494
0.383251
0.378387
0.37661
0.377344
0.380682
0.387254
0.399171
0.420868
0.45736
0.514794
0.598988
0.641435
0.517508
0.574286
0.625004
0.596404
0.519266
0.455878
0.415421
0.392959
0.383196
0.378414
0.376632
0.37735
0.380636
0.387194
0.399169
0.42087
0.457471
0.518768
0.61437
0.720288
0.538471
0.530134
0.628157
0.599134
0.519538
0.456402
0.41583
0.393937
0.383459
0.378479
0.376551
0.377282
0.38061
0.387013
0.398529
0.420371
0.455447
0.508223
0.582156
0.675092
0.584111
0.591043
0.635353
0.611228
0.519638
0.455305
0.415179
0.393702
0.383399
0.37849
0.376667
0.377404
0.380628
0.386871
0.398971
0.420072
0.454605
0.509106
0.57868
0.630697
0.520269
0.526095
0.6403
0.599708
0.517955
0.45521
0.415489
0.393923
0.383419
0.378441
0.376659
0.377387
0.380347
0.38627
0.397705
0.419149
0.453683
0.508308
0.599024
0.681096
0.565216
0.547182
0.660622
0.60571
0.518581
0.455019
0.415189
0.393789
0.383421
0.378496
0.37673
0.37743
0.380592
0.386595
0.398122
0.418848
0.453401
0.506544
0.558225
0.577857
0.467011
0.607587
0.732777
0.635292
0.521599
0.452951
0.41384
0.393062
0.383132
0.378444
0.376778
0.377549
0.380808
0.387061
0.398574
0.419369
0.452633
0.501754
0.562828
0.590319
0.469463
0.544486
0.636144
0.595189
0.514636
0.452076
0.413048
0.392753
0.383055
0.378295
0.37661
0.37754
0.380869
0.387211
0.398503
0.420274
0.454806
0.50599
0.572151
0.605762
0.474096
0.623479
0.625241
0.597495
0.517044
0.45304
0.41228
0.392721
0.383074
0.378462
0.376768
0.37762
0.381004
0.387564
0.399587
0.421264
0.456815
0.512702
0.588545
0.628659
0.479379
0.586633
0.624929
0.623452
0.523372
0.45538
0.414846
0.393307
0.383227
0.378506
0.376824
0.377693
0.381075
0.387668
0.399747
0.421677
0.45807
0.519522
0.6161
0.709474
0.487626
0.574979
0.621205
0.591725
0.51732
0.45456
0.414617
0.392632
0.38307
0.378545
0.376911
0.377771
0.381067
0.387706
0.399188
0.420851
0.456649
0.509016
0.579546
0.652036
0.484704
0.533007
0.624309
0.593579
0.517212
0.454766
0.41473
0.393472
0.383331
0.378507
0.376843
0.377821
0.38123
0.388072
0.400256
0.422034
0.457753
0.514091
0.568367
0.598116
0.482856
0.598869
0.63375
0.597806
0.51678
0.453752
0.41394
0.39322
0.383429
0.37874
0.377006
0.377882
0.381242
0.387808
0.400087
0.42139
0.456181
0.510473
0.571706
0.59641
0.482954
0.545751
0.626342
0.603002
0.520486
0.454999
0.413561
0.393098
0.383006
0.378557
0.376815
0.377665
0.381242
0.388135
0.400447
0.421615
0.456631
0.510903
0.597835
0.60347
0.489352
0.622917
0.636818
0.631674
0.526802
0.45732
0.414053
0.393374
0.383223
0.378512
0.376753
0.377664
0.381108
0.387845
0.400139
0.421678
0.456172
0.50796
0.573195
0.599067
0.490743
0.566448
0.631363
0.603543
0.523536
0.455623
0.415846
0.393963
0.383387
0.378374
0.376771
0.377631
0.380928
0.387453
0.399907
0.421439
0.456433
0.510872
0.597889
0.607381
0.500434
0.515498
0.635762
0.606642
0.524941
0.458154
0.416407
0.394055
0.383434
0.37851
0.376825
0.377855
0.38107
0.387157
0.398706
0.42069
0.455783
0.508521
0.576105
0.606798
0.508007
0.525428
0.643725
0.610128
0.52562
0.45843
0.416548
0.393864
0.383468
0.378625
0.37701
0.378062
0.381559
0.387768
0.399578
0.420833
0.456005
0.512133
0.606081
0.622197
0.525832
0.5419
0.662029
0.61914
0.525726
0.458315
0.416547
0.393376
0.38342
0.378702
0.377048
0.377992
0.381597
0.388206
0.400152
0.421685
0.456965
0.511663
0.586623
0.6379
0.582271
0.580426
0.706265
0.657244
0.532005
0.459254
0.416891
0.394391
0.38354
0.378798
0.377161
0.378145
0.381735
0.388468
0.400525
0.422144
0.457822
0.51516
0.615986
0.676307
0.53544
0.548806
0.660516
0.635637
0.528988
0.459271
0.416969
0.393646
0.383655
0.37868
0.377073
0.378003
0.381663
0.388534
0.400844
0.422491
0.457552
0.511393
0.588803
0.67837
0.589798
0.620122
0.71616
0.649877
0.531702
0.459461
0.417085
0.394013
0.383796
0.378857
0.377078
0.378124
0.381732
0.388634
0.400836
0.421925
0.457104
0.511918
0.575843
0.623881
0.522355
0.539899
0.634548
0.63064
0.523515
0.456403
0.413634
0.393563
0.383573
0.378785
0.377019
0.377927
0.381358
0.387912
0.400223
0.421502
0.455986
0.508267
0.57774
0.631653
0.536362
0.483008
0.634055
0.620364
0.52013
0.455318
0.41498
0.393766
0.383667
0.378875
0.377191
0.37817
0.381706
0.388362
0.400189
0.421241
0.45571
0.508615
0.583729
0.69016
0.606671
0.48648
0.612763
0.591659
0.516015
0.452969
0.415079
0.394027
0.383806
0.378906
0.377049
0.377961
0.381559
0.388497
0.400371
0.421459
0.455602
0.507621
0.578908
0.636189
0.547524
0.496282
0.618731
0.593257
0.516387
0.454924
0.415437
0.394157
0.383981
0.379068
0.377188
0.37794
0.381213
0.387897
0.400481
0.422212
0.457171
0.510095
0.584848
0.692459
0.624218
0.504517
0.619439
0.595094
0.516226
0.45499
0.415112
0.393756
0.383738
0.378955
0.377138
0.377929
0.381439
0.38829
0.400658
0.42245
0.457643
0.510522
0.580174
0.629706
0.547382
0.521561
0.624034
0.606702
0.518469
0.454637
0.414408
0.392399
0.382804
0.37832
0.376724
0.377668
0.380923
0.387293
0.39898
0.420555
0.457584
0.518023
0.607143
0.677488
0.493019
0.541315
0.62342
0.59834
0.517085
0.452471
0.412504
0.392621
0.383048
0.378346
0.376682
0.37768
0.381173
0.387795
0.399811
0.421207
0.456601
0.508866
0.57539
0.613509
0.486451
0.62394
0.63185
0.612434
0.523838
0.456608
0.415352
0.39259
0.382967
0.378316
0.376632
0.377532
0.381006
0.387767
0.399722
0.420696
0.4574
0.516804
0.580644
0.621336
0.487774
0.571862
0.629427
0.596383
0.520444
0.456452
0.415685
0.393014
0.383009
0.378288
0.376546
0.377449
0.380995
0.387677
0.399792
0.42161
0.457609
0.513652
0.595079
0.684717
0.497461
0.538734
0.635721
0.598554
0.520335
0.456471
0.415762
0.393801
0.38333
0.378409
0.376654
0.377466
0.381024
0.387775
0.3999
0.421771
0.458238
0.517417
0.580331
0.621048
0.496847
0.604265
0.648951
0.603404
0.520088
0.454787
0.414676
0.393362
0.383211
0.378359
0.376461
0.377236
0.380747
0.387663
0.399723
0.421378
0.456819
0.512209
0.586527
0.630912
0.503017
0.547701
0.664015
0.608757
0.523643
0.454591
0.413265
0.392178
0.382869
0.378012
0.376252
0.377029
0.380328
0.386907
0.399497
0.421657
0.458022
0.515457
0.599793
0.69834
0.519224
0.58784
0.722812
0.617146
0.523608
0.457559
0.41622
0.393478
0.383205
0.378236
0.37642
0.377191
0.380544
0.387155
0.399365
0.421486
0.458177
0.518976
0.617259
0.647631
0.526383
0.573441
0.685299
0.61326
0.52227
0.456615
0.41467
0.393989
0.38351
0.378404
0.376509
0.377219
0.380439
0.386828
0.398576
0.419342
0.455132
0.511884
0.60287
0.693124
0.573264
0.641963
0.766513
0.620504
0.524106
0.456185
0.41585
0.393536
0.382897
0.378035
0.37642
0.377239
0.380482
0.386806
0.398567
0.420065
0.455451
0.512067
0.574257
0.607948
0.480031
0.555819
0.694977
0.604022
0.517628
0.453516
0.415656
0.394101
0.383504
0.378426
0.376541
0.377228
0.380567
0.386977
0.398433
0.420161
0.456
0.509238
0.583464
0.631516
0.485156
0.496919
0.624158
0.592609
0.517179
0.456671
0.416525
0.394349
0.383576
0.378503
0.376645
0.377391
0.380791
0.38741
0.399745
0.422003
0.457899
0.512894
0.597273
0.717401
0.493386
0.508849
0.629237
0.59369
0.517559
0.456529
0.416488
0.394355
0.383263
0.378242
0.37655
0.377475
0.380803
0.387261
0.399931
0.42236
0.458876
0.515444
0.602326
0.688071
0.490172
0.520471
0.637081
0.59488
0.516944
0.455993
0.416163
0.394019
0.382954
0.378142
0.376415
0.377375
0.381016
0.387569
0.400136
0.422822
0.459793
0.521046
0.618519
0.670848
0.488684
0.542131
0.656262
0.599324
0.51779
0.455228
0.415441
0.393718
0.383224
0.378282
0.376473
0.377253
0.380771
0.38777
0.399734
0.422386
0.457692
0.511013
0.592537
0.610861
0.485427
0.602755
0.72942
0.607312
0.51874
0.453015
0.414214
0.393002
0.382718
0.378016
0.376321
0.377231
0.380734
0.387575
0.399852
0.421951
0.457111
0.508097
0.572611
0.609924
0.482852
0.542405
0.639524
0.595848
0.517105
0.453769
0.413605
0.391947
0.382807
0.378281
0.376546
0.377194
0.380608
0.387195
0.399975
0.422187
0.457523
0.509772
0.580499
0.625213
0.489489
0.620845
0.629226
0.599142
0.519593
0.454909
0.412934
0.392102
0.38249
0.377987
0.376353
0.377142
0.380528
0.387251
0.399341
0.420791
0.455751
0.510343
0.605803
0.686029
0.493345
0.581664
0.63204
0.614782
0.523969
0.457177
0.41585
0.39374
0.383178
0.378247
0.37655
0.377383
0.380795
0.387348
0.398704
0.420407
0.453913
0.502809
0.566312
0.599139
0.484162
0.562419
0.636292
0.603053
0.521829
0.456758
0.413858
0.393736
0.383317
0.378367
0.37656
0.377357
0.380723
0.387159
0.399158
0.421206
0.455391
0.505153
0.570791
0.613498
0.491524
0.507957
0.648268
0.609336
0.523264
0.457733
0.415714
0.394297
0.383486
0.378387
0.376588
0.377413
0.38075
0.387641
0.399971
0.421724
0.455969
0.506365
0.576974
0.672817
0.501715
0.518119
0.705218
0.636597
0.526209
0.459062
0.417589
0.394914
0.383789
0.378529
0.376679
0.377462
0.38072
0.387392
0.399477
0.421121
0.455763
0.506687
0.572661
0.613179
0.501202
0.522133
0.623081
0.595254
0.518969
0.456818
0.416507
0.394356
0.383555
0.378354
0.376575
0.377461
0.38076
0.387231
0.398665
0.420831
0.455857
0.508121
0.578278
0.621235
0.518701
0.58442
0.631598
0.598983
0.518813
0.45687
0.416539
0.394482
0.383789
0.378701
0.376843
0.377546
0.38081
0.387187
0.39919
0.421683
0.45846
0.51231
0.58898
0.678957
0.493998
0.52084
0.636804
0.621784
0.522231
0.457067
0.414145
0.393983
0.383761
0.378817
0.377039
0.37792
0.381272
0.387949
0.399851
0.422106
0.459084
0.518825
0.602933
0.618348
0.493123
0.582183
0.625817
0.593847
0.519054
0.45749
0.415484
0.394239
0.383946
0.37896
0.377078
0.378017
0.381411
0.388312
0.400774
0.422757
0.457506
0.510611
0.58218
0.623274
0.498147
0.523015
0.632082
0.598441
0.519189
0.458576
0.417654
0.395503
0.3845
0.379342
0.377392
0.378266
0.381685
0.38844
0.400907
0.423177
0.459387
0.51388
0.593079
0.686971
0.513814
0.541504
0.649619
0.626813
0.524493
0.458811
0.418219
0.395797
0.384485
0.379533
0.377711
0.378555
0.381965
0.38857
0.400716
0.422921
0.459818
0.516327
0.607882
0.633472
0.521437
0.615899
0.661314
0.605491
0.519772
0.456926
0.416976
0.396229
0.38531
0.380061
0.378302
0.37935
0.383094
0.390015
0.402715
0.425213
0.460866
0.515589
0.592773
0.643198
0.534948
0.582408
0.686685
0.616866
0.523106
0.459809
0.420015
0.397669
0.386346
0.38118
0.379348
0.380205
0.383699
0.390731
0.40369
0.426602
0.463016
0.520512
0.624496
0.714652
0.603689
0.661479
0.772665
0.649405
0.528074
0.459136
0.418779
0.398144
0.386827
0.382011
0.380435
0.381356
0.384973
0.391846
0.404896
0.428037
0.464656
0.519711
0.604869
0.672556
0.539743
0.621422
0.742436
0.638239
0.527499
0.460545
0.420023
0.399207
0.388071
0.383445
0.38189
0.382619
0.385875
0.392062
0.404259
0.427288
0.465799
0.52409
0.620994
0.75302
0.555437
0.623035
0.744813
0.63727
0.526734
0.463955
0.423245
0.400442
0.389663
0.385186
0.383549
0.384015
0.386894
0.393705
0.406607
0.429993
0.466507
0.524522
0.631456
0.732911
0.56829
0.602928
0.732661
0.630248
0.525329
0.467712
0.427611
0.404018
0.391751
0.386871
0.385085
0.385503
0.388118
0.39411
0.406557
0.430693
0.466568
0.520275
0.620523
0.732149
0.625156
0.580515
0.714036
0.620915
0.520376
0.467143
0.428442
0.405937
0.394131
0.389178
0.387304
0.387649
0.390198
0.395825
0.407572
0.426488
0.459507
0.512783
0.608229
0.711026
0.578669
0.539927
0.690217
0.606661
0.516336
0.466428
0.426826
0.40673
0.397619
0.393339
0.391532
0.391869
0.394023
0.398543
0.407535
0.426544
0.455134
0.501248
0.588142
0.682439
0.546074
0.486166
0.654168
0.582431
0.502104
0.455817
0.426568
0.412192
0.405354
0.401625
0.399871
0.400128
0.402095
0.405549
0.411805
0.425108
0.450271
0.488646
0.561446
0.639849
0.489582
0.413117
0.597654
0.543522
0.482845
0.450496
0.431235
0.423327
0.419219
0.416214
0.414483
0.414728
0.416554
0.419191
0.422492
0.429654
0.446725
0.475001
0.527313
0.586221
0.422377
0.348102
0.538112
0.500059
0.465119
0.447254
0.44174
0.439816
0.437075
0.433812
0.431756
0.432005
0.434345
0.437256
0.439208
0.440982
0.44716
0.463818
0.490954
0.529985
0.355069
0.316293
0.489728
0.473851
0.458325
0.449307
0.447124
0.444911
0.441341
0.437574
0.435344
0.43564
0.438404
0.442444
0.445831
0.44801
0.450845
0.461888
0.472769
0.488741
0.323257
0.331314
0.494006
0.451672
0.437203
0.420022
0.407587
0.398796
0.39246
0.38817
0.386085
0.386236
0.388737
0.393303
0.399985
0.409078
0.421561
0.436782
0.450889
0.496568
0.335743
0.386094
0.479436
0.411596
0.393091
0.385068
0.381788
0.379979
0.378397
0.377341
0.376859
0.376837
0.377346
0.378558
0.380175
0.381806
0.384384
0.392613
0.410867
0.478075
0.384889
1.16789
1.33064
1.27948
1.00456
0.668953
0.480804
0.415809
0.393133
0.38458
0.38219
0.383801
0.390066
0.404624
0.436789
0.510398
0.674504
0.945511
1.19584
1.32075
1.2005
1.14202
1.28069
1.21731
0.947381
0.641193
0.463839
0.404597
0.385737
0.379673
0.378286
0.379791
0.385108
0.397287
0.424836
0.488943
0.638046
0.890653
1.14606
1.28764
1.1781
1.19096
1.28785
1.21498
0.948709
0.642537
0.458674
0.40394
0.385198
0.378713
0.377042
0.378393
0.383326
0.394964
0.422722
0.481205
0.612676
0.884319
1.15367
1.36697
1.19723
1.0914
1.28996
1.20058
0.936242
0.641587
0.473621
0.410352
0.387504
0.37944
0.37734
0.378844
0.384414
0.396681
0.426069
0.490349
0.627168
0.85964
1.14784
1.28213
1.23453
1.11399
1.37398
1.21628
0.942569
0.637724
0.47356
0.410882
0.385795
0.37792
0.376342
0.377764
0.382512
0.392972
0.417641
0.477598
0.605937
0.86093
1.1167
1.27877
1.17976
1.11467
1.29363
1.20559
0.937856
0.634098
0.472929
0.411582
0.388038
0.378984
0.377158
0.378761
0.384399
0.395979
0.423555
0.49217
0.629185
0.865069
1.15251
1.31407
1.20812
1.131
1.33434
1.2149
0.940131
0.634847
0.471639
0.410651
0.387733
0.378981
0.377021
0.378261
0.38379
0.398087
0.426635
0.488246
0.621625
0.856868
1.12273
1.39522
1.28776
1.17313
1.39468
1.2134
0.923351
0.623375
0.467097
0.409149
0.387208
0.379061
0.3769
0.378851
0.384562
0.395095
0.423999
0.480497
0.596428
0.849297
1.10305
1.3096
1.20381
1.11331
1.33967
1.20362
0.910201
0.612722
0.450982
0.400936
0.383438
0.377346
0.37612
0.377967
0.384469
0.395616
0.420046
0.475029
0.616594
0.850959
1.11841
1.22841
1.15119
1.16051
1.42398
1.20594
0.865443
0.577915
0.458194
0.406188
0.385994
0.37856
0.376713
0.378145
0.384722
0.398495
0.427596
0.489095
0.62418
0.861485
1.10063
1.23818
1.17556
1.16404
1.39368
1.25004
0.888906
0.586736
0.45254
0.403234
0.384801
0.3782
0.376624
0.378024
0.383018
0.395823
0.423508
0.480295
0.607441
0.860707
1.10698
1.25651
1.26062
1.17813
1.32292
1.22767
0.840235
0.562361
0.442839
0.398629
0.382418
0.376978
0.376049
0.378202
0.384263
0.399851
0.432062
0.495265
0.629175
0.864516
1.11804
1.26715
1.20908
1.13559
1.35488
1.21623
0.917805
0.617009
0.464008
0.406787
0.38571
0.378268
0.376729
0.378996
0.384792
0.399055
0.432483
0.485757
0.606621
0.838272
1.1442
1.28844
1.18112
1.14718
1.338
1.23301
0.909961
0.61266
0.462851
0.40631
0.384336
0.378081
0.376684
0.378681
0.386401
0.402436
0.435169
0.501419
0.626256
0.834038
1.1062
1.36363
1.15033
1.16102
1.27482
1.18175
0.905709
0.582799
0.447755
0.400225
0.384196
0.378799
0.377251
0.378901
0.384946
0.400399
0.432125
0.498265
0.624378
0.841896
1.12599
1.32568
1.20065
1.17389
1.33926
1.18854
0.916807
0.622039
0.465293
0.407024
0.386514
0.379098
0.37712
0.378359
0.384129
0.3975
0.429896
0.49421
0.62884
0.851887
1.09577
1.25459
1.17529
1.10457
1.25234
1.18102
0.91084
0.617665
0.462763
0.403207
0.384344
0.37791
0.376542
0.378951
0.385448
0.399477
0.428869
0.484601
0.623322
0.8407
1.09026
1.26169
1.23445
1.05357
1.24785
1.18617
0.916543
0.621154
0.453833
0.405957
0.385976
0.378734
0.376931
0.378509
0.384929
0.397902
0.422053
0.492162
0.624742
0.849166
1.102
1.32021
1.17787
1.11338
1.26336
1.21747
0.882597
0.59076
0.464803
0.408008
0.386666
0.379026
0.377034
0.378215
0.384586
0.398083
0.423892
0.482453
0.604492
0.823788
1.09558
1.21534
1.11719
1.12961
1.26506
1.18331
0.922822
0.624254
0.467749
0.408491
0.386758
0.379033
0.377027
0.378413
0.383998
0.397243
0.427233
0.490664
0.624519
0.845084
1.07146
1.20703
1.11397
1.15456
1.28074
1.18638
0.916083
0.623772
0.469656
0.409559
0.387229
0.379115
0.376874
0.3779
0.381535
0.391978
0.418815
0.487001
0.621107
0.849439
1.11084
1.21319
1.18237
1.17257
1.30023
1.19556
0.910881
0.61591
0.467544
0.409136
0.387132
0.379041
0.376819
0.378062
0.382815
0.395691
0.426314
0.487676
0.616471
0.843344
1.10106
1.1998
1.11203
1.15192
1.39225
1.20662
0.922327
0.61705
0.467998
0.409754
0.387487
0.379174
0.376856
0.377742
0.383234
0.398132
0.427719
0.490526
0.621919
0.843868
1.07598
1.20578
1.12973
1.18877
1.35902
1.19547
0.913034
0.584984
0.463315
0.408735
0.387324
0.379213
0.377073
0.378382
0.384086
0.398739
0.427951
0.490246
0.623155
0.845003
1.07993
1.21855
1.14967
1.12816
1.31856
1.18774
0.907245
0.617077
0.466047
0.408314
0.386857
0.378959
0.377136
0.379172
0.385509
0.399461
0.42833
0.489371
0.624046
0.850504
1.08961
1.2355
1.17749
1.05548
1.22843
1.18725
0.859385
0.579664
0.44911
0.400598
0.383404
0.378106
0.376536
0.379082
0.385633
0.399603
0.427545
0.478668
0.620828
0.848891
1.09542
1.25581
1.26539
1.04904
1.2156
1.1392
0.88168
0.608852
0.464129
0.407205
0.386157
0.378739
0.377039
0.379155
0.385715
0.400095
0.429585
0.489543
0.619367
0.849433
1.10463
1.30757
1.21769
1.09906
1.22218
1.13633
0.870242
0.609709
0.46495
0.407378
0.386347
0.37882
0.376984
0.378947
0.385434
0.399763
0.428849
0.480518
0.596905
0.825122
1.10803
1.21202
1.16864
1.0496
1.22128
1.17319
0.870061
0.601758
0.459059
0.40528
0.385619
0.378563
0.376778
0.378589
0.38478
0.399184
0.430489
0.494231
0.620457
0.8339
1.06871
1.20718
1.09412
1.06007
1.22779
1.13342
0.839708
0.600061
0.457885
0.404735
0.385124
0.378214
0.376405
0.377238
0.381759
0.392936
0.419677
0.488902
0.622591
0.853302
1.09467
1.22988
1.12188
1.08188
1.24279
1.15627
0.88072
0.594724
0.444414
0.399392
0.383816
0.377979
0.376522
0.378003
0.382908
0.394876
0.421017
0.475482
0.597392
0.837776
1.12322
1.24819
1.17664
1.09883
1.27247
1.16506
0.888314
0.578203
0.456196
0.404368
0.384168
0.377588
0.376068
0.378151
0.384105
0.39738
0.425875
0.483445
0.60575
0.840666
1.08157
1.29752
1.08984
1.11885
1.37517
1.17922
0.898428
0.626172
0.460255
0.405539
0.386622
0.378878
0.376372
0.377283
0.381935
0.393691
0.424126
0.484896
0.618424
0.845797
1.07397
1.19904
1.08534
1.14922
1.3265
1.16891
0.875524
0.634749
0.455498
0.403748
0.386561
0.378384
0.37649
0.377887
0.382973
0.394582
0.419972
0.477327
0.616335
0.838968
1.07123
1.19176
1.08286
1.09934
1.2607
1.17269
0.929906
0.650127
0.46692
0.410626
0.388033
0.379378
0.377136
0.378728
0.384473
0.397422
0.425806
0.488383
0.624438
0.860321
1.09649
1.20696
1.11126
1.12951
1.27572
1.18171
0.934662
0.647425
0.47876
0.411589
0.388212
0.379077
0.376931
0.37852
0.384026
0.394343
0.419087
0.473814
0.599705
0.849249
1.13564
1.21509
1.16701
1.19236
1.26054
1.17202
0.926047
0.646412
0.479947
0.406832
0.387142
0.379022
0.376841
0.37805
0.384388
0.398059
0.426144
0.484429
0.609235
0.845749
1.11643
1.21075
1.09663
1.11415
1.26839
1.16822
0.922761
0.646882
0.481832
0.413836
0.388528
0.379359
0.376954
0.37829
0.382924
0.394312
0.420496
0.478329
0.599006
0.841327
1.07893
1.20726
1.15044
1.05999
1.32844
1.16228
0.916169
0.642927
0.478591
0.412976
0.388161
0.379236
0.376899
0.378135
0.38459
0.397813
0.427187
0.493121
0.632737
0.865009
1.10105
1.21703
1.12027
1.08402
1.26817
1.16392
0.907778
0.62977
0.460276
0.409486
0.387507
0.379167
0.376907
0.378092
0.384204
0.394457
0.419532
0.478446
0.614498
0.854064
1.13644
1.22542
1.17304
1.09645
1.35179
1.18239
0.911297
0.62408
0.470356
0.410065
0.387469
0.379203
0.37698
0.378304
0.384865
0.397756
0.425246
0.487061
0.625757
0.845082
1.12342
1.22387
1.10454
1.07792
1.32382
1.18189
0.905978
0.618331
0.468377
0.409493
0.387318
0.379193
0.376956
0.378234
0.382747
0.394018
0.41962
0.478102
0.622846
0.847933
1.09209
1.22836
1.16286
1.07528
1.25897
1.17252
0.88963
0.60815
0.466451
0.409692
0.387551
0.379335
0.376946
0.378028
0.383927
0.396593
0.425722
0.492598
0.633313
0.862756
1.1026
1.24741
1.12544
1.10365
1.27372
1.18439
0.899757
0.611726
0.464983
0.408894
0.387028
0.37917
0.376488
0.377985
0.383287
0.392335
0.416738
0.479179
0.63028
0.86198
1.1096
1.32641
1.13792
1.15116
1.35255
1.21708
0.86251
0.57907
0.450212
0.40665
0.384594
0.378057
0.376459
0.378512
0.383798
0.393861
0.419211
0.487268
0.627085
0.861183
1.10499
1.25228
1.14023
1.07179
1.25541
1.15813
0.874739
0.607136
0.465382
0.409361
0.386426
0.379195
0.376786
0.378284
0.384051
0.394994
0.416182
0.469971
0.598383
0.839212
1.12539
1.31581
1.1983
1.09879
1.27223
1.17432
0.88736
0.603995
0.45048
0.402459
0.384952
0.378425
0.376876
0.378884
0.384317
0.39433
0.418439
0.472933
0.595636
0.824805
1.08097
1.22952
1.10138
1.14615
1.35936
1.2085
0.856241
0.57934
0.465205
0.410702
0.388576
0.380001
0.377532
0.378977
0.384764
0.397557
0.424837
0.484886
0.61812
0.851492
1.13204
1.31331
1.17349
1.08111
1.27059
1.16777
0.870901
0.599666
0.467909
0.411792
0.389055
0.380138
0.377536
0.378736
0.383276
0.396538
0.422967
0.484314
0.626239
0.856266
1.09643
1.2352
1.1203
1.14628
1.2933
1.20817
0.866703
0.591201
0.468076
0.411222
0.388543
0.379876
0.37748
0.378909
0.384235
0.396108
0.419659
0.475336
0.625938
0.857559
1.10213
1.25801
1.12958
1.11639
1.30565
1.1979
0.909367
0.616111
0.45419
0.407538
0.387464
0.37956
0.377322
0.37827
0.383116
0.394651
0.425343
0.48433
0.626606
0.862184
1.11224
1.32118
1.14266
1.1563
1.40424
1.23381
0.877618
0.586477
0.464704
0.404571
0.384622
0.378136
0.377199
0.379205
0.385034
0.396227
0.42282
0.491067
0.60879
0.857032
1.10657
1.31697
1.14653
1.08364
1.36147
1.20397
0.882682
0.592549
0.453078
0.406188
0.38622
0.379042
0.377379
0.379381
0.385598
0.399269
0.428366
0.492192
0.627796
0.858593
1.10243
1.2546
1.15039
1.11298
1.31528
1.23711
0.918553
0.619543
0.466942
0.406955
0.384459
0.377753
0.376579
0.379141
0.385433
0.39887
0.427062
0.487073
0.603342
0.834428
1.11841
1.31608
1.20825
1.08135
1.38199
1.22077
0.924867
0.62301
0.464477
0.400391
0.38277
0.377897
0.376898
0.379077
0.385246
0.398127
0.424748
0.481906
0.60792
0.835761
1.08146
1.22205
1.09262
1.07776
1.29499
1.21857
0.875453
0.582703
0.4493
0.401346
0.383833
0.377745
0.376733
0.378692
0.384584
0.397145
0.424504
0.48172
0.59086
0.828179
1.12488
1.26974
1.11491
1.03382
1.21461
1.14665
0.896278
0.620029
0.469397
0.409143
0.386816
0.378861
0.37675
0.37765
0.382585
0.394113
0.423344
0.483351
0.61548
0.854168
1.09331
1.2226
1.12002
1.05483
1.2292
1.14897
0.89017
0.621899
0.472285
0.410561
0.387485
0.379169
0.37696
0.378211
0.38408
0.396535
0.423124
0.474629
0.594287
0.8562
1.10025
1.2394
1.13208
1.0606
1.23338
1.16829
0.884392
0.607705
0.466576
0.408857
0.387057
0.379113
0.377029
0.378475
0.38345
0.39356
0.421134
0.488882
0.618034
0.866363
1.11394
1.27198
1.14879
1.0716
1.24512
1.14403
0.852476
0.589219
0.465566
0.408497
0.386793
0.378958
0.37695
0.378409
0.382912
0.39536
0.426516
0.488311
0.610096
0.865046
1.12097
1.33883
1.16619
1.09122
1.25841
1.16452
0.895735
0.587728
0.463651
0.407595
0.386455
0.378839
0.37686
0.378308
0.383206
0.395047
0.425967
0.48867
0.62461
0.865687
1.11889
1.27315
1.17708
1.13923
1.33621
1.16797
0.872591
0.622256
0.469836
0.40841
0.386619
0.378773
0.376752
0.378072
0.38437
0.395833
0.420566
0.474136
0.594458
0.838258
1.13949
1.33581
1.25209
1.06767
1.25385
1.15565
0.887271
0.621363
0.467804
0.403634
0.383687
0.377393
0.375949
0.377987
0.384614
0.399019
0.428827
0.487892
0.604263
0.82486
1.07015
1.22965
1.15126
1.1007
1.33189
1.18642
0.906858
0.622564
0.452855
0.405683
0.385673
0.377689
0.376159
0.378137
0.383321
0.39318
0.419595
0.476652
0.59782
0.839356
1.07674
1.24897
1.12676
1.13077
1.24356
1.15678
0.86855
0.618996
0.469232
0.408639
0.38637
0.377996
0.376103
0.378119
0.383386
0.395005
0.425059
0.485997
0.602682
0.847727
1.11825
1.32726
1.19563
1.06652
1.25055
1.15949
0.886631
0.61629
0.468471
0.4082
0.386339
0.377728
0.375888
0.377587
0.383921
0.396298
0.423197
0.484539
0.621412
0.845437
1.07592
1.20829
1.17231
1.09948
1.33381
1.1993
0.905882
0.620158
0.466617
0.402672
0.385259
0.378096
0.376214
0.377701
0.383849
0.395866
0.42093
0.47822
0.617516
0.846097
1.1104
1.19368
1.10757
1.12759
1.23979
1.16048