/*--------------------------------*- C++ -*----------------------------------*\
  =========                 |
  \\      /  F ield         | OpenFOAM: The Open Source CFD Toolbox
   \\    /   O peration     | Website:  https://openfoam.org
    \\  /    A nd           | Version:  6
     \\/     M anipulation  |
\*---------------------------------------------------------------------------*/
FoamFile
{
    version     2.0;
    format      ascii;
    class       volScalarField;
    location    "3";
    object      k;
}
// * * * * * * * * * * * * * * * * * * * * * * * * * * * * * * * * * * * * * //

dimensions      [0 2 -2 0 0 0 0];

internalField   nonuniform List<scalar> 
130000
(
0.419953
0.42304
0.419062
0.410289
0.40018
0.390889
0.383307
0.377566
0.373439
0.370592
0.368701
0.3675
0.366786
0.366422
0.366313
0.366403
0.366634
0.36696
0.367284
0.367541
0.419578
0.42287
0.418827
0.409979
0.399863
0.390613
0.383104
0.377437
0.373379
0.370585
0.368735
0.367558
0.36686
0.366499
0.36639
0.366472
0.366697
0.367014
0.367337
0.367593
0.419601
0.422806
0.418734
0.409875
0.399768
0.390531
0.383044
0.377395
0.373356
0.370573
0.368732
0.367555
0.366857
0.366492
0.36638
0.366455
0.36668
0.36699
0.367314
0.367574
0.419706
0.422813
0.418666
0.409775
0.399664
0.390435
0.382965
0.377331
0.373308
0.370535
0.368703
0.367529
0.366836
0.36647
0.366359
0.366431
0.366656
0.366964
0.367292
0.367555
0.419765
0.422777
0.418573
0.409657
0.399548
0.390332
0.382882
0.377266
0.373261
0.3705
0.368678
0.367512
0.366826
0.366466
0.366359
0.366435
0.366663
0.366975
0.367306
0.367568
0.419841
0.42278
0.418509
0.409551
0.399431
0.390223
0.38279
0.377193
0.373206
0.370459
0.368651
0.367493
0.366816
0.366461
0.366355
0.366432
0.366664
0.366983
0.367315
0.367572
0.419976
0.422828
0.418469
0.40946
0.399324
0.390118
0.382702
0.377123
0.373155
0.370423
0.368629
0.367484
0.366818
0.366466
0.366363
0.366438
0.366671
0.366987
0.367316
0.367565
0.420022
0.422801
0.418383
0.409342
0.399195
0.389998
0.3826
0.377042
0.373094
0.370379
0.368599
0.367465
0.36681
0.36646
0.366359
0.366431
0.366666
0.366975
0.367299
0.367536
0.420031
0.422778
0.418306
0.409227
0.399066
0.389879
0.3825
0.376965
0.373037
0.370339
0.368571
0.367444
0.366792
0.366438
0.366335
0.366408
0.366647
0.366964
0.367292
0.367535
0.420043
0.422766
0.41824
0.409108
0.398924
0.389751
0.382399
0.376889
0.37298
0.370298
0.368541
0.367423
0.366766
0.36641
0.36631
0.366385
0.36662
0.366934
0.367264
0.367515
0.420067
0.422769
0.418209
0.409038
0.398832
0.389671
0.38233
0.376835
0.372939
0.370268
0.368519
0.367402
0.366745
0.366399
0.366302
0.366379
0.36661
0.366915
0.367241
0.367491
0.42011
0.422792
0.418204
0.409013
0.39879
0.389627
0.382284
0.376792
0.372902
0.37024
0.368498
0.36738
0.36673
0.366389
0.366296
0.366375
0.366607
0.366911
0.367237
0.367484
0.420156
0.422836
0.418218
0.409002
0.398772
0.389596
0.382247
0.376758
0.372873
0.370217
0.368481
0.367369
0.366725
0.36639
0.3663
0.366383
0.366619
0.366927
0.367253
0.367501
0.420271
0.422947
0.418276
0.409011
0.398764
0.389564
0.382207
0.37672
0.372841
0.370193
0.368461
0.367358
0.366721
0.366392
0.366307
0.366395
0.366635
0.366947
0.367277
0.367528
0.420374
0.423048
0.41833
0.409023
0.398735
0.389519
0.382159
0.37668
0.37281
0.370173
0.368449
0.367359
0.366731
0.366409
0.366331
0.366429
0.366675
0.366994
0.367325
0.367574
0.420424
0.423086
0.41833
0.408978
0.398658
0.389435
0.382085
0.376625
0.372772
0.370152
0.368444
0.36737
0.366752
0.366439
0.366365
0.366465
0.366711
0.367027
0.36735
0.367583
0.420466
0.423113
0.418322
0.408925
0.398578
0.389359
0.382019
0.376579
0.372741
0.370136
0.368438
0.367371
0.366758
0.36645
0.366375
0.366475
0.36672
0.367035
0.367356
0.367584
0.420567
0.42323
0.418404
0.408965
0.398578
0.389344
0.381996
0.376553
0.372716
0.370113
0.368416
0.367352
0.366741
0.366436
0.366366
0.366471
0.366722
0.367042
0.367368
0.367604
0.420788
0.423446
0.418569
0.409075
0.398638
0.389358
0.38199
0.376538
0.3727
0.370101
0.368406
0.367346
0.366737
0.366437
0.366371
0.366485
0.366744
0.367073
0.367398
0.367642
0.420983
0.423628
0.418707
0.409166
0.398696
0.389384
0.381999
0.37654
0.372699
0.370101
0.368406
0.367348
0.366742
0.366446
0.366382
0.366499
0.366759
0.36709
0.367413
0.367657
0.421172
0.423809
0.41886
0.409284
0.398783
0.389453
0.382044
0.376563
0.37271
0.370109
0.368415
0.367359
0.366758
0.366464
0.366405
0.366526
0.36678
0.367111
0.367432
0.367677
0.421379
0.424021
0.419038
0.409419
0.398875
0.389511
0.382073
0.376573
0.372714
0.37011
0.368412
0.367356
0.366756
0.366466
0.366412
0.366536
0.36679
0.367122
0.367443
0.367687
0.421671
0.424289
0.419242
0.409558
0.398962
0.389563
0.382097
0.376592
0.372725
0.370115
0.368412
0.367359
0.366756
0.366473
0.366421
0.366548
0.366802
0.367137
0.367457
0.367703
0.421939
0.424529
0.41942
0.409676
0.399031
0.389601
0.382116
0.376608
0.37273
0.37012
0.36842
0.367372
0.366768
0.366486
0.366429
0.366555
0.366807
0.367143
0.367462
0.36771
0.422189
0.424754
0.41959
0.40979
0.3991
0.389643
0.382141
0.376619
0.372735
0.370127
0.368432
0.36739
0.366787
0.366504
0.366437
0.366561
0.366809
0.367147
0.367463
0.367716
0.422474
0.425015
0.419787
0.409921
0.399179
0.389686
0.382159
0.376622
0.372734
0.370127
0.368433
0.367394
0.366791
0.366507
0.366434
0.366559
0.3668
0.367136
0.367452
0.367712
0.422868
0.42536
0.420043
0.410093
0.399284
0.389747
0.382194
0.376633
0.372738
0.370131
0.368433
0.367395
0.366791
0.366509
0.366437
0.366565
0.366805
0.367139
0.367453
0.367711
0.42327
0.42571
0.420305
0.410273
0.399397
0.389815
0.382232
0.376657
0.37275
0.370132
0.368427
0.367385
0.366779
0.366499
0.366434
0.366562
0.366814
0.367145
0.367453
0.367703
0.42368
0.426064
0.420573
0.410459
0.399517
0.389888
0.382276
0.376686
0.372762
0.370134
0.368422
0.367376
0.366769
0.36649
0.366426
0.366558
0.366813
0.36714
0.367449
0.367698
0.4241
0.42643
0.42085
0.410651
0.399641
0.389964
0.382319
0.376708
0.372769
0.370131
0.368413
0.367364
0.366754
0.366475
0.366412
0.366545
0.366797
0.367133
0.367447
0.367698
0.424526
0.426806
0.421137
0.410851
0.399769
0.390042
0.382363
0.376731
0.372778
0.37013
0.368402
0.367347
0.366734
0.366455
0.366392
0.366529
0.366788
0.367138
0.367457
0.367709
0.424957
0.427195
0.421437
0.41106
0.399904
0.390124
0.38241
0.376757
0.372791
0.370136
0.368405
0.367349
0.366736
0.366458
0.366398
0.366538
0.366801
0.367155
0.367475
0.367726
0.425405
0.427608
0.42176
0.411288
0.400053
0.390216
0.382464
0.376788
0.372809
0.370149
0.368415
0.36736
0.366749
0.366474
0.366416
0.36656
0.366825
0.367178
0.367498
0.367746
0.425869
0.428041
0.422104
0.411533
0.400214
0.390316
0.382524
0.376824
0.372832
0.370167
0.368432
0.367378
0.366771
0.366499
0.366446
0.366596
0.366861
0.367206
0.367523
0.367768
0.426346
0.428491
0.422465
0.411791
0.400385
0.390424
0.382591
0.376866
0.372861
0.370192
0.368459
0.367409
0.366807
0.366538
0.366486
0.366633
0.366889
0.36723
0.367547
0.36779
0.426842
0.428963
0.422844
0.412064
0.400568
0.39054
0.382662
0.37691
0.37289
0.370215
0.368483
0.367436
0.366835
0.366564
0.366504
0.366646
0.366897
0.367247
0.367567
0.367811
0.42737
0.429469
0.423255
0.412362
0.400768
0.390667
0.38274
0.376956
0.372916
0.370229
0.368491
0.36744
0.366837
0.366564
0.366502
0.366644
0.366905
0.367263
0.367588
0.367833
0.427928
0.430006
0.423695
0.412682
0.400984
0.390805
0.382824
0.377004
0.37294
0.370235
0.368485
0.367425
0.366818
0.366547
0.366494
0.366638
0.366915
0.367282
0.367611
0.367855
0.428512
0.430571
0.424159
0.413023
0.401216
0.390955
0.382917
0.377059
0.37297
0.370248
0.368484
0.367415
0.366805
0.366534
0.366488
0.366647
0.366934
0.367307
0.36764
0.367882
0.429124
0.431165
0.424649
0.413384
0.401465
0.391118
0.383019
0.377122
0.373009
0.370272
0.368499
0.367426
0.366816
0.366546
0.366504
0.366667
0.36696
0.367338
0.367673
0.367913
0.429775
0.431801
0.425177
0.413775
0.401735
0.391296
0.383134
0.377195
0.373056
0.370303
0.368522
0.367445
0.366834
0.366566
0.366527
0.366695
0.366993
0.367374
0.367712
0.367948
0.430465
0.432477
0.425739
0.414194
0.402025
0.391488
0.383258
0.377274
0.373108
0.370339
0.368549
0.367468
0.366857
0.36659
0.366554
0.366726
0.367029
0.367415
0.367754
0.367988
0.431193
0.43319
0.426334
0.414639
0.402336
0.391696
0.383394
0.377363
0.373167
0.37038
0.368581
0.367495
0.366883
0.366617
0.366585
0.366761
0.367071
0.36746
0.367802
0.368033
0.431967
0.433949
0.426968
0.415115
0.40267
0.391921
0.383542
0.37746
0.373232
0.370426
0.368616
0.367525
0.366913
0.366648
0.366619
0.3668
0.367115
0.36751
0.367854
0.368083
0.4328
0.434767
0.427656
0.415634
0.403037
0.392169
0.383707
0.377568
0.373306
0.370478
0.368656
0.36756
0.366947
0.366683
0.366658
0.366844
0.367166
0.367566
0.367913
0.368138
0.43369
0.435643
0.428395
0.416194
0.403435
0.39244
0.383887
0.377688
0.373387
0.370536
0.368702
0.367598
0.366984
0.366721
0.3667
0.366892
0.367221
0.367626
0.367976
0.368198
0.434633
0.43657
0.429179
0.416791
0.403861
0.392733
0.384084
0.377821
0.373478
0.370602
0.368753
0.367643
0.367027
0.366765
0.366749
0.366946
0.367282
0.367694
0.368047
0.368266
0.435621
0.437548
0.430009
0.417426
0.404317
0.393047
0.384298
0.377965
0.373579
0.370674
0.36881
0.367692
0.367075
0.366814
0.366802
0.367005
0.367349
0.367767
0.368123
0.368339
0.436638
0.438587
0.430897
0.41811
0.404811
0.39339
0.384532
0.378125
0.373691
0.370757
0.368876
0.367748
0.367129
0.366869
0.366862
0.367072
0.367424
0.367849
0.368209
0.368421
0.437753
0.439702
0.431854
0.41885
0.405349
0.393766
0.384789
0.378301
0.373815
0.370848
0.368948
0.367811
0.367189
0.36693
0.366928
0.367146
0.367507
0.367939
0.368302
0.36851
0.438989
0.440926
0.432902
0.419662
0.405939
0.39418
0.385075
0.378499
0.373955
0.370952
0.369031
0.367883
0.367258
0.367
0.367003
0.367228
0.367599
0.36804
0.368407
0.368611
0.440348
0.442265
0.434045
0.420546
0.406585
0.394633
0.385389
0.378717
0.37411
0.371068
0.369124
0.367964
0.367335
0.367078
0.367086
0.36732
0.367701
0.36815
0.368521
0.368721
0.441793
0.443695
0.435273
0.421502
0.407286
0.395129
0.385735
0.378958
0.374283
0.371198
0.369229
0.368056
0.367423
0.367166
0.367181
0.367423
0.367815
0.368274
0.36865
0.368844
0.443331
0.44522
0.436587
0.42253
0.408042
0.395667
0.386111
0.379223
0.374475
0.371343
0.369347
0.368159
0.367521
0.367265
0.367286
0.367538
0.367941
0.36841
0.368791
0.36898
0.444978
0.446853
0.437997
0.423637
0.408862
0.396252
0.386524
0.379516
0.374689
0.371506
0.36948
0.368276
0.367633
0.367378
0.367406
0.367668
0.368084
0.368564
0.368949
0.369133
0.446743
0.448606
0.439513
0.42483
0.409748
0.396889
0.386976
0.379838
0.374925
0.371688
0.36963
0.368409
0.367759
0.367505
0.36754
0.367813
0.368243
0.368734
0.369125
0.369302
0.44865
0.450498
0.441154
0.426125
0.410713
0.397585
0.387472
0.380195
0.37519
0.371894
0.3698
0.36856
0.367904
0.367651
0.367693
0.367978
0.368423
0.368926
0.369322
0.369494
0.450701
0.452536
0.442924
0.427526
0.411761
0.398344
0.388017
0.380589
0.375484
0.372124
0.369992
0.368731
0.368067
0.367815
0.367865
0.368163
0.368623
0.36914
0.369541
0.369705
0.452915
0.454736
0.444837
0.429045
0.412902
0.399176
0.388617
0.381028
0.375814
0.372384
0.37021
0.368926
0.368254
0.368002
0.368062
0.368374
0.368851
0.369382
0.369788
0.36994
0.455306
0.457114
0.446909
0.430694
0.414146
0.400086
0.389279
0.381513
0.376182
0.372677
0.370457
0.369148
0.368466
0.36821
0.368283
0.368612
0.369108
0.369654
0.370066
0.370209
0.457907
0.459698
0.449165
0.432496
0.41551
0.40109
0.390012
0.382057
0.376598
0.373011
0.370741
0.369405
0.368712
0.368457
0.368541
0.368887
0.369402
0.369966
0.370384
0.370517
0.460724
0.4625
0.451616
0.43446
0.417003
0.402194
0.390824
0.382662
0.377064
0.373388
0.371064
0.369699
0.368994
0.36874
0.368835
0.369199
0.369735
0.370317
0.370742
0.370865
0.463786
0.465544
0.454285
0.436606
0.418641
0.403412
0.391725
0.38334
0.377592
0.373818
0.371436
0.370038
0.369321
0.369069
0.369176
0.369559
0.370118
0.37072
0.371152
0.371263
0.467113
0.468856
0.457193
0.438951
0.420439
0.404756
0.392727
0.384099
0.378187
0.374308
0.371861
0.370428
0.369697
0.369446
0.369566
0.36997
0.370554
0.371178
0.371617
0.371714
0.470751
0.472478
0.46038
0.441528
0.422423
0.406247
0.393846
0.384954
0.378864
0.374869
0.372351
0.370881
0.370134
0.369885
0.370019
0.370446
0.371058
0.371705
0.372152
0.372234
0.474723
0.476436
0.46387
0.444361
0.424613
0.407902
0.395096
0.385917
0.379632
0.375512
0.372916
0.371404
0.37064
0.370392
0.370542
0.370994
0.371636
0.372308
0.372763
0.372827
0.479077
0.480776
0.467704
0.447484
0.42704
0.409749
0.396502
0.387009
0.380511
0.376253
0.373573
0.372014
0.371231
0.370985
0.371152
0.371632
0.372306
0.373006
0.37347
0.373513
0.48386
0.485547
0.471928
0.450937
0.429737
0.411813
0.398085
0.388249
0.381518
0.377108
0.374334
0.372724
0.371921
0.371677
0.371861
0.372372
0.373081
0.373811
0.374283
0.374303
0.489143
0.490816
0.476605
0.454776
0.432751
0.414135
0.39988
0.389667
0.38268
0.378103
0.375225
0.373558
0.372732
0.37249
0.372694
0.373238
0.373986
0.374749
0.37523
0.375223
0.494978
0.49664
0.481788
0.459048
0.436123
0.416751
0.401917
0.391291
0.384022
0.37926
0.376269
0.374538
0.373685
0.373445
0.373671
0.374251
0.375042
0.375839
0.376329
0.37629
0.501449
0.503102
0.487553
0.463822
0.439914
0.419713
0.404245
0.393164
0.385583
0.380618
0.377499
0.375698
0.374816
0.374577
0.374827
0.375446
0.376283
0.377119
0.377618
0.377542
0.50864
0.51029
0.493985
0.469173
0.444189
0.42308
0.406913
0.39533
0.387405
0.382215
0.378954
0.377074
0.376158
0.375919
0.376194
0.376857
0.377744
0.378621
0.379127
0.379007
0.516676
0.518328
0.501199
0.475203
0.449039
0.426929
0.409992
0.397854
0.389548
0.384106
0.380688
0.378718
0.377763
0.377524
0.377826
0.378535
0.379478
0.3804
0.380912
0.380739
0.525673
0.527337
0.509311
0.482022
0.454562
0.431349
0.413561
0.400808
0.392078
0.386356
0.382761
0.38069
0.379689
0.379448
0.379777
0.380536
0.381537
0.382506
0.383023
0.382786
0.535801
0.53749
0.518487
0.489779
0.460893
0.436462
0.417729
0.404293
0.395089
0.389055
0.38526
0.383073
0.382018
0.381772
0.382128
0.38294
0.384004
0.385023
0.38554
0.385226
0.547252
0.548985
0.528914
0.49865
0.468189
0.442409
0.422627
0.408428
0.398696
0.392309
0.388287
0.385966
0.384847
0.384589
0.384972
0.385837
0.386967
0.388036
0.388549
0.388138
0.560274
0.562073
0.540838
0.50886
0.47666
0.449381
0.42843
0.413378
0.403051
0.396266
0.391987
0.389509
0.388312
0.388034
0.388439
0.389359
0.390556
0.391676
0.392178
0.391647
0.575137
0.577042
0.554542
0.520682
0.486557
0.457611
0.435354
0.419346
0.408349
0.401112
0.396537
0.393876
0.39258
0.39227
0.392689
0.393659
0.394921
0.396089
0.396567
0.39589
0.592219
0.594286
0.570411
0.53448
0.498222
0.467418
0.443698
0.426614
0.414859
0.407107
0.40219
0.39931
0.397891
0.39753
0.39795
0.398963
0.400287
0.401498
0.401939
0.401086
0.611973
0.614285
0.588921
0.550711
0.512086
0.479209
0.453847
0.435549
0.422935
0.414594
0.409279
0.406136
0.404558
0.404119
0.404522
0.405564
0.406942
0.408188
0.408573
0.407502
0.634985
0.637662
0.610699
0.569982
0.528732
0.493538
0.466332
0.446664
0.433074
0.424056
0.418278
0.414817
0.413033
0.412481
0.41284
0.413896
0.415315
0.416583
0.416878
0.415535
0.661976
0.6652
0.636538
0.59308
0.548921
0.51114
0.481863
0.460649
0.445952
0.43616
0.429844
0.426
0.423941
0.423229
0.42352
0.424563
0.425999
0.427252
0.427396
0.425683
0.693923
0.697958
0.667521
0.621071
0.573696
0.53303
0.501432
0.478478
0.462531
0.451862
0.444931
0.440647
0.438265
0.437329
0.437485
0.438464
0.439861
0.441023
0.440908
0.438682
0.732074
0.737308
0.705057
0.655367
0.604449
0.560578
0.526388
0.501487
0.484139
0.472485
0.46486
0.460076
0.45731
0.45608
0.456022
0.456854
0.458109
0.459054
0.458515
0.455572
0.778065
0.785059
0.751027
0.697859
0.643062
0.595647
0.558581
0.531522
0.51263
0.499898
0.491514
0.48618
0.482979
0.48137
0.480985
0.481545
0.482501
0.483041
0.481841
0.477905
0.834019
0.843578
0.807896
0.751041
0.692022
0.64071
0.600477
0.571059
0.550506
0.536643
0.527487
0.521602
0.517942
0.515861
0.514992
0.515099
0.515571
0.515466
0.513278
0.507959
0.902763
0.916
0.878919
0.818185
0.754577
0.69899
0.655286
0.62332
0.601035
0.586065
0.576226
0.569899
0.565848
0.563243
0.561694
0.56114
0.560954
0.559925
0.556317
0.549095
0.987921
1.00633
0.968222
0.903407
0.834781
0.774465
0.726937
0.692229
0.668187
0.652243
0.64197
0.635494
0.63131
0.628429
0.626172
0.624632
0.623587
0.621411
0.615871
0.606086
1.0941
1.11959
1.08092
1.01171
0.937447
0.871754
0.819892
0.782157
0.756333
0.739637
0.729334
0.723175
0.719348
0.716659
0.714159
0.711905
0.710032
0.706626
0.698634
0.685505
1.22702
1.2619
1.22305
1.14881
1.06785
0.995668
0.938559
0.897223
0.869442
0.852203
0.842368
0.837289
0.834941
0.83392
0.832943
0.831086
0.828511
0.823874
0.813141
0.796083
1.39365
1.44044
1.4014
1.32069
1.23101
1.15027
1.08614
1.03995
1.00958
0.991773
0.98289
0.979823
0.980743
0.984026
0.987026
0.988603
0.987565
0.981414
0.9689
0.948455
1.60197
1.66297
1.62266
1.53245
1.43021
1.33705
1.26253
1.20891
1.17438
1.15542
1.14801
1.14938
1.157
1.16741
1.17838
1.18775
1.19287
1.18996
1.17763
1.15409
1.86025
1.93663
1.89167
1.78596
1.66416
1.55168
1.46066
1.39484
1.35294
1.33125
1.32611
1.33427
1.35183
1.37479
1.40008
1.42438
1.44367
1.45297
1.44568
1.42099
2.17522
2.26502
2.20748
2.07517
1.92173
1.77819
1.66018
1.57415
1.51927
1.49239
1.48994
1.50761
1.54051
1.58369
1.63266
1.68245
1.72694
1.75846
1.767
1.7486
2.54786
2.64195
2.55558
2.3774
2.17299
1.98008
1.81746
1.6951
1.61752
1.58261
1.58567
1.62006
1.67667
1.75021
1.83505
1.92467
2.01049
2.08131
2.12221
2.12116
2.96251
3.03865
2.89482
2.64017
2.35175
2.08467
1.86789
1.70991
1.61141
1.5683
1.57422
1.62151
1.70109
1.80525
1.9369
2.08118
2.2264
2.35835
2.45697
2.4973
3.36512
3.38072
3.13106
2.76074
2.37002
2.01717
1.7321
1.52939
1.40778
1.35912
1.37306
1.44039
1.55172
1.70051
1.87313
2.06375
2.2596
2.46235
2.63801
2.74699
3.62862
3.52369
3.11512
2.58499
2.05662
1.61331
1.28911
1.08058
0.968465
0.933433
0.959803
1.03872
1.16241
1.32544
1.52286
1.75175
2.01059
2.26525
2.49716
2.66102
3.56646
3.24568
2.56357
1.8657
1.29009
0.909452
0.694015
0.585038
0.539911
0.536276
0.56387
0.621098
0.708272
0.825511
0.968784
1.14231
1.34935
1.59738
1.87534
2.11161
1.74664
1.19706
0.741069
0.49111
0.451372
0.438601
0.422808
0.410114
0.40305
0.401024
0.402317
0.404932
0.406596
0.407735
0.416842
0.433236
0.468215
0.539599
0.648773
0.662592
0.372983
0.372856
0.37203
0.37083
0.369565
0.368444
0.367556
0.366909
0.36648
0.366237
0.366157
0.366229
0.36646
0.366865
0.367464
0.368266
0.369233
0.370244
0.371064
0.371493
0.372998
0.372852
0.372017
0.370813
0.36955
0.368437
0.367557
0.366918
0.366494
0.366252
0.366169
0.366234
0.366451
0.366838
0.367414
0.36819
0.369132
0.370125
0.370944
0.37138
0.372909
0.372757
0.371924
0.370728
0.369474
0.368372
0.367499
0.366867
0.366445
0.366204
0.366118
0.366177
0.366384
0.366758
0.367316
0.368072
0.368993
0.36997
0.370781
0.371225
0.372829
0.372672
0.371838
0.370646
0.369396
0.368301
0.367435
0.366808
0.36639
0.366152
0.366066
0.366123
0.366326
0.366693
0.367243
0.367987
0.368899
0.369869
0.370677
0.371126
0.372779
0.372619
0.371783
0.370592
0.369345
0.368255
0.367395
0.366775
0.366363
0.366131
0.366048
0.366107
0.366309
0.366673
0.367217
0.367955
0.368856
0.369819
0.370625
0.371081
0.372754
0.372588
0.371748
0.370556
0.369309
0.368222
0.367367
0.366755
0.36635
0.366124
0.366045
0.366106
0.366308
0.366672
0.367213
0.367946
0.368844
0.369801
0.370604
0.371056
0.372763
0.37259
0.371742
0.370549
0.369305
0.368223
0.36737
0.36676
0.366356
0.366131
0.36605
0.366109
0.366304
0.366675
0.367221
0.367959
0.368859
0.369819
0.370624
0.371072
0.372745
0.372568
0.371719
0.370531
0.369297
0.368221
0.367369
0.366759
0.366352
0.366125
0.366042
0.366099
0.366292
0.366667
0.367215
0.367955
0.368854
0.369812
0.370609
0.371054
0.372713
0.372538
0.371688
0.3705
0.369267
0.368191
0.367339
0.36673
0.366322
0.366096
0.366013
0.366074
0.366275
0.366642
0.367187
0.367925
0.36882
0.369774
0.370569
0.37102
0.372713
0.372543
0.371686
0.370488
0.369239
0.368158
0.367304
0.366696
0.366289
0.366064
0.365981
0.366042
0.366243
0.36661
0.367155
0.367894
0.368788
0.369748
0.370551
0.371003
0.372717
0.372534
0.371668
0.370463
0.369209
0.368125
0.367273
0.366672
0.366269
0.366046
0.365962
0.366021
0.366213
0.366578
0.367127
0.367872
0.368772
0.369743
0.370557
0.37101
0.372733
0.372516
0.37163
0.370416
0.369156
0.36807
0.367215
0.366617
0.366213
0.365989
0.365905
0.365962
0.366151
0.36652
0.367075
0.367831
0.368752
0.369735
0.370562
0.371031
0.372741
0.372509
0.371615
0.370398
0.369135
0.368046
0.367184
0.366571
0.36616
0.365935
0.365852
0.365918
0.366126
0.366504
0.367063
0.367822
0.368744
0.369729
0.370557
0.371039
0.372707
0.372485
0.371601
0.370387
0.369127
0.368038
0.367176
0.366562
0.366152
0.365927
0.365847
0.365915
0.366126
0.366506
0.367067
0.367826
0.368748
0.369729
0.37055
0.371021
0.372687
0.372486
0.371608
0.370396
0.369136
0.368047
0.367187
0.366575
0.366166
0.365943
0.365864
0.365934
0.366147
0.366529
0.367092
0.367855
0.368777
0.369754
0.370561
0.371008
0.372728
0.372529
0.371649
0.37043
0.369164
0.368074
0.367215
0.366605
0.366198
0.365978
0.365901
0.365972
0.366187
0.366571
0.367139
0.367908
0.368841
0.369819
0.370619
0.37104
0.372767
0.372571
0.371698
0.370479
0.369214
0.368127
0.367271
0.366666
0.366263
0.366046
0.36597
0.366043
0.366257
0.366642
0.367207
0.367975
0.368901
0.369868
0.370666
0.371081
0.372803
0.372608
0.371721
0.370497
0.369232
0.368145
0.36729
0.366686
0.366286
0.36607
0.365995
0.366068
0.366283
0.366666
0.36723
0.367992
0.368916
0.369885
0.370681
0.371089
0.372857
0.372641
0.371732
0.370499
0.369228
0.368138
0.367283
0.36668
0.366281
0.366066
0.365994
0.366069
0.366287
0.366673
0.36724
0.368005
0.368935
0.369919
0.370705
0.37112
0.372882
0.372665
0.371761
0.370522
0.369246
0.368153
0.367297
0.366695
0.366298
0.366086
0.366017
0.366096
0.36632
0.366712
0.367284
0.368049
0.368974
0.369948
0.37072
0.371141
0.372906
0.372704
0.371802
0.370553
0.369272
0.368176
0.367318
0.366714
0.366316
0.366105
0.366036
0.366117
0.366345
0.366752
0.367329
0.368099
0.369024
0.369996
0.370771
0.371183
0.37292
0.372719
0.371829
0.370583
0.369303
0.368207
0.367351
0.366751
0.366356
0.366144
0.366075
0.366154
0.36638
0.366783
0.367358
0.368129
0.369055
0.370027
0.370801
0.371209
0.372941
0.37274
0.371859
0.370617
0.369331
0.368233
0.367381
0.366791
0.366402
0.366192
0.366124
0.366201
0.366422
0.366815
0.367386
0.368158
0.369084
0.37006
0.370832
0.371244
0.372969
0.372761
0.371875
0.37063
0.369345
0.368247
0.367395
0.366803
0.366412
0.366202
0.366133
0.366211
0.366433
0.366825
0.367396
0.368166
0.369087
0.370071
0.370848
0.371258
0.372999
0.372779
0.371881
0.370632
0.369356
0.368258
0.367402
0.366797
0.3664
0.366189
0.36612
0.3662
0.366423
0.366821
0.367392
0.368165
0.369084
0.370073
0.370851
0.371264
0.37303
0.372799
0.371883
0.370629
0.369352
0.368253
0.367396
0.366789
0.366392
0.366181
0.366112
0.366193
0.366418
0.366817
0.36739
0.368166
0.369093
0.370074
0.370856
0.371254
0.373078
0.372838
0.371914
0.370656
0.369381
0.368286
0.367435
0.366833
0.36644
0.366232
0.366164
0.366245
0.366468
0.366865
0.367436
0.368209
0.369133
0.370113
0.370892
0.371282
0.373118
0.37287
0.371939
0.370675
0.369398
0.368299
0.367445
0.366843
0.36645
0.366242
0.366176
0.366259
0.366486
0.366888
0.367471
0.368241
0.369166
0.370148
0.370926
0.371313
0.373164
0.372905
0.371962
0.370684
0.369395
0.368292
0.367436
0.366832
0.366437
0.36623
0.366165
0.366251
0.366483
0.366893
0.367484
0.368259
0.369194
0.370184
0.370965
0.371353
0.373203
0.372935
0.37198
0.370689
0.369386
0.368279
0.367417
0.366809
0.366413
0.366205
0.36614
0.366229
0.366463
0.366876
0.367467
0.368258
0.369209
0.370209
0.370996
0.371384
0.373251
0.372974
0.372008
0.370705
0.369389
0.368265
0.367393
0.366779
0.366379
0.36617
0.366106
0.366197
0.366436
0.366858
0.367462
0.368274
0.369238
0.370247
0.37104
0.371427
0.373297
0.373013
0.372038
0.370728
0.369407
0.368279
0.367405
0.366789
0.366389
0.36618
0.366118
0.366211
0.366454
0.366879
0.367489
0.368308
0.369277
0.37029
0.371084
0.37147
0.373349
0.37306
0.372078
0.370764
0.369441
0.368312
0.367439
0.366823
0.366424
0.366216
0.366156
0.366251
0.366497
0.366924
0.367536
0.368355
0.369326
0.370341
0.371137
0.371521
0.373399
0.373106
0.372118
0.370802
0.369485
0.368363
0.367494
0.366878
0.366478
0.36627
0.366212
0.366312
0.366565
0.366994
0.367603
0.368413
0.369376
0.370391
0.371188
0.371569
0.373453
0.373153
0.372156
0.37083
0.36951
0.368386
0.367522
0.366919
0.366527
0.366322
0.366265
0.366359
0.366601
0.367026
0.367641
0.368449
0.369418
0.37044
0.371242
0.371623
0.373505
0.373198
0.372188
0.370848
0.369511
0.368384
0.367513
0.366914
0.366525
0.366322
0.366263
0.366355
0.366593
0.367024
0.367641
0.368461
0.36945
0.370485
0.371294
0.371674
0.373564
0.373248
0.372227
0.370873
0.369523
0.368387
0.367511
0.3669
0.366507
0.366304
0.366248
0.366345
0.366597
0.367026
0.367642
0.368485
0.369491
0.370537
0.371353
0.371732
0.373625
0.373303
0.372269
0.3709
0.369535
0.36838
0.367503
0.366885
0.366489
0.366283
0.366229
0.366329
0.366584
0.367018
0.367658
0.368518
0.369538
0.370594
0.371415
0.371789
0.373695
0.373365
0.372319
0.370936
0.369557
0.368388
0.36749
0.366861
0.366459
0.366253
0.3662
0.366307
0.366575
0.367032
0.36769
0.368563
0.369596
0.370662
0.371488
0.371859
0.373769
0.373433
0.372375
0.37098
0.36959
0.368411
0.367507
0.366874
0.36647
0.366263
0.366213
0.366323
0.366598
0.367064
0.367731
0.368615
0.369659
0.370735
0.371567
0.371935
0.373852
0.373509
0.37244
0.371032
0.369631
0.368444
0.367535
0.366898
0.366494
0.366287
0.366239
0.366352
0.366632
0.367104
0.367782
0.368676
0.369732
0.370818
0.371655
0.372021
0.373942
0.373593
0.372512
0.37109
0.369678
0.368482
0.367567
0.366927
0.366522
0.366315
0.366269
0.366385
0.36667
0.367149
0.367836
0.368741
0.36981
0.370906
0.371749
0.372113
0.374046
0.373689
0.372595
0.371158
0.369734
0.368528
0.367607
0.366963
0.366556
0.366349
0.366304
0.366423
0.366714
0.367201
0.367898
0.368814
0.369897
0.371004
0.371855
0.372216
0.37416
0.373796
0.372687
0.371234
0.369795
0.368579
0.367651
0.367002
0.366594
0.366386
0.366344
0.366466
0.366763
0.367257
0.367965
0.368893
0.36999
0.371109
0.371967
0.372327
0.374285
0.373913
0.372789
0.371319
0.369866
0.368638
0.367702
0.367049
0.366639
0.366431
0.36639
0.366515
0.366819
0.367321
0.36804
0.368982
0.370093
0.371225
0.372092
0.37245
0.374419
0.374039
0.3729
0.371412
0.369943
0.368703
0.36776
0.367101
0.366689
0.36648
0.366442
0.36657
0.36688
0.367391
0.368122
0.369078
0.370205
0.371351
0.372227
0.372582
0.374568
0.374178
0.373023
0.371516
0.370031
0.368778
0.367826
0.367162
0.366747
0.366538
0.366502
0.366634
0.366951
0.36747
0.368215
0.369185
0.37033
0.371491
0.372376
0.37273
0.37473
0.374331
0.373159
0.371632
0.370129
0.368862
0.367901
0.36723
0.366813
0.366603
0.366569
0.366705
0.367029
0.367559
0.368317
0.369303
0.370466
0.371643
0.372538
0.37289
0.37491
0.374502
0.373312
0.371763
0.370241
0.368959
0.367987
0.36731
0.36689
0.366679
0.366647
0.366787
0.367119
0.367659
0.368431
0.369435
0.370618
0.371812
0.372717
0.373068
0.375108
0.37469
0.37348
0.371909
0.370367
0.369068
0.368085
0.3674
0.366976
0.366765
0.366735
0.366879
0.36722
0.36777
0.368558
0.36958
0.370784
0.371996
0.372914
0.373263
0.375328
0.3749
0.37367
0.372073
0.370509
0.369193
0.368198
0.367504
0.367077
0.366865
0.366837
0.366986
0.367335
0.367897
0.368702
0.369743
0.370969
0.372202
0.373132
0.37348
0.37557
0.375132
0.37388
0.372257
0.370669
0.369334
0.368326
0.367623
0.367192
0.366978
0.366952
0.367106
0.367465
0.36804
0.368862
0.369924
0.371174
0.372428
0.373371
0.373718
0.375841
0.375391
0.374116
0.372465
0.370852
0.369495
0.368473
0.367761
0.367325
0.367109
0.367086
0.367245
0.367613
0.368202
0.369043
0.370128
0.371404
0.372681
0.373639
0.373984
0.376141
0.37568
0.37438
0.372699
0.371058
0.369679
0.368641
0.367918
0.367476
0.367259
0.367238
0.367403
0.367782
0.368385
0.369247
0.370356
0.371659
0.372961
0.373934
0.374278
0.376477
0.376004
0.374677
0.372963
0.371293
0.369889
0.368834
0.3681
0.367652
0.367433
0.367414
0.367585
0.367976
0.368594
0.369478
0.370613
0.371946
0.373274
0.374265
0.374607
0.376852
0.376365
0.375011
0.373262
0.371559
0.370129
0.369055
0.368308
0.367854
0.367632
0.367616
0.367794
0.368196
0.368832
0.369739
0.370902
0.372267
0.373624
0.374633
0.374973
0.377272
0.376773
0.375388
0.373601
0.371863
0.370405
0.369311
0.368549
0.368088
0.367864
0.367851
0.368035
0.368451
0.369104
0.370037
0.37123
0.37263
0.374018
0.375046
0.375385
0.377743
0.37723
0.375813
0.373985
0.37221
0.37072
0.369604
0.368827
0.368358
0.368131
0.36812
0.368313
0.368742
0.369415
0.370375
0.371601
0.373038
0.37446
0.37551
0.375846
0.378275
0.377748
0.376296
0.374424
0.372608
0.371084
0.369944
0.36915
0.368671
0.36844
0.368433
0.368634
0.369079
0.369774
0.370763
0.372025
0.373502
0.37496
0.376033
0.376367
0.378874
0.378332
0.376843
0.374924
0.373063
0.371503
0.370336
0.369523
0.369034
0.368797
0.368793
0.369006
0.369468
0.370186
0.371207
0.372507
0.374028
0.375526
0.376623
0.376954
0.379554
0.378997
0.377468
0.375497
0.373588
0.371988
0.370792
0.36996
0.369459
0.369219
0.369218
0.36944
0.36992
0.370663
0.371719
0.373061
0.374629
0.37617
0.377293
0.377621
0.380326
0.379753
0.378182
0.376155
0.374193
0.37255
0.371322
0.370468
0.369955
0.369711
0.369714
0.369947
0.370445
0.371216
0.372309
0.373696
0.375315
0.376903
0.378055
0.378378
0.381207
0.380618
0.379001
0.376914
0.374895
0.373205
0.371942
0.371064
0.370538
0.370289
0.370297
0.370541
0.37106
0.37186
0.372993
0.37443
0.376105
0.377743
0.378925
0.379243
0.382213
0.381609
0.379943
0.37779
0.37571
0.373968
0.372667
0.371763
0.371223
0.370969
0.370981
0.371238
0.371779
0.372611
0.373788
0.375279
0.377014
0.378707
0.379922
0.380233
0.383371
0.38275
0.381032
0.378809
0.37666
0.374862
0.37352
0.372588
0.372031
0.371772
0.37179
0.37206
0.372625
0.373492
0.374717
0.376267
0.378068
0.37982
0.381071
0.381373
0.384705
0.384069
0.382295
0.379995
0.377773
0.375913
0.374526
0.373562
0.372988
0.372722
0.372746
0.373031
0.373622
0.374527
0.375805
0.377418
0.379291
0.381108
0.382397