/*--------------------------------*- C++ -*----------------------------------*\
  =========                 |
  \\      /  F ield         | OpenFOAM: The Open Source CFD Toolbox
   \\    /   O peration     | Website:  https://openfoam.org
    \\  /    A nd           | Version:  6
     \\/     M anipulation  |
\*---------------------------------------------------------------------------*/
FoamFile
{
    version     2.0;
    format      ascii;
    class       volScalarField;
    location    "3";
    object      nut;
}
// * * * * * * * * * * * * * * * * * * * * * * * * * * * * * * * * * * * * * //

dimensions      [0 2 -1 0 0 0 0];

internalField   nonuniform List<scalar> 
130000
(
0.000886743
0.000889358
0.000889365
0.000886971
0.000883391
0.000879377
0.00087529
0.000871367
0.000867818
0.000864776
0.000862334
0.000860478
0.000859138
0.000858221
0.000857615
0.000857234
0.000856979
0.000856839
0.000856754
0.000856564
0.000886731
0.000889507
0.000889434
0.000886915
0.000883158
0.000879023
0.000874874
0.000870938
0.000867414
0.000864419
0.00086203
0.000860221
0.00085892
0.000858033
0.000857448
0.000857077
0.000856829
0.000856679
0.000856573
0.000856354
0.00088668
0.00088942
0.0008893
0.000886709
0.000882906
0.000878764
0.000874646
0.000870765
0.000867298
0.000864366
0.000862024
0.000860248
0.00085897
0.000858099
0.000857523
0.000857155
0.000856915
0.000856728
0.000856523
0.000856257
0.000886633
0.000889342
0.000889174
0.000886554
0.000882784
0.000878656
0.000874553
0.000870687
0.000867238
0.000864323
0.000861992
0.000860222
0.000858945
0.000858071
0.000857488
0.00085711
0.00085686
0.00085666
0.000856423
0.000856149
0.000886726
0.000889384
0.000889177
0.00088652
0.000882735
0.000878603
0.000874501
0.000870639
0.000867196
0.000864286
0.000861956
0.000860176
0.000858888
0.000857999
0.000857395
0.000856996
0.000856742
0.000856569
0.000856382
0.000856196
0.000886801
0.000889387
0.000889144
0.000886458
0.000882671
0.000878544
0.000874449
0.000870591
0.000867153
0.000864246
0.000861916
0.00086013
0.000858852
0.000857966
0.000857343
0.000856896
0.000856647
0.000856528
0.000856406
0.00085626
0.000886823
0.000889432
0.000889154
0.000886449
0.000882653
0.000878519
0.000874419
0.000870557
0.000867119
0.000864213
0.000861885
0.000860098
0.000858849
0.000857971
0.000857363
0.000856926
0.000856732
0.000856642
0.000856495
0.000856256
0.000886882
0.000889504
0.000889191
0.000886475
0.000882664
0.000878516
0.000874401
0.000870531
0.000867089
0.000864185
0.000861862
0.000860081
0.000858836
0.00085792
0.000857366
0.000856988
0.000856881
0.000856809
0.000856641
0.000856349
0.000886924
0.000889474
0.000889166
0.000886466
0.000882666
0.000878519
0.000874387
0.000870506
0.000867061
0.000864161
0.00086185
0.000860096
0.00085882
0.000857859
0.000857303
0.000856899
0.000856782
0.000856684
0.000856519
0.000856242
0.000886919
0.000889445
0.000889175
0.000886483
0.00088267
0.000878491
0.000874346
0.000870465
0.00086702
0.000864121
0.000861813
0.000860068
0.000858773
0.000857862
0.000857292
0.000856942
0.000856741
0.000856613
0.000856433
0.000856155
0.000886908
0.000889445
0.000889204
0.000886515
0.000882671
0.000878456
0.000874307
0.000870424
0.000866972
0.00086406
0.000861737
0.000860001
0.000858756
0.000857971
0.000857463
0.000857128
0.000856907
0.000856722
0.000856509
0.000856191
0.000886883
0.000889465
0.000889197
0.000886499
0.000882635
0.000878442
0.000874295
0.000870402
0.00086694
0.000864015
0.000861669
0.000859939
0.000858748
0.000858019
0.000857505
0.00085717
0.000856949
0.000856768
0.000856573
0.000856304
0.000886888
0.000889482
0.000889211
0.000886496
0.000882634
0.000878446
0.000874293
0.000870394
0.000866929
0.000864006
0.000861693
0.000860033
0.000858848
0.000858058
0.000857526
0.000857185
0.000856962
0.000856784
0.0008566
0.000856359
0.000886866
0.000889449
0.000889188
0.00088649
0.000882635
0.000878445
0.000874288
0.000870384
0.000866916
0.000863995
0.000861709
0.000860041
0.000858847
0.000858051
0.000857515
0.000857172
0.000856949
0.000856769
0.000856573
0.000856317
0.00088688
0.00088952
0.000889231
0.000886513
0.000882657
0.000878461
0.000874292
0.000870378
0.000866908
0.000864015
0.000861714
0.000860004
0.000858798
0.000857999
0.000857464
0.000857126
0.000856909
0.000856754
0.000856598
0.000856347
0.000886971
0.000889628
0.000889345
0.000886579
0.000882705
0.00087849
0.000874298
0.000870363
0.000866857
0.000863927
0.000861604
0.000859881
0.000858671
0.000857872
0.000857339
0.000857006
0.000856802
0.00085667
0.00085656
0.000856339
0.000887162
0.000889793
0.000889539
0.000886782
0.000882901
0.000878681
0.00087443
0.000870423
0.000866861
0.00086389
0.000861553
0.000859826
0.000858616
0.000857821
0.000857288
0.000856947
0.000856729
0.00085657
0.000856422
0.000856215
0.000887395
0.000890066
0.000889785
0.000887015
0.000883073
0.000878838
0.000874556
0.000870488
0.000866906
0.000863931
0.000861586
0.000859855
0.000858639
0.000857843
0.000857305
0.000856964
0.000856753
0.000856599
0.000856446
0.000856236
0.000887524
0.00089021
0.000889907
0.000887078
0.000883054
0.000878739
0.000874502
0.000870455
0.000866883
0.000863908
0.000861551
0.000859828
0.000858594
0.000857815
0.000857258
0.000856945
0.000856821
0.000856686
0.000856558
0.000856316
0.000887709
0.000890382
0.00089004
0.000887166
0.000883119
0.000878725
0.000874473
0.000870445
0.000866872
0.000863888
0.000861524
0.000859804
0.000858576
0.000857833
0.000857318
0.000857015
0.00085693
0.00085676
0.000856666
0.000856376
0.000887896
0.000890563
0.000890208
0.000887332
0.000883302
0.000878918
0.000874575
0.000870497
0.000866892
0.000863868
0.00086149
0.000859726
0.000858537
0.000857772
0.000857347
0.000857026
0.000856893
0.000856725
0.000856625
0.000856347
0.000888024
0.000890687
0.000890326
0.000887452
0.000883433
0.000879031
0.000874651
0.00087053
0.000866903
0.000863875
0.000861468
0.000859684
0.00085849
0.000857715
0.000857262
0.000856979
0.000856807
0.000856686
0.00085658
0.000856306
0.000888123
0.000890808
0.000890453
0.000887565
0.000883531
0.000879152
0.000874739
0.000870603
0.000866957
0.00086392
0.000861479
0.000859698
0.000858497
0.000857748
0.000857311
0.000857019
0.000856852
0.000856714
0.000856606
0.000856296
0.000888278
0.00089097
0.000890602
0.000887684
0.000883615
0.000879233
0.000874826
0.000870671
0.000866997
0.000863958
0.000861551
0.000859808
0.000858645
0.00085788
0.000857449
0.000857105
0.000856945
0.000856746
0.000856607
0.000856304
0.000888492
0.000891162
0.000890755
0.000887801
0.000883692
0.000879255
0.000874883
0.000870702
0.000867016
0.000863982
0.000861671
0.00085998
0.000858844
0.000858034
0.000857544
0.00085716
0.000856974
0.00085676
0.000856613
0.000856318
0.000888761
0.000891403
0.000890949
0.000887948
0.000883795
0.000879318
0.00087491
0.000870701
0.000867013
0.000863995
0.000861732
0.00086004
0.000858857
0.000858062
0.0008575
0.000857151
0.000856899
0.000856714
0.000856542
0.000856338
0.000888986
0.000891617
0.000891134
0.000888097
0.000883905
0.000879386
0.000874929
0.00087068
0.00086699
0.00086395
0.000861623
0.000859889
0.000858681
0.000857901
0.000857336
0.000857007
0.000856742
0.000856553
0.000856374
0.000856188
0.00088923
0.000891852
0.000891342
0.000888269
0.000884036
0.000879471
0.000874951
0.00087073
0.000867032
0.000863952
0.000861557
0.000859788
0.000858565
0.000857788
0.000857242
0.000856886
0.000856616
0.000856379
0.000856178
0.000855981
0.000889501
0.000892114
0.000891576
0.000888468
0.0008842
0.000879604
0.000875064
0.000870852
0.000867093
0.000864003
0.000861593
0.000859815
0.000858586
0.00085781
0.000857265
0.000856903
0.000856613
0.000856368
0.000856198
0.000856058
0.000889792
0.000892394
0.000891828
0.000888684
0.000884378
0.000879746
0.000875177
0.000870935
0.000867164
0.00086404
0.000861634
0.000859855
0.000858626
0.000857861
0.00085733
0.000856996
0.000856764
0.000856569
0.000856425
0.000856298
0.000890089
0.000892686
0.000892092
0.000888911
0.000884567
0.000879899
0.000875297
0.000871022
0.000867261
0.000864139
0.000861744
0.000859941
0.000858691
0.000857962
0.000857456
0.00085714
0.000856933
0.00085678
0.000856623
0.000856418
0.000890392
0.000892985
0.000892364
0.000889145
0.000884762
0.000880057
0.000875423
0.000871122
0.000867348
0.000864236
0.0008618
0.000859977
0.000858717
0.000858004
0.000857488
0.000857167
0.000856956
0.000856797
0.000856646
0.000856438
0.000890709
0.0008933
0.00089265
0.000889388
0.000884959
0.000880211
0.000875536
0.0008712
0.000867404
0.000864281
0.000861846
0.000860045
0.000858807
0.000858034
0.000857494
0.000857159
0.000856945
0.000856792
0.000856656
0.000856448
0.000891044
0.000893631
0.000892949
0.00088964
0.000885159
0.000880359
0.000875636
0.000871259
0.00086743
0.00086429
0.000861842
0.000860031
0.000858787
0.000858005
0.00085745
0.000857093
0.000856885
0.000856786
0.000856661
0.000856458
0.000891389
0.000893975
0.000893261
0.000889904
0.00088537
0.000880516
0.00087574
0.00087132
0.000867441
0.00086427
0.000861788
0.000859954
0.000858703
0.00085793
0.000857393
0.000857068
0.000856842
0.00085679
0.000856674
0.000856469
0.000891746
0.000894333
0.000893588
0.000890183
0.000885598
0.000880694
0.000875871
0.000871401
0.000867478
0.000864241
0.000861722
0.000859881
0.000858647
0.000857934
0.000857423
0.000857157
0.000856906
0.000856843
0.00085671
0.000856497
0.000892123
0.000894712
0.000893936
0.000890482
0.000885844
0.000880891
0.000876022
0.000871512
0.000867549
0.000864261
0.000861728
0.000859889
0.00085867
0.000857978
0.000857441
0.00085712
0.000856989
0.000856885
0.000856744
0.000856527
0.000892528
0.000895117
0.000894307
0.000890799
0.000886106
0.000881102
0.00087619
0.000871647
0.000867662
0.000864369
0.000861798
0.000859931
0.00085869
0.000857973
0.000857469
0.000857157
0.00085704
0.000856922
0.000856775
0.000856559
0.000892951
0.000895542
0.000894696
0.000891133
0.000886382
0.000881325
0.00087637
0.000871798
0.000867807
0.000864519
0.000861923
0.000860049
0.000858811
0.00085812
0.000857609
0.000857296
0.000857101
0.00085696
0.000856804
0.000856584
0.000893393
0.000895987
0.000895104
0.000891483
0.00088667
0.000881556
0.000876553
0.000871945
0.000867935
0.000864653
0.000862107
0.000860243
0.000858982
0.000858206
0.000857665
0.000857338
0.000857132
0.000856985
0.000856825
0.000856603
0.000893864
0.00089646
0.000895537
0.000891853
0.000886974
0.000881798
0.00087674
0.000872086
0.000868042
0.000864738
0.000862177
0.000860302
0.000859031
0.000858245
0.000857696
0.000857364
0.000857156
0.000857007
0.000856846
0.000856621
0.000894366
0.000896963
0.000895997
0.000892246
0.000887296
0.000882053
0.000876936
0.000872232
0.000868148
0.000864814
0.000862232
0.000860344
0.000859066
0.000858275
0.000857723
0.000857389
0.00085718
0.000857032
0.00085687
0.000856645
0.000894891
0.00089749
0.000896479
0.000892658
0.000887635
0.000882323
0.000877144
0.000872387
0.000868261
0.000864895
0.00086229
0.000860387
0.000859102
0.000858307
0.000857752
0.000857417
0.000857208
0.00085706
0.000856898
0.000856672
0.000895443
0.000898047
0.00089699
0.000893096
0.000887995
0.000882611
0.000877367
0.000872554
0.000868383
0.000864983
0.000862352
0.000860435
0.000859142
0.000858341
0.000857784
0.000857448
0.000857239
0.000857091
0.000856928
0.000856701
0.000896041
0.000898648
0.00089754
0.000893567
0.000888384
0.000882922
0.000877608
0.000872736
0.000868516
0.00086508
0.000862422
0.000860488
0.000859187
0.000858381
0.00085782
0.000857482
0.000857274
0.000857126
0.000856962
0.000856735
0.000896693
0.000899302
0.000898139
0.00089408
0.000888806
0.000883259
0.00087787
0.000872934
0.000868662
0.000865187
0.0008625
0.000860547
0.000859237
0.000858425
0.00085786
0.000857521
0.000857312
0.000857164
0.000857001
0.000856772
0.000897409
0.000900016
0.00089879
0.000894636
0.000889263
0.000883625
0.000878155
0.000873149
0.000868822
0.000865304
0.000862586
0.000860613
0.000859293
0.000858474
0.000857906
0.000857565
0.000857356
0.000857208
0.000857044
0.000856814
0.000898294
0.000900815
0.000899497
0.000895234
0.000889753
0.000884017
0.000878461
0.000873381
0.000868995
0.000865432
0.00086268
0.000860686
0.000859355
0.000858529
0.000857957
0.000857615
0.000857405
0.000857257
0.000857092
0.000856861
0.000898961
0.000901609
0.000900229
0.000895862
0.000890271
0.000884433
0.000878787
0.000873631
0.000869183
0.000865572
0.000862784
0.000860768
0.000859424
0.00085859
0.000858014
0.00085767
0.00085746
0.000857312
0.000857147
0.000856915
0.000899809
0.000902458
0.000901002
0.000896522
0.000890817
0.000884874
0.000879135
0.000873899
0.000869385
0.000865724
0.000862899
0.000860858
0.000859502
0.000858659
0.000858078
0.000857732
0.000857522
0.000857373
0.000857208
0.000856975
0.000900677
0.000903331
0.000901802
0.00089721
0.00089139
0.00088534
0.000879507
0.000874188
0.000869605
0.000865891
0.000863026
0.000860958
0.000859588
0.000858735
0.000858149
0.000857801
0.000857591
0.000857442
0.000857277
0.000857043
0.000901596
0.00090426
0.000902657
0.000897949
0.000892008
0.000885845
0.00087991
0.000874503
0.000869847
0.000866074
0.000863166
0.000861069
0.000859684
0.000858821
0.000858229
0.000857879
0.000857669
0.00085752
0.000857353
0.000857118
0.000902625
0.000905291
0.000903601
0.000898761
0.000892685
0.000886398
0.000880351
0.000874848
0.000870112
0.000866278
0.000863323
0.000861194
0.000859791
0.000858917
0.00085832
0.000857967
0.000857756
0.000857607
0.00085744
0.000857203
0.000903749
0.000906415
0.000904628
0.000899645
0.000893421
0.000886998
0.000880833
0.000875225
0.000870404
0.000866502
0.000863496
0.000861333
0.000859912
0.000859025
0.000858421
0.000858066
0.000857855
0.000857706
0.000857538
0.000857298
0.000904959
0.000907625
0.000905736
0.000900598
0.000894216
0.000887649
0.000881355
0.000875637
0.000870723
0.000866749
0.000863689
0.000861489
0.000860047
0.000859146
0.000858536
0.000858178
0.000857966
0.000857817
0.000857648
0.000857406
0.000906259
0.000908927
0.000906926
0.000901624
0.000895073
0.000888352
0.000881922
0.000876085
0.000871073
0.000867021
0.000863903
0.000861662
0.000860199
0.000859282
0.000858664
0.000858304
0.000858091
0.000857941
0.000857771
0.000857527
0.000907666
0.000910333
0.000908213
0.000902733
0.000896
0.000889114
0.000882537
0.000876574
0.000871456
0.000867322
0.00086414
0.000861856
0.000860368
0.000859435
0.00085881
0.000858446
0.000858232
0.000858081
0.00085791
0.000857662
0.000909187
0.000911853
0.000909603
0.00090393
0.000897003
0.000889939
0.000883207
0.000877108
0.000871877
0.000867653
0.000864404
0.000862072
0.000860557
0.000859606
0.000858972
0.000858605
0.00085839
0.000858238
0.000858062
0.000857809
0.00091083
0.000913496
0.000911105
0.000905226
0.000898089
0.000890836
0.000883936
0.000877692
0.000872341
0.000868021
0.000864698
0.000862313
0.000860768
0.000859794
0.000859153
0.000858784
0.000858568
0.000858412
0.000858227
0.000857954
0.00091261
0.000915276
0.000912732
0.000906631
0.000899268
0.000891812
0.000884733
0.000878334
0.000872853
0.000868429
0.000865026
0.000862584
0.000861
0.000859983
0.000859352
0.000858986
0.000858772
0.000858616
0.000858427
0.000858149
0.000914552
0.000917216
0.000914505
0.000908162
0.000900555
0.000892878
0.000885607
0.000879042
0.000873421
0.000868885
0.000865398
0.000862896
0.000861275
0.000860235
0.000859594
0.000859225
0.000859011
0.000858854
0.000858662
0.000858381
0.000916671
0.000919331
0.000916439
0.000909832
0.00090196
0.000894046
0.000886568
0.000879823
0.000874052
0.000869396
0.000865818
0.000863252
0.000861592
0.000860527
0.000859875
0.000859502
0.000859288
0.000859132
0.000858939
0.000858657
0.000918982
0.000921637
0.000918547
0.000911655
0.000903496
0.000895326
0.000887625
0.000880687
0.000874754
0.000869969
0.000866293
0.000863656
0.000861954
0.000860864
0.000860199
0.000859822
0.000859609
0.000859457
0.000859272
0.000859007
0.000921504
0.000924156
0.000920851
0.000913648
0.000905179
0.000896732
0.00088879
0.000881644
0.000875537
0.000870611
0.000866829
0.000864117
0.000862369
0.000861249
0.00086057
0.000860187
0.000859975
0.000859823
0.000859637
0.000859364
0.000924274
0.000926922
0.00092338
0.000915837
0.000907028
0.000898281
0.000890078
0.000882708
0.000876412
0.000871335
0.000867439
0.000864644
0.000862844
0.000861693
0.000860998
0.00086061
0.000860396
0.000860243
0.000860053
0.000859768
0.000927319
0.000929962
0.00092616
0.000918246
0.000909066
0.000899992
0.000891507
0.000883894
0.000877394
0.000872154
0.000868132
0.000865248
0.000863392
0.000862205
0.000861493
0.000861097
0.000860882
0.000860728
0.000860532
0.000860233
0.000930674
0.000933312
0.000929225
0.000920903
0.000911319
0.000901888
0.000893097
0.000885221
0.000878501
0.000873081
0.000868925
0.000865942
0.000864024
0.000862799
0.000862067
0.000861664
0.000861447
0.000861291
0.000861089
0.000860773
0.000934382
0.000937016
0.000932616
0.000923847
0.000913819
0.000903999
0.000894874
0.000886712
0.000879751
0.000874139
0.000869834
0.000866744
0.000864757
0.000863489
0.000862736
0.000862324
0.000862104
0.000861946
0.000861736
0.0008614
0.000938504
0.000941134
0.000936388
0.000927124
0.000916606
0.000906359
0.000896869
0.000888395
0.000881172
0.000875348
0.000870883
0.000867674
0.000865611
0.000864295
0.000863518
0.000863097
0.000862874
0.000862713
0.000862492
0.000862132
0.000943098
0.000945723
0.000940593
0.000930784
0.000919725
0.000909007
0.000899118
0.000890302
0.000882793
0.000876737
0.000872095
0.000868756
0.000866608
0.00086524
0.000864436
0.000864004
0.000863777
0.000863611
0.000863377
0.000862987
0.000948229
0.000950853
0.000945299
0.000934886
0.00092323
0.000911991
0.000901663
0.000892474
0.00088465
0.000878341
0.000873505
0.000870023
0.00086778
0.000866352
0.000865518
0.000865074
0.000864843
0.00086467
0.00086442
0.000863995
0.000953981
0.000956609
0.000950586
0.000939503
0.000927183
0.00091537
0.000904557
0.000894957
0.00088679
0.000880204
0.000875154
0.000871513
0.000869163
0.000867669
0.000866801
0.000866342
0.000866104
0.000865922
0.000865651
0.000865183
0.000960462
0.0009631
0.000956556
0.000944728
0.000931669
0.000919216
0.000907867
0.000897815
0.000889269
0.000882378
0.000877097
0.000873282
0.000870812
0.000869241
0.000868333
0.000867855
0.000867606
0.000867412
0.000867113
0.000866592
0.000967792
0.000970449
0.000963328
0.000950669
0.000936784
0.000923618
0.000911674
0.000901121
0.000892155
0.000884929
0.000879392
0.000875386
0.000872781
0.000871121
0.000870166
0.000869664
0.000869402
0.00086919
0.000868856
0.00086827
0.000976119
0.000978812
0.00097105
0.000957464
0.000942655
0.00092869
0.00091608
0.000904971
0.00089554
0.00088794
0.000882119
0.0008779
0.000875143
0.000873383
0.000872373
0.000871843
0.000871562
0.000871326
0.000870946
0.000870279
0.000985634
0.000988382
0.000979909
0.000965287
0.000949438
0.000934574
0.000921218
0.000909485
0.000899534
0.000891518
0.000885379
0.000880922
0.000877993
0.000876119
0.000875044
0.000874479
0.000874175
0.000873907
0.000873468
0.000872698
0.000996569
0.000999403
0.000990142
0.000974358
0.000957337
0.000941456
0.000927258
0.000914823
0.000904288
0.000895803
0.000889307
0.000884583
0.000881458
0.000879453
0.000878302
0.000877694
0.000877358
0.000877049
0.00087654
0.000875636
0.0010092
0.00101216
0.00100203
0.00098495
0.000966604
0.000949569
0.000934415
0.000921188
0.000909993
0.000900977
0.000894077
0.000889051
0.000885704
0.000883547
0.000882307
0.000881643
0.00088126
0.00088089
0.000880275
0.000879214
0.00102389
0.00102704
0.00101596
0.000997418
0.000977574
0.000959225
0.00094298
0.000928852
0.000916908
0.000907286
0.000899926
0.000894557
0.000890956
0.000888625
0.000887277
0.000886543
0.000886098
0.000885645
0.000884889
0.000883637
0.00104108
0.00104452
0.0010324
0.00101223
0.000990684
0.000970831
0.000953337
0.000938177
0.00092538
0.000915064
0.000907175
0.000901412
0.00089752
0.000894987
0.000893513
0.000892691
0.000892167
0.000891608
0.000890673
0.000889186
0.00106134
0.00106521
0.00105196
0.00102998
0.00100651
0.000984941
0.000966009
0.000949664
0.000935888
0.000924772
0.000916271
0.000910052
0.000905819
0.000903054
0.000901436
0.000900512
0.000899892
0.000899205
0.000898072
0.000896274
0.00108542
0.0010899
0.00107547
0.00105148
0.00102584
0.0010023
0.000981704
0.000963992
0.000949094
0.00093707
0.000927853
0.000921093
0.000916418
0.000913385
0.00091165
0.000910608
0.000909863
0.000909
0.000907588
0.000905383
0.00111426
0.00111963
0.00110399
0.0010778
0.00104972
0.00102392
0.00100141
0.000982117
0.000965926
0.000952867
0.000942846
0.000935518
0.000930413
0.000927063
0.000925096
0.00092388
0.000922956
0.000921844
0.000920045
0.000917289
0.0011491
0.00115578
0.00113895
0.00111039
0.0010796
0.00105124
0.00102651
0.00100538
0.00098769
0.000973434
0.000962488
0.000954497
0.000948925
0.000945232
0.000943002
0.000941556
0.00094039
0.000938923
0.000936587
0.000933079
0.00119159
0.00120014
0.00118227
0.00115122
0.00111748
0.00108623
0.00105897
0.00103571
0.00101628
0.00100063
0.000988591
0.000979803
0.000973703
0.000969675
0.000967175
0.000965419
0.000963898
0.000961924
0.000958843
0.000954325
0.00124385
0.00125512
0.00123649
0.00120295
0.00116608
0.00113168
0.00110158
0.00107589
0.00105444
0.00103717
0.00102386
0.00101412
0.00100735
0.0010029
0.00100009
0.00099795
0.000995904
0.000993199
0.00098909
0.000983218
0.00130873
0.00132391
0.00130504
0.00126919
0.00122914
0.00119142
0.0011582
0.00112978
0.00110604
0.00108691
0.00107214
0.00106127
0.00105365
0.00104853
0.00104523
0.00104263
0.0010398
0.00103598
0.00103043
0.00102274
0.00138996
0.0014107
0.00139244
0.0013547
0.00131162
0.00127051
0.00123398
0.00120255
0.00117621
0.00115493
0.00113845
0.00112625
0.00111751
0.0011114
0.00110712
0.00110408
0.00110005
0.00109441
0.00108685
0.00107672
0.00149239
0.00152094
0.00150448
0.00146549
0.00141968
0.00137518
0.00133512
0.00130033
0.00127101
0.00124724
0.00122877
0.00121493
0.00120473
0.00119724
0.00119153
0.00118719
0.00118172
0.00117345
0.00116319
0.00114976
0.00162227
0.00166143
0.00164827
0.00160876
0.00156037
0.00151224
0.00146812
0.00142933
0.00139633
0.00136949
0.00134862
0.00133279
0.00132084
0.00131197
0.00130452
0.00129739
0.00128996
0.00127818
0.00126469
0.00124761
0.00178737
0.00184033
0.00183184
0.00179202
0.00174045
0.00168752
0.00163793
0.00159354
0.00155542
0.00152455
0.00150099
0.00148253
0.00146804
0.00145929
0.00145062
0.00144129
0.00142935
0.00141045
0.00139437
0.00137524
0.00199656
0.00206606
0.00206253
0.00202099
0.00196369
0.00190277
0.00184438
0.00179134
0.00174581
0.00170934
0.00168118
0.00166028
0.00164804
0.00163817
0.00162812
0.00161601
0.00159993
0.00157744
0.00155626
0.00153179
0.00225779
0.00234415
0.00234277
0.00229459
0.00222541
0.00215006
0.00207695
0.00201042
0.00195427
0.00190992
0.00187787
0.0018567
0.00184445
0.00183443
0.00182363
0.00180951
0.00179031
0.00176515
0.00173404
0.00169962
0.00257152
0.00266863
0.00266026
0.00259459
0.00250238
0.00240228
0.00230595
0.00222043
0.00215039
0.00209742
0.00206161
0.00203996
0.0020278
0.00201798
0.00200558
0.00198681
0.00195951
0.00192304
0.00187833
0.00183347
0.00291322
0.00300216
0.00296792
0.00286712
0.0027372
0.0025998
0.0024705
0.00235659
0.00226958
0.00220949
0.00217484
0.00215787
0.00214853
0.00213892
0.00212267
0.00209448
0.00205215
0.00199492
0.00192337
0.0018489
0.0031942
0.00323936
0.00315404
0.00299939
0.00281064
0.0026465
0.00248957
0.0023563
0.00225878
0.00219582
0.0021646
0.00215347
0.00214784
0.00212962
0.00210278
0.00206005
0.00199571
0.00191089
0.00180902
0.00169646
0.00319458
0.00316878
0.00301926
0.00281962
0.0026274
0.00243179
0.00225511
0.00212704
0.00204332
0.00199326
0.00197124
0.0019653
0.00196519
0.0019607
0.00192402
0.00184579
0.00172907
0.00160835
0.0014701
0.00131277
0.00250121
0.00251538
0.00239868
0.00223775
0.00201035
0.00181726
0.00168576
0.00161412
0.0015841
0.00157172
0.00156847
0.0015652
0.00155584
0.00153275
0.00148995
0.001432
0.00132949
0.00117806
0.001005
0.000800044
0.00116765
0.00139569
0.00137437
0.00123785
0.00107335
0.00100717
0.00103426
0.0010836
0.00111575
0.00113174
0.00114007
0.00113291
0.00109502
0.00102842
0.000927624
0.000799286
0.000703942
0.000628642
0.000514534
0.00039045
0.000182075
0.000254631
0.000316625
0.000521048
0.00113557
0.00102261
0.000916521
0.000900427
0.000898094
0.000896287
0.00089818
0.00090754
0.000933776
0.00093982
0.000852758
0.000613717
0.000321429
0.000144433
9.99279e-05
5.98735e-05
0.000858914
0.000859112
0.000859517
0.000859589
0.000859404
0.000859059
0.000858642
0.00085823
0.000857882
0.000857636
0.00085751
0.000857508
0.000857616
0.000857817
0.000858081
0.000858369
0.000858632
0.000858812
0.000858839
0.000858674
0.000858762
0.000859002
0.000859388
0.000859438
0.000859232
0.00085887
0.000858443
0.000858027
0.000857678
0.000857433
0.000857309
0.000857308
0.000857415
0.000857611
0.000857865
0.000858134
0.000858375
0.000858538
0.000858566
0.000858414
0.000858628
0.000858899
0.000859283
0.000859324
0.000859107
0.000858736
0.000858302
0.000857882
0.000857531
0.000857285
0.00085716
0.000857157
0.00085726
0.00085745
0.000857696
0.000857955
0.000858186
0.000858336
0.000858346
0.000858182
0.000858498
0.000858796
0.000859173
0.000859201
0.000858972
0.00085859
0.000858148
0.000857725
0.000857373
0.000857127
0.000857003
0.000856998
0.0008571
0.000857288
0.000857534
0.000857801
0.000858043
0.000858185
0.000858157
0.000857944
0.000858515
0.000858744
0.000859097
0.000859108
0.000858849
0.000858439
0.000857981
0.000857554
0.000857203
0.00085696
0.00085684
0.000856838
0.000856937
0.000857122
0.000857364
0.00085763
0.000857885
0.000858063
0.000858047
0.000857777
0.000858465
0.000858679
0.000859015
0.00085901
0.000858738
0.000858314
0.000857859
0.000857452
0.000857128
0.000856908
0.000856806
0.00085681
0.000856905
0.000857082
0.000857309
0.000857554
0.000857812
0.000858001
0.000857963
0.000857647
0.00085836
0.000858541
0.000858857
0.000858873
0.000858666
0.000858311
0.000857951
0.000857605
0.000857309
0.000857098
0.000856995
0.000856984
0.000857041
0.000857236
0.000857459
0.00085767
0.000857845
0.000857977
0.000857935
0.000857661
0.000858257
0.000858384
0.000858695
0.000858754
0.000858616
0.000858328
0.000858031
0.00085767
0.00085735
0.000857118
0.000856995
0.000856971
0.000857017
0.000857227
0.000857449
0.000857659
0.000857791
0.000857962
0.000858001
0.000857852
0.000858183
0.000858292
0.000858671
0.000858764
0.000858629
0.000858304
0.000857903
0.000857504
0.000857164
0.000856921
0.000856796
0.000856784
0.000856869
0.000857038
0.000857256
0.000857486
0.00085769
0.000857969
0.000858084
0.000857972
0.000858065
0.00085836
0.000858809
0.000858873
0.000858676
0.000858324
0.000857907
0.000857504
0.000857162
0.000856916
0.000856787
0.000856767
0.000856837
0.000856987
0.000857181
0.000857379
0.00085751
0.00085785
0.000857981
0.00085792
0.000858138
0.000858459
0.00085883
0.000858837
0.000858608
0.000858248
0.000857833
0.000857464
0.000857135
0.000856892
0.000856757
0.000856719
0.000856741
0.000856874
0.000857071
0.000857307
0.000857427
0.000857644
0.000857734
0.000857688
0.00085825
0.000858503
0.000858853
0.000858851
0.000858649
0.000858298
0.000857897
0.000857555
0.000857231
0.000856989
0.000856854
0.00085681
0.000856809
0.000856946
0.000857159
0.00085742
0.00085744
0.000857551
0.000857688
0.000857698
0.000858372
0.000858514
0.000858944
0.000859095
0.000858923
0.000858582
0.00085817
0.000857769
0.000857427
0.000857183
0.000857059
0.000857046
0.00085712
0.00085727
0.000857454
0.000857621
0.000857682
0.000857804
0.000857907
0.000857924
0.000858461
0.000858629
0.000859108
0.000859183
0.000858986
0.00085863
0.000858206
0.000857795
0.000857446
0.0008572
0.000857078
0.000857072
0.000857158
0.000857319
0.000857526
0.000857743
0.000857929
0.000858031
0.000857963
0.000857956
0.000858404
0.000858767
0.000859154
0.000859201
0.000858988
0.000858623
0.000858192
0.000857774
0.000857421
0.000857172
0.00085705
0.000857045
0.000857129
0.00085729
0.000857495
0.000857718
0.000857925
0.00085806
0.000858056
0.000857862
0.000858523
0.000858756
0.000859108
0.000859155
0.00085894
0.000858568
0.000858128
0.000857703
0.000857346
0.000857095
0.000856972
0.000856964
0.000857045
0.000857196
0.000857375
0.000857557
0.000857792
0.000857953
0.000857986
0.00085786
0.000858502
0.000858734
0.000859061
0.000859088
0.000858845
0.000858452
0.000857994
0.000857556
0.000857192
0.000856944
0.000856826
0.000856815
0.000856905
0.000857073
0.000857278
0.000857496
0.000857797
0.000857916
0.000857942
0.000857834
0.000858596
0.000858787
0.000859086
0.000859091
0.00085883
0.000858417
0.000857944
0.000857496
0.000857125
0.00085687
0.000856754
0.000856763
0.000856873
0.000857067
0.000857317
0.000857589
0.000857922
0.000858044
0.000858084
0.000857983
0.000858622
0.000858836
0.000859208
0.000859187
0.000858884
0.000858431
0.000857933
0.000857467
0.000857087
0.00085683
0.00085672
0.000856742
0.00085687
0.000857088
0.000857367
0.000857662
0.000858012
0.000858287
0.000858327
0.000858209
0.000858641
0.000858956
0.000859241
0.000859182
0.000858854
0.000858378
0.000857858
0.00085737
0.000856975
0.00085672
0.000856614
0.000856657
0.000856808
0.000857064
0.00085739
0.000857795
0.000858277
0.000858561
0.00085856
0.000858436
0.00085872
0.000858958
0.000859227
0.000859202
0.000858918
0.000858459
0.000857931
0.000857379
0.000856952
0.000856688
0.00085658
0.00085663
0.000856799
0.000857108
0.000857446
0.000857827
0.000858262
0.00085849
0.000858507
0.000858353
0.000858725
0.000858971
0.00085932
0.000859287
0.000858984
0.000858571
0.000858081
0.000857556
0.000857174
0.000856921
0.000856816
0.000856847
0.000856993
0.000857264
0.000857562
0.000857899
0.000858284
0.000858492
0.000858496
0.000858291
0.000858834
0.000859049
0.000859353
0.000859244
0.000858952
0.000858626
0.000858248
0.000857913
0.000857605
0.000857383
0.000857287
0.000857304
0.000857407
0.000857578
0.000857817
0.000858071
0.000858411
0.000858566
0.000858521
0.000858333
0.000858837
0.000859041
0.000859306
0.000859284
0.000859058
0.000858845
0.000858526
0.000858213
0.000857915
0.000857699
0.000857603
0.000857613
0.000857694
0.000857826
0.000858028
0.000858184
0.000858391
0.00085854
0.000858524
0.000858354
0.000858874
0.000859084
0.000859368
0.000859367
0.000859163
0.000858876
0.000858466
0.000858055
0.000857711
0.000857473
0.000857371