/*--------------------------------*- C++ -*----------------------------------*\
  =========                 |
  \\      /  F ield         | OpenFOAM: The Open Source CFD Toolbox
   \\    /   O peration     | Website:  https://openfoam.org
    \\  /    A nd           | Version:  6
     \\/     M anipulation  |
\*---------------------------------------------------------------------------*/
FoamFile
{
    version     2.0;
    format      ascii;
    class       volScalarField;
    location    "3";
    object      p;
}
// * * * * * * * * * * * * * * * * * * * * * * * * * * * * * * * * * * * * * //

dimensions      [0 2 -2 0 0 0 0];

internalField   nonuniform List<scalar> 
10000
(
-0.269999
-0.224094
-0.173118
-0.101915
-0.050166
-0.0241704
-0.0173531
-0.0184937
-0.0197552
-0.0182992
-0.013087
-0.00436433
0.00659243
0.0153886
0.0128869
-0.011887
-0.0650737
-0.142133
-0.198142
-0.242219
-0.384587
-0.329871
-0.250143
-0.145285
-0.0590211
-0.00561573
0.0186848
0.0276961
0.032316
0.0389302
0.0498307
0.0659494
0.0869586
0.105668
0.109616
0.0814314
0.0126309
-0.0867203
-0.176734
-0.254805
-0.0479464
-0.032463
0.00411236
0.0456846
0.0839382
0.114041
0.133738
0.144178
0.149708
0.153872
0.159393
0.166864
0.175844
0.184255
0.18967
0.186745
0.171746
0.144624
0.104442
0.064882
0.210092
0.235542
0.2573
0.269949
0.273197
0.267379
0.256501
0.244881
0.235162
0.228709
0.225345
0.224578
0.225478
0.225327
0.222812
0.216278
0.204978
0.189103
0.173041
0.161214
0.35206
0.372153
0.378933
0.374316
0.363239
0.347705
0.331438
0.316393
0.303991
0.293565
0.284825
0.27615
0.266364
0.255037
0.242507
0.231326
0.226349
0.227962
0.230692
0.231522
0.319833
0.318023
0.319991
0.327906
0.337507
0.346287
0.35247
0.354787
0.353517
0.348432
0.339538
0.325794
0.308075
0.286528
0.264084
0.245231
0.234001
0.232851
0.241063
0.252867
0.296605
0.273171
0.269051
0.283648
0.310475
0.34396
0.375496
0.399597
0.414659
0.420525
0.41933
0.411049
0.396181
0.374735
0.348488
0.321832
0.300664
0.288884
0.292936
0.311375
0.410322
0.393054
0.3941
0.407449
0.429002
0.456617
0.483703
0.505943
0.52154
0.530753
0.53435
0.532718
0.527611
0.518585
0.507013
0.494539
0.484054
0.477177
0.474885
0.47818
0.61472
0.617346
0.622012
0.62739
0.633873
0.64053
0.647167
0.653931
0.660465
0.666092
0.671195
0.675633
0.679226
0.682576
0.685789
0.686814
0.684924
0.680102
0.674599
0.671036
0.812489
0.82416
0.820182
0.809959
0.802049
0.796964
0.795247
0.797149
0.801
0.806714
0.813856
0.822543
0.83366
0.846885
0.861928
0.876124
0.885597
0.887777
0.882234
0.872559
0.930367
0.931431
0.925634
0.920181
0.917919
0.91993
0.924669
0.930894
0.93737
0.943338
0.949292
0.956836
0.966814
0.980858
0.9981
1.01697
1.03502
1.04834
1.04855
1.03455
1.08543
1.08709
1.08562
1.08293
1.08048
1.07949
1.07966
1.08075
1.08207
1.08272
1.08176
1.07925
1.07562
1.0707
1.06558
1.06206
1.06174
1.06627
1.075
1.08285
1.24525
1.24958
1.25263
1.25342
1.25184
1.24882
1.24509
1.24091
1.23675
1.23186
1.22581
1.21682
1.20357
1.18617
1.16599
1.14586
1.13056
1.1236
1.13063
1.1499
1.41686
1.42386
1.43238
1.43741
1.43588
1.42876
1.41917
1.40968
1.40133
1.39425
1.38741
1.37932
1.37035
1.35936
1.3475
1.33643
1.32812
1.3236
1.32324
1.32763
1.58867
1.59539
1.59845
1.59424
1.58623
1.5776
1.57065
1.56538
1.56154
1.55833
1.55579
1.55372
1.55188
1.55069
1.5494
1.54736
1.54461
1.54081
1.53733
1.53544
1.68812
1.67233
1.66531
1.66945
1.68025
1.69429
1.70723
1.71697
1.72369
1.72907
1.7335
1.73769
1.74279
1.74868
1.75578
1.76332
1.76897
1.77057
1.76744
1.76115
1.86245
1.85981
1.8555
1.85463
1.85984
1.86898
1.87894
1.88899
1.89838
1.90709
1.91534
1.92365
1.93124
1.93926
1.94782
1.95756
1.96798
1.9757
1.9759
1.96801
2.01207
2.01514
2.01935
2.02643
2.03506
2.04516
2.05607
2.06842
2.08057
2.09254
2.10359
2.11386
2.12289
2.12852
2.12936
2.12484
2.1166
2.10781
2.10709
2.11683
2.20087
2.20266
2.20943
2.21876
2.2288
2.23965
2.25086
2.26255
2.2741
2.28531
2.29611
2.30738
2.31902
2.33167
2.34401
2.35332
2.35861
2.36012
2.35743
2.35318
2.43649
2.43732
2.43874
2.44127
2.4455
2.45197
2.46006
2.46935
2.47844
2.48693
2.49399
2.50065
2.50885
2.52031
2.5362
2.5554
2.57365
2.58721
2.58863
2.57668
2.67166
2.67447
2.67304
2.67142
2.67146
2.6743
2.67947
2.68595
2.69253
2.69817
2.70256
2.70507
2.70453
2.70229
2.69873
2.69571
2.69569
2.69927
2.70672
2.71425
2.90285
2.90729
2.90993
2.91151
2.91217
2.91338
2.91552
2.9185
2.92167
2.92531
2.9284
2.9295
2.92801
2.92128
2.9091
2.89317
2.87796
2.86861
2.87191
2.88787
3.18253
3.1902
3.19613
3.19699
3.19214
3.18342
3.17442
3.1675
3.16355
3.16249
3.16403
3.16774
3.17257
3.17802
3.18313
3.18633
3.18685
3.18522
3.18158
3.17841
3.48319
3.49716
3.49852
3.48708
3.46862
3.44671
3.42656
3.41144
3.40179
3.39804
3.39927
3.40479
3.41419
3.42651
3.44212
3.45947
3.47407
3.48364
3.48211
3.46955
3.68598
3.69231
3.69235
3.68892
3.6786
3.66199
3.64402
3.6284
3.61754
3.61307
3.61544
3.62439
3.6379
3.65442
3.67071
3.68281
3.68873
3.69051
3.68984
3.68706
3.83661
3.84576
3.85182
3.85168
3.84321
3.82976
3.81567
3.80423
3.79712
3.79562
3.79908
3.80821
3.82298
3.84203
3.86268
3.88066
3.89162
3.89434
3.89146
3.88701
3.94745
3.94846
3.94814
3.9442
3.94035
3.93875
3.93873
3.94043
3.9438
3.94847
3.95428
3.96227
3.97187
3.98415
3.99822
4.01357
4.02782
4.03669
4.03943
4.03839
4.05696
4.04663
4.03906
4.03942
4.04745
4.05952
4.07254
4.08443
4.0938
4.10102
4.1057
4.10866
4.11061
4.11188
4.11363
4.11751
4.1245
4.13488
4.14537
4.1518
4.1831
4.16476
4.15879
4.16919
4.18917
4.21355
4.23616
4.25344
4.26491
4.27111
4.27279
4.26997
4.26266
4.25242
4.24088
4.23171
4.22811
4.23249
4.24426
4.25785
4.40928
4.40429
4.40371
4.40781
4.41701
4.43061
4.44449
4.45644
4.46453
4.46869
4.46859
4.46378
4.4541
4.43866
4.41888
4.39843
4.38187
4.3733
4.37929
4.39859
4.66255
4.6633
4.66484
4.66665
4.66849
4.67107
4.67411
4.67786
4.68132
4.68331
4.68368
4.68222
4.67854
4.67264
4.66448
4.655
4.64673
4.64135
4.64011
4.64412
4.93354
4.94
4.94416
4.94411
4.93898
4.9303
4.92129
4.91448
4.91049
4.90936
4.90963
4.91138
4.91436
4.91805
4.92214
4.92449
4.9234
4.91924
4.91442
4.91161
5.17683
5.18596
5.18722
5.17903
5.16624
5.15329
5.14328
5.13644
5.13245
5.13121
5.13305
5.13835
5.14665
5.15868
5.17306
5.18677
5.19586
5.19791
5.19276
5.18389
5.35421
5.34179
5.3368
5.33907
5.34333
5.34783
5.35052
5.35006
5.34702
5.34399
5.34219
5.34405
5.35032
5.36181
5.37753
5.39545
5.41255
5.42535
5.42569
5.41251
5.61513
5.61892
5.62085
5.61971
5.61463
5.60423
5.58998
5.5748
5.56054
5.54765
5.5363
5.52676
5.51848
5.51193
5.5064
5.5026
5.50211
5.50667
5.51548
5.52352
5.84478
5.8606
5.86535
5.85794
5.84242
5.82047
5.79735
5.7767
5.75915
5.74392
5.72902
5.71323
5.69595
5.67681
5.65645
5.63738
5.62322
5.61732
5.62493
5.64416
5.95908
5.95355
5.94736
5.94423
5.9441
5.94532
5.94605
5.94471
5.94108
5.93518
5.92745
5.91772
5.90596
5.8927
5.8788
5.86695
5.85902
5.85572
5.85684
5.86212
6.08301
6.06386
6.05494
6.06007
6.0749
6.0951
6.11355
6.12677
6.13408
6.13729
6.13672
6.1338
6.12869
6.12222
6.11528
6.10895
6.10368
6.09995
6.09849
6.09902
6.30726
6.30266
6.3018
6.30485
6.31225
6.32361
6.33513
6.34538
6.35277
6.35749
6.36004
6.36116
6.36094
6.36038
6.35914
6.35751
6.35482
6.35147
6.34881
6.3477
6.55167
6.55282
6.55515
6.55775
6.56048
6.56391
6.56773
6.57279
6.57774
6.58279
6.5868
6.59098
6.59492
6.59931
6.60372
6.60729
6.60826
6.6063
6.60286
6.59993
6.80379
6.81114
6.81715
6.81999
6.81834
6.81354
6.80816
6.80505
6.80479
6.80725
6.81112
6.81648
6.82251
6.83009
6.83874
6.84804
6.85497
6.85779
6.85543
6.84908
7.01767
7.02759
7.0319
7.02903
7.02322
7.01817
7.01595
7.01673
7.0192
7.0236
7.0281
7.03327
7.03776
7.04248
7.04796
7.05528
7.06264
7.06901
7.06983
7.06263
7.15613
7.14268
7.1404
7.14989
7.16521
7.18369
7.20111
7.21529
7.22592
7.23464
7.24162
7.24688
7.24838
7.24484
7.23442
7.21923
7.202
7.1875
7.18633
7.20016
7.38127
7.37651
7.37689
7.38166
7.39142
7.40444
7.41748
7.42969
7.43948
7.44804
7.45502
7.46219
7.46859
7.47349
7.47315
7.46563
7.45203
7.43569
7.4255
7.42855
7.63287
7.63244
7.63366
7.63449
7.63561
7.63798
7.64119
7.64569
7.65031
7.65485
7.65926
7.66495
7.67279
7.68532
7.70129
7.71774
7.73011
7.73502
7.72594
7.70523
7.90904
7.91498
7.91797
7.91452
7.90545
7.89289
7.87991
7.86917
7.86105
7.85588
7.8518
7.84957
7.84878
7.85136
7.85811
7.86984
7.88384
7.89597
7.8964
7.881
8.16175
8.17548
8.1764
8.16221
8.14059
8.1163
8.09349
8.07452
8.05901
8.04576
8.03312
8.02036
8.00606
7.99096
7.97587
7.96447
7.95784
7.95697
7.96183
7.9677
8.31634
8.31554
8.31167
8.30351
8.29177
8.27824
8.26482
8.25241
8.24027
8.22825
8.2146
8.19855
8.17754
8.15178
8.12233
8.09387
8.07127
8.05815
8.06004
8.07571
8.45302
8.44321
8.4352
8.43155
8.42956
8.42747
8.425
8.42169
8.41653
8.40966
8.40066
8.38909
8.37402
8.35646
8.3368
8.31762
8.3015
8.2904
8.28461
8.28475
8.59397
8.57886
8.56831
8.56911
8.57613
8.58471
8.59127
8.59467
8.59406
8.59112
8.58606
8.58074
8.57475
8.56884
8.56169
8.55329
8.54285
8.53087
8.52006
8.51279
8.78322
8.79113
8.79589
8.7979
8.79622
8.79144
8.78426
8.77703
8.77035
8.76535
8.76201
8.76188
8.76466
8.77085
8.77775
8.78351
8.7841
8.77755
8.76503
8.7508
8.95091
8.96895
8.9812
8.98236
8.97392
8.95952
8.94443
8.93196
8.92267
8.91753
8.91504
8.91679
8.92241
8.93374
8.94867
8.96464
8.97672
8.98121
8.97221
8.95129
9.03204
9.02681
9.02405
9.0241
9.02672
9.03151
9.03673
9.04076
9.04261
9.04309
9.04194
9.04038
9.03807
9.03688
9.03577
9.03604
9.03747
9.03891
9.03917
9.03608
9.10842
9.09104
9.08363
9.0888
9.10338
9.12324
9.14172
9.15552
9.16338
9.16666
9.16506
9.15922
9.14815
9.13368
9.11668
9.10181
9.09291
9.09122
9.09641
9.10518
9.26718
9.27102
9.27596
9.28134
9.28687
9.29151
9.29438
9.29678
9.29844
9.29956
9.29917
9.29678
9.29017
9.2789
9.2617
9.24074
9.22031
9.20553
9.20351
9.21546
9.38445
9.39608
9.40332
9.40582
9.4073
9.40892
9.41109
9.41457
9.41856
9.42326
9.42771
9.43274
9.43779
9.44299
9.44645
9.4475
9.44455
9.4387
9.42996
9.4212
9.41416
9.39938
9.39889
9.41305
9.43537
9.46209
9.48759
9.50848
9.52393
9.53578
9.54532
9.55493
9.56507
9.57811
9.59365
9.61054
9.62344
9.62864
9.62099
9.6016
9.53841
9.53038
9.53534
9.55061
9.57029
9.59156
9.61176
9.62891
9.64183
9.65128
9.65742
9.66173
9.66422
9.66655
9.66879
9.6728
9.67758
9.68206
9.68431
9.68218
9.72924
9.7405
9.74674
9.74765
9.74983
9.75508
9.76244
9.76974
9.77491
9.77718
9.7758
9.77071
9.76131
9.74954
9.73627
9.72576
9.72233
9.72726
9.73736
9.74744
9.87933
9.88107
9.88147
9.88287
9.88711
9.89441
9.90233
9.90932
9.91398
9.91536
9.91295
9.90657
9.8964
9.88245
9.86413
9.84483
9.82914
9.82088
9.82484
9.84014
10.0724
10.079
10.0841
10.0856
10.0832
10.0781
10.0726
10.069
10.0669
10.0648
10.0617
10.0574
10.0517
10.0462
10.0412
10.0377
10.0368
10.0369
10.0354
10.0329
10.2472
10.2564
10.2586
10.2521
10.2421
10.233
10.2271
10.2236
10.2211
10.2188
10.216
10.2124
10.209
10.2069
10.2074
10.2129
10.2211
10.2283
10.2285
10.22
10.368
10.3536
10.3479
10.3505
10.3574
10.3667
10.3753
10.3806
10.3823
10.3819
10.3808
10.3804
10.3795
10.3774
10.372
10.3626
10.3519
10.342
10.3405
10.3491
10.5971
10.5975
10.5963
10.5923
10.5867
10.5791
10.5701
10.5615
10.5543
10.5486
10.5451
10.5436
10.5456
10.5504
10.5563
10.5618
10.565
10.5659
10.5625
10.5568
10.8289
10.8406
10.8403
10.8267
10.806
10.7807
10.7558
10.7347
10.7184
10.7058
10.6964
10.6906
10.6881
10.6918
10.7018
10.7164
10.7327
10.7466
10.7481
10.7347
10.9852
10.9877
10.9859
10.9796
10.9667
10.9469
10.9238
10.9001
10.8782
10.858
10.8399
10.8225
10.8074
10.7944
10.7839
10.7778
10.7774
10.7838
10.7945
10.8029
11.1092
11.1102
11.1089
11.1035
11.0936
11.0788
11.0612
11.0421
11.023
11.0035
10.9837
10.9631
10.9405
10.9171
10.8939
10.8733
10.8602
10.8568
10.867
10.8875
11.1907
11.1814
11.1754
11.1743
11.1761
11.1787
11.1794
11.1765
11.1702
11.1604
11.1485
11.1332
11.1171
11.1001
11.0844
11.0735
11.0681
11.0683
11.0722
11.0788
11.295
11.2715
11.2633
11.2719
11.2893
11.3091
11.3258
11.3357
11.3391
11.3374
11.3323
11.3253
11.3159
11.3065
11.2983
11.2921
11.2895
11.2897
11.2918
11.2942
11.5273
11.5176
11.5187
11.527
11.5359
11.5433
11.5474
11.5481
11.5467
11.5442
11.5418
11.538
11.5341
11.5291
11.5244
11.5219
11.5207
11.5213
11.5232
11.5257
11.828
11.8448
11.8508
11.8437
11.8285
11.808
11.788
11.7723
11.7624
11.7577
11.7572
11.7602
11.7634
11.7663
11.7678
11.7668
11.7646
11.7622
11.7626
11.767
12.0293
12.042
12.0409
12.0284
12.0106
11.9911
11.9746
11.9642
11.9603
11.962
11.9692
11.9807
11.9978
12.0167
12.0333
12.0439
12.0449
12.0383
12.0334
12.0372
12.136
12.1252
12.1146
12.1089
12.1088
12.1133
12.1211
12.1305
12.1414
12.1548
12.1712
12.1928
12.2191
12.252
12.2886
12.3237
12.3532
12.3717
12.3724
12.358
12.2631
12.2383
12.2251
12.2283
12.2431
12.266
12.2898
12.3117
12.3315
12.3509
12.3711
12.3923
12.417
12.445
12.4769
12.5119
12.5459
12.5745
12.5874
12.5813
12.4991
12.4876
12.481
12.4794
12.4844
12.4955
12.5097
12.5255
12.5417
12.5583
12.5753
12.5939
12.6113
12.6284
12.6442
12.6591
12.6752
12.6926
12.7106
12.726
12.7678
12.7606
12.7541
12.7484
12.7444
12.7439
12.7467
12.7536
12.7637
12.7765
12.7916
12.8072
12.8233
12.836
12.8442
12.8478
12.8495
12.8541
12.8679
12.8912
13.0604
13.0584
13.0529
13.0422
13.0278
13.0119
12.9982
12.9898
12.9879
12.9925
13.0025
13.0184
13.0377
13.0606
13.0846
13.1058
13.1223
13.1343
13.1417
13.1466
13.3305
13.3346
13.3268
13.3062
13.2798
13.2519
13.2273
13.2096
13.1994
13.1967
13.2006
13.2104
13.2275
13.2504
13.2791
13.3109
13.3397
13.3622
13.3724
13.3706
13.4993
13.4903
13.4786
13.4643
13.4478
13.4285
13.4092
13.3929
13.3814
13.3758
13.3754
13.3803
13.3877
13.3979
13.4097
13.4227
13.4367
13.452
13.4696
13.4881
13.6301
13.6168
13.605
13.5931
13.5797
13.5656
13.5523
13.5417
13.535
13.5326
13.5342
13.5384
13.5438
13.5474
13.5493
13.5501
13.5521
13.5587
13.5759
13.6044
13.7109
13.6884
13.672
13.662
13.6562
13.6542
13.6556
13.6585
13.6622
13.6672
13.674
13.6837
13.6953
13.7086
13.7229
13.737
13.7505
13.7635
13.7754
13.7881
13.7941
13.7626
13.7459
13.745
13.7522
13.7633
13.7743
13.7832
13.79
13.7967
13.804
13.8132
13.8248
13.8388
13.856
13.8747
13.8935
13.9111
13.924
13.9332
13.9426
13.9278
13.9183
13.9114
13.9067
13.9038
13.902
13.9019
13.904
13.9087
13.9155
13.9247
13.9346
13.9435
13.9493
13.951
13.9498
13.95
13.9618
13.9899
14.0457
14.0351
14.0255
14.0112
13.9976
13.9884
13.9847
13.9855
13.9891
13.9948
14.0016
14.0104
14.0202
14.0306
14.0417
14.0511
14.059
14.0672
14.0773
14.0939
14.0578
14.0252
14.0107
14.0088
14.0141
14.0248
14.0372
14.0476
14.0552
14.0607
14.0646
14.0677
14.0711
14.0755
14.0825
14.0934
14.1055
14.1181
14.1289
14.143
14.131
14.1121
14.1045
14.0995
14.0978
14.0976
14.0985
14.0998
14.1015
14.1031
14.1038
14.1038
14.1011
14.0952
14.086
14.073
14.0597
14.0507
14.0584
14.0918
14.1527
14.1433
14.1405
14.1323
14.1232
14.1151
14.1102
14.1082
14.1083
14.1079
14.1061
14.1016
14.0955
14.0871
14.0777
14.0684
14.0589
14.0539
14.0582
14.0814
14.0476
14.0269
14.0291
14.0371
14.0474
14.0571
14.0664
14.073
14.0766
14.0764
14.0716
14.0634
14.0498
14.0338
14.0194
14.0072
13.9986
13.9943
13.9974
14.0194
13.8656
13.842
13.8558
13.8808
13.9077
13.9347
13.9612
13.983
13.9989
14.0066
14.0067
13.998
13.9821
13.9568
13.9239
13.8868
13.8473
13.8172
13.816
13.8608
13.6105
13.5717
13.5915
13.6359
13.6883
13.7439
13.8004
13.8493
13.886
13.9077
13.9139
13.9082
13.8891
13.8602
13.8244
13.7838
13.7449
13.7165
13.7123
13.753
13.3743
13.3152
13.337
13.4035
13.4877
13.5772
13.6631
13.7348
13.7872
13.8167
13.8247
13.8119
13.7843
13.7443
13.6994
13.6573
13.6192
13.5912
13.5854
13.6304
13.2828
13.2232
13.2523
13.3221
13.4093
13.5023
13.5931
13.6687
13.7225
13.7516
13.7561
13.7408
13.7041
13.6535
13.5925
13.525
13.4589
13.4061
13.3954
13.4664
13.2955
13.216
13.2477
13.3291
13.4249
13.5218
13.6124
13.6845
13.7312
13.7512
13.7456
13.714
13.6606
13.5856
13.4954
13.3997
13.3079
13.2429
13.241
13.3504
13.4507
13.3152
13.339
13.44
13.5572
13.6654
13.7563
13.823
13.8618
13.8741
13.8577
13.8159
13.7417
13.6412
13.5187
13.3886
13.2731
13.2025
13.2241
13.3948
13.9443
13.723
13.7109
13.8081
13.9297
14.04
14.1265
14.1895
14.2272
14.2396
14.2242
14.1805
14.1091
14.009
13.8838
13.7477
13.622
13.5478
13.5942
13.8414
15.0587
14.7235
14.6485
14.7062
14.7953
14.8753
14.9362
14.9798
15.0055
15.0157
15.0081
14.9865
14.9456
14.8887
14.8112
14.7156
14.6183
14.5613
14.6418
14.9837
17.181
16.7348
16.5903
16.5649
16.5479
16.5136
16.4743
16.4439
16.4242
16.4158
16.4177
16.4296
16.455
16.4922
16.5348
16.5671
16.5809
16.6027
16.7341
17.163
20.3571
19.8587
19.634
19.4366
19.2047
18.9628
18.7561
18.6059
18.5124
18.4695
18.4742
18.527
18.6317
18.7966
19.0146
19.2647
19.4983
19.6943
19.9025
20.3782
24.1987
23.5
23.1906
22.7894
22.3073
21.8497
21.4891
21.2403
21.0887
21.0182
21.0231
21.1
21.2609
21.5213
21.8933
22.363
22.8557
23.2578
23.5531
24.2165
29.5979
26.3695
26.2724
25.6723
24.9296
24.3314
23.909
23.633
23.4691
23.3931
23.3981
23.4783
23.6537
23.9415
24.3817
24.9996
25.7604
26.3702
26.4586
29.6375
-1.48981
-1.2614
-1.20269
-0.941228
-0.728008
-0.599317
-0.527037
-0.485187
-0.46104
-0.448947
-0.444653
-0.447807
-0.459451
-0.482983
-0.531025
-0.631064
-0.811242
-1.04571
-1.10598
-1.31847
-2.37749
-2.19862
-2.10169
-1.80485
-1.50172
-1.26913
-1.11494
-1.01768
-0.960096
-0.929545
-0.919578
-0.929209
-0.958527
-1.01745
-1.11976
-1.29015
-1.52895
-1.77046
-1.85342
-2.04398
-1.99003
-1.99754
-1.9113
-1.75885
-1.58203
-1.41176
-1.27561
-1.1811
-1.12141
-1.08948
-1.07938
-1.09177
-1.12894
-1.19837
-1.30274
-1.43538
-1.56146
-1.64776
-1.69593
-1.70955
-1.83008
-1.76396
-1.68294
-1.59946
-1.51605
-1.4339
-1.36331
-1.30874
-1.27184
-1.25096
-1.24513
-1.25491
-1.27955
-1.32551
-1.39666
-1.50051
-1.63674
-1.78545
-1.85617
-1.84746
-1.70633
-1.56908
-1.48148
-1.42892
-1.38725
-1.34649
-1.31713
-1.30224
-1.29594
-1.29628
-1.30131
-1.31127
-1.32449
-1.33814
-1.345
-1.34211
-1.33362
-1.33023
-1.37113
-1.4309
-1.30227
-1.15946
-1.08464
-1.08643
-1.12948
-1.18462
-1.23294
-1.27045
-1.29997
-1.32547
-1.35006
-1.37622
-1.40374
-1.43189
-1.45012
-1.44277
-1.40374
-1.34121
-1.32396
-1.37743
-0.856557
-0.782172
-0.79222
-0.900514
-1.01974
-1.12698
-1.2073
-1.26416
-1.30842
-1.3491
-1.38906
-1.43342
-1.49007
-1.56808
-1.66969
-1.78254
-1.88521
-1.95222
-1.934
-1.8794
-0.97813
-1.01585
-1.0672
-1.09357
-1.11929
-1.15765
-1.20522
-1.2561
-1.30659
-1.35618
-1.40698
-1.46475
-1.53209
-1.6202
-1.73611
-1.88341
-2.03943
-2.16709
-2.19894
-2.14897
-1.03651
-1.11075
-1.15187
-1.15982
-1.1647
-1.18344
-1.21598
-1.25808
-1.30131
-1.34518
-1.38959
-1.43875
-1.49165
-1.54441
-1.59647
-1.65418
-1.71427
-1.77387
-1.83536
-1.88034
-1.28327
-1.42215
-1.49128
-1.4875
-1.44225
-1.38842
-1.34973
-1.32811
-1.31929
-1.31881
-1.32317
-1.33182
-1.34052
-1.34685
-1.34822
-1.34354
-1.34653
-1.37827
-1.44312
-1.51388
-1.42096
-1.55394
-1.59566
-1.55587
-1.49034
-1.42593
-1.37527
-1.33299
-1.29725
-1.26574
-1.23503
-1.20137
-1.16369
-1.11453
-1.05089
-0.975646
-0.905249
-0.871977
-0.914432
-1.00284
-1.22576
-1.20188
-1.19674
-1.23079
-1.26823
-1.29123
-1.29019
-1.26869
-1.23716
-1.19848
-1.15453
-1.10313
-1.0408
-0.966717
-0.878024
-0.775908
-0.665341
-0.558824
-0.538411
-0.617129
-1.5316
-1.41976
-1.40176
-1.41059
-1.40692
-1.37734
-1.32823
-1.272
-1.21558
-1.15872
-1.10041
-1.03586
-0.966028
-0.894677
-0.831662
-0.790431
-0.772563
-0.75413
-0.710605
-0.686802
-1.89914
-1.87787
-1.81803
-1.66821
-1.51997
-1.39911
-1.30758
-1.23493
-1.1727
-1.11516
-1.06162
-1.01139
-0.964692
-0.923076
-0.885589
-0.852803
-0.829915
-0.808127
-0.767407
-0.717862
-1.52225
-1.46704
-1.39813
-1.34042
-1.28511
-1.2328
-1.18259
-1.13516
-1.09069
-1.0497
-1.01139
-0.97781
-0.955843
-0.950934
-0.965162
-0.988661
-1.00693
-1.01406
-0.979073
-0.897535
-1.22048
-1.15323
-1.10803
-1.08916
-1.07606
-1.05448
-1.0315
-1.01109
-0.990256
-0.965833
-0.937573
-0.906562
-0.872041
-0.84376
-0.833162
-0.856116
-0.914258
-0.99011
-1.00932
-0.960757
-0.776311
-0.696501
-0.664508
-0.701622
-0.770805
-0.840382
-0.888713
-0.912862
-0.917285
-0.907926
-0.886341
-0.852566
-0.806335
-0.742957
-0.661231
-0.572928
-0.492409
-0.441249
-0.459531
-0.522542
-0.490843
-0.443386
-0.473058
-0.583276
-0.700973
-0.80145
-0.866701
-0.898753
-0.908656
-0.905117
-0.891796
-0.86771
-0.827367
-0.768828
-0.690092
-0.585337
-0.456669
-0.320819
-0.264668
-0.312584
-0.714396
-0.791789
-0.857367
-0.889668
-0.904807
-0.912036
-0.917567
-0.923458
-0.927661
-0.931387
-0.934914
-0.937738
-0.938454
-0.931742
-0.921515
-0.904061
-0.871096
-0.814529
-0.723615
-0.648127
-0.96363
-1.05858
-1.10047
-1.07645
-1.02756
-0.978964
-0.943447
-0.924611
-0.919384
-0.926505
-0.944659
-0.978656
-1.02874
-1.09403
-1.16443
-1.2235
-1.25201
-1.23688
-1.15505
-1.03297
-1.1259
-1.21541
-1.21726
-1.12083
-1.01014
-0.925009
-0.872431
-0.847018
-0.842226
-0.856255
-0.884499
-0.92928
-0.993545
-1.07954
-1.18404
-1.30259
-1.41277
-1.48935
-1.4676
-1.3501
-0.733565
-0.714808
-0.687306
-0.668741
-0.655797
-0.647554
-0.64618
-0.654437
-0.673359
-0.704549
-0.747353
-0.802726
-0.865751
-0.935781
-1.0057
-1.07209
-1.12633
-1.16015
-1.17991
-1.17441
-0.260414
-0.219294
-0.199287
-0.21522
-0.256993
-0.305265
-0.350039
-0.396048
-0.443675
-0.495096
-0.550147
-0.610769
-0.675184
-0.737259
-0.791674
-0.839538
-0.885108
-0.926476
-0.95942
-0.980775
0.328232
0.386636
0.387488
0.312722
0.197082
0.0705782
-0.0397828
-0.127906
-0.198254
-0.258097
-0.312393
-0.363332
-0.408446
-0.451066
-0.489985
-0.525633
-0.563313
-0.60675
-0.651601
-0.686921
0.713161
0.759995
0.6968
0.549865
0.399986
0.262979
0.149744
0.0636959
0.001287
-0.0457981
-0.0828382
-0.112499
-0.135594
-0.153141
-0.166877
-0.179173
-0.195576
-0.226466
-0.275602
-0.325694
0.507915
0.437508
0.349505
0.302478
0.275015
0.249236
0.21761
0.18507
0.157775
0.13979
0.129132
0.123958
0.124563
0.129294
0.139795
0.15756
0.177636
0.185738
0.153741
0.0930146
0.204987
0.0964122
0.0435826
0.0807379
0.14701
0.206284
0.247038
0.271979
0.289184
0.305116
0.322814
0.343575
0.363719
0.381637
0.394527
0.403986
0.416495
0.435724
0.429314
0.38252
-0.128256
-0.250976
-0.254032
-0.124162
0.0321328
0.1755
0.28819
0.370263
0.42975
0.479392
0.524368
0.569261
0.613231
0.649496
0.665705
0.64085
0.563944
0.456755
0.415361
0.437245
0.0477065
0.0376023
0.0968087
0.197028
0.291671
0.38224
0.464505
0.538841
0.605682
0.668762
0.730648
0.794765
0.859548
0.92936
1.00908
1.09484
1.16741
1.20093
1.16314
1.10303
0.505465
0.586647
0.636677
0.626359
0.625519
0.646697
0.687008
0.74281
0.804211
0.867137
0.928037
0.988274
1.04862
1.11319
1.19215
1.29688
1.42361
1.54787
1.58428
1.53365
0.608472
0.629908
0.650428
0.683685
0.743046
0.818402
0.895535
0.968205
1.03354
1.09249
1.1462
1.19724
1.2428
1.28353
1.31591
1.33911
1.35978
1.39292
1.4519
1.48948
0.822164
0.853869
0.899475
0.961875
1.03425
1.11575
1.19582
1.26428
1.31931
1.3662
1.40612
1.43897
1.46211
1.46722
1.44942
1.41709
1.38728
1.37976
1.42049
1.48515
1.11317
1.14853
1.21442
1.29999
1.38725
1.47127
1.54322
1.60014
1.64489
1.67966
1.7072
1.72818
1.74349
1.75013
1.7374
1.69498
1.62454
1.54902
1.53907
1.59146
1.65203
1.71394
1.81905
1.92104
1.97653
1.99851
2.00594
2.01289
2.02375
2.03691
2.05072
2.06577
2.08553
2.11529
2.1631
2.22391
2.28081
2.31333
2.28962
2.24159
2.65926
2.81387
2.88839
2.80477
2.67733
2.5626
2.48196
2.43046
2.40071
2.38448
2.37838
2.37983
2.38722
2.404
2.43699
2.49994
2.59474
2.69185
2.72014
2.67766
3.17769
3.25776
3.22477
3.0957
2.97344
2.87589
2.80359
2.75264
2.71689
2.69193
2.67489
2.66516
2.66139
2.65337
2.62687
2.57786
2.52603
2.49936
2.5367
2.59324
3.36734
3.36674
3.32899
3.2937
3.24419
3.17704
3.10577
3.04459
2.99845
2.96492
2.94211
2.92719
2.91821
2.91138
2.89494
2.8467
2.76473
2.68389
2.67448
2.73555
3.62717
3.63996
3.62324
3.58911
3.5224
3.43693
3.35357
3.28225
3.22779
3.1901
3.16589
3.15188
3.148
3.15922
3.19777
3.2609
3.32052
3.35673
3.34091
3.31338
3.72309
3.69674
3.65919
3.62135
3.57661
3.52325
3.46944
3.42099
3.38199
3.35182
3.33153
3.32023
3.31523
3.32023
3.34501
3.40805
3.50294
3.60129
3.63881
3.60442
3.68276
3.60656
3.53867
3.49958
3.49483
3.50243
3.50471
3.49993
3.49016
3.47883
3.46653
3.45319
3.43509
3.40283
3.34986
3.28658
3.23133
3.20722
3.25816
3.33213
3.54795
3.44898
3.38451
3.38274
3.42411
3.4837
3.5368
3.57508
3.59807
3.60841
3.609
3.60051
3.58165
3.54492
3.47831
3.3758
3.26007
3.17431
3.18122
3.27282
3.5575
3.48266
3.46803
3.5292
3.60574
3.67031
3.7152
3.7481
3.77112
3.78569
3.79108
3.7881
3.78062
3.77373
3.76819
3.75375
3.72893
3.70328
3.67697
3.68582
4.02646
4.05557
4.06924
4.04607
4.01411
3.98706
3.97486
3.97578
3.98307
3.99336
4.00585
4.01924
4.03234
4.05197
4.08464
4.12655
4.15888
4.1625
4.13381
4.10525
4.23054
4.25034
4.23202
4.18593
4.15136
4.13759
4.14054
4.15024
4.16099
4.17503
4.19239
4.21708
4.25081
4.29943
4.36974
4.46149
4.55503
4.61901
4.61352
4.55634
4.11903
4.07281
4.07893
4.16794
4.25239
4.3042
4.32585
4.33054
4.33088
4.33203
4.33542
4.34462
4.36244
4.39686
4.45087
4.53271
4.63879
4.75255
4.80292
4.75708
4.50969
4.54889
4.57459
4.5669
4.54794
4.52877
4.51609
4.50602
4.49489
4.48369
4.47058
4.45502
4.43175
4.39686
4.34656
4.28629
4.23392
4.21984
4.28639
4.36572
4.56969
4.58471
4.56803
4.54083
4.53958
4.56658
4.60078
4.6253
4.63454
4.63018
4.61503
4.58916
4.54909
4.48768
4.39586
4.27759
4.16248
4.08605
4.10495
4.21006
4.34387
4.2744
4.28953
4.41962
4.5687
4.69638
4.7774
4.81763
4.82929
4.82235
4.80038
4.76726
4.72741
4.68437
4.63579
4.58386
4.53782
4.50738
4.48895
4.51611
4.84055
4.86861
4.96011
5.05406
5.10737
5.12437
5.11986
5.10605
5.08699
5.06409
5.03711
5.00606
4.97211
4.94181
4.91551
4.89038
4.85833
4.82126
4.78929
4.78256
5.63489
5.76749
5.83169
5.74761
5.61573
5.49442
5.41097
5.35874
5.32279
5.29769
5.27784
5.26378
5.25382
5.24879
5.24628
5.2416
5.22444
5.19011
5.14622
5.1135
5.82785
5.89532
5.85589
5.74678
5.65233
5.58384
5.53628
5.50547
5.48641
5.47709
5.47517
5.48193
5.49485
5.5154
5.54352
5.57476
5.59281
5.58138
5.53484
5.48316
5.5838
5.52938
5.47477
5.4842
5.52045
5.55517
5.5739
5.58558
5.59376
5.60239
5.61156
5.62697
5.64878
5.68238
5.73423
5.80748
5.88375
5.9332
5.91373
5.84798
5.66113
5.59566
5.58499
5.62646
5.67144
5.70505
5.71889
5.72141
5.71736
5.71091
5.70214
5.69553
5.69317
5.70182
5.72523
5.77835
5.86093
5.95746
5.99351
5.93935
6.23625
6.2683
6.2779
6.21264
6.1149
6.01855
5.94258
5.88992
5.84921
5.81441
5.77774
5.73739
5.68697
5.62081
5.5319
5.43395
5.35168
5.31549
5.36443
5.43191
6.55154
6.59483
6.54269
6.40616
6.26305
6.14314
6.05653
5.99694
5.94848
5.90263
5.85213
5.7927
5.71646
5.61844
5.49221
5.34312
5.19974
5.09588
5.09089
5.17448
6.33672
6.27211
6.19658
6.16545
6.15112
6.13642
6.11386
6.08513
6.04969
6.00938
5.95939
5.8975
5.82206
5.73995
5.65622
5.5742
5.5007
5.44513
5.403
5.39555
6.09938
5.99961
5.95811
6.00362
6.07425
6.13395
6.16994
6.18309
6.17754
6.15946
6.12932
6.08843
6.03601
5.97621
5.91135
5.84826
5.78552
5.72437
5.66976
5.62996
5.86925
5.76425
5.77455
5.90465
6.05092
6.17794
6.26839
6.32237
6.34738
6.35554
6.35088
6.33871
6.3211
6.30108
6.27505
6.24297
6.19825
6.13824
6.06978
6.01247
6.20061
6.21991
6.2919
6.377
6.43611
6.47972
6.51271
6.5405
6.56322
6.5841
6.60345
6.62456
6.64486
6.66736
6.68976
6.70784
6.70712
6.67178
6.59812
6.51997
6.85088
6.96833
7.01015
6.93059
6.83696
6.77266
6.745
6.74699
6.76563
6.79674
6.83646
6.8861
6.94385
7.01177
7.08954
7.17652
7.25291
7.28736
7.23962
7.14356
6.92667
6.95142
6.91287
6.8462
6.81579
6.81987
6.84026
6.87136
6.90851
6.95385
7.00788
7.0755
7.15591
7.25045
7.35454
7.46821
7.59116
7.70719
7.72647
7.63691
6.77704
6.71789
6.71757
6.80548
6.89177
6.94702
6.97498
6.99956
7.02985
7.07108
7.12405
7.19404
7.28226
7.37915
7.463
7.51997
7.55625
7.59681
7.64819
7.65913
7.19823
7.22164
7.23573
7.20938
7.17052
7.13439
7.11385
7.11166
7.12034
7.13886
7.16606
7.20739
7.26445
7.3423
7.4293
7.50773
7.56983
7.6238
7.67818
7.70336
7.32878
7.33289
7.29618
7.22759
7.17902
7.16157
7.162
7.16778
7.17195
7.17361
7.17174
7.16641
7.16081
7.16305
7.17864
7.21734
7.27731
7.35011
7.43963
7.51883
7.16808
7.10005
7.08659
7.15716
7.22665
7.26908
7.28179
7.27633
7.26329
7.24576
7.22149
7.1864
7.13455
7.07176
7.00457
6.94575
6.91729
6.94016
7.03635
7.17175
7.58561
7.60154
7.60397
7.5684
7.52434
7.48377
7.45314
7.42801
7.40349
7.37638
7.34445
7.30202
7.24682
7.17379
7.0828
6.9802
6.88343
6.81827
6.84895
6.96707
7.72133
7.7169
7.67361
7.60685
7.56804
7.5587
7.56322
7.56813
7.56542
7.55267
7.52913
7.49569
7.45169
7.40312
7.35309
7.30499
7.27013
7.25523
7.2498
7.25857
7.57405
7.49594
7.48093
7.56911
7.67059
7.74688
7.79043
7.81301
7.82149
7.81761
7.80235
7.77409
7.7381
7.69971
7.66409
7.63406
7.60722
7.58777
7.57519
7.56392
8.06609
8.07159
8.09951
8.12507
8.14713
8.16293
8.17209
8.17591
8.17492
8.17006
8.16111
8.14929
8.13169
8.11093
8.08719
8.06049
8.03351
8.00729
7.9845
7.96442
8.55231
8.5779
8.60783
8.6181
8.6138
8.61048
8.60404
8.59321
8.58341
8.57703
8.57491
8.57414
8.57533
8.57068
8.56063
8.54621
8.52394
8.49424
8.46243
8.43387
9.09576
9.15276
9.17599
9.1552
9.11384
9.06925
9.03305
9.00942
8.99771
8.99615
9.00297
9.01907
9.04046
9.06441
9.08501
9.09572
9.09163
9.06748
9.02975
8.99118
9.4751
9.51926
9.51048
9.46779
9.43246
9.40708
9.39256
9.38927
9.39504
9.4092
9.43361
9.46633
9.51182
9.56677
9.62583
9.68181
9.71878
9.72095
9.68399
9.63097
9.59101
9.55629
9.57242
9.66182
9.73702
9.77641
9.78572
9.78565
9.78976
9.80701
9.8392
9.88901
9.95195
10.0311
10.1252
10.2298
10.332
10.3998
10.3929
10.3295
10.3069
10.3687
10.4059
10.3774
10.3172
10.2517
10.2003
10.1695
10.1586
10.1679
10.1969
10.2429
10.3067
10.3815
10.4655
10.5685
10.693
10.8221
10.8767
10.8296
10.6771
10.732
10.7089
10.6182
10.5365
10.4809
10.4504
10.4366
10.4384
10.4569
10.4911
10.5408
10.597
10.6482
10.6762
10.6729
10.6585
10.6641
10.7289
10.8004
10.5047
10.4526
10.4055
10.4265
10.4832
10.5455
10.5943
10.6307
10.6652
10.7034
10.75
10.8036
10.8664
10.9275
10.9745
10.9848
10.9534
10.9132
10.9309
11.0116
10.6375
10.5798
10.5856
10.6533
10.7284
10.7907
10.8328
10.8644
10.894
10.9288
10.9716
11.0274
11.0943
11.1784
11.2852
11.4091
11.5245
11.6099
11.6282
11.6197
11.2434
11.2898
11.3219
11.2907
11.2344
11.1783
11.1395
11.1208
11.1181
11.129
11.1522
11.1865
11.2346
11.2979
11.3853
11.5075
11.6545
11.8045
11.8841
11.8676
11.51
11.5732
11.5526
11.4629
11.379
11.3178
11.2829
11.266
11.2623
11.2681
11.2807
11.2978
11.3117
11.3193
11.3178