/*--------------------------------*- C++ -*----------------------------------*\
  =========                 |
  \\      /  F ield         | OpenFOAM: The Open Source CFD Toolbox
   \\    /   O peration     | Website:  https://openfoam.org
    \\  /    A nd           | Version:  6
     \\/     M anipulation  |
\*---------------------------------------------------------------------------*/
FoamFile
{
    version     2.0;
    format      ascii;
    class       surfaceScalarField;
    location    "3";
    object      phi;
}
// * * * * * * * * * * * * * * * * * * * * * * * * * * * * * * * * * * * * * //

dimensions      [0 3 -1 0 0 0 0];

internalField   nonuniform List<scalar> 
258600
(
-2.49104e-09
-7.63126e-08
2.29658e-09
-2.45319e-09
-9.44101e-08
-2.46247e-09
-1.1448e-07
-2.56694e-09
-1.31281e-07
-2.72661e-09
-1.44191e-07
-2.9559e-09
-1.53636e-07
-3.18514e-09
-1.60308e-07
-3.4351e-09
-1.64935e-07
-3.64974e-09
-1.68093e-07
-3.86147e-09
-1.70241e-07
-4.02829e-09
-1.71671e-07
-4.18661e-09
-1.72589e-07
-4.29793e-09
-1.73085e-07
-4.40204e-09
-1.73198e-07
-4.45095e-09
-1.72881e-07
-4.48448e-09
-1.72071e-07
-4.45374e-09
-1.70653e-07
-4.39996e-09
-1.6858e-07
-4.30268e-09
-1.65934e-07
-1.636e-07
-4.24256e-09
-3.85e-09
-7.66036e-08
3.85364e-09
-3.7113e-09
-9.4802e-08
-3.71493e-09
-1.14783e-07
-3.71732e-09
-1.31476e-07
-3.85041e-09
-1.44281e-07
-3.97651e-09
-1.53642e-07
-4.18444e-09
-1.60255e-07
-4.3567e-09
-1.64851e-07
-4.56725e-09
-1.67995e-07
-4.72461e-09
-1.70143e-07
-4.89894e-09
-1.71581e-07
-5.01572e-09
-1.72515e-07
-5.14348e-09
-1.73028e-07
-5.20632e-09
-1.7316e-07
-5.27675e-09
-1.72868e-07
-5.27791e-09
-1.72083e-07
-5.27754e-09
-1.70695e-07
-5.21185e-09
-1.68646e-07
-5.16746e-09
-1.66013e-07
-1.63652e-07
-5.09755e-09
-5.84802e-09
-7.72182e-08
6.00976e-09
-5.60771e-09
-9.52561e-08
-5.69623e-09
-1.15097e-07
-5.65564e-09
-1.31698e-07
-5.80725e-09
-1.44439e-07
-5.83319e-09
-1.53742e-07
-6.01086e-09
-1.60314e-07
-6.07196e-09
-1.64876e-07
-6.25011e-09
-1.68003e-07
-6.31446e-09
-1.70141e-07
-6.47022e-09
-1.71578e-07
-6.51627e-09
-1.72514e-07
-6.63479e-09
-1.73035e-07
-6.65499e-09
-1.73179e-07
-6.73293e-09
-1.72897e-07
-6.72012e-09
-1.72126e-07
-6.76564e-09
-1.70747e-07
-6.72328e-09
-1.68705e-07
-6.75924e-09
-1.66075e-07
-1.63722e-07
-6.69186e-09
-8.22156e-09
-7.75746e-08
8.36888e-09
-7.99231e-09
-9.56174e-08
-8.0492e-09
-1.15372e-07
-7.94149e-09
-1.3191e-07
-8.05951e-09
-1.44598e-07
-8.00576e-09
-1.53857e-07
-8.1472e-09
-1.60395e-07
-8.1241e-09
-1.64932e-07
-8.26901e-09
-1.68041e-07
-8.25581e-09
-1.70168e-07
-8.38915e-09
-1.716e-07
-8.37071e-09
-1.72534e-07
-8.48602e-09
-1.73056e-07
-8.45092e-09
-1.732e-07
-8.54334e-09
-1.72923e-07
-8.49082e-09
-1.72151e-07
-8.55963e-09
-1.70776e-07
-8.48536e-09
-1.68735e-07
-8.54863e-09
-1.66109e-07
-1.63754e-07
-8.44888e-09
-1.05929e-08
-7.79754e-08
1.06133e-08
-1.03523e-08
-9.59899e-08
-1.04265e-08
-1.15689e-07
-1.02744e-08
-1.32176e-07
-1.0376e-08
-1.44824e-07
-1.02602e-08
-1.54046e-07
-1.03746e-08
-1.60554e-07
-1.02848e-08
-1.65066e-07
-1.04032e-08
-1.68157e-07
-1.03274e-08
-1.7027e-07
-1.04404e-08
-1.71693e-07
-1.0368e-08
-1.7262e-07
-1.04664e-08
-1.73138e-07
-1.03937e-08
-1.73282e-07
-1.04756e-08
-1.73002e-07
-1.03947e-08
-1.72232e-07
-1.04646e-08
-1.70855e-07
-1.03669e-08
-1.68815e-07
-1.04421e-08
-1.6619e-07
-1.63839e-07
-1.03211e-08
-1.2812e-08
-7.81959e-08
1.27466e-08
-1.26714e-08
-9.62944e-08
-1.27565e-08
-1.15995e-07
-1.25883e-08
-1.32464e-07
-1.26687e-08
-1.4508e-07
-1.2509e-08
-1.54269e-07
-1.25974e-08
-1.60745e-07
-1.24574e-08
-1.6523e-07
-1.25526e-08
-1.68299e-07
-1.24279e-08
-1.70393e-07
-1.25236e-08
-1.71803e-07
-1.24067e-08
-1.72719e-07
-1.24998e-08
-1.7323e-07
-1.23824e-08
-1.73364e-07
-1.24689e-08
-1.73081e-07
-1.23498e-08
-1.72301e-07
-1.24288e-08
-1.7092e-07
-1.23002e-08
-1.68872e-07
-1.23957e-08
-1.66243e-07
-1.63884e-07
-1.2251e-08
-1.51822e-08
-7.85875e-08
1.5004e-08
-1.49828e-08
-9.67141e-08
-1.50579e-08
-1.16403e-07
-1.48389e-08
-1.32837e-07
-1.49032e-08
-1.45415e-07
-1.46989e-08
-1.54562e-07
-1.47709e-08
-1.61003e-07
-1.45906e-08
-1.65454e-07
-1.46706e-08
-1.68498e-07
-1.45092e-08
-1.70571e-07
-1.45918e-08
-1.71965e-07
-1.44422e-08
-1.72868e-07
-1.45207e-08
-1.73368e-07
-1.43805e-08
-1.73495e-07
-1.44535e-08
-1.73203e-07
-1.43151e-08
-1.72419e-07
-1.43874e-08
-1.71031e-07
-1.42402e-08
-1.68979e-07
-1.4335e-08
-1.66344e-07
-1.63985e-07
-1.41718e-08
-1.73172e-08
-7.87921e-08
1.71664e-08
-1.71437e-08
-9.69736e-08
-1.72036e-08
-1.16692e-07
-1.69775e-08
-1.33119e-07
-1.70228e-08
-1.4568e-07
-1.68057e-08
-1.54799e-07
-1.68623e-08
-1.61216e-07
-1.6666e-08
-1.65644e-07
-1.67335e-08
-1.6867e-07
-1.65534e-08
-1.70726e-07
-1.6626e-08
-1.72108e-07
-1.64557e-08
-1.72999e-07
-1.65314e-08
-1.73492e-07
-1.63644e-08
-1.73607e-07
-1.64403e-08
-1.73309e-07
-1.62758e-08
-1.72515e-07
-1.63523e-08
-1.7112e-07
-1.6182e-08
-1.69056e-07
-1.6288e-08
-1.66414e-07
-1.64045e-07
-1.61061e-08
-1.93381e-08
-7.88188e-08
1.92034e-08
-1.92338e-08
-9.71075e-08
-1.92676e-08
-1.16892e-07
-1.90587e-08
-1.33345e-07
-1.90768e-08
-1.45904e-07
-1.88646e-08
-1.55013e-07
-1.89011e-08
-1.61417e-07
-1.87036e-08
-1.65832e-07
-1.87558e-08
-1.68847e-07
-1.85698e-08
-1.70893e-07
-1.86298e-08
-1.72266e-07
-1.84501e-08
-1.7315e-07
-1.85109e-08
-1.73635e-07
-1.83378e-08
-1.73747e-07
-1.83983e-08
-1.73441e-07
-1.82263e-08
-1.72643e-07
-1.82921e-08
-1.71241e-07
-1.81123e-08
-1.69172e-07
-1.82107e-08
-1.66522e-07
-1.6415e-07
-1.8018e-08
-2.15748e-08
-7.89416e-08
2.15642e-08
-2.13998e-08
-9.72621e-08
-2.13732e-08
-1.17086e-07
-2.11484e-08
-1.3355e-07
-2.11315e-08
-1.46104e-07
-2.09151e-08
-1.55204e-07
-2.09276e-08
-1.61595e-07
-2.07271e-08
-1.65997e-07
-2.07621e-08
-1.69001e-07
-2.05711e-08
-1.71038e-07
-2.06183e-08
-1.72403e-07
-2.04307e-08
-1.7328e-07
-2.04858e-08
-1.7376e-07
-2.02969e-08
-1.73862e-07
-2.03568e-08
-1.73551e-07
-2.01675e-08
-1.72742e-07
-2.02332e-08
-1.71333e-07
-2.00378e-08
-1.69252e-07
-2.01424e-08
-1.66591e-07
-1.64208e-07
-1.99388e-08
-2.37602e-08
-7.90256e-08
2.37664e-08
-2.35821e-08
-9.74404e-08
-2.35022e-08
-1.17315e-07
-2.32546e-08
-1.33792e-07
-2.31963e-08
-1.46338e-07
-2.29664e-08
-1.55423e-07
-2.29513e-08
-1.61797e-07
-2.2744e-08
-1.66185e-07
-2.27592e-08
-1.69176e-07
-2.25633e-08
-1.71202e-07
-2.25946e-08
-1.72558e-07
-2.24014e-08
-1.73427e-07
-2.2439e-08
-1.73899e-07
-2.22484e-08
-1.73997e-07
-2.22902e-08
-1.73678e-07
-2.20979e-08
-1.72864e-07
-2.21497e-08
-1.71445e-07
-2.19497e-08
-1.69356e-07
-2.20435e-08
-1.66684e-07
-1.64295e-07
-2.18358e-08
-2.59967e-08
-7.91882e-08
2.60976e-08
-2.57344e-08
-9.76255e-08
-2.56058e-08
-1.1753e-07
-2.53286e-08
-1.34009e-07
-2.52393e-08
-1.46546e-07
-2.49973e-08
-1.55615e-07
-2.49602e-08
-1.61974e-07
-2.47468e-08
-1.66346e-07
-2.47446e-08
-1.69325e-07
-2.45433e-08
-1.71341e-07
-2.456e-08
-1.72689e-07
-2.43602e-08
-1.7355e-07
-2.43894e-08
-1.74015e-07
-2.41855e-08
-1.74103e-07
-2.42234e-08
-1.73777e-07
-2.40167e-08
-1.72951e-07
-2.4065e-08
-1.71522e-07
-2.38532e-08
-1.69417e-07
-2.39494e-08
-1.66729e-07
-1.64326e-07
-2.37358e-08
-2.79676e-08
-7.91731e-08
2.80742e-08
-2.777e-08
-9.76957e-08
-2.76337e-08
-1.17676e-07
-2.73713e-08
-1.34188e-07
-2.72585e-08
-1.46732e-07
-2.70188e-08
-1.55796e-07
-2.6958e-08
-1.62145e-07
-2.67433e-08
-1.66508e-07
-2.67196e-08
-1.69477e-07
-2.65152e-08
-1.71485e-07
-2.65124e-08
-1.72825e-07
-2.63084e-08
-1.73679e-07
-2.6316e-08
-1.74136e-07
-2.6112e-08
-1.74219e-07
-2.61277e-08
-1.73883e-07
-2.59201e-08
-1.7305e-07
-2.59505e-08
-1.71609e-07
-2.57371e-08
-1.69492e-07
-2.58181e-08
-1.66786e-07
-1.64373e-07
-2.56057e-08
-3.00311e-08
-7.91619e-08
3.0133e-08
-2.98518e-08
-9.77733e-08
-2.96956e-08
-1.1783e-07
-2.9431e-08
-1.34372e-07
-2.92927e-08
-1.46919e-07
-2.90456e-08
-1.55975e-07
-2.89596e-08
-1.6231e-07
-2.87366e-08
-1.6666e-07
-2.869e-08
-1.69616e-07
-2.84774e-08
-1.71613e-07
-2.84546e-08
-1.72943e-07
-2.82424e-08
-1.73788e-07
-2.82365e-08
-1.74237e-07
-2.80187e-08
-1.74308e-07
-2.80259e-08
-1.73963e-07
-2.78048e-08
-1.73115e-07
-2.7827e-08
-1.71661e-07
-2.7604e-08
-1.69525e-07
-2.76821e-08
-1.66797e-07
-1.64364e-07
-2.74671e-08
-3.21253e-08
-7.92625e-08
3.21608e-08
-3.19281e-08
-9.79416e-08
-3.17563e-08
-1.18059e-07
-3.14773e-08
-1.34616e-07
-3.13171e-08
-1.47154e-07
-3.10578e-08
-1.56192e-07
-3.09476e-08
-1.62507e-07
-3.07146e-08
-1.66838e-07
-3.06437e-08
-1.69778e-07
-3.04234e-08
-1.71761e-07
-3.03767e-08
-1.7308e-07
-3.01583e-08
-1.73913e-07
-3.01251e-08
-1.74352e-07
-2.99083e-08
-1.74415e-07
-2.98865e-08
-1.74059e-07
-2.96671e-08
-1.73201e-07
-2.96641e-08
-1.71732e-07
-2.94438e-08
-1.69581e-07
-2.94965e-08
-1.6683e-07
-1.64384e-07
-2.92872e-08
-3.40889e-08
-7.93287e-08
3.4103e-08
-3.39164e-08
-9.80922e-08
-3.37395e-08
-1.18274e-07
-3.3463e-08
-1.34846e-07
-3.32902e-08
-1.47376e-07
-3.30281e-08
-1.56396e-07
-3.29001e-08
-1.62692e-07
-3.26619e-08
-1.67004e-07
-3.25702e-08
-1.69929e-07
-3.23434e-08
-1.71897e-07
-3.22747e-08
-1.73205e-07
-3.20497e-08
-1.74027e-07
-3.19992e-08
-1.74457e-07
-3.17694e-08
-1.74506e-07
-3.17342e-08
-1.7414e-07
-3.15029e-08
-1.73266e-07
-3.14857e-08
-1.71783e-07
-3.12576e-08
-1.69608e-07
-3.12986e-08
-1.66832e-07
-1.64363e-07
-3.1089e-08
-3.60393e-08
-7.94278e-08
3.60783e-08
-3.58462e-08
-9.82262e-08
-3.56609e-08
-1.18465e-07
-3.53966e-08
-1.35055e-07
-3.52141e-08
-1.47586e-07
-3.49623e-08
-1.56597e-07
-3.48164e-08
-1.62882e-07
-3.45828e-08
-1.67182e-07
-3.44669e-08
-1.70096e-07
-3.42415e-08
-1.72055e-07
-3.4145e-08
-1.73354e-07
-3.39201e-08
-1.74169e-07
-3.3835e-08
-1.74591e-07
-3.3612e-08
-1.74635e-07
-3.35384e-08
-1.74258e-07
-3.3315e-08
-1.73377e-07
-3.32615e-08
-1.7188e-07
-3.30428e-08
-1.6969e-07
-3.30431e-08
-1.6689e-07
-1.6441e-07
-3.28439e-08
-3.78749e-08
-7.93653e-08
3.79692e-08
-3.77531e-08
-9.82721e-08
-3.75665e-08
-1.18599e-07
-3.73304e-08
-1.35229e-07
-3.71339e-08
-1.47772e-07
-3.68933e-08
-1.56782e-07
-3.67254e-08
-1.63061e-07
-3.64941e-08
-1.67354e-07
-3.63518e-08
-1.70261e-07
-3.61247e-08
-1.72212e-07
-3.59998e-08
-1.73506e-07
-3.57717e-08
-1.74313e-07
-3.56627e-08
-1.74729e-07
-3.54295e-08
-1.74762e-07
-3.53356e-08
-1.74379e-07
-3.5103e-08
-1.73482e-07
-3.50282e-08
-1.71973e-07
-3.48047e-08
-1.69762e-07
-3.47824e-08
-1.66938e-07
-1.64433e-07
-3.45836e-08
-4.00054e-08
-7.95383e-08
4.01374e-08
-3.98077e-08
-9.8482e-08
-3.95754e-08
-1.18847e-07
-3.93227e-08
-1.35488e-07
-3.90938e-08
-1.48027e-07
-3.88469e-08
-1.57029e-07
-3.86455e-08
-1.63297e-07
-3.84108e-08
-1.6758e-07
-3.82333e-08
-1.70477e-07
-3.80048e-08
-1.72422e-07
-3.78432e-08
-1.73708e-07
-3.76158e-08
-1.74511e-07
-3.74636e-08
-1.7492e-07
-3.72398e-08
-1.7495e-07
-3.70986e-08
-1.74559e-07
-3.68784e-08
-1.73658e-07
-3.67577e-08
-1.72137e-07
-3.65478e-08
-1.69915e-07
-3.64708e-08
-1.67071e-07
-1.64558e-07
-3.62839e-08
-4.21429e-08
-7.97818e-08
4.23041e-08
-4.19034e-08
-9.87737e-08
-4.16232e-08
-1.19158e-07
-4.13427e-08
-1.35797e-07
-4.10746e-08
-1.48323e-07
-4.08108e-08
-1.57307e-07
-4.05744e-08
-1.6356e-07
-4.03294e-08
-1.67828e-07
-4.01172e-08
-1.70715e-07
-3.98814e-08
-1.72649e-07
-3.96848e-08
-1.73929e-07
-3.94521e-08
-1.74724e-07
-3.92701e-08
-1.75129e-07
-3.90357e-08
-1.75149e-07
-3.88686e-08
-1.74752e-07
-3.86394e-08
-1.73839e-07
-3.8491e-08
-1.72308e-07
-3.82768e-08
-1.70067e-07
-3.81685e-08
-1.67203e-07
-1.6467e-07
-3.79806e-08
-4.42521e-08
-8.01074e-08
4.44346e-08
-4.39613e-08
-9.91137e-08
-4.36419e-08
-1.1951e-07
-4.33445e-08
-1.36145e-07
-4.3041e-08
-1.48662e-07
-4.27691e-08
-1.57633e-07
-4.24964e-08
-1.63872e-07
-4.22468e-08
-1.68128e-07
-4.19959e-08
-1.71006e-07
-4.1758e-08
-1.72934e-07
-4.15208e-08
-1.74207e-07
-4.12883e-08
-1.74998e-07
-4.10592e-08
-1.75398e-07
-4.08343e-08
-1.75417e-07
-4.06155e-08
-1.75014e-07
-4.03989e-08
-1.74098e-07
-4.01995e-08
-1.72559e-07
-3.99991e-08
-1.70311e-07
-3.98286e-08
-1.67433e-07
-1.64895e-07
-3.96508e-08
-4.62168e-08
-8.02587e-08
4.6438e-08
-4.59783e-08
-9.93665e-08
-4.56328e-08
-1.19817e-07
-4.53399e-08
-1.36472e-07
-4.50015e-08
-1.48991e-07
-4.47267e-08
-1.57955e-07
-4.44173e-08
-1.64187e-07
-4.41631e-08
-1.68436e-07
-4.38754e-08
-1.71307e-07
-4.36329e-08
-1.7323e-07
-4.33586e-08
-1.745e-07
-4.3122e-08
-1.75287e-07
-4.28604e-08
-1.75685e-07
-4.26255e-08
-1.75697e-07
-4.23779e-08
-1.75291e-07
-4.2152e-08
-1.74365e-07
-4.1922e-08
-1.72819e-07
-4.17159e-08
-1.70557e-07
-4.15096e-08
-1.67665e-07
-1.65111e-07
-4.13279e-08
-4.83437e-08
-8.05502e-08
4.8593e-08
-4.80585e-08
-9.97101e-08
-4.76621e-08
-1.20189e-07
-4.73562e-08
-1.36851e-07
-4.69757e-08
-1.49368e-07
-4.66954e-08
-1.58326e-07
-4.63448e-08
-1.64551e-07
-4.6088e-08
-1.68794e-07
-4.57592e-08
-1.71661e-07
-4.55159e-08
-1.73581e-07
-4.51999e-08
-1.7485e-07
-4.49638e-08
-1.75636e-07
-4.46547e-08
-1.76032e-07
-4.44276e-08
-1.76046e-07
-4.41284e-08
-1.75636e-07
-4.3913e-08
-1.74711e-07
-4.36313e-08
-1.73159e-07
-4.34359e-08
-1.70895e-07
-4.31665e-08
-1.67994e-07
-1.6544e-07
-4.29902e-08
-5.04805e-08
-8.08603e-08
5.07711e-08
-5.01707e-08
-1.0008e-07
-4.97208e-08
-1.2058e-07
-4.93962e-08
-1.37246e-07
-4.89714e-08
-1.49759e-07
-4.86802e-08
-1.5871e-07
-4.82903e-08
-1.64929e-07
-4.80258e-08
-1.69166e-07
-4.76591e-08
-1.72031e-07
-4.74092e-08
-1.73949e-07
-4.70552e-08
-1.75217e-07
-4.68127e-08
-1.76003e-07
-4.64701e-08
-1.76399e-07
-4.62311e-08
-1.76409e-07
-4.59017e-08
-1.75999e-07
-4.56743e-08
-1.75067e-07
-4.53611e-08
-1.73511e-07
-4.51564e-08
-1.71236e-07
-4.48502e-08
-1.68329e-07
-1.65763e-07
-4.46656e-08
-5.26132e-08
-8.12191e-08
5.29253e-08
-5.22739e-08
-1.00478e-07
-5.17809e-08
-1.20998e-07
-5.14468e-08
-1.37671e-07
-5.09818e-08
-1.50186e-07
-5.06845e-08
-1.59136e-07
-5.02543e-08
-1.65353e-07
-4.99845e-08
-1.6959e-07
-4.95766e-08
-1.72454e-07
-4.93216e-08
-1.74373e-07
-4.8926e-08
-1.75642e-07
-4.8679e-08
-1.7643e-07
-4.82901e-08
-1.76827e-07
-4.80528e-08
-1.7684e-07
-4.76738e-08
-1.76428e-07
-4.74502e-08
-1.75498e-07
-4.70878e-08
-1.73939e-07
-4.68868e-08
-1.71664e-07
-4.65219e-08
-1.68753e-07
-1.66189e-07
-4.63361e-08
-5.47237e-08
-8.14846e-08
5.50838e-08
-5.44043e-08
-1.00851e-07
-5.38711e-08
-1.21414e-07
-5.35288e-08
-1.38108e-07
-5.30227e-08
-1.50629e-07
-5.27147e-08
-1.59581e-07
-5.22457e-08
-1.65797e-07
-5.19643e-08
-1.70034e-07
-5.15182e-08
-1.72899e-07
-5.1251e-08
-1.74818e-07
-5.08173e-08
-1.76089e-07
-5.05579e-08
-1.76878e-07
-5.01348e-08
-1.77276e-07
-4.98804e-08
-1.77287e-07
-4.94705e-08
-1.76875e-07
-4.92299e-08
-1.75939e-07
-4.88357e-08
-1.74377e-07
-4.86204e-08
-1.72095e-07
-4.82208e-08
-1.69181e-07
-1.66608e-07
-4.80224e-08
-5.69412e-08
-8.19145e-08
5.7341e-08
-5.65647e-08
-1.01334e-07
-5.59902e-08
-1.2191e-07
-5.56303e-08
-1.38611e-07
-5.50899e-08
-1.51134e-07
-5.4768e-08
-1.60085e-07
-5.42619e-08
-1.663e-07
-5.39664e-08
-1.70536e-07
-5.34816e-08
-1.734e-07
-5.32005e-08
-1.75321e-07
-5.27273e-08
-1.76592e-07
-5.24544e-08
-1.77382e-07
-5.19885e-08
-1.7778e-07
-5.17257e-08
-1.77793e-07
-5.12709e-08
-1.77378e-07
-5.10238e-08
-1.76443e-07
-5.05858e-08
-1.74877e-07
-5.03649e-08
-1.72594e-07
-4.99162e-08
-1.69679e-07
-1.67107e-07
-4.97103e-08
-5.92031e-08
-8.23927e-08
5.96553e-08
-5.87831e-08
-1.01874e-07
-5.8162e-08
-1.22454e-07
-5.77723e-08
-1.39154e-07
-5.71938e-08
-1.51673e-07
-5.68479e-08
-1.6062e-07
-5.63057e-08
-1.6683e-07
-5.59882e-08
-1.71063e-07
-5.54673e-08
-1.73925e-07
-5.51649e-08
-1.75844e-07
-5.46553e-08
-1.77114e-07
-5.4362e-08
-1.77904e-07
-5.38624e-08
-1.78301e-07
-5.35764e-08
-1.7831e-07
-5.30906e-08
-1.77893e-07
-5.28212e-08
-1.76952e-07
-5.23525e-08
-1.75381e-07
-5.21124e-08
-1.73091e-07
-5.16337e-08
-1.70172e-07
-1.67591e-07
-5.14127e-08
-6.14241e-08
-8.2913e-08
6.18723e-08
-6.09844e-08
-1.02449e-07
-6.03359e-08
-1.23033e-07
-5.99249e-08
-1.39735e-07
-5.93142e-08
-1.52252e-07
-5.89451e-08
-1.61196e-07
-5.83677e-08
-1.67402e-07
-5.80264e-08
-1.71631e-07
-5.7469e-08
-1.7449e-07
-5.71433e-08
-1.76407e-07
-5.65971e-08
-1.77676e-07
-5.62812e-08
-1.78463e-07
-5.57435e-08
-1.78858e-07
-5.54387e-08
-1.78866e-07
-5.49139e-08
-1.78444e-07
-5.46274e-08
-1.77499e-07
-5.41216e-08
-1.75922e-07
-5.38661e-08
-1.73627e-07
-5.33505e-08
-1.70703e-07
-1.68118e-07
-5.31169e-08
-6.36541e-08
-8.33872e-08
6.41105e-08
-6.32133e-08
-1.03e-07
-6.25347e-08
-1.23604e-07
-6.21001e-08
-1.40316e-07
-6.14528e-08
-1.52836e-07
-6.10571e-08
-1.61778e-07
-6.04434e-08
-1.67982e-07
-6.00752e-08
-1.72208e-07
-5.94821e-08
-1.75064e-07
-5.91297e-08
-1.76979e-07
-5.85483e-08
-1.78245e-07
-5.82063e-08
-1.7903e-07
-5.76357e-08
-1.79421e-07
-5.73032e-08
-1.79425e-07
-5.67476e-08
-1.78999e-07
-5.64341e-08
-1.78047e-07
-5.58985e-08
-1.76461e-07
-5.56194e-08
-1.74156e-07
-5.50782e-08
-1.71224e-07
-1.68628e-07
-5.48274e-08
-6.58889e-08
-8.38426e-08
6.63412e-08
-6.54475e-08
-1.03539e-07
-6.47396e-08
-1.24177e-07
-6.42837e-08
-1.40907e-07
-6.35994e-08
-1.53434e-07
-6.31773e-08
-1.62378e-07
-6.25262e-08
-1.68581e-07
-6.21307e-08
-1.72805e-07
-6.15013e-08
-1.75658e-07
-6.11211e-08
-1.77571e-07
-6.05047e-08
-1.78834e-07
-6.01343e-08
-1.79617e-07
-5.95287e-08
-1.80005e-07
-5.91696e-08
-1.80005e-07
-5.85796e-08
-1.79572e-07
-5.82403e-08
-1.78613e-07
-5.7673e-08
-1.77018e-07
-5.73702e-08
-1.74703e-07
-5.6801e-08
-1.7176e-07
-1.69153e-07
-5.65316e-08
-6.81393e-08
-8.42781e-08
6.86089e-08
-6.76917e-08
-1.04066e-07
-6.69544e-08
-1.24749e-07
-6.64745e-08
-1.41502e-07
-6.57541e-08
-1.5404e-07
-6.53035e-08
-1.62987e-07
-6.4616e-08
-1.69189e-07
-6.41906e-08
-1.73411e-07
-6.35256e-08
-1.76262e-07
-6.31149e-08
-1.78172e-07
-6.24634e-08
-1.79433e-07
-6.20624e-08
-1.80212e-07
-6.14231e-08
-1.80596e-07
-6.10326e-08
-1.8059e-07
-6.04111e-08
-1.80151e-07
-6.00413e-08
-1.79183e-07
-5.94439e-08
-1.77576e-07
-5.91134e-08
-1.75248e-07
-5.85196e-08
-1.7229e-07
-1.69668e-07
-5.82283e-08
-7.03841e-08
-8.47152e-08
7.08572e-08
-6.99307e-08
-1.04593e-07
-6.91708e-08
-1.25328e-07
-6.86687e-08
-1.42111e-07
-6.79153e-08
-1.54663e-07
-6.74355e-08
-1.63615e-07
-6.67121e-08
-1.69817e-07
-6.62551e-08
-1.74038e-07
-6.55538e-08
-1.76886e-07
-6.51101e-08
-1.78794e-07
-6.44233e-08
-1.80051e-07
-6.39884e-08
-1.80827e-07
-6.33147e-08
-1.81206e-07
-6.28908e-08
-1.81194e-07
-6.22363e-08
-1.80747e-07
-6.18336e-08
-1.79769e-07
-6.1206e-08
-1.7815e-07
-6.08441e-08
-1.75807e-07
-6.02251e-08
-1.72832e-07
-1.70193e-07
-5.99081e-08
-7.26758e-08
-8.51486e-08
7.31663e-08
-7.22047e-08
-1.05124e-07
-7.14147e-08
-1.25921e-07
-7.08812e-08
-1.42738e-07
-7.00913e-08
-1.55306e-07
-6.95769e-08
-1.64264e-07
-6.8816e-08
-1.70467e-07
-6.83231e-08
-1.74685e-07
-6.75846e-08
-1.77531e-07
-6.71047e-08
-1.79436e-07
-6.63812e-08
-1.8069e-07
-6.59105e-08
-1.81461e-07
-6.52015e-08
-1.81834e-07
-6.47415e-08
-1.81816e-07
-6.40532e-08
-1.81359e-07
-6.36152e-08
-1.80371e-07
-6.29551e-08
-1.78738e-07
-6.25603e-08
-1.76378e-07
-6.1914e-08
-1.73382e-07
-1.70725e-07
-6.15687e-08
-7.49791e-08
-8.55818e-08
7.54767e-08
-7.44902e-08
-1.05665e-07
-7.36693e-08
-1.26534e-07
-7.31028e-08
-1.4339e-07
-7.22755e-08
-1.55977e-07
-7.17238e-08
-1.64943e-07
-7.0924e-08
-1.71146e-07
-7.03924e-08
-1.75363e-07
-6.96155e-08
-1.78206e-07
-6.90964e-08
-1.80107e-07
-6.83359e-08
-1.81356e-07
-6.78253e-08
-1.82123e-07
-6.70804e-08
-1.8249e-07
-6.65808e-08
-1.82464e-07
-6.58579e-08
-1.81998e-07
-6.53803e-08
-1.80997e-07
-6.46882e-08
-1.79349e-07
-6.42552e-08
-1.7697e-07
-6.35821e-08
-1.73951e-07
-1.71272e-07
-6.32032e-08
-7.72971e-08
-8.60319e-08
7.78218e-08
-7.67818e-08
-1.06228e-07
-7.59284e-08
-1.27173e-07
-7.53268e-08
-1.44072e-07
-7.44623e-08
-1.56679e-07
-7.38717e-08
-1.65654e-07
-7.3033e-08
-1.71859e-07
-7.24602e-08
-1.76075e-07
-7.16438e-08
-1.78914e-07
-7.10831e-08
-1.80811e-07
-7.02833e-08
-1.82055e-07
-6.97314e-08
-1.82817e-07
-6.8948e-08
-1.83177e-07
-6.84071e-08
-1.83142e-07
-6.76467e-08
-1.82666e-07
-6.71285e-08
-1.81652e-07
-6.64004e-08
-1.79988e-07
-6.59291e-08
-1.77588e-07
-6.52244e-08
-1.74544e-07
-1.71844e-07
-6.481e-08
-7.96009e-08
-8.65053e-08
8.01383e-08
-7.90632e-08
-1.06812e-07
-7.81844e-08
-1.27839e-07
-7.75494e-08
-1.44785e-07
-7.66504e-08
-1.57416e-07
-7.60194e-08
-1.66401e-07
-7.51418e-08
-1.72609e-07
-7.45258e-08
-1.76824e-07
-7.3669e-08
-1.79661e-07
-7.30631e-08
-1.81553e-07
-7.22231e-08
-1.82792e-07
-7.1625e-08
-1.83547e-07
-7.08024e-08
-1.839e-07
-7.02157e-08
-1.83857e-07
-6.94176e-08
-1.83369e-07
-6.8854e-08
-1.82341e-07
-6.80911e-08
-1.80659e-07
-6.75753e-08
-1.78237e-07
-6.68398e-08
-1.75166e-07
-1.72441e-07
-6.63843e-08
-8.19495e-08
-8.69953e-08
8.25136e-08
-8.13797e-08
-1.07422e-07
-8.04648e-08
-1.28536e-07
-7.97882e-08
-1.45533e-07
-7.88482e-08
-1.58191e-07
-7.8172e-08
-1.67189e-07
-7.72517e-08
-1.73401e-07
-7.65888e-08
-1.77616e-07
-7.56889e-08
-1.80449e-07
-7.50354e-08
-1.82338e-07
-7.41518e-08
-1.83572e-07
-7.35065e-08
-1.84321e-07
-7.26409e-08
-1.84666e-07
-7.2007e-08
-1.84613e-07
-7.11672e-08
-1.84112e-07
-7.05579e-08
-1.83069e-07
-6.97543e-08
-1.81368e-07
-6.91945e-08
-1.78924e-07
-6.84222e-08
-1.75825e-07
-1.73074e-07
-6.79247e-08
-8.43063e-08
-8.74986e-08
8.48837e-08
-8.37069e-08
-1.08056e-07
-8.27549e-08
-1.29268e-07
-8.20345e-08
-1.46321e-07
-8.10507e-08
-1.59009e-07
-8.0326e-08
-1.68021e-07
-7.93602e-08
-1.74239e-07
-7.8647e-08
-1.78454e-07
-7.77013e-08
-1.81285e-07
-7.69965e-08
-1.83169e-07
-7.60682e-08
-1.84398e-07
-7.53707e-08
-1.85139e-07
-7.44614e-08
-1.85476e-07
-7.3776e-08
-1.85412e-07
-7.28939e-08
-1.84899e-07
-7.22331e-08
-1.8384e-07
-7.13901e-08
-1.82119e-07
-7.07794e-08
-1.79649e-07
-6.99718e-08
-1.7652e-07
-1.73741e-07
-6.94266e-08
-8.66769e-08
-8.80271e-08
8.72873e-08
-8.60427e-08
-1.08725e-07
-8.505e-08
-1.30039e-07
-8.42838e-08
-1.47153e-07
-8.32541e-08
-1.59874e-07
-8.24788e-08
-1.68902e-07
-8.1465e-08
-1.75126e-07
-8.06987e-08
-1.79342e-07
-7.97044e-08
-1.82171e-07
-7.89459e-08
-1.84051e-07
-7.79688e-08
-1.85274e-07
-7.7218e-08
-1.86009e-07
-7.62607e-08
-1.86336e-07
-7.55222e-08
-1.86262e-07
-7.45933e-08
-1.85735e-07
-7.38808e-08
-1.84659e-07
-7.29919e-08
-1.82916e-07
-7.23315e-08
-1.80421e-07
-7.14819e-08
-1.77261e-07
-1.74453e-07
-7.08887e-08
-8.9039e-08
-8.85902e-08
8.96658e-08
-8.83715e-08
-1.09427e-07
-8.73441e-08
-1.3085e-07
-8.65324e-08
-1.4803e-07
-8.54577e-08
-1.60788e-07
-8.46292e-08
-1.69835e-07
-8.35658e-08
-1.76067e-07
-8.27431e-08
-1.80285e-07
-8.16978e-08
-1.83111e-07
-8.08813e-08
-1.84988e-07
-7.98538e-08
-1.86204e-07
-7.90442e-08
-1.86931e-07
-7.80374e-08
-1.87249e-07
-7.72408e-08
-1.87163e-07
-7.62641e-08
-1.86622e-07
-7.54938e-08
-1.85527e-07
-7.45603e-08
-1.83763e-07
-7.38429e-08
-1.81239e-07
-7.29529e-08
-1.78046e-07
-1.75207e-07
-7.23059e-08
-9.14446e-08
-8.91743e-08
9.21051e-08
-9.07355e-08
-1.10164e-07
-8.96612e-08
-1.31706e-07
-8.87951e-08
-1.48957e-07
-8.76677e-08
-1.61755e-07
-8.67807e-08
-1.70823e-07
-8.56627e-08
-1.77064e-07
-8.47795e-08
-1.81284e-07
-8.36791e-08
-1.8411e-07
-8.28018e-08
-1.85982e-07
-8.1719e-08
-1.87192e-07
-8.08492e-08
-1.87912e-07
-7.97882e-08
-1.8822e-07
-7.89317e-08
-1.88121e-07
-7.79021e-08
-1.87564e-07
-7.70737e-08
-1.86451e-07
-7.60885e-08
-1.84662e-07
-7.53152e-08
-1.82111e-07
-7.43776e-08
-1.78883e-07
-1.76012e-07
-7.36769e-08
-9.38612e-08
-8.97874e-08
9.45453e-08
-9.31073e-08
-1.10942e-07
-9.19838e-08
-1.3261e-07
-9.10604e-08
-1.49938e-07
-8.98774e-08
-1.6278e-07
-8.89282e-08
-1.71871e-07
-8.77524e-08
-1.78122e-07
-8.68051e-08
-1.82346e-07
-8.56466e-08
-1.8517e-07
-8.47039e-08
-1.87038e-07
-8.3564e-08
-1.88242e-07
-8.26281e-08
-1.88953e-07
-8.1511e-08
-1.89251e-07
-8.05895e-08
-1.89139e-07
-7.95056e-08
-1.88566e-07
-7.86126e-08
-1.87432e-07
-7.75766e-08
-1.85619e-07
-7.67399e-08
-1.83036e-07
-7.5756e-08
-1.79772e-07
-1.76865e-07
-7.49953e-08
-9.62835e-08
-9.04403e-08
9.7019e-08
-9.54801e-08
-1.1177e-07
-9.43038e-08
-1.33568e-07
-9.3322e-08
-1.50976e-07
-9.20814e-08
-1.63865e-07
-9.10681e-08
-1.72981e-07
-8.98318e-08
-1.79245e-07
-8.88173e-08
-1.83473e-07
-8.75971e-08
-1.86296e-07
-8.65863e-08
-1.8816e-07
-8.53842e-08
-1.89358e-07
-8.43809e-08
-1.9006e-07
-8.32026e-08
-1.90346e-07
-8.22139e-08
-1.90221e-07
-8.10703e-08
-1.8963e-07
-8.01122e-08
-1.88475e-07
-7.90177e-08
-1.86635e-07
-7.81185e-08
-1.84021e-07
-7.70808e-08
-1.80718e-07
-1.77775e-07
-7.626e-08
-9.86946e-08
-9.11553e-08
9.94653e-08
-9.78396e-08
-1.12651e-07
-9.66176e-08
-1.34581e-07
-9.55773e-08
-1.52074e-07
-9.42808e-08
-1.65013e-07
-9.32004e-08
-1.74158e-07
-9.19019e-08
-1.80436e-07
-9.0816e-08
-1.84669e-07
-8.95311e-08
-1.87492e-07
-8.8447e-08
-1.89353e-07
-8.71805e-08
-1.90544e-07
-8.6103e-08
-1.91237e-07
-8.48611e-08
-1.91511e-07
-8.37997e-08
-1.91371e-07
-8.25942e-08
-1.90761e-07
-8.1564e-08
-1.89584e-07
-8.04116e-08
-1.87716e-07
-7.94417e-08
-1.85067e-07
-7.8351e-08
-1.81724e-07
-1.78741e-07
-7.74636e-08
-1.01144e-07
-9.1905e-08
1.01967e-07
-1.00234e-07
-1.13581e-07
-9.8954e-08
-1.35651e-07
-9.78467e-08
-1.53233e-07
-9.64851e-08
-1.66228e-07
-9.53317e-08
-1.75404e-07
-9.39644e-08
-1.81698e-07
-9.28023e-08
-1.85938e-07
-9.14471e-08
-1.88761e-07
-9.0286e-08
-1.90618e-07
-8.89487e-08
-1.91802e-07
-8.77951e-08
-1.92486e-07
-8.64837e-08
-1.92748e-07
-8.53465e-08
-1.92592e-07
-8.40733e-08
-1.91963e-07
-8.29698e-08
-1.90762e-07
-8.17511e-08
-1.88864e-07
-8.07112e-08
-1.8618e-07
-7.95594e-08
-1.82794e-07
-1.79771e-07
-7.86051e-08
-1.03611e-07
-9.26971e-08
1.04467e-07
-1.02643e-07
-1.14563e-07
-1.01302e-07
-1.36782e-07
-1.00123e-07
-1.54461e-07
-9.86912e-08
-1.67515e-07
-9.74592e-08
-1.76725e-07
-9.6018e-08
-1.83037e-07
-9.47744e-08
-1.87285e-07
-9.33444e-08
-1.9011e-07
-9.21004e-08
-1.91964e-07
-9.0689e-08
-1.93141e-07
-8.94519e-08
-1.93814e-07
-8.80674e-08
-1.94063e-07
-8.68486e-08
-1.93891e-07
-8.55044e-08
-1.93241e-07
-8.43204e-08
-1.92014e-07
-8.30351e-08
-1.90086e-07
-8.19166e-08
-1.87363e-07
-8.07036e-08
-1.83932e-07
-1.80865e-07
-7.96754e-08
-1.06083e-07
-9.35248e-08
1.06994e-07
-1.05059e-07
-1.156e-07
-1.03653e-07
-1.37977e-07
-1.024e-07
-1.55759e-07
-1.00894e-07
-1.68876e-07
-9.95798e-08
-1.78125e-07
-9.80597e-08
-1.84457e-07
-9.673e-08
-1.88714e-07
-9.52194e-08
-1.91541e-07
-9.38885e-08
-1.93391e-07
-9.23961e-08
-1.94561e-07
-9.10731e-08
-1.95225e-07
-8.96092e-08
-1.9546e-07
-8.8305e-08
-1.9527e-07
-8.68835e-08
-1.94598e-07
-8.5617e-08
-1.93345e-07
-8.42562e-08
-1.91383e-07
-8.30591e-08
-1.8862e-07
-8.17765e-08
-1.85142e-07
-1.82028e-07
-8.06735e-08
-1.0856e-07
-9.44203e-08
1.09512e-07
-1.07473e-07
-1.16701e-07
-1.06005e-07
-1.39243e-07
-1.04675e-07
-1.57134e-07
-1.03093e-07
-1.70321e-07
-1.01692e-07
-1.7961e-07
-1.00089e-07
-1.85965e-07
-9.86677e-08
-1.90233e-07
-9.70717e-08
-1.93062e-07
-9.56473e-08
-1.9491e-07
-9.40701e-08
-1.96072e-07
-9.26531e-08
-1.96725e-07
-9.11053e-08
-1.96945e-07
-8.97094e-08
-1.96737e-07
-8.82063e-08
-1.96042e-07
-8.68496e-08
-1.9476e-07
-8.54121e-08
-1.92763e-07
-8.41274e-08
-1.89958e-07
-8.2774e-08
-1.8643e-07
-1.83266e-07
-8.1589e-08
-1.11067e-07
-9.53548e-08
1.1208e-07
-1.09914e-07
-1.17862e-07
-1.08374e-07
-1.40579e-07
-1.0696e-07
-1.58588e-07
-1.05293e-07
-1.71849e-07
-1.03799e-07
-1.81184e-07
-1.02105e-07
-1.87564e-07
-1.00586e-07
-1.91844e-07
-9.88983e-08
-1.94676e-07
-9.73753e-08
-1.96521e-07
-9.57054e-08
-1.97677e-07
-9.41911e-08
-1.98318e-07
-9.25524e-08
-1.98523e-07
-9.10599e-08
-1.98295e-07
-8.94685e-08
-1.97576e-07
-8.80186e-08
-1.96263e-07
-8.64951e-08
-1.94229e-07
-8.51218e-08
-1.91379e-07
-8.3689e-08
-1.87798e-07
-1.84581e-07
-8.24203e-08
-1.13599e-07
-9.63563e-08
1.14662e-07
-1.1237e-07
-1.19097e-07
-1.10752e-07
-1.41998e-07
-1.09247e-07
-1.6013e-07
-1.07491e-07
-1.73472e-07
-1.05896e-07
-1.82856e-07
-1.04107e-07
-1.89264e-07
-1.02484e-07
-1.93557e-07
-1.00698e-07
-1.96394e-07
-9.9069e-08
-1.98236e-07
-9.73015e-08
-1.99384e-07
-9.56811e-08
-2.00013e-07
-9.39459e-08
-2.00202e-07
-9.23501e-08
-1.99953e-07
-9.06646e-08
-1.99208e-07
-8.91136e-08
-1.97863e-07
-8.75015e-08
-1.9579e-07
-8.60303e-08
-1.92892e-07
-8.45156e-08
-1.89255e-07
-1.85982e-07
-8.31554e-08
-1.16141e-07
-9.7412e-08
1.17282e-07
-1.14837e-07
-1.20406e-07
-1.13134e-07
-1.43499e-07
-1.11535e-07
-1.61764e-07
-1.09683e-07
-1.7519e-07
-1.07983e-07
-1.84627e-07
-1.06092e-07
-1.91065e-07
-1.04358e-07
-1.95375e-07
-1.02467e-07
-1.98217e-07
-1.00726e-07
-2.00057e-07
-9.88526e-08
-2.01197e-07
-9.71219e-08
-2.01814e-07
-9.52825e-08
-2.01985e-07
-9.35771e-08
-2.01714e-07
-9.17906e-08
-2.00942e-07
-9.01338e-08
-1.99563e-07
-8.84235e-08
-1.97447e-07
-8.68522e-08
-1.94499e-07
-8.52467e-08
-1.90802e-07
-1.87469e-07
-8.37925e-08
-1.18703e-07
-9.85649e-08
1.19907e-07
-1.17309e-07
-1.21805e-07
-1.15523e-07
-1.45096e-07
-1.13824e-07
-1.63497e-07
-1.11872e-07
-1.77016e-07
-1.10061e-07
-1.8651e-07
-1.0806e-07
-1.92983e-07
-1.0621e-07
-1.97309e-07
-1.04205e-07
-2.00158e-07
-1.02345e-07
-2.01996e-07
-1.00359e-07
-2.03129e-07
-9.85076e-08
-2.03732e-07
-9.65567e-08
-2.03885e-07
-9.47346e-08
-2.03591e-07
-9.28393e-08
-2.02789e-07
-9.10685e-08
-2.01373e-07
-8.92559e-08
-1.99214e-07
-8.75746e-08
-1.96212e-07
-8.58741e-08
-1.92453e-07
-1.89055e-07
-8.43176e-08
-1.21297e-07
-9.97713e-08
1.22585e-07
-1.19818e-07
-1.23283e-07
-1.17935e-07
-1.46783e-07
-1.16128e-07
-1.65332e-07
-1.14065e-07
-1.78949e-07
-1.12134e-07
-1.88506e-07
-1.10014e-07
-1.95016e-07
-1.08037e-07
-1.99362e-07
-1.0591e-07
-2.02218e-07
-1.03922e-07
-2.04056e-07
-1.01814e-07
-2.0518e-07
-9.98365e-08
-2.0577e-07
-9.77656e-08
-2.05904e-07
-9.58183e-08
-2.05584e-07
-9.38069e-08
-2.04751e-07
-9.19156e-08
-2.03297e-07
-8.99902e-08
-2.0109e-07
-8.81952e-08
-1.9803e-07
-8.63907e-08
-1.94204e-07
-1.90738e-07
-8.47281e-08
-1.23931e-07
-1.01066e-07
1.25287e-07
-1.22353e-07
-1.24856e-07
-1.20367e-07
-1.48577e-07
-1.18443e-07
-1.67282e-07
-1.1626e-07
-1.81005e-07
-1.14199e-07
-1.9063e-07
-1.11951e-07
-1.97181e-07
-1.09839e-07
-2.0155e-07
-1.07581e-07
-2.04415e-07
-1.05456e-07
-2.06252e-07
-1.03216e-07
-2.07368e-07
-1.01102e-07
-2.07943e-07
-9.89016e-08
-2.08057e-07
-9.68215e-08
-2.07711e-07
-9.46839e-08
-2.06844e-07
-9.26633e-08
-2.05349e-07
-9.06192e-08
-2.03091e-07
-8.87002e-08
-1.99971e-07
-8.67854e-08
-1.96074e-07
-1.92535e-07
-8.50077e-08
-1.26586e-07
-1.02423e-07
1.28037e-07
-1.24914e-07
-1.2652e-07
-1.22816e-07
-1.50476e-07
-1.20769e-07
-1.69349e-07
-1.18456e-07
-1.83186e-07
-1.16257e-07
-1.92885e-07
-1.1387e-07
-1.99481e-07
-1.11613e-07
-2.03874e-07
-1.09213e-07
-2.0675e-07
-1.06942e-07
-2.08586e-07
-1.0456e-07