/*--------------------------------*- C++ -*----------------------------------*\
  =========                 |
  \\      /  F ield         | OpenFOAM: The Open Source CFD Toolbox
   \\    /   O peration     | Website:  https://openfoam.org
    \\  /    A nd           | Version:  6
     \\/     M anipulation  |
\*---------------------------------------------------------------------------*/
FoamFile
{
    version     2.0;
    format      ascii;
    class       surfaceScalarField;
    location    "3";
    object      phi;
}
// * * * * * * * * * * * * * * * * * * * * * * * * * * * * * * * * * * * * * //

dimensions      [0 3 -1 0 0 0 0];

internalField   nonuniform List<scalar> 
19400
(
-2.46204e-08
-1.26915e-06
-4.48851e-08
-1.25845e-06
-4.95469e-08
-1.24304e-06
-3.94351e-08
-1.2155e-06
-2.54728e-08
-1.2287e-06
-1.49263e-08
-1.24625e-06
-8.75533e-09
-1.25366e-06
-5.97422e-09
-1.25292e-06
-5.09838e-09
-1.24913e-06
-5.1657e-09
-1.2464e-06
-5.35742e-09
-1.24656e-06
-4.46933e-09
-1.2491e-06
-1.7494e-09
-1.2518e-06
4.79882e-09
-1.25067e-06
1.60663e-08
-1.24241e-06
3.09804e-08
-1.22764e-06
4.37791e-08
-1.21916e-06
4.41689e-08
-1.23811e-06
2.8792e-08
-1.22944e-06
-1.2143e-06
-1.35685e-08
-1.25639e-06
-2.7887e-08
-1.24489e-06
-3.36281e-08
-1.23848e-06
-2.87566e-08
-1.22137e-06
-2.07908e-08
-1.23774e-06
-1.37983e-08
-1.25397e-06
-9.13215e-09
-1.259e-06
-6.43636e-09
-1.25605e-06
-5.23991e-09
-1.25073e-06
-4.82586e-09
-1.24713e-06
-4.5104e-09
-1.24699e-06
-4.31675e-09
-1.25002e-06
-2.66995e-09
-1.25382e-06
6.35371e-10
-1.25491e-06
6.5956e-09
-1.2496e-06
1.5331e-08
-1.23738e-06
2.36116e-08
-1.22841e-06
2.54883e-08
-1.24075e-06
1.95397e-08
-1.22425e-06
-1.19492e-06
-8.81271e-09
-1.24855e-06
-8.61498e-09
-1.24614e-06
-6.7381e-09
-1.2416e-06
-4.85716e-09
-1.22457e-06
-3.15879e-09
-1.24047e-06
-1.76338e-09
-1.25632e-06
-9.43703e-10
-1.2605e-06
-7.25038e-10
-1.25686e-06
-6.79268e-10
-1.25128e-06
-5.88336e-10
-1.24768e-06
-5.75055e-10
-1.24764e-06
-1.33656e-10
-1.2507e-06
1.67859e-10
-1.25474e-06
4.5882e-10
-1.25598e-06
1.75884e-09
-1.25133e-06
4.29215e-09
-1.24096e-06
7.34547e-09
-1.23214e-06
7.74792e-09
-1.24183e-06
5.46134e-09
-1.22283e-06
-1.18968e-06
-1.09935e-08
-1.23848e-06
-5.91644e-09
-1.25215e-06
-9.357e-10
-1.24765e-06
2.60891e-09
-1.22902e-06
4.50119e-09
-1.24321e-06
5.03886e-09
-1.25745e-06
4.6039e-09
-1.26061e-06
3.79001e-09
-1.25639e-06
2.84246e-09
-1.25073e-06
2.21122e-09
-1.24727e-06
1.85585e-09
-1.24752e-06
1.68341e-09
-1.25113e-06
2.31248e-09
-1.25579e-06
3.39685e-09
-1.25774e-06
5.00948e-09
-1.2538e-06
7.13509e-09
-1.24385e-06
8.85073e-09
-1.23447e-06
8.66161e-09
-1.24258e-06
6.0471e-09
-1.22138e-06
-1.18392e-06
-5.15523e-09
-1.23464e-06
-5.40321e-09
-1.25334e-06
-4.45781e-09
-1.24992e-06
-3.07146e-09
-1.23172e-06
-1.66664e-09
-1.24562e-06
-5.80341e-10
-1.25947e-06
4.60798e-10
-1.26238e-06
1.12374e-09
-1.25779e-06
1.71884e-09
-1.25199e-06
2.44189e-09
-1.24871e-06
3.31184e-09
-1.24926e-06
4.74428e-09
-1.25298e-06
5.92466e-09
-1.25772e-06
7.01803e-09
-1.25931e-06
6.97621e-09
-1.25414e-06
4.30662e-09
-1.24183e-06
9.00757e-11
-1.23102e-06
-1.443e-09
-1.24226e-06
5.25643e-10
-1.22475e-06
-1.18371e-06
-2.34203e-11
-1.23619e-06
-8.30156e-09
-1.24631e-06
-1.32047e-08
-1.2462e-06
-1.37301e-08
-1.23215e-06
-1.1992e-08
-1.2481e-06
-9.55613e-09
-1.26261e-06
-6.75392e-09
-1.26572e-06
-4.03967e-09
-1.26114e-06
-1.2984e-09
-1.25525e-06
1.29333e-09
-1.25195e-06
4.1439e-09
-1.25252e-06
6.54158e-09
-1.25628e-06
8.72374e-09
-1.26044e-06
9.75002e-09
-1.26096e-06
9.05855e-09
-1.25437e-06
7.43774e-09
-1.24072e-06
3.55542e-09
-1.22812e-06
-1.82699e-09
-1.23823e-06
-5.69829e-09
-1.22243e-06
-1.18972e-06
7.32722e-09
-1.24536e-06
1.77319e-10
-1.24078e-06
-7.02092e-09
-1.24043e-06
-1.1788e-08
-1.22845e-06
-1.3531e-08
-1.24736e-06
-1.29583e-08
-1.26404e-06
-1.07089e-08
-1.26877e-06
-7.50911e-09
-1.26523e-06
-4.13439e-09
-1.25942e-06
-1.2507e-09
-1.25582e-06
1.40067e-09
-1.25615e-06
4.10404e-09
-1.25969e-06
6.62621e-09
-1.26384e-06
8.70736e-09
-1.26373e-06
9.00721e-09
-1.25519e-06
7.17055e-09
-1.23955e-06
3.50108e-09
-1.22544e-06
-1.7238e-09
-1.23441e-06
-7.50933e-09
-1.21819e-06
-1.19753e-06
2.90163e-09
-1.24981e-06
6.03994e-10
-1.23992e-06
4.19039e-10
-1.24153e-06
-1.11913e-09
-1.22776e-06
-3.50564e-09
-1.24588e-06
-4.62837e-09
-1.26346e-06
-4.80228e-09
-1.26926e-06
-4.01467e-09
-1.26654e-06
-2.84145e-09
-1.26119e-06
-1.57938e-09
-1.25766e-06
-2.50682e-10
-1.25793e-06
5.68572e-10
-1.26143e-06
1.63608e-09
-1.26545e-06
2.46187e-09
-1.26538e-06
2.61685e-09
-1.25638e-06
1.63793e-09
-1.23932e-06
6.07335e-11
-1.22498e-06
-1.40496e-09
-1.23428e-06
-3.66964e-09
-1.21741e-06
-1.20145e-06
-3.52696e-09
-1.24778e-06
2.19559e-09
-1.24705e-06
6.03716e-09
-1.24653e-06
6.40036e-09
-1.22915e-06
5.36793e-09
-1.24567e-06
3.6027e-09
-1.2624e-06
1.73042e-09
-1.26805e-06
4.3233e-10
-1.26586e-06
-4.01407e-10
-1.26099e-06
-9.43461e-10
-1.25777e-06
-1.49862e-09
-1.25819e-06
-1.66477e-09
-1.2617e-06
-2.23595e-09
-1.26566e-06
-2.88316e-09
-1.2654e-06
-2.63361e-09
-1.25723e-06
-1.80974e-09
-1.24109e-06
-3.23795e-10
-1.22745e-06
6.22206e-10
-1.23647e-06
8.67726e-10
-1.21895e-06
-1.20082e-06
9.51497e-10
-1.24989e-06
5.80748e-09
-1.25282e-06
5.22881e-09
-1.2469e-06
3.17832e-09
-1.22769e-06
1.76655e-09
-1.24493e-06
7.99173e-10
-1.26184e-06
5.66922e-11
-1.26783e-06
-1.78731e-10
-1.26594e-06
-7.68835e-10
-1.26088e-06
-1.39145e-09
-1.25742e-06
-2.12556e-09
-1.25776e-06
-3.18883e-09
-1.26123e-06
-4.27961e-09
-1.265e-06
-5.48534e-09
-1.26488e-06
-6.16574e-09
-1.25754e-06
-5.47134e-09
-1.24264e-06
-3.07451e-09
-1.23083e-06
7.53569e-10
-1.24129e-06
4.38013e-09
-1.22375e-06
-1.19666e-06
3.51732e-09
-1.25462e-06
2.41402e-09
-1.25275e-06
-6.27983e-11
-1.24549e-06
-2.19645e-09
-1.2263e-06
-3.6187e-09
-1.24433e-06
-3.46477e-09
-1.26255e-06
-2.70518e-09
-1.26922e-06
-1.72752e-09
-1.26738e-06
-1.03465e-09
-1.26216e-06
-5.58919e-10
-1.25831e-06
-9.54275e-10
-1.2581e-06
-1.5083e-09
-1.26084e-06
-2.76825e-09
-1.26443e-06
-3.41132e-09
-1.2647e-06
-3.29417e-09
-1.25812e-06
-2.67421e-09
-1.24412e-06
-1.19889e-09
-1.233e-06
1.50636e-09
-1.24499e-06
5.4119e-09
-1.22877e-06
-1.19147e-06
-9.66984e-11
-1.2555e-06
-6.40731e-10
-1.25309e-06
-8.07792e-10
-1.24625e-06
-7.22292e-10
-1.22702e-06
-8.09635e-10
-1.24494e-06
-4.0439e-10
-1.26334e-06
-9.45258e-11
-1.27001e-06
3.25279e-10
-1.26806e-06
9.36719e-10
-1.26317e-06
1.81702e-09
-1.25942e-06
2.59591e-09
-1.25918e-06
3.34381e-09
-1.26209e-06
4.12454e-09
-1.26563e-06
4.77144e-09
-1.2658e-06
5.18257e-09
-1.25929e-06
5.60143e-09
-1.24507e-06
4.15251e-09
-1.23219e-06
6.69374e-10
-1.24244e-06
-2.04549e-09
-1.22708e-06
-1.19371e-06
-2.52043e-09
-1.25404e-06
-3.69414e-09
-1.25301e-06
-2.63423e-09
-1.24831e-06
-6.58696e-10
-1.22994e-06
8.51061e-10
-1.24719e-06
1.67578e-09
-1.26483e-06
2.10777e-09
-1.27096e-06
2.19523e-09
-1.26871e-06
2.39469e-09
-1.26384e-06
2.89001e-09
-1.26053e-06
3.85979e-09
-1.2608e-06
5.51394e-09
-1.26414e-06
7.02556e-09
-1.26775e-06
7.9427e-09
-1.26712e-06
7.68465e-09
-1.25937e-06
5.96605e-09
-1.2438e-06
2.51867e-09
-1.22947e-06
-2.2661e-09
-1.23857e-06
-7.67209e-09
-1.22267e-06
-1.20157e-06
-4.36664e-09
-1.25047e-06
-3.02675e-09
-1.25522e-06
-6.29708e-10
-1.25154e-06
1.62917e-09
-1.23291e-06
2.63098e-09
-1.24878e-06
2.7785e-09
-1.26541e-06
2.59509e-09
-1.27114e-06
2.26137e-09
-1.26868e-06
1.94583e-09
-1.26382e-06
1.90952e-09
-1.26081e-06
2.32186e-09
-1.26138e-06
2.5945e-09
-1.26503e-06
3.23792e-09
-1.26867e-06
3.56988e-09
-1.26798e-06
2.97384e-09
-1.2595e-06
1.43747e-09
-1.24272e-06
-4.88551e-10
-1.22831e-06
-2.00075e-09
-1.23792e-06
-3.97245e-09
-1.22164e-06
-1.2057e-06
-1.96513e-09
-1.24937e-06
-1.25991e-09
-1.25684e-06
-9.33275e-10
-1.25261e-06
-2.5773e-10
-1.23437e-06
-4.26462e-10
-1.24911e-06
-8.96967e-10
-1.26548e-06
-8.19227e-10
-1.27158e-06
-7.08755e-10
-1.26923e-06
-5.4195e-10
-1.26434e-06
-4.86022e-10
-1.26129e-06
-6.23588e-10
-1.26175e-06
-7.60771e-10
-1.2651e-06
-1.22371e-09
-1.2687e-06
-1.35171e-09
-1.26825e-06
-1.27042e-09
-1.25989e-06
-1.29614e-09
-1.24329e-06
-8.21989e-10
-1.22939e-06
-5.61046e-10
-1.23893e-06
-1.34111e-10
-1.22283e-06
-1.20596e-06
2.83457e-09
-1.25289e-06
1.24318e-09
-1.25581e-06
-2.42359e-09
-1.24947e-06
-5.58214e-09
-1.23157e-06
-6.76205e-09
-1.2483e-06
-6.25999e-09
-1.26623e-06
-5.00455e-09
-1.27312e-06
-3.98317e-09
-1.27042e-06
-3.46817e-09
-1.26509e-06
-3.15595e-09
-1.26173e-06
-3.06852e-09
-1.26194e-06
-3.4101e-09
-1.26515e-06
-3.7732e-09
-1.26854e-06
-4.3304e-09
-1.26811e-06
-5.0149e-09
-1.25985e-06
-5.05289e-09
-1.24377e-06
-3.66082e-09
-1.23137e-06
-1.11348e-09
-1.24201e-06
2.04641e-09
-1.2266e-06
-1.20401e-06
2.74127e-09
-1.25639e-06
1.62935e-09
-1.25528e-06
-1.04044e-09
-1.24744e-06
-4.57188e-09
-1.22844e-06
-6.09015e-09
-1.24729e-06
-6.02514e-09
-1.26662e-06
-5.66949e-09
-1.27388e-06
-5.13896e-09
-1.27125e-06
-4.77544e-09
-1.26581e-06
-4.51433e-09
-1.26227e-06
-4.58604e-09
-1.26235e-06
-4.29988e-09
-1.26547e-06
-4.29686e-09
-1.269e-06
-4.04802e-09
-1.26859e-06
-3.94286e-09
-1.2602e-06
-3.66816e-09
-1.24458e-06
-1.36511e-09
-1.23405e-06
4.80749e-10
-1.24434e-06
2.02331e-09
-1.2286e-06
-1.20205e-06
5.38334e-10
-1.25749e-06
-3.02672e-09
-1.25212e-06
-5.40568e-09
-1.24558e-06
-6.1078e-09
-1.22798e-06
-6.17048e-09
-1.24763e-06
-6.00535e-09
-1.26689e-06
-6.29844e-09
-1.27388e-06
-6.02262e-09
-1.27156e-06
-5.80829e-09
-1.26625e-06
-5.59812e-09
-1.26249e-06
-5.5817e-09
-1.26241e-06
-5.53372e-09
-1.26584e-06
-4.79192e-09
-1.2699e-06
-3.23889e-09
-1.27047e-06
-1.22203e-09
-1.26279e-06
4.94919e-10
-1.24664e-06
1.70957e-09
-1.23565e-06
1.28459e-09
-1.24426e-06
-9.88008e-10
-1.22667e-06
-1.20311e-06
-2.802e-10
-1.25781e-06
1.94019e-10
-1.25317e-06
-7.91433e-10
-1.24515e-06
-2.10824e-09
-1.2271e-06
-3.19728e-09
-1.24695e-06
-3.88672e-09
-1.26649e-06
-4.4536e-09
-1.27365e-06
-4.6334e-09
-1.27162e-06
-4.70321e-09
-1.26648e-06
-4.68864e-09
-1.26275e-06
-5.06276e-09
-1.26243e-06
-5.49181e-09
-1.26546e-06
-6.30567e-09
-1.26937e-06
-6.94321e-09
-1.27009e-06
-6.6943e-09
-1.26311e-06
-6.15797e-09
-1.24758e-06
-5.40467e-09
-1.23681e-06
-2.66389e-09
-1.24731e-06
3.70144e-10
-1.23007e-06
-1.20282e-06
6.21078e-10
-1.25879e-06
3.7226e-09
-1.25662e-06
3.61192e-09
-1.24541e-06
2.01389e-09
-1.22573e-06
1.03123e-10
-1.24534e-06
-1.25782e-09
-1.26524e-06
-2.23894e-09
-1.27286e-06
-2.62456e-09
-1.2713e-06
-2.6647e-09
-1.2666e-06
-2.42832e-09
-1.26299e-06
-2.37063e-09
-1.26251e-06
-2.94321e-09
-1.2651e-06
-4.24322e-09
-1.2682e-06
-6.1135e-09
-1.2684e-06
-7.61985e-09
-1.2621e-06
-7.26143e-09
-1.24828e-06
-5.38023e-09
-1.239e-06
-2.07209e-09
-1.25098e-06
2.88318e-09
-1.23544e-06
-1.2e-06
1.3113e-09
-1.2605e-06
1.50298e-09
-1.25722e-06
1.83291e-09
-1.24615e-06
1.90824e-09
-1.22622e-06
1.25656e-09
-1.245e-06
4.14565e-10
-1.26471e-06
-3.20872e-10
-1.27237e-06
-8.49231e-10
-1.27104e-06
-1.09946e-09
-1.26659e-06
-1.19385e-09
-1.26318e-06
-1.01086e-09
-1.26309e-06
-2.32226e-10
-1.26585e-06
1.96512e-10
-1.26897e-06
7.17279e-10
-1.26897e-06
8.65318e-10
-1.26228e-06
5.45059e-10
-1.24819e-06
1.12423e-10
-1.23871e-06
-1.66986e-09
-1.24952e-06
-2.97016e-09
-1.23438e-06
-1.20299e-06
1.70191e-10
-1.26089e-06
-7.4646e-10
-1.25654e-06
3.90484e-10
-1.24759e-06
2.30616e-09
-1.22836e-06
3.11089e-09
-1.24604e-06
2.96698e-09
-1.26468e-06
2.22621e-09
-1.27175e-06
1.23439e-09
-1.27009e-06
1.37828e-10
-1.26555e-06
-7.27697e-10
-1.26238e-06
-9.53672e-10
-1.26275e-06
-9.55905e-10
-1.26624e-06
2.10293e-10
-1.27012e-06
1.76655e-09
-1.27076e-06
2.5994e-09
-1.26348e-06
1.81554e-09
-1.24741e-06
-7.84976e-10
-1.23635e-06
-3.64639e-09
-1.24674e-06
-6.7929e-09
-1.23133e-06
-1.20979e-06
-2.58387e-09
-1.25854e-06
1.97306e-09
-1.26148e-06
5.71367e-09
-1.25165e-06
7.78085e-09
-1.23089e-06
8.21623e-09
-1.24677e-06
7.25149e-09
-1.26405e-06
5.68586e-09
-1.27037e-06
3.75355e-09
-1.26839e-06
1.83898e-09
-1.26375e-06
3.82346e-11
-1.2608e-06
-1.57445e-09
-1.26137e-06
-2.81181e-09
-1.26504e-06
-3.73494e-09
-1.26939e-06
-4.45048e-09
-1.27023e-06
-4.94037e-09
-1.26291e-06
-5.61333e-09
-1.24694e-06
-6.19481e-09
-1.2359e-06
-4.60953e-09
-1.24839e-06
-1.82514e-09
-1.23414e-06
-1.21161e-06
-2.3438e-09
-1.25612e-06
2.44205e-09
-1.26642e-06
5.30878e-09
-1.25472e-06
6.91978e-09
-1.23285e-06
7.62315e-09
-1.24776e-06
7.30626e-09
-1.26392e-06
6.07425e-09
-1.26926e-06
4.28279e-09
-1.26658e-06
2.13204e-09
-1.26156e-06
-1.97217e-11
-1.25855e-06
-1.77488e-09
-1.2594e-06
-3.34697e-09
-1.26367e-06
-4.25814e-09
-1.26846e-06
-5.25934e-09
-1.26944e-06
-6.13268e-09
-1.2625e-06
-5.65129e-09
-1.24764e-06
-4.96537e-09
-1.23679e-06
-3.17096e-09
-1.2502e-06
8.15769e-10
-1.23811e-06
-1.2108e-06
-3.1644e-09
-1.25299e-06
-7.33723e-09
-1.26247e-06
-7.473e-09
-1.25499e-06
-2.65808e-09
-1.23826e-06
2.37102e-09
-1.25313e-06
4.86597e-09
-1.26678e-06
5.17934e-09
-1.26971e-06
3.89068e-09
-1.26541e-06
1.72868e-09
-1.25945e-06
-6.63184e-10
-1.25619e-06
-3.02066e-09
-1.25723e-06
-4.72365e-09
-1.26186e-06
-5.76246e-09
-1.26759e-06
-5.32871e-09
-1.27009e-06
-2.77149e-09
-1.26507e-06
4.1861e-10
-1.25126e-06
1.70456e-09
-1.23827e-06
1.49093e-09
-1.25003e-06
1.77163e-09
-1.23848e-06
-1.20909e-06
-7.02622e-09
-1.24627e-06
-1.0138e-08
-1.25967e-06
-5.91447e-09
-1.25959e-06
-7.4327e-10
-1.24376e-06
1.90871e-09
-1.25592e-06
2.53218e-09
-1.26754e-06
2.14642e-09
-1.26935e-06
1.20063e-09
-1.26445e-06
-7.14889e-11
-1.25821e-06
-1.35543e-09
-1.25478e-06
-2.87677e-09
-1.25563e-06
-4.72194e-09
-1.26015e-06
-6.35964e-09
-1.266e-06
-7.23009e-09
-1.26945e-06
-6.57305e-09
-1.26615e-06
-3.86581e-09
-1.25438e-06
7.54225e-10
-1.24316e-06
4.58923e-09
-1.25414e-06
5.44919e-09
-1.2397e-06
-1.20376e-06
-2.07743e-09
-1.24476e-06
-4.31221e-10
-1.26205e-06
2.41142e-09
-1.26278e-06
8.88893e-10
-1.24261e-06
-1.80375e-09
-1.25347e-06
-3.61345e-09
-1.26599e-06
-4.10892e-09
-1.26912e-06
-3.75322e-09
-1.26509e-06
-3.03487e-09
-1.25924e-06
-2.33776e-09
-1.25575e-06
-2.21759e-09
-1.25621e-06
-2.10459e-09
-1.2602e-06
-2.77409e-09
-1.26566e-06
-3.67278e-09
-1.2686e-06
-4.78798e-09
-1.2651e-06
-4.999e-09
-1.25452e-06
-2.11513e-09
-1.24633e-06
1.55552e-09
-1.25833e-06
3.35942e-09
-1.24206e-06
-1.20053e-06
4.72534e-09
-1.25005e-06
3.20151e-09
-1.26095e-06
-2.23933e-09
-1.2576e-06
-6.33435e-09
-1.23866e-06
-7.5015e-09
-1.25249e-06
-7.6014e-09
-1.26601e-06
-6.66027e-09
-1.27027e-06
-5.05689e-09
-1.26686e-06
-3.32129e-09
-1.26121e-06
-1.58817e-09
-1.25765e-06
1.12997e-11
-1.2579e-06
1.14032e-09
-1.26166e-06
1.99699e-09
-1.26662e-06
2.18084e-09
-1.26893e-06
1.4804e-09
-1.26478e-06
4.84751e-10
-1.25361e-06
-1.40709e-09
-1.2448e-06
-2.64406e-09
-1.25762e-06
-2.13363e-09
-1.24323e-06
-1.20279e-06
5.96325e-09
-1.25665e-06
1.96689e-09
-1.25739e-06
-3.80113e-09
-1.25221e-06
-7.41841e-09
-1.23536e-06
-8.37904e-09
-1.25183e-06
-7.62518e-09
-1.26714e-06
-5.698e-09
-1.27252e-06
-3.7397e-09
-1.26926e-06
-1.79948e-09
-1.26349e-06
7.75508e-11
-1.25999e-06
2.07723e-09
-1.26038e-06
4.20338e-09
-1.26391e-06
5.68268e-09
-1.26845e-06
6.50326e-09
-1.26979e-06
6.18065e-09
-1.26442e-06
5.02645e-09
-1.25251e-06
2.06557e-09
-1.24207e-06
-2.38891e-09
-1.25371e-06
-5.65064e-09
-1.24055e-06
-1.20853e-06
3.80413e-09
-1.26082e-06
2.9575e-09
-1.25676e-06
1.395e-09
-1.25095e-06
-1.05359e-09
-1.23298e-06
-3.27972e-09
-1.24985e-06
-3.57417e-09
-1.26697e-06
-2.94205e-09
-1.27333e-06
-1.81145e-09
-1.27056e-06
-5.42906e-10
-1.26491e-06
6.33208e-10
-1.26138e-06
2.23025e-09
-1.26198e-06
3.74959e-09
-1.26586e-06
5.76003e-09
-1.27051e-06
7.30898e-09
-1.27152e-06
7.26588e-09
-1.26468e-06
5.80474e-09
-1.25096e-06
2.67029e-09
-1.23918e-06
-1.74096e-09
-1.24964e-06
-6.86601e-09
-1.23583e-06
-1.21545e-06
2.72459e-10
-1.26144e-06
1.32003e-09
-1.2582e-06
1.65698e-09
-1.2516e-06
1.91041e-09
-1.23357e-06
1.81834e-09
-1.24999e-06
1.43931e-09
-1.26684e-06
7.26786e-10
-1.27278e-06
3.11307e-10
-1.2704e-06
4.1244e-10
-1.26516e-06
5.63934e-10
-1.26183e-06
7.68376e-10
-1.26246e-06
1.13323e-09
-1.26631e-06
1.4921e-09
-1.27106e-06
1.90963e-09
-1.27205e-06
2.07273e-09
-1.26473e-06
9.41806e-10
-1.24988e-06
-3.76588e-10
-1.23797e-06
-1.3024e-09
-1.24893e-06
-2.94856e-09
-1.23442e-06
-1.21842e-06
-2.48792e-09
-1.25906e-06
8.24357e-10
-1.26171e-06
3.74347e-09
-1.25471e-06
5.74915e-09
-1.23575e-06
6.12557e-09
-1.25048e-06
5.39107e-09
-1.26614e-06
4.08884e-09
-1.27147e-06
2.66925e-09
-1.26894e-06
1.54129e-09
-1.26399e-06
7.31254e-10
-1.26097e-06
7.4684e-11
-1.26164e-06
-8.24297e-10
-1.2656e-06
-1.53178e-09
-1.27029e-06
-2.43258e-09
-1.27128e-06
-2.66301e-09
-1.26478e-06
-1.94033e-09
-1.25067e-06
-5.89295e-10
-1.23946e-06
6.56557e-10
-1.25028e-06
1.35148e-09
-1.23524e-06
-1.2171e-06
-1.82486e-09
-1.25735e-06
3.15442e-10
-1.26419e-06
2.79857e-09
-1.25732e-06
4.8175e-09
-1.23812e-06
5.14665e-09
-1.25086e-06
4.3715e-09
-1.26556e-06
3.71453e-09
-1.27084e-06
2.90377e-09
-1.26823e-06
2.03052e-09
-1.26314e-06
9.61575e-10
-1.25998e-06
-2.63885e-10
-1.26057e-06
-1.3332e-09
-1.26439e-06
-2.83969e-09
-1.26889e-06
-4.30781e-09
-1.26984e-06
-5.02712e-09
-1.26395e-06
-4.84144e-09
-1.25107e-06
-2.77789e-09
-1.24164e-06
9.16401e-10
-1.25407e-06
4.67783e-09
-1.23917e-06
-1.21248e-06
1.06347e-09
-1.2585e-06
-6.64517e-10
-1.26254e-06
-7.64574e-10
-1.25729e-06
5.85571e-10
-1.23959e-06
1.99102e-09
-1.2523e-06
3.06755e-09
-1.2667e-06
4.02861e-09
-1.2718e-06
4.4202e-09
-1.2686e-06
4.16322e-09
-1.26288e-06
3.52714e-09
-1.25921e-06
2.52219e-09
-1.25943e-06
1.10604e-09
-1.26305e-06
-3.71944e-10
-1.26737e-06
-1.40247e-09
-1.26891e-06
-1.69626e-09
-1.26395e-06
-1.42239e-09
-1.25156e-06
-5.41425e-10
-1.24264e-06
1.84685e-09
-1.25668e-06
5.57133e-09
-1.2432e-06
-1.20698e-06
-1.77269e-09
-1.25696e-06
1.89411e-10
-1.26479e-06
2.83426e-09
-1.26025e-06
4.83217e-09
-1.24191e-06
6.78315e-09
-1.25452e-06
7.79141e-09
-1.26801e-06
7.90949e-09
-1.27211e-06
7.48175e-09
-1.26842e-06
7.08192e-09
-1.26265e-06
6.79227e-09
-1.25911e-06
6.48038e-09
-1.25942e-06
6.50263e-09
-1.26296e-06
6.29627e-09
-1.26738e-06
6.43306e-09
-1.269e-06
6.94757e-09
-1.26437e-06
6.95918e-09
-1.25168e-06
5.06181e-09
-1.24082e-06
1.37315e-09
-1.25334e-06
-1.40793e-09
-1.24076e-06
-1.20845e-06
-5.057e-09
-1.25213e-06
-1.85292e-09
-1.26828e-06
9.71433e-10
-1.2633e-06
3.22546e-09
-1.24446e-06
5.5106e-09
-1.25691e-06
6.3918e-09
-1.26907e-06
6.27291e-09
-1.27201e-06
5.87631e-09
-1.26814e-06
5.92264e-09
-1.2627e-06
6.35015e-09
-1.25965e-06
7.44463e-09
-1.2604e-06
8.34578e-09
-1.26416e-06
9.39575e-09
-1.26838e-06
9.75096e-09
-1.26942e-06
8.82707e-09
-1.26367e-06
6.80456e-09
-1.24951e-06
3.02425e-09
-1.23726e-06
-1.6804e-09
-1.2489e-06
-6.80365e-09
-1.23596e-06
-1.21532e-06
1.51612e-09
-1.25407e-06
-4.47742e-10
-1.2667e-06
-2.92032e-09
-1.26104e-06
-4.14182e-09
-1.24353e-06
-3.56941e-09
-1.25759e-06
-2.73579e-09
-1.27015e-06
-1.30435e-09
-1.27356e-06
1.33131e-10
-1.26985e-06
1.58479e-09
-1.2643e-06
2.76746e-09
-1.26115e-06
3.89662e-09
-1.26181e-06
5.06123e-09
-1.26541e-06
6.00167e-09
-1.26952e-06
6.46206e-09
-1.26993e-06
5.53234e-09
-1.2626e-06
3.08182e-09
-1.24703e-06
3.15816e-10
-1.23459e-06
-1.7806e-09
-1.24707e-06
-3.75367e-09
-1.23429e-06
-1.21912e-06
6.77534e-09
-1.26113e-06
2.61571e-09
-1.26258e-06
-1.68584e-09
-1.25686e-06
-5.23006e-09
-1.23983e-06
-7.15326e-09
-1.25576e-06
-6.70493e-09
-1.27053e-06
-4.90216e-09
-1.27548e-06
-2.84119e-09
-1.27191e-06
-1.1941e-09
-1.26605e-06
1.5968e-10
-1.26253e-06
1.29964e-09
-1.26292e-06
2.07952e-09
-1.26644e-06
2.87576e-09
-1.27033e-06
3.27631e-09
-1.27048e-06
3.00805e-09
-1.2626e-06
2.33298e-09
-1.24638e-06
1.19227e-09
-1.2336e-06
-1.37914e-10
-1.24595e-06
-8.84332e-10
-1.23379e-06
-1.22004e-06
3.1753e-09
-1.26461e-06
1.89209e-09
-1.2614e-06
5.1307e-10
-1.25567e-06
-1.6593e-09
-1.23762e-06
-3.61665e-09
-1.25398e-06
-3.73844e-09
-1.27044e-06
-3.20229e-09
-1.2762e-06
-2.15982e-09
-1.27306e-06
-1.25295e-09
-1.26714e-06
-5.60265e-10
-1.26337e-06
-1.65518e-10
-1.26362e-06
3.07692e-10
-1.26687e-06
3.88639e-10
-1.27065e-06
5.37144e-10
-1.27068e-06
6.86139e-10
-1.26271e-06
7.28984e-10
-1.24657e-06
8.30657e-10
-1.23381e-06
5.48439e-10
-1.24586e-06
2.927e-10
-1.23372e-06
-1.21978e-06
-8.79574e-10
-1.2638e-06
-5.57732e-10
-1.26169e-06
-7.71141e-10
-1.25555e-06
-5.53543e-10
-1.23772e-06
-6.02005e-10
-1.25402e-06
-5.74673e-10
-1.27031e-06
-1.14644e-09
-1.27569e-06
-1.22643e-09
-1.27284e-06
-1.20449e-09
-1.26721e-06
-9.99223e-10
-1.26345e-06
-9.20723e-10
-1.26362e-06
-1.06102e-09
-1.26685e-06
-1.18202e-09
-1.27053e-06
-1.36428e-09
-1.27061e-06
-1.50886e-09
-1.26287e-06
-1.05697e-09
-1.24712e-06
-2.12617e-10
-1.23484e-06
5.53006e-10
-1.24679e-06
1.28465e-09
-1.23464e-06
-1.21854e-06
-3.54737e-09
-1.26037e-06
-1.47873e-09
-1.26389e-06
2.87003e-10
-1.25752e-06
1.64611e-09
-1.23919e-06
1.83657e-09
-1.25437e-06
1.40255e-09
-1.2699e-06
4.68205e-10
-1.27487e-06
-3.95073e-10
-1.27197e-06
-1.07485e-09
-1.26664e-06
-1.31241e-09
-1.26323e-06
-1.69705e-09
-1.26347e-06
-1.72605e-09
-1.26667e-06
-2.06953e-09
-1.27037e-06
-2.40417e-09
-1.27031e-06
-2.67895e-09
-1.26256e-06
-2.65922e-09
-1.24735e-06
-1.91214e-09
-1.23575e-06
-7.7436e-11
-1.2488e-06
2.75032e-09
-1.23769e-06
-1.21584e-06
-2.27699e-09
-1.25814e-06
-1.79353e-09
-1.26444e-06
-1.36185e-09
-1.25804e-06
-7.23921e-10
-1.23987e-06
-1.25937e-09
-1.25391e-06
-1.92248e-09
-1.26916e-06
-2.25451e-09
-1.27459e-06
-2.26636e-09
-1.27181e-06
-2.39257e-09
-1.26656e-06
-2.2242e-09
-1.26322e-06
-2.09471e-09
-1.26355e-06
-1.85486e-09
-1.26696e-06
-1.46535e-09
-1.2708e-06
-9.65266e-10
-1.27089e-06
-3.15279e-10
-1.26355e-06
1.55067e-09
-1.24939e-06
3.08185e-09
-1.23745e-06
2.75455e-09
-1.2487e-06
2.6647e-09
-1.23784e-06
-1.21322e-06
2.69168e-09
-1.26105e-06
-9.40392e-10
-1.26096e-06
-3.81437e-09
-1.25535e-06
-5.44855e-09
-1.23837e-06
-6.0288e-09
-1.2535e-06
-5.56556e-09
-1.26974e-06
-4.55749e-09
-1.27579e-06
-3.68945e-09
-1.27276e-06
-3.40594e-09
-1.26704e-06
-3.21965e-09
-1.26349e-06
-3.2169e-09
-1.26385e-06
-2.54199e-09
-1.26754e-06
-1.374e-09
-1.2722e-06
9.33566e-10
-1.27324e-06
3.70267e-09
-1.26629e-06
6.55152e-09
-1.25238e-06
8.30863e-09
-1.23932e-06
5.48199e-09
-1.24608e-06
-1.03623e-09
-1.23153e-06
-1.21429e-06
3.57227e-09
-1.26471e-06
2.44701e-09
-1.25975e-06
1.14371e-09
-1.25417e-06
-9.78749e-10
-1.23612e-06
-2.27946e-09
-1.25234e-06
-2.41602e-09
-1.26951e-06
-2.46785e-09
-1.27584e-06
-2.19012e-09
-1.27294e-06
-2.28977e-09
-1.26703e-06
-2.59376e-09
-1.26307e-06
-3.35345e-09
-1.26305e-06
-4.49759e-09
-1.26651e-06
-5.47753e-09
-1.2712e-06
-5.51144e-09
-1.27327e-06
-4.51222e-09
-1.26752e-06
-3.00005e-09
-1.25389e-06
-6.35218e-10
-1.24182e-06
2.4488e-09
-1.24931e-06
2.84415e-09
-1.23211e-06
-1.21148e-06
6.03023e-10
-1.26543e-06
2.1339e-09
-1.26141e-06
3.11498e-09
-1.25528e-06
3.56027e-09
-1.23665e-06
3.41099e-09
-1.25231e-06
2.82792e-09
-1.26896e-06
1.6852e-09
-1.2748e-06
9.00938e-10
-1.2722e-06
3.11434e-10
-1.26656e-06
-2.3203e-10
-1.26258e-06
-1.16516e-09
-1.26234e-06
-2.3275e-09
-1.26518e-06
-4.58896e-09
-1.26906e-06
-7.02611e-09
-1.27074e-06
-8.60205e-09
-1.26578e-06
-9.10631e-09
-1.2534e-06
-7.39779e-09
-1.24354e-06
-1.85697e-09
-1.25497e-06
5.15721e-09
-1.23928e-06
-1.20635e-06
-2.69772e-09
-1.26272e-06
2.2294e-09
-1.26634e-06
6.40768e-09
-1.2595e-06
8.87785e-09
-1.23909e-06
9.19311e-09
-1.2526e-06
8.29496e-09
-1.26795e-06
6.69418e-09
-1.27315e-06
5.12918e-09
-1.27049e-06
3.85175e-09
-1.26525e-06
3.19155e-09
-1.26177e-06
2.84579e-09
-1.26186e-06
2.48188e-09
-1.26484e-06
2.16045e-09
-1.26864e-06
1.38988e-09
-1.26991e-06
1.00635e-10
-1.26461e-06
-7.38243e-10
-1.25247e-06
-1.27581e-09
-1.243e-06
-6.0945e-10
-1.25571e-06
1.82438e-09
-1.24187e-06
-1.20456e-06
-2.5874e-09
-1.26017e-06
3.7223e-09
-1.27284e-06
8.49377e-09
-1.26433e-06
9.54095e-09
-1.24028e-06
8.77713e-09
-1.25183e-06
7.50188e-09
-1.26674e-06
6.39237e-09
-1.27202e-06
5.49538e-09
-1.26964e-06
5.05532e-09
-1.26483e-06
5.04145e-09
-1.26182e-06
5.31033e-09
-1.26231e-06
6.25217e-09
-1.2656e-06
7.19504e-09
-1.26969e-06
7.90029e-09
-1.27045e-06
7.85226e-09
-1.26433e-06
7.53614e-09
-1.25204e-06
5.8273e-09
-1.24117e-06
1.55077e-09
-1.25156e-06
-2.65181e-09
-1.23777e-06
-1.20722e-06
-5.51328e-10
-1.25952e-06
1.50093e-09
-1.27494e-06
3.57472e-09
-1.26634e-06
3.81929e-09
-1.24055e-06
3.26278e-09
-1.25121e-06
2.71676e-09
-1.26614e-06
2.52145e-09
-1.27173e-06
2.59925e-09
-1.26963e-06
2.92379e-09
-1.26505e-06
3.43501e-09
-1.26227e-06
4.54338e-09
-1.26321e-06
6.15848e-09
-1.26736e-06
8.37962e-09
-1.27177e-06
9.95286e-09
-1.27196e-06
9.70392e-09
-1.26412e-06
7.65932e-09
-1.24969e-06
3.86673e-09
-1.23736e-06
-9.57015e-10
-1.24673e-06
-6.43247e-09
-1.23234e-06
-1.21365e-06
2.32859e-09
-1.26184e-06
3.42887e-10
-1.27299e-06
-2.16614e-09
-1.26385e-06
-2.25825e-09
-1.2406e-06
-9.9418e-10
-1.2525e-06
-4.79732e-10
-1.26675e-06
-1.59935e-10
-1.27206e-06
1.72446e-10
-1.27004e-06
5.43316e-10
-1.26542e-06
8.73986e-10
-1.2627e-06
1.41641e-09
-1.26386e-06
2.33852e-09
-1.2682e-06
3.20846e-09
-1.27268e-06
4.00901e-09
-1.27267e-06
4.28783e-09
-1.26413e-06
2.86324e-09
-1.24808e-06
6.06223e-10
-1.23499e-06
-8.4856e-10
-1.24526e-06
-2.37639e-09
-1.23079e-06
-1.21602e-06
3.15638e-09
-1.26492e-06
-1.14678e-09
-1.26845e-06
-4.95128e-09
-1.26002e-06
-5.20463e-09
-1.24023e-06
-3.5933e-09
-1.25414e-06
-2.12902e-09
-1.26815e-06
-1.2688e-09
-1.27292e-06
-6.4539e-10
-1.27056e-06
-4.78718e-10
-1.26553e-06
-5.95838e-10
-1.26243e-06
-9.06634e-10
-1.26336e-06
-1.49345e-09
-1.26766e-06
-1.73369e-09
-1.27231e-06
-1.59953e-09
-1.27279e-06
-1.14867e-09
-1.26469e-06
-2.4162e-10
-1.24889e-06
1.08435e-09
-1.23629e-06
1.92043e-09
-1.24606e-06
1.90464e-09
-1.23075e-06
-1.21412e-06
-3.5717e-09
-1.26131e-06
-5.48795e-09
-1.26649e-06
-3.75688e-09
-1.26186e-06
-1.46571e-09
-1.24255e-06
-1.74668e-10
-1.25559e-06
7.0449e-10
-1.26906e-06
7.61539e-10
-1.27309e-06
3.23666e-10
-1.27011e-06
-4.89755e-10
-1.26478e-06
-1.46317e-09
-1.26142e-06
-2.93376e-09
-1.26201e-06
-4.38525e-09
-1.266e-06
-5.86132e-09
-1.27091e-06
-6.55673e-09
-1.27205e-06
-6.32172e-09
-1.2648e-06
-4.96481e-09
-1.25033e-06
-1.68531e-09
-1.23961e-06
2.45834e-09
-1.25023e-06
5.69466e-09
-1.23407e-06
-1.20848e-06
-7.63499e-09
-1.25368e-06
-8.33649e-09
-1.26575e-06
-6.01589e-09
-1.26426e-06
-2.80009e-09
-1.24581e-06
-7.51494e-10
-1.25769e-06
6.02922e-11
-1.26984e-06
-6.63391e-11
-1.27298e-06
-6.94519e-10
-1.26936e-06
-1.6306e-09
-1.26386e-06
-2.35635e-09
-1.26049e-06
-3.37469e-09
-1.2609e-06
-4.7285e-09
-1.26461e-06
-6.29727e-09
-1.26932e-06
-7.24104e-09
-1.27113e-06
-6.73209e-09
-1.26554e-06
-4.40952e-09
-1.25279e-06
-5.79569e-10
-1.24353e-06
3.89159e-09
-1.25489e-06
7.70512e-09
-1.23816e-06
-1.20085e-06
-9.204e-10
-1.253e-06
-4.3526e-09
-1.26248e-06
-7.29794e-09
-1.26145e-06
-8.24529e-09
-1.24501e-06
-7.954e-09
-1.25807e-06
-7.36179e-09
-1.27055e-06
-6.24656e-09
-1.27422e-06
-5.03775e-09
-1.27066e-06
-4.06689e-09
-1.265e-06
-3.13272e-09
-1.26148e-06
-2.57465e-09
-1.26175e-06
-1.89092e-09
-1.26514e-06
-1.73595e-09
-1.26968e-06
-1.22199e-09
-1.2716e-06
-4.82819e-10
-1.26623e-06
3.19455e-10
-1.2537e-06
1.42046e-09
-1.24472e-06
1.6754e-09
-1.25549e-06
1.65087e-09
-1.23853e-06
-1.19929e-06
3.10009e-09
-1.25626e-06
-1.49721e-11
-1.25937e-06
-4.713e-09
-1.25683e-06
-8.72671e-09
-1.24085e-06
-1.06843e-08
-1.2562e-06
-1.03362e-08
-1.27082e-06
-8.7025e-09
-1.27595e-06
-6.68703e-09
-1.27265e-06
-4.98418e-09
-1.26678e-06
-3.28859e-09
-1.26317e-06
-1.41343e-09
-1.26361e-06
6.12164e-10
-1.26733e-06
2.52332e-09
-1.27164e-06
3.8763e-09
-1.27296e-06
3.96103e-09
-1.26653e-06
3.02025e-09
-1.25267e-06
1.39944e-09
-1.2433e-06
-1.6978e-09
-1.25276e-06
-5.31858e-09
-1.23535e-06
-1.20469e-06
-2.13786e-09
-1.25434e-06
-1.72841e-09
-1.25991e-06
-2.75589e-09
-1.25598e-06
-5.08715e-09
-1.23855e-06
-6.60147e-09
-1.25486e-06
-6.54882e-09
-1.27091e-06
-6.21765e-09
-1.27644e-06
-5.71249e-09
-1.27323e-06
-5.21347e-09
-1.26743e-06
-4.61544e-09
-1.26391e-06
-3.91785e-09
-1.26457e-06
-2.52863e-09
-1.26873e-06
-7.18679e-10
-1.27365e-06
1.56963e-09
-1.27527e-06
3.64404e-09
-1.26854e-06
3.86444e-09
-1.25284e-06
2.02473e-09
-1.24161e-06
-6.89424e-10
-1.25039e-06
-4.23502e-09
-1.23217e-06
-1.20898e-06
-3.78956e-09
-1.25062e-06
-5.30374e-09
-1.25843e-06
-7.67769e-09
-1.2537e-06
-9.23689e-09
-1.23702e-06
-9.20494e-09
-1.25494e-06
-8.13374e-09
-1.27195e-06
-7.49449e-09
-1.2771e-06
-6.95753e-09
-1.27368e-06
-6.57289e-09
-1.26784e-06
-6.15236e-09
-1.26424e-06
-5.98511e-09
-1.26468e-06
-6.10446e-09
-1.26872e-06
-5.96603e-09
-1.27378e-06
-5.5202e-09
-1.27578e-06
-4.53386e-09
-1.2697e-06
-3.04963e-09
-1.25427e-06
-2.16224e-09
-1.24264e-06
5.32035e-11
-1.25279e-06
2.30954e-09
-1.2347e-06
-1.20671e-06
1.07865e-09
-1.25184e-06
-6.28037e-09
-1.25116e-06
-1.16399e-08
-1.24846e-06
-1.30865e-08
-1.23564e-06
-1.22576e-08
-1.25585e-06
-1.07649e-08
-1.27346e-06
-9.28422e-09
-1.27864e-06
-7.84167e-09
-1.27511e-06
-6.7584e-09
-1.26901e-06
-5.91031e-09
-1.26505e-06
-5.69024e-09
-1.26509e-06
-5.54208e-09
-1.26867e-06
-6.00884e-09
-1.27344e-06
-6.45071e-09
-1.27526e-06
-6.03796e-09
-1.26998e-06
-3.32086e-09
-1.25701e-06
9.19169e-10
-1.24683e-06
4.5381e-09
-1.25654e-06
6.67743e-09
-1.23703e-06
-1.20006e-06
-1.59493e-09
-1.2502e-06
-3.25624e-09
-1.24938e-06
-2.66193e-09
-1.24898e-06
-2.21553e-09
-1.2359e-06
-2.65331e-09
-1.25535e-06
-3.79605e-09
-1.27213e-06
-4.46638e-09
-1.27795e-06
-4.19566e-09
-1.2752e-06
-3.63877e-09
-1.26956e-06
-2.78031e-09
-1.26571e-06
-2.06612e-09
-1.26574e-06
-1.28384e-09
-1.26939e-06
-6.75946e-10
-1.274e-06
-2.20759e-10
-1.2756e-06
1.01725e-10
-1.27032e-06
1.10741e-09
-1.25788e-06
2.08959e-09
-1.24772e-06
2.30008e-09
-1.25684e-06
2.106e-09
-1.23697e-06
-1.19797e-06
-1.2785e-09
-1.24879e-06
1.24759e-09
-1.25172e-06
3.08809e-09
-1.25065e-06
1.93137e-09
-1.23456e-06
-4.27138e-10
-1.25289e-06
-1.86369e-09
-1.2706e-06
-1.92181e-09
-1.27786e-06
-1.3259e-09
-1.27577e-06
-5.36826e-10
-1.27036e-06
5.7081e-10
-1.26682e-06
1.87525e-09
-1.26715e-06
3.5336e-09
-1.27084e-06
4.72457e-09
-1.27523e-06
5.51371e-09
-1.2761e-06
5.0725e-09
-1.26961e-06
3.27159e-09
-1.25578e-06
6.198e-11
-1.24438e-06
-3.26492e-09
-1.25355e-06
-4.3662e-09
-1.2359e-06
-1.20231e-06
2.23195e-09
-1.25064e-06
1.78472e-09
-1.25081e-06
-6.12185e-11
-1.24847e-06
-1.79334e-09
-1.23239e-06
-3.01264e-09
-1.25143e-06
-2.73787e-09
-1.27057e-06
-2.1057e-09