/*--------------------------------*- C++ -*----------------------------------*\
  =========                 |
  \\      /  F ield         | OpenFOAM: The Open Source CFD Toolbox
   \\    /   O peration     | Website:  https://openfoam.org
    \\  /    A nd           | Version:  6
     \\/     M anipulation  |
\*---------------------------------------------------------------------------*/
FoamFile
{
    version     2.0;
    format      ascii;
    class       volVectorField;
    location    "3";
    object      U;
}
// * * * * * * * * * * * * * * * * * * * * * * * * * * * * * * * * * * * * * //

dimensions      [0 1 -1 0 0 0 0];

internalField   nonuniform List<vector> 
130000
(
(-0.00579625 -0.303432 0)
(-0.00500631 -0.374829 0)
(-0.0048337 -0.455048 0)
(-0.00498376 -0.522375 0)
(-0.00527039 -0.574216 0)
(-0.00567676 -0.612128 0)
(-0.00614778 -0.638913 0)
(-0.00663403 -0.657434 0)
(-0.00710153 -0.67006 0)
(-0.00752822 -0.678593 0)
(-0.0079057 -0.684265 0)
(-0.00822965 -0.687862 0)
(-0.00849866 -0.689785 0)
(-0.00871487 -0.690146 0)
(-0.00887036 -0.688801 0)
(-0.00895704 -0.685442 0)
(-0.00896374 -0.679673 0)
(-0.00888201 -0.671264 0)
(-0.00873142 -0.66065 0)
(-0.00849005 -0.651465 0)
(-0.00911276 -0.307769 0)
(-0.00768588 -0.381369 0)
(-0.00733151 -0.461757 0)
(-0.00739195 -0.528845 0)
(-0.00754306 -0.580287 0)
(-0.00781412 -0.617868 0)
(-0.00816032 -0.644397 0)
(-0.00854869 -0.6628 0)
(-0.00893698 -0.67537 0)
(-0.00930713 -0.683933 0)
(-0.00963986 -0.689649 0)
(-0.00993082 -0.693338 0)
(-0.0101756 -0.695348 0)
(-0.0103667 -0.695834 0)
(-0.0105017 -0.694617 0)
(-0.0105753 -0.691427 0)
(-0.0105766 -0.68582 0)
(-0.0105086 -0.677568 0)
(-0.0104036 -0.666981 0)
(-0.0102211 -0.657432 0)
(-0.0128929 -0.307481 0)
(-0.011629 -0.379873 0)
(-0.0112145 -0.459526 0)
(-0.0113348 -0.526146 0)
(-0.011448 -0.577275 0)
(-0.0116252 -0.614639 0)
(-0.0118348 -0.64104 0)
(-0.01208 -0.659381 0)
(-0.0123258 -0.671943 0)
(-0.0125725 -0.680532 0)
(-0.012796 -0.686295 0)
(-0.0129993 -0.690042 0)
(-0.0131652 -0.692115 0)
(-0.013304 -0.692671 0)
(-0.013402 -0.691527 0)
(-0.0134659 -0.688416 0)
(-0.0134946 -0.682887 0)
(-0.0134891 -0.674715 0)
(-0.0134873 -0.664202 0)
(-0.0134546 -0.654799 0)
(-0.016744 -0.309337 0)
(-0.0163447 -0.381474 0)
(-0.015921 -0.460669 0)
(-0.0159686 -0.526962 0)
(-0.0159848 -0.577841 0)
(-0.0160474 -0.614989 0)
(-0.0161388 -0.641234 0)
(-0.016262 -0.65946 0)
(-0.0163895 -0.671957 0)
(-0.0165257 -0.68051 0)
(-0.0166499 -0.686268 0)
(-0.016767 -0.690025 0)
(-0.0168656 -0.692126 0)
(-0.0169459 -0.692714 0)
(-0.017003 -0.691609 0)
(-0.0170416 -0.688533 0)
(-0.0170545 -0.683036 0)
(-0.017042 -0.674881 0)
(-0.0170417 -0.664376 0)
(-0.0169963 -0.654956 0)
(-0.0205667 -0.31091 0)
(-0.0210719 -0.382962 0)
(-0.0206405 -0.461842 0)
(-0.0206826 -0.527887 0)
(-0.0206375 -0.578567 0)
(-0.020619 -0.615541 0)
(-0.0206187 -0.64165 0)
(-0.0206464 -0.659764 0)
(-0.0206796 -0.672184 0)
(-0.0207262 -0.68068 0)
(-0.0207673 -0.686406 0)
(-0.0208103 -0.690143 0)
(-0.0208383 -0.692237 0)
(-0.0208644 -0.692823 0)
(-0.0208737 -0.691722 0)
(-0.0208741 -0.688647 0)
(-0.0208601 -0.683152 0)
(-0.0208249 -0.674997 0)
(-0.0208166 -0.664502 0)
(-0.0207564 -0.655095 0)
(-0.0239453 -0.312189 0)
(-0.0255851 -0.384371 0)
(-0.0252693 -0.463151 0)
(-0.025327 -0.529059 0)
(-0.0252454 -0.579591 0)
(-0.0251605 -0.616419 0)
(-0.0250889 -0.642397 0)
(-0.0250395 -0.660398 0)
(-0.0249983 -0.67273 0)
(-0.0249724 -0.681155 0)
(-0.024947 -0.686831 0)
(-0.0249282 -0.690527 0)
(-0.0249065 -0.692596 0)
(-0.0248829 -0.693158 0)
(-0.0248525 -0.692041 0)
(-0.0248197 -0.68895 0)
(-0.0247768 -0.683443 0)
(-0.0247191 -0.675273 0)
(-0.024703 -0.664771 0)
(-0.0246343 -0.655357 0)
(-0.0278373 -0.313465 0)
(-0.0302603 -0.385885 0)
(-0.029861 -0.46465 0)
(-0.0298782 -0.530453 0)
(-0.0297304 -0.580841 0)
(-0.0295841 -0.617514 0)
(-0.0294508 -0.643351 0)
(-0.0293444 -0.661228 0)
(-0.029247 -0.673461 0)
(-0.0291692 -0.681802 0)
(-0.0290938 -0.687416 0)
(-0.0290293 -0.69106 0)
(-0.0289604 -0.693089 0)
(-0.0288996 -0.693616 0)
(-0.0288331 -0.692471 0)
(-0.0287679 -0.68935 0)
(-0.0286988 -0.683818 0)
(-0.0286146 -0.675622 0)
(-0.0285814 -0.665099 0)
(-0.0284876 -0.655667 0)
(-0.031396 -0.31469 0)
(-0.0345367 -0.387295 0)
(-0.0341413 -0.466098 0)
(-0.0341591 -0.531815 0)
(-0.0339873 -0.582087 0)
(-0.0338092 -0.618616 0)
(-0.0336476 -0.644332 0)
(-0.0335098 -0.662091 0)
(-0.0333837 -0.674234 0)
(-0.0332745 -0.682495 0)
(-0.0331703 -0.688049 0)
(-0.0330753 -0.691639 0)
(-0.0329829 -0.693628 0)
(-0.0328927 -0.694117 0)
(-0.0328025 -0.69294 0)
(-0.0327143 -0.689786 0)
(-0.0326229 -0.684225 0)
(-0.0325187 -0.675996 0)
(-0.0324755 -0.665446 0)
(-0.0323697 -0.655991 0)
(-0.0348077 -0.315236 0)
(-0.0386399 -0.388154 0)
(-0.0382686 -0.467142 0)
(-0.0383014 -0.532891 0)
(-0.0381215 -0.58312 0)
(-0.0379207 -0.619569 0)
(-0.0377437 -0.645205 0)
(-0.0375848 -0.662884 0)
(-0.0374422 -0.674962 0)
(-0.0373122 -0.683163 0)
(-0.0371895 -0.688672 0)
(-0.0370727 -0.692219 0)
(-0.0369561 -0.694175 0)
(-0.036845 -0.694628 0)
(-0.0367331 -0.693422 0)
(-0.0366223 -0.690235 0)
(-0.0365123 -0.684643 0)
(-0.0363864 -0.676379 0)
(-0.0363281 -0.665798 0)
(-0.0361991 -0.656317 0)
(-0.0391655 -0.315513 0)
(-0.0430522 -0.388727 0)
(-0.0425131 -0.467942 0)
(-0.0424919 -0.533773 0)
(-0.0422633 -0.583995 0)
(-0.0420234 -0.620405 0)
(-0.0418188 -0.645986 0)
(-0.0416333 -0.663611 0)
(-0.041471 -0.675641 0)
(-0.041319 -0.6838 0)
(-0.0411788 -0.689272 0)
(-0.0410414 -0.692787 0)
(-0.0409113 -0.694714 0)
(-0.0407789 -0.695138 0)
(-0.0406507 -0.693904 0)
(-0.0405219 -0.690686 0)
(-0.0403941 -0.685061 0)
(-0.0402511 -0.676761 0)
(-0.0401858 -0.666141 0)
(-0.0400487 -0.656631 0)
(-0.0430626 -0.3159 0)
(-0.0474137 -0.389378 0)
(-0.0467895 -0.468778 0)
(-0.046717 -0.534658 0)
(-0.0464288 -0.584853 0)
(-0.0461355 -0.621216 0)
(-0.0458912 -0.64674 0)
(-0.0456721 -0.664313 0)
(-0.0454838 -0.676294 0)
(-0.0453077 -0.684413 0)
(-0.045147 -0.689852 0)
(-0.0449885 -0.693337 0)
(-0.0448354 -0.695236 0)
(-0.0446839 -0.695633 0)
(-0.0445359 -0.694369 0)
(-0.0443861 -0.691119 0)
(-0.0442407 -0.685459 0)
(-0.0440776 -0.677117 0)
(-0.0439993 -0.666451 0)
(-0.0438441 -0.656906 0)
(-0.0474642 -0.316396 0)
(-0.0518146 -0.390092 0)
(-0.05101 -0.469645 0)
(-0.0508869 -0.53555 0)
(-0.0505439 -0.58571 0)
(-0.0502081 -0.622014 0)
(-0.0499301 -0.647476 0)
(-0.0496834 -0.664993 0)
(-0.0494719 -0.676927 0)
(-0.0492731 -0.685006 0)
(-0.0490925 -0.690412 0)
(-0.0489128 -0.693867 0)
(-0.0487448 -0.695738 0)
(-0.0485716 -0.696106 0)
(-0.0484064 -0.694812 0)
(-0.0482383 -0.691528 0)
(-0.0480747 -0.685828 0)
(-0.0478947 -0.677438 0)
(-0.0478094 -0.666716 0)
(-0.0476485 -0.657131 0)
(-0.0511659 -0.316667 0)
(-0.0558396 -0.390578 0)
(-0.0550404 -0.470342 0)
(-0.0549557 -0.53632 0)
(-0.0546079 -0.586482 0)
(-0.0542507 -0.622747 0)
(-0.0539511 -0.648161 0)
(-0.0536789 -0.665631 0)
(-0.0534442 -0.677524 0)
(-0.0532205 -0.685568 0)
(-0.0530172 -0.690942 0)
(-0.0528138 -0.694367 0)
(-0.0526198 -0.69621 0)
(-0.0524249 -0.696547 0)
(-0.0522374 -0.695221 0)
(-0.0520464 -0.691897 0)
(-0.0518635 -0.686154 0)
(-0.0516625 -0.677708 0)
(-0.0515625 -0.666918 0)
(-0.0513844 -0.657283 0)
(-0.0553192 -0.31662 0)
(-0.0600194 -0.390875 0)
(-0.0591535 -0.470944 0)
(-0.059079 -0.537051 0)
(-0.0587068 -0.587231 0)
(-0.0583162 -0.623471 0)
(-0.0579833 -0.648839 0)
(-0.0576767 -0.666263 0)
(-0.0574099 -0.678112 0)
(-0.0571544 -0.686117 0)
(-0.0569223 -0.691456 0)
(-0.0566904 -0.694849 0)
(-0.0564747 -0.69666 0)
(-0.0562525 -0.696963 0)
(-0.0560427 -0.6956 0)
(-0.0558297 -0.692234 0)
(-0.0556247 -0.68644 0)
(-0.0554043 -0.67793 0)
(-0.0552936 -0.667061 0)
(-0.0551059 -0.657368 0)
(-0.0597424 -0.316831 0)
(-0.0642514 -0.391394 0)
(-0.063265 -0.47173 0)
(-0.0631935 -0.537925 0)
(-0.0627872 -0.58809 0)
(-0.0623608 -0.624275 0)
(-0.0619899 -0.649573 0)
(-0.0616475 -0.666933 0)
(-0.0613449 -0.678724 0)
(-0.0610564 -0.68668 0)
(-0.0607921 -0.691976 0)
(-0.0605296 -0.69533 0)
(-0.0602799 -0.697105 0)
(-0.0600313 -0.697369 0)
(-0.0597933 -0.695965 0)
(-0.059553 -0.692551 0)
(-0.059324 -0.686702 0)
(-0.0590796 -0.678123 0)
(-0.0589474 -0.667163 0)
(-0.0587329 -0.657406 0)
(-0.0641044 -0.317208 0)
(-0.0682755 -0.392078 0)
(-0.0672116 -0.472659 0)
(-0.0671746 -0.538904 0)
(-0.0667597 -0.589031 0)
(-0.0663154 -0.625139 0)
(-0.0659215 -0.650358 0)
(-0.065554 -0.667641 0)
(-0.0652235 -0.679368 0)
(-0.0649063 -0.687269 0)
(-0.0646123 -0.692519 0)
(-0.0643205 -0.695831 0)
(-0.0640464 -0.697566 0)
(-0.0637673 -0.69779 0)
(-0.0635028 -0.696344 0)
(-0.063237 -0.692879 0)
(-0.0629814 -0.686974 0)
(-0.0627136 -0.67832 0)
(-0.0625624 -0.667265 0)
(-0.0623263 -0.657437 0)
(-0.0686219 -0.317568 0)
(-0.0722348 -0.392688 0)
(-0.0710363 -0.473516 0)
(-0.0710433 -0.539827 0)
(-0.0706327 -0.589938 0)
(-0.0701862 -0.625989 0)
(-0.0697821 -0.651144 0)
(-0.0693988 -0.668362 0)
(-0.0690467 -0.680036 0)
(-0.0687051 -0.687888 0)
(-0.0683835 -0.693099 0)
(-0.0680632 -0.696372 0)
(-0.067754 -0.698072 0)
(-0.0674468 -0.698257 0)
(-0.0671504 -0.696772 0)
(-0.0668538 -0.693259 0)
(-0.0665694 -0.687298 0)
(-0.0662732 -0.678569 0)
(-0.0660901 -0.667416 0)
(-0.0658101 -0.657516 0)
(-0.0727399 -0.317673 0)
(-0.0760357 -0.393091 0)
(-0.0748197 -0.474218 0)
(-0.0748936 -0.540648 0)
(-0.0745001 -0.590783 0)
(-0.0740489 -0.626813 0)
(-0.0736318 -0.65193 0)
(-0.0732266 -0.669106 0)
(-0.0728484 -0.680742 0)
(-0.0724773 -0.688559 0)
(-0.0721244 -0.693739 0)
(-0.0717718 -0.696982 0)
(-0.0714349 -0.698655 0)
(-0.0710932 -0.698807 0)
(-0.0707659 -0.697288 0)
(-0.0704397 -0.693732 0)
(-0.0701242 -0.687719 0)
(-0.0698004 -0.678918 0)
(-0.0695888 -0.66767 0)
(-0.0692698 -0.6577 0)
(-0.077545 -0.317871 0)
(-0.0802923 -0.393586 0)
(-0.078855 -0.474976 0)
(-0.0789035 -0.541518 0)
(-0.0784641 -0.591674 0)
(-0.0779722 -0.627692 0)
(-0.0775137 -0.652781 0)
(-0.0770697 -0.669926 0)
(-0.0766515 -0.681531 0)
(-0.0762424 -0.68932 0)
(-0.0758506 -0.694476 0)
(-0.0754613 -0.697695 0)
(-0.0750815 -0.699345 0)
(-0.0747056 -0.69947 0)
(-0.0743401 -0.69792 0)
(-0.0739787 -0.694325 0)
(-0.0736291 -0.688265 0)
(-0.073272 -0.679398 0)
(-0.0730169 -0.668062 0)
(-0.0726342 -0.658028 0)
(-0.0820449 -0.318663 0)
(-0.0845713 -0.394547 0)
(-0.0829697 -0.476053 0)
(-0.0829763 -0.542616 0)
(-0.0824738 -0.592748 0)
(-0.0819242 -0.628727 0)
(-0.0814126 -0.653774 0)
(-0.0809219 -0.670877 0)
(-0.0804577 -0.682446 0)
(-0.0800057 -0.690205 0)
(-0.0795709 -0.695338 0)
(-0.0791407 -0.698535 0)
(-0.0787254 -0.700165 0)
(-0.078309 -0.700268 0)
(-0.0779068 -0.698694 0)
(-0.0775101 -0.695067 0)
(-0.0771234 -0.688966 0)
(-0.076733 -0.680043 0)
(-0.0764397 -0.668628 0)
(-0.0760016 -0.658538 0)
(-0.0862672 -0.319764 0)
(-0.0887692 -0.395777 0)
(-0.0870186 -0.477352 0)
(-0.0870013 -0.543909 0)
(-0.0864501 -0.594006 0)
(-0.0858553 -0.629924 0)
(-0.0852982 -0.654914 0)
(-0.0847651 -0.671968 0)
(-0.0842567 -0.683502 0)
(-0.0837629 -0.691232 0)
(-0.083285 -0.696343 0)
(-0.082814 -0.699521 0)
(-0.0823515 -0.701135 0)
(-0.0818971 -0.701218 0)
(-0.0814526 -0.699623 0)
(-0.0810164 -0.695967 0)
(-0.0805909 -0.689832 0)
(-0.0801623 -0.680858 0)
(-0.0798173 -0.669375 0)
(-0.0793011 -0.659235 0)
(-0.0898498 -0.320741 0)
(-0.0927479 -0.396978 0)
(-0.0909991 -0.478681 0)
(-0.0909888 -0.545269 0)
(-0.0904108 -0.595351 0)
(-0.0897786 -0.631225 0)
(-0.0891812 -0.656174 0)
(-0.0886058 -0.67319 0)
(-0.088055 -0.684696 0)
(-0.087519 -0.692402 0)
(-0.0869988 -0.697497 0)
(-0.0864861 -0.70066 0)
(-0.0859869 -0.702261 0)
(-0.0854899 -0.70233 0)
(-0.0850061 -0.700717 0)
(-0.0845317 -0.69704 0)
(-0.0840658 -0.690874 0)
(-0.0835998 -0.68186 0)
(-0.0832099 -0.670321 0)
(-0.0826276 -0.660141 0)
(-0.0939146 -0.321645 0)
(-0.0969739 -0.398188 0)
(-0.0950854 -0.480053 0)
(-0.0950383 -0.54669 0)
(-0.0944078 -0.596768 0)
(-0.0937269 -0.63262 0)
(-0.0930819 -0.65754 0)
(-0.0924613 -0.674529 0)
(-0.0918659 -0.686014 0)
(-0.0912872 -0.693704 0)
(-0.0907239 -0.698789 0)
(-0.0901696 -0.701942 0)
(-0.0896231 -0.703536 0)
(-0.0890861 -0.703594 0)
(-0.0885586 -0.70197 0)
(-0.0880425 -0.698272 0)
(-0.0875352 -0.692083 0)
(-0.0870273 -0.683034 0)
(-0.0865812 -0.671452 0)
(-0.0859138 -0.661237 0)
(-0.09786 -0.322829 0)
(-0.101228 -0.399603 0)
(-0.0992319 -0.481569 0)
(-0.0991389 -0.548232 0)
(-0.0984487 -0.598299 0)
(-0.0977116 -0.634128 0)
(-0.0970157 -0.659024 0)
(-0.0963471 -0.675992 0)
(-0.0957054 -0.687463 0)
(-0.0950813 -0.695145 0)
(-0.094473 -0.700224 0)
(-0.093874 -0.703375 0)
(-0.0932874 -0.704966 0)
(-0.092705 -0.70502 0)
(-0.0921351 -0.703385 0)
(-0.0915766 -0.699676 0)
(-0.0910254 -0.693466 0)
(-0.0904756 -0.684392 0)
(-0.0899802 -0.672778 0)
(-0.0892419 -0.66254 0)
(-0.101703 -0.324137 0)
(-0.105468 -0.40112 0)
(-0.103371 -0.483179 0)
(-0.103251 -0.549871 0)
(-0.102514 -0.599937 0)
(-0.10173 -0.635749 0)
(-0.100987 -0.660627 0)
(-0.100271 -0.677581 0)
(-0.0995826 -0.689045 0)
(-0.0989116 -0.696723 0)
(-0.0982564 -0.701802 0)
(-0.0976108 -0.704954 0)
(-0.0969737 -0.706544 0)
(-0.0963462 -0.706595 0)
(-0.0957285 -0.704954 0)
(-0.0951237 -0.701232 0)
(-0.0945269 -0.695007 0)
(-0.0939306 -0.68591 0)
(-0.0933772 -0.674276 0)
(-0.0925544 -0.664016 0)
(-0.105368 -0.325452 0)
(-0.109692 -0.402716 0)
(-0.107566 -0.484888 0)
(-0.107421 -0.551626 0)
(-0.106639 -0.601698 0)
(-0.105803 -0.637502 0)
(-0.10501 -0.662369 0)
(-0.104244 -0.679315 0)
(-0.103505 -0.690773 0)
(-0.102783 -0.698451 0)
(-0.102077 -0.703531 0)
(-0.101381 -0.706685 0)
(-0.100697 -0.708275 0)
(-0.100018 -0.708325 0)
(-0.0993525 -0.706677 0)
(-0.0986995 -0.702946 0)
(-0.0980536 -0.696705 0)
(-0.0974099 -0.687593 0)
(-0.0968052 -0.675944 0)
(-0.0959144 -0.665671 0)
(-0.109595 -0.32687 0)
(-0.114092 -0.404447 0)
(-0.111824 -0.486723 0)
(-0.111646 -0.553508 0)
(-0.110813 -0.603589 0)
(-0.109927 -0.63939 0)
(-0.109082 -0.664247 0)
(-0.108263 -0.681187 0)
(-0.107471 -0.692641 0)
(-0.106696 -0.700318 0)
(-0.105937 -0.705399 0)
(-0.105187 -0.708555 0)
(-0.104447 -0.710145 0)
(-0.103717 -0.710192 0)
(-0.102998 -0.708537 0)
(-0.102293 -0.704794 0)
(-0.101597 -0.698537 0)
(-0.100902 -0.689407 0)
(-0.100241 -0.677749 0)
(-0.0992758 -0.667459 0)
(-0.113824 -0.328635 0)
(-0.118582 -0.406441 0)
(-0.11619 -0.48875 0)
(-0.11596 -0.55555 0)
(-0.115062 -0.605628 0)
(-0.114113 -0.64142 0)
(-0.113207 -0.666265 0)
(-0.11233 -0.683198 0)
(-0.111479 -0.694646 0)
(-0.110646 -0.702323 0)
(-0.109829 -0.707402 0)
(-0.109023 -0.710559 0)
(-0.108229 -0.712146 0)
(-0.107441 -0.712188 0)
(-0.106668 -0.710523 0)
(-0.10591 -0.706767 0)
(-0.10516 -0.700491 0)
(-0.104414 -0.691343 0)
(-0.103703 -0.679673 0)
(-0.102679 -0.669367 0)
(-0.117886 -0.330578 0)
(-0.123021 -0.408606 0)
(-0.120543 -0.490926 0)
(-0.120289 -0.557728 0)
(-0.119339 -0.607799 0)
(-0.118333 -0.643579 0)
(-0.117368 -0.66841 0)
(-0.116431 -0.685331 0)
(-0.115519 -0.696771 0)
(-0.114626 -0.704444 0)
(-0.113749 -0.70952 0)
(-0.112883 -0.712673 0)
(-0.112029 -0.714253 0)
(-0.111184 -0.714287 0)
(-0.110354 -0.712608 0)
(-0.109539 -0.708834 0)
(-0.108734 -0.702535 0)
(-0.107935 -0.693364 0)
(-0.107172 -0.681678 0)
(-0.106087 -0.671348 0)
(-0.121856 -0.332513 0)
(-0.127482 -0.4108 0)
(-0.124946 -0.493171 0)
(-0.124663 -0.559998 0)
(-0.123655 -0.610074 0)
(-0.122585 -0.645846 0)
(-0.121557 -0.670667 0)
(-0.120556 -0.687579 0)
(-0.119581 -0.699009 0)
(-0.118625 -0.706674 0)
(-0.117687 -0.711742 0)
(-0.116759 -0.714888 0)
(-0.115846 -0.716458 0)
(-0.114941 -0.71648 0)
(-0.114052 -0.714782 0)
(-0.113179 -0.710987 0)
(-0.112317 -0.704659 0)
(-0.111463 -0.695458 0)
(-0.110651 -0.683743 0)
(-0.109515 -0.673381 0)
(-0.12585 -0.334383 0)
(-0.131957 -0.412984 0)
(-0.129361 -0.495458 0)
(-0.129051 -0.562336 0)
(-0.127988 -0.612429 0)
(-0.126854 -0.648199 0)
(-0.125761 -0.67301 0)
(-0.124695 -0.68991 0)
(-0.123656 -0.701329 0)
(-0.122636 -0.708984 0)
(-0.121634 -0.714041 0)
(-0.120643 -0.717176 0)
(-0.119667 -0.718733 0)
(-0.1187 -0.718739 0)
(-0.11775 -0.71702 0)
(-0.116817 -0.713197 0)
(-0.115897 -0.706835 0)
(-0.114986 -0.697595 0)
(-0.114123 -0.685842 0)
(-0.112935 -0.675437 0)
(-0.129958 -0.336193 0)
(-0.136461 -0.415139 0)
(-0.133796 -0.497763 0)
(-0.133458 -0.564719 0)
(-0.132337 -0.614843 0)
(-0.131137 -0.65062 0)
(-0.129979 -0.675425 0)
(-0.128845 -0.692315 0)
(-0.127741 -0.703723 0)
(-0.126654 -0.711367 0)
(-0.125587 -0.716414 0)
(-0.12453 -0.719536 0)
(-0.123489 -0.721077 0)
(-0.122457 -0.721065 0)
(-0.121444 -0.71932 0)
(-0.120449 -0.715464 0)
(-0.119468 -0.709061 0)
(-0.118498 -0.699774 0)
(-0.117584 -0.68797 0)
(-0.116345 -0.677513 0)
(-0.134125 -0.33794 0)
(-0.140967 -0.417252 0)
(-0.138229 -0.500072 0)
(-0.137872 -0.567137 0)
(-0.136697 -0.617309 0)
(-0.135433 -0.653104 0)
(-0.134209 -0.677908 0)
(-0.133007 -0.694791 0)
(-0.131834 -0.706188 0)
(-0.130678 -0.713823 0)
(-0.129542 -0.718857 0)
(-0.128416 -0.721967 0)
(-0.127306 -0.72349 0)
(-0.126207 -0.723455 0)
(-0.125127 -0.721679 0)
(-0.124066 -0.717787 0)
(-0.123022 -0.711336 0)
(-0.121989 -0.701993 0)
(-0.121019 -0.690126 0)
(-0.119726 -0.679607 0)
(-0.138348 -0.339662 0)
(-0.145546 -0.419356 0)
(-0.142723 -0.502416 0)
(-0.142329 -0.569613 0)
(-0.141089 -0.619849 0)
(-0.139753 -0.655668 0)
(-0.138456 -0.680474 0)
(-0.13718 -0.697351 0)
(-0.135934 -0.708739 0)
(-0.134704 -0.716363 0)
(-0.133495 -0.721383 0)
(-0.132296 -0.724477 0)
(-0.131115 -0.72598 0)
(-0.129944 -0.725919 0)
(-0.128795 -0.72411 0)
(-0.127664 -0.720176 0)
(-0.126552 -0.713673 0)
(-0.125452 -0.704268 0)
(-0.124423 -0.692325 0)
(-0.123072 -0.681734 0)
(-0.142569 -0.341411 0)
(-0.150148 -0.421518 0)
(-0.147238 -0.504845 0)
(-0.146806 -0.572189 0)
(-0.145497 -0.622494 0)
(-0.144086 -0.658338 0)
(-0.142712 -0.683148 0)
(-0.141358 -0.700018 0)
(-0.140034 -0.711393 0)
(-0.138726 -0.719004 0)
(-0.137441 -0.724009 0)
(-0.136165 -0.727085 0)
(-0.134909 -0.728564 0)
(-0.133662 -0.728474 0)
(-0.132438 -0.726628 0)
(-0.131234 -0.722648 0)
(-0.13005 -0.716088 0)
(-0.128879 -0.706611 0)
(-0.127785 -0.694582 0)
(-0.126371 -0.683911 0)
(-0.146881 -0.34321 0)
(-0.154773 -0.423755 0)
(-0.151764 -0.507371 0)
(-0.15129 -0.574873 0)
(-0.149912 -0.625255 0)
(-0.148423 -0.66113 0)
(-0.146971 -0.685944 0)
(-0.145536 -0.702808 0)
(-0.144131 -0.71417 0)
(-0.142742 -0.721765 0)
(-0.141375 -0.726751 0)
(-0.140019 -0.729806 0)
(-0.138683 -0.73126 0)
(-0.137356 -0.731139 0)
(-0.136053 -0.729253 0)
(-0.13477 -0.725224 0)
(-0.133509 -0.718601 0)
(-0.132263 -0.709046 0)
(-0.1311 -0.696921 0)
(-0.129615 -0.686164 0)
(-0.1512 -0.34505 0)
(-0.159385 -0.426044 0)
(-0.15628 -0.509978 0)
(-0.155773 -0.57766 0)
(-0.154328 -0.628133 0)
(-0.152762 -0.664048 0)
(-0.151229 -0.688873 0)
(-0.149711 -0.705735 0)
(-0.148222 -0.717085 0)
(-0.146747 -0.724663 0)
(-0.145295 -0.729629 0)
(-0.143852 -0.732662 0)
(-0.14243 -0.734088 0)
(-0.141019 -0.733934 0)
(-0.139633 -0.732006 0)
(-0.138267 -0.727924 0)
(-0.136925 -0.721232 0)
(-0.135598 -0.71159 0)
(-0.13436 -0.699364 0)
(-0.1328 -0.688513 0)
(-0.15554 -0.346947 0)
(-0.164064 -0.428409 0)
(-0.160853 -0.512689 0)
(-0.160293 -0.580573 0)
(-0.158768 -0.631151 0)
(-0.157114 -0.667115 0)
(-0.155493 -0.691957 0)
(-0.153885 -0.708817 0)
(-0.152305 -0.720158 0)
(-0.150739 -0.727722 0)
(-0.149196 -0.732668 0)
(-0.147662 -0.735677 0)
(-0.14615 -0.737073 0)
(-0.144648 -0.736881 0)
(-0.143173 -0.734906 0)
(-0.14172 -0.730764 0)
(-0.140291 -0.723999 0)
(-0.138878 -0.714267 0)
(-0.137561 -0.701931 0)
(-0.135917 -0.69098 0)
(-0.159843 -0.348938 0)
(-0.16876 -0.430901 0)
(-0.165447 -0.515549 0)
(-0.164831 -0.583647 0)
(-0.163219 -0.634339 0)
(-0.161473 -0.670357 0)
(-0.159757 -0.695216 0)
(-0.158052 -0.712077 0)
(-0.156376 -0.723407 0)
(-0.154713 -0.730954 0)
(-0.153073 -0.735879 0)
(-0.151443 -0.738862 0)
(-0.149835 -0.740226 0)
(-0.148238 -0.739994 0)
(-0.146669 -0.737969 0)
(-0.145121 -0.733766 0)
(-0.143601 -0.726923 0)
(-0.142097 -0.717096 0)
(-0.140693 -0.704644 0)
(-0.138961 -0.693586 0)
(-0.164216 -0.351024 0)
(-0.17348 -0.433522 0)
(-0.170054 -0.518564 0)
(-0.169376 -0.586892 0)
(-0.167676 -0.637707 0)
(-0.165831 -0.673785 0)
(-0.164016 -0.698667 0)
(-0.162209 -0.71553 0)
(-0.160431 -0.72685 0)
(-0.158665 -0.734381 0)
(-0.156923 -0.739283 0)
(-0.15519 -0.742239 0)
(-0.153481 -0.743568 0)
(-0.151783 -0.743293 0)
(-0.150114 -0.741215 0)
(-0.148468 -0.736946 0)
(-0.14685 -0.73002 0)
(-0.145249 -0.720092 0)
(-0.143754 -0.707517 0)
(-0.141926 -0.696347 0)
(-0.168602 -0.353194 0)
(-0.178195 -0.436253 0)
(-0.174655 -0.521721 0)
(-0.173923 -0.590304 0)
(-0.172132 -0.641261 0)
(-0.170188 -0.67741 0)
(-0.168268 -0.702321 0)
(-0.166355 -0.71919 0)
(-0.164469 -0.730502 0)
(-0.162594 -0.738016 0)
(-0.160743 -0.742896 0)
(-0.158901 -0.745822 0)
(-0.157084 -0.747114 0)
(-0.155278 -0.746795 0)
(-0.153503 -0.744659 0)
(-0.151751 -0.74032 0)
(-0.15003 -0.733308 0)
(-0.148327 -0.723273 0)
(-0.146734 -0.710569 0)
(-0.144807 -0.699278 0)
(-0.173022 -0.355464 0)
(-0.182976 -0.439114 0)
(-0.179312 -0.525045 0)
(-0.178503 -0.593908 0)
(-0.176608 -0.645021 0)
(-0.174552 -0.681251 0)
(-0.172518 -0.706197 0)
(-0.170489 -0.723074 0)
(-0.168487 -0.734379 0)
(-0.166496 -0.741877 0)
(-0.164529 -0.746732 0)
(-0.162571 -0.749627 0)
(-0.160639 -0.75088 0)
(-0.158719 -0.750512 0)
(-0.156831 -0.748317 0)
(-0.154968 -0.743903 0)
(-0.153138 -0.736799 0)
(-0.151326 -0.726651 0)
(-0.149629 -0.713811 0)
(-0.147595 -0.702393 0)
(-0.177466 -0.357877 0)
(-0.187778 -0.442163 0)
(-0.183982 -0.52858 0)
(-0.183091 -0.597735 0)
(-0.181086 -0.649014 0)
(-0.178911 -0.68533 0)
(-0.176756 -0.710313 0)
(-0.174605 -0.727201 0)
(-0.172481 -0.738499 0)
(-0.170365 -0.74598 0)
(-0.168276 -0.750809 0)
(-0.166195 -0.753671 0)
(-0.164141 -0.754882 0)
(-0.1621 -0.754463 0)
(-0.160092 -0.752203 0)
(-0.15811 -0.747711 0)
(-0.156164 -0.740509 0)
(-0.154237 -0.730242 0)
(-0.15243 -0.71726 0)
(-0.150283 -0.705707 0)
(-0.182038 -0.360447 0)
(-0.192593 -0.445404 0)
(-0.18865 -0.532324 0)
(-0.187675 -0.601786 0)
(-0.185556 -0.653241 0)
(-0.183258 -0.68965 0)
(-0.180978 -0.714677 0)
(-0.178698 -0.731578 0)
(-0.176444 -0.742871 0)
(-0.174198 -0.750336 0)
(-0.171978 -0.755138 0)
(-0.169768 -0.757966 0)
(-0.167585 -0.759133 0)
(-0.165415 -0.75866 0)
(-0.163281 -0.756332 0)
(-0.161174 -0.751757 0)
(-0.159103 -0.744452 0)
(-0.157055 -0.734059 0)
(-0.155132 -0.720927 0)
(-0.152864 -0.709231 0)
(-0.186685 -0.363173 0)
(-0.197401 -0.448812 0)
(-0.193302 -0.536258 0)
(-0.192251 -0.60605 0)
(-0.190017 -0.6577 0)
(-0.187594 -0.694218 0)
(-0.185183 -0.719298 0)
(-0.182768 -0.736219 0)
(-0.180377 -0.74751 0)
(-0.177994 -0.754959 0)
(-0.175635 -0.759736 0)
(-0.173286 -0.762528 0)
(-0.170965 -0.76365 0)
(-0.168659 -0.763118 0)
(-0.16639 -0.76072 0)
(-0.164149 -0.756056 0)
(-0.161948 -0.748643 0)
(-0.15977 -0.738118 0)
(-0.157723 -0.724828 0)
(-0.15533 -0.712981 0)
(-0.191356 -0.366062 0)
(-0.202269 -0.4524 0)
(-0.198009 -0.540398 0)
(-0.196859 -0.610546 0)
(-0.194496 -0.662411 0)
(-0.191933 -0.699051 0)
(-0.189379 -0.724194 0)
(-0.186818 -0.74114 0)
(-0.18428 -0.752433 0)
(-0.181749 -0.759869 0)
(-0.179243 -0.764619 0)
(-0.176746 -0.767374 0)
(-0.17428 -0.768447 0)
(-0.171828 -0.767855 0)
(-0.169416 -0.765381 0)
(-0.167033 -0.760624 0)
(-0.164692 -0.753096 0)
(-0.162377 -0.742432 0)
(-0.160198 -0.728975 0)
(-0.157671 -0.716968 0)
(-0.196019 -0.369141 0)
(-0.207168 -0.456219 0)
(-0.202741 -0.544794 0)
(-0.201486 -0.615313 0)
(-0.198983 -0.667407 0)
(-0.19627 -0.704179 0)
(-0.193562 -0.72939 0)
(-0.190846 -0.746366 0)
(-0.18815 -0.757662 0)
(-0.185461 -0.765084 0)
(-0.182797 -0.769807 0)
(-0.180143 -0.772524 0)
(-0.17752 -0.773546 0)
(-0.174914 -0.77289 0)
(-0.172348 -0.770336 0)
(-0.169814 -0.76548 0)
(-0.167326 -0.757831 0)
(-0.164865 -0.747019 0)
(-0.162546 -0.733388 0)
(-0.159878 -0.72121 0)
(-0.200749 -0.3724 0)
(-0.212081 -0.46027 0)
(-0.207484 -0.549452 0)
(-0.206118 -0.620366 0)
(-0.203469 -0.672703 0)
(-0.200598 -0.709618 0)
(-0.197728 -0.734904 0)
(-0.194845 -0.751914 0)
(-0.191982 -0.763216 0)
(-0.189124 -0.770625 0)
(-0.186292 -0.77532 0)
(-0.183471 -0.777996 0)
(-0.180682 -0.778964 0)
(-0.177911 -0.77824 0)
(-0.175183 -0.775601 0)
(-0.172489 -0.770641 0)
(-0.169842 -0.762863 0)
(-0.167226 -0.751895 0)
(-0.164759 -0.73808 0)
(-0.161941 -0.72572 0)
(-0.205569 -0.375842 0)
(-0.217011 -0.464541 0)
(-0.212227 -0.554368 0)
(-0.210751 -0.625708 0)
(-0.207951 -0.678311 0)
(-0.204914 -0.715383 0)
(-0.201872 -0.740756 0)
(-0.198814 -0.757805 0)
(-0.195773 -0.769116 0)
(-0.192736 -0.776512 0)
(-0.189725 -0.781178 0)
(-0.186725 -0.783811 0)
(-0.183758 -0.784723 0)
(-0.180811 -0.783927 0)
(-0.17791 -0.781198 0)
(-0.175044 -0.776127 0)
(-0.17223 -0.768213 0)
(-0.169448 -0.75708 0)
(-0.166822 -0.74307 0)
(-0.163846 -0.730518 0)
(-0.210438 -0.379484 0)
(-0.221988 -0.469052 0)
(-0.217011 -0.559565 0)
(-0.215408 -0.63136 0)
(-0.212442 -0.684252 0)
(-0.209226 -0.721498 0)
(-0.205999 -0.746966 0)
(-0.202751 -0.764061 0)
(-0.199519 -0.775383 0)
(-0.196291 -0.782768 0)
(-0.193089 -0.787405 0)
(-0.189898 -0.789993 0)
(-0.186743 -0.790844 0)
(-0.183609 -0.789972 0)
(-0.180522 -0.787147 0)
(-0.177474 -0.781959 0)
(-0.17448 -0.7739 0)
(-0.171524 -0.762593 0)
(-0.168729 -0.748377 0)
(-0.165586 -0.735619 0)
(-0.215387 -0.383364 0)
(-0.227012 -0.473851 0)
(-0.22182 -0.56508 0)
(-0.220078 -0.637357 0)
(-0.216934 -0.690556 0)
(-0.213526 -0.727989 0)
(-0.210102 -0.753561 0)
(-0.206653 -0.770706 0)
(-0.203218 -0.782043 0)
(-0.199785 -0.789417 0)
(-0.196378 -0.794024 0)
(-0.192984 -0.796565 0)
(-0.189626 -0.797352 0)
(-0.186292 -0.796399 0)
(-0.183007 -0.793473 0)
(-0.179764 -0.788159 0)
(-0.17658 -0.779948 0)
(-0.173437 -0.768455 0)
(-0.170461 -0.754022 0)
(-0.167141 -0.741046 0)
(-0.220442 -0.3875 0)
(-0.232059 -0.478955 0)
(-0.226644 -0.570931 0)
(-0.224754 -0.643713 0)
(-0.221422 -0.697239 0)
(-0.217812 -0.734873 0)
(-0.214178 -0.760561 0)
(-0.210515 -0.777763 0)
(-0.206863 -0.789119 0)
(-0.203212 -0.796483 0)
(-0.199587 -0.801059 0)
(-0.195976 -0.80355 0)
(-0.192403 -0.804271 0)
(-0.188855 -0.803231 0)
(-0.185359 -0.800198 0)
(-0.181909 -0.794752 0)
(-0.178521 -0.786378 0)
(-0.175178 -0.774689 0)
(-0.172011 -0.760025 0)
(-0.168503 -0.746816 0)
(-0.225621 -0.391907 0)
(-0.237146 -0.484361 0)
(-0.231483 -0.577116 0)
(-0.229441 -0.650435 0)
(-0.225911 -0.704316 0)
(-0.222087 -0.742172 0)
(-0.21823 -0.767989 0)
(-0.214338 -0.785258 0)
(-0.210454 -0.796637 0)
(-0.206569 -0.803994 0)
(-0.202712 -0.808539 0)
(-0.198867 -0.810979 0)
(-0.195062 -0.811629 0)
(-0.191286 -0.810498 0)
(-0.187565 -0.807351 0)
(-0.183892 -0.801764 0)
(-0.180287 -0.793218 0)
(-0.176731 -0.78132 0)
(-0.173358 -0.766412 0)
(-0.16965 -0.752955 0)
(-0.230824 -0.396596 0)
(-0.242291 -0.490089 0)
(-0.23638 -0.583662 0)
(-0.234164 -0.657554 0)
(-0.230418 -0.711818 0)
(-0.226359 -0.749916 0)
(-0.222261 -0.775877 0)
(-0.218122 -0.793221 0)
(-0.213988 -0.804629 0)
(-0.209853 -0.811981 0)
(-0.205745 -0.816494 0)
(-0.201651 -0.818881 0)
(-0.1976 -0.819457 0)
(-0.193578 -0.818229 0)
(-0.189615 -0.814961 0)
(-0.185705 -0.809224 0)
(-0.181866 -0.800494 0)
(-0.178083 -0.788375 0)
(-0.174493 -0.773208 0)
(-0.170572 -0.759485 0)
(-0.236091 -0.401591 0)
(-0.247506 -0.496182 0)
(-0.241323 -0.590613 0)
(-0.238919 -0.665111 0)
(-0.234938 -0.719785 0)
(-0.230628 -0.758144 0)
(-0.226269 -0.784262 0)
(-0.221865 -0.80169 0)
(-0.217463 -0.813132 0)
(-0.213058 -0.82048 0)
(-0.208681 -0.824962 0)
(-0.204319 -0.827292 0)
(-0.2 -0.827789 0)
(-0.195716 -0.826458 0)
(-0.191494 -0.823061 0)
(-0.187329 -0.817164 0)
(-0.183241 -0.808239 0)
(-0.179215 -0.795884 0)
(-0.175389 -0.780441 0)
(-0.171242 -0.766435 0)
(-0.241422 -0.406905 0)
(-0.252764 -0.50266 0)
(-0.246309 -0.597996 0)
(-0.243701 -0.673139 0)
(-0.23947 -0.72825 0)
(-0.234889 -0.766892 0)
(-0.230252 -0.793182 0)
(-0.225562 -0.810704 0)
(-0.220872 -0.822183 0)
(-0.216177 -0.82953 0)
(-0.21151 -0.833978 0)
(-0.206861 -0.83625 0)
(-0.202258 -0.836662 0)
(-0.197691 -0.835222 0)
(-0.193191 -0.831686 0)
(-0.188753 -0.825619 0)
(-0.184398 -0.816486 0)
(-0.180111 -0.803879 0)
(-0.176036 -0.788142 0)
(-0.171649 -0.773832 0)
(-0.246878 -0.41255 0)
(-0.258096 -0.509532 0)
(-0.251336 -0.60583 0)
(-0.248513 -0.681663 0)
(-0.244013 -0.737249 0)
(-0.239145 -0.776199 0)
(-0.234208 -0.802678 0)
(-0.229211 -0.820303 0)
(-0.224211 -0.831827 0)
(-0.219205 -0.839174 0)
(-0.214227 -0.843588 0)
(-0.209268 -0.845796 0)
(-0.204356 -0.846118 0)
(-0.199486 -0.844561 0)
(-0.194688 -0.840877 0)
(-0.189955 -0.834627 0)
(-0.185314 -0.825271 0)
(-0.180748 -0.812396 0)
(-0.176403 -0.796345 0)
(-0.171758 -0.78171 0)
(-0.252371 -0.41856 0)
(-0.26351 -0.516838 0)
(-0.256443 -0.614159 0)
(-0.253377 -0.690732 0)
(-0.248583 -0.746828 0)
(-0.2434 -0.786113 0)
(-0.238138 -0.812797 0)
(-0.232809 -0.830537 0)
(-0.227474 -0.842109 0)
(-0.222132 -0.849457 0)
(-0.216818 -0.853836 0)
(-0.211525 -0.855976 0)
(-0.206285 -0.856202 0)
(-0.201088 -0.854518 0)
(-0.195968 -0.850676 0)
(-0.190922 -0.84423 0)
(-0.185972 -0.834635 0)
(-0.181106 -0.821472 0)
(-0.176475 -0.805087 0)
(-0.171556 -0.790102 0)
(-0.258006 -0.424974 0)
(-0.269024 -0.524637 0)
(-0.261611 -0.623039 0)
(-0.258279 -0.700398 0)
(-0.253168 -0.75704 0)
(-0.247646 -0.796685 0)
(-0.242034 -0.823592 0)
(-0.236348 -0.841456 0)
(-0.230652 -0.853082 0)
(-0.224948 -0.860432 0)
(-0.219273 -0.864772 0)
(-0.213621 -0.86684 0)
(-0.208023 -0.866962 0)
(-0.202475 -0.865142 0)
(-0.19701 -0.86113 0)
(-0.191623 -0.854473 0)
(-0.186344 -0.844622 0)
(-0.181156 -0.831151 0)
(-0.176214 -0.814407 0)
(-0.171001 -0.799046 0)
(-0.263763 -0.431839 0)
(-0.274607 -0.532969 0)
(-0.26684 -0.632511 0)
(-0.263221 -0.710703 0)
(-0.257769 -0.76793 0)
(-0.251882 -0.807963 0)
(-0.245893 -0.835112 0)
(-0.239822 -0.853112 0)
(-0.233736 -0.864799 0)
(-0.227641 -0.872153 0)
(-0.221577 -0.876452 0)
(-0.215537 -0.878442 0)
(-0.209558 -0.878452 0)
(-0.203631 -0.876485 0)
(-0.197793 -0.872288 0)
(-0.192043 -0.865406 0)
(-0.186407 -0.855279 0)
(-0.180874 -0.841477 0)
(-0.175602 -0.824347 0)
(-0.170076 -0.808582 0)
(-0.269707 -0.439188 0)
(-0.28029 -0.541857 0)
(-0.272122 -0.642603 0)
(-0.268199 -0.721689 0)
(-0.262382 -0.779546 0)
(-0.256104 -0.820001 0)
(-0.249709 -0.847415 0)
(-0.243223 -0.865566 0)
(-0.236718 -0.87732 0)
(-0.230202 -0.884678 0)