# vtk DataFile Version 2.0
track0
ASCII
DATASET POLYDATA
POINTS 12130 float
-0.0205 0.001 1e-05
-0.0204903 0.0011 1e-05
-0.0204805 0.00119999 1e-05
-0.0204706 0.00129996 1e-05
-0.0204605 0.00139993 1e-05
-0.0204503 0.0015 1e-05
-0.02044 0.0016 1e-05
-0.0204295 0.00169998 1e-05
-0.0204189 0.00179995 1e-05
-0.0204081 0.0018999 1e-05
-0.0203971 0.002 1e-05
-0.0203859 0.0021 1e-05
-0.0203746 0.00219998 1e-05
-0.0203631 0.00229993 1e-05
-0.0203514 0.00239987 1e-05
-0.0203394 0.0025 1e-05
-0.0203286 0.00258921 1e-05
-0.0203176 0.00267839 1e-05
-0.0203065 0.00276755 1e-05
-0.0202952 0.0028567 1e-05
-0.0202854 0.00293239 1e-05
-0.0202836 0.00294591 1e-05
-0.0202819 0.00295943 1e-05
-0.0202801 0.00297296 1e-05
-0.0202783 0.00298648 1e-05
-0.0202765 0.003 1e-05
-0.0202633 0.0031 1e-05
-0.0202498 0.00319997 1e-05
-0.0202361 0.0032999 1e-05
-0.0202222 0.00339981 1e-05
-0.020208 0.0035 1e-05
-0.0201935 0.0036 1e-05
-0.0201789 0.00369996 1e-05
-0.0201639 0.00379989 1e-05
-0.0201487 0.00389978 1e-05
-0.0201332 0.004 1e-05
-0.0201175 0.0041 1e-05
-0.0201015 0.00419996 1e-05
-0.0200852 0.00429987 1e-05
-0.0200687 0.00439974 1e-05
-0.0200518 0.0045 1e-05
-0.0200459 0.00453451 1e-05
-0.02004 0.00456901 1e-05
-0.020034 0.00460351 1e-05
-0.020028 0.004638 1e-05
-0.0200223 0.00467061 1e-05
-0.0200107 0.00473649 1e-05
-0.019999 0.00480235 1e-05
-0.0199872 0.00486818 1e-05
-0.0199753 0.004934 1e-05
-0.0199632 0.005 1e-05
-0.0199447 0.0051 1e-05
-0.0199259 0.00519995 1e-05
-0.0199068 0.00529984 1e-05
-0.0198874 0.00539968 1e-05
-0.0198677 0.0055 1e-05
-0.0198477 0.0056 1e-05
-0.0198274 0.00569994 1e-05
-0.0198068 0.00579982 1e-05
-0.019786 0.00589965 1e-05
-0.0197647 0.006 1e-05
-0.019764 0.00600311 1e-05
-0.0197634 0.00600621 1e-05
-0.0197627 0.00600932 1e-05
-0.019762 0.00601242 1e-05
-0.0197614 0.00601551 1e-05
-0.0197405 0.00611241 1e-05
-0.0197193 0.00620925 1e-05
-0.0196979 0.00630602 1e-05
-0.0196762 0.00640274 1e-05
-0.0196541 0.0065 1e-05
-0.019631 0.0066 1e-05
-0.0196077 0.00669993 1e-05
-0.019584 0.00679979 1e-05
-0.0195601 0.00689958 1e-05
-0.0195356 0.007 1e-05
-0.019529 0.00702688 1e-05
-0.0195224 0.00705376 1e-05
-0.0195157 0.00708063 1e-05
-0.019509 0.00710749 1e-05
-0.0195025 0.00713347 1e-05
-0.0194841 0.00720677 1e-05
-0.0194656 0.00728004 1e-05
-0.0194469 0.00735326 1e-05
-0.019428 0.00742644 1e-05
-0.0194089 0.0075 1e-05
-0.0193826 0.0076 1e-05
-0.019356 0.00769992 1e-05
-0.0193291 0.00779975 1e-05
-0.0193019 0.0078995 1e-05
-0.0192742 0.008 1e-05
-0.0192685 0.00802036 1e-05
-0.0192628 0.00804071 1e-05
-0.0192571 0.00806106 1e-05
-0.0192514 0.0080814 1e-05
-0.0192457 0.00810128 1e-05
-0.0192232 0.00818102 1e-05
-0.0192004 0.00826071 1e-05
-0.0191775 0.00834034 1e-05
-0.0191543 0.00841991 1e-05
-0.0191308 0.0085 1e-05
-0.0191029 0.00859429 1e-05
-0.0190746 0.0086885 1e-05
-0.0190461 0.00878262 1e-05
-0.0190173 0.00887665 1e-05
-0.018991 0.00896144 1e-05
-0.0189886 0.00896915 1e-05
-0.0189862 0.00897686 1e-05
-0.0189838 0.00898457 1e-05
-0.0189814 0.00899228 1e-05
-0.018979 0.009 1e-05
-0.0189476 0.0091 1e-05
-0.0189158 0.0091999 1e-05
-0.0188838 0.00929969 1e-05
-0.0188514 0.00939938 1e-05
-0.0188184 0.0095 1e-05
-0.0188024 0.00954821 1e-05
-0.0187863 0.0095964 1e-05
-0.0187702 0.00964457 1e-05
-0.0187539 0.00969271 1e-05
-0.0187384 0.00973856 1e-05
-0.0187206 0.00979085 1e-05
-0.0187027 0.00984311 1e-05
-0.0186847 0.00989533 1e-05
-0.0186666 0.00994753 1e-05
-0.0186483 0.01 1e-05
-0.0186162 0.0100917 1e-05
-0.0185838 0.0101832 1e-05
-0.0185512 0.0102747 1e-05
-0.0185182 0.010366 1e-05
-0.0184878 0.0104496 1e-05
-0.0184841 0.0104596 1e-05
-0.0184804 0.0104697 1e-05
-0.0184767 0.0104798 1e-05
-0.0184729 0.0104899 1e-05
-0.0184692 0.0105 1e-05
-0.0184323 0.0106 1e-05
-0.018395 0.0106999 1e-05
-0.0183574 0.0107996 1e-05
-0.0183195 0.0108992 1e-05
-0.0182807 0.011 1e-05
-0.0182724 0.0110214 1e-05
-0.0182641 0.0110427 1e-05
-0.0182557 0.0110641 1e-05
-0.0182474 0.0110854 1e-05
-0.0182392 0.0111063 1e-05
-0.0182082 0.0111851 1e-05
-0.0181771 0.0112637 1e-05
-0.0181457 0.0113423 1e-05
-0.0181142 0.0114208 1e-05
-0.018082 0.0115 1e-05
-0.0180641 0.0115438 1e-05
-0.0180462 0.0115875 1e-05
-0.0180282 0.0116312 1e-05
-0.0180101 0.0116749 1e-05
-0.0179926 0.0117169 1e-05
-0.0179689 0.0117735 1e-05
-0.0179452 0.0118301 1e-05
-0.0179213 0.0118866 1e-05
-0.0178973 0.0119431 1e-05
-0.017873 0.012 1e-05
-0.017848 0.0120582 1e-05
-0.0178229 0.0121164 1e-05
-0.0177976 0.0121746 1e-05
-0.0177723 0.0122326 1e-05
-0.017748 0.0122879 1e-05
-0.0177293 0.0123303 1e-05
-0.0177105 0.0123727 1e-05
-0.0176916 0.0124151 1e-05
-0.0176727 0.0124574 1e-05
-0.0176536 0.0125 1e-05
-0.0176239 0.0125658 1e-05
-0.0175941 0.0126315 1e-05
-0.0175642 0.0126971 1e-05
-0.0175341 0.0127627 1e-05
-0.0175053 0.0128248 1e-05
-0.0174891 0.0128598 1e-05
-0.0174727 0.0128949 1e-05
-0.0174563 0.0129299 1e-05
-0.0174399 0.0129648 1e-05
-0.0174234 0.013 1e-05
-0.0173916 0.0130672 1e-05
-0.0173597 0.0131342 1e-05
-0.0173276 0.0132012 1e-05
-0.0172954 0.0132681 1e-05
-0.0172647 0.0133316 1e-05
-0.0172482 0.0133653 1e-05
-0.0172318 0.0133989 1e-05
-0.0172153 0.0134326 1e-05
-0.0171987 0.0134662 1e-05
-0.017182 0.0135 1e-05
-0.0171508 0.013563 1e-05
-0.0171194 0.013626 1e-05
-0.0170879 0.0136889 1e-05
-0.0170563 0.0137517 1e-05
-0.0170259 0.0138115 1e-05
-0.0170067 0.0138492 1e-05
-0.0169874 0.0138869 1e-05
-0.0169681 0.0139245 1e-05
-0.0169487 0.0139621 1e-05
-0.0169292 0.014 1e-05
-0.0169011 0.014054 1e-05
-0.016873 0.0141079 1e-05
-0.0168448 0.0141618 1e-05
-0.0168165 0.0142157 1e-05
-0.0167891 0.0142673 1e-05
-0.0167644 0.0143139 1e-05
-0.0167395 0.0143604 1e-05
-0.0167146 0.0144068 1e-05
-0.0166897 0.0144532 1e-05
-0.0166644 0.0145 1e-05
-0.0166423 0.0145406 1e-05
-0.0166202 0.0145811 1e-05
-0.0165981 0.0146216 1e-05
-0.0165758 0.0146621 1e-05
-0.0165542 0.0147014 1e-05
-0.0165212 0.0147611 1e-05
-0.016488 0.0148208 1e-05
-0.0164547 0.0148803 1e-05
-0.0164213 0.0149398 1e-05
-0.0163873 0.015 1e-05
-0.0163741 0.0150233 1e-05
-0.0163608 0.0150465 1e-05
-0.0163476 0.0150698 1e-05
-0.0163343 0.015093 1e-05
-0.0163212 0.0151159 1e-05
-0.0162771 0.0151927 1e-05
-0.0162328 0.0152694 1e-05
-0.0161882 0.015346 1e-05
-0.0161434 0.0154224 1e-05
-0.0160976 0.0155 1e-05
-0.0160961 0.0155026 1e-05
-0.0160946 0.0155051 1e-05
-0.0160931 0.0155077 1e-05
-0.0160915 0.0155102 1e-05
-0.01609 0.0155128 1e-05
-0.0160442 0.0155899 1e-05
-0.0159981 0.0156669 1e-05
-0.0159518 0.0157437 1e-05
-0.0159052 0.0158204 1e-05
-0.0158607 0.0158931 1e-05
-0.0158476 0.0159145 1e-05
-0.0158344 0.0159359 1e-05
-0.0158212 0.0159572 1e-05
-0.015808 0.0159786 1e-05
-0.0157948 0.016 1e-05
-0.0157625 0.016052 1e-05
-0.0157301 0.0161039 1e-05
-0.0156976 0.0161558 1e-05
-0.015665 0.0162076 1e-05
-0.0156333 0.0162576 1e-05
-0.0156025 0.0163061 1e-05
-0.0155716 0.0163545 1e-05
-0.0155407 0.0164029 1e-05
-0.0155096 0.0164512 1e-05
-0.015478 0.0165 1e-05
-0.015464 0.0165217 1e-05
-0.0154499 0.0165433 1e-05
-0.0154358 0.016565 1e-05
-0.0154217 0.0165866 1e-05
-0.0154077 0.016608 1e-05
-0.015363 0.0166763 1e-05
-0.015318 0.0167445 1e-05
-0.0152729 0.0168126 1e-05
-0.0152276 0.0168805 1e-05
-0.0151839 0.0169456 1e-05
-0.0151766 0.0169565 1e-05
-0.0151692 0.0169673 1e-05
-0.0151619 0.0169782 1e-05
-0.0151545 0.0169891 1e-05
-0.0151471 0.017 1e-05
-0.0151101 0.0170546 1e-05
-0.0150729 0.0171092 1e-05
-0.0150357 0.0171637 1e-05
-0.0149983 0.0172181 1e-05
-0.0149619 0.0172706 1e-05
-0.0149301 0.0173165 1e-05
-0.0148982 0.0173623 1e-05
-0.0148662 0.0174081 1e-05
-0.0148341 0.0174538 1e-05
-0.0148015 0.0175 1e-05
-0.0147896 0.0175169 1e-05
-0.0147776 0.0175338 1e-05
-0.0147656 0.0175506 1e-05
-0.0147536 0.0175675 1e-05
-0.0147417 0.0175842 1e-05
-0.0146981 0.0176454 1e-05
-0.0146542 0.0177066 1e-05
-0.0146102 0.0177676 1e-05
-0.0145661 0.0178286 1e-05
-0.0145233 0.0178873 1e-05
-0.0145068 0.0179098 1e-05
-0.0144903 0.0179323 1e-05
-0.0144738 0.0179549 1e-05
-0.0144572 0.0179774 1e-05
-0.0144405 0.018 1e-05
-0.0144137 0.0180362 1e-05
-0.0143869 0.0180724 1e-05
-0.01436 0.0181085 1e-05
-0.0143331 0.0181446 1e-05
-0.0143067 0.0181799 1e-05
-0.0142637 0.0182372 1e-05
-0.0142206 0.0182944 1e-05
-0.0141773 0.0183514 1e-05
-0.0141339 0.0184084 1e-05
-0.0140917 0.0184635 1e-05
-0.0140861 0.0184708 1e-05
-0.0140805 0.0184781 1e-05
-0.0140749 0.0184854 1e-05
-0.0140693 0.0184927 1e-05
-0.0140636 0.0185 1e-05
-0.0140266 0.018548 1e-05
-0.0139895 0.0185959 1e-05
-0.0139523 0.0186437 1e-05
-0.013915 0.0186914 1e-05
-0.0138786 0.0187379 1e-05
-0.0138373 0.0187903 1e-05
-0.0137959 0.0188427 1e-05
-0.0137544 0.0188949 1e-05
-0.0137128 0.018947 1e-05
-0.0136703 0.019 1e-05
-0.0136697 0.0190008 1e-05
-0.013669 0.0190016 1e-05
-0.0136684 0.0190024 1e-05
-0.0136677 0.0190032 1e-05
-0.0136671 0.019004 1e-05
-0.0136251 0.0190561 1e-05
-0.0135831 0.0191081 1e-05
-0.0135409 0.01916 1e-05
-0.0134986 0.0192118 1e-05
-0.0134573 0.0192621 1e-05
-0.0134182 0.0193097 1e-05
-0.0133789 0.0193572 1e-05
-0.0133395 0.0194046 1e-05
-0.0133001 0.019452 1e-05
-0.0132599 0.0195 1e-05
-0.0132578 0.0195025 1e-05
-0.0132556 0.0195051 1e-05
-0.0132535 0.0195076 1e-05
-0.0132514 0.0195101 1e-05
-0.0132493 0.0195126 1e-05
-0.013208 0.0195617 1e-05
-0.0131666 0.0196107 1e-05
-0.0131251 0.0196596 1e-05
-0.0130835 0.0197085 1e-05
-0.0130429 0.019756 1e-05
-0.0130019 0.0198037 1e-05
-0.0129609 0.0198513 1e-05
-0.0129197 0.0198988 1e-05
-0.0128785 0.0199463 1e-05
-0.0128381 0.0199925 1e-05
-0.0128368 0.019994 1e-05
-0.0128355 0.0199955 1e-05
-0.0128342 0.019997 1e-05
-0.0128329 0.0199985 1e-05
-0.0128316 0.02 1e-05
-0.0127923 0.0200448 1e-05
-0.0127529 0.0200896 1e-05
-0.0127134 0.0201343 1e-05
-0.0126738 0.020179 1e-05
-0.012635 0.0202226 1e-05
-0.0125947 0.0202677 1e-05
-0.0125544 0.0203127 1e-05
-0.0125139 0.0203576 1e-05
-0.0124734 0.0204025 1e-05
-0.0124336 0.0204464 1e-05
-0.0124238 0.0204571 1e-05
-0.0124141 0.0204678 1e-05
-0.0124043 0.0204785 1e-05
-0.0123945 0.0204893 1e-05
-0.0123847 0.0205 1e-05
-0.0123545 0.020533 1e-05
-0.0123243 0.020566 1e-05
[...]
POINT_DATA 12130
 FIELD attributes 2
p 1 12130 float
-0.0113095 -0.0124595 -0.0136071 -0.0147542 -0.0159011 -0.0170494 -0.0181889 -0.0193278 -0.0204649 -0.0216009 -0.0227383 -0.0238652 -0.0249918 -0.0261183 -0.0272438 -0.0283698 -0.0293709 -0.0303717 -0.0313723 -0.0323727 -0.0332222 -0.0333741 -0.033526 -0.0336779 -0.0338297 -0.0339815 -0.0350984 -0.0362144 -0.0373301 -0.0384457 -0.0395644 -0.0406768 -0.041789 -0.042899 -0.0440086 -0.0451221 -0.04623 -0.0473375 -0.0484447 -0.0495516 -0.0506613 -0.0510423 -0.0514232 -0.051804 -0.0521849 -0.052545 -0.0532729 -0.0540006 -0.0547281 -0.0554555 -0.0561849 -0.057288 -0.0583902 -0.0594908 -0.060591 -0.0616965 -0.062797 -0.0638969 -0.0649964 -0.0660955 -0.0672003 -0.0672345 -0.0672687 -0.0673027 -0.0673368 -0.0673707 -0.0684358 -0.0695005 -0.0705646 -0.0716283 -0.0726983 -0.0737975 -0.0748963 -0.0759946 -0.077092 -0.0781957 -0.0784911 -0.0787865 -0.0790818 -0.0793771 -0.0796626 -0.0804689 -0.0812748 -0.0820803 -0.0828855 -0.0836949 -0.0847958 -0.0858959 -0.0869954 -0.0880941 -0.0892003 -0.0894247 -0.0896489 -0.0898731 -0.0900973 -0.0903163 -0.0911955 -0.0920743 -0.0929526 -0.0938304 -0.0947142 -0.095756 -0.0967971 -0.0978377 -0.0988775 -0.0998153 -0.0999007 -0.0999861 -0.100071 -0.100157 -0.100242 -0.101351 -0.102458 -0.103564 -0.104669 -0.105785 -0.106322 -0.106858 -0.107393 -0.107929 -0.108439 -0.109021 -0.109603 -0.110185 -0.110766 -0.111351 -0.112375 -0.113398 -0.114421 -0.115442 -0.116377 -0.11649 -0.116603 -0.116716 -0.116829 -0.116942 -0.118065 -0.119187 -0.120307 -0.121426 -0.122559 -0.1228 -0.123041 -0.123283 -0.123524 -0.12376 -0.124649 -0.125538 -0.126426 -0.127313 -0.128209 -0.128706 -0.129203 -0.129699 -0.130196 -0.130674 -0.131317 -0.131961 -0.132604 -0.133246 -0.133894 -0.13456 -0.135226 -0.135891 -0.136556 -0.137189 -0.137675 -0.13816 -0.138645 -0.13913 -0.139618 -0.140376 -0.141133 -0.14189 -0.142646 -0.143363 -0.143767 -0.144171 -0.144575 -0.144979 -0.145385 -0.146165 -0.146944 -0.147723 -0.148501 -0.149239 -0.14963 -0.150021 -0.150413 -0.150804 -0.151197 -0.151936 -0.152673 -0.15341 -0.154147 -0.154849 -0.15529 -0.155732 -0.156173 -0.156614 -0.157058 -0.157697 -0.158334 -0.158972 -0.159608 -0.16022 -0.16077 -0.16132 -0.161869 -0.162418 -0.162972 -0.163456 -0.16394 -0.164424 -0.164907 -0.165377 -0.166089 -0.166801 -0.167512 -0.168222 -0.16894 -0.169221 -0.169501 -0.169782 -0.170062 -0.170338 -0.171263 -0.172187 -0.17311 -0.174031 -0.174968 -0.174999 -0.17503 -0.175061 -0.175092 -0.175124 -0.176062 -0.176998 -0.177932 -0.178866 -0.179751 -0.180011 -0.180271 -0.18053 -0.18079 -0.181051 -0.18169 -0.182328 -0.182966 -0.183603 -0.184219 -0.184814 -0.185409 -0.186003 -0.186596 -0.187196 -0.187466 -0.187735 -0.188004 -0.188273 -0.188539 -0.189387 -0.190233 -0.191079 -0.191922 -0.19273 -0.192864 -0.192999 -0.193134 -0.193269 -0.193404 -0.194089 -0.194773 -0.195456 -0.196139 -0.196798 -0.197372 -0.197946 -0.198518 -0.199091 -0.19967 -0.199884 -0.200098 -0.200312 -0.200526 -0.200738 -0.201513 -0.202287 -0.203059 -0.20383 -0.204572 -0.204856 -0.20514 -0.205424 -0.205708 -0.205994 -0.206456 -0.206919 -0.207381 -0.207843 -0.208296 -0.209025 -0.209754 -0.210481 -0.211207 -0.21191 -0.212002 -0.212094 -0.212187 -0.212279 -0.212373 -0.212991 -0.213608 -0.214224 -0.214839 -0.215438 -0.21611 -0.216781 -0.217451 -0.218119 -0.218798 -0.218809 -0.218819 -0.21883 -0.21884 -0.218851 -0.219525 -0.220199 -0.220871 -0.221543 -0.222196 -0.222809 -0.22342 -0.224031 -0.224641 -0.22526 -0.225293 -0.225326 -0.225359 -0.225393 -0.225426 -0.226064 -0.226702 -0.227339 -0.227974 -0.228594 -0.22921 -0.229825 -0.230439 -0.231051 -0.231649 -0.231667 -0.231686 -0.231706 -0.231725 -0.231744 -0.232329 -0.232913 -0.233497 -0.234079 -0.234649 -0.235232 -0.235815 -0.236396 -0.236976 -0.237543 -0.237679 -0.237817 -0.237954 -0.238091 -0.23823 -0.238661 -0.239091 -0.239522 -0.239951 -0.240375 -0.240927 -0.241479 -0.242029 -0.242578 -0.243116 -0.243431 -0.243746 -0.24406 -0.244375 -0.244692 -0.244909 -0.245126 -0.245344 -0.245561 -0.245778 -0.2463 -0.246822 -0.247343 -0.247863 -0.248374 -0.248875 -0.249377 -0.249878 -0.250378 -0.250871 -0.250916 -0.250961 -0.251007 -0.251052 -0.251098 -0.251546 -0.251992 -0.252438 -0.252883 -0.253321 -0.253795 -0.254268 -0.254741 -0.255214 -0.25568 -0.256022 -0.256364 -0.256705 -0.257046 -0.25739 -0.257502 -0.257615 -0.257727 -0.25784 -0.257952 -0.258398 -0.258845 -0.259291 -0.259736 -0.260176 -0.260603 -0.261029 -0.261455 -0.26188 -0.262301 -0.26254 -0.262782 -0.263022 -0.263263 -0.263507 -0.263676 -0.263846 -0.264016 -0.264185 -0.264355 -0.264755 -0.265156 -0.265557 -0.265956 -0.26635 -0.266731 -0.267112 -0.267492 -0.267873 -0.26825 -0.268475 -0.268699 -0.268922 -0.269145 -0.26937 -0.269511 -0.269652 -0.269793 -0.269934 -0.270074 -0.270427 -0.270783 -0.271138 -0.271492 -0.271843 -0.272178 -0.272512 -0.272846 -0.273181 -0.273514 -0.273781 -0.27405 -0.274319 -0.274586 -0.274859 -0.274906 -0.274954 -0.275002 -0.275049 -0.275098 -0.275409 -0.27572 -0.276029 -0.276338 -0.276643 -0.276932 -0.277221 -0.277511 -0.277803 -0.278092 -0.278364 -0.278635 -0.278905 -0.279174 -0.279443 -0.279521 -0.2796 -0.279679 -0.279759 -0.279839 -0.280018 -0.280199 -0.280379 -0.280559 -0.28074 -0.28098 -0.281224 -0.281469 -0.281714 -0.281956 -0.282178 -0.2824 -0.282622 -0.282849 -0.283076 -0.283281 -0.283486 -0.283689 -0.283893 -0.284094 -0.284097 -0.284101 -0.284104 -0.284108 -0.284112 -0.284306 -0.284502 -0.284697 -0.284891 -0.285085 -0.28526 -0.285436 -0.285617 -0.285797 -0.285975 -0.28613 -0.286287 -0.286443 -0.286603 -0.286767 -0.286905 -0.287042 -0.287179 -0.287316 -0.287453 -0.287453 -0.287454 -0.287454 -0.287455 -0.287455 -0.287586 -0.287718 -0.287849 -0.287979 -0.28811 -0.288215 -0.288322 -0.288436 -0.288548 -0.288659 -0.288744 -0.288831 -0.288917 -0.289012 -0.289109 -0.289178 -0.289247 -0.289315 -0.289382 -0.289452 -0.289465 -0.289479 -0.289493 -0.289508 -0.289524 -0.289566 -0.289611 -0.289656 -0.289701 -0.289748 -0.28978 -0.289825 -0.289869 -0.289913 -0.289956 -0.289968 -0.289983 -0.290006 -0.290033 -0.290064 -0.290061 -0.290058 -0.290055 -0.290053 -0.290064 -0.290044 -0.290028 -0.290011 -0.289993 -0.289979 -0.289977 -0.289975 -0.289973 -0.289972 -0.289971 -0.289943 -0.289915 -0.289886 -0.289857 -0.289825 -0.289763 -0.289711 -0.289666 -0.289621 -0.289577 -0.2895 -0.289421 -0.289346 -0.289283 -0.289218 -0.289122 -0.289027 -0.288931 -0.288835 -0.288757 -0.288666 -0.288571 -0.288476 -0.288381 -0.288282 -0.288264 -0.288246 -0.288229 -0.288212 -0.288196 -0.288067 -0.287947 -0.287826 -0.287705 -0.287589 -0.287427 -0.28728 -0.287141 -0.287001 -0.286863 -0.286681 -0.286503 -0.286335 -0.28618 -0.286029 -0.28583 -0.285632 -0.285433 -0.285242 -0.285068 -0.284848 -0.284633 -0.284417 -0.284201 -0.283997 -0.283952 -0.283908 -0.283864 -0.283821 -0.283778 -0.283595 -0.283407 -0.283218 -0.28303 -0.282836 -0.282563 -0.282315 -0.282067 -0.281818 -0.281569 -0.281276 -0.280979 -0.280709 -0.280439 -0.280163 -0.279848 -0.279531 -0.279215 -0.278927 -0.278641 -0.278313 -0.277979 -0.277645 -0.277312 -0.277001 -0.27668 -0.276358 -0.276036 -0.275713 -0.275391 -0.27536 -0.275329 -0.275298 -0.275268 -0.275245 -0.27488 -0.274518 -0.274157 -0.273796 -0.273437 -0.273016 -0.272634 -0.272256 -0.271878 -0.271506 -0.271079 -0.270655 -0.270263 -0.269875 -0.269489 -0.269042 -0.268601 -0.26816 -0.267754 -0.267356 -0.266904 -0.266453 -0.266003 -0.265553 -0.265138 -0.2647 -0.264268 -0.263836 -0.263404 -0.262981 -0.262948 -0.262916 -0.262883 -0.26285 -0.262817 -0.262346 -0.261874 -0.261403 -0.260932 -0.260456 -0.25993 -0.259445 -0.258964 -0.258484 -0.258 -0.257469 -0.256935 -0.256444 -0.255955 -0.25546 -0.254915 -0.254372 -0.253829 -0.25333 -0.25283 -0.252281 -0.251729 -0.25118 -0.250631 -0.250117 -0.249599 -0.249083 -0.248568 -0.248054 -0.247556 -0.247508 -0.247461 -0.247413 -0.247366 -0.247322 -0.246747 -0.246177 -0.245609 -0.245043 -0.244467 -0.243834 -0.243249 -0.242673 -0.242098 -0.241515 -0.240878 -0.240241 -0.239645 -0.239063 -0.238468 -0.237819 -0.237174 -0.236531 -0.235925 -0.235324 -0.234669 -0.234014 -0.233363 -0.232714 -0.232072 -0.231787 -0.231503 -0.23122 -0.230937 -0.230661 -0.230275 -0.22989 -0.229507 -0.229125 -0.228737 -0.22802 -0.227343 -0.226669 -0.225998 -0.225303 -0.224557 -0.223817 -0.223135 -0.222457 -0.221755 -0.221003 -0.220252 -0.219505 -0.218799 -0.218082 -0.217318 -0.21656 -0.215805 -0.215054 -0.214288 -0.214152 -0.214014 -0.213876 -0.213738 -0.213599 -0.212959 -0.21232 -0.211684 -0.211051 -0.210392 -0.209542 -0.208743 -0.207964 -0.207189 -0.206377 -0.205518 -0.204661 -0.203815 -0.203027 -0.202195 -0.201312 -0.200435 -0.199564 -0.198698 -0.197807 -0.19763 -0.197451 -0.197272 -0.197093 -0.196913 -0.196175 -0.195438 -0.194705 -0.193975 -0.193206 -0.192208 -0.191246 -0.190324 -0.189409 -0.188436 -0.187461 -0.186491 -0.185527 -0.18459 -0.183631 -0.183008 -0.182388 -0.181771 -0.181156 -0.180555 -0.180168 -0.179782 -0.179397 -0.179013 -0.178619 -0.177416 -0.176278 -0.175149 -0.174026 -0.172813 -0.171454 -0.170103 -0.168762 -0.167469 -0.166113 -0.16533 -0.164552 -0.163778 -0.163009 -0.162259 -0.161676 -0.161096 -0.160518 -0.159942 -0.159341 -0.157578 -0.155825 -0.154087 -0.152365 -0.150721 -0.150426 -0.150123 -0.149821 -0.149519 -0.149202 -0.147202 -0.145219 -0.143255 -0.141311 -0.13945 -0.138852 -0.138253 -0.137655 -0.137059 -0.136431 -0.134628 -0.132836 -0.131059 -0.129296 -0.127583 -0.126347 -0.125119 -0.123899 -0.122685 -0.121357 -0.120283 -0.119221 -0.118165 -0.117113 -0.116086 -0.114139 -0.11223 -0.110344 -0.108479 -0.106346 -0.106335 -0.106324 -0.106317 -0.10631 -0.106304 -0.105121 -0.103986 -0.102873 -0.101781 -0.100756 -0.100579 -0.100448 -0.100328 -0.100221 -0.10014 -0.100131 -0.100157 -0.100183 -0.100211 -0.100272 -0.10145 -0.102609 -0.103763 -0.104933 -0.106136 -0.108271 -0.110455 -0.112655 -0.114869 -0.117764 -0.11777 -0.117776 -0.117781 -0.117788 -0.117797 -0.121213 -0.124668 -0.128131 -0.131603 -0.135078 -0.139365 -0.143685 -0.147964 -0.152187 -0.156407 -0.161247 -0.166113 -0.170984 -0.175861 -0.180677 -0.182828 -0.184994 -0.187161 -0.189329 -0.191846 -0.194867 -0.197902 -0.200937 -0.203973 -0.207016 -0.212557 -0.218064 -0.223572 -0.22908 -0.234582 -0.240207 -0.245831 -0.25143 -0.257028 -0.262622 -0.268206 -0.273797 -0.279394 -0.284995 -0.290595 -0.296037 -0.301483 -0.306929 -0.312454 -0.317983 -0.323174 -0.328367 -0.333561 -0.33885 -0.344241 -0.349058 -0.353875 -0.358692 -0.363557 -0.368735 -0.373032 -0.377326 -0.381621 -0.385916 -0.390705 -0.394314 -0.397914 -0.401517 -0.405121 -0.409252 -0.41206 -0.414859 -0.417661 -0.420465 -0.42375 -0.425897 -0.428049 -0.430204 -0.432363 -0.434879 -0.436869 -0.438894 -0.440924 -0.44296 -0.445198 -0.4481 -0.451098 -0.454103 -0.457146 -0.460244 -0.461454 -0.462729 -0.464005 -0.465281 -0.466871 -0.471823 -0.476784 -0.481753 -0.486731 -0.491957 -0.505137 -0.518661 -0.532187 -0.545714 -0.559677 -0.584543 -0.609786 -0.635026 -0.660263 -0.686084 -0.725825 -0.766024 -0.806221 -0.846416 -0.886846 -0.925974 -0.96527 -1.00456 -1.04385 -1.16621 -1.23696 -1.30782 -1.37869 -1.44962 -1.52114 -1.60171 -1.68264 -1.7636 -1.84457 -1.92573 -2.00242 -2.0799 -2.15739 -2.23487 -2.31202 -2.37425 -2.43876 -2.50327 -2.56779 -2.63193 -2.68574 -2.74332 -2.80092 -2.85854 -2.91616 -2.95418 -2.99494 -3.03573 -3.07657 -3.11663 -3.1322 -3.14908 -3.16626 -3.1835 -3.20048 -3.20519 -3.21015 -3.21527 -3.22043 -3.22549