# vtk DataFile Version 2.0
track0
ASCII
DATASET POLYDATA
POINTS 12130 float
-0.0205 0.001 1e-05
-0.0204903 0.0011 1e-05
-0.0204805 0.00119999 1e-05
-0.0204706 0.00129996 1e-05
-0.0204605 0.00139993 1e-05
-0.0204503 0.0015 1e-05
-0.02044 0.0016 1e-05
-0.0204295 0.00169998 1e-05
-0.0204189 0.00179995 1e-05
-0.0204081 0.0018999 1e-05
-0.0203971 0.002 1e-05
-0.0203859 0.0021 1e-05
-0.0203746 0.00219998 1e-05
-0.0203631 0.00229993 1e-05
-0.0203514 0.00239987 1e-05
-0.0203394 0.0025 1e-05
-0.0203286 0.00258921 1e-05
-0.0203176 0.00267839 1e-05
-0.0203065 0.00276755 1e-05
-0.0202952 0.0028567 1e-05
-0.0202854 0.00293239 1e-05
-0.0202836 0.00294591 1e-05
-0.0202819 0.00295943 1e-05
-0.0202801 0.00297296 1e-05
-0.0202783 0.00298648 1e-05
-0.0202765 0.003 1e-05
-0.0202633 0.0031 1e-05
-0.0202498 0.00319997 1e-05
-0.0202361 0.0032999 1e-05
-0.0202222 0.00339981 1e-05
-0.020208 0.0035 1e-05
-0.0201935 0.0036 1e-05
-0.0201789 0.00369996 1e-05
-0.0201639 0.00379989 1e-05
-0.0201487 0.00389978 1e-05
-0.0201332 0.004 1e-05
-0.0201175 0.0041 1e-05
-0.0201015 0.00419996 1e-05
-0.0200852 0.00429987 1e-05
-0.0200687 0.00439974 1e-05
-0.0200518 0.0045 1e-05
-0.0200459 0.00453451 1e-05
-0.02004 0.00456901 1e-05
-0.020034 0.00460351 1e-05
-0.020028 0.004638 1e-05
-0.0200223 0.00467061 1e-05
-0.0200107 0.00473649 1e-05
-0.019999 0.00480235 1e-05
-0.0199872 0.00486818 1e-05
-0.0199753 0.004934 1e-05
-0.0199632 0.005 1e-05
-0.0199447 0.0051 1e-05
-0.0199259 0.00519995 1e-05
-0.0199068 0.00529984 1e-05
-0.0198874 0.00539968 1e-05
-0.0198677 0.0055 1e-05
-0.0198477 0.0056 1e-05
-0.0198274 0.00569994 1e-05
-0.0198068 0.00579982 1e-05
-0.019786 0.00589965 1e-05
-0.0197647 0.006 1e-05
-0.019764 0.00600311 1e-05
-0.0197634 0.00600621 1e-05
-0.0197627 0.00600932 1e-05
-0.019762 0.00601242 1e-05
-0.0197614 0.00601551 1e-05
-0.0197405 0.00611241 1e-05
-0.0197193 0.00620925 1e-05
-0.0196979 0.00630602 1e-05
-0.0196762 0.00640274 1e-05
-0.0196541 0.0065 1e-05
-0.019631 0.0066 1e-05
-0.0196077 0.00669993 1e-05
-0.019584 0.00679979 1e-05
-0.0195601 0.00689958 1e-05
-0.0195356 0.007 1e-05
-0.019529 0.00702688 1e-05
-0.0195224 0.00705376 1e-05
-0.0195157 0.00708063 1e-05
-0.019509 0.00710749 1e-05
-0.0195025 0.00713347 1e-05
-0.0194841 0.00720677 1e-05
-0.0194656 0.00728004 1e-05
-0.0194469 0.00735326 1e-05
-0.019428 0.00742644 1e-05
-0.0194089 0.0075 1e-05
-0.0193826 0.0076 1e-05
-0.019356 0.00769992 1e-05
-0.0193291 0.00779975 1e-05
-0.0193019 0.0078995 1e-05
-0.0192742 0.008 1e-05
-0.0192685 0.00802036 1e-05
-0.0192628 0.00804071 1e-05
-0.0192571 0.00806106 1e-05
-0.0192514 0.0080814 1e-05
-0.0192457 0.00810128 1e-05
-0.0192232 0.00818102 1e-05
-0.0192004 0.00826071 1e-05
-0.0191775 0.00834034 1e-05
-0.0191543 0.00841991 1e-05
-0.0191308 0.0085 1e-05
-0.0191029 0.00859429 1e-05
-0.0190746 0.0086885 1e-05
-0.0190461 0.00878262 1e-05
-0.0190173 0.00887665 1e-05
-0.018991 0.00896144 1e-05
-0.0189886 0.00896915 1e-05
-0.0189862 0.00897686 1e-05
-0.0189838 0.00898457 1e-05
-0.0189814 0.00899228 1e-05
-0.018979 0.009 1e-05
-0.0189476 0.0091 1e-05
-0.0189158 0.0091999 1e-05
-0.0188838 0.00929969 1e-05
-0.0188514 0.00939938 1e-05
-0.0188184 0.0095 1e-05
-0.0188024 0.00954821 1e-05
-0.0187863 0.0095964 1e-05
-0.0187702 0.00964457 1e-05
-0.0187539 0.00969271 1e-05
-0.0187384 0.00973856 1e-05
-0.0187206 0.00979085 1e-05
-0.0187027 0.00984311 1e-05
-0.0186847 0.00989533 1e-05
-0.0186666 0.00994753 1e-05
-0.0186483 0.01 1e-05
-0.0186162 0.0100917 1e-05
-0.0185838 0.0101832 1e-05
-0.0185512 0.0102747 1e-05
-0.0185182 0.010366 1e-05
-0.0184878 0.0104496 1e-05
-0.0184841 0.0104596 1e-05
-0.0184804 0.0104697 1e-05
-0.0184767 0.0104798 1e-05
-0.0184729 0.0104899 1e-05
-0.0184692 0.0105 1e-05
-0.0184323 0.0106 1e-05
-0.018395 0.0106999 1e-05
-0.0183574 0.0107996 1e-05
-0.0183195 0.0108992 1e-05
-0.0182807 0.011 1e-05
-0.0182724 0.0110214 1e-05
-0.0182641 0.0110427 1e-05
-0.0182557 0.0110641 1e-05
-0.0182474 0.0110854 1e-05
-0.0182392 0.0111063 1e-05
-0.0182082 0.0111851 1e-05
-0.0181771 0.0112637 1e-05
-0.0181457 0.0113423 1e-05
-0.0181142 0.0114208 1e-05
-0.018082 0.0115 1e-05
-0.0180641 0.0115438 1e-05
-0.0180462 0.0115875 1e-05
-0.0180282 0.0116312 1e-05
-0.0180101 0.0116749 1e-05
-0.0179926 0.0117169 1e-05
-0.0179689 0.0117735 1e-05
-0.0179452 0.0118301 1e-05
-0.0179213 0.0118866 1e-05
-0.0178973 0.0119431 1e-05
-0.017873 0.012 1e-05
-0.017848 0.0120582 1e-05
-0.0178229 0.0121164 1e-05
-0.0177976 0.0121746 1e-05
-0.0177723 0.0122326 1e-05
-0.017748 0.0122879 1e-05
-0.0177293 0.0123303 1e-05
-0.0177105 0.0123727 1e-05
-0.0176916 0.0124151 1e-05
-0.0176727 0.0124574 1e-05
-0.0176536 0.0125 1e-05
-0.0176239 0.0125658 1e-05
-0.0175941 0.0126315 1e-05
-0.0175642 0.0126971 1e-05
-0.0175341 0.0127627 1e-05
-0.0175053 0.0128248 1e-05
-0.0174891 0.0128598 1e-05
-0.0174727 0.0128949 1e-05
-0.0174563 0.0129299 1e-05
-0.0174399 0.0129648 1e-05
-0.0174234 0.013 1e-05
-0.0173916 0.0130672 1e-05
-0.0173597 0.0131342 1e-05
-0.0173276 0.0132012 1e-05
-0.0172954 0.0132681 1e-05
-0.0172647 0.0133316 1e-05
-0.0172482 0.0133653 1e-05
-0.0172318 0.0133989 1e-05
-0.0172153 0.0134326 1e-05
-0.0171987 0.0134662 1e-05
-0.017182 0.0135 1e-05
-0.0171508 0.013563 1e-05
-0.0171194 0.013626 1e-05
-0.0170879 0.0136889 1e-05
-0.0170563 0.0137517 1e-05
-0.0170259 0.0138115 1e-05
-0.0170067 0.0138492 1e-05
-0.0169874 0.0138869 1e-05
-0.0169681 0.0139245 1e-05
-0.0169487 0.0139621 1e-05
-0.0169292 0.014 1e-05
-0.0169011 0.014054 1e-05
-0.016873 0.0141079 1e-05
-0.0168448 0.0141618 1e-05
-0.0168165 0.0142157 1e-05
-0.0167891 0.0142673 1e-05
-0.0167644 0.0143139 1e-05
-0.0167395 0.0143604 1e-05
-0.0167146 0.0144068 1e-05
-0.0166897 0.0144532 1e-05
-0.0166644 0.0145 1e-05
-0.0166423 0.0145406 1e-05
-0.0166202 0.0145811 1e-05
-0.0165981 0.0146216 1e-05
-0.0165758 0.0146621 1e-05
-0.0165542 0.0147014 1e-05
-0.0165212 0.0147611 1e-05
-0.016488 0.0148208 1e-05
-0.0164547 0.0148803 1e-05
-0.0164213 0.0149398 1e-05
-0.0163873 0.015 1e-05
-0.0163741 0.0150233 1e-05
-0.0163608 0.0150465 1e-05
-0.0163476 0.0150698 1e-05
-0.0163343 0.015093 1e-05
-0.0163212 0.0151159 1e-05
-0.0162771 0.0151927 1e-05
-0.0162328 0.0152694 1e-05
-0.0161882 0.015346 1e-05
-0.0161434 0.0154224 1e-05
-0.0160976 0.0155 1e-05
-0.0160961 0.0155026 1e-05
-0.0160946 0.0155051 1e-05
-0.0160931 0.0155077 1e-05
-0.0160915 0.0155102 1e-05
-0.01609 0.0155128 1e-05
-0.0160442 0.0155899 1e-05
-0.0159981 0.0156669 1e-05
-0.0159518 0.0157437 1e-05
-0.0159052 0.0158204 1e-05
-0.0158607 0.0158931 1e-05
-0.0158476 0.0159145 1e-05
-0.0158344 0.0159359 1e-05
-0.0158212 0.0159572 1e-05
-0.015808 0.0159786 1e-05
-0.0157948 0.016 1e-05
-0.0157625 0.016052 1e-05
-0.0157301 0.0161039 1e-05
-0.0156976 0.0161558 1e-05
-0.015665 0.0162076 1e-05
-0.0156333 0.0162576 1e-05
-0.0156025 0.0163061 1e-05
-0.0155716 0.0163545 1e-05
-0.0155407 0.0164029 1e-05
-0.0155096 0.0164512 1e-05
-0.015478 0.0165 1e-05
-0.015464 0.0165217 1e-05
-0.0154499 0.0165433 1e-05
-0.0154358 0.016565 1e-05
-0.0154217 0.0165866 1e-05
-0.0154077 0.016608 1e-05
-0.015363 0.0166763 1e-05
-0.015318 0.0167445 1e-05
-0.0152729 0.0168126 1e-05
-0.0152276 0.0168805 1e-05
-0.0151839 0.0169456 1e-05
-0.0151766 0.0169565 1e-05
-0.0151692 0.0169673 1e-05
-0.0151619 0.0169782 1e-05
-0.0151545 0.0169891 1e-05
-0.0151471 0.017 1e-05
-0.0151101 0.0170546 1e-05
-0.0150729 0.0171092 1e-05
-0.0150357 0.0171637 1e-05
-0.0149983 0.0172181 1e-05
-0.0149619 0.0172706 1e-05
-0.0149301 0.0173165 1e-05
-0.0148982 0.0173623 1e-05
-0.0148662 0.0174081 1e-05
-0.0148341 0.0174538 1e-05
-0.0148015 0.0175 1e-05
-0.0147896 0.0175169 1e-05
-0.0147776 0.0175338 1e-05
-0.0147656 0.0175506 1e-05
-0.0147536 0.0175675 1e-05
-0.0147417 0.0175842 1e-05
-0.0146981 0.0176454 1e-05
-0.0146542 0.0177066 1e-05
-0.0146102 0.0177676 1e-05
-0.0145661 0.0178286 1e-05
-0.0145233 0.0178873 1e-05
-0.0145068 0.0179098 1e-05
-0.0144903 0.0179323 1e-05
-0.0144738 0.0179549 1e-05
-0.0144572 0.0179774 1e-05
-0.0144405 0.018 1e-05
-0.0144137 0.0180362 1e-05
-0.0143869 0.0180724 1e-05
-0.01436 0.0181085 1e-05
-0.0143331 0.0181446 1e-05
-0.0143067 0.0181799 1e-05
-0.0142637 0.0182372 1e-05
-0.0142206 0.0182944 1e-05
-0.0141773 0.0183514 1e-05
-0.0141339 0.0184084 1e-05
-0.0140917 0.0184635 1e-05
-0.0140861 0.0184708 1e-05
-0.0140805 0.0184781 1e-05
-0.0140749 0.0184854 1e-05
-0.0140693 0.0184927 1e-05
-0.0140636 0.0185 1e-05
-0.0140266 0.018548 1e-05
-0.0139895 0.0185959 1e-05
-0.0139523 0.0186437 1e-05
-0.013915 0.0186914 1e-05
-0.0138786 0.0187379 1e-05
-0.0138373 0.0187903 1e-05
-0.0137959 0.0188427 1e-05
-0.0137544 0.0188949 1e-05
-0.0137128 0.018947 1e-05
-0.0136703 0.019 1e-05
-0.0136697 0.0190008 1e-05
-0.013669 0.0190016 1e-05
-0.0136684 0.0190024 1e-05
-0.0136677 0.0190032 1e-05
-0.0136671 0.019004 1e-05
-0.0136251 0.0190561 1e-05
-0.0135831 0.0191081 1e-05
-0.0135409 0.01916 1e-05
-0.0134986 0.0192118 1e-05
-0.0134573 0.0192621 1e-05
-0.0134182 0.0193097 1e-05
-0.0133789 0.0193572 1e-05
-0.0133395 0.0194046 1e-05
-0.0133001 0.019452 1e-05
-0.0132599 0.0195 1e-05
-0.0132578 0.0195025 1e-05
-0.0132556 0.0195051 1e-05
-0.0132535 0.0195076 1e-05
-0.0132514 0.0195101 1e-05
-0.0132493 0.0195126 1e-05
-0.013208 0.0195617 1e-05
-0.0131666 0.0196107 1e-05
-0.0131251 0.0196596 1e-05
-0.0130835 0.0197085 1e-05
-0.0130429 0.019756 1e-05
-0.0130019 0.0198037 1e-05
-0.0129609 0.0198513 1e-05
-0.0129197 0.0198988 1e-05
-0.0128785 0.0199463 1e-05
-0.0128381 0.0199925 1e-05
-0.0128368 0.019994 1e-05
-0.0128355 0.0199955 1e-05
-0.0128342 0.019997 1e-05
-0.0128329 0.0199985 1e-05
-0.0128316 0.02 1e-05
-0.0127923 0.0200448 1e-05
-0.0127529 0.0200896 1e-05
-0.0127134 0.0201343 1e-05
-0.0126738 0.020179 1e-05
-0.012635 0.0202226 1e-05
-0.0125947 0.0202677 1e-05
-0.0125544 0.0203127 1e-05
-0.0125139 0.0203576 1e-05
-0.0124734 0.0204025 1e-05
-0.0124336 0.0204464 1e-05
-0.0124238 0.0204571 1e-05
-0.0124141 0.0204678 1e-05
-0.0124043 0.0204785 1e-05
-0.0123945 0.0204893 1e-05
-0.0123847 0.0205 1e-05
-0.0123545 0.020533 1e-05
-0.0123243 0.020566 1e-05
[...]
POINT_DATA 12130
 FIELD attributes 1
U 3 12130 float
-0.0277748 	-0.286624 	0 -0.0281302 	-0.286599 	0 -0.0284864 	-0.286572 	0 -0.0288421 	-0.286544 	0 -0.0291977 	-0.286516 	0 -0.0295567 	-0.286487 	0 -0.0300219 	-0.286456 	0 -0.0304895 	-0.286423 	0 -0.0309548 	-0.286389 	0 -0.0314189 	-0.286354 	0 -0.0318862 	-0.286317 	0 -0.0324401 	-0.286273 	0 -0.0329958 	-0.286227 	0 -0.0335514 	-0.286181 	0 -0.0341057 	-0.286133 	0 -0.0346606 	-0.286083 	0 -0.0352173 	-0.286031 	0 -0.0357755 	-0.285977 	0 -0.0363335 	-0.285923 	0 -0.0368914 	-0.285868 	0 -0.0373667 	-0.28582 	0 -0.0374504 	-0.285812 	0 -0.0375346 	-0.285803 	0 -0.0376193 	-0.285794 	0 -0.0377041 	-0.285786 	0 -0.0377904 	-0.285777 	0 -0.0384716 	-0.285703 	0 -0.0391529 	-0.285628 	0 -0.039834 	-0.285552 	0 -0.0405149 	-0.285474 	0 -0.0411991 	-0.285394 	0 -0.0419256 	-0.285306 	0 -0.0426528 	-0.285215 	0 -0.0433761 	-0.285123 	0 -0.0440991 	-0.285028 	0 -0.0448255 	-0.284932 	0 -0.0455842 	-0.284827 	0 -0.0463435 	-0.28472 	0 -0.0471025 	-0.284612 	0 -0.0478612 	-0.284503 	0 -0.0486206 	-0.28439 	0 -0.0488906 	-0.284348 	0 -0.049161 	-0.284306 	0 -0.0494315 	-0.284263 	0 -0.0497019 	-0.284221 	0 -0.0499582 	-0.28418 	0 -0.0504751 	-0.284098 	0 -0.0509924 	-0.284015 	0 -0.0515096 	-0.283932 	0 -0.0520267 	-0.283848 	0 -0.0525459 	-0.283763 	0 -0.053353 	-0.283625 	0 -0.0541593 	-0.283486 	0 -0.0549629 	-0.283344 	0 -0.0557662 	-0.283201 	0 -0.0565739 	-0.283055 	0 -0.0573957 	-0.282901 	0 -0.0582175 	-0.282745 	0 -0.059039 	-0.282588 	0 -0.0598601 	-0.282429 	0 -0.0606857 	-0.282268 	0 -0.0607115 	-0.282263 	0 -0.0607373 	-0.282257 	0 -0.0607633 	-0.282252 	0 -0.0607893 	-0.282247 	0 -0.0608152 	-0.282241 	0 -0.0616246 	-0.282076 	0 -0.062434 	-0.281909 	0 -0.0632431 	-0.28174 	0 -0.0640519 	-0.28157 	0 -0.0648657 	-0.281398 	0 -0.065714 	-0.281212 	0 -0.0665622 	-0.281024 	0 -0.06741 	-0.280836 	0 -0.0682569 	-0.280645 	0 -0.0691075 	-0.28045 	0 -0.0693379 	-0.280396 	0 -0.0695684 	-0.280341 	0 -0.0697989 	-0.280287 	0 -0.0700293 	-0.280232 	0 -0.0702524 	-0.280179 	0 -0.0708824 	-0.280029 	0 -0.0715123 	-0.279879 	0 -0.072142 	-0.279727 	0 -0.0727715 	-0.279575 	0 -0.0734046 	-0.279421 	0 -0.0742746 	-0.279204 	0 -0.0751443 	-0.278986 	0 -0.0760135 	-0.278766 	0 -0.0768819 	-0.278544 	0 -0.0777554 	-0.278317 	0 -0.0779341 	-0.27827 	0 -0.0781129 	-0.278223 	0 -0.0782916 	-0.278175 	0 -0.0784704 	-0.278127 	0 -0.0786453 	-0.278081 	0 -0.0793472 	-0.277894 	0 -0.0800491 	-0.277706 	0 -0.0807506 	-0.277517 	0 -0.0814518 	-0.277327 	0 -0.082158 	-0.277134 	0 -0.0829975 	-0.276901 	0 -0.0838367 	-0.276666 	0 -0.0846754 	-0.27643 	0 -0.0855137 	-0.276193 	0 -0.0862699 	-0.275977 	0 -0.0863387 	-0.275958 	0 -0.0864076 	-0.275938 	0 -0.0864765 	-0.275918 	0 -0.0865455 	-0.275898 	0 -0.0866146 	-0.275878 	0 -0.0875164 	-0.275616 	0 -0.0884167 	-0.275352 	0 -0.0893164 	-0.275086 	0 -0.0902156 	-0.274818 	0 -0.0911237 	-0.274546 	0 -0.091563 	-0.274413 	0 -0.0920022 	-0.274279 	0 -0.0924414 	-0.274144 	0 -0.0928803 	-0.274009 	0 -0.0932988 	-0.27388 	0 -0.0937766 	-0.273733 	0 -0.0942544 	-0.273586 	0 -0.094732 	-0.273438 	0 -0.0952095 	-0.273289 	0 -0.0956898 	-0.273139 	0 -0.0965364 	-0.272872 	0 -0.0973826 	-0.272604 	0 -0.0982282 	-0.272334 	0 -0.0990732 	-0.272063 	0 -0.0998466 	-0.271813 	0 -0.09994 	-0.271783 	0 -0.100034 	-0.271753 	0 -0.100127 	-0.271723 	0 -0.100221 	-0.271693 	0 -0.100315 	-0.271662 	0 -0.101251 	-0.271357 	0 -0.102186 	-0.271049 	0 -0.103121 	-0.27074 	0 -0.104054 	-0.270429 	0 -0.104999 	-0.270112 	0 -0.105201 	-0.270044 	0 -0.105403 	-0.269975 	0 -0.105605 	-0.269907 	0 -0.105808 	-0.269838 	0 -0.106006 	-0.26977 	0 -0.106753 	-0.269517 	0 -0.1075 	-0.269262 	0 -0.108247 	-0.269007 	0 -0.108993 	-0.26875 	0 -0.109747 	-0.26849 	0 -0.110167 	-0.268344 	0 -0.110587 	-0.268197 	0 -0.111007 	-0.26805 	0 -0.111427 	-0.267903 	0 -0.111831 	-0.26776 	0 -0.112377 	-0.267569 	0 -0.112922 	-0.267377 	0 -0.113467 	-0.267185 	0 -0.114012 	-0.266992 	0 -0.114561 	-0.266797 	0 -0.115129 	-0.266595 	0 -0.115696 	-0.266391 	0 -0.116263 	-0.266188 	0 -0.11683 	-0.265983 	0 -0.117369 	-0.265788 	0 -0.117784 	-0.265638 	0 -0.118199 	-0.265489 	0 -0.118613 	-0.265338 	0 -0.119028 	-0.265188 	0 -0.119445 	-0.265036 	0 -0.120095 	-0.264799 	0 -0.120745 	-0.26456 	0 -0.121395 	-0.264321 	0 -0.122044 	-0.264081 	0 -0.122659 	-0.263853 	0 -0.123007 	-0.263725 	0 -0.123355 	-0.263596 	0 -0.123703 	-0.263467 	0 -0.12405 	-0.263338 	0 -0.1244 	-0.263208 	0 -0.125074 	-0.262956 	0 -0.125747 	-0.262704 	0 -0.12642 	-0.262451 	0 -0.127093 	-0.262197 	0 -0.127731 	-0.261956 	0 -0.12807 	-0.261828 	0 -0.128409 	-0.261699 	0 -0.128749 	-0.261571 	0 -0.129088 	-0.261443 	0 -0.129429 	-0.261313 	0 -0.130071 	-0.261069 	0 -0.130713 	-0.260824 	0 -0.131354 	-0.260578 	0 -0.131995 	-0.260332 	0 -0.132606 	-0.260096 	0 -0.132991 	-0.259948 	0 -0.133377 	-0.2598 	0 -0.133762 	-0.259652 	0 -0.134147 	-0.259503 	0 -0.134535 	-0.259353 	0 -0.135094 	-0.259137 	0 -0.135652 	-0.25892 	0 -0.13621 	-0.258703 	0 -0.136768 	-0.258485 	0 -0.137304 	-0.258275 	0 -0.137787 	-0.258087 	0 -0.13827 	-0.257899 	0 -0.138753 	-0.25771 	0 -0.139235 	-0.257521 	0 -0.139722 	-0.257329 	0 -0.140149 	-0.257162 	0 -0.140575 	-0.256994 	0 -0.141001 	-0.256825 	0 -0.141427 	-0.256657 	0 -0.141841 	-0.256493 	0 -0.14247 	-0.256245 	0 -0.1431 	-0.255996 	0 -0.143729 	-0.255747 	0 -0.144357 	-0.255498 	0 -0.144993 	-0.255244 	0 -0.145241 	-0.255145 	0 -0.14549 	-0.255046 	0 -0.145738 	-0.254947 	0 -0.145987 	-0.254847 	0 -0.146231 	-0.254749 	0 -0.147054 	-0.254423 	0 -0.147875 	-0.254095 	0 -0.148696 	-0.253766 	0 -0.149516 	-0.253437 	0 -0.15035 	-0.253101 	0 -0.150378 	-0.25309 	0 -0.150405 	-0.253078 	0 -0.150433 	-0.253067 	0 -0.150461 	-0.253056 	0 -0.150489 	-0.253045 	0 -0.151327 	-0.252709 	0 -0.152164 	-0.252371 	0 -0.152999 	-0.252033 	0 -0.153834 	-0.251694 	0 -0.154627 	-0.25137 	0 -0.15486 	-0.251276 	0 -0.155093 	-0.251181 	0 -0.155326 	-0.251087 	0 -0.155559 	-0.250992 	0 -0.155794 	-0.250896 	0 -0.156368 	-0.250663 	0 -0.156942 	-0.25043 	0 -0.157515 	-0.250196 	0 -0.158088 	-0.249962 	0 -0.158641 	-0.249735 	0 -0.159179 	-0.249516 	0 -0.159716 	-0.249297 	0 -0.160252 	-0.249078 	0 -0.160788 	-0.248859 	0 -0.161331 	-0.248636 	0 -0.161574 	-0.248536 	0 -0.161817 	-0.248437 	0 -0.162061 	-0.248337 	0 -0.162304 	-0.248237 	0 -0.162544 	-0.248138 	0 -0.163313 	-0.247825 	0 -0.164082 	-0.247511 	0 -0.164849 	-0.247197 	0 -0.165615 	-0.24688 	0 -0.166348 	-0.246576 	0 -0.166471 	-0.246525 	0 -0.166594 	-0.246475 	0 -0.166717 	-0.246424 	0 -0.166839 	-0.246373 	0 -0.166963 	-0.246322 	0 -0.167587 	-0.246066 	0 -0.168211 	-0.245809 	0 -0.168834 	-0.245551 	0 -0.169456 	-0.245293 	0 -0.170058 	-0.245043 	0 -0.170584 	-0.244827 	0 -0.17111 	-0.24461 	0 -0.171635 	-0.244393 	0 -0.17216 	-0.244176 	0 -0.172692 	-0.243956 	0 -0.172888 	-0.243874 	0 -0.173084 	-0.243793 	0 -0.17328 	-0.243712 	0 -0.173476 	-0.243631 	0 -0.173671 	-0.24355 	0 -0.174384 	-0.243258 	0 -0.175098 	-0.242965 	0 -0.175809 	-0.242669 	0 -0.176518 	-0.242373 	0 -0.177203 	-0.242086 	0 -0.177466 	-0.241977 	0 -0.177729 	-0.241868 	0 -0.177993 	-0.241759 	0 -0.178256 	-0.24165 	0 -0.17852 	-0.24154 	0 -0.178949 	-0.241362 	0 -0.179377 	-0.241185 	0 -0.179804 	-0.241007 	0 -0.180232 	-0.240829 	0 -0.180651 	-0.240655 	0 -0.18133 	-0.240375 	0 -0.182009 	-0.240095 	0 -0.182687 	-0.239815 	0 -0.183364 	-0.239534 	0 -0.184018 	-0.239259 	0 -0.184105 	-0.239223 	0 -0.184191 	-0.239187 	0 -0.184278 	-0.239151 	0 -0.184365 	-0.239115 	0 -0.184452 	-0.239078 	0 -0.185029 	-0.23884 	0 -0.185606 	-0.2386 	0 -0.186182 	-0.238361 	0 -0.186758 	-0.238121 	0 -0.187318 	-0.237887 	0 -0.187951 	-0.237626 	0 -0.188584 	-0.237365 	0 -0.189215 	-0.237103 	0 -0.189846 	-0.236842 	0 -0.190488 	-0.236575 	0 -0.190497 	-0.236571 	0 -0.190507 	-0.236567 	0 -0.190517 	-0.236563 	0 -0.190527 	-0.236558 	0 -0.190537 	-0.236554 	0 -0.191174 	-0.236291 	0 -0.191811 	-0.236027 	0 -0.192448 	-0.235763 	0 -0.193083 	-0.235498 	0 -0.193701 	-0.23524 	0 -0.194285 	-0.235 	0 -0.194869 	-0.234759 	0 -0.195453 	-0.234518 	0 -0.196035 	-0.234276 	0 -0.196627 	-0.234031 	0 -0.196659 	-0.234018 	0 -0.19669 	-0.234005 	0 -0.196721 	-0.233992 	0 -0.196753 	-0.233979 	0 -0.196785 	-0.233965 	0 -0.197397 	-0.233714 	0 -0.198007 	-0.233462 	0 -0.198617 	-0.233209 	0 -0.199226 	-0.232956 	0 -0.19982 	-0.232709 	0 -0.200416 	-0.232465 	0 -0.201011 	-0.23222 	0 -0.201606 	-0.231975 	0 -0.2022 	-0.23173 	0 -0.20278 	-0.23149 	0 -0.202798 	-0.231482 	0 -0.202817 	-0.231474 	0 -0.202835 	-0.231467 	0 -0.202854 	-0.231459 	0 -0.202873 	-0.231451 	0 -0.203441 	-0.231218 	0 -0.204009 	-0.230985 	0 -0.204576 	-0.230751 	0 -0.205142 	-0.230517 	0 -0.205696 	-0.230287 	0 -0.206269 	-0.230054 	0 -0.206842 	-0.229821 	0 -0.207414 	-0.229587 	0 -0.207985 	-0.229353 	0 -0.208542 	-0.22912 	0 -0.208678 	-0.229064 	0 -0.208814 	-0.229008 	0 -0.20895 	-0.228952 	0 -0.209086 	-0.228896 	0 -0.209223 	-0.228839 	0 -0.209649 	-0.228665 	0 -0.210074 	-0.228492 	0 -0.210499 	-0.228317 	0 -0.210923 	-0.228143 	0 -0.211342 	-0.227972 	0 -0.211894 	-0.227749 	0 -0.212446 	-0.227527 	0 -0.212997 	-0.227303 	0 -0.213546 	-0.227076 	0 -0.214084 	-0.226852 	0 -0.214402 	-0.226722 	0 -0.214721 	-0.226592 	0 -0.21504 	-0.226462 	0 -0.215358 	-0.226332 	0 -0.215679 	-0.226201 	0 -0.215898 	-0.226112 	0 -0.216117 	-0.226023 	0 -0.216336 	-0.225934 	0 -0.216554 	-0.225846 	0 -0.216772 	-0.225757 	0 -0.217305 	-0.225546 	0 -0.217837 	-0.225331 	0 -0.218367 	-0.225114 	0 -0.218897 	-0.224897 	0 -0.219417 	-0.224683 	0 -0.219937 	-0.224474 	0 -0.220456 	-0.224265 	0 -0.220975 	-0.224056 	0 -0.221493 	-0.223847 	0 -0.222001 	-0.223639 	0 -0.222048 	-0.22362 	0 -0.222096 	-0.2236 	0 -0.222144 	-0.223581 	0 -0.222192 	-0.223561 	0 -0.22224 	-0.223542 	0 -0.222704 	-0.223355 	0 -0.223169 	-0.223168 	0 -0.223633 	-0.222981 	0 -0.224097 	-0.222794 	0 -0.224554 	-0.222609 	0 -0.225057 	-0.22241 	0 -0.22556 	-0.222211 	0 -0.226061 	-0.222011 	0 -0.22656 	-0.221807 	0 -0.227052 	-0.221606 	0 -0.22742 	-0.221458 	0 -0.227789 	-0.221311 	0 -0.228157 	-0.221163 	0 -0.228524 	-0.221015 	0 -0.228897 	-0.220866 	0 -0.229017 	-0.220818 	0 -0.229137 	-0.22077 	0 -0.229258 	-0.220722 	0 -0.229378 	-0.220674 	0 -0.229499 	-0.220626 	0 -0.229986 	-0.220436 	0 -0.230471 	-0.220242 	0 -0.230955 	-0.220048 	0 -0.231439 	-0.219854 	0 -0.231916 	-0.219662 	0 -0.232391 	-0.219476 	0 -0.232866 	-0.219289 	0 -0.233341 	-0.219103 	0 -0.233813 	-0.218913 	0 -0.234279 	-0.218724 	0 -0.234552 	-0.218615 	0 -0.234825 	-0.218507 	0 -0.235098 	-0.218398 	0 -0.235371 	-0.218289 	0 -0.235647 	-0.218179 	0 -0.235838 	-0.218104 	0 -0.236028 	-0.218029 	0 -0.236219 	-0.217954 	0 -0.23641 	-0.217879 	0 -0.236599 	-0.217805 	0 -0.237061 	-0.217628 	0 -0.23752 	-0.217447 	0 -0.237979 	-0.217264 	0 -0.238437 	-0.217082 	0 -0.238889 	-0.216902 	0 -0.239339 	-0.216727 	0 -0.239789 	-0.216553 	0 -0.240239 	-0.216378 	0 -0.240686 	-0.216201 	0 -0.241127 	-0.216023 	0 -0.241398 	-0.215916 	0 -0.241669 	-0.21581 	0 -0.241939 	-0.215703 	0 -0.242209 	-0.215597 	0 -0.242482 	-0.215489 	0 -0.242651 	-0.215424 	0 -0.24282 	-0.215358 	0 -0.242989 	-0.215293 	0 -0.243158 	-0.215227 	0 -0.243327 	-0.215161 	0 -0.243764 	-0.214996 	0 -0.2442 	-0.214826 	0 -0.244635 	-0.214655 	0 -0.245069 	-0.214484 	0 -0.245499 	-0.214314 	0 -0.245926 	-0.214152 	0 -0.246353 	-0.213989 	0 -0.246779 	-0.213826 	0 -0.247203 	-0.213657 	0 -0.247622 	-0.21349 	0 -0.247976 	-0.213353 	0 -0.248329 	-0.213216 	0 -0.248682 	-0.213079 	0 -0.249035 	-0.212942 	0 -0.249392 	-0.212803 	0 -0.249453 	-0.212779 	0 -0.249515 	-0.212755 	0 -0.249577 	-0.212732 	0 -0.249639 	-0.212708 	0 -0.249702 	-0.212684 	0 -0.250117 	-0.212527 	0 -0.250531 	-0.212367 	0 -0.250944 	-0.212207 	0 -0.251357 	-0.212047 	0 -0.251766 	-0.211889 	0 -0.252171 	-0.211737 	0 -0.252577 	-0.211585 	0 -0.252981 	-0.211429 	0 -0.253384 	-0.211271 	0 -0.253783 	-0.211113 	0 -0.254178 	-0.210963 	0 -0.254574 	-0.210812 	0 -0.254969 	-0.210662 	0 -0.255364 	-0.210511 	0 -0.255754 	-0.210358 	0 -0.255873 	-0.210311 	0 -0.255994 	-0.210264 	0 -0.256114 	-0.210218 	0 -0.256235 	-0.210171 	0 -0.256356 	-0.210124 	0 -0.256626 	-0.210022 	0 -0.256896 	-0.20992 	0 -0.257166 	-0.209817 	0 -0.257436 	-0.209715 	0 -0.257704 	-0.209613 	0 -0.25809 	-0.209472 	0 -0.258475 	-0.209326 	0 -0.258859 	-0.209178 	0 -0.259242 	-0.20903 	0 -0.259622 	-0.208883 	0 -0.259999 	-0.208743 	0 -0.260375 	-0.208603 	0 -0.260752 	-0.208463 	0 -0.261126 	-0.208317 	0 -0.261497 	-0.208171 	0 -0.261864 	-0.208033 	0 -0.262231 	-0.207894 	0 -0.262598 	-0.207754 	0 -0.262964 	-0.207615 	0 -0.263328 	-0.207477 	0 -0.263334 	-0.207474 	0 -0.263341 	-0.207472 	0 -0.263348 	-0.207469 	0 -0.263354 	-0.207466 	0 -0.263361 	-0.207464 	0 -0.26372 	-0.207329 	0 -0.26408 	-0.207194 	0 -0.264439 	-0.207059 	0 -0.264797 	-0.206923 	0 -0.265153 	-0.206789 	0 -0.265512 	-0.206659 	0 -0.265871 	-0.206528 	0 -0.266228 	-0.206391 	0 -0.266584 	-0.206254 	0 -0.266938 	-0.206118 	0 -0.267288 	-0.205989 	0 -0.267638 	-0.20586 	0 -0.267987 	-0.205731 	0 -0.268335 	-0.205598 	0 -0.26868 	-0.205462 	0 -0.269019 	-0.205335 	0 -0.269357 	-0.205208 	0 -0.269696 	-0.205081 	0 -0.270033 	-0.204953 	0 -0.270376 	-0.204825 	0 -0.270377 	-0.204824 	0 -0.270378 	-0.204824 	0 -0.270379 	-0.204823 	0 -0.270381 	-0.204823 	0 -0.270382 	-0.204822 	0 -0.270722 	-0.204696 	0 -0.271063 	-0.204569 	0 -0.271404 	-0.204442 	0 -0.271744 	-0.204315 	0 -0.272083 	-0.204189 	0 -0.272416 	-0.204071 	0 -0.272749 	-0.203949 	0 -0.273081 	-0.203823 	0 -0.273413 	-0.203697 	0 -0.273743 	-0.203571 	0 -0.274068 	-0.203453 	0 -0.274393 	-0.203336 	0 -0.274719 	-0.203218 	0 -0.275042 	-0.203093 	0 -0.275364 	-0.202968 	0 -0.27568 	-0.202851 	0 -0.275997 	-0.202734 	0 -0.276314 	-0.202617 	0 -0.27663 	-0.202499 	0 -0.276945 	-0.202379 	0 -0.277028 	-0.202348 	0 -0.277112 	-0.202316 	0 -0.277197 	-0.202284 	0 -0.277281 	-0.202252 	0 -0.277366 	-0.202221 	0 -0.277596 	-0.202137 	0 -0.277827 	-0.202053 	0 -0.278057 	-0.201968 	0 -0.278287 	-0.201884 	0 -0.278517 	-0.201801 	0 -0.278827 	-0.201694 	0 -0.279136 	-0.201579 	0 -0.279445 	-0.201465 	0 -0.279754 	-0.20135 	0 -0.280062 	-0.201235 	0 -0.280364 	-0.201129 	0 -0.280666 	-0.201024 	0 -0.280968 	-0.200913 	0 -0.281269 	-0.200799 	0 -0.281569 	-0.200686 	0 -0.281863 	-0.200581 	0 -0.282157 	-0.200476 	0 -0.282452 	-0.200371 	0 -0.282746 	-0.200264 	0 -0.283038 	-0.200152 	0 -0.283288 	-0.200061 	0 -0.283538 	-0.19997 	0 -0.283789 	-0.19988 	0 -0.284039 	-0.199789 	0 -0.284292 	-0.199698 	0 -0.284328 	-0.199685 	0 -0.284364 	-0.199672 	0 -0.2844 	-0.199659 	0 -0.284437 	-0.199646 	0 -0.284474 	-0.199634 	0 -0.284762 	-0.199534 	0 -0.28505 	-0.199433 	0 -0.285338 	-0.199332 	0 -0.285625 	-0.199231 	0 -0.285912 	-0.19913 	0 -0.286192 	-0.199039 	0 -0.286473 	-0.198944 	0 -0.286753 	-0.198845 	0 -0.287033 	-0.198746 	0 -0.287312 	-0.198647 	0 -0.287585 	-0.198558 	0 -0.287859 	-0.19847 	0 -0.288133 	-0.198379 	0 -0.288405 	-0.198282 	0 -0.288677 	-0.198186 	0 -0.288943 	-0.1981 	0 -0.289209 	-0.198015 	0 -0.289475 	-0.197929 	0 -0.289741 	-0.197843 	0 -0.290005 	-0.197749 	0 -0.290221 	-0.197681 	0 -0.290438 	-0.197612 	0 -0.290654 	-0.197544 	0 -0.29087 	-0.197475 	0 -0.291089 	-0.197406 	0 -0.291132 	-0.197393 	0 -0.291175 	-0.19738 	0 -0.291218 	-0.197367 	0 -0.291261 	-0.197354 	0 -0.291306 	-0.197341 	0 -0.291566 	-0.197266 	0 -0.291827 	-0.197191 	0 -0.292087 	-0.197115 	0 -0.292348 	-0.197039 	0 -0.292608 	-0.196963 	0 -0.292861 	-0.196902 	0 -0.293115 	-0.196835 	0 -0.293369 	-0.196765 	0 -0.293622 	-0.196694 	0 -0.293875 	-0.196624 	0 -0.294122 	-0.19657 	0 -0.294369 	-0.196516 	0 -0.294616 	-0.196457 	0 -0.294862 	-0.196393 	0 -0.295109 	-0.19633 	0 -0.295348 	-0.196284 	0 -0.295589 	-0.196238 	0 -0.295829 	-0.196192 	0 -0.296069 	-0.196144 	0 -0.296309 	-0.196089 	0 -0.296542 	-0.196053 	0 -0.296775 	-0.196017 	0 -0.297009 	-0.195981 	0 -0.297242 	-0.195946 	0 -0.297476 	-0.195909 	0 -0.297517 	-0.195904 	0 -0.297559 	-0.195899 	0 -0.297601 	-0.195895 	0 -0.297643 	-0.195891 	0 -0.297686 	-0.195887 	0 -0.297877 	-0.195869 	0 -0.298069 	-0.195852 	0 -0.298261 	-0.195835 	0 -0.298453 	-0.195818 	0 -0.298646 	-0.195801 	0 -0.298874 	-0.195803 	0 -0.299104 	-0.195797 	0 -0.299333 	-0.195791 	0 -0.299562 	-0.195785 	0 -0.299792 	-0.195779 	0 -0.300014 	-0.195801 	0 -0.300236 	-0.195823 	0 -0.300459 	-0.195835 	0 -0.300682 	-0.195846 	0 -0.300906 	-0.195859 	0 -0.301121 	-0.195902 	0 -0.301337 	-0.195946 	0 -0.301553 	-0.19599 	0 -0.30177 	-0.196023 	0 -0.301988 	-0.196057 	0 -0.302196 	-0.196126 	0 -0.302406 	-0.196195 	0 -0.302616 	-0.196265 	0 -0.302825 	-0.196334 	0 -0.303037 	-0.196394 	0 -0.303222 	-0.196484 	0 -0.303408 	-0.196575 	0 -0.303594 	-0.196666 	0 -0.30378 	-0.196757 	0 -0.303968 	-0.19685 	0 -0.303985 	-0.196858 	0 -0.304003 	-0.196866 	0 -0.30402 	-0.196875 	0 -0.304038 	-0.196883 	0 -0.304057 	-0.196893 	0 -0.304262 	-0.197031 	0 -0.304468 	-0.197169 	0 -0.304674 	-0.197307 	0 -0.30488 	-0.197445 	0 -0.305088 	-0.197585 	0 -0.305285 	-0.197777 	0 -0.305485 	-0.197957 	0 -0.305685 	-0.198136 	0 -0.305885 	-0.198315 	0 -0.306087 	-0.198496 	0 -0.306278 	-0.198735 	0 -0.30647 	-0.198977 	0 -0.306664 	-0.199204 	0 -0.306858 	-0.19943 	0 -0.307055 	-0.199659 	0 -0.307239 	-0.199953 	0 -0.307425 	-0.200249 	0 -0.307612 	-0.200545 	0 -0.3078 	-0.200827 	0 -0.307991 	-0.20111 	0 -0.308169 	-0.201466 	0 -0.30835 	-0.201825 	0 -0.30853 	-0.202184 	0 -0.308711 	-0.202543 	0 -0.308896 	-0.202889 	0 -0.309057 	-0.203287 	0 -0.30922 	-0.203687 	0 -0.309383 	-0.204087 	0 -0.309546 	-0.204487 	0 -0.309709 	-0.204886 	0 -0.309722 	-0.204916 	0 -0.309735 	-0.204947 	0 -0.309748 	-0.204977 	0 -0.309761 	-0.205007 	0 -0.309775 	-0.205041 	0 -0.309952 	-0.205555 	0 -0.31013 	-0.206071 	0 -0.310309 	-0.206586 	0 -0.310488 	-0.207102 	0 -0.31067 	-0.207623 	0 -0.310838 	-0.208248 	0 -0.311011 	-0.208855 	0 -0.311185 	-0.20946 	0 -0.311359 	-0.210065 	0 -0.311536 	-0.210677 	0 -0.311699 	-0.211403 	0 -0.311863 	-0.212132 	0 -0.312032 	-0.212838 	0 -0.312201 	-0.213542 	0 -0.312374 	-0.214255 	0 -0.312531 	-0.215093 	0 -0.31269 	-0.215933 	0 -0.312849 	-0.216773 	0 -0.313014 	-0.217588 	0 -0.313182 	-0.218413 	0 -0.313334 	-0.219373 	0 -0.313487 	-0.220336 	0 -0.313642 	-0.221298 	0 -0.313798 	-0.222259 	0 -0.313962 	-0.223209 	0 -0.314097 	-0.224218 	0 -0.314234 	-0.22523 	0 -0.314372 	-0.226242 	0 -0.314511 	-0.227252 	0 -0.314648 	-0.228239 	0 -0.314661 	-0.22833 	0 -0.314675 	-0.228422 	0 -0.314688 	-0.228513 	0 -0.314701 	-0.228606 	0 -0.314717 	-0.228704 	0 -0.314867 	-0.229954 	0 -0.31502 	-0.231206 	0 -0.315175 	-0.232456 	0 -0.315331 	-0.233704 	0 -0.315492 	-0.234977 	0 -0.315632 	-0.236419 	0 -0.315779 	-0.237831 	0 -0.315929 	-0.239236 	0 -0.316081 	-0.240638 	0 -0.316238 	-0.242073 	0 -0.316372 	-0.243683 	0 -0.316509 	-0.245297 	0 -0.316653 	-0.246876 	0 -0.3168 	-0.248443 	0 -0.316953 	-0.250049 	0 -0.317082 	-0.251838 	0 -0.317214 	-0.25363 	0 -0.317348 	-0.255419 	0 -0.317488 	-0.257175 	0 -0.317637 	-0.258964 	0 -0.317761 	-0.260941 	0 -0.317888 	-0.26292 	0 -0.318016 	-0.264895 	0 -0.318147 	-0.266865 	0 -0.318288 	-0.268871 	0 -0.318338 	-0.269796 	0 -0.31839 	-0.270727 	0 -0.318442 	-0.271657 	0 -0.318494 	-0.272586 	0 -0.318546 	-0.273504 	0 -0.318623 	-0.274765 	0 -0.318702 	-0.276032 	0 -0.318782 	-0.277297 	0 -0.318862 	-0.27856 	0 -0.318946 	-0.279853 	0 -0.319063 	-0.282294 	0 -0.31919 	-0.284696 	0 -0.31932 	-0.287091 	0 -0.319452 	-0.289479 	0 -0.319592 	-0.291954 	0 -0.3197 	-0.294628 	0 -0.319812 	-0.297301 	0 -0.319937 	-0.299905 	0 -0.320064 	-0.302501 	0 -0.3202 	-0.305202 	0 -0.320302 	-0.308097 	0 -0.320407 	-0.31099 	0 -0.320516 	-0.313874 	0 -0.320635 	-0.316704 	0 -0.320766 	-0.319635 	0 -0.320861 	-0.322755 	0 -0.320961 	-0.325872 	0 -0.321063 	-0.328977 	0 -0.321169 	-0.332069 	0 -0.321286 	-0.335287 	0 -0.321301 	-0.335879 	0 -0