# vtk DataFile Version 2.0
track0
ASCII
DATASET POLYDATA
POINTS 12115 float
-0.0205 0.001 1e-05
-0.0204934 0.0011 1e-05
-0.0204867 0.00119999 1e-05
-0.0204798 0.00129997 1e-05
-0.0204728 0.00139994 1e-05
-0.0204657 0.0015 1e-05
-0.0204584 0.0016 1e-05
-0.0204509 0.00169999 1e-05
-0.0204432 0.00179996 1e-05
-0.0204353 0.00189992 1e-05
-0.0204273 0.002 1e-05
-0.0204191 0.0021 1e-05
-0.0204106 0.00219998 1e-05
-0.0204019 0.00229995 1e-05
-0.0203931 0.00239989 1e-05
-0.020384 0.0025 1e-05
-0.0203746 0.0026 1e-05
-0.0203651 0.00269998 1e-05
-0.0203553 0.00279993 1e-05
-0.0203453 0.00289986 1e-05
-0.020335 0.003 1e-05
-0.0203251 0.00309448 1e-05
-0.0203149 0.00318893 1e-05
-0.0203046 0.00328336 1e-05
-0.020294 0.00337776 1e-05
-0.0202854 0.00345266 1e-05
-0.0202843 0.00346213 1e-05
-0.0202832 0.0034716 1e-05
-0.0202821 0.00348106 1e-05
-0.020281 0.00349053 1e-05
-0.0202799 0.0035 1e-05
-0.0202681 0.0036 1e-05
-0.0202561 0.00369997 1e-05
-0.0202438 0.00379991 1e-05
-0.0202312 0.00389981 1e-05
-0.0202184 0.004 1e-05
-0.0202053 0.0041 1e-05
-0.0201919 0.00419996 1e-05
-0.0201783 0.00429989 1e-05
-0.0201644 0.00439978 1e-05
-0.0201501 0.0045 1e-05
-0.0201357 0.0046 1e-05
-0.0201209 0.00469996 1e-05
-0.0201059 0.00479988 1e-05
-0.0200906 0.00489976 1e-05
-0.020075 0.005 1e-05
-0.0200645 0.00506646 1e-05
-0.0200538 0.0051329 1e-05
-0.020043 0.00519933 1e-05
-0.0200321 0.00526573 1e-05
-0.0200223 0.00532474 1e-05
-0.0200164 0.00535979 1e-05
-0.0200105 0.00539484 1e-05
-0.0200046 0.00542988 1e-05
-0.0199986 0.00546491 1e-05
-0.0199925 0.0055 1e-05
-0.0199753 0.0056 1e-05
-0.0199577 0.00569995 1e-05
-0.0199398 0.00579985 1e-05
-0.0199217 0.0058997 1e-05
-0.0199032 0.006 1e-05
-0.0198845 0.0061 1e-05
-0.0198654 0.00619995 1e-05
-0.0198461 0.00629984 1e-05
-0.0198265 0.00639967 1e-05
-0.0198065 0.0065 1e-05
-0.0197975 0.00654466 1e-05
-0.0197884 0.00658931 1e-05
-0.0197793 0.00663395 1e-05
-0.0197701 0.00667857 1e-05
-0.0197614 0.00672042 1e-05
-0.0197497 0.00677634 1e-05
-0.0197379 0.00683223 1e-05
-0.0197261 0.00688811 1e-05
-0.0197141 0.00694397 1e-05
-0.019702 0.007 1e-05
-0.0196803 0.0071 1e-05
-0.0196583 0.00719994 1e-05
-0.019636 0.00729981 1e-05
-0.0196134 0.00739961 1e-05
-0.0195903 0.0075 1e-05
-0.0195728 0.00757549 1e-05
-0.019555 0.00765093 1e-05
-0.0195371 0.00772634 1e-05
-0.0195191 0.00780171 1e-05
-0.0195025 0.00787009 1e-05
-0.0194962 0.00789607 1e-05
-0.0194898 0.00792205 1e-05
-0.0194834 0.00794802 1e-05
-0.019477 0.00797399 1e-05
-0.0194706 0.008 1e-05
-0.0194457 0.0081 1e-05
-0.0194206 0.00819993 1e-05
-0.0193952 0.00829977 1e-05
-0.0193695 0.00839955 1e-05
-0.0193432 0.0085 1e-05
-0.0193237 0.0085738 1e-05
-0.0193041 0.00864755 1e-05
-0.0192842 0.00872126 1e-05
-0.0192643 0.00879492 1e-05
-0.0192457 0.00886252 1e-05
-0.0192382 0.00889002 1e-05
-0.0192305 0.00891751 1e-05
-0.0192229 0.00894499 1e-05
-0.0192152 0.00897247 1e-05
-0.0192075 0.009 1e-05
-0.0191795 0.0091 1e-05
-0.0191511 0.00919991 1e-05
-0.0191225 0.00929974 1e-05
-0.0190935 0.00939948 1e-05
-0.0190639 0.0095 1e-05
-0.0190494 0.00954906 1e-05
-0.0190347 0.00959809 1e-05
-0.01902 0.00964711 1e-05
-0.0190052 0.0096961 1e-05
-0.018991 0.0097426 1e-05
-0.0189753 0.00979408 1e-05
-0.0189595 0.00984554 1e-05
-0.0189436 0.00989697 1e-05
-0.0189276 0.00994837 1e-05
-0.0189115 0.01 1e-05
-0.0188801 0.0101 1e-05
-0.0188483 0.0101999 1e-05
-0.0188163 0.0102997 1e-05
-0.0187839 0.0103994 1e-05
-0.0187509 0.0105 1e-05
-0.0187484 0.0105075 1e-05
-0.0187459 0.0105151 1e-05
-0.0187434 0.0105226 1e-05
-0.0187409 0.0105302 1e-05
-0.0187384 0.0105376 1e-05
-0.0187076 0.0106301 1e-05
-0.0186765 0.0107225 1e-05
-0.0186452 0.0108148 1e-05
-0.0186136 0.010907 1e-05
-0.0185813 0.011 1e-05
-0.0185626 0.0110535 1e-05
-0.0185438 0.011107 1e-05
-0.0185249 0.0111605 1e-05
-0.0185059 0.0112139 1e-05
-0.0184878 0.0112647 1e-05
-0.0184709 0.0113118 1e-05
-0.0184539 0.0113588 1e-05
-0.0184368 0.0114058 1e-05
-0.0184197 0.0114528 1e-05
-0.0184024 0.0115 1e-05
-0.0183698 0.0115887 1e-05
-0.0183369 0.0116773 1e-05
-0.0183037 0.0117659 1e-05
-0.0182703 0.0118543 1e-05
-0.0182392 0.0119359 1e-05
-0.0182343 0.0119487 1e-05
-0.0182293 0.0119615 1e-05
-0.0182244 0.0119743 1e-05
-0.0182194 0.0119872 1e-05
-0.0182145 0.012 1e-05
-0.0181758 0.0121 1e-05
-0.0181368 0.0121999 1e-05
-0.0180974 0.0122996 1e-05
-0.0180577 0.0123992 1e-05
-0.0180172 0.0125 1e-05
-0.0180123 0.0125121 1e-05
-0.0180073 0.0125242 1e-05
-0.0180024 0.0125363 1e-05
-0.0179975 0.0125484 1e-05
-0.0179926 0.0125604 1e-05
-0.0179567 0.0126483 1e-05
-0.0179205 0.0127361 1e-05
-0.017884 0.0128238 1e-05
-0.0178473 0.0129114 1e-05
-0.0178099 0.013 1e-05
-0.0177975 0.0130291 1e-05
-0.0177851 0.0130581 1e-05
-0.0177727 0.0130872 1e-05
-0.0177602 0.0131162 1e-05
-0.017748 0.0131446 1e-05
-0.0177173 0.0132156 1e-05
-0.0176864 0.0132867 1e-05
-0.0176553 0.0133576 1e-05
-0.0176241 0.0134285 1e-05
-0.0175924 0.0135 1e-05
-0.017575 0.013539 1e-05
-0.0175575 0.0135779 1e-05
-0.01754 0.0136168 1e-05
-0.0175224 0.0136557 1e-05
-0.0175053 0.0136935 1e-05
-0.0174775 0.0137548 1e-05
-0.0174495 0.013816 1e-05
-0.0174213 0.0138772 1e-05
-0.0173931 0.0139383 1e-05
-0.0173644 0.014 1e-05
-0.0173444 0.0140426 1e-05
-0.0173244 0.0140852 1e-05
-0.0173044 0.0141278 1e-05
-0.0172842 0.0141704 1e-05
-0.0172647 0.0142115 1e-05
-0.0172372 0.0142692 1e-05
-0.0172095 0.0143269 1e-05
-0.0171818 0.0143844 1e-05
-0.0171539 0.014442 1e-05
-0.0171257 0.0145 1e-05
-0.0171057 0.0145408 1e-05
-0.0170857 0.0145815 1e-05
-0.0170656 0.0146222 1e-05
-0.0170455 0.0146629 1e-05
-0.0170259 0.0147023 1e-05
-0.0169962 0.0147618 1e-05
-0.0169664 0.0148213 1e-05
-0.0169365 0.0148807 1e-05
-0.0169065 0.0149401 1e-05
-0.0168759 0.015 1e-05
-0.0168586 0.0150339 1e-05
-0.0168412 0.0150678 1e-05
-0.0168237 0.0151017 1e-05
-0.0168062 0.0151356 1e-05
-0.0167891 0.0151687 1e-05
-0.0167547 0.0152349 1e-05
-0.0167201 0.0153011 1e-05
-0.0166853 0.0153672 1e-05
-0.0166504 0.0154332 1e-05
-0.0166149 0.0155 1e-05
-0.0166028 0.0155227 1e-05
-0.0165906 0.0155454 1e-05
-0.0165784 0.0155681 1e-05
-0.0165662 0.0155907 1e-05
-0.0165542 0.015613 1e-05
-0.0165124 0.0156904 1e-05
-0.0164703 0.0157677 1e-05
-0.0164281 0.0158449 1e-05
-0.0163856 0.0159219 1e-05
-0.0163422 0.016 1e-05
-0.016338 0.0160075 1e-05
-0.0163338 0.0160151 1e-05
-0.0163296 0.0160226 1e-05
-0.0163254 0.0160302 1e-05
-0.0163212 0.0160377 1e-05
-0.0162749 0.0161201 1e-05
-0.0162285 0.0162024 1e-05
-0.0161817 0.0162846 1e-05
-0.0161347 0.0163666 1e-05
-0.01609 0.0164441 1e-05
-0.0160835 0.0164553 1e-05
-0.016077 0.0164665 1e-05
-0.0160705 0.0164776 1e-05
-0.016064 0.0164888 1e-05
-0.0160575 0.0165 1e-05
-0.0160182 0.0165674 1e-05
-0.0159786 0.0166348 1e-05
-0.0159389 0.016702 1e-05
-0.0158991 0.0167692 1e-05
-0.0158607 0.0168334 1e-05
-0.0158407 0.0168667 1e-05
-0.0158207 0.0169 1e-05
-0.0158006 0.0169333 1e-05
-0.0157805 0.0169665 1e-05
-0.0157601 0.017 1e-05
-0.0157348 0.0170417 1e-05
-0.0157093 0.0170833 1e-05
-0.0156838 0.0171248 1e-05
-0.0156583 0.0171664 1e-05
-0.0156333 0.0172068 1e-05
-0.015597 0.0172654 1e-05
-0.0155605 0.017324 1e-05
-0.0155239 0.0173825 1e-05
-0.0154872 0.0174409 1e-05
-0.0154498 0.0175 1e-05
-0.0154414 0.0175132 1e-05
-0.0154329 0.0175265 1e-05
-0.0154245 0.0175397 1e-05
-0.0154161 0.017553 1e-05
-0.0154077 0.0175661 1e-05
-0.015363 0.0176361 1e-05
-0.015318 0.0177061 1e-05
-0.0152729 0.0177759 1e-05
-0.0152276 0.0178456 1e-05
-0.0151839 0.0179123 1e-05
-0.0151724 0.0179298 1e-05
-0.0151608 0.0179474 1e-05
-0.0151493 0.0179649 1e-05
-0.0151377 0.0179824 1e-05
-0.0151261 0.018 1e-05
-0.0150932 0.0180495 1e-05
-0.0150603 0.018099 1e-05
-0.0150273 0.0181485 1e-05
-0.0149942 0.0181978 1e-05
-0.0149619 0.0182457 1e-05
-0.0149275 0.0182966 1e-05
-0.0148931 0.0183474 1e-05
-0.0148585 0.0183981 1e-05
-0.0148238 0.0184487 1e-05
-0.0147885 0.0185 1e-05
-0.0147792 0.0185135 1e-05
-0.0147698 0.0185271 1e-05
-0.0147604 0.0185406 1e-05
-0.0147511 0.0185541 1e-05
-0.0147417 0.0185676 1e-05
-0.0146981 0.0186305 1e-05
-0.0146542 0.0186932 1e-05
-0.0146102 0.0187559 1e-05
-0.0145661 0.0188185 1e-05
-0.0145233 0.0188788 1e-05
-0.0145061 0.018903 1e-05
-0.0144888 0.0189273 1e-05
-0.0144714 0.0189515 1e-05
-0.0144541 0.0189757 1e-05
-0.0144366 0.019 1e-05
-0.0144106 0.0190361 1e-05
-0.0143846 0.0190722 1e-05
-0.0143585 0.0191082 1e-05
-0.0143323 0.0191442 1e-05
-0.0143067 0.0191795 1e-05
-0.0142637 0.0192383 1e-05
-0.0142206 0.019297 1e-05
-0.0141773 0.0193557 1e-05
-0.0141339 0.0194142 1e-05
-0.0140917 0.0194708 1e-05
-0.0140874 0.0194767 1e-05
-0.014083 0.0194825 1e-05
-0.0140787 0.0194883 1e-05
-0.0140743 0.0194942 1e-05
-0.0140699 0.0195 1e-05
-0.0140316 0.019551 1e-05
-0.0139933 0.019602 1e-05
-0.0139548 0.0196529 1e-05
-0.0139162 0.0197037 1e-05
-0.0138786 0.019753 1e-05
-0.0138407 0.0198024 1e-05
-0.0138028 0.0198518 1e-05
-0.0137648 0.019901 1e-05
-0.0137267 0.0199502 1e-05
-0.013688 0.02 1e-05
-0.0136838 0.0200053 1e-05
-0.0136796 0.0200107 1e-05
-0.0136754 0.020016 1e-05
-0.0136713 0.0200214 1e-05
-0.0136671 0.0200267 1e-05
-0.0136251 0.0200803 1e-05
-0.0135831 0.0201338 1e-05
-0.0135409 0.0201872 1e-05
-0.0134986 0.0202405 1e-05
-0.0134573 0.0202923 1e-05
-0.0134241 0.0203339 1e-05
-0.0133908 0.0203754 1e-05
-0.0133575 0.0204168 1e-05
-0.013324 0.0204581 1e-05
-0.0132901 0.0205 1e-05
-0.0132819 0.02051 1e-05
-0.0132738 0.0205201 1e-05
-0.0132656 0.0205301 1e-05
-0.0132574 0.0205402 1e-05
-0.0132493 0.0205501 1e-05
-0.013208 0.0206007 1e-05
-0.0131666 0.0206512 1e-05
-0.0131251 0.0207015 1e-05
-0.0130835 0.0207518 1e-05
-0.0130429 0.0208008 1e-05
-0.0130097 0.0208407 1e-05
-0.0129764 0.0208804 1e-05
-0.0129431 0.0209202 1e-05
-0.0129097 0.0209599 1e-05
-0.0128758 0.021 1e-05
-0.0128683 0.0210089 1e-05
-0.0128607 0.0210178 1e-05
-0.0128532 0.0210267 1e-05
-0.0128456 0.0210356 1e-05
-0.0128381 0.0210444 1e-05
-0.0127975 0.0210922 1e-05
-0.0127568 0.02114 1e-05
-0.012716 0.0211876 1e-05
-0.0126751 0.0212352 1e-05
-0.012635 0.0212816 1e-05
-0.0125972 0.0213253 1e-05
-0.0125593 0.0213689 1e-05
[...]
POINT_DATA 12115
 FIELD attributes 1
U 3 12115 float
-0.0198879 	-0.302502 	0 -0.0203262 	-0.302479 	0 -0.0207651 	-0.302454 	0 -0.0212036 	-0.302428 	0 -0.021642 	-0.302402 	0 -0.0220844 	-0.302374 	0 -0.0226439 	-0.302344 	0 -0.0232054 	-0.302312 	0 -0.0237637 	-0.302278 	0 -0.0243218 	-0.302243 	0 -0.0248833 	-0.302207 	0 -0.0255318 	-0.302164 	0 -0.0261821 	-0.302119 	0 -0.0268314 	-0.302072 	0 -0.0274775 	-0.302024 	0 -0.0281266 	-0.301974 	0 -0.0288381 	-0.301915 	0 -0.0295507 	-0.301854 	0 -0.0302632 	-0.301791 	0 -0.0309749 	-0.301727 	0 -0.0316862 	-0.30166 	0 -0.0323992 	-0.301589 	0 -0.0331129 	-0.301517 	0 -0.0338266 	-0.301443 	0 -0.03454 	-0.301368 	0 -0.035107 	-0.301307 	0 -0.0351782 	-0.301299 	0 -0.0352495 	-0.301292 	0 -0.035321 	-0.301284 	0 -0.0353926 	-0.301276 	0 -0.0354652 	-0.301268 	0 -0.0362504 	-0.301177 	0 -0.0370355 	-0.301085 	0 -0.0378205 	-0.30099 	0 -0.0386053 	-0.300895 	0 -0.039393 	-0.300797 	0 -0.0402006 	-0.300691 	0 -0.0410074 	-0.300584 	0 -0.0418117 	-0.300474 	0 -0.0426158 	-0.300362 	0 -0.043423 	-0.300248 	0 -0.0442439 	-0.300127 	0 -0.0450648 	-0.300004 	0 -0.0458854 	-0.29988 	0 -0.0467046 	-0.299753 	0 -0.0475253 	-0.299624 	0 -0.0480772 	-0.299533 	0 -0.0486291 	-0.299441 	0 -0.049181 	-0.299349 	0 -0.0497327 	-0.299256 	0 -0.0502233 	-0.299172 	0 -0.0505148 	-0.299123 	0 -0.0508064 	-0.299072 	0 -0.051098 	-0.299022 	0 -0.0513895 	-0.298972 	0 -0.0516818 	-0.298921 	0 -0.0525231 	-0.298769 	0 -0.053362 	-0.298615 	0 -0.0542007 	-0.29846 	0 -0.0550392 	-0.298303 	0 -0.0558817 	-0.298143 	0 -0.0567299 	-0.297977 	0 -0.057578 	-0.297809 	0 -0.0584258 	-0.297639 	0 -0.0592723 	-0.297468 	0 -0.0601218 	-0.297292 	0 -0.0605032 	-0.297211 	0 -0.0608848 	-0.29713 	0 -0.0612663 	-0.297048 	0 -0.0616477 	-0.296966 	0 -0.0620056 	-0.296889 	0 -0.0624841 	-0.296785 	0 -0.0629627 	-0.296681 	0 -0.0634411 	-0.296577 	0 -0.0639195 	-0.296471 	0 -0.0643995 	-0.296365 	0 -0.0652634 	-0.29617 	0 -0.066127 	-0.295973 	0 -0.0669881 	-0.295773 	0 -0.0678488 	-0.295572 	0 -0.068715 	-0.295367 	0 -0.0693717 	-0.295209 	0 -0.0700284 	-0.295049 	0 -0.0706849 	-0.294888 	0 -0.0713412 	-0.294727 	0 -0.0719369 	-0.294579 	0 -0.0721634 	-0.294523 	0 -0.07239 	-0.294466 	0 -0.0726166 	-0.29441 	0 -0.0728432 	-0.294353 	0 -0.0730703 	-0.294296 	0 -0.0739501 	-0.294073 	0 -0.074828 	-0.293846 	0 -0.0757052 	-0.293617 	0 -0.0765821 	-0.293387 	0 -0.0774653 	-0.293154 	0 -0.0781195 	-0.292978 	0 -0.0787737 	-0.292801 	0 -0.0794277 	-0.292623 	0 -0.0800814 	-0.292444 	0 -0.0806816 	-0.292279 	0 -0.080926 	-0.292211 	0 -0.0811704 	-0.292144 	0 -0.0814148 	-0.292076 	0 -0.0816591 	-0.292008 	0 -0.0819041 	-0.29194 	0 -0.082801 	-0.291688 	0 -0.083697 	-0.291434 	0 -0.0845914 	-0.291177 	0 -0.0854854 	-0.290919 	0 -0.0863869 	-0.290657 	0 -0.0868306 	-0.290526 	0 -0.0872743 	-0.290395 	0 -0.0877179 	-0.290263 	0 -0.0881613 	-0.290131 	0 -0.0885826 	-0.290005 	0 -0.0890492 	-0.289865 	0 -0.0895159 	-0.289725 	0 -0.0899824 	-0.289585 	0 -0.0904488 	-0.289444 	0 -0.0909175 	-0.289302 	0 -0.0918328 	-0.289022 	0 -0.0927477 	-0.28874 	0 -0.0936621 	-0.288457 	0 -0.0945759 	-0.288172 	0 -0.0954977 	-0.287882 	0 -0.0955672 	-0.28786 	0 -0.0956369 	-0.287837 	0 -0.0957065 	-0.287815 	0 -0.0957762 	-0.287793 	0 -0.0958455 	-0.287771 	0 -0.0967011 	-0.287498 	0 -0.0975563 	-0.287224 	0 -0.0984111 	-0.286949 	0 -0.0992653 	-0.286672 	0 -0.100128 	-0.28639 	0 -0.100628 	-0.286226 	0 -0.101129 	-0.286061 	0 -0.101629 	-0.285895 	0 -0.102129 	-0.285729 	0 -0.102605 	-0.285571 	0 -0.103046 	-0.285424 	0 -0.103487 	-0.285277 	0 -0.103928 	-0.285129 	0 -0.104369 	-0.284981 	0 -0.104813 	-0.284832 	0 -0.105653 	-0.284548 	0 -0.106492 	-0.284262 	0 -0.107331 	-0.283976 	0 -0.10817 	-0.283688 	0 -0.108944 	-0.28342 	0 -0.109065 	-0.283378 	0 -0.109187 	-0.283336 	0 -0.109309 	-0.283294 	0 -0.109431 	-0.283252 	0 -0.109553 	-0.283209 	0 -0.110512 	-0.282877 	0 -0.11147 	-0.282542 	0 -0.112427 	-0.282205 	0 -0.113383 	-0.281867 	0 -0.114351 	-0.281522 	0 -0.114468 	-0.28148 	0 -0.114586 	-0.281438 	0 -0.114703 	-0.281396 	0 -0.11482 	-0.281354 	0 -0.114937 	-0.281312 	0 -0.11579 	-0.281007 	0 -0.116643 	-0.2807 	0 -0.117495 	-0.280392 	0 -0.118347 	-0.280083 	0 -0.119209 	-0.279768 	0 -0.119494 	-0.279664 	0 -0.11978 	-0.279559 	0 -0.120065 	-0.279454 	0 -0.12035 	-0.279349 	0 -0.120629 	-0.279247 	0 -0.121328 	-0.27899 	0 -0.122027 	-0.278732 	0 -0.122726 	-0.278473 	0 -0.123424 	-0.278214 	0 -0.12413 	-0.277951 	0 -0.124517 	-0.277806 	0 -0.124905 	-0.277661 	0 -0.125293 	-0.277515 	0 -0.12568 	-0.27737 	0 -0.126056 	-0.277228 	0 -0.126667 	-0.276998 	0 -0.127278 	-0.276768 	0 -0.127889 	-0.276537 	0 -0.128499 	-0.276306 	0 -0.129115 	-0.276071 	0 -0.129545 	-0.275907 	0 -0.129975 	-0.275743 	0 -0.130405 	-0.275579 	0 -0.130834 	-0.275414 	0 -0.13125 	-0.275255 	0 -0.131833 	-0.275031 	0 -0.132416 	-0.274807 	0 -0.132999 	-0.274583 	0 -0.133581 	-0.274358 	0 -0.134168 	-0.27413 	0 -0.134585 	-0.273969 	0 -0.135001 	-0.273807 	0 -0.135418 	-0.273645 	0 -0.135834 	-0.273483 	0 -0.136238 	-0.273325 	0 -0.136848 	-0.273088 	0 -0.137457 	-0.27285 	0 -0.138066 	-0.272612 	0 -0.138675 	-0.272372 	0 -0.13929 	-0.27213 	0 -0.139642 	-0.271992 	0 -0.139993 	-0.271853 	0 -0.140345 	-0.271714 	0 -0.140696 	-0.271576 	0 -0.141039 	-0.27144 	0 -0.141727 	-0.271168 	0 -0.142414 	-0.270896 	0 -0.143101 	-0.270623 	0 -0.143788 	-0.27035 	0 -0.144482 	-0.270072 	0 -0.144721 	-0.269977 	0 -0.144959 	-0.269882 	0 -0.145198 	-0.269786 	0 -0.145436 	-0.269691 	0 -0.145671 	-0.269597 	0 -0.146485 	-0.269272 	0 -0.147299 	-0.268947 	0 -0.148112 	-0.26862 	0 -0.148924 	-0.268292 	0 -0.149748 	-0.267959 	0 -0.149828 	-0.267926 	0 -0.149909 	-0.267894 	0 -0.149989 	-0.267861 	0 -0.150069 	-0.267829 	0 -0.150149 	-0.267796 	0 -0.151029 	-0.267443 	0 -0.151908 	-0.267088 	0 -0.152785 	-0.266732 	0 -0.153661 	-0.266374 	0 -0.154489 	-0.266034 	0 -0.154608 	-0.265985 	0 -0.154728 	-0.265936 	0 -0.154847 	-0.265887 	0 -0.154967 	-0.265838 	0 -0.155087 	-0.265789 	0 -0.155816 	-0.265492 	0 -0.156544 	-0.265195 	0 -0.157272 	-0.264896 	0 -0.157999 	-0.264597 	0 -0.158694 	-0.26431 	0 -0.159055 	-0.264161 	0 -0.159417 	-0.264013 	0 -0.159777 	-0.263864 	0 -0.160138 	-0.263715 	0 -0.160501 	-0.263564 	0 -0.160958 	-0.263377 	0 -0.161415 	-0.263188 	0 -0.161871 	-0.263 	0 -0.162327 	-0.262811 	0 -0.162771 	-0.262627 	0 -0.163415 	-0.262361 	0 -0.164059 	-0.262095 	0 -0.164702 	-0.261828 	0 -0.165344 	-0.261561 	0 -0.165995 	-0.261289 	0 -0.166142 	-0.261228 	0 -0.16629 	-0.261167 	0 -0.166437 	-0.261106 	0 -0.166584 	-0.261045 	0 -0.166731 	-0.260984 	0 -0.167511 	-0.260662 	0 -0.16829 	-0.260339 	0 -0.169068 	-0.260014 	0 -0.169844 	-0.259688 	0 -0.170588 	-0.259374 	0 -0.170784 	-0.259292 	0 -0.170979 	-0.25921 	0 -0.171175 	-0.259128 	0 -0.17137 	-0.259046 	0 -0.171567 	-0.258963 	0 -0.172126 	-0.25873 	0 -0.172684 	-0.258497 	0 -0.173242 	-0.258263 	0 -0.1738 	-0.258028 	0 -0.174341 	-0.2578 	0 -0.174916 	-0.257559 	0 -0.175491 	-0.257318 	0 -0.176064 	-0.257077 	0 -0.176638 	-0.256835 	0 -0.177218 	-0.256589 	0 -0.177373 	-0.256524 	0 -0.177528 	-0.256459 	0 -0.177683 	-0.256394 	0 -0.177838 	-0.256329 	0 -0.177992 	-0.256264 	0 -0.178713 	-0.255964 	0 -0.179433 	-0.255662 	0 -0.180151 	-0.255358 	0 -0.180868 	-0.255053 	0 -0.181559 	-0.254759 	0 -0.181837 	-0.254641 	0 -0.182115 	-0.254523 	0 -0.182393 	-0.254405 	0 -0.18267 	-0.254287 	0 -0.18295 	-0.254168 	0 -0.183369 	-0.253992 	0 -0.183788 	-0.253815 	0 -0.184206 	-0.253638 	0 -0.184625 	-0.253461 	0 -0.185035 	-0.253287 	0 -0.185718 	-0.252999 	0 -0.186401 	-0.252711 	0 -0.187084 	-0.252422 	0 -0.187765 	-0.252133 	0 -0.188424 	-0.25185 	0 -0.188491 	-0.251821 	0 -0.188559 	-0.251792 	0 -0.188627 	-0.251763 	0 -0.188695 	-0.251734 	0 -0.188763 	-0.251705 	0 -0.189363 	-0.251452 	0 -0.189963 	-0.251197 	0 -0.190562 	-0.250943 	0 -0.19116 	-0.250688 	0 -0.191742 	-0.250439 	0 -0.192324 	-0.250193 	0 -0.192905 	-0.249946 	0 -0.193486 	-0.249699 	0 -0.194066 	-0.249451 	0 -0.194654 	-0.2492 	0 -0.194718 	-0.249173 	0 -0.194782 	-0.249146 	0 -0.194845 	-0.249119 	0 -0.194909 	-0.249092 	0 -0.194973 	-0.249065 	0 -0.195613 	-0.248795 	0 -0.196251 	-0.248524 	0 -0.196888 	-0.248252 	0 -0.197525 	-0.247979 	0 -0.198144 	-0.247713 	0 -0.198639 	-0.247503 	0 -0.199135 	-0.247292 	0 -0.199629 	-0.24708 	0 -0.200124 	-0.246869 	0 -0.200624 	-0.246654 	0 -0.200745 	-0.246602 	0 -0.200867 	-0.246551 	0 -0.200989 	-0.246499 	0 -0.20111 	-0.246448 	0 -0.201231 	-0.246396 	0 -0.201843 	-0.24614 	0 -0.202453 	-0.245879 	0 -0.203062 	-0.245619 	0 -0.20367 	-0.245358 	0 -0.204263 	-0.245102 	0 -0.204744 	-0.244897 	0 -0.205225 	-0.244692 	0 -0.205706 	-0.244486 	0 -0.206186 	-0.24428 	0 -0.206672 	-0.244072 	0 -0.206781 	-0.244025 	0 -0.20689 	-0.243979 	0 -0.206999 	-0.243933 	0 -0.207108 	-0.243886 	0 -0.207217 	-0.24384 	0 -0.207803 	-0.243594 	0 -0.208387 	-0.243345 	0 -0.20897 	-0.243095 	0 -0.209552 	-0.242844 	0 -0.210121 	-0.242599 	0 -0.210655 	-0.242372 	0 -0.211189 	-0.242144 	0 -0.211722 	-0.241916 	0 -0.212255 	-0.241687 	0 -0.212795 	-0.241455 	0 -0.212826 	-0.241442 	0 -0.212856 	-0.241429 	0 -0.212887 	-0.241416 	0 -0.212918 	-0.241403 	0 -0.21295 	-0.24139 	0 -0.213511 	-0.241152 	0 -0.214071 	-0.240913 	0 -0.21463 	-0.240673 	0 -0.215189 	-0.240434 	0 -0.215736 	-0.240198 	0 -0.216283 	-0.239967 	0 -0.216828 	-0.239734 	0 -0.217373 	-0.239502 	0 -0.217918 	-0.239269 	0 -0.21845 	-0.239037 	0 -0.218557 	-0.238991 	0 -0.218665 	-0.238944 	0 -0.218772 	-0.238898 	0 -0.218879 	-0.238851 	0 -0.218987 	-0.238805 	0 -0.219416 	-0.238623 	0 -0.219844 	-0.23844 	0 -0.220272 	-0.238258 	0 -0.220699 	-0.238075 	0 -0.22112 	-0.237894 	0 -0.221646 	-0.237673 	0 -0.22217 	-0.237451 	0 -0.222695 	-0.237228 	0 -0.223217 	-0.237001 	0 -0.22373 	-0.236777 	0 -0.224033 	-0.236647 	0 -0.224336 	-0.236517 	0 -0.224638 	-0.236386 	0 -0.224941 	-0.236256 	0 -0.225246 	-0.236124 	0 -0.225454 	-0.236035 	0 -0.225662 	-0.235947 	0 -0.22587 	-0.235859 	0 -0.226078 	-0.23577 	0 -0.226284 	-0.235682 	0 -0.22679 	-0.23547 	0 -0.227295 	-0.235255 	0 -0.227799 	-0.235038 	0 -0.228302 	-0.234821 	0 -0.228797 	-0.234606 	0 -0.229289 	-0.234396 	0 -0.229781 	-0.234186 	0 -0.230272 	-0.233976 	0 -0.230763 	-0.233765 	0 -0.231245 	-0.233555 	0 -0.231309 	-0.233528 	0 -0.231373 	-0.2335 	0 -0.231437 	-0.233472 	0 -0.231501 	-0.233444 	0 -0.231566 	-0.233416 	0 -0.231986 	-0.233237 	0 -0.232407 	-0.233057 	0 -0.232827 	-0.232878 	0 -0.233247 	-0.232698 	0 -0.233661 	-0.23252 	0 -0.234136 	-0.232319 	0 -0.234611 	-0.232119 	0 -0.235084 	-0.231916 	0 -0.235557 	-0.23171 	0 -0.236022 	-0.231506 	0 -0.236404 	-0.231342 	0 -0.236786 	-0.231177 	0 -0.237168 	-0.231012 	0 -0.237549 	-0.230847 	0 -0.237935 	-0.23068 	0 -0.238013 	-0.230647 	0 -0.238092 	-0.230613 	0 -0.23817 	-0.23058 	0 -0.238249 	-0.230546 	0 -0.238328 	-0.230513 	0 -0.238786 	-0.230319 	0 -0.239244 	-0.230123 	0 -0.239701 	-0.229926 	0 -0.240157 	-0.229729 	0 -0.240607 	-0.229534 	0 -0.241054 	-0.229345 	0 -0.2415 	-0.229155 	0 -0.241946 	-0.228965 	0 -0.24239 	-0.22877 	0 -0.242829 	-0.228577 	0 -0.243131 	-0.228445 	0 -0.243433 	-0.228314 	0 -0.243735 	-0.228183 	0 -0.244037 	-0.228051 	0 -0.244342 	-0.227918 	0 -0.244474 	-0.227862 	0 -0.244607 	-0.227805 	0 -0.244739 	-0.227749 	0 -0.244871 	-0.227692 	0 -0.245004 	-0.227636 	0 -0.245435 	-0.227454 	0 -0.245866 	-0.227268 	0 -0.246297 	-0.227081 	0 -0.246726 	-0.226894 	0 -0.247151 	-0.22671 	0 -0.247571 	-0.22653 	0 -0.247992 	-0.22635 	0 -0.248412 	-0.22617 	0 -0.24883 	-0.225986 	0 -0.249244 	-0.225802 	0 -0.24955 	-0.225668 	0 -0.249856 	-0.225534 	0 -0.250162 	-0.2254 	0 -0.250467 	-0.225267 	0 -0.250776 	-0.225131 	0 -0.250879 	-0.225087 	0 -0.250982 	-0.225042 	0 -0.251086 	-0.224998 	0 -0.251189 	-0.224954 	0 -0.251292 	-0.22491 	0 -0.251699 	-0.224737 	0 -0.252105 	-0.22456 	0 -0.252511 	-0.224383 	0 -0.252916 	-0.224206 	0 -0.253317 	-0.22403 	0 -0.253714 	-0.22386 	0 -0.25411 	-0.22369 	0 -0.254506 	-0.223519 	0 -0.254901 	-0.223342 	0 -0.255291 	-0.223167 	0 -0.255676 	-0.222998 	0 -0.256061 	-0.222829 	0 -0.256446 	-0.222659 	0 -0.25683 	-0.22249 	0 -0.257214 	-0.22232 	0 -0.257215 	-0.222319 	0 -0.257216 	-0.222319 	0 -0.257217 	-0.222319 	0 -0.257218 	-0.222318 	0 -0.257219 	-0.222318 	0 -0.257602 	-0.222151 	0 -0.257984 	-0.221983 	0 -0.258367 	-0.221816 	0 -0.258748 	-0.221649 	0 -0.259127 	-0.221483 	0 -0.259501 	-0.221322 	0 -0.259875 	-0.22116 	0 -0.260248 	-0.220994 	0 -0.26062 	-0.220826 	0 -0.26099 	-0.22066 	0 -0.261354 	-0.220499 	0 -0.261718 	-0.220338 	0 -0.262082 	-0.220177 	0 -0.262445 	-0.220016 	0 -0.262805 	-0.219851 	0 -0.262972 	-0.219775 	0 -0.26314 	-0.219699 	0 -0.263308 	-0.219623 	0 -0.263476 	-0.219546 	0 -0.263646 	-0.21947 	0 -0.263835 	-0.219386 	0 -0.264024 	-0.219303 	0 -0.264214 	-0.219219 	0 -0.264403 	-0.219136 	0 -0.264592 	-0.219053 	0 -0.264945 	-0.218901 	0 -0.265298 	-0.218742 	0 -0.265651 	-0.218583 	0 -0.266003 	-0.218424 	0 -0.266352 	-0.218266 	0 -0.266696 	-0.218114 	0 -0.26704 	-0.217962 	0 -0.267383 	-0.217809 	0 -0.267726 	-0.21765 	0 -0.268066 	-0.217492 	0 -0.2684 	-0.21734 	0 -0.268735 	-0.217187 	0 -0.269069 	-0.217035 	0 -0.269403 	-0.216882 	0 -0.269734 	-0.216728 	0 -0.269794 	-0.2167 	0 -0.269854 	-0.216672 	0 -0.269914 	-0.216644 	0 -0.269974 	-0.216616 	0 -0.270035 	-0.216588 	0 -0.270306 	-0.216465 	0 -0.270578 	-0.216343 	0 -0.270849 	-0.21622 	0 -0.27112 	-0.216097 	0 -0.27139 	-0.215975 	0 -0.271715 	-0.215831 	0 -0.27204 	-0.215683 	0 -0.272364 	-0.215532 	0 -0.272688 	-0.215381 	0 -0.27301 	-0.215231 	0 -0.273326 	-0.215087 	0 -0.273642 	-0.214942 	0 -0.273957 	-0.214798 	0 -0.274273 	-0.214648 	0 -0.274586 	-0.214497 	0 -0.274893 	-0.214353 	0 -0.275201 	-0.214208 	0 -0.275508 	-0.214063 	0 -0.275814 	-0.213918 	0 -0.276119 	-0.213772 	0 -0.276165 	-0.21375 	0 -0.276211 	-0.213727 	0 -0.276258 	-0.213705 	0 -0.276305 	-0.213682 	0 -0.276352 	-0.21366 	0 -0.27661 	-0.213539 	0 -0.276869 	-0.213418 	0 -0.277128 	-0.213297 	0 -0.277386 	-0.213176 	0 -0.277644 	-0.213056 	0 -0.277942 	-0.21292 	0 -0.27824 	-0.212778 	0 -0.278539 	-0.212635 	0 -0.278837 	-0.212491 	0 -0.279133 	-0.212349 	0 -0.279423 	-0.212211 	0 -0.279713 	-0.212074 	0 -0.280003 	-0.211936 	0 -0.280293 	-0.211792 	0 -0.280581 	-0.211649 	0 -0.280863 	-0.211511 	0 -0.281145 	-0.211373 	0 -0.281427 	-0.211235 	0 -0.281708 	-0.211097 	0 -0.281989 	-0.210955 	0 -0.282102 	-0.210898 	0 -0.282215 	-0.21084 	0 -0.282329 	-0.210783 	0 -0.282442 	-0.210726 	0 -0.282557 	-0.210668 	0 -0.282721 	-0.210589 	0 -0.282886 	-0.210509 	0 -0.28305 	-0.210429 	0 -0.283215 	-0.210349 	0 -0.28338 	-0.21027 	0 -0.283653 	-0.210139 	0 -0.283927 	-0.210002 	0 -0.284202 	-0.209865 	0 -0.284475 	-0.209728 	0 -0.284748 	-0.209592 	0 -0.285014 	-0.209461 	0 -0.28528 	-0.20933 	0 -0.285546 	-0.209194 	0 -0.285812 	-0.209056 	0 -0.286078 	-0.208919 	0 -0.286336 	-0.208788 	0 -0.286594 	-0.208656 	0 -0.286852 	-0.208524 	0 -0.28711 	-0.20839 	0 -0.287368 	-0.208252 	0 -0.287616 	-0.208121 	0 -0.287863 	-0.207991 	0 -0.288111 	-0.20786 	0 -0.288358 	-0.207729 	0 -0.288608 	-0.207596 	0 -0.28861 	-0.207595 	0 -0.288613 	-0.207594 	0 -0.288616 	-0.207592 	0 -0.288619 	-0.207591 	0 -0.288622 	-0.207589 	0 -0.288873 	-0.207459 	0 -0.289125 	-0.207328 	0 -0.289376 	-0.207197 	0 -0.289627 	-0.207066 	0 -0.289877 	-0.206935 	0 -0.29012 	-0.20681 	0 -0.290364 	-0.206681 	0 -0.290609 	-0.206549 	0 -0.290853 	-0.206417 	0 -0.291096 	-0.206286 	0 -0.291332 	-0.20616 	0 -0.291568 	-0.206034 	0 -0.291804 	-0.205905 	0 -0.292041 	-0.205772 	0 -0.292277 	-0.20564 	0 -0.292506 	-0.205513 	0 -0.292735 	-0.205386 	0 -0.292964 	-0.205259 	0 -0.293193 	-0.205131 	0 -0.293422 	-0.204998 	0 -0.293625 	-0.20488 	0 -0.293829 	-0.204763 	0 -0.294032 	-0.204646 	0 -0.294235 	-0.204529 	0 -0.294441 	-0.204411 	0 -0.294459 	-0.2044 	0 -0.294478 	-0.20439 	0 -0.294496 	-0.204379 	0 -0.294515 	-0.204369 	0 -0.294535 	-0.204359 	0 -0.294758 	-0.204234 	0 -0.294981 	-0.204109 	0 -0.295204 	-0.203983 	0 -0.295427 	-0.203857 	0 -0.29565 	-0.203732 	0 -0.295864 	-0.203613 	0 -0.296081 	-0.203489 	0 -0.296298 	-0.203362 	0 -0.296514 	-0.203236 	0 -0.29673 	-0.20311 	0 -0.296938 	-0.20299 	0 -0.297146 	-0.20287 	0 -0.297356 	-0.202746 	0 -0.297566 	-0.202619 	0 -0.297776 	-0.202493 	0 -0.297977 	-0.202372 	0 -0.298179 	-0.202252 	0 -0.298381 	-0.202131 	0 -0.298583 	-0.202008 	0 -0.298787 	-0.201882 	0 -0.298982 	-0.201761 	0 -0.299178 	-0.20164 	0 -0.299374 	-0.20152 	0 -0.299569 	-0.201399 	0 -0.299765 	-0.201277 	0 -0.299809 	-0.201248 	0 -0.299855 	-0.201219 	0 -0.2999 	-0.201191 	0 -0.299946 	-0.201162 	0 -0.299992 	-0.201134 	0 -0.300141 	-0.201044 	0 -0.300291 	-0.200955 	0 -0.300441 	-0.200866 	0 -0.300591 	-0.200777 	0 -0.300742 	-0.200689 	0 -0.30093 	-0.200578 	0 -0.301122 	-0.200463 	0 -0.301313 	-0.200347 	0 -0.301504 	-0.200231 	0 -0.301696 	-0.200115 	0 -0.301878 	-0.200008 	0 -0.302061 	-0.1999 	0 -0.302246 	-0.199786 	0 -0.302431 	-0.199672 	0 -0.302617 	-0.199558 	0 -0.302793 	-0.199454 	0 -0.30297 	-0.199349 	0 -0.303147 	-0.199245 	0 -0.303326 	-0.199133 	0 -0.303506 	-0.199023 	0 -0.303676 	-0.198923 	0 -0.303848 	-0.198823 	0 -0.304019 	-0.198723 	0 -0.304189 	-0.198622 	0 -0.304364 	-0.198516 	0 -0.304527 	-0.198423 	0 -0.304692 	-0.19833 	0 -0.304856 	-0.198236 	0 -0.30502 	-0.198143 	0 -0.305187 	-0.19805 	0 -0.305188 	-0.198049 	0 -0.305188 	-0.198049 	0 -0.305189 	-0.198048 	0 -0.30519 	-0.198048 	0 -0.305191 	-0.198048 	0 -0.305358 	-0.197966 	0 -0.305526 	-0.197884 	0 -0.305693 	-0.197803 	0 -0.30586 	-0.197721 	0 -0.306028 	-0.19764 	0 -0.306186 	-0.197577 	0 -0.306348 	-0.197508 	0 -0.306511 	-0.197438 	0 -0.306672 	-0.197368 	0 -0.306835 	-0.1973 	0 -0.306987 	-0.197253 	0 -0.307141 	-0.197206 	0 -0.307298 	-0.197152 	0 -0.307454 	-0.197098 	0 -0.307611 	-0.197046 	0 -0.307759 	-0.197019 	0 -0.307906 	-0.196994 	0 -0.308054 	-0.196968 	0 -0.308206 	-0.196935 	0 -0.308358 	-0.196903 	0 -0.3085 	-0.196904 	0 -0.308643 	-0.196906 	0 -0.308785 	-0.196907 	0 -0.308928 	-0.196908 	0 -0.309076 	-0.196903 	0 -0.309213 	-0.196938 	0 -0.30935 	-0.196975 	0 -0.309488 	-0.197011 	0 -0.309625 	-0.197048 	0 -0.309764 	-0.197084 	0 -0.309792 	-0.197099 	0 -0.30982 	-0.197116 	0 -0.309848 	-0.197133 	0 -0.309876 	-0.197151 	0 -0.309905 	-0.197169 	0 -0.310014 	-0.197234 	0 -0.310125 	-0.197301 	0 -0.310235 	-0.197369 	0 -0.310346 	-0.197436 	0 -0.310458 	-0.197506 	0 -0.310588 	-0.197652 	0 -0.310724 	-0.197792 	0 -0.310859 	-0.197932 	0 -0.310995 	-0.198072 	0 -0.311132 	-0.198215 	0 -0.311256 	-0.198433 	0 -0.311383 	-0.198649 	0 -0.311514 	-0.198857 	0 -0.311645 	-0.199065 	0 -0.311778 	-0.199276 	0 -0.311897 	-0.199577 	0 -0.312018 	-0.199882 	0 -0.312142 	-0.20018 	0 -0.312268 	-0.200471 	0 -0.312397 	-0.200766 	0 -0.312511 	-0.201168 	0 -0.312628 	-0.201574 	0 -0.312744 	-0.201981 	0 -0.312864 	-0.202378 	0 -0.312989 	-0.202774 	0 -0.313099 	-0.203298 	0 -0.313211 	-0.203825 	0 -0.313323 	-0.204353 	0 -0.313436 	-0.20488 	0 -0.313554 	-0.205404 	0 -0.313633 	-0.205897 	0 -0.313712 	-0.206394 	0 -0.313792 	-0.206892 	0 -0.313872 	-0.20739 	0 -0.313953 	-0.207884 	0 -0.313982 	-0.208058 	0 -0.314013 	-0.208235 	0 -0.314043 	-0.208413 	0 -0.314074 	-0.208591 	0 -0.314106 	-0.208775 	0 -0.314213 	-0.209623 	0 -0.314323 	-0.210471 	0 -0.314435 	-0.211318 	0 -0.314547 	-0.212165 	0 -0.314662 	-0.213027 	0 -0.314759 	-0.21409 	0 -0.314865 	-0.215136 	0 -0.314972 	-0.216177 	0 -0.31508 	-0.217217 	0 -0.315192 	-0.218277 	0 -0.315285 	-0.219566 	0 -0.31538 	-0.22086 	0 -0.315483 	-0.222123 	0 -0.315588 	-0.223382 	0 -0.315697 	-0.22467 	0 -0.315785 	-0.22621 	0 -0.315876 	-0.227756 	0 -0.315968 	-0.2293 	0 -0.316069 	-0.230806 	0 -0.316175 	-0.232351 	0 -0.316259 	-0.23417 	0 -0.316346 	-0.235995 	0 -0.316434 	-0.237816 	0 -0.316524 	-0.239633 	0 -0.316627 	-0.241465 	0 -0.316703 	-0.243494 	0 -0.316782 	-0.245527 	0 -0.316862 	-0.247