# vtk DataFile Version 2.0
track0
ASCII
DATASET POLYDATA
POINTS 12115 float
-0.0205 0.001 1e-05
-0.0204934 0.0011 1e-05
-0.0204867 0.00119999 1e-05
-0.0204798 0.00129997 1e-05
-0.0204728 0.00139994 1e-05
-0.0204657 0.0015 1e-05
-0.0204584 0.0016 1e-05
-0.0204509 0.00169999 1e-05
-0.0204432 0.00179996 1e-05
-0.0204353 0.00189992 1e-05
-0.0204273 0.002 1e-05
-0.0204191 0.0021 1e-05
-0.0204106 0.00219998 1e-05
-0.0204019 0.00229995 1e-05
-0.0203931 0.00239989 1e-05
-0.020384 0.0025 1e-05
-0.0203746 0.0026 1e-05
-0.0203651 0.00269998 1e-05
-0.0203553 0.00279993 1e-05
-0.0203453 0.00289986 1e-05
-0.020335 0.003 1e-05
-0.0203251 0.00309448 1e-05
-0.0203149 0.00318893 1e-05
-0.0203046 0.00328336 1e-05
-0.020294 0.00337776 1e-05
-0.0202854 0.00345266 1e-05
-0.0202843 0.00346213 1e-05
-0.0202832 0.0034716 1e-05
-0.0202821 0.00348106 1e-05
-0.020281 0.00349053 1e-05
-0.0202799 0.0035 1e-05
-0.0202681 0.0036 1e-05
-0.0202561 0.00369997 1e-05
-0.0202438 0.00379991 1e-05
-0.0202312 0.00389981 1e-05
-0.0202184 0.004 1e-05
-0.0202053 0.0041 1e-05
-0.0201919 0.00419996 1e-05
-0.0201783 0.00429989 1e-05
-0.0201644 0.00439978 1e-05
-0.0201501 0.0045 1e-05
-0.0201357 0.0046 1e-05
-0.0201209 0.00469996 1e-05
-0.0201059 0.00479988 1e-05
-0.0200906 0.00489976 1e-05
-0.020075 0.005 1e-05
-0.0200645 0.00506646 1e-05
-0.0200538 0.0051329 1e-05
-0.020043 0.00519933 1e-05
-0.0200321 0.00526573 1e-05
-0.0200223 0.00532474 1e-05
-0.0200164 0.00535979 1e-05
-0.0200105 0.00539484 1e-05
-0.0200046 0.00542988 1e-05
-0.0199986 0.00546491 1e-05
-0.0199925 0.0055 1e-05
-0.0199753 0.0056 1e-05
-0.0199577 0.00569995 1e-05
-0.0199398 0.00579985 1e-05
-0.0199217 0.0058997 1e-05
-0.0199032 0.006 1e-05
-0.0198845 0.0061 1e-05
-0.0198654 0.00619995 1e-05
-0.0198461 0.00629984 1e-05
-0.0198265 0.00639967 1e-05
-0.0198065 0.0065 1e-05
-0.0197975 0.00654466 1e-05
-0.0197884 0.00658931 1e-05
-0.0197793 0.00663395 1e-05
-0.0197701 0.00667857 1e-05
-0.0197614 0.00672042 1e-05
-0.0197497 0.00677634 1e-05
-0.0197379 0.00683223 1e-05
-0.0197261 0.00688811 1e-05
-0.0197141 0.00694397 1e-05
-0.019702 0.007 1e-05
-0.0196803 0.0071 1e-05
-0.0196583 0.00719994 1e-05
-0.019636 0.00729981 1e-05
-0.0196134 0.00739961 1e-05
-0.0195903 0.0075 1e-05
-0.0195728 0.00757549 1e-05
-0.019555 0.00765093 1e-05
-0.0195371 0.00772634 1e-05
-0.0195191 0.00780171 1e-05
-0.0195025 0.00787009 1e-05
-0.0194962 0.00789607 1e-05
-0.0194898 0.00792205 1e-05
-0.0194834 0.00794802 1e-05
-0.019477 0.00797399 1e-05
-0.0194706 0.008 1e-05
-0.0194457 0.0081 1e-05
-0.0194206 0.00819993 1e-05
-0.0193952 0.00829977 1e-05
-0.0193695 0.00839955 1e-05
-0.0193432 0.0085 1e-05
-0.0193237 0.0085738 1e-05
-0.0193041 0.00864755 1e-05
-0.0192842 0.00872126 1e-05
-0.0192643 0.00879492 1e-05
-0.0192457 0.00886252 1e-05
-0.0192382 0.00889002 1e-05
-0.0192305 0.00891751 1e-05
-0.0192229 0.00894499 1e-05
-0.0192152 0.00897247 1e-05
-0.0192075 0.009 1e-05
-0.0191795 0.0091 1e-05
-0.0191511 0.00919991 1e-05
-0.0191225 0.00929974 1e-05
-0.0190935 0.00939948 1e-05
-0.0190639 0.0095 1e-05
-0.0190494 0.00954906 1e-05
-0.0190347 0.00959809 1e-05
-0.01902 0.00964711 1e-05
-0.0190052 0.0096961 1e-05
-0.018991 0.0097426 1e-05
-0.0189753 0.00979408 1e-05
-0.0189595 0.00984554 1e-05
-0.0189436 0.00989697 1e-05
-0.0189276 0.00994837 1e-05
-0.0189115 0.01 1e-05
-0.0188801 0.0101 1e-05
-0.0188483 0.0101999 1e-05
-0.0188163 0.0102997 1e-05
-0.0187839 0.0103994 1e-05
-0.0187509 0.0105 1e-05
-0.0187484 0.0105075 1e-05
-0.0187459 0.0105151 1e-05
-0.0187434 0.0105226 1e-05
-0.0187409 0.0105302 1e-05
-0.0187384 0.0105376 1e-05
-0.0187076 0.0106301 1e-05
-0.0186765 0.0107225 1e-05
-0.0186452 0.0108148 1e-05
-0.0186136 0.010907 1e-05
-0.0185813 0.011 1e-05
-0.0185626 0.0110535 1e-05
-0.0185438 0.011107 1e-05
-0.0185249 0.0111605 1e-05
-0.0185059 0.0112139 1e-05
-0.0184878 0.0112647 1e-05
-0.0184709 0.0113118 1e-05
-0.0184539 0.0113588 1e-05
-0.0184368 0.0114058 1e-05
-0.0184197 0.0114528 1e-05
-0.0184024 0.0115 1e-05
-0.0183698 0.0115887 1e-05
-0.0183369 0.0116773 1e-05
-0.0183037 0.0117659 1e-05
-0.0182703 0.0118543 1e-05
-0.0182392 0.0119359 1e-05
-0.0182343 0.0119487 1e-05
-0.0182293 0.0119615 1e-05
-0.0182244 0.0119743 1e-05
-0.0182194 0.0119872 1e-05
-0.0182145 0.012 1e-05
-0.0181758 0.0121 1e-05
-0.0181368 0.0121999 1e-05
-0.0180974 0.0122996 1e-05
-0.0180577 0.0123992 1e-05
-0.0180172 0.0125 1e-05
-0.0180123 0.0125121 1e-05
-0.0180073 0.0125242 1e-05
-0.0180024 0.0125363 1e-05
-0.0179975 0.0125484 1e-05
-0.0179926 0.0125604 1e-05
-0.0179567 0.0126483 1e-05
-0.0179205 0.0127361 1e-05
-0.017884 0.0128238 1e-05
-0.0178473 0.0129114 1e-05
-0.0178099 0.013 1e-05
-0.0177975 0.0130291 1e-05
-0.0177851 0.0130581 1e-05
-0.0177727 0.0130872 1e-05
-0.0177602 0.0131162 1e-05
-0.017748 0.0131446 1e-05
-0.0177173 0.0132156 1e-05
-0.0176864 0.0132867 1e-05
-0.0176553 0.0133576 1e-05
-0.0176241 0.0134285 1e-05
-0.0175924 0.0135 1e-05
-0.017575 0.013539 1e-05
-0.0175575 0.0135779 1e-05
-0.01754 0.0136168 1e-05
-0.0175224 0.0136557 1e-05
-0.0175053 0.0136935 1e-05
-0.0174775 0.0137548 1e-05
-0.0174495 0.013816 1e-05
-0.0174213 0.0138772 1e-05
-0.0173931 0.0139383 1e-05
-0.0173644 0.014 1e-05
-0.0173444 0.0140426 1e-05
-0.0173244 0.0140852 1e-05
-0.0173044 0.0141278 1e-05
-0.0172842 0.0141704 1e-05
-0.0172647 0.0142115 1e-05
-0.0172372 0.0142692 1e-05
-0.0172095 0.0143269 1e-05
-0.0171818 0.0143844 1e-05
-0.0171539 0.014442 1e-05
-0.0171257 0.0145 1e-05
-0.0171057 0.0145408 1e-05
-0.0170857 0.0145815 1e-05
-0.0170656 0.0146222 1e-05
-0.0170455 0.0146629 1e-05
-0.0170259 0.0147023 1e-05
-0.0169962 0.0147618 1e-05
-0.0169664 0.0148213 1e-05
-0.0169365 0.0148807 1e-05
-0.0169065 0.0149401 1e-05
-0.0168759 0.015 1e-05
-0.0168586 0.0150339 1e-05
-0.0168412 0.0150678 1e-05
-0.0168237 0.0151017 1e-05
-0.0168062 0.0151356 1e-05
-0.0167891 0.0151687 1e-05
-0.0167547 0.0152349 1e-05
-0.0167201 0.0153011 1e-05
-0.0166853 0.0153672 1e-05
-0.0166504 0.0154332 1e-05
-0.0166149 0.0155 1e-05
-0.0166028 0.0155227 1e-05
-0.0165906 0.0155454 1e-05
-0.0165784 0.0155681 1e-05
-0.0165662 0.0155907 1e-05
-0.0165542 0.015613 1e-05
-0.0165124 0.0156904 1e-05
-0.0164703 0.0157677 1e-05
-0.0164281 0.0158449 1e-05
-0.0163856 0.0159219 1e-05
-0.0163422 0.016 1e-05
-0.016338 0.0160075 1e-05
-0.0163338 0.0160151 1e-05
-0.0163296 0.0160226 1e-05
-0.0163254 0.0160302 1e-05
-0.0163212 0.0160377 1e-05
-0.0162749 0.0161201 1e-05
-0.0162285 0.0162024 1e-05
-0.0161817 0.0162846 1e-05
-0.0161347 0.0163666 1e-05
-0.01609 0.0164441 1e-05
-0.0160835 0.0164553 1e-05
-0.016077 0.0164665 1e-05
-0.0160705 0.0164776 1e-05
-0.016064 0.0164888 1e-05
-0.0160575 0.0165 1e-05
-0.0160182 0.0165674 1e-05
-0.0159786 0.0166348 1e-05
-0.0159389 0.016702 1e-05
-0.0158991 0.0167692 1e-05
-0.0158607 0.0168334 1e-05
-0.0158407 0.0168667 1e-05
-0.0158207 0.0169 1e-05
-0.0158006 0.0169333 1e-05
-0.0157805 0.0169665 1e-05
-0.0157601 0.017 1e-05
-0.0157348 0.0170417 1e-05
-0.0157093 0.0170833 1e-05
-0.0156838 0.0171248 1e-05
-0.0156583 0.0171664 1e-05
-0.0156333 0.0172068 1e-05
-0.015597 0.0172654 1e-05
-0.0155605 0.017324 1e-05
-0.0155239 0.0173825 1e-05
-0.0154872 0.0174409 1e-05
-0.0154498 0.0175 1e-05
-0.0154414 0.0175132 1e-05
-0.0154329 0.0175265 1e-05
-0.0154245 0.0175397 1e-05
-0.0154161 0.017553 1e-05
-0.0154077 0.0175661 1e-05
-0.015363 0.0176361 1e-05
-0.015318 0.0177061 1e-05
-0.0152729 0.0177759 1e-05
-0.0152276 0.0178456 1e-05
-0.0151839 0.0179123 1e-05
-0.0151724 0.0179298 1e-05
-0.0151608 0.0179474 1e-05
-0.0151493 0.0179649 1e-05
-0.0151377 0.0179824 1e-05
-0.0151261 0.018 1e-05
-0.0150932 0.0180495 1e-05
-0.0150603 0.018099 1e-05
-0.0150273 0.0181485 1e-05
-0.0149942 0.0181978 1e-05
-0.0149619 0.0182457 1e-05
-0.0149275 0.0182966 1e-05
-0.0148931 0.0183474 1e-05
-0.0148585 0.0183981 1e-05
-0.0148238 0.0184487 1e-05
-0.0147885 0.0185 1e-05
-0.0147792 0.0185135 1e-05
-0.0147698 0.0185271 1e-05
-0.0147604 0.0185406 1e-05
-0.0147511 0.0185541 1e-05
-0.0147417 0.0185676 1e-05
-0.0146981 0.0186305 1e-05
-0.0146542 0.0186932 1e-05
-0.0146102 0.0187559 1e-05
-0.0145661 0.0188185 1e-05
-0.0145233 0.0188788 1e-05
-0.0145061 0.018903 1e-05
-0.0144888 0.0189273 1e-05
-0.0144714 0.0189515 1e-05
-0.0144541 0.0189757 1e-05
-0.0144366 0.019 1e-05
-0.0144106 0.0190361 1e-05
-0.0143846 0.0190722 1e-05
-0.0143585 0.0191082 1e-05
-0.0143323 0.0191442 1e-05
-0.0143067 0.0191795 1e-05
-0.0142637 0.0192383 1e-05
-0.0142206 0.019297 1e-05
-0.0141773 0.0193557 1e-05
-0.0141339 0.0194142 1e-05
-0.0140917 0.0194708 1e-05
-0.0140874 0.0194767 1e-05
-0.014083 0.0194825 1e-05
-0.0140787 0.0194883 1e-05
-0.0140743 0.0194942 1e-05
-0.0140699 0.0195 1e-05
-0.0140316 0.019551 1e-05
-0.0139933 0.019602 1e-05
-0.0139548 0.0196529 1e-05
-0.0139162 0.0197037 1e-05
-0.0138786 0.019753 1e-05
-0.0138407 0.0198024 1e-05
-0.0138028 0.0198518 1e-05
-0.0137648 0.019901 1e-05
-0.0137267 0.0199502 1e-05
-0.013688 0.02 1e-05
-0.0136838 0.0200053 1e-05
-0.0136796 0.0200107 1e-05
-0.0136754 0.020016 1e-05
-0.0136713 0.0200214 1e-05
-0.0136671 0.0200267 1e-05
-0.0136251 0.0200803 1e-05
-0.0135831 0.0201338 1e-05
-0.0135409 0.0201872 1e-05
-0.0134986 0.0202405 1e-05
-0.0134573 0.0202923 1e-05
-0.0134241 0.0203339 1e-05
-0.0133908 0.0203754 1e-05
-0.0133575 0.0204168 1e-05
-0.013324 0.0204581 1e-05
-0.0132901 0.0205 1e-05
-0.0132819 0.02051 1e-05
-0.0132738 0.0205201 1e-05
-0.0132656 0.0205301 1e-05
-0.0132574 0.0205402 1e-05
-0.0132493 0.0205501 1e-05
-0.013208 0.0206007 1e-05
-0.0131666 0.0206512 1e-05
-0.0131251 0.0207015 1e-05
-0.0130835 0.0207518 1e-05
-0.0130429 0.0208008 1e-05
-0.0130097 0.0208407 1e-05
-0.0129764 0.0208804 1e-05
-0.0129431 0.0209202 1e-05
-0.0129097 0.0209599 1e-05
-0.0128758 0.021 1e-05
-0.0128683 0.0210089 1e-05
-0.0128607 0.0210178 1e-05
-0.0128532 0.0210267 1e-05
-0.0128456 0.0210356 1e-05
-0.0128381 0.0210444 1e-05
-0.0127975 0.0210922 1e-05
-0.0127568 0.02114 1e-05
-0.012716 0.0211876 1e-05
-0.0126751 0.0212352 1e-05
-0.012635 0.0212816 1e-05
-0.0125972 0.0213253 1e-05
-0.0125593 0.0213689 1e-05
[...]
POINT_DATA 12115
 FIELD attributes 2
p 1 12115 float
-0.00960577 -0.0105796 -0.0115534 -0.0125269 -0.0135004 -0.0144764 -0.0154604 -0.016443 -0.0174245 -0.0184059 -0.0193873 -0.0203376 -0.0212872 -0.0222365 -0.0231849 -0.0241343 -0.0250756 -0.0260167 -0.0269575 -0.0278981 -0.0288396 -0.0297247 -0.0306092 -0.0314936 -0.0323778 -0.033079 -0.0331677 -0.0332565 -0.0333452 -0.0334339 -0.0335225 -0.0344518 -0.0353808 -0.0363095 -0.0372381 -0.0381693 -0.0390917 -0.0400134 -0.0409343 -0.041855 -0.0427786 -0.0436935 -0.0446081 -0.0455225 -0.0464363 -0.0473532 -0.0479571 -0.0485607 -0.0491642 -0.0497676 -0.0503037 -0.0506227 -0.0509411 -0.0512596 -0.051578 -0.0518964 -0.0527992 -0.0537008 -0.0546022 -0.0555032 -0.056408 -0.057305 -0.0582012 -0.0590971 -0.0599923 -0.0608913 -0.0612893 -0.061687 -0.0620846 -0.0624821 -0.0628547 -0.0633526 -0.0638505 -0.0643482 -0.0648458 -0.065345 -0.0662304 -0.0671152 -0.0679991 -0.0688826 -0.0697712 -0.0704352 -0.071099 -0.0717626 -0.0724258 -0.0730277 -0.0732566 -0.0734851 -0.0737135 -0.073942 -0.0741705 -0.0750454 -0.0759191 -0.0767922 -0.0776647 -0.0785428 -0.0791847 -0.079826 -0.0804669 -0.0811075 -0.0816952 -0.081934 -0.0821729 -0.0824118 -0.0826506 -0.08289 -0.0837541 -0.0846176 -0.0854803 -0.0863423 -0.0872112 -0.0876326 -0.088054 -0.0884753 -0.0888964 -0.0892962 -0.0897384 -0.0901801 -0.0906216 -0.0910629 -0.0915059 -0.0923601 -0.0932132 -0.0940655 -0.094917 -0.0957758 -0.0958402 -0.0959043 -0.0959683 -0.0960323 -0.0960956 -0.0968797 -0.0976631 -0.0984459 -0.0992279 -0.100017 -0.100469 -0.100921 -0.101372 -0.101823 -0.102252 -0.102649 -0.103046 -0.103442 -0.103838 -0.104235 -0.104979 -0.105723 -0.106465 -0.107207 -0.10789 -0.107998 -0.108105 -0.108212 -0.108319 -0.108427 -0.10926 -0.110092 -0.110923 -0.111753 -0.112593 -0.112694 -0.112794 -0.112895 -0.112995 -0.113095 -0.113822 -0.114548 -0.115274 -0.115998 -0.11673 -0.11697 -0.11721 -0.117449 -0.117689 -0.117922 -0.118506 -0.119089 -0.119671 -0.120253 -0.12084 -0.121159 -0.121478 -0.121797 -0.122115 -0.122424 -0.122923 -0.123422 -0.12392 -0.124418 -0.12492 -0.125266 -0.125612 -0.125958 -0.126304 -0.126638 -0.127104 -0.12757 -0.128035 -0.128499 -0.128968 -0.129297 -0.129625 -0.129953 -0.130281 -0.130599 -0.131076 -0.131552 -0.132028 -0.132503 -0.132982 -0.133254 -0.133525 -0.133796 -0.134067 -0.134331 -0.134857 -0.135383 -0.135908 -0.136432 -0.136962 -0.137142 -0.137322 -0.137502 -0.137682 -0.137859 -0.138468 -0.139076 -0.139683 -0.140288 -0.140902 -0.140961 -0.141021 -0.14108 -0.141139 -0.141198 -0.141841 -0.142483 -0.143124 -0.143764 -0.144369 -0.144455 -0.144541 -0.144627 -0.144713 -0.144799 -0.145321 -0.145842 -0.146361 -0.14688 -0.147375 -0.147629 -0.147883 -0.148137 -0.148391 -0.148646 -0.148965 -0.149284 -0.149602 -0.14992 -0.15023 -0.150673 -0.151115 -0.151557 -0.151997 -0.152443 -0.152544 -0.152645 -0.152745 -0.152845 -0.152944 -0.153468 -0.153991 -0.154513 -0.155034 -0.155533 -0.155662 -0.155791 -0.15592 -0.156048 -0.156177 -0.156544 -0.15691 -0.157276 -0.157641 -0.157995 -0.158364 -0.158733 -0.159102 -0.159469 -0.159842 -0.159941 -0.16004 -0.160139 -0.160238 -0.160337 -0.160789 -0.161239 -0.16169 -0.162139 -0.162571 -0.162741 -0.162911 -0.163081 -0.163251 -0.163422 -0.163678 -0.163935 -0.164191 -0.164447 -0.164698 -0.165106 -0.165513 -0.165918 -0.166323 -0.166715 -0.166754 -0.166793 -0.166832 -0.166872 -0.166912 -0.167263 -0.167614 -0.167963 -0.168311 -0.168649 -0.168979 -0.169307 -0.169634 -0.16996 -0.170289 -0.170325 -0.170361 -0.170397 -0.170433 -0.170469 -0.170821 -0.171174 -0.171527 -0.171878 -0.172219 -0.172483 -0.172746 -0.173008 -0.17327 -0.173535 -0.173601 -0.173666 -0.173731 -0.173795 -0.173859 -0.174175 -0.174493 -0.174809 -0.175124 -0.175431 -0.175671 -0.17591 -0.176147 -0.176385 -0.176623 -0.176677 -0.176732 -0.176786 -0.176841 -0.176896 -0.177177 -0.17746 -0.177743 -0.178025 -0.178301 -0.178546 -0.178791 -0.179034 -0.179277 -0.179524 -0.179539 -0.179554 -0.179568 -0.179583 -0.179596 -0.179847 -0.180099 -0.180349 -0.180598 -0.180842 -0.181073 -0.181301 -0.181529 -0.181755 -0.181977 -0.18202 -0.182062 -0.182105 -0.182147 -0.18219 -0.182363 -0.182538 -0.182712 -0.182885 -0.183058 -0.183255 -0.183452 -0.183649 -0.183847 -0.184042 -0.184146 -0.184253 -0.184359 -0.184465 -0.184574 -0.184649 -0.184725 -0.184801 -0.184876 -0.184951 -0.185121 -0.18529 -0.18546 -0.185629 -0.185792 -0.185942 -0.186091 -0.186239 -0.186387 -0.186533 -0.186552 -0.18657 -0.186587 -0.186605 -0.18662 -0.186741 -0.186862 -0.186983 -0.187103 -0.187222 -0.187338 -0.187457 -0.187576 -0.187698 -0.18782 -0.187901 -0.187984 -0.188066 -0.188147 -0.18823 -0.18825 -0.188268 -0.188287 -0.188305 -0.188321 -0.188414 -0.188508 -0.188601 -0.188693 -0.188784 -0.188857 -0.188927 -0.188996 -0.189069 -0.189139 -0.189176 -0.189213 -0.189249 -0.189285 -0.189321 -0.189336 -0.189355 -0.189373 -0.189391 -0.189413 -0.189452 -0.189497 -0.189541 -0.189584 -0.189627 -0.189645 -0.189666 -0.189686 -0.18971 -0.189739 -0.189739 -0.189741 -0.189742 -0.189743 -0.189745 -0.18975 -0.189753 -0.189756 -0.189759 -0.18976 -0.189753 -0.189751 -0.189747 -0.189743 -0.189739 -0.189713 -0.189684 -0.189656 -0.189633 -0.189607 -0.189561 -0.189515 -0.189468 -0.189421 -0.189373 -0.189373 -0.189373 -0.189373 -0.189372 -0.189372 -0.189318 -0.189263 -0.189208 -0.189152 -0.189096 -0.189012 -0.188931 -0.188858 -0.188784 -0.188715 -0.188615 -0.188514 -0.188413 -0.188311 -0.18822 -0.18816 -0.188105 -0.188049 -0.187994 -0.187942 -0.187885 -0.18783 -0.187774 -0.187718 -0.187663 -0.187531 -0.187406 -0.187281 -0.187156 -0.187028 -0.186875 -0.186722 -0.186571 -0.186429 -0.186289 -0.18612 -0.185948 -0.185775 -0.185602 -0.185431 -0.185394 -0.18536 -0.185325 -0.185291 -0.185258 -0.185108 -0.184961 -0.184815 -0.184667 -0.184525 -0.184313 -0.184109 -0.183909 -0.183709 -0.183509 -0.183276 -0.183046 -0.182816 -0.182599 -0.182387 -0.182139 -0.18189 -0.18164 -0.181389 -0.181142 -0.181097 -0.181056 -0.181015 -0.180974 -0.180936 -0.180718 -0.180502 -0.180286 -0.18007 -0.179857 -0.179569 -0.179288 -0.179012 -0.178736 -0.178458 -0.178147 -0.177839 -0.177532 -0.17724 -0.176952 -0.176627 -0.176299 -0.17597 -0.17564 -0.175321 -0.175174 -0.175032 -0.174889 -0.174747 -0.174607 -0.174406 -0.174207 -0.174009 -0.17381 -0.173616 -0.173244 -0.172886 -0.172528 -0.172168 -0.171807 -0.171409 -0.171013 -0.170632 -0.170257 -0.169886 -0.169475 -0.169059 -0.168642 -0.168233 -0.167835 -0.167406 -0.16698 -0.166553 -0.166125 -0.165696 -0.165691 -0.165686 -0.165682 -0.165677 -0.165673 -0.16523 -0.164785 -0.164339 -0.163892 -0.163446 -0.162953 -0.162483 -0.162022 -0.161559 -0.161106 -0.160599 -0.160091 -0.159592 -0.159109 -0.158626 -0.158095 -0.157571 -0.157046 -0.156525 -0.156037 -0.155539 -0.155039 -0.154539 -0.154039 -0.153533 -0.15349 -0.153448 -0.153406 -0.153361 -0.153309 -0.152748 -0.15219 -0.151633 -0.151075 -0.15052 -0.149918 -0.149328 -0.148748 -0.148166 -0.147578 -0.146953 -0.146328 -0.145719 -0.145125 -0.144534 -0.143896 -0.143247 -0.142598 -0.141961 -0.141336 -0.140672 -0.140009 -0.139345 -0.138681 -0.13803 -0.137877 -0.137714 -0.13755 -0.137385 -0.137211 -0.136689 -0.136165 -0.135641 -0.135116 -0.134591 -0.133844 -0.13314 -0.132435 -0.13173 -0.131037 -0.13028 -0.129524 -0.128804 -0.128082 -0.127361 -0.126569 -0.125786 -0.125005 -0.124262 -0.123531 -0.122736 -0.121939 -0.121141 -0.120343 -0.119586 -0.11876 -0.117942 -0.117123 -0.116304 -0.115488 -0.115484 -0.11548 -0.115477 -0.115473 -0.115469 -0.114644 -0.113809 -0.112974 -0.112139 -0.111296 -0.110386 -0.109524 -0.108661 -0.107798 -0.106938 -0.106025 -0.105106 -0.104233 -0.103361 -0.102482 -0.101533 -0.100585 -0.0996395 -0.0987403 -0.0978431 -0.0968892 -0.0959291 -0.0949688 -0.0940148 -0.0931 -0.0921169 -0.0911344 -0.0901519 -0.0891693 -0.0881982 -0.0879923 -0.0877813 -0.0875704 -0.0873577 -0.0871434 -0.0863547 -0.0855623 -0.0847698 -0.0839774 -0.0831812 -0.0821112 -0.0810842 -0.0800572 -0.0790304 -0.0780036 -0.0769065 -0.0758267 -0.0747844 -0.0737423 -0.0726938 -0.0715719 -0.0704501 -0.0693566 -0.0682955 -0.0672311 -0.066096 -0.064956 -0.0638164 -0.0627117 -0.0616234 -0.0604637 -0.0593035 -0.058144 -0.0569852 -0.0558596 -0.0549921 -0.0541191 -0.0532466 -0.0523746 -0.0515101 -0.0512013 -0.0508904 -0.0505788 -0.0502673 -0.0499515 -0.0487226 -0.0475124 -0.0463033 -0.0450953 -0.0438758 -0.0425787 -0.0413381 -0.0401094 -0.038882 -0.0376345 -0.0363126 -0.0349936 -0.0337404 -0.0324947 -0.0312292 -0.0298941 -0.0285574 -0.0272229 -0.0259574 -0.0246652 -0.0233061 -0.0219503 -0.0205972 -0.0192468 -0.0179322 -0.016617 -0.0153004 -0.0139867 -0.0126758 -0.0114288 -0.0113458 -0.0112628 -0.0111798 -0.0110968 -0.0110055 -0.00957296 -0.00814575 -0.00672203 -0.00530177 -0.00382888 -0.00229223 -0.000817286 0.000641751 0.00209678 0.00361969 0.00519075 0.00675952 0.00827087 0.00975311 0.0113079 0.0129174 0.0145302 0.0161371 0.0177065 0.0193215 0.020966 0.0226061 0.0242396 0.0258667 0.0275843 0.0276827 0.0277904 0.0278992 0.028008 0.0281163 0.0296989 0.0312816 0.0328583 0.0344292 0.0361016 0.0378347 0.0395103 0.0411494 0.0427819 0.0445282 0.046191 0.047852 0.0495056 0.0510833 0.0527849 0.0545761 0.0563657 0.0581469 0.0599199 0.0618287 0.0620192 0.0622308 0.0624424 0.0626639 0.0628855 0.0649525 0.0670333 0.0691045 0.0711661 0.0734086 0.0760742 0.0787101 0.0812533 0.083783 0.0865372 0.0886587 0.0907487 0.0928253 0.0948888 0.0971297 0.0975343 0.0979471 0.0983598 0.0987725 0.0991896 0.102 0.104817 0.107631 0.110443 0.113754 0.114601 0.115458 0.116315 0.117171 0.118025 0.121187 0.124355 0.127517 0.130674 0.134401 0.13522 0.136047 0.136874 0.1377 0.138529 0.142691 0.146852 0.151004 0.155148 0.160065 0.160185 0.160306 0.160427 0.160547 0.160666 0.165307 0.16992 0.174523 0.179116 0.183579 0.185024 0.186467 0.187909 0.18935 0.190862 0.194115 0.197365 0.200611 0.203855 0.207052 0.210966 0.214876 0.218782 0.222684 0.227109 0.227974 0.228843 0.229711 0.230579 0.231447 0.236535 0.241586 0.246611 0.251629 0.256573 0.259508 0.262443 0.265376 0.268307 0.271522 0.273765 0.27601 0.278254 0.280497 0.282732 0.288173 0.29361 0.298989 0.304346 0.30964 0.31312 0.316596 0.32007 0.323541 0.327443 0.329358 0.33127 0.333181 0.335091 0.336992 0.34247 0.347895 0.353296 0.358689 0.364023 0.369268 0.374493 0.37971 0.384919 0.390039 0.391452 0.392846 0.394239 0.395632 0.397114 0.400445 0.403756 0.407063 0.410366 0.413633 0.417669 0.421687 0.425713 0.429731 0.433694 0.436794 0.439855 0.442907 0.446019 0.449094 0.451083 0.453029 0.454966 0.456896 0.458855 0.45931 0.459726 0.46014 0.460551 0.461043 0.461355 0.461626 0.461897 0.462167 0.462397 0.46185 0.461331 0.460811 0.460288 0.459725 0.457908 0.456288 0.454667 0.453047 0.451391 0.448618 0.445971 0.44341 0.440849 0.438257 0.434829 0.431456 0.428193 0.424932 0.421647 0.417974 0.414305 0.41068 0.407057 0.403418 0.400084 0.396702 0.393218 0.389734 0.386249 0.384081 0.381765 0.379162 0.376559 0.373972 0.374021 0.373745 0.373056 0.372366 0.371714 0.374654 0.377086 0.379163 0.38124 0.38334 0.388056 0.392353 0.396536 0.400718 0.404828 0.407268 0.410182 0.413151 0.416118 0.418814 0.414075 0.411482 0.408891 0.406303 0.403254 0.391335 0.382403 0.373481 0.36457 0.355184 0.339187 0.325172 0.311158 0.297144 0.282642 0.268494 0.253607 0.238697 0.223245 0.204557 0.184674 0.164558 0.14389 0.123218 0.101874 0.0212811 -0.0609319 -0.143189 -0.225488 -0.309332 -0.383537 -0.456046 -0.528589 -0.601166 -0.673784 -0.705661 -0.73741 -0.769165 -0.800927 -0.83483 -0.849014 -0.862681 -0.876348 -0.890015 -0.904224