/*--------------------------------*- C++ -*----------------------------------*\
  =========                 |
  \\      /  F ield         | OpenFOAM: The Open Source CFD Toolbox
   \\    /   O peration     | Website:  https://openfoam.org
    \\  /    A nd           | Version:  6
     \\/     M anipulation  |
\*---------------------------------------------------------------------------*/
FoamFile
{
    version     2.0;
    format      ascii;
    class       volScalarField;
    location    "17";
    object      epsilon;
}
// * * * * * * * * * * * * * * * * * * * * * * * * * * * * * * * * * * * * * //

dimensions      [0 2 -3 0 0 0 0];

internalField   nonuniform List<scalar> 
130000
(
15.1277
14.9269
14.7034
14.4632
14.2085
13.9428
13.6706
13.3969
13.1271
12.8663
12.6191
12.3896
12.1806
11.9943
11.8317
11.693
11.5779
11.4853
11.4141
11.3628
15.1527
14.9529
14.73
14.4896
14.2341
13.9672
13.6935
13.4181
13.1467
12.8844
12.6358
12.405
12.195
12.0077
11.8443
11.7052
11.5899
11.4976
11.4266
11.3756
15.1742
14.9755
14.7529
14.5122
14.256
13.9878
13.7125
13.4354
13.162
12.8976
12.647
12.4143
12.2025
12.0136
11.8492
11.7095
11.5942
11.5023
11.4324
11.3824
15.1912
14.993
14.7705
14.5294
14.2721
14.0023
13.7249
13.4456
13.1699
12.9032
12.6508
12.4167
12.2038
12.0139
11.849
11.7091
11.5938
11.5022
11.433
11.3839
15.2028
15.0045
14.7815
14.5393
14.2803
14.0083
13.7291
13.448
13.1708
12.9027
12.6494
12.4147
12.2015
12.0119
11.847
11.7072
11.5919
11.5003
11.4309
11.3823
15.2096
15.0104
14.7862
14.5422
14.2815
14.0079
13.7274
13.4454
13.1675
12.8994
12.6458
12.411
12.1978
12.0083
11.8437
11.7041
11.5892
11.4978
11.4287
11.3803
15.2136
15.0127
14.7867
14.541
14.279
14.0047
13.7234
13.4406
13.1623
12.8939
12.6403
12.4055
12.1926
12.0035
11.8393
11.7002
11.5857
11.4948
11.4261
11.3781
15.2162
15.0135
14.7856
14.5385
14.2752
13.9999
13.7176
13.4342
13.1555
12.8869
12.6334
12.3988
12.1863
11.9977
11.8341
11.6957
11.5818
11.4915
11.4234
11.376
15.2185
15.0139
14.7841
14.5354
14.2706
13.994
13.7108
13.4267
13.1475
12.8789
12.6255
12.3913
12.1793
11.9913
11.8284
11.6907
11.5776
11.4881
11.4206
11.3737
15.2209
15.0143
14.7827
14.5321
14.2657
13.9877
13.7034
13.4185
13.139
12.8702
12.617
12.3832
12.1718
11.9846
11.8225
11.6856
11.5733
11.4845
11.4177
11.3713
15.2239
15.0153
14.7816
14.5291
14.2608
13.9813
13.6959
13.4103
13.1303
12.8614
12.6084
12.375
12.1642
11.9778
11.8165
11.6805
11.5691
11.4811
11.415
11.3692
15.2275
15.0168
14.7813
14.5266
14.2564
13.9753
13.6886
13.4021
13.1217
12.8527
12.5998
12.3669
12.1567
11.971
11.8107
11.6755
11.565
11.4778
11.4126
11.3675
15.2317
15.0189
14.7813
14.5247
14.2526
13.9698
13.6818
13.3944
13.1134
12.8442
12.5915
12.359
12.1494
11.9645
11.805
11.6708
11.5612
11.475
11.4107
11.3669
15.2365
15.0216
14.7817
14.5236
14.2493
13.9648
13.6755
13.3871
13.1055
12.8361
12.5835
12.3514
12.1424
11.9583
11.7996
11.6663
11.5576
11.4724
11.409
11.366
15.2421
15.0251
14.783
14.5227
14.2466
13.9605
13.6698
13.3804
13.0981
12.8284
12.5759
12.3441
12.1357
11.9523
11.7945
11.6621
11.5544
11.4699
11.4071
11.3643
15.2485
15.0294
14.7851
14.5224
14.2447
13.9569
13.6648
13.3743
13.0914
12.8213
12.5688
12.3373
12.1294
11.9467
11.7898
11.6583
11.5514
11.4679
11.4061
11.3638
15.256
15.0349
14.7883
14.5235
14.2442
13.9545
13.6607
13.369
13.0852
12.8148
12.5621
12.3309
12.1235
11.9415
11.7853
11.6547
11.5487
11.466
11.4049
11.363
15.2647
15.0415
14.7927
14.5256
14.2443
13.953
13.6574
13.3643
13.0797
12.8088
12.556
12.325
12.1181
11.9367
11.7812
11.6514
11.5462
11.4642
11.4033
11.3617
15.2746
15.0492
14.798
14.5285
14.2447
13.9518
13.6546
13.3604
13.0749
12.8034
12.5505
12.3196
12.113
11.9322
11.7775
11.6485
11.5442
11.4631
11.4031
11.3627
15.2857
15.0582
14.8047
14.5327
14.2465
13.9512
13.6528
13.3573
13.0708
12.7987
12.5455
12.3147
12.1084
11.9281
11.7741
11.6459
11.5424
11.4623
11.4034
11.3643
15.2981
15.0685
14.8125
14.5381
14.2495
13.9523
13.6525
13.3555
13.0677
12.7948
12.5412
12.3103
12.1043
11.9245
11.771
11.6435
11.5408
11.4615
11.4036
11.3649
15.3118
15.0801
14.8216
14.5446
14.2536
13.9542
13.6526
13.3543
13.0652
12.7915
12.5375
12.3065
12.1007
11.9213
11.7685
11.6416
11.5396
11.4607
11.4034
11.364
15.3268
15.0929
14.8319
14.5523
14.2586
13.9567
13.6529
13.3534
13.0633
12.7889
12.5345
12.3034
12.0978
11.9188
11.7665
11.6405
11.5393
11.4607
11.403
11.3631
15.343
15.107
14.8436
14.5612
14.2649
13.9605
13.6544
13.353
13.0621
12.787
12.5322
12.3009
12.0954
11.9167
11.765
11.6396
11.539
11.4604
11.4025
11.3632
15.3607
15.1226
14.8565
14.5714
14.2723
13.9654
13.6571
13.3541
13.0623
12.7864
12.5308
12.2991
12.0936
11.9151
11.7637
11.6386
11.5384
11.4606
11.4035
11.3653
15.3798
15.1395
14.8708
14.5828
14.2809
13.9713
13.6608
13.3558
13.0627
12.786
12.5301
12.2982
12.0926
11.9143
11.7633
11.6385
11.5385
11.4616
11.405
11.3677
15.4004
15.1579
14.8865
14.5956
14.2907
13.9783
13.6652
13.358
13.063
12.7854
12.5295
12.2973
12.0917
11.9135
11.7625
11.6379
11.5378
11.4607
11.4046
11.3679
15.4224
15.1778
14.9037
14.6097
14.3017
13.9864
13.6707
13.3613
13.0645
12.7856
12.5287
12.2959
12.0902
11.912
11.7607
11.6364
11.5366
11.4599
11.4042
11.3671
15.446
15.1992
14.9223
14.6252
14.3141
13.9957
13.6773
13.3656
13.0669
12.7865
12.5287
12.2957
12.0892
11.9105
11.7594
11.635
11.5359
11.4593
11.4033
11.3667
15.4712
15.2223
14.9426
14.6423
14.3279
14.0064
13.685
13.3708
13.0701
12.7882
12.5295
12.2961
12.0889
11.9099
11.7587
11.6343
11.5349
11.4588
11.4039
11.3678
15.498
15.2471
14.9645
14.661
14.3432
14.0184
13.694
13.3771
13.0742
12.7904
12.5302
12.2965
12.0892
11.91
11.7589
11.6347
11.5356
11.4594
11.4051
11.3692
15.5267
15.2738
14.9884
14.6815
14.3602
14.032
13.7044
13.3847
13.0792
12.7935
12.5317
12.2967
12.0895
11.9102
11.7593
11.6352
11.5363
11.46
11.4051
11.3687
15.5574
15.3025
15.0143
14.704
14.3791
14.0473
13.7164
13.3936
13.0855
12.7975
12.5338
12.2971
12.0893
11.9098
11.7586
11.6345
11.5361
11.4604
11.4052
11.3681
15.5903
15.3336
15.0425
14.7287
14.4001
14.0646
13.7302
13.4042
13.0934
12.803
12.5373
12.2989
12.0895
11.9092
11.7575
11.6334
11.5352
11.46
11.4053
11.3687
15.6256
15.3672
15.0732
14.7559
14.4235
14.0841
13.7461
13.4168
13.1031
12.8103
12.5426
12.3026
12.0918
11.9107
11.7584
11.6336
11.5346
11.4594
11.405
11.3687
15.6637
15.4035
15.1067
14.7859
14.4494
14.1061
13.7643
13.4317
13.1149
12.8196
12.5497
12.308
12.0959
11.9137
11.7607
11.6352
11.5356
11.4595
11.4048
11.3684
15.7046
15.443
15.1433
14.8188
14.4783
14.1309
13.7852
13.449
13.1291
12.8311
12.559
12.3155
12.102
11.9187
11.7648
11.6387
11.5386
11.4621
11.407
11.3709
15.7489
15.4858
15.1833
14.8551
14.5105
14.1588
13.809
13.469
13.1458
12.845
12.5707
12.3253
12.1104
11.9259
11.7712
11.6445
11.5439
11.4672
11.4118
11.3755
15.7967
15.5324
15.2271
14.8951
14.5462
14.1901
13.836
13.4921
13.1655
12.8617
12.5849
12.3376
12.1211
11.9354
11.7797
11.6524
11.5512
11.474
11.4182
11.3815
15.8485
15.5832
15.2751
14.9393
14.5859
14.2252
13.8666
13.5186
13.1883
12.8814
12.6019
12.3525
12.1343
11.9473
11.7905
11.6623
11.5605
11.4827
11.4263
11.389
15.9047
15.6386
15.3278
14.988
14.63
14.2645
13.9013
13.5489
13.2147
12.9044
12.6222
12.3704
12.1503
11.9619
11.8039
11.6747
11.5721
11.4935
11.4364
11.3983
15.9657
15.699
15.3856
15.0417
14.679
14.3085
13.9404
13.5834
13.2451
12.9313
12.6459
12.3917
12.1696
11.9795
11.8202
11.6899
11.5863
11.5068
11.4489
11.41
16.0321
15.7651
15.4491
15.1011
14.7335
14.3578
13.9844
13.6226
13.2799
12.9623
12.6737
12.4168
12.1924
12.0005
11.8397
11.7082
11.6036
11.5231
11.4643
11.4244
16.1043
15.8373
15.5188
15.1667
14.794
14.4128
14.034
13.6671
13.3197
12.998
12.7059
12.446
12.2193
12.0254
11.863
11.7301
11.6242
11.5427
11.4827
11.4418
16.1829
15.9164
15.5956
15.2393
14.8613
14.4744
14.0898
13.7174
13.3651
13.039
12.7431
12.4801
12.2507
12.0546
11.8903
11.7559
11.6486
11.5658
11.5047
11.4625
16.2688
16.0032
15.6802
15.3196
14.9362
14.5433
14.1526
13.7744
13.4168
13.086
12.786
12.5195
12.2872
12.0887
11.9224
11.7862
11.6774
11.5932
11.5306
11.487
16.3627
16.0985
15.7735
15.4087
15.0197
14.6204
14.2234
13.839
13.4757
13.1398
12.8355
12.5652
12.3297
12.1284
11.9599
11.8217
11.7111
11.6252
11.5611
11.5158
16.4657
16.2036
15.8768
15.5077
15.1128
14.707
14.3032
13.9123
13.5429
13.2015
12.8924
12.6179
12.3789
12.1747
12.0036
11.8632
11.7506
11.6628
11.5968
11.5497
16.5788
16.3195
15.9914
15.618
15.2171
14.8043
14.3933
13.9954
13.6195
13.2722
12.9579
12.679
12.4362
12.2287
12.0547
11.9118
11.7969
11.7069
11.6388
11.5895
16.7035
16.4478
16.1187
15.7411
15.3339
14.9139
14.4954
14.09
13.7072
13.3536
13.0336
12.7498
12.5027
12.2916
12.1144
11.9686
11.8512
11.7587
11.6881
11.6363
16.8412
16.5902
16.2605
15.8787
15.4652
15.0377
14.6112
14.1979
13.8076
13.4472
13.1212
12.8321
12.5803
12.3651
12.1844
12.0354
11.915
11.8197
11.7462
11.6914
16.9935
16.7484
16.4189
16.0332
15.6133
15.1779
14.7429
14.3213
13.9231
13.5553
13.2228
12.9278
12.671
12.4513
12.2666
12.114
11.9902
11.8916
11.8148
11.7566
17.1626
16.9248
16.5962
16.207
15.7806
15.3372
14.8934
14.463
14.0563
13.6807
13.341
13.0398
12.7774
12.5527
12.3636
12.2069
12.0792
11.9768
11.8961
11.8339
17.3503
17.122
16.7956
16.4033
15.9706
15.5189
15.0661
14.6263
14.2106
13.8266
13.4793
13.1712
12.9027
12.6726
12.4784
12.317
12.1848
12.078
11.9928
11.9258
17.5598
17.3433
17.0205
16.6261
16.1873
15.7273
15.265
14.8155
14.3903
13.9974
13.6419
13.3263
13.0511
12.8148
12.615
12.4484
12.311
12.199
12.1084
12.0356
17.7945
17.5929
17.2757
16.88
16.4357
15.9675
15.4956
15.0361
14.6009
14.1985
13.8342
13.5106
13.2279
12.9849
12.7787
12.6059
12.4625
12.3444
12.2473
12.1677
18.0587
17.8757
17.5665
17.1713
16.7223
16.2462
15.7648
15.295
14.8494
14.4371
14.0634
13.7311
13.4404
13.1897
12.9763
12.7964
12.6459
12.5204
12.4155
12.3275
18.3572
18.1977
17.9001
17.5075
17.0553
16.5722
16.0815
15.6015
15.1454
14.7227
14.3391
13.9974
13.6978
13.4387
13.217
13.0289
12.8698
12.7353
12.6209
12.5225
18.6961
18.5668
18.2854
17.8988
17.4455
16.9568
16.4578
15.9679
15.5014
15.0682
14.6744
14.3227
14.0134
13.7448
13.5135
13.3155
13.1462
13.0007
12.8743
12.7628
19.0841
18.9934
18.7346
18.3585
17.9075
17.4155
16.9098
16.4111
15.9348
15.4914
15.0871
14.725
14.4052
14.1259
13.8835
13.6738
13.4917
13.3323
13.1907
13.0623
19.5318
19.4909
19.2633
18.9045
18.4607
17.9694
17.4599
16.9546
16.47
16.0172
15.6029
15.2302
14.8991
14.6077
14.3523
14.1282
13.9302
13.753
13.5915
13.4409
20.053
20.0769
19.8929
19.5609
19.1322
18.6476
18.1392
17.6312
17.1412
16.6812
16.2581
15.8752
15.5325
15.2276
14.9566
14.7147
14.4962
14.2957
14.1076
13.9272
20.6688
20.7735
20.6518
20.3612
19.9592
19.491
18.9917
18.4876
17.9977
17.5346
17.1057
16.7141
16.3597
16.04
15.7506
15.4862
15.241
15.0091
14.785
14.5635
21.4044
21.6171
21.5812
21.3521
20.9941
20.5571
20.0798
19.5907
19.1101
18.6513
18.2222
17.8255
17.461
17.1255
16.8141
16.5212
16.2404
15.9658
15.6916
15.4125
22.2932
22.6524
22.7357
22.5978
22.3097
21.9268
21.4916
21.035
20.5792
20.1378
19.7186
19.3241
18.9533
18.6022
18.2652
17.936
17.6078
17.2743
16.9295
16.5685
23.3792
23.9471
24.1859
24.1859
24.0065
23.712
23.3497
22.9536
22.5471
22.1443
21.7526
21.3735
21.0048
20.6411
20.2756
19.9009
19.5095
19.0946
18.6503
18.172
24.7247
25.5859
26.0466
26.2395
26.2223
26.0656
25.8217
25.5276
25.2082
24.8774
24.5416
24.2004
23.8495
23.4814
23.0872
22.6575
22.1837
21.658
21.0746
20.4292
26.4091
27.6742
28.4675
28.911
29.1365
29.1884
29.1272
28.9945
28.8169
28.6072
28.3698
28.1018
27.7955
27.4399
27.0226
26.5312
25.9545
25.2833
24.5106
23.6324
28.5471
30.3568
31.619
32.4496
32.9782
33.3364
33.5395
33.6458
33.6841
33.6613
33.5802
33.435
33.2136
32.8994
32.4752
31.9234
31.2285
30.3772
29.36
28.1711
31.2801
33.8294
35.7232
37.0946
38.0934
38.8252
39.3683
39.8029
40.1589
40.3982
40.5396
40.5789
40.4947
40.2641
39.8632
39.2669
38.4527
37.3997
36.0914
34.5158
34.7853
38.3207
41.0556
43.1408
44.7539
46.0288
47.063
47.9161
48.6116
49.1571
49.5706
49.8676
49.9766
49.8809
49.5465
48.94
48.0294
46.7811
45.1649
43.1538
39.278
44.0977
47.9158
50.9066
53.2881
55.2249
56.8327
58.1844
59.3208
60.2609
61.0047
61.5357
61.8728
61.9679
61.7468
61.1779
60.2187
58.8182
56.9243
54.483
45.0132
51.4582
56.619
60.7057
63.9941
66.6921
68.9458
70.8522
72.4698
73.826
74.9277
75.765
76.3307
76.6147
76.534
76.0492
75.1039
73.6232
71.5264
68.721
52.2796
60.715
67.4718
72.8213
77.1222
80.6455
83.5816
86.0593
88.1581
89.9241
91.378
92.5193
93.3351
93.8013
93.8789
93.5207
92.6568
91.178
88.9741
85.9086
61.3892
72.1758
80.7511
87.4894
92.867
97.2407
100.86
103.897
106.459
108.616
110.404
111.833
112.895
113.566
113.801
113.582
112.857
111.455
109.235
106.017
72.6571
86.1207
96.6882
104.896
111.378
116.599
120.882
124.451
127.449
129.973
132.073
133.777
135.08
135.96
136.371
136.308
135.751
134.49
132.33
129.052
86.3817
102.789
115.469
125.19
132.778
138.826
143.742
147.808
151.209
154.071
156.467
158.437
159.986
161.094
161.705
161.809
161.431
160.366
158.339
155.086
102.818
122.366
137.231
148.478
157.155
163.997
169.504
174.021
177.78
180.942
183.606
185.83
187.631
188.995
189.871
190.185
189.956
189.132
187.32
184.186
122.168
144.983
162.064
174.821
184.547
192.124
198.151
203.044
207.088
210.484
213.363
215.807
217.846
219.474
220.631
221.221
221.237
220.687
219.189
216.314
144.564
170.702
189.985
204.199
214.887
223.088
229.509
234.644
238.84
242.349
245.34
247.929
250.165
252.056
253.545
254.54
254.897
254.621
253.588
251.172
170.065
199.51
220.918
236.461
247.941
256.564
263.153
268.296
272.413
275.819
278.736
281.322
283.657
285.769
287.604
289.062
289.948
290.189
289.743
288.054
198.648
231.283
254.631
271.254
283.221
291.915
298.295
303.057
306.716
309.666
312.196
314.524
316.773
319.004
321.182
323.219
324.924
326.034
326.351
325.685
230.191
265.754
290.691
307.956
319.894
328.09
333.663
337.443
340.06
342.008
343.667
345.333
347.191
349.343
351.782
354.438
357.12
359.56
361.343
362.061
264.454
302.469
328.399
345.591
356.692
363.52
367.393
369.309
370.044
370.205
370.284
370.697
371.735
373.499
376.035
379.311
383.144
387.28
391.325
394.612
301.075
340.772
366.751
382.776
391.836
396.035
396.941
395.789
393.542
390.866
388.37
386.596
385.877
386.588
388.878
392.783
398.161
404.692
411.733
418.715
339.576
379.796
404.425
417.697
422.996
422.925
419.291
413.305
406.124
399.013
392.983
389.002
386.648
386.36
388.228
392.394
398.773
407.153
416.979
428.585
379.417
418.511
439.798
448.07
447.559
440.901
430.063
417.594
405.695
394.366
384.387
376.032
370.658
368.422
369.357
373.557
381.234
392.435
407.132
423.58
420.061
455.751
470.851
471.606
462.125
445.992
427.552
407.695
387.485
369.31
353.912
341.83
333.477
329.178
329.04
332.959
341.534
355.006
373.396
396.424
461.132
489.975
495.751
485.021
463.601
436.332
405.699
375.552
347.67
323.291
303.096
287.453
276.542
270.533
269.484
273.049
282.171
297.626
319.945
349.451
502.122
520.122
512.335
485.029
446.909
404.175
361.445
321.861
287.229
258.366
235.408
218.17
206.355
199.785
198.459
202.123
211.666
228.632
254.477
290.733
543.376
545.876
516.294
466.961
408.485
349.448
295.358
249.096
211.548
182.379
160.619
145.195
135.225
130.191
129.957
134.339
144.654
163.123
192.76
237.703
586.679
564.537
504.482
426.062
345.141
272.268
212.428
166.47
132.937
109.484
93.6694
83.4924
77.8154
76.1094
78.111
84.3978
96.7322
118.017
154.328
217.277
632.209
569.502
467.664
356.423
257.58
181.24
127.631
92.108
69.7549
56.4717
48.9535
45.2057
44.22
45.5636
49.4032
57.2079
71.594
98.1829
146.309
233.787
676.03
549.702
394.286
257.465
159.145
96.7988
62.3975
44.8154
35.9432
31.3383
29.0869
28.4155
29.0936
31.1566
35.4694
43.7984
60.2888
96.5187
166.285
324.265
693.103
475.012
274.163
140.781
73.4784
45.0387
32.5774
26.5315
23.3933
21.7704
21.0884
21.1529
22.0017
24.0119
28.0982
36.4021
54.829
102.364
219.19
506.22
648.216
320.503
134.073
63.748
38.1427
27.4778
22.4673
19.8896
18.4957
17.761
17.4759
17.6017
18.2788
19.9163
23.3904
31.0724
50.2177
107.848
284.819
751.334
490.238
177.08
71.8917
38.4411
26.2027
20.932
18.3842
17.0508
16.3208
15.94
15.7956
15.8763
16.3007
17.3722
19.912
26.0222
42.5764
96.7868
306.337
884.95
459.166
130.33
49.0771
27.6566
20.4789
17.5306
16.2062
15.5754
15.2721
15.1164
15.0539
15.0807
15.2721
15.8396
17.3443
21.3186
32.9656
73.7102
247.146
902.819
477.295
100.94
34.5329
20.6941
16.9452
15.7472
15.2759
15.0365
14.917
14.8537
14.8298
14.8399
14.9226
15.1829
15.8294
17.5827
22.9987
43.5892
142.098
616.82
173.923
32.1163
18.0772
15.8826
15.2389
14.987
14.8895
14.8543
14.8284
14.8096
14.8007
14.7979
14.7983
14.7683
14.752
14.7787
15.082
17.4076
38.803
246.099
11.4379
11.3995
11.3552
11.3127
11.2727
11.2358
11.2026
11.1735
11.1491
11.1299
11.1161
11.108
11.1055
11.1087
11.1174
11.1313
11.15
11.1731
11.2003
11.2316
11.4552
11.4163
11.372
11.3294
11.2893
11.2522
11.2187
11.1894
11.1648
11.1453
11.1312
11.1228
11.1201
11.1232
11.1322
11.1469
11.1661
11.1893
11.2162
11.2469
11.4674
11.4286
11.3843
11.3417
11.3016
11.2644
11.2309
11.2016
11.1768
11.157
11.1425
11.1336
11.1303
11.1328
11.1414
11.1562
11.1749
11.197
11.2223
11.252
11.4778
11.4391
11.395
11.3525
11.3125
11.2754
11.242
11.2128
11.1881
11.1682
11.1534
11.144
11.1399
11.1411
11.1478
11.1608
11.1779
11.199
11.2236
11.2529
11.4876
11.4492
11.4055
11.3634
11.3235
11.2863
11.2523
11.2222
11.1965
11.1757
11.1602
11.1501
11.1453
11.1455
11.1507
11.161
11.1769
11.198
11.2242
11.2541
11.4971
11.4586
11.4144
11.3714
11.3304
11.2921
11.2563
11.2249
11.1981
11.1766
11.1607
11.1507
11.1457
11.1457
11.1509
11.1608
11.1768
11.1979
11.2244
11.2543
11.5022
11.463
11.4179
11.3734
11.3314
11.2924
11.2566
11.2249
11.197
11.1749
11.1592
11.1492
11.1432
11.1429
11.1488
11.1603
11.1772
11.1978
11.2232
11.253
11.5031
11.4636
11.4181
11.3726
11.331
11.2927
11.2584
11.2267
11.1986
11.1764
11.16
11.1483
11.141
11.1403
11.1463
11.1587
11.1757
11.197
11.2229
11.253
11.502
11.463
11.4177
11.3728
11.3314
11.2935
11.2586
11.2263
11.1986
11.1761
11.1591
11.1473
11.1411
11.1407
11.1468
11.159
11.1752
11.1976
11.224
11.2543
11.5006
11.4612
11.4158
11.3719
11.33
11.293
11.2584
11.2264
11.1991
11.1765
11.1592
11.148
11.1427
11.143
11.149
11.1605
11.1775
11.1997
11.2268
11.2576
11.5015
11.4604
11.4148
11.3716
11.3314
11.2943
11.2603
11.2295
11.2027
11.1805
11.1637
11.1531
11.1481
11.1486
11.1547
11.166
11.1829
11.205
11.231
11.2612
11.5047
11.4635
11.4183
11.3752
11.3345
11.296
11.2612
11.2302
11.2037
11.1823
11.1663
11.1563
11.152
11.1532
11.1598
11.1715
11.1883
11.2095
11.2343
11.2639
11.5083
11.4673
11.4219
11.3781
11.3358
11.2958
11.2597
11.2281
11.2016
11.1807
11.1646
11.155
11.1519
11.1539
11.1611
11.1734
11.1902
11.2112
11.2364
11.2657
11.5096
11.468
11.4218
11.3778
11.3356
11.2959
11.2591
11.2274
11.2008
11.1796
11.1626
11.1529
11.15
11.1519
11.1591
11.1715
11.1885
11.2096
11.2348
11.2642
11.5094
11.4663
11.4198
11.3763
11.334
11.295
11.2591
11.228
11.2021
11.1808
11.1647
11.1545
11.1505
11.1521
11.1593
11.1716
11.1886
11.21
11.2356
11.2653
11.5097
11.4665
11.4201
11.3757
11.3332
11.2939
11.2572
11.2261
11.2012
11.1812
11.1673
11.1586
11.1556
11.1579
11.1653
11.1779
11.1952
11.2168
11.2424
11.2718
11.5098
11.4672
11.4203
11.3755
11.3339
11.2944
11.2579
11.2259
11.1999
11.18
11.1673
11.1603
11.158
11.1606
11.1679
11.1815
11.1998
11.2215
11.2459
11.2749
11.5094
11.4665
11.4185
11.3739
11.3334
11.2937
11.2583
11.2273
11.2016
11.1815
11.1673
11.1593
11.1564
11.159
11.1666
11.1813
11.2008
11.2227
11.2463
11.2751
11.5085
11.4663
11.4194
11.3748
11.3334
11.2936
11.2584
11.2284
11.2027
11.1823
11.1676
11.1581
11.155
11.1577
11.1662
11.1803
11.1998
11.2221
11.2472
11.2768
11.5123
11.4705
11.4239
11.3793
11.3373
11.2982
11.2629
11.2318
11.2056
11.1849
11.17
11.1612
11.158
11.1604
11.1685
11.1819
11.2003
11.2231
11.2503
11.2815
11.518
11.4765
11.4306
11.3871
11.346
11.3073
11.2719
11.2405
11.2138
11.1926
11.1773
11.168
11.1644
11.1663
11.1738
11.1866
11.2043
11.2268
11.2538
11.2851
11.5237
11.482
11.4361
11.3933
11.353
11.3148
11.2798
11.2489
11.2228
11.202
11.1867
11.177
11.173
11.1742
11.1809
11.1927
11.2094
11.2309
11.257
11.2867
11.529
11.4864
11.4396
11.3958
11.3555
11.3168
11.2818
11.2515
11.2266
11.2073
11.1929
11.1838
11.1797
11.181
11.1877
11.1996
11.2161
11.2363
11.2599
11.2876
11.5347
11.4909
11.4427
11.3972
11.3556
11.3168
11.282
11.2519
11.2273
11.2085
11.1945
11.1856
11.1811
11.1824
11.1896
11.2021
11.2194
11.2391
11.2607
11.2876
11.5414
11.4967
11.4473
11.4004
11.3569
11.3179
11.2825
11.2519
11.2266
11.2069
11.1928
11.1841
11.1798
11.1816
11.1891
11.2018
11.2194
11.2395
11.2622
11.2894
11.5494
11.5039
11.4537
11.4056
11.3608
11.3198
11.2833
11.2519
11.2262
11.2063
11.1924
11.1843
11.1816
11.184
11.1917
11.2043
11.2211
11.242
11.2665
11.2946
11.5588
11.5127
11.4618
11.4131
11.3676
11.326
11.289
11.2572
11.2311
11.211
11.197
11.1891
11.1866
11.1894
11.1975
11.2105
11.2279
11.2492
11.2741
11.3023
11.5693
11.5228
11.4715
11.4224
11.3764
11.3344
11.2971
11.2651
11.2389
11.2187
11.2048
11.197
11.1947
11.1978
11.2062
11.2194
11.237
11.2584
11.2833
11.3114
11.5811
11.5342
11.4825
11.4329
11.3866
11.3443
11.3067
11.2745
11.2482
11.228
11.2142
11.2066
11.2045
11.2077
11.2163
11.2297
11.2474
11.2689
11.2937
11.3216
11.5943
11.547
11.4949
11.4449
11.3982
11.3555
11.3176
11.2852
11.2587
11.2386
11.2248
11.2173
11.2153
11.2188
11.2275
11.2411
11.2589
11.2804
11.3051
11.3327
11.6093
11.5615
11.5091
11.4587
11.4115
11.3684
11.3302
11.2975
11.2709
11.2506
11.2369
11.2295
11.2276
11.2312
11.2401
11.2538
11.2716
11.2931
11.3176
11.3449
11.6263
11.5782
11.5254
11.4746
11.427
11.3835
11.3449
11.312
11.2851
11.2648
11.251
11.2436
11.2418
11.2454
11.2544
11.2682
11.286
11.3073
11.3316
11.3585
11.6459
11.5975
11.5444
11.4932
11.4452
11.4013
11.3624
11.3291
11.3021
11.2816
11.2677
11.2603
11.2585
11.2622
11.2712
11.2849
11.3026
11.3237
11.3476
11.374
11.6684
11.6198
11.5664
11.5149
11.4665
11.4222
11.383
11.3495
11.3222
11.3016
11.2877
11.2803
11.2785
11.2821
11.2911
11.3047
11.3222
11.343
11.3665
11.3923
11.6943
11.6455
11.5919
11.5401
11.4914
11.4468
11.4072
11.3735
11.3461
11.3253
11.3114
11.304
11.3022
11.3058
11.3148
11.3283
11.3456
11.366
11.389
11.414
11.7242
11.6753
11.6216
11.5695
11.5205
11.4756
11.4358
11.4018
11.3742
11.3534
11.3394
11.332
11.3302
11.3339
11.3428
11.3562
11.3733
11.3933
11.4156
11.4398
11.7587
11.7098
11.656
11.6038
11.5545
11.5093
11.4692
11.435
11.4073
11.3864
11.3724
11.365
11.3632
11.3669
11.3758
11.389
11.4058
11.4253
11.4468
11.4699
11.7986
11.7498
11.6962
11.6438
11.5943
11.5489
11.5085
11.4741
11.4462
11.4252
11.4111
11.4037
11.402
11.4057
11.4144
11.4274
11.4437
11.4626
11.4832
11.5051
11.8448
11.7963
11.7428
11.6905
11.6408
11.5952
11.5546
11.52
11.4919
11.4707
11.4566
11.4491
11.4473
11.4509
11.4595
11.4722
11.4879
11.506
11.5255
11.5459
11.8982
11.8501
11.7971
11.7449
11.6951
11.6493
11.6085
11.5737
11.5454
11.5241
11.5098
11.5022
11.5003
11.5038
11.5121
11.5243
11.5394
11.5565
11.5747
11.5933
11.96
11.9126
11.8601
11.8082
11.7585
11.7126
11.6717
11.6367
11.6082
11.5868
11.5723
11.5645
11.5624
11.5657
11.5736
11.5852
11.5994
11.6153
11.6319
11.6484
12.0316
11.9851
11.9335
11.8821
11.8326
11.7867
11.7457
11.7105
11.6819
11.6602
11.6455
11.6375
11.6352
11.6381
11.6454
11.6563
11.6694
11.6838
11.6985
11.7126
12.1147
12.0696
12.0193
11.9686
11.9195
11.8737
11.8326
11.7973
11.7685
11.7466
11.7317
11.7233
11.7207
11.7231
11.7297
11.7395
11.7513
11.7639
11.7763
11.7875
12.2117
12.1684
12.1198
12.0702
12.0217
11.9763
11.9353
11.8999
11.8709
11.8488
11.8334
11.8247
11.8215
11.8233
11.829
11.8375
11.8476
11.858
11.8676
11.8753
12.3254
12.2846
12.2383
12.1902
12.1428
12.0979
12.0571
12.0218
11.9926
11.9702
11.9544
11.9451
11.9413
11.9421
11.9465
11.9534
11.9613
11.969
11.9751
11.9786
12.4595
12.422
12.3789
12.3331
12.2872
12.2432
12.2029
12.1677
12.1384
12.1156
12.0993
12.0891
12.0844
12.084
12.0868
12.0915
12.0966
12.1008
12.1026
12.1008
12.6188
12.586
12.5472
12.5046
12.4609
12.4184
12.3789
12.3441
12.3148
12.2915
12.2744
12.2632
12.257
12.2549
12.2554
12.2572
12.2587
12.2584
12.2547
12.2464
12.8099
12.7835
12.7508
12.7128
12.6724
12.6321
12.594
12.5598
12.5306
12.5069
12.4887
12.4759
12.4678
12.4632
12.4605
12.4583
12.4548
12.4487
12.438
12.4213
13.0415
13.0241
13.0002
12.9688
12.9332
12.8963
12.8605
12.8274
12.7985
12.7742
12.7548
12.7398
12.7286
12.7203
12.713
12.7052
12.6952
12.6812
12.6611
12.6335
13.3256
13.3216
13.3102
13.2886
13.2603
13.2286
13.1962
13.1651
13.1367
13.1118
13.0905
13.0726
13.0573
13.0435
13.0295
13.0137
12.9941
12.969
12.9362
12.8939
13.6826
13.6965
13.7031
13.6958
13.6785
13.6549
13.6279
13.5999
13.5725
13.5466
13.5225
13.5
13.4783
13.4564
13.4325
13.405
13.3718
13.3311
13.2805
13.2181
14.139
14.1776
14.2116
14.2255
14.2251
14.214
14.1956
14.1726
14.1469
14.1197
14.0914
14.0619
14.0304
13.9961
13.9573
13.9122
13.859
13.7955
13.7195
13.6287
14.7418
14.8192
14.8859
14.9307
14.9575
14.9657
14.9607
14.9457
14.923
14.8939
14.8591
14.8186
14.772
14.7186
14.6567
14.5851
14.5016
14.4045
14.2911
14.1595
15.5524
15.6904
15.8181
15.9053
15.9637
16.0021
16.0172
16.0154
15.9979
15.9662
15.9213
15.8638
15.7936
15.7102
15.6127
15.5
15.3704
15.2222
15.0531
14.8609
16.6686
16.8995
17.1198
17.2817
17.3917
17.4604
17.5052
17.5276
17.5194
17.4844
17.4242
17.3402
17.2331
17.1033
16.9504
16.7741
16.5733
16.347
16.0932
15.8101
18.2366
18.611
18.9737
19.2506
19.4503
19.5815
19.6558
19.6976
19.7076
19.6677
19.5846
19.4605
19.2971
19.096
18.8579
18.5838
18.2737
17.9278
17.545
17.124
20.4705
21.0625
21.6391
22.0875
22.4186
22.6451
22.7791
22.8446
22.8692
22.8224
22.7069
22.5248
22.2788
21.972
21.6068
21.1861
20.7115
20.1849
19.6069
18.9777
23.6697
24.58
25.4652
26.1579
26.6727
27.0284
27.2445
27.3448
27.3713
27.3337
27.1788
26.9194
26.5603
26.1064
25.562
24.9316
24.2191
23.4286
22.563
21.625
28.2174
29.5679
30.8699
31.8852
32.6365
33.1515
33.4621
33.6116
33.6588
33.6246
33.4231
33.0704
32.5719
31.9326
31.1572
30.2503
29.2169
28.0627
26.7934
25.4146
34.5462
36.4554
38.2663
39.6603
40.6783
41.3676
41.7732
41.96
42.0353
42.0096
41.7665
41.3229
40.6815
39.8438
38.8108
37.5828
36.1615
34.5505
32.756
30.7862
43.0531
45.5894
47.9367
49.7009
50.9595
51.7952
52.2825
52.4966
52.5634
52.5469
52.2902
51.7903
51.0442
50.0461
48.7875
47.255
45.4364
43.3251
40.9204
38.2273
53.9877
57.1224
59.9315
61.9646
63.3623
64.2607
64.7702
64.9797
64.9999
64.9697
64.782
64.2893
63.5185
62.4579
61.0842
59.3562
57.2266
54.6672
51.657
48.1826
67.4008
71.0025
74.1119
76.2252
77.5921
78.4353
78.9068
79.1226
79.1295
79.0564
78.9015
78.4606
77.7567
76.7688
75.4595
73.7475
71.4831
68.6362
65.1473
60.9533
83.2397
87.1159
90.383
92.6507
94.1713
95.1249
95.6821
95.9889
96.0229
95.9548
95.8237
95.3704
94.6204
93.5533
92.1422
90.3301
88.0398
85.1377
81.4102
76.6714
101.592
105.901
109.627
112.243
114.016
115.143
115.813
116.202
116.296
116.277
116.191
115.73
114.935
113.783
112.243
110.249
107.716
104.521
100.506
95.4178
123.132
128.146
132.516
135.64
137.809
139.228
140.069
140.555
140.788
140.87
140.849
140.385
139.528
138.253
136.526
134.281
131.432
127.836
123.305
117.572
148.473
154.435
159.679
163.489
166.196
168.028
169.129
169.689
170.114
170.491
170.462
170.013
169.116
167.732
165.814
163.285
160.044
155.937
150.754
144.179
178.143
185.309
191.662
196.352
199.767
202.173
203.733
204.592
205.075
205.486
205.71
205.374
204.484
203.008
200.897
198.066
194.392
189.695
183.728
176.121
212.55
221.207
228.935
234.74
239.079
242.267
244.507
245.9
246.652
247.127
247.397
247.306
246.467
244.921
242.621
239.471
235.327
229.973
223.111
214.297
251.975
262.383
271.777
278.964
284.473
288.669
291.791
293.965
295.261
295.947
296.457
296.528
295.758
294.179
291.721
288.263
283.629
277.564
269.707
259.523
297.984
310.195
321.312
329.929
336.644
341.88
345.923
348.948
351.055
352.315
353.016
353.327
352.748
351.243
348.706
344.991
339.88
333.075
324.149
312.488
352.445
366.76
379.868
390.111
398.177
404.557
409.586
413.474
416.343
418.259
419.32
419.77
419.539
418.201
415.686
411.819
406.341
398.9
388.978
375.84
417.196
433.972
449.406
461.548
471.193
478.911
485.096
489.998
493.756
496.427
498.079
498.971
499.096
498.022
495.65
491.738
485.971
477.923
466.965
452.214
494.332
513.933
532.038
546.359
557.817
567.08
574.614
580.718
585.561
589.217
591.699
593.168
593.748
593.108
591.053
587.268
581.354
572.796
560.828
544.381
586.273
609.039
630.129
646.879
660.357
671.35
680.41
687.899
694.024
698.889
702.506
704.913
706.125
706.037
704.499
701.123
695.322
686.473
673.637
655.524
695.752
721.942
746.252
765.602
781.238
794.086
804.806
813.833
821.425
827.711
832.705
836.377
838.627
839.391
838.657
836.113
830.855
822.105
808.726
789.151
825.744
855.454
883.053
905.019
922.813
937.528
949.952
960.614
969.834
977.782
984.475
989.865
993.78
995.966
996.336
994.973
990.878
982.869
969.536
948.987
979.303
1012.34
1042.99
1067.33
1087.04
1103.42
1117.43
1129.7
1140.63
1150.45
1159.2
1166.81
1173.05
1177.61
1179.95
1180.03
1177.81
1171.54
1159.23
1138.62
1159.24
1194.92
1227.93
1253.94
1274.94
1292.46
1307.64
1321.27
1333.85
1345.68
1356.81
1367.19
1376.56
1384.51
1390.39
1393.38
1393.27
1389.86
1380.15
1361
1367.59
1404.51
1438.45
1464.78
1485.85
1503.47
1518.99
1533.38
1547.26
1561.03
1574.8
1588.53
1601.91
1614.49
1625.47
1633.86
1638.23
1638.15
1632.82
1617.56
1604.76
1640.45
1672.82
1697.21
1716.31
1732.27
1746.67
1760.7
1775.13
1790.47
1806.92
1824.47
1842.79
1861.4
1879.37
1895.55
1908.22
1915.27
1915.39
1906.95
1868.25
1898.78
1925.71
1944.6
1958.62
1970.2
1981.23
1993.09
2006.75
2022.83
2041.63
2063.23
2087.31
2113.39
2140.46
2167.25
2191.76
2211.54
2222.96
2223.51
2150.76
2170.54
2186.29
2194.59
2199.1
2202.5
2206.93
2214.01
2224.88
2240.28
2260.59
2286
2316.28
2351.02
2389.24
2429.66
2470.12
2507.84
2538.64
2557.13
2439.49
2440.14
2436.25
2426.92
2416.4
2406.74
2400.31
2399.22
2404.66
2417.3
2437.6
2465.9
2502.11
2546
2596.78
2653.56
2714.14
2775.52
2833.04
2880.78
2714.38
2685.38
2652.46
2616.54
2582.32
2552.24
2529.49
2516.48
2513.87
2521.26
2539.34
2568.72
2609.52
2661.66
2724.62
2799.44
2883.74
2974.22
3065.65
3152.42
2943.19
2868.7
2792.28
2718.96
2652.1
2596.48
2554.52
2528.08
2519.72
2521.06
2535.27
2563.46