/*--------------------------------*- C++ -*----------------------------------*\
  =========                 |
  \\      /  F ield         | OpenFOAM: The Open Source CFD Toolbox
   \\    /   O peration     | Website:  https://openfoam.org
    \\  /    A nd           | Version:  6
     \\/     M anipulation  |
\*---------------------------------------------------------------------------*/
FoamFile
{
    version     2.0;
    format      ascii;
    class       volScalarField;
    location    "17";
    object      epsilon;
}
// * * * * * * * * * * * * * * * * * * * * * * * * * * * * * * * * * * * * * //

dimensions      [0 2 -3 0 0 0 0];

internalField   nonuniform List<scalar> 
10000
(
255.121
344.884
210.371
127.611
82.3061
57.6497
44.4123
37.2058
33.3886
31.7838
31.9561
33.92
38.1794
45.9137
59.7904
84.6326
130.077
210.615
341.355
257.236
254.44
344.429
209.192
126.156
82.2609
57.5967
44.3995
37.1879
33.3539
31.6833
31.7908
33.7163
38.0836
45.5236
59.6633
84.4726
129.993
210.593
341.148
255.87
255.021
344.293
211.463
127.583
82.534
57.5847
44.4181
37.1599
33.3307
31.6814
31.8423
33.7838
38.0996
45.7939
59.5866
84.2756
129.879
210.506
341.14
255.89
255.11
345.412
211.375
128.274
82.5337
57.0715
44.355
37.0006
33.1924
31.7269
31.9017
33.8465
38.037
45.3975
59.38
83.1832
129.739
210.122
339.71
255.825
256.986
344.315
208.911
126.291
82.5224
57.6107
44.4225
37.1386
33.2594
31.7277
31.8805
33.8182
38.0082
45.5409
59.1824
84.6504
129.617
209.84
341.837
254.718
254.919
344.928
209.596
127.448
82.6464
57.173
44.2759
37.0897
33.297
31.6959
31.7458
33.6431
37.8039
45.7222
59.7855
84.7635
129.408
207.97
341.704
255.521
255.171
342.613
209.374
128.661
82.8401
58.0116
44.5059
36.9374
33.1966
31.6855
31.823
33.7522
37.9236
45.3815
59.6843
84.6587
128.052
210.033
341.527
255.8
255.444
344.934
210.421
128.441
82.6569
57.9873
44.5128
36.9702
33.2802
31.6756
31.7975
33.7291
37.9086
45.6279
59.5477
84.7993
130.146
208.469
340.938
255.52
256.537
346.521
211.877
126.73
82.4216
57.9484
44.48
36.9837
33.2826
31.6601
31.6912
33.6543
37.6899
45.4128
58.8333
84.5035
130.239
211.066
342.978
257.555
256.112
346.01
211.318
127.749
81.7445
57.853
44.4523
37.0696
33.276
31.6593
31.7557
33.6483
37.5998
45.1144
59.1701
84.2113
129.739
208.921
342.663
257.962
255.146
345.135
208.761
128.865
82.7063
57.8703
44.4221
36.8527
33.1471
31.6032
31.748
33.6399
37.6601
45.3664
58.9731
83.8315
129.405
210.509
342.483
258.066
254.239
343.616
210.193
128.883
82.4949
57.6761
44.3414
36.9913
33.2196
31.5973
31.6311
33.608
37.6901
44.9766
58.1421
82.515
127.386
209.772
341.672
256.382
256.218
344.204
211.489
128.514
81.3258
56.9284
43.9642
37.0241
33.1094
31.5077
31.7211
33.499
37.5406
45.233
58.7785
83.2918
128.339
207.773
341.246
254.434
256.057
344.42
211.065
126.942
81.9536
57.2428
44.1256
37.0383
33.1269
31.525
31.7321
33.6212
37.7061
45.0291
58.1345
82.1846
127.003
209.668
341.111
254.042
255.962
345.523
209.602
129.201
82.6173
57.4105
44.1642
37.0419
33.1242
31.5263
31.722
33.6
37.593
45.3131
58.8032
83.1622
128.512
209.453
341.01
253.567
256.263
345.492
211.484
128.998
82.0962
57.7804
44.3849
36.9701
33.1453
31.5617
31.7052
33.5804
37.6935
45.2659
58.6151
81.9078
126.644
208.57
340.914
254.767
256.67
345.415
209.507
127.924
81.5347
57.7237
44.1937
37.1241
33.2473
31.4974
31.6952
33.5586
37.6397
45.1589
58.5715
82.3841
127.699
205.935
340.736
254.973
257.162
345.573
212.192
128.492
82.2158
57.5428
44.5598
37.1674
33.2564
31.6041
31.7075
33.539
37.5533
44.994
58.3698
82.6541
126.244
208.697
340.945
255.12
257.449
345.237
211.495
128.223
83.1904
58.2
44.6288
37.0718
33.153
31.5061
31.6883
33.5141
37.4142
44.5654
57.6223
81.7433
127.942
210.46
340.865
254.374
257.829
343.28
209.484
129.31
83.3259
58.2215
44.6079
37.1478
33.2426
31.6371
31.691
33.4636
37.5191
45.0284
58.4212
82.8978
129.063
210.023
340.469
256.082
257.604
344.901
210.891
128.176
83.1338
58.1503
44.4022
37.3036
33.3492
31.6727
31.6557
33.6564
37.7748
45.3574
58.9056
83.5936
127.752
208.3
338.484
255.42
257.57
342.957
212.567
129.892
83.1258
58.1634
44.7793
37.3789
33.3087
31.6886
31.8201
33.7008
37.6224
45.0377
58.307
82.8442
129.082
210.187
339.232
256.3
257.183
343.34
212.555
129.68
82.8493
58.0185
44.8188
37.4181
33.3052
31.6809
31.8018
33.7448
37.8939
45.4651
58.9298
83.8627
127.659
209.919
339.145
255.591
256.549
343.116
212.336
129.123
81.7282
57.4045
44.7971
37.4644
33.4215
31.662
31.6858
33.7328
37.913
45.4579
58.3424
83.8747
129.424
208.673
339.419
256.725
256.573
344.267
212.151
128.052
82.3611
58.1787
44.9277
37.5337
33.4158
31.567
31.7745
33.737
37.8996
45.5036
58.9232
83.0625
128.17
210.727
340.91
257.423
255.572
342.461
211.816
129.372
81.2751
57.7179
44.8617
37.5655
33.4463
31.7049
31.6867
33.6843
37.8762
45.4786
58.4831
84.2349
129.972
210.588
339.912
258.501
256.403
344.204
211.363
129.122
82.3495
58.5003
44.7947
37.6261
33.6354
31.8755
31.8082
33.5693
37.6735
45.4788
58.7875
84.1645
129.816
210.153
341.888
258.749
256.944
342.47
209.283
127.625
83.1952
58.6758
45.1627
37.682
33.6519
31.8956
31.919
33.7066
37.9183
45.4989
59.1691
83.8892
129.333
207.76
341.897
258.858
256.831
344.175
210.452
128.952
83.0729
58.6059
45.1673
37.6828
33.646
31.8721
31.8464
33.788
37.9271
45.4806
58.9904
83.5712
129.176
210.603
341.803
257.78
258.988
345.66
211.544
127.649
81.8916
57.997
45.0604
37.6372
33.6194
31.8448
31.9361
33.7706
37.8695
45.3054
58.6962
83.0326
128.529
210.198
340.101
258.604
258.854
345.577
210.389
129.391
83.2026
58.4856
45.0737
37.6023
33.5982
31.8643
31.9318
33.7487
37.8117
45.2744
57.9245
81.8368
127.315
209.818
341.677
258.519
258.872
345.48
209.687
128.881
83.0482
57.8425
44.9231
37.5124
33.5349
31.7779
31.9002
33.7007
37.5787
45.2962
58.4811
82.5453
127.324
208.469
341.265
258.22
259.176
345.387
211.113
127.207
81.9612
57.8192
44.895
37.3278
33.3931
31.7347
31.8887
33.7221
37.6679
45.0944
58.9997
83.7269
129.63
210.403
340.92
257.737
258.585
344.805
208.972
127.566
82.5102
57.8084
44.9032
37.4927
33.5283
31.8209
31.8825
33.7184
37.8142
45.376
58.9354
82.6224
129.207
209.934
339.497
256.469
258.474
344.647
209.977
128.171
83.1949
57.9923
44.907
37.3489
33.4133
31.8093
31.8791
33.6999
37.7651
45.2304
58.885
83.615
128.987
209.549
341.035
257.427
257.779
344.226
210.922
126.159
83.07
58.3857
44.9351
37.4882
33.5196
31.8136
31.8653
33.6526
37.5358
45.1502
58.6833
83.3504
127.27
207.024
339.125
256.46
257.604
343.715
210.501
127.658
83.0643
58.3299
44.9003
37.4421
33.508
31.7971
31.8557
33.6736
37.6704
44.7306
57.8832
82.5325
129.247
209.99
340.157
258.174
256.899
341.834
208.389
128.942
82.961
58.1455
44.8322
37.2517
33.4718
31.7767
31.8341
33.6562
37.718
44.9134
58.3765
83.5823
129.109
209.704
340.292
257.924
256.545
342.612
209.51
128.764
82.6411
57.5704
44.777
37.3854
33.4905
31.7709
31.7989
33.6258
37.7053
44.9986
58.8128
83.4796
128.587
207.627
341.693
257.484
257.362
341.346
206.946
128.485
81.6668
58.0168
44.7863
37.2309
33.4496
31.7337
31.6729
33.453
37.6712
45.1915
58.7351
83.226
127.316
209.957
341.534
257.248
256.803
343.712
208.864
128.464
82.6548
57.7398
44.7604
37.385
33.4549
31.7347
31.7071
33.4884
37.6175
45.0981
58.5011
83.0606
128.488
209.473
340.257
255.772
258.873
343.391
210.161
128.113
81.6248
57.9881
44.7315
37.3147
33.416
31.717
31.7545
33.5317
37.5481
44.9504
57.782
81.731
127.89
208.956
339.701
256.314
258.585
341.319
207.933
127.48
82.2809
57.9555
44.6857
37.1805
33.384
31.7024
31.7489
33.5126
37.4971
44.9467
58.228
82.2899
126.424
207.076
339.429
254.948
257.811
342.479
209.252
125.904
81.1148
57.2804
44.601
37.2733
33.3672
31.6041
31.722
33.4804
37.2412
44.5641
58.0364
81.457
127.543
208.481
339.717
254.792
257.398
341.778
208.581
127.174
82.0022
57.7443
44.6264
37.1052
33.2586
31.6728
31.7312
33.5048
37.3506
44.761
57.9465
82.1467
127.166
208.031
340.622
254.333
256.463
340.718
205.844
125.219
80.8026
57.1054
44.5642
37.2524
33.3833
31.6715
31.6288
33.4812
37.44
44.4815
57.3195
80.9164
125.309
205.799
340.086
254.141
255.981
338.805
205.948
125.408
81.0514
57.672
44.6049
37.268
33.2575
31.6348
31.6755
33.4615
37.4485
44.7792
57.8475
81.2324
126.379
207.175
338.717
253.83
254.72
340.043
205.702
124.91
80.7515
57.5251
44.5107
37.0855
33.2464
31.5717
31.5428
33.294
37.3516
44.6685
57.6713
80.7925
125.803
206.73
339.988
254.369
254.753
338.267
206.032
124.677
80.6967
57.3848
44.4268
37.1203
33.289
31.6401
31.6035
33.3759
37.3005
44.5796
57.5643
80.698
123.996
205.934
339.535
254.4
254.064
338.809
204.089
124.012
80.8992
57.0633
44.1875
37.1254
33.3444
31.6397
31.6421
33.3546
37.0984
44.438
57.3356
81.065
124.92
205.145
337.664
252.922
254.624
339.382
205.336
123.772
80.6511
56.8732
44.1861
37.2019
33.348
31.6263
31.6261
33.344
37.224
44.3376
56.8195
80.6432
124.292
203.048
338.564
253.128
254.076
338.506
203.12
122.968
80.2803
57.0236
44.2888
37.1725
33.2988
31.5101
31.5115
33.2992
37.1732
44.2566
56.6699
79.509
122.506
203.154
338.014
253.187
253.949
336.495
203.623
122.696
79.9398
56.8087
44.1494
36.9681
33.1723
31.5578
31.5634
33.262
37.0988
44.1537
56.5133
79.4087
122.417
203.45
335.789
252.533
252.439
336.384
202.794
122.773
78.9729
56.1441
43.8034
36.9473
33.2397
31.5603
31.5516
33.2298
37.0341
44.0883
56.5489
78.9662
121.683
202.753
336.579
252.003
251.579
336.329
201.802
122.105
79.175
56.1755
43.8107
36.9159
33.2209
31.5315
31.512
33.163
36.9056
43.7492
56.3461
78.7519
121.958
201.899
335.089
251.554
251.396
335.669
200.641
121.177
78.7619
55.8994
43.7015
36.8742
33.1237
31.5009
31.491
33.1214
36.7264
43.6745
56.0982
78.2197
120.093
200.99
334.731
252.605
251.461
334.752
198.028
120.2
77.6869
55.7596
43.7411
36.9293
33.1776
31.4673
31.4538
33.0909
36.7572
43.5718
55.8814
77.9347
120.438
198.734
335.518
252.054
251.226
333.768
197.29
118.502
77.5786
55.687
43.6654
36.8945
33.1623
31.3609
31.3396
32.9619
36.7195
43.3859
55.3104
77.2289
118.665
197.942
333.386
252.204
250.719
331.469
195.865
118.04
77.1513
55.4494
43.5342
36.7232
33.1457
31.4241
31.4564
33.0438
36.6591
43.2269
55.0933
76.9058
117.868
197.436
333.1
252.301
250.415
331.148
195.713
117.144
76.5933
55.1732
43.2747
36.7179
33.1473
31.4935
31.4405
32.9806
36.4569
42.9866
54.7596
76.3368
116.56
194.692
331.897
250.936
249.007
330.009
194.418
116.207
76.099
54.961
43.3211
36.7549
33.1122
31.3942
31.3941
32.9233
36.362
42.8364
54.3893
75.3244
115.689
194.522
331.814
250.56
248.345
329.544
192.887
115.387
75.4497
54.3934
43.168
36.6816
33.0767
31.4164
31.3021
32.8023
36.2507
42.6525
54.0724
74.849
114.535
191.377
330.555
250.285
247.71
326.296
189.858
113.565
74.5005
54.194
42.8939
36.5611
32.9958
31.3697
31.2408
32.7137
36.1385
42.4305
53.5887
74.0886
113.549
190.667
329.27
249.302
246.733
325.565
188.434
112.512
73.919
53.7754
42.7444
36.4646
32.9007
31.23
31.2123
32.6994
36.0321
42.2517
53.2848
73.4186
112.266
188.82
327.826
248.665
245.986
322.756
185.658
110.65
72.9158
53.3755
42.4613
36.2375
32.7804
31.1488
31.1292
32.5544
35.8934
42.0022
52.848
72.6804
110.951
186.781
325.103
247.582
244.925
321.715
184.017
109.669
72.3071
52.966
42.2812
36.1269
32.6754
31.017
30.9481
32.4301
35.7403
41.8074
52.4831
71.9706
109.549
184.773
323.837
246.729
243.556
319.982
182.102
108.218
71.6165
52.6214
42.0437
35.9353
32.4384
30.8536
30.8032
32.2647
35.5881
41.5854
52.1011
71.2901
108.373
183.019
322.45
245.465
242.883
318.427
180.13
107.004
70.8619
52.2077
41.8099
35.746
32.3146
30.7179
30.6673
32.132
35.421
41.3496
51.6937
70.4936
106.924
180.684
320.075
243.872
241.78
316.599
177.932
105.446
70.038
51.7642
41.5538
35.5771
32.1597
30.5652
30.5004
31.943
35.1912
41.055
51.2677
69.7342
105.413
178.279
317.492
242.769
240.689
314.79
175.811
103.9
69.2142
51.2836
41.2524
35.3561
31.9747
30.3855
30.3148
31.7605
35.0139
40.8191
50.8689
68.9842
104.016
176.146
315.54
241.551
238.926
312.626
173.43
102.598
68.4635
50.8246
40.94
35.121
31.7768
30.2101
30.1571
31.5989
34.817
40.5459
50.4243
68.1736
102.517
173.751
312.885
239.731
237.117
310.745
170.867
100.887
67.5008
50.2282
40.5333
34.827
31.5484
30.0162
29.9657
31.3987
34.5935
40.2417
49.9264
67.2724
100.906
171.264
310.407
238.421
235.277
308.071
168.094
99.1167
66.5054
49.659
40.1607
34.5404
31.3127
29.8145
29.7793
31.2053
34.3582
39.9139
49.4078
66.3606
99.2034
168.391
307.579
236.845
232.967
305.038
165.04
97.1801
65.4131
49.0041
39.739
34.2421
31.0693
29.5891
29.5506
30.955
34.0558
39.5011
48.7754
65.2807
97.2327
165.162
304.499
234.624
230.456
301.266
161.496
95.0482
64.2402
48.3311
39.2924
33.9003
30.7797
29.3209
29.283
30.6677
33.7159
39.0406
48.0571
64.0339
94.9457
161.488
300.514
232.402
226.83
296.538
157.45
92.6563
62.9087
47.5252
38.7508
33.4946
30.444
29.0133
28.9701
30.3183
33.2964
38.4985
47.2696
62.7226
92.547
157.351
295.862
228.33
223.109
290.858
152.785
90.0055
61.4853
46.6551
38.146
33.032
30.0533
28.6531
28.6097
29.9252
32.8273
37.8822
46.3605
61.2069
89.7467
152.361
289.729
224.066
218.368
283.692
147.473
87.0609
59.8549
45.6533
37.4446
32.4843
29.5901
28.2301
28.1897
29.4705
32.2889
37.185
45.3541
59.5464
86.6698
146.723
282.169
217.905
212.21
274.974
141.503
83.8237
58.1069
44.5538
36.6407
31.8457
29.0453
27.7288
27.6882
28.9262
31.6505
36.3724
44.2005
57.6729
83.2492
140.3
272.444
210.26
205.384
264.661
135.054
80.3921
56.1735
43.3046
35.712
31.0936
28.3977
27.1328
27.0975
28.2953
30.9255
35.4752
42.9533
55.6593
79.607
133.425
261.299
202.225
198.29
252.434
127.997
76.7525
54.0658
41.9034
34.6683
30.2398
27.6495
26.4367
26.4073
27.5634
30.0953
34.4644
41.5992
53.5701
75.846
126.055
248.443
193.185
190.648
239.019
120.812
73.1074
51.8866
40.3899
33.4956
29.2628
26.7872
25.6305
25.6092
26.726
29.1629
33.3525
40.1418
51.3908
72.0815
118.731
234.981
185.575
183.786
224.111
113.363
69.4028
49.6135
38.7508
32.1996
28.1676
25.8131
24.719
24.7078
25.7849
28.1276
32.1506
38.6489
49.3015
68.5744
111.698
221.038
179.669
176.553
208.403
105.836
65.6712
47.2758
37.0324
30.8161
26.9857
24.7497
23.7148
23.7138
24.752
27.0005
30.8571
37.0786
47.2112
65.2274
104.907
207.086
175.92
174.036
193.465
98.9329
62.1222
44.9263
35.2422
29.3458
25.7163
23.6042
22.6313
22.6377
23.6288
25.7782
29.4807
35.4761
45.1982
62.1808
98.7153
193.605
175.002
175.09
180.466
92.8768
58.893
42.6596
33.4401
27.8437
24.4131
22.4263
21.5165
21.5279
22.4657
24.5024
28.0235
33.7666
43.119
59.3128
93.2058
181.205
177.522
181.057
169.396
87.536
55.8743
40.4527
31.6758
26.3638
23.1257
21.2619
20.4109
20.4233
21.3055
23.2262
26.5663
32.0596
41.0775
56.6407
88.1965
170.5
183.107
188.918
160.282
83.1023
53.3558
38.5164
30.055
24.9762
21.912
20.1591
19.3615
19.3735
20.1983
21.9958
25.136
30.3548
39.0257
54.0846
83.9377
161.41
189.343
198.44
152.809
79.7547
51.1472
36.717
28.5515
23.7035
20.8054
19.1569
18.4084
18.4183
19.1878
20.8688
23.8197
28.7683
37.1233
51.8604
80.7887
154.238
201.111
212.496
147.337
77.5408
49.366
35.149
27.2215
22.5805
19.8324
18.2796
17.5771
17.5841
18.3005
19.8713
22.6423
27.3133
35.2916
49.5921
77.8491
147.488
211.98
226.302
142.934
75.5273
47.636
33.6626
25.9909
21.5682
18.9801
17.5298
16.8773
16.8821
17.5446
19.0078
21.6137
26.0569
33.753
47.7432
75.6581
143.341
227.445
245.51
140.69
74.1292
46.1056
32.2801
24.8562
20.6552
18.2343
16.8949
16.2966
16.2984
16.9011
18.2457
20.676
24.8919
32.3397
46.1846
74.1618
140.807
245.2
266.737
139.428
72.5095
44.3421
30.794
23.7001
19.7736
17.5545
16.3464
15.8121
15.8123
16.3475
17.5563
19.7769
23.7059
30.8139
44.4012
72.6579
139.764
266.138
289.639
138.935
70.8003
42.4
29.1845
22.4918
18.8968
16.9182
15.8652
15.4068
15.4063
15.8641
16.9154
18.8935
22.4906
29.1934
42.4363
70.8825
139.031
290.438
316.713
138.844
68.4952
39.9471
27.2931
21.1597
17.9912
16.31
15.4443
15.0749
15.0746
15.4439
16.309
17.9894
21.157
27.2897
39.9457
68.5074
138.857
316.078
343.823
138.298
64.899
36.771
25.0889
19.7244
17.0863
15.7536
15.1017
14.8348
14.8347
15.1015
15.7535
17.0863
19.7267
25.1
36.8108
65.0156
138.539
344.331
372.93
135.908
59.6098
32.8217
22.6092
18.2367
16.2262
15.2782
14.859
14.7106
14.7106
14.8592
15.2782
16.2247
18.2345
22.6061
32.8199
59.6195
135.936
372.704
402.671
128.26
51.3105
27.8504
19.8682
16.7637
15.4757
14.9584
14.755
14.6772
14.6773
14.7552
14.9588
15.4766
16.7665
19.8718
27.8612
51.3418
128.353
402.815
432.243
107.442
38.6612
21.9418
17.0607
15.4905
14.9823
14.8091
14.7297
14.7003
14.7005
14.7306
14.8109
14.9846
15.4917
17.06
21.9406
38.6775
107.533
432.53
466.623
57.4587
21.6901
16.2917
15.2377
14.9498
14.8451
14.8044
14.7967
14.7964
14.7964
14.7967
14.8049
14.8459
14.9518
15.2416
16.2961
21.6886
57.448
466.555
689.985
992.317
591.436
332.634
189.954
115.647
78.189
58.5175
48.2556
43.7972
43.7399
48.1142
58.5917
78.8404
117.092
190.08
332.713
593.12
983.726
685.739
687.325
987.971
587.758
330.358
188.782
113.378
76.9302
57.7209
47.5886
43.1563
43.0678
47.2664
58.0994
78.3467
116.309
185.12
323.605
589.211
979.902
684.097
685.488
982.6
584.551
328.112
187.689
115.566
78.4393
58.7579
48.3837
43.7887
43.5873
47.3678
57.5565
77.9026
116.059
188.36
328.259
585.047
968.031
682.707
681.568
966.986
570.776
318.379
182.964
114.956
78.2512
58.6999
48.3565
43.7381
43.5729
47.2988
57.8778
76.509
113.688
190.883
332.253
572.418
982.999
686.823
681.427
973.615
581.318
322.13
184.762
113.267
77.1511
58.4445
48.1924
43.5392
43.4522
47.3045
57.8104
76.7796
114.2
189.743
331.231
575.068
970.496
684.933
681.081
979.242
568.006
319.439
185.736
114.15
78.3987
58.2142
48.0987
43.0005
43.3641
47.5129
57.235
76.6226
113.866
185.124
324.102
575.702
978.134
681.899
679.376
974.427
582.463
324.051
189.203
114.86
78.4106
58.3983
48.0603
43.6983
43.2982
47.0144
57.9011
77.1708
114.874
190.036
333.952
585.485
988.453
674.182
680.533
958.288
569.581
329.871
188.734
114.746
77.5754
57.6049
47.491
43.6114
42.8718
47.5573
57.8681
75.8583
111.94
188.561
332.552
572.09
986.708
673.564
676.7
970.112
589.018
328.873
184.269
116.718
79.0933
58.4488
48.3565
43.7011
43.5097
46.983
57.8225
77.0257
112.382
183.841
331.033
588.546
984.542
674.543
680.67
981.65
587.015
325.513
188.324
116.94
79.0695
59.1171
48.2556
43.1227
43.4288
47.2691
57.7739
76.1832
112.668
189.553
328.976
584.193
970.167
673.518
682.728
966.179
583.036
315.218
183.827
116.252
77.8944
59.0675
47.8067
43.5509
43.4229
47.6787
57.7152
77.2218
113.756
189.426
325.824
579.57
983.843
669.819
681.684
985.372
572.939
326.838
188.966
116.172
78.6599
59.1336
48.6247
43.1632
42.7687
47.5071
57.4787
76.9651
111.904
188.745
316.492
571.546
968.028
666.47
678.355
982.587
585.813
332.07
184.812
113.728
77.3134
58.973
48.6513
43.7724
43.1451
47.3224
56.5527
76.7461
111.489
189.32
324.653
567.218
971.039
665.501
685.49
979.887
572.987
325.97
187.613
115.292
77.7154
58.8628
48.5107
43.2845
42.6172
46.918
57.3235
76.2749
113.757
189.133
316.484
579.298
970.019
665.031
686.584
968.112
582.757
337.246
191.234
116.47
77.7844
58.7537
48.4665
43.7737
43.0518
47.9392
58.3633
78.3226
116.768
189.956
319.934
568.553
978.206
668.539
688.724
982.276
593.359
337.807
190.201
115.841
78.196
58.0693
47.8281
43.3378
43.6006
48.1454
58.3335
78.0938
116.476
189.97
322.537
582.486
993.633
664.801
688.766
970.733
589.828
335.881
185.087
113.113
76.9619
58.5006
48.3445
43.7548
43.4664
48.0083
58.1156
77.7447
116.123
190.199
329.059
568.247
993.104
668.926
684.962
985.551
575.992
335.01
188.772
114.097
77.8087
58.3737
48.215
43.6072
42.865
47.8243
57.9322
77.2291
115.427
189.357
328.762
576.749
991.919
671.801
694.335
975.843
580.28
334.235
184.518
113.994
76.576
57.45
47.9667
43.0863
43.349
47.6731
57.6771
75.6756
114.741
188.705
327.06
585.376
990.846
671.423
694.187
989.42
583.694
333.449
189.014
115.592
76.7127
57.5566
47.8574
43.0487
42.769
47.4281
57.6333
76.8506
114.016
187.477
318.968
581.608
987.189
674.218
692.404
975.569
593.062
331.17
184.669
114.99
76.4387
57.3926
47.3586
42.9482
42.8271
46.7035
57.319
75.3695
111.358
186.886
331.013
575.761
982.977
673.425
685.369
992.135
590.813
328.16
188.4
114.642
76.4881
57.6094
47.7171
43.1431
43.0278
46.7758
57.3253
76.2896
113.617
182.206
329.785
557.214
967.109
671.465
688.374
981.283
585.434
317.939
187.398
112.705
77.0384
58.1596
47.3311
42.4816
42.5868
46.5818
57.1305
76.7791
112.063
187.024
330.938
573.745
978.253
669.796
686.969
998.078
574.645
319.433
186.912
114.584
76.4882
58.122
48.0137
43.19
43.3494
46.7375
56.4486
76.6298
113.665
185.728
330.282
580.808
985.811
672.789
683.981
998.901
587.274
318.485
186.328
112.86
76.5905
57.564
47.5754
43.6259
43.4012
47.1536
57.2225
75.3964
112.749
179.706
329.379
567.277
981.165
674.214
676.523
996.196
575.949
320.601
185.59
114.211
77.69
58.2044
48.0252
43.5057
43.3366
46.362
57.0702
75.9272
111.157
182.574
329.254
571.067
965.67
672.562
675.665
994.898
587.597
311.785
184.517
113.523
77.4194
58.0764
47.8981
43.0305
43.3037
47.011
56.638
76.7673
113.038
185.204
329.396
577.217
974.916
672.388
674.734
991.718
585.398
319.795
183.957
111.424
77.0863
57.3805
47.3619
43.2551
43.2841
47.5457
57.4002
76.5253
110.525
180.191
328.759
588.453
957.983
673.463
671.155
989.497
571.923
325.041
181.113
112.91
77.0467
58.0576
47.8235
42.7919
42.6178
47.2382
56.5128
75.9378
113.646
186.102
326.955
588.672
978.174
674.785
673.895
985.735
582.728
319.717
185.787
112.484
76.7537
58.004
47.8007
42.7885
42.7094
46.7561
56.8049
76.659
112.945
184.608
323.761
586.662
991.916
669.334
666.137
981.272
569.929
328.229
185.405
110.917
75.5994
57.8578
47.7003
42.7771
42.7613
46.983
56.9016
76.2801
110.823
181.086
315.123
583.417
988.509
669.763
671.643
967.002
586.589
328.446
184.64
111.112
76.5274
57.9385
47.5231
42.9126
43.03
47.2643
57.4509
75.9783
112.595
185.213
323.211
579.42
985.555
667.416
674.71
971.876
585.266
326.847
183.4
112.676
75.873
57.8502
47.9647
43.2912
43.5876
47.8837
57.3261
74.5512
110.461
183.833
319.713
574.449
973.234
662.692
672.96
974.555
584.118
325.85
179.277
110.964
77.2089
57.8244
47.8718
42.5629
43.4952
47.8652
56.9989
75.8355
111.374
182.785
311.647
561.72
987.107
662.5
673.625
983.962
582.16
324.582
184.036
113.526
77.3018
57.1033
47.8511
43.2519
43.2606
47.472
58.0185
76.7638
112.369
181.663
318.974
564.668
985.36
661.847
666.086
979.401
579.318
322.715
182.663
113.081
77.2752
57.4525
47.5365
43.6062
43.6312
47.9983
57.9592
76.7258
110.313
181.241
311.737
564.6
983.319
664.521
669.57
962.213
574.977
320.416
181.227
112.514
77.0717
57.8307
48.0077
43.1735
42.9942
47.8287
57.8219
76.7592
111.897
178.12
317.97
571.659
980.683
663.75
670.284
964.152
572.221
318.147
176.159
111.709
76.86
57.1738
47.9912
43.6878
43.2631
47.2646
56.986
75.6577
110.049
182.216
310.605
559.317
975.865
660.407
669.381
959.714
568.005
315.648
177.555
111.308
76.6303
57.8222
47.9031
43.6536
43.5062
47.3702
57.3874
76.5896
110.464
181.459
318.095
575.632
966.63
665.786
663.627
962.124
564.067
313.034
178.691
109.508
75.6376
57.1533
47.6868
43.4599
43.3996
47.3623
57.6753
76.5396
110.869
180.051
308.916
572.254
986.419
669.013
666.426
969.336
551.76
306.022
175.199
110.262
76.4628
57.5089
47.1154
43.2372
43.2366
47.5369
57.4895
76.2046
108.969
176.918
310.111
558.582
983.1
670.876
663.357
965.826
553.144
311.826
179.404
111.342
76.4065
57.3552
47.0404
42.6579
42.9715
47.2864
56.724
75.9735
109.851
177.25
308.471
571.276
971.289
667.638
665.783
949.471
551.661
310.494
178.467
110.849
76.1519
56.715
46.8409
42.7279
42.331
46.6515
56.7713
75.7686
110.548
176.133
306.977
568.235
987.253
670.768
661.026
966.617
556.694
308.823
177.153
109.011
75.8315
57.2259
46.91
42.2798
42.4747
46.7361
56.8025
74.723
108.772
175.195
306.662
555.18
982.316
669.902
662.838
961.919
552.271
306.69
176.04
109.867
75.6522
57.0569
47.0927
42.6551
42.7016
46.862
56.6419
74.9984
108.935
174.388
309.175
563.866
968.856
668.808
665.285
957.54
538.807
303.796
172.401
109.108
75.2008
56.7452
46.8489
41.9881
42.4941
46.5995
55.849
74.5588
108.828
173.1
306.223
553.019
974.934
667.771
665.556
942.241
547.125
302.187
173.393
107.621
74.7597
56.4276
46.2459
42.2924
42.3041
46.1716
55.6678
73.4088
108.11
171.759
298.61
557.363
980.383
666.556
665.102
945.479
535.84
299.093
170.101
107.212
73.821
56.0595
46.1391
42.0095
41.6798
46.0874
55.6325
73.1671
106.557
171.878
298.929
548.157
965.81
665.676
663.601
943.918
542.61
297.009
171.426
106.675
73.5684
55.7567
45.7796
41.5373
41.6496
46.0183
55.3248
72.7275
106.504
170.309
298.909
550.168
977.222
660.986
657.766
950.653
530.227
289.082
168.007
105.871
73.0751
55.0125
45.4253
41.6552
41.5735
45.7354
54.7593
72.1986
104.69
167.668
295.338
534.977
962.121
658.396
658.144
936.847
533.548
292.395
168.53
105.764
72.9593
54.9403
45.2281
41.0034
41.1767
45.0238
54.2407
71.79
104.207
165.341
288.537
537.845
973.151
657.175
656.107
947.934
520.641
289.243
167.074
105.236
72.4981
54.0508
44.5842
40.6915
40.5757
44.6276
53.8142
71.1949
103.316
165.823
288.229
543.432
984.622
656.585
654.184
933.123
525.735
283.362
163.658
104.407
71.4679
53.7898
44.3532
40.3524
40.2127
44.1749
53.3775
70.6301
102.156
162.448
286.829
536.791
983.197
653.341
651.66
934.645
524.3
281.923
162.607
103.113
71.2142
53.4646
44.0374
40.0326
39.8031
43.6834
52.854
69.9855
101.256
161.233
279.211
527.21
979.328
651.676
649.301
929.549
519.321
278.482
160.625
102.413
70.7724
53.0783
43.6349
39.5448
39.294
43.1549
52.2677
69.273
100.215
159.306
279.474
518.904
975.282
649.426
645.838
926.247
507.865
274.854
159.168
101.574
70.3646
52.6263
43.1284
38.8523
38.6959
42.5644
51.6691
68.5814
99.3627
156.714
272.294
524.351
962.183
646.585
644.522
923.309
505.869
271.526
157.059
100.539
69.718
52.1945
42.6639
38.3458
38.0827
41.9658
50.9894
67.962
98.4248
155.041
269.46
519.031
970.263
643.009
642.343
922.777
505.351
268.961
155.921
99.8942
69.1636
51.7082
42.1956
37.9078
37.6682
41.4952
50.497
67.2687
97.2643
152.485
264.62
504.376
964.596
636.333
640.794
927.393
500.686
263.677
154.294
98.8883
68.3395
51.0948
41.6673
37.3795
37.1183
40.9455
49.9133
66.65
96.4283
151.169
260.9
502.399
957.85
630.332
639.653
921.648
487.13
260.186
152.873
98.1794
67.7609
50.4987
41.1795
36.956
36.691
40.4554
49.3439
65.9481
95.542
149.29
256.666
494.752
949.894
621.925
638.559
906.616
484.253
257.714
151.6
97.2866
67.0446
49.8522
40.5902
36.4466
36.2204
39.9319
48.7561
65.2462
94.6178
147.795
252.725
485.78
928.833
616.671
635.524
911.422
480.789
254.672
150.218
96.4274
66.3696
49.3456
40.1164
36.0125
35.7739
39.4382
48.138
64.5507
93.7532
146.327
249.159
473.56
924.178
611.156
632.947
903.945
469.216
250.576
148.572
95.4788
65.6655
48.7481
39.6267
35.55
35.2859
38.8826
47.4902
63.7425
92.6954
144.563
245.375
465.871
915.508
604.802
624.965
882.885
464.181
247.383
147.06
94.5323
64.9518
48.1495
39.068
35.0275
34.7646
38.3342
46.8617
62.918
91.527
142.648
241.382
458.5
913.413
597.822
620.583
879.713
451.858
243.66
145.33
93.425
64.1346
47.509
38.5036
34.4709
34.2264
37.7539
46.1582
62.0364
90.3239
140.674
237.466
450.205
899.561
591.306
615.481
869.406
444.307
239.921
143.405
92.1798
63.2255
46.7942
37.8937
33.93
33.7034
37.1935
45.4558
61.0616
88.8914
138.449
233.28
442.45
891.686
587.75
612.203
862.543
437.177
236.105
141.251
90.7231
62.1491
45.9981
37.2721
33.3756
33.1861
36.6229
44.7344
60.0899
87.5302
136.176
228.741
434.13
879.138
581.115
605.765
850.984
428.68
231.384
138.681
89.0718
60.9962
45.1561
36.6342
32.8568
32.6933
36.099
44.0788
59.1796
86.1918
134.04
224.616
425.223
865.587
580.035
596.912
838.198
420.143
226.753
135.994
87.2666
59.6941
44.2203
35.9425
32.2996
32.1969
35.5749
43.3649
58.1326
84.6862
131.882
220.881
417.786
853.556
574.636
592.413
819.504
410.458
221.447
132.871
85.2753
58.3655
43.2902
35.2574
31.752
31.7117
35.097
42.6913
57.1321
83.2195
129.71
216.72
408.868
839.097
565.943
590.979
810.593
402.217
216.094
129.612
83.1108
56.887
42.2727
34.519
31.1561
31.1491
34.4678
41.898
56.0236
81.5753
127.147
212.067
399.486
824.985
559.441
585.888
798.549
391.275
210.035
126.064
80.9007
55.4589
41.2799
33.7707
30.5243
30.5235
33.7246
41.0406
54.8485
79.802
124.346
207.11
390.239
812.961
551.393
576.535
783.799
379.889
203.6
122.277
78.4568
53.8672
40.1895
32.9544
29.8411
29.866
32.9963
40.1299
53.5957
77.9256
121.229
201.22
378.505
796.761
544.993
554.36
766.625
366.367
196.176
118.011
75.8515
52.1632
39.022
32.0953
29.1176
29.1508
32.1855
39.1111
52.1532
75.7421
117.834
195.206
367.27
779.542
533.857
539.157
746.746
351.781
188.093
113.212
72.887
50.3045
37.7976
31.1903
28.3404
28.3633
31.2666
37.9595
50.5851
73.4137
114.151
188.663
354.103
757.727
512.085
517.808
721.716
334.99
179.51
108.248
69.8093
48.3594
36.4992
30.2299
27.5264
27.5632
30.348
36.7347
48.8501
70.8654
110.179
181.488
340.001
733.505
491.759
498.802
693.798
316.968
169.978
102.649
66.3929
46.243
35.1114
29.2141
26.664
26.6974
29.345
35.437
47.0007
68.0336
105.691
173.714
324.314
705.828
469.852
473.23
661.582
297.802
160.037
96.7863
62.8445
44.0458
33.6783
28.1854
25.8098
25.8534
28.3525
34.1105
45.0634
65.0329
100.938
165.766
308.502
674.74
449.328
452.142
628.231
279.416
149.776
90.4749
59.0122
41.724
32.1771
27.102
24.9118
24.9671
27.3079
32.6758
42.8997
61.6301
95.4994
157.089
291.455
640.716
432.248
430.963
590.273
260.482
139.388
84.0971
55.1333
39.352
30.6325
25.9889
23.9889
24.057
26.2321
31.1947
40.6197
57.9616
89.6581
147.937
273.416
602.918
416.577
409.279
548.168
241.321
128.801
77.6271
51.2213
36.9251
29.0274
24.8153
23.0003
23.0688
25.057
29.575
38.1389
53.9116
83.0733
137.981
254.041
560.462
397.002
384.872
501.57
220.434
117.765
71.1309
47.3349
34.4861
27.3893
23.6109
21.9891
22.0645
23.8693
27.9452
35.6176
49.6843
75.8661
126.095
232.38
513.818
376.265
357.35
450.037
198.35
106.416
64.4639
43.2577
31.9244
25.6879
22.3643
20.9372
21.0109
22.6168
26.2292
33.0067
45.407
68.5078
113.127
208.522
461.017
350.124
330.651
397.332
174.981
94.3027
57.7379
39.3179
29.4669
24.0356
21.1406
19.8998
19.9694
21.3758
24.5342
30.4384
41.1983
61.2506
100.012
183.973
408.447
322.365
307.853
346.78
153.021
83.0194
51.4332
35.5737
27.0946
22.4284
19.9457
18.8835
18.946
20.1542
22.8616
27.9102
37.0876
54.2179
87.8936
160.707
358.339
307.405
293.693
299.271
131.879
72.1965
45.5879
32.1473
24.9246
20.9549
18.8473
17.9467
17.9985
19.0187
21.3101
25.5873
33.3535
47.7456
75.9441
138.782
310.634
304.214