/*--------------------------------*- C++ -*----------------------------------*\
  =========                 |
  \\      /  F ield         | OpenFOAM: The Open Source CFD Toolbox
   \\    /   O peration     | Website:  https://openfoam.org
    \\  /    A nd           | Version:  6
     \\/     M anipulation  |
\*---------------------------------------------------------------------------*/
FoamFile
{
    version     2.0;
    format      ascii;
    class       volScalarField;
    location    "17";
    object      k;
}
// * * * * * * * * * * * * * * * * * * * * * * * * * * * * * * * * * * * * * //

dimensions      [0 2 -2 0 0 0 0];

internalField   nonuniform List<scalar> 
10000
(
0.201151
0.514785
0.461414
0.403721
0.365149
0.345666
0.33698
0.333868
0.333244
0.333893
0.334955
0.33637
0.338921
0.344302
0.354671
0.375121
0.4121
0.465487
0.517107
0.203082
0.200781
0.514393
0.462058
0.404242
0.365514
0.346701
0.337789
0.334642
0.333805
0.334515
0.33562
0.336975
0.339448
0.345814
0.355787
0.375194
0.412214
0.463915
0.516801
0.202588
0.201028
0.514447
0.462554
0.404602
0.366124
0.34715
0.339061
0.336074
0.333962
0.3347
0.335902
0.337217
0.339517
0.345444
0.355446
0.375847
0.412467
0.464316
0.516606
0.202282
0.201164
0.516836
0.463159
0.405726
0.366649
0.346827
0.337635
0.334552
0.334001
0.335218
0.337768
0.338903
0.339793
0.344736
0.35533
0.375704
0.412464
0.464703
0.516305
0.201261
0.202447
0.518759
0.462404
0.40579
0.366784
0.347658
0.338706
0.336089
0.334381
0.33621
0.337125
0.338248
0.33956
0.344583
0.35532
0.376245
0.412655
0.466573
0.515375
0.202109
0.201825
0.517563
0.463923
0.405775
0.36671
0.34653
0.337178
0.33499
0.333794
0.334441
0.335538
0.336968
0.339394
0.344584
0.355222
0.376138
0.412673
0.467096
0.516702
0.201758
0.200388
0.518035
0.462198
0.405327
0.366379
0.345787
0.336777
0.333956
0.333743
0.33412
0.335202
0.336658
0.339149
0.344416
0.355191
0.376135
0.411146
0.465076
0.516086
0.202394
0.201542
0.51699
0.463827
0.40532
0.366126
0.346288
0.337014
0.334999
0.334991
0.334238
0.335295
0.33674
0.339162
0.344471
0.355183
0.376102
0.412099
0.466515
0.516183
0.202517
0.2021
0.51811
0.463329
0.405059
0.366012
0.345289
0.33688
0.33302
0.332535
0.33354
0.335031
0.336526
0.338852
0.3445
0.355103
0.375962
0.411316
0.465779
0.516712
0.202463
0.200638
0.516428
0.460663
0.404613
0.36589
0.345204
0.337202
0.33299
0.332227
0.333418
0.335156
0.336622
0.338636
0.344677
0.355154
0.37575
0.411443
0.4648
0.515076
0.202071
0.200839
0.516922
0.462014
0.404244
0.365477
0.344988
0.336508
0.333723
0.331884
0.333405
0.336204
0.337753
0.338379
0.343399
0.355302
0.375292
0.409316
0.461661
0.51445
0.201647
0.201576
0.516983
0.461784
0.402769
0.365464
0.344782
0.335396
0.332089
0.331616
0.33257
0.333847
0.335356
0.337832
0.342863
0.353915
0.374403
0.408208
0.46168
0.513926
0.200495
0.201559
0.516414
0.460204
0.403161
0.365626
0.345091
0.335788
0.333464
0.331984
0.333799
0.334811
0.335177
0.337674
0.342513
0.353435
0.373837
0.407686
0.46228
0.513695
0.200349
0.200903
0.51615
0.461847
0.403327
0.365621
0.345331
0.336012
0.332444
0.331471
0.332264
0.334525
0.335272
0.338833
0.342559
0.35344
0.373324
0.407781
0.462568
0.514197
0.200174
0.201457
0.514699
0.462123
0.403942
0.365586
0.345816
0.336755
0.333726
0.331862
0.332242
0.333533
0.335072
0.337387
0.342141
0.353859
0.372776
0.408732
0.461249
0.514177
0.20127
0.200761
0.51522
0.461979
0.402727
0.365795
0.346244
0.338036
0.334471
0.332275
0.332518
0.333488
0.33485
0.338045
0.341802
0.352743
0.372188
0.408148
0.463621
0.513991
0.201145
0.201445
0.514099
0.462053
0.403602
0.366071
0.34705
0.337298
0.334523
0.332914
0.333221
0.335207
0.336175
0.336985
0.341559
0.352113
0.372096
0.409599
0.465232
0.515665
0.20104
0.201906
0.515679
0.460744
0.404185
0.366351
0.347298
0.338298
0.334642
0.333892
0.333326
0.334198
0.335322
0.337043
0.341801
0.353001
0.372008
0.407878
0.464697
0.515357
0.201862
0.202511
0.517393
0.463779
0.405039
0.366932
0.347436
0.337725
0.33371
0.332886
0.333571
0.334585
0.33654
0.337312
0.341978
0.352503
0.372384
0.409126
0.464635
0.515224
0.201835
0.202955
0.518751
0.464675
0.406678
0.367519
0.347875
0.339073
0.334026
0.333132
0.334932
0.335906
0.335407
0.337542
0.342955
0.352528
0.372978
0.410663
0.464597
0.513628
0.201734
0.202313
0.517842
0.464265
0.406729
0.367299
0.348121
0.338442
0.334478
0.333242
0.333235
0.334371
0.335405
0.33874
0.342807
0.353038
0.372948
0.411285
0.464916
0.515428
0.201845
0.201742
0.517629
0.464463
0.407142
0.368294
0.348966
0.340273
0.336838
0.335532
0.333909
0.334193
0.3354
0.337819
0.343522
0.352899
0.372961
0.411445
0.464647
0.515438
0.201979
0.201784
0.515698
0.464068
0.407108
0.36848
0.349317
0.340334
0.336751
0.33567
0.335394
0.335984
0.337341
0.338138
0.342642
0.352968
0.373534
0.411752
0.466189
0.514366
0.201815
0.202115
0.516262
0.464479
0.407508
0.369096
0.349678
0.34039
0.336543
0.335212
0.334111
0.334611
0.336771
0.339217
0.342961
0.353107
0.373262
0.410722
0.465416
0.516068
0.201676
0.202074
0.515452
0.464138
0.407426
0.369409
0.349728
0.339953
0.335705
0.334191
0.333801
0.334208
0.335707
0.338274
0.342917
0.353755
0.374075
0.412462
0.467485
0.516765
0.202816
0.201979
0.515783
0.464641
0.407517
0.370094
0.351028
0.340454
0.335989
0.334361
0.334012
0.33444
0.335791
0.339422
0.343241
0.353669
0.374326
0.412255
0.467205
0.515372
0.203275
0.201828
0.517103
0.464639
0.406811
0.370187
0.351137
0.341918
0.337673
0.335965
0.334437
0.334718
0.335805
0.338207
0.343278
0.353836
0.374742
0.412156
0.467068
0.516956
0.203464
0.202926
0.51695
0.465159
0.408007
0.370501
0.350443
0.340951
0.336285
0.334659
0.334509
0.334897
0.33607
0.33865
0.34462
0.354198
0.374652
0.410797
0.465146
0.518603
0.204128
0.203216
0.516223
0.463708
0.406462
0.370571
0.350495
0.341644
0.336301
0.334636
0.334849
0.33648
0.338046
0.340332
0.344593
0.354267
0.374443
0.412292
0.46685
0.518539
0.20384
0.203604
0.518451
0.465923
0.408042
0.370884
0.350471
0.341911
0.336586
0.335019
0.335981
0.335499
0.337293
0.339719
0.344002
0.354456
0.375093
0.412459
0.466816
0.518211
0.203649
0.203257
0.517937
0.465526
0.408028
0.370828
0.350325
0.340347
0.337422
0.335908
0.335477
0.335364
0.337517
0.338997
0.34389
0.354464
0.375126
0.411749
0.464348
0.516412
0.20254
0.202888
0.517476
0.46392
0.407086
0.370943
0.350755
0.340076
0.335771
0.334074
0.334026
0.335766
0.337064
0.339065
0.344074
0.354492
0.374327
0.410037
0.464888
0.516921
0.202787
0.203222
0.5185
0.465699
0.408988
0.371121
0.350213
0.339952
0.3357
0.333809
0.33352
0.334091
0.335589
0.339692
0.34491
0.355263
0.374197
0.409918
0.464426
0.51728
0.202768
0.20278
0.518031
0.465323
0.408755
0.371152
0.350519
0.340326
0.337267
0.33431
0.333714
0.334042
0.335024
0.337469
0.342706
0.354036
0.373586
0.409538
0.465121
0.516863
0.203258
0.202279
0.517771
0.465034
0.407826
0.371233
0.351252
0.34014
0.336892
0.335522
0.335289
0.335703
0.335328
0.337359
0.342344
0.353334
0.372969
0.408762
0.465079
0.517282
0.20316
0.202215
0.517232
0.46442
0.408775
0.370961
0.350256
0.339886
0.335668
0.333944
0.333453
0.334375
0.335668
0.33776
0.342376
0.352243
0.372174
0.408064
0.462846
0.516072
0.202884
0.201806
0.516053
0.461961
0.406757
0.37053
0.349925
0.339904
0.335904
0.334101
0.333318
0.33307
0.333512
0.335358
0.340124
0.350594
0.371385
0.407337
0.463276
0.516481
0.202786
0.202352
0.517411
0.463346
0.407043
0.370483
0.350193
0.340278
0.336768
0.336093
0.33545
0.333755
0.333771
0.335395
0.340014
0.350366
0.371021
0.406794
0.462074
0.515862
0.201824
0.203098
0.516914
0.464381
0.406408
0.370364
0.350882
0.340305
0.338056
0.33518
0.335199
0.335205
0.334331
0.335686
0.339934
0.350237
0.370842
0.407157
0.462921
0.51441
0.201591
0.203182
0.515747
0.464274
0.40735
0.37004
0.349727
0.339871
0.336998
0.335653
0.334776
0.334759
0.335591
0.337107
0.340167
0.350056
0.370802
0.405898
0.460398
0.513508
0.20094
0.203279
0.517415
0.463671
0.406273
0.369791
0.349304
0.339618
0.335636
0.333925
0.333383
0.333456
0.334203
0.335815
0.340063
0.349922
0.370472
0.406381
0.460534
0.513117
0.200643
0.203247
0.517777
0.463191
0.407195
0.369853
0.349546
0.34097
0.337552
0.335544
0.333902
0.333806
0.334443
0.33605
0.340202
0.349822
0.369864
0.405149
0.459543
0.512211
0.200395
0.202227
0.517297
0.463068
0.406592
0.369462
0.349661
0.339721
0.33665
0.334457
0.334205
0.334467
0.336402
0.338089
0.341799
0.350014
0.369634
0.404927
0.459858
0.512402
0.200046
0.201776
0.515244
0.460562
0.40589
0.369147
0.349076
0.339456
0.335574
0.334283
0.334468
0.335516
0.335999
0.337539
0.341375
0.349895
0.369386
0.405111
0.459463
0.512994
0.19953
0.201148
0.514188
0.459758
0.404932
0.368741
0.348725
0.340487
0.335721
0.334512
0.335703
0.334392
0.335008
0.336838
0.341046
0.350285
0.369184
0.404518
0.457535
0.512824
0.199616
0.200613
0.513149
0.45891
0.403837
0.368403
0.348666
0.339258
0.33577
0.334443
0.334896
0.334177
0.335593
0.338101
0.340196
0.349508
0.368935
0.40347
0.458567
0.5125
0.199438
0.20025
0.512494
0.459056
0.403605
0.368026
0.34791
0.339212
0.336818
0.335201
0.333702
0.334741
0.335073
0.336774
0.33983
0.349972
0.368546
0.403028
0.45797
0.512287
0.199841
0.200128
0.512137
0.458514
0.403074
0.367726
0.347696
0.338796
0.335121
0.333624
0.332996
0.33307
0.33341
0.335187
0.340138
0.348759
0.367729
0.401993
0.457119
0.511761
0.199675
0.200014
0.512555
0.457691
0.402429
0.367173
0.347794
0.339759
0.336994
0.335084
0.333482
0.333407
0.33356
0.334887
0.338783
0.347733
0.367033
0.401549
0.456685
0.511477
0.199377
0.19973
0.51214
0.456853
0.401848
0.366532
0.347672
0.339899
0.336474
0.335116
0.333848
0.333793
0.334115
0.335475
0.339248
0.347874
0.366586
0.40099
0.455548
0.510884
0.198952
0.199342
0.510318
0.455418
0.401062
0.36643
0.347699
0.339117
0.335728
0.334441
0.334447
0.335901
0.336479
0.337702
0.340895
0.348502
0.366306
0.40087
0.455161
0.510639
0.198646
0.198679
0.510038
0.454194
0.400448
0.366742
0.347862
0.339372
0.336152
0.334988
0.334803
0.335796
0.336249
0.337275
0.339749
0.348381
0.366199
0.40044
0.454383
0.509
0.198428
0.198171
0.50875
0.453193
0.399799
0.366438
0.348168
0.34002
0.337141
0.337339
0.336992
0.336506
0.336608
0.337627
0.340694
0.34776
0.365928
0.399093
0.452416
0.508574
0.197569
0.197275
0.507477
0.451404
0.398639
0.365878
0.348499
0.340605
0.337696
0.337702
0.337395
0.336356
0.336304
0.337181
0.340068
0.347668
0.365192
0.398539
0.451981
0.50763
0.19777
0.19724
0.506509
0.450405
0.397663
0.365562
0.349286
0.342812
0.339975
0.338783
0.33864
0.337175
0.337038
0.337796
0.340439
0.347724
0.364546
0.397866
0.45134
0.507992
0.197951
0.197093
0.50634
0.448974
0.396989
0.36547
0.350582
0.343291
0.339908
0.339794
0.339534
0.339282
0.338636
0.338914
0.342173
0.348931
0.364447
0.396899
0.449291
0.507636
0.197836
0.196822
0.50562
0.44809
0.396188
0.365113
0.350925
0.344552
0.34069
0.339537
0.339188
0.339226
0.339782
0.339536
0.341572
0.348075
0.364206
0.396215
0.448091
0.506148
0.19743
0.196014
0.503792
0.446939
0.395622
0.365442
0.351614
0.345707
0.343415
0.341867
0.340445
0.340382
0.341062
0.340683
0.342228
0.348261
0.363413
0.395395
0.447107
0.505936
0.19694
0.195788
0.503515
0.445867
0.394916
0.364996
0.352157
0.346674
0.344316
0.343158
0.343095
0.34346
0.342696
0.341977
0.344337
0.349722
0.363273
0.39452
0.445844
0.504987
0.196668
0.195226
0.502569
0.444444
0.394046
0.365
0.352909
0.348012
0.345931
0.344199
0.34367
0.343953
0.343621
0.343492
0.344897
0.349195
0.362804
0.393464
0.444152
0.503863
0.196034
0.194381
0.501592
0.442916
0.39337
0.365424
0.353627
0.349005
0.347299
0.346575
0.346369
0.346223
0.345995
0.345461
0.345845
0.35034
0.362415
0.39267
0.443076
0.502798
0.195775
0.194098
0.500978
0.441725
0.392639
0.364726
0.354522
0.350277
0.348832
0.348405
0.348158
0.347725
0.347088
0.346219
0.346285
0.349466
0.361951
0.391596
0.441515
0.501397
0.195153
0.193362
0.499557
0.43995
0.39157
0.364413
0.355378
0.351482
0.350164
0.349681
0.349369
0.348954
0.348269
0.347132
0.346394
0.349687
0.361653
0.390512
0.440082
0.500723
0.194546
0.192777
0.498487
0.438274
0.390521
0.363949
0.355819
0.352399
0.351252
0.350843
0.350567
0.350156
0.349515
0.348639
0.347287
0.350267
0.361619
0.389397
0.438447
0.499263
0.193812
0.192042
0.497309
0.436875
0.389456
0.363392
0.356159
0.353318
0.352373
0.352092
0.351897
0.351531
0.350884
0.350026
0.3495
0.351791
0.361894
0.388146
0.436668
0.498428
0.193102
0.191135
0.495636
0.434596
0.387809
0.362535
0.355831
0.35399
0.353396
0.353251
0.353144
0.35283
0.352202
0.351261
0.350053
0.350884
0.361474
0.386662
0.434277
0.496195
0.192149
0.190242
0.493982
0.432344
0.386093
0.361805
0.354812
0.354591
0.354491
0.354537
0.354507
0.354218
0.353556
0.352524
0.351514
0.351879
0.360786
0.384779
0.431822
0.494859
0.191135
0.189659
0.492688
0.4301
0.383639
0.361254
0.356345
0.355441
0.355644
0.355905
0.355957
0.355666
0.354921
0.353691
0.352158
0.351169
0.359917
0.382892
0.429294
0.49256
0.18998
0.188652
0.490943
0.427283
0.380648
0.357958
0.354076
0.355406
0.35663
0.35731
0.357459
0.357104
0.35619
0.354684
0.352762
0.351482
0.35888
0.380567
0.426531
0.491114
0.189218
0.187617
0.489186
0.424416
0.377931
0.357001
0.352001
0.355109
0.357482
0.358539
0.35881
0.358452
0.35742
0.355646
0.353224
0.351459
0.35739
0.377757
0.423491
0.488716
0.187986
0.186102
0.486732
0.420916
0.375694
0.356839
0.351757
0.354215
0.358217
0.359734
0.360134
0.359736
0.358556
0.356482
0.353431
0.35062
0.355269
0.373981
0.419769
0.48628
0.186662
0.184566
0.483918
0.417021
0.375556
0.357266
0.351862
0.354954
0.359331
0.361088
0.361579
0.361157
0.359811
0.357316
0.353357
0.349463
0.352148
0.369233
0.416322
0.484272
0.185573
0.182856
0.480841
0.412195
0.370635
0.354518
0.352181
0.35752
0.360909
0.362629
0.363144
0.362683
0.361193
0.358294
0.352764
0.34842
0.350018
0.365584
0.412469
0.481742
0.183979
0.180696
0.476983
0.407413
0.367736
0.352828
0.353348
0.358024
0.362022
0.364066
0.364733
0.364306
0.362788
0.359978
0.355549
0.350638
0.350494
0.364497
0.408279
0.478203
0.181869
0.178203
0.472463
0.402084
0.364395
0.352251
0.352123
0.35823
0.363054
0.365511
0.36637
0.365971
0.364348
0.361284
0.356121
0.35023
0.34887
0.363544
0.403121
0.474306
0.179427
0.174907
0.46648
0.395681
0.360224
0.34937
0.349854
0.356952
0.36368
0.366772
0.367902
0.367571
0.365878
0.362667
0.357604
0.350648
0.347792
0.359974
0.397344
0.468551
0.175617
0.171428
0.460024
0.388749
0.356072
0.346593
0.349131
0.358568
0.36445
0.367797
0.369192
0.368964
0.367208
0.363779
0.358316
0.350743
0.346203
0.356473
0.390681
0.462365
0.171606
0.166912
0.451836
0.380632
0.351313
0.343317
0.34835
0.356679
0.363434
0.367777
0.369798
0.369801
0.368026
0.364443
0.358867
0.350955
0.344973
0.352885
0.382846
0.453701
0.166003
0.161588
0.441675
0.371809
0.346762
0.341619
0.348195
0.358067
0.362889
0.366567
0.369243
0.369667
0.367822
0.363926
0.358449
0.350793
0.3458
0.348499
0.373927
0.443062
0.159841
0.156018
0.430432
0.362847
0.342113
0.341451
0.348292
0.35632
0.363957
0.366706
0.36852
0.368555
0.366608
0.362809
0.35698
0.349548
0.343538
0.343529
0.364671
0.431181
0.15352
0.150368
0.418479
0.354135
0.337796
0.343284
0.349385
0.356978
0.36308
0.366719
0.368774
0.369486
0.367221
0.36343
0.357696
0.350242
0.342867
0.339759
0.355198
0.417231
0.14703
0.14464
0.405532
0.346507
0.334143
0.34223
0.352299
0.360091
0.364452
0.367556
0.369311
0.369479
0.368152
0.366035
0.361105
0.353721
0.342155
0.336182
0.346541
0.403479
0.142047
0.139748
0.392947
0.341081
0.333023
0.342257
0.353289
0.360743
0.36544
0.369496
0.371268
0.37143
0.37
0.36677
0.361837
0.354886
0.344891
0.335223
0.339949
0.389678
0.138248
0.136142
0.377924
0.335562
0.335601
0.346898
0.3557
0.361586
0.366299
0.369044
0.370522
0.370757
0.369572
0.366738
0.362604
0.35684
0.347019
0.336049
0.335237
0.37684
0.136775
0.135927
0.365187
0.332573
0.33689
0.349088
0.358084
0.364022
0.36747
0.370675
0.371879
0.371493
0.370987
0.368339
0.363415
0.358054
0.350831
0.340148
0.333964
0.365661
0.136956
0.137928
0.355039
0.332413
0.340454
0.351493
0.358877
0.36394
0.36835
0.370588
0.371443
0.371892
0.370543
0.367719
0.364055
0.36005
0.352914
0.342165
0.333774
0.356041
0.139445
0.142945
0.348119
0.334002
0.343503
0.353693
0.359546
0.365104
0.368267
0.370133
0.371629
0.371762
0.370859
0.368874
0.365814
0.360851
0.355301
0.345682
0.335205
0.348547
0.143783
0.148859
0.342693
0.337238
0.347871
0.356578
0.361812
0.364874
0.367661
0.369915
0.370966
0.371086
0.370333
0.368417
0.36615
0.362706
0.35757
0.348661
0.33718
0.342601
0.149237
0.156515
0.337633
0.33932
0.35098
0.358898
0.363258
0.366165
0.367799
0.369419
0.370067
0.370166
0.369764
0.368743
0.366709
0.363807
0.359591
0.35221
0.34061
0.337973
0.157722
0.166646
0.33445
0.343616
0.3555
0.361832
0.364581
0.36674
0.367968
0.368506
0.368729
0.368768
0.368599
0.368121
0.367106
0.365345
0.361752
0.355513
0.343776
0.334665
0.166159
0.177493
0.333083
0.348636
0.359774
0.364716
0.366634
0.367479
0.36789
0.367974
0.367995
0.368015
0.368016
0.367922
0.367414
0.366823
0.364872
0.36004
0.349037
0.333307
0.178191
0.192141
0.333619
0.355339
0.364889
0.368003
0.368654
0.368467
0.368072
0.36784
0.367732
0.367736
0.367829
0.367964
0.368155
0.368567
0.36798
0.364825
0.355195
0.33354
0.191623
0.208177
0.340141
0.363841
0.3704
0.371335
0.370631
0.369606
0.368675
0.368147
0.367908
0.367925
0.368228
0.368914
0.369776
0.370634
0.371332
0.370459
0.363972
0.340068
0.208114
0.226265
0.349676
0.373569
0.376169
0.374703
0.37271
0.371016
0.369774
0.368991
0.368614
0.3686
0.36895
0.369674
0.370848
0.372529
0.374554
0.376111
0.373663
0.350166
0.226632
0.247123
0.365852
0.384696
0.381734
0.377522
0.374252
0.372
0.370545
0.369671
0.369263
0.369261
0.36967
0.370543
0.372002
0.374251
0.377523
0.38174
0.384685
0.365549
0.246696
0.268321
0.386021
0.395863
0.386256
0.379368
0.375248
0.37274
0.371216
0.370342
0.369946
0.369943
0.370334
0.371201
0.372718
0.375238
0.379379
0.386333
0.396056
0.386467
0.268719
0.291466
0.411748
0.405335
0.388503
0.380084
0.37569
0.373246
0.371844
0.371085
0.370756
0.370755
0.371085
0.371841
0.373231
0.375675
0.380059
0.388478
0.40533
0.411537
0.291183
0.314446
0.435178
0.409374
0.388944
0.380062
0.37576
0.373589
0.372478
0.371932
0.371713
0.371715
0.371938
0.372487
0.373588
0.375758
0.380045
0.388937
0.409373
0.43517
0.314645
0.33779
0.44509
0.407066
0.385686
0.378059
0.375032
0.37375
0.373184
0.372947
0.372863
0.372865
0.372954
0.373197
0.373762
0.375039
0.378059
0.38567
0.407041
0.445058
0.337881
0.364506
0.421737
0.386505
0.377506
0.375374
0.374621
0.374345
0.374271
0.374254
0.374252
0.374252
0.374254
0.374271
0.374345
0.374622
0.375376
0.37751
0.38651
0.421772
0.36449
0.542828
1.09295
0.914056
0.729028
0.589864
0.507766
0.461748
0.436287
0.422555
0.416054
0.415017
0.419675
0.432209
0.457292
0.504405
0.589057
0.726314
0.91269
1.09093
0.542885
0.537517
1.08632
0.911781
0.729035
0.586737
0.506972
0.462192
0.437069
0.423361
0.416477
0.415561
0.419829
0.432292
0.457121
0.502755
0.587755
0.724647
0.91061
1.09003
0.538388
0.539898
1.09683
0.906193
0.729786
0.589573
0.507756
0.462268
0.43676
0.423154
0.416595
0.415284
0.419812
0.43242
0.456897
0.503302
0.586685
0.723268
0.909296
1.08983
0.541427
0.540782
1.09807
0.91861
0.729934
0.586091
0.507717
0.462318
0.436448
0.423038
0.416461
0.41564
0.419898
0.432116
0.456675
0.502501
0.581956
0.721236
0.906473
1.08612
0.539765
0.53485
1.09286
0.915956
0.728844
0.588731
0.50852
0.462404
0.436555
0.422672
0.416179
0.415414
0.420102
0.431959
0.456177
0.500645
0.581905
0.719462
0.897083
1.08307
0.535832
0.539374
1.08493
0.903044
0.720281
0.590059
0.509133
0.462682
0.436535
0.423016
0.416416
0.415305
0.419867
0.431676
0.455929
0.500477
0.581173
0.717933
0.906558
1.0746
0.534338
0.542208
1.08853
0.90647
0.722951
0.593195
0.509876
0.462726
0.43667
0.422604
0.416308
0.415132
0.419703
0.431352
0.455539
0.499823
0.581475
0.70836
0.903288
1.07667
0.534424
0.54204
1.08373
0.907068
0.723291
0.590373
0.509324
0.463097
0.437032
0.42272
0.416155
0.414923
0.419501
0.431259
0.455387
0.499378
0.58008
0.709442
0.901226
1.08435
0.533593
0.541563
1.09399
0.908862
0.728322
0.59416
0.508612
0.463393
0.437331
0.422929
0.415958
0.414625
0.419247
0.431224
0.455145
0.498902
0.577957
0.707831
0.88829
1.08409
0.532388
0.536441
1.08295
0.914881
0.727252
0.594107
0.509789
0.464254
0.438139
0.423129
0.415832
0.414368
0.419131
0.431009
0.455034
0.498352
0.573698
0.710984
0.894395
1.08145
0.526676
0.540787
1.08144
0.91444
0.72305
0.590598
0.509857
0.464822
0.438706
0.423818
0.416362
0.414441
0.418891
0.430847
0.454922
0.498853
0.57585
0.709592
0.897477
1.0797
0.526544
0.537392
1.08075
0.905794
0.731545
0.593742
0.510884
0.465483
0.439061
0.423918
0.416382
0.41449
0.418607
0.43052
0.454769
0.499644
0.577289
0.700281
0.889663
1.07209
0.52653
0.543114
1.08784
0.910453
0.730703
0.589991
0.511152
0.466087
0.439398
0.424079
0.41642
0.414631
0.418691
0.430475
0.454588
0.498426
0.574602
0.705452
0.904089
1.07466
0.528276
0.543342
1.0844
0.903135
0.731473
0.593198
0.512052
0.466084
0.439362
0.424315
0.416731
0.414974
0.418978
0.430398
0.454648
0.499924
0.578797
0.709826
0.902855
1.07827
0.53348
0.545574
1.10286
0.911735
0.731336
0.589733
0.512296
0.465703
0.438926
0.4239
0.416352
0.414548
0.418612
0.430267
0.45439
0.499353
0.578552
0.704221
0.902354
1.07419
0.534233
0.551898
1.10411
0.91789
0.731449
0.593189
0.512081
0.465783
0.439446
0.423825
0.416779
0.414777
0.418328
0.430187
0.454318
0.498925
0.575483
0.7103
0.899938
1.08709
0.534397
0.551066
1.10517
0.924601
0.729109
0.594751
0.511759
0.464668
0.438416
0.423812
0.416281
0.414276
0.418289
0.430167
0.454138
0.497718
0.575796
0.707505
0.898464
1.08889
0.530218
0.549643
1.10235
0.922091
0.721314
0.590401
0.511013
0.464411
0.437952
0.423065
0.415806
0.414243
0.418317
0.430199
0.454228
0.498135
0.575586
0.700911
0.895261
1.08742
0.536448
0.549363
1.1024
0.920362
0.728587
0.592112
0.510707
0.464261
0.438482
0.423113
0.415941
0.41431
0.418375
0.43021
0.454284
0.498127
0.577473
0.706707
0.885724
1.0837
0.534747
0.543613
1.10057
0.908457
0.72466
0.589657
0.509472
0.464044
0.437657
0.423111
0.416425
0.414769
0.418451
0.430225
0.454187
0.498707
0.580145
0.712774
0.896514
1.0762
0.533138
0.543296
1.09018
0.90671
0.721603
0.585914
0.508389
0.463494
0.437799
0.423422
0.416074
0.414443
0.418506
0.430104
0.454256
0.499684
0.579407
0.704777
0.886318
1.07816
0.528397
0.542831
1.09259
0.903508
0.711964
0.583699
0.507984
0.463767
0.436686
0.42252
0.416313
0.414791
0.418391
0.430132
0.454067
0.499268
0.57877
0.710434
0.893212
1.0821
0.531345
0.541442
1.09117
0.90511
0.711699
0.58269
0.507316
0.463024
0.436583
0.422429
0.416062
0.414402
0.418034
0.429787
0.453658
0.498882
0.574892
0.707418
0.889249
1.07315
0.533953
0.53676
1.08455
0.90079
0.708933
0.581287
0.506576
0.462289
0.435472
0.421769
0.415623
0.414079
0.417955
0.429782
0.453574
0.498813
0.578009
0.700924
0.884627
1.08242
0.532691
0.536202
1.09001
0.894876
0.70375
0.579826
0.505286
0.46095
0.43508
0.421727
0.415282
0.413732
0.418035
0.429426
0.45339
0.498278
0.575784
0.704594
0.900872
1.09029
0.536968
0.53487
1.08285
0.8849
0.704167
0.57886
0.504587
0.459807
0.434717
0.421889
0.414914
0.413366
0.417664
0.429416
0.453176
0.497417
0.579024
0.706201
0.899398
1.08913
0.535548
0.530776
1.08596
0.895794
0.705715
0.577851
0.503989
0.459709
0.434585
0.421871
0.41454
0.41324
0.417459
0.429299
0.453126
0.497984
0.578587
0.710995
0.898973
1.08727
0.53507
0.534281
1.09019
0.901934
0.71039
0.576732
0.502569
0.459821
0.434331
0.421281
0.414049
0.413054
0.417833
0.429568
0.452819
0.496937
0.574379
0.709187
0.887943
1.08392
0.53028
0.536392
1.08755
0.891487
0.703668
0.575638
0.50135
0.458345
0.434125
0.420994
0.41407
0.413274
0.418013
0.429702
0.452634
0.495509
0.575495
0.702433
0.893916
1.07693
0.533212
0.534818
1.07875
0.89289
0.711697
0.576055
0.500163
0.457227
0.434167
0.420398
0.41407
0.413762
0.418326
0.429956
0.452494
0.495444
0.574451
0.703167
0.89242
1.0839
0.531535
0.532757
1.07813
0.889441
0.709745
0.577092
0.499899
0.457072
0.434326
0.420719
0.414173
0.413803
0.418424
0.430003
0.452153
0.494188
0.569592
0.698765
0.882175
1.08053
0.529621
0.53023
1.08078
0.886974
0.708607
0.574536
0.499322
0.45683
0.433056
0.420314
0.414182
0.413849
0.418505
0.430058
0.452085
0.494181
0.572113
0.700167
0.883646
1.07905
0.524751
0.535361
1.07678
0.887433
0.707108
0.576091
0.49935
0.455832
0.432183
0.41962
0.414484
0.413788
0.418426
0.429905
0.451995
0.494091
0.573035
0.702747
0.885693
1.07865
0.527618
0.534667
1.0859
0.889993
0.705487
0.572535
0.49859
0.45569
0.432594
0.419961
0.414094
0.413606
0.418231
0.429549
0.451872
0.493984
0.572167
0.701064
0.877922
1.06917
0.523115
0.532663
1.08211
0.882669
0.704006
0.573939
0.498705
0.455603
0.431726
0.419239
0.414438
0.413243
0.41784
0.429953
0.451827
0.493619
0.570925
0.694348
0.886451
1.07494
0.527778
0.529829
1.07175
0.888062
0.697631
0.574123
0.498546
0.455906
0.431712
0.419178
0.414053
0.413557
0.418161
0.429495
0.451916
0.494098
0.570398
0.695393
0.877834
1.07447
0.527478
0.528397
1.07227
0.879704
0.69718
0.571406
0.497664
0.454784
0.431717
0.419194
0.413628
0.413051
0.417581
0.429039
0.451798
0.493256
0.567378
0.694219
0.883264
1.06582
0.522752
0.528739
1.07278
0.877811
0.694163
0.571255
0.496831
0.454553
0.431441
0.419375
0.41433
0.413792
0.418304
0.429604
0.45232
0.493705
0.568159
0.694003
0.877973
1.07277
0.526744
0.525723
1.0716
0.875392
0.693026
0.568829
0.496358
0.454892
0.432074
0.420117
0.414259
0.413494
0.417851
0.429009
0.451789
0.493424
0.569015
0.694941
0.885729
1.06962
0.524238
0.527974
1.06915
0.874263
0.691813
0.568614
0.496192
0.454119
0.431436
0.419883
0.414226
0.413217
0.417396
0.429103
0.451398
0.493042
0.568273
0.697219
0.877688
1.08204
0.52981
0.527545
1.06196
0.870663
0.686981
0.567452
0.495674
0.454073
0.431604
0.419973
0.414169
0.413731
0.417571
0.428255
0.451113
0.492349
0.565736
0.695902
0.879421
1.08209
0.531559
0.526377
1.06751
0.860961
0.688666
0.567125
0.495195
0.454135
0.432274
0.419706
0.413795
0.41327
0.416799
0.428198
0.450848
0.492159
0.566506
0.693867
0.881279
1.0802
0.529784
0.524936
1.05869
0.862523
0.683852
0.565708
0.494875
0.454162
0.432117
0.420316
0.414242
0.413139
0.416748
0.428585
0.450546
0.491699
0.565493
0.692135
0.878523
1.0803
0.528881
0.523369
1.05643
0.862546
0.682731
0.564992
0.494541
0.45452
0.431945
0.419713
0.413588
0.412618
0.416541
0.427829
0.449869
0.491043
0.563942
0.685096
0.879601
1.08005
0.524858
0.520219
1.05361
0.854848
0.681233
0.564114
0.494054
0.453389
0.431608
0.419843
0.413301
0.412275
0.416546
0.427874
0.449911
0.490548
0.563069
0.68468
0.875925
1.07946
0.525222
0.523451
1.05704
0.86159
0.681378
0.563444
0.49381
0.453357
0.431279
0.419489
0.413774
0.412764
0.416669
0.4285
0.450355
0.489682
0.560714
0.681793
0.874173
1.07779
0.523933
0.522707
1.06191
0.862801
0.675721
0.562305
0.493583
0.453425
0.432007
0.419183
0.413548
0.412418
0.416655
0.42787
0.449529
0.48947
0.560085
0.679843
0.870213
1.07575
0.522973
0.519811
1.06076
0.854329
0.675266
0.561657
0.493183
0.453491
0.432016
0.419683
0.413421
0.412519
0.416793
0.428275
0.449707
0.489671
0.558902
0.676926
0.866778
1.07264
0.520836
0.518429
1.05211
0.852156
0.673407
0.560568
0.492613
0.453472
0.432253
0.419457
0.413561
0.413027
0.417195
0.427246
0.447889
0.488088
0.557266
0.67424
0.862636
1.06825
0.517246
0.516729
1.05173
0.847754
0.671489
0.558988
0.491927
0.453569
0.432359
0.419654
0.414
0.412774
0.416723
0.427653
0.447428
0.486284
0.555302
0.670151
0.859175
1.06615
0.516552
0.514713
1.04709
0.844434
0.66916
0.557529
0.490824
0.453612
0.432179
0.419813
0.413873
0.412957
0.416754
0.426793
0.446943
0.48394
0.553389
0.666454
0.848112
1.05513
0.514882
0.510939
1.03433
0.841097
0.667441
0.557005
0.49078
0.454056
0.433116
0.420045
0.414121
0.413437
0.417022
0.426854
0.447472
0.482542
0.550782
0.663447
0.844555
1.05428
0.513893
0.509846
1.03393
0.837047
0.665933
0.556349
0.49099
0.45504
0.43261
0.42035
0.414316
0.413292
0.417526
0.426717
0.44589
0.481501
0.547781
0.659883
0.837077
1.04916
0.510597
0.507486
1.02738
0.833077
0.663865
0.555379
0.488627
0.453449
0.431949
0.420073
0.414087
0.413109
0.417198
0.426798
0.445831
0.480714
0.543607
0.655319
0.828903
1.04565
0.509378
0.506041
1.02865
0.829172
0.661176
0.553874
0.487928
0.452112
0.431934
0.420253
0.414297
0.412988
0.416895
0.427327
0.446541
0.477756
0.540415
0.651529
0.822856
1.04462
0.506616
0.504208
1.02883
0.825828
0.659496
0.55268
0.487303
0.452042
0.432163
0.420896
0.414259
0.412745
0.416248
0.425758
0.444399
0.477002
0.539321
0.646616
0.81558
1.04039
0.5038
0.503457
1.02762
0.822129
0.656752
0.550567
0.486966
0.451963
0.432281
0.42108
0.414604
0.412583
0.415575
0.424201
0.441925
0.476532
0.538903
0.641023
0.808548
1.02973
0.499434
0.502369
1.03242
0.819911
0.654534
0.548544
0.486758
0.452087
0.432513
0.421363
0.414844
0.412621
0.414918
0.422359
0.438789
0.472069
0.533516
0.635299
0.80232
1.02531
0.494018
0.501427
1.0304
0.815268
0.651059
0.547342
0.487087
0.45221
0.433245
0.421673
0.415179
0.413093
0.414496
0.421045
0.436643
0.469499
0.529095
0.629872
0.796784
1.01836
0.488858
0.499747
1.02651
0.811947
0.647284
0.543032
0.48357
0.452692
0.432525
0.421782
0.415518
0.413375
0.415035
0.420931
0.436256
0.46821
0.525009
0.623982
0.788617
1.0094
0.48253
0.498441
1.02421
0.808178
0.64399
0.541709
0.483385
0.450971
0.432784
0.422151
0.415888
0.413573
0.414613
0.420603
0.436158
0.46521
0.520125
0.618537
0.781378
0.999176
0.478443
0.494896
1.01286
0.803007
0.640142
0.537103
0.478953
0.448593
0.431929
0.422327
0.41622
0.413837
0.414741
0.420361
0.433968
0.462972
0.517368
0.613928
0.773165
0.987567
0.473236
0.491112
1.00674
0.79754
0.635787
0.536575
0.478507
0.44853
0.432052
0.422595
0.416606
0.414217
0.415004
0.420543
0.432925
0.459655
0.512578
0.606527
0.7655
0.982098
0.46844
0.484909
0.997224
0.79064
0.631456
0.532891
0.477867
0.44838
0.432747
0.422944
0.416997
0.414641
0.415601
0.419827
0.431334
0.455206
0.506607
0.598905
0.757248
0.977666
0.463765
0.48212
0.990001
0.785181
0.62771
0.533854
0.47793
0.448425
0.432061
0.42308
0.417354
0.415033
0.415724
0.420014
0.431834
0.455111
0.500063
0.590928
0.747593
0.971941
0.459258
0.477651
0.981177
0.777959
0.623362
0.530204
0.477538
0.448358
0.432025
0.423353
0.417767