/*--------------------------------*- C++ -*----------------------------------*\
  =========                 |
  \\      /  F ield         | OpenFOAM: The Open Source CFD Toolbox
   \\    /   O peration     | Website:  https://openfoam.org
    \\  /    A nd           | Version:  6
     \\/     M anipulation  |
\*---------------------------------------------------------------------------*/
FoamFile
{
    version     2.0;
    format      ascii;
    class       volScalarField;
    location    "17";
    object      k;
}
// * * * * * * * * * * * * * * * * * * * * * * * * * * * * * * * * * * * * * //

dimensions      [0 2 -2 0 0 0 0];

internalField   nonuniform List<scalar> 
130000
(
0.388208
0.386532
0.38435
0.38174
0.378745
0.375431
0.371875
0.368166
0.364397
0.360657
0.35703
0.353586
0.350385
0.347469
0.344867
0.342594
0.340653
0.339036
0.33773
0.336716
0.388526
0.386867
0.384694
0.382082
0.379078
0.375747
0.372171
0.36844
0.364648
0.360886
0.357238
0.353777
0.350561
0.347635
0.345026
0.342748
0.340805
0.339188
0.337883
0.336872
0.388822
0.387182
0.385016
0.382403
0.379388
0.376041
0.372444
0.36869
0.364874
0.361089
0.357418
0.353937
0.350703
0.347759
0.345135
0.342846
0.340894
0.339271
0.337963
0.336951
0.389072
0.387443
0.385282
0.382664
0.37964
0.376278
0.372662
0.368885
0.365045
0.361234
0.357539
0.354034
0.350778
0.347815
0.345176
0.342876
0.340915
0.339287
0.337975
0.336962
0.389256
0.387633
0.385471
0.382849
0.379813
0.376434
0.372796
0.368996
0.365131
0.361296
0.357581
0.35406
0.35079
0.347815
0.345168
0.34286
0.340895
0.339263
0.33795
0.336936
0.389384
0.387757
0.385589
0.382956
0.379903
0.376501
0.372842
0.369023
0.365141
0.361291
0.357564
0.354035
0.35076
0.347785
0.345136
0.342829
0.340864
0.339234
0.337923
0.336912
0.38947
0.387833
0.38565
0.382996
0.379923
0.376501
0.372826
0.368993
0.365101
0.361246
0.357515
0.353982
0.350707
0.347732
0.345086
0.342782
0.340821
0.339195
0.33789
0.336884
0.389533
0.387878
0.385673
0.382997
0.379904
0.376469
0.37278
0.368935
0.365034
0.361174
0.35744
0.353907
0.350633
0.347662
0.345021
0.342723
0.340768
0.33915
0.337851
0.336852
0.389587
0.38791
0.385683
0.382985
0.379873
0.376419
0.372715
0.368858
0.364949
0.361083
0.357347
0.353815
0.350545
0.347579
0.344945
0.342655
0.340709
0.339099
0.337808
0.336817
0.389641
0.387942
0.385691
0.38297
0.379834
0.376361
0.37264
0.36877
0.364852
0.360981
0.357244
0.353713
0.350448
0.347489
0.344863
0.342582
0.340645
0.339044
0.337763
0.336781
0.389701
0.387978
0.385702
0.382957
0.379797
0.376301
0.372562
0.368678
0.36475
0.360874
0.357135
0.353607
0.350347
0.347395
0.344778
0.342506
0.34058
0.338989
0.337718
0.336745
0.389768
0.388022
0.385721
0.382951
0.379764
0.376245
0.372486
0.368587
0.364649
0.360767
0.357026
0.3535
0.350245
0.347301
0.344693
0.342431
0.340515
0.338935
0.337674
0.33671
0.389844
0.388073
0.385746
0.382949
0.379736
0.376194
0.372415
0.368501
0.364551
0.360663
0.356921
0.353396
0.350146
0.347209
0.34461
0.342358
0.340453
0.338883
0.337631
0.336677
0.38993
0.388135
0.38578
0.382954
0.37972
0.376153
0.372353
0.368422
0.364461
0.360565
0.35682
0.353297
0.350051
0.347121
0.344531
0.342289
0.340394
0.338835
0.337593
0.336647
0.390029
0.38821
0.385828
0.382974
0.379714
0.376122
0.372301
0.368352
0.364379
0.360475
0.356727
0.353204
0.349962
0.347039
0.344457
0.342225
0.34034
0.33879
0.337558
0.336621
0.390142
0.3883
0.38589
0.383007
0.379718
0.376106
0.372261
0.368294
0.364307
0.360394
0.356642
0.353119
0.349881
0.346963
0.344389
0.342166
0.340291
0.338751
0.337529
0.3366
0.390272
0.388406
0.385968
0.383056
0.379738
0.376101
0.372234
0.368248
0.364245
0.360324
0.356566
0.353043
0.349806
0.346894
0.344327
0.342113
0.340247
0.338717
0.337503
0.336582
0.390419
0.388529
0.386064
0.383121
0.379772
0.376106
0.372221
0.368214
0.364196
0.360263
0.3565
0.352975
0.34974
0.346833
0.344273
0.342066
0.340209
0.338687
0.337481
0.336568
0.390583
0.38867
0.386176
0.383203
0.379823
0.376128
0.372219
0.368194
0.364159
0.360214
0.356443
0.352916
0.349683
0.346779
0.344225
0.342026
0.340176
0.338662
0.337465
0.336558
0.390766
0.38883
0.386306
0.383301
0.379889
0.376163
0.372226
0.368185
0.364133
0.360175
0.356397
0.352866
0.349633
0.346733
0.344184
0.341992
0.340149
0.338642
0.337451
0.336548
0.390967
0.389007
0.386455
0.383417
0.379972
0.376214
0.372249
0.368185
0.364118
0.360147
0.35636
0.352825
0.349591
0.346694
0.34415
0.341964
0.340128
0.338627
0.33744
0.336542
0.391185
0.389203
0.38662
0.383549
0.38007
0.376279
0.372284
0.368194
0.364114
0.36013
0.356333
0.352792
0.349558
0.346663
0.344124
0.341945
0.340116
0.338622
0.337438
0.33654
0.391422
0.389416
0.386804
0.383698
0.380184
0.376359
0.372334
0.368217
0.364116
0.360121
0.356312
0.352766
0.349531
0.346639
0.344106
0.341934
0.34011
0.338618
0.337434
0.336535
0.391677
0.389649
0.387006
0.383865
0.380314
0.376454
0.372396
0.36825
0.364124
0.360115
0.356298
0.352748
0.349511
0.34662
0.344091
0.341927
0.340104
0.338611
0.337433
0.336543
0.391951
0.389901
0.387227
0.38405
0.380461
0.376565
0.372472
0.368296
0.364146
0.360118
0.356295
0.352738
0.349497
0.346605
0.344078
0.341917
0.340103
0.338622
0.337449
0.336562
0.392247
0.390173
0.387467
0.384254
0.380626
0.376691
0.372563
0.368356
0.36418
0.360131
0.356295
0.35273
0.349484
0.346591
0.344065
0.341907
0.340104
0.338631
0.337468
0.336586
0.392562
0.390467
0.387729
0.384477
0.380809
0.376834
0.372669
0.368429
0.364225
0.360153
0.356298
0.352723
0.349475
0.346582
0.344057
0.3419
0.340097
0.338629
0.337474
0.336597
0.392899
0.390781
0.388011
0.384721
0.381011
0.376995
0.372791
0.368517
0.364283
0.360188
0.356315
0.352729
0.349476
0.34658
0.344051
0.341892
0.34009
0.338625
0.337472
0.336601
0.393258
0.391119
0.388316
0.384986
0.381234
0.377175
0.372931
0.36862
0.364355
0.360234
0.356341
0.35274
0.349478
0.346577
0.344043
0.341884
0.340084
0.338623
0.337473
0.336605
0.39364
0.39148
0.388644
0.385274
0.381478
0.377375
0.373089
0.36874
0.364442
0.360294
0.356378
0.352759
0.349483
0.346577
0.344045
0.341886
0.340088
0.338624
0.337471
0.336609
0.394046
0.391866
0.388998
0.385587
0.381746
0.377598
0.373268
0.368879
0.364546
0.360368
0.356429
0.352791
0.3495
0.346582
0.344048
0.341887
0.340087
0.338624
0.33748
0.336624
0.394479
0.39228
0.389379
0.385927
0.38204
0.377844
0.373469
0.36904
0.36467
0.360461
0.356496
0.352838
0.349532
0.346602
0.344057
0.341893
0.340094
0.338638
0.3375
0.336649
0.394939
0.392724
0.38979
0.386296
0.382362
0.378118
0.373696
0.369223
0.364815
0.360574
0.356582
0.352903
0.34958
0.346638
0.344085
0.341917
0.340117
0.338663
0.337529
0.336685
0.395431
0.3932
0.390235
0.386698
0.382716
0.378422
0.373952
0.369434
0.364986
0.36071
0.35669
0.352988
0.349646
0.346691
0.344128
0.341953
0.340148
0.338692
0.337557
0.336713
0.395956
0.393712
0.390715
0.387136
0.383104
0.378759
0.374239
0.369674
0.365185
0.360873
0.356822
0.353096
0.349735
0.346764
0.344189
0.342004
0.340192
0.338729
0.337586
0.336733
0.39652
0.394263
0.391236
0.387613
0.383531
0.379133
0.374561
0.369948
0.365415
0.361066
0.356983
0.353231
0.34985
0.346862
0.344274
0.342079
0.340258
0.338786
0.337635
0.336774
0.397124
0.394858
0.3918
0.388133
0.383999
0.379547
0.374921
0.370258
0.36568
0.361291
0.357176
0.353396
0.349993
0.346988
0.344387
0.342181
0.340351
0.338871
0.337713
0.336844
0.397774
0.3955
0.392412
0.3887
0.384514
0.380006
0.375324
0.370608
0.365982
0.361552
0.357402
0.353594
0.350168
0.347145
0.344529
0.342312
0.340473
0.338985
0.337819
0.336942
0.398472
0.396193
0.393076
0.38932
0.385079
0.380512
0.375773
0.371002
0.366326
0.361853
0.357666
0.353827
0.350376
0.347334
0.344703
0.342473
0.340624
0.339128
0.337954
0.33707
0.399224
0.396942
0.393798
0.389996
0.385699
0.381072
0.376272
0.371444
0.366716
0.362196
0.35797
0.354098
0.350621
0.347558
0.34491
0.342667
0.340807
0.339301
0.338118
0.337225
0.400034
0.397754
0.394582
0.390734
0.38638
0.38169
0.376827
0.371938
0.367155
0.362586
0.358318
0.354412
0.350906
0.347819
0.345153
0.342895
0.341022
0.339505
0.338312
0.337409
0.400908
0.398633
0.395436
0.391541
0.387128
0.382373
0.377443
0.372491
0.36765
0.363029
0.358716
0.354772
0.351235
0.348123
0.345436
0.343161
0.341274
0.339745
0.33854
0.337625
0.401852
0.399586
0.396366
0.392424
0.38795
0.383128
0.378129
0.37311
0.368206
0.363531
0.35917
0.355185
0.351614
0.348474
0.345764
0.34347
0.341567
0.340023
0.338804
0.337876
0.402874
0.400622
0.39738
0.393391
0.388855
0.383962
0.37889
0.373801
0.368832
0.364098
0.359686
0.355657
0.352049
0.348879
0.346144
0.343828
0.341906
0.340346
0.339112
0.338167
0.403982
0.40175
0.398488
0.394452
0.389851
0.384885
0.379738
0.374574
0.369536
0.36474
0.360272
0.356197
0.352549
0.349345
0.346582
0.344243
0.3423
0.340721
0.339469
0.338506
0.405184
0.402978
0.3997
0.395617
0.39095
0.385908
0.380681
0.37544
0.370329
0.365466
0.36094
0.356813
0.353123
0.349882
0.347088
0.344723
0.342757
0.341156
0.339883
0.338899
0.406491
0.404319
0.401027
0.396898
0.392164
0.387043
0.381733
0.37641
0.371221
0.366288
0.361699
0.357518
0.353781
0.350501
0.347673
0.345277
0.343285
0.34166
0.340363
0.339356
0.407915
0.405786
0.402484
0.39831
0.393507
0.388305
0.382908
0.377498
0.372228
0.367219
0.362563
0.358324
0.354536
0.351213
0.348347
0.345919
0.343897
0.342245
0.340921
0.339886
0.409469
0.407392
0.404087
0.399868
0.394996
0.389709
0.384221
0.378721
0.373363
0.368275
0.363548
0.359246
0.355403
0.352033
0.349126
0.346662
0.344607
0.342923
0.341569
0.340503
0.41117
0.409156
0.405853
0.401592
0.396649
0.391274
0.385692
0.380096
0.374648
0.369475
0.364672
0.360302
0.356401
0.352979
0.350027
0.347523
0.345431
0.343712
0.342323
0.341221
0.413034
0.411097
0.407803
0.403502
0.398488
0.393024
0.387343
0.381648
0.376103
0.37084
0.365956
0.361514
0.357549
0.354072
0.351071
0.348522
0.346389
0.34463
0.343201
0.342057
0.415081
0.413236
0.409959
0.405623
0.400539
0.394983
0.3892
0.3834
0.377754
0.372397
0.367426
0.362907
0.358874
0.355336
0.352281
0.349683
0.347504
0.3457
0.344226
0.343035
0.417326
0.415594
0.412348
0.407984
0.40283
0.397182
0.391295
0.385386
0.379634
0.374177
0.369114
0.364513
0.360406
0.356802
0.353689
0.351036
0.348805
0.346951
0.345424
0.344179
0.4198
0.418204
0.415004
0.410618
0.405399
0.399657
0.393663
0.387642
0.381779
0.376216
0.371057
0.366368
0.362182
0.358508
0.355329
0.352616
0.350328
0.348415
0.346829
0.345521
0.422533
0.421101
0.417963
0.413566
0.408286
0.402453
0.396349
0.390213
0.384235
0.378562
0.373301
0.368518
0.364248
0.360496
0.357247
0.354467
0.352114
0.350136
0.348482
0.347101
0.425561
0.424325
0.421272
0.416877
0.411543
0.405621
0.399408
0.393153
0.387056
0.381269
0.3759
0.371019
0.366658
0.362824
0.359497
0.356643
0.354216
0.352164
0.350431
0.348965
0.428924
0.427926
0.424984
0.420608
0.41523
0.409224
0.402903
0.396529
0.390311
0.384405
0.378924
0.373939
0.369482
0.365558
0.362146
0.35921
0.3567
0.354563
0.352739
0.351173
0.432673
0.431959
0.429163
0.424829
0.419422
0.413339
0.406915
0.400423
0.394081
0.388055
0.382458
0.377363
0.372804
0.368783
0.365279
0.362251
0.359648
0.357411
0.355481
0.353798
0.436865
0.436494
0.433886
0.429622
0.424206
0.41806
0.41154
0.404934
0.398471
0.392322
0.386607
0.381398
0.376731
0.372607
0.369
0.36587
0.36316
0.360809
0.358754
0.356933
0.441571
0.441613
0.439246
0.435093
0.429695
0.423505
0.416902
0.41019
0.40361
0.39734
0.391505
0.38618
0.381399
0.377163
0.373445
0.370199
0.367366
0.364883
0.36268
0.360693
0.446883
0.44741
0.445357
0.441366
0.436024
0.429818
0.423152
0.416348
0.40966
0.403275
0.397322
0.39188
0.386982
0.382626
0.378785
0.375408
0.372434
0.369793
0.367414
0.365227
0.452909
0.454024
0.452368
0.448604
0.443369
0.437186
0.430487
0.423613
0.416834
0.410345
0.404281
0.398722
0.393703
0.389221
0.385244
0.381718
0.378578
0.37575
0.373157
0.370726
0.459768
0.461604
0.460457
0.457008
0.451949
0.445845
0.439156
0.432249
0.425406
0.418832
0.412671
0.407003
0.401863
0.397247
0.393119
0.389422
0.386085
0.383029
0.380175
0.377442
0.467617
0.470342
0.469849
0.466833
0.462047
0.4561
0.449489
0.442602
0.435739
0.429116
0.422881
0.417118
0.411863
0.407106
0.402811
0.398914
0.395339
0.392005
0.388822
0.385709
0.476652
0.480484
0.480832
0.478409
0.47403
0.468357
0.46192
0.455136
0.448321
0.441705
0.435439
0.42961
0.424252
0.419353
0.414871
0.410738
0.406873
0.403187
0.399588
0.395987
0.487113
0.492367
0.493755
0.492162
0.488385
0.483149
0.477031
0.470475
0.463817
0.457296
0.45107
0.445226
0.439794
0.434758
0.43007
0.425656
0.421429
0.417293
0.413152
0.408912
0.499322
0.506425
0.509169
0.508683
0.505762
0.501195
0.495604
0.489463
0.483127
0.476843
0.470772
0.464998
0.459547
0.454394
0.449484
0.444735
0.440051
0.435331
0.430475
0.425385
0.513681
0.523175
0.527708
0.528717
0.527013
0.523444
0.518681
0.513228
0.507459
0.501625
0.495889
0.490325
0.48495
0.479728
0.474591
0.469445
0.464187
0.458708
0.452903
0.446671
0.530717
0.543296
0.550275
0.553184
0.553235
0.551127
0.547612
0.543231
0.538375
0.5333
0.528159
0.523015
0.51787
0.512667
0.507324
0.501729
0.495767
0.489317
0.482267
0.474513
0.551149
0.567693
0.578004
0.5835
0.585876
0.585802
0.584074
0.581264
0.577777
0.573864
0.569668
0.565231
0.560533
0.555494
0.550008
0.543942
0.537159
0.529519
0.520894
0.511167
0.575885
0.597533
0.612214
0.621362
0.626567
0.629275
0.629978
0.629345
0.627766
0.625491
0.622646
0.619255
0.615273
0.610593
0.605085
0.598582
0.590919
0.581921
0.571426
0.55928
0.60607
0.634293
0.654548
0.668449
0.677697
0.683563
0.68731
0.689546
0.690404
0.690233
0.689138
0.687127
0.684134
0.680032
0.674663
0.667827
0.659321
0.648913
0.63638
0.621493
0.643092
0.679636
0.70691
0.726717
0.741019
0.751315
0.758668
0.76379
0.767408
0.769769
0.770706
0.77032
0.768531
0.765195
0.760136
0.753121
0.7439
0.732172
0.717624
0.699901
0.688549
0.735353
0.771148
0.798005
0.818233
0.833563
0.845224
0.85408
0.860663
0.865258
0.86827
0.869683
0.869205
0.866745
0.862125
0.855084
0.845324
0.832465
0.816082
0.795663
0.744191
0.80325
0.848995
0.883909
0.910762
0.931607
0.94789
0.960604
0.970393
0.977677
0.982694
0.985637
0.986452
0.984875
0.980761
0.973816
0.963681
0.949901
0.931933
0.909089
0.811781
0.884972
0.941888
0.985641
1.01961
1.04625
1.06729
1.08392
1.09693
1.10683
1.11392
1.11839
1.12031
1.11954
1.11598
1.10922
1.09884
1.08432
1.065
1.04002
0.892966
0.981877
1.0509
1.10402
1.14539
1.17796
1.20377
1.22426
1.24037
1.25277
1.26183
1.2678
1.27073
1.27068
1.26766
1.26116
1.25064
1.23553
1.21504
1.18817
0.989104
1.09492
1.17666
1.23946
1.28834
1.32682
1.35732
1.38152
1.40058
1.41528
1.42615
1.43346
1.43733
1.43792
1.4354
1.42921
1.41864
1.40306
1.38159
1.35307
1.10117
1.22462
1.31937
1.39193
1.44827
1.49249
1.52744
1.55509
1.5768
1.59355
1.60597
1.61445
1.61914
1.62024
1.61812
1.61226
1.60172
1.58583
1.5636
1.53374
1.22966
1.37097
1.4787
1.56081
1.62429
1.67387
1.71281
1.74341
1.76729
1.78562
1.79918
1.80853
1.81393
1.81548
1.8135
1.80785
1.79742
1.78142
1.75876
1.72799
1.3745
1.53335
1.65359
1.74467
1.81459
1.86873
1.91082
1.9435
1.96869
1.98778
2.00177
2.01135
2.01688
2.01854
2.01671
2.01131
2.00113
1.98533
1.96276
1.93181
1.53497
1.71035
1.84199
1.94084
2.01589
2.07319
2.11697
2.15029
2.17537
2.19392
2.20716
2.21597
2.22087
2.22213
2.22019
2.21496
2.20521
2.19009
2.16836
2.13831
1.70953
1.89946
2.0405
2.145
2.22296
2.28113
2.32428
2.35593
2.37872
2.39469
2.40534
2.4118
2.4148
2.41479
2.41227
2.40703
2.39795
2.38417
2.36437
2.33677
1.89559
2.09679
2.24391
2.35068
2.42806
2.48355
2.52254
2.5491
2.56636
2.5768
2.58223
2.58408
2.58326
2.58074
2.57677
2.57097
2.5627
2.5511
2.53472
2.51166
2.08929
2.29671
2.44487
2.54877
2.62038
2.66801
2.69783
2.71446
2.72164
2.72263
2.7193
2.71344
2.70634
2.69897
2.69175
2.68474
2.67742
2.66896
2.65784
2.64206
2.28527
2.49162
2.63349
2.72719
2.78571
2.81832
2.8324
2.83259
2.8231
2.80704
2.78826
2.76945
2.75205
2.73707
2.72495
2.71584
2.7093
2.7046
2.70038
2.69497
2.4766
2.67182
2.79733
2.87078
2.90654
2.91373
2.90046
2.87519
2.84532
2.81205
2.7787
2.74774
2.72043
2.69785
2.68055
2.66879
2.66228
2.66038
2.66182
2.66544
2.65473
2.82558
2.92155
2.96068
2.95915
2.93296
2.8896
2.83569
2.77475
2.71495
2.65868
2.60789
2.56435
2.52912
2.50273
2.48558
2.47785
2.47867
2.48616
2.50162
2.80959
2.93901
2.98625
2.97818
2.9309
2.85594
2.76744
2.67326
2.58002
2.4924
2.41322
2.34415
2.28599
2.23914
2.20368
2.17994
2.16831
2.16793
2.17683
2.19835
2.92967
2.99452
2.97851
2.90172
2.78826
2.65522
2.51617
2.38086
2.25565
2.14411
2.04755
1.96594
1.89843
1.84406
1.80197
1.77198
1.75444
1.74916
1.75339
1.77117
3.0004
2.98255
2.87365
2.70954
2.51768
2.32007
2.13219
1.96356
1.81838
1.69713
1.59772
1.51706
1.45183
1.39929
1.35738
1.32518
1.30229
1.28967
1.28722
1.29477
3.00894
2.87416
2.65118
2.38481
2.11177
1.8586
1.64071
1.4635
1.32493
1.2193
1.13921
1.0778
1.02956
0.990745
0.959081
0.933927
0.914796
0.903967
0.905201
0.923527
2.93082
2.65233
2.29682
1.92894
1.59639
1.3246
1.12063
0.977076
0.879234
0.814867
0.771347
0.740049
0.715928
0.696625
0.682104
0.674816
0.674748
0.683019
0.709119
0.786232
2.72956
2.28466
1.80592
1.38183
1.06249
0.84407
0.711489
0.636542
0.595281
0.572122
0.55753
0.547781
0.541294
0.537637
0.53766
0.541704
0.552169
0.578594
0.654508
0.802328
2.34989
1.75153
1.23498
0.872567
0.669587
0.570733
0.521354
0.494361
0.478511
0.468761
0.462781
0.459423
0.458273
0.459497
0.463345
0.471781
0.490625
0.53867
0.670552
0.969379
1.73014
1.10012
0.725667
0.565794
0.497859
0.464417
0.445277
0.433135
0.425054
0.419515
0.415902
0.413968
0.413897
0.415901
0.421155
0.432296
0.458051
0.528547
0.745006
1.22589
1.06261
0.672775
0.519541
0.461152
0.434141
0.4189
0.409025
0.401953
0.396842
0.393222
0.390915
0.389778
0.390096
0.392336
0.397895
0.409768
0.438496
0.520683
0.782873
1.3648
0.900726
0.556233
0.450272
0.417405
0.403088
0.394702
0.389107
0.385243
0.382536
0.380639
0.379457
0.378888
0.379206
0.380888
0.385528
0.395987
0.421596
0.495434
0.741362
1.3884
0.919867
0.511135
0.418194
0.39495
0.386573
0.38231
0.379583
0.377713
0.376491
0.375688
0.375236
0.375016
0.3752
0.375968
0.378425
0.384759
0.401089
0.449211
0.622783
1.16273
0.739243
0.446255
0.393612
0.38161
0.377772
0.376271
0.375578
0.375177
0.3749
0.374648
0.374501
0.374433
0.374476
0.374579
0.374647
0.375003
0.376772
0.384763
0.434619
0.760334
0.337066
0.336604
0.336058
0.335518
0.334994
0.334496
0.334035
0.33362
0.33326
0.332963
0.332734
0.332578
0.332495
0.332483
0.332539
0.332661
0.332843
0.333081
0.33337
0.333709
0.337297
0.336828
0.336279
0.335735
0.335207
0.334703
0.334236
0.333815
0.333448
0.333146
0.332912
0.332751
0.332664
0.332648
0.332701
0.33282
0.332999
0.333235
0.333523
0.33386
0.337462
0.336991
0.33644
0.335893
0.33536
0.334852
0.334379
0.333951
0.333579
0.33327
0.33303
0.332864
0.332773
0.332754
0.332804
0.33292
0.333096
0.333328
0.333613
0.333949
0.337588
0.337117
0.336565
0.336016
0.335481
0.33497
0.334494
0.334062
0.333685
0.33337
0.333126
0.332955
0.33286
0.332839
0.332887
0.333
0.333171
0.333398
0.333679
0.334013
0.33769
0.337221
0.33667
0.336122
0.335587
0.335076
0.334598
0.334165
0.333784
0.333464
0.333213
0.333037
0.332939
0.332915
0.332965
0.333074
0.333238
0.333457
0.333731
0.334058
0.337784
0.337317
0.336769
0.336223
0.335691
0.335181
0.334706
0.334273
0.333888
0.33356
0.333302
0.333121
0.333017
0.332989
0.333035
0.333141
0.333302
0.33352
0.333788
0.3341
0.337877
0.337414
0.336866
0.336318
0.335785
0.335275
0.334794
0.334354
0.333962
0.33363
0.33337
0.333186
0.333077
0.333039
0.333067
0.333164
0.333327
0.333548
0.333824
0.334144
0.33794
0.337469
0.336915
0.336363
0.335826
0.335316
0.334829
0.334379
0.333981
0.333646
0.33339
0.333207
0.333097
0.333056
0.333076
0.333172
0.333334
0.333558
0.33384
0.334172
0.337983
0.337506
0.336949
0.336389
0.335839
0.335316
0.334824
0.334362
0.33396
0.333629
0.333379
0.3332
0.333092
0.33305
0.333079
0.333177
0.333341
0.333564
0.33384
0.334166
0.338007
0.337537
0.336983
0.336419
0.335858
0.335312
0.334815
0.334341
0.333938
0.333615
0.333361
0.333187
0.333089
0.333054
0.333092
0.333197
0.333363
0.333586
0.333861
0.334185
0.338009
0.337545
0.336992
0.336431
0.335869
0.335314
0.33481
0.33434
0.333936
0.333603
0.333348
0.333176
0.333087
0.333072
0.333118
0.333224
0.33339
0.333613
0.33389
0.334214
0.33801
0.337537
0.336983
0.336423
0.335867
0.335325
0.334821
0.334362
0.333959
0.333623
0.333362
0.33318
0.333082
0.333071
0.333114
0.333211
0.333374
0.333597
0.333875
0.334201
0.338017
0.337551
0.337002
0.336445
0.335894
0.335364
0.334864
0.334408
0.334006
0.33367
0.333405
0.33321
0.333102
0.333077
0.333113
0.333207
0.333371
0.333595
0.333875
0.334203
0.338048
0.337581
0.337034
0.336473
0.335912
0.335375
0.334876
0.334422
0.334025
0.333696
0.333444
0.333258
0.333154
0.333123
0.333161
0.333265
0.333428
0.333646
0.33391
0.334227
0.338072
0.33759
0.337035
0.336469
0.335911
0.335378
0.334878
0.334422
0.334026
0.333702
0.333458
0.333286
0.333188
0.33316
0.3332
0.333305
0.333467
0.333678
0.333927
0.334234
0.3381
0.337617
0.337049
0.336474
0.335922
0.335393
0.334893
0.334429
0.334029
0.3337
0.333447
0.333271
0.333173
0.333147
0.33319
0.333297
0.333463
0.333679
0.333938
0.334253
0.33813
0.337644
0.337078
0.336497
0.335933
0.335394
0.334895
0.334435
0.334039
0.333711
0.333455
0.333272
0.333174
0.333154
0.333201
0.333312
0.333483
0.333709
0.333984
0.334306
0.338161
0.337659
0.337087
0.336515
0.335944
0.335387
0.33489
0.334448
0.33406
0.333737
0.333484
0.333303
0.333211
0.33319
0.333228
0.333336
0.333509
0.333736
0.334018
0.334345
0.338208
0.337688
0.337095
0.336513
0.335938
0.335387
0.334878
0.334434
0.334047
0.333726
0.333477
0.333305
0.333221
0.333198
0.333232
0.333341
0.333515
0.333741
0.334021
0.334338
0.338281
0.337745
0.337133
0.336528
0.335944
0.335397
0.33488
0.334425
0.334033
0.333711
0.333461
0.333291
0.333208
0.333187
0.333232
0.333345
0.33352
0.333747
0.334021
0.334332
0.338376
0.337831
0.337208
0.33659
0.335993
0.335428
0.334909
0.334447
0.334049
0.333723
0.333473
0.333303
0.333212
0.333193
0.333244
0.333363
0.333542
0.333776
0.334056
0.334379
0.338491
0.337939
0.337308
0.336682
0.336076
0.335504
0.334977
0.334508
0.334105
0.333777
0.333528
0.33336
0.333273
0.333258
0.333314
0.333438
0.333622
0.333858
0.33414
0.334463
0.33862
0.338062
0.337426
0.336795
0.336184
0.335607
0.335076
0.334603
0.334198
0.333868
0.33362
0.333454
0.333368
0.333356
0.333415
0.333541
0.333726
0.333963
0.334244
0.334566
0.338759
0.338197
0.337557
0.336923
0.336308
0.335727
0.335193
0.334718
0.334311
0.333981
0.333732
0.333567
0.333483
0.333471
0.333531
0.333657
0.333842
0.334079
0.334359
0.334678
0.338907
0.338341
0.337697
0.337059
0.33644
0.335856
0.33532
0.334843
0.334435
0.334105
0.333856
0.333691
0.333607
0.333596
0.333655
0.333782
0.333966
0.334202
0.33448
0.334796
0.339064
0.338494
0.337846
0.337203
0.336581
0.335993
0.335454
0.334974
0.334565
0.334234
0.333985
0.33382
0.333736
0.333726
0.333786
0.333912
0.334096
0.33433
0.334606
0.334919
0.339232
0.338657
0.338005
0.337357
0.336729
0.336137
0.335594
0.335112
0.334701
0.334369
0.33412
0.333955
0.333872
0.333862
0.333923
0.33405
0.334233
0.334466
0.33474
0.33505
0.339415
0.338835
0.338177
0.337523
0.33689
0.336293
0.335745
0.33526
0.334847
0.334513
0.334264
0.3341
0.334018
0.334009
0.334071
0.334199
0.334383
0.334615
0.334887
0.335193
0.339617
0.339032
0.338369
0.337709
0.337069
0.336466
0.335914
0.335425
0.335009
0.334674
0.334424
0.334261
0.334179
0.334172
0.334237
0.334367
0.334552
0.334783
0.335052
0.335353
0.339844
0.339254
0.338585
0.337919
0.337273
0.336664
0.336107
0.335614
0.335196
0.33486
0.33461
0.334447
0.334367
0.334362
0.33443
0.334561
0.334745
0.334975
0.335241
0.335537
0.340099
0.339504
0.33883
0.338159
0.337508
0.336893
0.336331
0.335835
0.335414
0.335077
0.334828
0.334666
0.334588
0.334585
0.334653
0.334785
0.334969
0.335197
0.335459
0.335748
0.340386
0.339788
0.33911
0.338434
0.337777
0.337158
0.336591
0.336091
0.335669
0.335331
0.335081
0.334921
0.334844
0.334843
0.334913
0.335045
0.335228
0.335453
0.335709
0.335991
0.34071
0.340109
0.339428
0.338747
0.338085
0.337461
0.33689
0.336387
0.335962
0.335624
0.335375
0.335215
0.33514
0.335139
0.33521
0.335342
0.335524
0.335745
0.335996
0.336268
0.341076
0.340472
0.339788
0.339103
0.338437
0.337808
0.337233
0.336727
0.3363
0.33596
0.33571
0.335552
0.335477
0.335478
0.335549
0.33568
0.33586
0.336077
0.336321
0.336584
0.341488
0.340883
0.340197
0.339508
0.338837
0.338204
0.337624
0.337115
0.336685
0.336344
0.336094
0.335936
0.335862
0.335863
0.335934
0.336065
0.336242
0.336454
0.336691
0.336943
0.341954
0.341348
0.340661
0.339969
0.339293
0.338655
0.338072
0.337558
0.337126
0.336783
0.336533
0.336374
0.336301
0.336302
0.336373
0.336502
0.336675
0.336882
0.337109
0.337349
0.342482
0.341876
0.341188
0.340493
0.339814
0.339171
0.338583
0.338065
0.33763
0.337286
0.337034
0.336875
0.336802
0.336803
0.336873
0.336999
0.337169
0.337368
0.337585
0.33781
0.34308
0.342476
0.341788
0.341091
0.340408
0.33976
0.339167
0.338646
0.338208
0.337861
0.337608
0.337449
0.337375
0.337376
0.337444
0.337568
0.337732
0.337923
0.338128
0.338337
0.34376
0.343158
0.342472
0.341773
0.341086
0.340434
0.339837
0.339312
0.338871
0.338521
0.338267
0.338107
0.338032
0.338031
0.338098
0.338218
0.338375
0.338557
0.338748
0.338938
0.344532
0.343935
0.343253
0.342554
0.341864
0.341208
0.340606
0.340077
0.339632
0.33928
0.339024
0.338862
0.338786
0.338784
0.338848
0.338963
0.339113
0.339283
0.339458
0.339626
0.345413
0.344823
0.344145
0.343447
0.342755
0.342096
0.34149
0.340957
0.340508
0.340154
0.339895
0.339732
0.339654
0.33965
0.33971
0.339819
0.33996
0.340117
0.340273
0.340416
0.346419
0.345838
0.345169
0.344473
0.343781
0.343118
0.342509
0.341971
0.341519
0.341162
0.340901
0.340735
0.340655
0.340649
0.340704
0.340806
0.340935
0.341076
0.34121
0.341324
0.34757
0.347002
0.346344
0.345654
0.344962
0.344298
0.343685
0.343144
0.342689
0.342328
0.342064
0.341896
0.341813
0.341802
0.341852
0.341944
0.34206
0.342182
0.34229
0.342371
0.348891
0.348341
0.347699
0.347016
0.346328
0.345663
0.345048
0.344504
0.344045
0.343681
0.343414
0.343242
0.343155
0.34314
0.343181
0.343262
0.343361
0.343461
0.343539
0.343579
0.350413
0.349886
0.349264
0.348594
0.347911
0.347248
0.346632
0.346085
0.345623
0.345255
0.344984
0.344808
0.344716
0.344694
0.344725
0.344792
0.344871
0.344943
0.344985
0.344978
0.35217
0.351673
0.351078
0.350425
0.349752
0.349093
0.348478
0.347929
0.347465
0.347093
0.346818
0.346636
0.346537
0.346506
0.346525
0.346574
0.346629
0.346667
0.346666
0.346604
0.354205
0.353748
0.353189
0.352559
0.3519
0.351249
0.350636
0.350088
0.349622
0.349247
0.348966
0.348777
0.348669
0.348627
0.34863
0.348656
0.34868
0.348679
0.348625
0.348497
0.356572
0.356166
0.355653
0.355055
0.354416
0.353777
0.353171
0.352626
0.352158
0.35178
0.351493
0.351295
0.351175
0.351118
0.351101
0.351099
0.351084
0.351034
0.350918
0.350711
0.359335
0.358994
0.358542
0.357986
0.357377
0.356756
0.356161
0.35562
0.355153
0.354772
0.354479
0.35427
0.354135
0.354058
0.354013
0.353975
0.353914
0.353803
0.35361
0.353307
0.362572
0.362316
0.361942
0.361445
0.360876
0.360282
0.359704
0.359173
0.358708
0.358325
0.358024
0.357803
0.357648
0.357543
0.357463
0.35738
0.357259
0.357073
0.356785
0.356365
0.366377
0.366236
0.365968
0.365548
0.365035
0.364481
0.363928
0.363411
0.362953
0.362568
0.362259
0.362021
0.361842
0.361703
0.361575
0.36143
0.361233
0.360951
0.360545
0.359981
0.370893
0.370896
0.370765
0.370449
0.370014
0.369515
0.369
0.368506
0.368058
0.367672
0.367351
0.367092
0.366878
0.366692
0.366502
0.366278
0.365981
0.365577
0.365022
0.364279
0.376286
0.376476
0.376526
0.376352
0.376024
0.375603
0.375143
0.374683
0.374252
0.373866
0.373531
0.373241
0.372981
0.372729
0.372455
0.372124
0.371697
0.371134
0.370389
0.369418
0.382797
0.383211
0.383514
0.383536
0.383359
0.383051
0.38267
0.382261
0.381855
0.381471
0.381114
0.38078
0.380453
0.380111
0.379719
0.379243
0.37864
0.377867
0.376873
0.37561
0.390777
0.391521
0.392102
0.392402
0.392439
0.392294
0.39203
0.391697
0.391329
0.390948
0.390559
0.390161
0.389735
0.38926
0.3887
0.388021
0.387174
0.386115
0.384788
0.383141
0.400676
0.401887
0.402911
0.403527
0.40388
0.403971
0.40388
0.40366
0.40335
0.402974
0.402537
0.402041
0.401467
0.400796
0.39999
0.399015
0.397822
0.396363
0.394579
0.392413
0.413176
0.415068
0.416761
0.41789
0.418589
0.41903
0.419185
0.419139
0.418919
0.41855
0.418041
0.417395
0.416597
0.415629
0.414457
0.413046
0.411349
0.409317
0.406889
0.404003
0.429259
0.432156
0.434831
0.436756
0.438046
0.438825
0.439306
0.439548
0.439471
0.439117
0.438502
0.43763
0.436494
0.43508
0.433361
0.431305
0.428869
0.426005
0.422652
0.418748
0.450333
0.454691
0.458786
0.461867
0.464063
0.465501
0.466322
0.466777
0.466931
0.46661
0.465846
0.46465
0.463025
0.460963
0.458449
0.455456
0.451948
0.447884
0.443205
0.437849
0.478257
0.48466
0.490718
0.495383
0.49881
0.501155
0.502551
0.503218
0.50352
0.503321
0.502371
0.500744
0.498459
0.495519
0.491916
0.487631
0.482638
0.476898
0.47036
0.462965
0.515233
0.52432
0.532897
0.539555
0.544506
0.547971
0.550148
0.551234
0.551625
0.551475
0.550292
0.548153
0.545079
0.541065
0.536111
0.530194
0.523292
0.515363
0.506358
0.496218
0.563433
0.575734
0.58723
0.596135
0.602752
0.607385
0.610289
0.611761
0.612429
0.612419
0.611058
0.608432
0.604556
0.599409
0.592983
0.585233
0.576128
0.565599
0.553583
0.539997
0.62448
0.640246
0.654789
0.665971
0.674244
0.680031
0.683676
0.685533
0.686384
0.686516
0.685099
0.68212
0.677569
0.671401
0.663585
0.654037
0.642687
0.629406
0.614077
0.596549
0.699131
0.718312
0.735773
0.749078
0.75887
0.765711
0.770038
0.772254
0.773109
0.773269
0.772177
0.769047
0.764025
0.757064
0.748107
0.737009
0.723626
0.707736
0.689124
0.667508
0.787547
0.809955
0.830155
0.845454
0.856702
0.864588
0.8696
0.872221
0.873402
0.873804
0.872809
0.86952
0.864105
0.856501
0.846615
0.834233
0.819123
0.800937
0.779312
0.753775
0.889954
0.915535
0.938505
0.955926
0.968836
0.978028
0.984068
0.987447
0.988975
0.989416
0.988444
0.984968
0.979137
0.970872
0.960055
0.946438
0.929726
0.90945
0.885071
0.85587
1.00726
1.03626
1.06234
1.08223
1.09712
1.10789
1.11518
1.1195
1.1215
1.12205
1.12115
1.11749
1.11122
1.10225
1.09041
1.07545
1.05701
1.03456
1.00743
0.974639