/*--------------------------------*- C++ -*----------------------------------*\
  =========                 |
  \\      /  F ield         | OpenFOAM: The Open Source CFD Toolbox
   \\    /   O peration     | Website:  https://openfoam.org
    \\  /    A nd           | Version:  6
     \\/     M anipulation  |
\*---------------------------------------------------------------------------*/
FoamFile
{
    version     2.0;
    format      ascii;
    class       volScalarField;
    location    "17";
    object      nut;
}
// * * * * * * * * * * * * * * * * * * * * * * * * * * * * * * * * * * * * * //

dimensions      [0 2 -1 0 0 0 0];

internalField   nonuniform List<scalar> 
130000
(
0.000896599
0.000900835
0.000904231
0.000906802
0.00090863
0.00090981
0.000910434
0.000910597
0.000910383
0.000909869
0.00090912
0.000908189
0.000907118
0.000905939
0.000904688
0.000903391
0.000902065
0.000900725
0.000899378
0.000898014
0.000896586
0.000900824
0.000904214
0.000906774
0.000908589
0.000909753
0.000910361
0.000910508
0.000910277
0.000909744
0.00090898
0.000908038
0.000906964
0.000905795
0.000904557
0.000903264
0.000901929
0.000900569
0.000899203
0.000897834
0.000896681
0.000900929
0.000904322
0.000906879
0.000908686
0.000909836
0.000910433
0.000910572
0.000910345
0.000909833
0.000909096
0.000908181
0.000907135
0.000905999
0.00090476
0.000903443
0.000902066
0.000900642
0.000899175
0.000897725
0.000896827
0.000901092
0.000904489
0.000907048
0.000908863
0.00091004
0.000910672
0.000910848
0.000910653
0.000910171
0.000909433
0.000908503
0.000907434
0.000906266
0.00090499
0.000903635
0.000902214
0.000900733
0.000899187
0.000897657
0.000896998
0.000901287
0.000904705
0.000907306
0.000909173
0.000910404
0.000911057
0.000911232
0.000911025
0.000910516
0.000909747
0.000908782
0.000907663
0.000906418
0.000905094
0.000903701
0.000902251
0.000900754
0.000899219
0.000897655
0.00089718
0.000901513
0.000904972
0.00090763
0.000909524
0.000910753
0.00091139
0.000911542
0.000911296
0.000910725
0.000909921
0.000908927
0.000907785
0.000906529
0.000905184
0.000903771
0.000902304
0.000900794
0.000899252
0.000897684
0.000897348
0.000901724
0.000905226
0.000907901
0.000909779
0.000910962
0.000911577
0.000911712
0.000911455
0.000910883
0.000910065
0.000909054
0.000907894
0.00090662
0.000905257
0.000903827
0.000902345
0.000900824
0.000899274
0.000897701
0.000897481
0.000901883
0.000905407
0.000908057
0.00090993
0.000911123
0.000911735
0.000911864
0.000911598
0.000911015
0.000910184
0.000909157
0.000907981
0.00090669
0.000905311
0.000903865
0.00090237
0.000900838
0.00089928
0.000897703
0.000897595
0.000902013
0.00090554
0.000908196
0.000910072
0.000911264
0.000911873
0.000911995
0.00091172
0.000911127
0.000910281
0.00090924
0.000908049
0.000906741
0.000905347
0.000903887
0.00090238
0.00090084
0.000899276
0.000897697
0.0008977
0.000902131
0.000905665
0.000908327
0.000910203
0.000911393
0.000911997
0.000912112
0.000911827
0.000911222
0.000910363
0.000909308
0.000908101
0.000906778
0.000905369
0.000903897
0.000902379
0.000900831
0.000899265
0.00089769
0.0008978
0.000902242
0.000905784
0.000908457
0.000910331
0.000911515
0.000912113
0.000912219
0.000911924
0.000911306
0.000910434
0.000909364
0.000908142
0.000906804
0.00090538
0.000903895
0.000902366
0.00090081
0.00089924
0.000897665
0.0008979
0.000902352
0.000905892
0.000908587
0.000910457
0.000911636
0.000912225
0.000912322
0.000912015
0.000911385
0.000910499
0.000909414
0.000908176
0.000906823
0.000905384
0.000903883
0.000902341
0.000900774
0.000899192
0.000897609
0.000898003
0.000902467
0.000906006
0.000908694
0.000910571
0.000911751
0.000912335
0.000912424
0.000912106
0.000911463
0.000910562
0.000909462
0.000908207
0.000906837
0.000905382
0.000903865
0.000902307
0.00090072
0.000899113
0.000897486
0.000898116
0.000902594
0.000906143
0.000908788
0.000910701
0.000911876
0.000912452
0.00091253
0.0009122
0.000911543
0.000910628
0.000909511
0.00090824
0.000906853
0.00090538
0.000903846
0.000902271
0.000900668
0.000899044
0.000897391
0.00089824
0.000902732
0.000906288
0.00090894
0.000910845
0.000912011
0.000912578
0.000912644
0.000912302
0.000911631
0.0009107
0.000909567
0.000908278
0.000906873
0.000905382
0.00090383
0.00090224
0.000900627
0.000899006
0.000897388
0.000898381
0.000902888
0.000906454
0.000909115
0.000910982
0.000912163
0.000912716
0.000912769
0.000912414
0.000911728
0.000910782
0.000909631
0.000908325
0.0009069
0.00090539
0.000903819
0.000902209
0.000900575
0.000898929
0.000897319
0.000898535
0.000903054
0.000906623
0.000909277
0.000911115
0.000912294
0.000912854
0.000912903
0.000912536
0.000911837
0.000910874
0.000909707
0.000908382
0.000906938
0.000905407
0.000903817
0.000902189
0.000900541
0.000898886
0.000897292
0.000898701
0.000903233
0.000906805
0.000909453
0.000911273
0.000912421
0.000913013
0.000913054
0.000912672
0.000911957
0.000910979
0.000909794
0.00090845
0.000906986
0.000905435
0.000903825
0.00090218
0.000900527
0.000898896
0.000897312
0.000898878
0.000903424
0.000907004
0.000909658
0.000911489
0.000912607
0.000913184
0.000913219
0.000912821
0.000912089
0.000911093
0.000909891
0.000908528
0.000907044
0.000905471
0.000903837
0.000902166
0.000900484
0.000898825
0.000897184
0.000899064
0.000903624
0.000907211
0.000909865
0.000911695
0.000912814
0.000913343
0.000913389
0.000912975
0.000912227
0.000911215
0.000909996
0.000908615
0.000907112
0.000905518
0.00090386
0.00090216
0.000900438
0.000898729
0.000897005
0.000899258
0.000903832
0.000907424
0.000910076
0.000911896
0.000912994
0.000913481
0.000913514
0.000913122
0.000912366
0.00091134
0.000910105
0.000908708
0.000907187
0.000905575
0.000903897
0.000902174
0.000900418
0.000898653
0.000896924
0.000899459
0.000904047
0.000907645
0.000910295
0.000912105
0.000913186
0.000913643
0.000913639
0.000913275
0.000912514
0.000911469
0.000910215
0.0009088
0.000907263
0.000905635
0.000903943
0.000902205
0.000900453
0.000898664
0.000896982
0.000899667
0.000904271
0.000907874
0.000910524
0.00091233
0.000913407
0.000913868
0.000913817
0.00091342
0.000912656
0.000911588
0.000910316
0.000908885
0.000907331
0.000905685
0.000903976
0.000902202
0.000900435
0.000898673
0.000897025
0.000899884
0.000904502
0.00090811
0.000910758
0.000912556
0.000913622
0.000914068
0.000914004
0.000913538
0.000912758
0.000911684
0.000910405
0.00090896
0.000907389
0.000905729
0.000904007
0.000902191
0.000900423
0.000898706
0.000897064
0.00090011
0.000904742
0.000908355
0.000910999
0.000912787
0.000913837
0.00091426
0.000914161
0.000913634
0.000912814
0.000911765
0.000910486
0.000909021
0.00090743
0.000905755
0.000904029
0.000902231
0.000900467
0.000898711
0.000896997
0.000900345
0.000904992
0.00090861
0.00091125
0.000913028
0.000914062
0.000914465
0.00091434
0.000913776
0.000912914
0.000911819
0.000910511
0.000909028
0.000907419
0.000905724
0.000903981
0.000902229
0.000900436
0.000898693
0.000896933
0.000900591
0.000905253
0.000908875
0.000911512
0.000913281
0.000914302
0.00091469
0.000914552
0.000913984
0.00091307
0.000911872
0.000910543
0.00090905
0.00090743
0.000905744
0.000903991
0.00090225
0.000900495
0.000898755
0.00089698
0.000900849
0.000905526
0.000909153
0.000911786
0.000913545
0.000914552
0.000914922
0.000914763
0.000914172
0.000913232
0.000912021
0.000910674
0.000909165
0.000907537
0.000905851
0.00090407
0.000902304
0.000900531
0.000898784
0.000897058
0.000901118
0.000905812
0.000909443
0.000912073
0.000913822
0.000914814
0.000915165
0.000914985
0.000914368
0.000913399
0.000912151
0.000910747
0.000909255
0.000907639
0.000905907
0.000904133
0.000902327
0.000900568
0.000898857
0.000897112
0.000901401
0.000906111
0.000909748
0.000912373
0.000914112
0.000915089
0.000915422
0.00091522
0.000914578
0.000913578
0.000912284
0.000910819
0.0009093
0.000907677
0.000905967
0.000904206
0.00090242
0.000900615
0.000898792
0.000897049
0.000901697
0.000906425
0.000910067
0.000912689
0.000914419
0.000915382
0.000915698
0.000915477
0.000914816
0.000913798
0.000912492
0.000910956
0.00090937
0.000907705
0.000905968
0.000904178
0.000902365
0.000900567
0.000898752
0.00089702
0.000902007
0.000906753
0.000910402
0.000913021
0.000914742
0.000915692
0.000915994
0.000915758
0.000915082
0.00091405
0.000912731
0.000911179
0.000909509
0.000907787
0.00090599
0.000904171
0.00090235
0.000900598
0.000898858
0.000897197
0.000902331
0.000907097
0.000910753
0.00091337
0.000915082
0.00091602
0.000916308
0.000916059
0.000915373
0.000914334
0.000913018
0.000911483
0.000909777
0.000908008
0.000906192
0.000904346
0.000902487
0.0009007
0.000899004
0.000897429
0.00090267
0.000907457
0.00091112
0.000913736
0.000915439
0.000916365
0.00091664
0.000916377
0.000915678
0.000914632
0.000913314
0.000911787
0.000910109
0.000908331
0.000906496
0.000904624
0.000902722
0.00090088
0.000899148
0.000897535
0.000903025
0.000907833
0.000911504
0.000914118
0.000915813
0.000916726
0.000916986
0.000916708
0.000915996
0.000914938
0.00091361
0.000912077
0.000910392
0.000908604
0.000906754
0.000904879
0.000903
0.000901124
0.000899329
0.000897646
0.000903396
0.000908227
0.000911906
0.000914517
0.000916203
0.000917103
0.000917347
0.000917053
0.000916325
0.000915253
0.000913914
0.000912371
0.000910678
0.000908884
0.000907027
0.000905149
0.000903274
0.000901422
0.000899599
0.000897887
0.000903787
0.00090864
0.000912327
0.000914935
0.00091661
0.000917495
0.000917722
0.000917409
0.000916664
0.000915576
0.000914222
0.000912667
0.000910966
0.000909166
0.000907305
0.000905419
0.000903533
0.000901668
0.00089984
0.000898058
0.000904204
0.000909075
0.000912767
0.00091537
0.000917034
0.000917902
0.000918109
0.000917776
0.000917011
0.000915904
0.000914532
0.000912962
0.000911247
0.000909434
0.000907561
0.000905661
0.000903759
0.000901875
0.000900026
0.000898221
0.000904634
0.000909527
0.000913225
0.000915822
0.000917472
0.000918321
0.000918507
0.000918152
0.000917365
0.000916237
0.000914846
0.000913258
0.000911528
0.000909701
0.000907816
0.000905904
0.000903992
0.000902098
0.000900239
0.000898424
0.000905081
0.000909997
0.0009137
0.00091629
0.000917924
0.000918753
0.000918915
0.000918535
0.000917724
0.000916573
0.000915161
0.000913555
0.000911809
0.000909968
0.000908073
0.000906153
0.000904235
0.000902339
0.000900478
0.000898662
0.000905548
0.000910486
0.000914193
0.000916774
0.00091839
0.000919195
0.000919331
0.000918924
0.000918086
0.000916909
0.000915474
0.000913847
0.000912084
0.000910229
0.000908323
0.000906396
0.000904475
0.000902578
0.000900719
0.000898906
0.000906033
0.000910994
0.000914704
0.000917275
0.000918871
0.000919649
0.000919756
0.000919318
0.00091845
0.000917245
0.000915784
0.000914133
0.00091235
0.000910479
0.00090856
0.000906625
0.000904698
0.0009028
0.000900943
0.000899134
0.000906536
0.000911522
0.000915235
0.000917793
0.000919366
0.000920116
0.00092019
0.000919719
0.000918817
0.00091758
0.00091609
0.000914413
0.000912607
0.000910717
0.000908783
0.000906837
0.000904904
0.000903002
0.000901145
0.000899339
0.000907068
0.000912076
0.00091579
0.000918333
0.00091988
0.000920598
0.000920635
0.000920128
0.000919189
0.000917918
0.000916395
0.00091469
0.000912858
0.000910947
0.000908996
0.000907037
0.000905095
0.000903189
0.00090133
0.000899525
0.00090763
0.000912659
0.000916371
0.000918896
0.000920415
0.000921096
0.000921095
0.000920547
0.000919569
0.00091826
0.000916703
0.000914966
0.000913107
0.000911173
0.000909203
0.00090723
0.000905278
0.000903365
0.000901503
0.000899698
0.000908222
0.000913271
0.000916979
0.000919484
0.000920971
0.000921613
0.00092157
0.000920978
0.000919958
0.000918608
0.000917014
0.000915244
0.000913356
0.000911398
0.000909409
0.00090742
0.000905457
0.000903537
0.000901672
0.000899866
0.000908845
0.000913913
0.000917617
0.000920098
0.00092155
0.00092215
0.00092206
0.000921422
0.000920356
0.000918964
0.000917331
0.000915526
0.000913608
0.000911624
0.000909614
0.00090761
0.000905636
0.000903709
0.00090184
0.000900033
0.000909501
0.000914587
0.000918283
0.000920739
0.000922152
0.000922707
0.000922567
0.000921879
0.000920764
0.000919326
0.000917651
0.00091581
0.00091386
0.00091185
0.00090982
0.0009078
0.000905815
0.000903881
0.000902009
0.000900201
0.000910189
0.000915294
0.000918981
0.000921407
0.000922778
0.000923282
0.000923089
0.000922346
0.000921179
0.000919692
0.000917973
0.000916093
0.000914111
0.000912074
0.000910022
0.000907986
0.000905991
0.000904051
0.000902177
0.000900369
0.000910913
0.000916035
0.000919709
0.000922102
0.000923426
0.000923875
0.000923623
0.000922821
0.000921597
0.000920058
0.000918292
0.000916371
0.000914353
0.000912288
0.000910215
0.000908164
0.000906159
0.000904214
0.000902338
0.000900533
0.000911679
0.000916813
0.000920469
0.000922824
0.000924095
0.000924482
0.000924165
0.000923299
0.000922013
0.000920416
0.000918599
0.000916634
0.000914579
0.000912485
0.00091039
0.000908324
0.00090631
0.000904362
0.000902487
0.000900686
0.000912484
0.000917622
0.000921256
0.000923567
0.000924779
0.000925098
0.000924709
0.00092377
0.000922415
0.000920756
0.000918882
0.000916869
0.000914776
0.000912651
0.000910534
0.000908454
0.000906432
0.000904483
0.000902613
0.000900819
0.000913297
0.000918453
0.000922065
0.000924326
0.00092547
0.000925712
0.000925242
0.000924222
0.00092279
0.00092106
0.000919124
0.000917058
0.000914923
0.000912766
0.000910626
0.000908533
0.000906507
0.000904561
0.000902698
0.000900917
0.000914157
0.000919316
0.000922893
0.000925094
0.000926159
0.000926311
0.000925746
0.000924633
0.000923113
0.000921302
0.000919297
0.000917172
0.00091499
0.000912799
0.000910638
0.000908534
0.000906507
0.000904568
0.00090272
0.00090096
0.00091505
0.0009202
0.00092373
0.000925855
0.000926825
0.000926871
0.000926195
0.000924972
0.000923349
0.000921446
0.000919359
0.000917168
0.000914934
0.000912707
0.000910524
0.000908412
0.00090639
0.000904467
0.000902644
0.000900916
0.000915966
0.000921091
0.000924556
0.000926585
0.000927439
0.000927355
0.000926546
0.000925192
0.000923446
0.000921432
0.00091925
0.000916981
0.000914688
0.000912422
0.000910218
0.000908103
0.000906094
0.000904199
0.000902415
0.000900735
0.000916892
0.00092197
0.000925343
0.000927247
0.000927952
0.000927708
0.000926735
0.00092522
0.000923323
0.000921173
0.000918875
0.000916513
0.000914151
0.000911841
0.000909617
0.000907507
0.000905524
0.000903673
0.00090195
0.000900344
0.000917818
0.000922806
0.000926045
0.00092778
0.000928294
0.000927845
0.000926662
0.000924944
0.000922856
0.000920536
0.000918093
0.000915615
0.00091317
0.000910809
0.000908568
0.000906472
0.000904533
0.000902751
0.000901121
0.000899626
0.000918726
0.000923553
0.000926591
0.000928095
0.000928353
0.000927634
0.000926179
0.000924196
0.000921862
0.00091932
0.00091669
0.000914063
0.000911512
0.00090909
0.000906834
0.000904766
0.000902896
0.000901221
0.00089973
0.000898401
0.00091954
0.000924111
0.000926861
0.000928044
0.000927957
0.000926879
0.000925062
0.000922727
0.000920063
0.000917226
0.000914345
0.00091152
0.00090883
0.00090633
0.000904059
0.000902039
0.000900274
0.000898758
0.000897474
0.000896394
0.000920216
0.000924322
0.000926677
0.00092742
0.000926861
0.000925293
0.000922984
0.000920171
0.000917057
0.000913817
0.000910591
0.000907493
0.000904611
0.000902005
0.000899718
0.000897768
0.000896158
0.000894876
0.000893896
0.000893184
0.000920628
0.000924067
0.000925825
0.000925935
0.000924716
0.000922471
0.000919484
0.000916011
0.000912277
0.000908476
0.000904769
0.000901288
0.000898132
0.000895374
0.000893058
0.000891204
0.000889813
0.000888864
0.000888324
0.000888148
0.000920459
0.000923148
0.00092398
0.000923183
0.00092104
0.000917859
0.000913938
0.000909556
0.000904964
0.000900384
0.000896004
0.000891978
0.000888428
0.00088544
0.000883066
0.00088133
0.000880228
0.000879736
0.000879809
0.000880395
0.000919433
0.000921026
0.000920629
0.000918599
0.000915203
0.000910754
0.000905569
0.000899954
0.000894195
0.000888548
0.000883238
0.000878451
0.000874335
0.000870995
0.000868501
0.000866881
0.000866133
0.000866229
0.000867118
0.000868739
0.00091722
0.000917244
0.00091521
0.000911538
0.000906485
0.000900369
0.000893528
0.0008863
0.00087901
0.000871956
0.000865408
0.00085959
0.000854684
0.000850823
0.000848094
0.00084654
0.000846166
0.000846947
0.000848834
0.000851767
0.000913424
0.000911102
0.000907201
0.000901358
0.000894205
0.000886005
0.00087711
0.000867889
0.000858709
0.000849915
0.000841821
0.000834693
0.000828749
0.00082415
0.000821008
0.000819385
0.000819304
0.000820757
0.000823713
0.000828134
0.000907557
0.000902139
0.000895809
0.000887527
0.000877937
0.000867338
0.000856107
0.00084464
0.000833341
0.000822597
0.000812758
0.000804122
0.000796934
0.000791378
0.00078759
0.000785655
0.000785623
0.000787522
0.000791367
0.000797177
0.000899238
0.000890146
0.000880402
0.000870216
0.00085792
0.000844837
0.000831276
0.000817613
0.000804261
0.000791638
0.000780109
0.000769975
0.000761486
0.000754832
0.00075016
0.000747575
0.000747163
0.000749001
0.000753181
0.00075982
0.000887987
0.000875101
0.000861893
0.000848735
0.000835287
0.000820027
0.000804698
0.000789371
0.000774439
0.000760422
0.000747634
0.000736325
0.000726721
0.000718995
0.000713282
0.000709695
0.000708349
0.000709375
0.000712955
0.00071934
0.000874001
0.000857382
0.000841693
0.000826062
0.000810969
0.000795482
0.000779886
0.000763968
0.000748138
0.000733667
0.000720455
0.000708587
0.000698306
0.000689735
0.000682982
0.000678142
0.000675339
0.000674742
0.00067661
0.000681319
0.000858061
0.000838558
0.00082163
0.000805459
0.000789489
0.000774273
0.000758951
0.000743942
0.000729623
0.000716307
0.000703884
0.00069209
0.000681728
0.000672686
0.000665062
0.000658908
0.000654322
0.000651478
0.000650671
0.000652351
0.000841663
0.00082112
0.000804723
0.000789959
0.00077568
0.000761491
0.000748083
0.000735466
0.000723174
0.000711539
0.000700634
0.00069054
0.000680808
0.000671636
0.00066344
0.00065611
0.000649688
0.000644323
0.000640292
0.000638048
0.000826892
0.000807868
0.000794343
0.000782967
0.000772256
0.00076175
0.000751342
0.000741033
0.000731372
0.00072236
0.000713473
0.000704883
0.000696413
0.00068782
0.00067947
0.000671239
0.000663146
0.000655321
0.000647992
0.000641544
0.000816169
0.000801564
0.000793222
0.000787038
0.0007813
0.000775425
0.000769264
0.000762854
0.000756217
0.000749303
0.000742524
0.000735754
0.000728521
0.000720802
0.000712549
0.000703643
0.000694083
0.000684044
0.000673669
0.000663231
0.000811931
0.000804549
0.000803349
0.000803715
0.000803879
0.000803268
0.000801748
0.000799338
0.000796078
0.000792024
0.000787219
0.000781823
0.000775743
0.000768697
0.000760717
0.000751428
0.000740597
0.000728617
0.000715566
0.000701584
0.000816285
0.000818453
0.000825786
0.000833526
0.000840055
0.000844925
0.000848095
0.000849649
0.000849689
0.000848301
0.000845542
0.000841493
0.000836233
0.000829684
0.000821927
0.000812374
0.000800521
0.000786812
0.000771409
0.000754327
0.000830789
0.00084413
0.000860789
0.000876255
0.000889252
0.00089956
0.000907288
0.000912621
0.000915737
0.000916778
0.000915848
0.000913029
0.000908376
0.000902064
0.000894382
0.000884667
0.000872015
0.000856718
0.000839146
0.000819274
0.000856359
0.00088175
0.000908009
0.000931211
0.000950559
0.000966124
0.000978197
0.000987086
0.000993053
0.0009963
0.000996974
0.000995174
0.000990954
0.000984605
0.000976625
0.000966622
0.000953528
0.000936767
0.000917103
0.000894598
0.000893294
0.000930953
0.000966703
0.000997433
0.0010229
0.00104348
0.00105968
0.00107192
0.00108054
0.00108581
0.00108792
0.00108699
0.00108308
0.00107652
0.00106806
0.00105751
0.00104366
0.0010256
0.00100387
0.00097872
0.00094135
0.000990963
0.00103582
0.00107372
0.00110499
0.00113034
0.00115043
0.00116582
0.00117693
0.00118407
0.00118748
0.00118732
0.00118374
0.00117687
0.00116741
0.00115561
0.00114071
0.00112171
0.00109781
0.00106993
0.000999808
0.00106062
0.00111395
0.00115854
0.00119523
0.00122501
0.00124874
0.00126706
0.00128047
0.00128931
0.00129383
0.00129423
0.00129065
0.00128323
0.00127272
0.00125953
0.001243
0.00122244
0.00119664
0.001166
0.00106748
0.00113833
0.00119924
0.00124981
0.00129137
0.00132515
0.00135216
0.00137313
0.00138859
0.00139892
0.00140437
0.00140512
0.00140133
0.00139311
0.00138124
0.00136609
0.00134698
0.00132404
0.00129664
0.00126352
0.00114264
0.00122187
0.00128909
0.00134465
0.00139027
0.00142741
0.00145718
0.00148036
0.00149752
0.00150905
0.00151515
0.00151596
0.0015116
0.00150228
0.00148874
0.00147118
0.00144913
0.0014228
0.00139236
0.00135735
0.00122288
0.00130819
0.00137992
0.00143903
0.00148754
0.00152707
0.00155879
0.00158353
0.00160186
0.00161421
0.00162068
0.00162119
0.00161565
0.00160487
0.00158915
0.00156834
0.00154268
0.00151242
0.00147762
0.00143878
0.00130487
0.00139313
0.00146684
0.00152742
0.00157713
0.00161765
0.00165024
0.00167551
0.00169399
0.00170683
0.0017136
0.00171406
0.00170828
0.00169587
0.00167687
0.00165156
0.00162039
0.00158418
0.00154413
0.0015004
0.00138414
0.00147115
0.00154337
0.00160255
0.00165111
0.00169028
0.00172201
0.00174719
0.00176618
0.00177727
0.00178047
0.00177451
0.00176295
0.0017451
0.00172137
0.00169172
0.00165665
0.00161692
0.00157391
0.00152515
0.00145491
0.00153515
0.00160132
0.00165538
0.00169881
0.00173301
0.00176053
0.00178164
0.00179599
0.00180463
0.00180783
0.00180704
0.00179699
0.001778
0.00175082
0.00171599
0.00167324
0.00162317
0.00156626
0.00150954
0.00150998
0.00157663
0.00163149
0.00167281
0.00170536
0.00173592
0.00175764
0.00177511
0.00178828
0.00179629
0.00179754
0.00179065
0.00177472
0.00174885
0.00171325
0.00166997
0.00161793
0.00155755
0.00148981
0.00142077
0.00154064
0.00158661
0.00161894
0.00164583
0.00166763
0.00168238
0.00169901
0.0017126
0.00172315
0.00172936
0.00172925
0.00172047
0.00170071
0.00166795
0.00162184
0.00156636
0.00149958
0.00142122
0.00133296
0.00124466
0.00153841
0.00155165
0.00155843
0.00156238
0.00156563
0.00156991
0.00157646
0.00158505
0.00159426
0.00160141
0.00160283
0.00159437
0.00157187
0.0015319
0.00147254
0.00139811
0.00130879
0.00120439
0.0010873
0.000971116
0.00149108
0.00146664
0.0014395
0.00141499
0.00139659
0.00138631
0.0013853
0.00139304
0.00140671
0.00142134
0.00143036
0.00142658
0.00140286
0.00135357
0.00127599
0.0011765
0.00105518
0.00091766
0.00077362
0.000634733
0.0013889
0.00131695
0.00125393
0.00120137
0.00116289
0.00114187
0.00114049
0.00115796
0.00118845
0.00122211
0.00124695
0.0012522
0.00122597
0.00116072
0.00105984
0.000930115
0.00077861
0.000623165
0.000477845
0.000353286
0.00122281
0.00111174
0.00101522
0.000939535
0.000890442
0.000871279
0.000885541
0.000932828
0.000997418
0.00105824
0.00109385
0.00109036
0.00104319
0.000958568
0.000847597
0.000716404
0.000572334
0.000427635
0.000309321
0.000237971
0.000991888
0.000854592
0.000744436
0.000667476
0.000638411
0.000662414
0.000730149
0.000813709
0.000887297
0.000940036
0.000961795
0.000950388
0.000906382
0.00083497
0.000733507
0.000602987
0.000455145
0.000312162
0.000231857
0.000178668
0.000717033
0.000581264
0.000500673
0.00048674
0.000549158
0.000650912
0.000750917
0.000829027
0.000880916
0.000908401
0.000914006
0.000898045
0.00085908
0.000791374
0.000687658
0.000550296
0.000395123
0.000255118
0.000184624
0.000167067
0.000415609
0.000339852
0.000353489
0.000451952
0.000584849
0.000706442
0.000794239
0.000848911
0.000879143
0.000891809
0.00089081
0.000876235
0.000843493
0.000781653
0.000682478
0.000541289
0.000376022
0.000233131
0.000175385
0.000180015
0.000207292
0.000230045
0.000337912
0.00049789
0.000647378
0.000754486
0.000819025
0.000852803
0.000868433
0.000873031
0.000870701
0.000861244
0.000840195
0.00079745
0.00071559
0.00058073
0.000406448
0.000252101
0.000180063
0.000189436
0.000159022
0.000213654
0.000371804
0.000566969
0.000714061
0.000799805
0.000840814
0.000857572
0.000862356
0.000862623
0.000860831
0.00085673
0.000847409
0.000824316
0.000771254
0.000661979
0.00048526
0.0002997
0.000200147
0.000192163
0.000159553
0.000232943
0.000455791
0.000678391
0.000793703
0.000835354
0.000848888
0.000853924
0.000855208
0.00085519
0.000854509
0.000852927
0.000849033
0.000837898
0.00081421
0.000757765
0.000629534
0.000416643
0.000245657
0.00019726
0.000282787
0.000558065
0.000771343
0.000825199
0.000842848
0.000850219
0.000852635
0.000852828
0.00085306
0.000852995
0.000852839
0.000852687
0.000852862
0.000855064
0.00085632
0.000856396
0.000847109
0.000765406
0.000438122
0.000211418
0.000893977
0.000894533
0.000895107
0.000895583
0.000895957
0.000896231
0.000896414
0.000896513
0.000896535
0.000896485
0.000896366
0.00089618
0.000895932
0.000895612
0.000895211
0.000894742
0.00089422
0.000893651
0.000893032
0.000892358
0.000893849
0.0008944
0.000894963
0.000895425
0.000895781
0.000896038
0.000896202
0.000896283
0.00089629
0.000896229
0.000896105
0.000895917
0.000895666
0.000895332
0.000894891
0.00089435
0.000893771
0.000893182
0.000892582
0.000891946
0.000893772
0.00089431
0.000894854
0.000895294
0.000895626
0.000895856
0.000895992
0.000896045
0.00089603
0.000895956
0.000895831
0.000895655
0.000895428
0.000895125
0.000894705
0.000894136
0.000893592
0.00089307
0.000892584
0.000892016
0.000893632
0.000894156
0.000894681
0.000895098
0.000895407
0.000895614
0.000895724
0.00089574
0.000895694
0.000895601
0.00089547
0.000895309
0.000895126
0.000894916
0.000894639
0.000894201
0.000893756
0.000893286
0.000892832
0.000892282
0.000893409
0.000893912
0.000894409
0.000894804
0.000895103
0.000895318
0.000895464
0.000895541
0.000895552
0.000895499
0.000895396
0.000895258
0.000895114
0.000894974
0.000894823
0.000894581
0.000894188
0.000893679
0.000893059
0.000892431
0.000893165
0.000893693
0.00089424
0.000894715
0.000895106
0.000895426
0.000895721
0.000895906
0.000895982
0.000895944
0.000895835
0.000895659
0.000895506
0.000895356
0.000895184
0.000894958
0.000894547
0.000894029
0.000893354
0.000892639
0.000893263
0.000893858
0.000894477
0.000895059
0.000895536
0.0008959
0.000896169
0.000896342
0.000896472
0.000896451
0.000896317
0.00089613
0.000896028
0.000895846
0.000895525
0.000895124
0.000894645
0.000894182
0.000893631
0.000892976
0.000893526
0.000894106
0.00089473
0.000895361
0.000895783
0.000896091
0.000896218
0.000896335
0.000896442
0.000896422
0.000896359
0.00089632
0.000896315
0.000896151
0.000895773
0.000895292
0.000894799
0.000894302
0.000893741
0.00089313
0.000893839
0.00089435
0.000894937
0.00089548
0.000895817
0.000896028
0.000896173
0.000896275
0.000896327
0.000896353
0.000896376
0.000896362
0.000896278
0.000896082
0.000895751
0.000895297
0.000894881
0.00089428
0.00089366
0.00089299
0.000894073
0.000894654
0.000895265
0.000895718
0.000896032
0.00089605
0.000896137
0.000896149
0.00089617
0.000896249
0.000896274
0.000896238
0.000896139
0.000895926
0.000895646
0.000895282
0.000894814
0.000894235
0.000893551
0.000892828
0.000894016
0.000894756
0.000895391
0.000895804
0.000895985
0.000895955
0.000895957
0.000895898
0.000895875
0.000895865
0.000895839
0.000895771
0.000895686
0.000895568
0.000895326
0.000894984
0.00089452
0.000893959
0.000893369
0.000892704
0.000893771
0.000894476
0.000895069
0.000895474
0.000895728
0.000895878
0.000895947
0.000895961
0.000895916
0.000895827
0.000895703
0.00089553
0.000895349
0.000895195
0.000894892
0.000894479
0.00089401
0.00089351
0.000893021
0.00089242
0.000893528
0.000894256
0.000894887
0.000895367
0.000895761
0.000896104
0.000896299
0.000896379
0.00089634
0.000896204
0.000896071
0.000895799
0.000895465
0.000895171
0.000894781
0.000894302
0.000893837
0.000893362
0.000892855
0.000892287
0.000893594
0.000894359
0.00089507
0.000895541
0.00089588
0.000896156
0.00089641
0.000896504
0.000896503
0.000896432
0.000896438
0.000896226
0.000895895
0.00089558
0.0008952
0.000894764
0.000894288
0.000893763
0.00089317
0.000892531
0.00089373
0.000894543
0.000895231
0.000895639
0.000895997
0.000896243
0.000896416
0.000896463
0.000896402
0.00089637
0.000896354
0.000896245
0.000896039
0.000895756
0.000895396
0.000894977
0.000894486
0.000893904
0.000893196
0.00089249
0.000893859
0.000894666
0.000895279
0.00089571
0.000896121
0.000896411
0.00089665
0.000896651
0.00089649
0.000896327
0.000896086
0.000895834
0.000895546
0.000895225
0.000894857
0.000894432
0.000893936
0.000893369
0.000892723
0.000892069
0.000894008
0.000894754
0.000895414
0.000895851
0.00089612
0.000896373
0.000896609
0.000896695
0.000896653
0.000896481
0.000896123
0.000895702
0.00089536
0.000895048
0.000894709
0.000894223
0.000893679
0.000893156
0.000892686
0.000892107
0.000894202
0.000894889
0.000895608
0.000896071
0.000896229
0.000896395
0.000896551
0.000896654
0.000896624
0.000896503
0.000896278
0.000895954
0.000895684
0.000895369
0.000894959
0.000894365
0.000893736
0.000893209
0.00089284
0.0008923
0.000894524
0.000895059
0.000895579
0.00089599
0.000896192
0.000896404
0.000896478
0.000896493
0.000896468
0.00089638
0.000896223
0.000896061
0.000895853
0.000895514
0.000895015
0.000894471
0.000893851
0.000893279
0.000892783
0.000892133
0.000894611
0.000895032
0.000895431
0.000895716
0.000895918
0.000896085
0.000896132
0.00089617
0.00089616
0.000896092
0.000895937
0.000895734
0.000895543
0.00089524
0.000894832
0.000894366
0.000893836
0.00089323
0.000892533
0.000891729
0.000894676
0.000895015
0.000895298
0.000895427
0.000895487
0.000895533
0.000895571
0.000895598
0.00089559
0.000895539
0.000895423
0.000895253
0.000895051
0.000894796
0.000894469
0.000894087
0.000893633
0.000893092
0.000892442
0.000891692
0.00089484
0.000895158
0.000895396
0.000895434
0.000895383
0.000895347
0.000895308
0.000895253
0.000895171
0.000895071
0.000894964
0.000894837
0.000894693
0.000894513
0.000894278
0.000894006
0.000893652
0.000893208
0.000892641
0.000892015
0.000895109
0.00089547
0.000895757
0.000895837
0.00089576
0.00089574
0.000895672
0.00089555
0.000895368
0.000895141
0.000894961
0.0008948
0.000894662
0.000894496
0.000894272
0.000894003
0.000893674
0.000893333
0.000892965
0.000892495
0.000895406
0.000895833
0.000896206
0.000896403
0.000896405
0.000896378
0.000896285
0.000896139
0.00089592
0.000895651
0.000895437
0.000895262
0.000895165
0.000895
0.000894746
0.000894425
0.000894036
0.000893732
0.000893522
0.000893092
0.000895666
0.000896148
0.000896591
0.000896882
0.000897015
0.000896982
0.000896925
0.00089681
0.000896638
0.000896438