/*--------------------------------*- C++ -*----------------------------------*\
  =========                 |
  \\      /  F ield         | OpenFOAM: The Open Source CFD Toolbox
   \\    /   O peration     | Website:  https://openfoam.org
    \\  /    A nd           | Version:  6
     \\/     M anipulation  |
\*---------------------------------------------------------------------------*/
FoamFile
{
    version     2.0;
    format      ascii;
    class       volScalarField;
    location    "17";
    object      nut;
}
// * * * * * * * * * * * * * * * * * * * * * * * * * * * * * * * * * * * * * //

dimensions      [0 2 -1 0 0 0 0];

internalField   nonuniform List<scalar> 
10000
(
1.42739e-05
6.91548e-05
9.10831e-05
0.000114952
0.000145797
0.000186535
0.000230116
0.000269639
0.000299343
0.000315683
0.000315982
0.000300207
0.000270776
0.000232369
0.000189349
0.00014964
0.000117503
9.2591e-05
7.05013e-05
1.44296e-05
1.42594e-05
6.91405e-05
9.18523e-05
0.000116578
0.00014617
0.000187825
0.000231289
0.00027102
0.000300665
0.000317866
0.000318887
0.000303109
0.000272302
0.000236424
0.000190948
0.000149981
0.000117644
9.19763e-05
7.04606e-05
1.44362e-05
1.4262e-05
6.91826e-05
9.10609e-05
0.00011548
0.000146172
0.000188352
0.000232937
0.000273551
0.000301156
0.000318236
0.000318906
0.000302937
0.000272299
0.000234526
0.000190828
0.000150856
0.000117891
9.21734e-05
7.04091e-05
1.43914e-05
1.42763e-05
6.96002e-05
9.13376e-05
0.000115496
0.000146593
0.000189692
0.00023131
0.000272247
0.000302483
0.000318763
0.000321859
0.000305406
0.000273191
0.000235605
0.000191367
0.000152721
0.000118017
9.24956e-05
7.06231e-05
1.42501e-05
1.43534e-05
7.03424e-05
9.21137e-05
0.000117347
0.00014672
0.000188818
0.000232426
0.000273732
0.000302561
0.000320645
0.000320849
0.000304482
0.000273023
0.000234654
0.000191994
0.000150507
0.000118238
9.33671e-05
6.9931e-05
1.44329e-05
1.4381e-05
6.98942e-05
9.24169e-05
0.000116273
0.000146441
0.000189031
0.000231096
0.000272303
0.000301158
0.000317598
0.000319182
0.000303755
0.000274229
0.000233725
0.000189953
0.00015022
0.000118439
9.44179e-05
7.03192e-05
1.43376e-05
1.4163e-05
7.04946e-05
9.18281e-05
0.000114922
0.000145835
0.0001855
0.000229356
0.000271741
0.000301976
0.000317093
0.000317771
0.000302217
0.00027297
0.00023525
0.000190242
0.000150403
0.000118809
9.26834e-05
7.01879e-05
1.44125e-05
1.43112e-05
6.97382e-05
9.20166e-05
0.000115116
0.000145957
0.000186117
0.000229643
0.000273198
0.000303475
0.000317417
0.000318203
0.000302572
0.000273099
0.000234055
0.000190669
0.000150128
0.000117439
9.39577e-05
7.03354e-05
1.44458e-05
1.43292e-05
6.97199e-05
9.11882e-05
0.000116519
0.000146283
0.000185168
0.00022963
0.000269881
0.000299019
0.000316248
0.000318766
0.000302858
0.000274181
0.000235202
0.000192898
0.000150542
0.00011691
9.25092e-05
7.00606e-05
1.4324e-05
1.41462e-05
6.93704e-05
9.03801e-05
0.000115336
0.000147396
0.000185382
0.000230212
0.000269207
0.000298525
0.000316022
0.000318358
0.000303085
0.000274489
0.000237002
0.000191856
0.000150893
0.000117433
9.30664e-05
6.96817e-05
1.4246e-05
1.42282e-05
6.96791e-05
9.20248e-05
0.000114129
0.000145353
0.000185095
0.000229422
0.000271985
0.000299067
0.00031656
0.00032043
0.000305201
0.000273632
0.000233941
0.000192656
0.000151207
0.000116522
9.11209e-05
6.95489e-05
1.41806e-05
1.43839e-05
7.00038e-05
9.13067e-05
0.000113282
0.000145715
0.000185497
0.000228322
0.000268319
0.000297932
0.000315034
0.000317119
0.000301169
0.000272531
0.000235233
0.000193887
0.000152893
0.000117729
9.14485e-05
6.9572e-05
1.41111e-05
1.42704e-05
6.97306e-05
9.0127e-05
0.000113828
0.000147941
0.00018827
0.00023082
0.000270306
0.000299588
0.000318271
0.000318048
0.000301828
0.000273361
0.000233421
0.000191268
0.00015101
0.000116556
9.25684e-05
6.95962e-05
1.41985e-05
1.41866e-05
6.96156e-05
9.09542e-05
0.000115333
0.000146804
0.000187496
0.000230282
0.000268551
0.000298505
0.000315176
0.000317395
0.000300901
0.000274032
0.000234542
0.000193393
0.000152625
0.000117837
9.18463e-05
6.976e-05
1.41956e-05
1.42702e-05
6.90038e-05
9.16986e-05
0.000113662
0.000145596
0.000187474
0.0002311
0.000270602
0.000299235
0.000315123
0.000315616
0.000300731
0.000272517
0.000232503
0.000191646
0.000150388
0.000116998
9.14166e-05
6.9775e-05
1.43783e-05
1.41552e-05
6.91495e-05
9.08258e-05
0.000113157
0.000146688
0.000186735
0.000231704
0.000272339
0.00029979
0.000315292
0.000315698
0.000300508
0.000272851
0.000232285
0.000191052
0.00015221
0.000118384
9.27507e-05
6.97443e-05
1.42928e-05
1.42292e-05
6.88646e-05
9.1712e-05
0.000114603
0.000147921
0.00018779
0.000231692
0.000271294
0.000300021
0.000317273
0.000319063
0.000303088
0.00027153
0.000232504
0.000190511
0.000151255
0.000118242
9.45911e-05
7.02359e-05
1.42664e-05
1.42671e-05
6.92567e-05
9.00394e-05
0.000114427
0.00014692
0.00018865
0.000231152
0.00027117
0.000301703
0.000316401
0.000317021
0.000301728
0.000272248
0.000233688
0.000192135
0.000150689
0.000118602
9.31251e-05
7.01091e-05
1.4375e-05
1.43367e-05
6.97856e-05
9.15303e-05
0.000115152
0.00014566
0.000186668
0.000230014
0.000270357
0.000300824
0.000317851
0.000317948
0.000304151
0.000273697
0.000236179
0.000194079
0.000152677
0.000117745
9.23203e-05
7.00893e-05
1.44133e-05
1.43784e-05
7.05524e-05
9.27664e-05
0.00011511
0.000145889
0.000187071
0.000231962
0.000270315
0.000300456
0.000319125
0.000320436
0.000302562
0.000273305
0.000235088
0.000191452
0.000151031
0.000117601
9.24969e-05
6.97367e-05
1.43029e-05
1.43001e-05
6.99749e-05
9.19851e-05
0.000116157
0.000146051
0.000187564
0.000232171
0.000269915
0.000299693
0.000315544
0.000317869
0.000300826
0.000273384
0.000233182
0.000190427
0.000149749
0.000119168
9.33904e-05
7.06384e-05
1.43557e-05
1.42212e-05
7.03136e-05
9.13373e-05
0.000114856
0.000146857
0.000188434
0.000232712
0.000273185
0.000304196
0.000316661
0.000315891
0.00030042
0.000273
0.000235817
0.00019223
0.000151115
0.000118033
9.24452e-05
7.04854e-05
1.43254e-05
1.42486e-05
6.97124e-05
9.11874e-05
0.000115024
0.000147496
0.000189284
0.000232591
0.000272759
0.000304478
0.000319561
0.00031947
0.000303512
0.000271557
0.000232405
0.000190274
0.000149738
0.000119526
9.31783e-05
7.02106e-05
1.43418e-05
1.43308e-05
6.99103e-05
9.14428e-05
0.000115747
0.00015002
0.000191705
0.000232781
0.000272085
0.00030259
0.000317312
0.000318023
0.000302593
0.000273155
0.000232874
0.000192341
0.000149499
0.000117307
9.34243e-05
7.06188e-05
1.42587e-05
1.43236e-05
6.94581e-05
9.13885e-05
0.000116668
0.00014912
0.000189208
0.000231509
0.000270231
0.000300802
0.000317676
0.000316372
0.000300648
0.000271735
0.000232581
0.000191144
0.00015162
0.00011946
9.3338e-05
7.05e-05
1.43813e-05
1.43663e-05
6.99143e-05
9.17316e-05
0.000115529
0.000151673
0.000192139
0.000232533
0.00027046
0.000300833
0.000316694
0.000317689
0.000301267
0.000273752
0.000233149
0.000192489
0.00014971
0.000117686
9.32876e-05
7.03263e-05
1.43862e-05
1.42982e-05
6.99166e-05
9.19276e-05
0.000115353
0.00014977
0.000189687
0.000234887
0.000272738
0.000302019
0.000315801
0.000317001
0.000302325
0.000273258
0.000233198
0.000191673
0.000150168
0.000117771
9.34258e-05
7.03503e-05
1.43993e-05
1.44238e-05
7.02292e-05
9.30488e-05
0.000117394
0.000148499
0.000188373
0.000231657
0.0002701
0.000299529
0.000315739
0.000316238
0.00030157
0.000272204
0.000234921
0.000190827
0.000150588
0.000117432
9.37259e-05
7.07973e-05
1.44873e-05
1.44714e-05
6.96847e-05
9.19555e-05
0.000115306
0.000148773
0.000188654
0.000232577
0.000270119
0.000299541
0.000316615
0.000319963
0.00030439
0.000274852
0.000234979
0.000191479
0.000150993
0.000118433
9.31393e-05
7.07992e-05
1.45068e-05
1.44057e-05
6.99855e-05
9.2357e-05
0.000117391
0.000151175
0.000190608
0.000233493
0.000270905
0.000300463
0.000319031
0.000317207
0.000303193
0.000274279
0.000235079
0.000192645
0.000152501
0.000119126
9.33053e-05
7.10638e-05
1.44334e-05
1.43641e-05
6.98638e-05
9.27058e-05
0.000115803
0.000148747
0.000188858
0.000231294
0.000272505
0.00030225
0.000317881
0.000316994
0.000303793
0.000273533
0.000235087
0.000195221
0.000154756
0.000119847
9.24887e-05
7.02456e-05
1.42814e-05
1.4311e-05
6.97591e-05
9.23753e-05
0.000115725
0.000149116
0.000191427
0.000231699
0.000270492
0.000299524
0.000315994
0.000318071
0.000303409
0.000275338
0.000235225
0.000193393
0.000152775
0.000118844
9.33035e-05
7.04693e-05
1.43329e-05
1.43414e-05
7.00542e-05
9.24568e-05
0.000118346
0.00015124
0.000190912
0.000231675
0.000271715
0.000300318
0.000315467
0.000315019
0.000300569
0.000275703
0.000237428
0.000192527
0.000150515
0.000116663
9.22619e-05
7.06385e-05
1.4357e-05
1.43116e-05
7.00455e-05
9.32535e-05
0.000117878
0.000150258
0.000191282
0.000232143
0.000273051
0.000300006
0.000314977
0.000314988
0.000299591
0.000271054
0.000232949
0.000191408
0.000152029
0.000116827
9.2745e-05
7.08202e-05
1.44978e-05
1.42471e-05
7.00074e-05
9.26915e-05
0.00011679
0.000149087
0.000191474
0.00023187
0.000273493
0.000303225
0.000318072
0.00031816
0.000300299
0.000271229
0.000233205
0.000190814
0.000149728
0.000116583
9.28987e-05
7.06151e-05
1.44299e-05
1.42765e-05
6.9947e-05
9.2033e-05
0.000119204
0.000149092
0.000189107
0.000231378
0.0002705
0.000299427
0.000314557
0.000315785
0.000301331
0.000273536
0.000233662
0.000190289
0.000149564
0.000117753
9.31314e-05
7.06811e-05
1.4445e-05
1.42284e-05
6.97321e-05
9.12429e-05
0.000116644
0.000148756
0.00018893
0.000231583
0.000271214
0.000299812
0.000314465
0.000313421
0.000297287
0.000268694
0.000232762
0.000191117
0.000150406
0.00011554
9.1986e-05
7.05782e-05
1.43353e-05
1.43449e-05
7.04853e-05
9.27209e-05
0.000115645
0.000148904
0.00018982
0.000232445
0.000274004
0.000303726
0.000318705
0.000314924
0.000297904
0.000268415
0.000231665
0.000189255
0.000148226
0.000115355
9.16346e-05
7.03814e-05
1.42133e-05
1.44707e-05
7.019e-05
9.26377e-05
0.000115444
0.000149384
0.000192471
0.000232769
0.000275116
0.000301909
0.000318286
0.000318018
0.000299173
0.000268972
0.000231117
0.000187713
0.000148266
0.00011603
9.28904e-05
6.96987e-05
1.42048e-05
1.44368e-05
7.01327e-05
9.37416e-05
0.000116231
0.000150902
0.000189734
0.000232126
0.000274532
0.000303133
0.000317856
0.000318435
0.000302989
0.0002715
0.000230447
0.000187768
0.000148685
0.000116465
9.08611e-05
6.94869e-05
1.41261e-05
1.4482e-05
7.01014e-05
9.26399e-05
0.000115637
0.000148897
0.000190184
0.000231916
0.000271196
0.000299973
0.000315206
0.000315618
0.000300172
0.000269806
0.000230783
0.000188374
0.000148716
0.000115677
9.11252e-05
6.96415e-05
1.41657e-05
1.43617e-05
7.02649e-05
9.18778e-05
0.00011648
0.000150827
0.000189632
0.000233917
0.000274817
0.00030324
0.000316366
0.000315809
0.000300213
0.000270683
0.00023173
0.000190609
0.00015064
0.000115515
9.0958e-05
6.95093e-05
1.41008e-05
1.42337e-05
7.05605e-05
9.28128e-05
0.000116713
0.000149308
0.000189864
0.000232444
0.000274337
0.000301568
0.000317085
0.000317118
0.000303915
0.000274351
0.000233931
0.000189357
0.000149431
0.000116726
9.19095e-05
6.96168e-05
1.41271e-05
1.42128e-05
6.97647e-05
9.12322e-05
0.000117766
0.000151197
0.000191459
0.000232523
0.000271908
0.000301406
0.000318572
0.000319379
0.000303478
0.000275338
0.000235353
0.000189853
0.000150756
0.000115807
9.11333e-05
6.97189e-05
1.40628e-05
1.41472e-05
6.96213e-05
9.12064e-05
0.00011604
0.000149232
0.000189539
0.000233804
0.00027338
0.000302804
0.000320233
0.000317151
0.000301471
0.000273392
0.000233867
0.000190572
0.000149327
0.00011581
9.05654e-05
6.94875e-05
1.41005e-05
1.41233e-05
6.95558e-05
9.20789e-05
0.000117215
0.000151169
0.000191595
0.000232444
0.000272378
0.000301549
0.00031871
0.000317769
0.000302738
0.00027479
0.000234165
0.000191802
0.000151393
0.000116918
9.19609e-05
6.95092e-05
1.40859e-05
1.40987e-05
6.97703e-05
9.20911e-05
0.000116904
0.000150397
0.000188891
0.000232168
0.000273966
0.000304062
0.000316806
0.000318373
0.000301978
0.000272574
0.000232107
0.000190556
0.000150486
0.000115675
9.11127e-05
6.9732e-05
1.41602e-05
1.41513e-05
6.94192e-05
9.19835e-05
0.000117061
0.00015071
0.00018914
0.000232089
0.000272547
0.00030131
0.000316098
0.000316529
0.000300492
0.000270712
0.000233104
0.000189816
0.000150635
0.000115608
9.097e-05
6.93287e-05
1.41067e-05
1.41334e-05
6.98979e-05
9.15067e-05
0.000116905
0.000150359
0.00018971
0.000233852
0.000275344
0.000303562
0.000316337
0.00031656
0.000300025
0.000270598
0.000231713
0.000189052
0.000150241
0.000117034
9.11483e-05
6.9344e-05
1.40629e-05
1.41314e-05
6.96732e-05
9.20401e-05
0.000117193
0.000149459
0.000190645
0.000235311
0.000274458
0.000303117
0.000317036
0.000316908
0.000301216
0.000273029
0.000233089
0.00018996
0.000149197
0.000115845
9.10437e-05
6.95668e-05
1.40849e-05
1.40456e-05
6.90614e-05
9.09075e-05
0.000116962
0.000149835
0.000191312
0.000234238
0.00027268
0.000301864
0.000318308
0.000321085
0.00030559
0.000275732
0.000235892
0.000192378
0.000149749
0.000116361
9.18278e-05
6.93154e-05
1.40301e-05
1.39824e-05
6.91643e-05
9.14054e-05
0.000117366
0.000150784
0.000190986
0.000234045
0.000273585
0.0003033
0.000320163
0.000322052
0.000305583
0.000275411
0.000234736
0.000192752
0.000151796
0.000117804
9.14664e-05
6.89832e-05
1.39961e-05
1.3918e-05
6.92264e-05
9.07783e-05
0.000117245
0.000151175
0.000192046
0.000235682
0.000276718
0.000308745
0.000323873
0.000322882
0.000306579
0.00027654
0.000236595
0.000192598
0.000151763
0.000117098
9.05441e-05
6.9324e-05
1.39111e-05
1.38748e-05
6.89032e-05
9.0431e-05
0.000116492
0.000152559
0.000194689
0.000238363
0.000277787
0.000308782
0.000324623
0.000322716
0.000306324
0.000276291
0.000236075
0.000192375
0.000152
0.000117477
9.06809e-05
6.89047e-05
1.39688e-05
1.39174e-05
6.86517e-05
9.04741e-05
0.000116557
0.000151907
0.00019546
0.000241421
0.000281789
0.000310939
0.000327323
0.000324696
0.000308281
0.000278266
0.000238424
0.000193129
0.000151875
0.000116816
9.08061e-05
6.93099e-05
1.40193e-05
1.39067e-05
6.87409e-05
9.04202e-05
0.000117052
0.000152627
0.000197886
0.000242701
0.000281996
0.000313714
0.000329373
0.000328986
0.000311602
0.000281477
0.000241272
0.000195332
0.000152825
0.000118055
9.03906e-05
6.92868e-05
1.39448e-05
1.38649e-05
6.87333e-05
9.12528e-05
0.000117528
0.000154436
0.00019877
0.000244265
0.000282872
0.000312733
0.000329052
0.000329267
0.000314003
0.000282275
0.000240992
0.000195129
0.000153181
0.000117312
9.09293e-05
6.87199e-05
1.3918e-05
1.37642e-05
6.84384e-05
9.11243e-05
0.000118872
0.00015493
0.000199812
0.000246333
0.000287686
0.000317185
0.00033262
0.000332723
0.000317612
0.000284478
0.000242955
0.000197354
0.000153909
0.000118572
9.08923e-05
6.91013e-05
1.38406e-05
1.37603e-05
6.88375e-05
9.13471e-05
0.000118911
0.000155409
0.000201288
0.000248459
0.000290547
0.000319745
0.000337139
0.00033751
0.000319867
0.000287115
0.000246863
0.000199797
0.000154436
0.000118846
9.0611e-05
6.89013e-05
1.37972e-05
1.36981e-05
6.86454e-05
9.0836e-05
0.000119293
0.000156545
0.000203161
0.000251882
0.000293321
0.000321672
0.000337524
0.00033865
0.000322214
0.00029127
0.000249051
0.00020041
0.000155186
0.000119537
9.11921e-05
6.88436e-05
1.3783e-05
1.36565e-05
6.86149e-05
9.08131e-05
0.000119843
0.000157927
0.000204777
0.00025305
0.000295349
0.000326473
0.000343932
0.000343643
0.00032725
0.000295388
0.0002513
0.000203099
0.000156935
0.000119951
9.08305e-05
6.85702e-05
1.37673e-05
1.3653e-05
6.85434e-05
9.10422e-05
0.000120246
0.000158679
0.000207962
0.000255802
0.000298557
0.000330286
0.000347247
0.000347649
0.000330535
0.000297596
0.000253027
0.000203272
0.000157527
0.000120499
9.16733e-05
6.84483e-05
1.36948e-05
1.35844e-05
6.88335e-05
9.1753e-05
0.000121512
0.000160424
0.000209736
0.000259211
0.000301833
0.000333524
0.000350188
0.000350798
0.000333688
0.000300097
0.00025451
0.000205366
0.000158882
0.000120873
9.14186e-05
6.85309e-05
1.36635e-05
1.35559e-05
6.86931e-05
9.17435e-05
0.000121992
0.000161275
0.000211893
0.000261477
0.000304516
0.000336716
0.000354171
0.000353542
0.000336228
0.000303602
0.000256906
0.000207223
0.000160302
0.000121557
9.16281e-05
6.84318e-05
1.35953e-05
1.34935e-05
6.89638e-05
9.25215e-05
0.000123369
0.000162994
0.000213889
0.000264595
0.000308383
0.000340361
0.000357794
0.000357274
0.000340376
0.000307205
0.000261737
0.000210757
0.000162176
0.000122208
9.18779e-05
6.87742e-05
1.35549e-05
1.34243e-05
6.87223e-05
9.23756e-05
0.000123422
0.000163592
0.000215146
0.000266733
0.000311126
0.000343707
0.000361865
0.000362026
0.000344254
0.000310703
0.000263789
0.00021113
0.000163396
0.000122828
9.18624e-05
6.84258e-05
1.34678e-05
1.33739e-05
6.8634e-05
9.23819e-05
0.000123972
0.000164504
0.000215316
0.000269153
0.000314725
0.000348744
0.000366594
0.000366597
0.000348684
0.000314279
0.000267415
0.000213886
0.000164328
0.000122955
9.16967e-05
6.83506e-05
1.33946e-05
1.33289e-05
6.86084e-05
9.24262e-05
0.000123791
0.000165751
0.000218901
0.000271956
0.000318454
0.000352786
0.000371233
0.000371238
0.000352832
0.000317855
0.000269927
0.000214702
0.000165385
0.000123401
9.17979e-05
6.82196e-05
1.33198e-05
1.32479e-05
6.85164e-05
9.23464e-05
0.000123669
0.000164654
0.000217975
0.000273578
0.000321743
0.000357291
0.000376243
0.000376292
0.000357461
0.000321731
0.000272797
0.000216872
0.000166224
0.000123655
9.18427e-05
6.83715e-05
1.32732e-05
1.31623e-05
6.8418e-05
9.22102e-05
0.000123723
0.000165724
0.000217446
0.000275116
0.000325302
0.000361833
0.000381335
0.000381459
0.000362002
0.000325115
0.000275093
0.000218544
0.000166639
0.000123472
9.16343e-05
6.81241e-05
1.3167e-05
1.30461e-05
6.8202e-05
9.19414e-05
0.000123815
0.000167389
0.000219105
0.000275821
0.000328828
0.000366518
0.000386383
0.000386208
0.000366171
0.000328493
0.000277271
0.00021942
0.000166625
0.000122785
9.12716e-05
6.80192e-05
1.30807e-05
1.29295e-05
6.78238e-05
9.16009e-05
0.000125822
0.000170184
0.00022184
0.000279753
0.00033367
0.000371956
0.000392007
0.000391751
0.00037109
0.000332163
0.00027925
0.000220148
0.000165904
0.000121598
9.10823e-05
6.79971e-05
1.29995e-05
1.27903e-05
6.75452e-05
9.09696e-05
0.000124735
0.000170083
0.00022479
0.000286445
0.000339398
0.00037796
0.000398082
0.000397542
0.000376264
0.000336273
0.000280599
0.000221133
0.000166154
0.000121252
9.093e-05
6.79072e-05
1.28621e-05
1.26138e-05
6.71266e-05
9.05157e-05
0.000125238
0.000171279
0.000229306
0.000290302
0.000344471
0.000383946
0.000404632
0.000404212
0.000382664
0.000342455
0.000288026
0.000226861
0.000169363
0.000122975
9.0834e-05
6.75898e-05
1.26878e-05
1.24018e-05
6.6685e-05
9.00977e-05
0.000125732
0.000173836
0.000230889
0.000293939
0.00034993
0.000390643
0.000412007
0.000411641
0.000389578
0.000348422
0.000292363
0.000229716
0.000171064
0.00012528
9.05677e-05
6.73744e-05
1.24674e-05
1.21382e-05
6.60431e-05
8.94932e-05
0.000126042
0.000174624
0.000231789
0.000295924
0.000355391
0.000397681
0.000419864
0.000419733
0.000397384
0.000355519
0.000298953
0.000234101
0.000173564
0.000126015
9.03037e-05
6.67832e-05
1.21566e-05
1.18546e-05
6.54822e-05
8.90227e-05
0.00012678
0.000175837
0.000235137
0.000303344
0.000361896
0.000405104
0.000428129
0.000428249
0.000405537
0.000362813
0.000305027
0.000238822
0.00017624
0.000127432
9.01598e-05
6.6408e-05
1.18286e-05
1.14822e-05
6.47675e-05
8.8418e-05
0.000127587
0.000177228
0.000239223
0.00030578
0.000365948
0.000411401
0.000435973
0.000436606
0.000413631
0.000370211
0.000311703
0.000244415
0.000179869
0.000129313
8.99065e-05
6.56556e-05
1.13817e-05
1.10737e-05
6.38493e-05
8.79256e-05
0.000129104
0.000180758
0.000244908
0.000314925
0.000372168
0.000416363
0.000442522
0.000444189
0.000420946
0.000376607
0.000317926
0.000250563
0.000186604
0.0001313
8.96932e-05
6.48476e-05
1.09361e-05
1.06666e-05
6.30029e-05
8.77369e-05
0.00013103
0.000186796
0.000252114
0.000319968
0.000383416
0.000426184
0.000450474
0.000451148
0.000427496
0.000383075
0.0003233
0.000256012
0.000190834
0.000133419
8.97027e-05
6.40359e-05
1.04891e-05
1.02625e-05
6.24371e-05
8.81818e-05
0.000133801
0.000196167
0.000262181
0.00033082
0.000392346
0.000437746
0.000462972
0.000465278
0.000440316
0.000394989
0.000334118
0.000265396
0.000197502
0.000136978
9.00789e-05
6.3062e-05
1.00713e-05
9.87616e-06
6.1924e-05
8.94453e-05
0.00013745
0.000203153
0.000276562
0.000348401
0.000408513
0.000453903
0.000478928
0.000479761
0.000456417
0.000413484
0.00035187
0.000280522
0.000205023
0.000141113
9.10309e-05
6.23521e-05
9.78561e-06
9.56363e-06
6.2008e-05
9.23603e-05
0.000143818
0.000212494
0.000289882
0.000363737
0.000426703
0.000476017
0.000501864
0.00050253
0.000477836
0.000430426
0.000366504
0.000293282
0.000217143
0.000147485
9.31162e-05
6.18285e-05
9.57385e-06
9.4482e-06
6.16805e-05
9.57536e-05
0.000154352
0.00022909
0.000307489
0.000381847
0.000447489
0.000495255
0.000521015
0.0005217
0.000496627
0.000448315
0.000383488
0.000309076
0.000229564
0.000155818
9.64145e-05
6.17169e-05
9.57066e-06
9.55465e-06
6.20396e-05
0.000100618
0.000164426
0.000244125
0.000327454
0.000406397
0.000472582
0.00052389
0.000549968
0.000548669
0.000524226
0.00047368
0.000403191
0.000325239
0.000245086
0.000167465
0.000101685
6.21561e-05
9.64631e-06
9.77878e-06
6.28636e-05
0.000107076
0.000177131
0.000260651
0.000346631
0.000428129
0.000500196
0.000551149
0.000577103
0.000578195
0.000550047
0.000496668
0.00042565
0.000345525
0.000259963
0.00017765
0.000107573
6.29613e-05
9.85822e-06
1.01571e-05
6.43868e-05
0.000114697
0.000190061
0.000278322
0.000367302
0.000455058
0.000527806
0.000579903
0.000608975
0.00060904
0.00058099
0.000527256
0.000453349
0.000365546
0.000276586
0.000189875
0.00011466
6.4127e-05
1.01614e-05
1.05565e-05
6.59427e-05
0.00012317
0.000204126
0.000297103
0.000392005
0.000479737
0.000555209
0.000610904
0.000639692
0.000639712
0.000611103
0.000555369
0.000480025
0.000390054
0.000294858
0.00020229
0.000121902
6.5447e-05
1.05863e-05
1.11102e-05
6.71401e-05
0.000129929
0.000216763
0.000315732
0.000415953
0.000509078
0.000585178
0.000641145
0.000669556
0.000669556
0.00064131
0.000586399
0.000508099
0.000414067
0.000313482
0.000215284
0.000129243
6.66523e-05
1.11325e-05
1.1762e-05
6.8327e-05
0.000137044
0.000230406
0.000335231
0.000439459
0.000536073
0.00061445
0.0006686
0.000696161
0.000696028
0.000668174
0.000613759
0.000535679
0.00043982
0.000333729
0.000229373
0.000136628
6.83448e-05
1.17219e-05
1.2529e-05
6.98569e-05
0.000144838
0.00024455
0.000355634
0.000465466
0.000563502
0.000641772
0.000695185
0.000722142
0.000722015
0.000694757
0.000640946
0.000562114
0.000464766
0.000354987
0.000244361
0.000144921
6.97528e-05
1.25643e-05
1.35337e-05
7.12e-05
0.000153299
0.000259902
0.000377581
0.000492092
0.000591576
0.000668683
0.000720783
0.000746808
0.000746738
0.000720475
0.000667872
0.00058998
0.000491154
0.000376838
0.000259367
0.000153107
7.11075e-05
1.34778e-05
1.46226e-05
7.46814e-05
0.000164312
0.000278463
0.000403003
0.000521644
0.000621775
0.000696851
0.000746215
0.000770424
0.000770491
0.000746488
0.000697686
0.000622243
0.000521527
0.000402737
0.000278181
0.000164095
7.44694e-05
1.46466e-05
1.59081e-05
7.92066e-05
0.000177398
0.00030036
0.000432978
0.000555855
0.000655601
0.000727377
0.000772372
0.000793732
0.0007937
0.000772259
0.000727104
0.000655125
0.000555343
0.000432501
0.000300011
0.000177282
7.93745e-05
1.59159e-05
1.73542e-05
8.6761e-05
0.000194454
0.000328306
0.000469974
0.000595747
0.000692256
0.000757653
0.000796354
0.00081407
0.000814073
0.000796372
0.000757693
0.000692334
0.000595819
0.000470037
0.000328328
0.000194409
8.66097e-05
1.73289e-05
1.88459e-05
9.69724e-05
0.000217317
0.000365165
0.000516275
0.000642504
0.000731824
0.000787257
0.000817378
0.0008303
0.000830294
0.000817355
0.000787198
0.000731738
0.000642394
0.000516078
0.000364915
0.000217139
9.70271e-05
1.8874e-05
2.05018e-05
0.000112269
0.000248058
0.000413876
0.000575065
0.000696556
0.000772707
0.0008145
0.000834067
0.000840984
0.00084098
0.00083405
0.000814487
0.000772722
0.000696584
0.000575067
0.000413844
0.000248011
0.000112131
2.04744e-05
2.20997e-05
0.000132887
0.000293952
0.000488861
0.000654322
0.000758044
0.000811673
0.000834754
0.000843782
0.000847258
0.000847264
0.000843798
0.000834774
0.000811622
0.000757909
0.000654146
0.000488653
0.000293771
0.000132787
2.21196e-05
2.37579e-05
0.000165946
0.000385743
0.000610152
0.00075399
0.000817172
0.000839121
0.000846369
0.000849846
0.000851168
0.000851166
0.000849835
0.000846326
0.000839046
0.00081714
0.000754022
0.000610133
0.000385531
0.000165781
2.37549e-05
2.56263e-05
0.000278593
0.000619854
0.000787269
0.000832246
0.000844873
0.000849576
0.000851573
0.000851943
0.000851952
0.000851952
0.00085194
0.000851551
0.000849532
0.000844766
0.000832041
0.000787076
0.000619917
0.000278691
2.56277e-05
3.8435e-05
0.000108342
0.000127139
0.000143801
0.000164853
0.000200648
0.000245419
0.000292753
0.000333013
0.00035571
0.000354402
0.000329455
0.000286941
0.000238716
0.000195558
0.000164293
0.000142699
0.0001264
0.000108884
3.86812e-05
3.78324e-05
0.000107502
0.000127299
0.000144795
0.000164123
0.000204024
0.000249914
0.000297858
0.000338969
0.000361726
0.000360877
0.000335611
0.000289484
0.000240041
0.000195587
0.000167951
0.000146043
0.000126659
0.000109129
3.81343e-05
3.82707e-05
0.000110191
0.000126433
0.000146087
0.000166678
0.00020078
0.000245186
0.000292187
0.000333074
0.000356703
0.0003561
0.000334864
0.000292388
0.000241172
0.000196435
0.000164462
0.000143425
0.000127193
0.000110426
3.86446e-05
3.8617e-05
0.000112223
0.000133057
0.000150614
0.000168969
0.000201815
0.000245829
0.000292059
0.000333079
0.000356887
0.000356829
0.00033549
0.000290357
0.000245327
0.000199894
0.000159682
0.000140905
0.000129193
0.000108005
3.81775e-05
3.77822e-05
0.000110405
0.000129891
0.000148416
0.000168835
0.000205473
0.000249428
0.000293479
0.000333634
0.000358033
0.000357431
0.000335775
0.000290484
0.000243929
0.000197531
0.000160613
0.000140646
0.000125947
0.000108782
3.7727e-05
3.84436e-05
0.000108182
0.000129213
0.00014617
0.000168709
0.000204375
0.000245753
0.000294613
0.000334829
0.00036293
0.000357971
0.00033393
0.00029302
0.000244163
0.000197978
0.000164207
0.00014313
0.00012848
0.000106251
3.76839e-05
3.89462e-05
0.000109439
0.000126964
0.00014516
0.000167382
0.000203706
0.000245763
0.000293866
0.000334443
0.000356951
0.000358216
0.000337206
0.000289214
0.000242014
0.000195728
0.000160129
0.000135228
0.000125424
0.000105548
3.81275e-05
3.88558e-05
0.000110302
0.000130007
0.000142733
0.000166206
0.000203467
0.000248807
0.000298407
0.000338639
0.000357398
0.000361415
0.000333036
0.000289255
0.000246037
0.000200501
0.000160608
0.000136212
0.000127775
0.000107249
3.80439e-05
3.90072e-05
0.000111032
0.000126215
0.000145165
0.000172424
0.00019947
0.000244345
0.000294502
0.000332907
0.000356327
0.000355605
0.000336699
0.000289435
0.00024205
0.000199332
0.000163527
0.000136216
0.000120662
0.000107433
3.78172e-05
3.80495e-05
0.000107523
0.000128328
0.000146232
0.00016868
0.000200013
0.000245326
0.000292249
0.000333919
0.000360888
0.000355826
0.000334475
0.00028939
0.000244608
0.000198388
0.000156271
0.000138292
0.000123238
0.000108494
3.70665e-05
3.8552e-05
0.000108941
0.00012908
0.000149268
0.000170772
0.000201251
0.000249637
0.000293252
0.000338152
0.000358252
0.000356
0.000331222
0.000289466
0.0002412
0.000196885
0.000157551
0.000139084
0.000125079
0.00010664
3.72524e-05
3.81278e-05
0.000106682
0.000128882
0.000147364
0.000167902
0.000202202
0.000247911
0.000293398
0.00033262
0.000361504
0.00036153
0.000331969
0.000290216
0.000241841
0.000200779
0.000158911
0.000139452
0.000124636
0.000106861
3.74376e-05
3.91351e-05
0.000108394
0.00012735
0.000144708
0.000169513
0.000206764
0.000252885
0.00029465
0.000332691
0.000356538
0.00035862
0.000333398
0.000294908
0.000242338
0.000200544
0.000156957
0.000137962
0.000129692
0.000107041
3.77412e-05
3.87604e-05
0.000108005
0.000128116
0.000147728
0.000168803
0.000204678
0.000251573
0.000295152
0.000334026
0.000361095
0.000363663
0.000336733
0.000290837
0.0002439
0.00019773
0.000159414
0.000143283
0.000126642
0.000107874
3.85156e-05
3.90172e-05
0.000113072
0.000128378
0.000142735
0.000163677
0.000202802
0.000250939
0.000295114
0.000333678
0.000356411
0.000359253
0.000328984
0.000285482
0.000237254
0.000192192
0.000158589
0.000139508
0.000128892
0.000106164
3.84217e-05
3.98029e-05
0.000111695
0.000127793
0.000142542
0.0001665
0.000203731
0.000249704
0.0002993
0.000338013
0.000360734
0.000355123
0.00032713
0.000285522
0.000237873
0.000192343
0.0001569
0.000140782
0.000125136
0.000107041
3.86615e-05
3.96806e-05
0.00011324
0.000130445
0.000142443
0.000172004
0.000208383
0.000252495
0.000295703
0.000334381
0.000356444
0.000355359
0.000328004
0.000286566
0.000238752
0.000191996
0.000156882
0.000136908
0.000127852
0.000107452
3.78246e-05
3.96951e-05
0.00011097
0.000132854
0.000139776
0.000166188
0.000205983
0.000249471
0.000295718
0.000334099
0.000356834
0.000360288
0.00032931
0.000287516
0.000240442
0.000193476
0.000157464
0.000134489
0.00012507
0.000107291
3.85529e-05
3.91194e-05
0.000112083
0.000131378
0.00014294
0.000171006
0.000205923
0.000253323
0.0003012
0.000335905
0.000361382
0.000356381
0.000330446
0.000288803
0.000245438
0.000194628
0.000159046
0.000137434
0.000120616
0.000106673
3.83303e-05
3.83129e-05
0.000110178
0.000127252
0.000141737
0.000165557
0.000202096
0.000252635
0.000299513
0.000336669
0.00036254
0.000362015
0.000332274
0.000289042
0.000241582
0.000196322
0.000161573
0.000143351
0.000124373
0.000105592
3.79421e-05
3.83668e-05
0.000109642
0.000124761
0.00014151
0.000167307
0.000202291
0.00025294
0.000300564
0.000340714
0.000362776
0.000360955
0.000337517
0.000290463
0.000246405
0.000201795
0.000161671
0.000135052
0.000122795
0.00010643
3.73141e-05
3.86944e-05
0.000108289
0.000124353
0.000139018
0.000162757
0.00020258
0.000253075
0.000297912
0.000336715
0.000361553
0.000359876
0.00033681
0.000290468
0.00024323
0.000197454
0.00016546
0.00013774
0.000128863
0.000108969
3.78419e-05
3.83285e-05
0.000109202
0.000125941
0.000143381
0.000163062
0.000205522
0.000250463
0.000294954
0.000339315
0.00036674
0.00036292
0.000337636
0.000290991
0.000241244
0.000199884
0.000159044
0.000136097
0.000124042
0.000105953
3.83095e-05
3.77455e-05
0.000106067
0.000127084
0.000141603
0.000162699