/*--------------------------------*- C++ -*----------------------------------*\
  =========                 |
  \\      /  F ield         | OpenFOAM: The Open Source CFD Toolbox
   \\    /   O peration     | Website:  https://openfoam.org
    \\  /    A nd           | Version:  6
     \\/     M anipulation  |
\*---------------------------------------------------------------------------*/
FoamFile
{
    version     2.0;
    format      ascii;
    class       volScalarField;
    location    "17";
    object      p;
}
// * * * * * * * * * * * * * * * * * * * * * * * * * * * * * * * * * * * * * //

dimensions      [0 2 -2 0 0 0 0];

internalField   nonuniform List<scalar> 
130000
(
0.00687758
0.00609299
0.00555045
0.00513997
0.00478576
0.00446907
0.00418473
0.00392252
0.00367995
0.0034498
0.00322981
0.0030158
0.0028053
0.00259586
0.00238809
0.0021793
0.00197115
0.00176096
0.00154575
0.00133556
0.0101
0.00960357
0.00907205
0.00865266
0.0082623
0.00790315
0.00755067
0.00721058
0.00687223
0.00653705
0.00620207
0.00586532
0.00552945
0.00519228
0.00485521
0.00451889
0.00418562
0.00384881
0.00350777
0.00316906
0.0134432
0.0128942
0.0122712
0.0117544
0.011252
0.0107814
0.0103131
0.00986216
0.00941264
0.00897012
0.00852995
0.00809201
0.00765844
0.00722286
0.00679666
0.0063667
0.00594904
0.00552558
0.0051077
0.00468395
0.0163061
0.0158124
0.0152083
0.0146645
0.0141032
0.0135507
0.0129896
0.0124366
0.0118809
0.0113272
0.0107768
0.0102256
0.00968397
0.00914154
0.00861073
0.00807952
0.00756492
0.00704644
0.00654353
0.00603717
0.0187132
0.0183465
0.0178211
0.0173074
0.0167448
0.0161642
0.0155632
0.0149542
0.0143361
0.013708
0.01308
0.0124437
0.0118166
0.0111809
0.0105637
0.00993762
0.00933643
0.00872688
0.00814278
0.00754906
0.0208471
0.0205441
0.0200748
0.0195904
0.0190383
0.0184461
0.017825
0.0171795
0.0165191
0.0158349
0.0151488
0.0144427
0.0137479
0.0130385
0.0123478
0.0116463
0.0109724
0.0102872
0.00963273
0.00896496
0.022693
0.0224694
0.0220557
0.0216033
0.0210699
0.0204751
0.0198455
0.0191741
0.018484
0.0177551
0.0170227
0.0162599
0.0155083
0.0147314
0.0139792
0.0132052
0.0124659
0.0117087
0.0109894
0.0102457
0.0244051
0.0242214
0.0238543
0.0234387
0.0229302
0.0223386
0.0217066
0.0210177
0.0203067
0.0195437
0.0187761
0.0179662
0.0171695
0.0163402
0.0155351
0.0147046
0.0139108
0.0130946
0.0123208
0.0115178
0.0259913
0.02582
0.0254769
0.0250905
0.0246015
0.0240137
0.0233806
0.022679
0.0219523
0.0211625
0.020366
0.0195183
0.0186826
0.0178041
0.0169542
0.0160678
0.0152234
0.0143494
0.013523
0.0126553
0.0273917
0.0272572
0.0269547
0.0266013
0.0261376
0.025557
0.0249273
0.0242171
0.0234799
0.0226685
0.0218499
0.0209692
0.0201025
0.0191861
0.0182972
0.0173678
0.0164816
0.0155603
0.0146899
0.0137724
0.028772
0.0286323
0.0283406
0.0279996
0.0275463
0.0269638
0.0263334
0.025613
0.0248661
0.0240352
0.0231968
0.0222882
0.0213932
0.0204386
0.0195159
0.0185417
0.0176155
0.0166466
0.0157327
0.0147595
0.0299605
0.029854
0.0295959
0.0292822
0.0288502
0.0282725
0.0276458
0.0269193
0.0261659
0.0253189
0.0244648
0.0235307
0.0226126
0.0216283
0.0206752
0.0196665
0.0187069
0.0176988
0.0167486
0.0157329
0.0311701
0.0310404
0.0307851
0.030484
0.0300597
0.0294795
0.0288505
0.0281158
0.0273543
0.0264919
0.025622
0.0246658
0.0237249
0.0227094
0.0217288
0.0206826
0.0196893
0.0186408
0.0176531
0.0165886
0.0322282
0.0321262
0.0318949
0.0316147
0.0312007
0.0306215
0.0299922
0.0292512
0.0284831
0.027607
0.0267237
0.0257462
0.024786
0.0237457
0.0227394
0.0216638
0.0206419
0.0195596
0.0185401
0.0174379
0.0332707
0.0331795
0.0329597
0.0326826
0.0322692
0.031684
0.0310512
0.0303017
0.029526
0.0286362
0.0277386
0.026742
0.0257616
0.0246946
0.0236637
0.0225557
0.0215037
0.020386
0.0193322
0.0181869
0.0342609
0.0341784
0.0339717
0.0337032
0.0332925
0.032704
0.0320685
0.0313123
0.0305292
0.029627
0.0287166
0.0277013
0.0267029
0.0256141
0.0245596
0.0234257
0.0223472
0.0211992
0.0201156
0.0189361
0.0351618
0.0350911
0.0348993
0.0346469
0.0342417
0.0336533
0.0330158
0.0322552
0.0314649
0.0305525
0.0296283
0.0285975
0.0275795
0.026468
0.0253898
0.0242278
0.0231203
0.0219413
0.0208245
0.0196069
0.0360786
0.0359987
0.0358112
0.0355764
0.0351732
0.0345843
0.0339432
0.0331787
0.0323803
0.0314581
0.0305208
0.029474
0.0284382
0.0273074
0.026206
0.0250204
0.0238867
0.0226798
0.021533
0.0202836
0.0368981
0.0368427
0.0366733
0.0364542
0.0360556
0.035467
0.0348234
0.0340564
0.0332506
0.0323202
0.0313691
0.0303094
0.0292542
0.0281042
0.0269788
0.025769
0.0246062
0.023372
0.0221917
0.0209087
0.0377549
0.037708
0.0375486
0.037338
0.0369403
0.0363482
0.0356996
0.0349292
0.034116
0.0331774
0.0322132
0.0311396
0.0300666
0.0288989
0.0277505
0.0265185
0.0253292
0.0240684
0.0228572
0.0215432
0.0385405
0.0385117
0.0383721
0.0381798
0.0377895
0.0372004
0.036549
0.0357781
0.0349583
0.0340144
0.0330364
0.0319525
0.0308599
0.0296763
0.0285035
0.0272506
0.0260315
0.0247464
0.0235006
0.0221566
0.0393538
0.0393326
0.0392008
0.0390319
0.0386468
0.0380636
0.0374081
0.036637
0.0358096
0.0348609
0.0338701
0.0327748
0.0316641
0.0304644
0.0292681
0.0279938
0.0267473
0.0254358
0.0241573
0.0227819
0.0401508
0.0401508
0.0400334
0.0398855
0.0395056
0.0389292
0.0382701
0.0375007
0.0366653
0.0357143
0.0347095
0.0336065
0.0324755
0.0312624
0.0300407
0.0287482
0.0274705
0.0261374
0.0248224
0.0234199
0.0409725
0.040997
0.0408943
0.0407667
0.040392
0.0398218
0.03916
0.0383918
0.037548
0.0365932
0.0355754
0.0344623
0.033313
0.0320843
0.0308385
0.0295247
0.0282183
0.0268585
0.0255089
0.0240738
0.0418288
0.0418638
0.0417768
0.0416711
0.0413041
0.0407426
0.040079
0.0393142
0.0384624
0.0375058
0.0364744
0.0353552
0.0341857
0.0329451
0.031673
0.0303425
0.0290041
0.0276244
0.026237
0.0247762
0.0426711
0.0427452
0.0426786
0.0426069
0.0422521
0.0417033
0.0410404
0.0402801
0.0394219
0.0384622
0.0374187
0.0362902
0.035103
0.0338468
0.0325503
0.0311977
0.0298299
0.0284225
0.0269988
0.0255034
0.0436348
0.0437173
0.0436651
0.0436133
0.0432672
0.0427266
0.0420644
0.041308
0.0404439
0.0394819
0.0384255
0.0372904
0.0360838
0.0348152
0.0334925
0.0321222
0.0307215
0.0292928
0.02783
0.0263064
0.0445845
0.0447109
0.0446902
0.0446681
0.0443395
0.0438106
0.0431539
0.0424017
0.0415348
0.0405688
0.0395015
0.0383554
0.0371318
0.0358466
0.0344998
0.0331059
0.0316753
0.0302168
0.0287167
0.0271554
0.0456901
0.0458238
0.0458239
0.0458209
0.0455059
0.044985
0.0443332
0.0435846
0.0427155
0.0417461
0.0406672
0.0395119
0.0382697
0.0369693
0.0355971
0.0341821
0.0327184
0.0312343
0.0296944
0.0280994
0.0467956
0.0469776
0.0470159
0.0470478
0.046755
0.0462481
0.0456053
0.0448622
0.0439932
0.0430201
0.041932
0.0407641
0.0395054
0.0381865
0.0367901
0.0353492
0.0338549
0.032338
0.0307599
0.0291236
0.0480803
0.0482786
0.0483415
0.0483986
0.0481228
0.0476272
0.0469918
0.0462539
0.0453848
0.0444091
0.0433111
0.0421322
0.0408547
0.039517
0.0380949
0.0366285
0.0351005
0.0335528
0.0319337
0.030257
0.0494106
0.0496588
0.0497626
0.0498586
0.0496082
0.0491292
0.0485052
0.0477742
0.0469071
0.0459283
0.0448222
0.0436296
0.042335
0.0409764
0.0395293
0.0380347
0.0364751
0.0348915
0.0332327
0.0315103
0.0509369
0.0512054
0.0513403
0.0514658
0.0512372
0.050772
0.0501587
0.0494341
0.0485692
0.0475878
0.0464732
0.0452687
0.0439553
0.0425752
0.0411015
0.0395776
0.0379827
0.0363636
0.0346612
0.0328916
0.0525442
0.0528666
0.0530486
0.0532167
0.0530179
0.0525717
0.0519729
0.0512566
0.0503958
0.0494122
0.0482915
0.0470736
0.0457437
0.0443411
0.0428406
0.0412854
0.0396564
0.0379975
0.0362526
0.0344325
0.0543697
0.0547214
0.0549409
0.0551435
0.0549715
0.0545423
0.0539578
0.0532497
0.0523933
0.0514079
0.0502805
0.0490514
0.0477036
0.0462776
0.0447488
0.0431604
0.041493
0.0397937
0.0380012
0.0361274
0.0563133
0.0567258
0.0569986
0.0572493
0.0571124
0.056706
0.0561399
0.0554423
0.0545922
0.0536051
0.0524727
0.0512302
0.0498667
0.0484178
0.0468614
0.0452389
0.0435344
0.0417907
0.0399512
0.0380208
0.0585111
0.0589573
0.0592756
0.0595661
0.0594619
0.0590765
0.0585288
0.0578418
0.0569988
0.0560108
0.0548726
0.0536184
0.0522371
0.050764
0.0491786
0.0475202
0.045774
0.0439849
0.0420926
0.0401015
0.0608578
0.0613734
0.0617537
0.0620992
0.0620364
0.0616786
0.0611538
0.0604806
0.0596469
0.0586589
0.0575169
0.056249
0.0548517
0.0533539
0.0517392
0.0500439
0.0482573
0.046419
0.0444743
0.0424196
0.0634953
0.0640559
0.0644896
0.0648826
0.0648588
0.0645276
0.064026
0.0633671
0.0625435
0.0615565
0.06041
0.0591303
0.0577146
0.0561906
0.0545445
0.0528096
0.0509774
0.0490881
0.0470849
0.044962
0.0663216
0.0669623
0.0674668
0.0679233
0.0679478
0.0676503
0.0671768
0.0665357
0.0657248
0.0647398
0.063591
0.0622978
0.0608654
0.059315
0.0576372
0.0558616
0.0539846
0.0520405
0.0499792
0.0477854
0.0694835
0.0701772
0.0707454
0.0712577
0.0713288
0.071064
0.0706193
0.0699969
0.0691997
0.0682181
0.0670664
0.0657617
0.0643106
0.0627322
0.0610208
0.0592019
0.0572751
0.0552744
0.0531488
0.0508788
0.0728688
0.0736561
0.0743072
0.0748928
0.0750209
0.0747971
0.0743867
0.0737872
0.0730068
0.0720301
0.0708781
0.0695606
0.0680929
0.0664868
0.0647416
0.0628788
0.060903
0.0588421
0.056652
0.054303
0.0766348
0.0774891
0.0782152
0.0788673
0.0790515
0.0788684
0.078494
0.0779188
0.077157
0.0761869
0.0750346
0.0737068
0.0722205
0.0705852
0.0688044
0.0668946
0.0648646
0.0627411
0.0604799
0.0580455
0.0806686
0.0816295
0.0824519
0.0831895
0.0834416
0.0833086
0.0829765
0.0824309
0.0816913
0.0807302
0.0795805
0.0782413
0.0767389
0.0750748
0.0732581
0.0713007
0.0692172
0.0670272
0.0646943
0.0621715
0.0851307
0.0861706
0.0870836
0.0879008
0.0882208
0.0881382
0.087851
0.087337
0.0866222
0.0856724
0.0845259
0.0831781
0.0816579
0.0799636
0.0781093
0.0761012
0.0739586
0.0716993
0.0692876
0.0666695
0.0899076
0.0910688
0.0920942
0.0930113
0.0934116
0.09339
0.0931548
0.0926787
0.0919932
0.0910578
0.089918
0.0885615
0.0870263
0.0853028
0.0834107
0.0813515
0.0791503
0.0768177
0.0743263
0.0716093
0.0951505
0.0964131
0.0975469
0.098561
0.0990431
0.0990851
0.0989055
0.0984709
0.0978181
0.0969008
0.095769
0.0944075
0.0928562
0.0911027
0.0891713
0.0870581
0.0847926
0.0823839
0.079805
0.0769818
0.100768
0.10217
0.103433
0.104565
0.105142
0.105259
0.105143
0.104758
0.104143
0.103248
0.102129
0.100763
0.0991996
0.0974178
0.0954475
0.0932802
0.0909511
0.0884622
0.0857947
0.082861
0.106889
0.108415
0.109809
0.111059
0.111735
0.111932
0.111886
0.111555
0.110984
0.110117
0.109013
0.107648
0.106071
0.104262
0.102251
0.100028
0.0976293
0.0950574
0.0922931
0.0892411
0.113436
0.115124
0.11667
0.118061
0.118851
0.119142
0.119175
0.118909
0.118389
0.117555
0.116473
0.115111
0.113526
0.111691
0.109642
0.107362
0.104896
0.102237
0.0993743
0.0961992
0.120521
0.122363
0.124067
0.125603
0.126515
0.126907
0.127029
0.126835
0.126374
0.125582
0.124525
0.123173
0.121583
0.119724
0.117636
0.115299
0.112759
0.11001
0.107041
0.103735
0.128081
0.130115
0.132
0.133705
0.134757
0.135267
0.13549
0.135381
0.134989
0.134247
0.133225
0.131888
0.130298
0.128419
0.126295
0.123902
0.12129
0.118447
0.11537
0.111926
0.136217
0.138437
0.140513
0.142397
0.1436
0.144239
0.144577
0.144565
0.144252
0.143571
0.142592
0.141279
0.139692
0.137798
0.135639
0.13319
0.130501
0.127564
0.124369
0.120779
0.144866
0.147313
0.149608
0.151697
0.153073
0.153862
0.154331
0.154432
0.154213
0.153606
0.15268
0.151399
0.149826
0.147922
0.145733
0.14323
0.140467
0.137429
0.134116
0.130373
0.154119
0.156795
0.159322
0.16163
0.163196
0.164152
0.164769
0.165
0.164891
0.164372
0.163513
0.162277
0.160724
0.158818
0.156602
0.154047
0.151206
0.148067
0.144626
0.140722
0.163908
0.166857
0.169648
0.17221
0.173992
0.175141
0.175929
0.176313
0.176333
0.175921
0.175144
0.173965
0.172446
0.170546
0.168311
0.165707
0.162792
0.159548
0.155977
0.151902
0.174314
0.177541
0.180617
0.183452
0.185475
0.186841
0.187825
0.188385
0.188557
0.188274
0.187597
0.186495
0.185021
0.183139
0.180889
0.178242
0.175251
0.171902
0.168191
0.163937
0.18525
0.188807
0.192207
0.195358
0.197656
0.199275
0.200487
0.201255
0.201606
0.201477
0.200925
0.199917
0.198507
0.196656
0.194404
0.191719
0.188656
0.185197
0.181345
0.1769
0.196784
0.200686
0.204439
0.207934
0.210542
0.212448
0.213923
0.214933
0.215497
0.215553
0.215152
0.214265
0.212936
0.211133
0.208888
0.206173
0.203037
0.199471
0.195467
0.19082
0.208808
0.213113
0.217269
0.221163
0.22413
0.22637
0.228153
0.229448
0.230265
0.230543
0.230326
0.229586
0.228366
0.226629
0.224407
0.22167
0.218469
0.214789
0.21063
0.205768
0.221368
0.226098
0.230699
0.235036
0.238409
0.241034
0.243174
0.244805
0.245919
0.246464
0.246469
0.245913
0.244827
0.243181
0.240996
0.238249
0.234981
0.23119
0.226864
0.221774
0.234327
0.239552
0.24466
0.24951
0.253355
0.256431
0.258991
0.261016
0.262484
0.263345
0.263619
0.263285
0.262367
0.260838
0.258712
0.255965
0.252641
0.248733
0.244235
0.238898
0.247696
0.253454
0.259128
0.264553
0.268939
0.272535
0.275582
0.278069
0.279953
0.281189
0.281781
0.281717
0.281004
0.279623
0.277576
0.274847
0.271468
0.267445
0.262763
0.257164
0.261307
0.267683
0.274005
0.280096
0.285109
0.289309
0.292923
0.295946
0.298314
0.299987
0.300954
0.301207
0.300744
0.299545
0.297606
0.294912
0.291492
0.287352
0.282481
0.276602
0.275113
0.282173
0.289229
0.296074
0.301799
0.306686
0.310945
0.314577
0.317495
0.319668
0.321064
0.321688
0.321517
0.320542
0.318742
0.31611
0.312661
0.308417
0.303352
0.297183
0.288929
0.296767
0.304659
0.312362
0.318894
0.324552
0.329529
0.333834
0.337358
0.34008
0.341954
0.342991
0.343158
0.342449
0.340829
0.338294
0.334851
0.330521
0.32528
0.318821
0.302624
0.311328
0.320156
0.328807
0.33622
0.342707
0.348444
0.353455
0.357609
0.360904
0.363277
0.364759
0.365294
0.364894
0.363499
0.361115
0.357724
0.353361
0.34798
0.341266
0.315972
0.325621
0.335479
0.345156
0.353495
0.360825
0.367314
0.373006
0.377759
0.381598
0.38445
0.386368
0.387287
0.387227
0.386109
0.383942
0.380685
0.376369
0.370935
0.364043
0.32869
0.339358
0.350306
0.361034
0.370279
0.378386
0.385534
0.391796
0.397038
0.401318
0.404564
0.406866
0.408138
0.408429
0.407629
0.405756
0.402728
0.398587
0.393226
0.386293
0.340494
0.35218
0.364196
0.375905
0.385946
0.394667
0.402278
0.4089
0.414428
0.41896
0.422445
0.425004
0.426557
0.42717
0.426705
0.42519
0.422498
0.418667
0.413549
0.406755
0.350864
0.363564
0.376552
0.389047
0.399639
0.408703
0.416494
0.42318
0.428709
0.433237
0.436739
0.439383
0.441081
0.441933
0.441771
0.440634
0.438344
0.434947
0.430216
0.423742
0.359396
0.372959
0.386715
0.399688
0.410463
0.419485
0.427091
0.433496
0.438716
0.442952
0.446221
0.448726
0.450394
0.451347
0.45139
0.450582
0.448688
0.445754
0.441486
0.435443
0.365215
0.379534
0.393828
0.406939
0.417495
0.426051
0.433085
0.438864
0.443465
0.447134
0.449928
0.452077
0.453505
0.454363
0.454442
0.453808
0.452178
0.449607
0.445729
0.440086
0.367899
0.382687
0.397204
0.410092
0.420059
0.427792
0.433925
0.438785
0.44252
0.445391
0.44749
0.449054
0.450028
0.450564
0.450438
0.449724
0.448098
0.445624
0.441903
0.436445
0.36648
0.381611
0.396129
0.408527
0.41765
0.424325
0.429362
0.433125
0.435829
0.437728
0.438953
0.439737
0.440026
0.439966
0.43933
0.438169
0.436151
0.433359
0.429372
0.423675
0.36089
0.376078
0.390387
0.40213
0.410296
0.41584
0.419718
0.422315
0.42391
0.424736
0.424955
0.424761
0.424133
0.423183
0.421673
0.419635
0.416738
0.413085
0.40827
0.401749
0.350379
0.365643
0.379724
0.390821
0.398078
0.402573
0.405386
0.406889
0.407401
0.40711
0.406209
0.404856
0.403056
0.400866
0.39807
0.394637
0.390284
0.385109
0.378764
0.370658
0.335375
0.350561
0.364436
0.375013
0.381544
0.385205
0.387165
0.387739
0.387259
0.385858
0.383767
0.381073
0.377827
0.37402
0.369468
0.364091
0.357638
0.350203
0.341532
0.330981
0.315154
0.330503
0.344439
0.354824
0.360986
0.364162
0.365576
0.365471
0.364181
0.361737
0.3584
0.354183
0.349187
0.343315
0.336478
0.328487
0.319186
0.30861
0.29665
0.282591
0.290148
0.305694
0.319983
0.330608
0.336876
0.340048
0.341348
0.34091
0.339043
0.335673
0.331086
0.325179
0.318118
0.309718
0.299988
0.288658
0.275635
0.260894
0.244528
0.225781
0.259047
0.275295
0.290505
0.302039
0.309107
0.312938
0.314719
0.314449
0.312377
0.30829
0.302495
0.294749
0.285285
0.273806
0.26048
0.24486
0.227012
0.206811
0.184668
0.159726
0.221609
0.238827
0.25559
0.268867
0.277627
0.283024
0.286107
0.286705
0.284972
0.280527
0.273679
0.264014
0.251843
0.236722
0.218945
0.197929
0.173917
0.146752
0.117137
0.0841032
0.175172
0.194242
0.213641
0.229935
0.241691
0.249922
0.255487
0.257978
0.257398
0.253162
0.245561
0.233964
0.218769
0.199315
0.176102
0.148313
0.116525
0.0803761
0.0409545
-0.00272371
0.118172
0.139829
0.1632
0.184192
0.200717
0.213522
0.223146
0.22893
0.230656
0.227488
0.219647
0.206245
0.187757
0.16328
0.133497
0.0974039
0.0557875
0.00811099
-0.0439249
-0.101235
0.0462439
0.072185
0.101671
0.129819
0.15358
0.173338
0.189184
0.200132
0.205688
0.204711
0.197325
0.182326
0.160281
0.129972
0.0923533
0.0459806
-0.00797009
-0.0701974
-0.138292
-0.213256
-0.0432511
-0.0112278
0.0271667
0.0656978
0.0999118
0.129669
0.154476
0.172936
0.184199
0.186835
0.18084
0.164626
0.138802
0.101813
0.0547747
-0.00408102
-0.0731502
-0.153427
-0.241852
-0.339312
-0.155313
-0.113903
-0.0624924
-0.00919002
0.0396356
0.0831262
0.120072
0.148594
0.167428
0.174749
0.170463
0.152747
0.122409
0.0774075
0.0192014
-0.0544073
-0.141514
-0.243836
-0.357585
-0.483628
-0.291507
-0.236799
-0.167212
-0.0938556
-0.025797
0.035047
0.086692
0.126846
0.153952
0.166003
0.162801
0.142344
0.105797
0.0508648
-0.0206494
-0.111446
-0.219614
-0.347952
-0.492338
-0.653389
-0.454054
-0.379975
-0.28557
-0.186395
-0.0948924
-0.0140882
0.0534533
0.105201
0.139444
0.154142
0.149802
0.124364
0.0788771
0.010956
-0.0768607
-0.188116
-0.321329
-0.480839
-0.662164
-0.865976
-0.638735
-0.538224
-0.411869
-0.28184
-0.164411
-0.0635197
0.0183052
0.0785532
0.116096
0.129314
0.119146
0.0834152
0.0238731
-0.0617843
-0.170742
-0.307591
-0.471737
-0.669284
-0.895778
-1.15184
-0.839888
-0.703369
-0.537624
-0.373717
-0.231345
-0.114528
-0.0246585
0.0369078
0.0702674
0.0745665
0.0516087
-0.000891968
-0.0806749
-0.19073
-0.328273
-0.49958
-0.704759
-0.951755
-1.23605
-1.55754
-1.04466
-0.863617
-0.654436
-0.459543
-0.300398
-0.178406
-0.0915168
-0.0389451
-0.0187107
-0.0308467
-0.0732951
-0.148166
-0.253145
-0.392751
-0.565461
-0.779994
-1.0374
-1.3467
-1.70314
-2.10446
-1.24918
-1.01843
-0.771531
-0.560467
-0.402709
-0.292678
-0.222755
-0.188977
-0.188337
-0.220464
-0.283499
-0.379482
-0.507957
-0.675437
-0.883405
-1.14288
-1.45549
-1.82948
-2.2586
-2.73767
-1.46481
-1.19269
-0.930296
-0.731182
-0.598408
-0.515584
-0.470294
-0.457257
-0.474652
-0.522359
-0.599502
-0.707961
-0.850336
-1.03499
-1.26726
-1.55919
-1.91259
-2.33231
-2.81133
-3.34421
-1.74199
-1.44997
-1.19898
-1.02739
-0.920872
-0.857967
-0.827897
-0.825622
-0.850741
-0.901787
-0.979932
-1.08669
-1.22845
-1.41357
-1.65175
-1.95302
-2.32009
-2.753
-3.24637
-3.79119
-2.19291
-1.885
-1.62938
-1.44928
-1.3308
-1.25642
-1.21674
-1.20433
-1.21842
-1.25566
-1.31964
-1.41024
-1.53653
-1.70321
-1.92344
-2.20358
-2.55053
-2.96158
-3.4352
-3.94443
-2.93508
-2.57636
-2.25373
-2.00483
-1.83012
-1.71417
-1.64219
-1.59904
-1.5835
-1.59014
-1.62519
-1.68403
-1.77651
-1.90015
-2.07049
-2.2887
-2.57296
-2.92479
-3.3409
-3.73061
-3.8327
-3.43792
-3.02092
-2.68778
-2.44396
-2.2704
-2.14835
-2.06002
-2.0056
-1.97584
-1.97656
-1.99753
-2.04838
-2.11546
-2.21363
-2.33599
-2.51701
-2.76886
-3.06815
-3.13726
-4.18856
-3.99727
-3.56104
-3.14403
-2.81253
-2.56866
-2.39505
-2.26566
-2.18202
-2.12661
-2.11002
-2.11073
-2.14577
-2.18513
-2.25824
-2.3345
-2.46941
-2.64609
-2.77142
-2.33633
-3.24373
-4.06725
-3.77126
-3.29804
-2.94294
-2.69157
-2.50481
-2.36405
-2.26634
-2.20267
-2.17436
-2.17068
-2.19565
-2.23584
-2.29556
-2.36529
-2.47037
-2.58251
-2.42066
-1.8127
0.00287329
0.00280135
0.00273755
0.00267816
0.00260643
0.00253775
0.00247826
0.00242015
0.00236606
0.00231003
0.00225493
0.00219603
0.00213547
0.00206874
0.00199956
0.00192329
0.00184409
0.00175472
0.00164729
0.00152367
0.0108305
0.0107441
0.0106778
0.0106114
0.0105158
0.0104252
0.0103321
0.0102406
0.0101422
0.0100404
0.00993051
0.00981457
0.00969003
0.00955933
0.00941852
0.00927329
0.00912029
0.00895646
0.00876909
0.00858606
0.0189744
0.0189447
0.0188315
0.018734
0.0185955
0.0184643
0.0183168
0.0181757
0.0180173
0.0178614
0.0176895
0.0175178
0.0173312
0.0171425
0.0169428
0.0167413
0.016531
0.016315
0.0160764
0.015838
0.0264765
0.0264495
0.0263224
0.0262182
0.0260549
0.0258982
0.0257108
0.0255314
0.0253245
0.0251229
0.0248985
0.0246774
0.0244372
0.0242003
0.023946
0.0236959
0.0234325
0.0231687
0.0228846
0.0226068
0.0343326
0.0343149
0.0341867
0.0340833
0.0339024
0.033727
0.0335083
0.0333002
0.0330549
0.032818
0.0325502
0.0322898
0.0320035
0.0317217
0.0314202
0.0311217
0.030808
0.0304961
0.0301634
0.0298398
0.0420361
0.0420291
0.0419024
0.0418051
0.0416134
0.0414264
0.041185
0.0409562
0.0406822
0.040418
0.0401162
0.0398221
0.0394975
0.0391801
0.0388359
0.0384984
0.0381405
0.0377864
0.0374077
0.0370384
0.0497047
0.0497106
0.0495883
0.0494997
0.0493032
0.0491117
0.0488557
0.0486137
0.048318
0.0480327
0.0477019
0.0473799
0.0470208
0.0466673
0.0462853
0.0459069
0.0455069
0.0451104
0.0446873
0.0442695
0.057425
0.0574377
0.0573203
0.0572453
0.0570496
0.0568584
0.0565934
0.0563419
0.0560287
0.0557251
0.0553702
0.0550227
0.0546338
0.0542516
0.0538339
0.0534229
0.0529854
0.0525524
0.0520893
0.0516312
0.0651523
0.06518
0.0650733
0.0650144
0.0648225
0.0646337
0.0643617
0.0641028
0.0637748
0.0634562
0.0630798
0.0627106
0.0622943
0.0618814
0.0614323
0.0609848
0.0605105
0.0600379
0.059533
0.0590265
0.0729458
0.0729856
0.0728905
0.072851
0.0726658
0.0724815
0.0722053
0.0719418
0.0716024
0.0712713
0.0708773
0.0704884
0.0700484
0.069612
0.0691324
0.0686561
0.0681475
0.0676402
0.0670967
0.0665504
0.0807488
0.0808118
0.0807353
0.0807194
0.0805451
0.0803691
0.0800917
0.0798261
0.0794775
0.0791362
0.0787261
0.0783203
0.0778579
0.0773946
0.0768865
0.0763746
0.0758301
0.0752833
0.0746997
0.0741058
0.0886416
0.0887213
0.0886636
0.0886738
0.088513
0.088348
0.0880726
0.0878078
0.0874531
0.087104
0.0866805
0.0862587
0.0857761
0.085292
0.0847558
0.0842167
0.0836396
0.0830603
0.0824404
0.0818077
0.0965743
0.0966829
0.0966473
0.0966841
0.0965376
0.0963857
0.0961148
0.0958537
0.0954951
0.0951403
0.0947039
0.0942674
0.093764
0.0932549
0.0926926
0.0921212
0.0915116
0.0908948
0.0902353
0.0895529
0.10464
0.104769
0.104753
0.104815
0.104684
0.104546
0.104281
0.104025
0.103663
0.103304
0.102857
0.102406
0.101884
0.101355
0.100767
0.100169
0.0995281
0.0988773
0.0981791
0.0974539
0.112769
0.112934
0.112942
0.11303
0.112916
0.112794
0.112536
0.112285
0.111922
0.11156
0.111103
0.110641
0.110101
0.10955
0.108935
0.108304
0.107627
0.106935
0.106193
0.105414
0.121049
0.121244
0.121278
0.121393
0.121297
0.121191
0.120942
0.120697
0.120334
0.119967
0.119501
0.119026
0.118469
0.117898
0.117256
0.116596
0.115884
0.115153
0.114369
0.113544
0.129412
0.129657
0.129727
0.129872
0.129798
0.129709
0.129471
0.129233
0.12887
0.1285
0.128024
0.127536
0.126959
0.126363
0.125693
0.124999
0.124251
0.12348
0.122652
0.121774
0.137951
0.138245
0.138352
0.138527
0.138476
0.138405
0.13818
0.137949
0.137588
0.137215
0.136731
0.136227
0.135632
0.135011
0.134313
0.133587
0.132802
0.13199
0.131119
0.130191
0.146635
0.146991
0.14714
0.147345
0.14732
0.14727
0.147061
0.146839
0.146481
0.146105
0.145613
0.145095
0.144479
0.143833
0.143103
0.14234
0.141514
0.140658
0.139738
0.138754
0.155548
0.155959
0.156148
0.15638
0.156381
0.15635
0.156157
0.155944
0.15559
0.155209
0.154707
0.154173
0.153537
0.152862
0.152101
0.151299
0.150433
0.149529
0.148559
0.147516
0.164668
0.16514
0.165372
0.165631
0.165657
0.165642
0.165465
0.165258
0.164908
0.164522
0.16401
0.163459
0.162801
0.162099
0.161305
0.160464
0.159553
0.158601
0.157576
0.156472
0.174027
0.174561
0.174839
0.175125
0.175176
0.175176
0.175012
0.174809
0.174462
0.17407
0.173551
0.172983
0.172305
0.171573
0.170747
0.169865
0.168909
0.167904
0.166823
0.165651
0.183632
0.184234
0.184562
0.184877
0.184955
0.184972
0.184824
0.184626
0.184281
0.183883
0.183355
0.182771
0.182072
0.181313
0.180452
0.179531
0.178526
0.177469
0.176327
0.175088
0.193512
0.194183
0.194565
0.194913
0.195024
0.195061
0.194932
0.19474
0.194398
0.193992
0.193454
0.19285
0.192129
0.191338
0.190443
0.189476
0.188423
0.187306
0.1861
0.184785
0.203702
0.204441
0.204882
0.205267
0.205416
0.205477
0.20537
0.205186
0.204848
0.204435
0.203885
0.203262
0.202515
0.201694
0.200759
0.199748
0.198639
0.197465
0.196187
0.194796
0.214201
0.215017
0.215524
0.215954
0.216146
0.216234
0.216151
0.215977
0.215645
0.215226
0.214666
0.214021
0.213249
0.212391
0.211413
0.210348
0.20918
0.207936
0.206583
0.205103
0.225069
0.225961
0.226536
0.227014
0.227252
0.22737
0.227315
0.227153
0.226831
0.226406
0.225836
0.22517
0.224368
0.223472
0.222446
0.221327
0.220093
0.218779
0.217344
0.215776
0.236301
0.237278
0.237925
0.238456
0.238744
0.238895
0.23887
0.238723
0.238411
0.237982
0.237402
0.23671
0.235879
0.234938
0.233863
0.232681
0.231379
0.229985
0.228466
0.226797
0.247957
0.249016
0.249738
0.250324
0.250664
0.250851
0.250857
0.250726
0.250424
0.249991
0.249399
0.248684
0.247819
0.246834
0.245704
0.244459
0.243084
0.24161
0.239999
0.238227
0.26003
0.261182
0.261984
0.262632
0.263028
0.263252
0.263292
0.263176
0.262884
0.262445
0.261843
0.2611
0.260203
0.25917
0.257986
0.256672
0.255222
0.253658
0.251953
0.250067
0.272573
0.273818
0.274705
0.27542
0.275874
0.276139
0.276212
0.276113
0.275831
0.275386
0.274771
0.274001
0.273069
0.271986
0.270745
0.269359
0.267828
0.266172
0.264364
0.262359
0.285592
0.286943
0.287921
0.28871
0.289228
0.289537
0.289647
0.289566
0.289296
0.288846
0.288218
0.287418
0.286449
0.285313
0.28401
0.282547
0.280932
0.279175
0.27726
0.275127
0.299132
0.300593
0.301668
0.302537
0.303123
0.303482
0.303631
0.303573
0.303315
0.30286
0.302219
0.301388
0.300379
0.299185
0.297816
0.296269
0.29456
0.292696
0.290665
0.288396
0.313215
0.314797
0.315978
0.316936
0.317597
0.31801
0.318204
0.318171
0.317929
0.31747
0.316816
0.315953
0.314902
0.313648
0.312208
0.310572
0.308766
0.306786
0.304631
0.302216
0.327876
0.329589
0.330884
0.331938
0.33268
0.333154
0.333397
0.333393
0.333168
0.332707
0.332038
0.331144
0.330048
0.328731
0.327216
0.325486
0.323573
0.32147
0.31918
0.316605
0.343151
0.345007
0.346426
0.347586
0.348416
0.348958
0.349254
0.349284
0.349078
0.348618
0.347936
0.347007
0.345866
0.344483
0.342888
0.341058
0.339034
0.336799
0.334366
0.331621
0.359069
0.361083
0.362637
0.363912
0.364838
0.365453
0.365808
0.365876
0.365693
0.365235
0.364539
0.363577
0.362385
0.360931
0.359251
0.357315
0.355169
0.352793
0.350205
0.347277
0.375672
0.377857
0.37956
0.380963
0.381994
0.382692
0.383112
0.383223
0.383066
0.38261
0.381902
0.380904
0.379662
0.378133
0.376363
0.374313
0.372039
0.369512
0.366759
0.363637
0.392991
0.395365
0.39723
0.398774
0.399922
0.400712
0.401203
0.401363
0.401235
0.400786
0.400064
0.39903
0.397732
0.396125
0.394257
0.392085
0.389672
0.386984
0.384053
0.380722
0.411073
0.413654
0.415697
0.417397
0.418674
0.419566
0.420138
0.420353
0.42026
0.41982
0.419087
0.418014
0.41666
0.414969
0.412998
0.410697
0.408136
0.405274
0.402154
0.398599
0.429955
0.432764
0.435002
0.436872
0.438291
0.439297
0.43996
0.440237
0.440184
0.439756
0.439013
0.437902
0.436486
0.434706
0.432625
0.430185
0.427465
0.424417
0.421091
0.417295
0.449684
0.452744
0.455197
0.457255
0.458831
0.459965
0.460728
0.461077
0.461071
0.460658
0.459907
0.458757
0.457279
0.455405
0.453207
0.450619
0.44773
0.444483
0.440938
0.436883
0.470301
0.473637
0.476328
0.478593
0.480343
0.481618
0.482494
0.482924
0.482971
0.48258
0.481821
0.480633
0.479088
0.477115
0.474791
0.472045
0.468972
0.46551
0.461727
0.457393
0.491856
0.495498
0.49845
0.500946
0.502889
0.504322
0.505324
0.505847
0.505955
0.50559
0.504828
0.503599
0.501986
0.499908
0.497452
0.494536
0.491268
0.487575
0.483537
0.478903
0.514395
0.518373
0.521614
0.524365
0.526522
0.528132
0.529277
0.529904
0.530083
0.52975
0.528986
0.527718
0.526032
0.523842
0.521242
0.518144
0.514662
0.51072
0.506405
0.501444
0.537966
0.542317
0.545879
0.548914
0.55131
0.553118
0.554422
0.555169
0.555429
0.555136
0.554374
0.553065
0.551303
0.548995
0.54624
0.542946
0.539236
0.535023
0.530409
0.525096
0.562617
0.56738
0.571298
0.574648
0.57731
0.579341
0.580825
0.581707
0.58206
0.581814
0.581057
0.579708
0.577863
0.575427
0.572505
0.568997
0.565037
0.56053
0.555589
0.549893
0.588394
0.593614
0.597926
0.601628
0.604589
0.606869
0.608556
0.609593
0.610052
0.609862
0.609116
0.607724
0.605793
0.603218
0.600115
0.596375
0.592144
0.587316
0.582022
0.575909
0.615338
0.621064
0.625815
0.629908
0.633203
0.635764
0.63768
0.638891
0.639472
0.639348
0.638615
0.63718
0.635155
0.632429
0.629128
0.625133
0.620603
0.615426
0.609742
0.603175
0.643478
0.649767
0.655006
0.659539
0.663207
0.666086
0.66826
0.669669
0.67039
0.670342
0.669628
0.668146
0.66602
0.663129
0.659611
0.655338
0.650483
0.644922
0.638814
0.631751
0.672839
0.67975
0.685533
0.690554
0.694642
0.697876
0.700341
0.701975
0.702854
0.702895
0.702202
0.700674
0.698435
0.695364
0.691606
0.687026
0.68181
0.67583
0.669255
0.66165
0.70341
0.711012
0.717398
0.722966
0.727523
0.731157
0.733949
0.735837
0.736894
0.737036
0.736372
0.734791
0.732433
0.729164
0.725144
0.720228
0.71462
0.708177
0.701095
0.6929
0.735159
0.743518
0.750572
0.756744
0.761822
0.765901
0.769058
0.771228
0.772486
0.772743
0.772112
0.77048
0.767991
0.764508
0.760201
0.754919
0.74888
0.741937
0.734299
0.725463
0.767973
0.777161
0.784946
0.791781
0.797431
0.802
0.805557
0.80804
0.809519
0.809906
0.809317
0.807635
0.805012
0.801305
0.796696
0.791025
0.784527
0.777045
0.768813
0.759292
0.801673
0.811738
0.820301
0.827846
0.834108
0.8392
0.843185
0.846002
0.847722
0.848256
0.847721
0.846
0.84325
0.839322
0.834407
0.828338
0.821363
0.813324
0.804467
0.794226
0.835895
0.846858
0.856215
0.864487
0.871379
0.877009
0.881435
0.884599
0.886572
0.88727
0.886813
0.88508
0.882234
0.878118
0.872927
0.866487
0.859056
0.850468
0.840993
0.830028
0.870077
0.881898
0.892006
0.900958
0.908442