/*--------------------------------*- C++ -*----------------------------------*\
  =========                 |
  \\      /  F ield         | OpenFOAM: The Open Source CFD Toolbox
   \\    /   O peration     | Website:  https://openfoam.org
    \\  /    A nd           | Version:  6
     \\/     M anipulation  |
\*---------------------------------------------------------------------------*/
FoamFile
{
    version     2.0;
    format      ascii;
    class       volScalarField;
    location    "17";
    object      p;
}
// * * * * * * * * * * * * * * * * * * * * * * * * * * * * * * * * * * * * * //

dimensions      [0 2 -2 0 0 0 0];

internalField   nonuniform List<scalar> 
10000
(
-0.00198324
-0.00580375
-0.00596383
-0.00186922
0.000641443
0.00227871
0.00373033
0.00519388
0.00661692
0.00741403
0.00753291
0.00658174
0.00430797
0.000732823
-0.00426295
-0.00995273
-0.0159546
-0.02158
-0.0186381
-0.00953382
-0.0159593
-0.0177531
-0.00834972
0.0104786
0.0268665
0.0377197
0.0438271
0.0475779
0.0502197
0.0517767
0.0526411
0.0521277
0.0513155
0.0491638
0.04519
0.0372583
0.0239152
0.00852236
0.000265777
-0.000313282
0.0404189
0.0362448
0.0381589
0.0482084
0.061921
0.0758276
0.0874097
0.095859
0.101387
0.104593
0.106003
0.105951
0.104577
0.102634
0.10067
0.0988198
0.0967466
0.0943846
0.090416
0.0852274
0.124689
0.126748
0.127939
0.131782
0.13798
0.144706
0.15098
0.156256
0.160179
0.162971
0.164765
0.166054
0.167153
0.168374
0.169645
0.17107
0.171474
0.169855
0.166508
0.162495
0.226776
0.23423
0.235224
0.231176
0.226782
0.223542
0.222375
0.222704
0.223923
0.225369
0.226951
0.228986
0.231403
0.234971
0.239234
0.244089
0.248925
0.251898
0.250224
0.24519
0.296852
0.301319
0.30281
0.299253
0.293826
0.28873
0.285322
0.283705
0.283513
0.284172
0.285223
0.286721
0.288973
0.292212
0.29639
0.301291
0.3059
0.308816
0.308216
0.305959
0.34029
0.337076
0.336239
0.335278
0.334329
0.334292
0.334791
0.33574
0.336935
0.338225
0.339625
0.341145
0.342548
0.343679
0.3441
0.34375
0.343028
0.34218
0.342569
0.346279
0.38845
0.384329
0.383989
0.385417
0.386917
0.388836
0.3905
0.391905
0.392902
0.393788
0.394234
0.39425
0.393816
0.392372
0.389791
0.386259
0.382899
0.380824
0.381245
0.385445
0.453184
0.453223
0.454826
0.456697
0.457474
0.456768
0.45537
0.454013
0.452989
0.452119
0.451198
0.449848
0.447474
0.443929
0.43929
0.433655
0.428348
0.425259
0.426423
0.430975
0.522342
0.525021
0.526151
0.525437
0.523828
0.52106
0.518105
0.515582
0.513714
0.512445
0.511552
0.51046
0.509187
0.507438
0.5054
0.50336
0.501328
0.500316
0.500808
0.501149
0.573666
0.572575
0.572177
0.572631
0.573279
0.573587
0.573276
0.572656
0.571998
0.571571
0.57142
0.57199
0.573137
0.575665
0.579348
0.584078
0.589033
0.592604
0.591357
0.58439
0.62194
0.620227
0.619264
0.620118
0.622293
0.624686
0.626345
0.627372
0.627853
0.628241
0.628544
0.629259
0.630681
0.632976
0.636209
0.640312
0.644433
0.647287
0.647073
0.643837
0.669125
0.667167
0.666042
0.667572
0.67109
0.675238
0.67882
0.681327
0.682923
0.683853
0.684611
0.685256
0.685707
0.685992
0.686082
0.685765
0.685262
0.684818
0.685381
0.688093
0.724117
0.725808
0.727859
0.730647
0.733429
0.735785
0.737589
0.738954
0.73994
0.740712
0.741303
0.741546
0.741764
0.741352
0.74044
0.738877
0.73703
0.735666
0.73515
0.736476
0.785463
0.791838
0.795632
0.795782
0.794746
0.793867
0.793822
0.794344
0.795122
0.795738
0.796248
0.796542
0.796483
0.795993
0.794822
0.792511
0.789673
0.787258
0.786378
0.78752
0.840513
0.839533
0.838841
0.839604
0.841513
0.844179
0.84675
0.848749
0.850104
0.851043
0.851542
0.851542
0.851493
0.851162
0.850769
0.850215
0.849392
0.848284
0.847178
0.846722
0.912111
0.912378
0.910554
0.907628
0.906072
0.905898
0.906376
0.907037
0.907548
0.907683
0.907384
0.906767
0.905545
0.904307
0.903343
0.903305
0.904535
0.905671
0.905114
0.902697
0.978124
0.978097
0.97738
0.974751
0.971778
0.969515
0.968291
0.967965
0.968004
0.967948
0.967642
0.966734
0.965277
0.962576
0.958619
0.953999
0.949464
0.946506
0.947876
0.952189
1.04667
1.04623
1.04649
1.04491
1.04171
1.0381
1.0351
1.03317
1.0322
1.03178
1.03179
1.03209
1.03244
1.03283
1.0331
1.03289
1.03247
1.03244
1.03266
1.03222
1.11714
1.11648
1.11623
1.11449
1.11084
1.10619
1.1018
1.09861
1.09658
1.09568
1.09541
1.09597
1.09779
1.10129
1.10692
1.11427
1.12165
1.12651
1.12521
1.11824
1.17161
1.17079
1.17033
1.16942
1.16733
1.16417
1.16087
1.15799
1.15599
1.15481
1.15451
1.15508
1.15623
1.15864
1.16215
1.16654
1.1712
1.17429
1.17459
1.17345
1.20561
1.20324
1.20352
1.20603
1.20869
1.21034
1.21092
1.21057
1.21
1.20966
1.20979
1.21008
1.21076
1.21089
1.21006
1.20801
1.20515
1.20279
1.20367
1.20949
1.24165
1.23926
1.24005
1.24446
1.25008
1.25476
1.25802
1.2598
1.26069
1.26106
1.26139
1.26172
1.26188
1.26155
1.26045
1.25811
1.25498
1.25223
1.25166
1.25433
1.29531
1.29597
1.29562
1.29678
1.30001
1.3039
1.3077
1.31068
1.31257
1.31361
1.31384
1.31327
1.31198
1.3098
1.30739
1.30548
1.30428
1.30419
1.30455
1.30413
1.3558
1.35583
1.35438
1.35554
1.35872
1.3624
1.36591
1.36846
1.36998
1.3705
1.37043
1.36966
1.36786
1.36506
1.3613
1.35699
1.3532
1.35154
1.35313
1.35562
1.42649
1.43018
1.43179
1.4316
1.43103
1.43082
1.43109
1.43152
1.43186
1.43185
1.43142
1.43046
1.4294
1.42813
1.42682
1.42555
1.42412
1.42288
1.42312
1.42389
1.49984
1.50422
1.50656
1.50384
1.49955
1.49621
1.49429
1.49358
1.4937
1.49397
1.49425
1.49461
1.49501
1.49607
1.49786
1.50051
1.50329
1.50466
1.50472
1.5031
1.56646
1.56878
1.5698
1.56728
1.56318
1.55927
1.55658
1.55529
1.55508
1.55561
1.55657
1.558
1.56043
1.56396
1.5687
1.57436
1.57973
1.58333
1.58389
1.58113
1.6194
1.61548
1.61461
1.61508
1.61507
1.61475
1.61422
1.61376
1.61373
1.61421
1.61525
1.61697
1.61936
1.62294
1.62751
1.6327
1.63769
1.64121
1.64194
1.63979
1.67567
1.67193
1.6709
1.67096
1.67105
1.67138
1.67155
1.67155
1.67155
1.67178
1.67233
1.67304
1.67408
1.6748
1.67506
1.67479
1.67413
1.67344
1.67427
1.67712
1.73318
1.7299
1.72813
1.72818
1.72848
1.72882
1.72888
1.72868
1.7283
1.72773
1.72714
1.72649
1.72543
1.72358
1.72074
1.71685
1.71312
1.71086
1.71137
1.71464
1.79438
1.79455
1.79438
1.79433
1.79353
1.79188
1.78973
1.78761
1.78575
1.78419
1.78248
1.78041
1.77769
1.77378
1.76876
1.76282
1.75697
1.75345
1.75428
1.75735
1.84443
1.84766
1.84875
1.84721
1.8449
1.84299
1.84181
1.8411
1.84067
1.84032
1.83991
1.83924
1.83782
1.83587
1.83339
1.83055
1.82767
1.82563
1.8248
1.82339
1.88307
1.8774
1.87449
1.87595
1.87986
1.88517
1.89023
1.89412
1.89651
1.89818
1.89923
1.90023
1.90138
1.90314
1.90576
1.90927
1.91292
1.91515
1.91229
1.90447
1.95332
1.95239
1.95086
1.95059
1.95197
1.95387
1.95566
1.95704
1.95798
1.95849
1.95887
1.95945
1.96022
1.96173
1.96391
1.96668
1.96948
1.97128
1.97035
1.9674
2.03426
2.04149
2.04422
2.04142
2.03645
2.03054
2.02573
2.02245
2.02064
2.01952
2.01885
2.0182
2.01793
2.01769
2.01749
2.01727
2.01683
2.01641
2.01715
2.01977
2.08943
2.09247
2.09424
2.09288
2.08971
2.08574
2.08216
2.07946
2.07778
2.07675
2.07628
2.07613
2.07618
2.07633
2.07647
2.0766
2.0767
2.07671
2.07658
2.07684
2.12778
2.12473
2.12441
2.12666
2.12935
2.13161
2.13254
2.13264
2.13226
2.13213
2.132
2.13204
2.13212
2.13205
2.13187
2.13157
2.13109
2.13051
2.12997
2.12976
2.17274
2.17117
2.17131
2.174
2.1779
2.18198
2.18504
2.18709
2.18812
2.1887
2.18903
2.18938
2.18936
2.18912
2.18831
2.18696
2.18541
2.18406
2.18327
2.18294
2.22933
2.22827
2.22734
2.22906
2.2325
2.23665
2.24046
2.24366
2.24582
2.2474
2.2484
2.24931
2.24998
2.25038
2.25014
2.24921
2.24778
2.24651
2.24567
2.24514
2.30569
2.30807
2.30844
2.30814
2.30749
2.30681
2.3064
2.30651
2.307
2.30774
2.30858
2.30984
2.3113
2.31332
2.31557
2.31795
2.31993
2.32087
2.31966
2.3171
2.38094
2.38714
2.38926
2.38566
2.37969
2.37386
2.36963
2.36714
2.36582
2.36542
2.36517
2.36537
2.36585
2.36704
2.36932
2.37302
2.37741
2.38063
2.37962
2.37529
2.43086
2.42887
2.42865
2.42856
2.4276
2.42619
2.42455
2.42284
2.42133
2.42011
2.41902
2.41768
2.41557
2.41242
2.40812
2.40347
2.39931
2.39665
2.39796
2.40336
2.47876
2.4765
2.47628
2.4772
2.47839
2.47919
2.47919
2.47862
2.47772
2.47673
2.47561
2.47411
2.47195
2.46849
2.46308
2.45591
2.44813
2.44256
2.4431
2.44914
2.52612
2.52292
2.52161
2.5235
2.52662
2.52989
2.53243
2.53429
2.53534
2.53594
2.53612
2.53618
2.5359
2.53589
2.53591
2.53573
2.53528
2.53503
2.53361
2.53007
2.59026
2.58925
2.58809
2.58929
2.59145
2.59359
2.59516
2.59647
2.59736
2.5984
2.59926
2.6006
2.60243
2.60545
2.60971
2.61533
2.62128
2.62549
2.62349
2.61554
2.668
2.67282
2.6732
2.67048
2.66712
2.66408
2.66185
2.66049
2.65981
2.65967
2.65997
2.66118
2.66319
2.66655
2.67096
2.67634
2.68132
2.68398
2.68274
2.67905
2.7323
2.73549
2.73699
2.73544
2.73166
2.72728
2.72352
2.7207
2.71885
2.71789
2.71765
2.71807
2.71892
2.7199
2.72071
2.72125
2.7212
2.72046
2.72081
2.72371
2.78173
2.78257
2.78338
2.78336
2.78192
2.77959
2.77724
2.77531
2.77389
2.77308
2.7727
2.77258
2.7722
2.77143
2.76999
2.76784
2.7656
2.76396
2.76398
2.76586
2.82778
2.82327
2.81994
2.82058
2.82337
2.82653
2.82875
2.83
2.83021
2.83011
2.82951
2.82864
2.827
2.82439
2.8205
2.81583
2.81119
2.80804
2.80808
2.80989
2.89137
2.89151
2.8912
2.89162
2.89273
2.8937
2.89388
2.8936
2.89292
2.89226
2.89156
2.89103
2.89012
2.88886
2.88677
2.88411
2.88107
2.87862
2.87771
2.87669
2.95552
2.96296
2.96815
2.96925
2.96738
2.96372
2.95986
2.95685
2.95476
2.9539
2.95369
2.95451
2.95609
2.95887
2.96237
2.9661
2.96882
2.96966
2.96652
2.95876
2.99851
3.00272
3.00537
3.0069
3.00781
3.00823
3.00828
3.00822
3.00814
3.00852
3.00927
3.01096
3.01327
3.01691
3.0211
3.02552
3.02889
3.02979
3.02723
3.02201
3.04334
3.04186
3.04094
3.04308
3.04777
3.05329
3.05773
3.06064
3.06203
3.0628
3.06304
3.06323
3.06317
3.06317
3.06296
3.06302
3.06337
3.06325
3.06292
3.06342
3.11823
3.12185
3.12404
3.12453
3.12492
3.12488
3.1243
3.12344
3.12246
3.12134
3.12021
3.11881
3.11665
3.11316
3.10795
3.10134
3.09482
3.09055
3.0921
3.0983
3.19151
3.19956
3.20388
3.20218
3.19803
3.19314
3.1888
3.18543
3.18307
3.18125
3.17974
3.17818
3.17642
3.17396
3.17047
3.1663
3.16201
3.1596
3.16018
3.16113
3.23868
3.23787
3.23888
3.24063
3.24167
3.24231
3.24234
3.24195
3.24132
3.24093
3.2407
3.24104
3.24159
3.24302
3.24514
3.24791
3.25024
3.25135
3.24908
3.24178
3.29133
3.28999
3.29155
3.29523
3.29814
3.29988
3.30043
3.30053
3.3003
3.30051
3.30101
3.30233
3.30438
3.30761
3.31175
3.31669
3.321
3.32313
3.32093
3.31439
3.35478
3.35827
3.36
3.36032
3.36046
3.36054
3.36049
3.36031
3.36003
3.36008
3.36049
3.36164
3.36318
3.36563
3.36851
3.37172
3.37499
3.37735
3.37662
3.37376
3.4189
3.41866
3.41727
3.41686
3.41759
3.4189
3.41998
3.42062
3.42099
3.42143
3.42222
3.42349
3.42522
3.42685
3.42733
3.42632
3.42409
3.42189
3.42128
3.42338
3.49407
3.49688
3.49783
3.49718
3.49511
3.49183
3.48827
3.48533
3.4834
3.48243
3.48233
3.48311
3.48436
3.4859
3.48709
3.48736
3.48691
3.48578
3.48383
3.48186
3.55374
3.55986
3.56275
3.56103
3.55701
3.55209
3.5475
3.54369
3.54083
3.53898
3.53773
3.53684
3.53608
3.53541
3.53494
3.53514
3.53591
3.53615
3.53411
3.52977
3.58614
3.58323
3.58341
3.58668
3.59077
3.59437
3.59645
3.59672
3.59582
3.59451
3.59324
3.59195
3.58998
3.58681
3.58188
3.57529
3.56841
3.56315
3.56285
3.56599
3.63604
3.63591
3.63685
3.64009
3.64487
3.64945
3.65249
3.65387
3.65408
3.65363
3.65315
3.65243
3.65176
3.65043
3.64809
3.64484
3.64078
3.63763
3.63609
3.63383
3.70793
3.71261
3.71361
3.71297
3.7131
3.71384
3.71484
3.71579
3.71638
3.71676
3.71715
3.71799
3.71904
3.72105
3.72394
3.72731
3.73048
3.73196
3.72826
3.71754
3.79297
3.79693
3.79682
3.7951
3.7929
3.79067
3.78872
3.78708
3.7857
3.78459
3.78399
3.78387
3.78474
3.78642
3.78871
3.7914
3.79388
3.79506
3.79292
3.78606
3.87955
3.88649
3.88804
3.88433
3.8778
3.87037
3.86368
3.85826
3.85443
3.85169
3.85019
3.8497
3.84996
3.85078
3.85174
3.85218
3.85222
3.85161
3.85116
3.85031
3.93666
3.94296
3.94491
3.94245
3.93728
3.93124
3.92563
3.92097
3.91775
3.91578
3.91526
3.91571
3.9177
3.92042
3.92364
3.92692
3.92939
3.93054
3.92999
3.92719
3.9671
3.96604
3.96564
3.96796
3.97091
3.97351
3.97507
3.97557
3.9755
3.97576
3.97678
3.97924
3.98275
3.98762
3.99318
3.99833
4.0025
4.00481
4.005
4.00167
4.01508
4.01364
4.01354
4.01794
4.02387
4.02967
4.03386
4.03643
4.03775
4.0389
4.04047
4.04277
4.04624
4.05045
4.05524
4.0602
4.06432
4.06693
4.06761
4.06434
4.09982
4.1091
4.11249
4.11261
4.11158
4.10969
4.10792
4.10655
4.10579
4.10559
4.10621
4.10785
4.10972
4.11175
4.11339
4.11408
4.114
4.11361
4.11388
4.11146
4.1901
4.20544
4.21184
4.20933
4.20197
4.19278
4.18491
4.17935
4.17623
4.17468
4.17476
4.17572
4.17797
4.17995
4.18048
4.17846
4.17327
4.16726
4.16448
4.16163
4.25805
4.26986
4.27678
4.27683
4.27109
4.26232
4.25381
4.24732
4.24333
4.24168
4.24196
4.24419
4.24755
4.25206
4.25636
4.25862
4.25819
4.25509
4.24844
4.236
4.30409
4.31032
4.31683
4.32272
4.32415
4.32139
4.31594
4.31053
4.30652
4.3048
4.30499
4.30678
4.31029
4.31488
4.31992
4.32427
4.32634
4.32473
4.31659
4.30095
4.34128
4.35015
4.35947
4.36911
4.37529
4.37641
4.37355
4.36927
4.36544
4.36303
4.36215
4.36292
4.36425
4.36579
4.36652
4.36528
4.36192
4.35632
4.34859
4.33744
4.36914
4.3786
4.38836
4.40165
4.41366
4.4209
4.42325
4.42259
4.42104
4.41964
4.41919
4.4189
4.41877
4.41666
4.41174
4.40316
4.39177
4.38075
4.3736
4.36726
4.40826
4.41978
4.42964
4.44397
4.45873
4.46935
4.47494
4.4768
4.47704
4.47689
4.47718
4.47783
4.47816
4.47708
4.4737
4.46654
4.45642
4.44592
4.43652
4.42432
4.46727
4.48301
4.49224
4.50263
4.51467
4.52472
4.53115
4.53448
4.53591
4.5365
4.53697
4.53729
4.53787
4.53763
4.53652
4.53355
4.5283
4.52132
4.51059
4.49185
4.53813
4.55122
4.55752
4.56548
4.57629
4.58622
4.59305
4.59656
4.59788
4.59794
4.59758
4.5969
4.59554
4.59307
4.58913
4.58326
4.57616
4.5694
4.56207
4.54847
4.62472
4.63737
4.64089
4.6436
4.64892
4.65496
4.65962
4.66216
4.66319
4.66305
4.66257
4.66116
4.65893
4.65438
4.64754
4.63856
4.62922
4.62304
4.62034
4.61332
4.71531
4.72387
4.72131
4.71763
4.71789
4.72143
4.72578
4.72928
4.7313
4.73214
4.73221
4.73171
4.73044
4.72807
4.72489
4.72126
4.71874
4.71931
4.71898
4.70897
4.82074
4.82212
4.81274
4.80405
4.80104
4.80273
4.80597
4.80889
4.81032
4.81079
4.81033
4.80956
4.80849
4.80768
4.80812
4.81061
4.81633
4.82503
4.82841
4.81732
4.95274
4.95792
4.94725
4.92999
4.91613
4.90719
4.90203
4.89922
4.89753
4.89635
4.89558
4.89541
4.89576
4.8969
4.89903
4.90304
4.90989
4.92056
4.92872
4.92605
5.07331
5.0821
5.07266
5.04993
5.02734
5.00933
4.99735
4.99023
4.98634
4.98449
4.98417
4.9857
4.98914
4.99537
5.00476
5.01766
5.03398
5.0526
5.06225
5.05691
5.15813
5.16077
5.15229
5.134
5.11531
5.09944
5.08794
5.08042
5.07593
5.07405
5.0742
5.07721
5.08324
5.09383
5.10928
5.13044
5.15521
5.17919
5.18757
5.17874
5.23791
5.24702
5.24675
5.23228
5.21466
5.19686
5.18202
5.17169
5.16569
5.16371
5.16503
5.17056
5.17969
5.19349
5.21085
5.23083
5.25113
5.2684
5.27207
5.26657
5.30324
5.32184
5.33253
5.32337
5.30762
5.28899
5.27215
5.25994
5.25301
5.25102
5.25318
5.26007
5.27152
5.2879
5.30745
5.32831
5.34638
5.35774
5.34958
5.33444
5.33975
5.36327
5.38745
5.39073
5.38529
5.37316
5.35883
5.34632
5.33797
5.33473
5.33577
5.34195
5.35179
5.36544
5.38105
5.39526
5.40399
5.40235
5.37707
5.35184
5.34517
5.3755
5.41793
5.43664
5.44402
5.44145
5.43259
5.42198
5.4139
5.40973
5.40976
5.41318
5.41922
5.42489
5.42687
5.42117
5.40473
5.37877
5.3363
5.31292
5.32267
5.35034
5.40683
5.44055
5.46498
5.47857
5.48252
5.48025
5.47658
5.47383
5.47278
5.47308
5.47272
5.46826
5.45645
5.43349
5.40135
5.36408
5.30901
5.2841
5.32729
5.33778
5.39634
5.43429
5.47151
5.50237
5.52182
5.53071
5.53368
5.53364
5.53241
5.52876
5.52213
5.50833
5.48632
5.45648
5.42371
5.39107
5.33272
5.31662
5.44877
5.43283
5.48272
5.49735
5.51949
5.54747
5.5711
5.58543
5.59252
5.59486
5.59443
5.59107
5.58314
5.56922
5.54955
5.52729
5.51041
5.49728
5.44431
5.45634
5.71463
5.6539
5.69101
5.66332
5.64373
5.64418
5.65388
5.66203
5.66644
5.66782
5.6677
5.6657
5.6623
5.65727
5.65385
5.65993
5.6823
5.7086
5.66735
5.72625
6.0648
5.93313
5.9719
5.90667
5.83813
5.79746
5.77929
5.7708
5.76574
5.76296
5.76236
5.7652
5.77012
5.78095
5.80261
5.84538
5.91388
5.97891
5.93972
6.0708
6.36486
6.12578
6.19654
6.12747
6.03403
5.96605
5.92628
5.90411
5.89141
5.88508
5.88422
5.88955
5.90194
5.92537
5.96526
6.03261
6.12366
6.19151
6.1206
6.35862
6.48364
6.0734
6.21195
6.19318
6.12427
6.06584
6.03015
6.01001
5.99802
5.99234
5.99138
5.9971
6.00812
6.02891
6.06427
6.11976
6.1848
6.19947
6.05957
6.47126
6.48691
5.81308
6.04473
6.10679
6.08666
6.05508
6.03442
6.02367
6.01723
6.01441
6.01466
6.01808
6.02512
6.03707
6.05737
6.08626
6.10283
6.0379
5.80786
6.48764
6.75988
5.69169
5.9984
6.08836
6.06556
6.02828
6.005
5.9928
5.98564
5.98241
5.98286
5.98734
5.99442
6.00917
6.03015
6.06742
6.08526
5.99808
5.69689
6.77177
7.85968
5.9022
6.12451
6.21131
6.17123
6.12119
6.09318
6.07863
6.07101
6.06652
6.06716
6.06976
6.07616
6.09188
6.11787
6.16997
6.21246
6.12952
5.90786
7.8562
9.89318
5.4837
5.57342
5.95615
6.04874
6.04941
6.0471
6.04648
6.04531
6.04432
6.04428
6.04531
6.04608
6.04702
6.04909
6.04861
5.95649
5.57424
5.48453
9.8929
-0.0576927
-0.0366472
-0.0416085
-0.0182529
-0.0154578
-0.021301
-0.0243244
-0.0230673
-0.0202743
-0.0185761
-0.018476
-0.0206164
-0.0246973
-0.0293294
-0.0331398
-0.0364526
-0.0485707
-0.077361
-0.075066
-0.0915389
-0.00258848
0.0175853
0.0206181
0.0559903
0.0800487
0.0869878
0.0854422
0.0833389
0.0821171
0.0797769
0.0759511
0.068111
0.0585149
0.0459349
0.0313722
0.00939374
-0.0263564
-0.0675504
-0.0801039
-0.114052
0.237046
0.203363
0.191869
0.196561
0.201658
0.203189
0.200941
0.196684
0.192036
0.186346
0.178383
0.166212
0.148212
0.123418
0.0921622
0.0582072
0.0307067
0.013589
0.00363232
-0.000658725
0.347789
0.315501
0.29535
0.293535
0.299698
0.304866
0.30633
0.30463
0.301241
0.295923
0.288288
0.276578
0.260076
0.236256
0.203083
0.158665
0.104005
0.0510807
0.0315537
0.0425399
0.372549
0.359579
0.348045
0.357669
0.381893
0.40699
0.422851
0.428888
0.428927
0.426418
0.42188
0.416354
0.409867
0.404147
0.399807
0.395329
0.387071
0.373393
0.351201
0.329813
0.465562
0.479709
0.48679
0.499484
0.517293
0.534373
0.54713
0.555021
0.557993
0.559238
0.5586
0.559262
0.562277
0.572204
0.592331
0.62506
0.66399
0.692024
0.684205
0.647427
0.649449
0.68256
0.690446
0.675352
0.664645
0.662846
0.668837
0.67758
0.684782
0.689735
0.693589
0.699044
0.706214
0.716922
0.73149
0.751739
0.773515
0.787786
0.796835
0.79808
0.782036
0.806474
0.818276
0.819725
0.816154
0.813418
0.813915
0.816375
0.819326
0.821881
0.824879
0.828715
0.834465
0.839978
0.843083
0.840489
0.833147
0.827032
0.839111
0.865062
0.926861
0.956375
0.984953
0.992876
0.985731
0.974584
0.965861
0.959997
0.956929
0.955136
0.954292
0.953534
0.952565
0.950935
0.946929
0.937737
0.92633
0.919894
0.927505
0.946692
1.02483
1.02629
1.04242
1.05794
1.07094
1.08171
1.08868
1.09247
1.09423
1.09478
1.09439
1.0926
1.08873
1.08105
1.06784
1.0498
1.02831
1.0109
1.01307
1.02871
1.19889
1.16881
1.16896
1.19344
1.21906
1.23705
1.24544
1.24868
1.24893
1.2484
1.24722
1.24571
1.24236
1.2379
1.23242
1.22647
1.21969
1.21328
1.20905
1.2027
1.49926
1.49189
1.48563
1.47226
1.4532
1.43411
1.41969
1.4107
1.40457
1.40149
1.39968
1.39987
1.40144
1.4058
1.41409
1.42842
1.44881
1.47114
1.47149
1.44364
1.63485
1.64406
1.62829
1.59872
1.56762
1.54536
1.53347
1.5286
1.52709
1.52833
1.53167
1.53898
1.55043
1.56708
1.58653
1.60591
1.62199
1.63464
1.64092
1.6339
1.61243
1.59019
1.57642
1.59213
1.60748
1.61614
1.62004
1.62344
1.62707
1.63193
1.63705
1.64375
1.65277
1.66604
1.68495
1.70999
1.73768
1.76065
1.7725
1.77628
1.65069
1.63903
1.63398
1.64667
1.66748
1.68702
1.70269
1.71491
1.72436
1.73098
1.73524
1.73701
1.73458
1.72775
1.71771
1.71048
1.71214
1.72144
1.74161
1.76795
1.69937
1.69403
1.6947
1.71677
1.75244
1.78961
1.81863
1.83702
1.84832
1.85435
1.85699
1.85466
1.84737
1.83126
1.8047
1.76687
1.72272
1.688
1.69243
1.72555
1.90717
1.92249
1.93696
1.95056
1.96497
1.97788
1.98921
1.99774
2.00381
2.00685
2.00773
2.00492
1.9978
1.98577
1.97022
1.94969
1.92607
1.90539
1.88838
1.87412
2.241
2.27111
2.27842
2.25331
2.22213
2.19654
2.18129
2.17437
2.17195
2.17082
2.16963
2.16792
2.16675
2.16672
2.1685
2.1734
2.18155
2.18846
2.16947
2.1246
2.52333
2.5245
2.51172
2.47881
2.43637
2.39798
2.36908
2.34912
2.3367
2.32868
2.32341
2.32036
2.32087
2.32718
2.33806
2.3518
2.36445
2.36836
2.35658
2.33232
2.69728
2.68107
2.65927
2.62904
2.59117
2.55398
2.52347
2.50052
2.48496
2.47467
2.46794
2.463
2.46018
2.45992
2.46411
2.4739
2.48718
2.49476
2.49278
2.48661
2.7218
2.68501
2.66263
2.6623
2.66162
2.65287
2.63864
2.62429
2.61336
2.6058
2.6021
2.60064
2.60057
2.59956
2.59716
2.59129
2.5829
2.5721
2.57169
2.58468
2.72509
2.70642
2.69749
2.70454
2.71825
2.72961
2.73423
2.73345
2.73073
2.72858
2.72787
2.72846
2.73055
2.73254
2.73491
2.73663
2.73837
2.73961
2.7373
2.73797
2.71346
2.70521
2.70828
2.73628
2.77363
2.80784
2.83255
2.84557
2.85061
2.85231
2.85332
2.85431
2.85488
2.85567
2.85719
2.85834
2.85808
2.8571
2.85868
2.86637
2.81814
2.84154
2.86151
2.88714
2.91529
2.9399
2.95908
2.9719
2.97875
2.98199
2.98374
2.98544
2.98774
2.98924
2.98936
2.98725
2.98274
2.97825
2.9806
2.99008
3.03564
3.08761
3.10751
3.09903
3.09108
3.08995
3.0939
3.09971
3.10492
3.10815
3.11052
3.113
3.1164
3.12043
3.12408
3.12605
3.12568
3.1242
3.12574
3.12914
3.21547
3.24599
3.25605
3.24714
3.23324
3.22489
3.22235
3.22343
3.22584
3.22817
3.22987
3.23101
3.23293
3.23608
3.24244
3.25396
3.27023
3.28574
3.29086
3.28312
3.33236
3.34446
3.35147
3.35003
3.34294
3.33818
3.3376
3.33985
3.34307
3.34564
3.34649
3.34587
3.34268
3.33816
3.3334
3.33312
3.34293
3.36128
3.37263
3.36457
3.3782
3.36227
3.36583
3.3916
3.41701
3.4393
3.45653
3.46826
3.47543
3.47945
3.48131
3.48063
3.4777
3.46983
3.45351
3.42493
3.38533
3.35044
3.3512
3.37504
3.54027
3.53681
3.55144
3.57665
3.59604
3.60943
3.61813
3.62458
3.62899
3.63222
3.6346
3.63656
3.63747
3.63717
3.63555
3.63052
3.62026
3.60684
3.59206
3.58404
3.82442
3.84433
3.85549
3.8435
3.82551
3.80766
3.7946
3.78851
3.78671
3.78744
3.78856
3.79085
3.79438
3.80122
3.81365
3.83398
3.85957
3.88073
3.87364
3.84346
4.05343
4.05067
4.04011
4.02034
3.99659
3.97357
3.95521
3.94326
3.93686
3.93415
3.93344
3.93499
3.93857
3.94668
3.95959
3.97685
3.99558
4.01012
4.0132
4.00101
4.21397
4.20079
4.18253
4.16049
4.13555
4.11305
4.09567
4.083
4.07453
4.07001
4.06772
4.06658
4.06535
4.0623
4.05681
4.0517
4.05055
4.05373
4.06143
4.06933
4.25202
4.22364
4.20394
4.20104
4.20405
4.20665
4.20623
4.20328
4.20015
4.19764
4.19671
4.19582
4.19462
4.18968
4.17703
4.15242
4.11776
4.0872
4.08731
4.11249
4.27555
4.24641
4.24502
4.27608
4.30752
4.32582
4.33184
4.33143
4.32926
4.32759
4.32717
4.32741
4.32892
4.33135
4.33627
4.34087
4.34058
4.33531
4.3239
4.31487
4.4359
4.45065
4.46163
4.46025
4.46038
4.4604
4.46021
4.45819
4.45553
4.45294
4.45103
4.44984
4.44854
4.44974
4.45709
4.47626
4.50655
4.5329
4.52955
4.50331
4.56763
4.58075
4.57128
4.55323
4.55041
4.55777
4.56769
4.5748
4.57852
4.57905
4.57782
4.57514
4.57121
4.56406
4.55182
4.53633
4.52456
4.52056
4.52634
4.53309
4.67701
4.67512
4.66572
4.66774
4.678
4.69084
4.70255
4.71097
4.71652
4.7185
4.7191
4.71734
4.71397
4.70577
4.68907
4.65777
4.61592
4.58201
4.5792
4.60132
4.85315
4.86675
4.87205
4.87409
4.87117
4.86753
4.86653
4.867
4.86828
4.86953
4.8712
4.87254
4.87492
4.87851
4.88538
4.89303
4.89484
4.89059
4.87827
4.86615
5.04563
5.06453
5.07453
5.07234
5.05998
5.04335
5.02938
5.02072
5.01643
5.01524
5.01619
5.02022
5.02709
5.04083
5.0649
5.10351
5.14953
5.18415
5.18097
5.14636
5.1938
5.20907
5.21419
5.20443
5.18944
5.17458
5.16126
5.15162
5.14563
5.14343
5.14376
5.14709
5.153
5.16171
5.17355
5.19114
5.2125
5.22981
5.24055
5.24104
5.24933
5.24973
5.24938
5.24909
5.25128
5.2564
5.25965
5.2604
5.25948
5.25847
5.25823
5.25888
5.2598
5.25835
5.25138
5.23712
5.22086
5.21188
5.22279
5.24983
5.30301
5.29146
5.29665
5.32247
5.35117
5.37296
5.38392
5.38785
5.38733
5.38512
5.38135
5.37616
5.36866
5.35728
5.34008
5.31553
5.29007
5.27527
5.27767
5.29389
5.48997
5.50876
5.52412
5.5291
5.53087
5.5318
5.5332
5.53381
5.533
5.53077
5.52797
5.52335
5.51488
5.50053
5.47978
5.45304
5.42347
5.40072
5.39528
5.4005
5.65927
5.68228
5.68976
5.68098
5.67368
5.67338
5.67852
5.68367
5.68685
5.68817
5.68906
5.68991
5.69108
5.69233
5.69466
5.69826
5.69942
5.69595
5.6833
5.66306
5.79549
5.79072
5.79784
5.82195
5.8421
5.85219
5.85416
5.85281
5.85101
5.85034
5.85055
5.85408
5.86177
5.87841
5.90562
5.94478
5.98843
6.02021
6.01337
5.97246
6.06713
6.08849
6.10054
6.08922
6.06511
6.03958
6.01982
6.00754
6.00088
5.99919
6.00091
6.00702
6.01698
6.03253
6.05348
6.07866
6.10309
6.11966
6.12692
6.11973
6.21093
6.22401
6.2153
6.18268
6.14852
6.12651
6.11626
6.11392
6.11587
6.12084
6.12864
6.13959
6.15283
6.16639
6.17688
6.18229
6.18468
6.18595
6.19446
6.20887
6.17075
6.13298
6.1143
6.1312
6.15917
6.18632
6.20472
6.21665
6.22494
6.233
6.24059
6.2492
6.25826
6.26736
6.27444
6.2794
6.28478
6.29151
6.29614
6.29843
6.26791
6.24405
6.24749
6.27846
6.31121
6.33327
6.34407
6.34815
6.3493
6.35014
6.35037
6.34954
6.34595
6.33963
6.32982
6.31751
6.30526
6.2983
6.30054
6.30425
6.53849
6.56469
6.57974
6.56792
6.54567
6.52212
6.50437
6.49121
6.48065
6.47186
6.46323
6.45288
6.43843
6.41732
6.38812
6.35214
6.31543
6.28876
6.2815
6.28432
6.72295
6.75295
6.75145
6.72163
6.6878
6.65785
6.63473
6.61726
6.60405
6.59285
6.58263
6.57015
6.55307
6.52809
6.49448
6.45259
6.40685
6.36874
6.34864
6.33959
6.71336
6.7073
6.6993
6.7058
6.71705
6.72542
6.72766
6.72613
6.72275
6.7182
6.71299
6.70606
6.69707
6.68564
6.6737
6.66208
6.64759
6.62874
6.60059
6.56587
6.70815
6.69001
6.69349
6.73293
6.78266
6.82469
6.84985
6.86145
6.86413
6.86324
6.86017
6.85761
6.85664
6.86162
6.87496
6.89957
6.9292
6.9478
6.92662
6.87137
6.90219
6.92321
6.94438
6.96698
6.98922
7.00743
7.0193
7.02562
7.02682
7.02597
7.02454
7.02522
7.02881
7.03647
7.04716
7.06138
7.07615
7.0834
7.08018
7.06408
7.1936
7.24009
7.25289
7.23561
7.21435
7.19984
7.19325
7.19124
7.1902
7.18948
7.19065
7.19544
7.2043
7.21578
7.22693
7.23427
7.23767
7.23601
7.23932
7.25051
7.42576
7.44879
7.44575
7.42437
7.39634
7.37271
7.35648
7.34729
7.34277
7.34236
7.34513
7.35233
7.36385
7.38062
7.40146
7.42338
7.44386
7.45919
7.46768
7.47172
7.55761
7.55609
7.54387
7.52868
7.51044
7.49456
7.48343
7.47751
7.47572
7.4782
7.48371
7.49326
7.5055
7.52061
7.53658
7.55319
7.56918
7.58385
7.60115
7.61076
7.56716
7.53315
7.51687
7.53571
7.56061
7.5814
7.59371
7.59951
7.60188
7.60524
7.60969
7.61676
7.62507
7.63367
7.63895
7.64014
7.63876
7.64157
7.65904
7.67242
7.66955
7.65587
7.65693
7.68307
7.70964
7.72683
7.73364
7.73424
7.7321
7.73059
7.73044
7.73192
7.7324
7.73004
7.72221
7.70819
7.68992
7.67806
7.68665
7.69385
7.88935
7.92375
7.9306
7.91196
7.89254
7.87827
7.86937
7.86305
7.85751
7.85255
7.8481
7.84286
7.83508
7.82373
7.80995
7.79635
7.78308
7.77492
7.77427
7.76103
8.00492
8.02793
8.01663
7.99217
7.97908
7.97782
7.98071
7.98273
7.9818
7.97867
7.97334
7.96549
7.95305
7.93701
7.91996
7.90788
7.9065
7.91693
7.91693
7.8813
8.06378
8.05457
8.04975
8.07179
8.09671
8.11337
8.12027
8.12239
8.12204
8.12065
8.11888
8.11625
8.11235
8.10442
8.08945
8.06901
8.04859
8.03749
8.03315
8.00701
8.26724
8.29028
8.29678
8.2912
8.28289
8.27568
8.27175
8.27056
8.27002
8.26984
8.2707
8.2736
8.27913
8.28791
8.29716
8.30264
8.30198
8.29455
8.27622
8.2347
8.43448
8.46257
8.45949
8.4378
8.42028
8.41395
8.41525
8.41859
8.42133
8.423
8.42475
8.42769
8.43393
8.44513
8.46221
8.48471
8.50659
8.5153
8.50279
8.4656
8.55698
8.55616
8.55527
8.57321
8.58872
8.59573
8.59574
8.59259
8.58963
8.58776
8.58763
8.58949
8.59284
8.59898
8.60866
8.6209
8.63429
8.64317
8.64449
8.62889
8.83487
8.8656
8.87422
8.86109
8.83666
8.81029
8.78869
8.77256
8.76199
8.756
8.75519
8.75804
8.76459
8.77138
8.7766
8.77723
8.77158
8.76097
8.76143
8.7612
9.03917
9.07274
9.06794
9.03471
8.99596
8.96404
8.9417
8.92724
8.91831
8.91457
8.9155
8.92172
8.93178
8.94493
8.95919
8.97114
8.9797
8.98277
8.98114
8.96347
9.10084
9.09759
9.08922
9.0992
9.10363
9.09769
9.08624
9.07655
9.07038
9.06901
9.07166
9.07867
9.08987
9.1053
9.12351
9.14151
9.15472
9.16086
9.16313
9.14341
9.23208
9.24264
9.24525
9.25225
9.25425
9.24873
9.2387
9.22908
9.22232
9.22048
9.22317
9.23146
9.24319
9.25855
9.2752
9.28992
9.30077
9.30649
9.31048
9.2915
9.36173
9.37806
9.38387
9.39607
9.40239
9.40118
9.39283
9.38101
9.37088
9.36582
9.36626
9.37149
9.38017
9.3888
9.39531
9.39808
9.39677
9.39429
9.39816
9.38416
9.50328
9.53884
9.54924
9.55457
9.55113
9.54021
9.52667
9.51344
9.50345
9.49785
9.49729
9.50091
9.50565
9.50789
9.50338
9.48924
9.46883
9.4507
9.44917
9.43469
9.56433
9.60875
9.61528
9.61726
9.62056
9.62315
9.62407
9.62309
9.62208
9.62203
9.62474
9.62847
9.63274
9.63322
9.62569
9.60667
9.57705
9.54704
9.53392
9.5074
9.55388
9.57442
9.58644
9.63768
9.68894
9.7237
9.73974
9.74454
9.74482
9.74542
9.74796
9.75244
9.75666
9.75974
9.76058
9.7567
9.74691
9.72977
9.70879
9.65708
9.73625
9.7987
9.82995
9.85826
9.87625
9.88279
9.88098
9.87544
9.86867
9.86343
9.85981
9.85682
9.85399
9.84991
9.84689
9.8496
9.86045
9.86963
9.85494
9.78061
9.89574
9.97621
10.0005
10.0019
9.99783
9.99301
9.9881
9.98139
9.97449
9.96723
9.96046
9.95208
9.93989
9.91998
9.89042
9.85272
9.81641
9.79115
9.78409
9.74394
9.90177
9.94462
9.95133
9.9765
10.0114
10.0438
10.0658
10.0761
10.0799
10.0784
10.075
10.0665
10.0538
10.0303
9.99307
9.93787
9.871
9.81571
9.79816
9.77327
9.97356
9.99723
10.0039
10.0472
10.1031
10.1531
10.1865
10.2045
10.2119
10.2134
10.2121
10.2081
10.2011
10.1897
10.1759
10.1592
10.1385
10.117
10.0921
10.0305
10.2508
10.3078
10.3185
10.3277
10.3389
10.3506
10.3601
10.3658
10.3669
10.3655
10.3625
10.3587
10.3555
10.3548
10.362
10.3813
10.4099
10.4353
10.4275
10.3466
10.5213
10.5942
10.5873
10.5553
10.5289
10.5155
10.5132
10.5144
10.5156
10.5152
10.5142
10.5127
10.5112
10.512
10.5182
10.5304
10.5481
10.5691
10.5844
10.5448
10.6266
10.6559
10.6258
10.6085
10.6112
10.6256
10.6425
10.6556
10.665
10.6705
10.6751
10.679
10.6845
10.69
10.6955
10.7004
10.7086
10.7241
10.7475
10.7369
10.7627
10.7717
10.7431
10.7416
10.7611
10.787
10.8094
10.8258
10.8364
10.8436
10.8493
10.8561
10.8652
10.8779
10.894
10.9141
10.9402
10.9743
11.0015
10.9818
11.0883
11.1284
11.1066
11.0701
11.0442
11.0298
11.0265