/*--------------------------------*- C++ -*----------------------------------*\
  =========                 |
  \\      /  F ield         | OpenFOAM: The Open Source CFD Toolbox
   \\    /   O peration     | Website:  https://openfoam.org
    \\  /    A nd           | Version:  6
     \\/     M anipulation  |
\*---------------------------------------------------------------------------*/
FoamFile
{
    version     2.0;
    format      ascii;
    class       volVectorField;
    location    "17";
    object      U;
}
// * * * * * * * * * * * * * * * * * * * * * * * * * * * * * * * * * * * * * //

dimensions      [0 1 -1 0 0 0 0];

internalField   nonuniform List<vector> 
10000
(
(-0.00176855 -3.20821 0)
(-0.00459015 -4.28683 0)
(-0.00831837 -4.7958 0)
(-0.0099593 -5.11541 0)
(-0.00981974 -5.30669 0)
(-0.00884279 -5.41567 0)
(-0.00765393 -5.47604 0)
(-0.00643743 -5.5082 0)
(-0.00523525 -5.52355 0)
(-0.00406333 -5.52804 0)
(-0.00291545 -5.52415 0)
(-0.00178181 -5.51184 0)
(-0.000644044 -5.48854 0)
(0.000565268 -5.44837 0)
(0.00188144 -5.38038 0)
(0.00331793 -5.26553 0)
(0.00448931 -5.07323 0)
(0.00449598 -4.75952 0)
(0.0031357 -4.25934 0)
(0.00132458 -3.19502 0)
(-0.00056203 -3.21123 0)
(-0.000726976 -4.28389 0)
(-0.00290525 -4.79454 0)
(-0.00457986 -5.11638 0)
(-0.00541593 -5.30928 0)
(-0.00553499 -5.41911 0)
(-0.00519918 -5.47982 0)
(-0.00460731 -5.51202 0)
(-0.00389961 -5.5273 0)
(-0.00315682 -5.53171 0)
(-0.00241601 -5.5278 0)
(-0.00168782 -5.51557 0)
(-0.000992371 -5.49244 0)
(-0.000348966 -5.45246 0)
(0.000207223 -5.3846 0)
(0.00063835 -5.26955 0)
(0.000868506 -5.07644 0)
(0.000944356 -4.76099 0)
(0.000445407 -4.25851 0)
(0.00113407 -3.19717 0)
(-0.00133275 -3.21037 0)
(-0.00153336 -4.27998 0)
(-0.00177898 -4.79159 0)
(-0.00269412 -5.11434 0)
(-0.0033331 -5.3082 0)
(-0.0036241 -5.41884 0)
(-0.00360811 -5.48008 0)
(-0.00336546 -5.51259 0)
(-0.00297459 -5.52803 0)
(-0.00251688 -5.53249 0)
(-0.00204029 -5.52858 0)
(-0.00156806 -5.51629 0)
(-0.00111533 -5.49304 0)
(-0.000683856 -5.45288 0)
(-0.000300284 -5.38476 0)
(9.35066e-05 -5.26944 0)
(0.000416042 -5.07595 0)
(0.000823876 -4.75968 0)
(0.000986743 -4.25623 0)
(0.00125561 -3.19445 0)
(-0.00121069 -3.20759 0)
(-0.00110438 -4.27687 0)
(-0.000891634 -4.7887 0)
(-0.00117599 -5.11232 0)
(-0.00167747 -5.30695 0)
(-0.00205428 -5.41821 0)
(-0.0022123 -5.48002 0)
(-0.00220674 -5.51292 0)
(-0.00207118 -5.52855 0)
(-0.00185651 -5.5331 0)
(-0.001612 -5.52924 0)
(-0.00134688 -5.51697 0)
(-0.00108154 -5.49371 0)
(-0.000786068 -5.45354 0)
(-0.00051853 -5.38532 0)
(-0.000182148 -5.26987 0)
(1.16256e-06 -5.07619 0)
(0.000263353 -4.75934 0)
(0.000457307 -4.25603 0)
(0.000249114 -3.19279 0)
(-0.000427222 -3.20494 0)
(-0.00100701 -4.27553 0)
(-0.00101935 -4.78678 0)
(-0.00103906 -5.1104 0)
(-0.00125941 -5.30558 0)
(-0.00146324 -5.41732 0)
(-0.00159502 -5.47947 0)
(-0.00161334 -5.51269 0)
(-0.0015489 -5.52852 0)
(-0.00141604 -5.53323 0)
(-0.0012402 -5.52947 0)
(-0.0010447 -5.51726 0)
(-0.000836575 -5.49402 0)
(-0.000575105 -5.45384 0)
(-0.000296279 -5.3855 0)
(1.01997e-05 -5.26981 0)
(0.000204748 -5.07612 0)
(0.000500215 -4.75893 0)
(0.00022059 -4.25543 0)
(-6.99268e-05 -3.19132 0)
(0.000239585 -3.20436 0)
(-0.000373897 -4.27655 0)
(-0.000982713 -4.78708 0)
(-0.00118268 -5.11027 0)
(-0.0013587 -5.30529 0)
(-0.00145138 -5.41727 0)
(-0.00148161 -5.47955 0)
(-0.00142919 -5.51283 0)
(-0.00132733 -5.52876 0)
(-0.00117688 -5.53353 0)
(-0.000991627 -5.52983 0)
(-0.000779428 -5.51768 0)
(-0.000534746 -5.49449 0)
(-0.000240983 -5.45444 0)
(0.000140703 -5.38632 0)
(0.00046585 -5.27062 0)
(0.000603586 -5.07625 0)
(0.000728727 -4.75904 0)
(-2.29092e-05 -4.25644 0)
(-0.000478938 -3.19061 0)
(-0.000111761 -3.20485 0)
(-0.00024121 -4.27735 0)
(-0.00086206 -4.78775 0)
(-0.00112926 -5.11058 0)
(-0.00126346 -5.30575 0)
(-0.00129866 -5.41782 0)
(-0.00127193 -5.48009 0)
(-0.0011992 -5.51332 0)
(-0.00109221 -5.52923 0)
(-0.000941432 -5.53404 0)
(-0.000753143 -5.53038 0)
(-0.000535337 -5.51827 0)
(-0.000276592 -5.49516 0)
(1.20921e-05 -5.45516 0)
(0.000378095 -5.38702 0)
(0.000641385 -5.27136 0)
(0.000850409 -5.0769 0)
(0.000525545 -4.75948 0)
(0.000243728 -4.25643 0)
(-0.000684522 -3.19105 0)
(-0.000620074 -3.20486 0)
(-0.000374822 -4.27675 0)
(-0.000621883 -4.7873 0)
(-0.000831161 -5.11031 0)
(-0.000886714 -5.30566 0)
(-0.000885432 -5.41789 0)
(-0.000873617 -5.48026 0)
(-0.000848391 -5.51358 0)
(-0.000787861 -5.52959 0)
(-0.000689116 -5.53446 0)
(-0.000547086 -5.53086 0)
(-0.000357912 -5.51883 0)
(-0.000135391 -5.49582 0)
(0.000109507 -5.45591 0)
(0.000384754 -5.38798 0)
(0.000594914 -5.27237 0)
(0.000790125 -5.0777 0)
(0.000442762 -4.75973 0)
(0.000431793 -4.25546 0)
(-0.00015867 -3.19267 0)
(-0.000526739 -3.20329 0)
(-0.000447618 -4.27568 0)
(-0.000298313 -4.7866 0)
(-0.000556183 -5.10931 0)
(-0.000557149 -5.30489 0)
(-0.000653849 -5.4175 0)
(-0.000683452 -5.4801 0)
(-0.000697468 -5.51354 0)
(-0.000680183 -5.52968 0)
(-0.000637196 -5.53468 0)
(-0.000551093 -5.53116 0)
(-0.000432061 -5.51922 0)
(-0.0002936 -5.49628 0)
(-0.000146042 -5.45641 0)
(2.42054e-05 -5.38853 0)
(0.000191504 -5.27304 0)
(0.000308637 -5.07831 0)
(0.000278653 -4.7598 0)
(0.000682423 -4.25479 0)
(0.000395836 -3.19296 0)
(-0.000291246 -3.20196 0)
(-0.000324375 -4.27522 0)
(-0.000342541 -4.78687 0)
(-0.000656274 -5.10923 0)
(-0.000703538 -5.3044 0)
(-0.000828927 -5.41715 0)
(-0.000823873 -5.47991 0)
(-0.000803512 -5.51345 0)
(-0.000768859 -5.52968 0)
(-0.00072152 -5.53473 0)
(-0.000666481 -5.53124 0)
(-0.000610702 -5.51931 0)
(-0.000559839 -5.49635 0)
(-0.000539159 -5.45639 0)
(-0.000462314 -5.38839 0)
(-0.000348209 -5.27285 0)
(-0.000187056 -5.07792 0)
(0.000149288 -4.75901 0)
(0.000868328 -4.25355 0)
(0.000570512 -3.19095 0)
(-0.000287968 -3.20137 0)
(-1.15788e-05 -4.27554 0)
(-0.000291592 -4.78745 0)
(-0.000554477 -5.10923 0)
(-0.000758333 -5.30419 0)
(-0.00089438 -5.41704 0)
(-0.000883697 -5.4799 0)
(-0.00084791 -5.5135 0)
(-0.000803283 -5.52977 0)
(-0.000736022 -5.53485 0)
(-0.000655879 -5.53135 0)
(-0.000584063 -5.51935 0)
(-0.000507223 -5.49632 0)
(-0.000457288 -5.45633 0)
(-0.000381772 -5.38833 0)
(-0.000209123 -5.27294 0)
(1.87642e-06 -5.07778 0)
(0.000334127 -4.75844 0)
(0.000592078 -4.25344 0)
(5.37576e-05 -3.1886 0)
(-0.000421858 -3.20233 0)
(9.84969e-05 -4.27537 0)
(-0.000173887 -4.78694 0)
(-0.000427244 -5.10899 0)
(-0.000688012 -5.30438 0)
(-0.000820553 -5.41725 0)
(-0.000834345 -5.47999 0)
(-0.000807697 -5.51361 0)
(-0.000764555 -5.52991 0)
(-0.000683415 -5.53505 0)
(-0.000578416 -5.5316 0)
(-0.000446955 -5.51959 0)
(-0.000302612 -5.49656 0)
(-0.000151536 -5.45664 0)
(2.93051e-06 -5.38871 0)
(0.000180432 -5.27353 0)
(0.000350046 -5.07869 0)
(0.000341126 -4.75926 0)
(0.000144044 -4.25438 0)
(-0.000500036 -3.18835 0)
(-0.000435685 -3.20315 0)
(-7.29263e-06 -4.27503 0)
(7.38399e-05 -4.78652 0)
(-0.000121567 -5.10875 0)
(-0.000340629 -5.30428 0)
(-0.000473289 -5.41712 0)
(-0.000586285 -5.47986 0)
(-0.000648356 -5.51358 0)
(-0.000661707 -5.52998 0)
(-0.000625578 -5.53521 0)
(-0.000544224 -5.53185 0)
(-0.000424054 -5.51994 0)
(-0.000283587 -5.49698 0)
(-0.000108242 -5.45706 0)
(6.93077e-05 -5.38913 0)
(0.000178914 -5.27388 0)
(0.000198521 -5.07899 0)
(0.000109731 -4.75975 0)
(-0.000285137 -4.2548 0)
(-0.000206199 -3.18871 0)
(-0.000365435 -3.20354 0)
(0.000117134 -4.27366 0)
(0.000214829 -4.78536 0)
(0.000249959 -5.1084 0)
(-1.35472e-05 -5.30394 0)
(-0.000186893 -5.41668 0)
(-0.000385072 -5.4795 0)
(-0.000521524 -5.51336 0)
(-0.000594211 -5.52993 0)
(-0.00060359 -5.53528 0)
(-0.000566181 -5.53201 0)
(-0.000486871 -5.52018 0)
(-0.000372702 -5.49728 0)
(-0.00023251 -5.45737 0)
(-8.21827e-05 -5.38949 0)
(-1.24713e-05 -5.27412 0)
(-8.77512e-05 -5.0786 0)
(-0.000214536 -4.75922 0)
(-0.000613493 -4.25498 0)
(0.000109066 -3.18958 0)
(8.17982e-05 -3.20463 0)
(0.00059879 -4.27424 0)
(0.000162801 -4.78506 0)
(0.000149087 -5.10836 0)
(-0.000121476 -5.30401 0)
(-0.000265395 -5.41649 0)
(-0.00040815 -5.47924 0)
(-0.000519761 -5.51321 0)
(-0.000589483 -5.52988 0)
(-0.000613522 -5.53531 0)
(-0.000599581 -5.53213 0)
(-0.000559313 -5.52034 0)
(-0.000485309 -5.49744 0)
(-0.000401049 -5.45759 0)
(-0.000307982 -5.38968 0)
(-0.000338859 -5.27398 0)
(-0.000419346 -5.07804 0)
(-0.000591426 -4.75874 0)
(-0.000778151 -4.25488 0)
(0.000266907 -3.19038 0)
(0.000521679 -3.20502 0)
(0.000426586 -4.27479 0)
(0.00048743 -4.78519 0)
(0.000443848 -5.10835 0)
(0.000217016 -5.30399 0)
(2.19663e-05 -5.41635 0)
(-0.000187467 -5.4791 0)
(-0.000359756 -5.51311 0)
(-0.000462851 -5.52984 0)
(-0.000523567 -5.53532 0)
(-0.000551152 -5.5322 0)
(-0.000541036 -5.5205 0)
(-0.000508036 -5.49768 0)
(-0.000464497 -5.45778 0)
(-0.000448617 -5.38968 0)
(-0.00052706 -5.27371 0)
(-0.000580033 -5.07747 0)
(-0.000692076 -4.75851 0)
(-0.000682057 -4.25488 0)
(6.5238e-05 -3.19079 0)
(0.000551007 -3.20562 0)
(0.000159606 -4.2745 0)
(0.000352504 -4.78485 0)
(0.000393822 -5.10807 0)
(0.000376149 -5.30359 0)
(0.000228279 -5.41601 0)
(3.84675e-06 -5.47888 0)
(-0.000204714 -5.51292 0)
(-0.000356201 -5.52969 0)
(-0.000464028 -5.53525 0)
(-0.000528293 -5.53222 0)
(-0.000556302 -5.52062 0)
(-0.000548263 -5.4979 0)
(-0.000503305 -5.45808 0)
(-0.000509627 -5.39002 0)
(-0.00049465 -5.27392 0)
(-0.000537923 -5.07804 0)
(-0.000644968 -4.75951 0)
(-0.000722088 -4.25616 0)
(-0.000550033 -3.19283 0)
(0.000771785 -3.2061 0)
(0.000250453 -4.27502 0)
(0.0003033 -4.78507 0)
(0.000353747 -5.10806 0)
(0.000411091 -5.30329 0)
(0.00032158 -5.4156 0)
(0.000111278 -5.47846 0)
(-0.000124528 -5.51256 0)
(-0.000328722 -5.5294 0)
(-0.000493052 -5.535 0)
(-0.000630787 -5.53201 0)
(-0.000742558 -5.52046 0)
(-0.00083979 -5.4978 0)
(-0.000926822 -5.45805 0)
(-0.00102862 -5.39004 0)
(-0.00108392 -5.27412 0)
(-0.00114962 -5.07853 0)
(-0.00102328 -4.76012 0)
(-0.000541567 -4.25695 0)
(-0.000400466 -3.19407 0)
(0.000790177 -3.20592 0)
(0.000302392 -4.27514 0)
(0.000204633 -4.78483 0)
(0.000307344 -5.10774 0)
(0.000385563 -5.30287 0)
(0.000327528 -5.41507 0)
(0.000149056 -5.47789 0)
(-7.77579e-05 -5.51201 0)
(-0.000295856 -5.5289 0)
(-0.000486443 -5.53455 0)
(-0.000653821 -5.53158 0)
(-0.000822517 -5.52003 0)
(-0.00100571 -5.49732 0)
(-0.00118669 -5.45749 0)
(-0.00137701 -5.38938 0)
(-0.00148544 -5.27326 0)
(-0.00142081 -5.07761 0)
(-0.000948544 -4.75926 0)
(-0.000407825 -4.25595 0)
(0.000143506 -3.19346 0)
(0.000530698 -3.20511 0)
(0.000199481 -4.27559 0)
(7.6906e-06 -4.78464 0)
(7.31172e-05 -5.10708 0)
(0.000118913 -5.30237 0)
(5.76972e-05 -5.41457 0)
(-4.13926e-05 -5.47734 0)
(-0.000193755 -5.51151 0)
(-0.000335995 -5.52848 0)
(-0.000456367 -5.53416 0)
(-0.000560742 -5.53121 0)
(-0.000650597 -5.51964 0)
(-0.000756119 -5.49688 0)
(-0.000852355 -5.45703 0)
(-0.000919782 -5.38893 0)
(-0.000956124 -5.27283 0)
(-0.000847745 -5.07725 0)
(-0.000514614 -4.75937 0)
(-0.00065532 -4.25686 0)
(-0.00053726 -3.19229 0)
(0.000455797 -3.20479 0)
(0.000124337 -4.27634 0)
(-0.000238888 -4.78512 0)
(-0.000337394 -5.10732 0)
(-0.000399414 -5.30237 0)
(-0.000404105 -5.41427 0)
(-0.000420109 -5.47703 0)
(-0.000446311 -5.51128 0)
(-0.000478967 -5.52829 0)
(-0.000503531 -5.53404 0)
(-0.000509484 -5.53112 0)
(-0.000503259 -5.51955 0)
(-0.000484209 -5.49683 0)
(-0.000446718 -5.45705 0)
(-0.000374842 -5.38912 0)
(-0.000332448 -5.27307 0)
(-0.000253259 -5.07759 0)
(-0.000328398 -4.76068 0)
(-0.000729388 -4.2593 0)
(-0.00115798 -3.19344 0)
(0.000507333 -3.20609 0)
(0.000137106 -4.27726 0)
(-4.45004e-05 -4.78564 0)
(-0.000324549 -5.10743 0)
(-0.000502702 -5.30229 0)
(-0.000555771 -5.41426 0)
(-0.000577006 -5.47706 0)
(-0.000571602 -5.51131 0)
(-0.000554487 -5.52834 0)
(-0.000530382 -5.53413 0)
(-0.00050174 -5.53125 0)
(-0.000458757 -5.51968 0)
(-0.000400714 -5.49693 0)
(-0.000359846 -5.45718 0)
(-0.000318949 -5.38926 0)
(-0.000317171 -5.27322 0)
(-0.000351961 -5.0778 0)
(-0.000530018 -4.76118 0)
(-0.000648683 -4.25978 0)
(-0.000645152 -3.19525 0)
(-1.02626e-05 -3.20666 0)
(0.000196434 -4.27641 0)
(0.000240016 -4.78529 0)
(2.63553e-05 -5.10762 0)
(-0.000251327 -5.30252 0)
(-0.000423648 -5.41429 0)
(-0.000542211 -5.4771 0)
(-0.000566853 -5.51143 0)
(-0.00054816 -5.5285 0)
(-0.000513391 -5.53431 0)
(-0.000468682 -5.53145 0)
(-0.000418299 -5.51987 0)
(-0.000361323 -5.49708 0)
(-0.00032374 -5.45725 0)
(-0.000347006 -5.38921 0)
(-0.000396961 -5.27315 0)
(-0.000504808 -5.07783 0)
(-0.00060548 -4.76087 0)
(-0.000696788 -4.25894 0)
(-3.8416e-06 -3.19632 0)
(-0.000145293 -3.20714 0)
(4.30879e-05 -4.27622 0)
(0.000222582 -4.78521 0)
(0.00010162 -5.10743 0)
(-0.000142579 -5.30215 0)
(-0.000309989 -5.4141 0)
(-0.000475447 -5.47708 0)
(-0.000513633 -5.51147 0)
(-0.000509699 -5.5286 0)
(-0.00048267 -5.53444 0)
(-0.000449941 -5.53161 0)
(-0.000408447 -5.52006 0)
(-0.000357427 -5.49729 0)
(-0.000325716 -5.45748 0)
(-0.000329819 -5.38941 0)
(-0.000316984 -5.27327 0)
(-0.000393975 -5.07792 0)
(-0.00046 -4.76091 0)
(-0.000643554 -4.25908 0)
(-1.79294e-05 -3.19786 0)
(-3.78524e-05 -3.20765 0)
(-0.000124817 -4.27558 0)
(0.00031919 -4.78492 0)
(0.000440543 -5.10738 0)
(0.000225905 -5.30169 0)
(-3.71258e-05 -5.41365 0)
(-0.000247117 -5.47679 0)
(-0.000369281 -5.51128 0)
(-0.00043337 -5.52849 0)
(-0.000462576 -5.53442 0)
(-0.000473103 -5.5316 0)
(-0.000484413 -5.52006 0)
(-0.000506963 -5.49734 0)
(-0.000536066 -5.45759 0)
(-0.000619447 -5.38943 0)
(-0.00063297 -5.27327 0)
(-0.000619748 -5.07808 0)
(-0.000592264 -4.76097 0)
(-0.00031744 -4.25922 0)
(4.48084e-05 -3.19967 0)
(-0.00012646 -3.20715 0)
(0.000232164 -4.27587 0)
(0.000351268 -4.7845 0)
(0.000592627 -5.10644 0)
(0.000431812 -5.30094 0)
(0.00012292 -5.41309 0)
(-0.000118658 -5.47634 0)
(-0.000296086 -5.51091 0)
(-0.000421331 -5.52822 0)
(-0.000502121 -5.53421 0)
(-0.000564156 -5.53144 0)
(-0.000626925 -5.5199 0)
(-0.000725678 -5.49714 0)
(-0.000832872 -5.45731 0)
(-0.000960303 -5.38914 0)
(-0.00101949 -5.27306 0)
(-0.000888671 -5.07827 0)
(-0.0006957 -4.7611 0)
(-0.000153752 -4.25872 0)
(0.000385888 -3.19979 0)
(0.000384999 -3.20682 0)
(0.000502621 -4.27575 0)
(0.000252391 -4.78423 0)
(0.000385488 -5.10603 0)
(0.000274919 -5.30038 0)
(5.43029e-05 -5.41259 0)
(-0.000178654 -5.47587 0)
(-0.000334265 -5.51052 0)
(-0.000466978 -5.5279 0)
(-0.000564547 -5.53393 0)
(-0.000643186 -5.53115 0)
(-0.000733865 -5.5196 0)
(-0.000849834 -5.49677 0)
(-0.000985094 -5.45689 0)
(-0.00107352 -5.3888 0)
(-0.00107415 -5.27287 0)
(-0.000854234 -5.07809 0)
(-0.00065012 -4.76088 0)
(-2.70666e-05 -4.25853 0)
(0.000235241 -3.19926 0)
(0.00116633 -3.20729 0)
(0.000589818 -4.27679 0)
(8.84309e-05 -4.78441 0)
(3.42569e-05 -5.10565 0)
(-0.000109362 -5.29994 0)
(-0.000228378 -5.41237 0)
(-0.000339166 -5.47564 0)
(-0.000416795 -5.51026 0)
(-0.000492853 -5.52766 0)
(-0.000555116 -5.53372 0)
(-0.000613173 -5.53094 0)
(-0.000672997 -5.51934 0)
(-0.000743006 -5.49647 0)
(-0.000807419 -5.45654 0)
(-0.000826926 -5.38842 0)
(-0.000757457 -5.2727 0)
(-0.00055543 -5.07829 0)
(-0.000379884 -4.761 0)
(-5.18638e-05 -4.25838 0)
(-1.34233e-05 -3.19875 0)
(0.00108811 -3.20856 0)
(0.00045755 -4.27722 0)
(0.000262788 -4.78449 0)
(0.000102144 -5.10555 0)
(-0.000119352 -5.2997 0)
(-0.000287779 -5.41212 0)
(-0.000373336 -5.4755 0)
(-0.000439413 -5.51019 0)
(-0.000481518 -5.52763 0)
(-0.000508817 -5.53367 0)
(-0.000519602 -5.53087 0)
(-0.000518617 -5.51929 0)
(-0.000494808 -5.49644 0)
(-0.000410725 -5.45658 0)
(-0.00030922 -5.38863 0)
(-0.000145363 -5.27306 0)
(-6.45875e-06 -5.07882 0)
(8.10977e-05 -4.7617 0)
(-0.000231911 -4.25928 0)
(-0.000169899 -3.1986 0)
(0.000569768 -3.20957 0)
(0.000332847 -4.27714 0)
(0.000302659 -4.78409 0)
(0.000146469 -5.1051 0)
(-6.2329e-05 -5.29955 0)
(-0.000264188 -5.41201 0)
(-0.000355611 -5.47539 0)
(-0.000444013 -5.5101 0)
(-0.000491105 -5.52759 0)
(-0.000511664 -5.53368 0)
(-0.000508842 -5.53093 0)
(-0.000474166 -5.51939 0)
(-0.000394212 -5.4966 0)
(-0.000282831 -5.45683 0)
(-0.000124013 -5.38898 0)
(2.46879e-05 -5.27341 0)
(9.78063e-05 -5.07924 0)
(1.89206e-05 -4.76252 0)
(-0.000100308 -4.26016 0)
(-0.000205284 -3.19951 0)
(0.000335616 -3.20892 0)
(-7.65695e-05 -4.27695 0)
(0.000288974 -4.78386 0)
(0.00011941 -5.10454 0)
(-3.24783e-05 -5.29899 0)
(-0.000226154 -5.41147 0)
(-0.000369365 -5.47502 0)
(-0.000484688 -5.50989 0)
(-0.000568219 -5.52748 0)
(-0.000617169 -5.53367 0)
(-0.000628371 -5.53102 0)
(-0.000600627 -5.51957 0)
(-0.000526376 -5.49691 0)
(-0.00043663 -5.45729 0)
(-0.000289484 -5.38957 0)
(-0.000190727 -5.27419 0)
(-0.000111028 -5.08 0)
(-0.000138213 -4.76299 0)
(3.7609e-05 -4.26019 0)
(0.00019142 -3.2006 0)
(5.67838e-05 -3.20882 0)
(-0.000296074 -4.27642 0)
(0.000180688 -4.78339 0)
(1.63235e-05 -5.10378 0)
(-0.00011804 -5.29809 0)
(-0.000378256 -5.41082 0)
(-0.000583838 -5.47456 0)
(-0.000722752 -5.50957 0)
(-0.000824431 -5.52728 0)
(-0.000893735 -5.53359 0)
(-0.000931154 -5.53103 0)
(-0.000931722 -5.51965 0)
(-0.000908036 -5.49707 0)
(-0.000868885 -5.45752 0)
(-0.000775364 -5.38994 0)
(-0.000733854 -5.27471 0)
(-0.000622429 -5.08045 0)
(-0.000397018 -4.76348 0)
(0.000159936 -4.26039 0)
(0.000638841 -3.20101 0)
(0.000167599 -3.20967 0)
(0.000132437 -4.27758 0)
(0.000131766 -4.78465 0)
(-0.00023967 -5.1044 0)
(-0.000439603 -5.29813 0)
(-0.000718034 -5.41068 0)
(-0.00090196 -5.47443 0)
(-0.0010152 -5.50949 0)
(-0.00109756 -5.52721 0)
(-0.00116513 -5.5335 0)
(-0.00121974 -5.53092 0)
(-0.00126986 -5.51953 0)
(-0.00131117 -5.49693 0)
(-0.00133454 -5.45734 0)
(-0.00133199 -5.38979 0)
(-0.00127166 -5.27456 0)
(-0.00108593 -5.08009 0)
(-0.00067178 -4.76288 0)
(0.00019841 -4.25945 0)
(0.000628699 -3.1999 0)
(-6.86883e-05 -3.21061 0)
(-3.44041e-05 -4.278 0)
(0.000380406 -4.78535 0)
(0.000161755 -5.10475 0)
(-8.67838e-05 -5.29815 0)
(-0.000380093 -5.41058 0)
(-0.000638052 -5.47423 0)
(-0.000838366 -5.50928 0)
(-0.000988321 -5.527 0)
(-0.00111314 -5.53328 0)
(-0.00121966 -5.5307 0)
(-0.00129962 -5.51932 0)
(-0.00135453 -5.49673 0)
(-0.00136921 -5.45719 0)
(-0.00134136 -5.38965 0)
(-0.00116363 -5.2744 0)
(-0.000997212 -5.08022 0)
(-0.000444557 -4.76301 0)
(-0.000282794 -4.25963 0)
(0.000245637 -3.19881 0)
(-0.000465592 -3.20943 0)
(-0.000103184 -4.27659 0)
(0.000394117 -4.7841 0)
(0.000555443 -5.10331 0)
(0.000395501 -5.29669 0)
(0.00011681 -5.40944 0)
(-0.000194913 -5.47342 0)
(-0.000505673 -5.50862 0)
(-0.000776054 -5.52643 0)
(-0.000999922 -5.53283 0)
(-0.00117034 -5.53038 0)
(-0.00129018 -5.51913 0)
(-0.00135744 -5.49671 0)
(-0.00136373 -5.45731 0)
(-0.00129892 -5.38994 0)
(-0.00110954 -5.27517 0)
(-0.000918837 -5.0811 0)
(-0.000507433 -4.76388 0)
(-0.000539365 -4.26171 0)
(-0.000452326 -3.19935 0)
(4.11243e-05 -3.20828 0)
(0.000353245 -4.27661 0)
(0.000354127 -4.78316 0)
(0.000376575 -5.10214 0)
(0.000198627 -5.29571 0)
(-1.73261e-05 -5.40851 0)
(-0.000288181 -5.4725 0)
(-0.000594306 -5.50778 0)
(-0.00088211 -5.52572 0)
(-0.00112893 -5.53227 0)
(-0.00132519 -5.52998 0)
(-0.0014733 -5.5189 0)
(-0.00156469 -5.49665 0)
(-0.00160186 -5.45742 0)
(-0.00156747 -5.39027 0)
(-0.00139378 -5.27571 0)
(-0.00109252 -5.08181 0)
(-0.000813103 -4.76469 0)
(-0.00037349 -4.26247 0)
(-0.000495342 -3.19975 0)
(0.00068154 -3.20936 0)
(0.000589649 -4.27767 0)
(0.000327756 -4.78374 0)
(5.70315e-05 -5.10247 0)
(-0.00019538 -5.29554 0)
(-0.000405905 -5.40805 0)
(-0.000632616 -5.472 0)
(-0.00088741 -5.50727 0)
(-0.00112831 -5.52525 0)
(-0.00134892 -5.53187 0)
(-0.00153294 -5.52964 0)
(-0.00168265 -5.51864 0)
(-0.00178347 -5.49645 0)
(-0.00182746 -5.45732 0)
(-0.00180835 -5.39033 0)
(-0.00158087 -5.27611 0)
(-0.00134561 -5.0826 0)
(-0.000767981 -4.76536 0)
(-0.000362405 -4.26284 0)
(-0.000413316 -3.20019 0)
(0.0004628 -3.21111 0)
(0.000627689 -4.27835 0)
(0.00047474 -4.7839 0)
(0.00017818 -5.10254 0)
(-0.000163391 -5.29558 0)
(-0.000448526 -5.40781 0)
(-0.000742373 -5.47158 0)
(-0.00100816 -5.50681 0)
(-0.00125411 -5.52482 0)
(-0.00149124 -5.53149 0)
(-0.00171027 -5.52932 0)
(-0.00189121 -5.5184 0)
(-0.00202646 -5.49629 0)
(-0.00209635 -5.45726 0)
(-0.00206421 -5.39049 0)
(-0.00191355 -5.2768 0)
(-0.00164596 -5.08362 0)
(-0.00104698 -4.76634 0)
(-0.000404127 -4.26455 0)
(-0.000608572 -3.20092 0)
(1.74799e-05 -3.21283 0)
(0.000878441 -4.27872 0)
(0.000837665 -4.78401 0)
(0.000582297 -5.1024 0)
(0.000183055 -5.29508 0)
(-0.000178011 -5.40728 0)
(-0.000583937 -5.47111 0)
(-0.000916414 -5.50631 0)
(-0.00124671 -5.52429 0)
(-0.00156204 -5.53097 0)
(-0.00185985 -5.52886 0)
(-0.00212454 -5.51801 0)
(-0.0023285 -5.49603 0)
(-0.00244127 -5.4572 0)
(-0.00245483 -5.39071 0)
(-0.00236365 -5.27733 0)
(-0.0019842 -5.08463 0)
(-0.00148207 -4.76812 0)
(-0.000490178 -4.26593 0)
(-0.000635928 -3.20156 0)
(0.000175779 -3.21377 0)
(0.000762471 -4.27858 0)
(0.00119674 -4.78355 0)
(0.00109946 -5.10171 0)
(0.000819152 -5.29434 0)
(0.000332441 -5.40653 0)
(-0.000159976 -5.47025 0)
(-0.000637958 -5.50543 0)
(-0.00110713 -5.52343 0)
(-0.00153989 -5.53013 0)
(-0.00194582 -5.52806 0)
(-0.00230441 -5.51728 0)
(-0.00260488 -5.49542 0)
(-0.0028021 -5.45682 0)
(-0.00288763 -5.39055 0)
(-0.00285016 -5.2772 0)
(-0.00242856 -5.08522 0)
(-0.00169638 -4.76963 0)
(-0.000470129 -4.26703 0)
(-0.000727021 -3.20085 0)
(0.000460779 -3.21338 0)
(0.000536692 -4.27804 0)
(0.00119805 -4.78288 0)
(0.00138684 -5.10036 0)
(0.001208 -5.29287 0)
(0.000692213 -5.40511 0)
(0.000136154 -5.46887 0)
(-0.000449756 -5.50418 0)
(-0.00100924 -5.52226 0)
(-0.00151722 -5.52904 0)
(-0.00197582 -5.52704 0)
(-0.00238027 -5.51636 0)
(-0.00271016 -5.49463 0)
(-0.00297221 -5.45616 0)
(-0.00309699 -5.39013 0)
(-0.00307042 -5.277 0)
(-0.00264028 -5.08524 0)
(-0.00174882 -4.77053 0)
(-0.000523502 -4.26809 0)
(-0.000726108 -3.19977 0)
(0.00119829 -3.21355 0)
(0.000707012 -4.27924 0)
(0.000967048 -4.78323 0)
(0.00117708 -5.10004 0)
(0.000994776 -5.29207 0)
(0.000606927 -5.40392 0)
(7.07487e-05 -5.46752 0)
(-0.00050029 -5.50288 0)
(-0.00106466 -5.52107 0)
(-0.00158114 -5.52796 0)
(-0.00203249 -5.52613 0)
(-0.00240463 -5.51563 0)
(-0.00267808 -5.49411 0)
(-0.00287291 -5.45589 0)
(-0.00292866 -5.39021 0)
(-0.00279552 -5.27787 0)
(-0.00235364 -5.0871 0)
(-0.00168598 -4.77268 0)
(-0.000931383 -4.27055 0)
(-0.00123273 -3.20112 0)
(0.00156801 -3.21437 0)
(0.000566503 -4.2811 0)
(0.00113252 -4.78446 0)
(0.00129673 -5.10037 0)
(0.00108173 -5.2915 0)
(0.000641244 -5.40296 0)
(7.36231e-05 -5.46643 0)
(-0.000554343 -5.50172 0)
(-0.00115944 -5.51997 0)
(-0.00172739 -5.52699 0)
(-0.00222943 -5.52533 0)
(-0.00265126 -5.51505 0)
(-0.00297532 -5.49379 0)
(-0.003193 -5.45589 0)
(-0.00326463 -5.39065 0)
(-0.00317675 -5.27912 0)
(-0.00277018 -5.08939 0)
(-0.00220073 -4.77594 0)
(-0.00111485 -4.274 0)
(-0.00101044 -3.20422 0)
(0.000961038 -3.21566 0)
(0.000638642 -4.2828 0)
(0.00138331 -4.78564 0)
(0.00155233 -5.10059 0)
(0.00136444 -5.29111 0)
(0.000821278 -5.40204 0)
(0.000181999 -5.46528 0)
(-0.000543938 -5.50047 0)
(-0.00123967 -5.51876 0)
(-0.00190519 -5.52588 0)
(-0.00252143 -5.52431 0)
(-0.00308205 -5.51416 0)
(-0.00356978 -5.49309 0)
(-0.00395475 -5.45549 0)
(-0.00418714 -5.39064 0)
(-0.00422392 -5.27937 0)
(-0.00387003 -5.09015 0)
(-0.00298721 -4.77764 0)
(-0.00117048 -4.27557 0)
(5.29003e-05 -3.20625 0)
(0.000243905 -3.21639 0)
(0.000686676 -4.28442 0)
(0.00181258 -4.78711 0)
(0.00209693 -5.10121 0)
(0.00192072 -5.29077 0)
(0.00131262 -5.4009 0)
(0.000530647 -5.46381 0)
(-0.000310658 -5.49896 0)
(-0.00113701 -5.51725 0)
(-0.00193018 -5.52439 0)
(-0.00267873 -5.52287 0)
(-0.00338486 -5.51278 0)
(-0.00401848 -5.49182 0)
(-0.00454118 -5.45445 0)
(-0.00488736 -5.38997 0)
(-0.00494725 -5.27922 0)
(-0.00450972 -5.09052 0)
(-0.00326593 -4.77848 0)
(-0.00142236 -4.27657 0)
(0.00019305 -3.20667 0)
(-0.000158627 -3.21645 0)
(0.000767918 -4.2855 0)
(0.00218968 -4.78797 0)
(0.00281519 -5.10094 0)
(0.00263567 -5.28952 0)
(0.00195191 -5.39918 0)
(0.0010509 -5.4619 0)
(8.42373e-05 -5.49701 0)
(-0.000860398 -5.51533 0)
(-0.00177279 -5.52255 0)
(-0.00263171 -5.52115 0)
(-0.00342569 -5.51118 0)
(-0.00412926 -5.49039 0)
(-0.00468506 -5.45331 0)
(-0.00503787 -5.38925 0)
(-0.00501805 -5.27906 0)
(-0.00446703 -5.09138 0)
(-0.00318014 -4.78061 0)
(-0.00179673 -4.27982 0)
(-0.000679484 -3.20678 0)
(0.000232227 -3.21594 0)
(0.00113225 -4.2875 0)
(0.00234078 -4.78903 0)
(0.00315609 -5.1006 0)
(0.00302109 -5.28804 0)
(0.00236145 -5.39711 0)
(0.0014151 -5.45972 0)
(0.000382863 -5.49484 0)
(-0.000655383 -5.51323 0)
(-0.00164841 -5.52055 0)
(-0.00257138 -5.51931 0)
(-0.00340933 -5.50957 0)
(-0.00413004 -5.48905 0)
(-0.00467581 -5.45237 0)
(-0.00500201 -5.38889 0)
(-0.00494867 -5.2795 0)
(-0.00441927 -5.09295 0)
(-0.00339784 -4.78361 0)
(-0.00215073 -4.28414 0)
(-0.00151041 -3.20896 0)
(0.000655133 -3.21659 0)
(0.001512 -4.29091 0)
(0.00270243 -4.79098 0)
(0.00337697 -5.10084 0)
(0.00322786 -5.28697 0)
(0.00259034 -5.39533 0)
(0.00161244 -5.45758 0)
(0.000531014 -5.49263 0)
(-0.000575064 -5.51109 0)
(-0.00163707 -5.51855 0)
(-0.00262916 -5.51747 0)
(-0.00352444 -5.50795 0)
(-0.00430239 -5.48772 0)
(-0.00490173 -5.45145 0)
(-0.00528507 -5.38868 0)
(-0.00524699 -5.28031 0)
(-0.00474375 -5.09503 0)
(-0.00373253 -4.7865 0)
(-0.00221154 -4.28743 0)
(-0.00151124 -3.21221 0)
(0.000948009 -3.21937 0)
(0.00198567 -4.29471 0)
(0.0032942 -4.7937 0)
(0.00375894 -5.10196 0)
(0.00354234 -5.28657 0)
(0.00287988 -5.39393 0)
(0.00186875 -5.45567 0)
(0.000726106 -5.4905 0)
(-0.000455565 -5.50893 0)
(-0.00161113 -5.51649 0)
(-0.00270325 -5.51555 0)
(-0.00370269 -5.50625 0)
(-0.00457781 -5.48633 0)
(-0.00526664 -5.45053 0)
(-0.0057174 -5.38839 0)
(-0.00574262 -5.28096 0)
(-0.00521977 -5.09705 0)
(-0.00418506 -4.78977 0)
(-0.00232576 -4.29133 0)
(-0.00133502 -3.21607 0)
(0.000760996 -3.22202 0)
(0.00192063 -4.29766 0)
(0.00386701 -4.79598 0)
(0.00458553 -5.1029 0)
(0.00447703 -5.28596 0)
(0.00369931 -5.39223 0)
(0.00255562 -5.45342 0)
(0.00123683 -5.488 0)
(-0.000123273 -5.50639 0)
(-0.00146496 -5.51402 0)
(-0.00274679 -5.51324 0)
(-0.00393528 -5.50414 0)
(-0.00499689 -5.48453 0)
(-0.00587234 -5.44924 0)
(-0.00644168 -5.38789 0)
(-0.00659357 -5.28156 0)
(-0.00608874 -5.09924 0)
(-0.00486961 -4.79332 0)
(-0.00259852 -4.29506 0)
(-0.000951857 -3.21962 0)
(0.000524305 -3.22327 0)
(0.00202927 -4.29979 0)
(0.0042312 -4.79743 0)
(0.00537489 -5.10259 0)
(0.00538737 -5.28427 0)
(0.00456521 -5.38964 0)
(0.00329785 -5.45034 0)
(0.00181143 -5.48475 0)
(0.000248322 -5.50318 0)
(-0.00130521 -5.51092 0)
(-0.00280182 -5.5103 0)
(-0.0042119 -5.5014 0)
(-0.0054921 -5.48211 0)
(-0.00658537 -5.44728 0)
(-0.00730319 -5.38666 0)
(-0.00753211 -5.28144 0)
(-0.00698288 -5.10019 0)
(-0.00529408 -4.79549 0)
(-0.00284067 -4.29823 0)
(-0.000588277 -3.22242 0)
(0.00124728 -3.22548 0)
(0.00266652 -4.30418 0)
(0.00474472 -4.80019 0)
(0.00588398 -5.10322 0)
(0.00580185 -5.28295 0)
(0.00496201 -5.38709 0)
(0.00365555 -5.4472 0)
(0.00211737 -5.4814 0)
(0.000465708 -5.49976 0)
(-0.00119553 -5.50755 0)
(-0.00281645 -5.50704 0)
(-0.00434936 -5.49832 0)
(-0.00574865 -5.47933 0)
(-0.00693647 -5.44493 0)
(-0.0077448 -5.38503 0)
(-0.00801375 -5.28101 0)
(-0.00740365 -5.10132 0)
(-0.00555858 -4.79855 0)
(-0.00323194 -4.3028 0)
(-0.00127475 -3.22398 0)
(0.00200549 -3.23034 0)
(0.00312611 -4.31037 0)
(0.00546764 -4.80469 0)
(0.00651229 -5.10518 0)
(0.00642147 -5.28282 0)
(0.0055176 -5.38549 0)
(0.0041455 -5.44459 0)
(0.00253183 -5.47825 0)
(0.00079024 -5.49641 0)
(-0.000968993 -5.50419 0)
(-0.002685 -5.50378 0)
(-0.00430405 -5.49529 0)
(-0.00576793 -5.47665 0)
(-0.00701019 -5.44283 0)
(-0.00787864 -5.38388 0)
(-0.0082304 -5.28132 0)
(-0.00759859 -5.10349 0)
(-0.00601065 -4.80299 0)
(-0.00352899 -4.30913 0)
(-0.00216112 -3.22705 0)
(0.0018373 -3.23405 0)
(0.00323355 -4.31495 0)
(0.00613187 -4.80854 0)
(0.00763948 -5.10678 0)
(0.00766775 -5.28215 0)
(0.00673236 -5.38328 0)
(0.00518721 -5.44147 0)
(0.00333524 -5.47471 0)
(0.00135854 -5.49271 0)
(-0.000618654 -5.50051 0)
(-0.0025354 -5.50028 0)
(-0.0043275 -5.49211 0)
(-0.00592364 -5.47397 0)
(-0.00725929 -5.44087 0)
(-0.00819025 -5.38301 0)
(-0.00854201 -5.28217 0)
(-0.00792869 -5.10675 0)
(-0.0065009 -4.80859 0)
(-0.00392241 -4.3155 0)
(-0.00231959 -3.23299 0)
(0.00161407 -3.23676 0)
(0.00357392 -4.31909 0)
(0.00668807 -4.8111 0)
(0.00852784 -5.10727 0)
(0.00877079 -5.28057 0)
(0.00777065 -5.38012 0)
(0.00608815 -5.43747 0)
(0.0040215 -5.47036 0)
(0.0018041 -5.4883 0)
(-0.000426092 -5.49622 0)
(-0.00259729 -5.49624 0)
(-0.00464403 -5.48843 0)
(-0.00649111 -5.47083 0)
(-0.00806375 -5.43854 0)
(-0.00921299 -5.38182 0)
(-0.00967611 -5.2826 0)
(-0.00916796 -5.10952 0)
(-0.00742992 -4.81383 0)
(-0.00415109 -4.32183 0)
(-0.00178627 -3.2389 0)
(0.00248176 -3.24075 0)
(0.00433684 -4.32578 0)
(0.00720415 -4.81604 0)
(0.00896494 -5.10903 0)
(0.00927549 -5.27963 0)
(0.00826954 -5.37731 0)
(0.00653803 -5.43346 0)
(0.00438214 -5.46576 0)
(0.00201498 -5.48351 0)
(-0.000408239 -5.49146 0)
(-0.00280702 -5.49163 0)
(-0.00510515 -5.4841 0)
(-0.00722802 -5.46696 0)
(-0.00907448 -5.43537 0)
(-0.0104503 -5.37977 0)
(-0.011029 -5.28233 0)
(-0.010428 -5.11156 0)
(-0.00817557 -4.81793 0)
(-0.0042455 -4.32686 0)
(-0.00134306 -3.24415 0)
(0.00297507 -3.24668 0)
(0.00465629 -4.33368 0)
(0.00792673 -4.82172 0)
(0.00986873 -5.11165 0)
(0.0100898 -5.27933 0)
(0.00908481 -5.37476 0)
(0.0072327 -5.42947 0)
(0.0049254 -5.46105 0)
(0.00238102 -5.47848 0)
(-0.000249131 -5.48633 0)
(-0.00286223 -5.48656 0)
(-0.00539104 -5.47927 0)
(-0.00774526 -5.46253 0)
(-0.00978854 -5.43167 0)
(-0.0113046 -5.37734 0)
(-0.0119211 -5.2818 0)
(-0.0112537 -5.1137 0)
(-0.0086484 -4.82293 0)
(-0.00473595 -4.33375 0)
(-0.00187896 -3.2485 0)
(0.00265094 -3.25235 0)
(0.00489082 -4.34085 0)
(0.00884417 -4.82702 0)
(0.011022 -5.11385 0)
(0.0112499 -5.27845 0)
(0.0101559 -5.37173 0)
(0.00817233 -5.42516 0)
(0.00569053 -5.45597 0)
(0.0029467 -5.47305 0)
(9.44942e-05 -5.48081 0)
(-0.00273881 -5.48114 0)
(-0.00547111 -5.47412 0)
(-0.00800389 -5.45792 0)
(-0.0101885 -5.42798 0)
(-0.0117912 -5.37505 0)
(-0.0124442 -5.28176 0)
(-0.0117885 -5.11676 0)
(-0.00911559 -4.82912 0)
(-0.00519818 -4.34229 0)
(-0.00269654 -3.25402 0)
(0.00279773 -3.25867 0)
(0.00535585 -4.34919 0)
(0.00962412 -4.83318 0)
(0.0119832 -5.11645 0)
(0.0123073 -5.27782 0)
(0.0111525 -5.36871 0)
(0.00907186 -5.42059 0)
(0.006434 -5.45052 0)
(0.00349648 -5.46719 0)