/*--------------------------------*- C++ -*----------------------------------*\
  =========                 |
  \\      /  F ield         | OpenFOAM: The Open Source CFD Toolbox
   \\    /   O peration     | Website:  https://openfoam.org
    \\  /    A nd           | Version:  6
     \\/     M anipulation  |
\*---------------------------------------------------------------------------*/
FoamFile
{
    version     2.0;
    format      ascii;
    class       volVectorField;
    location    "17";
    object      U;
}
// * * * * * * * * * * * * * * * * * * * * * * * * * * * * * * * * * * * * * //

dimensions      [0 1 -1 0 0 0 0];

internalField   nonuniform List<vector> 
130000
(
(-0.0143934 -0.342072 0)
(-0.0149946 -0.371993 0)
(-0.015535 -0.400963 0)
(-0.0160226 -0.428833 0)
(-0.0164524 -0.4554 0)
(-0.0168321 -0.480488 0)
(-0.0171674 -0.503937 0)
(-0.0174642 -0.525614 0)
(-0.0177278 -0.545418 0)
(-0.0179635 -0.563285 0)
(-0.0181758 -0.579185 0)
(-0.0183689 -0.593127 0)
(-0.0185461 -0.605155 0)
(-0.0187102 -0.615344 0)
(-0.0188634 -0.623797 0)
(-0.0190071 -0.630641 0)
(-0.0191422 -0.63602 0)
(-0.0192694 -0.64009 0)
(-0.0193895 -0.643016 0)
(-0.0195024 -0.644963 0)
(-0.0160756 -0.340613 0)
(-0.0164902 -0.370617 0)
(-0.0168993 -0.399716 0)
(-0.0172924 -0.427718 0)
(-0.0176498 -0.454415 0)
(-0.0179711 -0.479623 0)
(-0.0182588 -0.503179 0)
(-0.0185163 -0.52495 0)
(-0.0187475 -0.544834 0)
(-0.0189566 -0.562767 0)
(-0.0191474 -0.578722 0)
(-0.0193233 -0.592709 0)
(-0.0194871 -0.604772 0)
(-0.0196413 -0.61499 0)
(-0.0197874 -0.623467 0)
(-0.0199264 -0.630331 0)
(-0.0200588 -0.635728 0)
(-0.0201849 -0.639816 0)
(-0.0203054 -0.642758 0)
(-0.0204202 -0.64472 0)
(-0.0185571 -0.339918 0)
(-0.0188592 -0.369901 0)
(-0.0191535 -0.399016 0)
(-0.0194399 -0.427057 0)
(-0.0197042 -0.453801 0)
(-0.0199455 -0.479059 0)
(-0.0201651 -0.502663 0)
(-0.0203651 -0.524476 0)
(-0.0205482 -0.544398 0)
(-0.0207172 -0.562363 0)
(-0.020875 -0.578344 0)
(-0.021024 -0.592352 0)
(-0.0211663 -0.604433 0)
(-0.0213034 -0.614666 0)
(-0.0214364 -0.623156 0)
(-0.0215658 -0.630033 0)
(-0.0216917 -0.635442 0)
(-0.0218139 -0.639542 0)
(-0.0219329 -0.642498 0)
(-0.0220481 -0.644473 0)
(-0.0218817 -0.339457 0)
(-0.0220249 -0.36944 0)
(-0.0221753 -0.398571 0)
(-0.0223303 -0.426637 0)
(-0.0224774 -0.453412 0)
(-0.0226152 -0.478701 0)
(-0.0227446 -0.502333 0)
(-0.0228662 -0.524172 0)
(-0.0229818 -0.544114 0)
(-0.023093 -0.562095 0)
(-0.0232017 -0.578087 0)
(-0.0233095 -0.592103 0)
(-0.0234174 -0.60419 0)
(-0.0235262 -0.614425 0)
(-0.0236363 -0.622918 0)
(-0.0237476 -0.629797 0)
(-0.0238595 -0.635209 0)
(-0.0239716 -0.639313 0)
(-0.0240835 -0.642273 0)
(-0.0241944 -0.644254 0)
(-0.0257028 -0.339301 0)
(-0.0257101 -0.369271 0)
(-0.025726 -0.398397 0)
(-0.0257516 -0.426465 0)
(-0.0257784 -0.453245 0)
(-0.0258064 -0.47854 0)
(-0.0258364 -0.502177 0)
(-0.0258691 -0.524019 0)
(-0.0259058 -0.543962 0)
(-0.0259475 -0.561941 0)
(-0.0259954 -0.577929 0)
(-0.0260504 -0.591938 0)
(-0.0261129 -0.604017 0)
(-0.0261829 -0.614245 0)
(-0.0262601 -0.62273 0)
(-0.0263438 -0.629602 0)
(-0.0264328 -0.63501 0)
(-0.026526 -0.63911 0)
(-0.0266226 -0.64207 0)
(-0.0267209 -0.644052 0)
(-0.0298147 -0.339388 0)
(-0.0297094 -0.369349 0)
(-0.0296102 -0.398467 0)
(-0.0295212 -0.426526 0)
(-0.0294376 -0.453296 0)
(-0.0293608 -0.47858 0)
(-0.0292932 -0.502204 0)
(-0.0292358 -0.524031 0)
(-0.0291901 -0.543956 0)
(-0.0291572 -0.561916 0)
(-0.0291382 -0.577883 0)
(-0.0291334 -0.591871 0)
(-0.0291428 -0.603928 0)
(-0.0291661 -0.614135 0)
(-0.0292022 -0.622601 0)
(-0.02925 -0.629457 0)
(-0.0293079 -0.63485 0)
(-0.0293741 -0.63894 0)
(-0.0294473 -0.641892 0)
(-0.0295253 -0.643871 0)
(-0.0340971 -0.339666 0)
(-0.0338976 -0.369635 0)
(-0.0337032 -0.39875 0)
(-0.0335156 -0.426799 0)
(-0.0333341 -0.453555 0)
(-0.0331619 -0.478819 0)
(-0.0330027 -0.50242 0)
(-0.0328586 -0.524219 0)
(-0.0327316 -0.544114 0)
(-0.0326233 -0.56204 0)
(-0.0325346 -0.577973 0)
(-0.0324661 -0.591926 0)
(-0.0324177 -0.603949 0)
(-0.0323884 -0.614124 0)
(-0.0323774 -0.622561 0)
(-0.0323828 -0.62939 0)
(-0.0324028 -0.634761 0)
(-0.0324352 -0.638832 0)
(-0.0324783 -0.64177 0)
(-0.0325296 -0.643738 0)
(-0.0384692 -0.340102 0)
(-0.038197 -0.37009 0)
(-0.0379221 -0.399211 0)
(-0.0376506 -0.427256 0)
(-0.0373833 -0.453997 0)
(-0.0371254 -0.479238 0)
(-0.0368821 -0.502809 0)
(-0.0366564 -0.524573 0)
(-0.0364514 -0.544427 0)
(-0.036269 -0.56231 0)
(-0.0361108 -0.578199 0)
(-0.0359773 -0.592107 0)
(-0.0358685 -0.604086 0)
(-0.0357837 -0.614219 0)
(-0.0357214 -0.622616 0)
(-0.03568 -0.62941 0)
(-0.0356573 -0.63475 0)
(-0.0356506 -0.638795 0)
(-0.0356582 -0.641711 0)
(-0.0356771 -0.643663 0)
(-0.042887 -0.340664 0)
(-0.0425537 -0.370686 0)
(-0.0422108 -0.399823 0)
(-0.0418673 -0.427869 0)
(-0.0415249 -0.454599 0)
(-0.0411904 -0.479817 0)
(-0.0408705 -0.503356 0)
(-0.0405694 -0.52508 0)
(-0.0402907 -0.544889 0)
(-0.0400372 -0.562722 0)
(-0.0398109 -0.578558 0)
(-0.0396128 -0.592414 0)
(-0.0394429 -0.60434 0)
(-0.0393006 -0.614423 0)
(-0.0391848 -0.622773 0)
(-0.0390934 -0.629524 0)
(-0.0390242 -0.634825 0)
(-0.0389745 -0.638837 0)
(-0.0389422 -0.641725 0)
(-0.0389242 -0.643654 0)
(-0.0473216 -0.341334 0)
(-0.046938 -0.371403 0)
(-0.0465369 -0.400567 0)
(-0.0461304 -0.428622 0)
(-0.0457212 -0.455345 0)
(-0.0453176 -0.480543 0)
(-0.0449277 -0.50405 0)
(-0.0445565 -0.525732 0)
(-0.0442086 -0.545492 0)
(-0.0438873 -0.563271 0)
(-0.0435952 -0.57905 0)
(-0.0433336 -0.592846 0)
(-0.0431031 -0.604714 0)
(-0.042903 -0.61474 0)
(-0.0427323 -0.623036 0)
(-0.0425891 -0.629737 0)
(-0.0424711 -0.634993 0)
(-0.0423756 -0.638965 0)
(-0.0423002 -0.64182 0)
(-0.0422419 -0.643721 0)
(-0.0517668 -0.342095 0)
(-0.0513336 -0.372224 0)
(-0.0508796 -0.401426 0)
(-0.0504162 -0.429498 0)
(-0.0499467 -0.45622 0)
(-0.0494802 -0.481401 0)
(-0.0490259 -0.504878 0)
(-0.0485895 -0.526519 0)
(-0.0481764 -0.546229 0)
(-0.0477905 -0.563951 0)
(-0.047435 -0.579669 0)
(-0.0471115 -0.593402 0)
(-0.046821 -0.605206 0)
(-0.0465631 -0.61517 0)
(-0.0463369 -0.623407 0)
(-0.0461407 -0.630052 0)
(-0.0459723 -0.635258 0)
(-0.0458287 -0.639186 0)
(-0.0457079 -0.642001 0)
(-0.0456065 -0.643869 0)
(-0.056206 -0.34294 0)
(-0.0557325 -0.373141 0)
(-0.0552311 -0.40239 0)
(-0.0547155 -0.430487 0)
(-0.0541899 -0.457214 0)
(-0.0536645 -0.482383 0)
(-0.0531495 -0.505832 0)
(-0.0526514 -0.527433 0)
(-0.0521761 -0.547093 0)
(-0.0517281 -0.564757 0)
(-0.0513111 -0.580412 0)
(-0.0509272 -0.594079 0)
(-0.0505776 -0.605816 0)
(-0.0502623 -0.615714 0)
(-0.0499804 -0.623887 0)
(-0.0497306 -0.630473 0)
(-0.0495106 -0.635624 0)
(-0.0493176 -0.639502 0)
(-0.0491495 -0.642273 0)
(-0.049003 -0.644103 0)
(-0.0606428 -0.343865 0)
(-0.0601293 -0.374148 0)
(-0.0595822 -0.403453 0)
(-0.0590175 -0.431583 0)
(-0.0584392 -0.458321 0)
(-0.0578583 -0.483482 0)
(-0.0572859 -0.506907 0)
(-0.056729 -0.52847 0)
(-0.0561941 -0.54808 0)
(-0.0556862 -0.565686 0)
(-0.0552094 -0.581276 0)
(-0.0547662 -0.594875 0)
(-0.0543583 -0.606543 0)
(-0.0539857 -0.616372 0)
(-0.053648 -0.624478 0)
(-0.0533439 -0.631001 0)
(-0.0530713 -0.636093 0)
(-0.0528276 -0.639917 0)
(-0.0526107 -0.64264 0)
(-0.0524173 -0.644428 0)
(-0.0650756 -0.344867 0)
(-0.0645239 -0.375242 0)
(-0.0639333 -0.404611 0)
(-0.063321 -0.43278 0)
(-0.0626917 -0.459536 0)
(-0.0620573 -0.484693 0)
(-0.0614294 -0.508097 0)
(-0.0608156 -0.529624 0)
(-0.0602227 -0.549185 0)
(-0.0596562 -0.566734 0)
(-0.0591207 -0.582259 0)
(-0.0586191 -0.595789 0)
(-0.0581532 -0.607386 0)
(-0.0577236 -0.617143 0)
(-0.0573299 -0.62518 0)
(-0.056971 -0.631637 0)
(-0.0566452 -0.636667 0)
(-0.0563497 -0.640434 0)
(-0.0560827 -0.643105 0)
(-0.0558409 -0.644847 0)
(-0.0695036 -0.345942 0)
(-0.0689118 -0.376417 0)
(-0.0682798 -0.405858 0)
(-0.0676214 -0.434074 0)
(-0.0669429 -0.460853 0)
(-0.0662567 -0.486012 0)
(-0.0655748 -0.509399 0)
(-0.0649053 -0.530892 0)
(-0.0642555 -0.550407 0)
(-0.0636313 -0.567898 0)
(-0.0630378 -0.583359 0)
(-0.062478 -0.596819 0)
(-0.0619544 -0.608344 0)
(-0.0614674 -0.618029 0)
(-0.0610173 -0.625995 0)
(-0.060603 -0.632382 0)
(-0.060223 -0.637347 0)
(-0.0598746 -0.641054 0)
(-0.0595561 -0.643671 0)
(-0.0592646 -0.645362 0)
(-0.0739316 -0.347086 0)
(-0.0733007 -0.37767 0)
(-0.0726262 -0.407192 0)
(-0.0719217 -0.435462 0)
(-0.071194 -0.46227 0)
(-0.0704561 -0.487436 0)
(-0.0697205 -0.51081 0)
(-0.0689956 -0.532273 0)
(-0.0682891 -0.551743 0)
(-0.0676074 -0.569179 0)
(-0.0669558 -0.584576 0)
(-0.0663379 -0.597967 0)
(-0.0657562 -0.609419 0)
(-0.0652116 -0.61903 0)
(-0.0647045 -0.626922 0)
(-0.064234 -0.633239 0)
(-0.0637988 -0.638137 0)
(-0.0633964 -0.641781 0)
(-0.0630253 -0.644339 0)
(-0.0626824 -0.645978 0)
(-0.0783507 -0.348304 0)
(-0.0776845 -0.379006 0)
(-0.0769693 -0.408616 0)
(-0.0762194 -0.436946 0)
(-0.0754428 -0.463789 0)
(-0.0746532 -0.488967 0)
(-0.0738638 -0.512331 0)
(-0.0730834 -0.533767 0)
(-0.07232 -0.553195 0)
(-0.0715805 -0.570577 0)
(-0.0708705 -0.585911 0)
(-0.0701939 -0.599232 0)
(-0.0695535 -0.610611 0)
(-0.0689505 -0.620147 0)
(-0.0683853 -0.627965 0)
(-0.0678576 -0.634209 0)
(-0.067366 -0.639037 0)
(-0.0669083 -0.642616 0)
(-0.0664829 -0.645114 0)
(-0.0660874 -0.646697 0)
(-0.0827743 -0.349596 0)
(-0.0820705 -0.380425 0)
(-0.0813112 -0.410131 0)
(-0.0805145 -0.438528 0)
(-0.079688 -0.465411 0)
(-0.078846 -0.490605 0)
(-0.0780023 -0.513964 0)
(-0.0771659 -0.535375 0)
(-0.0763452 -0.554764 0)
(-0.0755474 -0.572093 0)
(-0.0747783 -0.587364 0)
(-0.0740423 -0.600616 0)
(-0.0733424 -0.611922 0)
(-0.0726799 -0.621382 0)
(-0.0720558 -0.629125 0)
(-0.0714695 -0.635295 0)
(-0.0709202 -0.640052 0)
(-0.0704057 -0.643563 0)
(-0.0699247 -0.645998 0)
(-0.0694747 -0.647522 0)
(-0.0871927 -0.350964 0)
(-0.0864504 -0.381928 0)
(-0.0856487 -0.411737 0)
(-0.084805 -0.440208 0)
(-0.0839282 -0.467136 0)
(-0.0830334 -0.492351 0)
(-0.0821348 -0.515708 0)
(-0.0812417 -0.537098 0)
(-0.0803628 -0.55645 0)
(-0.0795056 -0.573728 0)
(-0.0786765 -0.588938 0)
(-0.0778799 -0.602121 0)
(-0.0771192 -0.613353 0)
(-0.0763959 -0.622738 0)
(-0.0757113 -0.630404 0)
(-0.075065 -0.636499 0)
(-0.0744564 -0.641183 0)
(-0.0738834 -0.644625 0)
(-0.073345 -0.646994 0)
(-0.0728388 -0.648457 0)
(-0.0916171 -0.352405 0)
(-0.0908315 -0.383513 0)
(-0.089985 -0.413434 0)
(-0.0890926 -0.441985 0)
(-0.0881643 -0.468966 0)
(-0.0872155 -0.494206 0)
(-0.0862607 -0.517566 0)
(-0.0853097 -0.538939 0)
(-0.0843713 -0.558255 0)
(-0.0834534 -0.575484 0)
(-0.0825628 -0.590634 0)
(-0.0817042 -0.60375 0)
(-0.080881 -0.614909 0)
(-0.0800954 -0.624218 0)
(-0.0793485 -0.631807 0)
(-0.0786404 -0.637825 0)
(-0.0779706 -0.642435 0)
(-0.0773374 -0.645805 0)
(-0.0767395 -0.648106 0)
(-0.0761751 -0.649505 0)
(-0.0960381 -0.353921 0)
(-0.0952126 -0.385185 0)
(-0.0943211 -0.415225 0)
(-0.0933793 -0.443864 0)
(-0.0923979 -0.470903 0)
(-0.0913933 -0.496173 0)
(-0.0903805 -0.51954 0)
(-0.0893697 -0.540899 0)
(-0.08837 -0.560183 0)
(-0.0873896 -0.577365 0)
(-0.0864354 -0.592457 0)
(-0.0855127 -0.605506 0)
(-0.0846251 -0.616592 0)
(-0.0837751 -0.625824 0)
(-0.0829638 -0.633336 0)
(-0.0821919 -0.639277 0)
(-0.0814587 -0.643811 0)
(-0.080763 -0.647107 0)
(-0.0801035 -0.649338 0)
(-0.0794787 -0.65067 0)
(-0.100466 -0.355522 0)
(-0.0995988 -0.386949 0)
(-0.0986588 -0.417117 0)
(-0.0976652 -0.445851 0)
(-0.0966286 -0.472952 0)
(-0.0955661 -0.498259 0)
(-0.0944933 -0.521636 0)
(-0.0934205 -0.542983 0)
(-0.0923574 -0.562238 0)
(-0.0913122 -0.579375 0)
(-0.0902924 -0.59441 0)
(-0.0893033 -0.607393 0)
(-0.088349 -0.618407 0)
(-0.0874321 -0.627563 0)
(-0.0865542 -0.634996 0)
(-0.0857158 -0.640859 0)
(-0.0849169 -0.645315 0)
(-0.0841561 -0.648536 0)
(-0.0834326 -0.650695 0)
(-0.082745 -0.651958 0)
(-0.104895 -0.357207 0)
(-0.103985 -0.388808 0)
(-0.102996 -0.419111 0)
(-0.101949 -0.447947 0)
(-0.100856 -0.475118 0)
(-0.0997335 -0.500465 0)
(-0.0985985 -0.523856 0)
(-0.0974615 -0.545196 0)
(-0.0963325 -0.564424 0)
(-0.0952202 -0.581519 0)
(-0.0941321 -0.596499 0)
(-0.0930741 -0.609417 0)
(-0.0920504 -0.620359 0)
(-0.0910639 -0.629438 0)
(-0.0901165 -0.636793 0)
(-0.0892091 -0.642576 0)
(-0.0883416 -0.646953 0)
(-0.0875132 -0.650097 0)
(-0.086723 -0.652181 0)
(-0.0859699 -0.653372 0)
(-0.109336 -0.358979 0)
(-0.108377 -0.390762 0)
(-0.107337 -0.421211 0)
(-0.106234 -0.450155 0)
(-0.105081 -0.477403 0)
(-0.103896 -0.502796 0)
(-0.102696 -0.526207 0)
(-0.101493 -0.547542 0)
(-0.100295 -0.566747 0)
(-0.0991123 -0.583802 0)
(-0.097953 -0.598728 0)
(-0.096823 -0.611582 0)
(-0.0957268 -0.622453 0)
(-0.0946677 -0.631456 0)
(-0.0936477 -0.638732 0)
(-0.092668 -0.644434 0)
(-0.0917289 -0.648732 0)
(-0.0908297 -0.651797 0)
(-0.0899697 -0.653803 0)
(-0.0891482 -0.654919 0)
(-0.11378 -0.360837 0)
(-0.112774 -0.392815 0)
(-0.111681 -0.423419 0)
(-0.11052 -0.452481 0)
(-0.109305 -0.479812 0)
(-0.108055 -0.505257 0)
(-0.106787 -0.528692 0)
(-0.105513 -0.550028 0)
(-0.104243 -0.569212 0)
(-0.102988 -0.586229 0)
(-0.101754 -0.601104 0)
(-0.100548 -0.613896 0)
(-0.0993763 -0.624696 0)
(-0.098241 -0.633623 0)
(-0.0971451 -0.640818 0)
(-0.0960898 -0.64644 0)
(-0.0950756 -0.650655 0)
(-0.0941023 -0.653639 0)
(-0.0931692 -0.655566 0)
(-0.092276 -0.656604 0)
(-0.11824 -0.362793 0)
(-0.117183 -0.394978 0)
(-0.116033 -0.425745 0)
(-0.11481 -0.454933 0)
(-0.11353 -0.482354 0)
(-0.112211 -0.507857 0)
(-0.110871 -0.531321 0)
(-0.109523 -0.55266 0)
(-0.108178 -0.571827 0)
(-0.106844 -0.588809 0)
(-0.105532 -0.603634 0)
(-0.104248 -0.616364 0)
(-0.102996 -0.627095 0)
(-0.101781 -0.635946 0)
(-0.100605 -0.643061 0)
(-0.0994702 -0.6486 0)
(-0.0983773 -0.652732 0)
(-0.0973261 -0.655633 0)
(-0.0963161 -0.657478 0)
(-0.0953475 -0.658435 0)
(-0.122704 -0.364849 0)
(-0.121595 -0.397251 0)
(-0.120386 -0.428193 0)
(-0.1191 -0.457515 0)
(-0.117752 -0.485034 0)
(-0.116361 -0.5106 0)
(-0.114946 -0.534099 0)
(-0.113521 -0.555446 0)
(-0.112096 -0.574598 0)
(-0.110681 -0.591548 0)
(-0.109287 -0.606326 0)
(-0.107919 -0.618996 0)
(-0.106583 -0.629657 0)
(-0.105284 -0.638433 0)
(-0.104024 -0.645467 0)
(-0.102806 -0.650923 0)
(-0.10163 -0.65497 0)
(-0.100497 -0.657785 0)
(-0.0994065 -0.659546 0)
(-0.0983585 -0.660419 0)
(-0.127188 -0.367007 0)
(-0.126022 -0.39964 0)
(-0.12475 -0.430767 0)
(-0.123396 -0.460233 0)
(-0.121974 -0.487857 0)
(-0.120507 -0.513495 0)
(-0.119014 -0.537033 0)
(-0.117506 -0.558394 0)
(-0.115997 -0.577536 0)
(-0.114498 -0.594456 0)
(-0.113016 -0.609188 0)
(-0.11156 -0.6218 0)
(-0.110136 -0.632393 0)
(-0.108748 -0.641092 0)
(-0.1074 -0.648046 0)
(-0.106093 -0.653417 0)
(-0.10483 -0.657378 0)
(-0.10361 -0.660105 0)
(-0.102435 -0.661778 0)
(-0.101303 -0.662564 0)
(-0.131679 -0.369273 0)
(-0.130454 -0.402151 0)
(-0.129118 -0.433475 0)
(-0.127693 -0.463095 0)
(-0.126196 -0.490833 0)
(-0.124649 -0.516549 0)
(-0.123073 -0.540134 0)
(-0.121479 -0.561512 0)
(-0.119882 -0.580648 0)
(-0.118291 -0.597541 0)
(-0.116718 -0.61223 0)
(-0.11517 -0.624786 0)
(-0.113652 -0.635311 0)
(-0.11217 -0.643935 0)
(-0.110728 -0.650807 0)
(-0.109329 -0.656092 0)
(-0.107973 -0.659964 0)
(-0.106662 -0.662602 0)
(-0.105396 -0.664184 0)
(-0.104177 -0.66488 0)
(-0.136194 -0.371655 0)
(-0.134906 -0.404792 0)
(-0.133499 -0.436324 0)
(-0.131999 -0.466109 0)
(-0.130421 -0.49397 0)
(-0.128789 -0.519772 0)
(-0.127124 -0.543409 0)
(-0.125439 -0.564811 0)
(-0.123748 -0.583945 0)
(-0.122062 -0.600816 0)
(-0.120391 -0.615463 0)
(-0.118744 -0.627964 0)
(-0.117128 -0.638423 0)
(-0.115547 -0.646971 0)
(-0.114006 -0.653761 0)
(-0.112508 -0.658959 0)
(-0.111055 -0.66274 0)
(-0.109647 -0.665286 0)
(-0.108286 -0.666773 0)
(-0.106974 -0.667374 0)
(-0.140719 -0.374158 0)
(-0.139366 -0.407569 0)
(-0.137888 -0.439324 0)
(-0.136308 -0.469284 0)
(-0.134646 -0.497278 0)
(-0.132925 -0.523174 0)
(-0.131166 -0.546871 0)
(-0.129385 -0.568302 0)
(-0.127594 -0.587439 0)
(-0.125807 -0.604289 0)
(-0.124033 -0.618899 0)
(-0.122282 -0.631346 0)
(-0.120561 -0.641739 0)
(-0.118875 -0.650212 0)
(-0.117229 -0.656919 0)
(-0.115627 -0.662028 0)
(-0.11407 -0.665717 0)
(-0.112561 -0.668167 0)
(-0.111099 -0.669557 0)
(-0.109688 -0.670059 0)
(-0.145272 -0.376789 0)
(-0.143849 -0.41049 0)
(-0.142292 -0.442481 0)
(-0.140627 -0.472629 0)
(-0.138874 -0.500766 0)
(-0.137058 -0.526765 0)
(-0.1352 -0.550529 0)
(-0.133316 -0.571995 0)
(-0.13142 -0.59114 0)
(-0.129525 -0.607975 0)
(-0.127642 -0.622549 0)
(-0.12578 -0.634944 0)
(-0.123947 -0.645272 0)
(-0.12215 -0.65367 0)
(-0.120393 -0.660293 0)
(-0.11868 -0.665312 0)
(-0.117014 -0.668906 0)
(-0.115396 -0.671257 0)
(-0.113829 -0.672546 0)
(-0.112313 -0.672945 0)
(-0.149839 -0.379556 0)
(-0.148344 -0.413565 0)
(-0.146705 -0.445807 0)
(-0.144952 -0.476155 0)
(-0.143104 -0.504447 0)
(-0.141187 -0.530557 0)
(-0.139224 -0.554396 0)
(-0.137231 -0.575904 0)
(-0.135223 -0.595062 0)
(-0.133214 -0.611885 0)
(-0.131214 -0.626427 0)
(-0.129235 -0.638772 0)
(-0.127285 -0.649036 0)
(-0.125369 -0.657358 0)
(-0.123494 -0.663896 0)
(-0.121663 -0.668823 0)
(-0.119881 -0.67232 0)
(-0.118149 -0.67457 0)
(-0.116468 -0.675753 0)
(-0.114841 -0.676044 0)
(-0.154438 -0.382467 0)
(-0.152864 -0.416801 0)
(-0.151137 -0.44931 0)
(-0.149288 -0.479873 0)
(-0.147338 -0.50833 0)
(-0.145313 -0.534563 0)
(-0.143238 -0.558484 0)
(-0.14113 -0.580042 0)
(-0.139003 -0.599218 0)
(-0.136872 -0.616034 0)
(-0.134749 -0.630546 0)
(-0.132645 -0.642844 0)
(-0.130569 -0.653044 0)
(-0.128528 -0.661291 0)
(-0.126527 -0.667743 0)
(-0.124572 -0.672577 0)
(-0.122666 -0.675973 0)
(-0.120811 -0.678117 0)
(-0.11901 -0.679191 0)
(-0.117266 -0.679368 0)
(-0.159056 -0.38553 0)
(-0.1574 -0.420211 0)
(-0.155581 -0.453004 0)
(-0.153631 -0.483795 0)
(-0.151573 -0.51243 0)
(-0.149435 -0.538796 0)
(-0.147241 -0.562809 0)
(-0.14501 -0.584422 0)
(-0.142756 -0.603623 0)
(-0.140496 -0.620436 0)
(-0.138242 -0.634923 0)
(-0.136006 -0.647174 0)
(-0.133796 -0.657313 0)
(-0.131621 -0.665483 0)
(-0.129487 -0.671849 0)
(-0.127399 -0.676587 0)
(-0.125361 -0.67988 0)
(-0.123378 -0.681915 0)
(-0.121449 -0.682874 0)
(-0.119581 -0.682932 0)
(-0.16371 -0.388756 0)
(-0.161964 -0.423803 0)
(-0.160046 -0.456898 0)
(-0.157988 -0.487934 0)
(-0.155814 -0.51676 0)
(-0.153554 -0.54327 0)
(-0.151234 -0.567384 0)
(-0.148871 -0.589061 0)
(-0.146483 -0.608293 0)
(-0.144085 -0.625108 0)
(-0.141691 -0.639572 0)
(-0.139313 -0.65178 0)
(-0.136961 -0.661858 0)
(-0.134644 -0.669953 0)
(-0.132368 -0.676231 0)
(-0.130139 -0.68087 0)
(-0.127962 -0.684057 0)
(-0.12584 -0.685978 0)
(-0.123776 -0.686818 0)
(-0.121775 -0.686751 0)
(-0.168387 -0.392154 0)
(-0.166548 -0.42759 0)
(-0.164525 -0.461007 0)
(-0.162353 -0.492304 0)
(-0.160058 -0.521336 0)
(-0.157668 -0.548001 0)
(-0.155213 -0.572227 0)
(-0.152711 -0.593976 0)
(-0.150179 -0.613245 0)
(-0.147634 -0.630068 0)
(-0.145091 -0.644513 0)
(-0.142563 -0.65668 0)
(-0.14006 -0.666697 0)
(-0.137591 -0.674716 0)
(-0.135163 -0.680905 0)
(-0.132784 -0.685444 0)
(-0.130458 -0.688521 0)
(-0.12819 -0.690324 0)
(-0.125982 -0.691038 0)
(-0.12384 -0.69084 0)
(-0.173105 -0.395736 0)
(-0.171165 -0.431585 0)
(-0.169029 -0.465343 0)
(-0.166734 -0.496919 0)
(-0.164307 -0.526172 0)
(-0.16178 -0.553006 0)
(-0.15918 -0.577354 0)
(-0.156529 -0.599184 0)
(-0.153844 -0.618498 0)
(-0.151142 -0.635333 0)
(-0.148441 -0.649763 0)
(-0.145752 -0.661892 0)
(-0.143087 -0.67185 0)
(-0.140456 -0.679793 0)
(-0.137867 -0.685891 0)
(-0.135328 -0.690327 0)
(-0.132844 -0.69329 0)
(-0.130419 -0.69497 0)
(-0.128058 -0.695554 0)
(-0.125765 -0.695218 0)
(-0.177851 -0.399514 0)
(-0.175805 -0.435801 0)
(-0.17355 -0.469923 0)
(-0.171126 -0.501797 0)
(-0.16856 -0.531286 0)
(-0.165886 -0.558303 0)
(-0.163133 -0.582785 0)
(-0.160323 -0.604705 0)
(-0.157474 -0.624071 0)
(-0.154606 -0.640925 0)
(-0.151735 -0.655345 0)
(-0.148874 -0.667437 0)
(-0.146037 -0.677338 0)
(-0.143234 -0.685205 0)
(-0.140473 -0.69121 0)
(-0.137762 -0.69554 0)
(-0.135109 -0.698385 0)
(-0.132518 -0.699937 0)
(-0.129993 -0.700383 0)
(-0.12754 -0.699901 0)
(-0.182645 -0.4035 0)
(-0.180483 -0.440253 0)
(-0.178099 -0.474762 0)
(-0.175535 -0.506954 0)
(-0.17282 -0.536698 0)
(-0.169988 -0.563911 0)
(-0.167072 -0.588539 0)
(-0.164091 -0.61056 0)
(-0.161068 -0.629987 0)
(-0.158022 -0.646866 0)
(-0.154969 -0.661279 0)
(-0.151926 -0.673339 0)
(-0.148905 -0.683183 0)
(-0.145917 -0.690973 0)
(-0.142972 -0.696884 0)
(-0.140079 -0.701105 0)
(-0.137245 -0.703827 0)
(-0.134476 -0.705245 0)
(-0.131777 -0.705546 0)
(-0.129153 -0.70491 0)
(-0.187472 -0.407708 0)
(-0.185189 -0.444956 0)
(-0.18267 -0.479878 0)
(-0.179959 -0.512409 0)
(-0.177085 -0.542426 0)
(-0.174086 -0.569852 0)
(-0.170995 -0.59464 0)
(-0.167833 -0.616772 0)
(-0.164624 -0.636268 0)
(-0.161387 -0.653179 0)
(-0.15814 -0.667591 0)
(-0.154901 -0.679621 0)
(-0.151683 -0.68941 0)
(-0.148498 -0.697123 0)
(-0.145357 -0.702938 0)
(-0.142269 -0.707046 0)
(-0.139242 -0.709641 0)
(-0.136283 -0.710917 0)
(-0.133398 -0.711066 0)
(-0.130592 -0.710266 0)
(-0.192355 -0.412153 0)
(-0.18994 -0.449928 0)
(-0.187275 -0.485289 0)
(-0.184404 -0.518182 0)
(-0.18136 -0.548492 0)
(-0.178182 -0.576149 0)
(-0.174903 -0.60111 0)
(-0.171547 -0.623366 0)
(-0.168138 -0.64294 0)
(-0.164697 -0.65989 0)
(-0.161244 -0.674306 0)
(-0.157795 -0.68631 0)
(-0.154366 -0.696045 0)
(-0.15097 -0.703681 0)
(-0.147619 -0.709398 0)
(-0.144322 -0.713389 0)
(-0.141089 -0.71585 0)
(-0.137927 -0.716979 0)
(-0.134843 -0.716967 0)
(-0.131843 -0.715993 0)
(-0.19728 -0.416852 0)
(-0.194726 -0.455186 0)
(-0.191907 -0.491015 0)
(-0.188868 -0.524296 0)
(-0.185643 -0.55492 0)
(-0.182273 -0.582825 0)
(-0.178794 -0.607975 0)
(-0.175231 -0.630367 0)
(-0.171608 -0.650031 0)
(-0.167949 -0.667028 0)
(-0.164274 -0.681454 0)
(-0.160601 -0.693434 0)
(-0.156946 -0.703117 0)
(-0.153325 -0.710675 0)
(-0.149748 -0.716291 0)
(-0.146228 -0.720161 0)
(-0.142774 -0.722484 0)
(-0.139395 -0.723457 0)
(-0.136097 -0.723274 0)
(-0.13289 -0.722116 0)
(-0.202269 -0.421821 0)
(-0.199565 -0.460751 0)
(-0.196578 -0.497079 0)
(-0.193357 -0.530774 0)
(-0.189937 -0.561735 0)
(-0.186362 -0.589908 0)
(-0.182668 -0.615264 0)
(-0.178882 -0.637806 0)
(-0.175031 -0.657569 0)
(-0.171138 -0.674621 0)
(-0.167225 -0.689064 0)
(-0.163312 -0.701024 0)
(-0.159416 -0.710658 0)
(-0.155552 -0.718137 0)
(-0.151734 -0.72365 0)
(-0.147975 -0.727395 0)
(-0.144284 -0.729572 0)
(-0.140673 -0.730381 0)
(-0.137147 -0.730018 0)
(-0.133717 -0.728664 0)
(-0.207308 -0.42708 0)
(-0.204446 -0.466643 0)
(-0.201282 -0.503503 0)
(-0.197868 -0.537641 0)
(-0.194241 -0.568964 0)
(-0.190446 -0.597426 0)
(-0.186523 -0.623006 0)
(-0.182499 -0.645712 0)
(-0.178402 -0.665587 0)
(-0.174259 -0.682705 0)
(-0.170091 -0.697169 0)
(-0.16592 -0.709115 0)
(-0.161764 -0.7187 0)
(-0.157641 -0.7261 0)
(-0.153564 -0.731507 0)
(-0.149548 -0.735121 0)
(-0.145605 -0.737146 0)
(-0.141744 -0.737783 0)
(-0.137973 -0.737228 0)
(-0.134305 -0.735665 0)
(-0.212421 -0.432646 0)
(-0.209386 -0.472884 0)
(-0.20603 -0.510312 0)
(-0.202408 -0.544925 0)
(-0.198558 -0.576637 0)
(-0.194528 -0.605411 0)
(-0.190358 -0.631233 0)
(-0.186079 -0.65412 0)
(-0.181719 -0.67412 0)
(-0.177306 -0.691312 0)
(-0.172864 -0.705807 0)
(-0.168417 -0.717742 0)
(-0.163983 -0.72728 0)
(-0.159581 -0.734601 0)
(-0.155227 -0.739899 0)
(-0.150935 -0.743377 0)
(-0.146719 -0.745242 0)
(-0.142591 -0.745696 0)
(-0.138559 -0.744938 0)
(-0.134635 -0.743152 0)
(-0.217594 -0.438543 0)
(-0.214377 -0.479501 0)
(-0.210819 -0.517535 0)
(-0.206975 -0.552655 0)
(-0.202887 -0.584785 0)
(-0.198605 -0.613895 0)
(-0.194171 -0.639981 0)
(-0.189617 -0.663067 0)
(-0.184975 -0.683206 0)
(-0.180273 -0.700484 0)
(-0.175538 -0.715016 0)
(-0.170794 -0.726945 0)
(-0.166061 -0.736438 0)
(-0.161359 -0.743679 0)
(-0.156707 -0.748865 0)
(-0.152119 -0.752202 0)
(-0.147611 -0.753897 0)
(-0.143196 -0.754158 0)
(-0.138882 -0.753183 0)
(-0.134685 -0.75116 0)
(-0.222851 -0.444794 0)
(-0.219436 -0.486518 0)
(-0.215658 -0.525199 0)
(-0.211576 -0.560864 0)
(-0.207232 -0.593442 0)
(-0.202678 -0.622916 0)
(-0.197961 -0.649288 0)
(-0.193113 -0.672591 0)
(-0.188167 -0.692884 0)
(-0.183155 -0.71026 0)
(-0.178104 -0.724838 0)
(-0.17304 -0.736768 0)
(-0.167986 -0.746218 0)
(-0.162962 -0.753378 0)
(-0.157989 -0.758448 0)
(-0.153083 -0.761637 0)
(-0.148261 -0.763155 0)
(-0.143537 -0.76321 0)
(-0.138922 -0.762005 0)
(-0.13443 -0.759726 0)
(-0.228182 -0.451422 0)
(-0.224557 -0.493964 0)
(-0.220547 -0.533338 0)
(-0.21621 -0.569585 0)
(-0.211592 -0.602646 0)
(-0.206748 -0.632512 0)
(-0.201725 -0.659196 0)
(-0.196561 -0.682736 0)
(-0.19129 -0.7032 0)
(-0.185944 -0.720686 0)
(-0.180553 -0.735321 0)
(-0.175145 -0.747256 0)
(-0.169745 -0.756667 0)
(-0.164375 -0.763745 0)
(-0.159056 -0.768695 0)
(-0.153808 -0.771729 0)
(-0.148648 -0.773059 0)
(-0.143592 -0.772896 0)
(-0.138652 -0.771444 0)
(-0.133845 -0.768892 0)
(-0.233609 -0.458455 0)
(-0.229757 -0.50187 0)
(-0.225495 -0.541984 0)
(-0.220883 -0.578856 0)
(-0.21597 -0.612436 0)
(-0.210814 -0.642726 0)
(-0.205464 -0.669748 0)
(-0.19996 -0.693548 0)
(-0.194337 -0.714202 0)
(-0.188632 -0.731813 0)
(-0.182875 -0.746513 0)
(-0.177097 -0.758461 0)
(-0.171324 -0.767835 0)
(-0.165581 -0.774831 0)
(-0.15989 -0.779657 0)
(-0.154273 -0.782528 0)
(-0.148749 -0.783659 0)
(-0.143336 -0.783264 0)
(-0.138046 -0.781548 0)
(-0.132899 -0.778702 0)
(-0.239127 -0.465923 0)
(-0.235032 -0.510269 0)
(-0.230502 -0.551176 0)
(-0.225597 -0.588717 0)
(-0.220368 -0.622856 0)
(-0.214876 -0.653605 0)
(-0.209174 -0.680994 0)
(-0.203304 -0.705079 0)
(-0.197304 -0.725942 0)
(-0.191211 -0.743694 0)
(-0.18506 -0.758471 0)
(-0.178883 -0.770439 0)
(-0.172707 -0.779779 0)
(-0.166562 -0.786692 0)
(-0.160469 -0.791389 0)
(-0.154455 -0.794089 0)
(-0.148538 -0.79501 0)
(-0.142739 -0.794367 0)
(-0.137073 -0.792368 0)
(-0.13156 -0.789206 0)
(-0.244756 -0.473855 0)
(-0.2404 -0.519198 0)
(-0.23558 -0.560952 0)
(-0.230358 -0.599213 0)
(-0.224789 -0.633954 0)
(-0.218936 -0.665198 0)
(-0.212855 -0.692987 0)
(-0.20659 -0.717383 0)
(-0.200182 -0.738478 0)
(-0.193672 -0.756387 0)
(-0.187095 -0.771255 0)
(-0.180487 -0.78325 0)
(-0.173878 -0.79256 0)
(-0.167297 -0.79939 0)
(-0.160771 -0.803954 0)
(-0.154327 -0.806473 0)
(-0.147987 -0.80717 0)
(-0.141772 -0.806262 0)
(-0.135699 -0.80396 0)
(-0.129792 -0.800458 0)
(-0.250493 -0.482286 0)
(-0.245857 -0.528693 0)
(-0.240728 -0.571357 0)
(-0.235168 -0.610391 0)
(-0.229233 -0.64578 0)
(-0.222992 -0.677561 0)
(-0.216503 -0.705783 0)
(-0.209813 -0.730521 0)
(-0.202966 -0.751871 0)
(-0.196004 -0.769958 0)
(-0.188968 -0.784931 0)
(-0.181894 -0.796963 0)
(-0.174816 -0.806247 0)
(-0.167765 -0.812992 0)
(-0.16077 -0.817417 0)
(-0.153861 -0.819747 0)
(-0.147062 -0.820205 0)
(-0.140398 -0.819013 0)
(-0.133886 -0.816384 0)
(-0.127553 -0.812515 0)
(-0.256358 -0.491251 0)
(-0.251421 -0.538798 0)
(-0.245958 -0.582436 0)
(-0.240033 -0.622301 0)
(-0.233705 -0.65839 0)
(-0.227045 -0.690751 0)
(-0.220116 -0.719447 0)
(-0.212967 -0.744559 0)
(-0.205645 -0.766192 0)
(-0.198197 -0.784477 0)
(-0.190664 -0.79957 0)
(-0.183086 -0.811649 0)
(-0.175499 -0.820913 0)
(-0.167939 -0.827573 0)
(-0.160437 -0.831854 0)
(-0.153024 -0.833982 0)
(-0.145729 -0.834186 0)
(-0.138578 -0.83269 0)
(-0.131592 -0.829709 0)
(-0.124799 -0.825442 0)
(-0.262352 -0.500789 0)
(-0.257092 -0.549556 0)
(-0.251272 -0.594239 0)
(-0.244956 -0.634998 0)
(-0.238204 -0.671843 0)
(-0.231094 -0.704835 0)
(-0.22369 -0.734046 0)
(-0.216046 -0.759568 0)
(-0.208212 -0.781514 0)
(-0.200236 -0.800022 0)
(-0.192165 -0.815252 0)
(-0.184041 -0.827391 0)
(-0.175903 -0.836639 0)
(-0.167791 -0.843215 0)
(-0.159738 -0.847345 0)
(-0.15178 -0.84926 0)
(-0.143947 -0.849192 0)
(-0.136269 -0.847369 0)
(-0.128768 -0.844008 0)
(-0.121477 -0.83931 0)
(-0.268496 -0.510941 0)
(-0.262887 -0.561015 0)
(-0.256682 -0.606821 0)
(-0.249945 -0.648543 0)
(-0.242737 -0.686205 0)
(-0.235141 -0.719881 0)
(-0.227224 -0.749655 0)
(-0.219045 -0.775628 0)
(-0.210655 -0.79792 0)
(-0.202108 -0.816677 0)
(-0.193453 -0.832066 0)
(-0.184737 -0.844277 0)
(-0.176001 -0.853517 0)
(-0.167289 -0.860008 0)
(-0.158638 -0.863981 0)
(-0.150087 -0.86567 0)
(-0.14167 -0.865311 0)
(-0.133419 -0.863135 0)
(-0.125361 -0.859362 0)
(-0.11753 -0.854197 0)
(-0.274793 -0.521753 0)
(-0.268811 -0.573226 0)
(-0.262193 -0.620239 0)
(-0.255003 -0.663 0)
(-0.247305 -0.701546 0)
(-0.239184 -0.735966 0)
(-0.230714 -0.766355 0)
(-0.221954 -0.792824 0)
(-0.212963 -0.8155 0)
(-0.203797 -0.834537 0)
(-0.194507 -0.850107 0)
(-0.185147 -0.862406 0)
(-0.175761 -0.871646 0)
(-0.166396 -0.878053 0)
(-0.157095 -0.881861 0)
(-0.147899 -0.88331 0)
(-0.138846 -0.882639 0)
(-0.129973 -0.880081 0)
(-0.121309 -0.875862 0)
(-0.112892 -0.870187 0)
(-0.281264 -0.533272 0)
(-0.27488 -0.586246 0)
(-0.267818 -0.634557 0)
(-0.26014 -0.678439 0)
(-0.251912 -0.717944 0)
(-0.243224 -0.753175 0)
(-0.234154 -0.784238 0)
(-0.224767 -0.811252 0)
(-0.215122 -0.834356 0)
(-0.205282 -0.853707 0)
(-0.195303 -0.869484 0)
(-0.185241 -0.881889 0)
(-0.175147 -0.891138 0)
(-0.165071 -0.897461 0)
(-0.15506 -0.901097 0)
(-0.145161 -0.902291 0)
(-0.135416 -0.901283 0)
(-0.125865 -0.898312 0)
(-0.116542 -0.893607 0)
(-0.107488 -0.887376 0)
(-0.287916 -0.545549 0)
(-0.281101 -0.600133 0)
(-0.273563 -0.649841 0)
(-0.265359 -0.694936 0)
(-0.25656 -0.735483 0)
(-0.24726 -0.771598 0)
(-0.23754 -0.8034 0)
(-0.227471 -0.831018 0)
(-0.217117 -0.854597 0)
(-0.206543 -0.874301 0)
(-0.195813 -0.890316 0)
(-0.184985 -0.902848 0)
(-0.174117 -0.912116 0)
(-0.163265 -0.918357 0)
(-0.152479 -0.921813 0)
(-0.141812 -0.922732 0)
(-0.131311 -0.921361 0)
(-0.121021 -0.917941 0)
(-0.11098 -0.912705 0)
(-0.101234 -0.905866 0)
(-0.29477 -0.558639 0)
(-0.287492 -0.614951 0)
(-0.279441 -0.666167 0)
(-0.270671 -0.712575 0)
(-0.261254 -0.754255 0)
(-0.25129 -0.791338 0)
(-0.240866 -0.823953 0)
(-0.230055 -0.852239 0)
(-0.218927 -0.876347 0)
(-0.207554 -0.89645 0)
(-0.196002 -0.912737 0)
(-0.184338 -0.925418 0)
(-0.172624 -0.934719 0)
(-0.160921 -0.94088 0)
(-0.149287 -0.944147 0)
(-0.13778 -0.944772 0)
(-0.126452 -0.943006 0)
(-0.115356 -0.939096 0)
(-0.104531 -0.93328 0)
(-0.0940308 -0.925772 0)
(-0.301838 -0.572602 0)
(-0.294061 -0.630771 0)
(-0.285459 -0.683614 0)
(-0.276078 -0.731447 0)
(-0.265994 -0.774361 0)
(-0.255311 -0.812504 0)
(-0.244121 -0.846016 0)
(-0.232503 -0.875043 0)
(-0.220531 -0.899744 0)
(-0.208284 -0.920297 0)
(-0.195833 -0.936895 0)
(-0.183253 -0.949754 0)