/*--------------------------------*- C++ -*----------------------------------*\
  =========                 |
  \\      /  F ield         | OpenFOAM: The Open Source CFD Toolbox
   \\    /   O peration     | Website:  https://openfoam.org
    \\  /    A nd           | Version:  6
     \\/     M anipulation  |
\*---------------------------------------------------------------------------*/
FoamFile
{
    version     2.0;
    format      ascii;
    class       volScalarField;
    location    "30";
    object      epsilon;
}
// * * * * * * * * * * * * * * * * * * * * * * * * * * * * * * * * * * * * * //

dimensions      [0 2 -3 0 0 0 0];

internalField   nonuniform List<scalar> 
130000
(
13.5214
13.2405
12.9654
12.7004
12.4441
12.1957
11.9551
11.7227
11.4991
11.2852
11.0818
10.8902
10.711
10.5453
10.3936
10.2566
10.1344
10.0273
9.93519
9.85795
13.5424
13.2615
12.9865
12.7212
12.4644
12.2153
11.9739
11.7406
11.5161
11.3013
11.0971
10.9046
10.7248
10.5585
10.4063
10.2689
10.1464
10.0391
9.94681
9.86945
13.5618
13.2809
13.0057
12.7401
12.4826
12.2327
11.9904
11.7561
11.5305
11.3147
11.1095
10.916
10.7351
10.5678
10.4148
10.2766
10.1536
10.046
9.9536
9.8763
13.5784
13.2973
13.0218
12.7556
12.4974
12.2467
12.0034
11.768
11.5411
11.3238
11.1172
10.9222
10.7399
10.5714
10.4176
10.2788
10.1554
10.0475
9.95515
9.87801
13.5909
13.3095
13.0335
12.7667
12.5077
12.2558
12.0111
11.7742
11.5457
11.327
11.1191
10.9231
10.7398
10.5707
10.4164
10.2772
10.1536
10.0457
9.95333
9.87638
13.5995
13.3175
13.0408
12.7728
12.5123
12.259
12.013
11.7749
11.5452
11.3257
11.1172
10.9208
10.7375
10.5683
10.4138
10.2746
10.151
10.0432
9.95095
9.8742
13.6047
13.3217
13.0435
12.7741
12.5122
12.2579
12.011
11.7722
11.5423
11.3224
11.1136
10.917
10.7336
10.5643
10.4099
10.2708
10.1474
10.0398
9.94788
9.87143
13.6075
13.323
13.0433
12.7728
12.5102
12.255
12.0075
11.7681
11.5377
11.3175
11.1084
10.9117
10.7283
10.5591
10.4049
10.2661
10.143
10.0357
9.94419
9.86815
13.6093
13.3232
13.0423
12.7707
12.507
12.251
12.0026
11.7626
11.5318
11.3112
11.102
10.9052
10.7219
10.5529
10.399
10.2605
10.1379
10.0311
9.94003
9.8645
13.6108
13.3231
13.0409
12.768
12.5032
12.2462
11.997
11.7563
11.525
11.3041
11.0947
10.898
10.7148
10.5461
10.3924
10.2544
10.1323
10.026
9.93554
9.86057
13.6125
13.3232
13.0395
12.7652
12.4992
12.241
11.991
11.7496
11.5178
11.2965
11.087
10.8902
10.7072
10.5388
10.3856
10.248
10.1264
10.0207
9.93087
9.85652
13.6146
13.3237
13.0386
12.7627
12.4952
12.2359
11.9849
11.7428
11.5104
11.2888
11.079
10.8823
10.6994
10.5313
10.3785
10.2415
10.1204
10.0154
9.92614
9.85244
13.6171
13.3246
13.0379
12.7604
12.4917
12.2312
11.9791
11.7361
11.5031
11.2811
11.0712
10.8744
10.6917
10.5239
10.3715
10.235
10.1145
10.0101
9.9215
9.84845
13.6204
13.3261
13.0377
12.759
12.4888
12.2269
11.9738
11.7299
11.4962
11.2738
11.0636
10.8667
10.6842
10.5166
10.3646
10.2286
10.1087
10.0049
9.91701
9.84461
13.6247
13.3286
13.0385
12.7585
12.4868
12.2235
11.9691
11.7243
11.4899
11.2669
11.0564
10.8595
10.677
10.5097
10.3581
10.2226
10.1032
10.0001
9.91277
9.84102
13.6298
13.3319
13.0402
12.7586
12.4856
12.221
11.9653
11.7194
11.4842
11.2606
11.0498
10.8528
10.6703
10.5032
10.352
10.2169
10.0981
9.99551
9.90885
9.83771
13.6359
13.3363
13.0427
12.7593
12.4851
12.2193
11.9624
11.7154
11.4793
11.2552
11.0439
10.8467
10.6642
10.4973
10.3464
10.2117
10.0934
9.9914
9.90532
9.83479
13.6433
13.3418
13.0465
12.7613
12.4854
12.2188
11.9606
11.7124
11.4754
11.2505
11.0388
10.8413
10.6588
10.492
10.3414
10.2071
10.0893
9.98777
9.90227
9.83233
13.652
13.3487
13.0515
12.7646
12.487
12.2189
11.9598
11.7105
11.4725
11.2468
11.0346
10.8368
10.6542
10.4875
10.337
10.2031
10.0857
9.98474
9.89977
9.83037
13.662
13.3569
13.0578
12.7689
12.4896
12.2196
11.9596
11.7095
11.4708
11.2443
11.0314
10.8332
10.6505
10.4837
10.3335
10.1999
10.0829
9.9824
9.89793
9.82898
13.6733
13.3664
13.0654
12.7746
12.4934
12.2217
11.9601
11.7093
11.4699
11.2426
11.0291
10.8305
10.6476
10.4809
10.3307
10.1974
10.0809
9.98083
9.8968
9.82827
13.6861
13.3774
13.0746
12.7818
12.4987
12.2251
11.9618
11.7095
11.4693
11.2414
11.0277
10.8289
10.6458
10.479
10.3289
10.1957
10.0794
9.97961
9.89586
9.82761
13.7005
13.3901
13.0853
12.7906
12.5054
12.2301
11.965
11.7113
11.4698
11.2417
11.0276
10.8285
10.6451
10.4781
10.3279
10.1947
10.0784
9.97878
9.89535
9.82747
13.7166
13.4044
13.0977
12.8009
12.5137
12.2364
11.9695
11.7142
11.4714
11.2423
11.0275
10.828
10.6446
10.4777
10.3277
10.1947
10.0785
9.97891
9.8956
9.82787
13.7342
13.4204
13.1118
12.8129
12.5236
12.2442
11.9755
11.7183
11.4739
11.2433
11.0276
10.8276
10.6442
10.4775
10.3276
10.1946
10.0782
9.9785
9.8951
9.82743
13.7537
13.4383
13.1277
12.8268
12.5353
12.2537
11.9829
11.7239
11.4778
11.2459
11.0291
10.8284
10.6445
10.4773
10.3275
10.1944
10.0777
9.97772
9.89418
9.82655
13.7753
13.4583
13.1458
12.8426
12.5489
12.2651
11.9921
11.7311
11.4832
11.2497
11.0316
10.8297
10.645
10.4779
10.3277
10.1945
10.0781
9.97786
9.89425
9.82628
13.7989
13.4804
13.166
12.8607
12.5646
12.2785
12.0032
11.7401
11.4903
11.255
11.0354
10.8322
10.6464
10.4782
10.3275
10.1941
10.078
9.97867
9.89574
9.82818
13.8247
13.5049
13.1886
12.8811
12.5826
12.2941
12.0165
11.7511
11.4992
11.2621
11.0408
10.8362
10.649
10.4796
10.328
10.1943
10.0783
9.97958
9.89706
9.82971
13.853
13.5319
13.2138
12.9041
12.6033
12.3122
12.0322
11.7645
11.5105
11.2714
11.0484
10.8422
10.6537
10.4832
10.3307
10.1963
10.0796
9.98013
9.89736
9.82986
13.884
13.5619
13.242
12.9302
12.6269
12.3333
12.0507
11.7806
11.5243
11.2832
11.0583
10.8506
10.6607
10.489
10.3355
10.2002
10.0827
9.98249
9.89891
9.83114
13.9181
13.5951
13.2736
12.9596
12.6538
12.3576
12.0725
11.7999
11.5413
11.298
11.0712
10.8618
10.6704
10.4974
10.3429
10.2067
10.0884
9.98758
9.90349
9.83533
13.9555
13.6318
13.3089
12.9928
12.6846
12.3858
12.0979
11.8227
11.5617
11.3162
11.0874
10.8762
10.6833
10.5089
10.3533
10.2161
10.097
9.99546
9.91075
9.84204
13.9967
13.6726
13.3483
13.0302
12.7195
12.4181
12.1275
11.8496
11.586
11.3382
11.1073
10.8942
10.6997
10.5239
10.367
10.2288
10.1088
10.0064
9.92095
9.85154
14.0421
13.7179
13.3925
13.0724
12.7593
12.4551
12.1618
11.8811
11.6149
11.3646
11.1315
10.9164
10.7201
10.5428
10.3845
10.2451
10.1241
10.0208
9.93447
9.86423
14.0921
13.7682
13.4419
13.12
12.8045
12.4976
12.2013
11.9178
11.6488
11.396
11.1605
10.9433
10.7451
10.5661
10.4064
10.2656
10.1434
10.0391
9.95173
9.88052
14.1474
13.8242
13.4972
13.1736
12.8557
12.5461
12.2469
11.9604
11.6886
11.433
11.195
10.9755
10.7753
10.5945
10.4331
10.2909
10.1674
10.0618
9.97325
9.90089
14.2085
13.8865
13.5591
13.234
12.9139
12.6014
12.2993
12.0097
11.7349
11.4764
11.2358
11.0139
10.8114
10.6286
10.4655
10.3216
10.1966
10.0895
9.99965
9.92594
14.2762
13.956
13.6286
13.3022
12.9799
12.6647
12.3595
12.0668
11.7888
11.5274
11.2839
11.0594
10.8545
10.6695
10.5044
10.3587
10.2319
10.1232
10.0317
9.95644
14.3513
14.0335
13.7067
13.3792
13.0549
12.737
12.4287
12.1327
11.8515
11.5869
11.3404
11.1132
10.9057
10.7183
10.5509
10.4032
10.2744
10.1638
10.0705
9.99333
14.4348
14.1203
13.7945
13.4664
13.1402
12.8197
12.5083
12.2091
11.9245
11.6566
11.407
11.1767
10.9664
10.7764
10.6066
10.4565
10.3255
10.2127
10.1172
10.0378
14.5278
14.2176
13.8936
13.5654
13.2376
12.9146
12.6002
12.2976
12.0096
11.7383
11.4853
11.2519
11.0386
10.8457
10.6731
10.5204
10.3868
10.2715
10.1734
10.0915
14.6318
14.3271
14.0058
13.678
13.3491
13.0239
12.7066
12.4007
12.1092
11.8343
11.5779
11.341
11.1245
10.9284
10.7528
10.5971
10.4606
10.3424
10.2413
10.1562
14.7482
14.4506
14.1332
13.8067
13.4773
13.1503
12.8304
12.5213
12.2263
11.9478
11.6878
11.4473
11.2273
11.0278
10.8488
10.6897
10.5498
10.4281
10.3234
10.2346
14.8793
14.5907
14.2787
13.9547
13.6256
13.2974
12.9752
12.6632
12.3649
12.0829
11.8191
11.575
11.3511
11.1479
10.9651
10.8022
10.6583
10.5325
10.4236
10.3302
15.0274
14.7505
14.4459
14.1259
13.7984
13.4699
13.1462
12.8318
12.5305
12.2451
11.9777
11.7297
11.5019
11.2946
11.1075
10.9402
10.7916
10.6609
10.5466
10.4476
15.1959
14.9339
14.6396
14.3259
14.0016
13.6743
13.3502
13.0342
12.7306
12.4422
12.1714
11.9197
11.6878
11.476
11.2842
11.1116
10.9575
10.8207
10.6998
10.5936
15.3889
15.1465
14.8662
14.5619
14.2436
13.9196
13.5969
13.2809
12.976
12.6856
12.412
12.1568
11.9208
11.7042
11.507
11.3283
11.1673
11.0228
10.8935
10.7779
15.6122
15.3956
15.1347
14.8444
14.536
14.2188
13.9003
13.5867
13.2827
12.9918
12.7165
12.4585
12.2187
11.9972
11.7938
11.6078
11.4382
11.2837
11.1431
11.015
15.8732
15.6912
15.4576
15.1882
14.8957
14.5904
14.2809
13.9737
13.674
13.3855
13.1108
12.8515
12.6086
12.3822
12.1719
11.9769
11.7962
11.6286
11.4727
11.327
16.1825
16.0477
15.8528
15.6145
15.347
15.0621
14.769
14.4749
14.1853
13.9041
13.634
13.3765
13.1324
12.9016
12.6836
12.4776
12.2824
12.0967
11.9192
11.7485
16.5543
16.4851
16.3458
16.1539
15.9257
15.674
15.4093
15.1393
14.8696
14.6044
14.346
14.0958
13.8543
13.621
13.395
13.1754
12.9607
12.7497
12.5411
12.3338
17.0081
17.0315
16.973
16.8509
16.6835
16.4855
16.2682
16.0399
15.8065
15.5717
15.3376
15.1049
14.8732
14.6416
14.4086
14.1724
13.9316
13.6847
13.4307
13.1689
17.5784
17.7271
17.7866
17.7685
17.695
17.5818
17.4417
17.2835
17.1126
16.9322
16.7435
16.5459
16.3379
16.1169
15.8802
15.6253
15.3497
15.0521
14.7315
14.388
18.3023
18.6392
18.8598
18.9936
19.065
19.0831
19.0653
19.0211
18.954
18.8659
18.7566
18.6236
18.4629
18.2694
18.0381
17.7644
17.4448
17.077
16.6605
16.1963
19.2336
19.8347
20.3058
20.6658
20.941
21.1498
21.3189
21.4577
21.5545
21.6137
21.6338
21.611
21.5354
21.3982
21.1906
20.9044
20.5335
20.0741
19.5252
18.8889
20.4452
21.4187
22.2422
22.9309
23.5166
24.0228
24.4665
24.8564
25.1912
25.4656
25.675
25.8288
25.8895
25.8511
25.6977
25.4158
24.9951
24.428
23.7117
22.8475
22.0276
23.517
24.8318
25.9807
26.9992
27.9137
28.7409
29.4884
30.1553
30.7341
31.2142
31.5811
31.82
31.934
31.8745
31.6263
31.1729
30.5011
29.6021
28.4726
24.0936
26.2819
28.2611
30.028
31.6208
33.0676
34.3862
35.5842
36.6598
37.6043
38.4048
39.0442
39.5034
39.7687
39.8396
39.6585
39.2069
38.4628
37.4077
36.0259
26.7769
29.8849
32.7276
35.2805
37.5833
39.6678
41.5549
43.2546
44.7687
46.0923
47.2157
48.1249
48.8036
49.2361
49.424
49.3366
48.9246
48.1627
47.0194
45.4609
30.2325
34.5086
38.4185
41.9078
45.0202
47.797
50.2702
52.4618
54.3854
56.0471
57.4474
58.5823
59.445
60.0253
60.3199
60.3144
59.962
59.2306
58.0743
56.44
34.632
40.3316
45.4881
50.016
53.9763
57.4361
60.4541
63.0775
65.3416
67.2717
68.884
70.1884
71.1883
71.8809
72.2609
72.319
72.0281
71.353
70.2293
68.5908
40.1577
47.5145
54.043
59.6461
64.4313
68.5172
72.0079
74.9883
77.5231
79.6604
81.4341
82.8668
83.9707
84.7499
85.2002
85.308
85.067
84.4481
83.3669
81.7469
46.9886
56.1847
64.1414
70.7968
76.3469
80.988
84.8844
88.1649
90.9254
93.236
95.1458
96.6879
97.8813
98.734
99.2435
99.3968
99.1964
98.6231
97.5743
95.9634
55.2865
66.4322
75.8099
83.4607
89.71
94.8496
99.1095
102.662
105.63
108.105
110.147
111.797
113.079
114.005
114.573
114.768
114.6
114.062
113.032
111.411
65.18
78.3117
89.0628
97.6467
104.545
110.152
114.758
118.576
121.755
124.399
126.579
128.344
129.722
130.726
131.353
131.591
131.452
130.941
129.92
128.275
76.7602
91.8558
103.919
113.386
120.906
126.968
131.921
136.011
139.407
142.229
144.557
146.445
147.925
149.013
149.706
149.988
149.877
149.393
148.38
146.705
90.0802
107.084
120.402
130.721
138.85
145.366
150.669
155.035
158.654
161.659
164.138
166.154
167.741
168.918
169.68
170.011
169.931
169.476
168.48
166.785
105.167
124.008
138.535
149.683
158.412
165.377
171.026
175.663
179.499
182.678
185.302
187.44
189.132
190.398
191.235
191.622
191.58
191.164
190.203
188.51
122.024
142.632
158.325
170.277
179.583
186.976
192.946
197.827
201.85
205.177
207.921
210.16
211.943
213.293
214.207
214.663
214.672
214.306
213.408
211.753
140.642
162.936
179.741
192.451
202.287
210.053
216.285
221.349
225.498
228.914
231.725
234.022
235.862
237.277
238.272
238.833
238.928
238.597
237.791
236.23
160.984
184.864
202.698
216.077
226.348
234.385
240.771
245.908
250.076
253.48
256.266
258.542
260.375
261.808
262.851
263.494
263.691
263.475
262.818
261.436
182.98
208.305
227.028
240.929
251.473
259.609
265.973
271.007
275.023
278.256
280.874
283.003
284.728
286.103
287.147
287.855
288.177
288.122
287.683
286.609
206.512
233.072
252.466
266.652
277.217
285.189
291.265
295.932
299.545
302.37
304.607
306.407
307.873
309.078
310.055
310.81
311.31
311.495
311.328
310.702
231.401
258.89
278.626
292.747
302.962
310.39
315.794
319.721
322.573
324.658
326.213
327.425
328.423
329.295
330.093
330.839
331.511
332.052
332.348
332.288
257.395
285.381
304.995
318.554
327.901
334.254
338.459
341.132
342.738
343.63
344.091
344.371
344.629
344.95
345.409
346.054
346.879
347.838
348.811
349.627
284.17
312.074
330.932
343.255
351.031
355.597
357.902
358.639
358.388
357.491
356.269
354.965
353.804
353.061
352.869
353.242
354.203
355.734
357.738
360.044
311.347
338.418
355.693
365.892
371.177
373.03
372.554
370.404
367.106
363.375
359.801
356.921
354.554
352.948
352.219
352.392
353.394
355.318
358.082
361.526
338.53
363.835
378.478
385.412
387.025
385.037
380.284
374.115
367.782
361.369
355.252
349.525
345.069
341.953
340.286
340.097
341.16
343.668
347.666
353.069
365.354
387.779
398.457
400.793
397.402
389.804
380.359
369.714
358.317
347.526
337.772
329.415
322.74
317.965
315.227
314.62
315.904
319.063
324.361
331.689
391.573
409.702
414.907
411.172
400.665
386.831
370.381
353.324
336.705
321.352
307.82
296.489
287.589
281.28
277.653
276.801
278.378
282.357
289.116
298.577
417.006
429.335
427.629
415.361
396.756
373.702
349.29
325.217
302.756
282.763
265.725
251.891
241.334
234.073
230.095
229.443
231.636
236.767
245.26
257.043
441.787
447.166
436.25
413.458
383.32
350.094
316.719
285.397
257.521
233.825
214.521
199.542
188.663
181.665
178.372
178.723
182.153
189.167
200.041
214.741
466.319
462.91
439.692
403.592
360.55
315.861
273.489
235.998
204.598
179.512
160.343
146.476
137.268
132.245
131.105
133.36
139.163
149.422
163.959
183.918
492.068
476.928
438.697
386.018
328.075
271.98
222.496
182
150.793
127.88
111.898
101.58
95.9305
94.3745
96.2982
101.491
110.99
125.756
147.435
176.275
518.86
488.362
430.356
358.564
285.855
221.436
169.699
131.246
104.375
86.6141
75.64
69.7326
67.8029
69.3648
73.8796
82.5716
96.5718
118.415
147.299
185.898
546.306
494.057
411.74
319.19
234.114
166.514
118.521
87.2145
68.0386
56.9891
51.2889
49.3419
50.4101
54.0647
61.285
73.2779
93.1519
121.838
166.716
230.293
573.809
491.885
378.009
264.703
174.214
112.95
76.1469
55.5718
44.6851
39.3353
37.3321
37.7746
40.3071
45.5284
54.5916
69.9498
95.3834
138.34
210.986
310.95
597.242
470.978
321.943
197.054
115.628
70.6579
48.4269
37.7192
32.4657
30.1551
29.8261
31.1415
34.3343
40.2419
50.6408
69.7559
103.556
169.083
282.473
425.444
605.565
422.019
244.945
128.965
71.6829
46.7479
35.186
29.2957
26.3328
25.1453
25.3065
26.8056
30.0922
36.2189
47.6089
70.0187
116.775
211.89
374.138
554.862
594.865
342.87
165.398
85.0581
51.9438
36.7819
29.0674
24.9356
22.7664
21.8911
22.0961
23.5085
26.6401
32.7352
44.8237
70.7058
130.892
258.686
468.221
681.454
559.032
272.77
130.659
70.4242
44.5105
32.2025
25.8075
22.2533
20.3291
19.5227
19.6598
20.8897
23.7271
29.4544
41.3508
68.3967
136.401
288.843
548.914
802.236
552.193
261.282
125.536
65.8052
41.0042
29.4896
23.5288
20.2525
18.4918
17.7428
17.8178
18.8444
21.2888
26.336
37.0842
62.3355
128.51
295.122
599.3
919.212
654.051
296.219
129.628
64.2309
38.6218
27.2403
21.6217
18.6599
17.1143
16.4589
16.4932
17.3115
19.3039
23.4845
32.5134
54.0454
112.15
273.584
617.435
1033.29
871.995
368.442
139.497
62.9483
36.0006
25.005
19.9211
17.3893
16.1235
15.592
15.5976
16.2063
17.7131
20.9416
28.0516
45.3933
94.0254
239.217
600.195
1127.56
1138.03
419.338
142.341
58.1202
32.1609
22.4933
18.3179
16.3624
15.438
15.0682
15.0712
15.4551
16.4629
18.6924
23.6984
36.0295
71.5525
187.987
532.435
1167.41
1282.98
417.71
119.71
47.2654
26.8627
19.7284
16.8131
15.5415
15.0033
14.8094
14.8071
15.004
15.569
16.911
20.0723
27.9709
50.9926
131.781
423.515
1148.56
1312.18
316.487
82.3254
34.0295
21.391
17.2207
15.6595
15.0485
14.8079
14.7255
14.7283
14.8229
15.0995
15.7421
17.2992
21.4186
33.7105
78.9359
276.345
969.776
958.873
165.91
45.2779
22.7776
17.1611
15.5159
14.9978
14.8235
14.7487
14.7159
14.7158
14.7469
14.8139
14.9979
15.4956
16.8781
21.2249
38.6571
131.555
596.96
299.961
52.2556
21.0715
16.2989
15.2972
14.9754
14.8542
14.81
14.7997
14.7987
14.7982
14.7976
14.8043
14.8407
14.9541
15.276
16.1698
18.6234
29.5268
160.083
9.56964
9.53197
9.49006
9.45137
9.41623
9.38483
9.35731
9.33378
9.31431
9.29896
9.28778
9.28078
9.27786
9.27894
9.2842
9.29359
9.30706
9.32458
9.34614
9.37174
9.58357
9.54524
9.5031
9.46414
9.42872
9.39705
9.36928
9.34552
9.32585
9.31033
9.299
9.29186
9.28884
9.28984
9.29504
9.30438
9.31783
9.33535
9.35691
9.38249
9.59371
9.55507
9.51261
9.47333
9.43759
9.40561
9.37756
9.35355
9.33367
9.31797
9.30649
9.29925
9.29614
9.29708
9.30225
9.3116
9.32508
9.34265
9.36424
9.38984
9.6019
9.56293
9.52014
9.48053
9.44447
9.4122
9.38387
9.35961
9.33951
9.32364
9.31204
9.30471
9.30155
9.30251
9.30775
9.31723
9.33089
9.34862
9.37035
9.39602
9.60881
9.56951
9.5264
9.48648
9.4501
9.41753
9.38891
9.36439
9.34407
9.32803
9.3163
9.30893
9.30581
9.30688
9.31235
9.32215
9.33621
9.35436
9.37639
9.40222
9.61498
9.57536
9.53195
9.49173
9.45506
9.4222
9.39332
9.36856
9.34804
9.33183
9.32002
9.31262
9.30956
9.31077
9.3165
9.32677
9.34167
9.36074
9.38341
9.40943
9.62085
9.58093
9.53724
9.49674
9.45981
9.42671
9.39761
9.37267
9.35198
9.33565
9.32375
9.3163
9.31319
9.31435
9.32001
9.33018
9.34499
9.36404
9.38704
9.41298
9.62672
9.58651
9.54256
9.50181
9.46467
9.43137
9.4021
9.37701
9.35621
9.33979
9.32779
9.32024
9.317
9.31795
9.32325
9.33284
9.34667
9.36482
9.38738
9.41289
9.63273
9.59225
9.54805
9.50709
9.46975
9.4363
9.40691
9.38174
9.36088
9.34443
9.33242
9.32484
9.32155
9.32238
9.32748
9.33675
9.35009
9.36747
9.38884
9.41415
9.63885
9.59812
9.5537
9.51254
9.47503
9.44146
9.41199
9.38679
9.36595
9.34957
9.33767
9.33025
9.3271
9.32807
9.33329
9.34261
9.35593
9.37321
9.39437
9.4194
9.64497
9.60401
9.55939
9.51805
9.4804
9.44672
9.41719
9.39198
9.37119
9.35493
9.34322
9.33607
9.33326
9.33464
9.34029
9.34989
9.3634
9.38076
9.40191
9.42684
9.65097
9.60981
9.56504
9.52358
9.48581
9.45204
9.42244
9.39718
9.37638
9.36015
9.34855
9.34163
9.33916
9.34115
9.34749
9.35764
9.37152
9.38901
9.41006
9.43467
9.6569
9.61562
9.57078
9.52924
9.49141
9.45756
9.42786
9.40249
9.38155
9.36515
9.35335
9.34619
9.34348
9.34518
9.35124
9.36125
9.37502
9.39239
9.41331
9.43778
9.66321
9.62184
9.57698
9.53543
9.49756
9.46365
9.43386
9.40836
9.38722
9.37055
9.35838
9.35073
9.34741
9.34827
9.35349
9.36291
9.37625
9.39343
9.41436
9.43901
9.6706
9.62912
9.58423
9.54264
9.50471
9.47073
9.44085
9.41523
9.39393
9.37706
9.36464
9.35667
9.353
9.35345
9.35823
9.36724
9.38035
9.39746
9.41847
9.4433
9.67971
9.63803
9.59303
9.5513
9.51324
9.47912
9.4491
9.42334
9.40192
9.38491
9.37234
9.36422
9.36038
9.36064
9.36524
9.37409
9.38707
9.40409
9.42503
9.4498
9.69094
9.64898
9.60377
9.56181
9.52351
9.48915
9.45892
9.43297
9.41137
9.39422
9.38152
9.37328
9.36933
9.36947
9.37394
9.38264
9.39546
9.4123
9.43302
9.45752
9.70469
9.66242
9.61696
9.57471
9.53609
9.50143
9.4709
9.44468
9.42286
9.40551
9.39264
9.38426
9.38019
9.3802
9.38452
9.39304
9.40561
9.42213
9.44243
9.46642
9.72131
9.67877
9.63311
9.59059
9.55166
9.51668
9.48584
9.45933
9.43724
9.41967
9.40661
9.39808
9.39387
9.39374
9.39785
9.40612
9.41836
9.43444
9.45419
9.47748
9.74111
9.69841
9.65262
9.60992
9.57075
9.53551
9.5044
9.47764
9.45531
9.43753
9.42429
9.4156
9.41129
9.411
9.41478
9.42272
9.43456
9.45015
9.46928
9.49181
9.7644
9.72163
9.67585
9.63306
9.59375
9.55833
9.52701
9.50005
9.47752
9.45955
9.44612
9.43725
9.43274
9.43223
9.43574
9.44333
9.45473
9.46978
9.48824
9.50995
9.79153
9.74883
9.70317
9.66041
9.62105
9.58551
9.55406
9.52693
9.50423
9.48609
9.47248
9.4634
9.45868
9.45793
9.46112
9.46831
9.47923
9.49367
9.51138
9.53219
9.82301
9.78051
9.73512
9.6925
9.65317
9.6176
9.58606
9.55881
9.53596
9.51765
9.50384
9.49454
9.48956
9.48853
9.49136
9.4981
9.50845
9.5222
9.53907
9.55885
9.85952
9.81738
9.77242
9.73006
9.69088
9.65535
9.62377
9.59644
9.57346
9.55497
9.54095
9.53139
9.5261
9.52474
9.52713
9.53333
9.54302
9.55595
9.57182
9.59041
9.90193
9.86034
9.81602
9.7741
9.73518
9.69979
9.66824
9.64085
9.61775
9.59908
9.58481
9.57494
9.56928
9.56749
9.56936
9.5749
9.58378
9.59573
9.61042
9.62758
9.95137
9.91061
9.86718
9.82591
9.78741
9.75227
9.72084
9.69344
9.67023
9.65137
9.63681
9.62655
9.62041
9.61809
9.61929
9.624
9.63187
9.64262
9.65586
9.67131
10.0093
9.96973
9.92757
9.88724
9.84939
9.81467
9.78345
9.75611
9.73281
9.71372
9.69881
9.68807
9.68131
9.67827
9.67861
9.68226
9.68885
9.69808
9.70952
9.72286
10.0778
10.0398
9.99946
9.96048
9.92361
9.88954
9.8587
9.83151
9.80814
9.78879
9.77342
9.76204
9.75446
9.75047
9.74964
9.75189
9.75681
9.76408
9.77324
9.78393
10.1594
10.124
10.0861
10.0491
10.0137
9.98066
9.95044
9.92353
9.90012
9.88044
9.86447
9.85223
9.8435
9.83816
9.83575
9.83606
9.83872
9.8434
9.84958
9.85686
10.2584
10.2265
10.1924
10.1583
10.1252
10.0937
10.0645
10.0381
10.0147
9.99455
9.97774
9.96425
9.95389
9.94652
9.9418
9.9394
9.93893
9.94004
9.94218
9.94492
10.3807
10.3542
10.3258
10.2962
10.2665
10.2376
10.21
10.1844
10.1611
10.1404
10.1223
10.107
10.0942
10.0838
10.0755
10.0691
10.0641
10.0601
10.0565
10.053
10.5359
10.5178
10.4982
10.4758
10.4517
10.4269
10.402
10.3778
10.3548
10.3331
10.3131
10.2948
10.2782
10.2631
10.2493
10.2366
10.2246
10.213
10.2011
10.1884
10.7393
10.7348
10.7294
10.7187
10.7037
10.6856
10.6653
10.6436
10.621
10.598
10.5748
10.5517
10.5288
10.506
10.4834
10.4607
10.4377
10.4141
10.3894
10.363
11.016
11.0344
11.0522
11.0606
11.061
11.0544
11.0419
11.0245
11.0028
10.9775
10.9491
10.918
10.8846
10.8492
10.8118
10.7727
10.7317
10.6888
10.6437
10.5959
11.4122
11.4668
11.5218
11.5617
11.5888
11.6014
11.6024
11.5925
11.5726
11.5438
11.5066
11.4622
11.411
11.3541
11.2919
11.2252
11.1543
11.0796
11.0011
10.9186
11.9994
12.1156
12.2364
12.3296
12.3956
12.4388
12.4638
12.4671
12.4509
12.4165
12.3651
12.2981
12.2171
12.1238
12.0197
11.9064
11.7852
11.6572
11.5233
11.3838
12.8931
13.1127
13.3416
13.5247
13.6624
13.7567
13.8126
13.8396
13.8304
13.788
13.7137
13.6101
13.4798
13.3262
13.1521
12.9609
12.7554
12.5385
12.3123
12.0782
14.2789
14.6662
15.0703
15.3988
15.6512
15.8298
15.9388
15.9902
15.997
15.9445
15.8361
15.6757
15.4679
15.2182
14.9318
14.6146
14.272
13.9094
13.5316
13.1424
16.4305
17.0768
17.7482
18.2961
18.7188
19.0198
19.2057
19.2937
19.3141
19.2566
19.102
18.8615
18.5423
18.1519
17.6984
17.1904
16.6368
16.0472
15.4301
14.7938
19.7106
20.7209
21.7582
22.5972
23.2378
23.6911
23.972
24.1073
24.1419
24.0731
23.8643
23.5289
23.0743
22.5082
21.8388
21.076
20.2313
19.3181
18.3508
17.3442
24.5032
25.9466
27.3945
28.5362
29.384
29.9671
30.318
30.4835
30.5305
30.4585
30.2093
29.7969
29.2257
28.4979
27.6157
26.5827
25.4073
24.1029
22.6874
21.183
31.0311
32.8532
34.616
35.9434
36.8805
37.4942
37.8443
37.9996
38.0428
37.9759
37.7217
37.2926
36.6867
35.8947
34.9026
33.6928
32.2598
30.6053
28.7381
26.6785
39.1173
41.0927
42.9221
44.2056
45.0325
45.5341
45.7949
45.8979
45.9216
45.8646
45.6426
45.268
44.7356
44.0276
43.1112
41.9173
40.4268
38.6223
36.4768
33.9754
48.1748
50.0026
51.6627
52.8237
53.5933
54.0559
54.2871
54.3802
54.4072
54.3585
54.1425
53.7739
53.2493
52.555
51.6739
50.5784
49.2278
47.5543
45.4543
42.804
57.8254
59.656
61.3158
62.4746
63.2428
63.7074
63.9426
64.0403
64.0721
64.0326
63.8146
63.4369
62.9
62.1952
61.3066
60.2044
58.8478
57.1753
55.1122
52.5649
68.5859
70.5457
72.3269
73.5809
74.4188
74.9293
75.1928
75.3076
75.3496
75.3239
75.1029
74.7082
74.1398
73.389
72.4404
71.2663
69.8305
68.0781
65.9374
63.302
80.8676
83.0612
85.0586
86.4734
87.4285
88.0185
88.3291
88.4717
88.5402
88.5338
88.3079
87.8883
87.2755
86.4609
85.4286
84.1511
82.5909
80.6905
78.3738
75.5317
95.0378
97.5464
99.8384
101.472
102.588
103.289
103.668
103.851
103.95
103.968
103.739
103.294
102.63
101.739
100.604
99.1955
97.4715
95.3705
92.8087
89.6654
111.44
114.342
117.004
118.917
120.24
121.087
121.555
121.788
121.935
121.983
121.755
121.283
120.561
119.58
118.321
116.753
114.828
112.48
109.613
106.09
130.429
133.808
136.919
139.177
140.763
141.808
142.408
142.711
142.899
142.964
142.748
142.25
141.462
140.376
138.971
137.214
135.052
132.409
129.176
125.197
152.386
156.332
159.978
162.652
164.567
165.876
166.689
167.122
167.301
167.319
167.162
166.636
165.773
164.567
162.994
161.018
158.579
155.591
151.929
147.415
177.716
182.327
186.602
189.768
192.07
193.687
194.754
195.376
195.621
195.633
195.481
194.915
193.968
192.628
190.867
188.641
185.884
182.498
178.341
173.208
206.84
212.227
217.237
220.982
223.739
225.709
227.041
227.843
228.2
228.277
228.164
227.577
226.55
225.068
223.1
220.595
217.479
213.641
208.92
203.079
240.186
246.47
252.333
256.758
260.056
262.452
264.108
265.14
265.642
265.803
265.746
265.151
264.048
262.418
260.224
257.411
253.894
249.549
244.192
237.551
278.159
285.476
292.324
297.543
301.481
304.388
306.443
307.766
308.449
308.711
308.728
308.152
306.986
305.204
302.769
299.62
295.661
290.754
284.688
277.153
321.121
329.616
337.594
343.733
348.423
351.941
354.483
356.17
357.105
357.49
357.542
357.074
355.859
353.924
351.233
347.721
343.28
337.755
330.907
322.384
369.339
379.174
388.439
395.638
401.206
405.451
408.584
410.732
412.006
412.623
412.788
412.365
411.094
408.998
406.038
402.138
397.178
390.983
383.281
373.676
422.933
434.289
445.006
453.417
460.006
465.109
468.964
471.714
473.454
474.339
474.629
474.269
472.955
470.705
467.469
463.163
457.651
450.735
442.112
431.333
482.403
495.391
507.672
517.385
525.063
531.078
535.695
539.078
541.332
542.572
543.067
542.819
541.496
539.109
535.601
530.875
524.782
517.103
507.502
495.484
549.008
563.784
577.789
588.933
597.805
604.82
610.274
614.351
617.167
618.815
619.54
619.429
618.125
615.633
611.882
606.759
600.093
591.638
581.014
567.666
623.895
640.632
656.53
669.241
679.418
687.524
693.891
698.721
702.149
704.254
705.257
705.318
704.08
701.525
697.567
692.072
684.842
675.597
663.907
649.147
708.185
727.047
744.998
759.404
770.992
780.276
787.63
793.284
797.388
800.02
801.342
801.571
800.49
797.933
793.826
788
780.231
770.202
757.424
741.188
802.935
824.065
844.203
860.411
873.497
884.036
892.449
898.995
903.85
907.099
908.865
909.348
908.413
905.905
901.713
895.621
887.37
876.598
862.746
845.01
909.114
932.604
955.017
973.092
987.731
999.574
1009.09
1016.58
1022.24
1026.17
1028.47
1029.29
1028.58
1026.22
1022.06
1015.81
1007.18
995.765
980.912
961.716
1027.53
1053.39
1078.09
1098.03
1114.21
1127.36
1138
1146.46
1152.97
1157.64
1160.55
1161.81
1161.43
1159.34
1155.36
1149.13
1140.31
1128.41
1112.72
1092.2
1158.72
1186.85
1213.71
1235.4
1253.04
1267.42
1279.13
1288.54
1295.91
1301.37
1304.99
1306.81
1306.89
1305.21
1301.65
1295.67
1286.91
1274.82
1258.57
1236.99
1302.8
1332.92
1361.64
1384.82
1403.67
1419.08
1431.71
1441.98
1450.18
1456.46
1460.88
1463.47
1464.19
1463.08
1460.15
1454.79
1446.48
1434.62
1418.25
1396.06
1459.28
1490.83
1520.85
1545
1564.62
1580.7
1593.96
1604.89
1613.8
1620.86
1626.15
1629.65
1631.27
1631.03
1629.05
1624.77
1617.46
1606.44
1590.63
1568.55
1626.69
1658.77
1689.17
1713.47
1733.14
1749.27
1762.68
1773.89
1783.27
1791.02
1797.22
1801.86
1804.8
1805.86
1805.07
1802.43
1796.88
1787.57
1773.27
1752.34
1802.29
1833.52
1862.89
1886.07
1904.7
1919.95
1932.73
1943.65
1953.09
1961.31
1968.39
1974.33
1978.98
1982.11
1983.33
1982.63
1979.79
1973.37
1961.92
1943.62
1981.54
2009.91
2036.21
2056.48
2072.47
2085.5
2096.54
2106.27
2115.14
2123.43
2131.26
2138.62
2145.36
2151.22
2155.74
2158.37
2158.78
2156.67
2149.9
2136.25
2157.52
2180.27
2200.71
2215.58
2226.78
2235.7
2243.45
2250.77
2258.16
2265.91
2274.18
2283
2292.19
2301.51
2310.42
2318.36
2324.33
2327.53
2327.32
2321.05
2320.29
2333.81
2344.76
2351.01
2354.53
2356.89
2359.33
2362.7
2367.41
2373.75
2381.94
2392.09
2404.03
2417.47
2431.84
2446.78
2461.15
2473.74
2482.5
2485.41
2456.37
2456.16
2453.19
2446.96
2439.19
2431.83
2426.47
2422.98
2422.35
2425.35
2432.36
2443.59
2458.89
2478.03
2500.25
2524.34
2549.06
2573.95
2596.45
2613.79
2549.13
2529.27
2505.17
2480.33
2457.73
2439.36
2428
2418.91
2414.2
2414.41
2420.23
2431.81
2449.04
2471.75
2499.26
2530.61
2563.32
2601.7
2641.69
2680.29
2574.45
2535.45
2492.71
2451.76
2414.27
2380.55
2348.28
2326.82
2314.19
2309.16
2312.13
2323.65
2343.51
2371.78
2408.28
2453.29
2507.77
2561.93
2617.5
2672.88
2527.34
2453.27
2380.03
2313.12
2253.76
2202.87
2161.95
2131.47
2111.51
2101.75
2101.86
2112.77
2134.37
2166.92
2210.2
2264.04
2327.7
2400.08
2478.44
2560.56
2365.63
2264.04
2162.2
2071.54
1993.29
1927.98
1875.69
1836.29
1809.65
1795.51
1793.03
1802.99
1825.54
1861.31
1910.36
1972.8
2048.05
2135.36
2232.82
2337.87
2101.22
1974.1
1850.08
1742.02
1650.51
1575.31
1515.77
1471.19
1440.94
1424.46
1420.88
1430.57
1453.68
1491.31
1544.03
1612.45
1696.48
1795.65
1907.9
2030.06
1768.44
1624.98
1490.48
1375.46
1279.73
1202.43
1142.35
1098.23
1068.93
1053.57
1051.19
1061.96
1086.19
1125.39
1180.51
1252.79
1342.72
1450.35
1573.26
1706.49
1450.84
1300.85
1164.52
1049.06
955.049
880.853
824.41
783.731
757.201
743.596
741.844
752.121
775.024
812.385
865.788
937.594
1029.9
1144.8
1280.86
1431.63
1185.19
1021.89
879.49
764.836
676.383
609.241
559.659
524.732
502.414
491.264
490.135
499.312
519.679
553.426
602.955
672.315
766.899
893.907
1054.28
1244.71
1035.22
823.411
657.81
537.066
453.98
394.835
352.999
324.394
306.547
297.867
297.176
304.935
322.301
351.826
397.13
464.966
567.891
725.997
965.032
1221.93
1055
771.858
526.075
375.166
292.879
239.565
204.328
181.313
167.444
160.943
160.681
167.241
182.002
207.94
250.419
320.728
447.178
687.316
1026.05
1429.82
1318.02
857.358
521.074
292.766
193.888
141.562
110.735
92.0296
81.3445
76.5933
76.7038
82.2756
94.8569
118.053
159.884
242.814
427.613
754.131
1301.47
1913.59
1894.71
1141.55
588.193
283.682
156.709
96.6464
67.679
52.2526
44.1276
40.7257