/*--------------------------------*- C++ -*----------------------------------*\
  =========                 |
  \\      /  F ield         | OpenFOAM: The Open Source CFD Toolbox
   \\    /   O peration     | Website:  https://openfoam.org
    \\  /    A nd           | Version:  6
     \\/     M anipulation  |
\*---------------------------------------------------------------------------*/
FoamFile
{
    version     2.0;
    format      ascii;
    class       volScalarField;
    location    "30";
    object      k;
}
// * * * * * * * * * * * * * * * * * * * * * * * * * * * * * * * * * * * * * //

dimensions      [0 2 -2 0 0 0 0];

internalField   nonuniform List<scalar> 
130000
(
0.369071
0.366174
0.363209
0.36021
0.357168
0.35409
0.350985
0.347874
0.344778
0.341723
0.338735
0.335841
0.333067
0.330436
0.327969
0.325681
0.323588
0.321698
0.320017
0.318549
0.369357
0.366467
0.363506
0.360505
0.357459
0.354372
0.351258
0.348134
0.345026
0.341957
0.338957
0.33605
0.333265
0.330623
0.328146
0.325851
0.323751
0.321855
0.32017
0.318699
0.369651
0.366767
0.363809
0.360806
0.357753
0.354657
0.35153
0.348392
0.345268
0.342183
0.339167
0.336246
0.333446
0.330791
0.328303
0.325997
0.323889
0.321987
0.320296
0.31882
0.369922
0.367043
0.364085
0.361078
0.358017
0.35491
0.35177
0.348617
0.345477
0.342377
0.339345
0.336409
0.333594
0.330926
0.328425
0.326106
0.323986
0.322074
0.320376
0.318895
0.370147
0.367269
0.36431
0.361298
0.358229
0.355111
0.351959
0.348794
0.345639
0.342523
0.339474
0.33652
0.333688
0.331004
0.328487
0.326154
0.324022
0.322102
0.320399
0.318913
0.370322
0.367443
0.36448
0.361461
0.358384
0.355256
0.352091
0.34891
0.345738
0.342603
0.339534
0.336563
0.333717
0.331019
0.328491
0.326149
0.324012
0.322087
0.32038
0.318893
0.370454
0.36757
0.364599
0.361571
0.358483
0.355342
0.35216
0.348959
0.345769
0.342619
0.339535
0.336552
0.333697
0.330993
0.328461
0.326119
0.323981
0.322055
0.320349
0.318863
0.370552
0.367658
0.364676
0.361635
0.358533
0.355373
0.352173
0.348956
0.345752
0.342592
0.339502
0.336513
0.333653
0.330945
0.328412
0.326069
0.323932
0.322008
0.320304
0.318821
0.370629
0.367722
0.364724
0.361667
0.358546
0.355367
0.352153
0.348926
0.345712
0.342543
0.339446
0.336453
0.333588
0.330879
0.328345
0.326004
0.323868
0.321948
0.320248
0.31877
0.370696
0.367772
0.364757
0.36168
0.35854
0.355348
0.352119
0.34888
0.345656
0.342477
0.339374
0.336376
0.333509
0.330798
0.328265
0.325926
0.323794
0.321878
0.320183
0.318711
0.37076
0.367818
0.364784
0.361689
0.358532
0.355322
0.352078
0.348825
0.345589
0.342402
0.339291
0.336288
0.333419
0.330708
0.328176
0.32584
0.323712
0.321801
0.320113
0.318647
0.370828
0.367867
0.364813
0.361699
0.358525
0.355296
0.352035
0.348767
0.345519
0.342321
0.339203
0.336195
0.333323
0.330612
0.328081
0.325748
0.323625
0.321721
0.320038
0.31858
0.370903
0.367922
0.364848
0.361714
0.358521
0.355273
0.351994
0.34871
0.345449
0.34224
0.339114
0.336101
0.333226
0.330514
0.327985
0.325656
0.323537
0.321639
0.319963
0.318512
0.37099
0.36799
0.364895
0.361738
0.358523
0.355259
0.35196
0.348659
0.345383
0.342163
0.339028
0.336009
0.333131
0.330418
0.32789
0.325564
0.32345
0.321557
0.319889
0.318445
0.371092
0.368071
0.364954
0.361775
0.358537
0.355255
0.351936
0.348617
0.345325
0.342092
0.338948
0.335922
0.33304
0.330326
0.327799
0.325475
0.323366
0.321479
0.319817
0.318381
0.371207
0.368166
0.365026
0.361823
0.358562
0.355257
0.351922
0.348584
0.345276
0.34203
0.338875
0.335841
0.332955
0.330239
0.327712
0.325391
0.323286
0.321404
0.319749
0.31832
0.371339
0.368277
0.365114
0.361887
0.358601
0.355271
0.351918
0.348564
0.345239
0.341979
0.338812
0.33577
0.332878
0.33016
0.327633
0.325314
0.323212
0.321335
0.319686
0.318264
0.371489
0.368407
0.365221
0.361969
0.358657
0.355302
0.351926
0.348556
0.345215
0.34194
0.338761
0.33571
0.332812
0.330089
0.327562
0.325244
0.323145
0.321273
0.319629
0.318213
0.371661
0.368559
0.365349
0.362071
0.358733
0.355352
0.351952
0.34856
0.345206
0.341916
0.338724
0.335662
0.332756
0.33003
0.3275
0.325183
0.323087
0.321218
0.31958
0.31817
0.371853
0.36873
0.365497
0.362193
0.358828
0.355421
0.351995
0.34858
0.345208
0.341905
0.338701
0.335628
0.332714
0.329982
0.32745
0.325132
0.323037
0.321172
0.319538
0.318134
0.372065
0.368923
0.365665
0.362335
0.358943
0.355508
0.352056
0.348616
0.345222
0.341905
0.338691
0.335608
0.332685
0.329947
0.327412
0.325093
0.322999
0.321137
0.319508
0.318109
0.372299
0.369138
0.365857
0.3625
0.35908
0.355616
0.352137
0.348672
0.345254
0.341916
0.33869
0.3356
0.332669
0.329924
0.327385
0.325065
0.322972
0.321112
0.319485
0.31809
0.372559
0.369379
0.366075
0.362691
0.359241
0.355748
0.352239
0.348747
0.345305
0.341945
0.3387
0.3356
0.332663
0.329914
0.327371
0.325049
0.322956
0.321096
0.31947
0.318076
0.372843
0.369646
0.366318
0.362906
0.359427
0.355903
0.352365
0.348845
0.345376
0.341994
0.338729
0.335611
0.332668
0.329914
0.327368
0.325043
0.322949
0.32109
0.319467
0.318074
0.373153
0.369939
0.366588
0.363149
0.35964
0.356085
0.352516
0.348966
0.34547
0.342063
0.338776
0.33564
0.332681
0.32992
0.327369
0.325044
0.322949
0.321089
0.319467
0.318074
0.37349
0.370262
0.366889
0.363422
0.359882
0.356295
0.352693
0.349113
0.345588
0.342155
0.338845
0.335689
0.332712
0.329935
0.327376
0.325046
0.322949
0.321087
0.319462
0.318068
0.373859
0.370618
0.367223
0.363728
0.360156
0.356536
0.352901
0.349288
0.345734
0.342273
0.338939
0.335761
0.332766
0.329973
0.3274
0.325058
0.322954
0.321089
0.319458
0.318063
0.374259
0.371007
0.367591
0.364069
0.360465
0.35681
0.353142
0.349495
0.345909
0.34242
0.33906
0.33586
0.332845
0.330036
0.327449
0.325095
0.32298
0.321107
0.319474
0.318076
0.374695
0.371432
0.367997
0.364447
0.360811
0.357122
0.353418
0.349737
0.346119
0.3426
0.339213
0.335989
0.332954
0.330128
0.327527
0.325161
0.323037
0.321156
0.319517
0.318114
0.375167
0.371897
0.368443
0.364867
0.361199
0.357475
0.353735
0.350019
0.346367
0.342816
0.339402
0.336154
0.333098
0.330254
0.327638
0.32526
0.323126
0.321237
0.319591
0.318184
0.37568
0.372407
0.368936
0.365333
0.361633
0.357873
0.354096
0.350344
0.346657
0.343075
0.339631
0.336358
0.333279
0.330416
0.327785
0.325394
0.323249
0.321351
0.319699
0.318285
0.376238
0.372964
0.369478
0.365851
0.362118
0.358322
0.354508
0.350718
0.346995
0.343379
0.339905
0.336605
0.333503
0.33062
0.327971
0.325565
0.323409
0.321501
0.31984
0.318418
0.376847
0.373575
0.370077
0.366425
0.362661
0.358828
0.354975
0.351147
0.347387
0.343735
0.34023
0.3369
0.333773
0.330868
0.328201
0.32578
0.323609
0.32169
0.320019
0.318588
0.37751
0.374245
0.370737
0.367062
0.363266
0.359397
0.355505
0.351636
0.347837
0.34415
0.34061
0.33725
0.334096
0.331168
0.32848
0.326041
0.323856
0.321923
0.320239
0.318797
0.378234
0.374981
0.371465
0.36777
0.363943
0.360037
0.356104
0.352195
0.348355
0.344629
0.341054
0.337662
0.334479
0.331525
0.328815
0.326357
0.324154
0.322206
0.320508
0.319053
0.379025
0.375789
0.37227
0.368555
0.364698
0.360755
0.356782
0.35283
0.348949
0.345183
0.34157
0.338144
0.33493
0.331949
0.329214
0.326734
0.324512
0.322546
0.320832
0.319361
0.379891
0.376678
0.37316
0.369428
0.365542
0.361562
0.357547
0.353551
0.349627
0.345819
0.342168
0.338705
0.335458
0.332447
0.329686
0.327182
0.324938
0.322953
0.32122
0.319731
0.380839
0.377657
0.374144
0.370399
0.366485
0.362468
0.358411
0.354371
0.350402
0.346551
0.342858
0.339357
0.336075
0.333032
0.330242
0.327712
0.325444
0.323436
0.321682
0.320172
0.381879
0.378737
0.375235
0.371479
0.36754
0.363487
0.359387
0.355302
0.351287
0.34739
0.343654
0.340113
0.336794
0.333717
0.330895
0.328336
0.326041
0.324008
0.32223
0.320696
0.383022
0.379929
0.376445
0.372683
0.36872
0.364632
0.360491
0.356359
0.352297
0.348353
0.344572
0.340988
0.33763
0.334516
0.33166
0.32907
0.326745
0.324684
0.322878
0.321316
0.384281
0.381247
0.377789
0.374026
0.370044
0.365923
0.361739
0.357561
0.35345
0.349458
0.34563
0.342002
0.338601
0.335448
0.332556
0.329931
0.327574
0.32548
0.323643
0.32205
0.385667
0.382707
0.379285
0.375528
0.371529
0.367377
0.363153
0.358929
0.354769
0.350727
0.346851
0.343175
0.33973
0.336535
0.333603
0.33094
0.328547
0.326418
0.324545
0.322916
0.387199
0.384328
0.380953
0.37721
0.373201
0.369021
0.364758
0.360488
0.356278
0.352186
0.348259
0.344535
0.341043
0.337803
0.334828
0.332124
0.329691
0.327522
0.325609
0.323939
0.388894
0.38613
0.382816
0.379096
0.375083
0.370881
0.366582
0.362267
0.358008
0.353865
0.349886
0.346112
0.34257
0.339283
0.336262
0.333513
0.331035
0.328822
0.326863
0.325146
0.390773
0.388139
0.384902
0.381218
0.37721
0.37299
0.368659
0.364303
0.359996
0.355801
0.35177
0.347943
0.34435
0.341013
0.337943
0.335145
0.332618
0.330355
0.328344
0.326572
0.392861
0.390382
0.387241
0.383608
0.379617
0.375388
0.371031
0.366636
0.362283
0.358038
0.353954
0.350074
0.346428
0.343037
0.339914
0.337063
0.334482
0.332163
0.330094
0.328259
0.395187
0.392893
0.389874
0.38631
0.382349
0.378122
0.373745
0.369317
0.364922
0.360628
0.356493
0.352558
0.348858
0.345411
0.342232
0.339323
0.336683
0.334301
0.332165
0.330259
0.397784
0.395712
0.392843
0.389371
0.385458
0.381246
0.376861
0.372408
0.367975
0.363637
0.359451
0.355464
0.351707
0.348203
0.344964
0.341992
0.339286
0.336833
0.334621
0.332632
0.400691
0.398886
0.396203
0.392851
0.389009
0.384831
0.380451
0.375983
0.371522
0.367144
0.362912
0.358873
0.35506
0.351497
0.348194
0.345155
0.342375
0.339843
0.337544
0.335457
0.403954
0.402468
0.400016
0.396822
0.39308
0.388959
0.384605
0.380138
0.37566
0.371252
0.36698
0.362893
0.359026
0.355402
0.352032
0.348919
0.346057
0.343435
0.341034
0.338833
0.407627
0.406528
0.404363
0.401373
0.39777
0.39374
0.389438
0.384995
0.380518
0.376095
0.371794
0.367667
0.36375
0.360065
0.356626
0.353432
0.350478
0.34775
0.345229
0.342892
0.411775
0.411148
0.409343
0.40662
0.403211
0.399316
0.395106
0.39072
0.386274
0.381859
0.377548
0.373395
0.369436
0.365695
0.362184
0.358903
0.355843
0.352989
0.350322
0.347816
0.416487
0.416438
0.41509
0.412717
0.409576
0.405884
0.401824
0.397548
0.393178
0.388811
0.384524
0.38037
0.376389
0.372602
0.36902
0.365642
0.362457
0.35945
0.356598
0.353875
0.421884
0.422534
0.421778
0.419876
0.417111
0.41372
0.409902
0.405819
0.401601
0.397351
0.393147
0.389042
0.385076
0.381266
0.377622
0.374138
0.370804
0.367599
0.364502
0.361486
0.428118
0.429647
0.429658
0.428397
0.426167
0.423228
0.419795
0.416041
0.412104
0.408089
0.404073
0.400108
0.396227
0.392443
0.38876
0.385167
0.381649
0.378183
0.374747
0.371316
0.435375
0.438066
0.439069
0.438706
0.437254
0.435001
0.432179
0.428973
0.425526
0.421943
0.418297
0.41463
0.410964
0.407301
0.403634
0.399941
0.396199
0.392382
0.388466
0.38443
0.443911
0.4482
0.450549
0.451432
0.451111
0.449891
0.448027
0.445709
0.443081
0.440243
0.437254
0.434141
0.430905
0.427529
0.423983
0.420229
0.416231
0.411952
0.407365
0.402453
0.45412
0.460544
0.46487
0.467425
0.468768
0.469085
0.468678
0.467732
0.466386
0.464728
0.462801
0.460604
0.458109
0.455265
0.452014
0.44829
0.444034
0.439192
0.433725
0.427614
0.466548
0.475866
0.482911
0.488017
0.491616
0.494062
0.495794
0.496828
0.49732
0.497352
0.496955
0.496083
0.494679
0.492657
0.489922
0.486374
0.481925
0.476489
0.470002
0.462419
0.481907
0.495155
0.505906
0.514455
0.521271
0.526745
0.531186
0.534775
0.53759
0.539731
0.541313
0.542092
0.542049
0.541084
0.539063
0.535856
0.531346
0.525406
0.517926
0.508804
0.501095
0.519574
0.535213
0.54824
0.559153
0.568374
0.576215
0.582878
0.588472
0.593041
0.596576
0.599015
0.60042
0.600634
0.599425
0.596675
0.592248
0.585982
0.57771
0.567247
0.525178
0.550384
0.572161
0.59065
0.606397
0.619887
0.631479
0.641422
0.64986
0.656867
0.662453
0.666594
0.669255
0.670448
0.670005
0.667727
0.663474
0.657052
0.648238
0.636763
0.55532
0.588797
0.617841
0.642539
0.663565
0.681535
0.696924
0.710074
0.721208
0.730467
0.737919
0.743586
0.747453
0.749505
0.749674
0.747813
0.743767
0.737291
0.728115
0.715903
0.592657
0.63579
0.672928
0.704242
0.730676
0.75308
0.772117
0.788273
0.801886
0.813181
0.822297
0.82931
0.834241
0.837077
0.837759
0.836256
0.832424
0.82593
0.816474
0.803667
0.638182
0.69201
0.737683
0.775706
0.80746
0.834129
0.856619
0.875588
0.891501
0.904675
0.915319
0.92356
0.929454
0.933008
0.934174
0.932984
0.929337
0.922824
0.913099
0.899736
0.692625
0.75775
0.812061
0.85669
0.893598
0.924364
0.950156
0.971812
0.989921
1.00489
1.017
1.02641
1.03323
1.03747
1.0391
1.03819
1.0347
1.02815
1.01814
1.00421
0.756426
0.833042
0.895877
0.946938
0.988847
1.02359
1.0526
1.07688
1.09714
1.11388
1.12743
1.138
1.14572
1.15063
1.15271
1.15207
1.14872
1.14213
1.13183
1.11731
0.829747
0.917746
0.988894
1.04622
1.09301
1.13166
1.16384
1.19072
1.21312
1.23161
1.24658
1.25831
1.26693
1.27251
1.27504
1.27465
1.27145
1.26482
1.25423
1.23914
0.912538
1.01163
1.09085
1.15428
1.20586
1.24835
1.28366
1.3131
1.33759
1.3578
1.37418
1.38703
1.39653
1.40277
1.40574
1.40559
1.40255
1.39592
1.38508
1.36947
1.00459
1.11438
1.2014
1.27075
1.32699
1.37321
1.41154
1.44343
1.46993
1.49177
1.50946
1.52337
1.5337
1.54057
1.54397
1.54406
1.54117
1.5346
1.52359
1.50758
1.10557
1.22556
1.32003
1.39504
1.4557
1.50542
1.54654
1.58067
1.60896
1.63223
1.65107
1.66589
1.67695
1.68438
1.68818
1.68852
1.68579
1.67932
1.66827
1.65203
1.21497
1.34451
1.44593
1.52615
1.5908
1.6436
1.6871
1.72307
1.75276
1.77711
1.79678
1.81225
1.82382
1.8317
1.83595
1.83658
1.83388
1.82756
1.81663
1.80043
1.33206
1.47025
1.57785
1.66257
1.7305
1.78569
1.83088
1.86802
1.89849
1.92334
1.94331
1.95896
1.97067
1.97867
1.98307
1.98389
1.98141
1.9754
1.96486
1.9491
1.45582
1.60137
1.71399
1.80208
1.8722
1.92869
1.97452
2.01181
2.04211
2.06656
2.08603
2.10117
2.11242
2.1201
2.12435
2.12521
2.12297
2.1174
2.10758
2.09279
1.58476
1.73587
1.85181
1.94162
2.01232
2.06852
2.11345
2.14942
2.17813
2.20091
2.21871
2.23231
2.24223
2.24888
2.25248
2.25312
2.25108
2.2461
2.2374
2.22427
1.7169
1.87108
1.98794
2.07716
2.14613
2.19982
2.24168
2.27426
2.29946
2.31878
2.33332
2.34393
2.35128
2.3559
2.35811
2.35811
2.35612
2.35184
2.34467
2.33401
1.84966
2.00355
2.11809
2.20354
2.26769
2.31583
2.35172
2.37811
2.39716
2.41075
2.41992
2.4256
2.42868
2.42985
2.4296
2.42842
2.42609
2.42248
2.41722
2.40993
1.97984
2.12907
2.23703
2.31453
2.36978
2.40838
2.43464
2.45113
2.46012
2.46321
2.46266
2.46004
2.4563
2.45209
2.44807
2.44539
2.44233
2.43926
2.43546
2.43237
2.10366
2.24274
2.33869
2.40293
2.44415
2.46762
2.47734
2.47835
2.47466
2.46711
2.45733
2.44671
2.43603
2.42597
2.41676
2.408
2.40281
2.40085
2.40238
2.40407
2.21699
2.33923
2.41647
2.46064
2.47971
2.48277
2.47459
2.45823
2.43539
2.41082
2.38581
2.36159
2.33941
2.32013
2.3043
2.29246
2.28515
2.28288
2.28503
2.29039
2.31563
2.41327
2.46378
2.47883
2.47212
2.44725
2.41185
2.3701
2.32569
2.28143
2.23926
2.20053
2.16616
2.13683
2.113
2.09516
2.08384
2.07975
2.0819
2.08942
2.3958
2.46022
2.47467
2.45591
2.41033
2.35006
2.28171
2.21065
2.14088
2.0752
2.0153
1.9621
1.91595
1.87696
1.84512
1.82064
1.80395
1.79596
1.79593
1.80233
2.4532
2.47353
2.44357
2.37714
2.28751
2.18565
2.08028
1.97795
1.88298
1.79785
1.7234
1.65949
1.60532
1.56
1.52265
1.49283
1.47054
1.45628
1.45088
1.45335
2.4873
2.45813
2.37057
2.24769
2.10522
1.95697
1.81373
1.68296
1.56863
1.47183
1.3915
1.32556
1.27147
1.22695
1.1901
1.15986
1.1359
1.11791
1.10613
1.1026
2.49618
2.40361
2.25249
2.0669
1.86855
1.67578
1.50181
1.35401
1.23423
1.14029
1.06786
1.01222
0.969005
0.934834
0.907258
0.885397
0.870114
0.859876
0.853667
0.854614
2.479
2.31648
2.09331
1.84223
1.59306
1.36899
1.18333
1.03989
0.935133
0.861057
0.809556
0.774061
0.749613
0.73292
0.721955
0.715643
0.713038
0.714609
0.725805
0.751607
2.43235
2.19168
1.89323
1.58395
1.30494
1.07971
0.913604
0.799671
0.725324
0.678353
0.649266
0.631685
0.621518
0.616421
0.615064
0.617539
0.624192
0.640744
0.682799
0.746371
2.34681
2.01898
1.64881
1.30438
1.02725
0.831641
0.707164
0.633256
0.590903
0.567068
0.553998
0.547388
0.544899
0.545483
0.548757
0.556355
0.573629
0.618507
0.696593
0.820758
2.20133
1.77988
1.35672
1.01076
0.776342
0.64019
0.567989
0.530563
0.510931
0.500661
0.495625
0.493807
0.494366
0.497136
0.5037
0.518618
0.554023
0.629473
0.771941
0.969793
1.96715
1.46307
1.02699
0.738364
0.587684
0.519748
0.48832
0.472292
0.463663
0.458978
0.45672
0.456291
0.457725
0.461956
0.471985
0.495613
0.553148
0.674219
0.891284
1.14441
1.62956
1.0845
0.721669
0.558236
0.493303
0.464035
0.448697
0.439778
0.434159
0.430596
0.428679
0.428402
0.430329
0.435971
0.449493
0.481753
0.561482
0.736377
1.01466
1.30047
1.23437
0.782464
0.575528
0.492744
0.456237
0.437482
0.426219
0.418579
0.413201
0.40956
0.407613
0.40754
0.410152
0.417255
0.433748
0.472734
0.570266
0.783169
1.11217
1.42623
1.05751
0.708066
0.53915
0.469324
0.437946
0.420997
0.410199
0.402687
0.397388
0.393899
0.392255
0.392686
0.39605
0.404212
0.422188
0.463638
0.568453
0.794504
1.16195
1.52539
1.0645
0.709381
0.532914
0.457792
0.425418
0.40843
0.397972
0.390946
0.38617
0.383201
0.382072
0.383055
0.38687
0.395183
0.41244
0.450406
0.542778
0.767892
1.17664
1.60845
1.21418
0.761184
0.535668
0.450023
0.415774
0.39899
0.389276
0.383117
0.379153
0.37692
0.376357
0.377622
0.38138
0.389083
0.404534
0.437876
0.519532
0.726638
1.14848
1.66081
1.42574
0.818389
0.538896
0.443028
0.408055
0.392084
0.383482
0.378423
0.375426
0.373964
0.373754
0.37492
0.37812
0.384587
0.397349
0.424259
0.48949
0.664925
1.07819
1.67828
1.51793
0.823132
0.522919
0.431748
0.400072
0.386323
0.379399
0.375643
0.373723
0.372875
0.372813
0.373621
0.375859
0.380634
0.39018
0.410219
0.45825
0.592224
0.96111
1.63544
1.5433
0.751693
0.488755
0.415811
0.391387
0.381131
0.376421
0.374262
0.373193
0.37268
0.372657
0.373161
0.374369
0.377103
0.383114
0.396066
0.427293
0.516795
0.804178
1.49479
1.38287
0.632885
0.446882
0.399427
0.383531
0.377397
0.374994
0.373882
0.373353
0.373164
0.373162
0.373337
0.373833
0.374777
0.376903
0.382199
0.396617
0.442483
0.620196
1.18842
1.13203
0.527036
0.409856
0.38413
0.377197
0.375318
0.374608
0.374373
0.374317
0.374307
0.374306
0.374311
0.37435
0.374527
0.375102
0.376563
0.380282
0.39114
0.438399
0.738774
0.312343
0.311813
0.31124
0.310697
0.31019
0.309723
0.3093
0.308925
0.3086
0.308329
0.308114
0.307956
0.307856
0.307813
0.307829
0.307903
0.308035
0.308225
0.308471
0.308773
0.312562
0.312024
0.311447
0.3109
0.310388
0.309916
0.309488
0.309108
0.308779
0.308504
0.308285
0.308123
0.30802
0.307975
0.307987
0.308059
0.308189
0.308377
0.308622
0.308922
0.312745
0.312202
0.311621
0.311069
0.310552
0.310074
0.309641
0.309256
0.308922
0.308642
0.308418
0.308252
0.308145
0.308097
0.308106
0.308175
0.308303
0.308488
0.308731
0.309029
0.312905
0.312357
0.311772
0.311215
0.310693
0.310211
0.309773
0.309384
0.309045
0.308761
0.308534
0.308364
0.308254
0.308202
0.308209
0.308275
0.3084
0.308583
0.308823
0.30912
0.313044
0.312494
0.311905
0.311344
0.310818
0.310332
0.309891
0.309498
0.309157
0.30887
0.308639
0.308467
0.308354
0.3083
0.308304
0.308368
0.30849
0.308671
0.308909
0.309204
0.313169
0.312616
0.312024
0.31146
0.310931
0.310443
0.309999
0.309604
0.30926
0.308971
0.308739
0.308565
0.30845
0.308393
0.308395
0.308457
0.308577
0.308756
0.308992
0.309285
0.313283
0.312727
0.312132
0.311566
0.311036
0.310545
0.3101
0.309703
0.309358
0.309068
0.308834
0.308659
0.308542
0.308485
0.308485
0.308544
0.308663
0.30884
0.309074
0.309366
0.313387
0.312829
0.312232
0.311665
0.311132
0.31064
0.310194
0.309796
0.309451
0.30916
0.308926
0.30875
0.308632
0.308574
0.308572
0.308629
0.308746
0.308921
0.309154
0.309444
0.313484
0.312923
0.312325
0.311756
0.311222
0.310729
0.310282
0.309885
0.309539
0.309248
0.309014
0.308837
0.308718
0.308658
0.308654
0.308709
0.308824
0.308997
0.309229
0.309517
0.313576
0.313013
0.312413
0.311842
0.311307
0.310813
0.310366
0.309968
0.309623
0.309332
0.309097
0.308919
0.308798
0.308736
0.30873
0.308783
0.308895
0.309067
0.309298
0.309585
0.31367
0.313104
0.312501
0.311928
0.311391
0.310896
0.310447
0.310048
0.309702
0.30941
0.309174
0.308995
0.308873
0.308808
0.3088
0.308851
0.308963
0.309135
0.309364
0.309651
0.313775
0.313205
0.312599
0.312022
0.311481
0.310983
0.31053
0.310128
0.309778
0.309483
0.309245
0.309063
0.30894
0.308875
0.308868
0.308921
0.309034
0.309206
0.309436
0.309721
0.313901
0.313325
0.312714
0.312131
0.311585
0.31108
0.310622
0.310215
0.30986
0.309561
0.309319
0.309137
0.309014
0.308952
0.308948
0.309003
0.309118
0.309291
0.309521
0.309805
0.314054
0.313472
0.312855
0.312266
0.311712
0.311201
0.310736
0.310323
0.309964
0.309661
0.309418
0.309235
0.309114
0.309054
0.309052
0.309109
0.309225
0.309398
0.309626
0.309907
0.31424
0.313652
0.313029
0.312433
0.311873
0.311355
0.310884
0.310466
0.310103
0.309798
0.309553
0.30937
0.309249
0.309189
0.309187
0.309245
0.309361
0.309532
0.309757
0.310034
0.314459
0.313866
0.313238
0.312637
0.312071
0.311548
0.311072
0.31065
0.310283
0.309975
0.309729
0.309544
0.309423
0.309362
0.309359
0.309416
0.30953
0.309699
0.309919
0.31019
0.314714
0.314117
0.313485
0.31288
0.312309
0.311781
0.311301
0.310875
0.310505
0.310195
0.309946
0.30976
0.309637
0.309575
0.309571
0.309626
0.309737
0.309901
0.310117
0.310381
0.315006
0.314406
0.313771
0.313162
0.312588
0.312056
0.311572
0.311142
0.310769
0.310456
0.310205
0.310018
0.309893
0.30983
0.309824
0.309876
0.309983
0.310143
0.310353
0.31061
0.315337
0.314735
0.314098
0.313486
0.312909
0.312373
0.311886
0.311453
0.311077
0.310762
0.310509
0.310319
0.310193
0.310128
0.31012
0.310168
0.310271
0.310427
0.31063
0.310879
0.315711
0.315108
0.31447
0.313856
0.313276
0.312738
0.312248
0.311811
0.311433
0.311115
0.31086
0.310668
0.310539
0.310472
0.310461
0.310506
0.310605
0.310755
0.310951
0.31119
0.316134
0.31553
0.314893
0.314278
0.313695
0.313155
0.312662
0.312223
0.311841
0.311521
0.311263
0.311069
0.310938
0.310868
0.310854
0.310895
0.310988
0.311131
0.311319
0.311549
0.316612
0.316009
0.315373
0.314757
0.314174
0.313631
0.313135
0.312694
0.312309
0.311987
0.311726
0.31153
0.311395
0.311322
0.311304
0.31134
0.311428
0.311564
0.311742
0.311959
0.317152
0.316552
0.315918
0.315304
0.314719
0.314175
0.313677
0.313233
0.312846
0.31252
0.312257
0.312058
0.31192
0.311843
0.311821
0.311851
0.311932
0.312058
0.312225
0.312428
0.317764
0.317169
0.316539
0.315926
0.315342
0.314796
0.314297
0.31385
0.313461
0.313133
0.312867
0.312663
0.312522
0.31244
0.312413
0.312437
0.312509
0.312625
0.312778
0.312965
0.31846
0.31787
0.317246
0.316637
0.316053
0.315508
0.315007
0.314559
0.314167
0.313836
0.313566
0.313359
0.313213
0.313126
0.313092
0.313108
0.313171
0.313274
0.313412
0.31358
0.319251
0.31867
0.318054
0.317449
0.316869
0.316324
0.315822
0.315372
0.314978
0.314644
0.314371
0.31416
0.314008
0.313915
0.313874
0.313881
0.313931
0.31402
0.31414
0.314286
0.320154
0.319584
0.318979
0.318381
0.317805
0.317261
0.31676
0.316309
0.315913
0.315575
0.315298
0.315082
0.314925
0.314824
0.314774
0.31477
0.314806
0.314878
0.314977
0.315097
0.321187
0.320631
0.32004
0.319452
0.318881
0.318341
0.317841
0.317389
0.316991
0.31665
0.316369
0.316147
0.315983
0.315873
0.315813
0.315796
0.315816
0.315867
0.315941
0.316031
0.32237
0.321833
0.321259
0.320684
0.320121
0.319586
0.319088
0.318636
0.318236
0.317893
0.317607
0.317379
0.317207
0.317087
0.317013
0.316981
0.316982
0.31701
0.317055
0.317109
0.323728
0.323215
0.322663
0.322104
0.321553
0.321025
0.32053
0.32008
0.319679
0.319332
0.319041
0.318806
0.318624
0.318492
0.318404
0.318353
0.318331
0.318331
0.318342
0.318354
0.32529
0.324807
0.324284
0.323745
0.323209
0.32269
0.322201
0.321753
0.321351
0.321002
0.320705
0.320462
0.320269
0.320123
0.320016
0.319943
0.319894
0.319861
0.319831
0.319795
0.327091
0.326645
0.326157
0.325645
0.325128
0.324622
0.324141
0.323697
0.323295
0.322942
0.322639
0.322387
0.32218
0.322017
0.321889
0.32179
0.321708
0.321635
0.321558
0.321464
0.329173
0.328773
0.32833
0.327852
0.327359
0.326871
0.326401
0.325963
0.325562
0.325206
0.324895
0.324631
0.324409
0.324224
0.32407
0.323938
0.323817
0.323696
0.323562
0.3234
0.331588
0.331248
0.330863
0.330431
0.329972
0.329507
0.329053
0.328623
0.328224
0.327864
0.327544
0.327265
0.327021
0.32681
0.326621
0.326448
0.326277
0.326098
0.325893
0.32565
0.33441
0.334153
0.333848
0.333478
0.333067
0.332638
0.332207
0.331789
0.331394
0.331029
0.330695
0.330394
0.330121
0.329872
0.329637
0.329407
0.329171
0.328915
0.328622
0.328276
0.337755
0.337617
0.33743
0.337156
0.336819
0.336445
0.336052
0.335656
0.335267
0.334893
0.334538
0.334202
0.333882
0.333574
0.333269
0.332957
0.332627
0.332263
0.33185
0.331369
0.341816
0.341871
0.341874
0.341756
0.341544
0.341265
0.340937
0.34058
0.340202
0.339816
0.339423
0.339028
0.338627
0.338219
0.337796
0.337351
0.336871
0.336344
0.335752
0.335076
0.346988
0.347343
0.347672
0.347822
0.347831
0.347722
0.347515
0.34723
0.346876
0.346467
0.346007
0.345503
0.344956
0.344369
0.343737
0.343058
0.342322
0.341522
0.34064
0.339661
0.353964
0.354859
0.355709
0.356318
0.356732
0.356927
0.356942
0.356793
0.356489
0.356043
0.355465
0.354767
0.353956
0.353044
0.352034
0.350935
0.349745
0.348465
0.347087
0.345598
0.363857
0.365697
0.367521
0.368945
0.369967
0.370648
0.371054
0.37114
0.370935
0.37044
0.369672
0.368651
0.367394
0.365926
0.364266
0.362437
0.360457
0.358342
0.356101
0.353736
0.378456
0.381835
0.385195
0.387905
0.389952
0.391358
0.392177
0.392601
0.392594
0.392052
0.391025
0.389541
0.38763
0.385327
0.38267
0.379699
0.376455
0.37298
0.369314
0.365487
0.400069
0.405609
0.411032
0.41541
0.418739
0.421077
0.422497
0.423193
0.423354
0.422771
0.421471
0.419469
0.416797
0.413486
0.409576
0.405111
0.400146
0.394741
0.388971
0.382911
0.430757
0.438741
0.446342
0.452363
0.456876
0.460021
0.461929
0.462838
0.463089
0.462606
0.461132
0.45873
0.455423
0.451218
0.44613
0.440167
0.433359
0.425743
0.417397
0.408421
0.471095
0.481166
0.490467
0.497656
0.502947
0.50659
0.508803
0.509877
0.510202
0.509773
0.508232
0.505639
0.501993
0.497264
0.491417
0.484393
0.476148
0.466631
0.455845
0.443828
0.519751
0.531144
0.541446
0.549277
0.554995
0.558931
0.561343
0.562533
0.562935
0.562568
0.561023
0.558362
0.554576
0.549616
0.543417
0.535867
0.52684
0.516161
0.503679
0.489259
0.574792
0.587029
0.59804
0.606377
0.612472
0.616693
0.619319
0.620644
0.621129
0.620836
0.619307
0.616607
0.612724
0.607607
0.601176
0.593299
0.583816
0.572491
0.559053
0.54316
0.635419
0.648522
0.660332
0.669292
0.675878
0.680481
0.683392
0.684897
0.685489
0.685284
0.683772
0.681019
0.677012
0.671696
0.664988
0.656756
0.646824
0.634937
0.620771
0.603875
0.702011
0.716204
0.729029
0.738796
0.746023
0.751122
0.754402
0.756142
0.756868
0.756769
0.755279
0.752462
0.748293
0.74272
0.735656
0.726968
0.716473
0.703906
0.688911
0.670987
0.775418
0.790965
0.805047
0.81582
0.823843
0.829556
0.833288
0.835312
0.836182
0.836204
0.834775
0.831899
0.827543
0.821656
0.81415
0.804892
0.793688
0.780265
0.764238
0.74507
0.856611
0.873784
0.88937
0.901351
0.910334
0.91679
0.921067
0.923425
0.92437
0.924479
0.923288
0.920371
0.915798
0.909535
0.901499
0.891554
0.879495
0.865033
0.847755
0.827078
0.946637
0.965711
0.983053
0.996453
1.00657
1.01392
1.01888
1.02175
1.02299
1.02321
1.02207
1.01904
1.01419
1.00748
0.998827
0.988081
0.975023
0.959344
0.940594
0.91814
1.0466
1.06786
1.08722
1.10226
1.1137
1.12209
1.12784
1.13127
1.13288
1.13329
1.13223
1.12908
1.12392
1.1167
1.10735
1.09569
1.08149
1.06441
1.04397
1.01947
1.15768
1.18143
1.20309
1.22002
1.23299
1.24261
1.24932
1.25346
1.2555
1.25612
1.25512
1.25182
1.2463
1.23853
1.22838
1.2157
1.20022
1.18158
1.15922
1.1324
1.28113
1.3077
1.33197
1.35104
1.36576
1.37678
1.3846
1.38956
1.39211
1.39299
1.39209
1.38865
1.38277
1.37439
1.36338
1.34957
1.33267
1.31227
1.28778
1.25835
1.41833
1.44806
1.47527
1.49676
1.51346
1.52608
1.53517
1.54108
1.54425
1.54546
1.54469
1.54114
1.53488
1.52585
1.51391
1.49887
1.4804
1.45806
1.43119
1.39887
1.57071
1.60399
1.6345
1.65872
1.67766
1.6921
1.70263
1.70964
1.71354
1.71515
1.71458
1.71094
1.70429
1.69458
1.68164
1.66525
1.64507
1.6206
1.59112
1.55559
1.73979
1.77704
1.81124
1.83852
1.86
1.8765
1.88867
1.89693
1.90169
1.90378
1.90347
1.89977
1.89276
1.88234
1.86833
1.8505
1.82845
1.80165
1.7693
1.73025
1.92712
1.96879
2.00712
2.03784
2.06217
2.081
2.09503
2.10472
2.11046
2.11311
2.11311
2.10944
2.1021
2.09095
2.07582
2.05642
2.03236
2.00302
1.96753
1.92463
2.13432
2.18089
2.2238
2.25836
2.28589
2.30735
2.3235
2.33482
2.3417
2.34488
2.34518
2.34181
2.33418
2.32228
2.30595
2.28489
2.25864
2.22655
2.18766
2.14057
2.36316
2.4151
2.46305
2.50185
2.53293
2.55733
2.57588
2.58909
2.59739
2.60146
2.60216
2.59886
2.59087
2.57817
2.56055
2.53771
2.50912
2.47407
2.4315
2.37988
2.61583
2.67364
2.72708
2.77051
2.80546
2.83309
2.85428
2.86963
2.87956
2.88466
2.88584
2.88262
2.87427
2.86074
2.8418
2.81707
2.78601
2.74781
2.7013
2.6448
2.89481
2.95895
3.01832
3.06675
3.1059
3.13701
3.16107
3.17871
3.1904
3.19668
3.19846
3.1954
3.18673
3.17238
3.15208
3.12541
3.09176
3.05025
2.99957
2.93788
3.20257
3.27348
3.33919
3.39295
3.43656
3.4714
3.49851
3.5186
3.53219
3.53979
3.54227
3.53945
3.53052
3.51539
3.49374
3.46511
3.4288
3.38385
3.32882
3.26166
3.54139
3.61944
3.6918
3.75115
3.79946
3.83819
3.86852
3.89121
3.90682
3.91585
3.91915
3.91666
3.90755
3.89171
3.86877
3.8382
3.79923
3.7508
3.69129
3.61849
3.91313
3.99856
4.07775
4.14284
4.19595
4.23869
4.27231
4.29769
4.31541
4.32598
4.3302
4.32813
4.31895
4.30254
4.27842
4.24603
4.20449
4.15264
4.08869
4.01019
4.31897
4.41178
4.49777
4.56854
4.6264
4.6731
4.71001
4.73807
4.75793
4.77009
4.77532
4.77378
4.76469
4.74789
4.7228
4.68881
4.64494
4.5899
4.52172
4.43771
4.75894
4.85882
4.95123
5.02734
5.08965
5.14006
5.18005
5.21065
5.23257
5.24632
5.25261
5.25172
5.2429
5.22598
5.20026
5.16506
5.11929
5.06152
4.9896
4.90056
5.23145
5.33759
5.43555
5.51622
5.58229
5.63583
5.67843
5.71122
5.73498
5.7502
5.75756
5.75742
5.74911
5.73246
5.7066
5.67079
5.62381
5.56412
5.48932
5.3962
5.73241
5.84333
5.94529
6.02912
6.09775
6.15337
6.19774
6.23206
6.25718
6.27363
6.28197
6.28265
6.27518
6.25928
6.23398
6.19844
6.15132
6.09093
6.01466
5.91901
6.25429
6.36755
6.471
6.55578
6.62501
6.68106
6.72582
6.76057
6.78627
6.80347