/*--------------------------------*- C++ -*----------------------------------*\
  =========                 |
  \\      /  F ield         | OpenFOAM: The Open Source CFD Toolbox
   \\    /   O peration     | Website:  https://openfoam.org
    \\  /    A nd           | Version:  6
     \\/     M anipulation  |
\*---------------------------------------------------------------------------*/
FoamFile
{
    version     2.0;
    format      ascii;
    class       volScalarField;
    location    "30";
    object      k;
}
// * * * * * * * * * * * * * * * * * * * * * * * * * * * * * * * * * * * * * //

dimensions      [0 2 -2 0 0 0 0];

internalField   nonuniform List<scalar> 
10000
(
0.208553
0.528419
0.48894
0.430938
0.377816
0.336944
0.30906
0.292117
0.282907
0.279308
0.279937
0.284652
0.295118
0.313003
0.340645
0.380595
0.432332
0.489165
0.52792
0.208594
0.208515
0.528269
0.488534
0.4305
0.377654
0.337185
0.309519
0.293347
0.284409
0.281096
0.281744
0.285349
0.296222
0.314053
0.341069
0.380532
0.431938
0.489015
0.527799
0.208564
0.208522
0.528259
0.488878
0.430819
0.377748
0.337142
0.309071
0.292176
0.283072
0.279853
0.280383
0.284763
0.29495
0.313471
0.340665
0.380363
0.432034
0.488746
0.527851
0.208511
0.208514
0.528276
0.488867
0.430752
0.377534
0.336996
0.309203
0.292249
0.28328
0.280951
0.28147
0.2856
0.294749
0.313007
0.340642
0.380343
0.432147
0.48906
0.52791
0.208583
0.208452
0.528171
0.488661
0.430523
0.377512
0.337146
0.30984
0.293202
0.283969
0.279123
0.279376
0.284045
0.29453
0.31355
0.340701
0.380227
0.432047
0.489108
0.528019
0.208651
0.208482
0.528074
0.488406
0.430153
0.377337
0.336964
0.308902
0.291962
0.282656
0.279056
0.279356
0.283986
0.294378
0.312587
0.340263
0.380081
0.431526
0.488673
0.528094
0.208698
0.208456
0.527921
0.488185
0.430012
0.377171
0.336726
0.308833
0.291954
0.282715
0.27911
0.27926
0.283991
0.294358
0.312707
0.340481
0.379894
0.43141
0.488716
0.528087
0.20867
0.208464
0.527857
0.488024
0.429513
0.376918
0.336479
0.308858
0.292238
0.282972
0.28042
0.279513
0.284068
0.294299
0.313089
0.340037
0.379575
0.431026
0.488598
0.52809
0.208679
0.2085
0.527815
0.487607
0.42927
0.376768
0.336734
0.309033
0.293404
0.282822
0.279044
0.279291
0.283905
0.294103
0.312045
0.339569
0.379296
0.430687
0.488098
0.528092
0.208586
0.208483
0.527829
0.487306
0.428879
0.376459
0.336375
0.308933
0.292638
0.282773
0.279428
0.279584
0.284002
0.294138
0.312594
0.33976
0.37914
0.430304
0.48778
0.527949
0.208479
0.208484
0.52786
0.487004
0.428466
0.376167
0.336604
0.309334
0.291867
0.282608
0.278932
0.280524
0.28403
0.293976
0.311545
0.339022
0.378767
0.429855
0.487352
0.527778
0.208331
0.208347
0.527655
0.486494
0.427877
0.375641
0.335812
0.30838
0.291978
0.283746
0.279168
0.279518
0.284261
0.294114
0.311408
0.338848
0.378364
0.429424
0.486983
0.527476
0.208079
0.208215
0.527392
0.485999
0.427504
0.37542
0.335427
0.308256
0.291966
0.28298
0.280188
0.281055
0.285907
0.294354
0.311442
0.33905
0.377942
0.428875
0.486421
0.527308
0.207938
0.208162
0.527284
0.485638
0.427029
0.375047
0.335364
0.308411
0.292494
0.283968
0.279016
0.280208
0.285532
0.294438
0.311362
0.338191
0.377486
0.428301
0.48587
0.527103
0.207756
0.207997
0.527081
0.485237
0.426649
0.374602
0.334628
0.308684
0.293557
0.283468
0.279096
0.27939
0.28546
0.295225
0.312184
0.338258
0.377347
0.427916
0.485477
0.526973
0.207617
0.2079
0.526885
0.484752
0.426087
0.37414
0.333796
0.307284
0.292468
0.284518
0.280165
0.279391
0.284397
0.293901
0.311389
0.338308
0.376827
0.427181
0.484813
0.526644
0.207389
0.207659
0.52652
0.484161
0.425435
0.373632
0.333481
0.306987
0.2914
0.28328
0.2788
0.279313
0.28527
0.293883
0.310632
0.337645
0.376323
0.426616
0.484392
0.52644
0.207236
0.207492
0.526239
0.483543
0.424694
0.373075
0.333162
0.306889
0.291205
0.282702
0.279875
0.279616
0.283979
0.293412
0.31072
0.33797
0.375771
0.425878
0.483674
0.526088
0.207009
0.207254
0.525912
0.482886
0.423985
0.372608
0.332993
0.30702
0.292478
0.284067
0.279387
0.280215
0.285159
0.293239
0.310467
0.337261
0.37506
0.425091
0.482978
0.525734
0.20674
0.207009
0.525564
0.482244
0.423374
0.372101
0.33279
0.30697
0.29211
0.283857
0.279524
0.281593
0.284477
0.293148
0.310238
0.336722
0.374214
0.424116
0.48207
0.525329
0.20645
0.206801
0.525231
0.481529
0.422586
0.371459
0.332547
0.306865
0.291606
0.283917
0.279637
0.280738
0.285159
0.293086
0.309633
0.335806
0.373262
0.423122
0.481256
0.52492
0.206145
0.206609
0.524967
0.480953
0.421911
0.370945
0.33248
0.30709
0.291799
0.283616
0.280337
0.279623
0.283784
0.293434
0.309204
0.334803
0.372248
0.422081
0.480433
0.524444
0.205833
0.206434
0.524716
0.480393
0.421247
0.370418
0.332599
0.307457
0.292349
0.284956
0.281066
0.280012
0.284012
0.29244
0.308278
0.333478
0.371234
0.421044
0.479528
0.523896
0.205478
0.206222
0.524454
0.479865
0.420607
0.369904
0.331994
0.308148
0.293278
0.284187
0.281165
0.280669
0.285279
0.292764
0.307357
0.332345
0.370314
0.420106
0.478807
0.52362
0.205293
0.206046
0.524194
0.479237
0.419936
0.369461
0.331862
0.307855
0.292703
0.285411
0.281817
0.280903
0.284233
0.292262
0.307366
0.331923
0.369553
0.419256
0.478072
0.523172
0.204996
0.205829
0.523926
0.478665
0.419299
0.368996
0.331751
0.307589
0.293786
0.285985
0.28265
0.282843
0.286043
0.292821
0.308206
0.331825
0.36874
0.41834
0.477364
0.522903
0.204824
0.205613
0.523634
0.477896
0.418517
0.368538
0.331922
0.308501
0.294324
0.286227
0.282804
0.283159
0.286324
0.29313
0.307221
0.331741
0.367963
0.417469
0.476545
0.522491
0.20451
0.205365
0.523328
0.477166
0.417666
0.367918
0.332171
0.308819
0.29539
0.287171
0.283735
0.284169
0.28692
0.294612
0.308037
0.330848
0.367181
0.416601
0.475789
0.522184
0.204282
0.205102
0.522954
0.476383
0.41686
0.367345
0.33197
0.309237
0.296277
0.289452
0.286325
0.285582
0.28784
0.295082
0.307987
0.330123
0.366477
0.415773
0.475031
0.521873
0.204051
0.204843
0.522603
0.475606
0.41597
0.3667
0.331775
0.309815
0.29712
0.290272
0.28728
0.287413
0.290067
0.296495
0.308392
0.33002
0.365922
0.414958
0.47428
0.521518
0.203817
0.204612
0.522313
0.474875
0.415189
0.366121
0.331407
0.310346
0.298412
0.291722
0.288845
0.288746
0.29138
0.297168
0.308471
0.329848
0.365233
0.414109
0.473547
0.521193
0.20363
0.20434
0.521952
0.474091
0.414359
0.365559
0.331113
0.310954
0.299328
0.293117
0.290514
0.290263
0.292438
0.298038
0.308761
0.329837
0.364645
0.413266
0.47282
0.52089
0.203441
0.204027
0.521509
0.47323
0.413492
0.365035
0.331252
0.311329
0.300417
0.294571
0.291783
0.291436
0.293509
0.29872
0.309176
0.330113
0.363934
0.412315
0.472
0.520629
0.203255
0.203716
0.521036
0.472345
0.412569
0.364379
0.330878
0.311255
0.30124
0.295763
0.293197
0.292752
0.294638
0.299765
0.310161
0.329788
0.363278
0.411376
0.471157
0.520278
0.202968
0.203399
0.520576
0.471405
0.411617
0.36383
0.331155
0.312355
0.30217
0.296777
0.29427
0.293885
0.295758
0.300642
0.310798
0.329505
0.362561
0.410318
0.470144
0.519756
0.202606
0.203066
0.520087
0.470392
0.410586
0.363109
0.330692
0.31284
0.303091
0.297929
0.295503
0.295081
0.296808
0.30153
0.311319
0.329558
0.361921
0.409253
0.469134
0.519196
0.202245
0.202784
0.519628
0.469377
0.409505
0.362427
0.330657
0.313337
0.303905
0.298968
0.296687
0.296316
0.297933
0.302424
0.311866
0.329823
0.36115
0.40808
0.467978
0.518571
0.201861
0.202485
0.519126
0.468381
0.408439
0.36172
0.330723
0.313787
0.304704
0.299992
0.297822
0.29745
0.298948
0.303206
0.312241
0.32928
0.360338
0.406924
0.466881
0.51793
0.201498
0.202231
0.518678
0.467377
0.407316
0.360896
0.330044
0.314054
0.305497
0.30107
0.29902
0.298657
0.300062
0.304074
0.312624
0.328774
0.359501
0.40573
0.465753
0.517349
0.201175
0.2019
0.518166
0.466287
0.406166
0.360183
0.329892
0.314027
0.306152
0.30202
0.300099
0.299758
0.30107
0.30487
0.313051
0.32873
0.358815
0.404627
0.464685
0.516862
0.200882
0.201558
0.517649
0.465138
0.404955
0.359334
0.32991
0.313325
0.306655
0.302897
0.301126
0.300807
0.302039
0.305618
0.313379
0.328821
0.35806
0.4035
0.463589
0.516351
0.200566
0.201145
0.517034
0.463847
0.40363
0.358327
0.328858
0.31296
0.306965
0.303631
0.302098
0.301859
0.303022
0.306384
0.313726
0.328293
0.357336
0.402407
0.462504
0.515861
0.200305
0.200725
0.516364
0.462569
0.402309
0.357302
0.32786
0.313092
0.307023
0.304147
0.302893
0.302759
0.303877
0.307037
0.314036
0.328459
0.356719
0.401339
0.461489
0.515351
0.200043
0.200319
0.515655
0.461223
0.400891
0.356166
0.326348
0.310954
0.306028
0.304293
0.303504
0.303512
0.304517
0.307331
0.313769
0.327909
0.355871
0.400162
0.460418
0.514866
0.199804
0.199917
0.514954
0.459879
0.399431
0.355026
0.325952
0.310346
0.304516
0.303836
0.303663
0.303858
0.304713
0.30703
0.312918
0.328045
0.355075
0.398958
0.459291
0.51441
0.199536
0.199526
0.51424
0.458464
0.397872
0.353714
0.325984
0.310009
0.304941
0.302621
0.303052
0.303547
0.304102
0.305812
0.313048
0.327233
0.353997
0.397572
0.458003
0.513888
0.199223
0.199174
0.513614
0.457039
0.396256
0.352215
0.324169
0.308737
0.30264
0.30147
0.301245
0.302095
0.302403
0.30503
0.311289
0.326012
0.352851
0.396141
0.456667
0.513337
0.198888
0.198759
0.512884
0.455524
0.394565
0.350778
0.32308
0.308651
0.302618
0.303156
0.300778
0.30092
0.302111
0.30587
0.311238
0.324658
0.351634
0.39459
0.455196
0.512642
0.198473
0.19838
0.512197
0.453993
0.392794
0.349214
0.32214
0.309481
0.302332
0.300757
0.301164
0.30191
0.302827
0.303886
0.311529
0.323227
0.350312
0.392918
0.453648
0.511902
0.198061
0.197927
0.511423
0.452375
0.390971
0.347581
0.322107
0.307504
0.301484
0.298122
0.297815
0.298511
0.299927
0.30311
0.310024
0.322532
0.348984
0.391187
0.452014
0.51111
0.197587
0.197513
0.510663
0.450672
0.389053
0.34556
0.319294
0.305404
0.301656
0.298063
0.297753
0.298398
0.299789
0.303654
0.309228
0.32221
0.347516
0.3893
0.450241
0.510286
0.197089
0.197051
0.509876
0.448905
0.387132
0.343841
0.317751
0.304597
0.301096
0.298076
0.298484
0.299263
0.300434
0.30142
0.306796
0.32004
0.345889
0.387352
0.44836
0.509417
0.196528
0.196548
0.508984
0.446997
0.385095
0.342112
0.318283
0.304286
0.300181
0.298408
0.296552
0.29613
0.298377
0.302162
0.306929
0.3198
0.344546
0.385277
0.446307
0.508441
0.195915
0.196034
0.508117
0.445029
0.383044
0.340462
0.316202
0.303677
0.298232
0.297379
0.297488
0.296105
0.298771
0.301279
0.307512
0.317566
0.342697
0.383006
0.444115
0.507329
0.19523
0.195364
0.507052
0.442736
0.380809
0.339946
0.317566
0.304099
0.299149
0.296444
0.296399
0.2957
0.297313
0.299274
0.305422
0.316367
0.341014
0.380553
0.441718
0.506068
0.194463
0.194614
0.505862
0.440197
0.378097
0.338093
0.315338
0.30442
0.297584
0.296837
0.295482
0.295497
0.296039
0.298159
0.303737
0.315956
0.339085
0.377861
0.439094
0.504664
0.193595
0.193669
0.504347
0.437315
0.375121
0.335484
0.313301
0.302261
0.297283
0.296153
0.296136
0.29628
0.296594
0.299522
0.302985
0.316709
0.337077
0.374981
0.436232
0.503131
0.192628
0.192629
0.502664
0.434177
0.371937
0.333263
0.311936
0.301298
0.299242
0.298824
0.297486
0.297158
0.297125
0.298337
0.30233
0.314678
0.334629
0.371854
0.433078
0.501366
0.191513
0.191397
0.500735
0.430705
0.368458
0.330638
0.310406
0.301693
0.299018
0.299122
0.300339
0.300395
0.299986
0.299071
0.302132
0.313247
0.332139
0.368483
0.429649
0.49939
0.190286
0.190053
0.498642
0.427024
0.364891
0.32809
0.308757
0.301394
0.299927
0.30032
0.301448
0.301433
0.301061
0.301224
0.302622
0.312003
0.329628
0.36505
0.426092
0.497303
0.188988
0.18852
0.496286
0.423083
0.361279
0.325822
0.308067
0.303563
0.303057
0.303871
0.304332
0.303656
0.302837
0.30225
0.303896
0.310719
0.327056
0.36149
0.422304
0.495011
0.187556
0.186868
0.493721
0.418972
0.357686
0.323767
0.308747
0.304999
0.304499
0.305239
0.306141
0.306291
0.305279
0.303397
0.304088
0.309436
0.324603
0.357946
0.4184
0.492558
0.186034
0.185036
0.490876
0.414737
0.354194
0.321745
0.308197
0.306084
0.307
0.308289
0.308718
0.308349
0.307171
0.305497
0.305047
0.308899
0.322563
0.354551
0.414426
0.489925
0.184389
0.183044
0.487772
0.410351
0.350866
0.320142
0.30863
0.30745
0.308572
0.30999
0.310641
0.310553
0.309303
0.307187
0.306186
0.308434
0.320542
0.351165
0.410306
0.487125
0.182614
0.18089
0.484485
0.40587
0.347745
0.318854
0.310211
0.309198
0.310639
0.312153
0.312882
0.312712
0.311602
0.309713
0.307576
0.308452
0.318989
0.348074
0.406126
0.484122
0.180679
0.178496
0.480807
0.401154
0.344693
0.317723
0.310856
0.31084
0.312639
0.314347
0.315211
0.315047
0.313795
0.311814
0.309982
0.310196
0.318006
0.34523
0.401817
0.480804
0.178557
0.175987
0.476879
0.396385
0.341947
0.317643
0.312052
0.312478
0.314667
0.316631
0.317654
0.31751
0.316187
0.313956
0.311592
0.311155
0.317313
0.342553
0.397438
0.477263
0.176308
0.173286
0.472515
0.391473
0.339209
0.317698
0.313293
0.314379
0.316787
0.318816
0.319872
0.319794
0.318574
0.31641
0.313962
0.312963
0.317471
0.34017
0.392924
0.473337
0.173832
0.170575
0.467913
0.386676
0.336714
0.318098
0.314557
0.316148
0.318821
0.321011
0.322165
0.322115
0.32087
0.3186
0.315889
0.314244
0.317697
0.337761
0.388353
0.46918
0.171321
0.167914
0.463213
0.382105
0.33451
0.317785
0.315654
0.317837
0.320725
0.322979
0.324165
0.324162
0.32297
0.32074
0.317921
0.31592
0.31813
0.335838
0.383868
0.464657
0.168686
0.165412
0.458584
0.377932
0.332896
0.318021
0.31704
0.319619
0.322646
0.324966
0.326191
0.326206
0.325019
0.322751
0.319782
0.317272
0.31854
0.333973
0.379534
0.460089
0.166228
0.163145
0.45408
0.374193
0.331893
0.319208
0.31871
0.321515
0.324586
0.326883
0.32809
0.328124
0.326977
0.324739
0.321738
0.319051
0.319743
0.332811
0.375568
0.455419
0.16381
0.161164
0.449742
0.370894
0.331355
0.320463
0.320434
0.323364
0.326443
0.32873
0.32994
0.329997
0.328895
0.326703
0.323691
0.320804
0.320889
0.331965
0.371941
0.450915
0.16171
0.159469
0.445502
0.367888
0.331073
0.321511
0.322075
0.325184
0.328271
0.330522
0.331706
0.331768
0.330698
0.32854
0.32551
0.322409
0.321815
0.331388
0.368555
0.446331
0.159713
0.158031
0.441352
0.365164
0.331126
0.322724
0.323769
0.327018
0.330109
0.332334
0.333501
0.333572
0.332539
0.33043
0.327424
0.324215
0.323128
0.331084
0.365545
0.441878
0.15804
0.156677
0.437022
0.362413
0.330542
0.323855
0.325468
0.328872
0.331966
0.334153
0.335291
0.335356
0.33434
0.332248
0.329207
0.325795
0.324144
0.330973
0.362557
0.437215
0.156371
0.155228
0.43235
0.359636
0.3305
0.325143
0.327246
0.330782
0.333878
0.336036
0.337151
0.337212
0.336216
0.334155
0.331119
0.327577
0.325376
0.330501
0.35963
0.432426
0.154826
0.1534
0.42709
0.356583
0.330172
0.326326
0.328997
0.332706
0.335824
0.337958
0.339047
0.339096
0.338101
0.336043
0.332972
0.32926
0.326521
0.330206
0.356488
0.427031
0.153065
0.15142
0.421105
0.353308
0.329909
0.327628
0.330859
0.334723
0.337849
0.339951
0.341012
0.34105
0.340063
0.33802
0.334929
0.331058
0.327758
0.329896
0.353164
0.420992
0.151213
0.149445
0.414238
0.349772
0.329766
0.329027
0.332814
0.336823
0.339945
0.342005
0.34303
0.343056
0.342083
0.340066
0.33697
0.332958
0.329123
0.329751
0.349641
0.414067
0.149151
0.147224
0.406453
0.346089
0.329753
0.330594
0.334935
0.339062
0.342159
0.344162
0.345144
0.345161
0.344211
0.342235
0.339153
0.335024
0.330645
0.32973
0.345949
0.40626
0.147068
0.145164
0.397805
0.342433
0.330007
0.33239
0.337233
0.341436
0.34448
0.346409
0.347343
0.347352
0.346437
0.344525
0.341492
0.337293
0.332433
0.33
0.342345
0.397656
0.145103
0.143645
0.388559
0.339096
0.33071
0.334537
0.339757
0.34396
0.346901
0.348729
0.349601
0.349606
0.348741
0.346922
0.343985
0.339784
0.334554
0.3307
0.339044
0.388434
0.143589
0.14286
0.378838
0.336207
0.331864
0.336985
0.342466
0.346594
0.349385
0.351085
0.351886
0.351888
0.351089
0.349394
0.346605
0.342479
0.336994
0.331864
0.336206
0.378771
0.142852
0.142701
0.36909
0.334236
0.333648
0.339813
0.345379
0.349325
0.351904
0.353442
0.354158
0.354159
0.353443
0.351907
0.349328
0.345382
0.339814
0.333646
0.33424
0.369086
0.142695
0.144079
0.359604
0.333314
0.335977
0.342963
0.348435
0.352097
0.354406
0.355751
0.356368
0.356368
0.355749
0.354404
0.352095
0.348431
0.342957
0.335972
0.333324
0.359627
0.144073
0.14677
0.350766
0.333069
0.338927
0.346406
0.351603
0.354874
0.356853
0.357973
0.358478
0.358477
0.357971
0.35685
0.35487
0.351597
0.346402
0.338928
0.33308
0.350809
0.146769
0.151383
0.343054
0.334231
0.342619
0.350138
0.354839
0.357608
0.359201
0.360069
0.36045
0.360449
0.360066
0.359196
0.357602
0.354831
0.350133
0.34262
0.334229
0.343089
0.151379
0.157813
0.336787
0.336722
0.346942
0.354082
0.358084
0.360256
0.361418
0.362011
0.362261
0.36226
0.362009
0.361413
0.360252
0.358081
0.354086
0.346958
0.336735
0.336805
0.157799
0.166552
0.333124
0.340802
0.351949
0.358197
0.361293
0.362781
0.363475
0.36378
0.363893
0.363892
0.363779
0.363472
0.362779
0.361293
0.358202
0.35196
0.340816
0.333137
0.166552
0.177375
0.331672
0.346325
0.357327
0.362356
0.364401
0.365145
0.36535
0.365362
0.365337
0.365337
0.365361
0.36535
0.365145
0.364405
0.362363
0.357337
0.346336
0.331684
0.177357
0.190796
0.331982
0.3534
0.363203
0.366541
0.367365
0.367312
0.367021
0.366745
0.366588
0.366588
0.366745
0.367022
0.367313
0.367368
0.366544
0.363207
0.353405
0.331981
0.190795
0.206986
0.33847
0.362299
0.36933
0.370556
0.370067
0.36922
0.36846
0.367923
0.367648
0.367648
0.367922
0.368459
0.36922
0.370068
0.370558
0.369336
0.362312
0.33848
0.206965
0.225166
0.347953
0.372143
0.375376
0.374231
0.372399
0.370812
0.369649
0.368903
0.368539
0.368539
0.368901
0.369647
0.370809
0.372397
0.374231
0.37538
0.372152
0.347962
0.225164
0.245931
0.363685
0.383371
0.381203
0.377374
0.374238
0.372027
0.370583
0.369714
0.369305
0.369305
0.369712
0.37058
0.372024
0.374235
0.377376
0.381212
0.383389
0.363687
0.245908
0.267921
0.384134
0.394787
0.385988
0.379343
0.375305
0.372815
0.371296
0.370424
0.370026
0.370025
0.370422
0.371294
0.372812
0.375302
0.379343
0.385993
0.394803
0.384133
0.267913
0.291299
0.41012
0.40464
0.388342
0.380082
0.375745
0.373315
0.371908
0.371141
0.370805
0.370805
0.37114
0.371906
0.373312
0.375743
0.380082
0.388346
0.404653
0.410127
0.291293
0.314372
0.434472
0.408926
0.388845
0.380084
0.375809
0.373632
0.372512
0.371958
0.371733
0.371733
0.371959
0.372512
0.373631
0.375809
0.380082
0.388849
0.408935
0.434471
0.314359
0.338058
0.444943
0.406815
0.385643
0.378093
0.375063
0.373776
0.373204
0.372963
0.372877
0.372877
0.372964
0.373206
0.373778
0.375064
0.378094
0.385644
0.406818
0.444936
0.33807
0.364363
0.42146
0.386482
0.377505
0.375378
0.374627
0.374348
0.374272
0.374255
0.374253
0.374253
0.374255
0.374272
0.374348
0.374627
0.375378
0.377505
0.386483
0.421464
0.36436
0.615038
1.1916
1.0619
0.86915
0.690979
0.560367
0.478693
0.432709
0.40758
0.3965
0.396168
0.407238
0.43268
0.481337
0.567232
0.699685
0.873777
1.05974
1.18835
0.612555
0.613774
1.18958
1.05624
0.86065
0.684452
0.555287
0.476407
0.432535
0.407722
0.396734
0.396234
0.407472
0.431919
0.47842
0.561967
0.69247
0.866451
1.05341
1.18671
0.611623
0.612884
1.18975
1.05637
0.859325
0.681713
0.553512
0.475342
0.431492
0.407969
0.397165
0.396155
0.406735
0.431332
0.477588
0.561535
0.692992
0.867906
1.0559
1.18782
0.609948
0.610321
1.18802
1.05208
0.856219
0.679564
0.551118
0.473851
0.430784
0.407295
0.39669
0.396302
0.406862
0.430704
0.476436
0.558744
0.686723
0.86553
1.05311
1.18728
0.611326
0.609225
1.18731
1.05116
0.85627
0.679375
0.549864
0.472871
0.429859
0.406152
0.395714
0.395024
0.40588
0.43006
0.475446
0.557661
0.685616
0.862641
1.05293
1.18498
0.608868
0.607489
1.18537
1.04938
0.857877
0.681351
0.548359
0.471709
0.429047
0.404794
0.394497
0.394634
0.405131
0.429369
0.474048
0.554698
0.681687
0.855718
1.05034
1.18549
0.609557
0.605345
1.18365
1.04592
0.85167
0.678926
0.547035
0.470793
0.428384
0.403725
0.393396
0.393421
0.404326
0.428765
0.472857
0.552643
0.679422
0.853034
1.04846
1.1839
0.608584
0.602844
1.18221
1.04318
0.853142
0.675842
0.545133
0.46956
0.427745
0.40356
0.39384
0.393508
0.404348
0.428187
0.471564
0.549519
0.673764
0.845404
1.04175
1.1816
0.60558
0.601208
1.17978
1.03861
0.845582
0.672483
0.543547
0.468447
0.42701
0.403045
0.392946
0.393684
0.403936
0.427414
0.470057
0.546998
0.670325
0.84247
1.04032
1.1797
0.60474
0.598775
1.17692
1.03408
0.839091
0.665347
0.540941
0.467141
0.426243
0.402876
0.392874
0.392798
0.403476
0.426709
0.46856
0.544042
0.666468
0.836684
1.03591
1.1787
0.603237
0.597249
1.17498
1.02946
0.83495
0.662639
0.539112
0.466092
0.425439
0.402776
0.393357
0.392698
0.402931
0.425853
0.466875
0.540846
0.663027
0.834236
1.03479
1.17825
0.602601
0.594988
1.17258
1.02467
0.829702
0.657919
0.537143
0.464943
0.424755
0.401576
0.392102
0.392244
0.402345
0.42516
0.465536
0.538706
0.659874
0.830967
1.03302
1.17804
0.60159
0.59257
1.1698
1.02032
0.82386
0.653594
0.534824
0.463642
0.424224
0.401514
0.392651
0.392629
0.402622
0.424499
0.46419
0.536379
0.656468
0.828642
1.03369
1.17742
0.600896
0.590909
1.16785
1.01544
0.818392
0.649354
0.532079
0.462161
0.423584
0.401388
0.391776
0.391177
0.401615
0.423652
0.462934
0.534284
0.653236
0.824982
1.02911
1.17451
0.599577
0.588694
1.16539
1.01212
0.814392
0.644932
0.529023
0.460533
0.422524
0.401664
0.390821
0.390675
0.401828
0.422836
0.461436
0.531803
0.64992
0.821848
1.02618
1.17419
0.598481
0.586718
1.16281
1.00714
0.808698
0.641423
0.526494
0.459084
0.421521
0.400554
0.389902
0.389982
0.40029
0.421913
0.460126
0.529421
0.64636
0.817856
1.02056
1.17182
0.59676
0.584593
1.16064
1.00348
0.804252
0.636928
0.524187
0.457882
0.420391
0.399344
0.389585
0.389709
0.399094
0.421047
0.458535
0.52673
0.642852
0.813977
1.01739
1.17027
0.595141
0.58258
1.15868
0.999324
0.799656
0.633439
0.521993
0.456589
0.419452
0.398194
0.389369
0.389582
0.398458
0.420352
0.457222
0.524259
0.639239
0.810501
1.01456
1.16915
0.593783
0.579999
1.15541
0.994651
0.794675
0.629438
0.519506
0.455267
0.418536
0.398086
0.389506
0.390153
0.398186
0.419495
0.455839
0.522109
0.63583
0.806019
1.01055
1.1676
0.591714
0.577745
1.15206
0.989408
0.789525
0.625629
0.517151
0.454078
0.417893
0.39801
0.389946
0.389039
0.397718
0.41858
0.454453
0.519703
0.632199
0.801753
1.00667
1.16465
0.590088
0.576832
1.14976
0.98465
0.783452
0.62111
0.51462
0.452859
0.417852
0.398042
0.389024
0.388812
0.397503
0.41769
0.453189
0.517576
0.628851
0.796964
1.00172
1.1624
0.58779
0.577893
1.14987
0.980578
0.778505
0.617194
0.512333
0.451566
0.416728
0.398502
0.388968
0.388856
0.397526
0.41682
0.451986
0.515309
0.624949
0.792272
0.997931
1.161
0.585584
0.577453
1.15079
0.978193
0.773288
0.613219
0.510273
0.450496
0.415321
0.397201
0.388995
0.388915
0.396552
0.415911
0.45093
0.513421
0.621756
0.78774
0.993141
1.15859
0.583436
0.576499
1.15014
0.978754
0.769482
0.610168
0.508485
0.449531
0.414318
0.396529
0.389238
0.389248
0.396532
0.415048
0.449888
0.511309
0.618146
0.783455
0.98978
1.15656
0.581634
0.573301
1.14872
0.977925
0.766028
0.607102
0.506708
0.448734
0.414099
0.396693
0.389538
0.390107
0.396652
0.414385
0.448973
0.509397
0.614763
0.778785
0.98517
1.15484
0.579501
0.57236
1.1474
0.975572
0.762651
0.604567
0.505199
0.447872
0.413861
0.396938
0.390388
0.389312
0.396998
0.414342
0.448079
0.507474
0.611633
0.77507
0.982221
1.15333
0.577568
0.57018
1.14281
0.968584
0.758946
0.60197
0.503761
0.44719
0.413648
0.39734
0.390216
0.38934
0.396239
0.414481
0.447109
0.505488
0.60838
0.770802
0.977979
1.15184
0.575814
0.568338
1.1415
0.963879
0.755912
0.599991
0.502467
0.446369
0.413307
0.397173
0.390661
0.389417
0.396112
0.4138
0.446176
0.50369
0.605428
0.767245
0.975045
1.15039
0.574111
0.566147
1.13831
0.960151
0.752122
0.597438
0.501061
0.445629
0.413047
0.396441
0.390598
0.389556
0.39602
0.413089
0.445146
0.501774
0.60217
0.762687
0.970653
1.14826
0.571588
0.56409
1.13644
0.954541
0.748853
0.595442
0.49984
0.444816
0.412822
0.396343
0.390504
0.38963
0.395879
0.41241
0.444269
0.499994
0.598973
0.758056
0.966108
1.14558
0.56903
0.562518
1.13457
0.951403
0.74552
0.593129
0.498544
0.444144
0.412764
0.396275
0.390085
0.389876
0.395949
0.412249
0.44331
0.497967
0.595268
0.752446
0.960593
1.14188
0.565873
0.560241
1.13214
0.947583
0.742442
0.590938
0.497237
0.443427
0.412986
0.396255
0.390901
0.390734
0.396081
0.411824
0.442364
0.495997
0.591812
0.747639
0.955511
1.13873
0.563229
0.55874
1.13017
0.943865
0.738868
0.588459
0.495875
0.442692
0.412154
0.396018
0.389783
0.389745
0.396406
0.411524
0.441409
0.493993
0.588347
0.742857
0.951168
1.1363
0.561018
0.556327
1.12753
0.939422
0.735069
0.585963
0.494447
0.441892
0.412077
0.39592
0.390519
0.390472
0.39576
0.411016
0.440333
0.491946
0.584813
0.737877
0.946032
1.13416
0.558764
0.554235
1.12466
0.935102
0.731163
0.583298
0.492999
0.440945
0.411689
0.395743
0.389461
0.389655
0.395981
0.410592
0.439256
0.489772
0.581111
0.732856
0.941483
1.13143
0.556122
0.551722
1.12182
0.930434
0.727209
0.580674
0.491563
0.440278
0.411406
0.395729
0.389427
0.389121
0.394791
0.409667
0.43804
0.487664
0.577611
0.728101
0.936314
1.12876
0.553609
0.549519
1.11883
0.926171
0.723204
0.577813
0.489946
0.439987
0.411101
0.395755
0.389616
0.389307
0.394566
0.408717
0.43688
0.485483
0.57378
0.722593
0.931228
1.12571
0.550945
0.547585
1.11663
0.92164
0.718936
0.574888
0.488169
0.438519
0.410013
0.395675
0.389972
0.390202
0.39462
0.408621
0.435732
0.483402
0.570386
0.717894
0.925923
1.12291
0.548119
0.545757
1.11456
0.917313
0.714628
0.571842
0.486443
0.437691
0.40939
0.39627
0.390933
0.389861
0.394419
0.408802
0.43451
0.481175
0.566598
0.712466
0.920588
1.11982
0.545424
0.544137
1.11301
0.913002
0.710197
0.568725
0.484555
0.436416
0.408553
0.3954
0.39026
0.389141
0.394269
0.408199
0.433162
0.478782
0.562658
0.706991
0.914989
1.11707
0.542684
0.542474
1.11087
0.909077
0.706196
0.565794
0.48269
0.434862
0.408263
0.395888
0.389642
0.389219
0.394468
0.407403
0.431691
0.476348
0.558672
0.701319
0.909281
1.11416
0.54022
0.540826
1.10854
0.904763
0.701775
0.56265
0.480891
0.43377
0.407956
0.394938
0.389674
0.388882
0.393117
0.405947
0.429977
0.473595
0.554111
0.694935
0.902993
1.1109
0.537245
0.539094
1.10609
0.900568
0.697758
0.559728
0.479086
0.432814
0.408034
0.395035
0.390879
0.38997
0.393082
0.404129
0.428299
0.470926
0.549813
0.688872
0.896636
1.10771
0.534692
0.537613
1.1043
0.896268
0.693344
0.556535
0.477064
0.431161
0.408721
0.39493
0.390289
0.389222
0.391633
0.402062
0.426418
0.467877
0.544958
0.682322
0.890347
1.10465
0.531752
0.535333
1.10107
0.891474
0.68896
0.553404
0.475137
0.43006
0.407338
0.394711
0.38944
0.388501
0.391344
0.401405
0.424758
0.464904
0.540205
0.675664
0.883535
1.10155
0.528966
0.533382
1.09876
0.886699
0.684251
0.549983
0.473033
0.429656
0.405933
0.394953
0.388772
0.389103
0.391096
0.400801
0.422742
0.461734
0.535288
0.669067
0.877051
1.0984
0.525842
0.530979
1.0955
0.88138
0.679222
0.546394
0.470852
0.429968
0.404765
0.393172
0.388202
0.387441
0.390801
0.400508
0.421003
0.45868
0.530326
0.662095
0.869994
1.09495
0.522551
0.528568
1.09238
0.87597
0.674019
0.542663
0.468467
0.428129
0.404343
0.393081
0.388215
0.387398
0.390741
0.400721
0.418999
0.455474
0.52521
0.655064
0.862714
1.09096
0.51872
0.526125
1.08932
0.870483
0.668526
0.538692
0.46609
0.426882
0.404042
0.393028
0.388157
0.387319
0.390137
0.398858
0.41709
0.452239
0.519803
0.647448
0.854994
1.08693
0.514965
0.523264
1.08591
0.864426
0.662755
0.534577
0.463644
0.42558
0.404078
0.393877
0.388406
0.387585
0.390246
0.397659
0.415353
0.448969
0.51428
0.639682
0.846721
1.08192
0.510564
0.520824
1.0831
0.858491
0.656682
0.530148
0.461005
0.424
0.404547
0.392948
0.388349
0.387912
0.391104
0.397337
0.413858
0.445616
0.508519
0.631651
0.838463
1.07718
0.506456
0.517585
1.07933
0.851857
0.650305
0.525608
0.458352
0.422215
0.403655
0.393401
0.388551
0.388933
0.389755
0.39571
0.412131
0.441943
0.502345
0.623042
0.829284
1.07129
0.501771
0.514622
1.07574
0.845379
0.643824
0.52087
0.455547
0.419958
0.402957
0.392185
0.388339
0.388379
0.390516
0.395508
0.410979
0.438149
0.496073
0.614387
0.820287
1.06624
0.497787
0.511415
1.07204
0.838397
0.636983
0.51597
0.452745
0.417954
0.402373
0.392054
0.38919
0.387612
0.389291
0.395282
0.407799
0.433778
0.489462
0.605303
0.810736
1.06051
0.493408
0.508353
1.0688
0.83139
0.630007
0.510979
0.449957
0.417545
0.401726
0.391642
0.388597
0.388471
0.390056
0.393281
0.405873
0.429957
0.483162
0.596506
0.801503
1.05536
0.489612
0.505078
1.06512
0.823621
0.62251
0.505773
0.446943
0.417911
0.400327
0.391409
0.38803
0.387371
0.388483
0.391164
0.403142
0.425736
0.47663
0.587404
0.792162
1.05067
0.485947
0.502005
1.06198
0.815833
0.61483
0.500425
0.443652
0.415333
0.398884
0.391477
0.387307
0.38665
0.387669
0.390027
0.401285
0.422101
0.470508
0.578574
0.782946
1.04626
0.482362
0.498378
1.05799
0.807053
0.606547
0.49484
0.440276
0.413619
0.398513
0.391239
0.386853
0.385194
0.386099
0.388423
0.399011
0.418301
0.464343
0.569548
0.773468
1.04212
0.478617
0.494757
1.05445
0.797864
0.597838
0.489126
0.436955
0.411683
0.397173
0.389812
0.385497
0.383702
0.384823
0.388124
0.397039
0.414939
0.458714
0.560838
0.763791
1.03758
0.474247
0.489766
1.04946
0.786976
0.588176
0.483008
0.433185
0.409488
0.395197
0.388707
0.386255
0.383682
0.385177
0.38892
0.394915
0.411708
0.45314
0.551754
0.753258
1.03246
0.469115
0.484326
1.04425
0.775136
0.577816
0.476775
0.429496
0.407475
0.394869
0.387744
0.385167
0.383217
0.383356
0.386546
0.392548
0.408749
0.447855
0.542685
0.742028
1.02645
0.4629
0.476954
1.03718
0.76146
0.566437
0.470176
0.425626
0.405016
0.39317
0.387546
0.386094
0.38331
0.38333
0.385275
0.3904
0.405936
0.442499
0.533096
0.729593
1.01922
0.455474
0.46802
1.02846
0.745939
0.553946
0.463076
0.421725
0.402942
0.392231
0.38722
0.384695
0.383154
0.382197
0.383417
0.388075
0.40331
0.43714
0.523025
0.715715
1.01027
0.44643
0.456972
1.01753
0.72873
0.540805
0.455595
0.417374
0.40086
0.392251
0.3875
0.385054
0.383667
0.382443
0.382392
0.386415
0.400827
0.43168
0.512468
0.700445
0.999627
0.43604
0.443753
1.00382
0.709573
0.527044
0.447895
0.412381
0.398588
0.39316
0.388465
0.385629
0.38503
0.3829
0.382731
0.386445
0.398822
0.426443
0.501605
0.683647
0.986357
0.423762
0.4289
0.987836
0.689265
0.513479
0.440781
0.408736
0.396376
0.391271
0.387851
0.386429
0.384274
0.383917
0.38383
0.386937
0.396629
0.421303
0.490765
0.666092
0.971622
0.410716
0.412323