/*--------------------------------*- C++ -*----------------------------------*\
  =========                 |
  \\      /  F ield         | OpenFOAM: The Open Source CFD Toolbox
   \\    /   O peration     | Website:  https://openfoam.org
    \\  /    A nd           | Version:  6
     \\/     M anipulation  |
\*---------------------------------------------------------------------------*/
FoamFile
{
    version     2.0;
    format      ascii;
    class       volScalarField;
    location    "30";
    object      nut;
}
// * * * * * * * * * * * * * * * * * * * * * * * * * * * * * * * * * * * * * //

dimensions      [0 2 -1 0 0 0 0];

internalField   nonuniform List<scalar> 
130000
(
0.000906654
0.000911412
0.000915736
0.000919465
0.000922626
0.000925258
0.000927399
0.00092909
0.000930372
0.000931283
0.000931858
0.00093213
0.000932128
0.000931879
0.000931408
0.000930737
0.000929886
0.000928872
0.000927711
0.000926419
0.000906649
0.000911421
0.000915744
0.000919469
0.000922625
0.000925249
0.000927381
0.000929063
0.000930334
0.000931234
0.000931797
0.000932056
0.000932037
0.000931768
0.000931279
0.00093059
0.000929721
0.00092869
0.000927515
0.000926211
0.000906794
0.000911581
0.000915914
0.000919642
0.000922797
0.000925417
0.000927543
0.000929216
0.000930475
0.000931361
0.000931914
0.000932166
0.000932149
0.000931891
0.000931411
0.000930726
0.000929852
0.000928808
0.000927609
0.000926271
0.000907017
0.000911827
0.000916173
0.000919908
0.000923062
0.000925677
0.0009278
0.000929476
0.000930751
0.000931664
0.000932248
0.000932537
0.000932567
0.000932334
0.000931854
0.000931149
0.000930247
0.000929169
0.000927931
0.000926547
0.000907283
0.000912118
0.000916478
0.000920223
0.000923395
0.00092604
0.000928202
0.000929924
0.000931254
0.000932199
0.000932793
0.000933078
0.000933099
0.000932832
0.000932312
0.00093156
0.000930618
0.000929504
0.000928229
0.000926807
0.000907569
0.000912434
0.000916824
0.000920617
0.000923854
0.000926556
0.000928756
0.000930496
0.000931827
0.000932741
0.000933284
0.000933512
0.000933456
0.000933134
0.000932567
0.000931772
0.000930797
0.00092965
0.000928345
0.000926896
0.000907868
0.000912775
0.000917227
0.000921079
0.00092437
0.000927087
0.000929273
0.000930966
0.000932228
0.000933093
0.00093359
0.00093378
0.000933686
0.000933334
0.000932744
0.000931941
0.000930946
0.000929776
0.000928449
0.00092698
0.00090816
0.000913121
0.000917629
0.000921502
0.000924777
0.000927463
0.000929615
0.000931274
0.000932509
0.000933354
0.000933845
0.000934018
0.000933902
0.000933527
0.000932915
0.00093209
0.000931073
0.000929881
0.000928534
0.000927046
0.000908421
0.000913426
0.000917946
0.000921822
0.000925078
0.000927741
0.000929883
0.000931545
0.000932771
0.000933603
0.000934079
0.000934233
0.000934097
0.0009337
0.000933066
0.000932218
0.000931179
0.000929966
0.000928598
0.000927092
0.000908646
0.000913681
0.000918208
0.000922084
0.000925332
0.000928002
0.000930142
0.000931798
0.000933014
0.000933833
0.000934293
0.000934428
0.000934272
0.000933853
0.000933197
0.000932327
0.000931264
0.00093003
0.000928642
0.000927118
0.000908848
0.000913903
0.000918441
0.000922325
0.000925586
0.000928256
0.000930391
0.000932039
0.000933243
0.000934047
0.00093449
0.000934607
0.00093443
0.000933989
0.00093331
0.000932417
0.000931332
0.000930077
0.000928669
0.000927127
0.00090904
0.000914113
0.000918654
0.000922562
0.000925842
0.000928507
0.000930634
0.00093227
0.000933462
0.00093425
0.000934674
0.000934771
0.000934573
0.000934109
0.000933407
0.000932492
0.000931385
0.000930108
0.00092868
0.000927121
0.000909237
0.000914328
0.000918881
0.000922801
0.000926085
0.00092875
0.00093087
0.000932495
0.000933672
0.000934443
0.000934849
0.000934925
0.000934704
0.000934218
0.000933493
0.000932554
0.000931425
0.000930126
0.000928679
0.000927102
0.000909445
0.000914559
0.000919133
0.000923032
0.000926309
0.000928995
0.000931106
0.000932717
0.000933878
0.000934631
0.000935016
0.00093507
0.000934827
0.000934317
0.000933568
0.000932606
0.000931454
0.000930134
0.000928668
0.000927073
0.00090966
0.000914791
0.000919368
0.000923251
0.000926534
0.000929235
0.000931338
0.000932936
0.000934079
0.000934813
0.000935177
0.000935209
0.000934943
0.000934409
0.000933636
0.00093265
0.000931475
0.000930133
0.000928647
0.000927036
0.000909884
0.000915033
0.000919615
0.00092349
0.000926748
0.000929442
0.000931562
0.000933151
0.000934277
0.000934991
0.000935334
0.000935343
0.000935052
0.000934493
0.000933696
0.000932685
0.000931487
0.000930125
0.000928619
0.000926992
0.000910121
0.000915288
0.00091988
0.000923764
0.000926983
0.000929638
0.000931766
0.000933362
0.000934473
0.000935166
0.000935487
0.000935472
0.000935156
0.000934572
0.000933749
0.000932714
0.000931493
0.000930109
0.000928584
0.000926939
0.000910368
0.000915554
0.000920156
0.00092404
0.000927253
0.000929846
0.000931948
0.000933555
0.000934663
0.000935339
0.000935636
0.000935596
0.000935255
0.000934645
0.000933795
0.000932735
0.00093149
0.000930084
0.000928539
0.000926877
0.000910629
0.000915832
0.000920442
0.000924326
0.000927529
0.000930102
0.000932151
0.000933735
0.000934853
0.000935512
0.000935784
0.000935718
0.000935349
0.000934711
0.000933835
0.000932748
0.000931477
0.000930049
0.000928486
0.000926809
0.000910901
0.000916124
0.000920743
0.000924629
0.00092783
0.000930401
0.000932395
0.00093392
0.000935004
0.000935667
0.000935927
0.000935837
0.00093544
0.000934772
0.000933867
0.000932752
0.000931455
0.000930002
0.000928419
0.000926733
0.000911185
0.000916427
0.000921055
0.000924942
0.000928138
0.000930698
0.000932679
0.000934128
0.00093515
0.00093581
0.000936072
0.000935961
0.000935531
0.000934832
0.000933896
0.000932752
0.000931425
0.000929946
0.000928347
0.000926652
0.000911481
0.000916742
0.000921379
0.000925266
0.000928455
0.000931004
0.000932968
0.000934405
0.000935367
0.000935965
0.000936189
0.000936059
0.000935599
0.000934874
0.000933916
0.000932752
0.000931405
0.000929912
0.000928305
0.000926603
0.00091179
0.000917071
0.000921717
0.000925603
0.000928785
0.000931319
0.000933264
0.000934675
0.000935605
0.000936106
0.000936255
0.000936094
0.000935625
0.000934893
0.000933926
0.000932749
0.000931397
0.000929895
0.000928266
0.000926537
0.000912114
0.000917416
0.000922071
0.000925957
0.000929131
0.000931652
0.000933578
0.000934965
0.000935864
0.000936316
0.000936416
0.000936196
0.000935697
0.000934928
0.000933928
0.00093272
0.000931354
0.000929851
0.000928222
0.000926486
0.000912453
0.000917777
0.000922442
0.000926329
0.000929496
0.000932005
0.000933915
0.000935284
0.000936166
0.000936613
0.000936674
0.000936392
0.000935805
0.000934981
0.000933941
0.000932725
0.000931379
0.00092988
0.000928269
0.000926528
0.000912808
0.000918155
0.000922832
0.00092672
0.000929882
0.000932379
0.000934274
0.000935624
0.000936484
0.000936904
0.000936929
0.0009366
0.000935954
0.000935081
0.000933988
0.00093276
0.000931423
0.000929944
0.000928326
0.000926576
0.000913183
0.000918554
0.000923242
0.000927133
0.000930289
0.000932776
0.000934657
0.00093599
0.000936831
0.000937231
0.000937235
0.000936883
0.000936211
0.000935242
0.000934105
0.000932819
0.000931418
0.000929945
0.0009283
0.000926573
0.000913576
0.000918973
0.000923674
0.000927568
0.00093072
0.000933197
0.000935065
0.000936383
0.000937209
0.000937593
0.000937582
0.000937218
0.000936538
0.000935571
0.000934407
0.000933066
0.00093158
0.000929972
0.000928252
0.00092647
0.000913989
0.000919413
0.000924128
0.000928025
0.000931173
0.000933641
0.000935497
0.000936802
0.000937614
0.000937985
0.000937965
0.000937596
0.00093692
0.000935976
0.000934802
0.000933429
0.000931881
0.00093017
0.000928377
0.000926549
0.000914423
0.000919875
0.000924603
0.000928503
0.000931647
0.000934107
0.000935951
0.000937242
0.000938041
0.0009384
0.000938369
0.000937993
0.000937313
0.000936367
0.00093519
0.000933816
0.000932273
0.000930587
0.00092878
0.000926938
0.000914878
0.000920359
0.0009251
0.000929003
0.000932142
0.000934592
0.000936422
0.000937699
0.000938484
0.00093883
0.000938788
0.000938404
0.000937719
0.000936771
0.000935596
0.000934228
0.000932696
0.00093103
0.000929258
0.000927406
0.000915356
0.000920864
0.000925618
0.000929522
0.000932655
0.000935093
0.000936908
0.000938169
0.000938936
0.000939267
0.000939212
0.000938816
0.000938123
0.000937169
0.000935991
0.000934621
0.00093309
0.000931424
0.00092965
0.000927789
0.000915856
0.000921392
0.000926157
0.000930061
0.000933185
0.000935608
0.000937405
0.000938646
0.000939394
0.000939705
0.000939632
0.000939221
0.000938515
0.000937551
0.000936365
0.000934989
0.000933453
0.000931785
0.000930008
0.000928145
0.000916378
0.000921942
0.000926716
0.000930618
0.00093373
0.000936135
0.000937911
0.000939129
0.000939853
0.000940141
0.000940046
0.000939615
0.000938891
0.000937913
0.000936715
0.000935329
0.000933786
0.000932113
0.000930333
0.00092847
0.000916923
0.000922514
0.000927296
0.000931192
0.00093429
0.000936674
0.000938425
0.000939616
0.000940312
0.000940573
0.000940452
0.000939997
0.000939252
0.000938255
0.000937041
0.000935643
0.000934091
0.00093241
0.000930627
0.000928762
0.000917493
0.000923108
0.000927896
0.000931784
0.000934864
0.000937223
0.000938945
0.000940104
0.000940768
0.000940998
0.000940847
0.000940365
0.000939595
0.000938577
0.000937345
0.000935932
0.000934368
0.00093268
0.000930891
0.000929024
0.000918088
0.000923727
0.000928517
0.000932393
0.00093545
0.000937781
0.000939469
0.000940593
0.000941221
0.000941415
0.000941231
0.000940719
0.000939921
0.000938878
0.000937626
0.000936197
0.000934621
0.000932924
0.00093113
0.000929261
0.000918708
0.000924369
0.000929158
0.000933018
0.000936049
0.000938345
0.000939996
0.000941079
0.000941666
0.000941821
0.0009416
0.000941053
0.000940225
0.000939156
0.000937883
0.000936436
0.000934847
0.000933142
0.000931344
0.000929474
0.000919354
0.000925034
0.000929819
0.000933658
0.000936656
0.000938913
0.00094052
0.000941557
0.000942099
0.00094221
0.000941948
0.000941363
0.000940503
0.000939406
0.000938109
0.000936645
0.000935044
0.000933331
0.000931531
0.000929662
0.000920024
0.00092572
0.000930495
0.000934308
0.000937268
0.000939479
0.000941035
0.00094202
0.00094251
0.000942572
0.000942264
0.000941638
0.000940741
0.000939614
0.000938293
0.000936812
0.000935199
0.000933481
0.000931681
0.000929818
0.000920721
0.000926427
0.000931185
0.000934963
0.000937876
0.000940032
0.000941529
0.000942455
0.000942886
0.000942891
0.000942531
0.00094186
0.000940923
0.000939764
0.000938418
0.00093692
0.000935297
0.000933577
0.00093178
0.000929927
0.00092144
0.000927148
0.000931879
0.000935611
0.000938467
0.000940558
0.000941985
0.00094284
0.000943202
0.000943142
0.000942723
0.000942
0.000941019
0.000939825
0.000938454
0.000936939
0.000935309
0.00093359
0.000931803
0.000929966
0.000922178
0.000927875
0.000932564
0.000936237
0.000939019
0.000941028
0.000942371
0.000943141
0.000943421
0.000943285
0.000942797
0.000942013
0.000940983
0.00093975
0.000938351
0.000936821
0.000935188
0.000933477
0.000931708
0.000929899
0.000922923
0.00092859
0.000933217
0.000936808
0.000939495
0.000941402
0.000942639
0.000943304
0.000943483
0.000943254
0.000942682
0.000941826
0.000940738
0.000939461
0.000938035
0.000936492
0.000934861
0.000933168
0.00093143
0.000929664
0.000923657
0.000929266
0.0009338
0.000937277
0.000939838
0.000941611
0.000942711
0.000943241
0.000943292
0.000942945
0.000942268
0.000941324
0.000940165
0.000938837
0.00093738
0.000935828
0.00093421
0.000932548
0.000930862
0.000929164
0.00092435
0.000929856
0.000934249
0.000937565
0.000939952
0.000941543
0.00094246
0.000942812
0.000942694
0.000942191
0.000941377
0.000940318
0.000939069
0.000937679
0.000936189
0.000934634
0.000933042
0.000931435
0.00092983
0.000928238
0.000924957
0.000930287
0.000934466
0.000937548
0.000939687
0.000941024
0.000941688
0.000941794
0.000941443
0.000940728
0.000939727
0.000938512
0.000937143
0.000935672
0.000934143
0.000932592
0.000931048
0.000929531
0.000928056
0.00092663
0.000925398
0.00093044
0.000934292
0.000937027
0.000938807
0.00093978
0.000940083
0.000939838
0.000939157
0.000938139
0.000936874
0.000935438
0.0009339
0.000932318
0.000930739
0.000929202
0.000927737
0.000926362
0.00092509
0.000923924
0.000925547
0.000930129
0.000933479
0.000935697
0.000936947
0.000937387
0.000937163
0.000936408
0.000935245
0.000933786
0.000932133
0.000930374
0.000928588
0.000926843
0.000925193
0.000923681
0.000922338
0.000921184
0.000920226
0.000919461
0.000925213
0.000929071
0.000931657
0.000933097
0.000933561
0.000933214
0.000932212
0.000930704
0.000928829
0.000926716
0.000924485
0.000922242
0.000920082
0.000918088
0.000916326
0.000914846
0.000913684
0.000912858
0.000912374
0.000912222
0.000924106
0.000926849
0.000928282
0.000928563
0.000927862
0.000926353
0.000924206
0.000921588
0.000918661
0.000915578
0.000912484
0.000909514
0.000906786
0.000904404
0.000902454
0.000900999
0.000900083
0.000899728
0.000899937
0.000900691
0.000921831
0.000922882
0.000922599
0.000921174
0.000918775
0.000915578
0.000911773
0.000907547
0.000903094
0.000898599
0.000894245
0.0008902
0.000886619
0.000883638
0.000881369
0.000879898
0.000879285
0.000879561
0.000880727
0.000882764
0.000917892
0.000916408
0.000913624
0.000909758
0.00090495
0.000899382
0.000893255
0.000886788
0.000880208
0.000873746
0.000867626
0.000862063
0.000857257
0.000853383
0.000850594
0.000849005
0.000848703
0.000849737
0.000852122
0.000855843
0.000911275
0.000906417
0.000900153
0.000892966
0.000884904
0.000876176
0.000866988
0.000857583
0.000848237
0.000839226
0.000830819
0.000823276
0.000816842
0.000811741
0.000808163
0.000806268
0.000806175
0.00080797
0.000811699
0.000817378
0.00090129
0.00089133
0.00088095
0.000869615
0.000857367
0.000844781
0.000831905
0.000818991
0.00080641
0.000794465
0.000783445
0.000773628
0.000765295
0.000758702
0.000754074
0.000751604
0.000751456
0.000753763
0.000758632
0.000766148
0.000886969
0.000870756
0.000854453
0.000838181
0.0008217
0.000805224
0.000788507
0.000771826
0.000756061
0.000741348
0.000727913
0.00071596
0.000705824
0.000697745
0.00069195
0.000688647
0.000688029
0.00069028
0.000695591
0.000704158
0.000867449
0.000844098
0.000821387
0.000799846
0.000778815
0.000758289
0.000738377
0.000719294
0.000701391
0.000684973
0.000670195
0.000656748
0.00064548
0.000636347
0.000629571
0.000625332
0.000623816
0.00062524
0.000629866
0.00063802
0.000842588
0.000811714
0.000783244
0.000756862
0.000732499
0.000709463
0.000687846
0.000667706
0.000649187
0.000632439
0.000617558
0.000604603
0.000593583
0.000584142
0.000576903
0.000571891
0.000569244
0.000569161
0.000571939
0.000577987
0.000813081
0.000775452
0.000742656
0.000713815
0.000687895
0.000664359
0.00064337
0.000624305
0.000607189
0.000592014
0.00057875
0.000567277
0.000557514
0.000549276
0.000542227
0.000536843
0.000533138
0.00053126
0.000531473
0.000534192
0.000780564
0.000738369
0.000703831
0.000675154
0.00065069
0.000629515
0.000611101
0.000595048
0.000580992
0.000568812
0.000558539
0.000549565
0.000541836
0.000535166
0.000529155
0.000523805
0.000519362
0.000515847
0.000513452
0.000512513
0.000747497
0.000704061
0.00067105
0.000645488
0.000625023
0.000608289
0.00059443
0.000582847
0.000573076
0.000564753
0.000557575
0.000551253
0.000545805
0.000540914
0.000536106
0.000531248
0.000526471
0.000521754
0.000517224
0.000513098
0.000716767
0.000675972
0.000647712
0.000627759
0.000613132
0.000602119
0.000593656
0.000587023
0.000581691
0.000577251
0.000573369
0.00056977
0.000566262
0.000562806
0.000559107
0.000554866
0.000550032
0.00054454
0.000538509
0.000532025
0.000691129
0.00065667
0.000635707
0.000622959
0.000615054
0.000610126
0.000607062
0.000605139
0.000603856
0.000602839
0.000601802
0.000600515
0.0005988
0.000596558
0.000593672
0.000589981
0.00058527
0.000579336
0.000572334
0.000564261
0.000672755
0.000647519
0.000635391
0.000630483
0.000629362
0.000630237
0.000632092
0.000634308
0.000636477
0.000638313
0.000639603
0.000640183
0.000639921
0.000638714
0.000636472
0.000633211
0.000628688
0.000622516
0.000614882
0.000605744
0.000662999
0.000648767
0.000646035
0.000648865
0.000654099
0.000660197
0.000666351
0.000672101
0.000677168
0.000681368
0.000684566
0.000686661
0.000687566
0.000687209
0.000685516
0.000682606
0.00067827
0.000671955
0.000663863
0.00065395
0.000662406
0.000659884
0.000666383
0.000676444
0.00068742
0.000698132
0.000708024
0.000716818
0.000724365
0.000730577
0.000735395
0.000738771
0.000740662
0.000741023
0.0007398
0.000737173
0.000733001
0.000726573
0.000718093
0.000707536
0.000670873
0.000679938
0.000695098
0.000711745
0.000727866
0.000742678
0.000755882
0.000767371
0.000777115
0.000785115
0.000791371
0.000795885
0.000798647
0.000799635
0.000798815
0.00079642
0.000792391
0.000785862
0.000777009
0.000765854
0.000687866
0.000707888
0.000730987
0.0007536
0.000774369
0.000792894
0.000809111
0.000823065
0.000834832
0.000844483
0.000852073
0.00085764
0.000861204
0.000862763
0.000862298
0.000860091
0.000856182
0.000849558
0.000840321
0.000828563
0.000712634
0.000742741
0.00077306
0.000801104
0.000826134
0.000848093
0.00086712
0.000883394
0.000897077
0.000908301
0.000917165
0.000923739
0.000928063
0.000930154
0.000930004
0.000927936
0.000924117
0.000917396
0.000907763
0.000895393
0.000744346
0.000783602
0.000820483
0.000853512
0.000882499
0.000907681
0.000929375
0.000947869
0.000963399
0.000976149
0.000986253
0.000993806
0.000998865
0.00100146
0.00100158
0.000999578
0.000995795
0.000988998
0.000978971
0.000965987
0.000782166
0.00082965
0.000872494
0.000910117
0.000942796
0.000971022
0.000995258
0.00101589
0.00103321
0.00104744
0.00105876
0.00106728
0.00107306
0.00107613
0.00107648
0.00107439
0.00107049
0.00106376
0.00105337
0.00103979
0.000825259
0.000880068
0.000928297
0.000970126
0.00100623
0.00103731
0.00106395
0.00108661
0.00110565
0.00112132
0.00113381
0.00114326
0.00114976
0.00115337
0.00115413
0.0011521
0.00114786
0.00114089
0.00113011
0.00111591
0.000872749
0.000933956
0.000986951
0.00103255
0.00107175
0.00110544
0.00113429
0.00115884
0.00117948
0.00119649
0.00121008
0.0012204
0.00122755
0.0012316
0.00123258
0.00123056
0.00122612
0.00121892
0.0012078
0.00119295
0.000923653
0.00099023
0.00104726
0.00109608
0.00113796
0.00117391
0.0012047
0.00123091
0.00125296
0.00127116
0.00128571
0.00129678
0.00130446
0.00130884
0.00130995
0.00130783
0.00130298
0.00129538
0.00128408
0.00126868
0.000976792
0.00104752
0.00110767
0.00115899
0.00120295
0.00124066
0.00127298
0.00130051
0.00132368
0.00134283
0.00135814
0.00136974
0.00137775
0.00138226
0.00138333
0.001381
0.00137571
0.0013674
0.00135561
0.00134
0.0010307
0.00110408
0.00116615
0.00121898
0.00126419
0.00130299
0.00133624
0.00136459
0.00138846
0.00140823
0.00142402
0.00143584
0.00144378
0.00144811
0.00144889
0.00144619
0.00144031
0.00143113
0.00141846
0.0014023
0.00108355
0.00115767
0.00122009
0.00127311
0.00131846
0.00135737
0.00139076
0.00141922
0.00144305
0.00146313
0.00147933
0.00149175
0.00150045
0.00150505
0.00150556
0.00150251
0.00149556
0.0014847
0.00146997
0.00145177
0.00113307
0.0012055
0.00126622
0.0013177
0.00136169
0.00139942
0.00143193
0.00145983
0.00148376
0.00150276
0.00151702
0.001526
0.00153152
0.00153322
0.00153136
0.00152726
0.00151912
0.00150711
0.00149081
0.00147287
0.00117652
0.00124422
0.00130062
0.00134834
0.00138919
0.00142331
0.00145246
0.00147762
0.00149859
0.0015159
0.00152979
0.00154145
0.00154776
0.00154899
0.00154478
0.00153445
0.00152308
0.0015095
0.00149404
0.00147325
0.00121075
0.00127001
0.00131893
0.00135963
0.00139256
0.00142321
0.00144896
0.00147103
0.00148975
0.00150517
0.00151667
0.00152373
0.00152618
0.00152366
0.00151599
0.00150335
0.0014877
0.00147004
0.00144877
0.00142341
0.00123244
0.00127934
0.00131673
0.00134497
0.00137278
0.00139341
0.0014135
0.00143088
0.00144576
0.00145773
0.00146606
0.0014699
0.00146843
0.00146098
0.00144723
0.00142728
0.0014039
0.00137869
0.00134924
0.00131594
0.0012388
0.0012688
0.00128887
0.0013069
0.00131787
0.00133007
0.00134145
0.00135241
0.00136249
0.0013707
0.00137559
0.00137554
0.00136896
0.00135456
0.00133163
0.00130022
0.0012644
0.00122606
0.00118358
0.00113738
0.00122601
0.00123142
0.00123184
0.00123005
0.00122859
0.00122806
0.00122974
0.00123374
0.00123915
0.00124411
0.00124607
0.0012421
0.00122936
0.00120565
0.00116981
0.00112224
0.00106846
0.00100899
0.000947087
0.000885253
0.00119403
0.00117478
0.00115027
0.00112661
0.0011063
0.00109123
0.00108255
0.00108015
0.00108238
0.00108609
0.00108682
0.00107964
0.00105995
0.00102451
0.000972269
0.000907884
0.000834453
0.000752729
0.00067161
0.000594917
0.00113965
0.00109023
0.00104089
0.000996038
0.000957805
0.000929267
0.000912321
0.0009066
0.000909191
0.000915109
0.000917167
0.000907787
0.000880923
0.000833407
0.000769282
0.000695169
0.000613919
0.000529158
0.000444855
0.000372899
0.00106598
0.000988914
0.000916395
0.000851849
0.00079903
0.000761722
0.000742641
0.000741537
0.00075404
0.000770403
0.000779804
0.000773316
0.000745878
0.000696974
0.000634948
0.000558219
0.000473824
0.000388127
0.000321871
0.000273495
0.000974673
0.000875023
0.000783472
0.000707419
0.000654627
0.000630101
0.000633818
0.000659897
0.000695907
0.000726711
0.000739716
0.000727826
0.000689656
0.000632534
0.000555558
0.00046838
0.000376433
0.000303269
0.000251682
0.000217706
0.000863833
0.000745832
0.000647268
0.000578482
0.000545145
0.000551099
0.000591059
0.000649451
0.000703253
0.000735751
0.000739907
0.000713894
0.000662969
0.000588197
0.000496451
0.000398254
0.000310479
0.000248876
0.000206989
0.000194977
0.000730232
0.000605375
0.00051457
0.000466609
0.000469123
0.000522036
0.000599565
0.000671667
0.000723674
0.000748115
0.000741231
0.000704722
0.000640636
0.000552731
0.000450905
0.000347021
0.000266761
0.000210909
0.00018986
0.000198956
0.000575117
0.000456499
0.000387528
0.000380461
0.000433625
0.000520074
0.000609934
0.000685267
0.000734768
0.000753995
0.00074184
0.000699038
0.000626611
0.000530285
0.000421124
0.000315729
0.000235817
0.000193079
0.000191092
0.000212432
0.00040176
0.000308728
0.000283393
0.000329734
0.000421634
0.000526877
0.000623365
0.000698056
0.000745155
0.00076228
0.000748501
0.00070262
0.000625614
0.000522569
0.000405677
0.000295417
0.000216771
0.000188656
0.000197896
0.000223359
0.000245298
0.000202011
0.000228158
0.000310287
0.000420883
0.000534901
0.000633524
0.000708603
0.000755871
0.000773281
0.000760605
0.00071557
0.000638099
0.000531981
0.000409481
0.000294063
0.000214576
0.000191114
0.000202805
0.000228203
0.000182272
0.000172695
0.000208398
0.000301251
0.000420975
0.00054092
0.000643625
0.000720607
0.00076859
0.000787028
0.000777189
0.000736465
0.000663119
0.000558358
0.000432578
0.00031036
0.000226305
0.000192501
0.000202757
0.000227817
0.000155928
0.000152893
0.000197178
0.000293654
0.000421736
0.000551145
0.000659263
0.00073717
0.000784225
0.000802964
0.00079658
0.000762835
0.000697796
0.000598492
0.000470872
0.000337825
0.000236421
0.000193978
0.000201808
0.00022534
0.000152157
0.000141531
0.000185126
0.000289553
0.000432162
0.000572981
0.000684611
0.000759664
0.000802443
0.000820047
0.000817303
0.000791904
0.000739033
0.000650607
0.000525042
0.000380149
0.000258358
0.000198649
0.000197788
0.000220162
0.000160757
0.000143747
0.000183621
0.000303933
0.000465964
0.000615102
0.000722531
0.000787685
0.000821677
0.000835301
0.000834196
0.000818557
0.000781618
0.000712144
0.000599607
0.000449622
0.000301373
0.00021167
0.000196501
0.000217143
0.00016163
0.000145984
0.00020558
0.000354944
0.000536254
0.000680851
0.000770525
0.000817148
0.000837826
0.000844947
0.000844797
0.00083733
0.00081664
0.000771058
0.000682613
0.000541462
0.00037063
0.00023953
0.0001963
0.000209585
0.000163362
0.000160682
0.00026115
0.000457278
0.000644501
0.00075917
0.000814354
0.000837721
0.000846474
0.00084888
0.000848609
0.000845476
0.000835376
0.000813015
0.000763612
0.000659153
0.000487449
0.000304512
0.000210618
0.000207364
0.000179492
0.00021728
0.000396956
0.000630389
0.000771431
0.000826157
0.000843847
0.000848715
0.000850608
0.000851637
0.000851635
0.000850634
0.000849041
0.000842864
0.000825073
0.000778929
0.000667021
0.000455835
0.000263145
0.000212931
0.000384496
0.000478399
0.000717481
0.000814781
0.000837077
0.000846567
0.000850252
0.000851718
0.000852057
0.000852067
0.000852091
0.000852148
0.000851945
0.000850658
0.000846797
0.000835427
0.000804914
0.000739347
0.000585821
0.000306845
0.000917512
0.000918012
0.000918682
0.000919227
0.000919646
0.000919946
0.000920133
0.000920216
0.000920204
0.000920105
0.000919926
0.000919675
0.000919367
0.000919008
0.000918579
0.000918093
0.000917552
0.000916955
0.0009163
0.000915588
0.000917463
0.000917975
0.000918643
0.000919185
0.000919601
0.000919896
0.000920078
0.000920154
0.000920134
0.000920025
0.000919836
0.000919576
0.000919259
0.000918891
0.000918453
0.000917958
0.000917408
0.000916803
0.000916142
0.000915425
0.000917568
0.000918082
0.000918751
0.000919292
0.000919707
0.000919998
0.000920174
0.000920243
0.000920212
0.000920092
0.000919891
0.000919617
0.000919285
0.000918903
0.000918449
0.000917937
0.00091737
0.000916747
0.000916071
0.000915342
0.000917717
0.000918238
0.000918911
0.000919456
0.000919873
0.000920165
0.000920341
0.000920407
0.000920371
0.000920244
0.000920032
0.000919745
0.000919398
0.000918996
0.000918517
0.000917977
0.000917378
0.000916725
0.000916024
0.000915277
0.000917876
0.000918406
0.000919088
0.000919641
0.000920065
0.000920365
0.000920547
0.000920618
0.000920586
0.000920458
0.00092024
0.000919941
0.000919575
0.000919146
0.000918631
0.000918044
0.000917391
0.000916686
0.000915944
0.000915171
0.00091802
0.000918562
0.000919255
0.000919819
0.000920253
0.000920564
0.000920756
0.000920837
0.000920812
0.000920687
0.000920467
0.000920158
0.000919775
0.000919321
0.000918767
0.000918122
0.000917374
0.000916567
0.000915752
0.000914951
0.000918125
0.000918681
0.000919386
0.000919961
0.000920408
0.000920729
0.000920933
0.000921023
0.000921006
0.000920886
0.000920668
0.000920357
0.00091997
0.000919512
0.000918953
0.000918306
0.000917556
0.00091674
0.000915882
0.00091508
0.000918176
0.000918745
0.000919462
0.000920049
0.000920506
0.000920838
0.000921051
0.000921151
0.000921141
0.000921028
0.000920815
0.00092051
0.000920131
0.000919689
0.000919156
0.00091855
0.000917884
0.000917145
0.00091632
0.000915551
0.000918169
0.00091875
0.000919478
0.000920075
0.000920543
0.000920884
0.000921105
0.000921211
0.000921206
0.000921094
0.000920881
0.000920574
0.000920192
0.000919753
0.000919228
0.000918641
0.000918011
0.000917337
0.00091662
0.000915861
0.000918125
0.000918715
0.000919452
0.000920058
0.000920533
0.00092088
0.000921105
0.000921212
0.000921204
0.000921085
0.000920858
0.00092053
0.000920123
0.000919656
0.000919107
0.000918502
0.000917863
0.000917193
0.000916491
0.000915753
0.000918093
0.000918685
0.000919426
0.000920034
0.000920511
0.000920857
0.000921079
0.000921179
0.00092116
0.000921025
0.000920774
0.000920411
0.000919958
0.000919435
0.000918833
0.000918194
0.000917535
0.000916855
0.000916151
0.000915421
0.000918137
0.000918721
0.000919453
0.000920052
0.000920517
0.000920851
0.000921058
0.000921142
0.000921105
0.000920946
0.000920667
0.000920269
0.000919777
0.000919196
0.000918531
0.000917846
0.000917158
0.000916471
0.000915781
0.000915078
0.000918309
0.000918872
0.000919579
0.00092015
0.000920586
0.000920892
0.000921074
0.000921136
0.000921083
0.000920917
0.000920639
0.000920258
0.000919796
0.000919258
0.000918637
0.000917982
0.000917316
0.000916647
0.000915968
0.00091527
0.000918609
0.000919143
0.000919813
0.000920345
0.000920742
0.000921012
0.000921164
0.000921205
0.000921142
0.000920983
0.000920732
0.000920398
0.000920004
0.000919562
0.000919035
0.000918449
0.000917831
0.000917178
0.000916489
0.000915754
0.000918992
0.000919501
0.000920138
0.000920636
0.000920998
0.000921235
0.00092136
0.000921382
0.00092131
0.000921154
0.000920919
0.000920613
0.000920254
0.000919853
0.000919372
0.000918832
0.000918235
0.00091758
0.000916865
0.000916086
0.000919411
0.000919907
0.000920526
0.000921003
0.000921344
0.000921562
0.000921669
0.000921677
0.000921597
0.000921438
0.000921207
0.000920909
0.000920562
0.000920176
0.000919708
0.000919178
0.000918582
0.000917919
0.000917184
0.000916378
0.000919833
0.000920331
0.000920946
0.000921418
0.000921754
0.000921967
0.000922069
0.000922072
0.000921989
0.000921828
0.000921597
0.000921302
0.000920958
0.000920576
0.000920112
0.000919584
0.000918987
0.000918319
0.000917577
0.000916759
0.000920233
0.00092074
0.00092136
0.000921838
0.00092218
0.000922398
0.000922505
0.000922513
0.000922433
0.000922276
0.000922048
0.000921756
0.000921415
0.000921039
0.00092058
0.00092005
0.000919456
0.000918793
0.000918059
0.000917249
0.000920591
0.000921109
0.000921734
0.000922219
0.000922568
0.000922795
0.000922911
0.000922927
0.000922855
0.000922704
0.00092248
0.000922192
0.000921852
0.00092148
0.000921027
0.000920505
0.000919921
0.000919272
0.000918555
0.000917766
0.000920902
0.000921425
0.000922052
0.000922539
0.000922892
0.000923123
0.000923244
0.000923266
0.000923199
0.000923052
0.000922832
0.000922545
0.000922204
0.000921833
0.000921398
0.000920887
0.000920317
0.000919684
0.000918986
0.000918219
0.000921168
0.000921692
0.000922313
0.000922796
0.000923146
0.000923376
0.000923496
0.000923519
0.000923453
0.000923308
0.000923091
0.000922808
0.00092247
0.000922105
0.000921678
0.000921179
0.000920623
0.000920006
0.000919325
0.000918578
0.000921394
0.000921913
0.000922522
0.000922994
0.000923336
0.000923559
0.000923674
0.000923692
0.000923625
0.000923479
0.000923264
0.000922983
0.000922649
0.000922288
0.000921872
0.000921385
0.000920842
0.000920241
0.000919578
0.000918849
0.00092158
0.000922087
0.000922678
0.000923133
0.000923461
0.000923672
0.000923777
0.000923789
0.000923717
0.00092357
0.000923355
0.000923078
0.000922748
0.000922392
0.000921985
0.000921512
0.000920984
0.000920399
0.000919755
0.000919046
0.000921717
0.000922206
0.000922771
0.000923203
0.000923511
0.000923705
0.000923797
0.000923799
0.000923721
0.000923571
0.000923356
0.000923083
0.000922759
0.000922409
0.000922015
0.000921556
0.000921046
0.000920481
0.000919859
0.000919173
0.000921791
0.000922254
0.000922782
0.000923183