/*--------------------------------*- C++ -*----------------------------------*\
  =========                 |
  \\      /  F ield         | OpenFOAM: The Open Source CFD Toolbox
   \\    /   O peration     | Website:  https://openfoam.org
    \\  /    A nd           | Version:  6
     \\/     M anipulation  |
\*---------------------------------------------------------------------------*/
FoamFile
{
    version     2.0;
    format      ascii;
    class       volScalarField;
    location    "30";
    object      nut;
}
// * * * * * * * * * * * * * * * * * * * * * * * * * * * * * * * * * * * * * //

dimensions      [0 2 -1 0 0 0 0];

internalField   nonuniform List<scalar> 
10000
(
1.46691e-05
6.9767e-05
8.95279e-05
0.000104835
0.000120302
0.000138593
0.000159804
0.000181668
0.00019974
0.000210125
0.000210239
0.000200158
0.000183165
0.000162328
0.000141079
0.000122265
0.000106079
9.0188e-05
7.00158e-05
1.46815e-05
1.46754e-05
6.97583e-05
8.94391e-05
0.000104777
0.000120426
0.000139053
0.000160526
0.000183373
0.000201947
0.000212832
0.000212971
0.000201356
0.000185119
0.000164264
0.000142348
0.000122935
0.00010626
9.03173e-05
7.00143e-05
1.46792e-05
1.46721e-05
6.97729e-05
8.96148e-05
0.000105089
0.000120698
0.000139264
0.000160308
0.000182097
0.000200152
0.000210988
0.000210996
0.000200634
0.000183504
0.000163379
0.000141888
0.000122589
0.000106244
9.00302e-05
7.0027e-05
1.4668e-05
1.46712e-05
6.97831e-05
8.96653e-05
0.000105536
0.000121335
0.000140068
0.000161309
0.000182892
0.000200808
0.00021278
0.000212774
0.000202094
0.000183655
0.000163568
0.000142025
0.000122399
0.000106389
9.0272e-05
6.99875e-05
1.46761e-05
1.46603e-05
6.97627e-05
8.97404e-05
0.000105129
0.000121244
0.000140142
0.000161918
0.00018404
0.000201796
0.000210101
0.00020974
0.000200056
0.000183625
0.000163857
0.0001419
0.000122447
0.000106322
9.01089e-05
6.99287e-05
1.4681e-05
1.46602e-05
6.97423e-05
8.95633e-05
0.000105345
0.000121458
0.000140321
0.000161149
0.000182682
0.000200074
0.000210062
0.000209775
0.000200183
0.000183819
0.00016387
0.000141955
0.000122605
0.000106141
9.01172e-05
6.99271e-05
1.46854e-05
1.46584e-05
6.97209e-05
8.96241e-05
0.000105091
0.000121584
0.000140345
0.000160998
0.000182819
0.000200239
0.00021029
0.000209807
0.000200408
0.000184052
0.000164202
0.000142963
0.000122764
0.000105933
9.01119e-05
6.99033e-05
1.46847e-05
1.46588e-05
6.97132e-05
8.95446e-05
0.000105243
0.000121491
0.000140291
0.000161227
0.00018316
0.000200793
0.00021232
0.000210282
0.000200714
0.000184324
0.000165028
0.000142958
0.000123073
0.000105883
9.00944e-05
6.98872e-05
1.46759e-05
1.46585e-05
6.97075e-05
8.94596e-05
0.000105117
0.000121183
0.000140546
0.000162093
0.000184866
0.000200678
0.000210406
0.000210162
0.000200695
0.000184307
0.000164053
0.00014282
0.000123272
0.000105881
8.99548e-05
6.98808e-05
1.46642e-05
1.46511e-05
6.97163e-05
8.9553e-05
0.000105431
0.0001213
0.00014113
0.000161941
0.000184395
0.000200929
0.000211257
0.000210842
0.000201086
0.000184581
0.000164611
0.000143201
0.000122922
0.000105825
8.98817e-05
6.98618e-05
1.46553e-05
1.4654e-05
6.9731e-05
8.94622e-05
0.000105308
0.00012137
0.000141229
0.000162613
0.000183624
0.000200931
0.000210762
0.000212544
0.000201444
0.00018473
0.000164248
0.00014298
0.000123005
0.00010581
8.97754e-05
6.97736e-05
1.46408e-05
1.46386e-05
6.96921e-05
8.93824e-05
0.000105214
0.000121316
0.000140597
0.000162407
0.000184178
0.000202875
0.000211356
0.000211286
0.000202059
0.000185264
0.000164484
0.000143242
0.000123149
0.000105807
8.96275e-05
6.97018e-05
1.46212e-05
1.46304e-05
6.96445e-05
8.93293e-05
0.000105227
0.000121944
0.000141239
0.000162539
0.000184543
0.000202076
0.000213142
0.000213825
0.000204701
0.000185936
0.000164821
0.000143759
0.000123285
0.000106117
8.95348e-05
6.96399e-05
1.46132e-05
1.46264e-05
6.96313e-05
8.93277e-05
0.000105319
0.000121948
0.000141006
0.000163075
0.000185498
0.000203742
0.000211606
0.000212799
0.000204476
0.000186422
0.000165155
0.000143461
0.000123855
0.000106114
8.95746e-05
6.96107e-05
1.46008e-05
1.46141e-05
6.96112e-05
8.94315e-05
0.000105528
0.000122222
0.00014132
0.000164018
0.000187393
0.000203342
0.000211919
0.000211749
0.000204615
0.000187751
0.000166431
0.0001439
0.000124247
0.000106253
8.95094e-05
6.9555e-05
1.45913e-05
1.46052e-05
6.9577e-05
8.93563e-05
0.00010552
0.00012233
0.000140925
0.000162986
0.000186469
0.000205204
0.000213882
0.000212098
0.000203493
0.000186522
0.000166156
0.00014453
0.000124435
0.00010625
8.93846e-05
6.94794e-05
1.45742e-05
1.45861e-05
6.95252e-05
8.92904e-05
0.000105601
0.000122697
0.000141598
0.000163326
0.000185378
0.000203706
0.00021211
0.000212349
0.000205208
0.000187055
0.000166017
0.000144623
0.000124557
0.000106108
8.92786e-05
6.94639e-05
1.45632e-05
1.45742e-05
6.94815e-05
8.92137e-05
0.000105513
0.000122796
0.000141741
0.000163493
0.000185499
0.00020322
0.000214062
0.00021318
0.000203809
0.000186965
0.000166728
0.000145314
0.000124817
0.000106176
8.91434e-05
6.93612e-05
1.45439e-05
1.45557e-05
6.94309e-05
8.91352e-05
0.000105468
0.000122867
0.000142196
0.000164267
0.000187702
0.000205573
0.000213614
0.000214428
0.000205992
0.000187336
0.000167043
0.000145492
0.000124737
0.000105952
8.90327e-05
6.93239e-05
1.45222e-05
1.45398e-05
6.9369e-05
8.90655e-05
0.000105467
0.000122983
0.000142542
0.000164749
0.000187649
0.000205578
0.000214144
0.000216926
0.000205466
0.000187824
0.000167502
0.000145707
0.000124751
0.000106114
8.88444e-05
6.92095e-05
1.44998e-05
1.45265e-05
6.93118e-05
8.89622e-05
0.000105379
0.000122995
0.000142902
0.000165224
0.000187436
0.000206007
0.000214634
0.000216007
0.000207024
0.000188455
0.000167604
0.000145666
0.000124574
0.000105865
8.88324e-05
6.91414e-05
1.44786e-05
1.45145e-05
6.92716e-05
8.89183e-05
0.000105371
0.000123125
0.000143383
0.000165811
0.000188066
0.000205848
0.000215976
0.000214625
0.000205465
0.000189508
0.000167844
0.000145409
0.000124395
0.000105685
8.87346e-05
6.90523e-05
1.44542e-05
1.45016e-05
6.92304e-05
8.88705e-05
0.000105384
0.000123267
0.000144041
0.000166736
0.000189138
0.00020812
0.000217411
0.000215583
0.000206271
0.000188862
0.000167612
0.000145016
0.000124257
0.000105498
8.8572e-05
6.89508e-05
1.44329e-05
1.44878e-05
6.91954e-05
8.8852e-05
0.000105439
0.000123524
0.000144213
0.00016822
0.000190872
0.000207384
0.000217865
0.00021693
0.000208568
0.000189789
0.000167144
0.00014458
0.000124159
0.000105404
8.84959e-05
6.89212e-05
1.44225e-05
1.44755e-05
6.91599e-05
8.88088e-05
0.000105537
0.000123979
0.000144896
0.000168553
0.000190647
0.000209553
0.000219166
0.000217607
0.000207472
0.000189705
0.000167857
0.00014493
0.000124232
0.000105375
8.8424e-05
6.88416e-05
1.44022e-05
1.44603e-05
6.91265e-05
8.87975e-05
0.000105669
0.000124259
0.000145507
0.000169012
0.000192674
0.000210802
0.00022073
0.00022089
0.000210512
0.00019098
0.000169414
0.000145476
0.000124254
0.00010532
8.83419e-05
6.88127e-05
1.439e-05
1.44448e-05
6.90823e-05
8.87251e-05
0.00010573
0.000124644
0.000146283
0.000170611
0.000193889
0.000211534
0.000221267
0.000221713
0.000211386
0.000192046
0.000169135
0.000146171
0.00012434
0.000105308
8.82282e-05
6.87351e-05
1.43671e-05
1.44272e-05
6.90414e-05
8.86639e-05
0.000105745
0.000124835
0.000147302
0.000171762
0.00019583
0.000213287
0.000223026
0.000223579
0.000212662
0.000194611
0.000170823
0.00014617
0.000124432
0.000105273
8.81466e-05
6.86896e-05
1.43546e-05
1.44091e-05
6.89861e-05
8.86133e-05
0.000105841
0.000125187
0.000147945
0.00017297
0.000197565
0.000217026
0.000227362
0.00022616
0.000214554
0.000195941
0.000171619
0.000146366
0.000124651
0.000105336
8.80862e-05
6.86375e-05
1.43389e-05
1.43927e-05
6.89308e-05
8.85444e-05
0.000105867
0.000125435
0.000148547
0.000174298
0.000199166
0.000218555
0.000229088
0.000229296
0.000218282
0.000198427
0.00017286
0.000147099
0.000124996
0.000105421
8.80468e-05
6.85865e-05
1.43245e-05
1.43773e-05
6.88946e-05
8.85186e-05
0.000105979
0.000125788
0.000149087
0.000175695
0.000201454
0.000221084
0.000231825
0.000231691
0.00022068
0.000200013
0.000173817
0.000147843
0.000125269
0.000105491
8.80032e-05
6.85373e-05
1.43123e-05
1.43565e-05
6.88398e-05
8.84643e-05
0.000106059
0.000126128
0.000149622
0.000177069
0.000203175
0.000223472
0.000234658
0.000234346
0.000222721
0.000201826
0.000174932
0.000148658
0.000125585
0.000105542
8.79629e-05
6.85073e-05
1.42993e-05
1.4334e-05
6.8773e-05
8.83952e-05
0.00010613
0.000126508
0.000150596
0.000178286
0.000205196
0.000225956
0.000236869
0.000236466
0.000224759
0.000203413
0.000176254
0.000149795
0.000125844
0.000105574
8.79049e-05
6.84878e-05
1.42842e-05
1.43123e-05
6.8703e-05
8.83047e-05
0.000106158
0.000126764
0.000151058
0.000178905
0.000206802
0.000228035
0.000239286
0.000238766
0.000226824
0.000205411
0.000178154
0.000150331
0.000126123
0.000105597
8.78455e-05
6.84378e-05
1.42597e-05
1.42901e-05
6.86397e-05
8.82227e-05
0.000106212
0.000127157
0.000152161
0.000180934
0.000208603
0.00022987
0.000241175
0.000240784
0.000228899
0.000207223
0.000179723
0.000151002
0.00012643
0.000105606
8.77383e-05
6.83583e-05
1.42325e-05
1.42688e-05
6.85645e-05
8.81101e-05
0.000106203
0.000127383
0.000152562
0.000182233
0.000210366
0.000231908
0.000243319
0.000242889
0.000230826
0.000208968
0.000181063
0.000151897
0.000126765
0.000105597
8.76406e-05
6.82821e-05
1.42069e-05
1.42501e-05
6.84974e-05
8.80087e-05
0.00010621
0.000127726
0.000153443
0.000183596
0.000212034
0.000233808
0.0002454
0.000245077
0.000232922
0.00021083
0.000182562
0.000153095
0.000127061
0.000105572
8.74942e-05
6.8188e-05
1.41799e-05
1.42301e-05
6.84299e-05
8.79157e-05
0.000106224
0.000128026
0.000154375
0.000184882
0.000213656
0.000235654
0.000247367
0.000247052
0.000234779
0.000212446
0.00018378
0.00015349
0.000127304
0.000105552
8.73866e-05
6.80997e-05
1.41559e-05
1.42108e-05
6.83697e-05
8.78235e-05
0.000106237
0.000128312
0.000154726
0.000186042
0.000215323
0.000237623
0.000249481
0.000249212
0.000236878
0.000214296
0.000185117
0.000153993
0.00012758
0.000105535
8.72605e-05
6.80171e-05
1.4135e-05
1.41852e-05
6.8303e-05
8.77271e-05
0.000106275
0.000128709
0.00015555
0.000186851
0.000216816
0.000239412
0.000251409
0.000251189
0.000238789
0.000216019
0.000186485
0.00015492
0.000127971
0.000105586
8.71745e-05
6.79563e-05
1.41145e-05
1.41592e-05
6.82375e-05
8.76294e-05
0.000106308
0.000129032
0.000156599
0.000186899
0.000218125
0.000241126
0.000253298
0.000253133
0.000240696
0.000217745
0.000187826
0.000156063
0.000128363
0.00010566
8.70991e-05
6.78969e-05
1.4094e-05
1.41285e-05
6.81532e-05
8.75077e-05
0.000106326
0.000129293
0.000156656
0.000187403
0.000219254
0.00024269
0.000255136
0.000255092
0.000242628
0.000219499
0.000189202
0.000156655
0.000128834
0.000105785
8.70392e-05
6.78414e-05
1.4077e-05
1.41e-05
6.80704e-05
8.74041e-05
0.000106367
0.000129574
0.000156792
0.000188537
0.00022005
0.000243931
0.000256706
0.000256828
0.000244383
0.000221112
0.000190543
0.000157915
0.000129396
0.000105932
8.70054e-05
6.77935e-05
1.40591e-05
1.40719e-05
6.79806e-05
8.72788e-05
0.000106367
0.000129791
0.000156437
0.000186972
0.0002194
0.00024463
0.000257997
0.000258345
0.000245835
0.000222268
0.000191243
0.000158548
0.000129846
0.000106049
8.69547e-05
6.77491e-05
1.40417e-05
1.40441e-05
6.78951e-05
8.716e-05
0.000106358
0.000130025
0.000157214
0.000187286
0.000218038
0.000244407
0.000258574
0.000259218
0.000246605
0.000222585
0.000191249
0.000159862
0.000130333
0.00010617
8.69038e-05
6.77083e-05
1.40209e-05
1.40181e-05
6.78077e-05
8.70233e-05
0.000106309
0.000130139
0.000158451
0.000188023
0.000219566
0.00024306
0.000257919
0.000259039
0.000246136
0.000221635
0.000192511
0.000160303
0.000130673
0.000106235
8.6815e-05
6.76503e-05
1.39971e-05
1.39924e-05
6.77313e-05
8.68912e-05
0.00010625
0.000130162
0.000157945
0.00018761
0.000217189
0.000241892
0.000255329
0.000257013
0.00024399
0.000221373
0.000191476
0.000160347
0.000130969
0.000106296
8.6723e-05
6.75874e-05
1.39704e-05
1.39624e-05
6.76393e-05
8.67438e-05
0.00010618
0.000130277
0.000158163
0.000188705
0.000218153
0.000245373
0.000255114
0.000255559
0.000244204
0.000223522
0.000192569
0.00016032
0.000131268
0.000106334
8.66048e-05
6.75058e-05
1.39392e-05
1.39339e-05
6.75503e-05
8.65897e-05
0.000106081
0.00013033
0.000158573
0.000190954
0.000218827
0.00024239
0.000256476
0.000257916
0.000246169
0.000221671
0.00019418
0.000160196
0.000131504
0.000106318
8.64614e-05
6.74115e-05
1.39077e-05
1.39013e-05
6.74535e-05
8.64314e-05
0.000105994
0.000130374
0.000159947
0.000189885
0.000218737
0.000239074
0.000251579
0.000252896
0.000242341
0.000221609
0.000193616
0.000160895
0.000131794
0.000106322
8.63145e-05
6.7314e-05
1.38719e-05
1.38715e-05
6.73536e-05
8.6255e-05
0.00010589
0.000130151
0.000158625
0.00018868
0.000220196
0.000239971
0.000252317
0.000253539
0.000243133
0.000223645
0.000193997
0.000162059
0.000132012
0.00010627
8.61306e-05
6.7205e-05
1.38341e-05
1.38361e-05
6.72475e-05
8.60761e-05
0.000105837
0.00013024
0.000158636
0.000189117
0.000220598
0.000241096
0.000254622
0.000256063
0.000245297
0.000221614
0.000192384
0.000161367
0.000132176
0.000106241
8.59432e-05
6.7087e-05
1.37917e-05
1.37988e-05
6.71219e-05
8.58693e-05
0.00010578
0.000130404
0.000160773
0.000190194
0.000220604
0.000242813
0.000252385
0.000251776
0.000243088
0.000223991
0.000194004
0.000162736
0.000132654
0.000106197
8.57197e-05
6.69508e-05
1.3745e-05
1.37572e-05
6.70001e-05
8.566e-05
0.000105765
0.000130657
0.00016037
0.000191097
0.000219254
0.000242483
0.000255175
0.000252876
0.000245026
0.00022418
0.00019638
0.000162129
0.0001328
0.000106108
8.54786e-05
6.67966e-05
1.36919e-05
1.37031e-05
6.68414e-05
8.53823e-05
0.000105743
0.000131893
0.000163574
0.000193367
0.000222188
0.000242358
0.000254611
0.000253456
0.000243998
0.00022271
0.000195401
0.000162665
0.000133174
0.000105975
8.51882e-05
6.66215e-05
1.36319e-05
1.3642e-05
6.66574e-05
8.50586e-05
0.000105536
0.000132225
0.000163269
0.000195815
0.000221686
0.00024457
0.000254421
0.000254474
0.000243356
0.000222716
0.000195105
0.000164177
0.000133476
0.000105794
8.48651e-05
6.64261e-05
1.35646e-05
1.35665e-05
6.64245e-05
8.46682e-05
0.000105276
0.000132086
0.000163265
0.000195095
0.000223094
0.000245091
0.000257057
0.000257297
0.000245857
0.000226513
0.000196093
0.000167057
0.000133777
0.000105579
8.45018e-05
6.62106e-05
1.3489e-05
1.34842e-05
6.61686e-05
8.42331e-05
0.000105003
0.000132415
0.000164111
0.000196079
0.000228034
0.00025125
0.000261034
0.00026049
0.000248472
0.000226651
0.000197402
0.000167159
0.000133875
0.00010534
8.40984e-05
6.59644e-05
1.34028e-05
1.33886e-05
6.58769e-05
8.37499e-05
0.000104677
0.000132563
0.000164987
0.000198975
0.000229809
0.000253633
0.000267836
0.000267964
0.00025517
0.000229893
0.000199438
0.000168023
0.000134059
0.000105054
8.36528e-05
6.56939e-05
1.33111e-05
1.32855e-05
6.55735e-05
8.32622e-05
0.000104407
0.000132898
0.00016587
0.000201117
0.000233528
0.000257809
0.000271834
0.000271786
0.000259044
0.000235436
0.000202566
0.000169309
0.000134354
0.000104823
8.32193e-05
6.54226e-05
1.32141e-05
1.31699e-05
6.52495e-05
8.2777e-05
0.000104251
0.000133641
0.000167925
0.000206756
0.000240978
0.00026629
0.000279259
0.000278032
0.000264437
0.000239529
0.00020697
0.000170699
0.000134733
0.000104638
8.27826e-05
6.51392e-05
1.31076e-05
1.30462e-05
6.49182e-05
8.2323e-05
0.000104237
0.00013471
0.000171703
0.000211638
0.000245967
0.000271224
0.00028503
0.000285285
0.000271226
0.000244072
0.000210199
0.000172269
0.000135357
0.000104578
8.23814e-05
6.48569e-05
1.29953e-05
1.29098e-05
6.45894e-05
8.19314e-05
0.000104431
0.000135972
0.000174323
0.000216364
0.000253034
0.000279491
0.000292611
0.000291926
0.000277475
0.000250452
0.000214626
0.000174805
0.000136486
0.000104737
8.20468e-05
6.45876e-05
1.28744e-05
1.27637e-05
6.42671e-05
8.16027e-05
0.000104883
0.000137753
0.000178248
0.000221755
0.000259029
0.00028592
0.000299543
0.000299368
0.000284641
0.000256623
0.000219703
0.000177678
0.000137839
0.000105059
8.17745e-05
6.43392e-05
1.27445e-05
1.26058e-05
6.39752e-05
8.138e-05
0.000105652
0.000140037
0.0001838
0.000228074
0.000266272
0.000293646
0.000307579
0.000307211
0.000292518
0.000264532
0.000225448
0.000181351
0.000139798
0.000105735
8.16156e-05
6.41133e-05
1.26033e-05
1.24344e-05
6.36926e-05
8.12326e-05
0.000106673
0.000142686
0.000188676
0.000234797
0.000274047
0.000302121
0.000316481
0.000316099
0.000300891
0.00027227
0.000233031
0.000187377
0.000142529
0.000106784
8.15659e-05
6.39092e-05
1.24519e-05
1.22574e-05
6.34549e-05
8.12323e-05
0.000108116
0.000146588
0.000194587
0.00024199
0.000282444
0.000311404
0.000326293
0.000325931
0.000310323
0.000280791
0.00024009
0.000192898
0.000145761
0.000108149
8.16409e-05
6.37483e-05
1.22918e-05
1.20713e-05
6.32437e-05
8.13495e-05
0.000109789
0.000150988
0.000201076
0.000250181
0.000291707
0.000321328
0.000336552
0.00033628
0.000320511
0.000290456
0.000248775
0.000199893
0.000150147
0.000109986
8.18642e-05
6.36217e-05
1.21214e-05
1.18924e-05
6.31085e-05
8.1669e-05
0.000111816
0.000156096
0.000208046
0.000258737
0.000301532
0.00033208
0.000347828
0.000347593
0.000331414
0.000300514
0.000257555
0.000206828
0.000154972
0.000112024
8.22285e-05
6.35532e-05
1.19521e-05
1.1723e-05
6.30739e-05
8.22189e-05
0.000114208
0.000160751
0.000215257
0.000267832
0.000311927
0.000343297
0.000359465
0.000359276
0.000342754
0.000311148
0.000266997
0.000214644
0.000160324
0.000114645
8.28319e-05
6.35446e-05
1.17828e-05
1.15719e-05
6.31744e-05
8.30792e-05
0.000117178
0.000166219
0.000223238
0.000277633
0.000323087
0.000355416
0.000372092
0.000371917
0.000354938
0.000322414
0.000276913
0.000222621
0.000166006
0.000117478
8.36209e-05
6.363e-05
1.16299e-05
1.14418e-05
6.34106e-05
8.42464e-05
0.00012072
0.000172891
0.000231974
0.000288154
0.000334958
0.000368184
0.000385314
0.00038515
0.000367716
0.000334283
0.000287447
0.000231474
0.000172754
0.00012099
8.47289e-05
6.38259e-05
1.14862e-05
1.13332e-05
6.37918e-05
8.57268e-05
0.000124773
0.000179869
0.00024112
0.000299107
0.000347343
0.00038159
0.000399261
0.000399114
0.000381187
0.000346781
0.000298525
0.00024067
0.000179668
0.000124876
8.60864e-05
6.41433e-05
1.13651e-05
1.12425e-05
6.42909e-05
8.74424e-05
0.000129143
0.000186858
0.000250498
0.000310451
0.000360196
0.000395482
0.000413684
0.000413533
0.000395062
0.000359603
0.000309832
0.00025001
0.000186588
0.000129103
8.76875e-05
6.4557e-05
1.12515e-05
1.11615e-05
6.48979e-05
8.93969e-05
0.000133928
0.000194241
0.000260223
0.000322154
0.000373474
0.000409879
0.000428666
0.000428524
0.000409488
0.000372937
0.000321619
0.000259845
0.00019407
0.000133637
8.95274e-05
6.50728e-05
1.11541e-05
1.10724e-05
6.55473e-05
9.14611e-05
0.000138334
0.000201674
0.000270121
0.000334088
0.000387021
0.000424566
0.000443948
0.000443807
0.000424172
0.000386461
0.000333492
0.000269635
0.000201428
0.000138471
9.15063e-05
6.56425e-05
1.10495e-05
1.09588e-05
6.62094e-05
9.36666e-05
0.000143371
0.000209454
0.000280245
0.000346204
0.000400764
0.000439485
0.000459494
0.000459367
0.000439132
0.000400264
0.00034567
0.000279792
0.000209133
0.000143123
9.3616e-05
6.62532e-05
1.0943e-05
1.08187e-05
6.68327e-05
9.58987e-05
0.000148309
0.0002172
0.000290371
0.000358349
0.000414554
0.000454463
0.000475106
0.000474993
0.000454147
0.000414095
0.000357843
0.000289929
0.000216898
0.000148119
9.58108e-05
6.6827e-05
1.08122e-05
1.06789e-05
6.73883e-05
9.81998e-05
0.000153452
0.000225148
0.000300628
0.000370561
0.000428375
0.000469461
0.000490738
0.000490648
0.000469208
0.000428003
0.000370141
0.00030024
0.000224848
0.000153236
9.80654e-05
6.73379e-05
1.067e-05
1.05251e-05
6.78019e-05
0.000100518
0.000158808
0.000233228
0.000310972
0.000382832
0.000442239
0.000484486
0.00050639
0.000506322
0.000484293
0.000441948
0.000382495
0.000310652
0.000232977
0.000158628
0.000100404
6.77475e-05
1.05105e-05
1.03536e-05
6.80783e-05
0.000102903
0.000164359
0.000241497
0.000321507
0.000395284
0.00045629
0.000499712
0.000522248
0.000522202
0.000499579
0.000456088
0.000395045
0.000321274
0.000241302
0.000164219
0.000102796
6.80207e-05
1.03515e-05
1.02008e-05
6.82111e-05
0.000105402
0.000170169
0.000250011
0.000332302
0.000408035
0.000470685
0.000515312
0.000538491
0.00053846
0.00051522
0.000470545
0.000407867
0.000332137
0.000249877
0.000170075
0.000105336
6.81687e-05
1.02044e-05
1.01006e-05
6.82195e-05
0.000108118
0.000176343
0.000258907
0.00034348
0.000421234
0.000485586
0.000531452
0.00055529
0.000555271
0.000531396
0.000485497
0.000421124
0.000343366
0.000258806
0.000176268
0.000108071
6.81857e-05
1.00928e-05
1.00387e-05
6.80968e-05
0.000111104
0.000182883
0.000268211
0.000355176
0.000435066
0.000501197
0.00054834
0.000572845
0.000572832
0.000548301
0.000501135
0.000434985
0.000355087
0.000268128
0.000182823
0.000111079
6.80878e-05
1.00378e-05
1.00305e-05
6.78995e-05
0.000114582
0.000189883
0.000278042
0.000367533
0.000449691
0.000517678
0.000566121
0.000591292
0.000591284
0.000566096
0.000517637
0.000449636
0.000367472
0.000277983
0.000189839
0.00011456
6.78996e-05
1.00305e-05
1.01268e-05
6.76357e-05
0.000118676
0.000197319
0.000288523
0.000380737
0.000465308
0.000535202
0.000584931
0.000610741
0.000610735
0.000584912
0.00053517
0.000465262
0.000380682
0.00028847
0.000197283
0.000118667
6.76414e-05
1.01268e-05
1.03174e-05
6.74448e-05
0.000122897
0.00020525
0.000299759
0.000394982
0.000482114
0.00055392
0.000604863
0.00063125
0.000631246
0.000604851
0.000553898
0.000482081
0.000394943
0.000299721
0.000205229
0.000122896
6.74586e-05
1.03181e-05
1.06409e-05
6.74223e-05
0.000127707
0.000213958
0.000312067
0.00041057
0.000500349
0.000573983
0.000625983
0.000652828
0.000652825
0.000625975
0.000573968
0.000500327
0.000410543
0.000312042
0.000213943
0.000127699
6.74242e-05
1.06404e-05
1.1094e-05
6.77277e-05
0.000132775
0.000223506
0.000325713
0.000427801
0.000520258
0.000595525
0.000648308
0.000675424
0.000675422
0.000648301
0.000595512
0.00052024
0.00042778
0.000325698
0.000223506
0.000132784
6.77335e-05
1.10935e-05
1.1708e-05
6.85694e-05
0.000138825
0.000234505
0.000341179
0.000447091
0.000542134
0.000618671
0.000671803
0.000698906
0.000698904
0.000671799
0.00061866
0.000542117
0.000447068
0.000341153
0.000234483
0.000138814
6.85643e-05
1.17075e-05
1.24697e-05
6.98733e-05
0.000145778
0.000246836
0.000358763
0.000468848
0.000566276
0.000643503
0.000696343
0.000723023
0.000723022
0.00069634
0.000643496
0.000566264
0.000468832
0.000358749
0.000246831
0.000145784
6.98829e-05
1.24687e-05
1.34136e-05
7.10973e-05
0.00015403
0.00026145
0.000379375
0.000493794
0.000593087
0.000670067
0.000721675
0.000747364
0.000747364
0.000721674
0.000670062
0.000593075
0.000493773
0.000379345
0.000261418
0.00015401
7.10995e-05
1.34132e-05
1.45521e-05
7.4524e-05
0.000164444
0.000279038
0.000403845
0.000522643
0.0006229
0.000698248
0.000747344
0.000771295
0.000771295
0.000747345
0.000698247
0.000622896
0.000522636
0.000403837
0.000279036
0.00016445
7.45267e-05
1.45509e-05
1.58304e-05
7.892e-05
0.000177301
0.000300779
0.000433587
0.000556401
0.000656042
0.000727749
0.000772649
0.000793941
0.000793941
0.000772649
0.000727747
0.000656035
0.000556388
0.00043357
0.000300764
0.000177295
7.89231e-05
1.58302e-05
1.72911e-05
8.61818e-05
0.000194254
0.000328606
0.000470462
0.00059617
0.000692573
0.000757887
0.000796565
0.000814183
0.000814184
0.000796566
0.000757887
0.000692568
0.000596159
0.000470452
0.000328601
0.000194257
8.61831e-05
1.72895e-05
1.88373e-05
9.63527e-05
0.000216873
0.000365142
0.000516314
0.0006426
0.000731962
0.000787423
0.000817775
0.000830777
0.000830777
0.000817775
0.00078742
0.00073195
0.000642585
0.000516302
0.000365128
0.000216864
9.63438e-05
1.88372e-05
2.04819e-05
0.000111812
0.000248026
0.00041405
0.000575202
0.000696808
0.000772991
0.000814401
0.00083386
0.000840917
0.000840912
0.000833853
0.000814393
0.000772967
0.000696792
0.000575194
0.000414038
0.000248007
0.000111801
2.0481e-05
2.21041e-05
0.00013299
0.000294103
0.000488866
0.000654051
0.00075856
0.000812407
0.000835467
0.0008441
0.000847368
0.000847365
0.000844091
0.000835459
0.000812418
0.000758579
0.000654064
0.000488867
0.000294103
0.000132986
2.21037e-05
2.37699e-05
0.000166037
0.000385818
0.000608538
0.000750883
0.000813844
0.00083752
0.000845785
0.000849704
0.000851131
0.000851136
0.000849727
0.000845848
0.000837628
0.000813902
0.000750866
0.000608503
0.00038578
0.00016601
2.37704e-05
2.56191e-05
0.000278654
0.000620881
0.000792443
0.000838051
0.000848212
0.000850223
0.00085168
0.000851983
0.00085197
0.00085197
0.000851985
0.000851692
0.00085025
0.000848266
0.000838126
0.000792482
0.000620905
0.000278667
2.5619e-05
4.33492e-05
0.000111982
0.000129516
0.000135899
0.000141061
0.000154004
0.000177758
0.000208019
0.000235403
0.000251667
0.000251225
0.00023513
0.000207415
0.000178159
0.000156319
0.000143764
0.000137455
0.000129726
0.000111837
4.32742e-05
4.3377e-05
0.000111757
0.00012891
0.000134957
0.000141083
0.000154654
0.000177858
0.000209358
0.000236872
0.000253162
0.0002525
0.000236923
0.000210259
0.000179805
0.000156894
0.000141928
0.000135865
0.000128613
0.000111602
4.3314e-05
4.32473e-05
0.000111625
0.000128954
0.000134995
0.000140706
0.000154294
0.000178286
0.000209644
0.000238342
0.000254808
0.000253435
0.000237112
0.000210164
0.000179971
0.000157269
0.000143069
0.000136942
0.000130129
0.000111954
4.30284e-05
4.29129e-05
0.00011119
0.000127961
0.000134734
0.000141074
0.000154843
0.00018048
0.000212307
0.000240641
0.000257086
0.000256373
0.000240147
0.000211368
0.000180641
0.000157045
0.000142704
0.000137488
0.000129107
0.000111637
4.3192e-05
4.28243e-05
0.000111235
0.000128071
0.000136111
0.000142744
0.000155756
0.000180784
0.000211975
0.000239076
0.000255467
0.00025474
0.000239797
0.000212253
0.00018244
0.000158494
0.000141687
0.00013599
0.000128785
0.000111349
4.28899e-05
4.28e-05
0.000110699
0.000128374
0.000137253
0.000144587
0.000156619
0.00018172
0.00021252
0.000239935
0.000254886
0.000256524
0.000240377
0.000213086
0.000182455
0.000157588
0.000140951
0.000134377
0.000128448
0.00011124
4.31544e-05
4.25346e-05
0.000110565
0.000127827
0.000136147
0.000144667
0.000157645
0.000182115
0.000212242
0.000237971
0.000254175
0.000254731
0.000239249
0.000214103
0.000182187
0.000157566
0.000142455
0.000134297
0.000128344
0.000110975
4.29113e-05
4.23889e-05
0.000110219
0.000127673
0.000137574
0.000144542
0.000158233
0.000183018
0.000212875
0.000238884
0.000257138
0.000255347
0.000240392
0.00021498
0.000183219
0.00015564
0.000140216
0.000132634
0.000127121
0.000110616
4.25536e-05
4.22695e-05
0.000110024
0.00012687
0.000136205
0.000144085
0.000158098
0.000182111
0.00021497
0.000240864
0.000255573
0.00025653
0.000241519
0.000215659
0.000183441
0.00015704
0.000140007
0.000133388
0.000127919
0.00011044
4.26227e-05
4.20998e-05
0.0001094
0.00012663
0.0001355
0.000142057
0.000157443
0.000182449
0.000215377
0.00024157
0.000256488
0.000256848
0.00024286
0.000216816
0.000184992
0.000156545
0.00013958
0.000131742
0.000126441
0.000110007
4.24505e-05
4.19941e-05
0.000109267
0.000126018
0.000135083
0.000142713
0.000156307
0.000183726
0.000216415
0.000243438
0.000259577
0.000258665
0.000243564
0.000217228
0.000185217
0.000156845
0.000139278
0.000131112
0.000125913
0.000110031
4.24213e-05
4.18118e-05
0.000108809
0.000125753
0.000134447
0.00014181
0.000156548
0.000184771
0.000216997
0.000243204
0.000259313
0.000259512
0.00024468
0.000218359
0.000185992
0.000158095
0.000140655
0.000130797
0.000126264
0.000109926
4.2349e-05
4.16578e-05
0.000108392
0.000125154
0.000133686
0.000142003
0.00015838
0.000185613
0.000217963
0.000244381
0.000261332
0.000261271
0.000246243
0.000219161
0.000186624
0.000158321
0.00013976
0.000131456
0.000126007
0.000109733
4.22935e-05
4.15462e-05
0.000108277
0.000124586
0.000133068
0.000142118
0.000159265
0.000186201
0.000218499
0.000245795
0.000261434
0.000260388
0.000246515
0.000219969
0.000187654
0.000159634
0.000139873
0.000130811
0.000125243
0.000109158
4.21782e-05
4.13812e-05
0.000107868
0.000124299
0.000132698
0.000141606
0.000159043
0.000186697
0.000219242
0.000247248
0.000261022
0.00026068
0.000247865
0.000220453
0.000187925
0.000159627
0.000140258
0.000130274
0.000124939
0.000109011
4.20939e-05
4.12423e-05
0.000107565
0.000123664
0.000132011
0.000141779
0.000159307
0.000187498
0.000220296
0.000247322
0.000260649
0.000260855
0.000247409
0.000221046
0.000188724
0.000160062
0.000140114
0.000130673
0.000124102
0.000108793
4.19534e-05
4.10943e-05
0.000107297
0.000123237
0.000131529
0.000140975
0.00015965
0.000188498
0.00022039
0.000246833
0.000260264
0.000260726
0.000247157
0.000221945
0.00018918
0.00016002
0.000140302
0.000130243
0.000123782
0.000108381
4.18514e-05
4.09434e-05
0.000107103
0.000122858
0.00013133
0.000140775
0.000159726
0.000188885
0.000221071
0.00024681
0.000260952
0.000261962
0.000247718
0.000222661
0.000189513
0.00016015
0.000140197
0.000130648
0.000123884
0.00010806
4.17502e-05
4.07563e-05
0.000106615
0.000122267
0.000130885
0.000140805
0.000160101
0.000189781
0.00022176
0.000248018
0.000263102
0.000264086
0.000248761
0.000223403
0.000190082
0.000160469
0.000140385
0.000130032
0.000123378
0.000107787
4.16009e-05
4.06421e-05
0.000106281
0.000121537
0.000130248
0.000140948
0.000160658
0.000190643
0.00022284
0.000249491
0.000265621
0.000264653
0.000249789
0.000224031
0.000190511
0.000160635
0.000140298
0.000129872
0.000122958
0.000107304
4.14721e-05
4.06995e-05
0.000106017
0.000120687
0.000129116
0.000140217
0.000160935
0.000191619
0.000224602
0.000251032
0.000265863
0.00026572
0.00025096
0.000224685
0.000191181
0.000160888
0.000140212
0.000129306
0.000122344
0.00010694
4.12821e-05
4.09552e-05
0.000106144
0.000119675
0.000128352
0.000139847
0.000161214
0.000192378
0.000225076
0.000253251
0.000267193
0.00026715
0.000252366
0.000225525
0.000192218
0.000161388
0.000139965
0.000128818
0.000121788
0.000106832
4.11426e-05
4.09036e-05
0.000106429
0.000119544
0.000127522
0.000139633
0.000162056
0.000193555
0.000225506
0.000253361
0.000268982
0.000268971
0.000252788
0.000226183
0.000193087
0.000162067
0.000139897
0.000128377
0.000121117
0.000106252
4.10101e-05
4.06933e-05
0.000106442
0.000120689
0.000127316
0.000139812