/*--------------------------------*- C++ -*----------------------------------*\
  =========                 |
  \\      /  F ield         | OpenFOAM: The Open Source CFD Toolbox
   \\    /   O peration     | Website:  https://openfoam.org
    \\  /    A nd           | Version:  6
     \\/     M anipulation  |
\*---------------------------------------------------------------------------*/
FoamFile
{
    version     2.0;
    format      ascii;
    class       volScalarField;
    location    "30";
    object      p;
}
// * * * * * * * * * * * * * * * * * * * * * * * * * * * * * * * * * * * * * //

dimensions      [0 2 -2 0 0 0 0];

internalField   nonuniform List<scalar> 
130000
(
0.00467662
0.00384629
0.00328759
0.00284575
0.00244872
0.00208979
0.00176509
0.00146926
0.00119802
0.00094762
0.000715171
0.000498349
0.000294503
0.000101509
-8.16897e-05
-0.000257854
-0.000427219
-0.000593301
-0.000759492
-0.000917678
0.00138036
0.000949764
0.000453679
4.51061e-05
-0.000332717
-0.00069043
-0.00103448
-0.00136503
-0.0016853
-0.00199722
-0.00230171
-0.00260145
-0.0028954
-0.00318585
-0.00347285
-0.00375705
-0.00403802
-0.00432021
-0.0046071
-0.00489733
-0.000379409
-0.00107522
-0.00174721
-0.00231356
-0.00284053
-0.00334021
-0.00382284
-0.00428879
-0.00474242
-0.0051857
-0.00561918
-0.00604577
-0.00646376
-0.0068778
-0.00728233
-0.00768483
-0.00807799
-0.00847125
-0.0088615
-0.00925362
-0.00322237
-0.00381109
-0.00444464
-0.00502146
-0.00558814
-0.00615063
-0.00671078
-0.00726724
-0.00781896
-0.00836712
-0.0089078
-0.00944519
-0.0099732
-0.0104974
-0.0110125
-0.0115239
-0.0120254
-0.0125262
-0.0130201
-0.0135124
-0.00635832
-0.00689615
-0.00750524
-0.00808748
-0.00867879
-0.00928365
-0.00989734
-0.0105195
-0.0111433
-0.0117711
-0.0123941
-0.0130182
-0.0136342
-0.0142514
-0.0148573
-0.015465
-0.0160601
-0.0166574
-0.0172445
-0.017834
-0.00989696
-0.0103842
-0.0109539
-0.0115215
-0.0121148
-0.0127382
-0.0133804
-0.0140431
-0.0147142
-0.0153988
-0.0160833
-0.0167767
-0.0174643
-0.0181575
-0.0188424
-0.0195309
-0.0202079
-0.0208886
-0.0215579
-0.0222307
-0.0138084
-0.014211
-0.0147277
-0.0152658
-0.0158452
-0.0164685
-0.0171202
-0.0178047
-0.0185056
-0.0192309
-0.0199622
-0.0207106
-0.0214574
-0.0222176
-0.0229695
-0.0237321
-0.0244819
-0.02524
-0.0259846
-0.0267385
-0.0178726
-0.0182353
-0.0187167
-0.0192311
-0.0197951
-0.0204146
-0.0210693
-0.0217678
-0.0224895
-0.0232453
-0.0240122
-0.0248048
-0.025599
-0.026412
-0.0272209
-0.0280435
-0.0288559
-0.0296797
-0.0304904
-0.0313129
-0.0221191
-0.0224652
-0.0229235
-0.0234172
-0.023967
-0.0245812
-0.0252355
-0.0259419
-0.0266769
-0.0274545
-0.028248
-0.0290747
-0.0299074
-0.0307669
-0.0316233
-0.0325015
-0.0333698
-0.034255
-0.0351266
-0.0360173
-0.0265969
-0.0268995
-0.0273223
-0.0277899
-0.0283196
-0.028923
-0.0295707
-0.0302784
-0.0310197
-0.0318116
-0.0326241
-0.0334777
-0.0343409
-0.0352366
-0.036134
-0.0370569
-0.0379733
-0.0389105
-0.0398356
-0.0407832
-0.0311493
-0.0314485
-0.0318542
-0.0323044
-0.0328196
-0.0334143
-0.0340557
-0.0347636
-0.0355089
-0.0363121
-0.0371402
-0.0380161
-0.0389058
-0.0398355
-0.0407684
-0.0417348
-0.0426955
-0.0436827
-0.0446584
-0.0456642
-0.0358307
-0.0360916
-0.036471
-0.0369026
-0.0374042
-0.0379921
-0.0386291
-0.0393382
-0.0400881
-0.0409021
-0.0417443
-0.0426408
-0.0435538
-0.0445117
-0.0454771
-0.0464793
-0.0474793
-0.0485096
-0.0495302
-0.0505846
-0.0404926
-0.0407686
-0.0411448
-0.0415702
-0.0420658
-0.0426522
-0.0432884
-0.0440011
-0.044757
-0.0455823
-0.0464388
-0.0473544
-0.0482899
-0.0492764
-0.0502714
-0.0513102
-0.0523476
-0.0534205
-0.0544844
-0.0555895
-0.0453081
-0.0455552
-0.0459065
-0.0463124
-0.0467933
-0.0473707
-0.0480018
-0.0487151
-0.0494752
-0.05031
-0.051179
-0.0521126
-0.0530681
-0.0540785
-0.0551012
-0.0561704
-0.0572412
-0.058351
-0.0594536
-0.0606009
-0.050204
-0.0504088
-0.0507283
-0.0511119
-0.0515766
-0.0521432
-0.0527679
-0.053481
-0.0542447
-0.0550883
-0.0559693
-0.056919
-0.0578939
-0.0589289
-0.0599771
-0.0610778
-0.062181
-0.0633276
-0.0644681
-0.0656598
-0.0550639
-0.0552445
-0.0555404
-0.0559067
-0.0563601
-0.0569191
-0.0575393
-0.0582529
-0.0590208
-0.059873
-0.0607653
-0.0617306
-0.0627232
-0.0637787
-0.0648512
-0.065978
-0.0671106
-0.0682891
-0.0694637
-0.0706922
-0.0599231
-0.0600692
-0.0603452
-0.0606985
-0.0611464
-0.0617025
-0.0623213
-0.0630366
-0.0638095
-0.0646699
-0.0655735
-0.066553
-0.067563
-0.0686399
-0.069735
-0.0708893
-0.0720508
-0.0732616
-0.0744702
-0.0757383
-0.0646855
-0.0648477
-0.0651211
-0.0654677
-0.0659121
-0.0664666
-0.0670841
-0.0677995
-0.0685758
-0.0694429
-0.0703561
-0.0713486
-0.0723739
-0.0734683
-0.0745851
-0.0757623
-0.0769502
-0.0781895
-0.0794292
-0.0807305
-0.0695706
-0.0696907
-0.0699342
-0.0702582
-0.0706872
-0.0712318
-0.0718429
-0.0725542
-0.0733303
-0.0742008
-0.0751217
-0.0761244
-0.0771642
-0.0782766
-0.0794136
-0.0806152
-0.0818298
-0.0830985
-0.0843702
-0.085708
-0.0743885
-0.0744823
-0.0746994
-0.0750011
-0.0754135
-0.0759464
-0.0765505
-0.0772573
-0.0780321
-0.0789046
-0.0798315
-0.0808438
-0.0818966
-0.0830241
-0.084181
-0.0854037
-0.0866436
-0.0879394
-0.0892415
-0.0906118
-0.0791536
-0.0792087
-0.0794003
-0.0796823
-0.0800816
-0.0806046
-0.0812035
-0.0819077
-0.082683
-0.0835575
-0.0844908
-0.0855117
-0.086578
-0.087722
-0.0888988
-0.0901449
-0.0914115
-0.0927362
-0.0940709
-0.0954775
-0.0837587
-0.0838204
-0.0840037
-0.0842731
-0.0846628
-0.0851774
-0.0857713
-0.0864734
-0.0872504
-0.088128
-0.089068
-0.0900983
-0.091178
-0.0923372
-0.0935346
-0.0948025
-0.0960958
-0.0974489
-0.098816
-0.100257
-0.0884117
-0.0884264
-0.0885759
-0.0888176
-0.0891878
-0.0896869
-0.090271
-0.0909673
-0.0917447
-0.0926252
-0.0935727
-0.0946118
-0.095706
-0.0968823
-0.0981012
-0.0993937
-0.100716
-0.1021
-0.103503
-0.104983
-0.0929577
-0.0929364
-0.0930535
-0.0932665
-0.0936159
-0.0940981
-0.0946711
-0.0953602
-0.0961376
-0.0970216
-0.0979778
-0.0990281
-0.100138
-0.101331
-0.102574
-0.103891
-0.105244
-0.10666
-0.108099
-0.109617
-0.0973889
-0.0973257
-0.0974137
-0.097603
-0.0979366
-0.0984059
-0.0989711
-0.099655
-0.100433
-0.101322
-0.10229
-0.103353
-0.104481
-0.105696
-0.106964
-0.108309
-0.109696
-0.111147
-0.112626
-0.114188
-0.101634
-0.101569
-0.101643
-0.101815
-0.102135
-0.102594
-0.103152
-0.103832
-0.104612
-0.105507
-0.106485
-0.107564
-0.108713
-0.10995
-0.111247
-0.112622
-0.114044
-0.115532
-0.117053
-0.118659
-0.10586
-0.105749
-0.105788
-0.105932
-0.106233
-0.106677
-0.107226
-0.107901
-0.108682
-0.109582
-0.110573
-0.111667
-0.112839
-0.114102
-0.115429
-0.116839
-0.1183
-0.119829
-0.121396
-0.123053
-0.109946
-0.109803
-0.10981
-0.109925
-0.110202
-0.11063
-0.111168
-0.111838
-0.112619
-0.113525
-0.114527
-0.115639
-0.116832
-0.118122
-0.119482
-0.120928
-0.122429
-0.124001
-0.125617
-0.127325
-0.113906
-0.113722
-0.113693
-0.113779
-0.114035
-0.114447
-0.114975
-0.115641
-0.116423
-0.117335
-0.11835
-0.119478
-0.120695
-0.122014
-0.123407
-0.124892
-0.126437
-0.128057
-0.129726
-0.131494
-0.117713
-0.117491
-0.117424
-0.117479
-0.11771
-0.118105
-0.118621
-0.119281
-0.120064
-0.120982
-0.122008
-0.123154
-0.124394
-0.12574
-0.127169
-0.128693
-0.130283
-0.131954
-0.133677
-0.135505
-0.121381
-0.121106
-0.120996
-0.121016
-0.121221
-0.121596
-0.122099
-0.122753
-0.123535
-0.124459
-0.125497
-0.12666
-0.127923
-0.129301
-0.130764
-0.132331
-0.133969
-0.135693
-0.137475
-0.13937
-0.124865
-0.124542
-0.124385
-0.124365
-0.124538
-0.12489
-0.125375
-0.126019
-0.126798
-0.127727
-0.128774
-0.129955
-0.131241
-0.132647
-0.134146
-0.135754
-0.137439
-0.139217
-0.141058
-0.14302
-0.12817
-0.127784
-0.127573
-0.127509
-0.127646
-0.127972
-0.128437
-0.129069
-0.129842
-0.130774
-0.13183
-0.133028
-0.134336
-0.135772
-0.137307
-0.138959
-0.140694
-0.142529
-0.144432
-0.146468
-0.131233
-0.13079
-0.130523
-0.130411
-0.130507
-0.130802
-0.131242
-0.131859
-0.132624
-0.133555
-0.134617
-0.13583
-0.137159
-0.138624
-0.140194
-0.141888
-0.143673
-0.145564
-0.14753
-0.149638
-0.134069
-0.133553
-0.133223
-0.133057
-0.133109
-0.133369
-0.133781
-0.13438
-0.135132
-0.136061
-0.137128
-0.138353
-0.139702
-0.141197
-0.142801
-0.144542
-0.146378
-0.148329
-0.150361
-0.152549
-0.136623
-0.136038
-0.13564
-0.135415
-0.135415
-0.135634
-0.136013
-0.136587
-0.137324
-0.138246
-0.139314
-0.14055
-0.141916
-0.143437
-0.145077
-0.14686
-0.148746
-0.150757
-0.152855
-0.155119
-0.138916
-0.138242
-0.137766
-0.137474
-0.137417
-0.13759
-0.13793
-0.138477
-0.139193
-0.140105
-0.141171
-0.142414
-0.143796
-0.145344
-0.147017
-0.148845
-0.150783
-0.152857
-0.155024
-0.157373
-0.140882
-0.140124
-0.139567
-0.139201
-0.139079
-0.139199
-0.139493
-0.140005
-0.140695
-0.141593
-0.142651
-0.143899
-0.145293
-0.146863
-0.148567
-0.150437
-0.152426
-0.15456
-0.156796
-0.159227
-0.142551
-0.141688
-0.141037
-0.140589
-0.140395
-0.140456
-0.140698
-0.14117
-0.141828
-0.142705
-0.143751
-0.144999
-0.146402
-0.147993
-0.149727
-0.151639
-0.153679
-0.155877
-0.158185
-0.160705
-0.143868
-0.142902
-0.142151
-0.141611
-0.141335
-0.141326
-0.141507
-0.14193
-0.142548
-0.143397
-0.144425
-0.145667
-0.147073
-0.148679
-0.150439
-0.152389
-0.154478
-0.156736
-0.159115
-0.161721
-0.144863
-0.14377
-0.142905
-0.142263
-0.141896
-0.141807
-0.141918
-0.142283
-0.142853
-0.143667
-0.144669
-0.145898
-0.147301
-0.14892
-0.150701
-0.152689
-0.154825
-0.157146
-0.159596
-0.162296
-0.145477
-0.14426
-0.143273
-0.142517
-0.142046
-0.141866
-0.141895
-0.14219
-0.1427
-0.143468
-0.144434
-0.145641
-0.147034
-0.148655
-0.150453
-0.15247
-0.15465
-0.157028
-0.159549
-0.162337
-0.145748
-0.144381
-0.143258
-0.142375
-0.141788
-0.141504
-0.141437
-0.14165
-0.142088
-0.142797
-0.143716
-0.144891
-0.146263
-0.147881
-0.149687
-0.151732
-0.153951
-0.156388
-0.158979
-0.161862
-0.145634
-0.144117
-0.142844
-0.141819
-0.141097
-0.140691
-0.140511
-0.140624
-0.140973
-0.141608
-0.142465
-0.143593
-0.144933
-0.146534
-0.148339
-0.1504
-0.152652
-0.155139
-0.157797
-0.16077
-0.145182
-0.143483
-0.14204
-0.140853
-0.139979
-0.139431
-0.13912
-0.139113
-0.139354
-0.139896
-0.140672
-0.141738
-0.143029
-0.144602
-0.146395
-0.148465
-0.150743
-0.153278
-0.156001
-0.159069
-0.144342
-0.142459
-0.140831
-0.139461
-0.138411
-0.137698
-0.137229
-0.137078
-0.137186
-0.13761
-0.138284
-0.139265
-0.140489
-0.142014
-0.14378
-0.145844
-0.148137
-0.15071
-0.153492
-0.156648
-0.143183
-0.141078
-0.139239
-0.137661
-0.136408
-0.135501
-0.134845
-0.134519
-0.134464
-0.134742
-0.135286
-0.136157
-0.137291
-0.13875
-0.14047
-0.142516
-0.144814
-0.147419
-0.150256
-0.153504
-0.141666
-0.139335
-0.137262
-0.135444
-0.133954
-0.132814
-0.131934
-0.131394
-0.13114
-0.131235
-0.131614
-0.132343
-0.133357
-0.134722
-0.136374
-0.138381
-0.140668
-0.143292
-0.146176
-0.149509
-0.139887
-0.137281
-0.134936
-0.132838
-0.131068
-0.129652
-0.1285
-0.1277
-0.1272
-0.127067
-0.127241
-0.127788
-0.128648
-0.129891
-0.131451
-0.1334
-0.135661
-0.138295
-0.141221
-0.144642
-0.137794
-0.134905
-0.132256
-0.129834
-0.127732
-0.125982
-0.1245
-0.123381
-0.122578
-0.122163
-0.122079
-0.1224
-0.123064
-0.124145
-0.125582
-0.127446
-0.129662
-0.13229
-0.135248
-0.138749
-0.135513
-0.13228
-0.129272
-0.126464
-0.123963
-0.121809
-0.119926
-0.118416
-0.117241
-0.116479
-0.116078
-0.116115
-0.116536
-0.117419
-0.118698
-0.120454
-0.122604
-0.125216
-0.128201
-0.131789
-0.132995
-0.129399
-0.125979
-0.122712
-0.119731
-0.117085
-0.114714
-0.112728
-0.111099
-0.109914
-0.109126
-0.108819
-0.108943
-0.109576
-0.110661
-0.112274
-0.114338
-0.116916
-0.119918
-0.123586
-0.130383
-0.126336
-0.12242
-0.118599
-0.115037
-0.111797
-0.108837
-0.106279
-0.104109
-0.102418
-0.101172
-0.100455
-0.100225
-0.100565
-0.101415
-0.102859
-0.104812
-0.107342
-0.110353
-0.114104
-0.127595
-0.123062
-0.118566
-0.114088
-0.109832
-0.105887
-0.102235
-0.0990099
-0.0962133
-0.093943
-0.0921722
-0.0909899
-0.0903562
-0.0903544
-0.0909317
-0.0921666
-0.09398
-0.096434
-0.0994327
-0.103248
-0.124807
-0.119666
-0.114471
-0.109212
-0.104147
-0.0993921
-0.0949589
-0.0909954
-0.0875156
-0.0846207
-0.0822896
-0.0806094
-0.0795438
-0.0791739
-0.0794455
-0.08044
-0.0820768
-0.0844182
-0.0873679
-0.0912156
-0.121948
-0.116149
-0.110155
-0.104007
-0.0980397
-0.0924126
-0.0871618
-0.0824493
-0.078293
-0.0747926
-0.0719236
-0.0697678
-0.0682827
-0.0675411
-0.0674921
-0.0682084
-0.0696186
-0.0717814
-0.0746083
-0.0784023
-0.119269
-0.112694
-0.105807
-0.0987017
-0.0918041
-0.0853216
-0.0793088
-0.0739372
-0.0692134
-0.0652233
-0.0619273
-0.0593919
-0.0575626
-0.0564988
-0.0561411
-0.0565619
-0.0576927
-0.0595952
-0.0621937
-0.0658124
-0.116822
-0.109459
-0.101668
-0.0936482
-0.0859164
-0.0787315
-0.072149
-0.0663369
-0.0612737
-0.0570189
-0.0534982
-0.0507597
-0.0487251
-0.0474339
-0.0468214
-0.0469468
-0.047756
-0.0493106
-0.0515568
-0.0548384
-0.115172
-0.106968
-0.0983128
-0.0895249
-0.0811947
-0.0736052
-0.0667817
-0.060867
-0.0557885
-0.0515709
-0.0480912
-0.0453711
-0.0433086
-0.0419301
-0.041152
-0.0410334
-0.0415202
-0.0426839
-0.0444907
-0.0473181
-0.114717
-0.105779
-0.0964275
-0.0871458
-0.0785736
-0.0709813
-0.0643229
-0.0586905
-0.0539449
-0.0500721
-0.0468962
-0.0444181
-0.0425072
-0.0411844
-0.0403599
-0.0400835
-0.0403076
-0.0411085
-0.0424755
-0.0448196
-0.116352
-0.106757
-0.0969341
-0.0874944
-0.07907
-0.0718714
-0.0657486
-0.0607263
-0.0565909
-0.0532968
-0.0506214
-0.0485532
-0.0469432
-0.0458197
-0.0450788
-0.0447854
-0.0448781
-0.0454534
-0.0465085
-0.0484972
-0.120536
-0.11051
-0.100506
-0.0912536
-0.0833194
-0.0768128
-0.0714665
-0.0672389
-0.063851
-0.0612433
-0.0591633
-0.0576026
-0.056393
-0.0555804
-0.0550599
-0.0549078
-0.0550607
-0.0556322
-0.0566124
-0.0584862
-0.127964
-0.11763
-0.107662
-0.0988326
-0.0915826
-0.0858952
-0.081389
-0.0779746
-0.0753273
-0.0733903
-0.0719005
-0.0708679
-0.070116
-0.0697154
-0.0695473
-0.0697265
-0.0701731
-0.0710252
-0.0722409
-0.0743471
-0.138592
-0.128138
-0.118366
-0.110066
-0.103528
-0.098613
-0.0948498
-0.0921277
-0.0901032
-0.0887415
-0.0877779
-0.0872557
-0.0869878
-0.0870747
-0.0873907
-0.0880816
-0.0890568
-0.0904718
-0.0922438
-0.0949344
-0.152478
-0.141917
-0.132343
-0.12451
-0.118552
-0.114227
-0.111004
-0.108782
-0.107216
-0.106309
-0.105799
-0.105764
-0.106012
-0.106677
-0.107612
-0.109008
-0.110742
-0.112999
-0.115641
-0.119277
-0.168931
-0.158314
-0.148876
-0.141353
-0.135752
-0.131772
-0.128857
-0.126937
-0.125679
-0.125127
-0.125023
-0.125484
-0.126298
-0.127637
-0.129338
-0.131618
-0.134327
-0.137673
-0.141465
-0.146351
-0.187567
-0.176766
-0.167282
-0.159832
-0.154328
-0.150442
-0.147621
-0.145843
-0.144787
-0.144543
-0.144844
-0.145845
-0.147317
-0.149475
-0.152114
-0.155489
-0.159403
-0.164101
-0.169326
-0.175788
-0.207442
-0.196398
-0.186692
-0.179086
-0.173442
-0.169444
-0.166557
-0.164816
-0.163912
-0.163976
-0.164728
-0.166361
-0.16862
-0.171761
-0.17554
-0.18023
-0.185595
-0.191913
-0.198863
-0.207211
-0.228161
-0.216667
-0.206512
-0.198515
-0.192523
-0.188251
-0.185189
-0.183433
-0.182675
-0.183092
-0.184379
-0.186773
-0.189992
-0.194338
-0.1995
-0.205789
-0.212903
-0.221176
-0.230205
-0.240832
-0.248901
-0.236861
-0.226084
-0.217515
-0.211013
-0.206348
-0.203041
-0.201246
-0.200657
-0.201493
-0.203422
-0.206738
-0.211123
-0.216917
-0.22375
-0.231952
-0.241168
-0.251778
-0.263297
-0.276633
-0.269558
-0.256738
-0.245126
-0.235797
-0.228631
-0.223464
-0.219843
-0.217993
-0.217596
-0.218928
-0.221626
-0.226046
-0.231831
-0.239378
-0.248224
-0.258751
-0.270512
-0.283953
-0.298482
-0.315107
-0.289672
-0.275945
-0.263327
-0.253062
-0.24508
-0.239286
-0.235267
-0.233318
-0.233118
-0.235004
-0.238592
-0.244311
-0.251756
-0.261383
-0.27265
-0.285968
-0.300799
-0.317644
-0.335809
-0.356388
-0.309575
-0.294656
-0.280779
-0.269338
-0.260319
-0.253714
-0.249147
-0.247004
-0.246962
-0.249438
-0.254023
-0.261243
-0.270636
-0.282737
-0.296898
-0.313596
-0.332151
-0.353151
-0.375753
-0.401169
-0.32924
-0.31293
-0.297533
-0.28462
-0.274268
-0.266571
-0.261218
-0.258695
-0.258698
-0.26174
-0.267401
-0.276312
-0.28795
-0.302942
-0.320546
-0.341287
-0.364356
-0.3904
-0.418411
-0.449703
-0.349494
-0.33139
-0.314065
-0.299238
-0.287106
-0.277898
-0.271382
-0.268179
-0.268016
-0.271535
-0.278305
-0.289085
-0.303292
-0.321674
-0.34335
-0.368958
-0.3975
-0.429713
-0.464359
-0.502884
-0.370799
-0.350545
-0.330806
-0.313484
-0.298965
-0.287654
-0.279446
-0.275123
-0.274468
-0.278278
-0.286134
-0.298944
-0.31606
-0.33836
-0.364844
-0.396237
-0.431376
-0.471066
-0.513813
-0.561157
-0.394496
-0.371466
-0.348608
-0.327989
-0.310255
-0.296045
-0.285427
-0.279386
-0.277791
-0.281637
-0.290521
-0.305529
-0.325937
-0.35279
-0.384915
-0.423211
-0.46629
-0.515077
-0.567723
-0.625883
-0.421436
-0.395044
-0.368238
-0.343331
-0.321349
-0.303237
-0.289302
-0.280788
-0.277687
-0.2812
-0.290958
-0.308276
-0.332373
-0.364462
-0.40322
-0.449689
-0.502285
-0.562021
-0.626671
-0.69795
-0.453424
-0.422751
-0.3909
-0.360461
-0.332958
-0.309734
-0.29141
-0.279561
-0.274338
-0.277253
-0.287955
-0.307957
-0.336385
-0.374671
-0.421268
-0.47744
-0.541299
-0.614042
-0.693068
-0.780254
-0.491595
-0.455792
-0.417689
-0.380322
-0.345911
-0.316377
-0.292739
-0.276937
-0.269287
-0.271574
-0.283542
-0.306925
-0.340621
-0.386262
-0.442163
-0.509716
-0.586794
-0.674837
-0.770983
-0.877147
-0.538254
-0.496125
-0.450368
-0.404617
-0.362023
-0.325171
-0.295534
-0.275538
-0.265662
-0.267981
-0.282116
-0.310034
-0.350553
-0.405433
-0.472624
-0.553754
-0.646419
-0.752351
-0.868459
-0.996857
-0.594911
-0.545512
-0.490817
-0.435415
-0.383628
-0.33896
-0.303399
-0.279869
-0.268973
-0.273
-0.291381
-0.326191
-0.375926
-0.442578
-0.523848
-0.621455
-0.732697
-0.859744
-0.999622
-1.15455
-0.664681
-0.606681
-0.541827
-0.476038
-0.414992
-0.363231
-0.32325
-0.298387
-0.289148
-0.298024
-0.324062
-0.369449
-0.432292
-0.514785
-0.614256
-0.732701
-0.867188
-1.02061
-1.19
-1.37718
-0.750276
-0.682792
-0.607166
-0.531412
-0.462792
-0.406764
-0.365982
-0.343969
-0.340855
-0.359157
-0.397549
-0.45831
-0.539194
-0.642796
-0.766149
-0.911515
-1.07601
-1.26328
-1.47005
-1.69713
-0.858322
-0.780133
-0.6937
-0.609798
-0.537272
-0.482052
-0.446276
-0.43297
-0.441584
-0.474462
-0.53003
-0.610906
-0.714788
-0.844705
-0.99756
-1.17621
-1.37812
-1.60741
-1.8599
-2.13415
-0.995104
-0.905817
-0.810098
-0.722192
-0.651846
-0.604333
-0.580219
-0.58134
-0.606326
-0.657434
-0.733155
-0.836606
-0.965784
-1.12414
-1.30878
-1.52328
-1.76544
-2.03912
-2.3385
-2.65872
-1.17088
-1.06977
-0.967569
-0.881718
-0.821092
-0.788129
-0.780637
-0.799
-0.841677
-0.911062
-1.00607
-1.13001
-1.28151
-1.46457
-1.67715
-1.9231
-2.20035
-2.51161
-2.84951
-3.2056
-1.39234
-1.27961
-1.17492
-1.0977
-1.05257
-1.03708
-1.04649
-1.08049
-1.13791
-1.2213
-1.33004
-1.46768
-1.63377
-1.83287
-2.06397
-2.33084
-2.63111
-2.96595
-3.32689
-3.70127
-1.6636
-1.53997
-1.4373
-1.37305
-1.34415
-1.34322
-1.36456
-1.40813
-1.47331
-1.56254
-1.67573
-1.81688
-1.98694
-2.1909
-2.42846
-2.70252
-3.01026
-3.35115
-3.71534
-4.08552
-1.98489
-1.8541
-1.7583
-1.70723
-1.68913
-1.6944
-1.71853
-1.76204
-1.82476
-1.90916
-2.01626
-2.15046
-2.31394
-2.51126
-2.74249
-3.00898
-3.30742
-3.63531
-3.98156
-4.32486
-2.37325
-2.23904
-2.14973
-2.10329
-2.0833
-2.08147
-2.09552
-2.12663
-2.17562
-2.24483
-2.3361
-2.45352
-2.60001
-2.77912
-2.99123
-3.23574
-3.50902
-3.80625
-4.11575
-4.41468
-2.86676
-2.72394
-2.62571
-2.56215
-2.51875
-2.49094
-2.47921
-2.48527
-2.51025
-2.55546
-2.62278
-2.71487
-2.83482
-2.98475
-3.16563
-3.37529
-3.61024
-3.863
-4.1232
-4.36946
-3.50016
-3.31858
-3.17649
-3.06395
-2.9714
-2.89829
-2.84706
-2.81847
-2.81243
-2.82789
-2.86562
-2.92599
-3.01199
-3.12385
-3.2636
-3.42789
-3.61449
-3.81367
-4.01772
-4.20911
-4.20785
-3.94904
-3.73222
-3.55053
-3.39652
-3.27123
-3.1769
-3.11197
-3.07393
-3.05872
-3.06549
-3.09197
-3.14078
-3.21021
-3.30341
-3.41616
-3.54792
-3.68736
-3.82912
-3.96274
-4.79281
-4.45844
-4.17386
-3.93515
-3.73287
-3.56766
-3.44054
-3.3475
-3.28381
-3.24272
-3.22216
-3.21754
-3.23117
-3.25936
-3.3067
-3.36792
-3.44416
-3.52142
-3.59679
-3.66815
-5.05205
-4.69492
-4.37956
-4.11988
-3.90286
-3.72658
-3.58959
-3.48593
-3.40976
-3.35317
-3.31402
-3.28633
-3.2725
-3.26685
-3.27454
-3.2885
-3.31145
-3.32997
-3.34809
-3.36401
-4.85118
-4.57319
-4.27866
-4.05202
-3.87282
-3.7297
-3.61609
-3.52489
-3.45255
-3.39262
-3.34497
-3.30337
-3.27075
-3.2398
-3.21474
-3.18469
-3.15383
-3.11808
-3.09079
-3.03196
-4.07382
-4.14438
-3.96282
-3.83097
-3.74133
-3.66761
-3.60008
-3.53584
-3.47787
-3.42299
-3.37389
-3.32528
-3.28126
-3.23292
-3.18281
-3.11581
-3.0394
-2.96222
-2.87215
-2.57252
-2.94073
-3.70976
-3.72815
-3.66709
-3.63297
-3.60391
-3.56659
-3.52028
-3.47331
-3.42313
-3.37696
-3.32732
-3.28287
-3.23088
-3.18096
-3.11436
-3.05446
-3.00376
-2.854
-2.17369
-2.43561
-3.60571
-3.80461
-3.71747
-3.65334
-3.61295
-3.57073
-3.52447
-3.47652
-3.42826
-3.38082
-3.33401
-3.28906
-3.2453
-3.20554
-3.1734
-3.16749
-3.17643
-3.01096
-2.35007
0.000827259
0.000742545
0.000622735
0.000522625
0.000418421
0.000322675
0.000238874
0.00016411
9.94075e-05
4.2376e-05
-6.27806e-06
-4.89489e-05
-8.54379e-05
-0.000118051
-0.000146895
-0.000173903
-0.000199149
-0.000226053
-0.000266364
-0.000336306
0.00891709
0.00880894
0.00869337
0.00859449
0.00848177
0.00837257
0.00826527
0.00816011
0.00805454
0.00794905
0.00784227
0.00773378
0.00762314
0.00750937
0.00739216
0.00727112
0.00714719
0.00701661
0.00687247
0.00672501
0.0168219
0.0167534
0.0166256
0.0165093
0.0163671
0.0162218
0.0160676
0.0159122
0.0157484
0.0155822
0.0154078
0.0152295
0.0150426
0.01485
0.0146485
0.0144399
0.0142225
0.0139949
0.0137487
0.0134893
0.0244746
0.0244279
0.0243056
0.0241892
0.0240331
0.0238674
0.0236819
0.02349
0.0232805
0.0230639
0.0228312
0.0225901
0.0223339
0.0220681
0.0217873
0.0214958
0.0211904
0.020871
0.0205308
0.0201741
0.0321581
0.032135
0.0320236
0.0319115
0.0317465
0.0315659
0.0313548
0.0311322
0.0308824
0.0306209
0.030335
0.030037
0.0297166
0.0293829
0.0290283
0.0286589
0.0282701
0.027864
0.0274329
0.0269817
0.039795
0.0397981
0.0397008
0.0395977
0.0394294
0.0392393
0.0390086
0.0387607
0.0384764
0.0381751
0.0378418
0.0374913
0.0371118
0.0367144
0.0362896
0.0358454
0.0353766
0.0348866
0.034368
0.0338233
0.0474716
0.0475035
0.0474237
0.0473329
0.0471654
0.0469707
0.0467256
0.0464579
0.0461443
0.0458084
0.0454319
0.0450333
0.0445978
0.044139
0.0436466
0.0431297
0.0425829
0.042011
0.0414059
0.0407688
0.0552055
0.0552689
0.0552103
0.0551361
0.0549736
0.0547783
0.0545232
0.0542395
0.0539009
0.0535339
0.0531181
0.0526739
0.0521856
0.0516685
0.0511109
0.0505242
0.0499019
0.0492494
0.048559
0.0478297
0.0630209
0.0631205
0.0630874
0.0630334
0.0628796
0.0626871
0.0624253
0.0621291
0.0617687
0.0613737
0.0609213
0.0604346
0.059896
0.0593225
0.0587025
0.058047
0.0573499
0.0566172
0.0558411
0.0550181
0.0709603
0.0710986
0.0710943
0.071064
0.0709225
0.0707356
0.0704701
0.0701639
0.0697849
0.0693644
0.0688785
0.0683515
0.0677655
0.0671382
0.0664569
0.065734
0.0649628
0.0641498
0.063288
0.0623711
0.0790448
0.0792276
0.0792567
0.0792539
0.0791279
0.0789492
0.0786823
0.0783681
0.0779723
0.0775287
0.0770111
0.0764457
0.0758131
0.0751317
0.0743892
0.0735971
0.0727506
0.0718557
0.0709065
0.0698927
0.0873209
0.0875498
0.0876146
0.0876417
0.0875338
0.0873659
0.0871004
0.0867807
0.0863702
0.0859044
0.0853558
0.0847513
0.0840716
0.0833358
0.082531
0.0816698
0.0807475
0.07977
0.0787324
0.0776207
0.0958106
0.0960908
0.0961943
0.0962534
0.0961662
0.0960125
0.0957516
0.0954287
0.0950045
0.0945163
0.0939354
0.0932905
0.0925617
0.0917691
0.0909007
0.089968
0.0889675
0.0879043
0.0867753
0.0855614
0.104573
0.104905
0.105049
0.105142
0.105078
0.10494
0.104684
0.104358
0.10392
0.103408
0.102795
0.102109
0.101331
0.100482
0.0995483
0.0985429
0.0974624
0.0963113
0.0950883
0.0937697
0.113637
0.114026
0.114214
0.114344
0.114304
0.114181
0.11393
0.113598
0.113145
0.112611
0.111965
0.111239
0.110411
0.109503
0.108503
0.107422
0.106257
0.105013
0.103691
0.10226
0.123059
0.123507
0.12374
0.123905
0.123889
0.12378
0.123532
0.123195
0.122727
0.122169
0.12149
0.120721
0.119843
0.118874
0.117804
0.116643
0.11539
0.114049
0.112622
0.111074
0.132851
0.133364
0.133646
0.133848
0.133856
0.133761
0.133517
0.133174
0.13269
0.132105
0.131391
0.130577
0.129644
0.128611
0.127467
0.126221
0.124875
0.12343
0.121891
0.120219
0.143052
0.143632
0.143965
0.144207
0.144243
0.144163
0.143923
0.143573
0.143072
0.142459
0.141708
0.140845
0.139854
0.138752
0.13753
0.136195
0.134751
0.133196
0.131541
0.129737
0.153678
0.154333
0.154723
0.155008
0.155074
0.155013
0.154779
0.154423
0.153904
0.153263
0.152472
0.151559
0.150507
0.149332
0.148027
0.146597
0.145048
0.143379
0.1416
0.139657
0.164765
0.165499
0.165949
0.16628
0.166382
0.166342
0.166117
0.165756
0.165221
0.164551
0.163719
0.162752
0.161637
0.160384
0.158992
0.157462
0.155804
0.154013
0.152104
0.150014
0.176333
0.177151
0.177668
0.178051
0.178191
0.178175
0.177962
0.177599
0.177049
0.17635
0.175477
0.174455
0.173272
0.17194
0.170457
0.168822
0.167048
0.165129
0.163081
0.160837
0.188396
0.189308
0.1899
0.19034
0.190524
0.190536
0.190338
0.189974
0.189411
0.188682
0.187768
0.18669
0.185438
0.184022
0.182443
0.180697
0.178801
0.176745
0.174552
0.172142
0.200986
0.202001
0.202675
0.203179
0.203413
0.203459
0.203279
0.202917
0.202342
0.201585
0.200629
0.199492
0.198169
0.196665
0.194986
0.193124
0.191099
0.1889
0.186551
0.183967
0.214123
0.215253
0.216019
0.216595
0.216887
0.21697
0.216814
0.216457
0.215872
0.215087
0.214089
0.212892
0.211495
0.209899
0.208113
0.206128
0.203967
0.201614
0.1991
0.196329
0.227845
0.2291
0.229969
0.230628
0.230985
0.231114
0.230988
0.230639
0.230048
0.229236
0.228196
0.226937
0.225462
0.22377
0.221872
0.219757
0.21745
0.214936
0.212245
0.209275
0.242165
0.243564
0.244551
0.245306
0.24574
0.245923
0.245834
0.2455
0.244906
0.24407
0.242987
0.241665
0.24011
0.238316
0.236299
0.234045
0.231583
0.228893
0.226014
0.222828
0.257137
0.258696
0.259818
0.260682
0.261206
0.261455
0.261411
0.261099
0.260507
0.259649
0.258525
0.257138
0.255498
0.253597
0.251454
0.249051
0.246421
0.243544
0.240461
0.237045
0.27279
0.274533
0.275809
0.276801
0.27743
0.277758
0.277771
0.277489
0.276905
0.276029
0.274865
0.27341
0.271681
0.269665
0.267387
0.264823
0.262014
0.258933
0.25563
0.251963
0.28919
0.291139
0.29259
0.293731
0.294482
0.294905
0.294988
0.294746
0.294177
0.293286
0.292082
0.290558
0.288735
0.286595
0.284171
0.281433
0.278428
0.275126
0.271583
0.267643
0.306376
0.308562
0.310216
0.31153
0.312427
0.312963
0.313132
0.312943
0.312398
0.311496
0.310253
0.308656
0.306732
0.304459
0.301875
0.298946
0.295727
0.292182
0.288377
0.284138
0.324423
0.326878
0.328765
0.330281
0.331348
0.33202
0.332293
0.332171
0.331659
0.330752
0.32947
0.327795
0.325761
0.32334
0.32058
0.317438
0.313982
0.310168
0.306073
0.301504
0.343383
0.346147
0.348304
0.350057
0.351326
0.352162
0.352562
0.352524
0.352057
0.35115
0.349829
0.348069
0.345914
0.343328
0.340369
0.336992
0.333269
0.329157
0.324739
0.319807
0.363326
0.366443
0.368913
0.370943
0.372451
0.373482
0.374035
0.374101
0.373692
0.37279
0.371427
0.369573
0.36728
0.364508
0.361324
0.357676
0.353653
0.349203
0.344423
0.339084
0.3843
0.387822
0.390653
0.393009
0.3948
0.396065
0.396802
0.396994
0.396657
0.395765
0.394358
0.392399
0.389949
0.386965
0.383523
0.37957
0.375204
0.370374
0.365188
0.359398
0.40634
0.410319
0.413565
0.416297
0.418416
0.419955
0.420908
0.42125
0.420998
0.420121
0.418665
0.416588
0.413961
0.410735
0.407
0.402698
0.397944
0.392683
0.387039
0.380743
0.429419
0.433906
0.437615
0.440769
0.443259
0.445107
0.446303
0.446814
0.44666
0.445803
0.444296
0.442093
0.439273
0.435786
0.431729
0.427046
0.421863
0.416127
0.409979
0.403131
0.453404
0.458418
0.462611
0.466207
0.469084
0.471252
0.472698
0.473384
0.47333
0.472498
0.470944
0.468622
0.465614
0.461864
0.457482
0.452406
0.446777
0.440542
0.433859
0.426422
0.477931
0.483435
0.488073
0.492067
0.495288
0.49774
0.499406
0.500244
0.50028
0.499479
0.4979
0.495495
0.492345
0.488393
0.48374
0.478328
0.472296
0.465601
0.458408
0.450404
0.502268
0.508113
0.513047
0.517289
0.520716
0.523332
0.525127
0.526058
0.526156
0.525395
0.523835
0.521429
0.518247
0.514223
0.509448
0.503851
0.497566
0.490548
0.482968
0.474503
0.525165
0.531073
0.536025
0.540249
0.543644
0.546226
0.548002
0.548932
0.54905
0.548343
0.54687
0.544587
0.541543
0.537669
0.533019
0.527517
0.521262
0.514211
0.506513
0.497847
0.544845
0.55044
0.555056
0.558931
0.562009
0.564329
0.56592
0.566748
0.566848
0.566212
0.564901
0.562877
0.560163
0.556682
0.552456
0.54739
0.541542
0.534854
0.527442
0.518972
0.559345
0.56428
0.568246
0.571505
0.574046
0.575937
0.577226
0.577885
0.577943
0.577399
0.576311
0.574647
0.57241
0.569525
0.565971
0.561653
0.556574
0.550666
0.543985
0.536195
0.566962
0.571055
0.574226
0.576762
0.578695
0.580114
0.581076
0.581561
0.581586
0.581158
0.580324
0.579065
0.577365
0.575155
0.572395
0.568985
0.564894
0.560038
0.554424
0.547702
0.56682
0.570125
0.57258
0.574497
0.575926
0.576974
0.577693
0.578068
0.578104
0.577814
0.577234
0.576356
0.575155
0.573581
0.571575
0.56906
0.565969
0.562227
0.557796
0.552328
0.558899
0.561694
0.563716
0.565297
0.566476
0.567368
0.568011
0.568393
0.56851
0.56838
0.568028
0.56746
0.566645
0.565548
0.564118
0.562291
0.560006
0.557198
0.553809
0.549487
0.544117
0.546816
0.548796
0.550407
0.551659
0.552664
0.553436
0.553969
0.554245
0.554291
0.55413
0.553771
0.553189
0.552369
0.551261
0.549837
0.548038
0.54582
0.543119
0.539612
0.523732
0.526771
0.5291
0.531076
0.53268
0.534021
0.535094
0.535894
0.5364
0.536641
0.536639
0.536407
0.535928
0.535191
0.534175
0.532852
0.531185
0.529136
0.526677
0.5235
0.499109
0.502802
0.505757
0.508339
0.510485
0.512311
0.513797
0.514943
0.515729
0.516181
0.516327
0.516171
0.515715
0.514945
0.513852
0.51241
0.510595
0.508381
0.505777
0.502489
0.471071
0.475609
0.479346
0.482667
0.485467
0.487863
0.489828
0.491366
0.492463
0.493143
0.493438
0.493342
0.492869
0.491987
0.490719
0.489008
0.486873
0.484267
0.48124
0.477482
0.44013
0.445606
0.450198
0.454321
0.457828