/*--------------------------------*- C++ -*----------------------------------*\
  =========                 |
  \\      /  F ield         | OpenFOAM: The Open Source CFD Toolbox
   \\    /   O peration     | Website:  https://openfoam.org
    \\  /    A nd           | Version:  6
     \\/     M anipulation  |
\*---------------------------------------------------------------------------*/
FoamFile
{
    version     2.0;
    format      ascii;
    class       volScalarField;
    location    "30";
    object      p;
}
// * * * * * * * * * * * * * * * * * * * * * * * * * * * * * * * * * * * * * //

dimensions      [0 2 -2 0 0 0 0];

internalField   nonuniform List<scalar> 
10000
(
0.0284998
0.0288787
0.028367
0.0267078
0.0240986
0.0221252
0.0211115
0.0207275
0.0206209
0.0205039
0.0203308
0.0200396
0.0195062
0.0188296
0.0180673
0.0177367
0.0179515
0.0182197
0.0198863
0.0221399
0.0715425
0.070776
0.0724569
0.0746974
0.0749324
0.0736935
0.0721505
0.0710399
0.070492
0.0702014
0.0701297
0.0699668
0.0699354
0.0696831
0.0690718
0.0675585
0.064776
0.0617588
0.0612384
0.0634732
0.115497
0.113201
0.11274
0.114367
0.116239
0.11754
0.118279
0.118622
0.118757
0.118764
0.118631
0.118279
0.117513
0.116399
0.114968
0.113324
0.111798
0.111059
0.111162
0.11157
0.162935
0.161484
0.160765
0.162255
0.164748
0.166715
0.167937
0.168536
0.168755
0.168783
0.16863
0.168259
0.167557
0.166441
0.164786
0.162827
0.160816
0.15948
0.159414
0.159869
0.219951
0.221401
0.221505
0.221207
0.221451
0.221597
0.221604
0.221392
0.221139
0.22085
0.220567
0.22024
0.219737
0.21917
0.218413
0.217662
0.217249
0.217269
0.216879
0.215663
0.275411
0.277656
0.278796
0.27831
0.277439
0.276369
0.275335
0.274403
0.273698
0.273192
0.272827
0.272548
0.272452
0.272647
0.27327
0.274369
0.275646
0.276462
0.27569
0.273756
0.32421
0.324391
0.324784
0.324702
0.324534
0.324571
0.324592
0.324478
0.324314
0.324199
0.324255
0.324547
0.325104
0.326021
0.32727
0.328755
0.330071
0.330523
0.3299
0.329169
0.370586
0.369564
0.369459
0.369953
0.370792
0.372107
0.373302
0.374097
0.374495
0.374756
0.374963
0.375321
0.375958
0.376803
0.377802
0.378818
0.379558
0.37958
0.379021
0.378919
0.420403
0.420238
0.420607
0.421432
0.422412
0.423407
0.424281
0.424893
0.425257
0.425395
0.425434
0.425453
0.425364
0.425101
0.424574
0.423622
0.422327
0.421221
0.421462
0.422954
0.474324
0.475716
0.476569
0.476727
0.476623
0.476401
0.47638
0.476475
0.476611
0.476677
0.476678
0.476466
0.476059
0.475231
0.473904
0.472109
0.470015
0.46866
0.469102
0.470427
0.52754
0.528243
0.5288
0.528968
0.5287
0.528297
0.528025
0.527981
0.528044
0.528115
0.528125
0.528103
0.527951
0.527782
0.527536
0.527252
0.527027
0.526951
0.526312
0.524628
0.580664
0.580873
0.580832
0.580561
0.580085
0.579613
0.579268
0.579181
0.579201
0.579271
0.57926
0.579226
0.579209
0.579217
0.579404
0.579905
0.580577
0.580977
0.58026
0.57842
0.633255
0.632367
0.631259
0.630668
0.630437
0.630408
0.630492
0.630597
0.630704
0.630755
0.630781
0.630759
0.630662
0.63054
0.63054
0.630738
0.631055
0.631157
0.630914
0.630619
0.686748
0.686422
0.686021
0.68586
0.685596
0.685066
0.684453
0.683962
0.683653
0.683512
0.683447
0.683377
0.683408
0.683424
0.683553
0.683803
0.684115
0.684258
0.683958
0.683585
0.73958
0.741397
0.742626
0.742445
0.741327
0.739695
0.738212
0.737159
0.736569
0.736298
0.736305
0.736511
0.736847
0.737306
0.737758
0.737957
0.737966
0.737807
0.737651
0.73764
0.788758
0.788773
0.789136
0.790017
0.790613
0.790538
0.789994
0.78933
0.788814
0.788612
0.788715
0.789079
0.78981
0.790835
0.792059
0.793152
0.79382
0.793875
0.793351
0.792675
0.838323
0.838868
0.839084
0.839468
0.840221
0.840718
0.840719
0.840371
0.839925
0.839597
0.83946
0.839616
0.839948
0.84065
0.841662
0.842888
0.844044
0.844389
0.843487
0.841926
0.885066
0.88554
0.885903
0.886461
0.887553
0.88874
0.889593
0.889989
0.890027
0.889894
0.889756
0.889593
0.889358
0.88873
0.887541
0.885884
0.883856
0.882156
0.882414
0.88393
0.933864
0.934482
0.935084
0.935802
0.93696
0.938335
0.939478
0.94023
0.940617
0.940735
0.94078
0.940737
0.940438
0.939598
0.93801
0.93563
0.933029
0.931406
0.931571
0.932271
0.988933
0.990201
0.990866
0.991029
0.991127
0.991471
0.991931
0.992391
0.992678
0.992819
0.992793
0.99265
0.992483
0.992235
0.992066
0.991992
0.992077
0.992175
0.991095
0.98843
1.04669
1.04842
1.04914
1.04865
1.04755
1.04663
1.04613
1.0459
1.0458
1.04569
1.04555
1.04538
1.04516
1.04517
1.04552
1.04629
1.0474
1.04801
1.04703
1.04467
1.10152
1.10254
1.10332
1.1033
1.10242
1.10136
1.1005
1.09982
1.09942
1.0992
1.09916
1.09915
1.09935
1.09963
1.09994
1.1002
1.10025
1.09995
1.09959
1.09948
1.15381
1.15406
1.15485
1.15559
1.1555
1.15472
1.15376
1.15292
1.1524
1.15218
1.15228
1.15272
1.15348
1.15453
1.15571
1.15667
1.15705
1.15669
1.15595
1.15541
1.20533
1.20583
1.2061
1.20634
1.20624
1.20566
1.20502
1.20456
1.20429
1.20429
1.20453
1.20505
1.20583
1.20678
1.20794
1.20925
1.21031
1.21068
1.21004
1.20865
1.25505
1.2545
1.25372
1.25432
1.2554
1.25604
1.2563
1.25623
1.25605
1.25597
1.25618
1.25667
1.25716
1.25751
1.25751
1.25713
1.25651
1.256
1.25602
1.25603
1.30605
1.3063
1.30618
1.30667
1.30766
1.30844
1.3088
1.30869
1.30836
1.30806
1.30794
1.30793
1.3079
1.3075
1.30656
1.30512
1.30344
1.30208
1.30183
1.30203
1.35962
1.36109
1.36175
1.36149
1.36133
1.36139
1.36139
1.36116
1.36085
1.3605
1.36022
1.35998
1.35952
1.35866
1.35727
1.35554
1.35388
1.35255
1.35205
1.35157
1.41377
1.41608
1.41718
1.41678
1.41594
1.41518
1.41457
1.41408
1.41371
1.41343
1.41322
1.41301
1.41283
1.41245
1.41189
1.41128
1.41073
1.41023
1.40944
1.40768
1.46548
1.46645
1.46725
1.46766
1.46763
1.46744
1.4671
1.4667
1.46643
1.46631
1.46634
1.46651
1.46682
1.46737
1.46817
1.46922
1.47033
1.47078
1.46965
1.46688
1.51787
1.51857
1.51919
1.51953
1.5196
1.51967
1.51965
1.51956
1.51952
1.51962
1.51994
1.52047
1.52136
1.52249
1.52386
1.52534
1.52652
1.52665
1.52563
1.524
1.5728
1.57303
1.57302
1.57328
1.57343
1.57351
1.57346
1.57334
1.5732
1.57315
1.57331
1.57382
1.57464
1.57577
1.57705
1.57814
1.57882
1.57869
1.57794
1.57711
1.63056
1.63203
1.63285
1.63314
1.63262
1.63147
1.63003
1.62865
1.62755
1.62686
1.62647
1.62642
1.62657
1.62674
1.62669
1.62614
1.6251
1.62423
1.62453
1.62528
1.6831
1.68612
1.68815
1.68827
1.68703
1.68521
1.68334
1.68169
1.68048
1.67978
1.67951
1.67956
1.67961
1.6795
1.67892
1.67773
1.67617
1.67517
1.67548
1.67588
1.72827
1.7276
1.72765
1.72902
1.73057
1.73187
1.73259
1.73276
1.73259
1.73257
1.73274
1.73319
1.73379
1.73441
1.73486
1.73512
1.73523
1.73522
1.73414
1.73165
1.77964
1.77916
1.77867
1.7797
1.78176
1.78379
1.78521
1.78588
1.78609
1.7862
1.78643
1.78694
1.78759
1.78839
1.78912
1.78972
1.79013
1.79008
1.78893
1.78663
1.83893
1.84171
1.84286
1.84266
1.84232
1.84188
1.84153
1.84121
1.84101
1.84091
1.84102
1.8413
1.84183
1.84238
1.84276
1.84291
1.84271
1.84217
1.84162
1.84085
1.89788
1.90075
1.90221
1.90173
1.90027
1.89857
1.89714
1.89615
1.89556
1.89528
1.89531
1.89565
1.89621
1.89689
1.8975
1.8979
1.898
1.89775
1.89702
1.8957
1.9523
1.95344
1.95433
1.95466
1.95408
1.95295
1.95155
1.95029
1.94935
1.94886
1.94867
1.94879
1.94912
1.94952
1.9499
1.95012
1.95004
1.94964
1.94889
1.94758
2.00244
2.00324
2.00406
2.00495
2.00537
2.0052
2.00447
2.00356
2.0027
2.00211
2.00179
2.00171
2.00164
2.00152
2.00112
2.00042
1.99949
1.99861
1.99799
1.99708
2.05137
2.05127
2.05114
2.05237
2.05415
2.05563
2.05641
2.05661
2.05646
2.05629
2.05619
2.05623
2.05626
2.05609
2.05546
2.05427
2.05275
2.05161
2.05118
2.05052
2.10647
2.10742
2.10754
2.10839
2.10979
2.11101
2.11171
2.11197
2.112
2.11205
2.11229
2.11285
2.11363
2.11461
2.11547
2.11603
2.11616
2.11596
2.11495
2.11278
2.16654
2.17005
2.17147
2.17094
2.16993
2.16903
2.16844
2.16809
2.16788
2.16794
2.16822
2.16896
2.17021
2.17209
2.17459
2.17754
2.18031
2.1816
2.1797
2.17541
2.2246
2.2266
2.2277
2.22768
2.22681
2.22571
2.22468
2.22382
2.22319
2.22287
2.22291
2.22333
2.22407
2.22511
2.22628
2.22747
2.22824
2.22806
2.22728
2.22635
2.27987
2.28172
2.28304
2.28333
2.2827
2.28154
2.28022
2.27899
2.278
2.27736
2.2771
2.27714
2.27734
2.27737
2.27679
2.27531
2.27303
2.27104
2.27111
2.27256
2.33044
2.33107
2.33166
2.33266
2.33337
2.3336
2.33336
2.33289
2.33233
2.33193
2.33175
2.33177
2.33173
2.33146
2.33059
2.32889
2.32674
2.32534
2.32502
2.32448
2.38272
2.38303
2.38309
2.38437
2.38609
2.38743
2.38806
2.38817
2.38798
2.38787
2.38786
2.38804
2.38824
2.38835
2.3882
2.38788
2.38761
2.38753
2.38631
2.38314
2.44061
2.44302
2.44378
2.44398
2.44447
2.44499
2.44521
2.44517
2.44495
2.44478
2.44477
2.44505
2.44556
2.44632
2.44721
2.44822
2.4491
2.44925
2.44754
2.44399
2.49883
2.50208
2.50403
2.50453
2.50423
2.50366
2.50301
2.50237
2.50184
2.50152
2.50154
2.50195
2.50275
2.50383
2.50507
2.50625
2.50696
2.50667
2.5053
2.5032
2.55352
2.5567
2.55906
2.56009
2.55991
2.55915
2.55827
2.55751
2.55694
2.55668
2.55677
2.55727
2.55807
2.55914
2.56026
2.56112
2.56147
2.56097
2.55966
2.55777
2.60693
2.60748
2.6076
2.60856
2.60977
2.61082
2.61144
2.61168
2.61162
2.61156
2.61153
2.61166
2.61176
2.61171
2.61123
2.61026
2.60894
2.60767
2.60719
2.60666
2.66624
2.66708
2.66702
2.66743
2.66817
2.66884
2.66914
2.6691
2.66883
2.6685
2.6682
2.66797
2.66754
2.66671
2.66525
2.66326
2.66112
2.65969
2.65966
2.6593
2.72757
2.73116
2.73333
2.73383
2.73302
2.73141
2.72974
2.72838
2.7274
2.72681
2.72649
2.72644
2.72648
2.72657
2.72654
2.72638
2.72601
2.72565
2.72446
2.72121
2.78215
2.78533
2.78734
2.78828
2.7881
2.78709
2.78589
2.7849
2.78423
2.78398
2.78412
2.78475
2.78574
2.78724
2.78906
2.79097
2.79239
2.79257
2.79045
2.78595
2.83406
2.83472
2.8349
2.83629
2.83815
2.83966
2.84045
2.84074
2.84073
2.84086
2.84121
2.84202
2.84323
2.84497
2.84711
2.84946
2.8513
2.85144
2.84929
2.84549
2.89341
2.89555
2.89641
2.89728
2.89844
2.8992
2.89935
2.8991
2.89874
2.89852
2.89865
2.8992
2.90002
2.9009
2.90146
2.9014
2.90049
2.89892
2.89799
2.89716
2.9554
2.9603
2.96264
2.96254
2.96163
2.96039
2.9591
2.95791
2.95702
2.95646
2.95633
2.95655
2.95696
2.9571
2.95651
2.95499
2.95266
2.95068
2.95017
2.94932
3.01197
3.01485
3.0165
3.01742
3.01756
3.01722
3.0165
3.0156
3.01475
3.01427
3.01416
3.01445
3.0148
3.01498
3.01465
3.01361
3.01196
3.01035
3.00866
3.00515
3.06623
3.06876
3.07083
3.07308
3.07441
3.07465
3.07402
3.07309
3.07216
3.07162
3.07146
3.07167
3.07201
3.07227
3.07224
3.07184
3.07093
3.06952
3.06705
3.06232
3.11999
3.12408
3.12662
3.12859
3.13005
3.1307
3.13059
3.13
3.12928
3.12875
3.12849
3.12851
3.12858
3.12864
3.12854
3.12824
3.12775
3.1268
3.12443
3.11973
3.1765
3.17934
3.1804
3.18207
3.18423
3.18614
3.18728
3.18765
3.18758
3.18741
3.18742
3.18767
3.18811
3.18846
3.18832
3.18745
3.1859
3.18406
3.1822
3.17908
3.24212
3.24638
3.24793
3.24875
3.24932
3.24943
3.24907
3.2485
3.24798
3.24766
3.24774
3.24831
3.2493
3.25055
3.25168
3.25223
3.25208
3.25104
3.24869
3.24404
3.30884
3.31532
3.31805
3.31767
3.31578
3.31345
3.31127
3.30951
3.30827
3.30763
3.30749
3.30788
3.30876
3.31011
3.31177
3.31348
3.31482
3.31474
3.31214
3.30631
3.36694
3.37063
3.37238
3.37335
3.37315
3.37216
3.37074
3.36919
3.36789
3.36704
3.36674
3.36697
3.36752
3.36816
3.36849
3.36811
3.36695
3.36536
3.3644
3.36209
3.42098
3.42462
3.42639
3.42815
3.42927
3.42941
3.42879
3.4278
3.42686
3.42622
3.42611
3.42643
3.42717
3.42793
3.42823
3.42777
3.42645
3.42524
3.4248
3.42216
3.47565
3.48043
3.48211
3.48337
3.48442
3.48504
3.48534
3.48541
3.48535
3.48545
3.48584
3.48673
3.48796
3.48957
3.49128
3.49271
3.49362
3.49385
3.49228
3.48627
3.53803
3.54294
3.5439
3.54458
3.54514
3.54556
3.54588
3.5461
3.54619
3.54635
3.54675
3.54751
3.54875
3.55039
3.55221
3.55391
3.55511
3.55527
3.55345
3.54715
3.61065
3.61794
3.61981
3.61891
3.61657
3.61388
3.61169
3.61018
3.60932
3.60887
3.6089
3.60938
3.61025
3.61141
3.61258
3.61342
3.61362
3.61282
3.61121
3.60612
3.68152
3.69038
3.69338
3.69201
3.68777
3.68261
3.6781
3.6749
3.67305
3.67217
3.67208
3.67253
3.6736
3.67499
3.67647
3.67775
3.6782
3.67741
3.67528
3.66903
3.74055
3.74692
3.74925
3.74969
3.74771
3.74413
3.7403
3.73723
3.7353
3.7345
3.73461
3.7356
3.73724
3.73951
3.74205
3.74423
3.74538
3.74487
3.74245
3.73518
3.79331
3.79748
3.79893
3.80144
3.80298
3.80263
3.80087
3.79883
3.79728
3.79666
3.79693
3.79802
3.79994
3.80249
3.80546
3.80833
3.81017
3.81013
3.80771
3.79989
3.84993
3.85627
3.85829
3.86071
3.86301
3.86367
3.86277
3.86116
3.85972
3.85894
3.85898
3.85985
3.86121
3.86298
3.86486
3.86632
3.86689
3.86626
3.86449
3.85771
3.91182
3.92092
3.92406
3.92567
3.92681
3.92685
3.9259
3.92441
3.92308
3.9222
3.92209
3.92255
3.9236
3.92463
3.92513
3.92452
3.92242
3.91995
3.91867
3.91357
3.97658
3.98574
3.98887
3.99001
3.99038
3.99009
3.98924
3.98809
3.98703
3.98642
3.98645
3.98719
3.98834
3.98965
3.99056
3.99041
3.98918
3.98765
3.98567
3.97815
4.04405
4.05133
4.05317
4.05415
4.05457
4.05453
4.05386
4.05289
4.05196
4.05151
4.05168
4.05245
4.05383
4.05553
4.05728
4.05874
4.05953
4.05942
4.05678
4.0472
4.11386
4.12089
4.12218
4.1223
4.12198
4.12123
4.1201
4.11881
4.11764
4.1169
4.11674
4.11728
4.11826
4.11962
4.12108
4.12231
4.12305
4.12297
4.12089
4.11243
4.18257
4.18827
4.18816
4.18777
4.18752
4.18698
4.18609
4.18496
4.1839
4.1831
4.18285
4.18298
4.18351
4.18391
4.1839
4.18325
4.18204
4.1813
4.18112
4.17583
4.25239
4.25749
4.25624
4.25508
4.25463
4.25401
4.25316
4.25214
4.2512
4.25053
4.25038
4.25074
4.25138
4.25205
4.25243
4.25226
4.25182
4.25229
4.25281
4.24712
4.32517
4.3315
4.32989
4.32686
4.32471
4.32304
4.32174
4.32071
4.31991
4.31945
4.31945
4.31996
4.32105
4.32259
4.32461
4.32709
4.32976
4.33254
4.33257
4.32432
4.39927
4.40598
4.40446
4.4008
4.39767
4.39497
4.3929
4.39134
4.39022
4.38955
4.3894
4.38996
4.39112
4.39312
4.39594
4.3995
4.40325
4.4067
4.40704
4.39922
4.47225
4.48142
4.48201
4.47838
4.47386
4.46932
4.46565
4.46302
4.46135
4.46045
4.46034
4.46101
4.46253
4.46487
4.46789
4.47137
4.47451
4.47743
4.47816
4.47168
4.53807
4.54903
4.55181
4.54948
4.54521
4.54029
4.53619
4.53337
4.53168
4.53102
4.53124
4.53254
4.53483
4.53829
4.5427
4.54752
4.55158
4.55452
4.55335
4.54415
4.60019
4.61126
4.61569
4.61607
4.61433
4.61094
4.60742
4.60476
4.60303
4.60243
4.60272
4.60418
4.60676
4.61072
4.61586
4.62138
4.62566
4.62755
4.62309
4.61019
4.66612
4.6808
4.68877
4.69072
4.68964
4.68595
4.68161
4.67802
4.67571
4.67474
4.675
4.67656
4.67929
4.68308
4.68721
4.69031
4.69053
4.68783
4.68014
4.66684
4.73049
4.74862
4.7607
4.76467
4.76439
4.76059
4.75575
4.75156
4.7488
4.74756
4.74777
4.74933
4.75207
4.75551
4.75874
4.75988
4.75725
4.75141
4.7396
4.7231
4.7895
4.80538
4.819
4.82711
4.83159
4.83153
4.82882
4.82546
4.82275
4.82131
4.82118
4.82226
4.82426
4.82647
4.82794
4.82703
4.82238
4.81462
4.79981
4.78125
4.85538
4.86982
4.88386
4.89316
4.90057
4.9035
4.90285
4.90056
4.89822
4.89674
4.89644
4.89718
4.89845
4.89924
4.8984
4.8943
4.88661
4.8775
4.86351
4.84882
4.93825
4.94985
4.96104
4.9665
4.97266
4.97645
4.97741
4.97661
4.97525
4.97424
4.97406
4.9746
4.97564
4.9761
4.97525
4.97228
4.96765
4.96371
4.95301
4.94133
5.04417
5.04994
5.05567
5.05327
5.05422
5.05586
5.05656
5.05622
5.05536
5.05464
5.05447
5.05506
5.05606
5.05728
5.05875
5.06059
5.06359
5.06823
5.06159
5.05392
5.16567
5.16728
5.17054
5.15867
5.15015
5.14491
5.14165
5.13946
5.13802
5.13718
5.13715
5.13801
5.14002
5.14329
5.14808
5.15473
5.16312
5.17333
5.1693
5.16929
5.27604
5.27431
5.28176
5.26542
5.25007
5.23794
5.22951
5.22429
5.22149
5.22023
5.22026
5.22187
5.22527
5.23122
5.23979
5.25056
5.26314
5.27702
5.26972
5.27334
5.35421
5.34786
5.36713
5.35486
5.34153
5.32863
5.31765
5.30998
5.3057
5.30388
5.30392
5.30587
5.31023
5.31757
5.32746
5.33896
5.35131
5.36376
5.34515
5.35115
5.40967
5.39518
5.43209
5.42604
5.41929
5.4112
5.40191
5.39398
5.38908
5.38699
5.38709
5.3895
5.3942
5.40151
5.40989
5.41719
5.42392
5.43032
5.39375
5.40804
5.4813
5.44441
5.49924
5.49265
5.48855
5.48576
5.48034
5.4739
5.4692
5.46703
5.46717
5.46939
5.47393
5.47992
5.48532
5.48858
5.4933
5.50015
5.44517
5.48209
5.61913
5.53076
5.60268
5.58192
5.56668
5.56095
5.55565
5.54923
5.54401
5.54141
5.54146
5.54428
5.54922
5.55543
5.56108
5.5674
5.58333
5.60491
5.5334
5.62166
5.83421
5.64743
5.74413
5.70171
5.66255
5.64417
5.63356
5.62467
5.61789
5.61437
5.61431
5.61777
5.62439
5.63331
5.64416
5.66312
5.70272
5.74566
5.64881
5.83461
6.06508
5.70729
5.85716
5.81073
5.75365
5.7243
5.70972
5.69951
5.69187
5.68785
5.68758
5.6916
5.69879
5.70908
5.724
5.75352
5.81063
5.85634
5.70523
6.06207
6.26685
5.63337
5.88821
5.87511
5.81566
5.78142
5.76547
5.75548
5.74807
5.74405
5.74403
5.74802
5.75535
5.76573
5.78196
5.81615
5.87512
5.88695
5.63157
6.26597
6.62922
5.5281
5.90959
5.94152
5.86866
5.81896
5.79567
5.78253
5.77365
5.76896
5.76908
5.77409
5.78288
5.79711
5.81959
5.8696
5.94037
5.90846
5.5284
6.63184
7.68266
5.53532
5.86373
5.96306
5.90006
5.84541
5.82091
5.80882
5.80143
5.79733
5.7976
5.80113
5.80831
5.82081
5.84482
5.89973
5.96294
5.86442
5.53649
7.6822
9.63345
5.22042
5.31878
5.70749
5.79953
5.79898
5.79632
5.79565
5.79428
5.79307
5.79309
5.79428
5.79564
5.79636
5.79897
5.79953
5.70746
5.31881
5.22054
9.63355
0.0288619
0.0385625
0.0381727
0.0414527
0.039902
0.0395736
0.0415413
0.0439121
0.0454627
0.046141
0.0465097
0.0469087
0.0475807
0.0490247
0.0518496
0.0565752
0.0602925
0.058203
0.0619413
0.0598955
0.125995
0.143173
0.151306
0.160917
0.164589
0.164826
0.16459
0.165018
0.165535
0.165871
0.166569
0.167878
0.171068
0.176522
0.184621
0.192811
0.196732
0.196003
0.197798
0.18954
0.284597
0.289603
0.296836
0.300449
0.297716
0.293001
0.289321
0.287327
0.286249
0.285709
0.285291
0.28549
0.285788
0.286771
0.287934
0.290071
0.294945
0.301542
0.305868
0.305713
0.425548
0.425394
0.426817
0.427824
0.423947
0.417077
0.410942
0.407045
0.40495
0.403776
0.40286
0.401889
0.399956
0.396013
0.387975
0.375108
0.359475
0.348098
0.351191
0.361724
0.532332
0.528609
0.526361
0.531098
0.535975
0.537421
0.535444
0.532222
0.529312
0.527431
0.525993
0.524714
0.522509
0.518557
0.511216
0.499731
0.486592
0.477848
0.475235
0.474584
0.642765
0.640971
0.639457
0.646072
0.654366
0.659033
0.659273
0.657295
0.65461
0.652783
0.651194
0.650105
0.648864
0.64788
0.647287
0.648345
0.651913
0.655243
0.64954
0.634592
0.776875
0.780563
0.776061
0.771564
0.771981
0.774453
0.776495
0.777338
0.777131
0.776689
0.77638
0.776824
0.7776
0.779261
0.782164
0.788064
0.795861
0.800035
0.796998
0.78714
0.900599
0.904311
0.89939
0.894999
0.893736
0.894673
0.895947
0.896579
0.896626
0.896585
0.897076
0.898472
0.901227
0.905189
0.910185
0.915848
0.920791
0.922682
0.922874
0.921342
1.00785
1.0208
1.02582
1.0222
1.01632
1.01209
1.01006
1.00923
1.00907
1.0093
1.00997
1.01134
1.01354
1.01706
1.0214
1.02555
1.0292
1.03143
1.03306
1.03398
1.07901
1.08826
1.09527
1.09837
1.10146
1.10631
1.11116
1.11505
1.11791
1.11995
1.12135
1.1224
1.12295
1.12259
1.12027
1.11585
1.10968
1.10446
1.10665
1.11255
1.17633
1.17438
1.17903
1.19248
1.20741
1.22064
1.22943
1.2348
1.23785
1.23956
1.24013
1.23959
1.23727
1.23284
1.22594
1.21664
1.20588
1.19744
1.19611
1.19676
1.35449
1.3607
1.36534
1.36877
1.37013
1.371
1.37149
1.37181
1.37165
1.37134
1.37041
1.36857
1.36507
1.35962
1.35251
1.34474
1.33828
1.33495
1.32972
1.31815
1.54083
1.55434
1.55522
1.5459
1.53206
1.52103
1.51434
1.51051
1.50812
1.5067
1.50599
1.50592
1.50641
1.50709
1.50715
1.50536
1.50131
1.49597
1.48833
1.47604
1.693
1.69405
1.68994
1.68651
1.67657
1.66372
1.65229
1.64429
1.63928
1.63674
1.63587
1.63669
1.63969
1.64541
1.65441
1.66569
1.67596
1.67942
1.67212
1.65814
1.81688
1.81587
1.80964
1.80356
1.7947
1.7834
1.77292
1.76507
1.76009
1.75733
1.75627
1.75689
1.75883
1.76253
1.76861
1.7781
1.78921
1.79591
1.797
1.79381
1.88155
1.8767
1.86967
1.8716
1.87756
1.88165
1.88204
1.87955
1.8767
1.87458
1.87374
1.87385
1.87474
1.87525
1.87455
1.87166
1.86547
1.85957
1.86541
1.87683
1.94326
1.94537
1.94705
1.95732
1.97234
1.9848
1.99205
1.9946
1.99477
1.99427
1.99434
1.99476
1.99479
1.99341
1.99014
1.98382
1.97507
1.96935
1.97194
1.97563
2.04598
2.06184
2.07124
2.07814
2.08791
2.09852
2.10725
2.11287
2.11572
2.11709
2.11817
2.11939
2.12045
2.12054
2.11901
2.11593
2.11326
2.11399
2.11307
2.10363
2.18533
2.20247
2.2128
2.21788
2.22162
2.22713
2.23319
2.23782
2.24044
2.2416
2.24229
2.24315
2.24454
2.24662
2.24847
2.24958
2.2503
2.25067
2.24828
2.23835
2.34805
2.36391
2.37276
2.3732
2.36834
2.36479
2.36436
2.3655
2.36656
2.36699
2.36694
2.36667
2.36658
2.3669
2.36798
2.37044
2.37443
2.37706
2.37532
2.36654
2.49947
2.50405
2.50708
2.50925
2.50522
2.49865
2.49349
2.49103
2.4904
2.49021
2.49036
2.49058
2.49098
2.49104
2.49056
2.48918
2.48738
2.48471
2.48355
2.48044
2.63192
2.63294
2.63252
2.63205
2.62749
2.62097
2.61543
2.61233
2.6113
2.61138
2.61183
2.61237
2.61306
2.61353
2.61407
2.61463
2.61563
2.61591
2.61305
2.6054
2.72924
2.72282
2.71876
2.72495
2.73134
2.73429
2.73506
2.73485
2.73464
2.7349
2.73543
2.73585
2.73569
2.73527
2.73505
2.7349
2.73457
2.73313
2.73072
2.72504
2.83755
2.83523
2.83358
2.84286
2.85424
2.86106
2.86393
2.86477
2.86478
2.86495
2.86546
2.86619
2.86679
2.86668
2.86553
2.86281
2.85854
2.85342
2.85091
2.84734
2.98791
2.99844
2.99874
2.99773
2.99936
3.00051
3.00023
2.99925
2.99835
2.99795
2.99854
3.0001
3.00249
3.00501
3.00674
3.00619
3.00262
2.99701
2.99375
2.98917
3.15179
3.1627
3.16141
3.15499
3.14803
3.1419
3.13644
3.13196
3.12891
3.12743
3.12748
3.1289
3.13196
3.13639
3.14258
3.15023
3.15756
3.16088
3.15855
3.1485
3.29076
3.29959
3.29725
3.28831
3.27728
3.26762
3.26018
3.25475
3.25129
3.2495
3.24885
3.24929
3.25019
3.25203
3.25548
3.26219
3.27248
3.28173
3.28357
3.27283
3.37421
3.37187
3.36683
3.36787
3.37023
3.37246
3.37354
3.37289
3.37152
3.37033
3.36983
3.36969
3.36954
3.36824
3.36439
3.35689
3.34599
3.33681
3.34015
3.34549
3.45703
3.45716
3.45807
3.46695
3.47771
3.48686
3.49263
3.4951
3.49538
3.49504
3.49508
3.49552
3.4956
3.49409
3.48993
3.48191
3.47087
3.46152
3.45913
3.45709
3.58078
3.59393
3.60109
3.60509
3.61
3.61508
3.61901
3.62146
3.62235
3.62261
3.62283
3.62351
3.62429
3.62489
3.62533
3.62603
3.62714
3.62773
3.62328
3.60881
3.72988
3.74307
3.74825
3.74927
3.74891
3.74934
3.75024
3.75099
3.75116
3.75097
3.75078
3.75117
3.75224
3.75484
3.75937
3.76589
3.77292
3.77653
3.77317
3.75799
3.89014
3.90344
3.9061
3.90048
3.89112
3.88447
3.88144
3.88033
3.87972
3.87933
3.87894
3.87871
3.87844
3.87804
3.87792
3.87968
3.88379
3.88696
3.88669
3.87753
4.02027
4.02506
4.02281
4.01865
4.01304
4.0094
4.0081
4.00799
4.00826
4.00849
4.00908
4.0097
4.01036
4.0097
4.00606
3.99815
3.98679
3.97709
3.97847
3.98118
4.1321
4.12945
4.12973
4.13852
4.14421
4.14488
4.14295
4.14088
4.13963
4.13941
4.14031
4.14207
4.14488
4.14802
4.15102
4.152
4.14943
4.14542
4.14285
4.13625
4.26733
4.27726
4.28389
4.28698
4.2859
4.28134
4.27591
4.27106
4.26766
4.26601
4.26585
4.2671
4.26929
4.2734
4.28068
4.29249
4.30715
4.31743
4.31495
4.2974
4.38789
4.39829
4.39896
4.39676
4.39572
4.39509
4.39389
4.39187
4.38974
4.38809
4.38711
4.38684
4.3869
4.38706
4.38726
4.38865
4.39243
4.39603
4.39818
4.39104
4.49209
4.49512
4.49221
4.49556
4.50198
4.50828
4.51244
4.51392
4.51382
4.51276
4.51189
4.51078
4.50912
4.50517
4.49706
4.48314
4.4661
4.45388
4.45619
4.46055
4.61782
4.62396
4.62405
4.62822
4.63377
4.63924
4.64369
4.64601
4.6466
4.64613
4.64571
4.64494
4.64375
4.64074
4.63516
4.62585
4.61346
4.60336
4.60001
4.59409
4.77319
4.78327
4.78594
4.78809
4.78864
4.78799
4.78727
4.78683
4.78632
4.78585
4.78574
4.78629
4.78726
4.78918
4.79284
4.79932
4.80732
4.81185
4.80603
4.78457
4.93623
4.9488
4.951
4.94723
4.94047
4.93388
4.92871
4.92563
4.92407
4.92387
4.92478
4.92717
4.93123
4.93755
4.94699
4.96022
4.97417
4.98172
4.97985
4.96361
5.06852
5.07554
5.07387
5.06968
5.06423
5.05999
5.05688
5.05499
5.05411
5.05446
5.0562
5.05993
5.06589
5.07423
5.08442
5.09522
5.10445
5.10906
5.11143
5.10601
5.17905
5.17719
5.17342
5.17768
5.18255
5.18466
5.1836
5.18171
5.18013
5.17986
5.18065
5.18304
5.18675
5.19163
5.19653
5.20001
5.20191
5.20297
5.20664
5.20456
5.30386
5.31092
5.31057
5.30989
5.30917
5.30764
5.30572
5.30392
5.30279
5.30259
5.30347
5.30492
5.30559
5.30388
5.29818
5.28796
5.27516
5.26591
5.26887
5.27021
5.41323
5.4238
5.4226
5.41894
5.41798
5.41989
5.42301
5.42522
5.4265
5.42725
5.42825
5.42888
5.42817
5.42402
5.41535
5.40235
5.38723
5.3755
5.37271
5.36584
5.52395
5.52621
5.52602
5.53649
5.54886
5.55753
5.56129
5.56166
5.56042
5.55878
5.55699
5.55491
5.55181
5.54752
5.54238
5.53784
5.53481
5.53139
5.52288
5.50034
5.69862
5.71587
5.72341
5.72488
5.72173
5.71609
5.70966
5.70361
5.69826
5.69388
5.69017
5.68656
5.68239
5.67753
5.67282
5.66889
5.66523
5.65926
5.65163
5.63279
5.85419
5.87679
5.88204
5.87241
5.85756
5.84566
5.83789
5.8328
5.82922
5.82651
5.82488
5.82383
5.82322
5.8222
5.82067
5.81809
5.81408
5.80719
5.80161
5.78913
5.93717
5.9391
5.9367
5.94151
5.94752
5.95335
5.9571
5.95886
5.95948
5.96005
5.96109
5.96332
5.96711
5.97262
5.97975
5.98767
5.99455
5.99652
5.9936
5.97878
6.03912
6.03626
6.03651
6.05166
6.06967
6.08366
6.09185
6.09564
6.09707
6.09819
6.09991
6.10332
6.10878
6.11722
6.12847
6.14133
6.15276
6.159
6.16177
6.15114
6.21917
6.23311
6.23892
6.24198
6.24295
6.24272
6.24222
6.24114
6.23958
6.23871
6.23903
6.24153
6.24611
6.25272
6.25998
6.26641
6.27097
6.27413
6.28111
6.27758
6.41443
6.43619
6.43848
6.42787
6.4124
6.39837
6.38826
6.38147
6.37721
6.37501
6.37501
6.37704
6.38019
6.38285
6.38263
6.37771
6.3695
6.36451
6.37203
6.37278
6.5424
6.55141
6.54736
6.54153
6.53232
6.52244
6.51408
6.50832
6.50514
6.50419
6.50535
6.50802
6.51108
6.51268
6.51096
6.50492
6.496
6.49022
6.49327
6.48613
6.61707
6.61323
6.60716
6.61538
6.62602
6.6329
6.6345
6.63341
6.63171
6.63132
6.632
6.63381
6.63552
6.63692
6.63741
6.638
6.63991
6.64218
6.63932
6.61581
6.7116
6.71686
6.71749
6.72948
6.7448
6.75652
6.76204
6.76317
6.76201
6.76097
6.76042
6.7604
6.75982
6.75788
6.75397
6.74942
6.74595
6.74238
6.73847
6.71816
6.85054
6.87137
6.87588
6.87933
6.88501
6.89148
6.89572
6.89689
6.89572
6.89366
6.89196
6.89054
6.88869
6.88482
6.87811
6.86886
6.85918
6.84912
6.84308
6.82744
7.01411
7.03829
7.0428
7.04124
7.03754
7.0357
7.03462
7.03308
7.0307
7.02803
7.02561
7.02342
7.02108
7.01814
7.01488
7.01158
7.00858
7.00286
6.9952
6.9743
7.16711
7.18865
7.19089
7.18588
7.17646
7.16957
7.16614
7.16455
7.16338
7.16215
7.16101
7.16009
7.15932
7.1588
7.15913
7.16103
7.16329
7.16101
7.15642
7.13626
7.27871
7.28455
7.28052
7.28541
7.28929
7.29279
7.29573
7.29766
7.29845
7.29878
7.29903
7.29988
7.30162
7.3045
7.30824
7.31239
7.31504
7.31285
7.31194
7.29596
7.40824
7.41364
7.41143
7.42237
7.43182
7.43682
7.43845
7.43851
7.43801
7.43781
7.43855
7.44087
7.44477
7.45004
7.45555
7.4593
7.45857
7.45311
7.45445
7.44255
7.57928
7.60285
7.60411
7.60093
7.59411
7.58715
7.582
7.5786
7.5764
7.5753
7.57561
7.57754
7.5812
7.5864
7.59273
7.59841
7.59985
7.59655
7.59938
7.58554
7.72875
7.75346
7.74881
7.73968
7.72963
7.72275
7.71864
7.716
7.71395
7.71265
7.71207
7.71253
7.71342
7.71522
7.7183
7.72287
7.72831
7.73332
7.74022
7.72046
7.85405
7.86747
7.86132
7.86652
7.86902
7.86714
7.86248
7.85784
7.85437
7.85253
7.85221
7.85322
7.85492
7.85618
7.85547
7.85262
7.84905
7.84821
7.85755
7.84104
8.00196
8.02789
8.02614
8.02493
8.01893
8.01055
8.00249
7.99639
7.99252
7.99093
7.99152
7.99429
7.99872
8.00409
8.00848
8.00999
8.00897
8.00695
8.01028
7.9844
8.12465
8.1571
8.15393
8.14864
8.14114
8.13536
8.13147
8.12882
8.12728
8.12705
8.1284
8.13159
8.13673
8.14347
8.15115
8.15907
8.16605
8.16795
8.16848
8.13506
8.22595
8.25057
8.24771
8.25892
8.2677
8.27133
8.27056
8.26802
8.26588
8.2651
8.2659
8.26843
8.27209
8.2768
8.28207
8.28738
8.29251
8.29378
8.296
8.26309
8.37601
8.41658
8.4207
8.42624
8.42588
8.42199
8.4164
8.41073
8.40647
8.40419
8.40434
8.40633
8.40973
8.41269
8.41393
8.41229
8.40779
8.3998
8.40105
8.37133
8.52327
8.57365
8.5774
8.57518
8.5667
8.55871
8.55211
8.54678
8.54283
8.54086
8.54108
8.54334
8.54658
8.54927
8.55001
8.54768
8.54319
8.53536
8.53338
8.49523
8.63352
8.67404
8.67543
8.68554
8.68922
8.68809
8.68427
8.68049
8.67777
8.67681
8.67758
8.67979
8.68284
8.68552
8.68695
8.68621
8.68293
8.67497
8.67184
8.62881
8.75628
8.79941
8.8027
8.81394
8.81995
8.82146
8.81958
8.81676
8.81447
8.81367
8.81442
8.81668
8.81967
8.82276
8.82537
8.82658
8.82588
8.8196
8.8165
8.77076
8.89423
8.9369
8.93895
8.95201
8.9606
8.96431
8.96297
8.95879
8.95455
8.9519
8.9511
8.95164
8.95304
8.95409
8.95479
8.95491
8.95384
8.94808
8.94741
8.90382
9.05135
9.09924
9.10054
9.10792
9.11009
9.10849
9.10419
9.0984
9.09312
9.08924
9.08725
9.08648
9.08592
9.08415
9.08042
9.07425
9.06648
9.05725
9.05994
9.02183
9.18526
9.23294
9.22872
9.22979
9.23061
9.23227
9.23322
9.23227
9.23051
9.22876
9.22821
9.22817
9.22827
9.22661
9.22164
9.21211
9.19878
9.1858
9.19026
9.15621
9.29764
9.32807
9.3174
9.3313
9.34888
9.36343
9.3717
9.37474
9.37497
9.37482
9.37566
9.37775
9.3806
9.38354
9.38586
9.38622
9.38383
9.37917
9.38422
9.3455
9.47546
9.51503
9.50791
9.51232
9.51809
9.52338
9.52631
9.52686
9.52558
9.52444
9.52427
9.52572
9.52895
9.53433
9.54311
9.5568
9.57417
9.58814
9.59677
9.54936
9.66627
9.71495
9.70764
9.69653
9.68512
9.67836
9.67553
9.67371
9.67189
9.6701
9.66912
9.66944
9.6709
9.6738
9.67807
9.68469
9.69389
9.70399
9.71983
9.68756
9.80361
9.83818
9.8244
9.81591
9.81057
9.80982
9.8119
9.81391
9.81522
9.81542
9.81578
9.81632
9.81758
9.81841
9.81696
9.81166
9.80309
9.79963
9.81592
9.7985
9.94077
9.96071
9.94443
9.94293
9.94664
9.95268
9.95861
9.9632
9.96599
9.96765
9.96906
9.97103
9.97345
9.97571
9.9767
9.97564
9.97239
9.97245
9.9821
9.95519
10.1479
10.177
10.1654
10.1539
10.1419
10.1327
10.1282
10.127
10.1267
10.1269
10.1274
10.129
10.1317
10.1361
10.1427
10.1529
10.1656
10.1781
10.183
10.1412
10.3733
10.4154
10.4077
10.3808
10.3472
10.3182
10.3003
10.2913
10.2875
10.2862
10.2863
10.2878
10.2906
10.2958
10.3043
10.3162
10.3286
10.339
10.3426
10.3059
10.5262
10.5597
10.5548
10.5372
10.5112
10.4836
10.4632
10.4511
10.4457
10.4442
10.4452
10.4481
10.4533
10.461
10.4708
10.4819
10.4904
10.4955
10.4947
10.4645
10.6162
10.6424
10.6508
10.6578
10.6553
10.6409
10.6241
10.6113
10.604
10.6017
10.6027
10.6066
10.6133
10.6235
10.6367
10.6512
10.6621
10.6676
10.6598
10.6254
10.6972
10.7353
10.7635
10.786
10.7984
10.7939
10.7818
10.7698
10.7618
10.7586
10.759
10.7628
10.7692
10.7785
10.79