/*--------------------------------*- C++ -*----------------------------------*\
  =========                 |
  \\      /  F ield         | OpenFOAM: The Open Source CFD Toolbox
   \\    /   O peration     | Website:  https://openfoam.org
    \\  /    A nd           | Version:  6
     \\/     M anipulation  |
\*---------------------------------------------------------------------------*/
FoamFile
{
    version     2.0;
    format      ascii;
    class       surfaceScalarField;
    location    "30";
    object      phi;
}
// * * * * * * * * * * * * * * * * * * * * * * * * * * * * * * * * * * * * * //

dimensions      [0 3 -1 0 0 0 0];

internalField   nonuniform List<scalar> 
258600
(
-1.08419e-08
-8.50618e-08
1.05291e-08
-1.1138e-08
-9.02666e-08
-1.14039e-08
-9.53959e-08
-1.16427e-08
-1.0042e-07
-1.18571e-08
-1.05302e-07
-1.20487e-08
-1.10011e-07
-1.22204e-08
-1.14523e-07
-1.23736e-08
-1.18819e-07
-1.25108e-08
-1.22883e-07
-1.26332e-08
-1.26703e-07
-1.2743e-08
-1.3027e-07
-1.28413e-08
-1.33579e-07
-1.29298e-08
-1.36629e-07
-1.30096e-08
-1.3942e-07
-1.3082e-08
-1.41957e-07
-1.31477e-08
-1.44248e-07
-1.32081e-08
-1.46304e-07
-1.32636e-08
-1.48136e-07
-1.33153e-08
-1.49762e-07
-1.512e-07
-1.33639e-08
-1.15392e-08
-8.48257e-08
1.12999e-08
-1.17699e-08
-9.0037e-08
-1.19866e-08
-9.51802e-08
-1.21868e-08
-1.00221e-07
-1.2369e-08
-1.05121e-07
-1.25343e-08
-1.09848e-07
-1.26824e-08
-1.14377e-07
-1.28158e-08
-1.18688e-07
-1.29345e-08
-1.22766e-07
-1.30413e-08
-1.26598e-07
-1.31365e-08
-1.30176e-07
-1.32225e-08
-1.33495e-07
-1.32996e-08
-1.36553e-07
-1.337e-08
-1.39351e-07
-1.34335e-08
-1.41895e-07
-1.34924e-08
-1.44191e-07
-1.35462e-08
-1.46251e-07
-1.35968e-08
-1.48087e-07
-1.36439e-08
-1.49716e-07
-1.51156e-07
-1.36897e-08
-1.2599e-08
-8.46375e-08
1.2409e-08
-1.27822e-08
-8.98555e-08
-1.29516e-08
-9.50111e-08
-1.3109e-08
-1.00066e-07
-1.32508e-08
-1.04981e-07
-1.33801e-08
-1.09721e-07
-1.34947e-08
-1.14264e-07
-1.35985e-08
-1.18587e-07
-1.36898e-08
-1.22676e-07
-1.37727e-08
-1.26518e-07
-1.38456e-08
-1.30104e-07
-1.39125e-08
-1.3343e-07
-1.39718e-08
-1.36494e-07
-1.40272e-08
-1.39298e-07
-1.4077e-08
-1.41846e-07
-1.41245e-08
-1.44145e-07
-1.41681e-08
-1.46207e-07
-1.42109e-08
-1.48046e-07
-1.42509e-08
-1.49676e-07
-1.51117e-07
-1.42916e-08
-1.40661e-08
-8.45258e-08
1.39501e-08
-1.41783e-08
-8.97462e-08
-1.4281e-08
-9.49089e-08
-1.43784e-08
-9.99726e-08
-1.44647e-08
-1.04896e-07
-1.45446e-08
-1.09646e-07
-1.46135e-08
-1.14197e-07
-1.46767e-08
-1.18528e-07
-1.47304e-08
-1.22624e-07
-1.47801e-08
-1.26472e-07
-1.48221e-08
-1.30064e-07
-1.4862e-08
-1.33394e-07
-1.48962e-08
-1.36461e-07
-1.493e-08
-1.39267e-07
-1.49598e-08
-1.41817e-07
-1.49905e-08
-1.44117e-07
-1.50186e-08
-1.4618e-07
-1.50487e-08
-1.48018e-07
-1.5077e-08
-1.49648e-07
-1.51088e-07
-1.51084e-08
-1.5783e-08
-8.44789e-08
1.57319e-08
-1.58302e-08
-8.97028e-08
-1.58678e-08
-9.48716e-08
-1.59037e-08
-9.99413e-08
-1.59307e-08
-1.0487e-07
-1.59562e-08
-1.09626e-07
-1.59735e-08
-1.14182e-07
-1.599e-08
-1.18517e-07
-1.59996e-08
-1.22617e-07
-1.60095e-08
-1.26467e-07
-1.60144e-08
-1.30061e-07
-1.60211e-08
-1.33392e-07
-1.60245e-08
-1.36459e-07
-1.60309e-08
-1.39265e-07
-1.60355e-08
-1.41813e-07
-1.6044e-08
-1.44112e-07
-1.60518e-08
-1.46173e-07
-1.60644e-08
-1.48009e-07
-1.60765e-08
-1.49636e-07
-1.51073e-07
-1.60943e-08
-1.76797e-08
-8.44932e-08
1.76878e-08
-1.76661e-08
-8.97214e-08
-1.76418e-08
-9.48966e-08
-1.76176e-08
-9.99712e-08
-1.75856e-08
-1.04904e-07
-1.75552e-08
-1.09662e-07
-1.75187e-08
-1.1422e-07
-1.74852e-08
-1.18557e-07
-1.74472e-08
-1.22657e-07
-1.74135e-08
-1.26507e-07
-1.73773e-08
-1.30099e-07
-1.73465e-08
-1.33428e-07
-1.73149e-08
-1.36493e-07
-1.72897e-08
-1.39295e-07
-1.72648e-08
-1.41839e-07
-1.7247e-08
-1.44134e-07
-1.72302e-08
-1.46191e-07
-1.72211e-08
-1.48022e-07
-1.7213e-08
-1.49644e-07
-1.51077e-07
-1.7213e-08
-1.96984e-08
-8.45592e-08
1.9759e-08
-1.96295e-08
-8.97956e-08
-1.95474e-08
-9.49793e-08
-1.94658e-08
-1.00059e-07
-1.93766e-08
-1.04995e-07
-1.92912e-08
-1.09755e-07
-1.92012e-08
-1.14313e-07
-1.91171e-08
-1.18648e-07
-1.90305e-08
-1.22746e-07
-1.89514e-08
-1.26592e-07
-1.88718e-08
-1.3018e-07
-1.88011e-08
-1.33504e-07
-1.87315e-08
-1.36564e-07
-1.86715e-08
-1.3936e-07
-1.86138e-08
-1.41898e-07
-1.85661e-08
-1.44187e-07
-1.85213e-08
-1.46236e-07
-1.84867e-08
-1.48061e-07
-1.84547e-08
-1.49676e-07
-1.51102e-07
-1.84333e-08
-2.17928e-08
-8.46771e-08
2.19034e-08
-2.16721e-08
-8.99236e-08
-2.15372e-08
-9.5116e-08
-2.14028e-08
-1.00201e-07
-2.12607e-08
-1.0514e-07
-2.11235e-08
-1.099e-07
-2.09823e-08
-1.14457e-07
-2.08487e-08
-1.1879e-07
-2.07141e-08
-1.22883e-07
-2.05893e-08
-1.26724e-07
-2.04658e-08
-1.30306e-07
-2.03536e-08
-1.33623e-07
-2.02444e-08
-1.36675e-07
-2.01475e-08
-1.39463e-07
-2.00547e-08
-1.41992e-07
-1.99744e-08
-1.44272e-07
-1.98987e-08
-1.46313e-07
-1.98357e-08
-1.48129e-07
-1.97768e-08
-1.49736e-07
-1.51153e-07
-1.97307e-08
-2.39299e-08
-8.48404e-08
2.40837e-08
-2.37635e-08
-9.0098e-08
-2.35821e-08
-9.53004e-08
-2.33998e-08
-1.00392e-07
-2.32091e-08
-1.05334e-07
-2.3023e-08
-1.10095e-07
-2.28331e-08
-1.1465e-07
-2.26517e-08
-1.1898e-07
-2.24702e-08
-1.23068e-07
-2.23e-08
-1.26902e-07
-2.21325e-08
-1.30476e-07
-2.19782e-08
-1.33785e-07
-2.18285e-08
-1.36827e-07
-2.16931e-08
-1.39604e-07
-2.15634e-08
-1.42124e-07
-2.14485e-08
-1.44393e-07
-2.13397e-08
-1.46423e-07
-2.12458e-08
-1.48228e-07
-2.11575e-08
-1.49824e-07
-1.51232e-07
-2.10842e-08
-2.6105e-08
-8.50451e-08
2.63e-08
-2.58944e-08
-9.03172e-08
-2.56678e-08
-9.55306e-08
-2.54392e-08
-1.0063e-07
-2.5202e-08
-1.05576e-07
-2.49689e-08
-1.10338e-07
-2.47323e-08
-1.14891e-07
-2.45045e-08
-1.19216e-07
-2.42773e-08
-1.23298e-07
-2.40623e-08
-1.27126e-07
-2.38512e-08
-1.30691e-07
-2.36545e-08
-1.33989e-07
-2.34638e-08
-1.3702e-07
-2.32891e-08
-1.39786e-07
-2.31216e-08
-1.42293e-07
-2.29705e-08
-1.4455e-07
-2.28272e-08
-1.46568e-07
-2.27005e-08
-1.4836e-07
-2.25809e-08
-1.49944e-07
-1.5134e-07
-2.2478e-08
-2.82806e-08
-8.52807e-08
2.85067e-08
-2.80345e-08
-9.05713e-08
-2.77697e-08
-9.57993e-08
-2.74998e-08
-1.00908e-07
-2.722e-08
-1.0586e-07
-2.69429e-08
-1.10624e-07
-2.66621e-08
-1.15176e-07
-2.63896e-08
-1.19498e-07
-2.61182e-08
-1.23574e-07
-2.58593e-08
-1.27393e-07
-2.5605e-08
-1.30948e-07
-2.53661e-08
-1.34235e-07
-2.51343e-08
-1.37254e-07
-2.49196e-08
-1.40008e-07
-2.47134e-08
-1.42502e-07
-2.45251e-08
-1.44745e-07
-2.43459e-08
-1.46748e-07
-2.41849e-08
-1.48527e-07
-2.40323e-08
-1.50098e-07
-1.5148e-07
-2.38981e-08
-3.04738e-08
-8.55508e-08
3.07356e-08
-3.01894e-08
-9.08628e-08
-2.98853e-08
-9.61069e-08
-2.95745e-08
-1.01227e-07
-2.92534e-08
-1.06185e-07
-2.89337e-08
-1.10952e-07
-2.86103e-08
-1.15504e-07
-2.82945e-08
-1.19823e-07
-2.79802e-08
-1.23892e-07
-2.76782e-08
-1.27703e-07
-2.73815e-08
-1.31249e-07
-2.71006e-08
-1.34524e-07
-2.68277e-08
-1.3753e-07
-2.65728e-08
-1.4027e-07
-2.63274e-08
-1.42749e-07
-2.6101e-08
-1.44978e-07
-2.5885e-08
-1.46966e-07
-2.56884e-08
-1.4873e-07
-2.55015e-08
-1.50286e-07
-1.51653e-07
-2.53344e-08
-3.26541e-08
-8.58506e-08
3.2947e-08
-3.23371e-08
-9.1186e-08
-3.19989e-08
-9.64483e-08
-3.16514e-08
-1.01582e-07
-3.12922e-08
-1.06549e-07
-3.09324e-08
-1.1132e-07
-3.05682e-08
-1.15873e-07
-3.02106e-08
-1.20189e-07
-2.98542e-08
-1.24253e-07
-2.95099e-08
-1.28056e-07
-2.91712e-08
-1.31591e-07
-2.88484e-08
-1.34855e-07
-2.85343e-08
-1.37848e-07
-2.82386e-08
-1.40573e-07
-2.79536e-08
-1.43037e-07
-2.76883e-08
-1.4525e-07
-2.74344e-08
-1.47222e-07
-2.7201e-08
-1.4897e-07
-2.69786e-08
-1.50509e-07
-1.51861e-07
-2.67771e-08
-3.48379e-08
-8.61799e-08
3.51606e-08
-3.44886e-08
-9.15412e-08
-3.41163e-08
-9.68239e-08
-3.37324e-08
-1.01973e-07
-3.33354e-08
-1.0695e-07
-3.2936e-08
-1.11728e-07
-3.25316e-08
-1.16282e-07
-3.21324e-08
-1.20596e-07
-3.17345e-08
-1.24655e-07
-3.13479e-08
-1.28451e-07
-3.09674e-08
-1.31975e-07
-3.06025e-08
-1.35227e-07
-3.0247e-08
-1.38206e-07
-2.99102e-08
-1.40917e-07
-2.95849e-08
-1.43365e-07
-2.92798e-08
-1.45561e-07
-2.89874e-08
-1.47517e-07
-2.87161e-08
-1.49247e-07
-2.84571e-08
-1.5077e-07
-1.52104e-07
-2.82198e-08
-3.7017e-08
-8.65358e-08
3.73655e-08
-3.66376e-08
-9.19266e-08
-3.62325e-08
-9.72328e-08
-3.58128e-08
-1.02399e-07
-3.53787e-08
-1.07389e-07
-3.494e-08
-1.12174e-07
-3.44957e-08
-1.16731e-07
-3.40552e-08
-1.21044e-07
-3.36158e-08
-1.25099e-07
-3.31869e-08
-1.28887e-07
-3.27643e-08
-1.32402e-07
-3.2357e-08
-1.35642e-07
-3.19597e-08
-1.38607e-07
-3.1581e-08
-1.41302e-07
-3.12147e-08
-1.43735e-07
-3.0869e-08
-1.45914e-07
-3.05369e-08
-1.47852e-07
-3.02266e-08
-1.49564e-07
-2.99298e-08
-1.51068e-07
-1.52384e-07
-2.96555e-08
-3.91902e-08
-8.69185e-08
3.95655e-08
-3.8781e-08
-9.23417e-08
-3.83437e-08
-9.76741e-08
-3.7889e-08
-1.0286e-07
-3.74182e-08
-1.07864e-07
-3.69408e-08
-1.12658e-07
-3.64567e-08
-1.1722e-07
-3.5975e-08
-1.21533e-07
-3.54942e-08
-1.25584e-07
-3.50227e-08
-1.29366e-07
-3.45578e-08
-1.32871e-07
-3.41075e-08
-1.36099e-07
-3.36679e-08
-1.39051e-07
-3.32466e-08
-1.4173e-07
-3.28386e-08
-1.44146e-07
-3.24512e-08
-1.46307e-07
-3.20785e-08
-1.48227e-07
-3.17279e-08
-1.49921e-07
-3.13923e-08
-1.51406e-07
-1.52703e-07
-3.10795e-08
-4.13657e-08
-8.73313e-08
4.17717e-08
-4.09235e-08
-9.2789e-08
-4.04524e-08
-9.81491e-08
-3.99616e-08
-1.03357e-07
-3.94537e-08
-1.08376e-07
-3.89371e-08
-1.13181e-07
-3.84131e-08
-1.17748e-07
-3.78898e-08
-1.22063e-07
-3.73671e-08
-1.26111e-07
-3.68525e-08
-1.29887e-07
-3.63446e-08
-1.33383e-07
-3.58506e-08
-1.36599e-07
-3.53677e-08
-1.39537e-07
-3.49027e-08
-1.42201e-07
-3.44519e-08
-1.446e-07
-3.40215e-08
-1.46743e-07
-3.36071e-08
-1.48645e-07
-3.32149e-08
-1.50319e-07
-3.2839e-08
-1.51784e-07
-1.53061e-07
-3.24863e-08
-4.35313e-08
-8.77709e-08
4.39667e-08
-4.3059e-08
-9.32657e-08
-4.25558e-08
-9.86561e-08
-4.20298e-08
-1.03888e-07
-4.14849e-08
-1.08925e-07
-4.09289e-08
-1.13742e-07
-4.03644e-08
-1.18317e-07
-3.97987e-08
-1.22634e-07
-3.92332e-08
-1.26681e-07
-3.86745e-08
-1.30451e-07
-3.81226e-08
-1.33939e-07
-3.75837e-08
-1.37144e-07
-3.70564e-08
-1.40068e-07
-3.65465e-08
-1.42717e-07
-3.60516e-08
-1.45098e-07
-3.5577e-08
-1.47224e-07
-3.51194e-08
-1.49105e-07
-3.4684e-08
-1.5076e-07
-3.42665e-08
-1.52204e-07
-1.53461e-07
-3.38723e-08
-4.57085e-08
-8.8241e-08
4.61732e-08
-4.52027e-08
-9.3776e-08
-4.46641e-08
-9.91991e-08
-4.40998e-08
-1.04457e-07
-4.35154e-08
-1.09514e-07
-4.29177e-08
-1.14345e-07
-4.2311e-08
-1.18928e-07
-4.17014e-08
-1.23249e-07
-4.10915e-08
-1.27295e-07
-4.04872e-08
-1.3106e-07
-3.98899e-08
-1.3454e-07
-3.93045e-08
-1.37734e-07
-3.87313e-08
-1.40645e-07
-3.81749e-08
-1.43278e-07
-3.76343e-08
-1.45643e-07
-3.71137e-08
-1.47749e-07
-3.66112e-08
-1.49611e-07
-3.6131e-08
-1.51245e-07
-3.56701e-08
-1.52668e-07
-1.53903e-07
-3.52328e-08
-4.7881e-08
-8.87383e-08
4.83725e-08
-4.73433e-08
-9.4318e-08
-4.67695e-08
-9.97775e-08
-4.61664e-08
-1.05064e-07
-4.55417e-08
-1.10143e-07
-4.49012e-08
-1.14989e-07
-4.42509e-08
-1.19583e-07
-4.35958e-08
-1.23908e-07
-4.29402e-08
-1.27955e-07
-4.22888e-08
-1.31716e-07
-4.16443e-08
-1.35189e-07
-4.10109e-08
-1.38372e-07
-4.03901e-08
-1.4127e-07
-3.97855e-08
-1.43888e-07
-3.91974e-08
-1.46234e-07
-3.86291e-08
-1.48322e-07
-3.808e-08
-1.50164e-07
-3.75531e-08
-1.51776e-07
-3.70469e-08
-1.53178e-07
-1.54389e-07
-3.65645e-08
-5.00586e-08
-8.92683e-08
5.05832e-08
-4.94844e-08
-9.48954e-08
-4.88728e-08
-1.00394e-07
-4.82292e-08
-1.05711e-07
-4.75627e-08
-1.10814e-07
-4.68779e-08
-1.15677e-07
-4.61826e-08
-1.20282e-07
-4.54805e-08
-1.24614e-07
-4.47776e-08
-1.28662e-07
-4.40773e-08
-1.3242e-07
-4.3384e-08
-1.35886e-07
-4.27007e-08
-1.39059e-07
-4.20304e-08
-1.41944e-07
-4.13754e-08
-1.44546e-07
-4.07379e-08
-1.46876e-07
-4.01197e-08
-1.48944e-07
-3.95219e-08
-1.50765e-07
-3.89462e-08
-1.52356e-07
-3.83928e-08
-1.53735e-07
-1.54923e-07
-3.78632e-08
-5.22289e-08
-8.98294e-08
5.27874e-08
-5.16199e-08
-9.55066e-08
-5.09712e-08
-1.01046e-07
-5.02871e-08
-1.06397e-07
-4.95781e-08
-1.11527e-07
-4.8848e-08
-1.1641e-07
-4.81061e-08
-1.21028e-07
-4.73552e-08
-1.25367e-07
-4.66031e-08
-1.29418e-07
-4.58519e-08
-1.33174e-07
-4.51078e-08
-1.36634e-07
-4.43723e-08
-1.39798e-07
-4.36504e-08
-1.4267e-07
-4.2943e-08
-1.45257e-07
-4.22537e-08
-1.47569e-07
-4.15834e-08
-1.49618e-07
-4.09346e-08
-1.51418e-07
-4.03077e-08
-1.52986e-07
-3.97048e-08
-1.54341e-07
-1.55505e-07
-3.91258e-08
-5.44133e-08
-9.04261e-08
5.50067e-08
-5.37653e-08
-9.61565e-08
-5.30755e-08
-1.0174e-07
-5.23473e-08
-1.07128e-07
-5.15925e-08
-1.12286e-07
-5.08142e-08
-1.1719e-07
-5.00228e-08
-1.21823e-07
-4.92207e-08
-1.26171e-07
-4.84166e-08
-1.30226e-07
-4.76121e-08
-1.33981e-07
-4.68144e-08
-1.37436e-07
-4.60244e-08
-1.40591e-07
-4.5248e-08
-1.4345e-07
-4.44856e-08
-1.46022e-07
-4.3742e-08
-1.48317e-07
-4.30169e-08
-1.50346e-07
-4.23145e-08
-1.52124e-07
-4.16339e-08
-1.5367e-07
-4.09789e-08
-1.55001e-07
-1.56139e-07
-4.0348e-08
-5.65972e-08
-9.10553e-08
5.72232e-08
-5.59114e-08
-9.68441e-08
-5.51798e-08
-1.02476e-07
-5.44061e-08
-1.07903e-07
-5.36036e-08
-1.13092e-07
-5.27748e-08
-1.1802e-07
-5.19317e-08
-1.2267e-07
-5.10757e-08
-1.27029e-07
-5.0217e-08
-1.31088e-07
-4.93563e-08
-1.34844e-07
-4.85024e-08
-1.38294e-07
-4.7655e-08
-1.4144e-07
-4.68215e-08
-1.44288e-07
-4.60012e-08
-1.46845e-07
-4.52005e-08
-1.49122e-07
-4.44178e-08
-1.51131e-07
-4.3659e-08
-1.52888e-07
-4.2922e-08
-1.54409e-07
-4.22121e-08
-1.55715e-07
-1.56827e-07
-4.15265e-08
-5.87909e-08
-9.17229e-08
5.94554e-08
-5.80624e-08
-9.75736e-08
-5.72857e-08
-1.03257e-07
-5.64637e-08
-1.08726e-07
-5.56109e-08
-1.13949e-07
-5.47292e-08
-1.18903e-07
-5.38317e-08
-1.23572e-07
-5.29192e-08
-1.27943e-07
-5.20032e-08
-1.32008e-07
-5.10835e-08
-1.35765e-07
-5.01703e-08
-1.39211e-07
-4.92624e-08
-1.4235e-07
-4.83687e-08
-1.45186e-07
-4.74874e-08
-1.47728e-07
-4.66263e-08
-1.49987e-07
-4.5783e-08
-1.51976e-07
-4.49646e-08
-1.53711e-07
-4.41681e-08
-1.55208e-07
-4.34003e-08
-1.56488e-07
-1.57573e-07
-4.26571e-08
-6.09818e-08
-9.24274e-08
6.16852e-08
-6.02118e-08
-9.83438e-08
-5.93898e-08
-1.04082e-07
-5.85188e-08
-1.09597e-07
-5.7614e-08
-1.14857e-07
-5.66773e-08
-1.1984e-07
-5.57227e-08
-1.2453e-07
-5.4751e-08
-1.28915e-07
-5.37746e-08
-1.32989e-07
-5.27929e-08
-1.36748e-07
-5.1817e-08
-1.40191e-07
-5.08454e-08
-1.43323e-07
-4.98881e-08
-1.46148e-07
-4.89424e-08
-1.48676e-07
-4.80175e-08
-1.50917e-07
-4.71103e-08
-1.52886e-07
-4.62288e-08
-1.54597e-07
-4.53694e-08
-1.5607e-07
-4.45403e-08
-1.57323e-07
-1.58379e-07
-4.37361e-08
-6.31908e-08
-9.31738e-08
6.3935e-08
-6.23744e-08
-9.91605e-08
-6.15023e-08
-1.04958e-07
-6.05775e-08
-1.10522e-07
-5.96164e-08
-1.15822e-07
-5.86208e-08
-1.20836e-07
-5.76055e-08
-1.25549e-07
-5.65709e-08
-1.2995e-07
-5.55304e-08
-1.34034e-07
-5.44831e-08
-1.37796e-07
-5.3441e-08
-1.41238e-07
-5.2402e-08
-1.44363e-07
-5.13773e-08
-1.47177e-07
-5.03637e-08
-1.49691e-07
-4.93712e-08
-1.51914e-07
-4.83962e-08
-1.53862e-07
-4.74479e-08
-1.55551e-07
-4.6522e-08
-1.56997e-07
-4.56277e-08
-1.58223e-07
-1.59249e-07
-4.47591e-08
-6.5401e-08
-9.39597e-08
6.6185e-08
-6.45389e-08
-1.00023e-07
-6.36157e-08
-1.05885e-07
-6.26354e-08
-1.11503e-07
-6.16155e-08
-1.16846e-07
-6.05579e-08
-1.21894e-07
-5.94786e-08
-1.26632e-07
-5.83775e-08
-1.31052e-07
-5.72693e-08
-1.35146e-07
-5.61525e-08
-1.38913e-07
-5.50403e-08
-1.42355e-07
-5.39302e-08
-1.45474e-07
-5.28341e-08
-1.48278e-07
-5.17485e-08
-1.50778e-07
-5.06846e-08
-1.52984e-07
-4.96379e-08
-1.54911e-07
-4.86189e-08
-1.56575e-07
-4.76225e-08
-1.57996e-07
-4.66591e-08
-1.59192e-07
-1.60188e-07
-4.57221e-08
-6.7624e-08
-9.47913e-08
6.8453e-08
-6.67112e-08
-1.00936e-07
-6.57329e-08
-1.06867e-07
-6.46934e-08
-1.12542e-07
-6.36111e-08
-1.17932e-07
-6.2488e-08
-1.23017e-07
-6.13407e-08
-1.27784e-07
-6.01695e-08
-1.32223e-07
-5.89895e-08
-1.36331e-07
-5.77993e-08
-1.40104e-07
-5.66128e-08
-1.43546e-07
-5.54272e-08
-1.4666e-07
-5.42555e-08
-1.49455e-07
-5.30937e-08
-1.51941e-07
-5.19538e-08
-1.54129e-07
-5.08312e-08
-1.56035e-07
-4.9737e-08
-1.57675e-07
-4.86659e-08
-1.59068e-07
-4.76292e-08
-1.60235e-07
-1.61199e-07
-4.66196e-08
-6.98541e-08
-9.56699e-08
7.07308e-08
-6.88885e-08
-1.01901e-07
-6.78525e-08
-1.07907e-07
-6.67509e-08
-1.13644e-07
-6.56027e-08
-1.19084e-07
-6.44104e-08
-1.24209e-07
-6.31914e-08
-1.29007e-07
-6.19459e-08
-1.33469e-07
-6.06898e-08
-1.37591e-07
-5.94217e-08
-1.41373e-07
-5.81563e-08
-1.44816e-07
-5.68908e-08
-1.47926e-07
-5.56387e-08
-1.50712e-07
-5.43961e-08
-1.53184e-07
-5.31755e-08
-1.55355e-07
-5.19723e-08
-1.57239e-07
-5.07983e-08
-1.58854e-07
-4.96479e-08
-1.6022e-07
-4.85334e-08
-1.61356e-07
-1.62286e-07
-4.74469e-08
-7.20996e-08
-9.66007e-08
7.3028e-08
-7.10764e-08
-1.02924e-07
-6.99782e-08
-1.09009e-07
-6.88101e-08
-1.14812e-07
-6.75917e-08
-1.20306e-07
-6.63259e-08
-1.25475e-07
-6.50304e-08
-1.30306e-07
-6.3706e-08
-1.34793e-07
-6.2369e-08
-1.38932e-07
-6.10183e-08
-1.42723e-07
-5.9669e-08
-1.4617e-07
-5.83185e-08
-1.49278e-07
-5.69808e-08
-1.52055e-07
-5.56522e-08
-1.54513e-07
-5.43457e-08
-1.56666e-07
-5.30568e-08
-1.58529e-07
-5.17979e-08
-1.60119e-07
-5.05632e-08
-1.61456e-07
-4.93658e-08
-1.6256e-07
-1.63455e-07
-4.81976e-08
-7.43556e-08
-9.75846e-08
7.53381e-08
-7.32727e-08
-1.04007e-07
-7.21091e-08
-1.10176e-07
-7.0871e-08
-1.16049e-07
-6.95783e-08
-1.21602e-07
-6.82344e-08
-1.26818e-07
-6.68579e-08
-1.31687e-07
-6.54496e-08
-1.36201e-07
-6.40265e-08
-1.40359e-07
-6.25879e-08
-1.44162e-07
-6.11492e-08
-1.47613e-07
-5.97083e-08
-1.50719e-07
-5.82796e-08
-1.53488e-07
-5.68594e-08
-1.55934e-07
-5.54616e-08
-1.58069e-07
-5.40814e-08
-1.5991e-07
-5.2732e-08
-1.61474e-07
-5.14077e-08
-1.62781e-07
-5.01219e-08
-1.63852e-07
-1.64711e-07
-4.88668e-08
-7.66305e-08
-9.86273e-08
7.76711e-08
-7.54826e-08
-1.05155e-07
-7.42489e-08
-1.11413e-07
-7.29357e-08
-1.17362e-07
-7.15637e-08
-1.22978e-07
-7.01367e-08
-1.28245e-07
-6.86737e-08
-1.33153e-07
-6.71761e-08
-1.37699e-07
-6.56614e-08
-1.41878e-07
-6.41291e-08
-1.45694e-07
-6.25953e-08
-1.49151e-07
-6.1058e-08
-1.52256e-07
-5.95321e-08
-1.55019e-07
-5.80144e-08
-1.57452e-07
-5.6519e-08
-1.5957e-07
-5.50415e-08
-1.61388e-07
-5.35956e-08
-1.62925e-07
-5.21756e-08
-1.64201e-07
-5.07955e-08
-1.65238e-07
-1.66059e-07
-4.94478e-08
-7.89183e-08
-9.97294e-08
8.00193e-08
-7.77033e-08
-1.06369e-07
-7.63961e-08
-1.12723e-07
-7.50038e-08
-1.18754e-07
-7.35479e-08
-1.24437e-07
-7.20327e-08
-1.29759e-07
-7.04778e-08
-1.34712e-07
-6.88852e-08
-1.3929e-07
-6.72729e-08
-1.43494e-07
-6.56408e-08
-1.47326e-07
-6.40056e-08
-1.50791e-07
-6.23655e-08
-1.53896e-07
-6.07361e-08
-1.56653e-07
-5.91142e-08
-1.59074e-07
-5.75147e-08
-1.61174e-07
-5.59334e-08
-1.6297e-07
-5.43843e-08
-1.6448e-07
-5.28622e-08
-1.65724e-07
-5.13816e-08
-1.66724e-07
-1.67506e-07
-4.99349e-08
-8.12285e-08
-1.00897e-07
8.23943e-08
-7.9941e-08
-1.07656e-07
-7.85549e-08
-1.14112e-07
-7.7078e-08
-1.2023e-07
-7.55324e-08
-1.25986e-07
-7.39231e-08
-1.31368e-07
-7.22703e-08
-1.36368e-07
-7.05764e-08
-1.40984e-07
-6.886e-08
-1.45215e-07
-6.71215e-08
-1.49064e-07
-6.53779e-08
-1.52538e-07
-6.36281e-08
-1.55646e-07
-6.1888e-08
-1.58398e-07
-6.0155e-08
-1.60807e-07
-5.84441e-08
-1.6289e-07
-5.67518e-08
-1.64662e-07
-5.50924e-08
-1.66144e-07
-5.34612e-08
-1.67356e-07
-5.18729e-08
-1.68319e-07
-1.69059e-07
-5.03206e-08
-8.3557e-08
-1.02131e-07
8.47907e-08
-8.21938e-08
-1.09018e-07
-8.07246e-08
-1.15584e-07
-7.91583e-08
-1.21795e-07
-7.75176e-08
-1.27629e-07
-7.58083e-08
-1.33076e-07
-7.40511e-08
-1.38128e-07
-7.22493e-08
-1.42785e-07
-7.04217e-08
-1.47046e-07
-6.85696e-08
-1.50916e-07
-6.67104e-08
-1.54401e-07
-6.48434e-08
-1.57512e-07
-6.29849e-08
-1.6026e-07
-6.1133e-08
-1.62659e-07
-5.93031e-08
-1.64724e-07
-5.74921e-08
-1.66473e-07
-5.57147e-08
-1.67926e-07
-5.39667e-08
-1.69104e-07
-5.22633e-08
-1.70028e-07
-1.70724e-07
-5.0598e-08
-8.59133e-08
-1.03439e-07
8.72201e-08
-8.44682e-08
-1.10463e-07
-8.29096e-08
-1.17145e-07
-8.12475e-08
-1.23456e-07
-7.9505e-08
-1.29375e-07
-7.76889e-08
-1.34891e-07
-7.58203e-08
-1.4e-07
-7.39033e-08
-1.44701e-07
-7.19571e-08
-1.48995e-07
-6.99836e-08
-1.52888e-07
-6.80006e-08
-1.56388e-07
-6.60082e-08
-1.59504e-07
-6.4023e-08
-1.62249e-07
-6.20439e-08
-1.64638e-07
-6.00863e-08
-1.66686e-07
-5.81481e-08
-1.68412e-07
-5.62443e-08
-1.69835e-07
-5.43712e-08
-1.70977e-07
-5.25444e-08
-1.7186e-07
-1.7251e-07
-5.0758e-08
-8.82917e-08
-1.04822e-07
8.9675e-08
-8.67612e-08
-1.11992e-07
-8.51087e-08
-1.188e-07
-8.33453e-08
-1.25218e-07
-8.14949e-08
-1.31228e-07
-7.95652e-08
-1.3682e-07
-7.7578e-08
-1.4199e-07
-7.5538e-08
-1.4674e-07
-7.3465e-08
-1.51071e-07
-7.13617e-08
-1.54991e-07
-6.92464e-08
-1.58507e-07
-6.71198e-08
-1.6163e-07
-6.4999e-08
-1.64374e-07
-6.28834e-08
-1.66753e-07
-6.07891e-08
-1.68784e-07
-5.87145e-08
-1.70486e-07
-5.66751e-08
-1.71879e-07
-5.46679e-08
-1.72984e-07
-5.27088e-08
-1.73824e-07
-1.74426e-07
-5.07926e-08
-9.07029e-08
-1.06289e-07
9.21684e-08
-8.90802e-08
-1.13614e-07
-8.7327e-08
-1.20556e-07
-8.54552e-08
-1.27089e-07
-8.34895e-08
-1.33196e-07
-8.14385e-08
-1.3887e-07
-7.93244e-08
-1.44107e-07
-7.7153e-08
-1.4891e-07
-7.49445e-08
-1.53283e-07
-7.27024e-08
-1.57232e-07
-7.04452e-08
-1.60768e-07
-6.81748e-08
-1.639e-07
-6.59084e-08
-1.66644e-07
-6.36464e-08
-1.69015e-07
-6.14053e-08
-1.71029e-07
-5.91843e-08
-1.72707e-07
-5.69991e-08
-1.74068e-07
-5.48479e-08
-1.75135e-07
-5.27465e-08
-1.75931e-07
-1.76481e-07
-5.0691e-08
-9.31433e-08
-1.0784e-07
9.46952e-08
-9.14241e-08
-1.15332e-07
-8.95645e-08
-1.22417e-07
-8.7578e-08
-1.29074e-07
-8.54898e-08
-1.35286e-07
-8.33096e-08
-1.41048e-07
-8.10603e-08
-1.46359e-07
-7.87484e-08
-1.51221e-07
-7.63949e-08
-1.55639e-07
-7.4004e-08
-1.59622e-07
-7.15949e-08
-1.6318e-07
-6.91701e-08
-1.66324e-07
-6.67475e-08
-1.6907e-07
-6.43284e-08
-1.71433e-07
-6.19295e-08
-1.73432e-07
-5.95511e-08
-1.75085e-07
-5.72093e-08
-1.76414e-07
-5.49031e-08
-1.77441e-07
-5.26489e-08
-1.7819e-07
-1.78686e-07
-5.04436e-08
-9.56238e-08
-1.09485e-07
9.72685e-08
-9.38004e-08
-1.17154e-07
-9.18268e-08
-1.24392e-07
-8.97174e-08
-1.31182e-07
-8.74983e-08
-1.37508e-07
-8.51801e-08
-1.43365e-07
-8.27861e-08
-1.48756e-07
-8.03241e-08
-1.53682e-07
-7.78152e-08
-1.58151e-07
-7.52649e-08
-1.62172e-07
-7.26927e-08
-1.65755e-07
-7.01021e-08
-1.68914e-07
-6.75116e-08
-1.71664e-07
-6.49233e-08
-1.74021e-07
-6.23546e-08
-1.76004e-07
-5.98067e-08
-1.77633e-07
-5.72961e-08
-1.78929e-07
-5.4823e-08
-1.79914e-07
-5.2404e-08
-1.80613e-07
-1.81053e-07
-5.00374e-08
-9.81394e-08
-1.11227e-07
9.98812e-08
-9.62072e-08
-1.19084e-07
-9.41137e-08
-1.26487e-07
-9.18745e-08
-1.3342e-07
-8.95163e-08
-1.39868e-07
-8.70511e-08
-1.45829e-07
-8.45029e-08
-1.51306e-07
-8.18802e-08
-1.56303e-07
-7.9205e-08
-1.60829e-07
-7.64836e-08
-1.64892e-07
-7.37362e-08
-1.68506e-07
-7.09675e-08
-1.71683e-07
-6.81962e-08
-1.74439e-07
-6.54258e-08
-1.76791e-07
-6.26741e-08
-1.7876e-07
-5.99433e-08
-1.80364e-07
-5.72508e-08
-1.81625e-07
-5.45976e-08
-1.82567e-07
-5.20011e-08
-1.83214e-07
-1.83593e-07
-4.94604e-08
-1.00702e-07
-1.13072e-07
1.02548e-07
-9.86534e-08
-1.21131e-07
-9.64316e-08
-1.2871e-07
-9.40537e-08
-1.35796e-07
-9.15473e-08
-1.42376e-07
-8.8925e-08
-1.4845e-07
-8.62118e-08
-1.54022e-07
-8.34171e-08
-1.59097e-07
-8.05635e-08
-1.63685e-07
-7.76584e-08
-1.67797e-07
-7.47226e-08
-1.71445e-07
-7.17619e-08
-1.74643e-07
-6.87958e-08
-1.77408e-07
-6.58288e-08
-1.79758e-07
-6.28794e-08
-1.81713e-07
-5.99511e-08
-1.83292e-07
-5.70619e-08
-1.84518e-07
-5.42141e-08
-1.85415e-07
-5.14255e-08
-1.86007e-07
-1.86322e-07
-4.86969e-08
-1.0331e-07
-1.15026e-07
1.05264e-07
-1.01139e-07
-1.23301e-07
-9.8782e-08
-1.31068e-07
-9.62574e-08
-1.38319e-07
-9.35934e-08
-1.45042e-07
-9.08038e-08
-1.51238e-07
-8.79143e-08
-1.56913e-07
-8.49353e-08
-1.62075e-07
-8.18903e-08
-1.66733e-07
-7.87876e-08
-1.70899e-07
-7.5649e-08
-1.74586e-07
-7.24812e-08
-1.7781e-07
-6.93048e-08
-1.80588e-07
-6.61252e-08
-1.82938e-07
-6.29621e-08
-1.84879e-07
-5.98201e-08
-1.86434e-07
-5.67179e-08
-1.87624e-07
-5.36594e-08
-1.88474e-07
-5.06631e-08
-1.89008e-07
-1.89254e-07
-4.7731e-08
-1.05975e-07
-1.17096e-07
1.08045e-07
-1.03673e-07
-1.25601e-07
-1.01172e-07
-1.3357e-07
-9.84906e-08
-1.40998e-07
-9.56587e-08
-1.47875e-07
-9.26904e-08
-1.54205e-07
-8.96122e-08
-1.59994e-07
-8.64355e-08
-1.65251e-07
-8.31848e-08
-1.69986e-07
-7.98692e-08
-1.74214e-07
-7.65117e-08
-1.77947e-07
-7.312e-08
-1.81202e-07
-6.97158e-08
-1.83996e-07
-6.6306e-08
-1.86348e-07
-6.29111e-08
-1.88278e-07
-5.95372e-08
-1.89808e-07
-5.6204e-08
-1.90961e-07
-5.29169e-08
-1.91762e-07
-4.96951e-08
-1.92234e-07
-1.92407e-07
-4.65425e-08
-1.08693e-07
-1.19287e-07
1.10884e-07
-1.06254e-07
-1.28037e-07
-1.03602e-07
-1.36223e-07
-1.00756e-07
-1.43843e-07
-9.77459e-08
-1.50887e-07
-9.4587e-08
-1.57363e-07
-9.13071e-08
-1.63276e-07
-8.79181e-08
-1.68639e-07
-8.44459e-08
-1.73462e-07
-8.09006e-08
-1.77759e-07
-7.73064e-08
-1.81545e-07
-7.36722e-08
-1.84836e-07
-7.0021e-08
-1.87651e-07
-6.63611e-08
-1.90008e-07
-6.27142e-08
-1.91929e-07
-5.90883e-08
-1.93435e-07
-5.55039e-08
-1.9455e-07
-5.19683e-08
-1.95298e-07
-4.85016e-08
-1.95706e-07
-1.958e-07
-4.51095e-08
-1.11478e-07
-1.21607e-07
1.13799e-07
-1.08894e-07
-1.30619e-07
-1.06082e-07
-1.39037e-07
-1.0306e-07
-1.46863e-07
-9.986e-08
-1.54089e-07
-9.64972e-08
-1.60724e-07
-9.30009e-08
-1.66775e-07
-8.93835e-08
-1.72255e-07
-8.56723e-08
-1.77176e-07
-8.18782e-08
-1.81553e-07
-7.80272e-08
-1.854e-07
-7.41293e-08
-1.88734e-07
-7.02093e-08
-1.91575e-07
-6.62768e-08
-1.93941e-07
-6.23554e-08
-1.95855e-07
-5.84544e-08
-1.97337e-07
-5.45962e-08
-1.98413e-07
-5.07897e-08
-1.99106e-07
-4.70563e-08
-1.99444e-07
-1.99454e-07
-4.34039e-08
-1.1433e-07
-1.24061e-07
1.16784e-07
-1.11595e-07
-1.33352e-07
-1.08614e-07
-1.4202e-07
-1.05406e-07
-1.50068e-07
-1.02005e-07
-1.57494e-07
-9.84238e-08
-1.64303e-07
-9.46952e-08
-1.70507e-07
-9.08312e-08
-1.76119e-07
-8.68613e-08
-1.8115e-07
-8.27971e-08
-1.85617e-07
-7.86665e-08
-1.89535e-07
-7.4481e-08
-1.92921e-07
-7.02674e-08
-1.95793e-07
-6.60369e-08
-1.98173e-07
-6.1815e-08
-2.00081e-07
-5.76134e-08
-2.01541e-07
-5.34558e-08
-2.02576e-07
-4.93535e-08
-2.03211e-07
-4.53292e-08
-2.03474e-07
-2.03392e-07
-4.1393e-08
-1.17262e-07
-1.26656e-07
1.19858e-07
-1.14367e-07
-1.36245e-07
-1.11208e-07
-1.45181e-07
-1.07802e-07
-1.53472e-07
-1.04185e-07
-1.61114e-07
-1.0037e-07
-1.68117e-07
-9.6391e-08
-1.74491e-07
-9.22599e-08
-1.80249e-07
-8.80087e-08
-1.85406e-07
-8.36497e-08
-1.89976e-07
-7.92134e-08
-1.93976e-07
-7.47126e-08
-1.97423e-07
-7.01766e-08
-2.00335e-07
-6.56187e-08
-2.02733e-07
-6.10669e-08
-2.04639e-07
-5.65349e-08
-2.06076e-07
-5.20489e-08
-2.07067e-07
-4.76225e-08
-2.07641e-07
-4.32801e-08
-2.07822e-07
-2.07641e-07
-3.90346e-08
-1.20274e-07
-1.29397e-07
1.23015e-07
-1.17212e-07
-1.39304e-07
-1.13867e-07
-1.4853e-07
-1.10252e-07
-1.57084e-07
-1.06405e-07
-1.64965e-07
-1.02339e-07
-1.72182e-07
-9.80882e-08
-1.78746e-07
-9.36665e-08
-1.84671e-07
-8.91079e-08
-1.8997e-07
-8.44256e-08
-1.9466e-07
-7.96532e-08
-1.98755e-07
-7.48049e-08
-2.02273e-07
-6.99133e-08
-2.05233e-07
-6.4994e-08
-2.07655e-07
-6.00779e-08
-2.09562e-07
-5.51816e-08
-2.10976e-07
-5.03339e-08
-2.11922e-07
-4.55514e-08
-2.12427e-07
-4.08606e-08
-2.1252e-07
-2.12228e-07
-3.62772e-08
-1.23382e-07
-1.32291e-07
1.26276e-07
-1.20145e-07
-1.42538e-07
-1.16602e-07
-1.52076e-07
-1.12764e-07
-1.60919e-07
-1.0867e-07
-1.69064e-07
-1.04331e-07
-1.76519e-07
-9.97858e-08
-1.83297e-07
-9.50459e-08
-1.8941e-07
-9.01494e-08
-1.94873e-07
-8.51101e-08
-1.997e-07
-7.99655e-08
-2.03906e-07
-7.47318e-08
-2.07509e-07
-6.94453e-08
-2.10527e-07
-6.41243e-08
-2.1298e-07
-5.88038e-08
-2.1489e-07
-5.35034e-08
-2.1628e-07
-4.82555e-08
-2.17177e-07
-4.30802e-08
-2.17608e-07
-3.80063e-08
-2.17601e-07
-2.17187e-07
-3.30532e-08
-1.26587e-07
-1.3534e-07
1.29637e-07
-1.2317e-07
-1.45952e-07
-1.19419e-07
-1.55831e-07
-1.15345e-07
-1.64992e-07
-1.10985e-07
-1.73429e-07
-1.0635e-07
-1.81152e-07
-1.01481e-07
-1.88172e-07
-9.63901e-08
-1.94501e-07
-9.11193e-08
-2.00151e-07
-8.56833e-08
-2.05138e-07
-8.01239e-08
-2.09474e-07
-7.44596e-08
-2.13176e-07
-6.87317e-08
-2.16263e-07
-6.29615e-08
-2.18754e-07
-5.7189e-08
-2.20671e-07
-5.14377e-08
-2.22037e-07
-4.57446e-08
-2.22879e-07
-4.01338e-08
-2.23225e-07
-3.46376e-08
-2.23106e-07
-2.22552e-07
-2.9279e-08
-1.2991e-07
-1.38551e-07
1.33122e-07
-1.26304e-07
-1.49556e-07
-1.22333e-07
-1.59807e-07
-1.18002e-07
-1.69319e-07
-1.13353e-07
-1.78085e-07
-1.08393e-07
-1.8611e-07
-1.03167e-07
-1.93406e-07
-9.76863e-08
-1.99981e-07
-9.19977e-08
-2.05848e-07
-8.61173e-08
-2.11019e-07
-8.00923e-08
-2.15508e-07
-7.39437e-08
-2.19328e-07
-6.77187e-08
-2.22497e-07
-6.14427e-08
-2.25035e-07
-5.51617e-08
-2.26961e-07
-4.89041e-08
-2.283e-07
-4.27124e-08
-2.29079e-07
-3.66161e-08
-2.29328e-07
-3.06521e-08
-2.29079e-07
-2.28364e-07
-2.48476e-08
-1.33353e-07
-1.41924e-07
1.36726e-07
-1.2955e-07
-1.53354e-07
-1.25347e-07
-1.64017e-07
-1.20741e-07
-1.73922e-07
-1.15774e-07
-1.83058e-07
-1.10454e-07
-1.91428e-07
-1.04829e-07
-1.99039e-07
-9.89119e-08
-2.05899e-07
-9.27532e-08
-2.12016e-07
-8.63716e-08
-2.17402e-07
-7.98206e-08
-2.22068e-07
-7.31241e-08
-2.26027e-07
-6.63369e-08
-2.29294e-07
-5.94885e-08
-2.31887e-07
-5.26327e-08
-2.33826e-07
-4.58034e-08
-2.35135e-07
-3.9051e-08
-2.35841e-07
-3.24108e-08
-2.35975e-07
-2.59264e-08
-2.35572e-07
-2.34669e-07
-1.96297e-08
-1.36937e-07
-1.45465e-07
1.40477e-07
-1.32928e-07
-1.5736e-07
-1.28471e-07
-1.68481e-07
-1.2356e-07
-1.7883e-07
-1.18239e-07
-1.88387e-07
-1.12514e-07
-1.97152e-07
-1.06437e-07
-2.05124e-07
-1.00024e-07
-2.1231e-07
-9.33324e-08
-2.18717e-07
-8.63817e-08
-2.24353e-07
-7.92335e-08
-2.29226e-07
-7.19155e-08
-2.33346e-07
-6.44908e-08
-2.36728e-07
-5.69937e-08
-2.39386e-07
-4.94877e-08
-2.41341e-07
-4.20123e-08
-2.42614e-07
-3.46283e-08
-2.43234e-07
-2.73772e-08
-2.43232e-07
-2.03125e-08
-2.42646e-07
-2.41518e-07
-1.34703e-08
-1.40662e-07
-1.49178e-07
1.44374e-07
-1.3643e-07
-1.61588e-07
-1.31692e-07
-1.73227e-07
-1.26436e-07
-1.84083e-07
-1.20708e-07
-1.94124e-07
-1.14518e-07
-2.0334e-07
-1.07923e-07
-2.11728e-07
-1.00942e-07
-2.1929e-07
-9.36384e-08
-2.2603e-07
-8.60387e-08
-2.31952e-07
-7.82116e-08
-2.37062e-07
-7.01897e-08
-2.41368e-07