/*--------------------------------*- C++ -*----------------------------------*\
  =========                 |
  \\      /  F ield         | OpenFOAM: The Open Source CFD Toolbox
   \\    /   O peration     | Website:  https://openfoam.org
    \\  /    A nd           | Version:  6
     \\/     M anipulation  |
\*---------------------------------------------------------------------------*/
FoamFile
{
    version     2.0;
    format      ascii;
    class       surfaceScalarField;
    location    "30";
    object      phi;
}
// * * * * * * * * * * * * * * * * * * * * * * * * * * * * * * * * * * * * * //

dimensions      [0 3 -1 0 0 0 0];

internalField   nonuniform List<scalar> 
19400
(
-2.54339e-11
-7.64462e-07
-6.71174e-12
-1.02506e-06
-1.61466e-11
-1.15629e-06
1.79318e-11
-1.24859e-06
5.4111e-11
-1.31427e-06
4.10765e-11
-1.35956e-06
-2.76793e-11
-1.38936e-06
-1.2568e-10
-1.40789e-06
-2.24551e-10
-1.41841e-06
-3.02719e-10
-1.42296e-06
-3.5125e-10
-1.42254e-06
-3.56672e-10
-1.41716e-06
-3.25636e-10
-1.40591e-06
-2.50564e-10
-1.38688e-06
-1.46407e-10
-1.35701e-06
-5.21564e-11
-1.31212e-06
-3.21807e-11
-1.24717e-06
-9.83043e-11
-1.15572e-06
-1.64146e-10
-1.02527e-06
-7.65244e-07
1.78708e-10
-7.64648e-07
2.59015e-10
-1.02515e-06
3.18535e-10
-1.15635e-06
3.06521e-10
-1.24858e-06
2.48194e-10
-1.31421e-06
1.50947e-10
-1.35946e-06
3.15737e-11
-1.38924e-06
-1.05007e-10
-1.40775e-06
-2.4255e-10
-1.41827e-06
-3.73669e-10
-1.42283e-06
-4.84194e-10
-1.42243e-06
-5.61607e-10
-1.41708e-06
-6.16089e-10
-1.40585e-06
-6.32964e-10
-1.38686e-06
-5.96298e-10
-1.35705e-06
-5.06721e-10
-1.31221e-06
-3.80246e-10
-1.2473e-06
-2.58527e-10
-1.15584e-06
-1.99756e-10
-1.02533e-06
-7.65444e-07
1.82717e-10
-7.6484e-07
2.69209e-10
-1.02526e-06
3.63995e-10
-1.15644e-06
3.84596e-10
-1.24861e-06
3.43388e-10
-1.31417e-06
2.40653e-10
-1.35936e-06
9.69379e-11
-1.38909e-06
-6.53904e-11
-1.40759e-06
-2.32747e-10
-1.4181e-06
-3.90338e-10
-1.42267e-06
-5.32483e-10
-1.42229e-06
-6.3861e-10
-1.41697e-06
-7.17698e-10
-1.40578e-06
-7.48694e-10
-1.38683e-06
-7.10456e-10
-1.35709e-06
-5.98528e-10
-1.31233e-06
-4.20665e-10
-1.24748e-06
-2.50098e-10
-1.15601e-06
-1.17867e-10
-1.02546e-06
-7.65562e-07
1.94233e-10
-7.65046e-07
3.25669e-10
-1.02541e-06
4.56627e-10
-1.15658e-06
5.12466e-10
-1.24868e-06
4.79503e-10
-1.31414e-06
3.62614e-10
-1.35925e-06
1.89823e-10
-1.38892e-06
-1.0743e-11
-1.40739e-06
-2.18026e-10
-1.41789e-06
-4.11256e-10
-1.42247e-06
-5.87953e-10
-1.42211e-06
-7.33645e-10
-1.41682e-06
-8.40116e-10
-1.40567e-06
-8.87273e-10
-1.38679e-06
-8.62057e-10
-1.35712e-06
-7.52373e-10
-1.31244e-06
-5.54322e-10
-1.24768e-06
-3.31679e-10
-1.15623e-06
-1.71343e-10
-1.02562e-06
-7.65734e-07
1.01951e-10
-7.65159e-07
3.23607e-10
-1.02565e-06
4.94798e-10
-1.15676e-06
5.86271e-10
-1.24878e-06
5.71063e-10
-1.31412e-06
4.52129e-10
-1.35913e-06
2.64237e-10
-1.38873e-06
3.45409e-11
-1.40716e-06
-2.0165e-10
-1.41766e-06
-4.2433e-10
-1.42225e-06
-6.27223e-10
-1.42191e-06
-8.04724e-10
-1.41664e-06
-9.35755e-10
-1.40554e-06
-9.95263e-10
-1.38673e-06
-9.64644e-10
-1.35715e-06
-8.4082e-10
-1.31257e-06
-6.1892e-10
-1.24791e-06
-3.48293e-10
-1.15651e-06
-1.12228e-10
-1.02586e-06
-7.65847e-07
1.23351e-10
-7.65291e-07
3.68942e-10
-1.02591e-06
5.42431e-10
-1.15693e-06
6.35646e-10
-1.24888e-06
6.19293e-10
-1.31411e-06
4.87391e-10
-1.359e-06
2.86666e-10
-1.38853e-06
4.86933e-11
-1.40692e-06
-2.00724e-10
-1.4174e-06
-4.41384e-10
-1.42201e-06
-6.61442e-10
-1.42168e-06
-8.54984e-10
-1.41645e-06
-9.962e-10
-1.4054e-06
-1.06474e-09
-1.38666e-06
-1.02871e-09
-1.35719e-06
-8.89024e-10
-1.31271e-06
-6.57974e-10
-1.24814e-06
-3.74082e-10
-1.1568e-06
-9.11289e-11
-1.02615e-06
-7.65939e-07
2.04109e-10
-7.655e-07
4.15964e-10
-1.02613e-06
5.91736e-10
-1.15711e-06
6.90433e-10
-1.24899e-06
6.79689e-10
-1.3141e-06
5.39163e-10
-1.35887e-06
3.2627e-10
-1.38831e-06
7.98154e-11
-1.40667e-06
-1.81185e-10
-1.41714e-06
-4.34019e-10
-1.42175e-06
-6.68311e-10
-1.42145e-06
-8.74414e-10
-1.41624e-06
-1.02427e-09
-1.40525e-06
-1.10176e-09
-1.38658e-06
-1.08072e-09
-1.35721e-06
-9.28123e-10
-1.31286e-06
-6.76732e-10
-1.24839e-06
-3.84088e-10
-1.15709e-06
-1.03063e-10
-1.02643e-06
-7.66042e-07
2.51516e-10
-7.65751e-07
4.55676e-10
-1.02634e-06
6.61845e-10
-1.15732e-06
7.78112e-10
-1.24911e-06
7.79265e-10
-1.3141e-06
6.41528e-10
-1.35873e-06
4.13658e-10
-1.38809e-06
1.45193e-10
-1.40641e-06
-1.34036e-10
-1.41686e-06
-4.04627e-10
-1.42148e-06
-6.55624e-10
-1.42119e-06
-8.73376e-10
-1.41602e-06
-1.03544e-09
-1.40508e-06
-1.11656e-09
-1.3865e-06
-1.10249e-09
-1.35722e-06
-9.51052e-10
-1.31301e-06
-6.90638e-10
-1.24866e-06
-3.97948e-10
-1.15738e-06
-1.38061e-10
-1.02669e-06
-7.6618e-07
2.43481e-10
-7.6599e-07
4.99777e-10
-1.02659e-06
7.5212e-10
-1.15757e-06
8.97898e-10
-1.24926e-06
9.04279e-10
-1.31411e-06
7.64176e-10
-1.35859e-06
5.19007e-10
-1.38784e-06
2.2136e-10
-1.40611e-06
-8.38393e-11
-1.41656e-06
-3.7833e-10
-1.42118e-06
-6.53153e-10
-1.42092e-06
-8.92064e-10
-1.41578e-06
-1.08076e-09
-1.4049e-06
-1.18126e-09
-1.3864e-06
-1.16939e-09
-1.35724e-06
-1.01399e-09
-1.31317e-06
-7.4283e-10
-1.24893e-06
-4.35267e-10
-1.15769e-06
-2.05523e-10
-1.02692e-06
-7.66385e-07
2.06853e-10
-7.6619e-07
5.37546e-10
-1.02692e-06
8.1596e-10
-1.15784e-06
9.82383e-10
-1.24942e-06
9.96875e-10
-1.31412e-06
8.58479e-10
-1.35846e-06
6.10563e-10
-1.38759e-06
2.92362e-10
-1.40579e-06
-3.83289e-11
-1.41622e-06
-3.64702e-10
-1.42086e-06
-6.71022e-10
-1.42061e-06
-9.42736e-10
-1.41551e-06
-1.16155e-09
-1.40468e-06
-1.28687e-09
-1.38627e-06
-1.27887e-09
-1.35724e-06
-1.10836e-09
-1.31334e-06
-8.06145e-10
-1.24923e-06
-4.55947e-10
-1.15804e-06
-1.81977e-10
-1.02719e-06
-7.66565e-07
2.19643e-10
-7.66401e-07
5.80897e-10
-1.02727e-06
8.93425e-10
-1.15815e-06
1.07933e-09
-1.2496e-06
1.09474e-09
-1.31413e-06
9.50824e-10
-1.35831e-06
6.95325e-10
-1.38734e-06
3.64685e-10
-1.40546e-06
9.60355e-12
-1.41587e-06
-3.47023e-10
-1.4205e-06
-6.82863e-10
-1.42027e-06
-9.8241e-10
-1.41521e-06
-1.21422e-09
-1.40444e-06
-1.34683e-09
-1.38614e-06
-1.34355e-09
-1.35725e-06
-1.17144e-09
-1.31351e-06
-8.57576e-10
-1.24954e-06
-4.81104e-10
-1.15841e-06
-1.09476e-10
-1.02756e-06
-7.66673e-07
2.36771e-10
-7.66628e-07
6.25045e-10
-1.02764e-06
9.64499e-10
-1.15849e-06
1.17017e-09
-1.2498e-06
1.18534e-09
-1.31414e-06
1.04115e-09
-1.35817e-06
7.78071e-10
-1.38707e-06
4.37941e-10
-1.40512e-06
5.91102e-11
-1.41549e-06
-3.23118e-10
-1.42011e-06
-6.86562e-10
-1.41991e-06
-1.00665e-09
-1.41488e-06
-1.2455e-09
-1.4042e-06
-1.38701e-09
-1.386e-06
-1.39349e-09
-1.35724e-06
-1.2298e-09
-1.31367e-06
-9.10638e-10
-1.24985e-06
-5.15858e-10
-1.1588e-06
-1.26797e-10
-1.02794e-06
-7.66799e-07
2.48511e-10
-7.66871e-07
6.53341e-10
-1.02804e-06
1.02558e-09
-1.15886e-06
1.26616e-09
-1.25004e-06
1.29634e-09
-1.31417e-06
1.15877e-09
-1.35802e-06
8.83797e-10
-1.38679e-06
5.20972e-10
-1.40475e-06
1.14225e-10
-1.41508e-06
-2.96953e-10
-1.4197e-06
-6.88714e-10
-1.41951e-06
-1.03117e-09
-1.41454e-06
-1.28748e-09
-1.40394e-06
-1.44275e-09
-1.38584e-06
-1.46224e-09
-1.35721e-06
-1.30313e-09
-1.31383e-06
-9.63878e-10
-1.25018e-06
-5.37553e-10
-1.15922e-06
-1.59947e-10
-1.02831e-06
-7.66958e-07
2.33849e-10
-7.67102e-07
6.82191e-10
-1.02848e-06
1.10123e-09
-1.15927e-06
1.37589e-09
-1.2503e-06
1.42634e-09
-1.31422e-06
1.27979e-09
-1.35787e-06
9.82432e-10
-1.38649e-06
5.98109e-10
-1.40437e-06
1.6696e-10
-1.41464e-06
-2.7278e-10
-1.41926e-06
-6.90808e-10
-1.41909e-06
-1.05692e-09
-1.41417e-06
-1.33428e-09
-1.40366e-06
-1.50054e-09
-1.38567e-06
-1.52656e-09
-1.35718e-06
-1.3684e-09
-1.31398e-06
-1.01425e-09
-1.25053e-06
-5.75107e-10
-1.15965e-06
-1.71456e-10
-1.02871e-06
-7.6713e-07
2.6273e-10
-7.67361e-07
7.38662e-10
-1.02895e-06
1.16144e-09
-1.15969e-06
1.44468e-09
-1.25058e-06
1.51434e-09
-1.31429e-06
1.36342e-09
-1.35771e-06
1.05604e-09
-1.38618e-06
6.60472e-10
-1.40397e-06
2.1346e-10
-1.41419e-06
-2.49958e-10
-1.41879e-06
-6.94027e-10
-1.41864e-06
-1.0875e-09
-1.41377e-06
-1.39473e-09
-1.40335e-06
-1.59064e-09
-1.38547e-06
-1.626e-09
-1.35714e-06
-1.45607e-09
-1.31414e-06
-1.09042e-09
-1.2509e-06
-6.30469e-10
-1.16011e-06
-1.92061e-10
-1.02915e-06
-7.67321e-07
3.33704e-10
-7.67691e-07
8.0005e-10
-1.02942e-06
1.25244e-09
-1.16014e-06
1.56258e-09
-1.25089e-06
1.64452e-09
-1.31436e-06
1.48794e-09
-1.35755e-06
1.16111e-09
-1.38585e-06
7.41629e-10
-1.40354e-06
2.70195e-10
-1.41371e-06
-2.1978e-10
-1.4183e-06
-6.8873e-10
-1.41817e-06
-1.10266e-09
-1.41335e-06
-1.43443e-09
-1.40301e-06
-1.6537e-09
-1.38524e-06
-1.69661e-09
-1.35709e-06
-1.5158e-09
-1.31432e-06
-1.14482e-09
-1.25127e-06
-6.59495e-10
-1.1606e-06
-1.73985e-10
-1.02963e-06
-7.67494e-07
3.40832e-10
-7.68024e-07
8.43945e-10
-1.02993e-06
1.31769e-09
-1.16061e-06
1.64129e-09
-1.25121e-06
1.74287e-09
-1.31446e-06
1.59679e-09
-1.3574e-06
1.26554e-09
-1.38551e-06
8.24462e-10
-1.40309e-06
3.24195e-10
-1.41321e-06
-1.92949e-10
-1.41777e-06
-6.89475e-10
-1.41767e-06
-1.11755e-09
-1.41292e-06
-1.4589e-09
-1.40266e-06
-1.66956e-09
-1.38503e-06
-1.70623e-09
-1.35705e-06
-1.53097e-09
-1.3145e-06
-1.17078e-09
-1.25163e-06
-7.04763e-10
-1.16106e-06
-2.31282e-10
-1.0301e-06
-7.67723e-07
3.90583e-10
-7.68405e-07
9.097e-10
-1.03044e-06
1.40729e-09
-1.1611e-06
1.74074e-09
-1.25155e-06
1.85297e-09
-1.31456e-06
1.71405e-09
-1.35726e-06
1.37877e-09
-1.38517e-06
9.10618e-10
-1.40262e-06
3.77957e-10
-1.41267e-06
-1.73222e-10
-1.41721e-06
-7.06998e-10
-1.41713e-06
-1.1729e-09
-1.41244e-06
-1.54223e-09
-1.40229e-06
-1.76415e-09
-1.3848e-06
-1.80797e-09
-1.35701e-06
-1.63665e-09
-1.31466e-06
-1.26233e-09
-1.25199e-06
-7.79461e-10
-1.16153e-06
-3.50792e-10
-1.03052e-06
-7.68072e-07
4.18261e-10
-7.68814e-07
9.84415e-10
-1.031e-06
1.52278e-09
-1.16163e-06
1.8811e-09
-1.25191e-06
2.0014e-09
-1.31468e-06
1.86401e-09
-1.35712e-06
1.51298e-09
-1.38481e-06
1.0159e-09
-1.40212e-06
4.4603e-10
-1.4121e-06
-1.42844e-10
-1.41662e-06
-7.1591e-10
-1.41655e-06
-1.2317e-09
-1.41192e-06
-1.64127e-09
-1.40188e-06
-1.89646e-09
-1.38454e-06
-1.94859e-09
-1.35695e-06
-1.76382e-09
-1.31484e-06
-1.3602e-09
-1.25239e-06
-8.29752e-10
-1.16205e-06
-3.282e-10
-1.03101e-06
-7.68398e-07
3.92221e-10
-7.69198e-07
1.04253e-09
-1.03165e-06
1.62971e-09
-1.16221e-06
2.02461e-09
-1.2523e-06
2.15475e-09
-1.31481e-06
2.01246e-09
-1.35698e-06
1.64863e-09
-1.38445e-06
1.12715e-09
-1.40159e-06
5.19363e-10
-1.41148e-06
-1.09301e-10
-1.41599e-06
-7.18733e-10
-1.41594e-06
-1.27033e-09
-1.41137e-06
-1.70674e-09
-1.40144e-06
-1.98292e-09
-1.38426e-06
-2.03783e-09
-1.35689e-06
-1.84983e-09
-1.31502e-06
-1.44254e-09
-1.25279e-06
-8.87869e-10
-1.1626e-06
-2.7508e-10
-1.03161e-06
-7.68672e-07
3.76859e-10
-7.69568e-07
1.08495e-09
-1.03234e-06
1.70579e-09
-1.16283e-06
2.12984e-09
-1.25271e-06
2.27126e-09
-1.31494e-06
2.12738e-09
-1.35683e-06
1.75337e-09
-1.38407e-06
1.2139e-09
-1.40105e-06
5.77732e-10
-1.41084e-06
-8.74686e-11
-1.41532e-06
-7.29292e-10
-1.41529e-06
-1.30971e-09
-1.41079e-06
-1.76992e-09
-1.40097e-06
-2.05675e-09
-1.38397e-06
-2.11213e-09
-1.35683e-06
-1.92736e-09
-1.3152e-06
-1.52291e-09
-1.25319e-06
-9.5529e-10
-1.16316e-06
-2.99449e-10
-1.03226e-06
-7.68971e-07
4.1936e-10
-7.69979e-07
1.1332e-09
-1.03305e-06
1.78029e-09
-1.16347e-06
2.23002e-09
-1.25316e-06
2.38141e-09
-1.31509e-06
2.238e-09
-1.35668e-06
1.84829e-09
-1.38367e-06
1.28509e-09
-1.40048e-06
6.27567e-10
-1.41018e-06
-6.88756e-11
-1.41462e-06
-7.43758e-10
-1.41461e-06
-1.35858e-09
-1.41017e-06
-1.85183e-09
-1.40047e-06
-2.16139e-09
-1.38366e-06
-2.23534e-09
-1.35675e-06
-2.05336e-09
-1.31538e-06
-1.62739e-09
-1.25361e-06
-1.02257e-09
-1.16376e-06
-3.52934e-10
-1.03293e-06
-7.69323e-07
4.68469e-10
-7.70438e-07
1.18653e-09
-1.03376e-06
1.8656e-09
-1.16414e-06
2.34274e-09
-1.25363e-06
2.50417e-09
-1.31525e-06
2.35189e-09
-1.35652e-06
1.9435e-09
-1.38326e-06
1.35917e-09
-1.39989e-06
6.79046e-10
-1.40949e-06
-4.50412e-11
-1.41389e-06
-7.52006e-10
-1.4139e-06
-1.3918e-09
-1.40952e-06
-1.91148e-09
-1.39994e-06
-2.24882e-09
-1.38331e-06
-2.34286e-09
-1.35665e-06
-2.1643e-09
-1.31555e-06
-1.72009e-09
-1.25405e-06
-1.07975e-09
-1.1644e-06
-3.74272e-10
-1.03363e-06
-7.69697e-07
4.98277e-10
-7.70926e-07
1.22889e-09
-1.03448e-06
1.92104e-09
-1.16483e-06
2.41427e-09
-1.25412e-06
2.59779e-09
-1.31542e-06
2.44936e-09
-1.35637e-06
2.03506e-09
-1.38284e-06
1.44388e-09
-1.39929e-06
7.40159e-10
-1.40878e-06
-1.27841e-11
-1.41313e-06
-7.51944e-10
-1.41315e-06
-1.41325e-09
-1.40885e-06
-1.95466e-09
-1.3994e-06
-2.30644e-09
-1.38296e-06
-2.4049e-09
-1.35654e-06
-2.22461e-09
-1.31573e-06
-1.77831e-09
-1.25449e-06
-1.13153e-09
-1.16504e-06
-4.17046e-10
-1.03434e-06
-7.70112e-07
5.36418e-10
-7.71452e-07
1.27538e-09
-1.03521e-06
1.99789e-09
-1.16554e-06
2.51547e-09
-1.25463e-06
2.71659e-09
-1.31562e-06
2.57171e-09
-1.35622e-06
2.15148e-09
-1.38241e-06
1.54352e-09
-1.39868e-06
8.08959e-10
-1.40804e-06
2.34042e-11
-1.41233e-06
-7.53157e-10
-1.41237e-06
-1.45027e-09
-1.40815e-06
-2.01936e-09
-1.39882e-06
-2.38717e-09
-1.38258e-06
-2.50106e-09
-1.35643e-06
-2.32184e-09
-1.3159e-06
-1.85947e-09
-1.25495e-06
-1.1923e-09
-1.16571e-06
-4.9723e-10
-1.03503e-06
-7.70608e-07
5.58544e-10
-7.72002e-07
1.33729e-09
-1.03599e-06
2.08829e-09
-1.16629e-06
2.62472e-09
-1.25516e-06
2.8371e-09
-1.31582e-06
2.69821e-09
-1.35607e-06
2.27137e-09
-1.38198e-06
1.63653e-09
-1.39803e-06
8.66221e-10
-1.40727e-06
4.3702e-11
-1.4115e-06
-7.74434e-10
-1.41155e-06
-1.51528e-09
-1.4074e-06
-2.11561e-09
-1.39822e-06
-2.49923e-09
-1.38219e-06
-2.62252e-09
-1.3563e-06
-2.44396e-09
-1.31608e-06
-1.95894e-09
-1.25543e-06
-1.26488e-09
-1.16639e-06
-5.53164e-10
-1.03574e-06
-7.7116e-07
5.51111e-10
-7.72544e-07
1.37643e-09
-1.03681e-06
2.15784e-09
-1.16706e-06
2.71304e-09
-1.25571e-06
2.9355e-09
-1.31604e-06
2.80651e-09
-1.35594e-06
2.37385e-09
-1.38154e-06
1.71018e-09
-1.39736e-06
9.07659e-10
-1.40646e-06
4.92917e-11
-1.41063e-06
-8.08147e-10
-1.41069e-06
-1.59306e-09
-1.40661e-06
-2.22915e-09
-1.39758e-06
-2.63597e-09
-1.38178e-06
-2.76302e-09
-1.35617e-06
-2.57548e-09
-1.31626e-06
-2.0624e-09
-1.25594e-06
-1.33214e-09
-1.16712e-06
-5.6814e-10
-1.03649e-06
-7.71727e-07
5.51452e-10
-7.73086e-07
1.41122e-09
-1.03766e-06
2.21097e-09
-1.16785e-06
2.77522e-09
-1.25627e-06
3.00245e-09
-1.31626e-06
2.87917e-09
-1.35581e-06
2.44337e-09
-1.3811e-06
1.76487e-09
-1.39668e-06
9.38336e-10
-1.40563e-06
4.50661e-11
-1.40973e-06
-8.45026e-10
-1.40979e-06
-1.66309e-09
-1.40578e-06
-2.33079e-09
-1.39691e-06
-2.76296e-09
-1.38134e-06
-2.89575e-09
-1.35603e-06
-2.69403e-09
-1.31646e-06
-2.15378e-09
-1.25647e-06
-1.37797e-09
-1.16789e-06
-5.34756e-10
-1.03733e-06
-7.72261e-07
5.91128e-10
-7.73667e-07
1.46102e-09
-1.03852e-06
2.28649e-09
-1.16867e-06
2.86765e-09
-1.25685e-06
3.09374e-09
-1.31648e-06
2.96363e-09
-1.35568e-06
2.51299e-09
-1.38064e-06
1.81977e-09
-1.39598e-06
9.73729e-10
-1.40478e-06
5.40421e-11
-1.40881e-06
-8.64726e-10
-1.40886e-06
-1.7108e-09
-1.40493e-06
-2.40264e-09
-1.39621e-06
-2.85127e-09
-1.38089e-06
-2.9893e-09
-1.35589e-06
-2.77519e-09
-1.31667e-06
-2.2207e-09
-1.25702e-06
-1.41899e-09
-1.16869e-06
-5.21722e-10
-1.03823e-06
-7.72782e-07
6.2121e-10
-7.74278e-07
1.51889e-09
-1.03941e-06
2.36322e-09
-1.16951e-06
2.95886e-09
-1.25744e-06
3.18976e-09
-1.31671e-06
3.05758e-09
-1.35554e-06
2.5966e-09
-1.38018e-06
1.88583e-09
-1.39526e-06
1.02078e-09
-1.4039e-06
7.86777e-11
-1.40786e-06
-8.65777e-10
-1.40791e-06
-1.73739e-09
-1.40406e-06
-2.45104e-09
-1.39549e-06
-2.92265e-09
-1.38042e-06
-3.07343e-09
-1.35573e-06
-2.85605e-09
-1.31688e-06
-2.28937e-09
-1.25759e-06
-1.46442e-09
-1.16951e-06
-5.56066e-10
-1.03913e-06
-7.73337e-07
6.21156e-10
-7.74893e-07
1.55089e-09
-1.04033e-06
2.43112e-09
-1.17038e-06
3.05916e-09
-1.25806e-06
3.30577e-09
-1.31695e-06
3.16917e-09
-1.3554e-06
2.69206e-09
-1.3797e-06
1.96124e-09
-1.39453e-06
1.06783e-09
-1.40301e-06
1.00322e-10
-1.40689e-06
-8.6826e-10
-1.40694e-06
-1.75769e-09
-1.40316e-06
-2.49122e-09
-1.39475e-06
-2.98179e-09
-1.37992e-06
-3.14218e-09
-1.35557e-06
-2.92403e-09
-1.31709e-06
-2.3512e-09
-1.25816e-06
-1.52317e-09
-1.17033e-06
-6.15572e-10
-1.04003e-06
-7.73951e-07
5.76035e-10
-7.75465e-07
1.56408e-09
-1.04131e-06
2.48301e-09
-1.1713e-06
3.13403e-09
-1.2587e-06
3.38714e-09
-1.3172e-06
3.23531e-09
-1.35524e-06
2.73806e-09
-1.3792e-06
1.98961e-09
-1.39377e-06
1.07527e-09
-1.40209e-06
8.76349e-11
-1.40589e-06
-9.02033e-10
-1.40595e-06
-1.81323e-09
-1.40224e-06
-2.57213e-09
-1.39399e-06
-3.08181e-09
-1.3794e-06
-3.25304e-09
-1.35539e-06
-3.03036e-09
-1.31731e-06
-2.43804e-09
-1.25874e-06
-1.59493e-09
-1.17117e-06
-7.03504e-10
-1.04092e-06
-7.74653e-07
6.43325e-10
-7.761e-07
1.63247e-09
-1.0423e-06
2.52903e-09
-1.17219e-06
3.15284e-09
-1.25932e-06
3.39719e-09
-1.31744e-06
3.23582e-09
-1.35507e-06
2.73479e-09
-1.37869e-06
1.98099e-09
-1.39301e-06
1.06129e-09
-1.40116e-06
6.09093e-11
-1.40489e-06
-9.46686e-10
-1.40494e-06
-1.88653e-09
-1.4013e-06
-2.67558e-09
-1.3932e-06
-3.21166e-09
-1.37886e-06
-3.39508e-09
-1.3552e-06
-3.16251e-09
-1.31754e-06
-2.53506e-09
-1.25937e-06
-1.64192e-09
-1.17206e-06
-7.02849e-10
-1.04185e-06
-7.75356e-07
7.71702e-10
-7.7686e-07
1.71209e-09
-1.04323e-06
2.62308e-09
-1.17309e-06
3.25881e-09
-1.25996e-06
3.5004e-09
-1.31767e-06
3.32464e-09
-1.35489e-06
2.80308e-09
-1.37816e-06
2.02671e-09
-1.39223e-06
1.08623e-09
-1.40022e-06
6.59424e-11
-1.40386e-06
-9.63689e-10
-1.4039e-06
-1.92669e-09
-1.40033e-06
-2.74013e-09
-1.39238e-06
-3.29756e-09
-1.3783e-06
-3.48758e-09
-1.35501e-06
-3.25289e-09
-1.31777e-06
-2.6129e-09
-1.26e-06
-1.68674e-09
-1.17298e-06
-6.59624e-10
-1.04288e-06
-7.76015e-07
7.50531e-10
-7.77602e-07
1.75984e-09
-1.04423e-06
2.7221e-09
-1.17405e-06
3.39685e-09
-1.26063e-06
3.64924e-09
-1.31792e-06
3.46372e-09
-1.3547e-06
2.91223e-09
-1.37761e-06
2.10134e-09
-1.39142e-06
1.12885e-09
-1.39924e-06
8.07038e-11
-1.40281e-06
-9.74648e-10
-1.40284e-06
-1.96041e-09
-1.39934e-06
-2.79493e-09
-1.39154e-06
-3.37083e-09
-1.37773e-06
-3.57471e-09
-1.35481e-06
-3.34375e-09
-1.318e-06
-2.6972e-09
-1.26065e-06
-1.7491e-09
-1.17393e-06
-6.92654e-10
-1.04393e-06
-7.76707e-07
7.0025e-10
-7.78297e-07
1.8158e-09
-1.04534e-06
2.80994e-09
-1.17504e-06
3.49386e-09
-1.26131e-06
3.74507e-09
-1.31817e-06
3.54947e-09
-1.35451e-06
2.97924e-09
-1.37703e-06
2.14566e-09
-1.39058e-06
1.15115e-09
-1.39825e-06
7.75412e-11
-1.40173e-06
-1.00237e-09
-1.40176e-06
-2.01265e-09
-1.39833e-06
-2.86989e-09
-1.39068e-06
-3.46566e-09
-1.37713e-06
-3.68808e-09
-1.35458e-06
-3.45945e-09
-1.31823e-06
-2.793e-09
-1.26132e-06
-1.80864e-09
-1.17491e-06
-7.3136e-10
-1.04501e-06
-7.77437e-07
7.25491e-10
-7.7902e-07
1.86658e-09
-1.04648e-06
2.87646e-09
-1.17604e-06
3.56348e-09
-1.26199e-06
3.80523e-09
-1.31841e-06
3.59851e-09
-1.3543e-06
3.01634e-09
-1.37645e-06
2.17011e-09
-1.38973e-06
1.16002e-09
-1.39723e-06
6.97312e-11
-1.40064e-06
-1.02898e-09
-1.40066e-06
-2.05868e-09
-1.39729e-06
-2.93404e-09
-1.38981e-06
-3.54726e-09
-1.37651e-06
-3.78349e-09
-1.35434e-06
-3.56128e-09
-1.31845e-06
-2.88221e-09
-1.26199e-06
-1.87069e-09
-1.17592e-06
-7.47377e-10
-1.04612e-06
-7.78184e-07
7.78878e-10
-7.79795e-07
1.91178e-09
-1.04761e-06
2.94303e-09
-1.17707e-06
3.63985e-09
-1.26268e-06
3.86907e-09
-1.31863e-06
3.64424e-09
-1.35407e-06
3.04528e-09
-1.37585e-06
2.18548e-09
-1.38887e-06
1.16107e-09
-1.39621e-06
5.61314e-11
-1.39953e-06
-1.05876e-09
-1.39954e-06
-2.10465e-09
-1.39625e-06
-2.99539e-09
-1.38891e-06
-3.62374e-09
-1.37588e-06
-3.87457e-09
-1.35409e-06
-3.6626e-09
-1.31866e-06
-2.97851e-09
-1.26267e-06
-1.94803e-09
-1.17694e-06
-8.03074e-10
-1.04726e-06
-7.78986e-07
8.51236e-10
-7.8064e-07
1.98987e-09
-1.04874e-06
3.02905e-09
-1.17811e-06
3.71971e-09
-1.26337e-06
3.93458e-09
-1.31885e-06
3.68789e-09
-1.35382e-06
3.07343e-09
-1.37523e-06
2.19833e-09
-1.38799e-06
1.15737e-09
-1.39517e-06
3.19708e-11
-1.3984e-06
-1.10408e-09
-1.39841e-06
-2.17286e-09
-1.39518e-06
-3.08444e-09
-1.388e-06
-3.73116e-09
-1.37523e-06
-3.99697e-09
-1.35382e-06
-3.79041e-09
-1.31886e-06
-3.09813e-09
-1.26336e-06
-2.04748e-09
-1.17799e-06
-8.85188e-10
-1.04842e-06
-7.7987e-07
9.12611e-10
-7.81545e-07
2.07352e-09
-1.0499e-06
3.14665e-09
-1.17918e-06
3.85368e-09
-1.26408e-06
4.06076e-09
-1.31905e-06
3.79156e-09
-1.35355e-06
3.15285e-09
-1.37459e-06
2.24863e-09
-1.38709e-06
1.17684e-09
-1.39409e-06
1.56271e-11
-1.39724e-06
-1.15589e-09
-1.39724e-06
-2.26231e-09
-1.39407e-06
-3.20995e-09
-1.38705e-06
-3.88769e-09
-1.37455e-06
-4.1733e-09
-1.35353e-06
-3.96623e-09
-1.31906e-06
-3.24459e-09
-1.26408e-06
-2.14395e-09
-1.17909e-06
-9.25979e-10
-1.04964e-06
-7.80796e-07
8.84821e-10
-7.82424e-07
2.14191e-09
-1.05115e-06
3.27747e-09
-1.18031e-06
4.01564e-09
-1.26481e-06
4.2157e-09
-1.31925e-06
3.92148e-09
-1.35325e-06
3.25317e-09
-1.37392e-06
2.31868e-09
-1.38615e-06
1.21538e-09
-1.39299e-06
2.04845e-11
-1.39605e-06
-1.18301e-09
-1.39603e-06
-2.32487e-09
-1.39293e-06
-3.306e-09
-1.38607e-06
-4.01785e-09
-1.37384e-06
-4.32787e-09
-1.35322e-06
-4.12265e-09
-1.31927e-06
-3.36816e-09
-1.26483e-06
-2.19822e-09
-1.18026e-06
-8.72765e-10
-1.05096e-06
-7.81668e-07
8.66515e-10
-7.83288e-07
2.21406e-09
-1.05249e-06
3.37578e-09
-1.18147e-06
4.11904e-09
-1.26555e-06
4.31686e-09
-1.31944e-06
4.00956e-09
-1.35294e-06
3.32582e-09
-1.37324e-06
2.37616e-09
-1.3852e-06
1.25151e-09
-1.39186e-06
3.66071e-11
-1.39483e-06
-1.18682e-09
-1.3948e-06
-2.34135e-09
-1.39177e-06
-3.33265e-09
-1.38507e-06
-4.05458e-09
-1.37312e-06
-4.37373e-09
-1.3529e-06
-4.17611e-09
-1.31946e-06
-3.42862e-09
-1.26558e-06
-2.25047e-09
-1.18143e-06
-8.67929e-10
-1.05234e-06
-7.82536e-07
9.06241e-10
-7.84193e-07
2.27677e-09
-1.05385e-06
3.47772e-09
-1.18267e-06
4.23627e-09
-1.2663e-06
4.4284e-09
-1.31964e-06
4.09908e-09
-1.35261e-06
3.39148e-09
-1.37253e-06
2.41935e-09
-1.38423e-06
1.27159e-09
-1.39072e-06
3.45048e-11
-1.3936e-06
-1.21071e-09
-1.39356e-06
-2.38e-09
-1.3906e-06
-3.38561e-09
-1.38407e-06
-4.11855e-09
-1.37238e-06
-4.45266e-09
-1.35256e-06
-4.26257e-09
-1.31965e-06
-3.51501e-09
-1.26632e-06
-2.33538e-09
-1.18261e-06
-1.0075e-09
-1.05366e-06
-7.83542e-07
9.59762e-10
-7.8515e-07
2.35556e-09
-1.05525e-06
3.57453e-09
-1.18388e-06
4.33382e-09
-1.26706e-06
4.51646e-09
-1.31982e-06
4.1717e-09
-1.35227e-06
3.44071e-09
-1.3718e-06
2.44231e-09
-1.38324e-06
1.26861e-09
-1.38954e-06
2.49956e-12
-1.39233e-06
-1.27168e-09
-1.39229e-06
-2.47018e-09
-1.3894e-06
-3.5043e-09
-1.38303e-06
-4.26413e-09
-1.37162e-06
-4.6197e-09
-1.35221e-06
-4.43231e-09
-1.31984e-06
-3.65523e-09
-1.2671e-06
-2.43559e-09
-1.18383e-06
-1.10959e-09
-1.05499e-06
-7.8465e-07
1.0595e-09
-7.86206e-07
2.46122e-09
-1.05664e-06
3.70328e-09
-1.18512e-06
4.47258e-09
-1.26783e-06
4.64585e-09
-1.31999e-06
4.2863e-09
-1.35191e-06
3.52452e-09
-1.37104e-06
2.48808e-09
-1.3822e-06
1.27535e-09
-1.38833e-06
-2.98588e-11
-1.39103e-06
-1.3419e-09
-1.39097e-06
-2.57935e-09
-1.38817e-06
-3.64761e-09
-1.38196e-06
-4.43882e-09
-1.37083e-06
-4.81324e-09
-1.35183e-06
-4.6225e-09
-1.32003e-06
-3.80853e-09
-1.26791e-06
-2.52534e-09
-1.1851e-06
-1.10271e-09
-1.0564e-06
-7.85752e-07
1.10387e-09
-7.87306e-07
2.56025e-09
-1.0581e-06
3.85674e-09
-1.18642e-06
4.65857e-09
-1.26862e-06
4.83463e-09
-1.32016e-06
4.45501e-09
-1.35153e-06
3.64953e-09
-1.37023e-06
2.56346e-09
-1.38112e-06
1.30394e-09
-1.38707e-06
-4.54102e-11
-1.38968e-06
-1.39833e-09
-1.38962e-06
-2.67527e-09
-1.38689e-06
-3.77806e-09
-1.38086e-06
-4.59906e-09
-1.37001e-06
-4.98961e-09
-1.35144e-06
-4.79429e-09
-1.32022e-06
-3.95085e-09
-1.26875e-06
-2.6052e-09
-1.18645e-06
-1.07076e-09
-1.05793e-06
-7.86822e-07
1.08201e-09
-7.88384e-07
2.63275e-09
-1.05964e-06
3.98618e-09
-1.18777e-06
4.82221e-09
-1.26946e-06
5.01755e-09
-1.32036e-06
4.62462e-09
-1.35113e-06
3.77872e-09
-1.36939e-06
2.64298e-09
-1.37998e-06
1.33771e-09
-1.38577e-06
-5.36734e-11
-1.38829e-06
-1.44459e-09
-1.38823e-06
-2.75602e-09
-1.38558e-06
-3.88965e-09
-1.37973e-06
-4.73805e-09
-1.36916e-06
-5.14301e-09
-1.35103e-06
-4.9489e-09
-1.32041e-06
-4.08366e-09
-1.26961e-06
-2.68737e-09
-1.18784e-06
-1.0822e-09
-1.05954e-06
-7.87904e-07
1.09415e-09
-7.89475e-07
2.71579e-09
-1.06126e-06
4.1277e-09
-1.18918e-06
4.99143e-09
-1.27032e-06
5.19311e-09
-1.32056e-06
4.77952e-09
-1.35072e-06
3.89728e-09
-1.3685e-06
2.71811e-09
-1.3788e-06
1.37078e-09
-1.38442e-06
-6.07875e-11
-1.38686e-06
-1.48769e-09
-1.3868e-06
-2.83344e-09
-1.38424e-06
-3.99895e-09
-1.37856e-06
-4.87391e-09
-1.36829e-06
-5.30008e-09
-1.3506e-06
-5.10252e-09
-1.32061e-06
-4.20694e-09
-1.2705e-06
-2.75316e-09
-1.18929e-06
-1.10537e-09
-1.06118e-06
-7.89007e-07
1.18302e-09
-7.90653e-07
2.84713e-09
-1.06292e-06
4.29289e-09
-1.19062e-06
5.16315e-09
-1.27118e-06
5.3531e-09
-1.32075e-06
4.91609e-09
-1.35028e-06
4.00724e-09
-1.36759e-06
2.7925e-09
-1.37759e-06
1.4049e-09
-1.38303e-06
-6.24362e-11
-1.3854e-06
-1.52496e-09
-1.38534e-06
-2.90203e-09
-1.38286e-06
-4.09747e-09
-1.37736e-06
-4.99456e-09
-1.36739e-06
-5.43661e-09
-1.35016e-06
-5.24193e-09
-1.3208e-06
-4.3297e-09
-1.27141e-06
-2.84183e-09
-1.19077e-06
-1.15724e-09
-1.06285e-06
-7.90162e-07
1.25547e-09
-7.91902e-07
2.95697e-09
-1.06461e-06
4.47253e-09
-1.19213e-06
5.39143e-09
-1.2721e-06
5.58293e-09
-1.32094e-06
5.12394e-09
-1.34982e-06
4.17662e-09
-1.36664e-06
2.90747e-09
-1.37632e-06
1.46084e-09
-1.38158e-06
-6.07924e-11
-1.38388e-06
-1.57565e-09
-1.38382e-06
-2.99922e-09
-1.38144e-06
-4.23771e-09
-1.37612e-06
-5.17256e-09
-1.36645e-06
-5.62936e-09
-1.3497e-06
-5.44083e-09
-1.32098e-06
-4.50159e-09
-1.27234e-06
-2.96983e-09
-1.19229e-06
-1.26188e-09
-1.06455e-06
-7.91422e-07
1.22105e-09
-7.93118e-07
3.02903e-09
-1.06641e-06
4.64067e-09
-1.19374e-06
5.62934e-09
-1.27308e-06
5.83976e-09
-1.32114e-06
5.36292e-09
-1.34934e-06
4.36679e-09
-1.36565e-06
3.03222e-09
-1.37499e-06
1.5191e-09
-1.38007e-06
-7.09354e-11
-1.38229e-06
-1.65026e-09
-1.38224e-06
-3.14181e-09
-1.37995e-06
-4.44285e-09
-1.37481e-06
-5.42729e-09
-1.36547e-06
-5.90755e-09
-1.34921e-06
-5.70484e-09
-1.32118e-06
-4.71016e-09
-1.27333e-06
-3.09066e-09
-1.1939e-06
-1.28885e-09
-1.06634e-06
-7.9271e-07
1.21521e-09
-7.94328e-07
3.1372e-09
-1.06833e-06
4.81356e-09
-1.19542e-06
5.82815e-09
-1.27409e-06
6.03426e-09
-1.32135e-06
5.53016e-09
-1.34883e-06
4.49685e-09
-1.36461e-06
3.12172e-09
-1.37361e-06
1.56023e-09
-1.3785e-06
-8.9192e-11
-1.38064e-06
-1.72838e-09
-1.3806e-06
-3.28143e-09
-1.3784e-06
-4.63804e-09
-1.37345e-06
-5.66569e-09
-1.36444e-06
-6.16882e-09
-1.3487e-06
-5.95086e-09
-1.32139e-06
-4.91197e-09
-1.27436e-06
-3.204e-09
-1.19561e-06
-1.24735e-09
-1.0683e-06
-7.93956e-07
1.32539e-09
-7.95648e-07
3.28602e-09
-1.07028e-06
5.00623e-09
-1.19713e-06
6.03959e-09
-1.27512e-06
6.22777e-09
-1.32153e-06
5.69152e-09
-1.34829e-06
4.62778e-09
-1.36354e-06
3.22293e-09
-1.3722e-06
1.61914e-09
-1.3769e-06
-8.06317e-11
-1.37894e-06
-1.77419e-09
-1.3789e-06
-3.37796e-09
-1.37679e-06
-4.77848e-09
-1.37205e-06
-5.84521e-09
-1.36337e-06
-6.38017e-09
-1.34816e-06
-6.168e-09
-1.3216e-06
-5.1026e-09
-1.27542e-06
-3.31609e-09
-1.19739e-06
-1.24186e-09
-1.07037e-06
-7.95198e-07
1.40952e-09
-7.9705e-07
3.4244e-09
-1.07229e-06
5.23315e-09
-1.19894e-06
6.32863e-09
-1.27621e-06
6.51499e-09
-1.32172e-06
5.94415e-09
-1.34772e-06
4.83633e-09
-1.36243e-06
3.37934e-09
-1.37074e-06
1.71417e-09
-1.37523e-06
-4.44666e-11
-1.37718e-06
-1.79815e-09
-1.37714e-06
-3.44984e-09
-1.37514e-06
-4.88997e-09
-1.3706e-06
-5.98518e-09
-1.36227e-06
-6.54658e-09
-1.3476e-06
-6.34537e-09
-1.3218e-06
-5.27228e-09
-1.2765e-06
-3.44456e-09
-1.19921e-06
-1.31519e-09
-1.07249e-06
-7.96512e-07
1.37106e-09
-7.98414e-07
3.55158e-09
-1.07447e-06
5.47707e-09
-1.20086e-06
6.62909e-09
-1.27736e-06
6.81296e-09
-1.3219e-06
6.20299e-09
-1.34711e-06
5.04958e-09
-1.36128e-06
3.53309e-09
-1.36922e-06
1.80145e-09
-1.3735e-06
-2.22382e-11
-1.37535e-06
-1.83795e-09
-1.37533e-06
-3.54645e-09
-1.37342e-06
-5.03855e-09
-1.36911e-06
-6.1765e-09
-1.36113e-06
-6.77416e-09
-1.347e-06
-6.59007e-09
-1.32198e-06
-5.49885e-09
-1.27759e-06
-3.61115e-09
-1.2011e-06
-1.44677e-09
-1.07465e-06
-7.97958e-07
1.37829e-09
-7.99786e-07
3.70756e-09
-1.07679e-06
5.70862e-09
-1.20286e-06
6.86916e-09
-1.27852e-06
7.04138e-09
-1.32207e-06
6.40093e-09
-1.34646e-06
5.20736e-09
-1.36008e-06
3.64049e-09
-1.36765e-06
1.85157e-09
-1.3717e-06
-3.2666e-11
-1.37346e-06
-1.91067e-09
-1.37344e-06
-3.68185e-09
-1.37165e-06
-5.2366e-09
-1.36755e-06
-6.42514e-09
-1.35994e-06
-7.05669e-09
-1.34637e-06
-6.88937e-09
-1.32215e-06
-5.76034e-09
-1.27872e-06
-3.78065e-09
-1.20308e-06
-1.50322e-09
-1.07693e-06
-7.9946e-07
1.46413e-09
-8.01243e-07
3.86418e-09
-1.07919e-06
5.94468e-09
-1.20494e-06
7.12779e-09
-1.2797e-06
7.28886e-09
-1.32223e-06
6.61498e-09
-1.34579e-06
5.36567e-09
-1.35883e-06
3.74033e-09
-1.36602e-06
1.89172e-09
-1.36985e-06
-4.74642e-11
-1.37152e-06
-1.98146e-09
-1.37151e-06
-3.81265e-09
-1.36981e-06
-5.42726e-09
-1.36594e-06
-6.6689e-09
-1.35869e-06
-7.34089e-09
-1.34569e-06
-7.20198e-09
-1.32229e-06
-6.04825e-09
-1.27987e-06
-3.97704e-09
-1.20514e-06
-1.53667e-09
-1.07936e-06
-8.00995e-07
1.53028e-09
-8.02765e-07
4.05169e-09
-1.08171e-06
6.22306e-09
-1.2071e-06
7.42706e-09
-1.28091e-06
7.56023e-09
-1.32236e-06
6.83876e-09
-1.34506e-06
5.52729e-09
-1.35751e-06
3.84226e-09
-1.36433e-06
1.94001e-09
-1.36795e-06
-5.13619e-11
-1.36952e-06
-2.04025e-09
-1.36952e-06
-3.92881e-09
-1.36792e-06
-5.59688e-09
-1.36427e-06
-6.89665e-09
-1.3574e-06
-7.62263e-09
-1.34497e-06
-7.51938e-09
-1.32239e-06
-6.35496e-09
-1.28103e-06
-4.19424e-09
-1.2073e-06
-1.60091e-09
-1.08195e-06
-8.02595e-07
1.62934e-09
-8.04383e-07
4.30367e-09
-1.08438e-06
6.55039e-09
-1.20935e-06
7.74997e-09
-1.28211e-06
7.84242e-09
-1.32245e-06
7.0636e-09
-1.34428e-06
5.68617e-09
-1.35614e-06
3.94148e-09
-1.36259e-06
1.98928e-09
-1.36599e-06
-5.43144e-11
-1.36747e-06
-2.09811e-09
-1.36747e-06
-4.04273e-09
-1.36597e-06
-5.77077e-09
-1.36254e-06
-7.1296e-09
-1.35604e-06
-7.90207e-09
-1.3442e-06
-7.8317e-09
-1.32246e-06
-6.66309e-09
-1.28219e-06
-4.42871e-09
-1.20953e-06
-1.69942e-09
-1.08467e-06
-8.04293e-07
1.71834e-09
-8.06091e-07
4.5559e-09
-1.08721e-06
6.91846e-09
-1.2117e-06
8.14566e-09
-1.28334e-06
8.20444e-09
-1.32251e-06
7.35477e-09
-1.34343e-06
5.89589e-09
-1.35468e-06
4.07585e-09