/*--------------------------------*- C++ -*----------------------------------*\
  =========                 |
  \\      /  F ield         | OpenFOAM: The Open Source CFD Toolbox
   \\    /   O peration     | Website:  https://openfoam.org
    \\  /    A nd           | Version:  6
     \\/     M anipulation  |
\*---------------------------------------------------------------------------*/
FoamFile
{
    version     2.0;
    format      ascii;
    class       volVectorField;
    location    "30";
    object      U;
}
// * * * * * * * * * * * * * * * * * * * * * * * * * * * * * * * * * * * * * //

dimensions      [0 1 -1 0 0 0 0];

internalField   nonuniform List<vector> 
130000
(
(-0.0213463 -0.341188 0)
(-0.0219875 -0.361951 0)
(-0.0225518 -0.382383 0)
(-0.0230589 -0.402398 0)
(-0.0235113 -0.42185 0)
(-0.0239162 -0.440617 0)
(-0.0242786 -0.458604 0)
(-0.0246026 -0.47573 0)
(-0.0248921 -0.491935 0)
(-0.0251509 -0.507168 0)
(-0.0253823 -0.521397 0)
(-0.0255896 -0.534598 0)
(-0.0257757 -0.546766 0)
(-0.0259434 -0.557904 0)
(-0.026095 -0.568031 0)
(-0.0262327 -0.577175 0)
(-0.0263583 -0.585379 0)
(-0.0264738 -0.592695 0)
(-0.0265811 -0.599188 0)
(-0.0266813 -0.604932 0)
(-0.0228183 -0.339642 0)
(-0.0233187 -0.360499 0)
(-0.0237621 -0.381062 0)
(-0.0241811 -0.401207 0)
(-0.0245645 -0.420783 0)
(-0.0249119 -0.439666 0)
(-0.0252248 -0.457759 0)
(-0.0255056 -0.474981 0)
(-0.025757 -0.491272 0)
(-0.0259818 -0.506582 0)
(-0.0261831 -0.520877 0)
(-0.0263636 -0.534138 0)
(-0.026526 -0.546358 0)
(-0.0266729 -0.557541 0)
(-0.0268064 -0.567706 0)
(-0.0269283 -0.576884 0)
(-0.0270405 -0.585116 0)
(-0.0271446 -0.592455 0)
(-0.0272421 -0.598967 0)
(-0.0273343 -0.604724 0)
(-0.0249604 -0.338876 0)
(-0.0253847 -0.359726 0)
(-0.025738 -0.380322 0)
(-0.0260668 -0.400516 0)
(-0.0263667 -0.420146 0)
(-0.0266378 -0.439085 0)
(-0.0268813 -0.457231 0)
(-0.0270992 -0.474504 0)
(-0.0272937 -0.49084 0)
(-0.0274672 -0.506191 0)
(-0.0276224 -0.520523 0)
(-0.0277615 -0.533816 0)
(-0.0278872 -0.546062 0)
(-0.0280013 -0.557268 0)
(-0.0281061 -0.567454 0)
(-0.028203 -0.576648 0)
(-0.0282938 -0.584894 0)
(-0.0283798 -0.592244 0)
(-0.0284622 -0.598765 0)
(-0.0285418 -0.604529 0)
(-0.0279692 -0.33825 0)
(-0.0282467 -0.35913 0)
(-0.0284616 -0.37977 0)
(-0.0286634 -0.400012 0)
(-0.028848 -0.419692 0)
(-0.0290143 -0.438678 0)
(-0.0291628 -0.456869 0)
(-0.0292945 -0.474184 0)
(-0.0294108 -0.490557 0)
(-0.0295136 -0.50594 0)
(-0.0296048 -0.520301 0)
(-0.0296861 -0.533617 0)
(-0.0297598 -0.545882 0)
(-0.0298273 -0.557104 0)
(-0.0298905 -0.567301 0)
(-0.0299507 -0.576504 0)
(-0.0300091 -0.584756 0)
(-0.030067 -0.592111 0)
(-0.0301251 -0.598633 0)
(-0.0301831 -0.604396 0)
(-0.0314666 -0.337945 0)
(-0.0316146 -0.358831 0)
(-0.0316998 -0.379493 0)
(-0.0317744 -0.399761 0)
(-0.0318379 -0.419468 0)
(-0.0318904 -0.438482 0)
(-0.0319329 -0.4567 0)
(-0.0319661 -0.474038 0)
(-0.0319916 -0.490432 0)
(-0.0320106 -0.505833 0)
(-0.0320249 -0.520207 0)
(-0.0320361 -0.533533 0)
(-0.0320457 -0.545806 0)
(-0.0320551 -0.557032 0)
(-0.0320658 -0.567231 0)
(-0.0320787 -0.576433 0)
(-0.0320948 -0.584682 0)
(-0.0321149 -0.592032 0)
(-0.0321393 -0.598548 0)
(-0.0321671 -0.604304 0)
(-0.0353245 -0.33788 0)
(-0.035348 -0.358782 0)
(-0.03531 -0.37947 0)
(-0.035262 -0.39976 0)
(-0.0352058 -0.419486 0)
(-0.0351431 -0.438516 0)
(-0.0350757 -0.456747 0)
(-0.035005 -0.474095 0)
(-0.0349329 -0.490496 0)
(-0.0348607 -0.5059 0)
(-0.0347902 -0.520274 0)
(-0.0347228 -0.533598 0)
(-0.03466 -0.545865 0)
(-0.0346029 -0.557083 0)
(-0.0345525 -0.567272 0)
(-0.0345097 -0.576462 0)
(-0.034475 -0.584699 0)
(-0.034449 -0.592035 0)
(-0.0344314 -0.598536 0)
(-0.0344208 -0.604278 0)
(-0.0394115 -0.338052 0)
(-0.0393304 -0.35898 0)
(-0.0391795 -0.379697 0)
(-0.0390157 -0.400006 0)
(-0.0388444 -0.419744 0)
(-0.0386692 -0.438781 0)
(-0.0384931 -0.457014 0)
(-0.0383182 -0.474361 0)
(-0.0381467 -0.490756 0)
(-0.0379804 -0.506152 0)
(-0.0378213 -0.520514 0)
(-0.0376706 -0.533823 0)
(-0.0375299 -0.546073 0)
(-0.0374001 -0.557272 0)
(-0.0372823 -0.56744 0)
(-0.0371767 -0.576609 0)
(-0.0370841 -0.584823 0)
(-0.0370047 -0.592136 0)
(-0.0369376 -0.598615 0)
(-0.0368814 -0.604334 0)
(-0.0436595 -0.338439 0)
(-0.0434687 -0.359401 0)
(-0.0432123 -0.38015 0)
(-0.0429426 -0.400477 0)
(-0.0426654 -0.420225 0)
(-0.0423851 -0.439264 0)
(-0.0421057 -0.457493 0)
(-0.04183 -0.47483 0)
(-0.041561 -0.491212 0)
(-0.041301 -0.506589 0)
(-0.0410521 -0.52093 0)
(-0.040816 -0.534214 0)
(-0.0405943 -0.546437 0)
(-0.040388 -0.557607 0)
(-0.0401981 -0.567745 0)
(-0.0400248 -0.576883 0)
(-0.0398688 -0.585066 0)
(-0.0397301 -0.592348 0)
(-0.0396076 -0.598795 0)
(-0.0394995 -0.604484 0)
(-0.0479923 -0.339 0)
(-0.0476999 -0.360006 0)
(-0.0473494 -0.380794 0)
(-0.046985 -0.401146 0)
(-0.0466109 -0.420906 0)
(-0.0462328 -0.439947 0)
(-0.0458556 -0.458171 0)
(-0.0454834 -0.475495 0)
(-0.0451196 -0.491857 0)
(-0.0447672 -0.507211 0)
(-0.0444288 -0.521522 0)
(-0.0441065 -0.534775 0)
(-0.0438021 -0.546963 0)
(-0.0435167 -0.558096 0)
(-0.0432515 -0.568195 0)
(-0.0430068 -0.577294 0)
(-0.0427831 -0.585438 0)
(-0.0425804 -0.59268 0)
(-0.0423976 -0.599089 0)
(-0.0422326 -0.604741 0)
(-0.052375 -0.339735 0)
(-0.0520056 -0.360793 0)
(-0.0515659 -0.381623 0)
(-0.0511098 -0.402004 0)
(-0.0506428 -0.421778 0)
(-0.0501711 -0.440824 0)
(-0.0497003 -0.45904 0)
(-0.0492349 -0.47635 0)
(-0.048779 -0.49269 0)
(-0.048336 -0.508014 0)
(-0.0479092 -0.522292 0)
(-0.0475009 -0.535506 0)
(-0.0471131 -0.547653 0)
(-0.0467474 -0.558742 0)
(-0.0464049 -0.568797 0)
(-0.0460862 -0.577849 0)
(-0.0457918 -0.585946 0)
(-0.0455218 -0.593143 0)
(-0.0452748 -0.599506 0)
(-0.0450488 -0.605113 0)
(-0.0567476 -0.340618 0)
(-0.0563221 -0.361743 0)
(-0.0558085 -0.382624 0)
(-0.0552726 -0.403039 0)
(-0.0547215 -0.422833 0)
(-0.0541631 -0.441884 0)
(-0.0536039 -0.460095 0)
(-0.0530495 -0.477388 0)
(-0.0525046 -0.493704 0)
(-0.0519734 -0.508997 0)
(-0.0514595 -0.523237 0)
(-0.0509658 -0.536408 0)
(-0.0504947 -0.548509 0)
(-0.0500478 -0.559549 0)
(-0.0496267 -0.569552 0)
(-0.0492321 -0.578553 0)
(-0.0488645 -0.586597 0)
(-0.0485242 -0.593741 0)
(-0.0482098 -0.600052 0)
(-0.0479194 -0.605609 0)
(-0.0611593 -0.341636 0)
(-0.0606698 -0.36284 0)
(-0.0600791 -0.383782 0)
(-0.0594629 -0.404237 0)
(-0.0588297 -0.424055 0)
(-0.0581874 -0.443115 0)
(-0.057543 -0.461323 0)
(-0.0569026 -0.478602 0)
(-0.0562714 -0.494893 0)
(-0.0556541 -0.510153 0)
(-0.0550547 -0.524354 0)
(-0.0544765 -0.53748 0)
(-0.0539222 -0.54953 0)
(-0.0533939 -0.560517 0)
(-0.0528933 -0.570464 0)
(-0.0524214 -0.579408 0)
(-0.0519789 -0.587394 0)
(-0.0515661 -0.59448 0)
(-0.0511818 -0.600733 0)
(-0.0508241 -0.606234 0)
(-0.0655625 -0.342779 0)
(-0.0650001 -0.36407 0)
(-0.0643415 -0.385079 0)
(-0.0636544 -0.405583 0)
(-0.0629461 -0.425432 0)
(-0.0622254 -0.444508 0)
(-0.0615 -0.462716 0)
(-0.0607768 -0.479983 0)
(-0.0600616 -0.496251 0)
(-0.0593599 -0.511479 0)
(-0.0586759 -0.525639 0)
(-0.0580137 -0.538718 0)
(-0.0573763 -0.550716 0)
(-0.056766 -0.561647 0)
(-0.056185 -0.571535 0)
(-0.0556343 -0.580417 0)
(-0.055115 -0.588341 0)
(-0.0546276 -0.595364 0)
(-0.054171 -0.601555 0)
(-0.0537434 -0.606994 0)
(-0.0699707 -0.344028 0)
(-0.0693374 -0.365419 0)
(-0.0686117 -0.386507 0)
(-0.0678539 -0.407071 0)
(-0.0670712 -0.426959 0)
(-0.0662728 -0.446056 0)
(-0.0654673 -0.46427 0)
(-0.0646622 -0.481529 0)
(-0.0638639 -0.497777 0)
(-0.0630782 -0.512973 0)
(-0.0623101 -0.527093 0)
(-0.0615638 -0.540124 0)
(-0.0608428 -0.552068 0)
(-0.06015 -0.56294 0)
(-0.0594874 -0.572766 0)
(-0.0588568 -0.581584 0)
(-0.0582591 -0.589441 0)
(-0.0576951 -0.596398 0)
(-0.057164 -0.602522 0)
(-0.056664 -0.607895 0)
(-0.0743614 -0.345401 0)
(-0.0736673 -0.366902 0)
(-0.0728783 -0.388078 0)
(-0.0720518 -0.408707 0)
(-0.0711957 -0.42864 0)
(-0.0703207 -0.447764 0)
(-0.0694359 -0.465987 0)
(-0.0685494 -0.48324 0)
(-0.0676681 -0.499469 0)
(-0.0667986 -0.514635 0)
(-0.065946 -0.528714 0)
(-0.0651152 -0.541697 0)
(-0.0643098 -0.553587 0)
(-0.0635332 -0.564398 0)
(-0.0627878 -0.57416 0)
(-0.0620754 -0.58291 0)
(-0.0613974 -0.590699 0)
(-0.0607547 -0.597585 0)
(-0.0601467 -0.603639 0)
(-0.0595721 -0.608941 0)
(-0.0787479 -0.346883 0)
(-0.0779864 -0.368509 0)
(-0.0771344 -0.389784 0)
(-0.0762406 -0.410486 0)
(-0.0753125 -0.430471 0)
(-0.0743618 -0.449626 0)
(-0.0733984 -0.467864 0)
(-0.0724308 -0.485115 0)
(-0.0714666 -0.501327 0)
(-0.0705129 -0.516465 0)
(-0.0695754 -0.530505 0)
(-0.0686592 -0.54344 0)
(-0.0677685 -0.555274 0)
(-0.0669068 -0.566024 0)
(-0.066077 -0.57572 0)
(-0.0652811 -0.584401 0)
(-0.0645208 -0.592117 0)
(-0.0637972 -0.59893 0)
(-0.06311 -0.604909 0)
(-0.0624582 -0.610137 0)
(-0.0831469 -0.34848 0)
(-0.0823065 -0.370238 0)
(-0.0813866 -0.391619 0)
(-0.0804229 -0.412403 0)
(-0.0794216 -0.432447 0)
(-0.0783945 -0.451641 0)
(-0.0773518 -0.469898 0)
(-0.0763026 -0.487151 0)
(-0.0752548 -0.503351 0)
(-0.0742159 -0.518463 0)
(-0.0731921 -0.532466 0)
(-0.0721891 -0.545354 0)
(-0.0712113 -0.557132 0)
(-0.0702626 -0.567821 0)
(-0.0693462 -0.577449 0)
(-0.0684645 -0.586059 0)
(-0.0676194 -0.593701 0)
(-0.0668123 -0.600438 0)
(-0.0660433 -0.606339 0)
(-0.0653117 -0.611489 0)
(-0.0875275 -0.350178 0)
(-0.0866109 -0.37208 0)
(-0.085627 -0.393577 0)
(-0.084596 -0.414453 0)
(-0.0835222 -0.434565 0)
(-0.0824184 -0.453806 0)
(-0.0812956 -0.47209 0)
(-0.0801634 -0.489351 0)
(-0.0790303 -0.505543 0)
(-0.0779044 -0.520632 0)
(-0.0767924 -0.5346 0)
(-0.0757003 -0.547442 0)
(-0.0746331 -0.559166 0)
(-0.0735951 -0.569793 0)
(-0.0725895 -0.579353 0)
(-0.0716194 -0.58789 0)
(-0.0706868 -0.595456 0)
(-0.0697934 -0.602114 0)
(-0.0689395 -0.607935 0)
(-0.0681251 -0.613002 0)
(-0.0919128 -0.351987 0)
(-0.090933 -0.374045 0)
(-0.08988 -0.395671 0)
(-0.0887752 -0.416649 0)
(-0.0876235 -0.436837 0)
(-0.0864385 -0.456131 0)
(-0.0852317 -0.474447 0)
(-0.0840131 -0.491721 0)
(-0.0827916 -0.507908 0)
(-0.0815757 -0.522978 0)
(-0.0803725 -0.536913 0)
(-0.0791885 -0.54971 0)
(-0.0780288 -0.56138 0)
(-0.0768982 -0.571945 0)
(-0.0758004 -0.581436 0)
(-0.0747386 -0.589899 0)
(-0.0737151 -0.597387 0)
(-0.0727319 -0.603964 0)
(-0.0717898 -0.609701 0)
(-0.0708893 -0.614683 0)
(-0.0962804 -0.353925 0)
(-0.0952472 -0.376153 0)
(-0.0941271 -0.397916 0)
(-0.0929481 -0.419003 0)
(-0.0917172 -0.439274 0)
(-0.0904489 -0.458626 0)
(-0.0891556 -0.476977 0)
(-0.0878478 -0.494269 0)
(-0.0865351 -0.510455 0)
(-0.0852262 -0.525507 0)
(-0.0839287 -0.53941 0)
(-0.0826495 -0.552165 0)
(-0.0813941 -0.563782 0)
(-0.0801676 -0.574284 0)
(-0.078974 -0.583706 0)
(-0.0778169 -0.592094 0)
(-0.0766989 -0.599502 0)
(-0.0756223 -0.605994 0)
(-0.0745883 -0.611645 0)
(-0.0735979 -0.616538 0)
(-0.100675 -0.355989 0)
(-0.0995675 -0.378398 0)
(-0.0983727 -0.40031 0)
(-0.0971153 -0.421514 0)
(-0.0958018 -0.441875 0)
(-0.0944474 -0.461292 0)
(-0.0930647 -0.479685 0)
(-0.0916648 -0.496997 0)
(-0.0902576 -0.513186 0)
(-0.0888525 -0.528224 0)
(-0.0874572 -0.5421 0)
(-0.0860791 -0.554813 0)
(-0.0847241 -0.566377 0)
(-0.0833977 -0.576817 0)
(-0.0821044 -0.58617 0)
(-0.0808479 -0.594481 0)
(-0.0796313 -0.601807 0)
(-0.078457 -0.608214 0)
(-0.0773269 -0.613775 0)
(-0.0762425 -0.618576 0)
(-0.105071 -0.358168 0)
(-0.103877 -0.380772 0)
(-0.102608 -0.402844 0)
(-0.101273 -0.424177 0)
(-0.0998765 -0.444639 0)
(-0.0984339 -0.46413 0)
(-0.0969591 -0.482573 0)
(-0.0954638 -0.499913 0)
(-0.0939584 -0.516109 0)
(-0.092453 -0.531138 0)
(-0.0909559 -0.544987 0)
(-0.0894747 -0.557661 0)
(-0.0880159 -0.569174 0)
(-0.0865852 -0.579553 0)
(-0.0851876 -0.588836 0)
(-0.0838272 -0.59707 0)
(-0.0825073 -0.604313 0)
(-0.0812309 -0.610631 0)
(-0.0800001 -0.6161 0)
(-0.0788171 -0.620805 0)
(-0.109483 -0.360473 0)
(-0.108209 -0.383285 0)
(-0.106859 -0.40553 0)
(-0.105439 -0.427005 0)
(-0.103952 -0.447578 0)
(-0.102415 -0.467151 0)
(-0.100843 -0.485651 0)
(-0.0992466 -0.503025 0)
(-0.0976379 -0.519234 0)
(-0.0960271 -0.534256 0)
(-0.0944229 -0.548083 0)
(-0.0928335 -0.56072 0)
(-0.0912657 -0.572183 0)
(-0.0897256 -0.582502 0)
(-0.0882184 -0.591714 0)
(-0.0867488 -0.59987 0)
(-0.0853205 -0.607028 0)
(-0.0839366 -0.613255 0)
(-0.0826 -0.618629 0)
(-0.0813134 -0.623234 0)
(-0.113884 -0.362924 0)
(-0.11254 -0.38596 0)
(-0.111111 -0.408388 0)
(-0.109603 -0.430014 0)
(-0.108023 -0.450706 0)
(-0.106388 -0.470369 0)
(-0.104713 -0.488933 0)
(-0.103011 -0.506345 0)
(-0.101294 -0.522571 0)
(-0.0995721 -0.537591 0)
(-0.0978555 -0.551399 0)
(-0.0961523 -0.564001 0)
(-0.0944699 -0.575416 0)
(-0.0928147 -0.585674 0)
(-0.0911924 -0.594816 0)
(-0.089608 -0.602893 0)
(-0.0880657 -0.609964 0)
(-0.0865688 -0.616098 0)
(-0.0851209 -0.621373 0)
(-0.0837251 -0.625874 0)
(-0.118314 -0.365523 0)
(-0.116887 -0.388797 0)
(-0.115369 -0.411422 0)
(-0.113768 -0.433209 0)
(-0.112089 -0.45403 0)
(-0.110351 -0.473792 0)
(-0.108568 -0.492426 0)
(-0.106755 -0.509884 0)
(-0.104924 -0.526133 0)
(-0.103086 -0.541155 0)
(-0.101251 -0.554946 0)
(-0.0994279 -0.567515 0)
(-0.0976247 -0.578883 0)
(-0.0958481 -0.589082 0)
(-0.0941044 -0.598153 0)
(-0.0923988 -0.60615 0)
(-0.0907362 -0.613133 0)
(-0.0891202 -0.619172 0)
(-0.0875547 -0.624344 0)
(-0.0860435 -0.628738 0)
(-0.122746 -0.368262 0)
(-0.12123 -0.39179 0)
(-0.119625 -0.414629 0)
(-0.117929 -0.436593 0)
(-0.116149 -0.457556 0)
(-0.114303 -0.477427 0)
(-0.112408 -0.496142 0)
(-0.110479 -0.513653 0)
(-0.108528 -0.52993 0)
(-0.106567 -0.544959 0)
(-0.104607 -0.558738 0)
(-0.102658 -0.571277 0)
(-0.100727 -0.5826 0)
(-0.0988225 -0.59274 0)
(-0.0969506 -0.601741 0)
(-0.0951171 -0.609656 0)
(-0.0933273 -0.616549 0)
(-0.0915853 -0.622489 0)
(-0.0898955 -0.627556 0)
(-0.0882623 -0.631838 0)
(-0.1272 -0.371154 0)
(-0.125603 -0.394956 0)
(-0.123901 -0.418025 0)
(-0.122101 -0.44018 0)
(-0.120211 -0.461298 0)
(-0.11825 -0.481289 0)
(-0.116236 -0.500093 0)
(-0.114182 -0.517664 0)
(-0.112104 -0.533977 0)
(-0.110014 -0.549018 0)
(-0.107922 -0.562788 0)
(-0.105839 -0.5753 0)
(-0.103773 -0.58658 0)
(-0.101733 -0.596662 0)
(-0.0997254 -0.605592 0)
(-0.0977565 -0.613426 0)
(-0.0958321 -0.620226 0)
(-0.0939565 -0.626065 0)
(-0.0921349 -0.631022 0)
(-0.0903722 -0.635189 0)
(-0.131652 -0.37422 0)
(-0.12998 -0.398314 0)
(-0.128181 -0.42163 0)
(-0.126274 -0.44399 0)
(-0.124269 -0.465273 0)
(-0.122187 -0.485395 0)
(-0.120047 -0.504295 0)
(-0.117863 -0.521935 0)
(-0.115651 -0.538289 0)
(-0.113423 -0.553347 0)
(-0.111191 -0.567112 0)
(-0.108967 -0.5796 0)
(-0.106758 -0.590838 0)
(-0.104575 -0.600863 0)
(-0.102424 -0.609722 0)
(-0.100311 -0.617472 0)
(-0.0982445 -0.624179 0)
(-0.0962276 -0.629914 0)
(-0.0942662 -0.634758 0)
(-0.092366 -0.638804 0)
(-0.136141 -0.377456 0)
(-0.134377 -0.401865 0)
(-0.132473 -0.425448 0)
(-0.130452 -0.448029 0)
(-0.128325 -0.469491 0)
(-0.126114 -0.489755 0)
(-0.12384 -0.508763 0)
(-0.121518 -0.526478 0)
(-0.119164 -0.54288 0)
(-0.11679 -0.55796 0)
(-0.114411 -0.571725 0)
(-0.112036 -0.584192 0)
(-0.109677 -0.59539 0)
(-0.107341 -0.605359 0)
(-0.105038 -0.614147 0)
(-0.102774 -0.621814 0)
(-0.100556 -0.628424 0)
(-0.0983887 -0.634052 0)
(-0.096279 -0.63878 0)
(-0.0942328 -0.6427 0)
(-0.140653 -0.380875 0)
(-0.138787 -0.405622 0)
(-0.136772 -0.42949 0)
(-0.134631 -0.45231 0)
(-0.132376 -0.473966 0)
(-0.13003 -0.494383 0)
(-0.127615 -0.513509 0)
(-0.125146 -0.531309 0)
(-0.122641 -0.547766 0)
(-0.120114 -0.562875 0)
(-0.117577 -0.576644 0)
(-0.115044 -0.589093 0)
(-0.112524 -0.600254 0)
(-0.110027 -0.610168 0)
(-0.107562 -0.618885 0)
(-0.105136 -0.626466 0)
(-0.102758 -0.632979 0)
(-0.100432 -0.638497 0)
(-0.0981646 -0.643103 0)
(-0.0959634 -0.646893 0)
(-0.1452 -0.384491 0)
(-0.143223 -0.409596 0)
(-0.141088 -0.43377 0)
(-0.138818 -0.456845 0)
(-0.136426 -0.478711 0)
(-0.133936 -0.499295 0)
(-0.13137 -0.51855 0)
(-0.128747 -0.536445 0)
(-0.126081 -0.552965 0)
(-0.12339 -0.568109 0)
(-0.120687 -0.581887 0)
(-0.117985 -0.594323 0)
(-0.115294 -0.605449 0)
(-0.112625 -0.615309 0)
(-0.109988 -0.623955 0)
(-0.107391 -0.63145 0)
(-0.104841 -0.637862 0)
(-0.102346 -0.643267 0)
(-0.0999115 -0.647748 0)
(-0.0975455 -0.651401 0)
(-0.149771 -0.388317 0)
(-0.147679 -0.413804 0)
(-0.145418 -0.438304 0)
(-0.143012 -0.461652 0)
(-0.140475 -0.483743 0)
(-0.137833 -0.504508 0)
(-0.135108 -0.523905 0)
(-0.132319 -0.541905 0)
(-0.129483 -0.558497 0)
(-0.126618 -0.573683 0)
(-0.123738 -0.587476 0)
(-0.120855 -0.599901 0)
(-0.117983 -0.610995 0)
(-0.115131 -0.620803 0)
(-0.112311 -0.629379 0)
(-0.109531 -0.636786 0)
(-0.1068 -0.643095 0)
(-0.104124 -0.648383 0)
(-0.101511 -0.652734 0)
(-0.0989697 -0.656245 0)
(-0.154383 -0.392367 0)
(-0.152166 -0.41826 0)
(-0.14977 -0.443107 0)
(-0.147219 -0.466748 0)
(-0.144527 -0.489081 0)
(-0.141722 -0.510043 0)
(-0.138828 -0.529594 0)
(-0.135863 -0.54771 0)
(-0.132846 -0.564383 0)
(-0.129795 -0.579618 0)
(-0.126726 -0.593432 0)
(-0.123651 -0.605852 0)
(-0.120585 -0.616917 0)
(-0.117539 -0.626674 0)
(-0.114523 -0.635179 0)
(-0.111548 -0.642498 0)
(-0.108623 -0.648701 0)
(-0.105755 -0.653868 0)
(-0.102952 -0.658084 0)
(-0.100223 -0.661447 0)
(-0.159023 -0.396652 0)
(-0.156678 -0.42298 0)
(-0.154141 -0.448197 0)
(-0.151437 -0.472151 0)
(-0.148582 -0.494745 0)
(-0.145604 -0.515919 0)
(-0.142529 -0.535638 0)
(-0.139377 -0.553882 0)
(-0.136168 -0.570646 0)
(-0.132919 -0.585939 0)
(-0.129648 -0.59978 0)
(-0.12637 -0.6122 0)
(-0.123097 -0.623239 0)
(-0.119843 -0.632947 0)
(-0.116619 -0.641381 0)
(-0.113436 -0.64861 0)
(-0.110303 -0.654705 0)
(-0.10723 -0.659747 0)
(-0.104224 -0.663823 0)
(-0.101295 -0.667031 0)
(-0.163711 -0.401187 0)
(-0.161229 -0.427978 0)
(-0.158541 -0.453591 0)
(-0.155672 -0.477881 0)
(-0.152643 -0.500754 0)
(-0.149481 -0.522158 0)
(-0.146214 -0.54206 0)
(-0.142862 -0.560445 0)
(-0.139447 -0.577312 0)
(-0.135988 -0.592671 0)
(-0.132502 -0.606547 0)
(-0.129005 -0.618972 0)
(-0.125512 -0.629988 0)
(-0.122036 -0.639649 0)
(-0.118589 -0.648014 0)
(-0.115183 -0.655151 0)
(-0.111829 -0.661135 0)
(-0.108536 -0.666048 0)
(-0.105313 -0.669977 0)
(-0.10217 -0.673022 0)
(-0.168439 -0.405985 0)
(-0.165815 -0.433271 0)
(-0.162967 -0.459307 0)
(-0.159925 -0.483957 0)
(-0.156711 -0.507133 0)
(-0.153354 -0.528785 0)
(-0.149882 -0.548886 0)
(-0.146318 -0.567426 0)
(-0.142683 -0.584406 0)
(-0.138999 -0.599843 0)
(-0.135284 -0.613761 0)
(-0.131554 -0.626196 0)
(-0.127825 -0.637194 0)
(-0.124111 -0.64681 0)
(-0.120426 -0.655105 0)
(-0.116782 -0.66215 0)
(-0.113191 -0.66802 0)
(-0.109663 -0.672799 0)
(-0.106208 -0.676575 0)
(-0.102836 -0.679449 0)
(-0.173226 -0.411065 0)
(-0.170449 -0.438879 0)
(-0.167429 -0.465368 0)
(-0.164203 -0.490404 0)
(-0.16079 -0.513905 0)
(-0.157225 -0.535825 0)
(-0.153534 -0.556143 0)
(-0.149743 -0.574852 0)
(-0.145874 -0.59196 0)
(-0.14195 -0.607483 0)
(-0.137989 -0.621452 0)
(-0.134009 -0.633905 0)
(-0.130028 -0.644889 0)
(-0.12606 -0.654462 0)
(-0.12212 -0.662689 0)
(-0.118221 -0.669639 0)
(-0.114376 -0.675392 0)
(-0.110596 -0.680032 0)
(-0.106892 -0.683649 0)
(-0.103275 -0.686344 0)
(-0.178064 -0.416444 0)
(-0.175125 -0.444822 0)
(-0.171925 -0.471794 0)
(-0.168503 -0.497245 0)
(-0.164881 -0.521094 0)
(-0.161093 -0.543305 0)
(-0.15717 -0.563859 0)
(-0.153137 -0.582755 0)
(-0.149019 -0.600003 0)
(-0.144837 -0.615625 0)
(-0.140614 -0.629654 0)
(-0.136368 -0.642131 0)
(-0.132116 -0.653107 0)
(-0.127876 -0.662641 0)
(-0.123662 -0.670799 0)
(-0.11949 -0.677655 0)
(-0.115373 -0.683288 0)
(-0.111323 -0.687783 0)
(-0.107352 -0.691233 0)
(-0.103473 -0.693739 0)
(-0.182973 -0.422138 0)
(-0.17986 -0.451118 0)
(-0.176467 -0.478608 0)
(-0.172835 -0.504503 0)
(-0.168989 -0.528729 0)
(-0.164964 -0.551254 0)
(-0.160792 -0.572065 0)
(-0.156501 -0.591165 0)
(-0.152115 -0.608569 0)
(-0.147659 -0.624303 0)
(-0.143155 -0.638403 0)
(-0.138622 -0.650913 0)
(-0.134081 -0.661887 0)
(-0.129549 -0.671385 0)
(-0.125042 -0.679476 0)
(-0.120576 -0.686235 0)
(-0.116166 -0.691744 0)
(-0.111826 -0.696089 0)
(-0.107568 -0.699364 0)
(-0.103407 -0.701671 0)
(-0.187945 -0.428168 0)
(-0.184649 -0.45779 0)
(-0.181052 -0.485835 0)
(-0.177199 -0.512207 0)
(-0.173116 -0.536838 0)
(-0.168839 -0.559703 0)
(-0.164402 -0.580793 0)
(-0.159834 -0.600118 0)
(-0.155163 -0.617695 0)
(-0.150413 -0.633556 0)
(-0.145607 -0.647739 0)
(-0.140768 -0.66029 0)
(-0.135916 -0.671268 0)
(-0.13107 -0.680734 0)
(-0.126248 -0.68876 0)
(-0.121467 -0.695422 0)
(-0.116743 -0.700804 0)
(-0.112091 -0.704993 0)
(-0.107524 -0.708084 0)
(-0.103059 -0.71018 0)
(-0.193002 -0.434556 0)
(-0.189511 -0.464864 0)
(-0.185696 -0.493502 0)
(-0.181605 -0.520386 0)
(-0.177267 -0.545454 0)
(-0.172721 -0.568685 0)
(-0.168002 -0.59008 0)
(-0.163139 -0.609651 0)
(-0.158161 -0.627421 0)
(-0.153096 -0.643424 0)
(-0.147968 -0.657703 0)
(-0.142799 -0.670307 0)
(-0.137613 -0.681296 0)
(-0.13243 -0.690735 0)
(-0.127268 -0.698697 0)
(-0.122147 -0.705261 0)
(-0.117084 -0.710512 0)
(-0.112096 -0.714539 0)
(-0.107198 -0.717437 0)
(-0.102406 -0.719311 0)
(-0.198137 -0.441323 0)
(-0.194439 -0.472363 0)
(-0.190394 -0.501635 0)
(-0.186054 -0.529069 0)
(-0.181447 -0.554607 0)
(-0.176614 -0.578237 0)
(-0.171593 -0.599964 0)
(-0.166414 -0.619805 0)
(-0.16111 -0.637789 0)
(-0.155706 -0.653952 0)
(-0.150232 -0.668342 0)
(-0.14471 -0.68101 0)
(-0.139164 -0.692019 0)
(-0.133617 -0.701437 0)
(-0.12809 -0.709339 0)
(-0.122603 -0.715804 0)
(-0.117175 -0.72092 0)
(-0.111824 -0.724777 0)
(-0.106567 -0.727472 0)
(-0.101423 -0.729112 0)
(-0.203371 -0.448491 0)
(-0.199454 -0.480311 0)
(-0.195164 -0.510264 0)
(-0.190556 -0.538288 0)
(-0.185661 -0.564335 0)
(-0.180523 -0.588397 0)
(-0.175179 -0.610485 0)
(-0.169664 -0.630624 0)
(-0.164008 -0.648845 0)
(-0.158242 -0.665189 0)
(-0.152395 -0.679706 0)
(-0.146492 -0.692453 0)
(-0.140559 -0.703493 0)
(-0.13462 -0.712896 0)
(-0.128699 -0.72074 0)
(-0.122816 -0.727107 0)
(-0.116993 -0.732084 0)
(-0.111251 -0.735764 0)
(-0.105606 -0.738245 0)
(-0.100081 -0.739635 0)
(-0.208701 -0.456082 0)
(-0.204554 -0.488737 0)
(-0.200006 -0.519418 0)
(-0.195115 -0.548078 0)
(-0.189916 -0.574673 0)
(-0.184453 -0.599204 0)
(-0.178765 -0.621688 0)
(-0.172888 -0.642154 0)
(-0.166856 -0.660639 0)
(-0.160701 -0.677187 0)
(-0.154453 -0.691852 0)
(-0.14814 -0.704693 0)
(-0.141789 -0.715775 0)
(-0.135427 -0.725172 0)
(-0.129078 -0.732963 0)
(-0.122767 -0.739231 0)
(-0.116518 -0.744065 0)
(-0.110351 -0.747561 0)
(-0.104287 -0.749816 0)
(-0.0983494 -0.75094 0)
(-0.214152 -0.464125 0)
(-0.20976 -0.49767 0)
(-0.204935 -0.52913 0)
(-0.199744 -0.558473 0)
(-0.19422 -0.585661 0)
(-0.18841 -0.610703 0)
(-0.182354 -0.63362 0)
(-0.17609 -0.654448 0)
(-0.169655 -0.673227 0)
(-0.16308 -0.690006 0)
(-0.1564 -0.70484 0)
(-0.149643 -0.717793 0)
(-0.14284 -0.728932 0)
(-0.13602 -0.738333 0)
(-0.129208 -0.746075 0)
(-0.122433 -0.752245 0)
(-0.11572 -0.756933 0)
(-0.109093 -0.760235 0)
(-0.102574 -0.762252 0)
(-0.0961893 -0.763093 0)
(-0.219719 -0.472642 0)
(-0.215067 -0.507136 0)
(-0.209954 -0.539432 0)
(-0.204447 -0.569511 0)
(-0.198579 -0.597342 0)
(-0.192399 -0.622939 0)
(-0.185951 -0.646333 0)
(-0.179273 -0.66756 0)
(-0.172403 -0.686668 0)
(-0.165377 -0.703708 0)
(-0.158229 -0.718739 0)
(-0.150993 -0.731825 0)
(-0.1437 -0.743037 0)
(-0.136381 -0.752453 0)
(-0.129067 -0.760153 0)
(-0.121787 -0.766226 0)
(-0.11457 -0.770763 0)
(-0.107443 -0.773863 0)
(-0.10043 -0.775627 0)
(-0.0935589 -0.776166 0)
(-0.225429 -0.481658 0)
(-0.220502 -0.517165 0)
(-0.215082 -0.550358 0)
(-0.209238 -0.581231 0)
(-0.203004 -0.609759 0)
(-0.19643 -0.635964 0)
(-0.189561 -0.659881 0)
(-0.182437 -0.681553 0)
(-0.175099 -0.70103 0)
(-0.167585 -0.718366 0)
(-0.159931 -0.733623 0)
(-0.152174 -0.746868 0)
(-0.144347 -0.758173 0)
(-0.136486 -0.767617 0)
(-0.128624 -0.775283 0)
(-0.120794 -0.78126 0)
(-0.113028 -0.785643 0)
(-0.105355 -0.788529 0)
(-0.0978027 -0.790024 0)
(-0.0904035 -0.790238 0)
(-0.23128 -0.491198 0)
(-0.226063 -0.527786 0)
(-0.220322 -0.561941 0)
(-0.214124 -0.593672 0)
(-0.207503 -0.622959 0)
(-0.200508 -0.649831 0)
(-0.193189 -0.674327 0)
(-0.185586 -0.696494 0)
(-0.177742 -0.716386 0)
(-0.169698 -0.73406 0)
(-0.161494 -0.749579 0)
(-0.153168 -0.763012 0)
(-0.14476 -0.774433 0)
(-0.136306 -0.783921 0)
(-0.127845 -0.791561 0)
(-0.119412 -0.797445 0)
(-0.111045 -0.801668 0)
(-0.102776 -0.804329 0)
(-0.0946358 -0.805536 0)
(-0.0866604 -0.805399 0)
(-0.237301 -0.501291 0)
(-0.231779 -0.539031 0)
(-0.225697 -0.57422 0)
(-0.219123 -0.606879 0)
(-0.212088 -0.636995 0)
(-0.204644 -0.6646 0)
(-0.196839 -0.689738 0)
(-0.188718 -0.712461 0)
(-0.180325 -0.732822 0)
(-0.171704 -0.750882 0)
(-0.162898 -0.766705 0)
(-0.153951 -0.78036 0)
(-0.144903 -0.791923 0)
(-0.135799 -0.801474 0)
(-0.126679 -0.809099 0)
(-0.117585 -0.814891 0)
(-0.108558 -0.818947 0)
(-0.0996351 -0.821368 0)
(-0.0908516 -0.822264 0)
(-0.0822469 -0.821746 0)
(-0.24349 -0.511958 0)
(-0.237648 -0.550928 0)
(-0.231211 -0.58723 0)
(-0.224242 -0.620899 0)
(-0.216768 -0.651922 0)
(-0.208842 -0.680338 0)
(-0.200514 -0.706193 0)
(-0.19183 -0.72954 0)
(-0.182838 -0.750435 0)
(-0.173586 -0.768937 0)
(-0.16412 -0.785113 0)
(-0.154487 -0.799031 0)
(-0.144736 -0.810766 0)
(-0.134913 -0.820401 0)
(-0.125066 -0.828023 0)
(-0.115242 -0.833724 0)
(-0.105488 -0.837604 0)
(-0.0958457 -0.839767 0)
(-0.0863558 -0.840324 0)
(-0.0770626 -0.839389 0)
(-0.249878 -0.523222 0)
(-0.243701 -0.563507 0)
(-0.236891 -0.601011 0)
(-0.229501 -0.63578 0)
(-0.221557 -0.667804 0)
(-0.213111 -0.697121 0)
(-0.204215 -0.72378 0)
(-0.194918 -0.747833 0)
(-0.185269 -0.769335 0)
(-0.17532 -0.788348 0)
(-0.165123 -0.804934 0)
(-0.154732 -0.819162 0)
(-0.144199 -0.831107 0)
(-0.133578 -0.840851 0)
(-0.122923 -0.84848 0)
(-0.112289 -0.85409 0)
(-0.101728 -0.857781 0)
(-0.0912917 -0.859661 0)
(-0.0810238 -0.859845 0)
(-0.0709752 -0.858447 0)
(-0.256469 -0.535103 0)
(-0.249947 -0.576795 0)
(-0.242746 -0.615603 0)
(-0.234913 -0.651579 0)
(-0.226466 -0.68471 0)
(-0.217458 -0.715036 0)
(-0.207942 -0.742601 0)
(-0.197969 -0.767457 0)
(-0.187594 -0.789656 0)
(-0.176873 -0.809258 0)
(-0.165863 -0.826322 0)
(-0.154625 -0.840916 0)
(-0.143217 -0.853113 0)
(-0.131704 -0.862993 0)
(-0.120146 -0.870643 0)
(-0.108607 -0.876158 0)
(-0.0971481 -0.879643 0)
(-0.0858286 -0.881207 0)
(-0.0747002 -0.880971 0)
(-0.0638207 -0.879054 0)
(-0.263303 -0.547621 0)
(-0.25642 -0.590824 0)
(-0.248807 -0.631051 0)
(-0.240499 -0.668359 0)
(-0.231508 -0.702726 0)
(-0.221886 -0.734185 0)
(-0.211687 -0.762778 0)
(-0.200966 -0.788551 0)
(-0.189782 -0.811554 0)
(-0.178197 -0.831838 0)
(-0.166275 -0.849462 0)
(-0.154085 -0.864487 0)
(-0.141694 -0.876984 0)
(-0.129175 -0.887031 0)
(-0.1166 -0.894713 0)
(-0.104044 -0.900128 0)
(-0.0915772 -0.903379 0)
(-0.0792711 -0.904584 0)
(-0.0671862 -0.903868 0)
(-0.0553892 -0.901357 0)
(-0.270383 -0.560786 0)
(-0.263129 -0.605618 0)
(-0.255085 -0.647404 0)
(-0.246271 -0.686193 0)
(-0.236687 -0.721948 0)
(-0.226388 -0.754692 0)
(-0.215429 -0.784458 0)
(-0.203871 -0.811285 0)
(-0.191779 -0.835214 0)
(-0.179221 -0.856292 0)
(-0.16627 -0.87457 0)
(-0.153003 -0.890104 0)
(-0.139499 -0.902958 0)
(-0.125842 -0.913207 0)
(-0.112116 -0.920933 0)
(-0.0984103 -0.926234 0)
(-0.0848083 -0.929217 0)
(-0.0713942 -0.930003 0)
(-0.0582409 -0.928727 0)
(-0.0454267 -0.925524 0)
(-0.277757 -0.574609 0)
(-0.270112 -0.621211 0)
(-0.261607 -0.664722 0)
(-0.252237 -0.705174 0)
(-0.241994 -0.742502 0)
(-0.230934 -0.776712 0)
(-0.219118 -0.807823 0)
(-0.206613 -0.835862 0)
(-0.193489 -0.860865 0)
(-0.179826 -0.882866 0)
(-0.165706 -0.901908 0)
(-0.151218 -0.918038 0)
(-0.136451 -0.931314 0)
(-0.121505 -0.941804 0)
(-0.106476 -0.949587 0)
(-0.0914695 -0.954757 0)
(-0.0765856 -0.957422 0)
(-0.0619247 -0.957712 0)
(-0.047575 -0.95577 0)
(-0.0336298 -0.95175 0)
(-0.285424 -0.589099 0)
(-0.277367 -0.637651 0)
(-0.268354 -0.683101 0)
(-0.25836 -0.725434 0)
(-0.247368 -0.764556 0)
(-0.235436 -0.800448 0)
(-0.222634 -0.833107 0)
(-0.209039 -0.862545 0)
(-0.194733 -0.888787 0)
(-0.179808 -0.911858 0)
(-0.164356 -0.931787 0)
(-0.148481 -0.948612 0)
(-0.132288 -0.962381 0)
(-0.115887 -0.973153 0)
(-0.0993936 -0.981001 0)
(-0.0829271 -0.986015 0)
(-0.0666068 -0.988303 0)
(-0.0505511 -0.987999 0)
(-0.0348663 -0.98526 0)
(-0.0196647 -0.980263 0)
(-0.293415 -0.604302 0)
(-0.2849 -0.655025 0)
(-0.275295 -0.70268 0)
(-0.26456 -0.74718 0)
(-0.252672 -0.78837 0)
(-0.239704 -0.826192 0)
(-0.225741 -0.860625 0)
(-0.210871 -0.891668 0)
(-0.195193 -0.919334 0)
(-0.178816 -0.943628 0)
(-0.161851 -0.964572 0)
(-0.144414 -0.982188 0)
(-0.126625 -0.996516 0)
(-0.108609 -1.00761 0)
(-0.0904969 -1.01552 0)
(-0.0724235 -1.02035 0)
(-0.0545245 -1.02219 0)
(-0.0369355 -1.02118 0)
(-0.0197815 -1.01749 0)
(-0.00319634 -1.01133 0)
(-0.301678 -0.620298 0)
(-0.292617 -0.673503 0)
(-0.282292 -0.723712 0)
(-0.27064 -0.770723 0)
(-0.257651 -0.814302 0)
(-0.243417 -0.854346 0)
(-0.228048 -0.890812 0)
(-0.211662 -0.923677 0)
(-0.194381 -0.952936 0)
(-0.176335 -0.978588 0)
(-0.157661 -1.00064 0)
(-0.138492 -1.01912 0)
(-0.118957 -1.03405 0)
(-0.0991946 -1.04547 0)
(-0.0793493 -1.05344 0)
(-0.059565 -1.05803 0)
(-0.039989 -1.05935 0)
(-0.020767 -1.05752 0)
(-0.0020392 -1.05273 0)
(0.0160416 -1.04522 0)
(-0.310153 -0.637274 0)
(-0.300385 -0.69339 0)
(-0.289113 -0.7466 0)
(-0.276279 -0.796542 0)
(-0.261894 -0.842885 0)
(-0.246092 -0.885468 0)
(-0.229023 -0.924215 0)
(-0.21084 -0.95909 0)
(-0.191704 -0.990076 0)
(-0.171772 -1.01717 0)
(-0.151202 -1.04037 0)
(-0.130147 -1.05972 0)
(-0.10876 -1.07523 0)
(-0.0871797 -1.08694 0)
(-0.065551 -1.09491 0)
(-0.0440208 -1.09921 0)
(-0.0227377 -1.09992 0)
(-0.00184676 -1.09719 0)
(0.0185088 -1.09118 0)
(0.0381669 -1.08217 0)
(-0.318647 -0.655577 0)
(-0.30792 -0.715176 0)
(-0.295379 -0.771942 0)
(-0.281004 -0.825294 0)
(-0.264865 -0.874784 0)
(-0.247152 -0.920199 0)
(-0.228068 -0.961436 0)
(-0.207821 -0.998439 0)
(-0.18661 -1.0312 0)
(-0.164621 -1.05971 0)
(-0.142035 -1.08402 0)
(-0.119018 -1.10415 0)
(-0.095733 -1.12013 0)
(-0.072325 -1.13203 0)
(-0.0489318 -1.1399 0)
(-0.0256849 -1.14381 0)
(-0.00272756 -1.14386 0)
(0.0198092 -1.14016 0)
(0.0417939 -1.13288 0)
(0.0630726 -1.12231 0)
(-0.326948 -0.675763 0)
(-0.314899 -0.739575 0)
(-0.30067 -0.80052 0)
(-0.284333 -0.857763 0)
(-0.266052 -0.910737 0)
(-0.246102 -0.959182 0)
(-0.224754 -1.00299 0)
(-0.202256 -1.04211 0)
(-0.178846 -1.07657 0)
(-0.154726 -1.10641 0)
(-0.130092 -1.13167 0)