/*--------------------------------*- C++ -*----------------------------------*\
  =========                 |
  \\      /  F ield         | OpenFOAM: The Open Source CFD Toolbox
   \\    /   O peration     | Website:  https://openfoam.org
    \\  /    A nd           | Version:  6
     \\/     M anipulation  |
\*---------------------------------------------------------------------------*/
FoamFile
{
    version     2.0;
    format      ascii;
    class       volVectorField;
    location    "30";
    object      U;
}
// * * * * * * * * * * * * * * * * * * * * * * * * * * * * * * * * * * * * * //

dimensions      [0 1 -1 0 0 0 0];

internalField   nonuniform List<vector> 
10000
(
(0.000475993 -3.05729 0)
(8.86069e-05 -4.09965 0)
(-0.000167486 -4.62474 0)
(-0.000132148 -4.99403 0)
(8.11207e-05 -5.2569 0)
(0.000160576 -5.43827 0)
(5.98449e-05 -5.55764 0)
(-0.000143952 -5.63186 0)
(-0.000358869 -5.67392 0)
(-0.000548252 -5.69208 0)
(-0.00067403 -5.69029 0)
(-0.000734938 -5.66865 0)
(-0.000712522 -5.62351 0)
(-0.000602524 -5.54725 0)
(-0.00041283 -5.42757 0)
(-0.000143653 -5.2479 0)
(4.48093e-05 -4.98817 0)
(-5.46994e-05 -4.62247 0)
(-0.000317048 -4.10065 0)
(-0.000633257 -3.05991 0)
(0.000497936 -3.0583 0)
(0.000567583 -4.1005 0)
(0.000587597 -4.62525 0)
(0.000529018 -4.99429 0)
(0.000511646 -5.2569 0)
(0.000412948 -5.43799 0)
(0.000213249 -5.55716 0)
(-5.47472e-05 -5.63129 0)
(-0.000342088 -5.67337 0)
(-0.000627356 -5.69161 0)
(-0.000873478 -5.68997 0)
(-0.0010687 -5.66854 0)
(-0.00120154 -5.6236 0)
(-0.00126311 -5.54759 0)
(-0.00123599 -5.42821 0)
(-0.00108014 -5.24876 0)
(-0.00088568 -4.98907 0)
(-0.000654375 -4.62326 0)
(-0.0004502 -4.1014 0)
(-0.000152936 -3.06176 0)
(0.000216816 -3.05941 0)
(0.000440441 -4.10117 0)
(0.000706323 -4.62592 0)
(0.00073511 -4.99466 0)
(0.0007045 -5.25696 0)
(0.000585221 -5.43781 0)
(0.000355259 -5.5568 0)
(5.26516e-05 -5.63079 0)
(-0.000291932 -5.67282 0)
(-0.000628976 -5.69105 0)
(-0.000934061 -5.68947 0)
(-0.00118503 -5.66814 0)
(-0.00138632 -5.6233 0)
(-0.00148001 -5.54746 0)
(-0.00148998 -5.42838 0)
(-0.00131282 -5.24921 0)
(-0.00105875 -4.98968 0)
(-0.000691441 -4.62385 0)
(-0.000336913 -4.10178 0)
(1.95686e-05 -3.06225 0)
(6.87626e-06 -3.06003 0)
(0.000421425 -4.10156 0)
(0.00086468 -4.62627 0)
(0.00106229 -4.99476 0)
(0.00101117 -5.25677 0)
(0.000850518 -5.43734 0)
(0.000560239 -5.55611 0)
(0.000194084 -5.63005 0)
(-0.00022502 -5.67208 0)
(-0.000630553 -5.69035 0)
(-0.00100877 -5.68886 0)
(-0.0013295 -5.66766 0)
(-0.00159559 -5.62298 0)
(-0.00175655 -5.54732 0)
(-0.00179111 -5.42852 0)
(-0.00167378 -5.24969 0)
(-0.00138055 -4.99055 0)
(-0.000940201 -4.62471 0)
(-0.000358628 -4.10244 0)
(3.463e-06 -3.06291 0)
(2.52861e-05 -3.06018 0)
(0.000406657 -4.10186 0)
(0.000853349 -4.62645 0)
(0.00118739 -4.99474 0)
(0.00120508 -5.2564 0)
(0.0010472 -5.43669 0)
(0.000725417 -5.55527 0)
(0.000306008 -5.62909 0)
(-0.000162603 -5.6711 0)
(-0.000627657 -5.68946 0)
(-0.00105584 -5.68806 0)
(-0.00143976 -5.66695 0)
(-0.00175885 -5.62246 0)
(-0.00196798 -5.54706 0)
(-0.00203017 -5.42857 0)
(-0.00190402 -5.25005 0)
(-0.00151748 -4.99117 0)
(-0.000974633 -4.62547 0)
(-0.000359351 -4.10293 0)
(-5.33647e-05 -3.06321 0)
(0.000339095 -3.06057 0)
(0.000566647 -4.10284 0)
(0.000916154 -4.62711 0)
(0.00125464 -4.99506 0)
(0.00129092 -5.25627 0)
(0.00112363 -5.43616 0)
(0.0007842 -5.55445 0)
(0.000349422 -5.6281 0)
(-0.000150239 -5.67009 0)
(-0.00063958 -5.68848 0)
(-0.00110963 -5.68716 0)
(-0.00152714 -5.66618 0)
(-0.00188342 -5.62188 0)
(-0.00210423 -5.54677 0)
(-0.00216487 -5.42861 0)
(-0.00199983 -5.2504 0)
(-0.00156141 -4.99194 0)
(-0.000992776 -4.62641 0)
(-0.000460818 -4.1038 0)
(-0.000265924 -3.06331 0)
(0.00049959 -3.06155 0)
(0.00065289 -4.10408 0)
(0.00100567 -4.62811 0)
(0.0013469 -4.99578 0)
(0.00141384 -5.25642 0)
(0.00124006 -5.43574 0)
(0.000881294 -5.55368 0)
(0.000415822 -5.62719 0)
(-0.00010622 -5.66909 0)
(-0.000614316 -5.68752 0)
(-0.00111355 -5.68626 0)
(-0.00155863 -5.66536 0)
(-0.00193205 -5.62124 0)
(-0.0021836 -5.54639 0)
(-0.00223278 -5.4287 0)
(-0.0020491 -5.25096 0)
(-0.00160702 -4.9928 0)
(-0.00101563 -4.6275 0)
(-0.000504523 -4.10485 0)
(-0.000396713 -3.06354 0)
(0.000402621 -3.06273 0)
(0.000657888 -4.10515 0)
(0.00114442 -4.62902 0)
(0.00149836 -4.99633 0)
(0.00164748 -5.25651 0)
(0.00146369 -5.43528 0)
(0.00107726 -5.55287 0)
(0.000557896 -5.62622 0)
(4.61371e-06 -5.66803 0)
(-0.000547781 -5.68648 0)
(-0.00107752 -5.68529 0)
(-0.00155498 -5.66453 0)
(-0.00193648 -5.62068 0)
(-0.00221294 -5.54615 0)
(-0.0022595 -5.42881 0)
(-0.00206238 -5.25168 0)
(-0.00162899 -4.99401 0)
(-0.0010767 -4.62881 0)
(-0.000571588 -4.10618 0)
(-0.000429624 -3.06439 0)
(0.000319501 -3.0636 0)
(0.00066798 -4.1059 0)
(0.00130134 -4.62984 0)
(0.00172583 -4.99678 0)
(0.00191825 -5.25645 0)
(0.00173943 -5.43468 0)
(0.00130668 -5.55187 0)
(0.000739685 -5.62506 0)
(0.000127654 -5.66687 0)
(-0.000478392 -5.68536 0)
(-0.00105008 -5.68427 0)
(-0.00157478 -5.66364 0)
(-0.00200045 -5.62001 0)
(-0.00230828 -5.54586 0)
(-0.00238815 -5.429 0)
(-0.00222333 -5.25249 0)
(-0.00178359 -4.99535 0)
(-0.0012226 -4.63041 0)
(-0.000556953 -4.10751 0)
(-0.000300401 -3.06543 0)
(0.000403134 -3.06435 0)
(0.000742651 -4.10693 0)
(0.00137773 -4.63075 0)
(0.00187583 -4.9973 0)
(0.00208243 -5.25641 0)
(0.00194745 -5.4341 0)
(0.00150662 -5.55086 0)
(0.000902727 -5.62382 0)
(0.000248889 -5.66557 0)
(-0.00041741 -5.68411 0)
(-0.00105184 -5.68308 0)
(-0.00163869 -5.66259 0)
(-0.00213121 -5.61918 0)
(-0.00248862 -5.54539 0)
(-0.00262085 -5.42903 0)
(-0.00247226 -5.25313 0)
(-0.00202267 -4.99645 0)
(-0.00131513 -4.63159 0)
(-0.000460085 -4.10835 0)
(-4.50491e-05 -3.06613 0)
(0.000484174 -3.06515 0)
(0.000797262 -4.10834 0)
(0.00152165 -4.63192 0)
(0.0020329 -4.99799 0)
(0.00227008 -5.25645 0)
(0.00213103 -5.43351 0)
(0.00169969 -5.54985 0)
(0.00106548 -5.62251 0)
(0.000376924 -5.66421 0)
(-0.000350086 -5.68275 0)
(-0.00104336 -5.68181 0)
(-0.00168785 -5.66145 0)
(-0.00222425 -5.61823 0)
(-0.00261261 -5.5448 0)
(-0.00276654 -5.42898 0)
(-0.00261184 -5.25368 0)
(-0.00214491 -4.99745 0)
(-0.00133821 -4.63279 0)
(-0.000525559 -4.10937 0)
(-7.42486e-05 -3.06646 0)
(0.000478313 -3.06607 0)
(0.000860406 -4.10981 0)
(0.00164583 -4.63329 0)
(0.00218115 -4.99884 0)
(0.00243663 -5.25662 0)
(0.00231813 -5.43302 0)
(0.00188115 -5.54887 0)
(0.00124005 -5.62121 0)
(0.000498767 -5.66276 0)
(-0.00027247 -5.68127 0)
(-0.00102572 -5.68041 0)
(-0.00171205 -5.66021 0)
(-0.00229053 -5.61732 0)
(-0.00269834 -5.54431 0)
(-0.00286386 -5.42897 0)
(-0.00271492 -5.25436 0)
(-0.00221651 -4.99874 0)
(-0.00142082 -4.63434 0)
(-0.000604802 -4.11099 0)
(-0.000295219 -3.06687 0)
(0.000376549 -3.06698 0)
(0.000824301 -4.1114 0)
(0.00172167 -4.63476 0)
(0.00234959 -4.99977 0)
(0.00263899 -5.25671 0)
(0.00257269 -5.43243 0)
(0.00210935 -5.54779 0)
(0.0014419 -5.61981 0)
(0.000640093 -5.6612 0)
(-0.00019 -5.67969 0)
(-0.00100167 -5.6789 0)
(-0.00174167 -5.65891 0)
(-0.00236698 -5.61634 0)
(-0.00280945 -5.54372 0)
(-0.00299619 -5.42897 0)
(-0.00285203 -5.25506 0)
(-0.00231011 -5.00009 0)
(-0.00152731 -4.63605 0)
(-0.000604632 -4.11253 0)
(-0.000357141 -3.06756 0)
(0.00026143 -3.0678 0)
(0.000835635 -4.11285 0)
(0.00181724 -4.6361 0)
(0.00254653 -5.00056 0)
(0.00289256 -5.2567 0)
(0.0028084 -5.43178 0)
(0.00233797 -5.54659 0)
(0.00162634 -5.61824 0)
(0.000777027 -5.65945 0)
(-0.000108762 -5.67795 0)
(-0.000981795 -5.67724 0)
(-0.00177566 -5.65746 0)
(-0.00244215 -5.61524 0)
(-0.00292425 -5.54306 0)
(-0.00313276 -5.42882 0)
(-0.00296312 -5.25565 0)
(-0.00242257 -5.00149 0)
(-0.00160366 -4.63779 0)
(-0.000678831 -4.11408 0)
(-0.000354222 -3.06824 0)
(0.00039672 -3.06878 0)
(0.00104788 -4.11473 0)
(0.00193736 -4.63777 0)
(0.00265986 -5.00159 0)
(0.00302262 -5.25687 0)
(0.00294768 -5.4311 0)
(0.00250037 -5.54532 0)
(0.00177418 -5.61666 0)
(0.000896485 -5.65767 0)
(-3.50004e-05 -5.67609 0)
(-0.000961063 -5.67546 0)
(-0.00181076 -5.65588 0)
(-0.002541 -5.61398 0)
(-0.00306641 -5.54224 0)
(-0.00331165 -5.42856 0)
(-0.00316648 -5.25614 0)
(-0.00260654 -5.0028 0)
(-0.00173084 -4.63947 0)
(-0.000739636 -4.11561 0)
(-0.00033404 -3.06872 0)
(0.000484686 -3.06996 0)
(0.00107349 -4.11666 0)
(0.00213406 -4.63961 0)
(0.002919 -5.00289 0)
(0.00327278 -5.25721 0)
(0.00318922 -5.43044 0)
(0.0027066 -5.544 0)
(0.00195539 -5.61497 0)
(0.00103868 -5.6558 0)
(5.69681e-05 -5.67417 0)
(-0.000926233 -5.67361 0)
(-0.00182524 -5.65422 0)
(-0.00260036 -5.61266 0)
(-0.00316356 -5.54135 0)
(-0.00342218 -5.42832 0)
(-0.00330121 -5.25672 0)
(-0.00271863 -5.00405 0)
(-0.00180863 -4.64104 0)
(-0.000814983 -4.11714 0)
(-0.000318887 -3.06917 0)
(0.00045718 -3.07138 0)
(0.001136 -4.11862 0)
(0.00222775 -4.64144 0)
(0.00309325 -5.00417 0)
(0.0034845 -5.2576 0)
(0.00340474 -5.42987 0)
(0.00291176 -5.54269 0)
(0.00212758 -5.61326 0)
(0.00117095 -5.65386 0)
(0.00013334 -5.67216 0)
(-0.000897112 -5.6717 0)
(-0.00184826 -5.65257 0)
(-0.00263833 -5.61134 0)
(-0.00320945 -5.54051 0)
(-0.00344766 -5.42828 0)
(-0.00329386 -5.25759 0)
(-0.00271935 -5.00568 0)
(-0.00189757 -4.64321 0)
(-0.0010037 -4.11942 0)
(-0.000480594 -3.07036 0)
(0.00049244 -3.07309 0)
(0.00121481 -4.1209 0)
(0.00237865 -4.64354 0)
(0.00330065 -5.00564 0)
(0.0037346 -5.25813 0)
(0.00365572 -5.42937 0)
(0.00314802 -5.54141 0)
(0.00231299 -5.61147 0)
(0.00130579 -5.65181 0)
(0.000201614 -5.67002 0)
(-0.000895081 -5.66966 0)
(-0.00191383 -5.65079 0)
(-0.00275975 -5.60997 0)
(-0.00338817 -5.53973 0)
(-0.00366065 -5.42822 0)
(-0.00352569 -5.2585 0)
(-0.00298454 -5.00753 0)
(-0.00212946 -4.64552 0)
(-0.000986015 -4.1216 0)
(-0.000416331 -3.07198 0)
(0.000502924 -3.07471 0)
(0.00129022 -4.12308 0)
(0.00255998 -4.64562 0)
(0.00356721 -5.00705 0)
(0.00406779 -5.25861 0)
(0.00398484 -5.42886 0)
(0.0034359 -5.54006 0)
(0.00255528 -5.60955 0)
(0.0014731 -5.64961 0)
(0.000299695 -5.66772 0)
(-0.000874645 -5.66742 0)
(-0.00196933 -5.6488 0)
(-0.00291066 -5.6084 0)
(-0.00361088 -5.53875 0)
(-0.00395557 -5.428 0)
(-0.00386914 -5.25911 0)
(-0.00329566 -5.0089 0)
(-0.00227046 -4.64735 0)
(-0.000941462 -4.12322 0)
(-0.000167645 -3.0732 0)
(0.000536255 -3.07602 0)
(0.00134784 -4.12527 0)
(0.0027046 -4.64768 0)
(0.00380685 -5.00841 0)
(0.00437341 -5.25902 0)
(0.00431099 -5.42826 0)
(0.00374707 -5.53857 0)
(0.00280826 -5.60746 0)
(0.0016594 -5.64722 0)
(0.000409737 -5.66527 0)
(-0.000848677 -5.66504 0)
(-0.00201428 -5.64664 0)
(-0.00302427 -5.60669 0)
(-0.00377142 -5.53767 0)
(-0.00414861 -5.42772 0)
(-0.00406329 -5.25975 0)
(-0.00345465 -5.01032 0)
(-0.00235308 -4.64919 0)
(-0.00107837 -4.1251 0)
(-0.000298338 -3.07411 0)
(0.000654848 -3.07735 0)
(0.00144118 -4.12781 0)
(0.00280163 -4.64993 0)
(0.0039488 -5.00992 0)
(0.00457358 -5.25944 0)
(0.00455491 -5.42759 0)
(0.00398734 -5.53706 0)
(0.00302049 -5.60531 0)
(0.00181111 -5.64469 0)
(0.000491307 -5.66265 0)
(-0.000838085 -5.66251 0)
(-0.002078 -5.64437 0)
(-0.00314445 -5.60487 0)
(-0.00391555 -5.53652 0)
(-0.00431646 -5.42747 0)
(-0.00419725 -5.26049 0)
(-0.00356119 -5.01196 0)
(-0.00246239 -4.6515 0)
(-0.00122704 -4.12772 0)
(-0.000575688 -3.07526 0)
(0.000752723 -3.07894 0)
(0.00155225 -4.13067 0)
(0.00294439 -4.65247 0)
(0.00409525 -5.01162 0)
(0.00475572 -5.25997 0)
(0.0047812 -5.42695 0)
(0.00418956 -5.53544 0)
(0.00320186 -5.60306 0)
(0.00194549 -5.64205 0)
(0.000564634 -5.65988 0)
(-0.000839144 -5.65982 0)
(-0.0021503 -5.64193 0)
(-0.00327724 -5.60288 0)
(-0.00410864 -5.53526 0)
(-0.0045446 -5.42714 0)
(-0.00443563 -5.26114 0)
(-0.00379135 -5.01356 0)
(-0.00266033 -4.65383 0)
(-0.00128822 -4.13037 0)
(-0.000595585 -3.07649 0)
(0.000729743 -3.0807 0)
(0.00164587 -4.13349 0)
(0.00313397 -4.65509 0)
(0.00430434 -5.01344 0)
(0.00496944 -5.26056 0)
(0.00499986 -5.42635 0)
(0.00439751 -5.53384 0)
(0.00337507 -5.60072 0)
(0.00208171 -5.63933 0)
(0.000639076 -5.65701 0)
(-0.000820672 -5.65701 0)
(-0.00219878 -5.63936 0)
(-0.00338024 -5.60081 0)
(-0.0042516 -5.53391 0)
(-0.00471822 -5.4267 0)
(-0.00464556 -5.26171 0)
(-0.00399083 -5.01512 0)
(-0.00284457 -4.65609 0)
(-0.00141203 -4.13286 0)
(-0.000535203 -3.07769 0)
(0.000684381 -3.08268 0)
(0.0017278 -4.13644 0)
(0.00325239 -4.65791 0)
(0.00444892 -5.01546 0)
(0.00513039 -5.26131 0)
(0.00516543 -5.42578 0)
(0.00459365 -5.5322 0)
(0.00356085 -5.59838 0)
(0.00222511 -5.63658 0)
(0.000735094 -5.65406 0)
(-0.00078636 -5.65412 0)
(-0.00222532 -5.63677 0)
(-0.00345245 -5.59867 0)
(-0.00435539 -5.5325 0)
(-0.00482199 -5.4263 0)
(-0.00475208 -5.26243 0)
(-0.00408359 -5.01691 0)
(-0.00295469 -4.65866 0)
(-0.00159036 -4.1357 0)
(-0.000623519 -3.07933 0)
(0.00058445 -3.08485 0)
(0.00169245 -4.13949 0)
(0.00337915 -4.66085 0)
(0.00468808 -5.01759 0)
(0.00538537 -5.26214 0)
(0.00540313 -5.4252 0)
(0.0048344 -5.53052 0)
(0.00376977 -5.59597 0)
(0.00238755 -5.63369 0)
(0.000840837 -5.65096 0)
(-0.000749293 -5.65109 0)
(-0.00225588 -5.63404 0)
(-0.00354701 -5.59645 0)
(-0.00450523 -5.53107 0)
(-0.00500152 -5.42594 0)
(-0.0049591 -5.26327 0)
(-0.00428431 -5.01889 0)
(-0.00311524 -4.66151 0)
(-0.0016579 -4.13878 0)
(-0.000639879 -3.08143 0)
(0.000499236 -3.08698 0)
(0.00174661 -4.14246 0)
(0.00350951 -4.66372 0)
(0.00492803 -5.01963 0)
(0.00565858 -5.26292 0)
(0.00567057 -5.42459 0)
(0.00508092 -5.5288 0)
(0.00397156 -5.59346 0)
(0.00253388 -5.63066 0)
(0.000918873 -5.64771 0)
(-0.000748135 -5.64789 0)
(-0.00232977 -5.63115 0)
(-0.00369552 -5.59415 0)
(-0.00472149 -5.52961 0)
(-0.00526038 -5.42554 0)
(-0.00522975 -5.26409 0)
(-0.00455452 -5.02091 0)
(-0.00331213 -4.66438 0)
(-0.00171718 -4.14175 0)
(-0.000536214 -3.08384 0)
(0.000553368 -3.08901 0)
(0.00181568 -4.14547 0)
(0.00358806 -4.66659 0)
(0.00507166 -5.02169 0)
(0.00586439 -5.2637 0)
(0.0059098 -5.42401 0)
(0.00529374 -5.52705 0)
(0.00414609 -5.59083 0)
(0.00265403 -5.62749 0)
(0.000965588 -5.6443 0)
(-0.000772565 -5.64452 0)
(-0.00243316 -5.62807 0)
(-0.00388427 -5.59168 0)
(-0.00497187 -5.52804 0)
(-0.00557412 -5.42504 0)
(-0.00553628 -5.26481 0)
(-0.00483479 -5.02291 0)
(-0.00348521 -4.66723 0)
(-0.00175947 -4.14468 0)
(-0.000463336 -3.08607 0)
(0.00072468 -3.09118 0)
(0.00192542 -4.14883 0)
(0.00365071 -4.66972 0)
(0.005148 -5.02388 0)
(0.00598476 -5.26455 0)
(0.00606251 -5.42348 0)
(0.00544402 -5.52529 0)
(0.00428347 -5.58809 0)
(0.00274611 -5.6242 0)
(0.000995953 -5.64078 0)
(-0.000812329 -5.64099 0)
(-0.00254339 -5.62482 0)
(-0.00405955 -5.58903 0)
(-0.0052076 -5.52631 0)
(-0.00585121 -5.42445 0)
(-0.00581276 -5.26548 0)
(-0.00505167 -5.02485 0)
(-0.00359547 -4.67 0)
(-0.00180403 -4.14763 0)
(-0.00051219 -3.08802 0)
(0.000808155 -3.09358 0)
(0.0019815 -4.15241 0)
(0.003794 -4.67308 0)
(0.00531157 -5.02626 0)
(0.00615988 -5.2655 0)
(0.00624217 -5.42299 0)
(0.00560015 -5.52351 0)
(0.00441968 -5.58536 0)
(0.00283869 -5.62084 0)
(0.00104356 -5.63712 0)
(-0.000819191 -5.63735 0)
(-0.00262174 -5.62147 0)
(-0.00418853 -5.58625 0)
(-0.00538743 -5.52447 0)
(-0.00603073 -5.4238 0)
(-0.00597621 -5.26616 0)
(-0.00515225 -5.02686 0)
(-0.00367463 -4.67298 0)
(-0.00192995 -4.15092 0)
(-0.000734273 -3.08987 0)
(0.000786463 -3.09605 0)
(0.00206706 -4.15598 0)
(0.00393622 -4.67649 0)
(0.00547711 -5.0287 0)
(0.00634903 -5.26649 0)
(0.00644477 -5.42253 0)
(0.00578169 -5.52171 0)
(0.00457328 -5.58254 0)
(0.00295788 -5.6174 0)
(0.0011152 -5.63337 0)
(-0.000802885 -5.63357 0)
(-0.00265211 -5.61798 0)
(-0.00427802 -5.58338 0)
(-0.00551546 -5.52257 0)
(-0.0061722 -5.42313 0)
(-0.00610985 -5.26692 0)
(-0.00526788 -5.02901 0)
(-0.0038092 -4.67614 0)
(-0.00203576 -4.15445 0)
(-0.000896489 -3.09189 0)
(0.000717309 -3.09824 0)
(0.00204231 -4.15943 0)
(0.00403909 -4.67978 0)
(0.00566265 -5.03101 0)
(0.00657541 -5.26732 0)
(0.00667764 -5.4219 0)
(0.00600179 -5.51977 0)
(0.00474947 -5.57959 0)
(0.00307981 -5.61383 0)
(0.00118019 -5.62951 0)
(-0.000789235 -5.62972 0)
(-0.00268057 -5.61444 0)
(-0.00434728 -5.58049 0)
(-0.00561304 -5.52066 0)
(-0.00628828 -5.42257 0)
(-0.00622477 -5.26788 0)
(-0.0053866 -5.03141 0)
(-0.00396189 -4.6796 0)
(-0.00216996 -4.15824 0)
(-0.000939643 -3.09444 0)
(0.000702345 -3.1003 0)
(0.00207571 -4.16287 0)
(0.0041087 -4.68297 0)
(0.00579203 -5.0332 0)
(0.0067266 -5.26804 0)
(0.00680585 -5.42111 0)
(0.00611637 -5.51769 0)
(0.00482739 -5.57655 0)
(0.00311867 -5.61017 0)
(0.00117842 -5.62556 0)
(-0.00083575 -5.62579 0)
(-0.00277121 -5.61084 0)
(-0.00447741 -5.57753 0)
(-0.00579233 -5.51871 0)
(-0.00649742 -5.422 0)
(-0.00645925 -5.26893 0)
(-0.00563669 -5.03397 0)
(-0.00415444 -4.68321 0)
(-0.00220233 -4.16211 0)
(-0.000847295 -3.09739 0)
(0.000941313 -3.10303 0)
(0.00236172 -4.16712 0)
(0.00424633 -4.68682 0)
(0.00581707 -5.03591 0)
(0.00672378 -5.26916 0)
(0.00679309 -5.42056 0)
(0.00611033 -5.51573 0)
(0.00481645 -5.57356 0)
(0.00310375 -5.60651 0)
(0.00114574 -5.62158 0)
(-0.000899538 -5.6218 0)
(-0.0028837 -5.60712 0)
(-0.0046491 -5.57442 0)
(-0.00601793 -5.51659 0)
(-0.0067842 -5.42125 0)
(-0.00677651 -5.26977 0)
(-0.00593359 -5.0363 0)
(-0.00429803 -4.68652 0)
(-0.0021698 -4.16559 0)
(-0.000651309 -3.10016 0)
(0.000928938 -3.1063 0)
(0.00236553 -4.17144 0)
(0.00448021 -4.69092 0)
(0.00607621 -5.03886 0)
(0.00695125 -5.27044 0)
(0.00699324 -5.42008 0)
(0.00626384 -5.5138 0)
(0.00491977 -5.57056 0)
(0.00317092 -5.60282 0)
(0.00117644 -5.61754 0)
(-0.000909227 -5.61772 0)
(-0.00293872 -5.60329 0)
(-0.00475595 -5.57118 0)
(-0.00616781 -5.51436 0)
(-0.00697723 -5.42042 0)
(-0.00697563 -5.27058 0)
(-0.00609053 -5.03865 0)
(-0.00438437 -4.68995 0)
(-0.00229162 -4.16933 0)
(-0.000711679 -3.10271 0)
(0.000656426 -3.10917 0)
(0.00231259 -4.17509 0)
(0.00460645 -4.69446 0)
(0.00638221 -5.04136 0)
(0.00729966 -5.27134 0)
(0.00731598 -5.41931 0)
(0.00651005 -5.51163 0)
(0.00509721 -5.56736 0)
(0.00327853 -5.59897 0)
(0.00122657 -5.61338 0)
(-0.000907572 -5.61353 0)
(-0.00298466 -5.59937 0)
(-0.00484913 -5.56787 0)
(-0.00630134 -5.51208 0)
(-0.00714027 -5.41965 0)
(-0.00715062 -5.27153 0)
(-0.00624428 -5.04128 0)
(-0.00453221 -4.69379 0)
(-0.00240845 -4.17359 0)
(-0.00090965 -3.1054 0)
(0.000718627 -3.11164 0)
(0.00245912 -4.17896 0)
(0.00470021 -4.69799 0)
(0.00654425 -5.04375 0)
(0.00750668 -5.27211 0)
(0.00751337 -5.41841 0)
(0.00667506 -5.50929 0)
(0.00521594 -5.564 0)
(0.00334366 -5.59499 0)
(0.00124287 -5.60909 0)
(-0.000941538 -5.60922 0)
(-0.00306641 -5.59534 0)
(-0.00497412 -5.56445 0)
(-0.00647768 -5.5097 0)
(-0.00735057 -5.41876 0)
(-0.00738136 -5.27243 0)
(-0.00646769 -5.04389 0)
(-0.00471123 -4.69762 0)
(-0.00245608 -4.17778 0)
(-0.000914728 -3.10816 0)
(0.000980066 -3.1143 0)
(0.002605 -4.18339 0)
(0.00481603 -4.70192 0)
(0.00662843 -5.0464 0)
(0.00760267 -5.27303 0)
(0.00761905 -5.41753 0)
(0.00677283 -5.50692 0)
(0.00528908 -5.5606 0)
(0.00338347 -5.59095 0)
(0.00124528 -5.60473 0)
(-0.000975788 -5.60484 0)
(-0.00313956 -5.59123 0)
(-0.00508561 -5.56096 0)
(-0.00662452 -5.50725 0)
(-0.00753353 -5.4178 0)
(-0.00758107 -5.27327 0)
(-0.00665988 -5.04649 0)
(-0.00486224 -4.70149 0)
(-0.00257968 -4.18206 0)
(-0.000891679 -3.11101 0)
(0.0010662 -3.11739 0)
(0.00267872 -4.18799 0)
(0.00496952 -4.70605 0)
(0.00676539 -5.04919 0)
(0.00771717 -5.27396 0)
(0.00771525 -5.41666 0)
(0.00684236 -5.50456 0)
(0.00533682 -5.55719 0)
(0.00340701 -5.58689 0)
(0.00123892 -5.60035 0)
(-0.00101756 -5.60043 0)
(-0.00321488 -5.5871 0)
(-0.00519499 -5.55747 0)
(-0.00676744 -5.50481 0)
(-0.00770358 -5.41689 0)
(-0.00777387 -5.27422 0)
(-0.00686328 -5.04931 0)
(-0.00504579 -4.70569 0)
(-0.00271696 -4.18676 0)
(-0.000938172 -3.11432 0)
(0.00105432 -3.12098 0)
(0.00281673 -4.19277 0)
(0.0051728 -4.71042 0)
(0.00695675 -5.05216 0)
(0.00786494 -5.27501 0)
(0.00781305 -5.41582 0)
(0.00690868 -5.5022 0)
(0.00537507 -5.55376 0)
(0.00341821 -5.58279 0)
(0.00121551 -5.59592 0)
(-0.00108194 -5.59596 0)
(-0.00332646 -5.58292 0)
(-0.00535358 -5.55392 0)
(-0.00697003 -5.50235 0)
(-0.00794367 -5.41597 0)
(-0.00804192 -5.27522 0)
(-0.00713661 -5.05228 0)
(-0.00527886 -4.71012 0)
(-0.00284969 -4.19166 0)
(-0.000962118 -3.11808 0)
(0.000956217 -3.12468 0)
(0.00283488 -4.19755 0)
(0.00539045 -4.71484 0)
(0.00727744 -5.05514 0)
(0.00816781 -5.27598 0)
(0.00806023 -5.41487 0)
(0.00708965 -5.49973 0)
(0.00549676 -5.55023 0)
(0.00348341 -5.57858 0)
(0.00121863 -5.59135 0)
(-0.00114789 -5.59134 0)
(-0.00346422 -5.57855 0)
(-0.0055664 -5.55018 0)
(-0.00725542 -5.49966 0)
(-0.00829652 -5.41482 0)
(-0.00843199 -5.27601 0)
(-0.00750773 -5.05508 0)
(-0.00552281 -4.71439 0)
(-0.00290909 -4.19634 0)
(-0.000918438 -3.12159 0)
(0.000845885 -3.12804 0)
(0.00284366 -4.2021 0)
(0.00556404 -4.71899 0)
(0.00761797 -5.05783 0)
(0.00853117 -5.27667 0)
(0.00837034 -5.41368 0)
(0.00732426 -5.49709 0)
(0.00566271 -5.54652 0)
(0.00358593 -5.57419 0)
(0.00125691 -5.58661 0)
(-0.00117207 -5.58654 0)
(-0.00355547 -5.574 0)
(-0.00572652 -5.54622 0)
(-0.00748233 -5.49675 0)
(-0.00859226 -5.41342 0)
(-0.00875559 -5.27651 0)
(-0.00778757 -5.05759 0)
(-0.00567749 -4.71838 0)
(-0.00297592 -4.20082 0)
(-0.000939906 -3.12455 0)
(0.00102144 -3.13125 0)
(0.00304452 -4.20709 0)
(0.00568894 -4.72338 0)
(0.00777272 -5.06061 0)
(0.00873583 -5.27733 0)
(0.00856617 -5.41239 0)
(0.00750713 -5.49433 0)
(0.00579967 -5.54272 0)
(0.00368021 -5.56971 0)
(0.00130486 -5.58177 0)
(-0.00116855 -5.58166 0)
(-0.00358562 -5.56938 0)
(-0.00578253 -5.54224 0)
(-0.00755647 -5.49383 0)
(-0.0086603 -5.41209 0)
(-0.00880935 -5.2772 0)
(-0.00781101 -5.06044 0)
(-0.00576196 -4.7229 0)
(-0.00324143 -4.2061 0)
(-0.0012624 -3.12783 0)
(0.0011822 -3.13465 0)
(0.00313307 -4.21245 0)
(0.00587401 -4.72805 0)
(0.00796713 -5.06353 0)
(0.00894555 -5.27804 0)
(0.00875721 -5.41105 0)
(0.00767385 -5.49151 0)
(0.00591553 -5.53886 0)
(0.00374733 -5.56516 0)
(0.00132198 -5.57687 0)
(-0.00119843 -5.57673 0)
(-0.00365518 -5.56476 0)
(-0.00588092 -5.53828 0)
(-0.00767803 -5.491 0)
(-0.0087846 -5.41091 0)
(-0.00894057 -5.2782 0)
(-0.00797404 -5.06378 0)
(-0.00599448 -4.72809 0)
(-0.00337635 -4.21203 0)
(-0.00143932 -3.13208 0)
(0.00123548 -3.13853 0)
(0.0033231 -4.21805 0)
(0.0060761 -4.73296 0)
(0.00814813 -5.06661 0)
(0.00911426 -5.27883 0)
(0.00890997 -5.40971 0)
(0.00779017 -5.48865 0)
(0.00599419 -5.53496 0)
(0.00377204 -5.56055 0)
(0.00129051 -5.5719 0)
(-0.00128915 -5.57173 0)
(-0.00380213 -5.56006 0)
(-0.00608151 -5.53426 0)
(-0.00793395 -5.48808 0)
(-0.00909895 -5.40965 0)
(-0.00930961 -5.27915 0)
(-0.00838394 -5.06707 0)
(-0.00630279 -4.73315 0)
(-0.00339217 -4.21759 0)
(-0.00118949 -3.13672 0)
(0.00122585 -3.14287 0)
(0.00345477 -4.22394 0)
(0.00635101 -4.73816 0)
(0.00845462 -5.06989 0)
(0.00938815 -5.27972 0)
(0.00916473 -5.40843 0)
(0.00797992 -5.48574 0)
(0.00612372 -5.53094 0)
(0.00382349 -5.55582 0)
(0.00126767 -5.5668 0)
(-0.00138565 -5.56659 0)
(-0.00397417 -5.55521 0)
(-0.00632608 -5.53007 0)
(-0.00824833 -5.48499 0)
(-0.00948943 -5.40819 0)
(-0.00975611 -5.27987 0)
(-0.0088074 -5.07017 0)
(-0.00653714 -4.73801 0)
(-0.00344036 -4.22293 0)
(-0.000996493 -3.14109 0)
(0.00110177 -3.14716 0)
(0.00350086 -4.22958 0)
(0.00660995 -4.74322 0)
(0.00886449 -5.07304 0)
(0.00980925 -5.28041 0)
(0.00954124 -5.40697 0)
(0.00826654 -5.48265 0)
(0.00632015 -5.52673 0)
(0.0039237 -5.55088 0)
(0.00128204 -5.56149 0)
(-0.001456 -5.56124 0)
(-0.00412396 -5.55017 0)
(-0.00655324 -5.5257 0)
(-0.00854991 -5.48173 0)
(-0.00985253 -5.40658 0)
(-0.0101382 -5.28051 0)
(-0.00911601 -5.07328 0)
(-0.00671305 -4.74302 0)
(-0.00356356 -4.2286 0)
(-0.00113759 -3.14517 0)
(0.0011354 -3.15125 0)
(0.00360216 -4.23531 0)
(0.00676741 -4.74825 0)
(0.009166 -5.07609 0)
(0.0102034 -5.28101 0)
(0.0099088 -5.40532 0)
(0.00857088 -5.47925 0)
(0.00653015 -5.52222 0)
(0.00403707 -5.5457 0)
(0.00130474 -5.55597 0)
(-0.00151348 -5.55571 0)
(-0.00425665 -5.54496 0)
(-0.00675806 -5.52118 0)
(-0.00880625 -5.47833 0)
(-0.0101557 -5.40488 0)
(-0.0104371 -5.28116 0)
(-0.00936399 -5.07656 0)
(-0.00691667 -4.74837 0)
(-0.0037171 -4.23472 0)
(-0.00141308 -3.14921 0)
(0.00133712 -3.15552 0)
(0.00376124 -4.24156 0)
(0.00700042 -4.75362 0)
(0.00945225 -5.07931 0)
(0.010549 -5.28166 0)
(0.0102359 -5.40361 0)
(0.00885822 -5.47574 0)
(0.00673026 -5.51755 0)
(0.00414651 -5.54036 0)
(0.00132693 -5.55031 0)
(-0.00156949 -5.55006 0)
(-0.00438343 -5.53963 0)
(-0.00694992 -5.51653 0)
(-0.00906126 -5.47483 0)
(-0.0104338 -5.40316 0)
(-0.0107295 -5.28185 0)
(-0.00962834 -5.07998 0)
(-0.00714035 -4.75396 0)
(-0.00379799 -4.2411 0)
(-0.00152655 -3.15343 0)
(0.00157498 -3.16035 0)
(0.00403626 -4.24838 0)
(0.0073395 -4.75958 0)
(0.0097729 -5.08298 0)
(0.0108614 -5.28261 0)
(0.0105214 -5.40201 0)
(0.00911682 -5.47222 0)
(0.00691797 -5.51283 0)
(0.00425675 -5.53496 0)
(0.00135746 -5.54458 0)
(-0.00161143 -5.54432 0)
(-0.00449578 -5.53424 0)
(-0.007115 -5.51186 0)
(-0.0092848 -5.47134 0)
(-0.0106795 -5.40147 0)
(-0.0109965 -5.28273 0)
(-0.0098924 -5.08371 0)
(-0.00738716 -4.75997 0)
(-0.00396748 -4.24792 0)
(-0.00156357 -3.15822 0)
(0.00155712 -3.16531 0)
(0.00406288 -4.25525 0)
(0.00765543 -4.76574 0)
(0.0102271 -5.0868 0)
(0.0113437 -5.28359 0)
(0.0109879 -5.40036 0)
(0.00949892 -5.46861 0)
(0.00719583 -5.50793 0)
(0.00442806 -5.52933 0)
(0.00141304 -5.53865 0)
(-0.00166051 -5.53842 0)
(-0.00464066 -5.52869 0)
(-0.00735901 -5.50706 0)
(-0.00959046 -5.4678 0)
(-0.0110743 -5.39985 0)
(-0.011411 -5.28376 0)
(-0.0103197 -5.08773 0)
(-0.00773008 -4.76637 0)
(-0.0040814 -4.25508 0)
(-0.00151667 -3.16352 0)
(0.00137876 -3.16986 0)
(0.00405065 -4.26185 0)
(0.00788435 -4.77161 0)
(0.0106694 -5.09028 0)
(0.0118751 -5.28414 0)
(0.0115173 -5.39834 0)
(0.00993008 -5.46465 0)
(0.00751742 -5.50268 0)
(0.00461517 -5.52337 0)
(0.00146099 -5.5324 0)
(-0.00174341 -5.5322 0)
(-0.00485129 -5.52287 0)
(-0.00770855 -5.502 0)
(-0.0100602 -5.46398 0)
(-0.0116385 -5.39801 0)
(-0.0120105 -5.28454 0)
(-0.0108723 -5.09159 0)
(-0.00806517 -4.77263 0)
(-0.0040989 -4.26202 0)
(-0.00134331 -3.16863 0)
(0.00149983 -3.17456 0)
(0.0042869 -4.26909 0)
(0.008184 -4.77792 0)
(0.0110292 -5.09401 0)
(0.0122501 -5.28476 0)
(0.0118632 -5.39623 0)
(0.0102283 -5.46047 0)
(0.00775711 -5.49717 0)
(0.00475954 -5.51717 0)
(0.00149016 -5.5259 0)
(-0.00183855 -5.52574 0)
(-0.00507495 -5.51674 0)
(-0.00804623 -5.49659 0)
(-0.0105092 -5.45985 0)
(-0.0121507 -5.39583 0)
(-0.0125565 -5.28512 0)
(-0.0113317 -5.09531 0)
(-0.00833742 -4.77888 0)
(-0.00424098 -4.2691 0)
(-0.00139893 -3.17325 0)
(0.0017724 -3.18003 0)
(0.00454084 -4.27725 0)
(0.00857991 -4.7851 0)
(0.0114476 -5.09842 0)
(0.0126217 -5.2858 0)
(0.0122017 -5.3943 0)
(0.0105242 -5.45634 0)
(0.0080006 -5.49166 0)
(0.00492085 -5.51085 0)
(0.0015607 -5.51921 0)
(-0.00187492 -5.51904 0)
(-0.0052218 -5.5104 0)
(-0.00829413 -5.49099 0)
(-0.0108408 -5.45556 0)
(-0.012534 -5.39363 0)
(-0.0129664 -5.28579 0)
(-0.0116951 -5.09925 0)
(-0.00863566 -4.78556 0)
(-0.00445055 -4.27686 0)
(-0.00170141 -3.17785 0)
(0.0017556 -3.18566 0)
(0.00456446 -4.28534 0)
(0.00898603 -4.79236 0)
(0.0120506 -5.10288 0)
(0.0132221 -5.28669 0)
(0.0127586 -5.39217 0)
(0.0109874 -5.45207 0)
(0.0083584 -5.48599 0)
(0.0051678 -5.50434 0)
(0.00168671 -5.51231 0)
(-0.00186867 -5.51215 0)
(-0.00532437 -5.5039 0)
(-0.00848797 -5.48533 0)
(-0.0111084 -5.45127 0)
(-0.0128157 -5.39146 0)
(-0.0132636 -5.28665 0)
(-0.0119951 -5.10363 0)
(-0.00898078 -4.79293 0)
(-0.00471821 -4.28543 0)
(-0.00198655 -3.18311 0)
(0.0016695 -3.19084 0)
(0.00463962 -4.2933 0)
(0.00934821 -4.79943 0)
(0.0126466 -5.10708 0)
(0.01386 -5.28724 0)
(0.0133367 -5.38969 0)
(0.0114685 -5.44746 0)
(0.00871534 -5.47998 0)
(0.0054051 -5.49751 0)
(0.00179047 -5.50512 0)
(-0.00189173 -5.505 0)
(-0.00546224 -5.49718 0)
(-0.00873215 -5.47948 0)
(-0.011442 -5.44685 0)
(-0.0132153 -5.38924 0)
(-0.0137391 -5.28763 0)
(-0.012528 -5.10824 0)
(-0.00946649 -4.8007 0)
(-0.00486488 -4.29433 0)
(-0.00198169 -3.18896 0)
(0.00193224 -3.19612 0)
(0.00494053 -4.30218 0)
(0.0097199 -4.80714 0)
(0.0130781 -5.11159 0)
(0.0143402 -5.28783 0)
(0.0137721 -5.38709 0)
(0.0118326 -5.44273 0)
(0.00897925 -5.47379 0)
(0.00556183 -5.49043 0)
(0.00183391 -5.49767 0)
(-0.00197196 -5.49759 0)
(-0.0056676 -5.49019 0)
(-0.00904867 -5.47338 0)
(-0.0118713 -5.44218 0)
(-0.0137692 -5.3868 0)
(-0.0143707 -5.28838 0)
(-0.0131905 -5.1127 0)
(-0.0099399 -4.8084 0)
(-0.00497864 -4.30316 0)
(-0.00180253 -3.19492 0)
(0.002129 -3.20186 0)
(0.00508898 -4.31179 0)
(0.0101738 -4.81545 0)
(0.0135884 -5.11636 0)
(0.0148581 -5.28853 0)
(0.0142284 -5.38449 0)
(0.0121979 -5.43783 0)
(0.00923325 -5.4674 0)
(0.00570328 -5.48315 0)
(0.00186422 -5.49 0)
(-0.00204911 -5.48994 0)
(-0.00585999 -5.48295 0)
(-0.00936229 -5.46701 0)
(-0.0122949 -5.4373 0)
(-0.0143258 -5.38415 0)
(-0.0150098 -5.28888 0)
(-0.0138484 -5.11712 0)
(-0.0104321 -4.81633 0)
(-0.00523267 -4.31243 0)
(-0.00186936 -3.20088 0)
(0.00212504 -3.208 0)
(0.00529176 -4.32164 0)
(0.0107268 -4.82395 0)
(0.0142375 -5.12115 0)
(0.0154424 -5.28915 0)
(0.014713 -5.3817 0)
(0.0125638 -5.43272 0)
(0.00948308 -5.46077 0)
(0.00585568 -5.47565 0)
(0.00192045 -5.48214 0)
(-0.00210658 -5.48212 0)
(-0.0060298 -5.47553 0)
(-0.00964523 -5.46047 0)
(-0.0127005 -5.43226 0)
(-0.0148435 -5.3814 0)
(-0.0156273 -5.2894 0)
(-0.0144937 -5.12176 0)
(-0.0109782 -4.82476 0)
(-0.00554301 -4.32248 0)
(-0.00214602 -3.20716 0)
(0.0022723 -3.21458 0)
(0.00566557 -4.33228 0)
(0.0113579 -4.83302 0)
(0.0149409 -5.1262 0)
(0.0160812 -5.28979 0)
(0.0152228 -5.37885 0)
(0.0129279 -5.42744 0)
(0.00973523 -5.45395 0)
(0.00600327 -5.46796 0)
(0.00196751 -5.47408 0)
(-0.00216509 -5.47407 0)
(-0.00619655 -5.4679 0)
(-0.00993491 -5.45375 0)
(-0.0131146 -5.42702 0)
(-0.0153715 -5.37847 0)
(-0.0162317 -5.28987 0)
(-0.0151165 -5.12657 0)
(-0.0115467 -4.83373 0)
(-0.0058902 -4.33328 0)
(-0.00243596 -3.21391 0)
(0.00235077 -3.22116 0)
(0.00585179 -4.34329 0)
(0.0120124 -4.84231 0)
(0.0157842 -5.13115 0)
(0.016905 -5.29016 0)
(0.0158925 -5.37565 0)
(0.0134281 -5.42179 0)
(0.010078 -5.44682 0)
(0.00619568 -5.46002 0)
(0.00203339 -5.46576 0)
(-0.00221343 -5.46575 0)
(-0.00636984 -5.45995 0)
(-0.0102428 -5.44662 0)
(-0.0135682 -5.42138 0)
(-0.0159901 -5.3752 0)
(-0.0169823 -5.29 0)
(-0.0159217 -5.13121 0)
(-0.012231 -4.84279 0)
(-0.00615045 -4.34436 0)
(-0.00255341 -3.22073 0)
(0.00241175 -3.22748 0)
(0.00612989 -4.35456 0)