# vtk DataFile Version 2.0
track0
ASCII
DATASET POLYDATA
POINTS 12122 float
-0.0205 0.001 1e-05
-0.0204945 0.0011 1e-05
-0.0204888 0.00119999 1e-05
-0.020483 0.00129997 1e-05
-0.020477 0.00139995 1e-05
-0.0204709 0.0015 1e-05
-0.0204646 0.0016 1e-05
-0.0204581 0.00169999 1e-05
-0.0204514 0.00179996 1e-05
-0.0204445 0.00189992 1e-05
-0.0204375 0.002 1e-05
-0.0204302 0.0021 1e-05
-0.0204227 0.00219998 1e-05
-0.020415 0.00229995 1e-05
-0.020407 0.0023999 1e-05
-0.0203988 0.0025 1e-05
-0.0203905 0.0026 1e-05
-0.0203818 0.00269998 1e-05
-0.0203729 0.00279994 1e-05
-0.0203638 0.00289987 1e-05
-0.0203545 0.003 1e-05
-0.0203448 0.0031 1e-05
-0.020335 0.00319998 1e-05
-0.0203249 0.00329993 1e-05
-0.0203145 0.00339985 1e-05
-0.0203039 0.0035 1e-05
-0.0203002 0.00353392 1e-05
-0.0202964 0.00356785 1e-05
-0.0202927 0.00360176 1e-05
-0.0202889 0.00363568 1e-05
-0.0202854 0.00366693 1e-05
-0.0202779 0.00373354 1e-05
-0.0202702 0.00380015 1e-05
-0.0202624 0.00386673 1e-05
-0.0202545 0.00393331 1e-05
-0.0202465 0.004 1e-05
-0.0202343 0.0041 1e-05
-0.0202218 0.00419997 1e-05
-0.0202091 0.0042999 1e-05
-0.0201961 0.0043998 1e-05
-0.0201828 0.0045 1e-05
-0.0201692 0.0046 1e-05
-0.0201554 0.00469996 1e-05
-0.0201413 0.00479989 1e-05
-0.020127 0.00489978 1e-05
-0.0201123 0.005 1e-05
-0.0200973 0.0051 1e-05
-0.0200821 0.00519996 1e-05
-0.0200667 0.00529988 1e-05
-0.0200509 0.00539975 1e-05
-0.0200348 0.0055 1e-05
-0.0200323 0.00551533 1e-05
-0.0200298 0.00553066 1e-05
-0.0200273 0.00554599 1e-05
-0.0200248 0.00556132 1e-05
-0.0200223 0.00557625 1e-05
-0.0200083 0.005661 1e-05
-0.0199941 0.00574572 1e-05
-0.0199797 0.0058304 1e-05
-0.0199651 0.00591505 1e-05
-0.0199502 0.006 1e-05
-0.0199324 0.0061 1e-05
-0.0199144 0.00619995 1e-05
-0.0198961 0.00629985 1e-05
-0.0198775 0.0063997 1e-05
-0.0198586 0.0065 1e-05
-0.0198394 0.0066 1e-05
-0.0198199 0.00669995 1e-05
-0.0198002 0.00679984 1e-05
-0.0197802 0.00689967 1e-05
-0.0197614 0.00699199 1e-05
-0.019761 0.00699359 1e-05
-0.0197607 0.00699519 1e-05
-0.0197604 0.00699679 1e-05
-0.01976 0.0069984 1e-05
-0.0197597 0.007 1e-05
-0.0197391 0.0071 1e-05
-0.0197181 0.00719994 1e-05
-0.0196969 0.00729982 1e-05
-0.0196754 0.00739964 1e-05
-0.0196535 0.0075 1e-05
-0.0196313 0.0076 1e-05
-0.0196089 0.00769994 1e-05
-0.0195862 0.00779981 1e-05
-0.0195632 0.00789961 1e-05
-0.0195397 0.008 1e-05
-0.0195323 0.00803147 1e-05
-0.0195248 0.00806293 1e-05
-0.0195173 0.00809438 1e-05
-0.0195098 0.00812583 1e-05
-0.0195025 0.00815607 1e-05
-0.0194859 0.00822486 1e-05
-0.0194692 0.00829361 1e-05
-0.0194523 0.00836233 1e-05
-0.0194353 0.00843101 1e-05
-0.019418 0.0085 1e-05
-0.0193928 0.0086 1e-05
-0.0193673 0.00869993 1e-05
-0.0193415 0.00879977 1e-05
-0.0193154 0.00889955 1e-05
-0.0192888 0.009 1e-05
-0.0192802 0.00903217 1e-05
-0.0192716 0.00906432 1e-05
-0.0192629 0.00909647 1e-05
-0.0192542 0.00912862 1e-05
-0.0192457 0.00915961 1e-05
-0.0192272 0.00922769 1e-05
-0.0192084 0.00929573 1e-05
-0.0191896 0.00936373 1e-05
-0.0191706 0.00943169 1e-05
-0.0191513 0.0095 1e-05
-0.0191229 0.0096 1e-05
-0.0190942 0.00969991 1e-05
-0.0190652 0.00979974 1e-05
-0.0190359 0.00989948 1e-05
-0.019006 0.01 1e-05
-0.019003 0.01001 1e-05
-0.019 0.01002 1e-05
-0.018997 0.0100299 1e-05
-0.018994 0.0100399 1e-05
-0.018991 0.0100498 1e-05
-0.0189638 0.0101398 1e-05
-0.0189364 0.0102298 1e-05
-0.0189087 0.0103197 1e-05
-0.0188807 0.0104095 1e-05
-0.0188523 0.0105 1e-05
-0.0188295 0.0105718 1e-05
-0.0188066 0.0106435 1e-05
-0.0187835 0.0107152 1e-05
-0.0187602 0.0107868 1e-05
-0.0187384 0.0108534 1e-05
-0.0187287 0.0108827 1e-05
-0.018719 0.010912 1e-05
-0.0187093 0.0109413 1e-05
-0.0186996 0.0109706 1e-05
-0.0186898 0.011 1e-05
-0.0186563 0.0111 1e-05
-0.0186226 0.0111999 1e-05
-0.0185885 0.0112997 1e-05
-0.018554 0.0113994 1e-05
-0.018519 0.0115 1e-05
-0.0185127 0.0115177 1e-05
-0.0185065 0.0115354 1e-05
-0.0185002 0.0115531 1e-05
-0.018494 0.0115708 1e-05
-0.0184878 0.0115882 1e-05
-0.0184585 0.0116705 1e-05
-0.018429 0.0117528 1e-05
-0.0183993 0.011835 1e-05
-0.0183693 0.0119172 1e-05
-0.0183389 0.012 1e-05
-0.018319 0.0120538 1e-05
-0.0182989 0.0121076 1e-05
-0.0182788 0.0121614 1e-05
-0.0182586 0.0122151 1e-05
-0.0182392 0.0122663 1e-05
-0.0182214 0.0123131 1e-05
-0.0182036 0.0123598 1e-05
-0.0181856 0.0124065 1e-05
-0.0181677 0.0124531 1e-05
-0.0181495 0.0125 1e-05
-0.0181181 0.0125806 1e-05
-0.0180865 0.0126612 1e-05
-0.0180547 0.0127417 1e-05
-0.0180227 0.0128221 1e-05
-0.0179926 0.0128971 1e-05
-0.0179843 0.0129176 1e-05
-0.0179759 0.0129382 1e-05
-0.0179676 0.0129588 1e-05
-0.0179592 0.0129794 1e-05
-0.0179508 0.013 1e-05
-0.0179102 0.0130994 1e-05
-0.0178693 0.0131986 1e-05
-0.0178281 0.0132977 1e-05
-0.0177866 0.0133966 1e-05
-0.017748 0.0134877 1e-05
-0.0177469 0.0134901 1e-05
-0.0177459 0.0134926 1e-05
-0.0177448 0.0134951 1e-05
-0.0177438 0.0134975 1e-05
-0.0177427 0.0135 1e-05
-0.0176999 0.0136 1e-05
-0.0176568 0.0136999 1e-05
-0.0176133 0.0137996 1e-05
-0.0175695 0.0138991 1e-05
-0.0175247 0.014 1e-05
-0.0175208 0.0140086 1e-05
-0.017517 0.0140173 1e-05
-0.0175131 0.0140259 1e-05
-0.0175092 0.0140346 1e-05
-0.0175053 0.0140432 1e-05
-0.0174642 0.0141345 1e-05
-0.0174228 0.0142258 1e-05
-0.0173812 0.0143169 1e-05
-0.0173392 0.0144078 1e-05
-0.0172963 0.0145 1e-05
-0.01729 0.0145135 1e-05
-0.0172837 0.014527 1e-05
-0.0172773 0.0145405 1e-05
-0.017271 0.014554 1e-05
-0.0172647 0.0145673 1e-05
-0.0172238 0.0146539 1e-05
-0.0171827 0.0147403 1e-05
-0.0171414 0.0148266 1e-05
-0.0170998 0.0149127 1e-05
-0.0170573 0.015 1e-05
-0.017051 0.0150128 1e-05
-0.0170447 0.0150256 1e-05
-0.0170385 0.0150384 1e-05
-0.0170322 0.0150512 1e-05
-0.0170259 0.0150638 1e-05
-0.0169829 0.0151511 1e-05
-0.0169396 0.0152382 1e-05
-0.016896 0.0153251 1e-05
-0.0168522 0.015412 1e-05
-0.0168074 0.0155 1e-05
-0.0168038 0.0155072 1e-05
-0.0168001 0.0155143 1e-05
-0.0167964 0.0155215 1e-05
-0.0167928 0.0155286 1e-05
-0.0167891 0.0155357 1e-05
-0.0167421 0.0156271 1e-05
-0.0166948 0.0157183 1e-05
-0.0166473 0.0158094 1e-05
-0.0165994 0.0159003 1e-05
-0.0165542 0.0159855 1e-05
-0.0165526 0.0159884 1e-05
-0.0165511 0.0159913 1e-05
-0.0165495 0.0159942 1e-05
-0.016548 0.0159971 1e-05
-0.0165464 0.016 1e-05
-0.0165014 0.0160841 1e-05
-0.0164561 0.0161682 1e-05
-0.0164105 0.016252 1e-05
-0.0163647 0.0163358 1e-05
-0.0163212 0.0164147 1e-05
-0.0163117 0.0164318 1e-05
-0.0163022 0.0164488 1e-05
-0.0162928 0.0164659 1e-05
-0.0162833 0.0164829 1e-05
-0.0162737 0.0165 1e-05
-0.016237 0.0165657 1e-05
-0.0162001 0.0166314 1e-05
-0.016163 0.016697 1e-05
-0.0161258 0.0167624 1e-05
-0.01609 0.0168251 1e-05
-0.0160699 0.01686 1e-05
-0.0160498 0.016895 1e-05
-0.0160296 0.0169299 1e-05
-0.0160093 0.0169649 1e-05
-0.0159889 0.017 1e-05
-0.0159633 0.017044 1e-05
-0.0159376 0.0170879 1e-05
-0.0159118 0.0171318 1e-05
-0.015886 0.0171756 1e-05
-0.0158607 0.0172182 1e-05
-0.0158273 0.0172745 1e-05
-0.0157937 0.0173308 1e-05
-0.01576 0.0173871 1e-05
-0.0157261 0.0174432 1e-05
-0.0156918 0.0175 1e-05
-0.0156801 0.0175192 1e-05
-0.0156684 0.0175384 1e-05
-0.0156566 0.0175576 1e-05
-0.0156449 0.0175768 1e-05
-0.0156333 0.0175958 1e-05
-0.0155882 0.0176694 1e-05
-0.0155429 0.0177428 1e-05
-0.0154973 0.0178162 1e-05
-0.0154516 0.0178894 1e-05
-0.0154077 0.0179593 1e-05
-0.0154026 0.0179674 1e-05
-0.0153974 0.0179756 1e-05
-0.0153923 0.0179837 1e-05
-0.0153871 0.0179919 1e-05
-0.015382 0.018 1e-05
-0.0153424 0.0180625 1e-05
-0.0153026 0.0181248 1e-05
-0.0152627 0.0181871 1e-05
-0.0152227 0.0182493 1e-05
-0.0151839 0.0183091 1e-05
-0.0151591 0.0183473 1e-05
-0.0151342 0.0183854 1e-05
-0.0151093 0.0184235 1e-05
-0.0150843 0.0184616 1e-05
-0.015059 0.0185 1e-05
-0.0150396 0.0185294 1e-05
-0.0150201 0.0185587 1e-05
-0.0150007 0.018588 1e-05
-0.0149812 0.0186174 1e-05
-0.0149619 0.0186461 1e-05
-0.0149179 0.018712 1e-05
-0.0148737 0.0187777 1e-05
-0.0148293 0.0188434 1e-05
-0.0147848 0.0189089 1e-05
-0.0147417 0.0189719 1e-05
-0.0147379 0.0189775 1e-05
-0.014734 0.0189831 1e-05
-0.0147302 0.0189888 1e-05
-0.0147263 0.0189944 1e-05
-0.0147224 0.019 1e-05
-0.0146826 0.0190578 1e-05
-0.0146427 0.0191156 1e-05
-0.0146026 0.0191733 1e-05
-0.0145624 0.0192308 1e-05
-0.0145233 0.0192865 1e-05
-0.0144932 0.0193292 1e-05
-0.0144631 0.0193719 1e-05
-0.0144329 0.0194145 1e-05
-0.0144026 0.019457 1e-05
-0.0143718 0.0195 1e-05
-0.0143588 0.0195182 1e-05
-0.0143458 0.0195364 1e-05
-0.0143327 0.0195545 1e-05
-0.0143196 0.0195727 1e-05
-0.0143067 0.0195906 1e-05
-0.0142637 0.0196502 1e-05
-0.0142206 0.0197096 1e-05
-0.0141773 0.0197689 1e-05
-0.0141339 0.0198281 1e-05
-0.0140917 0.0198854 1e-05
-0.0140748 0.0199083 1e-05
-0.0140578 0.0199312 1e-05
-0.0140408 0.0199541 1e-05
-0.0140238 0.019977 1e-05
-0.0140067 0.02 1e-05
-0.013981 0.0200343 1e-05
-0.0139554 0.0200686 1e-05
-0.0139297 0.0201029 1e-05
-0.0139039 0.0201371 1e-05
-0.0138786 0.0201707 1e-05
-0.0138363 0.0202266 1e-05
-0.0137939 0.0202824 1e-05
-0.0137513 0.0203381 1e-05
-0.0137087 0.0203937 1e-05
-0.0136671 0.0204476 1e-05
-0.013659 0.0204581 1e-05
-0.0136509 0.0204686 1e-05
-0.0136428 0.020479 1e-05
-0.0136347 0.0204895 1e-05
-0.0136265 0.0205 1e-05
-0.0135927 0.0205436 1e-05
-0.0135588 0.020587 1e-05
-0.0135248 0.0206305 1e-05
-0.0134907 0.0206739 1e-05
-0.0134573 0.0207163 1e-05
-0.0134157 0.0207689 1e-05
-0.013374 0.0208215 1e-05
-0.0133322 0.0208739 1e-05
-0.0132902 0.0209263 1e-05
-0.0132493 0.0209773 1e-05
-0.0132456 0.0209818 1e-05
-0.0132419 0.0209864 1e-05
-0.0132383 0.0209909 1e-05
-0.0132346 0.0209955 1e-05
-0.0132309 0.021 1e-05
-0.0131933 0.0210465 1e-05
-0.0131556 0.021093 1e-05
-0.0131178 0.0211394 1e-05
-0.01308 0.0211857 1e-05
-0.0130429 0.0212309 1e-05
-0.0130019 0.0212807 1e-05
-0.0129609 0.0213303 1e-05
-0.0129197 0.0213799 1e-05
-0.0128785 0.0214294 1e-05
-0.0128381 0.0214777 1e-05
-0.0128344 0.0214821 1e-05
-0.0128306 0.0214866 1e-05
-0.0128269 0.0214911 1e-05
-0.0128231 0.0214955 1e-05
-0.0128194 0.0215 1e-05
-0.0127825 0.0215438 1e-05
-0.0127456 0.0215876 1e-05
-0.0127085 0.0216313 1e-05
[...]
POINT_DATA 12122
 FIELD attributes 1
U 3 12122 float
-0.0171224 	-0.31067 	0 -0.0176045 	-0.310636 	0 -0.018087 	-0.310599 	0 -0.0185693 	-0.310562 	0 -0.0190515 	-0.310523 	0 -0.0195377 	-0.310484 	0 -0.0201439 	-0.310448 	0 -0.0207515 	-0.31041 	0 -0.0213563 	-0.31037 	0 -0.021961 	-0.310329 	0 -0.0225691 	-0.310287 	0 -0.0232602 	-0.310238 	0 -0.0239529 	-0.310188 	0 -0.0246435 	-0.310136 	0 -0.0253322 	-0.310083 	0 -0.0260236 	-0.310027 	0 -0.0267699 	-0.309962 	0 -0.0275172 	-0.309894 	0 -0.0282643 	-0.309826 	0 -0.0290092 	-0.309755 	0 -0.0297551 	-0.309682 	0 -0.030536 	-0.3096 	0 -0.0313176 	-0.309516 	0 -0.032099 	-0.30943 	0 -0.0328802 	-0.309343 	0 -0.0336624 	-0.309254 	0 -0.0339343 	-0.309221 	0 -0.0342067 	-0.309187 	0 -0.034479 	-0.309154 	0 -0.0347513 	-0.30912 	0 -0.0350027 	-0.309088 	0 -0.0355376 	-0.309021 	0 -0.0360729 	-0.308953 	0 -0.0366082 	-0.308884 	0 -0.0371433 	-0.308815 	0 -0.0376799 	-0.308744 	0 -0.0384994 	-0.308632 	0 -0.0393161 	-0.308516 	0 -0.0401326 	-0.308399 	0 -0.0409489 	-0.30828 	0 -0.0417681 	-0.308159 	0 -0.0425965 	-0.308031 	0 -0.0434249 	-0.307901 	0 -0.0442521 	-0.30777 	0 -0.0450773 	-0.307635 	0 -0.0459056 	-0.307498 	0 -0.0467405 	-0.307355 	0 -0.0475753 	-0.30721 	0 -0.04841 	-0.307063 	0 -0.0492444 	-0.306914 	0 -0.0500813 	-0.306763 	0 -0.05021 	-0.306738 	0 -0.0503388 	-0.306714 	0 -0.0504677 	-0.30669 	0 -0.0505965 	-0.306665 	0 -0.0507222 	-0.306641 	0 -0.0514352 	-0.306505 	0 -0.0521482 	-0.306368 	0 -0.0528611 	-0.306229 	0 -0.0535737 	-0.30609 	0 -0.0542891 	-0.305948 	0 -0.0551379 	-0.305775 	0 -0.0559866 	-0.305601 	0 -0.0568329 	-0.305423 	0 -0.0576787 	-0.305243 	0 -0.0585287 	-0.305061 	0 -0.0593826 	-0.304873 	0 -0.0602364 	-0.304683 	0 -0.0610899 	-0.304492 	0 -0.0619432 	-0.304298 	0 -0.0627324 	-0.304118 	0 -0.0627461 	-0.304115 	0 -0.0627598 	-0.304112 	0 -0.0627735 	-0.304108 	0 -0.0627873 	-0.304105 	0 -0.062801 	-0.304102 	0 -0.0636613 	-0.303899 	0 -0.0645214 	-0.303694 	0 -0.0653812 	-0.303487 	0 -0.0662406 	-0.303278 	0 -0.0671051 	-0.303066 	0 -0.067973 	-0.30285 	0 -0.0688407 	-0.302631 	0 -0.0697081 	-0.30241 	0 -0.0705746 	-0.302188 	0 -0.0714451 	-0.301961 	0 -0.07172 	-0.301888 	0 -0.0719951 	-0.301815 	0 -0.07227 	-0.301742 	0 -0.072545 	-0.301668 	0 -0.0728095 	-0.301597 	0 -0.0734115 	-0.301436 	0 -0.0740135 	-0.301273 	0 -0.0746153 	-0.30111 	0 -0.0752169 	-0.300946 	0 -0.0758214 	-0.30078 	0 -0.0767044 	-0.300535 	0 -0.0775871 	-0.300288 	0 -0.0784694 	-0.300039 	0 -0.0793501 	-0.299788 	0 -0.0802368 	-0.299532 	0 -0.0805229 	-0.299448 	0 -0.080809 	-0.299365 	0 -0.0810952 	-0.299281 	0 -0.0813813 	-0.299196 	0 -0.0816573 	-0.299115 	0 -0.082264 	-0.298936 	0 -0.0828705 	-0.298756 	0 -0.0834769 	-0.298575 	0 -0.0840831 	-0.298393 	0 -0.0846926 	-0.29821 	0 -0.0855919 	-0.297937 	0 -0.0864909 	-0.297662 	0 -0.0873895 	-0.297385 	0 -0.0882875 	-0.297107 	0 -0.0891921 	-0.296823 	0 -0.0892825 	-0.296794 	0 -0.089373 	-0.296765 	0 -0.0894634 	-0.296737 	0 -0.0895539 	-0.296708 	0 -0.0896436 	-0.296679 	0 -0.0904612 	-0.296419 	0 -0.0912786 	-0.296158 	0 -0.0920955 	-0.295895 	0 -0.092912 	-0.295631 	0 -0.0937352 	-0.295363 	0 -0.0943933 	-0.295148 	0 -0.0950513 	-0.294931 	0 -0.095709 	-0.294713 	0 -0.0963665 	-0.294495 	0 -0.0969788 	-0.29429 	0 -0.0972482 	-0.2942 	0 -0.0975176 	-0.29411 	0 -0.0977871 	-0.29402 	0 -0.0980564 	-0.293929 	0 -0.0983267 	-0.293838 	0 -0.0992542 	-0.293525 	0 -0.100181 	-0.293209 	0 -0.101108 	-0.292893 	0 -0.102032 	-0.292573 	0 -0.102967 	-0.292248 	0 -0.103132 	-0.29219 	0 -0.103298 	-0.292132 	0 -0.103464 	-0.292074 	0 -0.103629 	-0.292016 	0 -0.103792 	-0.291958 	0 -0.104565 	-0.291687 	0 -0.105337 	-0.291415 	0 -0.106108 	-0.291142 	0 -0.106879 	-0.290868 	0 -0.107657 	-0.29059 	0 -0.108167 	-0.290407 	0 -0.108677 	-0.290223 	0 -0.109187 	-0.290039 	0 -0.109697 	-0.289854 	0 -0.110183 	-0.289678 	0 -0.110626 	-0.289517 	0 -0.11107 	-0.289355 	0 -0.111513 	-0.289193 	0 -0.111957 	-0.289031 	0 -0.112403 	-0.288867 	0 -0.113176 	-0.288583 	0 -0.113949 	-0.288298 	0 -0.114721 	-0.288012 	0 -0.115493 	-0.287724 	0 -0.116214 	-0.287455 	0 -0.116411 	-0.287381 	0 -0.116609 	-0.287307 	0 -0.116807 	-0.287232 	0 -0.117005 	-0.287158 	0 -0.117204 	-0.287083 	0 -0.118168 	-0.286722 	0 -0.119132 	-0.286358 	0 -0.120095 	-0.285993 	0 -0.121057 	-0.285626 	0 -0.121943 	-0.285286 	0 -0.121967 	-0.285277 	0 -0.121991 	-0.285268 	0 -0.122015 	-0.285258 	0 -0.122039 	-0.285249 	0 -0.122063 	-0.28524 	0 -0.123045 	-0.284864 	0 -0.124027 	-0.284486 	0 -0.125008 	-0.284106 	0 -0.125987 	-0.283724 	0 -0.126981 	-0.283335 	0 -0.127066 	-0.283302 	0 -0.127152 	-0.283268 	0 -0.127238 	-0.283234 	0 -0.127324 	-0.283201 	0 -0.12741 	-0.283167 	0 -0.128319 	-0.282812 	0 -0.129227 	-0.282455 	0 -0.130135 	-0.282097 	0 -0.131042 	-0.281737 	0 -0.131961 	-0.281371 	0 -0.132097 	-0.281317 	0 -0.132233 	-0.281263 	0 -0.132369 	-0.281209 	0 -0.132505 	-0.281154 	0 -0.132639 	-0.281101 	0 -0.133512 	-0.280754 	0 -0.134383 	-0.280406 	0 -0.135254 	-0.280057 	0 -0.136124 	-0.279706 	0 -0.137006 	-0.279349 	0 -0.137136 	-0.279297 	0 -0.137267 	-0.279244 	0 -0.137397 	-0.279191 	0 -0.137528 	-0.279138 	0 -0.137657 	-0.279086 	0 -0.138548 	-0.278727 	0 -0.139438 	-0.278367 	0 -0.140327 	-0.278005 	0 -0.141216 	-0.277642 	0 -0.142117 	-0.277272 	0 -0.142191 	-0.277242 	0 -0.142265 	-0.277212 	0 -0.142339 	-0.277182 	0 -0.142413 	-0.277151 	0 -0.142486 	-0.277121 	0 -0.143432 	-0.276736 	0 -0.144376 	-0.276349 	0 -0.14532 	-0.275961 	0 -0.146262 	-0.275572 	0 -0.147145 	-0.275204 	0 -0.147175 	-0.275192 	0 -0.147205 	-0.275179 	0 -0.147235 	-0.275167 	0 -0.147266 	-0.275154 	0 -0.147296 	-0.275142 	0 -0.148178 	-0.274778 	0 -0.149059 	-0.274414 	0 -0.149939 	-0.274048 	0 -0.150818 	-0.273681 	0 -0.151647 	-0.273333 	0 -0.151826 	-0.273258 	0 -0.152006 	-0.273183 	0 -0.152185 	-0.273108 	0 -0.152364 	-0.273032 	0 -0.152544 	-0.272957 	0 -0.153242 	-0.272666 	0 -0.15394 	-0.272375 	0 -0.154637 	-0.272082 	0 -0.155334 	-0.271789 	0 -0.156 	-0.271508 	0 -0.156373 	-0.271351 	0 -0.156745 	-0.271194 	0 -0.157117 	-0.271037 	0 -0.157489 	-0.270879 	0 -0.157864 	-0.270721 	0 -0.158337 	-0.270522 	0 -0.15881 	-0.270322 	0 -0.159283 	-0.270123 	0 -0.159756 	-0.269923 	0 -0.160215 	-0.269728 	0 -0.160823 	-0.269472 	0 -0.161431 	-0.269215 	0 -0.162038 	-0.268957 	0 -0.162644 	-0.268699 	0 -0.163258 	-0.268437 	0 -0.163468 	-0.268348 	0 -0.163677 	-0.268259 	0 -0.163887 	-0.26817 	0 -0.164097 	-0.268081 	0 -0.164304 	-0.267993 	0 -0.165109 	-0.267653 	0 -0.165912 	-0.267313 	0 -0.166715 	-0.266971 	0 -0.167516 	-0.266628 	0 -0.168281 	-0.266298 	0 -0.168369 	-0.26626 	0 -0.168459 	-0.266222 	0 -0.168548 	-0.266183 	0 -0.168637 	-0.266145 	0 -0.168726 	-0.266107 	0 -0.169417 	-0.265813 	0 -0.170108 	-0.265518 	0 -0.170798 	-0.265223 	0 -0.171487 	-0.264927 	0 -0.172151 	-0.264641 	0 -0.172574 	-0.26446 	0 -0.172997 	-0.264278 	0 -0.173419 	-0.264096 	0 -0.173842 	-0.263914 	0 -0.174268 	-0.26373 	0 -0.174598 	-0.263589 	0 -0.174927 	-0.263447 	0 -0.175257 	-0.263306 	0 -0.175586 	-0.263165 	0 -0.17591 	-0.263026 	0 -0.176649 	-0.26271 	0 -0.177388 	-0.262393 	0 -0.178126 	-0.262076 	0 -0.178863 	-0.261758 	0 -0.179572 	-0.261449 	0 -0.179635 	-0.261422 	0 -0.179698 	-0.261394 	0 -0.179761 	-0.261367 	0 -0.179824 	-0.261339 	0 -0.179888 	-0.261312 	0 -0.180546 	-0.26103 	0 -0.181203 	-0.260747 	0 -0.181859 	-0.260464 	0 -0.182515 	-0.26018 	0 -0.183149 	-0.259905 	0 -0.183635 	-0.259695 	0 -0.184121 	-0.259485 	0 -0.184606 	-0.259275 	0 -0.185091 	-0.259065 	0 -0.185582 	-0.258851 	0 -0.185791 	-0.258761 	0 -0.186001 	-0.258671 	0 -0.186211 	-0.25858 	0 -0.18642 	-0.25849 	0 -0.186628 	-0.2584 	0 -0.187315 	-0.258107 	0 -0.188001 	-0.257813 	0 -0.188685 	-0.257516 	0 -0.189368 	-0.257218 	0 -0.190029 	-0.256928 	0 -0.190294 	-0.256813 	0 -0.190558 	-0.256698 	0 -0.190822 	-0.256583 	0 -0.191086 	-0.256468 	0 -0.191352 	-0.256352 	0 -0.191753 	-0.256179 	0 -0.192154 	-0.256006 	0 -0.192554 	-0.255833 	0 -0.192954 	-0.25566 	0 -0.193348 	-0.25549 	0 -0.194001 	-0.255209 	0 -0.194653 	-0.254927 	0 -0.195305 	-0.254646 	0 -0.195955 	-0.254363 	0 -0.196586 	-0.254085 	0 -0.196708 	-0.254031 	0 -0.19683 	-0.253978 	0 -0.196953 	-0.253924 	0 -0.197075 	-0.253871 	0 -0.197198 	-0.253817 	0 -0.197713 	-0.253595 	0 -0.198227 	-0.253373 	0 -0.198742 	-0.25315 	0 -0.199255 	-0.252927 	0 -0.199758 	-0.252708 	0 -0.200381 	-0.25244 	0 -0.201003 	-0.25217 	0 -0.201624 	-0.251901 	0 -0.202245 	-0.251631 	0 -0.202848 	-0.251366 	0 -0.202902 	-0.251342 	0 -0.202955 	-0.251319 	0 -0.203009 	-0.251295 	0 -0.203063 	-0.251272 	0 -0.203116 	-0.251248 	0 -0.203673 	-0.251008 	0 -0.20423 	-0.250767 	0 -0.204786 	-0.250526 	0 -0.205341 	-0.250284 	0 -0.205884 	-0.250048 	0 -0.206479 	-0.249791 	0 -0.207073 	-0.249533 	0 -0.207667 	-0.249275 	0 -0.20826 	-0.249017 	0 -0.208839 	-0.248763 	0 -0.208892 	-0.248739 	0 -0.208945 	-0.248716 	0 -0.208998 	-0.248692 	0 -0.209052 	-0.248669 	0 -0.209105 	-0.248646 	0 -0.209636 	-0.248416 	0 -0.210167 	-0.248187 	0 -0.210697 	-0.247957 	0 -0.211226 	-0.247727 	0 -0.211744 	-0.247501 	0 -0.212314 	-0.247255 	0 -0.212883 	-0.247009 	0 -0.213452 	-0.246762 	0 -0.21402 	-0.246515 	0 -0.214574 	-0.246269 	0 -0.214691 	-0.246218 	0 -0.214809 	-0.246166 	0 -0.214926 	-0.246115 	0 -0.215043 	-0.246063 	0 -0.215161 	-0.246011 	0 -0.215602 	-0.245821 	0 -0.216042 	-0.24563 	0 -0.216483 	-0.24544 	0 -0.216922 	-0.245248 	0 -0.217355 	-0.24506 	0 -0.217902 	-0.244825 	0 -0.218448 	-0.24459 	0 -0.218994 	-0.244354 	0 -0.219538 	-0.244114 	0 -0.220071 	-0.243878 	0 -0.220312 	-0.243772 	0 -0.220553 	-0.243666 	0 -0.220795 	-0.243561 	0 -0.221036 	-0.243454 	0 -0.221279 	-0.243348 	0 -0.22157 	-0.243222 	0 -0.221861 	-0.243096 	0 -0.222152 	-0.24297 	0 -0.222443 	-0.242844 	0 -0.222731 	-0.242719 	0 -0.223256 	-0.242495 	0 -0.223781 	-0.24227 	0 -0.224304 	-0.24204 	0 -0.224827 	-0.24181 	0 -0.22534 	-0.241584 	0 -0.225762 	-0.241399 	0 -0.226185 	-0.241215 	0 -0.226607 	-0.24103 	0 -0.227028 	-0.240845 	0 -0.227454 	-0.240658 	0 -0.22754 	-0.240621 	0 -0.227626 	-0.240583 	0 -0.227713 	-0.240546 	0 -0.227799 	-0.240509 	0 -0.227885 	-0.240472 	0 -0.22839 	-0.240255 	0 -0.228894 	-0.240036 	0 -0.229398 	-0.239816 	0 -0.2299 	-0.239596 	0 -0.230395 	-0.239379 	0 -0.230886 	-0.239166 	0 -0.231377 	-0.238953 	0 -0.231868 	-0.23874 	0 -0.232357 	-0.238525 	0 -0.232839 	-0.23831 	0 -0.233006 	-0.238236 	0 -0.233174 	-0.238162 	0 -0.233341 	-0.238087 	0 -0.233509 	-0.238013 	0 -0.233677 	-0.237939 	0 -0.233991 	-0.237803 	0 -0.234304 	-0.237667 	0 -0.234618 	-0.237531 	0 -0.234931 	-0.237394 	0 -0.235241 	-0.237259 	0 -0.235715 	-0.237056 	0 -0.236188 	-0.236853 	0 -0.23666 	-0.236644 	0 -0.237131 	-0.236435 	0 -0.237595 	-0.236229 	0 -0.238056 	-0.236027 	0 -0.238516 	-0.235824 	0 -0.238976 	-0.235622 	0 -0.239435 	-0.235419 	0 -0.239888 	-0.235219 	0 -0.239898 	-0.235214 	0 -0.239909 	-0.235209 	0 -0.239919 	-0.235205 	0 -0.23993 	-0.2352 	0 -0.23994 	-0.235195 	0 -0.240386 	-0.235001 	0 -0.240831 	-0.234806 	0 -0.241276 	-0.234612 	0 -0.24172 	-0.234417 	0 -0.242158 	-0.234224 	0 -0.242602 	-0.234031 	0 -0.243047 	-0.233838 	0 -0.24349 	-0.233643 	0 -0.243933 	-0.233445 	0 -0.244369 	-0.233249 	0 -0.244741 	-0.233084 	0 -0.245112 	-0.232919 	0 -0.245483 	-0.232754 	0 -0.245853 	-0.232589 	0 -0.246228 	-0.232421 	0 -0.246287 	-0.232395 	0 -0.246347 	-0.232369 	0 -0.246407 	-0.232343 	0 -0.246467 	-0.232317 	0 -0.246528 	-0.232291 	0 -0.246957 	-0.232103 	0 -0.247385 	-0.231914 	0 -0.247813 	-0.231725 	0 -0.248241 	-0.231535 	0 -0.248663 	-0.231347 	0 -0.249081 	-0.231164 	0 -0.249498 	-0.230981 	0 -0.249915 	-0.230797 	0 -0.250332 	-0.230608 	0 -0.250743 	-0.230421 	0 -0.251099 	-0.230261 	0 -0.251456 	-0.230101 	0 -0.251812 	-0.22994 	0 -0.252167 	-0.22978 	0 -0.252527 	-0.229617 	0 -0.252576 	-0.229596 	0 -0.252624 	-0.229574 	0 -0.252674 	-0.229553 	0 -0.252723 	-0.229531 	0 -0.252772 	-0.22951 	0 -0.253176 	-0.229331 	0 -0.253579 	-0.229151 	0 -0.253982 	-0.228971 	0 -0.254385 	-0.22879 	0 -0.254783 	-0.228612 	0 -0.255176 	-0.228438 	0 -0.255569 	-0.228264 	0 -0.255961 	-0.228087 	0 -0.256353 	-0.227907 	0 -0.25674 	-0.227729 	0 -0.257123 	-0.227555 	0 -0.257505 	-0.227381 	0 -0.257887 	-0.227207 	0 -0.258268 	-0.227033 	0 -0.258646 	-0.226859 	0 -0.25868 	-0.226843 	0 -0.258715 	-0.226827 	0 -0.25875 	-0.22681 	0 -0.258785 	-0.226794 	0 -0.25882 	-0.226778 	0 -0.259164 	-0.226623 	0 -0.259508 	-0.226467 	0 -0.259852 	-0.226312 	0 -0.260196 	-0.226156 	0 -0.260536 	-0.226002 	0 -0.260906 	-0.225836 	0 -0.261276 	-0.22567 	0 -0.261646 	-0.225499 	0 -0.262015 	-0.225327 	0 -0.26238 	-0.225157 	0 -0.26274 	-0.224992 	0 -0.2631 	-0.224826 	0 -0.26346 	-0.224661 	0 -0.263819 	-0.224495 	0 -0.264175 	-0.224324 	0 -0.264356 	-0.224239 	0 -0.264537 	-0.224153 	0 -0.264719 	-0.224067 	0 -0.2649 	-0.223982 	0 -0.265083 	-0.223895 	0 -0.265254 	-0.223817 	0 -0.265425 	-0.223738 	0 -0.265597 	-0.22366 	0 -0.265768 	-0.223581 	0 -0.26594 	-0.223503 	0 -0.266288 	-0.223346 	0 -0.266637 	-0.223182 	0 -0.266985 	-0.223019 	0 -0.267333 	-0.222855 	0 -0.267678 	-0.222693 	0 -0.268017 	-0.222536 	0 -0.268356 	-0.222378 	0 -0.268695 	-0.22222 	0 -0.269033 	-0.222056 	0 -0.269369 	-0.221894 	0 -0.269699 	-0.221736 	0 -0.270029 	-0.221578 	0 -0.270359 	-0.22142 	0 -0.270688 	-0.221262 	0 -0.271015 	-0.221103 	0 -0.27107 	-0.221075 	0 -0.271126 	-0.221048 	0 -0.271181 	-0.221021 	0 -0.271237 	-0.220993 	0 -0.271294 	-0.220966 	0 -0.271565 	-0.220837 	0 -0.271836 	-0.220709 	0 -0.272107 	-0.22058 	0 -0.272378 	-0.220451 	0 -0.272647 	-0.220323 	0 -0.272967 	-0.220173 	0 -0.273286 	-0.22002 	0 -0.273606 	-0.219864 	0 -0.273925 	-0.219707 	0 -0.274242 	-0.219552 	0 -0.274553 	-0.219402 	0 -0.274864 	-0.219251 	0 -0.275174 	-0.219101 	0 -0.275484 	-0.218945 	0 -0.275793 	-0.218789 	0 -0.276095 	-0.218638 	0 -0.276397 	-0.218487 	0 -0.276699 	-0.218336 	0 -0.277001 	-0.218184 	0 -0.2773 	-0.218033 	0 -0.277324 	-0.21802 	0 -0.277347 	-0.218008 	0 -0.277371 	-0.217996 	0 -0.277395 	-0.217984 	0 -0.27742 	-0.217972 	0 -0.277696 	-0.217834 	0 -0.277973 	-0.217697 	0 -0.27825 	-0.21756 	0 -0.278527 	-0.217423 	0 -0.278802 	-0.217287 	0 -0.279094 	-0.217143 	0 -0.279387 	-0.216996 	0 -0.279681 	-0.216846 	0 -0.279974 	-0.216696 	0 -0.280265 	-0.216547 	0 -0.280549 	-0.216402 	0 -0.280834 	-0.216258 	0 -0.281118 	-0.216113 	0 -0.281402 	-0.215963 	0 -0.281686 	-0.215813 	0 -0.281962 	-0.215667 	0 -0.282239 	-0.215522 	0 -0.282515 	-0.215377 	0 -0.282791 	-0.215231 	0 -0.283066 	-0.215084 	0 -0.283137 	-0.215044 	0 -0.283209 	-0.215005 	0 -0.28328 	-0.214966 	0 -0.283352 	-0.214927 	0 -0.283425 	-0.214888 	0 -0.283627 	-0.214783 	0 -0.283829 	-0.214678 	0 -0.284031 	-0.214572 	0 -0.284233 	-0.214467 	0 -0.284435 	-0.214362 	0 -0.284702 	-0.214224 	0 -0.284971 	-0.21408 	0 -0.285239 	-0.213935 	0 -0.285507 	-0.213791 	0 -0.285774 	-0.213647 	0 -0.286034 	-0.213507 	0 -0.286294 	-0.213368 	0 -0.286554 	-0.213225 	0 -0.286815 	-0.213079 	0 -0.287074 	-0.212935 	0 -0.287326 	-0.212794 	0 -0.287579 	-0.212653 	0 -0.287831 	-0.212512 	0 -0.288082 	-0.212371 	0 -0.288335 	-0.212225 	0 -0.28852 	-0.212118 	0 -0.288706 	-0.21201 	0 -0.288891 	-0.211903 	0 -0.289076 	-0.211795 	0 -0.289263 	-0.211687 	0 -0.289323 	-0.211654 	0 -0.289383 	-0.21162 	0 -0.289444 	-0.211587 	0 -0.289505 	-0.211553 	0 -0.289566 	-0.21152 	0 -0.289811 	-0.211382 	0 -0.290056 	-0.211243 	0 -0.290302 	-0.211103 	0 -0.290547 	-0.210963 	0 -0.290791 	-0.210825 	0 -0.291027 	-0.21069 	0 -0.291264 	-0.210553 	0 -0.291502 	-0.210412 	0 -0.29174 	-0.210271 	0 -0.291978 	-0.210131 	0 -0.292206 	-0.209995 	0 -0.292436 	-0.209859 	0 -0.292665 	-0.209723 	0 -0.292896 	-0.209581 	0 -0.293127 	-0.209439 	0 -0.293349 	-0.209302 	0 -0.293571 	-0.209165 	0 -0.293794 	-0.209027 	0 -0.294015 	-0.20889 	0 -0.294239 	-0.208749 	0 -0.294365 	-0.208666 	0 -0.294493 	-0.208585 	0 -0.29462 	-0.208503 	0 -0.294748 	-0.208421 	0 -0.294877 	-0.208339 	0 -0.294967 	-0.208283 	0 -0.295058 	-0.208228 	0 -0.295149 	-0.208173 	0 -0.29524 	-0.208117 	0 -0.295332 	-0.208062 	0 -0.295548 	-0.207928 	0 -0.295765 	-0.207792 	0 -0.295982 	-0.207655 	0 -0.296199 	-0.207518 	0 -0.296415 	-0.207382 	0 -0.296623 	-0.20725 	0 -0.296833 	-0.207116 	0 -0.297043 	-0.206978 	0 -0.297254 	-0.20684 	0 -0.297464 	-0.206702 	0 -0.297666 	-0.206569 	0 -0.297868 	-0.206435 	0 -0.29807 	-0.206301 	0 -0.298274 	-0.206162 	0 -0.298479 	-0.206023 	0 -0.298674 	-0.205888 	0 -0.29887 	-0.205753 	0 -0.299066 	-0.205618 	0 -0.299262 	-0.205483 	0 -0.29946 	-0.205343 	0 -0.299612 	-0.205234 	0 -0.299764 	-0.205125 	0 -0.299916 	-0.205016 	0 -0.300069 	-0.204907 	0 -0.300222 	-0.204797 	0 -0.30026 	-0.20477 	0 -0.300299 	-0.204744 	0 -0.300338 	-0.204717 	0 -0.300376 	-0.204691 	0 -0.300416 	-0.204665 	0 -0.300606 	-0.204532 	0 -0.300798 	-0.204397 	0 -0.30099 	-0.204262 	0 -0.301181 	-0.204128 	0 -0.301372 	-0.203994 	0 -0.301554 	-0.203863 	0 -0.301739 	-0.203729 	0 -0.301925 	-0.203594 	0 -0.302111 	-0.203457 	0 -0.302296 	-0.203322 	0 -0.302472 	-0.203191 	0 -0.302649 	-0.20306 	0 -0.302828 	-0.202925 	0 -0.303007 	-0.202788 	0 -0.303187 	-0.202652 	0 -0.303358 	-0.20252 	0 -0.303529 	-0.202388 	0 -0.303699 	-0.202256 	0 -0.303872 	-0.202121 	0 -0.304046 	-0.201984 	0 -0.30421 	-0.201852 	0 -0.304376 	-0.20172 	0 -0.30454 	-0.201587 	0 -0.304705 	-0.201455 	0 -0.304872 	-0.201321 	0 -0.304942 	-0.201262 	0 -0.305013 	-0.201204 	0 -0.305084 	-0.201145 	0 -0.305154 	-0.201087 	0 -0.305226 	-0.201028 	0 -0.305317 	-0.200957 	0 -0.30541 	-0.200886 	0 -0.305502 	-0.200816 	0 -0.305594 	-0.200745 	0 -0.305688 	-0.200675 	0 -0.305846 	-0.200552 	0 -0.306007 	-0.200426 	0 -0.306168 	-0.200301 	0 -0.306328 	-0.200175 	0 -0.30649 	-0.20005 	0 -0.30664 	-0.199932 	0 -0.306793 	-0.199812 	0 -0.306949 	-0.199688 	0 -0.307104 	-0.199565 	0 -0.30726 	-0.199443 	0 -0.307405 	-0.199329 	0 -0.307551 	-0.199215 	0 -0.307698 	-0.199099 	0 -0.307848 	-0.19898 	0 -0.307999 	-0.198862 	0 -0.308138 	-0.198754 	0 -0.308279 	-0.198647 	0 -0.30842 	-0.19854 	0 -0.308562 	-0.19843 	0 -0.308708 	-0.198318 	0 -0.308842 	-0.19822 	0 -0.308978 	-0.198122 	0 -0.309114 	-0.198025 	0 -0.309249 	-0.197927 	0 -0.309388 	-0.197827 	0 -0.309461 	-0.197779 	0 -0.309535 	-0.197731 	0 -0.309609 	-0.197683 	0 -0.309683 	-0.197636 	0 -0.309758 	-0.197589 	0 -0.309817 	-0.197554 	0 -0.309877 	-0.19752 	0 -0.309936 	-0.197486 	0 -0.309996 	-0.197451 	0 -0.310056 	-0.197419 	0 -0.310186 	-0.19736 	0 -0.310319 	-0.1973 	0 -0.310452 	-0.19724 	0 -0.310585 	-0.197181 	0 -0.310718 	-0.197122 	0 -0.310841 	-0.197093 	0 -0.310968 	-0.197061 	0 -0.311096 	-0.197027 	0 -0.311224 	-0.196993 	0 -0.311353 	-0.196961 	0 -0.311471 	-0.196966 	0 -0.311589 	-0.196974 	0 -0.311712 	-0.196976 	0 -0.311836 	-0.196977 	0 -0.311961 	-0.196979 	0 -0.312074 	-0.197031 	0 -0.312188 	-0.197086 	0 -0.312302 	-0.19714 	0 -0.312421 	-0.197187 	0 -0.312541 	-0.197236 	0 -0.312649 	-0.197349 	0 -0.312759 	-0.197464 	0 -0.312869 	-0.197579 	0 -0.312978 	-0.197695 	0 -0.313095 	-0.197804 	0 -0.313199 	-0.197995 	0 -0.313304 	-0.198189 	0 -0.31341 	-0.198383 	0 -0.313515 	-0.198577 	0 -0.313623 	-0.198773 	0 -0.313638 	-0.198817 	0 -0.313655 	-0.198865 	0 -0.313671 	-0.198913 	0 -0.313688 	-0.198962 	0 -0.313705 	-0.199012 	0 -0.313794 	-0.19926 	0 -0.313884 	-0.199512 	0 -0.313974 	-0.199764 	0 -0.314065 	-0.200016 	0 -0.314157 	-0.200273 	0 -0.314254 	-0.200706 	0 -0.314358 	-0.201134 	0 -0.314461 	-0.201561 	0 -0.314565 	-0.201988 	0 -0.314671 	-0.202422 	0 -0.314762 	-0.203018 	0 -0.314857 	-0.203612 	0 -0.314957 	-0.204196 	0 -0.315057 	-0.204779 	0 -0.31516 	-0.205372 	0 -0.315246 	-0.206162 	0 -0.315334 	-0.206958 	0 -0.315427 	-0.207741 	0 -0.315524 	-0.208515 	0 -0.315623 	-0.209303 	0 -0.315705 	-0.210325 	0 -0.315789 	-0.211354 	0 -0.315874 	-0.212382 	0 -0.315965 	-0.213393 	0 -0.316061 	-0.214416 	0 -0.316139 	-0.215713 	0 -0.316219 	-0.2