# vtk DataFile Version 2.0
track0
ASCII
DATASET POLYDATA
POINTS 12122 float
-0.0205 0.001 1e-05
-0.0204945 0.0011 1e-05
-0.0204888 0.00119999 1e-05
-0.020483 0.00129997 1e-05
-0.020477 0.00139995 1e-05
-0.0204709 0.0015 1e-05
-0.0204646 0.0016 1e-05
-0.0204581 0.00169999 1e-05
-0.0204514 0.00179996 1e-05
-0.0204445 0.00189992 1e-05
-0.0204375 0.002 1e-05
-0.0204302 0.0021 1e-05
-0.0204227 0.00219998 1e-05
-0.020415 0.00229995 1e-05
-0.020407 0.0023999 1e-05
-0.0203988 0.0025 1e-05
-0.0203905 0.0026 1e-05
-0.0203818 0.00269998 1e-05
-0.0203729 0.00279994 1e-05
-0.0203638 0.00289987 1e-05
-0.0203545 0.003 1e-05
-0.0203448 0.0031 1e-05
-0.020335 0.00319998 1e-05
-0.0203249 0.00329993 1e-05
-0.0203145 0.00339985 1e-05
-0.0203039 0.0035 1e-05
-0.0203002 0.00353392 1e-05
-0.0202964 0.00356785 1e-05
-0.0202927 0.00360176 1e-05
-0.0202889 0.00363568 1e-05
-0.0202854 0.00366693 1e-05
-0.0202779 0.00373354 1e-05
-0.0202702 0.00380015 1e-05
-0.0202624 0.00386673 1e-05
-0.0202545 0.00393331 1e-05
-0.0202465 0.004 1e-05
-0.0202343 0.0041 1e-05
-0.0202218 0.00419997 1e-05
-0.0202091 0.0042999 1e-05
-0.0201961 0.0043998 1e-05
-0.0201828 0.0045 1e-05
-0.0201692 0.0046 1e-05
-0.0201554 0.00469996 1e-05
-0.0201413 0.00479989 1e-05
-0.020127 0.00489978 1e-05
-0.0201123 0.005 1e-05
-0.0200973 0.0051 1e-05
-0.0200821 0.00519996 1e-05
-0.0200667 0.00529988 1e-05
-0.0200509 0.00539975 1e-05
-0.0200348 0.0055 1e-05
-0.0200323 0.00551533 1e-05
-0.0200298 0.00553066 1e-05
-0.0200273 0.00554599 1e-05
-0.0200248 0.00556132 1e-05
-0.0200223 0.00557625 1e-05
-0.0200083 0.005661 1e-05
-0.0199941 0.00574572 1e-05
-0.0199797 0.0058304 1e-05
-0.0199651 0.00591505 1e-05
-0.0199502 0.006 1e-05
-0.0199324 0.0061 1e-05
-0.0199144 0.00619995 1e-05
-0.0198961 0.00629985 1e-05
-0.0198775 0.0063997 1e-05
-0.0198586 0.0065 1e-05
-0.0198394 0.0066 1e-05
-0.0198199 0.00669995 1e-05
-0.0198002 0.00679984 1e-05
-0.0197802 0.00689967 1e-05
-0.0197614 0.00699199 1e-05
-0.019761 0.00699359 1e-05
-0.0197607 0.00699519 1e-05
-0.0197604 0.00699679 1e-05
-0.01976 0.0069984 1e-05
-0.0197597 0.007 1e-05
-0.0197391 0.0071 1e-05
-0.0197181 0.00719994 1e-05
-0.0196969 0.00729982 1e-05
-0.0196754 0.00739964 1e-05
-0.0196535 0.0075 1e-05
-0.0196313 0.0076 1e-05
-0.0196089 0.00769994 1e-05
-0.0195862 0.00779981 1e-05
-0.0195632 0.00789961 1e-05
-0.0195397 0.008 1e-05
-0.0195323 0.00803147 1e-05
-0.0195248 0.00806293 1e-05
-0.0195173 0.00809438 1e-05
-0.0195098 0.00812583 1e-05
-0.0195025 0.00815607 1e-05
-0.0194859 0.00822486 1e-05
-0.0194692 0.00829361 1e-05
-0.0194523 0.00836233 1e-05
-0.0194353 0.00843101 1e-05
-0.019418 0.0085 1e-05
-0.0193928 0.0086 1e-05
-0.0193673 0.00869993 1e-05
-0.0193415 0.00879977 1e-05
-0.0193154 0.00889955 1e-05
-0.0192888 0.009 1e-05
-0.0192802 0.00903217 1e-05
-0.0192716 0.00906432 1e-05
-0.0192629 0.00909647 1e-05
-0.0192542 0.00912862 1e-05
-0.0192457 0.00915961 1e-05
-0.0192272 0.00922769 1e-05
-0.0192084 0.00929573 1e-05
-0.0191896 0.00936373 1e-05
-0.0191706 0.00943169 1e-05
-0.0191513 0.0095 1e-05
-0.0191229 0.0096 1e-05
-0.0190942 0.00969991 1e-05
-0.0190652 0.00979974 1e-05
-0.0190359 0.00989948 1e-05
-0.019006 0.01 1e-05
-0.019003 0.01001 1e-05
-0.019 0.01002 1e-05
-0.018997 0.0100299 1e-05
-0.018994 0.0100399 1e-05
-0.018991 0.0100498 1e-05
-0.0189638 0.0101398 1e-05
-0.0189364 0.0102298 1e-05
-0.0189087 0.0103197 1e-05
-0.0188807 0.0104095 1e-05
-0.0188523 0.0105 1e-05
-0.0188295 0.0105718 1e-05
-0.0188066 0.0106435 1e-05
-0.0187835 0.0107152 1e-05
-0.0187602 0.0107868 1e-05
-0.0187384 0.0108534 1e-05
-0.0187287 0.0108827 1e-05
-0.018719 0.010912 1e-05
-0.0187093 0.0109413 1e-05
-0.0186996 0.0109706 1e-05
-0.0186898 0.011 1e-05
-0.0186563 0.0111 1e-05
-0.0186226 0.0111999 1e-05
-0.0185885 0.0112997 1e-05
-0.018554 0.0113994 1e-05
-0.018519 0.0115 1e-05
-0.0185127 0.0115177 1e-05
-0.0185065 0.0115354 1e-05
-0.0185002 0.0115531 1e-05
-0.018494 0.0115708 1e-05
-0.0184878 0.0115882 1e-05
-0.0184585 0.0116705 1e-05
-0.018429 0.0117528 1e-05
-0.0183993 0.011835 1e-05
-0.0183693 0.0119172 1e-05
-0.0183389 0.012 1e-05
-0.018319 0.0120538 1e-05
-0.0182989 0.0121076 1e-05
-0.0182788 0.0121614 1e-05
-0.0182586 0.0122151 1e-05
-0.0182392 0.0122663 1e-05
-0.0182214 0.0123131 1e-05
-0.0182036 0.0123598 1e-05
-0.0181856 0.0124065 1e-05
-0.0181677 0.0124531 1e-05
-0.0181495 0.0125 1e-05
-0.0181181 0.0125806 1e-05
-0.0180865 0.0126612 1e-05
-0.0180547 0.0127417 1e-05
-0.0180227 0.0128221 1e-05
-0.0179926 0.0128971 1e-05
-0.0179843 0.0129176 1e-05
-0.0179759 0.0129382 1e-05
-0.0179676 0.0129588 1e-05
-0.0179592 0.0129794 1e-05
-0.0179508 0.013 1e-05
-0.0179102 0.0130994 1e-05
-0.0178693 0.0131986 1e-05
-0.0178281 0.0132977 1e-05
-0.0177866 0.0133966 1e-05
-0.017748 0.0134877 1e-05
-0.0177469 0.0134901 1e-05
-0.0177459 0.0134926 1e-05
-0.0177448 0.0134951 1e-05
-0.0177438 0.0134975 1e-05
-0.0177427 0.0135 1e-05
-0.0176999 0.0136 1e-05
-0.0176568 0.0136999 1e-05
-0.0176133 0.0137996 1e-05
-0.0175695 0.0138991 1e-05
-0.0175247 0.014 1e-05
-0.0175208 0.0140086 1e-05
-0.017517 0.0140173 1e-05
-0.0175131 0.0140259 1e-05
-0.0175092 0.0140346 1e-05
-0.0175053 0.0140432 1e-05
-0.0174642 0.0141345 1e-05
-0.0174228 0.0142258 1e-05
-0.0173812 0.0143169 1e-05
-0.0173392 0.0144078 1e-05
-0.0172963 0.0145 1e-05
-0.01729 0.0145135 1e-05
-0.0172837 0.014527 1e-05
-0.0172773 0.0145405 1e-05
-0.017271 0.014554 1e-05
-0.0172647 0.0145673 1e-05
-0.0172238 0.0146539 1e-05
-0.0171827 0.0147403 1e-05
-0.0171414 0.0148266 1e-05
-0.0170998 0.0149127 1e-05
-0.0170573 0.015 1e-05
-0.017051 0.0150128 1e-05
-0.0170447 0.0150256 1e-05
-0.0170385 0.0150384 1e-05
-0.0170322 0.0150512 1e-05
-0.0170259 0.0150638 1e-05
-0.0169829 0.0151511 1e-05
-0.0169396 0.0152382 1e-05
-0.016896 0.0153251 1e-05
-0.0168522 0.015412 1e-05
-0.0168074 0.0155 1e-05
-0.0168038 0.0155072 1e-05
-0.0168001 0.0155143 1e-05
-0.0167964 0.0155215 1e-05
-0.0167928 0.0155286 1e-05
-0.0167891 0.0155357 1e-05
-0.0167421 0.0156271 1e-05
-0.0166948 0.0157183 1e-05
-0.0166473 0.0158094 1e-05
-0.0165994 0.0159003 1e-05
-0.0165542 0.0159855 1e-05
-0.0165526 0.0159884 1e-05
-0.0165511 0.0159913 1e-05
-0.0165495 0.0159942 1e-05
-0.016548 0.0159971 1e-05
-0.0165464 0.016 1e-05
-0.0165014 0.0160841 1e-05
-0.0164561 0.0161682 1e-05
-0.0164105 0.016252 1e-05
-0.0163647 0.0163358 1e-05
-0.0163212 0.0164147 1e-05
-0.0163117 0.0164318 1e-05
-0.0163022 0.0164488 1e-05
-0.0162928 0.0164659 1e-05
-0.0162833 0.0164829 1e-05
-0.0162737 0.0165 1e-05
-0.016237 0.0165657 1e-05
-0.0162001 0.0166314 1e-05
-0.016163 0.016697 1e-05
-0.0161258 0.0167624 1e-05
-0.01609 0.0168251 1e-05
-0.0160699 0.01686 1e-05
-0.0160498 0.016895 1e-05
-0.0160296 0.0169299 1e-05
-0.0160093 0.0169649 1e-05
-0.0159889 0.017 1e-05
-0.0159633 0.017044 1e-05
-0.0159376 0.0170879 1e-05
-0.0159118 0.0171318 1e-05
-0.015886 0.0171756 1e-05
-0.0158607 0.0172182 1e-05
-0.0158273 0.0172745 1e-05
-0.0157937 0.0173308 1e-05
-0.01576 0.0173871 1e-05
-0.0157261 0.0174432 1e-05
-0.0156918 0.0175 1e-05
-0.0156801 0.0175192 1e-05
-0.0156684 0.0175384 1e-05
-0.0156566 0.0175576 1e-05
-0.0156449 0.0175768 1e-05
-0.0156333 0.0175958 1e-05
-0.0155882 0.0176694 1e-05
-0.0155429 0.0177428 1e-05
-0.0154973 0.0178162 1e-05
-0.0154516 0.0178894 1e-05
-0.0154077 0.0179593 1e-05
-0.0154026 0.0179674 1e-05
-0.0153974 0.0179756 1e-05
-0.0153923 0.0179837 1e-05
-0.0153871 0.0179919 1e-05
-0.015382 0.018 1e-05
-0.0153424 0.0180625 1e-05
-0.0153026 0.0181248 1e-05
-0.0152627 0.0181871 1e-05
-0.0152227 0.0182493 1e-05
-0.0151839 0.0183091 1e-05
-0.0151591 0.0183473 1e-05
-0.0151342 0.0183854 1e-05
-0.0151093 0.0184235 1e-05
-0.0150843 0.0184616 1e-05
-0.015059 0.0185 1e-05
-0.0150396 0.0185294 1e-05
-0.0150201 0.0185587 1e-05
-0.0150007 0.018588 1e-05
-0.0149812 0.0186174 1e-05
-0.0149619 0.0186461 1e-05
-0.0149179 0.018712 1e-05
-0.0148737 0.0187777 1e-05
-0.0148293 0.0188434 1e-05
-0.0147848 0.0189089 1e-05
-0.0147417 0.0189719 1e-05
-0.0147379 0.0189775 1e-05
-0.014734 0.0189831 1e-05
-0.0147302 0.0189888 1e-05
-0.0147263 0.0189944 1e-05
-0.0147224 0.019 1e-05
-0.0146826 0.0190578 1e-05
-0.0146427 0.0191156 1e-05
-0.0146026 0.0191733 1e-05
-0.0145624 0.0192308 1e-05
-0.0145233 0.0192865 1e-05
-0.0144932 0.0193292 1e-05
-0.0144631 0.0193719 1e-05
-0.0144329 0.0194145 1e-05
-0.0144026 0.019457 1e-05
-0.0143718 0.0195 1e-05
-0.0143588 0.0195182 1e-05
-0.0143458 0.0195364 1e-05
-0.0143327 0.0195545 1e-05
-0.0143196 0.0195727 1e-05
-0.0143067 0.0195906 1e-05
-0.0142637 0.0196502 1e-05
-0.0142206 0.0197096 1e-05
-0.0141773 0.0197689 1e-05
-0.0141339 0.0198281 1e-05
-0.0140917 0.0198854 1e-05
-0.0140748 0.0199083 1e-05
-0.0140578 0.0199312 1e-05
-0.0140408 0.0199541 1e-05
-0.0140238 0.019977 1e-05
-0.0140067 0.02 1e-05
-0.013981 0.0200343 1e-05
-0.0139554 0.0200686 1e-05
-0.0139297 0.0201029 1e-05
-0.0139039 0.0201371 1e-05
-0.0138786 0.0201707 1e-05
-0.0138363 0.0202266 1e-05
-0.0137939 0.0202824 1e-05
-0.0137513 0.0203381 1e-05
-0.0137087 0.0203937 1e-05
-0.0136671 0.0204476 1e-05
-0.013659 0.0204581 1e-05
-0.0136509 0.0204686 1e-05
-0.0136428 0.020479 1e-05
-0.0136347 0.0204895 1e-05
-0.0136265 0.0205 1e-05
-0.0135927 0.0205436 1e-05
-0.0135588 0.020587 1e-05
-0.0135248 0.0206305 1e-05
-0.0134907 0.0206739 1e-05
-0.0134573 0.0207163 1e-05
-0.0134157 0.0207689 1e-05
-0.013374 0.0208215 1e-05
-0.0133322 0.0208739 1e-05
-0.0132902 0.0209263 1e-05
-0.0132493 0.0209773 1e-05
-0.0132456 0.0209818 1e-05
-0.0132419 0.0209864 1e-05
-0.0132383 0.0209909 1e-05
-0.0132346 0.0209955 1e-05
-0.0132309 0.021 1e-05
-0.0131933 0.0210465 1e-05
-0.0131556 0.021093 1e-05
-0.0131178 0.0211394 1e-05
-0.01308 0.0211857 1e-05
-0.0130429 0.0212309 1e-05
-0.0130019 0.0212807 1e-05
-0.0129609 0.0213303 1e-05
-0.0129197 0.0213799 1e-05
-0.0128785 0.0214294 1e-05
-0.0128381 0.0214777 1e-05
-0.0128344 0.0214821 1e-05
-0.0128306 0.0214866 1e-05
-0.0128269 0.0214911 1e-05
-0.0128231 0.0214955 1e-05
-0.0128194 0.0215 1e-05
-0.0127825 0.0215438 1e-05
-0.0127456 0.0215876 1e-05
-0.0127085 0.0216313 1e-05
[...]
POINT_DATA 12122
 FIELD attributes 2
p 1 12122 float
-0.0104185 -0.0114515 -0.0124851 -0.0135184 -0.0145517 -0.0155891 -0.0166661 -0.0177413 -0.018815 -0.0198886 -0.0209622 -0.0219954 -0.0230274 -0.0240586 -0.0250891 -0.0261202 -0.0271319 -0.0281432 -0.0291543 -0.0301646 -0.0311759 -0.0321783 -0.03318 -0.0341815 -0.0351829 -0.0361856 -0.0365223 -0.0368586 -0.0371948 -0.0375311 -0.0378406 -0.0385011 -0.0391614 -0.0398217 -0.0404819 -0.0411433 -0.0421228 -0.0431013 -0.0440796 -0.0450576 -0.0460383 -0.0470041 -0.0479696 -0.0489347 -0.0498993 -0.0508672 -0.0518204 -0.0527731 -0.0537254 -0.0546775 -0.0556328 -0.0557771 -0.0559212 -0.0560654 -0.0562096 -0.05635 -0.0571469 -0.0579432 -0.0587391 -0.0595349 -0.060333 -0.0612613 -0.0621885 -0.0631156 -0.0640422 -0.0649725 -0.0658889 -0.0668044 -0.0677194 -0.0686341 -0.0694794 -0.0694941 -0.0695088 -0.0695234 -0.0695381 -0.0695527 -0.0704565 -0.0713597 -0.0722623 -0.0731645 -0.0740713 -0.0749639 -0.0758559 -0.0767475 -0.0776386 -0.0785354 -0.0788135 -0.0790913 -0.0793691 -0.0796468 -0.0799137 -0.0805204 -0.0811261 -0.0817315 -0.0823367 -0.0829438 -0.0838156 -0.0846862 -0.0855562 -0.086426 -0.0873013 -0.0875797 -0.0878573 -0.0881349 -0.0884123 -0.0886793 -0.0892653 -0.0898508 -0.090436 -0.0910208 -0.0916085 -0.0924609 -0.0933126 -0.0941636 -0.0950138 -0.0958711 -0.0959556 -0.09604 -0.0961244 -0.0962088 -0.0962923 -0.0970517 -0.0978099 -0.0985674 -0.0993242 -0.100086 -0.100687 -0.101287 -0.101887 -0.102486 -0.103043 -0.103287 -0.103531 -0.103775 -0.104019 -0.104263 -0.105092 -0.105919 -0.106745 -0.107571 -0.108404 -0.10855 -0.108696 -0.108842 -0.108988 -0.109131 -0.109807 -0.110482 -0.111156 -0.111829 -0.112507 -0.112948 -0.113388 -0.113827 -0.114266 -0.114684 -0.115064 -0.115443 -0.115822 -0.116201 -0.116581 -0.117235 -0.117888 -0.11854 -0.119191 -0.119798 -0.119964 -0.12013 -0.120295 -0.12046 -0.120626 -0.121426 -0.122223 -0.12302 -0.123815 -0.124546 -0.124566 -0.124586 -0.124605 -0.124625 -0.124645 -0.125443 -0.12624 -0.127035 -0.127829 -0.128633 -0.128702 -0.128771 -0.12884 -0.128909 -0.128978 -0.129703 -0.130426 -0.131148 -0.131868 -0.132597 -0.132705 -0.132812 -0.132919 -0.133026 -0.133132 -0.133813 -0.134493 -0.135172 -0.13585 -0.136536 -0.136637 -0.136738 -0.136839 -0.13694 -0.13704 -0.137723 -0.138405 -0.139085 -0.139763 -0.140451 -0.140507 -0.140564 -0.14062 -0.140676 -0.140731 -0.141442 -0.142152 -0.142859 -0.143565 -0.144226 -0.144248 -0.144271 -0.144293 -0.144315 -0.144337 -0.144988 -0.145638 -0.146286 -0.146932 -0.147541 -0.147671 -0.147801 -0.14793 -0.14806 -0.148191 -0.148696 -0.1492 -0.149703 -0.150205 -0.150685 -0.150951 -0.151215 -0.15148 -0.151744 -0.152009 -0.152344 -0.152679 -0.153014 -0.153348 -0.153672 -0.154096 -0.154519 -0.154941 -0.155363 -0.155789 -0.155935 -0.15608 -0.156226 -0.156371 -0.156514 -0.157064 -0.157611 -0.158157 -0.158701 -0.15922 -0.159279 -0.159339 -0.159398 -0.159458 -0.159517 -0.159979 -0.16044 -0.160899 -0.161358 -0.161799 -0.162076 -0.162352 -0.162628 -0.162903 -0.16318 -0.163395 -0.16361 -0.163823 -0.164037 -0.164246 -0.164718 -0.165189 -0.165658 -0.166126 -0.166575 -0.166615 -0.166654 -0.166694 -0.166733 -0.166771 -0.16718 -0.167588 -0.167994 -0.1684 -0.168792 -0.169085 -0.169379 -0.169673 -0.169965 -0.170262 -0.170388 -0.170514 -0.17064 -0.170766 -0.170891 -0.171295 -0.171697 -0.172097 -0.172496 -0.17288 -0.173031 -0.173181 -0.173331 -0.173481 -0.173632 -0.173858 -0.174086 -0.174312 -0.174539 -0.174762 -0.17512 -0.175478 -0.175834 -0.176189 -0.176533 -0.176597 -0.176661 -0.176726 -0.176791 -0.176857 -0.17713 -0.177402 -0.177673 -0.177943 -0.178206 -0.178523 -0.178838 -0.179151 -0.179463 -0.179764 -0.179791 -0.179817 -0.179843 -0.179869 -0.179895 -0.180164 -0.180433 -0.180702 -0.180969 -0.181231 -0.181505 -0.181778 -0.182049 -0.18232 -0.182583 -0.182605 -0.182628 -0.182652 -0.182675 -0.1827 -0.182932 -0.183163 -0.183392 -0.183621 -0.183843 -0.184078 -0.184309 -0.184539 -0.184768 -0.184989 -0.185035 -0.18508 -0.185124 -0.185169 -0.185213 -0.185379 -0.185545 -0.185711 -0.185877 -0.186041 -0.186231 -0.18642 -0.186609 -0.186797 -0.186982 -0.187057 -0.187134 -0.187211 -0.187288 -0.187368 -0.18746 -0.187552 -0.187644 -0.187735 -0.187824 -0.187976 -0.188123 -0.188272 -0.188419 -0.18856 -0.188668 -0.188774 -0.188879 -0.188983 -0.189087 -0.189106 -0.189127 -0.189147 -0.189168 -0.189192 -0.189298 -0.189405 -0.189511 -0.189617 -0.18972 -0.189802 -0.189886 -0.18997 -0.190053 -0.190139 -0.190161 -0.190184 -0.190206 -0.190228 -0.190251 -0.190296 -0.190337 -0.190377 -0.190417 -0.190453 -0.190496 -0.190536 -0.190581 -0.190624 -0.190665 -0.19069 -0.190709 -0.190728 -0.190746 -0.19076 -0.19076 -0.19076 -0.19076 -0.19076 -0.19076 -0.190757 -0.190757 -0.190757 -0.190755 -0.190756 -0.190729 -0.190703 -0.190677 -0.190655 -0.190632 -0.19059 -0.190551 -0.190511 -0.190471 -0.190433 -0.190427 -0.19042 -0.190414 -0.190407 -0.1904 -0.190336 -0.190271 -0.190204 -0.190137 -0.190065 -0.189974 -0.189882 -0.18979 -0.189703 -0.189617 -0.189523 -0.189424 -0.189324 -0.189224 -0.189117 -0.189103 -0.189089 -0.189075 -0.189061 -0.189047 -0.188908 -0.188775 -0.188641 -0.188506 -0.188376 -0.188212 -0.188048 -0.187887 -0.187732 -0.187578 -0.187392 -0.187209 -0.187026 -0.186842 -0.186665 -0.186646 -0.186627 -0.186608 -0.186589 -0.186571 -0.186392 -0.186207 -0.186022 -0.185837 -0.185647 -0.185415 -0.185182 -0.18496 -0.184737 -0.184515 -0.184267 -0.184012 -0.183756 -0.183501 -0.183254 -0.183114 -0.182973 -0.182832 -0.182691 -0.182548 -0.182411 -0.182279 -0.182146 -0.182013 -0.181885 -0.181575 -0.181279 -0.180982 -0.180685 -0.180388 -0.180055 -0.179726 -0.179399 -0.179084 -0.178776 -0.178427 -0.178076 -0.177725 -0.177373 -0.177027 -0.176959 -0.176895 -0.176832 -0.176768 -0.176709 -0.176403 -0.176098 -0.175793 -0.175487 -0.175184 -0.174781 -0.174382 -0.173991 -0.173599 -0.173204 -0.172777 -0.172352 -0.171925 -0.171513 -0.171109 -0.170667 -0.17022 -0.169771 -0.169322 -0.168873 -0.168834 -0.168796 -0.168759 -0.168722 -0.168685 -0.168251 -0.167821 -0.167391 -0.16696 -0.166536 -0.166028 -0.165527 -0.165037 -0.164546 -0.164055 -0.163522 -0.162993 -0.162464 -0.161956 -0.161456 -0.16091 -0.160359 -0.159808 -0.159256 -0.158712 -0.158557 -0.158406 -0.158255 -0.158104 -0.157956 -0.157536 -0.15712 -0.156704 -0.156288 -0.155877 -0.155267 -0.154676 -0.154087 -0.153497 -0.152905 -0.152269 -0.151637 -0.151018 -0.150412 -0.149814 -0.149167 -0.148514 -0.147861 -0.147208 -0.14658 -0.146068 -0.145563 -0.145057 -0.14455 -0.144046 -0.14388 -0.143718 -0.143556 -0.143394 -0.143236 -0.142543 -0.141852 -0.14116 -0.140468 -0.139772 -0.139033 -0.138307 -0.137601 -0.136894 -0.136193 -0.135445 -0.134688 -0.133931 -0.133204 -0.132471 -0.1317 -0.130931 -0.130161 -0.129391 -0.128649 -0.128193 -0.127728 -0.127262 -0.126796 -0.126317 -0.125996 -0.12567 -0.125344 -0.125019 -0.124689 -0.123857 -0.123051 -0.122245 -0.121439 -0.120645 -0.119786 -0.118932 -0.118104 -0.117276 -0.116447 -0.115565 -0.114693 -0.113824 -0.112989 -0.112167 -0.111278 -0.110384 -0.10949 -0.108595 -0.107733 -0.106999 -0.106275 -0.105551 -0.104827 -0.104108 -0.103926 -0.103747 -0.103569 -0.103391 -0.103219 -0.102298 -0.101374 -0.10045 -0.0995251 -0.0985913 -0.0976099 -0.0966601 -0.0957238 -0.094787 -0.0938588 -0.0928853 -0.0918992 -0.0909355 -0.0899885 -0.0890324 -0.0880208 -0.0870136 -0.0860061 -0.0850189 -0.08406 -0.0830577 -0.0820434 -0.0810288 -0.0800138 -0.0790089 -0.0785433 -0.0780821 -0.0776208 -0.0771594 -0.0767008 -0.0761147 -0.0755394 -0.0749641 -0.0743886 -0.0738252 -0.0727708 -0.0717376 -0.0707042 -0.0696705 -0.0686368 -0.0675266 -0.0664432 -0.0653845 -0.0643254 -0.0632779 -0.062179 -0.0610762 -0.0599928 -0.0589335 -0.0578737 -0.0567424 -0.0556162 -0.0544897 -0.0533839 -0.0523092 -0.0511857 -0.0500578 -0.0489296 -0.0478012 -0.0466946 -0.0460445 -0.0453974 -0.0447501 -0.0441029 -0.0434563 -0.0429544 -0.0424554 -0.0419563 -0.0414572 -0.0409615 -0.0397914 -0.0386345 -0.0374774 -0.0363201 -0.0351596 -0.0339383 -0.0327521 -0.0315807 -0.0304091 -0.0292427 -0.0280234 -0.0267999 -0.0256123 -0.0244347 -0.0232541 -0.0220157 -0.020781 -0.0195462 -0.0183526 -0.017168 -0.0159284 -0.0146853 -0.0134423 -0.0121999 -0.0109982 -0.00974016 -0.00848627 -0.00723253 -0.00597895 -0.00473362 -0.00453201 -0.00432748 -0.00412283 -0.00391691 -0.00371127 -0.00265361 -0.0015881 -0.000522781 0.000542346 0.0016183 0.00293244 0.00421304 0.00549322 0.00677298 0.00806067 0.00939046 0.0107086 0.011998 0.0132868 0.0145934 0.0159378 0.0172832 0.0186024 0.0198989 0.0212102 0.0225547 0.0239067 0.0252575 0.0265767 0.0279057 0.0292658 0.0306265 0.0319856 0.0333432 0.0346912 0.0358235 0.0369639 0.0381029 0.0392405 0.0403424 0.0405948 0.0408475 0.041101 0.0413545 0.0416113 0.0430324 0.0444384 0.0458419 0.0472431 0.0486792 0.0501624 0.0516023 0.0530321 0.054459 0.0559384 0.0574321 0.0589173 0.0603576 0.0617862 0.0632697 0.0647639 0.0662586 0.0677488 0.0691998 0.0707139 0.0721893 0.0736541 0.075114 0.0765688 0.0780762 0.0787004 0.0793278 0.0799542 0.0805796 0.0811875 0.0819875 0.0827924 0.0835957 0.0843975 0.0852352 0.0866024 0.0879264 0.0892457 0.0905605 0.0919685 0.0932764 0.094588 0.0958611 0.0971216 0.098495 0.100062 0.101632 0.103195 0.104744 0.106397 0.10788 0.109385 0.110883 0.112375 0.11383 0.114559 0.115313 0.116065 0.116817 0.117618 0.120237 0.122786 0.125319 0.127836 0.13059 0.132302 0.133968 0.135613 0.137219 0.139009 0.139818 0.140637 0.141457 0.142278 0.143086 0.144576 0.14608 0.147587 0.149096 0.150822 0.152181 0.153553 0.154925 0.156297 0.157642 0.159426 0.161226 0.163024 0.164823 0.166873 0.168427 0.169991 0.171554 0.173115 0.174658 0.177308 0.179967 0.182622 0.185272 0.188308 0.189355 0.190398 0.19144 0.192482 0.193513 0.197517 0.20151 0.205495 0.209472 0.21336 0.213531 0.2137 0.213869 0.214036 0.214204 0.218003 0.221794 0.22558 0.229362 0.233067 0.235269 0.237467 0.239663 0.241858 0.244237 0.246077 0.247917 0.249755 0.251594 0.253419 0.257647 0.261871 0.266094 0.270286 0.274402 0.275525 0.276648 0.27777 0.278893 0.280061 0.28327 0.286481 0.28969 0.292898 0.296081 0.300621 0.30516 0.309697 0.314221 0.318652 0.319902 0.321154 0.322406 0.323657 0.324971 0.32835 0.331727 0.335103 0.338477 0.341829 0.346614 0.351395 0.356154 0.360863 0.365527 0.369032 0.37253 0.376027 0.379521 0.383595 0.384752 0.385907 0.387062 0.388216 0.389367 0.394075 0.398735 0.40339 0.408039 0.412648 0.417116 0.421569 0.42601 0.430404 0.434756 0.438764 0.44275 0.446729 0.450701 0.454621 0.455719 0.456794 0.457869 0.458943 0.460134 0.462314 0.464466 0.466615 0.468761 0.470874 0.473168 0.475455 0.477735 0.480009 0.482236 0.483262 0.484273 0.485346 0.486413 0.487433 0.487 0.486516 0.486142 0.485812 0.485434 0.483468 0.481452 0.479503 0.477699 0.475848 0.472459 0.469024 0.465618 0.462414 0.459167 0.454702 0.450205 0.445722 0.441386 0.437018 0.432046 0.427057 0.422063 0.417037 0.411994 0.407195 0.402396 0.397497 0.392373 0.387246 0.383302 0.379365 0.375139 0.370635 0.366138 0.36393 0.361735 0.359113 0.35635 0.3536 0.355127 0.356695 0.358194 0.359692 0.361234 0.370928 0.381111 0.39217 0.403228 0.414415 0.436797 0.461246 0.487076 0.51291 0.538847 0.566464 0.598788 0.631679 0.664581 0.697019 0.696908 0.699993 0.703079 0.706167 0.707416 0.646551 0.585671 0.524732 0.463735 0.400641 0.376651 0.355027 0.333381 0.312497 0.281492 0.253389 0.225328 0.197974 0.170768 0.145716 0.138063 0.129983 0.121852 0.113671 0.104624 0.0992091 0.0938169 0.0884002 0.0829589 0.0771103