# vtk DataFile Version 2.0
track0
ASCII
DATASET POLYDATA
POINTS 12119 float
-0.0205 0.001 1e-05
-0.0204967 0.0011 1e-05
-0.0204932 0.00119999 1e-05
-0.0204894 0.00129998 1e-05
-0.0204855 0.00139995 1e-05
-0.0204812 0.0015 1e-05
-0.0204768 0.0016 1e-05
-0.0204721 0.00169999 1e-05
-0.0204672 0.00179996 1e-05
-0.020462 0.00189993 1e-05
-0.0204565 0.002 1e-05
-0.0204508 0.0021 1e-05
-0.0204448 0.00219998 1e-05
-0.0204386 0.00229995 1e-05
-0.0204321 0.00239991 1e-05
-0.0204254 0.0025 1e-05
-0.0204183 0.0026 1e-05
-0.0204111 0.00269998 1e-05
-0.0204035 0.00279994 1e-05
-0.0203957 0.00289988 1e-05
-0.0203876 0.003 1e-05
-0.0203793 0.0031 1e-05
-0.0203707 0.00319998 1e-05
-0.0203618 0.00329993 1e-05
-0.0203527 0.00339986 1e-05
-0.0203433 0.0035 1e-05
-0.0203336 0.0036 1e-05
-0.0203236 0.00369997 1e-05
-0.0203134 0.00379992 1e-05
-0.0203029 0.00389984 1e-05
-0.0202922 0.004 1e-05
-0.0202908 0.00401225 1e-05
-0.0202894 0.00402451 1e-05
-0.0202881 0.00403676 1e-05
-0.0202867 0.00404901 1e-05
-0.0202854 0.0040609 1e-05
-0.0202756 0.00414872 1e-05
-0.0202655 0.00423652 1e-05
-0.0202553 0.00432429 1e-05
-0.0202448 0.00441204 1e-05
-0.0202341 0.0045 1e-05
-0.0202217 0.0046 1e-05
-0.0202091 0.00469997 1e-05
-0.0201961 0.0047999 1e-05
-0.0201829 0.00489979 1e-05
-0.0201694 0.005 1e-05
-0.0201556 0.0051 1e-05
-0.0201415 0.00519996 1e-05
-0.0201272 0.00529989 1e-05
-0.0201126 0.00539977 1e-05
-0.0200977 0.0055 1e-05
-0.0200826 0.00559937 1e-05
-0.0200673 0.0056987 1e-05
-0.0200517 0.00579799 1e-05
-0.0200358 0.00589723 1e-05
-0.0200223 0.00597975 1e-05
-0.0200217 0.0059838 1e-05
-0.020021 0.00598785 1e-05
-0.0200203 0.0059919 1e-05
-0.0200196 0.00599595 1e-05
-0.020019 0.006 1e-05
-0.0200024 0.0061 1e-05
-0.0199855 0.00619995 1e-05
-0.0199684 0.00629986 1e-05
-0.019951 0.00639972 1e-05
-0.0199332 0.0065 1e-05
-0.0199152 0.0066 1e-05
-0.0198969 0.00669995 1e-05
-0.0198783 0.00679985 1e-05
-0.0198594 0.00689969 1e-05
-0.0198402 0.007 1e-05
-0.0198244 0.00708094 1e-05
-0.0198085 0.00716185 1e-05
-0.0197923 0.00724272 1e-05
-0.019776 0.00732355 1e-05
-0.0197614 0.00739526 1e-05
-0.019757 0.0074162 1e-05
-0.0197527 0.00743715 1e-05
-0.0197484 0.00745809 1e-05
-0.019744 0.00747904 1e-05
-0.0197396 0.0075 1e-05
-0.0197187 0.0076 1e-05
-0.0196974 0.00769994 1e-05
-0.0196759 0.00779982 1e-05
-0.0196541 0.00789963 1e-05
-0.0196318 0.008 1e-05
-0.0196094 0.0081 1e-05
-0.0195866 0.00819993 1e-05
-0.0195636 0.0082998 1e-05
-0.0195403 0.0083996 1e-05
-0.0195165 0.0085 1e-05
-0.0195137 0.00851165 1e-05
-0.0195109 0.0085233 1e-05
-0.0195081 0.00853495 1e-05
-0.0195053 0.0085466 1e-05
-0.0195025 0.00855809 1e-05
-0.0194811 0.00864647 1e-05
-0.0194596 0.0087348 1e-05
-0.0194377 0.00882307 1e-05
-0.0194157 0.00891128 1e-05
-0.0193933 0.009 1e-05
-0.0193677 0.0091 1e-05
-0.0193418 0.00919992 1e-05
-0.0193157 0.00929977 1e-05
-0.0192892 0.00939954 1e-05
-0.0192623 0.0095 1e-05
-0.019259 0.00951219 1e-05
-0.0192557 0.00952438 1e-05
-0.0192523 0.00953657 1e-05
-0.019249 0.00954876 1e-05
-0.0192457 0.00956078 1e-05
-0.0192217 0.00964862 1e-05
-0.0191975 0.0097364 1e-05
-0.019173 0.00982412 1e-05
-0.0191483 0.00991177 1e-05
-0.0191231 0.01 1e-05
-0.0190967 0.0100918 1e-05
-0.01907 0.0101835 1e-05
-0.0190431 0.0102751 1e-05
-0.0190159 0.0103667 1e-05
-0.018991 0.0104496 1e-05
-0.018988 0.0104597 1e-05
-0.0189849 0.0104697 1e-05
-0.0189819 0.0104798 1e-05
-0.0189788 0.0104899 1e-05
-0.0189757 0.0105 1e-05
-0.0189453 0.0106 1e-05
-0.0189145 0.0106999 1e-05
-0.0188835 0.0107997 1e-05
-0.0188521 0.0108994 1e-05
-0.0188201 0.011 1e-05
-0.0188038 0.0110508 1e-05
-0.0187873 0.0111016 1e-05
-0.0187708 0.0111524 1e-05
-0.0187542 0.0112032 1e-05
-0.0187384 0.0112514 1e-05
-0.018722 0.0113011 1e-05
-0.0187055 0.0113508 1e-05
-0.0186889 0.0114005 1e-05
-0.0186723 0.0114501 1e-05
-0.0186554 0.0115 1e-05
-0.0186219 0.0115989 1e-05
-0.0185881 0.0116977 1e-05
-0.0185539 0.0117964 1e-05
-0.0185194 0.011895 1e-05
-0.0184878 0.0119847 1e-05
-0.0184867 0.0119878 1e-05
-0.0184856 0.0119908 1e-05
-0.0184845 0.0119939 1e-05
-0.0184834 0.0119969 1e-05
-0.0184823 0.012 1e-05
-0.0184466 0.0121 1e-05
-0.0184106 0.0121999 1e-05
-0.0183743 0.0122997 1e-05
-0.0183376 0.0123993 1e-05
-0.0183002 0.0125 1e-05
-0.018288 0.0125325 1e-05
-0.0182758 0.0125651 1e-05
-0.0182635 0.0125976 1e-05
-0.0182512 0.0126301 1e-05
-0.0182392 0.0126617 1e-05
-0.0182134 0.0127294 1e-05
-0.0181874 0.012797 1e-05
-0.0181613 0.0128645 1e-05
-0.0181351 0.012932 1e-05
-0.0181085 0.013 1e-05
-0.0180853 0.0130588 1e-05
-0.018062 0.0131176 1e-05
-0.0180386 0.0131763 1e-05
-0.0180151 0.013235 1e-05
-0.0179926 0.0132908 1e-05
-0.0179756 0.0133326 1e-05
-0.0179586 0.0133745 1e-05
-0.0179416 0.0134163 1e-05
-0.0179244 0.013458 1e-05
-0.0179071 0.0135 1e-05
-0.0178753 0.013577 1e-05
-0.0178433 0.0136539 1e-05
-0.017811 0.0137308 1e-05
-0.0177786 0.0138075 1e-05
-0.017748 0.0138795 1e-05
-0.0177377 0.0139036 1e-05
-0.0177273 0.0139277 1e-05
-0.017717 0.0139518 1e-05
-0.0177066 0.0139759 1e-05
-0.0176961 0.014 1e-05
-0.017658 0.0140881 1e-05
-0.0176196 0.014176 1e-05
-0.0175809 0.0142639 1e-05
-0.0175419 0.0143516 1e-05
-0.0175053 0.0144334 1e-05
-0.0174993 0.0144467 1e-05
-0.0174933 0.01446 1e-05
-0.0174873 0.0144733 1e-05
-0.0174813 0.0144867 1e-05
-0.0174752 0.0145 1e-05
-0.0174331 0.0145928 1e-05
-0.0173907 0.0146855 1e-05
-0.017348 0.0147781 1e-05
-0.017305 0.0148705 1e-05
-0.0172647 0.0149565 1e-05
-0.0172606 0.0149652 1e-05
-0.0172564 0.0149739 1e-05
-0.0172523 0.0149826 1e-05
-0.0172482 0.0149913 1e-05
-0.0172441 0.015 1e-05
-0.0172004 0.0150919 1e-05
-0.0171565 0.0151837 1e-05
-0.0171123 0.0152754 1e-05
-0.0170678 0.0153669 1e-05
-0.0170259 0.0154522 1e-05
-0.0170212 0.0154618 1e-05
-0.0170165 0.0154713 1e-05
-0.0170117 0.0154809 1e-05
-0.017007 0.0154904 1e-05
-0.0170023 0.0155 1e-05
-0.0169596 0.0155859 1e-05
-0.0169167 0.0156717 1e-05
-0.0168736 0.0157574 1e-05
-0.0168302 0.0158429 1e-05
-0.0167891 0.0159232 1e-05
-0.0167812 0.0159386 1e-05
-0.0167733 0.0159539 1e-05
-0.0167654 0.0159693 1e-05
-0.0167574 0.0159846 1e-05
-0.0167495 0.016 1e-05
-0.0167104 0.0160753 1e-05
-0.0166711 0.0161505 1e-05
-0.0166317 0.0162257 1e-05
-0.016592 0.0163007 1e-05
-0.0165542 0.0163718 1e-05
-0.0165405 0.0163974 1e-05
-0.0165267 0.016423 1e-05
-0.0165129 0.0164487 1e-05
-0.0164991 0.0164743 1e-05
-0.0164852 0.0165 1e-05
-0.0164524 0.0165606 1e-05
-0.0164195 0.0166212 1e-05
-0.0163864 0.0166816 1e-05
-0.0163532 0.016742 1e-05
-0.0163212 0.0167999 1e-05
-0.0162989 0.01684 1e-05
-0.0162767 0.0168799 1e-05
-0.0162543 0.0169199 1e-05
-0.0162319 0.0169598 1e-05
-0.0162093 0.017 1e-05
-0.0161854 0.0170422 1e-05
-0.0161615 0.0170844 1e-05
-0.0161375 0.0171266 1e-05
-0.0161135 0.0171687 1e-05
-0.01609 0.0172096 1e-05
-0.0160566 0.0172677 1e-05
-0.0160231 0.0173257 1e-05
-0.0159895 0.0173836 1e-05
-0.0159557 0.0174415 1e-05
-0.0159214 0.0175 1e-05
-0.0159093 0.0175206 1e-05
-0.0158971 0.0175412 1e-05
-0.015885 0.0175617 1e-05
-0.0158728 0.0175823 1e-05
-0.0158607 0.0176026 1e-05
-0.0158153 0.0176791 1e-05
-0.0157696 0.0177555 1e-05
-0.0157236 0.0178318 1e-05
-0.0156775 0.017908 1e-05
-0.0156333 0.0179805 1e-05
-0.0156309 0.0179844 1e-05
-0.0156285 0.0179883 1e-05
-0.0156261 0.0179922 1e-05
-0.0156237 0.0179961 1e-05
-0.0156213 0.018 1e-05
-0.0155786 0.0180696 1e-05
-0.0155357 0.018139 1e-05
-0.0154926 0.0182083 1e-05
-0.0154494 0.0182776 1e-05
-0.0154077 0.0183438 1e-05
-0.015388 0.0183751 1e-05
-0.0153682 0.0184063 1e-05
-0.0153484 0.0184375 1e-05
-0.0153286 0.0184686 1e-05
-0.0153085 0.0185 1e-05
-0.0152836 0.0185389 1e-05
-0.0152586 0.0185778 1e-05
-0.0152336 0.0186167 1e-05
-0.0152085 0.0186555 1e-05
-0.0151839 0.0186935 1e-05
-0.0151441 0.0187548 1e-05
-0.0151041 0.018816 1e-05
-0.0150639 0.0188771 1e-05
-0.0150236 0.0189381 1e-05
-0.0149826 0.019 1e-05
-0.0149785 0.0190062 1e-05
-0.0149744 0.0190124 1e-05
-0.0149702 0.0190186 1e-05
-0.0149661 0.0190248 1e-05
-0.0149619 0.019031 1e-05
-0.0149179 0.0190969 1e-05
-0.0148737 0.0191627 1e-05
-0.0148293 0.0192284 1e-05
-0.0147848 0.019294 1e-05
-0.0147417 0.0193571 1e-05
-0.0147221 0.0193857 1e-05
-0.0147025 0.0194142 1e-05
-0.0146828 0.0194428 1e-05
-0.0146631 0.0194713 1e-05
-0.0146433 0.0195 1e-05
-0.0146193 0.0195346 1e-05
-0.0145952 0.0195691 1e-05
-0.0145712 0.0196036 1e-05
-0.014547 0.0196381 1e-05
-0.0145233 0.0196719 1e-05
-0.01448 0.0197335 1e-05
-0.0144365 0.019795 1e-05
-0.0143929 0.0198564 1e-05
-0.0143491 0.0199177 1e-05
-0.0143067 0.019977 1e-05
-0.0143033 0.0199816 1e-05
-0.0143 0.0199862 1e-05
-0.0142967 0.0199908 1e-05
-0.0142934 0.0199954 1e-05
-0.0142901 0.02 1e-05
-0.0142504 0.0200549 1e-05
-0.0142106 0.0201098 1e-05
-0.0141707 0.0201646 1e-05
-0.0141307 0.0202193 1e-05
-0.0140917 0.0202723 1e-05
-0.0140582 0.0203179 1e-05
-0.0140245 0.0203633 1e-05
-0.0139908 0.0204088 1e-05
-0.0139569 0.0204541 1e-05
-0.0139226 0.0205 1e-05
-0.0139138 0.0205117 1e-05
-0.013905 0.0205235 1e-05
-0.0138962 0.0205352 1e-05
-0.0138873 0.0205469 1e-05
-0.0138786 0.0205586 1e-05
-0.0138363 0.0206146 1e-05
-0.0137939 0.0206706 1e-05
-0.0137513 0.0207265 1e-05
-0.0137087 0.0207823 1e-05
-0.0136671 0.0208365 1e-05
-0.0136419 0.0208692 1e-05
-0.0136166 0.0209018 1e-05
-0.0135913 0.0209345 1e-05
-0.013566 0.0209671 1e-05
-0.0135404 0.021 1e-05
-0.0135238 0.0210213 1e-05
-0.0135071 0.0210425 1e-05
-0.0134905 0.0210638 1e-05
-0.0134738 0.021085 1e-05
-0.0134573 0.021106 1e-05
-0.0134157 0.0211589 1e-05
-0.013374 0.0212117 1e-05
-0.0133322 0.0212644 1e-05
-0.0132902 0.021317 1e-05
-0.0132493 0.0213682 1e-05
-0.0132281 0.0213946 1e-05
-0.0132069 0.0214209 1e-05
-0.0131857 0.0214472 1e-05
-0.0131644 0.0214735 1e-05
-0.013143 0.0215 1e-05
-0.013123 0.0215247 1e-05
-0.0131029 0.0215494 1e-05
-0.0130828 0.021574 1e-05
-0.0130627 0.0215986 1e-05
-0.0130429 0.021623 1e-05
-0.0130019 0.021673 1e-05
-0.0129609 0.0217229 1e-05
-0.0129197 0.0217727 1e-05
-0.0128785 0.0218225 1e-05
-0.0128381 0.021871 1e-05
-0.0128166 0.0218968 1e-05
-0.012795 0.0219226 1e-05
-0.0127735 0.0219483 1e-05
[...]
POINT_DATA 12119
 FIELD attributes 2
p 1 12119 float
0.0847055 0.0945363 0.104267 0.113997 0.123727 0.133455 0.142892 0.152279 0.161629 0.17098 0.180339 0.189599 0.198858 0.208037 0.217216 0.226409 0.235574 0.244739 0.253884 0.262973 0.272081 0.281205 0.29033 0.299456 0.308559 0.317635 0.326738 0.335844 0.344951 0.354058 0.363181 0.364295 0.365409 0.366523 0.367638 0.368721 0.376727 0.384736 0.392746 0.400757 0.408792 0.41797 0.427103 0.43622 0.445339 0.454492 0.463671 0.472852 0.482034 0.491158 0.500319 0.509447 0.518579 0.527711 0.536845 0.544446 0.54482 0.545194 0.545568 0.545943 0.546318 0.555558 0.564796 0.574036 0.583278 0.592568 0.601883 0.611202 0.620503 0.629772 0.639093 0.64666 0.654229 0.6618 0.669372 0.676094 0.678066 0.68004 0.682014 0.683988 0.685966 0.695437 0.704876 0.714318 0.723763 0.73327 0.742808 0.75235 0.761894 0.771441 0.781032 0.782148 0.783267 0.784386 0.785505 0.78661 0.795147 0.803688 0.812232 0.820778 0.829383 0.839156 0.848934 0.858715 0.868498 0.878333 0.879532 0.880734 0.881936 0.883137 0.884326 0.893046 0.901772 0.9105 0.919231 0.928031 0.937261 0.946496 0.955733 0.964973 0.973351 0.974376 0.975404 0.976431 0.977459 0.97849 0.988756 0.999001 1.00925 1.0195 1.02986 1.03514 1.04042 1.04571 1.05099 1.05602 1.06125 1.06648 1.07171 1.07694 1.08221 1.09273 1.10326 1.1138 1.12434 1.13394 1.13427 1.1346 1.13493 1.13526 1.13559 1.14649 1.15737 1.16827 1.17917 1.1902 1.1938 1.1974 1.201 1.2046 1.20811 1.21569 1.22327 1.23086 1.23845 1.24611 1.2528 1.25949 1.26618 1.27287 1.27924 1.28407 1.2889 1.29374 1.29858 1.30344 1.31245 1.32146 1.33047 1.33948 1.34796 1.35082 1.35369 1.35657 1.35944 1.36232 1.37293 1.38354 1.39416 1.40478 1.4147 1.41634 1.41797 1.41961 1.42125 1.4229 1.43442 1.44596 1.4575 1.46904 1.47981 1.48091 1.48201 1.48312 1.48422 1.48533 1.49711 1.5089 1.5207 1.5325 1.54353 1.54478 1.54604 1.54729 1.54854 1.5498 1.56118 1.57257 1.58396 1.59536 1.60608 1.60816 1.61024 1.61233 1.61441 1.61651 1.62682 1.63715 1.64748 1.65781 1.66762 1.67122 1.67482 1.67841 1.68201 1.68563 1.69423 1.70283 1.71143 1.72004 1.72831 1.73411 1.73992 1.74573 1.75154 1.7574 1.7636 1.76981 1.77602 1.78224 1.78829 1.797 1.80573 1.81445 1.82318 1.83203 1.83516 1.83831 1.84145 1.84459 1.8477 1.85959 1.8715 1.88341 1.89533 1.90668 1.90729 1.90792 1.90854 1.90916 1.90979 1.92097 1.93215 1.94334 1.95453 1.96527 1.97042 1.97558 1.98073 1.98589 1.99109 1.9976 2.00411 2.01062 2.01714 2.02352 2.034 2.0445 2.05499 2.0655 2.07617 2.07724 2.07833 2.07941 2.08049 2.08157 2.09327 2.10493 2.1166 2.12827 2.13952 2.14472 2.14992 2.15512 2.16032 2.16557 2.17194 2.17832 2.1847 2.19109 2.19736 2.20899 2.22064 2.23229 2.24395 2.2552 2.25609 2.25698 2.25787 2.25876 2.25966 2.27041 2.28117 2.29193 2.30269 2.31316 2.32232 2.33149 2.34066 2.34983 2.35912 2.36152 2.36393 2.36633 2.36874 2.37114 2.38287 2.39458 2.40627 2.41796 2.42935 2.43635 2.44337 2.4504 2.45742 2.46452 2.46915 2.4738 2.47844 2.48308 2.48768 2.4995 2.51132 2.5231 2.53485 2.54632 2.55235 2.55839 2.56442 2.57046 2.57655 2.58228 2.58802 2.59376 2.59951 2.6052 2.61712 2.62906 2.64096 2.65282 2.66443 2.67072 2.67703 2.68334 2.68964 2.69602 2.70161 2.7072 2.7128 2.71839 2.72394 2.73601 2.74809 2.7601 2.77209 2.78384 2.7918 2.79975 2.80771 2.81567 2.82372 2.82778 2.83185 2.83592 2.83999 2.84404 2.85626 2.86844 2.88058 2.89272 2.90465 2.91576 2.92688 2.938 2.94912 2.96041 2.96144 2.96247 2.9635 2.96453 2.96556 2.9779 2.99021 3.00252 3.01483 3.02694 3.03934 3.05174 3.06414 3.07654 3.08864 3.09234 3.09604 3.09975 3.10345 3.10718 3.1159 3.12464 3.13338 3.14213 3.15079 3.16338 3.17599 3.18852 3.20102 3.21334 3.22364 3.23395 3.24427 3.25458 3.26504 3.26728 3.26953 3.27178 3.27403 3.27628 3.28906 3.30178 3.3145 3.32722 3.33977 3.3526 3.36545 3.37829 3.39108 3.40364 3.40998 3.41633 3.42267 3.42902 3.43541 3.44192 3.44845 3.45497 3.4615 3.468 3.48108 3.49411 3.50709 3.52007 3.5329 3.546 3.55911 3.57223 3.58534 3.5982 3.60249 3.60679 3.6111 3.61541 3.61975 3.62864 3.63754 3.64643 3.65533 3.66417 3.6776 3.691 3.70428 3.71757 3.73072 3.74416 3.75761 3.77106 3.78452 3.79772 3.80221 3.80671 3.81121 3.81571 3.82024 3.82927 3.83833 3.84739 3.85645 3.86546 3.87926 3.89301 3.90666 3.92031 3.93386 3.94769 3.96153 3.97538 3.9892 4.00276 4.01002 4.0173 4.02459 4.03187 4.03923 4.04585 4.05247 4.0591 4.06573 4.07233 4.08657 4.10062 4.11467 4.12872 4.14264 4.1569 4.17117 4.18544 4.19954 4.2135 4.22659 4.23968 4.25277 4.26587 4.2791 4.28025 4.28141 4.28257 4.28373 4.2849 4.29934 4.31378 4.32822 4.34266 4.357 4.37165 4.38631 4.40079 4.41525 4.42961 4.44428 4.45897 4.47367 4.48836 4.50276 4.51059 4.51843 4.52628 4.53412 4.54202 4.54891 4.55581 4.56271 4.56961 4.57649 4.59151 4.60636 4.62122 4.63608 4.65084 4.66593 4.68102 4.69603 4.71091 4.72569 4.7408 4.75592 4.77104 4.78616 4.80105 4.80693 4.81281 4.81869 4.82457 4.83048 4.8398 4.84912 4.85845 4.86778 4.87708 4.89259 4.90791 4.92322 4.93853 4.95378 4.96933 4.9849 5.00039 5.01573 5.03099 5.04656 5.06217 5.07778 5.09338 5.10874 5.11664 5.12455 5.13247 5.14038 5.14835 5.15612 5.16388 5.17165 5.17942 5.18717 5.20315 5.21897 5.23478 5.2506 5.26634 5.28243 5.29852 5.31443 5.33028 5.34604 5.36216 5.37829 5.39443 5.41049 5.42631 5.44106 5.45582 5.47059 5.48535 5.50024 5.50162 5.50299 5.50437 5.50575 5.50713 5.52345 5.53977 5.55609 5.57241 5.58866 5.60524 5.6217 5.63805 5.6544 5.67067 5.68727 5.70389 5.72048 5.73687 5.75319 5.76984 5.78649 5.80314 5.81979 5.83616 5.84701 5.85787 5.86873 5.87959 5.89054 5.89636 5.90222 5.90808 5.91394 5.91984 5.93681 5.9537 5.9706 5.98749 6.00434 6.02146 6.03855 6.05549 6.07242 6.08933 6.10648 6.12367 6.14083 6.15778 6.17469 6.19184 6.20905 6.22626 6.24347 6.26045 6.27331 6.2862 6.29908 6.31197 6.32497 6.32931 6.33369 6.33806 6.34244 6.34684 6.36439 6.38193 6.39947 6.41701 6.43453 6.45226 6.46989 6.48742 6.50494 6.52243 6.54011 6.55784 6.57546 6.59296 6.61044 6.62812 6.64584 6.66356 6.6812 6.69866 6.71629 6.73398 6.75167 6.76936 6.78698 6.79126 6.79558 6.7999 6.80422 6.80858 6.82205 6.83549 6.84893 6.86237 6.87573 6.8937 6.91148 6.92925 6.94702 6.9647 6.98277 7.00077 7.01857 7.03638 7.05408 7.07215 7.09019 7.1082 7.12602 7.14376 7.16188 7.17998 7.19808 7.21614 7.23391 7.25205 7.27018 7.2883 7.30642 7.32441 7.3282 7.33196 7.33572 7.33947 7.34322 7.35755 7.37187 7.38618 7.4005 7.41477 7.43304 7.45114 7.46923 7.48732 7.50535 7.52372 7.54202 7.56014 7.57827 7.59633 7.6147 7.63308 7.65137 7.66951 7.68759 7.70598 7.72438 7.74278 7.76105 7.77915 7.79754 7.81594 7.83434 7.85274 7.87094 7.88454 7.89815 7.91176 7.92537 7.93907 7.94385 7.94864 7.95342 7.95821 7.96301 7.98153 8.00001 8.01849 8.03697 8.05541 8.07414 8.09265 8.11114 8.12964 8.14809 8.16683 8.18556 8.20407 8.22258 8.24105 8.25981 8.27859 8.2973 8.31583 8.33432 8.35311 8.37192 8.39072 8.40941 8.42793 8.44676 8.46561 8.48446 8.50331 8.52195 8.53946 8.55699 8.57452 8.59204 8.60969 8.61105 8.61241 8.61377 8.61514 8.61654 8.63567 8.65483 8.67399 8.69315 8.71232 8.73177 8.75108 8.77039 8.7897 8.80905 8.82874 8.84837 8.86787 8.88737 8.90695 8.92694 8.94699 8.96686 8.98666 9.00662 9.02706 9.04755 9.06804 9.08829 9.10882 9.12991 9.15106 9.17221 9.1933 9.21469 9.23681 9.25897 9.28111 9.30324 9.32618 9.33744 9.34877 9.36008 9.37139 9.382 9.39472 9.40746 9.4202 9.43292 9.44614 9.472 9.49762 9.52314 9.54856 9.57709 9.60488 9.63232 9.65938 9.68624 9.71816 9.7448 9.77109 9.79715 9.8228 9.85398 9.87599 9.89771 9.91931 9.94078 9.96793 9.96963 9.97126 9.97288 9.97446 9.97599 10.014 10.0521 10.0903 10.1288 10.1795 10.1866 10.1938 10.2009 10.2081 10.2153 10.2546 10.294 10.3335 10.3731 10.4196 10.4249 10.4302 10.4356 10.4409 10.4463 10.494 10.5418 10.5897 10.6377 10.6837 10.6879 10.6923 10.6966 10.701 10.7055 10.75 10.7946 10.8392 10.8838 10.9277 10.9517 10.9759 11 11.0242 11.0503 11.0755 11.1008 11.1261 11.1515 11.1766 11.2276 11.2786 11.3297 11.3807 11.4312 11.4345 11.4378 11.4412 11.4445 11.4479 11.4966 11.5452 11.5939 11.6425 11.6908 11.732 11.7732 11.8144 11.8556 11.9003 11.9113 11.9224 11.9334 11.9444 11.9555 12.0096 12.0636 12.1176 12.1716 12.2252 12.2632 12.3012 12.3392 12.3772 12.4183 12.4347 12.4511 12.4676 12.484 12.5005 12.5567 12.6129 12.6691 12.7252 12.781 12.8292 12.8775 12.9257 12.9739 13.0279 13.0358 13.0438 13.0517 13.0597 13.0677 13.1262 13.1846 13.2431 13.3015 13.3596 13.4195 13.4793 13.5392 13.599 13.6583 13.6848 13.7113 13.7378 13.7643 13.7932 13.8272 13.8612 13.8952 13.9292 13.9631 14.0255 14.0878 14.1501 14.2124 14.2744 14.3382 14.402 14.4658 14.5295 14.5929 14.6551 14.7173 14.7794 14.8416 14.919 14.9203 14.9215 14.9228 14.924 14.9253 14.9906 15.056 15.1213 15.1866 15.2517 15.3199 15.3883 15.4566 15.525 15.5931 15.6634 15.7337 15.8042 15.8747 15.945 16.0181 16.0911 16.1643 16.2376 16.3109 16.3878 16.4648 16.5419 16.6194 16.6968 16.7795 16.8623 16.9452 17.0289 17.1126 17.2037 17.2948 17.3865 17.4792 17.5722 17.6747 17.7773 17.8816 17.9869 18.0926 18.2092 18.3263 18.4472 18.568 18.6893 18.8211 18.9569 19.0947 19.2326 19.3708 19.5199 19.675 19.83 19.9852 20.1366 20.1374 20.1381 20.1389 20.1397 20.1405 20.3184 20.4967 20.6751 20.8534 21.0411 21.2824 21.5255 21.7686 22.0212 22.2851 22.6452 23.008 23.3777 23.7665 24.1577 24.6941 25.2346 25.8021 26.3701 26.941 27.679 28.4339 29.1959 29.957 30.7172 31.1604 31.5877 32.0132 32.437 32.8363
0.331611 0.337436 0.343262 0.349089 0.354915 0.360754 0.369846 0.378941 0.38797 0.396999 0.406059 0.415146 0.424236 0.433327 0.442388 0.451451 0.459277 0.467106 0.474936 0.482767 0.489349 0.490872 0.492397 0.493921 0.495446 0.496973 0.506118 0.515246 0.524377 0.533509 0.542683 0.551882 0.561085 0.570262 0.579412 0.588609 0.597573 0.60654 0.615508 0.624479 0.632171 0.632697 0.633223 0.63375 0.634276 0.634805 0.644107 0.653404 0.662703 0.672005 0.681363 0.69075 0.700141 0.709534 0.718899 0.728306 0.732411 0.736519 0.740627 0.744735 0.74862 0.754035 0.759454 0.764874 0.770294 0.775738 0.785333 0.794933 0.804508 0.814068 0.8237 0.829025 0.834352 0.83968 0.84501 0.850008 0.854457 0.858909 0.863362 0.867815 0.872287 0.882137 0.891992 0.901829 0.911649 0.921555 0.925581 0.92961 0.933639 0.937669 0.941531 0.947537 0.953546 0.959556 0.965568 0.971616 0.981769 0.991928 1.00209 1.01225 1.0225 1.02322 1.02393 1.02465 1.02537 1.02608 1.03571 1.04535 1.05499 1.06464 1.07438 1.08064 1.0869 1.09317 1.09943 1.10536 1.10974 1.11412 1.11851 1.12289 1.1273 1.13807 1.14884 1.15962 1.17041 1.18059 1.18074 1.18089 1.18104 1.18118 1.18133 1.19236 1.2034 1.21444 1.22548 1.23667 1.23987 1.24307 1.24626 1.24946 1.25259 1.26073 1.26888 1.27702 1.28518 1.29341 1.29915 1.3049 1.31065 1.3164 1.32192 1.32786 1.3338 1.33974 1.34568 1.35167 1.35923 1.36679 1.37435 1.38191 1.38911 1.3936 1.39809 1.40258 1.40707 1.41159 1.42026 1.42894 1.43762 1.4463 1.45454 1.45829 1.46204 1.46579 1.46955 1.47332 1.48244 1.49157 1.5007 1.50983 1.51849 1.5222 1.5259 1.52961 1.53331 1.53704 1.54595 1.55487 1.56379 1.57271 1.58121 1.58554 1.58988 1.59422 1.59856 1.60294 1.61098 1.61903 1.62708 1.63514 1.64287 1.64852 1.65418 1.65983 1.66549 1.67119 1.67772 1.68425 1.69078 1.69731 1.70365 1.7113 1.71895 1.72661 1.73427 1.74202 1.74636 1.75071 1.75507 1.75942 1.76369 1.77404 1.78439 1.79475 1.80511 1.81563 1.81713 1.81863 1.82014 1.82164 1.82314 1.83505 1.84697 1.85887 1.87077 1.88212 1.88416 1.8862 1.88825 1.89029 1.89235 1.90207 1.9118 1.92153 1.93126 1.94065 1.947 1.95335 1.95971 1.96607 1.97249 1.97777 1.98306 1.98835 1.99364 1.99883 2.01028 2.02173 2.03318 2.04465 2.05631 2.05641 2.05651 2.05661 2.05671 2.05681 2.06846 2.08011 2.09177 2.10343 2.11467 2.12059 2.12653 2.13246 2.13839 2.14438 2.14999 2.1556 2.16122 2.16684 2.17237 2.18398 2.19561 2.20724 2.21887 2.23009 2.23147 2.23286 2.23425 2.23564 2.23704 2.24725 2.25747 2.26769 2.27791 2.28786 2.29724 2.30662 2.316 2.32538 2.3349 2.33705 2.33921 2.34136 2.34352 2.34568 2.35738 2.36905 2.3807 2.39236 2.4037 2.41064 2.4176 2.42456 2.43151 2.43855 2.44321 2.44788 2.45255 2.45722 2.46185 2.47362 2.4854 2.49714 2.50885 2.52027 2.52594 2.5316 2.53727 2.54294 2.54866 2.55472 2.56079 2.56686 2.57293 2.57894 2.59081 2.6027 2.61456 2.62637 2.63793 2.64352 2.64913 2.65474 2.66035 2.66601 2.67226 2.67851 2.68477 2.69103 2.69722 2.70923 2.72126 2.73323 2.74517 2.75687 2.76375 2.77064 2.77753 2.78442 2.79138 2.79647 2.80156 2.80666 2.81176 2.81683 2.82899 2.84115 2.85323 2.86531 2.87718 2.88681 2.89646 2.90611 2.91576 2.92554 2.928 2.93046 2.93292 2.93539 2.93785 2.95017 2.96242 2.97467 2.98693 2.99897 3.0113 3.02364 3.03599 3.04833 3.06042 3.06223 3.06403 3.06584 3.06765 3.06946 3.08006 3.09066 3.10126 3.11187 3.12234 3.13487 3.14741 3.15995 3.17239 3.18465 3.19255 3.20047 3.20838 3.2163 3.22429 3.22891 3.23353 3.23815 3.24277 3.24737 3.26014 3.27282 3.28548 3.29814 3.31063 3.3234 3.33617 3.34895 3.36173 3.37425 3.37764 3.38104 3.38444 3.38784 3.39126 3.40069 3.41014 3.41959 3.42905 3.43843 3.45146 3.4645 3.47742 3.49033 3.50309 3.51612 3.52917 3.54222 3.55527 3.56816 3.56888 3.56962 3.57035 3.57109 3.57183 3.58429 3.59675 3.60921 3.62167 3.634 3.64736 3.66072 3.67401 3.68723 3.70032 3.71369 3.72707 3.74045 3.75384 3.76708 3.76728 3.76748 3.76769 3.76789 3.7681 3.78143 3.79478 3.80814 3.82149 3.83473 3.84846 3.86221 3.87585 3.88943 3.90289 3.91663 3.9304 3.94418 3.95795 3.97156 3.9737 3.97586 3.97802 3.98018 3.98237 3.99411 4.00586 4.01761 4.02937 4.04103 4.05517 4.06931 4.08328 4.09725 4.11111 4.12529 4.13947 4.15366 4.16784 4.18172 4.18875 4.19578 4.20282 4.20986 4.21695 4.22413 4.23134 4.23855 4.24576 4.25296 4.2675 4.28186 4.29622 4.31058 4.32483 4.33939 4.35398 4.36856 4.38295 4.39724 4.41184 4.42646 4.44107 4.45568 4.47018 4.47088 4.4716 4.47232 4.47304 4.47377 4.48778 4.50182 4.51585 4.52988 4.54383 4.55881 4.57375 4.58853 4.60331 4.61799 4.633 4.64802 4.66304 4.67796 4.69268 4.70525 4.71781 4.73038 4.74295 4.75563 4.75807 4.76053 4.76299 4.76544 4.76791 4.78316 4.79837 4.81358 4.82879 4.84393 4.85938 4.87484 4.89007 4.90531 4.92046 4.93593 4.95143 4.96693 4.98234 4.99754 5.01118 5.02483 5.03848 5.05213 5.06591 5.06776 5.06961 5.07146 5.07332 5.07517 5.09091 5.10661 5.12232 5.13802 5.15366 5.16963 5.18554 5.20128 5.21702 5.23267 5.24867 5.26468 5.2807 5.29653 5.31224 5.32829 5.34434 5.3604 5.37645 5.39235 5.39567 5.399 5.40234 5.40567 5.40903 5.42185 5.43469 5.44754 5.46038 5.4732 5.48966 5.50593 5.52218 5.53842 5.55459 5.57108 5.58759 5.60399 5.62027 5.63649 5.65303 5.66957 5.68611 5.70263 5.71886 5.73286 5.74689 5.76091 5.77493 5.78909 5.79161 5.79415 5.79669 5.79924 5.80183 5.81865 5.83544 5.85224 5.86903 5.88577 5.9028 5.91975 5.93659 5.95342 5.97023 5.9873 6.0044 6.02145 6.03831 6.05513 6.07222 6.08935 6.10649 6.12363 6.14051 6.15481 6.16914 6.18346 6.19779 6.21225 6.21507 6.21791 6.22076 6.2236 6.22648 6.24398 6.26149 6.279 6.2965 6.314 6.33173 6.34933 6.36684 6.38435 6.40183 6.41953 6.43729 6.45493 6.47244 6.48994 6.50765 6.52538 6.54312 6.56078 6.57825 6.59589 6.6136 6.6313 6.64901 6.66665 6.6703 6.67398 6.67766 6.68136 6.68507 6.69918 6.71325 6.72732 6.74139 6.75538 6.77335 6.7911 6.80884 6.82659 6.84426 6.86228 6.88026 6.89801 6.91577 6.93342 6.95141 6.96938 6.98735 7.00509 7.02274 7.04078 7.05879 7.07679 7.0948 7.11247 7.1305 7.14852 7.16654 7.18456 7.20248 7.20287 7.20325 7.20363 7.20401 7.20439 7.22199 7.23957 7.25715 7.27473 7.29223 7.31046 7.32845 7.34644 7.36443 7.38236 7.40066 7.41892 7.43697 7.45501 7.47297 7.49128 7.5096 7.52788 7.54594 7.56395 7.5823 7.60064 7.61899 7.63728 7.65531 7.67367 7.69202 7.71038 7.72874 7.74696 7.75384 7.76073 7.76762 7.7745 7.78141 7.79291 7.80442 7.81593 7.82745 7.83895 7.85752 7.87596 7.8944 7.91284 7.93124 7.94995 7.96851 7.98697 8.00542 8.02384 8.04254 8.06126 8.07979 8.09825 8.11667 8.13539 8.15412 8.17286 8.19136 8.20979 8.22852 8.24726 8.26601 8.28473 8.30319 8.32194 8.3407 8.35947 8.37823 8.39689 8.40343 8.40998 8.41654 8.4231 8.42969 8.44197 8.4543 8.46663 8.47895 8.49131 8.51037 8.52937 8.54836 8.56735 8.58634 8.60558 8.6247 8.64375 8.66281 8.68187 8.7012 8.72058 8.73974 8.75889 8.77805 8.79753 8.81706 8.83654 8.85584 8.87518 8.89486 8.91458 8.93431 8.95392 8.97349 8.99347 9.01351 9.03354 9.05357 9.07359 9.09329 9.11303 9.13278 9.15252 9.17173 9.17263 9.17353 9.17443 9.17533 9.17623 9.19748 9.21872 9.23996 9.26119 9.2829 9.3054 9.32766 9.34991 9.37214 9.39527 9.41931 9.44323 9.4669 9.49054 9.51585 9.54186 9.56781 9.5935 9.61891 9.64744 9.67521 9.70279 9.73016 9.75725 9.78915 9.81489 9.84029 9.86549 9.8905 9.91133 9.91425 9.91716 9.92002 9.92287 9.92566 9.94786 9.96977 9.99156 10.0132 10.0407 10.0745 10.1084 10.1424 10.1766 10.2077 10.2169 10.226 10.2351 10.2442 10.2539 10.2913 10.3289 10.3666 10.4044 10.4408 10.4517 10.4626 10.4734 10.4843 10.4957 10.5322 10.5688 10.6055 10.6422 10.6777 10.6985 10.7194 10.7403 10.7612 10.7844 10.8116 10.8388 10.8661 10.8934 10.9204 10.9614 11.0025 11.0436 11.0847 11.1315 11.1389 11.1464 11.1539 11.1614 11.1689 11.22 11.271 11.3221 11.3731 11.4236 11.4454 11.4673 11.4891 11.511 11.534 11.5638 11.5937 11.6235 11.6534 11.6832 11.7362 11.7893 11.8424 11.8955 11.9481 11.9568 11.9655 11.9742 11.9829 11.9918 12.037 12.0824 12.1277 12.173 12.218 12.2732 12.3285 12.3837 12.4389 12.4937 12.4984 12.5032 12.5079 12.5127 12.5175 12.569 12.6204 12.6718 12.7233 12.7744 12.8319 12.8894 12.9469 13.0043 13.0613 13.0771 13.093 13.1088 13.1246 13.1411 13.1836 13.2262 13.2688 13.3113 13.3537 13.4136 13.4735 13.5333 13.5931 13.6525 13.7062 13.7599 13.8135 13.8672 13.9305 13.9361 13.9416 13.9471 13.9527 13.9582 14.0206 14.0829 14.1453 14.2076 14.2696 14.3335 14.3973 14.4611 14.5249 14.5883 14.6537 14.719 14.7843 14.8496 14.9146 14.9585 15.0025 15.0465 15.0904 15.1463 15.1667 15.1871 15.2075 15.2279 15.2483 15.3167 15.3851 15.4535 15.5219 15.59 15.6604 15.7309 15.8014 15.8719 15.9422 16.0153 16.0884 16.1618 16.2352 16.3084 16.3854 16.4624 16.5399 16.6173 16.6948 16.7775 16.8603 16.9438 17.0274 17.1112 17.2022 17.2934 17.3858 17.4786 17.5716 17.674 17.7769 17.8822 17.9875 18.0931 18.2097 18.3284 18.4492 18.57 18.6912 18.823 18.9608 19.0986 19.2364 19.3746 19.4623 19.5534 19.6444 19.7355 19.8131 19.8788 19.9446 20.0104 20.0763 20.1444 20.3222 20.5004 20.6787 20.8572 21.0477 21.2888 21.5318 21.7748 22.0319 22.2956 22.6555 23.0181 23.3935 23.782 24.1729 24.7091 25.2548 25.8225 26.3902 26.9609 27.6987 28.4579 29.2197 29.9806 30.7408 31.1858 31.6131 32.0386 32.4624 32.8617