# vtk DataFile Version 2.0
track0
ASCII
DATASET POLYDATA
POINTS 12119 float
-0.0205 0.001 1e-05
-0.0204967 0.0011 1e-05
-0.0204932 0.00119999 1e-05
-0.0204894 0.00129998 1e-05
-0.0204855 0.00139995 1e-05
-0.0204812 0.0015 1e-05
-0.0204768 0.0016 1e-05
-0.0204721 0.00169999 1e-05
-0.0204672 0.00179996 1e-05
-0.020462 0.00189993 1e-05
-0.0204565 0.002 1e-05
-0.0204508 0.0021 1e-05
-0.0204448 0.00219998 1e-05
-0.0204386 0.00229995 1e-05
-0.0204321 0.00239991 1e-05
-0.0204254 0.0025 1e-05
-0.0204183 0.0026 1e-05
-0.0204111 0.00269998 1e-05
-0.0204035 0.00279994 1e-05
-0.0203957 0.00289988 1e-05
-0.0203876 0.003 1e-05
-0.0203793 0.0031 1e-05
-0.0203707 0.00319998 1e-05
-0.0203618 0.00329993 1e-05
-0.0203527 0.00339986 1e-05
-0.0203433 0.0035 1e-05
-0.0203336 0.0036 1e-05
-0.0203236 0.00369997 1e-05
-0.0203134 0.00379992 1e-05
-0.0203029 0.00389984 1e-05
-0.0202922 0.004 1e-05
-0.0202908 0.00401225 1e-05
-0.0202894 0.00402451 1e-05
-0.0202881 0.00403676 1e-05
-0.0202867 0.00404901 1e-05
-0.0202854 0.0040609 1e-05
-0.0202756 0.00414872 1e-05
-0.0202655 0.00423652 1e-05
-0.0202553 0.00432429 1e-05
-0.0202448 0.00441204 1e-05
-0.0202341 0.0045 1e-05
-0.0202217 0.0046 1e-05
-0.0202091 0.00469997 1e-05
-0.0201961 0.0047999 1e-05
-0.0201829 0.00489979 1e-05
-0.0201694 0.005 1e-05
-0.0201556 0.0051 1e-05
-0.0201415 0.00519996 1e-05
-0.0201272 0.00529989 1e-05
-0.0201126 0.00539977 1e-05
-0.0200977 0.0055 1e-05
-0.0200826 0.00559937 1e-05
-0.0200673 0.0056987 1e-05
-0.0200517 0.00579799 1e-05
-0.0200358 0.00589723 1e-05
-0.0200223 0.00597975 1e-05
-0.0200217 0.0059838 1e-05
-0.020021 0.00598785 1e-05
-0.0200203 0.0059919 1e-05
-0.0200196 0.00599595 1e-05
-0.020019 0.006 1e-05
-0.0200024 0.0061 1e-05
-0.0199855 0.00619995 1e-05
-0.0199684 0.00629986 1e-05
-0.019951 0.00639972 1e-05
-0.0199332 0.0065 1e-05
-0.0199152 0.0066 1e-05
-0.0198969 0.00669995 1e-05
-0.0198783 0.00679985 1e-05
-0.0198594 0.00689969 1e-05
-0.0198402 0.007 1e-05
-0.0198244 0.00708094 1e-05
-0.0198085 0.00716185 1e-05
-0.0197923 0.00724272 1e-05
-0.019776 0.00732355 1e-05
-0.0197614 0.00739526 1e-05
-0.019757 0.0074162 1e-05
-0.0197527 0.00743715 1e-05
-0.0197484 0.00745809 1e-05
-0.019744 0.00747904 1e-05
-0.0197396 0.0075 1e-05
-0.0197187 0.0076 1e-05
-0.0196974 0.00769994 1e-05
-0.0196759 0.00779982 1e-05
-0.0196541 0.00789963 1e-05
-0.0196318 0.008 1e-05
-0.0196094 0.0081 1e-05
-0.0195866 0.00819993 1e-05
-0.0195636 0.0082998 1e-05
-0.0195403 0.0083996 1e-05
-0.0195165 0.0085 1e-05
-0.0195137 0.00851165 1e-05
-0.0195109 0.0085233 1e-05
-0.0195081 0.00853495 1e-05
-0.0195053 0.0085466 1e-05
-0.0195025 0.00855809 1e-05
-0.0194811 0.00864647 1e-05
-0.0194596 0.0087348 1e-05
-0.0194377 0.00882307 1e-05
-0.0194157 0.00891128 1e-05
-0.0193933 0.009 1e-05
-0.0193677 0.0091 1e-05
-0.0193418 0.00919992 1e-05
-0.0193157 0.00929977 1e-05
-0.0192892 0.00939954 1e-05
-0.0192623 0.0095 1e-05
-0.019259 0.00951219 1e-05
-0.0192557 0.00952438 1e-05
-0.0192523 0.00953657 1e-05
-0.019249 0.00954876 1e-05
-0.0192457 0.00956078 1e-05
-0.0192217 0.00964862 1e-05
-0.0191975 0.0097364 1e-05
-0.019173 0.00982412 1e-05
-0.0191483 0.00991177 1e-05
-0.0191231 0.01 1e-05
-0.0190967 0.0100918 1e-05
-0.01907 0.0101835 1e-05
-0.0190431 0.0102751 1e-05
-0.0190159 0.0103667 1e-05
-0.018991 0.0104496 1e-05
-0.018988 0.0104597 1e-05
-0.0189849 0.0104697 1e-05
-0.0189819 0.0104798 1e-05
-0.0189788 0.0104899 1e-05
-0.0189757 0.0105 1e-05
-0.0189453 0.0106 1e-05
-0.0189145 0.0106999 1e-05
-0.0188835 0.0107997 1e-05
-0.0188521 0.0108994 1e-05
-0.0188201 0.011 1e-05
-0.0188038 0.0110508 1e-05
-0.0187873 0.0111016 1e-05
-0.0187708 0.0111524 1e-05
-0.0187542 0.0112032 1e-05
-0.0187384 0.0112514 1e-05
-0.018722 0.0113011 1e-05
-0.0187055 0.0113508 1e-05
-0.0186889 0.0114005 1e-05
-0.0186723 0.0114501 1e-05
-0.0186554 0.0115 1e-05
-0.0186219 0.0115989 1e-05
-0.0185881 0.0116977 1e-05
-0.0185539 0.0117964 1e-05
-0.0185194 0.011895 1e-05
-0.0184878 0.0119847 1e-05
-0.0184867 0.0119878 1e-05
-0.0184856 0.0119908 1e-05
-0.0184845 0.0119939 1e-05
-0.0184834 0.0119969 1e-05
-0.0184823 0.012 1e-05
-0.0184466 0.0121 1e-05
-0.0184106 0.0121999 1e-05
-0.0183743 0.0122997 1e-05
-0.0183376 0.0123993 1e-05
-0.0183002 0.0125 1e-05
-0.018288 0.0125325 1e-05
-0.0182758 0.0125651 1e-05
-0.0182635 0.0125976 1e-05
-0.0182512 0.0126301 1e-05
-0.0182392 0.0126617 1e-05
-0.0182134 0.0127294 1e-05
-0.0181874 0.012797 1e-05
-0.0181613 0.0128645 1e-05
-0.0181351 0.012932 1e-05
-0.0181085 0.013 1e-05
-0.0180853 0.0130588 1e-05
-0.018062 0.0131176 1e-05
-0.0180386 0.0131763 1e-05
-0.0180151 0.013235 1e-05
-0.0179926 0.0132908 1e-05
-0.0179756 0.0133326 1e-05
-0.0179586 0.0133745 1e-05
-0.0179416 0.0134163 1e-05
-0.0179244 0.013458 1e-05
-0.0179071 0.0135 1e-05
-0.0178753 0.013577 1e-05
-0.0178433 0.0136539 1e-05
-0.017811 0.0137308 1e-05
-0.0177786 0.0138075 1e-05
-0.017748 0.0138795 1e-05
-0.0177377 0.0139036 1e-05
-0.0177273 0.0139277 1e-05
-0.017717 0.0139518 1e-05
-0.0177066 0.0139759 1e-05
-0.0176961 0.014 1e-05
-0.017658 0.0140881 1e-05
-0.0176196 0.014176 1e-05
-0.0175809 0.0142639 1e-05
-0.0175419 0.0143516 1e-05
-0.0175053 0.0144334 1e-05
-0.0174993 0.0144467 1e-05
-0.0174933 0.01446 1e-05
-0.0174873 0.0144733 1e-05
-0.0174813 0.0144867 1e-05
-0.0174752 0.0145 1e-05
-0.0174331 0.0145928 1e-05
-0.0173907 0.0146855 1e-05
-0.017348 0.0147781 1e-05
-0.017305 0.0148705 1e-05
-0.0172647 0.0149565 1e-05
-0.0172606 0.0149652 1e-05
-0.0172564 0.0149739 1e-05
-0.0172523 0.0149826 1e-05
-0.0172482 0.0149913 1e-05
-0.0172441 0.015 1e-05
-0.0172004 0.0150919 1e-05
-0.0171565 0.0151837 1e-05
-0.0171123 0.0152754 1e-05
-0.0170678 0.0153669 1e-05
-0.0170259 0.0154522 1e-05
-0.0170212 0.0154618 1e-05
-0.0170165 0.0154713 1e-05
-0.0170117 0.0154809 1e-05
-0.017007 0.0154904 1e-05
-0.0170023 0.0155 1e-05
-0.0169596 0.0155859 1e-05
-0.0169167 0.0156717 1e-05
-0.0168736 0.0157574 1e-05
-0.0168302 0.0158429 1e-05
-0.0167891 0.0159232 1e-05
-0.0167812 0.0159386 1e-05
-0.0167733 0.0159539 1e-05
-0.0167654 0.0159693 1e-05
-0.0167574 0.0159846 1e-05
-0.0167495 0.016 1e-05
-0.0167104 0.0160753 1e-05
-0.0166711 0.0161505 1e-05
-0.0166317 0.0162257 1e-05
-0.016592 0.0163007 1e-05
-0.0165542 0.0163718 1e-05
-0.0165405 0.0163974 1e-05
-0.0165267 0.016423 1e-05
-0.0165129 0.0164487 1e-05
-0.0164991 0.0164743 1e-05
-0.0164852 0.0165 1e-05
-0.0164524 0.0165606 1e-05
-0.0164195 0.0166212 1e-05
-0.0163864 0.0166816 1e-05
-0.0163532 0.016742 1e-05
-0.0163212 0.0167999 1e-05
-0.0162989 0.01684 1e-05
-0.0162767 0.0168799 1e-05
-0.0162543 0.0169199 1e-05
-0.0162319 0.0169598 1e-05
-0.0162093 0.017 1e-05
-0.0161854 0.0170422 1e-05
-0.0161615 0.0170844 1e-05
-0.0161375 0.0171266 1e-05
-0.0161135 0.0171687 1e-05
-0.01609 0.0172096 1e-05
-0.0160566 0.0172677 1e-05
-0.0160231 0.0173257 1e-05
-0.0159895 0.0173836 1e-05
-0.0159557 0.0174415 1e-05
-0.0159214 0.0175 1e-05
-0.0159093 0.0175206 1e-05
-0.0158971 0.0175412 1e-05
-0.015885 0.0175617 1e-05
-0.0158728 0.0175823 1e-05
-0.0158607 0.0176026 1e-05
-0.0158153 0.0176791 1e-05
-0.0157696 0.0177555 1e-05
-0.0157236 0.0178318 1e-05
-0.0156775 0.017908 1e-05
-0.0156333 0.0179805 1e-05
-0.0156309 0.0179844 1e-05
-0.0156285 0.0179883 1e-05
-0.0156261 0.0179922 1e-05
-0.0156237 0.0179961 1e-05
-0.0156213 0.018 1e-05
-0.0155786 0.0180696 1e-05
-0.0155357 0.018139 1e-05
-0.0154926 0.0182083 1e-05
-0.0154494 0.0182776 1e-05
-0.0154077 0.0183438 1e-05
-0.015388 0.0183751 1e-05
-0.0153682 0.0184063 1e-05
-0.0153484 0.0184375 1e-05
-0.0153286 0.0184686 1e-05
-0.0153085 0.0185 1e-05
-0.0152836 0.0185389 1e-05
-0.0152586 0.0185778 1e-05
-0.0152336 0.0186167 1e-05
-0.0152085 0.0186555 1e-05
-0.0151839 0.0186935 1e-05
-0.0151441 0.0187548 1e-05
-0.0151041 0.018816 1e-05
-0.0150639 0.0188771 1e-05
-0.0150236 0.0189381 1e-05
-0.0149826 0.019 1e-05
-0.0149785 0.0190062 1e-05
-0.0149744 0.0190124 1e-05
-0.0149702 0.0190186 1e-05
-0.0149661 0.0190248 1e-05
-0.0149619 0.019031 1e-05
-0.0149179 0.0190969 1e-05
-0.0148737 0.0191627 1e-05
-0.0148293 0.0192284 1e-05
-0.0147848 0.019294 1e-05
-0.0147417 0.0193571 1e-05
-0.0147221 0.0193857 1e-05
-0.0147025 0.0194142 1e-05
-0.0146828 0.0194428 1e-05
-0.0146631 0.0194713 1e-05
-0.0146433 0.0195 1e-05
-0.0146193 0.0195346 1e-05
-0.0145952 0.0195691 1e-05
-0.0145712 0.0196036 1e-05
-0.014547 0.0196381 1e-05
-0.0145233 0.0196719 1e-05
-0.01448 0.0197335 1e-05
-0.0144365 0.019795 1e-05
-0.0143929 0.0198564 1e-05
-0.0143491 0.0199177 1e-05
-0.0143067 0.019977 1e-05
-0.0143033 0.0199816 1e-05
-0.0143 0.0199862 1e-05
-0.0142967 0.0199908 1e-05
-0.0142934 0.0199954 1e-05
-0.0142901 0.02 1e-05
-0.0142504 0.0200549 1e-05
-0.0142106 0.0201098 1e-05
-0.0141707 0.0201646 1e-05
-0.0141307 0.0202193 1e-05
-0.0140917 0.0202723 1e-05
-0.0140582 0.0203179 1e-05
-0.0140245 0.0203633 1e-05
-0.0139908 0.0204088 1e-05
-0.0139569 0.0204541 1e-05
-0.0139226 0.0205 1e-05
-0.0139138 0.0205117 1e-05
-0.013905 0.0205235 1e-05
-0.0138962 0.0205352 1e-05
-0.0138873 0.0205469 1e-05
-0.0138786 0.0205586 1e-05
-0.0138363 0.0206146 1e-05
-0.0137939 0.0206706 1e-05
-0.0137513 0.0207265 1e-05
-0.0137087 0.0207823 1e-05
-0.0136671 0.0208365 1e-05
-0.0136419 0.0208692 1e-05
-0.0136166 0.0209018 1e-05
-0.0135913 0.0209345 1e-05
-0.013566 0.0209671 1e-05
-0.0135404 0.021 1e-05
-0.0135238 0.0210213 1e-05
-0.0135071 0.0210425 1e-05
-0.0134905 0.0210638 1e-05
-0.0134738 0.021085 1e-05
-0.0134573 0.021106 1e-05
-0.0134157 0.0211589 1e-05
-0.013374 0.0212117 1e-05
-0.0133322 0.0212644 1e-05
-0.0132902 0.021317 1e-05
-0.0132493 0.0213682 1e-05
-0.0132281 0.0213946 1e-05
-0.0132069 0.0214209 1e-05
-0.0131857 0.0214472 1e-05
-0.0131644 0.0214735 1e-05
-0.013143 0.0215 1e-05
-0.013123 0.0215247 1e-05
-0.0131029 0.0215494 1e-05
-0.0130828 0.021574 1e-05
-0.0130627 0.0215986 1e-05
-0.0130429 0.021623 1e-05
-0.0130019 0.021673 1e-05
-0.0129609 0.0217229 1e-05
-0.0129197 0.0217727 1e-05
-0.0128785 0.0218225 1e-05
-0.0128381 0.021871 1e-05
-0.0128166 0.0218968 1e-05
-0.012795 0.0219226 1e-05
-0.0127735 0.0219483 1e-05
[...]
POINT_DATA 12119
 FIELD attributes 1
U 3 12119 float
-0.0103877 	-0.31533 	0 -0.0110897 	-0.314822 	0 -0.0117909 	-0.31432 	0 -0.0124919 	-0.313817 	0 -0.0131928 	-0.313312 	0 -0.0138976 	-0.312825 	0 -0.0146846 	-0.312742 	0 -0.0154705 	-0.312659 	0 -0.0162548 	-0.312575 	0 -0.0170391 	-0.312489 	0 -0.0178254 	-0.312403 	0 -0.0186385 	-0.312342 	0 -0.0194519 	-0.312279 	0 -0.0202622 	-0.312214 	0 -0.0210725 	-0.312147 	0 -0.0218843 	-0.312077 	0 -0.0227067 	-0.311994 	0 -0.0235291 	-0.311909 	0 -0.0243508 	-0.311822 	0 -0.0251702 	-0.311733 	0 -0.0259914 	-0.311641 	0 -0.0268178 	-0.311547 	0 -0.0276442 	-0.311452 	0 -0.0284704 	-0.311354 	0 -0.0292957 	-0.311255 	0 -0.0301212 	-0.311153 	0 -0.0309502 	-0.311046 	0 -0.0317792 	-0.310937 	0 -0.0326081 	-0.310827 	0 -0.0334369 	-0.310714 	0 -0.0342675 	-0.3106 	0 -0.0343693 	-0.310585 	0 -0.0344712 	-0.310571 	0 -0.0345731 	-0.310556 	0 -0.0346751 	-0.310541 	0 -0.034774 	-0.310526 	0 -0.0355048 	-0.310419 	0 -0.0362356 	-0.31031 	0 -0.0369663 	-0.3102 	0 -0.0376969 	-0.310089 	0 -0.0384293 	-0.309976 	0 -0.0392667 	-0.309842 	0 -0.0401023 	-0.309705 	0 -0.0409371 	-0.309567 	0 -0.0417717 	-0.309426 	0 -0.0426091 	-0.309284 	0 -0.0434498 	-0.309137 	0 -0.0442904 	-0.308987 	0 -0.0451308 	-0.308837 	0 -0.0459687 	-0.308683 	0 -0.0468098 	-0.308527 	0 -0.047649 	-0.308367 	0 -0.0484881 	-0.308205 	0 -0.049327 	-0.308042 	0 -0.0501656 	-0.307877 	0 -0.0508632 	-0.307739 	0 -0.0508974 	-0.307732 	0 -0.0509316 	-0.307725 	0 -0.0509658 	-0.307718 	0 -0.0510001 	-0.307711 	0 -0.0510345 	-0.307704 	0 -0.0518841 	-0.30753 	0 -0.0527334 	-0.307354 	0 -0.0535826 	-0.307177 	0 -0.0544315 	-0.306997 	0 -0.0552844 	-0.306815 	0 -0.0561408 	-0.30663 	0 -0.0569971 	-0.306442 	0 -0.0578524 	-0.306253 	0 -0.0587062 	-0.30606 	0 -0.0595643 	-0.305865 	0 -0.0602619 	-0.305705 	0 -0.0609594 	-0.305543 	0 -0.0616567 	-0.30538 	0 -0.0623539 	-0.305216 	0 -0.0629726 	-0.305069 	0 -0.0631534 	-0.305026 	0 -0.0633343 	-0.304983 	0 -0.0635152 	-0.304939 	0 -0.063696 	-0.304896 	0 -0.0638772 	-0.304853 	0 -0.064747 	-0.304642 	0 -0.0656154 	-0.304429 	0 -0.0664834 	-0.304214 	0 -0.0673511 	-0.303997 	0 -0.068224 	-0.303778 	0 -0.0691008 	-0.303555 	0 -0.0699773 	-0.30333 	0 -0.0708535 	-0.303104 	0 -0.0717294 	-0.302876 	0 -0.07261 	-0.302644 	0 -0.0727128 	-0.302617 	0 -0.0728158 	-0.30259 	0 -0.0729187 	-0.302562 	0 -0.0730217 	-0.302534 	0 -0.0731233 	-0.302507 	0 -0.073905 	-0.302298 	0 -0.0746866 	-0.302088 	0 -0.075468 	-0.301876 	0 -0.076249 	-0.301663 	0 -0.077035 	-0.301447 	0 -0.0779283 	-0.3012 	0 -0.0788214 	-0.300952 	0 -0.079714 	-0.300701 	0 -0.0806063 	-0.300449 	0 -0.0815041 	-0.300193 	0 -0.0816138 	-0.300161 	0 -0.0817237 	-0.300129 	0 -0.0818335 	-0.300098 	0 -0.0819434 	-0.300066 	0 -0.0820519 	-0.300035 	0 -0.0828443 	-0.299806 	0 -0.0836365 	-0.299575 	0 -0.0844284 	-0.299344 	0 -0.08522 	-0.299111 	0 -0.0860172 	-0.298875 	0 -0.0868537 	-0.298626 	0 -0.08769 	-0.298376 	0 -0.0885258 	-0.298125 	0 -0.0893612 	-0.297872 	0 -0.0901181 	-0.297641 	0 -0.0902101 	-0.297613 	0 -0.0903023 	-0.297585 	0 -0.0903945 	-0.297557 	0 -0.0904867 	-0.297528 	0 -0.0905791 	-0.2975 	0 -0.0915009 	-0.297218 	0 -0.0924214 	-0.296933 	0 -0.0933413 	-0.296646 	0 -0.0942608 	-0.296357 	0 -0.0951888 	-0.296064 	0 -0.0956619 	-0.295915 	0 -0.096135 	-0.295764 	0 -0.096608 	-0.295614 	0 -0.0970808 	-0.295462 	0 -0.0975307 	-0.295318 	0 -0.0979944 	-0.295169 	0 -0.0984581 	-0.29502 	0 -0.0989217 	-0.29487 	0 -0.0993852 	-0.29472 	0 -0.099851 	-0.294569 	0 -0.100783 	-0.294266 	0 -0.101715 	-0.293962 	0 -0.102646 	-0.293656 	0 -0.103576 	-0.293348 	0 -0.104423 	-0.293067 	0 -0.104452 	-0.293057 	0 -0.104481 	-0.293047 	0 -0.10451 	-0.293038 	0 -0.104539 	-0.293028 	0 -0.104568 	-0.293018 	0 -0.105521 	-0.292701 	0 -0.106473 	-0.292381 	0 -0.107425 	-0.29206 	0 -0.108376 	-0.291736 	0 -0.109337 	-0.291408 	0 -0.109651 	-0.2913 	0 -0.109965 	-0.291193 	0 -0.110278 	-0.291085 	0 -0.110592 	-0.290978 	0 -0.110897 	-0.290873 	0 -0.11155 	-0.290648 	0 -0.112203 	-0.290422 	0 -0.112856 	-0.290196 	0 -0.113508 	-0.289969 	0 -0.114166 	-0.289739 	0 -0.11474 	-0.289538 	0 -0.115314 	-0.289338 	0 -0.115887 	-0.289136 	0 -0.11646 	-0.288934 	0 -0.117006 	-0.288742 	0 -0.117415 	-0.288597 	0 -0.117824 	-0.288452 	0 -0.118233 	-0.288307 	0 -0.118642 	-0.288161 	0 -0.119053 	-0.288015 	0 -0.119814 	-0.287744 	0 -0.120575 	-0.287473 	0 -0.121335 	-0.287201 	0 -0.122095 	-0.286927 	0 -0.122808 	-0.28667 	0 -0.123046 	-0.286583 	0 -0.123285 	-0.286497 	0 -0.123524 	-0.28641 	0 -0.123763 	-0.286324 	0 -0.124002 	-0.286236 	0 -0.124884 	-0.285918 	0 -0.125765 	-0.285598 	0 -0.126645 	-0.285277 	0 -0.127525 	-0.284954 	0 -0.128344 	-0.284652 	0 -0.128478 	-0.284602 	0 -0.128612 	-0.284553 	0 -0.128746 	-0.284503 	0 -0.12888 	-0.284454 	0 -0.129014 	-0.284404 	0 -0.129955 	-0.284059 	0 -0.130895 	-0.283712 	0 -0.131834 	-0.283363 	0 -0.132773 	-0.283013 	0 -0.133646 	-0.282686 	0 -0.133735 	-0.282653 	0 -0.133823 	-0.28262 	0 -0.133912 	-0.282586 	0 -0.134 	-0.282553 	0 -0.134089 	-0.28252 	0 -0.135033 	-0.282168 	0 -0.135976 	-0.281815 	0 -0.136918 	-0.281461 	0 -0.137859 	-0.281105 	0 -0.138737 	-0.280771 	0 -0.138836 	-0.280734 	0 -0.138934 	-0.280696 	0 -0.139033 	-0.280659 	0 -0.139131 	-0.280621 	0 -0.13923 	-0.280584 	0 -0.140123 	-0.280246 	0 -0.141016 	-0.279908 	0 -0.141908 	-0.279568 	0 -0.142799 	-0.279227 	0 -0.143636 	-0.278904 	0 -0.143796 	-0.278843 	0 -0.143956 	-0.278781 	0 -0.144117 	-0.278719 	0 -0.144277 	-0.278658 	0 -0.144438 	-0.278596 	0 -0.145231 	-0.278292 	0 -0.146024 	-0.277987 	0 -0.146816 	-0.277682 	0 -0.147607 	-0.277375 	0 -0.148358 	-0.277083 	0 -0.148629 	-0.276978 	0 -0.1489 	-0.276873 	0 -0.14917 	-0.276767 	0 -0.149441 	-0.276661 	0 -0.149713 	-0.276555 	0 -0.150359 	-0.276305 	0 -0.151005 	-0.276054 	0 -0.151651 	-0.275803 	0 -0.152296 	-0.275551 	0 -0.152916 	-0.275308 	0 -0.153343 	-0.275141 	0 -0.153771 	-0.274973 	0 -0.154198 	-0.274805 	0 -0.154625 	-0.274637 	0 -0.155055 	-0.274467 	0 -0.155512 	-0.274289 	0 -0.155968 	-0.274111 	0 -0.156424 	-0.273932 	0 -0.156879 	-0.273753 	0 -0.157322 	-0.273579 	0 -0.15795 	-0.273332 	0 -0.158578 	-0.273085 	0 -0.159206 	-0.272837 	0 -0.159832 	-0.272589 	0 -0.160466 	-0.272337 	0 -0.160691 	-0.272248 	0 -0.160917 	-0.27216 	0 -0.161142 	-0.272071 	0 -0.161367 	-0.271983 	0 -0.16159 	-0.271895 	0 -0.162428 	-0.271566 	0 -0.163265 	-0.271236 	0 -0.164101 	-0.270905 	0 -0.164937 	-0.270573 	0 -0.165732 	-0.270255 	0 -0.165775 	-0.270237 	0 -0.165818 	-0.27022 	0 -0.16586 	-0.270203 	0 -0.165903 	-0.270186 	0 -0.165946 	-0.270169 	0 -0.166717 	-0.269865 	0 -0.167487 	-0.269561 	0 -0.168255 	-0.269255 	0 -0.169023 	-0.268949 	0 -0.169759 	-0.268655 	0 -0.170106 	-0.268516 	0 -0.170452 	-0.268378 	0 -0.170798 	-0.268239 	0 -0.171144 	-0.2681 	0 -0.171492 	-0.26796 	0 -0.171929 	-0.267787 	0 -0.172366 	-0.267615 	0 -0.172803 	-0.267442 	0 -0.173239 	-0.267268 	0 -0.173666 	-0.267099 	0 -0.174354 	-0.266826 	0 -0.175041 	-0.266553 	0 -0.175728 	-0.266279 	0 -0.176414 	-0.266004 	0 -0.17711 	-0.265725 	0 -0.17718 	-0.265697 	0 -0.177251 	-0.265669 	0 -0.177322 	-0.265642 	0 -0.177392 	-0.265614 	0 -0.177463 	-0.265586 	0 -0.178212 	-0.265293 	0 -0.17896 	-0.264997 	0 -0.179707 	-0.2647 	0 -0.180453 	-0.264403 	0 -0.181171 	-0.264115 	0 -0.181496 	-0.263986 	0 -0.18182 	-0.263856 	0 -0.182145 	-0.263727 	0 -0.182469 	-0.263597 	0 -0.182796 	-0.263466 	0 -0.183194 	-0.26331 	0 -0.183592 	-0.263153 	0 -0.18399 	-0.262997 	0 -0.184387 	-0.26284 	0 -0.184778 	-0.262686 	0 -0.185487 	-0.262407 	0 -0.186195 	-0.262129 	0 -0.186903 	-0.261849 	0 -0.18761 	-0.261569 	0 -0.188293 	-0.261295 	0 -0.188346 	-0.261274 	0 -0.188399 	-0.261253 	0 -0.188452 	-0.261232 	0 -0.188505 	-0.26121 	0 -0.188558 	-0.261189 	0 -0.189199 	-0.260939 	0 -0.189839 	-0.260687 	0 -0.190478 	-0.260436 	0 -0.191116 	-0.260183 	0 -0.191736 	-0.259938 	0 -0.192266 	-0.259729 	0 -0.192797 	-0.259519 	0 -0.193327 	-0.25931 	0 -0.193856 	-0.259099 	0 -0.194392 	-0.258886 	0 -0.19453 	-0.258832 	0 -0.194669 	-0.258778 	0 -0.194807 	-0.258724 	0 -0.194946 	-0.25867 	0 -0.195085 	-0.258616 	0 -0.195747 	-0.258361 	0 -0.196408 	-0.258103 	0 -0.197068 	-0.257843 	0 -0.197727 	-0.257582 	0 -0.198368 	-0.257328 	0 -0.198753 	-0.257177 	0 -0.199138 	-0.257025 	0 -0.199523 	-0.256873 	0 -0.199908 	-0.256721 	0 -0.200297 	-0.256567 	0 -0.200552 	-0.256468 	0 -0.200807 	-0.25637 	0 -0.201061 	-0.256271 	0 -0.201316 	-0.256172 	0 -0.201568 	-0.256075 	0 -0.2022 	-0.255832 	0 -0.202832 	-0.255589 	0 -0.203462 	-0.255343 	0 -0.204091 	-0.255095 	0 -0.204704 	-0.254854 	0 -0.205018 	-0.254731 	0 -0.205332 	-0.254608 	0 -0.205646 	-0.254485 	0 -0.20596 	-0.254361 	0 -0.206276 	-0.254237 	0 -0.206575 	-0.254122 	0 -0.206874 	-0.254006 	0 -0.207173 	-0.253891 	0 -0.207472 	-0.253775 	0 -0.207768 	-0.253661 	0 -0.208373 	-0.253429 	0 -0.208978 	-0.253197 	0 -0.209581 	-0.252962 	0 -0.210183 	-0.252725 	0 -0.210771 	-0.252493 	0 -0.211082 	-0.252372 	0 -0.211393 	-0.25225 	0 -0.211705 	-0.252128 	0 -0.212015 	-0.252007 	0 -0.212329 	-0.251884 	0 -0.212606 	-0.251776 	0 -0.212882 	-0.251669 	0 -0.213158 	-0.251561 	0 -0.213434 	-0.251454 	0 -0.213707 	-0.251347 	0 -0.214287 	-0.251123 	0 -0.214866 	-0.250898 	0 -0.215444 	-0.25067 	0 -0.216021 	-0.250441 	0 -0.216585 	-0.250216 	0 -0.216957 	-0.250069 	0 -0.217329 	-0.249922 	0 -0.2177 	-0.249775 	0 -0.218071 	-0.249628 	0 -0.218446 	-0.249479 	0 -0.218635 	-0.249404 	0 -0.218825 	-0.24933 	0 -0.219015 	-0.249255 	0 -0.219205 	-0.249181 	0 -0.219394 	-0.249107 	0 -0.219949 	-0.248891 	0 -0.220503 	-0.248672 	0 -0.221056 	-0.248452 	0 -0.221608 	-0.248231 	0 -0.222149 	-0.248014 	0 -0.222639 	-0.247818 	0 -0.22313 	-0.247623 	0 -0.223619 	-0.247427 	0 -0.224108 	-0.24723 	0 -0.224604 	-0.247031 	0 -0.224649 	-0.247013 	0 -0.224694 	-0.246995 	0 -0.22474 	-0.246978 	0 -0.224785 	-0.24696 	0 -0.224831 	-0.246942 	0 -0.225363 	-0.246733 	0 -0.225893 	-0.246523 	0 -0.226423 	-0.246313 	0 -0.226953 	-0.246102 	0 -0.227472 	-0.245894 	0 -0.227989 	-0.245689 	0 -0.228505 	-0.245484 	0 -0.22902 	-0.245278 	0 -0.229535 	-0.245072 	0 -0.230041 	-0.244865 	0 -0.230191 	-0.244804 	0 -0.230341 	-0.244743 	0 -0.230491 	-0.244682 	0 -0.230641 	-0.244621 	0 -0.230791 	-0.244559 	0 -0.231146 	-0.244419 	0 -0.231501 	-0.244278 	0 -0.231856 	-0.244137 	0 -0.232211 	-0.243997 	0 -0.232562 	-0.243857 	0 -0.233057 	-0.243662 	0 -0.233552 	-0.243466 	0 -0.234046 	-0.243267 	0 -0.234539 	-0.243067 	0 -0.235025 	-0.242869 	0 -0.235419 	-0.242709 	0 -0.235812 	-0.242549 	0 -0.236206 	-0.24239 	0 -0.236598 	-0.242229 	0 -0.236996 	-0.242068 	0 -0.237082 	-0.242034 	0 -0.237168 	-0.241999 	0 -0.237254 	-0.241965 	0 -0.23734 	-0.241931 	0 -0.237426 	-0.241897 	0 -0.237901 	-0.241709 	0 -0.238377 	-0.241518 	0 -0.238852 	-0.241326 	0 -0.239326 	-0.241134 	0 -0.239793 	-0.240945 	0 -0.240255 	-0.240759 	0 -0.240717 	-0.240573 	0 -0.241179 	-0.240387 	0 -0.24164 	-0.240198 	0 -0.242094 	-0.240009 	0 -0.242316 	-0.239917 	0 -0.242538 	-0.239826 	0 -0.242759 	-0.239734 	0 -0.242981 	-0.239642 	0 -0.243205 	-0.23955 	0 -0.243433 	-0.239458 	0 -0.243663 	-0.239367 	0 -0.243892 	-0.239275 	0 -0.244121 	-0.239184 	0 -0.244349 	-0.239093 	0 -0.244794 	-0.238917 	0 -0.245238 	-0.238739 	0 -0.245682 	-0.238558 	0 -0.246125 	-0.238377 	0 -0.246563 	-0.238198 	0 -0.246995 	-0.238023 	0 -0.247427 	-0.237847 	0 -0.247858 	-0.237672 	0 -0.248289 	-0.237496 	0 -0.248714 	-0.237318 	0 -0.248852 	-0.23726 	0 -0.24899 	-0.237203 	0 -0.249127 	-0.237146 	0 -0.249265 	-0.237088 	0 -0.249404 	-0.237031 	0 -0.249691 	-0.236917 	0 -0.249978 	-0.236804 	0 -0.250264 	-0.23669 	0 -0.250551 	-0.236577 	0 -0.250835 	-0.236464 	0 -0.251252 	-0.236301 	0 -0.251669 	-0.236137 	0 -0.252086 	-0.235968 	0 -0.252502 	-0.235798 	0 -0.252913 	-0.235631 	0 -0.253319 	-0.235468 	0 -0.253724 	-0.235306 	0 -0.254129 	-0.235143 	0 -0.254533 	-0.23498 	0 -0.254933 	-0.234814 	0 -0.255064 	-0.234759 	0 -0.255196 	-0.234705 	0 -0.255328 	-0.234651 	0 -0.25546 	-0.234597 	0 -0.255592 	-0.234542 	0 -0.25586 	-0.234436 	0 -0.256128 	-0.234329 	0 -0.256395 	-0.234222 	0 -0.256663 	-0.234115 	0 -0.256929 	-0.234008 	0 -0.257322 	-0.233854 	0 -0.257715 	-0.233697 	0 -0.258108 	-0.233536 	0 -0.2585 	-0.233375 	0 -0.258888 	-0.233216 	0 -0.25927 	-0.233062 	0 -0.259652 	-0.232907 	0 -0.260034 	-0.232752 	0 -0.260416 	-0.232597 	0 -0.260794 	-0.232437 	0 -0.260988 	-0.232356 	0 -0.261184 	-0.232274 	0 -0.261379 	-0.232193 	0 -0.261574 	-0.232112 	0 -0.261771 	-0.23203 	0 -0.26195 	-0.231956 	0 -0.262129 	-0.231881 	0 -0.262309 	-0.231806 	0 -0.262488 	-0.231731 	0 -0.262666 	-0.231656 	0 -0.263036 	-0.231503 	0 -0.263407 	-0.231345 	0 -0.263776 	-0.231186 	0 -0.264146 	-0.231027 	0 -0.264511 	-0.230869 	0 -0.264871 	-0.230715 	0 -0.265231 	-0.230561 	0 -0.265591 	-0.230406 	0 -0.26595 	-0.230247 	0 -0.266305 	-0.230088 	0 -0.266626 	-0.229946 	0 -0.266946 	-0.229804 	0 -0.267266 	-0.229661 	0 -0.267586 	-0.229519 	0 -0.267909 	-0.229374 	0 -0.267937 	-0.229361 	0 -0.267966 	-0.229348 	0 -0.267994 	-0.229336 	0 -0.268022 	-0.229323 	0 -0.268051 	-0.229311 	0 -0.268397 	-0.229154 	0 -0.268742 	-0.228997 	0 -0.269087 	-0.22884 	0 -0.269431 	-0.228682 	0 -0.269772 	-0.228526 	0 -0.270107 	-0.228372 	0 -0.270441 	-0.228217 	0 -0.270776 	-0.228059 	0 -0.27111 	-0.2279 	0 -0.271442 	-0.227743 	0 -0.271766 	-0.227586 	0 -0.27209 	-0.22743 	0 -0.272414 	-0.227274 	0 -0.272737 	-0.227118 	0 -0.273059 	-0.226959 	0 -0.273226 	-0.226874 	0 -0.273394 	-0.22679 	0 -0.273561 	-0.226706 	0 -0.273729 	-0.226622 	0 -0.273897 	-0.226537 	0 -0.274045 	-0.226466 	0 -0.274194 	-0.226396 	0 -0.274343 	-0.226325 	0 -0.274491 	-0.226254 	0 -0.27464 	-0.226184 	0 -0.27495 	-0.226035 	0 -0.275261 	-0.225883 	0 -0.275571 	-0.22573 	0 -0.275881 	-0.225576 	0 -0.27619 	-0.225425 	0 -0.276489 	-0.225275 	0 -0.276789 	-0.225126 	0 -0.277089 	-0.224975 	0 -0.27739 	-0.22482 	0 -0.277689 	-0.224667 	0 -0.277979 	-0.224516 	0 -0.27827 	-0.224366 	0 -0.27856 	-0.224215 	0 -0.27885 	-0.224064 	0 -0.279139 	-0.223912 	0 -0.279248 	-0.223852 	0 -0.279357 	-0.223793 	0 -0.279467 	-0.223734 	0 -0.279576 	-0.223675 	0 -0.279687 	-0.223616 	0 -0.279863 	-0.223527 	0 -0.28004 	-0.223437 	0 -0.280217 	-0.223347 	0 -0.280394 	-0.223257 	0 -0.280571 	-0.223167 	0 -0.280852 	-0.223025 	0 -0.281134 	-0.222877 	0 -0.281416 	-0.222729 	0 -0.281698 	-0.22258 	0 -0.281978 	-0.222433 	0 -0.282251 	-0.222289 	0 -0.282524 	-0.222145 	0 -0.282798 	-0.221999 	0 -0.283072 	-0.22185 	0 -0.283345 	-0.2217 	0 -0.283611 	-0.221555 	0 -0.283877 	-0.22141 	0 -0.284142 	-0.221265 	0 -0.284408 	-0.22112 	0 -0.284673 	-0.22097 	0 -0.284803 	-0.220897 	0 -0.284934 	-0.220823 	0 -0.285065 	-0.220749 	0 -0.285196 	-0.220675 	0 -0.285329 	-0.2206 	0 -0.285458 	-0.220528 	0 -0.285589 	-0.220455 	0 -0.285719 	-0.220383 	0 -0.285849 	-0.22031 	0 -0.28598 	-0.220238 	0 -0.286237 	-0.220091 	0 -0.286496 	-0.219942 	0 -0.286754 	-0.219792 	0 -0.287012 	-0.219643 	0 -0.287269 	-0.219494 	0 -0.287519 	-0.219345 	0 -0.287769 	-0.219196 	0 -0.28802 	-0.219045 	0 -0.288272 	-0.218893 	0 -0.288522 	-0.218742 	0 -0.288766 	-0.218591 	0 -0.289009 	-0.218439 	0 -0.289252 	-0.218287 	0 -0.289496 	-0.218134 	0 -0.28974 	-0.217979 	0 -0.289956 	-0.217839 	0 -0.290173 	-0.217697 	0 -0.290389 	-0.217556 	0 -0.290606 	-0.217414 	0 -0.290824 	-0.217271 	0 -0.290844 	-0.217258 	0 -0.290864 	-0.217245 	0 -0.290884 	-0.217231 	0 -0.290904 	-0.217219 	0 -0.290924 	-0.217207 	0 -0.291156 	-0.217052 	0 -0.291387 	-0.216899 	0 -0.291618 	-0.216745 	0 -0.291849 	-0.216591 	0 -0.292078 	-0.21644 	0 -0.2923 	-0.216284 	0 -0.292523 	-0.216128 	0 -0.292748 	-0.215972 	0 -0.292973 	-0.215815 	0 -0.293196 	-0.21566 	0 -0.293411 	-0.215501 	0 -0.293625 	-0.215343 	0 -0.293839 	-0.215185 	0 -0.294056 	-0.215025 	0 -0.294271 	-0.214868 	0 -0.29448 	-0.214706 	0 -0.294688 	-0.214545 	0 -0.294895 	-0.214384 	0 -0.295103 	-0.214223 	0 -0.295312 	-0.214063 	0 -0.295443 	-0.213955 	0 -0.295573 	-0.213849 	0 -0.295703 	-0.213742 	0 -0.295833 	-0.213636 	0 -0.295963 	-0.213531 	0 -0.296033 	-0.213478 	0 -0.296104 	-0.213429 	0 -0.296175 	-0.213381 	0 -0.296245 	-0.213332 	0 -0.296318 	-0.213287 	0 -0.296512 	-0.213145 	0 -0.296709 	-0.213004 	0 -0.296906 	-0.212863 	0 -0.297103 	-0.212721 	0 -0.297301 	-0.212584 	0 -0.297484 	-0.212441 	0 -0.29767 	-0.212302 	0 -0.297858 	-0.212158 	0 -0.298045 	-0.212014 	0 -0.298233 	-0.211875 	0 -0.298405 	-0.21173 	0 -0.298578 	-0.21159 	0 -0.298752 	-0.211448 	0 -0.298929 	-0.211303 	0 -0.299107 	-0.211161 	0 -0.299269 	-0.211013 	0 -0.299432 	-0.210869 	0 -0.299595 	-0.210725 	0 -0.299757 	-0.210581 	0 -0.299924 	-0.210438 	0 -0.300035 	-0.210324 	0 -0.300147 	-0.210213 	0 -0.300259 	-0.210103 	0 -0.300371 	-0.209993 	0 -0.300485 	-0.209886 	0 -0.300524 	-0.209853 	0 -0.300563 	-0.209817 	0 -0.300602 	-0.209781 	0 -0.300641 	-0.209745 	0 -0.300681 	-0.209705 	0 -0.300825 	-0.209562 	0 -0.300972 	-0.209414 	0 -0.301119 	-0.209266 	0 -0.301265 	-0.209117 	0 -0.301411 	-0.208965 	0 -0.301535 	-0.208822 	0 -0.301664 	-0.208673 	0 -0.301797 	-0.208521 	0 -0.30193 	-0.20837 	0 -0.302062 	-0.208216 	0 -0.302183 	-0.208069 	0 -0.302305 	-0.207918 	0 -0.30243 	-0.207766 	0 -0.302559 	-0.207612 	0 -0.302689 	-0.207455 	0 -0.302808 	-0.207304 	0 -0.302928 	-0.20715 	0 -0.303047 	-0.206996 	0 -0.303168 	-0.206841 	0 -0.303295 	-0.206681 	0 -0.303415 	-0.206527 	0 -0.303538 	-0.206371 	0 -0.303659 	-0.206214 	0 -0.303781 	-0.206056 	0 -0.303906 	-0.205896 	0 -0.303934 	-0.20586 	0 -0.303964 	-0.205821 	0 -0.303994 	-0.205782 	0 -0.304024 	-0.205742 	0 -0.304055 	-0.2057 	0 -0.304151 	-0.205565 	0 -0.304248 	-0.205427 	0 -0.304345 	-0.205288 	0 -0.304441 	-0.205149 	0 -0.304537 	-0.205007 	0 -0.304663 	-0.20483 	0 -0.304795 	-0.204645 	0 -0.304927 	-0.20446 	0 -0.305059 	-0.204274 	0 -0.305191 	-0.204086 	0 -0.30532 	-0.203909 	0 -0.305451 	-0.203727 	0 -0.305588 	-0.20354 	0 -0.305725 	-0.203353 	0 -0.30586 	-0.203163 	0 -0.305991 	-0.202984 	0 -0.306122 	-0.202801 	0 -0.306253 	-0.202617 	0 -0.306391 	-0.202429 	0 -0.306528 	-0.202238 	0 -0.306658 	-0.202057 	0 -0.306787 	-0.201872 	0 -0.306916 	-0.201688 	0 -0.307046 	-0.201502 	0 -0.307181 	-0.20131 	0 -0.307302 	-0.201126 	0 -0.307424 	-0.20094 	0 -0.307545 	-0.200754 	0 -0.307666 	-0.200567 	0 -0.307788 	-0.200378 	0 -0.307812 	-0.200342 	0 -0.307835 	-0.200303 	0 -0.307859 	-0.200264 	0 -0.307883 	-0.200224 	0 -0.307907 	-0.200183 	0 -0.308002 	-0.200032 	0 -0.308098 	-0.199885 	0 -0.308194 	-0.199738 	0 -0.308291 	-0.19959 	0 -0.308388 	-0.199447 	0 -0.308493 	-0.199261 	0 -0.308606 	-0.199074 	0 -0.308718 	-0.198886 	0 -0.30883 	-0.198698 	0 -0.308943 	-0.198514 	0 -0.309039 	-0.198328 	0 -0.309138 	-0.198144 	0 -0.309241 	-0.197954 	0 -0.309345 	-0.197765 	0 -0.309449 	-0.19758 	0 -0.309535 	-0.197393 	0 -0.309623 	-0.197208 	0 -0.309713 	-0.197021 	0 -0.309808 	-0.19683 	0 -0.309903 	-0.196643 	0 -0.309984 	-0.196454 	0 -0.310065 	-0.196268 	0 -0.310146 	-0.196082 	0 -0.310231 	-0.195893 	0 -0.31032 	-0.195705 	0 -0.310395 	-0.195515 	0 -0.310471 	-0.195327 	0 -0.310547 	-0.19514 	0 -0.310623 	-0.194952 	0 -0.310704 	-0.194764 	0 -0.310756 	-0.194622 	0 -0.310809 	-0.194483 	0 -0.310861 	-0.194343 	0 -0.310914 	-0.194204 	0 -0.310968 	-0.194066 	0 -0.310988 	-0.194019 	0 -0.311007 	-0.193974 	0 -0.311027 	-0.193929 	0 -0.311047 	-0.193884 	0 -0.311067 	-0.193842 	0 -0.311138 	-0.193666 	0 -0.31121 	-0.193492 	0 -0.311283 	-0.193318 	0 -0.311356 	-0.193144 	0 -0.311428 	-0.192973 	0 -0.311491 	-0.192797 	0 -0.311562 	-0.192622 	0 -0.311633 	-0.192447 	0 -0.311704 	-0.192272 	0 -0.311775 	-0.192099 	0 -0.311836 	-0.191923 	0 -0.311898 	-0.19175 	0 -0.311967 	-0.191575 	0 -0.312035 	-0.1914 	0 -0.312104 	-0.191227 	0 -0.312163 	-0.191054 	0 -0.312222 	-0.190882 	0 -0.312284 	-0.19071 	0 -0.31235 	-0.190537 	0 -0.312417 	-0.190368 	0 -0.312475 	-0.1902 	0 -0.312533 	-0.1