/*--------------------------------*- C++ -*----------------------------------*\
  =========                 |
  \\      /  F ield         | OpenFOAM: The Open Source CFD Toolbox
   \\    /   O peration     | Website:  https://openfoam.org
    \\  /    A nd           | Version:  6
     \\/     M anipulation  |
\*---------------------------------------------------------------------------*/
FoamFile
{
    version     2.0;
    format      ascii;
    class       volScalarField;
    location    "6";
    object      epsilon;
}
// * * * * * * * * * * * * * * * * * * * * * * * * * * * * * * * * * * * * * //

dimensions      [0 2 -3 0 0 0 0];

internalField   nonuniform List<scalar> 
10000
(
417.332
286.483
169.456
107.922
71.4537
49.9639
36.8985
29.1345
24.8246
22.9262
22.9405
24.7974
28.849
36.0036
48.1919
68.6565
102.656
162.265
279.679
409.661
434.183
296.287
175.428
111.354
72.1722
50.1066
36.8763
29.0698
24.7411
22.8362
22.859
24.7211
28.7548
35.8211
47.8944
69.167
105.438
165.613
285.333
423.681
440.119
306.779
180.593
112.265
72.9428
50.1817
36.8384
28.9916
24.6385
22.7498
22.9225
24.8578
28.9114
35.6012
48.5469
69.2768
105.557
167.17
287.941
427.266
450.844
302.919
178.059
111.427
72.8858
50.2419
37.1259
29.2926
24.856
22.6629
22.939
24.9708
29.1803
36.3836
48.9523
69.5023
105.817
171.402
296.734
439.519
495.33
305.064
174.989
110.107
73.0635
50.32
37.0664
29.1557
24.7904
22.9078
22.9568
25.0791
29.3937
36.864
49.2303
69.7638
104.526
166.519
282.98
476.885
437.339
310.197
177.353
111.498
73.4133
50.6679
36.5323
28.5184
24.5275
22.5541
22.6852
25.0384
29.3697
36.8788
49.3016
70.1594
105.374
172.876
278.236
387.913
480.559
299.779
169.112
108.053
73.1674
50.6713
37.0769
29.0493
24.4226
22.9126
23.125
25.1251
29.376
36.8308
49.3042
69.9276
106.06
167.222
279.174
391.636
440.641
291.227
168.949
108.228
72.9477
50.5824
37.0347
29.1117
24.7764
22.9432
23.0299
24.736
28.8628
36.3236
49.2179
69.6466
103.552
162.985
280.49
387.917
406.112
300.633
170.984
109.221
73.3101
50.3143
36.7472
28.8792
24.5791
22.4581
22.6556
25.0492
29.4019
36.9342
49.49
70.3751
104.06
164.407
283.841
399.753
414.598
299.647
173.241
109.974
73.2653
49.6981
35.9478
28.6631
24.5331
22.5944
22.7492
25.0503
29.4419
37.0233
49.5027
70.1006
104.739
166.25
286.501
400.884
482.52
308.861
176.455
111.257
73.3104
50.3882
36.2341
28.1968
24.4338
22.793
22.9894
25.0345
29.3526
36.9083
49.5421
70.7074
105.459
171.731
297.888
411.91
459.153
315.425
182.516
114.892
74.0569
50.4878
36.7145
28.3945
24.1522
22.7501
23.0045
25.0262
29.2359
36.4138
49.3744
70.4603
105.479
166.64
288.365
447.274
438.355
312.799
177.452
113.392
73.748
50.4615
36.806
28.877
24.606
22.8043
22.9867
24.9659
29.1781
36.6478
49.252
70.8555
107.704
172.03
293.906
389.479
478.432
302.007
170.424
112.599
73.7008
49.8087
36.5902
28.8036
24.523
22.4486
22.8827
24.8961
29.0616
36.0648
48.5522
69.9879
104.77
164.98
284.154
432.337
391.759
296.476
169.322
110.434
73.1458
49.9293
36.3385
28.2576
24.4351
22.6615
22.7825
24.7485
28.9867
36.4491
48.9909
70.1208
105.199
166.31
284.712
399.835
396.619
281.69
169.545
114.281
73.0147
49.7176
35.8142
28.4598
24.253
22.0994
22.1158
24.0233
28.2642
36.1835
48.8979
70.064
106.973
170.16
294.595
404.813
402.737
289.487
174.121
110.602
72.5147
49.0647
36.1438
28.397
23.8655
22.0197
22.18
24.1291
28.2794
35.6556
48.4183
69.9034
105.509
164.935
287.508
423.49
465.982
279.885
163.094
106.505
71.2389
48.997
35.8986
28.2536
24.0892
22.3277
22.4523
24.4107
28.5738
35.9362
48.5002
69.4152
104.287
166.031
289.991
433.628
421.942
277.458
164.107
106.999
71.2655
48.3895
35.6949
28.095
23.9839
22.2488
22.388
24.3617
28.498
35.7906
48.3267
69.763
105.045
167.987
294.164
455.689
389.839
279.519
165.968
109.878
70.9975
48.3694
35.5437
27.5433
23.455
21.7161
21.8047
23.8397
28.2376
35.314
47.5455
69.291
105.849
173.593
302.972
521.231
399.205
284.078
168.12
106.791
70.6882
48.8772
35.8054
28.1281
23.9115
22.142
22.1095
24.2309
28.3407
35.1399
47.6796
69.6006
107.207
170.374
291.884
454.677
463.704
296.628
177.208
109.64
71.2259
49.0308
35.9224
28.2358
23.7064
21.98
22.3287
24.2774
28.5121
35.8765
48.3927
69.9274
107.394
174.647
299.546
428.85
424.053
282.015
170.912
107.188
70.9668
48.8446
35.8831
28.3753
24.2612
22.4441
22.4623
24.007
28.3955
35.6864
48.0071
70.2839
108.49
175.051
307.627
491.356
382.924
281.207
177.697
107.744
71.1807
48.4027
35.8082
28.3645
24.2571
22.4825
22.5868
24.3103
28.5687
36.2914
48.9953
70.4276
107.863
175.937
310.452
488.374
384.749
283.899
173.503
107.705
71.4903
48.7087
35.1595
28.1704
24.164
22.3113
22.6539
24.6371
28.8424
36.297
48.9017
70.2278
108.107
178.42
310.661
491.112
398.604
288.593
169.287
107.65
71.4936
48.8786
35.4337
27.74
23.7312
22.1758
22.5805
24.3013
28.344
35.6976
48.672
69.8821
106.653
174.708
302.865
471.766
410.721
286.882
171.27
108.5
71.769
49.3724
35.9232
28.2668
24.2189
22.5692
22.6165
24.8023
28.9881
36.3384
48.6999
69.5642
106.461
168.923
302.429
514.227
469.75
297.208
179.783
111.465
71.9758
49.7605
36.4793
28.7664
24.6749
22.9373
22.9995
24.9821
29.1687
36.5475
48.8727
69.1999
103.423
166.12
295.957
431.114
434.967
291.905
172.725
107.806
71.5604
49.4531
36.198
28.2016
24.2012
22.8099
23.0576
24.9968
29.1867
36.5834
48.9515
69.6026
103.498
165.979
304.864
437.073
408.351
287.766
171.974
108.55
71.7471
48.9147
35.656
28.2365
24.5142
22.5828
22.9858
24.994
29.2139
36.6521
49.0728
69.8959
103.61
164.317
285.744
445.002
416.884
302.869
170.1
109.81
72.176
49.6624
36.5463
28.7804
24.6901
22.9144
23.031
24.9171
28.8338
36.2432
48.769
69.6571
103.745
163.725
282.794
398.239
437.405
292.659
172.109
109.324
72.1114
49.377
36.5138
28.3682
24.6721
22.9526
23.0574
24.8094
29.3452
36.9042
49.2717
70.1622
104.724
165.13
285.469
414.57
488.765
293.726
168.686
106.889
71.9639
49.7847
36.7034
28.6189
24.6765
22.8801
22.7647
25.013
29.4205
37.0709
49.7502
71.1707
107.896
167.387
287.812
448.811
423.899
292.042
169.492
106.977
71.6831
49.9439
36.2607
28.9102
24.6749
22.8435
22.8743
24.6011
29.1662
36.8391
49.6458
71.3251
108.363
173.125
291.505
375.288
478.301
301.708
174.972
107.366
71.7149
49.912
36.5665
28.7301
24.104
22.2206
22.3486
24.3266
28.4967
36.127
49.4462
71.1835
107.791
170.924
291.276
383.813
443.957
292.691
169.825
107.055
71.6537
49.6441
35.7983
28.1706
24.2664
22.3865
22.49
24.4286
28.601
36.0866
49.1717
71.5234
111.114
179.03
288.815
440.405
415.977
285.425
163.509
106.978
71.8588
49.5646
35.9045
28.5286
24.0839
22.5943
22.7468
24.7078
28.861
36.1968
48.9394
70.3201
107.09
171.143
285.271
415.225
421.234
284.577
163.162
105.968
70.9705
49.1769
35.659
28.5329
24.3931
22.5961
22.7318
24.6992
28.8233
36.2528
48.5143
69.5449
104.935
167.671
285.339
400.987
491.259
295.818
164.522
107.097
71.1338
48.8203
35.5639
28.4284
24.2771
22.4144
22.3397
24.4852
28.3629
35.8403
48.6357
69.363
105.327
173.585
294.027
414.607
462.883
284.051
164.311
110.024
72.0094
49.4039
35.7982
28.4946
24.2712
22.1367
22.511
24.3727
28.8516
36.2651
48.5562
68.7951
104.539
167.049
279.688
422.143
428.144
280.963
163.543
107.607
71.0632
49.269
36.1116
28.5114
24.3203
22.3054
22.4201
24.6289
28.8474
35.8713
48.3305
68.2001
101.282
161.067
276.573
360.446
478.797
283.428
164.832
105.567
70.5872
49.1039
36.012
28.4602
24.3456
22.579
22.7008
24.6731
28.8227
36.1797
48.3712
68.2969
101.518
164.265
286.732
368.916
415.346
283.334
166.302
106.058
70.5085
48.4822
35.1314
27.7391
23.7446
22.0671
22.2062
24.1501
28.7023
36.1216
48.3445
68.3228
101.367
160.62
277.871
369.432
475.519
292.882
171.606
106.842
70.7442
48.9145
35.5554
28.2898
24.2362
22.4881
22.5552
24.2466
28.2968
35.5663
48.0087
68.8953
101.766
162.036
282.238
383.304
463.333
294.882
171.495
107.433
70.9897
49.0231
35.9508
28.3519
24.2636
22.5138
22.6213
24.5
28.6223
35.8317
48.0448
68.4294
102.162
163.328
285.864
389.405
463.883
295.389
171.674
108.897
71.1906
48.4003
35.2668
27.5859
23.6662
21.9914
22.167
24.0418
28.1363
35.3267
47.9733
68.294
102.708
164.373
288.974
401.235
427.826
290.445
169.621
107.533
71.3329
48.8556
35.9762
28.0835
24.1587
22.4051
22.6193
24.5685
28.6129
35.8246
47.9853
68.0518
102.135
164.692
297.841
408.328
432.035
291.383
170.152
107.778
71.5687
48.9684
35.7051
28.4862
24.2906
22.1472
22.3488
24.4183
28.1236
35.2425
47.8021
67.9799
102.153
164.536
290.362
418.972
445.41
293.29
171.075
108.006
71.9107
49.4966
36.4821
28.7153
24.4318
22.5082
22.7334
24.3986
28.4135
35.5505
47.5888
67.9507
102.472
164.961
293.214
462.702
472.33
291.735
171.932
108.204
72.0612
50.1083
36.6185
28.672
24.2091
22.4538
22.8362
24.8338
28.942
36.1181
48.0998
68.197
103.12
167.908
288.594
403.991
412.175
283.936
167.173
109.362
72.2789
50.1677
36.7111
28.4721
24.5289
22.7871
22.9138
24.8725
29.0339
36.2611
48.1927
67.9871
103.539
165.208
291.276
452.466
469.798
292.558
168.976
107.719
72.0384
50.0787
36.6836
28.3704
24.1521
22.3719
22.4817
24.4592
28.934
36.2458
48.175
67.7234
102.07
160.92
284.35
437.263
430.582
290.279
172.995
108.459
72.0845
49.9528
36.6715
28.8972
24.6564
22.828
22.9044
24.8342
28.9866
36.2211
48.3041
67.7464
100.846
164.462
288.395
426.671
387.47
290.493
166.053
108.423
71.7797
49.2528
35.9083
28.3814
24.6217
22.8769
22.9449
24.8549
28.925
35.7728
48.3445
68.0726
101.047
159.399
278.845
395.634
384.391
287.774
165.591
106.238
71.3491
49.4831
36.3281
28.7868
24.667
22.844
22.6152
24.4386
28.8146
35.9946
48.6395
68.783
103.05
160.157
277.114
400.515
393.84
284.194
165.589
106.206
71.2468
48.9491
35.7595
28.7435
24.7011
22.9484
23.0409
24.8229
28.9866
36.4925
48.8868
69.1617
103.663
163.872
283.72
459.841
400.142
297.805
167.776
106.814
71.8704
49.612
36.3753
28.7692
24.6827
22.9463
23.0123
24.5532
28.5811
36.6194
49.0893
69.5895
104.429
164.437
278.948
421.236
408.82
284.129
167.683
107.124
71.5289
49.0041
35.7373
28.6458
24.695
23.025
23.1759
25.1183
29.1488
36.855
49.2564
70.1972
106.103
166.568
278.544
382.879
421.733
295.599
169.62
107.496
71.3839
49.3116
36.0046
28.5389
24.5996
22.9419
23.1491
25.2006
29.5376
37.056
49.2129
70.5749
107.151
169.303
283.069
387.029
477.584
287.748
174.405
110.437
71.8191
49.4046
35.3333
27.8891
23.9989
22.4911
23.0437
25.1713
29.5124
37.082
49.7224
70.8389
107.739
171.04
289.165
431.911
400.593
283.686
168.487
107.851
71.4931
49.5096
36.0489
28.6111
24.5207
22.8918
23.1111
25.1522
29.4587
37.022
49.6936
70.8033
106.766
171.452
287.022
402.091
412.89
287.295
172.062
108.575
71.5305
49.5629
36.393
28.6311
24.2888
22.8622
23.1206
25.1635
29.4634
37.0187
49.7002
71.0221
107.94
169.952
290.98
410.76
418.305
290.307
170.9
109.665
71.4734
49.4158
36.3452
28.4357
24.5995
22.8303
23.0003
25.0432
29.3316
36.8638
49.5455
70.8004
106.245
168.333
302.823
469.444
440.27
298.383
172.548
108.046
71.1892
49.3106
36.2627
28.6514
24.4374
22.2882
22.3925
24.4846
29.0871
36.6419
49.1612
70.7577
106.466
167.175
291.108
443.409
481.613
298.443
171.622
107.973
71.1627
48.7499
35.5178
28.0362
24.2447
22.3377
22.5653
24.7642
29.0674
36.5742
48.9964
70.5579
107.211
168.11
297.578
495.38
472.59
299.622
174.349
109.552
71.4393
49.3282
36.1491
28.4528
23.9577
22.3079
22.7583
24.7478
28.6164
36.0455
48.9415
70.513
105.791
167.504
286.433
430.01
482.961
302.052
176.306
110.152
71.4799
49.1419
36.0829
28.398
23.9335
22.3207
22.7471
24.7623
28.9175
36.3521
49.1465
70.4407
107.833
173.087
293.489
392.295
465.293
295.101
176.582
110.912
71.7399
49.3146
35.5202
28.1579
23.8789
22.451
22.6646
24.3575
28.4686
35.6991
49.0512
70.1094
105.483
169.777
297.479
437.098
424.147
293.936
176.118
110.689
71.6269
49.2765
36.0205
28.269
23.7845
22.1831
22.6126
24.6631
28.7042
36.1529
49.188
70.1025
105.458
173.282
293.232
407.168
428.991
297.843
174.138
110.002
71.6513
49.3174
36.0648
28.3398
23.943
22.4121
22.3081
24.3375
28.9867
36.7073
49.31
70.0989
105.066
164.9
297.8
412.328
452.604
310.09
176.645
110.163
71.9773
49.2066
35.9373
28.3164
24.2335
22.5932
22.5345
24.4671
28.6211
36.5778
49.2306
70.4879
107.433
163.846
288.439
431.188
478.193
304.3
180.81
112.422
72.2704
48.9155
35.4155
27.7815
23.7585
22.611
22.9288
24.939
29.0856
36.5795
48.9463
69.6891
105.972
164.085
289.567
472.63
484.502
303.457
176.453
109.639
71.8171
49.3415
36.0918
28.4323
24.1389
22.6438
22.9907
24.9908
28.799
36.5089
48.6695
69.7298
105.61
161.259
276.139
401.081
434.321
294.451
172.119
111.122
71.9409
48.9306
35.2692
27.8428
24.2894
22.7134
22.9497
25.004
29.2833
36.6068
48.8025
69.2052
105.1
164.537
280.232
362.989
504.905
298.163
177.526
109.377
71.2448
48.1895
35.2119
27.8243
24.1621
22.319
22.736
24.5517
29.1585
36.6059
48.8845
69.2796
103.882
160.002
273.256
370.655
475.759
293.799
167.422
109.863
70.6982
48.2553
35.3656
27.969
24.2292
22.5615
22.7375
24.5661
29.0791
36.502
48.8146
69.1125
102.764
161.052
279.707
372.076
440.568
291.466
167.346
107.589
70.0848
48.268
35.8792
28.3847
24.2213
22.4876
22.3735
24.3949
28.9177
36.3764
48.8648
69.7612
104.98
165.023
275.958
417.151
477.077
292.541
167.717
106.363
70.0002
48.7468
36.0812
28.4054
23.7501
22.3307
22.3175
24.3161
28.4174
35.6658
48.3081
69.3571
103.874
163.52
276.492
385.103
407.301
288.872
169.099
104.445
69.5932
48.6322
35.9843
28.3878
23.8312
22.1161
22.2919
24.5476
28.7101
35.7338
48.3994
69.8286
105.83
166.987
279.254
390.34
419.86
279.286
163.622
104.222
69.6211
48.5141
35.8809
28.3977
24.0297
22.4632
22.4221
24.54
28.7417
35.7312
48.3497
69.46
104.616
165.669
286.734
444.935
468.411
282.435
165.107
104.786
69.5351
48.389
35.729
28.3695
24.3125
22.5055
22.4813
24.1741
28.6558
35.9632
47.9735
69.3332
104.859
165.987
285.836
439.988
419.342
284.882
166.521
105.504
69.5798
48.1378
35.4474
28.154
24.1528
22.3578
22.1156
24.0328
28.4977
35.918
48.3327
69.4154
105.337
167.066
287.079
449.278
475.965
290.052
169.848
106.898
69.5794
47.9494
35.1752
27.4631
23.576
22.189
22.2987
23.9553
27.8898
35.0944
47.9629
69.0465
106.208
169.55
292.085
449.635
474.282
290.082
169.165
105.468
68.8856
47.0362
34.9103
27.7184
23.788
21.8116
21.8764
24.0026
27.9865
34.836
47.1664
68.5851
105.419
166.925
286.692
427.306
478.436
288.081
166.659
104.815
67.9669
47.1143
34.7917
27.5733
23.3904
21.88
21.8363
23.8707
27.8014
34.5101
46.712
67.9489
104.615
167.693
295.748
435.65
458.479
293.282
167.065
105.196
67.4585
46.6969
34.4009
27.3615
23.4969
21.818
21.6516
23.2984
27.0844
34.0185
46.1291
67.2362
105.349
167.885
291.885
454.12
475.452
289.338
166.807
103.819
66.4652
45.3889
33.8767
27.0335
23.2316
21.3667
21.6318
23.3483
27.105
33.8473
45.6966
65.9768
104.072
169.315
297.832
508.945
538.137
295.812
166.983
102.732
65.3876
44.4879
32.5743
25.9262
22.4371
20.9686
21.0554
23.0154
26.7126
33.1706
44.1015
64.4774
101.583
164.083
290.163
456.222
533.428
287.347
162.926
100.499
63.6382
43.233
31.7564
25.3629
22.2241
20.8226
20.8037
22.3193
25.6493
31.7178
42.5716
62.4998
99.2503
163.209
286.345
519.656
548.314
287.247
163.737
97.797
61.0777
41.2929
30.5978
24.826
21.8018
20.4875
20.5894
22.2227
25.4346
31.0518
41.1305
59.9943
96.0302
161.782
282.626
485.92
542.805
285.627
160.427
93.894
58.4273
39.756
29.8256
24.5165
21.8804
20.5737
20.5181
21.5886
24.4254
29.799
39.464
57.2568
91.8216
161.226
284.111
532.415
514.999
290.692
154.112
88.2087
54.9064
37.8431
28.7999
23.934
21.3304
20.3442
20.3216
21.2502
23.7191
28.5012
37.4038
54.1472
86.6982
151.583
285.76
464.359
558.969
273.425
143.149
81.1882
50.8796
35.6395
27.6016
23.2562
20.8996
19.8408
19.8169
20.8049
23.0545
27.3394
35.2555
50.4709
80.9017
142.974
268.697
473.773
479.09
252.92
130.681
73.8916
46.632
33.1106
26.0752
22.2882
20.323
19.4616
19.4666
20.3214
22.2547
25.9752
32.9554
46.3993
73.6495
131.093
251.8
496.996
427.425
232.143
117.991
65.454
41.4331
30.0046
24.2224
21.1452
19.5185
18.8214
18.8454
19.5913
21.2117
24.2685
30.1126
41.6596
65.9068
119.326
233.313
417.471
376.793
215.34
102.945
55.4224
35.4356
26.3735
21.9294
19.6333
18.4635
17.9433
17.9582
18.5119
19.726
22.0467
26.5669
35.9267
56.6458
105.621
217.979
380.121
363.548
192.792
84.8508
44.1668
28.7642
22.2438
19.1945
17.6752
16.9237
16.6193
16.6275
16.9542
17.7307
19.3061
22.4691
29.2578
45.1128
86.2864
195.077
364.58
383.649
162.574
63.2696
32.4744
22.1863
18.2171
16.5086
15.733
15.3834
15.2511
15.2579
15.4085
15.7703
16.558
18.2936
22.3313
32.8036
63.8154
163.841
387.472
440.897
126.07
41.3103
23.0387
17.928
16.0899
15.3209
14.9967
14.8709
14.8286
14.8283
14.8773
15.0013
15.3207
16.0719
17.8902
22.9978
41.1832
125.219
441.503
468.202
59.8537
21.9921
16.2145
15.054
14.8187
14.8057
14.8142
14.8025
14.7957
14.7959
14.8038
14.8149
14.8058
14.8258
15.0662
16.2287
22.0057
59.9254
467.969
1122.15
689.141
406.059
250.668
149.08
85.6284
51.0224
33.8125
25.8022
22.7431
22.9308
26.2833
34.3095
50.5123
80.7504
138.111
235.694
394.776
690.664
1117.07
1208.31
708.741
416.596
255.158
147.403
84.0956
49.887
33.0943
25.3612
22.4509
22.6486
25.8606
33.7399
50.0032
79.6005
136.558
238.4
403.485
708.898
1202.66
1190.58
708.48
411.484
252.375
147.253
82.9882
48.8941
32.4663
25.0331
22.2635
22.5334
24.9087
32.1796
49.8832
76.9351
136.843
236.306
398.842
698.095
1114.27
1209.23
710.528
412.941
254.677
147.803
78.4008
45.3769
30.2558
23.7062
21.8993
22.6211
26.2608
33.9206
50.4304
80.5836
138.364
236.208
401.725
702.959
1125.97
1199.97
706.354
413.077
251.831
147.455
79.8531
46.9693
31.3376
24.3725
21.3329
22.457
26.1516
34.2259
50.3024
81.2629
136.406
236.518
395.827
704.447
1194.39
1167.89
706.134
416.627
250.958
146.728
82.1226
48.6121
32.3434
23.8897
21.6744
21.9017
25.2042
32.8185
48.1333
78.493
138.662
235.989
395.215
683.669
1086.56
1231.35
708.658
412.431
250.743
146.42
78.123
45.4368
31.3448
24.7893
22.5065
22.8929
26.4315
34.484
50.1651
79.1679
136.742
233.903
398.395
684.903
1080.87
1157.47
709.439
416.261
248.819
145.542
81.9726
48.4013
32.4669
25.3448
22.6164
22.9216
26.4376
34.5018
50.335
79.6749
137.002
232.435
394.959
686.896
1093.58
1244.48
717.837
415.885
247.876
141.359
77.226
45.0579
30.4766
24.9459
22.4322
22.705
26.1506
34.0949
49.8859
80.9415
136.253
229.943
392.43
687.843
1096.18
1186.14
706.472
411.366
247.29
141.43
78.1001
45.9111
31.0995
24.8427
22.3158
22.0078
25.2144
32.7738
47.8866
80.0597
135.318
228.151
393.014
690.816
1115.5
1123.48
696.053
403.276
247.439
140.321
78.3684
46.4309
31.5212
24.0549
22.1849
22.8629
26.5274
34.7142
50.2282
77.8884
132.325
226.3
387.431
693.365
1122.03
1137.7
699.427
407.387
244.815
142.646
81.5569
48.5643
32.9861
24.5373
21.4873
22.592
26.238
34.4588
50.0552
79.0567
133.369
224.778
388.025
696.992
1141.27
1225.96
703.732
399.482
245.117
142.351
79.8131
46.5777
32.6234
25.1527
21.6799
22.3187
25.1879
33.8843
49.66
77.4888
132.11
222.727
382.398
687.068
1198.57
1148.23
695.143
398.561
243.363
145.237
84.0157
47.608
31.7718
25.1398
21.9809
21.8408
25.7974
32.5582
49.1473
78.6901
131.198
221.28
379.286
679.565
1100.01
1210.3
683.695
401.083
240.91
144.345
83.8968
50.3858
33.3956
25.3053
21.5391
21.865
25.4921
33.1048
47.4231
78.1067
129.396
220.964
380.174
682.372
1145.21
1115.56
679.788
396.757
241.161
144.035
82.9765
49.6752
33.1906
25.4459
22.3461
22.3927
26.4645
34.52
49.9428
76.2677
133.968
221.708
381.143
682.778
1179.48
1139.86
684.143
396.525
240.272
140.455
79.2876
48.9911
32.9028
25.2601
21.872
22.8159
26.4722
34.5565
50.1915
78.2016
135.098
223.997
383.006
682.383
1143.07
1161.81
687.254
397.911
239.876
141.645
81.1362
48.5129
32.5777
25.2112
22.4832
22.8478
26.2421
34.1577
48.9117
80.9895
136.093
229.13
386.02
683.652
1082.26
1210.08
689.968
397.183
239.941
141.037
80.0087
47.7218
32.1937
25.0557
22.3762
22.6726
25.3759
33.3378
50.8
79.2541
134.944
230.348
392.828
691.816
1099.46
1169.39
684.962
396.42
239.162
137.416
75.3092
46.3266
31.5663
24.7577
22.164
22.662
26.3966
34.975
52.1689
83.4105
139.773
235.119
397.706
703.1
1197.19
1230.73
684.177
392.953
234.505
137.27
76.9364
44.7025
29.9258
23.601
21.7381
21.6236
25.0799
33.7804
51.7514
82.7433
137.055
234.671
397.046
700.462
1176.81
1134.18
673.626
388.334
231.231
136.957
79.9546
47.9082
31.6947
24.4903
21.5146
21.8764
25.406
33.9582
51.7429
82.7053
137.157
233.881
394.738
700.489
1156.77
1202.62
671.645
383.785
227.806
136.155
79.5795
47.3597
30.1694
23.7653
22.081
22.2807
25.7298
35.026
51.6074
82.2276
136.191
233.004
396.329
691.045
1083.78
1134.59
665.103
380.612
228.142
133.269
78.6396
45.6055
31.0216
24.3258
22.3333
22.7715
26.4653
35.062
51.5806
82.2556
136.036
232.124
393.551
701.79
1083.15
1068.08
663.423
381.617
230.411
137.214
77.9767
48.5409
32.8016
25.3982
22.424
22.1381
26.1578
34.8386
51.1781
81.6031
136.004
231.061
390.253
690.414
1087.25
1073.32
666.733
385.358
231.082
135.125
80.1735
48.8625
32.8308
25.4627
22.3429
22.7713
25.5262
34.6952
51.0001
81.0732
132.651
229.195
385.309
685.707
1091.5
1158.99
676.607
389.57
236.62
141.129
80.6711
48.1016
31.2963
25.1461
22.4092
22.8849
25.62
34.5996
50.5281
79.0738
135.348
228.636
381.214
677.092
1099.85
1149.15
678.216
389.407
237.361
140.8
76.85
45.5396
32.4756
25.167
21.8819
23.0192
26.6714
34.6636
50.5332
80.7875
137.904
228.869
379.673
669.917
1146.61
1140.41
676.336
388.306
235.238
139.972
78.9129
47.4079
32.8507
25.2803
22.4619
23.0371
26.5943
34.3137
48.6245
81.4638
137.983
229.312
381.151
663.189
1031.67
1091.44
669.173
387.765
234.271
139.714
81.4791
49.038
32.7675
24.9749
21.7221
22.8727
26.5537
34.2391
49.134
79.0176
137.304
228.469
378.121
663.002
1040.7
1102.07
671.409
390.383
233.095
136.637
80.6665
48.5078
32.3204
24.7864
22.2283
22.8082
25.9773
35.2243
50.0363
80.1273
136.796
228.334
378.948
664.886
1045.05
1120
673.097
388.285
232.011
136.9
79.5631
45.9514
31.4048
23.5781
21.9921
22.8525
26.8574
35.535
51.6396
81.4925
135.256
228.616
379.944
664.625
1100.83
1185.76
677.445
384.249
229.147
138.578
77.328
48.2092
30.7329
23.9978
21.8249
22.1901
26.7239
35.345
51.4881
81.4395
135.796
228.631
379.457
659.537
1021.64
1080.89
658.035
380.045
230.232
139.703
81.5073
48.8404
32.6048
25.0796
21.6424
22.811
26.6136
35.0144
50.8619
80.5878
136.477
229.375
380.682
662.61
1029.48
1137.32
658.158
376.351
229.709
139.934
81.0218
48.3567
32.4561
25.2667
22.5528
22.9638
26.4609
34.5889
48.9262
77.9633
138.635
230.165
379.448
663.48
1046.63
1039.01
648.747
373.786
230.1
140.232
78.5698
45.7379
31.6662
25.0744
22.5099
22.8486
25.5152
33.6714
51.0375
81.9012
139.393
230.657
381.017
666.848
1059.01
1027.91
647.63
375.986
231.434
140.952
82.1902
49.5025
30.5331
24.6621
22.4629
23.0106
26.6331
34.7242
49.4837
82.3614
138.817
230.68
382.989
673.533
1141.58
1029.6
650.933
377.642
232.196
140.697
79.0663
49.6572
31.8295
24.3956
22.272
22.7249
26.4818
34.8196
50.3515
79.8691
136.867
230.786
384.081
674.157
1121.6
1022.7
657.021
380.208
231.504
139.123
82.3608
50.2762
33.0982
25.3133
22.2454
21.7607
25.2522
34.4132
48.8283
80.2976
138.847
232.08
385.767
680.379
1145.2
1029.92
665.427
383.878
235.775
140.433
81.9299
49.9672
31.7423
24.3816
22.0732
22.0186
25.8267
34.6631
50.5491
80.1187
138.441
231.554
388.221
684.38
1150.1
1023.3
667.967
384.722
235.503
136.912
78.9547
50.1719
33.7002
25.6728
21.9734
22.3235
26.5078
34.4187
48.6349
79.7457
137.816
231.367
388.444
691.631
1167.66
1029.55
667.545
386.186
235.397
137.851
82.5806
50.6939
34.0217
25.8961
22.7695
23.0132
26.6673
34.5888
49.1589
80.5001
135.962
231.631
388.344
692.625
1174.2
1039.58
674.59
387.881
235.984
138.597
82.9344
50.4464
33.7601
25.6906
22.5228
22.856
26.5251
34.6009
49.5031
82.6083
139.585
232.412
388.46
689.132
1160.01
1058.14
668.289
389.637
238.363
141.766
82.7865
50.1336
33.4753
25.3694
22.12
21.901
26.2175
34.5348
50.5351
82.3129
140.383
233.025
387.579
684.971
1110.47
1067.64
671.321
391.648
240.263
141.996
82.537
49.7312
32.9334
24.9334
21.3514
21.9094
25.338
33.9784
49.7801
79.3362
139.776
234.39
391.021
686.663
1085.13
1138.48
678.24
395.79
239.804
140.688
81.168
48.6802
31.1216
23.6934
21.8069
22.3934
25.8367
33.5233
47.783
79.8764
137.522
235.133
394.864
693.437
1109.05
1063.64
670.383
390.179
237.178
139.792
79.7977
45.8904
31.8405
23.9718
21.1525
22.1429
25.5484
32.3809
48.4499
81.0338
138.418
233.772
395.035
699.354
1196
1072.11
672.759
390.747
236.928
136.547
76.0231
46.2751
31.8671
24.5048
21.3002
21.4753
24.7496
32.6272
49.7053
78.7718
136.604
234.13
395.423
698.97
1180.75
1141.69
678.862
392.035
236.901
136.559
77.4583
47.576
31.7952
24.5062
21.7665
21.9838
25.229
32.7633
49.9298
81.4134
139.009
234.521
394.037
695.02
1164.94
1092.72
674.926
391.655
233.365
136.55
79.6164
47.6103
31.5695
24.2314
21.1704
21.2002
24.2465
33.4249
49.5042
78.8904
136.408
234.664
395.644
693.017
1107.29
1118.19
679.117
389.221
233.548
133.814
79.2457
45.2492
29.95
23.429
21.9237
22.2062
25.0649
33.3671
49.0201
80.0083
137.35
235.386
394.827
698.28
1118.03
1173.46
678.907
387.85
234.561
137.004
79.541
47.9138
31.6935
24.7592
22.1187
22.5425
25.8204
32.9814
46.7773
77.4367
138.432
236.791
397.266
705.193
1142.87
1166.62
679.094
387.799
234.721
134.033
79.2818
47.9291
30.5582
24.6675
21.9924
22.3986
25.6214
32.0947
48.7983
79.5521
138.057
237.727
398.896
706.034
1220.53
1167.31
678.343
389.118
235.814
137.071
79.0202
47.9831
32.6116
24.9974
21.8947
22.181
25.509
33.1344
48.2035
75.9108
136.364
238.183
401.643
705.128
1153.36
1152.86
676.819
391.667
238.015
141.968
77.2267
45.5544
32.3068
24.8144
20.958
21.1195
24.1799
31.4511
47.6197
74.1624
131.931
236.995
399.951
717.939
1250.77
1094.93
679.162
392.293
238.874
143.201
82.0668
49.2414
32.6974
24.8586
21.4552
21.7479
24.9382
32.2115
47.3191
73.5508
130.785
233.88
398.176
718.819
1258.67
1113.92
684.344
394.508
239.19
141.234
78.5506
47.2006
31.3094
24.6223
22.1374
22.4434
25.7738
33.3496
46.5152
74.9788
130.086
230.689
395.743
711.989
1238.94
1164.07
690.84
394.697
239.682
144.468
81.845
50.5615
33.3954
24.3478
22.1089
22.4253
25.7701
33.8054
49.9339
78.7695
132.431
224.904
393.127
706.775
1264.63
1147.72
690.988
394.948
240.112
144.625
85.2414
51.5434
34.017
25.6708
22.452
22.2937
25.4517
33.4546
50.1229
77.1778
134.491
223.395
386.213
693.349
1196
1228.85
691.148
396.207
240.132
145.196
85.624
51.4929
33.9919
25.6432
22.3967
21.5505
24.1557
31.7062
51.0097
82.205
136.121
225.089
382.406
689.454
1279.75
1112.89
670.023
396.359
241.391
145.465
85.6981
51.3549
33.8987
25.5265
22.5333
22.5905
25.693
33.676
51.4657
82.5899
136.881
225.917
384.69
682.105
1143.74
1052.66
665.09
391.593
242.625
145.992
85.6046
51.3014
33.6384
24.8881
22.3995
22.8795
26.5196
34.8467
51.4482
82.9772
138.1
228.129
389.048
686.11
1064.41
1124.82
673.517
393.828
244.658
143.974
84.7203
50.9439
33.6201
24.5648
21.6278
22.017
25.4349
33.2618
49.1131
82.3214
137.637
234.472
392.715
686.872
1080.73
1045.26
663.229
393.835
244.131
145.603
84.5318
50.511
33.4439
25.312
22.3372
22.801
26.395
34.4742
50.744
82.258
139.809
235.318
392.877
697.389
1102.07
1056.45
674.73
400.575
243.967
145.021
81.2755
48.0854
33.0924
25.075
22.1413
22.6299
26.3011
34.1749
50.1992
79.2793
137.733
236.246
394.818
696.697
1185.76
1129.32
667.099
397.346
244.069
143.069
84.09
50.394
33.0311
23.9131
21.6215
22.0098
26.0923
32.6383
48.2224
80.9467
140.1
237.695
399.714
699.002
1110.8
1047.97
663.885
394.647
243.067
144.663
84.0874
50.0006
32.648
24.3791
20.9465
21.9123
26.394
33.9512
49.9349
82.622
139.375
237.925
398.961
704.826
1124.63
1058.73
671.774
401.963
243.363
143.99
80.8251
47.3674
30.9262
23.2864
21.3228
22.5341
26.5915
35.5126
52.2312
82.2885
135.755
237.466
400.006
706.679
1158.67
1127.98
667.875
395.087
239.796
140.319
83.9574
50.1516
32.7254
24.4226
21.9578
22.1099
25.7277
35.4919
52.7037
80.599
136.635
237.956
401.501
714.994
1184.07
1061.34
661.975
390.991
237.894
141.678
84.3867
50.0013
31.6446
24.9082
22.6221
23.2139
27.0128
34.6137
53.1842
84.7052
139.204
238.676
403.509
713.034
1256.25
1076.25
668.526
387.371
237.579
138.15
83.9155
48.0745
33.4352
25.7215
22.6733
23.1365
27.1294
35.9725
53.1242
84.9345
136.059
243.388
407.494
711.905
1182.22
1154.15
668.37
391.171
238.854
141.966
84.1677
50.5416
33.6255
25.723
22.4915
22.2234
26.5991
35.5887
52.7607
85.3443
142.947
244.58
406.942
710.006
1257.5
1115.27
663.725
389.001
239.487
144.947
83.8997
50.2066
33.2689
25.4542
21.8237
22.6083
25.5044
34.8715
52.1808
85.3533
145.598
245.277
407.72
707.898
1139.16
1100.53
660.704
386.663
239.058
144.115
79.9743
49.0975
31.5036
25.1837
22.3717
22.7351
25.6144
33.3355
49.6708
82.1447
144.604
245.397
407.081
706.927
1160.81
1039.42
656.298
388.54
239.645
142.401
80.4814
48.9689
32.7806
25.0734
21.8466
22.5505
25.9874
34.1146
51.1261
84.0142
143.449
243.272
406.265
711.528
1219.45
1042.09
653.178
382.712
236.348
140.964
79.6318
46.8828
32.4285
24.7089
21.4452
22.2069
25.5305
33.3917
50.3714
83.448
142.162
243.434
402.603
710.409
1146.14
1071.91
657.49
384.145
236.61
139.523
80.2451
48.3063
32.2454
23.7561
21.485
21.8577
24.8748
31.6152
47.4306
80.0714
140.215
240.008
403.183
714.326
1235.65
1151.71
663.553
385.396
236.724
137.47
79.1742
47.5863
31.8033
23.7193
20.8979
21.5303
24.4946
30.8961
46.5308
78.4449
138.663
239.971
403.887
708.96
1208.93
1133.41
659.467
384.622
236.668
136.235
77.2559
46.2865
31.2098
23.9434
21.041
20.7749
24.0606
30.4
45.1921
75.6565
136.538
239.459
397.633
710.36
1235.92
1152.75
655.873
382.986
233.781
133.834
75.1806
44.9873
30.3904
23.5229
20.3449
20.5868
23.6748
29.4429
43.2079
73.3553
132.74
235.361
399.36
708.825
1221.72
1142.74
642.983
378.057
232.214
127.814
69.8689
41.4
29.3724
22.7074
20.6046
20.4933
22.9049
28.7191
42.125
70.9228
129.204
232.743
391.409
707.833
1194.03
1118.01
632.04
370.899
223.95
123.831
69.8418
41.421
28.9518
22.4144
19.9652
20.6122
23.1538
28.5135
40.6833
68.4954
124.241
228.08
389.754
709.042
1265.55
1054.94
614.319
359.24
215.125
120.228
67.7678
39.881
28.1657
22.4912
19.9306
20.4364
22.9682
28.8347
39.9627
65.1556
119.284
220.29
387.462
685.829
1167.69
1107.83
605.039
346.184
208.346
114.846
62.6068
38.1251
27.3734
22.0835
19.8614
19.6948
22.4466
28.3598
39.892
63.2385
115.243
214.918
376.335
676.473
1196.38
1016.96
596.532
340.308
201.84
109.224
59.5313
36.1482
25.5059
20.8369
19.4458
19.4243
21.7986
26.6731
38.5594
60.9567
112.149
207.474
363.386
645.184
1258.99
1038.08
598.211
339.229
197.133
103.331
55.4599
34.1355
24.7531
20.4692
18.8044
19.0552
21.3228
25.8739
36.0174
58.6078
107.021