/*--------------------------------*- C++ -*----------------------------------*\
  =========                 |
  \\      /  F ield         | OpenFOAM: The Open Source CFD Toolbox
   \\    /   O peration     | Website:  https://openfoam.org
    \\  /    A nd           | Version:  6
     \\/     M anipulation  |
\*---------------------------------------------------------------------------*/
FoamFile
{
    version     2.0;
    format      ascii;
    class       volScalarField;
    location    "6";
    object      epsilon;
}
// * * * * * * * * * * * * * * * * * * * * * * * * * * * * * * * * * * * * * //

dimensions      [0 2 -3 0 0 0 0];

internalField   nonuniform List<scalar> 
130000
(
17.0526
17.045
16.8723
16.5659
16.166
15.7186
15.2667
14.8438
14.4715
14.1603
13.9117
13.7215
13.5825
13.4861
13.4242
13.3889
13.3737
13.3732
13.3837
13.4025
17.0683
17.0679
16.8976
16.5894
16.1853
15.7334
15.2777
14.8525
14.4793
14.1683
13.9207
13.7318
13.594
13.4988
13.4378
13.4034
13.3887
13.3885
13.3989
13.4176
17.0805
17.0831
16.9134
16.6035
16.1968
15.7418
15.2839
14.8572
14.4831
14.1716
13.9239
13.7353
13.5983
13.5037
13.4429
13.4084
13.3934
13.3922
13.4022
13.4211
17.0886
17.0907
16.9195
16.608
16.1997
15.7435
15.2846
14.8571
14.4825
14.1707
13.9227
13.734
13.5972
13.5026
13.4419
13.4072
13.3918
13.3904
13.4013
13.4203
17.0926
17.0929
16.9193
16.6062
16.1967
15.7399
15.2806
14.853
14.4786
14.1669
13.9191
13.7304
13.5931
13.4984
13.4378
13.4033
13.3886
13.3887
13.4008
13.4197
17.0959
17.0931
16.9171
16.6018
16.1908
15.7331
15.2736
14.8463
14.4724
14.1614
13.9144
13.7263
13.5895
13.4952
13.4349
13.4008
13.3862
13.3864
13.3982
13.4172
17.0985
17.0919
16.9133
16.5957
16.1831
15.7246
15.2649
14.838
14.4649
14.155
13.909
13.7218
13.5858
13.4923
13.4329
13.3995
13.3849
13.3843
13.3946
13.4133
17.0993
17.09
16.9085
16.5887
16.1745
15.7152
15.2555
14.8291
14.457
14.1482
13.9033
13.7172
13.5822
13.4896
13.4312
13.3988
13.3842
13.3831
13.3929
13.4114
17.1008
17.089
16.9045
16.5822
16.1663
15.7061
15.2463
14.8204
14.4492
14.1415
13.8978
13.7128
13.5788
13.4869
13.4288
13.3971
13.3824
13.3817
13.3915
13.4102
17.1033
17.0885
16.9013
16.5766
16.1589
15.6977
15.2377
14.8123
14.4419
14.1353
13.8927
13.7088
13.5757
13.4845
13.4266
13.3947
13.3801
13.3805
13.3919
13.4109
17.1068
17.089
16.8998
16.5723
16.1527
15.6904
15.2301
14.805
14.4353
14.1297
13.8881
13.7053
13.5731
13.4825
13.4249
13.3925
13.3788
13.3798
13.3925
13.4121
17.1118
17.0912
16.8994
16.5692
16.1476
15.6841
15.2234
14.7984
14.4293
14.1246
13.8841
13.7022
13.5709
13.4809
13.4238
13.3915
13.3778
13.3789
13.3914
13.4114
17.1177
17.0942
16.8991
16.5667
16.1432
15.6785
15.2172
14.7924
14.424
14.1201
13.8806
13.6998
13.5694
13.4805
13.424
13.3923
13.379
13.3797
13.3911
13.4109
17.1252
17.0986
16.9002
16.565
16.1394
15.6733
15.2114
14.7867
14.4189
14.1161
13.8779
13.6985
13.569
13.4803
13.4237
13.3921
13.3788
13.3794
13.3906
13.41
17.1323
17.103
16.9018
16.5634
16.1355
15.668
15.2056
14.7811
14.414
14.1123
13.8754
13.6975
13.5684
13.4794
13.4229
13.3914
13.3781
13.3788
13.3899
13.4093
17.1384
17.1065
16.9021
16.5616
16.1317
15.6629
15.1999
14.7756
14.4093
14.1086
13.8729
13.6962
13.5689
13.4818
13.4261
13.3946
13.3813
13.382
13.3932
13.4126
17.1447
17.1101
16.903
16.5609
16.1289
15.6586
15.195
14.7707
14.405
14.1053
13.8706
13.695
13.5693
13.4837
13.4286
13.3979
13.3852
13.3863
13.3977
13.4172
17.1536
17.1163
16.9061
16.5611
16.1273
15.6557
15.1913
14.7669
14.4014
14.1024
13.8685
13.6936
13.5685
13.4844
13.431
13.402
13.3904
13.3921
13.4037
13.4231
17.1651
17.1252
16.9115
16.5631
16.127
15.6541
15.1889
14.7641
14.3988
14.1001
13.8668
13.6926
13.5683
13.4849
13.4329
13.4046
13.3931
13.3946
13.4061
13.4254
17.1779
17.1359
16.9192
16.5677
16.1288
15.6538
15.1876
14.7622
14.3967
14.0983
13.8654
13.6917
13.5674
13.4835
13.4314
13.4032
13.3923
13.394
13.4057
13.4251
17.192
17.1482
16.9287
16.5739
16.1321
15.6548
15.187
14.7608
14.3951
14.0968
13.8642
13.6909
13.567
13.4832
13.4306
13.402
13.3915
13.3937
13.4056
13.425
17.2079
17.1623
16.9397
16.5815
16.1365
15.6567
15.1871
14.7601
14.3939
14.0956
13.8634
13.6908
13.5677
13.4839
13.4314
13.4026
13.3914
13.3937
13.4058
13.4258
17.2255
17.1777
16.952
16.5901
16.1417
15.6592
15.1877
14.7596
14.3929
14.0945
13.8623
13.6895
13.5666
13.4833
13.432
13.4046
13.3941
13.3967
13.4089
13.4291
17.2435
17.194
16.965
16.5996
16.1477
15.6624
15.1889
14.7595
14.3924
14.094
13.8621
13.6896
13.5669
13.485
13.4347
13.4078
13.3967
13.3991
13.4114
13.4317
17.2624
17.2113
16.9792
16.61
16.1545
15.6662
15.1905
14.7598
14.3922
14.0937
13.8621
13.69
13.5679
13.486
13.436
13.4094
13.3978
13.4003
13.4129
13.4332
17.2831
17.2303
16.9949
16.6217
16.1624
15.6708
15.1926
14.7602
14.3915
14.0926
13.8607
13.6887
13.567
13.4856
13.4359
13.4095
13.3986
13.4017
13.4145
13.4349
17.3065
17.2515
17.0124
16.6348
16.1712
15.676
15.1951
14.7608
14.3908
14.0908
13.8584
13.6864
13.5651
13.4852
13.4365
13.4104
13.401
13.4047
13.4178
13.4381
17.3311
17.2739
17.031
16.6488
16.1808
15.6818
15.198
14.7616
14.3902
14.0896
13.8569
13.6847
13.5634
13.4833
13.4353
13.4101
13.4012
13.4051
13.4181
13.438
17.3566
17.2973
17.0505
16.6636
16.191
15.6881
15.2012
14.7628
14.3903
14.089
13.8562
13.6841
13.5627
13.482
13.4333
13.4084
13.3995
13.4031
13.4152
13.4347
17.3831
17.3217
17.0709
16.6792
16.2018
15.6949
15.205
14.7644
14.3907
14.089
13.8562
13.6843
13.5631
13.4825
13.434
13.4091
13.4
13.403
13.4139
13.433
17.4105
17.347
17.0922
16.6956
16.2134
15.7023
15.2092
14.7664
14.3912
14.0889
13.8561
13.6843
13.5632
13.4827
13.4341
13.408
13.3985
13.4016
13.4131
13.4324
17.439
17.3735
17.1146
16.713
16.2259
15.7105
15.214
14.7688
14.392
14.0888
13.8558
13.6838
13.5626
13.4817
13.4335
13.4075
13.3982
13.4017
13.4142
13.4339
17.4689
17.4013
17.1383
16.7316
16.2394
15.7195
15.2196
14.7719
14.3934
14.089
13.8551
13.6827
13.5615
13.4808
13.4329
13.4077
13.3986
13.402
13.4143
13.4337
17.5002
17.4305
17.1633
16.7513
16.2539
15.7295
15.226
14.7757
14.3955
14.09
13.8554
13.6829
13.5622
13.4827
13.4348
13.4098
13.4005
13.4031
13.4142
13.4329
17.5331
17.4614
17.1898
16.7724
16.2696
15.7405
15.2333
14.7804
14.3987
14.0925
13.8579
13.6857
13.5653
13.4858
13.4378
13.4123
13.4033
13.4053
13.4161
13.435
17.5677
17.4939
17.2178
16.7948
16.2864
15.7523
15.2412
14.7854
14.4018
14.0946
13.8596
13.687
13.5659
13.4856
13.4371
13.4115
13.4032
13.4065
13.4184
13.4385
17.6044
17.5285
17.2477
16.8188
16.3044
15.765
15.2496
14.7906
14.4047
14.0959
13.86
13.6866
13.5645
13.4839
13.436
13.4122
13.4042
13.4084
13.42
13.4404
17.6432
17.5651
17.2795
16.8444
16.3238
15.7788
15.2588
14.7962
14.4078
14.0974
13.8603
13.686
13.5637
13.4837
13.4363
13.4134
13.4053
13.4082
13.4198
13.4398
17.6842
17.6039
17.3133
16.872
16.3449
15.794
15.2691
14.8028
14.4116
14.0991
13.8607
13.6861
13.5643
13.4842
13.4366
13.4131
13.405
13.4074
13.4199
13.4398
17.7275
17.645
17.3494
16.9016
16.3678
15.8108
15.2807
14.8104
14.4162
14.1016
13.8617
13.6869
13.5654
13.4855
13.4377
13.4134
13.4049
13.4081
13.421
13.4409
17.774
17.6892
17.3884
16.9338
16.3929
15.8294
15.2939
14.8193
14.422
14.1051
13.8634
13.6873
13.5654
13.4856
13.4382
13.4139
13.4052
13.4097
13.4232
13.4431
17.8234
17.7366
17.4303
16.9686
16.4203
15.85
15.3089
14.8298
14.4291
14.1098
13.8664
13.6889
13.5658
13.4856
13.4385
13.4149
13.4076
13.4127
13.4265
13.4463
17.8763
17.7874
17.4755
17.0063
16.4503
15.8728
15.3257
14.8419
14.4378
14.116
13.8711
13.6927
13.5691
13.4889
13.442
13.4187
13.4116
13.417
13.4308
13.4505
17.9326
17.8418
17.524
17.0471
16.4829
15.8979
15.3444
14.8557
14.4479
14.1236
13.8771
13.6978
13.5738
13.4935
13.4467
13.4236
13.4167
13.4221
13.4359
13.4554
17.993
17.9001
17.5763
17.0913
16.5184
15.9254
15.3651
14.8711
14.4594
14.1324
13.8842
13.7039
13.5794
13.499
13.4523
13.4293
13.4225
13.4281
13.4417
13.461
18.0575
17.9625
17.6324
17.1389
16.5569
15.9555
15.388
14.8883
14.4724
14.1425
13.8923
13.7109
13.5859
13.5053
13.4587
13.4358
13.4291
13.4347
13.4483
13.4674
18.1262
18.0294
17.6928
17.1903
16.5988
15.9884
15.4132
14.9074
14.487
14.1539
13.9016
13.719
13.5933
13.5125
13.4659
13.4431
13.4366
13.4422
13.4557
13.4744
18.1994
18.101
17.7578
17.246
16.6444
16.0244
15.4411
14.9287
14.5033
14.1668
13.9122
13.7282
13.6018
13.5207
13.4741
13.4514
13.4449
13.4505
13.4639
13.4823
18.2782
18.1784
17.8283
17.3067
16.6943
16.0641
15.4719
14.9525
14.5218
14.1814
13.9243
13.7387
13.6115
13.5301
13.4834
13.4607
13.4543
13.46
13.4731
13.4912
18.3634
18.2624
17.905
17.3729
16.749
16.1079
15.5062
14.979
14.5425
14.198
13.9381
13.7507
13.6225
13.5406
13.4939
13.4712
13.4649
13.4706
13.4835
13.5012
18.4566
18.3541
17.9889
17.4455
16.8092
16.1562
15.5441
15.0087
14.5658
14.2167
13.9537
13.7643
13.635
13.5527
13.5058
13.4832
13.477
13.4825
13.4953
13.5125
18.5577
18.4537
18.0803
17.5248
16.8751
16.2093
15.5861
15.0416
14.5918
14.2377
13.9713
13.7798
13.6493
13.5664
13.5193
13.4967
13.4905
13.4961
13.5086
13.5253
18.6667
18.5616
18.1794
17.611
16.9471
16.2676
15.6324
15.0782
14.6209
14.2615
13.9913
13.7975
13.6656
13.582
13.5347
13.5121
13.506
13.5115
13.5238
13.54
18.784
18.678
18.2868
17.7048
17.0257
16.3315
15.6835
15.1188
14.6535
14.2881
14.014
13.8175
13.6841
13.5998
13.5523
13.5296
13.5235
13.5289
13.5409
13.5565
18.9108
18.8042
18.4036
17.8071
17.1117
16.4018
15.74
15.164
14.6899
14.3182
14.0396
13.8403
13.7052
13.62
13.5722
13.5495
13.5434
13.5487
13.5604
13.5753
19.048
18.9413
18.5307
17.9188
17.206
16.4792
15.8025
15.2142
14.7307
14.352
14.0686
13.8662
13.7292
13.6432
13.595
13.5722
13.566
13.5712
13.5824
13.5965
19.1971
19.0906
18.6695
18.0411
17.3096
16.5646
15.8718
15.2704
14.7766
14.3903
14.1017
13.8958
13.7568
13.6697
13.621
13.5981
13.5919
13.597
13.6077
13.6209
19.3592
19.2534
18.8213
18.1753
17.4237
16.6591
15.9489
15.3331
14.8281
14.4337
14.1393
13.9296
13.7883
13.7
13.6509
13.6278
13.6216
13.6264
13.6365
13.6485
19.536
19.4314
18.9878
18.3229
17.5496
16.7638
16.0348
15.4034
14.8863
14.4829
14.1822
13.9684
13.8245
13.7348
13.6852
13.662
13.6557
13.6602
13.6697
13.6805
19.7291
19.6264
19.1706
18.4855
17.6888
16.8801
16.1307
15.4824
14.9521
14.5389
14.2313
14.0129
13.8662
13.775
13.7247
13.7013
13.6949
13.6992
13.7079
13.7173
19.9407
19.8406
19.372
18.6651
17.8432
17.0097
16.2381
15.5714
15.0267
14.6028
14.2876
14.0642
13.9144
13.8215
13.7706
13.7469
13.7404
13.7443
13.752
13.7599
20.1728
20.0763
19.5942
18.864
18.0149
17.1544
16.3587
15.672
15.1115
14.6759
14.3524
14.1235
13.9703
13.8756
13.8238
13.7998
13.7931
13.7966
13.8033
13.8092
20.4282
20.3364
19.8402
19.0849
18.2063
17.3165
16.4946
15.786
15.2083
14.7599
14.4273
14.1923
14.0353
13.9385
13.8857
13.8613
13.8545
13.8573
13.8629
13.8666
20.7098
20.6242
20.1132
19.3309
18.4203
17.4987
16.6482
15.9157
15.3192
14.8566
14.514
14.2723
14.1111
14.012
13.9581
13.9327
13.9259
13.9281
13.9322
13.9331
21.0216
20.9437
20.4173
19.606
18.6607
17.7044
16.8226
16.0639
15.4467
14.9686
14.615
14.3658
14.2
14.0983
14.0432
14.0172
14.0099
14.0112
14.0134
14.0113
21.3674
21.2995
20.7571
19.9146
18.9316
17.9375
17.0214
16.234
15.594
15.0988
14.7329
14.4756
14.3046
14.2
14.1434
14.1168
14.1089
14.109
14.1089
14.1032
21.7526
21.6972
21.1384
20.2622
19.2383
18.2028
17.2491
16.4301
15.7651
15.251
14.8716
14.6051
14.4283
14.3204
14.2622
14.2348
14.226
14.2246
14.2218
14.212
22.1831
22.1436
21.5679
20.6556
19.5871
18.5062
17.5113
16.6574
15.9647
15.4297
15.0353
14.7586
14.5753
14.4637
14.4035
14.3751
14.3652
14.3619
14.3559
14.3408
22.6664
22.6466
22.054
21.1028
19.9857
18.8552
17.8149
16.9226
16.1991
15.6409
15.2298
14.9417
14.7511
14.6352
14.5728
14.543
14.5317
14.5259
14.516
14.4949
23.2108
23.2158
22.6065
21.6137
20.4437
19.2588
18.1684
17.2336
16.4762
15.8921
15.4623
15.1614
14.9625
14.8417
14.7765
14.7451
14.7317
14.723
14.7083
14.6797
23.827
23.863
23.238
22.2008
20.9734
19.7288
18.5832
17.6013
16.806
16.1931
15.7424
15.427
15.2187
15.0921
15.0236
14.99
14.974
14.9614
14.9407
14.9028
24.5284
24.6004
23.9631
22.8795
21.5899
20.2798
19.0734
18.0393
17.2018
16.5567
16.0823
15.7506
15.5314
15.398
15.3254
15.2888
15.2694
15.252
15.2234
15.1737
25.3319
25.4509
24.8031
23.6704
22.3133
20.9315
19.6578
18.5657
17.6813
16.9999
16.499
16.1485
15.9167
15.7752
15.6973
15.6568
15.6326
15.6085
15.5698
15.5054
26.2573
26.4365
25.7826
24.599
23.1692
21.7089
20.3611
19.2046
18.2677
17.5457
17.0146
16.6427
16.3961
16.2446
16.16
16.1138
16.083
16.0499
15.998
15.9144
27.3308
27.5871
26.9342
25.699
24.1916
22.6459
21.2164
19.9886
18.9932
18.2255
17.6602
17.2635
16.9996
16.8356
16.7419
16.6876
16.6478
16.6024
16.5328
16.4244
28.5847
28.941
28.2998
27.0144
25.4252
23.7872
22.2685
20.9619
19.9014
19.0824
18.4784
18.0533
17.7686
17.5891
17.483
17.4171
17.3648
17.3023
17.2084
17.0671
30.0622
30.5487
29.9353
28.6038
26.9303
25.1939
23.5785
22.1857
21.0533
20.1773
19.5295
19.0716
18.7624
18.5637
18.44
18.358
18.2875
18.2004
18.0736
17.8882
31.8179
32.4759
31.914
30.5456
28.788
26.9489
25.2302
23.7443
22.5334
21.5945
20.8978
20.4024
20.0644
19.8423
19.6973
19.592
19.4928
19.37
19.1975
18.9521
33.9264
34.8113
34.3351
32.9454
31.1085
29.165
27.3387
25.754
24.4592
23.4521
22.7017
22.164
21.7919
21.5398
21.3649
21.2265
21.0882
20.9162
20.6803
20.3525
36.4825
37.67
37.3285
35.9431
34.0382
31.9938
30.0588
28.3728
26.991
25.9127
25.1052
24.5212
24.1096
23.8204
23.6064
23.4233
23.231
22.9904
22.666
22.2236
39.6145
41.2056
41.0669
39.7244
37.7721
35.6367
33.5976
31.8121
30.3442
29.1954
28.331
27.6995
27.2451
26.9124
26.65
26.4085
26.1427
25.8076
25.3609
24.7595
43.4864
45.6164
45.7732
44.5286
42.5611
40.3535
38.2216
36.3449
34.798
33.5854
32.6704
31.9963
31.501
31.1226
30.804
30.4899
30.1288
29.6674
29.0546
28.2348
48.3153
51.1591
51.7324
50.6601
48.723
46.4712
44.2654
42.3123
40.7008
39.4395
38.4894
37.7874
37.2635
36.8469
36.4724
36.0768
35.5999
34.9784
34.148
33.0344
54.3729
58.1528
59.289
58.4892
56.6434
54.3842
52.129
50.1198
48.4649
47.1789
46.2213
45.5207
44.9971
44.5679
44.1568
43.6872
43.0866
42.2761
41.173
39.6783
62.0089
67.005
68.8159
68.4596
66.7823
64.5547
62.2729
60.2272
58.5529
57.2747
56.3509
55.7004
55.2298
54.8402
54.439
53.932
53.2284
52.2252
50.8116
48.8527
71.6468
78.2874
81.0008
81.1503
79.6818
77.5016
75.198
73.1222
71.4461
70.2106
69.3751
68.8475
68.5169
68.2618
67.9663
67.5101
66.7781
65.6303
63.9137
61.4361
83.7983
92.5144
96.3616
97.1322
95.9074
93.7643
91.411
89.2806
87.598
86.4307
85.7452
85.4377
85.3757
85.4109
85.3937
85.1598
84.573
83.4273
81.5056
78.5276
99.0417
110.32
115.549
117.039
116.047
113.868
111.367
109.092
107.345
106.239
105.758
105.789
106.162
106.725
107.29
107.544
107.475
106.639
104.772
101.46
118.045
132.419
139.278
141.526
140.656
138.243
135.364
132.724
130.746
129.618
129.366
129.889
131.074
132.764
134.442
135.792
136.435
136.202
134.969
131.789
141.542
159.573
168.257
171.172
170.125
167.049
163.313
159.852
157.267
155.872
155.768
156.958
159.384
162.59
166.14
169.543
172.273
173.681
173.427
171.184
170.388
192.608
203.163
206.387
204.49
199.889
194.367
189.203
185.267
183.076
182.859
184.708
188.612
194.012
200.468
207.361
213.899
219.067
221.713
221.21
205.593
232.481
244.642
247.211
243.053
235.292
226.313
217.883
211.262
207.285
206.317
208.571
214.103
222.376
232.94
245.071
257.761
269.573
278.605
282.886
248.536
280.173
292.92
292.773
283.721
269.966
254.805
240.661
229.228
221.596
218.703
220.926
228.326
240.239
256.152
275.552
297.3
319.834
340.71
356.512
301.64
337.139
347.836
340.812
322.184
297.898
272.286
249.209
232.155
220.867
215.918
217.514
225.66
240.024
259.944
287.464
320.943
358.313
396.8
432.15
370.383
406.335
408.613
386.534
350.604
309.203
271.434
239.156
213.816
196.916
188.586
188.692
197.075
214.084
240.291
274.3
316.991
367.805
428.778
492.313
468.025
494.134
471.387
418.669
355.649
294.396
239.932
196.556
164.958
144.586
134.338
133.199
140.437
156.593
182.477
219.515
270.145
337.705
418.416
510.047
625.368
603.038
513.448
410.632
311.816
229.398
166.986
123.187
94.2363
77.3113
69.3957
68.4259
73.4663
85.2753
104.676
134.457
179.163
245.544
341.648
472.547
865.123
660.922
465.181
302.563
186.479
112.288
69.9088
47.4759
37.0955
32.3358
30.4453
30.3061
31.5663
35.1454
43.3972
58.4545
84.4947
129.697
214.55
354.38
770.626
329.68
165.465
83.1031
46.0447
31.4798
24.6581
21.2641
19.4996
18.5341
18.0604
18.0232
18.5451
19.6628
21.4342
24.2528
29.4145
41.1376
79.9386
178.83
326.781
29.9215
25.789
20.1797
17.7544
16.6186
15.8966
15.4149
15.1456
15.0579
15.0997
15.1919
15.2865
15.3597
15.4681
15.7933
16.7234
19.5757
32.3565
96.3218
13.7857
13.7591
13.7131
13.6586
13.5992
13.5393
13.4826
13.433
13.3936
13.3664
13.3526
13.3518
13.3633
13.3853
13.416
13.4531
13.4941
13.5355
13.5743
13.6089
13.8011
13.7741
13.7278
13.6725
13.6124
13.5518
13.495
13.4455
13.406
13.3779
13.3632
13.3614
13.3722
13.3943
13.4262
13.4636
13.5037
13.5433
13.5812
13.6152
13.805
13.7773
13.7293
13.6729
13.6121
13.5513
13.495
13.4467
13.4091
13.3821
13.3672
13.3637
13.3733
13.3949
13.4276
13.4639
13.502
13.5398
13.5771
13.611
13.8051
13.7758
13.7253
13.6678
13.6063
13.5452
13.4891
13.4417
13.406
13.3807
13.3671
13.365
13.375
13.3959
13.4262
13.4603
13.4978
13.5375
13.5753
13.6095
13.802
13.772
13.7218
13.6645
13.6029
13.5415
13.4848
13.4366
13.3994
13.3744
13.362
13.3625
13.3732
13.3937
13.4224
13.4563
13.4957
13.5371
13.5762
13.6104
13.7968
13.7665
13.7176
13.6605
13.5991
13.5378
13.4811
13.4328
13.3954
13.3701
13.3573
13.3565
13.367
13.3878
13.4172
13.4531
13.4932
13.535
13.5745
13.6095
13.7948
13.7635
13.7141
13.6568
13.5952
13.534
13.4775
13.4294
13.392
13.3666
13.3537
13.353
13.3639
13.3851
13.4147
13.4507
13.4907
13.5314
13.5705
13.6067
13.7944
13.7631
13.7136
13.656
13.5939
13.532
13.4752
13.4269
13.3894
13.3642
13.3517
13.3517
13.3639
13.3862
13.4161
13.4517
13.4913
13.5312
13.5695
13.6045
13.7945
13.7642
13.7152
13.6574
13.595
13.5325
13.4743
13.4254
13.3878
13.3627
13.3504
13.351
13.364
13.388
13.4185
13.4541
13.4933
13.5317
13.5689
13.6024
13.7929
13.7635
13.7145
13.6569
13.5945
13.5319
13.4735
13.4248
13.3874
13.3623
13.3499
13.3501
13.3627
13.3877
13.4188
13.4546
13.4944
13.5328
13.5709
13.6053
13.7957
13.7638
13.7152
13.6575
13.5948
13.5316
13.4748
13.4269
13.3895
13.3643
13.3518
13.3517
13.3633
13.3863
13.417
13.4535
13.494
13.5344
13.5733
13.6076
13.7989
13.767
13.7182
13.6589
13.5961
13.5331
13.4764
13.4277
13.3889
13.3631
13.3507
13.3514
13.3631
13.3849
13.4161
13.4542
13.4935
13.535
13.5731
13.606
13.7977
13.7665
13.7168
13.6562
13.5938
13.5323
13.4748
13.4251
13.3854
13.3594
13.347
13.3484
13.3605
13.383
13.414
13.4511
13.4914
13.5323
13.5707
13.6035
13.7959
13.7642
13.7154
13.6562
13.5932
13.5304
13.4725
13.4234
13.3854
13.3599
13.3471
13.3466
13.358
13.38
13.4108
13.4479
13.4886
13.5297
13.5691
13.6026
13.7979
13.7654
13.7156
13.6568
13.5935
13.5299
13.4728
13.4246
13.3875
13.3627
13.3504
13.3501
13.3617
13.3838
13.4148
13.452
13.4924
13.5329
13.5709
13.6048
13.7973
13.7657
13.7158
13.657
13.5953
13.5341
13.4778
13.4301
13.3935
13.3691
13.3572
13.3572
13.369
13.3918
13.4236
13.4612
13.5015
13.5417
13.5791
13.6118
13.7969
13.7668
13.719
13.663
13.6027
13.5423
13.4866
13.4394
13.4025
13.3767
13.3635
13.3627
13.3747
13.3981
13.4288
13.4661
13.5055
13.5456
13.5829
13.6145
13.8009
13.7712
13.7225
13.6657
13.6047
13.5445
13.4896
13.4434
13.4064
13.3793
13.365
13.364
13.3763
13.4001
13.4293
13.4653
13.5046
13.5451
13.5822
13.6132
13.8047
13.7741
13.7247
13.6671
13.6047
13.5447
13.4896
13.4428
13.4059
13.3796
13.3668
13.3662
13.3778
13.4005
13.4297
13.4641
13.5042
13.5442
13.5812
13.6125
13.8086
13.7762
13.7271
13.67
13.6073
13.5463
13.4905
13.4431
13.4081
13.3845
13.3727
13.3723
13.3834
13.4044
13.4333
13.467
13.5037
13.5422
13.5787
13.6097
13.8148
13.7795
13.7279
13.6705
13.6085
13.5469
13.4925
13.4475
13.4127
13.3878
13.3755
13.3749
13.386
13.4073
13.4369
13.4695
13.5053
13.543
13.5791
13.6112
13.8194
13.7829
13.7318
13.6741
13.6126
13.552
13.4968
13.4508
13.4145
13.3881
13.3754
13.3749
13.3859
13.4071
13.4369
13.4699
13.5074
13.5459
13.5827
13.6158
13.8188
13.7838
13.7337
13.6764
13.6152
13.5538
13.4966
13.4495
13.4141
13.3911
13.3804
13.3807
13.392
13.4128
13.441
13.4739
13.5111
13.5499
13.5876
13.6218
13.8178
13.7842
13.7334
13.6762
13.6147
13.5522
13.4943
13.4473
13.4131
13.3933
13.3837
13.3845
13.3961
13.4171
13.4452
13.4772
13.5144
13.5535
13.5915
13.6262
13.8211
13.7872
13.7356
13.6777
13.6149
13.5519
13.4957
13.449
13.4142
13.3929
13.3825
13.3831
13.3949
13.4162
13.4453
13.4791
13.5177
13.5572
13.5949
13.6291
13.826
13.7919
13.74
13.6806
13.6183
13.5571
13.5015
13.4548
13.4191
13.3957
13.3845
13.3849
13.3968
13.4188
13.4491
13.485
13.5239
13.5631
13.5999
13.6327
13.8319
13.7989
13.748
13.6884
13.6251
13.5619
13.5052
13.4579
13.4219
13.3986
13.3882
13.3901
13.4036
13.4269
13.4582
13.4948
13.534
13.5724
13.6078
13.6388
13.8378
13.8049
13.7525
13.6917
13.6274
13.5645
13.5079
13.4601
13.4232
13.4005
13.3912
13.3941
13.4077
13.4302
13.4615
13.4988
13.5387
13.5786
13.6146
13.6454
13.8404
13.807
13.7534
13.6922
13.628
13.5668
13.5111
13.4637
13.4265
13.4041
13.3938
13.3962
13.4091
13.4305
13.4617
13.4991
13.5394
13.5793
13.6153
13.6467
13.8403
13.8071
13.7538
13.6931
13.6287
13.566
13.5113
13.4647
13.4285
13.4051
13.3945
13.3968
13.409
13.4303
13.4611
13.4989
13.54
13.5783
13.6141
13.6455
13.8416
13.8066
13.7517
13.6914
13.6274
13.5654
13.5111
13.4647
13.4291
13.4053
13.3958
13.3966
13.408
13.4277
13.4585
13.4967
13.5389
13.5774
13.6129
13.6437
13.844
13.8071
13.7523
13.6904
13.6263
13.5651
13.5092
13.4624
13.4271
13.4043
13.3938
13.3948
13.4069
13.4281
13.4591
13.4965
13.5373
13.5749
13.6104
13.6412
13.8487
13.8117
13.757
13.6952
13.631
13.5683
13.5113
13.4639
13.4284
13.4057
13.3956
13.3974
13.4106
13.4336
13.4643
13.5005
13.5396
13.5781
13.6136
13.6442
13.8544
13.8183
13.7651
13.7036
13.6385
13.5743
13.5153
13.4668
13.4309
13.4084
13.3989
13.4017
13.417
13.4412
13.4723
13.5077
13.5454
13.5832
13.6183
13.6486
13.8589
13.8226
13.7694
13.7079
13.6416
13.576
13.5159
13.4671
13.4311
13.4087
13.3995
13.4028
13.4191
13.444
13.4753
13.5113
13.5493
13.5875
13.6229
13.6534
13.8625
13.8251
13.771
13.7091
13.6415
13.5752
13.5157
13.4668
13.4307
13.4082
13.3989
13.4019
13.4171
13.4424
13.4757
13.5144
13.553
13.5917
13.6274
13.6582
13.8665
13.8279
13.7725
13.7092
13.6405
13.5746
13.5152
13.4665
13.4307
13.4085
13.3993
13.4021
13.4167
13.4422
13.4785
13.5182
13.5566
13.5957
13.6319
13.6629
13.8711
13.8308
13.7727
13.7087
13.6407
13.5749
13.5154
13.4666
13.4309
13.4088
13.3997
13.4026
13.4174
13.4434
13.4792
13.5187
13.559
13.5996
13.6366
13.6678
13.8771
13.8355
13.7756
13.7094
13.6423
13.5741
13.5144
13.4646
13.428
13.4059
13.3974
13.4016
13.4187
13.4448
13.4792
13.5195
13.5627
13.6048
13.6424
13.6736
13.8845
13.8417
13.7803
13.7123
13.6433
13.5763
13.5167
13.4659
13.4291
13.4072
13.3993
13.4048
13.4221
13.4469
13.4822
13.5242
13.5687
13.6116
13.6497
13.6808
13.8934
13.8495
13.7866
13.7165
13.6448
13.5777
13.5175
13.4683
13.4326
13.4109
13.4026
13.4069
13.4234
13.4502
13.4874
13.5309
13.5764
13.6201
13.6583
13.6893
13.9039
13.859
13.7949
13.7233
13.6497
13.5798
13.5186
13.4702
13.4344
13.4127
13.4043
13.408
13.426
13.4558
13.4947
13.5394
13.5858
13.6299
13.6683
13.699
13.9159
13.8703
13.8053
13.7325
13.6577
13.5865
13.5239
13.4734
13.437
13.4155
13.4079
13.4138
13.4332
13.4642
13.5041
13.5496
13.5966
13.6411
13.6796
13.71
13.9294
13.8831
13.8173
13.7435
13.6677
13.5957
13.5324
13.4813
13.4447
13.4233
13.4161
13.4225
13.4426
13.4743
13.515
13.5612
13.6089
13.6538
13.6923
13.7224
13.9444
13.8975
13.8308
13.7562
13.6794
13.6065
13.5425
13.4911
13.4543
13.4329
13.4259
13.4329
13.4535
13.486
13.5274
13.5744
13.6227
13.668
13.7066
13.7364
13.9612
13.9136
13.8461
13.7704
13.6926
13.6189
13.5542
13.5023
13.4653
13.444
13.4373
13.4446
13.4659
13.4991
13.5414
13.5892
13.6381
13.6839
13.7226
13.7521
13.9799
13.9317
13.8632
13.7865
13.7077
13.633
13.5676
13.5152
13.4779
13.4567
13.4502
13.458
13.48
13.514
13.5571
13.6058
13.6554
13.7017
13.7406
13.7698
14.0009
13.9519
13.8826
13.8047
13.7248
13.649
13.5828
13.5299
13.4924
13.4712
13.4649
13.4733
13.4959
13.5308
13.5748
13.6244
13.6748
13.7216
13.7607
13.7896
14.0243
13.9747
13.9043
13.8253
13.7442
13.6674
13.6003
13.5468
13.509
13.4878
13.4818
13.4907
13.514
13.5498
13.5949
13.6454
13.6967
13.7441
13.7833
13.8118
14.0506
14.0003
13.929
13.8487
13.7662
13.6882
13.6202
13.5661
13.5279
13.5067
13.501
13.5105
13.5346
13.5714
13.6175
13.6691
13.7213
13.7693
13.8086
13.8367
14.0802
14.0292
13.9568
13.8753
13.7914
13.7121
13.6431
13.5882
13.5497
13.5285
13.523
13.5331
13.5581
13.5959
13.6432
13.696
13.7491
13.7977
13.8372
13.8648
14.1135
14.0618
13.9884
13.9054
13.8201
13.7395
13.6693
13.6137
13.5747
13.5535
13.5483
13.559
13.585
13.6239
13.6724
13.7264
13.7805
13.8299
13.8695
13.8965
14.1512
14.0988
14.0243
13.9399
13.8529
13.7709
13.6994
13.643
13.6035
13.5822
13.5773
13.5888
13.6157
13.6559
13.7057
13.761
13.8163
13.8663
13.9061
13.9324
14.1939
14.1409
14.0652
13.9793
13.8906
13.807
13.7342
13.6768
13.6368
13.6154
13.6108
13.6231
13.6511
13.6926
13.7438
13.8005
13.8569
13.9077
13.9476
13.9731
14.2425
14.1888
14.1121
14.0245
13.934
13.8486
13.7744
13.7159
13.6753
13.6539
13.6497
13.6627
13.6919
13.7348
13.7876
13.8458
13.9034
13.955
13.9949
14.0195
14.2978
14.2436
14.1657
14.0765
13.984
13.8968
13.8211
13.7615
13.7202
13.6986
13.6948
13.7087
13.7391
13.7836
13.8379
13.8978
13.9567
14.0091
14.0489
14.0724
14.3611
14.3065
14.2275
14.1365
14.042
13.9528
13.8753
13.8145
13.7725
13.7508
13.7474
13.7623
13.794
13.8401
13.8962
13.9578
14.0181
14.0713
14.111
14.1331
14.4338
14.3788
14.2988
14.206
14.1093
14.018
13.9387
13.8765
13.8337
13.8119
13.8089
13.8248
13.858
13.9059
13.9639
14.0272
14.089
14.143
14.1824
14.2029
14.5176
14.4624
14.3815
14.2868
14.1878
14.0942
14.013
13.9494
13.9056
13.8836
13.881
13.8982
13.9329
13.9827
14.0428
14.1081
14.1713
14.226
14.265
14.2836
14.6145
14.5594
14.4777
14.3811
14.2797
14.1837
14.1004
14.0352
13.9905
13.9682
13.9662
13.9846
14.021
14.0729
14.1351
14.2024
14.2673
14.3227
14.361
14.3774
14.7271
14.6725
14.5902
14.4916
14.3878
14.2892
14.2036
14.1367
14.091
14.0685
14.0671
14.0869
14.1251
14.1791
14.2436
14.3132
14.3797
14.4358
14.4732
14.4868
14.8587
14.8049
14.7222
14.6219
14.5154
14.4142
14.3262
14.2574
14.2106
14.188
14.1873
14.2084
14.2486
14.3049
14.3719
14.4437
14.5118
14.5684
14.6046
14.6149
15.013
14.9607
14.8782
14.7762
14.6671
14.5631
14.4725
14.4018
14.3537
14.3309
14.331
14.3537
14.3959
14.4546
14.5242
14.5984
14.6681
14.7251
14.7595
14.7657
15.1949
15.145
15.0633
14.9599
14.8483
14.7413
14.648
14.5752
14.5258
14.5028
14.5039
14.5281
14.5725
14.6339
14.7062
14.7828
14.854
14.9109
14.943
14.9441
15.4102
15.3643
15.2845
15.1803
15.0662
14.9563
14.8602
14.7851
14.7343
14.711
14.7132
14.7392
14.7858
14.85
14.925
15.004
15.0765
15.133
15.1619
15.1564
15.6686
15.6278
15.5511
15.4466
15.3303
15.2174
15.1183
15.0408
14.9884
14.965
14.9683
14.9961
15.0452
15.1122
15.1899
15.2712
15.3447
15.3999
15.4245
15.4107
15.9805
15.9467
15.8747
15.7709
15.6529
15.5372
15.4351
15.3551
15.3009
15.2772
15.2819
15.3116
15.3632
15.4329
15.5133
15.5965
15.6703
15.7234
15.7421
15.7178
16.3591
16.3356
16.2709
16.1693
16.0504
15.9323
15.8274
15.7446
15.6886
15.6646
15.6707
15.7024
15.7563
15.8286
15.9113
15.9959
16.0692
16.1187
16.1296
16.0913
16.8231
16.8142
16.7606
16.6636
16.5452
16.4255
16.3179
16.2324
16.1743
16.15
16.1576
16.1911
16.2471
16.3216
16.4059
16.4909
16.5622
16.6061
16.606
16.5496
17.3972
17.409
17.3719
17.2831
17.1675
17.0473
16.9377
16.8496
16.7892
16.7645
16.7737
16.8088
16.8663
16.942
17.0268
17.1105
17.1777
17.2128
17.1976
17.117
18.1147
18.1555
18.1428
18.0677
17.9586
17.8402
17.7296
17.6392
17.5763
17.5509
17.5617
17.5977
17.6557
17.7313
17.8146
17.8947
17.9542
17.9763
17.9398
17.8274
19.0204
19.1004
19.1244
19.0718
18.9748
18.8618
18.7521
18.6599
18.5942
18.5679
18.58
18.6158
18.6727
18.7458
18.8247
18.8972
18.9444
18.947
18.8807
18.7259
20.1766
20.2982
20.3859
20.3693
20.2931
20.1908
20.0851
19.9921
19.9232
19.8954
19.9082
19.9421
19.995
20.0622
20.1322
20.1917
20.2196
20.1937
20.0862
19.875
21.6851
21.8708
22.0278
22.0612
22.0169
21.9328
21.8354
21.7435
21.6708
21.6401
21.6525
21.6816
21.7267
21.7828
21.8376
21.8763
21.875
21.8078
21.645
21.3591
23.6573
23.9326
24.1523
24.2746
24.2808
24.2265
24.1441
24.0559
23.9787
23.9428
23.9524
23.9727
24.0045
24.0427
24.0738
24.0815
24.0386
23.9149
23.6782
23.292
26.2436
26.6525
26.9708
27.1852
27.2604
27.2502
27.1916
27.1114
27.0285
26.9828
26.9857
26.9919
27.0032
27.0144
27.011
26.9742
26.8735
26.6744
26.3411
25.8231
29.6427
30.2189
30.6731
30.9668
31.168
31.2243
31.2028
31.1374
31.0473
30.9831
30.9726
30.9596
30.9424
30.9155
30.8637
30.7656
30.5849
30.2912
29.8374
29.1467
34.1148
34.9276
35.595
35.9802
36.2833
36.4208
36.4518
36.4097
36.3133
36.2147
36.1729
36.1495
36.0936
36.0146
35.8983
35.7209
35.442
35.03
34.4175
33.5059
39.9559
41.0547
41.9694
42.492
42.8523
43.1459
43.2685
43.2764
43.1993
43.0814
42.9879
42.9142
42.795
42.6426
42.4403
42.1583
41.7645
41.212
40.3942
39.2051
47.5162
48.9857
50.2414
50.9891
51.4241
51.7744
52.0635
52.1452
52.1073
51.9905
51.8363
51.6679
51.4599
51.2124
50.9049
50.5064
49.9671
49.2157
48.1427
46.6147
57.2595
59.1975
60.8877
61.95
62.5656
62.9956
63.3795
63.535
63.5294
63.4053
63.1977
62.9364
62.6261
62.2595
61.8146
61.258
60.5264
59.5338
58.1537
56.2111
69.7631
72.2942
74.5352
75.9986
76.8954
77.4126
77.82
78.1721
78.234
78.1165
77.8625
77.5082
77.0713
76.5498
75.9212
75.1496
74.1629
72.865
71.0997
68.6333
85.7846
89.0896
92.0533
94.0354
95.3197
96.0965
96.6569
97.1499
97.309
97.2276
96.9466
96.5027
95.916
95.1947
94.3245
93.2695
91.9453
90.236
87.9481
84.7845
106.42
110.776
114.746
117.479
119.333
120.53
121.256
121.819
122.264
122.308
122.043
121.52
120.772
119.817
118.643
117.208
115.416
113.129
110.108
105.988
133.262
139.064
144.444
148.256
150.927
152.758
153.922
154.669
155.316
155.68
155.508
154.943
154.033
152.803
151.242
149.304
146.879
143.791
139.746
134.295
168.744
176.552
183.903
189.252
193.106
195.866
197.808
199.093
200.008
200.658
200.676
200.166
199.161
197.677
195.69