/*--------------------------------*- C++ -*----------------------------------*\
  =========                 |
  \\      /  F ield         | OpenFOAM: The Open Source CFD Toolbox
   \\    /   O peration     | Website:  https://openfoam.org
    \\  /    A nd           | Version:  6
     \\/     M anipulation  |
\*---------------------------------------------------------------------------*/
FoamFile
{
    version     2.0;
    format      ascii;
    class       volScalarField;
    location    "6";
    object      k;
}
// * * * * * * * * * * * * * * * * * * * * * * * * * * * * * * * * * * * * * //

dimensions      [0 2 -2 0 0 0 0];

internalField   nonuniform List<scalar> 
130000
(
0.409594
0.410184
0.40844
0.40474
0.399612
0.393669
0.387499
0.381579
0.376238
0.371655
0.367893
0.364925
0.362675
0.36104
0.359912
0.359186
0.358771
0.358586
0.358568
0.358674
0.409789
0.410464
0.408744
0.405014
0.399828
0.393822
0.387599
0.381644
0.376286
0.371703
0.367949
0.364995
0.362762
0.361143
0.360028
0.359314
0.358906
0.358727
0.358713
0.358821
0.409944
0.410655
0.408943
0.405195
0.399974
0.39393
0.387676
0.381698
0.376326
0.371734
0.367976
0.365021
0.362786
0.361168
0.360054
0.359339
0.358931
0.358749
0.358733
0.358841
0.41005
0.410756
0.409032
0.405266
0.400027
0.393965
0.387696
0.381707
0.376327
0.371729
0.367968
0.365009
0.362771
0.361149
0.360033
0.359316
0.358906
0.358722
0.358705
0.358812
0.410114
0.4108
0.40905
0.405264
0.400007
0.393933
0.387656
0.381663
0.376283
0.371689
0.367931
0.364977
0.362743
0.361123
0.360008
0.359292
0.358884
0.358702
0.358686
0.358794
0.410162
0.410816
0.409036
0.405223
0.399946
0.393858
0.387575
0.381583
0.376208
0.371622
0.367874
0.364929
0.362703
0.361089
0.359979
0.359268
0.358863
0.358684
0.358671
0.358779
0.410199
0.410811
0.408999
0.405157
0.399859
0.393758
0.38747
0.381481
0.376114
0.371539
0.367803
0.36487
0.362654
0.36105
0.359948
0.359246
0.358851
0.358679
0.35867
0.358781
0.410219
0.410797
0.408949
0.405078
0.399758
0.393644
0.387353
0.381368
0.376011
0.371448
0.367726
0.364805
0.362601
0.361007
0.359915
0.359221
0.358834
0.358666
0.358661
0.358777
0.410246
0.41079
0.408904
0.405002
0.399659
0.393532
0.387238
0.381256
0.375908
0.371358
0.367649
0.364742
0.36255
0.360968
0.359884
0.359196
0.358812
0.358653
0.358652
0.358769
0.410281
0.410787
0.408866
0.404934
0.399568
0.393428
0.387128
0.38115
0.37581
0.371272
0.367576
0.364682
0.362503
0.360932
0.35986
0.35918
0.358799
0.358643
0.358644
0.35876
0.410327
0.410795
0.408845
0.404881
0.399491
0.393336
0.387031
0.381054
0.375721
0.371194
0.36751
0.364629
0.362462
0.360901
0.359837
0.359161
0.358781
0.358622
0.358625
0.358747
0.410389
0.410824
0.408842
0.404844
0.399429
0.393258
0.386944
0.380968
0.375641
0.371123
0.367452
0.364583
0.362428
0.360878
0.359819
0.359149
0.358776
0.358623
0.35863
0.358752
0.410463
0.410863
0.408844
0.404817
0.399378
0.39319
0.386868
0.38089
0.375569
0.37106
0.3674
0.364545
0.362404
0.360867
0.359818
0.359154
0.358784
0.358629
0.358628
0.358744
0.410557
0.410921
0.40886
0.404802
0.399337
0.393131
0.386799
0.380819
0.375502
0.371002
0.367354
0.364512
0.362384
0.360856
0.359812
0.359153
0.358784
0.358626
0.358619
0.358735
0.410654
0.410985
0.408889
0.404799
0.399303
0.393076
0.386733
0.380751
0.375438
0.370948
0.367312
0.364483
0.362369
0.360848
0.359812
0.359159
0.358797
0.358645
0.358648
0.358761
0.410754
0.411057
0.408924
0.4048
0.399276
0.393026
0.386671
0.380686
0.375378
0.370896
0.367271
0.364454
0.362352
0.360846
0.359825
0.359181
0.358822
0.358666
0.358668
0.358775
0.410867
0.411143
0.408974
0.404812
0.39926
0.392988
0.386618
0.380629
0.375323
0.370848
0.367232
0.364423
0.362327
0.360829
0.359818
0.35918
0.358825
0.358663
0.358662
0.35877
0.41101
0.411258
0.409052
0.404852
0.399266
0.392972
0.386586
0.380588
0.37528
0.37081
0.367201
0.3644
0.362311
0.360819
0.359808
0.359171
0.358815
0.358657
0.358659
0.358779
0.411183
0.411403
0.409159
0.404921
0.399301
0.39298
0.386578
0.380569
0.375256
0.370787
0.367182
0.364386
0.362302
0.360812
0.359802
0.359167
0.358811
0.358665
0.358675
0.358801
0.411371
0.411568
0.409288
0.405011
0.399356
0.393007
0.386585
0.380565
0.375246
0.370774
0.367169
0.364376
0.362292
0.360801
0.359795
0.359167
0.358824
0.358686
0.358702
0.358831
0.411575
0.411753
0.409438
0.405121
0.399427
0.393047
0.386603
0.380568
0.375241
0.370765
0.36716
0.364367
0.362287
0.360805
0.359807
0.359187
0.35885
0.358717
0.358736
0.358868
0.411797
0.411956
0.409606
0.405246
0.399512
0.393098
0.386628
0.380576
0.37524
0.370759
0.367154
0.364366
0.362292
0.360819
0.359828
0.359216
0.358885
0.358757
0.35878
0.358913
0.412039
0.412176
0.409788
0.405384
0.399607
0.393156
0.386659
0.380589
0.375243
0.37076
0.367156
0.364373
0.362308
0.360843
0.359861
0.359257
0.358934
0.358811
0.358837
0.358971
0.412292
0.41241
0.409983
0.405534
0.399711
0.393223
0.386696
0.380607
0.375251
0.370764
0.367164
0.364389
0.362334
0.360879
0.359907
0.359311
0.358994
0.358876
0.358904
0.359038
0.41256
0.41266
0.410196
0.405699
0.399829
0.393299
0.386741
0.38063
0.375261
0.37077
0.36717
0.3644
0.36235
0.360898
0.359928
0.359335
0.359021
0.358906
0.358935
0.35907
0.412854
0.412934
0.41043
0.405882
0.399961
0.393387
0.386793
0.380658
0.375272
0.370772
0.367169
0.364398
0.362348
0.360896
0.359927
0.359334
0.35902
0.358903
0.358927
0.359059
0.413177
0.413235
0.410686
0.406084
0.400108
0.393486
0.386854
0.38069
0.375286
0.370773
0.367162
0.364387
0.362339
0.360889
0.359922
0.359329
0.359013
0.358892
0.358916
0.359054
0.413519
0.413554
0.41096
0.406301
0.400268
0.393594
0.386922
0.380727
0.375302
0.370776
0.367157
0.364377
0.362328
0.360881
0.359918
0.359328
0.359011
0.358887
0.358916
0.359056
0.413876
0.413889
0.411248
0.40653
0.400438
0.393712
0.386996
0.38077
0.375322
0.370782
0.367155
0.36437
0.362317
0.360875
0.359915
0.359328
0.359015
0.358894
0.35892
0.359048
0.414248
0.414238
0.41155
0.406773
0.400619
0.393838
0.387077
0.380817
0.375347
0.370791
0.367154
0.364363
0.362306
0.360858
0.359896
0.359311
0.359004
0.358895
0.358923
0.359051
0.414633
0.414602
0.411866
0.407028
0.400811
0.393973
0.387167
0.380872
0.375376
0.370804
0.367158
0.364364
0.362305
0.360855
0.359894
0.359313
0.35901
0.358897
0.358927
0.35906
0.415033
0.414982
0.412197
0.407296
0.401016
0.394119
0.387265
0.380934
0.375412
0.370824
0.367168
0.36437
0.362312
0.360864
0.359905
0.359324
0.359019
0.358898
0.358924
0.359055
0.415452
0.415379
0.412546
0.407581
0.401234
0.394278
0.387374
0.381005
0.375457
0.37085
0.367182
0.364376
0.362316
0.360868
0.359908
0.359324
0.359012
0.358887
0.358911
0.359042
0.415891
0.415797
0.412913
0.407882
0.401468
0.394449
0.387494
0.381086
0.37551
0.370885
0.367206
0.364393
0.362327
0.360877
0.359915
0.359329
0.359018
0.358898
0.358923
0.359052
0.416352
0.416237
0.413301
0.408203
0.401718
0.394635
0.387627
0.381177
0.375573
0.370929
0.36724
0.364423
0.362358
0.360911
0.35995
0.359359
0.359044
0.358922
0.358947
0.359074
0.416835
0.416701
0.413712
0.408544
0.401986
0.394835
0.38777
0.381277
0.37564
0.370975
0.367273
0.364451
0.362386
0.360942
0.359981
0.359385
0.359069
0.358948
0.358972
0.3591
0.417347
0.417192
0.414148
0.408908
0.402273
0.395052
0.387927
0.381385
0.375714
0.371024
0.367305
0.364472
0.362402
0.360957
0.359996
0.359402
0.35909
0.358973
0.359
0.359129
0.41789
0.417713
0.414613
0.409297
0.402583
0.395287
0.388098
0.381505
0.375795
0.371077
0.367339
0.364493
0.362412
0.360962
0.360002
0.359417
0.359112
0.359
0.35903
0.35916
0.418464
0.418267
0.415108
0.409714
0.402917
0.395543
0.388287
0.381641
0.375889
0.371141
0.367383
0.364522
0.362432
0.360974
0.360016
0.359441
0.359143
0.359034
0.359066
0.359196
0.419071
0.418855
0.415636
0.410162
0.403278
0.395823
0.388497
0.381794
0.375999
0.37122
0.36744
0.364566
0.362469
0.361008
0.360051
0.359479
0.359184
0.359077
0.359109
0.359237
0.419717
0.419481
0.416201
0.410643
0.40367
0.396129
0.388729
0.381966
0.376127
0.371315
0.367513
0.364625
0.362521
0.361057
0.360101
0.35953
0.359236
0.359129
0.35916
0.359285
0.420404
0.420148
0.416805
0.411161
0.404094
0.396463
0.388985
0.382159
0.376272
0.371425
0.3676
0.364698
0.362585
0.361118
0.360161
0.359591
0.359297
0.35919
0.35922
0.359342
0.421133
0.420859
0.417452
0.411717
0.404552
0.396828
0.389268
0.382374
0.376435
0.371551
0.367701
0.364782
0.36266
0.361189
0.360231
0.359661
0.359368
0.359261
0.35929
0.359409
0.421907
0.421611
0.418142
0.412316
0.405048
0.397225
0.389577
0.382613
0.376618
0.371694
0.367816
0.364879
0.362747
0.36127
0.36031
0.359741
0.359449
0.359341
0.359368
0.359484
0.42274
0.422425
0.418887
0.412963
0.405587
0.397658
0.389918
0.382876
0.376822
0.371855
0.367946
0.36499
0.362846
0.361364
0.360402
0.359833
0.35954
0.359432
0.359457
0.359569
0.42363
0.423298
0.419688
0.41366
0.406169
0.398129
0.39029
0.383167
0.37705
0.372035
0.368093
0.365115
0.362959
0.36147
0.360505
0.359935
0.359643
0.359535
0.359558
0.359665
0.424579
0.424232
0.420548
0.414412
0.4068
0.398642
0.390698
0.383488
0.377302
0.372237
0.368259
0.365258
0.363087
0.36159
0.360622
0.360052
0.359759
0.359651
0.359671
0.359775
0.42559
0.425232
0.421472
0.415223
0.407484
0.399201
0.391146
0.383842
0.377583
0.372462
0.368446
0.365418
0.363231
0.361726
0.360754
0.360183
0.35989
0.35978
0.359799
0.359897
0.426672
0.426305
0.422468
0.416101
0.408228
0.399812
0.391637
0.384234
0.377895
0.372715
0.368656
0.3656
0.363395
0.36188
0.360904
0.360331
0.360038
0.359927
0.359943
0.360036
0.427839
0.427466
0.423547
0.417055
0.409038
0.400481
0.392178
0.384666
0.378242
0.372997
0.368892
0.365805
0.36358
0.362053
0.361072
0.360497
0.360203
0.360091
0.360103
0.360191
0.429104
0.428724
0.424719
0.418094
0.409924
0.401214
0.392773
0.385146
0.378629
0.373314
0.369158
0.366036
0.363789
0.36225
0.361262
0.360685
0.360389
0.360276
0.360284
0.360365
0.430473
0.430088
0.425992
0.419224
0.41089
0.402017
0.393428
0.385676
0.379059
0.373668
0.369457
0.366297
0.364026
0.362473
0.361477
0.360897
0.3606
0.360484
0.360489
0.360562
0.431948
0.431561
0.42737
0.420451
0.411943
0.402895
0.394148
0.386262
0.379537
0.374064
0.369794
0.366593
0.364296
0.362726
0.361723
0.361139
0.36084
0.360721
0.36072
0.360784
0.433536
0.433151
0.428861
0.421783
0.413089
0.403856
0.39494
0.386909
0.380069
0.374507
0.370172
0.366927
0.364601
0.363015
0.362002
0.361414
0.361112
0.36099
0.360983
0.361037
0.435247
0.43487
0.430477
0.423231
0.41434
0.404909
0.395811
0.387626
0.38066
0.375003
0.370599
0.367306
0.364948
0.363343
0.36232
0.361727
0.361423
0.361297
0.361283
0.361326
0.437095
0.436732
0.432232
0.424808
0.415706
0.406063
0.39677
0.388419
0.381319
0.375559
0.371079
0.367734
0.365342
0.363717
0.362683
0.362084
0.361776
0.361646
0.361624
0.361653
0.439098
0.438752
0.434142
0.426528
0.417202
0.407331
0.39783
0.3893
0.382056
0.376184
0.371622
0.36822
0.365791
0.364143
0.363097
0.362492
0.362179
0.362044
0.362013
0.362028
0.441269
0.440948
0.436222
0.428407
0.418841
0.408727
0.399002
0.390279
0.382879
0.376887
0.372236
0.368772
0.366302
0.36463
0.36357
0.362958
0.36264
0.362499
0.362458
0.362457
0.443628
0.443341
0.438494
0.430466
0.420643
0.410268
0.400301
0.391371
0.383802
0.37768
0.372933
0.369402
0.366888
0.365188
0.364113
0.363493
0.363169
0.363022
0.362969
0.362948
0.446195
0.44595
0.440979
0.432724
0.422628
0.411972
0.401745
0.392592
0.38484
0.378577
0.373726
0.370121
0.367558
0.365828
0.364736
0.364107
0.363777
0.363621
0.363555
0.36351
0.448997
0.448805
0.443704
0.435208
0.424818
0.413861
0.403354
0.393959
0.38601
0.379594
0.37463
0.370945
0.368329
0.366567
0.365456
0.364816
0.364478
0.364312
0.364229
0.364159
0.45206
0.451934
0.446698
0.437945
0.42724
0.415959
0.405151
0.395495
0.387333
0.380751
0.375663
0.371892
0.369218
0.367419
0.366287
0.365635
0.365287
0.36511
0.365008
0.364908
0.455415
0.45537
0.449997
0.44097
0.429928
0.418297
0.407164
0.397225
0.388832
0.38207
0.376849
0.372983
0.370246
0.368407
0.367252
0.366585
0.366227
0.366036
0.365913
0.365778
0.459103
0.459156
0.453639
0.444322
0.432917
0.420911
0.409426
0.399182
0.390538
0.38358
0.378213
0.374244
0.371438
0.369556
0.368374
0.367691
0.36732
0.367111
0.366962
0.366786
0.46316
0.463329
0.457669
0.448045
0.436253
0.423842
0.411977
0.401402
0.392486
0.385316
0.37979
0.375708
0.372826
0.370895
0.369684
0.368983
0.368596
0.368368
0.368189
0.367968
0.467635
0.467947
0.462145
0.452195
0.439988
0.427141
0.414865
0.403932
0.39472
0.387318
0.381619
0.377414
0.374448
0.372464
0.37122
0.370497
0.370092
0.369842
0.369626
0.369352
0.472591
0.473076
0.467132
0.456838
0.444186
0.43087
0.418149
0.406827
0.397293
0.389639
0.38375
0.37941
0.376353
0.37431
0.373029
0.37228
0.371853
0.371578
0.371317
0.370981
0.478095
0.47879
0.47271
0.462053
0.448925
0.435102
0.4219
0.410154
0.400271
0.392341
0.386245
0.381757
0.378599
0.37649
0.375167
0.374389
0.373936
0.373628
0.373316
0.372904
0.484232
0.485182
0.478972
0.467935
0.454297
0.439928
0.426205
0.414
0.403735
0.395504
0.389182
0.384531
0.381262
0.37908
0.37771
0.376898
0.376413
0.376064
0.37569
0.375188
0.491095
0.492357
0.486032
0.474596
0.460415
0.445458
0.431171
0.418468
0.407787
0.399228
0.392657
0.387828
0.384435
0.382172
0.380748
0.379897
0.379375
0.378971
0.378521
0.377909
0.498805
0.500447
0.494028
0.482181
0.467421
0.451833
0.436936
0.423691
0.412557
0.403638
0.396796
0.391768
0.388239
0.385884
0.3844
0.383504
0.382929
0.382458
0.381915
0.381169
0.507499
0.50961
0.503128
0.490859
0.475488
0.459223
0.443668
0.429835
0.418208
0.408896
0.401754
0.396508
0.392825
0.390365
0.388809
0.387853
0.387214
0.386661
0.386002
0.38509
0.517354
0.520042
0.513544
0.500851
0.484837
0.467849
0.451586
0.437116
0.424953
0.415211
0.407739
0.40225
0.398395
0.395814
0.394169
0.393138
0.392419
0.391761
0.390955
0.389839
0.528577
0.531983
0.525533
0.512425
0.495745
0.47799
0.460968
0.445811
0.433064
0.422852
0.415018
0.409259
0.405208
0.402487
0.400734
0.399605
0.398781
0.397988
0.396996
0.395623
0.541437
0.545738
0.539429
0.525933
0.508569
0.49001
0.472179
0.456284
0.442907
0.432183
0.423949
0.417889
0.413614
0.410726
0.40884
0.407585
0.406622
0.405653
0.404421
0.402724
0.556259
0.561687
0.55565
0.541815
0.523769
0.504376
0.485694
0.469012
0.454958
0.443678
0.435005
0.428608
0.424076
0.420988
0.418933
0.417513
0.416365
0.415162
0.413621
0.41151
0.573468
0.580321
0.574738
0.560652
0.54195
0.521713
0.502147
0.484638
0.469862
0.457983
0.448831
0.442056
0.437227
0.433897
0.431624
0.429987
0.428592
0.42708
0.425136
0.422492
0.593589
0.602264
0.597391
0.583194
0.5639
0.542834
0.522374
0.50401
0.488479
0.475964
0.466293
0.459098
0.453925
0.450298
0.447748
0.445821
0.444093
0.442168
0.439691
0.436356
0.617325
0.628338
0.624527
0.610429
0.590663
0.568828
0.547494
0.528273
0.511969
0.498793
0.48857
0.480913
0.475344
0.471355
0.468449
0.466138
0.463961
0.46148
0.458299
0.454055
0.645554
0.659594
0.657329
0.643642
0.623599
0.601115
0.578975
0.558934
0.54187
0.528028
0.517232
0.509078
0.503059
0.498635
0.495276
0.492454
0.489673
0.486448
0.482327
0.476879
0.679442
0.697405
0.697342
0.684505
0.664482
0.641549
0.618739
0.597965
0.580198
0.565719
0.554356
0.545683
0.539167
0.534229
0.530302
0.526819
0.523238
0.519019
0.513643
0.506592
0.720461
0.743523
0.746528
0.735142
0.715563
0.692482
0.669217
0.647866
0.629509
0.61447
0.602583
0.5934
0.586355
0.580828
0.576212
0.571892
0.567274
0.561745
0.554704
0.545532
0.770532
0.800193
0.807376
0.798224
0.779652
0.756832
0.733414
0.711715
0.692943
0.677477
0.665162
0.655523
0.647954
0.641788
0.636367
0.631022
0.625096
0.617889
0.608697
0.596769
0.832036
0.870194
0.882879
0.876959
0.86011
0.838062
0.814865
0.793102
0.774141
0.758435
0.745845
0.735866
0.727846
0.72105
0.714763
0.708235
0.700735
0.691457
0.679575
0.664153
0.907909
0.957175
0.976312
0.975097
0.96084
0.940127
0.917536
0.895992
0.877075
0.86134
0.848674
0.838542
0.830228
0.822916
0.815801
0.808037
0.798785
0.787108
0.772012
0.752327
1.00176
1.06515
1.09287
1.09724
1.08623
1.06727
1.04555
1.02439
1.00567
0.990065
0.977529
0.967486
0.959146
0.951574
0.943845
0.934977
0.923991
0.909766
0.891084
0.866457
1.11778
1.19847
1.23667
1.24777
1.24058
1.22358
1.20271
1.18185
1.16323
1.14776
1.13547
1.12578
1.11778
1.1104
1.10253
1.093
1.08064
1.06407
1.04176
1.01181
1.26046
1.36171
1.41218
1.43085
1.42765
1.41232
1.39177
1.37058
1.35153
1.33584
1.32369
1.31451
1.3073
1.30078
1.2936
1.28432
1.27146
1.25332
1.22795
1.19289
1.43455
1.55926
1.6233
1.64966
1.6498
1.63493
1.61319
1.59016
1.56932
1.5524
1.53984
1.5311
1.52513
1.52038
1.51517
1.50766
1.49603
1.47806
1.4512
1.41224
1.64405
1.79445
1.87258
1.9044
1.90619
1.88903
1.863
1.83508
1.80982
1.78963
1.77536
1.7666
1.76224
1.76054
1.7592
1.75572
1.74802
1.73327
1.70811
1.66819
1.89181
2.06816
2.1585
2.19294
2.19083
2.16559
2.12948
2.09128
2.05695
2.0299
2.01151
2.00155
1.99877
2.00175
2.0078
2.01165
2.01138
2.00496
1.98709
1.95178
2.17726
2.376
2.47259
2.50225
2.48699
2.44395
2.38828
2.33111
2.28031
2.24096
2.21476
2.20181
2.20159
2.21186
2.22851
2.24676
2.2613
2.26769
2.26382
2.24191
2.49448
2.70551
2.79656
2.80753
2.76303
2.68696
2.59768
2.50889
2.43033
2.36856
2.32815
2.30988
2.31274
2.33345
2.36617
2.40533
2.44508
2.47929
2.49961
2.49978
2.82854
3.03111
3.09484
3.06264
2.96549
2.83171
2.68826
2.55812
2.44785
2.36433
2.31054
2.28638
2.29
2.31771
2.36406
2.4228
2.48582
2.55605
2.62029
2.66342
3.15256
3.31118
3.31052
3.1959
3.02049
2.8178
2.61534
2.42963
2.27764
2.16514
2.09353
2.06115
2.06453
2.09931
2.16115
2.24545
2.35036
2.45861
2.56386
2.65248
3.42113
3.47727
3.35751
3.12868
2.84288
2.54864
2.27533
2.04227
1.85995
1.73047
1.65102
1.61633
1.61988
1.65646
1.72316
1.81695
1.9348
2.0707
2.21863
2.36778
3.55153
3.41718
3.10192
2.71336
2.31633
1.95418
1.65133
1.4171
1.24977
1.14031
1.07713
1.05156
1.05503
1.08226
1.13322
1.20877
1.31032
1.43944
1.60004
1.77905
3.31063
2.84463
2.31327
1.82206
1.40639
1.09699
0.885687
0.750817
0.670166
0.625161
0.603692
0.595171
0.59456
0.601646
0.619488
0.652794
0.704172
0.782164
0.918611
1.08997
1.73438
1.25954
0.942378
0.721174
0.600718
0.533758
0.492012
0.465868
0.449691
0.439816
0.434751
0.43336
0.435721
0.441297
0.449824
0.458383
0.470095
0.492994
0.564653
0.702242
0.479556
0.592435
0.481653
0.425327
0.402897
0.392813
0.386694
0.382972
0.381151
0.380679
0.381114
0.381961
0.382924
0.383672
0.384549
0.387829
0.393552
0.406989
0.46661
0.697974
0.363898
0.363614
0.363096
0.362436
0.361681
0.360897
0.360149
0.359492
0.358967
0.358598
0.358397
0.358362
0.358488
0.358762
0.359159
0.359643
0.36017
0.360691
0.361165
0.361563
0.364089
0.363796
0.363273
0.362602
0.361836
0.361042
0.360286
0.359623
0.35909
0.358713
0.358501
0.358449
0.358565
0.358832
0.359225
0.359706
0.360231
0.360752
0.361224
0.36162
0.364158
0.363856
0.363314
0.362629
0.361855
0.361057
0.360299
0.359637
0.359094
0.358708
0.358486
0.358423
0.358531
0.358793
0.359182
0.35966
0.360182
0.360698
0.361167
0.361558
0.364149
0.363839
0.363283
0.362591
0.361812
0.361012
0.360254
0.359593
0.359042
0.358653
0.358433
0.35838
0.358491
0.358755
0.359145
0.359622
0.360142
0.360656
0.361122
0.361514
0.364104
0.363793
0.363245
0.362554
0.361772
0.360967
0.360203
0.35953
0.358988
0.358602
0.358384
0.358334
0.358447
0.358711
0.359101
0.359578
0.360096
0.360611
0.361079
0.361474
0.364084
0.363765
0.363214
0.362519
0.361733
0.360922
0.360152
0.359476
0.358933
0.358547
0.358331
0.358284
0.358402
0.35867
0.359061
0.359538
0.360056
0.360571
0.361041
0.361438
0.364074
0.363747
0.36319
0.362489
0.361699
0.360884
0.36011
0.35943
0.358886
0.358501
0.358288
0.358246
0.358371
0.358649
0.359051
0.359534
0.36005
0.36056
0.361028
0.361423
0.36408
0.363749
0.363182
0.362475
0.361678
0.360857
0.360077
0.359394
0.358848
0.358464
0.358254
0.358218
0.358352
0.358643
0.359057
0.359546
0.360065
0.360576
0.361043
0.361435
0.364082
0.363761
0.363196
0.362488
0.361686
0.360855
0.360065
0.359373
0.358824
0.35844
0.358232
0.358198
0.358337
0.35863
0.359052
0.359544
0.360062
0.360574
0.361043
0.36144
0.364074
0.363755
0.363196
0.362491
0.361688
0.360846
0.360051
0.359359
0.358811
0.35843
0.358223
0.358189
0.358324
0.358612
0.359031
0.359524
0.360052
0.360571
0.361042
0.361434
0.364086
0.363757
0.363194
0.362485
0.361672
0.360827
0.360039
0.359356
0.358821
0.358447
0.358243
0.35821
0.358343
0.358624
0.359025
0.359506
0.360043
0.360568
0.361044
0.361434
0.364086
0.363754
0.363189
0.362478
0.361666
0.360836
0.360052
0.359371
0.358834
0.35845
0.358244
0.358211
0.358346
0.358632
0.359027
0.35949
0.360011
0.360539
0.361034
0.361441
0.364066
0.36373
0.363163
0.362456
0.36166
0.360832
0.360049
0.359365
0.358821
0.358433
0.358231
0.358205
0.358343
0.358622
0.359014
0.359482
0.360008
0.360539
0.361039
0.361435
0.364071
0.363731
0.363163
0.36245
0.361641
0.360808
0.360024
0.359344
0.358805
0.358431
0.358235
0.358212
0.358354
0.358623
0.359017
0.359499
0.360027
0.360554
0.361041
0.36143
0.36408
0.363743
0.363175
0.362448
0.361628
0.3608
0.360023
0.359347
0.358811
0.358437
0.358236
0.358205
0.358345
0.358619
0.359014
0.359495
0.36002
0.360543
0.361021
0.361421
0.364088
0.36375
0.363175
0.362449
0.361647
0.360828
0.360058
0.359388
0.358854
0.358479
0.358274
0.358234
0.358354
0.35862
0.359008
0.359485
0.360006
0.360525
0.361003
0.361412
0.364106
0.363765
0.363195
0.362491
0.361706
0.360895
0.360129
0.359462
0.358933
0.358562
0.358357
0.358309
0.358409
0.358662
0.359044
0.359517
0.360036
0.360552
0.361028
0.361438
0.364154
0.363807
0.363231
0.362523
0.361736
0.360925
0.360154
0.359487
0.358962
0.358596
0.358401
0.358354
0.358446
0.358699
0.359084
0.359558
0.360076
0.360589
0.361057
0.361454
0.364208
0.363851
0.363263
0.362538
0.361735
0.360918
0.360145
0.359479
0.358962
0.358598
0.3584
0.358357
0.358468
0.358736
0.359131
0.359611
0.360131
0.360642
0.361103
0.361487
0.364266
0.363902
0.363306
0.36257
0.361756
0.360929
0.360156
0.35949
0.358972
0.358605
0.358399
0.358369
0.358505
0.358789
0.359194
0.359679
0.360202
0.360712
0.36117
0.361548
0.36433
0.363961
0.363359
0.362618
0.361797
0.360964
0.360187
0.359516
0.358991
0.358631
0.358444
0.358425
0.358572
0.358864
0.359275
0.359765
0.360289
0.360799
0.361254
0.361628
0.364397
0.364026
0.363421
0.362677
0.361854
0.361019
0.36024
0.359571
0.359048
0.358693
0.358513
0.3585
0.358652
0.35895
0.359366
0.359861
0.360388
0.360897
0.36135
0.361718
0.364466
0.364094
0.363488
0.362743
0.361918
0.36108
0.360299
0.359627
0.359102
0.358746
0.358565
0.358554
0.358709
0.359012
0.359437
0.359945
0.360486
0.361005
0.361455
0.361818
0.364532
0.364158
0.363553
0.362813
0.361988
0.361142
0.360355
0.359677
0.359149
0.358788
0.358604
0.35859
0.358744
0.359048
0.359477
0.359991
0.360543
0.361076
0.361527
0.361902
0.36459
0.364211
0.363601
0.362857
0.36203
0.361184
0.360399
0.359725
0.359198
0.358837
0.35865
0.358633
0.358784
0.359084
0.359507
0.360014
0.360563
0.361101
0.361552
0.361939
0.364643
0.364256
0.363638
0.362883
0.362054
0.361215
0.360435
0.359767
0.359245
0.358885
0.358699
0.358683
0.358833
0.359128
0.359542
0.360038
0.360573
0.361101
0.361559
0.361951
0.364694
0.364301
0.363678
0.362919
0.362088
0.361249
0.360469
0.3598
0.359278
0.358923
0.358745
0.358736
0.358897
0.359191
0.359591
0.360074
0.360595
0.361108
0.361571
0.361962
0.364745
0.364348
0.36372
0.362961
0.362136
0.3613
0.360519
0.359848
0.359327
0.358976
0.358803
0.358798
0.358958
0.359248
0.359646
0.360127
0.360635
0.361137
0.361591
0.361969
0.364795
0.364392
0.36376
0.362998
0.362174
0.361328
0.360541
0.359868
0.359346
0.358997
0.358827
0.358824
0.358977
0.35926
0.359669
0.360154
0.360665
0.361168
0.361618
0.361986
0.364845
0.364436
0.363795
0.363024
0.362194
0.361334
0.360541
0.359863
0.35934
0.35899
0.35882
0.358815
0.358963
0.35925
0.359669
0.360163
0.36069
0.361201
0.361653
0.362018
0.364898
0.364482
0.36383
0.363044
0.362196
0.361334
0.360536
0.359855
0.359329
0.358978
0.358805
0.358799
0.358951
0.359258
0.359686
0.360191
0.360727
0.361243
0.361697
0.36206
0.364958
0.364534
0.363872
0.363072
0.362202
0.361331
0.360529
0.359846
0.35932
0.35897
0.3588
0.358802
0.358972
0.35929
0.359724
0.360236
0.360778
0.361298
0.361752
0.362111
0.365025
0.364597
0.36393
0.363125
0.362252
0.36138
0.360578
0.359896
0.35937
0.359021
0.358852
0.358855
0.359028
0.359349
0.359787
0.360301
0.360843
0.361363
0.361815
0.362172
0.365097
0.364664
0.363995
0.363191
0.362327
0.361463
0.360663
0.359979
0.359454
0.359105
0.358936
0.35894
0.359113
0.359433
0.359868
0.360375
0.360915
0.361433
0.361884
0.362238
0.36517
0.364732
0.364055
0.363244
0.362375
0.361513
0.360704
0.360018
0.359493
0.359147
0.358983
0.358991
0.359172
0.359499
0.359929
0.360437
0.36098
0.361501
0.361954
0.362309
0.365248
0.3648
0.364111
0.363286
0.362398
0.361527
0.360725
0.360045
0.359525
0.359184
0.359025
0.359038
0.359219
0.359537
0.359968
0.360488
0.361041
0.361569
0.362027
0.362383
0.365334
0.364878
0.364177
0.363336
0.362432
0.361545
0.360752
0.360074
0.359554
0.359214
0.359056
0.359071
0.359249
0.359561
0.360009
0.360543
0.361107
0.361645
0.362107
0.362463
0.365433
0.364968
0.364254
0.363398
0.362477
0.361569
0.360753
0.360062
0.359537
0.359196
0.359041
0.359063
0.359253
0.359589
0.360058
0.360609
0.361186
0.361731
0.362197
0.362552
0.365547
0.365072
0.364347
0.363476
0.362537
0.361609
0.360766
0.360061
0.359529
0.359187
0.359036
0.359067
0.359275
0.359639
0.360127
0.360692
0.36128
0.361833
0.362302
0.362655
0.365676
0.365194
0.364457
0.363574
0.36262
0.361678
0.360822
0.360108
0.35957
0.359226
0.359078
0.359117
0.359337
0.359715
0.360217
0.360795
0.361392
0.361951
0.362421
0.362773
0.365823
0.365333
0.364586
0.363691
0.362725
0.36177
0.360903
0.360179
0.359636
0.359292
0.359147
0.359193
0.359425
0.359815
0.360328
0.360916
0.361521
0.362086
0.362558
0.362906
0.365989
0.365491
0.364734
0.363827
0.362848
0.361883
0.361007
0.360277
0.35973
0.359386
0.359245
0.359297
0.359536
0.359935
0.360458
0.361055
0.361668
0.362237
0.362711
0.363057
0.366174
0.365669
0.364901
0.363982
0.362992
0.362015
0.361131
0.360395
0.359845
0.359501
0.359362
0.359419
0.359665
0.360073
0.360606
0.361212
0.361833
0.362408
0.362883
0.363226
0.36638
0.365867
0.365089
0.364157
0.363154
0.362166
0.361272
0.36053
0.359977
0.359633
0.359496
0.359559
0.359812
0.36023
0.360772
0.361388
0.362017
0.362598
0.363075
0.363414
0.366609
0.366089
0.3653
0.364354
0.363338
0.362338
0.361434
0.360685
0.360128
0.359784
0.35965
0.359718
0.359979
0.360406
0.360959
0.361586
0.362224
0.36281
0.363289
0.363625
0.366864
0.366336
0.365535
0.364576
0.363545
0.362532
0.361617
0.360861
0.3603
0.359956
0.359824
0.359898
0.360168
0.360605
0.361169
0.361807
0.362454
0.363047
0.363528
0.36386
0.367149
0.366613
0.3658
0.364826
0.363779
0.362753
0.361826
0.361062
0.360497
0.360152
0.360023
0.360103
0.360381
0.36083
0.361405
0.362055
0.362712
0.363312
0.363796
0.364123
0.367466
0.366922
0.366097
0.365108
0.364045
0.363003
0.362064
0.361291
0.360721
0.360375
0.360249
0.360335
0.360623
0.361083
0.361671
0.362333
0.363001
0.363609
0.364094
0.364417
0.367822
0.367269
0.366432
0.365426
0.364345
0.363288
0.362336
0.361553
0.360977
0.360631
0.360507
0.3606
0.360897
0.36137
0.361971
0.362647
0.363327
0.363942
0.364429
0.364747
0.368219
0.36766
0.366808
0.365786
0.364686
0.363611
0.362645
0.361852
0.36127
0.360922
0.360802
0.360902
0.361209
0.361695
0.362311
0.363001
0.363692
0.364316
0.364805
0.365117
0.368667
0.368099
0.367234
0.366193
0.365074
0.363981
0.362999
0.362194
0.361606
0.361257
0.361139
0.361246
0.361565
0.362064
0.362696
0.363401
0.364105
0.364738
0.365229
0.365534
0.369169
0.368594
0.367715
0.366655
0.365515
0.364402
0.363403
0.362586
0.361991
0.36164
0.361525
0.36164
0.361971
0.362485
0.363132
0.363854
0.364572
0.365213
0.365706
0.366003
0.369737
0.369154
0.368261
0.367181
0.366019
0.364884
0.363867
0.363037
0.362433
0.36208
0.361968
0.362093
0.362435
0.362966
0.36363
0.364369
0.365102
0.365753
0.366246
0.366534
0.370378
0.369789
0.368881
0.36778
0.366594
0.365437
0.3644
0.363556
0.362943
0.362587
0.362479
0.362612
0.362968
0.363516
0.364199
0.364956
0.365704
0.366364
0.366858
0.367135
0.371105
0.370511
0.369588
0.368465
0.367253
0.366072
0.365014
0.364154
0.363531
0.363173
0.363068
0.363211
0.363582
0.364147
0.36485
0.365627
0.366391
0.367061
0.367555
0.367818
0.371932
0.371333
0.370396
0.369249
0.368011
0.366803
0.365723
0.364846
0.364212
0.363851
0.363749
0.363903
0.364289
0.364874
0.365598
0.366396
0.367177
0.367857
0.368349
0.368596
0.372875
0.372273
0.371321
0.370151
0.368884
0.367648
0.366543
0.365648
0.365003
0.364638
0.36454
0.364705
0.365108
0.365714
0.366461
0.367282
0.368081
0.368771
0.36926
0.369489
0.373954
0.373351
0.372385
0.37119
0.369893
0.368627
0.367496
0.366581
0.365923
0.365554
0.36546
0.365637
0.366058
0.366687
0.367459
0.368303
0.369121
0.369821
0.370306
0.370515
0.375193
0.37459
0.373613
0.372392
0.371063
0.369766
0.368607
0.36767
0.366998
0.366624
0.366535
0.366726
0.367166
0.367819
0.368617
0.369487
0.370325
0.371035
0.371514
0.371698
0.376619
0.376022
0.375033
0.373787
0.372425
0.371094
0.369905
0.368945
0.368257
0.367879
0.367794
0.368
0.368461
0.36914
0.369966
0.370863
0.371721
0.37244
0.37291
0.373063
0.378268
0.37768
0.376684
0.375412
0.374016
0.37265
0.371428
0.370444
0.36974
0.369356
0.369277
0.369498
0.369981
0.370689
0.371544
0.372469
0.373348
0.374075
0.374532
0.374649
0.380181
0.379609
0.378609
0.377313
0.375882
0.374479
0.373224
0.372213
0.371491
0.371102
0.371029
0.371267
0.371774
0.372511
0.373397
0.374351
0.37525
0.375983
0.376423
0.376495
0.382407
0.381862
0.380864
0.379547
0.378082
0.376641
0.37535
0.374311
0.37357
0.373174
0.373108
0.373365
0.373897
0.374665
0.375584
0.376568
0.377487
0.378222
0.378639
0.378656
0.385021
0.384511
0.383522
0.382186
0.380686
0.379206
0.377878
0.376809
0.376048
0.375645
0.375586
0.375863
0.376423
0.377223
0.378176
0.379189
0.380126
0.38086
0.381246
0.381194
0.388102
0.38764
0.38667
0.38532
0.383787
0.382267
0.380901
0.379801
0.379018
0.378608
0.378558
0.378856
0.379444
0.380277
0.381264
0.382306
0.383258
0.383985
0.384329
0.384193
0.391752
0.391355
0.390418
0.38906
0.387497
0.385939
0.384535
0.383403
0.382598
0.382181
0.38214
0.38246
0.383076
0.383943
0.384962
0.386032
0.386994
0.387705
0.387993
0.387751
0.3961
0.395793
0.394906