/*--------------------------------*- C++ -*----------------------------------*\
  =========                 |
  \\      /  F ield         | OpenFOAM: The Open Source CFD Toolbox
   \\    /   O peration     | Website:  https://openfoam.org
    \\  /    A nd           | Version:  6
     \\/     M anipulation  |
\*---------------------------------------------------------------------------*/
FoamFile
{
    version     2.0;
    format      ascii;
    class       volScalarField;
    location    "6";
    object      nut;
}
// * * * * * * * * * * * * * * * * * * * * * * * * * * * * * * * * * * * * * //

dimensions      [0 2 -1 0 0 0 0];

internalField   nonuniform List<scalar> 
130000
(
0.000885441
0.00088839
0.000889869
0.000889978
0.000889027
0.000887338
0.000885194
0.000882811
0.000880348
0.000877912
0.000875596
0.000873467
0.000871564
0.000869896
0.000868456
0.000867232
0.000866211
0.00086535
0.000864591
0.000863887
0.000885471
0.00088841
0.000889856
0.000889924
0.00088893
0.000887199
0.000885015
0.000882595
0.000880099
0.000877639
0.000875301
0.000873152
0.000871237
0.000869569
0.000868136
0.000866913
0.000865895
0.000865046
0.000864306
0.000863624
0.000885504
0.000888442
0.000889893
0.000889958
0.000888952
0.000887207
0.000885004
0.000882565
0.000880053
0.00087758
0.000875226
0.000873049
0.000871082
0.000869378
0.00086793
0.00086671
0.000865713
0.000864911
0.000864187
0.000863495
0.000885545
0.000888486
0.000889958
0.000890033
0.000889025
0.000887272
0.000885055
0.000882607
0.000880092
0.000877618
0.000875263
0.000873074
0.000871079
0.000869357
0.000867895
0.000866679
0.000865695
0.000864897
0.000864114
0.000863401
0.000885611
0.000888563
0.000890046
0.00089012
0.000889103
0.000887332
0.000885104
0.000882649
0.00088013
0.000877659
0.000875314
0.000873151
0.000871207
0.000869503
0.000868039
0.000866812
0.000865798
0.000864916
0.000864057
0.000863352
0.000885646
0.000888621
0.000890103
0.000890174
0.000889152
0.000887375
0.00088514
0.00088268
0.000880157
0.000877684
0.00087534
0.000873183
0.000871247
0.000869548
0.000868085
0.000866858
0.000865849
0.000864973
0.00086415
0.000863443
0.000885673
0.000888665
0.000890143
0.000890211
0.000889186
0.000887405
0.000885165
0.000882699
0.00088017
0.000877692
0.000875345
0.000873185
0.000871247
0.000869544
0.000868066
0.000866837
0.000865879
0.000865083
0.000864372
0.000863706
0.000885721
0.0008887
0.000890174
0.000890238
0.00088921
0.000887424
0.00088518
0.000882707
0.000880171
0.000877686
0.000875333
0.000873168
0.000871223
0.000869509
0.000868015
0.000866762
0.000865841
0.000865101
0.000864445
0.000863808
0.000885757
0.000888721
0.000890193
0.000890255
0.000889224
0.000887434
0.000885185
0.000882706
0.000880163
0.000877671
0.000875313
0.000873143
0.000871199
0.000869492
0.000868023
0.000866753
0.00086585
0.000865129
0.000864488
0.000863846
0.00088578
0.000888733
0.000890193
0.000890258
0.000889227
0.000887435
0.000885182
0.000882697
0.000880148
0.00087765
0.000875286
0.000873114
0.000871172
0.000869482
0.000868046
0.000866832
0.000865937
0.000865161
0.000864426
0.000863757
0.000885794
0.000888745
0.000890184
0.000890255
0.000889226
0.000887433
0.000885177
0.000882688
0.000880133
0.00087763
0.000875261
0.000873085
0.000871139
0.000869461
0.000868044
0.000866884
0.000865935
0.0008651
0.000864297
0.000863617
0.000885806
0.000888754
0.000890191
0.000890259
0.000889228
0.000887435
0.000885175
0.000882682
0.000880121
0.000877612
0.000875239
0.000873063
0.00087112
0.00086945
0.000868029
0.00086689
0.000865972
0.000865166
0.000864393
0.00086369
0.000885819
0.00088877
0.000890214
0.000890276
0.000889243
0.000887447
0.000885183
0.000882682
0.000880111
0.000877592
0.00087521
0.000873031
0.000871097
0.00086942
0.000868015
0.00086686
0.000865931
0.000865141
0.000864397
0.000863684
0.000885838
0.000888787
0.000890226
0.0008903
0.000889274
0.000887476
0.000885204
0.00088269
0.000880104
0.000877566
0.000875162
0.000872956
0.00087103
0.000869381
0.000868005
0.000866868
0.000865948
0.000865145
0.000864392
0.000863698
0.000885889
0.000888837
0.000890268
0.000890374
0.000889339
0.000887528
0.000885241
0.00088271
0.000880104
0.000877544
0.000875117
0.000872885
0.000870995
0.000869403
0.000868054
0.000866941
0.000866056
0.00086528
0.000864572
0.000863871
0.000886004
0.000888964
0.000890405
0.000890474
0.000889424
0.000887594
0.000885288
0.000882737
0.00088011
0.000877529
0.00087508
0.000872827
0.000870883
0.000869239
0.000867913
0.00086684
0.000865967
0.000865168
0.00086446
0.000863722
0.000886166
0.000889153
0.000890578
0.000890568
0.000889506
0.000887662
0.000885334
0.000882763
0.000880116
0.000877512
0.000875037
0.000872758
0.000870733
0.000869035
0.000867713
0.000866627
0.000865734
0.000864877
0.000864141
0.000863404
0.000886327
0.000889329
0.000890752
0.000890728
0.000889622
0.000887753
0.000885402
0.000882803
0.000880133
0.000877512
0.000875022
0.000872731
0.00087071
0.000868941
0.00086751
0.000866312
0.000865348
0.000864474
0.000863736
0.000863061
0.000886474
0.000889494
0.000890929
0.000890922
0.000889794
0.00088788
0.000885504
0.000882881
0.000880183
0.000877542
0.00087504
0.000872731
0.000870681
0.000868874
0.000867364
0.000866127
0.000865149
0.000864351
0.000863659
0.000863019
0.000886625
0.000889653
0.000891088
0.000891076
0.00088994
0.000888019
0.000885613
0.000882976
0.000880258
0.000877593
0.000875071
0.000872741
0.00087069
0.000868911
0.000867424
0.000866219
0.000865265
0.00086449
0.000863812
0.000863188
0.000886775
0.000889809
0.000891242
0.000891223
0.000890077
0.000888145
0.000885726
0.000883069
0.000880331
0.000877643
0.000875098
0.000872749
0.000870688
0.000868954
0.000867529
0.000866389
0.000865445
0.000864659
0.000863985
0.000863369
0.000886915
0.000889958
0.000891391
0.000891366
0.000890211
0.000888269
0.000885838
0.000883155
0.000880403
0.000877696
0.000875124
0.000872744
0.000870673
0.000868973
0.000867585
0.000866491
0.000865623
0.000864858
0.000864182
0.000863535
0.000887051
0.000890108
0.000891541
0.00089151
0.000890344
0.000888387
0.000885942
0.000883243
0.000880479
0.000877767
0.000875206
0.000872864
0.000870814
0.000869125
0.000867704
0.000866559
0.000865678
0.000864922
0.000864256
0.000863603
0.000887209
0.000890274
0.000891703
0.000891662
0.000890481
0.000888508
0.000886047
0.000883335
0.000880543
0.000877816
0.000875253
0.000872937
0.00087092
0.000869193
0.000867752
0.000866616
0.000865802
0.00086508
0.000864421
0.000863761
0.000887393
0.000890461
0.000891882
0.000891826
0.000890627
0.000888635
0.000886155
0.000883422
0.000880608
0.000877859
0.000875284
0.000872961
0.000870938
0.000869213
0.000867768
0.000866628
0.000865865
0.000865147
0.000864478
0.000863813
0.000887589
0.000890659
0.000892072
0.000892001
0.000890784
0.000888773
0.000886274
0.000883525
0.000880701
0.000877944
0.000875368
0.000873036
0.000870986
0.00086923
0.000867772
0.000866621
0.000865803
0.00086504
0.000864327
0.000863655
0.000887783
0.000890863
0.000892271
0.000892187
0.000890953
0.000888923
0.000886405
0.000883641
0.000880806
0.000878059
0.000875477
0.000873132
0.000871061
0.000869223
0.000867703
0.000866535
0.000865613
0.000864791
0.000864066
0.000863429
0.00088799
0.000891081
0.000892485
0.000892389
0.000891136
0.000889086
0.000886549
0.000883768
0.000880922
0.00087815
0.000875547
0.000873187
0.000871116
0.000869315
0.000867763
0.000866545
0.000865595
0.000864744
0.000864051
0.000863439
0.000888215
0.000891316
0.000892716
0.000892605
0.000891333
0.000889261
0.000886699
0.000883891
0.000881012
0.000878212
0.000875581
0.000873192
0.000871113
0.000869367
0.000867875
0.000866654
0.00086572
0.000864909
0.000864255
0.000863612
0.000888456
0.000891566
0.00089296
0.000892835
0.000891542
0.000889444
0.000886854
0.000884015
0.000881101
0.000878254
0.000875578
0.000873147
0.000871034
0.000869252
0.000867743
0.000866532
0.00086564
0.000864916
0.00086435
0.000863734
0.000888707
0.000891828
0.000893216
0.000893074
0.000891759
0.000889635
0.000887018
0.000884151
0.000881211
0.000878322
0.000875602
0.000873155
0.000871021
0.000869225
0.000867731
0.000866606
0.00086576
0.00086502
0.000864423
0.000863816
0.000888968
0.0008921
0.000893482
0.000893323
0.000891983
0.000889832
0.000887186
0.000884293
0.000881329
0.000878424
0.00087567
0.000873212
0.000871092
0.000869331
0.000867822
0.0008667
0.000865829
0.000865019
0.000864331
0.000863701
0.000889241
0.000892383
0.000893757
0.00089358
0.000892215
0.000890035
0.000887361
0.000884439
0.000881453
0.000878533
0.000875778
0.000873309
0.000871183
0.000869407
0.000867871
0.000866683
0.00086577
0.000864947
0.000864268
0.000863651
0.000889526
0.000892679
0.000894045
0.000893847
0.000892455
0.000890244
0.000887538
0.000884586
0.000881573
0.000878637
0.000875881
0.000873381
0.000871191
0.000869332
0.000867784
0.000866573
0.000865673
0.000864925
0.000864334
0.000863751
0.000889824
0.000892988
0.000894346
0.000894127
0.000892707
0.000890462
0.000887719
0.000884728
0.000881674
0.00087869
0.000875878
0.000873343
0.000871144
0.000869292
0.000867757
0.000866554
0.00086562
0.0008649
0.000864324
0.000863724
0.000890136
0.000893313
0.000894663
0.000894424
0.000892975
0.000890698
0.00088792
0.000884893
0.000881802
0.000878781
0.000875931
0.000873398
0.00087124
0.000869452
0.000867953
0.000866733
0.00086574
0.000864947
0.000864299
0.000863623
0.000890467
0.000893658
0.000895001
0.000894742
0.000893265
0.000890956
0.000888145
0.000885087
0.000881968
0.000878924
0.000876058
0.000873528
0.000871401
0.000869636
0.000868097
0.00086677
0.000865783
0.000864943
0.000864329
0.000863636
0.000890819
0.000894025
0.000895361
0.000895081
0.000893576
0.000891235
0.000888392
0.000885304
0.000882158
0.00087909
0.000876202
0.00087366
0.000871505
0.000869674
0.000868103
0.000866764
0.000865821
0.000865091
0.000864487
0.000863829
0.000891196
0.00089442
0.000895746
0.000895444
0.000893908
0.000891533
0.000888659
0.000885542
0.000882371
0.000879285
0.000876385
0.000873793
0.000871561
0.000869697
0.000868152
0.0008669
0.000865982
0.000865302
0.000864653
0.000863999
0.000891598
0.000894844
0.000896159
0.000895829
0.000894259
0.000891849
0.000888941
0.000885795
0.000882603
0.000879503
0.000876599
0.000873957
0.000871667
0.000869779
0.000868251
0.000867066
0.000866188
0.000865468
0.000864787
0.000864122
0.000892014
0.000895278
0.000896583
0.000896228
0.000894624
0.000892179
0.000889236
0.000886061
0.000882847
0.000879736
0.000876836
0.000874218
0.000871918
0.000870013
0.000868461
0.000867278
0.000866421
0.000865614
0.000864896
0.000864213
0.000892449
0.000895729
0.000897024
0.000896644
0.000895005
0.000892521
0.000889541
0.000886332
0.000883092
0.000879966
0.000877063
0.000874461
0.000872202
0.000870301
0.000868727
0.000867505
0.000866563
0.000865714
0.000864973
0.000864282
0.000892904
0.000896198
0.000897484
0.000897078
0.000895403
0.000892877
0.000889855
0.000886605
0.000883329
0.000880171
0.000877244
0.000874623
0.000872349
0.00087043
0.000868839
0.000867601
0.000866642
0.00086578
0.000865031
0.000864335
0.000893372
0.00089666
0.00089796
0.000897534
0.000895823
0.000893253
0.000890184
0.000886889
0.000883569
0.000880374
0.000877413
0.000874763
0.000872465
0.000870527
0.00086892
0.000867672
0.000866704
0.000865835
0.000865081
0.000864381
0.000893891
0.000897194
0.000898484
0.000898029
0.000896275
0.000893656
0.000890536
0.000887191
0.000883824
0.000880586
0.000877588
0.000874906
0.000872582
0.000870623
0.000869
0.000867742
0.000866767
0.000865892
0.000865132
0.000864428
0.000894454
0.000897774
0.000899051
0.000898561
0.00089676
0.000894088
0.000890913
0.000887514
0.000884097
0.000880813
0.000877775
0.000875059
0.000872708
0.000870727
0.000869087
0.00086782
0.000866838
0.000865957
0.000865192
0.000864484
0.000895062
0.000898399
0.00089966
0.000899133
0.00089728
0.00089455
0.000891317
0.000887861
0.000884391
0.000881059
0.000877978
0.000875227
0.000872846
0.000870841
0.000869185
0.000867908
0.000866919
0.000866032
0.000865265
0.000864555
0.000895711
0.000899065
0.000900308
0.00089974
0.000897834
0.000895043
0.000891747
0.000888232
0.000884706
0.000881323
0.000878198
0.000875409
0.000872998
0.000870968
0.000869294
0.000868006
0.00086701
0.00086612
0.000865351
0.000864644
0.000896393
0.000899766
0.000900992
0.000900383
0.00089842
0.000895566
0.000892206
0.000888628
0.000885044
0.000881608
0.000878436
0.000875607
0.000873164
0.000871108
0.000869415
0.000868116
0.000867113
0.000866217
0.000865446
0.000864738
0.000897116
0.000900509
0.000901717
0.000901065
0.000899042
0.000896123
0.000892695
0.000889053
0.000885408
0.000881916
0.000878695
0.000875824
0.000873345
0.000871261
0.000869547
0.000868237
0.000867225
0.000866325
0.000865551
0.000864841
0.000897877
0.000901295
0.000902487
0.000901791
0.000899707
0.000896719
0.000893221
0.00088951
0.000885801
0.000882251
0.000878978
0.000876062
0.000873546
0.000871431
0.000869694
0.000868371
0.00086735
0.000866444
0.000865666
0.000864954
0.000898691
0.000902138
0.000903315
0.000902572
0.000900424
0.000897362
0.000893789
0.000890007
0.00088623
0.000882618
0.00087929
0.000876326
0.00087377
0.000871621
0.000869857
0.000868519
0.000867488
0.000866576
0.000865793
0.000865077
0.000899577
0.000903053
0.000904212
0.000903418
0.0009012
0.000898059
0.000894407
0.000890547
0.000886698
0.00088302
0.000879634
0.00087662
0.000874022
0.000871839
0.000870049
0.000868694
0.00086765
0.000866728
0.000865935
0.000865207
0.000900541
0.000904047
0.000905185
0.000904335
0.00090204
0.000898815
0.000895077
0.000891134
0.000887209
0.000883462
0.000880013
0.000876947
0.000874305
0.000872086
0.000870268
0.000868895
0.000867838
0.000866904
0.000866102
0.000865363
0.000901583
0.000905121
0.000906236
0.000905326
0.00090295
0.000899633
0.000895803
0.000891773
0.000887766
0.000883945
0.000880432
0.000877309
0.000874621
0.000872364
0.000870517
0.000869125
0.000868053
0.000867108
0.000866296
0.000865548
0.000902706
0.00090628
0.000907371
0.000906397
0.000903934
0.00090052
0.000896592
0.000892469
0.000888375
0.000884476
0.000880894
0.000877712
0.000874974
0.000872677
0.000870798
0.000869386
0.000868298
0.000867342
0.000866521
0.000865763
0.000903921
0.000907533
0.000908599
0.000907557
0.000904999
0.000901481
0.000897449
0.000893227
0.000889042
0.00088506
0.000881404
0.000878159
0.00087537
0.000873029
0.000871117
0.000869682
0.000868576
0.000867608
0.000866776
0.000866008
0.000905236
0.00090889
0.000909929
0.000908813
0.000906155
0.000902526
0.000898383
0.000894054
0.000889772
0.000885702
0.000881969
0.000878658
0.000875813
0.000873427
0.000871479
0.000870019
0.000868894
0.000867914
0.000867074
0.0008663
0.00090666
0.000910361
0.000911372
0.000910178
0.000907412
0.000903663
0.000899401
0.00089496
0.000890574
0.000886412
0.000882596
0.000879215
0.000876313
0.000873879
0.000871892
0.000870404
0.000869256
0.00086826
0.000867411
0.000866623
0.000908207
0.000911959
0.000912941
0.000911663
0.000908781
0.000904905
0.000900515
0.000895955
0.000891459
0.000887197
0.000883294
0.000879839
0.000876875
0.000874394
0.000872363
0.000870842
0.000869667
0.000868651
0.000867785
0.000866976
0.000909892
0.000913702
0.000914653
0.000913284
0.000910278
0.000906264
0.000901738
0.000897049
0.000892435
0.000888068
0.000884072
0.000880536
0.000877506
0.000874968
0.000872891
0.000871335
0.00087013
0.000869093
0.000868207
0.000867382
0.000911733
0.000915606
0.000916525
0.000915058
0.000911917
0.000907755
0.000903082
0.000898255
0.000893516
0.000889036
0.000884941
0.00088132
0.000878218
0.00087562
0.000873492
0.000871897
0.00087066
0.000869599
0.00086869
0.000867844
0.000913751
0.000917694
0.000918578
0.000917005
0.000913718
0.000909396
0.000904564
0.00089959
0.000894717
0.000890116
0.000885916
0.000882203
0.000879025
0.000876362
0.000874181
0.000872546
0.000871272
0.000870182
0.000869248
0.00086838
0.00091598
0.000919997
0.000920836
0.000919146
0.000915701
0.000911205
0.000906203
0.00090107
0.000896053
0.000891324
0.00088701
0.0008832
0.00087994
0.000877207
0.000874969
0.000873318
0.000871983
0.000870853
0.00086989
0.000869002
0.000918415
0.000922505
0.000923312
0.000921503
0.000917889
0.000913206
0.00090802
0.000902716
0.000897544
0.000892678
0.000888243
0.000884329
0.00088098
0.00087817
0.000875869
0.000874164
0.000872789
0.000871628
0.000870643
0.000869732
0.000921097
0.000925267
0.000926044
0.000924108
0.000920312
0.000915427
0.000910042
0.000904553
0.000899215
0.0008942
0.000889636
0.000885609
0.000882167
0.000879273
0.000876902
0.000875134
0.000873715
0.000872526
0.000871514
0.000870573
0.000924064
0.000928323
0.000929073
0.000927002
0.000923008
0.000917903
0.0009123
0.000906611
0.000901093
0.000895919
0.000891214
0.000887067
0.000883523
0.00088054
0.000878092
0.000876256
0.000874787
0.000873579
0.00087252
0.000871547
0.00092736
0.000931719
0.000932445
0.000930228
0.00092602
0.000920674
0.000914835
0.000908926
0.000903212
0.000897867
0.000893011
0.000888735
0.000885081
0.000882003
0.000879473
0.000877563
0.000876043
0.000874801
0.000873706
0.000872698
0.000931037
0.00093551
0.000936216
0.000933843
0.000929401
0.000923791
0.000917691
0.000911543
0.000905616
0.000900083
0.000895065
0.00089065
0.00088688
0.000883701
0.000881084
0.000879093
0.000877519
0.000876235
0.000875093
0.00087403
0.000935157
0.000939763
0.000940454
0.000937914
0.000933215
0.000927314
0.000920926
0.000914513
0.000908351
0.000902614
0.000897421
0.000892856
0.000888963
0.000885679
0.000882972
0.000880901
0.000879278
0.000877926
0.000876721
0.000875591
0.000939798
0.00094457
0.000945251
0.000942526
0.000937542
0.000931317
0.000924607
0.000917899
0.000911478
0.000905517
0.000900132
0.000895406
0.000891381
0.000887987
0.000885188
0.000883041
0.000881334
0.00087991
0.00087863
0.000877425
0.000945025
0.000950114
0.000950727
0.000947785
0.00094248
0.00093589
0.000928818
0.000921778
0.000915066
0.000908855
0.000903261
0.00089836
0.00089419
0.000890677
0.000887773
0.000885528
0.000883738
0.000882221
0.000880865
0.000879579
0.000950934
0.000956349
0.000956954
0.000953793
0.000948137
0.000941139
0.000933658
0.000926242
0.0009192
0.000912709
0.00090688
0.000901786
0.000897461
0.000893821
0.000890803
0.000888443
0.000886566
0.00088496
0.000883511
0.000882126
0.000957654
0.00096346
0.000964086
0.000960698
0.000954656
0.0009472
0.000939253
0.000931404
0.000923982
0.00091717
0.000911076
0.000905769
0.000901274
0.000897503
0.000894366
0.000891882
0.000889904
0.000888199
0.000886643
0.000885143
0.000965353
0.000971638
0.000972316
0.000968693
0.000962226
0.00095425
0.000945765
0.000937411
0.000929544
0.000922357
0.000915956
0.000910404
0.000905722
0.000901814
0.000898558
0.000895953
0.000893858
0.000892032
0.000890358
0.000888726
0.000974233
0.000981111
0.000981888
0.000978026
0.000971089
0.00096252
0.000953407
0.000944454
0.000936056
0.000928419
0.000921652
0.000915812
0.000910913
0.000906854
0.000903475
0.000900753
0.000898506
0.000896546
0.000894761
0.000892984
0.000984555
0.000992172
0.000993116
0.000989021
0.000981568
0.000972321
0.000962472
0.000952804
0.00094376
0.000935575
0.000928361
0.000922168
0.000916998
0.000912749
0.000909271
0.000906416
0.000904018
0.000901943
0.000900021
0.000898076
0.000996648
0.00100521
0.00100642
0.00100212
0.00099411
0.000984094
0.000973384
0.000962858
0.000953029
0.000944167
0.000936397
0.000929762
0.000924238
0.000919708
0.000916018
0.000913032
0.000910577
0.000908423
0.000906348
0.000904206
0.00101096
0.00102073
0.00102237
0.00101793
0.00100935
0.000998487
0.000986787
0.000975248
0.000964469
0.000954775
0.000946316
0.000939132
0.000933175
0.00092832
0.000924416
0.000921282
0.000918683
0.000916359
0.000914076
0.00091168
0.00102807
0.00103944
0.00104176
0.00103733
0.00102822
0.00101646
0.00100367
0.00099097
0.000979073
0.000968377
0.000959068
0.000951195
0.000944691
0.00093942
0.000935205
0.000931806
0.00092894
0.000926336
0.00092374
0.000920968
0.0010488
0.00106232
0.00106572
0.00106154
0.00105206
0.00103945
0.00102553
0.00101158
0.000998433
0.000986574
0.000976241
0.000967502
0.000960287
0.000954431
0.000949713
0.000945847
0.000942518
0.000939425
0.000936269
0.000932862
0.00107426
0.00109071
0.00109578
0.00109231
0.00108274
0.00106949
0.00105455
0.00103937
0.00102492
0.0010118
0.00100028
0.000990464
0.00098229
0.000975577
0.000970065
0.000965417
0.00096127
0.000957283
0.000953125
0.000948634
0.00110596
0.00112644
0.00113405
0.00113195
0.00112282
0.00110932
0.00109364
0.00107743
0.00106178
0.00104737
0.00103456
0.00102346
0.00101402
0.00100606
0.000999295
0.000993354
0.000987842
0.000982343
0.000976516
0.000970259
0.00114589
0.00117194
0.00118323
0.00118338
0.00117544
0.00116231
0.0011464
0.00112951
0.0011129
0.00109731
0.00108317
0.00107061
0.00105959
0.00104991
0.00104128
0.00103334
0.00102567
0.00101784
0.0010095
0.00100052
0.00119639
0.0012306
0.00124661
0.00124998
0.00124418
0.00123222
0.00121672
0.00119966
0.00118241
0.00116581
0.00115033
0.00113614
0.00112322
0.00111136
0.00110027
0.00108958
0.00107884
0.00106765
0.00105567
0.00104272
0.00126059
0.00130429
0.00132705
0.00133524
0.00133269
0.00132277
0.00130835
0.0012916
0.001274
0.00125652
0.00123965
0.00122361
0.00120841
0.00119385
0.00117964
0.0011654
0.00115065
0.001135
0.00111811
0.0010998
0.00134189
0.00139729
0.00142838
0.0014426
0.00144423
0.00143704
0.00142418
0.00140802
0.0013902
0.00137176
0.00135328
0.00133505
0.00131711
0.00129922
0.00128113
0.00126255
0.00124271
0.00122144
0.00119837
0.00117332
0.00144373
0.00151272
0.0015533
0.00157436
0.00158072
0.00157656
0.00156537
0.00154975
0.00153148
0.0015117
0.00149109
0.00147004
0.00144886
0.00142686
0.00140373
0.00138039
0.00135375
0.00132571
0.00129528
0.00126226
0.00156901
0.00165244
0.00170278
0.00173059
0.0017416
0.0017402
0.00173025
0.00171463
0.00169527
0.00167334
0.00164957
0.00162435
0.00159711
0.00156699
0.00153685
0.00150653
0.00147637
0.00144357
0.00140431
0.00136201
0.00171864
0.00181613
0.00187565
0.00190689
0.00192223
0.00192253
0.0019127
0.001896
0.00187446
0.00184928
0.00182111
0.00178953
0.0017536
0.00171571
0.00167648
0.00163634
0.00159631
0.00155676
0.0015141
0.00146309
0.00189042
0.00199864
0.00206397
0.00209707
0.00211245
0.00211156
0.00209974
0.00208037
0.00205538
0.00202564
0.00199146
0.00195205
0.00190633
0.00185881
0.00180984
0.00175639
0.00170224
0.0016515
0.00160282
0.00154988
0.00207518
0.00218548
0.00224914
0.00227948
0.00229028
0.00228466
0.00226832
0.00224463
0.00221517
0.00218043
0.00213974
0.00209193
0.00203749
0.00198002
0.0019188
0.0018538
0.00178543
0.00171686
0.00165554
0.00159907
0.00225328
0.00235133
0.00240294
0.00242303
0.00242172
0.00240688
0.00238345
0.00235397
0.00231903
0.0022785
0.00223054
0.00217358
0.00210834
0.00203983
0.00196714
0.00188969
0.00180982
0.00172971
0.00165045
0.00157751
0.00238713
0.00245265
0.00247825
0.00247697
0.00245659
0.00242254
0.00238869
0.0023633
0.00232293
0.00227786
0.00222526
0.00216297
0.00209151
0.00201421
0.001935
0.00183778
0.00173283
0.00164104
0.00155729
0.00147736
0.00241501
0.00242842
0.00241392
0.00237816
0.00234197
0.00231109
0.00226796
0.00222147
0.00218359
0.00214256
0.00209166
0.00202632
0.0019465
0.00185273
0.00174934
0.00165433
0.00156842
0.00147912
0.00137974
0.00128619
0.00225067
0.00220229
0.00215228
0.00210424
0.00204521
0.00198576
0.00194197
0.00190978
0.00188743
0.001864
0.0018262
0.00176523
0.00168162
0.001577
0.00146449
0.00135351
0.00124714
0.00114271
0.00105878
0.00098927
0.00181526
0.00174275
0.00168658
0.00161363
0.00154862
0.00149825
0.0014697
0.00146717
0.00149171
0.00151372
0.00150467
0.00145441
0.0013636
0.00123617
0.00110414
0.000978014
0.000862477
0.000759447
0.000674408
0.000602802
0.00114021
0.00110191
0.00103531
0.000987538
0.000954609
0.000964517
0.00100988
0.00106866
0.00108965
0.00108778
0.00107734
0.00105195
0.00100788
0.000926948
0.000795878
0.00065611
0.000528167
0.000424532
0.000353979
0.00030172
0.000351306
0.000433089
0.000483044
0.000563256
0.00070535
0.000814515
0.000883554
0.000918587
0.000933351
0.000939322
0.000941882
0.000937798
0.000921364
0.000891375
0.000849612
0.000779718
0.000676165
0.000531724
0.000358963
0.000248185
6.3338e-05
0.0010557
0.000809611
0.000806813
0.000822859
0.000835637
0.000846588
0.00085632
0.000863274
0.000866157
0.000865731
0.000864307
0.000863292
0.000862541
0.000860414
0.000857134
0.000833531
0.000761536
0.000605605
0.000455194
0.000864518
0.000864836
0.000865268
0.000865565
0.000865727
0.000865792
0.000865831
0.000865862
0.000865876
0.000865852
0.000865773
0.000865654
0.000865525
0.000865423
0.000865356
0.000865295
0.000865192
0.000865043
0.00086484
0.000864548
0.000864457
0.000864758
0.000865184
0.000865473
0.000865629
0.000865684
0.000865694
0.000865683
0.000865663
0.000865661
0.000865595
0.000865457
0.000865318
0.00086518
0.000865009
0.000864921
0.000864873
0.000864836
0.000864687
0.000864414
0.000864544
0.000864839
0.000865281
0.000865577
0.000865738
0.000865791
0.00086576
0.000865677
0.000865481
0.000865367
0.000865263
0.000865177
0.000865086
0.000864951
0.000864717
0.000864678
0.000864743
0.000864803
0.000864673
0.000864391
0.000864493
0.000864856
0.000865387
0.000865721
0.000865903
0.000865964
0.000865916
0.000865782
0.000865432
0.000865192
0.000865014
0.000864893
0.000864777
0.0008647
0.000864625
0.000864729
0.00086482
0.000864751
0.000864572
0.000864275
0.000864472
0.000864878
0.000865427
0.000865753
0.000865929
0.000865986
0.000865946
0.00086581
0.000865601
0.000865357
0.000865108
0.000864828
0.000864684
0.000864632
0.00086466
0.000864771
0.000864735
0.000864557
0.00086431
0.000864022
0.000864705
0.000865089
0.000865544
0.000865836
0.000865982
0.000866009
0.000865945
0.000865796
0.000865594
0.000865369
0.000865152
0.000864979
0.000864864
0.000864813
0.000864802
0.000864789
0.000864707
0.0008645
0.000864237
0.000863914
0.000864784
0.000865194
0.000865652
0.000865935
0.000866064
0.000866067
0.000865968
0.000865797
0.000865589
0.000865375
0.000865176
0.000865019
0.000864916
0.000864889
0.000864912
0.000864919
0.000864834
0.000864677
0.000864426
0.000864014
0.000864834
0.000865226
0.000865644
0.000865915
0.00086605
0.000866061
0.000865962
0.000865783
0.000865567
0.000865346
0.000865146
0.000864967
0.00086483
0.000864789
0.000864857
0.000864918
0.000864866
0.000864765
0.000864563
0.00086421
0.000864841
0.000865214
0.000865615
0.000865884
0.000866015
0.000866025
0.000865962
0.000865782
0.000865556
0.000865328
0.000865119
0.00086492
0.000864744
0.000864612
0.000864677
0.000864749
0.000864723
0.000864732
0.0008646
0.000864365
0.000864899
0.00086523
0.000865653
0.000865937
0.000866057
0.00086602
0.000865947
0.000865746
0.000865523
0.000865305
0.000865109
0.000864938
0.000864767
0.000864542
0.000864555
0.000864626
0.000864606
0.000864646
0.000864472
0.000864158
0.000864781
0.00086522
0.000865602
0.000865871
0.000865963
0.000865952
0.000865802
0.000865602
0.000865436
0.00086526
0.000865084
0.000864933
0.000864822
0.000864692
0.000864642
0.000864605
0.000864591
0.00086453
0.000864325
0.000864012
0.000864579
0.000865004
0.000865393
0.000865742
0.00086585
0.000865894
0.000865767
0.000865619
0.000865536
0.000865355
0.000865159
0.000864951
0.000864848
0.000864818
0.000864709
0.000864484
0.000864466
0.000864352
0.000864288
0.000864144
0.00086456
0.000864923
0.000865354
0.000865812
0.00086597
0.000865927
0.00086585
0.000865757
0.000865699
0.000865509
0.000865334
0.000865121
0.000865
0.000864894
0.000864783
0.000864652
0.000864587
0.00086452
0.000864469
0.000864276
0.0008647
0.00086507
0.000865442
0.00086578
0.000865915
0.000865929
0.000865882
0.000865767
0.00086562
0.000865468
0.000865348
0.00086527
0.000865217
0.000865091
0.000865004
0.000864932
0.000864861
0.000864759
0.000864582
0.000864306
0.000864617
0.000865055
0.000865486
0.000865737
0.000865838
0.000865923
0.000865854
0.000865705
0.000865514
0.000865315
0.000865139
0.000865009
0.000864935
0.000864826
0.000864728
0.000864651
0.000864583
0.000864501
0.00086437
0.000864125
0.000864692
0.000865067
0.000865474
0.000865727
0.000865809
0.000865791
0.000865702
0.000865542
0.000865332
0.000865105
0.000864883
0.000864687
0.000864507
0.000864313
0.000864135
0.000864015
0.000863935
0.000863854
0.000863761
0.000863639
0.000864802
0.000865072
0.000865368
0.000865545
0.000865625
0.000865593
0.000865478
0.000865307
0.000865138
0.000865008
0.000864879
0.000864695
0.000864401
0.000864112
0.000863976
0.000863854
0.000863821
0.000863733
0.00086364
0.000863592
0.000864779
0.000864992
0.000865315
0.000865532
0.000865636
0.000865591
0.00086541
0.000865167
0.000865021
0.000865009
0.00086499
0.00086483
0.000864477
0.000864163
0.000864132
0.0008641
0.000864071
0.000863946
0.000863824
0.000863752
0.000864796
0.000865019
0.000865332
0.000865512
0.000865637
0.000865551
0.000865363
0.000865168
0.000865058
0.000864997
0.000864871
0.000864706
0.000864484
0.000864316
0.00086433
0.000864434
0.000864356
0.000864255
0.000864104
0.000863951
0.000864831
0.000865135
0.000865385
0.000865481
0.000865567
0.000865497
0.000865358
0.000865198
0.000864959
0.000864711
0.000864484
0.000864362
0.000864305
0.000864317
0.000864405
0.000864578
0.000864732
0.000864722
0.000864586
0.000864421
0.000864743
0.000865209
0.000865588
0.000865678
0.00086569
0.000865627
0.000865377
0.000865042
0.000864757
0.000864627
0.000864524
0.000864469
0.000864458
0.000864492
0.000864564
0.000864827
0.000865047
0.000865085
0.000864965
0.000864707
0.000864774
0.000865301
0.000865637
0.000865733
0.000865699
0.000865563
0.000865362
0.000865094
0.000864916
0.000864908
0.000864854
0.000864833
0.000864854
0.000864922
0.000865006
0.000865264
0.000865388
0.000865373
0.000865191
0.000864848
0.000865142
0.000865563
0.000865838
0.000865905
0.000865844
0.000865739
0.000865655
0.000865445
0.000865205
0.00086497
0.000864788
0.000864711
0.000864731
0.000864853
0.000865082
0.000865411
0.000865624
0.000865631
0.000865387
0.000864945
0.000865517
0.000865843
0.000866166
0.000866249
0.000866206
0.000866143
0.000866072
0.000865834
0.000865491
0.000865026
0.000864761
0.000864641
0.000864637
0.000864751
0.000864999
0.000865419
0.000865689
0.00086574
0.000865479
0.000865068
0.000865585
0.000865912
0.000866252
0.000866367
0.0008664
0.000866361
0.00086619
0.000865952
0.000865654
0.000865288
0.000865058
0.000864937
0.00086491