/*--------------------------------*- C++ -*----------------------------------*\
  =========                 |
  \\      /  F ield         | OpenFOAM: The Open Source CFD Toolbox
   \\    /   O peration     | Website:  https://openfoam.org
    \\  /    A nd           | Version:  6
     \\/     M anipulation  |
\*---------------------------------------------------------------------------*/
FoamFile
{
    version     2.0;
    format      ascii;
    class       volScalarField;
    location    "6";
    object      p;
}
// * * * * * * * * * * * * * * * * * * * * * * * * * * * * * * * * * * * * * //

dimensions      [0 2 -2 0 0 0 0];

internalField   nonuniform List<scalar> 
10000
(
-0.141947
-0.126734
-0.101389
-0.0609521
-0.031542
-0.015561
-0.00873338
-0.00534916
-0.00218874
0.000862575
0.00399398
0.00690354
0.00969288
0.0109738
0.0067201
-0.0086745
-0.0391763
-0.0828672
-0.108806
-0.119881
-0.210497
-0.181919
-0.130413
-0.0602647
-0.0031683
0.0326701
0.0507922
0.0606395
0.0679634
0.0751711
0.08328
0.092481
0.104726
0.116384
0.120982
0.106399
0.0644712
0.00108548
-0.0553797
-0.100297
0.0482487
0.0555991
0.0768852
0.102948
0.128097
0.149951
0.16672
0.178794
0.187916
0.195585
0.202965
0.210782
0.219365
0.228802
0.238026
0.243113
0.239968
0.226747
0.201698
0.173435
0.283414
0.301519
0.314628
0.319813
0.318368
0.312214
0.305025
0.299761
0.297505
0.298471
0.301893
0.307552
0.315086
0.322934
0.329639
0.333298
0.331801
0.323642
0.311497
0.298541
0.449857
0.469583
0.475411
0.467254
0.451469
0.432327
0.414954
0.401631
0.393375
0.389056
0.387783
0.38839
0.389583
0.39104
0.391748
0.392023
0.39383
0.39611
0.394936
0.386622
0.472864
0.477862
0.483012
0.485274
0.484227
0.480473
0.475441
0.470196
0.465718
0.461844
0.457989
0.453102
0.447174
0.439456
0.430817
0.423092
0.41814
0.417152
0.419859
0.420752
0.467722
0.455517
0.456809
0.467288
0.482832
0.50031
0.514905
0.524747
0.530035
0.531451
0.53029
0.526152
0.51844
0.506271
0.490036
0.472213
0.457162
0.448096
0.449712
0.461389
0.538364
0.530862
0.534551
0.546845
0.56305
0.581208
0.596699
0.607677
0.613935
0.616805
0.616762
0.61397
0.60912
0.601275
0.591225
0.58025
0.570839
0.564865
0.563466
0.568983
0.670911
0.674866
0.679858
0.686764
0.694348
0.700637
0.705291
0.708741
0.711245
0.712918
0.714188
0.715063
0.715012
0.714544
0.71392
0.712022
0.708861
0.704793
0.702111
0.702602
0.807385
0.81191
0.810292
0.804917
0.801775
0.80036
0.80079
0.803062
0.806113
0.810085
0.814909
0.82073
0.828426
0.837813
0.848722
0.859523
0.867091
0.869245
0.865397
0.857101
0.887136
0.882962
0.878326
0.874627
0.874069
0.877082
0.882283
0.88856
0.894848
0.9008
0.906907
0.914876
0.925125
0.939239
0.95607
0.974106
0.990852
1.00212
1.00036
0.985403
0.983257
0.982549
0.979991
0.976836
0.974865
0.975072
0.976988
0.98023
0.983824
0.987269
0.989939
0.992172
0.994439
0.99637
0.99833
1.00089
1.00439
1.00917
1.0143
1.01755
1.08318
1.08636
1.08668
1.085
1.08218
1.07944
1.0774
1.07596
1.07527
1.07448
1.07346
1.07075
1.06535
1.05688
1.04596
1.03385
1.02392
1.019
1.024
1.04118
1.19314
1.20297
1.20857
1.20967
1.20481
1.19593
1.18611
1.17742
1.17074
1.16575
1.16157
1.15653
1.15102
1.14343
1.13463
1.12563
1.11822
1.11398
1.11409
1.1229
1.29858
1.30991
1.31344
1.30784
1.297
1.28454
1.27345
1.26424
1.25718
1.25135
1.24663
1.24236
1.23814
1.23411
1.22993
1.22518
1.2207
1.21689
1.21554
1.21972
1.34498
1.33512
1.33036
1.33123
1.33476
1.33876
1.34092
1.34048
1.33828
1.33569
1.33295
1.33013
1.32835
1.32735
1.32788
1.32982
1.33186
1.3324
1.33076
1.33075
1.42807
1.42337
1.42056
1.41843
1.41908
1.42055
1.42115
1.42077
1.41961
1.41791
1.41615
1.4148
1.41322
1.41264
1.41341
1.41646
1.42193
1.4268
1.42673
1.42374
1.47307
1.47244
1.47574
1.48047
1.48533
1.48946
1.49262
1.49534
1.49707
1.49808
1.49853
1.49845
1.49807
1.49556
1.49022
1.48208
1.47243
1.46407
1.46362
1.47428
1.52846
1.52875
1.53383
1.54214
1.55084
1.55856
1.56478
1.56951
1.57288
1.57507
1.57682
1.57904
1.58186
1.58585
1.59021
1.59293
1.5933
1.5918
1.58872
1.58683
1.60973
1.60773
1.60865
1.61376
1.62119
1.62937
1.6369
1.64313
1.64742
1.64997
1.65083
1.65108
1.6527
1.65692
1.66504
1.67621
1.68721
1.69501
1.694
1.6816
1.68875
1.68688
1.68516
1.68726
1.69329
1.70169
1.71051
1.71784
1.72299
1.72537
1.72563
1.7236
1.71882
1.71262
1.70563
1.69928
1.69588
1.69608
1.70051
1.70606
1.77204
1.77095
1.77103
1.77451
1.78108
1.78967
1.7986
1.80595
1.81092
1.81338
1.81339
1.80987
1.8035
1.79223
1.77667
1.75856
1.74176
1.73133
1.73353
1.75137
1.90942
1.91095
1.91142
1.91263
1.91359
1.91416
1.91525
1.91645
1.91743
1.91723
1.91607
1.91366
1.90997
1.90532
1.90026
1.89464
1.889
1.88468
1.88233
1.88518
2.09035
2.09699
2.09338
2.0836
2.07145
2.05916
2.04952
2.04302
2.03875
2.03594
2.03379
2.03167
2.0302
2.02953
2.03158
2.03685
2.04286
2.04829
2.04782
2.03971
2.22534
2.22714
2.22349
2.21782
2.2077
2.19418
2.18087
2.16947
2.16102
2.15557
2.15331
2.15393
2.1564
2.16077
2.16575
2.16943
2.17077
2.17101
2.17046
2.16725
2.32415
2.32992
2.33347
2.32929
2.31746
2.30184
2.28647
2.27387
2.26507
2.26016
2.25846
2.26011
2.26596
2.27539
2.28717
2.29843
2.30533
2.30588
2.30155
2.29322
2.3802
2.38104
2.38286
2.37734
2.36884
2.36018
2.3525
2.3468
2.34357
2.34234
2.34296
2.34621
2.35157
2.36008
2.37082
2.38281
2.39336
2.39791
2.39534
2.38381
2.41258
2.40626
2.40328
2.40283
2.40512
2.40788
2.41029
2.41197
2.4129
2.41382
2.41473
2.41622
2.41902
2.42267
2.42732
2.43302
2.43911
2.44447
2.44611
2.43808
2.43459
2.41911
2.41532
2.42355
2.43794
2.4538
2.46696
2.47549
2.48014
2.48187
2.48183
2.48022
2.47685
2.47234
2.46712
2.46273
2.46089
2.46222
2.46523
2.46254
2.51405
2.50616
2.50504
2.51003
2.51964
2.53197
2.54343
2.55222
2.55753
2.55973
2.55928
2.55577
2.54942
2.53871
2.52454
2.50922
2.49607
2.48796
2.48872
2.49492
2.61319
2.61056
2.61011
2.61382
2.61935
2.62605
2.63279
2.6389
2.64353
2.6459
2.64636
2.64488
2.64115
2.63502
2.6268
2.61718
2.60879
2.60304
2.60075
2.60247
2.73302
2.73731
2.73942
2.74111
2.74082
2.73943
2.73842
2.73878
2.74025
2.74249
2.74434
2.74586
2.74715
2.74782
2.74832
2.74769
2.74517
2.74123
2.73784
2.73409
2.83918
2.84781
2.84857
2.84325
2.83614
2.83105
2.82974
2.8315
2.83517
2.84004
2.84597
2.85331
2.86153
2.87176
2.88322
2.89407
2.90156
2.90331
2.89848
2.88495
2.91106
2.90034
2.89573
2.89746
2.90223
2.90945
2.91726
2.9242
2.92966
2.93511
2.9408
2.94847
2.95884
2.97264
2.98923
3.00698
3.02299
3.03341
3.03035
3.01269
3.05463
3.0575
3.05854
3.05645
3.05192
3.04497
3.03742
3.0312
3.02711
3.02473
3.02374
3.02413
3.02524
3.02754
3.03015
3.03284
3.03612
3.04034
3.04395
3.04759
3.17832
3.19345
3.19825
3.1906
3.17544
3.15577
3.13726
3.12295
3.11327
3.10677
3.10161
3.09603
3.08973
3.08159
3.07179
3.06144
3.05276
3.04854
3.05315
3.06779
3.2099
3.2071
3.20408
3.19974
3.19544
3.1913
3.1875
3.18392
3.18083
3.17789
3.17494
3.17118
3.16592
3.15898
3.15072
3.14265
3.13657
3.13366
3.1344
3.13889
3.234
3.21786
3.21135
3.21381
3.2221
3.23318
3.24227
3.24805
3.25047
3.25121
3.25001
3.24748
3.24342
3.23784
3.23149
3.22532
3.22005
3.21666
3.21602
3.21751
3.31803
3.31224
3.31006
3.31093
3.31493
3.3212
3.32681
3.33114
3.33325
3.33365
3.33262
3.33074
3.32752
3.3239
3.3197
3.31551
3.31153
3.30831
3.30721
3.30717
3.41657
3.41769
3.41638
3.41624
3.4166
3.41729
3.41785
3.4188
3.41912
3.41921
3.41825
3.4172
3.41592
3.415
3.41443
3.4142
3.41337
3.41191
3.41123
3.41077
3.52614
3.53371
3.53628
3.53634
3.5327
3.52613
3.51871
3.51252
3.50819
3.50551
3.50371
3.50319
3.50336
3.50553
3.50949
3.51534
3.5209
3.52457
3.52511
3.5231
3.60262
3.61218
3.6158
3.61305
3.607
3.60033
3.59491
3.59113
3.58832
3.58681
3.58526
3.58446
3.58383
3.58446
3.58709
3.59298
3.60058
3.60819
3.611
3.60917
3.61463
3.6025
3.6024
3.61175
3.62492
3.63896
3.65065
3.65866
3.66328
3.666
3.66742
3.6678
3.66584
3.66109
3.65235
3.64141
3.63039
3.62269
3.6257
3.64285
3.68062
3.67443
3.67674
3.68519
3.69827
3.7132
3.72673
3.73804
3.74612
3.75233
3.75691
3.76131
3.7653
3.76843
3.76806
3.76298
3.75385
3.74401
3.74098
3.75078
3.77401
3.77279
3.77469
3.78107
3.79014
3.80108
3.81216
3.82306
3.83239
3.84056
3.84763
3.85536
3.86413
3.8765
3.8913
3.90639
3.91823
3.92445
3.92057
3.90955
3.90696
3.9126
3.91519
3.9175
3.91881
3.91959
3.92057
3.92305
3.92636
3.93103
3.93559
3.94136
3.94822
3.95788
3.97047
3.98625
4.00233
4.01501
4.01658
4.00724
4.04574
4.05944
4.0614
4.05422
4.04367
4.03309
4.02491
4.02014
4.01788
4.01707
4.01649
4.01616
4.0149
4.01344
4.01163
4.01143
4.01283
4.01618
4.02152
4.02875
4.1281
4.12989
4.13014
4.12698
4.12135
4.11535
4.11058
4.10747
4.10518
4.10342
4.10082
4.09663
4.08899
4.07752
4.06259
4.04713
4.03455
4.02825
4.03303
4.05026
4.19978
4.19495
4.19156
4.1907
4.19099
4.19196
4.19342
4.19507
4.19586
4.1958
4.19423
4.19067
4.18384
4.17436
4.16243
4.15009
4.13999
4.13465
4.13485
4.13923
4.28757
4.27729
4.26851
4.26846
4.27395
4.28204
4.28947
4.29529
4.29821
4.29947
4.29855
4.29665
4.29306
4.2885
4.28235
4.27574
4.26892
4.26319
4.26014
4.25851
4.43102
4.43609
4.43733
4.43572
4.43182
4.42698
4.42161
4.41731
4.41383
4.41178
4.4105
4.41116
4.41301
4.41709
4.42162
4.42612
4.42815
4.42661
4.42159
4.41415
4.56726
4.58225
4.58968
4.58595
4.57386
4.55763
4.54211
4.53019
4.52189
4.51769
4.51579
4.51747
4.52226
4.53204
4.5451
4.55985
4.57232
4.57934
4.57574
4.56062
4.64278
4.6429
4.63824
4.63222
4.62634
4.62155
4.61778
4.61463
4.61155
4.60911
4.60676
4.60562
4.60505
4.60697
4.61003
4.61487
4.62056
4.62565
4.62874
4.62814
4.72318
4.71101
4.7017
4.69852
4.70039
4.70519
4.70907
4.71057
4.7092
4.70628
4.70151
4.69547
4.68729
4.67821
4.66833
4.66059
4.65729
4.65919
4.666
4.67598
4.86506
4.86469
4.86514
4.86164
4.85564
4.84743
4.83787
4.82885
4.82089
4.8142
4.80829
4.80267
4.79553
4.78622
4.77345
4.75842
4.74432
4.73559
4.73809
4.75091
4.96547
4.97
4.97249
4.96719
4.95819
4.94734
4.93657
4.9275
4.92043
4.91569
4.91264
4.91169
4.91237
4.91449
4.91637
4.91742
4.91605
4.91351
4.91053
4.90509
4.98649
4.97001
4.96597
4.97107
4.98006
4.99024
4.99831
5.00324
5.00547
5.00725
5.00935
5.01386
5.02043
5.03101
5.04453
5.05965
5.07157
5.07707
5.07258
5.05375
5.05858
5.04662
5.04668
5.05519
5.06615
5.07666
5.08481
5.09047
5.09365
5.09618
5.09826
5.10145
5.10539
5.11118
5.11788
5.12587
5.13313
5.13816
5.13974
5.13475
5.1729
5.17529
5.17607
5.17541
5.17668
5.17961
5.18301
5.18565
5.1869
5.18715
5.18637
5.18504
5.18226
5.17911
5.17506
5.17207
5.17252
5.17714
5.1838
5.19369
5.26427
5.26087
5.25697
5.25733
5.26147
5.26787
5.27408
5.27898
5.28218
5.28371
5.28379
5.28241
5.27949
5.27422
5.26522
5.25419
5.24424
5.23892
5.24262
5.25935
5.3833
5.38661
5.38831
5.39011
5.39023
5.38846
5.3862
5.38491
5.38466
5.38483
5.38492
5.38509
5.38474
5.38475
5.3849
5.38556
5.38744
5.38959
5.39066
5.39255
5.48189
5.48743
5.48924
5.48642
5.48253
5.48018
5.48035
5.48212
5.48432
5.48667
5.48871
5.49036
5.49206
5.49471
5.49908
5.50698
5.51686
5.52557
5.52786
5.52503
5.54301
5.52781
5.5238
5.5289
5.53947
5.55363
5.56799
5.57996
5.58891
5.59604
5.60238
5.60911
5.61498
5.61965
5.62119
5.61921
5.61548
5.61199
5.61404
5.62325
5.68918
5.68621
5.68567
5.6852
5.68633
5.68896
5.69262
5.6978
5.70402
5.71124
5.71973
5.72952
5.74161
5.75522
5.76874
5.78085
5.78909
5.7935
5.79252
5.78496
5.85484
5.86418
5.86428
5.85434
5.84125
5.8283
5.81905
5.8153
5.81626
5.82087
5.82804
5.83827
5.85067
5.86734
5.88742
5.90885
5.9285
5.9422
5.94218
5.9235
5.97749
5.98175
5.98022
5.97355
5.96258
5.94935
5.93711
5.92815
5.9231
5.92143
5.92248
5.92488
5.92921
5.93452
5.94025
5.94653
5.95328
5.96065
5.96674
5.96613
6.06323
6.06906
6.06903
6.0624
6.05108
6.03758
6.02498
6.01499
6.00857
6.00475
6.00274
6.00126
5.99855
5.9944
5.98853
5.98127
5.97586
5.97387
5.97923
5.99238
6.09043
6.0914
6.08959
6.0876
6.08564
6.08437
6.0834
6.08249
6.08204
6.08173
6.08172
6.0801
6.07804
6.07391
6.06875
6.06423
6.06098
6.05972
6.06008
6.06353
6.11227
6.10038
6.09723
6.10463
6.11718
6.13132
6.14346
6.15163
6.15617
6.15831
6.15876
6.15801
6.15479
6.15018
6.14473
6.13878
6.13426
6.13116
6.1295
6.128
6.21962
6.21373
6.21757
6.22655
6.23541
6.24296
6.24763
6.24953
6.24941
6.248
6.24577
6.24116
6.23513
6.22631
6.21655
6.20773
6.20033
6.19493
6.19128
6.18757
6.37906
6.39656
6.40655
6.40479
6.39539
6.38091
6.36629
6.35394
6.34482
6.33771
6.33183
6.32621
6.31853
6.30865
6.29675
6.2831
6.27016
6.25915
6.25194
6.24561
6.46554
6.48713
6.49687
6.49254
6.4798
6.4628
6.44683
6.43405
6.42503
6.41808
6.41317
6.40853
6.40607
6.40277
6.39718
6.38766
6.37288
6.35513
6.34137
6.32965
6.46231
6.46792
6.47384
6.47796
6.48096
6.48305
6.48449
6.4848
6.48432
6.48349
6.48266
6.48326
6.4851
6.49048
6.49835
6.50576
6.5106
6.50909
6.49627
6.47051
6.44823
6.44076
6.44533
6.46039
6.48038
6.50202
6.51975
6.53227
6.53994
6.5443
6.54647
6.54678
6.54813
6.55084
6.55653
6.56519
6.57401
6.57923
6.57311
6.55597
6.49434
6.49778
6.50829
6.52331
6.54161
6.56127
6.57899
6.59311
6.60284
6.60821
6.61008
6.60981
6.60647
6.60142
6.59511
6.5882
6.5827
6.57863
6.57582
6.57587
6.56666
6.57667
6.58725
6.60124
6.61673
6.6333
6.6494
6.6637
6.67501
6.68219
6.6861
6.68537
6.68188
6.67291
6.6594
6.64197
6.62322
6.60773
6.60169
6.60971
6.6827
6.69938
6.71116
6.72196
6.73091
6.73837
6.74574
6.75307
6.76001
6.76522
6.76853
6.77021
6.77014
6.76904
6.76692
6.76168
6.7528
6.74105
6.72844
6.72081
6.81626
6.83894
6.85137
6.85481
6.85425
6.85213
6.85111
6.85199
6.85399
6.85537
6.85545
6.85371
6.85256
6.85197
6.85373
6.85672
6.85707
6.85232
6.83936
6.82255
6.9103
6.92054
6.93198
6.94072
6.94638
6.94846
6.9488
6.94828
6.94746
6.94558
6.94193
6.93621
6.9278
6.91785
6.90716
6.89626
6.88531
6.87518
6.86713
6.86719
6.9995
7.00503
7.01672
7.02696
7.03386
7.03775
7.03989
7.04107
7.04167
7.04065
7.03751
7.03065
7.02049
7.00543
6.98705
6.96657
6.94606
6.92928
6.92183
6.93181
7.07461
7.07147
7.07741
7.08823
7.10034
7.11285
7.12477
7.13467
7.14155
7.14497
7.14472
7.14152
7.13561
7.12789
7.11941
7.11032
7.10033
7.09004
7.07975
7.07732
7.18676
7.17107
7.17285
7.18781
7.20843
7.23021
7.24903
7.26315
7.27182
7.27617
7.27618
7.27325
7.26833
7.26304
7.25933
7.25714
7.25558
7.25319
7.24655
7.24258
7.39446
7.38753
7.38974
7.3942
7.40114
7.40912
7.41639
7.42263
7.42741
7.43054
7.43164
7.43122
7.42895
7.42469
7.41805
7.4093
7.39884
7.38962
7.38767
7.40185
7.62836
7.62095
7.61568
7.60599
7.59853
7.59539
7.59661
7.60039
7.60481
7.60889
7.61203
7.6153
7.61859
7.62304
7.62919
7.63591
7.6421
7.64761
7.65066
7.65876
7.87108
7.83945
7.81866
7.80478
7.79915
7.80093
7.80662
7.81238
7.81703
7.82098
7.82447
7.82874
7.83504
7.84485
7.85944
7.87993
7.90238
7.92282
7.93419
7.94386
8.24264
8.21396
8.18465
8.14998
8.12034
8.09743
8.08146
8.07129
8.06609
8.06548
8.06874
8.07684
8.08779
8.10229
8.1191
8.13706
8.15561
8.17331
8.1917
8.2217
8.66076
8.63387
8.59442
8.53525
8.47546
8.42312
8.38282
8.35459
8.33764
8.33027
8.33142
8.34086
8.35873
8.38488
8.41845
8.45828
8.49859
8.53517
8.56068
8.58544
9.04336
9.00469
8.9569
8.88647
8.81246
8.74438
8.68849
8.64529
8.61588
8.60043
8.59804
8.60984
8.63273
8.66861
8.71699
8.77501
8.83567
8.88896
8.92253
8.94982
9.36299
9.32178
9.27523
9.19857
9.11043
9.02626
8.95609
8.90175
8.86556
8.84747
8.84734
8.86431
8.8969
8.94225
8.99677
9.05693
9.11388
9.16263
9.20079
9.25004
9.55643
9.50609
9.46523
9.39379
9.30629
9.22011
9.1495
9.09646
9.06241
9.04752
9.05131
9.07614
9.11824
9.17766
9.2499
9.32843
9.40439
9.46647
9.50455
9.54884
9.62118
9.56193
9.53456
9.48287
9.41335
9.34062
9.27874
9.23101
9.2006
9.18834
9.19546
9.223
9.27083
9.33752
9.41992
9.51235
9.59918
9.66211
9.68879
9.7287
9.55851
9.51231
9.51967
9.49261
9.43729
9.37198
9.31462
9.26896
9.23882
9.22669
9.23355
9.26271
9.30986
9.37504
9.45172
9.52786
9.58856
9.61615
9.6117
9.65984
9.24463
9.19946
9.25788
9.28585
9.27221
9.2351
9.19575
9.16006
9.13355
9.1196
9.1202
9.13484
9.16297
9.19933
9.23867
9.27083
9.28055
9.25634
9.21163
9.27819
8.60077
8.51548
8.6317
8.74784
8.81774
8.84716
8.85498
8.85107
8.84191
8.83398
8.82698
8.82294
8.81444
8.79754
8.76809
8.71693
8.64107
8.54024
8.45346
8.56833
7.73554
7.55493
7.70591
7.91432
8.08746
8.2117
8.29349
8.34459
8.37169
8.38012
8.37156
8.34378
8.29638
8.21889
8.10842
7.96087
7.78009
7.58671
7.46299
7.67073
6.97496
6.62748
6.76752
7.0351
7.28653
7.48755
7.63475
7.73517
7.7941
7.81959
7.8121
7.77338
7.69764
7.57825
7.41191
7.19217
6.93351
6.67176
6.54529
6.91263
6.84367
6.26843
6.35131
6.6004
6.83483
7.02013
7.15604
7.25241
7.31163
7.33841
7.33463
7.29808
7.23116
7.12598
6.98209
6.78884
6.5531
6.30968
6.23134
6.81386
7.76694
6.96457
6.95409
7.04799
7.11762
7.16658
7.20586
7.23844
7.2603
7.26907
7.26526
7.24788
7.21877
7.18357
7.14061
7.09454
7.02528
6.94322
6.95674
7.7557
9.82845
8.47903
8.28929
8.17741
8.05824
7.96722
7.91503
7.89024
7.87963
7.87113
7.86798
7.86284
7.86433
7.88737
7.93435
8.03495
8.16335
8.28424
8.46576
9.78043
13.3475
8.70782
8.50797
8.51757
8.39218
8.30311
8.26031
8.2391
8.22712
8.2194
8.21618
8.21472
8.2205
8.23845
8.28216
8.37442
8.50709
8.50342
8.69407
13.3053
-0.797496
-0.683876
-0.660803
-0.495082
-0.3695
-0.298045
-0.256092
-0.227889
-0.208646
-0.197806
-0.193039
-0.194668
-0.201345
-0.213023
-0.233981
-0.281142
-0.380551
-0.525238
-0.550158
-0.659048
-1.20531
-1.11072
-1.05333
-0.848379
-0.643211
-0.489491
-0.388023
-0.321216
-0.278112
-0.252259
-0.239147
-0.239131
-0.248962
-0.274211
-0.321883
-0.412638
-0.555582
-0.708929
-0.755989
-0.874072
-0.789315
-0.82807
-0.78374
-0.676263
-0.545004
-0.414824
-0.307708
-0.228656
-0.173855
-0.137769
-0.116712
-0.110117
-0.118744
-0.146617
-0.195969
-0.263539
-0.326839
-0.365594
-0.382081
-0.381071
-0.568437
-0.553319
-0.508129
-0.439171
-0.355348
-0.266306
-0.186012
-0.118401
-0.0656854
-0.0256402
0.00267697
0.0207636
0.0293253
0.0245395
0.00139484
-0.0482139
-0.127222
-0.218311
-0.251384
-0.22605
-0.373845
-0.29111
-0.228644
-0.169907
-0.104528
-0.0340587
0.0275035
0.0772058
0.11739
0.151546
0.180251
0.206622
0.23146
0.25882
0.291971
0.33103
0.3672
0.389868
0.373472
0.33593
0.0828743
0.192018
0.259328
0.283718
0.283712
0.278356
0.280537
0.292663
0.309139
0.328257
0.345934
0.363738
0.380662
0.400249
0.429425
0.479826
0.550943
0.626496
0.652185
0.608243
0.667056
0.743683
0.757029
0.693259
0.618238
0.555056
0.517811
0.503335
0.500434
0.500927
0.501229
0.498388
0.486211
0.458514
0.413308
0.360954
0.317118
0.29698
0.32911
0.375087
0.90725
0.901762
0.887212
0.870975
0.842118
0.804089
0.765529
0.73156
0.703233
0.678127
0.653099
0.62214
0.582466
0.524451
0.44282
0.335377
0.223726
0.141356
0.136656
0.192801
1.15636
1.12612
1.11333
1.09925
1.07217
1.03299
0.988071
0.941901
0.899642
0.859233
0.818788
0.772297
0.719027
0.659912
0.595882
0.524968
0.456589
0.401635
0.366186
0.358681
1.23284
1.1426
1.08805
1.07481
1.08597
1.09974
1.10113
1.09048
1.07173
1.04703
1.01778
0.982224
0.941738
0.897406
0.851976
0.809857
0.766961
0.717182
0.669117
0.63425
1.39505
1.2813
1.22717
1.23643
1.26359
1.28412
1.2891
1.2843
1.27276
1.25716
1.23927
1.22103
1.20306
1.19184
1.19182
1.20332
1.21639
1.21186
1.16833
1.09651
1.7665
1.75141
1.72368
1.66948
1.61179
1.56134
1.52612
1.50335
1.48596
1.47257
1.46147
1.45513
1.45637
1.46876
1.49651
1.54066
1.59652
1.65143
1.64394
1.55854
1.69451
1.7482
1.72974
1.68926
1.65931
1.64768
1.64964
1.65539
1.66013
1.66379
1.66795
1.67692
1.69244
1.71427
1.73712
1.75177
1.75281
1.7514
1.75868
1.74317
1.48652
1.48602
1.50419
1.59556
1.69026
1.76224
1.80838
1.83636
1.85351
1.86446
1.87124
1.87547
1.87914
1.88347
1.89152
1.90359
1.91425
1.92185
1.93028
1.93983
1.79892
1.83128
1.86974
1.9137
1.96293
2.00815
2.04487
2.0714
2.08965
2.09983
2.10524
2.10494
2.09623
2.07541
2.04254
2.00533
1.97549
1.95595
1.96586
2.00759
2.12591
2.16883
2.20477
2.2357
2.26829
2.30395
2.33293
2.35093
2.36281
2.37131
2.3799
2.38757
2.3967
2.39941
2.38788
2.34873
2.28002
2.19996
2.17018
2.19265
2.62803
2.69104
2.73217
2.72588
2.69426
2.65795
2.63406
2.62381
2.62462
2.63244
2.64771
2.67087
2.70318
2.74729
2.80355
2.86052
2.90441
2.91986
2.88393
2.81482
3.05425
3.10998
3.11195
3.04072
2.95584
2.88347
2.83986
2.82295
2.82393
2.8365
2.85832
2.89169
2.9407
3.0073
3.08982
3.18799
3.29364
3.38744
3.40309
3.33564
3.06586
3.04177
3.01228
2.98876
2.96908
2.95716
2.95317
2.95559
2.96488
2.98025
3.00136
3.02953
3.06587
3.114
3.16836
3.22646
3.28616
3.3422
3.39228
3.42957
2.94209
2.90325
2.8848
2.90635
2.94367
2.98332
3.01948
3.04986
3.07604
3.09969
3.1212
3.13753
3.14706
3.1487
3.1476
3.15241
3.17348
3.21062
3.27135
3.35541
2.80499
2.75655
2.76414
2.85103
2.95493
3.04495
3.11262
3.16274
3.20029
3.22786
3.2489
3.2612
3.26125
3.24407
3.21029
3.16113
3.11335
3.08424
3.11808
3.21073
3.06665
3.0896
3.12308
3.16538
3.21391
3.26474
3.30999
3.34667
3.37379
3.39167
3.40059
3.39984
3.39138
3.3738
3.3517
3.32793
3.31121
3.31052
3.32103
3.34358
3.46746
3.50784
3.53705
3.55741
3.56783
3.57635
3.58713
3.59466
3.59749
3.59445
3.58546
3.56894
3.54543
3.5184
3.49216
3.46799
3.44672
3.43427
3.4367
3.4447
4.0758
4.14305
4.1576
4.11853
4.05122
3.97765
3.9183
3.87668
3.84692
3.82174
3.79693
3.77055
3.74439
3.71559
3.68603
3.65798
3.63222
3.61072
3.60001
3.59314
4.64451
4.70291
4.66601
4.5441
4.41122
4.29041
4.19393
4.12355
4.0738
4.03471
4.00139
3.97058
3.94248
3.91673
3.89395
3.87485
3.85812
3.83906
3.81768
3.7913
4.78758
4.73872
4.67104
4.59815
4.52299
4.44883
4.37895
4.31713
4.26606
4.22475
4.19011
4.15888
4.13194
4.1089
4.09385
4.09077
4.09842
4.10518
4.08875
4.03963
4.72794
4.63686
4.57964
4.55979
4.54556
4.52311
4.49214
4.45571
4.41997
4.38737
4.3587
4.33328
4.30852
4.28445
4.26096
4.24216
4.23595
4.24432
4.23991
4.18914
4.5197
4.40798
4.37342
4.42516
4.48905
4.53934
4.56543
4.56836
4.55721
4.54149
4.52601
4.5121
4.50052
4.48601
4.46028
4.40803
4.32186
4.22309
4.18695
4.19313
4.605
4.56853
4.57876
4.61899
4.65377
4.67779
4.68905
4.69096
4.68738
4.6825
4.67952
4.68091
4.6867
4.70044
4.72603
4.75923
4.78486
4.78434
4.73956
4.68294
4.84344
4.87699
4.88336
4.84783
4.82032
4.80185
4.79214
4.79033
4.79195
4.79532
4.79942
4.80666
4.81884
4.84034
4.87885
4.94172
5.02265
5.09742
5.10285
5.04349
4.78551
4.77544
4.76124
4.76116
4.78236
4.81307
4.8426
4.86557
4.88238
4.8944
4.90444
4.91504
4.92583
4.93848
4.95154
4.96437
4.97877
4.99865
5.02604
5.03546
4.71789
4.71765
4.72784
4.76083
4.80941
4.86681
4.92021
4.96003
4.98656
5.00489
5.01775
5.02527
5.02674
5.01602
4.99042
4.95658
4.92779
4.91703
4.93868
4.97884
4.64872
4.6603
4.69398
4.76519
4.85432
4.9445
5.02011
5.07627
5.11633
5.14321
5.16157
5.17193
5.1766
5.17223
5.15142
5.10516
5.03535
4.96458
4.95268
4.99828
4.80994
4.84734
4.9239
5.02987
5.12015
5.18781
5.23753
5.27649
5.30838
5.33339
5.35248
5.36691
5.38099
5.39911
5.42905
5.46708
5.49995
5.51138
5.48522
5.45552
5.42568
5.54417
5.61089
5.58798
5.54898
5.52148
5.51433
5.52021
5.53242
5.54455
5.55587
5.56599
5.57525
5.58886
5.61389
5.66233
5.73576
5.80553
5.8166
5.7797
5.83247
5.90525
5.89595
5.83294
5.78432
5.75661
5.74684
5.7489
5.75616
5.76304
5.7685
5.77247
5.77599
5.77289
5.75424
5.71771
5.67825
5.65715
5.67842
5.72204
6.07588
6.09099
6.08271
6.08094
6.06756
6.04273
6.01778
6.0007
5.99253
5.98853
5.98757
5.98701
5.98732
5.9853
5.97326
5.93373
5.86433
5.79517
5.78107
5.83176
6.38897
6.41921
6.43221
6.42383
6.38213
6.32543
6.27467
6.2365
6.21177
6.19782
6.19142
6.1901
6.19506
6.21016
6.24447
6.29548
6.33903
6.35692
6.33293
6.30358
6.60335
6.60795
6.60514
6.5845
6.54541
6.49534
6.44809
6.41073
6.38402
6.3658
6.35511
6.35203
6.35447
6.36727
6.39726
6.45848
6.54207
6.61676
6.63077
6.58926
6.69107
6.66013
6.62784
6.59466
6.57366
6.56009
6.54512
6.52945
6.51407
6.50091
6.48927
6.47897
6.4673
6.44781
6.4158
6.37819
6.34704
6.33541
6.36582
6.41444
6.6542
6.59327
6.55212
6.54213
6.5571
6.58607
6.61099
6.62626
6.63173
6.62976
6.62258
6.61007
6.59123
6.55885
6.50382
6.42003
6.32599
6.25809
6.2598
6.3311
6.7023
6.63552
6.6201
6.65881
6.70824
6.7484
6.77267
6.78734
6.79398
6.79478
6.78896
6.77694
6.76039
6.74132
6.71941
6.68708
6.6464
6.61048
6.58577
6.59256
7.08728
7.09258
7.09332
7.06645
7.03113
7.00094
6.98462
6.97941
6.97936
6.98156
6.9849
6.98812
6.98927
6.99209
7.00036
7.01149
7.01297
6.9963
6.96751
6.94267
7.2803
7.28208
7.25483
7.20384
7.16023
7.1355
7.12854
7.13061
7.1365
7.14636
7.15941
7.17849
7.20493
7.24348
7.29851
7.36856
7.43482
7.47245
7.45652
7.40594
7.23466
7.18026
7.16774
7.21526
7.25955
7.28242
7.28686
7.2842
7.28344
7.28793
7.29647
7.31245
7.33717
7.37913
7.44046
7.52608
7.62608
7.71704
7.74296
7.70008
7.51961
7.53584
7.54082
7.51652
7.48081
7.44886
7.42778
7.4163
7.41097
7.41176
7.41523
7.42067
7.42302
7.42029
7.40963
7.39349
7.38145
7.38876
7.43673
7.50192
7.52493
7.52569
7.49909
7.4627
7.44703
7.4578
7.4789
7.49905
7.51374
7.52373
7.52974
7.5305
7.52236
7.49844
7.45104
7.3823
7.31444
7.27388
7.29666
7.39033
7.28922
7.21106
7.20823
7.30445
7.42506
7.53285
7.60486
7.64668
7.66813
7.67834
7.67838
7.67066
7.6562
7.63673
7.60975
7.57822
7.55102
7.53874
7.54077
7.57584
7.58793
7.59046
7.65523
7.74513
7.81467
7.85675
7.87832
7.88834
7.89117
7.88997
7.88379
7.87243
7.85522
7.83659
7.81674
7.79586
7.77161
7.75118
7.74711
7.7639
8.19463
8.29773
8.35765
8.32225
8.2543
8.19182
8.15428
8.1362
8.12665
8.12239
8.11934
8.11817
8.11684
8.116
8.11297
8.10573
8.09011
8.06881
8.05404
8.05431
8.43426
8.49732
8.49009
8.43127
8.38102
8.34823
8.3306
8.32606
8.32907
8.33816
8.35145
8.37047
8.39301
8.42047
8.45143
8.4822
8.5003
8.4974
8.47626
8.45683
8.32446
8.29629
8.27711
8.30527
8.35484
8.40384
8.44007
8.47127
8.49899
8.52752
8.55702
8.59342
8.63701
8.69321
8.76482
8.85212
8.93535
8.98813
8.98158
8.93968
8.44243
8.40786
8.41809
8.47558
8.5414
8.59862
8.63734
8.6659
8.68804
8.71035
8.73274
8.76194
8.79906
8.85179
8.92035
9.01394
9.12441
9.22787
9.26242
9.22004
9.00242
9.04804
9.07246
9.04494
8.99271
8.9409
8.9042
8.88649
8.87934
8.88007
8.88332
8.8899
8.89464
8.89385
8.87982
8.86012
8.84952
8.86235
8.91585
8.97862
9.45876
9.51633
9.48985
9.38495
9.268
9.16976
9.10272
9.0631
9.0385
9.0217
9.00737
8.99213
8.9696
8.93358
8.87733
8.8026
8.73075
8.68621
8.70661
8.79259
9.52728
9.49748
9.44453
9.39519
9.34728
9.30123
9.25848
9.22166
9.18951
9.16195
9.13321
9.1002
9.05916
9.01281
8.96333
8.91404
8.87333
8.85163
8.84659
8.86288
9.47411
9.40419
9.36633
9.37088
9.38473
9.39184
9.38713
9.37227
9.35052
9.32554
9.29538
9.25883
9.21301
9.15917
9.09861
9.03928
8.98623
8.94762
8.93045
8.92289
9.35201
9.26685
9.25988
9.33884
9.42857
9.503
9.5469
9.56139
9.55469
9.53676
9.50958
9.47573
9.43529
9.39013
9.3381
9.2818
9.2233
9.17058
9.13365
9.10488
9.6462
9.65548
9.69906
9.75825
9.79984
9.82443
9.83258
9.82955
9.81827
9.80231
9.78267
9.76095
9.73548
9.70875
9.68082
9.6511
9.61348
9.56574
9.51198
9.45462
10.2182
10.3187
10.3484
10.287
10.2143
10.1586
10.1249
10.1068
10.0957
10.0881
10.083
10.0808
10.0816
10.0888
10.1049
10.1318
10.1551
10.1555
10.1094
10.0207
10.4193
10.4559
10.4287
10.3744
10.3445
10.3371
10.3391
10.3461
10.354
10.3647
10.3791
10.4014
10.4316
10.4732
10.5251
10.588
10.6594
10.725
10.7198
10.6239
10.4545
10.4125
10.4141
10.4786
10.5387
10.5721
10.5831
10.5908
10.6022
10.6221
10.652
10.6962
10.7568
10.8275
10.8916
10.9371
10.962
10.9785
10.9901
10.9715
10.8709
10.897
10.9119
10.8915
10.8576
10.8253
10.8059
10.8012
10.8069
10.823
10.85
10.893
10.9541
11.0367
11.1299
11.2155
11.2793
11.3159
11.327
11.3201
11.0592
11.0758
11.0533
11.0007
10.9594
10.9412
10.9385
10.943
10.951
10.9631
10.9796
11.0015
11.0314
11.073
11.1278
11.1968
11.2714
11.3341
11.3794
11.4179
11.0014
10.9494
10.9416
10.994
11.0435
11.0709
11.0778
11.0749
11.0723
11.0734
11.0779
11.0827
11.0824
11.0784
11.0728
11.0696
11.0814
11.1165
11.182
11.2652
11.2968
11.3147
11.3196
11.2908
11.2518
11.2155
11.1897
11.1723
11.1614
11.1552
11.1531
11.1494
11.1415
11.1211
11.0864
11.0394
10.9917
10.9607
10.9909
11.0788
11.325
11.3313
11.2984
11.2433
11.2077
11.1948
11.1955
11.2007
11.2046
11.206
11.2038
11.1981
11.1863
11.1697
11.1497
11.1276
11.1132
11.1124
11.1191
11.1472
11.0799
11.0099
10.9928
11.0576
11.1351
11.1941
11.2302
11.2526
11.2653
11.2699
11.2666
11.2538
11.234
11.2096
11.1846
11.1616
11.1417
11.1307
11.1315
11.1477
11.233
11.2254
11.242
11.2679
11.2965
11.3225
11.3421
11.3547
11.3604
11.3599
11.3531
11.3401
11.3184
11.2896
11.2555
11.2185
11.1847
11.1592
11.147
11.1474
11.3904
11.4037
11.4236
11.4417
11.455
11.4699
11.48
11.4816
11.4778
11.4697
11.4579
11.4392
11.4152
11.3801
11.3371
11.2905
11.243
11.2009
11.1736
11.1568
11.6102
11.6485
11.6692
11.6631
11.645
11.6249
11.611
11.6021
11.595
11.5854
11.5722
11.5548
11.532
11.5026
11.4656
11.42
11.3681
11.3136
11.27
11.2357
11.7007
11.739
11.7418
11.7207
11.7073
11.7024
11.7044
11.7095
11.7135
11.7119
11.7059
11.6925
11.6779
11.6616
11.6442
11.6237
11.5919
11.5436
11.4869
11.4294
11.6212
11.6021
11.6247
11.7099
11.7854
11.8317
11.8507
11.8554
11.8541
11.8503
11.8451
11.8396
11.8336
11.8329
11.8423
11.8613
11.881
11.8775
11.8302
11.7496
12.0163
12.0799
12.1276
12.1309
12.105
12.0691
12.0386
12.0165
12.0001
11.9868
11.9754
11.9635
11.9555
11.9501
11.9527
11.9743
12.0175
12.0633
12.0535
11.9747
12.1924
12.2579
12.2672
12.2223
12.176
12.1425
12.1237
12.1117
12.1041
12.0968
12.0891
12.0797
12.0662
12.0429
12.0016
11.9394
11.8716
11.8232
11.822
11.8377
11.9751
11.9449
11.9334
11.9727
12.0376
12.1019
12.1502
12.1811
12.202
12.2132
12.2192
12.2175
12.2138
12.2012
12.1739
12.1162
12.0251
11.9326
11.8944
11.9269
11.9849
11.9443
11.9718
12.0576
12.1512
12.23
12.284
12.3191
12.342
12.3569
12.3661
12.3733
12.3806
12.3941
12.4209
12.4576
12.4849
12.4871
12.4457
12.4004
12.3975
12.4527
12.5046
12.5223
12.5203
12.5123
12.5092
12.512
12.5166
12.5203
12.5211
12.5196
12.5206
12.5296
12.5569
12.6106
12.6828
12.7516
12.7616
12.7039
12.6407
12.7172
12.7331
12.7016
12.6739
12.6598
12.661
12.669
12.6785
12.6838
12.6832
12.6752
12.6578
12.6323
12.6004
12.5631
12.5311
12.5222
12.5567
12.5965
12.5546
12.5393
12.5318
12.5788
12.6584
12.7403
12.8052
12.8502
12.8806
12.8965
12.901
12.8928
12.8748
12.8395
12.7832
12.7065
12.6299
12.5767
12.5861
12.6516
12.794
12.7746
12.8006
12.8825
12.9775
13.0619
13.123
13.1642
13.1904
13.2032
13.2038
13.1945
13.1786
13.1581
13.1329
13.1051
13.0816
13.0704
13.0677
13.0744
13.5624
13.6264
13.661
13.6516
13.6283
13.6079
13.6002
13.6036
13.6111
13.6164
13.6158
13.61
13.6002
13.5908
13.5843
13.5804
13.5757
13.5734
13.5768
13.5682
14.3373
14.4097
14.3863