/*--------------------------------*- C++ -*----------------------------------*\
  =========                 |
  \\      /  F ield         | OpenFOAM: The Open Source CFD Toolbox
   \\    /   O peration     | Website:  https://openfoam.org
    \\  /    A nd           | Version:  6
     \\/     M anipulation  |
\*---------------------------------------------------------------------------*/
FoamFile
{
    version     2.0;
    format      ascii;
    class       volScalarField;
    location    "6";
    object      p;
}
// * * * * * * * * * * * * * * * * * * * * * * * * * * * * * * * * * * * * * //

dimensions      [0 2 -2 0 0 0 0];

internalField   nonuniform List<scalar> 
130000
(
0.00810128
0.00741403
0.00680377
0.00626106
0.00576101
0.0052794
0.00481238
0.00434612
0.00388755
0.00343562
0.00299633
0.00257357
0.00216581
0.00177534
0.00140261
0.0010423
0.000691335
0.000340989
-2.38193e-05
-0.000403663
0.0197514
0.0186032
0.0174643
0.0164447
0.0154269
0.0144522
0.0134753
0.0125174
0.0115714
0.0106454
0.00975156
0.00888203
0.00805791
0.00726333
0.00650862
0.00577914
0.00508064
0.00438079
0.00369205
0.00300756
0.0273371
0.026363
0.0252076
0.0241557
0.0230561
0.0219681
0.0208523
0.0197377
0.018622
0.0175036
0.0164063
0.0153086
0.0142492
0.0131867
0.0121808
0.0111673
0.0102124
0.0092413
0.00832344
0.00739785
0.0329433
0.0319193
0.0307105
0.0295623
0.0283249
0.0270429
0.0257198
0.0243766
0.0230416
0.0216918
0.0203785
0.0190484
0.0177756
0.0164909
0.0152713
0.0140423
0.0128874
0.0117099
0.0106082
0.00947476
0.0386508
0.037555
0.0362878
0.0350607
0.0337182
0.0322746
0.0307806
0.0292361
0.0277101
0.0261515
0.0246444
0.0231073
0.0216417
0.0201419
0.0187366
0.017294
0.0159564
0.0145757
0.0132994
0.0119565
0.0439135
0.0427448
0.0414634
0.0402176
0.0388403
0.0373071
0.0357138
0.0340316
0.0323738
0.0306548
0.0290017
0.0272918
0.025674
0.0240065
0.0224435
0.0208359
0.0193477
0.017802
0.0163794
0.014875
0.0481084
0.0471013
0.0459109
0.0447141
0.0433645
0.0417976
0.0401644
0.0383963
0.0366588
0.0348251
0.0330675
0.0312271
0.0294891
0.0276712
0.0259829
0.0242171
0.0225957
0.0208912
0.0193291
0.0176445
0.0521948
0.0511872
0.0500215
0.0488485
0.047528
0.0459465
0.0442976
0.0424777
0.0406935
0.0387819
0.0369565
0.0350177
0.0331971
0.0312771
0.0294926
0.0276194
0.0259006
0.0240804
0.0224157
0.020608
0.0559544
0.054908
0.0537285
0.0525823
0.0512944
0.0497215
0.0480777
0.0462366
0.0444325
0.0424762
0.0406095
0.0386083
0.0367288
0.0347221
0.0328695
0.0308967
0.0290974
0.0271713
0.0254144
0.023475
0.0592363
0.0582813
0.0571804
0.0561009
0.0548849
0.0533482
0.0517381
0.0499015
0.0481039
0.0461285
0.0442492
0.0422084
0.0403012
0.0382487
0.0363532
0.0343261
0.0324798
0.0304876
0.0286744
0.0266591
0.0625769
0.061591
0.0605097
0.0594824
0.0583329
0.0568349
0.0552658
0.0534449
0.0516687
0.0496926
0.0478175
0.0457624
0.043844
0.0417553
0.0398396
0.0377632
0.0358836
0.0338345
0.0319741
0.0298762
0.0658039
0.0648976
0.0638898
0.0629346
0.0618628
0.0604064
0.0588804
0.0570804
0.055333
0.0533669
0.0515121
0.0494556
0.0475492
0.0454575
0.0435422
0.0414566
0.0395744
0.0375051
0.0356332
0.0335061
0.0694232
0.0683934
0.0673551
0.0664368
0.0654157
0.0639964
0.0625082
0.0607348
0.0590203
0.0570773
0.0552515
0.0532148
0.0513307
0.0492436
0.0473468
0.0452565
0.0433824
0.0413025
0.0394265
0.0372664
0.0728395
0.0718561
0.0708749
0.0700464
0.0691038
0.0677424
0.0663044
0.0645697
0.062898
0.0609895
0.059207
0.0572007
0.0553587
0.0533055
0.0514449
0.0493855
0.0475475
0.0454905
0.0436437
0.0415002
0.0763667
0.0754161
0.0744931
0.0737423
0.0728787
0.0715717
0.0701879
0.0684959
0.0668746
0.0650115
0.0632798
0.0613222
0.0595306
0.0575187
0.0557083
0.0536856
0.0518919
0.0498693
0.0480566
0.04593
0.0801765
0.0791995
0.0783074
0.0776307
0.0768433
0.0755974
0.0742723
0.0726337
0.0710704
0.0692641
0.0675959
0.0656974
0.0639727
0.0620266
0.0602819
0.0583263
0.0566011
0.0546406
0.0528912
0.0508236
0.0839715
0.0830229
0.0821748
0.0815885
0.0808842
0.0797134
0.0784519
0.0768792
0.0753796
0.0736443
0.0720441
0.0702232
0.0685691
0.0666981
0.0650274
0.0631465
0.0614931
0.0596084
0.057924
0.055921
0.0882312
0.0871687
0.0862885
0.085773
0.0851327
0.0840352
0.0828326
0.0813294
0.079894
0.078235
0.0767092
0.0749704
0.0733982
0.0716181
0.0700322
0.0682462
0.0666835
0.0648931
0.0632971
0.061389
0.0923157
0.0912879
0.0904517
0.0900224
0.0894565
0.0884315
0.0872889
0.0858571
0.0844872
0.0829121
0.0814618
0.0798195
0.0783293
0.0766489
0.0751509
0.0734689
0.0719961
0.0703145
0.0688052
0.067002
0.0966721
0.095603
0.0947764
0.0944086
0.0939036
0.0929398
0.0918524
0.0904911
0.0891888
0.0877
0.0863311
0.0847859
0.0833871
0.0818139
0.0804126
0.0788439
0.077475
0.0759081
0.0745004
0.0728143
0.100885
0.0998054
0.0990083
0.098718
0.0982857
0.0973996
0.0963758
0.0950985
0.0938687
0.0924783
0.0911907
0.0897563
0.0884455
0.0869897
0.0856827
0.0842379
0.0829663
0.0815293
0.0802161
0.0786597
0.105071
0.103955
0.103152
0.102958
0.102599
0.10181
0.100856
0.099673
0.0985175
0.0972281
0.0960246
0.0946975
0.0934789
0.0921376
0.0909289
0.0896041
0.0884379
0.0871222
0.0859106
0.0844771
0.108965
0.107899
0.10714
0.107054
0.106778
0.106092
0.105208
0.104124
0.103041
0.101859
0.100734
0.099523
0.0983873
0.097169
0.0960488
0.094855
0.093781
0.092603
0.0914807
0.090187
0.112716
0.111698
0.110979
0.110999
0.110803
0.110213
0.109397
0.108408
0.107395
0.106313
0.105266
0.10416
0.103109
0.102
0.100968
0.0998873
0.0989079
0.097843
0.0968088
0.0956276
0.116301
0.115272
0.114583
0.114698
0.114582
0.114092
0.113344
0.112453
0.111509
0.110531
0.109556
0.108561
0.107583
0.10659
0.105634
0.104677
0.103774
0.102838
0.101876
0.100827
0.119503
0.118527
0.117861
0.118096
0.118062
0.117677
0.116998
0.1162
0.115323
0.114438
0.113533
0.112632
0.111726
0.110828
0.109945
0.109083
0.108256
0.107413
0.106516
0.105555
0.122516
0.12154
0.120906
0.121229
0.12127
0.120972
0.120355
0.119642
0.118827
0.118031
0.117186
0.116379
0.115531
0.114729
0.113903
0.113141
0.112369
0.111632
0.110783
0.109924
0.125016
0.12413
0.123568
0.123999
0.124129
0.123915
0.123365
0.122725
0.121968
0.121245
0.120456
0.119719
0.118927
0.118194
0.117421
0.116727
0.116007
0.115333
0.114524
0.113721
0.127387
0.126488
0.125967
0.126472
0.126679
0.126534
0.126043
0.125467
0.124762
0.124104
0.123362
0.122691
0.121939
0.12127
0.120533
0.119904
0.119216
0.118608
0.11782
0.117076
0.129289
0.128444
0.127982
0.128583
0.128874
0.128801
0.128367
0.127847
0.127189
0.126581
0.125881
0.125254
0.124538
0.123912
0.123205
0.122614
0.121952
0.121373
0.120598
0.119872
0.130985
0.130145
0.129721
0.130402
0.130765
0.130754
0.130367
0.129895
0.129274
0.128709
0.128039
0.127452
0.126757
0.126162
0.12547
0.124906
0.124249
0.123695
0.122912
0.122197
0.132357
0.131554
0.131178
0.131946
0.132382
0.13243
0.132087
0.131652
0.131062
0.130526
0.129879
0.129312
0.128633
0.128053
0.127367
0.12681
0.126155
0.125596
0.1248
0.124067
0.13356
0.132758
0.13242
0.133255
0.133755
0.133848
0.133541
0.133135
0.132568
0.132053
0.131418
0.130866
0.130187
0.129609
0.128915
0.128353
0.127679
0.127109
0.126278
0.125514
0.134551
0.133767
0.133468
0.134379
0.134943
0.13508
0.134804
0.134421
0.13387
0.133365
0.132737
0.132182
0.131501
0.130914
0.130206
0.129626
0.128931
0.12833
0.127462
0.126651
0.135439
0.13465
0.134381
0.135351
0.135971
0.136143
0.135893
0.135523
0.134982
0.13448
0.133848
0.133288
0.132591
0.131984
0.13125
0.13064
0.129905
0.129266
0.128341
0.127468
0.136231
0.135457
0.135222
0.136259
0.136936
0.137139
0.136912
0.136548
0.136011
0.135501
0.134863
0.134282
0.133567
0.132932
0.132167
0.131519
0.130746
0.130053
0.129072
0.128128
0.137041
0.136251
0.136045
0.137128
0.137855
0.138078
0.137866
0.137501
0.136963
0.13644
0.135786
0.135183
0.134438
0.133766
0.132959
0.132261
0.131431
0.13068
0.129623
0.128596
0.137857
0.13707
0.136892
0.138035
0.138811
0.139057
0.138858
0.138489
0.137945
0.137403
0.136731
0.136094
0.135318
0.134604
0.133752
0.133001
0.132118
0.131298
0.130171
0.129056
0.138784
0.137976
0.137819
0.139005
0.139824
0.140083
0.139893
0.139513
0.138959
0.138394
0.137695
0.137025
0.136208
0.135443
0.134539
0.133726
0.132774
0.131881
0.130667
0.129452
0.139831
0.139022
0.138887
0.140127
0.140989
0.141261
0.141076
0.140682
0.140115
0.13952
0.138795
0.13808
0.137224
0.136406
0.135449
0.134571
0.133556
0.132583
0.131287
0.129973
0.141082
0.140247
0.140132
0.141407
0.142305
0.142582
0.142397
0.141984
0.141398
0.140772
0.140015
0.139257
0.138353
0.137475
0.136458
0.135507
0.134416
0.133359
0.131967
0.130541
0.142523
0.141679
0.141584
0.142909
0.143847
0.144132
0.143948
0.143515
0.142911
0.142249
0.141461
0.140653
0.139705
0.138767
0.13769
0.136667
0.135506
0.13436
0.132881
0.131346
0.144225
0.14335
0.143272
0.144634
0.145608
0.145896
0.145711
0.145256
0.144631
0.143935
0.14311
0.142256
0.141256
0.140253
0.139111
0.138009
0.136765
0.135528
0.133946
0.132291
0.146188
0.145302
0.145246
0.146659
0.147675
0.14797
0.147784
0.147307
0.146662
0.145927
0.145069
0.14416
0.143114
0.142047
0.140841
0.139662
0.138344
0.137013
0.135338
0.133568
0.148478
0.147555
0.147524
0.148976
0.150032
0.150329
0.150141
0.149639
0.148973
0.1482
0.147305
0.146346
0.145246
0.14411
0.142836
0.141574
0.140169
0.138741
0.13696
0.135062
0.151088
0.150146
0.150142
0.151652
0.152754
0.153061
0.152873
0.152349
0.151662
0.15085
0.14992
0.148906
0.147756
0.146555
0.145215
0.143873
0.142389
0.140863
0.138983
0.136964
0.154071
0.153097
0.153119
0.154679
0.155826
0.156139
0.155951
0.155404
0.154695
0.153845
0.152877
0.151813
0.150607
0.149335
0.147925
0.146495
0.144922
0.143295
0.141303
0.13915
0.157462
0.156464
0.156512
0.158136
0.159331
0.159657
0.159469
0.158901
0.158169
0.157281
0.156277
0.155157
0.153902
0.152563
0.151083
0.149572
0.147916
0.146185
0.14409
0.141809
0.16125
0.160224
0.160307
0.161992
0.163237
0.163574
0.163386
0.162797
0.162044
0.16112
0.160077
0.158908
0.157596
0.156186
0.154634
0.153033
0.151282
0.149447
0.147232
0.144812
0.16548
0.164428
0.164546
0.166311
0.167614
0.167973
0.167789
0.167184
0.166412
0.165453
0.164376
0.163153
0.161791
0.160315
0.158692
0.157006
0.155169
0.153226
0.150901
0.148344
0.170135
0.169061
0.169224
0.171068
0.172433
0.172816
0.172638
0.172021
0.171231
0.170243
0.16913
0.167862
0.166444
0.164898
0.1632
0.161425
0.159488
0.157435
0.154984
0.15228
0.175287
0.174195
0.174404
0.176343
0.177777
0.178194
0.178028
0.177403
0.1766
0.175583
0.17444
0.173123
0.171656
0.170044
0.168274
0.166411
0.164383
0.162217
0.159647
0.156797
0.180906
0.179794
0.180065
0.182102
0.183615
0.184069
0.18392
0.183293
0.182479
0.181441
0.180266
0.178909
0.177387
0.175708
0.173861
0.171906
0.169773
0.167492
0.164785
0.16178
0.18705
0.18593
0.186268
0.188427
0.190029
0.190535
0.19041
0.189788
0.188968
0.18791
0.18671
0.185308
0.183739
0.181995
0.180073
0.178029
0.175797
0.173394
0.170558
0.167395
0.193724
0.192599
0.193018
0.195303
0.197003
0.197565
0.197469
0.196857
0.196035
0.194964
0.193738
0.192302
0.190679
0.18887
0.186867
0.184728
0.182383
0.179859
0.176873
0.173541
0.200984
0.199869
0.200377
0.202811
0.204622
0.205253
0.205193
0.204599
0.20378
0.202698
0.201451
0.199976
0.198307
0.196433
0.194353
0.192118
0.189666
0.187009
0.18388
0.180372
0.208844
0.207735
0.208349
0.210937
0.212867
0.213573
0.213556
0.212986
0.212175
0.211091
0.209822
0.20832
0.206597
0.204661
0.202495
0.200162
0.197585
0.194797
0.191501
0.187808
0.217318
0.216242
0.216975
0.219747
0.221814
0.222613
0.222649
0.222113
0.221316
0.220233
0.218951
0.217415
0.215649
0.213647
0.211399
0.208963
0.206268
0.203333
0.199876
0.195985
0.226466
0.225414
0.226284
0.229245
0.23146
0.23236
0.232459
0.231964
0.231188
0.230115
0.228821
0.227264
0.225446
0.223382
0.221042
0.218501
0.215668
0.212588
0.208943
0.204845
0.236282
0.235288
0.236312
0.239498
0.241883
0.242902
0.243075
0.242633
0.241886
0.240827
0.239528
0.237944
0.236084
0.233953
0.231526
0.228872
0.225906
0.22266
0.21883
0.214506
0.246852
0.245899
0.2471
0.250517
0.253087
0.254236
0.254493
0.254114
0.253403
0.252369
0.251065
0.249468
0.247557
0.245364
0.242837
0.24007
0.236948
0.233539
0.229495
0.224934
0.258139
0.257271
0.258673
0.262364
0.265142
0.266444
0.2668
0.266495
0.265831
0.264825
0.263526
0.26191
0.259958
0.257696
0.255073
0.25218
0.248907
0.245308
0.241049
0.236227
0.270275
0.269473
0.271093
0.275066
0.27807
0.279536
0.280002
0.279783
0.279172
0.278207
0.276914
0.275293
0.27329
0.270964
0.268232
0.265212
0.261761
0.257973
0.253467
0.248371
0.283191
0.282504
0.284371
0.288673
0.29193
0.293585
0.294178
0.294059
0.293513
0.292594
0.291316
0.289682
0.28764
0.285241
0.282402
0.27924
0.275613
0.271606
0.266846
0.261443
0.297029
0.296431
0.298569
0.303213
0.306743
0.308602
0.309335
0.30933
0.308859
0.307999
0.306738
0.305108
0.303016
0.30055
0.297588
0.294282
0.29045
0.286222
0.281173
0.275447
0.311692
0.31124
0.313683
0.318722
0.322559
0.324652
0.325546
0.325671
0.325288
0.324494
0.323262
0.321628
0.319497
0.316954
0.313871
0.310401
0.306362
0.301877
0.296527
0.290436
0.327344
0.327012
0.329787
0.335237
0.339406
0.341749
0.342821
0.343092
0.342809
0.342096
0.340895
0.339275
0.337095
0.334478
0.331257
0.327621
0.323341
0.318593
0.3129
0.306423
0.343878
0.343718
0.346865
0.352785
0.357324
0.359951
0.361223
0.361657
0.36149
0.360866
0.359709
0.358095
0.355875
0.353174
0.349813
0.345986
0.34146
0.336406
0.330352
0.323436
0.361442
0.361428
0.364981
0.371395
0.376334
0.379265
0.380756
0.381372
0.381334
0.380815
0.379706
0.378115
0.375845
0.373062
0.369542
0.365517
0.360706
0.355335
0.348868
0.341484
0.37994
0.380121
0.38412
0.39109
0.39647
0.399739
0.401473
0.402289
0.402396
0.40199
0.400941
0.399364
0.397053
0.394175
0.39049
0.386239
0.381132
0.375391
0.368486
0.360569
0.399509
0.399861
0.404339
0.41189
0.417741
0.421369
0.423365
0.424398
0.424663
0.424388
0.423401
0.421855
0.41949
0.416515
0.412644
0.408153
0.402703
0.396574
0.389169
0.380677
0.420035
0.420594
0.425595
0.433791
0.440157
0.444177
0.446459
0.447727
0.448166
0.448026
0.447115
0.44559
0.443178
0.44009
0.436022
0.431257
0.425446
0.418866
0.410923
0.401778
0.441598
0.442345
0.44791
0.456784
0.463697
0.46813
0.470714
0.472233
0.472858
0.47287
0.472035
0.470545
0.468071
0.464865
0.460572
0.455515
0.449287
0.442226
0.433672
0.423815
0.464118
0.465073
0.471242
0.480856
0.488357
0.49323
0.496134
0.497914
0.498737
0.498902
0.498152
0.496684
0.494152
0.490807
0.486273
0.480881
0.474209
0.466594
0.457376
0.446713
0.487638
0.48878
0.495593
0.505974
0.514087
0.519408
0.522637
0.524684
0.525706
0.526032
0.525364
0.523925
0.521314
0.517819
0.513011
0.507254
0.500073
0.491861
0.481889
0.47034
0.512131
0.513423
0.520902
0.532096
0.540846
0.546623
0.550177
0.552482
0.553701
0.554179
0.553592
0.552163
0.54947
0.545798
0.540693
0.534524
0.526794
0.517897
0.507102
0.494551
0.537502
0.538929
0.547107
0.559133
0.568523
0.57474
0.578594
0.581139
0.582536
0.583155
0.582631
0.58121
0.578407
0.574537
0.569093
0.562469
0.55411
0.544464
0.532732
0.519059
0.563895
0.565346
0.5742
0.587058
0.597066
0.603678
0.607785
0.61052
0.612055
0.612779
0.612295
0.610845
0.607913
0.60381
0.597988
0.590845
0.581795
0.571284
0.5585
0.543534
0.591123
0.59254
0.602062
0.615715
0.62628
0.633201
0.637471
0.640313
0.641918
0.642694
0.642201
0.640692
0.637585
0.633202
0.626936
0.619199
0.609339
0.597843
0.583834
0.567412
0.619374
0.620533
0.630627
0.644997
0.656011
0.663105
0.667402
0.670222
0.671791
0.672524
0.671956
0.670315
0.66698
0.662252
0.655467
0.647032
0.636248
0.623609
0.608264
0.590299
0.648282
0.649065
0.659648
0.67461
0.685904
0.692967
0.697086
0.699699
0.701073
0.701639
0.700882
0.699027
0.695366
0.690192
0.682774
0.673506
0.661651
0.647789
0.631095
0.611525
0.678226
0.678219
0.689052
0.70438
0.71569
0.722427
0.726083
0.728224
0.72918
0.729385
0.728288
0.726065
0.721952
0.7162
0.708007
0.697784
0.684806
0.669763
0.651613
0.629969
0.708584
0.707515
0.718368
0.733772
0.744754
0.750779
0.753599
0.75493
0.755177
0.754774
0.753114
0.750335
0.745579
0.739066
0.729961
0.718738
0.704669
0.688195
0.667971
0.643719
0.739666
0.736808
0.747233
0.762299
0.77251
0.777355
0.778894
0.779004
0.778188
0.776856
0.774355
0.770743
0.765108
0.757653
0.747568
0.735314
0.719759
0.701125
0.678331
0.65121
0.770088
0.764948
0.774531
0.788836
0.797807
0.800981
0.800769
0.799232
0.79697
0.794357
0.790676
0.78592
0.779132
0.770581
0.759359
0.745466
0.727509
0.70612
0.680371
0.649835
0.79959
0.790992
0.799071
0.812122
0.819398
0.820459
0.818094
0.814538
0.810491
0.806252
0.80106
0.794827
0.78667
0.776753
0.763604
0.746975
0.72585
0.701062
0.67154
0.636673
0.824732
0.811842
0.817942
0.829482
0.834875
0.833655
0.828997
0.823287
0.817306
0.81125
0.804325
0.796431
0.786657
0.774472
0.758041
0.737539
0.712145
0.682586
0.647805
0.607123
0.84225
0.823455
0.827096
0.837251
0.84112
0.838057
0.831541
0.824051
0.816404
0.808674
0.800098
0.790543
0.778368
0.762358
0.741242
0.715398
0.683795
0.647187
0.604865
0.556246
0.842926
0.817539
0.819132
0.829182
0.833167
0.829954
0.823132
0.815172
0.806874
0.798206
0.788503
0.776826
0.760677
0.739191
0.711554
0.677731
0.636748
0.589682
0.536463
0.476707
0.815529
0.782857
0.784405
0.797817
0.805881
0.806391
0.802672
0.797027
0.790151
0.781921
0.771382
0.756355
0.734504
0.705536
0.668454
0.622875
0.567861
0.505053
0.435645
0.359876
0.738655
0.701739
0.709804
0.734984
0.755531
0.767343
0.773033
0.774565
0.772476
0.766494
0.754636
0.734227
0.704129
0.663925
0.612356
0.548715
0.472796
0.386951
0.293514
0.193865
0.590652
0.557211
0.585803
0.639126
0.687668
0.724049
0.749542
0.765795
0.773208
0.771072
0.756856
0.728308
0.685333
0.626992
0.552262
0.460694
0.352968
0.232096
0.101748
-0.0347539
0.34566
0.33811
0.416019
0.526766
0.628731
0.709927
0.770029
0.810838
0.833183
0.835712
0.816724
0.775024
0.710979
0.623464
0.512568
0.377798
0.220702
0.0449484
-0.143387
-0.337957
0.0029741
0.0636568
0.238668
0.449114
0.637084
0.785946
0.894734
0.967497
1.00699
1.01255
0.983749
0.920368
0.823806
0.693157
0.529805
0.332494
0.10318
-0.154468
-0.431165
-0.716131
-0.403808
-0.204401
0.128178
0.478631
0.773887
0.997163
1.15265
1.25097
1.299
1.29933
1.25359
1.16138
1.02484
0.841883
0.613968
0.336977
0.013368
-0.354735
-0.755793
-1.17459
-0.744513
-0.328696
0.194431
0.67505
1.04588
1.30336
1.46451
1.55157
1.57988
1.55669
1.48478
1.36237
1.18886
0.959178
0.671769
0.317133
-0.106337
-0.603082
-1.16157
-1.76335
-0.74328
-0.109809
0.512915
0.987321
1.30204
1.48536
1.57396
1.60068
1.57925
1.51594
1.40919
1.25775
1.05673
0.798066
0.471224
0.0596717
-0.451666
-1.07809
-1.80337
-2.60327
-0.413664
0.348425
0.84594
1.11048
1.2596
1.33845
1.36629
1.34969
1.28606
1.17995
1.03074
0.83978
0.597879
0.296908
-0.0780619
-0.5478
-1.1348
-1.87277
-2.7515
-3.73591
-0.931581
0.350543
0.922963
1.25445
1.49704
1.65241
1.71032
1.69254
1.60095
1.45682
1.2549
1.00874
0.690758
0.303476
-0.210095
-0.84288
-1.63512
-2.55966
-3.6075
-4.78612
-2.9994
-0.430016
0.897657
1.49205
1.86104
2.02401
2.04574
1.98824
1.87007
1.71011
1.50142
1.25029
0.934857
0.54636
0.0202725
-0.619732
-1.39807
-2.34077
-3.58992
-4.51227
-0.00177459
-0.00173904
-0.00159243
-0.00152163
-0.00149051
-0.00149084
-0.00149696
-0.00152288
-0.00155248
-0.00159785
-0.00164552
-0.0017054
-0.00176888
-0.00184784
-0.00193032
-0.00203555
-0.00215704
-0.00232125
-0.00253874
-0.0028081
0.000599395
0.000665007
0.000855748
0.000980433
0.00101877
0.0010349
0.00101351
0.000982233
0.000923402
0.00085506
0.000766337
0.000667095
0.000551718
0.000428349
0.000280397
0.000118582
-8.19695e-05
-0.000332385
-0.000652608
-0.000978973
0.00485575
0.00515173
0.00531745
0.00550573
0.00559041
0.00568034
0.00569609
0.00571564
0.00566884
0.00561895
0.00550999
0.0053944
0.00522674
0.00504569
0.00482641
0.00458897
0.00431094
0.00400324
0.00364196
0.00329374
0.00510619
0.00548819
0.00568612
0.0059427
0.00605998
0.00619835
0.00622745
0.00627205
0.00622218
0.00617923
0.00605507
0.00593058
0.0057379
0.00554675
0.00529363
0.00504475
0.00474311
0.00443237
0.00406574
0.00371173
0.00636203
0.00681309
0.00704895
0.00737327
0.00752488
0.00771228
0.00775885
0.00783493
0.00778924
0.00776377
0.00763333
0.00751591
0.00730895
0.00710547
0.00683646
0.0065678
0.00624559
0.00591948
0.00553264
0.00515703
0.00813285
0.00863485
0.0089067
0.0093034
0.00949761
0.00974178
0.0098179
0.00993376
0.00990501
0.00990345
0.00977907
0.00967146
0.00946226
0.0092693
0.0089889
0.00872687
0.00839486
0.00806761
0.00766682
0.00728719
0.00999893
0.0105744
0.0108945
0.0113676
0.0116124
0.0119195
0.0120333
0.0121966
0.0121924
0.0122232
0.0121108
0.0120228
0.0118149
0.0116199
0.0113365
0.0110616
0.0107159
0.0103707
0.00994226
0.00952
0.0121955
0.0128189
0.0131779
0.0137268
0.0140259
0.0143997
0.0145573
0.0147705
0.014797
0.0148616
0.0147687
0.0147002
0.0145023
0.0143265
0.0140419
0.0137808
0.0134327
0.0130892
0.0126479
0.012217
0.0146399
0.0153246
0.0157264
0.0163479
0.0167014
0.0171405
0.0173426
0.0176064
0.0176647
0.0177659
0.0176936
0.0176505
0.0174632
0.0172909
0.0170125
0.0167431
0.0163893
0.0160301
0.0155659
0.0150923
0.0176788
0.0183942
0.0188261
0.0195148
0.0199199
0.020422
0.0206684
0.0209814
0.0210733
0.0212104
0.0211625
0.0211428
0.0209719
0.0208239
0.0205509
0.0203003
0.0199497
0.019597
0.0191257
0.018649
0.0211906
0.0219534
0.0224157
0.0231647
0.0236148
0.0241734
0.0244592
0.0248188
0.0249422
0.0251154
0.0250904
0.0250976
0.0249415
0.0248
0.0245379
0.0242819
0.0239312
0.0235665
0.0230793
0.022565
0.0255212
0.0262964
0.0267737
0.0275712
0.0280578
0.0286657
0.0289869
0.0293892
0.0295426
0.0297494
0.0297486
0.0297798
0.0296423
0.0295275
0.0292756
0.029043
0.0287023
0.0283513
0.0278667
0.0273586
0.0304998
0.0313133
0.031806
0.032647
0.0331617
0.0338124
0.034162
0.0346028
0.0347813
0.0350202
0.0350393
0.0350964
0.0349736
0.034868
0.0346296
0.0343966
0.0340613
0.0337049
0.033213
0.0326769
0.03648
0.0372895
0.0377812
0.0386494
0.039184
0.0398674
0.0402396
0.040711
0.0409104
0.0411753
0.0412136
0.0412911
0.0411857
0.0411056
0.0408798
0.0406715
0.0403512
0.0400134
0.0395331
0.0390126
0.0432132
0.0440529
0.0445484
0.0454411
0.0459869
0.0466948
0.0470804
0.0475756
0.047789
0.0480762
0.0481274
0.0482261
0.0481326
0.0480632
0.0478516
0.0476492
0.0473398
0.0470073
0.04653
0.045998
0.0510397
0.0518623
0.0523447
0.053238
0.0537814
0.0544944
0.0548831
0.0553887
0.0556095
0.0559089
0.0559711
0.0560821
0.0560032
0.0559545
0.0557585
0.055582
0.0552959
0.0549896
0.0545365
0.054031
0.0596423
0.0604765
0.0609499
0.0618362
0.0623661
0.0630724
0.0634548
0.0639623
0.0641843
0.064492
0.0645598
0.064685
0.0646152
0.0645786
0.0643988
0.0642378
0.0639713
0.0636863
0.0632511
0.0627562
0.0691869
0.0700063
0.0704616
0.0713235
0.0718318
0.0725187
0.0728898
0.0733894
0.0736098
0.0739183
0.0739934
0.0741245
0.0740694
0.0740504
0.0738913
0.0737569
0.0735211
0.0732672
0.072867
0.072407
0.0793748
0.0802078
0.0806512
0.0814899
0.081973
0.0826353
0.0829907
0.0834776
0.0836937
0.0840011
0.0840792
0.0842196
0.0841738
0.0841686
0.0840273
0.0839146
0.0837027
0.0834812
0.0831089
0.0826785
0.0903211
0.0911333
0.0915537
0.0923494
0.0927993
0.0934219
0.0937556
0.0942193
0.094427
0.0947239
0.0948057
0.0949461
0.0949158
0.094925
0.094808
0.0947221
0.0945479
0.0943626
0.0940336
0.0936442
0.101733
0.102531
0.102931
0.103679
0.104094
0.104672
0.104981
0.105416
0.105613
0.105898
0.10598
0.106126
0.106107
0.106135
0.106041
0.105987
0.105844
0.105703
0.10541
0.105066
0.113526
0.114303
0.114686
0.115382
0.115763
0.116291
0.116576
0.116981
0.117168
0.117439
0.117525
0.11767
0.117667
0.117708
0.117641
0.117614
0.11751
0.117406
0.117156
0.116853
0.1255
0.126263
0.126632
0.127277
0.127622
0.128101
0.128365
0.128742
0.128922
0.129184
0.129274
0.129425
0.129432
0.129493
0.129445
0.129452
0.129375
0.129317
0.129101
0.12885
0.137545
0.13829
0.138643
0.139233
0.139546
0.139977
0.140223
0.140573
0.140749
0.140999
0.141095
0.141245
0.141268
0.141339
0.141314
0.141342
0.141298
0.141269
0.141089
0.140873
0.149514
0.150229
0.150571
0.151109
0.151399
0.151787
0.15202
0.152346
0.15252
0.152761
0.152861
0.153018
0.15305
0.153139
0.15313
0.153191
0.153167
0.153183
0.153029
0.152864
0.161206
0.161913
0.162256
0.162756
0.163032
0.163385
0.163611
0.163916
0.164091
0.164322
0.164431
0.164586
0.164633
0.164732
0.164742
0.164819
0.164823
0.164861
0.164734
0.164591
0.172608
0.173298
0.173645
0.174111
0.17438
0.174702
0.174927
0.175216
0.175396
0.175624
0.17574
0.175902
0.175958
0.176071
0.176094
0.176197
0.176215
0.17629
0.176178
0.176068
0.183555
0.184255
0.184616
0.185062
0.185333
0.185637
0.18587
0.18615
0.186342
0.186566
0.186695
0.186856
0.186927
0.187044
0.187082
0.187194
0.187232
0.187318
0.18722
0.187115
0.194099
0.194798
0.195178
0.195609
0.195893
0.196186
0.196436
0.196714
0.196922
0.197149
0.197291
0.197457
0.197535
0.197658
0.197702
0.197824
0.197866
0.197967
0.197868
0.197767
0.204135
0.204862
0.205277
0.205715
0.206024
0.206322
0.206595
0.206879
0.207109
0.207339
0.207499
0.207665
0.207757
0.207879
0.207931
0.20805
0.208099
0.208192
0.208089
0.207969
0.213744
0.2145
0.214958
0.215412
0.215756
0.216065
0.216369
0.216663
0.216918
0.217156
0.217332
0.217503
0.217603
0.217722
0.217775
0.217887
0.217926
0.218008
0.217884
0.217735
0.222931
0.223739
0.224253
0.224744
0.225134
0.225469
0.225812
0.226124
0.226408
0.226655
0.226852
0.227023
0.227135
0.22725
0.227303
0.227401
0.227434
0.227491
0.227345
0.227154
0.231772
0.232637
0.233215
0.233748
0.234193
0.23456
0.234947
0.235283
0.2356
0.235862
0.236077
0.236254
0.23637
0.236474
0.23652
0.236597
0.236608
0.236634
0.236448
0.2362
0.240357
0.241294
0.241944
0.242534
0.243042
0.243452
0.243888
0.244255
0.244608
0.244886
0.245124
0.2453
0.245425
0.24552
0.24556
0.245615
0.245607
0.245595
0.245371
0.245065
0.248747
0.249766
0.250495
0.251148
0.251721
0.252179
0.252669
0.253071
0.253462
0.253761
0.254018
0.2542
0.254326
0.254406
0.254431
0.254454
0.254412
0.254354
0.254073
0.253689
0.25708
0.25819
0.259005
0.259732
0.26038
0.260895
0.261444
0.261886
0.262317
0.262636
0.262915
0.263097
0.263227
0.263293
0.263301
0.263294
0.26322
0.26311
0.262777
0.262317
0.265395
0.266609
0.267519
0.268328
0.269054
0.26963
0.27024
0.270725
0.271197
0.271539
0.271836
0.272022
0.272145
0.272189
0.272173
0.272124
0.272004
0.271837
0.27143
0.270875
0.273859
0.275182
0.276195
0.277094
0.277904
0.278546
0.279218
0.279748
0.280261
0.280624
0.280941
0.281124
0.281246
0.281272
0.281231
0.281144
0.280981
0.28075
0.280275
0.279629
0.282495
0.283939
0.285062
0.286058
0.286956
0.287665
0.288399
0.288974
0.289527
0.289914
0.290246
0.290433
0.290546
0.290546
0.290474
0.290337
0.290114
0.289812
0.28925
0.288495
0.291466
0.293036
0.294273
0.295373
0.296364
0.297147
0.297947
0.298569
0.299163
0.299572
0.299921
0.300103
0.30021
0.300186
0.300081
0.299895
0.299618
0.29924
0.298597
0.297736
0.30078
0.302487
0.303847
0.305054
0.306143
0.307002
0.307871
0.308542
0.309177
0.30961
0.309972
0.310153
0.310244
0.310188
0.310041
0.309795
0.309448
0.308987
0.308244
0.307259
0.310597
0.312445
0.31393
0.315252
0.316443
0.317385
0.318325
0.319049
0.319725
0.32018
0.320557
0.320729
0.320808
0.320719
0.32053
0.320226
0.319813
0.319265
0.318427
0.317321
0.320913
0.322914
0.324534
0.325976
0.327272
0.328297
0.329311
0.330088
0.330807
0.331285
0.331672
0.33184
0.331897
0.331768
0.33153
0.331156
0.330662
0.330017
0.329065
0.327819
0.331878
0.334037
0.335797
0.337365
0.338771
0.339885
0.340974
0.341806
0.342568
0.343069
0.343469
0.343624
0.343663
0.343496
0.343206
0.342764
0.342193
0.341447
0.340385
0.339001
0.343477
0.345808
0.347716
0.349417
0.350937
0.352142
0.353309
0.354199
0.355005
0.35553
0.355938
0.356086
0.356098
0.355886
0.355537
0.355016
0.35435
0.353495
0.352302
0.350759
0.355846
0.358355
0.36042
0.362263
0.363904
0.365207
0.366456
0.367406
0.368257
0.368806
0.369225
0.369358
0.369348
0.36909
0.368682
0.368081
0.367325
0.366353
0.365033
0.363332
0.368967
0.371671
0.373904
0.375898
0.377665
0.379072
0.380406
0.38142
0.382318
0.382894
0.38332
0.383445
0.383402
0.383092
0.382616
0.381924
0.38106
0.379963
0.378494
0.376614
0.38297
0.385879
0.388289
0.390445
0.392349
0.393868
0.395293
0.396376
0.397324
0.397926
0.398363
0.398471
0.398401
0.398039
0.397493
0.396709
0.395739
0.394508
0.39289
0.390828
0.397834
0.400967
0.403571
0.4059
0.407949
0.409587
0.41111
0.412267
0.413268
0.413901
0.414347
0.414445
0.414338
0.413918
0.413292
0.412406
0.411311
0.409936
0.408148
0.405883
0.413681
0.417053
0.419862
0.422381
0.424588
0.426356
0.427984
0.429222
0.430281
0.430947
0.431405
0.431487
0.431347
0.430868
0.430162
0.42917
0.427951
0.426421
0.42446
0.421985
0.430494
0.43413
0.437164
0.439887
0.442264
0.444174
0.445916
0.447243
0.448365
0.44907
0.449539
0.449612
0.449431
0.448887
0.44809
0.446981
0.445618
0.443924
0.441766
0.439058
0.44839
0.452308
0.455586
0.458532
0.461095
0.463161
0.465029
0.466454
0.467646
0.468393
0.468879
0.468936
0.468719
0.468108
0.467219
0.465988
0.464481
0.462606
0.460248
0.457295
0.467359
0.471589
0.475135
0.478324
0.481091
0.483328
0.485333
0.486867
0.488137
0.488935
0.489437
0.489488
0.489226
0.488543
0.48755
0.486188
0.484513
0.48245
0.479863
0.476643
0.487511
0.492079
0.495916
0.499375
0.502365
0.504792
0.506949
0.508605
0.509961
0.510814
0.511341
0.511379
0.511078
0.510321
0.509222
0.507718
0.505877
0.503604
0.500781
0.497276
0.508847
0.51379
0.517949
0.521702
0.524938
0.527574
0.5299
0.531692
0.533146
0.534065
0.534617
0.534653
0.534304
0.53347
0.532252
0.530599
0.528564
0.526072
0.522983
0.519169
0.53147
0.536824
0.541335
0.545415
0.548922
0.551792
0.554306
0.55625
0.557814
0.558807
0.559394
0.559422
0.559033
0.558115
0.556777
0.554961
0.55273
0.549994
0.546628
0.542479
0.555397
0.561204
0.566106
0.570544
0.574352
0.57748
0.580203
0.582319
0.584006
0.585088
0.585712
0.585747
0.585307
0.584306
0.582833
0.580845
0.578389
0.575398
0.57172
0.567211
0.580722
0.587028
0.592361
0.597198
0.60134
0.604756
0.607712
0.61002
0.611848
0.613027
0.613701
0.613736
0.613256
0.612163
0.610553
0.608377
0.605692
0.602415
0.598411
0.593507
0.607473
0.614332
0.620143
0.625419
0.629931
0.633667
0.636884
0.639408
0.641395
0.642689
0.643419
0.64347
0.642939
0.641756
0.639992
0.63762
0.634674
0.631098
0.626727
0.621399