/*--------------------------------*- C++ -*----------------------------------*\
  =========                 |
  \\      /  F ield         | OpenFOAM: The Open Source CFD Toolbox
   \\    /   O peration     | Website:  https://openfoam.org
    \\  /    A nd           | Version:  6
     \\/     M anipulation  |
\*---------------------------------------------------------------------------*/
FoamFile
{
    version     2.0;
    format      ascii;
    class       surfaceScalarField;
    location    "6";
    object      phi;
}
// * * * * * * * * * * * * * * * * * * * * * * * * * * * * * * * * * * * * * //

dimensions      [0 3 -1 0 0 0 0];

internalField   nonuniform List<scalar> 
258600
(
-3.64119e-09
-8.45124e-08
3.40961e-09
-3.86079e-09
-9.73386e-08
-4.05176e-09
-1.09637e-07
-4.21948e-09
-1.21071e-07
-4.3686e-09
-1.31409e-07
-4.50803e-09
-1.40493e-07
-4.64316e-09
-1.48242e-07
-4.77921e-09
-1.54661e-07
-4.9161e-09
-1.59817e-07
-5.05341e-09
-1.63821e-07
-5.18699e-09
-1.66802e-07
-5.31382e-09
-1.68893e-07
-5.42931e-09
-1.70216e-07
-5.53161e-09
-1.70881e-07
-5.6179e-09
-1.70986e-07
-5.68916e-09
-1.70618e-07
-5.74533e-09
-1.69861e-07
-5.78937e-09
-1.688e-07
-5.82291e-09
-1.67518e-07
-1.66107e-07
-5.84798e-09
-4.53622e-09
-8.43756e-08
4.39754e-09
-4.69077e-09
-9.71894e-08
-4.84327e-09
-1.09491e-07
-4.98031e-09
-1.20937e-07
-5.10521e-09
-1.31288e-07
-5.22097e-09
-1.40379e-07
-5.33615e-09
-1.48129e-07
-5.45236e-09
-1.54545e-07
-5.57284e-09
-1.59698e-07
-5.69445e-09
-1.637e-07
-5.81584e-09
-1.66682e-07
-5.93206e-09
-1.68777e-07
-6.04086e-09
-1.70108e-07
-6.13815e-09
-1.70784e-07
-6.22378e-09
-1.70901e-07
-6.29606e-09
-1.70545e-07
-6.35651e-09
-1.698e-07
-6.40569e-09
-1.6875e-07
-6.44528e-09
-1.67478e-07
-1.66076e-07
-6.47535e-09
-6.11934e-09
-8.43629e-08
6.09495e-09
-6.16821e-09
-9.71471e-08
-6.24391e-09
-1.09426e-07
-6.32175e-09
-1.20864e-07
-6.4055e-09
-1.31212e-07
-6.48696e-09
-1.40299e-07
-6.57515e-09
-1.48046e-07
-6.66451e-09
-1.54457e-07
-6.76125e-09
-1.59605e-07
-6.85846e-09
-1.63603e-07
-6.95893e-09
-1.66584e-07
-7.05547e-09
-1.68681e-07
-7.14925e-09
-1.70016e-07
-7.23522e-09
-1.70699e-07
-7.31395e-09
-1.70824e-07
-7.3832e-09
-1.70478e-07
-7.44359e-09
-1.69742e-07
-7.49423e-09
-1.68702e-07
-7.53512e-09
-1.67439e-07
-1.66046e-07
-7.56695e-09
-8.01225e-09
-8.43962e-08
8.04164e-09
-8.00507e-09
-9.71593e-08
-8.02243e-09
-1.0942e-07
-8.04421e-09
-1.20845e-07
-8.08048e-09
-1.31183e-07
-8.11881e-09
-1.40261e-07
-8.17095e-09
-1.47998e-07
-8.22642e-09
-1.54401e-07
-8.29407e-09
-1.5954e-07
-8.36353e-09
-1.63533e-07
-8.44045e-09
-1.6651e-07
-8.51547e-09
-1.68605e-07
-8.59249e-09
-1.69942e-07
-8.66391e-09
-1.70627e-07
-8.73323e-09
-1.70757e-07
-8.79516e-09
-1.70416e-07
-8.85225e-09
-1.69686e-07
-8.90129e-09
-1.68652e-07
-8.9436e-09
-1.67398e-07
-1.66011e-07
-8.97792e-09
-1.00766e-08
-8.44756e-08
1.01426e-08
-1.00258e-08
-9.72172e-08
-1.00008e-08
-1.09461e-07
-9.97767e-09
-1.20873e-07
-9.97282e-09
-1.31199e-07
-9.97047e-09
-1.40265e-07
-9.98651e-09
-1.4799e-07
-1.00069e-08
-1.5438e-07
-1.00438e-08
-1.59509e-07
-1.00838e-08
-1.63493e-07
-1.01354e-08
-1.66463e-07
-1.0187e-08
-1.68554e-07
-1.02446e-08
-1.69888e-07
-1.02997e-08
-1.70573e-07
-1.0356e-08
-1.70704e-07
-1.04082e-08
-1.70365e-07
-1.04585e-08
-1.69639e-07
-1.05034e-08
-1.6861e-07
-1.05438e-08
-1.6736e-07
-1.6598e-07
-1.05781e-08
-1.22119e-08
-8.45793e-08
1.23044e-08
-1.21329e-08
-9.73066e-08
-1.2077e-08
-1.09536e-07
-1.20193e-08
-1.20937e-07
-1.19803e-08
-1.31251e-07
-1.19425e-08
-1.40304e-07
-1.19254e-08
-1.48015e-07
-1.19129e-08
-1.54392e-07
-1.192e-08
-1.59508e-07
-1.19312e-08
-1.6348e-07
-1.19575e-08
-1.66441e-07
-1.19856e-08
-1.68525e-07
-1.20233e-08
-1.69854e-07
-1.206e-08
-1.70536e-07
-1.21019e-08
-1.70665e-07
-1.21413e-08
-1.70326e-07
-1.2182e-08
-1.69601e-07
-1.22189e-08
-1.68573e-07
-1.22535e-08
-1.67327e-07
-1.65951e-07
-1.22826e-08
-1.43854e-08
-8.47073e-08
1.44844e-08
-1.42819e-08
-9.74251e-08
-1.42005e-08
-1.09643e-07
-1.4112e-08
-1.21033e-07
-1.40435e-08
-1.31336e-07
-1.39741e-08
-1.40376e-07
-1.39276e-08
-1.48072e-07
-1.38854e-08
-1.54434e-07
-1.38651e-08
-1.59536e-07
-1.38496e-08
-1.63495e-07
-1.38518e-08
-1.66445e-07
-1.38568e-08
-1.6852e-07
-1.3874e-08
-1.69842e-07
-1.38923e-08
-1.70519e-07
-1.39176e-08
-1.70645e-07
-1.39426e-08
-1.70303e-07
-1.39706e-08
-1.69578e-07
-1.39965e-08
-1.68551e-07
-1.40211e-08
-1.67307e-07
-1.65934e-07
-1.40418e-08
-1.65725e-08
-8.48476e-08
1.6695e-08
-1.64435e-08
-9.7562e-08
-1.63363e-08
-1.09771e-07
-1.62211e-08
-1.21152e-07
-1.61265e-08
-1.31444e-07
-1.60308e-08
-1.40471e-07
-1.59589e-08
-1.48153e-07
-1.58912e-08
-1.545e-07
-1.58467e-08
-1.59587e-07
-1.58074e-08
-1.63533e-07
-1.57873e-08
-1.66471e-07
-1.5771e-08
-1.68536e-07
-1.57687e-08
-1.69849e-07
-1.57683e-08
-1.7052e-07
-1.57772e-08
-1.7064e-07
-1.57866e-08
-1.70295e-07
-1.58008e-08
-1.69567e-07
-1.5814e-08
-1.68539e-07
-1.58273e-08
-1.67297e-07
-1.65925e-07
-1.58376e-08
-1.87459e-08
-8.49892e-08
1.88819e-08
-1.86012e-08
-9.77106e-08
-1.84741e-08
-1.09916e-07
-1.83371e-08
-1.21291e-07
-1.82202e-08
-1.31574e-07
-1.81016e-08
-1.40589e-07
-1.80072e-08
-1.48257e-07
-1.79168e-08
-1.54589e-07
-1.78502e-08
-1.59661e-07
-1.77892e-08
-1.63593e-07
-1.77481e-08
-1.66519e-07
-1.77114e-08
-1.68573e-07
-1.76896e-08
-1.69877e-07
-1.7671e-08
-1.7054e-07
-1.76623e-08
-1.70654e-07
-1.76558e-08
-1.70305e-07
-1.76546e-08
-1.69574e-07
-1.76539e-08
-1.68544e-07
-1.76538e-08
-1.67301e-07
-1.65931e-07
-1.76527e-08
-2.09519e-08
-8.51528e-08
2.11121e-08
-2.07805e-08
-9.78825e-08
-2.06281e-08
-1.10084e-07
-2.04669e-08
-1.21452e-07
-2.03268e-08
-1.31725e-07
-2.01859e-08
-1.40727e-07
-2.00695e-08
-1.48381e-07
-1.99577e-08
-1.54698e-07
-1.98699e-08
-1.59756e-07
-1.97882e-08
-1.63673e-07
-1.97267e-08
-1.66586e-07
-1.96705e-08
-1.68629e-07
-1.96298e-08
-1.69924e-07
-1.95929e-08
-1.70578e-07
-1.95669e-08
-1.70686e-07
-1.95437e-08
-1.7033e-07
-1.95269e-08
-1.69595e-07
-1.95115e-08
-1.68563e-07
-1.94978e-08
-1.67319e-07
-1.65948e-07
-1.94841e-08
-2.31071e-08
-8.53157e-08
2.32693e-08
-2.29314e-08
-9.806e-08
-2.27683e-08
-1.10263e-07
-2.25931e-08
-1.21628e-07
-2.24358e-08
-1.31894e-07
-2.22767e-08
-1.40885e-07
-2.21407e-08
-1.48526e-07
-2.20093e-08
-1.54828e-07
-2.19012e-08
-1.59871e-07
-2.17997e-08
-1.63775e-07
-2.17182e-08
-1.66675e-07
-2.16427e-08
-1.68706e-07
-2.15825e-08
-1.69991e-07
-2.15274e-08
-1.70636e-07
-2.14831e-08
-1.70736e-07
-2.14431e-08
-1.70375e-07
-2.14095e-08
-1.69635e-07
-2.13786e-08
-1.68599e-07
-2.13497e-08
-1.67354e-07
-1.65981e-07
-2.13227e-08
-2.53145e-08
-8.55007e-08
2.54944e-08
-2.51161e-08
-9.82607e-08
-2.49315e-08
-1.10464e-07
-2.47358e-08
-1.21825e-07
-2.4558e-08
-1.32083e-07
-2.43791e-08
-1.41064e-07
-2.42227e-08
-1.48691e-07
-2.40716e-08
-1.54979e-07
-2.39431e-08
-1.60007e-07
-2.38219e-08
-1.63897e-07
-2.37203e-08
-1.66784e-07
-2.36256e-08
-1.68803e-07
-2.35461e-08
-1.70077e-07
-2.34725e-08
-1.70713e-07
-2.341e-08
-1.70805e-07
-2.33525e-08
-1.70437e-07
-2.33019e-08
-1.69691e-07
-2.32551e-08
-1.68651e-07
-2.32109e-08
-1.67403e-07
-1.66027e-07
-2.31699e-08
-2.75071e-08
-8.56964e-08
2.76976e-08
-2.72959e-08
-9.84765e-08
-2.70951e-08
-1.10682e-07
-2.68833e-08
-1.22041e-07
-2.6687e-08
-1.32293e-07
-2.649e-08
-1.41263e-07
-2.63135e-08
-1.48878e-07
-2.61431e-08
-1.55152e-07
-2.59939e-08
-1.60165e-07
-2.5853e-08
-1.64041e-07
-2.57307e-08
-1.66914e-07
-2.56165e-08
-1.68921e-07
-2.55168e-08
-1.70184e-07
-2.54245e-08
-1.70811e-07
-2.53427e-08
-1.70894e-07
-2.52675e-08
-1.70519e-07
-2.51988e-08
-1.69767e-07
-2.51354e-08
-1.68722e-07
-2.50746e-08
-1.6747e-07
-1.66091e-07
-2.5019e-08
-2.97268e-08
-8.59061e-08
2.99277e-08
-2.95001e-08
-9.87092e-08
-2.92799e-08
-1.1092e-07
-2.9049e-08
-1.22278e-07
-2.88314e-08
-1.32524e-07
-2.86142e-08
-1.41485e-07
-2.84157e-08
-1.49087e-07
-2.82246e-08
-1.55346e-07
-2.80536e-08
-1.60346e-07
-2.78921e-08
-1.64206e-07
-2.77485e-08
-1.67066e-07
-2.76142e-08
-1.69061e-07
-2.74941e-08
-1.70312e-07
-2.73824e-08
-1.70929e-07
-2.72812e-08
-1.71003e-07
-2.71876e-08
-1.70619e-07
-2.71007e-08
-1.6986e-07
-2.70204e-08
-1.6881e-07
-2.69428e-08
-1.67553e-07
-1.66169e-07
-2.6872e-08
-3.19409e-08
-8.61189e-08
3.21429e-08
-3.17067e-08
-9.89497e-08
-3.14709e-08
-1.11172e-07
-3.12227e-08
-1.22533e-07
-3.09839e-08
-1.32776e-07
-3.07461e-08
-1.41729e-07
-3.0525e-08
-1.4932e-07
-3.03126e-08
-1.55565e-07
-3.01188e-08
-1.6055e-07
-2.99363e-08
-1.64396e-07
-2.97704e-08
-1.67242e-07
-2.96157e-08
-1.69223e-07
-2.94741e-08
-1.70463e-07
-2.93428e-08
-1.71068e-07
-2.92213e-08
-1.71132e-07
-2.9109e-08
-1.7074e-07
-2.9003e-08
-1.69974e-07
-2.89053e-08
-1.68917e-07
-2.881e-08
-1.67655e-07
-1.66266e-07
-2.87234e-08
-3.41792e-08
-8.63406e-08
3.43927e-08
-3.39316e-08
-9.92024e-08
-3.36751e-08
-1.11441e-07
-3.34066e-08
-1.22809e-07
-3.3144e-08
-1.33051e-07
-3.28842e-08
-1.41997e-07
-3.2639e-08
-1.49576e-07
-3.24046e-08
-1.55808e-07
-3.21873e-08
-1.60778e-07
-3.19832e-08
-1.64609e-07
-3.17946e-08
-1.6744e-07
-3.1619e-08
-1.69408e-07
-3.14558e-08
-1.70635e-07
-3.13044e-08
-1.71229e-07
-3.11623e-08
-1.71283e-07
-3.1031e-08
-1.70881e-07
-3.09057e-08
-1.70107e-07
-3.07902e-08
-1.69043e-07
-3.06771e-08
-1.67774e-07
-1.66379e-07
-3.05742e-08
-3.64344e-08
-8.65727e-08
3.6657e-08
-3.61704e-08
-9.94731e-08
-3.58889e-08
-1.11732e-07
-3.55972e-08
-1.23109e-07
-3.53081e-08
-1.33351e-07
-3.50249e-08
-1.4229e-07
-3.47545e-08
-1.49858e-07
-3.44975e-08
-1.56076e-07
-3.4256e-08
-1.6103e-07
-3.40301e-08
-1.64846e-07
-3.38183e-08
-1.67663e-07
-3.36214e-08
-1.69616e-07
-3.34359e-08
-1.70831e-07
-3.32641e-08
-1.71413e-07
-3.31008e-08
-1.71456e-07
-3.29501e-08
-1.71044e-07
-3.28048e-08
-1.70261e-07
-3.26713e-08
-1.69189e-07
-3.25394e-08
-1.67914e-07
-1.66512e-07
-3.24198e-08
-3.86811e-08
-8.68233e-08
3.89166e-08
-3.83985e-08
-9.97631e-08
-3.8093e-08
-1.12045e-07
-3.77798e-08
-1.23432e-07
-3.74661e-08
-1.33674e-07
-3.71609e-08
-1.42607e-07
-3.68662e-08
-1.50164e-07
-3.65872e-08
-1.56367e-07
-3.63219e-08
-1.61306e-07
-3.60742e-08
-1.65106e-07
-3.58393e-08
-1.67908e-07
-3.56211e-08
-1.69848e-07
-3.54133e-08
-1.71049e-07
-3.52208e-08
-1.71618e-07
-3.50362e-08
-1.7165e-07
-3.48659e-08
-1.71228e-07
-3.47006e-08
-1.70435e-07
-3.45486e-08
-1.69355e-07
-3.43979e-08
-1.68072e-07
-1.66662e-07
-3.42609e-08
-4.0899e-08
-8.70783e-08
4.11453e-08
-4.06059e-08
-1.00062e-07
-4.02822e-08
-1.12371e-07
-3.99514e-08
-1.23772e-07
-3.96158e-08
-1.34017e-07
-3.92903e-08
-1.42945e-07
-3.89723e-08
-1.50492e-07
-3.8672e-08
-1.56682e-07
-3.83834e-08
-1.61606e-07
-3.81142e-08
-1.65391e-07
-3.7856e-08
-1.68177e-07
-3.76165e-08
-1.70102e-07
-3.73859e-08
-1.7129e-07
-3.71727e-08
-1.71846e-07
-3.69662e-08
-1.71866e-07
-3.6776e-08
-1.71433e-07
-3.65901e-08
-1.7063e-07
-3.64194e-08
-1.69541e-07
-3.62494e-08
-1.6825e-07
-1.66833e-07
-3.60946e-08
-4.30892e-08
-8.73391e-08
4.33455e-08
-4.27896e-08
-1.00365e-07
-4.24527e-08
-1.12706e-07
-4.21086e-08
-1.24125e-07
-4.17543e-08
-1.34377e-07
-4.14107e-08
-1.43302e-07
-4.10712e-08
-1.50841e-07
-4.07506e-08
-1.57019e-07
-4.04392e-08
-1.61928e-07
-4.01486e-08
-1.65698e-07
-3.98675e-08
-1.68469e-07
-3.96063e-08
-1.7038e-07
-3.93531e-08
-1.71553e-07
-3.91186e-08
-1.72097e-07
-3.88903e-08
-1.72104e-07
-3.86795e-08
-1.71659e-07
-3.8473e-08
-1.70846e-07
-3.82831e-08
-1.69747e-07
-3.80935e-08
-1.68447e-07
-1.67022e-07
-3.79204e-08
-4.52832e-08
-8.76099e-08
4.55489e-08
-4.49737e-08
-1.00681e-07
-4.46215e-08
-1.13056e-07
-4.42624e-08
-1.24495e-07
-4.38889e-08
-1.34756e-07
-4.35267e-08
-1.4368e-07
-4.31654e-08
-1.51211e-07
-4.28241e-08
-1.57378e-07
-4.24897e-08
-1.62273e-07
-4.21774e-08
-1.66028e-07
-4.18729e-08
-1.68785e-07
-4.15898e-08
-1.7068e-07
-4.13134e-08
-1.7184e-07
-4.10573e-08
-1.7237e-07
-4.08065e-08
-1.72365e-07
-4.0575e-08
-1.71908e-07
-4.03472e-08
-1.71083e-07
-4.01377e-08
-1.69974e-07
-3.9928e-08
-1.68665e-07
-1.67232e-07
-3.9736e-08
-4.74846e-08
-8.78972e-08
4.77607e-08
-4.71606e-08
-1.01014e-07
-4.67906e-08
-1.13424e-07
-4.64143e-08
-1.24885e-07
-4.60204e-08
-1.35155e-07
-4.56385e-08
-1.4408e-07
-4.5255e-08
-1.51604e-07
-4.48922e-08
-1.5776e-07
-4.45344e-08
-1.62642e-07
-4.41997e-08
-1.66382e-07
-4.38714e-08
-1.69124e-07
-4.35656e-08
-1.71005e-07
-4.32658e-08
-1.7215e-07
-4.29872e-08
-1.72667e-07
-4.27136e-08
-1.72648e-07
-4.24605e-08
-1.72179e-07
-4.2211e-08
-1.71342e-07
-4.1981e-08
-1.70222e-07
-4.17507e-08
-1.68903e-07
-1.67462e-07
-4.1539e-08
-4.96794e-08
-8.81957e-08
4.99658e-08
-4.93429e-08
-1.01361e-07
-4.8956e-08
-1.13809e-07
-4.85622e-08
-1.25293e-07
-4.81478e-08
-1.35574e-07
-4.77456e-08
-1.44501e-07
-4.73394e-08
-1.5202e-07
-4.69544e-08
-1.58165e-07
-4.65727e-08
-1.63035e-07
-4.62149e-08
-1.6676e-07
-4.58624e-08
-1.69487e-07
-4.55332e-08
-1.71354e-07
-4.52092e-08
-1.72485e-07
-4.49075e-08
-1.72988e-07
-4.46105e-08
-1.72955e-07
-4.4335e-08
-1.72473e-07
-4.4063e-08
-1.71624e-07
-4.3812e-08
-1.70492e-07
-4.35604e-08
-1.69163e-07
-1.67713e-07
-4.33285e-08
-5.18666e-08
-8.85083e-08
5.21651e-08
-5.15173e-08
-1.01723e-07
-5.11144e-08
-1.14211e-07
-5.07035e-08
-1.25721e-07
-5.02691e-08
-1.36015e-07
-4.98462e-08
-1.44944e-07
-4.94174e-08
-1.52459e-07
-4.90096e-08
-1.58595e-07
-4.86038e-08
-1.63452e-07
-4.8222e-08
-1.67164e-07
-4.78447e-08
-1.69876e-07
-4.74913e-08
-1.71728e-07
-4.71426e-08
-1.72845e-07
-4.68168e-08
-1.73333e-07
-4.64957e-08
-1.73287e-07
-4.61968e-08
-1.72791e-07
-4.59018e-08
-1.71929e-07
-4.56285e-08
-1.70785e-07
-4.53552e-08
-1.69445e-07
-1.67985e-07
-4.51022e-08
-5.40459e-08
-8.88335e-08
5.43538e-08
-5.36845e-08
-1.02099e-07
-5.32671e-08
-1.14629e-07
-5.28393e-08
-1.26167e-07
-5.23854e-08
-1.36476e-07
-5.19414e-08
-1.4541e-07
-5.14896e-08
-1.52921e-07
-5.10583e-08
-1.59049e-07
-5.06278e-08
-1.63894e-07
-5.02213e-08
-1.67593e-07
-4.98186e-08
-1.70291e-07
-4.944e-08
-1.72128e-07
-4.90658e-08
-1.7323e-07
-4.87152e-08
-1.73704e-07
-4.83691e-08
-1.73644e-07
-4.80461e-08
-1.73134e-07
-4.77272e-08
-1.72258e-07
-4.7431e-08
-1.71101e-07
-4.71353e-08
-1.6975e-07
-1.68281e-07
-4.68604e-08
-5.62338e-08
-8.91727e-08
5.65562e-08
-5.58573e-08
-1.02492e-07
-5.54223e-08
-1.15065e-07
-5.49749e-08
-1.26633e-07
-5.44997e-08
-1.36959e-07
-5.40329e-08
-1.45899e-07
-5.35571e-08
-1.53409e-07
-5.31007e-08
-1.59529e-07
-5.26447e-08
-1.64363e-07
-5.22121e-08
-1.68048e-07
-5.17832e-08
-1.70732e-07
-5.13781e-08
-1.72555e-07
-5.09777e-08
-1.73643e-07
-5.06007e-08
-1.74102e-07
-5.02289e-08
-1.74027e-07
-4.98803e-08
-1.73503e-07
-4.95366e-08
-1.72613e-07
-4.9216e-08
-1.71442e-07
-4.8897e-08
-1.70078e-07
-1.686e-07
-4.85989e-08
-5.84173e-08
-8.95261e-08
5.87505e-08
-5.80264e-08
-1.029e-07
-5.75749e-08
-1.15521e-07
-5.71076e-08
-1.27121e-07
-5.66107e-08
-1.37466e-07
-5.612e-08
-1.46414e-07
-5.56195e-08
-1.53922e-07
-5.51369e-08
-1.60035e-07
-5.46545e-08
-1.64859e-07
-5.41945e-08
-1.68532e-07
-5.37384e-08
-1.71202e-07
-5.33056e-08
-1.73011e-07
-5.28779e-08
-1.74083e-07
-5.24735e-08
-1.74528e-07
-5.20748e-08
-1.74439e-07
-5.16995e-08
-1.73899e-07
-5.133e-08
-1.72994e-07
-5.09839e-08
-1.71809e-07
-5.06405e-08
-1.70433e-07
-1.68943e-07
-5.03183e-08
-6.06165e-08
-8.99e-08
6.09692e-08
-6.02052e-08
-1.03331e-07
-5.97326e-08
-1.16e-07
-5.92418e-08
-1.27633e-07
-5.87209e-08
-1.37998e-07
-5.8204e-08
-1.46954e-07
-5.76771e-08
-1.54463e-07
-5.71667e-08
-1.6057e-07
-5.66565e-08
-1.65383e-07
-5.61677e-08
-1.69044e-07
-5.56832e-08
-1.717e-07
-5.52211e-08
-1.73495e-07
-5.4765e-08
-1.74553e-07
-5.43315e-08
-1.74983e-07
-5.39049e-08
-1.74878e-07
-5.35013e-08
-1.74324e-07
-5.31048e-08
-1.73403e-07
-5.27317e-08
-1.72204e-07
-5.23628e-08
-1.70813e-07
-1.69312e-07
-5.20151e-08
-6.28016e-08
-9.02898e-08
6.31655e-08
-6.2373e-08
-1.0378e-07
-6.18827e-08
-1.165e-07
-6.13694e-08
-1.28169e-07
-6.08252e-08
-1.38555e-07
-6.02818e-08
-1.47522e-07
-5.97283e-08
-1.55031e-07
-5.91889e-08
-1.61133e-07
-5.86502e-08
-1.65938e-07
-5.81311e-08
-1.69586e-07
-5.76171e-08
-1.7223e-07
-5.71245e-08
-1.7401e-07
-5.66387e-08
-1.75054e-07
-5.6175e-08
-1.75469e-07
-5.57192e-08
-1.75348e-07
-5.52861e-08
-1.74778e-07
-5.48614e-08
-1.73842e-07
-5.446e-08
-1.72626e-07
-5.40644e-08
-1.71221e-07
-1.69708e-07
-5.36899e-08
-6.49995e-08
-9.06995e-08
6.53849e-08
-6.45488e-08
-1.04252e-07
-6.40363e-08
-1.17024e-07
-6.34975e-08
-1.2873e-07
-6.29279e-08
-1.3914e-07
-6.2356e-08
-1.48118e-07
-6.17743e-08
-1.55629e-07
-6.12042e-08
-1.61727e-07
-6.06355e-08
-1.66522e-07
-6.00847e-08
-1.7016e-07
-5.95398e-08
-1.7279e-07
-5.90151e-08
-1.74557e-07
-5.84984e-08
-1.75586e-07
-5.80026e-08
-1.75985e-07
-5.75164e-08
-1.75849e-07
-5.7052e-08
-1.75263e-07
-5.65977e-08
-1.7431e-07
-5.61661e-08
-1.73079e-07
-5.57424e-08
-1.71658e-07
-1.70132e-07
-5.53395e-08
-6.71903e-08
-9.11257e-08
6.75882e-08
-6.67201e-08
-1.04744e-07
-6.61874e-08
-1.17571e-07
-6.56231e-08
-1.29317e-07
-6.50278e-08
-1.39752e-07
-6.44261e-08
-1.48742e-07
-6.38151e-08
-1.56257e-07
-6.32129e-08
-1.62352e-07
-6.26128e-08
-1.6714e-07
-6.20284e-08
-1.70766e-07
-6.14513e-08
-1.73384e-07
-6.08926e-08
-1.75137e-07
-6.03433e-08
-1.76151e-07
-5.9814e-08
-1.76535e-07
-5.92956e-08
-1.76383e-07
-5.87984e-08
-1.75781e-07
-5.83128e-08
-1.74811e-07
-5.78495e-08
-1.73563e-07
-5.7396e-08
-1.72126e-07
-1.70585e-07
-5.69632e-08
-6.94e-08
-9.15727e-08
6.98218e-08
-6.89046e-08
-1.0526e-07
-6.83465e-08
-1.18145e-07
-6.7753e-08
-1.29932e-07
-6.71287e-08
-1.40393e-07
-6.64949e-08
-1.49398e-07
-6.58523e-08
-1.56918e-07
-6.52158e-08
-1.6301e-07
-6.45823e-08
-1.67791e-07
-6.39626e-08
-1.71407e-07
-6.33512e-08
-1.74012e-07
-6.27567e-08
-1.75752e-07
-6.21731e-08
-1.76751e-07
-6.16082e-08
-1.7712e-07
-6.10558e-08
-1.76952e-07
-6.05238e-08
-1.76332e-07
-6.00052e-08
-1.75346e-07
-5.95082e-08
-1.7408e-07
-5.90234e-08
-1.72626e-07
-1.7107e-07
-5.85588e-08
-7.16123e-08
-9.20421e-08
7.20517e-08
-7.10914e-08
-1.05803e-07
-7.0508e-08
-1.18747e-07
-6.9884e-08
-1.30578e-07
-6.92296e-08
-1.41067e-07
-6.85618e-08
-1.50087e-07
-6.78859e-08
-1.57612e-07
-6.7213e-08
-1.63703e-07
-6.65443e-08
-1.68478e-07
-6.58869e-08
-1.72084e-07
-6.52393e-08
-1.74678e-07
-6.46069e-08
-1.76404e-07
-6.39868e-08
-1.77389e-07
-6.33844e-08
-1.77742e-07
-6.2796e-08
-1.77557e-07
-6.22272e-08
-1.76921e-07
-6.16736e-08
-1.75916e-07
-6.11411e-08
-1.74633e-07
-6.06228e-08
-1.73161e-07
-1.71589e-07
-6.01247e-08
-7.3836e-08
-9.25339e-08
7.43017e-08
-7.32875e-08
-1.06372e-07
-7.2676e-08
-1.19379e-07
-7.20194e-08
-1.31255e-07
-7.13325e-08
-1.41774e-07
-7.06283e-08
-1.50811e-07
-6.99167e-08
-1.58343e-07
-6.92052e-08
-1.64434e-07
-6.84988e-08
-1.69203e-07
-6.78016e-08
-1.728e-07
-6.71154e-08
-1.75382e-07
-6.64428e-08
-1.77095e-07
-6.57843e-08
-1.78065e-07
-6.51419e-08
-1.78403e-07
-6.45155e-08
-1.78202e-07
-6.39077e-08
-1.77547e-07
-6.33169e-08
-1.76524e-07
-6.27468e-08
-1.75222e-07
-6.2193e-08
-1.73732e-07
-1.72142e-07
-6.16594e-08
-7.60619e-08
-9.30492e-08
7.6546e-08
-7.54866e-08
-1.06969e-07
-7.48478e-08
-1.20042e-07
-7.41576e-08
-1.31966e-07
-7.34369e-08
-1.42516e-07
-7.26945e-08
-1.51572e-07
-7.19451e-08
-1.59113e-07
-7.11925e-08
-1.65204e-07
-7.04461e-08
-1.69969e-07
-6.97064e-08
-1.73558e-07
-6.89792e-08
-1.76129e-07
-6.82638e-08
-1.77828e-07
-6.75639e-08
-1.78784e-07
-6.68794e-08
-1.79106e-07
-6.62122e-08
-1.78887e-07
-6.55632e-08
-1.78215e-07
-6.49328e-08
-1.77173e-07
-6.43229e-08
-1.75851e-07
-6.37313e-08
-1.74341e-07
-1.72733e-07
-6.31602e-08
-7.83093e-08
-9.35903e-08
7.88237e-08
-7.77024e-08
-1.07596e-07
-7.7031e-08
-1.20738e-07
-7.63036e-08
-1.32712e-07
-7.55457e-08
-1.43296e-07
-7.4762e-08
-1.52373e-07
-7.39718e-08
-1.59924e-07
-7.31754e-08
-1.66017e-07
-7.23861e-08
-1.70777e-07
-7.16013e-08
-1.74359e-07
-7.08302e-08
-1.76919e-07
-7.00694e-08
-1.78605e-07
-6.93258e-08
-1.79547e-07
-6.85961e-08
-1.79852e-07
-6.78859e-08
-1.79616e-07
-6.7193e-08
-1.78925e-07
-6.65208e-08
-1.77864e-07
-6.58686e-08
-1.76522e-07
-6.52371e-08
-1.74991e-07
-1.73363e-07
-6.46261e-08
-8.05655e-08
-9.41614e-08
8.11037e-08
-7.99253e-08
-1.08258e-07
-7.92207e-08
-1.21471e-07
-7.84543e-08
-1.33498e-07
-7.76571e-08
-1.44118e-07
-7.68298e-08
-1.53217e-07
-7.59963e-08
-1.60779e-07
-7.51534e-08
-1.66876e-07
-7.43183e-08
-1.71633e-07
-7.34855e-08
-1.75207e-07
-7.26677e-08
-1.77757e-07
-7.18586e-08
-1.79431e-07
-7.10679e-08
-1.80357e-07
-7.02907e-08
-1.80646e-07
-6.95342e-08
-1.80393e-07
-6.87949e-08
-1.79682e-07
-6.80778e-08
-1.78601e-07
-6.7381e-08
-1.77238e-07
-6.67067e-08
-1.75685e-07
-1.74035e-07
-6.60535e-08
-8.28353e-08
-9.47607e-08
8.34068e-08
-8.21604e-08
-1.08953e-07
-8.14195e-08
-1.22241e-07
-8.06117e-08
-1.34323e-07
-7.97724e-08
-1.44982e-07
-7.88987e-08
-1.54106e-07
-7.80188e-08
-1.61681e-07
-7.71264e-08
-1.67782e-07
-7.62425e-08
-1.72537e-07
-7.53588e-08
-1.76105e-07
-7.4491e-08
-1.78645e-07
-7.36306e-08
-1.80306e-07
-7.27902e-08
-1.81217e-07
-7.19621e-08
-1.8149e-07
-7.11567e-08
-1.81218e-07
-7.03679e-08
-1.80487e-07
-6.96034e-08
-1.79385e-07
-6.88591e-08
-1.77999e-07
-6.81395e-08
-1.76424e-07
-1.74751e-07
-6.74416e-08
-8.51109e-08
-9.53915e-08
8.57079e-08
-8.44012e-08
-1.09683e-07
-8.36242e-08
-1.2305e-07
-8.27737e-08
-1.35192e-07
-8.18904e-08
-1.45892e-07
-8.09679e-08
-1.55043e-07
-8.00389e-08
-1.62633e-07
-7.9094e-08
-1.6874e-07
-7.81581e-08
-1.73495e-07
-7.72201e-08
-1.77056e-07
-7.62991e-08
-1.79587e-07
-7.53841e-08
-1.81235e-07
-7.44902e-08
-1.82132e-07
-7.36084e-08
-1.82387e-07
-7.27503e-08
-1.82096e-07
-7.19092e-08
-1.81345e-07
-7.10938e-08
-1.80221e-07
-7.02992e-08
-1.78812e-07
-6.95311e-08
-1.77212e-07
-1.75516e-07
-6.87857e-08
-8.74108e-08
-9.60547e-08
8.80458e-08
-8.66614e-08
-1.10453e-07
-8.58426e-08
-1.23902e-07
-8.49451e-08
-1.36106e-07
-8.40137e-08
-1.46851e-07
-8.30389e-08
-1.5603e-07
-8.2057e-08
-1.63638e-07
-8.10563e-08
-1.69752e-07
-8.00646e-08
-1.74507e-07
-7.9069e-08
-1.78064e-07
-7.8091e-08
-1.80585e-07
-7.71181e-08
-1.82221e-07
-7.61674e-08
-1.83103e-07
-7.52281e-08
-1.83341e-07
-7.43144e-08
-1.8303e-07
-7.34174e-08
-1.82258e-07
-7.25481e-08
-1.8111e-07
-7.17001e-08
-1.79676e-07
-7.08807e-08
-1.78051e-07
-1.76328e-07
-7.00849e-08
-8.97238e-08
-9.67563e-08
9.03907e-08
-8.89324e-08
-1.11264e-07
-8.80704e-08
-1.248e-07
-8.71236e-08
-1.3707e-07
-8.61412e-08
-1.47862e-07
-8.5111e-08
-1.57073e-07
-8.40728e-08
-1.647e-07
-8.30126e-08
-1.70824e-07
-8.19615e-08
-1.7558e-07
-8.09045e-08
-1.79133e-07
-7.98656e-08
-1.81645e-07
-7.88308e-08
-1.83269e-07
-7.78191e-08
-1.84136e-07
-7.6819e-08
-1.84356e-07
-7.58452e-08
-1.84025e-07
-7.48892e-08
-1.8323e-07
-7.39619e-08
-1.82058e-07
-7.30572e-08
-1.80599e-07
-7.21825e-08
-1.78947e-07
-1.77196e-07
-7.13333e-08
-9.20562e-08
-9.74941e-08
9.2765e-08
-9.12211e-08
-1.12119e-07
-9.03118e-08
-1.25746e-07
-8.93124e-08
-1.38085e-07
-8.8275e-08
-1.48928e-07
-8.71855e-08
-1.58174e-07
-8.60868e-08
-1.65822e-07
-8.49632e-08
-1.71957e-07
-8.38484e-08
-1.76716e-07
-8.27258e-08
-1.80266e-07
-8.16219e-08
-1.8277e-07
-8.05212e-08
-1.84381e-07
-7.94447e-08
-1.85232e-07
-7.83793e-08
-1.85434e-07
-7.7342e-08
-1.85082e-07
-7.63226e-08
-1.84264e-07
-7.53339e-08
-1.83066e-07
-7.43686e-08
-1.8158e-07
-7.34356e-08
-1.79899e-07
-1.78119e-07
-7.25294e-08
-9.4402e-08
-9.8272e-08
9.51447e-08
-9.35222e-08
-1.13019e-07
-9.25648e-08
-1.26742e-07
-9.15102e-08
-1.39155e-07
-9.04146e-08
-1.50054e-07
-8.92621e-08
-1.59338e-07
-8.80988e-08
-1.6701e-07
-8.69075e-08
-1.73158e-07
-8.57244e-08
-1.77922e-07
-8.45319e-08
-1.81468e-07
-8.33582e-08
-1.83965e-07
-8.21871e-08
-1.85564e-07
-8.10407e-08
-1.864e-07
-7.9906e-08
-1.86583e-07
-7.88001e-08
-1.86209e-07
-7.77135e-08
-1.85366e-07
-7.66587e-08
-1.84142e-07
-7.56291e-08
-1.82627e-07
-7.46333e-08
-1.80916e-07
-1.79104e-07
-7.36666e-08
-9.67816e-08
-9.90924e-08
9.75718e-08
-9.5851e-08
-1.13969e-07
-9.4838e-08
-1.27794e-07
-9.37225e-08
-1.40286e-07
-9.25629e-08
-1.51243e-07
-9.13424e-08
-1.60568e-07
-9.01092e-08
-1.68267e-07
-8.88454e-08
-1.7443e-07
-8.75889e-08
-1.792e-07
-8.63216e-08
-1.82745e-07
-8.50731e-08
-1.85234e-07
-8.38268e-08
-1.86821e-07
-8.26061e-08
-1.87641e-07
-8.1397e-08
-1.87804e-07
-8.02184e-08
-1.87407e-07
-7.90597e-08
-1.86539e-07
-7.79348e-08
-1.85286e-07
-7.68365e-08
-1.8374e-07
-7.57743e-08
-1.81997e-07
-1.80151e-07
-7.47431e-08
-9.91807e-08
-9.99605e-08
1.00012e-07
-9.81968e-08
-1.14974e-07
-9.71258e-08
-1.28906e-07
-9.59457e-08
-1.41482e-07
-9.4718e-08
-1.52502e-07
-9.34248e-08
-1.61872e-07
-9.21167e-08
-1.69601e-07
-9.07754e-08
-1.7578e-07
-8.94403e-08
-1.80557e-07
-8.80931e-08
-1.84102e-07
-8.67644e-08
-1.86584e-07
-8.54377e-08
-1.8816e-07
-8.41369e-08
-1.88962e-07
-8.28488e-08
-1.89105e-07
-8.15916e-08
-1.88685e-07
-8.03563e-08
-1.87789e-07
-7.91559e-08
-1.86507e-07
-7.79846e-08
-1.84928e-07
-7.68507e-08
-1.83151e-07
-1.81268e-07
-7.57511e-08
-1.01607e-07
-1.00876e-07
1.02491e-07
-1.00566e-07
-1.16035e-07
-9.94313e-08
-1.30081e-07
-9.81819e-08
-1.42747e-07
-9.68805e-08
-1.53835e-07
-9.55095e-08
-1.63253e-07
-9.41209e-08
-1.71014e-07
-9.26966e-08
-1.77212e-07
-9.12772e-08
-1.81998e-07
-8.98445e-08
-1.85543e-07
-8.843e-08
-1.88019e-07
-8.70174e-08
-1.89582e-07
-8.56313e-08
-1.90369e-07
-8.42583e-08
-1.9049e-07
-8.29179e-08
-1.90045e-07
-8.16003e-08
-1.8912e-07
-8.03198e-08
-1.87806e-07
-7.90702e-08
-1.86193e-07
-7.78606e-08
-1.84378e-07
-1.82457e-07
-7.66877e-08
-1.04049e-07
-1.01844e-07
1.04979e-07
-1.0295e-07
-1.17156e-07
-1.0175e-07
-1.31324e-07
-1.00428e-07
-1.44086e-07
-9.90481e-08
-1.55246e-07
-9.75946e-08
-1.64717e-07
-9.612e-08
-1.72514e-07
-9.46072e-08
-1.78734e-07
-9.30975e-08
-1.8353e-07
-9.15735e-08
-1.87077e-07
-9.0067e-08
-1.89547e-07
-8.85625e-08
-1.91098e-07
-8.70845e-08
-1.91867e-07
-8.56213e-08
-1.91967e-07
-8.41909e-08
-1.91495e-07
-8.2786e-08
-1.90541e-07
-8.14192e-08
-1.89192e-07
-8.00863e-08
-1.87543e-07
-7.8795e-08
-1.85688e-07
-1.83726e-07
-7.75442e-08
-1.06526e-07
-1.02865e-07
1.07515e-07
-1.05362e-07
-1.1834e-07
-1.04088e-07
-1.32638e-07
-1.02687e-07
-1.45503e-07
-1.01223e-07
-1.56742e-07
-9.96807e-08
-1.6627e-07
-9.81137e-08
-1.74105e-07
-9.65062e-08
-1.8035e-07
-9.48995e-08
-1.85159e-07
-9.32779e-08
-1.88707e-07
-9.16728e-08
-1.91172e-07
-9.00702e-08
-1.92711e-07
-8.84944e-08
-1.93462e-07
-8.69341e-08
-1.93539e-07
-8.54083e-08
-1.9304e-07
-8.39094e-08
-1.92053e-07
-8.24508e-08
-1.90669e-07
-8.10288e-08
-1.8898e-07
-7.96509e-08
-1.87083e-07
-1.85075e-07
-7.83168e-08
-1.09029e-07
-1.03948e-07
1.10073e-07
-1.07795e-07
-1.19596e-07
-1.06445e-07
-1.34031e-07
-1.04959e-07
-1.47006e-07
-1.03404e-07
-1.58329e-07
-1.01767e-07
-1.67919e-07
-1.00101e-07
-1.75797e-07
-9.83919e-08
-1.82069e-07
-9.66814e-08
-1.86892e-07
-9.49551e-08
-1.90444e-07
-9.32444e-08
-1.92904e-07
-9.15366e-08
-1.94431e-07
-8.98554e-08
-1.95164e-07
-8.81918e-08
-1.95216e-07
-8.65629e-08
-1.94688e-07
-8.49641e-08
-1.93667e-07
-8.34066e-08
-1.92245e-07
-8.18895e-08
-1.90514e-07
-8.04183e-08
-1.88572e-07
-1.86517e-07
-7.89953e-08
-1.11564e-07
-1.05093e-07
1.12675e-07
-1.10257e-07
-1.20924e-07
-1.08822e-07
-1.35507e-07
-1.07245e-07
-1.48599e-07
-1.05593e-07
-1.60013e-07
-1.03854e-07
-1.6967e-07
-1.02081e-07
-1.77595e-07
-1.00263e-07
-1.83896e-07
-9.84413e-08
-1.88735e-07
-9.66029e-08
-1.92292e-07
-9.47788e-08
-1.94748e-07
-9.29584e-08
-1.96263e-07
-9.11647e-08
-1.96976e-07
-8.93898e-08
-1.97004e-07
-8.76513e-08
-1.96444e-07
-8.59449e-08
-1.95388e-07
-8.42822e-08
-1.93924e-07
-8.2663e-08
-1.92148e-07
-8.10928e-08
-1.90158e-07
-1.8805e-07
-7.95748e-08
-1.14127e-07
-1.06305e-07
1.15299e-07
-1.12742e-07
-1.22331e-07
-1.11218e-07
-1.37072e-07
-1.09545e-07
-1.50291e-07
-1.07788e-07
-1.61802e-07
-1.0594e-07
-1.71532e-07
-1.04053e-07
-1.79508e-07
-1.02118e-07
-1.85842e-07
-1.00177e-07
-1.90699e-07
-9.82181e-08
-1.94263e-07
-9.62722e-08
-1.96714e-07
-9.43309e-08
-1.98217e-07
-9.24159e-08
-1.98911e-07
-9.05223e-08
-1.98912e-07
-8.86654e-08
-1.9832e-07
-8.68442e-08
-1.97225e-07
-8.50682e-08
-1.95718e-07
-8.334e-08
-1.93894e-07
-8.1663e-08
-1.91852e-07
-1.89688e-07
-8.00435e-08
-1.16732e-07
-1.07589e-07
1.17981e-07
-1.15262e-07
-1.23823e-07
-1.1364e-07
-1.38733e-07
-1.11862e-07
-1.52087e-07
-1.09992e-07
-1.63704e-07
-1.08026e-07
-1.73511e-07
-1.06016e-07
-1.81543e-07
-1.03956e-07
-1.87914e-07
-1.01885e-07
-1.92791e-07
-9.97975e-08
-1.96362e-07
-9.77209e-08
-1.98811e-07
-9.56498e-08
-2.00301e-07
-9.36052e-08
-2.00974e-07
-9.15836e-08
-2.00947e-07
-8.96005e-08
-2.0032e-07
-8.76556e-08
-1.99184e-07
-8.57587e-08
-1.97631e-07
-8.39134e-08
-1.95755e-07
-8.2123e-08
-1.93656e-07
-1.91433e-07
-8.03948e-08
-1.19372e-07
-1.08953e-07
1.20695e-07
-1.17811e-07
-1.25409e-07
-1.16085e-07
-1.40499e-07
-1.14195e-07
-1.53998e-07
-1.12203e-07
-1.65728e-07
-1.1011e-07
-1.7562e-07
-1.07967e-07
-1.83712e-07
-1.05773e-07
-1.90122e-07
-1.03564e-07
-1.95023e-07
-1.01337e-07
-1.98603e-07
-9.91199e-08
-2.01049e-07
-9.69094e-08
-2.02526e-07
-9.47249e-08
-2.03178e-07
-9.25666e-08
-2.03122e-07
-9.0447e-08
-2.02458e-07
-8.83701e-08
-2.01278e-07
-8.63429e-08
-1.99675e-07
-8.43725e-08
-1.97744e-07
-8.24596e-08
-1.95585e-07
-1.93296e-07
-8.06152e-08
-1.22053e-07
-1.10399e-07
1.23462e-07
-1.20393e-07
-1.27092e-07
-1.18554e-07
-1.42375e-07
-1.16543e-07
-1.56031e-07
-1.1442e-07
-1.67881e-07
-1.12191e-07
-1.77865e-07
-1.09906e-07
-1.86022e-07
-1.07567e-07
-1.92477e-07
-1.05209e-07
-1.97403e-07
-1.02833e-07
-2.00993e-07
-1.00464e-07
-2.03437e-07
-9.81041e-08
-2.04901e-07
-9.57698e-08
-2.0553e-07
-9.34639e-08
-2.05442e-07
-9.11987e-08
-2.04739e-07
-8.89794e-08
-2.03513e-07
-8.6813e-08
-2.01856e-07
-8.47079e-08
-1.99865e-07
-8.26647e-08
-1.97641e-07
-1.95282e-07
-8.06957e-08
-1.24768e-07
-1.11935e-07
1.26262e-07
-1.23004e-07
-1.2888e-07
-1.21046e-07
-1.44372e-07
-1.18905e-07
-1.58194e-07
-1.16642e-07
-1.70176e-07
-1.14267e-07
-1.80258e-07
-1.11829e-07
-1.88487e-07
-1.09334e-07
-1.94989e-07
-1.06816e-07
-1.99944e-07
-1.04279e-07
-2.03547e-07
-1.01748e-07
-2.05989e-07
-9.92269e-08
-2.0744e-07
-9.6731e-08
-2.08045e-07
-9.4267e-08
-2.07924e-07
-9.18444e-08
-2.07179e-07
-8.94727e-08
-2.05903e-07
-8.71561e-08
-2.04189e-07
-8.4907e-08
-2.02133e-07
-8.27231e-08
-1.99838e-07
-1.97404e-07
-8.06206e-08
-1.27531e-07
-1.13567e-07
1.29125e-07
-1.25654e-07
-1.30783e-07
-1.23564e-07
-1.46496e-07
-1.21284e-07
-1.60498e-07
-1.18869e-07
-1.72621e-07
-1.16338e-07
-1.82809e-07
-1.13734e-07
-1.91115e-07
-1.11071e-07
-1.9767e-07
-1.08381e-07
-2.02656e-07
-1.05672e-07
-2.06273e-07
-1.02966e-07
-2.08714e-07