/*--------------------------------*- C++ -*----------------------------------*\
  =========                 |
  \\      /  F ield         | OpenFOAM: The Open Source CFD Toolbox
   \\    /   O peration     | Website:  https://openfoam.org
    \\  /    A nd           | Version:  6
     \\/     M anipulation  |
\*---------------------------------------------------------------------------*/
FoamFile
{
    version     2.0;
    format      ascii;
    class       surfaceScalarField;
    location    "6";
    object      phi;
}
// * * * * * * * * * * * * * * * * * * * * * * * * * * * * * * * * * * * * * //

dimensions      [0 3 -1 0 0 0 0];

internalField   nonuniform List<scalar> 
19400
(
-8.91586e-09
-1.00126e-06
-1.52547e-08
-1.21397e-06
-1.69076e-08
-1.27828e-06
-1.53418e-08
-1.29987e-06
-1.23317e-08
-1.3048e-06
-9.23045e-09
-1.30365e-06
-6.67117e-09
-1.30073e-06
-4.81596e-09
-1.29775e-06
-3.42088e-09
-1.2954e-06
-2.33937e-09
-1.29396e-06
-1.25573e-09
-1.29355e-06
6.97924e-11
-1.29407e-06
1.89223e-09
-1.2953e-06
4.49682e-09
-1.29667e-06
7.86113e-09
-1.29725e-06
1.14898e-08
-1.29518e-06
1.39439e-08
-1.28627e-06
1.32861e-08
-1.26082e-06
7.83548e-09
-1.19248e-06
-9.724e-07
-2.19107e-09
-1.00002e-06
-5.20611e-09
-1.21168e-06
-6.54324e-09
-1.27778e-06
-6.65107e-09
-1.3003e-06
-6.24636e-09
-1.3058e-06
-5.31795e-09
-1.30495e-06
-4.27177e-09
-1.30214e-06
-3.18445e-09
-1.29914e-06
-2.11899e-09
-1.29671e-06
-1.16577e-09
-1.29523e-06
-1.21041e-10
-1.2948e-06
7.67165e-10
-1.2954e-06
1.81251e-09
-1.29666e-06
2.75421e-09
-1.29807e-06
3.56871e-09
-1.29856e-06
4.17519e-09
-1.29618e-06
4.08169e-09
-1.28676e-06
3.03819e-09
-1.26043e-06
7.49576e-10
-1.19084e-06
-9.7171e-07
-2.5873e-09
-9.97751e-07
-3.87566e-09
-1.21074e-06
-4.66534e-09
-1.27733e-06
-4.85833e-09
-1.30036e-06
-4.71558e-09
-1.30624e-06
-4.22282e-09
-1.30563e-06
-3.60806e-09
-1.30298e-06
-2.80618e-09
-1.3001e-06
-1.93628e-09
-1.29776e-06
-9.82534e-10
-1.29634e-06
-5.85133e-11
-1.29594e-06
9.26315e-10
-1.29647e-06
1.70967e-09
-1.29766e-06
2.4172e-09
-1.29889e-06
2.86635e-09
-1.29912e-06
2.98901e-09
-1.29642e-06
2.82865e-09
-1.28669e-06
2.3998e-09
-1.26021e-06
1.86654e-09
-1.19054e-06
-9.69856e-07
-1.73626e-09
-9.96101e-07
-2.64506e-09
-1.20995e-06
-3.21028e-09
-1.27684e-06
-3.47737e-09
-1.30015e-06
-3.57533e-09
-1.30621e-06
-3.43272e-09
-1.3058e-06
-3.13103e-09
-1.30336e-06
-2.59255e-09
-1.30067e-06
-1.93415e-09
-1.29851e-06
-1.10579e-09
-1.29721e-06
-2.51975e-10
-1.29687e-06
5.87328e-10
-1.2974e-06
1.28453e-09
-1.29847e-06
1.86323e-09
-1.29952e-06
2.11196e-09
-1.29952e-06
2.21657e-09
-1.29656e-06
2.19218e-09
-1.2867e-06
2.10761e-09
-1.26016e-06
1.60861e-09
-1.19012e-06
-9.68287e-07
-1.6924e-09
-9.9456e-07
-2.06338e-09
-1.20982e-06
-2.09185e-09
-1.27692e-06
-2.45175e-09
-1.29996e-06
-2.81974e-09
-1.30595e-06
-3.02661e-09
-1.30573e-06
-2.94341e-09
-1.30356e-06
-2.60013e-09
-1.30113e-06
-2.06497e-09
-1.29918e-06
-1.36366e-09
-1.29801e-06
-6.96476e-10
-1.29773e-06
8.78472e-11
-1.29823e-06
6.48471e-10
-1.29922e-06
1.18939e-09
-1.30013e-06
1.55502e-09
-1.3e-06
1.83594e-09
-1.29698e-06
2.02617e-09
-1.28703e-06
2.03299e-09
-1.26034e-06
1.64603e-09
-1.18998e-06
-9.66729e-07
-2.6407e-09
-9.92294e-07
-2.47252e-09
-1.21042e-06
-1.90075e-09
-1.27782e-06
-1.99622e-09
-1.3002e-06
-2.31115e-09
-1.3059e-06
-2.54137e-09
-1.30574e-06
-2.56559e-09
-1.30375e-06
-2.35566e-09
-1.30151e-06
-2.03131e-09
-1.2997e-06
-1.55833e-09
-1.2986e-06
-1.09162e-09
-1.29836e-06
-5.91802e-10
-1.29888e-06
-1.1978e-10
-1.29987e-06
3.58615e-10
-1.30077e-06
7.24153e-10
-1.30062e-06
1.1015e-09
-1.29756e-06
1.36055e-09
-1.28759e-06
1.37159e-09
-1.26077e-06
1.01301e-09
-1.19009e-06
-9.65827e-07
-2.7754e-09
-9.90108e-07
-2.59726e-09
-1.21119e-06
-2.0767e-09
-1.27887e-06
-1.91981e-09
-1.30085e-06
-1.90626e-09
-1.30635e-06
-1.89616e-09
-1.30611e-06
-1.87754e-09
-1.3041e-06
-1.75465e-09
-1.30189e-06
-1.62542e-09
-1.3001e-06
-1.41162e-09
-1.29903e-06
-1.2467e-09
-1.29879e-06
-9.79017e-10
-1.29931e-06
-7.7858e-10
-1.30031e-06
-5.16971e-10
-1.30123e-06
-2.44576e-10
-1.30111e-06
6.9412e-11
-1.29813e-06
3.52022e-10
-1.28824e-06
5.02031e-10
-1.26141e-06
4.76467e-10
-1.1906e-06
-9.65447e-07
-1.18405e-09
-9.89333e-07
-1.57052e-09
-1.21118e-06
-1.94175e-09
-1.27886e-06
-2.09536e-09
-1.301e-06
-2.04842e-09
-1.30671e-06
-1.84761e-09
-1.30653e-06
-1.68628e-09
-1.30451e-06
-1.47053e-09
-1.30225e-06
-1.35992e-09
-1.30041e-06
-1.21464e-09
-1.29929e-06
-1.14912e-09
-1.29902e-06
-1.08448e-09
-1.29954e-06
-1.03572e-09
-1.30054e-06
-9.41849e-10
-1.3015e-06
-8.65887e-10
-1.30144e-06
-6.70873e-10
-1.29853e-06
-5.15831e-10
-1.28869e-06
-4.22982e-10
-1.26192e-06
-1.26523e-10
-1.19134e-06
-9.65634e-07
-3.66254e-10
-9.89144e-07
-1.08891e-09
-1.21063e-06
-1.60532e-09
-1.2785e-06
-1.83998e-09
-1.30091e-06
-1.90943e-09
-1.30678e-06
-1.81883e-09
-1.30674e-06
-1.64268e-09
-1.30482e-06
-1.40871e-09
-1.30259e-06
-1.22397e-09
-1.30074e-06
-1.04628e-09
-1.29958e-06
-9.99808e-10
-1.29925e-06
-9.18032e-10
-1.2997e-06
-9.84576e-10
-1.30067e-06
-1.00011e-09
-1.3016e-06
-1.06021e-09
-1.30153e-06
-1.14291e-09
-1.29862e-06
-1.25169e-09
-1.28879e-06
-1.20467e-09
-1.26223e-06
-7.23519e-10
-1.19208e-06
-9.66379e-07
-2.94366e-10
-9.89018e-07
-1.11162e-09
-1.20997e-06
-1.20835e-09
-1.27853e-06
-1.0622e-09
-1.30117e-06
-1.03035e-09
-1.30691e-06
-1.02692e-09
-1.30683e-06
-1.00221e-09
-1.30494e-06
-8.88755e-10
-1.30276e-06
-7.64243e-10
-1.30095e-06
-5.92336e-10
-1.29981e-06
-4.76933e-10
-1.29945e-06
-4.19013e-10
-1.29986e-06
-4.76605e-10
-1.30075e-06
-5.29973e-10
-1.30163e-06
-7.51349e-10
-1.30151e-06
-9.39662e-10
-1.29851e-06
-1.22854e-09
-1.28862e-06
-1.36327e-09
-1.26218e-06
-1.00309e-09
-1.19253e-06
-9.67391e-07
-1.98033e-10
-9.8912e-07
-3.77563e-10
-1.21005e-06
-4.25994e-10
-1.27873e-06
-3.58535e-10
-1.30142e-06
-3.94266e-10
-1.30706e-06
-4.58579e-10
-1.30689e-06
-5.47953e-10
-1.305e-06
-5.30252e-10
-1.30287e-06
-5.04598e-10
-1.30111e-06
-3.61931e-10
-1.30001e-06
-2.96872e-10
-1.29967e-06
-1.13167e-10
-1.30004e-06
-1.31598e-10
-1.30089e-06
-1.23463e-10
-1.30166e-06
-2.85406e-10
-1.30142e-06
-5.39776e-10
-1.29831e-06
-8.27458e-10
-1.28836e-06
-1.05194e-09
-1.26199e-06
-9.90467e-10
-1.19266e-06
-9.68414e-07
-8.44072e-10
-9.88575e-07
-1.27698e-10
-1.21099e-06
-1.35415e-10
-1.27896e-06
-2.92363e-10
-1.30141e-06
-5.42811e-10
-1.307e-06
-7.13417e-10
-1.30681e-06
-8.96666e-10
-1.30495e-06
-9.50903e-10
-1.30286e-06
-1.02235e-09
-1.30115e-06
-9.72109e-10
-1.30008e-06
-9.26644e-10
-1.29979e-06
-8.40419e-10
-1.3002e-06
-7.90578e-10
-1.30103e-06
-7.28938e-10
-1.30178e-06
-7.7042e-10
-1.30153e-06
-7.20654e-10
-1.29845e-06
-6.40391e-10
-1.28857e-06
-7.15203e-10
-1.26207e-06
-1.42286e-09
-1.19213e-06
-9.69883e-07
-1.41944e-09
-9.87413e-07
-6.28524e-10
-1.212e-06
-3.88353e-10
-1.27942e-06
-5.10491e-10
-1.30146e-06
-8.28552e-10
-1.30685e-06
-1.14314e-09
-1.30661e-06
-1.44106e-09
-1.30478e-06
-1.64034e-09
-1.30275e-06
-1.79914e-09
-1.30109e-06
-1.88011e-09
-1.30009e-06
-1.95713e-09
-1.29983e-06
-1.93121e-09
-1.30026e-06
-1.91216e-09
-1.30115e-06
-1.79521e-09
-1.30197e-06
-1.56508e-09
-1.30183e-06
-1.19984e-09
-1.29893e-06
-7.71075e-10
-1.28918e-06
-5.3391e-10
-1.26252e-06
-9.00939e-10
-1.19197e-06
-9.70811e-07
-1.59562e-09
-9.85997e-07
-7.25369e-10
-1.21299e-06
-5.65087e-10
-1.27973e-06
-7.72676e-10
-1.30133e-06
-1.16189e-09
-1.30656e-06
-1.51578e-09
-1.30631e-06
-1.83866e-09
-1.30453e-06
-2.06151e-09
-1.30256e-06
-2.25117e-09
-1.30097e-06
-2.34372e-09
-1.30002e-06
-2.39455e-09
-1.29981e-06
-2.40624e-09
-1.30032e-06
-2.32624e-09
-1.30126e-06
-2.16564e-09
-1.30218e-06
-1.94844e-09
-1.30214e-06
-1.64364e-09
-1.29929e-06
-1.33364e-09
-1.28958e-06
-9.86618e-10
-1.26298e-06
-4.71552e-10
-1.1926e-06
-9.7129e-07
-1.96672e-09
-9.84119e-07
-1.25766e-09
-1.21382e-06
-9.60405e-10
-1.28011e-06
-1.10587e-09
-1.30129e-06
-1.36401e-09
-1.30638e-06
-1.62902e-09
-1.30612e-06
-1.86204e-09
-1.30437e-06
-2.03712e-09
-1.30244e-06
-2.18078e-09
-1.30089e-06
-2.24733e-09
-1.3e-06
-2.29356e-09
-1.29985e-06
-2.20944e-09
-1.3004e-06
-2.13716e-09
-1.30141e-06
-1.98918e-09
-1.30235e-06
-1.82629e-09
-1.30231e-06
-1.70009e-09
-1.29946e-06
-1.51585e-09
-1.28979e-06
-1.1579e-09
-1.26337e-06
-6.86807e-10
-1.19311e-06
-9.7198e-07
-1.65992e-09
-9.82507e-07
-1.7145e-09
-1.21379e-06
-1.00975e-09
-1.28087e-06
-6.93678e-10
-1.30163e-06
-7.27396e-10
-1.30641e-06
-8.97673e-10
-1.30597e-06
-1.15611e-09
-1.30416e-06
-1.35089e-09
-1.30226e-06
-1.51404e-09
-1.30077e-06
-1.58868e-09
-1.29993e-06
-1.61235e-09
-1.29984e-06
-1.60653e-09
-1.30046e-06
-1.53784e-09
-1.30152e-06
-1.42198e-09
-1.30251e-06
-1.34356e-09
-1.30248e-06
-1.24608e-09
-1.29959e-06
-1.15039e-09
-1.28992e-06
-9.06519e-10
-1.26362e-06
-6.58622e-10
-1.19338e-06
-9.72645e-07
-1.46608e-09
-9.80939e-07
-1.15413e-09
-1.21407e-06
-6.25412e-10
-1.28135e-06
-3.60027e-10
-1.3019e-06
-2.32952e-10
-1.30653e-06
-2.41538e-10
-1.30599e-06
-3.28543e-10
-1.3041e-06
-4.44726e-10
-1.30217e-06
-5.60008e-10
-1.30069e-06
-6.40466e-10
-1.29988e-06
-7.45246e-10
-1.29982e-06
-7.58129e-10
-1.30044e-06
-8.35286e-10
-1.30153e-06
-8.37717e-10
-1.30254e-06
-8.39938e-10
-1.30251e-06
-9.03549e-10
-1.2996e-06
-1.01207e-09
-1.28985e-06
-1.12032e-09
-1.26357e-06
-1.04701e-09
-1.19347e-06
-9.73684e-07
-2.94324e-10
-9.80532e-07
-1.54518e-10
-1.21415e-06
-6.90474e-11
-1.28135e-06
-8.75291e-11
-1.30186e-06
-2.14382e-11
-1.30656e-06
7.67568e-11
-1.30608e-06
1.80108e-10
-1.30419e-06
2.23592e-10
-1.30222e-06
2.33051e-10
-1.30069e-06
1.88911e-10
-1.29985e-06
1.3995e-10
-1.29975e-06
-1.33527e-11
-1.30035e-06
-1.90368e-10
-1.30138e-06
-4.11702e-10
-1.30235e-06
-6.83376e-10
-1.30234e-06
-8.07411e-10
-1.29947e-06
-9.41484e-10
-1.28976e-06
-1.05715e-09
-1.26342e-06
-1.24122e-09
-1.19322e-06
-9.74892e-07
5.80012e-10
-9.81068e-07
-1.70504e-10
-1.21339e-06
-2.80199e-10
-1.28123e-06
-1.74116e-10
-1.30199e-06
8.3095e-11
-1.30683e-06
3.42078e-10
-1.30637e-06
5.68668e-10
-1.30443e-06
7.00621e-10
-1.30237e-06
7.61982e-10
-1.30077e-06
7.62423e-10
-1.29986e-06
7.07511e-10
-1.29972e-06
6.72597e-10
-1.30028e-06
5.73539e-10
-1.30129e-06
4.82963e-10
-1.30223e-06
4.1117e-10
-1.30219e-06
2.99205e-10
-1.2993e-06
4.95234e-11
-1.2894e-06
-5.07035e-10
-1.26269e-06
-7.57616e-10
-1.19282e-06
-9.75644e-07
-1.79579e-11
-9.811e-07
-4.63286e-10
-1.21298e-06
-4.79066e-10
-1.28127e-06
-1.85876e-10
-1.30232e-06
2.08051e-10
-1.30727e-06
5.7823e-10
-1.30676e-06
8.14454e-10
-1.3047e-06
9.54267e-10
-1.3025e-06
9.59239e-10
-1.30079e-06
9.44791e-10
-1.29982e-06
9.22996e-10
-1.29969e-06
9.3487e-10
-1.30032e-06
1.05897e-09
-1.30141e-06
1.22551e-09
-1.30242e-06
1.33177e-09
-1.30231e-06
1.18726e-09
-1.29917e-06
6.29788e-10
-1.28878e-06
-5.25359e-10
-1.26151e-06
-1.18019e-09
-1.19219e-06
-9.76874e-07
-4.06109e-10
-9.80858e-07
3.81017e-11
-1.2136e-06
2.08534e-10
-1.28157e-06
3.80369e-10
-1.30263e-06
6.56059e-10
-1.30764e-06
8.91475e-10
-1.3071e-06
1.03331e-09
-1.30492e-06
1.03346e-09
-1.30259e-06
9.35434e-10
-1.30077e-06
7.64631e-10
-1.29974e-06
5.84962e-10
-1.29961e-06
5.08285e-10
-1.30029e-06
4.90361e-10
-1.30149e-06
5.79033e-10
-1.3026e-06
7.06632e-10
-1.30253e-06
7.07796e-10
-1.29931e-06
4.88026e-10
-1.28875e-06
-1.56573e-10
-1.26112e-06
-1.27534e-09
-1.19133e-06
-9.78202e-07
5.56331e-10
-9.8159e-07
9.84199e-10
-1.21416e-06
8.11794e-10
-1.28152e-06
7.88102e-10
-1.3027e-06
9.12825e-10
-1.30784e-06
1.01796e-09
-1.30728e-06
1.04833e-09
-1.30499e-06
9.23414e-10
-1.30253e-06
7.09623e-10
-1.30058e-06
4.00112e-10
-1.29949e-06
1.45629e-10
-1.29936e-06
-1.53626e-10
-1.30011e-06
-2.81065e-10
-1.30139e-06
-3.30255e-10
-1.30265e-06
-2.08891e-10
-1.30279e-06
1.29277e-10
-1.29976e-06
4.70629e-10
-1.28929e-06
6.09045e-10
-1.26148e-06
-2.62808e-10
-1.19068e-06
-9.78479e-07
1.40475e-09
-9.83094e-07
1.3244e-09
-1.21414e-06
8.55856e-10
-1.2811e-06
8.39904e-10
-1.30272e-06
9.68588e-10
-1.30798e-06
9.99199e-10
-1.30734e-06
9.12985e-10
-1.3049e-06
6.82731e-10
-1.30233e-06
4.1066e-10
-1.30031e-06
8.27569e-11
-1.29919e-06
-2.14816e-10
-1.29907e-06
-4.48861e-10
-1.29986e-06
-5.79328e-10
-1.30126e-06
-5.81018e-10
-1.30267e-06
-3.37483e-10
-1.30299e-06
2.49453e-12
-1.30013e-06
3.36471e-10
-1.28964e-06
4.33307e-10
-1.26161e-06
1.97134e-10
-1.19048e-06
-9.78267e-07
1.09632e-09
-9.8422e-07
1.33818e-09
-1.21438e-06
1.16541e-09
-1.28091e-06
1.08427e-09
-1.30259e-06
9.67528e-10
-1.30781e-06
7.73474e-10
-1.30709e-06
5.48655e-10
-1.30462e-06
3.11872e-10
-1.30204e-06
1.05787e-10
-1.30005e-06
-9.24622e-11
-1.29895e-06
-2.50121e-10
-1.29885e-06
-4.2551e-10
-1.29968e-06
-5.04141e-10
-1.30113e-06
-5.18504e-10
-1.30263e-06
-4.58421e-10
-1.30306e-06
-2.75833e-10
-1.30029e-06
1.10933e-12
-1.28986e-06
2.95772e-10
-1.26183e-06
7.44491e-10
-1.19085e-06
-9.77504e-07
1.39832e-09
-9.85612e-07
1.52963e-09
-1.2145e-06
1.37787e-09
-1.28072e-06
9.64443e-10
-1.30213e-06
4.78892e-10
-1.30726e-06
8.47947e-11
-1.30665e-06
-1.0452e-10
-1.30436e-06
-1.77858e-10
-1.30195e-06
-1.02375e-10
-1.30007e-06
-2.18887e-11
-1.29903e-06
7.70245e-11
-1.29894e-06
1.71114e-10
-1.29973e-06
1.72595e-10
-1.30113e-06
1.08449e-10
-1.30253e-06
-7.2188e-12
-1.3029e-06
-1.05679e-10
-1.30019e-06
5.27868e-11
-1.29e-06
5.10997e-10
-1.26223e-06
1.14682e-09
-1.1914e-06
-9.76345e-07
8.63967e-10
-9.86444e-07
3.67626e-10
-1.21397e-06
-6.19631e-11
-1.28024e-06
-4.42334e-10
-1.3017e-06
-6.65028e-10
-1.30698e-06
-7.26621e-10
-1.30654e-06
-6.07879e-10
-1.30442e-06
-3.65597e-10
-1.30216e-06
6.79864e-12
-1.30039e-06
4.02718e-10
-1.2994e-06
8.48118e-10
-1.29932e-06
1.17395e-09
-1.30009e-06
1.46058e-09
-1.30138e-06
1.5833e-09
-1.30267e-06
1.54075e-09
-1.30291e-06
1.45579e-09
-1.30011e-06
1.43102e-09
-1.28997e-06
1.65329e-09
-1.2624e-06
2.01368e-09
-1.19171e-06
-9.74332e-07
-2.59496e-10
-9.86157e-07
-9.32661e-10
-1.21333e-06
-1.09965e-09
-1.28005e-06
-1.11506e-09
-1.30172e-06
-8.98474e-10
-1.30719e-06
-6.26603e-10
-1.30685e-06
-2.60274e-10
-1.30479e-06
1.30271e-10
-1.30258e-06
5.91096e-10
-1.30086e-06
1.05814e-09
-1.29991e-06
1.51397e-09
-1.29983e-06
1.97022e-09
-1.30054e-06
2.30843e-09
-1.30176e-06
2.55084e-09
-1.30292e-06
2.70454e-09
-1.30303e-06
2.71725e-09
-1.30014e-06
2.69356e-09
-1.28994e-06
2.70081e-09
-1.2624e-06
2.7211e-09
-1.19176e-06
-9.71639e-07
4.57927e-11
-9.86153e-07
-3.57728e-10
-1.21295e-06
-4.98643e-10
-1.27988e-06
-4.87137e-10
-1.30177e-06
-2.80267e-10
-1.3074e-06
2.19007e-13
-1.30717e-06
3.73825e-10
-1.30518e-06
7.46097e-10
-1.30299e-06
1.13523e-09
-1.30126e-06
1.51675e-09
-1.30031e-06
1.92233e-09
-1.30022e-06
2.24742e-09
-1.30091e-06
2.57753e-09
-1.30207e-06
2.78993e-09
-1.30316e-06
2.91284e-09
-1.30321e-06
3.01873e-09
-1.30028e-06
3.12647e-09
-1.2901e-06
3.12305e-09
-1.26251e-06
2.57713e-09
-1.19137e-06
-9.6911e-07
8.5397e-10
-9.86988e-07
4.68062e-10
-1.21262e-06
1.62205e-10
-1.27958e-06
1.62106e-10
-1.30185e-06
4.03724e-10
-1.30767e-06
6.48153e-10
-1.30751e-06
9.49748e-10
-1.30552e-06
1.19176e-09
-1.30331e-06
1.4533e-09
-1.30157e-06
1.66918e-09
-1.3006e-06
1.8762e-09
-1.30049e-06
2.10386e-09
-1.30116e-06
2.31884e-09
-1.30232e-06
2.49693e-09
-1.30339e-06
2.68398e-09
-1.3034e-06
2.81726e-09
-1.30049e-06
3.02526e-09
-1.29042e-06
3.19174e-09
-1.26288e-06
2.44377e-09
-1.19085e-06
-9.66699e-07
9.32048e-10
-9.87856e-07
2.62089e-10
-1.21193e-06
6.06163e-11
-1.27932e-06
3.03059e-10
-1.30211e-06
7.65616e-10
-1.30809e-06
1.11888e-09
-1.30788e-06
1.40994e-09
-1.30579e-06
1.56957e-09
-1.3035e-06
1.70399e-09
-1.30169e-06
1.74694e-09
-1.30066e-06
1.81646e-09
-1.30052e-06
1.77862e-09
-1.30119e-06
1.82929e-09
-1.30233e-06
1.82289e-09
-1.30342e-06
1.83663e-09
-1.30346e-06
1.89982e-09
-1.30057e-06
2.00587e-09
-1.29061e-06
2.18533e-09
-1.26318e-06
1.94552e-09
-1.19073e-06
-9.64744e-07
1.61012e-09
-9.89383e-07
3.96639e-10
-1.21068e-06
1.37378e-10
-1.27899e-06
3.62147e-10
-1.3023e-06
7.61598e-10
-1.30843e-06
1.12549e-09
-1.30823e-06
1.4615e-09
-1.30608e-06
1.66728e-09
-1.3037e-06
1.79258e-09
-1.30179e-06
1.80253e-09
-1.30067e-06
1.74964e-09
-1.30046e-06
1.66644e-09
-1.30106e-06
1.55886e-09
-1.30218e-06
1.42049e-09
-1.30325e-06
1.3586e-09
-1.30329e-06
1.25016e-09
-1.30043e-06
1.20383e-09
-1.29051e-06
1.29752e-09
-1.26323e-06
1.58156e-09
-1.19093e-06
-9.63104e-07
1.01593e-09
-9.90338e-07
3.80863e-10
-1.20996e-06
1.9154e-10
-1.27873e-06
2.90649e-10
-1.30232e-06
5.06647e-10
-1.30857e-06
8.10443e-10
-1.30846e-06
1.14477e-09
-1.30635e-06
1.43651e-09
-1.30392e-06
1.65182e-09
-1.30193e-06
1.76751e-09
-1.30071e-06
1.79966e-09
-1.30039e-06
1.70021e-09
-1.30092e-06
1.58043e-09
-1.30198e-06
1.41176e-09
-1.30302e-06
1.20002e-09
-1.30302e-06
9.76079e-10
-1.30009e-06
7.44237e-10
-1.29011e-06
8.39089e-10
-1.26305e-06
1.2138e-09
-1.19098e-06
-9.61802e-07
8.81572e-11
-9.90389e-07
8.77408e-11
-1.20995e-06
1.01118e-10
-1.27869e-06
9.22501e-11
-1.30227e-06
1.91685e-10
-1.30862e-06
4.19615e-10
-1.30864e-06
7.15841e-10
-1.30659e-06
1.04394e-09
-1.30419e-06
1.34069e-09
-1.30218e-06
1.58667e-09
-1.30089e-06
1.72078e-09
-1.30049e-06
1.82379e-09
-1.30089e-06
1.75707e-09
-1.30184e-06
1.64559e-09
-1.30276e-06
1.44359e-09
-1.30263e-06
1.07887e-09
-1.29955e-06
6.28618e-10
-1.28939e-06
3.75866e-10
-1.26241e-06
5.98178e-10
-1.19078e-06
-9.61141e-07
-5.00137e-10
-9.89797e-07
-2.32601e-10
-1.21007e-06
7.555e-11
-1.27892e-06
1.8209e-10
-1.30222e-06
1.31319e-10
-1.3085e-06
1.88763e-10
-1.30855e-06
2.61372e-10
-1.3066e-06
4.86859e-10
-1.30429e-06
7.37245e-10
-1.30235e-06
1.07778e-09
-1.30111e-06
1.40779e-09
-1.3007e-06
1.67161e-09
-1.30107e-06
1.84956e-09
-1.30192e-06
1.89864e-09
-1.30269e-06
1.73043e-09
-1.30239e-06
1.39494e-09
-1.29908e-06
9.44671e-10
-1.28874e-06
5.3486e-10
-1.26175e-06
3.93867e-10
-1.19039e-06
-9.60735e-07
-8.41716e-10
-9.88623e-07
-2.73327e-10
-1.21036e-06
-2.20323e-10
-1.2787e-06
-4.27407e-10
-1.30181e-06
-6.41727e-10
-1.30808e-06
-8.08554e-10
-1.30825e-06
-8.23301e-10
-1.30645e-06
-7.21949e-10
-1.30431e-06
-4.64128e-10
-1.30253e-06
-1.35845e-10
-1.30139e-06
2.36308e-10
-1.30105e-06
6.5057e-10
-1.30141e-06
9.69525e-10
-1.30222e-06
1.20025e-09
-1.30288e-06
1.3168e-09
-1.30245e-06
1.28821e-09
-1.29905e-06
1.19785e-09
-1.28865e-06
1.024e-09
-1.26155e-06
3.31919e-10
-1.18965e-06
-9.60404e-07
-4.72986e-10
-9.8786e-07
-3.37419e-10
-1.21028e-06
-6.69824e-10
-1.27812e-06
-1.30379e-09
-1.30103e-06
-1.79312e-09
-1.3074e-06
-2.11142e-09
-1.30783e-06
-2.12793e-09
-1.30629e-06
-2.02683e-09
-1.30435e-06
-1.75466e-09
-1.30269e-06
-1.46317e-09
-1.30164e-06
-1.04779e-09
-1.30134e-06
-7.09005e-10
-1.30176e-06
-2.62678e-10
-1.30255e-06
9.91461e-11
-1.30322e-06
4.43194e-10
-1.30279e-06
7.7845e-10
-1.29934e-06
9.29125e-10
-1.28882e-06
7.45933e-10
-1.26137e-06
-7.80111e-11
-1.18881e-06
-9.60464e-07
-1.03703e-09
-9.86819e-07
-1.25337e-09
-1.2101e-06
-1.2625e-09
-1.27811e-06
-1.58172e-09
-1.30075e-06
-1.90535e-09
-1.30708e-06
-2.14678e-09
-1.30762e-06
-2.21814e-09
-1.30622e-06
-2.18213e-09
-1.30439e-06
-2.03466e-09
-1.30282e-06
-1.83275e-09
-1.30183e-06
-1.57983e-09
-1.30158e-06
-1.25389e-09
-1.302e-06
-8.84527e-10
-1.30283e-06
-5.22021e-10
-1.3035e-06
-6.65071e-11
-1.30307e-06
2.56136e-10
-1.29959e-06
4.41381e-10
-1.28889e-06
3.66777e-10
-1.26119e-06
3.149e-10
-1.18865e-06
-9.60115e-07
-8.75022e-10
-9.8595e-07
-1.21385e-09
-1.20974e-06
-1.25426e-09
-1.27809e-06
-1.26002e-09
-1.30072e-06
-1.3301e-09
-1.30703e-06
-1.424e-09
-1.30749e-06
-1.56136e-09
-1.30608e-06
-1.61702e-09
-1.30429e-06
-1.6337e-09
-1.30278e-06
-1.5611e-09
-1.30184e-06
-1.43831e-09
-1.30162e-06
-1.30804e-09
-1.30209e-06
-1.05328e-09
-1.30296e-06
-8.05452e-10
-1.30367e-06
-5.22806e-10
-1.30326e-06
-2.33905e-10
-1.29977e-06
9.35922e-11
-1.28908e-06
5.03159e-10
-1.26144e-06
1.00051e-09
-1.18898e-06
-9.59071e-07
4.53399e-10
-9.86199e-07
2.67868e-10
-1.20941e-06
-3.23317e-10
-1.27734e-06
-6.96737e-10
-1.30026e-06
-8.56169e-10
-1.30677e-06
-9.96894e-10
-1.30729e-06
-1.1357e-09
-1.30588e-06
-1.26137e-09
-1.30412e-06
-1.34399e-09
-1.30265e-06
-1.37282e-09
-1.30177e-06
-1.36764e-09
-1.3016e-06
-1.26566e-09
-1.30209e-06
-1.14982e-09
-1.30302e-06
-9.79825e-10
-1.30377e-06
-7.06579e-10
-1.30338e-06
-4.45034e-10
-1.29995e-06
-3.44712e-11
-1.28935e-06
4.67598e-10
-1.26177e-06
7.19255e-10
-1.18901e-06
-9.58298e-07
1.22372e-09
-9.87064e-07
1.07664e-09
-1.20896e-06
2.71485e-10
-1.27624e-06
-3.15431e-10
-1.29945e-06
-6.01512e-10
-1.30627e-06
-7.82009e-10
-1.30695e-06
-8.87063e-10
-1.30562e-06
-9.92184e-10
-1.30389e-06
-1.07023e-09
-1.30245e-06
-1.11764e-09
-1.30161e-06
-1.07324e-09
-1.30151e-06
-1.03628e-09
-1.30208e-06
-9.01473e-10
-1.30303e-06
-7.45341e-10
-1.30384e-06
-5.48259e-10
-1.30351e-06
-2.7614e-10
-1.30008e-06
-3.52258e-11
-1.28943e-06
-2.55565e-12
-1.26155e-06
-2.14684e-10
-1.18852e-06
-9.58462e-07
8.12184e-10
-9.87434e-07
5.13304e-10
-1.20833e-06
-4.62995e-11
-1.27532e-06
-4.91868e-10
-1.29878e-06
-6.38999e-10
-1.30585e-06
-7.3446e-10
-1.3067e-06
-7.04273e-10
-1.30547e-06
-7.12649e-10
-1.30378e-06
-6.71058e-10
-1.30236e-06
-6.63971e-10
-1.30154e-06
-6.31914e-10
-1.30146e-06
-5.29349e-10
-1.30205e-06
-4.19802e-10
-1.30305e-06
-2.52512e-10
-1.30387e-06
-4.90994e-11
-1.30352e-06
9.69384e-11
-1.30006e-06
1.58702e-10
-1.28927e-06
-1.34878e-10
-1.26101e-06
-4.94282e-10
-1.18795e-06
-9.58947e-07
1.09606e-09
-9.88213e-07
1.22832e-10
-1.20716e-06
-4.91239e-10
-1.27445e-06
-8.02434e-10
-1.29833e-06
-7.73977e-10
-1.30568e-06
-6.67419e-10
-1.3067e-06
-4.7292e-10
-1.30552e-06
-3.23188e-10
-1.30383e-06
-1.80999e-10
-1.30239e-06
-7.56195e-11
-1.30154e-06
2.95338e-11
-1.30144e-06
5.96196e-11
-1.30204e-06
1.34062e-10
-1.30303e-06
1.77345e-10
-1.30385e-06
1.72765e-10
-1.30345e-06
8.0351e-11
-1.29989e-06
-8.09267e-11
-1.28901e-06
-3.5868e-10
-1.26071e-06
-3.80213e-10
-1.18793e-06
-9.59353e-07
9.90419e-10
-9.89155e-07
-1.86622e-10
-1.20598e-06
-5.40791e-10
-1.27407e-06
-5.19109e-10
-1.29836e-06
-3.31342e-10
-1.30586e-06
-1.38126e-10
-1.30691e-06
9.62064e-11
-1.30573e-06
2.68908e-10
-1.30404e-06
4.63879e-10
-1.30256e-06
5.54009e-10
-1.30167e-06
6.12571e-10
-1.30152e-06
6.06972e-10
-1.30202e-06
5.08222e-10
-1.30295e-06
3.403e-10
-1.3037e-06
1.39735e-10
-1.30323e-06
-1.46035e-10
-1.29962e-06
-5.07068e-10
-1.28874e-06
-8.16515e-10
-1.26054e-06
-1.05202e-09
-1.18779e-06
-9.60397e-07
3.99291e-10
-9.89517e-07
-2.34502e-10
-1.20529e-06
-6.10641e-10
-1.27367e-06
-5.36297e-10
-1.2984e-06
-2.70251e-10
-1.3061e-06
2.35231e-11
-1.30719e-06
3.02197e-10
-1.30597e-06
5.19037e-10
-1.30424e-06
7.19732e-10
-1.30272e-06
8.48447e-10
-1.30179e-06
9.89867e-10
-1.30158e-06
9.91412e-10
-1.30206e-06
9.79779e-10
-1.30289e-06
8.76049e-10
-1.30357e-06
6.74591e-10
-1.30304e-06
4.87928e-10
-1.29933e-06
9.65862e-11
-1.28833e-06
-4.4237e-10
-1.25994e-06
-9.90152e-10
-1.18715e-06
-9.61334e-07
5.38605e-10
-9.89986e-07
8.95984e-11
-1.20476e-06
-6.00991e-10
-1.27293e-06
-8.72371e-10
-1.29807e-06
-8.02501e-10
-1.30613e-06
-5.27555e-10
-1.3074e-06
-2.16968e-10
-1.30624e-06
8.87697e-11
-1.30448e-06
3.45181e-10
-1.30293e-06
5.94499e-10
-1.30197e-06
7.76329e-10
-1.30174e-06
1.00765e-09
-1.30216e-06
1.11151e-09
-1.30294e-06
1.1959e-09
-1.30352e-06
1.19553e-09
-1.30284e-06
1.03873e-09
-1.29898e-06
7.04666e-10
-1.28773e-06
1.1065e-10
-1.25907e-06
-2.50836e-10
-1.18653e-06
-9.61549e-07
-1.13179e-10
-9.89775e-07
-5.5398e-10
-1.20413e-06
-1.27178e-09
-1.27212e-06
-1.55477e-09
-1.29762e-06
-1.56196e-09
-1.30602e-06
-1.33402e-09
-1.30748e-06
-1.08382e-09
-1.30641e-06
-7.58555e-10
-1.30467e-06
-4.68134e-10
-1.30314e-06
-1.32127e-10
-1.30217e-06
1.60956e-10
-1.30192e-06
4.29255e-10
-1.30234e-06
6.62578e-10
-1.30308e-06
8.34617e-10
-1.30357e-06
8.62397e-10
-1.30278e-06
8.08239e-10
-1.29877e-06
6.84201e-10
-1.28741e-06
4.25521e-10
-1.25865e-06
3.94453e-11
-1.18602e-06
-9.61527e-07
-1.12052e-09
-9.88564e-07
-1.79712e-09
-1.20331e-06
-2.34987e-09
-1.27147e-06
-2.44609e-09
-1.29741e-06
-2.31675e-09
-1.30606e-06
-2.10908e-09
-1.30761e-06
-1.86681e-09
-1.30658e-06
-1.61542e-09
-1.30488e-06
-1.36169e-09
-1.30335e-06
-1.1059e-09
-1.30239e-06
-8.67773e-10
-1.30215e-06
-5.61792e-10
-1.30257e-06
-2.99605e-10
-1.30333e-06
-1.45372e-11
-1.3038e-06
2.49798e-10
-1.30297e-06
4.98544e-10
-1.29897e-06
7.57232e-10
-1.28768e-06
8.97184e-10
-1.25887e-06
1.06137e-10
-1.18534e-06
-9.61459e-07
-1.9104e-09
-9.8666e-07
-2.47479e-09
-1.20267e-06
-2.64632e-09
-1.27128e-06
-2.64554e-09
-1.29733e-06
-2.60109e-09
-1.30606e-06
-2.47067e-09
-1.30768e-06
-2.30844e-09
-1.3067e-06
-2.14534e-09
-1.305e-06
-2.00471e-09
-1.30344e-06
-1.89e-09
-1.30247e-06
-1.73785e-09
-1.30223e-06
-1.62038e-09
-1.30269e-06
-1.3849e-09
-1.3035e-06
-1.08944e-09
-1.30408e-06
-6.70347e-10
-1.30339e-06
-5.76263e-11
-1.29953e-06
5.67375e-10
-1.28837e-06
1.06647e-09
-1.25952e-06
6.53555e-10
-1.1851e-06
-9.60822e-07
-2.42575e-09
-9.84347e-07
-2.40482e-09
-1.20271e-06
-2.08606e-09
-1.27168e-06
-2.0637e-09
-1.29735e-06
-2.22374e-09
-1.30594e-06
-2.26138e-09
-1.30763e-06
-2.26755e-09
-1.30671e-06
-2.20593e-09
-1.30504e-06
-2.17616e-09
-1.30347e-06
-2.14832e-09
-1.30247e-06
-2.14871e-09
-1.30223e-06
-2.07367e-09
-1.3027e-06
-1.94922e-09
-1.30359e-06
-1.68711e-09
-1.30428e-06
-1.23462e-09
-1.30372e-06
-6.93046e-10
-1.29999e-06
-1.40494e-10
-1.28887e-06
4.07883e-10
-1.26012e-06
1.04368e-09
-1.18578e-06
-9.59755e-07
-2.07108e-09
-9.82296e-07
-1.80885e-09
-1.20284e-06
-1.467e-09
-1.27204e-06
-1.37142e-09
-1.29732e-06
-1.5839e-09
-1.30572e-06
-1.71296e-09
-1.30739e-06
-1.88795e-09
-1.30651e-06
-1.93402e-09
-1.30489e-06
-2.00465e-09
-1.30336e-06
-1.99119e-09
-1.30239e-06
-1.97835e-09
-1.30218e-06
-1.92919e-09
-1.30269e-06
-1.83096e-09
-1.30362e-06
-1.63685e-09
-1.30438e-06
-1.40569e-09
-1.30388e-06
-1.09763e-09
-1.30015e-06
-8.4039e-10
-1.289e-06
-3.2575e-10
-1.26051e-06
9.61528e-10
-1.18693e-06
-9.58752e-07
-1.09462e-09
-9.81048e-07
-7.88561e-10
-1.20292e-06
-9.79043e-10
-1.27173e-06
-1.21158e-09
-1.2969e-06
-1.49887e-09
-1.30534e-06
-1.653e-09
-1.30708e-06
-1.80128e-09
-1.30628e-06
-1.82667e-09
-1.30475e-06
-1.81491e-09
-1.30331e-06
-1.6943e-09
-1.30242e-06
-1.58887e-09
-1.30226e-06
-1.3663e-09
-1.30278e-06
-1.22923e-09
-1.30372e-06
-1.02029e-09
-1.30444e-06
-8.74556e-10
-1.30387e-06
-8.1699e-10
-1.30001e-06
-9.03816e-10
-1.28872e-06
-8.76322e-10
-1.26033e-06
-3.11155e-11
-1.18758e-06
-9.58771e-07
-5.15415e-10
-9.80466e-07
-7.81327e-12
-1.20332e-06
-4.26987e-10
-1.27126e-06
-1.02975e-09
-1.29618e-06
-1.55797e-09
-1.30475e-06
-1.81309e-09
-1.30671e-06
-1.92712e-09
-1.30611e-06
-1.83171e-09
-1.30474e-06
-1.66689e-09
-1.30343e-06
-1.34713e-09
-1.30264e-06
-1.01552e-09
-1.30254e-06
-6.25724e-10
-1.30311e-06
-2.96753e-10
-1.30402e-06
1.47357e-11
-1.30467e-06
1.22028e-10
-1.30394e-06
3.75176e-11
-1.29982e-06
-3.54902e-10
-1.28821e-06
-1.07171e-09
-1.25955e-06
-1.26739e-09
-1.18739e-06
-9.60091e-07
-6.26781e-10
-9.80056e-07
-2.12154e-10
-1.20392e-06
-1.40316e-10
-1.2715e-06
-3.13857e-10
-1.29612e-06
-6.53729e-10
-1.30454e-06
-9.28699e-10
-1.3065e-06
-1.12935e-09
-1.306e-06
-1.15999e-09
-1.30474e-06
-1.10564e-09
-1.30356e-06
-8.99542e-10
-1.30287e-06
-6.79909e-10
-1.30286e-06
-3.14e-10
-1.30346e-06
-4.55262e-11
-1.30439e-06
2.72456e-10
-1.30498e-06
4.31738e-10
-1.30413e-06
4.3395e-10
-1.29982e-06
1.06463e-10
-1.28797e-06
-6.14191e-10
-1.25906e-06
-1.35889e-09
-1.18695e-06
-9.61547e-07
-1.09223e-09
-9.79073e-07
-5.065e-10
-1.20455e-06
2.06797e-11
-1.27212e-06
3.99199e-10
-1.29653e-06
4.51643e-10
-1.30467e-06
3.38611e-10
-1.3064e-06
8.17215e-11
-1.3058e-06
-1.24219e-10
-1.30454e-06
-3.14716e-10
-1.30342e-06
-3.80004e-10
-1.3028e-06
-4.1341e-10
-1.30287e-06
-3.48172e-10
-1.30355e-06
-2.57812e-10
-1.30454e-06
-6.57346e-11
-1.30519e-06
9.53288e-11
-1.30439e-06
2.79816e-10
-1.30005e-06
2.03152e-10
-1.28811e-06
-7.48579e-11
-1.2592e-06
-5.94122e-10
-1.1869e-06
-9.62227e-07
-8.84168e-11
-9.78798e-07
5.35553e-10
-1.20502e-06
7.5266e-10
-1.2722e-06
8.5346e-10
-1.29653e-06
8.59155e-10
-1.30458e-06
7.54292e-10
-1.30625e-06
5.99305e-10
-1.3056e-06
4.30765e-10
-1.30436e-06
2.9411e-10
-1.30327e-06
1.83932e-10
-1.30271e-06
9.00116e-11
-1.30282e-06
3.45429e-11
-1.30352e-06
-3.66944e-11
-1.30452e-06
-7.21577e-11
-1.3052e-06
-7.91874e-11
-1.30443e-06
-3.91401e-11
-1.30012e-06
-1.51022e-10
-1.28817e-06
-3.59362e-10
-1.25933e-06
-4.2237e-10
-1.18721e-06
-9.6269e-07
1.37621e-09
-9.80022e-07
1.49967e-09
-1.20512e-06
1.49954e-09
-1.27209e-06
1.29175e-09
-1.29631e-06
1.07279e-09
-1.3043e-06
8.78107e-10
-1.30604e-06
7.97085e-10
-1.30549e-06
7.87649e-10
-1.30434e-06
8.24005e-10
-1.30331e-06
8.88074e-10
-1.30278e-06
9.26998e-10
-1.30287e-06
9.34013e-10
-1.30355e-06
8.47696e-10
-1.30448e-06
7.24688e-10
-1.30507e-06
4.75923e-10
-1.3042e-06
1.86741e-10
-1.29977e-06
-4.13017e-10
-1.28759e-06
-1.28333e-09
-1.25858e-06
-1.14323e-09
-1.18752e-06
-9.63855e-07
1.73288e-09
-9.81943e-07
1.72351e-09
-1.20532e-06
1.64745e-09
-1.27219e-06
1.4703e-09
-1.29629e-06
1.30048e-09
-1.30428e-06
1.24379e-09
-1.30606e-06
1.23293e-09
-1.30559e-06
1.35682e-09
-1.30449e-06
1.46025e-09
-1.3035e-06
1.65609e-09
-1.30297e-06
1.73858e-09
-1.30305e-06
1.88567e-09
-1.30366e-06
1.8127e-09
-1.30449e-06
1.72703e-09
-1.30492e-06
1.37246e-09
-1.30383e-06
8.44478e-10
-1.29915e-06
-2.37438e-11
-1.28666e-06
-1.23662e-09
-1.25741e-06
-1.49022e-09
-1.18739e-06
-9.65395e-07
2.07488e-09
-9.84166e-07
1.92285e-09
-1.20531e-06
1.42468e-09
-1.27185e-06
1.22202e-09
-1.29618e-06
1.24222e-09
-1.30444e-06
1.43766e-09
-1.3063e-06
1.57028e-09
-1.30582e-06
1.76103e-09
-1.30469e-06
1.84931e-09
-1.30367e-06
2.00556e-09
-1.30311e-06
2.05337e-09
-1.30316e-06
2.12997e-09
-1.30372e-06
2.04787e-09
-1.30448e-06
1.95485e-09
-1.30481e-06
1.67298e-09
-1.3036e-06
1.38212e-09
-1.29884e-06
1.02697e-09
-1.28638e-06
3.98217e-10
-1.25699e-06
-7.97669e-10
-1.18647e-06
-9.66264e-07
2.45482e-09
-9.86615e-07
2.23159e-09
-1.20515e-06
1.73274e-09
-1.27136e-06
1.61564e-09
-1.29611e-06
1.74568e-09
-1.30459e-06
1.89184e-09
-1.30648e-06
1.951e-09
-1.30593e-06
1.98321e-09
-1.30473e-06
1.92616e-09
-1.30367e-06
1.8931e-09
-1.30308e-06
1.76368e-09
-1.3031e-06
1.67663e-09
-1.30364e-06
1.48708e-09
-1.30438e-06
1.3587e-09
-1.3047e-06
1.20416e-09
-1.30351e-06
1.18788e-09
-1.29885e-06
1.25264e-09
-1.28661e-06
1.22012e-09
-1.25726e-06
1.34006e-10
-1.1857e-06
-9.66174e-07
2.79721e-09
-9.89263e-07
2.4732e-09
-1.20472e-06
2.09271e-09
-1.27086e-06
2.16244e-09
-1.2961e-06
2.35247e-09
-1.30471e-06