/*--------------------------------*- C++ -*----------------------------------*\
  =========                 |
  \\      /  F ield         | OpenFOAM: The Open Source CFD Toolbox
   \\    /   O peration     | Website:  https://openfoam.org
    \\  /    A nd           | Version:  6
     \\/     M anipulation  |
\*---------------------------------------------------------------------------*/
FoamFile
{
    version     2.0;
    format      ascii;
    class       volVectorField;
    location    "6";
    object      U;
}
// * * * * * * * * * * * * * * * * * * * * * * * * * * * * * * * * * * * * * //

dimensions      [0 1 -1 0 0 0 0];

internalField   nonuniform List<vector> 
130000
(
(-0.0070631 -0.338635 0)
(-0.00752072 -0.3899 0)
(-0.00791712 -0.439002 0)
(-0.00827973 -0.484642 0)
(-0.00859272 -0.525919 0)
(-0.00887804 -0.562202 0)
(-0.00915027 -0.593176 0)
(-0.00942074 -0.618845 0)
(-0.00969433 -0.639472 0)
(-0.00997029 -0.655488 0)
(-0.0102434 -0.667406 0)
(-0.010506 -0.675751 0)
(-0.0107503 -0.681017 0)
(-0.0109694 -0.683643 0)
(-0.0111585 -0.684023 0)
(-0.0113158 -0.68251 0)
(-0.011442 -0.679446 0)
(-0.0115406 -0.675168 0)
(-0.011617 -0.670015 0)
(-0.0116768 -0.664347 0)
(-0.00905655 -0.337822 0)
(-0.00924317 -0.389155 0)
(-0.00953473 -0.438403 0)
(-0.00982861 -0.484206 0)
(-0.0100877 -0.525617 0)
(-0.0103255 -0.561985 0)
(-0.0105548 -0.592995 0)
(-0.0107857 -0.618667 0)
(-0.0110233 -0.639281 0)
(-0.0112671 -0.655287 0)
(-0.0115123 -0.667206 0)
(-0.011752 -0.675571 0)
(-0.0119788 -0.680872 0)
(-0.0121861 -0.683551 0)
(-0.0123696 -0.683989 0)
(-0.0125272 -0.682537 0)
(-0.0126589 -0.679529 0)
(-0.0127671 -0.6753 0)
(-0.0128556 -0.670188 0)
(-0.0129268 -0.664556 0)
(-0.0123474 -0.337343 0)
(-0.0122921 -0.388548 0)
(-0.0124046 -0.437725 0)
(-0.0125638 -0.483514 0)
(-0.012725 -0.524931 0)
(-0.0128888 -0.561306 0)
(-0.0130579 -0.592315 0)
(-0.0132355 -0.617982 0)
(-0.0134228 -0.638593 0)
(-0.0136182 -0.654602 0)
(-0.0138178 -0.666535 0)
(-0.0140164 -0.674925 0)
(-0.0142083 -0.680263 0)
(-0.014389 -0.682986 0)
(-0.0145544 -0.683475 0)
(-0.0147024 -0.682075 0)
(-0.0148314 -0.679118 0)
(-0.0149415 -0.674938 0)
(-0.0150338 -0.669872 0)
(-0.0151074 -0.664283 0)
(-0.0161474 -0.337425 0)
(-0.0160185 -0.388514 0)
(-0.0160167 -0.437591 0)
(-0.0160624 -0.48332 0)
(-0.01612 -0.524695 0)
(-0.0161932 -0.561032 0)
(-0.0162833 -0.592004 0)
(-0.0163912 -0.617635 0)
(-0.0165157 -0.638214 0)
(-0.0166543 -0.6542 0)
(-0.0168025 -0.66612 0)
(-0.016956 -0.674509 0)
(-0.0171093 -0.679857 0)
(-0.0172588 -0.682599 0)
(-0.0174002 -0.683112 0)
(-0.0175316 -0.681742 0)
(-0.0176506 -0.678816 0)
(-0.017756 -0.67467 0)
(-0.0178483 -0.669638 0)
(-0.017926 -0.664081 0)
(-0.0203283 -0.337725 0)
(-0.0201021 -0.388722 0)
(-0.0200175 -0.437723 0)
(-0.0199749 -0.483393 0)
(-0.0199458 -0.524719 0)
(-0.0199364 -0.561008 0)
(-0.0199492 -0.591932 0)
(-0.0199859 -0.61752 0)
(-0.0200445 -0.638059 0)
(-0.0201228 -0.654013 0)
(-0.0202162 -0.66591 0)
(-0.0203208 -0.674287 0)
(-0.0204313 -0.679631 0)
(-0.0205448 -0.682376 0)
(-0.0206569 -0.6829 0)
(-0.0207658 -0.681544 0)
(-0.0208684 -0.678637 0)
(-0.0209632 -0.674513 0)
(-0.0210498 -0.669507 0)
(-0.0211256 -0.663976 0)
(-0.0246593 -0.338092 0)
(-0.0243448 -0.389026 0)
(-0.0242037 -0.437969 0)
(-0.0240944 -0.483594 0)
(-0.023996 -0.524874 0)
(-0.023916 -0.561114 0)
(-0.0238596 -0.591987 0)
(-0.0238299 -0.617522 0)
(-0.0238256 -0.638014 0)
(-0.0238452 -0.653927 0)
(-0.0238844 -0.665792 0)
(-0.02394 -0.674144 0)
(-0.024007 -0.679473 0)
(-0.0240824 -0.68221 0)
(-0.0241619 -0.682732 0)
(-0.0242436 -0.681379 0)
(-0.024324 -0.67848 0)
(-0.0244012 -0.674367 0)
(-0.024474 -0.669378 0)
(-0.0245386 -0.663866 0)
(-0.0290352 -0.338552 0)
(-0.0286686 -0.389442 0)
(-0.0284785 -0.438336 0)
(-0.0283116 -0.483918 0)
(-0.0281527 -0.525151 0)
(-0.0280111 -0.561338 0)
(-0.0278934 -0.592154 0)
(-0.0278043 -0.617631 0)
(-0.0277426 -0.638068 0)
(-0.0277081 -0.653931 0)
(-0.0276962 -0.665755 0)
(-0.0277046 -0.674074 0)
(-0.027728 -0.679378 0)
(-0.0277643 -0.682098 0)
(-0.0278088 -0.682609 0)
(-0.0278597 -0.68125 0)
(-0.0279131 -0.678351 0)
(-0.0279664 -0.674243 0)
(-0.0280182 -0.669265 0)
(-0.028064 -0.663767 0)
(-0.0334726 -0.339118 0)
(-0.0330178 -0.389969 0)
(-0.032776 -0.438816 0)
(-0.0325565 -0.484355 0)
(-0.0323454 -0.525541 0)
(-0.0321514 -0.561673 0)
(-0.0319816 -0.592429 0)
(-0.0318415 -0.617845 0)
(-0.03173 -0.638223 0)
(-0.0316473 -0.654033 0)
(-0.0315891 -0.665811 0)
(-0.0315538 -0.674091 0)
(-0.0315363 -0.679364 0)
(-0.0315345 -0.682059 0)
(-0.0315438 -0.682552 0)
(-0.0315627 -0.681182 0)
(-0.0315867 -0.678275 0)
(-0.0316134 -0.674167 0)
(-0.0316411 -0.669195 0)
(-0.0316646 -0.663708 0)
(-0.037891 -0.339663 0)
(-0.0373508 -0.390528 0)
(-0.0370727 -0.439354 0)
(-0.0368107 -0.484865 0)
(-0.036556 -0.526013 0)
(-0.0363167 -0.562096 0)
(-0.0361013 -0.592796 0)
(-0.0359158 -0.618152 0)
(-0.0357594 -0.638472 0)
(-0.0356326 -0.654226 0)
(-0.0355315 -0.665955 0)
(-0.0354547 -0.674193 0)
(-0.0353972 -0.679431 0)
(-0.0353576 -0.682097 0)
(-0.0353311 -0.682567 0)
(-0.0353165 -0.68118 0)
(-0.0353091 -0.678262 0)
(-0.0353064 -0.674149 0)
(-0.0353067 -0.669179 0)
(-0.035305 -0.663696 0)
(-0.0423666 -0.340271 0)
(-0.0417376 -0.391169 0)
(-0.0414048 -0.439979 0)
(-0.0410942 -0.485463 0)
(-0.0407929 -0.526573 0)
(-0.0405083 -0.562608 0)
(-0.0402485 -0.593251 0)
(-0.0400194 -0.618547 0)
(-0.0398203 -0.638808 0)
(-0.0396515 -0.654507 0)
(-0.0395093 -0.666185 0)
(-0.0393924 -0.674378 0)
(-0.0392963 -0.679578 0)
(-0.0392194 -0.682213 0)
(-0.0391573 -0.682656 0)
(-0.0391087 -0.681248 0)
(-0.039069 -0.678316 0)
(-0.0390358 -0.674193 0)
(-0.0390076 -0.669221 0)
(-0.0389791 -0.663739 0)
(-0.0467325 -0.340929 0)
(-0.0460478 -0.391872 0)
(-0.0456985 -0.440677 0)
(-0.0453625 -0.486141 0)
(-0.0450298 -0.527216 0)
(-0.0447093 -0.563203 0)
(-0.0444113 -0.593791 0)
(-0.0441428 -0.619028 0)
(-0.0439035 -0.639229 0)
(-0.0436946 -0.654871 0)
(-0.0435124 -0.666497 0)
(-0.043356 -0.674645 0)
(-0.0432211 -0.679804 0)
(-0.0431064 -0.682404 0)
(-0.0430079 -0.682819 0)
(-0.0429241 -0.681387 0)
(-0.0428506 -0.678436 0)
(-0.0427849 -0.674301 0)
(-0.042726 -0.669323 0)
(-0.0426686 -0.663837 0)
(-0.0511903 -0.341631 0)
(-0.0504413 -0.392633 0)
(-0.0500459 -0.441441 0)
(-0.049669 -0.48689 0)
(-0.0492956 -0.527935 0)
(-0.0489347 -0.563878 0)
(-0.0485963 -0.594412 0)
(-0.0482874 -0.61959 0)
(-0.0480079 -0.639732 0)
(-0.0477588 -0.655317 0)
(-0.0475367 -0.666891 0)
(-0.047341 -0.674992 0)
(-0.0471674 -0.68011 0)
(-0.047015 -0.682673 0)
(-0.0468797 -0.683057 0)
(-0.0467602 -0.681598 0)
(-0.0466523 -0.678627 0)
(-0.0465534 -0.674477 0)
(-0.046463 -0.669489 0)
(-0.0463757 -0.663994 0)
(-0.0556024 -0.342391 0)
(-0.0548141 -0.393462 0)
(-0.0543904 -0.442275 0)
(-0.0539818 -0.487711 0)
(-0.0535739 -0.528728 0)
(-0.0531757 -0.564629 0)
(-0.0527985 -0.595113 0)
(-0.05245 -0.620234 0)
(-0.0521303 -0.640318 0)
(-0.0518407 -0.655847 0)
(-0.0515782 -0.667368 0)
(-0.0513422 -0.675421 0)
(-0.051129 -0.680496 0)
(-0.0509376 -0.683021 0)
(-0.0507642 -0.683371 0)
(-0.0506077 -0.681885 0)
(-0.0504638 -0.67889 0)
(-0.0503302 -0.674721 0)
(-0.0502064 -0.66972 0)
(-0.0500875 -0.664213 0)
(-0.0599936 -0.343172 0)
(-0.0592356 -0.394339 0)
(-0.0587792 -0.443171 0)
(-0.0583335 -0.488606 0)
(-0.057885 -0.529601 0)
(-0.0574446 -0.565465 0)
(-0.0570249 -0.5959 0)
(-0.0566335 -0.620966 0)
(-0.0562712 -0.640992 0)
(-0.0559392 -0.656465 0)
(-0.0556348 -0.667933 0)
(-0.0553575 -0.675936 0)
(-0.0551037 -0.680966 0)
(-0.0548725 -0.683452 0)
(-0.0546604 -0.683767 0)
(-0.0544661 -0.682249 0)
(-0.0542856 -0.679229 0)
(-0.0541166 -0.675039 0)
(-0.0539589 -0.670021 0)
(-0.0538074 -0.664497 0)
(-0.0643127 -0.344022 0)
(-0.0636524 -0.395287 0)
(-0.0631769 -0.44415 0)
(-0.0626996 -0.489588 0)
(-0.0622121 -0.530566 0)
(-0.0617293 -0.566394 0)
(-0.0612658 -0.596782 0)
(-0.0608303 -0.621792 0)
(-0.060424 -0.64176 0)
(-0.0600481 -0.657174 0)
(-0.0597006 -0.668587 0)
(-0.0593805 -0.676539 0)
(-0.0590849 -0.681523 0)
(-0.0588127 -0.683966 0)
(-0.0585606 -0.684244 0)
(-0.0583273 -0.682693 0)
(-0.058109 -0.679644 0)
(-0.0579034 -0.67543 0)
(-0.0577104 -0.670392 0)
(-0.0575249 -0.664847 0)
(-0.0686685 -0.344887 0)
(-0.0681097 -0.39627 0)
(-0.0676044 -0.445189 0)
(-0.0670883 -0.490649 0)
(-0.0665565 -0.53162 0)
(-0.0660272 -0.567418 0)
(-0.0655173 -0.59776 0)
(-0.0650355 -0.622715 0)
(-0.0645837 -0.642624 0)
(-0.0641629 -0.657979 0)
(-0.0637712 -0.669336 0)
(-0.0634076 -0.677234 0)
(-0.0630695 -0.68217 0)
(-0.0627555 -0.684568 0)
(-0.0624628 -0.684806 0)
(-0.0621899 -0.683219 0)
(-0.0619333 -0.680139 0)
(-0.0616906 -0.675898 0)
(-0.0614617 -0.670837 0)
(-0.0612414 -0.66527 0)
(-0.073045 -0.345807 0)
(-0.0725973 -0.397324 0)
(-0.0720546 -0.446316 0)
(-0.0714927 -0.491805 0)
(-0.0709114 -0.532772 0)
(-0.0703319 -0.568542 0)
(-0.0697729 -0.598838 0)
(-0.0692432 -0.623738 0)
(-0.0687446 -0.643586 0)
(-0.0682779 -0.65888 0)
(-0.0678411 -0.670178 0)
(-0.0674332 -0.678022 0)
(-0.0670516 -0.682906 0)
(-0.066695 -0.685258 0)
(-0.0663607 -0.685453 0)
(-0.0660472 -0.683828 0)
(-0.0657512 -0.680714 0)
(-0.0654704 -0.676443 0)
(-0.0652045 -0.671356 0)
(-0.0649481 -0.665762 0)
(-0.0774416 -0.346773 0)
(-0.0770668 -0.39845 0)
(-0.0764851 -0.447528 0)
(-0.0758803 -0.493055 0)
(-0.075253 -0.534022 0)
(-0.0746261 -0.569765 0)
(-0.0740203 -0.600015 0)
(-0.073444 -0.624858 0)
(-0.0728997 -0.644646 0)
(-0.0723874 -0.659878 0)
(-0.0719059 -0.671115 0)
(-0.0714536 -0.678902 0)
(-0.0710284 -0.683734 0)
(-0.0706288 -0.686037 0)
(-0.0702526 -0.686187 0)
(-0.0698981 -0.684522 0)
(-0.0695623 -0.681371 0)
(-0.069243 -0.677068 0)
(-0.0689396 -0.671952 0)
(-0.0686464 -0.66633 0)
(-0.0817821 -0.347782 0)
(-0.081488 -0.399629 0)
(-0.0808812 -0.448809 0)
(-0.0802427 -0.494383 0)
(-0.0795754 -0.535358 0)
(-0.0789055 -0.571077 0)
(-0.0782557 -0.601285 0)
(-0.0776347 -0.626072 0)
(-0.0770456 -0.645798 0)
(-0.0764885 -0.660968 0)
(-0.0759622 -0.672145 0)
(-0.0754654 -0.679874 0)
(-0.0749961 -0.684652 0)
(-0.074553 -0.686905 0)
(-0.0741341 -0.687008 0)
(-0.0737378 -0.685299 0)
(-0.0733615 -0.682109 0)
(-0.0730029 -0.677771 0)
(-0.0726611 -0.672624 0)
(-0.0723304 -0.666972 0)
(-0.0861017 -0.348824 0)
(-0.0858592 -0.40084 0)
(-0.0852365 -0.450137 0)
(-0.0845729 -0.495774 0)
(-0.083873 -0.536766 0)
(-0.0831655 -0.572471 0)
(-0.0824755 -0.602641 0)
(-0.0818122 -0.627376 0)
(-0.0811799 -0.647043 0)
(-0.0805785 -0.662151 0)
(-0.0800079 -0.673268 0)
(-0.0794664 -0.680939 0)
(-0.0789529 -0.685661 0)
(-0.0784658 -0.687862 0)
(-0.0780037 -0.687917 0)
(-0.0775651 -0.686163 0)
(-0.0771476 -0.682931 0)
(-0.0767491 -0.678556 0)
(-0.0763682 -0.673375 0)
(-0.0759993 -0.667692 0)
(-0.09045 -0.349885 0)
(-0.0902352 -0.402076 0)
(-0.0895906 -0.451505 0)
(-0.0888979 -0.497219 0)
(-0.0881634 -0.538242 0)
(-0.0874172 -0.573941 0)
(-0.0866862 -0.604079 0)
(-0.0859801 -0.628767 0)
(-0.0853039 -0.648377 0)
(-0.0846577 -0.663426 0)
(-0.0840419 -0.674482 0)
(-0.0834551 -0.682095 0)
(-0.0828964 -0.686762 0)
(-0.0823645 -0.68891 0)
(-0.0818583 -0.688914 0)
(-0.0813765 -0.687112 0)
(-0.0809169 -0.683836 0)
(-0.0804776 -0.67942 0)
(-0.0800567 -0.674203 0)
(-0.0796486 -0.668489 0)
(-0.0948279 -0.350998 0)
(-0.0946214 -0.403372 0)
(-0.0939474 -0.45294 0)
(-0.0932206 -0.498738 0)
(-0.0924486 -0.539797 0)
(-0.0916617 -0.575496 0)
(-0.0908882 -0.605606 0)
(-0.090138 -0.630249 0)
(-0.0894168 -0.649805 0)
(-0.0887247 -0.664794 0)
(-0.0880627 -0.675791 0)
(-0.0874294 -0.683346 0)
(-0.0868245 -0.687956 0)
(-0.0862465 -0.69005 0)
(-0.0856952 -0.690002 0)
(-0.0851688 -0.68815 0)
(-0.0846658 -0.684828 0)
(-0.0841842 -0.680369 0)
(-0.083722 -0.675115 0)
(-0.083274 -0.669367 0)
(-0.0991992 -0.352167 0)
(-0.0989968 -0.404732 0)
(-0.0982958 -0.454447 0)
(-0.0975354 -0.500335 0)
(-0.0967255 -0.541436 0)
(-0.0958972 -0.577137 0)
(-0.0950801 -0.607223 0)
(-0.0942848 -0.631824 0)
(-0.0935174 -0.651327 0)
(-0.0927783 -0.666258 0)
(-0.0920688 -0.677196 0)
(-0.0913878 -0.684692 0)
(-0.0907353 -0.689245 0)
(-0.0901101 -0.691283 0)
(-0.0895121 -0.691181 0)
(-0.0889399 -0.689278 0)
(-0.088392 -0.685907 0)
(-0.0878669 -0.681403 0)
(-0.0873622 -0.676109 0)
(-0.0868731 -0.670326 0)
(-0.10358 -0.353397 0)
(-0.103358 -0.406156 0)
(-0.10263 -0.456023 0)
(-0.101837 -0.502008 0)
(-0.10099 -0.543156 0)
(-0.10012 -0.578867 0)
(-0.0992595 -0.608932 0)
(-0.0984184 -0.633494 0)
(-0.0976039 -0.652946 0)
(-0.0968166 -0.667821 0)
(-0.0960584 -0.6787 0)
(-0.0953282 -0.686137 0)
(-0.0946267 -0.690632 0)
(-0.0939526 -0.692614 0)
(-0.0933064 -0.692458 0)
(-0.0926867 -0.690501 0)
(-0.0920921 -0.687078 0)
(-0.0915217 -0.682527 0)
(-0.0909729 -0.67719 0)
(-0.0904418 -0.671372 0)
(-0.107965 -0.354668 0)
(-0.107705 -0.407627 0)
(-0.106952 -0.457659 0)
(-0.106128 -0.503752 0)
(-0.105244 -0.544957 0)
(-0.104333 -0.580682 0)
(-0.103428 -0.610733 0)
(-0.10254 -0.635259 0)
(-0.101677 -0.654663 0)
(-0.10084 -0.669483 0)
(-0.100032 -0.680304 0)
(-0.0992507 -0.687683 0)
(-0.0984985 -0.69212 0)
(-0.0977741 -0.694045 0)
(-0.097078 -0.693832 0)
(-0.0964092 -0.691821 0)
(-0.0957665 -0.688344 0)
(-0.0951493 -0.683742 0)
(-0.0945551 -0.678361 0)
(-0.0939806 -0.672505 0)
(-0.112375 -0.355998 0)
(-0.112067 -0.409165 0)
(-0.111281 -0.459368 0)
(-0.11042 -0.505576 0)
(-0.109496 -0.546845 0)
(-0.10854 -0.582592 0)
(-0.107587 -0.612632 0)
(-0.10665 -0.637126 0)
(-0.105736 -0.656484 0)
(-0.104848 -0.671251 0)
(-0.103987 -0.682015 0)
(-0.103153 -0.689336 0)
(-0.102348 -0.693715 0)
(-0.101571 -0.695582 0)
(-0.100823 -0.695311 0)
(-0.100103 -0.693243 0)
(-0.0994098 -0.689711 0)
(-0.0987433 -0.685056 0)
(-0.0981012 -0.679626 0)
(-0.0974815 -0.673731 0)
(-0.116787 -0.357378 0)
(-0.116422 -0.410764 0)
(-0.115605 -0.461151 0)
(-0.114708 -0.507484 0)
(-0.113741 -0.548824 0)
(-0.11274 -0.584599 0)
(-0.111738 -0.614633 0)
(-0.110749 -0.639098 0)
(-0.109783 -0.658412 0)
(-0.10884 -0.673128 0)
(-0.107925 -0.683836 0)
(-0.107036 -0.691099 0)
(-0.106176 -0.69542 0)
(-0.105344 -0.697228 0)
(-0.104542 -0.696899 0)
(-0.103768 -0.694772 0)
(-0.103022 -0.691181 0)
(-0.102304 -0.686471 0)
(-0.101612 -0.68099 0)
(-0.100945 -0.675053 0)
(-0.12124 -0.358837 0)
(-0.120802 -0.412444 0)
(-0.119942 -0.46302 0)
(-0.119001 -0.509486 0)
(-0.117987 -0.550902 0)
(-0.116935 -0.586709 0)
(-0.11588 -0.61674 0)
(-0.114837 -0.64118 0)
(-0.113815 -0.660452 0)
(-0.112816 -0.675118 0)
(-0.111843 -0.685771 0)
(-0.110897 -0.692977 0)
(-0.109979 -0.697239 0)
(-0.109089 -0.698988 0)
(-0.10823 -0.698599 0)
(-0.1074 -0.696411 0)
(-0.106598 -0.692761 0)
(-0.105826 -0.687992 0)
(-0.105082 -0.682457 0)
(-0.104365 -0.676476 0)
(-0.125674 -0.360366 0)
(-0.125158 -0.414204 0)
(-0.124261 -0.464978 0)
(-0.12328 -0.511582 0)
(-0.12222 -0.553081 0)
(-0.121118 -0.588925 0)
(-0.120009 -0.618958 0)
(-0.118911 -0.643375 0)
(-0.117831 -0.662609 0)
(-0.116773 -0.677227 0)
(-0.11574 -0.687826 0)
(-0.114734 -0.694975 0)
(-0.113756 -0.699179 0)
(-0.112807 -0.700868 0)
(-0.111887 -0.700417 0)
(-0.110999 -0.698168 0)
(-0.11014 -0.694455 0)
(-0.109311 -0.689625 0)
(-0.108511 -0.684033 0)
(-0.107743 -0.678005 0)
(-0.130141 -0.361959 0)
(-0.129533 -0.416041 0)
(-0.128592 -0.467022 0)
(-0.127563 -0.513773 0)
(-0.126453 -0.555362 0)
(-0.125296 -0.591249 0)
(-0.12413 -0.62129 0)
(-0.122973 -0.645688 0)
(-0.121832 -0.664886 0)
(-0.120712 -0.679457 0)
(-0.119617 -0.690004 0)
(-0.118547 -0.697097 0)
(-0.117506 -0.701242 0)
(-0.116494 -0.702871 0)
(-0.115512 -0.702358 0)
(-0.114562 -0.700045 0)
(-0.113642 -0.696267 0)
(-0.112753 -0.691374 0)
(-0.111895 -0.685722 0)
(-0.111071 -0.679643 0)
(-0.134586 -0.363631 0)
(-0.133898 -0.417968 0)
(-0.132916 -0.469164 0)
(-0.131842 -0.516068 0)
(-0.13068 -0.557754 0)
(-0.129467 -0.593689 0)
(-0.128242 -0.623741 0)
(-0.127022 -0.648124 0)
(-0.125818 -0.66729 0)
(-0.124633 -0.681817 0)
(-0.123472 -0.692312 0)
(-0.122336 -0.69935 0)
(-0.121228 -0.703436 0)
(-0.12015 -0.705004 0)
(-0.119103 -0.704428 0)
(-0.118087 -0.70205 0)
(-0.117103 -0.698206 0)
(-0.116151 -0.693247 0)
(-0.115232 -0.687532 0)
(-0.114349 -0.681399 0)
(-0.139079 -0.365378 0)
(-0.138294 -0.419985 0)
(-0.13726 -0.471406 0)
(-0.136132 -0.518471 0)
(-0.134912 -0.56026 0)
(-0.133637 -0.596249 0)
(-0.132348 -0.626317 0)
(-0.131063 -0.650689 0)
(-0.129791 -0.669825 0)
(-0.128537 -0.68431 0)
(-0.127306 -0.694755 0)
(-0.1261 -0.701739 0)
(-0.124922 -0.705766 0)
(-0.123774 -0.707273 0)
(-0.122657 -0.706632 0)
(-0.121573 -0.704188 0)
(-0.12052 -0.700276 0)
(-0.119502 -0.695249 0)
(-0.118518 -0.689468 0)
(-0.117573 -0.683276 0)
(-0.143578 -0.367211 0)
(-0.142696 -0.422102 0)
(-0.141609 -0.473758 0)
(-0.140426 -0.520992 0)
(-0.139145 -0.562889 0)
(-0.137806 -0.598938 0)
(-0.136449 -0.629026 0)
(-0.135094 -0.653391 0)
(-0.13375 -0.6725 0)
(-0.132424 -0.686945 0)
(-0.131119 -0.697343 0)
(-0.129839 -0.704272 0)
(-0.128586 -0.708241 0)
(-0.127364 -0.709686 0)
(-0.126173 -0.70898 0)
(-0.125016 -0.706468 0)
(-0.123892 -0.702486 0)
(-0.122803 -0.697389 0)
(-0.12175 -0.691538 0)
(-0.120738 -0.685283 0)
(-0.148103 -0.36913 0)
(-0.147118 -0.424324 0)
(-0.145974 -0.476225 0)
(-0.144731 -0.523636 0)
(-0.143385 -0.565648 0)
(-0.141976 -0.601762 0)
(-0.140547 -0.631876 0)
(-0.139117 -0.656237 0)
(-0.137697 -0.675322 0)
(-0.136293 -0.68973 0)
(-0.13491 -0.700081 0)
(-0.133551 -0.706957 0)
(-0.13222 -0.710868 0)
(-0.130919 -0.71225 0)
(-0.12965 -0.711478 0)
(-0.128416 -0.708897 0)
(-0.127216 -0.704843 0)
(-0.126051 -0.699672 0)
(-0.124925 -0.693748 0)
(-0.123844 -0.687426 0)
(-0.152627 -0.371143 0)
(-0.151547 -0.426655 0)
(-0.150347 -0.478813 0)
(-0.149043 -0.52641 0)
(-0.147629 -0.568546 0)
(-0.146148 -0.604731 0)
(-0.144642 -0.634876 0)
(-0.143133 -0.659238 0)
(-0.141632 -0.678303 0)
(-0.140145 -0.692676 0)
(-0.138678 -0.702981 0)
(-0.137236 -0.709805 0)
(-0.13582 -0.713657 0)
(-0.134436 -0.714977 0)
(-0.133084 -0.714137 0)
(-0.131768 -0.711484 0)
(-0.130487 -0.707356 0)
(-0.129243 -0.702109 0)
(-0.128039 -0.696108 0)
(-0.126883 -0.689714 0)
(-0.157202 -0.373257 0)
(-0.156012 -0.429103 0)
(-0.154747 -0.48153 0)
(-0.153373 -0.529323 0)
(-0.151885 -0.57159 0)
(-0.150325 -0.607854 0)
(-0.148737 -0.638035 0)
(-0.147144 -0.662403 0)
(-0.145555 -0.681451 0)
(-0.14398 -0.695791 0)
(-0.142424 -0.706053 0)
(-0.140892 -0.712825 0)
(-0.139388 -0.716619 0)
(-0.137914 -0.717874 0)
(-0.136475 -0.716965 0)
(-0.135071 -0.714239 0)
(-0.133704 -0.710034 0)
(-0.132376 -0.704707 0)
(-0.13109 -0.698626 0)
(-0.129854 -0.692154 0)
(-0.161792 -0.37548 0)
(-0.160494 -0.43168 0)
(-0.159161 -0.484387 0)
(-0.157716 -0.532385 0)
(-0.156149 -0.574792 0)
(-0.154506 -0.611141 0)
(-0.15283 -0.641366 0)
(-0.151146 -0.665743 0)
(-0.149466 -0.684778 0)
(-0.147797 -0.699088 0)
(-0.146146 -0.709307 0)
(-0.144519 -0.716028 0)
(-0.142919 -0.719763 0)
(-0.141351 -0.720953 0)
(-0.139817 -0.719974 0)
(-0.138321 -0.717172 0)
(-0.136863 -0.712887 0)
(-0.135445 -0.707477 0)
(-0.134071 -0.701312 0)
(-0.13275 -0.694758 0)
(-0.166411 -0.377818 0)
(-0.165002 -0.43439 0)
(-0.163596 -0.48739 0)
(-0.162074 -0.535605 0)
(-0.160424 -0.578162 0)
(-0.158691 -0.614604 0)
(-0.156922 -0.644877 0)
(-0.155143 -0.66927 0)
(-0.153363 -0.688295 0)
(-0.151595 -0.702578 0)
(-0.149843 -0.712756 0)
(-0.148114 -0.719425 0)
(-0.146413 -0.723102 0)
(-0.144744 -0.724226 0)
(-0.143111 -0.723174 0)
(-0.141517 -0.720294 0)
(-0.139961 -0.715926 0)
(-0.138448 -0.71043 0)
(-0.136981 -0.704175 0)
(-0.135571 -0.697532 0)
(-0.171036 -0.380276 0)
(-0.169522 -0.43724 0)
(-0.168043 -0.490548 0)
(-0.166443 -0.538991 0)
(-0.164706 -0.581708 0)
(-0.16288 -0.618252 0)
(-0.161012 -0.648582 0)
(-0.159131 -0.672996 0)
(-0.157247 -0.692015 0)
(-0.155372 -0.706273 0)
(-0.153512 -0.716412 0)
(-0.151676 -0.723031 0)
(-0.149866 -0.726648 0)
(-0.148091 -0.727705 0)
(-0.14635 -0.726579 0)
(-0.144651 -0.723617 0)
(-0.142992 -0.719163 0)
(-0.141377 -0.713576 0)
(-0.139812 -0.707227 0)
(-0.138305 -0.70049 0)
(-0.175715 -0.382865 0)
(-0.174084 -0.440239 0)
(-0.172523 -0.493868 0)
(-0.170835 -0.542554 0)
(-0.169003 -0.585442 0)
(-0.167076 -0.622098 0)
(-0.165103 -0.652492 0)
(-0.163112 -0.676933 0)
(-0.161116 -0.695952 0)
(-0.159128 -0.710188 0)
(-0.157153 -0.720289 0)
(-0.155202 -0.726859 0)
(-0.153277 -0.730416 0)
(-0.151387 -0.731403 0)
(-0.149534 -0.7302 0)
(-0.147723 -0.727154 0)
(-0.145954 -0.72261 0)
(-0.144232 -0.716927 0)
(-0.142561 -0.710479 0)
(-0.140953 -0.703641 0)
(-0.180419 -0.385591 0)
(-0.17867 -0.443397 0)
(-0.177025 -0.497364 0)
(-0.175244 -0.546306 0)
(-0.173311 -0.589377 0)
(-0.171277 -0.626155 0)
(-0.169191 -0.656621 0)
(-0.167085 -0.681096 0)
(-0.16497 -0.700118 0)
(-0.16286 -0.714336 0)
(-0.160763 -0.724402 0)
(-0.158689 -0.730922 0)
(-0.156642 -0.734419 0)
(-0.15463 -0.735335 0)
(-0.152655 -0.734053 0)
(-0.150725 -0.730919 0)
(-0.148839 -0.72628 0)
(-0.147002 -0.720497 0)
(-0.145219 -0.713944 0)
(-0.143502 -0.706999 0)
(-0.18516 -0.388465 0)
(-0.183293 -0.446726 0)
(-0.181557 -0.501046 0)
(-0.179677 -0.550258 0)
(-0.177636 -0.593526 0)
(-0.175487 -0.630437 0)
(-0.173281 -0.660985 0)
(-0.17105 -0.6855 0)
(-0.168807 -0.704532 0)
(-0.166569 -0.718734 0)
(-0.164341 -0.728766 0)
(-0.162136 -0.735238 0)
(-0.159957 -0.738673 0)
(-0.157815 -0.739517 0)
(-0.155712 -0.738152 0)
(-0.153655 -0.734927 0)
(-0.151644 -0.730189 0)
(-0.149685 -0.7243 0)
(-0.147783 -0.717636 0)
(-0.145949 -0.710576 0)
(-0.189919 -0.391493 0)
(-0.187943 -0.450232 0)
(-0.186114 -0.504926 0)
(-0.184131 -0.554426 0)
(-0.181976 -0.597904 0)
(-0.179705 -0.634961 0)
(-0.177371 -0.6656 0)
(-0.175007 -0.690163 0)
(-0.172628 -0.709209 0)
(-0.170251 -0.7234 0)
(-0.167884 -0.7334 0)
(-0.165538 -0.739823 0)
(-0.163219 -0.743196 0)
(-0.160938 -0.743966 0)
(-0.158696 -0.742515 0)
(-0.156503 -0.739195 0)
(-0.154359 -0.734352 0)
(-0.152269 -0.728351 0)
(-0.15024 -0.721569 0)
(-0.148282 -0.714386 0)
(-0.194746 -0.394688 0)
(-0.192653 -0.453929 0)
(-0.190718 -0.509018 0)
(-0.188619 -0.558824 0)
(-0.18634 -0.60253 0)
(-0.183936 -0.639745 0)
(-0.181463 -0.670485 0)
(-0.178956 -0.695104 0)
(-0.176431 -0.71417 0)
(-0.173906 -0.728352 0)
(-0.171388 -0.738323 0)
(-0.168893 -0.744697 0)
(-0.166424 -0.748007 0)
(-0.163994 -0.7487 0)
(-0.161605 -0.74716 0)
(-0.159267 -0.743739 0)
(-0.15698 -0.738786 0)
(-0.154751 -0.732666 0)
(-0.152587 -0.725759 0)
(-0.150497 -0.718445 0)
(-0.199606 -0.398061 0)
(-0.197401 -0.457834 0)
(-0.195355 -0.513341 0)
(-0.193134 -0.563473 0)
(-0.190721 -0.607421 0)
(-0.188175 -0.644808 0)
(-0.185554 -0.67566 0)
(-0.182895 -0.700342 0)
(-0.180213 -0.719434 0)
(-0.177529 -0.733613 0)
(-0.174851 -0.743555 0)
(-0.172195 -0.749881 0)
(-0.169566 -0.753126 0)
(-0.166976 -0.753739 0)
(-0.16443 -0.752106 0)
(-0.161937 -0.74858 0)
(-0.159497 -0.74351 0)
(-0.15712 -0.737264 0)
(-0.15481 -0.730224 0)
(-0.15258 -0.72277 0)
(-0.204518 -0.401623 0)
(-0.202197 -0.46196 0)
(-0.200032 -0.51791 0)
(-0.197679 -0.568389 0)
(-0.195123 -0.612599 0)
(-0.192425 -0.650171 0)
(-0.189644 -0.681146 0)
(-0.186821 -0.705901 0)
(-0.183972 -0.725025 0)
(-0.181118 -0.739202 0)
(-0.178268 -0.749118 0)
(-0.17544 -0.755397 0)
(-0.172639 -0.758575 0)
(-0.169879 -0.759106 0)
(-0.167165 -0.757375 0)
(-0.164506 -0.753737 0)
(-0.161904 -0.748544 0)
(-0.159368 -0.742164 0)
(-0.156903 -0.734981 0)
(-0.154523 -0.727377 0)
(-0.209453 -0.405386 0)
(-0.207026 -0.46632 0)
(-0.204737 -0.52274 0)
(-0.202247 -0.573591 0)
(-0.199539 -0.618081 0)
(-0.19668 -0.655855 0)
(-0.19373 -0.686966 0)
(-0.190732 -0.711803 0)
(-0.187703 -0.730964 0)
(-0.184667 -0.745145 0)
(-0.181634 -0.755037 0)
(-0.178622 -0.761267 0)
(-0.175637 -0.764378 0)
(-0.172695 -0.764822 0)
(-0.1698 -0.762988 0)
(-0.166964 -0.759233 0)
(-0.164188 -0.753909 0)
(-0.161482 -0.747387 0)
(-0.158852 -0.740051 0)
(-0.156312 -0.732286 0)
(-0.214461 -0.409361 0)
(-0.211916 -0.470925 0)
(-0.209491 -0.527849 0)
(-0.20685 -0.579097 0)
(-0.203977 -0.62389 0)
(-0.200943 -0.661883 0)
(-0.197811 -0.693143 0)
(-0.194625 -0.718071 0)
(-0.191405 -0.737278 0)
(-0.188174 -0.751467 0)
(-0.184945 -0.761335 0)
(-0.181735 -0.767518 0)
(-0.178554 -0.770558 0)
(-0.175417 -0.770912 0)
(-0.17233 -0.768971 0)
(-0.169304 -0.765091 0)
(-0.166342 -0.759628 0)
(-0.163455 -0.752953 0)
(-0.160649 -0.745455 0)
(-0.157937 -0.737517 0)
(-0.219517 -0.413565 0)
(-0.216855 -0.475799 0)
(-0.214285 -0.533257 0)
(-0.211482 -0.58493 0)
(-0.208434 -0.630048 0)
(-0.205213 -0.668278 0)
(-0.201886 -0.699702 0)
(-0.198499 -0.724732 0)
(-0.195073 -0.743992 0)
(-0.191633 -0.758193 0)
(-0.188194 -0.768041 0)
(-0.184773 -0.774175 0)
(-0.181382 -0.777143 0)
(-0.178035 -0.777403 0)
(-0.174741 -0.775348 0)
(-0.171512 -0.771337 0)
(-0.168352 -0.765725 0)
(-0.16527 -0.758889 0)
(-0.162275 -0.751216 0)
(-0.15938 -0.743092 0)
(-0.224634 -0.418013 0)
(-0.221852 -0.48096 0)
(-0.219127 -0.538987 0)
(-0.21615 -0.591114 0)
(-0.212913 -0.636582 0)
(-0.209491 -0.67507 0)
(-0.205955 -0.706673 0)
(-0.202352 -0.731816 0)
(-0.198705 -0.751136 0)
(-0.195041 -0.765355 0)
(-0.191376 -0.775184 0)
(-0.187729 -0.78127 0)
(-0.184112 -0.784163 0)
(-0.180542 -0.784325 0)
(-0.177027 -0.78215 0)
(-0.17358 -0.777998 0)
(-0.170207 -0.772229 0)
(-0.166917 -0.765219 0)
(-0.16372 -0.757358 0)
(-0.16063 -0.749035 0)
(-0.2298 -0.422722 0)
(-0.226902 -0.486425 0)
(-0.224013 -0.545062 0)
(-0.220852 -0.597676 0)
(-0.217413 -0.64352 0)
(-0.213776 -0.682286 0)
(-0.210015 -0.714084 0)
(-0.20618 -0.739353 0)
(-0.202296 -0.758743 0)
(-0.198392 -0.772983 0)
(-0.194485 -0.782797 0)
(-0.190595 -0.788833 0)
(-0.186736 -0.791649 0)
(-0.182925 -0.791707 0)
(-0.179172 -0.789405 0)
(-0.175493 -0.785105 0)
(-0.171891 -0.779167 0)
(-0.168378 -0.771971 0)
(-0.164965 -0.763909 0)
(-0.161665 -0.755371 0)
(-0.235056 -0.427711 0)
(-0.232029 -0.492218 0)
(-0.228959 -0.551507 0)
(-0.225597 -0.604644 0)
(-0.221938 -0.650893 0)
(-0.218068 -0.68996 0)
(-0.214066 -0.721971 0)
(-0.209981 -0.747379 0)
(-0.205843 -0.766846 0)
(-0.201681 -0.781114 0)
(-0.197513 -0.790913 0)
(-0.193362 -0.7969 0)
(-0.189243 -0.799635 0)
(-0.185175 -0.799584 0)
(-0.181168 -0.797148 0)
(-0.177238 -0.792689 0)
(-0.173391 -0.786572 0)
(-0.169641 -0.779176 0)
(-0.165996 -0.770898 0)
(-0.162473 -0.762128 0)
(-0.24038 -0.433 0)
(-0.23722 -0.498365 0)
(-0.233957 -0.558352 0)
(-0.23038 -0.61205 0)
(-0.226486 -0.658734 0)
(-0.222367 -0.698127 0)
(-0.218104 -0.730369 0)
(-0.213751 -0.755929 0)
(-0.209339 -0.775483 0)
(-0.204899 -0.789784 0)
(-0.200451 -0.799571 0)
(-0.19602 -0.805507 0)
(-0.191622 -0.808158 0)
(-0.187276 -0.807993 0)
(-0.182996 -0.805413 0)
(-0.178797 -0.800786 0)
(-0.174688 -0.794476 0)
(-0.170682 -0.786866 0)
(-0.166789 -0.778354 0)
(-0.163025 -0.769335 0)
(-0.245788 -0.438612 0)
(-0.242484 -0.504894 0)
(-0.239014 -0.565628 0)
(-0.235203 -0.619928 0)
(-0.231056 -0.66708 0)
(-0.226669 -0.706824 0)
(-0.222126 -0.739316 0)
(-0.217485 -0.765043 0)
(-0.212779 -0.784694 0)
(-0.20804 -0.799034 0)
(-0.203292 -0.808812 0)
(-0.198559 -0.814697 0)
(-0.193861 -0.817259 0)
(-0.189218 -0.816972 0)
(-0.184644 -0.814241 0)
(-0.180157 -0.809433 0)
(-0.175765 -0.802916 0)
(-0.171485 -0.795076 0)
(-0.167326 -0.786314 0)
(-0.163306 -0.777025 0)
(-0.251265 -0.44457 0)
(-0.247812 -0.51183 0)
(-0.244121 -0.573366 0)
(-0.240063 -0.62831 0)
(-0.235646 -0.675966 0)
(-0.23097 -0.716089 0)
(-0.226127 -0.748855 0)
(-0.221177 -0.774765 0)
(-0.216154 -0.794523 0)
(-0.211094 -0.808909 0)
(-0.206022 -0.818679 0)
(-0.200966 -0.824511 0)
(-0.195944 -0.826981 0)
(-0.190981 -0.826566 0)
(-0.186091 -0.823672 0)
(-0.181294 -0.818671 0)
(-0.1766 -0.811932 0)
(-0.172025 -0.803844 0)
(-0.16758 -0.794811 0)
(-0.163285 -0.785231 0)
(-0.25685 -0.450902 0)
(-0.253227 -0.519204 0)
(-0.249296 -0.581599 0)
(-0.244968 -0.637236 0)
(-0.240258 -0.685434 0)
(-0.235272 -0.725967 0)
(-0.230105 -0.759029 0)
(-0.224821 -0.785139 0)
(-0.219458 -0.805017 0)
(-0.214052 -0.819455 0)
(-0.208632 -0.829221 0)
(-0.203227 -0.834999 0)
(-0.197858 -0.837372 0)
(-0.19255 -0.836819 0)
(-0.187321 -0.833753 0)
(-0.18219 -0.828544 0)
(-0.177171 -0.821567 0)
(-0.172279 -0.813212 0)
(-0.167529 -0.803886 0)
(-0.162938 -0.793991 0)
(-0.262528 -0.457636 0)
(-0.258719 -0.527052 0)
(-0.254529 -0.590366 0)
(-0.249914 -0.646745 0)
(-0.244889 -0.695527 0)
(-0.23957 -0.736503 0)
(-0.234055 -0.769887 0)
(-0.228412 -0.796215 0)
(-0.222682 -0.816226 0)
(-0.216904 -0.830724 0)
(-0.211108 -0.840488 0)
(-0.205327 -0.846211 0)
(-0.199583 -0.848481 0)
(-0.193904 -0.847783 0)
(-0.188309 -0.844532 0)
(-0.18282 -0.839101 0)
(-0.17745 -0.831867 0)
(-0.172218 -0.823224 0)
(-0.167138 -0.813582 0)
(-0.16223 -0.803346 0)
(-0.268315 -0.464804 0)
(-0.264301 -0.535411 0)
(-0.259833 -0.599708 0)
(-0.254906 -0.656885 0)
(-0.249543 -0.706294 0)
(-0.243863 -0.747748 0)
(-0.237973 -0.781482 0)
(-0.231943 -0.808049 0)
(-0.225816 -0.828207 0)
(-0.219637 -0.842772 0)
(-0.213436 -0.852538 0)
(-0.207249 -0.858204 0)
(-0.201103 -0.860366 0)
(-0.195023 -0.859513 0)
(-0.189034 -0.856063 0)
(-0.183159 -0.850394 0)
(-0.177411 -0.842884 0)
(-0.171813 -0.833929 0)
(-0.16638 -0.823944 0)
(-0.161132 -0.813338 0)
(-0.274205 -0.472439 0)
(-0.269971 -0.544317 0)
(-0.265204 -0.609669 0)
(-0.259943 -0.667703 0)
(-0.254216 -0.717788 0)
(-0.248148 -0.759759 0)
(-0.241854 -0.793871 0)
(-0.235405 -0.8207 0)
(-0.228852 -0.841019 0)
(-0.222238 -0.855662 0)
(-0.215601 -0.865432 0)
(-0.208976 -0.87104 0)
(-0.202393 -0.873087 0)
(-0.195882 -0.872069 0)
(-0.189468 -0.868406 0)
(-0.183175 -0.862479 0)
(-0.177021 -0.85467 0)
(-0.171028 -0.845379 0)
(-0.165213 -0.835023 0)
(-0.159599 -0.824016 0)
(-0.280234 -0.48058 0)
(-0.275751 -0.553816 0)
(-0.270659 -0.6203 0)
(-0.265034 -0.679253 0)
(-0.258912 -0.730065 0)
(-0.252425 -0.772595 0)
(-0.245692 -0.807119 0)
(-0.238792 -0.834233 0)
(-0.231776 -0.85473 0)
(-0.224694 -0.869459 0)
(-0.217584 -0.879238 0)
(-0.210486 -0.884785 0)
(-0.203432 -0.886711 0)
(-0.196455 -0.885515 0)
(-0.189581 -0.881623 0)
(-0.182838 -0.875419 0)
(-0.176246 -0.867288 0)
(-0.169828 -0.857632 0)
(-0.163603 -0.846873 0)
(-0.157595 -0.83543 0)
(-0.286389 -0.489267 0)
(-0.281634 -0.563958 0)
(-0.276191 -0.631654 0)
(-0.270175 -0.691594 0)
(-0.263626 -0.74319 0)
(-0.256686 -0.786324 0)
(-0.249481 -0.821294 0)
(-0.242092 -0.84872 0)
(-0.234576 -0.869413 0)
(-0.226986 -0.884239 0)
(-0.219365 -0.894029 0)