/*--------------------------------*- C++ -*----------------------------------*\
  =========                 |
  \\      /  F ield         | OpenFOAM: The Open Source CFD Toolbox
   \\    /   O peration     | Website:  https://openfoam.org
    \\  /    A nd           | Version:  6
     \\/     M anipulation  |
\*---------------------------------------------------------------------------*/
FoamFile
{
    version     2.0;
    format      ascii;
    class       volVectorField;
    location    "6";
    object      U;
}
// * * * * * * * * * * * * * * * * * * * * * * * * * * * * * * * * * * * * * //

dimensions      [0 1 -1 0 0 0 0];

internalField   nonuniform List<vector> 
10000
(
(-0.0178647 -4.02391 0)
(-0.0250409 -4.86679 0)
(-0.0347505 -5.11205 0)
(-0.0337165 -5.19088 0)
(-0.0279512 -5.20785 0)
(-0.0210313 -5.20365 0)
(-0.0152276 -5.19382 0)
(-0.0109887 -5.18383 0)
(-0.0079576 -5.17583 0)
(-0.00566344 -5.17087 0)
(-0.00365685 -5.16941 0)
(-0.00145389 -5.17108 0)
(0.00143276 -5.17489 0)
(0.00562682 -5.1788 0)
(0.0116346 -5.17954 0)
(0.0193512 -5.17086 0)
(0.026582 -5.13792 0)
(0.0298378 -5.04379 0)
(0.0231855 -4.7828 0)
(0.0163064 -3.9116 0)
(-0.00527305 -4.00744 0)
(-0.008462 -4.85674 0)
(-0.0120897 -5.11927 0)
(-0.0136619 -5.20778 0)
(-0.0132566 -5.22757 0)
(-0.0115582 -5.22219 0)
(-0.00938769 -5.20954 0)
(-0.00723398 -5.19668 0)
(-0.00515601 -5.18648 0)
(-0.00322798 -5.18027 0)
(-0.0013279 -5.17843 0)
(0.00050584 -5.1807 0)
(0.00234204 -5.18591 0)
(0.00433024 -5.19188 0)
(0.00627802 -5.1946 0)
(0.00808863 -5.18637 0)
(0.00867065 -5.1499 0)
(0.00764997 -5.04516 0)
(0.00510944 -4.7667 0)
(0.00128221 -3.88518 0)
(-0.00712129 -3.99439 0)
(-0.00737674 -4.84619 0)
(-0.00848433 -5.11138 0)
(-0.0098177 -5.20208 0)
(-0.00966545 -5.22467 0)
(-0.00887679 -5.22167 0)
(-0.00773714 -5.21065 0)
(-0.00632866 -5.19877 0)
(-0.00469836 -5.18912 0)
(-0.00291591 -5.18317 0)
(-0.00108246 -5.18136 0)
(0.000780991 -5.18342 0)
(0.00254497 -5.18811 0)
(0.00409783 -5.19313 0)
(0.0054348 -5.19417 0)
(0.00620464 -5.1835 0)
(0.00624401 -5.14463 0)
(0.00495511 -5.03901 0)
(0.00524003 -4.76138 0)
(0.00212558 -3.88126 0)
(-0.00574975 -3.9818 0)
(-0.00367872 -4.83629 0)
(-0.00603725 -5.1044 0)
(-0.00701764 -5.19852 0)
(-0.00724865 -5.22356 0)
(-0.00704061 -5.22216 0)
(-0.0065272 -5.21227 0)
(-0.00568935 -5.2012 0)
(-0.0045352 -5.1922 0)
(-0.00307364 -5.18672 0)
(-0.00140853 -5.18527 0)
(0.00029356 -5.18737 0)
(0.00188801 -5.1918 0)
(0.00327421 -5.19617 0)
(0.00427587 -5.1963 0)
(0.00471347 -5.18454 0)
(0.00485353 -5.14486 0)
(0.00400766 -5.0384 0)
(0.00415041 -4.7588 0)
(-0.000156668 -3.87597 0)
(7.84321e-05 -3.97877 0)
(-0.00316019 -4.83456 0)
(-0.0043384 -5.10265 0)
(-0.00507393 -5.19641 0)
(-0.00571205 -5.22163 0)
(-0.00610346 -5.22124 0)
(-0.00605575 -5.21263 0)
(-0.00555714 -5.20283 0)
(-0.00467565 -5.19487 0)
(-0.00345233 -5.19008 0)
(-0.00207481 -5.1889 0)
(-0.000606684 -5.19086 0)
(0.000817368 -5.19485 0)
(0.00202709 -5.19856 0)
(0.00302259 -5.19802 0)
(0.00365075 -5.18578 0)
(0.0042644 -5.14593 0)
(0.00416829 -5.03918 0)
(0.00519261 -4.75746 0)
(-0.00497619 -3.86728 0)
(-0.00067931 -3.97634 0)
(-0.00381448 -4.83991 0)
(-0.00472854 -5.1084 0)
(-0.00431079 -5.19929 0)
(-0.00479749 -5.22268 0)
(-0.00524627 -5.22217 0)
(-0.00529983 -5.21415 0)
(-0.00497554 -5.20514 0)
(-0.00438994 -5.19789 0)
(-0.00358163 -5.19353 0)
(-0.00263194 -5.1926 0)
(-0.0016492 -5.19474 0)
(-0.000637583 -5.19878 0)
(0.000380877 -5.20251 0)
(0.001303 -5.20215 0)
(0.00200325 -5.19023 0)
(0.00253707 -5.15062 0)
(0.00297767 -5.0438 0)
(0.00277172 -4.76212 0)
(-0.000697979 -3.86618 0)
(0.00113163 -3.96765 0)
(-0.00585088 -4.84666 0)
(-0.00475101 -5.11729 0)
(-0.00420239 -5.2048 0)
(-0.00410767 -5.22614 0)
(-0.00409129 -5.22468 0)
(-0.00397153 -5.21638 0)
(-0.00370781 -5.20733 0)
(-0.00339198 -5.2001 0)
(-0.00301508 -5.19581 0)
(-0.00262061 -5.19487 0)
(-0.00217917 -5.19704 0)
(-0.00168344 -5.20117 0)
(-0.0012084 -5.20501 0)
(-0.000693595 -5.20471 0)
(-0.000179885 -5.19292 0)
(0.000163085 -5.15361 0)
(0.000988295 -5.04677 0)
(-0.000785483 -4.76389 0)
(0.00817801 -3.86456 0)
(0.00441152 -3.95795 0)
(-0.00465848 -4.84758 0)
(-0.00310758 -5.11862 0)
(-0.00415824 -5.20621 0)
(-0.00434301 -5.22797 0)
(-0.00407511 -5.22647 0)
(-0.003674 -5.21791 0)
(-0.00321298 -5.20863 0)
(-0.00283035 -5.20123 0)
(-0.00254199 -5.19685 0)
(-0.00232312 -5.1959 0)
(-0.00218391 -5.19807 0)
(-0.00207117 -5.20221 0)
(-0.0019753 -5.20617 0)
(-0.00188279 -5.20615 0)
(-0.00169772 -5.19471 0)
(-0.00147589 -5.1554 0)
(-0.000995112 -5.04797 0)
(-0.00103028 -4.76478 0)
(0.00529874 -3.86352 0)
(-0.00611378 -3.95403 0)
(0.000708079 -4.84359 0)
(-0.00250014 -5.11325 0)
(-0.00331822 -5.20246 0)
(-0.00386004 -5.22621 0)
(-0.00389709 -5.2262 0)
(-0.00358775 -5.21852 0)
(-0.00311357 -5.20963 0)
(-0.0026395 -5.20226 0)
(-0.0022424 -5.19768 0)
(-0.00199941 -5.19651 0)
(-0.00187374 -5.19853 0)
(-0.00188013 -5.20259 0)
(-0.00200962 -5.20644 0)
(-0.00213891 -5.20626 0)
(-0.00233328 -5.19474 0)
(-0.00263059 -5.15555 0)
(-0.00299548 -5.04904 0)
(-0.00120842 -4.76755 0)
(0.00230604 -3.86308 0)
(-0.009072 -3.95483 0)
(0.00198287 -4.83946 0)
(-0.00262407 -5.11277 0)
(-0.00202693 -5.20311 0)
(-0.00200892 -5.22663 0)
(-0.00211529 -5.22673 0)
(-0.00212685 -5.21933 0)
(-0.00198504 -5.21062 0)
(-0.00170172 -5.20328 0)
(-0.00135493 -5.19864 0)
(-0.0010458 -5.19717 0)
(-0.000865694 -5.19876 0)
(-0.000872713 -5.20234 0)
(-0.00100751 -5.2058 0)
(-0.00125789 -5.20516 0)
(-0.00165569 -5.19294 0)
(-0.0021965 -5.15308 0)
(-0.00309268 -5.04679 0)
(-0.00295794 -4.76681 0)
(0.00293836 -3.86398 0)
(0.00371948 -3.96109 0)
(-0.00119542 -4.83924 0)
(-0.0015291 -5.11493 0)
(-0.000623214 -5.2061 0)
(-0.000593468 -5.22869 0)
(-0.00079751 -5.22789 0)
(-0.00105891 -5.22015 0)
(-0.00116614 -5.21145 0)
(-0.00111177 -5.20424 0)
(-0.0009097 -5.19964 0)
(-0.000669815 -5.19811 0)
(-0.00041133 -5.19947 0)
(-0.000215472 -5.20266 0)
(-0.000176672 -5.2056 0)
(-0.000255368 -5.20441 0)
(-0.000606321 -5.19156 0)
(-0.00104977 -5.15109 0)
(-0.00202936 -5.04494 0)
(-0.00438512 -4.76774 0)
(0.00290043 -3.86878 0)
(0.013192 -3.95517 0)
(-0.00520495 -4.84216 0)
(-0.000856522 -5.11589 0)
(-0.000399998 -5.20635 0)
(-0.000720757 -5.22887 0)
(-0.00117775 -5.22805 0)
(-0.00161238 -5.2204 0)
(-0.00189073 -5.21179 0)
(-0.00203817 -5.20474 0)
(-0.00204794 -5.20032 0)
(-0.00193744 -5.19896 0)
(-0.00177213 -5.20044 0)
(-0.00158944 -5.20369 0)
(-0.00141545 -5.20655 0)
(-0.00132452 -5.20535 0)
(-0.00129821 -5.19286 0)
(-0.0011339 -5.15336 0)
(-0.00129004 -5.04821 0)
(-0.00356934 -4.76986 0)
(0.000171442 -3.8773 0)
(0.00742302 -3.95039 0)
(-0.00582509 -4.8466 0)
(-0.000783362 -5.117 0)
(-0.00094082 -5.20579 0)
(-0.00128596 -5.22771 0)
(-0.00191202 -5.2269 0)
(-0.00256508 -5.21952 0)
(-0.00309509 -5.21132 0)
(-0.00348043 -5.20456 0)
(-0.0037242 -5.20044 0)
(-0.00386043 -5.1994 0)
(-0.00388764 -5.20117 0)
(-0.0038152 -5.20471 0)
(-0.00366 -5.208 0)
(-0.00331257 -5.20751 0)
(-0.0027361 -5.19595 0)
(-0.00196094 -5.15711 0)
(-0.000800568 -5.05076 0)
(-0.00365863 -4.77 0)
(0.00419058 -3.88442 0)
(0.00386271 -3.94779 0)
(-0.00414652 -4.84763 0)
(-0.00113303 -5.11658 0)
(-0.00149023 -5.20431 0)
(-0.00205295 -5.22583 0)
(-0.0027173 -5.22513 0)
(-0.00334689 -5.21813 0)
(-0.00389868 -5.21033 0)
(-0.00432661 -5.20397 0)
(-0.00461295 -5.20013 0)
(-0.00475581 -5.19924 0)
(-0.00480107 -5.20119 0)
(-0.00472394 -5.205 0)
(-0.00449612 -5.20868 0)
(-0.00413217 -5.20858 0)
(-0.00362458 -5.19736 0)
(-0.00299506 -5.15859 0)
(-0.00184294 -5.05197 0)
(-0.00250581 -4.76908 0)
(0.00135611 -3.88645 0)
(-0.00171619 -3.93852 0)
(-0.00191455 -4.85391 0)
(-0.00260552 -5.11828 0)
(-0.0023502 -5.20387 0)
(-0.00271186 -5.22486 0)
(-0.00310486 -5.2242 0)
(-0.0035164 -5.21741 0)
(-0.00389069 -5.20976 0)
(-0.00421804 -5.20356 0)
(-0.00443625 -5.19994 0)
(-0.00454548 -5.19929 0)
(-0.0045091 -5.20141 0)
(-0.00434791 -5.20532 0)
(-0.00412442 -5.20906 0)
(-0.00383757 -5.20891 0)
(-0.00359952 -5.19753 0)
(-0.00332244 -5.15877 0)
(-0.00269338 -5.05277 0)
(-0.0014369 -4.7722 0)
(-6.49245e-05 -3.88408 0)
(-0.0120947 -3.93203 0)
(0.000394715 -4.85607 0)
(-0.00293568 -5.1225 0)
(-0.00177301 -5.20595 0)
(-0.00151754 -5.22553 0)
(-0.00170798 -5.22406 0)
(-0.00213207 -5.21697 0)
(-0.00254995 -5.20936 0)
(-0.00287876 -5.20329 0)
(-0.00310686 -5.19983 0)
(-0.00321514 -5.19941 0)
(-0.0032339 -5.20177 0)
(-0.00316164 -5.20587 0)
(-0.00298407 -5.20967 0)
(-0.00278437 -5.20938 0)
(-0.0026528 -5.19771 0)
(-0.00242906 -5.15884 0)
(-0.00213644 -5.05317 0)
(-0.00315883 -4.77171 0)
(0.00645138 -3.88792 0)
(-0.0113954 -3.92616 0)
(0.00117746 -4.85361 0)
(-0.00226917 -5.12413 0)
(-0.000982598 -5.20715 0)
(-0.000620322 -5.22588 0)
(-0.000523695 -5.22374 0)
(-0.000617907 -5.21624 0)
(-0.000806891 -5.20856 0)
(-0.00102027 -5.20269 0)
(-0.00120948 -5.1995 0)
(-0.0013872 -5.19927 0)
(-0.00151458 -5.20183 0)
(-0.00161293 -5.20621 0)
(-0.00170195 -5.21028 0)
(-0.00171108 -5.21019 0)
(-0.00173826 -5.19852 0)
(-0.00189796 -5.15962 0)
(-0.00224242 -5.05452 0)
(-0.00369844 -4.77381 0)
(0.00529878 -3.89283 0)
(0.00289271 -3.92391 0)
(-0.001241 -4.85757 0)
(-0.000359879 -5.12571 0)
(-0.000162769 -5.20736 0)
(-0.000197354 -5.22595 0)
(-2.38288e-05 -5.22387 0)
(0.000218344 -5.21634 0)
(0.000385901 -5.2086 0)
(0.000455804 -5.20261 0)
(0.000436615 -5.1993 0)
(0.000353575 -5.199 0)
(0.000164714 -5.20148 0)
(-0.000164466 -5.20577 0)
(-0.000585679 -5.2098 0)
(-0.00113158 -5.2098 0)
(-0.00157267 -5.19835 0)
(-0.00198342 -5.15976 0)
(-0.0025278 -5.05512 0)
(-0.003164 -4.77482 0)
(0.00619353 -3.89842 0)
(0.010611 -3.92279 0)
(-0.00368377 -4.85651 0)
(8.05002e-05 -5.12581 0)
(-0.000491379 -5.2077 0)
(-0.000103424 -5.22659 0)
(0.000380691 -5.22472 0)
(0.000877898 -5.21708 0)
(0.0012526 -5.20905 0)
(0.00146625 -5.20279 0)
(0.00154157 -5.19925 0)
(0.00150568 -5.19866 0)
(0.00141911 -5.20079 0)
(0.00127812 -5.20464 0)
(0.00107236 -5.20827 0)
(0.000882056 -5.20809 0)
(0.000657285 -5.19668 0)
(0.000226691 -5.15769 0)
(-0.000704318 -5.05169 0)
(-0.00235995 -4.77076 0)
(0.00464999 -3.89857 0)
(-0.00295363 -3.92325 0)
(-0.00075898 -4.85208 0)
(-0.000429446 -5.12518 0)
(-0.000493438 -5.209 0)
(0.000157253 -5.22844 0)
(0.000817743 -5.22636 0)
(0.00138309 -5.21838 0)
(0.00175871 -5.20986 0)
(0.00191008 -5.20325 0)
(0.00190626 -5.19949 0)
(0.00186312 -5.19891 0)
(0.00184446 -5.20121 0)
(0.00196928 -5.20527 0)
(0.00226751 -5.20892 0)
(0.00264287 -5.20828 0)
(0.00270191 -5.19579 0)
(0.00196081 -5.15462 0)
(0.000252732 -5.04598 0)
(-0.000975436 -4.76729 0)
(-0.00604627 -3.90432 0)
(-0.0125505 -3.92613 0)
(0.00300965 -4.85402 0)
(0.000217851 -5.12643 0)
(0.000950489 -5.21091 0)
(0.00129295 -5.23084 0)
(0.00166688 -5.22861 0)
(0.00195871 -5.21995 0)
(0.00207499 -5.21076 0)
(0.00196673 -5.20363 0)
(0.00168878 -5.1996 0)
(0.00133268 -5.19909 0)
(0.00105904 -5.20179 0)
(0.000961167 -5.20643 0)
(0.0010564 -5.21071 0)
(0.00130527 -5.21036 0)
(0.00152067 -5.19757 0)
(0.00131206 -5.15564 0)
(0.00028257 -5.04631 0)
(-0.000868136 -4.77049 0)
(-0.00418324 -3.91227 0)
(0.00149277 -3.92929 0)
(0.000759621 -4.85836 0)
(0.00152394 -5.12913 0)
(0.00192614 -5.21275 0)
(0.00203935 -5.23247 0)
(0.00217624 -5.22986 0)
(0.00218215 -5.22063 0)
(0.00201031 -5.2109 0)
(0.00163978 -5.2033 0)
(0.00110428 -5.19901 0)
(0.000522821 -5.1985 0)
(-3.26999e-05 -5.20143 0)
(-0.000471671 -5.20655 0)
(-0.000682366 -5.21151 0)
(-0.000696284 -5.21198 0)
(-0.000251681 -5.19997 0)
(0.00056514 -5.1586 0)
(0.00100228 -5.04823 0)
(-0.00230054 -4.76721 0)
(0.00916228 -3.91732 0)
(0.0130295 -3.927 0)
(-0.0028115 -4.85719 0)
(0.0023206 -5.12595 0)
(0.00197044 -5.21143 0)
(0.00219404 -5.23232 0)
(0.00230924 -5.23002 0)
(0.00210456 -5.22056 0)
(0.00167703 -5.21034 0)
(0.00111344 -5.20221 0)
(0.000480011 -5.19766 0)
(-0.000163054 -5.19714 0)
(-0.000710933 -5.20025 0)
(-0.00111291 -5.20568 0)
(-0.00132022 -5.21114 0)
(-0.00119104 -5.21223 0)
(-0.000578209 -5.20053 0)
(0.00033023 -5.15859 0)
(0.00134985 -5.04658 0)
(-0.000244949 -4.76139 0)
(0.0018276 -3.91508 0)
(0.000498219 -3.93181 0)
(0.000814052 -4.85545 0)
(0.0029629 -5.12239 0)
(0.00240074 -5.21018 0)
(0.00234355 -5.23172 0)
(0.00200467 -5.22904 0)
(0.00149714 -5.2191 0)
(0.000943295 -5.20867 0)
(0.000443339 -5.2006 0)
(5.78986e-06 -5.19619 0)
(-0.00037392 -5.19579 0)
(-0.000725043 -5.19908 0)
(-0.0010377 -5.20491 0)
(-0.00121932 -5.21085 0)
(-0.00122555 -5.21243 0)
(-0.000938012 -5.20098 0)
(-0.000270279 -5.15861 0)
(0.0012385 -5.04592 0)
(0.00281636 -4.76198 0)
(-0.00730366 -3.91123 0)
(-0.00992902 -3.93767 0)
(0.00594246 -4.85677 0)
(0.00333021 -5.12239 0)
(0.00238826 -5.20849 0)
(0.0014266 -5.22917 0)
(0.00058505 -5.22657 0)
(3.91167e-05 -5.21713 0)
(-0.000241408 -5.20722 0)
(-0.000263659 -5.1995 0)
(-0.000126153 -5.19522 0)
(4.91763e-05 -5.19487 0)
(0.000221245 -5.19818 0)
(0.000283516 -5.20399 0)
(0.000194021 -5.20993 0)
(-5.27093e-06 -5.2117 0)
(-0.000260002 -5.2009 0)
(-0.000141238 -5.1598 0)
(0.00110401 -5.04821 0)
(0.00533478 -4.7639 0)
(-0.0104674 -3.90781 0)
(-0.00897194 -3.94513 0)
(0.00564204 -4.85517 0)
(0.000129548 -5.11939 0)
(-0.000893331 -5.20501 0)
(-0.00141387 -5.22598 0)
(-0.0015037 -5.22437 0)
(-0.00134208 -5.21603 0)
(-0.000961405 -5.20705 0)
(-0.000351763 -5.19999 0)
(0.000415253 -5.19607 0)
(0.00125275 -5.19575 0)
(0.00202024 -5.19878 0)
(0.00262682 -5.20401 0)
(0.00304999 -5.20919 0)
(0.00317917 -5.21017 0)
(0.0030634 -5.19902 0)
(0.00293009 -5.15843 0)
(0.00295071 -5.04783 0)
(0.00771623 -4.76509 0)
(-0.00864587 -3.89874 0)
(-0.00669539 -3.94369 0)
(0.00292697 -4.85309 0)
(-0.0026924 -5.11893 0)
(-0.00281444 -5.20541 0)
(-0.0023883 -5.22729 0)
(-0.00168992 -5.22598 0)
(-0.000937271 -5.21781 0)
(-0.000133366 -5.20904 0)
(0.00072322 -5.20216 0)
(0.00164998 -5.19833 0)
(0.00258544 -5.19799 0)
(0.00349924 -5.20088 0)
(0.00431253 -5.20576 0)
(0.00493821 -5.21041 0)
(0.00538608 -5.21077 0)
(0.00565632 -5.1989 0)
(0.00563488 -5.15766 0)
(0.00524511 -5.04712 0)
(0.00862079 -4.76426 0)
(-0.00661979 -3.89258 0)
(0.00300387 -3.94607 0)
(0.000370031 -4.85234 0)
(-0.00170832 -5.12066 0)
(-0.00117635 -5.20776 0)
(-0.00106762 -5.22975 0)
(-0.000527811 -5.22841 0)
(0.000258942 -5.22019 0)
(0.00108314 -5.21134 0)
(0.00188064 -5.20443 0)
(0.00265732 -5.2006 0)
(0.0034428 -5.20021 0)
(0.00419338 -5.20291 0)
(0.00488764 -5.20755 0)
(0.0055028 -5.21195 0)
(0.0059072 -5.2122 0)
(0.00613622 -5.20051 0)
(0.00628973 -5.15972 0)
(0.0060712 -5.04949 0)
(0.00862192 -4.76652 0)
(-0.00522848 -3.87818 0)
(0.0102436 -3.94771 0)
(-0.00215024 -4.85324 0)
(0.000413926 -5.12089 0)
(0.000548366 -5.20851 0)
(0.000491171 -5.23091 0)
(0.000882857 -5.22992 0)
(0.00146439 -5.22189 0)
(0.00207519 -5.21303 0)
(0.00263252 -5.20607 0)
(0.00311974 -5.20221 0)
(0.00354987 -5.20187 0)
(0.00399322 -5.20466 0)
(0.0044707 -5.20933 0)
(0.00493649 -5.21368 0)
(0.00535305 -5.21387 0)
(0.005626 -5.20233 0)
(0.0058626 -5.16196 0)
(0.00581769 -5.05172 0)
(0.00611369 -4.76555 0)
(0.00416708 -3.87357 0)
(0.00120494 -3.94812 0)
(-0.00119809 -4.85164 0)
(0.00106672 -5.11917 0)
(0.000573495 -5.20901 0)
(0.00121346 -5.23246 0)
(0.00191251 -5.2315 0)
(0.00249452 -5.22313 0)
(0.00294398 -5.21399 0)
(0.00325517 -5.20689 0)
(0.00345175 -5.20289 0)
(0.00356856 -5.20244 0)
(0.0036129 -5.20523 0)
(0.00364378 -5.21002 0)
(0.00370168 -5.21458 0)
(0.0036929 -5.21496 0)
(0.00373337 -5.20371 0)
(0.00388024 -5.16404 0)
(0.00411678 -5.05434 0)
(0.00354901 -4.76534 0)
(0.00574428 -3.86693 0)
(-0.00647726 -3.95497 0)
(0.00226018 -4.84605 0)
(0.00152037 -5.11727 0)
(0.000597665 -5.20942 0)
(0.00128499 -5.23362 0)
(0.00197805 -5.2326 0)
(0.00262916 -5.22396 0)
(0.00314324 -5.21457 0)
(0.00346865 -5.20713 0)
(0.0036133 -5.20288 0)
(0.00357958 -5.20225 0)
(0.00344255 -5.20489 0)
(0.00324253 -5.20956 0)
(0.00296039 -5.2141 0)
(0.00268363 -5.21455 0)
(0.0024905 -5.20348 0)
(0.00236282 -5.16412 0)
(0.0024073 -5.05484 0)
(0.00356524 -4.76462 0)
(0.00213338 -3.85523 0)
(-0.00719813 -3.96055 0)
(0.00321065 -4.83898 0)
(0.000994206 -5.11372 0)
(0.000461662 -5.20829 0)
(0.000862783 -5.23338 0)
(0.0013638 -5.23307 0)
(0.00199721 -5.22476 0)
(0.00262263 -5.21517 0)
(0.00313838 -5.20735 0)
(0.00346878 -5.20269 0)
(0.00361013 -5.20166 0)
(0.00354002 -5.204 0)
(0.00328555 -5.20845 0)
(0.00294235 -5.21272 0)
(0.00253159 -5.21282 0)
(0.00209143 -5.20132 0)
(0.00160148 -5.16165 0)
(0.000879382 -5.05308 0)
(0.00347611 -4.76447 0)
(0.00185076 -3.84922 0)
(-0.00245227 -3.96372 0)
(0.00132614 -4.84017 0)
(9.40254e-05 -5.11518 0)
(2.18148e-05 -5.20965 0)
(0.00025125 -5.23489 0)
(0.000640107 -5.23459 0)
(0.00116744 -5.22613 0)
(0.00180636 -5.21636 0)
(0.00243447 -5.20825 0)
(0.00297848 -5.20309 0)
(0.00336029 -5.20147 0)
(0.00357952 -5.20318 0)
(0.00359406 -5.20704 0)
(0.00338965 -5.21078 0)
(0.00310306 -5.21031 0)
(0.00261299 -5.1979 0)
(0.00187861 -5.15722 0)
(0.000718102 -5.04885 0)
(0.000975199 -4.76073 0)
(-9.38624e-05 -3.84287 0)
(-0.00267051 -3.96159 0)
(-0.000502122 -4.84156 0)
(-0.000202445 -5.11686 0)
(0.0002218 -5.21048 0)
(0.000329008 -5.23538 0)
(0.000387886 -5.2352 0)
(0.000468897 -5.22693 0)
(0.000740083 -5.21723 0)
(0.00121793 -5.20906 0)
(0.00182417 -5.20378 0)
(0.00250044 -5.20195 0)
(0.00309981 -5.20328 0)
(0.00355045 -5.20663 0)
(0.00381589 -5.20971 0)
(0.00379557 -5.20846 0)
(0.00340245 -5.19511 0)
(0.00282334 -5.1534 0)
(0.00204922 -5.04503 0)
(-0.00246597 -4.76034 0)
(0.0022907 -3.8402 0)
(0.000639191 -3.95434 0)
(-0.000988881 -4.83824 0)
(-0.000997377 -5.11394 0)
(-0.000790726 -5.20717 0)
(-0.00112571 -5.23255 0)
(-0.0014469 -5.23314 0)
(-0.00162968 -5.22571 0)
(-0.00156148 -5.21684 0)
(-0.00121008 -5.20944 0)
(-0.000629434 -5.20473 0)
(9.0655e-05 -5.20325 0)
(0.000898826 -5.20467 0)
(0.00167324 -5.20788 0)
(0.0023026 -5.21062 0)
(0.00273672 -5.20903 0)
(0.0028679 -5.1956 0)
(0.00282811 -5.15443 0)
(0.00301692 -5.04672 0)
(-0.00298888 -4.76009 0)
(0.0058702 -3.84257 0)
(0.00822329 -3.95059 0)
(-0.00207149 -4.83889 0)
(-0.00137567 -5.11044 0)
(-0.00231097 -5.20291 0)
(-0.00343531 -5.22887 0)
(-0.00411429 -5.23068 0)
(-0.00430305 -5.22452 0)
(-0.00416144 -5.21675 0)
(-0.00378023 -5.21014 0)
(-0.0032272 -5.20594 0)
(-0.00251106 -5.20477 0)
(-0.00173227 -5.20641 0)
(-0.00091892 -5.20974 0)
(-5.73338e-05 -5.21258 0)
(0.000678184 -5.21106 0)
(0.00134138 -5.19763 0)
(0.00184016 -5.15612 0)
(0.00249383 -5.04723 0)
(0.000336183 -4.758 0)
(-0.00345748 -3.84432 0)
(-0.00280396 -3.94972 0)
(-0.0011636 -4.84168 0)
(-0.00248319 -5.11268 0)
(-0.00304931 -5.20338 0)
(-0.00378675 -5.22854 0)
(-0.00429051 -5.23056 0)
(-0.00448234 -5.22486 0)
(-0.00443817 -5.21751 0)
(-0.00422757 -5.21116 0)
(-0.00386643 -5.20715 0)
(-0.00339759 -5.20614 0)
(-0.00280762 -5.20786 0)
(-0.00209692 -5.21116 0)
(-0.00136131 -5.21391 0)
(-0.000561921 -5.21226 0)
(0.000233332 -5.19848 0)
(0.000774817 -5.15606 0)
(0.00147458 -5.04545 0)
(0.00327741 -4.75467 0)
(-0.0105031 -3.84274 0)
(-0.0115759 -3.9462 0)
(0.00110786 -4.84221 0)
(-0.00262354 -5.11505 0)
(-0.00249147 -5.20491 0)
(-0.00263093 -5.22959 0)
(-0.00283656 -5.2312 0)
(-0.00307736 -5.22529 0)
(-0.00324089 -5.21785 0)
(-0.00327965 -5.21153 0)
(-0.0032027 -5.20761 0)
(-0.00300036 -5.20665 0)
(-0.00272959 -5.20844 0)
(-0.00234301 -5.21186 0)
(-0.00185615 -5.21467 0)
(-0.00135418 -5.21301 0)
(-0.000797783 -5.19906 0)
(-0.000212905 -5.15617 0)
(0.000733511 -5.04545 0)
(0.00362918 -4.75629 0)
(-0.00502744 -3.83813 0)
(0.00199043 -3.94599 0)
(6.08188e-05 -4.83771 0)
(-0.000411875 -5.11187 0)
(-0.00101792 -5.2032 0)
(-0.00150995 -5.22867 0)
(-0.0018247 -5.23034 0)
(-0.0021504 -5.22444 0)
(-0.00243907 -5.21723 0)
(-0.00264598 -5.21119 0)
(-0.00274087 -5.20744 0)
(-0.00275263 -5.20657 0)
(-0.00264384 -5.20851 0)
(-0.00242517 -5.21214 0)
(-0.00216796 -5.21509 0)
(-0.00177485 -5.21351 0)
(-0.00125001 -5.19975 0)
(-0.000461388 -5.1573 0)
(0.000131115 -5.0473 0)
(0.00244885 -4.75744 0)
(-0.000907602 -3.83531 0)
(0.010818 -3.94498 0)
(-0.00114525 -4.83714 0)
(0.00113968 -5.10702 0)
(-7.09425e-05 -5.19925 0)
(-0.000905099 -5.22597 0)
(-0.00136146 -5.22837 0)
(-0.00164551 -5.22287 0)
(-0.00188548 -5.21586 0)
(-0.00209291 -5.21004 0)
(-0.00222314 -5.20666 0)
(-0.00222336 -5.20616 0)
(-0.00213798 -5.20827 0)
(-0.0019746 -5.21198 0)
(-0.00170999 -5.21513 0)
(-0.00139661 -5.21371 0)
(-0.00092215 -5.20005 0)
(-0.000225049 -5.15777 0)
(-0.000234119 -5.04716 0)
(0.00174825 -4.75479 0)
(-0.00421988 -3.83265 0)
(-0.000411982 -3.94493 0)
(0.00170374 -4.83287 0)
(0.000493366 -5.10095 0)
(-0.00065918 -5.19451 0)
(-0.00125235 -5.22277 0)
(-0.00144505 -5.22632 0)
(-0.00144121 -5.22161 0)
(-0.0013987 -5.21504 0)
(-0.00138127 -5.20943 0)
(-0.00135213 -5.20616 0)
(-0.00132621 -5.20585 0)
(-0.00121098 -5.20824 0)
(-0.00100904 -5.21208 0)
(-0.000741257 -5.21521 0)
(-0.000369678 -5.21368 0)
(8.34507e-06 -5.19967 0)
(0.000290058 -5.15637 0)
(0.000214754 -5.04336 0)
(0.000250856 -4.75071 0)
(-0.0019904 -3.83121 0)
(-0.00183654 -3.95175 0)
(0.00294616 -4.83051 0)
(-0.00034571 -5.0985 0)
(-0.00154303 -5.19308 0)
(-0.00184216 -5.22215 0)
(-0.00159738 -5.22606 0)
(-0.0011805 -5.22142 0)
(-0.000779176 -5.21487 0)
(-0.000473477 -5.20931 0)
(-0.00024275 -5.20612 0)
(-6.12284e-05 -5.20588 0)
(5.26467e-05 -5.20837 0)
(0.000130952 -5.21249 0)
(0.000247904 -5.21591 0)
(0.000340055 -5.21438 0)
(0.00030863 -5.20026 0)
(2.15899e-05 -5.15671 0)
(-0.000181516 -5.04313 0)
(-0.00219173 -4.75147 0)
(0.00435354 -3.83784 0)
(-0.00191917 -3.95745 0)
(0.00192681 -4.82808 0)
(-0.000594384 -5.09813 0)
(-0.00106276 -5.19406 0)
(-0.000982784 -5.22345 0)
(-0.000605073 -5.22747 0)
(-0.000133397 -5.22266 0)
(0.000332613 -5.21585 0)
(0.000749494 -5.20998 0)
(0.00104479 -5.20651 0)
(0.00118481 -5.20604 0)
(0.00122238 -5.20836 0)
(0.00110028 -5.21237 0)
(0.000814913 -5.21577 0)
(0.000450719 -5.21441 0)
(-1.23376e-05 -5.20061 0)
(-0.000812538 -5.15785 0)
(-0.00162983 -5.04574 0)
(-0.00239128 -4.75524 0)
(0.00462845 -3.84315 0)
(0.00179075 -3.95966 0)
(-3.62703e-05 -4.82361 0)
(-0.000879587 -5.0976 0)
(-0.00106612 -5.19543 0)
(-0.000743732 -5.22532 0)
(-0.000268411 -5.22908 0)
(0.000269702 -5.22389 0)
(0.000770139 -5.21686 0)
(0.00122232 -5.21075 0)
(0.00157977 -5.20699 0)
(0.0018615 -5.20613 0)
(0.00200838 -5.20796 0)
(0.00198249 -5.21141 0)
(0.00183629 -5.2143 0)
(0.00149679 -5.21246 0)
(0.00104853 -5.19812 0)
(0.000399273 -5.15476 0)
(-0.000791467 -5.04209 0)
(-0.00148841 -4.75087 0)
(0.00419179 -3.84274 0)
(0.010003 -3.96105 0)
(-0.00221586 -4.82163 0)
(-0.000539339 -5.09467 0)
(-0.00137527 -5.19442 0)
(-0.00157782 -5.22559 0)
(-0.00129645 -5.22994 0)
(-0.000760667 -5.22489 0)
(-0.000164995 -5.21761 0)
(0.000398038 -5.21125 0)
(0.000923721 -5.20734 0)
(0.00137743 -5.20637 0)
(0.00178993 -5.20805 0)
(0.00213101 -5.21109 0)
(0.00231812 -5.2133 0)
(0.00240256 -5.21044 0)
(0.00222366 -5.19466 0)
(0.00174612 -5.1493 0)
(0.000871613 -5.03428 0)
(-0.00158994 -4.74324 0)
(0.00417363 -3.84317 0)
(0.0090557 -3.95838 0)
(-0.00328495 -4.81708 0)
(-0.00198895 -5.08937 0)
(-0.00273092 -5.19068 0)
(-0.00301018 -5.2239 0)
(-0.00284374 -5.22964 0)
(-0.00241517 -5.22531 0)
(-0.00186815 -5.21832 0)
(-0.00126346 -5.2121 0)
(-0.000639238 -5.20818 0)
(-5.59885e-06 -5.20718 0)
(0.000577646 -5.20877 0)
(0.00111077 -5.21165 0)
(0.00157339 -5.21355 0)
(0.00182741 -5.21029 0)
(0.00181341 -5.19413 0)
(0.00160767 -5.14837 0)
(0.00117279 -5.0332 0)
(-0.00120301 -4.74337 0)
(0.00301283 -3.84433 0)
(0.00171112 -3.9552 0)
(-0.00307988 -4.81404 0)
(-0.00440698 -5.08571 0)
(-0.00484967 -5.18873 0)
(-0.00471116 -5.22319 0)
(-0.00437209 -5.22958 0)
(-0.00395732 -5.22563 0)
(-0.00348694 -5.21897 0)
(-0.0030038 -5.21304 0)
(-0.00251165 -5.20931 0)
(-0.00202665 -5.20834 0)
(-0.00146171 -5.21001 0)
(-0.000841892 -5.213 0)
(-0.000229314 -5.21484 0)
(0.000382333 -5.21151 0)
(0.000913186 -5.19548 0)
(0.00130404 -5.15027 0)
(0.00124663 -5.03546 0)
(-6.46297e-05 -4.74406 0)
(0.0046428 -3.84785 0)
(-0.00288345 -3.95243 0)
(-0.0036432 -4.81084 0)
(-0.00503107 -5.08454 0)
(-0.00534779 -5.18907 0)
(-0.00530896 -5.2241 0)
(-0.00507701 -5.23055 0)
(-0.00477009 -5.22661 0)
(-0.00444886 -5.21993 0)
(-0.00415786 -5.21383 0)
(-0.0039154 -5.21008 0)
(-0.00365708 -5.20925 0)
(-0.00337621 -5.21112 0)
(-0.00300538 -5.21439 0)
(-0.00246215 -5.21664 0)
(-0.00175956 -5.21386 0)
(-0.000762029 -5.19851 0)
(0.000410914 -5.15411 0)
(0.00107481 -5.03914 0)
(0.00118359 -4.74254 0)
(0.00741264 -3.84808 0)
(-0.0016027 -3.94499 0)
(-0.00512222 -4.81236 0)
(-0.00408758 -5.08701 0)
(-0.00412189 -5.19056 0)
(-0.00432253 -5.22519 0)
(-0.00450913 -5.23162 0)
(-0.00454391 -5.22759 0)
(-0.00447279 -5.22065 0)
(-0.00437748 -5.2143 0)
(-0.00431841 -5.21029 0)
(-0.00429637 -5.20933 0)
(-0.00423933 -5.21125 0)
(-0.0040633 -5.21479 0)
(-0.0037165 -5.21758 0)
(-0.00306275 -5.21546 0)
(-0.00211319 -5.20069 0)
(-0.000946341 -5.1564 0)
(3.01591e-05 -5.04106 0)
(0.00162564 -4.74276 0)
(0.00477966 -3.84377 0)
(-0.000853379 -3.9333 0)
(-0.00469704 -4.81259 0)
(-0.00306288 -5.08986 0)
(-0.00273282 -5.19123 0)
(-0.00280556 -5.22467 0)
(-0.00321099 -5.23098 0)
(-0.00359253 -5.22707 0)
(-0.00382374 -5.22029 0)
(-0.00394927 -5.21391 0)
(-0.00399918 -5.20985 0)
(-0.00397406 -5.20891 0)
(-0.00393064 -5.21087 0)
(-0.00382315 -5.21462 0)
(-0.00358959 -5.21768 0)
(-0.00321606 -5.21574 0)
(-0.00269305 -5.20102 0)
(-0.00204818 -5.15672 0)
(-0.000860642 -5.04237 0)
(-0.000697627 -4.74689 0)
(0.00596785 -3.83715 0)
(-0.000481136 -3.92247 0)
(-0.00139709 -4.81077 0)
(-0.00204914 -5.08717 0)
(-0.00227064 -5.18821 0)
(-0.00262688 -5.2219 0)
(-0.00304761 -5.22873 0)
(-0.00340825 -5.22533 0)
(-0.00361283 -5.21899 0)
(-0.00365367 -5.21298 0)
(-0.00352997 -5.20921 0)
(-0.00330297 -5.20843 0)
(-0.00298512 -5.21046 0)
(-0.00264832 -5.21415 0)
(-0.00234548 -5.21708 0)
(-0.00199333 -5.21494 0)
(-0.00176106 -5.19971 0)
(-0.00170381 -5.15473 0)
(-0.00132639 -5.04121 0)
(-0.00168121 -4.74811 0)
(0.000858991 -3.83144 0)
(0.00642249 -3.92329 0)
(-0.00107077 -4.80905 0)
(-0.000846 -5.08314 0)
(-0.00166605 -5.18396 0)
(-0.00275433 -5.21862 0)
(-0.00344622 -5.22654 0)
(-0.0037495 -5.22412 0)
(-0.00375236 -5.21852 0)
(-0.00350462 -5.21313 0)
(-0.00303892 -5.20978 0)
(-0.00239675 -5.20923 0)
(-0.00167463 -5.21132 0)
(-0.000951778 -5.21487 0)
(-0.00028655 -5.21735 0)
(0.000203605 -5.2144 0)
(0.000252874 -5.19797 0)
(-0.000161208 -5.15168 0)
(-0.000982678 -5.03729 0)
(-0.000937748 -4.74731 0)
(-0.00820986 -3.83297 0)
(0.0105161 -3.92302 0)
(-0.00372345 -4.81647 0)
(-0.00066147 -5.08604 0)
(-0.000513891 -5.18457 0)
(-0.00107714 -5.21857 0)
(-0.00166009 -5.22652 0)
(-0.00209195 -5.22444 0)
(-0.00230944 -5.21926 0)
(-0.00229081 -5.21435 0)
(-0.00204287 -5.21141 0)
(-0.00162125 -5.21116 0)
(-0.00103308 -5.2134 0)
(-0.000363635 -5.21689 0)
(0.000278445 -5.21912 0)
(0.000838445 -5.21568 0)
(0.000993796 -5.19857 0)
(0.000542132 -5.15154 0)
(-0.000352293 -5.03611 0)
(0.000451932 -4.74791 0)
(-0.00808426 -3.84524 0)
(-0.00210125 -3.9183 0)
(-0.00150878 -4.81829 0)
(-0.000937936 -5.08901 0)
(0.000451478 -5.18695 0)
(0.000911165 -5.21955 0)
(0.000866701 -5.22658 0)
(0.000461754 -5.22415 0)
(-3.76412e-05 -5.21899 0)
(-0.00046218 -5.21432 0)
(-0.000730391 -5.21173 0)
(-0.000832513 -5.21193 0)
(-0.00079831 -5.21463 0)
(-0.000630561 -5.21863 0)
(-0.000317698 -5.22139 0)
(6.51826e-05 -5.21842 0)
(0.000397435 -5.20146 0)
(0.000423155 -5.15418 0)
(-0.000324329 -5.03886 0)
(0.000704687 -4.75072 0)
(0.000553431 -3.85042 0)
(-0.0048923 -3.91054 0)
(0.00227753 -4.81644 0)
(0.000717617 -5.08665 0)
(0.00153752 -5.18461 0)
(0.00165701 -5.21751 0)
(0.00162923 -5.22465 0)
(0.00140532 -5.22232 0)
(0.00107519 -5.21742 0)
(0.000746846 -5.21309 0)
(0.00048137 -5.21083 0)
(0.000268332 -5.2113 0)
(0.000113566 -5.21428 0)
(-4.86601e-06 -5.21854 0)
(-0.000104214 -5.22155 0)
(-0.000192979 -5.21884 0)
(-0.000237702 -5.202 0)
(-0.000377918 -5.15475 0)
(-0.00106417 -5.03976 0)
(-0.00207586 -4.75047 0)
(0.00998191 -3.85117 0)
(-0.00064842 -3.91515 0)
(0.00336473 -4.81864 0)
(0.00307469 -5.0866 0)
(0.00269882 -5.184 0)
(0.0021591 -5.21646 0)
(0.00179564 -5.22354 0)
(0.00162089 -5.22139 0)
(0.00160695 -5.21677 0)
(0.00165447 -5.21265 0)
(0.00175367 -5.21054 0)
(0.00184709 -5.21096 0)
(0.00189021 -5.21375 0)
(0.00181959 -5.21761 0)
(0.00160543 -5.22015 0)
(0.0012201 -5.21687 0)
(0.000603136 -5.1994 0)
(-0.000353112 -5.15112 0)
(-0.00174177 -5.03508 0)
(-0.00184532 -4.74717 0)
(-0.00135606 -3.85218 0)
(-0.00301186 -3.92789 0)
(0.00332544 -4.82291 0)
(0.00391113 -5.09083 0)
(0.00327671 -5.18682 0)
(0.00263805 -5.21789 0)
(0.00237048 -5.22439 0)
(0.00235466 -5.22213 0)
(0.00255487 -5.21756 0)
(0.00283169 -5.21349 0)
(0.00315002 -5.21133 0)
(0.00343442 -5.2116 0)
(0.00366573 -5.21406 0)
(0.00375826 -5.21741 0)
(0.00362697 -5.21916 0)
(0.00328305 -5.21483 0)
(0.00242894 -5.19605 0)
(0.000875079 -5.14604 0)
(-0.00134148 -5.02933 0)
(-0.00126104 -4.74832 0)
(-0.00833715 -3.85508 0)
(-0.00433374 -3.93094 0)
(0.00405849 -4.82326 0)
(0.00396214 -5.08956 0)
(0.00283876 -5.18564 0)
(0.00240458 -5.2179 0)
(0.00256796 -5.22509 0)
(0.0029273 -5.22313 0)
(0.00329852 -5.21861 0)
(0.00360729 -5.21453 0)
(0.00387248 -5.21231 0)
(0.00408773 -5.21249 0)
(0.00422751 -5.21473 0)
(0.00425489 -5.21776 0)
(0.00412859 -5.21898 0)
(0.00385646 -5.21403 0)
(0.00332101 -5.1948 0)
(0.00247776 -5.14453 0)
(0.00113797 -5.02732 0)
(-0.00251772 -4.74819 0)
(0.0044016 -3.86229 0)
(-0.0030864 -3.94071 0)
(0.00436239 -4.8197 0)
(0.00456795 -5.08562 0)
(0.00359299 -5.18428 0)
(0.0034743 -5.21803 0)
(0.00363741 -5.22574 0)
(0.00380033 -5.22376 0)
(0.00389296 -5.21913 0)
(0.00389144 -5.21499 0)
(0.00382633 -5.21273 0)
(0.00368674 -5.21289 0)
(0.00348592 -5.21513 0)
(0.00322912 -5.21822 0)
(0.00294416 -5.21964 0)
(0.00268074 -5.21503 0)
(0.00247912 -5.19643 0)
(0.00250089 -5.14713 0)
(0.00259272 -5.02922 0)
(-0.00264763 -4.74466 0)
(0.0115418 -3.86895 0)
(0.00273779 -3.95381 0)
(0.00291418 -4.82048 0)
(0.00499315 -5.08506 0)
(0.00460513 -5.18469 0)
(0.00477436 -5.21881 0)
(0.00489116 -5.22607 0)
(0.00484172 -5.22359 0)
(0.00469418 -5.21866 0)
(0.00442963 -5.21434 0)
(0.00406467 -5.21199 0)
(0.00360603 -5.21208 0)
(0.00309023 -5.21427 0)
(0.00252869 -5.2173 0)
(0.00192467 -5.21873 0)