/*--------------------------------*- C++ -*----------------------------------*\
  =========                 |
  \\      /  F ield         | OpenFOAM: The Open Source CFD Toolbox
   \\    /   O peration     | Website:  https://openfoam.org
    \\  /    A nd           | Version:  6
     \\/     M anipulation  |
\*---------------------------------------------------------------------------*/
FoamFile
{
    version     2.0;
    format      ascii;
    class       volScalarField;
    location    "1";
    object      epsilon;
}
// * * * * * * * * * * * * * * * * * * * * * * * * * * * * * * * * * * * * * //

dimensions      [0 2 -3 0 0 0 0];

internalField   nonuniform List<scalar> 
130000
(
21.4569
18.422
16.6649
15.6846
15.1492
14.8634
14.7139
14.6375
14.5989
14.58
14.5709
14.5673
14.5666
14.5686
14.5738
14.5843
14.6039
14.6397
14.7038
14.8176
20.8025
18.0965
16.503
15.6032
15.1097
14.845
14.707
14.6359
14.6005
14.5827
14.5744
14.5706
14.5699
14.5714
14.5758
14.5847
14.6017
14.6322
14.6861
14.7785
20.9806
18.1444
16.5066
15.5959
15.1025
14.8396
14.7038
14.6339
14.5996
14.582
14.5742
14.5702
14.5696
14.5706
14.5749
14.5831
14.5996
14.6295
14.6839
14.7798
20.9937
18.1453
16.5022
15.5894
15.0959
14.8334
14.6985
14.629
14.5953
14.5779
14.5704
14.5666
14.5662
14.5672
14.5717
14.5798
14.5964
14.6261
14.6805
14.7756
20.9826
18.1375
16.4962
15.5845
15.0919
14.83
14.6958
14.6266
14.5933
14.5761
14.5689
14.565
14.5649
14.5659
14.5706
14.5787
14.5954
14.6249
14.6793
14.7738
20.984
18.1384
16.4945
15.5819
15.0895
14.8279
14.694
14.6251
14.5921
14.575
14.5681
14.5643
14.5643
14.5654
14.5702
14.5783
14.5952
14.6247
14.6791
14.7735
21.0115
18.146
16.4958
15.581
15.088
14.8264
14.6928
14.624
14.5912
14.5742
14.5674
14.5636
14.5638
14.5647
14.5697
14.5777
14.5948
14.6242
14.6788
14.773
21.0304
18.1528
16.4971
15.5805
15.0871
14.8256
14.6921
14.6235
14.5908
14.5738
14.5671
14.5632
14.5635
14.5644
14.5694
14.5775
14.5946
14.6241
14.6788
14.773
21.0225
18.1481
16.4937
15.5782
15.0856
14.8245
14.6914
14.6229
14.5904
14.5733
14.5666
14.5627
14.563
14.5638
14.5689
14.5769
14.5941
14.6235
14.6783
14.7724
21.0214
18.1454
16.4911
15.5761
15.0842
14.8236
14.6909
14.6225
14.5901
14.573
14.5663
14.5623
14.5627
14.5634
14.5686
14.5765
14.5938
14.6233
14.6782
14.7723
21.0138
18.145
16.49
15.5748
15.0832
14.8226
14.6902
14.6218
14.5895
14.5723
14.5657
14.5616
14.562
14.5626
14.5678
14.5756
14.5931
14.6224
14.6775
14.7715
21.0435
18.1546
16.4932
15.5754
15.083
14.8222
14.6897
14.6212
14.589
14.5717
14.5652
14.5609
14.5614
14.5619
14.5672
14.575
14.5925
14.6219
14.6772
14.7713
21.0421
18.1593
16.495
15.5755
15.0824
14.8212
14.6888
14.6202
14.588
14.5707
14.5642
14.5599
14.5604
14.5608
14.5661
14.5738
14.5915
14.6208
14.6763
14.7703
21.0911
18.1765
16.5005
15.5764
15.0818
14.8201
14.6876
14.6191
14.5871
14.5697
14.5633
14.559
14.5595
14.56
14.5654
14.5731
14.5908
14.6203
14.676
14.7701
21.1025
18.181
16.5004
15.5747
15.0797
14.8182
14.686
14.6176
14.5858
14.5685
14.5622
14.5579
14.5585
14.5589
14.5644
14.572
14.5899
14.6193
14.6752
14.7694
21.1054
18.1803
16.4975
15.5717
15.0772
14.8163
14.6845
14.6165
14.5848
14.5677
14.5615
14.5572
14.5578
14.5583
14.5638
14.5715
14.5894
14.619
14.6751
14.7695
21.0869
18.1707
16.4912
15.5677
15.0745
14.8144
14.6831
14.6155
14.5839
14.567
14.5608
14.5566
14.5572
14.5578
14.5633
14.5711
14.5891
14.6188
14.675
14.7695
21.0662
18.1666
16.4888
15.5661
15.0733
14.8137
14.6826
14.6152
14.5837
14.5669
14.5606
14.5565
14.5572
14.5577
14.5632
14.5712
14.5892
14.6191
14.6755
14.7702
21.1206
18.1872
16.4963
15.5686
15.074
14.8139
14.6826
14.6153
14.5838
14.5671
14.5608
14.5569
14.5574
14.5581
14.5636
14.5717
14.5898
14.6199
14.6763
14.7713
21.1342
18.1938
16.4981
15.5688
15.0737
14.8138
14.6826
14.6155
14.5841
14.5675
14.5613
14.5574
14.558
14.5588
14.5643
14.5725
14.5906
14.6209
14.6774
14.7726
21.1258
18.1902
16.4955
15.5672
15.0727
14.8134
14.6825
14.6159
14.5845
14.5683
14.562
14.5584
14.5589
14.56
14.5654
14.5739
14.592
14.6227
14.6792
14.7749
21.1105
18.1905
16.496
15.5674
15.0727
14.8135
14.6827
14.6163
14.585
14.569
14.5628
14.5594
14.5599
14.5611
14.5666
14.5752
14.5933
14.6242
14.6808
14.7767
21.1856
18.2223
16.5091
15.5729
15.0751
14.815
14.6837
14.6174
14.5861
14.5703
14.564
14.5608
14.5613
14.5628
14.5682
14.5772
14.5953
14.6265
14.6832
14.7796
21.2123
18.2372
16.5155
15.5758
15.0764
14.8159
14.6844
14.6183
14.5869
14.5714
14.565
14.562
14.5625
14.5641
14.5695
14.5786
14.5967
14.6281
14.6848
14.7815
21.2159
18.2413
16.5175
15.5771
15.0772
14.8169
14.6854
14.6195
14.5881
14.5728
14.5664
14.5636
14.5639
14.5659
14.5711
14.5806
14.5987
14.6304
14.6871
14.7844
21.2098
18.2492
16.5228
15.5803
15.0791
14.8182
14.6863
14.6205
14.589
14.5738
14.5673
14.5646
14.5649
14.5669
14.5721
14.5817
14.5998
14.6317
14.6885
14.786
21.3094
18.2948
16.5435
15.59
15.0838
14.8209
14.6881
14.6219
14.5902
14.575
14.5684
14.5658
14.5659
14.5681
14.5732
14.583
14.601
14.6333
14.6902
14.7883
21.3576
18.3237
16.5582
15.5973
15.0875
14.8229
14.6892
14.6227
14.5907
14.5754
14.5688
14.5661
14.5662
14.5684
14.5735
14.5833
14.6014
14.6338
14.6908
14.7893
21.4048
18.3508
16.5713
15.6036
15.0904
14.8244
14.6899
14.6232
14.591
14.5757
14.5689
14.5663
14.5663
14.5685
14.5736
14.5835
14.6017
14.6343
14.6917
14.7907
21.4509
18.3765
16.5832
15.6087
15.0924
14.8249
14.6899
14.6229
14.5906
14.5753
14.5684
14.5658
14.5658
14.568
14.5731
14.5831
14.6013
14.6342
14.6918
14.7914
21.4989
18.4033
16.5955
15.614
15.0944
14.8254
14.6897
14.6225
14.5901
14.5747
14.5679
14.5652
14.5652
14.5674
14.5725
14.5825
14.6009
14.634
14.692
14.7922
21.5486
18.4313
16.6084
15.6196
15.0964
14.8259
14.6896
14.622
14.5895
14.574
14.5672
14.5645
14.5645
14.5667
14.5718
14.5819
14.6004
14.6337
14.6922
14.793
21.5985
18.4597
16.6216
15.6253
15.0987
14.8266
14.6895
14.6216
14.589
14.5734
14.5665
14.5638
14.5638
14.566
14.5712
14.5813
14.6
14.6335
14.6925
14.7939
21.6479
18.4878
16.6347
15.631
15.101
14.8272
14.6895
14.6213
14.5886
14.5729
14.566
14.5633
14.5633
14.5655
14.5708
14.5809
14.5998
14.6336
14.6931
14.7952
21.6994
18.5173
16.6486
15.6372
15.1035
14.8281
14.6896
14.6211
14.5883
14.5725
14.5657
14.5629
14.5629
14.565
14.5704
14.5806
14.5997
14.6338
14.6938
14.7966
21.7553
18.5495
16.6639
15.6442
15.1066
14.8293
14.6901
14.6212
14.5882
14.5724
14.5655
14.5627
14.5628
14.5649
14.5703
14.5806
14.5999
14.6342
14.6948
14.7984
21.8137
18.5833
16.6801
15.6517
15.1099
14.8308
14.6907
14.6214
14.5882
14.5723
14.5654
14.5625
14.5627
14.5648
14.5703
14.5806
14.6002
14.6348
14.696
14.8003
21.873
18.6176
16.6967
15.6593
15.1134
14.8322
14.6913
14.6216
14.5884
14.5724
14.5655
14.5626
14.5627
14.5648
14.5705
14.5809
14.6007
14.6356
14.6974
14.8026
21.9365
18.6543
16.7144
15.6676
15.1171
14.8339
14.692
14.6219
14.5885
14.5724
14.5655
14.5626
14.5628
14.5649
14.5706
14.5812
14.6012
14.6365
14.6989
14.805
22.0055
18.6944
16.7338
15.6767
15.1214
14.8358
14.693
14.6224
14.5888
14.5726
14.5657
14.5628
14.563
14.5651
14.5709
14.5816
14.6019
14.6375
14.7007
14.8078
22.0774
18.7363
16.7543
15.6865
15.1259
14.838
14.694
14.6229
14.5891
14.5729
14.5659
14.563
14.5632
14.5654
14.5713
14.582
14.6026
14.6386
14.7025
14.8106
22.1513
18.7794
16.7755
15.6965
15.1306
14.8401
14.6951
14.6235
14.5895
14.5731
14.5662
14.5632
14.5635
14.5657
14.5717
14.5826
14.6034
14.6399
14.7046
14.8138
22.2318
18.8263
16.7985
15.7076
15.1359
14.8426
14.6963
14.6242
14.59
14.5735
14.5665
14.5635
14.5638
14.566
14.5722
14.5832
14.6043
14.6412
14.7067
14.8172
22.321
18.8784
16.8244
15.7202
15.142
14.8457
14.6979
14.6251
14.5906
14.574
14.5669
14.5639
14.5643
14.5665
14.5727
14.5839
14.6053
14.6427
14.7091
14.8208
22.4147
18.9336
16.8519
15.7336
15.1486
14.849
14.6997
14.6261
14.5913
14.5745
14.5674
14.5644
14.5647
14.567
14.5733
14.5847
14.6064
14.6443
14.7116
14.8247
22.512
18.9903
16.8801
15.7474
15.1552
14.8522
14.7014
14.6271
14.592
14.5751
14.5679
14.5649
14.5652
14.5675
14.574
14.5855
14.6076
14.6461
14.7143
14.829
22.6174
19.0512
16.9103
15.7619
15.1622
14.8556
14.7031
14.6282
14.5927
14.5757
14.5685
14.5654
14.5658
14.5681
14.5746
14.5864
14.6088
14.6479
14.7172
14.8335
22.7306
19.1165
16.9425
15.7775
15.1697
14.8593
14.7051
14.6293
14.5935
14.5763
14.5691
14.5659
14.5664
14.5688
14.5754
14.5874
14.6102
14.6499
14.7203
14.8384
22.847
19.1834
16.9755
15.7936
15.1776
14.8632
14.7072
14.6306
14.5944
14.5771
14.5698
14.5666
14.567
14.5695
14.5763
14.5884
14.6117
14.6521
14.7237
14.8437
22.9502
19.2474
17.0087
15.8103
15.1859
14.8675
14.7095
14.632
14.5955
14.5779
14.5705
14.5674
14.5678
14.5703
14.5772
14.5896
14.6133
14.6545
14.7274
14.8494
23.078
19.3289
17.0501
15.8309
15.1961
14.8727
14.7123
14.6338
14.5967
14.5789
14.5714
14.5682
14.5687
14.5713
14.5783
14.591
14.6151
14.6571
14.7314
14.8556
23.2643
19.4273
17.0989
15.8549
15.208
14.8788
14.7156
14.6358
14.5981
14.5801
14.5725
14.5692
14.5697
14.5723
14.5795
14.5924
14.617
14.6599
14.7357
14.8623
23.4267
19.5226
17.1474
15.8792
15.2202
14.8851
14.7192
14.638
14.5997
14.5814
14.5737
14.5704
14.5708
14.5736
14.5808
14.5941
14.6192
14.663
14.7404
14.8696
23.5961
19.6211
17.1974
15.9042
15.2327
14.8916
14.7228
14.6404
14.6015
14.5829
14.575
14.5717
14.5721
14.5749
14.5824
14.5959
14.6216
14.6664
14.7456
14.8775
23.7789
19.727
17.2511
15.9311
15.2462
14.8987
14.7268
14.6429
14.6034
14.5845
14.5765
14.5731
14.5736
14.5764
14.5841
14.5979
14.6243
14.6702
14.7512
14.8861
23.9767
19.8416
17.3093
15.9603
15.261
14.9064
14.7312
14.6458
14.6056
14.5864
14.5782
14.5748
14.5752
14.5782
14.586
14.6002
14.6272
14.6743
14.7573
14.8955
24.1883
19.9644
17.3718
15.9917
15.277
14.9149
14.7361
14.6491
14.608
14.5885
14.5801
14.5767
14.5771
14.5801
14.5881
14.6028
14.6305
14.6788
14.7641
14.9057
24.4143
20.0952
17.4386
16.0254
15.2941
14.9241
14.7415
14.6527
14.6108
14.5909
14.5823
14.5788
14.5793
14.5824
14.5906
14.6057
14.6342
14.6839
14.7715
14.917
24.6592
20.2369
17.5111
16.0621
15.313
14.9342
14.7475
14.6567
14.614
14.5936
14.5849
14.5813
14.5818
14.585
14.5934
14.609
14.6383
14.6895
14.7797
14.9292
24.9261
20.3916
17.5904
16.1026
15.334
14.9457
14.7544
14.6615
14.6177
14.5969
14.5879
14.5843
14.5847
14.588
14.5967
14.6127
14.6429
14.6957
14.7888
14.9428
25.2138
20.5586
17.6763
16.1464
15.3568
14.9583
14.7621
14.6669
14.6219
14.6006
14.5914
14.5876
14.5881
14.5915
14.6004
14.6169
14.6481
14.7027
14.7988
14.9576
25.5226
20.737
17.7682
16.1935
15.3814
14.9719
14.7705
14.6728
14.6267
14.6048
14.5954
14.5915
14.5919
14.5955
14.6047
14.6218
14.654
14.7105
14.8099
14.9741
25.8591
20.931
17.8682
16.2447
15.4084
14.9869
14.7798
14.6794
14.6321
14.6097
14.5999
14.5959
14.5963
14.6
14.6095
14.6272
14.6606
14.7192
14.8223
14.9922
26.2264
21.143
17.9777
16.3011
15.4382
15.0038
14.7904
14.6871
14.6384
14.6153
14.6052
14.6011
14.6015
14.6053
14.6151
14.6335
14.6682
14.729
14.8362
15.0123
26.6245
21.3732
18.0969
16.3628
15.471
15.0225
14.8023
14.6958
14.6456
14.6218
14.6114
14.6071
14.6075
14.6114
14.6216
14.6407
14.6768
14.7401
14.8516
15.0346
27.0559
21.6221
18.2262
16.4299
15.5069
15.0432
14.8157
14.7057
14.6539
14.6293
14.6186
14.6141
14.6145
14.6185
14.6291
14.649
14.6866
14.7527
14.869
15.0595
27.5283
21.8948
18.368
16.5039
15.5469
15.0664
14.831
14.7172
14.6635
14.6381
14.6269
14.6223
14.6226
14.6268
14.6378
14.6586
14.6978
14.7669
14.8885
15.0872
28.048
22.1951
18.5247
16.5861
15.5917
15.0929
14.8485
14.7306
14.6749
14.6485
14.6368
14.6319
14.6322
14.6366
14.648
14.6697
14.7108
14.7831
14.9106
15.1184
28.6166
22.5243
18.697
16.6768
15.6415
15.1226
14.8686
14.746
14.6881
14.6606
14.6484
14.6432
14.6435
14.6479
14.6598
14.6826
14.7256
14.8016
14.9356
15.1533
29.2388
22.8839
18.8858
16.7767
15.6968
15.156
14.8914
14.7638
14.7035
14.6748
14.662
14.6566
14.6567
14.6613
14.6737
14.6976
14.7428
14.8228
14.964
15.1927
29.9261
23.2809
19.0946
16.8877
15.7587
15.1938
14.9176
14.7844
14.7215
14.6915
14.678
14.6723
14.6723
14.6771
14.69
14.7151
14.7627
14.8472
14.9963
15.2371
30.6872
23.7212
19.3269
17.0119
15.8287
15.2371
14.948
14.8087
14.7428
14.7113
14.6971
14.6909
14.6908
14.6957
14.7093
14.7357
14.786
14.8754
15.0334
15.2877
31.5286
24.2089
19.5852
17.1509
15.9077
15.2867
14.9834
14.8372
14.768
14.7349
14.7198
14.7131
14.7128
14.7179
14.732
14.7599
14.8132
14.9081
15.0759
15.3451
32.461
24.7496
19.8728
17.3066
15.9973
15.3436
15.0246
14.8708
14.798
14.763
14.7469
14.7397
14.7392
14.7443
14.7591
14.7886
14.8451
14.9461
15.1251
15.411
33.5021
25.3542
20.1955
17.4828
16.0996
15.4097
15.0731
14.9108
14.8338
14.7968
14.7795
14.7716
14.7708
14.776
14.7914
14.8226
14.8827
14.9906
15.182
15.4865
34.6696
26.0339
20.56
17.6832
16.2176
15.487
15.1306
14.9588
14.8771
14.8376
14.819
14.8103
14.809
14.8142
14.8303
14.8634
14.9274
15.043
15.2484
15.5738
35.9787
26.7982
20.9719
17.9115
16.3535
15.5774
15.1989
15.0163
14.9293
14.887
14.8668
14.8571
14.8553
14.8603
14.8771
14.9122
14.9806
15.1048
15.326
15.6749
37.4512
27.659
21.4383
18.1723
16.5109
15.6837
15.2804
15.0857
14.9928
14.9473
14.9252
14.9143
14.9117
14.9166
14.934
14.9712
15.0445
15.1783
15.4175
15.7929
39.1199
28.6368
21.9709
18.4729
16.6947
15.8098
15.3784
15.1701
15.0703
15.0211
14.9969
14.9845
14.9809
14.9854
15.0034
15.0428
15.1215
15.2662
15.5257
15.9312
41.0195
29.7541
22.5833
18.8221
16.9114
15.961
15.4976
15.2737
15.166
15.1125
15.0856
15.0715
15.0666
15.0704
15.0888
15.1306
15.2152
15.3721
15.6549
16.0946
43.1879
31.0351
23.2903
19.2298
17.1683
16.1433
15.6434
15.4016
15.2848
15.2264
15.1963
15.1799
15.1733
15.1761
15.1947
15.2388
15.3298
15.5006
15.81
16.2888
45.6753
32.5103
24.111
19.7089
17.4751
16.3649
15.8234
15.5611
15.4339
15.3695
15.3357
15.3164
15.3077
15.3089
15.3273
15.3737
15.4717
15.6581
15.998
16.5216
48.5499
34.2235
25.0718
20.2771
17.8453
16.6372
16.0478
15.7619
15.6226
15.5513
15.513
15.4901
15.4784
15.4775
15.495
15.5435
15.6489
15.8528
16.2278
16.8029
51.8915
36.2266
26.2056
20.9571
18.2966
16.9754
16.3307
16.0176
15.8643
15.785
15.7411
15.7138
15.6983
15.6942
15.7101
15.76
15.8732
16.0966
16.512
17.1468
55.7962
38.583
27.5527
21.7775
18.8519
17.3997
16.6913
16.3469
16.1776
16.0891
16.0387
16.006
15.9854
15.9768
15.9898
16.0402
16.1611
16.4061
16.8681
17.5719
60.3883
41.373
29.1656
22.7766
19.5424
17.9384
17.1567
16.7768
16.5895
16.4907
16.433
16.3937
16.3667
16.352
16.3602
16.4095
16.5374
16.806
17.3215
18.1055
65.8321
44.7059
31.1151
24.006
20.4113
18.6313
17.7656
17.3461
17.1395
17.0299
16.9645
16.9178
16.883
16.8602
16.8611
16.9068
17.0403
17.3337
17.9101
18.7868
72.3311
48.7186
33.492
25.5343
21.5173
19.5338
18.5733
18.111
17.8853
17.7662
17.6941
17.6406
17.5974
17.5647
17.5556
17.5942
17.7303
18.0487
18.6938
19.6769
80.1426
53.5826
36.4099
27.4484
22.9374
20.7204
19.6557
19.1505
18.9095
18.7859
18.7121
18.6555
18.6064
18.5643
18.5436
18.5718
18.7067
19.0489
19.7698
20.8733
89.5951
59.5099
40.0052
29.8527
24.7656
22.2849
21.1105
20.5684
20.3229
20.2075
20.1451
20.098
20.0537
20.0106
19.9833
20.0026
20.1349
20.5002
21.3042
22.541
101.096
66.7436
44.4196
32.8509
27.0969
24.3257
23.0438
22.4804
22.253
22.1725
22.1505
22.1435
22.1351
22.1204
22.1124
22.1428
22.286
22.6838
23.5846
24.9677
115.114
75.5091
49.7416
36.4916
29.9786
26.8993
25.5236
24.9675
24.7965
24.798
24.8724
24.9698
25.0694
25.1604
25.2496
25.364
25.581
26.0628
27.107
28.665
132.134
85.8905
55.8701
40.6471
33.3014
29.9165
28.4735
27.9635
27.9021
28.057
28.3189
28.6366
28.9873
29.3526
29.7259
30.1187
30.5996
31.3397
32.6832
34.5198
152.517
97.5276
62.235
44.7986
36.6181
32.9703
31.4947
31.065
31.1668
31.5645
32.1332
32.8425
33.6823
34.6318
35.6626
36.7564
37.9572
39.4164
41.5016
43.9612
176.316
108.877
67.3202
47.8437
39.1489
35.4063
33.9323
33.5446
33.7493
34.3536
35.2996
36.584
38.227
40.2341
42.5372
45.0756
47.8964
51.0727
54.9444
58.9541
203.867
120.298
71.7847
50.4932
41.4233
37.5621
35.9856
35.5197
35.7171
36.4243
37.6192
39.3419
41.6778
44.7436
48.6803
53.6068
59.4978
66.1438
73.8417
81.3835
232.175
130.446
74.9143
52.3622
43.1413
39.1236
37.3197
36.6492
36.7323
37.4526
38.8163
40.9005
43.8515
47.8864
53.312
60.5298
70.0354
82.3298
97.0538
111.276
249.134
136.781
75.9786
53.777
45.0815
41.0824
39.0796
38.2044
38.1626
38.8664
40.3355
42.6671
46.0453
50.7568
57.226
66.0556
78.1384
95.0828
119.29
142.046
223.02
107.688
47.9076
30.3917
24.1591
21.2006
19.6182
18.8683
18.7693
19.265
20.3758
22.176
24.8098
28.4981
33.5669
40.4506
49.8267
64.2409
97.1271
132.536
136.623
56.8313
33.0193
24.403
20.8084
18.9374
17.8889
17.3936
17.3677
17.7972
18.7111
20.1784
22.3234
25.3562
29.6415
35.8342
45.1841
60.0765
82.142
174.357
15.3276
14.9941
14.8048
14.701
14.6456
14.6167
14.6021
14.5949
14.5917
14.5907
14.5912
14.5933
14.5977
14.6062
14.6222
14.652
14.7067
14.806
14.9841
15.2952
15.2234
14.9385
14.7701
14.6762
14.6255
14.599
14.5854
14.5788
14.5758
14.5748
14.5751
14.5768
14.5806
14.5881
14.6023
14.6288
14.6774
14.7647
14.918
15.1755
15.2328
14.9349
14.7622
14.6677
14.6172
14.5912
14.578
14.5716
14.5686
14.5676
14.5679
14.5695
14.573
14.58
14.5936
14.6194
14.6672
14.7543
14.9106
15.1798
15.2186
14.9244
14.7531
14.6594
14.6092
14.5833
14.57
14.5637
14.5606
14.5596
14.5598
14.5613
14.5648
14.5718
14.5854
14.611
14.6586
14.7454
14.9005
15.1671
15.2138
14.9213
14.7509
14.6576
14.6076
14.5818
14.5687
14.5623
14.5593
14.5583
14.5584
14.5599
14.5634
14.5704
14.5839
14.6094
14.6569
14.7432
14.8974
15.1623
15.2139
14.9209
14.7506
14.6575
14.6077
14.582
14.5689
14.5626
14.5595
14.5585
14.5586
14.5602
14.5636
14.5706
14.5841
14.6097
14.657
14.7431
14.8969
15.1609
15.2134
14.9206
14.7504
14.6576
14.6079
14.5823
14.5692
14.5629
14.5599
14.5589
14.559
14.5605
14.5639
14.5709
14.5844
14.6099
14.6573
14.7433
14.8968
15.1602
15.214
14.9209
14.7508
14.658
14.6084
14.5828
14.5698
14.5635
14.5605
14.5595
14.5596
14.5611
14.5646
14.5716
14.5851
14.6107
14.6581
14.744
14.8975
15.1607
15.2142
14.9211
14.7509
14.6582
14.6086
14.5832
14.5701
14.5639
14.5609
14.5599
14.56
14.5615
14.565
14.5719
14.5855
14.611
14.6585
14.7444
14.8979
15.1609
15.216
14.9218
14.7513
14.6585
14.6089
14.5835
14.5705
14.5642
14.5613
14.5602
14.5604
14.5618
14.5653
14.5723
14.586
14.6115
14.6591
14.7452
14.8988
15.1618
15.2161
14.9216
14.751
14.6582
14.6086
14.5832
14.5703
14.5641
14.5611
14.56
14.5602
14.5617
14.5652
14.5722
14.5859
14.6114
14.6592
14.7452
14.8991
15.1621
15.2167
14.9215
14.7505
14.6577
14.6081
14.5828
14.5698
14.5636
14.5607
14.5597
14.5599
14.5614
14.5649
14.5719
14.5857
14.6114
14.6592
14.7455
14.8995
15.1627
15.2159
14.9204
14.7493
14.6565
14.6069
14.5817
14.5688
14.5626
14.5597
14.5587
14.559
14.5604
14.564
14.571
14.5849
14.6105
14.6586
14.7449
14.8992
15.1625
15.2162
14.9198
14.7483
14.6554
14.6058
14.5806
14.5677
14.5616
14.5587
14.5577
14.558
14.5595
14.5631
14.5701
14.5841
14.6099
14.658
14.7446
14.8991
15.1627
15.2151
14.9184
14.7466
14.6538
14.6042
14.5791
14.5662
14.5602
14.5573
14.5563
14.5566
14.5581
14.5618
14.5688
14.5828
14.6086
14.6569
14.7435
14.8983
15.162
15.214
14.917
14.7453
14.6525
14.603
14.5779
14.5651
14.5591
14.5562
14.5553
14.5556
14.5571
14.5608
14.5678
14.5819
14.6078
14.6562
14.7431
14.8981
15.1619
15.2103
14.9147
14.7435
14.6511
14.6017
14.5768
14.564
14.558
14.5551
14.5542
14.5545
14.556
14.5597
14.5668
14.5809
14.6068
14.6554
14.7423
14.8975
15.1615
15.2098
14.9144
14.7431
14.6506
14.6012
14.5762
14.5634
14.5575
14.5546
14.5537
14.554
14.5555
14.5593
14.5664
14.5805
14.6066
14.6552
14.7423
14.8978
15.1619
15.2138
14.9156
14.7433
14.6505
14.601
14.576
14.5632
14.5573
14.5544
14.5535
14.5538
14.5554
14.5591
14.5663
14.5804
14.6066
14.6553
14.7427
14.8982
15.1626
15.2146
14.916
14.7437
14.6508
14.6014
14.5764
14.5636
14.5577
14.5548
14.5539
14.5542
14.5558
14.5595
14.5667
14.581
14.6072
14.656
14.7436
14.8994
15.164
15.2133
14.9158
14.7441
14.6515
14.6022
14.5773
14.5645
14.5585
14.5556
14.5548
14.555
14.5567
14.5604
14.5677
14.582
14.6084
14.6574
14.7452
14.9012
15.1662
15.2144
14.9173
14.7455
14.6527
14.6034
14.5784
14.5656
14.5597
14.5568
14.5559
14.5562
14.5579
14.5616
14.569
14.5833
14.6099
14.659
14.7471
14.9033
15.1686
15.2214
14.9208
14.7478
14.6545
14.605
14.58
14.5671
14.5612
14.5583
14.5575
14.5578
14.5595
14.5633
14.5709
14.5852
14.612
14.6612
14.7498
14.9063
15.1722
15.2244
14.9229
14.7495
14.6561
14.6065
14.5814
14.5686
14.5627
14.5598
14.559
14.5592
14.5611
14.5648
14.5725
14.5869
14.6139
14.6632
14.7521
14.9089
15.1753
15.2273
14.925
14.7513
14.6578
14.6082
14.5831
14.5703
14.5644
14.5615
14.5608
14.561
14.5629
14.5667
14.5745
14.5889
14.6163
14.6657
14.7551
14.9122
15.1794
15.229
14.9263
14.7526
14.659
14.6094
14.5843
14.5714
14.5656
14.5626
14.562
14.5622
14.5642
14.5679
14.5758
14.5903
14.6177
14.6674
14.757
14.9146
15.1825
15.2336
14.9289
14.7543
14.6603
14.6106
14.5854
14.5726
14.5667
14.5637
14.5631
14.5633
14.5654
14.5691
14.5771
14.5917
14.6194
14.6692
14.7594
14.9175
15.1864
15.2362
14.9302
14.755
14.6607
14.6109
14.5856
14.5728
14.5669
14.564
14.5634
14.5636
14.5656
14.5694
14.5775
14.5921
14.6199
14.67
14.7606
14.9192
15.189
15.239
14.9314
14.7556
14.6609
14.611
14.5857
14.5729
14.567
14.5641
14.5634
14.5637
14.5657
14.5695
14.5777
14.5924
14.6204
14.6707
14.7618
14.9211
15.1921
15.2411
14.932
14.7556
14.6605
14.6105
14.5852
14.5724
14.5664
14.5635
14.5629
14.5631
14.5652
14.569
14.5772
14.5919
14.6201
14.6707
14.7622
14.9223
15.1944
15.2434
14.9327
14.7555
14.6601
14.61
14.5845
14.5717
14.5658
14.5629
14.5622
14.5625
14.5645
14.5684
14.5766
14.5915
14.6198
14.6707
14.7627
14.9237
15.197
15.2455
14.9333
14.7553
14.6595
14.6093
14.5838
14.571
14.565
14.5621
14.5614
14.5617
14.5637
14.5676
14.5758
14.5908
14.6193
14.6706
14.7631
14.925
15.1996
15.2479
14.9341
14.7553
14.6591
14.6087
14.5831
14.5703
14.5642
14.5614
14.5606
14.5609
14.5629
14.5669
14.5751
14.5903
14.6189
14.6706
14.7636
14.9264
15.2024
15.2507
14.9351
14.7555
14.6588
14.6083
14.5826
14.5698
14.5637
14.5609
14.5601
14.5604
14.5624
14.5664
14.5747
14.59
14.6188
14.6708
14.7644
14.9283
15.2057
15.2537
14.9364
14.7558
14.6588
14.608
14.5822
14.5694
14.5633
14.5605
14.5597
14.56
14.562
14.5661
14.5743
14.5898
14.6187
14.6712
14.7653
14.9303
15.2091
15.2572
14.938
14.7565
14.659
14.6081
14.5822
14.5693
14.5632
14.5604
14.5595
14.5599
14.5619
14.566
14.5743
14.5899
14.6191
14.672
14.7668
14.9328
15.2132
15.261
14.9399
14.7574
14.6594
14.6083
14.5822
14.5694
14.5631
14.5604
14.5595
14.5599
14.5618
14.566
14.5744
14.5901
14.6195
14.6728
14.7682
14.9355
15.2175
15.2653
14.9421
14.7585
14.66
14.6087
14.5825
14.5696
14.5634
14.5606
14.5597
14.5601
14.5621
14.5663
14.5747
14.5906
14.6202
14.674
14.7701
14.9386
15.2224
15.2699
14.9445
14.7598
14.6607
14.6092
14.5829
14.5699
14.5637
14.5609
14.5599
14.5604
14.5623
14.5666
14.5751
14.5912
14.621
14.6752
14.7721
14.9419
15.2275
15.2748
14.947
14.7612
14.6616
14.6098
14.5834
14.5704
14.5641
14.5613
14.5604
14.5609
14.5628
14.5671
14.5757
14.5919
14.622
14.6768
14.7744
14.9456
15.2333
15.2795
14.9495
14.7625
14.6624
14.6104
14.5839
14.5709
14.5646
14.5618
14.5608
14.5613
14.5632
14.5677
14.5763
14.5927
14.623
14.6783
14.7768
14.9494
15.2393
15.283
14.9517
14.764
14.6634
14.6112
14.5846
14.5715
14.5652
14.5624
14.5614
14.5619
14.5638
14.5683
14.577
14.5936
14.6243
14.6801
14.7795
14.9537
15.246
15.2887
14.9555
14.7662
14.6648
14.6122
14.5854
14.5722
14.5658
14.563
14.562
14.5625
14.5645
14.569
14.5778
14.5946
14.6255
14.682
14.7823
14.9582
15.253
15.2993
14.9606
14.7689
14.6665
14.6133
14.5863
14.573
14.5666
14.5637
14.5627
14.5633
14.5652
14.5698
14.5787
14.5957
14.627
14.684
14.7854
14.9631
15.2606
15.307
14.9648
14.7714
14.668
14.6144
14.5872
14.5739
14.5673
14.5645
14.5635
14.564
14.566
14.5706
14.5796
14.5968
14.6285
14.6862
14.7887
14.9683
15.2687
15.3149
14.9693
14.774
14.6697
14.6157
14.5883
14.5748
14.5682
14.5654
14.5644
14.5649
14.5669
14.5716
14.5807
14.5981
14.6302
14.6886
14.7923
14.9739
15.2775
15.3235
14.9741
14.7768
14.6716
14.617
14.5894
14.5758
14.5692
14.5664
14.5653
14.5659
14.5679
14.5727
14.5819
14.5995
14.632
14.6912
14.7962
14.9799
15.2869
15.3327
14.9794
14.7799
14.6736
14.6186
14.5907
14.577
14.5704
14.5674
14.5664
14.567
14.569
14.5738
14.5832
14.6011
14.6341
14.694
14.8004
14.9865
15.2971
15.3427
14.9851
14.7834
14.6759
14.6203
14.5922
14.5783
14.5716
14.5687
14.5676
14.5682
14.5703
14.5752
14.5847
14.6028
14.6363
14.697
14.8049
14.9935
15.308
15.3535
14.9913
14.7871
14.6784
14.6222
14.5938
14.5798
14.5731
14.5701
14.569
14.5696
14.5717
14.5767
14.5863
14.6048
14.6387
14.7004
14.8098
15.0011
15.3199
15.3652
14.9982
14.7913
14.6812
14.6243
14.5957
14.5815
14.5747
14.5717
14.5706
14.5712
14.5734
14.5784
14.5882
14.6069
14.6414
14.704
14.8152
15.0093
15.3327
15.378
15.0056
14.7958
14.6844
14.6268
14.5978
14.5835
14.5766
14.5735
14.5725
14.573
14.5752
14.5803
14.5903
14.6093
14.6444
14.7081
14.821
15.0183
15.3465
15.3918
15.0138
14.8009
14.6879
14.6295
14.6002
14.5857
14.5787
14.5756
14.5745
14.575
14.5773
14.5825
14.5927
14.612
14.6478
14.7125
14.8274
15.028
15.3616
15.4069
15.0228
14.8065
14.6918
14.6326
14.6029
14.5882
14.5812
14.578
14.5769
14.5774
14.5798
14.585
14.5954
14.6151
14.6515
14.7174
14.8344
15.0387
15.3779
15.4233
15.0327
14.8128
14.6963
14.6362
14.606
14.5911
14.584
14.5807
14.5797
14.5801
14.5825
14.5878
14.5985
14.6185
14.6557
14.7229
14.8422
15.0503
15.3958
15.4413
15.0435
14.8198
14.7013
14.6402
14.6096
14.5944
14.5872
14.5839
14.5828
14.5833
14.5857
14.5911
14.602
14.6224
14.6604
14.729
14.8507
15.063
15.4152
15.461
15.0556
14.8276
14.7069
14.6447
14.6137
14.5982
14.5909
14.5875
14.5864
14.5869
14.5894
14.5949
14.606
14.6269
14.6657
14.7357
14.8601
15.077
15.4364
15.4826
15.0688
14.8363
14.7133
14.65
14.6183
14.6026
14.5952
14.5917
14.5906
14.5911
14.5936
14.5992
14.6106
14.632
14.6717
14.7433
14.8706
15.0924
15.4596
15.5063
15.0836
14.846
14.7205
14.6559
14.6237
14.6077
14.6002
14.5966
14.5955
14.5959
14.5985
14.6043
14.6159
14.6378
14.6785
14.7519
14.8822
15.1094
15.4851
15.5325
15.1
14.857
14.7288
14.6628
14.6299
14.6136
14.6059
14.6022
14.6011
14.6015
14.6042
14.6101
14.622
14.6444
14.6862
14.7615
14.8952
15.1282
15.5131
15.5614
15.1182
14.8694
14.7381
14.6707
14.6371
14.6204
14.6126
14.6088
14.6076
14.6081
14.6108
14.6168
14.6291
14.6521
14.695
14.7723
14.9097
15.1491
15.544
15.5933
15.1386
14.8834
14.7488
14.6798
14.6454
14.6284
14.6204
14.6165
14.6153
14.6157
14.6185
14.6246
14.6372
14.661
14.7051
14.7847
14.926
15.1723
15.5782
15.6288
15.1615
14.8993
14.7611
14.6903
14.6551
14.6376
14.6294
14.6254
14.6242
14.6246
14.6275
14.6338
14.6468
14.6712
14.7167
14.7987
14.9444
15.1983
15.6161
15.6683
15.1872
14.9173
14.7753
14.7025
14.6664
14.6485
14.6401
14.636
14.6347
14.6351
14.638
14.6445
14.6579
14.6831
14.73
14.8147
14.9651
15.2274
15.6582
15.7125
15.2162
14.9379
14.7916
14.7167
14.6796
14.6612
14.6525
14.6483
14.647
14.6474
14.6504
14.6571
14.6709
14.6969
14.7455
14.833
14.9887
15.26
15.7051
15.7619
15.2491
14.9616
14.8105
14.7333
14.6951
14.6762
14.6673
14.6629
14.6615
14.6619
14.665
14.6719
14.6862
14.7131
14.7635
14.8542
15.0156
15.297
15.7577
15.8175
15.2864
14.9887
14.8325
14.7528
14.7133
14.6938
14.6846
14.6802
14.6787
14.6791
14.6823
14.6894
14.7042
14.7322
14.7844
14.8786
15.0463
15.3387
15.8167
15.8803
15.329
15.0202
14.8582
14.7757
14.7349
14.7148
14.7053
14.7007
14.6992
14.6995
14.7028
14.7102
14.7255
14.7546
14.8089
14.9071
15.0817
15.3863
15.8833
15.9515
15.3779
15.0566
14.8883
14.8027
14.7605
14.7397
14.7299
14.7251
14.7236
14.7239
14.7273
14.7349
14.7509
14.7811
14.8378
14.9402
15.1224
15.4407
15.9586
16.0326
15.4342
15.0992
14.9238
14.8349
14.7911
14.7696
14.7594
14.7545
14.7528
14.7532
14.7566
14.7645
14.7811
14.8127
14.8719
14.979
15.1698
15.5031
16.0443
16.1254
15.4993
15.149
14.9659
14.8732
14.8277
14.8054
14.7949
14.7897
14.788
14.7883
14.7919
14.8001
14.8174
14.8504
14.9124
15.0248
15.225
15.5751
16.1421
16.2321
15.5752
15.2078
15.016
14.9192
14.8718
14.8487
14.8378
14.8324
14.8306
14.8309
14.8346
14.8431
14.8611
14.8958
14.9609
15.079
15.2899
15.6588
16.2545
16.3554
15.664
15.2775
15.0761
14.9747
14.9253
14.9012
14.8899
14.8843
14.8824
14.8827
14.8864
14.8953
14.9141
14.9505
15.019
15.1436
15.3663
15.7563
16.3842
16.499
15.7688
15.3608
15.1486
15.0422
14.9905
14.9654
14.9537
14.9479
14.9459
14.9461
14.9499
14.9591
14.9788
15.017
15.0893
15.2212
15.4571
15.8709
16.5349
16.6672
15.893
15.4609
15.2366
15.1247
15.0705
15.0444
15.0322
15.0263
15.0241
15.0243
15.0281
15.0376
15.0582
15.0984
15.1749
15.3148
15.5657
16.0063
16.711
16.8657
16.0417
15.5823
15.3445
15.2264
15.1695
15.1423
15.1298
15.1237
15.1214
15.1214
15.1252
15.1349
15.1564
15.1988
15.2799
15.4288
15.6966
16.1677
16.9183
17.1018
16.221
15.7308
15.4778
15.3528
15.2931
15.2649
15.2519
15.2456
15.2432
15.243
15.2467
15.2566
15.2789
15.3236
15.4096
15.5685
15.8554
16.3614
17.1641
17.3852
16.4395
15.9141
15.6441
15.5116
15.4489
15.4196
15.4064
15.3999
15.3972
15.3968
15.4002
15.4101
15.4331
15.4801
15.5715
15.7417
16.0502
16.596
17.4581
17.7287
16.7082
16.1429
15.8538
15.7132
15.6474
15.6172
15.6037
15.5972
15.5942
15.5933
15.5961
15.6056
15.6291
15.6783
15.7755
15.9581
16.2912
16.8826
17.8128
18.1496
17.043
16.4321
16.1215
15.9722
15.9034
15.8725
15.859
15.8524
15.849
15.8473
15.8492
15.8579
15.8813
15.9324
16.0355
16.2317
16.5927
17.2368
18.2452
18.6717
17.4651
16.8023
16.4679
16.3093
16.2377
16.2065
16.1933
16.1868
16.1828
16.1799
16.1801
16.1871
16.2095
16.2618
16.3706
16.5817
16.9743
17.6792
18.7778
19.3282
18.0051
17.283
16.9223
16.7542
16.6804
16.6496
16.6371
16.6306
16.6258
16.621
16.6185
16.6224
16.6424
16.6946
16.8086
17.0353
17.4635
18.2389
19.4423
20.1653
18.7057
17.916
17.5262
17.3487
17.2736
17.244
17.2328
17.2265
17.2203
17.2125
17.2057
17.2047
17.2201
17.2701
17.3879
17.6309
18.099
18.9565
20.2818
21.2482
19.6269
18.7594
18.3376
18.1506
18.0751
18.0477
18.0382
18.032
18.0236
18.0115
17.9984
17.9898
17.9978
18.0428
18.1625
18.4219
18.9352
19.889
21.3574
22.667
20.8509
19.8919
19.4329
19.2352
19.1592
19.1339
19.1258
19.1188
19.1069
19.0886
19.0669
19.0481
19.0457
19.083
19.2027
19.4796
20.0453
21.1144
22.7539
24.5442
22.4854
21.4126
20.9058
20.6913
20.6102
20.5832
20.5731
20.5623
20.5444
20.5178
20.4858
20.4553