/*--------------------------------*- C++ -*----------------------------------*\
  =========                 |
  \\      /  F ield         | OpenFOAM: The Open Source CFD Toolbox
   \\    /   O peration     | Website:  https://openfoam.org
    \\  /    A nd           | Version:  6
     \\/     M anipulation  |
\*---------------------------------------------------------------------------*/
FoamFile
{
    version     2.0;
    format      ascii;
    class       volScalarField;
    location    "1";
    object      k;
}
// * * * * * * * * * * * * * * * * * * * * * * * * * * * * * * * * * * * * * //

dimensions      [0 2 -2 0 0 0 0];

internalField   nonuniform List<scalar> 
10000
(
0.930763
1.28316
0.763388
0.534495
0.439748
0.402109
0.387646
0.382264
0.38041
0.380022
0.38054
0.382217
0.386221
0.395354
0.415956
0.462048
0.564391
0.790067
1.28424
0.865915
0.728781
1.01259
0.64281
0.480244
0.414495
0.389242
0.379898
0.37657
0.37549
0.375341
0.375794
0.3771
0.380129
0.386952
0.402163
0.435783
0.50948
0.669484
1.01343
0.677368
0.76894
1.06197
0.664019
0.489409
0.418459
0.390941
0.380604
0.376835
0.375567
0.375337
0.375782
0.377127
0.380293
0.387453
0.403492
0.439199
0.518121
0.69104
1.06572
0.718386
0.76107
1.04365
0.655814
0.48527
0.415951
0.389099
0.379044
0.375403
0.374189
0.373986
0.374428
0.375755
0.378862
0.385891
0.401634
0.436629
0.513825
0.682541
1.04717
0.706266
0.771942
1.04495
0.656689
0.485779
0.416244
0.389285
0.379181
0.375515
0.374295
0.374084
0.374527
0.375847
0.378951
0.385971
0.40169
0.436634
0.513676
0.681892
1.04484
0.706477
0.805074
1.0593
0.661284
0.487224
0.416682
0.389406
0.379204
0.375512
0.37428
0.37407
0.374509
0.375832
0.37893
0.385938
0.401632
0.436512
0.513417
0.681321
1.0435
0.705825
0.749385
1.038
0.653829
0.484596
0.41575
0.389074
0.379086
0.375467
0.374267
0.374062
0.374509
0.375827
0.378923
0.385922
0.401591
0.436419
0.513204
0.680874
1.04264
0.705481
0.757023
1.03917
0.654195
0.484707
0.415782
0.389079
0.379082
0.375463
0.374257
0.374057
0.3745
0.375824
0.378922
0.385923
0.401592
0.436395
0.513097
0.680532
1.04184
0.705248
0.760113
1.03803
0.653915
0.484662
0.415788
0.38909
0.379089
0.375464
0.37426
0.374055
0.374501
0.375822
0.378924
0.385935
0.401624
0.436477
0.513282
0.680905
1.04239
0.70547
0.772189
1.0404
0.654786
0.485004
0.415923
0.38914
0.379104
0.375466
0.374253
0.37405
0.374492
0.375817
0.378919
0.38593
0.401618
0.436452
0.513185
0.680601
1.0417
0.70525
0.8086
1.05656
0.660376
0.48691
0.416564
0.389352
0.379172
0.375486
0.37426
0.374048
0.374492
0.375812
0.378915
0.385932
0.401639
0.436536
0.513419
0.681125
1.04252
0.705575
0.765046
1.03879
0.654005
0.48465
0.415766
0.38907
0.379069
0.375447
0.37424
0.374038
0.37448
0.375802
0.378899
0.385901
0.401581
0.43642
0.513206
0.680776
1.04203
0.705282
0.803542
1.05735
0.660616
0.486988
0.416588
0.389356
0.379169
0.375479
0.374252
0.374038
0.37448
0.375798
0.378892
0.385887
0.401544
0.436336
0.513027
0.68044
1.04153
0.705054
0.749135
1.03659
0.653363
0.484477
0.415724
0.389059
0.379064
0.375441
0.374233
0.374031
0.374472
0.375795
0.37889
0.385886
0.401541
0.43631
0.512921
0.680123
1.04083
0.704858
0.757216
1.03968
0.654901
0.485165
0.416011
0.389173
0.379107
0.375455
0.374239
0.37403
0.374474
0.375794
0.378893
0.385898
0.40157
0.436384
0.513093
0.680482
1.04139
0.705076
0.759458
1.03806
0.654117
0.484782
0.41583
0.389089
0.379067
0.375437
0.374226
0.374024
0.374467
0.375791
0.378891
0.385894
0.401562
0.436349
0.512972
0.680136
1.04063
0.704827
0.769848
1.03993
0.654547
0.484896
0.415869
0.389106
0.379076
0.375439
0.37423
0.374023
0.374469
0.375791
0.378893
0.385903
0.401589
0.436429
0.513179
0.680591
1.04134
0.705106
0.803526
1.05607
0.660117
0.486801
0.416513
0.38932
0.379145
0.375461
0.374232
0.374024
0.374465
0.375789
0.378888
0.385891
0.401557
0.436343
0.512978
0.680189
1.0407
0.704791
0.749557
1.0349
0.652727
0.484244
0.415636
0.389022
0.379045
0.375426
0.374223
0.37402
0.374467
0.375791
0.378893
0.385902
0.401574
0.436361
0.512956
0.679998
1.04013
0.704691
0.760051
1.03773
0.654116
0.484843
0.415876
0.389113
0.379077
0.375438
0.374224
0.374021
0.374464
0.375791
0.378896
0.385913
0.401609
0.436459
0.513201
0.680519
1.0409
0.705003
0.769464
1.03908
0.654255
0.4848
0.415837
0.389093
0.37907
0.375435
0.374227
0.374021
0.374467
0.375791
0.378892
0.385898
0.40157
0.436371
0.513023
0.680201
1.04041
0.704734
0.803192
1.05532
0.659906
0.486753
0.416507
0.389322
0.379147
0.375462
0.374233
0.374026
0.374468
0.375794
0.378895
0.385901
0.401565
0.436336
0.512912
0.679943
1.03995
0.704562
0.749595
1.03442
0.65269
0.48429
0.415677
0.389046
0.379058
0.375434
0.374229
0.374025
0.374473
0.3758
0.378906
0.385921
0.401595
0.436373
0.512914
0.679779
1.03941
0.704473
0.760227
1.03767
0.654379
0.485068
0.416011
0.389183
0.379112
0.375456
0.374235
0.37403
0.374474
0.375804
0.378915
0.385943
0.401652
0.436509
0.51322
0.680382
1.04028
0.70485
0.769622
1.03963
0.65483
0.485139
0.416006
0.389172
0.379107
0.375454
0.374238
0.374031
0.374478
0.375805
0.378914
0.385936
0.401634
0.436469
0.513134
0.68021
1.03996
0.704685
0.802865
1.05533
0.660074
0.486901
0.416602
0.389376
0.379177
0.37548
0.374246
0.374037
0.374478
0.375806
0.378914
0.385934
0.40163
0.436459
0.513114
0.680157
1.03981
0.704642
0.74838
1.0354
0.65324
0.484564
0.415806
0.389107
0.379089
0.375452
0.374241
0.374035
0.374481
0.375807
0.378912
0.385928
0.401616
0.436433
0.513067
0.680073
1.03963
0.704566
0.755023
1.03788
0.654199
0.484926
0.415939
0.389156
0.379107
0.375461
0.374244
0.37404
0.374483
0.375807
0.378909
0.385917
0.401592
0.436388
0.512991
0.679949
1.03942
0.704465
0.754022
1.03703
0.653728
0.484685
0.415827
0.389108
0.37909
0.375456
0.374248
0.374042
0.374487
0.37581
0.378907
0.385906
0.401561
0.43632
0.512865
0.679746
1.03913
0.704312
0.753954
1.03641
0.653419
0.484578
0.415802
0.389108
0.379096
0.375464
0.374252
0.374049
0.374492
0.375814
0.37891
0.385901
0.401538
0.436254
0.512709
0.679446
1.03868
0.704108
0.75423
1.03708
0.653859
0.484785
0.415889
0.389145
0.379113
0.375472
0.374261
0.374055
0.3745
0.375824
0.378921
0.385916
0.401553
0.436251
0.512641
0.679194
1.0381
0.703971
0.754045
1.03642
0.653505
0.484647
0.415846
0.389137
0.379116
0.37548
0.374267
0.374064
0.374508
0.375832
0.378935
0.38594
0.401601
0.436357
0.512863
0.679637
1.03881
0.704261
0.754408
1.03732
0.654099
0.484947
0.415982
0.389196
0.379144
0.375493
0.374278
0.37407
0.374516
0.375842
0.378944
0.385951
0.401613
0.436354
0.512804
0.679404
1.03826
0.704109
0.754158
1.03682
0.653727
0.484723
0.415867
0.389145
0.379125
0.375491
0.374281
0.374078
0.374523
0.375846
0.378952
0.385965
0.40165
0.436464
0.51308
0.680004
1.03923
0.704503
0.754163
1.03645
0.653578
0.484708
0.415892
0.389173
0.379146
0.375505
0.374293
0.374085
0.37453
0.375853
0.378951
0.385951
0.401611
0.436372
0.512911
0.679745
1.03893
0.704292
0.754573
1.0375
0.654259
0.485054
0.416051
0.389244
0.37918
0.375525
0.374305
0.374098
0.37454
0.375858
0.378955
0.385947
0.401587
0.436312
0.512777
0.679506
1.03864
0.704151
0.754362
1.03723
0.654018
0.484906
0.415976
0.389211
0.379169
0.375524
0.374311
0.374103
0.374548
0.375871
0.378967
0.385961
0.401599
0.436304
0.512709
0.679286
1.03819
0.704046
0.754232
1.03696
0.653792
0.484769
0.415909
0.389185
0.379164
0.37553
0.374319
0.374116
0.37456
0.37588
0.378981
0.38598
0.401636
0.436391
0.51291
0.679729
1.03899
0.704349
0.754174
1.03655
0.653553
0.484684
0.415891
0.389189
0.379174
0.375539
0.374329
0.374122
0.374568
0.375893
0.378991
0.385991
0.401641
0.436364
0.512805
0.679448
1.03849
0.704177
0.754547
1.03747
0.654082
0.484922
0.41599
0.389233
0.379197
0.375556
0.374342
0.374137
0.374581
0.375902
0.379006
0.386013
0.401684
0.436469
0.513042
0.679955
1.03939
0.704537
0.754451
1.03706
0.653816
0.484811
0.415957
0.389229
0.379203
0.375563
0.374351
0.374143
0.374588
0.375914
0.379014
0.386021
0.401689
0.436452
0.51297
0.679748
1.03901
0.704417
0.754882
1.03821
0.654488
0.485135
0.416101
0.389294
0.379235
0.375584
0.374366
0.374159
0.374602
0.375921
0.379025
0.386033
0.401715
0.436537
0.513205
0.680318
1.04008
0.70481
0.754681
1.03792
0.654161
0.484911
0.415979
0.389237
0.379213
0.375577
0.374369
0.374162
0.374607
0.375932
0.379029
0.386029
0.401687
0.436443
0.512999
0.67998
1.03977
0.704578
0.754705
1.03768
0.653996
0.48486
0.415978
0.389251
0.37923
0.375595
0.374383
0.374178
0.374623
0.375942
0.379047
0.386051
0.401711
0.436462
0.512959
0.679786
1.03943
0.704528
0.755162
1.03874
0.654576
0.485109
0.416075
0.389288
0.379246
0.375602
0.37439
0.374182
0.374628
0.375958
0.379067
0.386093
0.401801
0.436637
0.513291
0.680341
1.04021
0.704958
0.755225
1.03846
0.654385
0.485035
0.41606
0.389295
0.379259
0.375617
0.374403
0.374197
0.37464
0.375962
0.379075
0.386105
0.401834
0.436748
0.513591
0.681041
1.0415
0.705408
0.756055
1.03968
0.655154
0.485418
0.416232
0.389369
0.379291
0.37563
0.374411
0.374199
0.374642
0.375968
0.379072
0.386093
0.401802
0.436672
0.513461
0.680891
1.0415
0.705302
0.757012
1.03937
0.654977
0.48532
0.416184
0.389351
0.379288
0.375637
0.374419
0.374211
0.374652
0.375971
0.379077
0.38609
0.401784
0.436629
0.513371
0.680763
1.04151
0.705262
0.760505
1.03914
0.65488
0.485271
0.416159
0.389339
0.379283
0.375634
0.374419
0.374209
0.374653
0.37598
0.379086
0.386106
0.401807
0.436646
0.513356
0.680663
1.04136
0.705262
0.771037
1.04193
0.655591
0.485409
0.416168
0.389331
0.37928
0.375638
0.374424
0.374219
0.374662
0.375985
0.379099
0.38613
0.401859
0.43677
0.513633
0.681256
1.04248
0.705689
0.804673
1.05785
0.660852
0.487179
0.416775
0.389543
0.379355
0.375663
0.374433
0.374218
0.374661
0.37599
0.379103
0.386141
0.401878
0.43679
0.513631
0.681173
1.04233
0.70567
0.750184
1.0394
0.654869
0.48524
0.416147
0.389341
0.379291
0.375646
0.374429
0.374222
0.374663
0.375989
0.379107
0.386154
0.401924
0.436927
0.513977
0.681938
1.04371
0.706207
0.756999
1.04232
0.655895
0.485574
0.416245
0.389364
0.379293
0.37564
0.374424
0.374213
0.374655
0.375983
0.379095
0.386135
0.40189
0.436868
0.513892
0.681871
1.04382
0.70615
0.756182
1.04204
0.655633
0.485405
0.416156
0.389322
0.379274
0.375634
0.374419
0.374213
0.374653
0.375977
0.379088
0.38612
0.401865
0.436826
0.513838
0.681849
1.044
0.706168
0.756268
1.04196
0.655531
0.485374
0.416154
0.389325
0.379274
0.375629
0.374414
0.374204
0.374645
0.375971
0.37908
0.386113
0.401849
0.43679
0.513759
0.681731
1.04401
0.706121
0.756637
1.04317
0.656182
0.485662
0.416266
0.389363
0.379283
0.37563
0.374408
0.374201
0.374639
0.375966
0.379078
0.386117
0.401866
0.436821
0.513788
0.681701
1.0439
0.706164
0.756324
1.04282
0.655762
0.485369
0.416097
0.389274
0.379236
0.375602
0.374392
0.374185
0.374627
0.375954
0.379069
0.38612
0.401897
0.436935
0.514097
0.682402
1.04516
0.706638
0.756203
1.04237
0.655401
0.485179
0.416011
0.389236
0.379217
0.375592
0.37438
0.374177
0.374614
0.375941
0.379049
0.386088
0.401848
0.436852
0.513975
0.682265
1.04514
0.706525
0.756524
1.04295
0.655773
0.485391
0.416115
0.38928
0.37923
0.375589
0.374374
0.374164
0.374603
0.375925
0.379029
0.386062
0.401802
0.436785
0.513876
0.682163
1.04515
0.706476
0.756835
1.04392
0.656266
0.485574
0.416167
0.389285
0.37922
0.375578
0.374358
0.374154
0.374588
0.375915
0.379016
0.386042
0.401771
0.436715
0.513741
0.681946
1.04496
0.70635
0.756681
1.04347
0.655962
0.485439
0.416112
0.389263
0.379208
0.375566
0.37435
0.374141
0.374579
0.375901
0.379004
0.386034
0.40176
0.436704
0.513696
0.681788
1.04463
0.706291
0.757068
1.04455
0.65659
0.485728
0.416225
0.389297
0.37921
0.375559
0.374334
0.37413
0.374562
0.375893
0.378996
0.386031
0.401781
0.436776
0.513911
0.682312
1.04559
0.706636
0.756816
1.04414
0.65623
0.485494
0.416094
0.38923
0.379175
0.375538
0.374324
0.374118
0.374556
0.375876
0.378978
0.386006
0.401727
0.436678
0.513715
0.681971
1.04517
0.706391
0.756829
1.04382
0.656086
0.485464
0.416098
0.389233
0.379171
0.375531
0.374309
0.374107
0.374539
0.375872
0.378972
0.386004
0.401737
0.436684
0.513694
0.681833
1.0448
0.706353
0.757259
1.04495
0.656802
0.485822
0.416255
0.389297
0.379195
0.375535
0.374311
0.374102
0.374538
0.375858
0.378961
0.385997
0.401743
0.436759
0.51393
0.682393
1.04577
0.706715
0.757088
1.04474
0.656631
0.485713
0.416191
0.389259
0.379169
0.375518
0.374292
0.374089
0.37452
0.375851
0.378943
0.385965
0.401686
0.436638
0.513721
0.682082
1.04541
0.706474
0.756996
1.04465
0.656583
0.485697
0.416189
0.389261
0.379172
0.375519
0.374298
0.37409
0.374525
0.375841
0.378933
0.385943
0.401633
0.436545
0.513543
0.681782
1.04503
0.706296
0.756809
1.0444
0.656392
0.485583
0.416124
0.389222
0.379146
0.375504
0.374281
0.37408
0.374512
0.375843
0.37893
0.38594
0.401629
0.436506
0.51343
0.681493
1.04446
0.706145
0.756565
1.04393
0.656044
0.485377
0.416019
0.389176
0.37913
0.375499
0.374288
0.374086
0.374525
0.375841
0.378934
0.385944
0.401635
0.436555
0.513576
0.681856
1.04513
0.706393
0.756411
1.04323
0.655623
0.485177
0.415934
0.38914
0.379112
0.37549
0.374278
0.374081
0.374516
0.375847
0.378934
0.385941
0.401621
0.436487
0.513401
0.681465
1.04445
0.706146
0.756801
1.04376
0.656074
0.485473
0.416101
0.38923
0.379162
0.375518
0.374301
0.374097
0.374537
0.375854
0.378948
0.385956
0.401642
0.436548
0.513553
0.681827
1.04513
0.70641
0.757167
1.04481
0.65672
0.485775
0.416224
0.389273
0.379173
0.37552
0.374297
0.374096
0.374533
0.375866
0.378959
0.385972
0.401656
0.436519
0.513412
0.681437
1.04444
0.706181
0.756961
1.04453
0.656483
0.485637
0.416158
0.389249
0.379172
0.375527
0.374313
0.374111
0.374555
0.375879
0.378984
0.386012
0.401733
0.436686
0.513727
0.68194
1.04504
0.706584
0.756823
1.04423
0.656238
0.485482
0.416075
0.389207
0.379151
0.375518
0.374306
0.374109
0.374552
0.375887
0.378991
0.38603
0.40178
0.436798
0.514015
0.682594
1.04618
0.706999
0.756789
1.04384
0.656016
0.485411
0.416068
0.38922
0.37917
0.375535
0.374326
0.374125
0.374572
0.375895
0.378998
0.386022
0.401748
0.436728
0.513889
0.682417
1.04606
0.706876
0.757181
1.04476
0.656547
0.485641
0.416155
0.389249
0.379178
0.375537
0.374325
0.374127
0.374572
0.375903
0.379005
0.386031
0.401752
0.436711
0.51383
0.682308
1.046
0.706849
0.75716
1.04443
0.656342
0.485568
0.416144
0.389259
0.379194
0.375553
0.374343
0.374141
0.37459
0.375916
0.379023
0.386051
0.401782
0.436753
0.51387
0.68228
1.04585
0.706896
0.757692
1.04572
0.657134
0.485957
0.416316
0.38933
0.379223
0.375565
0.374347
0.374145
0.374592
0.37592
0.37903
0.386069
0.401829
0.436879
0.514186
0.682987
1.04711
0.707382
0.757637
1.04576
0.657071
0.4859
0.416285
0.38932
0.379224
0.375571
0.374357
0.374154
0.374602
0.375928
0.379033
0.386059
0.401798
0.436808
0.514064
0.682838
1.04708
0.707273
0.757651
1.04592
0.657109
0.485908
0.416287
0.38932
0.379225
0.375572
0.374359
0.374156
0.374604
0.375928
0.379034
0.386058
0.401787
0.436778
0.513993
0.68273
1.04708
0.707241
0.757607
1.04599
0.65706
0.485858
0.416257
0.389306
0.379221
0.375573
0.374363
0.374159
0.374608
0.375937
0.379043
0.38607
0.401807
0.436798
0.513998
0.682664
1.04694
0.707251
0.757491
1.04587
0.656872
0.485722
0.416181
0.389269
0.379205
0.375566
0.37436
0.374159
0.374609
0.375931
0.379041
0.386074
0.401831
0.436889
0.514251
0.683273
1.0481
0.707653
0.757465
1.04562
0.656718
0.485674
0.416176
0.389272
0.379207
0.375565
0.374356
0.374152
0.374599
0.375928
0.379031
0.386055
0.401794
0.436798
0.514068
0.682978
1.04784
0.707427
0.757799
1.04671
0.657341
0.485958
0.416288
0.38931
0.379216
0.375562
0.37435
0.374143
0.374591
0.375909
0.379017
0.38604
0.401777
0.436784
0.514022
0.682825
1.04755
0.70735
0.757471
1.04628
0.656945
0.485692
0.416134
0.389223
0.379164
0.375526
0.374319
0.374114
0.37456
0.375887
0.378991
0.38602
0.401775
0.436822
0.514187
0.683279
1.04844
0.707592
0.757309
1.04584
0.656725
0.485624
0.416117
0.389214
0.379152
0.375507
0.374297
0.374088
0.374531
0.375843
0.378944
0.385955
0.401673
0.436655
0.513882
0.682766
1.04778
0.707151
0.757432
1.04665
0.657259
0.485874
0.416205
0.389223
0.379127
0.375467
0.374249
0.374035
0.374473
0.375794
0.378888
0.385899
0.401609
0.436553
0.513679
0.682321
1.04692
0.706783
0.756764
1.04589
0.656815
0.485635
0.416075
0.389143
0.379069
0.375417
0.3742
0.373985
0.37442
0.375728
0.378819
0.385817
0.401519
0.43647
0.513632
0.682376
1.04704
0.706624
0.755836
1.04481
0.656274
0.485374
0.415936
0.389051
0.378994
0.375345
0.374127
0.37391
0.374337
0.375645
0.378719
0.385694
0.401332
0.436151
0.513045
0.681313
1.04529
0.705616
0.754327
1.04304
0.655391
0.484964
0.415742
0.388947
0.378925
0.375288
0.374071
0.37385
0.37427
0.375563
0.378617
0.385549
0.401125
0.435812
0.512428
0.680099
1.04293
0.704447
0.751769
1.04003
0.653918
0.484297
0.415447
0.388812
0.378853
0.375239
0.374025
0.373801
0.374206
0.375475
0.378487
0.385356
0.40082
0.435358
0.511748
0.679052
1.04099
0.703071
0.747562
1.03534
0.651806
0.483513
0.415227
0.388807
0.378918
0.375325
0.374104
0.373871
0.374247
0.375476
0.378392
0.385093
0.400278
0.43434
0.509984
0.676129
1.03622
0.699861
0.740113
1.02885
0.649037
0.482606
0.415121
0.389016
0.379236
0.375675
0.374455
0.374206
0.374541
0.375681
0.378437
0.384842
0.399481
0.432667
0.506918
0.671015
1.02815
0.693908
0.724954
1.01436
0.642199
0.480232
0.414831
0.389591
0.380125
0.376668
0.375457
0.375194
0.375462
0.376495
0.378975
0.384854
0.398496
0.4299
0.501257
0.661003
1.01214
0.681873
0.696482
0.985174
0.628589
0.475887
0.414778
0.39127
0.382413
0.379129
0.377941
0.377637
0.377832
0.378671
0.380779
0.385829
0.397779
0.425943
0.491552
0.642028
0.979953
0.658575
0.646196
0.925442
0.60222
0.468495
0.41593
0.39577
0.388046
0.385072
0.383906
0.383554
0.383649
0.384316
0.385975
0.389953
0.399466
0.422359
0.477551
0.609312
0.917924
0.616823
0.567955
0.81199
0.558182
0.459468
0.421735
0.407201
0.401392
0.398964
0.397897
0.397498
0.397515
0.397981
0.399204
0.402008
0.408538
0.424272
0.463138
0.56067
0.80532
0.549854
0.470183
0.632593
0.502338
0.455477
0.437291
0.429819
0.426468
0.424856
0.424028
0.423687
0.423669
0.424044
0.424893
0.426683
0.430326
0.438404
0.457283
0.504288
0.628729
0.461857
0.392233
0.457097
0.4115
0.398684
0.395467
0.395388
0.396113
0.39687
0.39743
0.397725
0.397774
0.397526
0.397023
0.39631
0.3956
0.395685
0.398893
0.411739
0.456595
0.389625
0.370159
0.39912
0.397504
0.392226
0.389031
0.38716
0.385973
0.385187
0.384694
0.384434
0.384397
0.384565
0.384967
0.385634
0.386671
0.38831
0.391141
0.395831
0.397365
0.369296
1.67784
3.27514
1.44564
0.748289
0.505666
0.425815
0.400539
0.392806
0.390574
0.39011
0.390504
0.392087
0.396719
0.409715
0.445612
0.543255
0.804326
1.48866
3.24396
1.59232
0.797669
1.86345
0.807638
0.485641
0.399468
0.379091
0.375044
0.374518
0.374578
0.374692
0.374837
0.375202
0.376291
0.379701
0.39036
0.423533
0.526695
0.847933
1.85522
0.7602
1.0933
2.20076
0.975614
0.562272
0.432754
0.393605
0.381946
0.378476
0.377457
0.377213
0.37736
0.378026
0.38003
0.385811
0.402523
0.450967
0.591496
0.99857
2.17251
1.01638
1.10345
2.12576
0.931529
0.538434
0.419873
0.38605
0.376803
0.374378
0.373786
0.373714
0.373891
0.374505
0.376305
0.381569
0.396927
0.441705
0.572402
0.95458
2.07558
0.936464
1.27112
2.17094
0.949958
0.54663
0.423817
0.388159
0.378117
0.375346
0.374617
0.37448
0.374646
0.375258
0.3771
0.382468
0.398102
0.443624
0.576098
0.96156
2.08313
0.955223
0.901824
2.06186
0.918745
0.537364
0.420867
0.387096
0.377647
0.375078
0.374413
0.37431
0.374478
0.375099
0.376934
0.382286
0.397888
0.443316
0.575566
0.960379
2.07966
0.950236
0.989151
2.09876
0.93276
0.54231
0.422559
0.387678
0.377861
0.375167
0.374467
0.374342
0.374513
0.375124
0.37696
0.382307
0.397888
0.443263
0.575354
0.959771
2.07807
0.950761
0.970954
2.08818
0.928109
0.540426
0.421834
0.387405
0.377754
0.375122
0.374438
0.374327
0.374494
0.375115
0.376952
0.382304
0.397894
0.443253
0.575254
0.959335
2.07673
0.950252
0.980731
2.09126
0.929452
0.541006
0.422075
0.387501
0.377792
0.375134
0.374446
0.374326
0.374499
0.375113
0.376953
0.382311
0.397909
0.443288
0.575267
0.959096
2.07556
0.950176
0.993016
2.09316
0.929624
0.540924
0.422002
0.387458
0.377767
0.375121
0.374432
0.37432
0.374486
0.375109
0.37695
0.382315
0.397939
0.443377
0.575526
0.959756
2.07678
0.950501
1.02729
2.10132
0.931593
0.541415
0.422133
0.387497
0.377779
0.375122
0.374436
0.374316
0.374489
0.375104
0.376946
0.382313
0.397932
0.443364
0.575438
0.959334
2.07541
0.950246
1.11314
2.12568
0.937794
0.543044
0.422567
0.387609
0.377803
0.375125
0.374426
0.374312
0.374477
0.375099
0.376941
0.382312
0.397953
0.443453
0.575762
0.960269
2.07723
0.950748
1.26861
2.16334
0.947425
0.545466
0.42316
0.387749
0.377835
0.375129
0.37443
0.374308
0.374479
0.375095
0.376935
0.382298
0.397912
0.443349
0.575495
0.95966
2.07608
0.950328
0.900579
2.05791
0.917838
0.53719
0.420855
0.387108
0.377653
0.375077
0.374407
0.374301
0.374468
0.375091
0.376931
0.382295
0.397911
0.443341
0.575468
0.959566
2.07571
0.950287
0.986348
2.09223
0.930494
0.54161
0.422338
0.38759
0.377806
0.375121
0.374424
0.374301
0.374472
0.375089
0.376929
0.382292
0.397898
0.443299
0.575334
0.959211
2.07493
0.950053
0.966975
2.0839
0.927089
0.540231
0.421797
0.387383
0.377727
0.375093
0.374406
0.374296
0.374463
0.375086
0.376928
0.382294
0.397907
0.443298
0.575261
0.958867
2.07394
0.949868
0.971181
2.08469
0.927674
0.540597
0.421985
0.387469
0.377764
0.375105
0.374415
0.374295
0.374467
0.375085
0.376929
0.3823
0.397923
0.443349
0.575342
0.958809
2.07306
0.949857
0.970642
2.08582
0.928328
0.540812
0.42203
0.387467
0.377754
0.375099
0.374406
0.374294
0.37446
0.375083
0.376925
0.382296
0.397931
0.443402
0.575584
0.959585
2.07461
0.950232
0.97038
2.08452
0.927645
0.540526
0.421927
0.387436
0.377748
0.375097
0.37441
0.374292
0.374464
0.375082
0.376922
0.382284
0.397888
0.443283
0.575274
0.958878
2.07326
0.949762
0.970214
2.08378
0.927399
0.540463
0.421914
0.387432
0.377744
0.375097
0.374405
0.374293
0.37446
0.375082
0.376923
0.382284
0.397884
0.443254
0.575174
0.9586
2.07255
0.949611
0.969949
2.08251
0.926874
0.540277
0.421856
0.387417
0.377743
0.375096
0.374411
0.374293
0.374465
0.375085
0.376926
0.382287
0.397877
0.44321
0.574996
0.958055
2.07127
0.949285
0.96989
2.08134
0.926637
0.540299
0.421898
0.38744
0.377751
0.375101
0.374408
0.374296
0.374463
0.375087
0.37693
0.382296
0.397898
0.443239
0.574988
0.957774
2.07005
0.949156
0.970247
2.08248
0.92729
0.540532
0.421966
0.387459
0.377758
0.375102
0.374414
0.374296
0.374469
0.37509
0.376935
0.382307
0.39792
0.443303
0.575176
0.958285
2.07101
0.949407
0.969979
2.08096
0.926782
0.540414
0.421952
0.387463
0.377762
0.375107
0.374413
0.3743
0.374468
0.375093
0.376939
0.382311
0.397923
0.443275
0.575012
0.957654
2.06925
0.949034
0.970458
2.08268
0.927725
0.540768
0.422064
0.387496
0.377773
0.37511
0.37442
0.374301
0.374475
0.375098
0.376946
0.382326
0.397959
0.443378
0.575296
0.958355
2.07047
0.949429
0.969949
2.08127
0.926952
0.540428
0.421934
0.387451
0.377759
0.375109
0.374417
0.374306
0.374475
0.3751
0.37695
0.382329
0.397959
0.443353
0.575161
0.957828
2.06893
0.9491
0.969796
2.08057
0.926675
0.540348
0.421918
0.387452
0.377765
0.375112
0.374425
0.374308
0.374482
0.375107
0.376957
0.382342
0.397989
0.443443
0.575442
0.95862
2.07049
0.949533
0.969436
2.07917
0.926004
0.540082
0.421825
0.387423
0.377756
0.375114
0.374425
0.374314
0.374484
0.375109
0.376961
0.382344
0.397979
0.443379
0.575192
0.957882
2.06894
0.949071
0.969297
2.07776
0.925584
0.540021
0.421842
0.387444
0.377772
0.375121
0.374435
0.374317
0.374492
0.375117
0.37697
0.382362
0.398021
0.443476
0.575374
0.958034
2.06844
0.949227
0.969633
2.07836
0.926123
0.540291
0.421949
0.387482
0.377785
0.37513
0.374437
0.374325
0.374495
0.37512
0.376975
0.382366
0.398035
0.443544
0.575645
0.958886
2.07023
0.949641
0.969781
2.07932
0.926466
0.540344
0.421941
0.387474
0.377785
0.375132
0.374446
0.374328
0.374503
0.375129
0.376979
0.382365
0.398013
0.443456
0.575398
0.958322
2.06923
0.949273
0.969449
2.07769
0.925784
0.540146
0.421901
0.387475
0.377792
0.375142
0.374451
0.374339
0.374509
0.375133
0.376987
0.382374
0.398022
0.443464
0.575382
0.958233
2.06898
0.949247
0.969854
2.079
0.92643
0.54037
0.421968
0.387495
0.377802
0.375147
0.37446
0.374343
0.374517
0.375145
0.376997
0.382387
0.398038
0.443465
0.575317
0.957955
2.06831
0.949093
0.969556
2.07739
0.925748
0.540158
0.421921
0.387494
0.37781
0.375159
0.374468
0.374355
0.374526
0.375149
0.377006
0.3824
0.398064
0.443531
0.575434
0.958019
2.06787
0.949174
0.970225
2.07883
0.926773
0.540656
0.422125
0.387571
0.377841
0.375172
0.374479
0.37436
0.374534
0.375162
0.377015
0.38241
0.398086
0.4436
0.575703
0.9589
2.06988
0.949628
0.970599
2.08082
0.927573
0.540866
0.422161
0.387576
0.377845
0.375181
0.374487
0.374373
0.374544
0.375166
0.377021
0.382409
0.398061
0.443512
0.575446
0.958312
2.06901
0.949256
0.970388
2.08029
0.927192
0.540699
0.422109
0.387567
0.37785
0.375187
0.374497
0.374378
0.374552
0.37518
0.377033
0.382426
0.39809
0.443547
0.57547
0.958252
2.06882
0.949279
0.970514
2.08066
0.927378
0.540786
0.422149
0.387588
0.377864
0.375202
0.374508
0.374393
0.374564
0.375185
0.377043
0.382436
0.398107
0.443597
0.575566
0.958322
2.06857
0.949351
0.970501
2.08083
0.927355
0.540749
0.422132
0.387585
0.377869
0.375206
0.374517
0.374397
0.374571
0.375199
0.377051
0.382446
0.398127
0.443657
0.575828
0.95924
2.07083
0.949837
0.970483
2.08102
0.92733
0.540719
0.422123
0.38759
0.377879
0.375221
0.374528
0.374414
0.374585
0.375203
0.377058
0.382441
0.398092
0.443552
0.575542
0.958646
2.07015
0.949465
0.970421
2.08109
0.927189
0.540628
0.422086
0.38758
0.377881
0.375224
0.374536
0.374417
0.37459
0.375219
0.377069
0.382459
0.398118
0.44357
0.575526
0.958537
2.07008
0.949468
0.970352
2.08096
0.926993
0.540537
0.422061
0.387583
0.377892
0.37524
0.374549
0.374435
0.374606
0.375223
0.377081
0.382471
0.398137
0.443616
0.575588
0.958525
2.06986
0.949507
0.97046
2.08097
0.927058
0.540618
0.422113
0.387609
0.377907
0.375247
0.374557
0.374437
0.374609
0.375237
0.377089
0.382487
0.398175
0.443711
0.575887
0.959406
2.07201
0.950009
0.970915
2.08339
0.92796
0.540869
0.42217
0.387624
0.377917
0.375261
0.374569
0.374454
0.374624
0.375239
0.377096
0.382486
0.398163
0.443691
0.575817
0.959172
2.07157
0.949888
0.970553
2.0827
0.927296
0.540542
0.422048
0.387588
0.37791
0.37526
0.374574
0.374454
0.374625
0.375251
0.3771
0.382494
0.398184
0.443761
0.576122
0.96023
2.07427
0.950491
0.970746
2.08303
0.927515
0.540702
0.422138
0.387635
0.377936
0.375281
0.374588
0.374471
0.374639
0.375252
0.377104
0.382482
0.398136
0.443634
0.57581
0.959657
2.07388
0.950128
0.971135
2.08545
0.92831
0.540873
0.422151
0.387623
0.377929
0.375276
0.374589
0.374469
0.374639
0.375264
0.377109
0.382492
0.398149
0.443631
0.575767
0.959561
2.07407
0.950148
0.970731
2.08472
0.927553
0.540503
0.422016
0.387588
0.377928
0.375287
0.374599
0.374484
0.374651
0.375264
0.377116
0.382495
0.398153
0.443648
0.575781
0.959517
2.07405
0.950174
0.970909
2.08484
0.927634
0.5406
0.42208
0.387619
0.377941
0.375289
0.374602
0.37448
0.374648
0.375272
0.377117
0.382504
0.398177
0.443713
0.576017
0.960313
2.07628
0.950633
0.971483
2.08695
0.928621
0.540985
0.422214
0.387665
0.377959
0.375303
0.374609
0.374492
0.374657
0.37527
0.37712
0.382499
0.398161
0.443675
0.575887
0.959946
2.07577
0.950451
0.971869
2.08964
0.929473
0.54116
0.422223
0.387651
0.377949
0.375294
0.374606
0.374483
0.374651
0.375272
0.377117
0.382505
0.398188
0.443767
0.576204
0.960913
2.07824
0.951035
0.971583
2.08955
0.929008
0.540899
0.422121
0.38762
0.377943
0.375299
0.374608
0.374491
0.374654
0.375267
0.377113
0.38249
0.398159
0.443715
0.576087
0.960638
2.07792
0.950887
0.971646
2.09004
0.929043
0.540889
0.422115
0.387616
0.377938
0.37529
0.374603
0.37448
0.374645
0.375264
0.377103
0.382483
0.398157
0.443758
0.576352
0.961657
2.0807
0.951475
0.971766
2.09045
0.929205
0.540985
0.422162
0.387636
0.377945
0.375296
0.374601
0.374484
0.374643
0.375256
0.377094
0.382457
0.398094
0.443601
0.575991
0.961014
2.08029
0.951075
0.97226
2.09329
0.930261
0.541279
0.422219
0.387635
0.377934
0.375281
0.374592
0.37447
0.374633
0.375249
0.377084
0.382451
0.398081
0.443568
0.575898
0.960832
2.08037
0.951049
0.97189
2.0931
0.929741
0.540977
0.42209
0.387586
0.377914
0.375276
0.374583
0.374468
0.374626
0.375242
0.377077
0.382441
0.398073
0.443556
0.575857
0.960682
2.08015
0.951017
0.971808
2.09345
0.929652
0.5409
0.42205
0.387565
0.3779
0.37526
0.374573
0.374452
0.374614
0.37523
0.377064
0.382434
0.398072
0.443595
0.576042
0.961359
2.08211
0.951409
0.971568
2.09312
0.929208
0.540665
0.42195
0.387524
0.377879
0.375251
0.374559
0.374446
0.374602
0.375221
0.377055
0.38242
0.398053
0.443539
0.575868
0.960867
2.08124
0.951158
0.971509
2.09265
0.929006
0.540639
0.421959
0.387529
0.377876
0.37524
0.374551
0.374431
0.374592
0.375206
0.377041
0.382416
0.398063
0.443623
0.576158
0.961721
2.08331
0.951682
0.971971
2.09423
0.929816
0.540968
0.422067
0.387554
0.377872
0.375232
0.374534
0.374422
0.374574
0.375198
0.377028
0.382398
0.398045
0.443579
0.576041
0.961368
2.08256
0.951494
0.972166
2.09615
0.930401
0.541061
0.422048
0.387528
0.377853
0.375215
0.374525
0.374407
0.374567
0.375179
0.377011
0.382384
0.398035
0.443643
0.576349
0.962386
2.08497
0.952087
0.971754
2.09508
0.929661
0.540732
0.421925
0.387481
0.377828
0.375201
0.374505
0.374396
0.374546
0.375172
0.376994
0.382357
0.397986
0.443514
0.576065
0.961853
2.08435
0.95175
0.971826
2.09486
0.929747
0.540862
0.421998
0.38751
0.377835
0.375196
0.374503
0.374386
0.374544
0.375153
0.376979
0.382338
0.397948
0.443473
0.57602
0.961844
2.08451
0.951798
0.972153
2.09671
0.930453
0.541031
0.422008
0.387488
0.37781
0.375179
0.374481
0.374373
0.374522
0.37515
0.376966
0.382318
0.397916
0.443383
0.575844
0.961566
2.08426
0.951639
0.971663
2.09537
0.929646
0.540691
0.421889
0.387452
0.377801
0.375173
0.374483
0.374369
0.374527
0.375135
0.376955
0.3823
0.397866
0.443294
0.575646
0.961193
2.0838
0.951455
0.971757
2.09495
0.929684
0.540803
0.421952
0.387471
0.377796
0.375164
0.374464
0.374358
0.374506
0.375137
0.376949
0.382293
0.397858
0.443229
0.57545
0.960705
2.08296
0.951222
0.972041
2.09661
0.930357
0.540985
0.421982
0.387472
0.377796
0.375163
0.374472
0.374359
0.374519
0.375127