/*--------------------------------*- C++ -*----------------------------------*\
  =========                 |
  \\      /  F ield         | OpenFOAM: The Open Source CFD Toolbox
   \\    /   O peration     | Website:  https://openfoam.org
    \\  /    A nd           | Version:  6
     \\/     M anipulation  |
\*---------------------------------------------------------------------------*/
FoamFile
{
    version     2.0;
    format      ascii;
    class       volScalarField;
    location    "1";
    object      k;
}
// * * * * * * * * * * * * * * * * * * * * * * * * * * * * * * * * * * * * * //

dimensions      [0 2 -2 0 0 0 0];

internalField   nonuniform List<scalar> 
130000
(
0.468292
0.427525
0.403124
0.389185
0.38132
0.376951
0.374562
0.37328
0.372602
0.372253
0.372077
0.371999
0.371978
0.372003
0.37208
0.372233
0.372514
0.373013
0.37389
0.37542
0.459241
0.422872
0.400733
0.387921
0.380656
0.376602
0.37439
0.373197
0.372572
0.372244
0.372083
0.372006
0.371986
0.372004
0.37207
0.372202
0.372447
0.372875
0.373611
0.37485
0.46155
0.423424
0.400699
0.387758
0.380511
0.376494
0.374323
0.373152
0.372546
0.372225
0.372071
0.371993
0.371974
0.371986
0.37205
0.372171
0.372408
0.372824
0.373566
0.37485
0.461753
0.423457
0.400645
0.387667
0.380415
0.376402
0.374243
0.37308
0.372483
0.372165
0.372017
0.37194
0.371925
0.371937
0.372002
0.372122
0.37236
0.372774
0.373514
0.374788
0.461685
0.423396
0.400587
0.387609
0.380363
0.376355
0.374203
0.373044
0.372453
0.372137
0.371993
0.371917
0.371905
0.371916
0.371984
0.372104
0.372343
0.372755
0.373495
0.374761
0.461733
0.423408
0.400565
0.387576
0.380329
0.376324
0.374177
0.373022
0.372435
0.372121
0.37198
0.371905
0.371895
0.371907
0.371977
0.372097
0.372338
0.37275
0.373491
0.374756
0.462031
0.423503
0.400584
0.387566
0.38031
0.376304
0.37416
0.373006
0.372422
0.372109
0.37197
0.371895
0.371887
0.371898
0.37197
0.372089
0.372332
0.372742
0.373485
0.374747
0.462264
0.423597
0.400609
0.387565
0.380302
0.376295
0.374151
0.372998
0.372416
0.372103
0.371965
0.371889
0.371882
0.371893
0.371966
0.372085
0.37233
0.37274
0.373485
0.374747
0.462208
0.423567
0.400585
0.387545
0.380288
0.376283
0.374143
0.37299
0.372409
0.372095
0.371958
0.371881
0.371875
0.371884
0.371959
0.372076
0.372322
0.372731
0.373477
0.374738
0.46222
0.423557
0.400567
0.387528
0.380275
0.376274
0.374137
0.372985
0.372405
0.37209
0.371954
0.371875
0.37187
0.371879
0.371953
0.37207
0.372317
0.372727
0.373475
0.374736
0.462188
0.42357
0.400564
0.387518
0.380265
0.376263
0.374129
0.372975
0.372397
0.372081
0.371945
0.371865
0.37186
0.371867
0.371942
0.372057
0.372306
0.372714
0.373465
0.374725
0.462533
0.423706
0.400615
0.387533
0.380267
0.376258
0.374123
0.372968
0.37239
0.372072
0.371937
0.371856
0.371851
0.371857
0.371933
0.372048
0.372298
0.372707
0.37346
0.374721
0.462581
0.423782
0.400648
0.387538
0.380261
0.376246
0.37411
0.372953
0.372376
0.372057
0.371923
0.37184
0.371837
0.371841
0.371918
0.372032
0.372283
0.372691
0.373446
0.374707
0.463113
0.423987
0.400717
0.387552
0.380253
0.376231
0.374094
0.372938
0.372362
0.372044
0.37191
0.371828
0.371825
0.371829
0.371907
0.37202
0.372273
0.372682
0.37344
0.374703
0.463268
0.424059
0.400726
0.387535
0.380229
0.376207
0.374071
0.372918
0.372344
0.372027
0.371895
0.371812
0.37181
0.371814
0.371892
0.372005
0.372259
0.372669
0.373429
0.374692
0.463325
0.424072
0.400704
0.387506
0.380201
0.376183
0.374052
0.372901
0.37233
0.372014
0.371883
0.371801
0.3718
0.371804
0.371883
0.371997
0.372252
0.372664
0.373427
0.374692
0.463146
0.423985
0.400642
0.387462
0.380169
0.37616
0.374033
0.372887
0.372317
0.372004
0.371874
0.371793
0.371791
0.371797
0.371876
0.371991
0.372246
0.37266
0.373425
0.374692
0.462954
0.423951
0.400621
0.387447
0.380156
0.376151
0.374026
0.372883
0.372314
0.372002
0.371871
0.371792
0.37179
0.371796
0.371876
0.371992
0.372248
0.372663
0.37343
0.374701
0.463537
0.424194
0.400714
0.387481
0.380167
0.376155
0.374028
0.372885
0.372315
0.372005
0.371874
0.371796
0.371794
0.371802
0.371881
0.371999
0.372256
0.372674
0.373443
0.374717
0.463733
0.424303
0.400756
0.387495
0.38017
0.376157
0.374029
0.372889
0.37232
0.372012
0.37188
0.371804
0.371802
0.371811
0.37189
0.372011
0.372268
0.372689
0.373458
0.374736
0.463699
0.424304
0.400749
0.387488
0.380165
0.376157
0.374031
0.372895
0.372327
0.372022
0.371891
0.371818
0.371815
0.371828
0.371907
0.372031
0.372288
0.372714
0.373483
0.374767
0.463603
0.424342
0.400772
0.387501
0.38017
0.376162
0.374035
0.372903
0.372335
0.372034
0.371903
0.371832
0.371829
0.371845
0.371923
0.37205
0.372307
0.372735
0.373506
0.374793
0.464453
0.424734
0.400945
0.38758
0.380207
0.376185
0.374051
0.372919
0.37235
0.372052
0.37192
0.371854
0.37185
0.371869
0.371947
0.372078
0.372335
0.372769
0.37354
0.374834
0.464832
0.424963
0.401055
0.387635
0.380235
0.376204
0.374065
0.372934
0.372364
0.372068
0.371936
0.371871
0.371867
0.371889
0.371966
0.372099
0.372357
0.372792
0.373564
0.374862
0.464969
0.425078
0.401117
0.387673
0.380259
0.376224
0.374082
0.372953
0.372381
0.372089
0.371956
0.371894
0.371889
0.371914
0.37199
0.372128
0.372384
0.372825
0.373597
0.374903
0.465024
0.42523
0.401214
0.387732
0.380293
0.376248
0.374099
0.372969
0.372395
0.372104
0.371969
0.371909
0.371903
0.371929
0.372005
0.372144
0.3724
0.372843
0.373616
0.374926
0.466187
0.425807
0.401491
0.387871
0.380365
0.376291
0.374126
0.372991
0.372413
0.372121
0.371985
0.371926
0.371918
0.371946
0.372021
0.372162
0.372419
0.372866
0.37364
0.374958
0.466848
0.42622
0.40171
0.387986
0.380426
0.376325
0.374146
0.373005
0.372423
0.372129
0.371991
0.371932
0.371923
0.371951
0.372025
0.372167
0.372424
0.372873
0.37365
0.374973
0.46751
0.426619
0.401916
0.388091
0.38048
0.376353
0.374161
0.373014
0.372428
0.372134
0.371994
0.371935
0.371925
0.371953
0.372028
0.372171
0.372428
0.372881
0.373661
0.374993
0.468157
0.427001
0.402106
0.388182
0.38052
0.376369
0.374165
0.373012
0.372424
0.372129
0.371988
0.371928
0.371918
0.371946
0.372021
0.372165
0.372424
0.372879
0.373663
0.375002
0.468832
0.427398
0.402301
0.388274
0.38056
0.376383
0.374167
0.373009
0.372418
0.372121
0.37198
0.37192
0.37191
0.371938
0.372013
0.372157
0.372418
0.372876
0.373666
0.375013
0.469529
0.427811
0.402505
0.38837
0.380601
0.376398
0.374169
0.373004
0.372411
0.372112
0.371971
0.37191
0.371899
0.371927
0.372003
0.372148
0.372411
0.372872
0.373668
0.375024
0.470231
0.428232
0.402714
0.388469
0.380646
0.376415
0.374173
0.373001
0.372405
0.372104
0.371962
0.3719
0.37189
0.371918
0.371994
0.37214
0.372405
0.372869
0.373672
0.375036
0.470926
0.428649
0.402923
0.388569
0.380691
0.376432
0.374177
0.372999
0.3724
0.372098
0.371955
0.371893
0.371883
0.37191
0.371987
0.372134
0.372402
0.37287
0.373679
0.375053
0.47165
0.429085
0.403142
0.388675
0.380739
0.376453
0.374184
0.372999
0.372397
0.372093
0.37195
0.371887
0.371877
0.371904
0.371982
0.37213
0.3724
0.372872
0.373688
0.375072
0.472435
0.429561
0.403383
0.388794
0.380796
0.376479
0.374195
0.373003
0.372397
0.372091
0.371948
0.371884
0.371875
0.371902
0.371981
0.372129
0.372403
0.372878
0.373703
0.375097
0.473254
0.430059
0.403637
0.38892
0.380858
0.376508
0.374208
0.373008
0.372399
0.372091
0.371947
0.371882
0.371873
0.3719
0.37198
0.37213
0.372406
0.372886
0.373719
0.375123
0.474087
0.430566
0.403897
0.38905
0.380922
0.376538
0.374223
0.373014
0.372402
0.372092
0.371948
0.371883
0.371874
0.371901
0.371983
0.372133
0.372413
0.372897
0.373739
0.375155
0.474979
0.431107
0.404174
0.389188
0.38099
0.376571
0.374239
0.373022
0.372406
0.372094
0.371949
0.371884
0.371876
0.371903
0.371985
0.372137
0.372421
0.372909
0.37376
0.375189
0.475946
0.431695
0.404477
0.389342
0.381067
0.376609
0.374258
0.373032
0.372412
0.372098
0.371953
0.371886
0.371879
0.371906
0.37199
0.372144
0.372431
0.372924
0.373784
0.375227
0.476956
0.432313
0.404796
0.389504
0.381149
0.37665
0.374279
0.373043
0.372419
0.372102
0.371956
0.37189
0.371882
0.37191
0.371995
0.37215
0.372441
0.37294
0.37381
0.375267
0.477995
0.432948
0.405126
0.389672
0.381234
0.376693
0.374301
0.373055
0.372426
0.372108
0.371961
0.371894
0.371886
0.371915
0.372001
0.372159
0.372453
0.372958
0.373839
0.375311
0.479124
0.433636
0.405485
0.389855
0.381327
0.37674
0.374326
0.373069
0.372435
0.372114
0.371966
0.371898
0.371892
0.37192
0.372008
0.372167
0.372466
0.372977
0.373869
0.375358
0.480374
0.434399
0.405883
0.390062
0.381433
0.376796
0.374356
0.373086
0.372447
0.372122
0.371973
0.371905
0.371898
0.371927
0.372016
0.372178
0.37248
0.372998
0.373902
0.37541
0.481688
0.435208
0.406309
0.390282
0.381548
0.376856
0.37439
0.373106
0.372459
0.372132
0.371981
0.371912
0.371905
0.371934
0.372025
0.372189
0.372496
0.373021
0.373937
0.375464
0.483053
0.436041
0.406747
0.390509
0.381666
0.376917
0.374423
0.373125
0.372472
0.372141
0.371989
0.371919
0.371913
0.371942
0.372035
0.372201
0.372513
0.373046
0.373976
0.375524
0.484532
0.436935
0.407214
0.39075
0.381789
0.376982
0.374457
0.373145
0.372485
0.372151
0.371998
0.371927
0.371921
0.371951
0.372045
0.372214
0.372531
0.373073
0.374017
0.375588
0.486124
0.437896
0.407716
0.391009
0.381922
0.377051
0.374495
0.373167
0.3725
0.372162
0.372007
0.371936
0.37193
0.371961
0.372057
0.372229
0.372551
0.373101
0.374061
0.375656
0.487774
0.438893
0.408238
0.39128
0.382063
0.377126
0.374536
0.373192
0.372517
0.372175
0.372018
0.371946
0.37194
0.371972
0.372069
0.372245
0.372573
0.373133
0.374109
0.37573
0.489304
0.439869
0.408766
0.391561
0.382212
0.377205
0.37458
0.373219
0.372535
0.372189
0.37203
0.371958
0.371952
0.371984
0.372083
0.372262
0.372596
0.373167
0.374161
0.37581
0.491139
0.441042
0.409391
0.39189
0.382384
0.377297
0.374632
0.37325
0.372556
0.372205
0.372044
0.371971
0.371965
0.371998
0.372099
0.372282
0.372622
0.373204
0.374217
0.375897
0.493603
0.442441
0.410121
0.392269
0.382582
0.377403
0.374691
0.373286
0.372581
0.372224
0.372061
0.371986
0.37198
0.372014
0.372117
0.372303
0.372651
0.373245
0.374279
0.375991
0.495874
0.44383
0.410862
0.39266
0.38279
0.377516
0.374755
0.373326
0.372608
0.372246
0.372079
0.372004
0.371997
0.372032
0.372137
0.372328
0.372683
0.373289
0.374346
0.376094
0.498248
0.445271
0.411631
0.393067
0.383006
0.377633
0.374822
0.373368
0.372638
0.37227
0.3721
0.372023
0.372016
0.372052
0.37216
0.372354
0.372717
0.373338
0.374418
0.376205
0.500809
0.446819
0.412455
0.393502
0.383237
0.377759
0.374895
0.373414
0.37267
0.372296
0.372123
0.372045
0.372038
0.372075
0.372185
0.372385
0.372756
0.373392
0.374498
0.376326
0.503579
0.448492
0.413347
0.393975
0.383489
0.377897
0.374975
0.373465
0.372707
0.372325
0.372149
0.37207
0.372063
0.372101
0.372213
0.372418
0.372799
0.373451
0.374585
0.376457
0.506542
0.450285
0.414306
0.394484
0.383762
0.378048
0.375062
0.373521
0.372748
0.372359
0.372179
0.372098
0.372091
0.37213
0.372245
0.372456
0.372847
0.373517
0.374681
0.376601
0.509707
0.452195
0.415329
0.395029
0.384055
0.37821
0.375158
0.373584
0.372794
0.372397
0.372213
0.372131
0.372123
0.372164
0.372281
0.372498
0.3729
0.373589
0.374787
0.376759
0.513134
0.454263
0.416439
0.395622
0.384375
0.378389
0.375265
0.373655
0.372846
0.37244
0.372252
0.372168
0.37216
0.372202
0.372323
0.372547
0.37296
0.37367
0.374903
0.376932
0.51687
0.456519
0.417652
0.396272
0.384729
0.378589
0.375386
0.373736
0.372907
0.372491
0.372298
0.372212
0.372203
0.372246
0.372371
0.372601
0.373028
0.37376
0.375032
0.377122
0.520894
0.458954
0.418965
0.396978
0.385115
0.378808
0.37552
0.373826
0.372976
0.372549
0.372351
0.372262
0.372253
0.372297
0.372425
0.372664
0.373104
0.373861
0.375175
0.377331
0.525215
0.461557
0.420371
0.397736
0.38553
0.379046
0.375666
0.373926
0.373053
0.372615
0.37241
0.372319
0.37231
0.372356
0.372488
0.372734
0.37319
0.373973
0.375334
0.377563
0.529921
0.464386
0.421899
0.39856
0.385983
0.379306
0.375828
0.374038
0.37314
0.372689
0.372479
0.372385
0.372375
0.372422
0.372559
0.372814
0.373286
0.374099
0.37551
0.377818
0.535056
0.467474
0.42357
0.399465
0.386484
0.379596
0.37601
0.374166
0.37324
0.372776
0.372558
0.372462
0.372451
0.3725
0.372641
0.372907
0.373396
0.374241
0.375707
0.378101
0.540621
0.470828
0.425389
0.400454
0.387034
0.379917
0.376213
0.37431
0.373354
0.372875
0.37265
0.37255
0.372538
0.372589
0.372736
0.373012
0.373521
0.3744
0.375927
0.378415
0.546649
0.474455
0.427361
0.40153
0.387636
0.380272
0.376441
0.374474
0.373485
0.37299
0.372757
0.372653
0.372641
0.372694
0.372846
0.373133
0.373664
0.374582
0.376175
0.378766
0.553249
0.478424
0.429524
0.402714
0.388302
0.380669
0.376699
0.374661
0.373637
0.373124
0.372882
0.372774
0.37276
0.372815
0.372973
0.373273
0.373827
0.374787
0.376453
0.379157
0.560505
0.482792
0.43191
0.404027
0.389046
0.381116
0.376994
0.374877
0.373814
0.373281
0.373029
0.372916
0.3729
0.372957
0.373122
0.373435
0.374016
0.375021
0.376769
0.379595
0.568442
0.487581
0.434533
0.405474
0.389873
0.381618
0.377328
0.375126
0.374019
0.373464
0.3732
0.373082
0.373065
0.373123
0.373295
0.373623
0.374232
0.375288
0.377125
0.380087
0.577125
0.492811
0.437405
0.407068
0.390788
0.382179
0.377707
0.375412
0.374258
0.373678
0.373402
0.373277
0.373258
0.373319
0.373498
0.373842
0.374482
0.375595
0.37753
0.380643
0.58671
0.498581
0.44058
0.408835
0.39181
0.382812
0.378139
0.375741
0.374535
0.373928
0.373638
0.373507
0.373485
0.373548
0.373735
0.374097
0.374772
0.375947
0.377992
0.38127
0.597319
0.504974
0.444108
0.410809
0.392961
0.383532
0.378637
0.376126
0.374861
0.374225
0.373919
0.373779
0.373755
0.37382
0.374015
0.374397
0.37511
0.376354
0.378521
0.381984
0.609041
0.512054
0.448028
0.413014
0.394258
0.384353
0.379212
0.376575
0.375246
0.374576
0.374252
0.374103
0.374075
0.374141
0.374346
0.37475
0.375504
0.376825
0.379129
0.382795
0.622025
0.519897
0.452388
0.415483
0.395723
0.385292
0.379879
0.377102
0.375702
0.374994
0.374651
0.374491
0.374458
0.374525
0.37474
0.375167
0.375968
0.377375
0.379831
0.383724
0.636511
0.528659
0.457276
0.418266
0.39739
0.386375
0.380658
0.377725
0.376244
0.375494
0.375128
0.374955
0.374917
0.374985
0.37521
0.375662
0.376514
0.378017
0.380644
0.38479
0.652742
0.538499
0.462786
0.421427
0.399303
0.387633
0.381577
0.378468
0.376896
0.376097
0.375704
0.375516
0.37547
0.375538
0.375774
0.376253
0.377163
0.378774
0.381593
0.386023
0.670929
0.549554
0.469006
0.425019
0.4015
0.389097
0.38266
0.379354
0.377679
0.376826
0.376402
0.376196
0.37614
0.376207
0.376453
0.376962
0.377935
0.379666
0.382703
0.387451
0.691365
0.561991
0.476038
0.429113
0.404033
0.390809
0.383945
0.380418
0.378627
0.377711
0.377251
0.377024
0.376956
0.37702
0.377276
0.377818
0.378861
0.380728
0.384011
0.389119
0.714498
0.5761
0.484054
0.433816
0.406976
0.392827
0.385481
0.381703
0.379781
0.378793
0.378292
0.378039
0.377956
0.378014
0.37828
0.378856
0.379977
0.381996
0.385559
0.391073
0.7408
0.592194
0.493248
0.439261
0.410427
0.395229
0.387335
0.383271
0.381198
0.380127
0.379577
0.379293
0.37919
0.37924
0.379514
0.380126
0.381333
0.383524
0.387406
0.393382
0.770781
0.610613
0.503838
0.445594
0.414497
0.398104
0.389587
0.385197
0.382951
0.381784
0.381176
0.380854
0.380726
0.380762
0.381041
0.38169
0.382992
0.385378
0.389625
0.396125
0.805114
0.631781
0.516095
0.453005
0.419327
0.401575
0.392345
0.387583
0.385139
0.38386
0.383184
0.382815
0.382654
0.382671
0.382951
0.383637
0.385042
0.387648
0.392313
0.399414
0.844715
0.6563
0.530396
0.46175
0.425115
0.405803
0.395757
0.390567
0.387894
0.386485
0.385728
0.385302
0.385099
0.385087
0.385362
0.386084
0.3876
0.390453
0.395599
0.40339
0.890645
0.684882
0.547203
0.472157
0.432116
0.411007
0.400022
0.39434
0.391403
0.389844
0.388992
0.388496
0.388237
0.388186
0.388445
0.389197
0.390831
0.393963
0.399662
0.408247
0.944173
0.718388
0.567082
0.484633
0.440658
0.417477
0.405409
0.399162
0.395923
0.394193
0.393229
0.392649
0.392321
0.392214
0.392442
0.393215
0.394971
0.398413
0.404749
0.414251
1.00693
0.757897
0.590754
0.499715
0.451181
0.425606
0.412295
0.405404
0.401826
0.399904
0.398815
0.398137
0.397722
0.397539
0.397715
0.398493
0.400367
0.40415
0.411219
0.421779
1.08104
0.804871
0.619195
0.518131
0.464296
0.435952
0.421218
0.413604
0.409654
0.407526
0.406304
0.405519
0.405002
0.404719
0.404816
0.405569
0.40755
0.4117
0.419605
0.431384
1.16916
0.861132
0.653657
0.540849
0.48084
0.449304
0.432958
0.424548
0.420211
0.417886
0.416543
0.415654
0.415028
0.414626
0.41461
0.415303
0.417361
0.421891
0.43074
0.443912
1.27459
0.929004
0.695764
0.569162
0.501971
0.466777
0.448636
0.43939
0.434693
0.432222
0.430812
0.429866
0.429157
0.428639
0.42849
0.42908
0.431174
0.436079
0.445974
0.46071
1.40162
1.01148
0.74764
0.604809
0.529282
0.489943
0.469858
0.4598
0.454846
0.452368
0.451039
0.450173
0.449498
0.448947
0.448707
0.449194
0.451294
0.456562
0.467594
0.484037
1.55579
1.11243
0.812031
0.650072
0.564912
0.520934
0.49882
0.488069
0.483086
0.480889
0.479962
0.479509
0.479196
0.47891
0.478824
0.479382
0.481586
0.487278
0.499572
0.517818
1.74404
1.23663
0.892275
0.707739
0.611488
0.562378
0.538211
0.526994
0.522369
0.520963
0.521053
0.521719
0.522538
0.523318
0.524163
0.525486
0.528354
0.534893
0.548823
0.569008
1.97509
1.38961
0.991899
0.780605
0.67158
0.616769
0.590505
0.579085
0.575332
0.575487
0.577638
0.58075
0.584293
0.587954
0.591688
0.595748
0.60112
0.610092
0.626975
0.649731
2.25914
1.57663
1.11313
0.869867
0.746
0.684639
0.655959
0.644384
0.641961
0.644631
0.650381
0.658119
0.667257
0.677354
0.688151
0.699563
0.712194
0.728145
0.752025
0.779925
2.6058
1.79929
1.2532
0.971516
0.830189
0.760817
0.728691
0.716364
0.715292
0.721316
0.732499
0.747863
0.766924
0.78931
0.814662
0.84249
0.872653
0.906395
0.947719
0.988651
3.01545
2.04724
1.39742
1.07061
0.909216
0.829762
0.792235
0.777612
0.777079
0.786673
0.804781
0.830795
0.864671
0.906771
0.957324
1.01597
1.0819
1.15498
1.23669
1.30978
3.45171
2.2854
1.51236
1.13845
0.957727
0.867251
0.822772
0.804265
0.803023
0.815535
0.84081
0.878731
0.929763
0.996638
1.08189
1.18705
1.31233
1.45831
1.6224
1.76352
3.75824
2.44644
1.5448
1.143
0.960711
0.871354
0.826243
0.806278
0.803896
0.816406
0.843699
0.887401
0.950776
1.03868
1.15725
1.31131
1.50267
1.74472
2.0423
2.28378
3.39913
1.97135
1.03899
0.708367
0.577059
0.514564
0.482309
0.467355
0.465006
0.473691
0.493558
0.525903
0.57335
0.640019
0.732141
0.858637
1.03435
1.30233
1.80698
2.2706
2.08903
1.02914
0.669292
0.529564
0.469838
0.439139
0.422235
0.414317
0.413838
0.420499
0.434727
0.457604
0.491101
0.538576
0.605931
0.704021
0.854391
1.10135
1.50073
2.95775
0.382639
0.378127
0.375502
0.37402
0.373196
0.372747
0.372507
0.372384
0.372326
0.372305
0.372311
0.372344
0.372416
0.372551
0.372799
0.373246
0.374043
0.375451
0.377921
0.38216
0.381159
0.377308
0.374977
0.373638
0.372885
0.372472
0.372251
0.372137
0.372082
0.372062
0.372065
0.372093
0.372156
0.372276
0.372497
0.372898
0.373608
0.374847
0.37697
0.380474
0.381241
0.377221
0.374839
0.373497
0.372752
0.372348
0.372133
0.372023
0.371969
0.37195
0.371952
0.371978
0.372035
0.372149
0.37236
0.372745
0.373439
0.37467
0.376825
0.38048
0.381042
0.377068
0.374705
0.373373
0.372631
0.37223
0.372015
0.371905
0.371851
0.371831
0.371832
0.371857
0.371914
0.372026
0.372235
0.372619
0.373309
0.374533
0.376673
0.380294
0.38097
0.377018
0.374666
0.373341
0.372603
0.372204
0.37199
0.371881
0.371826
0.371806
0.371807
0.371832
0.371888
0.371999
0.372208
0.37259
0.373277
0.374494
0.376621
0.38022
0.380966
0.377009
0.37466
0.373337
0.372601
0.372204
0.37199
0.371882
0.371827
0.371807
0.371808
0.371833
0.371889
0.372
0.372208
0.37259
0.373276
0.37449
0.37661
0.380198
0.380959
0.377005
0.374658
0.373338
0.372604
0.372208
0.371995
0.371887
0.371832
0.371812
0.371813
0.371837
0.371893
0.372004
0.372213
0.372593
0.373279
0.37449
0.376607
0.380187
0.380966
0.37701
0.374664
0.373345
0.372611
0.372216
0.372003
0.371895
0.371841
0.371821
0.371822
0.371846
0.371902
0.372013
0.372222
0.372603
0.373289
0.3745
0.376616
0.380192
0.380971
0.377014
0.374667
0.373349
0.372615
0.372221
0.372009
0.371901
0.371847
0.371827
0.371828
0.371851
0.371908
0.372018
0.372228
0.372608
0.373295
0.374505
0.376622
0.380195
0.380995
0.377025
0.374673
0.373353
0.37262
0.372225
0.372013
0.371906
0.371852
0.371832
0.371833
0.371857
0.371914
0.372024
0.372234
0.372615
0.373303
0.374515
0.376633
0.380207
0.380998
0.377024
0.37467
0.37335
0.372617
0.372223
0.372011
0.371904
0.37185
0.37183
0.371831
0.371855
0.371912
0.372022
0.372233
0.372614
0.373304
0.374516
0.376636
0.380211
0.381007
0.377023
0.374665
0.373344
0.37261
0.372216
0.372005
0.371898
0.371845
0.371825
0.371827
0.37185
0.371908
0.372019
0.372231
0.372613
0.373304
0.374518
0.376642
0.380219
0.380997
0.37701
0.374649
0.373328
0.372594
0.372201
0.37199
0.371884
0.371831
0.371811
0.371814
0.371837
0.371896
0.372006
0.372219
0.372601
0.373294
0.37451
0.376637
0.380216
0.380999
0.377001
0.374635
0.373312
0.372578
0.372185
0.371974
0.371869
0.371816
0.371797
0.371799
0.371824
0.371882
0.371994
0.372207
0.372591
0.373286
0.374504
0.376635
0.380218
0.380985
0.376982
0.374613
0.373291
0.372556
0.372164
0.371953
0.371848
0.371796
0.371777
0.37178
0.371804
0.371863
0.371975
0.372189
0.372573
0.373269
0.374489
0.376623
0.380207
0.380971
0.376965
0.374595
0.373273
0.372539
0.372148
0.371937
0.371833
0.371781
0.371762
0.371764
0.371789
0.371848
0.37196
0.372175
0.37256
0.373259
0.374481
0.376618
0.380206
0.380924
0.376935
0.374571
0.373253
0.37252
0.372131
0.371921
0.371817
0.371764
0.371746
0.371748
0.371773
0.371833
0.371945
0.372161
0.372546
0.373246
0.37447
0.376609
0.380199
0.380917
0.37693
0.374565
0.373245
0.372512
0.372123
0.371913
0.371809
0.371757
0.371738
0.371741
0.371766
0.371826
0.371939
0.372155
0.372542
0.373243
0.374469
0.376611
0.380204
0.380968
0.376946
0.374568
0.373244
0.372509
0.372119
0.371909
0.371806
0.371753
0.371735
0.371738
0.371763
0.371823
0.371937
0.372153
0.372541
0.373244
0.374472
0.376617
0.380212
0.380982
0.376955
0.374575
0.37325
0.372515
0.372125
0.371915
0.371811
0.371759
0.37174
0.371743
0.371769
0.371829
0.371943
0.37216
0.37255
0.373254
0.374485
0.376633
0.380231
0.380968
0.376956
0.374583
0.373261
0.372527
0.372138
0.371927
0.371824
0.371771
0.371753
0.371755
0.371782
0.371841
0.371957
0.372175
0.372567
0.373272
0.374507
0.376658
0.380262
0.380985
0.376977
0.374602
0.373279
0.372545
0.372154
0.371944
0.37184
0.371787
0.371769
0.371772
0.371799
0.371859
0.371975
0.372194
0.372587
0.373294
0.374533
0.376687
0.380296
0.381077
0.377025
0.374636
0.373305
0.372569
0.372177
0.371966
0.371863
0.37181
0.371793
0.371795
0.371823
0.371883
0.372002
0.372221
0.372618
0.373327
0.374571
0.376728
0.380346
0.381121
0.377058
0.374663
0.373329
0.372591
0.372199
0.371988
0.371884
0.371831
0.371814
0.371817
0.371846
0.371906
0.372026
0.372245
0.372645
0.373355
0.374603
0.376765
0.38039
0.381165
0.37709
0.374691
0.373355
0.372617
0.372224
0.372013
0.371909
0.371856
0.37184
0.371842
0.371873
0.371933
0.372055
0.372275
0.372679
0.373391
0.374646
0.376812
0.380448
0.381193
0.377113
0.374712
0.373373
0.372635
0.372241
0.37203
0.371927
0.371873
0.371858
0.37186
0.371891
0.371951
0.372074
0.372295
0.372701
0.373416
0.374675
0.376846
0.380492
0.381255
0.37715
0.374737
0.373393
0.372653
0.372258
0.372047
0.371943
0.37189
0.371875
0.371877
0.371909
0.371969
0.372094
0.372315
0.372725
0.373442
0.374708
0.376886
0.380547
0.381294
0.377171
0.37475
0.373401
0.372659
0.372263
0.372052
0.371948
0.371894
0.371879
0.371881
0.371913
0.371974
0.3721
0.372322
0.372733
0.373454
0.374725
0.376911
0.380584
0.381333
0.37719
0.374761
0.373407
0.372662
0.372265
0.372054
0.371949
0.371896
0.371881
0.371883
0.371915
0.371976
0.372103
0.372326
0.37274
0.373464
0.374742
0.376938
0.380627
0.381364
0.377202
0.374762
0.373403
0.372657
0.372258
0.372046
0.371942
0.371889
0.371873
0.371876
0.371908
0.371969
0.372096
0.372321
0.372737
0.373465
0.374749
0.376955
0.380659
0.381397
0.377214
0.374763
0.373398
0.37265
0.37225
0.372038
0.371933
0.37188
0.371864
0.371867
0.371899
0.37196
0.372088
0.372314
0.372732
0.373464
0.374755
0.376973
0.380695
0.381428
0.377224
0.374762
0.373392
0.372641
0.372239
0.372027
0.371921
0.371869
0.371852
0.371855
0.371887
0.371949
0.372077
0.372306
0.372726
0.373462
0.37476
0.376991
0.380731
0.381463
0.377237
0.374764
0.373387
0.372633
0.37223
0.372017
0.371911
0.371858
0.371842
0.371845
0.371876
0.37194
0.372068
0.372298
0.37272
0.373461
0.374766
0.377011
0.380769
0.381502
0.377253
0.374768
0.373384
0.372628
0.372223
0.37201
0.371903
0.371851
0.371834
0.371837
0.371868
0.371932
0.372061
0.372293
0.372718
0.373465
0.374778
0.377036
0.380814
0.381545
0.377273
0.374775
0.373385
0.372625
0.372219
0.372005
0.371897
0.371845
0.371827
0.371832
0.371862
0.371927
0.372056
0.37229
0.372717
0.37347
0.37479
0.377063
0.380862
0.381596
0.377299
0.374787
0.37339
0.372627
0.372219
0.372004
0.371896
0.371844
0.371825
0.37183
0.371861
0.371926
0.372056
0.372292
0.372722
0.37348
0.37481
0.377098
0.380919
0.381651
0.377328
0.374802
0.373397
0.37263
0.37222
0.372005
0.371896
0.371844
0.371825
0.37183
0.37186
0.371927
0.372056
0.372295
0.372727
0.373492
0.37483
0.377135
0.380978
0.381713
0.377362
0.374821
0.373408
0.372638
0.372225
0.372009
0.371899
0.371847
0.371828
0.371833
0.371863
0.371931
0.372061
0.372302
0.372738
0.373509
0.374857
0.377179
0.381047
0.381778
0.377399
0.374841
0.37342
0.372646
0.372231
0.372014
0.371903
0.371851
0.371832
0.371837
0.371867
0.371936
0.372067
0.37231
0.372749
0.373527
0.374884
0.377224
0.381118
0.381849
0.377439
0.374864
0.373434
0.372656
0.372239
0.372022
0.37191
0.371858
0.371838
0.371844
0.371874
0.371943
0.372075
0.372321
0.372764
0.373548
0.374917
0.377276
0.381198
0.381919
0.377478
0.374887
0.373449
0.372667
0.372248
0.37203
0.371917
0.371865
0.371845
0.371851
0.371881
0.371951
0.372084
0.372332
0.372779
0.373571
0.374951
0.37733
0.381282
0.381973
0.377514
0.374911
0.373466
0.37268
0.372259
0.372039
0.371926
0.371874
0.371854
0.37186
0.37189
0.371961
0.372095
0.372346
0.372797
0.373596
0.37499
0.37739
0.381375
0.382057
0.377569
0.374945
0.373487
0.372695
0.372271
0.37205
0.371936
0.371883
0.371863
0.371869
0.371899
0.371971
0.372107
0.37236
0.372815
0.373623
0.37503
0.377453
0.381473
0.3822
0.377643
0.374986
0.373513
0.372713
0.372285
0.372062
0.371947
0.371894
0.371873
0.371879
0.37191
0.371983
0.37212
0.372376
0.372836
0.373653
0.375074
0.377522
0.38158
0.382309
0.377708
0.375026
0.373539
0.372731
0.3723
0.372075
0.371959
0.371905
0.371884
0.371891
0.371922
0.371995
0.372134
0.372393
0.372859
0.373685
0.375121
0.377596
0.381693
0.382423
0.377776
0.375067
0.373566
0.372751
0.372316
0.372089
0.371973
0.371919
0.371897
0.371904
0.371935
0.372009
0.37215
0.372413
0.372883
0.373719
0.375172
0.377675
0.381816
0.382546
0.377849
0.375111
0.373595
0.372773
0.372334
0.372105
0.371988
0.371933
0.371912
0.371918
0.37195
0.372025
0.372167
0.372433
0.37291
0.373756
0.375227
0.37776
0.381948
0.382678
0.377928
0.37516
0.373628
0.372797
0.372354
0.372123
0.372005
0.371949
0.371928
0.371934
0.371967
0.372042
0.372187
0.372456
0.37294
0.373797
0.375287
0.377852
0.38209
0.382821
0.378015
0.375213
0.373664
0.372824
0.372376
0.372143
0.372024
0.371967
0.371946
0.371952
0.371985
0.372062
0.372209
0.372482
0.372972
0.373841
0.375352
0.377951
0.382244
0.382975
0.378108
0.375272
0.373704
0.372854
0.372402
0.372166
0.372045
0.371988
0.371966
0.371973
0.372006
0.372084
0.372233
0.37251
0.373008
0.37389
0.375422
0.378059
0.382409
0.383143
0.378211
0.375336
0.373748
0.372888
0.37243
0.372191
0.37207
0.372012
0.37199
0.371996
0.37203
0.372109
0.37226
0.372542
0.373048
0.373943
0.375499
0.378175
0.382589
0.383325
0.378323
0.375407
0.373798
0.372926
0.372462
0.37222
0.372097
0.372038
0.372016
0.372022
0.372057
0.372137
0.372291
0.372577
0.373091
0.374001
0.375583
0.378302
0.382783
0.383523
0.378446
0.375486
0.373853
0.372969
0.372499
0.372254
0.372129
0.372069
0.372047
0.372053
0.372088
0.372169
0.372326
0.372617
0.37314
0.374066
0.375675
0.37844
0.382994
0.383738
0.37858
0.375573
0.373914
0.373017
0.37254
0.372291
0.372165
0.372104
0.372082
0.372087
0.372124
0.372206
0.372366
0.372662
0.373195
0.374137
0.375775
0.37859
0.383223
0.383974
0.378728
0.375669
0.373983
0.373071
0.372588
0.372334
0.372206
0.372144
0.372122
0.372127
0.372164
0.372248
0.372411
0.372712
0.373256
0.374216
0.375887
0.378755
0.383472
0.38423
0.37889
0.375776
0.374061
0.373133
0.372641
0.372384
0.372254
0.37219
0.372167
0.372172
0.372211
0.372295
0.372462
0.37277
0.373325
0.374304
0.376009
0.378936
0.383744
0.384511
0.37907
0.375895
0.374148
0.373203
0.372703
0.372441
0.372308
0.372243
0.37222
0.372225
0.372264
0.37235
0.372521
0.372835
0.373402
0.374403
0.376144
0.379134
0.384042
0.38482
0.379268
0.376028
0.374246
0.373282
0.372773
0.372506
0.372371
0.372305
0.372281
0.372286
0.372326
0.372414
0.372588
0.372909
0.373489
0.374513
0.376294
0.379352
0.384367
0.385159
0.379487
0.376177
0.374357
0.373373
0.372854
0.372581
0.372444
0.372376
0.372352
0.372356
0.372397
0.372486
0.372665
0.372994
0.373588
0.374637
0.376461
0.379593
0.384725
0.385532
0.379731
0.376344
0.374482
0.373477
0.372946
0.372668
0.372528
0.372458
0.372433
0.372437
0.372479
0.372571
0.372754
0.373091
0.373701
0.374776
0.376647
0.37986
0.385118
0.385944
0.380002
0.376532
0.374625
0.373596
0.373053
0.372768
0.372625
0.372553
0.372528
0.372532
0.372575
0.372669
0.372857
0.373202
0.373829
0.374933
0.376856
0.380156
0.385551
0.3864
0.380305
0.376743
0.374788
0.373733
0.373177
0.372885
0.372738
0.372665
0.372639
0.372642
0.372686
0.372782
0.372976
0.373331
0.373976
0.375112
0.37709
0.380486
0.386031
0.386906
0.380644
0.376983
0.374974
0.37389
0.37332
0.37302
0.37287
0.372794
0.372768
0.372771
0.372816
0.372915
0.373114
0.373479
0.374144
0.375315
0.377354
0.380855
0.386562
0.38747
0.381025
0.377255
0.375187
0.374073
0.373487
0.373179
0.373025
0.372947
0.372919
0.372922
0.372968
0.37307
0.373275
0.373652
0.374338
0.375547
0.377652
0.381268
0.387153
0.388099
0.381455
0.377565
0.375432
0.374284
0.373681
0.373364
0.373206
0.373125
0.373096
0.3731
0.373147
0.373251
0.373463
0.373853
0.374562
0.375812
0.377991
0.381732
0.387812
0.388804
0.38194
0.377919
0.375716
0.374531