/*--------------------------------*- C++ -*----------------------------------*\
  =========                 |
  \\      /  F ield         | OpenFOAM: The Open Source CFD Toolbox
   \\    /   O peration     | Website:  https://openfoam.org
    \\  /    A nd           | Version:  6
     \\/     M anipulation  |
\*---------------------------------------------------------------------------*/
FoamFile
{
    version     2.0;
    format      ascii;
    class       volScalarField;
    location    "1";
    object      nut;
}
// * * * * * * * * * * * * * * * * * * * * * * * * * * * * * * * * * * * * * //

dimensions      [0 2 -1 0 0 0 0];

internalField   nonuniform List<scalar> 
10000
(
0.000162435
0.000484271
0.000359927
0.000380331
0.000495177
0.000647184
0.000761806
0.000819733
0.000842073
0.000847191
0.000841643
0.000822855
0.000780519
0.000700423
0.000581446
0.000456859
0.00037681
0.000376421
0.000499158
0.000140589
9.95853e-05
0.000360076
0.000331931
0.000412817
0.000571312
0.00072256
0.000806417
0.00083893
0.000848896
0.00085026
0.000846672
0.000836055
0.000810757
0.000756317
0.000657682
0.000523692
0.000400607
0.000332307
0.00033344
8.603e-05
0.000110863
0.000355592
0.000318784
0.000385252
0.000533129
0.000689725
0.000787216
0.00082953
0.000844251
0.000847477
0.000844321
0.000833313
0.000807201
0.000752674
0.000657635
0.000533815
0.000426259
0.000378548
0.000413693
9.67646e-05
0.000108605
0.000345528
0.000317455
0.000390593
0.00054349
0.000699585
0.000792759
0.000831492
0.000844306
0.000846644
0.000843009
0.000831556
0.000804708
0.000748857
0.000651882
0.00052606
0.000416778
0.000366663
0.000397068
9.35273e-05
0.00011173
0.000391612
0.000348936
0.000418794
0.000566717
0.000712944
0.000798048
0.000833069
0.000844597
0.000846516
0.000842679
0.000830959
0.000803618
0.000746982
0.00064923
0.000523288
0.000414563
0.000364963
0.000395151
9.3583e-05
0.000121527
0.000396376
0.000347807
0.000417332
0.000565436
0.000712304
0.000797865
0.000833056
0.000844616
0.000846509
0.000842566
0.000830562
0.00080253
0.000744534
0.000644959
0.000517856
0.000409412
0.000360877
0.000392277
9.34103e-05
0.000105296
0.0003721
0.000332941
0.000404287
0.000553901
0.000704577
0.000794068
0.000831501
0.000844032
0.000846289
0.000842445
0.000830327
0.000801782
0.000742408
0.000640288
0.000510392
0.000400387
0.000351579
0.000384279
9.33194e-05
0.000107453
0.000340008
0.000310143
0.000382772
0.000535046
0.00069289
0.000788956
0.000829679
0.000843449
0.000846144
0.000842489
0.000830526
0.000802114
0.000742567
0.000639167
0.000506145
0.000391346
0.000335161
0.000352363
9.32579e-05
0.000108332
0.000337971
0.000310128
0.000382401
0.000534581
0.000692603
0.000788868
0.000829672
0.000843468
0.000846189
0.000842623
0.000830919
0.000803213
0.000745318
0.000644963
0.000515961
0.000405505
0.000355737
0.000387431
9.33165e-05
0.000111802
0.000341593
0.000314719
0.000390573
0.000544914
0.00070093
0.000793343
0.000831573
0.000844183
0.000846438
0.000842705
0.000830972
0.00080329
0.000745259
0.000643882
0.000511971
0.0003965
0.00033874
0.000354234
9.32583e-05
0.000122594
0.000389758
0.000343266
0.000409201
0.000555484
0.000704502
0.000793705
0.000831265
0.00084392
0.000846277
0.000842611
0.000830992
0.000803811
0.000747536
0.000650429
0.00052517
0.000416753
0.000367
0.000396423
9.33442e-05
0.000109743
0.000343206
0.000313907
0.000387941
0.000541078
0.000697622
0.000791487
0.000830747
0.000843826
0.000846214
0.000842404
0.00083039
0.000802258
0.000744077
0.000644279
0.000517023
0.000408518
0.000359874
0.000390958
9.32667e-05
0.000121065
0.00039074
0.000343498
0.000408396
0.000554235
0.000703523
0.000793222
0.000831075
0.000843833
0.000846171
0.00084233
0.00083016
0.000801508
0.000741989
0.000639755
0.00050985
0.000399888
0.000351034
0.000383471
9.32064e-05
0.000105226
0.000343246
0.000314545
0.000387418
0.00053975
0.000696308
0.000790716
0.000830409
0.000843703
0.000846189
0.000842413
0.000830324
0.000801726
0.000741939
0.000638359
0.000505364
0.000390719
0.000334611
0.000351713
9.31546e-05
0.000107508
0.000385412
0.000344843
0.000417051
0.000566486
0.000713403
0.000798484
0.000833313
0.000844707
0.000846551
0.000842633
0.000830693
0.000802679
0.000744355
0.000643619
0.000514589
0.000404408
0.000354869
0.000386532
9.32122e-05
0.000108146
0.000373083
0.000332479
0.000400118
0.000547531
0.000699125
0.000791038
0.000830171
0.000843507
0.000846121
0.000842495
0.000830666
0.000802628
0.000743911
0.00064174
0.000509559
0.000394517
0.00033735
0.000353217
9.31464e-05
0.000111125
0.000343738
0.000314559
0.000389075
0.000542558
0.000698893
0.000792224
0.000831091
0.000843992
0.00084635
0.000842641
0.000830907
0.000803361
0.000746174
0.000647556
0.000521003
0.000412407
0.000363325
0.000393787
9.32203e-05
0.00012106
0.000389144
0.000342722
0.000408816
0.000555261
0.000704428
0.000793697
0.000831269
0.000843921
0.000846275
0.000842557
0.000830694
0.000802637
0.000744018
0.000642559
0.000512569
0.000401699
0.000351814
0.000383388
9.31369e-05
0.000105344
0.000340579
0.00031258
0.000387351
0.000540863
0.000697556
0.000791457
0.000830737
0.000843853
0.000846318
0.000842679
0.000830988
0.000803313
0.000745229
0.00064372
0.000511653
0.000396032
0.000338055
0.000353081
9.31105e-05
0.000108315
0.000375744
0.000336378
0.000405202
0.000553157
0.000703384
0.00079328
0.000831129
0.000843888
0.000846304
0.000842697
0.000831167
0.000804088
0.000747863
0.000650637
0.000525073
0.000416311
0.000366218
0.000395151
9.31929e-05
0.000111014
0.000343445
0.000313877
0.000387495
0.00054028
0.00069687
0.000791043
0.000830552
0.000843777
0.000846273
0.000842604
0.00083082
0.000803044
0.00074527
0.000645632
0.000518024
0.000408848
0.00035953
0.000389867
9.31219e-05
0.00012096
0.000389287
0.000342273
0.000406685
0.000552247
0.000701963
0.000792389
0.000830734
0.000843747
0.000846265
0.000842657
0.000830921
0.000803041
0.000744615
0.000643242
0.000513128
0.000402008
0.000351856
0.000383061
9.30764e-05
0.000105355
0.000342247
0.000313579
0.000384949
0.000536306
0.000693402
0.000789125
0.000829745
0.000843508
0.000846272
0.000842832
0.000831387
0.000804084
0.000746452
0.000645183
0.000512835
0.00039662
0.000338122
0.000352743
9.3053e-05
0.000108365
0.000386266
0.000345213
0.000413568
0.00056086
0.000708625
0.000795894
0.000832231
0.000844348
0.000846568
0.000843025
0.000831823
0.000805445
0.000750314
0.000654089
0.000528535
0.000418739
0.000367383
0.000395193
9.31524e-05
0.00011106
0.000384266
0.00034121
0.000408015
0.000554639
0.000703928
0.000793429
0.000831177
0.000843929
0.000846374
0.000842862
0.00083154
0.000804836
0.000749046
0.000651834
0.000525377
0.000415191
0.000363792
0.000391725
9.31089e-05
0.000120861
0.000396132
0.000347243
0.000412262
0.000557994
0.000706185
0.000794601
0.000831684
0.000844116
0.000846412
0.000842801
0.000831375
0.000804538
0.000748624
0.000651413
0.000525141
0.000415183
0.000363903
0.000391796
9.30975e-05
0.000105014
0.000380842
0.000339946
0.000409268
0.000557368
0.000706446
0.000794867
0.000831804
0.000844142
0.000846367
0.000842664
0.000831065
0.000803922
0.000747586
0.000650053
0.000523861
0.000414303
0.000363399
0.000391512
9.30774e-05
0.000106886
0.00038074
0.00033957
0.000410598
0.000559633
0.000708417
0.000795953
0.000832265
0.000844297
0.000846367
0.000842513
0.00083065
0.000802996
0.000745841
0.000647487
0.000521143
0.000412212
0.000362119
0.000390879
9.30507e-05
0.000106603
0.000372484
0.000332063
0.000399774
0.000547281
0.000699019
0.000791031
0.000830185
0.000843494
0.000846034
0.000842267
0.000830194
0.000801895
0.000743447
0.000643374
0.000515992
0.000407443
0.000358552
0.000388828
9.30105e-05
0.000106584
0.000341575
0.0003131
0.000387406
0.000540658
0.000697369
0.000791393
0.000830729
0.000843823
0.00084619
0.000842296
0.000830024
0.000801186
0.000741369
0.000638799
0.000508697
0.00039866
0.000349579
0.000381292
9.29566e-05
0.000106662
0.000375749
0.000335914
0.000403621
0.000550928
0.000701516
0.000792259
0.00083069
0.000843704
0.00084615
0.000842365
0.000830232
0.000801525
0.000741537
0.0006377
0.000504516
0.000389765
0.000333447
0.000349987
9.29204e-05
0.00010661
0.0003432
0.000314222
0.000386632
0.00053857
0.000695274
0.000790151
0.000830183
0.000843641
0.000846206
0.000842517
0.00083064
0.000802635
0.000744291
0.000643476
0.000514266
0.000403796
0.000353805
0.000384621
9.2997e-05
0.000106712
0.000383553
0.000343234
0.000414907
0.000564063
0.000711567
0.000797542
0.000832935
0.000844576
0.000846506
0.000842615
0.000830701
0.000802719
0.000744244
0.000642422
0.000510346
0.000394941
0.00033709
0.000351992
9.29567e-05
0.000106641
0.000372769
0.000331616
0.000397674
0.000544173
0.000696343
0.000789538
0.000829547
0.000843273
0.000846013
0.000842415
0.000830683
0.00080322
0.000746498
0.000648924
0.000523437
0.000414992
0.000365023
0.000393628
9.30609e-05
0.000106643
0.000343383
0.000314532
0.000386392
0.000538115
0.00069496
0.000790053
0.000830174
0.000843625
0.000846113
0.000842261
0.00083008
0.000801629
0.000742992
0.000642769
0.000515374
0.00040692
0.000358109
0.000388408
9.30051e-05
0.000106759
0.00038549
0.000344873
0.000414902
0.000563062
0.000710481
0.000796902
0.000832652
0.00084444
0.000846355
0.000842262
0.000829819
0.000800763
0.000740705
0.000638027
0.000508079
0.000398314
0.000349418
0.000381174
9.2968e-05
0.000106699
0.000379971
0.000338835
0.000409662
0.000558523
0.000707517
0.00079547
0.000832075
0.000844236
0.000846303
0.000842282
0.000829876
0.000800755
0.000740241
0.000636065
0.000503081
0.00038889
0.000333051
0.000349868
9.294e-05
0.000106662
0.000372414
0.0003321
0.00039989
0.000547469
0.000699227
0.000791205
0.000830317
0.000843593
0.000846106
0.000842288
0.000830079
0.000801399
0.000742003
0.000640214
0.000510952
0.000401366
0.000352396
0.000383977
9.30201e-05
0.000106646
0.000341644
0.000313203
0.000387544
0.000540822
0.000697522
0.000791516
0.000830827
0.000843908
0.000846262
0.000842361
0.000830077
0.00080116
0.000740937
0.000636992
0.000503962
0.000389518
0.000333483
0.000350309
9.29748e-05
0.000106752
0.000376009
0.000336171
0.000403942
0.000551299
0.000701838
0.000792479
0.000830835
0.0008438
0.000846214
0.000842408
0.000830324
0.000801963
0.00074316
0.000642068
0.000513081
0.00040316
0.000353656
0.000384812
9.30699e-05
0.000106724
0.000343587
0.000314611
0.000387188
0.000539252
0.000695856
0.000790515
0.000830384
0.000843745
0.000846218
0.000842381
0.000830205
0.000801601
0.000742151
0.000639472
0.000507472
0.00039304
0.000336264
0.000352009
9.30381e-05
0.000106846
0.000384096
0.000343855
0.000416062
0.000565516
0.000712748
0.00079822
0.000833276
0.000844742
0.000846549
0.000842481
0.000830242
0.000801821
0.000743357
0.000643637
0.000517095
0.000409502
0.000361385
0.000392183
9.31419e-05
0.000106789
0.000372899
0.000332109
0.000399497
0.000546776
0.000698567
0.000790814
0.000830156
0.00084356
0.000846118
0.000842269
0.000829868
0.000800602
0.000739901
0.000636169
0.000505463
0.000395907
0.000347932
0.000381018
9.30805e-05
0.000106796
0.000342365
0.000313685
0.0003879
0.000541175
0.000697847
0.000791754
0.000830993
0.000844044
0.000846414
0.000842564
0.000830336
0.000801345
0.000740509
0.000634966
0.000499893
0.000384401
0.000328908
0.000348831
9.30674e-05
0.000106926
0.000377104
0.000336707
0.000403867
0.000550926
0.000701502
0.000792326
0.000830816
0.000843868
0.000846373
0.000842741
0.00083102
0.000803301
0.000745221
0.000643808
0.000511795
0.000395952
0.000337284
0.000350658
9.31811e-05
0.000106944
0.000344887
0.000315284
0.000386406
0.000537636
0.000694414
0.00078975
0.000830108
0.000843713
0.000846339
0.000842714
0.000831038
0.000803719
0.00074722
0.000649889
0.000524562
0.00041621
0.000366442
0.000395562
9.33002e-05
0.000107179
0.000387709
0.000346292
0.000415071
0.00056264
0.000710081
0.000796766
0.000832694
0.000844575
0.000846569
0.000842623
0.000830531
0.000802293
0.000743948
0.000643972
0.000516644
0.000408171
0.0003595
0.000390316
9.3272e-05
0.00010745
0.000383641
0.000341549
0.000410116
0.000557727
0.000706579
0.000794981
0.000831954
0.000844307
0.00084649
0.000842596
0.000830409
0.000801738
0.000742156
0.000639824
0.000509852
0.000399883
0.000351002
0.000383276
9.32614e-05
0.000108444
0.000381931
0.000340575
0.000411288
0.000560239
0.000708949
0.000796371
0.000832592
0.000844588
0.000846654
0.000842786
0.00083074
0.000802255
0.000742589
0.000639039
0.000505938
0.000391153
0.000334948
0.000351955
9.32615e-05
0.000111468
0.000376745
0.000334376
0.000400321
0.000546949
0.000698596
0.000790892
0.000830276
0.000843726
0.000846409
0.00084288
0.000831243
0.000803621
0.000745783
0.000645398
0.000516279
0.000405699
0.000355822
0.000387334
9.33744e-05
0.000121406
0.000357648
0.000322003
0.000391212
0.000541558
0.000697142
0.000791198
0.000830767
0.000844036
0.000846581
0.000843028
0.000831497
0.000804113
0.00074645
0.000645308
0.000513267
0.000397427
0.000339346
0.000354618
9.33693e-05
0.00010552
0.000387257
0.000346313
0.000416451
0.000564799
0.000711896
0.000797754
0.000833142
0.000844817
0.000846836
0.000843162
0.0008318
0.000805195
0.000749819
0.000653581
0.000528472
0.00041941
0.000368853
0.000397667
9.35115e-05
0.000107446
0.000384105
0.000341531
0.000411762
0.000560372
0.000708873
0.000796256
0.000832517
0.000844563
0.000846693
0.000842975
0.000831372
0.000804151
0.000747573
0.000649692
0.000523426
0.000414361
0.000364432
0.00039409
9.34964e-05
0.000107215
0.000376805
0.000334906
0.00040161
0.000548708
0.000700081
0.000791722
0.00083064
0.000843859
0.000846436
0.000842842
0.000831162
0.000803578
0.000746137
0.000646942
0.000519701
0.00041075
0.000361738
0.000392759
9.35012e-05
0.000107239
0.000346606
0.000317174
0.000390384
0.000543073
0.000699042
0.000792346
0.000831267
0.000844214
0.000846613
0.000842951
0.000831236
0.000803478
0.000745314
0.000644308
0.000514509
0.000403609
0.000353826
0.000385929
9.34888e-05
0.000107344
0.000387982
0.000346951
0.000420243
0.000570254
0.000716348
0.000800116
0.000834124
0.000845176
0.000846955
0.000843169
0.000831621
0.000804349
0.000746911
0.000646027
0.00051411
0.000398225
0.000340111
0.000355491
9.35e-05
0.000107255
0.00037557
0.000334238
0.000403551
0.000551988
0.000702822
0.000793138
0.000831189
0.000844047
0.000846534
0.000843048
0.000831791
0.0008053
0.000750108
0.000654092
0.000529143
0.000420151
0.000369729
0.000398947
9.36258e-05
0.00010722
0.0003427
0.0003116
0.000382197
0.000533411
0.000691457
0.000788279
0.000829507
0.0008435
0.000846308
0.000842809
0.000831284
0.000804124
0.000747658
0.000649957
0.000523864
0.000414916
0.000365152
0.000395206
9.35958e-05
0.000107312
0.000343439
0.00031603
0.000391666
0.000546055
0.00070193
0.000794004
0.000831964
0.00084443
0.000846609
0.000842818
0.000831016
0.000803336
0.000745852
0.000646731
0.000519703
0.000410996
0.000362252
0.000393708
9.35829e-05
0.0001074
0.000381183
0.00033958
0.000406833
0.000553935
0.000703698
0.00079343
0.000831254
0.000844013
0.000846411
0.00084271
0.000830869
0.000802857
0.000744363
0.000643175
0.000513589
0.000403174
0.000353895
0.000386554
9.35493e-05
0.000107356
0.00034775
0.000317407
0.000389651
0.000541726
0.000697795
0.000791589
0.000830882
0.000844003
0.000846464
0.000842807
0.000831071
0.000803279
0.000744981
0.00064327
0.00051134
0.000396308
0.000339241
0.000355573
9.35338e-05
0.000107466
0.000389469
0.000347221
0.000418514
0.000567542
0.000714124
0.000798909
0.00083357
0.000844897
0.000846754
0.000842932
0.000831285
0.000803984
0.000747223
0.000649098
0.00052287
0.000414437
0.000365721
0.000397194
9.36252e-05
0.000107395
0.000378328
0.000335168
0.000400647
0.00054701
0.000698509
0.000790743
0.000830122
0.000843574
0.000846251
0.000842694
0.000830992
0.000803207
0.000745028
0.000644063
0.000514385
0.000403639
0.000354096
0.000386719
9.35602e-05
0.000107398
0.000348233
0.000317768
0.00038893
0.000540471
0.000696761
0.000791053
0.000830654
0.000843895
0.000846411
0.000842806
0.000831215
0.000803758
0.000746096
0.000645128
0.000513439
0.000397963
0.00034025
0.000356065
9.35501e-05
0.00010752
0.000392259
0.00034915
0.000417167
0.000564335
0.000711161
0.000797225
0.00083281
0.000844563
0.000846574
0.000842806
0.000831227
0.000804216
0.000748267
0.000651557
0.000526602
0.000418344
0.000368888
0.000399102
9.36463e-05
0.000107472
0.000388444
0.00034446
0.000411707
0.000558656
0.000707045
0.000795118
0.00083192
0.000844191
0.000846356
0.000842502
0.000830542
0.000802551
0.000744657
0.000645233
0.000518282
0.000409974
0.000361677
0.000393617
9.35823e-05
0.000107446
0.00038818
0.000344924
0.000413992
0.000562004
0.000709885
0.000796702
0.000832616
0.00084446
0.000846427
0.000842435
0.000830217
0.000801596
0.000742238
0.0006403
0.000510748
0.000401089
0.00035267
0.000386041
9.35351e-05
0.000107392
0.000385809
0.000343296
0.000415136
0.000564666
0.000712273
0.000797993
0.000833147
0.000844648
0.000846489
0.000842448
0.000830198
0.000801429
0.000741522
0.000638027
0.000505431
0.000391338
0.000335852
0.000353856
9.34951e-05
0.000107323
0.000376833
0.000335029
0.000403995
0.000552318
0.000703057
0.000793225
0.000831151
0.000843899
0.000846232
0.000842394
0.000830273
0.000801801
0.00074279
0.000641516
0.000512744
0.000403584
0.000355363
0.000388679
9.35609e-05
0.000107279
0.0003438
0.000311944
0.000381137
0.000531461
0.000689639
0.000787174
0.00082894
0.00084317
0.000846008
0.000842308
0.000830126
0.000801228
0.000740962
0.000636993
0.000504211
0.000390396
0.000335371
0.000353845
9.34954e-05
0.00010739
0.000345811
0.000317814
0.000390859
0.000543596
0.000699501
0.000792567
0.00083129
0.000844114
0.000846416
0.000842585
0.000830493
0.000801956
0.000742534
0.000640356
0.000510699
0.000401413
0.000353754
0.00038796
9.35653e-05
0.000107494
0.000391777
0.000349112
0.000418597
0.000566406
0.000712769
0.000798024
0.000833127
0.00084469
0.00084664
0.000842778
0.000830794
0.000802277
0.000742138
0.000637189
0.000502198
0.000386495
0.000331158
0.000352174
9.35047e-05
0.000107436
0.000385776
0.000342619
0.000413018
0.000561735
0.000709878
0.000796715
0.000832641
0.000844553
0.000846675
0.000843032
0.000831563
0.000804383
0.000747111
0.000646434
0.000514597
0.000398475
0.000339774
0.00035387
9.36115e-05
0.000107397
0.000377899
0.000335615
0.000402916
0.000550362
0.000701385
0.000792352
0.000830831
0.000843868
0.000846423
0.000842947
0.00083164
0.000804969
0.000749413
0.000652944
0.000527853
0.000419259
0.000369554
0.000399703
9.37215e-05
0.000107387
0.000346278
0.000316285
0.000390228
0.000543455
0.000699531
0.000792596
0.000831314
0.000844164
0.000846537
0.000842889
0.000831266
0.000803851
0.000746693
0.000647762
0.000520596
0.000411591
0.000362694
0.00039432
9.36887e-05
0.000107498
0.000381799
0.000339741
0.000406463
0.000553364
0.000703269
0.000793217
0.000831165
0.00084399
0.000846452
0.000842868
0.000831251
0.000803649
0.000745749
0.000645052
0.000515444
0.000404599
0.000354959
0.000387571
9.36816e-05
0.000107492
0.000348762
0.000317847
0.000388588
0.000539731
0.000695977
0.00079055
0.000830425
0.000843843
0.000846469
0.000842976
0.000831525
0.000804289
0.000746898
0.000646122
0.000514391
0.000398733
0.000340908
0.000356778
9.36942e-05
0.000107643
0.000392849
0.000349538
0.000417462
0.000564599
0.000711372
0.000797371
0.000832917
0.000844674
0.000846731
0.00084307
0.000831689
0.000805002
0.000749469
0.000653071
0.000528069
0.000419547
0.00036992
0.000400217
9.38231e-05
0.000107628
0.000389221
0.000344894
0.000411872
0.000558669
0.000707015
0.000795123
0.000831972
0.000844305
0.000846555
0.000842869
0.000831206
0.000803735
0.000746532
0.000647644
0.000520631
0.000411831
0.000363148
0.000395073
9.3794e-05
0.000107632
0.000389191
0.000345365
0.000413776
0.000561453
0.000709406
0.000796481
0.000832584
0.000844555
0.000846653
0.000842891
0.000831118
0.000803313
0.000745154
0.000644302
0.000514842
0.000404375
0.000355143
0.000388207
9.37857e-05
0.000107619
0.000387312
0.000343821
0.000414024
0.000562712
0.000710642
0.000797169
0.000832873
0.000844668
0.000846713
0.00084297
0.000831295
0.000803682
0.000745684
0.000644305
0.000512514
0.000397458
0.00034043
0.000357084
9.37884e-05
0.000107586
0.000379683
0.000336549
0.000402708
0.00054953
0.000700578
0.000791914
0.000830667
0.000843833
0.000846417
0.000842895
0.000831398
0.000804257
0.000747721
0.000649876
0.000523878
0.000415597
0.000367125
0.000399193
9.3895e-05
0.000107579
0.00034897
0.000318482
0.000390915
0.000543227
0.000699048
0.000792303
0.000831206
0.000844147
0.000846543
0.000842872
0.000831136
0.000803347
0.000745189
0.000644309
0.000514794
0.000404324
0.000355195
0.000388573
9.38348e-05
0.000107674
0.000391244
0.000348374
0.000419475
0.000568368
0.000714656
0.000799159
0.000833672
0.000844957
0.000846812
0.00084301
0.000831325
0.000803745
0.000745803
0.000644483
0.000512725
0.000397666
0.000340672
0.000357459
9.38146e-05
0.000107581
0.000379946
0.000336185
0.000401494
0.000547802
0.000699087
0.000791051
0.000830258
0.000843649
0.000846329
0.000842851
0.00083139
0.000804283
0.00074779
0.000649985
0.00052399
0.00041571
0.00036729
0.000399536
9.38787e-05
0.000107534
0.000349532
0.000318632
0.000389703
0.000541251
0.000697354
0.000791371
0.000830788
0.000843961
0.000846449
0.000842821
0.00083111
0.000803357
0.000745218
0.000644324
0.000514762
0.000404242
0.000355121
0.000388614
9.37617e-05
0.000107569
0.000393756
0.000350082
0.000417936
0.000565055
0.00071166
0.000797463
0.000832892
0.000844605
0.000846637
0.000842921
0.000831309
0.000803792
0.000745889
0.00064452
0.000512607
0.000397395
0.000340326
0.000357123
9.36643e-05
0.00010738
0.000389494
0.00034498
0.000411984
0.000558875
0.000707179
0.00079516
0.00083191
0.00084421
0.000846484
0.000842902
0.000831477
0.000804495
0.000748116
0.000650264
0.000523985
0.00041533
0.000366625
0.000398663
9.36221e-05
0.000107117
0.000388566
0.00034481
0.00041333
0.000561163
0.000709201
0.000796285
0.000832373
0.000844353
0.000846497
0.000842852
0.000831314
0.00080388
0.000746121
0.000645332
0.000515315
0.000404037
0.000354254
0.000387177
9.33552e-05
0.000106689
0.000385386
0.000342343
0.000412736
0.000561669
0.000709902
0.000796666
0.000832491
0.00084436
0.000846501
0.000842954
0.000831687
0.000804816
0.000747823
0.000647086
0.000514697
0.000398094
0.000339622
0.000355241
9.30461e-05
0.000105967
0.000375995
0.000333814
0.000400194
0.000547336
0.000699003
0.000790945
0.000830045
0.00084339
0.000846128
0.000842872
0.00083196
0.000805992
0.000751358
0.000655397
0.000529531
0.00041916
0.000367754
0.000396579
9.2683e-05
0.000104784
0.000343186
0.00031427
0.000386583
0.000539111
0.000696035
0.000790588
0.000830282
0.000843599
0.000846232
0.000842868
0.000831786
0.000805404
0.000749846
0.000652306
0.000524686
0.000413231
0.000361337
0.0003898
9.18384e-05
0.000102706
0.000381085
0.000341945
0.000412794
0.000562322
0.000710537
0.000797058
0.00083275
0.00084458
0.000846738
0.000843246
0.000832116
0.000805615
0.000749643
0.000651114
0.000522067
0.000409327
0.000356592
0.000384248
9.02829e-05
9.85421e-05
0.000367943
0.000331618
0.000404515
0.000556231
0.000707212
0.000795953
0.000832836
0.000845194
0.000847618
0.000844307
0.000833344
0.000806834
0.000750258
0.000649802
0.000517499
0.00040165
0.000346846
0.000372952
8.71782e-05
9.09539e-05
0.000349408
0.000321241
0.000401782
0.000559622
0.000712429
0.000800238
0.000836141
0.000848054
0.000850424
0.000847348
0.000836851
0.000810871
0.000754014
0.00065064
0.000511892
0.000388779
0.000328515
0.000350567
8.13228e-05
7.82943e-05
0.000312795
0.00030127
0.000397109
0.000566833
0.000723038
0.000809435
0.000843914
0.000855224
0.000857603
0.000855076
0.000845832
0.000821833
0.000766602
0.000660557
0.000510522
0.000371278
0.00029684
0.00030763
7.13382e-05
6.04824e-05
0.000248829
0.000270792
0.000396646
0.000588369
0.000748961
0.000831672
0.000863226
0.000873325
0.000875583
0.000873902
0.000866911
0.000847472
0.00079889
0.000695659
0.000531679
0.000360859
0.000251654
0.000223917
5.66887e-05
4.14509e-05
0.000161699
0.000239826
0.000417184
0.000640088
0.000800108
0.000873696
0.000899931
0.000908018
0.000909965
0.000909231
0.000905206
0.000892741
0.000858041
0.000773217
0.000611585
0.000405147
0.000242059
0.000162918
3.99959e-05
2.88462e-05
9.57379e-05
0.000199662
0.000405056
0.000640619
0.000790538
0.000853338
0.000875037
0.000882089
0.000884183
0.00088413
0.000881735
0.000873723
0.000849513
0.000781995
0.000628538
0.000397442
0.000198724
9.60688e-05
2.84639e-05
2.56908e-05
9.85628e-05
0.000277767
0.000550083
0.00075172
0.000831847
0.000854715
0.00086027
0.000861432
0.000861608
0.000861596
0.000861375
0.000860118
0.000854279
0.000830667
0.000749163
0.00054685
0.000275887
9.81271e-05
2.55712e-05
0.00052784
0.00251787
0.00126915
0.000876328
0.000818526
0.000847751
0.00086497
0.000868949
0.000869384
0.00086951
0.000870006
0.000870875
0.000871166
0.000866757
0.000850185
0.000836644
0.000926091
0.00133116
0.00249435
0.000475405
0.000119302
0.00134543
0.000817426
0.000796938
0.000860334
0.000867682
0.000860864
0.000857022
0.000855777
0.000855712
0.000856424
0.000858385
0.000862942
0.000872245
0.000886254
0.00089073
0.000866634
0.000926129
0.00138061
0.000108357
0.000224122
0.00151853
0.000862547
0.000733993
0.000783768
0.000832383
0.000849501
0.000853708
0.000854622
0.000854952
0.000855458
0.000856489
0.000858152
0.000858943
0.000851557
0.000823637
0.000808988
0.000969099
0.00161878
0.000193692
0.000228299
0.0011904
0.000748219
0.000707938
0.000798261
0.000845504
0.000853497
0.000853039
0.000852283
0.000852132
0.000852564
0.000853768
0.000855985
0.000857992
0.000851398
0.000815765
0.000769879
0.000868159
0.0014089
0.000164431
0.000302952
0.00160307
0.000926201
0.000782914
0.00081412
0.000842744
0.00085039
0.00085167
0.000851883
0.000852107
0.000852666
0.000853911
0.000856282
0.000859074
0.000855089
0.000822679
0.000767114
0.000817342
0.00118443
0.000171085
0.000152491
0.0011616
0.000751059
0.000705408
0.000791379
0.000840977
0.000851859
0.000852703
0.000852382
0.000852344
0.000852778
0.00085393
0.000856187
0.00085938
0.00086023
0.000851905
0.000860241
0.00102746
0.00164561
0.000169303
0.000183454
0.00169724
0.00101967
0.000856342
0.000855056
0.000858199
0.000855241
0.000853105
0.000852308
0.000852242
0.000852687
0.000853723
0.000855321
0.000855612
0.000846093
0.000811488
0.000781746
0.000912896
0.00150325
0.00016949
0.000176766
0.00157016
0.000914134
0.000780108
0.000815416
0.000844576
0.000851553
0.00085225
0.00085215
0.000852251
0.000852766
0.00085394
0.000855815
0.000856342
0.000845218
0.000801399
0.000750851
0.000850981
0.00139069
0.000169308
0.000180344
0.00157948
0.000925555
0.000797708
0.000828961
0.000850688
0.000853621
0.000852851
0.000852308
0.000852293
0.000852827
0.000854154
0.000856558
0.000858507
0.000849754
0.000803956
0.000732936
0.000777218
0.00114489
0.000169282
0.00018489
0.00153972
0.000890477
0.000774964
0.000816447
0.000845773
0.000852
0.000852351
0.000852153
0.000852247
0.000852826
0.000854278
0.000857208
0.000861351
0.000860698
0.000837782
0.000807927
0.000920481
0.00147209
0.000169397
0.000197872
0.00143114
0.000830898
0.000727429
0.000788895
0.000835535
0.00084901
0.000851552
0.000851946
0.000852181
0.000852785
0.000854221
0.000857153
0.000861348
0.000860042
0.000830027
0.000772384
0.0008178
0.00118269
0.000169306
0.000232328
0.00122074
0.000775092
0.0007233
0.000802725
0.000845606
0.000853217
0.000852992
0.000852386
0.000852297
0.000852782
0.000854174
0.000857265
0.000863035
0.000870574
0.000874289
0.000892109
0.00105695
0.00166042
0.000169485
0.000301755
0.00173147
0.000988603
0.000834629
0.000844178
0.000854369
0.000854067
0.000852753
0.000852193
0.000852195
0.000852691
0.000853916
0.000856316
0.000859604
0.00085926
0.000843829
0.000833675
0.000972168
0.00155424
0.000169336
0.000152071
0.00134846
0.000783819
0.000698048
0.000772576
0.000829192
0.000847059
0.00085101
0.000851789
0.000852112
0.000852672
0.000853899
0.000856201
0.000859063
0.00085748
0.000840088
0.000829953
0.000972305
0.00155864
0.000169321
0.000182416
0.00115731
0.000743761
0.000708293
0.000797315
0.000844543
0.000853136
0.000853015
0.000852397
0.000852284
0.000852728
0.000853913
0.000856082
0.000858145
0.000853086
0.000825947
0.000801742
0.000933616
0.00151922
0.000169238
0.00017532
0.00147774
0.00088172
0.000765317
0.000808112
0.000841202
0.000850069
0.000851613
0.000851868
0.000852108
0.000852684
0.000853974
0.000856334
0.000858643
0.00085255
0.000817453
0.000772217
0.000870951
0.00140703
0.000169172
0.000176849
0.00118798
0.000764449
0.000712583
0.000794438
0.00084194
0.000852075
0.00085269
0.000852309
0.000852258
0.000852729
0.000854022
0.000856677
0.000860353
0.000858436
0.000828746
0.000772871
0.000818555
0.00117768
0.000169168
0.000176652
0.00167187
0.00100379
0.000848974
0.000852159
0.000857264
0.00085494
0.000852987
0.000852232
0.000852176
0.000852632
0.000853838
0.000856361
0.000860642
0.000864879
0.000863554
0.00087843
0.00104491
0.00165223
0.000169301
0.000176557
0.00155149
0.000899741
0.000774329
0.000813455
0.000844108
0.000851443
0.000852192
0.000852087
0.000852148
0.000852573
0.000853547
0.00085518
0.000856298
0.000850727
0.00082675
0.000810852
0.000950339
0.00153696
0.000169134
0.000176497
0.00152407
0.000885556
0.000776625
0.000819679
0.00084774
0.000852794
0.000852602
0.000852192
0.000852179
0.000852585
0.000853529
0.000854936
0.000854992
0.000845707
0.000813211
0.000787649
0.000922353
0.00151029
0.00016908
0.0001764
0.00139104
0.00081089
0.000717456
0.000783986
0.000833624
0.000848351
0.000851322
0.000851847
0.000852099
0.000852598
0.000853584
0.000854919
0.000854112
0.000840307
0.000793248
0.000741663
0.000841958
0.00137978
0.000168964
0.000176379
0.00114636
0.000736008
0.000701584
0.000792488
0.000842322
0.00085236
0.000852777
0.000852324
0.00085226
0.000852688
0.000853755
0.000855403
0.000855366
0.000842385
0.000791406
0.000719766
0.000766822
0.00113519
0.000168918
0.000176509
0.00147611
0.00088206
0.000766387
0.000809161
0.00084182
0.000850342
0.000851717
0.00085191
0.000852122
0.000852672
0.000853846
0.000855805
0.000857016
0.000849029
0.00081415
0.000776763
0.000889614
0.0014411
0.000169007
0.000176411
0.00118431
0.000762613
0.000711573
0.000793814
0.000841643
0.000851961
0.000852656
0.000852305