/*--------------------------------*- C++ -*----------------------------------*\
  =========                 |
  \\      /  F ield         | OpenFOAM: The Open Source CFD Toolbox
   \\    /   O peration     | Website:  https://openfoam.org
    \\  /    A nd           | Version:  6
     \\/     M anipulation  |
\*---------------------------------------------------------------------------*/
FoamFile
{
    version     2.0;
    format      ascii;
    class       volScalarField;
    location    "1";
    object      nut;
}
// * * * * * * * * * * * * * * * * * * * * * * * * * * * * * * * * * * * * * //

dimensions      [0 2 -1 0 0 0 0];

internalField   nonuniform List<scalar> 
130000
(
0.000919833
0.000892952
0.000877646
0.000869123
0.000863836
0.000860388
0.000858147
0.000856735
0.000855879
0.000855382
0.000855106
0.000854965
0.000854907
0.000854906
0.00085495
0.000855039
0.000855179
0.00085538
0.000855657
0.00085605
0.000912449
0.000889333
0.000875768
0.000867991
0.000863085
0.000859859
0.000857764
0.000856444
0.000855648
0.000855186
0.000854931
0.0008548
0.000854748
0.000854747
0.00085479
0.000854874
0.000855003
0.000855182
0.000855414
0.000855712
0.00091382
0.000889306
0.000875432
0.000867669
0.000862838
0.000859681
0.000857639
0.000856356
0.000855584
0.000855136
0.00085489
0.000854763
0.000854712
0.000854709
0.000854748
0.000854825
0.000854946
0.000855112
0.000855334
0.000855636
0.000914057
0.000889396
0.00087543
0.000867621
0.000862777
0.00085962
0.000857585
0.000856309
0.000855546
0.000855102
0.00085486
0.000854734
0.000854684
0.000854681
0.000854719
0.000854794
0.000854912
0.000855075
0.000855296
0.000855596
0.000914272
0.000889527
0.000875488
0.000867635
0.000862767
0.000859599
0.000857561
0.000856285
0.000855523
0.000855081
0.000854841
0.000854716
0.000854668
0.000854664
0.000854703
0.000854777
0.000854895
0.000855056
0.000855276
0.000855576
0.000914397
0.000889531
0.00087549
0.000867631
0.000862757
0.000859585
0.000857547
0.00085627
0.00085551
0.000855068
0.00085483
0.000854706
0.000854659
0.000854656
0.000854695
0.000854769
0.000854887
0.000855048
0.000855268
0.000855568
0.000914382
0.000889558
0.0008755
0.000867635
0.000862755
0.000859579
0.000857538
0.000856261
0.000855501
0.00085506
0.000854823
0.0008547
0.000854653
0.00085465
0.00085469
0.000854763
0.000854882
0.000855042
0.000855262
0.000855562
0.000914486
0.000889622
0.000875541
0.00086766
0.000862767
0.000859583
0.000857537
0.000856257
0.000855497
0.000855056
0.000854819
0.000854695
0.000854649
0.000854646
0.000854687
0.000854759
0.000854878
0.000855038
0.000855259
0.000855559
0.000914605
0.000889727
0.000875613
0.000867703
0.00086279
0.000859592
0.000857539
0.000856256
0.000855494
0.000855052
0.000854815
0.000854691
0.000854645
0.000854641
0.000854682
0.000854754
0.000854873
0.000855032
0.000855253
0.000855553
0.000914699
0.000889812
0.000875673
0.000867739
0.00086281
0.000859601
0.000857542
0.000856256
0.000855492
0.000855049
0.000854812
0.000854688
0.000854642
0.000854638
0.000854678
0.00085475
0.000854869
0.000855028
0.000855249
0.00085555
0.000914904
0.00088989
0.000875724
0.00086777
0.000862826
0.000859607
0.000857544
0.000856253
0.000855489
0.000855045
0.000854808
0.000854682
0.000854637
0.000854632
0.000854673
0.000854743
0.000854862
0.00085502
0.000855242
0.000855543
0.000914976
0.000889988
0.000875777
0.000867798
0.000862841
0.000859613
0.000857544
0.000856251
0.000855486
0.00085504
0.000854803
0.000854677
0.000854631
0.000854626
0.000854667
0.000854737
0.000854856
0.000855014
0.000855236
0.000855538
0.000915225
0.000890077
0.000875822
0.00086782
0.00086285
0.000859614
0.000857541
0.000856245
0.000855479
0.000855033
0.000854796
0.000854669
0.000854624
0.000854618
0.000854659
0.000854729
0.000854848
0.000855005
0.000855227
0.000855529
0.000915202
0.000890097
0.000875831
0.000867827
0.000862853
0.000859612
0.000857536
0.000856239
0.000855472
0.000855025
0.000854789
0.000854662
0.000854617
0.000854611
0.000854652
0.000854721
0.000854841
0.000854997
0.000855221
0.000855524
0.00091532
0.000890177
0.000875876
0.000867851
0.000862861
0.000859611
0.00085753
0.00085623
0.000855463
0.000855017
0.00085478
0.000854654
0.000854609
0.000854602
0.000854644
0.000854713
0.000854833
0.000854989
0.000855213
0.000855517
0.00091542
0.000890269
0.000875935
0.000867883
0.000862874
0.000859613
0.000857526
0.000856224
0.000855456
0.000855009
0.000854773
0.000854647
0.000854603
0.000854596
0.000854638
0.000854708
0.000854827
0.000854984
0.000855208
0.000855514
0.000915513
0.000890375
0.000875998
0.000867916
0.000862887
0.000859614
0.000857523
0.000856219
0.00085545
0.000855004
0.000854768
0.000854642
0.000854598
0.000854592
0.000854634
0.000854703
0.000854823
0.00085498
0.000855205
0.000855512
0.000915655
0.00089043
0.00087603
0.000867934
0.000862894
0.000859616
0.000857521
0.000856216
0.000855447
0.000855001
0.000854766
0.00085464
0.000854596
0.000854591
0.000854633
0.000854703
0.000854823
0.00085498
0.000855206
0.000855514
0.0009156
0.000890442
0.000876043
0.000867948
0.000862905
0.000859623
0.000857525
0.000856218
0.000855448
0.000855003
0.000854767
0.000854642
0.000854598
0.000854593
0.000854635
0.000854706
0.000854826
0.000854984
0.00085521
0.00085552
0.000915784
0.000890577
0.000876128
0.000868
0.000862935
0.000859639
0.000857533
0.000856224
0.000855452
0.000855006
0.000854771
0.000854646
0.000854602
0.000854598
0.00085464
0.000854711
0.000854831
0.00085499
0.000855217
0.000855529
0.000916011
0.000890759
0.000876236
0.000868062
0.000862969
0.000859658
0.000857544
0.000856231
0.000855458
0.000855013
0.000854777
0.000854654
0.00085461
0.000854607
0.000854649
0.000854721
0.000854841
0.000855001
0.000855228
0.000855543
0.000916299
0.000890898
0.000876315
0.000868109
0.000862996
0.000859675
0.000857554
0.000856239
0.000855465
0.00085502
0.000854784
0.000854662
0.000854618
0.000854616
0.000854659
0.000854732
0.000854852
0.000855013
0.00085524
0.000855557
0.000916399
0.000890992
0.000876372
0.000868152
0.000863027
0.000859696
0.000857569
0.000856251
0.000855475
0.00085503
0.000854794
0.000854673
0.00085463
0.000854629
0.000854671
0.000854746
0.000854866
0.000855029
0.000855256
0.000855577
0.000916739
0.000891221
0.00087651
0.000868237
0.000863078
0.000859728
0.000857589
0.000856266
0.000855486
0.000855041
0.000854804
0.000854684
0.000854641
0.000854641
0.000854683
0.000854759
0.000854879
0.000855042
0.00085527
0.000855592
0.000917128
0.000891504
0.000876678
0.000868337
0.000863137
0.000859764
0.000857611
0.000856282
0.000855499
0.000855054
0.000854816
0.000854697
0.000854653
0.000854655
0.000854697
0.000854774
0.000854893
0.000855058
0.000855286
0.000855611
0.000917608
0.000891756
0.000876821
0.000868422
0.000863189
0.000859797
0.000857633
0.000856298
0.000855511
0.000855065
0.000854826
0.000854707
0.000854663
0.000854665
0.000854707
0.000854784
0.000854903
0.000855069
0.000855297
0.000855625
0.000917894
0.000891949
0.000876932
0.000868498
0.000863242
0.000859834
0.000857657
0.000856316
0.000855524
0.000855076
0.000854836
0.000854717
0.000854672
0.000854674
0.000854716
0.000854794
0.000854913
0.000855079
0.000855308
0.000855639
0.00091842
0.000892271
0.000877115
0.00086861
0.00086331
0.000859876
0.000857683
0.000856332
0.000855535
0.000855084
0.000854842
0.000854722
0.000854677
0.000854679
0.00085472
0.000854798
0.000854918
0.000855084
0.000855314
0.000855647
0.000918994
0.000892624
0.000877317
0.000868731
0.000863384
0.000859919
0.000857708
0.000856347
0.000855544
0.00085509
0.000854846
0.000854725
0.000854679
0.000854681
0.000854722
0.000854801
0.00085492
0.000855088
0.000855318
0.000855655
0.000919562
0.000892971
0.000877516
0.000868849
0.000863453
0.000859958
0.000857729
0.000856357
0.000855549
0.000855091
0.000854846
0.000854724
0.000854678
0.00085468
0.000854721
0.000854799
0.000854919
0.000855087
0.000855318
0.000855658
0.000920154
0.000893329
0.000877718
0.000868968
0.000863522
0.000859996
0.000857748
0.000856366
0.000855551
0.000855091
0.000854844
0.000854721
0.000854674
0.000854676
0.000854717
0.000854796
0.000854916
0.000855085
0.000855318
0.000855661
0.000920766
0.000893701
0.000877927
0.00086909
0.000863592
0.000860034
0.000857767
0.000856373
0.000855552
0.000855089
0.00085484
0.000854717
0.00085467
0.000854671
0.000854713
0.000854791
0.000854912
0.000855082
0.000855317
0.000855663
0.000921386
0.000894081
0.000878141
0.000869216
0.000863664
0.000860074
0.000857787
0.000856381
0.000855554
0.000855087
0.000854837
0.000854713
0.000854665
0.000854667
0.000854708
0.000854787
0.000854908
0.000855079
0.000855316
0.000855666
0.000922001
0.00089446
0.000878357
0.000869343
0.000863738
0.000860114
0.000857807
0.00085639
0.000855557
0.000855086
0.000854835
0.00085471
0.000854662
0.000854663
0.000854704
0.000854784
0.000854906
0.000855077
0.000855317
0.000855671
0.000922645
0.000894856
0.000878581
0.000869475
0.000863815
0.000860157
0.000857829
0.0008564
0.00085556
0.000855086
0.000854833
0.000854707
0.000854659
0.00085466
0.000854702
0.000854781
0.000854904
0.000855077
0.000855319
0.000855677
0.000923339
0.000895281
0.000878821
0.000869617
0.000863898
0.000860204
0.000857854
0.000856412
0.000855566
0.000855088
0.000854833
0.000854706
0.000854657
0.000854658
0.000854701
0.000854781
0.000854905
0.000855079
0.000855323
0.000855686
0.000924062
0.000895727
0.000879073
0.000869766
0.000863987
0.000860254
0.000857882
0.000856427
0.000855573
0.000855091
0.000854834
0.000854706
0.000854657
0.000854658
0.000854701
0.000854781
0.000854906
0.000855081
0.000855329
0.000855696
0.000924805
0.000896185
0.000879334
0.000869921
0.000864079
0.000860307
0.000857911
0.000856442
0.000855581
0.000855095
0.000854836
0.000854707
0.000854658
0.000854659
0.000854702
0.000854783
0.000854909
0.000855086
0.000855337
0.000855709
0.000925599
0.00089667
0.000879608
0.000870084
0.000864176
0.000860363
0.000857942
0.000856459
0.00085559
0.0008551
0.000854839
0.000854709
0.00085466
0.00085466
0.000854704
0.000854785
0.000854913
0.000855091
0.000855345
0.000855723
0.000926461
0.000897194
0.000879903
0.000870259
0.000864279
0.000860423
0.000857976
0.000856477
0.0008556
0.000855105
0.000854842
0.000854711
0.000854662
0.000854663
0.000854707
0.000854789
0.000854918
0.000855098
0.000855355
0.000855739
0.000927365
0.000897747
0.000880215
0.000870443
0.00086439
0.000860487
0.000858013
0.000856498
0.000855611
0.000855112
0.000854847
0.000854714
0.000854665
0.000854666
0.00085471
0.000854793
0.000854923
0.000855106
0.000855367
0.000855756
0.000928302
0.000898319
0.000880539
0.000870637
0.000864506
0.000860555
0.000858051
0.000856519
0.000855624
0.000855119
0.000854852
0.000854718
0.000854668
0.000854669
0.000854714
0.000854798
0.00085493
0.000855114
0.000855379
0.000855775
0.000929318
0.000898935
0.000880887
0.000870843
0.000864629
0.000860628
0.000858093
0.000856543
0.000855637
0.000855127
0.000854857
0.000854722
0.000854672
0.000854673
0.000854719
0.000854804
0.000854937
0.000855124
0.000855393
0.000855795
0.000930438
0.000899611
0.000881266
0.000871068
0.000864764
0.000860707
0.000858139
0.000856569
0.000855652
0.000855137
0.000854864
0.000854727
0.000854677
0.000854678
0.000854724
0.00085481
0.000854945
0.000855134
0.000855407
0.000855818
0.000931624
0.000900333
0.000881671
0.000871308
0.000864908
0.000860793
0.000858188
0.000856597
0.000855669
0.000855147
0.000854871
0.000854733
0.000854682
0.000854683
0.00085473
0.000854817
0.000854953
0.000855146
0.000855423
0.000855842
0.000932865
0.000901083
0.000882095
0.00087156
0.00086506
0.000860882
0.00085824
0.000856627
0.000855687
0.000855158
0.000854879
0.000854739
0.000854687
0.000854689
0.000854736
0.000854824
0.000854963
0.000855158
0.000855441
0.000855868
0.000934211
0.00090189
0.000882548
0.000871829
0.000865222
0.000860978
0.000858296
0.000856659
0.000855706
0.00085517
0.000854887
0.000854746
0.000854694
0.000854695
0.000854743
0.000854832
0.000854973
0.000855172
0.00085546
0.000855896
0.000935674
0.000902768
0.000883041
0.000872122
0.000865398
0.000861082
0.000858356
0.000856694
0.000855726
0.000855183
0.000854896
0.000854753
0.0008547
0.000854702
0.000854751
0.000854841
0.000854984
0.000855186
0.00085548
0.000855926
0.000937238
0.000903718
0.000883578
0.000872441
0.000865588
0.000861194
0.00085842
0.000856731
0.000855748
0.000855197
0.000854906
0.000854761
0.000854707
0.000854709
0.000854759
0.000854851
0.000854997
0.000855202
0.000855503
0.000855959
0.000938888
0.00090473
0.000884141
0.00087277
0.000865784
0.00086131
0.000858488
0.000856771
0.000855772
0.000855212
0.000854917
0.00085477
0.000854716
0.000854717
0.000854768
0.000854862
0.00085501
0.00085522
0.000855527
0.000855995
0.000940707
0.000905723
0.000884693
0.000873098
0.000865984
0.00086143
0.000858559
0.000856813
0.000855797
0.000855229
0.000854929
0.00085478
0.000854725
0.000854727
0.000854778
0.000854874
0.000855025
0.000855239
0.000855554
0.000856033
0.00094256
0.000906862
0.000885315
0.000873465
0.000866206
0.000861564
0.000858639
0.00085686
0.000855826
0.000855248
0.000854942
0.000854791
0.000854735
0.000854737
0.00085479
0.000854887
0.000855042
0.000855261
0.000855583
0.000856076
0.000944657
0.000908109
0.000886005
0.000873871
0.000866452
0.000861711
0.000858726
0.000856912
0.000855858
0.000855269
0.000854958
0.000854804
0.000854747
0.000854749
0.000854803
0.000854902
0.00085506
0.000855284
0.000855615
0.000856122
0.000946877
0.000909425
0.000886737
0.000874304
0.000866713
0.000861868
0.000858819
0.000856968
0.000855893
0.000855292
0.000854975
0.000854818
0.00085476
0.000854762
0.000854817
0.000854919
0.00085508
0.00085531
0.00085565
0.000856172
0.000949281
0.000910842
0.000887522
0.000874767
0.000866993
0.000862036
0.000858919
0.000857027
0.00085593
0.000855317
0.000854993
0.000854833
0.000854774
0.000854777
0.000854833
0.000854937
0.000855102
0.000855338
0.000855688
0.000856227
0.000951892
0.000912377
0.000888369
0.000875265
0.000867294
0.000862217
0.000859027
0.000857093
0.00085597
0.000855344
0.000855014
0.000854851
0.00085479
0.000854793
0.00085485
0.000854958
0.000855127
0.00085537
0.00085573
0.000856287
0.000954703
0.000914031
0.000889281
0.000875801
0.000867618
0.000862413
0.000859144
0.000857163
0.000856015
0.000855375
0.000855037
0.00085487
0.000854808
0.000854811
0.00085487
0.000854981
0.000855155
0.000855405
0.000855777
0.000856353
0.000957721
0.000915804
0.000890259
0.000876377
0.000867967
0.000862624
0.000859271
0.00085724
0.000856064
0.000855408
0.000855063
0.000854892
0.000854829
0.000854832
0.000854893
0.000855006
0.000855185
0.000855444
0.000855829
0.000856426
0.000961006
0.000917728
0.000891318
0.000877
0.000868344
0.000862852
0.000859409
0.000857325
0.000856118
0.000855446
0.000855092
0.000854917
0.000854853
0.000854856
0.000854919
0.000855035
0.00085522
0.000855487
0.000855886
0.000856506
0.000964606
0.000919833
0.000892474
0.000877678
0.000868755
0.000863102
0.000859561
0.000857419
0.000856179
0.000855489
0.000855125
0.000854946
0.00085488
0.000854883
0.000854948
0.000855068
0.000855259
0.000855535
0.00085595
0.000856595
0.000968509
0.000922121
0.00089373
0.000878414
0.000869202
0.000863375
0.000859727
0.000857522
0.000856247
0.000855537
0.000855163
0.000854979
0.00085491
0.000854915
0.000854981
0.000855105
0.000855303
0.00085559
0.000856021
0.000856693
0.000972729
0.000924587
0.000895084
0.000879209
0.000869685
0.00086367
0.000859908
0.000857635
0.000856321
0.00085559
0.000855205
0.000855016
0.000854946
0.00085495
0.000855019
0.000855148
0.000855352
0.000855651
0.0008561
0.000856802
0.000977353
0.000927278
0.000896557
0.000880072
0.000870209
0.00086399
0.000860105
0.000857759
0.000856403
0.00085565
0.000855253
0.000855058
0.000854986
0.00085499
0.000855062
0.000855196
0.000855408
0.000855719
0.000856189
0.000856923
0.000982431
0.000930232
0.00089817
0.000881015
0.000870782
0.000864342
0.000860322
0.000857897
0.000856496
0.000855718
0.000855308
0.000855106
0.000855032
0.000855037
0.000855111
0.00085525
0.000855472
0.000855797
0.000856289
0.000857059
0.000987976
0.000933464
0.000899934
0.000882045
0.000871409
0.000864728
0.000860561
0.000858049
0.000856599
0.000855794
0.00085537
0.000855162
0.000855085
0.00085509
0.000855167
0.000855313
0.000855544
0.000855884
0.000856401
0.00085721
0.000994028
0.000936986
0.000901858
0.000883169
0.000872095
0.000865151
0.000860825
0.000858219
0.000856715
0.000855881
0.000855442
0.000855226
0.000855146
0.000855152
0.000855232
0.000855384
0.000855627
0.000855983
0.000856527
0.00085738
0.0010007
0.000940866
0.000903973
0.000884403
0.000872847
0.000865617
0.000861117
0.000858409
0.000856847
0.00085598
0.000855524
0.0008553
0.000855217
0.000855223
0.000855307
0.000855467
0.000855721
0.000856096
0.000856671
0.000857571
0.00100809
0.000945163
0.000906312
0.000885767
0.000873679
0.000866134
0.000861444
0.000858622
0.000856996
0.000856094
0.000855619
0.000855386
0.0008553
0.000855307
0.000855395
0.000855562
0.000855829
0.000856226
0.000856834
0.000857787
0.00101624
0.000949915
0.000908897
0.000887272
0.0008746
0.000866708
0.000861808
0.000858863
0.000857166
0.000856225
0.00085573
0.000855487
0.000855396
0.000855403
0.000855496
0.000855672
0.000855954
0.000856374
0.00085702
0.000858032
0.00102523
0.000955152
0.000911749
0.000888934
0.000875617
0.000867345
0.000862215
0.000859134
0.000857359
0.000856376
0.000855858
0.000855604
0.000855509
0.000855517
0.000855614
0.0008558
0.000856099
0.000856545
0.000857233
0.00085831
0.00103524
0.000960977
0.000914917
0.000890777
0.000876746
0.000868054
0.000862671
0.00085944
0.00085758
0.00085655
0.000856007
0.00085574
0.000855641
0.00085565
0.000855752
0.00085595
0.000856267
0.000856742
0.000857478
0.000858629
0.0010464
0.000967485
0.000918454
0.000892832
0.000878007
0.000868849
0.000863186
0.000859789
0.000857835
0.000856752
0.000856182
0.000855902
0.000855797
0.000855806
0.000855915
0.000856125
0.000856463
0.000856971
0.000857761
0.000858995
0.00105884
0.00097476
0.000922411
0.000895131
0.000879419
0.000869743
0.000863769
0.000860189
0.000858129
0.000856989
0.000856387
0.000856092
0.000855981
0.000855991
0.000856107
0.00085633
0.000856692
0.000857238
0.000858088
0.000859416
0.00107275
0.000982899
0.000926843
0.000897708
0.000881005
0.000870753
0.000864432
0.000860648
0.000858472
0.000857267
0.000856631
0.000856318
0.000856201
0.000856211
0.000856334
0.000856574
0.000856962
0.000857551
0.000858471
0.000859905
0.00108838
0.000992074
0.000931844
0.000900614
0.000882797
0.000871898
0.000865191
0.000861178
0.000858872
0.000857595
0.00085692
0.000856588
0.000856463
0.000856474
0.000856605
0.000856862
0.000857281
0.000857919
0.000858919
0.000860474
0.00110606
0.00100247
0.000937519
0.000903912
0.000884835
0.000873208
0.000866065
0.000861796
0.000859343
0.000857985
0.000857267
0.000856913
0.000856778
0.00085679
0.000856931
0.000857208
0.000857662
0.000858356
0.000859449
0.000861142
0.00112603
0.00101428
0.000943976
0.000907668
0.000887161
0.000874711
0.000867078
0.00086252
0.000859902
0.000858452
0.000857684
0.000857305
0.00085716
0.000857171
0.000857323
0.000857623
0.000858117
0.000858877
0.000860076
0.000861931
0.00114866
0.0010277
0.000951341
0.000911958
0.000889825
0.000876442
0.000868255
0.000863371
0.000860567
0.000859013
0.00085819
0.000857782
0.000857624
0.000857636
0.000857799
0.000858126
0.000858666
0.000859502
0.000860827
0.000862868
0.00117448
0.00104307
0.000959801
0.000916893
0.000892898
0.000878452
0.000869635
0.000864381
0.000861364
0.000859693
0.000858806
0.000858365
0.000858194
0.000858204
0.000858381
0.000858738
0.000859332
0.000860258
0.000861731
0.00086399
0.00120408
0.00106078
0.000969585
0.000922612
0.000896471
0.000880804
0.000871265
0.000865588
0.000862331
0.000860525
0.000859565
0.000859086
0.000858898
0.000858908
0.000859099
0.000859491
0.000860149
0.00086118
0.00086283
0.000865346
0.00123806
0.00108124
0.000980956
0.00092928
0.000900654
0.000883577
0.000873209
0.000867047
0.000863512
0.000861552
0.000860508
0.000859984
0.000859776
0.000859785
0.000859994
0.000860426
0.000861159
0.000862317
0.000864177
0.000867
0.00127725
0.00110498
0.000994231
0.0009371
0.000905583
0.000886872
0.000875545
0.000868824
0.000864971
0.000862834
0.000861693
0.000861117
0.000860886
0.000860892
0.00086112
0.000861601
0.000862423
0.000863732
0.000865849
0.000869038
0.00132274
0.00113272
0.00100985
0.000946348
0.000911446
0.000890824
0.000878383
0.000871014
0.000866793
0.000864451
0.000863198
0.000862563
0.000862303
0.000862305
0.000862556
0.000863093
0.000864022
0.000865517
0.000867947
0.00087158
0.0013758
0.00116532
0.00102836
0.00095738
0.000918486
0.000895618
0.000881872
0.000873748
0.000869101
0.000866523
0.00086514
0.000864435
0.000864143
0.000864139
0.000864415
0.000865019
0.000866078
0.0008678
0.000870617
0.000874794
0.00143794
0.00120383
0.00105044
0.000970644
0.000927024
0.000901498
0.000886217
0.000877211
0.000872069
0.000869218
0.000867687
0.000866902
0.00086657
0.000866559
0.000866863
0.000867548
0.000868765
0.000870769
0.00087407
0.000878919
0.00151107
0.00124953
0.00107692
0.000986733
0.000937492
0.00090881
0.000891715
0.000881678
0.000875963
0.000872799
0.000871099
0.000870223
0.000869845
0.000869824
0.00087016
0.000870939
0.000872351
0.000874709
0.000878622
0.000884308
0.00159769
0.00130416
0.00110898
0.00100647
0.000950521
0.000918072
0.00089883
0.000887586
0.000881208
0.00087769
0.000875801
0.000874822
0.00087439
0.000874353
0.000874722
0.000875611
0.00087726
0.000880061
0.000884756
0.000891495
0.00170084
0.0013699
0.00114816
0.00103103
0.000967064
0.000930116
0.000908333
0.00089568
0.000888548
0.000884633
0.000882536
0.000881442
0.000880943
0.000880876
0.000881268
0.000882272
0.000884201
0.000887558
0.000893255
0.000901322
0.00182439
0.00144962
0.00119659
0.00106218
0.000988677
0.000946375
0.0009216
0.000907324
0.000899345
0.000895002
0.000892683
0.000891458
0.000890867
0.000890734
0.000891109
0.000892207
0.000894438
0.000898467
0.000905438
0.000915178
0.00197342
0.00154728
0.00125751
0.00110279
0.00101805
0.000969443
0.000941193
0.000925083
0.000916189
0.000911408
0.000908871
0.000907505
0.000906782
0.000906511
0.000906776
0.000907871
0.000910356
0.000915131
0.00092367
0.000935464
0.00215482
0.0016687
0.00133602
0.00115776
0.00105995
0.00100402
0.000971801
0.000953675
0.000943848
0.000938682
0.000935992
0.000934525
0.000933657
0.000933165
0.000933167
0.000934061
0.000936611
0.000942064
0.000952381
0.000966537
0.00237808
0.00182272
0.00144052
0.00123537
0.00112255
0.00105818
0.00102142
0.00100111
0.000990391
0.000985006
0.0009824
0.000981072
0.000980242
0.000979614
0.000979311
0.000979823
0.000982146
0.000987998
0.00100006
0.00101655
0.00265706
0.00202341
0.00158489
0.0013492
0.00121892
0.0011444
0.00110217
0.00107928
0.00106768
0.00106236
0.00106042
0.00105998
0.00105997
0.00105994
0.00105997
0.00106055
0.00106279
0.0010689
0.00108248
0.00110063
0.00301167
0.0022939
0.00179183
0.00152014
0.0013678
0.00127951
0.00122958
0.00120299
0.00119006
0.00118485
0.00118474
0.0011869
0.00118967
0.00119234
0.00119508
0.00119829
0.00120267
0.0012106
0.00122643
0.00124531
0.00346604
0.00267614
0.00209962
0.00177548
0.00158444
0.00147137
0.00140836
0.00137685
0.00136441
0.00136308
0.001368
0.00137593
0.00138477
0.00139362
0.0014042
0.0014172
0.00143095
0.00144773
0.00147122
0.00149216
0.00401423
0.00313561
0.00244829
0.00204301
0.00179611
0.00164968
0.00156972
0.00153214
0.00152159
0.00152911
0.00154949
0.00157897
0.0016145
0.00165389
0.00169437
0.00173293
0.0017706
0.0018151
0.00186408
0.00189715
0.00461843
0.00360361
0.00274781
0.00222766
0.00191352
0.00173019
0.00163254
0.00158846
0.00157998
0.00159825
0.00163917
0.00169913
0.0017742
0.00186683
0.00197597
0.00209512
0.00221315
0.00232481
0.00244088
0.00251538
0.00510245
0.0039381
0.0028268
0.00218644
0.0018426
0.00166332
0.0015722
0.00153144
0.00152407
0.0015434
0.00158829
0.00166108
0.00176691
0.00191299
0.00210623
0.00234285
0.0026008
0.00288131
0.00314687
0.00330462
0.00466266
0.00324789
0.00202798
0.00148595
0.00124052
0.00112402
0.00106717
0.00104185
0.00103684
0.00104825
0.00107598
0.00112246
0.0011925
0.00129364
0.00143721
0.00164035
0.00193248
0.00237615
0.00302558
0.00350099
0.0028748
0.00167726
0.00122097
0.00103427
0.000954776
0.000916487
0.000896951
0.000888216
0.000887485
0.000894169
0.000909025
0.000933977
0.000972354
0.00102956
0.00111478
0.00124485
0.00145402
0.00181714
0.00246766
0.00451574
0.000859702
0.000858218
0.000857168
0.000856415
0.000855875
0.000855502
0.00085526
0.000855112
0.000855031
0.000854995
0.000854994
0.000855026
0.000855097
0.000855221
0.000855421
0.00085573
0.000856191
0.000856864
0.000857854
0.000859362
0.000858898
0.00085768
0.000856779
0.00085611
0.00085562
0.000855279
0.000855056
0.00085492
0.000854844
0.000854811
0.000854809
0.000854838
0.000854903
0.000855017
0.000855202
0.000855485
0.000855902
0.000856495
0.000857328
0.000858518
0.000858743
0.000857495
0.000856608
0.000855963
0.000855492
0.000855165
0.000854951
0.00085482
0.000854747
0.000854715
0.000854712
0.000854738
0.000854797
0.000854903
0.000855075
0.000855339
0.000855729
0.000856287
0.00085709
0.000858299
0.000858647
0.000857405
0.000856521
0.000855878
0.000855411
0.000855087
0.000854875
0.000854746
0.000854674
0.000854641
0.000854638
0.000854662
0.000854719
0.000854822
0.000854989
0.000855248
0.000855631
0.000856182
0.00085698
0.000858181
0.000858591
0.000857352
0.000856475
0.000855837
0.000855372
0.00085505
0.000854839
0.000854711
0.000854638
0.000854606
0.000854602
0.000854626
0.000854682
0.000854784
0.000854949
0.000855206
0.000855585
0.000856133
0.000856924
0.00085812
0.000858567
0.000857337
0.000856463
0.000855827
0.000855363
0.000855041
0.000854831
0.000854702
0.00085463
0.000854598
0.000854594
0.000854618
0.000854674
0.000854775
0.000854939
0.000855194
0.000855572
0.000856116
0.000856904
0.000858096
0.000858563
0.000857337
0.000856463
0.000855827
0.000855363
0.000855042
0.000854831
0.000854703
0.000854631
0.000854598
0.000854595
0.000854618
0.000854674
0.000854774
0.000854938
0.000855192
0.000855568
0.00085611
0.000856896
0.000858086
0.000858564
0.00085734
0.000856467
0.000855831
0.000855367
0.000855046
0.000854835
0.000854707
0.000854635
0.000854602
0.000854599
0.000854622
0.000854678
0.000854778
0.000854942
0.000855195
0.00085557
0.00085611
0.000856895
0.000858085
0.000858572
0.000857349
0.000856474
0.000855837
0.000855372
0.00085505
0.000854839
0.000854711
0.000854639
0.000854606
0.000854603
0.000854626
0.000854682
0.000854781
0.000854945
0.000855197
0.000855571
0.000856111
0.000856895
0.000858085
0.000858579
0.000857357
0.000856481
0.000855842
0.000855376
0.000855054
0.000854843
0.000854715
0.000854642
0.00085461
0.000854606
0.000854629
0.000854685
0.000854785
0.000854948
0.0008552
0.000855574
0.000856113
0.000856897
0.000858089
0.000858588
0.000857364
0.000856486
0.000855845
0.000855378
0.000855055
0.000854844
0.000854715
0.000854643
0.00085461
0.000854607
0.00085463
0.000854686
0.000854785
0.000854948
0.0008552
0.000855574
0.000856112
0.000856896
0.00085809
0.000858591
0.000857367
0.000856488
0.000855846
0.000855377
0.000855053
0.000854842
0.000854714
0.000854642
0.000854609
0.000854605
0.000854629
0.000854684
0.000854784
0.000854947
0.000855198
0.000855572
0.00085611
0.000856896
0.000858092
0.000858593
0.000857368
0.000856486
0.000855842
0.000855372
0.000855048
0.000854836
0.000854708
0.000854636
0.000854603
0.0008546
0.000854623
0.000854679
0.000854779
0.000854942
0.000855193
0.000855567
0.000856105
0.000856891
0.000858089
0.000858589
0.000857364
0.000856481
0.000855836
0.000855365
0.000855041
0.000854828
0.0008547
0.000854628
0.000854596
0.000854593
0.000854616
0.000854672
0.000854772
0.000854935
0.000855186
0.00085556
0.000856098
0.000856886
0.000858087
0.000858586
0.000857361
0.000856476
0.000855829
0.000855356
0.000855031
0.000854818
0.00085469
0.000854618
0.000854585
0.000854582
0.000854606
0.000854662
0.000854762
0.000854926
0.000855176
0.000855551
0.000856089
0.000856877
0.00085808
0.000858587
0.000857361
0.000856472
0.000855823
0.000855348
0.000855022
0.000854809
0.00085468
0.000854608
0.000854576
0.000854573
0.000854597
0.000854653
0.000854753
0.000854917
0.000855168
0.000855542
0.00085608
0.000856869
0.000858075
0.000858581
0.000857357
0.000856466
0.000855815
0.000855339
0.000855013
0.000854799
0.000854671
0.000854599
0.000854567
0.000854564
0.000854588
0.000854644
0.000854744
0.000854908
0.000855159
0.000855533
0.000856071
0.000856861
0.000858069
0.000858581
0.000857351
0.000856461
0.00085581
0.000855334
0.000855007
0.000854793
0.000854665
0.000854593
0.000854561
0.000854558
0.000854582
0.000854638
0.000854738
0.000854902
0.000855153
0.000855527
0.000856066
0.000856857
0.000858067
0.00085858
0.000857354
0.000856462
0.00085581
0.000855332
0.000855005
0.000854791
0.000854662
0.00085459
0.000854558
0.000854555
0.000854579
0.000854636
0.000854736
0.0008549
0.000855151
0.000855525
0.000856064
0.000856856
0.000858069
0.000858598
0.00085737
0.000856473
0.000855816
0.000855337
0.000855008
0.000854793
0.000854664
0.000854592
0.00085456
0.000854557
0.000854581
0.000854637
0.000854737
0.000854901
0.000855153
0.000855527
0.000856066
0.000856859
0.000858076
0.000858612
0.000857384
0.000856485
0.000855826
0.000855344
0.000855015
0.000854799
0.00085467
0.000854598
0.000854566
0.000854563
0.000854587
0.000854644
0.000854744
0.000854908
0.00085516
0.000855534
0.000856074
0.000856868
0.000858089
0.000858629
0.000857396
0.000856496
0.000855836
0.000855354
0.000855024
0.000854809
0.000854679
0.000854607
0.000854575
0.000854572
0.000854596
0.000854653
0.000854753
0.000854918
0.00085517
0.000855544
0.000856085
0.00085688
0.000858105
0.000858645
0.000857416
0.000856514
0.000855852
0.000855369
0.000855037
0.000854821
0.000854692
0.000854619
0.000854587
0.000854584
0.000854609
0.000854666
0.000854768
0.000854932
0.000855185
0.000855559
0.000856102
0.000856899
0.000858129
0.000858675
0.000857443
0.000856536
0.00085587
0.000855385
0.000855052
0.000854835
0.000854705
0.000854632
0.000854601
0.000854597
0.000854623
0.00085468
0.000854781
0.000854946
0.0008552
0.000855575
0.000856118
0.000856917
0.000858152
0.000858708
0.000857472
0.00085656
0.00085589