/*--------------------------------*- C++ -*----------------------------------*\
  =========                 |
  \\      /  F ield         | OpenFOAM: The Open Source CFD Toolbox
   \\    /   O peration     | Website:  https://openfoam.org
    \\  /    A nd           | Version:  6
     \\/     M anipulation  |
\*---------------------------------------------------------------------------*/
FoamFile
{
    version     2.0;
    format      ascii;
    class       volScalarField;
    location    "1";
    object      p;
}
// * * * * * * * * * * * * * * * * * * * * * * * * * * * * * * * * * * * * * //

dimensions      [0 2 -2 0 0 0 0];

internalField   nonuniform List<scalar> 
130000
(
0.56998
0.570344
0.571559
0.573238
0.575211
0.577277
0.579427
0.581556
0.583703
0.585806
0.587915
0.589987
0.59207
0.594139
0.59624
0.598369
0.600587
0.602936
0.605545
0.608645
1.7675
1.77135
1.77599
1.78163
1.78761
1.79397
1.80035
1.80686
1.81328
1.81973
1.82609
1.83247
1.83878
1.84513
1.85149
1.85794
1.8645
1.87132
1.87851
1.88646
3.02803
3.03863
3.04837
3.05878
3.0692
3.08005
3.09077
3.10171
3.11246
3.12333
3.134
3.14476
3.15537
3.16608
3.17668
3.18742
3.19814
3.20905
3.22
3.2313
4.29309
4.30862
4.32293
4.33784
4.35264
4.36784
4.38282
4.39805
4.41301
4.42813
4.443
4.45798
4.47275
4.48762
4.50233
4.51715
4.53185
4.54667
4.56136
4.57634
5.55996
5.58039
5.59914
5.61845
5.63755
5.65703
5.67622
5.69565
5.71476
5.73405
5.75302
5.77214
5.79098
5.80995
5.82866
5.84751
5.86613
5.88486
5.90336
5.92219
6.82884
6.8539
6.8769
6.90044
6.92372
6.94738
6.97071
6.99428
7.01749
7.04089
7.06393
7.08713
7.10999
7.13299
7.15569
7.17852
7.20105
7.2237
7.24604
7.26875
8.09932
8.12868
8.15578
8.18342
8.21084
8.23862
8.26606
8.29375
8.32105
8.34855
8.37565
8.40292
8.42981
8.45685
8.48353
8.51035
8.53682
8.56341
8.58963
8.61629
9.36994
9.40379
9.43505
9.46687
9.49845
9.5304
9.56199
9.59383
9.62525
9.65686
9.68805
9.7194
9.75033
9.7814
9.81208
9.84288
9.8733
9.90383
9.93395
9.96454
10.6409
10.6793
10.7148
10.7509
10.7866
10.8228
10.8585
10.8946
10.9301
10.9659
11.0012
11.0366
11.0716
11.1067
11.1414
11.1762
11.2106
11.2451
11.2792
11.3138
11.913
11.9558
11.9954
12.0356
12.0755
12.1158
12.1557
12.1959
12.2356
12.2755
12.3149
12.3545
12.3935
12.4327
12.4714
12.5102
12.5486
12.5871
12.625
12.6636
13.1858
13.233
13.2767
13.321
13.3651
13.4096
13.4537
13.498
13.5419
13.5859
13.6294
13.6731
13.7161
13.7594
13.8021
13.845
13.8873
13.9298
13.9716
14.0142
14.4592
14.5108
14.5586
14.6071
14.6553
14.704
14.7522
14.8008
14.8487
14.8969
14.9445
14.9922
15.0393
15.0866
15.1333
15.1802
15.2265
15.2729
15.3187
15.3652
15.7328
15.7892
15.8412
15.894
15.9464
15.9993
16.0516
16.1043
16.1563
16.2086
16.2602
16.312
16.3631
16.4144
16.4651
16.516
16.5662
16.6165
16.6662
16.7167
17.0076
17.0685
17.1247
17.1817
17.2382
17.2952
17.3516
17.4083
17.4644
17.5207
17.5763
17.6321
17.6872
17.7425
17.7971
17.8519
17.906
17.9602
18.0138
18.0681
18.2831
18.3485
18.4089
18.4699
18.5305
18.5916
18.6521
18.7128
18.7729
18.8332
18.8928
18.9525
19.0116
19.0708
19.1293
19.188
19.2459
19.304
19.3614
19.4196
19.5581
19.6283
19.693
19.7583
19.823
19.8882
19.9527
20.0175
20.0815
20.1458
20.2093
20.273
20.3359
20.399
20.4614
20.5239
20.5856
20.6475
20.7087
20.7707
20.8332
20.9081
20.9772
21.0466
21.1156
21.1848
21.2534
21.3222
21.3903
21.4585
21.5259
21.5935
21.6603
21.7272
21.7933
21.8596
21.9251
21.9908
22.0556
22.1214
22.1081
22.1878
22.2612
22.335
22.4081
22.4815
22.5541
22.6269
22.6989
22.7711
22.8424
22.9138
22.9844
23.0551
23.1251
23.1951
23.2643
23.3336
23.4021
23.4715
23.3833
23.4678
23.5455
23.6235
23.7008
23.7783
23.855
23.9318
24.0077
24.0837
24.1589
24.2341
24.3086
24.383
24.4566
24.5303
24.6032
24.6761
24.7482
24.8212
24.6595
24.7486
24.8306
24.9127
24.9941
25.0756
25.1563
25.237
25.3169
25.3967
25.4758
25.5547
25.6329
25.711
25.7883
25.8656
25.9421
26.0186
26.0943
26.1708
25.9369
26.0306
26.1167
26.2029
26.2884
26.3738
26.4585
26.543
26.6267
26.7103
26.7931
26.8758
26.9576
27.0394
27.1203
27.2012
27.2813
27.3612
27.4404
27.5204
27.216
27.314
27.4042
27.4944
27.5839
27.6732
27.7617
27.85
27.9376
28.0249
28.1114
28.1977
28.2833
28.3686
28.4532
28.5375
28.6212
28.7046
28.7873
28.8707
28.496
28.5986
28.6929
28.7871
28.8806
28.9738
29.0662
29.1583
29.2497
29.3407
29.431
29.5209
29.6101
29.699
29.7872
29.875
29.9622
30.049
30.1351
30.2219
29.7779
29.8848
29.9833
30.0815
30.179
30.2761
30.3724
30.4684
30.5635
30.6583
30.7523
30.8459
30.9387
31.0312
31.123
31.2143
31.305
31.3953
31.4849
31.5751
31.0617
31.1732
31.2758
31.3781
31.4795
31.5805
31.6807
31.7805
31.8795
31.978
32.0757
32.173
32.2695
32.3656
32.4609
32.5558
32.65
32.7437
32.8368
32.9304
32.3484
32.4642
32.5709
32.6771
32.7825
32.8874
32.9916
33.0952
33.198
33.3003
33.4018
33.5028
33.6031
33.7028
33.8017
33.9002
33.9979
34.0952
34.1917
34.2888
33.637
33.7574
33.8683
33.9786
34.0881
34.197
34.3052
34.4127
34.5195
34.6256
34.7309
34.8357
34.9397
35.043
35.1457
35.2477
35.3491
35.4498
35.5498
35.6503
34.9289
35.0538
35.1689
35.2834
35.397
35.51
35.6222
35.7337
35.8444
35.9544
36.0636
36.1721
36.2799
36.387
36.4933
36.599
36.7039
36.8082
36.9118
37.0158
36.2241
36.3537
36.473
36.5917
36.7095
36.8266
36.9428
37.0583
37.173
37.2869
37.4
37.5123
37.6239
37.7347
37.8447
37.9541
38.0626
38.1705
38.2776
38.3851
37.5235
37.6577
37.7812
37.904
38.026
38.1471
38.2674
38.3869
38.5056
38.6234
38.7404
38.8566
38.9719
39.0865
39.2003
39.3132
39.4254
39.5368
39.6475
39.7586
38.8269
38.9657
39.0934
39.2204
39.3464
39.4717
39.5961
39.7196
39.8422
39.9639
40.0848
40.2048
40.324
40.4423
40.5598
40.6764
40.7923
40.9072
41.0215
41.136
40.1341
40.2774
40.4094
40.5406
40.6709
40.8003
40.9287
41.0562
41.1828
41.3085
41.4333
41.5572
41.6801
41.8022
41.9234
42.0437
42.1631
42.2817
42.3994
42.5175
41.4449
41.593
41.7293
41.8648
41.9992
42.1328
42.2653
42.3969
42.5275
42.6571
42.7858
42.9135
43.0403
43.1661
43.2909
43.4149
43.5379
43.66
43.7812
43.9028
42.76
42.9128
43.0534
43.1931
43.3317
43.4694
43.606
43.7417
43.8762
44.0098
44.1423
44.2739
44.4044
44.534
44.6625
44.79
44.9166
45.0423
45.1669
45.292
44.0792
44.2366
44.3815
44.5255
44.6683
44.8102
44.9509
45.0905
45.2291
45.3666
45.503
45.6384
45.7726
45.9059
46.038
46.1692
46.2993
46.4284
46.5565
46.685
45.4024
45.5646
45.7138
45.8621
46.0091
46.1551
46.2999
46.4436
46.5862
46.7276
46.8679
47.007
47.145
47.2819
47.4177
47.5524
47.686
47.8186
47.95
48.0818
46.7298
46.8969
47.0505
47.203
47.3543
47.5045
47.6534
47.8012
47.9477
48.093
48.2371
48.38
48.5217
48.6623
48.8016
48.9399
49.0769
49.2128
49.3476
49.4827
48.0621
48.2339
48.3919
48.5487
48.7043
48.8586
49.0116
49.1634
49.3138
49.4631
49.6109
49.7576
49.903
50.0472
50.19
50.3317
50.4721
50.6114
50.7494
50.8877
49.3994
49.576
49.7383
49.8994
50.0591
50.2177
50.3747
50.5305
50.6849
50.838
50.9896
51.14
51.289
51.4368
51.5831
51.7282
51.872
52.0145
52.1557
52.2972
50.7417
50.9231
51.0898
51.2552
51.4192
51.5819
51.743
51.9028
52.0611
52.2181
52.3735
52.5276
52.6801
52.8314
52.9812
53.1297
53.2767
53.4225
53.5668
53.7114
52.0893
52.2756
52.4467
52.6165
52.7848
52.9516
53.1168
53.2807
53.4428
53.6036
53.7627
53.9205
54.0766
54.2314
54.3845
54.5363
54.6866
54.8355
54.9829
55.1305
53.4429
53.6341
53.8096
53.9838
54.1563
54.3273
54.4965
54.6643
54.8304
54.995
55.1578
55.3192
55.4788
55.637
55.7935
55.9486
56.102
56.254
56.4043
56.5549
54.8028
54.9987
55.1787
55.3572
55.534
55.7091
55.8825
56.0542
56.2242
56.3925
56.5591
56.724
56.8871
57.0487
57.2085
57.3667
57.5232
57.6782
57.8315
57.9849
56.1688
56.3697
56.5542
56.7371
56.9182
57.0975
57.275
57.4507
57.6246
57.7967
57.9668
58.1353
58.3019
58.4668
58.6298
58.7912
58.9508
59.1087
59.2648
59.421
57.5414
57.7475
57.9366
58.124
58.3094
58.493
58.6746
58.8543
59.032
59.2078
59.3816
59.5536
59.7236
59.8918
60.058
60.2225
60.385
60.5458
60.7046
60.8635
58.922
59.1331
59.3268
59.5186
59.7083
59.8961
60.0818
60.2655
60.447
60.6265
60.8039
60.9794
61.1527
61.3242
61.4935
61.6609
61.8263
61.9898
62.1513
62.3128
60.3107
60.5269
60.7251
60.9214
61.1154
61.3074
61.4971
61.6847
61.87
62.0533
62.2342
62.4131
62.5898
62.7643
62.9367
63.1071
63.2752
63.4415
63.6055
63.7694
61.7079
61.9291
62.132
62.3327
62.5311
62.7273
62.9211
63.1126
63.3017
63.4886
63.6731
63.8553
64.0352
64.2129
64.3882
64.5614
64.7323
64.9011
65.0676
65.2338
63.1139
63.3404
63.548
63.7533
63.956
64.1564
64.3543
64.5497
64.7426
64.9331
65.121
65.3066
65.4896
65.6703
65.8485
66.0245
66.1979
66.3692
66.538
66.7065
64.5298
64.7616
64.9738
65.1836
65.3907
65.5954
65.7973
65.9966
66.1932
66.3873
66.5786
66.7675
66.9536
67.1373
67.3183
67.4969
67.6728
67.8464
68.0174
68.188
65.956
66.1931
66.41
66.6244
66.8359
67.0448
67.2507
67.4539
67.6542
67.8519
68.0466
68.2386
68.4278
68.6143
68.798
68.9791
69.1575
69.3333
69.5064
69.6789
67.3931
67.6355
67.8573
68.0762
68.2922
68.5053
68.7153
68.9224
69.1264
69.3275
69.5255
69.7207
69.9128
70.1021
70.2884
70.472
70.6526
70.8306
71.0056
71.1798
68.8416
69.0895
69.3162
69.5399
69.7603
69.9776
70.1917
70.4027
70.6103
70.8149
71.0162
71.2144
71.4094
71.6015
71.7903
71.9761
72.1589
72.3388
72.5156
72.6914
70.3029
70.5564
70.7879
71.0163
71.2412
71.4628
71.6809
71.8957
72.1069
72.3149
72.5194
72.7207
72.9185
73.113
73.3042
73.4923
73.677
73.8587
74.0371
74.2144
71.7777
72.0368
72.2733
72.5063
72.7357
72.9615
73.1836
73.4022
73.6171
73.8284
74.036
74.2402
74.4406
74.6377
74.8311
75.0212
75.2078
75.3911
75.5709
75.7495
73.2669
73.5315
73.773
74.0108
74.2447
74.4748
74.7009
74.9233
75.1416
75.3563
75.5669
75.7739
75.9769
76.1763
76.3719
76.5638
76.7521
76.9368
77.1178
77.2974
74.7711
75.0416
75.2882
75.5308
75.7692
76.0035
76.2336
76.4597
76.6816
76.8994
77.113
77.3227
77.5282
77.7298
77.9273
78.121
78.3107
78.4966
78.6787
78.8591
76.2919
76.5682
76.8198
77.0673
77.3102
77.5488
77.7829
78.0127
78.238
78.4589
78.6754
78.8877
79.0955
79.2991
79.4984
79.6936
79.8846
80.0716
80.2544
80.4353
77.8301
78.1123
78.3691
78.6214
78.8689
79.1117
79.3498
79.5832
79.8119
80.0359
80.2551
80.4699
80.6799
80.8854
81.0863
81.2828
81.4749
81.6626
81.846
82.0271
79.3868
79.6749
79.937
80.1942
80.4463
80.6935
80.9355
81.1726
81.4045
81.6315
81.8534
82.0704
82.2825
82.4897
82.692
82.8897
83.0825
83.2708
83.4544
83.6355
80.9631
81.2574
81.5249
81.7872
82.0439
82.2954
82.5413
82.782
83.0171
83.247
83.4714
83.6907
83.9046
84.1133
84.3168
84.5154
84.7087
84.8973
85.0808
85.2616
82.5611
82.8617
83.1346
83.4018
83.6632
83.919
84.1688
84.4129
84.6512
84.8839
85.1107
85.332
85.5475
85.7576
85.962
86.1611
86.3548
86.5432
86.7264
86.9064
84.1821
84.489
84.7674
85.0397
85.3058
85.5657
85.8194
86.067
86.3083
86.5436
86.7726
86.9957
87.2127
87.4238
87.629
87.8284
88.022
88.21
88.3924
88.5713
85.8276
86.141
86.4249
86.7023
86.9731
87.2373
87.4948
87.7457
87.99
88.2277
88.4588
88.6836
88.9017
89.1137
89.3192
89.5186
89.7118
89.899
90.0802
90.2576
87.4991
87.8192
88.1088
88.3915
88.6669
88.9354
89.1966
89.4509
89.6979
89.938
90.171
90.3971
90.6163
90.8287
91.0343
91.2333
91.4257
91.6117
91.7913
91.9667
89.1989
89.5258
89.8212
90.1091
90.3893
90.662
90.9269
91.1843
91.4341
91.6763
91.911
92.1382
92.358
92.5706
92.7759
92.9742
93.1654
93.3498
93.5272
93.7
90.929
91.2628
91.5641
91.8573
92.1423
92.4191
92.6877
92.9482
93.2004
93.4447
93.6807
93.9089
94.129
94.3415
94.5461
94.7431
94.9326
95.1148
95.2897
95.4594
92.6912
93.0322
93.3395
93.6382
93.928
94.209
94.4812
94.7446
94.9992
95.2452
95.4825
95.7112
95.9314
96.1432
96.3467
96.5421
96.7293
96.9088
97.0805
97.2464
94.488
94.8365
95.15
95.4543
95.7489
96.0341
96.3098
96.5761
96.8329
97.0804
97.3185
97.5475
97.7673
97.9781
98.1799
98.3731
98.5576
98.7338
98.9015
99.063
96.3226
96.6787
96.9986
97.3084
97.6079
97.8973
98.1763
98.4453
98.7041
98.9528
99.1915
99.4203
99.6392
99.8485
100.048
100.239
100.42
100.592
100.755
100.911
98.1977
98.5616
98.8879
99.2034
99.5078
99.8013
100.084
100.355
100.616
100.865
101.104
101.332
101.55
101.757
101.954
102.141
102.318
102.485
102.643
102.793
100.116
100.488
100.821
101.142
101.452
101.749
102.035
102.309
102.571
102.821
103.059
103.287
103.502
103.707
103.9
104.083
104.255
104.417
104.568
104.711
102.082
102.462
102.802
103.129
103.443
103.745
104.033
104.309
104.572
104.823
105.061
105.286
105.5
105.701
105.89
106.068
106.234
106.389
106.533
106.668
104.098
104.487
104.834
105.167
105.486
105.792
106.083
106.361
106.625
106.875
107.112
107.335
107.545
107.742
107.926
108.098
108.257
108.405
108.54
108.666
106.169
106.567
106.921
107.261
107.585
107.894
108.189
108.468
108.732
108.982
109.216
109.437
109.643
109.835
110.013
110.177
110.329
110.467
110.593
110.708
108.299
108.707
109.069
109.415
109.744
110.057
110.354
110.634
110.898
111.147
111.379
111.595
111.796
111.982
112.153
112.31
112.452
112.58
112.695
112.797
110.493
110.912
111.281
111.634
111.968
112.285
112.584
112.865
113.129
113.375
113.604
113.816
114.011
114.19
114.353
114.499
114.631
114.747
114.849
114.938
112.758
113.187
113.565
113.924
114.264
114.584
114.885
115.166
115.429
115.673
115.897
116.104
116.292
116.462
116.615
116.75
116.869
116.972
117.059
117.132
115.099
115.539
115.926
116.292
116.637
116.96
117.263
117.544
117.805
118.045
118.265
118.464
118.644
118.804
118.945
119.068
119.173
119.26
119.331
119.385
117.523
117.975
118.371
118.744
119.094
119.421
119.725
120.006
120.264
120.499
120.712
120.904
121.073
121.222
121.35
121.458
121.546
121.616
121.667
121.701
120.038
120.503
120.908
121.289
121.644
121.974
122.279
122.558
122.813
123.043
123.248
123.43
123.587
123.722
123.835
123.926
123.995
124.044
124.073
124.084
122.652
123.13
123.546
123.935
124.295
124.628
124.933
125.21
125.46
125.683
125.88
126.05
126.194
126.313
126.407
126.478
126.526
126.551
126.555
126.539
125.375
125.868
126.295
126.691
127.057
127.393
127.698
127.972
128.217
128.431
128.616
128.773
128.901
129.001
129.075
129.122
129.145
129.143
129.119
129.072
128.217
128.726
129.165
129.571
129.942
130.28
130.584
130.855
131.092
131.297
131.468
131.609
131.718
131.796
131.846
131.867
131.86
131.828
131.77
131.688
131.191
131.718
132.17
132.585
132.962
133.302
133.605
133.871
134.099
134.292
134.448
134.569
134.656
134.71
134.731
134.721
134.681
134.612
134.517
134.394
134.31
134.857
135.323
135.748
136.131
136.474
136.774
137.034
137.252
137.43
137.568
137.667
137.728
137.752
137.74
137.694
137.615
137.505
137.366
137.196
137.59
138.158
138.64
139.077
139.467
139.811
140.109
140.361
140.567
140.728
140.844
140.917
140.948
140.937
140.887
140.799
140.675
140.517
140.326
140.103
141.047
141.64
142.14
142.589
142.987
143.333
143.628
143.871
144.062
144.204
144.295
144.337
144.332
144.281
144.186
144.049
143.871
143.657
143.406
143.121
144.701
145.323
145.843
146.307
146.714
147.063
147.353
147.586
147.761
147.879
147.94
147.947
147.9
147.801
147.653
147.458
147.219
146.937
146.617
146.258
148.574
149.229
149.773
150.255
150.672
151.024
151.31
151.532
151.687
151.778
151.805
151.77
151.674
151.52
151.309
151.046
150.732
150.373
149.97
149.525
152.689
153.383
153.956
154.459
154.89
155.247
155.53
155.739
155.873
155.933
155.92
155.836
155.682
155.462
155.177
154.832
154.431
153.978
153.478
152.93
157.073
157.813
158.422
158.952
159.401
159.766
160.048
160.244
160.355
160.38
160.322
160.18
159.958
159.659
159.286
158.843
158.337
157.771
157.153
156.482
161.754
162.551
163.204
163.77
164.243
164.623
164.906
165.091
165.177
165.164
165.053
164.846
164.544
164.152
163.672
163.112
162.477
161.775
161.013
160.192
166.76
167.628
168.34
168.953
169.462
169.864
170.155
170.332
170.394
170.341
170.172
169.889
169.493
168.99
168.383
167.68
166.887
166.015
165.075
164.068
172.116
173.079
173.869
174.549
175.11
175.548
175.856
176.032
176.073
175.978
175.745
175.377
174.874
174.24
173.48
172.601
171.613
170.527
169.36
168.117
177.839
178.93
179.831
180.607
181.246
181.738
182.078
182.263
182.288
182.152
181.854
181.393
180.77
179.985
179.044
177.951
176.718
175.359
173.895
172.34
183.906
185.184
186.249
187.165
187.913
188.484
188.873
189.077
189.095
188.923
188.561
188.007
187.256
186.308
185.16
183.815
182.278
180.563
178.7
176.712
190.151
191.718
193.029
194.138
195.027
195.693
196.14
196.372
196.388
196.19
195.774
195.135
194.267
193.159
191.802
190.182
188.29
186.124
183.706
181.083
195.803
197.88
199.531
200.85
201.865
202.608
203.098
203.35
203.368
203.153
202.702
202.008
201.058
199.836
198.317
196.466
194.234
191.561
188.387
184.719
199.576
204.877
207.268
208.716
209.741
210.48
210.968
211.218
211.233
211.013
210.552
209.842
208.87
207.616
206.046
204.106
201.685
198.512
193.821
185.207
0.973741
0.973284
0.973582
0.974306
0.975273
0.976393
0.977603
0.978879
0.980198
0.981554
0.982939
0.984357
0.985808
0.98731
0.988873
0.990539
0.992356
0.994432
0.996941
1.00027
3.01758
3.01885
3.02119
3.02419
3.02762
3.03133
3.03524
3.03928
3.04343
3.04766
3.05197
3.05636
3.06083
3.06541
3.07014
3.07506
3.08029
3.08597
3.09235
3.09992
5.16767
5.17354
5.17964
5.18601
5.19264
5.19946
5.20645
5.21356
5.22079
5.2281
5.23551
5.243
5.25059
5.25829
5.26613
5.27414
5.28237
5.29087
5.29967
5.30888
7.31686
7.32672
7.33656
7.34645
7.35648
7.36658
7.3768
7.38708
7.39746
7.40788
7.4184
7.42896
7.43962
7.45033
7.46116
7.47207
7.48311
7.49427
7.50553
7.51699
9.46587
9.4794
9.49282
9.5062
9.51963
9.53305
9.54655
9.56004
9.5736
9.58716
9.60078
9.61442
9.62811
9.64183
9.65559
9.66939
9.68323
9.69711
9.71099
9.72503
11.6148
11.6318
11.6487
11.6655
11.6823
11.6991
11.7158
11.7325
11.7493
11.766
11.7827
11.7994
11.8162
11.8329
11.8496
11.8662
11.8829
11.8996
11.9162
11.9329
13.7639
13.7844
13.8047
13.8248
13.845
13.865
13.885
13.905
13.9249
13.9447
13.9646
13.9844
14.0041
14.0238
14.0435
14.0631
14.0826
14.1021
14.1215
14.1411
15.9133
15.9372
15.9609
15.9844
16.0078
16.0311
16.0543
16.0775
16.1006
16.1235
16.1465
16.1693
16.1921
16.2148
16.2375
16.26
16.2825
16.3048
16.3271
16.3495
18.0634
18.0907
18.1177
18.1444
18.1711
18.1977
18.2241
18.2504
18.2767
18.3028
18.3288
18.3548
18.3806
18.4063
18.4319
18.4574
18.4828
18.5081
18.5332
18.5585
20.2143
20.245
20.2752
20.3053
20.3352
20.365
20.3946
20.4241
20.4535
20.4827
20.5118
20.5408
20.5697
20.5984
20.627
20.6555
20.6837
20.7119
20.7399
20.768
22.3664
22.4003
22.4339
22.4671
22.5003
22.5332
22.5661
22.5987
22.6312
22.6636
22.6958
22.7278
22.7597
22.7915
22.823
22.8544
22.8856
22.9167
22.9475
22.9786
24.5195
24.5568
24.5936
24.6301
24.6665
24.7026
24.7386
24.7744
24.81
24.8455
24.8807
24.9158
24.9507
24.9854
25.0199
25.0543
25.0884
25.1224
25.1561
25.19
26.6739
26.7145
26.7545
26.7943
26.8338
26.8732
26.9123
26.9512
26.9899
27.0285
27.0668
27.1049
27.1428
27.1805
27.218
27.2553
27.2923
27.3292
27.3657
27.4026
28.8292
28.8731
28.9164
28.9594
29.0022
29.0447
29.087
29.129
29.1708
29.2124
29.2538
29.2949
29.3358
29.3765
29.4169
29.4571
29.497
29.5368
29.5762
29.6158
30.9853
31.0325
31.0791
31.1253
31.1714
31.217
31.2625
31.3077
31.3526
31.3973
31.4417
31.4859
31.5297
31.5734
31.6167
31.6599
31.7027
31.7453
31.7875
31.83
33.1418
33.1924
33.2423
33.2918
33.341
33.3899
33.4386
33.4869
33.5349
33.5827
33.6301
33.6773
33.7242
33.7708
33.8171
33.8631
33.9088
33.9542
33.9992
34.0445
35.2986
35.3526
35.4058
35.4586
35.5111
35.5632
35.6151
35.6665
35.7177
35.7686
35.8191
35.8693
35.9191
35.9687
36.0178
36.0668
36.1153
36.1635
36.2113
36.2595
37.4555
37.5128
37.5694
37.6255
37.6814
37.7367
37.7918
37.8464
37.9007
37.9546
38.0082
38.0614
38.1142
38.1667
38.2188
38.2705
38.3219
38.3729
38.4235
38.4743
39.6124
39.6732
39.7332
39.7926
39.8517
39.9103
39.9686
40.0264
40.0839
40.1409
40.1975
40.2537
40.3095
40.3649
40.4198
40.4745
40.5286
40.5824
40.6357
40.6893
41.7691
41.8335
41.8969
41.9597
42.0222
42.0841
42.1456
42.2066
42.2672
42.3273
42.387
42.4462
42.505
42.5633
42.6211
42.6785
42.7354
42.792
42.848
42.9042
43.9262
43.9941
44.061
44.1273
44.1931
44.2583
44.3231
44.3873
44.4511
44.5143
44.577
44.6392
44.7009
44.7621
44.8228
44.883
44.9427
45.0019
45.0605
45.1194
46.084
46.1555
46.2259
46.2956
46.3649
46.4334
46.5015
46.5689
46.6358
46.7021
46.7679
46.8331
46.8977
46.9618
47.0253
47.0883
47.1506
47.2125
47.2738
47.3353
48.243
48.3182
48.3921
48.4653
48.5379
48.6098
48.6812
48.7518
48.8219
48.8913
48.9601
49.0282
49.0958
49.1627
49.229
49.2947
49.3598
49.4243
49.4882
49.5522
50.404
50.4828
50.5603
50.6369
50.7129
50.7882
50.8628
50.9367
51.0099
51.0824
51.1542
51.2254
51.2958
51.3656
51.4347
51.5032
51.5709
51.6381
51.7046
51.7711
52.5674
52.6499
52.7309
52.811
52.8904
52.969
53.0469
53.124
53.2004
53.276
53.3509
53.425
53.4984
53.571
53.6429
53.714
53.7845
53.8542
53.9233
53.9923
54.7341
54.8203
54.9048
54.9884
55.0712
55.1532
55.2344
55.3147
55.3943
55.4729
55.5509
55.6279
55.7042
55.7797
55.8544
55.9283
56.0015
56.0738
56.1455
56.217
56.9046
56.9944
57.0824
57.1695
57.2558
57.3411
57.4256
57.5091
57.5918
57.6736
57.7546
57.8346
57.9139
57.9922
58.0697
58.1463
58.2222
58.2971
58.3714
58.4454
59.0796
59.173
59.2645
59.3551
59.4448
59.5334
59.6212
59.708
59.7939
59.8787
59.9628
60.0458
60.128
60.2091
60.2895
60.3688
60.4474
60.525
60.6018
60.6784
61.2592
61.3562
61.4513
61.5453
61.6384
61.7304
61.8215
61.9115
62.0005
62.0885
62.1756
62.2616
62.3467
62.4308
62.5139
62.596
62.6773
62.7575
62.8369
62.9161
63.4438
63.5445
63.6431
63.7406
63.8371
63.9324
64.0268
64.12
64.2122
64.3033
64.3935
64.4825
64.5705
64.6574
64.7434
64.8283
64.9122
64.9951
65.0771
65.1588
65.6335
65.7378
65.8399
65.9409
66.0408
66.1395
66.2371
66.3336
66.429
66.5232
66.6164
66.7084
66.7993
66.8891
66.9779
67.0655
67.1522
67.2376
67.3222
67.4065
67.8283
67.9362
68.0419
68.1463
68.2496
68.3517
68.4526
68.5523
68.6509
68.7482
68.8444
68.9394
69.0333
69.1259
69.2175
69.3078
69.3972
69.4853
69.5724
69.6592
70.0282
70.1398
70.249
70.3569
70.4636
70.5691
70.6733
70.7762
70.8779
70.9784
71.0776
71.1756
71.2724
71.3678
71.4622
71.5553
71.6472
71.7379
71.8275
71.9168
72.2332
72.3484
72.4612
72.5726
72.6828
72.7916
72.8991
73.0053
73.1102
73.2137
73.316
73.4169
73.5166
73.6149
73.712
73.8077
73.9023
73.9955
74.0876
74.1793
74.4433
74.5623
74.6786
74.7936
74.9072
75.0194
75.1302
75.2396
75.3477
75.4543
75.5596
75.6635
75.766
75.8671
75.9669
76.0654
76.1625
76.2582
76.3528
76.4469
76.6587
76.7814
76.9014
77.0199
77.137
77.2526
77.3667
77.4794
77.5906
77.7003
77.8086
77.9154
78.0208
78.1247
78.2272
78.3282
78.4279
78.5261
78.623
78.7194
78.8796
79.0061
79.1297
79.2518
79.3724
79.4914
79.6089
79.7248
79.8392
79.952
80.0633
80.173
80.2812
80.3878
80.493
80.5966
80.6987
80.7993
80.8985
80.9973
81.1063
81.2366
81.3639
81.4896
81.6137
81.7362
81.857
81.9761
82.0937
82.2095
82.3238
82.4364
82.5474
82.6567
82.7645
82.8706
82.9752
83.0782
83.1796
83.2805
83.3391
83.4732
83.6043
83.7336
83.8612
83.9871
84.1113
84.2337
84.3544
84.4733
84.5905
84.706
84.8198
84.9318
85.0421
85.1507
85.2577
85.363
85.4666
85.5696
85.5783
85.7163
85.8511
85.9842
86.1154
86.2447
86.3722
86.4979
86.6217
86.7437
86.8639
86.9822
87.0987
87.2133
87.3262
87.4372
87.5465
87.654
87.7598
87.8649
87.8244
87.9664
88.105
88.2418
88.3765
88.5094
88.6403
88.7692
88.8962
89.0212
89.1443
89.2654
89.3846
89.5019
89.6172
89.7306
89.8421
89.9518
90.0596
90.1667
90.0778
90.2239
90.3663
90.5068
90.6452
90.7815
90.9158
91.048
91.1781
91.3062
91.4322
91.5561
91.678
91.7978
91.9155
92.0313
92.145
92.2567
92.3665
92.4754
92.3391
92.4892
92.6356
92.7798
92.9219
93.0618
93.1994
93.3349
93.4682
93.5992
93.7281
93.8548
93.9793
94.1016
94.2217
94.3397
94.4556
94.5693
94.681
94.7917
94.6087
94.763
94.9133
95.0613
95.2071
95.3505
95.4916
95.6303
95.7667
95.9008
96.0326
96.162
96.2891
96.4138
96.5363
96.6565
96.7744
96.8901
97.0035
97.1159
96.8873
97.0457
97.2
97.3519
97.5014
97.6484
97.7929
97.935
98.0745
98.2116
98.3462
98.4783
98.6079
98.7351
98.8598
98.9821
99.102
99.2195
99.3346
99.4486
99.1753
99.3379
99.4964
99.6522
99.8054
99.956
100.104
100.249
100.392
100.532
100.669
100.804
100.936
101.066
101.193
101.317
101.439
101.558
101.675
101.79
101.473
101.64
101.803
101.963
102.12
102.274
102.425
102.574
102.72
102.863
103.003
103.141
103.275
103.407
103.536
103.662
103.786
103.907
104.025
104.142
103.782
103.954
104.12
104.284
104.445
104.603
104.758
104.91
105.059
105.205
105.348
105.488
105.625
105.759
105.89
106.018
106.144
106.266
106.386
106.504
106.103
106.279
106.45
106.618
106.782
106.944
107.102
107.258
107.41
107.559
107.705
107.847
107.987
108.123
108.256
108.386
108.513
108.637
108.757
108.877
108.435
108.616
108.791
108.963
109.132
109.297
109.459
109.618
109.773
109.925
110.074
110.219
110.361
110.499
110.634
110.766
110.894
111.019
111.141
111.261
110.781
110.966
111.146
111.322
111.495
111.664
111.83
111.992
112.15
112.305
112.456
112.604
112.748
112.888
113.025
113.159
113.288
113.415
113.538
113.658
113.14
113.33
113.515
113.695
113.872
114.045
114.215
114.38
114.542
114.699
114.853
115.003
115.15
115.292
115.431
115.565
115.696
115.824
115.948
116.069
115.514
115.709
115.898
116.084
116.265
116.442
116.615
116.784
116.948
117.109
117.266
117.418
117.566
117.711
117.851
117.987
118.119
118.248
118.372
118.494
117.904
118.104
118.298
118.488
118.673
118.854
119.031
119.203
119.371
119.535
119.694
119.849
119.999
120.146
120.287
120.425
120.558
120.687
120.812
120.934
120.311
120.516
120.715
120.91
121.099
121.284
121.465
121.641
121.812
121.978
122.14
122.297
122.45
122.598
122.741
122.88
123.014
123.143
123.268
123.39
122.735
122.946
123.15
123.35
123.544
123.733
123.917
124.097
124.271
124.441
124.605
124.764
124.919
125.068
125.213
125.352
125.487
125.617
125.742
125.864
125.179
125.396
125.605
125.809
126.008
126.202
126.39
126.573
126.75
126.923
127.09
127.251
127.408
127.559
127.704
127.845
127.98
128.11
128.235
128.356
127.643
127.866
128.08
128.29
128.493
128.691
128.884
129.07
129.251
129.426
129.596
129.759
129.918
130.07
130.217
130.358
130.493
130.623
130.748
130.869
130.129
130.358
130.578
130.793
131.001
131.204
131.4
131.59
131.775
131.953
132.125
132.29
132.45
132.604
132.751
132.893
133.029
133.159
133.283
133.402
132.638
132.873
133.1
133.32
133.533
133.74
133.941
134.135
134.323
134.503
134.678
134.846
135.007
135.162
135.31
135.452
135.588
135.717
135.84
135.958
135.172
135.414
135.647
135.872
136.091
136.303
136.508
136.706
136.897
137.081
137.257
137.427
137.59
137.746
137.895
138.037
138.172
138.301
138.422
138.539
137.733
137.982
138.221
138.453
138.677
138.894
139.103
139.305
139.499
139.686
139.865
140.037
140.201
140.358
140.507
140.649
140.783
140.911
141.031
141.145
140.323
140.579
140.824
141.062
141.292
141.514
141.728
141.934
142.132
142.321
142.503
142.676
142.842
142.999
143.149
143.29
143.424
143.55
143.668
143.78
142.943
143.206
143.459
143.703
143.939
144.167
144.385
144.595
144.797
144.989
145.173
145.348
145.515
145.673
145.822
145.963
146.095
146.219
146.335
146.444
145.596
145.867
146.128
146.379
146.621
146.854
147.077
147.291
147.496
147.692
147.878
148.055
148.222
148.381
148.53
148.67
148.8
148.922
149.035
149.14
148.284
148.564
148.832
149.09
149.339
149.578
149.806
150.025
150.234
150.432
150.62
150.799
150.967
151.126
151.274
151.413
151.541
151.66
151.77
151.871
151.009
151.299
151.575
151.841
152.097
152.341
152.575
152.799
153.011
153.213
153.403
153.583
153.752
153.91
154.058
154.195
154.321
154.437
154.543
154.639
153.776
154.075
154.361
154.635
154.897
155.148
155.388
155.616
155.832
156.037
156.23
156.411
156.58
156.738
156.884
157.019
157.142
157.255
157.356
157.447
156.586
156.896
157.191
157.473
157.744
158.001
158.247
158.48
158.7
158.908
159.103
159.285
159.455
159.612
159.756
159.889
160.009
160.116
160.212
160.297
159.443
159.764
160.069
160.361
160.639
160.905
161.156
161.394
161.619
161.83
162.027
162.21
162.38
162.536
162.678
162.807
162.923
163.026
163.116
163.194
162.351
162.684
163
163.301
163.589
163.862
164.12
164.364
164.592
164.806
165.005
165.19
165.359
165.514
165.654
165.779
165.891
165.988
166.071
166.141
165.313
165.659
165.987
166.299
166.596
166.877
167.143
167.392
167.625
167.843
168.044
168.229
168.397
168.55
168.687
168.809
168.914
169.005
169.08
169.141
168.335
168.695
169.036
169.359
169.666
169.956
170.229
170.485
170.723
170.943
171.146
171.332
171.5
171.651
171.784
171.9
172
172.082
172.149
172.2
171.42
171.796
172.15
172.487
172.805
173.104
173.385
173.647
173.89
174.114
174.319
174.505
174.672
174.82
174.949
175.06
175.152
175.226
175.282
175.321
174.574
174.967
175.337
175.687
176.017
176.327
176.617
176.886
177.134
177.362
177.569
177.755
177.92
178.064
178.189
178.292
178.376
178.44
178.485
178.511
177.804
178.215
178.601
178.966
179.31
179.631
179.931
180.207
180.462
180.693
180.902
181.087
181.251
181.391
181.509
181.605
181.679
181.732
181.764
181.775
181.114
181.546
181.951
182.333
182.691
183.025
183.335
183.62
183.88
184.115
184.326
184.511
184.672
184.807
184.919
185.005
185.069
185.108
185.125
185.119
184.513
184.968
185.394
185.794
186.168
186.516
186.837
187.131
187.398
187.638
187.85
188.034
188.192
188.322
188.425
188.501
188.552
188.576
188.576
188.55
188.009
188.489
188.937
189.358
189.75
190.114
190.448
190.752
191.026
191.27
191.484
191.667
191.821
191.944
192.038
192.102
192.138
192.145
192.125
192.078
191.609
192.118
192.592
193.036
193.448
193.829
194.177
194.493
194.775
195.024
195.239
195.421
195.57
195.685
195.768
195.818
195.837
195.824
195.782
195.709
195.324
195.866
196.369
196.838
197.274
197.674
198.038
198.366
198.657
198.911
199.128
199.308
199.451
199.557
199.627
199.661
199.66
199.625
199.556
199.454
199.166
199.743
200.28
200.779
201.24
201.662
202.045
202.387
202.688
202.948
203.166
203.344
203.48
203.575
203.629
203.645
203.621
203.559
203.46
203.325
203.145
203.764
204.338
204.871
205.362
205.81
206.213
206.571
206.884
207.15
207.37
207.544
207.672
207.754
207.791
207.783
207.733
207.64
207.507
207.332
207.275
207.943
208.561
209.133
209.658
210.135
210.562
210.938
211.264
211.537
211.759
211.929
212.046
212.113
212.129
212.095
212.014
211.885
211.711
211.491
211.573
212.297
212.965
213.582
214.147
214.658
215.113
215.511
215.851
216.133
216.356
216.521
216.626
216.674
216.665
216.601
216.482
216.311
216.089
215.816
216.055
216.844
217.571
218.241
218.853
219.404
219.892
220.315
220.673
220.964
221.189
221.347
221.438
221.464