/*--------------------------------*- C++ -*----------------------------------*\
  =========                 |
  \\      /  F ield         | OpenFOAM: The Open Source CFD Toolbox
   \\    /   O peration     | Website:  https://openfoam.org
    \\  /    A nd           | Version:  6
     \\/     M anipulation  |
\*---------------------------------------------------------------------------*/
FoamFile
{
    version     2.0;
    format      ascii;
    class       surfaceScalarField;
    location    "1";
    object      phi;
}
// * * * * * * * * * * * * * * * * * * * * * * * * * * * * * * * * * * * * * //

dimensions      [0 3 -1 0 0 0 0];

internalField   nonuniform List<scalar> 
258600
(
-1.94091e-10
-1.39745e-07
2.76507e-10
-7.04786e-10
-1.65455e-07
-9.7397e-10
-1.65927e-07
-1.14423e-09
-1.66473e-07
-1.19878e-09
-1.67024e-07
-1.24674e-09
-1.67616e-07
-1.23484e-09
-1.68199e-07
-1.24549e-09
-1.68801e-07
-1.22007e-09
-1.6939e-07
-1.22298e-09
-1.69989e-07
-1.20193e-09
-1.70575e-07
-1.20847e-09
-1.71168e-07
-1.20018e-09
-1.71751e-07
-1.21872e-09
-1.72341e-07
-1.23485e-09
-1.72927e-07
-1.28634e-09
-1.73522e-07
-1.36252e-09
-1.74121e-07
-1.51343e-09
-1.74737e-07
-1.77793e-09
-1.75368e-07
-1.72199e-07
-2.07792e-09
-1.86257e-09
-1.40534e-07
1.89268e-09
-2.42188e-09
-1.65395e-07
-2.94552e-09
-1.66061e-07
-3.12017e-09
-1.66683e-07
-3.32125e-09
-1.67263e-07
-3.33074e-09
-1.67849e-07
-3.39474e-09
-1.68415e-07
-3.35203e-09
-1.68995e-07
-3.3681e-09
-1.6956e-07
-3.32102e-09
-1.70136e-07
-3.3285e-09
-1.70699e-07
-3.29719e-09
-1.71272e-07
-3.31584e-09
-1.71832e-07
-3.31612e-09
-1.724e-07
-3.36813e-09
-1.72955e-07
-3.42671e-09
-1.73514e-07
-3.56144e-09
-1.74056e-07
-3.75202e-09
-1.7459e-07
-4.10912e-09
-1.75081e-07
-1.719e-07
-4.44311e-09
-5.12864e-09
-1.41039e-07
5.09144e-09
-5.08658e-09
-1.6575e-07
-5.43342e-09
-1.66347e-07
-5.44022e-09
-1.66934e-07
-5.66339e-09
-1.67505e-07
-5.59764e-09
-1.68073e-07
-5.71177e-09
-1.68629e-07
-5.61229e-09
-1.69189e-07
-5.67273e-09
-1.69739e-07
-5.57404e-09
-1.70294e-07
-5.61772e-09
-1.7084e-07
-5.53833e-09
-1.71392e-07
-5.58733e-09
-1.71934e-07
-5.53698e-09
-1.72479e-07
-5.60586e-09
-1.73014e-07
-5.59435e-09
-1.73547e-07
-5.69503e-09
-1.74066e-07
-5.71731e-09
-1.74576e-07
-5.84141e-09
-1.75065e-07
-1.71925e-07
-5.80836e-09
-7.5176e-09
-1.41241e-07
7.39016e-09
-7.47173e-09
-1.65981e-07
-7.78314e-09
-1.66561e-07
-7.72378e-09
-1.67135e-07
-7.93635e-09
-1.67697e-07
-7.82199e-09
-1.68256e-07
-7.94959e-09
-1.68804e-07
-7.81218e-09
-1.69354e-07
-7.89337e-09
-1.69895e-07
-7.76023e-09
-1.70439e-07
-7.82248e-09
-1.70975e-07
-7.70788e-09
-1.71514e-07
-7.76576e-09
-1.72045e-07
-7.67688e-09
-1.7258e-07
-7.73802e-09
-1.73103e-07
-7.67142e-09
-1.73628e-07
-7.73718e-09
-1.7414e-07
-7.67243e-09
-1.74652e-07
-7.73714e-09
-1.75148e-07
-1.72029e-07
-7.6322e-09
-9.88782e-09
-1.41466e-07
9.7964e-09
-9.79171e-09
-1.66209e-07
-1.00795e-08
-1.66763e-07
-9.96971e-09
-1.67315e-07
-1.01712e-08
-1.67862e-07
-1.00158e-08
-1.68407e-07
-1.01471e-08
-1.68947e-07
-9.97645e-09
-1.69487e-07
-1.00695e-08
-1.70022e-07
-9.9049e-09
-1.70559e-07
-9.98098e-09
-1.71089e-07
-9.83217e-09
-1.71622e-07
-9.90291e-09
-1.72148e-07
-9.77073e-09
-1.72674e-07
-9.83852e-09
-1.73194e-07
-9.71945e-09
-1.73713e-07
-9.78239e-09
-1.74225e-07
-9.65775e-09
-1.74735e-07
-9.72617e-09
-1.75237e-07
-1.7212e-07
-9.57672e-09
-1.21274e-08
-1.41644e-07
1.20338e-08
-1.20067e-08
-1.66376e-07
-1.22889e-08
-1.6691e-07
-1.21566e-08
-1.67446e-07
-1.23519e-08
-1.67985e-07
-1.21759e-08
-1.68523e-07
-1.23074e-08
-1.6906e-07
-1.21166e-08
-1.69597e-07
-1.22146e-08
-1.70131e-07
-1.20285e-08
-1.70666e-07
-1.21101e-08
-1.71196e-07
-1.19371e-08
-1.71728e-07
-1.20082e-08
-1.72253e-07
-1.18513e-08
-1.72781e-07
-1.19136e-08
-1.733e-07
-1.17661e-08
-1.73821e-07
-1.18213e-08
-1.74334e-07
-1.16656e-08
-1.74849e-07
-1.17315e-08
-1.75355e-07
-1.72245e-07
-1.1555e-08
-1.42099e-08
-1.41659e-07
1.41308e-08
-1.41451e-08
-1.66417e-07
-1.44321e-08
-1.66962e-07
-1.43103e-08
-1.67506e-07
-1.45055e-08
-1.6805e-07
-1.43235e-08
-1.68594e-07
-1.44575e-08
-1.69135e-07
-1.42521e-08
-1.69677e-07
-1.43553e-08
-1.70214e-07
-1.41483e-08
-1.70751e-07
-1.42366e-08
-1.71284e-07
-1.40374e-08
-1.71817e-07
-1.41182e-08
-1.72344e-07
-1.39276e-08
-1.7287e-07
-1.40007e-08
-1.73392e-07
-1.38166e-08
-1.73912e-07
-1.38822e-08
-1.74427e-07
-1.36893e-08
-1.74941e-07
-1.37736e-08
-1.7545e-07
-1.72336e-07
-1.35644e-08
-1.63824e-08
-1.41695e-07
1.62913e-08
-1.63232e-08
-1.66477e-07
-1.661e-08
-1.67026e-07
-1.64858e-08
-1.67577e-07
-1.66813e-08
-1.68124e-07
-1.64886e-08
-1.68673e-07
-1.66234e-08
-1.69217e-07
-1.64013e-08
-1.69763e-07
-1.65056e-08
-1.70303e-07
-1.62784e-08
-1.70844e-07
-1.63674e-08
-1.71378e-07
-1.61461e-08
-1.71914e-07
-1.62239e-08
-1.72443e-07
-1.60139e-08
-1.72973e-07
-1.60814e-08
-1.73496e-07
-1.58775e-08
-1.74021e-07
-1.59388e-08
-1.74538e-07
-1.57246e-08
-1.75057e-07
-1.58082e-08
-1.75568e-07
-1.72459e-07
-1.55766e-08
-1.86196e-08
-1.41825e-07
1.855e-08
-1.8519e-08
-1.66593e-07
-1.88154e-08
-1.67125e-07
-1.86722e-08
-1.67668e-07
-1.88776e-08
-1.68209e-07
-1.86653e-08
-1.68756e-07
-1.8806e-08
-1.69298e-07
-1.85615e-08
-1.69844e-07
-1.86695e-08
-1.70384e-07
-1.84171e-08
-1.70925e-07
-1.85098e-08
-1.7146e-07
-1.82611e-08
-1.71996e-07
-1.83465e-08
-1.72526e-07
-1.81038e-08
-1.73055e-07
-1.81822e-08
-1.7358e-07
-1.79443e-08
-1.74103e-07
-1.80173e-08
-1.74621e-07
-1.7769e-08
-1.75138e-07
-1.78716e-08
-1.7565e-07
-1.72535e-07
-1.7609e-08
-2.07228e-08
-1.41901e-07
2.05584e-08
-2.06499e-08
-1.66692e-07
-2.09856e-08
-1.67227e-07
-2.08379e-08
-1.67769e-07
-2.10634e-08
-1.6831e-07
-2.08357e-08
-1.68855e-07
-2.09868e-08
-1.69396e-07
-2.07215e-08
-1.69941e-07
-2.08344e-08
-1.7048e-07
-2.05589e-08
-1.71021e-07
-2.06532e-08
-1.71555e-07
-2.0381e-08
-1.72092e-07
-2.04631e-08
-1.72621e-07
-2.02013e-08
-1.73152e-07
-2.02738e-08
-1.73675e-07
-2.00176e-08
-1.74201e-07
-2.00855e-08
-1.74719e-07
-1.98175e-08
-1.7524e-07
-1.99181e-08
-1.75752e-07
-1.7264e-07
-1.96339e-08
-2.28647e-08
-1.41967e-07
2.2692e-08
-2.27902e-08
-1.66766e-07
-2.31534e-08
-1.67306e-07
-2.29992e-08
-1.67851e-07
-2.3245e-08
-1.68394e-07
-2.30013e-08
-1.6894e-07
-2.31652e-08
-1.69482e-07
-2.28774e-08
-1.70025e-07
-2.29984e-08
-1.70562e-07
-2.26968e-08
-1.71101e-07
-2.27974e-08
-1.71633e-07
-2.2497e-08
-1.72166e-07
-2.25885e-08
-1.72693e-07
-2.22939e-08
-1.7322e-07
-2.23785e-08
-1.73742e-07
-2.20883e-08
-1.74263e-07
-2.21691e-08
-1.74779e-07
-2.18669e-08
-1.75295e-07
-2.19871e-08
-1.75805e-07
-1.72685e-07
-2.16722e-08
-2.49923e-08
-1.41995e-07
2.47587e-08
-2.49501e-08
-1.66843e-07
-2.53336e-08
-1.67399e-07
-2.51727e-08
-1.67953e-07
-2.54289e-08
-1.68498e-07
-2.51671e-08
-1.69044e-07
-2.53372e-08
-1.69582e-07
-2.50272e-08
-1.70121e-07
-2.51517e-08
-1.70655e-07
-2.48271e-08
-1.71189e-07
-2.49291e-08
-1.71717e-07
-2.4606e-08
-1.72246e-07
-2.46951e-08
-1.72769e-07
-2.43822e-08
-1.73294e-07
-2.44617e-08
-1.73812e-07
-2.41542e-08
-1.74333e-07
-2.42302e-08
-1.74846e-07
-2.39093e-08
-1.75362e-07
-2.40272e-08
-1.7587e-07
-1.72751e-07
-2.36922e-08
-2.72846e-08
-1.42128e-07
2.70792e-08
-2.7176e-08
-1.66973e-07
-2.75496e-08
-1.67517e-07
-2.73536e-08
-1.6806e-07
-2.76103e-08
-1.68597e-07
-2.73215e-08
-1.69132e-07
-2.74944e-08
-1.69664e-07
-2.71606e-08
-1.70194e-07
-2.72883e-08
-1.70721e-07
-2.69398e-08
-1.71248e-07
-2.70458e-08
-1.7177e-07
-2.66984e-08
-1.72293e-07
-2.67949e-08
-1.72811e-07
-2.64538e-08
-1.73328e-07
-2.65436e-08
-1.73842e-07
-2.62062e-08
-1.74354e-07
-2.62936e-08
-1.74863e-07
-2.59418e-08
-1.7537e-07
-2.60771e-08
-1.75874e-07
-1.72744e-07
-2.57156e-08
-2.94824e-08
-1.42201e-07
2.92786e-08
-2.93558e-08
-1.67052e-07
-2.97185e-08
-1.67597e-07
-2.95026e-08
-1.68135e-07
-2.97519e-08
-1.6867e-07
-2.94472e-08
-1.69201e-07
-2.96169e-08
-1.69729e-07
-2.92681e-08
-1.70255e-07
-2.93941e-08
-1.70777e-07
-2.90304e-08
-1.71298e-07
-2.91348e-08
-1.71816e-07
-2.87714e-08
-1.72333e-07
-2.8864e-08
-1.72846e-07
-2.85086e-08
-1.73359e-07
-2.8593e-08
-1.73867e-07
-2.82412e-08
-1.74375e-07
-2.83225e-08
-1.74878e-07
-2.79551e-08
-1.75382e-07
-2.80867e-08
-1.75881e-07
-1.7275e-07
-2.77087e-08
-3.16548e-08
-1.42155e-07
3.15222e-08
-3.15358e-08
-1.67032e-07
-3.1869e-08
-1.67595e-07
-3.16447e-08
-1.68144e-07
-3.18744e-08
-1.68686e-07
-3.156e-08
-1.6922e-07
-3.17186e-08
-1.6975e-07
-3.13586e-08
-1.70274e-07
-3.14782e-08
-1.70795e-07
-3.11016e-08
-1.71312e-07
-3.1202e-08
-1.71826e-07
-3.08232e-08
-1.72337e-07
-3.09149e-08
-1.72846e-07
-3.05414e-08
-1.73351e-07
-3.0627e-08
-1.73854e-07
-3.0254e-08
-1.74353e-07
-3.03386e-08
-1.74851e-07
-2.99496e-08
-1.75345e-07
-3.00876e-08
-1.75836e-07
-1.72695e-07
-2.96916e-08
-3.39546e-08
-1.42151e-07
3.38875e-08
-3.37846e-08
-1.6703e-07
-3.40659e-08
-1.67597e-07
-3.38135e-08
-1.68149e-07
-3.40101e-08
-1.68695e-07
-3.36785e-08
-1.6923e-07
-3.38153e-08
-1.69762e-07
-3.34429e-08
-1.70285e-07
-3.35467e-08
-1.70805e-07
-3.31585e-08
-1.71319e-07
-3.32463e-08
-1.7183e-07
-3.28564e-08
-1.72337e-07
-3.29368e-08
-1.72841e-07
-3.25515e-08
-1.7334e-07
-3.26266e-08
-1.73837e-07
-3.22424e-08
-1.74331e-07
-3.23163e-08
-1.74822e-07
-3.19153e-08
-1.75309e-07
-3.20441e-08
-1.75795e-07
-1.72647e-07
-3.16375e-08
-3.62632e-08
-1.42142e-07
3.62588e-08
-3.60513e-08
-1.67019e-07
-3.62769e-08
-1.67588e-07
-3.59967e-08
-1.68142e-07
-3.61514e-08
-1.6869e-07
-3.58032e-08
-1.69226e-07
-3.59079e-08
-1.69758e-07
-3.55241e-08
-1.70281e-07
-3.56021e-08
-1.708e-07
-3.5205e-08
-1.71311e-07
-3.52711e-08
-1.7182e-07
-3.48727e-08
-1.72321e-07
-3.49339e-08
-1.72821e-07
-3.45413e-08
-1.73315e-07
-3.45994e-08
-1.73806e-07
-3.42068e-08
-1.74293e-07
-3.42662e-08
-1.74777e-07
-3.38575e-08
-1.75257e-07
-3.39721e-08
-1.75734e-07
-1.72579e-07
-3.35607e-08
-3.85736e-08
-1.42173e-07
3.86289e-08
-3.83272e-08
-1.67053e-07
-3.84938e-08
-1.67617e-07
-3.81876e-08
-1.6817e-07
-3.82969e-08
-1.68715e-07
-3.79301e-08
-1.69249e-07
-3.79978e-08
-1.69779e-07
-3.76005e-08
-1.70298e-07
-3.76472e-08
-1.70814e-07
-3.72395e-08
-1.71321e-07
-3.72783e-08
-1.71826e-07
-3.6871e-08
-1.72322e-07
-3.69096e-08
-1.72817e-07
-3.65067e-08
-1.73303e-07
-3.65455e-08
-1.73789e-07
-3.61436e-08
-1.74267e-07
-3.61847e-08
-1.74745e-07
-3.57684e-08
-1.75215e-07
-3.58645e-08
-1.75687e-07
-1.72521e-07
-3.54485e-08
-4.08714e-08
-1.42278e-07
4.09402e-08
-4.05835e-08
-1.67159e-07
-4.07041e-08
-1.67713e-07
-4.0369e-08
-1.68256e-07
-4.04342e-08
-1.68792e-07
-4.00478e-08
-1.69319e-07
-4.00746e-08
-1.69841e-07
-3.96651e-08
-1.70353e-07
-3.96738e-08
-1.70863e-07
-3.92591e-08
-1.71363e-07
-3.92619e-08
-1.71862e-07
-3.88516e-08
-1.72351e-07
-3.88536e-08
-1.7284e-07
-3.84531e-08
-1.73321e-07
-3.84553e-08
-1.73801e-07
-3.80578e-08
-1.74274e-07
-3.80645e-08
-1.74745e-07
-3.76546e-08
-1.7521e-07
-3.77121e-08
-1.75674e-07
-1.72505e-07
-3.73041e-08
-4.31081e-08
-1.42411e-07
4.31922e-08
-4.27986e-08
-1.67315e-07
-4.28765e-08
-1.6786e-07
-4.25157e-08
-1.68391e-07
-4.25402e-08
-1.68917e-07
-4.21355e-08
-1.69432e-07
-4.21241e-08
-1.69945e-07
-4.1703e-08
-1.70447e-07
-4.16753e-08
-1.70949e-07
-4.12532e-08
-1.7144e-07
-4.12217e-08
-1.71933e-07
-4.08063e-08
-1.72415e-07
-4.07788e-08
-1.72898e-07
-4.03705e-08
-1.7337e-07
-4.0347e-08
-1.73845e-07
-3.99429e-08
-1.74307e-07
-3.99243e-08
-1.74773e-07
-3.95113e-08
-1.75227e-07
-3.95412e-08
-1.75686e-07
-1.72503e-07
-3.91344e-08
-4.53473e-08
-1.4261e-07
4.54762e-08
-4.49795e-08
-1.67508e-07
-4.50013e-08
-1.68038e-07
-4.46198e-08
-1.68556e-07
-4.45979e-08
-1.69075e-07
-4.41871e-08
-1.69582e-07
-4.41324e-08
-1.70089e-07
-4.37113e-08
-1.70585e-07
-4.3641e-08
-1.71083e-07
-4.32232e-08
-1.71569e-07
-4.31486e-08
-1.72057e-07
-4.27402e-08
-1.72535e-07
-4.26649e-08
-1.73013e-07
-4.22706e-08
-1.73484e-07
-4.21964e-08
-1.73953e-07
-4.18089e-08
-1.74415e-07
-4.17401e-08
-1.74876e-07
-4.13465e-08
-1.7533e-07
-4.13179e-08
-1.75784e-07
-1.72601e-07
-4.09293e-08
-4.74336e-08
-1.42707e-07
4.76105e-08
-4.71013e-08
-1.67649e-07
-4.70716e-08
-1.68189e-07
-4.66961e-08
-1.68714e-07
-4.66249e-08
-1.69236e-07
-4.62171e-08
-1.69744e-07
-4.61176e-08
-1.70253e-07
-4.57002e-08
-1.70748e-07
-4.55881e-08
-1.71245e-07
-4.51742e-08
-1.71729e-07
-4.50597e-08
-1.72216e-07
-4.46548e-08
-1.72691e-07
-4.45453e-08
-1.73168e-07
-4.41485e-08
-1.73633e-07
-4.40443e-08
-1.74102e-07
-4.36542e-08
-1.74556e-07
-4.35558e-08
-1.75016e-07
-4.31633e-08
-1.75462e-07
-4.31007e-08
-1.75914e-07
-1.72716e-07
-4.27176e-08
-4.9625e-08
-1.42908e-07
4.98191e-08
-4.92632e-08
-1.67876e-07
-4.91695e-08
-1.68415e-07
-4.87861e-08
-1.6894e-07
-4.86569e-08
-1.69462e-07
-4.82508e-08
-1.69972e-07
-4.8098e-08
-1.7048e-07
-4.7688e-08
-1.70978e-07
-4.75255e-08
-1.71475e-07
-4.71223e-08
-1.71961e-07
-4.69579e-08
-1.72448e-07
-4.65662e-08
-1.72925e-07
-4.64017e-08
-1.73403e-07
-4.6025e-08
-1.73871e-07
-4.5862e-08
-1.74339e-07
-4.5495e-08
-1.74799e-07
-4.53377e-08
-1.75259e-07
-4.49703e-08
-1.7571e-07
-4.48386e-08
-1.76161e-07
-1.72967e-07
-4.44777e-08
-5.17849e-08
-1.43132e-07
5.19977e-08
-5.1418e-08
-1.68151e-07
-5.12695e-08
-1.68689e-07
-5.08751e-08
-1.69212e-07
-5.06951e-08
-1.69732e-07
-5.02853e-08
-1.7024e-07
-5.00861e-08
-1.70749e-07
-4.96774e-08
-1.71246e-07
-4.94711e-08
-1.71746e-07
-4.90713e-08
-1.72233e-07
-4.8865e-08
-1.72723e-07
-4.84768e-08
-1.73201e-07
-4.8276e-08
-1.73681e-07
-4.78969e-08
-1.74149e-07
-4.77018e-08
-1.7462e-07
-4.73318e-08
-1.75077e-07
-4.71429e-08
-1.75539e-07
-4.67763e-08
-1.75986e-07
-4.66089e-08
-1.76438e-07
-1.73231e-07
-4.62525e-08
-5.39927e-08
-1.43458e-07
5.42442e-08
-5.35699e-08
-1.68489e-07
-5.33614e-08
-1.69017e-07
-5.29568e-08
-1.69535e-07
-5.27272e-08
-1.70057e-07
-5.23209e-08
-1.70569e-07
-5.2075e-08
-1.71082e-07
-5.16737e-08
-1.71585e-07
-5.14212e-08
-1.72089e-07
-5.10305e-08
-1.72582e-07
-5.07769e-08
-1.73076e-07
-5.03989e-08
-1.73561e-07
-5.0145e-08
-1.74045e-07
-4.9782e-08
-1.7452e-07
-4.95297e-08
-1.74994e-07
-4.91785e-08
-1.7546e-07
-4.89314e-08
-1.75924e-07
-4.85855e-08
-1.7638e-07
-4.83507e-08
-1.76836e-07
-1.73632e-07
-4.80111e-08
-5.60416e-08
-1.43659e-07
5.63237e-08
-5.5681e-08
-1.68779e-07
-5.54339e-08
-1.69329e-07
-5.50449e-08
-1.69866e-07
-5.47739e-08
-1.70399e-07
-5.4373e-08
-1.70923e-07
-5.40873e-08
-1.71444e-07
-5.36881e-08
-1.71956e-07
-5.33967e-08
-1.72466e-07
-5.3006e-08
-1.72966e-07
-5.27143e-08
-1.73466e-07
-5.23346e-08
-1.73956e-07
-5.20468e-08
-1.74445e-07
-5.16767e-08
-1.74923e-07
-5.13938e-08
-1.75401e-07
-5.10346e-08
-1.75868e-07
-5.07575e-08
-1.76336e-07
-5.04067e-08
-1.76792e-07
-5.0139e-08
-1.77249e-07
-1.74034e-07
-4.97981e-08
-5.82926e-08
-1.44035e-07
5.85882e-08
-5.78774e-08
-1.692e-07
-5.75838e-08
-1.69747e-07
-5.7178e-08
-1.70288e-07
-5.68671e-08
-1.70826e-07
-5.64582e-08
-1.71356e-07
-5.61336e-08
-1.71883e-07
-5.57292e-08
-1.72401e-07
-5.53987e-08
-1.72916e-07
-5.50045e-08
-1.73424e-07
-5.46727e-08
-1.73928e-07
-5.42907e-08
-1.74423e-07
-5.39587e-08
-1.74916e-07
-5.35909e-08
-1.75401e-07
-5.32607e-08
-1.75883e-07
-5.29065e-08
-1.76357e-07
-5.25812e-08
-1.76828e-07
-5.22367e-08
-1.77292e-07
-5.19149e-08
-1.77753e-07
-1.74537e-07
-5.15781e-08
-6.04719e-08
-1.44398e-07
6.0765e-08
-6.00663e-08
-1.69651e-07
-5.9747e-08
-1.70206e-07
-5.93295e-08
-1.70754e-07
-5.8988e-08
-1.71295e-07
-5.85646e-08
-1.71829e-07
-5.82085e-08
-1.72358e-07
-5.77899e-08
-1.7288e-07
-5.74277e-08
-1.73398e-07
-5.70197e-08
-1.73908e-07
-5.66564e-08
-1.74414e-07
-5.6261e-08
-1.74913e-07
-5.59e-08
-1.75408e-07
-5.55164e-08
-1.75895e-07
-5.51594e-08
-1.76379e-07
-5.47893e-08
-1.76855e-07
-5.44378e-08
-1.77327e-07
-5.40799e-08
-1.77792e-07
-5.3731e-08
-1.78253e-07
-1.75026e-07
-5.33844e-08
-6.27459e-08
-1.44873e-07
6.30604e-08
-6.22897e-08
-1.70187e-07
-6.19378e-08
-1.70736e-07
-6.14937e-08
-1.7128e-07
-6.11244e-08
-1.71819e-07
-6.06805e-08
-1.72353e-07
-6.02967e-08
-1.72881e-07
-5.98598e-08
-1.73404e-07
-5.94693e-08
-1.73922e-07
-5.90445e-08
-1.74434e-07
-5.86519e-08
-1.74941e-07
-5.82408e-08
-1.75441e-07
-5.78483e-08
-1.75937e-07
-5.74518e-08
-1.76427e-07
-5.70616e-08
-1.76911e-07
-5.66802e-08
-1.7739e-07
-5.62949e-08
-1.77863e-07
-5.59265e-08
-1.78331e-07
-5.55422e-08
-1.78793e-07
-1.75559e-07
-5.51852e-08
-6.49465e-08
-1.4531e-07
6.52763e-08
-6.44848e-08
-1.70702e-07
-6.4112e-08
-1.71252e-07
-6.36513e-08
-1.71797e-07
-6.32582e-08
-1.72337e-07
-6.27958e-08
-1.72872e-07
-6.23877e-08
-1.73402e-07
-6.19316e-08
-1.73926e-07
-6.15165e-08
-1.74445e-07
-6.10718e-08
-1.74958e-07
-6.06547e-08
-1.75465e-07
-6.02233e-08
-1.75966e-07
-5.98072e-08
-1.76462e-07
-5.93893e-08
-1.76952e-07
-5.89765e-08
-1.77436e-07
-5.85732e-08
-1.77915e-07
-5.81656e-08
-1.78388e-07
-5.77763e-08
-1.78855e-07
-5.7371e-08
-1.79315e-07
-1.76069e-07
-5.69961e-08
-6.71588e-08
-1.45734e-07
6.75086e-08
-6.6686e-08
-1.71204e-07
-6.62906e-08
-1.7176e-07
-6.58138e-08
-1.72309e-07
-6.53967e-08
-1.72854e-07
-6.49154e-08
-1.73392e-07
-6.44834e-08
-1.73925e-07
-6.40065e-08
-1.74451e-07
-6.3568e-08
-1.74971e-07
-6.31011e-08
-1.75486e-07
-6.26608e-08
-1.75993e-07
-6.22064e-08
-1.76496e-07
-6.17674e-08
-1.76991e-07
-6.13261e-08
-1.77481e-07
-6.08906e-08
-1.77964e-07
-6.04635e-08
-1.78442e-07
-6.00336e-08
-1.78913e-07
-5.96202e-08
-1.79379e-07
-5.91944e-08
-1.79838e-07
-1.76579e-07
-5.87972e-08
-6.93904e-08
-1.46146e-07
6.97627e-08
-6.89086e-08
-1.71703e-07
-6.8489e-08
-1.72266e-07
-6.79925e-08
-1.72822e-07
-6.75501e-08
-1.73371e-07
-6.70457e-08
-1.73912e-07
-6.65891e-08
-1.74447e-07
-6.60874e-08
-1.74975e-07
-6.56251e-08
-1.75496e-07
-6.51324e-08
-1.76011e-07
-6.46692e-08
-1.76518e-07
-6.41883e-08
-1.7702e-07
-6.37269e-08
-1.77515e-07
-6.32591e-08
-1.78004e-07
-6.28018e-08
-1.78485e-07
-6.23476e-08
-1.78961e-07
-6.18967e-08
-1.79429e-07
-6.1456e-08
-1.79893e-07
-6.10115e-08
-1.80348e-07
-1.77077e-07
-6.05891e-08
-7.16871e-08
-1.46611e-07
7.20966e-08
-7.11609e-08
-1.7224e-07
-7.07138e-08
-1.72801e-07
-7.01846e-08
-1.73356e-07
-6.97177e-08
-1.73903e-07
-6.91827e-08
-1.74444e-07
-6.87025e-08
-1.74978e-07
-6.81706e-08
-1.75506e-07
-6.76854e-08
-1.76026e-07
-6.71622e-08
-1.7654e-07
-6.6677e-08
-1.77046e-07
-6.61652e-08
-1.77546e-07
-6.56834e-08
-1.78039e-07
-6.51836e-08
-1.78525e-07
-6.47072e-08
-1.79003e-07
-6.42203e-08
-1.79476e-07
-6.37511e-08
-1.7994e-07
-6.32771e-08
-1.80399e-07
-6.2818e-08
-1.8085e-07
-1.77562e-07
-6.23645e-08
-7.39558e-08
-1.47078e-07
7.43862e-08
-7.34024e-08
-1.72783e-07
-7.29327e-08
-1.73342e-07
-7.2374e-08
-1.73896e-07
-7.18834e-08
-1.74444e-07
-7.1318e-08
-1.74985e-07
-7.08138e-08
-1.75519e-07
-7.02507e-08
-1.76046e-07
-6.97417e-08
-1.76566e-07
-6.91866e-08
-1.77079e-07
-6.86779e-08
-1.77583e-07
-6.81337e-08
-1.78081e-07
-6.76285e-08
-1.78571e-07
-6.70969e-08
-1.79054e-07
-6.65973e-08
-1.79529e-07
-6.60783e-08
-1.79998e-07
-6.55866e-08
-1.80458e-07
-6.50799e-08
-1.80913e-07
-6.46007e-08
-1.81358e-07
-1.78056e-07
-6.41158e-08
-7.62094e-08
-1.47525e-07
7.66615e-08
-7.56397e-08
-1.73315e-07
-7.51494e-08
-1.73881e-07
-7.4564e-08
-1.7444e-07
-7.40492e-08
-1.74991e-07
-7.34528e-08
-1.75535e-07
-7.29239e-08
-1.7607e-07
-7.23273e-08
-1.76597e-07
-7.17938e-08
-1.77116e-07
-7.12038e-08
-1.77628e-07
-7.06713e-08
-1.78131e-07
-7.00914e-08
-1.78626e-07
-6.95638e-08
-1.79113e-07
-6.8995e-08
-1.79592e-07
-6.84747e-08
-1.80063e-07
-6.79177e-08
-1.80527e-07
-6.74063e-08
-1.80981e-07
-6.6861e-08
-1.81429e-07
-6.6366e-08
-1.81868e-07
-1.78547e-07
-6.58442e-08
-7.84958e-08
-1.47992e-07
7.89727e-08
-7.79032e-08
-1.73878e-07
-7.73841e-08
-1.7445e-07
-7.67678e-08
-1.75014e-07
-7.62239e-08
-1.75568e-07
-7.55929e-08
-1.76113e-07
-7.50353e-08
-1.76648e-07
-7.44026e-08
-1.77176e-07
-7.3841e-08
-1.77694e-07
-7.3214e-08
-1.78204e-07
-7.26543e-08
-1.78704e-07
-7.20369e-08
-1.79197e-07
-7.14823e-08
-1.79679e-07
-7.08771e-08
-1.80155e-07
-7.03298e-08
-1.80621e-07
-6.97364e-08
-1.8108e-07
-6.91989e-08
-1.81529e-07
-6.86167e-08
-1.81971e-07
-6.80978e-08
-1.82404e-07
-1.79065e-07
-6.75398e-08
-8.08416e-08
-1.48533e-07
8.13587e-08
-8.01925e-08
-1.74502e-07
-7.96405e-08
-1.75071e-07
-7.89804e-08
-1.75632e-07
-7.84062e-08
-1.76183e-07
-7.77338e-08
-1.76726e-07
-7.71464e-08
-1.7726e-07
-7.64727e-08
-1.77785e-07
-7.58818e-08
-1.783e-07
-7.5214e-08
-1.78807e-07
-7.46256e-08
-1.79303e-07
-7.39677e-08
-1.79792e-07
-7.3386e-08
-1.8027e-07
-7.27393e-08
-1.80741e-07
-7.21665e-08
-1.81201e-07
-7.15315e-08
-1.81653e-07
-7.09695e-08
-1.82095e-07
-7.03454e-08
-1.8253e-07
-6.98055e-08
-1.82955e-07
-1.79595e-07
-6.9207e-08
-8.31534e-08
-1.49094e-07
8.3695e-08
-8.24675e-08
-1.75154e-07
-8.18846e-08
-1.75721e-07
-8.11855e-08
-1.7628e-07
-8.05794e-08
-1.76831e-07
-7.98669e-08
-1.77373e-07
-7.92473e-08
-1.77905e-07
-7.85327e-08
-1.78428e-07
-7.79096e-08
-1.78941e-07
-7.72005e-08
-1.79445e-07
-7.65803e-08
-1.79938e-07
-7.58808e-08
-1.80423e-07
-7.52674e-08
-1.80897e-07
-7.45802e-08
-1.81362e-07
-7.39758e-08
-1.81816e-07
-7.33005e-08
-1.82263e-07
-7.2708e-08
-1.82698e-07
-7.20433e-08
-1.83126e-07
-7.14746e-08
-1.83543e-07
-1.80164e-07
-7.08363e-08
-8.54486e-08
-1.49653e-07
8.6017e-08
-8.4736e-08
-1.75815e-07
-8.41225e-08
-1.76388e-07
-8.33876e-08
-1.76952e-07
-8.27472e-08
-1.77505e-07
-8.19949e-08
-1.78048e-07
-8.13402e-08
-1.78581e-07
-8.05837e-08
-1.79103e-07
-7.99257e-08
-1.79615e-07
-7.91736e-08
-1.80116e-07
-7.85189e-08
-1.80606e-07
-7.7776e-08
-1.81087e-07
-7.71293e-08
-1.81556e-07
-7.63979e-08
-1.82016e-07
-7.57617e-08
-1.82464e-07
-7.50422e-08
-1.82904e-07
-7.44188e-08
-1.83332e-07
-7.371e-08
-1.83751e-07
-7.31135e-08
-1.84159e-07
-1.80757e-07
-7.24321e-08
-8.77711e-08
-1.50239e-07
8.83716e-08
-8.70288e-08
-1.7652e-07
-8.63751e-08
-1.771e-07
-8.5601e-08
-1.77668e-07
-8.49202e-08
-1.78224e-07
-8.4125e-08
-1.78769e-07
-8.34302e-08
-1.79301e-07
-8.26292e-08
-1.79823e-07
-8.19317e-08
-1.80332e-07
-8.11344e-08
-1.80831e-07
-8.04413e-08
-1.81318e-07
-7.96529e-08
-1.81795e-07
-7.89683e-08
-1.82259e-07
-7.81921e-08
-1.82714e-07
-7.75186e-08
-1.83156e-07
-7.67548e-08
-1.83588e-07
-7.60953e-08
-1.84009e-07
-7.53421e-08
-1.8442e-07
-7.47112e-08
-1.84819e-07
-1.81395e-07
-7.39866e-08
-9.01589e-08
-1.50914e-07
9.08081e-08
-8.9349e-08
-1.77298e-07
-8.86497e-08
-1.77875e-07
-8.78232e-08
-1.78441e-07
-8.70995e-08
-1.78995e-07
-8.62546e-08
-1.79538e-07
-8.55173e-08
-1.80069e-07
-8.46673e-08
-1.80589e-07
-8.39278e-08
-1.81096e-07
-8.30819e-08
-1.81591e-07
-8.23472e-08
-1.82074e-07
-8.15107e-08
-1.82546e-07
-8.07857e-08
-1.83005e-07
-7.99614e-08
-1.83454e-07
-7.92487e-08
-1.83889e-07
-7.84373e-08
-1.84314e-07
-7.77397e-08
-1.84727e-07
-7.69394e-08
-1.85128e-07
-7.62731e-08
-1.85518e-07
-1.82069e-07
-7.55025e-08
-9.25053e-08
-1.51604e-07
9.31876e-08
-9.16551e-08
-1.78106e-07
-9.09132e-08
-1.78684e-07
-9.00402e-08
-1.79251e-07
-8.92716e-08
-1.79807e-07
-8.83781e-08
-1.8035e-07
-8.75952e-08
-1.80882e-07
-8.66956e-08
-1.814e-07
-8.59104e-08
-1.81906e-07
-8.50142e-08
-1.82399e-07
-8.42347e-08
-1.82879e-07
-8.33476e-08
-1.83347e-07
-8.25782e-08
-1.83801e-07
-8.17041e-08
-1.84243e-07
-8.09478e-08
-1.84672e-07
-8.00871e-08
-1.85089e-07
-7.93474e-08
-1.85494e-07
-7.84982e-08
-1.85886e-07
-7.77913e-08
-1.86266e-07
-1.82791e-07
-7.69734e-08
-9.48517e-08
-1.52299e-07
9.55695e-08
-9.39662e-08
-1.78932e-07
-9.31813e-08
-1.79521e-07
-9.22633e-08
-1.80096e-07
-9.1446e-08
-1.80658e-07
-9.05029e-08
-1.81206e-07
-8.96699e-08
-1.8174e-07
-8.87181e-08
-1.8226e-07
-8.7883e-08
-1.82765e-07
-8.69339e-08
-1.83257e-07
-8.61047e-08
-1.83734e-07
-8.51649e-08
-1.84198e-07
-8.4347e-08
-1.84647e-07
-8.34202e-08
-1.85083e-07
-8.26167e-08
-1.85505e-07
-8.17041e-08
-1.85914e-07
-8.09184e-08
-1.86309e-07
-8.00181e-08
-1.86692e-07
-7.92677e-08
-1.87062e-07
-1.83558e-07
-7.84001e-08
-9.72435e-08
-1.53032e-07
9.80051e-08
-9.63209e-08
-1.79821e-07
-9.54814e-08
-1.80422e-07
-9.45119e-08
-1.81008e-07
-9.36383e-08
-1.81575e-07
-9.26387e-08
-1.82127e-07
-9.17494e-08
-1.82662e-07
-9.07399e-08
-1.83182e-07
-8.98494e-08
-1.83686e-07
-8.88424e-08
-1.84175e-07
-8.79593e-08
-1.84649e-07
-8.69618e-08
-1.85108e-07
-8.60914e-08
-1.85551e-07
-8.51081e-08
-1.85981e-07
-8.42533e-08
-1.86395e-07
-8.32852e-08
-1.86795e-07
-8.245e-08
-1.87181e-07
-8.14951e-08
-1.87554e-07
-8.06971e-08
-1.87912e-07
-1.84379e-07
-7.97774e-08
-9.97503e-08
-1.53912e-07
1.00581e-07
-9.87267e-08
-1.80834e-07
-9.78231e-08
-1.8143e-07
-9.67798e-08
-1.82011e-07
-9.58464e-08
-1.82576e-07
-9.47792e-08
-1.83125e-07
-9.38304e-08
-1.83657e-07
-9.27559e-08
-1.84174e-07
-9.18064e-08
-1.84675e-07
-9.07364e-08
-1.8516e-07
-8.97949e-08
-1.85628e-07
-8.87365e-08
-1.86081e-07
-8.78087e-08
-1.86518e-07
-8.67657e-08
-1.86939e-07
-8.58551e-08
-1.87345e-07
-8.48289e-08
-1.87736e-07
-8.39393e-08
-1.88111e-07
-8.29279e-08
-1.88472e-07
-8.20778e-08
-1.88818e-07
-1.85254e-07
-8.11035e-08
-1.02195e-07
-1.54826e-07
1.0307e-07
-1.0111e-07
-1.81903e-07
-1.00148e-07
-1.82499e-07
-9.90384e-08
-1.83078e-07
-9.80435e-08
-1.83642e-07
-9.69096e-08
-1.84189e-07
-9.58984e-08
-1.8472e-07
-9.47577e-08
-1.85233e-07
-9.37456e-08
-1.8573e-07
-9.261e-08
-1.8621e-07
-9.1607e-08
-1.86673e-07
-9.04834e-08
-1.8712e-07
-8.94952e-08
-1.87549e-07
-8.83885e-08
-1.87962e-07
-8.74189e-08
-1.88359e-07
-8.63302e-08
-1.88739e-07
-8.53836e-08
-1.89104e-07
-8.43111e-08
-1.89452e-07
-8.34058e-08
-1.89785e-07
-1.86186e-07
-8.23736e-08
-1.04635e-07
-1.55771e-07
1.05561e-07
-1.03491e-07
-1.83016e-07
-1.02467e-07
-1.83618e-07
-1.01293e-07
-1.84202e-07
-1.00232e-07
-1.84769e-07
-9.90315e-08
-1.85317e-07
-9.79533e-08
-1.85847e-07
-9.67447e-08
-1.86359e-07
-9.56656e-08
-1.86853e-07
-9.44621e-08
-1.87329e-07
-9.33922e-08
-1.87787e-07
-9.22018e-08
-1.88227e-07
-9.11476e-08
-1.88648e-07
-8.9975e-08
-1.89053e-07
-8.89407e-08
-1.8944e-07
-8.77878e-08
-1.89809e-07
-8.67778e-08
-1.90162e-07
-8.56428e-08
-1.90497e-07
-8.46766e-08
-1.90816e-07
-1.87181e-07
-8.35843e-08
-1.071e-07
-1.56756e-07
1.08085e-07
-1.059e-07
-1.84192e-07
-1.04802e-07
-1.84805e-07
-1.0356e-07
-1.85396e-07
-1.02425e-07
-1.85967e-07
-1.01153e-07
-1.86517e-07
-1.00001e-07
-1.87047e-07
-9.87205e-08
-1.87558e-07
-9.75689e-08
-1.88049e-07
-9.62931e-08
-1.8852e-07
-9.51521e-08
-1.88973e-07
-9.38894e-08
-1.89406e-07
-9.27655e-08
-1.8982e-07
-9.15217e-08
-1.90215e-07
-9.04194e-08
-1.90591e-07
-8.91966e-08
-1.90949e-07
-8.8121e-08
-1.91289e-07
-8.69177e-08
-1.9161e-07
-8.58879e-08
-1.91914e-07
-1.8824e-07
-8.47311e-08
-1.0965e-07
-1.57858e-07
1.10714e-07
-1.0835e-07
-1.85476e-07
-1.07167e-07
-1.86089e-07
-1.05841e-07
-1.8668e-07
-1.04626e-07
-1.87251e-07
-1.03274e-07
-1.87801e-07
-1.02044e-07
-1.8833e-07
-1.00685e-07
-1.88838e-07
-9.9455e-08
-1.89325e-07
-9.81023e-08
-1.89792e-07
-9.68837e-08
-1.90238e-07
-9.55456e-08
-1.90663e-07
-9.43454e-08
-1.91069e-07
-9.30275e-08
-1.91454e-07
-9.18505e-08
-1.91819e-07
-9.05556e-08
-1.92164e-07
-8.94068e-08
-1.9249e-07
-8.81336e-08
-1.92797e-07
-8.70331e-08
-1.93085e-07
-1.8937e-07
-8.58094e-08
-1.12178e-07
-1.59008e-07
1.13307e-07
-1.10801e-07
-1.86829e-07
-1.09533e-07
-1.87446e-07
-1.08125e-07
-1.8804e-07
-1.06825e-07
-1.88614e-07
-1.05391e-07
-1.89164e-07
-1.04076e-07
-1.89693e-07
-1.02635e-07
-1.90199e-07
-1.01322e-07
-1.90683e-07
-9.98866e-08
-1.91145e-07
-9.85863e-08
-1.91585e-07
-9.71664e-08
-1.92002e-07
-9.58861e-08
-1.92399e-07
-9.44878e-08
-1.92773e-07
-9.32324e-08
-1.93126e-07
-9.18586e-08
-1.93458e-07
-9.06343e-08
-1.93769e-07
-8.92841e-08
-1.9406e-07
-8.81104e-08
-1.9433e-07
-1.90571e-07
-8.68143e-08
-1.14728e-07
-1.60213e-07
1.1593e-07
-1.13268e-07
-1.88251e-07
-1.11911e-07
-1.88878e-07
-1.10418e-07
-1.8948e-07
-1.09026e-07
-1.90059e-07
-1.07506e-07
-1.90613e-07
-1.061e-07
-1.91143e-07
-1.04572e-07
-1.91648e-07
-1.03168e-07
-1.9213e-07
-1.01647e-07
-1.92587e-07
-1.00257e-07
-1.9302e-07
-9.87517e-08
-1.9343e-07
-9.73833e-08
-1.93817e-07
-9.5901e-08
-1.9418e-07
-9.45596e-08
-1.9452e-07
-9.31041e-08
-1.94838e-07
-9.17956e-08
-1.95133e-07
-9.03664e-08
-1.95407e-07
-8.91116e-08
-1.95658e-07
-1.91852e-07
-8.77401e-08
-1.1732e-07
-1.6149e-07
1.18603e-07
-1.15778e-07
-1.89772e-07
-1.14319e-07
-1.90411e-07
-1.12733e-07
-1.91023e-07
-1.11241e-07
-1.91607e-07
-1.09626e-07
-1.92163e-07
-1.08121e-07
-1.92693e-07
-1.06498e-07
-1.93197e-07
-1.04997e-07
-1.93675e-07
-1.03381e-07
-1.94126e-07
-1.01896e-07
-1.94553e-07
-1.00297e-07
-1.94953e-07
-9.88363e-08
-1.95329e-07
-9.72621e-08
-1.9568e-07
-9.58305e-08
-1.96006e-07
-9.4285e-08
-1.96308e-07
-9.28898e-08
-1.96586e-07
-9.13732e-08
-1.9684e-07
-9.00342e-08
-1.97072e-07
-1.93215e-07
-8.85809e-08
-1.20013e-07
-1.62921e-07
1.21399e-07
-1.18337e-07
-1.9144e-07
-1.16766e-07
-1.9208e-07
-1.15067e-07
-1.92691e-07
-1.13468e-07
-1.93274e-07
-1.11746e-07
-1.93829e-07
-1.10136e-07
-1.94357e-07
-1.08408e-07
-1.94856e-07
-1.06804e-07
-1.95328e-07
-1.05086e-07
-1.95773e-07
-1.03499e-07
-1.9619e-07
-1.01801e-07
-1.9658e-07
-1.00239e-07
-1.96944e-07
-9.85677e-08
-1.97281e-07
-9.70375e-08
-1.97591e-07
-9.53984e-08
-1.97876e-07
-9.39068e-08
-1.98135e-07
-9.23e-08
-1.9837e-07
-9.08682e-08
-1.98579e-07
-1.94668e-07
-8.93293e-08
-1.2268e-07
-1.6443e-07
1.24154e-07
-1.20896e-07
-1.93212e-07
-1.19211e-07
-1.93855e-07
-1.174e-07
-1.94468e-07
-1.15689e-07
-1.95053e-07
-1.13855e-07
-1.95607e-07
-1.12134e-07
-1.96132e-07
-1.10297e-07
-1.96627e-07
-1.08582e-07
-1.97093e-07
-1.06756e-07
-1.97529e-07
-1.0506e-07
-1.97937e-07
-1.03254e-07
-1.98316e-07
-1.01586e-07
-1.98666e-07
-9.98103e-08
-1.98987e-07
-9.81767e-08
-1.99281e-07
-9.64351e-08
-1.99547e-07
-9.4844e-08
-1.99786e-07
-9.31378e-08
-1.99998e-07
-9.16099e-08
-2.00184e-07
-1.96214e-07
-8.99781e-08
-1.25366e-07
-1.66021e-07
1.2694e-07
-1.23468e-07
-1.95085e-07
-1.21664e-07
-1.95737e-07
-1.19737e-07
-1.96356e-07
-1.17905e-07
-1.96944e-07
-1.15955e-07
-1.97499e-07
-1.14114e-07
-1.98022e-07
-1.12161e-07
-1.98514e-07
-1.10328e-07
-1.98974e-07
-1.08387e-07
-1.99403e-07
-1.06573e-07
-1.998e-07
-1.04656e-07
-2.00167e-07
-1.02872e-07
-2.00502e-07
-1.00986e-07
-2.00808e-07
-9.92398e-08
-2.01083e-07
-9.73912e-08
-2.01329e-07
-9.56904e-08
-2.01545e-07
-9.38813e-08
-2.01733e-07
-9.22477e-08
-2.01893e-07
-1.97861e-07
-9.05187e-08
-1.28091e-07
-1.67706e-07
1.2977e-07
-1.26077e-07
-1.97081e-07
-1.2414e-07
-1.97744e-07
-1.22088e-07
-1.98371e-07
-1.20125e-07
-1.98963e-07
-1.1805e-07
-1.99519e-07
-1.1608e-07
-2.00041e-07
-1.14002e-07
-2.00528e-07
-1.12042e-07
-2.00982e-07
-1.09977e-07
-2.01402e-07
-1.08039e-07
-2.01788e-07