/*--------------------------------*- C++ -*----------------------------------*\
  =========                 |
  \\      /  F ield         | OpenFOAM: The Open Source CFD Toolbox
   \\    /   O peration     | Website:  https://openfoam.org
    \\  /    A nd           | Version:  6
     \\/     M anipulation  |
\*---------------------------------------------------------------------------*/
FoamFile
{
    version     2.0;
    format      ascii;
    class       surfaceScalarField;
    location    "1";
    object      phi;
}
// * * * * * * * * * * * * * * * * * * * * * * * * * * * * * * * * * * * * * //

dimensions      [0 3 -1 0 0 0 0];

internalField   nonuniform List<scalar> 
19400
(
-1.95654e-08
-1.75556e-06
-1.0963e-08
-1.18567e-06
-6.33077e-09
-1.18715e-06
-3.77596e-09
-1.18826e-06
-2.3091e-09
-1.18905e-06
-1.43117e-09
-1.18962e-06
-8.87295e-10
-1.19001e-06
-4.97968e-10
-1.19027e-06
-2.44474e-10
-1.19043e-06
1.73844e-11
-1.1905e-06
2.17691e-10
-1.1905e-06
5.26656e-10
-1.19041e-06
8.825e-10
-1.19024e-06
1.44219e-09
-1.18996e-06
2.32002e-09
-1.18955e-06
3.79595e-09
-1.18898e-06
6.34217e-09
-1.18816e-06
1.09374e-08
-1.18705e-06
1.95063e-08
-1.18556e-06
-1.75543e-06
-2.49097e-08
-1.73086e-06
-1.54989e-08
-1.1952e-06
-9.87902e-09
-1.1929e-06
-6.41744e-09
-1.19183e-06
-4.22297e-09
-1.19136e-06
-2.77859e-09
-1.19118e-06
-1.77829e-09
-1.19112e-06
-1.06964e-09
-1.19112e-06
-4.70208e-10
-1.19112e-06
1.24272e-11
-1.19114e-06
5.57344e-10
-1.19112e-06
1.11282e-09
-1.19112e-06
1.84152e-09
-1.1911e-06
2.8576e-09
-1.19109e-06
4.25885e-09
-1.19114e-06
6.49829e-09
-1.19131e-06
9.92398e-09
-1.19176e-06
1.54852e-08
-1.19281e-06
2.47843e-08
-1.1951e-06
-1.73069e-06
-5.59204e-09
-1.72536e-06
-6.29532e-09
-1.19459e-06
-5.6002e-09
-1.19367e-06
-4.53449e-09
-1.19297e-06
-3.48531e-09
-1.19248e-06
-2.55104e-09
-1.19217e-06
-1.78035e-09
-1.19197e-06
-1.07902e-09
-1.19185e-06
-5.21937e-10
-1.19179e-06
6.74524e-11
-1.19175e-06
5.75813e-10
-1.19175e-06
1.19988e-09
-1.19175e-06
1.86684e-09
-1.19181e-06
2.64702e-09
-1.19191e-06
3.60357e-09
-1.19209e-06
4.6748e-09
-1.1924e-06
5.72198e-09
-1.19288e-06
6.34003e-09
-1.19357e-06
5.53309e-09
-1.19448e-06
-1.72519e-06
-1.88721e-09
-1.72348e-06
-2.61376e-09
-1.19382e-06
-2.79456e-09
-1.19346e-06
-2.59854e-09
-1.19311e-06
-2.2275e-09
-1.19281e-06
-1.76783e-09
-1.19257e-06
-1.28864e-09
-1.1924e-06
-8.31167e-10
-1.19228e-06
-3.54708e-10
-1.1922e-06
7.24665e-11
-1.19216e-06
5.44855e-10
-1.19215e-06
9.77546e-10
-1.19219e-06
1.44839e-09
-1.19225e-06
1.93224e-09
-1.19237e-06
2.37272e-09
-1.19253e-06
2.77365e-09
-1.19276e-06
2.95244e-09
-1.19304e-06
2.71128e-09
-1.19338e-06
1.86779e-09
-1.19373e-06
-1.72333e-06
-7.85394e-10
-1.72265e-06
-1.19575e-09
-1.19339e-06
-1.39085e-09
-1.19323e-06
-1.40132e-09
-1.19307e-06
-1.28578e-09
-1.1929e-06
-1.06536e-09
-1.19275e-06
-8.16744e-10
-1.19263e-06
-4.91019e-10
-1.19254e-06
-2.21938e-10
-1.19248e-06
1.28437e-10
-1.19244e-06
3.87403e-10
-1.19244e-06
7.22759e-10
-1.19245e-06
9.96203e-10
-1.1925e-06
1.25385e-09
-1.19258e-06
1.48864e-09
-1.19268e-06
1.61817e-09
-1.19282e-06
1.59239e-09
-1.19298e-06
1.33095e-09
-1.19314e-06
8.39807e-10
-1.19328e-06
-1.7225e-06
-3.98603e-10
-1.72217e-06
-5.89106e-10
-1.1931e-06
-7.16194e-10
-1.19302e-06
-7.40033e-10
-1.19294e-06
-6.98745e-10
-1.19285e-06
-5.87109e-10
-1.19276e-06
-4.33625e-10
-1.19269e-06
-2.65536e-10
-1.19263e-06
-5.28272e-11
-1.19258e-06
1.31008e-10
-1.19256e-06
3.47724e-10
-1.19255e-06
5.23982e-10
-1.19257e-06
6.86317e-10
-1.1926e-06
8.4576e-10
-1.19265e-06
9.26587e-10
-1.19272e-06
9.90679e-10
-1.19279e-06
9.38639e-10
-1.19287e-06
7.48961e-10
-1.19295e-06
4.56052e-10
-1.19302e-06
-1.72205e-06
-1.91952e-10
-1.72189e-06
-3.03043e-10
-1.19293e-06
-3.64067e-10
-1.19289e-06
-3.78467e-10
-1.19285e-06
-3.58263e-10
-1.1928e-06
-2.86861e-10
-1.19275e-06
-2.11722e-10
-1.19271e-06
-6.90952e-11
-1.19266e-06
1.54325e-11
-1.19264e-06
1.82059e-10
-1.19262e-06
2.55877e-10
-1.19262e-06
4.04561e-10
-1.19261e-06
4.86567e-10
-1.19263e-06
5.70412e-10
-1.19265e-06
6.42444e-10
-1.19268e-06
6.72856e-10
-1.19273e-06
6.27396e-10
-1.19277e-06
4.87239e-10
-1.1928e-06
2.91772e-10
-1.19283e-06
-1.72176e-06
-1.24546e-10
-1.72165e-06
-1.58916e-10
-1.19276e-06
-1.90378e-10
-1.19274e-06
-1.81984e-10
-1.19271e-06
-1.61495e-10
-1.19269e-06
-1.10316e-10
-1.19266e-06
-4.51895e-11
-1.19263e-06
1.80849e-11
-1.19261e-06
1.15296e-10
-1.19259e-06
1.79955e-10
-1.19258e-06
2.73255e-10
-1.19257e-06
3.37003e-10
-1.19258e-06
3.88142e-10
-1.19259e-06
4.57383e-10
-1.1926e-06
4.7275e-10
-1.19263e-06
5.10603e-10
-1.19264e-06
4.76463e-10
-1.19266e-06
3.66163e-10
-1.19268e-06
2.20377e-10
-1.19269e-06
-1.72153e-06
-5.7701e-11
-1.72145e-06
-8.31711e-11
-1.19263e-06
-8.57903e-11
-1.19262e-06
-7.08145e-11
-1.19261e-06
-5.00778e-11
-1.1926e-06
-2.78765e-12
-1.19258e-06
2.90739e-11
-1.19256e-06
1.13605e-10
-1.19254e-06
1.31971e-10
-1.19254e-06
2.26484e-10
-1.19252e-06
2.31336e-10
-1.19252e-06
3.08775e-10
-1.19251e-06
3.32488e-10
-1.19252e-06
3.69641e-10
-1.19252e-06
4.11439e-10
-1.19252e-06
4.37657e-10
-1.19253e-06
4.1017e-10
-1.19254e-06
3.14867e-10
-1.19255e-06
1.95858e-10
-1.19255e-06
-1.72133e-06
-5.39943e-11
-1.72122e-06
-4.13811e-11
-1.19247e-06
-3.75709e-11
-1.19247e-06
-8.41544e-12
-1.19246e-06
1.7235e-11
-1.19245e-06
5.99586e-11
-1.19244e-06
1.03865e-10
-1.19243e-06
1.37031e-10
-1.19242e-06
1.97289e-10
-1.19241e-06
2.21579e-10
-1.19241e-06
2.72313e-10
-1.1924e-06
3.0034e-10
-1.1924e-06
3.18347e-10
-1.1924e-06
3.62628e-10
-1.1924e-06
3.67897e-10
-1.19241e-06
4.03544e-10
-1.19241e-06
3.80472e-10
-1.19241e-06
2.95367e-10
-1.19241e-06
1.93593e-10
-1.19241e-06
-1.72112e-06
-2.16663e-11
-1.721e-06
-1.85182e-11
-1.19233e-06
5.83686e-13
-1.19232e-06
2.97209e-11
-1.19232e-06
5.66761e-11
-1.19232e-06
1.01398e-10
-1.19231e-06
1.24661e-10
-1.1923e-06
1.93165e-10
-1.19229e-06
1.93586e-10
-1.19229e-06
2.6546e-10
-1.19228e-06
2.52112e-10
-1.19228e-06
3.05418e-10
-1.19227e-06
3.1424e-10
-1.19227e-06
3.37372e-10
-1.19226e-06
3.71585e-10
-1.19226e-06
3.96222e-10
-1.19226e-06
3.74405e-10
-1.19226e-06
2.94073e-10
-1.19226e-06
2.04088e-10
-1.19226e-06
-1.7209e-06
-3.36667e-11
-1.72074e-06
-4.19696e-12
-1.19214e-06
1.38372e-11
-1.19214e-06
5.26466e-11
-1.19213e-06
8.38528e-11
-1.19213e-06
1.27167e-10
-1.19213e-06
1.68171e-10
-1.19212e-06
1.94141e-10
-1.19212e-06
2.46142e-10
-1.19211e-06
2.59074e-10
-1.19211e-06
2.98568e-10
-1.1921e-06
3.17337e-10
-1.1921e-06
3.26493e-10
-1.1921e-06
3.62128e-10
-1.1921e-06
3.65608e-10
-1.1921e-06
3.96764e-10
-1.19209e-06
3.75015e-10
-1.19209e-06
2.99531e-10
-1.19209e-06
2.19507e-10
-1.19209e-06
-1.72065e-06
-1.17376e-11
-1.72048e-06
3.53792e-12
-1.19196e-06
3.25621e-11
-1.19196e-06
6.87044e-11
-1.19196e-06
1.01164e-10
-1.19196e-06
1.47155e-10
-1.19196e-06
1.71606e-10
-1.19195e-06
2.36407e-10
-1.19194e-06
2.35539e-10
-1.19194e-06
3.01194e-10
-1.19193e-06
2.87676e-10
-1.19193e-06
3.32198e-10
-1.19192e-06
3.39511e-10
-1.19192e-06
3.5641e-10
-1.19191e-06
3.86858e-10
-1.19191e-06
4.06556e-10
-1.1919e-06
3.84071e-10
-1.1919e-06
3.10486e-10
-1.1919e-06
2.38399e-10
-1.1919e-06
-1.72038e-06
-2.74331e-11
-1.72017e-06
1.00363e-11
-1.19174e-06
3.55999e-11
-1.19174e-06
7.97326e-11
-1.19174e-06
1.15788e-10
-1.19174e-06
1.61219e-10
-1.19173e-06
2.04689e-10
-1.19173e-06
2.29854e-10
-1.19173e-06
2.83276e-10
-1.19172e-06
2.93732e-10
-1.19173e-06
3.33276e-10
-1.19172e-06
3.50143e-10
-1.19172e-06
3.58471e-10
-1.19171e-06
3.88986e-10
-1.19171e-06
3.9176e-10
-1.19171e-06
4.16189e-10
-1.1917e-06
3.92106e-10
-1.1917e-06
3.21742e-10
-1.1917e-06
2.56948e-10
-1.19169e-06
-1.72008e-06
-9.02956e-12
-1.71985e-06
1.32749e-11
-1.19153e-06
4.8271e-11
-1.19153e-06
8.88941e-11
-1.19153e-06
1.26108e-10
-1.19153e-06
1.74116e-10
-1.19153e-06
2.02382e-10
-1.19152e-06
2.67013e-10
-1.19152e-06
2.69978e-10
-1.19152e-06
3.34393e-10
-1.19151e-06
3.26207e-10
-1.19151e-06
3.66605e-10
-1.1915e-06
3.76348e-10
-1.19149e-06
3.88706e-10
-1.19149e-06
4.16359e-10
-1.19148e-06
4.29792e-10
-1.19148e-06
4.04783e-10
-1.19148e-06
3.34876e-10
-1.19147e-06
2.75433e-10
-1.19147e-06
-1.71976e-06
-2.50216e-11
-1.7195e-06
1.75601e-11
-1.19128e-06
4.82468e-11
-1.19128e-06
9.61996e-11
-1.19128e-06
1.36524e-10
-1.19128e-06
1.84342e-10
-1.19128e-06
2.31556e-10
-1.19127e-06
2.57768e-10
-1.19127e-06
3.1522e-10
-1.19127e-06
3.25849e-10
-1.19127e-06
3.68764e-10
-1.19126e-06
3.85427e-10
-1.19126e-06
3.95368e-10
-1.19126e-06
4.21371e-10
-1.19125e-06
4.23723e-10
-1.19125e-06
4.41448e-10
-1.19125e-06
4.1423e-10
-1.19124e-06
3.46241e-10
-1.19124e-06
2.91033e-10
-1.19124e-06
-1.71943e-06
-8.03615e-12
-1.71915e-06
1.9507e-11
-1.19105e-06
5.86479e-11
-1.19105e-06
1.03042e-10
-1.19105e-06
1.44216e-10
-1.19104e-06
1.94645e-10
-1.19104e-06
2.26868e-10
-1.19104e-06
2.92629e-10
-1.19103e-06
3.00147e-10
-1.19104e-06
3.65017e-10
-1.19102e-06
3.6271e-10
-1.19103e-06
4.005e-10
-1.19102e-06
4.13139e-10
-1.19101e-06
4.2169e-10
-1.19101e-06
4.46987e-10
-1.191e-06
4.55291e-10
-1.191e-06
4.27596e-10
-1.191e-06
3.58282e-10
-1.19099e-06
3.04726e-10
-1.19099e-06
-1.71907e-06
-2.32332e-11
-1.71877e-06
2.31668e-11
-1.19078e-06
5.76908e-11
-1.19078e-06
1.08985e-10
-1.19078e-06
1.5291e-10
-1.19077e-06
2.03346e-10
-1.19077e-06
2.54022e-10
-1.19077e-06
2.82148e-10
-1.19077e-06
3.43349e-10
-1.19076e-06
3.55232e-10
-1.19077e-06
4.01213e-10
-1.19076e-06
4.18215e-10
-1.19076e-06
4.29872e-10
-1.19076e-06
4.51728e-10
-1.19075e-06
4.54174e-10
-1.19075e-06
4.67056e-10
-1.19075e-06
4.36865e-10
-1.19075e-06
3.67724e-10
-1.19074e-06
3.14268e-10
-1.19074e-06
-1.71871e-06
-7.14118e-12
-1.71841e-06
2.47741e-11
-1.19053e-06
6.68168e-11
-1.19053e-06
1.14837e-10
-1.19053e-06
1.59141e-10
-1.19053e-06
2.12372e-10
-1.19053e-06
2.47823e-10
-1.19052e-06
3.15425e-10
-1.19052e-06
3.26546e-10
-1.19052e-06
3.92614e-10
-1.19051e-06
3.94871e-10
-1.19051e-06
4.30533e-10
-1.19051e-06
4.45278e-10
-1.1905e-06
4.50886e-10
-1.1905e-06
4.74118e-10
-1.19049e-06
4.79975e-10
-1.19049e-06
4.49996e-10
-1.19049e-06
3.77453e-10
-1.19048e-06
3.21282e-10
-1.19048e-06
-1.71834e-06
-2.10125e-11
-1.71802e-06
2.81987e-11
-1.19026e-06
6.56477e-11
-1.19026e-06
1.19983e-10
-1.19025e-06
1.66817e-10
-1.19025e-06
2.20016e-10
-1.19025e-06
2.73332e-10
-1.19025e-06
3.03941e-10
-1.19025e-06
3.67501e-10
-1.19024e-06
3.81275e-10
-1.19025e-06
4.28376e-10
-1.19024e-06
4.46253e-10
-1.19024e-06
4.58703e-10
-1.19024e-06
4.76967e-10
-1.19024e-06
4.80327e-10
-1.19024e-06
4.90965e-10
-1.19023e-06
4.58295e-10
-1.19023e-06
3.84162e-10
-1.19023e-06
3.2392e-10
-1.19023e-06
-1.71797e-06
-5.95501e-12
-1.71765e-06
2.96863e-11
-1.19001e-06
7.36097e-11
-1.19001e-06
1.25098e-10
-1.19001e-06
1.71722e-10
-1.19001e-06
2.27922e-10
-1.19e-06
2.65662e-10
-1.19e-06
3.35421e-10
-1.19e-06
3.48753e-10
-1.19e-06
4.16271e-10
-1.18999e-06
4.21415e-10
-1.18999e-06
4.54854e-10
-1.18999e-06
4.7064e-10
-1.18998e-06
4.74247e-10
-1.18998e-06
4.95524e-10
-1.18998e-06
5.01923e-10
-1.18998e-06
4.70299e-10
-1.18997e-06
3.91021e-10
-1.18997e-06
3.24266e-10
-1.18997e-06
-1.7176e-06
-1.80736e-11
-1.71728e-06
3.29022e-11
-1.18974e-06
7.25194e-11
-1.18974e-06
1.29407e-10
-1.18974e-06
1.78465e-10
-1.18974e-06
2.34276e-10
-1.18974e-06
2.89297e-10
-1.18974e-06
3.22612e-10
-1.18974e-06
3.86912e-10
-1.18973e-06
4.02881e-10
-1.18974e-06
4.48666e-10
-1.18973e-06
4.68036e-10
-1.18973e-06
4.79999e-10
-1.18973e-06
4.95255e-10
-1.18973e-06
5.00422e-10
-1.18973e-06
5.11114e-10
-1.18973e-06
4.76594e-10
-1.18972e-06
3.94522e-10
-1.18972e-06
3.20595e-10
-1.18972e-06
-1.71724e-06
-4.4897e-12
-1.71692e-06
3.42068e-11
-1.1895e-06
7.91249e-11
-1.1895e-06
1.3363e-10
-1.1895e-06
1.81812e-10
-1.1895e-06
2.40723e-10
-1.1895e-06
2.7986e-10
-1.1895e-06
3.51586e-10
-1.18949e-06
3.65859e-10
-1.1895e-06
4.34586e-10
-1.18949e-06
4.41286e-10
-1.18949e-06
4.71919e-10
-1.18949e-06
4.87832e-10
-1.18949e-06
4.90219e-10
-1.18948e-06
5.09377e-10
-1.18948e-06
5.18716e-10
-1.18948e-06
4.86201e-10
-1.18948e-06
3.98016e-10
-1.18948e-06
3.15157e-10
-1.18948e-06
-1.71689e-06
-1.44178e-11
-1.71657e-06
3.71481e-11
-1.18925e-06
7.82399e-11
-1.18925e-06
1.36841e-10
-1.18925e-06
1.8741e-10
-1.18925e-06
2.45229e-10
-1.18925e-06
3.01033e-10
-1.18925e-06
3.36788e-10
-1.18925e-06
4.00351e-10
-1.18924e-06
4.1839e-10
-1.18925e-06
4.60546e-10
-1.18924e-06
4.81955e-10
-1.18924e-06
4.92143e-10
-1.18925e-06
5.04822e-10
-1.18924e-06
5.12548e-10
-1.18925e-06
5.24767e-10
-1.18925e-06
4.89095e-10
-1.18925e-06
3.97736e-10
-1.18924e-06
3.06105e-10
-1.18924e-06
-1.71656e-06
-2.84275e-12
-1.71624e-06
3.81333e-11
-1.18903e-06
8.3141e-11
-1.18903e-06
1.39851e-10
-1.18903e-06
1.88725e-10
-1.18903e-06
2.49614e-10
-1.18903e-06
2.89241e-10
-1.18903e-06
3.62226e-10
-1.18902e-06
3.76352e-10
-1.18903e-06
4.45588e-10
-1.18902e-06
4.52981e-10
-1.18903e-06
4.79856e-10
-1.18902e-06
4.95217e-10
-1.18902e-06
4.96919e-10
-1.18902e-06
5.135e-10
-1.18902e-06
5.27294e-10
-1.18902e-06
4.94731e-10
-1.18902e-06
3.97146e-10
-1.18902e-06
2.95631e-10
-1.18902e-06
-1.71624e-06
-1.01233e-11
-1.71592e-06
4.0716e-11
-1.1888e-06
8.24662e-11
-1.1888e-06
1.41589e-10
-1.1888e-06
1.92764e-10
-1.1888e-06
2.5154e-10
-1.1888e-06
3.07101e-10
-1.1888e-06
3.44546e-10
-1.1888e-06
4.0601e-10
-1.1888e-06
4.2557e-10
-1.18881e-06
4.62051e-10
-1.1888e-06
4.8588e-10
-1.1888e-06
4.93094e-10
-1.18881e-06
5.03449e-10
-1.18881e-06
5.14244e-10
-1.18881e-06
5.28637e-10
-1.18881e-06
4.92588e-10
-1.18881e-06
3.92225e-10
-1.18881e-06
2.81661e-10
-1.18881e-06
-1.71594e-06
-1.07166e-12
-1.71563e-06
4.12067e-11
-1.18861e-06
8.52483e-11
-1.18861e-06
1.42968e-10
-1.18861e-06
1.91445e-10
-1.18861e-06
2.53126e-10
-1.18861e-06
2.92174e-10
-1.18861e-06
3.65242e-10
-1.1886e-06
3.78163e-10
-1.18861e-06
4.46817e-10
-1.1886e-06
4.54305e-10
-1.18861e-06
4.76227e-10
-1.18861e-06
4.90496e-10
-1.18861e-06
4.9185e-10
-1.18861e-06
5.05155e-10
-1.18861e-06
5.24191e-10
-1.18861e-06
4.92523e-10
-1.18862e-06
3.86522e-10
-1.18862e-06
2.66251e-10
-1.18862e-06
-1.71566e-06
-5.23718e-12
-1.71535e-06
4.33732e-11
-1.18841e-06
8.47382e-11
-1.18841e-06
1.42842e-10
-1.18841e-06
1.9341e-10
-1.18841e-06
2.51682e-10
-1.18841e-06
3.05715e-10
-1.18841e-06
3.43653e-10
-1.18842e-06
4.01592e-10
-1.18841e-06
4.21738e-10
-1.18842e-06
4.50634e-10
-1.18842e-06
4.77075e-10
-1.18842e-06
4.8015e-10
-1.18843e-06
4.88343e-10
-1.18843e-06
5.02457e-10
-1.18843e-06
5.19135e-10
-1.18844e-06
4.83603e-10
-1.18844e-06
3.75804e-10
-1.18844e-06
2.47121e-10
-1.18845e-06
-1.71541e-06
8.60908e-13
-1.71512e-06
4.32305e-11
-1.18825e-06
8.49782e-11
-1.18825e-06
1.42169e-10
-1.18825e-06
1.8878e-10
-1.18825e-06
2.49683e-10
-1.18825e-06
2.86715e-10
-1.18825e-06
3.58334e-10
-1.18825e-06
3.68752e-10
-1.18826e-06
4.35459e-10
-1.18825e-06
4.42388e-10
-1.18826e-06
4.58075e-10
-1.18827e-06
4.70685e-10
-1.18827e-06
4.71957e-10
-1.18827e-06
4.81122e-10
-1.18828e-06
5.05764e-10
-1.18828e-06
4.76051e-10
-1.18828e-06
3.63726e-10
-1.18829e-06
2.26256e-10
-1.18829e-06
-1.71518e-06
2.30968e-13
-1.7149e-06
4.4942e-11
-1.18809e-06
8.45188e-11
-1.18809e-06
1.39785e-10
-1.1881e-06
1.88083e-10
-1.1881e-06
2.44079e-10
-1.1881e-06
2.94864e-10
-1.1881e-06
3.31769e-10
-1.18811e-06
3.84469e-10
-1.1881e-06
4.03998e-10
-1.18811e-06
4.23339e-10
-1.18811e-06
4.5244e-10
-1.18812e-06
4.50141e-10
-1.18812e-06
4.56374e-10
-1.18813e-06
4.73799e-10
-1.18813e-06
4.92613e-10
-1.18814e-06
4.58631e-10
-1.18815e-06
3.45907e-10
-1.18815e-06
2.013e-10
-1.18816e-06
-1.71499e-06
3.00824e-12
-1.71473e-06
4.40231e-11
-1.18798e-06
8.18209e-11
-1.18798e-06
1.36653e-10
-1.18798e-06
1.79488e-10
-1.18798e-06
2.37741e-10
-1.18798e-06
2.70859e-10
-1.18798e-06
3.39235e-10
-1.18798e-06
3.45458e-10
-1.18799e-06
4.08678e-10
-1.18799e-06
4.1414e-10
-1.188e-06
4.22334e-10
-1.18801e-06
4.326e-10
-1.18801e-06
4.34029e-10
-1.18802e-06
4.38089e-10
-1.18803e-06
4.68424e-10
-1.18803e-06
4.41815e-10
-1.18803e-06
3.26135e-10
-1.18804e-06
1.74287e-10
-1.18805e-06
-1.71484e-06
6.23708e-12
-1.71457e-06
4.52941e-11
-1.18787e-06
8.13199e-11
-1.18787e-06
1.31717e-10
-1.18787e-06
1.75613e-10
-1.18788e-06
2.27305e-10
-1.18788e-06
2.72644e-10
-1.18788e-06
3.06708e-10
-1.18789e-06
3.52097e-10
-1.18789e-06
3.69585e-10
-1.1879e-06
3.77297e-10
-1.1879e-06
4.08954e-10
-1.18791e-06
3.99949e-10
-1.18792e-06
4.04495e-10
-1.18792e-06
4.24914e-10
-1.18793e-06
4.45512e-10
-1.18794e-06
4.1422e-10
-1.18795e-06
2.99946e-10
-1.18796e-06
1.42923e-10
-1.18797e-06
-1.71472e-06
5.45837e-12
-1.71448e-06
4.34988e-11
-1.18781e-06
7.54233e-11
-1.18781e-06
1.25788e-10
-1.18781e-06
1.6251e-10
-1.18781e-06
2.15946e-10
-1.18781e-06
2.42774e-10
-1.18781e-06
3.05873e-10
-1.18782e-06
3.0581e-10
-1.18783e-06
3.63853e-10
-1.18783e-06
3.66657e-10
-1.18784e-06
3.66189e-10
-1.18785e-06
3.73314e-10
-1.18786e-06
3.75062e-10
-1.18787e-06
3.7298e-10
-1.18788e-06
4.08687e-10
-1.18789e-06
3.86359e-10
-1.18789e-06
2.71264e-10
-1.1879e-06
1.09402e-10
-1.18791e-06
-1.71464e-06
1.27026e-11
-1.71442e-06
4.4348e-11
-1.18776e-06
7.47215e-11
-1.18776e-06
1.18018e-10
-1.18777e-06
1.54926e-10
-1.18777e-06
2.00033e-10
-1.18777e-06
2.37289e-10
-1.18778e-06
2.66422e-10
-1.18779e-06
3.02159e-10
-1.18779e-06
3.15974e-10
-1.1878e-06
3.10047e-10
-1.18781e-06
3.4395e-10
-1.18781e-06
3.26877e-10
-1.18782e-06
3.30065e-10
-1.18783e-06
3.52732e-10
-1.18784e-06
3.74389e-10
-1.18786e-06
3.46994e-10
-1.18787e-06
2.3566e-10
-1.18788e-06
7.16197e-11
-1.18789e-06
-1.71462e-06
8.24621e-12
-1.71442e-06
4.15203e-11
-1.18776e-06
6.54274e-11
-1.18776e-06
1.08933e-10
-1.18776e-06
1.36832e-10
-1.18776e-06
1.82983e-10
-1.18777e-06
2.0077e-10
-1.18777e-06
2.56327e-10
-1.18777e-06
2.47632e-10
-1.18779e-06
2.98684e-10
-1.18779e-06
2.97494e-10
-1.1878e-06
2.87357e-10
-1.18782e-06
2.90514e-10
-1.18783e-06
2.92554e-10
-1.18785e-06
2.83257e-10
-1.18786e-06
3.23289e-10
-1.18787e-06
3.06408e-10
-1.18788e-06
1.97151e-10
-1.18789e-06
3.19365e-11
-1.18791e-06
-1.71464e-06
1.93997e-11
-1.71445e-06
4.19675e-11
-1.18779e-06
6.43026e-11
-1.18779e-06
9.81027e-11
-1.18779e-06
1.25064e-10
-1.18779e-06
1.61054e-10
-1.1878e-06
1.8729e-10
-1.18781e-06
2.0909e-10
-1.18782e-06
2.32795e-10
-1.18782e-06
2.41073e-10
-1.18784e-06
2.19889e-10
-1.18785e-06
2.55415e-10
-1.18785e-06
2.29036e-10
-1.18787e-06
2.31173e-10
-1.18788e-06
2.54788e-10
-1.18789e-06
2.76173e-10
-1.18791e-06
2.53932e-10
-1.18793e-06
1.51499e-10
-1.18794e-06
-1.15173e-11
-1.18795e-06
-1.71471e-06
1.13527e-11
-1.71455e-06
3.79555e-11
-1.18785e-06
5.15726e-11
-1.18785e-06
8.55775e-11
-1.18785e-06
1.01656e-10
-1.18786e-06
1.37781e-10
-1.18786e-06
1.43517e-10
-1.18787e-06
1.89064e-10
-1.18787e-06
1.6931e-10
-1.18789e-06
2.11475e-10
-1.18789e-06
2.04942e-10
-1.18791e-06
1.84405e-10
-1.18793e-06
1.82812e-10
-1.18795e-06
1.8486e-10
-1.18796e-06
1.673e-10
-1.18798e-06
2.09636e-10
-1.18799e-06
1.99347e-10
-1.18801e-06
1.02742e-10
-1.18803e-06
-5.6311e-11
-1.18804e-06
-1.71483e-06
2.59896e-11
-1.71469e-06
3.79845e-11
-1.18796e-06
4.96802e-11
-1.18796e-06
7.14936e-11
-1.18796e-06
8.5283e-11
-1.18797e-06
1.0944e-10
-1.18797e-06
1.21571e-10
-1.18798e-06
1.33378e-10
-1.18799e-06
1.42844e-10
-1.188e-06
1.4353e-10
-1.18802e-06
1.06177e-10
-1.18803e-06
1.4233e-10
-1.18803e-06
1.05701e-10
-1.18806e-06
1.07068e-10
-1.18807e-06
1.29721e-10
-1.18808e-06
1.48844e-10
-1.18811e-06
1.33049e-10
-1.18813e-06
4.70244e-11
-1.18815e-06
-1.04066e-10
-1.18816e-06
-1.71501e-06
1.46526e-11
-1.7149e-06
3.26e-11
-1.18809e-06
3.35726e-11
-1.18809e-06
5.53246e-11
-1.1881e-06
5.64046e-11
-1.1881e-06
7.96601e-11
-1.18811e-06
7.02083e-11
-1.18811e-06
1.03262e-10
-1.18812e-06
7.0087e-11
-1.18814e-06
1.01561e-10
-1.18815e-06
8.8382e-11
-1.18817e-06
5.71997e-11
-1.1882e-06
5.01672e-11
-1.18821e-06
5.17373e-11
-1.18823e-06
2.50145e-11
-1.18826e-06
6.67028e-11
-1.18827e-06
6.40936e-11
-1.18829e-06
-1.16607e-11
-1.18831e-06
-1.52383e-10
-1.18832e-06
-1.71524e-06
3.19648e-11
-1.71516e-06
3.2193e-11
-1.18828e-06
3.05238e-11
-1.18828e-06
3.79828e-11
-1.18829e-06
3.52668e-11
-1.18829e-06
4.49193e-11
-1.1883e-06
3.99043e-11
-1.18831e-06
3.89994e-11
-1.18832e-06
3.23869e-11
-1.18833e-06
2.33813e-11
-1.18835e-06
-3.01296e-11
-1.18837e-06
5.29072e-12
-1.18837e-06
-4.20697e-11
-1.1884e-06
-4.11856e-11
-1.18841e-06
-2.19275e-11
-1.18843e-06
-7.52027e-12
-1.18846e-06
-1.55888e-11
-1.18848e-06
-7.65752e-11
-1.1885e-06
-2.02601e-10
-1.18852e-06
-1.71552e-06
1.79413e-11
-1.71548e-06
2.53309e-11
-1.18849e-06
1.13973e-11
-1.18849e-06
1.82766e-11
-1.1885e-06
1.23112e-12
-1.1885e-06
8.9231e-12
-1.18851e-06
-1.87462e-11
-1.18852e-06
-4.55415e-13
-1.18853e-06
-4.91801e-11
-1.18854e-06
-2.99292e-11
-1.18856e-06
-5.09725e-11
-1.18858e-06
-9.24086e-11
-1.18861e-06
-1.05413e-10
-1.18863e-06
-1.0493e-10
-1.18865e-06
-1.41366e-10
-1.18868e-06
-1.03927e-10
-1.18869e-06
-9.78802e-11
-1.18871e-06
-1.43853e-10
-1.18874e-06
-2.52426e-10
-1.18876e-06
-1.71586e-06
3.67854e-11
-1.71585e-06
2.44761e-11
-1.18876e-06
6.87992e-12
-1.18876e-06
-2.05584e-12
-1.18877e-06
-2.43611e-11
-1.18877e-06
-3.16254e-11
-1.18878e-06
-5.64488e-11
-1.18879e-06
-7.2648e-11
-1.18881e-06
-9.65635e-11
-1.18882e-06
-1.17275e-10
-1.18884e-06
-1.85846e-10
-1.18886e-06
-1.52882e-10
-1.18887e-06
-2.10806e-10
-1.18889e-06
-2.10105e-10
-1.18891e-06
-1.96963e-10
-1.18893e-06
-1.89847e-10
-1.18896e-06
-1.8898e-10
-1.18899e-06
-2.16003e-10
-1.18901e-06
-3.02881e-10
-1.18903e-06
-1.71626e-06
2.09998e-11
-1.71628e-06
1.60716e-11
-1.18905e-06
-1.4596e-11
-1.18905e-06
-2.49078e-11
-1.18905e-06
-6.27129e-11
-1.18906e-06
-7.29384e-11
-1.18906e-06
-1.21328e-10
-1.18908e-06
-1.19674e-10
-1.18909e-06
-1.8554e-10
-1.18911e-06
-1.7965e-10
-1.18912e-06
-2.09575e-10
-1.18914e-06
-2.60201e-10
-1.18918e-06
-2.79411e-10
-1.1892e-06
-2.807e-10
-1.18922e-06
-3.26779e-10
-1.18925e-06
-2.97428e-10
-1.18927e-06
-2.81915e-10
-1.18929e-06
-2.89396e-10
-1.18932e-06
-3.51845e-10
-1.18934e-06
-1.7167e-06
3.9915e-11
-1.71676e-06
1.47501e-11
-1.18939e-06
-2.08189e-11
-1.1894e-06
-4.76987e-11
-1.1894e-06
-9.19703e-11
-1.18941e-06
-1.18107e-10
-1.18942e-06
-1.64577e-10
-1.18943e-06
-1.98321e-10
-1.18945e-06
-2.39843e-10
-1.18946e-06
-2.74076e-10
-1.18948e-06
-3.5539e-10
-1.1895e-06
-3.26965e-10
-1.18951e-06
-3.94426e-10
-1.18953e-06
-3.93636e-10
-1.18955e-06
-3.89255e-10
-1.18957e-06
-3.91744e-10
-1.1896e-06
-3.80861e-10
-1.18963e-06
-3.65721e-10
-1.18966e-06
-4.00019e-10
-1.18968e-06
-1.71719e-06
2.35687e-11
-1.71729e-06
4.85698e-12
-1.18975e-06
-4.36688e-11
-1.18975e-06
-7.29561e-11
-1.18975e-06
-1.33256e-10
-1.18976e-06
-1.63189e-10
-1.18977e-06
-2.33854e-10
-1.18978e-06
-2.50149e-10
-1.18979e-06
-3.33902e-10
-1.18981e-06
-3.42037e-10
-1.18983e-06
-3.81506e-10
-1.18985e-06
-4.39638e-10
-1.18989e-06
-4.64817e-10
-1.1899e-06
-4.68613e-10
-1.18993e-06
-5.2339e-10
-1.18996e-06
-5.05746e-10
-1.18998e-06
-4.80174e-10
-1.19e-06
-4.41701e-10
-1.19003e-06
-4.45501e-10
-1.19005e-06
-1.71773e-06
4.0887e-11
-1.71788e-06
3.07663e-12
-1.19016e-06
-5.16745e-11
-1.19017e-06
-9.73807e-11
-1.19017e-06
-1.64884e-10
-1.19018e-06
-2.11208e-10
-1.19019e-06
-2.79972e-10
-1.1902e-06
-3.32997e-10
-1.19022e-06
-3.91287e-10
-1.19023e-06
-4.40542e-10
-1.19026e-06
-5.31046e-10
-1.19027e-06
-5.09541e-10
-1.19028e-06
-5.84505e-10
-1.19031e-06
-5.8342e-10
-1.19033e-06
-5.89979e-10
-1.19034e-06
-6.03777e-10
-1.19038e-06
-5.81999e-10
-1.19041e-06
-5.18208e-10
-1.19043e-06
-4.88655e-10
-1.19045e-06
-1.71831e-06
2.54434e-11
-1.71849e-06
-8.1669e-12
-1.19058e-06
-7.46491e-11
-1.19058e-06
-1.24048e-10
-1.19058e-06
-2.07276e-10
-1.19059e-06
-2.58016e-10
-1.1906e-06
-3.51191e-10
-1.19061e-06
-3.8607e-10
-1.19062e-06
-4.87341e-10
-1.19064e-06
-5.09628e-10
-1.19066e-06
-5.58773e-10
-1.19068e-06
-6.2218e-10
-1.19072e-06
-6.52461e-10
-1.19073e-06
-6.59509e-10
-1.19076e-06
-7.2099e-10
-1.19079e-06
-7.18074e-10
-1.19081e-06
-6.82151e-10
-1.19083e-06
-5.92378e-10
-1.19086e-06
-5.27747e-10
-1.19087e-06
-1.71892e-06
3.93401e-11
-1.71915e-06
-1.03935e-11
-1.19105e-06
-8.44406e-11
-1.19105e-06
-1.49084e-10
-1.19106e-06
-2.39652e-10
-1.19106e-06
-3.06678e-10
-1.19107e-06
-3.96886e-10
-1.19109e-06
-4.70213e-10
-1.1911e-06
-5.43114e-10
-1.19112e-06
-6.08398e-10
-1.19114e-06
-7.03311e-10
-1.19116e-06
-6.9126e-10
-1.19116e-06
-7.70594e-10
-1.19119e-06
-7.69087e-10
-1.1912e-06
-7.88017e-10
-1.19122e-06
-8.14023e-10
-1.19125e-06
-7.80783e-10
-1.19128e-06
-6.64276e-10
-1.1913e-06
-5.62747e-10
-1.19132e-06
-1.71956e-06
2.6364e-11
-1.71983e-06
-2.27156e-11
-1.19151e-06
-1.06085e-10
-1.19151e-06
-1.75865e-10
-1.19151e-06
-2.80903e-10
-1.19152e-06
-3.52661e-10
-1.19153e-06
-4.6696e-10
-1.19154e-06
-5.20247e-10
-1.19155e-06
-6.37274e-10
-1.19157e-06
-6.73234e-10
-1.19158e-06
-7.31399e-10
-1.19161e-06
-7.97406e-10
-1.19164e-06
-8.3111e-10
-1.19165e-06
-8.42209e-10
-1.19168e-06
-9.07298e-10
-1.19171e-06
-9.21423e-10
-1.19172e-06
-8.75282e-10
-1.19174e-06
-7.31488e-10
-1.19177e-06
-5.92006e-10
-1.19178e-06
-1.72022e-06
3.49668e-11
-1.72055e-06
-2.52821e-11
-1.19202e-06
-1.1737e-10
-1.19202e-06
-2.00129e-10
-1.19202e-06
-3.1186e-10
-1.19203e-06
-3.99179e-10
-1.19204e-06
-5.08198e-10
-1.19205e-06
-6.0202e-10
-1.19207e-06
-6.85828e-10
-1.19208e-06
-7.67585e-10
-1.1921e-06
-8.60815e-10
-1.19211e-06
-8.60856e-10
-1.19212e-06
-9.40232e-10
-1.19214e-06
-9.38433e-10
-1.19215e-06
-9.70251e-10
-1.19217e-06
-1.00868e-09
-1.19219e-06
-9.63876e-10
-1.19222e-06
-7.93313e-10
-1.19224e-06
-6.15124e-10
-1.19225e-06
-1.7209e-06
2.61843e-11
-1.72126e-06
-3.83041e-11
-1.1925e-06
-1.35868e-10
-1.1925e-06
-2.25471e-10
-1.19251e-06
-3.49199e-10
-1.19251e-06
-4.41386e-10
-1.19252e-06
-5.73355e-10
-1.19253e-06
-6.44193e-10
-1.19254e-06
-7.73385e-10
-1.19256e-06
-8.22089e-10
-1.19256e-06
-8.8742e-10
-1.19259e-06
-9.53197e-10
-1.19261e-06
-9.87631e-10
-1.19263e-06
-1.00385e-09
-1.19265e-06
-1.0684e-09
-1.19267e-06
-1.10137e-09
-1.19268e-06
-1.04566e-09
-1.1927e-06
-8.47931e-10
-1.19272e-06
-6.3064e-10
-1.19273e-06
-1.72158e-06
2.76476e-11
-1.722e-06
-4.11227e-11
-1.19302e-06
-1.48278e-10
-1.19302e-06
-2.47515e-10
-1.19302e-06
-3.76397e-10
-1.19303e-06
-4.82777e-10
-1.19304e-06
-6.05802e-10
-1.19305e-06
-7.19548e-10
-1.19306e-06
-8.08679e-10
-1.19307e-06
-9.0686e-10
-1.19309e-06
-9.90838e-10
-1.1931e-06
-1.00578e-09
-1.1931e-06
-1.07959e-09
-1.19312e-06
-1.07819e-09
-1.19313e-06
-1.12241e-09
-1.19314e-06
-1.17307e-09
-1.19316e-06
-1.11716e-09
-1.19318e-06
-8.94022e-10
-1.19319e-06
-6.38025e-10
-1.1932e-06
-1.72226e-06
2.47271e-11
-1.7227e-06
-5.43869e-11
-1.1935e-06
-1.61847e-10
-1.1935e-06
-2.6981e-10
-1.19351e-06
-4.06992e-10
-1.19351e-06
-5.18173e-10
-1.19352e-06
-6.62089e-10
-1.19353e-06
-7.48973e-10
-1.19353e-06
-8.84666e-10
-1.19355e-06
-9.44847e-10
-1.19355e-06
-1.01404e-09
-1.19357e-06
-1.07689e-09
-1.19358e-06
-1.10833e-09
-1.19359e-06
-1.13114e-09
-1.19361e-06
-1.19014e-09
-1.19362e-06
-1.24335e-09
-1.19363e-06
-1.17921e-09
-1.19364e-06
-9.30605e-10
-1.19366e-06
-6.36339e-10
-1.19366e-06
-1.72293e-06
1.7397e-11
-1.72342e-06
-5.7302e-11
-1.194e-06
-1.74897e-10
-1.194e-06
-2.88103e-10
-1.194e-06
-4.28055e-10
-1.19401e-06
-5.514e-10
-1.19401e-06
-6.81504e-10
-1.19402e-06
-8.13807e-10
-1.19403e-06
-9.00904e-10
-1.19403e-06
-1.01497e-09
-1.19405e-06
-1.08093e-09
-1.19405e-06
-1.11371e-09
-1.19406e-06
-1.17531e-09
-1.19407e-06
-1.17566e-09
-1.19407e-06
-1.23076e-09
-1.19408e-06
-1.29309e-09
-1.19408e-06
-1.22706e-09
-1.19409e-06
-9.55951e-10
-1.1941e-06
-6.25277e-10
-1.19411e-06
-1.72357e-06
2.20563e-11
-1.72406e-06
-7.02285e-11
-1.19445e-06
-1.81819e-10
-1.19445e-06
-3.05813e-10
-1.19445e-06
-4.49282e-10
-1.19446e-06
-5.7719e-10
-1.19446e-06
-7.25306e-10
-1.19447e-06
-8.26091e-10
-1.19447e-06
-9.60875e-10
-1.19448e-06
-1.03092e-09
-1.19448e-06
-1.09955e-09
-1.19449e-06
-1.15702e-09
-1.1945e-06
-1.1811e-09
-1.1945e-06
-1.21219e-09
-1.19451e-06
-1.26007e-09
-1.19451e-06
-1.33404e-09
-1.19452e-06
-1.26302e-09
-1.19452e-06
-9.70067e-10
-1.19453e-06
-6.04708e-10
-1.19453e-06
-1.72417e-06
4.6381e-12
-1.72471e-06
-7.31499e-11
-1.19489e-06
-1.95259e-10
-1.19489e-06
-3.19155e-10
-1.19489e-06
-4.62439e-10
-1.19489e-06
-5.9971e-10
-1.1949e-06
-7.28362e-10
-1.1949e-06
-8.76839e-10
-1.19491e-06
-9.5345e-10
-1.19491e-06
-1.08212e-09
-1.19492e-06
-1.121e-09
-1.19491e-06
-1.17422e-09
-1.19492e-06
-1.2166e-09
-1.19492e-06
-1.2205e-09
-1.19491e-06
-1.28387e-09
-1.19492e-06
-1.35637e-09
-1.19491e-06
-1.28172e-09
-1.19492e-06
-9.71031e-10
-1.19492e-06
-5.74803e-10
-1.19491e-06
-1.72473e-06
1.82326e-11
-1.72526e-06
-8.50826e-11
-1.19528e-06
-1.94419e-10
-1.19528e-06
-3.30972e-10
-1.19529e-06
-4.72415e-10
-1.19529e-06
-6.13541e-10
-1.19529e-06
-7.569e-10
-1.19529e-06
-8.68382e-10
-1.19529e-06
-9.93987e-10
-1.19529e-06
-1.07157e-09
-1.19529e-06
-1.13483e-09
-1.19529e-06
-1.18463e-09
-1.19529e-06
-1.19709e-09
-1.19528e-06
-1.23775e-09
-1.19528e-06
-1.26883e-09
-1.19528e-06
-1.36232e-09
-1.19528e-06
-1.28626e-09
-1.19527e-06
-9.5978e-10
-1.19527e-06
-5.36286e-10
-1.19526e-06
-1.72523e-06
-1.00063e-11
-1.72579e-06
-8.77859e-11
-1.19564e-06
-2.07863e-10
-1.19564e-06
-3.38115e-10
-1.19564e-06
-4.76117e-10
-1.19564e-06
-6.2294e-10
-1.19564e-06
-7.40935e-10
-1.19564e-06
-9.01734e-10
-1.19564e-06
-9.59452e-10
-1.19563e-06
-1.10024e-09
-1.19564e-06
-1.10414e-09
-1.19563e-06
-1.17944e-09
-1.19563e-06
-1.19624e-09
-1.19563e-06
-1.20543e-09
-1.19561e-06
-1.2734e-09
-1.19561e-06
-1.35296e-09
-1.1956e-06
-1.27164e-09
-1.19559e-06
-9.34462e-10
-1.19558e-06
-4.89904e-10
-1.19557e-06
-1.72567e-06
1.35799e-11
-1.72622e-06
-9.78399e-11
-1.19595e-06
-1.98298e-10
-1.19595e-06
-3.4269e-10
-1.19595e-06
-4.73226e-10
-1.19595e-06
-6.22678e-10
-1.19595e-06
-7.51921e-10
-1.19595e-06
-8.69678e-10
-1.19594e-06
-9.78002e-10
-1.19595e-06
-1.0599e-09
-1.19593e-06
-1.11356e-09
-1.19593e-06
-1.1536e-09
-1.19591e-06
-1.15104e-09
-1.1959e-06
-1.2017e-09
-1.19589e-06
-1.21079e-09
-1.19587e-06
-1.31987e-09
-1.19587e-06
-1.24089e-09
-1.19586e-06
-8.96751e-10
-1.19585e-06
-4.37059e-10
-1.19583e-06
-1.72605e-06
-2.5361e-11
-1.72662e-06
-1.00052e-10
-1.19621e-06
-2.11261e-10
-1.19621e-06
-3.42607e-10
-1.19621e-06
-4.66391e-10
-1.1962e-06
-6.17034e-10
-1.1962e-06
-7.15313e-10
-1.1962e-06
-8.82948e-10
-1.19619e-06
-9.14499e-10
-1.19618e-06
-1.06348e-09
-1.19618e-06
-1.02712e-09
-1.19616e-06
-1.1245e-09
-1.19616e-06
-1.11107e-09
-1.19615e-06
-1.12688e-09