/*--------------------------------*- C++ -*----------------------------------*\
  =========                 |
  \\      /  F ield         | OpenFOAM: The Open Source CFD Toolbox
   \\    /   O peration     | Website:  https://openfoam.org
    \\  /    A nd           | Version:  6
     \\/     M anipulation  |
\*---------------------------------------------------------------------------*/
FoamFile
{
    version     2.0;
    format      ascii;
    class       volVectorField;
    location    "1";
    object      U;
}
// * * * * * * * * * * * * * * * * * * * * * * * * * * * * * * * * * * * * * //

dimensions      [0 1 -1 0 0 0 0];

internalField   nonuniform List<vector> 
10000
(
(-0.0235916 -7.33396 0)
(-0.0265023 -4.8498 0)
(-0.0172938 -4.8639 0)
(-0.0101067 -4.87255 0)
(-0.00608507 -4.878 0)
(-0.00374028 -4.8815 0)
(-0.00231847 -4.88376 0)
(-0.00138526 -4.88519 0)
(-0.000742442 -4.88604 0)
(-0.000227089 -4.88642 0)
(0.000235076 -4.8864 0)
(0.000744347 -4.88599 0)
(0.00140916 -4.8851 0)
(0.00232469 -4.88364 0)
(0.00376221 -4.88133 0)
(0.00611597 -4.87781 0)
(0.0101381 -4.8723 0)
(0.0172795 -4.86361 0)
(0.0264297 -4.84954 0)
(0.0235203 -7.33368 0)
(-0.02943 -6.69974 0)
(-0.0358883 -4.63693 0)
(-0.0253779 -4.63515 0)
(-0.0162965 -4.6351 0)
(-0.0106404 -4.63567 0)
(-0.00700156 -4.63637 0)
(-0.00455688 -4.637 0)
(-0.00284793 -4.63749 0)
(-0.00153985 -4.63781 0)
(-0.000457781 -4.63796 0)
(0.000569771 -4.63793 0)
(0.00167017 -4.63774 0)
(0.00295435 -4.63738 0)
(0.00469912 -4.63685 0)
(0.00711645 -4.63617 0)
(0.0107571 -4.63541 0)
(0.0164223 -4.63478 0)
(0.0254092 -4.63478 0)
(0.035772 -4.63653 0)
(0.0292819 -6.69916 0)
(-0.00660681 -6.91246 0)
(-0.0108726 -4.77959 0)
(-0.0118955 -4.77315 0)
(-0.0101347 -4.7696 0)
(-0.00801979 -4.76769 0)
(-0.00603635 -4.7667 0)
(-0.00433139 -4.76619 0)
(-0.00285938 -4.76595 0)
(-0.00160096 -4.76583 0)
(-0.000454485 -4.76577 0)
(0.000643265 -4.76574 0)
(0.0017757 -4.76575 0)
(0.00306672 -4.76581 0)
(0.00451386 -4.76601 0)
(0.00625059 -4.76647 0)
(0.00827837 -4.76742 0)
(0.0103968 -4.76928 0)
(0.012062 -4.77276 0)
(0.010869 -4.77915 0)
(0.00653717 -6.91176 0)
(-0.00222967 -6.89768 0)
(-0.0041585 -4.77681 0)
(-0.00540832 -4.77426 0)
(-0.0053931 -4.77216 0)
(-0.00482604 -4.77059 0)
(-0.00399533 -4.76949 0)
(-0.00305647 -4.76875 0)
(-0.00211981 -4.76826 0)
(-0.00118587 -4.76797 0)
(-0.000282241 -4.76782 0)
(0.000617321 -4.76779 0)
(0.0015224 -4.76788 0)
(0.00242594 -4.76812 0)
(0.00338064 -4.76856 0)
(0.00430497 -4.76925 0)
(0.00514637 -4.77031 0)
(0.00572609 -4.77184 0)
(0.00566372 -4.77391 0)
(0.00424012 -4.77641 0)
(0.00220673 -6.89704 0)
(-0.000927919 -6.89225 0)
(-0.00183862 -4.7744 0)
(-0.0025866 -4.77339 0)
(-0.00279217 -4.77235 0)
(-0.0026871 -4.77142 0)
(-0.00235113 -4.77066 0)
(-0.0018821 -4.77007 0)
(-0.00130776 -4.76964 0)
(-0.000712957 -4.76936 0)
(-9.35009e-05 -4.76921 0)
(0.00051584 -4.76918 0)
(0.00111016 -4.76927 0)
(0.00171896 -4.7695 0)
(0.00225006 -4.76988 0)
(0.00274249 -4.77043 0)
(0.0031068 -4.77115 0)
(0.00321056 -4.77204 0)
(0.00292335 -4.77305 0)
(0.00201836 -4.77403 0)
(0.000992206 -6.89166 0)
(-0.000470937 -6.88964 0)
(-0.000915375 -4.77296 0)
(-0.0013053 -4.77252 0)
(-0.00145623 -4.772 0)
(-0.00143878 -4.77149 0)
(-0.00128585 -4.77103 0)
(-0.00102073 -4.77064 0)
(-0.000699162 -4.77034 0)
(-0.000318363 -4.77013 0)
(7.81805e-05 -4.77001 0)
(0.000478732 -4.76998 0)
(0.000871706 -4.77005 0)
(0.0012103 -4.77021 0)
(0.00153208 -4.77046 0)
(0.00177235 -4.7708 0)
(0.00191727 -4.77122 0)
(0.00192932 -4.7717 0)
(0.0016876 -4.77218 0)
(0.00112225 -4.7726 0)
(0.000538811 -6.88909 0)
(-0.000226785 -6.88813 0)
(-0.000460162 -4.77205 0)
(-0.00066711 -4.77183 0)
(-0.000742534 -4.77157 0)
(-0.00073673 -4.77129 0)
(-0.000645124 -4.77102 0)
(-0.000498582 -4.77078 0)
(-0.000280817 -4.77059 0)
(-5.36627e-05 -4.77045 0)
(0.000197492 -4.77036 0)
(0.000437936 -4.77034 0)
(0.000660438 -4.77037 0)
(0.000891127 -4.77047 0)
(0.00105698 -4.77062 0)
(0.00121286 -4.77081 0)
(0.0013153 -4.77104 0)
(0.00130025 -4.77128 0)
(0.00111463 -4.77151 0)
(0.000726064 -4.7717 0)
(0.000344719 -6.88761 0)
(-0.000147147 -6.88707 0)
(-0.000260861 -4.77137 0)
(-0.000349294 -4.77126 0)
(-0.000372362 -4.77112 0)
(-0.000343479 -4.77097 0)
(-0.000271811 -4.77081 0)
(-0.000155506 -4.77067 0)
(-2.71045e-05 -4.77055 0)
(0.000133381 -4.77046 0)
(0.000295251 -4.7704 0)
(0.00045321 -4.77038 0)
(0.000610259 -4.77039 0)
(0.000725145 -4.77044 0)
(0.000845525 -4.77052 0)
(0.000930133 -4.77062 0)
(0.000983352 -4.77073 0)
(0.000987066 -4.77085 0)
(0.000842627 -4.77096 0)
(0.000546549 -4.77105 0)
(0.000260368 -6.88658 0)
(-6.81719e-05 -6.88619 0)
(-0.000130401 -4.77078 0)
(-0.000168961 -4.77072 0)
(-0.000156605 -4.77065 0)
(-0.000120892 -4.77056 0)
(-5.28654e-05 -4.77047 0)
(2.62862e-05 -4.77039 0)
(0.000142679 -4.77031 0)
(0.000245576 -4.77025 0)
(0.000358454 -4.77021 0)
(0.00045782 -4.77019 0)
(0.000540111 -4.77019 0)
(0.000641262 -4.77021 0)
(0.000702128 -4.77025 0)
(0.00078108 -4.77029 0)
(0.000849096 -4.77034 0)
(0.000847826 -4.7704 0)
(0.000725037 -4.77045 0)
(0.000475184 -4.77048 0)
(0.0002314 -6.88573 0)
(-6.37926e-05 -6.88534 0)
(-8.55772e-05 -4.77021 0)
(-7.8952e-05 -4.77018 0)
(-4.59863e-05 -4.77013 0)
(8.8196e-06 -4.77008 0)
(7.71937e-05 -4.77003 0)
(0.000163824 -4.76998 0)
(0.000240896 -4.76993 0)
(0.00033432 -4.76989 0)
(0.000418868 -4.76986 0)
(0.000493892 -4.76984 0)
(0.000572654 -4.76983 0)
(0.000618687 -4.76983 0)
(0.000680974 -4.76984 0)
(0.000730525 -4.76986 0)
(0.000771442 -4.76988 0)
(0.000784017 -4.7699 0)
(0.000675839 -4.76991 0)
(0.000453829 -4.76992 0)
(0.000228724 -6.8849 0)
(-2.55981e-05 -6.88445 0)
(-3.62528e-05 -4.7696 0)
(-1.79345e-05 -4.76958 0)
(3.03046e-05 -4.76955 0)
(8.6397e-05 -4.76952 0)
(0.000158074 -4.76949 0)
(0.000226058 -4.76946 0)
(0.000317826 -4.76942 0)
(0.000386751 -4.7694 0)
(0.000459046 -4.76937 0)
(0.000517571 -4.76935 0)
(0.00055753 -4.76934 0)
(0.000619658 -4.76933 0)
(0.000651612 -4.76933 0)
(0.000708958 -4.76933 0)
(0.000767807 -4.76933 0)
(0.000770626 -4.76933 0)
(0.000668478 -4.76933 0)
(0.000461125 -4.76933 0)
(0.000241123 -6.88404 0)
(-3.97761e-05 -6.88349 0)
(-3.17542e-05 -4.76894 0)
(9.64019e-06 -4.76893 0)
(6.64838e-05 -4.76891 0)
(0.000136499 -4.76889 0)
(0.000211019 -4.76887 0)
(0.000295337 -4.76885 0)
(0.000362312 -4.76882 0)
(0.000440282 -4.7688 0)
(0.000505216 -4.76878 0)
(0.000557642 -4.76876 0)
(0.000615905 -4.76874 0)
(0.00064383 -4.76873 0)
(0.000688621 -4.76872 0)
(0.000727736 -4.76871 0)
(0.000762372 -4.7687 0)
(0.000771779 -4.7687 0)
(0.000674546 -4.76869 0)
(0.000479204 -4.76868 0)
(0.000259341 -6.88309 0)
(-1.38676e-05 -6.88243 0)
(-6.06967e-06 -4.76821 0)
(3.61001e-05 -4.7682 0)
(0.000101267 -4.76819 0)
(0.000169869 -4.76818 0)
(0.000248319 -4.76816 0)
(0.000318761 -4.76814 0)
(0.000408013 -4.76813 0)
(0.000471947 -4.76811 0)
(0.000536734 -4.76809 0)
(0.000588871 -4.76807 0)
(0.000619874 -4.76805 0)
(0.000671709 -4.76804 0)
(0.000695921 -4.76802 0)
(0.000743268 -4.76801 0)
(0.000793414 -4.768 0)
(0.000790627 -4.76799 0)
(0.000694557 -4.76798 0)
(0.000505623 -4.76797 0)
(0.00028166 -6.88206 0)
(-3.24113e-05 -6.88128 0)
(-1.24186e-05 -4.76741 0)
(4.56362e-05 -4.76741 0)
(0.000115333 -4.7674 0)
(0.000195521 -4.76739 0)
(0.000277007 -4.76738 0)
(0.000365908 -4.76737 0)
(0.000434543 -4.76735 0)
(0.00051313 -4.76733 0)
(0.000577008 -4.76732 0)
(0.000627008 -4.7673 0)
(0.000683419 -4.76728 0)
(0.000708615 -4.76726 0)
(0.000747457 -4.76725 0)
(0.000780746 -4.76723 0)
(0.00080795 -4.76721 0)
(0.000808295 -4.7672 0)
(0.000713849 -4.76719 0)
(0.000532063 -4.76718 0)
(0.000303576 -6.88092 0)
(-1.06681e-05 -6.88004 0)
(5.88395e-06 -4.76655 0)
(6.1546e-05 -4.76655 0)
(0.000137165 -4.76654 0)
(0.000215002 -4.76653 0)
(0.000300225 -4.76652 0)
(0.000376499 -4.76651 0)
(0.000469395 -4.7665 0)
(0.00053699 -4.76648 0)
(0.00060437 -4.76647 0)
(0.000660599 -4.76645 0)
(0.000692811 -4.76643 0)
(0.000742953 -4.76642 0)
(0.000765054 -4.7664 0)
(0.000805065 -4.76638 0)
(0.00084615 -4.76636 0)
(0.000834574 -4.76635 0)
(0.000739659 -4.76634 0)
(0.000560327 -4.76633 0)
(0.000325415 -6.8797 0)
(-2.95622e-05 -6.87871 0)
(-2.92081e-06 -4.76563 0)
(6.58069e-05 -4.76563 0)
(0.000144446 -4.76562 0)
(0.000232724 -4.76561 0)
(0.000320866 -4.76561 0)
(0.000415898 -4.7656 0)
(0.000489324 -4.76558 0)
(0.000572988 -4.76557 0)
(0.000641069 -4.76555 0)
(0.000694613 -4.76554 0)
(0.000754191 -4.76552 0)
(0.000780795 -4.7655 0)
(0.000816739 -4.76549 0)
(0.000845094 -4.76547 0)
(0.000865171 -4.76545 0)
(0.000855678 -4.76544 0)
(0.000760471 -4.76543 0)
(0.000584461 -4.76542 0)
(0.000343846 -6.87838 0)
(-9.49445e-06 -6.87731 0)
(1.29292e-05 -4.76466 0)
(7.81549e-05 -4.76466 0)
(0.00016169 -4.76465 0)
(0.000247259 -4.76464 0)
(0.000338862 -4.76464 0)
(0.000421514 -4.76463 0)
(0.000519497 -4.76462 0)
(0.000592775 -4.7646 0)
(0.000665164 -4.76459 0)
(0.000727727 -4.76457 0)
(0.00076321 -4.76456 0)
(0.000813639 -4.76454 0)
(0.000834829 -4.76452 0)
(0.000868677 -4.76451 0)
(0.000902279 -4.76449 0)
(0.000882887 -4.76448 0)
(0.000785877 -4.76447 0)
(0.000607709 -4.76446 0)
(0.000360024 -6.877 0)
(-2.74492e-05 -6.87585 0)
(4.14974e-06 -4.76365 0)
(8.08576e-05 -4.76365 0)
(0.000166676 -4.76364 0)
(0.000261895 -4.76364 0)
(0.000356256 -4.76363 0)
(0.000457368 -4.76362 0)
(0.00053617 -4.76361 0)
(0.000625497 -4.7636 0)
(0.000698581 -4.76359 0)
(0.000756444 -4.76357 0)
(0.000819427 -4.76356 0)
(0.000848087 -4.76354 0)
(0.000881599 -4.76353 0)
(0.000905901 -4.76351 0)
(0.00092123 -4.7635 0)
(0.000903922 -4.76349 0)
(0.000804589 -4.76347 0)
(0.000624963 -4.76346 0)
(0.000371298 -6.87557 0)
(-8.43708e-06 -6.87436 0)
(1.89288e-05 -4.76262 0)
(9.15909e-05 -4.76262 0)
(0.000181654 -4.76261 0)
(0.000273978 -4.76261 0)
(0.000371513 -4.7626 0)
(0.000460195 -4.76259 0)
(0.000563248 -4.76258 0)
(0.00064197 -4.76257 0)
(0.00071916 -4.76256 0)
(0.000787485 -4.76255 0)
(0.000825404 -4.76253 0)
(0.000875811 -4.76252 0)
(0.000896164 -4.7625 0)
(0.000925003 -4.76249 0)
(0.000954093 -4.76248 0)
(0.000929971 -4.76247 0)
(0.00082745 -4.76245 0)
(0.000640433 -4.76245 0)
(0.000379584 -6.87411 0)
(-2.48256e-05 -6.87285 0)
(1.09994e-05 -4.76157 0)
(9.38464e-05 -4.76157 0)
(0.000185631 -4.76157 0)
(0.0002868 -4.76156 0)
(0.000386833 -4.76156 0)
(0.000493348 -4.76155 0)
(0.000577273 -4.76154 0)
(0.000671441 -4.76153 0)
(0.000748776 -4.76152 0)
(0.000809651 -4.76151 0)
(0.000874629 -4.76149 0)
(0.000904957 -4.76148 0)
(0.000935671 -4.76147 0)
(0.000957294 -4.76146 0)
(0.000971291 -4.76145 0)
(0.00094926 -4.76144 0)
(0.000842457 -4.76143 0)
(0.000649301 -4.76142 0)
(0.000382701 -6.87263 0)
(-7.03566e-06 -6.87135 0)
(2.48119e-05 -4.76053 0)
(0.000103296 -4.76053 0)
(0.000198707 -4.76052 0)
(0.000296819 -4.76052 0)
(0.000399644 -4.76051 0)
(0.000493584 -4.76051 0)
(0.000601082 -4.7605 0)
(0.000684174 -4.76049 0)
(0.000765024 -4.76048 0)
(0.000837686 -4.76047 0)
(0.000876269 -4.76046 0)
(0.000925494 -4.76045 0)
(0.000944887 -4.76044 0)
(0.000969771 -4.76043 0)
(0.000997447 -4.76042 0)
(0.000972222 -4.76041 0)
(0.000861319 -4.7604 0)
(0.000656442 -4.76039 0)
(0.00038311 -6.87115 0)
(-2.13534e-05 -6.86986 0)
(1.81083e-05 -4.7595 0)
(0.000105422 -4.7595 0)
(0.000201926 -4.75949 0)
(0.000307871 -4.75949 0)
(0.000412741 -4.75948 0)
(0.000523573 -4.75948 0)
(0.000611909 -4.75947 0)
(0.000709524 -4.75946 0)
(0.000789793 -4.75945 0)
(0.000851547 -4.75945 0)
(0.000916702 -4.75944 0)
(0.000948035 -4.75943 0)
(0.000975254 -4.75942 0)
(0.000995677 -4.75941 0)
(0.00101154 -4.7594 0)
(0.000987708 -4.75939 0)
(0.000871116 -4.75939 0)
(0.000656939 -4.75938 0)
(0.000378773 -6.8697 0)
(-5.30443e-06 -6.8684 0)
(3.05318e-05 -4.75849 0)
(0.000113332 -4.75849 0)
(0.000212755 -4.75848 0)
(0.000315442 -4.75848 0)
(0.000422534 -4.75847 0)
(0.000520583 -4.75847 0)
(0.000631446 -4.75846 0)
(0.000717445 -4.75846 0)
(0.000800444 -4.75845 0)
(0.000875872 -4.75844 0)
(0.000913206 -4.75844 0)
(0.000959752 -4.75843 0)
(0.000978052 -4.75842 0)
(0.000999596 -4.75842 0)
(0.00102809 -4.75841 0)
(0.00100492 -4.7584 0)
(0.000884218 -4.7584 0)
(0.000655982 -4.7584 0)
(0.000372348 -6.86828 0)
(-1.70341e-05 -6.86698 0)
(2.53467e-05 -4.75751 0)
(0.000115388 -4.75751 0)
(0.000215081 -4.7575 0)
(0.000324252 -4.7575 0)
(0.000432639 -4.7575 0)
(0.000546262 -4.75749 0)
(0.000637822 -4.75749 0)
(0.00073714 -4.75748 0)
(0.000818741 -4.75748 0)
(0.000878936 -4.75747 0)
(0.000942501 -4.75747 0)
(0.000974098 -4.75746 0)
(0.000996964 -4.75746 0)
(0.00101737 -4.75745 0)
(0.00103732 -4.75745 0)
(0.00101386 -4.75745 0)
(0.000886831 -4.75744 0)
(0.000648293 -4.75744 0)
(0.000361653 -6.8669 0)
(-3.35862e-06 -6.86562 0)
(3.58064e-05 -4.75656 0)
(0.000121274 -4.75656 0)
(0.000222992 -4.75656 0)
(0.000328575 -4.75656 0)
(0.000438338 -4.75655 0)
(0.000538855 -4.75655 0)
(0.000651467 -4.75655 0)
(0.000738578 -4.75654 0)
(0.00082194 -4.75654 0)
(0.000898569 -4.75654 0)
(0.000932837 -4.75654 0)
(0.000975073 -4.75653 0)
(0.000992136 -4.75653 0)
(0.00101042 -4.75654 0)
(0.00104079 -4.75653 0)
(0.00102202 -4.75653 0)
(0.000891877 -4.75653 0)
(0.000639129 -4.75653 0)
(0.000349279 -6.86559 0)
(-1.19603e-05 -6.86433 0)
(3.24298e-05 -4.75567 0)
(0.000123182 -4.75566 0)
(0.000224055 -4.75566 0)
(0.000334352 -4.75566 0)
(0.000444304 -4.75566 0)
(0.000558641 -4.75566 0)
(0.000651647 -4.75566 0)
(0.000750556 -4.75566 0)
(0.00083158 -4.75565 0)
(0.000887621 -4.75565 0)
(0.000947931 -4.75565 0)
(0.000978975 -4.75566 0)
(0.000996544 -4.75566 0)
(0.00101769 -4.75566 0)
(0.00104288 -4.75566 0)
(0.00102122 -4.75567 0)
(0.000884813 -4.75567 0)
(0.000622774 -4.75567 0)
(0.000332773 -6.86435 0)
(-1.26613e-06 -6.86311 0)
(4.03295e-05 -4.75482 0)
(0.000126455 -4.75482 0)
(0.000228217 -4.75482 0)
(0.000334414 -4.75482 0)
(0.000444571 -4.75482 0)
(0.000545299 -4.75482 0)
(0.000657416 -4.75482 0)
(0.000743405 -4.75482 0)
(0.000824981 -4.75482 0)
(0.000901123 -4.75482 0)
(0.000930532 -4.75483 0)
(0.000966722 -4.75483 0)
(0.000982346 -4.75484 0)
(0.000997005 -4.75485 0)
(0.00102935 -4.75485 0)
(0.00101671 -4.75486 0)
(0.000879045 -4.75486 0)
(0.000604457 -4.75487 0)
(0.000314567 -6.8632 0)
(-6.18756e-06 -6.86198 0)
(3.90864e-05 -4.75404 0)
(0.000128111 -4.75404 0)
(0.00022758 -4.75404 0)
(0.000336252 -4.75404 0)
(0.000445092 -4.75404 0)
(0.000557397 -4.75404 0)
(0.000649367 -4.75404 0)
(0.000745245 -4.75405 0)
(0.00082333 -4.75405 0)
(0.000872372 -4.75406 0)
(0.000927709 -4.75406 0)
(0.000957225 -4.75407 0)
(0.000968493 -4.75408 0)
(0.000990801 -4.75409 0)
(0.00102159 -4.7541 0)
(0.00100274 -4.75411 0)
(0.000859407 -4.75412 0)
(0.00057808 -4.75413 0)
(0.000291965 -6.86214 0)
(1.01714e-06 -6.86095 0)
(4.39351e-05 -4.75332 0)
(0.000128209 -4.75332 0)
(0.000227148 -4.75332 0)
(0.000330949 -4.75332 0)
(0.000438463 -4.75333 0)
(0.000536398 -4.75333 0)
(0.00064505 -4.75334 0)
(0.000727086 -4.75334 0)
(0.000804211 -4.75335 0)
(0.000877847 -4.75336 0)
(0.000900463 -4.75337 0)
(0.00092876 -4.75338 0)
(0.000942641 -4.7534 0)
(0.000953079 -4.75342 0)
(0.000986886 -4.75343 0)
(0.000981815 -4.75344 0)
(0.000839778 -4.75346 0)
(0.000548924 -4.75347 0)
(0.000267315 -6.86118 0)
(2.72881e-07 -6.86003 0)
(4.51311e-05 -4.75269 0)
(0.000129461 -4.75269 0)
(0.000224304 -4.75269 0)
(0.000327868 -4.75269 0)
(0.000432163 -4.7527 0)
(0.000538944 -4.7527 0)
(0.000626634 -4.75271 0)
(0.000716238 -4.75272 0)
(0.000788467 -4.75273 0)
(0.000827337 -4.75275 0)
(0.000875779 -4.75276 0)
(0.000902582 -4.75278 0)
(0.000906515 -4.7528 0)
(0.000930172 -4.75282 0)
(0.000966412 -4.75284 0)
(0.000951244 -4.75286 0)
(0.000804538 -4.75287 0)
(0.000510678 -4.75289 0)
(0.00023783 -6.86035 0)
(3.55414e-06 -6.85924 0)
(4.64855e-05 -4.75214 0)
(0.000125844 -4.75214 0)
(0.000218474 -4.75214 0)
(0.000316141 -4.75215 0)
(0.00041723 -4.75215 0)
(0.0005086 -4.75216 0)
(0.000610093 -4.75217 0)
(0.000684693 -4.75219 0)
(0.000754136 -4.7522 0)
(0.000822817 -4.75222 0)
(0.000836474 -4.75224 0)
(0.000854934 -4.75226 0)
(0.000866629 -4.75229 0)
(0.000872119 -4.75232 0)
(0.000906513 -4.75234 0)
(0.000910239 -4.75236 0)
(0.00076795 -4.75239 0)
(0.000468794 -4.75241 0)
(0.000205914 -6.85966 0)
(7.36891e-06 -6.8586 0)
(5.03993e-05 -4.7517 0)
(0.000126614 -4.7517 0)
(0.000213037 -4.7517 0)
(0.00030733 -4.75171 0)
(0.000402918 -4.75172 0)
(0.000499949 -4.75173 0)
(0.000579353 -4.75174 0)
(0.000658805 -4.75176 0)
(0.000721681 -4.75178 0)
(0.000746882 -4.7518 0)
(0.000786251 -4.75182 0)
(0.000808903 -4.75185 0)
(0.000804444 -4.75188 0)
(0.000829409 -4.75191 0)
(0.000870426 -4.75194 0)
(0.000859731 -4.75197 0)
(0.000714166 -4.752 0)
(0.000416933 -4.75203 0)
(0.000168859 -6.85911 0)
(6.44889e-06 -6.85811 0)
(4.79666e-05 -4.75136 0)
(0.000118922 -4.75136 0)
(0.000201211 -4.75136 0)
(0.000288298 -4.75137 0)
(0.000378456 -4.75138 0)
(0.00045872 -4.75139 0)
(0.000548647 -4.75141 0)
(0.000611683 -4.75143 0)
(0.000669662 -4.75146 0)
(0.000730509 -4.75148 0)
(0.000732846 -4.75152 0)
(0.000739502 -4.75155 0)
(0.000748376 -4.75159 0)
(0.000748042 -4.75162 0)
(0.000781667 -4.75166 0)
(0.000795046 -4.75169 0)
(0.000657623 -4.75173 0)
(0.000360813 -4.75176 0)
(0.000129255 -6.85873 0)
(1.50077e-05 -6.8578 0)
(5.47455e-05 -4.75114 0)
(0.00011907 -4.75114 0)
(0.000192739 -4.75115 0)
(0.000272944 -4.75116 0)
(0.000354959 -4.75117 0)
(0.000437322 -4.75119 0)
(0.000503711 -4.75121 0)
(0.000568581 -4.75123 0)
(0.000618133 -4.75126 0)
(0.000626021 -4.75129 0)
(0.000653997 -4.75133 0)
(0.000670827 -4.75137 0)
(0.000656942 -4.75141 0)
(0.000682797 -4.75145 0)
(0.000727121 -4.75149 0)
(0.000721383 -4.75154 0)
(0.000582654 -4.75158 0)
(0.000294283 -4.75161 0)
(8.46164e-05 -6.85852 0)
(9.74264e-06 -6.85766 0)
(4.82701e-05 -4.75105 0)
(0.000106948 -4.75105 0)
(0.00017436 -4.75105 0)
(0.000245765 -4.75106 0)
(0.000319815 -4.75108 0)
(0.000383753 -4.7511 0)
(0.000457097 -4.75112 0)
(0.000503959 -4.75115 0)
(0.000546316 -4.75119 0)
(0.000596178 -4.75122 0)
(0.000584851 -4.75127 0)
(0.000577871 -4.75131 0)
(0.000583068 -4.75136 0)
(0.000575811 -4.75141 0)
(0.000606546 -4.75146 0)
(0.000629697 -4.75151 0)
(0.00050356 -4.75156 0)
(0.000223292 -4.7516 0)
(3.7732e-05 -6.8585 0)
(2.29202e-05 -6.85773 0)
(5.78467e-05 -4.75109 0)
(0.00010627 -4.7511 0)
(0.000162405 -4.7511 0)
(0.000223167 -4.75112 0)
(0.000286118 -4.75113 0)
(0.000348344 -4.75116 0)
(0.00039638 -4.75118 0)
(0.000441885 -4.75122 0)
(0.000473868 -4.75126 0)
(0.000460961 -4.7513 0)
(0.000475303 -4.75135 0)
(0.00048445 -4.7514 0)
(0.000460209 -4.75145 0)
(0.000485961 -4.75151 0)
(0.00053096 -4.75156 0)
(0.000530105 -4.75162 0)
(0.000405431 -4.75167 0)
(0.000142072 -4.75172 0)
(-1.36073e-05 -6.85868 0)
(1.34129e-05 -6.858 0)
(4.7248e-05 -4.75128 0)
(8.9528e-05 -4.75128 0)
(0.00013715 -4.75129 0)
(0.000187233 -4.7513 0)
(0.000239437 -4.75132 0)
(0.000281298 -4.75135 0)
(0.000332581 -4.75138 0)
(0.000358374 -4.75142 0)
(0.000380786 -4.75146 0)
(0.000416417 -4.75151 0)
(0.000389346 -4.75157 0)
(0.000367217 -4.75162 0)
(0.000367672 -4.75169 0)
(0.00035216 -4.75175 0)
(0.000376936 -4.75181 0)
(0.000408983 -4.75187 0)
(0.000302089 -4.75194 0)
(5.66492e-05 -4.75199 0)
(-6.65297e-05 -6.85907 0)
(3.07059e-05 -6.85848 0)
(5.92578e-05 -4.75162 0)
(8.76647e-05 -4.75162 0)
(0.000121174 -4.75163 0)
(0.000156777 -4.75164 0)
(0.000194723 -4.75167 0)
(0.000231011 -4.7517 0)
(0.000254949 -4.75173 0)
(0.000276223 -4.75178 0)
(0.000286374 -4.75182 0)
(0.000249706 -4.75188 0)
(0.000248506 -4.75194 0)
(0.000248031 -4.752 0)
(0.000212769 -4.75207 0)
(0.000236789 -4.75213 0)
(0.000278566 -4.75221 0)
(0.000281893 -4.75228 0)
(0.000180073 -4.75234 0)
(-3.81572e-05 -4.7524 0)
(-0.000122951 -6.85967 0)
(1.73116e-05 -6.85919 0)
(4.45937e-05 -4.7521 0)
(6.61726e-05 -4.75211 0)
(8.88972e-05 -4.75211 0)
(0.000111729 -4.75213 0)
(0.000136065 -4.75216 0)
(0.000149868 -4.75219 0)
(0.00017347 -4.75223 0)
(0.000173349 -4.75228 0)
(0.000171648 -4.75233 0)
(0.000189942 -4.75239 0)
(0.000145582 -4.75246 0)
(0.000107367 -4.75253 0)
(0.000101904 -4.7526 0)
(7.67518e-05 -4.75268 0)
(9.17172e-05 -4.75275 0)
(0.000130796 -4.75283 0)
(5.2433e-05 -4.75291 0)
(-0.000136391 -4.75297 0)
(-0.000180035 -6.86049 0)
(3.77654e-05 -6.86012 0)
(5.83573e-05 -4.75275 0)
(6.27168e-05 -4.75275 0)
(6.85065e-05 -4.75276 0)
(7.32495e-05 -4.75278 0)
(8.01861e-05 -4.75281 0)
(8.48236e-05 -4.75285 0)
(7.89037e-05 -4.75289 0)
(7.13863e-05 -4.75294 0)
(5.57682e-05 -4.753 0)
(-6.74833e-06 -4.75307 0)
(-2.48389e-05 -4.75314 0)
(-3.6779e-05 -4.75321 0)
(-8.32553e-05 -4.75329 0)
(-6.31131e-05 -4.75337 0)
(-2.94478e-05 -4.75345 0)
(-2.3109e-05 -4.75354 0)
(-9.2164e-05 -4.75362 0)
(-0.000242411 -4.75368 0)
(-0.000239367 -6.86152 0)
(2.1197e-05 -6.86127 0)
(4.00164e-05 -4.75355 0)
(3.67282e-05 -4.75355 0)
(2.96739e-05 -4.75356 0)
(1.95077e-05 -4.75358 0)
(1.01542e-05 -4.75361 0)
(-9.82305e-06 -4.75365 0)
(-1.92016e-05 -4.7537 0)
(-4.96355e-05 -4.75376 0)
(-7.91092e-05 -4.75382 0)
(-8.09017e-05 -4.75389 0)
(-0.000143381 -4.75397 0)
(-0.000197822 -4.75405 0)
(-0.000210343 -4.75413 0)
(-0.000246296 -4.75422 0)
(-0.000245292 -4.7543 0)
(-0.000201807 -4.7544 0)
(-0.000241733 -4.75448 0)
(-0.000350471 -4.75455 0)
(-0.000298233 -6.86278 0)
(4.34607e-05 -6.86266 0)
(5.45861e-05 -4.75451 0)
(3.13561e-05 -4.75451 0)
(4.82408e-06 -4.75453 0)
(-2.64169e-05 -4.75455 0)
(-5.59864e-05 -4.75458 0)
(-8.80742e-05 -4.75462 0)
(-0.000129097 -4.75467 0)
(-0.000169211 -4.75473 0)
(-0.000213838 -4.7548 0)
(-0.00030312 -4.75488 0)
(-0.000338727 -4.75496 0)
(-0.000363688 -4.75504 0)
(-0.000420911 -4.75513 0)
(-0.000407068 -4.75521 0)
(-0.00038681 -4.75531 0)
(-0.000378827 -4.7554 0)
(-0.000404983 -4.7555 0)
(-0.00046392 -4.75557 0)
(-0.000357844 -6.86424 0)
(2.48106e-05 -6.86426 0)
(3.32606e-05 -4.75562 0)
(1.4756e-06 -4.75562 0)
(-3.95038e-05 -4.75564 0)
(-8.76207e-05 -4.75566 0)
(-0.000135651 -4.7557 0)
(-0.000194266 -4.75574 0)
(-0.000241002 -4.75579 0)
(-0.000305214 -4.75586 0)
(-0.000365189 -4.75593 0)
(-0.000389225 -4.75601 0)
(-0.000469776 -4.75609 0)
(-0.000539612 -4.75618 0)
(-0.00056011 -4.75627 0)
(-0.000607478 -4.75636 0)
(-0.000624206 -4.75646 0)
(-0.000579342 -4.75656 0)
(-0.000571311 -4.75665 0)
(-0.000577392 -4.75673 0)
(-0.000415694 -6.86592 0)
(4.71583e-05 -6.86609 0)
(4.74218e-05 -4.75688 0)
(-6.06877e-06 -4.75689 0)
(-6.85176e-05 -4.7569 0)
(-0.000139669 -4.75693 0)
(-0.000210077 -4.75696 0)
(-0.000282684 -4.75701 0)
(-0.000362898 -4.75707 0)
(-0.000438164 -4.75713 0)
(-0.000513919 -4.7572 0)
(-0.000629466 -4.75729 0)
(-0.000682355 -4.75737 0)
(-0.000721391 -4.75746 0)
(-0.000788062 -4.75755 0)
(-0.000782891 -4.75765 0)
(-0.000780999 -4.75775 0)
(-0.000772605 -4.75785 0)
(-0.000746581 -4.75795 0)
(-0.000693149 -4.75803 0)
(-0.00047261 -6.86779 0)
(2.78457e-05 -6.86811 0)
(2.41487e-05 -4.75829 0)
(-3.88118e-05 -4.75829 0)
(-0.000116625 -4.75831 0)
(-0.000206212 -4.75833 0)
(-0.000296444 -4.75837 0)
(-0.000397043 -4.75842 0)
(-0.000484003 -4.75847 0)
(-0.000584051 -4.75854 0)
(-0.000675939 -4.75862 0)
(-0.000723543 -4.7587 0)
(-0.000821144 -4.75879 0)
(-0.000904455 -4.75888 0)
(-0.00093343 -4.75897 0)
(-0.000992003 -4.75907 0)
(-0.00102914 -4.75917 0)
(-0.00098592 -4.75928 0)
(-0.000921875 -4.75938 0)
(-0.000806358 -4.75945 0)
(-0.000526346 -6.86984 0)
(4.83067e-05 -6.87033 0)
(3.6544e-05 -4.75983 0)
(-4.85979e-05 -4.75983 0)
(-0.000149055 -4.75985 0)
(-0.000262265 -4.75987 0)
(-0.000376093 -4.75991 0)
(-0.00049118 -4.75996 0)
(-0.000612968 -4.76002 0)
(-0.000724283 -4.76009 0)
(-0.000831828 -4.76016 0)
(-0.000971587 -4.76025 0)
(-0.00104059 -4.76033 0)
(-0.00109405 -4.76043 0)
(-0.00116792 -4.76052 0)
(-0.0011734 -4.76061 0)
(-0.00119376 -4.76071 0)
(-0.00118578 -4.76082 0)
(-0.00110021 -4.76092 0)
(-0.000918188 -4.761 0)
(-0.000577331 -6.87207 0)
(3.00606e-05 -6.87272 0)
(1.26593e-05 -4.76149 0)
(-8.2816e-05 -4.76149 0)
(-0.000198697 -4.76151 0)
(-0.000331324 -4.76153 0)
(-0.000465292 -4.76157 0)
(-0.000609207 -4.76162 0)
(-0.000737261 -4.76168 0)
(-0.000873411 -4.76175 0)
(-0.000996969 -4.76182 0)
(-0.0010684 -4.76191 0)
(-0.00118095 -4.76199 0)
(-0.00127464 -4.76208 0)
(-0.00131197 -4.76218 0)
(-0.0013805 -4.76227 0)
(-0.00143906 -4.76237 0)
(-0.00140023 -4.76247 0)
(-0.00127453 -4.76257 0)
(-0.00102436 -4.76265 0)
(-0.000623516 -6.87444 0)
(4.64791e-05 -6.87528 0)
(2.18077e-05 -4.76326 0)
(-9.48342e-05 -4.76326 0)
(-0.000233525 -4.76328 0)
(-0.000388737 -4.76331 0)
(-0.00054633 -4.76334 0)
(-0.000703564 -4.76339 0)
(-0.000867099 -4.76345 0)
(-0.00101333 -4.76351 0)
(-0.00115151 -4.76359 0)
(-0.00131171 -4.76367 0)
(-0.00139457 -4.76376 0)
(-0.00146185 -4.76385 0)
(-0.00153968 -4.76393 0)
(-0.0015571 -4.76403 0)
(-0.00160204 -4.76412 0)
(-0.00159481 -4.76422 0)
(-0.00144506 -4.76432 0)
(-0.0011249 -4.76439 0)
(-0.000664868 -6.87695 0)
(3.11482e-05 -6.87797 0)
(-1.13588e-06 -4.76512 0)
(-0.000128801 -4.76513 0)
(-0.000281951 -4.76514 0)
(-0.000456769 -4.76517 0)
(-0.000633565 -4.7652 0)
(-0.000819621 -4.76525 0)
(-0.000987207 -4.76531 0)
(-0.00115752 -4.76537 0)
(-0.00131051 -4.76544 0)
(-0.00140463 -4.76552 0)
(-0.0015288 -4.7656 0)
(-0.00162852 -4.76569 0)
(-0.00167332 -4.76577 0)
(-0.00174951 -4.76586 0)
(-0.00182872 -4.76595 0)
(-0.0017967 -4.76604 0)
(-0.00160677 -4.76614 0)
(-0.00121606 -4.7662 0)
(-0.000699436 -6.87956 0)
(4.13121e-05 -6.88076 0)
(3.33927e-06 -4.76705 0)
(-0.000142652 -4.76706 0)
(-0.000317499 -4.76708 0)
(-0.000511989 -4.7671 0)
(-0.000711039 -4.76713 0)
(-0.000907377 -4.76718 0)
(-0.00111022 -4.76723 0)
(-0.00128785 -4.76729 0)
(-0.00145341 -4.76736 0)
(-0.0016284 -4.76744 0)
(-0.00172167 -4.76751 0)
(-0.00180109 -4.76759 0)
(-0.00187867 -4.76767 0)
(-0.00190868 -4.76775 0)
(-0.00197893 -4.76783 0)
(-0.00197255 -4.76792 0)
(-0.00175719 -4.76801 0)
(-0.00129681 -4.76807 0)
(-0.000726749 -6.88225 0)
(3.09359e-05 -6.88362 0)
(-1.68714e-05 -4.76904 0)
(-0.000174172 -4.76904 0)
(-0.000361339 -4.76906 0)
(-0.000574671 -4.76908 0)
(-0.000790585 -4.76912 0)
(-0.00101474 -4.76916 0)
(-0.00121755 -4.76921 0)
(-0.00141758 -4.76927 0)
(-0.00159547 -4.76933 0)
(-0.00170951 -4.7694 0)
(-0.00184062 -4.76946 0)
(-0.00194083 -4.76953 0)
(-0.00199148 -4.7696 0)
(-0.00207225 -4.76967 0)
(-0.00216978 -4.76975 0)
(-0.00214703 -4.76983 0)
(-0.00189359 -4.76991 0)
(-0.00136413 -4.76996 0)
(-0.000745081 -6.88497 0)
(3.26648e-05 -6.88652 0)
(-1.84922e-05 -4.77104 0)
(-0.0001894 -4.77105 0)
(-0.000395792 -4.77106 0)
(-0.000623912 -4.77108 0)
(-0.000859174 -4.77111 0)
(-0.00108858 -4.77115 0)
(-0.00132535 -4.7712 0)
(-0.00152823 -4.77125 0)
(-0.00171554 -4.7713 0)
(-0.0018977 -4.77137 0)
(-0.00199662 -4.77143 0)
(-0.00208537 -4.77149 0)
(-0.00215778 -4.77155 0)
(-0.00220059 -4.77162 0)
(-0.00229548 -4.77168 0)
(-0.00229023 -4.77175 0)
(-0.00201118 -4.77181 0)
(-0.00141627 -4.77186 0)
(-0.000753806 -6.8877 0)
(2.92143e-05 -6.8894 0)
(-3.4147e-05 -4.77304 0)
(-0.000216234 -4.77305 0)
(-0.000431657 -4.77306 0)
(-0.000676802 -4.77308 0)
(-0.000925165 -4.77311 0)
(-0.00118026 -4.77314 0)
(-0.00141106 -4.77318 0)
(-0.00163364 -4.77323 0)
(-0.00182951 -4.77328 0)
(-0.00195889 -4.77333 0)
(-0.00209093 -4.77337 0)
(-0.00218522 -4.77343 0)
(-0.00223947 -4.77348 0)
(-0.00232129 -4.77352 0)
(-0.00243349 -4.77358 0)
(-0.00242256 -4.77364 0)
(-0.00210981 -4.77369 0)
(-0.00145147 -4.77372 0)
(-0.000751815 -6.89038 0)
(2.05539e-05 -6.89223 0)
(-4.3062e-05 -4.775 0)
(-0.000232199 -4.77501 0)
(-0.000462999 -4.77502 0)
(-0.000716157 -4.77504 0)
(-0.000979454 -4.77506 0)
(-0.0012329 -4.77509 0)
(-0.00149531 -4.77512 0)
(-0.00171471 -4.77516 0)
(-0.00191588 -4.77519 0)
(-0.0020959 -4.77524 0)
(-0.00219464 -4.77528 0)
(-0.00228902 -4.77532 0)
(-0.00235097 -4.77536 0)
(-0.00240642 -4.7754 0)
(-0.00252385 -4.77543 0)
(-0.00252015 -4.77548 0)
(-0.00218301 -4.77552 0)
(-0.00146776 -4.77554 0)
(-0.000738745 -6.89299 0)
(2.60588e-05 -6.89495 0)
(-5.21747e-05 -4.77689 0)
(-0.000252047 -4.7769 0)
(-0.000487632 -4.77691 0)
(-0.000755095 -4.77693 0)
(-0.00102647 -4.77694 0)
(-0.0013025 -4.77697 0)
(-0.0015514 -4.77699 0)
(-0.00178697 -4.77702 0)
(-0.0019918 -4.77705 0)
(-0.00213047 -4.77708 0)
(-0.00225656 -4.7771 0)
(-0.00233812 -4.77713 0)
(-0.00239329 -4.77715 0)
(-0.00247226 -4.77717 0)
(-0.00259411 -4.7772 0)
(-0.00259706 -4.77723 0)
(-0.00223308 -4.77726 0)
(-0.00146504 -4.77727 0)
(-0.000714444 -6.89548 0)
(5.47977e-06 -6.89754 0)
(-6.93535e-05 -4.77868 0)
(-0.000268408 -4.77868 0)
(-0.000514413 -4.77869 0)
(-0.000781594 -4.7787 0)
(-0.00106215 -4.77871 0)
(-0.00132807 -4.77873 0)
(-0.0016052 -4.77875 0)
(-0.00183029 -4.77877 0)
(-0.00203557 -4.77879 0)
(-0.00220311 -4.77881 0)
(-0.00229522 -4.77882 0)
(-0.00239082 -4.77884 0)
(-0.0024371 -4.77885 0)
(-0.00250437 -4.77886 0)
(-0.00264024 -4.77886 0)
(-0.00263809 -4.77888 0)
(-0.00225275 -4.77889 0)
(-0.00144153 -4.77888 0)
(-0.000679112 -6.8978 0)
(2.15413e-05 -6.89993 0)
(-7.01586e-05 -4.78034 0)
(-0.000279502 -4.78035 0)
(-0.000525392 -4.78035 0)
(-0.000803387 -4.78036 0)
(-0.00108596 -4.78037 0)
(-0.00137044 -4.78038 0)
(-0.00162528 -4.78039 0)
(-0.00186237 -4.7804 0)
(-0.00206555 -4.7804 0)
(-0.0022064 -4.78041 0)
(-0.00231946 -4.7804 0)
(-0.00238171 -4.78041 0)
(-0.00243484 -4.7804 0)
(-0.00250658 -4.78039 0)
(-0.00263115 -4.78038 0)
(-0.00264859 -4.78038 0)
(-0.00224604 -4.78038 0)
(-0.00139875 -4.78036 0)
(-0.000633604 -6.89992 0)
(-1.18221e-05 -6.9021 0)
(-9.59763e-05 -4.78184 0)
(-0.000295648 -4.78185 0)
(-0.000545978 -4.78185 0)
(-0.000814232 -4.78186 0)
(-0.00109906 -4.78186 0)
(-0.00136387 -4.78186 0)
(-0.00164267 -4.78186 0)
(-0.00186119 -4.78186 0)
(-0.00205969 -4.78185 0)
(-0.00220438 -4.78184 0)
(-0.00228358 -4.78183 0)
(-0.00237568 -4.78182 0)
(-0.00240167 -4.7818 0)
(-0.00247883 -4.78178 0)
(-0.00262636 -4.78175 0)
(-0.00262461 -4.78173 0)
(-0.00220611 -4.7817 0)
(-0.00133546 -4.78167 0)
(-0.000578806 -6.90181 0)
(1.60442e-05 -6.90403 0)
(-8.67243e-05 -4.78318 0)
(-0.000296138 -4.78319 0)
(-0.000540988 -4.78319 0)
(-0.000815916 -4.78319 0)
(-0.0010959 -4.78319 0)
(-0.0013746 -4.78318 0)
(-0.0016216 -4.78317 0)
(-0.00184768 -4.78316 0)
(-0.0020379 -4.78314 0)
(-0.00217346 -4.78312 0)
(-0.00226716 -4.78308 0)
(-0.00230464 -4.78305 0)
(-0.00235274 -4.78301 0)
(-0.00241248 -4.78297 0)
(-0.00253066 -4.78293 0)