# vtk DataFile Version 2.0
track0
ASCII
DATASET POLYDATA
POINTS 12090 float
-0.0205 0.001 1e-05
-0.0204956 0.0011 1e-05
-0.020491 0.00119999 1e-05
-0.0204862 0.00129998 1e-05
-0.0204812 0.00139995 1e-05
-0.0204761 0.0015 1e-05
-0.0204708 0.0016 1e-05
-0.0204653 0.00169999 1e-05
-0.0204596 0.00179997 1e-05
-0.0204537 0.00189993 1e-05
-0.0204475 0.002 1e-05
-0.0204412 0.0021 1e-05
-0.0204346 0.00219998 1e-05
-0.0204277 0.00229995 1e-05
-0.0204207 0.00239991 1e-05
-0.0204134 0.0025 1e-05
-0.0204059 0.0026 1e-05
-0.0203981 0.00269998 1e-05
-0.0203901 0.00279994 1e-05
-0.0203818 0.00289988 1e-05
-0.0203733 0.003 1e-05
-0.0203645 0.0031 1e-05
-0.0203555 0.00319998 1e-05
-0.0203462 0.00329993 1e-05
-0.0203366 0.00339986 1e-05
-0.0203268 0.0035 1e-05
-0.0203185 0.0035824 1e-05
-0.0203101 0.00366477 1e-05
-0.0203014 0.00374713 1e-05
-0.0202926 0.00382947 1e-05
-0.0202854 0.00389569 1e-05
-0.0202831 0.00391655 1e-05
-0.0202808 0.00393741 1e-05
-0.0202784 0.00395827 1e-05
-0.0202761 0.00397913 1e-05
-0.0202737 0.004 1e-05
-0.0202623 0.0041 1e-05
-0.0202507 0.00419997 1e-05
-0.0202388 0.00429991 1e-05
-0.0202267 0.00439982 1e-05
-0.0202142 0.0045 1e-05
-0.0202015 0.0046 1e-05
-0.0201885 0.00469997 1e-05
-0.0201753 0.0047999 1e-05
-0.0201618 0.00489979 1e-05
-0.020148 0.005 1e-05
-0.0201339 0.0051 1e-05
-0.0201196 0.00519996 1e-05
-0.020105 0.00529989 1e-05
-0.0200902 0.00539977 1e-05
-0.020075 0.0055 1e-05
-0.0200645 0.00556834 1e-05
-0.0200538 0.00563665 1e-05
-0.020043 0.00570495 1e-05
-0.0200321 0.00577323 1e-05
-0.0200223 0.00583369 1e-05
-0.0200169 0.00586695 1e-05
-0.0200114 0.00590021 1e-05
-0.0200059 0.00593346 1e-05
-0.0200004 0.00596671 1e-05
-0.0199948 0.006 1e-05
-0.019978 0.0061 1e-05
-0.0199609 0.00619995 1e-05
-0.0199436 0.00629986 1e-05
-0.019926 0.00639972 1e-05
-0.019908 0.0065 1e-05
-0.0198898 0.0066 1e-05
-0.0198713 0.00669995 1e-05
-0.0198525 0.00679985 1e-05
-0.0198335 0.00689969 1e-05
-0.0198141 0.007 1e-05
-0.0198035 0.00705364 1e-05
-0.0197929 0.00710727 1e-05
-0.0197822 0.00716088 1e-05
-0.0197714 0.00721447 1e-05
-0.0197614 0.00726409 1e-05
-0.0197517 0.00731127 1e-05
-0.019742 0.00735844 1e-05
-0.0197323 0.0074056 1e-05
-0.0197225 0.00745274 1e-05
-0.0197126 0.0075 1e-05
-0.0196915 0.0076 1e-05
-0.0196701 0.00769994 1e-05
-0.0196484 0.00779982 1e-05
-0.0196265 0.00789964 1e-05
-0.0196041 0.008 1e-05
-0.0195838 0.00808999 1e-05
-0.0195632 0.00817993 1e-05
-0.0195425 0.00826982 1e-05
-0.0195214 0.00835965 1e-05
-0.0195025 0.00843966 1e-05
-0.0194996 0.00845173 1e-05
-0.0194967 0.0084638 1e-05
-0.0194938 0.00847586 1e-05
-0.0194909 0.00848793 1e-05
-0.019488 0.0085 1e-05
-0.019464 0.0086 1e-05
-0.0194396 0.00869993 1e-05
-0.0194149 0.00879979 1e-05
-0.01939 0.00889958 1e-05
-0.0193645 0.009 1e-05
-0.0193408 0.00909272 1e-05
-0.0193168 0.00918537 1e-05
-0.0192925 0.00927796 1e-05
-0.019268 0.00937049 1e-05
-0.0192457 0.00945355 1e-05
-0.0192432 0.00946284 1e-05
-0.0192407 0.00947213 1e-05
-0.0192382 0.00948142 1e-05
-0.0192357 0.00949071 1e-05
-0.0192332 0.0095 1e-05
-0.019206 0.0096 1e-05
-0.0191785 0.00969992 1e-05
-0.0191507 0.00979976 1e-05
-0.0191226 0.00989951 1e-05
-0.019094 0.01 1e-05
-0.0190734 0.0100715 1e-05
-0.0190527 0.010143 1e-05
-0.0190318 0.0102144 1e-05
-0.0190107 0.0102857 1e-05
-0.018991 0.0103519 1e-05
-0.0189822 0.0103815 1e-05
-0.0189733 0.0104111 1e-05
-0.0189644 0.0104407 1e-05
-0.0189554 0.0104703 1e-05
-0.0189464 0.0105 1e-05
-0.018916 0.0106 1e-05
-0.0188852 0.0106999 1e-05
-0.0188542 0.0107997 1e-05
-0.0188228 0.0108994 1e-05
-0.0187909 0.011 1e-05
-0.0187804 0.0110327 1e-05
-0.0187699 0.0110654 1e-05
-0.0187593 0.0110981 1e-05
-0.0187487 0.0111307 1e-05
-0.0187384 0.0111624 1e-05
-0.0187163 0.0112299 1e-05
-0.0186941 0.0112974 1e-05
-0.0186718 0.0113648 1e-05
-0.0186493 0.0114322 1e-05
-0.0186266 0.0115 1e-05
-0.0185988 0.0115821 1e-05
-0.0185708 0.011664 1e-05
-0.0185427 0.011746 1e-05
-0.0185143 0.0118278 1e-05
-0.0184878 0.0119035 1e-05
-0.018481 0.0119228 1e-05
-0.0184742 0.0119421 1e-05
-0.0184673 0.0119614 1e-05
-0.0184605 0.0119807 1e-05
-0.0184537 0.012 1e-05
-0.0184181 0.0121 1e-05
-0.0183822 0.0121999 1e-05
-0.018346 0.0122997 1e-05
-0.0183094 0.0123993 1e-05
-0.0182722 0.0125 1e-05
-0.0182656 0.0125176 1e-05
-0.018259 0.0125353 1e-05
-0.0182523 0.0125529 1e-05
-0.0182457 0.0125705 1e-05
-0.0182392 0.0125879 1e-05
-0.0182081 0.0126703 1e-05
-0.0181768 0.0127527 1e-05
-0.0181453 0.0128349 1e-05
-0.0181136 0.0129171 1e-05
-0.0180813 0.013 1e-05
-0.0180635 0.0130452 1e-05
-0.0180457 0.0130904 1e-05
-0.0180279 0.0131356 1e-05
-0.0180099 0.0131807 1e-05
-0.0179926 0.0132242 1e-05
-0.0179705 0.0132793 1e-05
-0.0179483 0.0133345 1e-05
-0.017926 0.0133895 1e-05
-0.0179036 0.0134446 1e-05
-0.0178809 0.0135 1e-05
-0.0178543 0.0135646 1e-05
-0.0178276 0.0136292 1e-05
-0.0178007 0.0136937 1e-05
-0.0177737 0.0137581 1e-05
-0.017748 0.0138193 1e-05
-0.0177327 0.0138554 1e-05
-0.0177173 0.0138915 1e-05
-0.0177019 0.0139277 1e-05
-0.0176865 0.0139637 1e-05
-0.0176709 0.014 1e-05
-0.0176378 0.0140769 1e-05
-0.0176045 0.0141536 1e-05
-0.017571 0.0142303 1e-05
-0.0175373 0.0143069 1e-05
-0.0175053 0.014379 1e-05
-0.0174946 0.0144032 1e-05
-0.0174837 0.0144274 1e-05
-0.0174729 0.0144516 1e-05
-0.017462 0.0144757 1e-05
-0.0174511 0.0145 1e-05
-0.0174138 0.0145827 1e-05
-0.0173763 0.0146653 1e-05
-0.0173386 0.0147478 1e-05
-0.0173006 0.0148302 1e-05
-0.0172647 0.0149075 1e-05
-0.017256 0.014926 1e-05
-0.0172474 0.0149445 1e-05
-0.0172387 0.014963 1e-05
-0.01723 0.0149815 1e-05
-0.0172213 0.015 1e-05
-0.0171822 0.0150829 1e-05
-0.0171429 0.0151656 1e-05
-0.0171034 0.0152483 1e-05
-0.0170636 0.0153308 1e-05
-0.0170259 0.0154084 1e-05
-0.017017 0.0154267 1e-05
-0.017008 0.015445 1e-05
-0.016999 0.0154633 1e-05
-0.01699 0.0154816 1e-05
-0.016981 0.0155 1e-05
-0.0169426 0.0155779 1e-05
-0.016904 0.0156557 1e-05
-0.0168652 0.0157334 1e-05
-0.0168262 0.015811 1e-05
-0.0167891 0.0158843 1e-05
-0.0167773 0.0159074 1e-05
-0.0167655 0.0159306 1e-05
-0.0167537 0.0159537 1e-05
-0.0167418 0.0159768 1e-05
-0.0167299 0.016 1e-05
-0.0166948 0.0160683 1e-05
-0.0166595 0.0161365 1e-05
-0.016624 0.0162047 1e-05
-0.0165884 0.0162727 1e-05
-0.0165542 0.0163375 1e-05
-0.016537 0.01637 1e-05
-0.0165197 0.0164025 1e-05
-0.0165024 0.016435 1e-05
-0.0164851 0.0164674 1e-05
-0.0164677 0.0165 1e-05
-0.0164384 0.0165546 1e-05
-0.016409 0.016609 1e-05
-0.0163794 0.0166635 1e-05
-0.0163498 0.0167179 1e-05
-0.0163212 0.0167703 1e-05
-0.0162959 0.0168162 1e-05
-0.0162706 0.0168621 1e-05
-0.0162452 0.016908 1e-05
-0.0162197 0.0169538 1e-05
-0.0161939 0.017 1e-05
-0.0161731 0.0170371 1e-05
-0.0161523 0.0170741 1e-05
-0.0161314 0.0171112 1e-05
-0.0161105 0.0171482 1e-05
-0.01609 0.0171843 1e-05
-0.0160541 0.0172474 1e-05
-0.016018 0.0173105 1e-05
-0.0159818 0.0173735 1e-05
-0.0159454 0.0174364 1e-05
-0.0159085 0.0175 1e-05
-0.0158989 0.0175163 1e-05
-0.0158894 0.0175327 1e-05
-0.0158798 0.017549 1e-05
-0.0158702 0.0175653 1e-05
-0.0158607 0.0175815 1e-05
-0.0158153 0.0176588 1e-05
-0.0157696 0.017736 1e-05
-0.0157236 0.0178131 1e-05
-0.0156775 0.01789 1e-05
-0.0156333 0.0179632 1e-05
-0.0156288 0.0179706 1e-05
-0.0156244 0.0179779 1e-05
-0.0156199 0.0179853 1e-05
-0.0156154 0.0179926 1e-05
-0.015611 0.018 1e-05
-0.0155703 0.0180668 1e-05
-0.0155295 0.0181334 1e-05
-0.0154885 0.0182 1e-05
-0.0154474 0.0182664 1e-05
-0.0154077 0.0183302 1e-05
-0.0153865 0.0183641 1e-05
-0.0153652 0.0183981 1e-05
-0.0153438 0.018432 1e-05
-0.0153224 0.0184659 1e-05
-0.0153009 0.0185 1e-05
-0.0152775 0.0185369 1e-05
-0.015254 0.0185737 1e-05
-0.0152305 0.0186105 1e-05
-0.015207 0.0186473 1e-05
-0.0151839 0.0186832 1e-05
-0.0151431 0.0187466 1e-05
-0.0151022 0.0188098 1e-05
-0.0150611 0.018873 1e-05
-0.0150198 0.0189361 1e-05
-0.0149778 0.019 1e-05
-0.0149746 0.0190048 1e-05
-0.0149715 0.0190096 1e-05
-0.0149683 0.0190144 1e-05
-0.0149651 0.0190192 1e-05
-0.0149619 0.019024 1e-05
-0.0149179 0.0190905 1e-05
-0.0148737 0.0191569 1e-05
-0.0148293 0.0192232 1e-05
-0.0147848 0.0192894 1e-05
-0.0147417 0.0193531 1e-05
-0.0147218 0.0193825 1e-05
-0.0147018 0.0194118 1e-05
-0.0146817 0.0194412 1e-05
-0.0146616 0.0194705 1e-05
-0.0146414 0.0195 1e-05
-0.0146178 0.0195343 1e-05
-0.0145941 0.0195686 1e-05
-0.0145704 0.0196029 1e-05
-0.0145467 0.0196371 1e-05
-0.0145233 0.0196707 1e-05
-0.01448 0.0197328 1e-05
-0.0144365 0.0197949 1e-05
-0.0143929 0.0198568 1e-05
-0.0143491 0.0199186 1e-05
-0.0143067 0.0199783 1e-05
-0.0143036 0.0199826 1e-05
-0.0143005 0.019987 1e-05
-0.0142974 0.0199913 1e-05
-0.0142943 0.0199957 1e-05
-0.0142912 0.02 1e-05
-0.0142513 0.0200557 1e-05
-0.0142113 0.0201113 1e-05
-0.0141712 0.0201669 1e-05
-0.0141309 0.0202223 1e-05
-0.0140917 0.0202761 1e-05
-0.014059 0.0203209 1e-05
-0.0140261 0.0203656 1e-05
-0.0139932 0.0204103 1e-05
-0.0139602 0.0204549 1e-05
-0.0139267 0.0205 1e-05
-0.0139171 0.0205129 1e-05
-0.0139074 0.0205258 1e-05
-0.0138978 0.0205388 1e-05
-0.0138882 0.0205517 1e-05
-0.0138786 0.0205645 1e-05
-0.0138363 0.020621 1e-05
-0.0137939 0.0206774 1e-05
-0.0137513 0.0207337 1e-05
-0.0137087 0.0207899 1e-05
-0.0136671 0.0208444 1e-05
-0.0136433 0.0208755 1e-05
-0.0136194 0.0209066 1e-05
-0.0135955 0.0209377 1e-05
-0.0135716 0.0209687 1e-05
-0.0135474 0.021 1e-05
-0.0135294 0.0210233 1e-05
-0.0135114 0.0210465 1e-05
-0.0134933 0.0210697 1e-05
-0.0134752 0.0210929 1e-05
-0.0134573 0.0211158 1e-05
-0.0134157 0.021169 1e-05
-0.013374 0.0212222 1e-05
-0.0133322 0.0212752 1e-05
-0.0132902 0.0213282 1e-05
-0.0132493 0.0213797 1e-05
-0.0132301 0.0214038 1e-05
-0.0132108 0.0214278 1e-05
-0.0131916 0.0214518 1e-05
-0.0131723 0.0214758 1e-05
-0.0131529 0.0215 1e-05
-0.0131309 0.0215273 1e-05
-0.0131088 0.0215546 1e-05
-0.0130868 0.0215819 1e-05
-0.0130647 0.0216091 1e-05
-0.0130429 0.021636 1e-05
-0.0130019 0.0216862 1e-05
-0.0129609 0.0217364 1e-05
-0.0129197 0.0217866 1e-05
-0.0128785 0.0218366 1e-05
-0.0128381 0.0218854 1e-05
-0.0128191 0.0219083 1e-05
-0.0128 0.0219312 1e-05
-0.012781 0.0219541 1e-05
[...]
POINT_DATA 12090
 FIELD attributes 1
U 3 12090 float
-0.0139042 	-0.313489 	0 -0.014442 	-0.313466 	0 -0.0149802 	-0.313441 	0 -0.0155183 	-0.313415 	0 -0.0160562 	-0.313388 	0 -0.0165983 	-0.31336 	0 -0.0172581 	-0.31333 	0 -0.0179186 	-0.313298 	0 -0.018577 	-0.313264 	0 -0.0192353 	-0.313228 	0 -0.0198967 	-0.313191 	0 -0.0206303 	-0.313154 	0 -0.0213651 	-0.313115 	0 -0.0220971 	-0.313073 	0 -0.0228282 	-0.31303 	0 -0.0235618 	-0.312985 	0 -0.0243364 	-0.312935 	0 -0.0251117 	-0.312884 	0 -0.0258869 	-0.312831 	0 -0.0266589 	-0.312775 	0 -0.0274329 	-0.312717 	0 -0.0282299 	-0.312652 	0 -0.0290272 	-0.312585 	0 -0.0298243 	-0.312517 	0 -0.0306213 	-0.312447 	0 -0.0314177 	-0.312374 	0 -0.0320847 	-0.31231 	0 -0.032752 	-0.312244 	0 -0.0334191 	-0.312177 	0 -0.034086 	-0.312108 	0 -0.0346228 	-0.312052 	0 -0.0347917 	-0.312035 	0 -0.0349607 	-0.312017 	0 -0.0351299 	-0.311999 	0 -0.035299 	-0.311981 	0 -0.0354684 	-0.311962 	0 -0.0362874 	-0.31187 	0 -0.0371056 	-0.311776 	0 -0.0379237 	-0.311681 	0 -0.0387417 	-0.311583 	0 -0.0395622 	-0.311484 	0 -0.040389 	-0.31138 	0 -0.0412154 	-0.311274 	0 -0.0420396 	-0.311165 	0 -0.0428637 	-0.311054 	0 -0.0436906 	-0.310941 	0 -0.0445229 	-0.310823 	0 -0.0453552 	-0.310704 	0 -0.0461873 	-0.310583 	0 -0.0470182 	-0.310459 	0 -0.0478509 	-0.310333 	0 -0.0484234 	-0.310243 	0 -0.0489959 	-0.310152 	0 -0.0495683 	-0.310061 	0 -0.0501405 	-0.309968 	0 -0.0506475 	-0.309886 	0 -0.0509264 	-0.30984 	0 -0.0512055 	-0.309794 	0 -0.0514845 	-0.309748 	0 -0.0517635 	-0.309702 	0 -0.0520431 	-0.309655 	0 -0.0528887 	-0.309511 	0 -0.0537326 	-0.309363 	0 -0.0545763 	-0.309214 	0 -0.0554198 	-0.309063 	0 -0.0562671 	-0.30891 	0 -0.057119 	-0.308752 	0 -0.0579709 	-0.308592 	0 -0.0588224 	-0.30843 	0 -0.0596725 	-0.308265 	0 -0.060526 	-0.308098 	0 -0.0609862 	-0.308005 	0 -0.0614464 	-0.307912 	0 -0.0619066 	-0.307818 	0 -0.0623667 	-0.307724 	0 -0.0627929 	-0.307636 	0 -0.0631983 	-0.307553 	0 -0.0636037 	-0.307469 	0 -0.064009 	-0.307384 	0 -0.0644143 	-0.307299 	0 -0.0648208 	-0.307213 	0 -0.0656879 	-0.307028 	0 -0.066554 	-0.30684 	0 -0.0674187 	-0.306649 	0 -0.0682831 	-0.306456 	0 -0.0691526 	-0.306261 	0 -0.0699389 	-0.30608 	0 -0.0707251 	-0.305899 	0 -0.0715109 	-0.305716 	0 -0.0722965 	-0.305531 	0 -0.0729965 	-0.305365 	0 -0.073102 	-0.30534 	0 -0.0732077 	-0.305315 	0 -0.0733133 	-0.30529 	0 -0.073419 	-0.305264 	0 -0.0735248 	-0.305239 	0 -0.0744072 	-0.305025 	0 -0.0752884 	-0.304808 	0 -0.0761693 	-0.304589 	0 -0.0770498 	-0.304369 	0 -0.0779363 	-0.304145 	0 -0.0787619 	-0.303933 	0 -0.0795872 	-0.30372 	0 -0.0804122 	-0.303505 	0 -0.0812367 	-0.303289 	0 -0.0819774 	-0.303093 	0 -0.0820602 	-0.303071 	0 -0.0821431 	-0.303049 	0 -0.082226 	-0.303027 	0 -0.0823089 	-0.303005 	0 -0.082392 	-0.302982 	0 -0.0832914 	-0.30274 	0 -0.0841898 	-0.302495 	0 -0.0850878 	-0.302248 	0 -0.0859853 	-0.301999 	0 -0.0868899 	-0.301747 	0 -0.0875391 	-0.301563 	0 -0.0881881 	-0.301379 	0 -0.088837 	-0.301193 	0 -0.0894856 	-0.301007 	0 -0.0900871 	-0.300833 	0 -0.0903565 	-0.300755 	0 -0.0906259 	-0.300677 	0 -0.0908954 	-0.300598 	0 -0.0911647 	-0.30052 	0 -0.0914349 	-0.300441 	0 -0.0923531 	-0.300171 	0 -0.0932708 	-0.299899 	0 -0.0941871 	-0.299624 	0 -0.0951026 	-0.299347 	0 -0.0960264 	-0.299065 	0 -0.0963293 	-0.298972 	0 -0.0966323 	-0.298879 	0 -0.0969353 	-0.298785 	0 -0.0972382 	-0.298691 	0 -0.0975318 	-0.2986 	0 -0.0981583 	-0.298405 	0 -0.0987846 	-0.29821 	0 -0.0994107 	-0.298014 	0 -0.100037 	-0.297817 	0 -0.100667 	-0.297617 	0 -0.101436 	-0.297372 	0 -0.102204 	-0.297126 	0 -0.102973 	-0.296879 	0 -0.103741 	-0.29663 	0 -0.104452 	-0.296399 	0 -0.104633 	-0.29634 	0 -0.104814 	-0.29628 	0 -0.104995 	-0.296221 	0 -0.105176 	-0.296162 	0 -0.105358 	-0.296102 	0 -0.106306 	-0.29579 	0 -0.107253 	-0.295477 	0 -0.1082 	-0.295161 	0 -0.109145 	-0.294842 	0 -0.1101 	-0.294519 	0 -0.110269 	-0.294461 	0 -0.110438 	-0.294403 	0 -0.110607 	-0.294346 	0 -0.110776 	-0.294288 	0 -0.110942 	-0.294231 	0 -0.111732 	-0.293961 	0 -0.112522 	-0.293689 	0 -0.113311 	-0.293416 	0 -0.1141 	-0.293142 	0 -0.114896 	-0.292864 	0 -0.115334 	-0.292711 	0 -0.115772 	-0.292557 	0 -0.11621 	-0.292402 	0 -0.116647 	-0.292248 	0 -0.117069 	-0.292098 	0 -0.117604 	-0.291908 	0 -0.118139 	-0.291718 	0 -0.118674 	-0.291527 	0 -0.119209 	-0.291336 	0 -0.119747 	-0.291142 	0 -0.12038 	-0.290915 	0 -0.121014 	-0.290686 	0 -0.121646 	-0.290456 	0 -0.122279 	-0.290226 	0 -0.122879 	-0.290007 	0 -0.123234 	-0.289877 	0 -0.123589 	-0.289747 	0 -0.123944 	-0.289617 	0 -0.124298 	-0.289486 	0 -0.124655 	-0.289355 	0 -0.125417 	-0.289074 	0 -0.126179 	-0.288791 	0 -0.12694 	-0.288508 	0 -0.127701 	-0.288224 	0 -0.128417 	-0.287955 	0 -0.128657 	-0.287865 	0 -0.128898 	-0.287774 	0 -0.129138 	-0.287684 	0 -0.129379 	-0.287593 	0 -0.12962 	-0.287502 	0 -0.13045 	-0.287189 	0 -0.13128 	-0.286874 	0 -0.132109 	-0.286559 	0 -0.132937 	-0.286242 	0 -0.133715 	-0.285943 	0 -0.133901 	-0.285872 	0 -0.134087 	-0.2858 	0 -0.134272 	-0.285728 	0 -0.134458 	-0.285657 	0 -0.134645 	-0.285585 	0 -0.135487 	-0.28526 	0 -0.136328 	-0.284935 	0 -0.137168 	-0.284608 	0 -0.138008 	-0.28428 	0 -0.138797 	-0.283971 	0 -0.138984 	-0.283897 	0 -0.13917 	-0.283824 	0 -0.139357 	-0.283751 	0 -0.139543 	-0.283677 	0 -0.13973 	-0.283604 	0 -0.140531 	-0.283289 	0 -0.141331 	-0.282974 	0 -0.142131 	-0.282657 	0 -0.142929 	-0.282339 	0 -0.143685 	-0.282037 	0 -0.143923 	-0.281942 	0 -0.144161 	-0.281847 	0 -0.144399 	-0.281751 	0 -0.144638 	-0.281656 	0 -0.144877 	-0.28156 	0 -0.145588 	-0.281276 	0 -0.146298 	-0.280991 	0 -0.147008 	-0.280705 	0 -0.147717 	-0.280418 	0 -0.148393 	-0.280144 	0 -0.148731 	-0.280006 	0 -0.14907 	-0.279869 	0 -0.149408 	-0.279731 	0 -0.149746 	-0.279593 	0 -0.150087 	-0.279454 	0 -0.150661 	-0.279221 	0 -0.151236 	-0.278986 	0 -0.15181 	-0.278752 	0 -0.152383 	-0.278516 	0 -0.152936 	-0.278289 	0 -0.15342 	-0.27809 	0 -0.153905 	-0.277891 	0 -0.154389 	-0.277691 	0 -0.154872 	-0.277491 	0 -0.15536 	-0.277289 	0 -0.155756 	-0.277125 	0 -0.156151 	-0.276962 	0 -0.156547 	-0.276798 	0 -0.156942 	-0.276634 	0 -0.157327 	-0.276473 	0 -0.158001 	-0.276194 	0 -0.158675 	-0.275914 	0 -0.159347 	-0.275633 	0 -0.160019 	-0.275351 	0 -0.1607 	-0.275065 	0 -0.160876 	-0.274991 	0 -0.161052 	-0.274917 	0 -0.161229 	-0.274843 	0 -0.161405 	-0.274769 	0 -0.16158 	-0.274696 	0 -0.162415 	-0.274347 	0 -0.163249 	-0.273997 	0 -0.164082 	-0.273645 	0 -0.164914 	-0.273292 	0 -0.165706 	-0.272954 	0 -0.165786 	-0.27292 	0 -0.165865 	-0.272886 	0 -0.165945 	-0.272852 	0 -0.166024 	-0.272818 	0 -0.166104 	-0.272784 	0 -0.166833 	-0.272475 	0 -0.167562 	-0.272166 	0 -0.168289 	-0.271855 	0 -0.169016 	-0.271544 	0 -0.169714 	-0.271244 	0 -0.170085 	-0.271085 	0 -0.170456 	-0.270925 	0 -0.170827 	-0.270766 	0 -0.171198 	-0.270606 	0 -0.171572 	-0.270444 	0 -0.171979 	-0.270269 	0 -0.172387 	-0.270094 	0 -0.172794 	-0.269919 	0 -0.173201 	-0.269743 	0 -0.173599 	-0.269571 	0 -0.1743 	-0.26927 	0 -0.175001 	-0.268967 	0 -0.1757 	-0.268664 	0 -0.176398 	-0.268361 	0 -0.177107 	-0.268052 	0 -0.177161 	-0.268028 	0 -0.177214 	-0.268005 	0 -0.177268 	-0.267982 	0 -0.177322 	-0.267958 	0 -0.177376 	-0.267935 	0 -0.17812 	-0.267614 	0 -0.178863 	-0.26729 	0 -0.179605 	-0.266965 	0 -0.180346 	-0.26664 	0 -0.181059 	-0.266326 	0 -0.181388 	-0.266182 	0 -0.181717 	-0.266037 	0 -0.182045 	-0.265892 	0 -0.182374 	-0.265748 	0 -0.182704 	-0.265602 	0 -0.183093 	-0.265431 	0 -0.183481 	-0.265261 	0 -0.183869 	-0.26509 	0 -0.184257 	-0.264919 	0 -0.184638 	-0.264752 	0 -0.185341 	-0.264443 	0 -0.186043 	-0.264134 	0 -0.186745 	-0.263824 	0 -0.187446 	-0.263513 	0 -0.188122 	-0.263211 	0 -0.188171 	-0.263189 	0 -0.18822 	-0.263167 	0 -0.188269 	-0.263145 	0 -0.188318 	-0.263123 	0 -0.188367 	-0.263101 	0 -0.189004 	-0.262819 	0 -0.189641 	-0.262537 	0 -0.190276 	-0.262254 	0 -0.190911 	-0.261971 	0 -0.191527 	-0.261695 	0 -0.192039 	-0.261466 	0 -0.192551 	-0.261238 	0 -0.193062 	-0.261009 	0 -0.193573 	-0.260779 	0 -0.19409 	-0.260547 	0 -0.194239 	-0.26048 	0 -0.194389 	-0.260413 	0 -0.194538 	-0.260346 	0 -0.194688 	-0.26028 	0 -0.194837 	-0.260213 	0 -0.19549 	-0.259923 	0 -0.196142 	-0.259632 	0 -0.196793 	-0.259338 	0 -0.197443 	-0.259043 	0 -0.198074 	-0.258757 	0 -0.198433 	-0.258594 	0 -0.198792 	-0.258432 	0 -0.199151 	-0.258269 	0 -0.19951 	-0.258106 	0 -0.199871 	-0.257942 	0 -0.200143 	-0.257819 	0 -0.200415 	-0.257697 	0 -0.200687 	-0.257575 	0 -0.200958 	-0.257452 	0 -0.201227 	-0.257331 	0 -0.201848 	-0.257052 	0 -0.202469 	-0.256773 	0 -0.203088 	-0.256492 	0 -0.203706 	-0.256208 	0 -0.204308 	-0.255931 	0 -0.204588 	-0.255803 	0 -0.204868 	-0.255675 	0 -0.205148 	-0.255547 	0 -0.205428 	-0.255418 	0 -0.20571 	-0.255289 	0 -0.206032 	-0.255143 	0 -0.206354 	-0.254997 	0 -0.206676 	-0.25485 	0 -0.206998 	-0.254704 	0 -0.207315 	-0.254559 	0 -0.207907 	-0.254291 	0 -0.208499 	-0.254023 	0 -0.20909 	-0.253753 	0 -0.209679 	-0.25348 	0 -0.210254 	-0.253213 	0 -0.210523 	-0.253089 	0 -0.210792 	-0.252964 	0 -0.211061 	-0.25284 	0 -0.21133 	-0.252715 	0 -0.211601 	-0.25259 	0 -0.211907 	-0.25245 	0 -0.212212 	-0.25231 	0 -0.212518 	-0.25217 	0 -0.212823 	-0.25203 	0 -0.213125 	-0.251892 	0 -0.21369 	-0.251634 	0 -0.214255 	-0.251376 	0 -0.214819 	-0.251115 	0 -0.215382 	-0.250852 	0 -0.215932 	-0.250595 	0 -0.216254 	-0.250446 	0 -0.216575 	-0.250296 	0 -0.216896 	-0.250146 	0 -0.217216 	-0.249997 	0 -0.21754 	-0.249845 	0 -0.217767 	-0.249741 	0 -0.217994 	-0.249636 	0 -0.218221 	-0.249532 	0 -0.218448 	-0.249427 	0 -0.218673 	-0.249323 	0 -0.219214 	-0.249075 	0 -0.219755 	-0.248826 	0 -0.220294 	-0.248574 	0 -0.220832 	-0.248321 	0 -0.22136 	-0.248073 	0 -0.221792 	-0.247871 	0 -0.222224 	-0.247669 	0 -0.222655 	-0.247467 	0 -0.223086 	-0.247265 	0 -0.223522 	-0.247059 	0 -0.223613 	-0.247017 	0 -0.223704 	-0.246975 	0 -0.223795 	-0.246933 	0 -0.223886 	-0.246891 	0 -0.223977 	-0.246849 	0 -0.224496 	-0.24661 	0 -0.225013 	-0.246368 	0 -0.22553 	-0.246125 	0 -0.226046 	-0.245882 	0 -0.226552 	-0.245644 	0 -0.227056 	-0.245408 	0 -0.22756 	-0.245172 	0 -0.228062 	-0.244936 	0 -0.228564 	-0.244699 	0 -0.229057 	-0.244463 	0 -0.229153 	-0.244417 	0 -0.22925 	-0.244371 	0 -0.229347 	-0.244325 	0 -0.229443 	-0.244278 	0 -0.22954 	-0.244232 	0 -0.229938 	-0.244046 	0 -0.230335 	-0.243859 	0 -0.230732 	-0.243673 	0 -0.231129 	-0.243486 	0 -0.23152 	-0.243301 	0 -0.232004 	-0.243075 	0 -0.232487 	-0.242849 	0 -0.23297 	-0.24262 	0 -0.233451 	-0.242389 	0 -0.233925 	-0.242161 	0 -0.234257 	-0.242002 	0 -0.234589 	-0.241843 	0 -0.234921 	-0.241684 	0 -0.235252 	-0.241525 	0 -0.235587 	-0.241364 	0 -0.235724 	-0.241299 	0 -0.235862 	-0.241234 	0 -0.235999 	-0.24117 	0 -0.236136 	-0.241105 	0 -0.236273 	-0.24104 	0 -0.236738 	-0.240823 	0 -0.237202 	-0.240601 	0 -0.237666 	-0.240379 	0 -0.238129 	-0.240156 	0 -0.238585 	-0.239937 	0 -0.239037 	-0.239721 	0 -0.239489 	-0.239505 	0 -0.23994 	-0.239289 	0 -0.240391 	-0.239072 	0 -0.240834 	-0.238853 	0 -0.240998 	-0.238773 	0 -0.241162 	-0.238693 	0 -0.241325 	-0.238613 	0 -0.241489 	-0.238533 	0 -0.241654 	-0.238453 	0 -0.241932 	-0.23832 	0 -0.242211 	-0.238186 	0 -0.24249 	-0.238053 	0 -0.242768 	-0.237919 	0 -0.243044 	-0.237787 	0 -0.243479 	-0.23758 	0 -0.243914 	-0.237372 	0 -0.244348 	-0.23716 	0 -0.244782 	-0.236947 	0 -0.245209 	-0.236738 	0 -0.245633 	-0.236532 	0 -0.246056 	-0.236325 	0 -0.246478 	-0.236119 	0 -0.2469 	-0.235912 	0 -0.247316 	-0.235706 	0 -0.247398 	-0.235664 	0 -0.247481 	-0.235623 	0 -0.247563 	-0.235582 	0 -0.247646 	-0.235541 	0 -0.247729 	-0.2355 	0 -0.248063 	-0.235338 	0 -0.248397 	-0.235176 	0 -0.248731 	-0.235013 	0 -0.249065 	-0.234851 	0 -0.249395 	-0.23469 	0 -0.249803 	-0.234493 	0 -0.250211 	-0.234296 	0 -0.250618 	-0.234093 	0 -0.251024 	-0.233891 	0 -0.251426 	-0.23369 	0 -0.251823 	-0.233493 	0 -0.252219 	-0.233297 	0 -0.252615 	-0.2331 	0 -0.253011 	-0.232903 	0 -0.253402 	-0.232705 	0 -0.25348 	-0.232665 	0 -0.253559 	-0.232625 	0 -0.253638 	-0.232585 	0 -0.253717 	-0.232545 	0 -0.253797 	-0.232505 	0 -0.254109 	-0.232351 	0 -0.254421 	-0.232197 	0 -0.254733 	-0.232043 	0 -0.255044 	-0.231888 	0 -0.255353 	-0.231736 	0 -0.255735 	-0.231548 	0 -0.256118 	-0.231359 	0 -0.2565 	-0.231166 	0 -0.256882 	-0.230972 	0 -0.25726 	-0.23078 	0 -0.257632 	-0.230593 	0 -0.258004 	-0.230405 	0 -0.258376 	-0.230217 	0 -0.258747 	-0.230029 	0 -0.259115 	-0.229838 	0 -0.25926 	-0.229762 	0 -0.259405 	-0.229687 	0 -0.25955 	-0.229612 	0 -0.259696 	-0.229537 	0 -0.259842 	-0.229461 	0 -0.260062 	-0.229351 	0 -0.260282 	-0.22924 	0 -0.260502 	-0.22913 	0 -0.260722 	-0.229019 	0 -0.260941 	-0.228909 	0 -0.2613 	-0.22873 	0 -0.26166 	-0.228547 	0 -0.262019 	-0.228362 	0 -0.262377 	-0.228177 	0 -0.262733 	-0.227994 	0 -0.263082 	-0.227815 	0 -0.263432 	-0.227636 	0 -0.263781 	-0.227456 	0 -0.26413 	-0.227273 	0 -0.264476 	-0.22709 	0 -0.264749 	-0.226945 	0 -0.265023 	-0.226801 	0 -0.265297 	-0.226657 	0 -0.26557 	-0.226512 	0 -0.265846 	-0.226367 	0 -0.265912 	-0.226332 	0 -0.265978 	-0.226298 	0 -0.266044 	-0.226264 	0 -0.266111 	-0.226231 	0 -0.266178 	-0.226197 	0 -0.266516 	-0.226023 	0 -0.266854 	-0.225847 	0 -0.267192 	-0.225671 	0 -0.267529 	-0.225494 	0 -0.267864 	-0.225319 	0 -0.268192 	-0.225149 	0 -0.26852 	-0.224978 	0 -0.268849 	-0.224804 	0 -0.269177 	-0.224627 	0 -0.269503 	-0.224452 	0 -0.269822 	-0.224281 	0 -0.270141 	-0.22411 	0 -0.27046 	-0.223939 	0 -0.270779 	-0.223767 	0 -0.271096 	-0.223593 	0 -0.271232 	-0.223517 	0 -0.271369 	-0.223442 	0 -0.271506 	-0.223366 	0 -0.271643 	-0.223291 	0 -0.271781 	-0.223215 	0 -0.271957 	-0.223121 	0 -0.272135 	-0.223028 	0 -0.272312 	-0.222934 	0 -0.272488 	-0.222841 	0 -0.272665 	-0.222748 	0 -0.272974 	-0.222586 	0 -0.273284 	-0.222418 	0 -0.273593 	-0.22225 	0 -0.273902 	-0.222082 	0 -0.274209 	-0.221915 	0 -0.274509 	-0.221753 	0 -0.274809 	-0.221591 	0 -0.275109 	-0.221427 	0 -0.27541 	-0.221258 	0 -0.275709 	-0.221091 	0 -0.276 	-0.220928 	0 -0.276292 	-0.220765 	0 -0.276584 	-0.220602 	0 -0.276875 	-0.220439 	0 -0.277166 	-0.220274 	0 -0.277257 	-0.220221 	0 -0.277349 	-0.220168 	0 -0.277441 	-0.220115 	0 -0.277533 	-0.220062 	0 -0.277626 	-0.220009 	0 -0.277822 	-0.219901 	0 -0.278019 	-0.219793 	0 -0.278215 	-0.219684 	0 -0.278411 	-0.219576 	0 -0.278607 	-0.219469 	0 -0.278889 	-0.219314 	0 -0.279172 	-0.219154 	0 -0.279456 	-0.218993 	0 -0.279739 	-0.218832 	0 -0.28002 	-0.218672 	0 -0.280294 	-0.218517 	0 -0.280568 	-0.218362 	0 -0.280843 	-0.218204 	0 -0.281118 	-0.218043 	0 -0.281392 	-0.217882 	0 -0.281658 	-0.217726 	0 -0.281925 	-0.21757 	0 -0.282191 	-0.217413 	0 -0.282457 	-0.217257 	0 -0.282723 	-0.217097 	0 -0.282847 	-0.217021 	0 -0.282972 	-0.216946 	0 -0.283096 	-0.21687 	0 -0.283221 	-0.216795 	0 -0.283346 	-0.216719 	0 -0.283483 	-0.216639 	0 -0.283621 	-0.21656 	0 -0.283759 	-0.21648 	0 -0.283897 	-0.216401 	0 -0.284035 	-0.216322 	0 -0.284292 	-0.216172 	0 -0.284552 	-0.216018 	0 -0.284811 	-0.215864 	0 -0.28507 	-0.21571 	0 -0.285328 	-0.215556 	0 -0.285577 	-0.215407 	0 -0.285828 	-0.215258 	0 -0.286079 	-0.215105 	0 -0.286331 	-0.214949 	0 -0.286582 	-0.214795 	0 -0.286824 	-0.214645 	0 -0.287068 	-0.214495 	0 -0.287311 	-0.214345 	0 -0.287554 	-0.214193 	0 -0.287798 	-0.214038 	0 -0.288019 	-0.213896 	0 -0.28824 	-0.213754 	0 -0.288461 	-0.213612 	0 -0.288682 	-0.213471 	0 -0.288906 	-0.213328 	0 -0.288921 	-0.213319 	0 -0.288935 	-0.21331 	0 -0.288949 	-0.213301 	0 -0.288964 	-0.213292 	0 -0.288979 	-0.213283 	0 -0.289216 	-0.213136 	0 -0.289454 	-0.212987 	0 -0.289691 	-0.212839 	0 -0.289927 	-0.212691 	0 -0.290163 	-0.212543 	0 -0.290392 	-0.2124 	0 -0.290622 	-0.212253 	0 -0.290852 	-0.212104 	0 -0.291082 	-0.211954 	0 -0.291311 	-0.211805 	0 -0.291533 	-0.21166 	0 -0.291756 	-0.211516 	0 -0.291978 	-0.211369 	0 -0.292202 	-0.211218 	0 -0.292425 	-0.211069 	0 -0.29264 	-0.210922 	0 -0.292856 	-0.210776 	0 -0.293072 	-0.21063 	0 -0.293287 	-0.210483 	0 -0.293504 	-0.210333 	0 -0.293658 	-0.210224 	0 -0.293812 	-0.210116 	0 -0.293965 	-0.210008 	0 -0.294119 	-0.209899 	0 -0.294274 	-0.20979 	0 -0.294331 	-0.209752 	0 -0.294388 	-0.209714 	0 -0.294445 	-0.209677 	0 -0.294502 	-0.209639 	0 -0.29456 	-0.209602 	0 -0.29477 	-0.20946 	0 -0.294981 	-0.209316 	0 -0.295192 	-0.209172 	0 -0.295402 	-0.209028 	0 -0.295613 	-0.208886 	0 -0.295815 	-0.208746 	0 -0.296019 	-0.208604 	0 -0.296224 	-0.208459 	0 -0.296429 	-0.208314 	0 -0.296634 	-0.20817 	0 -0.29683 	-0.208028 	0 -0.297027 	-0.207888 	0 -0.297225 	-0.207745 	0 -0.297424 	-0.207599 	0 -0.297624 	-0.207454 	0 -0.297815 	-0.20731 	0 -0.298006 	-0.207168 	0 -0.298198 	-0.207026 	0 -0.298389 	-0.206883 	0 -0.298583 	-0.206736 	0 -0.298751 	-0.206605 	0 -0.29892 	-0.206475 	0 -0.299088 	-0.206345 	0 -0.299256 	-0.206215 	0 -0.299426 	-0.206084 	0 -0.299444 	-0.206071 	0 -0.299462 	-0.206058 	0 -0.29948 	-0.206045 	0 -0.299498 	-0.206032 	0 -0.299517 	-0.206019 	0 -0.299705 	-0.20588 	0 -0.299893 	-0.205741 	0 -0.300082 	-0.205602 	0 -0.30027 	-0.205462 	0 -0.300458 	-0.205323 	0 -0.300637 	-0.205188 	0 -0.30082 	-0.205048 	0 -0.301003 	-0.204907 	0 -0.301186 	-0.204766 	0 -0.301369 	-0.204626 	0 -0.301543 	-0.204489 	0 -0.301718 	-0.204352 	0 -0.301894 	-0.204211 	0 -0.302071 	-0.204068 	0 -0.302249 	-0.203927 	0 -0.302417 	-0.203788 	0 -0.302587 	-0.203649 	0 -0.302756 	-0.20351 	0 -0.302926 	-0.203368 	0 -0.303099 	-0.203225 	0 -0.303261 	-0.203084 	0 -0.303425 	-0.202944 	0 -0.303589 	-0.202803 	0 -0.303752 	-0.202663 	0 -0.303917 	-0.202521 	0 -0.303996 	-0.202449 	0 -0.304075 	-0.202378 	0 -0.304154 	-0.202307 	0 -0.304234 	-0.202236 	0 -0.304315 	-0.202165 	0 -0.304396 	-0.202096 	0 -0.304478 	-0.202027 	0 -0.304561 	-0.201958 	0 -0.304643 	-0.201889 	0 -0.304726 	-0.201821 	0 -0.304883 	-0.201685 	0 -0.305044 	-0.201545 	0 -0.305204 	-0.201406 	0 -0.305363 	-0.201267 	0 -0.305523 	-0.201129 	0 -0.305674 	-0.200993 	0 -0.305826 	-0.200855 	0 -0.305981 	-0.200714 	0 -0.306135 	-0.200574 	0 -0.30629 	-0.200434 	0 -0.306435 	-0.200297 	0 -0.306581 	-0.20016 	0 -0.306729 	-0.200021 	0 -0.306878 	-0.199879 	0 -0.307028 	-0.199738 	0 -0.307168 	-0.1996 	0 -0.307309 	-0.199463 	0 -0.30745 	-0.199325 	0 -0.307593 	-0.199185 	0 -0.307737 	-0.199043 	0 -0.307874 	-0.198905 	0 -0.30801 	-0.198767 	0 -0.308147 	-0.198629 	0 -0.308283 	-0.198491 	0 -0.308421 	-0.198351 	0 -0.308497 	-0.198271 	0 -0.308573 	-0.198192 	0 -0.30865 	-0.198112 	0 -0.308726 	-0.198033 	0 -0.308804 	-0.197953 	0 -0.308861 	-0.197897 	0 -0.308919 	-0.197841 	0 -0.308977 	-0.197786 	0 -0.309035 	-0.19773 	0 -0.309094 	-0.197675 	0 -0.309226 	-0.197546 	0 -0.309361 	-0.197415 	0 -0.309496 	-0.197285 	0 -0.30963 	-0.197154 	0 -0.309765 	-0.197025 	0 -0.30989 	-0.196902 	0 -0.310019 	-0.196776 	0 -0.310149 	-0.19665 	0 -0.31028 	-0.196523 	0 -0.310411 	-0.196398 	0 -0.310531 	-0.196281 	0 -0.310653 	-0.196165 	0 -0.310779 	-0.196046 	0 -0.310905 	-0.195925 	0 -0.311033 	-0.195807 	0 -0.31115 	-0.1957 	0 -0.311268 	-0.195595 	0 -0.311386 	-0.19549 	0 -0.311508 	-0.19538 	0 -0.311631 	-0.195272 	0 -0.311745 	-0.195182 	0 -0.311859 	-0.195093 	0 -0.311973 	-0.195004 	0 -0.312087 	-0.194915 	0 -0.312207 	-0.194824 	0 -0.312317 	-0.194758 	0 -0.312428 	-0.194694 	0 -0.312538 	-0.19463 	0 -0.312649 	-0.194565 	0 -0.312761 	-0.194502 	0 -0.312782 	-0.194495 	0 -0.312803 	-0.194489 	0 -0.312825 	-0.194483 	0 -0.312847 	-0.194478 	0 -0.31287 	-0.194474 	0 -0.312959 	-0.194454 	0 -0.31305 	-0.194437 	0 -0.31314 	-0.194419 	0 -0.31323 	-0.194401 	0 -0.313322 	-0.194386 	0 -0.313427 	-0.194418 	0 -0.313537 	-0.194448 	0 -0.313648 	-0.194478 	0 -0.313758 	-0.194508 	0 -0.313869 	-0.194541 	0 -0.31397 	-0.194649 	0 -0.314074 	-0.194757 	0 -0.314181 	-0.194861 	0 -0.314288 	-0.194965 	0 -0.314396 	-0.195073 	0 -0.314493 	-0.195284 	0 -0.314591 	-0.1955 	0 -0.314694 	-0.195709 	0 -0.314798 	-0.195916 	0 -0.314904 	-0.196127 	0 -0.314998 	-0.19648 	0 -0.315094 	-0.196838 	0 -0.31519 	-