# vtk DataFile Version 2.0
track0
ASCII
DATASET POLYDATA
POINTS 12090 float
-0.0205 0.001 1e-05
-0.0204956 0.0011 1e-05
-0.020491 0.00119999 1e-05
-0.0204862 0.00129998 1e-05
-0.0204812 0.00139995 1e-05
-0.0204761 0.0015 1e-05
-0.0204708 0.0016 1e-05
-0.0204653 0.00169999 1e-05
-0.0204596 0.00179997 1e-05
-0.0204537 0.00189993 1e-05
-0.0204475 0.002 1e-05
-0.0204412 0.0021 1e-05
-0.0204346 0.00219998 1e-05
-0.0204277 0.00229995 1e-05
-0.0204207 0.00239991 1e-05
-0.0204134 0.0025 1e-05
-0.0204059 0.0026 1e-05
-0.0203981 0.00269998 1e-05
-0.0203901 0.00279994 1e-05
-0.0203818 0.00289988 1e-05
-0.0203733 0.003 1e-05
-0.0203645 0.0031 1e-05
-0.0203555 0.00319998 1e-05
-0.0203462 0.00329993 1e-05
-0.0203366 0.00339986 1e-05
-0.0203268 0.0035 1e-05
-0.0203185 0.0035824 1e-05
-0.0203101 0.00366477 1e-05
-0.0203014 0.00374713 1e-05
-0.0202926 0.00382947 1e-05
-0.0202854 0.00389569 1e-05
-0.0202831 0.00391655 1e-05
-0.0202808 0.00393741 1e-05
-0.0202784 0.00395827 1e-05
-0.0202761 0.00397913 1e-05
-0.0202737 0.004 1e-05
-0.0202623 0.0041 1e-05
-0.0202507 0.00419997 1e-05
-0.0202388 0.00429991 1e-05
-0.0202267 0.00439982 1e-05
-0.0202142 0.0045 1e-05
-0.0202015 0.0046 1e-05
-0.0201885 0.00469997 1e-05
-0.0201753 0.0047999 1e-05
-0.0201618 0.00489979 1e-05
-0.020148 0.005 1e-05
-0.0201339 0.0051 1e-05
-0.0201196 0.00519996 1e-05
-0.020105 0.00529989 1e-05
-0.0200902 0.00539977 1e-05
-0.020075 0.0055 1e-05
-0.0200645 0.00556834 1e-05
-0.0200538 0.00563665 1e-05
-0.020043 0.00570495 1e-05
-0.0200321 0.00577323 1e-05
-0.0200223 0.00583369 1e-05
-0.0200169 0.00586695 1e-05
-0.0200114 0.00590021 1e-05
-0.0200059 0.00593346 1e-05
-0.0200004 0.00596671 1e-05
-0.0199948 0.006 1e-05
-0.019978 0.0061 1e-05
-0.0199609 0.00619995 1e-05
-0.0199436 0.00629986 1e-05
-0.019926 0.00639972 1e-05
-0.019908 0.0065 1e-05
-0.0198898 0.0066 1e-05
-0.0198713 0.00669995 1e-05
-0.0198525 0.00679985 1e-05
-0.0198335 0.00689969 1e-05
-0.0198141 0.007 1e-05
-0.0198035 0.00705364 1e-05
-0.0197929 0.00710727 1e-05
-0.0197822 0.00716088 1e-05
-0.0197714 0.00721447 1e-05
-0.0197614 0.00726409 1e-05
-0.0197517 0.00731127 1e-05
-0.019742 0.00735844 1e-05
-0.0197323 0.0074056 1e-05
-0.0197225 0.00745274 1e-05
-0.0197126 0.0075 1e-05
-0.0196915 0.0076 1e-05
-0.0196701 0.00769994 1e-05
-0.0196484 0.00779982 1e-05
-0.0196265 0.00789964 1e-05
-0.0196041 0.008 1e-05
-0.0195838 0.00808999 1e-05
-0.0195632 0.00817993 1e-05
-0.0195425 0.00826982 1e-05
-0.0195214 0.00835965 1e-05
-0.0195025 0.00843966 1e-05
-0.0194996 0.00845173 1e-05
-0.0194967 0.0084638 1e-05
-0.0194938 0.00847586 1e-05
-0.0194909 0.00848793 1e-05
-0.019488 0.0085 1e-05
-0.019464 0.0086 1e-05
-0.0194396 0.00869993 1e-05
-0.0194149 0.00879979 1e-05
-0.01939 0.00889958 1e-05
-0.0193645 0.009 1e-05
-0.0193408 0.00909272 1e-05
-0.0193168 0.00918537 1e-05
-0.0192925 0.00927796 1e-05
-0.019268 0.00937049 1e-05
-0.0192457 0.00945355 1e-05
-0.0192432 0.00946284 1e-05
-0.0192407 0.00947213 1e-05
-0.0192382 0.00948142 1e-05
-0.0192357 0.00949071 1e-05
-0.0192332 0.0095 1e-05
-0.019206 0.0096 1e-05
-0.0191785 0.00969992 1e-05
-0.0191507 0.00979976 1e-05
-0.0191226 0.00989951 1e-05
-0.019094 0.01 1e-05
-0.0190734 0.0100715 1e-05
-0.0190527 0.010143 1e-05
-0.0190318 0.0102144 1e-05
-0.0190107 0.0102857 1e-05
-0.018991 0.0103519 1e-05
-0.0189822 0.0103815 1e-05
-0.0189733 0.0104111 1e-05
-0.0189644 0.0104407 1e-05
-0.0189554 0.0104703 1e-05
-0.0189464 0.0105 1e-05
-0.018916 0.0106 1e-05
-0.0188852 0.0106999 1e-05
-0.0188542 0.0107997 1e-05
-0.0188228 0.0108994 1e-05
-0.0187909 0.011 1e-05
-0.0187804 0.0110327 1e-05
-0.0187699 0.0110654 1e-05
-0.0187593 0.0110981 1e-05
-0.0187487 0.0111307 1e-05
-0.0187384 0.0111624 1e-05
-0.0187163 0.0112299 1e-05
-0.0186941 0.0112974 1e-05
-0.0186718 0.0113648 1e-05
-0.0186493 0.0114322 1e-05
-0.0186266 0.0115 1e-05
-0.0185988 0.0115821 1e-05
-0.0185708 0.011664 1e-05
-0.0185427 0.011746 1e-05
-0.0185143 0.0118278 1e-05
-0.0184878 0.0119035 1e-05
-0.018481 0.0119228 1e-05
-0.0184742 0.0119421 1e-05
-0.0184673 0.0119614 1e-05
-0.0184605 0.0119807 1e-05
-0.0184537 0.012 1e-05
-0.0184181 0.0121 1e-05
-0.0183822 0.0121999 1e-05
-0.018346 0.0122997 1e-05
-0.0183094 0.0123993 1e-05
-0.0182722 0.0125 1e-05
-0.0182656 0.0125176 1e-05
-0.018259 0.0125353 1e-05
-0.0182523 0.0125529 1e-05
-0.0182457 0.0125705 1e-05
-0.0182392 0.0125879 1e-05
-0.0182081 0.0126703 1e-05
-0.0181768 0.0127527 1e-05
-0.0181453 0.0128349 1e-05
-0.0181136 0.0129171 1e-05
-0.0180813 0.013 1e-05
-0.0180635 0.0130452 1e-05
-0.0180457 0.0130904 1e-05
-0.0180279 0.0131356 1e-05
-0.0180099 0.0131807 1e-05
-0.0179926 0.0132242 1e-05
-0.0179705 0.0132793 1e-05
-0.0179483 0.0133345 1e-05
-0.017926 0.0133895 1e-05
-0.0179036 0.0134446 1e-05
-0.0178809 0.0135 1e-05
-0.0178543 0.0135646 1e-05
-0.0178276 0.0136292 1e-05
-0.0178007 0.0136937 1e-05
-0.0177737 0.0137581 1e-05
-0.017748 0.0138193 1e-05
-0.0177327 0.0138554 1e-05
-0.0177173 0.0138915 1e-05
-0.0177019 0.0139277 1e-05
-0.0176865 0.0139637 1e-05
-0.0176709 0.014 1e-05
-0.0176378 0.0140769 1e-05
-0.0176045 0.0141536 1e-05
-0.017571 0.0142303 1e-05
-0.0175373 0.0143069 1e-05
-0.0175053 0.014379 1e-05
-0.0174946 0.0144032 1e-05
-0.0174837 0.0144274 1e-05
-0.0174729 0.0144516 1e-05
-0.017462 0.0144757 1e-05
-0.0174511 0.0145 1e-05
-0.0174138 0.0145827 1e-05
-0.0173763 0.0146653 1e-05
-0.0173386 0.0147478 1e-05
-0.0173006 0.0148302 1e-05
-0.0172647 0.0149075 1e-05
-0.017256 0.014926 1e-05
-0.0172474 0.0149445 1e-05
-0.0172387 0.014963 1e-05
-0.01723 0.0149815 1e-05
-0.0172213 0.015 1e-05
-0.0171822 0.0150829 1e-05
-0.0171429 0.0151656 1e-05
-0.0171034 0.0152483 1e-05
-0.0170636 0.0153308 1e-05
-0.0170259 0.0154084 1e-05
-0.017017 0.0154267 1e-05
-0.017008 0.015445 1e-05
-0.016999 0.0154633 1e-05
-0.01699 0.0154816 1e-05
-0.016981 0.0155 1e-05
-0.0169426 0.0155779 1e-05
-0.016904 0.0156557 1e-05
-0.0168652 0.0157334 1e-05
-0.0168262 0.015811 1e-05
-0.0167891 0.0158843 1e-05
-0.0167773 0.0159074 1e-05
-0.0167655 0.0159306 1e-05
-0.0167537 0.0159537 1e-05
-0.0167418 0.0159768 1e-05
-0.0167299 0.016 1e-05
-0.0166948 0.0160683 1e-05
-0.0166595 0.0161365 1e-05
-0.016624 0.0162047 1e-05
-0.0165884 0.0162727 1e-05
-0.0165542 0.0163375 1e-05
-0.016537 0.01637 1e-05
-0.0165197 0.0164025 1e-05
-0.0165024 0.016435 1e-05
-0.0164851 0.0164674 1e-05
-0.0164677 0.0165 1e-05
-0.0164384 0.0165546 1e-05
-0.016409 0.016609 1e-05
-0.0163794 0.0166635 1e-05
-0.0163498 0.0167179 1e-05
-0.0163212 0.0167703 1e-05
-0.0162959 0.0168162 1e-05
-0.0162706 0.0168621 1e-05
-0.0162452 0.016908 1e-05
-0.0162197 0.0169538 1e-05
-0.0161939 0.017 1e-05
-0.0161731 0.0170371 1e-05
-0.0161523 0.0170741 1e-05
-0.0161314 0.0171112 1e-05
-0.0161105 0.0171482 1e-05
-0.01609 0.0171843 1e-05
-0.0160541 0.0172474 1e-05
-0.016018 0.0173105 1e-05
-0.0159818 0.0173735 1e-05
-0.0159454 0.0174364 1e-05
-0.0159085 0.0175 1e-05
-0.0158989 0.0175163 1e-05
-0.0158894 0.0175327 1e-05
-0.0158798 0.017549 1e-05
-0.0158702 0.0175653 1e-05
-0.0158607 0.0175815 1e-05
-0.0158153 0.0176588 1e-05
-0.0157696 0.017736 1e-05
-0.0157236 0.0178131 1e-05
-0.0156775 0.01789 1e-05
-0.0156333 0.0179632 1e-05
-0.0156288 0.0179706 1e-05
-0.0156244 0.0179779 1e-05
-0.0156199 0.0179853 1e-05
-0.0156154 0.0179926 1e-05
-0.015611 0.018 1e-05
-0.0155703 0.0180668 1e-05
-0.0155295 0.0181334 1e-05
-0.0154885 0.0182 1e-05
-0.0154474 0.0182664 1e-05
-0.0154077 0.0183302 1e-05
-0.0153865 0.0183641 1e-05
-0.0153652 0.0183981 1e-05
-0.0153438 0.018432 1e-05
-0.0153224 0.0184659 1e-05
-0.0153009 0.0185 1e-05
-0.0152775 0.0185369 1e-05
-0.015254 0.0185737 1e-05
-0.0152305 0.0186105 1e-05
-0.015207 0.0186473 1e-05
-0.0151839 0.0186832 1e-05
-0.0151431 0.0187466 1e-05
-0.0151022 0.0188098 1e-05
-0.0150611 0.018873 1e-05
-0.0150198 0.0189361 1e-05
-0.0149778 0.019 1e-05
-0.0149746 0.0190048 1e-05
-0.0149715 0.0190096 1e-05
-0.0149683 0.0190144 1e-05
-0.0149651 0.0190192 1e-05
-0.0149619 0.019024 1e-05
-0.0149179 0.0190905 1e-05
-0.0148737 0.0191569 1e-05
-0.0148293 0.0192232 1e-05
-0.0147848 0.0192894 1e-05
-0.0147417 0.0193531 1e-05
-0.0147218 0.0193825 1e-05
-0.0147018 0.0194118 1e-05
-0.0146817 0.0194412 1e-05
-0.0146616 0.0194705 1e-05
-0.0146414 0.0195 1e-05
-0.0146178 0.0195343 1e-05
-0.0145941 0.0195686 1e-05
-0.0145704 0.0196029 1e-05
-0.0145467 0.0196371 1e-05
-0.0145233 0.0196707 1e-05
-0.01448 0.0197328 1e-05
-0.0144365 0.0197949 1e-05
-0.0143929 0.0198568 1e-05
-0.0143491 0.0199186 1e-05
-0.0143067 0.0199783 1e-05
-0.0143036 0.0199826 1e-05
-0.0143005 0.019987 1e-05
-0.0142974 0.0199913 1e-05
-0.0142943 0.0199957 1e-05
-0.0142912 0.02 1e-05
-0.0142513 0.0200557 1e-05
-0.0142113 0.0201113 1e-05
-0.0141712 0.0201669 1e-05
-0.0141309 0.0202223 1e-05
-0.0140917 0.0202761 1e-05
-0.014059 0.0203209 1e-05
-0.0140261 0.0203656 1e-05
-0.0139932 0.0204103 1e-05
-0.0139602 0.0204549 1e-05
-0.0139267 0.0205 1e-05
-0.0139171 0.0205129 1e-05
-0.0139074 0.0205258 1e-05
-0.0138978 0.0205388 1e-05
-0.0138882 0.0205517 1e-05
-0.0138786 0.0205645 1e-05
-0.0138363 0.020621 1e-05
-0.0137939 0.0206774 1e-05
-0.0137513 0.0207337 1e-05
-0.0137087 0.0207899 1e-05
-0.0136671 0.0208444 1e-05
-0.0136433 0.0208755 1e-05
-0.0136194 0.0209066 1e-05
-0.0135955 0.0209377 1e-05
-0.0135716 0.0209687 1e-05
-0.0135474 0.021 1e-05
-0.0135294 0.0210233 1e-05
-0.0135114 0.0210465 1e-05
-0.0134933 0.0210697 1e-05
-0.0134752 0.0210929 1e-05
-0.0134573 0.0211158 1e-05
-0.0134157 0.021169 1e-05
-0.013374 0.0212222 1e-05
-0.0133322 0.0212752 1e-05
-0.0132902 0.0213282 1e-05
-0.0132493 0.0213797 1e-05
-0.0132301 0.0214038 1e-05
-0.0132108 0.0214278 1e-05
-0.0131916 0.0214518 1e-05
-0.0131723 0.0214758 1e-05
-0.0131529 0.0215 1e-05
-0.0131309 0.0215273 1e-05
-0.0131088 0.0215546 1e-05
-0.0130868 0.0215819 1e-05
-0.0130647 0.0216091 1e-05
-0.0130429 0.021636 1e-05
-0.0130019 0.0216862 1e-05
-0.0129609 0.0217364 1e-05
-0.0129197 0.0217866 1e-05
-0.0128785 0.0218366 1e-05
-0.0128381 0.0218854 1e-05
-0.0128191 0.0219083 1e-05
-0.0128 0.0219312 1e-05
-0.012781 0.0219541 1e-05
[...]
POINT_DATA 12090
 FIELD attributes 2
p 1 12090 float
0.00537816 0.00607793 0.00676844 0.00745879 0.00814914 0.00883412 0.0094141 0.00999303 0.0105699 0.0111467 0.0117248 0.012334 0.0129445 0.0135517 0.014158 0.0147667 0.0154035 0.0160407 0.016678 0.0173119 0.0179474 0.0185898 0.0192325 0.0198751 0.0205178 0.0211597 0.0216852 0.0222107 0.0227362 0.0232617 0.0236844 0.0238181 0.0239515 0.0240849 0.0242183 0.0243513 0.0249836 0.0256154 0.0262471 0.0268788 0.0275122 0.0281392 0.0287656 0.0293913 0.0300169 0.0306443 0.0312648 0.0318852 0.0325054 0.0331255 0.0337474 0.0341679 0.034588 0.0350081 0.0354281 0.0357997 0.0360046 0.0362096 0.0364145 0.0366193 0.0368245 0.0374339 0.0380435 0.0386532 0.0392627 0.0398752 0.0404794 0.0410837 0.0416878 0.0422921 0.0428997 0.0432211 0.0435426 0.0438642 0.0441856 0.0444835 0.044767 0.0450501 0.0453331 0.0456162 0.0458996 0.0464948 0.0470897 0.0476849 0.0482801 0.0488782 0.0494105 0.0499423 0.050474 0.0510056 0.0514789 0.0515501 0.0516215 0.0516929 0.0517644 0.0518361 0.0524239 0.0530123 0.0536004 0.0541883 0.0547803 0.055323 0.0558658 0.0564084 0.0569508 0.0574382 0.0574929 0.0575474 0.0576018 0.0576562 0.0577103 0.0582946 0.0588785 0.0594622 0.0600456 0.0606331 0.0610502 0.0614668 0.0618833 0.0622996 0.0626853 0.0628577 0.0630303 0.063203 0.0633756 0.0635489 0.0641309 0.0647128 0.0652948 0.0658766 0.0664638 0.0666541 0.0668446 0.0670352 0.0672256 0.0674104 0.067804 0.0681971 0.0685899 0.0689826 0.0693774 0.0698563 0.0703346 0.0708125 0.0712902 0.0717321 0.0718442 0.0719568 0.0720693 0.0721818 0.0722949 0.0728783 0.0734614 0.0740443 0.0746267 0.0752156 0.0753185 0.0754217 0.075525 0.0756282 0.0757303 0.0762129 0.0766949 0.0771765 0.0776577 0.0781431 0.0784086 0.0786735 0.0789382 0.0792029 0.0794573 0.0797806 0.080104 0.0804272 0.0807503 0.0810757 0.0814552 0.0818349 0.0822143 0.0825935 0.0829537 0.0831666 0.0833793 0.0835919 0.0838043 0.0840176 0.0844705 0.0849225 0.085374 0.0858252 0.0862492 0.0863919 0.0865347 0.0866775 0.0868202 0.0869635 0.0874512 0.087939 0.0884263 0.0889131 0.0893705 0.0894801 0.0895895 0.0896989 0.0898082 0.0899177 0.0904076 0.0908964 0.0913846 0.0918724 0.0923303 0.0924389 0.0925475 0.092656 0.0927646 0.0928734 0.0933337 0.0937942 0.0942541 0.0947136 0.0951486 0.0952862 0.0954236 0.095561 0.0956984 0.0958361 0.0962404 0.0966434 0.097046 0.0974483 0.097831 0.0980242 0.0982172 0.09841 0.0986028 0.0987965 0.0991179 0.0994397 0.0997613 0.100083 0.100393 0.100666 0.100938 0.101211 0.101483 0.101757 0.101976 0.102194 0.102412 0.102629 0.102841 0.103215 0.103588 0.103962 0.104334 0.104711 0.104806 0.104902 0.104997 0.105093 0.105188 0.105644 0.1061 0.106554 0.107008 0.10744 0.107483 0.107527 0.10757 0.107614 0.107659 0.10805 0.10844 0.10883 0.109219 0.109591 0.109793 0.109994 0.110194 0.110394 0.110594 0.110808 0.111021 0.111234 0.111447 0.111655 0.112025 0.112396 0.112766 0.113137 0.113513 0.113542 0.113569 0.113597 0.113624 0.113651 0.114036 0.114418 0.1148 0.115182 0.115547 0.11572 0.115892 0.116063 0.116235 0.116407 0.116601 0.116796 0.116991 0.117186 0.117378 0.117735 0.118093 0.118449 0.118806 0.11915 0.119173 0.119199 0.119224 0.11925 0.119277 0.119591 0.119905 0.120218 0.12053 0.120832 0.121091 0.121347 0.121602 0.121858 0.122113 0.122184 0.122255 0.122325 0.122396 0.122466 0.12278 0.123094 0.123408 0.123721 0.124027 0.124203 0.124379 0.124555 0.124731 0.124908 0.125037 0.125161 0.125286 0.125411 0.125531 0.125825 0.126118 0.126409 0.1267 0.126982 0.12712 0.127254 0.127388 0.127523 0.127654 0.127797 0.127941 0.128084 0.128228 0.12837 0.128639 0.128911 0.129182 0.129452 0.129719 0.129844 0.12997 0.130096 0.130222 0.130349 0.130485 0.130617 0.130748 0.13088 0.131005 0.131259 0.131511 0.131762 0.132012 0.132255 0.132406 0.132552 0.132698 0.132844 0.132987 0.13308 0.133174 0.133268 0.133361 0.133454 0.133682 0.133913 0.134143 0.134373 0.134602 0.134791 0.13498 0.135169 0.135359 0.13555 0.135592 0.135628 0.135664 0.1357 0.13573 0.135945 0.136157 0.136369 0.136581 0.136787 0.137006 0.137219 0.137432 0.137645 0.137847 0.137893 0.137935 0.137978 0.13802 0.13806 0.138212 0.138367 0.138523 0.138679 0.138837 0.139032 0.139228 0.139424 0.139619 0.139811 0.139947 0.140088 0.140229 0.14037 0.140518 0.140572 0.140624 0.140676 0.140727 0.140776 0.140964 0.141143 0.141323 0.141503 0.141673 0.141862 0.142047 0.142233 0.142418 0.142597 0.142674 0.142744 0.142814 0.142884 0.142946 0.143048 0.143149 0.143251 0.143353 0.143454 0.143616 0.143784 0.143952 0.144119 0.14429 0.14446 0.144631 0.144802 0.144972 0.145141 0.14517 0.145206 0.145241 0.145276 0.145317 0.145444 0.145568 0.145692 0.145816 0.145935 0.146102 0.146261 0.146419 0.146577 0.146725 0.146893 0.147057 0.147222 0.147387 0.147547 0.147591 0.147625 0.147659 0.147694 0.147719 0.147834 0.14795 0.148065 0.148181 0.148295 0.148441 0.148593 0.148745 0.148897 0.149055 0.14921 0.149366 0.149521 0.149677 0.149831 0.14989 0.149955 0.15002 0.150086 0.150158 0.150247 0.150333 0.150419 0.150505 0.150588 0.150745 0.150892 0.15104 0.151187 0.151323 0.151482 0.151638 0.151794 0.15195 0.152102 0.15224 0.152368 0.152496 0.152624 0.152744 0.152771 0.152798 0.152825 0.152851 0.152877 0.153016 0.153163 0.153311 0.153459 0.153613 0.153765 0.153916 0.154066 0.154217 0.154366 0.154518 0.154679 0.15484 0.155001 0.155169 0.155242 0.155314 0.155387 0.155459 0.155529 0.155624 0.155708 0.155792 0.155876 0.155949 0.156112 0.156273 0.156435 0.156597 0.156758 0.156935 0.157101 0.157268 0.157433 0.157587 0.157765 0.157943 0.158122 0.158301 0.158479 0.158549 0.158608 0.158667 0.158726 0.158774 0.158893 0.159008 0.159123 0.159238 0.159349 0.159526 0.159709 0.159892 0.160076 0.160267 0.160462 0.160652 0.160842 0.16103 0.161212 0.161406 0.161609 0.161813 0.162017 0.162226 0.162332 0.162432 0.162532 0.162632 0.162727 0.162842 0.162946 0.163051 0.163156 0.163251 0.163465 0.16368 0.163895 0.164111 0.164331 0.164568 0.164796 0.165019 0.165241 0.165452 0.165686 0.165927 0.166168 0.166407 0.166647 0.166887 0.167119 0.167351 0.167583 0.167809 0.167826 0.167843 0.16786 0.167877 0.167884 0.16814 0.168404 0.168669 0.168934 0.169207 0.169499 0.169775 0.170047 0.170318 0.17058 0.17087 0.17117 0.171467 0.171753 0.172047 0.172361 0.172666 0.172971 0.173276 0.173557 0.173785 0.174023 0.17426 0.174498 0.174747 0.174821 0.174907 0.174993 0.175079 0.175177 0.175522 0.175853 0.176184 0.176515 0.176836 0.177197 0.177564 0.177921 0.178277 0.178646 0.179041 0.179428 0.17981 0.180176 0.180532 0.180935 0.181355 0.181774 0.182193 0.182606 0.18301 0.183406 0.183803 0.184199 0.184591 0.184638 0.184685 0.184731 0.184774 0.184805 0.185282 0.18577 0.186258 0.186747 0.187247 0.187799 0.188316 0.188827 0.189339 0.189835 0.190379 0.190937 0.191476 0.192005 0.192545 0.193149 0.193742 0.194336 0.194911 0.195461 0.196059 0.196669 0.197279 0.19789 0.198494 0.198829 0.199154 0.19948 0.199806 0.200123 0.200463 0.200795 0.201128 0.20146 0.201785 0.202458 0.203126 0.203794 0.204463 0.205144 0.205899 0.206629 0.207339 0.208048 0.208749 0.209494 0.210251 0.210988 0.211705 0.212431 0.213236 0.214033 0.214831 0.215608 0.216354 0.217152 0.217957 0.218763 0.21957 0.220358 0.220847 0.221329 0.221811 0.222293 0.222771 0.223129 0.223489 0.223848 0.224208 0.224568 0.225441 0.226308 0.227175 0.228042 0.228922 0.229865 0.230774 0.231666 0.232557 0.233449 0.234393 0.235353 0.236268 0.237171 0.238088 0.239065 0.240048 0.24103 0.24196 0.242885 0.24387 0.244872 0.245874 0.246874 0.24783 0.248851 0.249877 0.250904 0.251931 0.25295 0.253145 0.253357 0.253568 0.253787 0.254009 0.25486 0.255716 0.256571 0.257427 0.258286 0.259436 0.260532 0.261629 0.262726 0.263817 0.265006 0.266165 0.267287 0.268409 0.269537 0.270762 0.271982 0.273152 0.274299 0.275442 0.27668 0.277923 0.279166 0.280345 0.281522 0.282793 0.284058 0.285323 0.286585 0.287777 0.289066 0.29036 0.291654 0.292947 0.294242 0.294579 0.29491 0.295241 0.295571 0.295896 0.296895 0.297902 0.298908 0.299914 0.300937 0.302338 0.303703 0.305066 0.306429 0.307839 0.309259 0.310639 0.311976 0.313311 0.31469 0.316073 0.317472 0.318819 0.320132 0.321513 0.322855 0.324197 0.325538 0.326828 0.328151 0.329432 0.330729 0.332024 0.333317 0.334664 0.335324 0.335987 0.33665 0.337312 0.337946 0.338647 0.339346 0.340044 0.340742 0.341465 0.343089 0.344674 0.346256 0.347835 0.349578 0.351952 0.354332 0.356598 0.358855 0.36136 0.364777 0.368209 0.371617 0.374942 0.378588 0.381888 0.385152 0.388396 0.391619 0.394615 0.395183 0.395743 0.396301 0.396857 0.397411 0.399596 0.401699 0.403795 0.405883 0.40825 0.410582 0.412949 0.415341 0.417755 0.420016 0.420662 0.421319 0.421978 0.422637 0.423336 0.426921 0.430555 0.434207 0.437876 0.441359 0.442054 0.442781 0.443508 0.444235 0.44502 0.449647 0.454305 0.458962 0.463619 0.468135 0.469859 0.471614 0.47337 0.475126 0.47702 0.48132 0.485625 0.489926 0.494224 0.498445 0.502427 0.506416 0.510402 0.514387 0.518801 0.521244 0.52369 0.526135 0.52858 0.53101 0.537914 0.544819 0.551722 0.558623 0.565368 0.566171 0.566978 0.567784 0.568591 0.569414 0.575772 0.582135 0.588497 0.594859 0.60115 0.607152 0.613157 0.619163 0.625169 0.631887 0.63336 0.63484 0.63632 0.6378 0.639285 0.647346 0.655388 0.663424 0.671461 0.679424 0.685706 0.691997 0.698288 0.70458 0.711618 0.713731 0.715852 0.717974 0.720096 0.722222 0.731283 0.740324 0.749365 0.758408 0.767384 0.776996 0.786618 0.796242 0.805868 0.815421 0.816112 0.81681 0.817508 0.818209 0.81892 0.828303 0.837698 0.847095 0.856494 0.865844 0.876481 0.88713 0.897776 0.908416 0.918997 0.930153 0.941319 0.952487 0.963656 0.974769 0.975958 0.977153 0.978348 0.979546 0.98078 0.991145 1.00152 1.01189 1.02227 1.0326 1.04454 1.05652 1.06854 1.08056 1.09252 1.10481 1.1171 1.12942 1.14183 1.15419 1.16673 1.17926 1.1918 1.20441 1.21709 1.22975 1.2424 1.25506 1.26772 1.28056 1.29318 1.30579 1.31841 1.33102 1.34377 1.35618 1.36857 1.38097 1.39338 1.40589 1.41801 1.43011 1.44222 1.45434 1.4666 1.47868 1.49076 1.50285 1.51495 1.52727 1.54048 1.55374 1.56701 1.58029 1.5939 1.61135 1.62895 1.64656 1.66421 1.68222 1.71001 1.73812 1.76623 1.79443 1.82303 1.86918 1.91583 1.96248 2.0094 2.05682 2.1231 2.18968 2.25683 2.32458 2.39263 2.46243 2.5317 2.60465 2.67779 2.75043 2.78879 2.82899 2.874 2.91902 2.9624 2.95376 2.95488 2.95737 2.95984 2.96087 3.00449 3.06069 3.11674 3.17263 3.23135 3.32598 3.42277 3.51936 3.61576 3.81323 3.82315 3.83307 3.84298 3.85289 3.8628 3.9297 3.9928 4.05557 4.11801 4.17732