# vtk DataFile Version 2.0
track0
ASCII
DATASET POLYDATA
POINTS 12125 float
-0.0205 0.001 1e-05
-0.020491 0.0011 1e-05
-0.0204819 0.00119999 1e-05
-0.0204726 0.00129997 1e-05
-0.0204633 0.00139993 1e-05
-0.0204538 0.0015 1e-05
-0.0204441 0.0016 1e-05
-0.0204343 0.00169998 1e-05
-0.0204244 0.00179995 1e-05
-0.0204143 0.0018999 1e-05
-0.020404 0.002 1e-05
-0.0203935 0.0021 1e-05
-0.0203828 0.00219998 1e-05
-0.020372 0.00229994 1e-05
-0.0203609 0.00239987 1e-05
-0.0203497 0.0025 1e-05
-0.0203382 0.0026 1e-05
-0.0203266 0.00269997 1e-05
-0.0203147 0.00279992 1e-05
-0.0203026 0.00289985 1e-05
-0.0202902 0.003 1e-05
-0.0202893 0.0030077 1e-05
-0.0202883 0.00301539 1e-05
-0.0202873 0.00302309 1e-05
-0.0202864 0.00303078 1e-05
-0.0202854 0.00303836 1e-05
-0.0202737 0.00313069 1e-05
-0.0202618 0.00322299 1e-05
-0.0202497 0.00331527 1e-05
-0.0202375 0.00340752 1e-05
-0.0202249 0.0035 1e-05
-0.0202112 0.0036 1e-05
-0.0201971 0.00369996 1e-05
-0.0201829 0.00379989 1e-05
-0.0201683 0.00389979 1e-05
-0.0201535 0.004 1e-05
-0.0201384 0.0041 1e-05
-0.0201231 0.00419996 1e-05
-0.0201075 0.00429988 1e-05
-0.0200917 0.00439976 1e-05
-0.0200755 0.0045 1e-05
-0.0200648 0.00456475 1e-05
-0.0200541 0.00462949 1e-05
-0.0200432 0.0046942 1e-05
-0.0200323 0.0047589 1e-05
-0.0200223 0.0048169 1e-05
-0.020016 0.00485352 1e-05
-0.0200096 0.00489014 1e-05
-0.0200032 0.00492674 1e-05
-0.0199968 0.00496334 1e-05
-0.0199903 0.005 1e-05
-0.0199724 0.0051 1e-05
-0.0199543 0.00519995 1e-05
-0.0199359 0.00529985 1e-05
-0.0199173 0.00539969 1e-05
-0.0198982 0.0055 1e-05
-0.019879 0.0056 1e-05
-0.0198594 0.00569994 1e-05
-0.0198396 0.00579983 1e-05
-0.0198194 0.00589966 1e-05
-0.0197989 0.006 1e-05
-0.0197914 0.00603616 1e-05
-0.0197838 0.00607231 1e-05
-0.0197763 0.00610845 1e-05
-0.0197686 0.00614459 1e-05
-0.0197614 0.00617892 1e-05
-0.0197477 0.00624314 1e-05
-0.0197339 0.00630733 1e-05
-0.01972 0.00637149 1e-05
-0.0197059 0.00643563 1e-05
-0.0196917 0.0065 1e-05
-0.0196694 0.0066 1e-05
-0.0196468 0.00669993 1e-05
-0.0196239 0.0067998 1e-05
-0.0196008 0.0068996 1e-05
-0.0195771 0.007 1e-05
-0.0195622 0.00706258 1e-05
-0.0195472 0.00712512 1e-05
-0.019532 0.00718764 1e-05
-0.0195167 0.00725013 1e-05
-0.0195025 0.00730782 1e-05
-0.019493 0.00734626 1e-05
-0.0194834 0.00738468 1e-05
-0.0194737 0.0074231 1e-05
-0.0194641 0.0074615 1e-05
-0.0194543 0.0075 1e-05
-0.0194289 0.0076 1e-05
-0.0194031 0.00769992 1e-05
-0.0193771 0.00779976 1e-05
-0.0193507 0.00789953 1e-05
-0.0193238 0.008 1e-05
-0.0193082 0.00805767 1e-05
-0.0192925 0.00811531 1e-05
-0.0192767 0.00817292 1e-05
-0.0192607 0.00823051 1e-05
-0.0192457 0.00828437 1e-05
-0.0192337 0.0083275 1e-05
-0.0192215 0.00837061 1e-05
-0.0192093 0.0084137 1e-05
-0.019197 0.00845678 1e-05
-0.0191847 0.0085 1e-05
-0.0191559 0.0086 1e-05
-0.0191269 0.00869991 1e-05
-0.0190975 0.00879973 1e-05
-0.0190678 0.00889945 1e-05
-0.0190375 0.009 1e-05
-0.0190282 0.00903051 1e-05
-0.0190189 0.00906101 1e-05
-0.0190095 0.00909151 1e-05
-0.0190002 0.00912199 1e-05
-0.018991 0.00915151 1e-05
-0.0189694 0.00922121 1e-05
-0.0189477 0.00929086 1e-05
-0.0189258 0.00936046 1e-05
-0.0189037 0.00943001 1e-05
-0.0188813 0.0095 1e-05
-0.0188527 0.00958874 1e-05
-0.0188239 0.0096774 1e-05
-0.0187948 0.00976598 1e-05
-0.0187655 0.00985447 1e-05
-0.0187384 0.00993529 1e-05
-0.018734 0.00994823 1e-05
-0.0187296 0.00996117 1e-05
-0.0187253 0.00997411 1e-05
-0.0187209 0.00998705 1e-05
-0.0187165 0.01 1e-05
-0.0186825 0.0101 1e-05
-0.0186481 0.0101999 1e-05
-0.0186134 0.0102997 1e-05
-0.0185784 0.0103993 1e-05
-0.0185427 0.0105 1e-05
-0.0185317 0.0105306 1e-05
-0.0185207 0.0105613 1e-05
-0.0185097 0.0105919 1e-05
-0.0184986 0.0106225 1e-05
-0.0184878 0.0106522 1e-05
-0.0184624 0.0107218 1e-05
-0.0184369 0.0107913 1e-05
-0.0184113 0.0108607 1e-05
-0.0183854 0.0109301 1e-05
-0.0183592 0.011 1e-05
-0.0183352 0.0110636 1e-05
-0.0183111 0.0111271 1e-05
-0.0182868 0.0111906 1e-05
-0.0182624 0.0112541 1e-05
-0.0182392 0.0113139 1e-05
-0.0182247 0.0113511 1e-05
-0.0182101 0.0113883 1e-05
-0.0181955 0.0114255 1e-05
-0.0181809 0.0114627 1e-05
-0.0181661 0.0115 1e-05
-0.0181314 0.0115874 1e-05
-0.0180964 0.0116747 1e-05
-0.0180612 0.0117619 1e-05
-0.0180257 0.0118489 1e-05
-0.0179926 0.0119295 1e-05
-0.0179868 0.0119436 1e-05
-0.0179809 0.0119577 1e-05
-0.0179751 0.0119718 1e-05
-0.0179692 0.0119859 1e-05
-0.0179633 0.012 1e-05
-0.0179216 0.0121 1e-05
-0.0178795 0.0121999 1e-05
-0.0178371 0.0122996 1e-05
-0.0177944 0.0123991 1e-05
-0.0177506 0.0125 1e-05
-0.0177501 0.0125012 1e-05
-0.0177496 0.0125024 1e-05
-0.017749 0.0125036 1e-05
-0.0177485 0.0125048 1e-05
-0.017748 0.012506 1e-05
-0.0177047 0.0126048 1e-05
-0.0176611 0.0127035 1e-05
-0.0176171 0.0128019 1e-05
-0.0175728 0.0129003 1e-05
-0.0175274 0.013 1e-05
-0.017523 0.0130096 1e-05
-0.0175186 0.0130192 1e-05
-0.0175142 0.0130288 1e-05
-0.0175097 0.0130384 1e-05
-0.0175053 0.013048 1e-05
-0.0174636 0.0131384 1e-05
-0.0174217 0.0132286 1e-05
-0.0173794 0.0133188 1e-05
-0.0173368 0.0134088 1e-05
-0.0172933 0.0135 1e-05
-0.0172875 0.0135119 1e-05
-0.0172818 0.0135238 1e-05
-0.0172761 0.0135356 1e-05
-0.0172704 0.0135475 1e-05
-0.0172647 0.0135593 1e-05
-0.017222 0.0136474 1e-05
-0.0171791 0.0137354 1e-05
-0.0171359 0.0138233 1e-05
-0.0170924 0.013911 1e-05
-0.0170479 0.014 1e-05
-0.0170435 0.0140087 1e-05
-0.0170391 0.0140175 1e-05
-0.0170347 0.0140262 1e-05
-0.0170303 0.0140349 1e-05
-0.0170259 0.0140436 1e-05
-0.0169797 0.0141349 1e-05
-0.0169332 0.014226 1e-05
-0.0168864 0.014317 1e-05
-0.0168393 0.0144078 1e-05
-0.0167911 0.0145 1e-05
-0.0167907 0.0145008 1e-05
-0.0167903 0.0145015 1e-05
-0.0167899 0.0145023 1e-05
-0.0167895 0.014503 1e-05
-0.0167891 0.0145038 1e-05
-0.0167421 0.0145929 1e-05
-0.0166948 0.0146818 1e-05
-0.0166473 0.0147705 1e-05
-0.0165994 0.0148591 1e-05
-0.0165542 0.0149421 1e-05
-0.0165478 0.0149536 1e-05
-0.0165415 0.0149652 1e-05
-0.0165351 0.0149768 1e-05
-0.0165287 0.0149884 1e-05
-0.0165223 0.015 1e-05
-0.0164821 0.0150729 1e-05
-0.0164417 0.0151457 1e-05
-0.016401 0.0152184 1e-05
-0.0163602 0.015291 1e-05
-0.0163212 0.01536 1e-05
-0.0163052 0.015388 1e-05
-0.0162892 0.015416 1e-05
-0.0162732 0.0154439 1e-05
-0.0162572 0.0154719 1e-05
-0.016241 0.0155 1e-05
-0.0162108 0.0155523 1e-05
-0.0161805 0.0156046 1e-05
-0.0161501 0.0156569 1e-05
-0.0161196 0.015709 1e-05
-0.01609 0.0157593 1e-05
-0.0160616 0.0158075 1e-05
-0.0160331 0.0158556 1e-05
-0.0160045 0.0159036 1e-05
-0.0159759 0.0159516 1e-05
-0.0159468 0.016 1e-05
-0.0159296 0.0160285 1e-05
-0.0159123 0.0160571 1e-05
-0.0158951 0.0160856 1e-05
-0.0158778 0.0161141 1e-05
-0.0158607 0.016142 1e-05
-0.015817 0.0162136 1e-05
-0.0157731 0.0162851 1e-05
-0.0157291 0.0163564 1e-05
-0.0156848 0.0164277 1e-05
-0.0156395 0.0165 1e-05
-0.0156383 0.016502 1e-05
-0.015637 0.0165039 1e-05
-0.0156358 0.0165059 1e-05
-0.0156345 0.0165078 1e-05
-0.0156333 0.0165098 1e-05
-0.0155882 0.0165814 1e-05
-0.0155429 0.0166529 1e-05
-0.0154973 0.0167242 1e-05
-0.0154516 0.0167954 1e-05
-0.0154077 0.0168634 1e-05
-0.0153899 0.0168907 1e-05
-0.0153722 0.016918 1e-05
-0.0153543 0.0169453 1e-05
-0.0153365 0.0169726 1e-05
-0.0153185 0.017 1e-05
-0.0152916 0.0170409 1e-05
-0.0152646 0.0170818 1e-05
-0.0152375 0.0171226 1e-05
-0.0152104 0.0171634 1e-05
-0.0151839 0.0172032 1e-05
-0.0151442 0.0172625 1e-05
-0.0151043 0.0173218 1e-05
-0.0150643 0.017381 1e-05
-0.0150241 0.0174401 1e-05
-0.0149832 0.0175 1e-05
-0.0149789 0.0175062 1e-05
-0.0149747 0.0175124 1e-05
-0.0149704 0.0175186 1e-05
-0.0149662 0.0175248 1e-05
-0.0149619 0.0175309 1e-05
-0.0149179 0.0175949 1e-05
-0.0148737 0.0176587 1e-05
-0.0148293 0.0177225 1e-05
-0.0147848 0.0177861 1e-05
-0.0147417 0.0178473 1e-05
-0.0147201 0.0178778 1e-05
-0.0146985 0.0179083 1e-05
-0.0146768 0.0179388 1e-05
-0.0146551 0.0179693 1e-05
-0.0146332 0.018 1e-05
-0.0146112 0.0180307 1e-05
-0.0145892 0.0180613 1e-05
-0.0145671 0.0180919 1e-05
-0.0145451 0.0181224 1e-05
-0.0145233 0.0181524 1e-05
-0.01448 0.0182121 1e-05
-0.0144365 0.0182717 1e-05
-0.0143929 0.0183312 1e-05
-0.0143491 0.0183905 1e-05
-0.0143067 0.0184479 1e-05
-0.0142989 0.0184583 1e-05
-0.0142911 0.0184687 1e-05
-0.0142834 0.0184791 1e-05
-0.0142756 0.0184896 1e-05
-0.0142678 0.0185 1e-05
-0.0142326 0.0185471 1e-05
-0.0141973 0.0185941 1e-05
-0.0141619 0.018641 1e-05
-0.0141264 0.0186879 1e-05
-0.0140917 0.0187335 1e-05
-0.0140511 0.0187868 1e-05
-0.0140103 0.01884 1e-05
-0.0139694 0.0188931 1e-05
-0.0139284 0.0189462 1e-05
-0.0138866 0.019 1e-05
-0.013885 0.0190021 1e-05
-0.0138834 0.0190041 1e-05
-0.0138818 0.0190062 1e-05
-0.0138802 0.0190082 1e-05
-0.0138786 0.0190103 1e-05
-0.0138363 0.0190645 1e-05
-0.0137939 0.0191185 1e-05
-0.0137513 0.0191725 1e-05
-0.0137087 0.0192264 1e-05
-0.0136671 0.0192787 1e-05
-0.0136317 0.0193229 1e-05
-0.0135963 0.0193671 1e-05
-0.0135608 0.0194113 1e-05
-0.0135252 0.0194553 1e-05
-0.013489 0.0195 1e-05
-0.0134826 0.0195078 1e-05
-0.0134763 0.0195155 1e-05
-0.01347 0.0195233 1e-05
-0.0134636 0.0195311 1e-05
-0.0134573 0.0195388 1e-05
-0.0134157 0.0195898 1e-05
-0.013374 0.0196407 1e-05
-0.0133322 0.0196915 1e-05
-0.0132902 0.0197422 1e-05
-0.0132493 0.0197915 1e-05
-0.0132145 0.0198332 1e-05
-0.0131796 0.0198748 1e-05
-0.0131447 0.0199164 1e-05
-0.0131097 0.0199579 1e-05
-0.0130741 0.02 1e-05
-0.0130679 0.0200074 1e-05
-0.0130616 0.0200147 1e-05
-0.0130554 0.0200221 1e-05
-0.0130491 0.0200295 1e-05
-0.0130429 0.0200368 1e-05
-0.0130019 0.0200849 1e-05
-0.0129609 0.0201329 1e-05
-0.0129197 0.0201809 1e-05
-0.0128785 0.0202287 1e-05
-0.0128381 0.0202754 1e-05
-0.0127991 0.0203203 1e-05
-0.01276 0.0203652 1e-05
-0.0127208 0.0204099 1e-05
-0.0126816 0.0204546 1e-05
-0.0126416 0.0205 1e-05
-0.0126403 0.0205015 1e-05
-0.012639 0.020503 1e-05
-0.0126377 0.0205044 1e-05
-0.0126363 0.0205059 1e-05
-0.012635 0.0205074 1e-05
-0.0125947 0.0205529 1e-05
-0.0125544 0.0205983 1e-05
-0.0125139 0.0206437 1e-05
-0.0124734 0.020689 1e-05
-0.0124336 0.0207332 1e-05
-0.0123936 0.0207775 1e-05
-0.0123536 0.0208217 1e-05
[...]
POINT_DATA 12125
 FIELD attributes 1
U 3 12125 float
-0.0263031 	-0.292499 	0 -0.0266725 	-0.292476 	0 -0.0270427 	-0.292451 	0 -0.0274123 	-0.292426 	0 -0.027782 	-0.292399 	0 -0.028155 	-0.292372 	0 -0.0286363 	-0.292341 	0 -0.0291199 	-0.292309 	0 -0.0296009 	-0.292274 	0 -0.030081 	-0.292239 	0 -0.0305644 	-0.292202 	0 -0.0311349 	-0.292158 	0 -0.0317073 	-0.292113 	0 -0.0322795 	-0.292066 	0 -0.0328497 	-0.292018 	0 -0.0334212 	-0.291967 	0 -0.0340616 	-0.291909 	0 -0.0347034 	-0.291849 	0 -0.035345 	-0.291787 	0 -0.0359865 	-0.291725 	0 -0.0366305 	-0.29166 	0 -0.0366828 	-0.291655 	0 -0.0367363 	-0.291649 	0 -0.0367901 	-0.291643 	0 -0.0368441 	-0.291638 	0 -0.0368973 	-0.291632 	0 -0.037539 	-0.291563 	0 -0.0381817 	-0.291493 	0 -0.0388243 	-0.291422 	0 -0.0394667 	-0.291349 	0 -0.040112 	-0.291275 	0 -0.0408516 	-0.291186 	0 -0.0415903 	-0.291095 	0 -0.0423266 	-0.291002 	0 -0.0430628 	-0.290907 	0 -0.0438022 	-0.290811 	0 -0.0445723 	-0.290706 	0 -0.0453428 	-0.290599 	0 -0.046113 	-0.29049 	0 -0.0468814 	-0.290379 	0 -0.0476514 	-0.290266 	0 -0.0481646 	-0.290187 	0 -0.0486782 	-0.290107 	0 -0.0491917 	-0.290027 	0 -0.0497051 	-0.289946 	0 -0.050166 	-0.289873 	0 -0.0504566 	-0.289826 	0 -0.0507477 	-0.289779 	0 -0.0510387 	-0.289732 	0 -0.0513297 	-0.289685 	0 -0.0516217 	-0.289638 	0 -0.0524362 	-0.2895 	0 -0.0532479 	-0.28936 	0 -0.0540592 	-0.289218 	0 -0.0548703 	-0.289074 	0 -0.0556856 	-0.288928 	0 -0.0565137 	-0.288774 	0 -0.0573418 	-0.288619 	0 -0.0581696 	-0.288462 	0 -0.0589965 	-0.288303 	0 -0.0598257 	-0.28814 	0 -0.0601289 	-0.288079 	0 -0.0604323 	-0.288017 	0 -0.0607357 	-0.287955 	0 -0.061039 	-0.287892 	0 -0.0613275 	-0.287833 	0 -0.0618673 	-0.287722 	0 -0.0624073 	-0.28761 	0 -0.0629471 	-0.287497 	0 -0.0634867 	-0.287384 	0 -0.0640287 	-0.287269 	0 -0.0648811 	-0.287084 	0 -0.0657335 	-0.286897 	0 -0.0665838 	-0.286707 	0 -0.0674328 	-0.286516 	0 -0.0682874 	-0.286321 	0 -0.0688261 	-0.286195 	0 -0.0693648 	-0.286069 	0 -0.0699033 	-0.285941 	0 -0.0704416 	-0.285813 	0 -0.0709389 	-0.285694 	0 -0.0712706 	-0.285615 	0 -0.0716023 	-0.285535 	0 -0.071934 	-0.285455 	0 -0.0722657 	-0.285375 	0 -0.0725984 	-0.285294 	0 -0.0734711 	-0.285078 	0 -0.0743433 	-0.28486 	0 -0.0752131 	-0.28464 	0 -0.0760825 	-0.284418 	0 -0.0769586 	-0.284192 	0 -0.0774663 	-0.284058 	0 -0.0779741 	-0.283924 	0 -0.0784817 	-0.283789 	0 -0.0789892 	-0.283653 	0 -0.0794642 	-0.283526 	0 -0.0798449 	-0.283424 	0 -0.0802257 	-0.283321 	0 -0.0806064 	-0.283219 	0 -0.080987 	-0.283115 	0 -0.0813691 	-0.283012 	0 -0.0822612 	-0.282765 	0 -0.0831531 	-0.282517 	0 -0.084044 	-0.282267 	0 -0.0849329 	-0.282015 	0 -0.0858297 	-0.281758 	0 -0.0861044 	-0.281679 	0 -0.0863791 	-0.281598 	0 -0.0866538 	-0.281518 	0 -0.0869284 	-0.281438 	0 -0.0871945 	-0.281359 	0 -0.0878235 	-0.281175 	0 -0.0884524 	-0.28099 	0 -0.0890811 	-0.280804 	0 -0.0897095 	-0.280617 	0 -0.0903422 	-0.280428 	0 -0.0911517 	-0.280183 	0 -0.091961 	-0.279937 	0 -0.0927698 	-0.279689 	0 -0.0935781 	-0.27944 	0 -0.0943167 	-0.279212 	0 -0.0944351 	-0.279175 	0 -0.0945536 	-0.279138 	0 -0.0946721 	-0.279101 	0 -0.0947906 	-0.279064 	0 -0.0949094 	-0.279027 	0 -0.0958338 	-0.278737 	0 -0.0967569 	-0.278445 	0 -0.0976789 	-0.278151 	0 -0.0986002 	-0.277855 	0 -0.0995316 	-0.277553 	0 -0.0998176 	-0.27746 	0 -0.100104 	-0.277366 	0 -0.10039 	-0.277272 	0 -0.100676 	-0.277178 	0 -0.100954 	-0.277086 	0 -0.101605 	-0.276872 	0 -0.102256 	-0.276657 	0 -0.102907 	-0.276442 	0 -0.103557 	-0.276225 	0 -0.104213 	-0.276006 	0 -0.104815 	-0.275803 	0 -0.105417 	-0.275599 	0 -0.106018 	-0.275395 	0 -0.10662 	-0.27519 	0 -0.107187 	-0.274995 	0 -0.107541 	-0.274875 	0 -0.107894 	-0.274754 	0 -0.108248 	-0.274632 	0 -0.108601 	-0.274511 	0 -0.108956 	-0.274388 	0 -0.109795 	-0.274098 	0 -0.110633 	-0.273805 	0 -0.111471 	-0.273512 	0 -0.112308 	-0.273217 	0 -0.113084 	-0.272943 	0 -0.113219 	-0.272895 	0 -0.113355 	-0.272847 	0 -0.113491 	-0.272799 	0 -0.113627 	-0.272751 	0 -0.113763 	-0.272703 	0 -0.114736 	-0.272357 	0 -0.115709 	-0.272009 	0 -0.116681 	-0.271659 	0 -0.117652 	-0.271308 	0 -0.118636 	-0.27095 	0 -0.118648 	-0.270946 	0 -0.118659 	-0.270942 	0 -0.118671 	-0.270937 	0 -0.118683 	-0.270933 	0 -0.118695 	-0.270928 	0 -0.11967 	-0.270573 	0 -0.120644 	-0.270216 	0 -0.121618 	-0.269857 	0 -0.12259 	-0.269497 	0 -0.123577 	-0.269129 	0 -0.123673 	-0.269093 	0 -0.123769 	-0.269057 	0 -0.123865 	-0.269021 	0 -0.123961 	-0.268985 	0 -0.124056 	-0.268949 	0 -0.124962 	-0.268611 	0 -0.125867 	-0.268272 	0 -0.126771 	-0.267932 	0 -0.127674 	-0.26759 	0 -0.12859 	-0.267242 	0 -0.12871 	-0.267196 	0 -0.128831 	-0.26715 	0 -0.128951 	-0.267104 	0 -0.129072 	-0.267058 	0 -0.129192 	-0.267012 	0 -0.130088 	-0.266671 	0 -0.130983 	-0.266329 	0 -0.131877 	-0.265985 	0 -0.132771 	-0.265641 	0 -0.133678 	-0.26529 	0 -0.133768 	-0.265255 	0 -0.133858 	-0.26522 	0 -0.133947 	-0.265185 	0 -0.134037 	-0.26515 	0 -0.134127 	-0.265115 	0 -0.135069 	-0.264751 	0 -0.13601 	-0.264386 	0 -0.13695 	-0.264019 	0 -0.137889 	-0.263651 	0 -0.138844 	-0.263275 	0 -0.138852 	-0.263272 	0 -0.138859 	-0.263269 	0 -0.138867 	-0.263266 	0 -0.138875 	-0.263263 	0 -0.138883 	-0.26326 	0 -0.139816 	-0.262894 	0 -0.140748 	-0.262527 	0 -0.141678 	-0.262158 	0 -0.142607 	-0.261789 	0 -0.143479 	-0.261441 	0 -0.143601 	-0.261392 	0 -0.143722 	-0.261344 	0 -0.143844 	-0.261295 	0 -0.143966 	-0.261246 	0 -0.144089 	-0.261198 	0 -0.144864 	-0.260889 	0 -0.145639 	-0.26058 	0 -0.146413 	-0.260269 	0 -0.147186 	-0.259958 	0 -0.147921 	-0.259662 	0 -0.148219 	-0.259541 	0 -0.148518 	-0.259421 	0 -0.148817 	-0.259301 	0 -0.149116 	-0.25918 	0 -0.149417 	-0.259059 	0 -0.149982 	-0.258831 	0 -0.150547 	-0.258603 	0 -0.151112 	-0.258374 	0 -0.151676 	-0.258145 	0 -0.152221 	-0.257923 	0 -0.152742 	-0.257712 	0 -0.153263 	-0.257501 	0 -0.153785 	-0.257289 	0 -0.154305 	-0.257077 	0 -0.154831 	-0.256862 	0 -0.155145 	-0.256734 	0 -0.155458 	-0.256607 	0 -0.155771 	-0.256479 	0 -0.156084 	-0.256351 	0 -0.156391 	-0.256225 	0 -0.157179 	-0.255905 	0 -0.157966 	-0.255584 	0 -0.158752 	-0.255262 	0 -0.159537 	-0.25494 	0 -0.160335 	-0.254611 	0 -0.160357 	-0.254602 	0 -0.160379 	-0.254593 	0 -0.160401 	-0.254584 	0 -0.160423 	-0.254575 	0 -0.160445 	-0.254566 	0 -0.161244 	-0.254239 	0 -0.162042 	-0.253911 	0 -0.162839 	-0.253582 	0 -0.163635 	-0.253253 	0 -0.164395 	-0.252937 	0 -0.164701 	-0.25281 	0 -0.165008 	-0.252684 	0 -0.165314 	-0.252557 	0 -0.16562 	-0.25243 	0 -0.165928 	-0.252303 	0 -0.166392 	-0.252111 	0 -0.166856 	-0.251919 	0 -0.167319 	-0.251727 	0 -0.167782 	-0.251535 	0 -0.168234 	-0.251347 	0 -0.16891 	-0.251068 	0 -0.169585 	-0.250789 	0 -0.170259 	-0.25051 	0 -0.170932 	-0.25023 	0 -0.171616 	-0.249945 	0 -0.171687 	-0.249915 	0 -0.171759 	-0.249885 	0 -0.17183 	-0.249856 	0 -0.171901 	-0.249826 	0 -0.171973 	-0.249796 	0 -0.172712 	-0.249492 	0 -0.173449 	-0.249185 	0 -0.174185 	-0.248878 	0 -0.174921 	-0.24857 	0 -0.175628 	-0.248273 	0 -0.175982 	-0.248126 	0 -0.176335 	-0.247979 	0 -0.176689 	-0.247831 	0 -0.177042 	-0.247684 	0 -0.177398 	-0.247535 	0 -0.177758 	-0.247385 	0 -0.178117 	-0.247235 	0 -0.178476 	-0.247085 	0 -0.178835 	-0.246935 	0 -0.179188 	-0.246788 	0 -0.17989 	-0.246497 	0 -0.180592 	-0.246206 	0 -0.181292 	-0.245915 	0 -0.181991 	-0.245622 	0 -0.182666 	-0.245337 	0 -0.182788 	-0.245285 	0 -0.182911 	-0.245234 	0 -0.183034 	-0.245183 	0 -0.183157 	-0.245131 	0 -0.18328 	-0.245079 	0 -0.183842 	-0.244846 	0 -0.184403 	-0.244611 	0 -0.184964 	-0.244377 	0 -0.185524 	-0.244142 	0 -0.186069 	-0.243913 	0 -0.186707 	-0.243648 	0 -0.187344 	-0.243383 	0 -0.187981 	-0.243117 	0 -0.188616 	-0.242851 	0 -0.189262 	-0.24258 	0 -0.189287 	-0.24257 	0 -0.189312 	-0.24256 	0 -0.189337 	-0.242549 	0 -0.189362 	-0.242539 	0 -0.189388 	-0.242528 	0 -0.190045 	-0.242255 	0 -0.190701 	-0.241981 	0 -0.191357 	-0.241707 	0 -0.192011 	-0.241432 	0 -0.192647 	-0.241165 	0 -0.193186 	-0.240941 	0 -0.193724 	-0.240717 	0 -0.194262 	-0.240492 	0 -0.194799 	-0.240268 	0 -0.195344 	-0.240039 	0 -0.195439 	-0.24 	0 -0.195535 	-0.23996 	0 -0.195631 	-0.23992 	0 -0.195727 	-0.23988 	0 -0.195823 	-0.23984 	0 -0.196453 	-0.239581 	0 -0.197081 	-0.239319 	0 -0.197709 	-0.239056 	0 -0.198335 	-0.238793 	0 -0.198945 	-0.238537 	0 -0.199461 	-0.238323 	0 -0.199976 	-0.238109 	0 -0.200491 	-0.237894 	0 -0.201006 	-0.237679 	0 -0.201527 	-0.237461 	0 -0.20162 	-0.237423 	0 -0.201712 	-0.237385 	0 -0.201805 	-0.237346 	0 -0.201897 	-0.237308 	0 -0.20199 	-0.237269 	0 -0.202594 	-0.237022 	0 -0.203197 	-0.236771 	0 -0.203799 	-0.23652 	0 -0.204399 	-0.236268 	0 -0.204986 	-0.236022 	0 -0.205551 	-0.235789 	0 -0.206115 	-0.235556 	0 -0.206679 	-0.235322 	0 -0.207242 	-0.235088 	0 -0.207813 	-0.23485 	0 -0.207832 	-0.234843 	0 -0.207851 	-0.234835 	0 -0.20787 	-0.234827 	0 -0.207889 	-0.234819 	0 -0.207908 	-0.234811 	0 -0.208488 	-0.234572 	0 -0.209067 	-0.234333 	0 -0.209646 	-0.234093 	0 -0.210224 	-0.233852 	0 -0.210789 	-0.233617 	0 -0.211355 	-0.233385 	0 -0.21192 	-0.233153 	0 -0.212485 	-0.232921 	0 -0.213049 	-0.232688 	0 -0.213599 	-0.232457 	0 -0.213719 	-0.232407 	0 -0.213839 	-0.232357 	0 -0.213959 	-0.232307 	0 -0.214078 	-0.232258 	0 -0.214199 	-0.232208 	0 -0.214634 	-0.232029 	0 -0.215069 	-0.23185 	0 -0.215504 	-0.231671 	0 -0.215938 	-0.231492 	0 -0.216366 	-0.231315 	0 -0.216911 	-0.231094 	0 -0.217456 	-0.230873 	0 -0.218001 	-0.230651 	0 -0.218543 	-0.230425 	0 -0.219074 	-0.230202 	0 -0.219396 	-0.23007 	0 -0.219717 	-0.229938 	0 -0.220039 	-0.229806 	0 -0.22036 	-0.229673 	0 -0.220684 	-0.22954 	0 -0.220893 	-0.229454 	0 -0.221102 	-0.229369 	0 -0.221312 	-0.229284 	0 -0.221521 	-0.229198 	0 -0.221729 	-0.229113 	0 -0.222256 	-0.228903 	0 -0.222781 	-0.228689 	0 -0.223305 	-0.228473 	0 -0.223829 	-0.228257 	0 -0.224343 	-0.228044 	0 -0.224856 	-0.227837 	0 -0.225369 	-0.227629 	0 -0.225881 	-0.227421 	0 -0.226393 	-0.227212 	0 -0.226895 	-0.227005 	0 -0.226969 	-0.226974 	0 -0.227043 	-0.226944 	0 -0.227117 	-0.226913 	0 -0.227192 	-0.226883 	0 -0.227266 	-0.226852 	0 -0.227698 	-0.226678 	0 -0.228129 	-0.226503 	0 -0.22856 	-0.226328 	0 -0.228991 	-0.226153 	0 -0.229416 	-0.22598 	0 -0.229912 	-0.225782 	0 -0.230409 	-0.225584 	0 -0.230904 	-0.225384 	0 -0.231397 	-0.225181 	0 -0.231883 	-0.22498 	0 -0.232294 	-0.224815 	0 -0.232704 	-0.224649 	0 -0.233114 	-0.224483 	0 -0.233524 	-0.224317 	0 -0.233939 	-0.224148 	0 -0.23401 	-0.22412 	0 -0.234082 	-0.224091 	0 -0.234154 	-0.224062 	0 -0.234225 	-0.224034 	0 -0.234297 	-0.224005 	0 -0.234778 	-0.223814 	0 -0.235257 	-0.223621 	0 -0.235736 	-0.223428 	0 -0.236215 	-0.223234 	0 -0.236686 	-0.223043 	0 -0.237156 	-0.222858 	0 -0.237625 	-0.222672 	0 -0.238094 	-0.222486 	0 -0.23856 	-0.222295 	0 -0.23902 	-0.222106 	0 -0.239354 	-0.221972 	0 -0.239689 	-0.221838 	0 -0.240023 	-0.221704 	0 -0.240357 	-0.221569 	0 -0.240695 	-0.221433 	0 -0.240817 	-0.221385 	0 -0.24094 	-0.221336 	0 -0.241062 	-0.221287 	0 -0.241185 	-0.221239 	0 -0.241308 	-0.22119 	0 -0.241763 	-0.221013 	0 -0.242217 	-0.220831 	0 -0.24267 	-0.220649 	0 -0.243123 	-0.220468 	0 -0.24357 	-0.220288 	0 -0.244014 	-0.220114 	0 -0.244459 	-0.21994 	0 -0.244903 	-0.219766 	0 -0.245344 	-0.219586 	0 -0.24578 	-0.219408 	0 -0.246129 	-0.21927 	0 -0.246478 	-0.219131 	0 -0.246826 	-0.218992 	0 -0.247174 	-0.218853 	0 -0.247526 	-0.218713 	0 -0.24761 	-0.21868 	0 -0.247694 	-0.218647 	0 -0.247778 	-0.218614 	0 -0.247862 	-0.218581 	0 -0.247946 	-0.218548 	0 -0.248377 	-0.218381 	0 -0.248808 	-0.21821 	0 -0.249238 	-0.21804 	0 -0.249667 	-0.217869 	0 -0.250092 	-0.2177 	0 -0.250513 	-0.217537 	0 -0.250935 	-0.217374 	0 -0.251355 	-0.21721 	0 -0.251774 	-0.21704 	0 -0.252188 	-0.216873 	0 -0.252599 	-0.216711 	0 -0.25301 	-0.21655 	0 -0.25342 	-0.216388 	0 -0.25383 	-0.216227 	0 -0.254236 	-0.216065 	0 -0.254272 	-0.21605 	0 -0.254308 	-0.216036 	0 -0.254345 	-0.216021 	0 -0.254382 	-0.216007 	0 -0.254419 	-0.215992 	0 -0.25479 	-0.215847 	0 -0.255161 	-0.215702 	0 -0.255532 	-0.215557 	0 -0.255903 	-0.215411 	0 -0.25627 	-0.215267 	0 -0.25667 	-0.215115 	0 -0.257071 	-0.214962 	0 -0.257469 	-0.214804 	0 -0.257867 	-0.214645 	0 -0.258261 	-0.214487 	0 -0.258651 	-0.214337 	0 -0.259042 	-0.214186 	0 -0.259432 	-0.214035 	0 -0.259821 	-0.213882 	0 -0.260206 	-0.213726 	0 -0.260435 	-0.213636 	0 -0.260664 	-0.213545 	0 -0.260894 	-0.213455 	0 -0.261123 	-0.213364 	0 -0.261354 	-0.213273 	0 -0.261507 	-0.213214 	0 -0.26166 	-0.213155 	0 -0.261813 	-0.213096 	0 -0.261966 	-0.213037 	0 -0.262119 	-0.212978 	0 -0.2625 	-0.212835 	0 -0.262879 	-0.212686 	0 -0.263258 	-0.212537 	0 -0.263637 	-0.212389 	0 -0.264012 	-0.212241 	0 -0.264384 	-0.212101 	0 -0.264755 	-0.21196 	0 -0.265126 	-0.211816 	0 -0.265495 	-0.211668 	0 -0.265861 	-0.211521 	0 -0.266223 	-0.211381 	0 -0.266585 	-0.211241 	0 -0.266947 	-0.211101 	0 -0.267308 	-0.210961 	0 -0.267666 	-0.210817 	0 -0.267795 	-0.210766 	0 -0.267924 	-0.210715 	0 -0.268054 	-0.210664 	0 -0.268183 	-0.210613 	0 -0.268313 	-0.210562 	0 -0.268541 	-0.210474 	0 -0.268769 	-0.210386 	0 -0.268997 	-0.210298 	0 -0.269225 	-0.210211 	0 -0.269453 	-0.210123 	0 -0.269807 	-0.209992 	0 -0.270159 	-0.209855 	0 -0.270511 	-0.209717 	0 -0.270863 	-0.209579 	0 -0.271212 	-0.209441 	0 -0.271557 	-0.209311 	0 -0.271902 	-0.209181 	0 -0.272246 	-0.209049 	0 -0.272589 	-0.208911 	0 -0.27293 	-0.208774 	0 -0.273266 	-0.208644 	0 -0.273602 	-0.208515 	0 -0.273938 	-0.208385 	0 -0.274274 	-0.208255 	0 -0.274606 	-0.208121 	0 -0.274738 	-0.208069 	0 -0.27487 	-0.208017 	0 -0.275002 	-0.207964 	0 -0.275134 	-0.207912 	0 -0.275267 	-0.20786 	0 -0.275467 	-0.207783 	0 -0.275666 	-0.207707 	0 -0.275866 	-0.20763 	0 -0.276066 	-0.207553 	0 -0.276265 	-0.207477 	0 -0.276594 	-0.207356 	0 -0.276922 	-0.207228 	0 -0.277249 	-0.2071 	0 -0.277576 	-0.206972 	0 -0.277901 	-0.206845 	0 -0.278221 	-0.206725 	0 -0.278542 	-0.206605 	0 -0.278861 	-0.20648 	0 -0.27918 	-0.206352 	0 -0.279497 	-0.206225 	0 -0.279809 	-0.206105 	0 -0.280121 	-0.205986 	0 -0.280433 	-0.205866 	0 -0.280745 	-0.205745 	0 -0.281054 	-0.205619 	0 -0.281278 	-0.20553 	0 -0.281504 	-0.205442 	0 -0.281729 	-0.205353 	0 -0.281953 	-0.205265 	0 -0.282181 	-0.205176 	0 -0.28226 	-0.205145 	0 -0.28234 	-0.205115 	0 -0.28242 	-0.205084 	0 -0.282501 	-0.205054 	0 -0.282582 	-0.205023 	0 -0.282886 	-0.204909 	0 -0.283191 	-0.204791 	0 -0.283496 	-0.204673 	0 -0.2838 	-0.204555 	0 -0.284103 	-0.204438 	0 -0.2844 	-0.204329 	0 -0.284698 	-0.204218 	0 -0.284994 	-0.204101 	0 -0.285291 	-0.203983 	0 -0.285586 	-0.203867 	0 -0.285875 	-0.203758 	0 -0.286165 	-0.203649 	0 -0.286455 	-0.203541 	0 -0.286744 	-0.203425 	0 -0.287031 	-0.203308 	0 -0.287313 	-0.2032 	0 -0.287595 	-0.203092 	0 -0.287877 	-0.202984 	0 -0.288159 	-0.202876 	0 -0.288439 	-0.202764 	0 -0.288552 	-0.20272 	0 -0.288665 	-0.202676 	0 -0.288779 	-0.202632 	0 -0.288892 	-0.202587 	0 -0.289007 	-0.202543 	0 -0.289172 	-0.202481 	0 -0.289338 	-0.202419 	0 -0.289504 	-0.202357 	0 -0.289669 	-0.202295 	0 -0.289835 	-0.202234 	0 -0.290111 	-0.202136 	0 -0.290387 	-0.202031 	0 -0.290663 	-0.201927 	0 -0.290939 	-0.201823 	0 -0.291213 	-0.201719 	0 -0.291482 	-0.201625 	0 -0.291751 	-0.201531 	0 -0.292019 	-0.201428 	0 -0.292288 	-0.201325 	0 -0.292555 	-0.201223 	0 -0.292816 	-0.201131 	0 -0.293078 	-0.201039 	0 -0.29334 	-0.200947 	0 -0.293601 	-0.200848 	0 -0.293861 	-0.200748 	0 -0.294115 	-0.200658 	0 -0.29437 	-0.200569 	0 -0.294624 	-0.200479 	0 -0.294878 	-0.20039 	0 -0.295132 	-0.200296 	0 -0.295243 	-0.200258 	0 -0.295354 	-0.200219 	0 -0.295465 	-0.20018 	0 -0.295577 	-0.200142 	0 -0.295689 	-0.200103 	0 -0.295829 	-0.200057 	0 -0.29597 	-0.20001 	0 -0.29611 	-0.199964 	0 -0.296251 	-0.199918 	0 -0.296392 	-0.199872 	0 -0.296641 	-0.199798 	0 -0.29689 	-0.199718 	0 -0.297139 	-0.199638 	0 -0.297388 	-0.199559 	0 -0.297637 	-0.199479 	0 -0.297879 	-0.199414 	0 -0.298122 	-0.199347 	0 -0.298364 	-0.199273 	0 -0.298606 	-0.199199 	0 -0.298849 	-0.199126 	0 -0.299083 	-0.199067 	0 -0.299319 	-0.199009 	0 -0.299555 	-0.198951 	0 -0.29979 	-0.198884 	0 -0.300026 	-0.198817 	0 -0.300254 	-0.198768 	0 -0.300483 	-0.198719 	0 -0.300712 	-0.19867 	0 -0.30094 	-0.19862 	0 -0.30117 	-0.198563 	0 -0.301365 	-0.198529 	0 -0.30156 	-0.198496 	0 -0.301756 	-0.198462 	0 -0.301951 	-0.198428 	0 -0.302149 	-0.198395 	0 -0.302176 	-0.198391 	0 -0.302203 	-0.198386 	0 -0.30223 	-0.198382 	0 -0.302257 	-0.198377 	0 -0.302286 	-0.198374 	0 -0.30251 	-0.198352 	0 -0.302735 	-0.198331 	0 -0.302959 	-0.198309 	0 -0.303184 	-0.198286 	0 -0.303409 	-0.198265 	0 -0.303625 	-0.198269 	0 -0.303844 	-0.198266 	0 -0.304062 	-0.19826 	0 -0.30428 	-0.198255 	0 -0.304499 	-0.19825 	0 -0.304709 	-0.198275 	0 -0.30492 	-0.1983 	0 -0.305132 	-0.198317 	0 -0.305344 	-0.198331 	0 -0.305557 	-0.198347 	0 -0.305761 	-0.198395 	0 -0.305965 	-0.198444 	0 -0.30617 	-0.198494 	0 -0.306376 	-0.198535 	0 -0.306582 	-0.198575 	0 -0.30678 	-0.198652 	0 -0.306978 	-0.19873 	0 -0.307177 	-0.198808 	0 -0.307375 	-0.198887 	0 -0.307576 	-0.198958 	0 -0.30771 	-0.199036 	0 -0.307846 	-0.199115 	0 -0.307981 	-0.199195 	0 -0.308117 	-0.199274 	0 -0.308254 	-0.199355 	0 -0.308312 	-0.199388 	0 -0.308371 	-0.199422 	0 -0.308431 	-0.199457 	0 -0.30849 	-0.199491 	0 -0.308551 	-0.199527 	0 -0.308744 	-0.199687 	0 -0.308939 	-0.199844 	0 -0.309134 	-0.200002 	0 -0.30933 	-0.200159 	0 -0.309526 	-0.200318 	0 -0.309712 	-0.200535 	0 -0.3099 	-0.200744 	0 -0.31009 	-0.200948 	0 -0.310279 	-0.201153 	0 -0.31047 	-0.201359 	0 -0.310649 	-0.201632 	0 -0.31083 	-0.201907 	0 -0.311013 	-0.20217 	0 -0.311197 	-0.202429 	0 -0.311382 	-0.202691 	0 -0.311555 	-0.203028 	0 -0.31173 	-0.203366 	0 -0.311905 	-0.203705 	0 -0.312083 	-0.204031 	0 -0.312263 	-0.204357 	0 -0.31243 	-0.204766 	0 -0.312599 	-0.205178 	0 -0.312769 	-0.20559 	0 -0.312938 	-0.206002 	0 -0.313113 	-0.206404 	0 -0.313243 	-0.206801 	0 -0.313375 	-0.2072 	0 -0.313507 	-0.2076 	0 -0.313639 	-0.207999 	0 -0.313772 	-0.208397 	0 -0.313805 	-0.208493 	0 -0.313838 	-0.20859 	0 -0.313872 	-0.208688 	0 -0.313907 	-0.208787 	0 -0.313942 	-0.208888 	0 -0.314107 	-0.209485 	0 -0.314274 	-0.210081 	0 -0.314441 	-0.210676 	0 -0.31461 	-0.211272 	0 -0.314781 	-0.211875 	0 -0.314936 	-0.212597 	0 -0.315098 	-0.213303 	0 -0.31526 	-0.214004 	0 -0.315423 	-0.214704 	0 -0.31559 	-0.215415 	0 -0.31574 	-0.216257 	0 -0.315892 	-0.217102 	0 -0.316049 	-0.217924 	0 -0.316207 	-0.218742 	0 -0.316369 	-0.219572 	0 -0.316514 	-0.220545 	0 -0.31666 	-0.221522 	0 -0.316808 	-0.222498 	0 -0.316961 	-0.223449 	0 -0.317119 	-0.224412 	0 -0.317258 	-0.225529 	0 -0.317399 	-0.226651 	0 -0.317542 	-0.227771 	0 -0.317685 	-0.228889 	0 -0.317838 	-0.230003 	0 -0.317949 	-0.231059 	0 -0.318062 	-0.232119 	0 -0.318176 	-0.233179 	0 -0.31829 	-0.234237 	0 -0.318404 	-0.235271 	0 -0.31843 	-0.235497 	0 -0.318456 	-0.235724 	0 -0.318483 	-0.235953 	0 -0.31851 	-0.236182 	0 -0.318538 	-0.236418 	0 -0.318675 	-0.237881 	0 -0.318817 	-0.239342 	0 -0.318959 	-0.2408 	0 -0.319103 	-0.242256 	0 -0.319253 	-0.243746 	0 -0.319379 	-0.245428 	0 -0.319514 	-0.247081 	0 -0.319652 	-0.24872 	0 -0.319791 	-0.250357 	0 -0.319937 	-0.252036 	0 -0.320058 	-0.253915 	0 -0.320181 	-0.255797 	0 -0.320312 	-0.257645 	0 -0.320447 	-0.259473 	0 -0.320589 	-0.261354 	0 -0.320704 	-0.263441 	0 -0.320822 	-0.265529 	0 -0.320942 	-0.267613 	0 -0.321069 	-0.269667 	0 -0.321207 	-0.271761 	0 -0.321316 	-0.274065 	0 -0.321429 	-0.27637 	0 -0.321544 	-0.278669 	0 -0.321661 	-0.280961 	0 -0.321789 	-0.283316 	0 -0.321816 	-0.283984 	0 -0.321844 	-0.28466 	0 -0.321873 	-0.285335 	0 -0.321901 	-0.28601 	0 -0.32193 	-0.286684 	0 -0.322017 	-0.28856 	0 -0.322106 	-0.29044 	0 -0.322197 	-0.292316 	0 -0.322289 	-0.294187 	0 -0.322386 	-0.296116 	0 -0.322484 	-0.298964 	0 -0.322597 	-0.301752 	0 -0.322712 	-0.304531 	0 -0.322831 	-0.307301 	0 -0.322957 	-0.310187 	0 -0.323048 	-0.313284 	0 -0.323143 	-0.316378 	0 -0.32325 	