# vtk DataFile Version 2.0
track0
ASCII
DATASET POLYDATA
POINTS 12125 float
-0.0205 0.001 1e-05
-0.020491 0.0011 1e-05
-0.0204819 0.00119999 1e-05
-0.0204726 0.00129997 1e-05
-0.0204633 0.00139993 1e-05
-0.0204538 0.0015 1e-05
-0.0204441 0.0016 1e-05
-0.0204343 0.00169998 1e-05
-0.0204244 0.00179995 1e-05
-0.0204143 0.0018999 1e-05
-0.020404 0.002 1e-05
-0.0203935 0.0021 1e-05
-0.0203828 0.00219998 1e-05
-0.020372 0.00229994 1e-05
-0.0203609 0.00239987 1e-05
-0.0203497 0.0025 1e-05
-0.0203382 0.0026 1e-05
-0.0203266 0.00269997 1e-05
-0.0203147 0.00279992 1e-05
-0.0203026 0.00289985 1e-05
-0.0202902 0.003 1e-05
-0.0202893 0.0030077 1e-05
-0.0202883 0.00301539 1e-05
-0.0202873 0.00302309 1e-05
-0.0202864 0.00303078 1e-05
-0.0202854 0.00303836 1e-05
-0.0202737 0.00313069 1e-05
-0.0202618 0.00322299 1e-05
-0.0202497 0.00331527 1e-05
-0.0202375 0.00340752 1e-05
-0.0202249 0.0035 1e-05
-0.0202112 0.0036 1e-05
-0.0201971 0.00369996 1e-05
-0.0201829 0.00379989 1e-05
-0.0201683 0.00389979 1e-05
-0.0201535 0.004 1e-05
-0.0201384 0.0041 1e-05
-0.0201231 0.00419996 1e-05
-0.0201075 0.00429988 1e-05
-0.0200917 0.00439976 1e-05
-0.0200755 0.0045 1e-05
-0.0200648 0.00456475 1e-05
-0.0200541 0.00462949 1e-05
-0.0200432 0.0046942 1e-05
-0.0200323 0.0047589 1e-05
-0.0200223 0.0048169 1e-05
-0.020016 0.00485352 1e-05
-0.0200096 0.00489014 1e-05
-0.0200032 0.00492674 1e-05
-0.0199968 0.00496334 1e-05
-0.0199903 0.005 1e-05
-0.0199724 0.0051 1e-05
-0.0199543 0.00519995 1e-05
-0.0199359 0.00529985 1e-05
-0.0199173 0.00539969 1e-05
-0.0198982 0.0055 1e-05
-0.019879 0.0056 1e-05
-0.0198594 0.00569994 1e-05
-0.0198396 0.00579983 1e-05
-0.0198194 0.00589966 1e-05
-0.0197989 0.006 1e-05
-0.0197914 0.00603616 1e-05
-0.0197838 0.00607231 1e-05
-0.0197763 0.00610845 1e-05
-0.0197686 0.00614459 1e-05
-0.0197614 0.00617892 1e-05
-0.0197477 0.00624314 1e-05
-0.0197339 0.00630733 1e-05
-0.01972 0.00637149 1e-05
-0.0197059 0.00643563 1e-05
-0.0196917 0.0065 1e-05
-0.0196694 0.0066 1e-05
-0.0196468 0.00669993 1e-05
-0.0196239 0.0067998 1e-05
-0.0196008 0.0068996 1e-05
-0.0195771 0.007 1e-05
-0.0195622 0.00706258 1e-05
-0.0195472 0.00712512 1e-05
-0.019532 0.00718764 1e-05
-0.0195167 0.00725013 1e-05
-0.0195025 0.00730782 1e-05
-0.019493 0.00734626 1e-05
-0.0194834 0.00738468 1e-05
-0.0194737 0.0074231 1e-05
-0.0194641 0.0074615 1e-05
-0.0194543 0.0075 1e-05
-0.0194289 0.0076 1e-05
-0.0194031 0.00769992 1e-05
-0.0193771 0.00779976 1e-05
-0.0193507 0.00789953 1e-05
-0.0193238 0.008 1e-05
-0.0193082 0.00805767 1e-05
-0.0192925 0.00811531 1e-05
-0.0192767 0.00817292 1e-05
-0.0192607 0.00823051 1e-05
-0.0192457 0.00828437 1e-05
-0.0192337 0.0083275 1e-05
-0.0192215 0.00837061 1e-05
-0.0192093 0.0084137 1e-05
-0.019197 0.00845678 1e-05
-0.0191847 0.0085 1e-05
-0.0191559 0.0086 1e-05
-0.0191269 0.00869991 1e-05
-0.0190975 0.00879973 1e-05
-0.0190678 0.00889945 1e-05
-0.0190375 0.009 1e-05
-0.0190282 0.00903051 1e-05
-0.0190189 0.00906101 1e-05
-0.0190095 0.00909151 1e-05
-0.0190002 0.00912199 1e-05
-0.018991 0.00915151 1e-05
-0.0189694 0.00922121 1e-05
-0.0189477 0.00929086 1e-05
-0.0189258 0.00936046 1e-05
-0.0189037 0.00943001 1e-05
-0.0188813 0.0095 1e-05
-0.0188527 0.00958874 1e-05
-0.0188239 0.0096774 1e-05
-0.0187948 0.00976598 1e-05
-0.0187655 0.00985447 1e-05
-0.0187384 0.00993529 1e-05
-0.018734 0.00994823 1e-05
-0.0187296 0.00996117 1e-05
-0.0187253 0.00997411 1e-05
-0.0187209 0.00998705 1e-05
-0.0187165 0.01 1e-05
-0.0186825 0.0101 1e-05
-0.0186481 0.0101999 1e-05
-0.0186134 0.0102997 1e-05
-0.0185784 0.0103993 1e-05
-0.0185427 0.0105 1e-05
-0.0185317 0.0105306 1e-05
-0.0185207 0.0105613 1e-05
-0.0185097 0.0105919 1e-05
-0.0184986 0.0106225 1e-05
-0.0184878 0.0106522 1e-05
-0.0184624 0.0107218 1e-05
-0.0184369 0.0107913 1e-05
-0.0184113 0.0108607 1e-05
-0.0183854 0.0109301 1e-05
-0.0183592 0.011 1e-05
-0.0183352 0.0110636 1e-05
-0.0183111 0.0111271 1e-05
-0.0182868 0.0111906 1e-05
-0.0182624 0.0112541 1e-05
-0.0182392 0.0113139 1e-05
-0.0182247 0.0113511 1e-05
-0.0182101 0.0113883 1e-05
-0.0181955 0.0114255 1e-05
-0.0181809 0.0114627 1e-05
-0.0181661 0.0115 1e-05
-0.0181314 0.0115874 1e-05
-0.0180964 0.0116747 1e-05
-0.0180612 0.0117619 1e-05
-0.0180257 0.0118489 1e-05
-0.0179926 0.0119295 1e-05
-0.0179868 0.0119436 1e-05
-0.0179809 0.0119577 1e-05
-0.0179751 0.0119718 1e-05
-0.0179692 0.0119859 1e-05
-0.0179633 0.012 1e-05
-0.0179216 0.0121 1e-05
-0.0178795 0.0121999 1e-05
-0.0178371 0.0122996 1e-05
-0.0177944 0.0123991 1e-05
-0.0177506 0.0125 1e-05
-0.0177501 0.0125012 1e-05
-0.0177496 0.0125024 1e-05
-0.017749 0.0125036 1e-05
-0.0177485 0.0125048 1e-05
-0.017748 0.012506 1e-05
-0.0177047 0.0126048 1e-05
-0.0176611 0.0127035 1e-05
-0.0176171 0.0128019 1e-05
-0.0175728 0.0129003 1e-05
-0.0175274 0.013 1e-05
-0.017523 0.0130096 1e-05
-0.0175186 0.0130192 1e-05
-0.0175142 0.0130288 1e-05
-0.0175097 0.0130384 1e-05
-0.0175053 0.013048 1e-05
-0.0174636 0.0131384 1e-05
-0.0174217 0.0132286 1e-05
-0.0173794 0.0133188 1e-05
-0.0173368 0.0134088 1e-05
-0.0172933 0.0135 1e-05
-0.0172875 0.0135119 1e-05
-0.0172818 0.0135238 1e-05
-0.0172761 0.0135356 1e-05
-0.0172704 0.0135475 1e-05
-0.0172647 0.0135593 1e-05
-0.017222 0.0136474 1e-05
-0.0171791 0.0137354 1e-05
-0.0171359 0.0138233 1e-05
-0.0170924 0.013911 1e-05
-0.0170479 0.014 1e-05
-0.0170435 0.0140087 1e-05
-0.0170391 0.0140175 1e-05
-0.0170347 0.0140262 1e-05
-0.0170303 0.0140349 1e-05
-0.0170259 0.0140436 1e-05
-0.0169797 0.0141349 1e-05
-0.0169332 0.014226 1e-05
-0.0168864 0.014317 1e-05
-0.0168393 0.0144078 1e-05
-0.0167911 0.0145 1e-05
-0.0167907 0.0145008 1e-05
-0.0167903 0.0145015 1e-05
-0.0167899 0.0145023 1e-05
-0.0167895 0.014503 1e-05
-0.0167891 0.0145038 1e-05
-0.0167421 0.0145929 1e-05
-0.0166948 0.0146818 1e-05
-0.0166473 0.0147705 1e-05
-0.0165994 0.0148591 1e-05
-0.0165542 0.0149421 1e-05
-0.0165478 0.0149536 1e-05
-0.0165415 0.0149652 1e-05
-0.0165351 0.0149768 1e-05
-0.0165287 0.0149884 1e-05
-0.0165223 0.015 1e-05
-0.0164821 0.0150729 1e-05
-0.0164417 0.0151457 1e-05
-0.016401 0.0152184 1e-05
-0.0163602 0.015291 1e-05
-0.0163212 0.01536 1e-05
-0.0163052 0.015388 1e-05
-0.0162892 0.015416 1e-05
-0.0162732 0.0154439 1e-05
-0.0162572 0.0154719 1e-05
-0.016241 0.0155 1e-05
-0.0162108 0.0155523 1e-05
-0.0161805 0.0156046 1e-05
-0.0161501 0.0156569 1e-05
-0.0161196 0.015709 1e-05
-0.01609 0.0157593 1e-05
-0.0160616 0.0158075 1e-05
-0.0160331 0.0158556 1e-05
-0.0160045 0.0159036 1e-05
-0.0159759 0.0159516 1e-05
-0.0159468 0.016 1e-05
-0.0159296 0.0160285 1e-05
-0.0159123 0.0160571 1e-05
-0.0158951 0.0160856 1e-05
-0.0158778 0.0161141 1e-05
-0.0158607 0.016142 1e-05
-0.015817 0.0162136 1e-05
-0.0157731 0.0162851 1e-05
-0.0157291 0.0163564 1e-05
-0.0156848 0.0164277 1e-05
-0.0156395 0.0165 1e-05
-0.0156383 0.016502 1e-05
-0.015637 0.0165039 1e-05
-0.0156358 0.0165059 1e-05
-0.0156345 0.0165078 1e-05
-0.0156333 0.0165098 1e-05
-0.0155882 0.0165814 1e-05
-0.0155429 0.0166529 1e-05
-0.0154973 0.0167242 1e-05
-0.0154516 0.0167954 1e-05
-0.0154077 0.0168634 1e-05
-0.0153899 0.0168907 1e-05
-0.0153722 0.016918 1e-05
-0.0153543 0.0169453 1e-05
-0.0153365 0.0169726 1e-05
-0.0153185 0.017 1e-05
-0.0152916 0.0170409 1e-05
-0.0152646 0.0170818 1e-05
-0.0152375 0.0171226 1e-05
-0.0152104 0.0171634 1e-05
-0.0151839 0.0172032 1e-05
-0.0151442 0.0172625 1e-05
-0.0151043 0.0173218 1e-05
-0.0150643 0.017381 1e-05
-0.0150241 0.0174401 1e-05
-0.0149832 0.0175 1e-05
-0.0149789 0.0175062 1e-05
-0.0149747 0.0175124 1e-05
-0.0149704 0.0175186 1e-05
-0.0149662 0.0175248 1e-05
-0.0149619 0.0175309 1e-05
-0.0149179 0.0175949 1e-05
-0.0148737 0.0176587 1e-05
-0.0148293 0.0177225 1e-05
-0.0147848 0.0177861 1e-05
-0.0147417 0.0178473 1e-05
-0.0147201 0.0178778 1e-05
-0.0146985 0.0179083 1e-05
-0.0146768 0.0179388 1e-05
-0.0146551 0.0179693 1e-05
-0.0146332 0.018 1e-05
-0.0146112 0.0180307 1e-05
-0.0145892 0.0180613 1e-05
-0.0145671 0.0180919 1e-05
-0.0145451 0.0181224 1e-05
-0.0145233 0.0181524 1e-05
-0.01448 0.0182121 1e-05
-0.0144365 0.0182717 1e-05
-0.0143929 0.0183312 1e-05
-0.0143491 0.0183905 1e-05
-0.0143067 0.0184479 1e-05
-0.0142989 0.0184583 1e-05
-0.0142911 0.0184687 1e-05
-0.0142834 0.0184791 1e-05
-0.0142756 0.0184896 1e-05
-0.0142678 0.0185 1e-05
-0.0142326 0.0185471 1e-05
-0.0141973 0.0185941 1e-05
-0.0141619 0.018641 1e-05
-0.0141264 0.0186879 1e-05
-0.0140917 0.0187335 1e-05
-0.0140511 0.0187868 1e-05
-0.0140103 0.01884 1e-05
-0.0139694 0.0188931 1e-05
-0.0139284 0.0189462 1e-05
-0.0138866 0.019 1e-05
-0.013885 0.0190021 1e-05
-0.0138834 0.0190041 1e-05
-0.0138818 0.0190062 1e-05
-0.0138802 0.0190082 1e-05
-0.0138786 0.0190103 1e-05
-0.0138363 0.0190645 1e-05
-0.0137939 0.0191185 1e-05
-0.0137513 0.0191725 1e-05
-0.0137087 0.0192264 1e-05
-0.0136671 0.0192787 1e-05
-0.0136317 0.0193229 1e-05
-0.0135963 0.0193671 1e-05
-0.0135608 0.0194113 1e-05
-0.0135252 0.0194553 1e-05
-0.013489 0.0195 1e-05
-0.0134826 0.0195078 1e-05
-0.0134763 0.0195155 1e-05
-0.01347 0.0195233 1e-05
-0.0134636 0.0195311 1e-05
-0.0134573 0.0195388 1e-05
-0.0134157 0.0195898 1e-05
-0.013374 0.0196407 1e-05
-0.0133322 0.0196915 1e-05
-0.0132902 0.0197422 1e-05
-0.0132493 0.0197915 1e-05
-0.0132145 0.0198332 1e-05
-0.0131796 0.0198748 1e-05
-0.0131447 0.0199164 1e-05
-0.0131097 0.0199579 1e-05
-0.0130741 0.02 1e-05
-0.0130679 0.0200074 1e-05
-0.0130616 0.0200147 1e-05
-0.0130554 0.0200221 1e-05
-0.0130491 0.0200295 1e-05
-0.0130429 0.0200368 1e-05
-0.0130019 0.0200849 1e-05
-0.0129609 0.0201329 1e-05
-0.0129197 0.0201809 1e-05
-0.0128785 0.0202287 1e-05
-0.0128381 0.0202754 1e-05
-0.0127991 0.0203203 1e-05
-0.01276 0.0203652 1e-05
-0.0127208 0.0204099 1e-05
-0.0126816 0.0204546 1e-05
-0.0126416 0.0205 1e-05
-0.0126403 0.0205015 1e-05
-0.012639 0.020503 1e-05
-0.0126377 0.0205044 1e-05
-0.0126363 0.0205059 1e-05
-0.012635 0.0205074 1e-05
-0.0125947 0.0205529 1e-05
-0.0125544 0.0205983 1e-05
-0.0125139 0.0206437 1e-05
-0.0124734 0.020689 1e-05
-0.0124336 0.0207332 1e-05
-0.0123936 0.0207775 1e-05
-0.0123536 0.0208217 1e-05
[...]
POINT_DATA 12125
 FIELD attributes 2
p 1 12125 float
-0.0039278 -0.00429112 -0.00465362 -0.00501594 -0.00537824 -0.00574111 -0.00609716 -0.0064526 -0.00680731 -0.00716178 -0.00751621 -0.00785878 -0.00820121 -0.0085436 -0.0088855 -0.00922756 -0.00956626 -0.00990478 -0.0102433 -0.0105817 -0.0109207 -0.0109465 -0.0109721 -0.0109976 -0.011023 -0.0110481 -0.011355 -0.0116617 -0.0119684 -0.012275 -0.0125823 -0.0129085 -0.0132344 -0.0135599 -0.0138854 -0.0142119 -0.0145327 -0.0148534 -0.015174 -0.0154943 -0.0158155 -0.0160201 -0.0162246 -0.0164292 -0.0166336 -0.016817 -0.0169329 -0.0170486 -0.0171643 -0.01728 -0.0173957 -0.0177077 -0.0180191 -0.0183304 -0.0186417 -0.0189542 -0.0192623 -0.0195702 -0.0198779 -0.0201856 -0.0204945 -0.0206049 -0.020715 -0.0208252 -0.0209354 -0.0210398 -0.0212354 -0.0214309 -0.0216264 -0.0218218 -0.0220179 -0.0223195 -0.0226211 -0.0229225 -0.0232236 -0.0235267 -0.0237142 -0.0239015 -0.0240888 -0.024276 -0.0244489 -0.024564 -0.0246789 -0.0247938 -0.0249087 -0.0250237 -0.0253208 -0.0256177 -0.0259144 -0.0262109 -0.0265094 -0.0266802 -0.0268507 -0.0270212 -0.0271916 -0.0273509 -0.0274782 -0.0276054 -0.0277326 -0.0278597 -0.0279873 -0.0282813 -0.0285752 -0.0288688 -0.0291623 -0.0294583 -0.0295479 -0.0296376 -0.0297272 -0.0298168 -0.0299036 -0.0301078 -0.0303117 -0.0305154 -0.0307191 -0.0309239 -0.0311838 -0.0314434 -0.0317028 -0.0319621 -0.0321987 -0.0322363 -0.0322741 -0.0323118 -0.0323495 -0.0323873 -0.0326792 -0.032971 -0.0332625 -0.0335536 -0.0338478 -0.0339376 -0.0340274 -0.0341172 -0.034207 -0.0342943 -0.034497 -0.0346995 -0.0349017 -0.0351039 -0.0353074 -0.0354939 -0.0356801 -0.0358662 -0.0360521 -0.0362275 -0.0363356 -0.0364438 -0.036552 -0.0366601 -0.0367687 -0.0370247 -0.0372804 -0.0375358 -0.0377909 -0.0380272 -0.0380682 -0.0381091 -0.0381499 -0.0381908 -0.0382316 -0.0385249 -0.0388176 -0.0391098 -0.0394016 -0.0396971 -0.0397007 -0.0397043 -0.0397078 -0.0397114 -0.0397149 -0.0400047 -0.0402941 -0.040583 -0.0408713 -0.0411638 -0.0411922 -0.0412208 -0.0412494 -0.041278 -0.0413065 -0.0415721 -0.0418373 -0.0421019 -0.0423661 -0.0426338 -0.0426693 -0.0427047 -0.0427401 -0.0427755 -0.0428105 -0.0430697 -0.0433284 -0.0435866 -0.0438443 -0.0441057 -0.0441316 -0.0441577 -0.0441838 -0.0442099 -0.044236 -0.044505 -0.0447733 -0.0450411 -0.0453081 -0.0455793 -0.0455816 -0.0455838 -0.0455861 -0.0455884 -0.0455907 -0.0458534 -0.0461157 -0.0463772 -0.0466382 -0.0468826 -0.0469161 -0.0469495 -0.046983 -0.0470164 -0.0470498 -0.0472653 -0.0474805 -0.0476952 -0.0479095 -0.0481128 -0.0481934 -0.0482741 -0.0483548 -0.0484355 -0.0485168 -0.0486716 -0.0488264 -0.0489808 -0.0491349 -0.0492837 -0.0494225 -0.049561 -0.0496993 -0.0498373 -0.0499765 -0.050061 -0.0501455 -0.0502299 -0.0503142 -0.0503971 -0.0506033 -0.0508092 -0.0510145 -0.0512192 -0.0514271 -0.0514329 -0.0514387 -0.0514444 -0.0514503 -0.0514562 -0.0516628 -0.0518687 -0.052074 -0.0522786 -0.0524736 -0.0525494 -0.0526253 -0.052701 -0.0527767 -0.0528529 -0.0529703 -0.0530879 -0.0532053 -0.0533224 -0.0534369 -0.053601 -0.0537648 -0.0539281 -0.0540909 -0.0542559 -0.0542738 -0.0542915 -0.0543092 -0.0543269 -0.0543444 -0.0545208 -0.0546972 -0.0548729 -0.0550479 -0.0552161 -0.0552964 -0.0553764 -0.0554563 -0.0555359 -0.055616 -0.0556997 -0.0557836 -0.0558673 -0.0559508 -0.056033 -0.056188 -0.0563429 -0.0564971 -0.0566508 -0.0568001 -0.0568254 -0.0568509 -0.0568765 -0.056902 -0.0569279 -0.0570498 -0.0571711 -0.057292 -0.0574124 -0.0575292 -0.0576579 -0.0577862 -0.0579139 -0.0580409 -0.0581697 -0.0581746 -0.0581796 -0.0581847 -0.0581901 -0.0581958 -0.058325 -0.0584542 -0.0585827 -0.0587106 -0.0588346 -0.058931 -0.0590278 -0.0591241 -0.0592199 -0.0593174 -0.0593354 -0.0593534 -0.0593715 -0.0593895 -0.0594076 -0.0595169 -0.0596264 -0.0597353 -0.0598435 -0.059948 -0.0600284 -0.0601084 -0.060188 -0.0602671 -0.060347 -0.0603613 -0.0603766 -0.0603918 -0.060407 -0.0604231 -0.060512 -0.0606021 -0.0606915 -0.0607803 -0.0608669 -0.0609387 -0.0610109 -0.0610826 -0.0611536 -0.0612262 -0.0612288 -0.0612313 -0.0612339 -0.0612365 -0.0612393 -0.0613105 -0.0613809 -0.0614507 -0.0615198 -0.0615864 -0.061642 -0.0616971 -0.0617516 -0.0618054 -0.0618597 -0.0618695 -0.0618786 -0.0618877 -0.0618968 -0.0619053 -0.0619441 -0.0619831 -0.0620217 -0.06206 -0.062098 -0.062132 -0.0621667 -0.0622012 -0.0622375 -0.0622738 -0.0622863 -0.0622991 -0.0623118 -0.0623242 -0.0623372 -0.0623491 -0.0623603 -0.0623715 -0.0623825 -0.0623928 -0.0624071 -0.0624231 -0.0624396 -0.0624555 -0.0624707 -0.062472 -0.0624719 -0.0624712 -0.0624699 -0.062469 -0.0624671 -0.0624652 -0.0624633 -0.0624614 -0.0624596 -0.0624546 -0.0624508 -0.0624465 -0.0624418 -0.0624384 -0.0624159 -0.0623938 -0.0623729 -0.0623537 -0.0623351 -0.0623037 -0.0622737 -0.0622432 -0.0622123 -0.0621823 -0.0621781 -0.062174 -0.0621698 -0.0621657 -0.0621617 -0.0621211 -0.062081 -0.0620403 -0.061999 -0.0619569 -0.0618988 -0.0618402 -0.0617811 -0.061726 -0.0616716 -0.0616199 -0.0615669 -0.0615136 -0.0614599 -0.0614044 -0.0613862 -0.0613689 -0.0613515 -0.0613342 -0.0613178 -0.0612349 -0.0611573 -0.0610793 -0.0610006 -0.0609243 -0.0608259 -0.0607279 -0.0606293 -0.0605359 -0.0604448 -0.0603532 -0.0602633 -0.0601731 -0.0600825 -0.0599925 -0.0599725 -0.0599527 -0.0599328 -0.0599129 -0.0598932 -0.059775 -0.0596583 -0.0595411 -0.0594233 -0.0593053 -0.0591676 -0.0590296 -0.0588935 -0.058762 -0.0586314 -0.0584804 -0.0583277 -0.0581745 -0.0580207 -0.0578684 -0.0578532 -0.057838 -0.0578229 -0.0578077 -0.0577925 -0.0576466 -0.0575024 -0.0573577 -0.0572126 -0.0570706 -0.0568875 -0.0567061 -0.0565322 -0.0563578 -0.0561854 -0.0559866 -0.0557896 -0.0555921 -0.0553956 -0.0552108 -0.0550824 -0.0549547 -0.0548268 -0.0546988 -0.0545705 -0.0544911 -0.0544105 -0.0543298 -0.054249 -0.0541674 -0.0539421 -0.0537248 -0.053507 -0.0532888 -0.0530723 -0.05283 -0.0525861 -0.0523464 -0.052113 -0.0518797 -0.0516214 -0.051363 -0.0511041 -0.0508448 -0.050595 -0.0504962 -0.0503961 -0.0502958 -0.0501955 -0.0500934 -0.0499239 -0.0497549 -0.0495856 -0.0494162 -0.0492479 -0.0489514 -0.0486692 -0.0483877 -0.0481057 -0.0478276 -0.0475165 -0.0472055 -0.0468975 -0.0465998 -0.0463041 -0.0459765 -0.0456507 -0.0453246 -0.044998 -0.0446848 -0.044547 -0.0444094 -0.0442716 -0.0441338 -0.0439956 -0.0437978 -0.0435987 -0.0433995 -0.0432001 -0.0430003 -0.0426362 -0.042288 -0.0419394 -0.0415904 -0.0412444 -0.0408646 -0.0404831 -0.0401106 -0.0397454 -0.0393808 -0.0389834 -0.0385869 -0.03819 -0.037794 -0.0374176 -0.0371134 -0.0368078 -0.036502 -0.036196 -0.035886 -0.0357814 -0.0356763 -0.0355712 -0.035466 -0.0353605 -0.0349294 -0.0345072 -0.0340845 -0.0336615 -0.0332425 -0.0327842 -0.0323297 -0.0318904 -0.0314508 -0.0310124 -0.0305358 -0.0300607 -0.0295852 -0.0291278 -0.0286771 -0.0281866 -0.0276947 -0.0272024 -0.0267097 -0.0262299 -0.026019 -0.0258096 -0.0256003 -0.0253908 -0.0251821 -0.0248858 -0.0245916 -0.0242973 -0.0240029 -0.0237115 -0.0231756 -0.0226573 -0.0221386 -0.0216196 -0.021102 -0.0205408 -0.0199817 -0.0194471 -0.0189127 -0.0183828 -0.0178069 -0.0172299 -0.0166526 -0.0160945 -0.0155445 -0.01495 -0.0143578 -0.0137652 -0.0131723 -0.0125986 -0.0123254 -0.0120512 -0.011777 -0.0115027 -0.0112263 -0.010895 -0.0105612 -0.0102273 -0.00989334 -0.00955765 -0.00891525 -0.0082936 -0.00767167 -0.00704943 -0.00643077 -0.00576254 -0.00509745 -0.00445698 -0.00381623 -0.00317473 -0.00248753 -0.00180158 -0.00111756 -0.000463167 0.000187799 0.000889232 0.00159409 0.0022992 0.00300455 0.00367981 0.00431382 0.00494639 0.00557913 0.00621205 0.00684715 0.00693427 0.0070214 0.00710727 0.00719246 0.00727304 0.00800952 0.00874225 0.00947519 0.0102083 0.0109404 0.0117297 0.0124854 0.0132342 0.0139831 0.014726 0.0155266 0.016328 0.0171015 0.0178661 0.0186302 0.0194549 0.0202754 0.021096 0.021889 0.0226663 0.0235015 0.0243376 0.0251736 0.0260098 0.0268184 0.0274255 0.0280289 0.0286323 0.0292357 0.0298355 0.0300885 0.0303411 0.0305937 0.0308463 0.0310984 0.0319758 0.0328445 0.0337131 0.0345817 0.0354549 0.0363887 0.0372906 0.0381795 0.0390684 0.0399583 0.040902 0.0418492 0.0427631 0.0436646 0.0445716 0.0455392 0.0465065 0.0474737 0.0484056 0.049329 0.0503069 0.0512877 0.0522682 0.0532483 0.0541988 0.0550047 0.0558105 0.056616 0.0574212 0.0582179 0.0584151 0.0586118 0.0588079 0.0590039 0.0591983 0.0602243 0.0612411 0.0622573 0.063273 0.0642964 0.065385 0.0664283 0.0674622 0.0684955 0.0695361 0.0706383 0.071741 0.072798 0.0738463 0.0749066 0.0760288 0.0771492 0.0782685 0.0793412 0.0804183 0.0815551 0.0826926 0.0838288 0.0849637 0.0860707 0.0870309 0.0879899 0.0889479 0.0899049 0.0908345 0.091041 0.0912473 0.0914534 0.0916594 0.0918655 0.0930542 0.0942319 0.095408 0.0965824 0.0977809 0.0990399 0.100251 0.101446 0.102639 0.103858 0.105136 0.106413 0.107649 0.108861 0.110107 0.111408 0.112706 0.114001 0.115263 0.116531 0.117851 0.11917 0.120486 0.121799 0.123137 0.123495 0.123853 0.124211 0.124569 0.124922 0.125917 0.126911 0.127903 0.128894 0.12991 0.131347 0.132722 0.134092 0.13546 0.136884 0.138353 0.139817 0.14123 0.142621 0.144074 0.145568 0.14706 0.148548 0.150011 0.151499 0.152874 0.154245 0.155612 0.156975 0.158278 0.158453 0.158628 0.158803 0.158979 0.159155 0.160739 0.162309 0.163873 0.165432 0.16708 0.168766 0.170433 0.172038 0.173638 0.175333 0.177062 0.178788 0.180508 0.182193 0.183946 0.1853 0.18665 0.187996 0.189337 0.190634 0.191069 0.191503 0.191936 0.192369 0.192808 0.194609 0.196371 0.198125 0.199873 0.201745 0.203624 0.205496 0.207333 0.209122 0.211046 0.213117 0.215189 0.217251 0.219303 0.221515 0.221608 0.2217 0.221793 0.221886 0.221978 0.224152 0.226316 0.22847 0.230614 0.232923 0.235165 0.237389 0.239562 0.241684 0.244043 0.245273 0.246505 0.247736 0.248964 0.250174 0.252642 0.255108 0.257567 0.26002 0.262776 0.264139 0.265503 0.266864 0.268223 0.269561 0.272506 0.275442 0.278369 0.281286 0.284639 0.285611 0.286585 0.287558 0.288529 0.289495 0.293503 0.297495 0.301468 0.305425 0.309795 0.309857 0.309919 0.30998 0.310042 0.310104 0.314056 0.317981 0.321884 0.325768 0.329538 0.331221 0.332888 0.33455 0.336209 0.33799 0.339957 0.341905 0.343847 0.345785 0.347685 0.350792 0.353859 0.356906 0.359934 0.362857 0.363206 0.363526 0.363846 0.364166 0.364467 0.366259 0.368009 0.369747 0.371473 0.373135 0.374118 0.375047 0.375958 0.37685 0.377747 0.377736 0.377686 0.377635 0.377583 0.377489 0.37718 0.376826 0.376465 0.376096 0.375687 0.374022 0.372308 0.370656 0.369059 0.367434 0.364749 0.362021 0.359282 0.356534 0.353798 0.353422 0.35302 0.352618 0.352205 0.35177 0.348558 0.345317 0.342074 0.338827 0.33557 0.33121 0.326892 0.322625 0.318356 0.314085 0.309314 0.304525 0.299765 0.29507 0.290373 0.285352 0.280316 0.27528 0.270267 0.265287 0.260149 0.255002 0.249855 0.244708 0.239561 0.234433 0.229297 0.224162 0.219027 0.213873 0.211702 0.209528 0.207354 0.205179 0.202552 0.199803 0.19705 0.194297 0.191543 0.188785 0.184072 0.17931 0.174548 0.169786 0.165024 0.160899 0.15656 0.152221 0.147881 0.143543 0.140314 0.136586 0.132857 0.129127 0.125401 0.123328 0.120402 0.117474 0.114545 0.111619 0.110547 0.108462 0.106299 0.104134 0.101953 0.101093 0.0993885 0.0974941 0.0955955 0.0936389 0.0913487 0.0886108 0.0857474 0.0828781 0.0798656 0.0732546 0.0667909 0.0605375 0.0542775 0.0477404 0.0328387 0.0188524 0.00559498 -0.00766564 -0.0213658 -0.0484113 -0.0737658 -0.0980588 -0.122349 -0.147212 -0.189764 -0.230353 -0.270041 -0.30973 -0.350105 -0.411075 -0.470828 -0.53015 -0.589488 -0.649561 -0.725865 -0.802721 -0.879622 -0.956548 -1.03393 -1.11115 -1.19067 -1.2709 -1.35114 -1.43122 -1.49868 -1.56934 -1.64202 -1.71469 -1.78711 -1.85165 -1.91896 -1.98985 -2.06074 -2.1317 -2.1798 -2.22806 -2.28031 -2.3326 -2.38387 -2.40402 -2.42402 -2.44665 -2.46933 -2.4917 -2.49802 -2.50416 -2.51107 -2.51806 -2.52488