# vtk DataFile Version 2.0
track0
ASCII
DATASET POLYDATA
POINTS 12105 float
-0.0205 0.001 1e-05
-0.0204963 0.0011 1e-05
-0.0204924 0.00119999 1e-05
-0.0204883 0.00129998 1e-05
-0.020484 0.00139995 1e-05
-0.0204795 0.0015 1e-05
-0.0204748 0.0016 1e-05
-0.0204699 0.00169999 1e-05
-0.0204647 0.00179997 1e-05
-0.0204594 0.00189993 1e-05
-0.0204537 0.002 1e-05
-0.0204479 0.0021 1e-05
-0.0204418 0.00219999 1e-05
-0.0204355 0.00229996 1e-05
-0.0204289 0.00239991 1e-05
-0.020422 0.0025 1e-05
-0.0204149 0.0026 1e-05
-0.0204076 0.00269998 1e-05
-0.0204 0.00279994 1e-05
-0.0203922 0.00289989 1e-05
-0.020384 0.003 1e-05
-0.0203757 0.0031 1e-05
-0.020367 0.00319998 1e-05
-0.0203581 0.00329993 1e-05
-0.020349 0.00339987 1e-05
-0.0203396 0.0035 1e-05
-0.0203299 0.0036 1e-05
-0.0203199 0.00369997 1e-05
-0.0203097 0.00379992 1e-05
-0.0202993 0.00389984 1e-05
-0.0202885 0.004 1e-05
-0.0202879 0.0040057 1e-05
-0.0202873 0.0040114 1e-05
-0.0202866 0.0040171 1e-05
-0.020286 0.00402279 1e-05
-0.0202854 0.00402841 1e-05
-0.0202749 0.00412273 1e-05
-0.0202643 0.00421702 1e-05
-0.0202533 0.00431129 1e-05
-0.0202422 0.00440552 1e-05
-0.0202308 0.0045 1e-05
-0.0202184 0.0046 1e-05
-0.0202058 0.00469997 1e-05
-0.0201929 0.0047999 1e-05
-0.0201798 0.0048998 1e-05
-0.0201663 0.005 1e-05
-0.0201526 0.0051 1e-05
-0.0201387 0.00519996 1e-05
-0.0201244 0.00529989 1e-05
-0.0201099 0.00539977 1e-05
-0.0200951 0.0055 1e-05
-0.0200805 0.00559656 1e-05
-0.0200657 0.00569308 1e-05
-0.0200507 0.00578956 1e-05
-0.0200354 0.005886 1e-05
-0.0200223 0.00596671 1e-05
-0.0200212 0.00597337 1e-05
-0.0200201 0.00598002 1e-05
-0.020019 0.00598668 1e-05
-0.020018 0.00599334 1e-05
-0.0200169 0.006 1e-05
-0.0200004 0.0061 1e-05
-0.0199836 0.00619995 1e-05
-0.0199666 0.00629986 1e-05
-0.0199493 0.00639972 1e-05
-0.0199317 0.0065 1e-05
-0.0199138 0.0066 1e-05
-0.0198956 0.00669995 1e-05
-0.0198772 0.00679985 1e-05
-0.0198585 0.0068997 1e-05
-0.0198394 0.007 1e-05
-0.0198238 0.00708072 1e-05
-0.019808 0.00716141 1e-05
-0.019792 0.00724207 1e-05
-0.0197759 0.00732268 1e-05
-0.0197614 0.00739423 1e-05
-0.019757 0.00741538 1e-05
-0.0197527 0.00743654 1e-05
-0.0197483 0.00745768 1e-05
-0.019744 0.00747883 1e-05
-0.0197396 0.0075 1e-05
-0.0197188 0.0076 1e-05
-0.0196977 0.00769994 1e-05
-0.0196763 0.00779982 1e-05
-0.0196547 0.00789964 1e-05
-0.0196326 0.008 1e-05
-0.0196104 0.0081 1e-05
-0.0195878 0.00819994 1e-05
-0.0195649 0.00829981 1e-05
-0.0195418 0.00839961 1e-05
-0.0195182 0.0085 1e-05
-0.0195151 0.0085132 1e-05
-0.0195119 0.00852639 1e-05
-0.0195088 0.00853958 1e-05
-0.0195056 0.00855278 1e-05
-0.0195025 0.00856575 1e-05
-0.0194817 0.0086526 1e-05
-0.0194606 0.0087394 1e-05
-0.0194393 0.00882614 1e-05
-0.0194178 0.00891283 1e-05
-0.019396 0.009 1e-05
-0.0193706 0.0091 1e-05
-0.019345 0.00919992 1e-05
-0.019319 0.00929977 1e-05
-0.0192928 0.00939954 1e-05
-0.0192661 0.0095 1e-05
-0.019262 0.00951509 1e-05
-0.0192579 0.00953018 1e-05
-0.0192538 0.00954527 1e-05
-0.0192498 0.00956036 1e-05
-0.0192457 0.00957519 1e-05
-0.0192227 0.00966015 1e-05
-0.0191994 0.00974505 1e-05
-0.0191758 0.0098299 1e-05
-0.0191521 0.00991468 1e-05
-0.019128 0.01 1e-05
-0.0191006 0.010096 1e-05
-0.0190729 0.0101919 1e-05
-0.019045 0.0102877 1e-05
-0.0190168 0.0103834 1e-05
-0.018991 0.0104697 1e-05
-0.0189892 0.0104757 1e-05
-0.0189874 0.0104818 1e-05
-0.0189856 0.0104879 1e-05
-0.0189837 0.0104939 1e-05
-0.0189819 0.0105 1e-05
-0.0189517 0.0106 1e-05
-0.0189212 0.0106999 1e-05
-0.0188904 0.0107997 1e-05
-0.0188593 0.0108994 1e-05
-0.0188276 0.011 1e-05
-0.0188097 0.011056 1e-05
-0.0187918 0.0111119 1e-05
-0.0187738 0.0111678 1e-05
-0.0187556 0.0112236 1e-05
-0.0187384 0.0112765 1e-05
-0.0187237 0.0113212 1e-05
-0.018709 0.0113659 1e-05
-0.0186942 0.0114105 1e-05
-0.0186793 0.0114552 1e-05
-0.0186643 0.0115 1e-05
-0.0186307 0.0116 1e-05
-0.0185968 0.0116999 1e-05
-0.0185626 0.0117997 1e-05
-0.018528 0.0118994 1e-05
-0.0184928 0.012 1e-05
-0.0184918 0.0120028 1e-05
-0.0184908 0.0120056 1e-05
-0.0184898 0.0120085 1e-05
-0.0184888 0.0120113 1e-05
-0.0184878 0.0120141 1e-05
-0.0184534 0.0121113 1e-05
-0.0184186 0.0122084 1e-05
-0.0183836 0.0123053 1e-05
-0.0183483 0.0124022 1e-05
-0.0183122 0.0125 1e-05
-0.0182976 0.0125393 1e-05
-0.018283 0.0125786 1e-05
-0.0182683 0.0126178 1e-05
-0.0182535 0.012657 1e-05
-0.0182392 0.0126949 1e-05
-0.0182161 0.0127559 1e-05
-0.0181928 0.0128169 1e-05
-0.0181694 0.0128778 1e-05
-0.0181459 0.0129387 1e-05
-0.0181221 0.013 1e-05
-0.0180962 0.0130664 1e-05
-0.0180702 0.0131327 1e-05
-0.018044 0.0131989 1e-05
-0.0180176 0.0132651 1e-05
-0.0179926 0.0133276 1e-05
-0.0179787 0.0133621 1e-05
-0.0179648 0.0133965 1e-05
-0.0179508 0.013431 1e-05
-0.0179368 0.0134654 1e-05
-0.0179227 0.0135 1e-05
-0.0178877 0.0135853 1e-05
-0.0178526 0.0136705 1e-05
-0.0178171 0.0137556 1e-05
-0.0177815 0.0138406 1e-05
-0.017748 0.0139198 1e-05
-0.0177412 0.0139358 1e-05
-0.0177343 0.0139519 1e-05
-0.0177275 0.0139679 1e-05
-0.0177206 0.0139839 1e-05
-0.0177137 0.014 1e-05
-0.017672 0.0140971 1e-05
-0.01763 0.0141941 1e-05
-0.0175877 0.0142909 1e-05
-0.0175451 0.0143876 1e-05
-0.0175053 0.014477 1e-05
-0.0175033 0.0144816 1e-05
-0.0175012 0.0144862 1e-05
-0.0174992 0.0144908 1e-05
-0.0174971 0.0144954 1e-05
-0.017495 0.0145 1e-05
-0.0174501 0.0146 1e-05
-0.0174048 0.0146998 1e-05
-0.0173592 0.0147995 1e-05
-0.0173133 0.0148991 1e-05
-0.0172662 0.015 1e-05
-0.0172659 0.0150007 1e-05
-0.0172656 0.0150013 1e-05
-0.0172653 0.015002 1e-05
-0.017265 0.0150027 1e-05
-0.0172647 0.0150034 1e-05
-0.017218 0.0151027 1e-05
-0.0171709 0.0152019 1e-05
-0.0171235 0.0153009 1e-05
-0.0170758 0.0153997 1e-05
-0.017027 0.0155 1e-05
-0.0170268 0.0155004 1e-05
-0.0170266 0.0155009 1e-05
-0.0170263 0.0155013 1e-05
-0.0170261 0.0155017 1e-05
-0.0170259 0.0155022 1e-05
-0.0169786 0.0155985 1e-05
-0.0169309 0.0156948 1e-05
-0.0168829 0.0157908 1e-05
-0.0168345 0.0158867 1e-05
-0.0167891 0.0159761 1e-05
-0.0167867 0.0159809 1e-05
-0.0167842 0.0159857 1e-05
-0.0167818 0.0159904 1e-05
-0.0167793 0.0159952 1e-05
-0.0167769 0.016 1e-05
-0.0167323 0.0160868 1e-05
-0.0166875 0.0161734 1e-05
-0.0166425 0.0162599 1e-05
-0.0165971 0.0163463 1e-05
-0.0165542 0.0164275 1e-05
-0.0165465 0.016442 1e-05
-0.0165387 0.0164565 1e-05
-0.016531 0.016471 1e-05
-0.0165233 0.0164855 1e-05
-0.0165155 0.0165 1e-05
-0.0164766 0.0165725 1e-05
-0.0164376 0.016645 1e-05
-0.0163983 0.0167173 1e-05
-0.0163589 0.0167895 1e-05
-0.0163212 0.0168583 1e-05
-0.0163055 0.0168866 1e-05
-0.0162898 0.0169149 1e-05
-0.0162741 0.0169433 1e-05
-0.0162584 0.0169716 1e-05
-0.0162425 0.017 1e-05
-0.016212 0.0170546 1e-05
-0.0161814 0.017109 1e-05
-0.0161507 0.0171635 1e-05
-0.0161199 0.0172178 1e-05
-0.01609 0.0172703 1e-05
-0.0160638 0.0173162 1e-05
-0.0160374 0.0173621 1e-05
-0.016011 0.017408 1e-05
-0.0159845 0.0174538 1e-05
-0.0159576 0.0175 1e-05
-0.0159383 0.0175332 1e-05
-0.0159188 0.0175665 1e-05
-0.0158994 0.0175997 1e-05
-0.0158799 0.0176328 1e-05
-0.0158607 0.0176653 1e-05
-0.0158212 0.0177322 1e-05
-0.0157815 0.0177991 1e-05
-0.0157416 0.0178658 1e-05
-0.0157015 0.0179325 1e-05
-0.0156607 0.018 1e-05
-0.0156552 0.018009 1e-05
-0.0156498 0.018018 1e-05
-0.0156443 0.0180271 1e-05
-0.0156388 0.0180361 1e-05
-0.0156333 0.018045 1e-05
-0.0155882 0.018119 1e-05
-0.0155429 0.0181929 1e-05
-0.0154974 0.0182666 1e-05
-0.0154516 0.0183402 1e-05
-0.0154077 0.0184105 1e-05
-0.0153965 0.0184284 1e-05
-0.0153852 0.0184463 1e-05
-0.0153739 0.0184642 1e-05
-0.0153627 0.0184821 1e-05
-0.0153513 0.0185 1e-05
-0.0153178 0.0185529 1e-05
-0.0152843 0.0186057 1e-05
-0.0152506 0.0186585 1e-05
-0.0152168 0.0187112 1e-05
-0.0151839 0.0187622 1e-05
-0.0151532 0.0188097 1e-05
-0.0151223 0.0188573 1e-05
-0.0150914 0.0189047 1e-05
-0.0150604 0.0189521 1e-05
-0.0150289 0.019 1e-05
-0.0150155 0.0190203 1e-05
-0.0150021 0.0190406 1e-05
-0.0149887 0.019061 1e-05
-0.0149753 0.0190813 1e-05
-0.0149619 0.0191013 1e-05
-0.0149179 0.0191676 1e-05
-0.0148737 0.0192337 1e-05
-0.0148293 0.0192998 1e-05
-0.0147848 0.0193657 1e-05
-0.0147417 0.0194291 1e-05
-0.0147321 0.0194433 1e-05
-0.0147224 0.0194575 1e-05
-0.0147127 0.0194716 1e-05
-0.014703 0.0194858 1e-05
-0.0146933 0.0195 1e-05
-0.0146593 0.0195495 1e-05
-0.0146252 0.019599 1e-05
-0.014591 0.0196484 1e-05
-0.0145568 0.0196978 1e-05
-0.0145233 0.0197457 1e-05
-0.0144877 0.0197966 1e-05
-0.014452 0.0198474 1e-05
-0.0144163 0.0198981 1e-05
-0.0143804 0.0199487 1e-05
-0.0143439 0.02 1e-05
-0.0143365 0.0200104 1e-05
-0.014329 0.0200209 1e-05
-0.0143216 0.0200313 1e-05
-0.0143141 0.0200417 1e-05
-0.0143067 0.0200521 1e-05
-0.0142637 0.020112 1e-05
-0.0142206 0.0201719 1e-05
-0.0141773 0.0202317 1e-05
-0.0141339 0.0202913 1e-05
-0.0140917 0.020349 1e-05
-0.0140696 0.0203792 1e-05
-0.0140474 0.0204094 1e-05
-0.0140252 0.0204395 1e-05
-0.0140029 0.0204697 1e-05
-0.0139804 0.0205 1e-05
-0.01396 0.0205274 1e-05
-0.0139396 0.0205548 1e-05
-0.0139192 0.0205822 1e-05
-0.0138988 0.0206096 1e-05
-0.0138786 0.0206365 1e-05
-0.0138363 0.0206929 1e-05
-0.0137939 0.0207491 1e-05
-0.0137513 0.0208052 1e-05
-0.0137087 0.0208613 1e-05
-0.0136671 0.0209157 1e-05
-0.0136542 0.0209326 1e-05
-0.0136412 0.0209494 1e-05
-0.0136283 0.0209663 1e-05
-0.0136153 0.0209831 1e-05
-0.0136023 0.021 1e-05
-0.0135733 0.0210375 1e-05
-0.0135442 0.021075 1e-05
-0.0135151 0.0211125 1e-05
-0.013486 0.0211499 1e-05
-0.0134573 0.0211866 1e-05
-0.0134157 0.0212397 1e-05
-0.013374 0.0212927 1e-05
-0.0133322 0.0213456 1e-05
-0.0132902 0.0213985 1e-05
-0.0132493 0.0214499 1e-05
-0.0132412 0.0214599 1e-05
-0.0132332 0.0214699 1e-05
-0.0132252 0.02148 1e-05
-0.0132172 0.02149 1e-05
-0.0132091 0.0215 1e-05
-0.0131759 0.0215414 1e-05
-0.0131426 0.0215828 1e-05
-0.0131092 0.0216241 1e-05
-0.0130757 0.0216654 1e-05
-0.0130429 0.0217058 1e-05
-0.0130019 0.021756 1e-05
-0.0129609 0.0218061 1e-05
-0.0129197 0.0218562 1e-05
-0.0128785 0.0219061 1e-05
-0.0128381 0.0219549 1e-05
-0.0128306 0.0219639 1e-05
-0.0128231 0.0219729 1e-05
-0.0128156 0.0219819 1e-05
-0.0128081 0.021991 1e-05
[...]
POINT_DATA 12105
 FIELD attributes 2
p 1 12105 float
-0.000404907 -0.000117738 0.000171758 0.0004614 0.00075087 0.00103089 0.00110097 0.00117573 0.00125583 0.0013357 0.00141406 0.00148594 0.00155886 0.00164021 0.00172179 0.00180447 0.00193888 0.00207476 0.00221163 0.00235384 0.00249775 0.00270551 0.00291488 0.00312384 0.00333365 0.00354946 0.00382483 0.0041014 0.0043775 0.00465314 0.00493095 0.00494847 0.00496823 0.00498798 0.00500774 0.00502722 0.00534441 0.00566243 0.00597997 0.00629702 0.0066158 0.00701232 0.00740951 0.00780623 0.00820236 0.00860028 0.00905639 0.00951316 0.00996929 0.0104239 0.0108809 0.0113788 0.0118771 0.0123748 0.0128719 0.0132886 0.0133221 0.0133556 0.0133896 0.0134239 0.0134601 0.014034 0.0146087 0.0151828 0.0157562 0.0163337 0.0169681 0.0176036 0.018237 0.0188673 0.0195019 0.0200577 0.0206149 0.0211716 0.0217278 0.0222232 0.0223683 0.0225146 0.0226608 0.022807 0.0229545 0.0237028 0.024448 0.0251924 0.0259359 0.0266842 0.0274831 0.0282821 0.0290803 0.0298776 0.0306778 0.0307887 0.0309004 0.031012 0.0311237 0.0312343 0.0319711 0.032709 0.0334462 0.0341828 0.034925 0.0358215 0.0367187 0.037615 0.0385103 0.0394097 0.0395498 0.0396914 0.039833 0.0399745 0.0401152 0.0409158 0.0417163 0.0425162 0.0433154 0.0441201 0.0450637 0.0460069 0.0469491 0.0478904 0.0487394 0.0487982 0.0488578 0.0489177 0.0489777 0.0490391 0.0500626 0.0510849 0.0521062 0.0531265 0.0541569 0.0547472 0.0553385 0.0559293 0.0565199 0.0570798 0.0575545 0.0580294 0.058504 0.0589785 0.0594552 0.060549 0.0616419 0.0627337 0.0638243 0.064925 0.0649565 0.064988 0.0650196 0.0650512 0.0650828 0.0661751 0.0672673 0.0683584 0.0694484 0.0705505 0.0710013 0.071453 0.0719045 0.0723558 0.0727929 0.0734983 0.0742036 0.0749084 0.0756127 0.0763221 0.0771037 0.0778847 0.0786651 0.079445 0.0801817 0.0805895 0.0809979 0.0814062 0.0818143 0.0822248 0.0832508 0.0842769 0.0853021 0.0863262 0.0872815 0.0874756 0.0876699 0.0878641 0.0880583 0.0882531 0.089444 0.0906331 0.091821 0.0930074 0.0941047 0.0941611 0.0942178 0.0942746 0.0943314 0.0943885 0.0956345 0.0968801 0.0981241 0.0993665 0.100628 0.100636 0.100644 0.100653 0.100661 0.10067 0.101926 0.10318 0.104432 0.105683 0.106953 0.106958 0.106964 0.106969 0.106975 0.10698 0.108214 0.109447 0.110679 0.111909 0.113056 0.113118 0.113179 0.113241 0.113302 0.113364 0.114487 0.115608 0.116728 0.117846 0.118897 0.119086 0.119275 0.119464 0.119652 0.119841 0.120787 0.121733 0.122678 0.123621 0.124521 0.124893 0.125265 0.125636 0.126008 0.126382 0.127099 0.127814 0.128529 0.129243 0.129931 0.130539 0.131145 0.131751 0.132357 0.132967 0.133405 0.133843 0.134281 0.13472 0.135149 0.136037 0.136923 0.137809 0.138694 0.139591 0.139712 0.139831 0.13995 0.140069 0.140185 0.141168 0.142147 0.143125 0.144101 0.145032 0.145273 0.145511 0.145749 0.145988 0.146225 0.146922 0.147618 0.148314 0.149009 0.149683 0.150313 0.150944 0.151574 0.152204 0.152842 0.153109 0.153375 0.153641 0.153907 0.154168 0.15504 0.155908 0.156776 0.157641 0.15847 0.158659 0.158846 0.159033 0.15922 0.159406 0.160044 0.160684 0.161323 0.161962 0.162585 0.163244 0.163903 0.164562 0.165219 0.165885 0.166021 0.166152 0.166284 0.166416 0.166543 0.167305 0.168063 0.168819 0.169575 0.170304 0.170691 0.171074 0.171456 0.171838 0.172219 0.172554 0.172889 0.173224 0.173559 0.173888 0.174577 0.175266 0.175955 0.176643 0.177312 0.177519 0.177725 0.177931 0.178137 0.178343 0.178788 0.179227 0.179666 0.180105 0.18053 0.181155 0.181777 0.182398 0.183018 0.18362 0.183742 0.183859 0.183976 0.184093 0.184205 0.184665 0.185125 0.185584 0.186043 0.186493 0.187047 0.187603 0.188158 0.188713 0.189259 0.189358 0.189458 0.189557 0.189656 0.189756 0.190175 0.190587 0.190998 0.191409 0.191806 0.192302 0.192793 0.193284 0.193774 0.194252 0.194396 0.194532 0.194668 0.194805 0.194934 0.195248 0.19556 0.195873 0.196185 0.196492 0.196914 0.19734 0.197766 0.198194 0.198617 0.198826 0.199035 0.199244 0.199453 0.199663 0.199855 0.20004 0.200224 0.200408 0.200583 0.200954 0.201321 0.20169 0.202059 0.202417 0.202728 0.20303 0.203332 0.203634 0.203931 0.203975 0.204019 0.204063 0.204107 0.204151 0.204458 0.204772 0.205085 0.205399 0.205712 0.20601 0.206309 0.206607 0.206905 0.207202 0.207298 0.2074 0.207502 0.207604 0.207713 0.207885 0.208053 0.20822 0.208388 0.208549 0.208806 0.209052 0.209301 0.20955 0.209785 0.210026 0.210262 0.210498 0.210733 0.210967 0.210969 0.21097 0.210972 0.210975 0.210979 0.211171 0.211362 0.211553 0.211743 0.21193 0.212106 0.212287 0.212469 0.212655 0.212844 0.212981 0.213117 0.213252 0.213387 0.213523 0.213564 0.213593 0.213623 0.213652 0.213669 0.213803 0.213936 0.214069 0.214201 0.214327 0.214459 0.214579 0.214698 0.214824 0.214936 0.215029 0.215118 0.215206 0.215294 0.215377 0.215389 0.215408 0.215427 0.215446 0.215471 0.215538 0.215609 0.215679 0.21575 0.215818 0.215872 0.215933 0.215994 0.216064 0.216141 0.216193 0.216243 0.216294 0.216344 0.216394 0.216403 0.216411 0.216412 0.216414 0.216401 0.216422 0.21644 0.216457 0.216475 0.216488 0.216506 0.21651 0.21652 0.216535 0.216535 0.216546 0.216553 0.21656 0.216567 0.216575 0.216591 0.216592 0.216593 0.216594 0.216581 0.216555 0.216526 0.216498 0.216469 0.216437 0.216384 0.216345 0.216312 0.21628 0.216256 0.216213 0.216167 0.216121 0.216082 0.216045 0.216004 0.215972 0.21594 0.215909 0.215886 0.215875 0.215864 0.215853 0.215842 0.21583 0.215776 0.215711 0.215646 0.215581 0.215503 0.21544 0.215377 0.215322 0.215269 0.215216 0.215168 0.215108 0.215047 0.214988 0.214923 0.214891 0.21486 0.21483 0.214799 0.214769 0.214735 0.21471 0.214685 0.21466 0.214645 0.214583 0.214516 0.21445 0.214384 0.214312 0.214247 0.214193 0.214141 0.21409 0.21405 0.214008 0.213959 0.21391 0.213861 0.213808 0.213773 0.213748 0.213724 0.2137 0.213685 0.213666 0.213648 0.213631 0.213613 0.213598 0.213557 0.213499 0.213442 0.213385 0.213312 0.213267 0.213226 0.213184 0.213141 0.213103 0.213084 0.21305 0.213017 0.212981 0.212929 0.212904 0.212884 0.212864 0.212845 0.21283 0.212844 0.212843 0.212838 0.212831 0.212825 0.212789 0.212737 0.212686 0.212635 0.212568 0.212525 0.212485 0.212444 0.212403 0.212367 0.212357 0.21233 0.2123 0.212267 0.212216 0.212207 0.212202 0.212197 0.212192 0.212183 0.21221 0.212216 0.212222 0.212228 0.212214 0.212219 0.212212 0.212204 0.212196 0.212175 0.212162 0.21216 0.212158 0.212156 0.212168 0.212209 0.212232 0.21225 0.212267 0.212272 0.212332 0.212408 0.212482 0.212544 0.212622 0.212739 0.212842 0.212946 0.213051 0.213124 0.213233 0.21336 0.213487 0.213614 0.213761 0.213777 0.213799 0.213826 0.213853 0.213895 0.214096 0.214274 0.214454 0.214633 0.214794 0.215017 0.215238 0.21545 0.215662 0.215888 0.216154 0.216401 0.216633 0.216852 0.217049 0.21728 0.217523 0.217767 0.217998 0.218222 0.218496 0.218751 0.219006 0.219262 0.219487 0.219544 0.219614 0.219683 0.219753 0.219836 0.220009 0.220211 0.220412 0.220614 0.220843 0.221191 0.221497 0.221803 0.222108 0.22241 0.222728 0.223061 0.22335 0.223639 0.223952 0.224343 0.224732 0.225112 0.225444 0.225773 0.226155 0.226558 0.226961 0.227354 0.227717 0.228188 0.228655 0.229122 0.229589 0.230038 0.230121 0.230219 0.230316 0.230419 0.230526 0.230937 0.231368 0.231798 0.232229 0.232678 0.233314 0.233903 0.234493 0.235084 0.235674 0.236339 0.237006 0.237628 0.23825 0.23889 0.239619 0.240353 0.241064 0.241732 0.242403 0.243144 0.243908 0.244672 0.245404 0.246118 0.246913 0.247714 0.248516 0.249318 0.250084 0.250604 0.251146 0.251688 0.25223 0.252797 0.253095 0.2534 0.253706 0.254012 0.254326 0.25527 0.256185 0.2571 0.258015 0.258921 0.259937 0.260892 0.261834 0.262775 0.263722 0.264784 0.26584 0.266811 0.267783 0.268746 0.269825 0.270911 0.271982 0.272982 0.273987 0.275106 0.276219 0.277332 0.278413 0.27943 0.280554 0.281685 0.282816 0.283948 0.285033 0.285864 0.28669 0.287515 0.288341 0.289162 0.289486 0.289815 0.290147 0.290479 0.290823 0.292026 0.293233 0.29444 0.295646 0.296879 0.298174 0.299384 0.300593 0.301803 0.303027 0.304318 0.305612 0.30683 0.308048 0.309298 0.310595 0.3119 0.313161 0.314368 0.315597 0.316905 0.318237 0.319568 0.320835 0.322114 0.323518 0.324931 0.326343 0.327754 0.329132 0.330684 0.332262 0.333838 0.335412 0.336872 0.336947 0.337023 0.337098 0.337173 0.337261 0.339341 0.341419 0.343492 0.34556 0.347772 0.350722 0.353553 0.356369 0.359171 0.362265 0.366492 0.370717 0.374766 0.378761 0.383274 0.38885 0.394402 0.399889 0.405232 0.411306 0.416624 0.421844 0.427006 0.432112 0.436631 0.43706 0.43749 0.437911 0.438325 0.438706 0.441428 0.444038 0.446635 0.449219 0.452095 0.454208 0.456357 0.458547 0.460773 0.462849 0.463259 0.463663 0.464069 0.464475 0.464889 0.468178 0.47156 0.474994 0.478476 0.48174 0.482031 0.482359 0.482687 0.483015 0.483387 0.488347 0.493364 0.49839 0.503425 0.508265 0.509549 0.510881 0.512213 0.513546 0.514999 0.519993 0.525002 0.530006 0.535006 0.539921 0.543846 0.54779 0.551732 0.555672 0.560017 0.562961 0.565914 0.568865 0.571815 0.574752 0.582285 0.589822 0.597352 0.604876 0.612251 0.613047 0.613854 0.61466 0.615466 0.616294 0.623381 0.630469 0.637554 0.644636 0.651648 0.658306 0.664966 0.671625 0.67828 0.685618 0.687219 0.688828 0.690437 0.692045 0.693659 0.702564 0.711428 0.72028 0.729129 0.737906 0.744651 0.751403 0.758154 0.764904 0.772308 0.774868 0.777435 0.780003 0.78257 0.78514 0.79519 0.805201 0.815194 0.825186 0.835108 0.844889 0.854677 0.864465 0.87425 0.885465 0.886096 0.886727 0.887363 0.888 0.888649 0.899975 0.9113 0.922624 0.933948 0.945207 0.957338 0.96948 0.981622 0.993713 1.00571 1.01404 1.02237 1.0307 1.03904 1.0486 1.05288 1.05717 1.06147 1.06576 1.07005 1.08368 1.09729 1.11089 1.12449 1.13802 1.15246 1.16691 1.18133 1.19572 1.21005 1.22523 1.24041 1.25559 1.27077 1.28584 1.29788 1.30992 1.32196 1.334 1.35055 1.35338 1.35622 1.35905 1.36188 1.36472 1.38087 1.39702 1.41318 1.42933 1.44542 1.46182 1.47819 1.49455 1.51092 1.52723 1.54366 1.56004 1.57639 1.59273 1.60904 1.62543 1.64177 1.65805 1.67433 1.69059 1.70717 1.72374 1.74029 1.75684 1.77338 1.79099 1.8087 1.82648 1.84426 1.86207 1.88221 1.9027 1.92323 1.94376 1.96435 1.98846 2.01293 2.03741 2.06188 2.08643 2.09452 2.10267 2.11081 2.11894 2.12635 2.14537 2.16438 2.18338 2.20238 2.22138 2.24476 2.26786 2.29096 2.31407 2.33724 2.35096 2.36433 2.37769 2.39302 2.40885 2.42749 2.44649 2.46874 2.49692 2.52547 2.59481 2.66578 2.75436 2.84306 2.93327 3.15652 3.3982 3.64908 3.89978 4.15484 4.54974 4.96219 5.37417 5.78568 6.19749 6.43507 6.66396 6.89217 7.11969 7.33487