# vtk DataFile Version 2.0
track0
ASCII
DATASET POLYDATA
POINTS 12105 float
-0.0205 0.001 1e-05
-0.0204963 0.0011 1e-05
-0.0204924 0.00119999 1e-05
-0.0204883 0.00129998 1e-05
-0.020484 0.00139995 1e-05
-0.0204795 0.0015 1e-05
-0.0204748 0.0016 1e-05
-0.0204699 0.00169999 1e-05
-0.0204647 0.00179997 1e-05
-0.0204594 0.00189993 1e-05
-0.0204537 0.002 1e-05
-0.0204479 0.0021 1e-05
-0.0204418 0.00219999 1e-05
-0.0204355 0.00229996 1e-05
-0.0204289 0.00239991 1e-05
-0.020422 0.0025 1e-05
-0.0204149 0.0026 1e-05
-0.0204076 0.00269998 1e-05
-0.0204 0.00279994 1e-05
-0.0203922 0.00289989 1e-05
-0.020384 0.003 1e-05
-0.0203757 0.0031 1e-05
-0.020367 0.00319998 1e-05
-0.0203581 0.00329993 1e-05
-0.020349 0.00339987 1e-05
-0.0203396 0.0035 1e-05
-0.0203299 0.0036 1e-05
-0.0203199 0.00369997 1e-05
-0.0203097 0.00379992 1e-05
-0.0202993 0.00389984 1e-05
-0.0202885 0.004 1e-05
-0.0202879 0.0040057 1e-05
-0.0202873 0.0040114 1e-05
-0.0202866 0.0040171 1e-05
-0.020286 0.00402279 1e-05
-0.0202854 0.00402841 1e-05
-0.0202749 0.00412273 1e-05
-0.0202643 0.00421702 1e-05
-0.0202533 0.00431129 1e-05
-0.0202422 0.00440552 1e-05
-0.0202308 0.0045 1e-05
-0.0202184 0.0046 1e-05
-0.0202058 0.00469997 1e-05
-0.0201929 0.0047999 1e-05
-0.0201798 0.0048998 1e-05
-0.0201663 0.005 1e-05
-0.0201526 0.0051 1e-05
-0.0201387 0.00519996 1e-05
-0.0201244 0.00529989 1e-05
-0.0201099 0.00539977 1e-05
-0.0200951 0.0055 1e-05
-0.0200805 0.00559656 1e-05
-0.0200657 0.00569308 1e-05
-0.0200507 0.00578956 1e-05
-0.0200354 0.005886 1e-05
-0.0200223 0.00596671 1e-05
-0.0200212 0.00597337 1e-05
-0.0200201 0.00598002 1e-05
-0.020019 0.00598668 1e-05
-0.020018 0.00599334 1e-05
-0.0200169 0.006 1e-05
-0.0200004 0.0061 1e-05
-0.0199836 0.00619995 1e-05
-0.0199666 0.00629986 1e-05
-0.0199493 0.00639972 1e-05
-0.0199317 0.0065 1e-05
-0.0199138 0.0066 1e-05
-0.0198956 0.00669995 1e-05
-0.0198772 0.00679985 1e-05
-0.0198585 0.0068997 1e-05
-0.0198394 0.007 1e-05
-0.0198238 0.00708072 1e-05
-0.019808 0.00716141 1e-05
-0.019792 0.00724207 1e-05
-0.0197759 0.00732268 1e-05
-0.0197614 0.00739423 1e-05
-0.019757 0.00741538 1e-05
-0.0197527 0.00743654 1e-05
-0.0197483 0.00745768 1e-05
-0.019744 0.00747883 1e-05
-0.0197396 0.0075 1e-05
-0.0197188 0.0076 1e-05
-0.0196977 0.00769994 1e-05
-0.0196763 0.00779982 1e-05
-0.0196547 0.00789964 1e-05
-0.0196326 0.008 1e-05
-0.0196104 0.0081 1e-05
-0.0195878 0.00819994 1e-05
-0.0195649 0.00829981 1e-05
-0.0195418 0.00839961 1e-05
-0.0195182 0.0085 1e-05
-0.0195151 0.0085132 1e-05
-0.0195119 0.00852639 1e-05
-0.0195088 0.00853958 1e-05
-0.0195056 0.00855278 1e-05
-0.0195025 0.00856575 1e-05
-0.0194817 0.0086526 1e-05
-0.0194606 0.0087394 1e-05
-0.0194393 0.00882614 1e-05
-0.0194178 0.00891283 1e-05
-0.019396 0.009 1e-05
-0.0193706 0.0091 1e-05
-0.019345 0.00919992 1e-05
-0.019319 0.00929977 1e-05
-0.0192928 0.00939954 1e-05
-0.0192661 0.0095 1e-05
-0.019262 0.00951509 1e-05
-0.0192579 0.00953018 1e-05
-0.0192538 0.00954527 1e-05
-0.0192498 0.00956036 1e-05
-0.0192457 0.00957519 1e-05
-0.0192227 0.00966015 1e-05
-0.0191994 0.00974505 1e-05
-0.0191758 0.0098299 1e-05
-0.0191521 0.00991468 1e-05
-0.019128 0.01 1e-05
-0.0191006 0.010096 1e-05
-0.0190729 0.0101919 1e-05
-0.019045 0.0102877 1e-05
-0.0190168 0.0103834 1e-05
-0.018991 0.0104697 1e-05
-0.0189892 0.0104757 1e-05
-0.0189874 0.0104818 1e-05
-0.0189856 0.0104879 1e-05
-0.0189837 0.0104939 1e-05
-0.0189819 0.0105 1e-05
-0.0189517 0.0106 1e-05
-0.0189212 0.0106999 1e-05
-0.0188904 0.0107997 1e-05
-0.0188593 0.0108994 1e-05
-0.0188276 0.011 1e-05
-0.0188097 0.011056 1e-05
-0.0187918 0.0111119 1e-05
-0.0187738 0.0111678 1e-05
-0.0187556 0.0112236 1e-05
-0.0187384 0.0112765 1e-05
-0.0187237 0.0113212 1e-05
-0.018709 0.0113659 1e-05
-0.0186942 0.0114105 1e-05
-0.0186793 0.0114552 1e-05
-0.0186643 0.0115 1e-05
-0.0186307 0.0116 1e-05
-0.0185968 0.0116999 1e-05
-0.0185626 0.0117997 1e-05
-0.018528 0.0118994 1e-05
-0.0184928 0.012 1e-05
-0.0184918 0.0120028 1e-05
-0.0184908 0.0120056 1e-05
-0.0184898 0.0120085 1e-05
-0.0184888 0.0120113 1e-05
-0.0184878 0.0120141 1e-05
-0.0184534 0.0121113 1e-05
-0.0184186 0.0122084 1e-05
-0.0183836 0.0123053 1e-05
-0.0183483 0.0124022 1e-05
-0.0183122 0.0125 1e-05
-0.0182976 0.0125393 1e-05
-0.018283 0.0125786 1e-05
-0.0182683 0.0126178 1e-05
-0.0182535 0.012657 1e-05
-0.0182392 0.0126949 1e-05
-0.0182161 0.0127559 1e-05
-0.0181928 0.0128169 1e-05
-0.0181694 0.0128778 1e-05
-0.0181459 0.0129387 1e-05
-0.0181221 0.013 1e-05
-0.0180962 0.0130664 1e-05
-0.0180702 0.0131327 1e-05
-0.018044 0.0131989 1e-05
-0.0180176 0.0132651 1e-05
-0.0179926 0.0133276 1e-05
-0.0179787 0.0133621 1e-05
-0.0179648 0.0133965 1e-05
-0.0179508 0.013431 1e-05
-0.0179368 0.0134654 1e-05
-0.0179227 0.0135 1e-05
-0.0178877 0.0135853 1e-05
-0.0178526 0.0136705 1e-05
-0.0178171 0.0137556 1e-05
-0.0177815 0.0138406 1e-05
-0.017748 0.0139198 1e-05
-0.0177412 0.0139358 1e-05
-0.0177343 0.0139519 1e-05
-0.0177275 0.0139679 1e-05
-0.0177206 0.0139839 1e-05
-0.0177137 0.014 1e-05
-0.017672 0.0140971 1e-05
-0.01763 0.0141941 1e-05
-0.0175877 0.0142909 1e-05
-0.0175451 0.0143876 1e-05
-0.0175053 0.014477 1e-05
-0.0175033 0.0144816 1e-05
-0.0175012 0.0144862 1e-05
-0.0174992 0.0144908 1e-05
-0.0174971 0.0144954 1e-05
-0.017495 0.0145 1e-05
-0.0174501 0.0146 1e-05
-0.0174048 0.0146998 1e-05
-0.0173592 0.0147995 1e-05
-0.0173133 0.0148991 1e-05
-0.0172662 0.015 1e-05
-0.0172659 0.0150007 1e-05
-0.0172656 0.0150013 1e-05
-0.0172653 0.015002 1e-05
-0.017265 0.0150027 1e-05
-0.0172647 0.0150034 1e-05
-0.017218 0.0151027 1e-05
-0.0171709 0.0152019 1e-05
-0.0171235 0.0153009 1e-05
-0.0170758 0.0153997 1e-05
-0.017027 0.0155 1e-05
-0.0170268 0.0155004 1e-05
-0.0170266 0.0155009 1e-05
-0.0170263 0.0155013 1e-05
-0.0170261 0.0155017 1e-05
-0.0170259 0.0155022 1e-05
-0.0169786 0.0155985 1e-05
-0.0169309 0.0156948 1e-05
-0.0168829 0.0157908 1e-05
-0.0168345 0.0158867 1e-05
-0.0167891 0.0159761 1e-05
-0.0167867 0.0159809 1e-05
-0.0167842 0.0159857 1e-05
-0.0167818 0.0159904 1e-05
-0.0167793 0.0159952 1e-05
-0.0167769 0.016 1e-05
-0.0167323 0.0160868 1e-05
-0.0166875 0.0161734 1e-05
-0.0166425 0.0162599 1e-05
-0.0165971 0.0163463 1e-05
-0.0165542 0.0164275 1e-05
-0.0165465 0.016442 1e-05
-0.0165387 0.0164565 1e-05
-0.016531 0.016471 1e-05
-0.0165233 0.0164855 1e-05
-0.0165155 0.0165 1e-05
-0.0164766 0.0165725 1e-05
-0.0164376 0.016645 1e-05
-0.0163983 0.0167173 1e-05
-0.0163589 0.0167895 1e-05
-0.0163212 0.0168583 1e-05
-0.0163055 0.0168866 1e-05
-0.0162898 0.0169149 1e-05
-0.0162741 0.0169433 1e-05
-0.0162584 0.0169716 1e-05
-0.0162425 0.017 1e-05
-0.016212 0.0170546 1e-05
-0.0161814 0.017109 1e-05
-0.0161507 0.0171635 1e-05
-0.0161199 0.0172178 1e-05
-0.01609 0.0172703 1e-05
-0.0160638 0.0173162 1e-05
-0.0160374 0.0173621 1e-05
-0.016011 0.017408 1e-05
-0.0159845 0.0174538 1e-05
-0.0159576 0.0175 1e-05
-0.0159383 0.0175332 1e-05
-0.0159188 0.0175665 1e-05
-0.0158994 0.0175997 1e-05
-0.0158799 0.0176328 1e-05
-0.0158607 0.0176653 1e-05
-0.0158212 0.0177322 1e-05
-0.0157815 0.0177991 1e-05
-0.0157416 0.0178658 1e-05
-0.0157015 0.0179325 1e-05
-0.0156607 0.018 1e-05
-0.0156552 0.018009 1e-05
-0.0156498 0.018018 1e-05
-0.0156443 0.0180271 1e-05
-0.0156388 0.0180361 1e-05
-0.0156333 0.018045 1e-05
-0.0155882 0.018119 1e-05
-0.0155429 0.0181929 1e-05
-0.0154974 0.0182666 1e-05
-0.0154516 0.0183402 1e-05
-0.0154077 0.0184105 1e-05
-0.0153965 0.0184284 1e-05
-0.0153852 0.0184463 1e-05
-0.0153739 0.0184642 1e-05
-0.0153627 0.0184821 1e-05
-0.0153513 0.0185 1e-05
-0.0153178 0.0185529 1e-05
-0.0152843 0.0186057 1e-05
-0.0152506 0.0186585 1e-05
-0.0152168 0.0187112 1e-05
-0.0151839 0.0187622 1e-05
-0.0151532 0.0188097 1e-05
-0.0151223 0.0188573 1e-05
-0.0150914 0.0189047 1e-05
-0.0150604 0.0189521 1e-05
-0.0150289 0.019 1e-05
-0.0150155 0.0190203 1e-05
-0.0150021 0.0190406 1e-05
-0.0149887 0.019061 1e-05
-0.0149753 0.0190813 1e-05
-0.0149619 0.0191013 1e-05
-0.0149179 0.0191676 1e-05
-0.0148737 0.0192337 1e-05
-0.0148293 0.0192998 1e-05
-0.0147848 0.0193657 1e-05
-0.0147417 0.0194291 1e-05
-0.0147321 0.0194433 1e-05
-0.0147224 0.0194575 1e-05
-0.0147127 0.0194716 1e-05
-0.014703 0.0194858 1e-05
-0.0146933 0.0195 1e-05
-0.0146593 0.0195495 1e-05
-0.0146252 0.019599 1e-05
-0.014591 0.0196484 1e-05
-0.0145568 0.0196978 1e-05
-0.0145233 0.0197457 1e-05
-0.0144877 0.0197966 1e-05
-0.014452 0.0198474 1e-05
-0.0144163 0.0198981 1e-05
-0.0143804 0.0199487 1e-05
-0.0143439 0.02 1e-05
-0.0143365 0.0200104 1e-05
-0.014329 0.0200209 1e-05
-0.0143216 0.0200313 1e-05
-0.0143141 0.0200417 1e-05
-0.0143067 0.0200521 1e-05
-0.0142637 0.020112 1e-05
-0.0142206 0.0201719 1e-05
-0.0141773 0.0202317 1e-05
-0.0141339 0.0202913 1e-05
-0.0140917 0.020349 1e-05
-0.0140696 0.0203792 1e-05
-0.0140474 0.0204094 1e-05
-0.0140252 0.0204395 1e-05
-0.0140029 0.0204697 1e-05
-0.0139804 0.0205 1e-05
-0.01396 0.0205274 1e-05
-0.0139396 0.0205548 1e-05
-0.0139192 0.0205822 1e-05
-0.0138988 0.0206096 1e-05
-0.0138786 0.0206365 1e-05
-0.0138363 0.0206929 1e-05
-0.0137939 0.0207491 1e-05
-0.0137513 0.0208052 1e-05
-0.0137087 0.0208613 1e-05
-0.0136671 0.0209157 1e-05
-0.0136542 0.0209326 1e-05
-0.0136412 0.0209494 1e-05
-0.0136283 0.0209663 1e-05
-0.0136153 0.0209831 1e-05
-0.0136023 0.021 1e-05
-0.0135733 0.0210375 1e-05
-0.0135442 0.021075 1e-05
-0.0135151 0.0211125 1e-05
-0.013486 0.0211499 1e-05
-0.0134573 0.0211866 1e-05
-0.0134157 0.0212397 1e-05
-0.013374 0.0212927 1e-05
-0.0133322 0.0213456 1e-05
-0.0132902 0.0213985 1e-05
-0.0132493 0.0214499 1e-05
-0.0132412 0.0214599 1e-05
-0.0132332 0.0214699 1e-05
-0.0132252 0.02148 1e-05
-0.0132172 0.02149 1e-05
-0.0132091 0.0215 1e-05
-0.0131759 0.0215414 1e-05
-0.0131426 0.0215828 1e-05
-0.0131092 0.0216241 1e-05
-0.0130757 0.0216654 1e-05
-0.0130429 0.0217058 1e-05
-0.0130019 0.021756 1e-05
-0.0129609 0.0218061 1e-05
-0.0129197 0.0218562 1e-05
-0.0128785 0.0219061 1e-05
-0.0128381 0.0219549 1e-05
-0.0128306 0.0219639 1e-05
-0.0128231 0.0219729 1e-05
-0.0128156 0.0219819 1e-05
-0.0128081 0.021991 1e-05
[...]
POINT_DATA 12105
 FIELD attributes 1
U 3 12105 float
-0.0115487 	-0.311473 	0 -0.0121524 	-0.311315 	0 -0.0127562 	-0.31116 	0 -0.0133599 	-0.311004 	0 -0.0139635 	-0.310847 	0 -0.0145714 	-0.310696 	0 -0.0152873 	-0.310665 	0 -0.0160032 	-0.310633 	0 -0.0167174 	-0.310598 	0 -0.0174315 	-0.310562 	0 -0.0181482 	-0.310523 	0 -0.0189173 	-0.310475 	0 -0.0196871 	-0.310426 	0 -0.0204539 	-0.310374 	0 -0.0212205 	-0.310321 	0 -0.021989 	-0.310266 	0 -0.0227818 	-0.310216 	0 -0.0235748 	-0.310164 	0 -0.0243672 	-0.310111 	0 -0.0251572 	-0.310054 	0 -0.025949 	-0.309996 	0 -0.0267533 	-0.309935 	0 -0.0275577 	-0.309873 	0 -0.028362 	-0.309808 	0 -0.0291654 	-0.309742 	0 -0.0299689 	-0.309673 	0 -0.0307802 	-0.309598 	0 -0.0315916 	-0.309522 	0 -0.0324029 	-0.309445 	0 -0.033214 	-0.309365 	0 -0.034027 	-0.309284 	0 -0.0340734 	-0.309279 	0 -0.03412 	-0.309274 	0 -0.0341666 	-0.309269 	0 -0.0342132 	-0.309264 	0 -0.0342592 	-0.309259 	0 -0.0350302 	-0.309176 	0 -0.0358013 	-0.309091 	0 -0.0365722 	-0.309005 	0 -0.0373431 	-0.308917 	0 -0.0381161 	-0.308828 	0 -0.0389416 	-0.308728 	0 -0.0397654 	-0.308626 	0 -0.0405882 	-0.308521 	0 -0.0414109 	-0.308415 	0 -0.0422363 	-0.308307 	0 -0.0430673 	-0.308194 	0 -0.0438982 	-0.308079 	0 -0.0447289 	-0.307963 	0 -0.0455573 	-0.307843 	0 -0.0463886 	-0.307721 	0 -0.0471965 	-0.307598 	0 -0.0480043 	-0.307474 	0 -0.048812 	-0.307348 	0 -0.0496195 	-0.307221 	0 -0.0502955 	-0.307113 	0 -0.0503513 	-0.307104 	0 -0.050407 	-0.307095 	0 -0.0504628 	-0.307086 	0 -0.0505186 	-0.307077 	0 -0.0505746 	-0.307068 	0 -0.0514183 	-0.306927 	0 -0.0522616 	-0.306784 	0 -0.0531046 	-0.306639 	0 -0.0539474 	-0.306492 	0 -0.0547941 	-0.306343 	0 -0.0556459 	-0.306189 	0 -0.0564976 	-0.306033 	0 -0.0573483 	-0.305875 	0 -0.0581973 	-0.305714 	0 -0.0590504 	-0.30555 	0 -0.0597431 	-0.305414 	0 -0.0604358 	-0.305277 	0 -0.0611282 	-0.305138 	0 -0.0618205 	-0.304998 	0 -0.0624352 	-0.304873 	0 -0.0626169 	-0.304836 	0 -0.0627988 	-0.304799 	0 -0.0629806 	-0.304761 	0 -0.0631625 	-0.304724 	0 -0.0633447 	-0.304686 	0 -0.0642116 	-0.304503 	0 -0.065077 	-0.304318 	0 -0.0659421 	-0.30413 	0 -0.0668069 	-0.303941 	0 -0.0676767 	-0.303749 	0 -0.0685509 	-0.303552 	0 -0.069425 	-0.303353 	0 -0.0702987 	-0.303152 	0 -0.0711721 	-0.30295 	0 -0.0720499 	-0.302743 	0 -0.0721661 	-0.302715 	0 -0.0722824 	-0.302687 	0 -0.0723987 	-0.302659 	0 -0.0725149 	-0.302631 	0 -0.0726295 	-0.302603 	0 -0.0733957 	-0.302418 	0 -0.0741618 	-0.302231 	0 -0.0749276 	-0.302042 	0 -0.0756932 	-0.301853 	0 -0.0764633 	-0.301661 	0 -0.0773543 	-0.301435 	0 -0.078245 	-0.301207 	0 -0.0791354 	-0.300978 	0 -0.0800253 	-0.300747 	0 -0.0809204 	-0.300511 	0 -0.081056 	-0.300474 	0 -0.0811916 	-0.300438 	0 -0.0813272 	-0.300401 	0 -0.0814628 	-0.300365 	0 -0.0815962 	-0.300329 	0 -0.0823605 	-0.300123 	0 -0.0831246 	-0.299916 	0 -0.0838884 	-0.299707 	0 -0.0846519 	-0.299497 	0 -0.0854206 	-0.299285 	0 -0.0862925 	-0.299041 	0 -0.0871641 	-0.298795 	0 -0.0880353 	-0.298547 	0 -0.0889061 	-0.298298 	0 -0.0896914 	-0.298072 	0 -0.0897465 	-0.298056 	0 -0.0898017 	-0.29804 	0 -0.089857 	-0.298024 	0 -0.0899122 	-0.298008 	0 -0.0899676 	-0.297992 	0 -0.0908856 	-0.297724 	0 -0.0918026 	-0.297453 	0 -0.0927192 	-0.29718 	0 -0.0936352 	-0.296905 	0 -0.0945595 	-0.296627 	0 -0.0950782 	-0.296468 	0 -0.0955968 	-0.29631 	0 -0.0961153 	-0.29615 	0 -0.0966336 	-0.295991 	0 -0.0971241 	-0.295839 	0 -0.0975392 	-0.29571 	0 -0.0979543 	-0.295581 	0 -0.0983693 	-0.295452 	0 -0.0987842 	-0.295322 	0 -0.0992011 	-0.295191 	0 -0.100139 	-0.294895 	0 -0.101076 	-0.294598 	0 -0.102012 	-0.294299 	0 -0.102948 	-0.293998 	0 -0.103893 	-0.293692 	0 -0.103919 	-0.293683 	0 -0.103946 	-0.293674 	0 -0.103973 	-0.293665 	0 -0.104 	-0.293657 	0 -0.104026 	-0.293648 	0 -0.104947 	-0.293347 	0 -0.105867 	-0.293044 	0 -0.106786 	-0.292739 	0 -0.107705 	-0.292433 	0 -0.108634 	-0.292122 	0 -0.10901 	-0.291995 	0 -0.109386 	-0.291868 	0 -0.109762 	-0.291741 	0 -0.110138 	-0.291613 	0 -0.110501 	-0.291489 	0 -0.111086 	-0.29129 	0 -0.111671 	-0.29109 	0 -0.112256 	-0.29089 	0 -0.11284 	-0.290689 	0 -0.113429 	-0.290485 	0 -0.114071 	-0.290263 	0 -0.114714 	-0.29004 	0 -0.115356 	-0.289816 	0 -0.115998 	-0.289591 	0 -0.116604 	-0.289378 	0 -0.116939 	-0.28926 	0 -0.117273 	-0.289142 	0 -0.117608 	-0.289024 	0 -0.117942 	-0.288905 	0 -0.118278 	-0.288786 	0 -0.119114 	-0.28849 	0 -0.119949 	-0.288192 	0 -0.120784 	-0.287893 	0 -0.121618 	-0.287593 	0 -0.122396 	-0.287311 	0 -0.122553 	-0.287254 	0 -0.122711 	-0.287197 	0 -0.122868 	-0.28714 	0 -0.123026 	-0.287083 	0 -0.123184 	-0.287025 	0 -0.124146 	-0.286676 	0 -0.125108 	-0.286325 	0 -0.126069 	-0.285973 	0 -0.127029 	-0.285619 	0 -0.127917 	-0.285289 	0 -0.127963 	-0.285272 	0 -0.128009 	-0.285255 	0 -0.128054 	-0.285238 	0 -0.1281 	-0.285221 	0 -0.128146 	-0.285204 	0 -0.129149 	-0.284833 	0 -0.130151 	-0.28446 	0 -0.131152 	-0.284085 	0 -0.132152 	-0.283709 	0 -0.133166 	-0.283324 	0 -0.133173 	-0.283322 	0 -0.13318 	-0.283319 	0 -0.133187 	-0.283316 	0 -0.133194 	-0.283314 	0 -0.133201 	-0.283311 	0 -0.134209 	-0.282931 	0 -0.135216 	-0.282549 	0 -0.136221 	-0.282165 	0 -0.137226 	-0.28178 	0 -0.138247 	-0.281386 	0 -0.138251 	-0.281385 	0 -0.138255 	-0.281383 	0 -0.13826 	-0.281381 	0 -0.138264 	-0.281379 	0 -0.138269 	-0.281378 	0 -0.139259 	-0.280998 	0 -0.140248 	-0.280617 	0 -0.141235 	-0.280234 	0 -0.142222 	-0.279849 	0 -0.143142 	-0.279488 	0 -0.143191 	-0.279469 	0 -0.14324 	-0.27945 	0 -0.143289 	-0.27943 	0 -0.143339 	-0.279411 	0 -0.143388 	-0.279392 	0 -0.14429 	-0.27904 	0 -0.145191 	-0.278687 	0 -0.146091 	-0.278333 	0 -0.14699 	-0.277978 	0 -0.147836 	-0.277642 	0 -0.147987 	-0.277582 	0 -0.148138 	-0.277522 	0 -0.148289 	-0.277461 	0 -0.14844 	-0.277401 	0 -0.148591 	-0.277341 	0 -0.149354 	-0.27704 	0 -0.150117 	-0.276737 	0 -0.150878 	-0.276434 	0 -0.151639 	-0.27613 	0 -0.152364 	-0.275839 	0 -0.152662 	-0.275719 	0 -0.152961 	-0.275599 	0 -0.15326 	-0.275479 	0 -0.153558 	-0.275359 	0 -0.153858 	-0.275237 	0 -0.154439 	-0.275005 	0 -0.15502 	-0.274772 	0 -0.1556 	-0.274539 	0 -0.15618 	-0.274305 	0 -0.156739 	-0.274079 	0 -0.157229 	-0.273881 	0 -0.157718 	-0.273683 	0 -0.158208 	-0.273484 	0 -0.158697 	-0.273285 	0 -0.15919 	-0.273084 	0 -0.159548 	-0.272939 	0 -0.159907 	-0.272794 	0 -0.160265 	-0.272649 	0 -0.160623 	-0.272504 	0 -0.160974 	-0.272361 	0 -0.161696 	-0.272068 	0 -0.162417 	-0.271775 	0 -0.163138 	-0.27148 	0 -0.163858 	-0.271185 	0 -0.164588 	-0.270885 	0 -0.164686 	-0.270845 	0 -0.164785 	-0.270804 	0 -0.164883 	-0.270764 	0 -0.164982 	-0.270724 	0 -0.16508 	-0.270684 	0 -0.165888 	-0.270356 	0 -0.166694 	-0.270026 	0 -0.1675 	-0.269694 	0 -0.168304 	-0.269362 	0 -0.169072 	-0.269043 	0 -0.169267 	-0.268962 	0 -0.169463 	-0.268881 	0 -0.169658 	-0.268799 	0 -0.169853 	-0.268718 	0 -0.17005 	-0.268637 	0 -0.170634 	-0.268397 	0 -0.171217 	-0.268156 	0 -0.171801 	-0.267916 	0 -0.172383 	-0.267674 	0 -0.172948 	-0.26744 	0 -0.173473 	-0.267222 	0 -0.173998 	-0.267004 	0 -0.174523 	-0.266786 	0 -0.175047 	-0.266567 	0 -0.175577 	-0.266345 	0 -0.175805 	-0.266251 	0 -0.176032 	-0.266157 	0 -0.176259 	-0.266063 	0 -0.176486 	-0.265969 	0 -0.176711 	-0.265876 	0 -0.177452 	-0.26557 	0 -0.178192 	-0.265264 	0 -0.178931 	-0.264956 	0 -0.179668 	-0.264646 	0 -0.180378 	-0.264347 	0 -0.180536 	-0.26428 	0 -0.180695 	-0.264214 	0 -0.180853 	-0.264147 	0 -0.181011 	-0.26408 	0 -0.18117 	-0.264013 	0 -0.18173 	-0.263781 	0 -0.18229 	-0.263547 	0 -0.182849 	-0.263314 	0 -0.183408 	-0.26308 	0 -0.183951 	-0.262852 	0 -0.184526 	-0.262611 	0 -0.1851 	-0.26237 	0 -0.185674 	-0.262129 	0 -0.186247 	-0.261887 	0 -0.186828 	-0.261642 	0 -0.186947 	-0.261592 	0 -0.187067 	-0.261542 	0 -0.187187 	-0.261492 	0 -0.187306 	-0.261442 	0 -0.187425 	-0.261392 	0 -0.188111 	-0.261108 	0 -0.188795 	-0.260821 	0 -0.189479 	-0.260532 	0 -0.190161 	-0.260243 	0 -0.190822 	-0.259962 	0 -0.191167 	-0.259816 	0 -0.191512 	-0.25967 	0 -0.191856 	-0.259524 	0 -0.192201 	-0.259377 	0 -0.192548 	-0.25923 	0 -0.192865 	-0.259097 	0 -0.193182 	-0.258964 	0 -0.193499 	-0.25883 	0 -0.193816 	-0.258697 	0 -0.194128 	-0.258565 	0 -0.194779 	-0.258293 	0 -0.19543 	-0.25802 	0 -0.196079 	-0.257746 	0 -0.196727 	-0.25747 	0 -0.197357 	-0.2572 	0 -0.197551 	-0.257117 	0 -0.197745 	-0.257034 	0 -0.197939 	-0.25695 	0 -0.198134 	-0.256867 	0 -0.198329 	-0.256784 	0 -0.198768 	-0.256599 	0 -0.199206 	-0.256415 	0 -0.199644 	-0.25623 	0 -0.200082 	-0.256045 	0 -0.200511 	-0.255863 	0 -0.201131 	-0.255602 	0 -0.20175 	-0.255341 	0 -0.202368 	-0.25508 	0 -0.202986 	-0.254817 	0 -0.203586 	-0.254558 	0 -0.203703 	-0.254508 	0 -0.203819 	-0.254458 	0 -0.203936 	-0.254408 	0 -0.204052 	-0.254358 	0 -0.20417 	-0.254307 	0 -0.204658 	-0.254101 	0 -0.205147 	-0.253895 	0 -0.205635 	-0.253688 	0 -0.206122 	-0.253481 	0 -0.2066 	-0.253278 	0 -0.207191 	-0.253028 	0 -0.207782 	-0.252778 	0 -0.208372 	-0.252527 	0 -0.208961 	-0.252276 	0 -0.209536 	-0.252027 	0 -0.209641 	-0.251981 	0 -0.209747 	-0.251935 	0 -0.209853 	-0.25189 	0 -0.209959 	-0.251844 	0 -0.210066 	-0.251798 	0 -0.210538 	-0.251598 	0 -0.21101 	-0.251397 	0 -0.211482 	-0.251196 	0 -0.211953 	-0.250995 	0 -0.212416 	-0.250797 	0 -0.212981 	-0.250557 	0 -0.213546 	-0.250317 	0 -0.214109 	-0.250076 	0 -0.214672 	-0.249834 	0 -0.215223 	-0.249594 	0 -0.21538 	-0.249525 	0 -0.215538 	-0.249457 	0 -0.215696 	-0.249388 	0 -0.215853 	-0.24932 	0 -0.216012 	-0.249251 	0 -0.216406 	-0.249083 	0 -0.2168 	-0.248915 	0 -0.217193 	-0.248747 	0 -0.217587 	-0.248579 	0 -0.217974 	-0.248413 	0 -0.218515 	-0.248183 	0 -0.219055 	-0.247952 	0 -0.219595 	-0.247722 	0 -0.220133 	-0.247486 	0 -0.220661 	-0.247256 	0 -0.220929 	-0.247139 	0 -0.221196 	-0.247023 	0 -0.221464 	-0.246906 	0 -0.221731 	-0.246789 	0 -0.222001 	-0.246672 	0 -0.222259 	-0.246562 	0 -0.222517 	-0.246452 	0 -0.222776 	-0.246341 	0 -0.223034 	-0.246231 	0 -0.22329 	-0.246121 	0 -0.223808 	-0.245902 	0 -0.224326 	-0.245681 	0 -0.224843 	-0.245456 	0 -0.225359 	-0.245231 	0 -0.225866 	-0.24501 	0 -0.226298 	-0.244823 	0 -0.22673 	-0.244635 	0 -0.227161 	-0.244448 	0 -0.227592 	-0.24426 	0 -0.228028 	-0.244069 	0 -0.228097 	-0.244039 	0 -0.228167 	-0.24401 	0 -0.228236 	-0.24398 	0 -0.228306 	-0.24395 	0 -0.228376 	-0.243921 	0 -0.228873 	-0.243708 	0 -0.22937 	-0.243493 	0 -0.229867 	-0.243278 	0 -0.230363 	-0.243062 	0 -0.23085 	-0.24285 	0 -0.231334 	-0.242641 	0 -0.231817 	-0.242432 	0 -0.2323 	-0.242222 	0 -0.232782 	-0.242012 	0 -0.233256 	-0.241801 	0 -0.233421 	-0.241728 	0 -0.233586 	-0.241655 	0 -0.233751 	-0.241582 	0 -0.233916 	-0.241508 	0 -0.234082 	-0.241435 	0 -0.23439 	-0.241301 	0 -0.234699 	-0.241168 	0 -0.235007 	-0.241034 	0 -0.235315 	-0.2409 	0 -0.23562 	-0.240767 	0 -0.236085 	-0.240567 	0 -0.23655 	-0.240366 	0 -0.237014 	-0.240161 	0 -0.237478 	-0.239955 	0 -0.237934 	-0.239751 	0 -0.238379 	-0.239555 	0 -0.238822 	-0.239359 	0 -0.239266 	-0.239162 	0 -0.239708 	-0.238965 	0 -0.240157 	-0.238766 	0 -0.240162 	-0.238763 	0 -0.240168 	-0.238761 	0 -0.240174 	-0.238758 	0 -0.24018 	-0.238756 	0 -0.240185 	-0.238753 	0 -0.240633 	-0.238557 	0 -0.24108 	-0.23836 	0 -0.241527 	-0.238163 	0 -0.241973 	-0.237966 	0 -0.242413 	-0.237771 	0 -0.242848 	-0.23758 	0 -0.243283 	-0.237389 	0 -0.243717 	-0.237197 	0 -0.244151 	-0.237 	0 -0.244579 	-0.236806 	0 -0.244909 	-0.236657 	0 -0.245239 	-0.236508 	0 -0.245569 	-0.236359 	0 -0.245899 	-0.23621 	0 -0.246232 	-0.236059 	0 -0.246324 	-0.236018 	0 -0.246416 	-0.235978 	0 -0.246509 	-0.235937 	0 -0.246601 	-0.235897 	0 -0.246694 	-0.235856 	0 -0.247113 	-0.235672 	0 -0.247532 	-0.235485 	0 -0.247951 	-0.235298 	0 -0.248369 	-0.23511 	0 -0.248782 	-0.234924 	0 -0.24919 	-0.234743 	0 -0.249598 	-0.234561 	0 -0.250005 	-0.234379 	0 -0.250412 	-0.234192 	0 -0.250814 	-0.234007 	0 -0.251111 	-0.233871 	0 -0.251408 	-0.233735 	0 -0.251704 	-0.233599 	0 -0.252001 	-0.233463 	0 -0.2523 	-0.233326 	0 -0.252399 	-0.233281 	0 -0.252499 	-0.233237 	0 -0.252599 	-0.233192 	0 -0.252699 	-0.233147 	0 -0.252799 	-0.233103 	0 -0.253192 	-0.232927 	0 -0.253586 	-0.232748 	0 -0.253979 	-0.232569 	0 -0.254371 	-0.232389 	0 -0.25476 	-0.232211 	0 -0.255143 	-0.232038 	0 -0.255525 	-0.231864 	0 -0.255907 	-0.23169 	0 -0.256289 	-0.23151 	0 -0.256667 	-0.231333 	0 -0.257002 	-0.231176 	0 -0.257337 	-0.23102 	0 -0.257672 	-0.230863 	0 -0.258006 	-0.230707 	0 -0.258344 	-0.230548 	0 -0.25838 	-0.230531 	0 -0.258416 	-0.230515 	0 -0.258453 	-0.230498 	0 -0.258489 	-0.230482 	0 -0.258526 	-0.230465 	0 -0.258896 	-0.230294 	0 -0.259266 	-0.230121 	0 -0.259635 	-0.229949 	0 -0.260004 	-0.229776 	0 -0.26037 	-0.229604 	0 -0.260729 	-0.229437 	0 -0.261089 	-0.22927 	0 -0.261448 	-0.229099 	0 -0.261807 	-0.228926 	0 -0.262163 	-0.228754 	0 -0.262512 	-0.228586 	0 -0.262862 	-0.228418 	0 -0.263211 	-0.22825 	0 -0.26356 	-0.228082 	0 -0.263906 	-0.227912 	0 -0.263993 	-0.227869 	0 -0.264081 	-0.227826 	0 -0.264169 	-0.227782 	0 -0.264256 	-0.227739 	0 -0.264345 	-0.227695 	0 -0.264602 	-0.227572 	0 -0.264859 	-0.227449 	0 -0.265116 	-0.227326 	0 -0.265373 	-0.227203 	0 -0.265628 	-0.22708 	0 -0.265965 	-0.226919 	0 -0.266303 	-0.226756 	0 -0.26664 	-0.226589 	0 -0.266978 	-0.226422 	0 -0.267312 	-0.226257 	0 -0.26764 	-0.226095 	0 -0.267967 	-0.225933 	0 -0.268295 	-0.225772 	0 -0.268623 	-0.225607 	0 -0.268948 	-0.225441 	0 -0.269212 	-0.225306 	0 -0.269476 	-0.225171 	0 -0.26974 	-0.225036 	0 -0.270004 	-0.224902 	0 -0.27027 	-0.224766 	0 -0.270324 	-0.224739 	0 -0.270379 	-0.224712 	0 -0.270433 	-0.224685 	0 -0.270488 	-0.224659 	0 -0.270543 	-0.224632 	0 -0.27086 	-0.224475 	0 -0.271178 	-0.224316 	0 -0.271495 	-0.224156 	0 -0.271812 	-0.223997 	0 -0.272127 	-0.223838 	0 -0.272435 	-0.223684 	0 -0.272743 	-0.22353 	0 -0.273051 	-0.223371 	0 -0.273359 	-0.22321 	0 -0.273665 	-0.223051 	0 -0.273964 	-0.222896 	0 -0.274263 	-0.222741 	0 -0.274562 	-0.222586 	0 -0.27486 	-0.22243 	0 -0.275159 	-0.22227 	0 -0.275345 	-0.222169 	0 -0.275532 	-0.222069 	0 -0.275719 	-0.221969 	0 -0.275906 	-0.221868 	0 -0.276094 	-0.221767 	0 -0.276199 	-0.221713 	0 -0.276305 	-0.221658 	0 -0.27641 	-0.221604 	0 -0.276516 	-0.221549 	0 -0.276621 	-0.221494 	0 -0.276911 	-0.221343 	0 -0.277201 	-0.221189 	0 -0.277491 	-0.221034 	0 -0.277781 	-0.220879 	0 -0.278068 	-0.220725 	0 -0.278349 	-0.220575 	0 -0.27863 	-0.220425 	0 -0.278911 	-0.220271 	0 -0.279193 	-0.220114 	0 -0.279472 	-0.219959 	0 -0.279745 	-0.219808 	0 -0.280018 	-0.219657 	0 -0.28029 	-0.219505 	0 -0.280562 	-0.219353 	0 -0.280834 	-0.219197 	0 -0.281024 	-0.219087 	0 -0.281214 	-0.218978 	0 -0.281405 	-0.218868 	0 -0.281594 	-0.218758 	0 -0.281786 	-0.218648 	0 -0.281861 	-0.218605 	0 -0.281936 	-0.218563 	0 -0.282012 	-0.21852 	0 -0.282087 	-0.218478 	0 -0.282163 	-0.218435 	0 -0.282426 	-0.218284 	0 -0.282689 	-0.218131 	0 -0.282953 	-0.217978 	0 -0.283216 	-0.217824 	0 -0.283478 	-0.217671 	0 -0.283732 	-0.217521 	0 -0.283986 	-0.217371 	0 -0.284242 	-0.217216 	0 -0.284497 	-0.217061 	0 -0.284752 	-0.216907 	0 -0.284998 	-0.216755 	0 -0.285244 	-0.216603 	0 -0.28549 	-0.216451 	0 -0.285737 	-0.216297 	0 -0.285985 	-0.216141 	0 -0.286223 	-0.215987 	0 -0.286463 	-0.215834 	0 -0.286702 	-0.21568 	0 -0.28694 	-0.215526 	0 -0.287178 	-0.215372 	0 -0.287197 	-0.215359 	0 -0.287217 	-0.215346 	0 -0.287237 	-0.215332 	0 -0.287257 	-0.215319 	0 -0.287277 	-0.215306 	0 -0.287495 	-0.215166 	0 -0.287712 	-0.215026 	0 -0.287929 	-0.214886 	0 -0.288146 	-0.214745 	0 -0.288362 	-0.214606 	0 -0.28859 	-0.214455 	0 -0.288821 	-0.214302 	0 -0.289052 	-0.214146 	0 -0.289282 	-0.213991 	0 -0.289511 	-0.213837 	0 -0.289734 	-0.213684 	0 -0.289956 	-0.213531 	0 -0.290179 	-0.213377 	0 -0.290403 	-0.21322 	0 -0.290626 	-0.213064 	0 -0.290843 	-0.212909 	0 -0.291059 	-0.212754 	0 -0.291276 	-0.212599 	0 -0.291491 	-0.212444 	0 -0.291708 	-0.212287 	0 -0.291871 	-0.212165 	0 -0.292035 	-0.212044 	0 -0.292198 	-0.211923 	0 -0.29236 	-0.211801 	0 -0.292524 	-0.21168 	0 -0.292572 	-0.211645 	0 -0.29262 	-0.211611 	0 -0.292668 	-0.211578 	0 -0.292717 	-0.211544 	0 -0.292766 	-0.211511 	0 -0.292976 	-0.211361 	0 -0.293187 	-0.21121 	0 -0.293397 	-0.211059 	0 -0.293607 	-0.210907 	0 -0.293817 	-0.210758 	0 -0.294019 	-0.210608 	0 -0.294222 	-0.210458 	0 -0.294427 	-0.210305 	0 -0.294632 	-0.210152 	0 -0.294837 	-0.210001 	0 -0.295032 	-0.209849 	0 -0.295227 	-0.209699 	0 -0.295423 	-0.209548 	0 -0.295621 	-0.209393 	0 -0.295818 	-0.20924 	0 -0.296005 	-0.209086 	0 -0.296193 	-0.208934 	0 -0.296381 	-0.208781 	0 -0.296568 	-0.208629 	0 -0.296759 	-0.208474 	0 -0.296906 	-0.208345 	0 -0.297053 	-0.208218 	0 -0.2972 	-0.20809 	0 -0.297347 	-0.207963 	0 -0.297495 	-0.207835 	0 -0.297527 	-0.20781 	0 -0.297558 	-0.207784 	0 -0.29759 	-0.207758 	0 -0.297622 	-0.207733 	0 -0.297653 	-0.207708 	0 -0.297826 	-0.207559 	0 -0.297999 	-0.20741 	0 -0.298173 	-0.20726 	0 -0.298346 	-0.20711 	0 -0.298518 	-0.206961 	0 -0.298676 	-0.206815 	0 -0.298836 	-0.206665 	0 -0.298997 	-0.206514 	0 -0.299158 	-0.206362 	0 -0.299318 	-0.206212 	0 -0.299462 	-0.206063 	0 -0.299607 	-0.205915 	0 -0.299753 	-0.205764 	0 -0.299901 	-0.205611 	0 -0.300048 	-0.205459 	0 -0.300186 	-0.205308 	0 -0.300324 	-0.205159 	0 -0.300461 	-0.205008 	0 -0.3006 	-0.204856 	0 -0.300742 	-0.204702 	0 -0.300873 	-0.20455 	0 -0.301005 	-0.204398 	0 -0.301137 	-0.204247 	0 -0.301269 	-0.204095 	0 -0.301403 	-0.203942 	0 -0.301439 	-0.203898 	0 -0.301476 	-0.203854 	0 -0.301513 	-0.203811 	0 -0.30155 	-0.203767 	0 -0.301588 	-0.203724 	0 -0.301686 	-0.203616 	0 -0.301783 	-0.203508 	0 -0.301881 	-0.2034 	0 -0.301979 	-0.203292 	0 -0.302077 	-0.203184 	0 -0.302206 	-0.203035 	0 -0.302339 	-0.202882 	0 -0.302472 	-0.202729 	0 -0.302605 	-0.202576 	0 -0.302737 	-0.202424 	0 -0.302866 	-0.202273 	0 -0.302998 	-0.202122 	0 -0.303132 	-0.201967 	0 -0.303267 	-0.201812 	0 -0.303401 	-0.201657 	0 -0.303534 	-0.201504 	0 -0.303667 	-0.201351 	0 -0.303801 	-0.201197 	0 -0.303939 	-0.20104 	0 -0.304076 	-0.200884 	0 -0.304211 	-0.200728 	0 -0.304345 	-0.200573 	0 -0.304479 	-0.200417 	0 -0.304614 	-0.200261 	0 -0.304753 	-0.200102 	0 -0.304888 	-0.199944 	0 -0.305022 	-0.199786 	0 -0.305156 	-0.199628 	0 -0.305289 	-0.19947 	0 -0.305423 	-0.199312 	0 -0.305449 	-0.199281 	0 -0.305474 	-0.199249 	0 -0.3055 	-0.199217 	0 -0.305526 	-0.199186 	0 -0.305552 	-0.199154 	0 -0.305658 	-0.199028 	0 -0.305767 	-0.198902 	0 -0.305875 	-0.198777 	0 -0.305983 	-0.198651 	0 -0.306093 	-0.198527 	0 -0.306219 	-0.19837 	0 -0.306351 	-0.198211 	0 -0.306483 	-0.198052 	0 -0.306615 	-0.197894 	0 -0.306748 	-0.197736 	0 -0.306867 	-0.197578 	0 -0.306989 	-0.19742 	0 -0.307116 	-0.197259 	0 -0.307242 	-0.197098 	0 -0.307369 	-0.196939 	0 -0.307482 	-0.196779 	0 -0.307597 	-0.19662 	0 -0.307713 	-0.196459 	0 -0.307834 	-0.196297 	0 -0.307954 	-0.196136 	0 -0.308061 	-0.195975 	0 -0.308169 	-0.195814 	0 -0.308277 	-0.195653 	0 -0.308387 	-0.195491 	0 -0.308501 	-0.195329 	0 -0.308603 	-0.195167 	0 -0.308706 	-0.195005 	0 -0.308809 	-0.194844 	0 -0.308912 	-0.194682 	0 -0.309019 	-0.194521 	0 -0.309082 	-0.194415 	0 -0.309146 	-0.19431 	0 -0.30921 	-0.194206 	0 -0.309273 	-0.194101 	0 -0.309339 	-0.193997 	0 -0.309374 	-0.193942 	0 -0.30941 	-0.193888 	0 -0.309446 	-0.193834 	0 -0.309482 	-0.193781 	0 -0.309519 	-0.193728 	0 -0.309615 	-0.193576 	0 -0.309713 	-0.193424 	0 -0.309812 	-0.193272 	0 -0.30991 	-0.19312 	0 -0.310008 	-0.19297 	0 -0.310095 	-0.192824 	0 -0.310188 	-0.192677 	0 -0.310281 	-0.192529 	0 -0.310375 	-0.192381 	0 -0.310468 	-0.192235 	0 -0.310552 	-0.192097 	0 -0.310636 	-0.191961 	0 -0.310726 	-0.191821 	0 -0.310817 	-0.191682 	0 -0.310908 	-0.191544 	0 -0.310988 	-0.191421 	0 -0.311069 	-0.191299 	0 -0.311152 	-0.191177 	0 -0.311239 	-0.191052 	0 -0.311327 	-0.19093 	0 -0.311404 	-0.190832 	0 -0.311482 	-0.190735 	0 -0.311559 	-0.190639 	0 -0.311639 	-0.190541 	0 -0.311724 	-0.190444 	0 -0.311798 	-0.190386 	0 -0.311872 	-0.190331 	