# vtk DataFile Version 2.0
track0
ASCII
DATASET POLYDATA
POINTS 12110 float
-0.0205 0.001 1e-05
-0.0204949 0.0011 1e-05
-0.0204895 0.00119999 1e-05
-0.0204841 0.00129997 1e-05
-0.0204784 0.00139995 1e-05
-0.0204727 0.0015 1e-05
-0.0204667 0.0016 1e-05
-0.0204605 0.00169999 1e-05
-0.0204542 0.00179996 1e-05
-0.0204476 0.00189993 1e-05
-0.0204409 0.002 1e-05
-0.0204339 0.0021 1e-05
-0.0204267 0.00219998 1e-05
-0.0204193 0.00229995 1e-05
-0.0204117 0.0023999 1e-05
-0.0204038 0.0025 1e-05
-0.0203957 0.0026 1e-05
-0.0203874 0.00269998 1e-05
-0.0203788 0.00279994 1e-05
-0.0203699 0.00289988 1e-05
-0.0203609 0.003 1e-05
-0.0203515 0.0031 1e-05
-0.020342 0.00319998 1e-05
-0.0203321 0.00329993 1e-05
-0.020322 0.00339985 1e-05
-0.0203117 0.0035 1e-05
-0.0203064 0.00354957 1e-05
-0.0203011 0.00359914 1e-05
-0.0202957 0.0036487 1e-05
-0.0202903 0.00369826 1e-05
-0.0202854 0.00374207 1e-05
-0.0202796 0.00379365 1e-05
-0.0202737 0.00384523 1e-05
-0.0202678 0.0038968 1e-05
-0.0202618 0.00394837 1e-05
-0.0202557 0.004 1e-05
-0.0202438 0.0041 1e-05
-0.0202316 0.00419997 1e-05
-0.0202191 0.0042999 1e-05
-0.0202064 0.00439981 1e-05
-0.0201934 0.0045 1e-05
-0.0201801 0.0046 1e-05
-0.0201666 0.00469996 1e-05
-0.0201528 0.00479989 1e-05
-0.0201387 0.00489978 1e-05
-0.0201243 0.005 1e-05
-0.0201097 0.0051 1e-05
-0.0200948 0.00519996 1e-05
-0.0200796 0.00529988 1e-05
-0.0200642 0.00539976 1e-05
-0.0200484 0.0055 1e-05
-0.0200432 0.00553259 1e-05
-0.020038 0.00556518 1e-05
-0.0200327 0.00559777 1e-05
-0.0200274 0.00563035 1e-05
-0.0200223 0.00566115 1e-05
-0.0200112 0.00572892 1e-05
-0.0199999 0.00579667 1e-05
-0.0199885 0.0058644 1e-05
-0.0199769 0.00593211 1e-05
-0.0199652 0.006 1e-05
-0.0199478 0.0061 1e-05
-0.0199301 0.00619995 1e-05
-0.0199121 0.00629985 1e-05
-0.0198939 0.00639971 1e-05
-0.0198753 0.0065 1e-05
-0.0198564 0.0066 1e-05
-0.0198373 0.00669995 1e-05
-0.0198179 0.00679984 1e-05
-0.0197982 0.00689968 1e-05
-0.0197781 0.007 1e-05
-0.0197748 0.00701649 1e-05
-0.0197714 0.00703297 1e-05
-0.019768 0.00704945 1e-05
-0.0197647 0.00706593 1e-05
-0.0197614 0.00708204 1e-05
-0.0197442 0.00716563 1e-05
-0.0197268 0.00724918 1e-05
-0.0197093 0.00733269 1e-05
-0.0196915 0.00741616 1e-05
-0.0196734 0.0075 1e-05
-0.0196517 0.0076 1e-05
-0.0196296 0.00769994 1e-05
-0.0196073 0.00779981 1e-05
-0.0195846 0.00789962 1e-05
-0.0195616 0.008 1e-05
-0.0195498 0.00805074 1e-05
-0.0195379 0.00810145 1e-05
-0.0195259 0.00815215 1e-05
-0.0195139 0.00820284 1e-05
-0.0195025 0.0082504 1e-05
-0.0194905 0.00830032 1e-05
-0.0194784 0.00835022 1e-05
-0.0194663 0.00840011 1e-05
-0.0194541 0.00844997 1e-05
-0.0194417 0.0085 1e-05
-0.0194169 0.0086 1e-05
-0.0193918 0.00869993 1e-05
-0.0193664 0.00879978 1e-05
-0.0193408 0.00889956 1e-05
-0.0193146 0.009 1e-05
-0.0193008 0.00905222 1e-05
-0.019287 0.00910441 1e-05
-0.019273 0.00915658 1e-05
-0.019259 0.00920873 1e-05
-0.0192457 0.00925788 1e-05
-0.0192326 0.0093063 1e-05
-0.0192193 0.00935471 1e-05
-0.019206 0.00940309 1e-05
-0.0191927 0.00945146 1e-05
-0.0191792 0.0095 1e-05
-0.0191512 0.0096 1e-05
-0.0191229 0.00969992 1e-05
-0.0190944 0.00979975 1e-05
-0.0190655 0.00989949 1e-05
-0.0190361 0.01 1e-05
-0.0190271 0.0100305 1e-05
-0.0190181 0.0100609 1e-05
-0.019009 0.0100914 1e-05
-0.0189999 0.0101218 1e-05
-0.018991 0.0101513 1e-05
-0.0189701 0.0102211 1e-05
-0.0189489 0.0102907 1e-05
-0.0189276 0.0103604 1e-05
-0.0189062 0.01043 1e-05
-0.0188845 0.0105 1e-05
-0.0188553 0.0105935 1e-05
-0.0188258 0.0106869 1e-05
-0.018796 0.0107803 1e-05
-0.018766 0.0108735 1e-05
-0.0187384 0.0109584 1e-05
-0.0187357 0.0109667 1e-05
-0.0187329 0.010975 1e-05
-0.0187302 0.0109834 1e-05
-0.0187275 0.0109917 1e-05
-0.0187247 0.011 1e-05
-0.0186918 0.0111 1e-05
-0.0186585 0.0111999 1e-05
-0.0186249 0.0112997 1e-05
-0.018591 0.0113994 1e-05
-0.0185565 0.0115 1e-05
-0.0185427 0.0115396 1e-05
-0.0185289 0.0115792 1e-05
-0.0185151 0.0116187 1e-05
-0.0185012 0.0116582 1e-05
-0.0184878 0.0116964 1e-05
-0.0184663 0.0117571 1e-05
-0.0184447 0.0118178 1e-05
-0.0184229 0.0118784 1e-05
-0.0184011 0.011939 1e-05
-0.018379 0.012 1e-05
-0.018351 0.0120766 1e-05
-0.0183229 0.0121532 1e-05
-0.0182945 0.0122296 1e-05
-0.018266 0.012306 1e-05
-0.0182392 0.0123774 1e-05
-0.0182299 0.0124019 1e-05
-0.0182206 0.0124264 1e-05
-0.0182113 0.0124509 1e-05
-0.0182019 0.0124754 1e-05
-0.0181925 0.0125 1e-05
-0.0181542 0.0126 1e-05
-0.0181155 0.0126999 1e-05
-0.0180766 0.0127996 1e-05
-0.0180373 0.0128992 1e-05
-0.0179971 0.013 1e-05
-0.0179962 0.0130023 1e-05
-0.0179953 0.0130045 1e-05
-0.0179944 0.0130068 1e-05
-0.0179935 0.013009 1e-05
-0.0179926 0.0130113 1e-05
-0.0179532 0.013109 1e-05
-0.0179136 0.0132066 1e-05
-0.0178736 0.0133041 1e-05
-0.0178333 0.0134015 1e-05
-0.0177922 0.0135 1e-05
-0.0177833 0.013521 1e-05
-0.0177745 0.0135419 1e-05
-0.0177656 0.0135629 1e-05
-0.0177567 0.0135838 1e-05
-0.017748 0.0136044 1e-05
-0.0177143 0.0136836 1e-05
-0.0176804 0.0137626 1e-05
-0.0176463 0.0138415 1e-05
-0.017612 0.0139203 1e-05
-0.0175771 0.014 1e-05
-0.0175628 0.0140325 1e-05
-0.0175484 0.014065 1e-05
-0.017534 0.0140975 1e-05
-0.0175195 0.01413 1e-05
-0.0175053 0.0141617 1e-05
-0.017475 0.0142294 1e-05
-0.0174446 0.0142969 1e-05
-0.0174139 0.0143645 1e-05
-0.0173832 0.0144319 1e-05
-0.0173519 0.0145 1e-05
-0.0173345 0.0145378 1e-05
-0.017317 0.0145755 1e-05
-0.0172994 0.0146133 1e-05
-0.0172818 0.014651 1e-05
-0.0172647 0.0146876 1e-05
-0.0172353 0.0147501 1e-05
-0.0172058 0.0148125 1e-05
-0.0171762 0.0148749 1e-05
-0.0171465 0.0149371 1e-05
-0.0171163 0.015 1e-05
-0.0170982 0.0150374 1e-05
-0.0170801 0.0150748 1e-05
-0.0170619 0.0151122 1e-05
-0.0170437 0.0151495 1e-05
-0.0170259 0.0151858 1e-05
-0.0169951 0.0152487 1e-05
-0.0169641 0.0153114 1e-05
-0.0169329 0.0153741 1e-05
-0.0169017 0.0154368 1e-05
-0.0168699 0.0155 1e-05
-0.0168538 0.015532 1e-05
-0.0168376 0.015564 1e-05
-0.0168213 0.015596 1e-05
-0.0168051 0.015628 1e-05
-0.0167891 0.0156592 1e-05
-0.0167542 0.0157274 1e-05
-0.0167192 0.0157955 1e-05
-0.016684 0.0158634 1e-05
-0.0166486 0.0159313 1e-05
-0.0166126 0.016 1e-05
-0.0166009 0.0160222 1e-05
-0.0165892 0.0160443 1e-05
-0.0165775 0.0160665 1e-05
-0.0165658 0.0160886 1e-05
-0.0165542 0.0161104 1e-05
-0.0165127 0.0161883 1e-05
-0.016471 0.0162661 1e-05
-0.0164291 0.0163438 1e-05
-0.016387 0.0164214 1e-05
-0.016344 0.0165 1e-05
-0.0163395 0.0165083 1e-05
-0.0163349 0.0165166 1e-05
-0.0163303 0.0165249 1e-05
-0.0163257 0.0165332 1e-05
-0.0163212 0.0165415 1e-05
-0.0162749 0.0166252 1e-05
-0.0162285 0.0167088 1e-05
-0.0161817 0.0167922 1e-05
-0.0161347 0.0168755 1e-05
-0.01609 0.0169542 1e-05
-0.0160848 0.0169634 1e-05
-0.0160795 0.0169725 1e-05
-0.0160743 0.0169817 1e-05
-0.0160691 0.0169908 1e-05
-0.0160638 0.017 1e-05
-0.0160232 0.0170707 1e-05
-0.0159824 0.0171414 1e-05
-0.0159414 0.0172119 1e-05
-0.0159003 0.0172823 1e-05
-0.0158607 0.0173495 1e-05
-0.0158429 0.0173796 1e-05
-0.0158251 0.0174097 1e-05
-0.0158073 0.0174397 1e-05
-0.0157894 0.0174698 1e-05
-0.0157713 0.0175 1e-05
-0.0157437 0.0175461 1e-05
-0.015716 0.0175921 1e-05
-0.0156883 0.0176382 1e-05
-0.0156604 0.0176841 1e-05
-0.0156333 0.0177287 1e-05
-0.0156002 0.017783 1e-05
-0.015567 0.0178372 1e-05
-0.0155337 0.0178913 1e-05
-0.0155002 0.0179453 1e-05
-0.0154663 0.018 1e-05
-0.0154545 0.0180188 1e-05
-0.0154428 0.0180375 1e-05
-0.0154311 0.0180563 1e-05
-0.0154193 0.018075 1e-05
-0.0154077 0.0180935 1e-05
-0.015363 0.0181647 1e-05
-0.015318 0.0182357 1e-05
-0.0152729 0.0183066 1e-05
-0.0152276 0.0183774 1e-05
-0.0151839 0.0184452 1e-05
-0.0151768 0.0184561 1e-05
-0.0151697 0.0184671 1e-05
-0.0151626 0.0184781 1e-05
-0.0151555 0.018489 1e-05
-0.0151484 0.0185 1e-05
-0.0151111 0.0185573 1e-05
-0.0150737 0.0186146 1e-05
-0.0150361 0.0186717 1e-05
-0.0149985 0.0187288 1e-05
-0.0149619 0.018784 1e-05
-0.0149332 0.0188272 1e-05
-0.0149043 0.0188703 1e-05
-0.0148754 0.0189134 1e-05
-0.0148465 0.0189565 1e-05
-0.0148171 0.019 1e-05
-0.014802 0.0190222 1e-05
-0.0147869 0.0190445 1e-05
-0.0147718 0.0190667 1e-05
-0.0147567 0.0190889 1e-05
-0.0147417 0.0191108 1e-05
-0.0146981 0.0191747 1e-05
-0.0146542 0.0192385 1e-05
-0.0146102 0.0193022 1e-05
-0.0145661 0.0193658 1e-05
-0.0145233 0.019427 1e-05
-0.0145131 0.0194416 1e-05
-0.0145028 0.0194562 1e-05
-0.0144926 0.0194708 1e-05
-0.0144823 0.0194854 1e-05
-0.014472 0.0195 1e-05
-0.014439 0.0195469 1e-05
-0.0144058 0.0195937 1e-05
-0.0143726 0.0196405 1e-05
-0.0143392 0.0196872 1e-05
-0.0143067 0.0197326 1e-05
-0.0142682 0.0197861 1e-05
-0.0142297 0.0198395 1e-05
-0.014191 0.0198928 1e-05
-0.0141522 0.0199461 1e-05
-0.0141128 0.02 1e-05
-0.0141086 0.0200057 1e-05
-0.0141044 0.0200115 1e-05
-0.0141002 0.0200172 1e-05
-0.014096 0.0200229 1e-05
-0.0140917 0.0200286 1e-05
-0.0140491 0.0200865 1e-05
-0.0140063 0.0201444 1e-05
-0.0139635 0.0202021 1e-05
-0.0139204 0.0202597 1e-05
-0.0138786 0.0203156 1e-05
-0.0138508 0.0203524 1e-05
-0.0138229 0.0203893 1e-05
-0.013795 0.0204261 1e-05
-0.0137671 0.0204629 1e-05
-0.0137388 0.0205 1e-05
-0.0137245 0.0205188 1e-05
-0.0137101 0.0205375 1e-05
-0.0136957 0.0205563 1e-05
-0.0136814 0.020575 1e-05
-0.0136671 0.0205935 1e-05
-0.0136251 0.020648 1e-05
-0.0135831 0.0207024 1e-05
-0.0135409 0.0207567 1e-05
-0.0134986 0.0208109 1e-05
-0.0134573 0.0208636 1e-05
-0.0134359 0.0208909 1e-05
-0.0134144 0.0209181 1e-05
-0.0133929 0.0209454 1e-05
-0.0133713 0.0209726 1e-05
-0.0133496 0.021 1e-05
-0.0133295 0.0210252 1e-05
-0.0133094 0.0210504 1e-05
-0.0132893 0.0210756 1e-05
-0.0132692 0.0211008 1e-05
-0.0132493 0.0211256 1e-05
-0.013208 0.021177 1e-05
-0.0131666 0.0212283 1e-05
-0.0131251 0.0212795 1e-05
-0.0130835 0.0213307 1e-05
-0.0130429 0.0213805 1e-05
-0.0130233 0.0214044 1e-05
-0.0130037 0.0214283 1e-05
-0.012984 0.0214522 1e-05
-0.0129644 0.021476 1e-05
-0.0129446 0.0215 1e-05
-0.0129233 0.0215257 1e-05
-0.012902 0.0215515 1e-05
-0.0128806 0.0215771 1e-05
-0.0128593 0.0216028 1e-05
-0.0128381 0.0216282 1e-05
-0.0127975 0.0216768 1e-05
-0.0127568 0.0217253 1e-05
-0.012716 0.0217738 1e-05
[...]
POINT_DATA 12110
 FIELD attributes 1
U 3 12110 float
-0.0161431 	-0.313665 	0 -0.0166468 	-0.313633 	0 -0.0171508 	-0.313599 	0 -0.0176546 	-0.313564 	0 -0.0181583 	-0.313527 	0 -0.0186661 	-0.31349 	0 -0.0192934 	-0.313449 	0 -0.0199219 	-0.313407 	0 -0.0205477 	-0.313363 	0 -0.0211735 	-0.313318 	0 -0.0218025 	-0.313272 	0 -0.0225117 	-0.313219 	0 -0.0232225 	-0.313166 	0 -0.0239308 	-0.31311 	0 -0.0246375 	-0.313052 	0 -0.025347 	-0.312993 	0 -0.0261072 	-0.312923 	0 -0.0268683 	-0.312851 	0 -0.0276292 	-0.312778 	0 -0.0283875 	-0.312702 	0 -0.0291472 	-0.312625 	0 -0.029938 	-0.312538 	0 -0.0307293 	-0.312449 	0 -0.0315204 	-0.312358 	0 -0.0323114 	-0.312266 	0 -0.0331027 	-0.312171 	0 -0.0335035 	-0.31212 	0 -0.0339046 	-0.312068 	0 -0.0343058 	-0.312016 	0 -0.0347068 	-0.311964 	0 -0.0350618 	-0.311917 	0 -0.0354793 	-0.311861 	0 -0.0358971 	-0.311805 	0 -0.0363149 	-0.311748 	0 -0.0367327 	-0.311691 	0 -0.0371514 	-0.311634 	0 -0.037974 	-0.311515 	0 -0.0387945 	-0.311394 	0 -0.0396149 	-0.311271 	0 -0.0404352 	-0.311146 	0 -0.0412581 	-0.311019 	0 -0.0420885 	-0.310886 	0 -0.0429189 	-0.31075 	0 -0.0437473 	-0.310612 	0 -0.0445747 	-0.310472 	0 -0.045405 	-0.310329 	0 -0.0462407 	-0.31018 	0 -0.0470764 	-0.310028 	0 -0.0479118 	-0.309876 	0 -0.048747 	-0.309721 	0 -0.0495838 	-0.309563 	0 -0.0498577 	-0.30951 	0 -0.0501316 	-0.309456 	0 -0.0504055 	-0.309402 	0 -0.0506794 	-0.309347 	0 -0.0509385 	-0.309296 	0 -0.0515087 	-0.309182 	0 -0.0520788 	-0.309068 	0 -0.0526489 	-0.308952 	0 -0.0532188 	-0.308836 	0 -0.0537906 	-0.308719 	0 -0.0546385 	-0.30854 	0 -0.0554855 	-0.308359 	0 -0.0563308 	-0.308175 	0 -0.0571759 	-0.30799 	0 -0.058025 	-0.307802 	0 -0.0588776 	-0.307608 	0 -0.05973 	-0.307413 	0 -0.0605822 	-0.307215 	0 -0.061434 	-0.307016 	0 -0.0622892 	-0.306814 	0 -0.0624305 	-0.30678 	0 -0.0625718 	-0.306745 	0 -0.0627132 	-0.306711 	0 -0.0628546 	-0.306676 	0 -0.0629928 	-0.306642 	0 -0.0637104 	-0.306466 	0 -0.0644279 	-0.306289 	0 -0.0651452 	-0.306111 	0 -0.0658623 	-0.305931 	0 -0.0665829 	-0.30575 	0 -0.0674484 	-0.305528 	0 -0.0683137 	-0.305304 	0 -0.0691786 	-0.305078 	0 -0.0700414 	-0.304849 	0 -0.0709095 	-0.304617 	0 -0.0713515 	-0.304497 	0 -0.0717934 	-0.304376 	0 -0.0722353 	-0.304255 	0 -0.0726771 	-0.304134 	0 -0.0730918 	-0.304019 	0 -0.0735274 	-0.303899 	0 -0.073963 	-0.303778 	0 -0.0743985 	-0.303656 	0 -0.0748339 	-0.303534 	0 -0.0752708 	-0.303411 	0 -0.0761506 	-0.303162 	0 -0.0770301 	-0.30291 	0 -0.0779081 	-0.302656 	0 -0.0787852 	-0.302399 	0 -0.0796685 	-0.302139 	0 -0.0801312 	-0.302001 	0 -0.0805939 	-0.301862 	0 -0.0810565 	-0.301723 	0 -0.0815189 	-0.301584 	0 -0.081955 	-0.301452 	0 -0.0823848 	-0.301322 	0 -0.0828147 	-0.301191 	0 -0.0832444 	-0.30106 	0 -0.0836741 	-0.300928 	0 -0.0841054 	-0.300796 	0 -0.0850009 	-0.300519 	0 -0.085896 	-0.30024 	0 -0.0867905 	-0.299959 	0 -0.0876833 	-0.299676 	0 -0.0885834 	-0.299388 	0 -0.0888583 	-0.299299 	0 -0.0891334 	-0.29921 	0 -0.0894084 	-0.299121 	0 -0.0896834 	-0.299032 	0 -0.08995 	-0.298945 	0 -0.0905804 	-0.29874 	0 -0.0912107 	-0.298534 	0 -0.0918408 	-0.298328 	0 -0.0924706 	-0.29812 	0 -0.0931044 	-0.29791 	0 -0.0939578 	-0.297627 	0 -0.0948108 	-0.297341 	0 -0.0956633 	-0.297054 	0 -0.0965154 	-0.296766 	0 -0.0972914 	-0.296502 	0 -0.0973674 	-0.296476 	0 -0.0974436 	-0.29645 	0 -0.0975197 	-0.296424 	0 -0.0975958 	-0.296398 	0 -0.0976721 	-0.296372 	0 -0.0985947 	-0.296056 	0 -0.0995159 	-0.295737 	0 -0.100437 	-0.295416 	0 -0.101357 	-0.295094 	0 -0.102286 	-0.294767 	0 -0.102655 	-0.294636 	0 -0.103023 	-0.294506 	0 -0.103392 	-0.294375 	0 -0.10376 	-0.294243 	0 -0.104116 	-0.294116 	0 -0.104682 	-0.293914 	0 -0.105249 	-0.293711 	0 -0.105815 	-0.293508 	0 -0.106381 	-0.293304 	0 -0.106951 	-0.293097 	0 -0.107673 	-0.292836 	0 -0.108395 	-0.292573 	0 -0.109116 	-0.29231 	0 -0.109837 	-0.292045 	0 -0.11051 	-0.291797 	0 -0.110742 	-0.291711 	0 -0.110974 	-0.291626 	0 -0.111205 	-0.29154 	0 -0.111437 	-0.291454 	0 -0.111669 	-0.291368 	0 -0.112623 	-0.291015 	0 -0.113576 	-0.29066 	0 -0.114528 	-0.290303 	0 -0.11548 	-0.289945 	0 -0.116442 	-0.289579 	0 -0.116464 	-0.289571 	0 -0.116486 	-0.289563 	0 -0.116507 	-0.289555 	0 -0.116529 	-0.289546 	0 -0.116551 	-0.289538 	0 -0.117494 	-0.289181 	0 -0.118436 	-0.288822 	0 -0.119378 	-0.288461 	0 -0.120319 	-0.288098 	0 -0.121271 	-0.287729 	0 -0.121476 	-0.28765 	0 -0.12168 	-0.287571 	0 -0.121885 	-0.287491 	0 -0.122089 	-0.287412 	0 -0.122291 	-0.287334 	0 -0.123064 	-0.287034 	0 -0.123836 	-0.286733 	0 -0.124609 	-0.286431 	0 -0.12538 	-0.286128 	0 -0.12616 	-0.28582 	0 -0.126481 	-0.285694 	0 -0.126803 	-0.285567 	0 -0.127124 	-0.28544 	0 -0.127445 	-0.285313 	0 -0.127759 	-0.285188 	0 -0.128429 	-0.284924 	0 -0.129098 	-0.284658 	0 -0.129767 	-0.284391 	0 -0.130435 	-0.284124 	0 -0.131111 	-0.283853 	0 -0.131489 	-0.283702 	0 -0.131867 	-0.283551 	0 -0.132245 	-0.283399 	0 -0.132623 	-0.283247 	0 -0.13299 	-0.283099 	0 -0.133616 	-0.282847 	0 -0.134243 	-0.282595 	0 -0.134868 	-0.282342 	0 -0.135494 	-0.282088 	0 -0.136125 	-0.281831 	0 -0.136504 	-0.281677 	0 -0.136884 	-0.281523 	0 -0.137263 	-0.281369 	0 -0.137642 	-0.281214 	0 -0.138011 	-0.281063 	0 -0.138649 	-0.280804 	0 -0.139287 	-0.280543 	0 -0.139925 	-0.280282 	0 -0.140562 	-0.28002 	0 -0.141205 	-0.279754 	0 -0.141534 	-0.279619 	0 -0.141863 	-0.279484 	0 -0.142192 	-0.279348 	0 -0.142521 	-0.279213 	0 -0.142843 	-0.27908 	0 -0.143544 	-0.278791 	0 -0.144245 	-0.278502 	0 -0.144945 	-0.278211 	0 -0.145645 	-0.27792 	0 -0.146353 	-0.277625 	0 -0.146584 	-0.277529 	0 -0.146815 	-0.277433 	0 -0.147045 	-0.277337 	0 -0.147276 	-0.277241 	0 -0.147504 	-0.277146 	0 -0.148316 	-0.276809 	0 -0.149128 	-0.276471 	0 -0.149939 	-0.276132 	0 -0.150749 	-0.275792 	0 -0.15157 	-0.275445 	0 -0.151658 	-0.275409 	0 -0.151746 	-0.275372 	0 -0.151833 	-0.275335 	0 -0.151921 	-0.275298 	0 -0.152009 	-0.275261 	0 -0.152893 	-0.274892 	0 -0.153777 	-0.274522 	0 -0.154659 	-0.27415 	0 -0.15554 	-0.273777 	0 -0.156373 	-0.273422 	0 -0.15647 	-0.27338 	0 -0.156567 	-0.273339 	0 -0.156664 	-0.273298 	0 -0.156761 	-0.273257 	0 -0.156858 	-0.273215 	0 -0.157615 	-0.272896 	0 -0.158371 	-0.272576 	0 -0.159127 	-0.272256 	0 -0.159882 	-0.271934 	0 -0.160602 	-0.271626 	0 -0.160925 	-0.271488 	0 -0.161248 	-0.27135 	0 -0.16157 	-0.271212 	0 -0.161893 	-0.271074 	0 -0.162217 	-0.270935 	0 -0.162717 	-0.270723 	0 -0.163217 	-0.27051 	0 -0.163717 	-0.270297 	0 -0.164216 	-0.270083 	0 -0.164701 	-0.269875 	0 -0.165291 	-0.269623 	0 -0.16588 	-0.269371 	0 -0.166468 	-0.269119 	0 -0.167056 	-0.268866 	0 -0.167651 	-0.268609 	0 -0.167858 	-0.268521 	0 -0.168064 	-0.268433 	0 -0.16827 	-0.268344 	0 -0.168477 	-0.268256 	0 -0.168681 	-0.268168 	0 -0.169464 	-0.267834 	0 -0.170247 	-0.2675 	0 -0.171028 	-0.267164 	0 -0.171808 	-0.266826 	0 -0.172555 	-0.266501 	0 -0.172676 	-0.266448 	0 -0.172797 	-0.266396 	0 -0.172918 	-0.266344 	0 -0.173038 	-0.266291 	0 -0.17316 	-0.266239 	0 -0.173799 	-0.265964 	0 -0.174437 	-0.265689 	0 -0.175075 	-0.265414 	0 -0.175712 	-0.265138 	0 -0.176328 	-0.26487 	0 -0.176811 	-0.264662 	0 -0.177293 	-0.264453 	0 -0.177774 	-0.264244 	0 -0.178256 	-0.264035 	0 -0.178742 	-0.263823 	0 -0.178993 	-0.263715 	0 -0.179245 	-0.263606 	0 -0.179496 	-0.263497 	0 -0.179747 	-0.263389 	0 -0.179996 	-0.263281 	0 -0.180718 	-0.262971 	0 -0.18144 	-0.26266 	0 -0.182161 	-0.262348 	0 -0.182881 	-0.262033 	0 -0.183574 	-0.261728 	0 -0.183739 	-0.261656 	0 -0.183904 	-0.261584 	0 -0.184069 	-0.261512 	0 -0.184234 	-0.261439 	0 -0.1844 	-0.261367 	0 -0.184937 	-0.261135 	0 -0.185473 	-0.260902 	0 -0.186009 	-0.26067 	0 -0.186544 	-0.260436 	0 -0.187066 	-0.260209 	0 -0.187679 	-0.259943 	0 -0.188291 	-0.259677 	0 -0.188902 	-0.25941 	0 -0.189513 	-0.259143 	0 -0.190132 	-0.258871 	0 -0.190199 	-0.258843 	0 -0.190265 	-0.258814 	0 -0.190332 	-0.258785 	0 -0.190398 	-0.258756 	0 -0.190465 	-0.258727 	0 -0.191137 	-0.258438 	0 -0.191808 	-0.258146 	0 -0.192478 	-0.257853 	0 -0.193147 	-0.25756 	0 -0.193795 	-0.257274 	0 -0.194223 	-0.257088 	0 -0.194651 	-0.2569 	0 -0.195078 	-0.256713 	0 -0.195505 	-0.256526 	0 -0.195936 	-0.256336 	0 -0.196157 	-0.25624 	0 -0.196378 	-0.256144 	0 -0.196598 	-0.256048 	0 -0.196819 	-0.255952 	0 -0.197037 	-0.255857 	0 -0.197677 	-0.255581 	0 -0.198317 	-0.255304 	0 -0.198955 	-0.255024 	0 -0.199592 	-0.254743 	0 -0.200211 	-0.254469 	0 -0.200531 	-0.254329 	0 -0.200851 	-0.254188 	0 -0.201171 	-0.254047 	0 -0.201491 	-0.253906 	0 -0.201813 	-0.253764 	0 -0.202113 	-0.253633 	0 -0.202413 	-0.253503 	0 -0.202713 	-0.253372 	0 -0.203013 	-0.253241 	0 -0.203309 	-0.253112 	0 -0.20392 	-0.252848 	0 -0.20453 	-0.252583 	0 -0.205139 	-0.252316 	0 -0.205747 	-0.252047 	0 -0.20634 	-0.251784 	0 -0.206623 	-0.251659 	0 -0.206907 	-0.251534 	0 -0.20719 	-0.251409 	0 -0.207473 	-0.251284 	0 -0.207758 	-0.251157 	0 -0.208068 	-0.251022 	0 -0.208378 	-0.250887 	0 -0.208687 	-0.250752 	0 -0.208996 	-0.250617 	0 -0.209302 	-0.250483 	0 -0.209886 	-0.25023 	0 -0.21047 	-0.249977 	0 -0.211052 	-0.249721 	0 -0.211634 	-0.249463 	0 -0.212202 	-0.24921 	0 -0.212515 	-0.249072 	0 -0.212828 	-0.248934 	0 -0.213141 	-0.248796 	0 -0.213453 	-0.248657 	0 -0.213769 	-0.248517 	0 -0.214022 	-0.248407 	0 -0.214276 	-0.248296 	0 -0.21453 	-0.248185 	0 -0.214784 	-0.248074 	0 -0.215035 	-0.247964 	0 -0.215595 	-0.247722 	0 -0.216154 	-0.247479 	0 -0.216712 	-0.247232 	0 -0.217269 	-0.246985 	0 -0.217814 	-0.246742 	0 -0.218218 	-0.246563 	0 -0.218623 	-0.246385 	0 -0.219027 	-0.246206 	0 -0.219431 	-0.246027 	0 -0.219839 	-0.245845 	0 -0.219976 	-0.245786 	0 -0.220113 	-0.245726 	0 -0.22025 	-0.245666 	0 -0.220388 	-0.245606 	0 -0.220524 	-0.245546 	0 -0.221061 	-0.245315 	0 -0.221597 	-0.245078 	0 -0.222132 	-0.244842 	0 -0.222667 	-0.244605 	0 -0.223191 	-0.244372 	0 -0.223712 	-0.244142 	0 -0.224234 	-0.243912 	0 -0.224755 	-0.243682 	0 -0.225275 	-0.243452 	0 -0.225785 	-0.243224 	0 -0.225821 	-0.243208 	0 -0.225857 	-0.243192 	0 -0.225892 	-0.243176 	0 -0.225928 	-0.24316 	0 -0.225964 	-0.243144 	0 -0.226443 	-0.242934 	0 -0.226921 	-0.242723 	0 -0.227398 	-0.242513 	0 -0.227875 	-0.242302 	0 -0.228344 	-0.242094 	0 -0.228846 	-0.241875 	0 -0.229347 	-0.241655 	0 -0.229848 	-0.241434 	0 -0.230347 	-0.24121 	0 -0.230838 	-0.240989 	0 -0.231097 	-0.240873 	0 -0.231356 	-0.240757 	0 -0.231614 	-0.240641 	0 -0.231873 	-0.240525 	0 -0.232133 	-0.240408 	0 -0.232363 	-0.240307 	0 -0.232593 	-0.240206 	0 -0.232823 	-0.240105 	0 -0.233053 	-0.240004 	0 -0.233281 	-0.239903 	0 -0.233764 	-0.239693 	0 -0.234246 	-0.239481 	0 -0.234727 	-0.239265 	0 -0.235208 	-0.23905 	0 -0.235681 	-0.238837 	0 -0.23615 	-0.238628 	0 -0.23662 	-0.238419 	0 -0.237088 	-0.23821 	0 -0.237556 	-0.238001 	0 -0.238017 	-0.237792 	0 -0.238081 	-0.237763 	0 -0.238146 	-0.237733 	0 -0.238211 	-0.237704 	0 -0.238275 	-0.237675 	0 -0.23834 	-0.237645 	0 -0.238738 	-0.237469 	0 -0.239136 	-0.237292 	0 -0.239534 	-0.237116 	0 -0.239931 	-0.236939 	0 -0.240323 	-0.236764 	0 -0.240775 	-0.236564 	0 -0.241228 	-0.236365 	0 -0.241679 	-0.236162 	0 -0.242129 	-0.235957 	0 -0.242574 	-0.235754 	0 -0.242973 	-0.235574 	0 -0.243372 	-0.235394 	0 -0.24377 	-0.235214 	0 -0.244169 	-0.235033 	0 -0.244571 	-0.23485 	0 -0.24461 	-0.234833 	0 -0.24465 	-0.234815 	0 -0.244689 	-0.234798 	0 -0.244728 	-0.234781 	0 -0.244768 	-0.234763 	0 -0.245204 	-0.234569 	0 -0.24564 	-0.234373 	0 -0.246075 	-0.234177 	0 -0.24651 	-0.233981 	0 -0.246939 	-0.233787 	0 -0.247363 	-0.233598 	0 -0.247788 	-0.233408 	0 -0.248212 	-0.233217 	0 -0.248635 	-0.233022 	0 -0.249053 	-0.232828 	0 -0.249404 	-0.232667 	0 -0.249756 	-0.232506 	0 -0.250107 	-0.232345 	0 -0.250457 	-0.232184 	0 -0.250812 	-0.232021 	0 -0.250872 	-0.231994 	0 -0.250933 	-0.231967 	0 -0.250994 	-0.231939 	0 -0.251054 	-0.231912 	0 -0.251115 	-0.231885 	0 -0.251525 	-0.231701 	0 -0.251935 	-0.231515 	0 -0.252344 	-0.231328 	0 -0.252752 	-0.231141 	0 -0.253156 	-0.230956 	0 -0.253555 	-0.230776 	0 -0.253954 	-0.230596 	0 -0.254352 	-0.230413 	0 -0.25475 	-0.230227 	0 -0.255143 	-0.230043 	0 -0.255523 	-0.229866 	0 -0.255904 	-0.229689 	0 -0.256284 	-0.229512 	0 -0.256663 	-0.229335 	0 -0.257047 	-0.229156 	0 -0.257053 	-0.229153 	0 -0.257059 	-0.22915 	0 -0.257065 	-0.229148 	0 -0.257071 	-0.229145 	0 -0.257077 	-0.229142 	0 -0.257463 	-0.228965 	0 -0.257848 	-0.228787 	0 -0.258233 	-0.22861 	0 -0.258617 	-0.228432 	0 -0.258998 	-0.228255 	0 -0.259373 	-0.228084 	0 -0.259748 	-0.227912 	0 -0.260122 	-0.227736 	0 -0.260496 	-0.227558 	0 -0.260867 	-0.227381 	0 -0.261232 	-0.22721 	0 -0.261596 	-0.227038 	0 -0.261961 	-0.226866 	0 -0.262325 	-0.226693 	0 -0.262685 	-0.226519 	0 -0.262798 	-0.226464 	0 -0.262912 	-0.226409 	0 -0.263025 	-0.226354 	0 -0.263139 	-0.226299 	0 -0.263253 	-0.226244 	0 -0.263499 	-0.226129 	0 -0.263745 	-0.226014 	0 -0.263991 	-0.225899 	0 -0.264236 	-0.225783 	0 -0.264481 	-0.225669 	0 -0.264833 	-0.225505 	0 -0.265186 	-0.225338 	0 -0.265539 	-0.225169 	0 -0.265891 	-0.224999 	0 -0.26624 	-0.22483 	0 -0.266583 	-0.224667 	0 -0.266926 	-0.224503 	0 -0.267269 	-0.224339 	0 -0.267612 	-0.22417 	0 -0.267952 	-0.224002 	0 -0.268243 	-0.223858 	0 -0.268534 	-0.223715 	0 -0.268826 	-0.223572 	0 -0.269116 	-0.223428 	0 -0.26941 	-0.223283 	0 -0.269452 	-0.223263 	0 -0.269494 	-0.223243 	0 -0.269536 	-0.223223 	0 -0.269578 	-0.223203 	0 -0.269621 	-0.223183 	0 -0.269953 	-0.223022 	0 -0.270286 	-0.222861 	0 -0.270618 	-0.222699 	0 -0.270949 	-0.222537 	0 -0.271279 	-0.222376 	0 -0.271601 	-0.222219 	0 -0.271924 	-0.222063 	0 -0.272247 	-0.221901 	0 -0.27257 	-0.221739 	0 -0.272891 	-0.221577 	0 -0.273204 	-0.22142 	0 -0.273519 	-0.221264 	0 -0.273832 	-0.221106 	0 -0.274146 	-0.220948 	0 -0.274458 	-0.220786 	0 -0.274663 	-0.22068 	0 -0.274868 	-0.220574 	0 -0.275074 	-0.220468 	0 -0.275279 	-0.220362 	0 -0.275487 	-0.220255 	0 -0.275587 	-0.220205 	0 -0.275689 	-0.220155 	0 -0.27579 	-0.220104 	0 -0.275891 	-0.220054 	0 -0.275993 	-0.220004 	0 -0.276297 	-0.219852 	0 -0.276601 	-0.219697 	0 -0.276906 	-0.219542 	0 -0.27721 	-0.219387 	0 -0.277512 	-0.219232 	0 -0.277807 	-0.219083 	0 -0.278103 	-0.218933 	0 -0.278399 	-0.218778 	0 -0.278694 	-0.218622 	0 -0.278988 	-0.218467 	0 -0.279275 	-0.218316 	0 -0.279563 	-0.218166 	0 -0.27985 	-0.218015 	0 -0.280136 	-0.217863 	0 -0.280422 	-0.217707 	0 -0.280628 	-0.217595 	0 -0.280834 	-0.217484 	0 -0.28104 	-0.217372 	0 -0.281245 	-0.21726 	0 -0.281453 	-0.217147 	0 -0.281527 	-0.217108 	0 -0.281601 	-0.21707 	0 -0.281676 	-0.217031 	0 -0.28175 	-0.216992 	0 -0.281825 	-0.216954 	0 -0.282103 	-0.216807 	0 -0.282382 	-0.216657 	0 -0.282661 	-0.216508 	0 -0.282939 	-0.216358 	0 -0.283216 	-0.21621 	0 -0.283486 	-0.216065 	0 -0.283756 	-0.215921 	0 -0.284027 	-0.21577 	0 -0.284298 	-0.21562 	0 -0.284567 	-0.21547 	0 -0.284829 	-0.215325 	0 -0.285091 	-0.215179 	0 -0.285353 	-0.215034 	0 -0.285616 	-0.214884 	0 -0.285878 	-0.214734 	0 -0.286132 	-0.214587 	0 -0.286387 	-0.21444 	0 -0.286642 	-0.214294 	0 -0.286896 	-0.214147 	0 -0.287149 	-0.214 	0 -0.287172 	-0.213986 	0 -0.287196 	-0.213972 	0 -0.28722 	-0.213957 	0 -0.287244 	-0.213943 	0 -0.287268 	-0.213929 	0 -0.287498 	-0.213799 	0 -0.287729 	-0.213669 	0 -0.287959 	-0.213539 	0 -0.288189 	-0.213408 	0 -0.288418 	-0.213279 	0 -0.288664 	-0.21314 	0 -0.288911 	-0.212996 	0 -0.289159 	-0.212851 	0 -0.289407 	-0.212706 	0 -0.289653 	-0.212561 	0 -0.289892 	-0.212421 	0 -0.290131 	-0.212281 	0 -0.29037 	-0.212138 	0 -0.290611 	-0.211991 	0 -0.29085 	-0.211846 	0 -0.291082 	-0.211704 	0 -0.291314 	-0.211562 	0 -0.291546 	-0.21142 	0 -0.291777 	-0.211278 	0 -0.29201 	-0.211132 	0 -0.292185 	-0.21102 	0 -0.29236 	-0.210909 	0 -0.292535 	-0.210798 	0 -0.292709 	-0.210687 	0 -0.292886 	-0.210575 	0 -0.292937 	-0.210544 	0 -0.292988 	-0.210513 	0 -0.29304 	-0.210482 	0 -0.293091 	-0.210451 	0 -0.293143 	-0.210421 	0 -0.293368 	-0.210282 	0 -0.293595 	-0.210141 	0 -0.293821 	-0.21 	0 -0.294047 	-0.209859 	0 -0.294272 	-0.209719 	0 -0.294489 	-0.209583 	0 -0.294708 	-0.209444 	0 -0.294928 	-0.209302 	0 -0.295147 	-0.209159 	0 -0.295366 	-0.209018 	0 -0.295577 	-0.20888 	0 -0.295788 	-0.208742 	0 -0.296 	-0.208603 	0 -0.296213 	-0.20846 	0 -0.296426 	-0.208317 	0 -0.29663 	-0.208177 	0 -0.296836 	-0.208038 	0 -0.29704 	-0.207899 	0 -0.297245 	-0.207759 	0 -0.297452 	-0.207615 	0 -0.297615 	-0.207499 	0 -0.297778 	-0.207384 	0 -0.297941 	-0.207268 	0 -0.298105 	-0.207153 	0 -0.298269 	-0.207036 	0 -0.298305 	-0.207012 	0 -0.298341 	-0.206987 	0 -0.298378 	-0.206963 	0 -0.298414 	-0.206938 	0 -0.298452 	-0.206915 	0 -0.298651 	-0.206777 	0 -0.298852 	-0.206639 	0 -0.299052 	-0.2065 	0 -0.299252 	-0.206361 	0 -0.299453 	-0.206224 	0 -0.299644 	-0.206089 	0 -0.299838 	-0.205951 	0 -0.300033 	-0.205811 	0 -0.300227 	-0.205671 	0 -0.300422 	-0.205532 	0 -0.300607 	-0.205396 	0 -0.300793 	-0.20526 	0 -0.300981 	-0.205122 	0 -0.30117 	-0.20498 	0 -0.301359 	-0.204839 	0 -0.301539 	-0.204702 	0 -0.301719 	-0.204564 	0 -0.3019 	-0.204427 	0 -0.302081 	-0.204287 	0 -0.302265 	-0.204145 	0 -0.302439 	-0.204006 	0 -0.302614 	-0.203868 	0 -0.302789 	-0.203729 	0 -0.302963 	-0.20359 	0 -0.303139 	-0.203451 	0 -0.303184 	-0.203412 	0 -0.303231 	-0.203373 	0 -0.303277 	-0.203335 	0 -0.303324 	-0.203296 	0 -0.303371 	-0.203259 	0 -0.303498 	-0.20316 	0 -0.303626 	-0.203062 	0 -0.303754 	-0.202964 	0 -0.303881 	-0.202866 	0 -0.30401 	-0.202769 	0 -0.304177 	-0.202637 	0 -0.304348 	-0.202501 	0 -0.304518 	-0.202365 	0 -0.304689 	-0.202228 	0 -0.304859 	-0.202093 	0 -0.30502 	-0.201962 	0 -0.305182 	-0.201829 	0 -0.305347 	-0.201693 	0 -0.305512 	-0.201556 	0 -0.305677 	-0.20142 	0 -0.305832 	-0.201288 	0 -0.305988 	-0.201157 	0 -0.306144 	-0.201025 	0 -0.306303 	-0.200888 	0 -0.306463 	-0.200752 	0 -0.306612 	-0.200621 	0 -0.306762 	-0.20049 	0 -0.306912 	-0.200359 	0 -0.307063 	-0.200227 	0 -0.307217 	-0.200092 	0 -0.307361 	-0.199962 	0 -0.307506 	-0.199833 	0 -0.307651 	-0.199704 	0 -0.307795 	-0.199574 	0 -0.307941 	-0.199445 	0 -0.307966 	-0.199421 	0 -0.307993 	-0.199397 	0 -0.308019 	-0.199373 	0 -0.308046 	-0.19935 	0 -0.308073 	-0.199327 	0 -0.308191 	-0.199228 	0 -0.30831 	-0.199129 	0 -0.308429 	-0.199031 	0 -0.308548 	-0.198932 	0 -0.308667 	-0.198835 	0 -0.308805 	-0.198722 	0 -0.308947 	-0.198606 	0 -0.309089 	-0.19849 	0 -0.30923 	-0.198373 	0 -0.309372 	-0.198258 	0 -0.309504 	-0.198155 	0 -0.309638 	-0.19805 	0 -0.309775 	-0.197942 	0 -0.309912 	-0.197834 	0 -0.310049 	-0.197727 	0 -0.310176 	-0.197635 	0 -0.310304 	-0.197544 	0 -0.310433 	-0.197451 	0 -0.310565 	-0.197355 	0 -0.310698 	-0.197259 	0 -0.310821 	-0.197184 	0 -0.310944 	-0.19711 	0 -0.311067 	-0.197037 	0 -0.311193 	-0.19696 	0 -0.311321 	-0.196882 	0 -0.311439 	-0.196831 	0 -0.311558 	-0.196781 	0 -0.311677 	-0.196731 	0 -0.311796 	-0.196681 	0 -0.311918 	-0.196629 	0 -0.311987 	-0.196617 	0 -0.312057 	-0.196607 	0 -0.312127 	-0.196597 	0 -0.312197 	-0.196587 	0 -0.312268 	-0.196578 	0 -0.312314 	-0.196572 	0 -0.312361 	-0.196568 	0 -0.312409 	-0.196563 	0 -0.312456 	-0.196559 	0 -0.312504 	-0.196556 	0 -0.312618 	-0.196591 	0 -0.312735 	-0.196624 	0 -0.312852 	-0.196658 	0 -0.31297 	-0.196692 	0 -0.313088 	-0.196728 	0 -0.313194 	-0.196829 	0 -0.313305 	-0.196925 	0 -0.313418 	-0.19702 	0 -0.313531 	-0.197114 	0 -0.313646 	-0.197211 	0 -0.313747 	-0.197392 	0 -0.31385 	-0.197577 	0 -0.313959 	-0.197752 	0 -0.314068 	-0.197926 	0 -0.314178 	-0.198104 	0 -0.314275 	-0.19839 	0 -0.314374 	-0.19868 	0 -0.314473 	-0.198969 	0 -0.314578 	-0.199247 	0 -0.314684 	-0.19953 	0 -0.314777 	-0.19995 	0 -0.314872 	-0.200375 	0 -0.314966 	-0.2008 	0 -0.315063 	-0.201222 	0 -0.315166 	-0.20164 	0 -0.315255 	-0.20223 	0 -0.315345 	-0.202826 	0 -0.315436 	-0.203422 	0 -0.315527 	-0.204017 	0 -0.315622 	-0.204616 	0 -0.315658 	-0.204954 	0 -0.315695 	-0.205299 	0 -0.315732 	-0.205644 	0 -0.315768 	-0.205989 	0 -0.315806 	-0.206337 	0 -0.315859 	-0.206799 	0 -0.315913 	-