# vtk DataFile Version 2.0
track0
ASCII
DATASET POLYDATA
POINTS 12110 float
-0.0205 0.001 1e-05
-0.0204949 0.0011 1e-05
-0.0204895 0.00119999 1e-05
-0.0204841 0.00129997 1e-05
-0.0204784 0.00139995 1e-05
-0.0204727 0.0015 1e-05
-0.0204667 0.0016 1e-05
-0.0204605 0.00169999 1e-05
-0.0204542 0.00179996 1e-05
-0.0204476 0.00189993 1e-05
-0.0204409 0.002 1e-05
-0.0204339 0.0021 1e-05
-0.0204267 0.00219998 1e-05
-0.0204193 0.00229995 1e-05
-0.0204117 0.0023999 1e-05
-0.0204038 0.0025 1e-05
-0.0203957 0.0026 1e-05
-0.0203874 0.00269998 1e-05
-0.0203788 0.00279994 1e-05
-0.0203699 0.00289988 1e-05
-0.0203609 0.003 1e-05
-0.0203515 0.0031 1e-05
-0.020342 0.00319998 1e-05
-0.0203321 0.00329993 1e-05
-0.020322 0.00339985 1e-05
-0.0203117 0.0035 1e-05
-0.0203064 0.00354957 1e-05
-0.0203011 0.00359914 1e-05
-0.0202957 0.0036487 1e-05
-0.0202903 0.00369826 1e-05
-0.0202854 0.00374207 1e-05
-0.0202796 0.00379365 1e-05
-0.0202737 0.00384523 1e-05
-0.0202678 0.0038968 1e-05
-0.0202618 0.00394837 1e-05
-0.0202557 0.004 1e-05
-0.0202438 0.0041 1e-05
-0.0202316 0.00419997 1e-05
-0.0202191 0.0042999 1e-05
-0.0202064 0.00439981 1e-05
-0.0201934 0.0045 1e-05
-0.0201801 0.0046 1e-05
-0.0201666 0.00469996 1e-05
-0.0201528 0.00479989 1e-05
-0.0201387 0.00489978 1e-05
-0.0201243 0.005 1e-05
-0.0201097 0.0051 1e-05
-0.0200948 0.00519996 1e-05
-0.0200796 0.00529988 1e-05
-0.0200642 0.00539976 1e-05
-0.0200484 0.0055 1e-05
-0.0200432 0.00553259 1e-05
-0.020038 0.00556518 1e-05
-0.0200327 0.00559777 1e-05
-0.0200274 0.00563035 1e-05
-0.0200223 0.00566115 1e-05
-0.0200112 0.00572892 1e-05
-0.0199999 0.00579667 1e-05
-0.0199885 0.0058644 1e-05
-0.0199769 0.00593211 1e-05
-0.0199652 0.006 1e-05
-0.0199478 0.0061 1e-05
-0.0199301 0.00619995 1e-05
-0.0199121 0.00629985 1e-05
-0.0198939 0.00639971 1e-05
-0.0198753 0.0065 1e-05
-0.0198564 0.0066 1e-05
-0.0198373 0.00669995 1e-05
-0.0198179 0.00679984 1e-05
-0.0197982 0.00689968 1e-05
-0.0197781 0.007 1e-05
-0.0197748 0.00701649 1e-05
-0.0197714 0.00703297 1e-05
-0.019768 0.00704945 1e-05
-0.0197647 0.00706593 1e-05
-0.0197614 0.00708204 1e-05
-0.0197442 0.00716563 1e-05
-0.0197268 0.00724918 1e-05
-0.0197093 0.00733269 1e-05
-0.0196915 0.00741616 1e-05
-0.0196734 0.0075 1e-05
-0.0196517 0.0076 1e-05
-0.0196296 0.00769994 1e-05
-0.0196073 0.00779981 1e-05
-0.0195846 0.00789962 1e-05
-0.0195616 0.008 1e-05
-0.0195498 0.00805074 1e-05
-0.0195379 0.00810145 1e-05
-0.0195259 0.00815215 1e-05
-0.0195139 0.00820284 1e-05
-0.0195025 0.0082504 1e-05
-0.0194905 0.00830032 1e-05
-0.0194784 0.00835022 1e-05
-0.0194663 0.00840011 1e-05
-0.0194541 0.00844997 1e-05
-0.0194417 0.0085 1e-05
-0.0194169 0.0086 1e-05
-0.0193918 0.00869993 1e-05
-0.0193664 0.00879978 1e-05
-0.0193408 0.00889956 1e-05
-0.0193146 0.009 1e-05
-0.0193008 0.00905222 1e-05
-0.019287 0.00910441 1e-05
-0.019273 0.00915658 1e-05
-0.019259 0.00920873 1e-05
-0.0192457 0.00925788 1e-05
-0.0192326 0.0093063 1e-05
-0.0192193 0.00935471 1e-05
-0.019206 0.00940309 1e-05
-0.0191927 0.00945146 1e-05
-0.0191792 0.0095 1e-05
-0.0191512 0.0096 1e-05
-0.0191229 0.00969992 1e-05
-0.0190944 0.00979975 1e-05
-0.0190655 0.00989949 1e-05
-0.0190361 0.01 1e-05
-0.0190271 0.0100305 1e-05
-0.0190181 0.0100609 1e-05
-0.019009 0.0100914 1e-05
-0.0189999 0.0101218 1e-05
-0.018991 0.0101513 1e-05
-0.0189701 0.0102211 1e-05
-0.0189489 0.0102907 1e-05
-0.0189276 0.0103604 1e-05
-0.0189062 0.01043 1e-05
-0.0188845 0.0105 1e-05
-0.0188553 0.0105935 1e-05
-0.0188258 0.0106869 1e-05
-0.018796 0.0107803 1e-05
-0.018766 0.0108735 1e-05
-0.0187384 0.0109584 1e-05
-0.0187357 0.0109667 1e-05
-0.0187329 0.010975 1e-05
-0.0187302 0.0109834 1e-05
-0.0187275 0.0109917 1e-05
-0.0187247 0.011 1e-05
-0.0186918 0.0111 1e-05
-0.0186585 0.0111999 1e-05
-0.0186249 0.0112997 1e-05
-0.018591 0.0113994 1e-05
-0.0185565 0.0115 1e-05
-0.0185427 0.0115396 1e-05
-0.0185289 0.0115792 1e-05
-0.0185151 0.0116187 1e-05
-0.0185012 0.0116582 1e-05
-0.0184878 0.0116964 1e-05
-0.0184663 0.0117571 1e-05
-0.0184447 0.0118178 1e-05
-0.0184229 0.0118784 1e-05
-0.0184011 0.011939 1e-05
-0.018379 0.012 1e-05
-0.018351 0.0120766 1e-05
-0.0183229 0.0121532 1e-05
-0.0182945 0.0122296 1e-05
-0.018266 0.012306 1e-05
-0.0182392 0.0123774 1e-05
-0.0182299 0.0124019 1e-05
-0.0182206 0.0124264 1e-05
-0.0182113 0.0124509 1e-05
-0.0182019 0.0124754 1e-05
-0.0181925 0.0125 1e-05
-0.0181542 0.0126 1e-05
-0.0181155 0.0126999 1e-05
-0.0180766 0.0127996 1e-05
-0.0180373 0.0128992 1e-05
-0.0179971 0.013 1e-05
-0.0179962 0.0130023 1e-05
-0.0179953 0.0130045 1e-05
-0.0179944 0.0130068 1e-05
-0.0179935 0.013009 1e-05
-0.0179926 0.0130113 1e-05
-0.0179532 0.013109 1e-05
-0.0179136 0.0132066 1e-05
-0.0178736 0.0133041 1e-05
-0.0178333 0.0134015 1e-05
-0.0177922 0.0135 1e-05
-0.0177833 0.013521 1e-05
-0.0177745 0.0135419 1e-05
-0.0177656 0.0135629 1e-05
-0.0177567 0.0135838 1e-05
-0.017748 0.0136044 1e-05
-0.0177143 0.0136836 1e-05
-0.0176804 0.0137626 1e-05
-0.0176463 0.0138415 1e-05
-0.017612 0.0139203 1e-05
-0.0175771 0.014 1e-05
-0.0175628 0.0140325 1e-05
-0.0175484 0.014065 1e-05
-0.017534 0.0140975 1e-05
-0.0175195 0.01413 1e-05
-0.0175053 0.0141617 1e-05
-0.017475 0.0142294 1e-05
-0.0174446 0.0142969 1e-05
-0.0174139 0.0143645 1e-05
-0.0173832 0.0144319 1e-05
-0.0173519 0.0145 1e-05
-0.0173345 0.0145378 1e-05
-0.017317 0.0145755 1e-05
-0.0172994 0.0146133 1e-05
-0.0172818 0.014651 1e-05
-0.0172647 0.0146876 1e-05
-0.0172353 0.0147501 1e-05
-0.0172058 0.0148125 1e-05
-0.0171762 0.0148749 1e-05
-0.0171465 0.0149371 1e-05
-0.0171163 0.015 1e-05
-0.0170982 0.0150374 1e-05
-0.0170801 0.0150748 1e-05
-0.0170619 0.0151122 1e-05
-0.0170437 0.0151495 1e-05
-0.0170259 0.0151858 1e-05
-0.0169951 0.0152487 1e-05
-0.0169641 0.0153114 1e-05
-0.0169329 0.0153741 1e-05
-0.0169017 0.0154368 1e-05
-0.0168699 0.0155 1e-05
-0.0168538 0.015532 1e-05
-0.0168376 0.015564 1e-05
-0.0168213 0.015596 1e-05
-0.0168051 0.015628 1e-05
-0.0167891 0.0156592 1e-05
-0.0167542 0.0157274 1e-05
-0.0167192 0.0157955 1e-05
-0.016684 0.0158634 1e-05
-0.0166486 0.0159313 1e-05
-0.0166126 0.016 1e-05
-0.0166009 0.0160222 1e-05
-0.0165892 0.0160443 1e-05
-0.0165775 0.0160665 1e-05
-0.0165658 0.0160886 1e-05
-0.0165542 0.0161104 1e-05
-0.0165127 0.0161883 1e-05
-0.016471 0.0162661 1e-05
-0.0164291 0.0163438 1e-05
-0.016387 0.0164214 1e-05
-0.016344 0.0165 1e-05
-0.0163395 0.0165083 1e-05
-0.0163349 0.0165166 1e-05
-0.0163303 0.0165249 1e-05
-0.0163257 0.0165332 1e-05
-0.0163212 0.0165415 1e-05
-0.0162749 0.0166252 1e-05
-0.0162285 0.0167088 1e-05
-0.0161817 0.0167922 1e-05
-0.0161347 0.0168755 1e-05
-0.01609 0.0169542 1e-05
-0.0160848 0.0169634 1e-05
-0.0160795 0.0169725 1e-05
-0.0160743 0.0169817 1e-05
-0.0160691 0.0169908 1e-05
-0.0160638 0.017 1e-05
-0.0160232 0.0170707 1e-05
-0.0159824 0.0171414 1e-05
-0.0159414 0.0172119 1e-05
-0.0159003 0.0172823 1e-05
-0.0158607 0.0173495 1e-05
-0.0158429 0.0173796 1e-05
-0.0158251 0.0174097 1e-05
-0.0158073 0.0174397 1e-05
-0.0157894 0.0174698 1e-05
-0.0157713 0.0175 1e-05
-0.0157437 0.0175461 1e-05
-0.015716 0.0175921 1e-05
-0.0156883 0.0176382 1e-05
-0.0156604 0.0176841 1e-05
-0.0156333 0.0177287 1e-05
-0.0156002 0.017783 1e-05
-0.015567 0.0178372 1e-05
-0.0155337 0.0178913 1e-05
-0.0155002 0.0179453 1e-05
-0.0154663 0.018 1e-05
-0.0154545 0.0180188 1e-05
-0.0154428 0.0180375 1e-05
-0.0154311 0.0180563 1e-05
-0.0154193 0.018075 1e-05
-0.0154077 0.0180935 1e-05
-0.015363 0.0181647 1e-05
-0.015318 0.0182357 1e-05
-0.0152729 0.0183066 1e-05
-0.0152276 0.0183774 1e-05
-0.0151839 0.0184452 1e-05
-0.0151768 0.0184561 1e-05
-0.0151697 0.0184671 1e-05
-0.0151626 0.0184781 1e-05
-0.0151555 0.018489 1e-05
-0.0151484 0.0185 1e-05
-0.0151111 0.0185573 1e-05
-0.0150737 0.0186146 1e-05
-0.0150361 0.0186717 1e-05
-0.0149985 0.0187288 1e-05
-0.0149619 0.018784 1e-05
-0.0149332 0.0188272 1e-05
-0.0149043 0.0188703 1e-05
-0.0148754 0.0189134 1e-05
-0.0148465 0.0189565 1e-05
-0.0148171 0.019 1e-05
-0.014802 0.0190222 1e-05
-0.0147869 0.0190445 1e-05
-0.0147718 0.0190667 1e-05
-0.0147567 0.0190889 1e-05
-0.0147417 0.0191108 1e-05
-0.0146981 0.0191747 1e-05
-0.0146542 0.0192385 1e-05
-0.0146102 0.0193022 1e-05
-0.0145661 0.0193658 1e-05
-0.0145233 0.019427 1e-05
-0.0145131 0.0194416 1e-05
-0.0145028 0.0194562 1e-05
-0.0144926 0.0194708 1e-05
-0.0144823 0.0194854 1e-05
-0.014472 0.0195 1e-05
-0.014439 0.0195469 1e-05
-0.0144058 0.0195937 1e-05
-0.0143726 0.0196405 1e-05
-0.0143392 0.0196872 1e-05
-0.0143067 0.0197326 1e-05
-0.0142682 0.0197861 1e-05
-0.0142297 0.0198395 1e-05
-0.014191 0.0198928 1e-05
-0.0141522 0.0199461 1e-05
-0.0141128 0.02 1e-05
-0.0141086 0.0200057 1e-05
-0.0141044 0.0200115 1e-05
-0.0141002 0.0200172 1e-05
-0.014096 0.0200229 1e-05
-0.0140917 0.0200286 1e-05
-0.0140491 0.0200865 1e-05
-0.0140063 0.0201444 1e-05
-0.0139635 0.0202021 1e-05
-0.0139204 0.0202597 1e-05
-0.0138786 0.0203156 1e-05
-0.0138508 0.0203524 1e-05
-0.0138229 0.0203893 1e-05
-0.013795 0.0204261 1e-05
-0.0137671 0.0204629 1e-05
-0.0137388 0.0205 1e-05
-0.0137245 0.0205188 1e-05
-0.0137101 0.0205375 1e-05
-0.0136957 0.0205563 1e-05
-0.0136814 0.020575 1e-05
-0.0136671 0.0205935 1e-05
-0.0136251 0.020648 1e-05
-0.0135831 0.0207024 1e-05
-0.0135409 0.0207567 1e-05
-0.0134986 0.0208109 1e-05
-0.0134573 0.0208636 1e-05
-0.0134359 0.0208909 1e-05
-0.0134144 0.0209181 1e-05
-0.0133929 0.0209454 1e-05
-0.0133713 0.0209726 1e-05
-0.0133496 0.021 1e-05
-0.0133295 0.0210252 1e-05
-0.0133094 0.0210504 1e-05
-0.0132893 0.0210756 1e-05
-0.0132692 0.0211008 1e-05
-0.0132493 0.0211256 1e-05
-0.013208 0.021177 1e-05
-0.0131666 0.0212283 1e-05
-0.0131251 0.0212795 1e-05
-0.0130835 0.0213307 1e-05
-0.0130429 0.0213805 1e-05
-0.0130233 0.0214044 1e-05
-0.0130037 0.0214283 1e-05
-0.012984 0.0214522 1e-05
-0.0129644 0.021476 1e-05
-0.0129446 0.0215 1e-05
-0.0129233 0.0215257 1e-05
-0.012902 0.0215515 1e-05
-0.0128806 0.0215771 1e-05
-0.0128593 0.0216028 1e-05
-0.0128381 0.0216282 1e-05
-0.0127975 0.0216768 1e-05
-0.0127568 0.0217253 1e-05
-0.012716 0.0217738 1e-05
[...]
POINT_DATA 12110
 FIELD attributes 2
p 1 12110 float
-0.00124551 -0.00129623 -0.00135441 -0.00141276 -0.00147107 -0.0015335 -0.00165705 -0.00178088 -0.00190732 -0.00203368 -0.00215906 -0.00225205 -0.00234408 -0.00243858 -0.00253463 -0.00262985 -0.00271397 -0.00279799 -0.00288189 -0.00296817 -0.00305551 -0.00314884 -0.003242 -0.00333502 -0.0034279 -0.0035226 -0.00357492 -0.00362736 -0.00367976 -0.00373212 -0.00377856 -0.00383193 -0.00388573 -0.00393948 -0.00399317 -0.00404737 -0.00416284 -0.00427993 -0.00439679 -0.00451343 -0.0046305 -0.00475864 -0.00488709 -0.00501637 -0.00514596 -0.00527633 -0.00541996 -0.00556374 -0.00570725 -0.00585051 -0.00599527 -0.00604703 -0.00609941 -0.00615176 -0.00620408 -0.00625419 -0.00636174 -0.00646944 -0.006577 -0.00668442 -0.00679232 -0.00696983 -0.00714726 -0.00732453 -0.00750148 -0.0076791 -0.00787617 -0.00807323 -0.00826994 -0.00846629 -0.00866362 -0.0086994 -0.00873538 -0.00877134 -0.0088073 -0.00884263 -0.00902342 -0.00920456 -0.00938542 -0.00956601 -0.00974783 -0.00998646 -0.0102255 -0.0104641 -0.0107015 -0.0109409 -0.0110731 -0.011206 -0.0113387 -0.0114712 -0.0115963 -0.011726 -0.0118559 -0.0119857 -0.0121154 -0.0122456 -0.0125303 -0.012815 -0.0130983 -0.0133808 -0.0136653 -0.0138261 -0.0139872 -0.014148 -0.0143088 -0.0144604 -0.0146085 -0.0147572 -0.0149058 -0.0150543 -0.0152039 -0.015536 -0.0158685 -0.0162002 -0.0165301 -0.0168631 -0.0169711 -0.0170798 -0.0171884 -0.017297 -0.0174029 -0.017651 -0.0178991 -0.0181468 -0.0183943 -0.0186433 -0.0189999 -0.0193563 -0.019712 -0.0200673 -0.0203907 -0.0204215 -0.0204531 -0.0204847 -0.0205163 -0.0205489 -0.0209549 -0.0213599 -0.0217641 -0.0221677 -0.0225756 -0.0227451 -0.0229154 -0.0230855 -0.0232556 -0.0234203 -0.023681 -0.0239418 -0.0242022 -0.0244624 -0.0247244 -0.0250729 -0.0254211 -0.0257689 -0.0261162 -0.0264406 -0.0265512 -0.0266625 -0.0267738 -0.0268851 -0.0269974 -0.0274756 -0.0279537 -0.0284309 -0.0289072 -0.029389 -0.0294 -0.029411 -0.0294225 -0.0294341 -0.0294457 -0.0299357 -0.030425 -0.0309135 -0.0314011 -0.0318944 -0.0320042 -0.032114 -0.0322238 -0.0323335 -0.0324416 -0.0328551 -0.0332687 -0.0336816 -0.034094 -0.0345111 -0.0346879 -0.0348654 -0.0350428 -0.0352201 -0.0353936 -0.0357622 -0.0361305 -0.0364983 -0.0368656 -0.0372365 -0.0374503 -0.037664 -0.0378775 -0.0380908 -0.0382981 -0.0386504 -0.0390029 -0.039355 -0.0397065 -0.0400618 -0.0402801 -0.040499 -0.0407176 -0.0409361 -0.0411493 -0.041516 -0.0418823 -0.0422482 -0.0426135 -0.0429825 -0.0431756 -0.0433684 -0.043561 -0.0437535 -0.0439415 -0.0443503 -0.044759 -0.045167 -0.0455744 -0.0459866 -0.0461229 -0.0462599 -0.0463969 -0.0465337 -0.0466692 -0.047149 -0.0476281 -0.0481062 -0.0485835 -0.0490672 -0.0491199 -0.0491724 -0.0492249 -0.0492773 -0.0493292 -0.0498555 -0.0503809 -0.0509048 -0.0514271 -0.0519207 -0.0519782 -0.0520352 -0.0520923 -0.0521493 -0.0522061 -0.0526576 -0.0531085 -0.0535585 -0.0540076 -0.0544363 -0.0546262 -0.0548168 -0.0550072 -0.0551975 -0.0553896 -0.0556874 -0.0559848 -0.0562819 -0.0565785 -0.0568665 -0.0572142 -0.0575607 -0.0579067 -0.058252 -0.0586004 -0.0587222 -0.0588442 -0.0589661 -0.0590879 -0.0592086 -0.0596666 -0.0601243 -0.060581 -0.0610358 -0.0614714 -0.0615406 -0.0616101 -0.0616796 -0.061749 -0.0618189 -0.0621884 -0.0625563 -0.0629233 -0.0632896 -0.0636423 -0.0639163 -0.0641898 -0.0644627 -0.0647352 -0.0650101 -0.0651516 -0.0652939 -0.0654361 -0.0655782 -0.0657193 -0.0661211 -0.0665221 -0.066922 -0.0673202 -0.0677037 -0.0677924 -0.0678822 -0.067972 -0.0680617 -0.0681528 -0.0684436 -0.0687334 -0.0690226 -0.0693112 -0.0695917 -0.0699161 -0.0702382 -0.0705595 -0.0708799 -0.0712028 -0.0712372 -0.0712718 -0.0713063 -0.0713409 -0.0713756 -0.0717164 -0.0720573 -0.0723971 -0.072736 -0.0730652 -0.0732752 -0.073485 -0.0736943 -0.0739033 -0.0741143 -0.0742226 -0.0743289 -0.074435 -0.074541 -0.074644 -0.0749438 -0.0752421 -0.0755396 -0.0758362 -0.0761233 -0.0762686 -0.0764115 -0.0765541 -0.0766965 -0.0768376 -0.0769684 -0.0770991 -0.0772297 -0.07736 -0.0774888 -0.0777426 -0.0779971 -0.0782511 -0.0785046 -0.0787528 -0.0788645 -0.0789763 -0.0790878 -0.0791992 -0.0793114 -0.0794324 -0.0795503 -0.079668 -0.0797854 -0.0798985 -0.0801093 -0.0803183 -0.0805272 -0.080736 -0.0809384 -0.0810457 -0.0811497 -0.0812534 -0.0813568 -0.0814577 -0.0815381 -0.0816186 -0.0816988 -0.081779 -0.0818584 -0.0820191 -0.0821814 -0.0823451 -0.0825079 -0.0826688 -0.0827743 -0.0828796 -0.0829844 -0.0830887 -0.0831941 -0.0832311 -0.0832645 -0.0832978 -0.083331 -0.0833605 -0.0834766 -0.0835939 -0.0837103 -0.0838259 -0.0839373 -0.0840354 -0.0841286 -0.084221 -0.0843126 -0.0843987 -0.0844055 -0.0844108 -0.0844162 -0.0844209 -0.0844253 -0.0844862 -0.0845492 -0.0846114 -0.084673 -0.0847358 -0.0847792 -0.0848221 -0.0848643 -0.0849093 -0.0849543 -0.0849646 -0.0849779 -0.0849909 -0.0850037 -0.0850195 -0.0850287 -0.0850361 -0.0850433 -0.0850504 -0.0850557 -0.0850529 -0.0850474 -0.085044 -0.0850399 -0.0850302 -0.0850061 -0.0849794 -0.0849519 -0.0849237 -0.084896 -0.0848948 -0.0848883 -0.0848818 -0.0848753 -0.0848635 -0.0848159 -0.084768 -0.0847197 -0.0846708 -0.0846223 -0.0845385 -0.0844576 -0.0843799 -0.0843052 -0.0842344 -0.0841433 -0.084052 -0.0839601 -0.0838676 -0.0837739 -0.0837676 -0.0837599 -0.0837501 -0.0837403 -0.083725 -0.0835991 -0.0834728 -0.0833459 -0.0832182 -0.0830896 -0.0829413 -0.0827863 -0.082632 -0.082485 -0.0823331 -0.082189 -0.0820422 -0.081895 -0.0817474 -0.0815955 -0.0815648 -0.0815379 -0.0815111 -0.0814843 -0.0814617 -0.0812559 -0.0810536 -0.0808506 -0.080647 -0.0804452 -0.0802106 -0.0799797 -0.0797512 -0.0795305 -0.0793159 -0.0790709 -0.0788255 -0.0785795 -0.0783329 -0.0780827 -0.0780793 -0.078076 -0.0780726 -0.0780688 -0.0780628 -0.0777886 -0.0775124 -0.0772357 -0.0769583 -0.0766813 -0.0763798 -0.0760708 -0.0757716 -0.0754749 -0.0751735 -0.0748505 -0.074525 -0.074199 -0.0738724 -0.0735554 -0.0734528 -0.0733427 -0.0732326 -0.0731224 -0.0730044 -0.072763 -0.0725209 -0.0722785 -0.0720359 -0.0717941 -0.0714022 -0.0710247 -0.0706527 -0.0702801 -0.0699152 -0.069509 -0.0691016 -0.0686936 -0.0682961 -0.0679061 -0.0675324 -0.0671635 -0.0667943 -0.0664247 -0.0660562 -0.0660032 -0.0659499 -0.0658963 -0.0658426 -0.065788 -0.0653408 -0.0648895 -0.0644377 -0.0639854 -0.0635284 -0.0630455 -0.0625614 -0.062094 -0.0616272 -0.0611627 -0.0606669 -0.0601626 -0.0596578 -0.0591557 -0.0586644 -0.0583163 -0.0579675 -0.0576185 -0.0572692 -0.0569167 -0.056739 -0.0565669 -0.0563949 -0.0562228 -0.0560568 -0.055499 -0.05495 -0.0544006 -0.0538507 -0.0533018 -0.0527124 -0.0521283 -0.0515606 -0.0509971 -0.0504427 -0.0498417 -0.0492373 -0.0486324 -0.0480307 -0.0474478 -0.0469868 -0.0465312 -0.0460754 -0.0456194 -0.0451653 -0.0450003 -0.0448373 -0.0446741 -0.044511 -0.04435 -0.0437039 -0.0430587 -0.0424132 -0.0417673 -0.0411168 -0.0404326 -0.0397523 -0.0390935 -0.0384343 -0.0377813 -0.0370881 -0.0363866 -0.0356847 -0.0349964 -0.0343137 -0.0335956 -0.0328805 -0.0321651 -0.0314493 -0.0307439 -0.0306811 -0.0306107 -0.0305392 -0.0304656 -0.0303919 -0.0297283 -0.0290582 -0.0283879 -0.0277172 -0.0270435 -0.0262585 -0.0254974 -0.0247428 -0.023988 -0.0232419 -0.022451 -0.0216526 -0.0208632 -0.0200901 -0.0193135 -0.0184987 -0.0176882 -0.0168774 -0.0160667 -0.0152905 -0.0146557 -0.0140123 -0.0133688 -0.012725 -0.0120678 -0.0118889 -0.0117036 -0.0115177 -0.0113317 -0.0111383 -0.0102753 -0.00942672 -0.00857781 -0.00772856 -0.00688943 -0.00600017 -0.00511624 -0.00424878 -0.003381 -0.00250948 -0.00159918 -0.000696096 0.000201405 0.00107502 0.00193741 0.00285224 0.00377501 0.00469811 0.00562152 0.00651901 0.00728823 0.00804877 0.00880952 0.00957048 0.0103284 0.0104983 0.0106656 0.0108306 0.0109956 0.0111534 0.0120991 0.0130497 0.0140006 0.0149518 0.0159104 0.0169074 0.0178769 0.0188346 0.0197926 0.0207396 0.0217356 0.0227446 0.0237381 0.0247157 0.0257022 0.0267282 0.0277475 0.028767 0.0297741 0.03075 0.0317626 0.0327884 0.0338144 0.0348408 0.0358666 0.0361599 0.0364467 0.0367335 0.0370201 0.0373013 0.0380734 0.0388353 0.0395973 0.0403594 0.0411091 0.0421825 0.0432375 0.0442927 0.0453482 0.0464078 0.0475294 0.0486361 0.0497151 0.0507943 0.0518611 0.0529598 0.0540658 0.0551663 0.0562382 0.0573136 0.0584494 0.0595792 0.0607093 0.0618339 0.0629201 0.0640394 0.0651659 0.0662927 0.0674197 0.0685439 0.068763 0.0689788 0.0691947 0.0694092 0.0696234 0.0705671 0.0715052 0.0724434 0.0733818 0.0743121 0.075489 0.0766426 0.0777964 0.0789504 0.0801067 0.0813169 0.0825112 0.0836785 0.0848461 0.0860046 0.0872064 0.0884124 0.0896057 0.0907751 0.0919458 0.093169 0.0943863 0.0956038 0.0968051 0.0979769 0.0991925 0.100411 0.10163 0.102849 0.104049 0.104804 0.105553 0.106301 0.10705 0.107794 0.108274 0.108756 0.109237 0.109718 0.1102 0.111447 0.11269 0.113932 0.115175 0.116427 0.117716 0.118975 0.120225 0.121475 0.122727 0.12401 0.125302 0.126557 0.127809 0.129073 0.130367 0.131664 0.132958 0.134213 0.135475 0.136767 0.138069 0.139371 0.140663 0.141941 0.143244 0.144549 0.145853 0.147157 0.148458 0.149005 0.149563 0.150121 0.150678 0.151241 0.151999 0.152758 0.153518 0.154277 0.155042 0.156395 0.15772 0.159043 0.160366 0.161701 0.163081 0.164434 0.16577 0.167104 0.168466 0.169861 0.171249 0.172603 0.173944 0.175312 0.176715 0.178119 0.179521 0.180888 0.182291 0.183687 0.185075 0.18646 0.187843 0.189239 0.190283 0.19133 0.192376 0.19342 0.194409 0.194758 0.195115 0.195473 0.195831 0.196203 0.197567 0.198911 0.200253 0.201592 0.203004 0.204305 0.205589 0.206852 0.208112 0.209465 0.210673 0.211872 0.213059 0.214217 0.215459 0.21663 0.217811 0.218989 0.220164 0.221421 0.222272 0.223136 0.223998 0.224858 0.225697 0.2264 0.227113 0.227824 0.228535 0.229286 0.231615 0.233908 0.236188 0.238456 0.240973 0.243671 0.246345 0.248973 0.251544 0.254368 0.255959 0.2575 0.259036 0.260564 0.262263 0.262358 0.262464 0.26257 0.262677 0.262791 0.264902 0.267041 0.269196 0.271366 0.274034 0.274598 0.27518 0.275762 0.276344 0.276936 0.279552 0.282192 0.284837 0.287486 0.290697 0.291381 0.29208 0.29278 0.293479 0.294188 0.297915 0.301655 0.305392 0.309125 0.31361 0.313739 0.313867 0.313995 0.314122 0.314248 0.318564 0.32286 0.327149 0.331433 0.335594 0.336861 0.338125 0.339388 0.340651 0.341972 0.345026 0.348076 0.351125 0.354173 0.357176 0.360603 0.364025 0.367447 0.370867 0.374708 0.375646 0.376583 0.37752 0.378457 0.379391 0.383943 0.388487 0.39301 0.397534 0.401994 0.404312 0.406629 0.408946 0.411263 0.413761 0.416109 0.418461 0.420813 0.423165 0.425507 0.430407 0.43531 0.440206 0.445077 0.449899 0.452367 0.454836 0.457306 0.459776 0.46246 0.465008 0.467558 0.470108 0.472658 0.4752 0.480444 0.485691 0.490901 0.496113 0.501281 0.506121 0.510961 0.515801 0.520642 0.526437 0.526771 0.527106 0.52744 0.527775 0.52811 0.53352 0.538924 0.544328 0.549733 0.5551 0.560511 0.565918 0.571315 0.576698 0.582044 0.587298 0.592544 0.597789 0.603034 0.608237 0.609996 0.611743 0.613489 0.615235 0.617196 0.620303 0.623394 0.626485 0.629575 0.632641 0.636955 0.641281 0.645608 0.649934 0.654221 0.657709 0.661182 0.664734 0.668287 0.6718 0.674231 0.676625 0.679093 0.681648 0.684162 0.685361 0.68652 0.687686 0.689076 0.690427 0.690333 0.690199 0.690068 0.690156 0.690265 0.688985 0.687672 0.686363 0.685245 0.684168 0.682 0.679808 0.67762 0.675543 0.67347 0.670856 0.668233 0.665614 0.662927 0.660223 0.657851 0.655485 0.65308 0.650465 0.647852 0.647352 0.646899 0.646335 0.645624 0.644959 0.650433 0.656061 0.661767 0.667501 0.673389 0.692181 0.711346 0.731557 0.751769 0.772294 0.809807 0.848688 0.889332 0.929979 0.970881 1.01608 1.06469 1.11471 1.16474 1.21429 1.22813 1.24628 1.26444 1.28262 1.29882 1.25016 1.20288 1.15555 1.10817 1.05863 1.03935 1.02327 1.00716 0.991185 0.969131 0.95454 0.939978 0.926202 0.912602 0.901652 0.918087 0.933888 0.949601 0.965228 0.980478 0.987017 0.992913 0.998739 1.00449 1.0095