/*--------------------------------*- C++ -*----------------------------------*\
  =========                 |
  \\      /  F ield         | OpenFOAM: The Open Source CFD Toolbox
   \\    /   O peration     | Website:  https://openfoam.org
    \\  /    A nd           | Version:  6
     \\/     M anipulation  |
\*---------------------------------------------------------------------------*/
FoamFile
{
    version     2.0;
    format      ascii;
    class       volScalarField;
    location    "20";
    object      epsilon;
}
// * * * * * * * * * * * * * * * * * * * * * * * * * * * * * * * * * * * * * //

dimensions      [0 2 -3 0 0 0 0];

internalField   nonuniform List<scalar> 
10000
(
261.149
353.208
223.12
139.954
89.979
62.2076
46.8477
38.5193
34.1854
32.411
32.6278
34.8117
39.5038
48.1116
63.5016
90.8291
138.741
220.473
349.51
262.275
260.103
352.232
222.204
139.973
89.7768
62.1181
46.5473
38.3187
34.0528
32.3418
32.5841
34.76
39.3992
47.6705
62.8415
89.8956
137.2
218.866
349.25
261.843
261.593
353.775
224.134
140.175
88.8887
61.9886
46.8438
38.4916
34.1317
32.298
32.5537
34.726
39.2871
47.9048
63.4527
90.8651
137.852
219.943
349.34
261.735
262.065
353.198
223.93
140.137
89.8345
62.0265
46.8206
38.472
34.1228
32.283
32.449
34.6336
39.4972
48.1369
62.9964
90.8156
138.097
221.011
349.094
262.271
263.019
354.414
222.383
139.726
88.8615
61.3169
46.6916
38.4117
34.0907
32.2919
32.4538
34.673
39.4675
48.1536
63.6512
90.2137
138.895
219.933
350.008
261.645
262.561
354.175
223.69
139.547
88.9847
61.7285
46.6939
38.3699
34.0073
32.2083
32.4476
34.6177
39.4083
47.7782
63.6333
91.0221
137.96
221.259
349.876
261.446
262.292
352.934
222.016
139.211
88.9942
62.1868
46.6683
38.2197
34.0918
32.2961
32.5125
34.6831
39.3944
48.0196
63.5676
91.0263
139.132
220.053
349.349
260.618
261.786
353.863
223.443
138.029
89.3461
62.3238
46.4095
38.3405
34.1289
32.3218
32.5039
34.6509
39.3215
47.6274
63.386
90.8286
138.83
221.06
349.124
260.276
261.49
352.785
222.224
138.37
90.2966
62.5065
46.8681
38.5631
34.1613
32.2628
32.4
34.4876
39.2737
47.8983
63.2484
90.5974
137.412
220.759
348.778
259.905
260.634
353.224
222.686
138.566
90.4484
62.5802
47.101
38.6153
34.1916
32.3393
32.4763
34.5111
39.195
47.4945
62.7718
90.4131
139.08
220.531
348.456
260.198
261.097
353.762
222.941
139.146
90.4437
62.5585
47.0892
38.5983
34.1869
32.3273
32.4902
34.5131
39.0346
47.5163
62.4987
89.4126
138.872
219.158
347.457
261.013
260.903
353.482
223.744
140.42
90.3774
62.5195
47.0679
38.577
34.1685
32.2472
32.4993
34.6164
39.1493
47.6453
62.8138
90.5126
138.865
220.907
347.897
261.328
260.56
352.257
223.257
140.351
90.6102
62.4062
46.995
38.523
34.1674
32.3092
32.5187
34.649
39.3181
47.9314
63.148
90.2517
137.498
219.784
347.772
261.656
260.358
352.906
221.778
140.065
90.4128
61.8481
46.6977
38.2996
34.0845
32.3815
32.5214
34.636
39.3095
47.9283
63.0448
89.9926
138.757
221.539
348.089
261.832
259.682
352.833
222.311
139.902
90.2184
62.4902
47.1609
38.6051
34.2801
32.4184
32.5276
34.6102
39.2713
47.9168
62.8896
88.7197
138.042
221.482
348.926
261.709
260.262
352.545
222.689
139.533
89.9945
62.4446
47.1764
38.7835
34.3251
32.4162
32.5229
34.5057
39.0745
47.9219
62.6523
89.918
136.423
221.239
347.903
261.748
260.803
351.974
220.907
138.963
88.8943
61.8601
47.0548
38.7593
34.3152
32.3654
32.5451
34.684
39.395
48.0179
63.7025
91.2126
137.699
221.32
349.367
261.773
260.84
352.88
222.28
137.918
89.1782
62.3936
46.9019
38.6112
34.2988
32.4595
32.5339
34.6583
39.371
47.6876
63.6728
91.2076
138.278
220.435
349.293
261.356
262.534
353.597
223.216
138.426
89.4161
62.4145
47.3011
38.8585
34.2782
32.4676
32.4272
34.531
39.3929
48.0923
63.6751
91.1535
139.433
221.491
349.465
262.431
262.764
352.519
221.693
138.719
89.9537
62.2685
47.2802
38.8884
34.4338
32.5165
32.5287
34.6566
39.1853
47.6874
63.4374
90.8867
138.059
219.985
349.518
262.693
262.341
352.998
222.028
136.987
89.022
61.4411
47.1757
38.8355
34.3956
32.5216
32.5634
34.7327
39.2996
47.7974
62.8917
90.1458
138.863
220.822
349.533
262.599
262.322
351.913
221.456
138.725
90.6041
62.1802
47.213
38.6793
34.4102
32.5314
32.6422
34.7303
39.4189
48.0021
63.3627
90.9291
139.739
221.675
349.25
262.571
262.158
352.689
221.726
140.072
90.7035
62.6258
47.0724
38.8302
34.4162
32.464
32.5613
34.6219
39.3713
47.8896
63.1678
90.6419
139.516
221.496
348.366
262.571
262.056
352.278
221.42
139.96
90.5871
62.8028
47.4376
38.779
34.3625
32.5554
32.6518
34.7017
39.3412
47.7306
62.8627
90.1719
139.108
220.406
349.572
262.672
261.98
351.912
221.8
139.806
89.6186
62.2197
47.3896
38.9911
34.4746
32.5738
32.6396
34.5741
39.2978
47.2574
61.9736
88.7512
138.807
221.864
348.702
262.472
261.845
352.023
222.706
139.544
90.3813
62.7165
47.3395
38.9392
34.3614
32.5464
32.6378
34.6731
39.3564
47.667
62.7438
89.7564
137.594
221.904
349.259
262.071
262.893
352.854
221.124
139.045
90.0861
62.5194
47.2889
38.8938
34.373
32.5246
32.6192
34.7006
39.3482
47.8679
63.1215
90.4245
138.98
221.921
349.291
262.779
262.682
352.749
222.254
137.515
88.8649
61.7374
46.8663
38.8328
34.4066
32.4941
32.5043
34.5271
39.1087
47.4294
62.3534
89.1669
137.295
221.811
349.905
263.226
262.316
352.356
220.864
137.772
89.1401
61.9121
46.9955
38.8114
34.3829
32.4785
32.5381
34.5673
39.241
47.6064
62.7011
89.7803
138.064
221.659
348.989
262.91
262.901
351.246
220.976
138.564
89.3015
61.9703
47.2072
38.7961
34.3482
32.3922
32.45
34.5257
39.2202
47.764
63.0194
90.3558
138.957
221.692
349.415
262.72
262.687
351.216
220.672
137.288
89.7655
62.2967
47.2063
38.6661
34.2572
32.4448
32.5286
34.5718
39.1395
47.6072
62.7935
90.0198
138.586
221.522
350.231
262.65
262.534
351.129
220.847
138.449
89.6094
61.6692
47.1225
38.7722
34.3346
32.4386
32.5066
34.5352
39.0588
47.3805
62.0028
88.6903
136.766
221.144
350.203
262.145
261.621
351.422
221.247
136.972
88.5887
62.0601
47.0817
38.588
34.2031
32.3328
32.4581
34.4777
38.9179
47.083
62.0707
88.9383
137.173
220.92
349.968
262.254
262.008
350.353
219.752
137.183
88.759
61.575
47.0058
38.6782
34.2337
32.348
32.4397
34.4469
38.8487
47.3343
61.9618
88.833
137.117
220.603
349.688
261.292
262.003
351.297
220.966
137.273
88.7623
61.5884
46.9447
38.6682
34.2618
32.3548
32.3568
34.4108
38.8085
47.2724
61.9423
89.4726
137.883
220.254
348.682
260.994
261.765
350.111
219.277
137.558
89.1003
61.5371
46.876
38.4871
34.1456
32.2847
32.39
34.4008
38.7639
47.1568
61.7583
89.1669
137.565
219.921
349.344
260.236
261.656
350.276
219.389
137.146
88.7679
61.4426
46.6251
38.566
34.2215
32.3387
32.3531
34.3799
38.7489
47.0736
61.5816
88.1463
137.073
219.292
348.012
259.499
261.306
349.984
218.912
135.619
87.6465
61.5592
46.7493
38.4157
34.0937
32.249
32.3251
34.3703
38.7898
46.8103
61.557
88.6174
136.729
218.902
348.753
258.789
261.151
350.384
219.258
135.556
87.6905
61.4371
46.6718
38.4033
34.0833
32.2475
32.3539
34.3398
38.7363
46.9341
61.3112
88.242
136.244
217.458
347.546
258.17
260.887
350.059
217.5
134.88
87.2538
60.8664
46.5276
38.4177
34.0471
32.2224
32.2753
34.2918
38.7162
46.8624
61.212
87.2443
135.93
218.377
347.887
258.21
260.562
349.733
218.186
134.446
87.2698
61.0193
46.464
38.2865
34.0953
32.2409
32.273
34.1604
38.482
46.5699
61.3525
87.6976
135.478
217.971
348.135
257.982
259.605
349.142
216.478
133.709
86.7823
60.3899
46.3157
38.374
34.0862
32.2204
32.2185
34.1404
38.4533
46.4678
61.1084
87.2256
134.939
217.41
348.651
257.985
258.61
347.837
216.597
133.084
85.6431
60.5338
46.0743
38.2983
34.0374
32.1889
32.185
34.0785
38.3615
46.3347
60.7955
86.4596
133.356
216.735
348.234
258.048
257.981
348.145
215.974
132.54
85.5495
60.1419
46.178
38.2626
33.9892
32.1614
32.1534
34.0321
38.2915
46.2284
60.547
85.5965
133.607
216.119
346.859
257.968
257.727
347.715
215.2
132.182
85.1578
60.156
46.0717
38.1871
33.9779
32.1349
32.1388
34.0017
38.2272
46.2028
60.3339
85.4619
133.055
215.499
346.897
257.021
257.588
347.201
213.243
131.034
85.032
59.6755
45.9415
37.9985
33.9018
32.1084
32.1105
33.95
38.1108
46.0428
60.1288
85.2005
131.589
213.66
346.497
257.044
257.016
346.745
212.724
131.339
85.2668
59.8867
45.8788
38.0299
33.9152
32.0917
32.0753
33.8913
38.0588
45.8588
59.8601
85.3491
131.726
213.746
346.266
256.338
256.875
346.037
211.299
130.553
84.7836
59.61
45.7345
37.9528
33.8442
32.0697
32.0019
33.828
37.9413
45.4709
59.5172
84.8439
131.031
212.966
346.438
256.026
256.202
344.372
210.406
128.789
83.5993
58.9208
45.5675
38.0148
33.903
32.0654
32.0128
33.706
37.7536
45.284
58.8071
83.6335
129.319
211.961
345.865
255.549
255.348
344.219
209.444
128.524
83.5152
58.8072
45.4479
37.9495
33.8721
32.0403
31.9557
33.6691
37.7043
45.2165
58.7699
83.5041
129.176
211.057
344.491
255.062
254.602
343.239
208.456
127.642
82.426
58.4496
45.1541
37.7663
33.8185
31.9829
31.9225
33.5906
37.5385
45.0309
58.4658
82.9136
127.426
209.011
344.65
254.81
254.022
342.43
207.223
126.506
82.1998
58.3325
45.1596
37.7529
33.8024
31.9837
31.92
33.5641
37.4373
44.6206
57.7596
81.7931
126.705
208.183
344.128
254.768
253.321
341.518
206.029
125.161
81.1328
57.6966
44.8541
37.7119
33.7359
31.9873
31.926
33.5332
37.3486
44.4837
57.3502
81.0785
125.528
206.681
342.624
254.154
253.012
340.653
204.748
124.088
80.614
57.4419
44.7408
37.6573
33.7552
31.9411
31.8784
33.5407
37.3055
44.3062
57.0006
80.2696
124.427
205.206
342.444
253.911
252.423
339.772
203.372
122.975
79.9312
57.0934
44.5809
37.576
33.7367
31.9782
31.9052
33.4733
37.2021
44.1122
56.6274
79.6449
123.078
203.877
341.602
253.585
252.007
339.231
202.225
122.089
79.3415
56.6728
44.3328
37.4862
33.6432
31.9054
31.8794
33.472
37.095
43.9162
56.2925
79.0464
122.17
202.542
339.67
252.691
251.277
337.435
201.096
120.995
78.5801
56.2474
44.1396
37.3928
33.6296
31.8962
31.8514
33.4239
37.0012
43.726
55.8886
78.338
120.936
201.255
339.052
252.328
250.705
336.871
200.019
119.986
77.951
55.9381
43.9728
37.2564
33.572
31.8401
31.7514
33.2953
36.8502
43.4925
55.4861
77.6311
119.749
199.847
337.923
251.744
250.157
335.453
197.968
118.746
77.2936
55.559
43.7566
37.1394
33.459
31.769
31.6702
33.1958
36.7289
43.2838
55.1058
76.9605
118.598
198.475
337.12
251.082
249.431
334.527
196.46
117.597
76.5499
55.1589
43.5483
36.9726
33.3424
31.6976
31.6096
33.1154
36.5859
43.0397
54.6609
76.1334
117.303
196.707
335.55
250.298
248.806
332.841
194.743
116.303
75.7802
54.7133
43.2843
36.8263
33.2403
31.6017
31.5275
33.0235
36.4634
42.8254
54.2578
75.4052
116.119
194.865
333.85
249.758
248.18
331.681
192.776
114.857
74.9229
54.2358
42.9949
36.6486
33.1323
31.5196
31.4467
32.931
36.3145
42.5686
53.8038
74.6251
114.804
193.233
332.609
248.781
247.299
330.042
190.913
113.433
74.1142
53.7978
42.7467
36.4939
33.0072
31.4046
31.3455
32.817
36.1671
42.327
53.3532
73.7926
113.441
191.277
331.028
248.086
246.57
328.594
189.184
112.135
73.2931
53.2999
42.4484
36.2974
32.8685
31.29
31.2305
32.6815
35.9937
42.0675
52.92
73.0039
112.035
189.428
329.434
246.974
245.495
327.311
187.143
110.579
72.3911
52.7896
42.1334
36.0906
32.715
31.1578
31.0995
32.5385
35.8091
41.7768
52.4148
72.1267
110.526
187.309
327.823
245.979
244.347
325.87
185.305
109.221
71.5572
52.293
41.8291
35.8823
32.5505
31.0121
30.956
32.3843
35.6176
41.4997
51.9501
71.2683
108.983
185.171
326.028
244.386
243.325
324.43
183.027
107.474
70.5173
51.6981
41.4684
35.64
32.367
30.8595
30.8086
32.2165
35.4008
41.1797
51.4218
70.3261
107.37
182.937
324.147
243.322
242.046
322.713
180.791
105.843
69.5104
51.1184
41.1099
35.3956
32.1841
30.697
30.645
32.0334
35.1654
40.836
50.8622
69.3386
105.648
180.47
322.006
241.829
240.339
320.666
178.257
103.985
68.4137
50.4769
40.714
35.1191
31.9655
30.5073
30.4605
31.8302
34.9111
40.476
50.2815
68.2971
103.88
178.005
320.002
240.537
238.489
318.466
175.593
102.126
67.3428
49.8414
40.2952
34.8192
31.7311
30.3038
30.2635
31.615
34.6438
40.0904
49.6378
67.1574
101.947
175.205
317.435
238.495
236.088
315.832
172.403
100.025
66.1374
49.148
39.8357
34.4814
31.4646
30.0714
30.0362
31.3623
34.3228
39.6395
48.9369
65.9451
99.8846
172.199
314.756
236.794
233.527
312.791
168.835
97.7307
64.8521
48.3658
39.3206
34.1071
31.1618
29.8019
29.7714
31.0746
33.9738
39.1528
48.1735
64.6702
97.6699
168.801
311.565
234.442
230.346
308.818
164.809
95.1878
63.4363
47.5319
38.7598
33.682
30.8108
29.4866
29.4606
30.7362
33.5654
38.6033
47.3502
63.2987
95.1996
164.755
307.549
231.285
226.478
303.9
160.307
92.454
61.8722
46.5603
38.1055
33.1885
30.3977
29.1109
29.0884
30.3353
33.0966
37.9899
46.4299
61.7582
92.4304
160.168
302.624
227.386
221.957
297.814
155.216
89.4145
60.1818
45.5339
37.3919
32.6361
29.9244
28.6734
28.6533
29.8653
32.5426
37.2711
45.3911
60.0559
89.3732
155.004
296.421
222.58
216.578
290.472
149.596
86.2007
58.3281
44.3714
36.5732
31.9985
29.3805
28.167
28.1479
29.3251
31.9196
36.4812
44.264
58.2264
86.0689
149.232
288.824
216.533
210.694
281.791
143.428
82.7606
56.384
43.1538
35.7062
31.2903
28.7561
27.5861
27.5714
28.7152
31.2223
35.6048
43.0212
56.2377
82.5355
142.816
279.866
210.088
203.742
271.562
136.758
79.1583
54.3287
41.8065
34.7192
30.4927
28.0528
26.9215
26.9083
28.0131
30.4334
34.6503
41.7251
54.1847
78.8396
135.922
269.323
202.249
196.794
260.147
129.822
75.4866
52.2276
40.432
33.6772
29.6144
27.2644
26.1789
26.1728
27.245
29.5813
33.6298
40.3638
52.0831
75.0857
128.823
257.735
194.965
190.049
247.629
122.738
71.7963
50.0852
38.9705
32.5363
28.6512
26.4008
25.3582
25.3558
26.3955
28.6509
32.5421
38.9667
50.0122
71.4521
121.745
245.258
187.821
183.809
234.308
115.681
68.2254
47.953
37.4596
31.3383
27.6205
25.4624
24.4682
24.4756
25.4864
27.6668
31.4102
37.5342
47.9575
67.9973
114.855
232.358
181.861
178.584
220.645
108.858
64.8363
45.8836
35.946
30.0993
26.5392
24.4708
23.5199
23.5332
24.5139
26.6215
30.2305
36.1123
46.0297
64.8167
108.44
219.685
177.965
176.065
207.197
102.358
61.645
43.9015
34.4518
28.8503
25.4349
23.455
22.5484
22.565
23.511
25.543
29.0319
34.7143
44.2155
61.9005
102.429
207.095
176.642
175.625
194.616
96.541
58.7642
42.0279
32.9971
27.6197
24.3414
22.4437
21.5768
21.595
22.5048
24.459
27.817
33.2918
42.4257
59.2203
97.0038
195.277
176.338
176.311
183.612
91.5685
56.2249
40.3012
31.6244
26.4473
23.2941
21.4743
20.6443
20.6614
21.532
23.4069
26.6387
31.9264
40.7322
56.7332
92.0591
184.332
177.117
180.408
173.929
87.0235
53.9766
38.763
30.3798
25.3717
22.3298
20.5772
19.7785
19.7921
20.6228
22.4168
25.5202
30.6153
39.1121
54.4408
87.561
174.674
181.327
186.336
165.602
83.1104
52.058
37.3976
29.2559
24.3976
21.4551
19.7646
18.9947
19.0048
19.7975
21.5174
24.5035
29.4301
37.6682
52.4296
83.5196
166.062
186.311
193.009
157.999
79.9755
50.4925
36.2218
28.2619
23.5287
20.6753
19.0433
18.3
18.306
19.062
20.7113
23.5854
28.3505
36.36
50.7044
80.2714
158.401
193.383
202.351
151.569
77.6959
49.1583
35.1418
27.3392
22.7334
19.9749
18.4027
17.6876
17.6913
18.4138
19.9956
22.7659
27.3923
35.2253
49.2828
77.8474
151.713
202.607
213.927
146.424
75.9794
48.017
34.1538
26.4808
21.9944
19.3331
17.8264
17.143
17.1448
17.8315
19.3431
22.0096
26.501
34.1744
48.0297
75.981
146.334
213.596
227.973
142.586
74.5729
46.8656
33.1214
25.6033
21.2653
18.7218
17.2953
16.6517
16.6524
17.2973
18.7268
21.2759
25.6261
33.1665
46.9448
74.7108
142.788
228.329
245.678
140.257
73.4884
45.6864
32.0189
24.6782
20.52
18.1213
16.793
16.1986
16.1985
16.7924
18.1202
20.5187
24.677
32.0203
45.6931
73.5114
140.384
245.126
265.895
139.115
72.2458
44.1905
30.6981
23.6338
19.7242
17.5143
16.311
15.7787
15.7785
16.3105
17.5135
19.7238
23.6352
30.7075
44.2201
72.3094
139.147
266.27
289.314
138.685
70.6588
42.3204
29.1386
22.4637
18.8785
16.9056
15.8558
15.3987
15.3984
15.8549
16.9039
18.8763
22.461
29.1367
42.322
70.6656
138.701
289.228
315.543
138.595
68.3089
39.8705
27.2655
21.1498
17.9875
16.3084
15.4431
15.0753
15.0752
15.4428
16.3078
17.9869
21.1499
27.269
39.8843
68.3428
138.625
315.374
343.216
138.072
64.8061
36.7544
25.0889
19.7261
17.0878
15.7551
15.0991
14.8312
14.8311
15.0988
15.7546
17.0872
19.7259
25.0913
36.768
64.8575
138.198
343.489
373.13
135.768
59.5355
32.8039
22.6062
18.2335
16.2242
15.2842
14.8665
14.7151
14.7151
14.8666
15.2844
16.2241
18.2328
22.6045
32.8016
59.5311
135.729
372.785
402.289
127.948
51.2232
27.8454
19.8801
16.7555
15.4642
14.9471
14.7506
14.6762
14.6763
14.7509
14.9475
15.4642
16.7561
19.8824
27.8555
51.258
128.076
402.576
432.613
107.409
38.6482
22.0052
17.1387
15.5598
15.0142
14.821
14.7332
14.7017
14.7017
14.7331
14.8203
15.0129
15.56
17.1388
22.001
38.6354
107.366
432.512
466.471
57.4052
21.6521
16.1832
15.1284
14.8886
14.8334
14.8025
14.796
14.7961
14.7961
14.796
14.8023
14.8327
14.8867
15.1259
16.1837
21.656
57.4198
466.508
720.66
1059.13
664.833
386.425
221.415
132.745
87.328
64.0054
52.1522
47.1079
46.9453
51.7004
63.3947
86.9389
132.532
222.419
386.408
656.736
1045.37
708.773
712.71
1048.58
652.659
376.895
215.64
129.668
86.714
63.6964
51.9017
46.8895
46.6914
51.1341
62.2534
85.3222
129.326
220.639
383.993
646.437
1035.34
701.453
719.531
1060.87
666.026
387.769
222.094
133.335
85.8662
62.9169
51.2537
46.3765
46.1984
51.5192
63.0978
87.2886
132.358
219.07
382.269
658.261
1041.33
701.803
717.104
1058.88
663.328
385.639
220.873
132.855
87.4151
64.0999
52.0484
47.083
46.7682
51.0842
63.6843
87.1705
131.922
213.329
371.984
655.999
1045.94
701.507
710.831
1055.85
659.993
382.374
215.196
129.706
85.9103
63.8746
51.8312
46.9763
46.628
51.6876
63.5645
86.8138
131.529
214.879
374.274
645.786
1036.93
697.235
718.388
1052.12
656.271
373.249
220.365
131.443
87.1361
63.8768
51.3771
46.8409
45.9694
50.9781
62.6018
86.4181
131.179
215.795
376.113
657.199
1047.67
701.916
717.394
1040.31
651.638
381.891
219.584
129.009
86.6954
63.665
51.7446
46.8272
46.5973
51.5779
63.6265
86.0391
130.555
218.813
381.383
655.519
1038.43
696.006
714.514
1042.21
638.435
373.41
214.019
129.299
86.2684
62.9393
52.2978
47.3822
47.0515
51.107
63.5315
84.4195
127.475
217.013
378.39
652.433
1044.43
701.591
709.593
1042.86
655.341
380.829
215.685
130.141
85.1271
63.588
52.1935
47.2411
46.9258
51.2835
63.7028
86.6462
131.414
211.892
368.422
640.854
1050.76
696.94
716.929
1048.9
668.781
386.847
215.429
127.174
86.0674
62.9442
51.9919
47.0907
46.4606
51.7491
63.4914
86.2191
131.176
213.375
376.074
657.075
1051.61
705.032
717.629
1058.04
667.397
384.425
217.286
129.452
85.1859
63.2156
51.4589
46.6531
46.7892
51.1174
63.1007
84.5217
130.716
212.785
382.361
654.672
1051.72
706.081
711.743
1049.54
664.44
373.826
210.502
130.542
86.0754
62.6063
51.7677
46.9142
46.397
51.26
62.5122
86.2494
128.697
212.997
380.455
644.584
1051.5
706.637
717.522
1065.6
661.513
376.567
215.21
128.635
84.7449
63.3513
51.3982
46.8194
46.582
51.5876
63.0094
86.0247
130.321
214.839
378.381
657.981
1049.61
706.195
720.545
1063.97
650.508
378.394
217.496
128.984
86.0718
63.2968
52.0143
46.4527
46.789
51.415
61.858
85.5605
129.061
207.439
369.136
655.527
1039.63
706.794
716.989
1062.36
660.798
371.427
211.782
127.825
85.6167
62.477
51.9506
46.9352
46.6995
50.8718
61.9611
85.0452
126.777
213.609
381.544
654.071
1047.2
704.826
718.648
1052.46
650.277
373.84
212.743
127.804
85.3415
63.2855
51.9598
46.7882
46.2178
50.9848
61.9967
84.7614
127.162
216.229
380.06
650.331
1037.13
702.586
715.789
1053.35
651.883
378.119
212.021
127.799
84.6741
63.0088
51.8152
46.4321
46.2839
51.1419
62.5004
83.577
125.969
210.341
377.914
640.461
1039.6
697.187
712.635
1049.88
647.857
369.244
212.641
129.072
83.1021
62.7302
51.7509
47.0062
46.4014
50.772
61.992
85.3079
126.726
211.526
371.615
651.431
1043.63
699.694
708.193
1049.51
650.029
369.651
210.701
128.662
83.8853
62.1414
51.5233
46.9289
46.683
51.1784
63.137
85.3167
128.252
211.763
377.979
642.287
1051.82
702.267
705.585
1051.02
656.553
368.211
205.679
128.112
84.8102
62.735
51.0183
46.4657
46.2041
51.5409
62.9779
84.7066
126.156
212.068
376.358
647.967
1052.79
699.285
705.246
1056.78
654.767
370.721
208.888
127.922
83.5818
62.0909
51.5641
46.898
46.7934
51.4812
62.7438
83.4002
128.634
215.43
368.165
653.084
1051.37
706.507
702.529
1054.5
643.623
376.048
212.14
127.491
84.9191
62.809
51.0617
46.3787
46.2556
51.2088
62.584
84.5281
127.409
214.887
374.093
650.664
1049.3
705.752
697.667
1053.68
652.443
375.163
210.466
126.57
83.6425
62.07
51.0403
46.7416
46.7147
50.6446
62.3253
84.2961
123.697
213.133
365.307
639.542
1039.11
704.503
700.695
1051.99
649.593
372.722
204.931
125.331
84.3466
62.4428
51.0428
46.6472
46.7256
51.1708
61.5178
83.1946
125.858
212.16
373.742
647.44
1042.71
699.193
704.184
1049.92
644.808
370.991
209.298
123.044
83.9241
62.0593
51.232
46.1314
46.5733
50.6988
61.5691
83.4151
126.581
206.285
365.03
653.709
1041.01
701.302
699.687
1047.13
636.767
368.282
204.8
124.93
83.0262
62.4592
50.8563
46.1937
46.5402
51.1012
61.3681
82.8388
124.332
207.521
371.076
652.725
1043.1
700.861
707.809
1040.78
638.573
361.337
210.379
126.456
83.1886
62.4182
51.3641
46.2246
46.3645
51.0179
61.5188
82.9796
125.096
207.231
362.906
650.498
1047.78
696.39
706.403
1053.2
646.322
368.404
209.547
124.24
82.6587
61.7737
50.9148
46.3541
45.8133
50.6109
61.8717
83.2715
126.031
209.396
369.405
648.363
1038.72
700.393
704.503
1051.37
634.655
360.115
208.186
125.697
82.9178
62.3465
51.4414
46.1357
45.9472
50.6626
61.229
82.6863
123.257
204.233
360.589
644.994
1046.64
694.771
702.25
1050.07
642.321
364.704
206.815
124.985
83.345
62.2311
51.4417
46.7295
46.0886
50.6062
62.3377
83.8751
125.534
208.348
362.576
642.059
1037.67
697.922
695.806
1047.13
638.915
361.969
204.854
122.292
82.7299
61.3773
51.2396
46.6776
46.4263
50.791
62.1999
83.5292
122.799
204.002
361.801
631.17
1045.13
694.91
699.975
1044.12
634.271
358.489
199.608
121.988
81.5273
61.6679
51.1534
46.5285
46.0673
51.1402
62.0324
83.2356
124.354
206.686
365.974
637.379
1053.62
701.695
692.3
1032.53
629.21
355.076
199.805
121.706
82.011
61.1288
50.9157
46.1195
46.3891
51.0158
61.7079
82.691
121.552
204.618
363.679
644.006
1053.17
697.133
692
1038.88
617.703
346.699
198.682
121.934
82.246
61.5229
50.5477
46.2966
45.8943
50.3363
60.7438
81.479
122.928
198.937
353.824
640.683
1051.52
704.213
688.536
1035.94
623.857
351.173
200.107
120.023
80.9529
60.7389
50.7512
46.2178
45.9362
50.4206
60.7709
81.4687
121.138
200.019
356.469
636.351
1048.92
703.437
691.792
1024.28
620.28
348.58
198.708
121.082
81.6484
60.7492
50.2645
45.7061
45.9059
50.4235
60.5012
81.5192
121.984
200.607
352.32
632.017
1038.72
701.983
689.705
1028.26
616.632
345.473
196.784
118.664
80.3562
60.3431
50.3546
45.8345
45.4282
50.2344
60.5727
80.9167
121.112
198.875
342.121
621.835
1048.09
701.335
685.061
1031.74
606.308
337.304
195.019
118.761
80.3951
60.1007
50.1667
45.6811
45.5914
49.6789
60.1774
79.2618
120.109
197.167
343.549
630.829
1056.9
699.649
684.227
1021.88
615.348
342.443
191.527
118.581
80.3227
60.0884
49.6031
45.0837
45.0496
49.5875
59.5203
79.2711
119.192
195.282
340.536
620.04
1056.13
692.774
683.162
1029.73
612.113
339.383
190.391
117.829
79.791
59.6278
49.5667
45.3383
45.05
49.1991
59.3841
78.8548
116.924
191.521
341.541
627.297
1054.6
695.889
682.957
1018.05
608.433
336.13
188.964
115.763
79.0623
59.6472
49.3344
45.166
45.0779
49.3173
59.0756
78.9012
117.117
191.096
343.765
617.464
1051.5
693.362
681.975
1019.6
604.343
332.439
186.269
115.272
78.0088
59.263
48.9978
44.5804
44.8132
49.0538
58.6953
78.2411
116.196
190.443
340.693
620.453
1043.25
690.242
679.619
1020.01
600.286
328.749
185.534
114.223
77.5373
58.5304
48.6458
44.3231
44.2188
48.3914
58.165
77.0031
113.68
188.148
331.59
616.085
1050.11
687.753
679.896
1025.4
595.932
324.469
183.101
113.012
76.9206
58.008
48.2938
43.9578
44.0081
48.1541
57.7375
76.5846
112.709
184.098
330.366
604.47
1047.26
685.876
678.49
1021.98
590.675
315.231
180.853
111.689
76.3544
57.6647
47.964
43.6766
43.6616
47.7655
57.1926
75.7441
111.53
183.609
327.754
602.872
1037.13
678.96
672.105
1016.77
578.884
313.39
179.058
110.751
75.8548
57.2716
47.5189
43.3165
43.2546
47.3574
56.7851
75.1594
110.512
181.519
323.558
590.517
1038.45
677.25
669.685
1012
574.052
310.186
177.322
109.821
75.3467
56.9003
47.1468
43.0357
42.8944
46.9078
56.3326
74.3336
108.797
176.917
315.525
588.106
1039.31
674.259
666.005
1005.28
567.966
307.974
175.709
109.171
74.8798
56.5162
46.7941
42.7278
42.5903
46.5806
55.8748
73.7663
107.883
174.413
311.938
582.975
1044.12
668.319
663.434
990.667
563.091
305.222
174.043
108.29
74.396
56.1315
46.4197
42.2351
42.1612
46.1556
55.4201
73.1364
106.518
172.057
306.905
580.075
1041.76
666.809
659.856
989.558
557.791
301.133
171.798
107.358
73.7946
55.6567
46.0286
41.8889
41.7635
45.6796
54.8618
72.4809
105.531
170.303
303.827
580.745
1038.44
662.587
657.186
986.217
552.532
296.868
169.442
106.106
73.0787
55.1076
45.6154
41.4358
41.2934
45.2098
54.3914
71.8364
104.369
168.117
298.447
567.697
1033.9
659.773
655.113
987.274
547.319
292.939
167.175
105.322
72.6044
54.7479
45.2517
41.0781
40.9102
44.797
53.8739
71.1159
103.138
165.436
294.485
563.25
1022.57
655.877
653.693
993.916
542.693
289.105
165.471
104.225
71.9542
54.257
44.8282
40.6411
40.4497
44.2733
53.3043
70.4036
101.973
163.033
289.626
555.767
1021.29
653.007
652.213
991.365
537.276
285.484
163.474
103.287
71.4055
53.8368
44.406
40.1889
39.966
43.7642
52.7194
69.6644
100.871
160.972
285.532
550.129
1016.01
649.356
651.11
986.7
531.216
282.159
161.746
102.374
70.7882
53.3165
43.9183
39.6859
39.4611
43.2347
52.1283
68.933
99.6754
158.221
279.423
540.634
1009.01
643.82
648.885
980.691
526.427
278.303
159.813
101.272
70.1017
52.8058
43.4595
39.2318
38.9911
42.7271
51.5541
68.2367
98.6388
156.067
274.097
528.576
999.605
637.86
646.524
974.093
519.746
274.533
157.961
100.286
69.397
52.2617
42.9946
38.8081
38.5518
42.2393
50.9715
67.4674
97.4189
153.939
270.198
522.099
990.105
630.436
644.505
964.547
512.932
270.623
156.282
99.3025
68.6964
51.6866
42.4973
38.3537
38.1104
41.7557
50.4094
66.7322
96.2856
151.614
265.002
512.715
980.6
624.48
641.072
954.785
506.407
266.645
154.292
98.1807
67.9252
51.0843
41.9989
37.9009
37.6471
41.2457
49.808
65.9954
95.2493
149.803
260.892
503.665
969.803
616.847
638.069
950.547
499.313
263.211
152.572
97.1899
67.2154
50.5037
41.5082
37.4637
37.2183
40.7659
49.2159
65.1739
93.9769
147.448
256.154
495.789
962.18
610.282
632.629
938.567
490.662
258.765
150.449
95.9819
66.398
49.8905
40.9875
36.9819
36.732
40.227
48.5607
64.3337
92.8009
145.489
251.794
486.498
954.615
604.591
626.009
926.733
482.975
254.66
148.42
94.8233
65.6074
49.2861
40.4806
36.5178
36.2626
39.6984
47.8886
63.4088
91.4279
143.078
247.21
478.57
947.084
597.944
621.314
917.025
473.99
250.083
146.162
93.5215
64.7154
48.5927
39.8988
35.9928
35.7483
39.1377
47.1981
62.4344
89.9438
140.62
242.496
470.695
934.095
593.319
614.843
905.226
465.99
245.794
143.829
92.0974
63.7455
47.8679
39.3114
35.4754
35.2465
38.5883
46.5099
61.4738
88.4604
138.06
237.608
461.868
926.612
588.042
611.305
896.998
457.006
240.799
141.239
90.5356
62.6676
47.0736
38.6858
34.938
34.7338
38.0283
45.8113
60.4884
86.914
135.431
232.737
453.44
916.695
583.664
605.074
888.645
449.689
235.955
138.424
88.7498
61.4445
46.2065
38.0291
34.3921
34.2213
37.4702
45.0973
59.4708
85.3832
132.89
227.829
444.794
907.51
579.357
601.079
879.531
439.758
230.128
135.243
86.7942
60.1311
45.284
37.3396
33.8226
33.6884
36.8955
44.3856
58.4888
83.9395
130.43
223.005
435.884
896.794
575.225
594.901
869.273
430.625
224.059
131.684
84.6431
58.7229
44.3058
36.6121
33.2264
33.1312
36.2954
43.6367
57.418
82.2923
127.825
218.17
426.621
886.714
569.417
591.201
859.786
420.232
217.885
128.013
82.3388
57.2196
43.2706
35.8414
32.5841
32.522
35.6253
42.7908
56.2546
80.5251
124.892
212.797
416.34
874.624
560.368
584.62
849.04
408.795
210.712
123.884
79.8104
55.6191
42.1937
35.0352
31.9039
31.8659
34.9028
41.8996
55.0438
78.7223
121.849
206.763
404.931
862.032
553.164
572.953
836.475
395.73
203.28
119.634
77.1772
53.9238
41.038
34.1653
31.1615
31.1402
34.0909
40.8852
53.6642
76.6763
118.363
200.2
392.621
846.754
541.834
557.218
818.715
380.276
194.746
114.855
74.3434
52.1583
39.829
33.2484
30.3791
30.3757
33.2403
39.8293
52.1953
74.4453
114.662
193.158
378.942
828.604
528.194
537.664
798.379
363.939
185.793
109.893
71.3046
50.2043
38.5075
32.2604
29.5374
29.5503
32.31
38.6413
50.5298
71.9598
110.635
185.616
363.807
806.325
511.153
515.93
772.909
345.139
175.817
104.386
68.0796
48.1951
37.1483
31.2336
28.6559
28.6774
31.318
37.3859
48.7611
69.2136
106.246
177.866
347.771
780.591
489.497
494.598
743.331
325.417
165.797
98.7049
64.6145
46.0068
35.6779
30.1383
27.7233
27.7603
30.2765
36.0436
46.8832
66.4152
101.709
169.48
330.197
750.552
468.683
468.493
709.013
304.529
155.43
92.8617
61.0703
43.7766
34.1642
29.0024
26.7567
26.8063
29.1871
34.6185
44.8408
63.3261
96.7413
160.667
312.133
717.538
448.737
445.76
671.917
283.686
144.85
86.8216
57.393
41.4334
32.5762
27.8159
25.7458
25.805
28.0352
33.1112
42.6553
59.9444
91.3647
151.411
292.784
680.229
427.809
420.649
630.913
262.66
134.148
80.6941
53.7208
39.0806
30.9518
26.5884
24.6955
24.7662
26.8392
31.5264
40.3204
56.2907
85.5357
141.637
272.715
639.584
408.82
398.821
586.373
241.613
123.271
74.3345
49.8791
36.6323
29.2704
25.3105
23.5942
23.6714
25.5748
29.8492
37.8415
52.3632
79.0896
130.794
251.25
593.769
387.386
373.026
536.306
219.744
112.586
68.2449
46.1216
34.1949
27.579
24.013
22.4725
22.5547
24.2894
28.1521
35.3371
48.3722
72.4074
119.448
229.251
544.127
364.992
348.546
483.756
197.634
101.826
62.1052
42.3865
31.7808
25.8905
22.7126
21.3417
21.4211
22.9755
26.419
32.7844
44.2773
65.5662
107.649
205.66
490.481
340.553
323.074
429.18
175.136
91.0469
56.0752
38.7669
29.443
24.2483
21.4481
20.2434
20.3208
21.7021
24.7441
30.3364
40.3646
58.934
95.8893
182.429
436.321
318.059
302.139
377.174
154.014
80.8842
50.4216
35.3439
27.2278
22.6984
20.2534
19.2001
19.2683
20.4788
23.1414
28.016
36.741
52.8867
84.9344
160.199
384.094
298.607
288.479
330.462
135.049
71.6743
45.3814
32.323
25.2594
21.3099
19.176
18.2556
18.3118
19.3629
21.6824
25.9151
33.4358
47.3433
75.0809
140.594
338.31
291.645
286.089
291.538
119.556
64.2027
41.1586
29.7135
23.5338
20.0861
18.2264
17.4225
17.4642
18.364
20.3598
24.0266
30.5547
42.5568
66.5846
123.609
297.424
290.88
291.283
260.807
106.95
58.1221
37.7078
27.572
22.1097
19.0713
17.4367
16.729
16.7582
17.5319
19.2593