/*--------------------------------*- C++ -*----------------------------------*\
  =========                 |
  \\      /  F ield         | OpenFOAM: The Open Source CFD Toolbox
   \\    /   O peration     | Website:  https://openfoam.org
    \\  /    A nd           | Version:  6
     \\/     M anipulation  |
\*---------------------------------------------------------------------------*/
FoamFile
{
    version     2.0;
    format      ascii;
    class       volScalarField;
    location    "20";
    object      k;
}
// * * * * * * * * * * * * * * * * * * * * * * * * * * * * * * * * * * * * * //

dimensions      [0 2 -2 0 0 0 0];

internalField   nonuniform List<scalar> 
130000
(
0.383485
0.38147
0.379086
0.376393
0.373425
0.370224
0.366847
0.363355
0.359816
0.356296
0.35286
0.349566
0.346461
0.343588
0.340974
0.33864
0.336596
0.334843
0.333378
0.332189
0.3838
0.381797
0.379419
0.376725
0.373748
0.370535
0.36714
0.36363
0.360071
0.356532
0.353078
0.349767
0.346648
0.343763
0.34114
0.3388
0.336752
0.334997
0.333531
0.332343
0.384099
0.382112
0.379741
0.377046
0.37406
0.370832
0.367419
0.363888
0.360308
0.356747
0.353273
0.349942
0.346806
0.343906
0.341269
0.338917
0.336858
0.335095
0.333624
0.332433
0.384359
0.382383
0.380015
0.377316
0.374321
0.371079
0.367649
0.364099
0.360498
0.356916
0.353418
0.350065
0.346908
0.343989
0.341335
0.338967
0.336897
0.335127
0.33365
0.332457
0.384558
0.382588
0.380219
0.377516
0.374511
0.371256
0.367808
0.364237
0.360612
0.357007
0.353485
0.350113
0.34694
0.344007
0.341342
0.338964
0.336888
0.335114
0.333634
0.332441
0.384702
0.38273
0.380357
0.377645
0.374626
0.371352
0.367881
0.364288
0.360645
0.357023
0.353486
0.350103
0.346921
0.343982
0.341314
0.338937
0.336861
0.335087
0.333609
0.332418
0.384803
0.382821
0.380436
0.377709
0.37467
0.371376
0.367886
0.364277
0.360621
0.356989
0.353448
0.35006
0.346875
0.343935
0.341267
0.338892
0.336819
0.335048
0.333574
0.332387
0.384874
0.382877
0.380474
0.377727
0.374667
0.371356
0.367854
0.364235
0.360568
0.356929
0.353383
0.349993
0.346807
0.343868
0.341203
0.338832
0.336764
0.334999
0.333531
0.33235
0.384933
0.382917
0.380492
0.377723
0.374646
0.371319
0.367802
0.36417
0.360494
0.356848
0.353298
0.349906
0.346722
0.343786
0.341126
0.338762
0.3367
0.334943
0.333482
0.332308
0.38499
0.382953
0.380506
0.377715
0.374617
0.37127
0.367738
0.364092
0.360406
0.356753
0.3532
0.349808
0.346626
0.343694
0.34104
0.338683
0.33663
0.334881
0.333429
0.332264
0.385051
0.382991
0.380521
0.377707
0.374586
0.371219
0.367668
0.364008
0.360311
0.356652
0.353095
0.349703
0.346524
0.343597
0.34095
0.338601
0.336557
0.334818
0.333375
0.332219
0.385117
0.383034
0.380541
0.377704
0.374559
0.371169
0.367599
0.363924
0.360216
0.356549
0.352989
0.349596
0.34642
0.343498
0.340859
0.338518
0.336483
0.334754
0.333321
0.332174
0.385191
0.383086
0.380568
0.377706
0.374538
0.371125
0.367535
0.363844
0.360123
0.356448
0.352884
0.349491
0.346317
0.343401
0.340768
0.338437
0.336411
0.334691
0.333268
0.332131
0.385277
0.383149
0.380605
0.377716
0.374527
0.37109
0.367479
0.36377
0.360037
0.356353
0.352784
0.34939
0.346218
0.343307
0.340681
0.338358
0.336341
0.334632
0.333218
0.332091
0.385377
0.383225
0.380655
0.377739
0.374525
0.371066
0.367433
0.363706
0.359958
0.356265
0.35269
0.349295
0.346124
0.343218
0.340599
0.338283
0.336276
0.334576
0.333172
0.332053
0.38549
0.383315
0.380718
0.377775
0.374532
0.371054
0.367399
0.363653
0.35989
0.356186
0.352605
0.349207
0.346038
0.343135
0.340522
0.338214
0.336215
0.334524
0.33313
0.33202
0.38562
0.383421
0.380797
0.377826
0.374556
0.371052
0.367378
0.363611
0.359832
0.356117
0.352529
0.349127
0.345958
0.343059
0.340451
0.338151
0.33616
0.334478
0.333092
0.331992
0.385765
0.383544
0.380894
0.377893
0.374593
0.371061
0.367369
0.363581
0.359786
0.356058
0.352462
0.349057
0.345887
0.34299
0.340387
0.338093
0.33611
0.334436
0.33306
0.331969
0.385931
0.383687
0.381009
0.377978
0.374648
0.371087
0.367369
0.363564
0.359752
0.35601
0.352405
0.348995
0.345824
0.342929
0.340331
0.338043
0.336067
0.334401
0.333032
0.331948
0.386114
0.383847
0.38114
0.378078
0.374717
0.371126
0.367379
0.363557
0.359728
0.355973
0.352358
0.348942
0.34577
0.342876
0.340281
0.337999
0.336029
0.33437
0.333007
0.331928
0.386314
0.384023
0.381289
0.378196
0.374803
0.371181
0.367406
0.363559
0.359718
0.355947
0.352322
0.3489
0.345725
0.342831
0.340239
0.337961
0.335998
0.334345
0.332988
0.331912
0.386531
0.384218
0.381456
0.378332
0.374906
0.371253
0.367449
0.363577
0.359716
0.355933
0.352297
0.348867
0.345688
0.342794
0.340205
0.337931
0.335973
0.334325
0.332972
0.3319
0.38677
0.384436
0.381644
0.378487
0.375028
0.371341
0.367507
0.363608
0.359724
0.355931
0.352284
0.348844
0.34566
0.342765
0.340177
0.337907
0.335954
0.334311
0.332962
0.331894
0.387028
0.384672
0.381851
0.378661
0.375167
0.371446
0.36758
0.363653
0.359745
0.355933
0.352277
0.348829
0.345641
0.342744
0.340158
0.337893
0.335945
0.334306
0.332961
0.331893
0.387306
0.384927
0.382078
0.378854
0.375324
0.371568
0.367669
0.363712
0.359778
0.355944
0.352276
0.348823
0.345631
0.342731
0.340144
0.33788
0.335937
0.334302
0.332956
0.331888
0.387603
0.385204
0.382326
0.379068
0.375501
0.371708
0.367775
0.363786
0.359825
0.355968
0.352282
0.348822
0.345626
0.342721
0.340132
0.337866
0.335922
0.334289
0.332945
0.331882
0.387926
0.385507
0.382598
0.379304
0.375699
0.371868
0.367898
0.363876
0.359886
0.356005
0.352299
0.348823
0.345621
0.342714
0.340127
0.337861
0.335917
0.334284
0.332946
0.331887
0.388271
0.385832
0.382893
0.379563
0.375919
0.372048
0.36804
0.363983
0.359963
0.356056
0.352329
0.348837
0.345623
0.342716
0.340127
0.337859
0.335915
0.334286
0.332954
0.331897
0.38864
0.386181
0.383213
0.379846
0.376161
0.37225
0.368202
0.364109
0.360057
0.356122
0.352372
0.348863
0.345636
0.34272
0.340126
0.33786
0.335919
0.33429
0.332964
0.331908
0.389034
0.386557
0.383559
0.380154
0.376429
0.372475
0.368386
0.364255
0.360169
0.356205
0.352431
0.348901
0.345658
0.342728
0.340127
0.337862
0.335921
0.334295
0.332968
0.331917
0.389456
0.386961
0.383934
0.380491
0.376724
0.372726
0.368595
0.364425
0.360303
0.356309
0.352508
0.348958
0.345697
0.342753
0.340142
0.337868
0.335925
0.334302
0.332975
0.331933
0.389906
0.387396
0.38434
0.380859
0.377048
0.373007
0.368832
0.364621
0.360462
0.356435
0.352608
0.349035
0.345756
0.342799
0.340177
0.337896
0.335948
0.334322
0.332999
0.33196
0.390389
0.387866
0.384781
0.381262
0.377407
0.373319
0.369099
0.364846
0.360648
0.356588
0.352732
0.349136
0.345838
0.342867
0.340235
0.337946
0.335993
0.334364
0.33304
0.332
0.390906
0.388372
0.385259
0.381702
0.377802
0.373667
0.369401
0.365103
0.360865
0.35677
0.352884
0.349262
0.345945
0.342958
0.340314
0.338016
0.336056
0.334422
0.333095
0.332051
0.391464
0.388919
0.38578
0.382184
0.378239
0.374056
0.36974
0.365397
0.361117
0.356985
0.353067
0.349419
0.34608
0.343076
0.340418
0.33811
0.336142
0.334501
0.333167
0.332119
0.392062
0.389511
0.386345
0.382711
0.37872
0.374487
0.370122
0.36573
0.361407
0.357235
0.353284
0.349608
0.346246
0.343223
0.34055
0.33823
0.336252
0.334603
0.333262
0.332206
0.392709
0.390153
0.386963
0.383289
0.37925
0.374966
0.370549
0.366109
0.361739
0.357527
0.35354
0.349834
0.346447
0.343404
0.340715
0.338381
0.336393
0.334734
0.333385
0.332321
0.393405
0.390848
0.387634
0.383922
0.379835
0.375498
0.371028
0.366535
0.362118
0.357863
0.353838
0.350101
0.346687
0.343622
0.340916
0.338567
0.336567
0.334898
0.333538
0.332466
0.394158
0.391603
0.388367
0.384617
0.38048
0.376089
0.371562
0.367016
0.362548
0.358248
0.354184
0.350413
0.346971
0.343882
0.341156
0.338792
0.336778
0.335097
0.333727
0.332645
0.394971
0.392422
0.389167
0.385377
0.381191
0.376743
0.372159
0.367556
0.363035
0.358687
0.354582
0.350774
0.347301
0.344188
0.34144
0.339059
0.337029
0.335335
0.333953
0.332858
0.395853
0.393315
0.390041
0.386213
0.381975
0.377469
0.372824
0.368162
0.363587
0.359188
0.355038
0.351191
0.347686
0.344544
0.341774
0.339373
0.337326
0.335618
0.334221
0.333113
0.396808
0.394285
0.390996
0.38713
0.382839
0.378274
0.373566
0.368843
0.364208
0.359756
0.355558
0.351671
0.34813
0.344958
0.342162
0.339739
0.337673
0.335947
0.334535
0.33341
0.397847
0.395345
0.392042
0.388139
0.383795
0.379168
0.374395
0.369606
0.36491
0.360402
0.356153
0.352221
0.348642
0.345437
0.342613
0.340166
0.338079
0.336334
0.334902
0.33376
0.398974
0.3965
0.393188
0.389249
0.384851
0.38016
0.375319
0.370463
0.365702
0.361134
0.356831
0.352852
0.349231
0.345991
0.343136
0.340661
0.33855
0.336783
0.33533
0.334167
0.400203
0.397764
0.394447
0.390473
0.386021
0.381265
0.376353
0.371426
0.366597
0.361965
0.357605
0.353575
0.349909
0.34663
0.343741
0.341237
0.339099
0.337307
0.33583
0.334642
0.401543
0.399149
0.395831
0.391824
0.387318
0.382495
0.37751
0.372509
0.367608
0.362909
0.358488
0.354403
0.350689
0.347368
0.344442
0.341905
0.339737
0.337916
0.336412
0.335196
0.403009
0.400669
0.397357
0.39332
0.38876
0.383868
0.378808
0.373729
0.368752
0.363983
0.359497
0.355354
0.351588
0.348222
0.345255
0.342681
0.340479
0.338626
0.33709
0.335843
0.404613
0.402341
0.399041
0.394978
0.390364
0.385402
0.380264
0.375105
0.370049
0.365206
0.36065
0.356445
0.352624
0.349208
0.346196
0.343582
0.341342
0.339453
0.337882
0.336597
0.406374
0.404183
0.400906
0.396819
0.392154
0.387122
0.381904
0.376661
0.371523
0.3666
0.361972
0.357701
0.35382
0.35035
0.34729
0.344631
0.342349
0.34042
0.338807
0.337481
0.408309
0.406217
0.402972
0.39887
0.394155
0.389053
0.383752
0.378423
0.373199
0.368194
0.363489
0.359147
0.355202
0.351674
0.34856
0.345852
0.343523
0.341548
0.339889
0.338514
0.410444
0.40847
0.40527
0.401159
0.396398
0.391226
0.385843
0.380425
0.375111
0.37002
0.365234
0.360817
0.356803
0.353213
0.350041
0.347279
0.344898
0.342871
0.341158
0.339728
0.412802
0.410969
0.40783
0.40372
0.398918
0.393679
0.388213
0.382704
0.377298
0.372118
0.367246
0.36275
0.358663
0.355005
0.35177
0.348948
0.346508
0.344422
0.342649
0.341155
0.415415
0.41375
0.410691
0.406593
0.401758
0.396456
0.390908
0.385308
0.379808
0.374535
0.369575
0.364995
0.36083
0.357099
0.353796
0.350907
0.348402
0.346249
0.344406
0.342838
0.418307
0.416847
0.413894
0.409827
0.404969
0.39961
0.393983
0.388293
0.382698
0.377329
0.372277
0.36761
0.363362
0.359553
0.356175
0.353213
0.350633
0.348405
0.346482
0.344827
0.421526
0.420313
0.417495
0.413479
0.408614
0.403206
0.397505
0.391728
0.386038
0.380573
0.375426
0.370668
0.366334
0.362441
0.358981
0.355937
0.353275
0.35096
0.348944
0.347188
0.425119
0.424203
0.421558
0.417621
0.412766
0.407323
0.401557
0.395696
0.389914
0.384354
0.379111
0.37426
0.369833
0.365851
0.362302
0.359168
0.356412
0.353997
0.351873
0.349999
0.429146
0.428587
0.426162
0.422337
0.417518
0.412058
0.40624
0.400306
0.394436
0.388783
0.383445
0.378498
0.373977
0.369899
0.366253
0.363019
0.360157
0.357627
0.355376
0.35336
0.433672
0.433546
0.431399
0.427731
0.422982
0.417531
0.411681
0.405686
0.39974
0.394
0.38857
0.383527
0.378908
0.37473
0.370978
0.367632
0.364647
0.361983
0.359582
0.357398
0.438789
0.439175
0.437385
0.433934
0.429301
0.423896
0.41804
0.412007
0.406
0.400185
0.39467
0.389536
0.384817
0.380533
0.376666
0.373193
0.370068
0.367245
0.364664
0.362276
0.444607
0.445607
0.444266
0.441108
0.436654
0.431344
0.425525
0.419486
0.413445
0.407574
0.401988
0.39677
0.391955
0.38756
0.383567
0.37995
0.376659
0.373646
0.370847
0.368208
0.451247
0.453001
0.452231
0.449466
0.445274
0.440131
0.434407
0.428414
0.422379
0.416486
0.410853
0.405567
0.400662
0.396156
0.392026
0.388243
0.384755
0.381509
0.378437
0.375483
0.45886
0.461547
0.461508
0.459276
0.455465
0.45059
0.445051
0.439179
0.433216
0.427355
0.421718
0.416395
0.411418
0.406803
0.402524
0.398548
0.394819
0.391281
0.387862
0.384503
0.467649
0.47151
0.472388
0.470893
0.467634
0.463177
0.457955
0.452322
0.446535
0.440795
0.435227
0.42992
0.424907
0.420196
0.415758
0.411557
0.407528
0.403615
0.39974
0.395845
0.477855
0.483272
0.485323
0.484811
0.482335
0.478509
0.473801
0.468589
0.463141
0.457665
0.452287
0.447093
0.442108
0.437336
0.432737
0.42827
0.423864
0.419458
0.414974
0.410351
0.489817
0.497249
0.500853
0.501672
0.500311
0.497429
0.493528
0.489008
0.484149
0.479163
0.474169
0.469246
0.464406
0.459641
0.454898
0.450126
0.445244
0.44019
0.434879
0.429257
0.503968
0.514015
0.519765
0.522295
0.522541
0.521055
0.518384
0.514951
0.511046
0.50688
0.50256
0.498149
0.493639
0.489003
0.484168
0.479067
0.473605
0.467712
0.461297
0.45431
0.520928
0.534361
0.543066
0.547973
0.550311
0.550837
0.549958
0.548138
0.545674
0.542768
0.539508
0.535938
0.532018
0.527699
0.522877
0.517464
0.511341
0.50442
0.496596
0.487815
0.541484
0.55936
0.571982
0.580328
0.585486
0.588539
0.590143
0.59054
0.590076
0.588928
0.587168
0.584815
0.581793
0.578027
0.57338
0.567735
0.560938
0.552871
0.543391
0.532417
0.566654
0.59034
0.608067
0.620878
0.630014
0.636474
0.6409
0.644056
0.646203
0.647264
0.647396
0.646588
0.644746
0.641767
0.637482
0.631749
0.624365
0.615167
0.603946
0.590553
0.59767
0.628802
0.653013
0.67142
0.685439
0.696195
0.704482
0.710875
0.715629
0.719048
0.721376
0.722307
0.721819
0.719789
0.716026
0.710363
0.702554
0.69238
0.679537
0.663767
0.63597
0.676371
0.70849
0.733572
0.753285
0.768941
0.781451
0.791459
0.799342
0.805366
0.809609
0.81224
0.813189
0.812162
0.809002
0.803535
0.795471
0.784533
0.770318
0.752429
0.683118
0.734651
0.775994
0.80865
0.834652
0.855582
0.872534
0.886289
0.897322
0.905954
0.912324
0.916553
0.918689
0.918601
0.91604
0.910835
0.902644
0.89113
0.875797
0.856106
0.740681
0.805049
0.856675
0.89753
0.930169
0.956536
0.977972
0.995435
1.00953
1.02067
1.02908
1.0349
1.03815
1.03884
1.03683
1.03194
1.0237
1.01173
0.995467
0.974229
0.810063
0.888637
0.951273
1.00069
1.04011
1.07194
1.09781
1.11888
1.13591
1.14944
1.15975
1.16707
1.17143
1.17283
1.17129
1.16672
1.15848
1.14614
1.12906
1.10644
0.892391
0.986114
1.06017
1.1183
1.16454
1.20178
1.23199
1.25656
1.2764
1.29218
1.30429
1.31299
1.31837
1.32047
1.31938
1.3151
1.3069
1.29424
1.27642
1.25254
0.98842
1.0978
1.18342
1.25028
1.30327
1.34583
1.38025
1.40817
1.43068
1.44857
1.46233
1.47231
1.47864
1.48137
1.48068
1.47668
1.46854
1.45561
1.43714
1.41212
1.09852
1.22367
1.3208
1.39625
1.45583
1.5035
1.54191
1.57294
1.59787
1.61764
1.63284
1.64391
1.65104
1.65432
1.65398
1.65023
1.64219
1.62909
1.61012
1.58419
1.22265
1.36332
1.47165
1.55538
1.62119
1.67358
1.71556
1.74927
1.77619
1.79743
1.8137
1.82555
1.83325
1.8369
1.83679
1.83327
1.82538
1.81227
1.79306
1.76657
1.36036
1.51588
1.63477
1.72613
1.7975
1.85388
1.89868
1.93431
1.96249
1.9845
2.00122
2.01332
2.02115
2.0249
2.02488
2.02152
2.01385
2.00094
1.98188
1.95539
1.51067
1.67984
1.80815
1.90599
1.98171
2.04086
2.08722
2.12354
2.15177
2.17344
2.18961
2.20109
2.20838
2.21173
2.21154
2.20822
2.20083
2.18842
2.17006
2.14442
1.67198
1.85283
1.98868
2.0911
2.16924
2.22919
2.27515
2.31023
2.33668
2.3563
2.37039
2.37994
2.3856
2.38778
2.38697
2.38344
2.37632
2.3648
2.34792
2.32428
1.84185
2.03138
2.17185
2.27594
2.35354
2.41133
2.45399
2.485
2.50701
2.52212
2.53194
2.53765
2.5401
2.53991
2.53765
2.5334
2.52652
2.51637
2.50197
2.48185
2.01689
2.21071
2.35151
2.45299
2.52581
2.57723
2.61249
2.63551
2.64934
2.65658
2.65927
2.65854
2.65556
2.65132
2.64619
2.64035
2.63356
2.62529
2.61455
2.59986
2.19256
2.38457
2.51967
2.61259
2.67473
2.71402
2.73653
2.74642
2.74696
2.74091
2.73062
2.71855
2.70641
2.69506
2.68503
2.67654
2.66949
2.66344
2.65751
2.65046
2.36317
2.5452
2.66652
2.74288
2.78666
2.80578
2.80633
2.7947
2.77608
2.75559
2.7328
2.71021
2.68938
2.67116
2.65615
2.64473
2.63693
2.63244
2.63048
2.62994
2.52201
2.68354
2.78054
2.82972
2.84283
2.83276
2.80941
2.77532
2.73476
2.68973
2.64678
2.60703
2.57156
2.54162
2.51789
2.50082
2.4907
2.48779
2.49108
2.49941
2.66158
2.78961
2.84837
2.85684
2.83467
2.78879
2.72553
2.65615
2.58536
2.51681
2.45316
2.39609
2.3466
2.30533
2.27264
2.24886
2.2344
2.22987
2.23402
2.24644
2.77373
2.85166
2.85866
2.81645
2.73788
2.64053
2.53462
2.42823
2.32693
2.23416
2.15168
2.0801
2.01932
1.96894
1.92855
1.89801
1.87758
1.86809
1.86889
1.87944
2.84862
2.85873
2.79417
2.67992
2.53708
2.38308
2.23088
2.08923
1.96295
1.85381
1.76142
1.68422
1.62017
1.56734
1.52416
1.48972
1.46374
1.44661
1.43991
1.44363
2.87614
2.79952
2.64417
2.44395
2.22706
2.01549
1.8239
1.65981
1.52487
1.4168
1.3312
1.26326
1.20862
1.16385
1.12652
1.09545
1.07034
1.05111
1.04005
1.03962
2.85193
2.66245
2.39732
2.10238
1.81522
1.56202
1.35571
1.19745
1.08149
0.998527
0.938914
0.894858
0.860829
0.833354
0.810555
0.792466
0.782166
0.77875
0.78585
0.81659
2.74951
2.42948
2.04703
1.66947
1.34399
1.09312
0.917945
0.801937
0.730691
0.688177
0.661735
0.643999
0.631339
0.62291
0.618223
0.617689
0.623126
0.63621
0.679199
0.771966
2.54617
2.08149
1.60121
1.20083
0.9152
0.733631
0.632364
0.579208
0.550593
0.534463
0.524707
0.519033
0.516289
0.515989
0.518539
0.524692
0.539236
0.575893
0.667905
0.858141
2.1942
1.60485
1.11216
0.784267
0.61494
0.538106
0.500753
0.480404
0.468392
0.461225
0.457104
0.455104
0.454919
0.45661
0.461077
0.471322
0.496037
0.563837
0.730674
1.07331
1.64684
1.03466
0.685461
0.545444
0.487671
0.459405
0.443233
0.433053
0.426223
0.421479
0.418311
0.41662
0.416589
0.418735
0.424562
0.438141
0.471976
0.568155
0.841805
1.32718
1.09034
0.687213
0.527523
0.466018
0.438331
0.42326
0.413572
0.40658
0.401253
0.397137
0.394226
0.392711
0.392958
0.395714
0.402602
0.418164
0.45701
0.570312
0.895815
1.46883
0.974718
0.60151
0.473058
0.43068
0.412252
0.401852
0.394823
0.389592
0.385738
0.383047
0.381321
0.380562
0.381076
0.383682
0.390323
0.40526
0.442365
0.550938
0.886276
1.51302
1.03178
0.574899
0.446494
0.409376
0.394814
0.387346
0.382798
0.379934
0.378009
0.376701
0.375895
0.375621
0.376132
0.378088
0.382987
0.394542
0.42271
0.503669
0.772271
1.45493
1.08027
0.546971
0.425239
0.394339
0.383799
0.379351
0.37717
0.375932
0.375156
0.374642
0.37432
0.374233
0.374486
0.375447
0.378127
0.385709
0.405133
0.459572
0.647386
1.20752
0.760572
0.452885
0.39533
0.381458
0.377306
0.375881
0.375262
0.374917
0.37464
0.374443
0.374318
0.374278
0.374352
0.374635
0.375347
0.377158
0.383565
0.407286
0.50064
0.857002
0.330871
0.330391
0.329839
0.3293
0.328784
0.328298
0.327851
0.32745
0.327102
0.326812
0.326585
0.326423
0.326329
0.3263
0.326337
0.326437
0.326598
0.326818
0.327092
0.32742
0.331098
0.330611
0.330057
0.329515
0.328994
0.328504
0.328052
0.327646
0.327293
0.326998
0.326766
0.3266
0.326501
0.326468
0.326501
0.326598
0.326757
0.326974
0.327247
0.327574
0.331268
0.33078
0.330223
0.329678
0.329154
0.32866
0.328204
0.327793
0.327434
0.327134
0.326896
0.326725
0.326621
0.326584
0.326612
0.326705
0.32686
0.327075
0.327346
0.327672
0.331403
0.330913
0.330355
0.329808
0.329282
0.328786
0.328328
0.327914
0.327552
0.327248
0.327006
0.32683
0.326722
0.326679
0.326702
0.326791
0.326942
0.327153
0.327421
0.327746
0.331514
0.331023
0.330464
0.329917
0.329391
0.328895
0.328438
0.328024
0.327662
0.327356
0.327111
0.326931
0.326817
0.326769
0.326786
0.326869
0.327015
0.327222
0.327486
0.327808
0.331609
0.331117
0.330557
0.330009
0.329485
0.328992
0.328538
0.328129
0.32777
0.327465
0.32722
0.327035
0.326915
0.326858
0.326867
0.326941
0.327079
0.327283
0.327546
0.327867
0.331695
0.331199
0.330636
0.330087
0.329561
0.329068
0.328617
0.328212
0.327857
0.327557
0.327312
0.327124
0.326998
0.326931
0.326924
0.326991
0.327128
0.327333
0.327602
0.327933
0.331774
0.331274
0.330706
0.330152
0.329621
0.329125
0.328669
0.328263
0.327909
0.327606
0.327357
0.327166
0.327036
0.326963
0.326953
0.327022
0.327161
0.327369
0.327638
0.32797
0.331854
0.331348
0.330775
0.330215
0.329681
0.329183
0.32872
0.328304
0.327935
0.327615
0.327357
0.327166
0.327039
0.326973
0.32698
0.327059
0.327202
0.327408
0.327671
0.32799
0.331922
0.331418
0.330846
0.330282
0.329736
0.32922
0.328749
0.328322
0.327942
0.327618
0.327365
0.327181
0.327065
0.327017
0.327036
0.327121
0.327267
0.327472
0.32773
0.328042
0.331943
0.331443
0.330878
0.330313
0.329757
0.329218
0.328739
0.328308
0.327935
0.327621
0.327379
0.327202
0.32709
0.327047
0.327068
0.327154
0.327302
0.327505
0.327757
0.328071
0.331939
0.33144
0.330872
0.330305
0.32975
0.329214
0.328727
0.328295
0.327925
0.327606
0.327365
0.327187
0.327076
0.327033
0.327054
0.327141
0.327288
0.327492
0.327746
0.328068
0.331945
0.331445
0.330876
0.330318
0.329769
0.32924
0.328752
0.328323
0.327944
0.327625
0.327374
0.327194
0.327083
0.327039
0.327058
0.327141
0.327285
0.327488
0.327749
0.328075
0.331948
0.331451
0.330894
0.330344
0.329797
0.329262
0.328774
0.328349
0.327977
0.327674
0.327436
0.327264
0.327155
0.327111
0.327127
0.327202
0.327331
0.327515
0.327762
0.328076
0.331979
0.331471
0.3309
0.330345
0.329797
0.329268
0.328787
0.328361
0.327995
0.327703
0.327476
0.327308
0.327202
0.327159
0.327174
0.327246
0.327364
0.32754
0.32778
0.32808
0.332025
0.331508
0.330926
0.330359
0.329814
0.3293
0.328822
0.328391
0.328018
0.327713
0.327479
0.327306
0.327198
0.327156
0.327174
0.327251
0.327379
0.327569
0.327815
0.328115
0.332088
0.331563
0.330977
0.33041
0.329871
0.329363
0.328885
0.328451
0.328073
0.327757
0.327503
0.32732
0.327208
0.327168
0.327194
0.327285
0.32743
0.327629
0.327876
0.328174
0.332162
0.331627
0.331032
0.330456
0.329912
0.329403
0.328922
0.328485
0.328108
0.327801
0.327553
0.327374
0.327264
0.327223
0.327243
0.327324
0.32747
0.327669
0.32791
0.328208
0.332249
0.331702
0.331092
0.330499
0.329935
0.329415
0.328933
0.328496
0.328121
0.32782
0.327577
0.327403
0.327295
0.327252
0.327264
0.327331
0.327474
0.327674
0.327919
0.328226
0.332356
0.331797
0.331172
0.330563
0.329981
0.32944
0.32895
0.328509
0.328128
0.327815
0.32757
0.327396
0.32729
0.32725
0.327269
0.327346
0.327492
0.327699
0.327957
0.328268
0.332485
0.331917
0.331282
0.330662
0.330066
0.32951
0.329
0.328547
0.328157
0.327837
0.327587
0.327413
0.327311
0.327277
0.327308
0.327404
0.327559
0.327771
0.328032
0.328341
0.332635
0.33206
0.331418
0.33079
0.330187
0.329623
0.329106
0.328647
0.328252
0.327928
0.327677
0.327503
0.327402
0.327372
0.327406
0.327507
0.327666
0.32788
0.32814
0.328447
0.332803
0.332223
0.331576
0.330944
0.330335
0.329766
0.329244
0.328782
0.328384
0.328058
0.327806
0.327632
0.327532
0.327503
0.327539
0.327641
0.327801
0.328015
0.328274
0.328578
0.332989
0.332405
0.331753
0.331117
0.330504
0.329931
0.329406
0.328941
0.328541
0.328214
0.327961
0.327788
0.327688
0.327659
0.327695
0.327798
0.327957
0.32817
0.328427
0.328727
0.333191
0.332603
0.331948
0.331307
0.33069
0.330114
0.329586
0.329119
0.328717
0.328389
0.328136
0.327962
0.327863
0.327835
0.327871
0.327973
0.328131
0.328341
0.328595
0.328891
0.333412
0.33282
0.332161
0.331516
0.330895
0.330316
0.329784
0.329314
0.32891
0.328582
0.328328
0.328155
0.328055
0.328028
0.328063
0.328165
0.328321
0.328529
0.328779
0.32907
0.333655
0.333059
0.332397
0.331748
0.331122
0.330539
0.330003
0.329531
0.329125
0.328795
0.328541
0.328367
0.328268
0.328241
0.328276
0.328377
0.328532
0.328738
0.328984
0.329269
0.333925
0.333326
0.33266
0.332007
0.331377
0.330789
0.330249
0.329774
0.329366
0.329035
0.328779
0.328606
0.328507
0.328479
0.328514
0.328615
0.328768
0.328971
0.329212
0.329491
0.334227
0.333626
0.332956
0.332299
0.331664
0.331072
0.330529
0.330051
0.329639
0.329307
0.329051
0.328877
0.328778
0.328751
0.328786
0.328885
0.329036
0.329235
0.329471
0.329742
0.334568
0.333964
0.333291
0.332631
0.331992
0.331395
0.330848
0.330367
0.329953
0.329619
0.329362
0.329188
0.329089
0.329061
0.329096
0.329194
0.329342
0.329537
0.329766
0.330029
0.334952
0.334346
0.333672
0.333008
0.332365
0.331765
0.331214
0.330729
0.330313
0.329978
0.32972
0.329545
0.329446
0.329418
0.329451
0.329548
0.329693
0.329883
0.330104
0.330356
0.335386
0.33478
0.334104
0.333438
0.332791
0.332187
0.331632
0.331145
0.330726
0.330389
0.33013
0.329955
0.329854
0.329826
0.329858
0.329952
0.330093
0.330277
0.33049
0.33073
0.335877
0.335271
0.334595
0.333928
0.333277
0.33267
0.332111
0.331621
0.331199
0.330861
0.3306
0.330424
0.330323
0.330294
0.330324
0.330415
0.330551
0.330728
0.330931
0.331157
0.336433
0.335829
0.335154
0.334485
0.333832
0.333222
0.332659
0.332166
0.331741
0.331401
0.331138
0.330961
0.330858
0.330827
0.330855
0.330943
0.331073
0.331241
0.331432
0.331643
0.337065
0.336464
0.335791
0.335122
0.334467
0.333853
0.333287
0.33279
0.332363
0.33202
0.331756
0.331577
0.331472
0.33144
0.331464
0.331547
0.33167
0.331829
0.332007
0.3322
0.337782
0.337186
0.336517
0.335848
0.335192
0.334575
0.334006
0.333507
0.333076
0.332731
0.332464
0.332283
0.332176
0.332141
0.332161
0.332238
0.332353
0.332501
0.332662
0.332835
0.3386
0.33801
0.337347
0.33668
0.336023
0.335405
0.334833
0.33433
0.333897
0.333549
0.333279
0.333096
0.332986
0.332947
0.332963
0.333033
0.333138
0.333272
0.333415
0.333564
0.339532
0.338952
0.338297
0.337634
0.336978
0.336358
0.335784
0.335278
0.334842
0.334491
0.334218
0.334032
0.333918
0.333875
0.333884
0.333946
0.334038
0.334156
0.334278
0.3344
0.340599
0.340032
0.339388
0.338732
0.338077
0.337458
0.336881
0.336373
0.335934
0.335579
0.335303
0.335113
0.334995
0.334946
0.334948
0.335
0.335078
0.335177
0.335274
0.335364
0.341822
0.341272
0.340643
0.339996
0.339346
0.338727
0.33815
0.337639
0.337197
0.336839
0.336559
0.336365
0.33624
0.336185
0.336178
0.336217
0.336278
0.336355
0.336422
0.336475
0.343229
0.3427
0.342092
0.341457
0.340813
0.340198
0.339621
0.339109
0.338664
0.338303
0.338019
0.337818
0.337687
0.337623
0.337605
0.337629
0.33767
0.33772
0.337753
0.337762
0.34485
0.34435
0.343767
0.343149
0.342516
0.341906
0.341331
0.340818
0.340371
0.340007
0.339718
0.339511
0.339371
0.339297
0.339265
0.339269
0.339285
0.339303
0.339295
0.339253
0.346726
0.346262
0.345712
0.345117
0.344499
0.343897
0.343326
0.342815
0.342366
0.341998
0.341704
0.341489
0.341338
0.34125
0.341201
0.341183
0.341169
0.341148
0.341091
0.340988
0.3489
0.348483
0.347976
0.347411
0.346813
0.346224
0.34566
0.345152
0.344703
0.344332
0.344031
0.343807
0.343644
0.343538
0.343467
0.34342
0.343369
0.343302
0.343186
0.34301
0.351431
0.351073
0.350622
0.350097
0.349527
0.348956
0.348403
0.3479
0.347452
0.347078
0.34677
0.346536
0.346357
0.346231
0.346131
0.346049
0.345952
0.345827
0.34564
0.345376
0.354387
0.354105
0.353724
0.353252
0.35272
0.352175
0.351639
0.351145
0.350699
0.350323
0.350007
0.349759
0.34956
0.349406
0.349272
0.349144
0.34899
0.348795
0.348521
0.348151
0.357854
0.35767
0.357382
0.35698
0.356499
0.355991
0.355479
0.354999
0.354559
0.354179
0.353853
0.353588
0.353363
0.353175
0.352994
0.352809
0.352583
0.3523
0.351919
0.35142
0.361935
0.361885
0.361721
0.361414
0.361004
0.360547
0.36007
0.359611
0.359179
0.358797
0.358458
0.358169
0.35791
0.357674
0.357434
0.357172
0.356854
0.356459
0.355943
0.355284
0.3668
0.366919
0.366921
0.366745
0.366434
0.366051
0.365624
0.365196
0.364778
0.364394
0.364037
0.363714
0.363405
0.363104
0.36278
0.362417
0.361975
0.361433
0.360744
0.359882
0.372668
0.373003
0.373241
0.373251
0.373085
0.37281
0.37246
0.372079
0.371682
0.371294
0.370908
0.370534
0.370152
0.369754
0.369309
0.3688
0.368187
0.367445
0.366525
0.365398
0.379908
0.380568
0.381091
0.381378
0.381428
0.381318
0.381086
0.38078
0.380415
0.380019
0.379588
0.379133
0.378633
0.378084
0.377454
0.376727
0.375863
0.374835
0.373593
0.372104
0.389031
0.390187
0.391194
0.391835
0.392224
0.392369
0.392327
0.392144
0.391831
0.391423
0.390916
0.390325
0.389632
0.388837
0.387911
0.386842
0.38559
0.384132
0.382415
0.380409
0.400884
0.402828
0.40462
0.405888
0.406695
0.407221
0.407507
0.407524
0.407299
0.40687
0.406238
0.405424
0.404414
0.403218
0.401812
0.400192
0.398325
0.396194
0.39375
0.390967
0.416778
0.419969
0.422999
0.42529
0.426901
0.427939
0.428564
0.428896
0.428808
0.428355
0.427534
0.426375
0.42487
0.423042
0.420876
0.418387
0.415549
0.412363
0.408789
0.404811
0.438621
0.443686
0.448543
0.452325
0.455101
0.456996
0.4581
0.458642
0.458794
0.458336
0.457272
0.45564
0.453437
0.450705
0.447437
0.443666
0.439382
0.434606
0.429314
0.423518
0.468787
0.476413
0.483686
0.48938
0.493604
0.496534
0.498285
0.499103
0.499359
0.499022
0.497707
0.495534
0.492502
0.488662
0.484004
0.478572
0.472356
0.465399
0.457687
0.44927
0.509579
0.520238
0.530235
0.537988
0.543712
0.547692
0.550124
0.551289
0.551659
0.551384
0.549851
0.547189
0.543375
0.538444
0.532355
0.525133
0.516734
0.507188
0.496468
0.484641
0.562337
0.576013
0.588554
0.598111
0.605079
0.609878
0.612788
0.614201
0.614752
0.614614
0.613
0.610046
0.605694
0.599952
0.592718
0.583963
0.573559
0.561471
0.547588
0.531933
0.626958
0.643167
0.657746
0.66869
0.676611
0.682068
0.685415
0.687035
0.687635
0.687611
0.686049
0.682988
0.678341
0.672096
0.664109
0.654284
0.642387
0.628262
0.611629
0.592352
0.702483
0.720747
0.73704
0.74923
0.758084
0.764227
0.768048
0.7699
0.77044
0.770462
0.769244
0.766162
0.761282
0.754617
0.74601
0.735346
0.722327
0.706689
0.687952
0.665718
0.788459
0.808751
0.826873
0.840471
0.85042
0.857408
0.861875
0.864229
0.865051
0.865089
0.863913
0.860719
0.855561
0.84844
0.839187
0.827667
0.813551
0.796516
0.775973
0.751307
0.88555
0.908186
0.928456
0.943753
0.955048
0.963084
0.96833
0.971246
0.972435
0.972613
0.971532
0.968217
0.962734
0.955082
0.945083
0.932592
0.917249
0.898691
0.876242
0.849151
0.995128
1.02055
1.0434
1.06077
1.07373
1.0831
1.0894
1.09312
1.09471
1.09502
1.09401
1.09054
1.08468
1.07642
1.06555
1.05193
1.03516
1.01485
0.990231
0.960442
1.1189
1.14763
1.17355
1.1934
1.20837
1.21932
1.22686
1.23145
1.23359
1.23424
1.23338
1.22977
1.2235
1.21455
1.20271
1.1878
1.16939
1.14703
1.11991
1.08701
1.25887
1.29148
1.32101
1.3438
1.36115
1.37403
1.38307
1.38876
1.39159
1.39262
1.39198
1.38826
1.38158
1.37189
1.35897
1.3426
1.32233
1.29764
1.26762
1.23115
1.41725
1.45439
1.48813
1.51437
1.53454
1.54968
1.56051
1.56752
1.5712
1.57277
1.57243
1.56868
1.56161
1.55114
1.53704
1.51906
1.49669
1.46935
1.43605
1.39548
1.59657
1.63894
1.67756
1.70782
1.73129
1.7491
1.76205
1.77067
1.77545
1.77768
1.77776
1.77404
1.7666
1.75534
1.73997
1.72021
1.69551
1.66521
1.62819
1.583
1.79965
1.84803
1.89227
1.92717
1.95448
1.97543
1.99089
2.00143
2.00753
2.01054
2.01113
2.00762