/*--------------------------------*- C++ -*----------------------------------*\
  =========                 |
  \\      /  F ield         | OpenFOAM: The Open Source CFD Toolbox
   \\    /   O peration     | Website:  https://openfoam.org
    \\  /    A nd           | Version:  6
     \\/     M anipulation  |
\*---------------------------------------------------------------------------*/
FoamFile
{
    version     2.0;
    format      ascii;
    class       volScalarField;
    location    "20";
    object      k;
}
// * * * * * * * * * * * * * * * * * * * * * * * * * * * * * * * * * * * * * //

dimensions      [0 2 -2 0 0 0 0];

internalField   nonuniform List<scalar> 
10000
(
0.205328
0.522316
0.471812
0.41307
0.368114
0.341334
0.327261
0.321218
0.319384
0.319463
0.320483
0.322782
0.327098
0.335222
0.35051
0.377198
0.419599
0.475525
0.521947
0.205691
0.205096
0.522112
0.470927
0.413286
0.368099
0.342217
0.328172
0.322926
0.321681
0.321999
0.322595
0.324594
0.327662
0.335445
0.35066
0.377029
0.41892
0.475419
0.521019
0.205303
0.205375
0.522532
0.47248
0.413579
0.368608
0.341804
0.327052
0.321169
0.320122
0.320473
0.320561
0.32258
0.327695
0.335406
0.350848
0.377173
0.419498
0.475524
0.521851
0.205445
0.205699
0.523698
0.473902
0.413739
0.368616
0.341481
0.326952
0.320522
0.318678
0.319177
0.320376
0.322097
0.32682
0.334994
0.350269
0.376638
0.418113
0.474963
0.52156
0.205321
0.206086
0.524
0.473437
0.413271
0.368282
0.3419
0.327156
0.320623
0.318554
0.319738
0.320908
0.322309
0.327985
0.335191
0.350305
0.376463
0.417532
0.474537
0.522153
0.204937
0.205274
0.52307
0.473005
0.412747
0.367913
0.341252
0.327276
0.321699
0.318772
0.319842
0.320707
0.322112
0.326628
0.334927
0.350737
0.376111
0.416734
0.472415
0.520755
0.204353
0.205034
0.522571
0.4722
0.411219
0.368027
0.341774
0.328064
0.320881
0.318648
0.318486
0.319684
0.322095
0.32649
0.33479
0.350371
0.375838
0.416518
0.472511
0.520531
0.204043
0.204626
0.522073
0.472256
0.411589
0.367986
0.341398
0.327455
0.321224
0.320153
0.320263
0.320368
0.322539
0.32663
0.334595
0.350136
0.375728
0.416502
0.471098
0.519517
0.20398
0.20461
0.521672
0.471963
0.412104
0.367918
0.341628
0.327556
0.321287
0.320057
0.319272
0.321245
0.323698
0.326717
0.334411
0.349697
0.375544
0.417517
0.471876
0.520313
0.204343
0.204709
0.521835
0.472402
0.411508
0.367613
0.341668
0.327831
0.322293
0.319909
0.319735
0.319294
0.321751
0.326657
0.334207
0.349217
0.375439
0.417806
0.47297
0.521043
0.204092
0.204628
0.521896
0.472223
0.413028
0.36825
0.342098
0.328031
0.321397
0.318704
0.318011
0.319043
0.321795
0.32803
0.33422
0.349077
0.375405
0.418042
0.471988
0.521371
0.20483
0.20404
0.522468
0.472165
0.412874
0.368474
0.342493
0.329425
0.321887
0.319028
0.318403
0.319202
0.321637
0.326745
0.333991
0.349012
0.375529
0.418283
0.473996
0.521776
0.204901
0.20417
0.522481
0.471928
0.411953
0.368822
0.343241
0.329647
0.322542
0.319747
0.319045
0.31967
0.321931
0.325828
0.333819
0.348983
0.375233
0.418558
0.473066
0.522119
0.205479
0.204218
0.522354
0.471373
0.413584
0.36919
0.343166
0.329289
0.323871
0.321405
0.319797
0.319999
0.323343
0.326197
0.334034
0.349156
0.375867
0.419151
0.475101
0.522009
0.20578
0.204558
0.5226
0.473046
0.414203
0.36979
0.343565
0.3294
0.32276
0.320254
0.320726
0.320164
0.322169
0.326148
0.33409
0.349227
0.376292
0.419113
0.473669
0.520767
0.205618
0.204359
0.522618
0.471951
0.414297
0.369832
0.344714
0.330926
0.324552
0.32178
0.31998
0.320624
0.323715
0.327575
0.334426
0.349206
0.376034
0.41898
0.474515
0.521123
0.205236
0.205275
0.523304
0.473346
0.414849
0.370738
0.345036
0.330645
0.32441
0.321776
0.32138
0.320978
0.322768
0.326542
0.334344
0.34911
0.375427
0.4188
0.473812
0.521112
0.205748
0.205114
0.523742
0.472163
0.414963
0.370584
0.345479
0.33162
0.324241
0.321341
0.320853
0.32211
0.324068
0.326793
0.335271
0.349735
0.375856
0.41872
0.475052
0.522046
0.205896
0.206483
0.524934
0.47469
0.415283
0.371905
0.345701
0.330831
0.3233
0.320177
0.319422
0.320121
0.322431
0.326689
0.334417
0.349407
0.376249
0.418701
0.475083
0.522181
0.205971
0.206294
0.525016
0.475703
0.416752
0.372506
0.345682
0.331825
0.323443
0.320133
0.319327
0.32021
0.322681
0.327808
0.334705
0.349594
0.376468
0.417937
0.475399
0.522625
0.206191
0.20601
0.524532
0.474223
0.415269
0.372228
0.345587
0.331011
0.323608
0.320367
0.319577
0.320621
0.323823
0.32688
0.334628
0.350056
0.376746
0.418862
0.475019
0.522348
0.205835
0.205232
0.524256
0.475162
0.415745
0.372166
0.345442
0.331966
0.32385
0.320411
0.319547
0.320563
0.323712
0.328006
0.335018
0.350057
0.376869
0.419129
0.474142
0.522039
0.205933
0.20533
0.522958
0.474863
0.41622
0.371979
0.345342
0.331072
0.325025
0.320879
0.319842
0.320639
0.322895
0.327388
0.335111
0.350156
0.376832
0.41836
0.475216
0.521581
0.205567
0.20536
0.523412
0.475583
0.415793
0.372371
0.346036
0.331791
0.324061
0.321178
0.320363
0.321073
0.323226
0.328589
0.33627
0.35041
0.376903
0.418891
0.475024
0.522331
0.205844
0.205687
0.522555
0.474693
0.416702
0.372357
0.345838
0.331049
0.324141
0.321602
0.322401
0.32327
0.324607
0.328489
0.335787
0.350313
0.376877
0.419213
0.474282
0.522104
0.20551
0.206306
0.524021
0.475685
0.416531
0.372601
0.345527
0.33122
0.325641
0.323139
0.322248
0.32254
0.323193
0.32769
0.336328
0.350297
0.376603
0.419096
0.475315
0.521705
0.205765
0.206323
0.524431
0.475292
0.415494
0.372454
0.345485
0.331675
0.324763
0.322239
0.321976
0.321548
0.322656
0.328267
0.335238
0.35028
0.376351
0.418509
0.475016
0.522244
0.205711
0.205797
0.524259
0.474679
0.416358
0.372501
0.345493
0.330645
0.323539
0.32113
0.321242
0.322557
0.322184
0.3267
0.334267
0.349787
0.375869
0.418056
0.474606
0.522283
0.20593
0.20607
0.523963
0.474464
0.415161
0.372064
0.345869
0.33064
0.323341
0.321605
0.319479
0.320534
0.32134
0.325379
0.333265
0.349232
0.375286
0.416955
0.473837
0.521329
0.205442
0.205909
0.523028
0.474156
0.415205
0.371953
0.345214
0.33149
0.323214
0.319794
0.318842
0.319145
0.321235
0.326336
0.333041
0.348431
0.3746
0.415774
0.473267
0.521451
0.205417
0.205456
0.523042
0.473896
0.414859
0.371784
0.34517
0.330713
0.323225
0.319957
0.320123
0.319259
0.320973
0.324925
0.332523
0.347292
0.373821
0.415205
0.471983
0.520817
0.205201
0.2055
0.522682
0.472479
0.414566
0.371636
0.345737
0.33213
0.324725
0.320011
0.318813
0.319236
0.321543
0.325991
0.332712
0.347029
0.373263
0.414472
0.471687
0.521003
0.204977
0.205472
0.522598
0.472869
0.414666
0.371452
0.344992
0.331358
0.32383
0.320122
0.318842
0.319148
0.320663
0.324541
0.33268
0.346634
0.37253
0.413607
0.471143
0.520297
0.204679
0.205273
0.522146
0.472306
0.414165
0.371176
0.344981
0.330613
0.324937
0.320554
0.319379
0.319674
0.320811
0.324553
0.333954
0.346606
0.372161
0.412828
0.469552
0.519793
0.204058
0.204678
0.520915
0.470314
0.412687
0.370719
0.344396
0.330477
0.323767
0.321026
0.321205
0.321531
0.322297
0.324539
0.333054
0.346258
0.371325
0.412129
0.469333
0.519255
0.203801
0.204699
0.521037
0.470177
0.412222
0.37047
0.344467
0.331487
0.325416
0.322727
0.320345
0.319877
0.320958
0.324088
0.332122
0.346183
0.370964
0.412008
0.468304
0.518749
0.203227
0.204439
0.520472
0.469491
0.411474
0.369941
0.34432
0.33097
0.324471
0.322396
0.321578
0.321379
0.322687
0.324381
0.331193
0.34537
0.370656
0.411604
0.467429
0.518005
0.202726
0.204218
0.520173
0.468859
0.41111
0.369604
0.344137
0.330222
0.323129
0.321535
0.319673
0.319946
0.321887
0.325188
0.331995
0.346064
0.370349
0.410314
0.466511
0.517645
0.202384
0.204096
0.519915
0.468252
0.410528
0.369199
0.343682
0.329262
0.322739
0.320411
0.31953
0.321023
0.320746
0.323574
0.330578
0.345361
0.36978
0.409551
0.465941
0.517168
0.202455
0.203679
0.518992
0.466923
0.409716
0.368754
0.343624
0.33014
0.324129
0.321872
0.319714
0.320477
0.32058
0.32334
0.330384
0.344697
0.369311
0.408809
0.465469
0.517498
0.202394
0.20328
0.518662
0.465975
0.409048
0.368376
0.343171
0.328859
0.32258
0.320208
0.319473
0.319717
0.321239
0.323526
0.330418
0.345286
0.368792
0.408205
0.464642
0.517365
0.202254
0.202432
0.517494
0.464957
0.408033
0.36788
0.342875
0.328961
0.32295
0.321782
0.321471
0.321478
0.321936
0.323522
0.330133
0.344113
0.368109
0.407452
0.463916
0.516332
0.201707
0.201894
0.516469
0.464039
0.407061
0.367304
0.342341
0.329144
0.323123
0.320383
0.319962
0.31998
0.320676
0.323493
0.330274
0.343377
0.367707
0.406628
0.46339
0.515905
0.201652
0.201688
0.516119
0.463934
0.406532
0.366948
0.342829
0.330419
0.322989
0.320505
0.321187
0.321311
0.322069
0.324962
0.331625
0.34353
0.367229
0.40587
0.462583
0.515287
0.201225
0.201445
0.515983
0.462757
0.405829
0.36635
0.342153
0.330272
0.323386
0.320795
0.319739
0.3196
0.320512
0.323364
0.330309
0.343739
0.366537
0.404724
0.461525
0.514678
0.200845
0.201284
0.515404
0.461964
0.404938
0.366044
0.342558
0.329853
0.323961
0.321644
0.321744
0.320407
0.321038
0.323562
0.330879
0.342595
0.365762
0.403896
0.460207
0.514181
0.200616
0.200933
0.514891
0.460354
0.403799
0.36519
0.34188
0.330322
0.326027
0.3239
0.321786
0.321048
0.321608
0.323797
0.329592
0.341599
0.364967
0.403046
0.459379
0.513533
0.200153
0.200566
0.514357
0.459243
0.402973
0.364681
0.342065
0.331615
0.32659
0.324894
0.322805
0.323442
0.324119
0.325689
0.329805
0.341722
0.36438
0.402268
0.458352
0.512929
0.19997
0.199809
0.512965
0.457965
0.401958
0.363963
0.342334
0.331535
0.326675
0.325743
0.324761
0.324082
0.324289
0.32522
0.330012
0.341806
0.363739
0.401574
0.457622
0.512314
0.199527
0.199177
0.51174
0.456541
0.40104
0.363417
0.342801
0.332276
0.327385
0.326401
0.325381
0.324194
0.324305
0.325631
0.330248
0.341227
0.363
0.400747
0.456414
0.511684
0.199267
0.198689
0.510954
0.455207
0.400018
0.363378
0.344439
0.334645
0.329627
0.327444
0.326383
0.325247
0.325402
0.327649
0.331848
0.340939
0.361966
0.399745
0.455459
0.51127
0.199196
0.198235
0.510044
0.454002
0.399133
0.36319
0.34458
0.334973
0.330324
0.328302
0.328032
0.327458
0.327111
0.327928
0.331693
0.341026
0.361796
0.398777
0.45426
0.510867
0.19885
0.197794
0.509124
0.452603
0.398002
0.362742
0.345064
0.335726
0.330697
0.328637
0.328897
0.328911
0.329253
0.330282
0.332484
0.34125
0.361929
0.397696
0.453033
0.510424
0.198518
0.197553
0.508589
0.451515
0.397183
0.362698
0.345584
0.336998
0.331949
0.330777
0.330082
0.329658
0.330195
0.331079
0.333303
0.34145
0.360791
0.396664
0.45194
0.509468
0.198237
0.197098
0.507866
0.450301
0.396339
0.362903
0.346219
0.338286
0.33445
0.332105
0.331249
0.331218
0.331672
0.332399
0.334914
0.341768
0.359933
0.395593
0.450414
0.50849
0.197727
0.196776
0.507145
0.448882
0.395173
0.362103
0.34658
0.339403
0.335745
0.333843
0.333166
0.333394
0.333701
0.334092
0.335858
0.342763
0.35983
0.39461
0.448965
0.507686
0.197214
0.196162
0.506161
0.447567
0.394158
0.361408
0.346977
0.340487
0.337621
0.336147
0.335367
0.334928
0.334924
0.335207
0.336567
0.342423
0.359645
0.393549
0.447754
0.507112
0.19697
0.195764
0.50526
0.446032
0.393125
0.361463
0.347191
0.341256
0.338727
0.337511
0.33684
0.336535
0.336493
0.336558
0.33781
0.342659
0.358566
0.392245
0.445952
0.506008
0.196356
0.195325
0.504511
0.444725
0.391902
0.360369
0.346959
0.342043
0.340069
0.339241
0.338766
0.338354
0.337923
0.337683
0.338554
0.343677
0.358497
0.391051
0.444322
0.504933
0.195819
0.194812
0.503754
0.443176
0.390744
0.35989
0.346284
0.342657
0.341162
0.340595
0.340298
0.339896
0.339265
0.338757
0.339306
0.343299
0.358632
0.389769
0.442743
0.503883
0.195262
0.194384
0.502957
0.441564
0.389405
0.358751
0.347277
0.343281
0.342132
0.341832
0.341588
0.341125
0.340409
0.339668
0.339876
0.343983
0.357608
0.388292
0.441203
0.503091
0.194826
0.193819
0.501963
0.439865
0.38793
0.357162
0.345568
0.343187
0.342818
0.342826
0.342711
0.34229
0.34153
0.340643
0.34038
0.343026
0.356347
0.38654
0.439058
0.501635
0.194015
0.193143
0.500653
0.43782
0.386332
0.356661
0.344011
0.342665
0.343353
0.343779
0.343852
0.343488
0.342683
0.341604
0.340864
0.341904
0.355037
0.384879
0.437219
0.500585
0.193442
0.19253
0.499583
0.43572
0.384485
0.357076
0.343697
0.341487
0.343752
0.344718
0.345004
0.344692
0.343822
0.342526
0.341316
0.341613
0.353424
0.382914
0.434716
0.498878
0.192467
0.191592
0.497958
0.433087
0.382002
0.355048
0.343629
0.342559
0.344473
0.345703
0.346163
0.345887
0.344918
0.343346
0.341581
0.341269
0.351237
0.380682
0.432043
0.49735
0.191599
0.190714
0.496363
0.429985
0.379095
0.353238
0.342677
0.340759
0.344517
0.346532
0.347273
0.347044
0.345953
0.344061
0.341623
0.341829
0.350377
0.378423
0.428941
0.494994
0.190344
0.189764
0.494702
0.426885
0.375915
0.350905
0.34153
0.340703
0.344635
0.347476
0.34844
0.348204
0.346919
0.344514
0.340458
0.340115
0.349691
0.375851
0.425974
0.493481
0.189524
0.188516
0.492516
0.423115
0.372047
0.348166
0.34005
0.340723
0.345889
0.348557
0.349602
0.349347
0.347904
0.345262
0.341644
0.339892
0.35003
0.37294
0.422401
0.491061
0.188204
0.187009
0.489954
0.4192
0.368035
0.345215
0.338963
0.341706
0.346197
0.349419
0.35069
0.350449
0.348802
0.34555
0.340123
0.33843
0.347278
0.369241
0.418548
0.488955
0.187015
0.185318
0.487145
0.415031
0.363794
0.342106
0.336553
0.339989
0.345552
0.350077
0.351701
0.351538
0.349818
0.346388
0.340502
0.337949
0.345015
0.365425
0.414324
0.485989
0.185277
0.183212
0.483804
0.410542
0.360784
0.339315
0.335982
0.339877
0.346773
0.350837
0.352589
0.352493
0.350697
0.347017
0.340876
0.337625
0.34225
0.36152
0.410114
0.483452
0.183727
0.18088
0.480001
0.405646
0.359397
0.338247
0.335598
0.339745
0.345316
0.350454
0.352963
0.353096
0.351413
0.347909
0.342723
0.338327
0.339349
0.358117
0.405684
0.48006
0.181393
0.177966
0.475289
0.399716
0.356602
0.337553
0.335526
0.341224
0.34679
0.349648
0.352597
0.352869
0.351198
0.347595
0.342034
0.336353
0.336899
0.355533
0.400671
0.475926
0.178529
0.174528
0.46954
0.393269
0.352078
0.336785
0.335
0.339432
0.345028
0.350378
0.35153
0.351568
0.349875
0.346348
0.341306
0.336531
0.336272
0.353022
0.394841
0.470677
0.175011
0.17056
0.462775
0.386057
0.348079
0.337865
0.336615
0.340171
0.346536
0.349616
0.352895
0.353393
0.351883
0.348443
0.343113
0.338106
0.335756
0.348785
0.387906
0.464268
0.170786
0.166015
0.454867
0.378302
0.342986
0.334198
0.334998
0.340289
0.346043
0.350769
0.351645
0.351556
0.349887
0.346421
0.341392
0.336186
0.336173
0.344992
0.380631
0.45647
0.165826
0.161114
0.446104
0.370426
0.338896
0.332992
0.33592
0.343003
0.347143
0.351453
0.352477
0.352289
0.350685
0.347282
0.3423
0.337395
0.333214
0.340581
0.372615
0.44773
0.160594
0.155709
0.436038
0.362287
0.334856
0.331382
0.336826
0.344851
0.349903
0.352921
0.353567
0.353369
0.351664
0.348249
0.343124
0.33685
0.331811
0.336824
0.364262
0.437173
0.154715
0.150639
0.425684
0.354954
0.332244
0.331814
0.34009
0.346656
0.351353
0.354625
0.356472
0.356657
0.355182
0.352028
0.347114
0.34055
0.333881
0.33407
0.356386
0.42634
0.149563
0.145893
0.415094
0.34835
0.330386
0.333653
0.341907
0.348606
0.353252
0.356069
0.357542
0.357543
0.356057
0.353043
0.348323
0.341728
0.333783
0.33158
0.349116
0.414805
0.144693
0.141862
0.404418
0.342967
0.329519
0.335174
0.343587
0.350208
0.354809
0.357523
0.358727
0.358909
0.357799
0.355196
0.350962
0.344569
0.335163
0.330533
0.343218
0.403607
0.141104
0.139095
0.393828
0.339025
0.33011
0.337377
0.345691
0.351863
0.355918
0.358194
0.359553
0.359896
0.358791
0.356399
0.352655
0.34679
0.338504
0.331083
0.339087
0.393304
0.139453
0.138518
0.383678
0.336396
0.332533
0.340183
0.347753
0.35319
0.356651
0.358416
0.359626
0.359896
0.35916
0.357702
0.354228
0.348903
0.341251
0.333649
0.337079
0.383496
0.138844
0.138295
0.373755
0.335292
0.334267
0.342227
0.34933
0.354289
0.357226
0.35986
0.360372
0.360386
0.359702
0.358493
0.355466
0.350458
0.343302
0.335314
0.335561
0.374639
0.138808
0.138892
0.365917
0.334255
0.336198
0.344446
0.351042
0.355462
0.358022
0.360377
0.36094
0.360931
0.360331
0.359317
0.356639
0.352205
0.345686
0.337442
0.334968
0.366247
0.139373
0.142414
0.358216
0.334361
0.338952
0.347095
0.353104
0.356991
0.359132
0.361133
0.361816
0.362179
0.361328
0.360249
0.357794
0.353803
0.347711
0.339428
0.334642
0.358344
0.142719
0.146324
0.351162
0.334732
0.3416
0.349596
0.355014
0.358446
0.360605
0.361878
0.362358
0.362608
0.361876
0.36075
0.358916
0.355642
0.350263
0.342197
0.334882
0.350887
0.146194
0.151326
0.343882
0.335997
0.344909
0.352568
0.357263
0.359984
0.361568
0.362456
0.362821
0.36286
0.362491
0.361799
0.360264
0.357567
0.352809
0.34507
0.33609
0.343867
0.151543
0.158352
0.337718
0.338055
0.348506
0.355627
0.359573
0.361684
0.362748
0.363345
0.36347
0.363459
0.363268
0.362937
0.361876
0.359759
0.35582
0.348763
0.338351
0.337759
0.158338
0.167154
0.334084
0.342163
0.353232
0.359254
0.362157
0.363512
0.364088
0.364241
0.364141
0.3641
0.364039
0.364046
0.363523
0.362187
0.359228
0.353105
0.341995
0.334006
0.167011
0.178132
0.332637
0.347308
0.358147
0.363003
0.364905
0.365526
0.365639
0.365597
0.365531
0.365543
0.365622
0.365655
0.365527
0.364913
0.363048
0.358237
0.347439
0.332549
0.178263
0.191698
0.333163
0.354352
0.363878
0.367015
0.367699
0.367543
0.36718
0.36686
0.366684
0.366684
0.366855
0.367171
0.367524
0.367666
0.366968
0.363807
0.354283
0.333136
0.191422
0.20757
0.339459
0.363065
0.36981
0.370876
0.370287
0.369367
0.368557
0.367992
0.367705
0.367704
0.367988
0.368549
0.369356
0.370272
0.370881
0.369875
0.363227
0.339676
0.207855
0.225866
0.349048
0.372904
0.375767
0.374448
0.372533
0.370895
0.369697
0.368928
0.368552
0.368546
0.368911
0.369666
0.370855
0.372485
0.374408
0.375751
0.372914
0.349106
0.225702
0.246318
0.364752
0.384056
0.381469
0.377458
0.374259
0.372027
0.37057
0.369693
0.369281
0.369279
0.369688
0.370561
0.372016
0.374248
0.377465
0.381519
0.38412
0.36476
0.24631
0.268128
0.385116
0.395375
0.386151
0.379368
0.375285
0.372779
0.371256
0.370382
0.369984
0.369982
0.370376
0.371243
0.372759
0.375262
0.379344
0.386136
0.395434
0.385264
0.268225
0.291467
0.411028
0.40501
0.388412
0.380075
0.37571
0.373273
0.37187
0.371108
0.370776
0.370776
0.371108
0.371867
0.373263
0.375702
0.380065
0.388421
0.405033
0.410929
0.291264
0.314277
0.434839
0.409162
0.388889
0.380068
0.37578
0.373608
0.372492
0.371943
0.371722
0.371723
0.371947
0.372498
0.373607
0.375779
0.380059
0.388893
0.409171
0.434833
0.314459
0.338038
0.444981
0.406947
0.385663
0.378076
0.375048
0.373763
0.373194
0.372955
0.37287
0.372871
0.37296
0.373202
0.373772
0.375054
0.378081
0.385664
0.406951
0.444965
0.33793
0.364405
0.421612
0.38649
0.377502
0.375374
0.374624
0.374346
0.374271
0.374255
0.374252
0.374252
0.374255
0.374272
0.374346
0.374625
0.375374
0.377501
0.386487
0.421621
0.364441
0.573247
1.14231
0.974095
0.777488
0.622648
0.522184
0.465037
0.434513
0.4188
0.411842
0.411243
0.416809
0.430883
0.459528
0.514733
0.611017
0.761262
0.955879
1.12099
0.559515
0.57123
1.13478
0.963524
0.768756
0.616601
0.520835
0.46461
0.43467
0.419078
0.412099
0.411486
0.417002
0.430855
0.458762
0.513486
0.604974
0.751943
0.948749
1.11864
0.557526
0.570331
1.1364
0.968404
0.771271
0.621815
0.518871
0.464556
0.434792
0.419256
0.412311
0.411627
0.417391
0.430735
0.457989
0.512361
0.607584
0.753618
0.949583
1.1153
0.556873
0.564201
1.13688
0.971661
0.769779
0.618574
0.52197
0.465319
0.435269
0.419536
0.412712
0.411732
0.41705
0.430692
0.458076
0.513304
0.610549
0.753894
0.949706
1.124
0.554639
0.568485
1.1363
0.971644
0.771181
0.627211
0.525507
0.465053
0.435549
0.419745
0.412945
0.411912
0.417488
0.430808
0.4584
0.510712
0.610047
0.758888
0.953398
1.12319
0.559012
0.567383
1.12867
0.963402
0.773953
0.626791
0.525171
0.465455
0.435908
0.420014
0.412635
0.412067
0.417392
0.430767
0.459386
0.512801
0.60595
0.752332
0.959509
1.12298
0.559061
0.562975
1.13198
0.974993
0.781061
0.62637
0.524716
0.465691
0.436242
0.420693
0.412705
0.412633
0.417212
0.430602
0.459141
0.515258
0.612092
0.761296
0.959656
1.12058
0.55819
0.566752
1.13358
0.975454
0.780483
0.624921
0.521633
0.465791
0.43625
0.420327
0.412599
0.41215
0.417449
0.43053
0.458341
0.514906
0.611281
0.757333
0.958799
1.11202
0.557927
0.571375
1.13802
0.972146
0.777811
0.618671
0.522112
0.466296
0.436097
0.420036
0.412744
0.411635
0.417044
0.430468
0.459229
0.514083
0.610305
0.747644
0.958233
1.11379
0.557525
0.571354
1.13359
0.96993
0.768958
0.618565
0.52277
0.465963
0.436426
0.420508
0.411866
0.411025
0.416695
0.430175
0.458866
0.513533
0.61027
0.755754
0.956199
1.11654
0.557248
0.571311
1.13997
0.96141
0.768781
0.617345
0.521936
0.466125
0.435773
0.419648
0.411669
0.411316
0.416363
0.429875
0.458226
0.509883
0.604783
0.759712
0.953702
1.11519
0.556881
0.569059
1.13392
0.962658
0.768691
0.617175
0.518957
0.465163
0.43542
0.418691
0.411368
0.410658
0.4159
0.429593
0.457457
0.510915
0.605112
0.749281
0.94866
1.12248
0.560294
0.564953
1.13703
0.965279
0.770764
0.610926
0.518716
0.464992
0.435162
0.418531
0.411317
0.410994
0.41594
0.429564
0.457863
0.511403
0.603983
0.750919
0.94007
1.11707
0.558864
0.568033
1.13026
0.955852
0.769077
0.612932
0.518354
0.464545
0.434846
0.41832
0.411181
0.410135
0.415569
0.429482
0.457011
0.509128
0.602637
0.750405
0.947239
1.12072
0.557162
0.565523
1.12955
0.963526
0.766453
0.614349
0.51825
0.46418
0.434496
0.418256
0.411719
0.41022
0.415877
0.429587
0.458041
0.511566
0.601472
0.751168
0.936765
1.11277
0.55215
0.563742
1.12839
0.960583
0.763792
0.611895
0.517102
0.463719
0.434008
0.418051
0.410934
0.410128
0.415717
0.429441
0.457716
0.511077
0.602076
0.746467
0.942483
1.12025
0.554804
0.559095
1.12598
0.957681
0.759961
0.60489
0.513812
0.463084
0.433858
0.417913
0.411008
0.410231
0.415367
0.429327
0.457437
0.510695
0.604694
0.753834
0.9485
1.12506
0.557103
0.557828
1.12567
0.946851
0.75075
0.601796
0.512594
0.462323
0.433161
0.417767
0.410806
0.410733
0.415339
0.429191
0.456384
0.509568
0.599819
0.754134
0.942499
1.12558
0.554469
0.555984
1.12236
0.950263
0.751544
0.598942
0.511009
0.461564
0.433075
0.417917
0.410886
0.410075
0.415258
0.429029
0.456323
0.507903
0.603228
0.746594
0.952179
1.12622
0.560648
0.557222
1.12629
0.942841
0.744856
0.596551
0.509757
0.460437
0.433227
0.418347
0.411475
0.410046
0.415482
0.428757
0.456066
0.509163
0.598455
0.74786
0.944986
1.12659
0.559823
0.553489
1.12228
0.950231
0.749379
0.596385
0.509031
0.459641
0.432134
0.417742
0.41086
0.410307
0.41492
0.42847
0.455946
0.507134
0.599993
0.750851
0.949989
1.12629
0.558983
0.555487
1.12634
0.942776
0.747357
0.593622
0.508229
0.458999
0.43133
0.417117
0.411244
0.409735
0.415112
0.428158
0.455179
0.507871
0.602416
0.744408
0.942414
1.12505
0.553795
0.558476
1.1274
0.94909
0.74139
0.59519
0.507729
0.458417
0.43114
0.41698
0.410378
0.409594
0.414571
0.427785
0.45512
0.506472
0.60197
0.751718
0.953272
1.12561
0.556506
0.554578
1.12649
0.948544
0.748229
0.598416
0.507305
0.45817
0.431563
0.416472
0.410732
0.409834
0.414924
0.4277
0.454793
0.505863
0.59634
0.741513
0.950152
1.12589
0.558797
0.560823
1.1259
0.946318
0.746637
0.593679
0.506224
0.457487
0.430464
0.416501
0.410374
0.410405
0.414523
0.42736
0.454402
0.506436
0.59906
0.744495
0.942616
1.12492
0.557977
0.559414
1.12425
0.944278
0.739058
0.596749
0.50574
0.456776
0.429139
0.415257
0.410628
0.40973
0.414527
0.427316
0.454034
0.505679
0.594544
0.747316
0.94695
1.12342
0.553994
0.558633
1.12382
0.933898
0.742331
0.594796
0.5043
0.456427
0.428638
0.414804
0.409289
0.408951
0.414225
0.426919
0.453485
0.504843
0.597539
0.745135
0.944843
1.1216
0.559228
0.552896
1.11843
0.934462
0.739852
0.592733
0.503856
0.455737
0.428438
0.414723
0.408264
0.40808
0.414075
0.42697
0.452877
0.503704
0.592
0.734399
0.935628
1.11384
0.558769
0.553177
1.12001
0.934339
0.736423
0.59232
0.502948
0.454757
0.428279
0.415256
0.40825
0.408484
0.413894
0.426385
0.452369
0.501485
0.59377
0.737723
0.942656
1.11862
0.5586
0.550974
1.11318
0.925488
0.733225
0.588029
0.501988
0.453762
0.427682
0.414152
0.407991
0.407637
0.413524
0.426297
0.452074
0.501181
0.592387
0.738942
0.941292
1.12305
0.558995
0.551243
1.11327
0.92917
0.725589
0.586571
0.501485
0.453454
0.427181
0.41478
0.408207
0.40767
0.413322
0.426178
0.451644
0.500215
0.587766
0.731769
0.939796
1.12367
0.558822
0.548894
1.10727
0.919303
0.722827
0.584723
0.500435
0.453183
0.42697
0.414374
0.408328
0.407783
0.412816
0.425867
0.451394
0.499687
0.588118
0.736305
0.931588
1.12186
0.558419
0.546355
1.10541
0.916355
0.719409
0.581683
0.499601
0.452173
0.426686
0.414037
0.409098
0.4086
0.413409
0.425788
0.450966
0.498756
0.58547
0.728872
0.931151
1.11988
0.556825
0.542692
1.09964
0.911694
0.715409
0.58035
0.499024
0.451915
0.426685
0.414633
0.408817
0.407833
0.412642
0.425382
0.450572
0.497767
0.584041
0.727917
0.927255
1.11838
0.555872
0.544197
1.09867
0.906976
0.712989
0.578911
0.498233
0.451591
0.426561
0.414037
0.408356
0.407884
0.412669
0.425026
0.450075
0.496872
0.582527
0.726151
0.924678
1.11231
0.550497
0.543015
1.09717
0.901237
0.710609
0.577161
0.497336
0.451376
0.426633
0.414777
0.40863
0.408785
0.413516
0.425552
0.449572
0.495996
0.580688
0.726112
0.921883
1.11486
0.551448
0.53893
1.09561
0.899847
0.708771
0.575394
0.496478
0.451405
0.426615
0.413887
0.409073
0.408199
0.412967
0.42506
0.448837
0.494912
0.579159
0.723976
0.922359
1.11546
0.549876
0.538706
1.09332
0.897054
0.708133
0.574067
0.495787
0.450525
0.427212
0.41397
0.408463
0.408646
0.412499
0.424709
0.448587
0.494214
0.577029
0.715596
0.918316
1.11343
0.548738
0.536082
1.09147
0.899708
0.704163
0.572492
0.495166
0.450272
0.426675
0.41404
0.408482
0.407876
0.412448
0.425142
0.448321
0.493265
0.575266
0.713553
0.908869
1.10606
0.547882
0.536795
1.09053
0.893389
0.701698
0.57142
0.494434
0.450049
0.427341
0.414818
0.408852
0.408608
0.412452
0.42494
0.44815
0.492358
0.573019
0.710125
0.911221
1.106
0.546472
0.534784
1.09204
0.896462
0.698789
0.56922
0.493793
0.449875
0.426685
0.414341
0.409326
0.408082
0.412666
0.424682
0.44821
0.491354
0.570404
0.70557
0.907992
1.10204
0.541236
0.535051
1.0909
0.889112
0.697518
0.568378
0.493175
0.449747
0.427542
0.415098
0.408629
0.408406
0.411946
0.424061
0.446981
0.489966
0.567155
0.700873
0.899633
1.09914
0.540084
0.535079
1.0894
0.887913
0.697123
0.566993
0.492727
0.449569
0.427244
0.41502
0.408703
0.407721
0.411792
0.423362
0.445888
0.488853
0.56495
0.696699
0.895068
1.09959
0.537705
0.533446
1.08709
0.879307
0.694536
0.565833
0.491996
0.449346
0.426752
0.415025
0.408908
0.407978
0.411991
0.422857
0.44505
0.487822
0.563207
0.692683
0.890474
1.09322
0.534724
0.528408
1.07982
0.876124
0.688634
0.563904
0.491391
0.448647
0.427148
0.414785
0.409653
0.408291
0.412832
0.423599
0.444917
0.486617
0.560978
0.688951
0.886024
1.09092
0.531604
0.525606
1.07797
0.871378
0.683624
0.561956
0.490608
0.44831
0.426245
0.414849
0.409413
0.40848
0.41256
0.423267
0.445206
0.485482
0.558799
0.684182
0.879119
1.08639
0.528863
0.522951
1.07341
0.866664
0.68062
0.560164
0.48964
0.448074
0.426363
0.415739
0.409782
0.40915
0.412254
0.422852
0.444652
0.48456
0.556913
0.681252
0.875046
1.08305
0.526029
0.520389
1.06906
0.86084
0.677054
0.55854
0.488657
0.44751
0.426297
0.415448
0.41043
0.408746
0.412276
0.423324
0.444078
0.483452
0.554489
0.676875
0.869603
1.08
0.523437
0.518173
1.06479
0.857598
0.67471
0.556849
0.487495
0.447305
0.426418
0.416141
0.410634
0.409355
0.412635
0.422641
0.443004
0.481975
0.551552
0.672075
0.86266
1.07496
0.520454
0.516051
1.06494
0.853825
0.671995
0.555327
0.486215
0.447094
0.426374
0.415486
0.410549
0.408965
0.411946
0.421924
0.441445
0.479386
0.548305
0.667134
0.855939
1.07105
0.517229
0.514717
1.06758
0.850645
0.669636
0.554248
0.485451
0.447141
0.426628
0.415741
0.410468
0.409149
0.411856
0.420974
0.440376
0.477821
0.54518
0.662287
0.848133
1.06497
0.514553
0.513428
1.0619
0.846681
0.667177
0.553224
0.485628
0.447582
0.42735
0.416072
0.410842
0.410085
0.41201
0.420127
0.439889
0.475778
0.541601
0.657324
0.841621
1.06126
0.511492
0.512866
1.06621
0.843652
0.664312
0.551196
0.484311
0.446089
0.426434
0.416902
0.411703
0.410174
0.412093
0.419876
0.43833
0.473126
0.53787
0.651674
0.83442
1.05765
0.508923
0.511121
1.05924
0.83983
0.661456
0.549391
0.483544
0.446203
0.426987
0.416955
0.411663
0.410166
0.412741
0.419916
0.436599
0.46963
0.534358
0.646136
0.826738
1.05384
0.505162
0.509829
1.05727
0.835332
0.657934
0.546857
0.481775
0.445214
0.426108
0.41732
0.412574
0.41088
0.412262
0.419453
0.435095
0.466812
0.531679
0.640729
0.819753
1.04754
0.500327
0.507612
1.05218
0.830806
0.654533
0.544238
0.479907
0.444563
0.425957
0.416723
0.412453
0.410526
0.41262
0.419008
0.435079
0.466025
0.528358
0.634517
0.812245
1.04131
0.495418
0.505071
1.04661
0.825513
0.650194
0.540886
0.477316
0.443678
0.426098
0.416917
0.412742
0.410297
0.411822
0.418131
0.433073
0.465325
0.523609
0.628172
0.805315
1.03518
0.490018
0.503208
1.04208
0.821331
0.646395
0.537692
0.474613
0.442746
0.426898
0.417209
0.413162
0.410713
0.411206
0.416029
0.429684
0.461205
0.518397
0.621786
0.797471
1.02919
0.485212
0.499721
1.03597
0.815255
0.641475
0.533741
0.47146
0.4412
0.425448
0.417399
0.413532
0.411275
0.41079
0.415132
0.427954
0.459157
0.514268
0.615263
0.788916
1.01936
0.479243
0.496472
1.03019
0.81032
0.636909
0.529626
0.468619
0.438981
0.42464
0.418335
0.413931
0.411596
0.411426
0.415211
0.427333
0.455615
0.508906
0.608321
0.780101
1.01161
0.474605
0.491584
1.02286
0.80285
0.631577
0.525885
0.467582
0.439458
0.424926
0.417883
0.414147
0.411796
0.410924
0.415616
0.427273
0.451436
0.503505
0.601192
0.771787
1.00339
0.46997
0.487169
1.01655
0.796484
0.626394
0.521891
0.46584
0.438628
0.425993
0.418223
0.414549
0.412112
0.410768
0.413665
0.423224
0.446084
0.49733
0.592887
0.762557
0.997412
0.465426
0.483441
1.01125
0.789861
0.621077
0.519063
0.46483
0.439581
0.426172
0.418658
0.414991
0.41252
0.410915
0.412888
0.419989
0.439751
0.489893
0.583793
0.753696
0.993828
0.462373
0.478856
1.00376
0.781897
0.615047
0.515145
0.462803
0.438914
0.426381
0.419368
0.415534
0.412944
0.411557
0.411439
0.41729
0.435853
0.483107
0.574983
0.743726
0.987789
0.458309
0.476091
0.999707
0.775318
0.609801
0.51552
0.462672
0.438322
0.426356
0.420019
0.415908
0.413196
0.410978
0.411422
0.417034
0.434121
0.475973
0.565824
0.734158
0.982687
0.455142
0.47135
0.994287
0.765893
0.603837
0.511808
0.46269
0.439365
0.425907
0.419601
0.416178