/*--------------------------------*- C++ -*----------------------------------*\
  =========                 |
  \\      /  F ield         | OpenFOAM: The Open Source CFD Toolbox
   \\    /   O peration     | Website:  https://openfoam.org
    \\  /    A nd           | Version:  6
     \\/     M anipulation  |
\*---------------------------------------------------------------------------*/
FoamFile
{
    version     2.0;
    format      ascii;
    class       volScalarField;
    location    "20";
    object      nut;
}
// * * * * * * * * * * * * * * * * * * * * * * * * * * * * * * * * * * * * * //

dimensions      [0 2 -1 0 0 0 0];

internalField   nonuniform List<scalar> 
10000
(
1.45295e-05
6.95149e-05
8.97929e-05
0.000109725
0.00013554
0.000168562
0.000205752
0.000241081
0.000268553
0.000283393
0.000283313
0.000269362
0.000243758
0.000210212
0.000174124
0.00014098
0.000114211
9.23066e-05
7.01512e-05
1.45183e-05
1.45551e-05
6.96532e-05
8.98251e-05
0.000109825
0.000135834
0.000169678
0.000208234
0.000244927
0.000273489
0.000288528
0.000287444
0.0002728
0.000245249
0.00021244
0.000176103
0.000142316
0.00011512
9.29432e-05
6.9954e-05
1.44875e-05
1.45115e-05
6.9461e-05
8.96399e-05
0.000109822
0.000137571
0.000169624
0.000205506
0.000241182
0.00027022
0.000286186
0.000284094
0.000269688
0.000245999
0.000211352
0.000174594
0.000140905
0.000114892
9.25291e-05
7.01596e-05
1.45135e-05
1.45311e-05
6.98854e-05
9.02625e-05
0.000109937
0.000136128
0.0001692
0.000205481
0.000240334
0.000267856
0.000284008
0.000284684
0.000269598
0.000243386
0.000209817
0.000175279
0.000140582
0.000113932
9.18643e-05
7.01307e-05
1.44663e-05
1.45328e-05
6.97261e-05
9.07123e-05
0.000110011
0.000137369
0.000171577
0.000206306
0.000240862
0.000267901
0.00028493
0.000285587
0.000269647
0.000245308
0.000209989
0.000173512
0.000141388
0.000112963
9.21494e-05
7.01069e-05
1.44468e-05
1.44437e-05
6.95255e-05
9.00178e-05
0.000109873
0.000136904
0.000169788
0.000206448
0.000242745
0.000268925
0.000285855
0.000285283
0.000269748
0.000243647
0.000211307
0.000173989
0.000139871
0.000113294
9.07797e-05
6.97583e-05
1.43755e-05
1.44249e-05
6.96368e-05
9.0388e-05
0.000109325
0.000136975
0.000169052
0.000207557
0.000242462
0.000268049
0.000282665
0.000282901
0.000269211
0.000243526
0.000210073
0.000173805
0.000139662
0.000112223
9.13144e-05
6.98034e-05
1.43774e-05
1.43951e-05
6.93216e-05
8.98317e-05
0.000110459
0.000136405
0.00016831
0.00020794
0.000242215
0.000270293
0.000285601
0.000284188
0.000270205
0.000244188
0.000211555
0.00017407
0.000139884
0.000112459
9.03554e-05
6.95765e-05
1.43874e-05
1.44093e-05
6.94267e-05
9.02128e-05
0.000110462
0.000134919
0.000168044
0.000206033
0.000240911
0.000269874
0.000284357
0.000286663
0.000273439
0.000244616
0.000210128
0.000174011
0.000140104
0.000114174
9.07779e-05
6.98592e-05
1.44593e-05
1.44706e-05
6.93839e-05
9.0193e-05
0.000109987
0.000134469
0.000167886
0.000205358
0.000242094
0.000269386
0.000284506
0.000282526
0.000269976
0.000245017
0.000211656
0.000174852
0.000140311
0.00011296
9.12937e-05
7.01198e-05
1.44075e-05
1.44334e-05
6.92946e-05
9.00214e-05
0.00011034
0.000134942
0.000168367
0.000205661
0.000240857
0.000267397
0.000281552
0.00028196
0.000270033
0.000248097
0.000211575
0.000175475
0.000141855
0.000113258
9.14847e-05
7.04102e-05
1.44667e-05
1.43613e-05
6.95015e-05
8.96763e-05
0.000109257
0.000135206
0.000168861
0.000207506
0.000241724
0.000268086
0.000282947
0.000282163
0.000268963
0.000245435
0.000210713
0.000174529
0.000140223
0.000113394
9.15341e-05
7.04305e-05
1.44592e-05
1.43985e-05
6.97468e-05
8.9782e-05
0.000108823
0.000135114
0.000169908
0.000208108
0.00024305
0.000269304
0.000283544
0.000282822
0.000269201
0.000243012
0.000209239
0.000173577
0.000140407
0.000114672
9.16411e-05
7.05484e-05
1.45227e-05
1.44165e-05
6.95847e-05
9.01684e-05
0.000109911
0.000135679
0.000171366
0.000208978
0.000246486
0.000272766
0.000284246
0.000283381
0.000271671
0.000243616
0.000209523
0.000174033
0.000141288
0.000113954
9.16988e-05
7.04544e-05
1.45554e-05
1.45022e-05
6.96646e-05
9.05915e-05
0.000110369
0.000136414
0.00017
0.000207065
0.000242861
0.000269271
0.000285574
0.000283619
0.000269902
0.000243779
0.000209644
0.000174534
0.000143639
0.000114524
9.11703e-05
6.99514e-05
1.45394e-05
1.44417e-05
6.97264e-05
9.00199e-05
0.00011071
0.000136784
0.000171263
0.00020892
0.000244435
0.000271487
0.000284266
0.000284476
0.000273324
0.000247155
0.000210043
0.000175174
0.000141531
0.000115808
9.15971e-05
7.02528e-05
1.44832e-05
1.45413e-05
7.0023e-05
9.12832e-05
0.000111461
0.000139157
0.000173205
0.000209104
0.000244375
0.000271558
0.00028721
0.000284911
0.00027033
0.000243602
0.000209521
0.000172191
0.000139072
0.000114637
9.12923e-05
6.99556e-05
1.45542e-05
1.45164e-05
6.99601e-05
9.02664e-05
0.000112368
0.000138598
0.000172165
0.000211024
0.000245056
0.000270953
0.000285438
0.000287022
0.000272714
0.000244125
0.000212143
0.000172889
0.000139398
0.000114113
9.21389e-05
7.02214e-05
1.45984e-05
1.46159e-05
7.01365e-05
9.08525e-05
0.000112128
0.000139217
0.000172328
0.000208249
0.000242085
0.000269156
0.000282828
0.000284421
0.00027096
0.000243833
0.000209288
0.000172558
0.000139772
0.000113158
9.17118e-05
7.02232e-05
1.45492e-05
1.45764e-05
7.03728e-05
9.18676e-05
0.000112684
0.000138832
0.000172715
0.000209596
0.000242113
0.000267866
0.000282234
0.00028369
0.000270398
0.000246808
0.000211428
0.00017339
0.000140346
0.000113868
9.24625e-05
7.03319e-05
1.45657e-05
1.45597e-05
7.01479e-05
9.1159e-05
0.000113298
0.000140076
0.000174944
0.00020903
0.00024269
0.000268556
0.000282632
0.000284117
0.000271717
0.000244698
0.000210845
0.000175357
0.000141708
0.00011371
9.19647e-05
7.02546e-05
1.45207e-05
1.4451e-05
7.029e-05
9.17571e-05
0.000112135
0.000137584
0.000172719
0.000210072
0.000244035
0.000268516
0.000282493
0.000283328
0.000271552
0.000245641
0.000210436
0.000174054
0.000140579
0.000113141
9.12728e-05
7.02284e-05
1.45361e-05
1.44739e-05
6.97884e-05
9.15298e-05
0.000111311
0.000137296
0.000171391
0.000209566
0.000244854
0.000269254
0.000283603
0.000284167
0.000271028
0.000245013
0.000211046
0.00017469
0.000140996
0.000112907
9.17611e-05
7.02829e-05
1.44845e-05
1.44837e-05
6.99913e-05
9.19344e-05
0.000111171
0.000137762
0.000171595
0.000208856
0.000243725
0.000270178
0.000283729
0.000284147
0.000270959
0.000247002
0.000213217
0.000175794
0.000141785
0.000113525
9.21403e-05
7.02421e-05
1.45179e-05
1.4534e-05
6.98349e-05
9.14339e-05
0.000111781
0.00013924
0.000173006
0.000208135
0.000242518
0.00027001
0.000287189
0.000288156
0.000274289
0.000247125
0.000214733
0.000178217
0.000144035
0.000113947
9.12492e-05
7.0356e-05
1.44819e-05
1.46292e-05
7.02052e-05
9.14428e-05
0.000111899
0.000138246
0.000171326
0.00020857
0.000245095
0.000273496
0.000287158
0.000286873
0.000271128
0.000245558
0.000213575
0.000176013
0.000142215
0.000114887
9.16309e-05
7.01366e-05
1.454e-05
1.45733e-05
7.01495e-05
9.19449e-05
0.000111742
0.000138589
0.000171825
0.000209368
0.000244059
0.000271883
0.000286864
0.000285273
0.000270014
0.000246474
0.000211303
0.000174943
0.000140975
0.000113423
9.15082e-05
7.0275e-05
1.44933e-05
1.45107e-05
7.01243e-05
9.12417e-05
0.000113455
0.000140529
0.00017401
0.000209945
0.000242604
0.00026975
0.000285827
0.000288081
0.000270578
0.000245623
0.000212022
0.0001766
0.000142598
0.000114566
9.13957e-05
7.01624e-05
1.44994e-05
1.45697e-05
7.01232e-05
9.17327e-05
0.000112594
0.000139767
0.000173896
0.000209361
0.000242441
0.000270735
0.000282834
0.000284183
0.000268848
0.000242819
0.00020997
0.000175064
0.000141184
0.000113329
9.11625e-05
7.00899e-05
1.44483e-05
1.45145e-05
7.00939e-05
9.15674e-05
0.000111974
0.000139431
0.000173076
0.000209495
0.000242346
0.000267966
0.000282457
0.00028249
0.000268996
0.000244379
0.000208995
0.000173382
0.000139773
0.000111963
9.09294e-05
7.00372e-05
1.44551e-05
1.44625e-05
7.01039e-05
9.15928e-05
0.000112826
0.000138585
0.000172125
0.000208519
0.000243177
0.000268951
0.000284271
0.000282009
0.0002682
0.000242769
0.000209032
0.000172869
0.000139712
0.000111956
9.05063e-05
6.97041e-05
1.44286e-05
1.44771e-05
7.00247e-05
9.09738e-05
0.000111722
0.000138716
0.000174448
0.000210684
0.000244768
0.000268435
0.000282002
0.000282158
0.000269439
0.00024487
0.000210271
0.000174808
0.000141383
0.000113046
9.05471e-05
6.97594e-05
1.44248e-05
1.45237e-05
6.99439e-05
9.09591e-05
0.000112982
0.000140175
0.000172603
0.000209887
0.000244581
0.000269655
0.000282977
0.000282426
0.000268412
0.000243574
0.00021156
0.00017422
0.000140435
0.00011224
9.04299e-05
6.96171e-05
1.43769e-05
1.44742e-05
7.00359e-05
9.13598e-05
0.000112536
0.000139697
0.000173952
0.000209282
0.000245682
0.000270142
0.000283797
0.000283517
0.0002689
0.000244026
0.000212051
0.000174498
0.000140323
0.000111864
8.99496e-05
6.95381e-05
1.43425e-05
1.43906e-05
6.95187e-05
9.00934e-05
0.000111661
0.000139349
0.000173325
0.000209381
0.000243979
0.000270715
0.000286991
0.000287556
0.000271681
0.000244259
0.000211186
0.000174203
0.000138695
0.000110866
9.00077e-05
6.95943e-05
1.43227e-05
1.44066e-05
6.97869e-05
9.07344e-05
0.000111178
0.000138634
0.00017354
0.000210972
0.000247631
0.000274522
0.000286076
0.000284314
0.000269507
0.00024386
0.00021052
0.000174646
0.0001389
0.000111056
8.97497e-05
6.93273e-05
1.42836e-05
1.43761e-05
6.96029e-05
9.04235e-05
0.000111108
0.000138756
0.000173658
0.000211446
0.00024569
0.000273353
0.000287801
0.000287318
0.000272585
0.000244395
0.000209715
0.000174325
0.000140275
0.000111237
8.9671e-05
6.93932e-05
1.42536e-05
1.43643e-05
6.95811e-05
9.03769e-05
0.00011216
0.000140275
0.000173146
0.000209932
0.000244617
0.000272913
0.000285192
0.000285008
0.00027131
0.000245354
0.000211916
0.000175097
0.000139298
0.000110819
8.94781e-05
6.91493e-05
1.42446e-05
1.43555e-05
6.94325e-05
9.00007e-05
0.000111894
0.000139898
0.000173032
0.00020906
0.000244105
0.000271091
0.00028495
0.000286675
0.000269629
0.000243261
0.000209557
0.000175085
0.000139462
0.0001108
8.98521e-05
6.92619e-05
1.42887e-05
1.43114e-05
6.92505e-05
9.0214e-05
0.000112011
0.000140259
0.000174595
0.000210828
0.000246119
0.00027386
0.000285501
0.000286395
0.000269727
0.000243034
0.000209631
0.000174695
0.000140698
0.000110654
8.92931e-05
6.92823e-05
1.42779e-05
1.42732e-05
6.9227e-05
8.95656e-05
0.000112006
0.000139946
0.000173699
0.000209481
0.000244609
0.000270653
0.000284908
0.000285059
0.00027188
0.000244796
0.000210992
0.000174891
0.000139579
0.000110695
8.91414e-05
6.91971e-05
1.42708e-05
1.42065e-05
6.90322e-05
8.98781e-05
0.000112065
0.000140353
0.000175207
0.000210283
0.000244611
0.000273393
0.000288666
0.000288696
0.000273219
0.000244971
0.00021109
0.000174399
0.000139814
0.000110728
8.90925e-05
6.8819e-05
1.41934e-05
1.41855e-05
6.90168e-05
8.94745e-05
0.000112056
0.000141775
0.000174246
0.00021162
0.000245357
0.00027141
0.000286243
0.000286309
0.000271579
0.000245514
0.000211877
0.000174548
0.000140745
0.00011159
8.91676e-05
6.87879e-05
1.41823e-05
1.41911e-05
6.88624e-05
8.96922e-05
0.000112224
0.000141656
0.000175881
0.000212782
0.000245382
0.000272002
0.000288686
0.000288979
0.000274316
0.000248202
0.000214106
0.00017542
0.000141795
0.000110965
8.91106e-05
6.88951e-05
1.41266e-05
1.41709e-05
6.89113e-05
8.95582e-05
0.000112139
0.000141844
0.000175148
0.000213084
0.000246472
0.000272584
0.000286323
0.000286039
0.000271913
0.000246181
0.000212527
0.000176254
0.000141483
0.000110797
8.89586e-05
6.87246e-05
1.41253e-05
1.41558e-05
6.88584e-05
9.00708e-05
0.000112626
0.000141817
0.000176976
0.000213146
0.000248577
0.000274645
0.000290164
0.000287739
0.000273222
0.000247235
0.000214003
0.00017568
0.000141318
0.000111574
8.92123e-05
6.86713e-05
1.40918e-05
1.41379e-05
6.88119e-05
8.96624e-05
0.000111732
0.000140767
0.000175655
0.000214045
0.000251551
0.000278401
0.000290392
0.000289208
0.000274668
0.000247932
0.000213194
0.000175444
0.000140459
0.000110989
8.8856e-05
6.8544e-05
1.40654e-05
1.4094e-05
6.88095e-05
8.98318e-05
0.000111946
0.000141175
0.000176661
0.000216405
0.000252932
0.0002807
0.000292435
0.000294211
0.000279496
0.000251615
0.000215289
0.000176582
0.000140841
0.000111148
8.87831e-05
6.83488e-05
1.40569e-05
1.40246e-05
6.87684e-05
8.97117e-05
0.000112909
0.000142611
0.000179008
0.000217093
0.000252652
0.000281679
0.000296029
0.000295276
0.000280802
0.000252138
0.00021645
0.000178801
0.000142377
0.000112231
8.89203e-05
6.82982e-05
1.40208e-05
1.39826e-05
6.84711e-05
8.95642e-05
0.000112624
0.000142327
0.000179844
0.000218639
0.000254187
0.000283076
0.000297392
0.00029601
0.000281137
0.000253106
0.000217083
0.000178309
0.00014202
0.000111893
8.88303e-05
6.84019e-05
1.4011e-05
1.3955e-05
6.84556e-05
8.94637e-05
0.000112826
0.000144177
0.000182678
0.00022321
0.000258931
0.00028534
0.000299764
0.000298245
0.000283704
0.000257385
0.000220096
0.000178934
0.000142218
0.000112863
8.9325e-05
6.82597e-05
1.40148e-05
1.39229e-05
6.83732e-05
8.952e-05
0.000113335
0.000144424
0.000183195
0.00022362
0.000260119
0.000286973
0.000302793
0.000302337
0.000286917
0.000258521
0.000221911
0.000181215
0.00014403
0.000112956
8.92084e-05
6.82555e-05
1.39685e-05
1.38995e-05
6.83087e-05
8.94848e-05
0.000113906
0.000145963
0.000185734
0.000226158
0.00026099
0.000288127
0.000304358
0.000304969
0.000290956
0.000262869
0.000223657
0.000182749
0.000145406
0.000113398
8.93719e-05
6.84364e-05
1.39555e-05
1.38825e-05
6.83384e-05
8.96121e-05
0.000114417
0.000146867
0.00018712
0.000228452
0.000263353
0.000291724
0.000306999
0.000306813
0.000292556
0.000264443
0.000225661
0.000184084
0.000145949
0.000113808
8.95808e-05
6.82161e-05
1.39293e-05
1.38509e-05
6.83208e-05
8.9734e-05
0.000114964
0.000148288
0.000188955
0.000231026
0.000267913
0.000294233
0.000308814
0.000309463
0.000295774
0.000267298
0.00022885
0.000185643
0.000146396
0.000114435
8.95569e-05
6.81219e-05
1.38755e-05
1.38284e-05
6.82356e-05
8.9675e-05
0.000115117
0.000148732
0.000190755
0.000233857
0.000270639
0.000298147
0.000313112
0.000313796
0.000299417
0.000270807
0.000231169
0.000187836
0.000147419
0.000114713
8.95683e-05
6.82929e-05
1.38525e-05
1.37822e-05
6.83328e-05
8.96509e-05
0.000115562
0.000149598
0.000192637
0.000236383
0.000274354
0.000302398
0.000317355
0.000316969
0.00030205
0.000273309
0.000233156
0.000188819
0.0001486
0.000115261
8.96552e-05
6.82627e-05
1.38382e-05
1.37577e-05
6.82038e-05
8.95165e-05
0.000115924
0.000150851
0.000193942
0.000238352
0.000277167
0.000305381
0.000320713
0.000321025
0.000306064
0.000276646
0.000236143
0.000190451
0.000149055
0.000115634
8.95615e-05
6.81929e-05
1.37839e-05
1.3726e-05
6.82891e-05
8.99145e-05
0.000116407
0.000151214
0.000195004
0.000240637
0.000280248
0.000309562
0.000325115
0.000325338
0.000309595
0.000279417
0.000238327
0.000192907
0.000150296
0.000116047
8.95225e-05
6.80652e-05
1.37448e-05
1.36938e-05
6.8273e-05
8.99747e-05
0.000116851
0.000152278
0.000195655
0.000242656
0.000283324
0.000313128
0.000328803
0.000328939
0.000312817
0.000282296
0.000240744
0.000194049
0.000152042
0.00011656
8.96863e-05
6.80996e-05
1.37095e-05
1.3668e-05
6.84016e-05
9.0109e-05
0.000117342
0.000152853
0.000198381
0.000245026
0.00028607
0.000316376
0.000332306
0.000332186
0.000315806
0.000284771
0.000242763
0.00019627
0.000152635
0.000116858
8.99052e-05
6.82314e-05
1.36778e-05
1.36229e-05
6.837e-05
9.03291e-05
0.000117921
0.000153235
0.000198164
0.000246539
0.00028861
0.000319256
0.000335366
0.000335316
0.000318782
0.000287582
0.000244952
0.000196827
0.000153145
0.000117131
8.97856e-05
6.80903e-05
1.36175e-05
1.35763e-05
6.83512e-05
9.03645e-05
0.00011842
0.000154473
0.00019798
0.000247218
0.00029074
0.000322249
0.000338839
0.000338759
0.000322053
0.000290386
0.000247051
0.000197193
0.000153737
0.000117523
8.9945e-05
6.8129e-05
1.3575e-05
1.35301e-05
6.83593e-05
9.03178e-05
0.000118649
0.000156567
0.000199465
0.000247245
0.000292993
0.000325381
0.000342362
0.000342394
0.000325542
0.000293362
0.000249235
0.000198468
0.000153989
0.000117785
8.9786e-05
6.79928e-05
1.34991e-05
1.34572e-05
6.81817e-05
9.02027e-05
0.000118768
0.000156722
0.000201314
0.000250661
0.00029591
0.000328777
0.000346127
0.000346225
0.000329061
0.000296287
0.00025136
0.000199978
0.000153938
0.000118006
8.96884e-05
6.79091e-05
1.34316e-05
1.33967e-05
6.80451e-05
8.97971e-05
0.000118422
0.000156937
0.000202102
0.000249838
0.000297704
0.000332026
0.000349989
0.00035016
0.000332617
0.000299122
0.000253101
0.000202429
0.00015503
0.000118261
8.9426e-05
6.76375e-05
1.33427e-05
1.33193e-05
6.78905e-05
8.96086e-05
0.000118336
0.000157154
0.00020306
0.000251928
0.000299932
0.00033573
0.000354088
0.000354192
0.000336218
0.000301747
0.00025333
0.000202463
0.000156493
0.00011841
8.92699e-05
6.76148e-05
1.32858e-05
1.32142e-05
6.76499e-05
8.91217e-05
0.0001177
0.000156951
0.000203587
0.000254155
0.000304206
0.000339742
0.00035834
0.000358423
0.000340061
0.000305088
0.000257245
0.000204423
0.00015903
0.000118484
8.89787e-05
6.73984e-05
1.31823e-05
1.30962e-05
6.73751e-05
8.87235e-05
0.000117232
0.000156776
0.000204858
0.000258109
0.000307147
0.000343758
0.000362815
0.000362873
0.000344003
0.000307823
0.000257227
0.000205008
0.000158925
0.000118122
8.8573e-05
6.72399e-05
1.30862e-05
1.29601e-05
6.7065e-05
8.8287e-05
0.000116632
0.000156413
0.000204531
0.000258177
0.00030864
0.000347603
0.00036736
0.000367509
0.000348364
0.000311705
0.000260281
0.000207077
0.000159524
0.000117887
8.81813e-05
6.6964e-05
1.29541e-05
1.27961e-05
6.66999e-05
8.79857e-05
0.000117119
0.000156675
0.000206713
0.000260984
0.000313869
0.000352071
0.000372071
0.000372305
0.000352938
0.000315763
0.000263819
0.000209641
0.000159863
0.000117763
8.79069e-05
6.68304e-05
1.28297e-05
1.26092e-05
6.62938e-05
8.7715e-05
0.000118949
0.000158777
0.000209577
0.000264197
0.000314653
0.000354717
0.000376234
0.000376903
0.000357661
0.000320648
0.000270001
0.000213849
0.000160262
0.000118177
8.77491e-05
6.65709e-05
1.26313e-05
1.23748e-05
6.58348e-05
8.72499e-05
0.000120234
0.000161655
0.000213162
0.000270359
0.00032135
0.000357109
0.000379469
0.00038039
0.000361157
0.000323965
0.000272744
0.000215036
0.000161379
0.0001195
8.76958e-05
6.62839e-05
1.24026e-05
1.21044e-05
6.52916e-05
8.68297e-05
0.000120669
0.000164988
0.000216929
0.00027212
0.000322823
0.000363476
0.000382043
0.000382421
0.000363178
0.000326201
0.000275971
0.00021953
0.00016479
0.000121348
8.76014e-05
6.58849e-05
1.21229e-05
1.17958e-05
6.47199e-05
8.64191e-05
0.000121952
0.000170712
0.000223962
0.000278522
0.000331162
0.000367621
0.000390889
0.000392269
0.00037314
0.00033578
0.000284279
0.000226662
0.00016894
0.000122504
8.73678e-05
6.54441e-05
1.17941e-05
1.1453e-05
6.41073e-05
8.60991e-05
0.000122824
0.000172334
0.000227627
0.000284954
0.0003368
0.000376899
0.000395104
0.000395171
0.000375714
0.000338371
0.000287528
0.0002298
0.000174682
0.000124455
8.73751e-05
6.49284e-05
1.14294e-05
1.10881e-05
6.35607e-05
8.61019e-05
0.000124897
0.000176992
0.00023534
0.000296547
0.000346617
0.000386588
0.000405335
0.000405117
0.000385448
0.00034765
0.000296176
0.000238143
0.000177689
0.000126486
8.74956e-05
6.44652e-05
1.10484e-05
1.071e-05
6.30119e-05
8.63763e-05
0.000127486
0.000181916
0.000244236
0.000308274
0.000361362
0.000399597
0.000417915
0.000417651
0.000397319
0.000358651
0.000305801
0.000244748
0.000182872
0.00012951
8.78579e-05
6.38669e-05
1.06517e-05
1.03778e-05
6.26898e-05
8.73449e-05
0.00013161
0.000189729
0.000257457
0.000321147
0.00037517
0.00041513
0.00043686
0.000437415
0.000416732
0.000377035
0.00032245
0.00025859
0.000192632
0.000133771
8.87341e-05
6.34719e-05
1.03261e-05
1.00796e-05
6.26231e-05
8.89802e-05
0.000136831
0.000200043
0.000269975
0.000336158
0.000391984
0.000432209
0.000453708
0.000453755
0.000432265
0.000391525
0.000335553
0.000269718
0.000200491
0.000138486
9.01011e-05
6.31403e-05
1.00321e-05
9.85384e-06
6.28224e-05
9.15138e-05
0.000143238
0.000210847
0.000283631
0.000352225
0.000410204
0.000451804
0.000473335
0.000473673
0.000452078
0.000410412
0.000352933
0.000284687
0.000210814
0.000144604
9.23068e-05
6.30959e-05
9.85336e-06
9.7504e-06
6.32648e-05
9.50266e-05
0.000151266
0.000223262
0.000299204
0.000370198
0.000429591
0.000471877
0.000494689
0.000495356
0.000472622
0.00042942
0.000370252
0.000299723
0.000224043
0.000152205
9.54277e-05
6.33724e-05
9.83474e-06
9.80807e-06
6.3943e-05
9.94996e-05
0.000161442
0.00023724
0.000315917
0.000389142
0.000450089
0.000492926
0.000516211
0.000516608
0.000493796
0.000450831
0.000388985
0.000315605
0.000237037
0.000161856
9.98352e-05
6.39138e-05
9.82203e-06
9.80098e-06
6.4601e-05
0.000104804
0.000171127
0.000250804
0.000332844
0.000409016
0.000471828
0.000519296
0.000541699
0.000541283
0.000517433
0.000472894
0.000408816
0.000332029
0.000250015
0.000170874
0.000104471
6.46873e-05
9.83385e-06
9.8473e-06
6.56306e-05
0.000109812
0.000180927
0.000264952
0.000350703
0.00042998
0.000495239
0.000544299
0.000567952
0.000567457
0.000542705
0.000496426
0.000429723
0.00034969
0.000264039
0.000180635
0.000109694
6.54925e-05
9.87045e-06
1.0118e-05
6.63987e-05
0.000115621
0.000191564
0.000279719
0.000369371
0.000452072
0.000519835
0.000570415
0.000595696
0.000596482
0.000569769
0.000521042
0.000451465
0.000367981
0.000278207
0.000190464
0.000115105
6.61631e-05
1.01098e-05
1.03414e-05
6.70179e-05
0.000121333
0.00020174
0.000294124
0.000387721
0.000473961
0.000545476
0.000596321
0.000622137
0.000622664
0.000595321
0.000544333
0.00047315
0.00038679
0.000293127
0.00020101
0.000120848
6.67277e-05
1.03244e-05
1.0678e-05
6.73607e-05
0.000127044
0.000212043
0.000308858
0.000406461
0.000495692
0.000569076
0.000620886
0.000647406
0.000647332
0.000620396
0.000568814
0.000495267
0.000405879
0.000308105
0.000211354
0.000126646
6.71836e-05
1.0688e-05
1.11528e-05
6.77239e-05
0.000132379
0.000222365
0.000323898
0.000425629
0.000517889
0.000592882
0.000645654
0.000672217
0.000672036
0.000644989
0.000592884
0.000517701
0.000425244
0.000323482
0.000222131
0.000132353
6.7676e-05
1.11367e-05
1.17547e-05
6.86029e-05
0.000138679
0.000233867
0.000340099
0.000445764
0.000540714
0.000617098
0.000669821
0.000696137
0.000695906
0.000668885
0.000616633
0.000540374
0.000445499
0.000339846
0.000233637
0.000138541
6.86128e-05
1.17528e-05
1.25269e-05
6.98405e-05
0.000145576
0.000246326
0.00035806
0.000468065
0.000565467
0.000642687
0.000695537
0.000722162
0.000722174
0.00069555
0.000642573
0.000565187
0.00046767
0.00035766
0.000246035
0.000145417
6.97048e-05
1.25258e-05
1.34621e-05
7.12253e-05
0.000153778
0.000260836
0.000378621
0.000493076
0.000592491
0.000669595
0.000721296
0.00074705
0.000747056
0.000721305
0.0006696
0.000592467
0.00049301
0.000378506
0.000260695
0.00015367
7.1149e-05
1.34536e-05
1.45835e-05
7.45493e-05
0.00016421
0.000278529
0.000403263
0.000522139
0.000622527
0.000698007
0.000747204
0.000771207
0.00077121
0.000747211
0.000698009
0.000622504
0.000522065
0.000403151
0.000278441
0.000164212
7.46275e-05
1.4603e-05
1.58699e-05
7.90648e-05
0.000177121
0.000300282
0.00043307
0.00055602
0.00065581
0.000727618
0.00077257
0.000793879
0.00079387
0.000772542
0.00072757
0.000655745
0.000555943
0.000433004
0.000300246
0.000177114
7.90821e-05
1.58516e-05
1.73051e-05
8.63953e-05
0.000194336
0.000328481
0.00047029
0.000596046
0.000692503
0.000757829
0.000796505
0.00081412
0.000814119
0.000796501
0.00075782
0.000692483
0.000596008
0.000470249
0.000328452
0.000194305
8.63809e-05
1.73133e-05
1.88521e-05
9.66765e-05
0.000217093
0.000365131
0.000516274
0.000642575
0.000731914
0.00078735
0.000817697
0.000830678
0.000830673
0.000817681
0.000787321
0.000731864
0.0006425
0.000516163
0.000364966
0.000216985
9.66623e-05
1.88508e-05
2.04909e-05
0.000111992
0.00024797
0.000413905
0.000575112
0.000696752
0.000772917
0.000814299
0.000833749
0.000840821
0.000840815
0.000833738
0.000814274
0.000772882
0.000696747
0.000575125
0.000413954
0.000248016
0.00011197
2.04814e-05
2.20968e-05
0.000133004
0.000294149
0.000488811
0.000653953
0.000758492
0.000812359
0.000835452
0.000844088
0.000847358
0.000847356
0.000844082
0.00083545
0.000812354
0.000758465
0.000653847
0.000488642
0.000293961
0.000132868
2.21066e-05
2.37725e-05
0.000165915
0.000385646
0.000608321
0.000750624
0.000813599
0.000837402
0.000845734
0.000849685
0.000851119
0.000851127
0.000849715
0.00084581
0.000837511
0.000813616
0.00075064
0.000608443
0.000385782
0.000165968
2.37629e-05
2.56204e-05
0.000278687
0.000620897
0.000792531
0.000838261
0.00084836
0.000850256
0.000851689
0.000851986
0.00085197
0.00085197
0.000851987
0.000851702
0.000850293
0.000848473
0.000838396
0.0007925
0.000620775
0.000278629
2.56235e-05
4.10389e-05
0.000110883
0.00012845
0.000140788
0.000157587
0.000184872
0.000222876
0.00026548
0.000302679
0.000324049
0.000324226
0.000302429
0.000263578
0.000218601
0.000179923
0.00015107
0.000134978
0.000125215
0.000108188
3.97519e-05
4.12052e-05
0.000110526
0.000128021
0.000141124
0.00015868
0.000188283
0.000224042
0.000266961
0.000304544
0.000325964
0.000326374
0.000306062
0.000268374
0.000222002
0.000183491
0.000149291
0.000132522
0.00012532
0.000108777
3.98817e-05
4.06862e-05
0.000109557
0.000126726
0.000138065
0.000156685
0.000181727
0.000226202
0.00027042
0.000308657
0.00032991
0.000330082
0.00030434
0.000264636
0.000216269
0.000178503
0.00015166
0.000133714
0.000123285
0.000107507
3.97685e-05
3.99511e-05
0.000109855
0.000128098
0.000138291
0.000155913
0.000184567
0.000222924
0.000266012
0.000304351
0.000325592
0.000326228
0.000306431
0.000262146
0.000216645
0.000179752
0.000157266
0.000137512
0.000123742
0.000108709
3.94668e-05
4.09179e-05
0.00011006
0.000128741
0.00013998
0.000164526
0.000191619
0.00022657
0.000267293
0.000305931
0.000326699
0.000327496
0.00030349
0.000262783
0.000217843
0.000178473
0.000155874
0.000138487
0.000126678
0.000109497
4.03371e-05
4.03308e-05
0.000108971
0.000127284
0.000144435
0.000160452
0.000188845
0.000223769
0.000267725
0.00030903
0.000327151
0.000332437
0.000307572
0.000266773
0.000219783
0.000180417
0.000153135
0.000135439
0.000126079
0.000108335
4.00753e-05
3.97615e-05
0.000110855
0.000131292
0.000143772
0.000160806
0.000192075
0.000225134
0.000269027
0.000307828
0.000327358
0.000328858
0.000303734
0.000262275
0.000220515
0.000183021
0.0001541
0.000136769
0.000126441
0.00010883
4.02896e-05
4.04593e-05
0.000110967
0.000134134
0.00014682
0.000164226
0.000189399
0.000226347
0.00027214
0.000304041
0.000323358
0.000324923
0.000306881
0.000262579
0.000223964
0.000187186
0.000154966
0.00013642
0.000126812
0.000106558
3.99313e-05
4.14072e-05
0.000111768
0.000129789
0.000142975
0.000159714
0.000188519
0.000229879
0.000269175
0.000304228
0.000324551
0.000324979
0.000305232
0.000261798
0.000219054
0.000180995
0.000158205
0.000136549
0.000128951
0.000106254
4.01399e-05
4.09805e-05
0.000110261
0.000126602
0.000137565
0.000159849
0.000193403
0.000227043
0.000272337
0.000306094
0.000324205
0.000327261
0.000301979
0.000262312
0.000219792
0.000180936
0.000157088
0.000136688
0.000125235
0.000106693
3.96397e-05
4.09343e-05
0.000110543
0.000124645
0.000138368
0.000157858
0.000189395
0.000229551
0.000270358
0.000308002
0.000326933
0.000325423
0.000305223
0.000263569
0.00022358
0.000179
0.000154703
0.000135852
0.000125039
0.000106425
3.95288e-05
4.09481e-05
0.000110257
0.000125525
0.000142258
0.000162856
0.000185675
0.000226242
0.000272546
0.000304769
0.000324638
0.000327124
0.000303697
0.0002657
0.000218367
0.000182546
0.000154718
0.00013281
0.000125656
0.000107842
3.99832e-05
4.00342e-05
0.000109193
0.000126768
0.000141985
0.000156083
0.000188254
0.000229626
0.000269023
0.000306725
0.000325214
0.000326359
0.000301827
0.000263568
0.000219326
0.000180615
0.000152819
0.000134122
0.000120879
0.000106998
3.98044e-05
4.03022e-05
0.000108061
0.000126407
0.000140682
0.000155459
0.000187481
0.000225651
0.000268863
0.000302787
0.000327564
0.000323558
0.000302301
0.000268371
0.000219696
0.000180759
0.000157566
0.000137293
0.000123189
0.000108731
3.95287e-05
4.01449e-05
0.000108089
0.000126445
0.000142345
0.000160393
0.000189106
0.000226494
0.000271953
0.000303065
0.000325046
0.000324312
0.000305982
0.000268056
0.000222025
0.000185783
0.000152424
0.000133098
0.000120748
0.000106421
3.89291e-05
3.98004e-05
0.000108882
0.000127707
0.000140445
0.000158395
0.000188299
0.000226773
0.000267876
0.000302715
0.000324826
0.000327545
0.000305069
0.00026772
0.000222452
0.000184866
0.00015088
0.000131951
0.000122929
0.000108903
3.94297e-05
3.93033e-05
0.000108325
0.000126624
0.000137467
0.000155316
0.000185919
0.000227935
0.000268866
0.00030336
0.000327435
0.000327242
0.00030362
0.000265421
0.000225329
0.000186338
0.000156455
0.000135332
0.000126423
0.000109579
4.0065e-05
3.92984e-05
0.000108624
0.000124545
0.000137379
0.000153283
0.000183214
0.000231485
0.000269193
0.000303523
0.000323118
0.000327213
0.00030579
0.000267429
0.000219743
0.000184408
0.00015308
0.000137735
0.000122726
0.000109256
3.95448e-05
3.9284e-05
0.000108023
0.000125025
0.000137518
0.000153231
0.000182663
0.00022857
0.000271636
0.000305084
0.000323777
0.000324198
0.000303244
0.000262381
0.000219661
0.000181026
0.000154652
0.000132722
0.000127043
0.000108529
4.02829e-05
3.9605e-05
0.000108626
0.000121857
0.00013561
0.000155721
0.000182549
0.000224975
0.000269255
0.000308739
0.000327942
0.000327512
0.000301436
0.00026271
0.000220995
0.000184948
0.000151996
0.000133746
0.000124034
0.000108501
4.03358e-05
3.90949e-05
0.000107265
0.000124112
0.000136332
0.000153244
0.0001823
0.000227493
0.000270676
0.000304587
0.000323948
0.000323799
0.00030097
0.000263337
0.000224337
0.000179942
0.000150394
0.000137818
0.000124369
0.00010859
3.98037e-05
3.95299e-05
0.000108276
0.000124288
0.000133677
0.0001495
0.00018234
0.000223286
0.000266588
0.000306664
0.000328189
0.000326651
0.000302851
0.000263626
0.0002206
0.000182201
0.000151993
0.000133317
0.000122848
0.000108564
3.911e-05
4.02349e-05
0.000108565
0.000124255
0.000131861
0.000151486
0.000183305
0.000226119
0.000269524
0.000306592
0.00032427
0.000323218
0.000305427
0.000264259
0.000221149
0.000186636
0.000153018
0.000139218
0.000127881
0.000109738
3.95639e-05
3.95038e-05
0.000108563
0.000124657
0.000135185
0.000157268