/*--------------------------------*- C++ -*----------------------------------*\
  =========                 |
  \\      /  F ield         | OpenFOAM: The Open Source CFD Toolbox
   \\    /   O peration     | Website:  https://openfoam.org
    \\  /    A nd           | Version:  6
     \\/     M anipulation  |
\*---------------------------------------------------------------------------*/
FoamFile
{
    version     2.0;
    format      ascii;
    class       volScalarField;
    location    "20";
    object      nut;
}
// * * * * * * * * * * * * * * * * * * * * * * * * * * * * * * * * * * * * * //

dimensions      [0 2 -1 0 0 0 0];

internalField   nonuniform List<scalar> 
130000
(
0.000899916
0.00090433
0.000908067
0.000911018
0.000913263
0.000914883
0.000915959
0.000916568
0.000916781
0.000916663
0.000916273
0.00091566
0.000914865
0.000913922
0.000912859
0.000911701
0.000910475
0.000909198
0.000907873
0.000906499
0.000899897
0.000904322
0.000908053
0.000910996
0.00091323
0.000914837
0.000915899
0.000916494
0.000916692
0.000916558
0.000916149
0.000915517
0.000914705
0.000913748
0.000912676
0.000911513
0.00091028
0.000908986
0.000907644
0.000906261
0.000900003
0.000904442
0.000908179
0.000911121
0.00091335
0.000914948
0.000915997
0.00091658
0.000916771
0.000916637
0.000916244
0.000915633
0.000914839
0.000913893
0.000912823
0.00091165
0.000910398
0.000909037
0.000907625
0.000906178
0.000900168
0.000904627
0.000908372
0.000911314
0.000913543
0.000915149
0.000916223
0.000916841
0.000917067
0.000916969
0.000916608
0.000916
0.000915191
0.00091422
0.000913116
0.000911897
0.000910605
0.000909177
0.000907711
0.000906201
0.00090036
0.000904843
0.000908605
0.000911575
0.000913847
0.000915502
0.000916629
0.000917267
0.000917493
0.000917382
0.000916996
0.000916355
0.000915516
0.000914512
0.000913368
0.000912099
0.00091075
0.000909325
0.000907834
0.000906287
0.000900567
0.000905085
0.000908889
0.000911924
0.00091424
0.000915912
0.00091703
0.000917645
0.000917843
0.000917689
0.000917233
0.000916553
0.000915682
0.000914652
0.000913488
0.000912214
0.000910849
0.000909408
0.000907901
0.000906339
0.000900771
0.000905339
0.000909192
0.00091227
0.000914578
0.000916223
0.000917286
0.000917871
0.000918045
0.000917873
0.000917413
0.000916717
0.000915826
0.000914776
0.000913594
0.000912303
0.00091092
0.000909462
0.000907941
0.000906367
0.000900949
0.000905556
0.000909432
0.000912488
0.000914778
0.000916417
0.000917485
0.000918063
0.000918226
0.000918041
0.000917567
0.000916855
0.000915948
0.000914879
0.000913678
0.000912369
0.000910969
0.000909495
0.000907959
0.000906372
0.000901093
0.000905719
0.0009096
0.000912651
0.000914952
0.000916593
0.000917659
0.000918231
0.000918385
0.000918188
0.0009177
0.000916973
0.000916048
0.000914962
0.000913743
0.000912416
0.000910999
0.000909508
0.000907957
0.000906355
0.000901222
0.000905864
0.000909754
0.000912812
0.000915116
0.000916756
0.000917817
0.000918382
0.000918526
0.000918318
0.000917816
0.000917073
0.000916131
0.000915028
0.000913791
0.000912446
0.000911013
0.000909506
0.00090794
0.000906326
0.000901344
0.000905999
0.000909896
0.000912967
0.000915274
0.000916912
0.000917967
0.000918523
0.000918657
0.000918435
0.000917919
0.00091716
0.000916202
0.000915081
0.000913827
0.000912465
0.000911014
0.000909492
0.000907913
0.000906287
0.000901464
0.000906131
0.000910029
0.000913125
0.000915432
0.000917064
0.000918112
0.000918659
0.00091878
0.000918546
0.000918015
0.00091724
0.000916265
0.000915126
0.000913854
0.000912474
0.000911006
0.000909468
0.000907873
0.000906234
0.000901591
0.000906274
0.000910182
0.000913286
0.000915592
0.000917218
0.000918257
0.000918793
0.000918903
0.000918654
0.000918108
0.000917317
0.000916324
0.000915167
0.000913876
0.000912478
0.000910992
0.000909437
0.000907825
0.000906165
0.000901729
0.000906432
0.000910357
0.00091343
0.000915756
0.000917375
0.000918405
0.00091893
0.000919027
0.000918764
0.000918202
0.000917394
0.000916383
0.000915207
0.000913897
0.00091248
0.000910976
0.000909403
0.000907774
0.000906098
0.000901874
0.000906588
0.000910513
0.000913568
0.000915899
0.000917532
0.000918558
0.000919074
0.000919157
0.000918879
0.000918301
0.000917474
0.000916444
0.000915249
0.000913919
0.000912481
0.000910959
0.000909369
0.000907729
0.000906054
0.000902032
0.00090676
0.000910688
0.000913734
0.000916041
0.000917706
0.000918726
0.000919228
0.000919296
0.000919002
0.000918405
0.00091756
0.00091651
0.000915294
0.000913943
0.000912485
0.000910942
0.000909335
0.000907682
0.000906005
0.000902205
0.000906949
0.00091089
0.000913951
0.00091623
0.000917884
0.000918905
0.000919391
0.000919443
0.000919131
0.000918517
0.000917652
0.000916581
0.000915344
0.000913971
0.000912491
0.000910927
0.0009093
0.000907626
0.000905921
0.000902388
0.000907148
0.000911097
0.000914162
0.000916443
0.000918045
0.000919081
0.000919554
0.000919593
0.000919266
0.000918634
0.000917749
0.000916658
0.000915399
0.000914004
0.000912501
0.000910915
0.000909267
0.000907577
0.000905863
0.000902582
0.000907357
0.00091131
0.00091437
0.000916634
0.000918195
0.000919215
0.000919712
0.000919746
0.000919405
0.000918755
0.000917852
0.00091674
0.000915459
0.000914041
0.000912516
0.000910907
0.000909237
0.000907526
0.000905822
0.000902785
0.000907574
0.000911533
0.000914589
0.000916841
0.000918379
0.000919351
0.00091987
0.000919904
0.000919547
0.00091888
0.000917957
0.000916825
0.000915522
0.000914082
0.000912534
0.000910902
0.000909206
0.00090746
0.000905706
0.000902996
0.0009078
0.000911766
0.000914823
0.000917075
0.000918619
0.000919552
0.000920031
0.00092007
0.000919694
0.000919008
0.000918066
0.000916912
0.000915588
0.000914125
0.000912556
0.000910904
0.000909195
0.000907445
0.000905674
0.000903215
0.000908035
0.000912007
0.000915064
0.000917311
0.000918847
0.000919773
0.000920183
0.000920202
0.000919836
0.00091914
0.000918176
0.000917
0.000915653
0.000914168
0.000912574
0.0009109
0.00090917
0.000907391
0.00090562
0.000903443
0.000908279
0.000912257
0.000915313
0.000917553
0.000919076
0.00091998
0.000920349
0.000920332
0.000919987
0.000919277
0.000918287
0.000917088
0.00091572
0.000914214
0.000912601
0.000910903
0.000909149
0.000907379
0.000905651
0.00090368
0.000908531
0.000912516
0.000915571
0.000917803
0.000919316
0.000920207
0.000920568
0.000920479
0.000920103
0.000919397
0.000918388
0.000917171
0.000915783
0.000914262
0.000912643
0.000910946
0.000909193
0.00090747
0.000905725
0.000903926
0.000908793
0.000912784
0.000915837
0.000918061
0.000919561
0.000920434
0.000920769
0.000920645
0.000920203
0.000919483
0.000918481
0.00091725
0.000915825
0.000914261
0.000912612
0.00091091
0.000909177
0.00090736
0.000905547
0.000904182
0.000909066
0.000913062
0.000916113
0.000918328
0.000919815
0.000920673
0.000920994
0.000920858
0.000920335
0.00091955
0.00091853
0.000917303
0.000915854
0.000914259
0.000912575
0.000910835
0.000909105
0.000907249
0.000905414
0.00090445
0.000909351
0.000913353
0.0009164
0.000918606
0.000920079
0.00092092
0.00092122
0.000921062
0.000920519
0.000919647
0.000918558
0.000917321
0.00091589
0.000914324
0.000912624
0.000910878
0.000909144
0.000907335
0.000905496
0.00090473
0.000909648
0.000913656
0.000916701
0.000918897
0.000920355
0.000921177
0.000921455
0.000921274
0.000920706
0.000919818
0.000918662
0.000917341
0.000915905
0.000914332
0.000912616
0.000910911
0.000909149
0.00090736
0.000905535
0.000905024
0.00090996
0.000913974
0.000917016
0.000919203
0.000920646
0.00092145
0.000921707
0.000921503
0.000920911
0.000919999
0.000918829
0.000917444
0.000915951
0.000914335
0.000912635
0.000910898
0.000909137
0.000907402
0.000905604
0.000905331
0.000910287
0.000914308
0.000917347
0.000919525
0.000920955
0.000921742
0.00092198
0.000921755
0.000921142
0.000920207
0.000919008
0.000917601
0.000916024
0.000914337
0.000912641
0.000910906
0.000909163
0.000907448
0.000905708
0.000905653
0.000910629
0.000914658
0.000917696
0.000919866
0.000921283
0.000922054
0.000922275
0.000922031
0.000921398
0.00092044
0.000919213
0.000917765
0.000916132
0.00091446
0.000912744
0.000910998
0.00090924
0.000907443
0.000905745
0.00090599
0.000910987
0.000915024
0.000918062
0.000920224
0.00092163
0.000922388
0.000922594
0.000922334
0.000921686
0.000920713
0.000919471
0.000918007
0.000916363
0.000914715
0.000912986
0.000911207
0.000909391
0.000907548
0.000905782
0.000906343
0.000911362
0.000915408
0.000918445
0.000920601
0.000921997
0.000922741
0.000922934
0.000922664
0.000922007
0.000921029
0.000919786
0.000918327
0.000916687
0.000914978
0.000913206
0.000911394
0.000909556
0.000907729
0.000905886
0.000906711
0.000911753
0.000915809
0.000918845
0.000920994
0.000922379
0.00092311
0.000923291
0.00092301
0.000922345
0.000921365
0.000920128
0.000918684
0.000917075
0.00091533
0.000913541
0.000911716
0.00090988
0.000908059
0.000906187
0.000907096
0.000912162
0.000916226
0.000919261
0.000921402
0.000922774
0.000923492
0.000923658
0.000923363
0.000922688
0.000921701
0.000920463
0.000919025
0.000917434
0.000915729
0.000913947
0.000912118
0.000910266
0.000908406
0.000906549
0.000907498
0.000912587
0.00091666
0.000919693
0.000921824
0.000923182
0.000923882
0.000924031
0.000923719
0.000923028
0.000922028
0.00092078
0.000919336
0.000917741
0.000916034
0.000914249
0.000912416
0.000910558
0.000908695
0.000906839
0.000907919
0.000913032
0.000917112
0.000920141
0.00092226
0.000923601
0.000924282
0.00092441
0.000924078
0.000923368
0.00092235
0.000921087
0.000919629
0.000918023
0.000916307
0.000914515
0.000912676
0.000910814
0.000908947
0.00090709
0.000908359
0.000913495
0.000917581
0.000920604
0.000922709
0.000924031
0.00092469
0.000924795
0.000924439
0.000923707
0.000922669
0.000921386
0.000919911
0.000918291
0.000916562
0.00091476
0.000912913
0.000911045
0.000909174
0.000907314
0.000908816
0.000913975
0.000918066
0.000921082
0.000923171
0.000924471
0.000925106
0.000925184
0.000924803
0.000924046
0.000922984
0.000921681
0.000920187
0.00091855
0.000916808
0.000914995
0.000913139
0.000911264
0.000909388
0.000907526
0.00090929
0.000914473
0.000918567
0.000921574
0.000923645
0.000924921
0.000925528
0.000925578
0.000925168
0.000924384
0.000923297
0.00092197
0.000920457
0.000918802
0.000917045
0.000915221
0.000913356
0.000911475
0.000909595
0.000907731
0.000909785
0.00091499
0.000919086
0.000922081
0.000924131
0.00092538
0.000925957
0.000925975
0.000925534
0.00092472
0.000923605
0.000922254
0.000920718
0.000919045
0.000917274
0.000915438
0.000913564
0.000911678
0.000909795
0.000907929
0.000910301
0.000915526
0.000919622
0.000922603
0.000924629
0.000925848
0.000926391
0.000926375
0.000925899
0.000925052
0.000923908
0.000922529
0.00092097
0.000919278
0.00091749
0.000915642
0.00091376
0.000911868
0.000909983
0.000908117
0.000910839
0.000916084
0.000920178
0.000923142
0.00092514
0.000926325
0.000926831
0.000926777
0.000926264
0.000925381
0.000924204
0.000922796
0.000921211
0.000919498
0.000917693
0.000915832
0.000913941
0.000912044
0.000910157
0.000908292
0.000911401
0.000916665
0.000920754
0.000923697
0.000925665
0.000926812
0.000927277
0.000927181
0.000926627
0.000925705
0.000924492
0.000923053
0.000921441
0.000919704
0.000917882
0.000916007
0.000914107
0.000912205
0.000910315
0.000908451
0.00091199
0.000917271
0.000921352
0.000924271
0.000926203
0.000927309
0.000927729
0.000927586
0.000926987
0.000926024
0.000924772
0.000923298
0.000921657
0.000919897
0.000918055
0.000916166
0.000914257
0.00091235
0.000910459
0.000908597
0.000912607
0.000917902
0.000921971
0.000924862
0.000926754
0.000927814
0.000928183
0.00092799
0.000927342
0.000926333
0.00092504
0.00092353
0.000921857
0.000920071
0.00091821
0.000916307
0.000914389
0.000912477
0.000910586
0.000908727
0.000913247
0.000918556
0.00092261
0.000925468
0.000927316
0.000928323
0.000928637
0.000928389
0.000927687
0.000926628
0.00092529
0.000923741
0.000922036
0.000920223
0.000918341
0.000916424
0.000914498
0.000912583
0.000910693
0.000908839
0.00091392
0.000919234
0.000923268
0.000926087
0.000927884
0.000928833
0.000929085
0.000928775
0.000928014
0.0009269
0.000925513
0.000923922
0.000922181
0.000920341
0.000918439
0.000916508
0.000914575
0.000912659
0.000910773
0.000908926
0.00091461
0.000919931
0.000923939
0.000926713
0.000928452
0.000929334
0.000929517
0.000929138
0.000928311
0.000927136
0.000925695
0.000924058
0.00092228
0.00092041
0.000918487
0.000916545
0.000914606
0.000912692
0.000910813
0.000908979
0.000915326
0.000920646
0.00092462
0.000927339
0.000929009
0.000929815
0.000929919
0.00092946
0.000928559
0.000927316
0.000925815
0.000924126
0.000922307
0.000920407
0.000918463
0.000916509
0.000914568
0.00091266
0.000910794
0.000908978
0.000916062
0.000921373
0.0009253
0.000927952
0.00092954
0.000930256
0.000930267
0.000929717
0.00092873
0.000927408
0.000925838
0.000924093
0.000922228
0.000920295
0.000918331
0.000916368
0.000914429
0.000912532
0.000910687
0.000908897
0.000916816
0.0009221
0.000925964
0.00092853
0.000930018
0.000930627
0.000930527
0.00092987
0.000928781
0.000927368
0.000925718
0.000923906
0.00092199
0.000920021
0.000918037
0.000916068
0.000914137
0.000912261
0.000910446
0.000908696
0.000917583
0.000922809
0.000926584
0.000929041
0.000930405
0.000930882
0.000930648
0.00092986
0.000928648
0.000927124
0.000925379
0.000923489
0.000921514
0.000919505
0.000917501
0.000915531
0.000913618
0.000911774
0.000910006
0.000908315
0.000918297
0.000923452
0.000927113
0.000929431
0.000930639
0.00093095
0.000930549
0.000929598
0.000928234
0.000926573
0.000924709
0.000922724
0.000920678
0.000918624
0.0009166
0.000914637
0.000912753
0.000910961
0.000909263
0.000907658
0.000918956
0.000923996
0.000927496
0.000929627
0.00093063
0.000930727
0.00093011
0.000928949
0.000927389
0.000925552
0.000923537
0.000921431
0.000919296
0.000917189
0.000915146
0.000913199
0.000911364
0.000909651
0.000908059
0.000906582
0.000919531
0.00092438
0.000927645
0.000929516
0.000930241
0.000930051
0.000929146
0.000927707
0.000925887
0.000923816
0.000921602
0.000919336
0.000917086
0.000914911
0.00091285
0.000910933
0.000909174
0.00090758
0.000906147
0.000904862
0.000919949
0.000924496
0.000927418
0.000928922
0.000929263
0.000928678
0.000927381
0.000925563
0.000923387
0.000920997
0.00091851
0.000916025
0.000913619
0.000911355
0.000909273
0.000907404
0.000905761
0.000904346
0.000903148
0.000902151
0.000920122
0.000924191
0.000926604
0.000927583
0.000927382
0.000926247
0.000924404
0.000922058
0.000919387
0.00091655
0.000913679
0.000910887
0.00090826
0.000905868
0.000903758
0.000901961
0.000900487
0.000899334
0.000898485
0.000897914
0.000919888
0.000923189
0.000924881
0.000925113
0.000924147
0.000922239
0.000919628
0.000916539
0.00091317
0.0009097
0.000906282
0.000903047
0.000900098
0.000897518
0.00089536
0.000893659
0.000892423
0.000891647
0.000891303
0.000891357
0.000919046
0.000921201
0.000921828
0.000920987
0.000918937
0.00091594
0.000912253
0.00090812
0.000903766
0.0008994
0.000895201
0.000891328
0.000887907
0.000885039
0.000882789
0.0008812
0.000880282
0.000880024
0.000880392
0.000881339
0.000917047
0.000917846
0.000916875
0.000914509
0.000910945
0.000906441
0.000901266
0.000895692
0.000889976
0.000884364
0.000879071
0.000874293
0.000870186
0.000866877
0.000864453
0.000862967
0.000862435
0.000862849
0.000864166
0.000866334
0.000913463
0.000912252
0.000909206
0.0009048
0.000899208
0.00089269
0.000885535
0.000878046
0.00087052
0.000863245
0.000856483
0.000850471
0.000845404
0.000841443
0.000838701
0.000837252
0.000837127
0.000838324
0.000840809
0.00084453
0.000907824
0.000903532
0.000898089
0.000891001
0.000882795
0.000873716
0.00086407
0.00085419
0.000844413
0.000835073
0.000826475
0.000818899
0.00081258
0.000807714
0.000804444
0.000802874
0.000803059
0.000805023
0.000808756
0.000814234
0.000899492
0.000891204
0.000882383
0.000872513
0.000861076
0.000848978
0.00083647
0.000823883
0.00081159
0.000799957
0.000789318
0.000779975
0.000772193
0.000766193
0.000762147
0.000760188
0.000760406
0.00076287
0.000767626
0.000774718
0.000887738
0.000874808
0.000861382
0.00084824
0.000834142
0.000818833
0.000803529
0.000788299
0.000773628
0.000759876
0.000747351
0.000736338
0.000727108
0.000719887
0.000714854
0.000712164
0.000711944
0.000714322
0.00071943
0.000727429
0.000872047
0.000853955
0.000836175
0.000818971
0.000802021
0.000784933
0.000767863
0.000750424
0.000734125
0.000719022
0.000705292
0.000693107
0.000682779
0.000674493
0.00066841
0.000664683
0.00066346
0.000664925
0.000669303
0.000676899
0.000852613
0.000829352
0.000808009
0.000787753
0.000768577
0.000750164
0.000732062
0.000714601
0.000698211
0.000683198
0.000669514
0.000656848
0.000646103
0.00063716
0.000630177
0.000625273
0.000622585
0.000622318
0.000624765
0.000630356
0.000830285
0.000802889
0.000779413
0.000758308
0.000738451
0.000719954
0.000702772
0.000686447
0.000671271
0.00065732
0.000644689
0.000633503
0.000623322
0.000614173
0.000606628
0.000600645
0.000596303
0.000593786
0.000593399
0.000595624
0.000806698
0.000777298
0.000753888
0.000734064
0.000716246
0.000699818
0.000684424
0.000670536
0.000658037
0.00064637
0.000635748
0.000626118
0.000617352
0.00060903
0.000601327
0.000594569
0.000588697
0.000583846
0.00058028
0.000578449
0.000784124
0.000755649
0.000734977
0.000718726
0.000704835
0.000692411
0.000681076
0.000670667
0.000660936
0.000651965
0.000643994
0.000636346
0.000629039
0.000621853
0.000614565
0.000607413
0.000600312
0.000593384
0.00058682
0.000580974
0.000765195
0.000740924
0.000725571
0.000714852
0.000706359
0.000699034
0.000692388
0.000686165
0.000680193
0.000674376
0.000668588
0.000662926
0.000657278
0.000651172
0.000644496
0.000637221
0.000629166
0.00062053
0.000611434
0.000602088
0.000752489
0.000735518
0.000727568
0.000723743
0.000721505
0.000719778
0.000718073
0.000716154
0.000713878
0.000711141
0.000707843
0.000703955
0.000699531
0.000694367
0.000688267
0.000681032
0.000672291
0.00066229
0.000651156
0.000638954
0.000748122
0.000740912
0.000741728
0.000745493
0.000749797
0.000753694
0.000756798
0.000758956
0.000760089
0.000760152
0.000759099
0.000756899
0.000753543
0.000749017
0.000743343
0.000736239
0.000727026
0.000715902
0.000703096
0.000688569
0.000753533
0.000757684
0.000767913
0.000779424
0.00079017
0.000799453
0.000807063
0.000812966
0.000817179
0.000819728
0.000820627
0.000819884
0.00081749
0.000813418
0.000807867
0.000800855
0.000791492
0.000779384
0.000765101
0.000748581
0.000769452
0.00078572
0.000805452
0.00082453
0.000841429
0.000855775
0.000867566
0.000876906
0.000883913
0.000888687
0.000891297
0.000891793
0.000890196
0.000886518
0.000881078
0.000874059
0.000864398
0.000851419
0.000835749
0.000817398
0.000796002
0.000824461
0.000853431
0.000879735
0.000902451
0.000921551
0.000937246
0.000949783
0.000959374
0.000966188
0.000970345
0.000971932
0.000971001
0.000967585
0.000962097
0.000954929
0.00094494
0.000931141
0.000914093
0.000893929
0.000832843
0.000873095
0.000910846
0.000943978
0.000972181
0.000995767
0.00101515
0.0010307
0.00104272
0.00105145
0.00105703
0.00105959
0.0010592
0.00105592
0.00105023
0.00104274
0.00103236
0.00101778
0.000999258
0.000977213
0.000879309
0.000930645
0.000976609
0.00101614
0.00104951
0.00107734
0.00110021
0.00111863
0.00113297
0.00114349
0.0011504
0.00115384
0.00115388
0.00115057
0.00114444
0.00113615
0.00112501
0.00110991
0.00109003
0.00106606
0.000934477
0.000995962
0.00104947
0.00109492
0.0011331
0.00116489
0.00119105
0.00121217
0.00122869
0.0012409
0.00124904
0.00125324
0.0012536
0.00125016
0.00124346
0.00123429
0.00122207
0.00120591
0.00118473
0.00115876
0.000997158
0.00106762
0.00112784
0.0011786
0.00122111
0.00125651
0.00128567
0.00130927
0.00132778
0.00134153
0.00135075
0.00135559
0.00135612
0.00135241
0.00134498
0.00133457
0.00132057
0.00130267
0.00128036
0.00125262
0.00106582
0.00114378
0.00120962
0.00126484
0.00131103
0.0013495
0.00138123
0.00140694
0.00142715
0.0014422
0.0014523
0.00145757
0.00145806
0.00145387
0.00144553
0.00143358
0.0014175
0.00139715
0.00137259
0.00134342
0.00113845
0.00122196
0.00129192
0.00135043
0.00139933
0.00144007
0.00147371
0.001501
0.00152243
0.00153841
0.00154915
0.00155458
0.00155458
0.00154952
0.0015399
0.00152588
0.0015072
0.00148401
0.00145634
0.00142412
0.00121238
0.00129887
0.0013709
0.00143102
0.00148124
0.00152311
0.00155772
0.00158579
0.00160758
0.00162393
0.00163531
0.00164115
0.00164157
0.00163625
0.001625
0.00160796
0.00158534
0.00155749
0.00152511
0.00148912
0.00128411
0.00137017
0.00144148
0.00150087
0.00155054
0.00159188
0.00162595
0.00165422
0.00167712
0.00169358
0.00170253
0.00170329
0.00169888
0.00168883
0.00167333
0.00165264
0.00162682
0.00159628
0.00156152
0.00152331
0.00134918
0.00143036
0.00149719
0.00155287
0.00159913
0.00163687
0.00166822
0.001693
0.00170986
0.00172434
0.00173292
0.00173735
0.00173412
0.00172329
0.00170513
0.00168075
0.00164967
0.00161235
0.00156944
0.00152168
0.00140211
0.00147282
0.00153077
0.00157749
0.00161404
0.00164691
0.00167495
0.00169815
0.00171834
0.00172935
0.00173563
0.00173533
0.00172715
0.0017107
0.00168562
0.00165331
0.00161438
0.00156895
0.00151791
0.00146292
0.00143655
0.00149099
0.00153241
0.00156389
0.0015946
0.00161928
0.00163939
0.00165726
0.00167214
0.00168268
0.00168747
0.00168482
0.00167304
0.00165072
0.00161697
0.00157363
0.00152233
0.00146266
0.00139569
0.00132488
0.0014464
0.00147599
0.00149501
0.00151271
0.00152412
0.00153571
0.001548
0.00156085
0.00157313
0.00158278
0.00158707
0.00158293
0.00156728
0.0015375
0.00149181
0.00143255
0.00136216
0.00128028
0.00119017
0.00109689
0.00142314
0.00141847
0.0014101
0.00140066
0.00139417
0.0013925
0.00139664
0.00140615
0.00141894
0.00143139
0.00143868
0.00143541
0.00141638
0.00137731
0.00131548
0.00123456
0.00113652
0.00102288
0.000904023
0.000789714
0.00135778
0.00131355
0.00127091
0.00123513
0.001208
0.00119293
0.00119153
0.00120296
0.00122334
0.00124603
0.00126242
0.00126307
0.00123989
0.00118765
0.00110465
0.000998503
0.000869289
0.000728015
0.000589041
0.000465047
0.00125102
0.00116488
0.00108729
0.00102354
0.000977685
0.000954413
0.000956343
0.000981312
0.00102135
0.0010641
0.00109509
0.00109784
0.00106238
0.000988014
0.000885371
0.000760512
0.000626552
0.000490576
0.000366224
0.000284295
0.00109167
0.000970673
0.000866965
0.00078649
0.000734116
0.000717278
0.000739491
0.000793932
0.00086231
0.000921207
0.000950576
0.000942791
0.000898743
0.000827688
0.000728972
0.000607733
0.000477121
0.000345405
0.000259899
0.000205548
0.000887133
0.000747024
0.000636814
0.000572381
0.000560713
0.000606861
0.000691328
0.000778466
0.000846001
0.000886633
0.00089702
0.000878624
0.000832904
0.000756545
0.000650854
0.000522523
0.000387142
0.000271474
0.000201937
0.000172903
0.000646582
0.000515491
0.000443348
0.000442167
0.000516693
0.000622833
0.000723646
0.000801575
0.000852864
0.000879508
0.000882357
0.000859958
0.000810292
0.00072863
0.000614561
0.000476511
0.000336177
0.000227509
0.000176023
0.000177851
0.000383467
0.00030816
0.000321048
0.000417222
0.000546421
0.000668281
0.000762119
0.000825621
0.000863014
0.000878547
0.000874946
0.00085149
0.000804255
0.000725349
0.000609453
0.000462663
0.000312799
0.00020486
0.000175559
0.000195631
0.00020396
0.000213292
0.000299726
0.000441948
0.000590844
0.000710744
0.000791516
0.00083891
0.000862456
0.00086993
0.000865532
0.000848263
0.000811935
0.000746911
0.00064071
0.000491991
0.00032857
0.000207674
0.000182629
0.00020415
0.000165123
0.000187641
0.000303853
0.000474075
0.000632416
0.000744275
0.00081024
0.000844006
0.000858374
0.000862139
0.000859623
0.00085082
0.000830414
0.000786187
0.000701847
0.000566028
0.000393789
0.000250395
0.000198132
0.000206644
0.000148121
0.000179303
0.000323555
0.000525865
0.000688844
0.000784084
0.00083058
0.000848986
0.000854942
0.000856012
0.000854593
0.000850502
0.000840865
0.000819058
0.000769211
0.00066397
0.000494278
0.000309708
0.000208463
0.000206733
0.000164475
0.000224811
0.000452314
0.000678154
0.000791962
0.000835736
0.000849238
0.000852995
0.000853851
0.000853712
0.000853183
0.000851874
0.000849267
0.000842034
0.000820074
0.000756897
0.000611902
0.000419389
0.000282226
0.000226584
0.000390552
0.000610645
0.000738441
0.000802954
0.000834111
0.000846498
0.000850887
0.000852377
0.000852668
0.000852588
0.00085231
0.000852031
0.000851228
0.000848969
0.000842368
0.000822132
0.000759947
0.000580112
0.000347022
0.000253032
0.000901336
0.000901813
0.000902438
0.000902928
0.000903296
0.000903557
0.000903723
0.000903802
0.000903801
0.000903727
0.000903581
0.000903368
0.000903097
0.000902766
0.000902362
0.000901897
0.000901371
0.000900782
0.000900119
0.000899367
0.000901148
0.000901628
0.000902241
0.00090272
0.000903078
0.000903328
0.000903483
0.00090355
0.000903537
0.00090345
0.000903295
0.000903073
0.000902792
0.000902453
0.000902047
0.000901589
0.000901084
0.000900532
0.000899921
0.000899221
0.000901016
0.000901483
0.000902084
0.000902553
0.000902902
0.000903143
0.000903283
0.000903331
0.000903294
0.000903183
0.000903007
0.000902764
0.000902452
0.000902087
0.000901667
0.000901214
0.000900746
0.000900266
0.000899774
0.000899212
0.000900852
0.000901306
0.000901901
0.000902373
0.00090273
0.000902976
0.000903111
0.000903138
0.00090306
0.000902895
0.000902688
0.000902458
0.000902192
0.000901887
0.000901529
0.000901146
0.000900771
0.000900321
0.000899791
0.00089924
0.000900645
0.000901076
0.000901669
0.000902175
0.00090259
0.000902896
0.000903082
0.000903135
0.000903036
0.000902887
0.000902749
0.00090264
0.000902453
0.000902168
0.000901837
0.000901479
0.00090109
0.000900578
0.000899977
0.000899422
0.000900419
0.00090084
0.000901446
0.000902
0.000902519
0.00090296
0.000903263
0.000903415
0.000903399
0.000903316
0.000903244
0.000903185
0.000902985
0.000902667
0.000902307
0.00090189
0.000901373
0.000900846
0.000900306
0.00089977
0.000900453
0.000900889
0.000901489
0.000902032
0.000902584
0.000903099
0.00090346
0.000903742
0.000903915
0.000903918
0.000903878
0.000903735
0.000903479
0.000903126
0.000902685
0.000902212
0.000901704
0.000901167
0.000900598
0.000900064
0.000900825
0.000901274
0.00090185
0.000902317
0.000902815
0.000903233
0.000903608
0.000903957
0.000904202
0.000904304
0.000904276
0.000904132
0.000903848
0.000903451
0.000902997
0.000902535
0.000902033
0.000901474
0.000900833
0.00090027
0.0009013
0.000901714
0.000902272
0.000902726
0.00090318
0.000903444
0.000903846
0.000904104
0.000904247
0.000904245
0.000904175
0.000904053
0.000903841
0.00090353
0.000903184
0.000902783
0.00090231
0.000901757
0.000901087
0.000900446
0.000901586
0.000902058
0.000902664
0.000903167
0.00090346
0.00090362
0.000903891
0.000904035
0.000904079
0.000904033
0.000903978
0.000903877
0.000903718
0.00090351
0.000903231
0.000902877
0.000902439
0.000901924
0.000901322
0.000900642
0.000901619
0.000902133
0.000902763
0.000903172
0.000903363
0.000903389
0.000903494
0.000903566
0.000903604
0.000903582
0.000903544
0.000903443
0.000903298
0.00090312
0.000902862
0.000902522
0.000902104
0.000901598
0.000900989
0.000900338
0.000901198
0.000901714
0.00090231
0.00090273
0.000902977
0.000903088
0.000903248
0.000903358
0.000903414
0.00090333
0.00090324
0.000903025
0.000902813
0.000902595
0.000902294
0.000901921
0.000901476
0.000900948
0.000900322
0.000899714
0.000900794
0.000901372
0.000902084
0.000902654
0.000903042
0.000903298
0.000903538
0.000903665
0.000903653
0.000903491
0.000903289
0.000902994
0.000902757
0.000902546
0.000902225
0.000901808
0.000901313
0.000900747
0.000900123
0.000899473
0.000900599
0.00090127
0.000902138
0.000902781
0.000903203
0.000903448
0.000903592
0.000903722
0.000903761
0.000903742
0.000903675
0.000903507
0.000903298
0.000903097
0.000902721
0.00090224
0.00090165
0.000900971
0.00090027
0.000899538
0.000900834
0.000901416
0.000902118
0.00090268
0.000903073
0.000903388
0.000903555
0.000903732
0.000903846
0.000903952
0.000903917
0.000903771
0.00090353
0.000903215
0.000902795
0.000902279
0.000901627
0.000900909
0.000900196
0.000899476
0.000901037
0.000901543
0.000902173
0.000902663
0.000903101
0.000903466
0.000903652
0.000903839
0.000903861
0.000903767
0.000903642
0.000903417
0.000903115
0.00090276
0.000902331
0.000901845
0.00090123
0.000900556
0.00089983
0.000899084
0.000901162
0.000901662
0.000902306
0.000902869
0.000903382
0.000903698
0.000903922
0.000904075
0.000904086
0.000903961
0.00090371
0.000903375
0.000903007
0.000902601
0.000902106
0.00090162
0.000901076
0.000900469
0.000899835
0.00089912
0.000901584
0.000902094
0.000902729
0.00090325
0.000903679
0.000903963
0.000904143
0.00090428
0.00090428
0.000904202
0.000903985
0.000903674
0.000903305
0.000902858
0.000902265
0.000901684
0.00090114
0.000900568
0.00089997
0.000899264
0.000902054
0.000902585
0.000903165
0.000903602
0.000903914
0.000904104
0.000904252
0.000904292
0.000904282
0.000904232
0.000904058
0.000903791
0.000903454
0.000903032
0.000902471
0.000901779
0.000901215
0.000900663
0.000900024
0.000899341
0.00090244
0.000902846
0.000903352
0.000903705
0.000903936
0.000904083
0.000904191
0.000904204
0.000904152
0.000904043
0.000903867
0.000903626
0.000903335
0.000902979
0.000902499
0.000901875
0.000901352
0.000900871
0.000900252
0.000899532
0.00090264
0.000903014
0.000903471
0.000903757
0.0009039
0.000903933
0.000903909
0.000903851
0.000903737
0.000903576
0.000903376
0.000903145
0.000902896
0.000902626
0.00090229
0.000901906
0.000901469
0.000900961
0.000900357
0.000899642
0.000902863
0.000903239
0.000903687
0.000903953
0.00090406
0.000904041
0.000903942
0.000903798
0.000903594
0.000903365
0.00090312
0.00090288
0.00090265
0.000902428
0.000902169
0.00090188
0.000901537
0.000901112
0.00090058
0.000899929
0.000903131
0.000903536
0.000904015
0.000904312
0.000904449
0.000904454
0.000904348
0.000904166
0.000903915
0.00090361
0.000903226
0.000902875
0.000902589
0.00090236
0.000902147
0.000901948
0.000901732
0.000901407
0.000900952
0.000900366
0.000903405
0.00090385
0.000904373
0.00090472
0.000904914
0.000904977
0.000904927
0.000904781
0.000904553
0.000904235
0.0009038
0.000903361
0.000903033
0.0009028
0.000902635
0.000902451
0.000902228
0.000901886
0.00090143
0.000900857
0.000903652
0.000904129
0.000904687
0.000905075
0.000905312
0.000905423
0.000905424
0.000905333
0.000905163