/*--------------------------------*- C++ -*----------------------------------*\
  =========                 |
  \\      /  F ield         | OpenFOAM: The Open Source CFD Toolbox
   \\    /   O peration     | Website:  https://openfoam.org
    \\  /    A nd           | Version:  6
     \\/     M anipulation  |
\*---------------------------------------------------------------------------*/
FoamFile
{
    version     2.0;
    format      ascii;
    class       volScalarField;
    location    "20";
    object      p;
}
// * * * * * * * * * * * * * * * * * * * * * * * * * * * * * * * * * * * * * //

dimensions      [0 2 -2 0 0 0 0];

internalField   nonuniform List<scalar> 
10000
(
0.0127581
0.00989549
0.00905934
0.0102695
0.0100733
0.00970081
0.00975773
0.0102176
0.0108822
0.0112362
0.0111939
0.0104297
0.00864772
0.00587257
0.00206468
-0.00191958
-0.00557355
-0.0085332
-0.00516352
0.00246187
0.0186698
0.0158567
0.0218095
0.0344225
0.0448035
0.0509477
0.0538177
0.0553001
0.0563597
0.0569008
0.0571523
0.0564251
0.055425
0.0532374
0.049547
0.0429815
0.0328025
0.0219384
0.0173565
0.0192395
0.0633404
0.058714
0.0593626
0.0669986
0.0774667
0.0876508
0.0957075
0.101214
0.104565
0.106283
0.106748
0.106053
0.104163
0.101511
0.0984763
0.0953692
0.0924751
0.0904052
0.0882744
0.0856117
0.128456
0.128635
0.129125
0.133119
0.139586
0.146191
0.151782
0.155962
0.158718
0.160371
0.161118
0.161265
0.161017
0.160542
0.159808
0.159074
0.157841
0.155928
0.153647
0.151133
0.212392
0.217917
0.218961
0.217098
0.215611
0.214938
0.215374
0.216313
0.217419
0.218312
0.219059
0.219932
0.220937
0.22269
0.224954
0.227761
0.23064
0.232281
0.230574
0.226215
0.278396
0.282614
0.28441
0.282405
0.27915
0.27617
0.274409
0.273745
0.273861
0.274349
0.274969
0.275845
0.277332
0.27975
0.283188
0.287447
0.29139
0.293516
0.292279
0.289286
0.325254
0.323617
0.323384
0.322752
0.32209
0.322314
0.323136
0.324312
0.325574
0.326767
0.327976
0.329341
0.330811
0.33241
0.333843
0.334921
0.335469
0.335125
0.334793
0.33639
0.373935
0.370999
0.370634
0.371471
0.37242
0.374049
0.375803
0.377487
0.378814
0.379945
0.38067
0.381127
0.38139
0.381075
0.380038
0.378331
0.376496
0.375005
0.374961
0.377589
0.435406
0.435345
0.436289
0.437334
0.437579
0.436967
0.436158
0.435607
0.43536
0.435158
0.434827
0.434102
0.43254
0.429974
0.426421
0.421949
0.417569
0.414857
0.415845
0.419742
0.502251
0.504472
0.505301
0.504292
0.5023
0.499381
0.496622
0.494541
0.493208
0.4924
0.49184
0.490966
0.48973
0.487817
0.485393
0.482725
0.48004
0.478698
0.479502
0.480771
0.557217
0.556567
0.556231
0.555946
0.555211
0.553925
0.552379
0.551022
0.550022
0.549436
0.549132
0.549277
0.549673
0.550916
0.552912
0.555621
0.558652
0.561156
0.560457
0.555669
0.608101
0.606678
0.605637
0.605574
0.606041
0.606322
0.606076
0.605664
0.605206
0.604975
0.604857
0.605126
0.605954
0.607518
0.60993
0.613191
0.616694
0.619393
0.61945
0.616872
0.655839
0.65366
0.652057
0.652592
0.654637
0.656847
0.65846
0.659332
0.659722
0.659848
0.66006
0.660393
0.660771
0.661281
0.661917
0.662517
0.663144
0.663758
0.664601
0.666524
0.706965
0.70744
0.708404
0.7103
0.712437
0.714017
0.714882
0.715264
0.715391
0.715512
0.715696
0.715855
0.716219
0.716364
0.716357
0.716026
0.715562
0.715368
0.715382
0.716411
0.760781
0.765391
0.76848
0.769048
0.768784
0.76845
0.768458
0.768621
0.76889
0.769115
0.76943
0.769799
0.770088
0.770215
0.769891
0.768687
0.767032
0.765631
0.765265
0.766293
0.809765
0.808966
0.808806
0.810222
0.812688
0.815618
0.818175
0.819958
0.821048
0.82178
0.82225
0.822476
0.822793
0.822965
0.823044
0.822856
0.822308
0.821455
0.820596
0.820292
0.870831
0.871001
0.869816
0.868324
0.868422
0.869829
0.871536
0.872972
0.873904
0.874304
0.874245
0.873895
0.87305
0.872136
0.871338
0.871119
0.871767
0.872258
0.871472
0.86951
0.930252
0.930162
0.929412
0.927558
0.926205
0.926066
0.926802
0.927886
0.928806
0.929257
0.929218
0.928448
0.927007
0.924347
0.920481
0.915996
0.911618
0.908718
0.909752
0.91338
0.994783
0.994633
0.994515
0.992895
0.990566
0.988683
0.987636
0.98738
0.987575
0.987816
0.988024
0.988066
0.987757
0.987044
0.98587
0.984164
0.982501
0.981805
0.982113
0.982166
1.06481
1.06491
1.06453
1.06232
1.05858
1.05461
1.05142
1.04947
1.04846
1.04815
1.04807
1.04833
1.04928
1.05126
1.05476
1.05961
1.06479
1.06837
1.06707
1.0612
1.12547
1.12539
1.12484
1.12288
1.11942
1.11534
1.11173
1.10901
1.10734
1.10645
1.10621
1.10659
1.10743
1.10936
1.11245
1.11655
1.12103
1.12393
1.12364
1.12152
1.16883
1.1671
1.16698
1.1676
1.16763
1.16672
1.16537
1.16383
1.16266
1.16205
1.16206
1.16241
1.16333
1.16418
1.16468
1.16453
1.16368
1.16257
1.16298
1.1665
1.20828
1.20602
1.20624
1.20886
1.21188
1.2138
1.21461
1.2146
1.21436
1.21417
1.21432
1.21484
1.21558
1.21628
1.21659
1.21598
1.21446
1.21262
1.21189
1.21351
1.25584
1.25565
1.25512
1.25601
1.25831
1.26069
1.26274
1.26416
1.26495
1.26537
1.26546
1.26525
1.26473
1.26369
1.26249
1.26152
1.26082
1.26056
1.26034
1.25969
1.30692
1.30609
1.30464
1.30604
1.3093
1.31266
1.31551
1.31732
1.31822
1.31839
1.31822
1.31761
1.31623
1.31395
1.31073
1.30684
1.30325
1.30135
1.3022
1.30405
1.36644
1.36867
1.36978
1.37043
1.3714
1.37258
1.3737
1.37441
1.3747
1.37451
1.37393
1.37281
1.37138
1.3694
1.36702
1.36442
1.36176
1.35972
1.3596
1.36046
1.43086
1.43462
1.43687
1.43556
1.43343
1.4321
1.43157
1.43153
1.43178
1.43183
1.43169
1.43133
1.4307
1.43017
1.42988
1.43009
1.4306
1.43053
1.43022
1.42916
1.49293
1.49606
1.49779
1.49643
1.49378
1.49132
1.48978
1.48921
1.48927
1.48965
1.49015
1.49075
1.49192
1.49375
1.49646
1.49994
1.50334
1.50549
1.50544
1.50292
1.54608
1.54454
1.54482
1.54559
1.54569
1.54552
1.54528
1.54518
1.54542
1.54596
1.54682
1.54813
1.54997
1.55285
1.55673
1.56131
1.5657
1.56854
1.56858
1.56606
1.60136
1.59953
1.59945
1.59989
1.60013
1.60048
1.60074
1.601
1.60132
1.60185
1.60265
1.60369
1.6052
1.60679
1.60836
1.60969
1.61041
1.61042
1.61082
1.61232
1.65828
1.65625
1.65529
1.65568
1.65613
1.6565
1.65662
1.65664
1.65658
1.65648
1.65647
1.6566
1.65664
1.65637
1.65552
1.65377
1.65176
1.65037
1.65082
1.65326
1.71802
1.71856
1.71889
1.7192
1.71868
1.71733
1.71546
1.71364
1.71215
1.71104
1.70996
1.70874
1.70711
1.70462
1.70116
1.69669
1.69203
1.68923
1.69032
1.69339
1.76763
1.77065
1.77217
1.77141
1.7697
1.768
1.76669
1.76573
1.7651
1.76469
1.76437
1.76388
1.76273
1.76094
1.75843
1.75533
1.75212
1.75007
1.74985
1.74958
1.80698
1.80254
1.80041
1.80194
1.80534
1.80965
1.81356
1.81645
1.81815
1.81935
1.8201
1.82076
1.82138
1.82217
1.82332
1.82497
1.82678
1.82785
1.82541
1.81932
1.86972
1.86835
1.8668
1.86689
1.86864
1.87094
1.87308
1.87464
1.87562
1.87613
1.87648
1.8769
1.87735
1.87822
1.87943
1.88103
1.8827
1.88357
1.88225
1.87913
1.94409
1.94956
1.95151
1.9493
1.94562
1.9414
1.93813
1.93597
1.93483
1.93408
1.93363
1.93313
1.93288
1.9326
1.93232
1.93204
1.93158
1.931
1.93108
1.93218
2.00206
2.00509
2.00661
2.00516
2.00197
1.99806
1.99464
1.99211
1.99054
1.98956
1.98905
1.98881
1.98876
1.9888
1.98887
1.98896
1.98904
1.98894
1.98847
1.98792
2.04528
2.04369
2.0437
2.045
2.04608
2.04654
2.04604
2.04511
2.04409
2.04348
2.04301
2.04278
2.04266
2.0425
2.04231
2.04208
2.04171
2.04117
2.04046
2.03974
2.08859
2.08782
2.08825
2.09039
2.0931
2.09565
2.09722
2.09796
2.09802
2.09791
2.09775
2.09771
2.09747
2.09709
2.09632
2.09513
2.09371
2.0924
2.0916
2.09107
2.13872
2.13808
2.13765
2.13959
2.14288
2.14654
2.14959
2.15188
2.15323
2.15411
2.15463
2.15516
2.15559
2.15585
2.15556
2.15459
2.15307
2.15169
2.15088
2.15027
2.20535
2.20773
2.2085
2.20907
2.20957
2.21001
2.2104
2.21086
2.21136
2.21194
2.21265
2.21378
2.21522
2.2172
2.21931
2.22132
2.22279
2.22323
2.2218
2.21907
2.27455
2.2808
2.28344
2.2813
2.27721
2.27321
2.27038
2.26877
2.26795
2.2678
2.26783
2.26838
2.26935
2.2711
2.27383
2.27758
2.28162
2.2841
2.28237
2.27757
2.32679
2.32709
2.32808
2.32839
2.32749
2.32606
2.32451
2.323
2.32175
2.32081
2.32009
2.31934
2.31818
2.31642
2.31389
2.31108
2.30839
2.30637
2.3068
2.30995
2.37483
2.37452
2.37545
2.37664
2.37751
2.37778
2.37733
2.37645
2.37543
2.37445
2.37348
2.37227
2.37052
2.36762
2.36303
2.35685
2.35007
2.34523
2.34567
2.35041
2.41976
2.41803
2.41776
2.41996
2.42295
2.42581
2.42782
2.42909
2.42965
2.42983
2.42972
2.42942
2.42865
2.42768
2.42627
2.42439
2.42238
2.42118
2.42007
2.41764
2.47674
2.47623
2.47578
2.47765
2.48053
2.48332
2.48532
2.48673
2.48752
2.48825
2.48874
2.48943
2.49031
2.49176
2.49388
2.49691
2.50037
2.50289
2.50089
2.49416
2.54665
2.55087
2.55171
2.55048
2.54907
2.54797
2.54722
2.54682
2.54664
2.54667
2.54692
2.54779
2.54925
2.55174
2.5551
2.55926
2.56321
2.56524
2.56359
2.5593
2.60993
2.61352
2.61546
2.6148
2.61232
2.60938
2.60686
2.60497
2.60377
2.60319
2.60317
2.60375
2.60483
2.60627
2.60783
2.60929
2.6102
2.61006
2.60983
2.61065
2.66242
2.66432
2.66572
2.66593
2.66464
2.66254
2.66046
2.65885
2.65773
2.65718
2.65707
2.65733
2.65763
2.6579
2.65786
2.65731
2.65652
2.6557
2.65545
2.65608
2.71189
2.70893
2.70637
2.70672
2.70855
2.71055
2.71188
2.71258
2.7126
2.71248
2.71211
2.71167
2.71075
2.70916
2.70661
2.70341
2.70018
2.69799
2.69816
2.69944
2.7745
2.77437
2.77345
2.77333
2.77388
2.77432
2.77418
2.7737
2.77298
2.77235
2.77177
2.77139
2.7707
2.76961
2.76772
2.7653
2.76269
2.76078
2.76036
2.75968
2.83769
2.84347
2.84713
2.84751
2.84553
2.84206
2.83845
2.83559
2.83362
2.83274
2.83253
2.83319
2.83447
2.83661
2.83918
2.84186
2.84381
2.84434
2.84165
2.83507
2.88376
2.88747
2.88959
2.89052
2.89068
2.89014
2.88927
2.88848
2.88794
2.88806
2.88873
2.89039
2.89277
2.89636
2.90047
2.90469
2.90787
2.90859
2.90573
2.90005
2.92917
2.92828
2.92738
2.9289
2.93244
2.93641
2.93936
2.94118
2.94198
2.94257
2.94303
2.94382
2.94476
2.94606
2.94736
2.94872
2.94985
2.94977
2.94842
2.94687
2.99678
3.00005
3.00159
3.00189
3.00235
3.00248
3.00206
3.00134
3.00055
2.99977
2.99916
2.99862
2.99774
2.99598
2.99282
2.9883
2.98343
2.97986
2.98046
2.98417
3.06524
3.07283
3.07662
3.07518
3.07178
3.06781
3.06427
3.06145
3.05946
3.05796
3.05683
3.05576
3.05457
3.05266
3.04962
3.0456
3.04132
3.03874
3.03904
3.03958
3.1152
3.11631
3.11779
3.11906
3.11942
3.11933
3.11872
3.11783
3.11685
3.11619
3.11576
3.1158
3.11594
3.11648
3.11721
3.11809
3.11863
3.1187
3.11666
3.11069
3.16725
3.16766
3.16964
3.17286
3.17507
3.17608
3.17597
3.17547
3.17479
3.17454
3.17462
3.17539
3.17673
3.1789
3.18169
3.18498
3.18781
3.18902
3.18672
3.1805
3.22639
3.23046
3.23277
3.23376
3.23433
3.23451
3.23432
3.23391
3.23342
3.23324
3.23345
3.23436
3.23571
3.23791
3.24057
3.24353
3.24645
3.24837
3.24721
3.24338
3.28843
3.28955
3.28923
3.28959
3.2907
3.29205
3.293
3.29348
3.29373
3.2941
3.29491
3.29634
3.29841
3.30067
3.30223
3.30262
3.30179
3.30056
3.29988
3.30015
3.3613
3.36491
3.36637
3.3663
3.36496
3.36248
3.35967
3.35734
3.35589
3.35537
3.35578
3.35725
3.35945
3.36218
3.36474
3.36639
3.36701
3.36655
3.36473
3.36194
3.42294
3.42953
3.43293
3.43204
3.42878
3.42441
3.42015
3.41665
3.41421
3.41295
3.41251
3.4128
3.41356
3.41466
3.41594
3.41743
3.41884
3.41915
3.41696
3.41225
3.4608
3.46019
3.46153
3.46495
3.46837
3.4707
3.47142
3.47077
3.46955
3.46848
3.46785
3.46759
3.46707
3.46568
3.46274
3.4581
3.4527
3.44823
3.4476
3.44923
3.50566
3.50661
3.50853
3.5128
3.51813
3.52258
3.52507
3.52584
3.52569
3.52528
3.52513
3.52499
3.52489
3.52402
3.52182
3.51827
3.51368
3.50998
3.50828
3.50612
3.56567
3.5702
3.57222
3.57405
3.57688
3.57971
3.58185
3.5832
3.58389
3.58436
3.58488
3.58571
3.58651
3.58756
3.58863
3.58943
3.58978
3.58907
3.58494
3.57544
3.64036
3.64446
3.64542
3.64621
3.64733
3.64824
3.64859
3.64842
3.64795
3.64743
3.64717
3.64707
3.64743
3.64788
3.64823
3.64833
3.64802
3.64684
3.64334
3.63593
3.72228
3.72912
3.73128
3.72989
3.72682
3.72296
3.71915
3.71573
3.71315
3.71114
3.70993
3.70919
3.7087
3.70808
3.70704
3.70513
3.70275
3.70012
3.69799
3.69514
3.78435
3.79101
3.7934
3.79223
3.78913
3.78523
3.7813
3.77776
3.77513
3.77331
3.77249
3.77213
3.77263
3.77319
3.7737
3.77393
3.77356
3.77254
3.77063
3.76646
3.82294
3.82318
3.82291
3.82495
3.8279
3.83068
3.83233
3.83274
3.83246
3.83225
3.83251
3.83364
3.83535
3.8378
3.84061
3.84307
3.84491
3.84567
3.84493
3.84057
3.8704
3.86897
3.86755
3.87076
3.87655
3.88295
3.88793
3.89097
3.8924
3.89324
3.89411
3.89532
3.8973
3.89979
3.90286
3.90634
3.90958
3.91197
3.91264
3.90885
3.94721
3.95358
3.9539
3.95282
3.95293
3.95399
3.95543
3.95653
3.95718
3.9575
3.95794
3.95885
3.95984
3.96105
3.96232
3.96349
3.96478
3.96632
3.96814
3.96602
4.03629
4.04821
4.05044
4.04558
4.03873
4.03267
4.02881
4.02671
4.02585
4.02543
4.0257
4.02632
4.02783
4.02935
4.03026
4.03002
4.02827
4.02666
4.02749
4.02598
4.11681
4.12709
4.12946
4.1246
4.11594
4.1072
4.1007
4.09677
4.09483
4.09434
4.09496
4.09691
4.0998
4.10401
4.10875
4.1129
4.11593
4.11742
4.11559
4.10646
4.18432
4.19088
4.19277
4.19098
4.18516
4.17791
4.17108
4.16619
4.1633
4.16247
4.16315
4.16529
4.16914
4.17472
4.1817
4.18934
4.19596
4.19941
4.196
4.18311
4.24234
4.25134
4.25595
4.25689
4.25339
4.24688
4.2397
4.23382
4.22988
4.22801
4.22784
4.2296
4.23256
4.237
4.24214
4.24701
4.25053
4.25116
4.24755
4.23708
4.28655
4.29661
4.30285
4.30789
4.30921
4.30655
4.30188
4.29727
4.29397
4.29226
4.29223
4.29336
4.29565
4.29787
4.29917
4.29854
4.2955
4.29121
4.28749
4.28038
4.32989
4.34256
4.35097
4.3594
4.36481
4.36546
4.36303
4.3597
4.35713
4.35598
4.35642
4.35839
4.36122
4.36426
4.36644
4.36605
4.36258
4.35699
4.35002
4.33751
4.37955
4.39699
4.40767
4.41652
4.42294
4.42515
4.42423
4.42215
4.42037
4.41968
4.42028
4.4221
4.42522
4.4288
4.43228
4.43408
4.43262
4.42734
4.41668
4.39727
4.4322
4.44913
4.46034
4.47116
4.48042
4.48536
4.4864
4.48521
4.48359
4.48251
4.48244
4.48341
4.48487
4.48626
4.4866
4.48445
4.479
4.47083
4.46004
4.44292
4.49192
4.50966
4.52129
4.53189
4.54116
4.54668
4.54845
4.54781
4.54653
4.54544
4.54518
4.54519
4.54527
4.54373
4.53974
4.53215
4.52125
4.51008
4.5007
4.48807
4.55309
4.56772
4.57598
4.58464
4.59406
4.60163
4.60621
4.60822
4.60871
4.60869
4.60874
4.60881
4.60841
4.60645
4.6023
4.59505
4.58548
4.57642
4.56724
4.55226
4.62907
4.63658
4.63879
4.64477
4.65474
4.6647
4.67183
4.67584
4.67727
4.67752
4.67703
4.67603
4.67424
4.67106
4.66661
4.66064
4.65437
4.64968
4.64276
4.62738
4.73471
4.74269
4.74144
4.73957
4.74209
4.74635
4.74983
4.75171
4.75217
4.75163
4.75065
4.7491
4.74674
4.74273
4.7369
4.72951
4.72241
4.71921
4.71752
4.71052
4.84623
4.85404
4.84976
4.8399
4.83374
4.83104
4.83042
4.83033
4.83007
4.82932
4.82838
4.82718
4.82573
4.82382
4.82183
4.82027
4.82099
4.82645
4.82942
4.82338
4.94588
4.94495
4.93576
4.92347
4.91593
4.9126
4.91177
4.91168
4.91137
4.91076
4.90991
4.90923
4.90902
4.91
4.91307
4.91989
4.93118
4.94643
4.95373
4.94864
5.05381
5.05389
5.045
5.02829
5.01521
5.00622
5.00079
4.99792
4.99645
4.99584
4.9959
4.99726
4.99988
5.00486
5.01247
5.02364
5.03871
5.05695
5.06739
5.06905
5.16141
5.16646
5.16108
5.1405
5.12068
5.10449
5.09331
5.0869
5.08394
5.08335
5.08447
5.08798
5.09435
5.10489
5.11966
5.13914
5.16157
5.18409
5.19125
5.18856
5.25115
5.26006
5.26303
5.24565
5.22549
5.20625
5.19081
5.18034
5.17444
5.17251
5.17345
5.1783
5.18666
5.20034
5.21919
5.24224
5.26618
5.28529
5.28154
5.27131
5.30616
5.32347
5.34366
5.3367
5.32148
5.30279
5.28507
5.27119
5.26265
5.25902
5.25965
5.26445
5.27341
5.28621
5.30089
5.31475
5.32346
5.32466
5.30473
5.2933
5.31075
5.33194
5.37221
5.38277
5.38265
5.37444
5.36252
5.35094
5.34284
5.33893
5.33885
5.34269
5.34925
5.35716
5.36337
5.3637
5.35664
5.3425
5.30406
5.28621
5.29708
5.31122
5.36602
5.39226
5.41222
5.42302
5.42454
5.42072
5.41638
5.41367
5.41322
5.41425
5.41614
5.41576
5.41051
5.39813
5.3799
5.35745
5.30399
5.28662
5.34531
5.34206
5.40203
5.42325
5.44607
5.46691
5.47945
5.48369
5.48402
5.48343
5.48326
5.48328
5.48167
5.47608
5.46428
5.44586
5.42658
5.40726
5.34616
5.34704
5.51269
5.47103
5.52722
5.5208
5.52112
5.53252
5.54424
5.55026
5.55209
5.55218
5.55215
5.55144
5.54966
5.54452
5.53628
5.5293
5.53169
5.53802
5.47929
5.51972
5.79339
5.68307
5.74015
5.69702
5.65657
5.63931
5.63491
5.63282
5.63042
5.62866
5.62833
5.63006
5.63213
5.63541
5.64242
5.6619
5.70326
5.7469
5.68936
5.79888
6.09674
5.87694
5.95772
5.89558
5.82086
5.77445
5.75077
5.73789
5.72989
5.72559
5.72504
5.72862
5.7364
5.75027
5.77466
5.8216
5.89539
5.95693
5.87535
6.09352
6.29051
5.89502
6.03673
6.00214
5.93027
5.87916
5.85171
5.83691
5.82776
5.82316
5.82241
5.82692
5.8353
5.85076
5.87855
5.92835
5.99793
6.02934
5.88564
6.28115
6.37942
5.71221
5.95216
5.98467
5.94387
5.90607
5.88523
5.87476
5.8683
5.86513
5.86524
5.86866
5.87547
5.88701
5.90793
5.94415
5.98234
5.94711
5.70762
6.37896
6.67958
5.59094
5.92426
5.99429
5.95111
5.90579
5.88066
5.86772
5.85997
5.85622
5.85655
5.86122
5.86888
5.88402
5.90728
5.95265
5.99143
5.9229
5.5937
6.68783
7.75233
5.72162
5.98167
6.07311
6.02477
5.97174
5.94401
5.93003
5.92245
5.91809
5.91861
5.92155
5.92827
5.94318
5.96938
6.02365
6.07338
5.98461
5.72532
7.7498
9.74599
5.33631
5.43017
5.81598
5.90859
5.90862
5.90596
5.9052
5.90387
5.90273
5.90272
5.90382
5.90495
5.90589
5.90835
5.90839
5.8159
5.43036
5.33657
9.74569
-0.0181293
-0.000549552
-0.00278633
0.0116966
0.0095701
0.00296829
0.000273013
0.00136448
0.00348099
0.00467746
0.00483153
0.003777
0.00178733
-5.47975e-06
-0.000443015
0.000862205
-0.00284555
-0.018801
-0.013148
-0.0219736
0.0627573
0.081699
0.0874961
0.112044
0.124938
0.125263
0.121134
0.118272
0.116933
0.115208
0.112871
0.108289
0.103375
0.097434
0.091375
0.0809674
0.0608543
0.0368625
0.032448
0.0096254
0.283916
0.261592
0.255524
0.25725
0.255102
0.249122
0.241871
0.23532
0.230161
0.225283
0.219303
0.210766
0.198103
0.180681
0.158562
0.134954
0.117269
0.108692
0.105215
0.103323
0.411923
0.38514
0.367985
0.363335
0.361944
0.358292
0.352856
0.346983
0.34176
0.336272
0.329597
0.319808
0.305717
0.284871
0.255334
0.216362
0.170393
0.128717
0.116127
0.127544
0.463327
0.444823
0.429565
0.433072
0.447846
0.462047
0.468873
0.468913
0.465639
0.461383
0.455936
0.44922
0.440602
0.430661
0.41963
0.406912
0.391779
0.375058
0.355762
0.340167
0.552393
0.552576
0.549549
0.555695
0.568432
0.580168
0.587282
0.590067
0.589344
0.587707
0.584623
0.581888
0.579987
0.582225
0.591583
0.610438
0.634793
0.650768
0.638408
0.605673
0.706794
0.72498
0.722948
0.706603
0.697425
0.696265
0.700382
0.705678
0.709413
0.711223
0.711937
0.713402
0.715816
0.721021
0.730211
0.745216
0.762073
0.771259
0.772205
0.766596
0.826732
0.842415
0.84548
0.840268
0.83434
0.831274
0.831218
0.832483
0.833895
0.834674
0.835596
0.836946
0.839906
0.843302
0.846185
0.846197
0.842882
0.838407
0.843917
0.859244
0.948978
0.973889
0.994895
0.996511
0.98718
0.976255
0.968305
0.963073
0.960182
0.958109
0.956639
0.955116
0.953558
0.95184
0.948773
0.942157
0.933858
0.928147
0.93158
0.944776
1.0326
1.03917
1.05504
1.06705
1.07555
1.08222
1.08647
1.08847
1.08905
1.08855
1.08723
1.08461
1.08022
1.07254
1.05991
1.04278
1.02241
1.00523
1.00543
1.01928
1.18458
1.16615
1.17134
1.19443
1.21636
1.23093
1.23703
1.23838
1.23714
1.23509
1.23244
1.22914
1.22397
1.21694
1.20791
1.19723
1.18494
1.17316
1.16733
1.16475
1.45529
1.45398
1.4547
1.44871
1.4358
1.42095
1.40839
1.3992
1.39202
1.38717
1.38342
1.38102
1.37936
1.37912
1.38105
1.38673
1.39652
1.40737
1.40323
1.38111
1.61718
1.62893
1.62129
1.59858
1.57132
1.54966
1.53603
1.5281
1.52324
1.52103
1.52119
1.52503
1.53283
1.54525
1.56016
1.57475
1.5863
1.59378
1.59467
1.58598
1.64366
1.6297
1.62088
1.63072
1.63732
1.63752
1.63451
1.63219
1.63109
1.63199
1.63428
1.63925
1.64777
1.66157
1.68145
1.70669
1.73321
1.75342
1.76107
1.76003
1.67698
1.66913
1.66598
1.6764
1.69182
1.70467
1.71419
1.72125
1.72658
1.73045
1.73341
1.73597
1.73701
1.73681
1.73611
1.73894
1.74828
1.76169
1.78069
1.8009
1.69112
1.68731
1.68897
1.71151
1.74649
1.7814
1.80813
1.82491
1.83504
1.84067
1.84382
1.84386
1.84077
1.83163
1.81498
1.79008
1.76016
1.7389
1.75058
1.78298
1.82248
1.83667
1.85237
1.87386
1.89947
1.92327
1.94283
1.95699
1.96658
1.97216
1.97519
1.97497
1.97075
1.96174
1.94879
1.93107
1.91106
1.89681
1.89141
1.88928
2.08121
2.11135
2.12554
2.11838
2.10844
2.103
2.10351
2.10776
2.11267
2.11639
2.11847
2.11895
2.11839
2.11695
2.11521
2.11488
2.11758
2.12243
2.11133
2.08134
2.3487
2.35881
2.3573
2.33905
2.31271
2.29038
2.27572
2.26755
2.26384
2.26188
2.2605
2.25953
2.26003
2.26372
2.26984
2.27783
2.28542
2.28789
2.27913
2.25962
2.56364
2.55766
2.54506
2.52128
2.48867
2.45761
2.4341
2.41846
2.40917
2.40361
2.39991
2.39671
2.39436
2.39346
2.39564
2.40238
2.41214
2.41749
2.41432
2.40633
2.66774
2.63956
2.61952
2.61213
2.60133
2.58476
2.56681
2.55219
2.54262
2.53675
2.53403
2.53274
2.53227
2.53091
2.52849
2.52376
2.51738
2.50873
2.50659
2.51348
2.72907
2.70832
2.69323
2.68935
2.68884
2.68635
2.6805
2.67338
2.66756
2.66408
2.66265
2.6625
2.66349
2.66429
2.66535
2.66615
2.6672
2.6673
2.66336
2.66035
2.74989
2.73206
2.72375
2.73791
2.75988
2.7789
2.79054
2.79421
2.79355
2.79215
2.79146
2.79136
2.79109
2.79102
2.79151
2.79183
2.79101
2.78907
2.78854
2.79112
2.84071
2.84676
2.85269
2.86874
2.88945
2.90671
2.91806
2.92356
2.92484
2.9245
2.9242
2.92465
2.92593
2.92676
2.92635
2.92375
2.9187
2.91339
2.914
2.91948
3.01843
3.05196
3.06163
3.05313
3.04803
3.04793
3.0499
3.05166
3.0525
3.05241
3.05271
3.05408
3.05695
3.06068
3.06406
3.06543
3.06407
3.06089
3.06039
3.06198
3.1761
3.19942
3.20489
3.1952
3.18347
3.17662
3.17347
3.17212
3.17148
3.17111
3.17111
3.17162
3.17369
3.17746
3.18432
3.19524
3.20955
3.22145
3.22368
3.21604
3.27773
3.29081
3.29634
3.29287
3.28561
3.28123
3.28024
3.28089
3.28195
3.28252
3.28214
3.28119
3.27879
3.27601
3.27383
3.27605
3.28671
3.30276
3.31124
3.30368
3.30998
3.30258
3.3072
3.32822
3.34981
3.36958
3.38521
3.39544
3.40113
3.40372
3.40457
3.40352
3.4008
3.3942
3.38086
3.35802
3.32703
3.30093
3.30358
3.32319
3.42508
3.42836
3.44461
3.47022
3.49253
3.51027
3.52312
3.5321
3.53751
3.54063
3.5425
3.54369
3.54368
3.54193
3.53794
3.52993
3.51745
3.50461
3.49431
3.49003
3.65199
3.67649
3.69382
3.69331
3.68781
3.68214
3.67903
3.67938
3.68102
3.68308
3.68455
3.68642
3.68882
3.69324
3.70139
3.71499
3.73236
3.74662
3.73999
3.71597
3.86883
3.87798
3.87936
3.87049
3.85622
3.84209
3.83157
3.82567
3.82318
3.82264
3.82291
3.82455
3.82767
3.8346
3.84597
3.86157
3.87864
3.89123
3.89204
3.8792
4.04766
4.04835
4.04134
4.026
4.00513
3.98622
3.97256
3.96371
3.95848
3.95619
3.95533
3.95528
3.9552
3.9542
3.95208
3.95135
3.9542
3.95931
3.9647
3.96724
4.12822
4.11295
4.10079
4.09759
4.0962
4.0943
4.09145
4.08821
4.08581
4.08445
4.08462
4.08511
4.08559
4.08324
4.0747
4.05663
4.03035
4.00738
4.00837
4.0271
4.18238
4.16104
4.16055
4.18494
4.20788
4.21907
4.2206
4.21802
4.21514
4.21363
4.21387
4.21523
4.218
4.2215
4.2264
4.22997
4.22853
4.22298
4.21396
4.20631
4.32767
4.3384
4.34802
4.34996
4.35136
4.35026
4.34764
4.34356
4.33965
4.33683
4.33535
4.33514
4.33524
4.33765
4.34516
4.36196
4.38696
4.40723
4.40243
4.37781
4.44992
4.45947
4.45252
4.44088
4.44053
4.44672
4.45358
4.45756
4.45889
4.45826
4.45682
4.45472
4.45175
4.44636
4.43729
4.42622
4.4185
4.41586
4.4185
4.41916
4.55353
4.55071
4.54113
4.54326
4.5538
4.56664
4.57759
4.58472
4.58878
4.58976
4.58974
4.58786
4.5844
4.57621
4.56007
4.53133
4.49436
4.46496
4.46187
4.47712
4.71196
4.7209
4.72183
4.72325
4.72388
4.72494
4.72742
4.72979
4.73167
4.73275
4.73387
4.73431
4.735
4.73522
4.736
4.73518
4.72892
4.71935
4.70687
4.69441
4.89548
4.91024
4.91561
4.91254
4.90346
4.892
4.88267
4.87721
4.87468
4.87418
4.87508
4.87806
4.88296
4.89274
4.91007
4.93794
4.97092
4.99378
4.98584
4.95174
5.04999
5.06408
5.06622
5.05549
5.04087
5.02704
5.0153
5.00725
5.00262
5.00126
5.00205
5.00537
5.01108
5.01977
5.03221
5.05024
5.0708
5.08501
5.08879
5.07998
5.12455
5.12679
5.12384
5.1196
5.11729
5.11783
5.11778
5.11671
5.11521
5.11437
5.11469
5.11633
5.1189
5.1207
5.11953
5.1139
5.10625
5.10165
5.10857
5.1225
5.18307
5.1743
5.17475
5.19209
5.21268
5.22808
5.23491
5.23632
5.2347
5.23236
5.22931
5.22562
5.22041
5.21222
5.19931
5.18047
5.16061
5.14891
5.15113
5.1609
5.33353
5.34932
5.35942
5.36287
5.36521
5.36698
5.36837
5.36829
5.36674
5.36402
5.36095
5.35624
5.34794
5.33368
5.31263
5.28522
5.25539
5.23349
5.23001
5.23438
5.47545
5.49714
5.5033
5.49747
5.49412
5.49667
5.50277
5.50744
5.50945
5.50917
5.5082
5.50641
5.50377
5.49919
5.4932
5.4863
5.47764
5.46867
5.45803
5.44162
5.60705
5.60876
5.61572
5.63673
5.65576
5.66688
5.67059
5.67011
5.66788
5.66554
5.66336
5.66311
5.66542
5.67369
5.68948
5.71421
5.74303
5.76377
5.75531
5.71832
5.85697
5.88187
5.89528
5.88916
5.87214
5.85332
5.83819
5.82797
5.82134
5.81805
5.81733
5.82018
5.8265
5.83806
5.85525
5.87707
5.89876
5.91293
5.91612
5.90321
6.01862
6.03938
6.03741
6.01143
5.98165
5.96164
5.95185
5.94884
5.94938
5.95247
5.95831
5.96772
5.98054
5.99578
6.01098
6.02396
6.03435
6.04104
6.04856
6.05415
6.02846
6.00583
5.99222
6.00271
6.02109
6.04011
6.05389
6.06358
6.07089
6.07863
6.08694
6.09791
6.11145
6.12769
6.14466
6.16145
6.17803
6.19227
6.19966
6.19812
6.1298
6.11231
6.11271
6.13626
6.16274
6.18188
6.19258
6.1982
6.20163
6.20549
6.20988
6.2155
6.22113
6.22716
6.23225
6.2364
6.24015
6.24525
6.25299
6.25478
6.37441
6.39578
6.40597
6.39656
6.37937
6.36176
6.34917
6.34073
6.33483
6.33123
6.32874
6.32654
6.32249
6.31446
6.30031
6.28061
6.26007
6.2469
6.24792
6.25121
6.56667
6.59384
6.59216
6.56488
6.5322
6.50329
6.48188
6.46706
6.45729
6.4505
6.4455
6.43958
6.43011
6.41358
6.38825
6.35436
6.31723
6.28849
6.27772
6.27277
6.59601
6.59395
6.58563
6.58465
6.58495
6.58344
6.57938
6.57486
6.57105
6.56786
6.56501
6.56072
6.55368
6.54224
6.52716
6.50946
6.48925
6.46912
6.44768
6.41975
6.5976
6.58242
6.58184
6.61051
6.64702
6.67679
6.69317
6.69953
6.69992
6.69844
6.69554
6.69224
6.6884
6.68649
6.68852
6.69753
6.71065
6.71687
6.69465
6.64342
6.73963
6.75536
6.77142
6.79297
6.81562
6.83353
6.84396
6.84823
6.84781
6.84563
6.84274
6.84045
6.8389
6.8386
6.8394
6.84252
6.84642
6.84408
6.83234
6.80592
6.9778
7.01892
7.03337
7.02591
7.01559
7.009
7.00602
7.00438
7.00225
6.99968
6.99823
6.99884
7.00182
7.00574
7.00892
7.00902
7.00577
6.99702
6.99009
6.98391
7.1997
7.22834
7.23289
7.21951
7.19895
7.18079
7.16754
7.15903
7.15379
7.15145
7.15163
7.15512
7.16206
7.17295
7.18724
7.20233
7.21531
7.22157
7.21982
7.20914
7.35211
7.36259
7.35919
7.34801
7.33122
7.31538
7.30352
7.29633
7.29307
7.29363
7.2972
7.3046
7.31506
7.32872
7.34405
7.36001
7.37395
7.38326
7.39135
7.38789
7.40126
7.38222
7.37237
7.38801
7.40633
7.41974
7.42607
7.42781
7.42791
7.42999
7.43424
7.44205
7.45246
7.46453
7.47492
7.48169
7.48431
7.48675
7.49874
7.50269
7.50794
7.50038
7.50219
7.52666
7.55102
7.56517
7.56893
7.56716
7.56393
7.56268
7.56431
7.56924
7.57528
7.58034
7.58116
7.57551
7.56372
7.5547
7.56308
7.56716
7.70081
7.73152
7.7391
7.73024
7.72024
7.7114
7.70407
7.69745
7.69165
7.68764
7.68581
7.68518
7.68399
7.6804
7.67413
7.6658
7.65519
7.64804
7.65115
7.64257
7.81357
7.83728
7.83098
7.81636
7.81047
7.81219
7.81504
7.81559
7.81347
7.8104
7.80681
7.80225
7.79431
7.78279
7.76903
7.75747
7.75346
7.76015
7.76434
7.73887
7.87571
7.87234
7.86883
7.89041
7.91597
7.93403
7.94202
7.94392
7.94275
7.94076
7.93891
7.9364
7.93205
7.92264
7.90562
7.88301
7.86119
7.85034
7.8514
7.83306
8.03773
8.05859
8.06378
8.06536
8.06747
8.06992
8.0723
8.07384
8.07392
8.07334
8.07326
8.07402
8.07538
8.07676
8.07593
8.07067
8.06182
8.0519
8.03997
8.00737
8.17345
8.19895
8.19662
8.18497
8.17994
8.18478
8.19398
8.20176
8.20629
8.20805
8.2087
8.20898
8.21026
8.21316
8.21881
8.22796
8.23795
8.24051
8.23056
8.19718
8.28415
8.28604
8.28338
8.30142
8.32198
8.33818
8.34804
8.35254
8.35397
8.3536
8.3527
8.35156
8.34995
8.34883
8.34962
8.35295
8.35895
8.3632
8.36389
8.34546
8.52726
8.55412
8.5583
8.55074
8.53802
8.52675
8.51926
8.51378
8.5096
8.5061
8.50449
8.50375
8.5043
8.50374
8.50177
8.49743
8.49026
8.48096
8.48297
8.47752
8.73592
8.76678
8.75929
8.73098
8.70031
8.6791
8.66773
8.66206
8.6586
8.65667
8.6564
8.65844
8.66224
8.66763
8.67427
8.6808
8.68681
8.6898
8.69156
8.67272
8.84572
8.84695
8.83281
8.83255
8.82926
8.82264
8.81584
8.81187
8.80986
8.80983
8.8113
8.81495
8.82127
8.83126
8.84504
8.8612
8.87575
8.88485
8.89122
8.86975
9.00603
9.01678
9.00821
9.00311
8.99489
8.98514
8.9764
8.97057
8.96725
8.96688
8.96897
8.97493
8.98399
8.99772
9.01551
9.03536
9.05409
9.06727
9.07724
9.05602
9.17314
9.18942
9.18155
9.17787
9.16927
9.1584
9.14686
9.13628
9.12859
9.12518
9.12594
9.13105
9.1402
9.15239
9.16684
9.18234
9.19621
9.20659
9.21922
9.20203
9.35253
9.38661
9.3822
9.37057
9.34988
9.32637
9.30636
9.29145
9.28201
9.27762
9.27816
9.28364
9.29218
9.30231
9.31087
9.31518
9.31515
9.31434
9.32503
9.30807
9.46186
9.50562
9.49919
9.48401
9.466
9.44966
9.43786
9.43029
9.42672
9.42666
9.43079
9.43846
9.44937
9.46102
9.46921
9.4699
9.46105
9.44925
9.45116
9.42486
9.50467
9.53087
9.52997
9.55556
9.57673
9.58518
9.58355
9.57892
9.57547
9.57611
9.58121
9.59141
9.60487
9.62136
9.63854
9.65237
9.65857
9.65482
9.64763
9.59828
9.68241
9.74558
9.76533
9.77906
9.77801
9.76506
9.74808
9.73353
9.72322
9.71886
9.71941
9.72467
9.73371
9.74581
9.76121
9.78129
9.80417
9.81942
9.81212
9.73957
9.83666
9.92174
9.94426
9.94226
9.9259
9.90321
9.88157
9.86366
9.85139
9.84421
9.84162
9.84204
9.84283
9.84072
9.83231
9.8166
9.79786
9.78179
9.7765
9.72768
9.85337
9.91284
9.9277
9.95131
9.9715
9.98132
9.98153
9.97613
9.971
9.96702
9.96591
9.9646
9.96238
9.95258
9.9302
9.88954
9.83405
9.78402
9.766
9.72867
9.89538
9.93897
9.95809
10.0066
10.0555
10.0888
10.1033
10.1058
10.1036
10.1012
10.1004
10.1002
10.0988
10.0925
10.0801
10.0583
10.0266
9.9918
9.96044
9.89106
10.0876
10.158
10.1859
10.2178
10.2433
10.2562
10.2583
10.2543
10.248
10.2426
10.2388
10.236
10.2338
10.2307
10.2291
10.2301
10.2315
10.2274
10.2015
10.1105
10.2785
10.3642
10.3837
10.3892
10.392
10.392
10.3902
10.3859
10.381
10.376
10.3722
10.3685
10.364
10.3582
10.3524
10.3453
10.3364
10.327
10.3162
10.2546
10.3342
10.384
10.3859
10.4068
10.4403
10.4709
10.4918
10.5022
10.5066
10.507
10.5068
10.505
10.503
10.4972
10.4872
10.4712
10.4524
10.4385
10.4357
10.4005
10.3977
10.4234
10.423
10.4603
10.5181
10.5716
10.6093
10.6311
10.6416
10.6457
10.6467
10.6459
10.6441
10.6405
10.6352
10.6281
10.6222
10.6248
10.6292
10.5947
10.6182
10.6584
10.6573
10.6659
10.6947
10.7285