/*--------------------------------*- C++ -*----------------------------------*\
  =========                 |
  \\      /  F ield         | OpenFOAM: The Open Source CFD Toolbox
   \\    /   O peration     | Website:  https://openfoam.org
    \\  /    A nd           | Version:  6
     \\/     M anipulation  |
\*---------------------------------------------------------------------------*/
FoamFile
{
    version     2.0;
    format      ascii;
    class       volScalarField;
    location    "20";
    object      p;
}
// * * * * * * * * * * * * * * * * * * * * * * * * * * * * * * * * * * * * * //

dimensions      [0 2 -2 0 0 0 0];

internalField   nonuniform List<scalar> 
130000
(
0.00446057
0.00363698
0.00306842
0.00262899
0.00224161
0.00189456
0.00158169
0.00129698
0.00103501
0.000791407
0.000561243
0.00034243
0.000130035
-7.68818e-05
-0.000280578
-0.000482404
-0.000683466
-0.000885385
-0.0010935
-0.00129767
0.00178027
0.00126938
0.000716359
0.000261361
-0.000160354
-0.000555668
-0.000935525
-0.00130159
-0.00165721
-0.00200744
-0.0023509
-0.00269459
-0.00303294
-0.0033727
-0.00370975
-0.00404799
-0.00438254
-0.00472332
-0.00506914
-0.00542044
-0.00061409
-0.00126852
-0.00195119
-0.00253829
-0.00309226
-0.00362202
-0.00413371
-0.00463224
-0.00511607
-0.00559533
-0.00606204
-0.00652855
-0.00698331
-0.00744223
-0.0078876
-0.00833963
-0.00877751
-0.00922441
-0.00966417
-0.0101152
-0.0038047
-0.00438221
-0.00503707
-0.00564699
-0.00625273
-0.00686032
-0.00745996
-0.00806088
-0.00865061
-0.00924525
-0.00982549
-0.0104126
-0.0109822
-0.011559
-0.0121185
-0.0126852
-0.0132321
-0.0137895
-0.0143288
-0.014879
-0.00750649
-0.00797948
-0.00856653
-0.00915438
-0.00976239
-0.0103989
-0.0110371
-0.0116952
-0.0123475
-0.013019
-0.0136783
-0.0143545
-0.0150135
-0.0156894
-0.016342
-0.0170115
-0.017654
-0.0183127
-0.0189445
-0.0195948
-0.011588
-0.0119908
-0.012518
-0.013074
-0.0136676
-0.0143117
-0.014966
-0.0156586
-0.0163518
-0.0170803
-0.017799
-0.0185481
-0.0192783
-0.0200337
-0.0207656
-0.0215188
-0.0222421
-0.0229866
-0.0236985
-0.0244343
-0.0160137
-0.0163184
-0.0167764
-0.0172924
-0.0178598
-0.0185005
-0.0191585
-0.0198742
-0.0205957
-0.0213687
-0.0221349
-0.0229431
-0.0237333
-0.02456
-0.0253587
-0.0261897
-0.0269856
-0.0278095
-0.0285949
-0.0294149
-0.0205566
-0.0208169
-0.0212277
-0.0217077
-0.0222508
-0.0228868
-0.0235469
-0.0242793
-0.0250221
-0.0258297
-0.0266326
-0.0274896
-0.0283277
-0.0292103
-0.0300661
-0.0309592
-0.0318159
-0.0327065
-0.0335546
-0.034443
-0.0252042
-0.0254524
-0.0258446
-0.0263008
-0.026832
-0.0274677
-0.0281335
-0.0288808
-0.0296429
-0.0304792
-0.0313141
-0.032211
-0.0330916
-0.034026
-0.034931
-0.0358838
-0.0367969
-0.0377507
-0.0386587
-0.039618
-0.0300087
-0.0302213
-0.0305822
-0.0310166
-0.031536
-0.0321734
-0.0328455
-0.0336076
-0.0343877
-0.0352503
-0.0361131
-0.0370469
-0.0379636
-0.0389401
-0.0398893
-0.0408902
-0.0418514
-0.0428589
-0.0438183
-0.0448349
-0.0348291
-0.0350392
-0.0353927
-0.0358221
-0.0363436
-0.0369926
-0.0376777
-0.038459
-0.0392593
-0.0401489
-0.04104
-0.0420075
-0.0429596
-0.0439793
-0.044969
-0.0460196
-0.0470278
-0.0480886
-0.0490991
-0.0501773
-0.0397715
-0.0399509
-0.0402844
-0.0407039
-0.0412235
-0.0418829
-0.0425801
-0.0433801
-0.0442
-0.0451157
-0.0460331
-0.0470342
-0.0480182
-0.0490747
-0.0501028
-0.051195
-0.0522447
-0.0533521
-0.0544074
-0.0555359
-0.0446609
-0.0448809
-0.0452292
-0.0456529
-0.0461811
-0.0468551
-0.0475678
-0.0483867
-0.0492271
-0.050168
-0.0511125
-0.0521444
-0.0531613
-0.0542569
-0.0553219
-0.0564589
-0.0575515
-0.0587069
-0.0598088
-0.0609931
-0.0497227
-0.0499232
-0.0502569
-0.0506693
-0.0511964
-0.051876
-0.0525979
-0.0534312
-0.054289
-0.055253
-0.056222
-0.0572847
-0.058332
-0.0594616
-0.0605628
-0.0617383
-0.0628698
-0.0640682
-0.0652121
-0.0664428
-0.0548184
-0.0550014
-0.0553224
-0.0557324
-0.0562618
-0.0569499
-0.0576815
-0.0585301
-0.0594054
-0.0603923
-0.0613869
-0.0624785
-0.0635575
-0.0647237
-0.0658609
-0.0670783
-0.0682512
-0.0694943
-0.0706833
-0.0719657
-0.0598701
-0.060057
-0.0603767
-0.0607891
-0.0613262
-0.0620259
-0.0627703
-0.0636353
-0.0645297
-0.0655399
-0.0665596
-0.0676811
-0.0687904
-0.0699894
-0.0711624
-0.0724166
-0.0736279
-0.0749121
-0.0761426
-0.0774689
-0.0648992
-0.0651002
-0.065433
-0.0658556
-0.0664099
-0.0671268
-0.0678896
-0.0687733
-0.0696897
-0.0707233
-0.0717708
-0.0729202
-0.0740626
-0.0752962
-0.0765061
-0.0777998
-0.0790531
-0.0803792
-0.0816552
-0.0830296
-0.0698346
-0.0700985
-0.0704657
-0.070904
-0.0714819
-0.0722197
-0.0730043
-0.073908
-0.0748486
-0.0759068
-0.0769828
-0.0781621
-0.079337
-0.0806033
-0.0818505
-0.0831808
-0.084474
-0.0858407
-0.0871598
-0.0885773
-0.0749496
-0.0752022
-0.075568
-0.0760091
-0.0766001
-0.0773534
-0.078157
-0.0790787
-0.0800433
-0.0811254
-0.0822316
-0.0834393
-0.0846496
-0.0859501
-0.0872366
-0.0886054
-0.0899426
-0.0913501
-0.0927168
-0.0941803
-0.0800587
-0.0803063
-0.0806705
-0.0811159
-0.0817204
-0.0824915
-0.0833163
-0.084258
-0.0852477
-0.0863555
-0.0874926
-0.0887314
-0.0899768
-0.0913112
-0.0926375
-0.0940439
-0.0954235
-0.0968724
-0.0982849
-0.0997925
-0.0851963
-0.0854399
-0.0858068
-0.0862585
-0.0868792
-0.0876688
-0.0885174
-0.0894803
-0.0904971
-0.0916302
-0.0928007
-0.094069
-0.0953528
-0.0967218
-0.0980903
-0.0995353
-0.100962
-0.102451
-0.103915
-0.105468
-0.0902629
-0.0905551
-0.0909519
-0.0914156
-0.0920588
-0.0928678
-0.0937434
-0.0947296
-0.0957759
-0.0969354
-0.0981396
-0.09944
-0.100762
-0.102166
-0.103578
-0.105062
-0.106535
-0.108068
-0.109581
-0.111182
-0.0955088
-0.0957891
-0.096186
-0.0966483
-0.0973055
-0.098128
-0.0990272
-0.100034
-0.10111
-0.102294
-0.103533
-0.104863
-0.106226
-0.107666
-0.109123
-0.110647
-0.11217
-0.113746
-0.115314
-0.116962
-0.100812
-0.101072
-0.101462
-0.10192
-0.102588
-0.103423
-0.104345
-0.105372
-0.106478
-0.107689
-0.108963
-0.110326
-0.111728
-0.113205
-0.114707
-0.116274
-0.117846
-0.11947
-0.121093
-0.122793
-0.106116
-0.106368
-0.10676
-0.107219
-0.107903
-0.108754
-0.109699
-0.110747
-0.111884
-0.113121
-0.114432
-0.115824
-0.117269
-0.118782
-0.120332
-0.12194
-0.123567
-0.125236
-0.126918
-0.128669
-0.111392
-0.111664
-0.112072
-0.112534
-0.113234
-0.114099
-0.115068
-0.116137
-0.117303
-0.118568
-0.119914
-0.12134
-0.122826
-0.124378
-0.125974
-0.127627
-0.129306
-0.131026
-0.132767
-0.134576
-0.116748
-0.117008
-0.11741
-0.117869
-0.118579
-0.119456
-0.120445
-0.121532
-0.122725
-0.124017
-0.125399
-0.126857
-0.128384
-0.129975
-0.131621
-0.133318
-0.135053
-0.136821
-0.138625
-0.14049
-0.12215
-0.122382
-0.122764
-0.12321
-0.123918
-0.124801
-0.125802
-0.126906
-0.128123
-0.129442
-0.130857
-0.132351
-0.133919
-0.13555
-0.137244
-0.138989
-0.140778
-0.142601
-0.144465
-0.146392
-0.127483
-0.127701
-0.128069
-0.128507
-0.129216
-0.130108
-0.131122
-0.132243
-0.133483
-0.134828
-0.136277
-0.137805
-0.139416
-0.141089
-0.142832
-0.144626
-0.146472
-0.148349
-0.150278
-0.152268
-0.132772
-0.132973
-0.133323
-0.13375
-0.134456
-0.135354
-0.136378
-0.137514
-0.138776
-0.140148
-0.141629
-0.143194
-0.144845
-0.146562
-0.148354
-0.150198
-0.1521
-0.154034
-0.156026
-0.158082
-0.137959
-0.138147
-0.138487
-0.138907
-0.139616
-0.140523
-0.14156
-0.142714
-0.143997
-0.145396
-0.14691
-0.148511
-0.150205
-0.151967
-0.153809
-0.155707
-0.157667
-0.159661
-0.161719
-0.163845
-0.143065
-0.143239
-0.143563
-0.143972
-0.144678
-0.145592
-0.146639
-0.14781
-0.149114
-0.15054
-0.152085
-0.153724
-0.155459
-0.157267
-0.159159
-0.161111
-0.163128
-0.165184
-0.167306
-0.169503
-0.14806
-0.14822
-0.14853
-0.148931
-0.149637
-0.15056
-0.151619
-0.152807
-0.154133
-0.155586
-0.157162
-0.158838
-0.160615
-0.162471
-0.164414
-0.166424
-0.168502
-0.170621
-0.172813
-0.175086
-0.152952
-0.153094
-0.153382
-0.153767
-0.154468
-0.155396
-0.156463
-0.157668
-0.159013
-0.160493
-0.162099
-0.163812
-0.165629
-0.167531
-0.169526
-0.17159
-0.173727
-0.175911
-0.17817
-0.180517
-0.15772
-0.157836
-0.158101
-0.158474
-0.159169
-0.160102
-0.161177
-0.162397
-0.163761
-0.165267
-0.166903
-0.168653
-0.17051
-0.172461
-0.174506
-0.17663
-0.17883
-0.181081
-0.183412
-0.185842
-0.162348
-0.162436
-0.162672
-0.163022
-0.163705
-0.164637
-0.165717
-0.166949
-0.168329
-0.169861
-0.171524
-0.173311
-0.175207
-0.177203
-0.179298
-0.181478
-0.183738
-0.186058
-0.188459
-0.190968
-0.166816
-0.166871
-0.167074
-0.167402
-0.168072
-0.169004
-0.170085
-0.171329
-0.172723
-0.174278
-0.175969
-0.17779
-0.179726
-0.18177
-0.183916
-0.186157
-0.18848
-0.19087
-0.193347
-0.195944
-0.171108
-0.171125
-0.171287
-0.171584
-0.172233
-0.173157
-0.174235
-0.175485
-0.176891
-0.178467
-0.180182
-0.182038
-0.18401
-0.186099
-0.188296
-0.190593
-0.192979
-0.195439
-0.197988
-0.20067
-0.175204
-0.175173
-0.175291
-0.175556
-0.176181
-0.177097
-0.178168
-0.179423
-0.180837
-0.182432
-0.184171
-0.186058
-0.188067
-0.190204
-0.192451
-0.19481
-0.19726
-0.199794
-0.202422
-0.205197
-0.179081
-0.178997
-0.179062
-0.179284
-0.179878
-0.180776
-0.181835
-0.18309
-0.184508
-0.186118
-0.187876
-0.189795
-0.191839
-0.194019
-0.196315
-0.198732
-0.201246
-0.203852
-0.206557
-0.20942
-0.182714
-0.18257
-0.182577
-0.182755
-0.183314
-0.184193
-0.185237
-0.186488
-0.187907
-0.189531
-0.191307
-0.193253
-0.195331
-0.197557
-0.199902
-0.202381
-0.204961
-0.207643
-0.21043
-0.213391
-0.186094
-0.185879
-0.185817
-0.185937
-0.186452
-0.187302
-0.188324
-0.189565
-0.19098
-0.192612
-0.194401
-0.196375
-0.198482
-0.200749
-0.203142
-0.205679
-0.208323
-0.211081
-0.213947
-0.217002
-0.189187
-0.188893
-0.188756
-0.188816
-0.189283
-0.190101
-0.191095
-0.192323
-0.193729
-0.195366
-0.197167
-0.199163
-0.2013
-0.20361
-0.20605
-0.208649
-0.211359
-0.214196
-0.217147
-0.220306
-0.191979
-0.191596
-0.191373
-0.191359
-0.191766
-0.192542
-0.193501
-0.194707
-0.196099
-0.197736
-0.199543
-0.201559
-0.203721
-0.206069
-0.208555
-0.211211
-0.213986
-0.216899
-0.219933
-0.223192
-0.194437
-0.193959
-0.193643
-0.193552
-0.193894
-0.194624
-0.195542
-0.196722
-0.198095
-0.199727
-0.201536
-0.203568
-0.205753
-0.20814
-0.21067
-0.213387
-0.216229
-0.219223
-0.222346
-0.225714
-0.196556
-0.195971
-0.195548
-0.195365
-0.19563
-0.196301
-0.197169
-0.198314
-0.19966
-0.20128
-0.203085
-0.205129
-0.207332
-0.209751
-0.212323
-0.215095
-0.218001
-0.221075
-0.224284
-0.227758
-0.198316
-0.197609
-0.197071
-0.196789
-0.196969
-0.197575
-0.198385
-0.199487
-0.200799
-0.202401
-0.204196
-0.206245
-0.208464
-0.210915
-0.213527
-0.216357
-0.219329
-0.222486
-0.225787
-0.229377
-0.199692
-0.198855
-0.198188
-0.19779
-0.197872
-0.198398
-0.199138
-0.200187
-0.201455
-0.20303
-0.204808
-0.206857
-0.209084
-0.211559
-0.214207
-0.217088
-0.220124
-0.22336
-0.226751
-0.230454
-0.200686
-0.199699
-0.19889
-0.198365
-0.198339
-0.198775
-0.199436
-0.20042
-0.201635
-0.203174
-0.204926
-0.206965
-0.209197
-0.211693
-0.214374
-0.217308
-0.220408
-0.223727
-0.227214
-0.231038
-0.201266
-0.20012
-0.199154
-0.198483
-0.198331
-0.198661
-0.199226
-0.200133
-0.201282
-0.202772
-0.204488
-0.20651
-0.208735
-0.211243
-0.213951
-0.21693
-0.22009
-0.223488
-0.227068
-0.231012
-0.201454
-0.200123
-0.19898
-0.198148
-0.197856
-0.198064
-0.19852
-0.199333
-0.200403
-0.201831
-0.203499
-0.205491
-0.207703
-0.210218
-0.212947
-0.21597
-0.21919
-0.22267
-0.226347
-0.230419
-0.20121
-0.199683
-0.198346
-0.197331
-0.196877
-0.196942
-0.197269
-0.19797
-0.198942
-0.200292
-0.201898
-0.203849
-0.206033
-0.208542
-0.211285
-0.214342
-0.217615
-0.221172
-0.224944
-0.229142
-0.200575
-0.198822
-0.197265
-0.196046
-0.195409
-0.195311
-0.195488
-0.196056
-0.196912
-0.198164
-0.199691
-0.201582
-0.203728
-0.206221
-0.208968
-0.212056
-0.215381
-0.219014
-0.222886
-0.227218
-0.199518
-0.197524
-0.195726
-0.194273
-0.193426
-0.193136
-0.193136
-0.193545
-0.194259
-0.19539
-0.196816
-0.198629
-0.200718
-0.20318
-0.205918
-0.209025
-0.212393
-0.216098
-0.220064
-0.224529
-0.198098
-0.195825
-0.193754
-0.192038
-0.190952
-0.190439
-0.190232
-0.190451
-0.190995
-0.191978
-0.193278
-0.19499
-0.197004
-0.199418
-0.202136
-0.205253
-0.208661
-0.212435
-0.2165
-0.221106
-0.196295
-0.193724
-0.19135
-0.189333
-0.187968
-0.187194
-0.186742
-0.186734
-0.187073
-0.187874
-0.189018
-0.190602
-0.192515
-0.19486
-0.197541
-0.200653
-0.204089
-0.207927
-0.212086
-0.216833
-0.194187
-0.191272
-0.188553
-0.186195
-0.18451
-0.18343
-0.18269
-0.182411
-0.182504
-0.183084
-0.184037
-0.18546
-0.187246
-0.1895
-0.192125
-0.195222
-0.19868
-0.202577
-0.206835
-0.21173
-0.191776
-0.188488
-0.185383
-0.18263
-0.180571
-0.17913
-0.178048
-0.177445
-0.177241
-0.177554
-0.178274
-0.179498
-0.181124
-0.183257
-0.185805
-0.188867
-0.192333
-0.196285
-0.200637
-0.205683
-0.189157
-0.185438
-0.181889
-0.178684
-0.176191
-0.174326
-0.172839
-0.171851
-0.171295
-0.171285
-0.171723
-0.172704
-0.174135
-0.176118
-0.178565
-0.181577
-0.185045
-0.189044
-0.193496
-0.198704
-0.186347
-0.182156
-0.178106
-0.174375
-0.171372
-0.169005
-0.16704
-0.165595
-0.164619
-0.164226
-0.164326
-0.165017
-0.166208
-0.168005
-0.170323
-0.173263
-0.176716
-0.180759
-0.185307
-0.190682
-0.183462
-0.178724
-0.174092
-0.169754
-0.166156
-0.163204
-0.160677
-0.158697
-0.157229
-0.156386
-0.156091
-0.156435
-0.157344
-0.158917
-0.161078
-0.163924
-0.167351
-0.17143
-0.176079
-0.181632
-0.18054
-0.17519
-0.169893
-0.164848
-0.160557
-0.156924
-0.153749
-0.151153
-0.14912
-0.147761
-0.14701
-0.146958
-0.147537
-0.148843
-0.150812
-0.153534
-0.156912
-0.161013
-0.165754
-0.171485
-0.177716
-0.171653
-0.165583
-0.159727
-0.154645
-0.150241
-0.146338
-0.143056
-0.1404
-0.138471
-0.137221
-0.136726
-0.136935
-0.137937
-0.139675
-0.142239
-0.145539
-0.149636
-0.154454
-0.160355
-0.175041
-0.16819
-0.161244
-0.154469
-0.148506
-0.143259
-0.138576
-0.134572
-0.131267
-0.128751
-0.126982
-0.126027
-0.125839
-0.1265
-0.127967
-0.130324
-0.133494
-0.137538
-0.142381
-0.14841
-0.172717
-0.164971
-0.157044
-0.149262
-0.142363
-0.136253
-0.130799
-0.126099
-0.122186
-0.119121
-0.11687
-0.115473
-0.114895
-0.115201
-0.116361
-0.118456
-0.121429
-0.125335
-0.130124
-0.136195
-0.170841
-0.162163
-0.153214
-0.144401
-0.136578
-0.129666
-0.123539
-0.118267
-0.113871
-0.110382
-0.107754
-0.106
-0.10508
-0.105043
-0.105875
-0.107651
-0.110335
-0.113994
-0.118595
-0.124571
-0.169769
-0.160104
-0.150146
-0.140394
-0.131788
-0.124251
-0.117656
-0.112034
-0.107381
-0.103676
-0.100853
-0.0988824
-0.0977271
-0.0974075
-0.0979235
-0.0993447
-0.101668
-0.104958
-0.109229
-0.114945
-0.169775
-0.159197
-0.14835
-0.137873
-0.128769
-0.120927
-0.114185
-0.10853
-0.103913
-0.10026
-0.0974736
-0.0954859
-0.0942449
-0.0937476
-0.0940092
-0.0950854
-0.0970084
-0.0998515
-0.103676
-0.108982
-0.171601
-0.160165
-0.148604
-0.137698
-0.128466
-0.120728
-0.114233
-0.108908
-0.104652
-0.101337
-0.0988333
-0.0970365
-0.0958961
-0.0953764
-0.0955025
-0.0963186
-0.0978941
-0.100302
-0.103664
-0.108503
-0.17573
-0.16366
-0.151666
-0.140688
-0.131721
-0.124489
-0.118621
-0.113971
-0.110372
-0.107661
-0.105672
-0.104284
-0.103435
-0.103075
-0.103244
-0.103964
-0.105348
-0.107466
-0.110479
-0.114932
-0.183071
-0.170507
-0.158344
-0.147629
-0.139265
-0.132855
-0.127893
-0.124172
-0.121452
-0.119545
-0.11826
-0.117465
-0.117102
-0.117113
-0.117547
-0.118431
-0.119898
-0.122002
-0.124935
-0.129261
-0.193869
-0.181095
-0.169042
-0.158874
-0.151356
-0.145964
-0.142058
-0.13939
-0.137657
-0.136676
-0.136227
-0.136188
-0.136491
-0.137092
-0.138059
-0.13942
-0.141325
-0.143802
-0.147052
-0.151654
-0.208811
-0.195899
-0.184087
-0.174588
-0.167994
-0.163657
-0.160808
-0.15919
-0.158459
-0.158447
-0.158916
-0.159764
-0.16092
-0.162361
-0.164159
-0.16637
-0.169132
-0.172454
-0.176527
-0.181944
-0.227546
-0.214689
-0.203204
-0.194386
-0.188662
-0.185279
-0.183371
-0.182704
-0.182911
-0.183867
-0.185311
-0.18718
-0.189374
-0.191914
-0.19487
-0.198315
-0.20238
-0.207064
-0.212515
-0.219346
-0.250359
-0.237449
-0.226177
-0.217877
-0.212825
-0.210188
-0.209028
-0.209156
-0.210201
-0.212098
-0.214564
-0.217578
-0.221024
-0.224967
-0.22943
-0.234548
-0.24041
-0.247027
-0.254474
-0.263405
-0.276457
-0.263536
-0.252343
-0.244327
-0.239668
-0.237501
-0.236854
-0.237608
-0.239383
-0.242189
-0.24572
-0.250028
-0.254952
-0.26061
-0.266972
-0.274216
-0.282395
-0.291546
-0.301643
-0.313384
-0.306122
-0.292891
-0.281461
-0.273373
-0.268748
-0.266715
-0.266296
-0.267462
-0.269841
-0.273524
-0.278184
-0.28395
-0.290615
-0.298365
-0.307068
-0.316987
-0.328094
-0.340486
-0.353999
-0.3694
-0.338637
-0.324998
-0.313037
-0.304486
-0.299491
-0.297203
-0.296679
-0.298002
-0.300827
-0.305332
-0.311163
-0.318554
-0.327241
-0.337479
-0.349042
-0.362244
-0.376988
-0.393429
-0.411237
-0.431245
-0.374825
-0.360304
-0.347312
-0.337754
-0.331849
-0.328811
-0.327758
-0.328898
-0.33192
-0.337126
-0.344141
-0.353319
-0.364333
-0.377543
-0.392567
-0.409839
-0.429103
-0.45062
-0.473848
-0.499716
-0.41461
-0.398941
-0.384409
-0.373202
-0.365722
-0.361281
-0.359114
-0.359581
-0.362441
-0.368123
-0.376252
-0.387328
-0.400963
-0.417629
-0.43681
-0.459023
-0.48388
-0.511735
-0.541781
-0.574999
-0.459831
-0.442275
-0.425381
-0.41159
-0.401585
-0.394826
-0.390713
-0.389787
-0.391912
-0.397686
-0.406748
-0.419778
-0.43632
-0.457001
-0.481117
-0.509383
-0.541188
-0.577013
-0.615661
-0.658214
-0.511395
-0.49136
-0.471133
-0.453563
-0.439776
-0.429446
-0.422238
-0.41891
-0.419483
-0.42475
-0.434398
-0.44932
-0.468992
-0.494229
-0.524186
-0.559763
-0.600125
-0.645806
-0.695213
-0.749513
-0.572341
-0.548578
-0.523502
-0.500417
-0.481085
-0.465479
-0.453599
-0.446496
-0.444402
-0.44835
-0.458091
-0.474778
-0.497804
-0.528239
-0.565044
-0.609424
-0.660172
-0.718042
-0.780953
-0.850126
-0.644403
-0.615663
-0.583855
-0.553031
-0.525875
-0.502792
-0.484256
-0.471648
-0.465475
-0.467018
-0.476119
-0.494231
-0.520721
-0.556969
-0.601768
-0.656542
-0.719841
-0.79268
-0.872366
-0.960034
-0.731262
-0.695301
-0.654032
-0.612489
-0.574591
-0.541304
-0.513693
-0.493559
-0.481753
-0.479904
-0.48795
-0.507604
-0.5381
-0.58114
-0.635211
-0.702201
-0.780381
-0.871189
-0.97129
-1.08187
-0.834258
-0.788609
-0.734534
-0.678671
-0.626674
-0.580339
-0.541447
-0.512252
-0.493928
-0.48832
-0.495418
-0.517286
-0.552911
-0.604114
-0.6692
-0.750494
-0.845963
-0.957587
-1.08178
-1.22003
-0.955915
-0.896753
-0.825518
-0.751199
-0.681755
-0.619921
-0.568158
-0.529154
-0.504319
-0.49581
-0.50343
-0.529142
-0.571683
-0.633335
-0.711943
-0.810116
-0.925727
-1.062
-1.21526
-1.38726
-1.09503
-1.01813
-0.924964
-0.828163
-0.738498
-0.659883
-0.59544
-0.548054
-0.518943
-0.510157
-0.521303
-0.554415
-0.607731
-0.683707
-0.779817
-0.899027
-1.03938
-1.20549
-1.3939
-1.60625
-1.25069
-1.1504
-1.03031
-0.908156
-0.797924
-0.704418
-0.630558
-0.579115
-0.5508
-0.54741
-0.567545
-0.613318
-0.68292
-0.779189
-0.898974
-1.04609
-1.21903
-1.42401
-1.65745
-1.92063
-1.41843
-1.28942
-1.13921
-0.992464
-0.865744
-0.763852
-0.688303
-0.640826
-0.620796
-0.62954
-0.665148
-0.73018
-0.822488
-0.945575
-1.0964
-1.28026
-1.4965
-1.75264
-2.04466
-2.37205
-1.59873
-1.43569
-1.25505
-1.08953
-0.956191
-0.857179
-0.790729
-0.756365
-0.752061
-0.77877
-0.834387
-0.922177
-1.04043
-1.19405
-1.38097
-1.60848
-1.87652
-2.19285
-2.55192
-2.9493
-1.79376
-1.59484
-1.38974
-1.21812
-1.09256
-1.0088
-0.960211
-0.944331
-0.958374
-1.00333
-1.07776
-1.18548
-1.32596
-1.50597
-1.72524
-1.99287
-2.30885
-2.6798
-3.09877
-3.55774
-2.02029
-1.78977
-1.57499
-1.41506
-1.3104
-1.24834
-1.21937
-1.22035
-1.24906
-1.30609
-1.39069
-1.50679
-1.65644
-1.84796
-2.08428
-2.37516
-2.7207
-3.12457
-3.57938
-4.07477
-2.30869
-2.06298
-1.86016
-1.72552
-1.64449
-1.60042
-1.58466
-1.59395
-1.62657
-1.68252
-1.76272
-1.87099
-2.01255
-2.1961
-2.4278
-2.71626
-3.06137
-3.4624
-3.91235
-4.39871
-2.72689
-2.48144
-2.29283
-2.16951
-2.09266
-2.04694
-2.02539
-2.02426
-2.04374
-2.0831
-2.14519
-2.23215
-2.35139
-2.50942
-2.71548
-2.97454
-3.28741
-3.6477
-4.04913
-4.47481
-3.39693
-3.11264
-2.87897
-2.70743
-2.58598
-2.50086
-2.44521
-2.41337
-2.4051
-2.41715
-2.45288
-2.51095
-2.59941
-2.71958
-2.88269
-3.0888
-3.3426
-3.63465
-3.96229
-4.29534
-4.25872
-3.87978
-3.53163
-3.25885
-3.0593
-2.91797
-2.82005
-2.7517
-2.71026
-2.6896
-2.69378
-2.71693
-2.76664
-2.83709
-2.93994
-3.06902
-3.23809
-3.44398
-3.68685
-3.87929
-4.83107
-4.49534
-4.07621
-3.74356
-3.50103
-3.32628
-3.19775
-3.09876
-3.02814
-2.97759
-2.95134
-2.93966
-2.95004
-2.96777
-3.003
-3.04205
-3.11229
-3.22406
-3.3585
-3.24237
-4.57706
-4.668
-4.32941
-3.98728
-3.7205
-3.52231
-3.37271
-3.25191
-3.16329
-3.09373
-3.05293
-3.02278
-3.01752
-3.01039
-3.02373
-3.02774
-3.07038
-3.14536
-3.1612
-2.59865
-3.60545
-4.55696
-4.43394
-4.07536
-3.80349
-3.60566
-3.44822
-3.32077
-3.2223
-3.14807
-3.09795
-3.06546
-3.05176
-3.04841
-3.05626
-3.06984
-3.10843
-3.14927
-2.96883
-2.5065
-0.00210057
-0.00218726
-0.00228277
-0.00236968
-0.00246759
-0.00256126
-0.00264585
-0.0027273
-0.00280382
-0.00287965
-0.00295314
-0.00302752
-0.00310233
-0.00318074
-0.00326092
-0.0033467
-0.00343597
-0.00353473
-0.00365358
-0.00379535
-0.00399781
-0.00412892
-0.00425582
-0.00438033
-0.00453019
-0.00467736
-0.00482633
-0.00497591
-0.00513113
-0.00529083
-0.00545686
-0.00563001
-0.0058098
-0.0059973
-0.00619393
-0.00639799
-0.00660999
-0.00683657
-0.00708688
-0.00734461
-0.00622431
-0.0063529
-0.00655721
-0.00675016
-0.00697848
-0.00720564
-0.00744628
-0.00768662
-0.00794102
-0.00819831
-0.00846864
-0.00874372
-0.0090313
-0.00932682
-0.00963197
-0.00994637
-0.0102693
-0.0106051
-0.0109622
-0.0113305
-0.00890243
-0.00906552
-0.00931928
-0.00955886
-0.00984964
-0.0101426
-0.0104612
-0.0107812
-0.0111243
-0.0114713
-0.0118374
-0.0122097
-0.0125978
-0.0129926
-0.0134028
-0.0138197
-0.0142484
-0.0146892
-0.0151477
-0.0156152
-0.0113494
-0.0115402
-0.0118329
-0.0121147
-0.0124635
-0.012818
-0.0132091
-0.0136024
-0.0140275
-0.0144572
-0.0149134
-0.015375
-0.0158589
-0.0163515
-0.0168607
-0.0173809
-0.0179141
-0.0184601
-0.0190243
-0.0195995
-0.0139117
-0.0141302
-0.0144613
-0.0147815
-0.0151839
-0.015595
-0.0160523
-0.0165131
-0.0170131
-0.0175199
-0.0180592
-0.018607
-0.0191806
-0.0197632
-0.0203686
-0.0209841
-0.021617
-0.0222638
-0.0229301
-0.0236103
-0.0164849
-0.0167298
-0.0170969
-0.0174544
-0.0179062
-0.0183691
-0.0188863
-0.0194089
-0.0199787
-0.0205578
-0.0211766
-0.0218058
-0.0224671
-0.0231421
-0.0238408
-0.0245558
-0.0252886
-0.0260382
-0.0268082
-0.0275991
-0.0190084
-0.0192835
-0.0196855
-0.0200756
-0.0205721
-0.0210826
-0.0216558
-0.0222377
-0.022874
-0.0235232
-0.0242175
-0.0249267
-0.0256715
-0.0264318
-0.0272224
-0.028029
-0.0288576
-0.0297047
-0.0305745
-0.0314687
-0.0215309
-0.0218274
-0.0222579
-0.0226781
-0.0232166
-0.0237739
-0.0244018
-0.0250414
-0.0257418
-0.0264587
-0.0272265
-0.0280125
-0.0288396
-0.0296885
-0.0305679
-0.0314714
-0.0323967
-0.0333459
-0.034319
-0.0353271
-0.0239912
-0.0243101
-0.0247666
-0.0252127
-0.0257898
-0.0263916
-0.0270715
-0.0277667
-0.0285285
-0.0293111
-0.0301492
-0.0310111
-0.0319171
-0.0328476
-0.0338152
-0.0348076
-0.0358268
-0.0368733
-0.0379463
-0.0390585
-0.026446
-0.0267756
-0.0272502
-0.0277174
-0.0283282
-0.028971
-0.0297003
-0.0304497
-0.0312717
-0.0321186
-0.0330261
-0.033961
-0.034945
-0.0359609
-0.0370141
-0.0381026
-0.0392176
-0.0403668
-0.0415424
-0.0427689
-0.0288071
-0.0291538
-0.0296468
-0.0301329
-0.0307751
-0.0314559
-0.0322314
-0.0330319
-0.0339109
-0.0348199
-0.0357936
-0.0368005
-0.037859
-0.0389527
-0.0400903
-0.0412648
-0.0424707
-0.0437141
-0.0449864
-0.0463151
-0.0311291
-0.031483
-0.0319923
-0.0324974
-0.03317
-0.0338863
-0.0347042
-0.0355518
-0.0364842
-0.0374519
-0.0384903
-0.0395667
-0.0406999
-0.0418759
-0.0430953
-0.0443615
-0.0456582
-0.0470003
-0.0483717
-0.0498131
-0.0333082
-0.0336799
-0.0342083
-0.0347327
-0.035433
-0.0361825
-0.0370404
-0.0379331
-0.0389165
-0.0399408
-0.0410404
-0.0421852
-0.0433897
-0.0446412
-0.0459417
-0.0472914
-0.0486758
-0.0501103
-0.0515766
-0.0531201
-0.0354056
-0.0357816
-0.036325
-0.0368672
-0.0375936
-0.0383746
-0.0392712
-0.0402081
-0.0412411
-0.0423201
-0.0434794
-0.0446886
-0.045963
-0.0472927
-0.048673
-0.0501133
-0.0515891
-0.0531234
-0.0546905
-0.056348
-0.0373111
-0.0376989
-0.0382578
-0.03882
-0.0395723
-0.0403854
-0.0413184
-0.0422981
-0.0433788
-0.0445126
-0.04573
-0.047005
-0.0483472
-0.0497513
-0.0512113
-0.0527369
-0.054302
-0.0559322
-0.0575963
-0.0593592
-0.0390906
-0.0394749
-0.0400421
-0.0406226
-0.0413993
-0.0422436
-0.0432115
-0.044233
-0.0453601
-0.0465481
-0.0478246
-0.0491653
-0.0505782
-0.0520609
-0.0536015
-0.0552171
-0.056874
-0.0586032
-0.0603686
-0.0622457
-0.040645
-0.0410308
-0.041607
-0.0422076
-0.0430075
-0.0438838
-0.0448861
-0.0459508
-0.0471237
-0.0483666
-0.0497004
-0.0511091
-0.052591
-0.0541515
-0.0557725
-0.0574758
-0.0592222
-0.0610495
-0.0629138
-0.0649016
-0.0420205
-0.0423967
-0.0429786
-0.0435985
-0.0444202
-0.0453275
-0.0463634
-0.0474719
-0.048691
-0.0499893
-0.0513819
-0.0528575
-0.0544112
-0.0560523
-0.0577568
-0.0595524
-0.0613939
-0.0633228
-0.0652931
-0.0673987
-0.0431495
-0.0435214
-0.0441094
-0.0447517
-0.0455956
-0.0465361
-0.0476055
-0.0487593
-0.0500252
-0.0513822
-0.0528344
-0.0543816
-0.0560069
-0.0577307
-0.0595198
-0.0614098
-0.0633468
-0.0653819
-0.0674586
-0.0696832
-0.0440713
-0.0444348
-0.0450259
-0.0456917
-0.0465588
-0.0475354
-0.0486405
-0.0498424
-0.051157
-0.0525742
-0.0540888
-0.0557079
-0.0574092
-0.0592179
-0.0610957
-0.0630832
-0.0651233
-0.0672675
-0.0694588
-0.0718072
-0.0447741
-0.0451288
-0.0457221
-0.0464122
-0.0473034
-0.0483188
-0.0494622
-0.0507159
-0.0520815
-0.0535615
-0.0551387
-0.0568334
-0.0586103
-0.060507
-0.0624746
-0.0645635
-0.0667069
-0.0689664
-0.0712733
-0.073751
-0.0452869
-0.0456304
-0.0462237
-0.0469372
-0.0478513
-0.048905
-0.0500867
-0.0513932
-0.052812
-0.0543569
-0.0560007
-0.0577713
-0.0596288
-0.0616147
-0.063677
-0.0658686
-0.0681224
-0.0704977
-0.0729287
-0.07554
-0.0456154
-0.0459444
-0.0465342
-0.0472674
-0.0482006
-0.0492903
-0.0505081
-0.0518675
-0.0533407
-0.0549545
-0.0566674
-0.0585207
-0.0604605
-0.0625414
-0.0647009
-0.067002
-0.0693678
-0.0718681
-0.0744271
-0.0771825
-0.0457409
-0.0460577
-0.0466417
-0.047393
-0.0483434
-0.0494684
-0.0507223
-0.0521349
-0.0536634
-0.0553468
-0.0571329
-0.0590697
-0.0610987
-0.0632779
-0.0655425
-0.0679571
-0.0704454
-0.0730738
-0.0757718
-0.0786763
-0.0456633
-0.0459614
-0.0465366
-0.0473026
-0.048269
-0.0494287
-0.0507188
-0.0521851
-0.0537695
-0.0555248
-0.0573846
-0.059411
-0.0615311
-0.0638162
-0.0661909
-0.0687292
-0.0713452
-0.0741155
-0.0769584
-0.0800248
-0.045349
-0.0456312
-0.0461959
-0.0469762
-0.0479573
-0.0491519
-0.0504776
-0.0519977
-0.0536384
-0.0554663
-0.0574033
-0.0595205
-0.0617389
-0.0641348
-0.0666275
-0.0692952
-0.0720502
-0.0749669
-0.0779664
-0.0812017
-0.0448124
-0.0450674
-0.0456164
-0.0464048
-0.0473976
-0.0486239
-0.0499837
-0.0515571
-0.053254
-0.0551566
-0.0571718
-0.0593861
-0.0617047
-0.0642175
-0.0668326
-0.0696379
-0.0725354
-0.0756102
-0.0787715
-0.0821879
-0.0440098
-0.0442377
-0.0447669
-0.0455606
-0.0465618
-0.0478187
-0.0492115
-0.0508382
-0.0525921
-0.0545707
-0.0566675
-0.0589801
-0.0614047
-0.0640399
-0.0667837
-0.0697336
-0.0727835
-0.0760223
-0.0793564
-0.0829642
-0.0429331
-0.043122
-0.0436246
-0.0444153
-0.0454208
-0.0467039
-0.0481283
-0.0498074
-0.0516188
-0.0536753
-0.0558546
-0.0582706
-0.0608023
-0.0635636
-0.0664404
-0.0695407
-0.0727465
-0.0761594
-0.0796717
-0.0834802
-0.0415385
-0.0416847
-0.0421554
-0.0429393
-0.0439455
-0.0452531
-0.0467076
-0.0484392
-0.050309
-0.0524446
-0.0547098
-0.0572304
-0.0598752
-0.0627695
-0.0657854
-0.0690449
-0.0724171
-0.076013
-0.0797162
-0.0837402
-0.0397945
-0.0398871
-0.0403195
-0.041088
-0.0420904
-0.0434174
-0.0448999
-0.0466817
-0.0486095
-0.0508252
-0.0531773
-0.0558077
-0.0585679
-0.0615983
-0.064759
-0.0681825
-0.0717261
-0.0755141
-0.0794144
-0.0836613
-0.0376732
-0.0377049
-0.0380917
-0.0388397
-0.039834
-0.0411777
-0.0426861
-0.0445171
-0.0465029
-0.0487992
-0.0512415
-0.0539833
-0.0568658
-0.060041
-0.063354
-0.0669536
-0.0706812
-0.074673
-0.0787849
-0.0832722
-0.0351288
-0.0350887
-0.0354223
-0.0361403
-0.0371205
-0.0384749
-0.0400058
-0.041883
-0.0439263
-0.0463039
-0.0488374
-0.0516954
-0.0547022
-0.0580247
-0.0614964
-0.0652761
-0.0691937
-0.0733976
-0.0777286
-0.0824631
-0.0321504
-0.0320266
-0.0322973
-0.0329782
-0.0339384
-0.0352987
-0.0368487
-0.0387701
-0.0408703
-0.0433295
-0.0459574
-0.0489326
-0.0520703
-0.0555485
-0.0591863
-0.0631585
-0.0672789
-0.0717082
-0.0762749
-0.0812781
-0.0286851
-0.0284648
-0.0286627
-0.0292953
-0.0302279
-0.0315867
-0.0331513
-0.0351127
-0.0372681
-0.0398082
-0.0425307
-0.0456275
-0.0488984
-0.0525348
-0.0563457
-0.0605142
-0.0648438
-0.069507
-0.0743178
-0.0795968
-0.0247355
-0.0244022
-0.0245138
-0.0250882
-0.0259846
-0.0273354
-0.0289093
-0.0309069
-0.0331153
-0.0357351
-0.0385544
-0.0417734
-0.0451844
-0.0489883
-0.0529802
-0.0573583
-0.0619112
-0.0668229
-0.0718956
-0.0774726
-0.0202482
-0.0197861
-0.0197977
-0.0202992
-0.0211485
-0.0224811
-0.0240571
-0.026085
-0.0283431
-0.0310413
-0.0339568
-0.0373017
-0.0408542
-0.0448274
-0.0490072
-0.0535994
-0.058383
-0.0635527
-0.0688965
-0.0747795
-0.0152357
-0.0146233
-0.0145174
-0.0149316
-0.0157211
-0.0170253
-0.0185953
-0.0206471
-0.0229508
-0.0257245
-0.028737
-0.0322074
-0.0359075
-0.040059
-0.0444349
-0.0492555
-0.0542847
-0.059728
-0.0653619
-0.0715752
-0.00964737
-0.00886362
-0.00862216
-0.00893049
-0.00964525
-0.010907
-0.0124604
-0.014527
-0.0168701
-0.0197154
-0.0228224
-0.0264213
-0.0302703
-0.0346022
-0.0391815
-0.0442353
-0.0495182
-0.0552458
-0.0611807
-0.0677344
-0.00350392
-0.00252114
-0.00212079
-0.00230416
-0.00292694
-0.00413167
-0.00565589
-0.00772761
-0.0101028
-0.0130145
-0.0162153
-0.0199408
-0.0239441
-0.0284652
-0.0332565
-0.0385583
-0.044111
-0.0501403
-0.0563973
-0.0633181
0.00323858
0.00444783
0.00503141
0.00499774
0.00448744
0.00335885
0.00187899
-0.000184711
-0.00258292
-0.0055549
-0.00884497
-0.0126988
-0.0168568
-0.0215692
-0.0265802
-0.0321361
-0.0379681
-0.0443119
-0.0509038