/*--------------------------------*- C++ -*----------------------------------*\
  =========                 |
  \\      /  F ield         | OpenFOAM: The Open Source CFD Toolbox
   \\    /   O peration     | Website:  https://openfoam.org
    \\  /    A nd           | Version:  6
     \\/     M anipulation  |
\*---------------------------------------------------------------------------*/
FoamFile
{
    version     2.0;
    format      ascii;
    class       surfaceScalarField;
    location    "20";
    object      phi;
}
// * * * * * * * * * * * * * * * * * * * * * * * * * * * * * * * * * * * * * //

dimensions      [0 3 -1 0 0 0 0];

internalField   nonuniform List<scalar> 
258600
(
-8.20027e-09
-8.51254e-08
7.89413e-09
-8.49043e-09
-9.19176e-08
-8.75161e-09
-9.86077e-08
-8.98526e-09
-1.05055e-07
-9.19514e-09
-1.11223e-07
-9.38088e-09
-1.17073e-07
-9.54735e-09
-1.22578e-07
-9.69445e-09
-1.27709e-07
-9.82692e-09
-1.32447e-07
-9.94456e-09
-1.36777e-07
-1.00517e-08
-1.40691e-07
-1.01478e-08
-1.44189e-07
-1.02366e-08
-1.47275e-07
-1.03172e-08
-1.49962e-07
-1.03928e-08
-1.52267e-07
-1.04621e-08
-1.54211e-07
-1.05276e-08
-1.55821e-07
-1.05877e-08
-1.57126e-07
-1.06443e-08
-1.58157e-07
-1.58963e-07
-1.06965e-08
-8.95167e-09
-8.48879e-08
8.72688e-09
-9.17239e-09
-9.16863e-08
-9.37853e-09
-9.83881e-08
-9.57369e-09
-1.04852e-07
-9.74881e-09
-1.11038e-07
-9.91036e-09
-1.16907e-07
-1.0053e-08
-1.22429e-07
-1.01837e-08
-1.27575e-07
-1.02989e-08
-1.32327e-07
-1.04053e-08
-1.36668e-07
-1.04999e-08
-1.40592e-07
-1.05887e-08
-1.44098e-07
-1.06687e-08
-1.47192e-07
-1.07451e-08
-1.49884e-07
-1.08148e-08
-1.52194e-07
-1.08822e-08
-1.54142e-07
-1.09439e-08
-1.55756e-07
-1.10041e-08
-1.57064e-07
-1.10583e-08
-1.581e-07
-1.58908e-07
-1.11123e-08
-1.01129e-08
-8.47082e-08
9.94844e-09
-1.02824e-08
-9.15092e-08
-1.04327e-08
-9.822e-08
-1.0583e-08
-1.04697e-07
-1.07131e-08
-1.10895e-07
-1.08401e-08
-1.16777e-07
-1.09482e-08
-1.22311e-07
-1.10535e-08
-1.27468e-07
-1.1143e-08
-1.32229e-07
-1.12311e-08
-1.36579e-07
-1.13068e-08
-1.4051e-07
-1.1383e-08
-1.44021e-07
-1.14495e-08
-1.47119e-07
-1.15179e-08
-1.49815e-07
-1.15785e-08
-1.52128e-07
-1.16415e-08
-1.54079e-07
-1.16978e-08
-1.55695e-07
-1.1757e-08
-1.57005e-07
-1.18091e-08
-1.58043e-07
-1.58853e-07
-1.18656e-08
-1.16938e-08
-8.46128e-08
1.16083e-08
-1.17888e-08
-9.14101e-08
-1.18688e-08
-9.81233e-08
-1.19584e-08
-1.04605e-07
-1.20311e-08
-1.10809e-07
-1.21103e-08
-1.16698e-07
-1.21729e-08
-1.22238e-07
-1.22414e-08
-1.27401e-07
-1.22955e-08
-1.32166e-07
-1.23561e-08
-1.36519e-07
-1.2405e-08
-1.40453e-07
-1.24612e-08
-1.43966e-07
-1.25078e-08
-1.47065e-07
-1.25622e-08
-1.49761e-07
-1.26087e-08
-1.52074e-07
-1.26629e-08
-1.54025e-07
-1.27096e-08
-1.55641e-07
-1.27642e-08
-1.56952e-07
-1.28103e-08
-1.57989e-07
-1.588e-07
-1.2865e-08
-1.35276e-08
-8.45833e-08
1.35069e-08
-1.35579e-08
-9.13795e-08
-1.3571e-08
-9.80936e-08
-1.35998e-08
-1.04577e-07
-1.36125e-08
-1.10783e-07
-1.36393e-08
-1.16673e-07
-1.36514e-08
-1.22214e-07
-1.3677e-08
-1.27377e-07
-1.369e-08
-1.32143e-07
-1.37166e-08
-1.36495e-07
-1.3733e-08
-1.40427e-07
-1.37629e-08
-1.43937e-07
-1.37845e-08
-1.47034e-07
-1.38195e-08
-1.49728e-07
-1.3847e-08
-1.52038e-07
-1.38872e-08
-1.53986e-07
-1.39202e-08
-1.556e-07
-1.39651e-08
-1.56909e-07
-1.4001e-08
-1.57945e-07
-1.58755e-07
-1.40495e-08
-1.55287e-08
-8.46151e-08
1.55629e-08
-1.55008e-08
-9.14124e-08
-1.54538e-08
-9.81274e-08
-1.54249e-08
-1.0461e-07
-1.53803e-08
-1.10815e-07
-1.53548e-08
-1.16703e-07
-1.53159e-08
-1.22241e-07
-1.52964e-08
-1.27401e-07
-1.52662e-08
-1.32162e-07
-1.52555e-08
-1.36509e-07
-1.5236e-08
-1.40435e-07
-1.5236e-08
-1.4394e-07
-1.52288e-08
-1.47031e-07
-1.524e-08
-1.49719e-07
-1.52447e-08
-1.52024e-07
-1.52667e-08
-1.53967e-07
-1.52816e-08
-1.55576e-07
-1.53129e-08
-1.56881e-07
-1.53347e-08
-1.57913e-07
-1.5872e-07
-1.5373e-08
-1.76343e-08
-8.47025e-08
1.7713e-08
-1.75545e-08
-9.1502e-08
-1.7453e-08
-9.8217e-08
-1.73719e-08
-1.04698e-07
-1.72743e-08
-1.109e-07
-1.71995e-08
-1.16784e-07
-1.71119e-08
-1.22317e-07
-1.70482e-08
-1.2747e-07
-1.69747e-08
-1.32223e-07
-1.69256e-08
-1.36563e-07
-1.68692e-08
-1.40481e-07
-1.68366e-08
-1.43977e-07
-1.67982e-08
-1.47059e-07
-1.67826e-08
-1.49739e-07
-1.67615e-08
-1.52035e-07
-1.67614e-08
-1.53971e-07
-1.67555e-08
-1.55573e-07
-1.6769e-08
-1.56871e-07
-1.67735e-08
-1.57899e-07
-1.58702e-07
-1.67979e-08
-1.97886e-08
-8.48299e-08
1.99088e-08
-1.96666e-08
-9.16358e-08
-1.95203e-08
-9.83531e-08
-1.93938e-08
-1.04834e-07
-1.925e-08
-1.11034e-07
-1.91302e-08
-1.16913e-07
-1.89979e-08
-1.22438e-07
-1.88918e-08
-1.27584e-07
-1.87771e-08
-1.32328e-07
-1.86898e-08
-1.36657e-07
-1.85964e-08
-1.40564e-07
-1.85303e-08
-1.44049e-07
-1.84596e-08
-1.4712e-07
-1.84151e-08
-1.49788e-07
-1.83663e-08
-1.52074e-07
-1.83419e-08
-1.54e-07
-1.83122e-08
-1.55593e-07
-1.83055e-08
-1.56883e-07
-1.829e-08
-1.57903e-07
-1.587e-07
-1.82974e-08
-2.19696e-08
-8.4989e-08
2.21208e-08
-2.18106e-08
-9.1806e-08
-2.16278e-08
-9.85295e-08
-2.14606e-08
-1.05012e-07
-2.12769e-08
-1.1121e-07
-2.11155e-08
-1.17085e-07
-2.0943e-08
-1.22603e-07
-2.07968e-08
-1.27739e-07
-2.06435e-08
-1.32473e-07
-2.05187e-08
-1.3679e-07
-2.03896e-08
-1.40684e-07
-2.02894e-08
-1.44157e-07
-2.01864e-08
-1.47214e-07
-2.01117e-08
-1.4987e-07
-2.00341e-08
-1.52143e-07
-1.99832e-08
-1.54057e-07
-1.99284e-08
-1.55639e-07
-1.98988e-08
-1.5692e-07
-1.98613e-08
-1.57931e-07
-1.5872e-07
-1.98491e-08
-2.41697e-08
-8.51776e-08
2.43546e-08
-2.39765e-08
-9.20083e-08
-2.37589e-08
-9.87401e-08
-2.35547e-08
-1.05227e-07
-2.33345e-08
-1.11424e-07
-2.31351e-08
-1.17295e-07
-2.29255e-08
-1.22807e-07
-2.27418e-08
-1.27934e-07
-2.25521e-08
-1.32656e-07
-2.23914e-08
-1.3696e-07
-2.22276e-08
-1.40841e-07
-2.20941e-08
-1.44299e-07
-2.19589e-08
-1.47341e-07
-2.18536e-08
-1.49983e-07
-2.17467e-08
-1.52242e-07
-2.16684e-08
-1.54142e-07
-2.15871e-08
-1.55712e-07
-2.15332e-08
-1.56981e-07
-2.14722e-08
-1.57981e-07
-1.58761e-07
-2.14387e-08
-2.63742e-08
-8.53918e-08
2.65857e-08
-2.61496e-08
-9.22395e-08
-2.59008e-08
-9.89819e-08
-2.56624e-08
-1.05474e-07
-2.54089e-08
-1.11673e-07
-2.51743e-08
-1.17541e-07
-2.49305e-08
-1.23046e-07
-2.47115e-08
-1.28164e-07
-2.44876e-08
-1.32875e-07
-2.42924e-08
-1.37166e-07
-2.40954e-08
-1.41033e-07
-2.39288e-08
-1.44475e-07
-2.37619e-08
-1.47502e-07
-2.3626e-08
-1.50128e-07
-2.34894e-08
-1.52372e-07
-2.33828e-08
-1.54257e-07
-2.32745e-08
-1.55813e-07
-2.31948e-08
-1.57069e-07
-2.31091e-08
-1.58058e-07
-1.58828e-07
-2.30524e-08
-2.85809e-08
-8.56306e-08
2.88242e-08
-2.8326e-08
-9.2495e-08
-2.8047e-08
-9.92492e-08
-2.77774e-08
-1.05749e-07
-2.74927e-08
-1.1195e-07
-2.72254e-08
-1.17817e-07
-2.69493e-08
-1.23318e-07
-2.66968e-08
-1.28428e-07
-2.64402e-08
-1.33128e-07
-2.62118e-08
-1.37406e-07
-2.59822e-08
-1.41258e-07
-2.57836e-08
-1.44685e-07
-2.55854e-08
-1.47695e-07
-2.54187e-08
-1.50304e-07
-2.52526e-08
-1.52532e-07
-2.51173e-08
-1.54402e-07
-2.49812e-08
-1.55942e-07
-2.48751e-08
-1.57184e-07
-2.47639e-08
-1.5816e-07
-1.58918e-07
-2.46831e-08
-3.07719e-08
-8.58817e-08
3.10387e-08
-3.04951e-08
-9.27694e-08
-3.01922e-08
-9.95405e-08
-2.98947e-08
-1.06051e-07
-2.95816e-08
-1.12258e-07
-2.92834e-08
-1.18125e-07
-2.89766e-08
-1.23622e-07
-2.86917e-08
-1.28725e-07
-2.84035e-08
-1.33414e-07
-2.81424e-08
-1.37679e-07
-2.78812e-08
-1.41516e-07
-2.76504e-08
-1.44927e-07
-2.74212e-08
-1.47921e-07
-2.72237e-08
-1.50513e-07
-2.70277e-08
-1.52723e-07
-2.68631e-08
-1.54576e-07
-2.6699e-08
-1.56101e-07
-2.65654e-08
-1.57328e-07
-2.64279e-08
-1.58291e-07
-1.59036e-07
-2.63218e-08
-3.29702e-08
-8.6157e-08
3.32573e-08
-3.26696e-08
-9.30694e-08
-3.23421e-08
-9.98586e-08
-3.20168e-08
-1.06381e-07
-3.16754e-08
-1.12594e-07
-3.13466e-08
-1.18463e-07
-3.10093e-08
-1.23957e-07
-3.06925e-08
-1.29052e-07
-3.03728e-08
-1.33731e-07
-3.00795e-08
-1.37984e-07
-2.97868e-08
-1.41806e-07
-2.95242e-08
-1.452e-07
-2.92641e-08
-1.48177e-07
-2.90355e-08
-1.50751e-07
-2.88097e-08
-1.52944e-07
-2.86155e-08
-1.5478e-07
-2.84227e-08
-1.56288e-07
-2.82613e-08
-1.575e-07
-2.8097e-08
-1.58447e-07
-1.59178e-07
-2.79648e-08
-3.51682e-08
-8.64608e-08
3.54698e-08
-3.48441e-08
-9.33988e-08
-3.44916e-08
-1.00206e-07
-3.41392e-08
-1.06741e-07
-3.37696e-08
-1.12961e-07
-3.34109e-08
-1.18831e-07
-3.30435e-08
-1.24322e-07
-3.26953e-08
-1.29411e-07
-3.23445e-08
-1.34081e-07
-3.2019e-08
-1.38321e-07
-3.1695e-08
-1.42128e-07
-3.14003e-08
-1.45506e-07
-3.11091e-08
-1.48465e-07
-3.08493e-08
-1.51022e-07
-3.05933e-08
-1.53196e-07
-3.03688e-08
-1.55015e-07
-3.01472e-08
-1.56506e-07
-2.99567e-08
-1.577e-07
-2.97651e-08
-1.58632e-07
-1.59349e-07
-2.96056e-08
-3.73562e-08
-8.67837e-08
3.76734e-08
-3.70114e-08
-9.37506e-08
-3.66357e-08
-1.00578e-07
-3.62573e-08
-1.07126e-07
-3.58608e-08
-1.13354e-07
-3.54731e-08
-1.19228e-07
-3.50762e-08
-1.24717e-07
-3.4697e-08
-1.298e-07
-3.43154e-08
-1.3446e-07
-3.3958e-08
-1.38687e-07
-3.36026e-08
-1.4248e-07
-3.3276e-08
-1.45842e-07
-3.29537e-08
-1.48784e-07
-3.26621e-08
-1.51322e-07
-3.23757e-08
-1.53478e-07
-3.21204e-08
-1.55278e-07
-3.18692e-08
-1.56751e-07
-3.16494e-08
-1.57929e-07
-3.14298e-08
-1.58844e-07
-1.59545e-07
-3.12422e-08
-3.95378e-08
-8.71266e-08
3.98737e-08
-3.91706e-08
-9.41223e-08
-3.87728e-08
-1.00972e-07
-3.83694e-08
-1.07536e-07
-3.79473e-08
-1.13774e-07
-3.75311e-08
-1.19652e-07
-3.71056e-08
-1.25141e-07
-3.66956e-08
-1.30219e-07
-3.62835e-08
-1.3487e-07
-3.5894e-08
-1.39086e-07
-3.55075e-08
-1.42864e-07
-3.5148e-08
-1.4621e-07
-3.47943e-08
-1.49134e-07
-3.44704e-08
-1.51654e-07
-3.4153e-08
-1.53791e-07
-3.3866e-08
-1.55573e-07
-3.3585e-08
-1.57027e-07
-3.33344e-08
-1.58187e-07
-3.30864e-08
-1.59085e-07
-1.5977e-07
-3.28695e-08
-4.17056e-08
-8.74714e-08
4.20618e-08
-4.13228e-08
-9.45042e-08
-4.09055e-08
-1.01382e-07
-4.0478e-08
-1.07967e-07
-4.00305e-08
-1.14217e-07
-3.95858e-08
-1.20102e-07
-3.91315e-08
-1.25592e-07
-3.86904e-08
-1.30666e-07
-3.82475e-08
-1.35309e-07
-3.78255e-08
-1.39514e-07
-3.74071e-08
-1.43278e-07
-3.70147e-08
-1.46608e-07
-3.66292e-08
-1.49515e-07
-3.62722e-08
-1.52016e-07
-3.59233e-08
-1.54135e-07
-3.56039e-08
-1.55897e-07
-3.5292e-08
-1.57332e-07
-3.50101e-08
-1.58474e-07
-3.47327e-08
-1.59354e-07
-1.60023e-07
-3.44858e-08
-4.38945e-08
-8.78448e-08
4.42696e-08
-4.34865e-08
-9.49136e-08
-4.3044e-08
-1.0182e-07
-4.25889e-08
-1.08425e-07
-4.21134e-08
-1.14689e-07
-4.16386e-08
-1.20581e-07
-4.11543e-08
-1.26073e-07
-4.0681e-08
-1.31144e-07
-4.02066e-08
-1.3578e-07
-3.97511e-08
-1.39974e-07
-3.93004e-08
-1.43725e-07
-3.88739e-08
-1.47039e-07
-3.84557e-08
-1.49928e-07
-3.80648e-08
-1.52411e-07
-3.76836e-08
-1.5451e-07
-3.73307e-08
-1.56253e-07
-3.69875e-08
-1.57669e-07
-3.66726e-08
-1.58792e-07
-3.63652e-08
-1.59654e-07
-1.60305e-07
-3.60868e-08
-4.60858e-08
-8.82422e-08
4.64815e-08
-4.56524e-08
-9.53485e-08
-4.51828e-08
-1.02283e-07
-4.46987e-08
-1.0891e-07
-4.41939e-08
-1.15189e-07
-4.36879e-08
-1.21089e-07
-4.31725e-08
-1.26583e-07
-4.26663e-08
-1.31652e-07
-4.21593e-08
-1.36281e-07
-4.16697e-08
-1.40465e-07
-4.11856e-08
-1.44202e-07
-4.07244e-08
-1.47501e-07
-4.02727e-08
-1.50373e-07
-3.98468e-08
-1.52837e-07
-3.94324e-08
-1.54917e-07
-3.9045e-08
-1.5664e-07
-3.8669e-08
-1.58037e-07
-3.83206e-08
-1.5914e-07
-3.7982e-08
-1.59983e-07
-1.60615e-07
-3.76712e-08
-4.82753e-08
-8.86645e-08
4.86949e-08
-4.78141e-08
-9.5807e-08
-4.73175e-08
-1.02772e-07
-4.68045e-08
-1.09421e-07
-4.62702e-08
-1.15716e-07
-4.57325e-08
-1.21626e-07
-4.51854e-08
-1.27124e-07
-4.46454e-08
-1.32192e-07
-4.41051e-08
-1.36815e-07
-4.35801e-08
-1.40989e-07
-4.30618e-08
-1.44714e-07
-4.25644e-08
-1.47997e-07
-4.2078e-08
-1.50852e-07
-4.16161e-08
-1.53297e-07
-4.11671e-08
-1.55358e-07
-4.07438e-08
-1.57061e-07
-4.03343e-08
-1.58438e-07
-3.99506e-08
-1.59522e-07
-3.95796e-08
-1.60345e-07
-1.60959e-07
-3.92349e-08
-5.04472e-08
-8.90886e-08
5.08916e-08
-4.99678e-08
-9.62772e-08
-4.94477e-08
-1.03279e-07
-4.89069e-08
-1.09956e-07
-4.83431e-08
-1.1627e-07
-4.7773e-08
-1.22192e-07
-4.71931e-08
-1.27696e-07
-4.66182e-08
-1.32763e-07
-4.60432e-08
-1.37382e-07
-4.54819e-08
-1.41547e-07
-4.49277e-08
-1.4526e-07
-4.43932e-08
-1.48528e-07
-4.38708e-08
-1.51365e-07
-4.33712e-08
-1.53793e-07
-4.28864e-08
-1.55834e-07
-4.24259e-08
-1.57517e-07
-4.19809e-08
-1.58873e-07
-4.1561e-08
-1.59936e-07
-4.1156e-08
-1.6074e-07
-1.61333e-07
-4.07763e-08
-5.26431e-08
-8.95454e-08
5.31101e-08
-5.21346e-08
-9.6779e-08
-5.15852e-08
-1.03818e-07
-5.10125e-08
-1.10523e-07
-5.04162e-08
-1.16858e-07
-4.98114e-08
-1.22792e-07
-4.91966e-08
-1.28303e-07
-4.8585e-08
-1.33371e-07
-4.79738e-08
-1.37986e-07
-4.73743e-08
-1.42143e-07
-4.67829e-08
-1.45843e-07
-4.62094e-08
-1.49097e-07
-4.56491e-08
-1.51918e-07
-4.51105e-08
-1.54327e-07
-4.45879e-08
-1.56348e-07
-4.40886e-08
-1.58011e-07
-4.36067e-08
-1.59347e-07
-4.31486e-08
-1.60389e-07
-4.27079e-08
-1.61172e-07
-1.61745e-07
-4.22913e-08
-5.48447e-08
-9.00301e-08
5.53359e-08
-5.43063e-08
-9.73117e-08
-5.37254e-08
-1.04389e-07
-5.31186e-08
-1.11123e-07
-5.24879e-08
-1.17479e-07
-5.18467e-08
-1.23428e-07
-5.11953e-08
-1.28946e-07
-5.05453e-08
-1.34016e-07
-4.98958e-08
-1.38627e-07
-4.92567e-08
-1.42776e-07
-4.8626e-08
-1.46466e-07
-4.80121e-08
-1.49705e-07
-4.74122e-08
-1.5251e-07
-4.68326e-08
-1.549e-07
-4.62706e-08
-1.56902e-07
-4.57307e-08
-1.58544e-07
-4.52097e-08
-1.59858e-07
-4.4712e-08
-1.60879e-07
-4.42337e-08
-1.6164e-07
-1.62192e-07
-4.37788e-08
-5.70497e-08
-9.05475e-08
5.75695e-08
-5.64772e-08
-9.78755e-08
-5.58635e-08
-1.04992e-07
-5.52221e-08
-1.11758e-07
-5.45561e-08
-1.18137e-07
-5.38775e-08
-1.24102e-07
-5.31881e-08
-1.29628e-07
-5.24983e-08
-1.34701e-07
-5.18089e-08
-1.39311e-07
-5.11282e-08
-1.43453e-07
-5.04565e-08
-1.47132e-07
-4.97999e-08
-1.50357e-07
-4.9158e-08
-1.53145e-07
-4.8536e-08
-1.55517e-07
-4.79319e-08
-1.57499e-07
-4.73496e-08
-1.59121e-07
-4.67876e-08
-1.60414e-07
-4.62482e-08
-1.61413e-07
-4.57299e-08
-1.62152e-07
-1.62682e-07
-4.52347e-08
-5.92393e-08
-9.10717e-08
5.97895e-08
-5.86433e-08
-9.84578e-08
-5.79995e-08
-1.05622e-07
-5.73243e-08
-1.12424e-07
-5.66221e-08
-1.1883e-07
-5.59048e-08
-1.24813e-07
-5.51755e-08
-1.30351e-07
-5.4444e-08
-1.35428e-07
-5.37123e-08
-1.40036e-07
-5.29883e-08
-1.44172e-07
-5.22727e-08
-1.47841e-07
-5.15719e-08
-1.51053e-07
-5.0886e-08
-1.53825e-07
-5.02188e-08
-1.56179e-07
-4.9571e-08
-1.58141e-07
-4.89441e-08
-1.59741e-07
-4.83386e-08
-1.61012e-07
-4.77556e-08
-1.61989e-07
-4.71953e-08
-1.62705e-07
-1.63213e-07
-4.6658e-08
-6.14569e-08
-9.16375e-08
6.20352e-08
-6.08245e-08
-9.90797e-08
-6.01441e-08
-1.06291e-07
-5.94309e-08
-1.13131e-07
-5.86888e-08
-1.19565e-07
-5.79302e-08
-1.25568e-07
-5.71582e-08
-1.31118e-07
-5.63826e-08
-1.36201e-07
-5.5606e-08
-1.40809e-07
-5.48361e-08
-1.4494e-07
-5.40745e-08
-1.48599e-07
-5.33266e-08
-1.51798e-07
-5.25936e-08
-1.54554e-07
-5.18797e-08
-1.5689e-07
-5.11846e-08
-1.58832e-07
-5.05112e-08
-1.60411e-07
-4.98597e-08
-1.6166e-07
-4.92308e-08
-1.62614e-07
-4.86256e-08
-1.63307e-07
-1.63791e-07
-4.8044e-08
-6.36769e-08
-9.22312e-08
6.4286e-08
-6.30118e-08
-9.97354e-08
-6.22935e-08
-1.06997e-07
-6.15405e-08
-1.13877e-07
-6.07559e-08
-1.20342e-07
-5.99535e-08
-1.26366e-07
-5.91358e-08
-1.3193e-07
-5.83138e-08
-1.3702e-07
-5.74893e-08
-1.41629e-07
-5.6671e-08
-1.45755e-07
-5.58601e-08
-1.49406e-07
-5.5063e-08
-1.52592e-07
-5.42806e-08
-1.55333e-07
-5.35166e-08
-1.5765e-07
-5.27724e-08
-1.59572e-07
-5.20494e-08
-1.61129e-07
-5.13492e-08
-1.62355e-07
-5.06721e-08
-1.63285e-07
-5.002e-08
-1.63954e-07
-1.64413e-07
-4.93919e-08
-6.59074e-08
-9.28654e-08
6.65457e-08
-6.52043e-08
-1.00432e-07
-6.44457e-08
-1.07747e-07
-6.36508e-08
-1.14668e-07
-6.28214e-08
-1.21166e-07
-6.19732e-08
-1.27213e-07
-6.11073e-08
-1.32793e-07
-6.02363e-08
-1.37891e-07
-5.93611e-08
-1.42501e-07
-5.84918e-08
-1.46624e-07
-5.76288e-08
-1.50266e-07
-5.67794e-08
-1.5344e-07
-5.5944e-08
-1.56165e-07
-5.5128e-08
-1.58465e-07
-5.43307e-08
-1.60367e-07
-5.3556e-08
-1.61902e-07
-5.28039e-08
-1.63105e-07
-5.20761e-08
-1.64011e-07
-5.13733e-08
-1.64655e-07
-1.65089e-07
-5.06963e-08
-6.81357e-08
-9.35249e-08
6.88081e-08
-6.73987e-08
-1.01163e-07
-6.65994e-08
-1.08534e-07
-6.57614e-08
-1.15502e-07
-6.48853e-08
-1.22034e-07
-6.39887e-08
-1.28107e-07
-6.30719e-08
-1.33704e-07
-6.21493e-08
-1.38812e-07
-6.12205e-08
-1.43426e-07
-6.02973e-08
-1.47546e-07
-5.93789e-08
-1.5118e-07
-5.84746e-08
-1.54343e-07
-5.75835e-08
-1.57052e-07
-5.67116e-08
-1.59334e-07
-5.58591e-08
-1.61215e-07
-5.50291e-08
-1.62728e-07
-5.42224e-08
-1.63907e-07
-5.34408e-08
-1.64788e-07
-5.26853e-08
-1.65406e-07
-1.65813e-07
-5.19566e-08
-7.03785e-08
-9.42276e-08
7.10841e-08
-6.95998e-08
-1.01937e-07
-6.87565e-08
-1.09368e-07
-6.78724e-08
-1.16384e-07
-6.69468e-08
-1.22954e-07
-6.59994e-08
-1.29055e-07
-6.50289e-08
-1.34671e-07
-6.40518e-08
-1.3979e-07
-6.30664e-08
-1.44408e-07
-6.20862e-08
-1.48527e-07
-6.11094e-08
-1.52155e-07
-6.01466e-08
-1.55306e-07
-5.91958e-08
-1.58001e-07
-5.82657e-08
-1.60264e-07
-5.73533e-08
-1.62125e-07
-5.64657e-08
-1.63616e-07
-5.56004e-08
-1.64771e-07
-5.47623e-08
-1.65626e-07
-5.39496e-08
-1.66217e-07
-1.66597e-07
-5.31664e-08
-7.26221e-08
-9.4958e-08
7.33665e-08
-7.18053e-08
-1.02747e-07
-7.09166e-08
-1.10244e-07
-6.99845e-08
-1.17312e-07
-6.90067e-08
-1.23923e-07
-6.80055e-08
-1.30055e-07
-6.69782e-08
-1.35692e-07
-6.59433e-08
-1.40824e-07
-6.48978e-08
-1.45448e-07
-6.38574e-08
-1.49567e-07
-6.28184e-08
-1.53189e-07
-6.1794e-08
-1.56329e-07
-6.07806e-08
-1.59009e-07
-5.97878e-08
-1.61255e-07
-5.88132e-08
-1.63095e-07
-5.78635e-08
-1.64562e-07
-5.69368e-08
-1.65692e-07
-5.60383e-08
-1.6652e-07
-5.51663e-08
-1.67084e-07
-1.67434e-07
-5.43252e-08
-7.48841e-08
-9.57363e-08
7.56662e-08
-7.40204e-08
-1.03606e-07
-7.30822e-08
-1.11171e-07
-7.20982e-08
-1.18295e-07
-7.10649e-08
-1.2495e-07
-7.00066e-08
-1.31115e-07
-6.89188e-08
-1.36775e-07
-6.78228e-08
-1.41923e-07
-6.67135e-08
-1.46554e-07
-6.56091e-08
-1.50673e-07
-6.45043e-08
-1.5429e-07
-6.34142e-08
-1.57421e-07
-6.23335e-08
-1.60087e-07
-6.12753e-08
-1.62315e-07
-6.02333e-08
-1.64134e-07
-5.92188e-08
-1.65578e-07
-5.8226e-08
-1.66682e-07
-5.72641e-08
-1.67483e-07
-5.63275e-08
-1.68018e-07
-1.68339e-07
-5.54253e-08
-7.71495e-08
-9.65467e-08
7.79753e-08
-7.62425e-08
-1.04506e-07
-7.52528e-08
-1.12146e-07
-7.42145e-08
-1.1933e-07
-7.31221e-08
-1.26032e-07
-7.20031e-08
-1.32234e-07
-7.0851e-08
-1.37921e-07
-6.96899e-08
-1.43085e-07
-6.85126e-08
-1.47726e-07
-6.73402e-08
-1.51847e-07
-6.61651e-08
-1.5546e-07
-6.50056e-08
-1.58581e-07
-6.38541e-08
-1.61233e-07
-6.27253e-08
-1.63443e-07
-6.16131e-08
-1.65241e-07
-6.05288e-08
-1.66661e-07
-5.94666e-08
-1.67739e-07
-5.84368e-08
-1.68511e-07
-5.74333e-08
-1.69015e-07
-1.69304e-07
-5.64659e-08
-7.9437e-08
-9.74115e-08
8.03059e-08
-7.8477e-08
-1.05462e-07
-7.74309e-08
-1.13179e-07
-7.63339e-08
-1.20427e-07
-7.51784e-08
-1.2718e-07
-7.39947e-08
-1.33421e-07
-7.27741e-08
-1.39136e-07
-7.15437e-08
-1.4432e-07
-7.02942e-08
-1.48972e-07
-6.90492e-08
-1.53096e-07
-6.77996e-08
-1.56706e-07
-6.65658e-08
-1.59819e-07
-6.53382e-08
-1.62457e-07
-6.41355e-08
-1.64649e-07
-6.29469e-08
-1.66426e-07
-6.17893e-08
-1.67822e-07
-6.06525e-08
-1.68873e-07
-5.9551e-08
-1.69616e-07
-5.84747e-08
-1.70089e-07
-1.70345e-07
-5.74384e-08
-8.17296e-08
-9.83138e-08
8.26478e-08
-8.07201e-08
-1.06466e-07
-7.96155e-08
-1.14267e-07
-7.84569e-08
-1.21584e-07
-7.72343e-08
-1.28392e-07
-7.59817e-08
-1.34675e-07
-7.46882e-08
-1.40422e-07
-7.33839e-08
-1.45628e-07
-7.20573e-08
-1.50292e-07
-7.07352e-08
-1.54422e-07
-6.94059e-08
-1.5803e-07
-6.80932e-08
-1.61135e-07
-6.67855e-08
-1.6376e-07
-6.55026e-08
-1.65934e-07
-6.42344e-08
-1.67689e-07
-6.29975e-08
-1.6906e-07
-6.17821e-08
-1.70082e-07
-6.06038e-08
-1.70795e-07
-5.94516e-08
-1.71234e-07
-1.71455e-07
-5.83417e-08
-8.40467e-08
-9.92764e-08
8.50136e-08
-8.29777e-08
-1.07532e-07
-8.18092e-08
-1.15421e-07
-8.0584e-08
-1.22811e-07
-7.92898e-08
-1.29678e-07
-7.79638e-08
-1.36007e-07
-7.65925e-08
-1.41789e-07
-7.52095e-08
-1.47018e-07
-7.38007e-08
-1.51697e-07
-7.23964e-08
-1.55833e-07
-7.09823e-08
-1.59441e-07
-6.95852e-08
-1.62538e-07
-6.81909e-08
-1.65151e-07
-6.68239e-08
-1.67307e-07
-6.5469e-08
-1.69041e-07
-6.41488e-08
-1.70386e-07
-6.28486e-08
-1.7138e-07
-6.15888e-08
-1.72061e-07
-6.03541e-08
-1.72466e-07
-1.7265e-07
-5.91661e-08
-8.63713e-08
-1.00283e-07
8.73937e-08
-8.52459e-08
-1.08653e-07
-8.4011e-08
-1.16638e-07
-8.27159e-08
-1.24106e-07
-8.13455e-08
-1.31037e-07
-7.99411e-08
-1.37416e-07
-7.84869e-08
-1.43235e-07
-7.70198e-08
-1.48491e-07
-7.55234e-08
-1.53187e-07
-7.40312e-08
-1.57332e-07
-7.25265e-08
-1.60939e-07
-7.10396e-08
-1.64031e-07
-6.95539e-08
-1.66631e-07
-6.80957e-08
-1.6877e-07
-6.66501e-08
-1.70481e-07
-6.52397e-08
-1.71799e-07
-6.385e-08
-1.72763e-07
-6.25028e-08
-1.73411e-07
-6.11819e-08
-1.7378e-07
-1.73925e-07
-5.99103e-08
-8.87239e-08
-1.01356e-07
8.98017e-08
-8.75312e-08
-1.09845e-07
-8.62239e-08
-1.17929e-07
-8.48531e-08
-1.2548e-07
-8.34013e-08
-1.32479e-07
-8.19134e-08
-1.38912e-07
-8.03706e-08
-1.44772e-07
-7.88138e-08
-1.50058e-07
-7.72238e-08
-1.54773e-07
-7.56377e-08
-1.58928e-07
-7.40363e-08
-1.62537e-07
-7.24531e-08
-1.65623e-07
-7.08687e-08
-1.68212e-07
-6.93146e-08
-1.70333e-07
-6.77702e-08
-1.72022e-07
-6.62648e-08
-1.73314e-07
-6.47786e-08
-1.74247e-07
-6.33386e-08
-1.7486e-07
-6.19239e-08
-1.75191e-07
-1.75296e-07
-6.05635e-08
-9.10872e-08
-1.02481e-07
9.22278e-08
-8.98299e-08
-1.11099e-07
-8.84471e-08
-1.19292e-07
-8.69965e-08
-1.26933e-07
-8.54579e-08
-1.34005e-07
-8.38806e-08
-1.40496e-07
-8.22433e-08
-1.46401e-07
-8.05905e-08
-1.5172e-07
-7.89005e-08
-1.56457e-07
-7.7214e-08
-1.60623e-07
-7.55091e-08
-1.64236e-07
-7.38231e-08
-1.67318e-07
-7.21344e-08
-1.69895e-07
-7.04761e-08
-1.71999e-07
-6.8828e-08
-1.73664e-07
-6.72197e-08
-1.74928e-07
-6.56314e-08
-1.75829e-07
-6.40917e-08
-1.76405e-07
-6.25787e-08
-1.76696e-07
-1.76757e-07
-6.11231e-08
-9.34819e-08
-1.03681e-07
9.46857e-08
-9.21485e-08
-1.12432e-07
-9.06836e-08
-1.20739e-07
-8.91468e-08
-1.28476e-07
-8.75154e-08
-1.35626e-07
-8.58426e-08
-1.4218e-07
-8.41042e-08
-1.48134e-07
-8.23487e-08
-1.53488e-07
-8.05518e-08
-1.58249e-07
-7.87578e-08
-1.6243e-07
-7.69424e-08
-1.66048e-07
-7.51462e-08
-1.69126e-07
-7.33447e-08
-1.71692e-07
-7.15763e-08
-1.73779e-07
-6.98154e-08
-1.75421e-07
-6.80982e-08
-1.76656e-07
-6.63997e-08
-1.77524e-07
-6.4754e-08
-1.78062e-07
-6.31341e-08
-1.78312e-07
-1.78327e-07
-6.1577e-08
-9.58917e-08
-1.0494e-07
9.71668e-08
-9.44842e-08
-1.13838e-07
-9.29331e-08
-1.22268e-07
-9.1305e-08
-1.30109e-07
-8.95746e-08
-1.37343e-07
-8.77995e-08
-1.43965e-07
-8.59531e-08
-1.49971e-07
-8.40876e-08
-1.55365e-07
-8.21762e-08
-1.60154e-07
-8.0267e-08
-1.64351e-07
-7.83331e-08
-1.67975e-07
-7.6419e-08
-1.71051e-07
-7.44979e-08
-1.73607e-07
-7.26101e-08
-1.75676e-07
-7.07303e-08
-1.77294e-07
-6.88952e-08
-1.785e-07
-6.70797e-08
-1.79332e-07
-6.53197e-08
-1.7983e-07
-6.35874e-08
-1.80035e-07
-1.80001e-07
-6.19214e-08
-9.83373e-08
-1.06283e-07
9.96848e-08
-9.68433e-08
-1.15334e-07
-9.51985e-08
-1.23894e-07
-9.34719e-08
-1.31843e-07
-9.16355e-08
-1.39168e-07
-8.97509e-08
-1.45863e-07
-8.77888e-08
-1.51927e-07
-8.58056e-08
-1.57364e-07
-8.37715e-08
-1.62183e-07
-8.1739e-08
-1.66399e-07
-7.96782e-08
-1.70031e-07
-7.76375e-08
-1.73106e-07
-7.5587e-08
-1.75653e-07
-7.35726e-08
-1.77705e-07
-7.15635e-08
-1.79299e-07
-6.96032e-08
-1.80474e-07
-6.76614e-08
-1.81269e-07
-6.57796e-08
-1.81726e-07
-6.39249e-08
-1.81884e-07
-1.81799e-07
-6.21427e-08
-1.00802e-07
-1.07696e-07
1.0223e-07
-9.92227e-08
-1.16913e-07
-9.74794e-08
-1.25613e-07
-9.56482e-08
-1.3368e-07
-9.36986e-08
-1.41103e-07
-9.16968e-08
-1.47876e-07
-8.96108e-08
-1.54003e-07
-8.75013e-08
-1.59487e-07
-8.53359e-08
-1.6434e-07
-8.3171e-08
-1.68578e-07
-8.09741e-08
-1.72221e-07
-7.87977e-08
-1.75296e-07
-7.66096e-08
-1.77834e-07
-7.44578e-08
-1.79868e-07
-7.23119e-08
-1.81437e-07
-7.02159e-08
-1.8258e-07
-6.81397e-08
-1.83337e-07
-6.61265e-08
-1.83749e-07
-6.41427e-08
-1.83857e-07
-1.83716e-07
-6.22355e-08
-1.03306e-07
-1.09202e-07
1.04817e-07
-1.01629e-07
-1.18592e-07
-9.97787e-08
-1.27441e-07
-9.78349e-08
-1.35633e-07
-9.5764e-08
-1.4316e-07
-9.36367e-08
-1.50019e-07
-9.1418e-08
-1.56214e-07
-8.91731e-08
-1.6175e-07
-8.68669e-08
-1.6664e-07
-8.45599e-08
-1.70902e-07
-8.2217e-08
-1.74558e-07
-7.98946e-08
-1.77635e-07
-7.75576e-08
-1.80165e-07
-7.52599e-08
-1.82182e-07
-7.29651e-08
-1.83726e-07
-7.07247e-08
-1.84836e-07
-6.8503e-08
-1.85554e-07
-6.63495e-08
-1.85919e-07
-6.42253e-08
-1.85974e-07
-1.85775e-07
-6.21843e-08
-1.05834e-07
-1.10788e-07
1.07437e-07
-1.04059e-07
-1.20368e-07
-1.02097e-07
-1.29376e-07
-1.00033e-07
-1.37705e-07
-9.78325e-08
-1.45344e-07
-9.55706e-08
-1.52295e-07
-9.32097e-08
-1.58563e-07
-9.08195e-08
-1.64156e-07
-8.83621e-08
-1.69089e-07
-8.59025e-08
-1.73378e-07
-8.34027e-08
-1.77049e-07
-8.09237e-08
-1.8013e-07
-7.84279e-08
-1.82652e-07
-7.59715e-08
-1.84653e-07
-7.35188e-08
-1.8617e-07
-7.11217e-08
-1.87246e-07
-6.8745e-08
-1.87921e-07
-6.64399e-08
-1.88237e-07
-6.41667e-08
-1.88235e-07
-1.87973e-07
-6.19817e-08
-1.08407e-07
-1.12481e-07
1.10105e-07
-1.06521e-07
-1.22257e-07
-1.04437e-07
-1.31436e-07
-1.02244e-07
-1.39908e-07
-9.99045e-08
-1.47668e-07
-9.74982e-08
-1.54719e-07
-9.49849e-08
-1.61067e-07
-9.24386e-08
-1.66723e-07
-8.9819e-08
-1.71701e-07
-8.71951e-08
-1.76022e-07
-8.45269e-08
-1.79711e-07
-8.1879e-08
-1.82797e-07
-7.92113e-08
-1.85313e-07
-7.65857e-08
-1.87297e-07
-7.39611e-08
-1.88788e-07
-7.13967e-08
-1.89828e-07
-6.8852e-08
-1.90458e-07
-6.63845e-08
-1.90722e-07
-6.39494e-08
-1.90661e-07
-1.90333e-07
-6.16099e-08
-1.1101e-07
-1.14265e-07
1.12812e-07
-1.09012e-07
-1.24257e-07
-1.06799e-07
-1.33619e-07
-1.04469e-07
-1.42247e-07
-1.01981e-07
-1.50138e-07
-9.94197e-08
-1.57296e-07
-9.67428e-08
-1.63732e-07
-9.40287e-08
-1.69455e-07
-9.12347e-08
-1.74485e-07
-8.84342e-08
-1.78841e-07
-8.55846e-08
-1.82551e-07
-8.27551e-08
-1.85644e-07
-7.99034e-08
-1.88155e-07
-7.70939e-08
-1.90122e-07
-7.42861e-08
-1.91586e-07
-7.15401e-08
-1.92588e-07
-6.88157e-08
-1.93172e-07
-6.61725e-08
-1.9338e-07
-6.35651e-08
-1.93255e-07
-1.92853e-07
-6.10589e-08
-1.13666e-07
-1.16169e-07
1.15576e-07
-1.1154e-07
-1.26387e-07
-1.09189e-07
-1.35943e-07
-1.0671e-07
-1.44738e-07
-1.04063e-07
-1.52769e-07
-1.01335e-07
-1.60044e-07
-9.84823e-08
-1.66574e-07
-9.55878e-08
-1.72372e-07
-9.26062e-08
-1.77458e-07
-8.96154e-08
-1.81854e-07
-8.65706e-08
-1.85588e-07
-8.3545e-08
-1.8869e-07
-8.04939e-08
-1.91198e-07
-7.74875e-08
-1.93149e-07
-7.44802e-08
-1.94585e-07
-7.15395e-08
-1.95548e-07
-6.86202e-08
-1.96083e-07
-6.57881e-08
-1.96232e-07
-6.29932e-08
-1.96039e-07
-1.95561e-07
-6.03078e-08
-1.16358e-07
-1.1818e-07
1.18388e-07
-1.14104e-07
-1.28643e-07
-1.11605e-07
-1.3841e-07
-1.08969e-07
-1.47384e-07
-1.06151e-07
-1.55567e-07
-1.03244e-07
-1.62968e-07
-1.00203e-07
-1.69601e-07
-9.7114e-08
-1.75482e-07
-9.39305e-08
-1.8063e-07
-9.07345e-08
-1.85071e-07
-8.74791e-08
-1.88832e-07
-8.4242e-08
-1.91947e-07
-8.09767e-08
-1.94452e-07
-7.77561e-08
-1.96387e-07
-7.45353e-08
-1.97794e-07
-7.1383e-08
-1.98717e-07
-6.82544e-08
-1.99199e-07
-6.52177e-08
-1.99285e-07
-6.22224e-08
-1.99018e-07
-1.98456e-07
-5.93433e-08
-1.19112e-07
-1.20326e-07
1.21266e-07
-1.16713e-07
-1.31048e-07
-1.14055e-07
-1.41038e-07
-1.11248e-07
-1.50205e-07
-1.08247e-07
-1.5855e-07
-1.05148e-07
-1.66088e-07
-1.01903e-07
-1.72834e-07
-9.8605e-08
-1.78804e-07
-9.52039e-08
-1.84022e-07
-9.17863e-08
-1.88512e-07
-8.83037e-08
-1.92306e-07
-8.48378e-08
-1.95436e-07
-8.13399e-08
-1.97941e-07
-7.7889e-08
-1.9986e-07
-7.44355e-08
-2.01238e-07
-7.10554e-08
-2.02118e-07
-6.76994e-08
-2.02545e-07
-6.44421e-08
-2.02564e-07
-6.12285e-08
-2.02219e-07
-2.01569e-07
-5.81405e-08
-1.21912e-07
-1.22596e-07
1.24202e-07
-1.19364e-07
-1.33598e-07
-1.16538e-07
-1.4383e-07
-1.1355e-07
-1.53205e-07
-1.10351e-07
-1.61727e-07
-1.07046e-07
-1.69413e-07
-1.03583e-07
-1.76281e-07
-1.00059e-07
-1.82351e-07
-9.64227e-08
-1.87645e-07
-9.27657e-08
-1.92192e-07
-8.90372e-08
-1.96022e-07
-8.53238e-08
-1.99171e-07
-8.15754e-08
-2.01677e-07
-7.78735e-08
-2.03582e-07
-7.41698e-08
-2.04929e-07
-7.05415e-08
-2.05764e-07
-6.69405e-08
-2.06133e-07
-6.34435e-08
-2.06079e-07
-5.99955e-08
-2.05649e-07
-2.04902e-07
-5.66812e-08
-1.24783e-07
-1.25018e-07
1.27214e-07
-1.2207e-07
-1.36316e-07
-1.19062e-07
-1.46806e-07
-1.15877e-07
-1.56403e-07
-1.12467e-07
-1.65117e-07
-1.08939e-07
-1.72964e-07
-1.0524e-07
-1.79966e-07
-1.01472e-07
-1.86144e-07
-9.75825e-08
-1.91524e-07
-9.36663e-08
-1.96134e-07
-8.96719e-08
-2.00006e-07
-8.56898e-08
-2.03177e-07
-8.16686e-08
-2.05687e-07
-7.76957e-08
-2.07579e-07
-7.37186e-08
-2.08895e-07
-6.98223e-08
-2.09684e-07
-6.59543e-08
-2.0999e-07
-6.2198e-08
-2.0986e-07
-5.84944e-08
-2.09338e-07
-2.08487e-07
-5.49352e-08
-1.27709e-07
-1.27582e-07
1.30295e-07
-1.24827e-07
-1.39201e-07
-1.21626e-07
-1.4997e-07
-1.18232e-07
-1.59809e-07
-1.14595e-07
-1.6873e-07
-1.10827e-07
-1.76753e-07
-1.06875e-07
-1.83902e-07
-1.02843e-07
-1.902e-07
-9.86787e-08
-1.95675e-07
-9.44816e-08
-2.00355e-07
-9.01984e-08
-2.04276e-07
-8.59248e-08
-2.07474e-07
-8.16082e-08
-2.09991e-07
-7.73392e-08
-2.11869e-07
-7.30669e-08
-2.13154e-07
-6.88778e-08
-2.13892e-07
-6.47208e-08
-2.14132e-07
-6.0682e-08
-2.13918e-07
-5.67029e-08
-2.13298e-07
-2.12332e-07
-5.28779e-08
-1.30719e-07
-1.30319e-07
1.33466e-07
-1.27647e-07
-1.42277e-07
-1.24238e-07
-1.53345e-07
-1.20619e-07
-1.63444e-07
-1.16737e-07
-1.72589e-07
-1.12711e-07
-1.80804e-07
-1.08484e-07
-1.88114e-07
-1.04167e-07
-1.94544e-07
-9.97055e-08
-2.00124e-07
-9.52032e-08
-2.04885e-07
-9.06065e-08
-2.08861e-07
-8.60152e-08
-2.12092e-07
-8.1376e-08
-2.14618e-07
-7.67857e-08
-2.16485e-07
-7.21901e-08
-2.17737e-07
-6.76832e-08
-2.18424e-07
-6.32107e-08
-2.18592e-07
-5.88651e-08
-2.18289e-07
-5.45849e-08
-2.17563e-07
-2.16474e-07
-5.04715e-08
-1.33797e-07
-1.3322e-07
1.3672e-07
-1.30531e-07
-1.45546e-07
-1.26901e-07
-1.56937e-07
-1.2304e-07
-1.67318e-07
-1.18896e-07
-1.76707e-07
-1.14591e-07
-1.85132e-07
-1.10068e-07
-1.92619e-07
-1.05441e-07
-1.99196e-07
-1.00656e-07
-2.04894e-07
-9.58219e-08
-2.09745e-07
-9.08834e-08