/*--------------------------------*- C++ -*----------------------------------*\
  =========                 |
  \\      /  F ield         | OpenFOAM: The Open Source CFD Toolbox
   \\    /   O peration     | Website:  https://openfoam.org
    \\  /    A nd           | Version:  6
     \\/     M anipulation  |
\*---------------------------------------------------------------------------*/
FoamFile
{
    version     2.0;
    format      ascii;
    class       volVectorField;
    location    "20";
    object      U;
}
// * * * * * * * * * * * * * * * * * * * * * * * * * * * * * * * * * * * * * //

dimensions      [0 1 -1 0 0 0 0];

internalField   nonuniform List<vector> 
130000
(
(-0.0160807 -0.341397 0)
(-0.0166998 -0.368488 0)
(-0.0172521 -0.395162 0)
(-0.0177497 -0.420871 0)
(-0.0181925 -0.44546 0)
(-0.0185868 -0.468791 0)
(-0.0189378 -0.490742 0)
(-0.0192501 -0.511209 0)
(-0.0195286 -0.53011 0)
(-0.0197777 -0.547386 0)
(-0.0200015 -0.563007 0)
(-0.0202039 -0.576967 0)
(-0.020388 -0.589287 0)
(-0.0205569 -0.600012 0)
(-0.0207127 -0.609212 0)
(-0.0208573 -0.616973 0)
(-0.0209918 -0.623398 0)
(-0.0211172 -0.628605 0)
(-0.0212344 -0.632719 0)
(-0.0213436 -0.635937 0)
(-0.0176895 -0.339953 0)
(-0.0181356 -0.367179 0)
(-0.0185564 -0.393981 0)
(-0.0189602 -0.419821 0)
(-0.0193313 -0.444541 0)
(-0.0196676 -0.467992 0)
(-0.0199711 -0.490054 0)
(-0.0202435 -0.510618 0)
(-0.0204885 -0.529604 0)
(-0.0207092 -0.546952 0)
(-0.0209094 -0.562635 0)
(-0.0210921 -0.576646 0)
(-0.0212603 -0.58901 0)
(-0.0214163 -0.599771 0)
(-0.021562 -0.609002 0)
(-0.0216989 -0.616788 0)
(-0.0218278 -0.623237 0)
(-0.0219494 -0.628465 0)
(-0.0220641 -0.632599 0)
(-0.0221724 -0.635826 0)
(-0.0200467 -0.339129 0)
(-0.0204007 -0.366323 0)
(-0.0207178 -0.393149 0)
(-0.0210207 -0.419034 0)
(-0.021302 -0.443807 0)
(-0.0215589 -0.467314 0)
(-0.0217937 -0.48943 0)
(-0.0220065 -0.510042 0)
(-0.0222006 -0.529072 0)
(-0.0223774 -0.546457 0)
(-0.0225407 -0.562172 0)
(-0.022692 -0.576209 0)
(-0.0228343 -0.588596 0)
(-0.0229688 -0.599376 0)
(-0.0230975 -0.608623 0)
(-0.023221 -0.616424 0)
(-0.0233402 -0.622887 0)
(-0.0234555 -0.628127 0)
(-0.023567 -0.632275 0)
(-0.0236756 -0.635515 0)
(-0.0232913 -0.338568 0)
(-0.0234862 -0.365767 0)
(-0.023658 -0.392619 0)
(-0.0238293 -0.418539 0)
(-0.0239923 -0.443351 0)
(-0.0241442 -0.466898 0)
(-0.0242859 -0.489051 0)
(-0.0244166 -0.509696 0)
(-0.0245388 -0.528754 0)
(-0.024653 -0.546163 0)
(-0.024762 -0.561897 0)
(-0.0248667 -0.575949 0)
(-0.0249692 -0.588346 0)
(-0.0250701 -0.599134 0)
(-0.0251709 -0.608387 0)
(-0.0252715 -0.616193 0)
(-0.0253724 -0.62266 0)
(-0.0254737 -0.627904 0)
(-0.0255747 -0.632055 0)
(-0.0256752 -0.635299 0)
(-0.0270167 -0.338331 0)
(-0.0270879 -0.365516 0)
(-0.0271283 -0.392372 0)
(-0.027171 -0.418303 0)
(-0.0272129 -0.443128 0)
(-0.0272523 -0.46669 0)
(-0.0272911 -0.488856 0)
(-0.0273284 -0.509513 0)
(-0.0273667 -0.528578 0)
(-0.0274059 -0.545993 0)
(-0.0274486 -0.561728 0)
(-0.0274946 -0.575779 0)
(-0.0275461 -0.588173 0)
(-0.0276025 -0.598958 0)
(-0.0276651 -0.608206 0)
(-0.0277329 -0.616007 0)
(-0.0278062 -0.62247 0)
(-0.0278843 -0.627711 0)
(-0.0279654 -0.631859 0)
(-0.0280493 -0.635102 0)
(-0.0310766 -0.338345 0)
(-0.0310326 -0.365529 0)
(-0.030954 -0.392386 0)
(-0.0308781 -0.418318 0)
(-0.0308045 -0.443142 0)
(-0.0307339 -0.466701 0)
(-0.0306692 -0.488861 0)
(-0.0306105 -0.50951 0)
(-0.0305604 -0.528565 0)
(-0.030519 -0.545967 0)
(-0.0304887 -0.561687 0)
(-0.0304691 -0.575723 0)
(-0.0304618 -0.5881 0)
(-0.0304659 -0.598868 0)
(-0.030482 -0.608099 0)
(-0.0305089 -0.615885 0)
(-0.0305461 -0.622333 0)
(-0.0305925 -0.627562 0)
(-0.0306459 -0.631701 0)
(-0.0307052 -0.634936 0)
(-0.0353381 -0.338592 0)
(-0.035193 -0.365783 0)
(-0.0350076 -0.392641 0)
(-0.0348242 -0.418568 0)
(-0.0346448 -0.443383 0)
(-0.0344716 -0.466927 0)
(-0.0343087 -0.48907 0)
(-0.0341568 -0.509698 0)
(-0.0340193 -0.528729 0)
(-0.0338963 -0.546104 0)
(-0.0337905 -0.561795 0)
(-0.0337014 -0.575801 0)
(-0.0336304 -0.588149 0)
(-0.0335765 -0.598887 0)
(-0.0335401 -0.608091 0)
(-0.0335192 -0.615851 0)
(-0.0335136 -0.622276 0)
(-0.0335215 -0.627484 0)
(-0.0335399 -0.631605 0)
(-0.0335677 -0.634827 0)
(-0.0396928 -0.339031 0)
(-0.0394607 -0.366239 0)
(-0.0391878 -0.393101 0)
(-0.0389138 -0.419024 0)
(-0.0386424 -0.443825 0)
(-0.0383776 -0.467351 0)
(-0.0381247 -0.489468 0)
(-0.0378856 -0.510066 0)
(-0.0376643 -0.529063 0)
(-0.0374618 -0.546401 0)
(-0.0372807 -0.562053 0)
(-0.0371212 -0.576018 0)
(-0.0369845 -0.588325 0)
(-0.0368694 -0.599024 0)
(-0.0367764 -0.60819 0)
(-0.0367035 -0.615915 0)
(-0.0366499 -0.622308 0)
(-0.0366138 -0.627487 0)
(-0.0365919 -0.631583 0)
(-0.0365825 -0.634784 0)
(-0.0440826 -0.339608 0)
(-0.0437868 -0.366851 0)
(-0.0434401 -0.39373 0)
(-0.0430888 -0.419657 0)
(-0.0427364 -0.444449 0)
(-0.0423898 -0.467956 0)
(-0.0420549 -0.490044 0)
(-0.0417353 -0.510608 0)
(-0.0414351 -0.529563 0)
(-0.0411564 -0.546856 0)
(-0.0409021 -0.56246 0)
(-0.0406726 -0.576377 0)
(-0.0404694 -0.588635 0)
(-0.0402918 -0.599286 0)
(-0.0401398 -0.608405 0)
(-0.0400117 -0.616086 0)
(-0.0399065 -0.622438 0)
(-0.0398225 -0.627582 0)
(-0.0397555 -0.631645 0)
(-0.0397043 -0.634819 0)
(-0.0485212 -0.340307 0)
(-0.048154 -0.3676 0)
(-0.0477381 -0.394508 0)
(-0.0473147 -0.420445 0)
(-0.0468885 -0.445234 0)
(-0.0464671 -0.468724 0)
(-0.0460568 -0.490784 0)
(-0.0456625 -0.51131 0)
(-0.0452882 -0.530221 0)
(-0.0449372 -0.547465 0)
(-0.0446122 -0.563016 0)
(-0.0443146 -0.576877 0)
(-0.0440459 -0.589078 0)
(-0.0438055 -0.599674 0)
(-0.0435936 -0.608739 0)
(-0.0434088 -0.61637 0)
(-0.0432497 -0.622675 0)
(-0.0431149 -0.627775 0)
(-0.0430001 -0.6318 0)
(-0.0429037 -0.63494 0)
(-0.0529569 -0.341115 0)
(-0.0525325 -0.368469 0)
(-0.052054 -0.395415 0)
(-0.0515652 -0.421372 0)
(-0.0510712 -0.446161 0)
(-0.050581 -0.469638 0)
(-0.0501012 -0.491672 0)
(-0.0496372 -0.512162 0)
(-0.0491933 -0.531028 0)
(-0.0487734 -0.548219 0)
(-0.0483806 -0.563714 0)
(-0.0480166 -0.577515 0)
(-0.0476831 -0.589656 0)
(-0.0473802 -0.60019 0)
(-0.047108 -0.609197 0)
(-0.0468652 -0.61677 0)
(-0.0466508 -0.623022 0)
(-0.0464631 -0.628074 0)
(-0.0462978 -0.632054 0)
(-0.0461533 -0.635155 0)
(-0.0574093 -0.342023 0)
(-0.0569165 -0.369445 0)
(-0.0563776 -0.396436 0)
(-0.0558272 -0.422418 0)
(-0.0552706 -0.447216 0)
(-0.0547162 -0.470685 0)
(-0.0541712 -0.492697 0)
(-0.0536414 -0.513152 0)
(-0.0531312 -0.531973 0)
(-0.0526452 -0.549113 0)
(-0.0521866 -0.564548 0)
(-0.051758 -0.578288 0)
(-0.051361 -0.590364 0)
(-0.0509961 -0.600834 0)
(-0.0506634 -0.609776 0)
(-0.0503624 -0.617289 0)
(-0.0500914 -0.623483 0)
(-0.0498496 -0.628481 0)
(-0.0496323 -0.632412 0)
(-0.0494379 -0.635468 0)
(-0.0618054 -0.343004 0)
(-0.0612768 -0.370506 0)
(-0.0606927 -0.397554 0)
(-0.0600905 -0.423573 0)
(-0.0594775 -0.448388 0)
(-0.0588636 -0.471855 0)
(-0.0582568 -0.49385 0)
(-0.0576638 -0.514274 0)
(-0.0570895 -0.533052 0)
(-0.056539 -0.550139 0)
(-0.056016 -0.565516 0)
(-0.0555235 -0.579191 0)
(-0.0550632 -0.591201 0)
(-0.0546364 -0.601603 0)
(-0.0542431 -0.610479 0)
(-0.0538828 -0.617927 0)
(-0.0535546 -0.624059 0)
(-0.0532572 -0.628998 0)
(-0.052986 -0.632875 0)
(-0.0527397 -0.635882 0)
(-0.0662189 -0.344057 0)
(-0.0656503 -0.371654 0)
(-0.0650184 -0.398773 0)
(-0.0643634 -0.424837 0)
(-0.0636941 -0.449676 0)
(-0.0630211 -0.473146 0)
(-0.0623531 -0.495127 0)
(-0.0616976 -0.515522 0)
(-0.0610598 -0.534259 0)
(-0.0604455 -0.551295 0)
(-0.0598586 -0.566612 0)
(-0.0593027 -0.580223 0)
(-0.0587797 -0.592165 0)
(-0.0582908 -0.602498 0)
(-0.0578366 -0.611304 0)
(-0.0574169 -0.618683 0)
(-0.0570304 -0.62475 0)
(-0.0566764 -0.629628 0)
(-0.0563504 -0.633447 0)
(-0.0560509 -0.636401 0)
(-0.0706241 -0.345216 0)
(-0.0700234 -0.372914 0)
(-0.0693436 -0.400105 0)
(-0.0686363 -0.426218 0)
(-0.0679114 -0.451083 0)
(-0.0671802 -0.474559 0)
(-0.0664521 -0.496528 0)
(-0.0657348 -0.516896 0)
(-0.0650344 -0.535593 0)
(-0.0643568 -0.552577 0)
(-0.0637064 -0.567836 0)
(-0.063087 -0.581382 0)
(-0.0625008 -0.593253 0)
(-0.0619496 -0.603515 0)
(-0.0614337 -0.61225 0)
(-0.0609535 -0.619559 0)
(-0.0605078 -0.625558 0)
(-0.0600959 -0.630371 0)
(-0.0597135 -0.634129 0)
(-0.0593589 -0.637026 0)
(-0.0750034 -0.346469 0)
(-0.0743789 -0.374277 0)
(-0.0736561 -0.401544 0)
(-0.0728994 -0.427709 0)
(-0.0721214 -0.452603 0)
(-0.0713341 -0.476089 0)
(-0.0705474 -0.498049 0)
(-0.0697696 -0.518392 0)
(-0.0690072 -0.53705 0)
(-0.0682669 -0.553985 0)
(-0.0675531 -0.569184 0)
(-0.0668703 -0.582665 0)
(-0.0662209 -0.594467 0)
(-0.0656067 -0.604656 0)
(-0.0650287 -0.613318 0)
(-0.0644871 -0.620555 0)
(-0.0639811 -0.626483 0)
(-0.0635102 -0.631228 0)
(-0.0630703 -0.634923 0)
(-0.0626594 -0.637759 0)
(-0.0793731 -0.347801 0)
(-0.0787196 -0.375724 0)
(-0.0779535 -0.403075 0)
(-0.0771495 -0.429299 0)
(-0.0763207 -0.454229 0)
(-0.0754791 -0.47773 0)
(-0.0746353 -0.499685 0)
(-0.073798 -0.520006 0)
(-0.0729743 -0.538628 0)
(-0.0721712 -0.555515 0)
(-0.071394 -0.570656 0)
(-0.0706471 -0.584072 0)
(-0.0699335 -0.595804 0)
(-0.0692555 -0.60592 0)
(-0.0686141 -0.614507 0)
(-0.0680099 -0.62167 0)
(-0.0674423 -0.627526 0)
(-0.0669107 -0.632201 0)
(-0.0664114 -0.635828 0)
(-0.0659424 -0.638602 0)
(-0.0837043 -0.349175 0)
(-0.0830386 -0.37723 0)
(-0.0822393 -0.404683 0)
(-0.0813917 -0.430979 0)
(-0.0805132 -0.455955 0)
(-0.0796175 -0.479478 0)
(-0.0787164 -0.501435 0)
(-0.0778191 -0.521738 0)
(-0.0769333 -0.540327 0)
(-0.0760668 -0.557167 0)
(-0.0752252 -0.572252 0)
(-0.0744135 -0.585603 0)
(-0.073635 -0.597265 0)
(-0.072892 -0.607308 0)
(-0.072186 -0.61582 0)
(-0.0715178 -0.622907 0)
(-0.0708869 -0.628688 0)
(-0.0702931 -0.633291 0)
(-0.069733 -0.636849 0)
(-0.0692043 -0.639556 0)
(-0.0880938 -0.350611 0)
(-0.0873916 -0.378812 0)
(-0.0865427 -0.406378 0)
(-0.0856419 -0.432756 0)
(-0.0847077 -0.457785 0)
(-0.0837538 -0.481336 0)
(-0.0827923 -0.503298 0)
(-0.0818328 -0.523588 0)
(-0.0808833 -0.542146 0)
(-0.0799517 -0.558943 0)
(-0.0790443 -0.573972 0)
(-0.0781661 -0.58726 0)
(-0.0773207 -0.598852 0)
(-0.0765112 -0.60882 0)
(-0.0757389 -0.617256 0)
(-0.0750047 -0.624266 0)
(-0.0743089 -0.629971 0)
(-0.0736508 -0.6345 0)
(-0.0730276 -0.637985 0)
(-0.0724369 -0.640623 0)
(-0.0924917 -0.352152 0)
(-0.0917492 -0.3805 0)
(-0.0908484 -0.40818 0)
(-0.0898914 -0.434642 0)
(-0.0888987 -0.459727 0)
(-0.0878842 -0.483309 0)
(-0.0868603 -0.50528 0)
(-0.0858367 -0.525559 0)
(-0.0848216 -0.544089 0)
(-0.0838233 -0.560844 0)
(-0.0828482 -0.575819 0)
(-0.0819018 -0.589044 0)
(-0.0809882 -0.600566 0)
(-0.0801101 -0.61046 0)
(-0.0792695 -0.618819 0)
(-0.0784677 -0.625752 0)
(-0.0777045 -0.631378 0)
(-0.0769801 -0.63583 0)
(-0.0762919 -0.639241 0)
(-0.0756372 -0.641808 0)
(-0.0968912 -0.353791 0)
(-0.0961008 -0.382287 0)
(-0.0951459 -0.410084 0)
(-0.0941328 -0.436633 0)
(-0.0930815 -0.461779 0)
(-0.0920057 -0.485397 0)
(-0.0909184 -0.507381 0)
(-0.0898291 -0.527653 0)
(-0.0887469 -0.546159 0)
(-0.0876798 -0.562873 0)
(-0.0866351 -0.577797 0)
(-0.0856182 -0.590959 0)
(-0.0846336 -0.602412 0)
(-0.0836847 -0.612232 0)
(-0.0827734 -0.620513 0)
(-0.081901 -0.627367 0)
(-0.0810684 -0.632914 0)
(-0.0802751 -0.637288 0)
(-0.0795191 -0.640622 0)
(-0.0787975 -0.643114 0)
(-0.101239 -0.355484 0)
(-0.100426 -0.384143 0)
(-0.0994309 -0.412074 0)
(-0.0983664 -0.438725 0)
(-0.0972576 -0.463941 0)
(-0.0961197 -0.487602 0)
(-0.0949672 -0.509605 0)
(-0.0938101 -0.529875 0)
(-0.0926581 -0.548359 0)
(-0.0915199 -0.565036 0)
(-0.0904029 -0.57991 0)
(-0.089313 -0.593012 0)
(-0.0882552 -0.604397 0)
(-0.0872325 -0.614143 0)
(-0.0862477 -0.622346 0)
(-0.0853023 -0.629119 0)
(-0.0843969 -0.634586 0)
(-0.0835319 -0.638879 0)
(-0.0827054 -0.642134 0)
(-0.0819144 -0.644548 0)
(-0.105649 -0.357244 0)
(-0.104789 -0.386085 0)
(-0.103736 -0.414164 0)
(-0.10261 -0.440927 0)
(-0.101437 -0.466223 0)
(-0.100232 -0.489934 0)
(-0.0990097 -0.511961 0)
(-0.097781 -0.532232 0)
(-0.0965559 -0.550699 0)
(-0.0953432 -0.567341 0)
(-0.0941507 -0.582167 0)
(-0.0929845 -0.59521 0)
(-0.0918497 -0.606527 0)
(-0.0907501 -0.616199 0)
(-0.0896885 -0.624324 0)
(-0.0886663 -0.631016 0)
(-0.0876852 -0.636401 0)
(-0.086745 -0.640611 0)
(-0.0858444 -0.643784 0)
(-0.0849803 -0.646119 0)
(-0.110074 -0.359126 0)
(-0.109163 -0.388153 0)
(-0.108049 -0.416383 0)
(-0.106858 -0.443261 0)
(-0.105616 -0.46864 0)
(-0.104339 -0.492404 0)
(-0.103044 -0.514459 0)
(-0.10174 -0.534735 0)
(-0.100439 -0.553187 0)
(-0.0991479 -0.569798 0)
(-0.0978764 -0.584578 0)
(-0.0966304 -0.597563 0)
(-0.0954156 -0.608813 0)
(-0.0942353 -0.618412 0)
(-0.0930931 -0.626458 0)
(-0.0919909 -0.633068 0)
(-0.0909301 -0.638369 0)
(-0.0899111 -0.642495 0)
(-0.0889331 -0.645584 0)
(-0.0879926 -0.647835 0)
(-0.114514 -0.361129 0)
(-0.11354 -0.390345 0)
(-0.11236 -0.418729 0)
(-0.111101 -0.445728 0)
(-0.109788 -0.471197 0)
(-0.108439 -0.495021 0)
(-0.107068 -0.517108 0)
(-0.105687 -0.537393 0)
(-0.104305 -0.555834 0)
(-0.102933 -0.572417 0)
(-0.101579 -0.587153 0)
(-0.100249 -0.600082 0)
(-0.0989493 -0.611266 0)
(-0.0976845 -0.620791 0)
(-0.0964577 -0.628758 0)
(-0.0952711 -0.635286 0)
(-0.0941267 -0.640501 0)
(-0.0930249 -0.644541 0)
(-0.0919649 -0.647543 0)
(-0.0909435 -0.649708 0)
(-0.118906 -0.363211 0)
(-0.117896 -0.392636 0)
(-0.116663 -0.421194 0)
(-0.11534 -0.448328 0)
(-0.113958 -0.473896 0)
(-0.112533 -0.497789 0)
(-0.111084 -0.519917 0)
(-0.10962 -0.540216 0)
(-0.108155 -0.55865 0)
(-0.106697 -0.575206 0)
(-0.105255 -0.589901 0)
(-0.103837 -0.602775 0)
(-0.102449 -0.613895 0)
(-0.101095 -0.623347 0)
(-0.0997796 -0.631235 0)
(-0.0985044 -0.637679 0)
(-0.0972719 -0.642808 0)
(-0.096083 -0.646758 0)
(-0.0949372 -0.64967 0)
(-0.0938311 -0.651747 0)
(-0.12337 -0.365389 0)
(-0.122296 -0.395042 0)
(-0.12099 -0.423789 0)
(-0.119592 -0.451071 0)
(-0.118132 -0.47675 0)
(-0.116626 -0.500719 0)
(-0.115092 -0.522894 0)
(-0.113542 -0.543213 0)
(-0.111988 -0.561644 0)
(-0.110439 -0.578178 0)
(-0.108905 -0.592833 0)
(-0.107394 -0.605655 0)
(-0.105912 -0.616711 0)
(-0.104464 -0.626089 0)
(-0.103054 -0.633898 0)
(-0.101685 -0.640257 0)
(-0.10036 -0.645298 0)
(-0.0990789 -0.649158 0)
(-0.0978422 -0.651978 0)
(-0.0966461 -0.653962 0)
(-0.127837 -0.367707 0)
(-0.126704 -0.397596 0)
(-0.125329 -0.426539 0)
(-0.123853 -0.453975 0)
(-0.12231 -0.479772 0)
(-0.120717 -0.503824 0)
(-0.119094 -0.526051 0)
(-0.117452 -0.546395 0)
(-0.115802 -0.564827 0)
(-0.114157 -0.581341 0)
(-0.112526 -0.59596 0)
(-0.110916 -0.60873 0)
(-0.109335 -0.619723 0)
(-0.107788 -0.629029 0)
(-0.106279 -0.636757 0)
(-0.104811 -0.643031 0)
(-0.103387 -0.647982 0)
(-0.102009 -0.651749 0)
(-0.100677 -0.654474 0)
(-0.0993871 -0.656362 0)
(-0.132327 -0.370161 0)
(-0.131129 -0.4003 0)
(-0.129675 -0.429448 0)
(-0.128116 -0.457049 0)
(-0.126487 -0.48297 0)
(-0.124804 -0.507112 0)
(-0.123086 -0.529397 0)
(-0.121346 -0.549772 0)
(-0.119597 -0.568209 0)
(-0.11785 -0.584707 0)
(-0.116116 -0.599291 0)
(-0.114401 -0.612012 0)
(-0.112715 -0.622942 0)
(-0.111062 -0.632176 0)
(-0.109448 -0.639824 0)
(-0.107875 -0.64601 0)
(-0.106348 -0.650869 0)
(-0.104868 -0.654541 0)
(-0.103434 -0.657168 0)
(-0.102043 -0.658956 0)
(-0.136809 -0.372747 0)
(-0.135552 -0.403152 0)
(-0.134025 -0.43252 0)
(-0.132382 -0.460296 0)
(-0.130662 -0.486352 0)
(-0.128884 -0.510592 0)
(-0.127067 -0.532942 0)
(-0.125225 -0.553352 0)
(-0.12337 -0.571799 0)
(-0.121516 -0.588284 0)
(-0.119672 -0.602837 0)
(-0.117847 -0.615509 0)
(-0.11605 -0.626379 0)
(-0.114285 -0.63554 0)
(-0.11256 -0.643107 0)
(-0.110877 -0.649204 0)
(-0.10924 -0.65397 0)
(-0.107651 -0.657543 0)
(-0.10611 -0.660068 0)
(-0.104614 -0.661752 0)
(-0.141325 -0.375469 0)
(-0.139998 -0.406159 0)
(-0.138385 -0.435761 0)
(-0.136652 -0.463725 0)
(-0.134836 -0.489926 0)
(-0.132957 -0.514272 0)
(-0.131036 -0.536695 0)
(-0.129085 -0.557147 0)
(-0.127119 -0.575609 0)
(-0.125151 -0.592086 0)
(-0.123191 -0.60661 0)
(-0.12125 -0.619237 0)
(-0.119334 -0.630045 0)
(-0.117452 -0.639134 0)
(-0.115608 -0.646619 0)
(-0.113807 -0.652628 0)
(-0.112054 -0.657297 0)
(-0.11035 -0.660769 0)
(-0.108695 -0.663189 0)
(-0.107087 -0.664764 0)
(-0.14584 -0.378333 0)
(-0.144448 -0.409325 0)
(-0.142752 -0.439177 0)
(-0.140926 -0.467342 0)
(-0.139009 -0.493701 0)
(-0.137024 -0.518164 0)
(-0.134992 -0.540668 0)
(-0.132927 -0.561169 0)
(-0.130843 -0.579652 0)
(-0.128754 -0.596124 0)
(-0.126672 -0.610623 0)
(-0.124606 -0.623206 0)
(-0.122567 -0.633955 0)
(-0.120559 -0.642973 0)
(-0.11859 -0.650375 0)
(-0.116665 -0.656292 0)
(-0.114788 -0.660862 0)
(-0.112962 -0.66423 0)
(-0.111187 -0.66654 0)
(-0.109461 -0.668002 0)
(-0.150398 -0.381348 0)
(-0.148926 -0.412661 0)
(-0.147135 -0.44278 0)
(-0.145207 -0.471161 0)
(-0.143183 -0.497689 0)
(-0.141085 -0.52228 0)
(-0.138935 -0.544874 0)
(-0.136748 -0.565431 0)
(-0.134539 -0.583941 0)
(-0.132322 -0.600414 0)
(-0.13011 -0.614891 0)
(-0.127912 -0.627432 0)
(-0.12574 -0.638125 0)
(-0.123599 -0.64707 0)
(-0.121498 -0.654389 0)
(-0.11944 -0.660213 0)
(-0.117432 -0.664682 0)
(-0.115476 -0.667942 0)
(-0.113573 -0.670138 0)
(-0.111721 -0.671482 0)
(-0.154962 -0.384523 0)
(-0.153415 -0.416177 0)
(-0.151529 -0.44658 0)
(-0.149496 -0.475193 0)
(-0.147358 -0.501904 0)
(-0.14514 -0.526634 0)
(-0.142865 -0.549327 0)
(-0.140548 -0.569948 0)
(-0.138206 -0.588491 0)
(-0.135853 -0.60497 0)
(-0.133502 -0.619429 0)
(-0.131165 -0.631932 0)
(-0.128852 -0.642568 0)
(-0.12657 -0.651442 0)
(-0.124327 -0.658677 0)
(-0.122129 -0.664406 0)
(-0.119982 -0.668771 0)
(-0.117889 -0.671919 0)
(-0.115851 -0.673997 0)
(-0.113865 -0.675217 0)
(-0.159578 -0.387871 0)
(-0.157939 -0.419887 0)
(-0.155944 -0.450593 0)
(-0.153795 -0.479453 0)
(-0.151535 -0.506361 0)
(-0.149189 -0.531241 0)
(-0.14678 -0.554044 0)
(-0.144326 -0.574739 0)
(-0.141842 -0.593321 0)
(-0.139344 -0.609811 0)
(-0.136846 -0.624256 0)
(-0.13436 -0.636723 0)
(-0.131896 -0.647304 0)
(-0.129464 -0.656107 0)
(-0.127071 -0.663257 0)
(-0.124723 -0.668889 0)
(-0.122428 -0.673148 0)
(-0.120188 -0.67618 0)
(-0.118005 -0.678135 0)
(-0.115877 -0.679225 0)
(-0.164203 -0.391402 0)
(-0.162476 -0.423803 0)
(-0.160375 -0.454832 0)
(-0.158105 -0.483957 0)
(-0.155716 -0.511076 0)
(-0.153234 -0.53612 0)
(-0.150683 -0.559043 0)
(-0.148081 -0.579819 0)
(-0.145446 -0.598449 0)
(-0.142794 -0.614956 0)
(-0.140139 -0.629391 0)
(-0.137494 -0.641825 0)
(-0.134871 -0.652352 0)
(-0.132278 -0.661084 0)
(-0.129725 -0.668148 0)
(-0.127219 -0.673681 0)
(-0.124765 -0.67783 0)
(-0.12237 -0.680742 0)
(-0.120034 -0.682569 0)
(-0.117756 -0.683522 0)
(-0.168885 -0.395129 0)
(-0.167053 -0.427939 0)
(-0.164828 -0.459312 0)
(-0.162428 -0.48872 0)
(-0.1599 -0.516067 0)
(-0.157273 -0.541288 0)
(-0.154571 -0.564342 0)
(-0.151812 -0.58521 0)
(-0.149016 -0.603895 0)
(-0.146199 -0.620425 0)
(-0.143377 -0.634854 0)
(-0.140563 -0.647258 0)
(-0.137769 -0.657733 0)
(-0.135005 -0.666395 0)
(-0.132281 -0.673372 0)
(-0.129604 -0.678804 0)
(-0.126983 -0.682839 0)
(-0.124421 -0.685626 0)
(-0.12192 -0.687318 0)
(-0.119481 -0.688128 0)
(-0.17358 -0.399063 0)
(-0.171648 -0.43231 0)
(-0.169301 -0.464049 0)
(-0.166764 -0.49376 0)
(-0.16409 -0.521351 0)
(-0.161308 -0.546763 0)
(-0.158444 -0.569962 0)
(-0.155518 -0.590931 0)
(-0.15255 -0.609679 0)
(-0.149557 -0.626238 0)
(-0.146556 -0.640667 0)
(-0.143561 -0.653044 0)
(-0.140586 -0.66347 0)
(-0.13764 -0.67206 0)
(-0.134734 -0.678949 0)
(-0.131876 -0.684277 0)
(-0.129074 -0.688195 0)
(-0.126336 -0.690852 0)
(-0.123661 -0.692403 0)
(-0.121051 -0.693063 0)
(-0.178342 -0.403219 0)
(-0.176289 -0.43693 0)
(-0.173802 -0.46906 0)
(-0.171117 -0.499095 0)
(-0.168285 -0.526948 0)
(-0.165337 -0.552568 0)
(-0.162301 -0.575924 0)
(-0.159197 -0.597005 0)
(-0.156045 -0.615825 0)
(-0.152865 -0.632421 0)
(-0.149673 -0.646854 0)
(-0.146485 -0.659208 0)
(-0.143315 -0.669585 0)
(-0.140173 -0.678106 0)
(-0.137072 -0.684905 0)
(-0.134021 -0.690127 0)
(-0.131027 -0.693922 0)
(-0.128099 -0.696444 0)
(-0.125238 -0.697847 0)
(-0.122444 -0.698348 0)
(-0.183123 -0.407612 0)
(-0.180954 -0.441817 0)
(-0.178327 -0.474363 0)
(-0.175486 -0.504744 0)
(-0.172488 -0.53288 0)
(-0.169363 -0.558723 0)
(-0.166143 -0.58225 0)
(-0.162848 -0.603455 0)
(-0.1595 -0.622357 0)
(-0.156119 -0.638997 0)
(-0.152723 -0.653441 0)
(-0.149328 -0.665774 0)
(-0.14595 -0.676105 0)
(-0.1426 -0.684556 0)
(-0.139291 -0.691265 0)
(-0.136033 -0.696376 0)
(-0.132834 -0.700045 0)
(-0.129704 -0.702426 0)
(-0.126644 -0.703674 0)
(-0.123656 -0.704006 0)
(-0.187977 -0.412257 0)
(-0.18567 -0.446988 0)
(-0.182886 -0.479978 0)
(-0.179876 -0.51073 0)
(-0.176698 -0.539168 0)
(-0.173385 -0.565253 0)
(-0.169968 -0.588966 0)
(-0.166468 -0.610308 0)
(-0.162911 -0.629302 0)
(-0.159315 -0.645994 0)
(-0.155701 -0.660454 0)
(-0.152085 -0.672772 0)
(-0.148484 -0.683059 0)
(-0.144911 -0.691439 0)
(-0.141379 -0.698056 0)
(-0.137898 -0.703054 0)
(-0.13448 -0.706592 0)
(-0.131134 -0.708824 0)
(-0.12786 -0.709908 0)
(-0.124663 -0.710062 0)
(-0.192861 -0.41717 0)
(-0.190419 -0.452461 0)
(-0.187475 -0.485926 0)
(-0.184287 -0.517074 0)
(-0.180918 -0.545837 0)
(-0.177403 -0.572183 0)
(-0.173775 -0.596099 0)
(-0.170058 -0.617591 0)
(-0.166275 -0.636688 0)
(-0.162449 -0.653441 0)
(-0.158601 -0.667924 0)
(-0.154749 -0.68023 0)
(-0.15091 -0.690475 0)
(-0.147098 -0.698786 0)
(-0.143327 -0.705308 0)
(-0.139609 -0.71019 0)
(-0.135957 -0.71359 0)
(-0.132378 -0.715667 0)
(-0.128878 -0.716578 0)
(-0.125458 -0.716543 0)
(-0.197829 -0.42237 0)
(-0.195228 -0.458259 0)
(-0.192103 -0.492229 0)
(-0.188722 -0.523801 0)
(-0.185149 -0.552913 0)
(-0.181418 -0.57954 0)
(-0.177564 -0.603677 0)
(-0.173613 -0.625334 0)
(-0.16959 -0.644547 0)
(-0.165518 -0.66137 0)
(-0.161419 -0.675882 0)
(-0.157313 -0.688182 0)
(-0.153218 -0.698387 0)
(-0.149149 -0.706629 0)
(-0.145122 -0.713054 0)
(-0.14115 -0.717816 0)
(-0.137245 -0.721073 0)
(-0.133419 -0.722986 0)
(-0.129673 -0.723714 0)
(-0.126015 -0.723479 0)
(-0.202834 -0.427877 0)
(-0.200076 -0.464402 0)
(-0.196768 -0.498912 0)
(-0.193183 -0.530937 0)
(-0.189391 -0.560425 0)
(-0.18543 -0.587356 0)
(-0.181335 -0.611732 0)
(-0.177133 -0.63357 0)
(-0.172852 -0.652911 0)
(-0.168515 -0.669814 0)
(-0.164148 -0.684364 0)
(-0.15977 -0.696662 0)
(-0.155401 -0.70683 0)
(-0.151057 -0.715003 0)
(-0.146755 -0.721331 0)
(-0.14251 -0.725967 0)
(-0.138335 -0.729075 0)
(-0.134243 -0.730815 0)
(-0.130236 -0.731349 0)
(-0.126322 -0.730901 0)
(-0.207928 -0.433709 0)
(-0.204991 -0.470912 0)
(-0.201477 -0.505999 0)
(-0.197673 -0.538511 0)
(-0.193647 -0.568401 0)
(-0.189438 -0.59566 0)
(-0.185084 -0.620296 0)
(-0.180614 -0.642333 0)
(-0.176056 -0.661816 0)
(-0.171436 -0.678812 0)
(-0.166781 -0.693408 0)
(-0.16211 -0.70571 0)
(-0.157446 -0.715844 0)
(-0.152807 -0.723948 0)
(-0.14821 -0.730175 0)
(-0.143672 -0.734681 0)
(-0.139206 -0.737632 0)
(-0.134828 -0.739191 0)
(-0.13054 -0.73952 0)
(-0.126351 -0.738844 0)
(-0.213071 -0.439887 0)
(-0.209953 -0.477815 0)
(-0.20623 -0.513518 0)
(-0.202194 -0.546551 0)
(-0.197917 -0.576875 0)
(-0.193443 -0.604488 0)
(-0.188813 -0.629407 0)
(-0.184054 -0.651661 0)
(-0.1792 -0.671302 0)
(-0.174276 -0.688402 0)
(-0.16931 -0.703053 0)
(-0.164326 -0.715366 0)
(-0.159346 -0.725469 0)
(-0.154389 -0.733506 0)
(-0.149475 -0.739629 0)
(-0.144622 -0.744001 0)
(-0.139844 -0.746788 0)
(-0.135158 -0.748154 0)
(-0.130569 -0.748265 0)
(-0.126087 -0.747347 0)
(-0.218318 -0.446438 0)
(-0.214994 -0.485138 0)
(-0.211037 -0.5215 0)
(-0.206749 -0.555092 0)
(-0.202204 -0.585882 0)
(-0.197447 -0.613878 0)
(-0.192518 -0.639104 0)
(-0.187451 -0.661595 0)
(-0.182277 -0.681412 0)
(-0.177027 -0.69863 0)
(-0.171728 -0.713347 0)
(-0.166406 -0.725676 0)
(-0.161085 -0.735753 0)
(-0.155786 -0.743722 0)
(-0.150531 -0.74974 0)
(-0.145338 -0.753972 0)
(-0.140225 -0.756585 0)
(-0.135208 -0.757748 0)
(-0.130294 -0.757628 0)
(-0.125494 -0.75645 0)
(-0.223625 -0.453385 0)
(-0.220093 -0.492909 0)
(-0.215896 -0.529977 0)
(-0.211342 -0.564167 0)
(-0.20651 -0.59546 0)
(-0.201448 -0.623869 0)
(-0.196201 -0.649429 0)
(-0.190802 -0.672181 0)
(-0.185286 -0.692192 0)
(-0.179683 -0.709543 0)
(-0.174026 -0.724336 0)
(-0.16834 -0.736691 0)
(-0.162653 -0.746745 0)
(-0.156986 -0.754647 0)
(-0.151364 -0.760557 0)
(-0.145805 -0.764643 0)
(-0.140331 -0.767074 0)
(-0.134958 -0.768022 0)
(-0.129695 -0.767653 0)
(-0.124555 -0.766198 0)
(-0.22905 -0.460755 0)
(-0.225284 -0.50116 0)
(-0.22082 -0.538983 0)
(-0.215978 -0.573817 0)
(-0.210838 -0.605649 0)
(-0.205449 -0.634507 0)
(-0.199859 -0.660429 0)
(-0.194103 -0.683467 0)
(-0.188219 -0.703692 0)
(-0.182238 -0.721192 0)
(-0.176195 -0.736075 0)
(-0.170117 -0.748463 0)
(-0.164034 -0.7585 0)
(-0.15797 -0.766336 0)
(-0.151951 -0.772136 0)
(-0.145998 -0.776069 0)
(-0.140133 -0.778309 0)
(-0.134376 -0.779027 0)
(-0.128736 -0.778394 0)
(-0.123228 -0.776641 0)
(-0.234552 -0.468577 0)
(-0.230547 -0.509923 0)
(-0.225807 -0.548555 0)
(-0.220659 -0.58408 0)
(-0.21519 -0.616495 0)
(-0.209451 -0.645837 0)
(-0.203493 -0.672154 0)
(-0.197354 -0.695505 0)
(-0.191072 -0.715968 0)
(-0.184683 -0.733635 0)
(-0.178224 -0.748622 0)
(-0.171724 -0.761054 0)
(-0.165214 -0.771078 0)
(-0.158722 -0.778849 0)
(-0.152274 -0.784536 0)
(-0.145895 -0.78831 0)
(-0.139609 -0.790347 0)
(-0.133438 -0.790821 0)
(-0.127392 -0.789906 0)
(-0.121489 -0.787833 0)
(-0.240193 -0.476883 0)
(-0.235918 -0.519234 0)
(-0.230873 -0.558733 0)
(-0.225395 -0.595001 0)
(-0.219571 -0.628045 0)
(-0.213455 -0.657912 0)
(-0.207101 -0.684659 0)
(-0.200549 -0.708353 0)
(-0.193839 -0.729079 0)
(-0.187011 -0.746935 0)
(-0.180102 -0.76204 0)
(-0.173145 -0.774527 0)
(-0.166174 -0.784545 0)
(-0.159218 -0.792254 0)
(-0.152306 -0.797825 0)
(-0.145466 -0.801431 0)
(-0.138725 -0.803254 0)
(-0.132105 -0.803468 0)
(-0.125619 -0.802249 0)
(-0.119288 -0.799832 0)
(-0.245927 -0.485705 0)
(-0.241377 -0.529133 0)
(-0.236016 -0.569561 0)
(-0.230187 -0.606628 0)
(-0.223983 -0.640351 0)
(-0.217464 -0.670787 0)
(-0.210683 -0.698003 0)
(-0.203686 -0.722074 0)
(-0.196515 -0.74309 0)
(-0.189212 -0.761158 0)
(-0.181817 -0.7764 0)
(-0.174366 -0.788954 0)
(-0.166896 -0.798974 0)
(-0.159437 -0.806623 0)
(-0.152024 -0.812074 0)
(-0.144685 -0.815506 0)
(-0.13745 -0.817101 0)
(-0.130345 -0.817038 0)
(-0.123384 -0.815493 0)
(-0.11659 -0.812705 0)
(-0.25182 -0.49508 0)
(-0.246962 -0.539657 0)
(-0.241252 -0.581084 0)
(-0.235044 -0.619012 0)
(-0.228432 -0.653468 0)
(-0.221478 -0.684523 0)
(-0.214239 -0.712251 0)
(-0.206761 -0.736736 0)
(-0.199092 -0.758075 0)
(-0.191275 -0.77638 0)
(-0.183354 -0.79178 0)
(-0.175368 -0.804416 0)
(-0.167356 -0.814446 0)
(-0.159353 -0.822037 0)
(-0.151394 -0.827366 0)
(-0.143514 -0.830615 0)
(-0.135742 -0.831968 0)
(-0.12811 -0.831607 0)
(-0.120633 -0.829711 0)
(-0.113338 -0.826521 0)
(-0.257829 -0.505042 0)
(-0.252656 -0.550852 0)
(-0.246583 -0.593351 0)
(-0.239972 -0.632206 0)
(-0.232923 -0.667457 0)
(-0.225501 -0.699184 0)
(-0.217767 -0.727473 0)
(-0.209771 -0.752414 0)
(-0.201563 -0.774112 0)
(-0.19319 -0.792684 0)
(-0.184699 -0.808264 0)
(-0.176131 -0.820999 0)
(-0.167531 -0.831049 0)
(-0.158936 -0.838586 0)
(-0.150385 -0.843791 0)
(-0.141916 -0.846847 0)
(-0.133562 -0.847942 0)
(-0.125357 -0.847261 0)
(-0.117321 -0.844987 0)
(-0.109483 -0.841361 0)
(-0.264022 -0.515634 0)
(-0.258497 -0.562764 0)
(-0.252026 -0.606415 0)
(-0.24498 -0.646272 0)
(-0.23746 -0.682384 0)
(-0.229534 -0.714844 0)
(-0.221267 -0.743747 0)
(-0.212711 -0.769191 0)
(-0.203919 -0.791288 0)
(-0.194942 -0.810161 0)
(-0.185831 -0.825948 0)
(-0.176632 -0.8388 0)
(-0.16739 -0.848883 0)
(-0.15815 -0.85637 0)
(-0.148954 -0.861447 0)
(-0.139842 -0.8643 0)
(-0.130854 -0.86512 0)
(-0.122026 -0.864095 0)
(-0.113381 -0.86141 0)
(-0.104952 -0.857311 0)
(-0.270359 -0.526897 0)
(-0.26447 -0.575441 0)
(-0.257583 -0.620333 0)
(-0.250074 -0.661271 0)
(-0.24205 -0.698319 0)
(-0.233582 -0.73158 0)
(-0.224738 -0.761157 0)
(-0.215575 -0.787158 0)
(-0.20615 -0.809701 0)
(-0.196517 -0.828913 0)
(-0.18673 -0.844938 0)
(-0.176842 -0.85793 0)
(-0.166902 -0.868058 0)
(-0.156958 -0.875502 0)
(-0.147057 -0.880447 0)
(-0.137245 -0.883085 0)
(-0.127564 -0.88361 0)
(-0.118057 -0.882213 0)
(-0.108749 -0.879082 0)
(-0.0996785 -0.874467 0)
(-0.276907 -0.538877 0)
(-0.270617 -0.588936 0)
(-0.263275 -0.635164 0)
(-0.255267 -0.677275 0)
(-0.246698 -0.715341 0)
(-0.237644 -0.749477 0)
(-0.228177 -0.779798 0)
(-0.218356 -0.806417 0)
(-0.208241 -0.829458 0)
(-0.197893 -0.849054 0)
(-0.18737 -0.865351 0)
(-0.176728 -0.878509 0)
(-0.166024 -0.8887 0)
(-0.155308 -0.896105 0)
(-0.144636 -0.900915 0)
(-0.134057 -0.903325 0)
(-0.123619 -0.903532 0)
(-0.11337 -0.901731 0)
(-0.103338 -0.898113 0)
(-0.0935673 -0.892934 0)
(-0.28363 -0.551622 0)
(-0.276923 -0.603306 0)
(-0.269104 -0.650975 0)
(-0.260563 -0.694356 0)
(-0.25141 -0.733533 0)
(-0.241724 -0.768632 0)
(-0.231581 -0.799774 0)
(-0.221043 -0.827081 0)
(-0.210178 -0.850681 0)
(-0.199048 -0.870711 0)
(-0.187719 -0.887321 0)
(-0.176252 -0.900675 0)
(-0.164709 -0.910947 0)
(-0.153148 -0.918321 0)
(-0.141629 -0.922993 0)
(-0.130209 -0.925159 0)
(-0.118941 -0.925021 0)
(-0.107879 -0.922779 0)
(-0.0970577 -0.918628 0)
(-0.0865253 -0.912828 0)
(-0.290595 -0.565182 0)
(-0.283431 -0.618608 0)
(-0.275092 -0.667834 0)
(-0.265977 -0.712597 0)
(-0.256192 -0.752989 0)
(-0.245821 -0.789148 0)
(-0.234943 -0.821201 0)
(-0.223625 -0.849275 0)
(-0.211939 -0.873504 0)
(-0.199953 -0.894027 0)
(-0.18774 -0.910998 0)
(-0.175365 -0.924583 0)
(-0.162899 -0.934957 0)
(-0.150407 -0.94231 0)
(-0.137956 -0.946838 0)
(-0.125609 -0.948742 0)
(-0.11343 -0.948229 0)
(-0.101476 -0.945501 0)
(-0.089789 -0.940762 0)
(-0.0784237 -0.934275 0)
(-0.29777 -0.579607 0)
(-0.290129 -0.634906 0)
(-0.281244 -0.685817 0)
(-0.271513 -0.732086 0)
(-0.261048 -0.773813 0)
(-0.249933 -0.811142 0)
(-0.238254 -0.844208 0)
(-0.226084 -0.873141 0)
(-0.213497 -0.89808 0)
(-0.200571 -0.919165 0)
(-0.187384 -0.936552 0)
(-0.174009 -0.950408 0)
(-0.160525 -0.960911 0)
(-0.147005 -0.968252 0)
(-0.133525 -0.97263 0)
(-0.120157 -0.97425 0)
(-0.106973 -0.973324 0)
(-0.0940389 -0.97006 0)
(-0.0814034 -0.964667 0)
(-0.069129 -0.957417 0)
(-0.305218 -0.594953 0)
(-0.29706 -0.652266 0)
(-0.287581 -0.705006 0)
(-0.277184 -0.752923 0)
(-0.265979 -0.796119 0)
(-0.254055 -0.834745 0)
(-0.2415 -0.868941 0)
(-0.228394 -0.89884 0)
(-0.214819 -0.924581 0)
(-0.200857 -0.946307 0)
(-0.186594 -0.964175 0)