/*--------------------------------*- C++ -*----------------------------------*\
  =========                 |
  \\      /  F ield         | OpenFOAM: The Open Source CFD Toolbox
   \\    /   O peration     | Website:  https://openfoam.org
    \\  /    A nd           | Version:  6
     \\/     M anipulation  |
\*---------------------------------------------------------------------------*/
FoamFile
{
    version     2.0;
    format      ascii;
    class       volVectorField;
    location    "20";
    object      U;
}
// * * * * * * * * * * * * * * * * * * * * * * * * * * * * * * * * * * * * * //

dimensions      [0 1 -1 0 0 0 0];

internalField   nonuniform List<vector> 
10000
(
(-0.000489425 -3.15542 0)
(-0.00283194 -4.22157 0)
(-0.00558351 -4.73953 0)
(-0.00694297 -5.08005 0)
(-0.0069158 -5.2975 0)
(-0.00623392 -5.42956 0)
(-0.00535575 -5.50666 0)
(-0.00444203 -5.54984 0)
(-0.00352822 -5.57184 0)
(-0.00262544 -5.57954 0)
(-0.00172106 -5.57588 0)
(-0.000813556 -5.56089 0)
(0.00011005 -5.53171 0)
(0.00106124 -5.4818 0)
(0.00204886 -5.39923 0)
(0.00301502 -5.26442 0)
(0.0036424 -5.04849 0)
(0.00327312 -4.71355 0)
(0.00204762 -4.20231 0)
(0.000626768 -3.14541 0)
(-0.000248029 -3.15763 0)
(-0.000436147 -4.2195 0)
(-0.00208049 -4.73832 0)
(-0.00326363 -5.0802 0)
(-0.00386514 -5.29888 0)
(-0.0038711 -5.43174 0)
(-0.00359336 -5.50922 0)
(-0.00313474 -5.55252 0)
(-0.00262031 -5.57454 0)
(-0.00207245 -5.58223 0)
(-0.00151713 -5.57858 0)
(-0.000956597 -5.56365 0)
(-0.00042078 -5.53459 0)
(7.65423e-05 -5.48482 0)
(0.000518376 -5.40226 0)
(0.000820725 -5.26714 0)
(0.000861282 -5.05042 0)
(0.000782094 -4.71419 0)
(0.000304989 -4.20148 0)
(0.000797944 -3.14764 0)
(-0.00102344 -3.15742 0)
(-0.00109795 -4.217 0)
(-0.00141895 -4.73654 0)
(-0.00207167 -5.0793 0)
(-0.00243348 -5.29863 0)
(-0.00255385 -5.43185 0)
(-0.00248576 -5.50947 0)
(-0.00229106 -5.55288 0)
(-0.00202781 -5.575 0)
(-0.00170326 -5.58276 0)
(-0.00135428 -5.57914 0)
(-0.00100458 -5.56419 0)
(-0.000683274 -5.53506 0)
(-0.000367683 -5.48513 0)
(-8.64085e-05 -5.40237 0)
(0.000173147 -5.26698 0)
(0.000386127 -5.04981 0)
(0.000596586 -4.71318 0)
(0.000729094 -4.20014 0)
(0.000822723 -3.14609 0)
(-0.000890196 -3.15529 0)
(-0.000956667 -4.21456 0)
(-0.000799964 -4.73472 0)
(-0.0010129 -5.07801 0)
(-0.00120645 -5.298 0)
(-0.00141693 -5.43162 0)
(-0.0015049 -5.50943 0)
(-0.0015074 -5.55306 0)
(-0.00144244 -5.57535 0)
(-0.00130628 -5.58321 0)
(-0.00113722 -5.57967 0)
(-0.000964392 -5.56468 0)
(-0.000807766 -5.53548 0)
(-0.00066271 -5.48559 0)
(-0.000536593 -5.40289 0)
(-0.000358537 -5.26724 0)
(-0.000142787 -5.04975 0)
(6.91819e-05 -4.7129 0)
(0.000518362 -4.1997 0)
(9.92992e-05 -3.14519 0)
(-0.000512215 -3.15281 0)
(-0.000867415 -4.21314 0)
(-0.000953492 -4.73339 0)
(-0.0007413 -5.07701 0)
(-0.000820468 -5.29721 0)
(-0.000910923 -5.43102 0)
(-0.00102583 -5.50891 0)
(-0.00109759 -5.55272 0)
(-0.00110354 -5.57523 0)
(-0.00104351 -5.58323 0)
(-0.000944514 -5.57973 0)
(-0.000842634 -5.56475 0)
(-0.000749003 -5.53552 0)
(-0.000672153 -5.48562 0)
(-0.000594681 -5.40283 0)
(-0.000406461 -5.26719 0)
(-0.000182105 -5.04988 0)
(0.0001513 -4.71255 0)
(0.000372837 -4.199 0)
(-0.000256904 -3.14391 0)
(0.000331329 -3.15206 0)
(-0.000457202 -4.2137 0)
(-0.000797224 -4.7333 0)
(-0.00070764 -5.07714 0)
(-0.000781659 -5.29734 0)
(-0.000850704 -5.43087 0)
(-0.000928189 -5.50879 0)
(-0.000990121 -5.55268 0)
(-0.000981162 -5.57526 0)
(-0.000921451 -5.58333 0)
(-0.000835307 -5.57988 0)
(-0.000729958 -5.56492 0)
(-0.000620903 -5.5357 0)
(-0.00049256 -5.48572 0)
(-0.000379499 -5.4029 0)
(-0.000181623 -5.2676 0)
(-3.82385e-05 -5.05054 0)
(0.000171534 -4.71286 0)
(1.43508e-05 -4.19947 0)
(-0.000587816 -3.1431 0)
(0.000490827 -3.15208 0)
(-0.000378022 -4.21431 0)
(-0.000498556 -4.73409 0)
(-0.000592241 -5.07786 0)
(-0.00060529 -5.2978 0)
(-0.000661386 -5.43108 0)
(-0.000762396 -5.50891 0)
(-0.000827501 -5.55282 0)
(-0.00083037 -5.57545 0)
(-0.000790114 -5.58356 0)
(-0.000712075 -5.58011 0)
(-0.000609143 -5.56518 0)
(-0.00047603 -5.53598 0)
(-0.000313969 -5.48603 0)
(-0.000167421 -5.40326 0)
(-3.43009e-05 -5.26793 0)
(4.05979e-05 -5.05095 0)
(-2.0784e-06 -4.71333 0)
(-0.000126203 -4.20014 0)
(-0.000492014 -3.14326 0)
(0.000108554 -3.15185 0)
(-0.000267309 -4.21414 0)
(-0.000232917 -4.73415 0)
(-0.000274002 -5.07791 0)
(-0.000283492 -5.29765 0)
(-0.000300049 -5.43097 0)
(-0.000413788 -5.50887 0)
(-0.000532574 -5.5528 0)
(-0.000604152 -5.5755 0)
(-0.000628091 -5.58369 0)
(-0.000605234 -5.58031 0)
(-0.000530228 -5.56547 0)
(-0.000400376 -5.53639 0)
(-0.000264951 -5.48652 0)
(-0.000127167 -5.40365 0)
(-5.17386e-05 -5.26828 0)
(-6.83819e-05 -5.05138 0)
(-0.000276739 -4.71405 0)
(-0.000345499 -4.20088 0)
(-3.7824e-05 -3.14437 0)
(-5.8897e-05 -3.15109 0)
(-6.30286e-05 -4.21363 0)
(3.95034e-05 -4.73345 0)
(-1.55482e-05 -5.0773 0)
(-1.96287e-05 -5.29715 0)
(-9.25746e-05 -5.43046 0)
(-0.000216076 -5.50849 0)
(-0.000366695 -5.55255 0)
(-0.000496509 -5.57534 0)
(-0.000581983 -5.58363 0)
(-0.000614319 -5.58038 0)
(-0.000599236 -5.56564 0)
(-0.000540441 -5.53665 0)
(-0.000482124 -5.48688 0)
(-0.000431311 -5.404 0)
(-0.00040292 -5.26857 0)
(-0.000512017 -5.05167 0)
(-0.000648573 -4.71425 0)
(-0.000512356 -4.20108 0)
(0.000465793 -3.14565 0)
(-2.06253e-05 -3.15054 0)
(6.68158e-05 -4.21382 0)
(8.34925e-05 -4.73342 0)
(-6.49291e-05 -5.07684 0)
(-7.6525e-05 -5.2967 0)
(-0.000181285 -5.43015 0)
(-0.000279218 -5.50815 0)
(-0.00040947 -5.55222 0)
(-0.000524385 -5.57506 0)
(-0.000617671 -5.58344 0)
(-0.000683282 -5.58027 0)
(-0.000719671 -5.56556 0)
(-0.000753201 -5.53658 0)
(-0.000787722 -5.48674 0)
(-0.000788882 -5.40374 0)
(-0.000841191 -5.26827 0)
(-0.000872773 -5.05112 0)
(-0.000804496 -4.71348 0)
(-0.000512012 -4.20041 0)
(0.000768689 -3.14564 0)
(0.000118112 -3.15061 0)
(0.000165091 -4.2142 0)
(0.000195591 -4.7338 0)
(1.93754e-05 -5.07695 0)
(-0.000101596 -5.29653 0)
(-0.000238931 -5.42982 0)
(-0.000320415 -5.50787 0)
(-0.000422055 -5.55195 0)
(-0.000514063 -5.57482 0)
(-0.000599694 -5.58326 0)
(-0.000660242 -5.58012 0)
(-0.000705035 -5.56542 0)
(-0.000760664 -5.53639 0)
(-0.000782227 -5.48648 0)
(-0.000790592 -5.40358 0)
(-0.000838782 -5.26791 0)
(-0.000823358 -5.05031 0)
(-0.000693267 -4.71299 0)
(-0.000625383 -4.20045 0)
(0.000172588 -3.14568 0)
(-1.85528e-05 -3.15081 0)
(0.00028011 -4.21497 0)
(0.000236192 -4.73412 0)
(0.000129716 -5.07669 0)
(-0.000137334 -5.29634 0)
(-0.000268423 -5.42976 0)
(-0.000346846 -5.50775 0)
(-0.000421731 -5.5518 0)
(-0.000493007 -5.57469 0)
(-0.000556763 -5.58314 0)
(-0.000602912 -5.58004 0)
(-0.000624376 -5.56539 0)
(-0.000637603 -5.53637 0)
(-0.000628928 -5.48647 0)
(-0.000603853 -5.40371 0)
(-0.000591938 -5.26813 0)
(-0.000605961 -5.05044 0)
(-0.000580225 -4.71336 0)
(-0.000602567 -4.20171 0)
(-0.000595978 -3.14644 0)
(-0.000290613 -3.15146 0)
(0.000230605 -4.2153 0)
(0.000247179 -4.7338 0)
(0.000264597 -5.07653 0)
(-4.3986e-05 -5.29629 0)
(-0.000189953 -5.42953 0)
(-0.000306521 -5.50749 0)
(-0.000394782 -5.55158 0)
(-0.000474819 -5.5745 0)
(-0.000537496 -5.583 0)
(-0.000581253 -5.57995 0)
(-0.000610287 -5.56536 0)
(-0.000616805 -5.53639 0)
(-0.000601441 -5.48651 0)
(-0.000571039 -5.40375 0)
(-0.000550956 -5.26816 0)
(-0.000527249 -5.05065 0)
(-0.000496702 -4.71393 0)
(-0.000424838 -4.20239 0)
(-0.000635902 -3.14765 0)
(-0.000323103 -3.15163 0)
(0.000259458 -4.21527 0)
(0.000359118 -4.73327 0)
(0.000402762 -5.07582 0)
(0.000137439 -5.29571 0)
(-0.000125292 -5.42901 0)
(-0.000297435 -5.50704 0)
(-0.000402348 -5.55129 0)
(-0.000495261 -5.57433 0)
(-0.000562679 -5.58286 0)
(-0.000618135 -5.57985 0)
(-0.000655863 -5.56529 0)
(-0.000669342 -5.53635 0)
(-0.000660709 -5.48654 0)
(-0.000621761 -5.40384 0)
(-0.000585513 -5.26815 0)
(-0.000539058 -5.05053 0)
(-0.000476325 -4.71421 0)
(-0.000374703 -4.203 0)
(-0.000434979 -3.14836 0)
(-2.53579e-05 -3.15234 0)
(0.000655026 -4.21593 0)
(0.000452053 -4.73354 0)
(0.00034673 -5.07557 0)
(2.82372e-05 -5.29532 0)
(-0.000227307 -5.42866 0)
(-0.000405297 -5.50677 0)
(-0.000504005 -5.55111 0)
(-0.000577549 -5.5742 0)
(-0.000630784 -5.58275 0)
(-0.000668172 -5.57976 0)
(-0.00070199 -5.56523 0)
(-0.000716756 -5.5363 0)
(-0.000707995 -5.48649 0)
(-0.000690223 -5.40379 0)
(-0.000661915 -5.26817 0)
(-0.000598466 -5.05072 0)
(-0.000499903 -4.71432 0)
(-0.000338924 -4.20284 0)
(-0.00014207 -3.14872 0)
(0.000146675 -3.1533 0)
(0.00056804 -4.21628 0)
(0.000693876 -4.7336 0)
(0.000545243 -5.07542 0)
(0.000215211 -5.295 0)
(-9.03746e-05 -5.42837 0)
(-0.000354715 -5.50658 0)
(-0.000502546 -5.55098 0)
(-0.000595502 -5.57411 0)
(-0.000643893 -5.5827 0)
(-0.000674351 -5.57972 0)
(-0.000682779 -5.56524 0)
(-0.000677731 -5.53634 0)
(-0.000653402 -5.48656 0)
(-0.000637325 -5.40388 0)
(-0.000626975 -5.26824 0)
(-0.000546574 -5.05072 0)
(-0.000447324 -4.71424 0)
(-0.000292401 -4.2028 0)
(-8.77152e-06 -3.14891 0)
(0.000210572 -3.15433 0)
(0.000342822 -4.2159 0)
(0.00056742 -4.7335 0)
(0.00049528 -5.07508 0)
(0.000306111 -5.29446 0)
(-1.97414e-05 -5.42798 0)
(-0.000294139 -5.50625 0)
(-0.000485559 -5.55074 0)
(-0.000605509 -5.57398 0)
(-0.000670522 -5.58267 0)
(-0.000697683 -5.57976 0)
(-0.000688331 -5.56534 0)
(-0.000644207 -5.53656 0)
(-0.00057754 -5.48691 0)
(-0.000495685 -5.40433 0)
(-0.000429774 -5.2687 0)
(-0.000385639 -5.05143 0)
(-0.000427137 -4.71522 0)
(-0.000416485 -4.20375 0)
(-0.000305754 -3.15027 0)
(0.00030188 -3.15519 0)
(0.00025447 -4.21634 0)
(0.000529652 -4.73372 0)
(0.000493979 -5.0748 0)
(0.000410146 -5.29384 0)
(9.46888e-05 -5.42741 0)
(-0.000189408 -5.5059 0)
(-0.000439418 -5.55049 0)
(-0.000597887 -5.57377 0)
(-0.000709904 -5.58253 0)
(-0.000782999 -5.57972 0)
(-0.000821052 -5.56537 0)
(-0.000821785 -5.53666 0)
(-0.000828642 -5.48705 0)
(-0.000830545 -5.40447 0)
(-0.000774213 -5.26909 0)
(-0.000846757 -5.05201 0)
(-0.000672741 -4.71568 0)
(-0.000377069 -4.20427 0)
(2.40991e-05 -3.15167 0)
(0.000279879 -3.15551 0)
(0.000196311 -4.21614 0)
(0.000483904 -4.73379 0)
(0.000471006 -5.07435 0)
(0.000471272 -5.29299 0)
(0.000190415 -5.42669 0)
(-9.55738e-05 -5.50539 0)
(-0.000350418 -5.55005 0)
(-0.000540005 -5.57339 0)
(-0.000693527 -5.58222 0)
(-0.000807794 -5.57948 0)
(-0.000913513 -5.56515 0)
(-0.0010136 -5.53642 0)
(-0.00111409 -5.48681 0)
(-0.00121365 -5.40406 0)
(-0.00124432 -5.26855 0)
(-0.00113426 -5.05149 0)
(-0.000715548 -4.715 0)
(-0.000203234 -4.20352 0)
(0.000284681 -3.15125 0)
(0.000275775 -3.1547 0)
(0.000204672 -4.21633 0)
(0.0003178 -4.73384 0)
(0.00035173 -5.07389 0)
(0.000324326 -5.29216 0)
(0.000122267 -5.42585 0)
(-0.000113836 -5.5047 0)
(-0.000324634 -5.54953 0)
(-0.000505038 -5.57298 0)
(-0.000653269 -5.58187 0)
(-0.00077142 -5.57916 0)
(-0.000869184 -5.56486 0)
(-0.000971799 -5.53613 0)
(-0.00106068 -5.48646 0)
(-0.00110289 -5.40379 0)
(-0.00113016 -5.26834 0)
(-0.00085499 -5.05119 0)
(-0.000514785 -4.71502 0)
(-0.000274855 -4.20381 0)
(-0.000399444 -3.15053 0)
(0.000294635 -3.15484 0)
(0.000281957 -4.21692 0)
(0.000123488 -4.73387 0)
(3.38493e-05 -5.07361 0)
(-7.05233e-05 -5.29176 0)
(-0.000178976 -5.42545 0)
(-0.000327274 -5.5043 0)
(-0.000454396 -5.54914 0)
(-0.000583495 -5.57263 0)
(-0.000693777 -5.58158 0)
(-0.000774735 -5.57891 0)
(-0.000837047 -5.56468 0)
(-0.000883 -5.53599 0)
(-0.000889382 -5.48635 0)
(-0.000864392 -5.40385 0)
(-0.000757928 -5.26866 0)
(-0.000508436 -5.05199 0)
(-0.000293306 -4.7164 0)
(-0.000359686 -4.20537 0)
(-0.000923248 -3.15057 0)
(0.000214159 -3.1556 0)
(0.000365431 -4.21771 0)
(6.2756e-05 -4.73423 0)
(-0.00010468 -5.07363 0)
(-0.000364891 -5.29156 0)
(-0.000438602 -5.42524 0)
(-0.000543913 -5.50404 0)
(-0.000630002 -5.54889 0)
(-0.000714898 -5.57245 0)
(-0.000790628 -5.58145 0)
(-0.000862011 -5.57879 0)
(-0.000909368 -5.56456 0)
(-0.000943087 -5.53587 0)
(-0.00095443 -5.48627 0)
(-0.000920201 -5.40388 0)
(-0.000800816 -5.26894 0)
(-0.000597589 -5.05259 0)
(-0.000394667 -4.71726 0)
(-0.00029612 -4.20631 0)
(-0.000681716 -3.15116 0)
(-4.59388e-05 -3.15632 0)
(0.000337521 -4.21793 0)
(0.000194277 -4.734 0)
(-1.37024e-05 -5.07338 0)
(-0.000304062 -5.29132 0)
(-0.000506088 -5.42504 0)
(-0.000646144 -5.50396 0)
(-0.000753608 -5.54879 0)
(-0.000828561 -5.57235 0)
(-0.000891962 -5.58139 0)
(-0.000941066 -5.57875 0)
(-0.000972962 -5.56453 0)
(-0.000986597 -5.53591 0)
(-0.000980926 -5.48636 0)
(-0.000951456 -5.40401 0)
(-0.000872614 -5.26919 0)
(-0.000687613 -5.05294 0)
(-0.000489782 -4.71748 0)
(-0.000305038 -4.20609 0)
(-0.000325955 -3.1515 0)
(-0.000209275 -3.15697 0)
(0.000218752 -4.21784 0)
(0.000163527 -4.73399 0)
(1.61064e-05 -5.07307 0)
(-0.000250735 -5.29113 0)
(-0.000486389 -5.42485 0)
(-0.000673922 -5.50372 0)
(-0.000797017 -5.54863 0)
(-0.000898593 -5.57228 0)
(-0.000968059 -5.58136 0)
(-0.00102105 -5.57876 0)
(-0.00104574 -5.56456 0)
(-0.00103132 -5.53599 0)
(-0.00098372 -5.48653 0)
(-0.000900392 -5.40434 0)
(-0.00075615 -5.26971 0)
(-0.000591127 -5.05366 0)
(-0.000363362 -4.71828 0)
(-0.00034811 -4.2067 0)
(-0.000354795 -3.15216 0)
(-0.000193924 -3.15755 0)
(-2.98619e-05 -4.21764 0)
(0.000195884 -4.73364 0)
(0.000280468 -5.07297 0)
(-6.86648e-06 -5.29087 0)
(-0.000271082 -5.42438 0)
(-0.000528745 -5.50323 0)
(-0.000744375 -5.54828 0)
(-0.000915509 -5.57204 0)
(-0.00104522 -5.58117 0)
(-0.00114468 -5.57864 0)
(-0.0012144 -5.56454 0)
(-0.00123402 -5.53606 0)
(-0.00121746 -5.48676 0)
(-0.00115604 -5.40475 0)
(-0.00102662 -5.27025 0)
(-0.000828454 -5.05419 0)
(-0.000524532 -4.71887 0)
(-0.000272773 -4.20754 0)
(-0.000187114 -3.15306 0)
(6.77272e-05 -3.15782 0)
(9.83088e-06 -4.21717 0)
(0.000371341 -4.73324 0)
(0.000451117 -5.07258 0)
(0.000316823 -5.29026 0)
(-3.71641e-05 -5.42361 0)
(-0.000372916 -5.50262 0)
(-0.000696142 -5.54776 0)
(-0.000950273 -5.57156 0)
(-0.00116285 -5.58078 0)
(-0.00133125 -5.57834 0)
(-0.00145535 -5.56434 0)
(-0.00152998 -5.53602 0)
(-0.00156234 -5.48687 0)
(-0.00152667 -5.40496 0)
(-0.00140357 -5.2706 0)
(-0.00115143 -5.05463 0)
(-0.000754254 -4.71923 0)
(-0.00025169 -4.20761 0)
(0.000140462 -3.1535 0)
(0.000536472 -3.15771 0)
(7.5811e-05 -4.21673 0)
(0.00038501 -4.73298 0)
(0.00037949 -5.07221 0)
(0.00037616 -5.28969 0)
(3.39026e-05 -5.423 0)
(-0.000352408 -5.50193 0)
(-0.000711193 -5.54707 0)
(-0.00102848 -5.57094 0)
(-0.0012936 -5.58025 0)
(-0.00150196 -5.57792 0)
(-0.00166722 -5.56404 0)
(-0.00180062 -5.53581 0)
(-0.00185384 -5.48677 0)
(-0.0018326 -5.40498 0)
(-0.00164898 -5.27079 0)
(-0.00130923 -5.0549 0)
(-0.000845585 -4.71938 0)
(-0.000202973 -4.20775 0)
(9.48537e-05 -3.1532 0)
(0.000920426 -3.15794 0)
(0.000208049 -4.21714 0)
(0.000258094 -4.73345 0)
(0.000241414 -5.07227 0)
(0.000218541 -5.28925 0)
(-7.55987e-05 -5.42233 0)
(-0.000408564 -5.50116 0)
(-0.000755054 -5.54635 0)
(-0.00107579 -5.57028 0)
(-0.00135312 -5.57969 0)
(-0.00158337 -5.57745 0)
(-0.00176553 -5.56365 0)
(-0.00190559 -5.53551 0)
(-0.00197165 -5.48657 0)
(-0.00191724 -5.40498 0)
(-0.00167714 -5.271 0)
(-0.00125865 -5.05531 0)
(-0.000758864 -4.71979 0)
(-0.000212576 -4.20811 0)
(-0.000196533 -3.15266 0)
(0.000777726 -3.15823 0)
(0.000284611 -4.218 0)
(0.000410261 -4.73404 0)
(0.000446309 -5.07225 0)
(0.000321539 -5.28884 0)
(1.339e-05 -5.42173 0)
(-0.000343287 -5.50049 0)
(-0.000706036 -5.54569 0)
(-0.00104173 -5.56968 0)
(-0.0013401 -5.57916 0)
(-0.0015877 -5.57701 0)
(-0.00178878 -5.56328 0)
(-0.00192292 -5.53524 0)
(-0.00195074 -5.48651 0)
(-0.00183552 -5.40521 0)
(-0.00151997 -5.27162 0)
(-0.00107955 -5.05617 0)
(-0.000664359 -4.72073 0)
(-0.000427839 -4.20937 0)
(-0.000555915 -3.1525 0)
(0.000496319 -3.15853 0)
(0.00035876 -4.21846 0)
(0.000537434 -4.73434 0)
(0.000622734 -5.07218 0)
(0.00044485 -5.28848 0)
(0.000156175 -5.42115 0)
(-0.000208301 -5.49977 0)
(-0.000595584 -5.54497 0)
(-0.000966433 -5.56903 0)
(-0.00129273 -5.5786 0)
(-0.00157939 -5.57653 0)
(-0.00180444 -5.56292 0)
(-0.001952 -5.53506 0)
(-0.00198853 -5.48655 0)
(-0.00186986 -5.40561 0)
(-0.00156172 -5.27243 0)
(-0.00116325 -5.05729 0)
(-0.000836596 -4.72198 0)
(-0.000465101 -4.21059 0)
(-0.000655717 -3.15315 0)
(0.000355836 -3.15846 0)
(0.000315237 -4.21875 0)
(0.000672595 -4.73423 0)
(0.000847314 -5.07193 0)
(0.000678126 -5.28793 0)
(0.000394624 -5.42024 0)
(1.22475e-05 -5.4988 0)
(-0.000429282 -5.54409 0)
(-0.000864842 -5.56826 0)
(-0.00125877 -5.57792 0)
(-0.00158975 -5.576 0)
(-0.00185226 -5.56257 0)
(-0.00201891 -5.53492 0)
(-0.00207173 -5.48675 0)
(-0.00199772 -5.40629 0)
(-0.00174055 -5.27349 0)
(-0.00138029 -5.05847 0)
(-0.00105571 -4.72317 0)
(-0.000433501 -4.2118 0)
(-0.000347548 -3.15474 0)
(0.000261749 -3.15829 0)
(0.000338598 -4.21901 0)
(0.000765615 -4.73398 0)
(0.000958621 -5.07136 0)
(0.000780902 -5.28721 0)
(0.000476451 -5.41936 0)
(4.54053e-05 -5.49782 0)
(-0.000427803 -5.54308 0)
(-0.000903451 -5.56734 0)
(-0.00135564 -5.57713 0)
(-0.00174804 -5.57537 0)
(-0.00205786 -5.56213 0)
(-0.00228436 -5.53466 0)
(-0.00240138 -5.48674 0)
(-0.00240974 -5.40669 0)
(-0.00222692 -5.27433 0)
(-0.0018994 -5.05988 0)
(-0.00131892 -4.72476 0)
(-0.00033059 -4.2128 0)
(0.00012179 -3.15577 0)
(0.000384316 -3.15948 0)
(0.000756392 -4.22094 0)
(0.00090187 -4.73519 0)
(0.000887401 -5.07196 0)
(0.00067851 -5.28718 0)
(0.000371114 -5.41893 0)
(-6.08024e-05 -5.49715 0)
(-0.000513669 -5.54222 0)
(-0.000990244 -5.56643 0)
(-0.0014707 -5.57627 0)
(-0.0019149 -5.57458 0)
(-0.00230949 -5.56145 0)
(-0.00263062 -5.53413 0)
(-0.00286106 -5.48639 0)
(-0.0029664 -5.40658 0)
(-0.00285298 -5.27451 0)
(-0.00246476 -5.06035 0)
(-0.00154235 -4.72547 0)
(-0.000258915 -4.21346 0)
(0.000350035 -3.15572 0)
(0.000223663 -3.16099 0)
(0.00064733 -4.22228 0)
(0.00133054 -4.73654 0)
(0.00142986 -5.07264 0)
(0.0012621 -5.28706 0)
(0.000859666 -5.4184 0)
(0.000319979 -5.49637 0)
(-0.000246689 -5.54129 0)
(-0.000815897 -5.56543 0)
(-0.00137307 -5.57526 0)
(-0.00189864 -5.57362 0)
(-0.00237275 -5.5606 0)
(-0.00276515 -5.5334 0)
(-0.00306148 -5.48586 0)
(-0.00318125 -5.40633 0)
(-0.00307518 -5.27476 0)
(-0.0025729 -5.06135 0)
(-0.0016318 -4.72698 0)
(-0.00050752 -4.21481 0)
(-9.84051e-05 -3.15497 0)
(-6.6017e-05 -3.16087 0)
(0.00048989 -4.22197 0)
(0.00145141 -4.73638 0)
(0.00195135 -5.07214 0)
(0.00190179 -5.28601 0)
(0.00147996 -5.41703 0)
(0.000839912 -5.49495 0)
(0.000129319 -5.53991 0)
(-0.000572943 -5.56408 0)
(-0.00124176 -5.57397 0)
(-0.00185772 -5.57246 0)
(-0.00240584 -5.55961 0)
(-0.00286067 -5.53269 0)
(-0.00318079 -5.4855 0)
(-0.00332525 -5.40637 0)
(-0.00321854 -5.27547 0)
(-0.00270666 -5.0629 0)
(-0.0018495 -4.72922 0)
(-0.00072388 -4.21734 0)
(-0.0006618 -3.15578 0)
(0.000413847 -3.16057 0)
(0.000818268 -4.22301 0)
(0.00150842 -4.73675 0)
(0.00208149 -5.07186 0)
(0.00205386 -5.28495 0)
(0.00165498 -5.41548 0)
(0.00101576 -5.49332 0)
(0.000260698 -5.5383 0)
(-0.000505435 -5.56251 0)
(-0.0012442 -5.5725 0)
(-0.00193452 -5.57116 0)
(-0.00254852 -5.55851 0)
(-0.003061 -5.53184 0)
(-0.00343174 -5.48501 0)
(-0.00359436 -5.40638 0)
(-0.00350848 -5.27612 0)
(-0.00298889 -5.06439 0)
(-0.0021215 -4.73132 0)
(-0.000769954 -4.21934 0)
(-0.000554863 -3.15652 0)
(0.00107709 -3.16151 0)
(0.00105661 -4.22555 0)
(0.00169843 -4.73813 0)
(0.00210488 -5.07233 0)
(0.00205403 -5.28471 0)
(0.00165536 -5.41452 0)
(0.00103823 -5.49192 0)
(0.000287722 -5.53675 0)
(-0.000507199 -5.56095 0)
(-0.00128771 -5.57102 0)
(-0.00202716 -5.56978 0)
(-0.00270045 -5.55728 0)
(-0.00326173 -5.5309 0)
(-0.00369038 -5.48441 0)
(-0.0038819 -5.40615 0)
(-0.00377546 -5.27649 0)
(-0.00326651 -5.06566 0)
(-0.00225798 -4.7336 0)
(-0.000974803 -4.2216 0)
(-0.000309636 -3.15718 0)
(0.00107869 -3.16324 0)
(0.00101359 -4.22781 0)
(0.00197401 -4.73998 0)
(0.00235829 -5.07309 0)
(0.00229461 -5.28444 0)
(0.0018701 -5.41354 0)
(0.00118551 -5.49055 0)
(0.000388171 -5.5352 0)
(-0.000467103 -5.55936 0)
(-0.00130688 -5.56948 0)
(-0.00211799 -5.56835 0)
(-0.00285682 -5.556 0)
(-0.00349188 -5.52987 0)
(-0.0039781 -5.48376 0)
(-0.00422337 -5.40603 0)
(-0.00412886 -5.27728 0)
(-0.00360803 -5.06753 0)
(-0.00256441 -4.73603 0)
(-0.00125951 -4.22434 0)
(-0.000472126 -3.15847 0)
(0.000825808 -3.16559 0)
(0.00114502 -4.22988 0)
(0.00234689 -4.74179 0)
(0.00281613 -5.07392 0)
(0.00278179 -5.28411 0)
(0.00229437 -5.41252 0)
(0.0014944 -5.48909 0)
(0.000591041 -5.53353 0)
(-0.00036187 -5.55761 0)
(-0.00129883 -5.56775 0)
(-0.0022024 -5.56673 0)
(-0.0030424 -5.55456 0)
(-0.00377288 -5.52869 0)
(-0.00434157 -5.48297 0)
(-0.00463117 -5.40594 0)
(-0.00455626 -5.27812 0)
(-0.00402561 -5.06924 0)
(-0.00293732 -4.73847 0)
(-0.00157954 -4.22717 0)
(-0.000584274 -3.16063 0)
(0.000643984 -3.16701 0)
(0.00114683 -4.2316 0)
(0.0027209 -4.74363 0)
(0.00347104 -5.07479 0)
(0.00351846 -5.28367 0)
(0.00296125 -5.41117 0)
(0.00205131 -5.48723 0)
(0.000992675 -5.53146 0)
(-9.58404e-05 -5.55552 0)
(-0.00117691 -5.5657 0)
(-0.0022153 -5.56478 0)
(-0.00318946 -5.55279 0)
(-0.00404766 -5.52713 0)
(-0.0047328 -5.48177 0)
(-0.00511941 -5.40539 0)
(-0.00511627 -5.27861 0)
(-0.00457095 -5.07059 0)
(-0.00337504 -4.7404 0)
(-0.001701 -4.22961 0)
(-0.000638497 -3.16216 0)
(0.000630583 -3.16756 0)
(0.00124434 -4.23325 0)
(0.00296753 -4.74499 0)
(0.00405721 -5.07514 0)
(0.00418435 -5.28267 0)
(0.00360444 -5.40925 0)
(0.00259991 -5.48495 0)
(0.0014295 -5.52904 0)
(0.00021017 -5.55308 0)
(-0.000999849 -5.56332 0)
(-0.00215442 -5.56251 0)
(-0.00323484 -5.55068 0)
(-0.00419565 -5.52527 0)
(-0.00496338 -5.48034 0)
(-0.00545281 -5.40462 0)
(-0.0055123 -5.27862 0)
(-0.00491198 -5.07162 0)
(-0.00357496 -4.74239 0)
(-0.00177975 -4.23174 0)
(-0.000787129 -3.16298 0)
(0.00108891 -3.16823 0)
(0.00176998 -4.23662 0)
(0.00313415 -4.74728 0)
(0.00419998 -5.07591 0)
(0.00439193 -5.28202 0)
(0.00387953 -5.4076 0)
(0.002897 -5.48268 0)
(0.00170741 -5.52649 0)
(0.000416921 -5.55049 0)
(-0.000866473 -5.5608 0)
(-0.00209127 -5.56016 0)
(-0.00321603 -5.5486 0)
(-0.00419698 -5.52356 0)
(-0.00496368 -5.47915 0)
(-0.00543994 -5.40422 0)
(-0.00544434 -5.27931 0)
(-0.00486181 -5.07362 0)
(-0.00359002 -4.74565 0)
(-0.00220795 -4.236 0)
(-0.00125247 -3.1652 0)
(0.00136211 -3.17001 0)
(0.00197233 -4.24065 0)
(0.00358807 -4.75022 0)
(0.00453915 -5.07716 0)
(0.00473292 -5.28168 0)
(0.00420194 -5.40606 0)
(0.00320244 -5.48045 0)
(0.00194469 -5.52397 0)
(0.000568923 -5.54786 0)
(-0.000811036 -5.55821 0)
(-0.00214064 -5.55775 0)
(-0.00336751 -5.54649 0)
(-0.00443859 -5.52186 0)
(-0.00527594 -5.47804 0)
(-0.00580492 -5.40402 0)
(-0.00584924 -5.28049 0)
(-0.00530001 -5.0766 0)
(-0.00409469 -4.75009 0)
(-0.00231112 -4.24097 0)
(-0.00136032 -3.16893 0)
(0.00118943 -3.173 0)
(0.00226486 -4.24436 0)
(0.00404287 -4.75331 0)
(0.00495154 -5.07861 0)
(0.00518883 -5.28149 0)
(0.00460373 -5.40463 0)
(0.00355747 -5.4782 0)
(0.00221088 -5.52128 0)
(0.000724994 -5.54503 0)
(-0.000796854 -5.55542 0)
(-0.0022892 -5.55508 0)
(-0.00368788 -5.54404 0)
(-0.00494756 -5.51981 0)
(-0.00595883 -5.47659 0)
(-0.00665925 -5.40343 0)
(-0.00682215 -5.28097 0)
(-0.00630801 -5.07847 0)
(-0.00479495 -4.75341 0)
(-0.00227843 -4.24461 0)
(-0.000785177 -3.17251 0)
(0.00100708 -3.17616 0)
(0.00243934 -4.24849 0)
(0.00459977 -4.75687 0)
(0.00572213 -5.08023 0)
(0.00596523 -5.28137 0)
(0.00534834 -5.40316 0)
(0.00419634 -5.47577 0)
(0.00271349 -5.51831 0)
(0.00106279 -5.54183 0)
(-0.000638685 -5.55218 0)
(-0.00231922 -5.55192 0)
(-0.00391892 -5.54108 0)
(-0.00537271 -5.5172 0)
(-0.00656932 -5.47456 0)
(-0.00740812 -5.40229 0)
(-0.00764174 -5.28104 0)
(-0.0070262 -5.08005 0)
(-0.00521304 -4.75617 0)
(-0.00245322 -4.24785 0)
(-0.000575026 -3.17459 0)
(0.00086394 -3.17884 0)
(0.00252664 -4.25202 0)
(0.0051047 -4.75976 0)
(0.00661066 -5.08153 0)
(0.00693392 -5.28089 0)
(0.00628109 -5.40126 0)
(0.00501627 -5.4729 0)
(0.00336559 -5.51491 0)
(0.00154033 -5.5382 0)
(-0.000342416 -5.54849 0)
(-0.00220308 -5.54832 0)
(-0.00397216 -5.53772 0)
(-0.00556431 -5.51429 0)
(-0.00690065 -5.47232 0)
(-0.00777985 -5.40093 0)
(-0.00803242 -5.28101 0)
(-0.00724889 -5.08187 0)
(-0.00536242 -4.75975 0)
(-0.00280844 -4.25242 0)
(-0.00114901 -3.17677 0)
(0.00107341 -3.18093 0)
(0.00277091 -4.25636 0)
(0.00537576 -4.76304 0)
(0.00709654 -5.08284 0)
(0.00761155 -5.28029 0)
(0.00699684 -5.39909 0)
(0.00567534 -5.4697 0)
(0.00391458 -5.51114 0)
(0.00195044 -5.53418 0)
(-7.66649e-05 -5.54447 0)
(-0.00207832 -5.54445 0)
(-0.00397965 -5.53413 0)
(-0.00567863 -5.51117 0)
(-0.00708692 -5.46997 0)
(-0.0079985 -5.39973 0)
(-0.00824993 -5.28141 0)
(-0.00746783 -5.08417 0)
(-0.00567882 -4.76434 0)
(-0.0032233 -4.25841 0)
(-0.0017537 -3.1797 0)
(0.00142959 -3.18403 0)
(0.00307497 -4.2618 0)
(0.00578067 -4.76716 0)
(0.00753572 -5.08478 0)
(0.00809262 -5.28001 0)
(0.0075092 -5.39705 0)
(0.00613714 -5.46649 0)
(0.00430865 -5.50727 0)
(0.00225008 -5.53002 0)
(0.000105396 -5.54029 0)
(-0.00202244 -5.5404 0)
(-0.00403729 -5.5304 0)
(-0.00585157 -5.50796 0)
(-0.0073487 -5.46757 0)
(-0.00834895 -5.39858 0)
(-0.00861835 -5.282 0)
(-0.00786955 -5.08685 0)
(-0.00606264 -4.76894 0)
(-0.00341916 -4.26397 0)
(-0.0016966 -3.18394 0)
(0.00160274 -3.18801 0)
(0.00353274 -4.26837 0)
(0.0063217 -4.77243 0)
(0.00804292 -5.08758 0)
(0.00854253 -5.2803 0)
(0.00794718 -5.39533 0)
(0.0065465 -5.4634 0)
(0.00466672 -5.50341 0)
(0.00251645 -5.52581 0)
(0.000257009 -5.53598 0)
(-0.00199527 -5.53619 0)
(-0.00413879 -5.5265 0)
(-0.00606889 -5.5046 0)
(-0.00765898 -5.4651 0)
(-0.0087396 -5.39742 0)
(-0.00907615 -5.28266 0)
(-0.00832365 -5.0898 0)
(-0.00647413 -4.7741 0)
(-0.00365539 -4.27015 0)
(-0.00147432 -3.18883 0)
(0.00129689 -3.19218 0)
(0.00358974 -4.27451 0)
(0.00686343 -4.77762 0)
(0.00885296 -5.09034 0)
(0.00939489 -5.28035 0)
(0.00877174 -5.39331 0)
(0.00726327 -5.46006 0)
(0.00522993 -5.49928 0)
(0.00289807 -5.52126 0)
(0.00045001 -5.53128 0)
(-0.00200119 -5.53161 0)
(-0.00434086 -5.52225 0)
(-0.00646318 -5.50096 0)
(-0.00823198 -5.46233 0)
(-0.00945178 -5.396 0)
(-0.00986917 -5.28322 0)
(-0.00913425 -5.09299 0)
(-0.00710949 -4.77961 0)
(-0.00386841 -4.27629 0)
(-0.00133655 -3.19415 0)
(0.000929949 -3.19585 0)
(0.00374919 -4.27984 0)
(0.00725974 -4.78164 0)
(0.00955959 -5.09219 0)
(0.0102423 -5.27978 0)
(0.00960969 -5.39071 0)
(0.00801996 -5.45605 0)
(0.00582183 -5.49448 0)
(0.00330152 -5.51608 0)
(0.000646901 -5.52599 0)
(-0.0020163 -5.52643 0)
(-0.00458686 -5.51739 0)
(-0.00693797 -5.49667 0)
(-0.00891314 -5.45899 0)
(-0.0103033 -5.39404 0)
(-0.0107617 -5.28319 0)
(-0.00998201 -5.09535 0)
(-0.00759964 -4.78412 0)
(-0.00404422 -4.28184 0)
(-0.00118502 -3.19868 0)
(0.00132582 -3.20042 0)
(0.00435381 -4.28675 0)
(0.00777275 -4.78685 0)
(0.0100503 -5.09465 0)
(0.0107024 -5.27948 0)
(0.010048 -5.38811 0)
(0.00843808 -5.45196 0)
(0.00618327 -5.48949 0)
(0.00358117 -5.51064 0)
(0.000806478 -5.5204 0)
(-0.00199529 -5.52088 0)
(-0.00470764 -5.5121 0)
(-0.00720576 -5.49193 0)
(-0.0093066 -5.45522 0)
(-0.0107641 -5.39171 0)
(-0.0112606 -5.28288 0)
(-0.010407 -5.09771 0)
(-0.00790223 -4.78898 0)
(-0.00440902 -4.28817 0)
(-0.00168404 -3.20248 0)
(0.00197811 -3.20686 0)
(0.00482892 -4.29521 0)
(0.00837656 -4.79347 0)
(0.0106099 -5.09833 0)
(0.0112029 -5.28012 0)
(0.0105092 -5.38622 0)
(0.00886072 -5.44829 0)
(0.00658181 -5.48471 0)
(0.00391593 -5.50525 0)
(0.00106016 -5.51476 0)
(-0.00183891 -5.51527 0)
(-0.00465158 -5.50678 0)
(-0.0072331 -5.48722 0)
(-0.00941179 -5.45151 0)
(-0.0109205 -5.38958 0)
(-0.0114695 -5.28308 0)
(-0.0106412 -5.10074 0)
(-0.00822459 -4.79484 0)
(-0.00475671 -4.29593 0)
(-0.00238961 -3.20744 0)
(0.00200452 -3.21327 0)
(0.00486331 -4.30264 0)
(0.00895332 -4.79959 0)
(0.011477 -5.1015 0)
(0.0122005 -5.28027 0)
(0.0114539 -5.38395 0)
(0.00969948 -5.4443 0)
(0.00726954 -5.47966 0)
(0.00443931 -5.49962 0)
(0.00141813 -5.50888 0)
(-0.00164349 -5.50944 0)
(-0.00459477 -5.50131 0)
(-0.00728285 -5.48246 0)
(-0.0095357 -5.44791 0)
(-0.0111003 -5.38774 0)
(-0.0116775 -5.28375 0)
(-0.0108732 -5.10452 0)
(-0.00860949 -4.80171 0)
(-0.00505031 -4.30464 0)
(-0.00252991 -3.21421 0)
(0.00196854 -3.21847 0)
(0.00504401 -4.3095 0)
(0.0093787 -4.80496 0)
(0.0122335 -5.10391 0)
(0.0131031 -5.27972 0)
(0.0123381 -5.38102 0)
(0.0104786 -5.43969 0)
(0.00789854 -5.47403 0)
(0.00488424 -5.49345 0)
(0.00166202 -5.50254 0)
(-0.00159889 -5.50321 0)
(-0.00474317 -5.49547 0)
(-0.00761346 -5.47739 0)
(-0.0100349 -5.44407 0)
(-0.0117567 -5.38571 0)
(-0.0124518 -5.28422 0)
(-0.0117126 -5.10821 0)
(-0.00930943 -4.80876 0)
(-0.00512545 -4.31298 0)
(-0.00209029 -3.22118 0)
(0.00258221 -3.22471 0)
(0.00564037 -4.3184 0)
(0.00972851 -4.81171 0)
(0.0125434 -5.10729 0)
(0.0134803 -5.27969 0)
(0.0127445 -5.37829 0)
(0.0108789 -5.43509 0)
(0.008244 -5.46824 0)
(0.00512465 -5.487 0)
(0.0017557 -5.49581 0)
(-0.00167917 -5.49653 0)
(-0.00501371 -5.48916 0)
(-0.00808823 -5.4718 0)
(-0.0107153 -5.43967 0)
(-0.0126032 -5.38309 0)
(-0.0133882 -5.28409 0)
(-0.0125867 -5.11126 0)
(-0.00981526 -4.81487 0)
(-0.00518422 -4.32042 0)
(-0.00158633 -3.22758 0)
(0.00285599 -3.23202 0)
(0.00589422 -4.32819 0)
(0.0102723 -4.81945 0)
(0.0130899 -5.11133 0)
(0.01404 -5.28008 0)
(0.0133022 -5.3758 0)
(0.0113787 -5.43058 0)
(0.00865571 -5.46241 0)
(0.0054305 -5.48036 0)
(0.00192547 -5.48881 0)
(-0.00166917 -5.48952 0)
(-0.00518637 -5.48246 0)
(-0.0084486 -5.46577 0)
(-0.0112348 -5.43482 0)
(-0.0132427 -5.38014 0)
(-0.0140844 -5.28378 0)
(-0.0132097 -5.11425 0)
(-0.0102372 -4.82127 0)
(-0.00557327 -4.32867 0)
(-0.00189496 -3.23379 0)
(0.00265214 -3.23974 0)
(0.00614121 -4.33721 0)
(0.0108943 -4.82673 0)
(0.0138657 -5.11509 0)
(0.0147802 -5.28018 0)
(0.0139965 -5.37306 0)
(0.0119957 -5.42584 0)
(0.0091732 -5.45635 0)
(0.00582258 -5.4735 0)
(0.00217612 -5.48156 0)
(-0.00157108 -5.48224 0)
(-0.00523763 -5.47552 0)
(-0.00864 -5.45958 0)
(-0.0115476 -5.42992 0)
(-0.0136518 -5.37723 0)
(-0.0145247 -5.28371 0)
(-0.0136826 -5.11788 0)
(-0.0106464 -4.82866 0)
(-0.00598838 -4.3383 0)
(-0.0025406 -3.24031 0)
(0.00280238 -3.24782 0)
(0.00661409 -4.34728 0)
(0.0114474 -4.83457 0)
(0.0145201 -5.11913 0)
(0.0154382 -5.28049 0)
(0.0146265 -5.37035 0)
(0.0125684 -5.42099 0)
(0.00965225 -5.45008 0)
(0.00618367 -5.46637 0)
(0.00240164 -5.47401 0)
(-0.00148766 -5.47467 0)
(-0.00529842 -5.46831 0)
(-0.00882782 -5.45317 0)
(-0.0118229 -5.42487 0)
(-0.013966 -5.37429 0)
(-0.0148472 -5.28382 0)
(-0.0139753 -5.12194 0)
(-0.0109686 -4.83665 0)