# vtk DataFile Version 2.0
track0
ASCII
DATASET POLYDATA
POINTS 12115 float
-0.0205 0.001 1e-05
-0.0204913 0.0011 1e-05
-0.0204825 0.00119999 1e-05
-0.0204735 0.00129997 1e-05
-0.0204644 0.00139993 1e-05
-0.0204552 0.0015 1e-05
-0.0204459 0.0016 1e-05
-0.0204364 0.00169998 1e-05
-0.0204267 0.00179995 1e-05
-0.0204168 0.0018999 1e-05
-0.0204068 0.002 1e-05
-0.0203966 0.0021 1e-05
-0.0203863 0.00219998 1e-05
-0.0203757 0.00229994 1e-05
-0.0203649 0.00239988 1e-05
-0.0203539 0.0025 1e-05
-0.0203427 0.0026 1e-05
-0.0203313 0.00269998 1e-05
-0.0203197 0.00279992 1e-05
-0.0203079 0.00289985 1e-05
-0.0202958 0.003 1e-05
-0.0202937 0.00301689 1e-05
-0.0202916 0.00303378 1e-05
-0.0202895 0.00305067 1e-05
-0.0202874 0.00306756 1e-05
-0.0202854 0.00308391 1e-05
-0.020275 0.00316713 1e-05
-0.0202644 0.00325032 1e-05
-0.0202537 0.0033335 1e-05
-0.0202428 0.00341665 1e-05
-0.0202317 0.0035 1e-05
-0.0202182 0.0036 1e-05
-0.0202044 0.00369997 1e-05
-0.0201904 0.0037999 1e-05
-0.0201761 0.00389979 1e-05
-0.0201615 0.004 1e-05
-0.0201467 0.0041 1e-05
-0.0201316 0.00419996 1e-05
-0.0201163 0.00429988 1e-05
-0.0201007 0.00439976 1e-05
-0.0200847 0.0045 1e-05
-0.0200723 0.00457721 1e-05
-0.0200596 0.0046544 1e-05
-0.0200468 0.00473156 1e-05
-0.0200338 0.00480869 1e-05
-0.0200223 0.00487624 1e-05
-0.0200181 0.00490099 1e-05
-0.0200138 0.00492574 1e-05
-0.0200095 0.00495049 1e-05
-0.0200052 0.00497523 1e-05
-0.0200008 0.005 1e-05
-0.0199833 0.0051 1e-05
-0.0199654 0.00519995 1e-05
-0.0199473 0.00529985 1e-05
-0.0199289 0.0053997 1e-05
-0.0199101 0.0055 1e-05
-0.019891 0.0056 1e-05
-0.0198717 0.00569995 1e-05
-0.0198521 0.00579983 1e-05
-0.0198323 0.00589967 1e-05
-0.019812 0.006 1e-05
-0.0198019 0.00604937 1e-05
-0.0197917 0.00609873 1e-05
-0.0197814 0.00614807 1e-05
-0.0197711 0.0061974 1e-05
-0.0197614 0.00624337 1e-05
-0.0197505 0.00629469 1e-05
-0.0197395 0.006346 1e-05
-0.0197284 0.0063973 1e-05
-0.0197173 0.00644857 1e-05
-0.019706 0.0065 1e-05
-0.019684 0.0066 1e-05
-0.0196617 0.00669993 1e-05
-0.0196391 0.0067998 1e-05
-0.0196162 0.0068996 1e-05
-0.0195928 0.007 1e-05
-0.0195747 0.00707657 1e-05
-0.0195565 0.00715309 1e-05
-0.0195381 0.00722958 1e-05
-0.0195195 0.00730602 1e-05
-0.0195025 0.00737528 1e-05
-0.0194963 0.00740022 1e-05
-0.0194901 0.00742516 1e-05
-0.0194839 0.0074501 1e-05
-0.0194777 0.00747503 1e-05
-0.0194714 0.0075 1e-05
-0.0194462 0.0076 1e-05
-0.0194208 0.00769992 1e-05
-0.019395 0.00779977 1e-05
-0.0193689 0.00789953 1e-05
-0.0193423 0.008 1e-05
-0.019323 0.00807208 1e-05
-0.0193035 0.00814412 1e-05
-0.0192839 0.00821612 1e-05
-0.0192641 0.00828807 1e-05
-0.0192457 0.00835421 1e-05
-0.0192376 0.00838337 1e-05
-0.0192294 0.00841252 1e-05
-0.0192212 0.00844166 1e-05
-0.019213 0.0084708 1e-05
-0.0192047 0.0085 1e-05
-0.0191762 0.0086 1e-05
-0.0191475 0.00869991 1e-05
-0.0191184 0.00879973 1e-05
-0.019089 0.00889946 1e-05
-0.019059 0.009 1e-05
-0.0190454 0.00904507 1e-05
-0.0190318 0.00909012 1e-05
-0.019018 0.00913516 1e-05
-0.0190042 0.00918017 1e-05
-0.018991 0.00922308 1e-05
-0.0189739 0.00927846 1e-05
-0.0189567 0.00933381 1e-05
-0.0189394 0.00938914 1e-05
-0.0189219 0.00944443 1e-05
-0.0189043 0.0095 1e-05
-0.0188724 0.0096 1e-05
-0.0188402 0.0096999 1e-05
-0.0188077 0.00979969 1e-05
-0.0187748 0.00989938 1e-05
-0.0187413 0.01 1e-05
-0.0187407 0.0100017 1e-05
-0.0187401 0.0100034 1e-05
-0.0187395 0.0100051 1e-05
-0.018739 0.0100068 1e-05
-0.0187384 0.0100085 1e-05
-0.0187052 0.0101068 1e-05
-0.0186718 0.010205 1e-05
-0.018638 0.0103031 1e-05
-0.0186039 0.0104011 1e-05
-0.0185691 0.0105 1e-05
-0.0185529 0.0105458 1e-05
-0.0185365 0.0105916 1e-05
-0.0185201 0.0106374 1e-05
-0.0185036 0.0106831 1e-05
-0.0184878 0.0107269 1e-05
-0.0184679 0.0107815 1e-05
-0.018448 0.0108361 1e-05
-0.0184279 0.0108907 1e-05
-0.0184077 0.0109452 1e-05
-0.0183873 0.011 1e-05
-0.0183577 0.0110792 1e-05
-0.0183279 0.0111584 1e-05
-0.0182978 0.0112375 1e-05
-0.0182675 0.0113164 1e-05
-0.0182392 0.0113899 1e-05
-0.0182306 0.0114119 1e-05
-0.018222 0.0114339 1e-05
-0.0182134 0.0114559 1e-05
-0.0182048 0.0114779 1e-05
-0.0181962 0.0115 1e-05
-0.0181568 0.0116 1e-05
-0.0181171 0.0116999 1e-05
-0.0180771 0.0117996 1e-05
-0.0180368 0.0118992 1e-05
-0.0179955 0.012 1e-05
-0.0179949 0.0120014 1e-05
-0.0179943 0.0120028 1e-05
-0.0179938 0.0120042 1e-05
-0.0179932 0.0120057 1e-05
-0.0179926 0.0120071 1e-05
-0.0179518 0.0121057 1e-05
-0.0179107 0.0122041 1e-05
-0.0178693 0.0123024 1e-05
-0.0178275 0.0124006 1e-05
-0.0177848 0.0125 1e-05
-0.0177774 0.012517 1e-05
-0.01777 0.0125339 1e-05
-0.0177627 0.0125509 1e-05
-0.0177553 0.0125678 1e-05
-0.017748 0.0125845 1e-05
-0.0177116 0.0126676 1e-05
-0.0176751 0.0127506 1e-05
-0.0176382 0.0128335 1e-05
-0.0176012 0.0129163 1e-05
-0.0175634 0.013 1e-05
-0.0175518 0.0130255 1e-05
-0.0175401 0.013051 1e-05
-0.0175285 0.0130765 1e-05
-0.0175168 0.013102 1e-05
-0.0175053 0.013127 1e-05
-0.017471 0.0132016 1e-05
-0.0174365 0.0132761 1e-05
-0.0174017 0.0133505 1e-05
-0.0173668 0.0134248 1e-05
-0.0173312 0.0135 1e-05
-0.0173179 0.0135279 1e-05
-0.0173046 0.0135558 1e-05
-0.0172912 0.0135837 1e-05
-0.0172778 0.0136116 1e-05
-0.0172647 0.0136388 1e-05
-0.0172298 0.0137111 1e-05
-0.0171947 0.0137832 1e-05
-0.0171595 0.0138553 1e-05
-0.017124 0.0139272 1e-05
-0.0170879 0.014 1e-05
-0.0170755 0.0140248 1e-05
-0.0170631 0.0140497 1e-05
-0.0170507 0.0140745 1e-05
-0.0170382 0.0140993 1e-05
-0.0170259 0.0141236 1e-05
-0.0169879 0.0141989 1e-05
-0.0169497 0.0142741 1e-05
-0.0169113 0.0143491 1e-05
-0.0168727 0.0144241 1e-05
-0.0168333 0.0145 1e-05
-0.0168244 0.0145169 1e-05
-0.0168156 0.0145338 1e-05
-0.0168067 0.0145507 1e-05
-0.0167979 0.0145676 1e-05
-0.0167891 0.0145843 1e-05
-0.0167453 0.0146674 1e-05
-0.0167013 0.0147504 1e-05
-0.016657 0.0148333 1e-05
-0.0166125 0.014916 1e-05
-0.0165669 0.015 1e-05
-0.0165644 0.0150047 1e-05
-0.0165618 0.0150093 1e-05
-0.0165593 0.015014 1e-05
-0.0165567 0.0150187 1e-05
-0.0165542 0.0150233 1e-05
-0.0165076 0.0151084 1e-05
-0.0164607 0.0151934 1e-05
-0.0164136 0.0152782 1e-05
-0.0163661 0.0153629 1e-05
-0.0163212 0.0154425 1e-05
-0.0163146 0.015454 1e-05
-0.0163081 0.0154655 1e-05
-0.0163016 0.015477 1e-05
-0.016295 0.0154885 1e-05
-0.0162884 0.0155 1e-05
-0.0162488 0.0155695 1e-05
-0.0162089 0.0156388 1e-05
-0.0161688 0.0157081 1e-05
-0.0161286 0.0157772 1e-05
-0.01609 0.0158431 1e-05
-0.0160716 0.0158745 1e-05
-0.016053 0.0159058 1e-05
-0.0160345 0.0159372 1e-05
-0.0160159 0.0159685 1e-05
-0.0159971 0.016 1e-05
-0.0159699 0.0160457 1e-05
-0.0159425 0.0160913 1e-05
-0.0159151 0.0161369 1e-05
-0.0158875 0.0161825 1e-05
-0.0158607 0.0162267 1e-05
-0.0158275 0.0162813 1e-05
-0.015794 0.0163359 1e-05
-0.0157605 0.0163904 1e-05
-0.0157269 0.0164449 1e-05
-0.0156927 0.0165 1e-05
-0.0156808 0.016519 1e-05
-0.0156689 0.0165381 1e-05
-0.015657 0.0165571 1e-05
-0.0156451 0.0165761 1e-05
-0.0156333 0.0165949 1e-05
-0.0155882 0.0166667 1e-05
-0.0155429 0.0167383 1e-05
-0.0154973 0.0168098 1e-05
-0.0154516 0.0168812 1e-05
-0.0154077 0.0169493 1e-05
-0.0154011 0.0169594 1e-05
-0.0153946 0.0169696 1e-05
-0.015388 0.0169797 1e-05
-0.0153814 0.0169898 1e-05
-0.0153748 0.017 1e-05
-0.0153366 0.0170586 1e-05
-0.0152983 0.0171172 1e-05
-0.0152599 0.0171756 1e-05
-0.0152213 0.017234 1e-05
-0.0151839 0.0172902 1e-05
-0.0151559 0.0173321 1e-05
-0.0151278 0.0173741 1e-05
-0.0150997 0.0174159 1e-05
-0.0150714 0.0174578 1e-05
-0.0150428 0.0175 1e-05
-0.0150266 0.0175238 1e-05
-0.0150104 0.0175476 1e-05
-0.0149942 0.0175713 1e-05
-0.014978 0.0175951 1e-05
-0.0149619 0.0176185 1e-05
-0.0149179 0.0176826 1e-05
-0.0148737 0.0177466 1e-05
-0.0148293 0.0178105 1e-05
-0.0147848 0.0178743 1e-05
-0.0147417 0.0179357 1e-05
-0.0147327 0.0179485 1e-05
-0.0147236 0.0179614 1e-05
-0.0147145 0.0179743 1e-05
-0.0147054 0.0179871 1e-05
-0.0146963 0.018 1e-05
-0.0146617 0.0180488 1e-05
-0.014627 0.0180974 1e-05
-0.0145922 0.0181461 1e-05
-0.0145573 0.0181946 1e-05
-0.0145233 0.0182418 1e-05
-0.0144859 0.0182934 1e-05
-0.0144484 0.018345 1e-05
-0.0144108 0.0183965 1e-05
-0.0143731 0.0184479 1e-05
-0.0143347 0.0185 1e-05
-0.0143291 0.0185076 1e-05
-0.0143235 0.0185151 1e-05
-0.0143179 0.0185227 1e-05
-0.0143123 0.0185303 1e-05
-0.0143067 0.0185378 1e-05
-0.0142637 0.0185957 1e-05
-0.0142206 0.0186535 1e-05
-0.0141773 0.0187112 1e-05
-0.0141339 0.0187688 1e-05
-0.0140917 0.0188244 1e-05
-0.014065 0.0188596 1e-05
-0.0140383 0.0188946 1e-05
-0.0140115 0.0189297 1e-05
-0.0139846 0.0189647 1e-05
-0.0139574 0.019 1e-05
-0.0139416 0.0190204 1e-05
-0.0139259 0.0190408 1e-05
-0.0139101 0.0190612 1e-05
-0.0138942 0.0190816 1e-05
-0.0138786 0.0191018 1e-05
-0.0138363 0.0191561 1e-05
-0.0137939 0.0192103 1e-05
-0.0137513 0.0192644 1e-05
-0.0137087 0.0193185 1e-05
-0.0136671 0.0193709 1e-05
-0.0136465 0.0193967 1e-05
-0.0136259 0.0194225 1e-05
-0.0136053 0.0194483 1e-05
-0.0135847 0.019474 1e-05
-0.0135638 0.0195 1e-05
-0.0135425 0.0195264 1e-05
-0.0135212 0.0195529 1e-05
-0.0134998 0.0195793 1e-05
-0.0134785 0.0196057 1e-05
-0.0134573 0.0196317 1e-05
-0.0134157 0.0196828 1e-05
-0.013374 0.0197338 1e-05
-0.0133322 0.0197848 1e-05
-0.0132902 0.0198356 1e-05
-0.0132493 0.0198851 1e-05
-0.0132301 0.0199081 1e-05
-0.013211 0.019931 1e-05
-0.0131919 0.019954 1e-05
-0.0131727 0.0199769 1e-05
-0.0131533 0.02 1e-05
-0.0131312 0.0200263 1e-05
-0.0131091 0.0200526 1e-05
-0.013087 0.0200789 1e-05
-0.0130648 0.0201051 1e-05
-0.0130429 0.020131 1e-05
-0.0130019 0.0201793 1e-05
-0.0129609 0.0202274 1e-05
-0.0129197 0.0202755 1e-05
-0.0128785 0.0203235 1e-05
-0.0128381 0.0203703 1e-05
-0.0128157 0.0203963 1e-05
-0.0127932 0.0204222 1e-05
-0.0127707 0.0204481 1e-05
-0.0127482 0.0204739 1e-05
-0.0127254 0.0205 1e-05
-0.0127073 0.0205207 1e-05
-0.0126892 0.0205413 1e-05
-0.0126711 0.0205619 1e-05
-0.012653 0.0205825 1e-05
-0.012635 0.0206029 1e-05
-0.0125947 0.0206485 1e-05
-0.0125544 0.0206941 1e-05
-0.0125139 0.0207396 1e-05
-0.0124734 0.020785 1e-05
-0.0124336 0.0208294 1e-05
-0.0124029 0.0208635 1e-05
-0.0123722 0.0208976 1e-05
[...]
POINT_DATA 12115
 FIELD attributes 2
p 1 12115 float
-0.00339318 -0.00370167 -0.0040093 -0.00431672 -0.00462414 -0.00493213 -0.00523373 -0.00553467 -0.00583474 -0.00613459 -0.00643427 -0.00672108 -0.00700775 -0.0072944 -0.0075804 -0.00786648 -0.00814961 -0.00843258 -0.00871553 -0.00899845 -0.0092817 -0.00932871 -0.00937545 -0.0094222 -0.00946888 -0.00951391 -0.0097445 -0.00997491 -0.0102053 -0.0104357 -0.0106664 -0.0109373 -0.0112076 -0.0114776 -0.0117477 -0.0120186 -0.0122838 -0.0125489 -0.012814 -0.0130787 -0.0133441 -0.0135451 -0.013746 -0.0139469 -0.0141477 -0.0143237 -0.0143883 -0.0144528 -0.0145172 -0.0145817 -0.014646 -0.0149023 -0.015158 -0.0154137 -0.0156693 -0.0159259 -0.0161783 -0.0164304 -0.0166824 -0.0169342 -0.017187 -0.0173101 -0.0174329 -0.0175557 -0.0176785 -0.0177927 -0.0179204 -0.018048 -0.0181757 -0.0183033 -0.0184312 -0.0186769 -0.0189225 -0.0191678 -0.0194131 -0.0196599 -0.0198462 -0.0200324 -0.0202185 -0.0204046 -0.0205733 -0.0206341 -0.0206947 -0.0207553 -0.0208159 -0.0208764 -0.0211173 -0.0213579 -0.0215983 -0.0218386 -0.0220805 -0.0222531 -0.0224255 -0.0225979 -0.0227702 -0.0229284 -0.022998 -0.0230676 -0.0231372 -0.0232068 -0.0232766 -0.0235139 -0.0237511 -0.0239882 -0.0242251 -0.024464 -0.0245708 -0.0246775 -0.0247842 -0.0248909 -0.0249926 -0.0251234 -0.025254 -0.0253846 -0.0255151 -0.0256461 -0.0258818 -0.0261172 -0.0263524 -0.0265874 -0.0268246 -0.0268287 -0.0268327 -0.0268367 -0.0268407 -0.0268447 -0.0270752 -0.0273057 -0.0275359 -0.0277659 -0.0279983 -0.0281061 -0.0282139 -0.0283216 -0.0284293 -0.0285325 -0.0286603 -0.0287879 -0.0289154 -0.0290429 -0.0291709 -0.0293572 -0.0295432 -0.0297291 -0.0299147 -0.0300873 -0.0301386 -0.0301899 -0.0302412 -0.0302925 -0.030344 -0.0305786 -0.0308129 -0.0310469 -0.0312806 -0.0315174 -0.0315207 -0.031524 -0.0315274 -0.0315307 -0.0315341 -0.0317654 -0.0319963 -0.0322269 -0.0324572 -0.0326903 -0.0327306 -0.0327709 -0.0328111 -0.0328513 -0.0328908 -0.0330855 -0.0332801 -0.0334744 -0.0336684 -0.0338647 -0.0339253 -0.0339859 -0.0340466 -0.0341072 -0.0341667 -0.0343417 -0.0345164 -0.0346909 -0.0348652 -0.0350413 -0.0351079 -0.0351743 -0.0352407 -0.035307 -0.0353718 -0.0355411 -0.0357102 -0.035879 -0.0360476 -0.0362182 -0.0362773 -0.0363366 -0.0363959 -0.0364551 -0.0365134 -0.0366899 -0.0368662 -0.0370421 -0.0372177 -0.0373954 -0.037436 -0.0374764 -0.0375168 -0.0375572 -0.0375969 -0.0377918 -0.0379864 -0.0381805 -0.0383741 -0.0385706 -0.0385816 -0.0385928 -0.038604 -0.0386152 -0.0386266 -0.0388262 -0.0390254 -0.0392242 -0.0394224 -0.0396088 -0.0396348 -0.039661 -0.0396873 -0.0397135 -0.03974 -0.0399028 -0.0400654 -0.0402276 -0.0403894 -0.0405435 -0.040615 -0.0406862 -0.0407574 -0.0408284 -0.0408997 -0.0410066 -0.0411135 -0.0412202 -0.0413267 -0.04143 -0.0415536 -0.0416773 -0.0418007 -0.0419238 -0.0420486 -0.042093 -0.0421375 -0.0421819 -0.0422263 -0.0422703 -0.0424323 -0.0425936 -0.0427544 -0.0429148 -0.0430677 -0.0430895 -0.0431114 -0.0431333 -0.0431552 -0.0431772 -0.0433088 -0.0434404 -0.0435716 -0.0437024 -0.0438287 -0.0439183 -0.044008 -0.0440975 -0.0441868 -0.044277 -0.0443302 -0.0443832 -0.044436 -0.0444888 -0.0445405 -0.0446766 -0.0448121 -0.0449471 -0.045082 -0.0452116 -0.0452376 -0.0452632 -0.0452889 -0.0453145 -0.0453399 -0.0454422 -0.0455443 -0.0456461 -0.0457476 -0.0458462 -0.0459473 -0.0460486 -0.0461494 -0.0462499 -0.046352 -0.0463676 -0.0463832 -0.0463988 -0.0464143 -0.0464299 -0.0465418 -0.0466535 -0.0467647 -0.0468754 -0.0469818 -0.0470441 -0.0471063 -0.0471683 -0.0472301 -0.0472923 -0.0473301 -0.0473686 -0.047407 -0.0474453 -0.0474838 -0.0475769 -0.0476698 -0.047763 -0.0478559 -0.047946 -0.0479853 -0.0480253 -0.0480651 -0.0481048 -0.0481455 -0.0481896 -0.0482336 -0.0482775 -0.0483213 -0.0483644 -0.0484401 -0.0485147 -0.0485893 -0.0486643 -0.0487364 -0.0487658 -0.0487951 -0.0488243 -0.0488534 -0.0488826 -0.0489188 -0.0489558 -0.0489926 -0.0490293 -0.0490664 -0.0491229 -0.0491793 -0.049236 -0.0492931 -0.0493489 -0.0493728 -0.0493977 -0.0494225 -0.049447 -0.0494728 -0.0494954 -0.049518 -0.0495405 -0.0495629 -0.049585 -0.0496239 -0.0496619 -0.0497012 -0.0497399 -0.0497767 -0.0497971 -0.0498171 -0.0498368 -0.0498562 -0.0498756 -0.0498816 -0.0498888 -0.049896 -0.0499032 -0.0499116 -0.0499304 -0.0499516 -0.0499721 -0.0499921 -0.0500119 -0.0500177 -0.0500244 -0.0500305 -0.0500362 -0.0500437 -0.0500424 -0.0500417 -0.0500411 -0.0500404 -0.0500403 -0.050043 -0.0500443 -0.0500452 -0.0500457 -0.0500449 -0.0500321 -0.0500187 -0.0500049 -0.0499937 -0.0499822 -0.0499673 -0.0499511 -0.0499347 -0.0499181 -0.0499001 -0.049892 -0.0498847 -0.0498773 -0.0498698 -0.0498631 -0.0498275 -0.0497962 -0.0497651 -0.0497335 -0.0497035 -0.0496557 -0.0496082 -0.0495602 -0.0495117 -0.0494677 -0.0494488 -0.0494318 -0.0494147 -0.0493976 -0.0493822 -0.0493453 -0.0493081 -0.0492706 -0.0492328 -0.0491951 -0.0491273 -0.0490577 -0.0489924 -0.0489265 -0.0488598 -0.0487784 -0.0486963 -0.0486137 -0.0485306 -0.0484495 -0.0484395 -0.0484281 -0.0484167 -0.048405 -0.0483924 -0.0483143 -0.0482367 -0.0481588 -0.0480805 -0.0480037 -0.0478955 -0.0477889 -0.0476865 -0.0475849 -0.0474862 -0.0473656 -0.0472456 -0.0471251 -0.047004 -0.0468871 -0.0468662 -0.0468475 -0.0468288 -0.0468103 -0.0467936 -0.0466867 -0.0465793 -0.0464716 -0.0463635 -0.046256 -0.0461124 -0.045967 -0.0458281 -0.0456887 -0.0455489 -0.0453909 -0.0452323 -0.0450731 -0.0449135 -0.0447608 -0.0446996 -0.0446367 -0.0445737 -0.0445107 -0.0444456 -0.0443395 -0.0442342 -0.0441288 -0.0440231 -0.043919 -0.0437293 -0.0435473 -0.0433679 -0.043188 -0.0430118 -0.0428092 -0.0426071 -0.0424045 -0.0422072 -0.0420158 -0.0418392 -0.0416648 -0.0414902 -0.0413152 -0.0411406 -0.0411016 -0.0410626 -0.0410236 -0.0409845 -0.0409456 -0.0407219 -0.0404997 -0.0402772 -0.0400542 -0.039831 -0.0395851 -0.0393389 -0.0391001 -0.0388639 -0.0386291 -0.0383702 -0.0381091 -0.0378475 -0.0375855 -0.0373335 -0.0371959 -0.0370582 -0.0369204 -0.0367825 -0.0366437 -0.0365074 -0.0363737 -0.0362399 -0.036106 -0.0359751 -0.0356797 -0.0353959 -0.0351117 -0.0348271 -0.0345448 -0.0342318 -0.0339211 -0.0336154 -0.0333173 -0.0330237 -0.0326972 -0.0323708 -0.032044 -0.0317168 -0.0314025 -0.0312443 -0.0310886 -0.0309329 -0.0307771 -0.030623 -0.0304421 -0.0302617 -0.0300811 -0.0299005 -0.029721 -0.0293607 -0.0290117 -0.0286623 -0.0283125 -0.0279628 -0.0275835 -0.0272045 -0.0268344 -0.0264709 -0.0261102 -0.0257174 -0.0253222 -0.0249266 -0.0245316 -0.0241526 -0.0238634 -0.0235747 -0.023286 -0.022997 -0.0227064 -0.0225853 -0.0224667 -0.0223481 -0.0222295 -0.0221136 -0.0216853 -0.0212643 -0.020843 -0.0204214 -0.0200014 -0.0195443 -0.019092 -0.0186564 -0.0182204 -0.0177891 -0.0173185 -0.016847 -0.0163751 -0.0159179 -0.0154676 -0.0149793 -0.0144929 -0.0140063 -0.0135192 -0.0130446 -0.0129062 -0.0127668 -0.0126274 -0.012488 -0.0123471 -0.0119896 -0.0116303 -0.0112707 -0.010911 -0.0105508 -0.0100143 -0.00950172 -0.00898883 -0.00847561 -0.00796641 -0.00741513 -0.00686186 -0.00632658 -0.00579713 -0.00526821 -0.00469824 -0.00412985 -0.00356114 -0.00300433 -0.00246454 -0.00188106 -0.00129552 -0.000709679 -0.000123535 0.000455629 0.00057979 0.000701925 0.000824073 0.000945817 0.00106659 0.00154439 0.00202033 0.00249647 0.00297279 0.00344563 0.00408647 0.00470216 0.00531814 0.0059344 0.0065508 0.00721181 0.0078711 0.00850495 0.00913495 0.00976078 0.0104358 0.0111139 0.0117923 0.0124492 0.0130979 0.0137915 0.0144834 0.0151754 0.0158677 0.0165377 0.0169026 0.0172709 0.0176392 0.0180075 0.0183807 0.0187189 0.0190589 0.0193989 0.019739 0.0200803 0.0208235 0.0215449 0.0222665 0.0229883 0.0237043 0.0244774 0.0252392 0.0259796 0.0267202 0.027461 0.0282563 0.0290478 0.0298279 0.0305838 0.031334 0.0321392 0.0329467 0.0337543 0.034552 0.0353235 0.0361529 0.0369789 0.037805 0.0386313 0.0394435 0.0396426 0.0398439 0.0400452 0.0402469 0.04045 0.041086 0.0417264 0.0423668 0.0430073 0.0436517 0.0445475 0.0454096 0.0462717 0.0471339 0.0479943 0.0489064 0.0498125 0.0506856 0.0515586 0.0524358 0.053373 0.0543095 0.0552351 0.0561275 0.0570198 0.0579645 0.0589126 0.0598606 0.0607966 0.0617049 0.0626725 0.0636394 0.0646061 0.0655726 0.0665275 0.0668241 0.0671239 0.0674237 0.0677234 0.0680255 0.0687056 0.0693874 0.0700691 0.0707506 0.0714356 0.0724695 0.0734685 0.0744672 0.0754656 0.0764673 0.0775281 0.0785723 0.0795841 0.0805956 0.0816151 0.0826957 0.083775 0.0848335 0.0858608 0.0868951 0.0879868 0.08908 0.0901726 0.0912428 0.0922952 0.0934053 0.0945143 0.0956224 0.0967297 0.097826 0.0983264 0.0988294 0.0993321 0.0998347 0.100333 0.10096 0.101587 0.102215 0.102842 0.103476 0.104657 0.105805 0.106951 0.108097 0.109259 0.110481 0.111678 0.112841 0.114002 0.115187 0.116429 0.117668 0.118885 0.120063 0.121267 0.122526 0.123785 0.125042 0.12628 0.127509 0.12879 0.130068 0.131344 0.132618 0.133917 0.134104 0.134293 0.134482 0.134671 0.13486 0.13598 0.1371 0.138219 0.139336 0.140486 0.141883 0.143215 0.144543 0.145868 0.147241 0.148658 0.150076 0.151444 0.152792 0.154197 0.15564 0.157082 0.158519 0.159926 0.161357 0.162825 0.164293 0.165756 0.167216 0.168745 0.168789 0.168834 0.168879 0.168924 0.168969 0.17044 0.171906 0.173369 0.174828 0.176359 0.177977 0.179556 0.1811 0.182639 0.184269 0.185931 0.187589 0.189241 0.190827 0.192502 0.194207 0.195909 0.197606 0.199296 0.201085 0.201259 0.201431 0.201603 0.201775 0.201946 0.203528 0.205105 0.206677 0.208244 0.209906 0.211713 0.213497 0.215226 0.216949 0.218799 0.22065 0.222497 0.224337 0.226161 0.228065 0.229143 0.230229 0.231313 0.232395 0.233467 0.234475 0.235493 0.236509 0.237522 0.238584 0.240945 0.243228 0.24549 0.247742 0.250178 0.252414 0.254631 0.256836 0.259015 0.261376 0.26201 0.26265 0.263289 0.263928 0.264566 0.267739 0.270911 0.274075 0.277232 0.280886 0.281685 0.282487 0.283288 0.284089 0.284886 0.288558 0.292222 0.295875 0.299516 0.303819 0.304241 0.304665 0.30509 0.305514 0.30594 0.310339 0.314726 0.319074 0.323387 0.327553 0.328186 0.32882 0.329454 0.330087 0.330738 0.334465 0.338176 0.341873 0.345558 0.349154 0.351562 0.353957 0.356347 0.358732 0.361349 0.363124 0.36489 0.366652 0.368412 0.370148 0.374072 0.377966 0.381843 0.385679 0.389401 0.390194 0.390965 0.391735 0.392504 0.393287 0.395733 0.398147 0.400553 0.402949 0.405289 0.407615 0.409895 0.412157 0.414404 0.416614 0.416942 0.417234 0.417524 0.417813 0.418083 0.41888 0.419634 0.420381 0.421122 0.421813 0.421574 0.421282 0.421028 0.42084 0.420607 0.419359 0.418065 0.416762 0.41545 0.413716 0.413622 0.413528 0.413428 0.41332 0.413175 0.410541 0.407891 0.405236 0.402577 0.399899 0.396271 0.392615 0.389102 0.385586 0.382059 0.377762 0.373439 0.369114 0.364881 0.360682 0.355892 0.351081 0.346269 0.341456 0.336711 0.332189 0.327652 0.323114 0.318576 0.312038 0.311824 0.31161 0.311396 0.311182 0.310961 0.305566 0.30016 0.294757 0.289356 0.28395 0.278466 0.272966 0.267469 0.261974 0.256473 0.251128 0.245645 0.240163 0.234683 0.229196 0.224173 0.218918 0.213577 0.208236 0.202891 0.198408 0.193645 0.188604 0.183562 0.178519 0.174846 0.170895 0.166377 0.161858 0.157343 0.154598 0.151632 0.147796 0.143958 0.140115 0.137938 0.135617 0.132262 0.128905 0.125514 0.122797 0.119963 0.116302 0.112635 0.108873 0.10356 0.0980468 0.0924877 0.0869211 0.0811571 0.0701354 0.0587694 0.0486695 0.0385923 0.0281742 0.00765236 -0.0133106 -0.0315303 -0.0497505 -0.068465 -0.103073 -0.137984 -0.169617 -0.201247 -0.233548 -0.287247 -0.341119 -0.392455 -0.4438 -0.495937 -0.567571 -0.639482 -0.710583 -0.781707 -0.853399 -0.929188 -1.00544 -1.08315 -1.16088 -1.23856 -1.30773 -1.37757 -1.45147 -1.52536 -1.59913 -1.66843 -1.73789 -1.81373 -1.88957 -1.96555 -2.01798 -2.06927 -2.12524 -2.1822 -2.23804 -2.26005 -2.2817 -2.30554 -2.33042 -2.35495 -2.36205 -2.36894 -2.37638 -2.38421 -2.39185