# vtk DataFile Version 2.0
track0
ASCII
DATASET POLYDATA
POINTS 12115 float
-0.0205 0.001 1e-05
-0.0204913 0.0011 1e-05
-0.0204825 0.00119999 1e-05
-0.0204735 0.00129997 1e-05
-0.0204644 0.00139993 1e-05
-0.0204552 0.0015 1e-05
-0.0204459 0.0016 1e-05
-0.0204364 0.00169998 1e-05
-0.0204267 0.00179995 1e-05
-0.0204168 0.0018999 1e-05
-0.0204068 0.002 1e-05
-0.0203966 0.0021 1e-05
-0.0203863 0.00219998 1e-05
-0.0203757 0.00229994 1e-05
-0.0203649 0.00239988 1e-05
-0.0203539 0.0025 1e-05
-0.0203427 0.0026 1e-05
-0.0203313 0.00269998 1e-05
-0.0203197 0.00279992 1e-05
-0.0203079 0.00289985 1e-05
-0.0202958 0.003 1e-05
-0.0202937 0.00301689 1e-05
-0.0202916 0.00303378 1e-05
-0.0202895 0.00305067 1e-05
-0.0202874 0.00306756 1e-05
-0.0202854 0.00308391 1e-05
-0.020275 0.00316713 1e-05
-0.0202644 0.00325032 1e-05
-0.0202537 0.0033335 1e-05
-0.0202428 0.00341665 1e-05
-0.0202317 0.0035 1e-05
-0.0202182 0.0036 1e-05
-0.0202044 0.00369997 1e-05
-0.0201904 0.0037999 1e-05
-0.0201761 0.00389979 1e-05
-0.0201615 0.004 1e-05
-0.0201467 0.0041 1e-05
-0.0201316 0.00419996 1e-05
-0.0201163 0.00429988 1e-05
-0.0201007 0.00439976 1e-05
-0.0200847 0.0045 1e-05
-0.0200723 0.00457721 1e-05
-0.0200596 0.0046544 1e-05
-0.0200468 0.00473156 1e-05
-0.0200338 0.00480869 1e-05
-0.0200223 0.00487624 1e-05
-0.0200181 0.00490099 1e-05
-0.0200138 0.00492574 1e-05
-0.0200095 0.00495049 1e-05
-0.0200052 0.00497523 1e-05
-0.0200008 0.005 1e-05
-0.0199833 0.0051 1e-05
-0.0199654 0.00519995 1e-05
-0.0199473 0.00529985 1e-05
-0.0199289 0.0053997 1e-05
-0.0199101 0.0055 1e-05
-0.019891 0.0056 1e-05
-0.0198717 0.00569995 1e-05
-0.0198521 0.00579983 1e-05
-0.0198323 0.00589967 1e-05
-0.019812 0.006 1e-05
-0.0198019 0.00604937 1e-05
-0.0197917 0.00609873 1e-05
-0.0197814 0.00614807 1e-05
-0.0197711 0.0061974 1e-05
-0.0197614 0.00624337 1e-05
-0.0197505 0.00629469 1e-05
-0.0197395 0.006346 1e-05
-0.0197284 0.0063973 1e-05
-0.0197173 0.00644857 1e-05
-0.019706 0.0065 1e-05
-0.019684 0.0066 1e-05
-0.0196617 0.00669993 1e-05
-0.0196391 0.0067998 1e-05
-0.0196162 0.0068996 1e-05
-0.0195928 0.007 1e-05
-0.0195747 0.00707657 1e-05
-0.0195565 0.00715309 1e-05
-0.0195381 0.00722958 1e-05
-0.0195195 0.00730602 1e-05
-0.0195025 0.00737528 1e-05
-0.0194963 0.00740022 1e-05
-0.0194901 0.00742516 1e-05
-0.0194839 0.0074501 1e-05
-0.0194777 0.00747503 1e-05
-0.0194714 0.0075 1e-05
-0.0194462 0.0076 1e-05
-0.0194208 0.00769992 1e-05
-0.019395 0.00779977 1e-05
-0.0193689 0.00789953 1e-05
-0.0193423 0.008 1e-05
-0.019323 0.00807208 1e-05
-0.0193035 0.00814412 1e-05
-0.0192839 0.00821612 1e-05
-0.0192641 0.00828807 1e-05
-0.0192457 0.00835421 1e-05
-0.0192376 0.00838337 1e-05
-0.0192294 0.00841252 1e-05
-0.0192212 0.00844166 1e-05
-0.019213 0.0084708 1e-05
-0.0192047 0.0085 1e-05
-0.0191762 0.0086 1e-05
-0.0191475 0.00869991 1e-05
-0.0191184 0.00879973 1e-05
-0.019089 0.00889946 1e-05
-0.019059 0.009 1e-05
-0.0190454 0.00904507 1e-05
-0.0190318 0.00909012 1e-05
-0.019018 0.00913516 1e-05
-0.0190042 0.00918017 1e-05
-0.018991 0.00922308 1e-05
-0.0189739 0.00927846 1e-05
-0.0189567 0.00933381 1e-05
-0.0189394 0.00938914 1e-05
-0.0189219 0.00944443 1e-05
-0.0189043 0.0095 1e-05
-0.0188724 0.0096 1e-05
-0.0188402 0.0096999 1e-05
-0.0188077 0.00979969 1e-05
-0.0187748 0.00989938 1e-05
-0.0187413 0.01 1e-05
-0.0187407 0.0100017 1e-05
-0.0187401 0.0100034 1e-05
-0.0187395 0.0100051 1e-05
-0.018739 0.0100068 1e-05
-0.0187384 0.0100085 1e-05
-0.0187052 0.0101068 1e-05
-0.0186718 0.010205 1e-05
-0.018638 0.0103031 1e-05
-0.0186039 0.0104011 1e-05
-0.0185691 0.0105 1e-05
-0.0185529 0.0105458 1e-05
-0.0185365 0.0105916 1e-05
-0.0185201 0.0106374 1e-05
-0.0185036 0.0106831 1e-05
-0.0184878 0.0107269 1e-05
-0.0184679 0.0107815 1e-05
-0.018448 0.0108361 1e-05
-0.0184279 0.0108907 1e-05
-0.0184077 0.0109452 1e-05
-0.0183873 0.011 1e-05
-0.0183577 0.0110792 1e-05
-0.0183279 0.0111584 1e-05
-0.0182978 0.0112375 1e-05
-0.0182675 0.0113164 1e-05
-0.0182392 0.0113899 1e-05
-0.0182306 0.0114119 1e-05
-0.018222 0.0114339 1e-05
-0.0182134 0.0114559 1e-05
-0.0182048 0.0114779 1e-05
-0.0181962 0.0115 1e-05
-0.0181568 0.0116 1e-05
-0.0181171 0.0116999 1e-05
-0.0180771 0.0117996 1e-05
-0.0180368 0.0118992 1e-05
-0.0179955 0.012 1e-05
-0.0179949 0.0120014 1e-05
-0.0179943 0.0120028 1e-05
-0.0179938 0.0120042 1e-05
-0.0179932 0.0120057 1e-05
-0.0179926 0.0120071 1e-05
-0.0179518 0.0121057 1e-05
-0.0179107 0.0122041 1e-05
-0.0178693 0.0123024 1e-05
-0.0178275 0.0124006 1e-05
-0.0177848 0.0125 1e-05
-0.0177774 0.012517 1e-05
-0.01777 0.0125339 1e-05
-0.0177627 0.0125509 1e-05
-0.0177553 0.0125678 1e-05
-0.017748 0.0125845 1e-05
-0.0177116 0.0126676 1e-05
-0.0176751 0.0127506 1e-05
-0.0176382 0.0128335 1e-05
-0.0176012 0.0129163 1e-05
-0.0175634 0.013 1e-05
-0.0175518 0.0130255 1e-05
-0.0175401 0.013051 1e-05
-0.0175285 0.0130765 1e-05
-0.0175168 0.013102 1e-05
-0.0175053 0.013127 1e-05
-0.017471 0.0132016 1e-05
-0.0174365 0.0132761 1e-05
-0.0174017 0.0133505 1e-05
-0.0173668 0.0134248 1e-05
-0.0173312 0.0135 1e-05
-0.0173179 0.0135279 1e-05
-0.0173046 0.0135558 1e-05
-0.0172912 0.0135837 1e-05
-0.0172778 0.0136116 1e-05
-0.0172647 0.0136388 1e-05
-0.0172298 0.0137111 1e-05
-0.0171947 0.0137832 1e-05
-0.0171595 0.0138553 1e-05
-0.017124 0.0139272 1e-05
-0.0170879 0.014 1e-05
-0.0170755 0.0140248 1e-05
-0.0170631 0.0140497 1e-05
-0.0170507 0.0140745 1e-05
-0.0170382 0.0140993 1e-05
-0.0170259 0.0141236 1e-05
-0.0169879 0.0141989 1e-05
-0.0169497 0.0142741 1e-05
-0.0169113 0.0143491 1e-05
-0.0168727 0.0144241 1e-05
-0.0168333 0.0145 1e-05
-0.0168244 0.0145169 1e-05
-0.0168156 0.0145338 1e-05
-0.0168067 0.0145507 1e-05
-0.0167979 0.0145676 1e-05
-0.0167891 0.0145843 1e-05
-0.0167453 0.0146674 1e-05
-0.0167013 0.0147504 1e-05
-0.016657 0.0148333 1e-05
-0.0166125 0.014916 1e-05
-0.0165669 0.015 1e-05
-0.0165644 0.0150047 1e-05
-0.0165618 0.0150093 1e-05
-0.0165593 0.015014 1e-05
-0.0165567 0.0150187 1e-05
-0.0165542 0.0150233 1e-05
-0.0165076 0.0151084 1e-05
-0.0164607 0.0151934 1e-05
-0.0164136 0.0152782 1e-05
-0.0163661 0.0153629 1e-05
-0.0163212 0.0154425 1e-05
-0.0163146 0.015454 1e-05
-0.0163081 0.0154655 1e-05
-0.0163016 0.015477 1e-05
-0.016295 0.0154885 1e-05
-0.0162884 0.0155 1e-05
-0.0162488 0.0155695 1e-05
-0.0162089 0.0156388 1e-05
-0.0161688 0.0157081 1e-05
-0.0161286 0.0157772 1e-05
-0.01609 0.0158431 1e-05
-0.0160716 0.0158745 1e-05
-0.016053 0.0159058 1e-05
-0.0160345 0.0159372 1e-05
-0.0160159 0.0159685 1e-05
-0.0159971 0.016 1e-05
-0.0159699 0.0160457 1e-05
-0.0159425 0.0160913 1e-05
-0.0159151 0.0161369 1e-05
-0.0158875 0.0161825 1e-05
-0.0158607 0.0162267 1e-05
-0.0158275 0.0162813 1e-05
-0.015794 0.0163359 1e-05
-0.0157605 0.0163904 1e-05
-0.0157269 0.0164449 1e-05
-0.0156927 0.0165 1e-05
-0.0156808 0.016519 1e-05
-0.0156689 0.0165381 1e-05
-0.015657 0.0165571 1e-05
-0.0156451 0.0165761 1e-05
-0.0156333 0.0165949 1e-05
-0.0155882 0.0166667 1e-05
-0.0155429 0.0167383 1e-05
-0.0154973 0.0168098 1e-05
-0.0154516 0.0168812 1e-05
-0.0154077 0.0169493 1e-05
-0.0154011 0.0169594 1e-05
-0.0153946 0.0169696 1e-05
-0.015388 0.0169797 1e-05
-0.0153814 0.0169898 1e-05
-0.0153748 0.017 1e-05
-0.0153366 0.0170586 1e-05
-0.0152983 0.0171172 1e-05
-0.0152599 0.0171756 1e-05
-0.0152213 0.017234 1e-05
-0.0151839 0.0172902 1e-05
-0.0151559 0.0173321 1e-05
-0.0151278 0.0173741 1e-05
-0.0150997 0.0174159 1e-05
-0.0150714 0.0174578 1e-05
-0.0150428 0.0175 1e-05
-0.0150266 0.0175238 1e-05
-0.0150104 0.0175476 1e-05
-0.0149942 0.0175713 1e-05
-0.014978 0.0175951 1e-05
-0.0149619 0.0176185 1e-05
-0.0149179 0.0176826 1e-05
-0.0148737 0.0177466 1e-05
-0.0148293 0.0178105 1e-05
-0.0147848 0.0178743 1e-05
-0.0147417 0.0179357 1e-05
-0.0147327 0.0179485 1e-05
-0.0147236 0.0179614 1e-05
-0.0147145 0.0179743 1e-05
-0.0147054 0.0179871 1e-05
-0.0146963 0.018 1e-05
-0.0146617 0.0180488 1e-05
-0.014627 0.0180974 1e-05
-0.0145922 0.0181461 1e-05
-0.0145573 0.0181946 1e-05
-0.0145233 0.0182418 1e-05
-0.0144859 0.0182934 1e-05
-0.0144484 0.018345 1e-05
-0.0144108 0.0183965 1e-05
-0.0143731 0.0184479 1e-05
-0.0143347 0.0185 1e-05
-0.0143291 0.0185076 1e-05
-0.0143235 0.0185151 1e-05
-0.0143179 0.0185227 1e-05
-0.0143123 0.0185303 1e-05
-0.0143067 0.0185378 1e-05
-0.0142637 0.0185957 1e-05
-0.0142206 0.0186535 1e-05
-0.0141773 0.0187112 1e-05
-0.0141339 0.0187688 1e-05
-0.0140917 0.0188244 1e-05
-0.014065 0.0188596 1e-05
-0.0140383 0.0188946 1e-05
-0.0140115 0.0189297 1e-05
-0.0139846 0.0189647 1e-05
-0.0139574 0.019 1e-05
-0.0139416 0.0190204 1e-05
-0.0139259 0.0190408 1e-05
-0.0139101 0.0190612 1e-05
-0.0138942 0.0190816 1e-05
-0.0138786 0.0191018 1e-05
-0.0138363 0.0191561 1e-05
-0.0137939 0.0192103 1e-05
-0.0137513 0.0192644 1e-05
-0.0137087 0.0193185 1e-05
-0.0136671 0.0193709 1e-05
-0.0136465 0.0193967 1e-05
-0.0136259 0.0194225 1e-05
-0.0136053 0.0194483 1e-05
-0.0135847 0.019474 1e-05
-0.0135638 0.0195 1e-05
-0.0135425 0.0195264 1e-05
-0.0135212 0.0195529 1e-05
-0.0134998 0.0195793 1e-05
-0.0134785 0.0196057 1e-05
-0.0134573 0.0196317 1e-05
-0.0134157 0.0196828 1e-05
-0.013374 0.0197338 1e-05
-0.0133322 0.0197848 1e-05
-0.0132902 0.0198356 1e-05
-0.0132493 0.0198851 1e-05
-0.0132301 0.0199081 1e-05
-0.013211 0.019931 1e-05
-0.0131919 0.019954 1e-05
-0.0131727 0.0199769 1e-05
-0.0131533 0.02 1e-05
-0.0131312 0.0200263 1e-05
-0.0131091 0.0200526 1e-05
-0.013087 0.0200789 1e-05
-0.0130648 0.0201051 1e-05
-0.0130429 0.020131 1e-05
-0.0130019 0.0201793 1e-05
-0.0129609 0.0202274 1e-05
-0.0129197 0.0202755 1e-05
-0.0128785 0.0203235 1e-05
-0.0128381 0.0203703 1e-05
-0.0128157 0.0203963 1e-05
-0.0127932 0.0204222 1e-05
-0.0127707 0.0204481 1e-05
-0.0127482 0.0204739 1e-05
-0.0127254 0.0205 1e-05
-0.0127073 0.0205207 1e-05
-0.0126892 0.0205413 1e-05
-0.0126711 0.0205619 1e-05
-0.012653 0.0205825 1e-05
-0.012635 0.0206029 1e-05
-0.0125947 0.0206485 1e-05
-0.0125544 0.0206941 1e-05
-0.0125139 0.0207396 1e-05
-0.0124734 0.020785 1e-05
-0.0124336 0.0208294 1e-05
-0.0124029 0.0208635 1e-05
-0.0123722 0.0208976 1e-05
[...]
POINT_DATA 12115
 FIELD attributes 1
U 3 12115 float
-0.0255265 	-0.293461 	0 -0.025902 	-0.293439 	0 -0.0262783 	-0.293415 	0 -0.0266541 	-0.29339 	0 -0.0270298 	-0.293365 	0 -0.027409 	-0.293339 	0 -0.0278974 	-0.293308 	0 -0.0283883 	-0.293276 	0 -0.0288763 	-0.293242 	0 -0.0293636 	-0.293207 	0 -0.0298541 	-0.293171 	0 -0.030432 	-0.293127 	0 -0.0310119 	-0.293082 	0 -0.0315915 	-0.293036 	0 -0.0321687 	-0.292988 	0 -0.0327476 	-0.292938 	0 -0.0333951 	-0.29288 	0 -0.034044 	-0.29282 	0 -0.0346926 	-0.292759 	0 -0.0353411 	-0.292697 	0 -0.0359917 	-0.292633 	0 -0.036109 	-0.29262 	0 -0.0362275 	-0.292608 	0 -0.036346 	-0.292595 	0 -0.0364648 	-0.292583 	0 -0.0365803 	-0.29257 	0 -0.0371638 	-0.292508 	0 -0.0377483 	-0.292444 	0 -0.0383328 	-0.29238 	0 -0.038917 	-0.292315 	0 -0.0395038 	-0.292248 	0 -0.0402487 	-0.29216 	0 -0.0409919 	-0.292069 	0 -0.0417334 	-0.291976 	0 -0.0424748 	-0.291882 	0 -0.0432194 	-0.291785 	0 -0.0439936 	-0.29168 	0 -0.0447683 	-0.291574 	0 -0.0455426 	-0.291466 	0 -0.0463143 	-0.291355 	0 -0.0470883 	-0.291242 	0 -0.0477028 	-0.291148 	0 -0.0483176 	-0.291054 	0 -0.0489323 	-0.290958 	0 -0.0495468 	-0.290861 	0 -0.0500855 	-0.290776 	0 -0.0502826 	-0.290744 	0 -0.0504801 	-0.290713 	0 -0.0506776 	-0.290681 	0 -0.0508751 	-0.290649 	0 -0.0510733 	-0.290617 	0 -0.0518889 	-0.290479 	0 -0.0527027 	-0.29034 	0 -0.0535162 	-0.290198 	0 -0.0543294 	-0.290056 	0 -0.0551468 	-0.28991 	0 -0.0559762 	-0.289757 	0 -0.0568057 	-0.289602 	0 -0.0576349 	-0.289446 	0 -0.058462 	-0.289287 	0 -0.0592924 	-0.289126 	0 -0.0597069 	-0.289042 	0 -0.0601216 	-0.288958 	0 -0.0605362 	-0.288874 	0 -0.0609507 	-0.288789 	0 -0.0613372 	-0.288709 	0 -0.061769 	-0.28862 	0 -0.062201 	-0.288531 	0 -0.0626329 	-0.288441 	0 -0.0630647 	-0.28835 	0 -0.063498 	-0.288259 	0 -0.0643507 	-0.288075 	0 -0.0652029 	-0.287889 	0 -0.0660525 	-0.2877 	0 -0.0669017 	-0.28751 	0 -0.0677564 	-0.287317 	0 -0.0684154 	-0.287164 	0 -0.0690744 	-0.287009 	0 -0.0697331 	-0.286854 	0 -0.0703916 	-0.286698 	0 -0.0709885 	-0.286556 	0 -0.0712036 	-0.286504 	0 -0.0714189 	-0.286453 	0 -0.0716342 	-0.286401 	0 -0.0718494 	-0.286349 	0 -0.0720652 	-0.286297 	0 -0.0729374 	-0.286082 	0 -0.0738075 	-0.285865 	0 -0.0746768 	-0.285646 	0 -0.0755457 	-0.285425 	0 -0.0764211 	-0.285201 	0 -0.0770552 	-0.285035 	0 -0.0776893 	-0.284868 	0 -0.0783231 	-0.2847 	0 -0.0789567 	-0.284531 	0 -0.0795395 	-0.284375 	0 -0.0797966 	-0.284307 	0 -0.0800539 	-0.284237 	0 -0.0803111 	-0.284168 	0 -0.0805683 	-0.284099 	0 -0.0808263 	-0.284029 	0 -0.0817174 	-0.283784 	0 -0.0826078 	-0.283538 	0 -0.0834962 	-0.283289 	0 -0.0843841 	-0.283038 	0 -0.0852798 	-0.282784 	0 -0.0856849 	-0.282666 	0 -0.0860902 	-0.282549 	0 -0.0864953 	-0.282431 	0 -0.0869003 	-0.282313 	0 -0.0872866 	-0.282199 	0 -0.0877858 	-0.282053 	0 -0.088285 	-0.281907 	0 -0.0887841 	-0.28176 	0 -0.089283 	-0.281612 	0 -0.0897846 	-0.281463 	0 -0.0906954 	-0.281189 	0 -0.0916058 	-0.280913 	0 -0.0925156 	-0.280636 	0 -0.0934249 	-0.280357 	0 -0.0943429 	-0.280073 	0 -0.0943585 	-0.280068 	0 -0.0943741 	-0.280063 	0 -0.0943898 	-0.280058 	0 -0.0944055 	-0.280053 	0 -0.0944211 	-0.280048 	0 -0.0953269 	-0.279764 	0 -0.0962322 	-0.279479 	0 -0.0971369 	-0.279191 	0 -0.098041 	-0.278902 	0 -0.0989547 	-0.278609 	0 -0.0993817 	-0.27847 	0 -0.0998087 	-0.278331 	0 -0.100236 	-0.278191 	0 -0.100662 	-0.278051 	0 -0.101071 	-0.277916 	0 -0.101582 	-0.277749 	0 -0.102092 	-0.277581 	0 -0.102602 	-0.277412 	0 -0.103112 	-0.277243 	0 -0.103625 	-0.277072 	0 -0.104374 	-0.276822 	0 -0.105122 	-0.27657 	0 -0.10587 	-0.276317 	0 -0.106617 	-0.276063 	0 -0.107312 	-0.275825 	0 -0.107521 	-0.275754 	0 -0.10773 	-0.275683 	0 -0.107938 	-0.275611 	0 -0.108147 	-0.27554 	0 -0.108357 	-0.275468 	0 -0.109314 	-0.275138 	0 -0.110271 	-0.274806 	0 -0.111227 	-0.274473 	0 -0.112182 	-0.274138 	0 -0.11315 	-0.273796 	0 -0.113164 	-0.273791 	0 -0.113177 	-0.273787 	0 -0.113191 	-0.273782 	0 -0.113205 	-0.273777 	0 -0.113218 	-0.273772 	0 -0.114175 	-0.273433 	0 -0.115131 	-0.273092 	0 -0.116086 	-0.27275 	0 -0.11704 	-0.272406 	0 -0.118007 	-0.272055 	0 -0.118174 	-0.271995 	0 -0.11834 	-0.271934 	0 -0.118507 	-0.271873 	0 -0.118673 	-0.271812 	0 -0.118838 	-0.271752 	0 -0.119656 	-0.271454 	0 -0.120473 	-0.271155 	0 -0.12129 	-0.270855 	0 -0.122107 	-0.270553 	0 -0.122933 	-0.270247 	0 -0.123187 	-0.270152 	0 -0.123441 	-0.270057 	0 -0.123695 	-0.269963 	0 -0.123949 	-0.269867 	0 -0.124199 	-0.269774 	0 -0.124944 	-0.269496 	0 -0.125689 	-0.269218 	0 -0.126433 	-0.268938 	0 -0.127177 	-0.268658 	0 -0.127929 	-0.268373 	0 -0.128211 	-0.268266 	0 -0.128493 	-0.268158 	0 -0.128775 	-0.268051 	0 -0.129057 	-0.267943 	0 -0.129334 	-0.267838 	0 -0.130066 	-0.26756 	0 -0.130798 	-0.267281 	0 -0.131529 	-0.267001 	0 -0.132259 	-0.26672 	0 -0.132999 	-0.266435 	0 -0.133254 	-0.266336 	0 -0.133508 	-0.266238 	0 -0.133763 	-0.266139 	0 -0.134018 	-0.26604 	0 -0.134268 	-0.265943 	0 -0.135042 	-0.265644 	0 -0.135816 	-0.265344 	0 -0.136589 	-0.265043 	0 -0.137362 	-0.264741 	0 -0.138145 	-0.264435 	0 -0.138321 	-0.264365 	0 -0.138497 	-0.264296 	0 -0.138673 	-0.264227 	0 -0.138849 	-0.264158 	0 -0.139023 	-0.264089 	0 -0.139891 	-0.263749 	0 -0.140759 	-0.263409 	0 -0.141625 	-0.263067 	0 -0.14249 	-0.262724 	0 -0.143369 	-0.262374 	0 -0.143419 	-0.262354 	0 -0.143468 	-0.262335 	0 -0.143517 	-0.262315 	0 -0.143567 	-0.262295 	0 -0.143616 	-0.262276 	0 -0.144518 	-0.261919 	0 -0.145419 	-0.261561 	0 -0.146318 	-0.261201 	0 -0.147217 	-0.26084 	0 -0.148063 	-0.260499 	0 -0.148185 	-0.26045 	0 -0.148307 	-0.260401 	0 -0.14843 	-0.260351 	0 -0.148552 	-0.260302 	0 -0.148674 	-0.260253 	0 -0.149421 	-0.259953 	0 -0.150168 	-0.259653 	0 -0.150913 	-0.259352 	0 -0.151658 	-0.25905 	0 -0.152368 	-0.258761 	0 -0.152707 	-0.258624 	0 -0.153046 	-0.258486 	0 -0.153384 	-0.258349 	0 -0.153722 	-0.258212 	0 -0.154063 	-0.258073 	0 -0.154562 	-0.25787 	0 -0.155061 	-0.257667 	0 -0.15556 	-0.257464 	0 -0.156058 	-0.257261 	0 -0.156541 	-0.257063 	0 -0.15714 	-0.256819 	0 -0.157739 	-0.256575 	0 -0.158337 	-0.256331 	0 -0.158934 	-0.256086 	0 -0.159539 	-0.255838 	0 -0.159751 	-0.255751 	0 -0.159962 	-0.255664 	0 -0.160173 	-0.255578 	0 -0.160384 	-0.255491 	0 -0.160593 	-0.255405 	0 -0.161391 	-0.25508 	0 -0.162189 	-0.254754 	0 -0.162985 	-0.254427 	0 -0.16378 	-0.254098 	0 -0.164539 	-0.253783 	0 -0.164652 	-0.253736 	0 -0.164765 	-0.253689 	0 -0.164878 	-0.253643 	0 -0.164991 	-0.253596 	0 -0.165104 	-0.253549 	0 -0.165766 	-0.253277 	0 -0.166427 	-0.253004 	0 -0.167087 	-0.252731 	0 -0.167746 	-0.252457 	0 -0.168382 	-0.252193 	0 -0.168857 	-0.251997 	0 -0.169332 	-0.2518 	0 -0.169806 	-0.251604 	0 -0.170281 	-0.251407 	0 -0.17076 	-0.251207 	0 -0.171033 	-0.251094 	0 -0.171306 	-0.250981 	0 -0.171578 	-0.250868 	0 -0.171851 	-0.250754 	0 -0.17212 	-0.250642 	0 -0.172857 	-0.250339 	0 -0.173594 	-0.250035 	0 -0.174329 	-0.24973 	0 -0.175063 	-0.249423 	0 -0.175769 	-0.249126 	0 -0.175917 	-0.249065 	0 -0.176065 	-0.249003 	0 -0.176213 	-0.248941 	0 -0.176361 	-0.248879 	0 -0.17651 	-0.248817 	0 -0.177079 	-0.248581 	0 -0.177647 	-0.248345 	0 -0.178214 	-0.248108 	0 -0.178781 	-0.247871 	0 -0.179332 	-0.24764 	0 -0.179936 	-0.247389 	0 -0.18054 	-0.247139 	0 -0.181143 	-0.246887 	0 -0.181745 	-0.246636 	0 -0.182356 	-0.24638 	0 -0.182445 	-0.246342 	0 -0.182535 	-0.246305 	0 -0.182625 	-0.246268 	0 -0.182715 	-0.24623 	0 -0.182805 	-0.246193 	0 -0.183492 	-0.24591 	0 -0.184178 	-0.245623 	0 -0.184862 	-0.245337 	0 -0.185546 	-0.24505 	0 -0.186208 	-0.244771 	0 -0.186625 	-0.244597 	0 -0.187043 	-0.244423 	0 -0.18746 	-0.244248 	0 -0.187876 	-0.244074 	0 -0.188298 	-0.243897 	0 -0.188544 	-0.243795 	0 -0.18879 	-0.243692 	0 -0.189036 	-0.243589 	0 -0.189282 	-0.243487 	0 -0.189526 	-0.243385 	0 -0.190182 	-0.243115 	0 -0.190837 	-0.242844 	0 -0.191491 	-0.24257 	0 -0.192143 	-0.242295 	0 -0.192776 	-0.242028 	0 -0.193088 	-0.241897 	0 -0.1934 	-0.241767 	0 -0.193712 	-0.241636 	0 -0.194024 	-0.241506 	0 -0.194338 	-0.241374 	0 -0.194662 	-0.241239 	0 -0.194986 	-0.241104 	0 -0.19531 	-0.240969 	0 -0.195634 	-0.240834 	0 -0.195953 	-0.240701 	0 -0.196581 	-0.240442 	0 -0.197208 	-0.240184 	0 -0.197834 	-0.239923 	0 -0.198458 	-0.23966 	0 -0.199065 	-0.239403 	0 -0.199347 	-0.239286 	0 -0.19963 	-0.239168 	0 -0.199912 	-0.23905 	0 -0.200194 	-0.238932 	0 -0.200478 	-0.238813 	0 -0.200805 	-0.238677 	0 -0.201133 	-0.238541 	0 -0.201461 	-0.238405 	0 -0.201788 	-0.238268 	0 -0.202111 	-0.238134 	0 -0.202714 	-0.237887 	0 -0.203315 	-0.237639 	0 -0.203915 	-0.23739 	0 -0.204513 	-0.237138 	0 -0.205097 	-0.236892 	0 -0.205421 	-0.236758 	0 -0.205744 	-0.236623 	0 -0.206067 	-0.236489 	0 -0.20639 	-0.236354 	0 -0.206716 	-0.236218 	0 -0.206977 	-0.23611 	0 -0.207239 	-0.236002 	0 -0.2075 	-0.235893 	0 -0.207761 	-0.235785 	0 -0.20802 	-0.235678 	0 -0.208598 	-0.235442 	0 -0.209177 	-0.235206 	0 -0.209752 	-0.234965 	0 -0.210327 	-0.234724 	0 -0.21089 	-0.234488 	0 -0.211322 	-0.23431 	0 -0.211754 	-0.234131 	0 -0.212185 	-0.233953 	0 -0.212616 	-0.233774 	0 -0.213053 	-0.233592 	0 -0.213181 	-0.23354 	0 -0.213309 	-0.233487 	0 -0.213438 	-0.233434 	0 -0.213566 	-0.233381 	0 -0.213695 	-0.233328 	0 -0.214252 	-0.233103 	0 -0.214807 	-0.232873 	0 -0.215362 	-0.232643 	0 -0.215915 	-0.232413 	0 -0.216458 	-0.232187 	0 -0.217 	-0.231965 	0 -0.217543 	-0.231743 	0 -0.218084 	-0.231521 	0 -0.218625 	-0.231298 	0 -0.219154 	-0.231078 	0 -0.21922 	-0.23105 	0 -0.219286 	-0.231023 	0 -0.219352 	-0.230995 	0 -0.219419 	-0.230968 	0 -0.219485 	-0.23094 	0 -0.219953 	-0.230749 	0 -0.220421 	-0.230557 	0 -0.220888 	-0.230365 	0 -0.221355 	-0.230173 	0 -0.221814 	-0.229984 	0 -0.222338 	-0.229773 	0 -0.222861 	-0.229561 	0 -0.223384 	-0.229349 	0 -0.223904 	-0.229132 	0 -0.224415 	-0.228919 	0 -0.224733 	-0.228788 	0 -0.225052 	-0.228658 	0 -0.22537 	-0.228527 	0 -0.225688 	-0.228396 	0 -0.226009 	-0.228264 	0 -0.226201 	-0.228187 	0 -0.226392 	-0.228109 	0 -0.226583 	-0.228031 	0 -0.226775 	-0.227953 	0 -0.226965 	-0.227876 	0 -0.227472 	-0.227675 	0 -0.227976 	-0.227469 	0 -0.22848 	-0.227262 	0 -0.228983 	-0.227055 	0 -0.229478 	-0.226851 	0 -0.229971 	-0.226653 	0 -0.230464 	-0.226453 	0 -0.230957 	-0.226254 	0 -0.231449 	-0.226055 	0 -0.231932 	-0.225854 	0 -0.232069 	-0.225797 	0 -0.232208 	-0.225741 	0 -0.232346 	-0.225684 	0 -0.232484 	-0.225628 	0 -0.232623 	-0.225571 	0 -0.232969 	-0.225431 	0 -0.233316 	-0.225291 	0 -0.233662 	-0.225151 	0 -0.234008 	-0.225011 	0 -0.234351 	-0.224872 	0 -0.234829 	-0.224683 	0 -0.235307 	-0.224494 	0 -0.235782 	-0.224299 	0 -0.236257 	-0.224105 	0 -0.236725 	-0.223912 	0 -0.237191 	-0.223725 	0 -0.237656 	-0.223538 	0 -0.238122 	-0.223351 	0 -0.238586 	-0.223163 	0 -0.239044 	-0.222976 	0 -0.239098 	-0.222954 	0 -0.239153 	-0.222932 	0 -0.239208 	-0.222909 	0 -0.239262 	-0.222887 	0 -0.239318 	-0.222865 	0 -0.239723 	-0.222702 	0 -0.240129 	-0.22254 	0 -0.240534 	-0.222377 	0 -0.240939 	-0.222214 	0 -0.241339 	-0.222053 	0 -0.241791 	-0.221876 	0 -0.242243 	-0.221698 	0 -0.242693 	-0.221516 	0 -0.243142 	-0.221333 	0 -0.243586 	-0.221151 	0 -0.244026 	-0.220975 	0 -0.244467 	-0.2208 	0 -0.244907 	-0.220624 	0 -0.245346 	-0.220448 	0 -0.24578 	-0.220271 	0 -0.24584 	-0.220247 	0 -0.245901 	-0.220222 	0 -0.245962 	-0.220198 	0 -0.246022 	-0.220173 	0 -0.246084 	-0.220148 	0 -0.246459 	-0.219999 	0 -0.246834 	-0.21985 	0 -0.247209 	-0.219701 	0 -0.247583 	-0.219551 	0 -0.247954 	-0.219403 	0 -0.248382 	-0.219237 	0 -0.24881 	-0.219071 	0 -0.249236 	-0.218898 	0 -0.249662 	-0.218725 	0 -0.250083 	-0.218554 	0 -0.2505 	-0.21839 	0 -0.250918 	-0.218225 	0 -0.251335 	-0.21806 	0 -0.251751 	-0.217894 	0 -0.252162 	-0.217726 	0 -0.25231 	-0.217666 	0 -0.252459 	-0.217606 	0 -0.252608 	-0.217546 	0 -0.252757 	-0.217486 	0 -0.252907 	-0.217426 	0 -0.253169 	-0.217323 	0 -0.253431 	-0.21722 	0 -0.253693 	-0.217116 	0 -0.253955 	-0.217013 	0 -0.254215 	-0.21691 	0 -0.254622 	-0.216755 	0 -0.255027 	-0.216595 	0 -0.255432 	-0.216433 	0 -0.255836 	-0.21627 	0 -0.256236 	-0.216109 	0 -0.256632 	-0.215955 	0 -0.257028 	-0.215801 	0 -0.257424 	-0.215646 	0 -0.257818 	-0.215487 	0 -0.258209 	-0.215327 	0 -0.258521 	-0.215203 	0 -0.258834 	-0.215079 	0 -0.259147 	-0.214954 	0 -0.259459 	-0.21483 	0 -0.259775 	-0.214704 	0 -0.259848 	-0.214675 	0 -0.259921 	-0.214646 	0 -0.259995 	-0.214618 	0 -0.260068 	-0.214589 	0 -0.260142 	-0.214561 	0 -0.260527 	-0.214411 	0 -0.260912 	-0.214259 	0 -0.261296 	-0.214107 	0 -0.26168 	-0.213955 	0 -0.262061 	-0.213804 	0 -0.262437 	-0.21366 	0 -0.262814 	-0.213515 	0 -0.263189 	-0.213366 	0 -0.263563 	-0.213214 	0 -0.263935 	-0.213064 	0 -0.264302 	-0.21292 	0 -0.264669 	-0.212777 	0 -0.265036 	-0.212633 	0 -0.265402 	-0.212489 	0 -0.265764 	-0.21234 	0 -0.265943 	-0.212268 	0 -0.266123 	-0.212196 	0 -0.266303 	-0.212124 	0 -0.266482 	-0.212052 	0 -0.266663 	-0.21198 	0 -0.266844 	-0.211909 	0 -0.267025 	-0.211839 	0 -0.267206 	-0.211768 	0 -0.267388 	-0.211697 	0 -0.267569 	-0.211627 	0 -0.267927 	-0.211492 	0 -0.268284 	-0.21135 	0 -0.26864 	-0.211208 	0 -0.268997 	-0.211066 	0 -0.269351 	-0.210925 	0 -0.2697 	-0.210792 	0 -0.270049 	-0.210657 	0 -0.270397 	-0.21052 	0 -0.270745 	-0.210379 	0 -0.27109 	-0.210238 	0 -0.27143 	-0.210105 	0 -0.27177 	-0.209971 	0 -0.272111 	-0.209837 	0 -0.27245 	-0.209703 	0 -0.272787 	-0.209565 	0 -0.272938 	-0.209504 	0 -0.27309 	-0.209443 	0 -0.273242 	-0.209382 	0 -0.273394 	-0.209321 	0 -0.273548 	-0.209259 	0 -0.27373 	-0.209188 	0 -0.273914 	-0.209116 	0 -0.274097 	-0.209044 	0 -0.27428 	-0.208973 	0 -0.274464 	-0.208902 	0 -0.274796 	-0.208776 	0 -0.275128 	-0.208644 	0 -0.275459 	-0.208512 	0 -0.27579 	-0.20838 	0 -0.276119 	-0.208249 	0 -0.276443 	-0.208124 	0 -0.276767 	-0.208 	0 -0.27709 	-0.207872 	0 -0.277413 	-0.20774 	0 -0.277733 	-0.207609 	0 -0.278049 	-0.207484 	0 -0.278365 	-0.20736 	0 -0.27868 	-0.207236 	0 -0.278995 	-0.207111 	0 -0.279308 	-0.206981 	0 -0.279524 	-0.206893 	0 -0.279741 	-0.206806 	0 -0.279958 	-0.206718 	0 -0.280175 	-0.20663 	0 -0.280394 	-0.206542 	0 -0.280485 	-0.206506 	0 -0.280577 	-0.20647 	0 -0.280669 	-0.206435 	0 -0.280761 	-0.206399 	0 -0.280854 	-0.206363 	0 -0.281162 	-0.206244 	0 -0.28147 	-0.206121 	0 -0.281778 	-0.205999 	0 -0.282086 	-0.205876 	0 -0.282392 	-0.205755 	0 -0.282692 	-0.20564 	0 -0.282993 	-0.205525 	0 -0.283293 	-0.205402 	0 -0.283592 	-0.20528 	0 -0.28389 	-0.205158 	0 -0.284183 	-0.205044 	0 -0.284476 	-0.20493 	0 -0.284768 	-0.204815 	0 -0.28506 	-0.204695 	0 -0.285351 	-0.204574 	0 -0.285636 	-0.20446 	0 -0.285921 	-0.204346 	0 -0.286206 	-0.204232 	0 -0.28649 	-0.204117 	0 -0.286774 	-0.204001 	0 -0.28685 	-0.203969 	0 -0.286927 	-0.203938 	0 -0.287004 	-0.203906 	0 -0.287081 	-0.203874 	0 -0.287159 	-0.203843 	0 -0.287365 	-0.203762 	0 -0.287571 	-0.203681 	0 -0.287777 	-0.2036 	0 -0.287983 	-0.203519 	0 -0.288189 	-0.203439 	0 -0.288468 	-0.203335 	0 -0.288746 	-0.203224 	0 -0.289025 	-0.203112 	0 -0.289303 	-0.203001 	0 -0.28958 	-0.20289 	0 -0.289851 	-0.202787 	0 -0.290123 	-0.202684 	0 -0.290394 	-0.202576 	0 -0.290665 	-0.202465 	0 -0.290935 	-0.202355 	0 -0.291198 	-0.202253 	0 -0.291462 	-0.202152 	0 -0.291726 	-0.20205 	0 -0.29199 	-0.201944 	0 -0.292253 	-0.201835 	0 -0.292509 	-0.201735 	0 -0.292766 	-0.201635 	0 -0.293023 	-0.201535 	0 -0.293279 	-0.201434 	0 -0.293535 	-0.201333 	0 -0.293585 	-0.201312 	0 -0.293636 	-0.201292 	0 -0.293687 	-0.201272 	0 -0.293738 	-0.201252 	0 -0.29379 	-0.201233 	0 -0.293995 	-0.201156 	0 -0.2942 	-0.201079 	0 -0.294406 	-0.201003 	0 -0.294611 	-0.200926 	0 -0.294816 	-0.20085 	0 -0.295067 	-0.200764 	0 -0.295319 	-0.20067 	0 -0.29557 	-0.200577 	0 -0.295821 	-0.200483 	0 -0.296072 	-0.20039 	0 -0.296316 	-0.200308 	0 -0.29656 	-0.200226 	0 -0.296804 	-0.200137 	0 -0.297049 	-0.200047 	0 -0.297293 	-0.199957 	0 -0.297529 	-0.199879 	0 -0.297767 	-0.199802 	0 -0.298004 	-0.199725 	0 -0.298242 	-0.199641 	0 -0.298479 	-0.199556 	0 -0.298709 	-0.199484 	0 -0.29894 	-0.199412 	0 -0.299171 	-0.19934 	0 -0.299401 	-0.199269 	0 -0.299632 	-0.199192 	0 -0.299747 	-0.199159 	0 -0.299864 	-0.199125 	0 -0.29998 	-0.199092 	0 -0.300096 	-0.199058 	0 -0.300214 	-0.199025 	0 -0.300325 	-0.198995 	0 -0.300437 	-0.198965 	0 -0.300548 	-0.198935 	0 -0.30066 	-0.198905 	0 -0.300773 	-0.198876 	0 -0.300998 	-0.198827 	0 -0.301224 	-0.198774 	0 -0.301451 	-0.198722 	0 -0.301677 	-0.198669 	0 -0.301904 	-0.198616 	0 -0.302122 	-0.198584 	0 -0.302341 	-0.198548 	0 -0.302562 	-0.198506 	0 -0.302782 	-0.198465 	0 -0.303002 	-0.198424 	0 -0.303214 	-0.198405 	0 -0.303427 	-0.198388 	0 -0.30364 	-0.198367 	0 -0.303854 	-0.198339 	0 -0.304068 	-0.198312 	0 -0.304274 	-0.198311 	0 -0.30448 	-0.19831 	0 -0.304687 	-0.19831 	0 -0.304894 	-0.198306 	0 -0.305102 	-0.198297 	0 -0.305301 	-0.198316 	0 -0.305502 	-0.198337 	0 -0.305702 	-0.198357 	0 -0.305902 	-0.198378 	0 -0.306103 	-0.198397 	0 -0.306149 	-0.198406 	0 -0.306195 	-0.198417 	0 -0.306242 	-0.198428 	0 -0.306288 	-0.19844 	0 -0.306336 	-0.198452 	0 -0.306489 	-0.198488 	0 -0.306643 	-0.198526 	0 -0.306798 	-0.198564 	0 -0.306952 	-0.198602 	0 -0.307107 	-0.19864 	0 -0.307301 	-0.198729 	0 -0.307498 	-0.198809 	0 -0.307695 	-0.198889 	0 -0.307892 	-0.19897 	0 -0.30809 	-0.199051 	0 -0.308277 	-0.199179 	0 -0.308466 	-0.199305 	0 -0.308657 	-0.199422 	0 -0.308848 	-0.199539 	0 -0.30904 	-0.199657 	0 -0.309221 	-0.199828 	0 -0.309403 	-0.200001 	0 -0.309586 	-0.20017 	0 -0.309771 	-0.20033 	0 -0.309957 	-0.200491 	0 -0.310132 	-0.200713 	0 -0.310308 	-0.200937 	0 -0.310485 	-0.201161 	0 -0.310662 	-0.201381 	0 -0.310843 	-0.201593 	0 -0.311012 	-0.201873 	0 -0.311183 	-0.202157 	0 -0.311353 	-0.20244 	0 -0.311524 	-0.202723 	0 -0.311697 	-0.203004 	0 -0.311747 	-0.203109 	0 -0.311797 	-0.203217 	0 -0.311848 	-0.203325 	0 -0.311898 	-0.203433 	0 -0.31195 	-0.203543 	0 -0.312069 	-0.203788 	0 -0.31219 	-0.204036 	0 -0.312311 	-0.204284 	0 -0.312432 	-0.204532 	0 -0.312555 	-0.204783 	0 -0.312719 	-0.205229 	0 -0.312887 	-0.205665 	0 -0.313056 	-0.206101 	0 -0.313225 	-0.206537 	0 -0.313396 	-0.206978 	0 -0.313553 	-0.207521 	0 -0.313714 	-0.20806 	0 -0.313877 	-0.208586 	0 -0.314041 	-0.209112 	0 -0.314207 	-0.209644 	0 -0.314359 	-0.21029 	0 -0.314512 	-0.21094 	0 -0.314668 	-0.21158 	0 -0.314827 	-0.212207 	0 -0.314989 	-0.212843 	0 -0.315135 	-0.213604 	0 -0.315283 	-0.21437 	0 -0.315432 	-0.215135 	0 -0.315584 	-0.215889 	0 -0.315742 	-0.21664 	0 -0.315882 	-0.21753 	0 -0.316025 	-0.218424 	0 -0.316169 	-0.219317 	0 -0.316314 	-0.22021 	0 -0.316464 	-0.221105 	0 -0.316524 	-0.221564 	0 -0.316586 	-0.222027 	0 -0.316647 	-0.22249 	0 -0.316709 	-0.222953 	0 -0.316771 	-0.223415 	0 -0.316853 	-0.223991 	0 -0.316936 	-0.224572 	0 -0.317019 	-0.225153 	0 -0.317103 	-0.225734 	0 -0.317188 	-0.226323 	0 -0.317325 	-0.227541 	0 -0.317467 	-0.228743 	0 -0.317611 	-0.229945 	0 -0.317755 	-0.231144 	0 -0.317905 	-0.232368 	0 -0.318033 	-0.233774 	0 -0.318167 	-0.235167 	0 -0.318306 	-0.236538 	0 -0.318446 	-0.237906 	0 -0.318591 	-0.239306 	0 -0.318714 	-0.240897 	0 -0.31884 	-0.242492 	0 -0.31897 	-0.24407 	0 -0.319106 	-0.245619 	0 -0.319247 	-0.247208 	0 -0.319365 	-0.248998 	0 -0.319485 	-0.250792 	0 -0.319608 	-0.252582 	0 -0.319734 	-0.254356 	0 -0.319872 	-0.256148 	0 -0.319984 	-0.258149 	0 -0.320099 	-0.260152 	0 -0.320217 	-0.262151 	0 -0.320336 	-0.264145 	0 -0.320463 	-0.266193 	0 -0.320478 	-0.266509 	0 -0.320493 	-0.266833 	0 -0.320509 	-0.267157 	0 -0.320526 	-0.267484 	0 -0.320542 	-0.26781 	0 -0.320643 	-0.269727 	0 -0.320748 	-0.271649 	0 -0.320854 	-0.273566 	0 -0.320961 	-0.275479 	0 -0.321075 	-0.277451 	0 -0.321176 	-0.279985 	0 -0.321291 	-0.282462 	0 -0.321409 	-0.284932 	0 -0.321529 	-0.287395 	0 -0.321658 	-0.289951 	0 -0.321753 	-0.29273 	0 -0.321852 	-0.295508 	0 -0.321962 	-0.298231 	0 -0.322078 	-0.300929 	0 -0.322202 	-0.30374 	0 -0.322291 	-0.30677 	0 -0.322384 	-0.309797 	0 -0.32248 	-0.312