# vtk DataFile Version 2.0
track0
ASCII
DATASET POLYDATA
POINTS 12130 float
-0.0205 0.001 1e-05
-0.0204894 0.0011 1e-05
-0.0204786 0.00119999 1e-05
-0.0204677 0.00129996 1e-05
-0.0204567 0.00139992 1e-05
-0.0204456 0.0015 1e-05
-0.0204343 0.0016 1e-05
-0.0204229 0.00169998 1e-05
-0.0204114 0.00179995 1e-05
-0.0203996 0.00189989 1e-05
-0.0203877 0.002 1e-05
-0.0203757 0.0021 1e-05
-0.0203634 0.00219998 1e-05
-0.020351 0.00229993 1e-05
-0.0203384 0.00239986 1e-05
-0.0203255 0.0025 1e-05
-0.0203175 0.00256164 1e-05
-0.0203094 0.00262327 1e-05
-0.0203012 0.00268489 1e-05
-0.0202929 0.0027465 1e-05
-0.0202854 0.00280208 1e-05
-0.02028 0.00284167 1e-05
-0.0202745 0.00288124 1e-05
-0.020269 0.00292082 1e-05
-0.0202635 0.00296039 1e-05
-0.020258 0.003 1e-05
-0.0202439 0.0031 1e-05
-0.0202295 0.00319997 1e-05
-0.0202149 0.0032999 1e-05
-0.0202001 0.0033998 1e-05
-0.020185 0.0035 1e-05
-0.0201697 0.0036 1e-05
-0.0201541 0.00369996 1e-05
-0.0201383 0.00379988 1e-05
-0.0201222 0.00389976 1e-05
-0.0201058 0.004 1e-05
-0.0200892 0.0041 1e-05
-0.0200723 0.00419996 1e-05
-0.0200551 0.00429987 1e-05
-0.0200377 0.00439973 1e-05
-0.0200223 0.00448675 1e-05
-0.0200218 0.0044894 1e-05
-0.0200214 0.00449205 1e-05
-0.0200209 0.0044947 1e-05
-0.0200204 0.00449735 1e-05
-0.0200199 0.0045 1e-05
-0.020002 0.0046 1e-05
-0.0199837 0.00469995 1e-05
-0.0199651 0.00479985 1e-05
-0.0199463 0.0048997 1e-05
-0.0199271 0.005 1e-05
-0.0199077 0.0051 1e-05
-0.019888 0.00519994 1e-05
-0.019868 0.00529983 1e-05
-0.0198477 0.00539966 1e-05
-0.0198271 0.0055 1e-05
-0.0198139 0.00556284 1e-05
-0.0198007 0.00562566 1e-05
-0.0197873 0.00568846 1e-05
-0.0197738 0.00575123 1e-05
-0.0197614 0.00580865 1e-05
-0.019753 0.00584692 1e-05
-0.0197446 0.00588518 1e-05
-0.0197361 0.00592343 1e-05
-0.0197277 0.00596167 1e-05
-0.0197191 0.006 1e-05
-0.0196966 0.0061 1e-05
-0.0196739 0.00619993 1e-05
-0.0196509 0.0062998 1e-05
-0.0196275 0.00639959 1e-05
-0.0196037 0.0065 1e-05
-0.0195835 0.00658425 1e-05
-0.019563 0.00666845 1e-05
-0.0195423 0.00675259 1e-05
-0.0195215 0.00683668 1e-05
-0.0195025 0.0069121 1e-05
-0.0194981 0.00692968 1e-05
-0.0194936 0.00694726 1e-05
-0.0194891 0.00696483 1e-05
-0.0194846 0.00698241 1e-05
-0.0194801 0.007 1e-05
-0.0194545 0.0071 1e-05
-0.0194285 0.00719992 1e-05
-0.0194022 0.00729976 1e-05
-0.0193757 0.00739951 1e-05
-0.0193486 0.0075 1e-05
-0.019328 0.00757528 1e-05
-0.0193072 0.00765051 1e-05
-0.0192863 0.00772569 1e-05
-0.0192652 0.00780082 1e-05
-0.0192457 0.00786959 1e-05
-0.0192383 0.00789567 1e-05
-0.0192308 0.00792175 1e-05
-0.0192233 0.00794782 1e-05
-0.0192158 0.00797388 1e-05
-0.0192082 0.008 1e-05
-0.0191792 0.0081 1e-05
-0.0191499 0.00819991 1e-05
-0.0191202 0.00829972 1e-05
-0.0190902 0.00839943 1e-05
-0.0190596 0.0085 1e-05
-0.0190459 0.00854458 1e-05
-0.0190321 0.00858914 1e-05
-0.0190183 0.00863368 1e-05
-0.0190044 0.00867819 1e-05
-0.018991 0.00872063 1e-05
-0.0189734 0.0087765 1e-05
-0.0189557 0.00883235 1e-05
-0.0189378 0.00888816 1e-05
-0.0189199 0.00894393 1e-05
-0.0189017 0.009 1e-05
-0.0188692 0.0091 1e-05
-0.0188363 0.00919989 1e-05
-0.018803 0.00929967 1e-05
-0.0187695 0.00939934 1e-05
-0.0187384 0.00949058 1e-05
-0.0187377 0.00949246 1e-05
-0.0187371 0.00949435 1e-05
-0.0187364 0.00949623 1e-05
-0.0187358 0.00949812 1e-05
-0.0187352 0.0095 1e-05
-0.0187007 0.0096 1e-05
-0.018666 0.00969988 1e-05
-0.0186309 0.00979965 1e-05
-0.0185955 0.0098993 1e-05
-0.0185593 0.01 1e-05
-0.018545 0.0100394 1e-05
-0.0185306 0.0100787 1e-05
-0.0185162 0.010118 1e-05
-0.0185018 0.0101574 1e-05
-0.0184878 0.0101952 1e-05
-0.0184652 0.0102562 1e-05
-0.0184424 0.0103171 1e-05
-0.0184196 0.0103779 1e-05
-0.0183966 0.0104388 1e-05
-0.0183733 0.0105 1e-05
-0.0183465 0.0105701 1e-05
-0.0183195 0.0106401 1e-05
-0.0182923 0.0107101 1e-05
-0.018265 0.01078 1e-05
-0.0182392 0.0108455 1e-05
-0.0182269 0.0108764 1e-05
-0.0182146 0.0109073 1e-05
-0.0182023 0.0109382 1e-05
-0.01819 0.010969 1e-05
-0.0181775 0.011 1e-05
-0.0181405 0.0110918 1e-05
-0.0181033 0.0111835 1e-05
-0.0180657 0.0112751 1e-05
-0.0180278 0.0113666 1e-05
-0.0179926 0.0114508 1e-05
-0.0179884 0.0114607 1e-05
-0.0179843 0.0114705 1e-05
-0.0179801 0.0114803 1e-05
-0.017976 0.0114902 1e-05
-0.0179718 0.0115 1e-05
-0.0179295 0.0116 1e-05
-0.0178868 0.0116998 1e-05
-0.0178437 0.0117995 1e-05
-0.0178003 0.0118991 1e-05
-0.0177558 0.012 1e-05
-0.0177542 0.0120035 1e-05
-0.0177527 0.012007 1e-05
-0.0177511 0.0120106 1e-05
-0.0177495 0.0120141 1e-05
-0.017748 0.0120176 1e-05
-0.017705 0.0121141 1e-05
-0.0176616 0.0122104 1e-05
-0.017618 0.0123066 1e-05
-0.017574 0.0124026 1e-05
-0.0175289 0.0125 1e-05
-0.0175242 0.0125101 1e-05
-0.0175195 0.0125202 1e-05
-0.0175148 0.0125303 1e-05
-0.01751 0.0125403 1e-05
-0.0175053 0.0125504 1e-05
-0.0174632 0.0126403 1e-05
-0.0174207 0.0127301 1e-05
-0.0173779 0.0128197 1e-05
-0.0173348 0.0129092 1e-05
-0.0172907 0.013 1e-05
-0.0172855 0.0130106 1e-05
-0.0172803 0.0130213 1e-05
-0.0172751 0.0130319 1e-05
-0.0172698 0.0130425 1e-05
-0.0172647 0.0130531 1e-05
-0.0172207 0.0131424 1e-05
-0.0171764 0.0132317 1e-05
-0.0171318 0.0133208 1e-05
-0.0170869 0.0134097 1e-05
-0.0170409 0.0135 1e-05
-0.0170379 0.0135058 1e-05
-0.0170349 0.0135117 1e-05
-0.0170319 0.0135175 1e-05
-0.0170289 0.0135234 1e-05
-0.0170259 0.0135292 1e-05
-0.0169786 0.0136212 1e-05
-0.0169309 0.0137131 1e-05
-0.0168829 0.0138048 1e-05
-0.0168345 0.0138963 1e-05
-0.0167891 0.0139816 1e-05
-0.0167871 0.0139853 1e-05
-0.0167852 0.013989 1e-05
-0.0167832 0.0139927 1e-05
-0.0167812 0.0139963 1e-05
-0.0167792 0.014 1e-05
-0.0167342 0.0140837 1e-05
-0.0166889 0.0141673 1e-05
-0.0166434 0.0142507 1e-05
-0.0165976 0.014334 1e-05
-0.0165542 0.0144122 1e-05
-0.0165444 0.0144298 1e-05
-0.0165346 0.0144473 1e-05
-0.0165248 0.0144649 1e-05
-0.0165149 0.0144824 1e-05
-0.016505 0.0145 1e-05
-0.0164683 0.0145653 1e-05
-0.0164313 0.0146306 1e-05
-0.0163942 0.0146957 1e-05
-0.0163569 0.0147607 1e-05
-0.0163212 0.0148228 1e-05
-0.0163006 0.0148582 1e-05
-0.01628 0.0148937 1e-05
-0.0162594 0.014929 1e-05
-0.0162387 0.0149644 1e-05
-0.0162178 0.015 1e-05
-0.0161922 0.0150434 1e-05
-0.0161666 0.0150867 1e-05
-0.0161409 0.01513 1e-05
-0.0161151 0.0151732 1e-05
-0.01609 0.0152152 1e-05
-0.0160558 0.0152722 1e-05
-0.0160215 0.015329 1e-05
-0.015987 0.0153858 1e-05
-0.0159524 0.0154426 1e-05
-0.0159172 0.0155 1e-05
-0.0159059 0.0155183 1e-05
-0.0158946 0.0155366 1e-05
-0.0158833 0.0155549 1e-05
-0.015872 0.0155732 1e-05
-0.0158607 0.0155913 1e-05
-0.0158153 0.0156645 1e-05
-0.0157696 0.0157376 1e-05
-0.0157236 0.0158106 1e-05
-0.0156775 0.0158834 1e-05
-0.0156333 0.0159527 1e-05
-0.0156272 0.0159621 1e-05
-0.0156212 0.0159716 1e-05
-0.0156151 0.0159811 1e-05
-0.015609 0.0159905 1e-05
-0.0156029 0.016 1e-05
-0.0155639 0.0160606 1e-05
-0.0155247 0.0161211 1e-05
-0.0154853 0.0161815 1e-05
-0.0154459 0.0162418 1e-05
-0.0154077 0.0162997 1e-05
-0.0153812 0.0163397 1e-05
-0.0153546 0.0163798 1e-05
-0.015328 0.0164197 1e-05
-0.0153013 0.0164597 1e-05
-0.0152742 0.0165 1e-05
-0.0152561 0.0165268 1e-05
-0.0152381 0.0165536 1e-05
-0.0152199 0.0165804 1e-05
-0.0152018 0.0166071 1e-05
-0.0151839 0.0166334 1e-05
-0.0151395 0.0166985 1e-05
-0.015095 0.0167635 1e-05
-0.0150502 0.0168284 1e-05
-0.0150053 0.0168932 1e-05
-0.0149619 0.0169554 1e-05
-0.0149557 0.0169643 1e-05
-0.0149494 0.0169732 1e-05
-0.0149432 0.0169821 1e-05
-0.0149369 0.0169911 1e-05
-0.0149306 0.017 1e-05
-0.0148928 0.0170537 1e-05
-0.0148549 0.0171072 1e-05
-0.0148169 0.0171607 1e-05
-0.0147788 0.0172141 1e-05
-0.0147417 0.0172658 1e-05
-0.014708 0.0173126 1e-05
-0.0146741 0.0173594 1e-05
-0.0146402 0.0174061 1e-05
-0.0146062 0.0174528 1e-05
-0.0145715 0.0175 1e-05
-0.0145619 0.0175131 1e-05
-0.0145523 0.0175262 1e-05
-0.0145426 0.0175393 1e-05
-0.0145329 0.0175524 1e-05
-0.0145233 0.0175654 1e-05
-0.01448 0.017624 1e-05
-0.0144365 0.0176824 1e-05
-0.0143929 0.0177408 1e-05
-0.0143491 0.0177991 1e-05
-0.0143067 0.0178553 1e-05
-0.0142847 0.0178842 1e-05
-0.0142627 0.0179132 1e-05
-0.0142407 0.017942 1e-05
-0.0142186 0.0179709 1e-05
-0.0141963 0.018 1e-05
-0.0141754 0.0180272 1e-05
-0.0141545 0.0180544 1e-05
-0.0141335 0.0180816 1e-05
-0.0141125 0.0181087 1e-05
-0.0140917 0.0181354 1e-05
-0.0140491 0.0181903 1e-05
-0.0140063 0.018245 1e-05
-0.0139635 0.0182997 1e-05
-0.0139204 0.0183542 1e-05
-0.0138786 0.018407 1e-05
-0.0138638 0.0184256 1e-05
-0.0138489 0.0184442 1e-05
-0.0138341 0.0184628 1e-05
-0.0138193 0.0184813 1e-05
-0.0138043 0.0185 1e-05
-0.0137769 0.0185342 1e-05
-0.0137494 0.0185684 1e-05
-0.0137218 0.0186025 1e-05
-0.0136942 0.0186365 1e-05
-0.0136671 0.01867 1e-05
-0.0136251 0.0187215 1e-05
-0.0135831 0.0187729 1e-05
-0.0135409 0.0188242 1e-05
-0.0134986 0.0188754 1e-05
-0.0134573 0.0189252 1e-05
-0.0134449 0.0189402 1e-05
-0.0134324 0.0189551 1e-05
-0.01342 0.0189701 1e-05
-0.0134075 0.018985 1e-05
-0.0133949 0.019 1e-05
-0.0133658 0.0190348 1e-05
-0.0133366 0.0190695 1e-05
-0.0133074 0.0191042 1e-05
-0.0132781 0.0191388 1e-05
-0.0132493 0.0191728 1e-05
-0.013208 0.0192213 1e-05
-0.0131666 0.0192697 1e-05
-0.0131251 0.0193181 1e-05
-0.0130835 0.0193663 1e-05
-0.0130429 0.0194134 1e-05
-0.0130278 0.0194307 1e-05
-0.0130127 0.019448 1e-05
-0.0129977 0.0194653 1e-05
-0.0129826 0.0194826 1e-05
-0.0129674 0.0195 1e-05
-0.0129415 0.0195295 1e-05
-0.0129156 0.0195591 1e-05
-0.0128897 0.0195885 1e-05
-0.0128638 0.019618 1e-05
-0.0128381 0.019647 1e-05
-0.0127975 0.0196928 1e-05
-0.0127568 0.0197386 1e-05
-0.012716 0.0197842 1e-05
-0.0126751 0.0198298 1e-05
-0.012635 0.0198743 1e-05
-0.0126123 0.0198995 1e-05
-0.0125896 0.0199246 1e-05
-0.0125668 0.0199497 1e-05
-0.012544 0.0199747 1e-05
-0.012521 0.02 1e-05
-0.0125035 0.0200191 1e-05
-0.012486 0.0200383 1e-05
-0.0124685 0.0200574 1e-05
-0.012451 0.0200765 1e-05
-0.0124336 0.0200954 1e-05
-0.0123936 0.0201388 1e-05
-0.0123536 0.0201821 1e-05
-0.0123134 0.0202253 1e-05
-0.0122732 0.0202685 1e-05
-0.0122338 0.0203107 1e-05
-0.0121982 0.0203486 1e-05
-0.0121627 0.0203864 1e-05
[...]
POINT_DATA 12130
 FIELD attributes 1
U 3 12130 float
-0.0298874 	-0.28089 	0 -0.0302268 	-0.280866 	0 -0.030567 	-0.28084 	0 -0.0309066 	-0.280813 	0 -0.0312461 	-0.280786 	0 -0.0315889 	-0.280758 	0 -0.0320349 	-0.280725 	0 -0.0324832 	-0.280692 	0 -0.0329299 	-0.280657 	0 -0.0333748 	-0.280621 	0 -0.0338229 	-0.280584 	0 -0.0343564 	-0.280539 	0 -0.0348918 	-0.280493 	0 -0.035427 	-0.280446 	0 -0.035962 	-0.280398 	0 -0.0364966 	-0.280348 	0 -0.0368685 	-0.280312 	0 -0.0372419 	-0.280275 	0 -0.0376152 	-0.280238 	0 -0.0379885 	-0.2802 	0 -0.0383269 	-0.280166 	0 -0.0385655 	-0.280141 	0 -0.0388057 	-0.280116 	0 -0.0390458 	-0.280091 	0 -0.039286 	-0.280066 	0 -0.039528 	-0.280041 	0 -0.0401926 	-0.279968 	0 -0.0408555 	-0.279892 	0 -0.0415182 	-0.279816 	0 -0.0421807 	-0.279738 	0 -0.0428466 	-0.279659 	0 -0.0435568 	-0.27957 	0 -0.0442678 	-0.27948 	0 -0.0449774 	-0.279389 	0 -0.0456841 	-0.279294 	0 -0.0463943 	-0.279199 	0 -0.0471393 	-0.279093 	0 -0.0478847 	-0.278987 	0 -0.0486299 	-0.278879 	0 -0.0493748 	-0.278769 	0 -0.0500247 	-0.278672 	0 -0.0500444 	-0.278669 	0 -0.0500641 	-0.278666 	0 -0.0500837 	-0.278664 	0 -0.0501035 	-0.278661 	0 -0.0501238 	-0.278657 	0 -0.0508976 	-0.278536 	0 -0.0516714 	-0.278412 	0 -0.052445 	-0.278287 	0 -0.0532183 	-0.278161 	0 -0.0539959 	-0.278032 	0 -0.0547941 	-0.277894 	0 -0.0555925 	-0.277755 	0 -0.0563904 	-0.277614 	0 -0.0571848 	-0.277471 	0 -0.0579839 	-0.277325 	0 -0.058496 	-0.277228 	0 -0.0590083 	-0.27713 	0 -0.0595205 	-0.277031 	0 -0.0600326 	-0.276932 	0 -0.0605014 	-0.276841 	0 -0.0608139 	-0.27678 	0 -0.0611268 	-0.276719 	0 -0.0614396 	-0.276657 	0 -0.0617524 	-0.276596 	0 -0.0620663 	-0.276533 	0 -0.0628999 	-0.276363 	0 -0.0637318 	-0.276191 	0 -0.064562 	-0.276016 	0 -0.0653918 	-0.27584 	0 -0.0662273 	-0.275661 	0 -0.0669394 	-0.275504 	0 -0.0676514 	-0.275345 	0 -0.0683631 	-0.275185 	0 -0.0690745 	-0.275024 	0 -0.0697129 	-0.274879 	0 -0.0698618 	-0.274845 	0 -0.0700109 	-0.274811 	0 -0.0701599 	-0.274777 	0 -0.070309 	-0.274743 	0 -0.0704585 	-0.274708 	0 -0.0713181 	-0.274506 	0 -0.0721753 	-0.274301 	0 -0.073032 	-0.274094 	0 -0.0738883 	-0.273886 	0 -0.0747514 	-0.273675 	0 -0.0754057 	-0.273511 	0 -0.0760601 	-0.273345 	0 -0.0767141 	-0.273179 	0 -0.0773679 	-0.273011 	0 -0.0779666 	-0.272857 	0 -0.078194 	-0.272799 	0 -0.0784215 	-0.27274 	0 -0.078649 	-0.272681 	0 -0.0788765 	-0.272622 	0 -0.0791047 	-0.272563 	0 -0.0799872 	-0.272329 	0 -0.0808688 	-0.272094 	0 -0.0817484 	-0.271856 	0 -0.0826275 	-0.271617 	0 -0.0835147 	-0.271373 	0 -0.083912 	-0.271262 	0 -0.0843094 	-0.27115 	0 -0.0847067 	-0.271038 	0 -0.0851038 	-0.270926 	0 -0.0854827 	-0.270818 	0 -0.0859823 	-0.270677 	0 -0.0864819 	-0.270535 	0 -0.0869813 	-0.270392 	0 -0.0874806 	-0.27025 	0 -0.0879828 	-0.270105 	0 -0.0888872 	-0.269841 	0 -0.0897912 	-0.269575 	0 -0.0906946 	-0.269307 	0 -0.0915974 	-0.269038 	0 -0.0924242 	-0.26879 	0 -0.0924413 	-0.268785 	0 -0.0924584 	-0.26878 	0 -0.0924755 	-0.268775 	0 -0.0924926 	-0.26877 	0 -0.0925098 	-0.268764 	0 -0.0934261 	-0.268485 	0 -0.0943416 	-0.268203 	0 -0.0952564 	-0.267921 	0 -0.0961706 	-0.267636 	0 -0.0970951 	-0.267347 	0 -0.0974601 	-0.267231 	0 -0.097825 	-0.267114 	0 -0.0981899 	-0.266998 	0 -0.0985546 	-0.266881 	0 -0.0989061 	-0.266768 	0 -0.0994731 	-0.266587 	0 -0.10004 	-0.266405 	0 -0.100607 	-0.266222 	0 -0.101173 	-0.266039 	0 -0.101744 	-0.265854 	0 -0.102403 	-0.265637 	0 -0.103062 	-0.26542 	0 -0.103721 	-0.265202 	0 -0.10438 	-0.264983 	0 -0.104997 	-0.264777 	0 -0.105289 	-0.26468 	0 -0.105581 	-0.264582 	0 -0.105873 	-0.264485 	0 -0.106165 	-0.264387 	0 -0.106458 	-0.264289 	0 -0.107334 	-0.263992 	0 -0.108211 	-0.263694 	0 -0.109086 	-0.263395 	0 -0.109961 	-0.263095 	0 -0.110767 	-0.262816 	0 -0.110861 	-0.262784 	0 -0.110956 	-0.262751 	0 -0.11105 	-0.262719 	0 -0.111144 	-0.262686 	0 -0.111239 	-0.262653 	0 -0.112208 	-0.262317 	0 -0.113176 	-0.261978 	0 -0.114144 	-0.261638 	0 -0.11511 	-0.261296 	0 -0.11609 	-0.260948 	0 -0.116124 	-0.260935 	0 -0.116159 	-0.260923 	0 -0.116193 	-0.260911 	0 -0.116228 	-0.260898 	0 -0.116263 	-0.260886 	0 -0.117211 	-0.260547 	0 -0.11816 	-0.260206 	0 -0.119107 	-0.259865 	0 -0.120053 	-0.259522 	0 -0.121014 	-0.259172 	0 -0.121114 	-0.259135 	0 -0.121215 	-0.259098 	0 -0.121315 	-0.259061 	0 -0.121416 	-0.259024 	0 -0.121516 	-0.258987 	0 -0.122414 	-0.258659 	0 -0.123312 	-0.258329 	0 -0.124209 	-0.257998 	0 -0.125105 	-0.257666 	0 -0.126015 	-0.257327 	0 -0.126122 	-0.257287 	0 -0.12623 	-0.257246 	0 -0.126337 	-0.257206 	0 -0.126445 	-0.257166 	0 -0.126552 	-0.257125 	0 -0.127459 	-0.256787 	0 -0.128366 	-0.256447 	0 -0.129271 	-0.256107 	0 -0.130176 	-0.255765 	0 -0.131095 	-0.255416 	0 -0.131155 	-0.255393 	0 -0.131215 	-0.25537 	0 -0.131275 	-0.255347 	0 -0.131336 	-0.255324 	0 -0.131396 	-0.255301 	0 -0.132345 	-0.254941 	0 -0.133293 	-0.25458 	0 -0.13424 	-0.254218 	0 -0.135186 	-0.253854 	0 -0.136068 	-0.253512 	0 -0.136106 	-0.253498 	0 -0.136144 	-0.253483 	0 -0.136182 	-0.253469 	0 -0.13622 	-0.253454 	0 -0.136258 	-0.253439 	0 -0.137135 	-0.253101 	0 -0.138011 	-0.252762 	0 -0.138886 	-0.252422 	0 -0.13976 	-0.25208 	0 -0.140582 	-0.251758 	0 -0.140767 	-0.251686 	0 -0.140952 	-0.251614 	0 -0.141136 	-0.251542 	0 -0.141321 	-0.25147 	0 -0.141507 	-0.251397 	0 -0.142202 	-0.251125 	0 -0.142897 	-0.250852 	0 -0.143592 	-0.250579 	0 -0.144285 	-0.250304 	0 -0.144948 	-0.250042 	0 -0.145327 	-0.249893 	0 -0.145706 	-0.249743 	0 -0.146085 	-0.249594 	0 -0.146463 	-0.249444 	0 -0.146845 	-0.249293 	0 -0.147315 	-0.249106 	0 -0.147784 	-0.24892 	0 -0.148253 	-0.248733 	0 -0.148722 	-0.248546 	0 -0.149177 	-0.248364 	0 -0.149796 	-0.248118 	0 -0.150415 	-0.247872 	0 -0.151033 	-0.247626 	0 -0.151651 	-0.247379 	0 -0.152277 	-0.247128 	0 -0.152479 	-0.247048 	0 -0.15268 	-0.246967 	0 -0.152882 	-0.246885 	0 -0.153084 	-0.246804 	0 -0.153283 	-0.246724 	0 -0.154092 	-0.246402 	0 -0.1549 	-0.246079 	0 -0.155707 	-0.245755 	0 -0.156513 	-0.24543 	0 -0.15728 	-0.245118 	0 -0.157385 	-0.245076 	0 -0.15749 	-0.245034 	0 -0.157595 	-0.244991 	0 -0.157699 	-0.244949 	0 -0.157805 	-0.244907 	0 -0.158484 	-0.244633 	0 -0.159163 	-0.244358 	0 -0.159842 	-0.244084 	0 -0.160519 	-0.243808 	0 -0.161171 	-0.243543 	0 -0.161622 	-0.243361 	0 -0.162074 	-0.243178 	0 -0.162525 	-0.242995 	0 -0.162976 	-0.242813 	0 -0.163431 	-0.242627 	0 -0.163737 	-0.242503 	0 -0.164043 	-0.242379 	0 -0.164349 	-0.242254 	0 -0.164655 	-0.24213 	0 -0.164955 	-0.242007 	0 -0.165702 	-0.241706 	0 -0.166447 	-0.241404 	0 -0.167192 	-0.241102 	0 -0.167936 	-0.240799 	0 -0.168649 	-0.240506 	0 -0.168751 	-0.240464 	0 -0.168854 	-0.240422 	0 -0.168956 	-0.24038 	0 -0.169059 	-0.240338 	0 -0.169162 	-0.240296 	0 -0.169786 	-0.240042 	0 -0.170409 	-0.239788 	0 -0.171032 	-0.239533 	0 -0.171654 	-0.239278 	0 -0.172257 	-0.239031 	0 -0.172804 	-0.238809 	0 -0.173351 	-0.238586 	0 -0.173898 	-0.238363 	0 -0.174444 	-0.23814 	0 -0.174997 	-0.237914 	0 -0.175152 	-0.23785 	0 -0.175308 	-0.237787 	0 -0.175463 	-0.237723 	0 -0.175618 	-0.23766 	0 -0.175773 	-0.237596 	0 -0.176469 	-0.237315 	0 -0.177163 	-0.237033 	0 -0.177856 	-0.236749 	0 -0.178548 	-0.236464 	0 -0.179217 	-0.236188 	0 -0.179561 	-0.236047 	0 -0.179906 	-0.235907 	0 -0.18025 	-0.235766 	0 -0.180594 	-0.235625 	0 -0.180942 	-0.235483 	0 -0.18127 	-0.235349 	0 -0.181599 	-0.235215 	0 -0.181927 	-0.23508 	0 -0.182255 	-0.234946 	0 -0.182578 	-0.234813 	0 -0.183243 	-0.234545 	0 -0.183907 	-0.234276 	0 -0.184569 	-0.234007 	0 -0.18523 	-0.233735 	0 -0.18587 	-0.23347 	0 -0.186095 	-0.233378 	0 -0.186321 	-0.233286 	0 -0.186547 	-0.233194 	0 -0.186772 	-0.233102 	0 -0.186999 	-0.233009 	0 -0.18742 	-0.232838 	0 -0.18784 	-0.232666 	0 -0.18826 	-0.232494 	0 -0.18868 	-0.232323 	0 -0.189092 	-0.232154 	0 -0.189728 	-0.231898 	0 -0.190363 	-0.231641 	0 -0.190998 	-0.231384 	0 -0.191631 	-0.231125 	0 -0.192245 	-0.230871 	0 -0.19243 	-0.230796 	0 -0.192615 	-0.230721 	0 -0.1928 	-0.230646 	0 -0.192985 	-0.23057 	0 -0.193171 	-0.230494 	0 -0.193606 	-0.230318 	0 -0.194042 	-0.230141 	0 -0.194477 	-0.229964 	0 -0.194911 	-0.229787 	0 -0.195338 	-0.229613 	0 -0.195949 	-0.229368 	0 -0.196559 	-0.229123 	0 -0.197168 	-0.228878 	0 -0.197775 	-0.22863 	0 -0.198366 	-0.228387 	0 -0.198584 	-0.228298 	0 -0.198802 	-0.22821 	0 -0.19902 	-0.228122 	0 -0.199238 	-0.228033 	0 -0.199458 	-0.227944 	0 -0.199835 	-0.227792 	0 -0.200212 	-0.22764 	0 -0.200589 	-0.227487 	0 -0.200966 	-0.227335 	0 -0.201337 	-0.227184 	0 -0.201925 	-0.226951 	0 -0.202512 	-0.226717 	0 -0.203097 	-0.226482 	0 -0.203681 	-0.226244 	0 -0.204251 	-0.226011 	0 -0.204573 	-0.225882 	0 -0.204895 	-0.225753 	0 -0.205217 	-0.225623 	0 -0.205538 	-0.225494 	0 -0.205863 	-0.225363 	0 -0.206112 	-0.225263 	0 -0.206361 	-0.225164 	0 -0.20661 	-0.225064 	0 -0.206859 	-0.224964 	0 -0.207106 	-0.224865 	0 -0.207673 	-0.224642 	0 -0.208238 	-0.224418 	0 -0.208801 	-0.224191 	0 -0.209363 	-0.223964 	0 -0.209914 	-0.223741 	0 -0.210408 	-0.223545 	0 -0.210902 	-0.223349 	0 -0.211396 	-0.223153 	0 -0.211888 	-0.222957 	0 -0.212388 	-0.222757 	0 -0.212442 	-0.222736 	0 -0.212497 	-0.222714 	0 -0.212551 	-0.222693 	0 -0.212605 	-0.222671 	0 -0.21266 	-0.222649 	0 -0.213206 	-0.222435 	0 -0.21375 	-0.222219 	0 -0.214295 	-0.222002 	0 -0.214838 	-0.221785 	0 -0.215371 	-0.221572 	0 -0.215904 	-0.221364 	0 -0.216437 	-0.221156 	0 -0.21697 	-0.220947 	0 -0.217501 	-0.220737 	0 -0.218021 	-0.220527 	0 -0.218222 	-0.220448 	0 -0.218423 	-0.220369 	0 -0.218625 	-0.220289 	0 -0.218826 	-0.22021 	0 -0.219029 	-0.220129 	0 -0.21935 	-0.220004 	0 -0.21967 	-0.219878 	0 -0.219991 	-0.219752 	0 -0.220311 	-0.219627 	0 -0.220628 	-0.219502 	0 -0.221145 	-0.219304 	0 -0.221661 	-0.219106 	0 -0.222175 	-0.218903 	0 -0.222687 	-0.218699 	0 -0.223192 	-0.218499 	0 -0.223695 	-0.218304 	0 -0.224199 	-0.218109 	0 -0.224702 	-0.217914 	0 -0.225204 	-0.217719 	0 -0.225698 	-0.217526 	0 -0.225716 	-0.217519 	0 -0.225734 	-0.217512 	0 -0.225752 	-0.217505 	0 -0.22577 	-0.217498 	0 -0.225788 	-0.217491 	0 -0.226269 	-0.217305 	0 -0.226749 	-0.217119 	0 -0.227228 	-0.216933 	0 -0.227707 	-0.216747 	0 -0.22818 	-0.216564 	0 -0.228669 	-0.216379 	0 -0.229158 	-0.216194 	0 -0.229645 	-0.216008 	0 -0.23013 	-0.215817 	0 -0.230608 	-0.215629 	0 -0.231017 	-0.215473 	0 -0.231427 	-0.215316 	0 -0.231836 	-0.21516 	0 -0.232244 	-0.215003 	0 -0.232658 	-0.214844 	0 -0.232723 	-0.214819 	0 -0.232789 	-0.214794 	0 -0.232855 	-0.214769 	0 -0.232921 	-0.214744 	0 -0.232987 	-0.214719 	0 -0.233461 	-0.214541 	0 -0.233934 	-0.21436 	0 -0.234407 	-0.214179 	0 -0.234878 	-0.213999 	0 -0.235344 	-0.21382 	0 -0.235808 	-0.213648 	0 -0.236272 	-0.213475 	0 -0.236735 	-0.213302 	0 -0.237195 	-0.213123 	0 -0.237649 	-0.212947 	0 -0.238045 	-0.212798 	0 -0.238442 	-0.212649 	0 -0.238838 	-0.212499 	0 -0.239234 	-0.21235 	0 -0.239635 	-0.212198 	0 -0.239689 	-0.212178 	0 -0.239743 	-0.212158 	0 -0.239798 	-0.212137 	0 -0.239852 	-0.212117 	0 -0.239907 	-0.212097 	0 -0.240357 	-0.21193 	0 -0.240807 	-0.211761 	0 -0.241256 	-0.211592 	0 -0.241704 	-0.211423 	0 -0.242147 	-0.211256 	0 -0.242588 	-0.211096 	0 -0.243029 	-0.210935 	0 -0.243469 	-0.210772 	0 -0.243906 	-0.210605 	0 -0.244338 	-0.21044 	0 -0.244769 	-0.210281 	0 -0.245199 	-0.210123 	0 -0.245629 	-0.209964 	0 -0.246058 	-0.209805 	0 -0.246482 	-0.209646 	0 -0.246527 	-0.209629 	0 -0.246572 	-0.209612 	0 -0.246617 	-0.209596 	0 -0.246662 	-0.209579 	0 -0.246708 	-0.209562 	0 -0.247089 	-0.209422 	0 -0.247471 	-0.209281 	0 -0.247852 	-0.209141 	0 -0.248233 	-0.209001 	0 -0.24861 	-0.208861 	0 -0.24903 	-0.208712 	0 -0.24945 	-0.208563 	0 -0.249867 	-0.208407 	0 -0.250283 	-0.208251 	0 -0.250696 	-0.208097 	0 -0.251106 	-0.20795 	0 -0.251516 	-0.207802 	0 -0.251925 	-0.207655 	0 -0.252334 	-0.207507 	0 -0.252737 	-0.207354 	0 -0.252961 	-0.207272 	0 -0.253187 	-0.207189 	0 -0.253412 	-0.207107 	0 -0.253637 	-0.207025 	0 -0.253864 	-0.206942 	0 -0.25404 	-0.206879 	0 -0.254217 	-0.206815 	0 -0.254394 	-0.206752 	0 -0.254571 	-0.206688 	0 -0.254747 	-0.206625 	0 -0.255148 	-0.206486 	0 -0.255546 	-0.206341 	0 -0.255944 	-0.206197 	0 -0.256341 	-0.206052 	0 -0.256736 	-0.205908 	0 -0.257127 	-0.205772 	0 -0.257518 	-0.205636 	0 -0.257908 	-0.205497 	0 -0.258296 	-0.205354 	0 -0.25868 	-0.205211 	0 -0.259062 	-0.205076 	0 -0.259443 	-0.204941 	0 -0.259825 	-0.204806 	0 -0.260205 	-0.204671 	0 -0.260582 	-0.204533 	0 -0.260682 	-0.204497 	0 -0.260783 	-0.204461 	0 -0.260884 	-0.204424 	0 -0.260985 	-0.204388 	0 -0.261087 	-0.204352 	0 -0.261363 	-0.204254 	0 -0.26164 	-0.204157 	0 -0.261917 	-0.204059 	0 -0.262193 	-0.203961 	0 -0.262469 	-0.203864 	0 -0.262842 	-0.203739 	0 -0.263215 	-0.203608 	0 -0.263586 	-0.203476 	0 -0.263956 	-0.203343 	0 -0.264324 	-0.203211 	0 -0.264689 	-0.203087 	0 -0.265054 	-0.202962 	0 -0.265418 	-0.202838 	0 -0.26578 	-0.202706 	0 -0.266139 	-0.202575 	0 -0.266495 	-0.202452 	0 -0.26685 	-0.202329 	0 -0.267206 	-0.202205 	0 -0.267561 	-0.202082 	0 -0.267913 	-0.201957 	0 -0.268 	-0.201926 	0 -0.268087 	-0.201895 	0 -0.268175 	-0.201864 	0 -0.268263 	-0.201833 	0 -0.268351 	-0.201802 	0 -0.268616 	-0.201711 	0 -0.268881 	-0.20162 	0 -0.269146 	-0.201529 	0 -0.269411 	-0.201438 	0 -0.269675 	-0.201347 	0 -0.270024 	-0.201234 	0 -0.270371 	-0.201115 	0 -0.270717 	-0.200994 	0 -0.271064 	-0.200873 	0 -0.271408 	-0.200753 	0 -0.271748 	-0.200641 	0 -0.272088 	-0.200529 	0 -0.272428 	-0.200415 	0 -0.272765 	-0.200296 	0 -0.273101 	-0.200176 	0 -0.273433 	-0.200066 	0 -0.273765 	-0.199955 	0 -0.274097 	-0.199844 	0 -0.274428 	-0.199733 	0 -0.274756 	-0.199617 	0 -0.274929 	-0.199558 	0 -0.275102 	-0.1995 	0 -0.275275 	-0.199441 	0 -0.275448 	-0.199383 	0 -0.275623 	-0.199324 	0 -0.275776 	-0.199273 	0 -0.27593 	-0.199223 	0 -0.276083 	-0.199172 	0 -0.276237 	-0.199122 	0 -0.276391 	-0.199071 	0 -0.276716 	-0.198969 	0 -0.27704 	-0.198862 	0 -0.277364 	-0.198754 	0 -0.277687 	-0.198647 	0 -0.27801 	-0.19854 	0 -0.278327 	-0.198442 	0 -0.278645 	-0.198345 	0 -0.278961 	-0.198239 	0 -0.279277 	-0.198133 	0 -0.279591 	-0.198028 	0 -0.279901 	-0.197932 	0 -0.280211 	-0.197836 	0 -0.28052 	-0.19774 	0 -0.280829 	-0.19764 	0 -0.281135 	-0.197536 	0 -0.281437 	-0.197443 	0 -0.281739 	-0.197349 	0 -0.282041 	-0.197255 	0 -0.282343 	-0.197161 	0 -0.282643 	-0.197066 	0 -0.282686 	-0.197053 	0 -0.28273 	-0.197039 	0 -0.282775 	-0.197025 	0 -0.282819 	-0.197012 	0 -0.282864 	-0.196998 	0 -0.283121 	-0.196921 	0 -0.283378 	-0.196844 	0 -0.283636 	-0.196767 	0 -0.283893 	-0.196691 	0 -0.284149 	-0.196614 	0 -0.284446 	-0.196536 	0 -0.284742 	-0.196449 	0 -0.285037 	-0.196362 	0 -0.285332 	-0.196274 	0 -0.285627 	-0.196187 	0 -0.285916 	-0.196113 	0 -0.286205 	-0.196038 	0 -0.286494 	-0.195958 	0 -0.286782 	-0.195874 	0 -0.287069 	-0.19579 	0 -0.28735 	-0.19572 	0 -0.287632 	-0.195649 	0 -0.287914 	-0.195579 	0 -0.288195 	-0.195505 	0 -0.288475 	-0.195426 	0 -0.288749 	-0.195361 	0 -0.289024 	-0.195295 	0 -0.289299 	-0.19523 	0 -0.289573 	-0.195165 	0 -0.289847 	-0.195099 	0 -0.289879 	-0.195091 	0 -0.289913 	-0.195084 	0 -0.289946 	-0.195076 	0 -0.28998 	-0.195069 	0 -0.290015 	-0.195062 	0 -0.290255 	-0.195011 	0 -0.290497 	-0.19496 	0 -0.290739 	-0.19491 	0 -0.29098 	-0.194859 	0 -0.291221 	-0.194809 	0 -0.291491 	-0.194768 	0 -0.291761 	-0.194718 	0 -0.29203 	-0.194668 	0 -0.292299 	-0.194617 	0 -0.292567 	-0.194567 	0 -0.29283 	-0.194535 	0 -0.293093 	-0.194504 	0 -0.293356 	-0.194465 	0 -0.293618 	-0.194423 	0 -0.29388 	-0.194382 	0 -0.294135 	-0.194362 	0 -0.294392 	-0.194341 	0 -0.294648 	-0.19432 	0 -0.294903 	-0.194293 	0 -0.295158 	-0.194263 	0 -0.295407 	-0.194255 	0 -0.295656 	-0.194247 	0 -0.295906 	-0.19424 	0 -0.296155 	-0.194232 	0 -0.296404 	-0.194219 	0 -0.29652 	-0.194222 	0 -0.296637 	-0.194226 	0 -0.296754 	-0.19423 	0 -0.296871 	-0.194233 	0 -0.296989 	-0.194237 	0 -0.297118 	-0.194242 	0 -0.297248 	-0.194246 	0 -0.297378 	-0.194251 	0 -0.297508 	-0.194256 	0 -0.297638 	-0.194262 	0 -0.297882 	-0.194295 	0 -0.298127 	-0.194323 	0 -0.298372 	-0.19435 	0 -0.298617 	-0.194378 	0 -0.298862 	-0.194406 	0 -0.2991 	-0.194466 	0 -0.299338 	-0.194522 	0 -0.299576 	-0.194571 	0 -0.299815 	-0.19462 	0 -0.300053 	-0.194669 	0 -0.300285 	-0.194754 	0 -0.300517 	-0.194839 	0 -0.300749 	-0.194921 	0 -0.300981 	-0.194994 	0 -0.301213 	-0.195068 	0 -0.301438 	-0.195181 	0 -0.301664 	-0.195296 	0 -0.30189 	-0.19541 	0 -0.302115 	-0.195521 	0 -0.302342 	-0.195624 	0 -0.30256 	-0.19577 	0 -0.30278 	-0.195918 	0 -0.302999 	-0.196065 	0 -0.303219 	-0.196213 	0 -0.303439 	-0.196359 	0 -0.303481 	-0.196395 	0 -0.303524 	-0.196433 	0 -0.303567 	-0.196471 	0 -0.303611 	-0.196509 	0 -0.303655 	-0.196547 	0 -0.303831 	-0.196697 	0 -0.304009 	-0.196848 	0 -0.304186 	-0.197 	0 -0.304364 	-0.197151 	0 -0.304543 	-0.197304 	0 -0.304757 	-0.197549 	0 -0.304973 	-0.197782 	0 -0.305189 	-0.198016 	0 -0.305406 	-0.198249 	0 -0.305624 	-0.198485 	0 -0.305832 	-0.198783 	0 -0.306041 	-0.19908 	0 -0.306252 	-0.199363 	0 -0.306462 	-0.199646 	0 -0.306675 	-0.199931 	0 -0.306876 	-0.200286 	0 -0.307079 	-0.200642 	0 -0.307283 	-0.200996 	0 -0.307487 	-0.201335 	0 -0.307694 	-0.201677 	0 -0.307889 	-0.202095 	0 -0.308086 	-0.202515 	0 -0.308283 	-0.202935 	0 -0.308481 	-0.203352 	0 -0.308682 	-0.203758 	0 -0.308871 	-0.204246 	0 -0.309062 	-0.204738 	0 -0.309253 	-0.205229 	0 -0.309445 	-0.205719 	0 -0.30964 	-0.206212 	0 -0.309668 	-0.2063 	0 -0.309697 	-0.20639 	0 -0.309726 	-0.20648 	0 -0.309756 	-0.206571 	0 -0.309786 	-0.206662 	0 -0.309948 	-0.207145 	0 -0.310112 	-0.20763 	0 -0.310277 	-0.208115 	0 -0.310442 	-0.2086 	0 -0.310609 	-0.20909 	0 -0.310794 	-0.209772 	0 -0.310983 	-0.210435 	0 -0.311173 	-0.211098 	0 -0.311363 	-0.211761 	0 -0.311557 	-0.212432 	0 -0.311735 	-0.213214 	0 -0.311916 	-0.213996 	0 -0.312101 	-0.214754 	0 -0.312286 	-0.215513 	0 -0.312474 	-0.216281 	0 -0.312647 	-0.21717 	0 -0.312822 	-0.218061 	0 -0.312998 	-0.218949 	0 -0.313178 	-0.219811 	0 -0.313362 	-0.220686 	0 -0.31353 	-0.22169 	0 -0.313699 	-0.222696 	0 -0.31387 	-0.223702 	0 -0.314041 	-0.224704 	0 -0.314221 	-0.225695 	0 -0.314383 	-0.226823 	0 -0.314547 	-0.227953 	0 -0.314712 	-0.229083 	0 -0.314878 	-0.230211 	0 -0.31505 	-0.231358 	0 -0.315055 	-0.231403 	0 -0.315061 	-0.23145 	0 -0.315067 	-0.231498 	0 -0.315073 	-0.231546 	0 -0.315079 	-0.231594 	0 -0.31524 	-0.232818 	0 -0.315403 	-0.234046 	0 -0.315567 	-0.235272 	0 -0.315733 	-0.236496 	0 -0.315903 	-0.237745 	0 -0.316059 	-0.239199 	0 -0.316223 	-0.240618 	0 -0.316389 	-0.242033 	0 -0.316556 	-0.243446 	0 -0.316729 	-0.244891 	0 -0.316879 	-0.246499 	0 -0.317032 	-0.248109 	0 -0.317192 	-0.24968 	0 -0.317355 	-0.251243 	0 -0.317524 	-0.252845 	0 -0.317668 	-0.254614 	0 -0.317816 	-0.256386 	0 -0.317966 	-0.258154 	0 -0.318122 	-0.259887 	0 -0.318287 	-0.261653 	0 -0.318426 	-0.263592 	0 -0.318569 	-0.265532 	0 -0.318713 	-0.267468 	0 -0.318859 	-0.269399 	0 -0.319017 	-0.271362 	0 -0.319076 	-0.272303 	0 -0.319137 	-0.27325 	0 -0.319198 	-0.274196 	0 -0.319259 	-0.27514 	0 -0.319321 	-0.276073 	0 -0.319405 	-0.277258 	0 -0.31949 	-0.278449 	0 -0.319576 	-0.279639 	0 -0.319662 	-0.280826 	0 -0.319752 	-0.28204 	0 -0.319886 	-0.284398 	0 -0.320029 	-0.286718 	0 -0.320174 	-0.289032 	0 -0.320322 	-0.291339 	0 -0.320478 	-0.293727 	0 -0.320603 	-0.296295 	0 -0.320731 	-0.298862 	0 -0.320872 	-0.301362 	0 -0.321015 	-0.303856 	0 -0.321166 	-0.306444 	0 -0.321285 	-0.309208 	0 -0.321407 	-0.311971 	0 -0.321532 	-0.314725 	0 -0.321666 	-0.31743 	0 -0.321813 	-0.320223 	0 -0.321925 	-0.323187 	0 -0.322041 	-0.326149 	0 -0.32216 	-0.3291 	0 -0.322282 	-0.33204 	0 -0.322415 	-0.335094 	0 -0.322431 	-0.335575 	0 -0.322447 	-0.336065 	0 -0.322464 	-0.336554 	0 -0.322481 	-0.337045 	0 -0.322498 	-0.337536 	0 -0.3226 	-0.340248 	0 -0.322704 	-0.34296 	0 -0.322811 	-0.345662 	0 -0.322921 	-0.348356 	0 -0.323038 	-0.35116 	0 -0.323135 	-0.354648 	0 -0.323246 	-0.35807