# vtk DataFile Version 2.0
track0
ASCII
DATASET POLYDATA
POINTS 12130 float
-0.0205 0.001 1e-05
-0.0204894 0.0011 1e-05
-0.0204786 0.00119999 1e-05
-0.0204677 0.00129996 1e-05
-0.0204567 0.00139992 1e-05
-0.0204456 0.0015 1e-05
-0.0204343 0.0016 1e-05
-0.0204229 0.00169998 1e-05
-0.0204114 0.00179995 1e-05
-0.0203996 0.00189989 1e-05
-0.0203877 0.002 1e-05
-0.0203757 0.0021 1e-05
-0.0203634 0.00219998 1e-05
-0.020351 0.00229993 1e-05
-0.0203384 0.00239986 1e-05
-0.0203255 0.0025 1e-05
-0.0203175 0.00256164 1e-05
-0.0203094 0.00262327 1e-05
-0.0203012 0.00268489 1e-05
-0.0202929 0.0027465 1e-05
-0.0202854 0.00280208 1e-05
-0.02028 0.00284167 1e-05
-0.0202745 0.00288124 1e-05
-0.020269 0.00292082 1e-05
-0.0202635 0.00296039 1e-05
-0.020258 0.003 1e-05
-0.0202439 0.0031 1e-05
-0.0202295 0.00319997 1e-05
-0.0202149 0.0032999 1e-05
-0.0202001 0.0033998 1e-05
-0.020185 0.0035 1e-05
-0.0201697 0.0036 1e-05
-0.0201541 0.00369996 1e-05
-0.0201383 0.00379988 1e-05
-0.0201222 0.00389976 1e-05
-0.0201058 0.004 1e-05
-0.0200892 0.0041 1e-05
-0.0200723 0.00419996 1e-05
-0.0200551 0.00429987 1e-05
-0.0200377 0.00439973 1e-05
-0.0200223 0.00448675 1e-05
-0.0200218 0.0044894 1e-05
-0.0200214 0.00449205 1e-05
-0.0200209 0.0044947 1e-05
-0.0200204 0.00449735 1e-05
-0.0200199 0.0045 1e-05
-0.020002 0.0046 1e-05
-0.0199837 0.00469995 1e-05
-0.0199651 0.00479985 1e-05
-0.0199463 0.0048997 1e-05
-0.0199271 0.005 1e-05
-0.0199077 0.0051 1e-05
-0.019888 0.00519994 1e-05
-0.019868 0.00529983 1e-05
-0.0198477 0.00539966 1e-05
-0.0198271 0.0055 1e-05
-0.0198139 0.00556284 1e-05
-0.0198007 0.00562566 1e-05
-0.0197873 0.00568846 1e-05
-0.0197738 0.00575123 1e-05
-0.0197614 0.00580865 1e-05
-0.019753 0.00584692 1e-05
-0.0197446 0.00588518 1e-05
-0.0197361 0.00592343 1e-05
-0.0197277 0.00596167 1e-05
-0.0197191 0.006 1e-05
-0.0196966 0.0061 1e-05
-0.0196739 0.00619993 1e-05
-0.0196509 0.0062998 1e-05
-0.0196275 0.00639959 1e-05
-0.0196037 0.0065 1e-05
-0.0195835 0.00658425 1e-05
-0.019563 0.00666845 1e-05
-0.0195423 0.00675259 1e-05
-0.0195215 0.00683668 1e-05
-0.0195025 0.0069121 1e-05
-0.0194981 0.00692968 1e-05
-0.0194936 0.00694726 1e-05
-0.0194891 0.00696483 1e-05
-0.0194846 0.00698241 1e-05
-0.0194801 0.007 1e-05
-0.0194545 0.0071 1e-05
-0.0194285 0.00719992 1e-05
-0.0194022 0.00729976 1e-05
-0.0193757 0.00739951 1e-05
-0.0193486 0.0075 1e-05
-0.019328 0.00757528 1e-05
-0.0193072 0.00765051 1e-05
-0.0192863 0.00772569 1e-05
-0.0192652 0.00780082 1e-05
-0.0192457 0.00786959 1e-05
-0.0192383 0.00789567 1e-05
-0.0192308 0.00792175 1e-05
-0.0192233 0.00794782 1e-05
-0.0192158 0.00797388 1e-05
-0.0192082 0.008 1e-05
-0.0191792 0.0081 1e-05
-0.0191499 0.00819991 1e-05
-0.0191202 0.00829972 1e-05
-0.0190902 0.00839943 1e-05
-0.0190596 0.0085 1e-05
-0.0190459 0.00854458 1e-05
-0.0190321 0.00858914 1e-05
-0.0190183 0.00863368 1e-05
-0.0190044 0.00867819 1e-05
-0.018991 0.00872063 1e-05
-0.0189734 0.0087765 1e-05
-0.0189557 0.00883235 1e-05
-0.0189378 0.00888816 1e-05
-0.0189199 0.00894393 1e-05
-0.0189017 0.009 1e-05
-0.0188692 0.0091 1e-05
-0.0188363 0.00919989 1e-05
-0.018803 0.00929967 1e-05
-0.0187695 0.00939934 1e-05
-0.0187384 0.00949058 1e-05
-0.0187377 0.00949246 1e-05
-0.0187371 0.00949435 1e-05
-0.0187364 0.00949623 1e-05
-0.0187358 0.00949812 1e-05
-0.0187352 0.0095 1e-05
-0.0187007 0.0096 1e-05
-0.018666 0.00969988 1e-05
-0.0186309 0.00979965 1e-05
-0.0185955 0.0098993 1e-05
-0.0185593 0.01 1e-05
-0.018545 0.0100394 1e-05
-0.0185306 0.0100787 1e-05
-0.0185162 0.010118 1e-05
-0.0185018 0.0101574 1e-05
-0.0184878 0.0101952 1e-05
-0.0184652 0.0102562 1e-05
-0.0184424 0.0103171 1e-05
-0.0184196 0.0103779 1e-05
-0.0183966 0.0104388 1e-05
-0.0183733 0.0105 1e-05
-0.0183465 0.0105701 1e-05
-0.0183195 0.0106401 1e-05
-0.0182923 0.0107101 1e-05
-0.018265 0.01078 1e-05
-0.0182392 0.0108455 1e-05
-0.0182269 0.0108764 1e-05
-0.0182146 0.0109073 1e-05
-0.0182023 0.0109382 1e-05
-0.01819 0.010969 1e-05
-0.0181775 0.011 1e-05
-0.0181405 0.0110918 1e-05
-0.0181033 0.0111835 1e-05
-0.0180657 0.0112751 1e-05
-0.0180278 0.0113666 1e-05
-0.0179926 0.0114508 1e-05
-0.0179884 0.0114607 1e-05
-0.0179843 0.0114705 1e-05
-0.0179801 0.0114803 1e-05
-0.017976 0.0114902 1e-05
-0.0179718 0.0115 1e-05
-0.0179295 0.0116 1e-05
-0.0178868 0.0116998 1e-05
-0.0178437 0.0117995 1e-05
-0.0178003 0.0118991 1e-05
-0.0177558 0.012 1e-05
-0.0177542 0.0120035 1e-05
-0.0177527 0.012007 1e-05
-0.0177511 0.0120106 1e-05
-0.0177495 0.0120141 1e-05
-0.017748 0.0120176 1e-05
-0.017705 0.0121141 1e-05
-0.0176616 0.0122104 1e-05
-0.017618 0.0123066 1e-05
-0.017574 0.0124026 1e-05
-0.0175289 0.0125 1e-05
-0.0175242 0.0125101 1e-05
-0.0175195 0.0125202 1e-05
-0.0175148 0.0125303 1e-05
-0.01751 0.0125403 1e-05
-0.0175053 0.0125504 1e-05
-0.0174632 0.0126403 1e-05
-0.0174207 0.0127301 1e-05
-0.0173779 0.0128197 1e-05
-0.0173348 0.0129092 1e-05
-0.0172907 0.013 1e-05
-0.0172855 0.0130106 1e-05
-0.0172803 0.0130213 1e-05
-0.0172751 0.0130319 1e-05
-0.0172698 0.0130425 1e-05
-0.0172647 0.0130531 1e-05
-0.0172207 0.0131424 1e-05
-0.0171764 0.0132317 1e-05
-0.0171318 0.0133208 1e-05
-0.0170869 0.0134097 1e-05
-0.0170409 0.0135 1e-05
-0.0170379 0.0135058 1e-05
-0.0170349 0.0135117 1e-05
-0.0170319 0.0135175 1e-05
-0.0170289 0.0135234 1e-05
-0.0170259 0.0135292 1e-05
-0.0169786 0.0136212 1e-05
-0.0169309 0.0137131 1e-05
-0.0168829 0.0138048 1e-05
-0.0168345 0.0138963 1e-05
-0.0167891 0.0139816 1e-05
-0.0167871 0.0139853 1e-05
-0.0167852 0.013989 1e-05
-0.0167832 0.0139927 1e-05
-0.0167812 0.0139963 1e-05
-0.0167792 0.014 1e-05
-0.0167342 0.0140837 1e-05
-0.0166889 0.0141673 1e-05
-0.0166434 0.0142507 1e-05
-0.0165976 0.014334 1e-05
-0.0165542 0.0144122 1e-05
-0.0165444 0.0144298 1e-05
-0.0165346 0.0144473 1e-05
-0.0165248 0.0144649 1e-05
-0.0165149 0.0144824 1e-05
-0.016505 0.0145 1e-05
-0.0164683 0.0145653 1e-05
-0.0164313 0.0146306 1e-05
-0.0163942 0.0146957 1e-05
-0.0163569 0.0147607 1e-05
-0.0163212 0.0148228 1e-05
-0.0163006 0.0148582 1e-05
-0.01628 0.0148937 1e-05
-0.0162594 0.014929 1e-05
-0.0162387 0.0149644 1e-05
-0.0162178 0.015 1e-05
-0.0161922 0.0150434 1e-05
-0.0161666 0.0150867 1e-05
-0.0161409 0.01513 1e-05
-0.0161151 0.0151732 1e-05
-0.01609 0.0152152 1e-05
-0.0160558 0.0152722 1e-05
-0.0160215 0.015329 1e-05
-0.015987 0.0153858 1e-05
-0.0159524 0.0154426 1e-05
-0.0159172 0.0155 1e-05
-0.0159059 0.0155183 1e-05
-0.0158946 0.0155366 1e-05
-0.0158833 0.0155549 1e-05
-0.015872 0.0155732 1e-05
-0.0158607 0.0155913 1e-05
-0.0158153 0.0156645 1e-05
-0.0157696 0.0157376 1e-05
-0.0157236 0.0158106 1e-05
-0.0156775 0.0158834 1e-05
-0.0156333 0.0159527 1e-05
-0.0156272 0.0159621 1e-05
-0.0156212 0.0159716 1e-05
-0.0156151 0.0159811 1e-05
-0.015609 0.0159905 1e-05
-0.0156029 0.016 1e-05
-0.0155639 0.0160606 1e-05
-0.0155247 0.0161211 1e-05
-0.0154853 0.0161815 1e-05
-0.0154459 0.0162418 1e-05
-0.0154077 0.0162997 1e-05
-0.0153812 0.0163397 1e-05
-0.0153546 0.0163798 1e-05
-0.015328 0.0164197 1e-05
-0.0153013 0.0164597 1e-05
-0.0152742 0.0165 1e-05
-0.0152561 0.0165268 1e-05
-0.0152381 0.0165536 1e-05
-0.0152199 0.0165804 1e-05
-0.0152018 0.0166071 1e-05
-0.0151839 0.0166334 1e-05
-0.0151395 0.0166985 1e-05
-0.015095 0.0167635 1e-05
-0.0150502 0.0168284 1e-05
-0.0150053 0.0168932 1e-05
-0.0149619 0.0169554 1e-05
-0.0149557 0.0169643 1e-05
-0.0149494 0.0169732 1e-05
-0.0149432 0.0169821 1e-05
-0.0149369 0.0169911 1e-05
-0.0149306 0.017 1e-05
-0.0148928 0.0170537 1e-05
-0.0148549 0.0171072 1e-05
-0.0148169 0.0171607 1e-05
-0.0147788 0.0172141 1e-05
-0.0147417 0.0172658 1e-05
-0.014708 0.0173126 1e-05
-0.0146741 0.0173594 1e-05
-0.0146402 0.0174061 1e-05
-0.0146062 0.0174528 1e-05
-0.0145715 0.0175 1e-05
-0.0145619 0.0175131 1e-05
-0.0145523 0.0175262 1e-05
-0.0145426 0.0175393 1e-05
-0.0145329 0.0175524 1e-05
-0.0145233 0.0175654 1e-05
-0.01448 0.017624 1e-05
-0.0144365 0.0176824 1e-05
-0.0143929 0.0177408 1e-05
-0.0143491 0.0177991 1e-05
-0.0143067 0.0178553 1e-05
-0.0142847 0.0178842 1e-05
-0.0142627 0.0179132 1e-05
-0.0142407 0.017942 1e-05
-0.0142186 0.0179709 1e-05
-0.0141963 0.018 1e-05
-0.0141754 0.0180272 1e-05
-0.0141545 0.0180544 1e-05
-0.0141335 0.0180816 1e-05
-0.0141125 0.0181087 1e-05
-0.0140917 0.0181354 1e-05
-0.0140491 0.0181903 1e-05
-0.0140063 0.018245 1e-05
-0.0139635 0.0182997 1e-05
-0.0139204 0.0183542 1e-05
-0.0138786 0.018407 1e-05
-0.0138638 0.0184256 1e-05
-0.0138489 0.0184442 1e-05
-0.0138341 0.0184628 1e-05
-0.0138193 0.0184813 1e-05
-0.0138043 0.0185 1e-05
-0.0137769 0.0185342 1e-05
-0.0137494 0.0185684 1e-05
-0.0137218 0.0186025 1e-05
-0.0136942 0.0186365 1e-05
-0.0136671 0.01867 1e-05
-0.0136251 0.0187215 1e-05
-0.0135831 0.0187729 1e-05
-0.0135409 0.0188242 1e-05
-0.0134986 0.0188754 1e-05
-0.0134573 0.0189252 1e-05
-0.0134449 0.0189402 1e-05
-0.0134324 0.0189551 1e-05
-0.01342 0.0189701 1e-05
-0.0134075 0.018985 1e-05
-0.0133949 0.019 1e-05
-0.0133658 0.0190348 1e-05
-0.0133366 0.0190695 1e-05
-0.0133074 0.0191042 1e-05
-0.0132781 0.0191388 1e-05
-0.0132493 0.0191728 1e-05
-0.013208 0.0192213 1e-05
-0.0131666 0.0192697 1e-05
-0.0131251 0.0193181 1e-05
-0.0130835 0.0193663 1e-05
-0.0130429 0.0194134 1e-05
-0.0130278 0.0194307 1e-05
-0.0130127 0.019448 1e-05
-0.0129977 0.0194653 1e-05
-0.0129826 0.0194826 1e-05
-0.0129674 0.0195 1e-05
-0.0129415 0.0195295 1e-05
-0.0129156 0.0195591 1e-05
-0.0128897 0.0195885 1e-05
-0.0128638 0.019618 1e-05
-0.0128381 0.019647 1e-05
-0.0127975 0.0196928 1e-05
-0.0127568 0.0197386 1e-05
-0.012716 0.0197842 1e-05
-0.0126751 0.0198298 1e-05
-0.012635 0.0198743 1e-05
-0.0126123 0.0198995 1e-05
-0.0125896 0.0199246 1e-05
-0.0125668 0.0199497 1e-05
-0.012544 0.0199747 1e-05
-0.012521 0.02 1e-05
-0.0125035 0.0200191 1e-05
-0.012486 0.0200383 1e-05
-0.0124685 0.0200574 1e-05
-0.012451 0.0200765 1e-05
-0.0124336 0.0200954 1e-05
-0.0123936 0.0201388 1e-05
-0.0123536 0.0201821 1e-05
-0.0123134 0.0202253 1e-05
-0.0122732 0.0202685 1e-05
-0.0122338 0.0203107 1e-05
-0.0121982 0.0203486 1e-05
-0.0121627 0.0203864 1e-05
[...]
POINT_DATA 12130
 FIELD attributes 2
p 1 12130 float
-0.00733564 -0.00806056 -0.0087841 -0.0095073 -0.0102304 -0.0109542 -0.0116669 -0.012379 -0.0130905 -0.0138012 -0.0145127 -0.0152153 -0.0159177 -0.0166199 -0.017322 -0.0180245 -0.0184547 -0.0188848 -0.0193148 -0.0197448 -0.0201325 -0.020409 -0.0206853 -0.0209617 -0.0212379 -0.0215144 -0.0222067 -0.022898 -0.0235892 -0.0242803 -0.0249733 -0.0256598 -0.026346 -0.0270317 -0.0277167 -0.0284042 -0.0290854 -0.0297663 -0.030447 -0.0311275 -0.0317204 -0.0317385 -0.0317566 -0.0317747 -0.0317927 -0.0318107 -0.0324872 -0.0331633 -0.0338391 -0.0345147 -0.0351933 -0.0358659 -0.036538 -0.0372099 -0.037881 -0.0385555 -0.0389758 -0.0393958 -0.0398157 -0.0402355 -0.0406193 -0.0408753 -0.0411311 -0.0413869 -0.0416427 -0.0418989 -0.0425642 -0.0432289 -0.0438931 -0.044557 -0.0452249 -0.0457829 -0.0463405 -0.0468979 -0.047455 -0.0479546 -0.0480712 -0.0481876 -0.0483039 -0.0484203 -0.0485367 -0.0491962 -0.049855 -0.0505134 -0.0511713 -0.0518341 -0.052329 -0.0528235 -0.0533178 -0.0538119 -0.054264 -0.0544355 -0.0546068 -0.0547781 -0.0549493 -0.0551208 -0.055776 -0.0564305 -0.0570844 -0.0577378 -0.0583968 -0.0586884 -0.0589797 -0.059271 -0.0595622 -0.0598397 -0.0602046 -0.0605693 -0.0609338 -0.0612982 -0.0616644 -0.0623166 -0.0629682 -0.0636192 -0.0642696 -0.0648649 -0.0648772 -0.0648895 -0.0649017 -0.064914 -0.0649263 -0.0655769 -0.0662268 -0.0668761 -0.0675247 -0.0681802 -0.0684365 -0.0686927 -0.0689487 -0.0692047 -0.0694511 -0.069847 -0.0702426 -0.0706379 -0.0710329 -0.0714306 -0.0718863 -0.0723415 -0.0727963 -0.0732507 -0.0736765 -0.0738768 -0.0740769 -0.074277 -0.0744769 -0.0746776 -0.0752736 -0.0758688 -0.0764633 -0.0770571 -0.0776039 -0.0776676 -0.0777312 -0.0777948 -0.0778584 -0.077922 -0.0785701 -0.0792172 -0.0798634 -0.0805086 -0.0811627 -0.0811856 -0.0812084 -0.0812313 -0.0812542 -0.081277 -0.0819015 -0.0825251 -0.0831477 -0.0837694 -0.0843999 -0.0844655 -0.0845311 -0.0845966 -0.0846622 -0.0847271 -0.0853085 -0.0858889 -0.0864683 -0.0870468 -0.0876335 -0.0877025 -0.0877716 -0.0878406 -0.0879096 -0.0879781 -0.0885552 -0.0891312 -0.0897063 -0.0902803 -0.090863 -0.090901 -0.090939 -0.090977 -0.0910149 -0.0910527 -0.0916459 -0.0922378 -0.0928286 -0.0934183 -0.0939678 -0.0939913 -0.0940148 -0.0940383 -0.0940617 -0.0940852 -0.094624 -0.0951618 -0.0956985 -0.0962342 -0.0967376 -0.0968493 -0.0969611 -0.0970729 -0.0971846 -0.0972968 -0.0977165 -0.0981354 -0.0985536 -0.0989712 -0.0993694 -0.0995946 -0.0998195 -0.100044 -0.100269 -0.100495 -0.100773 -0.10105 -0.101328 -0.101605 -0.101874 -0.102234 -0.102594 -0.102954 -0.103313 -0.103676 -0.103793 -0.10391 -0.104027 -0.104144 -0.104259 -0.104721 -0.105182 -0.105642 -0.106101 -0.106537 -0.106596 -0.106655 -0.106714 -0.106772 -0.106831 -0.107212 -0.107592 -0.107971 -0.10835 -0.108713 -0.108961 -0.109208 -0.109455 -0.109701 -0.10995 -0.110117 -0.110285 -0.110452 -0.110619 -0.110783 -0.111183 -0.111582 -0.111979 -0.112376 -0.112757 -0.112811 -0.112864 -0.112918 -0.112972 -0.113025 -0.113352 -0.113679 -0.114005 -0.11433 -0.114645 -0.114924 -0.115202 -0.11548 -0.115757 -0.116038 -0.116118 -0.116197 -0.116276 -0.116355 -0.116433 -0.116779 -0.117124 -0.117468 -0.117811 -0.118143 -0.118309 -0.118474 -0.11864 -0.118805 -0.118972 -0.11913 -0.119288 -0.119447 -0.119605 -0.119761 -0.120071 -0.12038 -0.120689 -0.120997 -0.121297 -0.121398 -0.1215 -0.121601 -0.121702 -0.121805 -0.121996 -0.122187 -0.122377 -0.122566 -0.122752 -0.123029 -0.123305 -0.12358 -0.123855 -0.124122 -0.124199 -0.124277 -0.124354 -0.124431 -0.124508 -0.124691 -0.124874 -0.125057 -0.125239 -0.125418 -0.125662 -0.125906 -0.126149 -0.126392 -0.126629 -0.126712 -0.126795 -0.126878 -0.12696 -0.127044 -0.12719 -0.127335 -0.12748 -0.127624 -0.127766 -0.127979 -0.128191 -0.128402 -0.128615 -0.128822 -0.128932 -0.129041 -0.129151 -0.12926 -0.129369 -0.129455 -0.129541 -0.129626 -0.129712 -0.129797 -0.129978 -0.13016 -0.130343 -0.130525 -0.130703 -0.130849 -0.130995 -0.131141 -0.131286 -0.131433 -0.13145 -0.131466 -0.131482 -0.131499 -0.131515 -0.131668 -0.131821 -0.131973 -0.132125 -0.132273 -0.132406 -0.132539 -0.13267 -0.132802 -0.132933 -0.132978 -0.133023 -0.133068 -0.133113 -0.133157 -0.133231 -0.133305 -0.133378 -0.133452 -0.133525 -0.133627 -0.133729 -0.133833 -0.133937 -0.134039 -0.134124 -0.134208 -0.134292 -0.134375 -0.134458 -0.13446 -0.134462 -0.134465 -0.134468 -0.13447 -0.134543 -0.134615 -0.134686 -0.134757 -0.134825 -0.134879 -0.134932 -0.134986 -0.135042 -0.135097 -0.135129 -0.13516 -0.135191 -0.135221 -0.13525 -0.135254 -0.13526 -0.135265 -0.135271 -0.135277 -0.135301 -0.135327 -0.135353 -0.135378 -0.135403 -0.135406 -0.13541 -0.135413 -0.135422 -0.13543 -0.135418 -0.135406 -0.135394 -0.135382 -0.13537 -0.135369 -0.135368 -0.135368 -0.135367 -0.135365 -0.135342 -0.135319 -0.135296 -0.135272 -0.135247 -0.135202 -0.135155 -0.135111 -0.135071 -0.135029 -0.134968 -0.134904 -0.13484 -0.134776 -0.134712 -0.134704 -0.134695 -0.134687 -0.134678 -0.134669 -0.134602 -0.134536 -0.13447 -0.134403 -0.134338 -0.134238 -0.13414 -0.134049 -0.133957 -0.133867 -0.13375 -0.133634 -0.133517 -0.133401 -0.133295 -0.133219 -0.133144 -0.133069 -0.132994 -0.13292 -0.132865 -0.13281 -0.132755 -0.132699 -0.132643 -0.132493 -0.13235 -0.132206 -0.132062 -0.131918 -0.131749 -0.131579 -0.131411 -0.13125 -0.131089 -0.130903 -0.130716 -0.130528 -0.130339 -0.130156 -0.130102 -0.130047 -0.129992 -0.129936 -0.129879 -0.129733 -0.129588 -0.129442 -0.129297 -0.129153 -0.128923 -0.128704 -0.128488 -0.128271 -0.128058 -0.127811 -0.127565 -0.127318 -0.127085 -0.126854 -0.126589 -0.126326 -0.126062 -0.125798 -0.125543 -0.125471 -0.1254 -0.12533 -0.125259 -0.125189 -0.124986 -0.124782 -0.124576 -0.124371 -0.124165 -0.123861 -0.123567 -0.123276 -0.122985 -0.122694 -0.122372 -0.122048 -0.121728 -0.121419 -0.12111 -0.12077 -0.120429 -0.120087 -0.119745 -0.119417 -0.119227 -0.119035 -0.118843 -0.118651 -0.118456 -0.118291 -0.118126 -0.117962 -0.117797 -0.117634 -0.117249 -0.116878 -0.116507 -0.116135 -0.115767 -0.115358 -0.11495 -0.114559 -0.11417 -0.113783 -0.113356 -0.11293 -0.112504 -0.112089 -0.111686 -0.111241 -0.110798 -0.110354 -0.109909 -0.109472 -0.109401 -0.109332 -0.109262 -0.109194 -0.109126 -0.108739 -0.108352 -0.107964 -0.107575 -0.107188 -0.106693 -0.106216 -0.105741 -0.105266 -0.104791 -0.104276 -0.103761 -0.10326 -0.102767 -0.102276 -0.101744 -0.10121 -0.100675 -0.100149 -0.0996385 -0.0990874 -0.0985352 -0.0979828 -0.0974299 -0.0968822 -0.0968128 -0.0967413 -0.0966698 -0.0965973 -0.0965248 -0.0960276 -0.0955311 -0.0950344 -0.0945374 -0.0940429 -0.0934275 -0.0928412 -0.0922557 -0.0916699 -0.0910881 -0.0904542 -0.0898209 -0.0892106 -0.0886059 -0.0880038 -0.0873509 -0.0866999 -0.0860487 -0.0854169 -0.0847994 -0.0841283 -0.0834579 -0.0827873 -0.0821164 -0.0814644 -0.0811306 -0.0807993 -0.0804679 -0.0801365 -0.0798067 -0.0794541 -0.0791018 -0.0787495 -0.078397 -0.0780454 -0.0773287 -0.0766287 -0.0759284 -0.075228 -0.0745273 -0.0737772 -0.0730391 -0.0723225 -0.0716057 -0.0708901 -0.0701224 -0.0693527 -0.0685929 -0.0678572 -0.0671204 -0.0663319 -0.0655435 -0.0647552 -0.0639753 -0.0632228 -0.0624176 -0.0616104 -0.0608032 -0.059996 -0.0591943 -0.0590268 -0.0588593 -0.0586919 -0.0585244 -0.0583569 -0.0576962 -0.0570373 -0.0563785 -0.0557197 -0.0550625 -0.0541854 -0.0533406 -0.052496 -0.0516515 -0.0508055 -0.0498963 -0.0489959 -0.0481299 -0.047264 -0.0463979 -0.0454719 -0.0445458 -0.043627 -0.0427435 -0.0418572 -0.0409069 -0.0399582 -0.03901 -0.0380689 -0.0371617 -0.0361946 -0.0352276 -0.0342612 -0.0332953 -0.0323313 -0.0321743 -0.0320179 -0.0318616 -0.0317057 -0.0315501 -0.0307169 -0.0298837 -0.0290509 -0.0282186 -0.0273817 -0.0263339 -0.0253253 -0.0243174 -0.0233104 -0.0222947 -0.021216 -0.0201446 -0.019115 -0.0180862 -0.0170478 -0.0159484 -0.0148491 -0.0137568 -0.012708 -0.0116471 -0.0105241 -0.00940182 -0.00828088 -0.00716541 -0.00608108 -0.00493664 -0.0037926 -0.00265009 -0.00150912 -0.000353048 -0.000309911 -0.000266277 -0.000222645 -0.000179016 -0.000135441 0.000989936 0.00211282 0.00323407 0.00435371 0.00548968 0.00673455 0.00792538 0.00911237 0.0102974 0.011504 0.012774 0.0140408 0.0152589 0.0164671 0.0176999 0.0189935 0.0202843 0.0215723 0.0228189 0.0240786 0.0253976 0.0267133 0.0280259 0.0293355 0.0306488 0.0312494 0.0318494 0.0324488 0.0330475 0.0336343 0.0343815 0.035128 0.0358736 0.0366181 0.0373749 0.0387858 0.040152 0.0415145 0.0428735 0.044276 0.0457326 0.0471846 0.0485739 0.0499592 0.0513939 0.05288 0.0543619 0.0558391 0.0572733 0.0587412 0.060257 0.0617685 0.0632749 0.0647763 0.0663267 0.0665647 0.0668033 0.0670418 0.0672804 0.0675176 0.0688294 0.0701368 0.0714403 0.0727399 0.0740878 0.0757339 0.0773287 0.0788989 0.0804634 0.0821026 0.0837824 0.0854549 0.0871165 0.0887132 0.0903914 0.0921096 0.0938205 0.0955243 0.0972209 0.0989878 0.0993143 0.0996401 0.0999658 0.100291 0.100614 0.10205 0.103483 0.10491 0.106332 0.10782 0.109697 0.111536 0.11333 0.115116 0.117012 0.118933 0.120846 0.122749 0.124618 0.126562 0.127848 0.129129 0.130407 0.13168 0.132923 0.133604 0.134283 0.134961 0.135637 0.136328 0.138375 0.140356 0.142328 0.14429 0.146386 0.148607 0.150819 0.15302 0.155156 0.157429 0.159016 0.160593 0.162165 0.163731 0.165259 0.16602 0.166776 0.16753 0.168282 0.169049 0.171406 0.173671 0.175921 0.178154 0.180622 0.182478 0.184329 0.186172 0.188008 0.189795 0.191464 0.193128 0.194786 0.196438 0.198226 0.20005 0.201865 0.203673 0.205472 0.207225 0.209264 0.211287 0.213299 0.2153 0.217533 0.218796 0.220048 0.221296 0.22254 0.223759 0.22636 0.228922 0.231458 0.23397 0.236917 0.237139 0.237339 0.23754 0.23774 0.237919 0.239906 0.241843 0.243749 0.245625 0.247397 0.247829 0.248222 0.248608 0.248988 0.249369 0.249703 0.249996 0.250282 0.250561 0.250795 0.250249 0.249641 0.249005 0.248405 0.247787 0.24725 0.246677 0.246102 0.245523 0.24485 0.243695 0.242504 0.241307 0.240103 0.238875 0.2362 0.233485 0.230811 0.22815 0.225484 0.2224 0.219286 0.21616 0.213022 0.209184 0.209108 0.209025 0.208941 0.208856 0.208772 0.205201 0.201612 0.198016 0.194414 0.190817 0.186994 0.183159 0.179332 0.175499 0.171672 0.16784 0.163997 0.160149 0.15629 0.152434 0.148684 0.144925 0.141162 0.137396 0.133603 0.130431 0.127252 0.124069 0.120885 0.116552 0.116351 0.116149 0.115947 0.115745 0.11554 0.112099 0.10865 0.1052 0.101748 0.0982963 0.0951881 0.091989 0.0887883 0.0855859 0.0823818 0.0797142 0.0768432 0.0739311 0.0710172 0.0681017 0.0659136 0.0635514 0.0609662 0.058379 0.05579 0.0541641 0.0524721 0.050252 0.0480297 0.0458068 0.0447881 0.0437661 0.0420688 0.0402343 0.0383975 0.0378214 0.0372294 0.03605 0.0344689 0.0328737 0.032243 0.0315706 0.0304999 0.0287987 0.0270582 0.0254142 0.023679 0.0217693 0.0192077 0.0165582 0.0121093 0.00748092 0.0028298 -0.00205755 -0.00712007 -0.0172141 -0.0276123 -0.0380201 -0.0477022 -0.0576401 -0.077114 -0.0970429 -0.116978 -0.135152 -0.153505 -0.186306 -0.219693 -0.253081 -0.283997 -0.314953 -0.363335 -0.412335 -0.461335 -0.50788 -0.554357 -0.616672 -0.67949 -0.742317 -0.803616 -0.864812 -0.93617 -1.00784 -1.07953 -1.15119 -1.22315 -1.29917 -1.37535 -1.45154 -1.52872 -1.60775 -1.6844 -1.761 -1.8376 -1.91456 -1.99632 -2.06444 -2.13212 -2.19981 -2.2675 -2.33945 -2.39072 -2.44153 -2.49236 -2.54321 -2.59572 -2.63521 -2.67466 -2.71415 -2.75369 -2.79349 -2.80787 -2.82178 -2.8357 -2.84944 -2.86926 -2.88013 -2.891 -2.90188 -2.91271 -2.92294 -2.93345 -2.94389 -2.95437 -2.96491 -2.9753 -2.97845 -2.98159 -2.98478 -2.98802 -2.9912