# vtk DataFile Version 2.0
track0
ASCII
DATASET POLYDATA
POINTS 12100 float
-0.0205 0.001 1e-05
-0.0204952 0.0011 1e-05
-0.0204902 0.00119999 1e-05
-0.0204851 0.00129998 1e-05
-0.0204798 0.00139995 1e-05
-0.0204744 0.0015 1e-05
-0.0204687 0.0016 1e-05
-0.0204629 0.00169999 1e-05
-0.0204569 0.00179996 1e-05
-0.0204506 0.00189993 1e-05
-0.0204442 0.002 1e-05
-0.0204375 0.0021 1e-05
-0.0204306 0.00219998 1e-05
-0.0204235 0.00229995 1e-05
-0.0204162 0.0023999 1e-05
-0.0204086 0.0025 1e-05
-0.0204008 0.0026 1e-05
-0.0203927 0.00269998 1e-05
-0.0203844 0.00279994 1e-05
-0.0203758 0.00289988 1e-05
-0.020367 0.003 1e-05
-0.020358 0.0031 1e-05
-0.0203487 0.00319998 1e-05
-0.0203391 0.00329993 1e-05
-0.0203293 0.00339986 1e-05
-0.0203192 0.0035 1e-05
-0.0203125 0.00356548 1e-05
-0.0203056 0.00363095 1e-05
-0.0202986 0.00369641 1e-05
-0.0202915 0.00376185 1e-05
-0.0202854 0.00381719 1e-05
-0.0202813 0.00385375 1e-05
-0.0202772 0.00389031 1e-05
-0.020273 0.00392686 1e-05
-0.0202689 0.00396341 1e-05
-0.0202646 0.004 1e-05
-0.020253 0.0041 1e-05
-0.0202411 0.00419997 1e-05
-0.0202289 0.00429991 1e-05
-0.0202165 0.00439981 1e-05
-0.0202037 0.0045 1e-05
-0.0201907 0.0046 1e-05
-0.0201775 0.00469997 1e-05
-0.020164 0.00479989 1e-05
-0.0201502 0.00489979 1e-05
-0.0201361 0.005 1e-05
-0.0201217 0.0051 1e-05
-0.0201071 0.00519996 1e-05
-0.0200922 0.00529988 1e-05
-0.0200771 0.00539976 1e-05
-0.0200616 0.0055 1e-05
-0.0200537 0.00554996 1e-05
-0.0200458 0.0055999 1e-05
-0.0200378 0.00564984 1e-05
-0.0200298 0.00569977 1e-05
-0.0200223 0.00574552 1e-05
-0.020014 0.00579642 1e-05
-0.0200055 0.0058473 1e-05
-0.0199971 0.00589817 1e-05
-0.0199885 0.00594903 1e-05
-0.0199798 0.006 1e-05
-0.0199627 0.0061 1e-05
-0.0199453 0.00619995 1e-05
-0.0199277 0.00629986 1e-05
-0.0199097 0.00639971 1e-05
-0.0198914 0.0065 1e-05
-0.0198729 0.0066 1e-05
-0.0198541 0.00669995 1e-05
-0.019835 0.00679984 1e-05
-0.0198156 0.00689969 1e-05
-0.0197959 0.007 1e-05
-0.019789 0.00703455 1e-05
-0.019782 0.0070691 1e-05
-0.0197751 0.00710364 1e-05
-0.0197681 0.00713817 1e-05
-0.0197614 0.00717106 1e-05
-0.0197479 0.00723685 1e-05
-0.0197343 0.00730261 1e-05
-0.0197206 0.00736835 1e-05
-0.0197068 0.00743406 1e-05
-0.0196928 0.0075 1e-05
-0.0196713 0.0076 1e-05
-0.0196496 0.00769994 1e-05
-0.0196276 0.00779982 1e-05
-0.0196053 0.00789963 1e-05
-0.0195826 0.008 1e-05
-0.0195666 0.00806985 1e-05
-0.0195504 0.00813967 1e-05
-0.0195341 0.00820946 1e-05
-0.0195177 0.00827921 1e-05
-0.0195025 0.00834306 1e-05
-0.019495 0.00837444 1e-05
-0.0194874 0.00840583 1e-05
-0.0194799 0.0084372 1e-05
-0.0194722 0.00846857 1e-05
-0.0194646 0.0085 1e-05
-0.0194402 0.0086 1e-05
-0.0194154 0.00869993 1e-05
-0.0193904 0.00879978 1e-05
-0.0193651 0.00889957 1e-05
-0.0193393 0.009 1e-05
-0.0193206 0.00907198 1e-05
-0.0193017 0.00914392 1e-05
-0.0192827 0.00921582 1e-05
-0.0192635 0.00928768 1e-05
-0.0192457 0.00935385 1e-05
-0.0192378 0.00938308 1e-05
-0.0192299 0.0094123 1e-05
-0.0192219 0.00944152 1e-05
-0.0192139 0.00947073 1e-05
-0.0192059 0.0095 1e-05
-0.0191783 0.0096 1e-05
-0.0191504 0.00969992 1e-05
-0.0191222 0.00979975 1e-05
-0.0190938 0.0098995 1e-05
-0.0190648 0.01 1e-05
-0.01905 0.0100505 1e-05
-0.0190352 0.0101011 1e-05
-0.0190203 0.0101515 1e-05
-0.0190053 0.010202 1e-05
-0.018991 0.0102499 1e-05
-0.018976 0.0102999 1e-05
-0.0189609 0.0103499 1e-05
-0.0189458 0.0103999 1e-05
-0.0189306 0.0104498 1e-05
-0.0189152 0.0105 1e-05
-0.0188843 0.0106 1e-05
-0.0188532 0.0106999 1e-05
-0.0188218 0.0107997 1e-05
-0.01879 0.0108994 1e-05
-0.0187576 0.011 1e-05
-0.0187538 0.0110118 1e-05
-0.0187499 0.0110237 1e-05
-0.0187461 0.0110355 1e-05
-0.0187422 0.0110474 1e-05
-0.0187384 0.0110591 1e-05
-0.0187095 0.0111473 1e-05
-0.0186804 0.0112354 1e-05
-0.0186511 0.0113234 1e-05
-0.0186215 0.0114113 1e-05
-0.0185914 0.0115 1e-05
-0.0185707 0.0115605 1e-05
-0.0185499 0.011621 1e-05
-0.0185289 0.0116815 1e-05
-0.0185078 0.0117419 1e-05
-0.0184878 0.011799 1e-05
-0.0184736 0.0118392 1e-05
-0.0184593 0.0118794 1e-05
-0.018445 0.0119195 1e-05
-0.0184307 0.0119597 1e-05
-0.0184162 0.012 1e-05
-0.0183808 0.0120983 1e-05
-0.0183451 0.0121965 1e-05
-0.0183091 0.0122946 1e-05
-0.0182727 0.0123926 1e-05
-0.0182392 0.0124823 1e-05
-0.0182378 0.0124858 1e-05
-0.0182365 0.0124894 1e-05
-0.0182352 0.0124929 1e-05
-0.0182338 0.0124964 1e-05
-0.0182325 0.0125 1e-05
-0.0181946 0.0126 1e-05
-0.0181565 0.0126999 1e-05
-0.018118 0.0127996 1e-05
-0.0180792 0.0128993 1e-05
-0.0180396 0.013 1e-05
-0.0180302 0.0130237 1e-05
-0.0180208 0.0130474 1e-05
-0.0180113 0.013071 1e-05
-0.0180019 0.0130947 1e-05
-0.0179926 0.0131179 1e-05
-0.0179619 0.0131943 1e-05
-0.017931 0.0132706 1e-05
-0.0179 0.0133469 1e-05
-0.0178687 0.0134231 1e-05
-0.0178369 0.0135 1e-05
-0.0178192 0.0135428 1e-05
-0.0178013 0.0135855 1e-05
-0.0177834 0.0136282 1e-05
-0.0177654 0.0136709 1e-05
-0.017748 0.0137121 1e-05
-0.0177235 0.0137697 1e-05
-0.017699 0.0138272 1e-05
-0.0176743 0.0138847 1e-05
-0.0176496 0.0139421 1e-05
-0.0176245 0.014 1e-05
-0.0176007 0.0140547 1e-05
-0.0175767 0.0141093 1e-05
-0.0175527 0.0141639 1e-05
-0.0175286 0.0142184 1e-05
-0.0175053 0.0142707 1e-05
-0.0174849 0.0143165 1e-05
-0.0174643 0.0143624 1e-05
-0.0174437 0.0144082 1e-05
-0.017423 0.0144539 1e-05
-0.017402 0.0145 1e-05
-0.0173746 0.0145602 1e-05
-0.017347 0.0146204 1e-05
-0.0173192 0.0146806 1e-05
-0.0172914 0.0147406 1e-05
-0.0172647 0.014798 1e-05
-0.0172457 0.0148384 1e-05
-0.0172268 0.0148788 1e-05
-0.0172077 0.0149191 1e-05
-0.0171886 0.0149594 1e-05
-0.0171694 0.015 1e-05
-0.0171407 0.0150602 1e-05
-0.0171119 0.0151202 1e-05
-0.0170829 0.0151803 1e-05
-0.0170539 0.0152402 1e-05
-0.0170259 0.0152976 1e-05
-0.0170061 0.0153381 1e-05
-0.0169862 0.0153785 1e-05
-0.0169663 0.015419 1e-05
-0.0169463 0.0154594 1e-05
-0.0169261 0.0155 1e-05
-0.0168987 0.015555 1e-05
-0.0168712 0.0156099 1e-05
-0.0168436 0.0156648 1e-05
-0.0168159 0.0157196 1e-05
-0.0167891 0.0157723 1e-05
-0.0167659 0.0158178 1e-05
-0.0167425 0.0158633 1e-05
-0.0167192 0.0159088 1e-05
-0.0166957 0.0159542 1e-05
-0.016672 0.016 1e-05
-0.0166484 0.0160453 1e-05
-0.0166248 0.0160905 1e-05
-0.0166011 0.0161357 1e-05
-0.0165773 0.0161808 1e-05
-0.0165542 0.0162246 1e-05
-0.016525 0.0162796 1e-05
-0.0164956 0.0163347 1e-05
-0.0164662 0.0163897 1e-05
-0.0164366 0.0164446 1e-05
-0.0164066 0.0165 1e-05
-0.0163895 0.0165315 1e-05
-0.0163724 0.0165629 1e-05
-0.0163553 0.0165943 1e-05
-0.0163381 0.0166257 1e-05
-0.0163212 0.0166565 1e-05
-0.0162833 0.0167252 1e-05
-0.0162453 0.0167938 1e-05
-0.0162072 0.0168623 1e-05
-0.0161688 0.0169307 1e-05
-0.0161298 0.017 1e-05
-0.0161219 0.017014 1e-05
-0.0161139 0.0170281 1e-05
-0.0161059 0.0170421 1e-05
-0.0160979 0.0170561 1e-05
-0.01609 0.01707 1e-05
-0.0160442 0.0171505 1e-05
-0.0159981 0.0172308 1e-05
-0.0159518 0.0173109 1e-05
-0.0159052 0.0173909 1e-05
-0.0158607 0.0174668 1e-05
-0.0158568 0.0174735 1e-05
-0.0158529 0.0174801 1e-05
-0.015849 0.0174867 1e-05
-0.0158451 0.0174934 1e-05
-0.0158412 0.0175 1e-05
-0.0157996 0.0175703 1e-05
-0.0157579 0.0176406 1e-05
-0.0157159 0.0177107 1e-05
-0.0156738 0.0177807 1e-05
-0.0156333 0.0178476 1e-05
-0.0156148 0.0178781 1e-05
-0.0155962 0.0179086 1e-05
-0.0155776 0.017939 1e-05
-0.0155589 0.0179694 1e-05
-0.0155401 0.018 1e-05
-0.0155137 0.018043 1e-05
-0.0154871 0.0180859 1e-05
-0.0154605 0.0181289 1e-05
-0.0154338 0.0181717 1e-05
-0.0154077 0.0182134 1e-05
-0.0153718 0.0182708 1e-05
-0.0153357 0.018328 1e-05
-0.0152995 0.0183852 1e-05
-0.0152632 0.0184422 1e-05
-0.0152263 0.0185 1e-05
-0.0152178 0.0185132 1e-05
-0.0152094 0.0185264 1e-05
-0.0152009 0.0185396 1e-05
-0.0151924 0.0185528 1e-05
-0.0151839 0.0185659 1e-05
-0.0151395 0.0186347 1e-05
-0.015095 0.0187034 1e-05
-0.0150502 0.0187719 1e-05
-0.0150053 0.0188404 1e-05
-0.0149619 0.018906 1e-05
-0.0149495 0.0189248 1e-05
-0.014937 0.0189436 1e-05
-0.0149245 0.0189624 1e-05
-0.014912 0.0189812 1e-05
-0.0148994 0.019 1e-05
-0.0148679 0.0190472 1e-05
-0.0148363 0.0190943 1e-05
-0.0148046 0.0191413 1e-05
-0.0147728 0.0191883 1e-05
-0.0147417 0.019234 1e-05
-0.0147055 0.0192872 1e-05
-0.0146691 0.0193403 1e-05
-0.0146327 0.0193934 1e-05
-0.0145961 0.0194464 1e-05
-0.0145589 0.0195 1e-05
-0.0145518 0.0195102 1e-05
-0.0145447 0.0195205 1e-05
-0.0145376 0.0195307 1e-05
-0.0145304 0.0195409 1e-05
-0.0145233 0.019551 1e-05
-0.01448 0.019613 1e-05
-0.0144365 0.0196749 1e-05
-0.0143929 0.0197367 1e-05
-0.0143491 0.0197984 1e-05
-0.0143067 0.0198579 1e-05
-0.0142863 0.0198863 1e-05
-0.0142659 0.0199147 1e-05
-0.0142455 0.0199431 1e-05
-0.014225 0.0199715 1e-05
-0.0142044 0.02 1e-05
-0.0141819 0.0200311 1e-05
-0.0141593 0.0200622 1e-05
-0.0141367 0.0200932 1e-05
-0.0141141 0.0201242 1e-05
-0.0140917 0.0201547 1e-05
-0.0140491 0.0202128 1e-05
-0.0140063 0.0202708 1e-05
-0.0139635 0.0203287 1e-05
-0.0139204 0.0203866 1e-05
-0.0138786 0.0204426 1e-05
-0.0138699 0.0204541 1e-05
-0.0138613 0.0204655 1e-05
-0.0138527 0.020477 1e-05
-0.013844 0.0204885 1e-05
-0.0138354 0.0205 1e-05
-0.0138017 0.0205446 1e-05
-0.013768 0.0205892 1e-05
-0.0137342 0.0206337 1e-05
-0.0137003 0.0206782 1e-05
-0.0136671 0.0207216 1e-05
-0.0136251 0.0207762 1e-05
-0.0135831 0.0208308 1e-05
-0.0135409 0.0208853 1e-05
-0.0134986 0.0209397 1e-05
-0.0134573 0.0209926 1e-05
-0.0134562 0.020994 1e-05
-0.013455 0.0209955 1e-05
-0.0134538 0.020997 1e-05
-0.0134527 0.0209985 1e-05
-0.0134515 0.021 1e-05
-0.013411 0.0210516 1e-05
-0.0133705 0.021103 1e-05
-0.0133298 0.0211544 1e-05
-0.0132891 0.0212057 1e-05
-0.0132493 0.0212557 1e-05
-0.0132101 0.0213046 1e-05
-0.0131709 0.0213534 1e-05
-0.0131316 0.0214021 1e-05
-0.0130923 0.0214507 1e-05
-0.0130522 0.0215 1e-05
-0.0130503 0.0215023 1e-05
-0.0130485 0.0215046 1e-05
-0.0130466 0.0215069 1e-05
-0.0130447 0.0215092 1e-05
-0.0130429 0.0215114 1e-05
-0.0130019 0.0215616 1e-05
-0.0129609 0.0216116 1e-05
-0.0129197 0.0216616 1e-05
-0.0128785 0.0217115 1e-05
-0.0128381 0.0217602 1e-05
-0.0127982 0.0218081 1e-05
-0.0127582 0.021856 1e-05
-0.012718 0.0219039 1e-05
[...]
POINT_DATA 12100
 FIELD attributes 1
U 3 12100 float
-0.0150558 	-0.314099 	0 -0.0155768 	-0.31407 	0 -0.0160982 	-0.314039 	0 -0.0166194 	-0.314008 	0 -0.0171405 	-0.313975 	0 -0.0176658 	-0.313941 	0 -0.0183097 	-0.313903 	0 -0.0189546 	-0.313864 	0 -0.0195971 	-0.313824 	0 -0.0202395 	-0.313781 	0 -0.0208852 	-0.313738 	0 -0.0216075 	-0.313691 	0 -0.0223312 	-0.313642 	0 -0.0230522 	-0.313592 	0 -0.0237721 	-0.313539 	0 -0.0244946 	-0.313485 	0 -0.0252634 	-0.313422 	0 -0.026033 	-0.313357 	0 -0.0268024 	-0.313291 	0 -0.0275689 	-0.313222 	0 -0.0283371 	-0.313152 	0 -0.0291325 	-0.313072 	0 -0.0299283 	-0.312991 	0 -0.0307239 	-0.312908 	0 -0.0315193 	-0.312824 	0 -0.0323147 	-0.312736 	0 -0.0328453 	-0.312674 	0 -0.0333762 	-0.312611 	0 -0.0339071 	-0.312548 	0 -0.0344379 	-0.312484 	0 -0.034887 	-0.312429 	0 -0.0351835 	-0.312392 	0 -0.0354802 	-0.312355 	0 -0.035777 	-0.312318 	0 -0.0360737 	-0.31228 	0 -0.036371 	-0.312242 	0 -0.0371928 	-0.312133 	0 -0.0380132 	-0.312022 	0 -0.0388335 	-0.311908 	0 -0.0396536 	-0.311793 	0 -0.0404764 	-0.311676 	0 -0.0413057 	-0.311553 	0 -0.042135 	-0.311428 	0 -0.0429618 	-0.3113 	0 -0.0437882 	-0.311171 	0 -0.0446175 	-0.311039 	0 -0.0454519 	-0.310901 	0 -0.0462863 	-0.310761 	0 -0.0471204 	-0.31062 	0 -0.0479542 	-0.310477 	0 -0.048789 	-0.31033 	0 -0.0492081 	-0.310254 	0 -0.0496274 	-0.310177 	0 -0.0500465 	-0.3101 	0 -0.0504656 	-0.310023 	0 -0.0508499 	-0.309951 	0 -0.0512775 	-0.309871 	0 -0.0517051 	-0.309791 	0 -0.0521327 	-0.30971 	0 -0.0525602 	-0.309629 	0 -0.0529887 	-0.309547 	0 -0.0538355 	-0.309381 	0 -0.0546805 	-0.309212 	0 -0.0555248 	-0.309041 	0 -0.0563689 	-0.308868 	0 -0.0572169 	-0.308693 	0 -0.0580687 	-0.308513 	0 -0.0589203 	-0.30833 	0 -0.0597717 	-0.308146 	0 -0.0606226 	-0.307961 	0 -0.061476 	-0.307771 	0 -0.0617721 	-0.307703 	0 -0.0620682 	-0.307636 	0 -0.0623644 	-0.307568 	0 -0.0626605 	-0.3075 	0 -0.0629426 	-0.307435 	0 -0.0635071 	-0.307304 	0 -0.0640716 	-0.307173 	0 -0.064636 	-0.307041 	0 -0.0652003 	-0.306908 	0 -0.0657667 	-0.306774 	0 -0.066632 	-0.306566 	0 -0.0674972 	-0.306356 	0 -0.0683607 	-0.306143 	0 -0.0692234 	-0.305928 	0 -0.0700912 	-0.30571 	0 -0.0706999 	-0.305554 	0 -0.0713084 	-0.305398 	0 -0.0719169 	-0.30524 	0 -0.0725251 	-0.305082 	0 -0.073082 	-0.304936 	0 -0.0733559 	-0.304865 	0 -0.0736299 	-0.304792 	0 -0.0739039 	-0.30472 	0 -0.0741778 	-0.304648 	0 -0.0744524 	-0.304575 	0 -0.0753325 	-0.304339 	0 -0.0762115 	-0.304101 	0 -0.0770894 	-0.30386 	0 -0.0779669 	-0.303617 	0 -0.0788505 	-0.303371 	0 -0.0794889 	-0.303191 	0 -0.0801271 	-0.30301 	0 -0.0807652 	-0.302828 	0 -0.081403 	-0.302645 	0 -0.0819906 	-0.302476 	0 -0.0822502 	-0.302401 	0 -0.08251 	-0.302326 	0 -0.0827697 	-0.30225 	0 -0.0830293 	-0.302175 	0 -0.0832897 	-0.302099 	0 -0.084186 	-0.301836 	0 -0.0850815 	-0.30157 	0 -0.0859755 	-0.301302 	0 -0.0868692 	-0.301033 	0 -0.0877699 	-0.300759 	0 -0.0882266 	-0.300619 	0 -0.0886833 	-0.300478 	0 -0.0891399 	-0.300337 	0 -0.0895964 	-0.300195 	0 -0.0900295 	-0.300061 	0 -0.0904823 	-0.29992 	0 -0.0909351 	-0.299778 	0 -0.0913877 	-0.299636 	0 -0.0918403 	-0.299494 	0 -0.0922949 	-0.29935 	0 -0.0932086 	-0.29906 	0 -0.0941219 	-0.298768 	0 -0.0950347 	-0.298475 	0 -0.0959468 	-0.298179 	0 -0.0968663 	-0.297878 	0 -0.0969753 	-0.297842 	0 -0.0970846 	-0.297806 	0 -0.0971938 	-0.29777 	0 -0.097303 	-0.297734 	0 -0.0974111 	-0.297698 	0 -0.098225 	-0.297429 	0 -0.0990387 	-0.297159 	0 -0.0998519 	-0.296887 	0 -0.100665 	-0.296614 	0 -0.101484 	-0.296337 	0 -0.102049 	-0.296145 	0 -0.102613 	-0.295953 	0 -0.103178 	-0.29576 	0 -0.103742 	-0.295566 	0 -0.104275 	-0.295383 	0 -0.10465 	-0.295253 	0 -0.105026 	-0.295123 	0 -0.105402 	-0.294993 	0 -0.105777 	-0.294863 	0 -0.106154 	-0.294731 	0 -0.107082 	-0.294408 	0 -0.108009 	-0.294083 	0 -0.108935 	-0.293756 	0 -0.109861 	-0.293427 	0 -0.110708 	-0.293125 	0 -0.110742 	-0.293113 	0 -0.110775 	-0.293101 	0 -0.110809 	-0.293089 	0 -0.110843 	-0.293076 	0 -0.110876 	-0.293064 	0 -0.111831 	-0.292723 	0 -0.112784 	-0.292379 	0 -0.113737 	-0.292033 	0 -0.114688 	-0.291686 	0 -0.115651 	-0.291332 	0 -0.11588 	-0.291248 	0 -0.116108 	-0.291164 	0 -0.116337 	-0.29108 	0 -0.116565 	-0.290995 	0 -0.116789 	-0.290912 	0 -0.117527 	-0.29064 	0 -0.118265 	-0.290366 	0 -0.119002 	-0.290092 	0 -0.119739 	-0.289816 	0 -0.120483 	-0.289536 	0 -0.120901 	-0.289379 	0 -0.121318 	-0.289222 	0 -0.121736 	-0.289064 	0 -0.122153 	-0.288907 	0 -0.122556 	-0.288754 	0 -0.123119 	-0.28854 	0 -0.123682 	-0.288326 	0 -0.124245 	-0.288112 	0 -0.124807 	-0.287896 	0 -0.125374 	-0.287679 	0 -0.125914 	-0.287472 	0 -0.126455 	-0.287264 	0 -0.126995 	-0.287056 	0 -0.127535 	-0.286847 	0 -0.128052 	-0.286646 	0 -0.128506 	-0.28647 	0 -0.12896 	-0.286294 	0 -0.129414 	-0.286117 	0 -0.129868 	-0.28594 	0 -0.130325 	-0.285761 	0 -0.130928 	-0.285526 	0 -0.131531 	-0.28529 	0 -0.132133 	-0.285053 	0 -0.132735 	-0.284816 	0 -0.13331 	-0.284588 	0 -0.133715 	-0.284428 	0 -0.134121 	-0.284268 	0 -0.134525 	-0.284107 	0 -0.13493 	-0.283946 	0 -0.135338 	-0.283784 	0 -0.135947 	-0.283542 	0 -0.136557 	-0.2833 	0 -0.137166 	-0.283056 	0 -0.137775 	-0.282812 	0 -0.138357 	-0.282578 	0 -0.138768 	-0.282413 	0 -0.139179 	-0.282248 	0 -0.13959 	-0.282082 	0 -0.14 	-0.281916 	0 -0.140414 	-0.281749 	0 -0.140978 	-0.281522 	0 -0.141543 	-0.281294 	0 -0.142107 	-0.281065 	0 -0.14267 	-0.280836 	0 -0.143212 	-0.280615 	0 -0.14368 	-0.280425 	0 -0.144149 	-0.280234 	0 -0.144617 	-0.280042 	0 -0.145084 	-0.279851 	0 -0.145556 	-0.279657 	0 -0.146026 	-0.279465 	0 -0.146497 	-0.279272 	0 -0.146967 	-0.279079 	0 -0.147437 	-0.278886 	0 -0.147893 	-0.278698 	0 -0.148467 	-0.278462 	0 -0.14904 	-0.278225 	0 -0.149613 	-0.277988 	0 -0.150186 	-0.277751 	0 -0.150764 	-0.27751 	0 -0.151096 	-0.277373 	0 -0.151427 	-0.277235 	0 -0.151758 	-0.277098 	0 -0.15209 	-0.27696 	0 -0.152414 	-0.276825 	0 -0.153139 	-0.276524 	0 -0.153863 	-0.276223 	0 -0.154586 	-0.275921 	0 -0.155309 	-0.275618 	0 -0.156041 	-0.27531 	0 -0.156191 	-0.275247 	0 -0.156341 	-0.275184 	0 -0.156491 	-0.275121 	0 -0.156641 	-0.275058 	0 -0.156789 	-0.274996 	0 -0.157648 	-0.274637 	0 -0.158507 	-0.274277 	0 -0.159364 	-0.273916 	0 -0.16022 	-0.273554 	0 -0.161032 	-0.273208 	0 -0.161103 	-0.273177 	0 -0.161174 	-0.273147 	0 -0.161245 	-0.273117 	0 -0.161316 	-0.273087 	0 -0.161387 	-0.273056 	0 -0.162148 	-0.272736 	0 -0.162908 	-0.272414 	0 -0.163667 	-0.272091 	0 -0.164425 	-0.271767 	0 -0.16515 	-0.271457 	0 -0.16548 	-0.271316 	0 -0.16581 	-0.271175 	0 -0.16614 	-0.271034 	0 -0.166469 	-0.270892 	0 -0.166801 	-0.270749 	0 -0.167273 	-0.270549 	0 -0.167744 	-0.270348 	0 -0.168214 	-0.270146 	0 -0.168684 	-0.269945 	0 -0.169143 	-0.269748 	0 -0.169771 	-0.269479 	0 -0.170399 	-0.269209 	0 -0.171027 	-0.268939 	0 -0.171654 	-0.268669 	0 -0.172288 	-0.268394 	0 -0.172435 	-0.268331 	0 -0.172582 	-0.268268 	0 -0.172728 	-0.268205 	0 -0.172875 	-0.268142 	0 -0.173021 	-0.268079 	0 -0.173785 	-0.267752 	0 -0.174548 	-0.267425 	0 -0.17531 	-0.267094 	0 -0.17607 	-0.266763 	0 -0.176801 	-0.266444 	0 -0.177009 	-0.266353 	0 -0.177218 	-0.266262 	0 -0.177427 	-0.266171 	0 -0.177635 	-0.26608 	0 -0.177845 	-0.265988 	0 -0.178375 	-0.265759 	0 -0.178905 	-0.26553 	0 -0.179434 	-0.2653 	0 -0.179963 	-0.265069 	0 -0.180478 	-0.264844 	0 -0.181077 	-0.264585 	0 -0.181674 	-0.264324 	0 -0.182272 	-0.264063 	0 -0.182868 	-0.263802 	0 -0.183473 	-0.263537 	0 -0.183589 	-0.263486 	0 -0.183706 	-0.263435 	0 -0.183822 	-0.263384 	0 -0.183939 	-0.263334 	0 -0.184055 	-0.263283 	0 -0.184761 	-0.262978 	0 -0.185466 	-0.26267 	0 -0.186169 	-0.262361 	0 -0.186872 	-0.262052 	0 -0.187551 	-0.261751 	0 -0.187874 	-0.261609 	0 -0.188198 	-0.261467 	0 -0.188521 	-0.261324 	0 -0.188844 	-0.261181 	0 -0.189169 	-0.261037 	0 -0.189528 	-0.26088 	0 -0.189886 	-0.260723 	0 -0.190244 	-0.260566 	0 -0.190602 	-0.260409 	0 -0.190954 	-0.260254 	0 -0.191624 	-0.259961 	0 -0.192293 	-0.259668 	0 -0.192961 	-0.259374 	0 -0.193628 	-0.259078 	0 -0.194274 	-0.258789 	0 -0.194406 	-0.258731 	0 -0.194538 	-0.258672 	0 -0.19467 	-0.258613 	0 -0.194802 	-0.258554 	0 -0.194935 	-0.258495 	0 -0.195456 	-0.258266 	0 -0.195976 	-0.258037 	0 -0.196495 	-0.257807 	0 -0.197014 	-0.257577 	0 -0.197521 	-0.257352 	0 -0.198158 	-0.257071 	0 -0.198794 	-0.25679 	0 -0.19943 	-0.256508 	0 -0.200064 	-0.256225 	0 -0.200681 	-0.255949 	0 -0.200699 	-0.255941 	0 -0.200716 	-0.255934 	0 -0.200733 	-0.255926 	0 -0.200751 	-0.255918 	0 -0.200768 	-0.25591 	0 -0.201375 	-0.255642 	0 -0.201982 	-0.255373 	0 -0.202589 	-0.255103 	0 -0.203194 	-0.254833 	0 -0.203784 	-0.254569 	0 -0.204359 	-0.254314 	0 -0.204934 	-0.254058 	0 -0.205508 	-0.253801 	0 -0.206081 	-0.253544 	0 -0.206663 	-0.253283 	0 -0.20669 	-0.253271 	0 -0.206717 	-0.253259 	0 -0.206745 	-0.253247 	0 -0.206772 	-0.253235 	0 -0.2068 	-0.253223 	0 -0.207397 	-0.252958 	0 -0.207993 	-0.252692 	0 -0.208588 	-0.252426 	0 -0.209183 	-0.252159 	0 -0.209763 	-0.251898 	0 -0.210334 	-0.251643 	0 -0.210904 	-0.251388 	0 -0.211473 	-0.251133 	0 -0.212041 	-0.250877 	0 -0.212617 	-0.250617 	0 -0.212623 	-0.250615 	0 -0.212628 	-0.250612 	0 -0.212634 	-0.25061 	0 -0.212639 	-0.250607 	0 -0.212644 	-0.250605 	0 -0.213215 	-0.25035 	0 -0.213785 	-0.250095 	0 -0.214355 	-0.249839 	0 -0.214923 	-0.249583 	0 -0.21548 	-0.249332 	0 -0.216035 	-0.249083 	0 -0.216589 	-0.248834 	0 -0.217143 	-0.248585 	0 -0.217696 	-0.248335 	0 -0.218237 	-0.248088 	0 -0.218314 	-0.248053 	0 -0.218392 	-0.248017 	0 -0.21847 	-0.247982 	0 -0.218547 	-0.247946 	0 -0.218626 	-0.24791 	0 -0.219092 	-0.247701 	0 -0.219558 	-0.247492 	0 -0.220024 	-0.247282 	0 -0.220489 	-0.247072 	0 -0.220947 	-0.246865 	0 -0.221479 	-0.246626 	0 -0.22201 	-0.246388 	0 -0.222541 	-0.246149 	0 -0.22307 	-0.245907 	0 -0.223589 	-0.245667 	0 -0.223807 	-0.245567 	0 -0.224026 	-0.245467 	0 -0.224244 	-0.245367 	0 -0.224463 	-0.245267 	0 -0.224683 	-0.245166 	0 -0.224982 	-0.245031 	0 -0.225282 	-0.244896 	0 -0.225582 	-0.244761 	0 -0.225882 	-0.244625 	0 -0.226178 	-0.244491 	0 -0.226689 	-0.244263 	0 -0.227199 	-0.244034 	0 -0.227708 	-0.243801 	0 -0.228216 	-0.243567 	0 -0.228715 	-0.243337 	0 -0.229128 	-0.243148 	0 -0.229541 	-0.242959 	0 -0.229953 	-0.24277 	0 -0.230365 	-0.24258 	0 -0.230782 	-0.242388 	0 -0.230863 	-0.242352 	0 -0.230944 	-0.242315 	0 -0.231025 	-0.242278 	0 -0.231106 	-0.242242 	0 -0.231187 	-0.242205 	0 -0.231677 	-0.241985 	0 -0.232167 	-0.241761 	0 -0.232656 	-0.241537 	0 -0.233144 	-0.241313 	0 -0.233624 	-0.241092 	0 -0.234101 	-0.240875 	0 -0.234578 	-0.240657 	0 -0.235054 	-0.240439 	0 -0.235529 	-0.24022 	0 -0.235996 	-0.24 	0 -0.236179 	-0.239915 	0 -0.236362 	-0.239829 	0 -0.236546 	-0.239744 	0 -0.236729 	-0.239659 	0 -0.236913 	-0.239573 	0 -0.237196 	-0.239443 	0 -0.237479 	-0.239314 	0 -0.237762 	-0.239185 	0 -0.238045 	-0.239055 	0 -0.238325 	-0.238927 	0 -0.238784 	-0.238719 	0 -0.239242 	-0.23851 	0 -0.2397 	-0.238296 	0 -0.240157 	-0.238082 	0 -0.240607 	-0.237872 	0 -0.241054 	-0.237665 	0 -0.2415 	-0.237457 	0 -0.241945 	-0.23725 	0 -0.24239 	-0.237042 	0 -0.242829 	-0.236836 	0 -0.242876 	-0.236813 	0 -0.242924 	-0.23679 	0 -0.242971 	-0.236768 	0 -0.243019 	-0.236745 	0 -0.243067 	-0.236723 	0 -0.243459 	-0.236541 	0 -0.243852 	-0.236359 	0 -0.244244 	-0.236178 	0 -0.244636 	-0.235996 	0 -0.245023 	-0.235815 	0 -0.245453 	-0.235617 	0 -0.245883 	-0.235419 	0 -0.246312 	-0.235218 	0 -0.24674 	-0.235014 	0 -0.247163 	-0.234813 	0 -0.247576 	-0.234618 	0 -0.247988 	-0.234423 	0 -0.2484 	-0.234228 	0 -0.248812 	-0.234033 	0 -0.249229 	-0.233835 	0 -0.249232 	-0.233833 	0 -0.249236 	-0.233832 	0 -0.249239 	-0.23383 	0 -0.249243 	-0.233828 	0 -0.249247 	-0.233827 	0 -0.249661 	-0.233633 	0 -0.250076 	-0.233438 	0 -0.250489 	-0.233243 	0 -0.250903 	-0.233049 	0 -0.251311 	-0.232856 	0 -0.251715 	-0.232667 	0 -0.252118 	-0.232479 	0 -0.252521 	-0.232287 	0 -0.252923 	-0.232093 	0 -0.25332 	-0.2319 	0 -0.253713 	-0.231712 	0 -0.254105 	-0.231524 	0 -0.254497 	-0.231335 	0 -0.254889 	-0.231147 	0 -0.255276 	-0.230959 	0 -0.255297 	-0.230949 	0 -0.255318 	-0.230938 	0 -0.255339 	-0.230928 	0 -0.255361 	-0.230917 	0 -0.255383 	-0.230907 	0 -0.25575 	-0.230732 	0 -0.256117 	-0.230557 	0 -0.256484 	-0.230382 	0 -0.256851 	-0.230206 	0 -0.257214 	-0.230033 	0 -0.257592 	-0.229853 	0 -0.257971 	-0.229673 	0 -0.25835 	-0.229489 	0 -0.258728 	-0.229303 	0 -0.259102 	-0.229119 	0 -0.25947 	-0.22894 	0 -0.259839 	-0.22876 	0 -0.260207 	-0.22858 	0 -0.260574 	-0.2284 	0 -0.260939 	-0.228218 	0 -0.261052 	-0.228161 	0 -0.261167 	-0.228104 	0 -0.261281 	-0.228047 	0 -0.261395 	-0.22799 	0 -0.26151 	-0.227932 	0 -0.261758 	-0.227812 	0 -0.262007 	-0.227691 	0 -0.262256 	-0.227571 	0 -0.262504 	-0.22745 	0 -0.262751 	-0.227331 	0 -0.263107 	-0.22716 	0 -0.263463 	-0.226985 	0 -0.263819 	-0.226808 	0 -0.264174 	-0.226631 	0 -0.264527 	-0.226455 	0 -0.264873 	-0.226284 	0 -0.265219 	-0.226113 	0 -0.265565 	-0.225941 	0 -0.265911 	-0.225766 	0 -0.266254 	-0.22559 	0 -0.266521 	-0.225454 	0 -0.266788 	-0.225318 	0 -0.267055 	-0.225182 	0 -0.267322 	-0.225046 	0 -0.267592 	-0.224908 	0 -0.267661 	-0.224873 	0 -0.267731 	-0.224839 	0 -0.267801 	-0.224805 	0 -0.26787 	-0.22477 	0 -0.267941 	-0.224736 	0 -0.268276 	-0.22457 	0 -0.268611 	-0.224401 	0 -0.268946 	-0.224232 	0 -0.26928 	-0.224063 	0 -0.269612 	-0.223895 	0 -0.269938 	-0.223732 	0 -0.270263 	-0.223569 	0 -0.270589 	-0.223401 	0 -0.270914 	-0.223232 	0 -0.271237 	-0.223063 	0 -0.271554 	-0.2229 	0 -0.271871 	-0.222736 	0 -0.272187 	-0.222572 	0 -0.272503 	-0.222408 	0 -0.272817 	-0.22224 	0 -0.272973 	-0.222156 	0 -0.273129 	-0.222073 	0 -0.273285 	-0.22199 	0 -0.273441 	-0.221906 	0 -0.273599 	-0.221823 	0 -0.273753 	-0.221743 	0 -0.273907 	-0.221664 	0 -0.274062 	-0.221585 	0 -0.274216 	-0.221506 	0 -0.274371 	-0.221427 	0 -0.274677 	-0.221271 	0 -0.274984 	-0.22111 	0 -0.275291 	-0.220948 	0 -0.275597 	-0.220787 	0 -0.275902 	-0.220626 	0 -0.276199 	-0.22047 	0 -0.276497 	-0.220314 	0 -0.276795 	-0.220155 	0 -0.277093 	-0.219993 	0 -0.277389 	-0.219832 	0 -0.277679 	-0.219675 	0 -0.277968 	-0.219518 	0 -0.278257 	-0.219361 	0 -0.278546 	-0.219204 	0 -0.278834 	-0.219044 	0 -0.278968 	-0.218968 	0 -0.279102 	-0.218893 	0 -0.279236 	-0.218818 	0 -0.27937 	-0.218743 	0 -0.279505 	-0.218668 	0 -0.279656 	-0.218587 	0 -0.279806 	-0.218507 	0 -0.279957 	-0.218426 	0 -0.280107 	-0.218345 	0 -0.280258 	-0.218265 	0 -0.280537 	-0.218115 	0 -0.280819 	-0.21796 	0 -0.2811 	-0.217805 	0 -0.28138 	-0.21765 	0 -0.281659 	-0.217495 	0 -0.281931 	-0.217345 	0 -0.282203 	-0.217196 	0 -0.282475 	-0.217042 	0 -0.282748 	-0.216886 	0 -0.283019 	-0.216731 	0 -0.283284 	-0.21658 	0 -0.283548 	-0.216429 	0 -0.283812 	-0.216278 	0 -0.284076 	-0.216126 	0 -0.28434 	-0.21597 	0 -0.284526 	-0.215859 	0 -0.284713 	-0.215749 	0 -0.284899 	-0.215638 	0 -0.285086 	-0.215528 	0 -0.285274 	-0.215417 	0 -0.285345 	-0.215376 	0 -0.285416 	-0.215336 	0 -0.285487 	-0.215296 	0 -0.285559 	-0.215255 	0 -0.285631 	-0.215216 	0 -0.285887 	-0.215069 	0 -0.286144 	-0.21492 	0 -0.286401 	-0.214771 	0 -0.286658 	-0.214621 	0 -0.286913 	-0.214473 	0 -0.287161 	-0.214329 	0 -0.287409 	-0.214184 	0 -0.287659 	-0.214034 	0 -0.287908 	-0.213883 	0 -0.288157 	-0.213734 	0 -0.288397 	-0.213589 	0 -0.288638 	-0.213444 	0 -0.288879 	-0.213298 	0 -0.289121 	-0.213148 	0 -0.289362 	-0.212998 	0 -0.289596 	-0.212851 	0 -0.28983 	-0.212705 	0 -0.290064 	-0.212558 	0 -0.290297 	-0.212411 	0 -0.290531 	-0.212263 	0 -0.290597 	-0.21222 	0 -0.290663 	-0.212176 	0 -0.29073 	-0.212133 	0 -0.290797 	-0.21209 	0 -0.290864 	-0.212047 	0 -0.29103 	-0.211945 	0 -0.291195 	-0.211844 	0 -0.291361 	-0.211742 	0 -0.291527 	-0.21164 	0 -0.291692 	-0.211539 	0 -0.291918 	-0.211399 	0 -0.292147 	-0.211254 	0 -0.292375 	-0.211109 	0 -0.292603 	-0.210964 	0 -0.29283 	-0.210819 	0 -0.293049 	-0.210679 	0 -0.293269 	-0.210538 	0 -0.29349 	-0.210393 	0 -0.293712 	-0.210246 	0 -0.293933 	-0.210101 	0 -0.294146 	-0.209958 	0 -0.294359 	-0.209816 	0 -0.294572 	-0.209674 	0 -0.294786 	-0.209529 	0 -0.295001 	-0.209382 	0 -0.295208 	-0.209238 	0 -0.295416 	-0.209095 	0 -0.295623 	-0.208951 	0 -0.29583 	-0.208807 	0 -0.296037 	-0.208663 	0 -0.296077 	-0.208633 	0 -0.296119 	-0.208603 	0 -0.29616 	-0.208574 	0 -0.296202 	-0.208544 	0 -0.296244 	-0.208514 	0 -0.296409 	-0.208402 	0 -0.296575 	-0.20829 	0 -0.296741 	-0.208179 	0 -0.296906 	-0.208067 	0 -0.297072 	-0.207956 	0 -0.297272 	-0.207819 	0 -0.297476 	-0.207677 	0 -0.297679 	-0.207535 	0 -0.297882 	-0.207392 	0 -0.298085 	-0.207251 	0 -0.298279 	-0.207113 	0 -0.298475 	-0.206975 	0 -0.298673 	-0.206832 	0 -0.29887 	-0.206688 	0 -0.299068 	-0.206545 	0 -0.299258 	-0.206405 	0 -0.299448 	-0.206266 	0 -0.299638 	-0.206126 	0 -0.29983 	-0.205982 	0 -0.300023 	-0.205838 	0 -0.300207 	-0.205696 	0 -0.300393 	-0.205555 	0 -0.300578 	-0.205414 	0 -0.300762 	-0.205273 	0 -0.300949 	-0.205129 	0 -0.30104 	-0.205056 	0 -0.301132 	-0.204983 	0 -0.301223 	-0.204911 	0 -0.301315 	-0.204838 	0 -0.301408 	-0.204766 	0 -0.301499 	-0.204698 	0 -0.301591 	-0.20463 	0 -0.301682 	-0.204563 	0 -0.301774 	-0.204495 	0 -0.301867 	-0.204428 	0 -0.302046 	-0.204292 	0 -0.302228 	-0.204153 	0 -0.30241 	-0.204014 	0 -0.302591 	-0.203875 	0 -0.302773 	-0.203737 	0 -0.302944 	-0.203601 	0 -0.303119 	-0.203464 	0 -0.303294 	-0.203324 	0 -0.30347 	-0.203183 	0 -0.303646 	-0.203044 	0 -0.303812 	-0.202907 	0 -0.303979 	-0.20277 	0 -0.304146 	-0.202632 	0 -0.304316 	-0.20249 	0 -0.304486 	-0.202349 	0 -0.304646 	-0.202211 	0 -0.304807 	-0.202073 	0 -0.304967 	-0.201935 	0 -0.305129 	-0.201796 	0 -0.305293 	-0.201654 	0 -0.305447 	-0.201514 	0 -0.305602 	-0.201376 	0 -0.305757 	-0.201237 	0 -0.305911 	-0.201098 	0 -0.306067 	-0.200959 	0 -0.306104 	-0.200922 	0 -0.306142 	-0.200887 	0 -0.30618 	-0.200851 	0 -0.306218 	-0.200816 	0 -0.306257 	-0.20078 	0 -0.306372 	-0.20068 	0 -0.306488 	-0.200579 	0 -0.306604 	-0.200479 	0 -0.306719 	-0.200379 	0 -0.306835 	-0.200279 	0 -0.306982 	-0.200148 	0 -0.307133 	-0.200013 	0 -0.307283 	-0.199878 	0 -0.307433 	-0.199743 	0 -0.307583 	-0.199609 	0 -0.307723 	-0.19948 	0 -0.307866 	-0.199349 	0 -0.308011 	-0.199216 	0 -0.308155 	-0.199081 	0 -0.3083 	-0.198948 	0 -0.308436 	-0.198821 	0 -0.308573 	-0.198694 	0 -0.308711 	-0.198565 	0 -0.308851 	-0.198433 	0 -0.308991 	-0.198302 	0 -0.309123 	-0.198178 	0 -0.309255 	-0.198054 	0 -0.309387 	-0.197931 	0 -0.30952 	-0.197805 	0 -0.309656 	-0.197678 	0 -0.309783 	-0.19756 	0 -0.309911 	-0.197443 	0 -0.310039 	-0.197325 	0 -0.310167 	-0.197208 	0 -0.310297 	-0.197089 	0 -0.310358 	-0.197034 	0 -0.310421 	-0.196979 	0 -0.310483 	-0.196925 	0 -0.310546 	-0.19687 	0 -0.310609 	-0.196817 	0 -0.310673 	-0.196765 	0 -0.310737 	-0.196714 	0 -0.310802 	-0.196663 	0 -0.310866 	-0.196612 	0 -0.310932 	-0.196562 	0 -0.311056 	-0.196475 	0 -0.311183 	-0.196386 	0 -0.31131 	-0.196297 	0 -0.311436 	-0.196209 	0 -0.311564 	-0.196122 	0 -0.311681 	-0.196058 	0 -0.311802 	-0.195992 	0 -0.311925 	-0.195924 	0 -0.312048 	-0.195857 	0 -0.312172 	-0.195791 	0 -0.312285 	-0.195757 	0 -0.312399 	-0.195725 	0 -0.312517 	-0.195688 	0 -0.312636 	-0.19565 	0 -0.312756 	-0.195614 	0 -0.312865 	-0.195622 	0 -0.312975 	-0.195633 	0 -0.313085 	-0.195643 	0 -0.3132 	-0.195647 	0 -0.313316 	-0.195653 	0 -0.313422 	-0.195719 	0 -0.313528 	-0.195788 	0 -0.313634 	-0.195857 	0 -0.313741 	-0.195925 	0 -0.313854 	-0.19599 	0 -0.313956 	-0.196134 	0 -0.314058 	-0.196283 	0 -0.314161 	-0.196431 	0 -0.314264 	-0.196579 	0 -0.314369 	-0.196729 	0 -0.314395 	-0.196794 	0 -0.314422 	-0.196864 	0 -0.314449 	-0.196933 	0 -0.314476 	-0.197003 	0 -0.314504 	-0.197076 	0 -0.31458 	-0.197261 	0 -0.314656 	-0.197451 	0 -0.314733 	-0.197641 	0 -0.31481 	-0.197831 	0 -0.314888 	-0.198026 	0 -0.314984 	-0.19843 	0 -0.315085 	-0.198831 	0 -0.315187 	-0.199233 	0 -0.315289 	-0.199634 	0 -0.315393 	-0.200042 	0 -0.315483 	-0.200636 	0 -0.315578 	-0.201226 	0