# vtk DataFile Version 2.0
track0
ASCII
DATASET POLYDATA
POINTS 12100 float
-0.0205 0.001 1e-05
-0.0204952 0.0011 1e-05
-0.0204902 0.00119999 1e-05
-0.0204851 0.00129998 1e-05
-0.0204798 0.00139995 1e-05
-0.0204744 0.0015 1e-05
-0.0204687 0.0016 1e-05
-0.0204629 0.00169999 1e-05
-0.0204569 0.00179996 1e-05
-0.0204506 0.00189993 1e-05
-0.0204442 0.002 1e-05
-0.0204375 0.0021 1e-05
-0.0204306 0.00219998 1e-05
-0.0204235 0.00229995 1e-05
-0.0204162 0.0023999 1e-05
-0.0204086 0.0025 1e-05
-0.0204008 0.0026 1e-05
-0.0203927 0.00269998 1e-05
-0.0203844 0.00279994 1e-05
-0.0203758 0.00289988 1e-05
-0.020367 0.003 1e-05
-0.020358 0.0031 1e-05
-0.0203487 0.00319998 1e-05
-0.0203391 0.00329993 1e-05
-0.0203293 0.00339986 1e-05
-0.0203192 0.0035 1e-05
-0.0203125 0.00356548 1e-05
-0.0203056 0.00363095 1e-05
-0.0202986 0.00369641 1e-05
-0.0202915 0.00376185 1e-05
-0.0202854 0.00381719 1e-05
-0.0202813 0.00385375 1e-05
-0.0202772 0.00389031 1e-05
-0.020273 0.00392686 1e-05
-0.0202689 0.00396341 1e-05
-0.0202646 0.004 1e-05
-0.020253 0.0041 1e-05
-0.0202411 0.00419997 1e-05
-0.0202289 0.00429991 1e-05
-0.0202165 0.00439981 1e-05
-0.0202037 0.0045 1e-05
-0.0201907 0.0046 1e-05
-0.0201775 0.00469997 1e-05
-0.020164 0.00479989 1e-05
-0.0201502 0.00489979 1e-05
-0.0201361 0.005 1e-05
-0.0201217 0.0051 1e-05
-0.0201071 0.00519996 1e-05
-0.0200922 0.00529988 1e-05
-0.0200771 0.00539976 1e-05
-0.0200616 0.0055 1e-05
-0.0200537 0.00554996 1e-05
-0.0200458 0.0055999 1e-05
-0.0200378 0.00564984 1e-05
-0.0200298 0.00569977 1e-05
-0.0200223 0.00574552 1e-05
-0.020014 0.00579642 1e-05
-0.0200055 0.0058473 1e-05
-0.0199971 0.00589817 1e-05
-0.0199885 0.00594903 1e-05
-0.0199798 0.006 1e-05
-0.0199627 0.0061 1e-05
-0.0199453 0.00619995 1e-05
-0.0199277 0.00629986 1e-05
-0.0199097 0.00639971 1e-05
-0.0198914 0.0065 1e-05
-0.0198729 0.0066 1e-05
-0.0198541 0.00669995 1e-05
-0.019835 0.00679984 1e-05
-0.0198156 0.00689969 1e-05
-0.0197959 0.007 1e-05
-0.019789 0.00703455 1e-05
-0.019782 0.0070691 1e-05
-0.0197751 0.00710364 1e-05
-0.0197681 0.00713817 1e-05
-0.0197614 0.00717106 1e-05
-0.0197479 0.00723685 1e-05
-0.0197343 0.00730261 1e-05
-0.0197206 0.00736835 1e-05
-0.0197068 0.00743406 1e-05
-0.0196928 0.0075 1e-05
-0.0196713 0.0076 1e-05
-0.0196496 0.00769994 1e-05
-0.0196276 0.00779982 1e-05
-0.0196053 0.00789963 1e-05
-0.0195826 0.008 1e-05
-0.0195666 0.00806985 1e-05
-0.0195504 0.00813967 1e-05
-0.0195341 0.00820946 1e-05
-0.0195177 0.00827921 1e-05
-0.0195025 0.00834306 1e-05
-0.019495 0.00837444 1e-05
-0.0194874 0.00840583 1e-05
-0.0194799 0.0084372 1e-05
-0.0194722 0.00846857 1e-05
-0.0194646 0.0085 1e-05
-0.0194402 0.0086 1e-05
-0.0194154 0.00869993 1e-05
-0.0193904 0.00879978 1e-05
-0.0193651 0.00889957 1e-05
-0.0193393 0.009 1e-05
-0.0193206 0.00907198 1e-05
-0.0193017 0.00914392 1e-05
-0.0192827 0.00921582 1e-05
-0.0192635 0.00928768 1e-05
-0.0192457 0.00935385 1e-05
-0.0192378 0.00938308 1e-05
-0.0192299 0.0094123 1e-05
-0.0192219 0.00944152 1e-05
-0.0192139 0.00947073 1e-05
-0.0192059 0.0095 1e-05
-0.0191783 0.0096 1e-05
-0.0191504 0.00969992 1e-05
-0.0191222 0.00979975 1e-05
-0.0190938 0.0098995 1e-05
-0.0190648 0.01 1e-05
-0.01905 0.0100505 1e-05
-0.0190352 0.0101011 1e-05
-0.0190203 0.0101515 1e-05
-0.0190053 0.010202 1e-05
-0.018991 0.0102499 1e-05
-0.018976 0.0102999 1e-05
-0.0189609 0.0103499 1e-05
-0.0189458 0.0103999 1e-05
-0.0189306 0.0104498 1e-05
-0.0189152 0.0105 1e-05
-0.0188843 0.0106 1e-05
-0.0188532 0.0106999 1e-05
-0.0188218 0.0107997 1e-05
-0.01879 0.0108994 1e-05
-0.0187576 0.011 1e-05
-0.0187538 0.0110118 1e-05
-0.0187499 0.0110237 1e-05
-0.0187461 0.0110355 1e-05
-0.0187422 0.0110474 1e-05
-0.0187384 0.0110591 1e-05
-0.0187095 0.0111473 1e-05
-0.0186804 0.0112354 1e-05
-0.0186511 0.0113234 1e-05
-0.0186215 0.0114113 1e-05
-0.0185914 0.0115 1e-05
-0.0185707 0.0115605 1e-05
-0.0185499 0.011621 1e-05
-0.0185289 0.0116815 1e-05
-0.0185078 0.0117419 1e-05
-0.0184878 0.011799 1e-05
-0.0184736 0.0118392 1e-05
-0.0184593 0.0118794 1e-05
-0.018445 0.0119195 1e-05
-0.0184307 0.0119597 1e-05
-0.0184162 0.012 1e-05
-0.0183808 0.0120983 1e-05
-0.0183451 0.0121965 1e-05
-0.0183091 0.0122946 1e-05
-0.0182727 0.0123926 1e-05
-0.0182392 0.0124823 1e-05
-0.0182378 0.0124858 1e-05
-0.0182365 0.0124894 1e-05
-0.0182352 0.0124929 1e-05
-0.0182338 0.0124964 1e-05
-0.0182325 0.0125 1e-05
-0.0181946 0.0126 1e-05
-0.0181565 0.0126999 1e-05
-0.018118 0.0127996 1e-05
-0.0180792 0.0128993 1e-05
-0.0180396 0.013 1e-05
-0.0180302 0.0130237 1e-05
-0.0180208 0.0130474 1e-05
-0.0180113 0.013071 1e-05
-0.0180019 0.0130947 1e-05
-0.0179926 0.0131179 1e-05
-0.0179619 0.0131943 1e-05
-0.017931 0.0132706 1e-05
-0.0179 0.0133469 1e-05
-0.0178687 0.0134231 1e-05
-0.0178369 0.0135 1e-05
-0.0178192 0.0135428 1e-05
-0.0178013 0.0135855 1e-05
-0.0177834 0.0136282 1e-05
-0.0177654 0.0136709 1e-05
-0.017748 0.0137121 1e-05
-0.0177235 0.0137697 1e-05
-0.017699 0.0138272 1e-05
-0.0176743 0.0138847 1e-05
-0.0176496 0.0139421 1e-05
-0.0176245 0.014 1e-05
-0.0176007 0.0140547 1e-05
-0.0175767 0.0141093 1e-05
-0.0175527 0.0141639 1e-05
-0.0175286 0.0142184 1e-05
-0.0175053 0.0142707 1e-05
-0.0174849 0.0143165 1e-05
-0.0174643 0.0143624 1e-05
-0.0174437 0.0144082 1e-05
-0.017423 0.0144539 1e-05
-0.017402 0.0145 1e-05
-0.0173746 0.0145602 1e-05
-0.017347 0.0146204 1e-05
-0.0173192 0.0146806 1e-05
-0.0172914 0.0147406 1e-05
-0.0172647 0.014798 1e-05
-0.0172457 0.0148384 1e-05
-0.0172268 0.0148788 1e-05
-0.0172077 0.0149191 1e-05
-0.0171886 0.0149594 1e-05
-0.0171694 0.015 1e-05
-0.0171407 0.0150602 1e-05
-0.0171119 0.0151202 1e-05
-0.0170829 0.0151803 1e-05
-0.0170539 0.0152402 1e-05
-0.0170259 0.0152976 1e-05
-0.0170061 0.0153381 1e-05
-0.0169862 0.0153785 1e-05
-0.0169663 0.015419 1e-05
-0.0169463 0.0154594 1e-05
-0.0169261 0.0155 1e-05
-0.0168987 0.015555 1e-05
-0.0168712 0.0156099 1e-05
-0.0168436 0.0156648 1e-05
-0.0168159 0.0157196 1e-05
-0.0167891 0.0157723 1e-05
-0.0167659 0.0158178 1e-05
-0.0167425 0.0158633 1e-05
-0.0167192 0.0159088 1e-05
-0.0166957 0.0159542 1e-05
-0.016672 0.016 1e-05
-0.0166484 0.0160453 1e-05
-0.0166248 0.0160905 1e-05
-0.0166011 0.0161357 1e-05
-0.0165773 0.0161808 1e-05
-0.0165542 0.0162246 1e-05
-0.016525 0.0162796 1e-05
-0.0164956 0.0163347 1e-05
-0.0164662 0.0163897 1e-05
-0.0164366 0.0164446 1e-05
-0.0164066 0.0165 1e-05
-0.0163895 0.0165315 1e-05
-0.0163724 0.0165629 1e-05
-0.0163553 0.0165943 1e-05
-0.0163381 0.0166257 1e-05
-0.0163212 0.0166565 1e-05
-0.0162833 0.0167252 1e-05
-0.0162453 0.0167938 1e-05
-0.0162072 0.0168623 1e-05
-0.0161688 0.0169307 1e-05
-0.0161298 0.017 1e-05
-0.0161219 0.017014 1e-05
-0.0161139 0.0170281 1e-05
-0.0161059 0.0170421 1e-05
-0.0160979 0.0170561 1e-05
-0.01609 0.01707 1e-05
-0.0160442 0.0171505 1e-05
-0.0159981 0.0172308 1e-05
-0.0159518 0.0173109 1e-05
-0.0159052 0.0173909 1e-05
-0.0158607 0.0174668 1e-05
-0.0158568 0.0174735 1e-05
-0.0158529 0.0174801 1e-05
-0.015849 0.0174867 1e-05
-0.0158451 0.0174934 1e-05
-0.0158412 0.0175 1e-05
-0.0157996 0.0175703 1e-05
-0.0157579 0.0176406 1e-05
-0.0157159 0.0177107 1e-05
-0.0156738 0.0177807 1e-05
-0.0156333 0.0178476 1e-05
-0.0156148 0.0178781 1e-05
-0.0155962 0.0179086 1e-05
-0.0155776 0.017939 1e-05
-0.0155589 0.0179694 1e-05
-0.0155401 0.018 1e-05
-0.0155137 0.018043 1e-05
-0.0154871 0.0180859 1e-05
-0.0154605 0.0181289 1e-05
-0.0154338 0.0181717 1e-05
-0.0154077 0.0182134 1e-05
-0.0153718 0.0182708 1e-05
-0.0153357 0.018328 1e-05
-0.0152995 0.0183852 1e-05
-0.0152632 0.0184422 1e-05
-0.0152263 0.0185 1e-05
-0.0152178 0.0185132 1e-05
-0.0152094 0.0185264 1e-05
-0.0152009 0.0185396 1e-05
-0.0151924 0.0185528 1e-05
-0.0151839 0.0185659 1e-05
-0.0151395 0.0186347 1e-05
-0.015095 0.0187034 1e-05
-0.0150502 0.0187719 1e-05
-0.0150053 0.0188404 1e-05
-0.0149619 0.018906 1e-05
-0.0149495 0.0189248 1e-05
-0.014937 0.0189436 1e-05
-0.0149245 0.0189624 1e-05
-0.014912 0.0189812 1e-05
-0.0148994 0.019 1e-05
-0.0148679 0.0190472 1e-05
-0.0148363 0.0190943 1e-05
-0.0148046 0.0191413 1e-05
-0.0147728 0.0191883 1e-05
-0.0147417 0.019234 1e-05
-0.0147055 0.0192872 1e-05
-0.0146691 0.0193403 1e-05
-0.0146327 0.0193934 1e-05
-0.0145961 0.0194464 1e-05
-0.0145589 0.0195 1e-05
-0.0145518 0.0195102 1e-05
-0.0145447 0.0195205 1e-05
-0.0145376 0.0195307 1e-05
-0.0145304 0.0195409 1e-05
-0.0145233 0.019551 1e-05
-0.01448 0.019613 1e-05
-0.0144365 0.0196749 1e-05
-0.0143929 0.0197367 1e-05
-0.0143491 0.0197984 1e-05
-0.0143067 0.0198579 1e-05
-0.0142863 0.0198863 1e-05
-0.0142659 0.0199147 1e-05
-0.0142455 0.0199431 1e-05
-0.014225 0.0199715 1e-05
-0.0142044 0.02 1e-05
-0.0141819 0.0200311 1e-05
-0.0141593 0.0200622 1e-05
-0.0141367 0.0200932 1e-05
-0.0141141 0.0201242 1e-05
-0.0140917 0.0201547 1e-05
-0.0140491 0.0202128 1e-05
-0.0140063 0.0202708 1e-05
-0.0139635 0.0203287 1e-05
-0.0139204 0.0203866 1e-05
-0.0138786 0.0204426 1e-05
-0.0138699 0.0204541 1e-05
-0.0138613 0.0204655 1e-05
-0.0138527 0.020477 1e-05
-0.013844 0.0204885 1e-05
-0.0138354 0.0205 1e-05
-0.0138017 0.0205446 1e-05
-0.013768 0.0205892 1e-05
-0.0137342 0.0206337 1e-05
-0.0137003 0.0206782 1e-05
-0.0136671 0.0207216 1e-05
-0.0136251 0.0207762 1e-05
-0.0135831 0.0208308 1e-05
-0.0135409 0.0208853 1e-05
-0.0134986 0.0209397 1e-05
-0.0134573 0.0209926 1e-05
-0.0134562 0.020994 1e-05
-0.013455 0.0209955 1e-05
-0.0134538 0.020997 1e-05
-0.0134527 0.0209985 1e-05
-0.0134515 0.021 1e-05
-0.013411 0.0210516 1e-05
-0.0133705 0.021103 1e-05
-0.0133298 0.0211544 1e-05
-0.0132891 0.0212057 1e-05
-0.0132493 0.0212557 1e-05
-0.0132101 0.0213046 1e-05
-0.0131709 0.0213534 1e-05
-0.0131316 0.0214021 1e-05
-0.0130923 0.0214507 1e-05
-0.0130522 0.0215 1e-05
-0.0130503 0.0215023 1e-05
-0.0130485 0.0215046 1e-05
-0.0130466 0.0215069 1e-05
-0.0130447 0.0215092 1e-05
-0.0130429 0.0215114 1e-05
-0.0130019 0.0215616 1e-05
-0.0129609 0.0216116 1e-05
-0.0129197 0.0216616 1e-05
-0.0128785 0.0217115 1e-05
-0.0128381 0.0217602 1e-05
-0.0127982 0.0218081 1e-05
-0.0127582 0.021856 1e-05
-0.012718 0.0219039 1e-05
[...]
POINT_DATA 12100
 FIELD attributes 2
p 1 12100 float
0.00246129 0.00282129 0.00317035 0.00351914 0.00386797 0.00421213 0.00447226 0.00473068 0.00498521 0.00523982 0.00549559 0.0057786 0.00606261 0.00634216 0.00661984 0.006899 0.00718889 0.00747885 0.00776892 0.00805447 0.0083398 0.00861424 0.00888865 0.00916321 0.00943791 0.00970972 0.00987466 0.0100392 0.0102039 0.0103686 0.0105075 0.0106009 0.0106936 0.0107864 0.0108791 0.0109713 0.0112015 0.0114299 0.0116585 0.0118873 0.0121165 0.0123226 0.012528 0.0127317 0.0129356 0.0131395 0.0133179 0.0134958 0.0136739 0.0138522 0.0140296 0.0141049 0.0141793 0.0142538 0.0143283 0.0143957 0.0144731 0.01455 0.0146269 0.0147039 0.0147806 0.0149003 0.01502 0.0151401 0.0152604 0.0153811 0.0154691 0.0155567 0.0156447 0.015733 0.0158221 0.0158415 0.0158603 0.0158793 0.0158982 0.0159158 0.0159533 0.01599 0.0160269 0.0160639 0.0161003 0.0161216 0.0161421 0.0161641 0.016187 0.0162092 0.0162007 0.0161913 0.0161822 0.0161732 0.0161641 0.0161608 0.0161569 0.016153 0.0161492 0.0161449 0.016096 0.0160481 0.0160015 0.0159553 0.0159085 0.0158492 0.0157896 0.0157301 0.0156709 0.015616 0.0155929 0.0155687 0.0155445 0.0155204 0.0154952 0.0153769 0.0152585 0.0151423 0.0150265 0.014909 0.0148331 0.0147563 0.0146797 0.0146031 0.0145296 0.0144536 0.0143773 0.0143011 0.014225 0.0141481 0.0139609 0.0137737 0.013587 0.0134008 0.013215 0.0131895 0.0131636 0.0131377 0.0131118 0.0130857 0.0128919 0.0126975 0.0125035 0.0123098 0.0121137 0.0119616 0.0118085 0.0116557 0.011503 0.0113578 0.0112559 0.0111537 0.0110516 0.0109495 0.0108466 0.0105651 0.0102838 0.0100031 0.0097229 0.00946635 0.00945667 0.00944691 0.0094367 0.00942619 0.00941525 0.00909823 0.00878169 0.00846573 0.00815035 0.00783065 0.00774966 0.00766774 0.00758586 0.00750402 0.00742285 0.00715715 0.00689144 0.00662611 0.00636114 0.00609346 0.00593324 0.00577293 0.00561275 0.0054527 0.00529795 0.0050816 0.00486463 0.00464788 0.00443137 0.00421246 0.00399269 0.00377223 0.003552 0.00333199 0.00312041 0.00293493 0.00274925 0.00256373 0.00237837 0.00219152 0.00193289 0.0016745 0.0014164 0.0011586 0.000912429 0.000739072 0.000565147 0.000391357 0.000217701 4.23454e-05 -0.000230001 -0.000502922 -0.000775523 -0.0010478 -0.00130901 -0.00149284 -0.00167686 -0.00186073 -0.00204445 -0.00222963 -0.00249138 -0.00275271 -0.00301375 -0.0032745 -0.00352493 -0.00374133 -0.00395805 -0.00417456 -0.00439088 -0.00460929 -0.00483311 -0.00505761 -0.0052819 -0.00550597 -0.0057239 -0.00599676 -0.00626964 -0.00654219 -0.00681442 -0.0070895 -0.00725138 -0.00741281 -0.00757413 -0.00773534 -0.00789278 -0.0082447 -0.00859642 -0.00894759 -0.00929821 -0.00965344 -0.00972684 -0.00980111 -0.00987536 -0.00994959 -0.010024 -0.0104475 -0.0108705 -0.0112928 -0.0117137 -0.0121127 -0.0121464 -0.0121811 -0.0122158 -0.0122505 -0.0122862 -0.0126637 -0.0130406 -0.0134169 -0.0137924 -0.0141514 -0.0143143 -0.0144763 -0.0146381 -0.0147999 -0.0149618 -0.0151955 -0.0154292 -0.0156627 -0.0158959 -0.0161232 -0.0164314 -0.0167402 -0.0170484 -0.0173562 -0.0176686 -0.0177412 -0.0178137 -0.0178861 -0.0179585 -0.0180303 -0.0184039 -0.0187755 -0.0191457 -0.0195151 -0.0198681 -0.0199684 -0.0200685 -0.0201685 -0.0202685 -0.0203687 -0.0206225 -0.020877 -0.0211312 -0.021385 -0.0216329 -0.0219144 -0.0221956 -0.0224763 -0.0227565 -0.0230403 -0.0230963 -0.0231508 -0.0232053 -0.0232597 -0.0233124 -0.0236369 -0.0239602 -0.0242826 -0.0246042 -0.0249141 -0.02506 -0.025204 -0.0253478 -0.0254915 -0.0256343 -0.0257923 -0.0259505 -0.0261084 -0.0262661 -0.0264213 -0.0267077 -0.0269948 -0.0272812 -0.0275668 -0.0278449 -0.0278993 -0.0279539 -0.0280086 -0.0280632 -0.0281182 -0.0283325 -0.0285441 -0.0287552 -0.0289658 -0.029169 -0.0294193 -0.0296682 -0.0299163 -0.0301636 -0.0304031 -0.030411 -0.0304183 -0.030424 -0.0304297 -0.0304354 -0.0306572 -0.0308786 -0.0310993 -0.0313193 -0.0315334 -0.0317303 -0.0319286 -0.0321262 -0.0323231 -0.0325245 -0.032534 -0.0325435 -0.0325527 -0.0325617 -0.03257 -0.0327601 -0.0329467 -0.0331326 -0.0333178 -0.0334949 -0.0336612 -0.0338258 -0.0339897 -0.0341529 -0.0343169 -0.0343182 -0.0343195 -0.0343208 -0.0343224 -0.0343244 -0.0344688 -0.0346129 -0.0347564 -0.0348992 -0.0350387 -0.0351609 -0.0352851 -0.0354086 -0.0355314 -0.0356556 -0.0356703 -0.0356855 -0.0357007 -0.0357159 -0.0357316 -0.0358219 -0.0359076 -0.0359928 -0.0360775 -0.0361563 -0.0362384 -0.0363185 -0.0363979 -0.0364789 -0.036558 -0.0365884 -0.0366144 -0.0366402 -0.0366658 -0.0366871 -0.036718 -0.0367492 -0.0367801 -0.0368108 -0.0368414 -0.0368724 -0.0369061 -0.0369436 -0.0369809 -0.0370203 -0.0370324 -0.0370447 -0.0370566 -0.037068 -0.0370797 -0.0370857 -0.0370868 -0.0370879 -0.037089 -0.0370851 -0.0370765 -0.0370688 -0.0370604 -0.0370514 -0.0370403 -0.0370139 -0.0369815 -0.0369485 -0.0369163 -0.0368832 -0.036866 -0.0368469 -0.0368277 -0.0368084 -0.0367869 -0.0367487 -0.0367143 -0.0366798 -0.036645 -0.0366144 -0.0365325 -0.036452 -0.0363769 -0.0363012 -0.0362266 -0.0361245 -0.0360263 -0.0359274 -0.035828 -0.0357362 -0.0357227 -0.03571 -0.0356973 -0.0356848 -0.0356727 -0.0355702 -0.0354611 -0.0353516 -0.0352416 -0.0351261 -0.0349817 -0.0348348 -0.0346923 -0.034553 -0.0344128 -0.0342572 -0.0340945 -0.0339311 -0.0337672 -0.033594 -0.0335925 -0.033591 -0.0335895 -0.033588 -0.0335866 -0.0333923 -0.0332028 -0.0330127 -0.032822 -0.032638 -0.0324201 -0.0322021 -0.0319889 -0.0317805 -0.0315743 -0.0313362 -0.0311028 -0.030869 -0.0306346 -0.0304089 -0.0303944 -0.0303804 -0.0303665 -0.0303527 -0.0303388 -0.0301022 -0.0298577 -0.0296127 -0.0293673 -0.0291164 -0.028833 -0.0285471 -0.0282714 -0.0279968 -0.0277225 -0.027427 -0.0271232 -0.0268188 -0.026514 -0.0262124 -0.0261134 -0.0260123 -0.0259112 -0.02581 -0.0257064 -0.0254773 -0.0252539 -0.0250304 -0.0248066 -0.02459 -0.0242306 -0.023879 -0.023533 -0.0231865 -0.0228426 -0.0224632 -0.0220896 -0.0217155 -0.0213492 -0.0209984 -0.0206884 -0.0203777 -0.0200668 -0.0197556 -0.0194409 -0.0193678 -0.0192862 -0.0192046 -0.0191229 -0.0190329 -0.018616 -0.0182039 -0.0177913 -0.0173782 -0.016967 -0.0165298 -0.0160833 -0.0156482 -0.0152172 -0.0147804 -0.0143229 -0.0138643 -0.0134051 -0.0129456 -0.0125033 -0.0122708 -0.012029 -0.0117872 -0.0115453 -0.0112927 -0.0110549 -0.0108153 -0.0105756 -0.0103357 -0.0100949 -0.00957377 -0.00907492 -0.00857567 -0.00807603 -0.00758655 -0.00705322 -0.00651709 -0.00598873 -0.00547074 -0.00495357 -0.0043995 -0.00385205 -0.00330421 -0.00275598 -0.00223274 -0.00196644 -0.00169695 -0.00142737 -0.0011577 -0.000883452 -0.000593029 -0.000293146 6.83897e-06 0.000306925 0.000615441 0.00121818 0.00180276 0.00238769 0.00297298 0.00355286 0.00416596 0.00478872 0.0053998 0.00600326 0.00661263 0.00724905 0.00788293 0.00851715 0.00915002 0.00975807 0.0102224 0.0106959 0.0111696 0.0116435 0.0121302 0.0123035 0.0124824 0.0126612 0.0128401 0.0130243 0.0137096 0.0143799 0.0150505 0.0157215 0.0163821 0.0170838 0.017789 0.0184766 0.0191645 0.0198555 0.020581 0.0213006 0.0220205 0.0227239 0.0234123 0.0241399 0.0248755 0.0256115 0.0263478 0.0270797 0.0273033 0.0275212 0.0277392 0.0279573 0.0281703 0.0287109 0.029246 0.0297812 0.0303166 0.0308446 0.0316324 0.0324059 0.0331797 0.0339537 0.0347332 0.0355448 0.0363498 0.037136 0.0379165 0.0386866 0.0395003 0.0403231 0.0411462 0.0419569 0.0427599 0.0435949 0.0444218 0.045249 0.0460765 0.0468857 0.0470506 0.0472244 0.0473982 0.0475737 0.047755 0.0484198 0.0490956 0.0497715 0.0504476 0.0511323 0.0520212 0.0528765 0.053732 0.0545878 0.0554317 0.0563246 0.0572303 0.0581135 0.0589932 0.059882 0.0608068 0.0617236 0.0626408 0.0635389 0.064417 0.0653435 0.0662845 0.0672257 0.0681671 0.0691041 0.069598 0.070084 0.07057 0.0710562 0.0715366 0.0720214 0.0724942 0.072967 0.0734399 0.0738998 0.0748789 0.0758532 0.0768277 0.0778025 0.078784 0.0798226 0.0808398 0.0818399 0.0828401 0.0838257 0.0848523 0.0858886 0.0869162 0.0879244 0.0889385 0.0900125 0.0910774 0.0921426 0.0932001 0.094224 0.0952734 0.0963316 0.0973901 0.0984488 0.099505 0.0997887 0.100066 0.100343 0.10062 0.100892 0.101712 0.102525 0.103338 0.104152 0.104956 0.106061 0.10715 0.10824 0.10933 0.110425 0.111579 0.112717 0.113831 0.114945 0.11605 0.117188 0.118333 0.119467 0.120578 0.121692 0.122858 0.124018 0.125177 0.126324 0.127439 0.128595 0.129755 0.130916 0.132077 0.133223 0.133821 0.134412 0.135004 0.135595 0.136181 0.136767 0.137354 0.137941 0.138528 0.139115 0.14031 0.141498 0.142686 0.143874 0.145071 0.146309 0.147522 0.14872 0.149919 0.151117 0.152353 0.153602 0.154817 0.156023 0.15724 0.158497 0.159758 0.161018 0.162239 0.163458 0.164711 0.165977 0.167243 0.168506 0.16974 0.171011 0.172286 0.173561 0.174835 0.176104 0.176442 0.176793 0.177143 0.177497 0.177856 0.1788 0.179746 0.180691 0.181636 0.182585 0.18393 0.185238 0.186545 0.187852 0.189158 0.190521 0.191857 0.193171 0.194484 0.195809 0.197187 0.198557 0.199891 0.201211 0.202537 0.20392 0.205305 0.206688 0.208028 0.209383 0.210778 0.212166 0.213552 0.214937 0.216293 0.217688 0.219085 0.22048 0.221874 0.223304 0.22344 0.223566 0.223691 0.223816 0.223941 0.2252 0.226457 0.227713 0.228968 0.230262 0.231655 0.23301 0.234362 0.235712 0.237134 0.238473 0.239801 0.241079 0.242356 0.243699 0.244932 0.246172 0.247411 0.2486 0.249876 0.251037 0.252192 0.253346 0.254498 0.255699 0.256385 0.257087 0.257787 0.258487 0.25917 0.259709 0.260262 0.260814 0.261366 0.261953 0.263726 0.265464 0.267195 0.268919 0.270823 0.273482 0.276156 0.278744 0.281298 0.284145 0.287146 0.290116 0.293066 0.295995 0.29914 0.299985 0.300778 0.301571 0.302361 0.303072 0.30401 0.304895 0.305779 0.306661 0.307561 0.30976 0.311996 0.314257 0.316539 0.319328 0.319343 0.319358 0.319375 0.319392 0.31941 0.322649 0.325924 0.329214 0.332517 0.336719 0.336748 0.336776 0.336807 0.336842 0.336876 0.341219 0.345576 0.34993 0.354281 0.358468 0.359076 0.359705 0.360335 0.360964 0.361632 0.365708 0.369779 0.373846 0.377908 0.381871 0.384081 0.386291 0.3885 0.390707 0.393084 0.395682 0.398276 0.40087 0.403463 0.406026 0.410616 0.415201 0.419784 0.424366 0.429622 0.429891 0.43016 0.430429 0.430698 0.430966 0.43603 0.441081 0.446132 0.451183 0.456164 0.459516 0.462867 0.466218 0.469569 0.473248 0.475092 0.476939 0.478786 0.480633 0.482475 0.487926 0.49338 0.498808 0.504236 0.50961 0.513018 0.516427 0.519837 0.523247 0.527004 0.52916 0.531318 0.533476 0.535634 0.537787 0.543599 0.549404 0.555196 0.56099 0.566736 0.572422 0.578109 0.583797 0.589486 0.596288 0.596344 0.596399 0.596455 0.596511 0.596566 0.602582 0.608598 0.614617 0.620638 0.626617 0.632672 0.638725 0.64478 0.650835 0.656849 0.66283 0.668805 0.674782 0.680759 0.686702 0.687879 0.689045 0.690211 0.691377 0.692609 0.697155 0.701689 0.706224 0.710762 0.71527 0.720547 0.725869 0.731207 0.736547 0.741848 0.746526 0.75118 0.755927 0.760712 0.765458 0.76931 0.773131 0.776956 0.780961 0.784938 0.787735 0.790497 0.793263 0.796145 0.799136 0.800665 0.802152 0.803645 0.805193 0.806973 0.807069 0.807123 0.807184 0.807272 0.80764 0.806257 0.804831 0.803414 0.802037 0.800862 0.798182 0.795473 0.792771 0.790116 0.787519 0.784346 0.781171 0.778003 0.774827 0.771631 0.770414 0.769273 0.768137 0.766892 0.765702 0.77216 0.778859 0.785543 0.792173 0.799041 0.822153 0.845707 0.869488 0.893417 0.917792 0.96264 1.00783 1.05459 1.10136 1.14847 1.20149 1.25558 1.31205 1.36852 1.42455 1.44568 1.47035 1.49638 1.52242 1.54659 1.51006 1.47839 1.4467 1.41499 1.38136 1.37567 1.37609 1.37637 1.37649 1.37906 1.39214 1.40492 1.41769 1.43045 1.44681 1.49054 1.53391 1.57706 1.62014 1.66334 1.69173 1.71838 1.74489 1.77127 1.79637