/*--------------------------------*- C++ -*----------------------------------*\
  =========                 |
  \\      /  F ield         | OpenFOAM: The Open Source CFD Toolbox
   \\    /   O peration     | Website:  https://openfoam.org
    \\  /    A nd           | Version:  6
     \\/     M anipulation  |
\*---------------------------------------------------------------------------*/
FoamFile
{
    version     2.0;
    format      ascii;
    class       volScalarField;
    location    "25";
    object      epsilon;
}
// * * * * * * * * * * * * * * * * * * * * * * * * * * * * * * * * * * * * * //

dimensions      [0 2 -3 0 0 0 0];

internalField   nonuniform List<scalar> 
130000
(
14.092
13.8321
13.5704
13.3125
13.0576
12.8059
12.5582
12.3156
12.08
11.853
11.6366
11.4327
11.2428
11.0682
10.91
10.7689
10.6451
10.5388
10.4498
10.3776
14.1146
13.8548
13.5933
13.3352
13.0797
12.8273
12.5786
12.335
12.0982
11.8702
11.6528
11.448
11.2573
11.0822
10.9235
10.782
10.658
10.5515
10.4623
10.39
14.135
13.8755
13.6139
13.3554
13.0993
12.8459
12.5961
12.3514
12.1134
11.8841
11.6655
11.4594
11.2674
11.0911
10.9315
10.7893
10.6649
10.5582
10.469
10.397
14.1521
13.8926
13.6307
13.3717
13.1148
12.8605
12.6095
12.3633
12.1236
11.8926
11.6723
11.4644
11.2711
11.0938
10.9334
10.7907
10.6659
10.5591
10.4701
10.3984
14.1646
13.9048
13.6425
13.3828
13.1249
12.8691
12.6165
12.3684
12.1271
11.8947
11.6731
11.4641
11.27
11.0921
10.9313
10.7882
10.6633
10.5565
10.4677
10.3964
14.1728
13.9123
13.6492
13.3882
13.1287
12.8714
12.6173
12.3679
12.1257
11.8925
11.6705
11.4614
11.2672
11.089
10.9281
10.7851
10.6603
10.5537
10.4652
10.3941
14.1775
13.9158
13.6512
13.3887
13.1277
12.8694
12.6146
12.3649
12.1221
11.8886
11.6662
11.457
11.2627
11.0846
10.9238
10.7811
10.6565
10.5503
10.4621
10.3915
14.1803
13.9168
13.6506
13.3868
13.1251
12.8659
12.6104
12.36
12.1168
11.8829
11.6603
11.4511
11.2569
11.079
10.9185
10.7761
10.6521
10.5463
10.4587
10.3885
14.1823
13.9171
13.6494
13.3843
13.1215
12.8613
12.6049
12.3539
12.1102
11.876
11.6533
11.4441
11.25
11.0725
10.9125
10.7706
10.6471
10.5419
10.4548
10.3853
14.1841
13.9173
13.648
13.3814
13.1173
12.856
12.5986
12.3469
12.1027
11.8682
11.6455
11.4363
11.2426
11.0654
10.9059
10.7645
10.6417
10.5372
10.4507
10.3818
14.1863
13.9176
13.6466
13.3785
13.1129
12.8504
12.5921
12.3396
12.0948
11.86
11.6372
11.4282
11.2347
11.058
10.899
10.7583
10.6361
10.5323
10.4466
10.3783
14.1889
13.9184
13.6457
13.3758
13.1087
12.8449
12.5855
12.3321
12.0869
11.8517
11.6288
11.4199
11.2267
11.0504
10.892
10.752
10.6305
10.5274
10.4424
10.3749
14.1921
13.9198
13.6454
13.3738
13.105
12.8397
12.5792
12.3249
12.079
11.8435
11.6205
11.4117
11.2188
11.043
10.8851
10.7458
10.625
10.5227
10.4384
10.3716
14.1959
13.9217
13.6456
13.3723
13.1018
12.8351
12.5733
12.3182
12.0716
11.8357
11.6124
11.4037
11.2111
11.0357
10.8784
10.7397
10.6197
10.5181
10.4346
10.3686
14.2003
13.9241
13.646
13.3713
13.0992
12.8311
12.5681
12.3119
12.0646
11.8283
11.6048
11.3961
11.2037
11.0288
10.872
10.734
10.6146
10.5138
10.4311
10.3658
14.2058
13.9277
13.6476
13.3709
13.0977
12.828
12.5637
12.3065
12.0584
11.8214
11.5977
11.389
11.1968
11.0222
10.866
10.7285
10.6099
10.5098
10.4278
10.3632
14.2124
13.9323
13.6503
13.3719
13.0973
12.8261
12.5603
12.3018
12.0528
11.8153
11.5913
11.3825
11.1904
11.0161
10.8604
10.7235
10.6055
10.5061
10.4248
10.3608
14.2201
13.9381
13.6541
13.3738
13.0974
12.825
12.5576
12.2979
12.048
11.8099
11.5854
11.3765
11.1846
11.0106
10.8553
10.7189
10.6015
10.5028
10.4221
10.3587
14.229
13.945
13.6589
13.3765
13.0981
12.8243
12.5557
12.2949
12.0441
11.8052
11.5804
11.3713
11.1793
11.0056
10.8507
10.7149
10.5981
10.4999
10.4198
10.3569
14.2391
13.9531
13.665
13.3806
13.1001
12.8245
12.5551
12.2932
12.0412
11.8015
11.5761
11.3668
11.1749
11.0013
10.8468
10.7115
10.5953
10.4977
10.4182
10.3558
14.2507
13.9627
13.6724
13.3859
13.1034
12.826
12.5553
12.2925
12.0394
11.7989
11.5728
11.3632
11.1711
10.9978
10.8436
10.7089
10.5934
10.4967
10.4178
10.3559
14.2636
13.9736
13.6812
13.3924
13.1078
12.8284
12.5558
12.292
12.0384
11.797
11.5703
11.3603
11.1683
10.995
10.8411
10.7069
10.5921
10.4961
10.4177
10.3561
14.2778
13.9859
13.6913
13.4003
13.1135
12.832
12.5576
12.2921
12.0377
11.7956
11.5687
11.3584
11.1662
10.9929
10.8392
10.7051
10.5904
10.4947
10.4165
10.3552
14.2935
13.9996
13.7029
13.4096
13.1205
12.8369
12.5605
12.2934
12.0377
11.7955
11.5682
11.3575
11.165
10.9915
10.8377
10.7037
10.5892
10.4936
10.4156
10.3543
14.3108
14.015
13.716
13.4203
13.1289
12.8431
12.5647
12.2958
12.0387
11.7956
11.5676
11.3565
11.1637
10.9901
10.8363
10.7026
10.5883
10.4932
10.4156
10.3542
14.3297
14.0319
13.7307
13.4326
13.1388
12.8506
12.57
12.2992
12.0404
11.7957
11.5668
11.3553
11.1624
10.9889
10.8352
10.7016
10.5875
10.4924
10.4155
10.3552
14.3502
14.0506
13.747
13.4465
13.1502
12.8596
12.5767
12.3039
12.0433
11.7972
11.5675
11.3557
11.1625
10.9885
10.8346
10.7008
10.5868
10.4919
10.4151
10.3556
14.3726
14.0711
13.7653
13.4622
13.1633
12.8701
12.5849
12.3099
12.0474
11.7998
11.5689
11.3564
11.1629
10.9888
10.8348
10.701
10.5871
10.4922
10.4155
10.356
14.3969
14.0935
13.7854
13.4798
13.1782
12.8824
12.5947
12.3174
12.0528
11.8034
11.5709
11.3571
11.163
10.9886
10.8346
10.701
10.5873
10.4925
10.4158
10.3563
14.4232
14.1182
13.8078
13.4996
13.1952
12.8967
12.6063
12.3265
12.0598
11.8084
11.5743
11.3589
11.1634
10.9883
10.834
10.7003
10.5865
10.4917
10.4151
10.3558
14.4518
14.1451
13.8325
13.5217
13.2145
12.9131
12.62
12.3377
12.0686
11.8152
11.5792
11.3624
11.1656
10.9897
10.8346
10.7004
10.5864
10.4916
10.415
10.3557
14.4828
14.1747
13.8599
13.5464
13.2363
12.932
12.6361
12.3511
12.0796
11.8239
11.5861
11.3676
11.1696
10.9925
10.8366
10.7017
10.5874
10.4923
10.4155
10.3561
14.5166
14.2071
13.8902
13.574
13.261
12.9537
12.6548
12.367
12.093
11.8351
11.5953
11.3751
11.1756
10.9973
10.8405
10.7047
10.5893
10.4936
10.4165
10.3568
14.5534
14.2428
13.9238
13.605
13.289
12.9786
12.6766
12.3859
12.1093
11.849
11.6071
11.3851
11.1841
11.0046
10.8467
10.71
10.594
10.4977
10.4201
10.36
14.5936
14.282
13.961
13.6395
13.3205
13.007
12.7018
12.4082
12.1287
11.8659
11.6219
11.398
11.1954
11.0146
10.8555
10.718
10.6012
10.5043
10.4261
10.3655
14.6375
14.3251
14.0022
13.6782
13.3561
13.0393
12.7309
12.4341
12.1518
11.8864
11.6401
11.4142
11.2099
11.0276
10.8674
10.7289
10.6112
10.5136
10.4348
10.3736
14.6855
14.3726
14.048
13.7214
13.3963
13.0761
12.7644
12.4643
12.179
11.9108
11.662
11.4341
11.228
11.0441
10.8826
10.743
10.6244
10.5259
10.4464
10.3845
14.7381
14.4251
14.0989
13.7697
13.4415
13.1179
12.8027
12.4992
12.2107
11.9397
11.6883
11.458
11.25
11.0645
10.9015
10.7606
10.641
10.5415
10.4611
10.3983
14.7959
14.4829
14.1554
13.8237
13.4923
13.1653
12.8464
12.5395
12.2476
11.9734
11.7193
11.4866
11.2764
11.0891
10.9246
10.7823
10.6614
10.5608
10.4793
10.4155
14.8593
14.547
14.2182
13.8842
13.5496
13.2189
12.8964
12.5857
12.2903
12.0129
11.7558
11.5205
11.308
11.1186
10.9523
10.8085
10.6862
10.5843
10.5016
10.4366
14.9291
14.6178
14.2882
13.9519
13.6141
13.2797
12.9533
12.6387
12.3396
12.0587
11.7985
11.5604
11.3453
11.1538
10.9855
10.8399
10.716
10.6127
10.5285
10.462
15.0061
14.6964
14.3662
14.0277
13.6868
13.3487
13.0182
12.6996
12.3965
12.112
11.8483
11.6072
11.3894
11.1954
11.025
10.8774
10.7517
10.6466
10.5608
10.4927
15.091
14.7836
14.4532
14.1129
13.7688
13.4269
13.0923
12.7694
12.4622
12.1738
11.9065
11.662
11.4413
11.2446
11.0717
10.9219
10.7941
10.6871
10.5993
10.5293
15.185
14.8806
14.5507
14.2086
13.8616
13.5158
13.1769
12.8497
12.5381
12.2455
11.9744
11.7264
11.5024
11.3027
11.1271
10.9748
10.8447
10.7354
10.6454
10.5731
15.2891
14.9888
14.6599
14.3165
13.9667
13.6171
13.2738
12.942
12.6259
12.329
12.0537
11.8018
11.5743
11.3714
11.1928
11.0376
10.9048
10.7929
10.7002
10.6253
15.4049
15.1099
14.7827
14.4386
14.0861
13.7328
13.3852
13.0487
12.7278
12.4262
12.1465
11.8905
11.6592
11.4527
11.2707
11.1124
10.9764
10.8615
10.7658
10.6877
15.534
15.2458
14.9214
14.5771
14.2224
13.8655
13.5135
13.1722
12.8465
12.5401
12.2557
11.9953
11.7597
11.5493
11.3635
11.2016
11.0621
10.9436
10.8443
10.7625
15.6785
15.3988
15.0785
14.7349
14.3786
14.0185
13.6623
13.3162
12.9854
12.674
12.3847
12.1195
11.8794
11.6646
11.4747
11.3086
11.165
11.0424
10.9388
10.8526
15.8408
15.5719
15.2575
14.9158
14.5586
14.1958
13.8356
13.4849
13.1492
12.8326
12.5382
12.2679
12.0229
11.8033
11.6087
11.4379
11.2895
11.1619
11.0533
10.9616
16.024
15.7689
15.4625
15.1244
14.7675
14.4028
14.0393
13.6843
13.3437
13.022
12.7223
12.4468
12.1966
11.9717
11.7716
11.5954
11.4414
11.3079
11.193
11.0946
16.2319
15.9944
15.6991
15.3668
15.0121
14.6469
14.281
13.9224
13.5773
13.2507
12.9458
12.6649
12.409
12.1783
11.9722
11.7896
11.6288
11.4881
11.3654
11.2587
16.4694
16.2547
15.9746
15.6514
15.3014
14.9377
14.5711
14.2101
13.8616
13.5306
13.2209
12.9345
12.6727
12.4356
12.2226
12.0324
11.8634
11.7137
11.5812
11.4637
16.7427
16.5577
16.2986
15.9894
15.6481
15.2892
14.9244
14.5633
14.213
13.879
13.5651
13.2737
13.0059
12.7618
12.5408
12.3416
12.1623
12.0011
11.8557
11.7239
17.0602
16.9147
16.685
16.3967
16.07
15.7209
15.3624
15.0047
14.6556
14.3209
14.0047
13.7092
13.4357
13.1842
12.954
12.7436
12.5512
12.3748
12.2121
12.0609
17.4327
17.3406
17.1524
16.8956
16.5926
16.2613
15.9161
15.5679
15.2252
14.8941
14.5786
14.2813
14.0032
13.7441
13.5032
13.279
13.0694
12.8725
12.6859
12.5075
17.8763
17.857
17.728
17.5181
17.2528
16.9519
16.6311
16.3024
15.9749
15.6547
15.3461
15.0513
14.771
14.5051
14.2521
14.0104
13.7779
13.5525
13.332
13.1144
18.4144
18.4929
18.4498
18.3104
18.1039
17.8528
17.5743
17.2814
16.9836
16.6872
16.396
16.1119
15.8351
15.5646
15.2986
15.035
14.7715
14.5059
14.2364
13.9612
19.0828
19.2952
19.3735
19.3385
19.2226
19.0511
18.8429
18.6119
18.3677
18.1164
17.8611
17.6024
17.3396
17.0704
16.792
16.5015
16.1961
15.8737
15.5325
15.1717
19.9188
20.3315
20.573
20.6945
20.7163
20.67
20.575
20.4461
20.2933
20.1215
19.9323
19.7244
19.495
19.2395
18.9533
18.6317
18.271
17.8688
17.4237
16.9361
20.9802
21.6747
22.1734
22.5088
22.7298
22.8793
22.9596
22.9916
22.9873
22.9474
22.8708
22.7539
22.5904
22.3718
22.0898
21.7369
21.3073
20.7973
20.206
19.5349
22.3482
23.4373
24.2984
24.9659
25.4905
25.9092
26.2421
26.5076
26.7381
26.9014
27.0005
27.0307
26.9821
26.8381
26.5846
26.2092
25.7025
25.0579
24.2731
23.3502
24.123
25.7598
27.1285
28.2605
29.2131
30.0284
30.7345
31.3491
31.8804
32.3223
32.6605
32.8991
33.0341
33.0153
32.8279
32.4536
31.8766
31.0847
30.0708
28.8338
26.4311
28.814
30.8749
32.6378
34.1679
35.5145
36.7104
37.7739
38.7111
39.5166
40.1777
40.6784
41.0039
41.161
41.0815
40.7449
40.1273
39.2068
37.9657
36.3918
29.4269
32.8006
35.7716
38.3501
40.6115
42.6144
44.398
45.9858
47.3867
48.5982
49.6101
50.4066
50.968
51.2833
51.3473
51.087
50.4763
49.4815
48.0687
46.205
33.2921
37.939
42.0531
45.625
48.7451
51.4887
53.9098
56.0443
57.9105
59.516
60.8593
61.9312
62.7166
63.2016
63.3896
63.2314
62.6719
61.6711
60.1764
58.1284
38.2316
44.452
49.9276
54.6309
58.6827
62.1907
65.2378
67.884
70.1682
72.1159
73.7391
75.0407
76.0162
76.6563
76.9552
76.8836
76.3975
75.4433
73.946
71.8222
44.4663
52.5478
59.5557
65.4656
70.4579
74.698
78.3156
81.4088
84.0458
86.2744
88.1235
89.6097
90.7379
91.5046
91.8973
91.8978
91.4932
90.6114
89.1533
87.0193
52.2183
62.4015
71.0427
78.1691
84.0632
88.9754
93.0987
96.5777
99.5135
101.978
104.017
105.66
106.919
107.793
108.27
108.337
108.005
107.2
105.791
103.666
61.6938
74.1449
84.4495
92.757
99.4962
105.023
109.603
113.428
116.633
119.312
121.527
123.317
124.7
125.683
126.255
126.394
126.109
125.367
124.001
121.88
73.0638
87.8659
99.8113
109.248
116.782
122.885
127.894
132.048
135.512
138.401
140.788
142.725
144.235
145.327
145.99
146.199
145.97
145.289
143.961
141.836
86.4538
103.618
117.156
127.673
135.968
142.626
148.053
152.53
156.25
159.347
161.909
163.995
165.635
166.84
167.598
167.881
167.709
167.092
165.811
163.688
101.941
121.429
136.506
148.067
157.101
164.3
170.133
174.924
178.892
182.19
184.92
187.151
188.92
190.242
191.102
191.467
191.36
190.815
189.602
187.507
119.564
141.31
157.874
170.443
180.19
187.906
194.122
199.2
203.388
206.86
209.734
212.093
213.981
215.417
216.387
216.854
216.827
216.366
215.259
213.238
139.323
163.246
181.236
194.766
205.178
213.358
219.897
225.201
229.547
233.135
236.102
238.546
240.522
242.061
243.153
243.773
243.865
243.47
242.516
240.641
161.189
187.182
206.512
220.916
231.897
240.437
247.189
252.603
256.994
260.59
263.553
266.001
268.005
269.603
270.795
271.553
271.807
271.585
270.848
269.228
185.09
213.004
233.531
248.656
260.039
268.756
275.531
280.863
285.111
288.54
291.342
293.66
295.584
297.171
298.426
299.327
299.792
299.81
299.38
298.184
210.896
240.509
262.004
277.598
289.109
297.715
304.214
309.169
312.988
315.982
318.382
320.364
322.045
323.502
324.761
325.81
326.585
326.988
326.944
326.343
238.409
269.388
291.494
307.171
318.395
326.458
332.243
336.388
339.364
341.537
343.186
344.534
345.732
346.883
348.031
349.189
350.303
351.275
351.93
352.088
267.342
299.207
321.401
336.597
346.937
353.84
358.296
361.029
362.593
363.411
363.825
364.133
364.533
365.128
365.991
367.17
368.631
370.285
371.947
373.377
297.324
329.408
350.959
364.885
373.514
378.417
380.714
381.228
380.656
379.417
377.911
376.441
375.275
374.749
374.964
375.999
377.848
380.458
383.656
387.131
327.911
359.328
379.248
390.843
396.657
398.451
397.55
394.716
390.622
386.139
381.958
378.727
376.23
374.769
374.475
375.317
377.374
380.644
384.98
390.162
358.63
388.245
405.256
413.117
414.688
412.036
406.141
398.699
391.172
383.63
376.558
370.104
365.278
362.173
360.909
361.459
363.741
367.973
374.07
381.883
389.042
415.455
427.878
430.371
426.066
416.845
405.596
392.981
379.595
367.057
355.884
346.504
339.244
334.372
332.068
332.306
334.829
340.075
348.068
358.661
418.822
440.18
446.141
441.315
428.819
412.125
392.576
372.563
353.287
335.694
320.402
307.824
298.21
291.758
288.611
288.699
291.591
297.937
307.936
321.514
447.652
461.852
459.312
444.018
421.092
393.946
365.388
337.583
311.998
289.557
270.725
255.708
244.541
237.245
233.86
234.228
237.873
245.671
257.962
274.786
475.655
480.878
466.232
437.874
401.609
362.313
323.659
288.159
257.234
231.486
210.929
195.311
184.274
177.561
175.059
176.478
181.654
191.738
207.104
227.898
503.443
497.026
466.551
421.054
368.828
316.42
268.387
227.28
193.949
168.131
148.965
135.498
126.887
122.594
122.391
125.941
134.006
147.893
168.358
197.177
532.706
509.524
458.199
391.785
322.135
257.984
204.208
162.317
131.558
110.03
95.6825
86.8873
82.5189
82.0192
84.9624
91.7311
103.674
122.957
152.772
192.139
562.635
515.996
438.045
347.805
262.855
193.056
141.185
105.411
82.1715
67.8466
59.6078
55.6596
55.025
57.2349
62.5746
72.4788
88.8788
116.574
156.383
217.872
593.273
514.207
401.575
287.761
194.205
128.126
86.5013
61.9409
48.5121
41.6
38.5302
38.0145
39.5585
43.3585
50.478
62.8569
84.9944
121.053
184.834
290.194
621.125
492.432
339.652
209.991
123.445
74.1411
49.5491
37.859
32.1222
29.3882
28.5319
29.1883
31.3839
35.7588
43.6119
57.9626
86.2396
139.005
245.693
417.88
632.857
436.221
249.671
128.588
69.5378
44.5725
33.2607
27.5921
24.6587
23.3425
23.1888
24.1029
26.3528
30.6979
38.8796
55.2204
91.2594
170.366
337.765
586.333
619.67
337.369
153.518
76.511
46.3054
32.9091
26.2395
22.6871
20.8008
19.9506
19.9076
20.7193
22.7171
26.7376
34.8221
52.4077
95.9888
204.986
442.343
757.539
566.939
247.8
110.37
58.5951
37.387
27.6344
22.6771
19.958
18.46
17.7543
17.6817
18.3152
19.9743
23.4628
30.8121
47.6319
91.5712
218.633
508.628
907.41
561.559
234.472
99.8604
51.542
32.9286
24.5496
20.3372
18.0728
16.8472
16.2671
16.1799
16.6498
17.9415
20.7571
26.906
41.5864
82.044
205.064
527.231
1031.91
700.011
259.932
97.1405
47.2707
29.4481
21.964
18.44
16.6665
15.7581
15.3474
15.2901
15.5966
16.4996
18.5315
23.0722
34.1192
65.4535
168.478
488.259
1099.78
947.926
286.755
92.5779
41.5675
25.5599
19.4959
16.8823
15.6814
15.1462
14.9337
14.9117
15.0894
15.6123
16.8729
19.8723
27.3799
49.1683
125.768
406.19
1114.72
1039.41
261.019
73.8576
32.5267
21.1185
17.2234
15.7278
15.1169
14.8636
14.7677
14.7555
14.8268
15.0619
15.7029
17.3136
21.5017
33.7689
78.5103
276.615
968.4
875.367
154.777
42.6263
22.1911
17.0923
15.5513
15.0301
14.8509
14.7791
14.7416
14.7386
14.7764
14.8895
15.2054
15.9875
18.0995
24.3753
46.2239
143.073
615.385
268.286
53.7207
23.4211
17.2932
15.6069
15.0622
14.8841
14.8253
14.8071
14.8019
14.7984
14.793
14.7881
14.7451
14.6914
14.6331
14.7436
16.6504
36.9642
236.764
10.2119
10.1738
10.1305
10.0903
10.0535
10.0206
9.99151
9.96657
9.9459
9.92958
9.9177
9.91028
9.90723
9.90847
9.91414
9.92419
9.93857
9.95729
9.98033
10.0077
10.2274
10.1888
10.1453
10.1049
10.068
10.0348
10.0055
9.98049
9.95974
9.9434
9.9315
9.92408
9.921
9.92217
9.92773
9.93762
9.9518
9.97027
9.99304
10.0201
10.2388
10.2001
10.1564
10.1158
10.0786
10.0452
10.0159
9.99085
9.97019
9.954
9.94227
9.935
9.93203
9.93324
9.93876
9.9485
9.96245
9.98062
10.0031
10.0298
10.2481
10.2093
10.1655
10.1246
10.0872
10.0536
10.0243
9.99934
9.97901
9.96325
9.95187
9.94478
9.94179
9.94292
9.94817
9.95753
9.97117
9.98908
10.0113
10.0378
10.2559
10.217
10.1731
10.132
10.0943
10.0604
10.0309
10.0063
9.98632
9.97038
9.95849
9.95075
9.94711
9.94726
9.95219
9.96092
9.97445
9.99222
10.014
10.0406
10.2625
10.2238
10.1798
10.1385
10.1003
10.0656
10.0351
10.0098
9.98919
9.97252
9.96002
9.95189
9.94831
9.9481
9.95261
9.96123
9.97499
9.99255
10.014
10.0404
10.2672
10.2286
10.1851
10.1436
10.1044
10.0686
10.0372
10.0109
9.98995
9.97304
9.96031
9.95212
9.94856
9.94927
9.95319
9.96217
9.97551
9.9928
10.0139
10.0399
10.2705
10.2314
10.1876
10.1457
10.106
10.0702
10.0389
10.0124
9.99106
9.97365
9.96063
9.95237
9.94871
9.94998
9.9542
9.9616
9.97474
9.99177
10.0128
10.0393
10.2738
10.2338
10.189
10.1469
10.1079
10.0726
10.0413
10.0143
9.99181
9.97385
9.96065
9.95242
9.94937
9.94975
9.95389
9.96159
9.9746
9.99218
10.0142
10.0409
10.2784
10.2379
10.1928
10.1506
10.1118
10.0766
10.0454
10.0184
9.99578
9.97772
9.96435
9.95571
9.95166
9.95182
9.95628
9.9652
9.97858
9.99643
10.0187
10.0454
10.2843
10.2436
10.1983
10.1559
10.117
10.0816
10.0502
10.0232
10.0007
9.98292
9.96988
9.96162
9.9579
9.95838
9.96324
9.97231
9.9857
10.0035
10.0258
10.0525
10.2913
10.2503
10.2048
10.1622
10.1226
10.0863
10.0546
10.0278
10.0057
9.9883
9.97597
9.96856
9.96524
9.96571
9.9703
9.97903
9.99244
10.0108
10.0338
10.0608
10.2986
10.2572
10.2111
10.1673
10.1263
10.0896
10.0582
10.0319
10.0103
9.9929
9.98019
9.97211
9.96878
9.96909
9.97316
9.98124
9.99468
10.0136
10.0375
10.065
10.3022
10.2606
10.214
10.1692
10.128
10.0918
10.0606
10.0343
10.0123
9.99457
9.98105
9.9719
9.96848
9.96857
9.97269
9.98092
9.99476
10.0136
10.0376
10.0648
10.3025
10.2606
10.2142
10.1702
10.1306
10.0949
10.0635
10.0365
10.014
9.99603
9.98248
9.97348
9.96914
9.96929
9.97421
9.98382
9.998
10.0166
10.0393
10.066
10.3028
10.2608
10.2159
10.1742
10.1358
10.1007
10.0695
10.0424
10.0198
10.0016
9.98787
9.97888
9.97452
9.97476
9.97996
9.98998
10.0046
10.0235
10.0463
10.073
10.3038
10.2628
10.2182
10.177
10.1387
10.104
10.0733
10.0467
10.0246
10.0069
9.99363
9.98507
9.98098
9.9813
9.98652
9.99658
10.0111
10.0299
10.0526
10.0792
10.3073
10.2653
10.2193
10.1773
10.1385
10.1036
10.0731
10.0477
10.0262
10.009
9.99616
9.98792
9.98393
9.98376
9.98877
9.99883
10.0133
10.0323
10.0551
10.0817
10.3133
10.2703
10.2232
10.1794
10.1395
10.1039
10.0729
10.0473
10.0255
10.0081
9.99528
9.98718
9.98334
9.98323
9.98879
9.9996
10.0143
10.0331
10.055
10.081
10.322
10.2783
10.2305
10.1861
10.1454
10.109
10.077
10.0496
10.0269
10.0091
9.99613
9.98811
9.98469
9.98565
9.99141
10.0021
10.0162
10.034
10.0552
10.0811
10.3331
10.289
10.2407
10.1958
10.1547
10.1178
10.0854
10.0576
10.0345
10.0164
10.0032
9.9949
9.99122
9.99191
9.9972
10.0069
10.0208
10.0388
10.0607
10.0865
10.3464
10.3019
10.2534
10.2081
10.1667
10.1294
10.0967
10.0686
10.0453
10.027
10.0136
10.0052
10.0014
10.002
10.0071
10.0167
10.0304
10.0482
10.0698
10.0952
10.3619
10.3171
10.2683
10.2227
10.181
10.1434
10.1104
10.082
10.0586
10.0401
10.0266
10.0181
10.0142
10.0147
10.0198
10.0292
10.0428
10.0603
10.0816
10.1064
10.3798
10.3347
10.2857
10.2399
10.1979
10.16
10.1267
10.0981
10.0745
10.0558
10.0422
10.0336
10.0296
10.0301
10.0351
10.0444
10.0578
10.0751
10.0959
10.1203
10.4005
10.3552
10.3061
10.2601
10.2178
10.1797
10.1461
10.1173
10.0935
10.0747
10.0609
10.0522
10.0482
10.0485
10.0534
10.0626
10.0758
10.0928
10.1132
10.137
10.4243
10.379
10.3298
10.2837
10.2412
10.2029
10.1692
10.1402
10.1162
10.0972
10.0833
10.0745
10.0704
10.0706
10.0754
10.0844
10.0973
10.1139
10.1338
10.1569
10.4518
10.4065
10.3574
10.3112
10.2687
10.2303
10.1963
10.1672
10.143
10.1239
10.1099
10.1009
10.0967
10.0968
10.1013
10.1101
10.1226
10.1388
10.1581
10.1804
10.4836
10.4383
10.3894
10.3433
10.3008
10.2623
10.2282
10.1989
10.1746
10.1554
10.1412
10.1321
10.1277
10.1276
10.1319
10.1402
10.1524
10.1679
10.1865
10.2078
10.5202
10.4753
10.4267
10.3808
10.3382
10.2997
10.2655
10.2362
10.2117
10.1923
10.178
10.1687
10.1641
10.1637
10.1677
10.1756
10.1871
10.2019
10.2196
10.2398
10.5626
10.5181
10.47
10.4244
10.382
10.3435
10.3093
10.2799
10.2553
10.2357
10.2212
10.2117
10.2069
10.2062
10.2096
10.2169
10.2277
10.2416
10.2582
10.277
10.6119
10.568
10.5206
10.4755
10.4333
10.3949
10.3608
10.3312
10.3065
10.2868
10.272
10.2622
10.257
10.256
10.2588
10.2654
10.2753
10.2881
10.3033
10.3205
10.6692
10.6262
10.5798
10.5353
10.4936
10.4555
10.4214
10.3918
10.3669
10.347
10.332
10.3218
10.3161
10.3145
10.3166
10.3223
10.3311
10.3426
10.3561
10.3713
10.7363
10.6945
10.6495
10.6059
10.5649
10.5271
10.4932
10.4636
10.4386
10.4184
10.403
10.3923
10.386
10.3837
10.3849
10.3895
10.3969
10.4067
10.4182
10.4311
10.8151
10.7751
10.7319
10.6897
10.6495
10.6123
10.5787
10.5493
10.5242
10.5037
10.4878
10.4765
10.4694
10.4661
10.4662
10.4693
10.4749
10.4826
10.4916
10.5015
10.9085
10.8709
10.8302
10.7899
10.7511
10.7148
10.6818
10.6525
10.6273
10.6065
10.59
10.5778
10.5696
10.5651
10.5635
10.5648
10.5681
10.5731
10.5789
10.585
11.0202
10.9861
10.949
10.9114
10.8746
10.8397
10.8075
10.7786
10.7534
10.7321
10.7148
10.7015
10.6917
10.6853
10.6816
10.6802
10.6805
10.6819
10.6836
10.6849
11.1557
11.1266
11.0946
11.0611
11.0273
10.9945
10.9636
10.9354
10.9102
10.8883
10.8699
10.8549
10.843
10.8339
10.8271
10.822
10.818
10.8145
10.8106
10.8057
11.323
11.3013
11.2771
11.2496
11.2205
11.191
11.1623
11.1351
11.11
11.0874
11.0673
11.0499
11.0347
11.0217
11.0101
10.9996
10.9894
10.979
10.9673
10.9538
11.5344
11.5242
11.5118
11.4939
11.4721
11.4479
11.4227
11.3973
11.3725
11.3487
11.3261
11.3048
11.2846
11.2654
11.2466
11.2278
11.2084
11.1877
11.1648
11.139
11.8091
11.8175
11.8242
11.8214
11.8114
11.796
11.7765
11.7543
11.73
11.7043
11.6776
11.6501
11.6218
11.5927
11.5623
11.5305
11.4967
11.4603
11.4205
11.3764
12.1824
12.2185
12.2562
12.2777
12.2868
12.286
12.2764
12.2594
12.2362
12.2076
12.1742
12.1365
12.0948
12.0494
12.0002
11.9472
11.8902
11.8289
11.7626
11.6904
12.7114
12.795
12.8789
12.9376
12.9778
13.0024
13.0094
13.0017
12.9807
12.9476
12.9032
12.8486
12.7846
12.712
12.6314
12.5434
12.4484
12.3465
12.2373
12.1205
13.4826
13.6444
13.8102
13.9366
14.0261
14.0834
14.1186
14.126
14.1098
14.0699
14.0079
13.9255
13.8244
13.7067
13.5738
13.4276
13.2694
13.1004
12.9212
12.7319
14.6405
14.9315
15.2314
15.4676
15.6422
15.7591
15.8244
15.8564
15.8535
15.8045
15.7149
15.5881
15.4271
15.2356
15.017
14.7751
14.5128
14.2334
13.939
13.6311
16.4089
16.9066
17.4196
17.8292
18.1379
18.3516
18.4783
18.5361
18.5461
18.4843
18.3545
18.1605
17.9077
17.6018
17.2488
16.855
16.4265
15.9693
15.4886
14.9888
19.1115
19.9215
20.7515
21.4147
21.9144
22.2605
22.4658
22.5592
22.5811
22.5179
22.3372
22.0529
21.6729
21.2054
20.6586
20.0417
19.3639
18.6356
17.8664
17.0656
23.162
24.3981
25.6468
26.6321
27.3644
27.8652
28.1609
28.2976
28.3325
28.2616
28.0248
27.6393
27.1129
26.4531
25.6675
24.7647
23.7552
22.6522
21.4711
20.2285
28.9741
30.6961
32.3905
33.6883
34.624
35.2453
35.6005
35.7573
35.8025
35.7314
35.4563
34.9954
34.3529
33.5297
32.5253
31.3387
29.9723
28.4352
26.7443
24.9233
36.7559
38.8774
40.8814
42.3382
43.3371
43.9679
44.3081
44.4474
44.485
44.4238
44.1496
43.6802
43.0139
42.1406
41.0439
39.7001
38.0835
36.1813
33.9994
31.555
46.288
48.552
50.5734
51.9169
52.7769
53.282
53.5283
53.6144
53.6312
53.5826
53.3431
52.9321
52.346
51.5688
50.5732
49.3086
47.6856
45.6474
43.1833
40.2663
56.9663
59.1067
61.0398
62.3598
63.2052
63.6933
63.9283
64.0123
64.0282
63.9897
63.753
63.3399
62.7469
61.9591
60.9519
59.6901
58.1307
56.2037
53.8054
50.7677
68.7534
70.9923
72.9999
74.3749
75.2679
75.7987
76.0769
76.1739
76.1715
76.1421
75.9001
75.4665
74.8388
74.0071
72.9533
71.6434
70.0282
68.0336
65.5641
62.5026
82.2443
84.7242
86.955
88.4971
89.5104
90.1257
90.4575
90.5655
90.5634
90.5513
90.3154
89.8618
89.1881
88.2865
87.1372
85.707
83.9478
81.7911
79.1439
75.8722
97.9408
100.786
103.355
105.148
106.348
107.099
107.515
107.648
107.636
107.631
107.445
106.963
106.227
105.233
103.959
102.372
100.419
98.0266
95.0906
91.4659
116.313
119.634
122.646
124.769
126.213
127.139
127.674
127.896
127.976
128.025
127.763
127.232
126.423
125.324
123.906
122.13
119.938
117.246
113.937
109.845
137.825
141.737
145.301
147.842
149.598
150.75
151.432
151.742
151.866
151.951
151.717
151.169
150.295
149.082
147.498
145.502
143.025
139.976
136.216
131.555
162.97
167.596
171.831
174.886
177.034
178.479
179.368
179.838
180.013
180.052
179.93
179.375
178.432
177.093
175.322
173.075
170.269
166.804
162.515
157.182
192.264
197.742
202.782
206.461
209.093
210.898
212.011
212.585
212.95
213.211
213.055
212.484
211.471
209.998
208.021
205.49
202.311
198.367
193.468
187.358
226.243
232.727
238.723
243.157
246.39
248.676
250.171
251.011
251.432
251.672
251.682
251.151
250.09
248.484
246.286
243.443
239.846
235.362
229.771
222.773
265.433
273.094
280.214
285.547
289.509
292.393
294.394
295.655
296.321
296.546
296.512
296.1
295
293.259
290.829
287.647
283.592
278.509
272.142
264.144
310.32
319.346
327.775
334.167
338.992
342.588
345.182
346.939
347.974
348.389
348.387
348.02
346.884
345.014
342.347
338.811
334.264
328.528
321.309
312.201
361.298
371.894
381.833
389.461
395.308
399.752
403.044
405.361
406.821
407.529
407.693
407.442
406.319
404.351
401.463
397.569
392.508
386.076
377.935
367.618
418.6
430.984
442.647
451.703
458.748
464.203
468.346
471.362
473.365
474.451
474.862
474.796
473.758
471.742
468.662
464.422
458.839
451.683
442.567
430.957
482.206
496.601
510.199
520.887
529.322
535.974
541.148
545.043
547.765
549.379
550.092
550.227
549.409
547.405
544.176
539.617
533.522
525.631
515.508
502.546
553.78
570.322
585.999
598.419
608.312
616.203
622.438
627.242
630.734
632.989
634.148
634.473
633.787
631.803
628.467
623.626
617.045
608.426
597.273
582.897
634.905
653.773
671.708
685.995
697.452
706.667
714.034
719.81
724.136
727.092
728.76
729.386
728.894
726.993
723.617
718.554
711.532
702.207
690.008
674.15
727.119
748.485
768.849
785.136
798.263
808.891
817.469
824.291
829.523
833.259
835.546
836.577
836.363
834.635
831.328
826.143
818.766
808.798
795.58
778.215
831.868
855.871
878.795
897.184
912.064
924.181
934.044
941.991
948.215
952.828
955.852
957.41
957.574
956.135
953.047
947.891
940.305
929.822
915.683
896.856
950.467
977.167
1002.71
1023.23
1039.9
1053.53
1064.72
1073.85
1081.14
1086.73
1090.65
1092.94
1093.62
1092.59
1089.86
1084.97
1077.4
1066.63
1051.77
1031.64
1084
1113.33
1141.41
1164
1182.37
1197.48
1209.97
1220.29
1228.7
1235.35
1240.28
1243.49
1244.91
1244.49
1242.35
1238.04
1230.83
1220.12
1204.88
1183.77
1233.2
1264.89
1295.24
1319.62
1339.48
1355.87
1369.53
1380.97
1390.49
1398.27
1404.35
1408.72
1411.23
1411.73
1410.32
1407.02
1400.67
1390.54
1375.48
1353.93
1398.19
1431.68
1463.72
1489.39
1510.27
1527.56
1542.1
1554.45
1564.98
1573.9
1581.24
1586.98
1590.94
1592.87
1592.74
1590.76
1585.91
1577.13
1563.05
1541.91
1578.22
1612.52
1645.26
1671.31
1692.44
1709.97
1724.84
1737.71
1749
1758.96
1767.65
1775.04
1780.93
1785.04
1786.91
1786.56
1783.95
1777.57
1765.66
1746.21
1771.15
1804.71
1836.59
1861.63
1881.77
1898.49
1912.83
1925.56
1937.14
1947.9
1957.91
1967.17
1975.45
1982.47
1987.66
1990.38
1990.34
1987.45
1979.32
1963.36
1972.9
2003.45
2032.16
2054.14
2071.51
2085.87
2098.4
2109.95
2121.07
2132.14
2143.28
2154.51
2165.61
2176.28
2185.88
2193.69
2198.55
2199.88
2197.15
2187.19
2176.71
2201.03
2223.38
2239.46
2251.58
2261.44
2270.36
2279.28
2288.84
2299.45
2311.28
2324.42
2338.66
2353.7
2368.9
2383.49
2396.18
2405.47
2409.68
2408.02
2372.2
2386.05
2397.77
2404.26
2407.9
2410.47
2413.4
2417.78
2424.3
2433.37
2445.19
2459.94
2477.44
2497.43
2519.29
2542.39
2565.37
2586.6
2603.68
2613.65
2544.51
2542.64
2538.27
2530.69
2522.1
2513.88
2507.8
2505.29
2507.28
2513.44
2524.25
2540.03
2560.65
2585.84
2614.9
2648.08
2683.61
2719.53
2753.07
2781.43
2675.33
2651.22
2624.22
2595.15
2567.52
2544.13
2526.58
2516.33
2514.94
2517.65
2526.64
2542.51
2565.22
2594.24
2627.36
2670.08
2719.22
2773.22
2829.42
2883.56
2735.42
2681.83
2631.92
2583.84
2540.79
2504.28
2475.04
2452.63
2434.58
2428.42
2432.96
2447.89
2473.4
2510.41
2560.87
2615.42
2676.97
2745.36
2818.58
2893.4
2710.66
2625.56
2535.82
2457.56
2390.12
2333.72
2288.42
2254.21
2231.93
2221.17
2221.63
2234.36
2259.5
2297.69
2349.25
2414.38
2491.77
2581.03
2680.71
2788.9
2553.61
2429.87
2308.79
2203.42
2114.49
2041.62
1984.1
1941.23
1912.32
1896.73
1893.32
1903.17
1926.77
1965.26
2019.47
2090.56
2179.04
2285.06
2407.37
2543.65
2262.92
2105.4
1957.01
1831.6
1728.49
1645.88
1581.7
1534.01
1501.3
1482.51
1476.58
1484.01
1505.42
1542.64
1597.51
1672.22
1768.2
1886.79
2027.4
2187.34
1875.14
1693.65
1530.7
1396.85
1289.77
1206.06
1142.26
1095.48
1063.52
1044.99
1038.88
1045.43
1065.22
1100.86
1155.57
1233.16
1335.51
1465.28
1622.9
1804.44
1497.29
1300.58
1134.17
1001.68
898.687
820.185
761.783
719.973
692.244
677.034
673.329
681.268
701.459
736.657
789.643
864.475
966.14
1101.73
1277.23
1486.28
1192.18
971.506
801.136
676.385
584.525
517.479
469.236
435.542
413.681
402.035
399.529
406.384
423.414