/*--------------------------------*- C++ -*----------------------------------*\
  =========                 |
  \\      /  F ield         | OpenFOAM: The Open Source CFD Toolbox
   \\    /   O peration     | Website:  https://openfoam.org
    \\  /    A nd           | Version:  6
     \\/     M anipulation  |
\*---------------------------------------------------------------------------*/
FoamFile
{
    version     2.0;
    format      ascii;
    class       volScalarField;
    location    "25";
    object      epsilon;
}
// * * * * * * * * * * * * * * * * * * * * * * * * * * * * * * * * * * * * * //

dimensions      [0 2 -3 0 0 0 0];

internalField   nonuniform List<scalar> 
10000
(
265.866
359.495
234.396
151.213
99.3875
68.4113
50.5624
40.5943
35.3006
33.0668
33.2357
35.8118
41.469
51.699
69.5245
100.307
151.261
232.465
355.461
264.899
265.631
359.086
233.567
150.088
98.601
67.9207
50.2864
40.5667
35.3045
33.0629
33.2071
35.7401
41.417
51.595
69.2984
100.104
151.077
232.315
355.222
264.711
265.523
359.069
233.98
150.579
99.5527
68.6251
50.7001
40.5727
35.2948
33.0324
33.1917
35.7365
41.3777
51.3283
68.6456
99.8176
150.92
231.781
354.969
264.54
265.122
358.941
234.148
150.782
99.5266
68.6126
50.6966
40.7321
35.3575
33.1066
33.2456
35.8183
41.3177
51.7468
69.2418
99.496
150.681
232.823
355.322
264.902
265.205
358.985
234.786
151.543
98.8563
68.1332
50.3646
40.7251
35.3031
33.0722
33.2892
35.8413
41.4587
51.7663
69.655
99.8153
149.509
232.683
355.433
265.004
265.211
359.096
234.67
150.767
99.7558
68.6033
50.6404
40.7892
35.4167
33.1361
33.3074
35.7761
41.3185
51.6854
69.3206
100.15
150.572
232.701
355.569
265.193
265.458
358.923
234.482
151.943
99.7553
68.2655
50.8793
40.8176
35.434
33.1207
33.3235
35.8877
41.5125
51.491
69.6729
99.5237
151.087
232.562
355.835
265.028
265.523
358.679
233.624
151.712
99.5466
68.3042
50.9344
40.8171
35.4359
33.1253
33.3158
35.8184
41.5159
51.6206
69.7381
99.7265
150.248
231.76
355.795
265.312
265.545
358.966
234.483
151.605
98.8318
68.5565
50.9634
40.8009
35.4046
33.1806
33.3241
35.8956
41.5351
51.8025
69.7201
99.9262
150.912
232.557
355.836
265.293
265.568
358.914
233.771
150.97
99.8553
69.0549
50.999
40.7563
35.4703
33.2401
33.3561
35.8258
41.4882
51.7301
69.6863
100.536
151.674
233.257
355.843
265.378
265.892
358.916
234.387
151.691
99.7294
69.0071
50.9473
40.6883
35.3899
33.233
33.3813
35.898
41.4569
51.4098
69.1201
100.398
151.612
233.258
355.789
265.613
266.425
358.822
233.536
151.389
98.9147
68.8235
50.9607
40.7464
35.4527
33.2338
33.3715
35.8723
41.4361
51.6282
69.4689
100.242
151.383
233.182
356.252
265.901
266.458
358.536
234.172
150.671
99.6304
68.8055
50.8816
40.7418
35.3694
33.2251
33.3562
35.7828
41.2581
51.3142
68.947
100.072
151.199
233.053
356.428
265.994
266.508
358.483
233.474
151.272
99.113
68.3032
50.5537
40.7627
35.4405
33.2189
33.3467
35.8659
41.4278
51.6276
69.4436
99.9034
150.364
232.843
356.125
265.909
266.211
358.408
233.913
150.452
99.0975
68.5898
50.6365
40.6556
35.4484
33.2009
33.3193
35.7656
41.2531
51.3166
68.939
99.2281
151.175
232.76
356.784
265.946
266.399
358.605
234.409
151.379
99.1481
68.4695
50.5181
40.6481
35.4207
33.1783
33.2784
35.8019
41.3565
51.5355
69.3908
100.117
151.142
231.933
356.796
265.868
266.244
358.475
234.234
150.424
99.2947
67.9685
50.5576
40.6927
35.41
33.1635
33.2821
35.7036
41.2813
51.4231
69.2328
99.9426
150.988
232.635
356.843
265.705
266.533
358.287
234.017
150.571
99.1229
67.9412
50.2859
40.6437
35.3446
33.1388
33.2682
35.7216
41.0777
50.9963
68.5637
99.7117
150.757
231.833
356.822
265.605
266.732
358.526
233.781
150.418
98.3883
67.7611
50.468
40.6336
35.3683
33.1234
33.2205
35.6541
41.1031
51.0753
68.648
99.4904
150.485
232.475
356.836
265.432
266.291
358.076
232.824
150.672
98.4824
67.7328
50.3799
40.5945
35.3324
33.0584
33.1819
35.6391
41.1315
51.1231
68.4034
99.2657
150.195
231.546
356.462
265.327
266.087
358.04
233.151
150.445
98.6872
67.9235
50.1342
40.5237
35.245
33.024
33.1347
35.5683
41.0626
51.0448
68.306
98.9821
149.903
231.589
356.898
265.076
265.764
357.771
232.066
150
98.3777
67.4334
50.3238
40.4985
35.2452
32.9907
33.0685
35.4827
40.8443
50.7261
68.1958
98.7247
149.583
231.27
356.504
264.884
265.461
357.7
232.543
149.644
97.5957
67.7494
50.2585
40.4344
35.2109
32.9559
33.0281
35.427
40.8386
50.8129
68.2701
98.403
149.178
231.044
356.723
264.658
265.281
357.422
232.136
148.657
97.9678
67.5923
50.1547
40.3586
35.1143
32.9016
32.9669
35.3427
40.724
50.669
68.0659
98.0814
148.802
230.847
356.398
264.452
265.095
357.266
231.767
148.545
97.6958
66.9775
49.9608
40.1843
35.0677
32.8502
32.9035
35.2325
40.5274
50.4729
67.8239
97.7184
147.71
230.579
356.275
264.221
264.844
357.219
230.824
148.079
96.989
67.176
49.7244
40.1621
35.0199
32.8199
32.8571
35.16
40.3845
50.3041
67.5846
97.4346
147.693
230.698
356.48
263.772
264.564
356.802
230.577
148.068
97.0845
66.7077
49.803
40.1683
35.0135
32.7816
32.8057
35.0707
40.2532
49.9325
67.3053
97.06
147.636
230.336
356.072
263.417
264.359
356.855
230.093
147.602
96.7292
66.6188
49.7006
40.1012
34.9577
32.7565
32.7809
35.0479
40.2255
49.8689
67.0535
96.6584
147.156
229.907
356.122
263.089
264.011
356.34
229.521
146.417
96.2693
66.5788
49.415
40.0062
34.9171
32.7302
32.7642
35.055
40.2397
49.8642
66.7778
96.1713
145.857
229.425
356.112
262.674
263.671
355.915
228.988
146.121
95.895
66.3509
49.4533
39.8804
34.8505
32.6958
32.735
34.961
40.1538
49.7062
66.4908
95.8293
145.592
228.457
356.162
262.224
263.217
355.598
228.303
145.382
95.3954
66.0436
49.3316
39.7974
34.8118
32.6658
32.7003
34.933
39.9572
49.3278
66.162
95.4139
145.547
228.508
355.965
261.842
262.681
355.167
227.767
144.737
94.9407
65.7182
49.0074
39.6995
34.7535
32.6139
32.657
34.8754
39.8841
49.2024
65.8703
94.9706
144.968
228.016
355.687
261.379
262.438
354.867
226.683
143.869
93.9227
65.3582
48.9375
39.6151
34.709
32.5785
32.6064
34.7936
39.7339
48.862
65.1858
93.899
143.52
226.766
355.38
260.845
262.035
354.515
225.889
143.02
93.3906
65.0772
48.6112
39.5085
34.6495
32.531
32.5489
34.7001
39.6111
48.6968
64.9139
93.553
142.988
226.555
354.886
260.538
261.743
354.254
225.228
142.254
92.8108
64.5088
48.4865
39.4107
34.5688
32.4684
32.4838
34.5996
39.4285
48.4347
64.5166
92.9689
142.078
225.988
354.857
260.318
261.292
353.992
224.387
141.356
92.159
64.2399
48.3093
39.3249
34.5306
32.4417
32.4482
34.5431
39.3258
48.2202
64.1368
92.4627
141.408
224.762
354.712
260.167
260.835
353.624
223.645
140.551
91.6808
63.825
48.0914
39.2472
34.4936
32.4085
32.4021
34.4595
39.179
47.9869
63.7969
91.8381
140.705
223.923
354.025
259.83
260.361
353.207
222.911
139.816
91.1246
63.4366
47.8542
39.1338
34.4328
32.3734
32.3635
34.3908
39.0444
47.7637
63.4254
91.1884
139.973
223.282
353.801
259.511
259.716
352.725
222.137
139.044
90.6624
63.141
47.7104
39.0589
34.3955
32.3514
32.3289
34.3418
38.9494
47.5542
63.0571
90.6621
139.206
222.432
353.308
258.936
259.273
352.331
221.462
138.428
90.221
62.8373
47.5464
38.9582
34.3601
32.3291
32.2992
34.2806
38.8366
47.3481
62.6798
89.999
138.546
221.696
352.922
258.352
258.803
351.915
220.677
137.682
89.6446
62.4841
47.3289
38.8688
34.3394
32.3165
32.2761
34.2296
38.736
47.1707
62.3333
89.563
137.886
220.881
352.493
257.908
258.504
351.472
219.86
136.985
89.1105
62.1181
47.1433
38.786
34.314
32.3135
32.2608
34.1779
38.6232
46.9746
62.0084
89.0053
137.169
220.138
352.07
257.449
258.266
351.03
219.002
136.224
88.5539
61.7805
46.936
38.7222
34.2912
32.3048
32.2417
34.1298
38.5173
46.7645
61.6578
88.5051
136.393
219.34
351.567
257.064
257.757
350.504
218.075
135.364
87.891
61.3947
46.7481
38.6284
34.2491
32.2839
32.2208
34.0839
38.4173
46.5545
61.2547
87.8528
135.567
218.49
351.037
256.543
257.328
349.974
217.122
134.445
87.2081
61.0014
46.5306
38.5225
34.1966
32.2595
32.1968
34.0282
38.2916
46.3163
60.8599
87.2308
134.615
217.536
350.638
256.268
256.642
349.345
216.037
133.427
86.4733
60.5906
46.3263
38.4196
34.1562
32.2474
32.1818
33.984
38.1843
46.0847
60.4116
86.4277
133.525
216.421
350.019
255.777
256.026
348.775
214.952
132.419
85.8156
60.2037
46.1415
38.342
34.1258
32.2353
32.169
33.9349
38.067
45.8501
59.9797
85.7088
132.595
215.378
349.493
255.49
255.299
348.057
213.855
131.386
85.0556
59.7753
45.9308
38.2485
34.0862
32.221
32.1556
33.8946
37.9603
45.6168
59.5351
84.9705
131.482
214.23
348.774
255.205
254.76
347.424
212.74
130.334
84.3432
59.3727
45.7322
38.1546
34.0449
32.2
32.1354
33.8501
37.8497
45.3728
59.0486
84.1604
130.41
213.123
348.032
254.852
254.402
346.786
211.636
129.314
83.6466
58.9716
45.5176
38.0438
33.9879
32.166
32.1061
33.8084
37.7467
45.152
58.6234
83.4321
129.349
211.975
347.438
254.551
253.819
346.058
210.459
128.262
82.9401
58.5498
45.2878
37.9242
33.929
32.1303
32.0715
33.755
37.6382
44.9257
58.1992
82.7152
128.306
210.813
346.716
254.114
253.403
345.375
209.254
127.146
82.1927
58.1159
45.0476
37.8015
33.8645
32.0903
32.0298
33.6848
37.512
44.6811
57.7439
81.9407
127.125
209.491
345.991
253.655
252.916
344.628
208.079
126.116
81.5016
57.6914
44.7969
37.66
33.7846
32.0361
31.9774
33.6122
37.3847
44.4469
57.3253
81.23
126.026
208.193
345.144
253.105
252.412
343.819
206.81
124.987
80.7261
57.2279
44.5256
37.5067
33.6956
31.9749
31.917
33.523
37.2338
44.1735
56.8294
80.3969
124.835
206.873
344.34
252.532
251.847
343.011
205.49
123.831
79.9243
56.7291
44.2336
37.3385
33.5954
31.9048
31.8486
33.4327
37.0874
43.9205
56.3907
79.6541
123.665
205.527
343.457
251.982
251.393
342.22
204.102
122.632
79.1211
56.2319
43.9389
37.159
33.4795
31.8186
31.7649
33.3241
36.919
43.6366
55.9015
78.8174
122.399
204.093
342.537
251.399
250.86
341.317
202.641
121.361
78.2576
55.7239
43.6238
36.9553
33.3481
31.7244
31.6772
33.2127
36.7446
43.3436
55.4026
77.9723
121.087
202.556
341.613
250.633
250.392
340.457
201.151
120.055
77.3834
55.2005
43.3099
36.7493
33.2076
31.6182
31.5749
33.0851
36.5535
43.0335
54.885
77.0967
119.749
200.963
340.659
249.939
249.72
339.572
199.54
118.633
76.4449
54.6285
42.9551
36.525
33.0544
31.5003
31.4642
32.9504
36.357
42.7182
54.3464
76.1748
118.304
199.258
339.638
249.211
248.968
338.614
197.835
117.163
75.4924
54.0446
42.6011
36.2887
32.8845
31.366
31.3342
32.7923
36.1291
42.3684
53.7862
75.2228
116.814
197.445
338.46
248.233
248.042
337.545
195.965
115.581
74.4539
53.4141
42.2074
36.0369
32.7047
31.2193
31.1929
32.6254
35.8993
42.0168
53.1973
74.2261
115.226
195.505
337.179
247.101
246.844
336.368
193.997
113.942
73.3727
52.7579
41.8062
35.7689
32.5098
31.0566
31.0333
32.4409
35.6467
41.6242
52.5587
73.1544
113.552
193.42
335.721
245.811
245.622
334.998
191.87
112.17
72.245
52.0698
41.3786
35.4897
32.2955
30.8722
30.8537
32.2368
35.3828
41.2374
51.9106
72.0551
111.836
191.264
334.161
244.504
244.058
333.478
189.568
110.275
71.0435
51.3562
40.93
35.1732
32.0577
30.6695
30.6544
32.015
35.0943
40.8019
51.2167
70.8861
109.972
188.875
332.374
242.836
242.374
331.798
187.022
108.227
69.7664
50.6008
40.4648
34.8456
31.7987
30.4459
30.4338
31.7691
34.7791
40.3372
50.4777
69.6759
108.028
186.352
330.567
241.353
240.443
329.862
184.232
106.046
68.4299
49.7949
39.9341
34.4752
31.5045
30.1845
30.1818
31.4911
34.4358
39.8651
49.7154
68.3686
105.918
183.561
328.38
239.397
238.04
327.423
181.072
103.73
66.9534
48.9058
39.3762
34.0745
31.1844
29.8966
29.8925
31.1736
34.0527
39.338
48.8959
67.0046
103.676
180.56
325.986
237.49
235.399
324.534
177.627
101.281
65.4997
47.9933
38.7615
33.6314
30.8283
29.5788
29.579
30.8309
33.6404
38.78
48.0427
65.5596
101.23
177.173
323.037
234.904
232.336
320.942
173.767
98.6294
63.908
47.014
38.1107
33.1513
30.4309
29.2142
29.2121
30.4328
33.1589
38.1304
47.0774
63.9993
98.6369
173.487
319.724
232.362
228.806
316.646
169.486
95.8018
62.2474
45.9924
37.4176
32.6364
30.0022
28.8109
28.8055
29.9899
32.6358
37.4512
46.0604
62.3241
95.8531
169.264
315.453
228.926
224.768
311.538
164.682
92.713
60.4293
44.8865
36.6744
32.0644
29.5096
28.357
28.3556
29.5072
32.0676
36.7038
44.9663
60.5698
92.8652
164.631
310.498
225.239
220.195
305.532
159.44
89.4536
58.5347
43.7122
35.8575
31.4256
28.9626
27.8457
27.8429
28.9596
31.4369
35.9008
43.811
58.7062
89.6481
159.419
304.386
220.585
215.172
298.498
153.772
86.041
56.5581
42.4871
34.9965
30.7389
28.3603
27.2827
27.2836
28.3671
30.7596
35.0481
42.5977
56.753
86.2633
153.816
297.528
215.778
209.909
290.5
147.804
82.5944
54.5993
41.2345
34.0831
29.9941
27.7011
26.6593
26.6618
27.7125
30.0234
34.1408
41.3364
54.7545
82.7616
147.78
289.497
210.294
204.528
281.587
141.594
79.0985
52.6167
39.9603
33.1348
29.2054
26.993
25.989
25.9962
27.0176
29.2525
33.2103
40.0686
52.7642
79.2663
141.574
280.683
204.906
199.362
271.974
135.342
75.6954
50.6729
38.666
32.1458
28.3714
26.2382
25.2689
25.2798
26.2733
28.4366
32.2485
38.8092
50.8382
75.8279
135.252
271.087
199.55
194.678
261.831
129.097
72.409
48.7867
37.3954
31.1557
27.5191
25.4567
24.5207
24.5364
25.5049
27.6018
31.2736
37.5455
48.9498
72.5226
129.009
261.092
194.754
190.74
251.435
123.006
69.2859
46.9875
36.1501
30.1623
26.6534
24.6583
23.7528
23.7719
24.7168
26.755
30.3087
36.3366
47.1857
69.4254
122.946
250.857
190.7
187.851
240.942
117.135
66.3538
45.2995
34.9658
29.2016
25.8056
23.8699
22.9903
23.011
23.9329
25.9145
29.3565
35.1603
45.5105
66.5302
117.168
240.625
187.78
186.188
230.444
111.537
63.6323
43.7053
33.8248
28.2706
24.9827
23.1038
22.2497
22.2701
23.1665
25.0936
28.4339
34.041
43.9564
63.8692
111.677
230.345
185.744
185.915
220.146
106.282
61.1466
42.268
32.7915
27.4146
24.2158
22.384
21.5505
21.5687
22.4395
24.3137
27.5602
32.9888
42.5078
61.3931
106.49
220.26
184.312
183.257
209.874
101.328
58.8612
40.9424
31.8313
26.6184
23.5038
21.7163
20.9008
20.9155
21.7611
23.5837
26.7388
31.9976
41.1509
59.0852
101.533
210.144
183.621
183.039
200.007
96.7253
56.7873
39.7527
30.9713
25.9018
22.8591
21.109
20.3089
20.3197
21.1423
22.9187
25.9926
31.0982
39.9156
56.9657
96.888
200.205
182.319
181.585
190.408
92.4075
54.913
38.6922
30.2013
25.2557
22.2748
20.5566
19.7691
19.7761
20.5783
22.3139
25.3164
30.2877
38.8063
55.0412
92.528
190.546
182.194
182.504
181.238
88.3802
53.2455
37.7577
29.5125
24.6694
21.741
20.0513
19.2756
19.2796
20.0639
21.7637
24.7053
29.5644
37.829
53.3324
88.4688
181.29
182.195
184.874
172.585
84.6654
51.7977
36.9271
28.8783
24.12
21.2389
19.5767
18.8134
18.8153
19.5831
21.2503
24.1385
28.905
36.9648
51.8483
84.7346
172.708
184.84
188.157
164.543
81.5316
50.5766
36.1737
28.2723
23.5864
20.7516
19.1191
18.3701
18.3709
19.1221
20.7569
23.5955
28.2858
36.1925
50.5983
81.5393
164.537
188.038
194.281
157.359
78.9132
49.5126
35.4469
27.6605
23.0447
20.2619
18.6648
17.9336
17.9338
18.6657
20.2634
23.0477
27.6657
35.4559
49.5293
78.9363
157.407
194.294
202.436
150.957
77.0138
48.571
34.7043
27.0127
22.4751
19.7565
18.2047
17.4966
17.4966
18.205
19.7575
22.4776
27.0182
34.7137
48.5832
77.0114
150.899
202.301
213.597
145.855
75.4325
47.6238
33.8943
26.3038
21.8645
19.2286
17.735
17.0567
17.0566
17.7349
19.2289
21.8656
26.3076
33.903
47.6433
75.471
145.887
213.661
227.468
141.987
74.1945
46.6343
32.9804
25.5123
21.2026
18.6751
17.2569
16.6169
16.6169
17.2569
18.6756
21.2037
25.5156
32.9873
46.6453
74.2063
141.958
227.441
244.561
139.597
73.1141
45.4895
31.9131
24.6182
20.4841
18.0982
16.7766
16.1851
16.185
16.7764
18.0981
20.4842
24.6191
31.9157
45.495
73.1269
139.592
244.6
265.226
138.621
71.9815
44.0615
30.6321
23.5983
19.7045
17.5029
16.3038
15.7732
15.7731
16.3036
17.5027
19.7047
23.5997
30.6366
44.0712
71.9962
138.626
265.241
288.494
138.27
70.4198
42.2155
29.0933
22.4431
18.8686
16.9007
15.8532
15.397
15.3968
15.8527
16.8998
18.8674
22.4415
29.0917
42.2144
70.419
138.264
288.39
314.931
138.315
68.1752
39.8276
27.2534
21.1473
17.9876
16.3091
15.4444
15.0756
15.0755
15.4442
16.3087
17.9871
21.1473
27.2555
39.8347
68.1893
138.295
315.009
343.121
137.948
64.735
36.7371
25.0871
19.7288
17.0906
15.7569
15.1039
14.8361
14.8362
15.1038
15.7564
17.0895
19.7273
25.0858
36.7375
64.7413
137.959
342.989
372.883
135.517
59.4524
32.7838
22.6012
18.2368
16.2276
15.2802
14.8608
14.7119
14.7118
14.8606
15.28
16.2269
18.2363
22.6017
32.7868
59.4629
135.54
372.901
402.38
127.822
51.189
27.8242
19.8644
16.7645
15.4755
14.9582
14.7555
14.6779
14.6779
14.7555
14.9582
15.4755
16.7651
19.8642
27.824
51.1888
127.828
402.369
432.726
107.359
38.6214
21.9353
17.0637
15.4928
14.9845
14.8104
14.7306
14.701
14.7011
14.7312
14.8117
14.9864
15.4939
17.0638
21.9344
38.6192
107.346
432.691
466.403
57.3826
21.6802
16.2882
15.2333
14.9471
14.8449
14.8046
14.7968
14.7964
14.7964
14.7968
14.8048
14.8453
14.9479
15.2344
16.2888
21.6804
57.3845
466.414
768.726
1121.08
751.439
466.121
276.946
165.183
104.447
73.8196
58.7798
52.5732
52.5414
58.6581
74.103
104.719
163.372
270.684
456.398
741.102
1108.09
749.111
766.703
1119.36
748.445
463.317
274.651
163.728
102.072
72.4761
57.9797
51.9907
51.955
57.9059
73.6826
104.027
162.202
264.644
448.668
739.394
1106.49
747.078
765.41
1118.09
745.996
461.374
272.685
162.54
103.374
73.3798
58.5414
52.4696
52.4629
58.1269
73.4373
103.484
161.85
268.134
452.474
738.893
1103.08
746.13
759.122
1112.5
737.574
453.837
266.444
158.753
102.593
73.0336
58.3284
52.3542
52.4168
58.527
73.115
101.349
158.618
270.596
454.641
736.957
1107.24
741.047
759.656
1113.66
740.658
459.066
267.277
158.797
100.733
71.8397
57.9766
52.1401
52.2143
58.3451
72.8715
102.467
162.088
269.308
452.384
729.91
1102.83
744.795
757.312
1112.67
743.684
457.407
266.695
157.769
101.41
72.5352
57.4338
51.943
52.0192
58.0661
71.5948
100.676
161.407
264.27
446.015
732.882
1106.62
748.518
756.792
1113.44
741.453
455.156
268.398
157.164
100.658
72.2966
57.8942
51.4611
51.3965
57.9256
72.3573
101.037
160.8
268.899
450.49
735.789
1109.63
745.106
754.698
1115.22
738.917
452.469
266.392
156.02
98.3775
71.2042
57.3192
51.6187
51.4361
57.2406
71.9915
100.383
159.74
267.509
442.783
734.139
1108.32
751.036
747.99
1113.22
735.809
443.983
260.317
155.116
99.3036
71.9749
57.7765
51.9175
51.5054
57.2667
70.9456
100.816
158.379
266.03
449
732.511
1103.82
747.289
748.004
1108.75
729.119
444.211
262.514
155.262
100.112
71.8162
57.5984
51.8765
51.8876
57.2299
71.1801
99.367
157.007
264.153
441.502
730.184
1104.59
751.314
747.384
1110.72
729.291
444.067
257.654
156.175
100.184
71.4162
57.2598
51.6906
51.8324
57.3305
71.478
100.015
153.423
258.952
444.024
723.978
1103.57
750.604
750.238
1112.63
727.277
447.081
260.888
155.354
99.4783
70.3492
56.6821
51.4907
51.6657
57.5576
71.3238
98.4842
155.53
259.679
446.98
729.431
1104.59
746.167
747.006
1111.39
726.105
445.046
254.818
153.845
97.6198
70.8742
56.7871
51.0614
51.1078
57.3254
70.4077
99.4906
155.219
257.833
445.05
724.587
1106.1
747.271
751.331
1107.43
726.359
442.716
254.529
152.881
97.4221
70.0982
57.1363
51.4221
51.1528
56.8826
71.1134
97.8005
152.395
257.448
442.309
727.975
1101.37
746.77
746.299
1109.29
729.018
440.661
253.148
151.607
96.689
69.9245
56.9401
50.9996
51.0091
57.06
70.3496
99.4281
154.691
258.416
438.803
721.609
1106.89
746.785
747.321
1103.12
726.417
437.411
253.616
148.742
96.1451
69.708
56.8086
51.1878
51.0642
56.8282
70.3573
98.7227
151.262
256.111
430.276
726.009
1109.27
747.463
744.736
1109.18
723.945
434.035
248.061
150.085
96.0036
69.6939
56.5799
50.7726
51.235
56.9514
70.5162
98.2563
150.969
251.137
430.482
720.377
1105.3
744.028
743.275
1113.37
720.971
426.558
249.819
147.572
96.1074
68.7558
56.0232
51.0064
51.1266
56.3072
69.4501
97.5235
149.695
250.846
428.972
722.683
1108.56
747.906
741.506
1112.04
712.884
427.125
244.613
147.861
94.8603
69.1076
56.3064
50.6004
50.9599
56.54
69.9266
96.9942
148.576
249.497
429.384
720.326
1111.84
747.182
739.298
1110.55
712.314
423.752
243.092
146.867
95.6377
69.2987
55.7857
50.4951
50.8033
56.3012
68.8926
95.3227
147.396
249.986
431.657
713.333
1111.08
746.424
738.636
1105.86
711.525
415.393
240.367
143.967
93.9853
68.3781
55.66
50.3662
50.3592
56.0706
68.8011
94.9599
145.899
244.169
428.941
713.151
1110.24
742.515
736.064
1108.7
708.171
412.254
240.111
144.598
94.294
68.5539
55.2944
50.4451
50.5031
55.9081
68.7863
94.3007
144.781
245.74
422.001
712.27
1109.69
742.288
731.783
1106.14
699.006
409.338
237.868
143.406
93.5391
67.7202
55.3114
50.3218
50.3339
55.5771
68.4271
94.1226
142.972
240.453
423.754
715.804
1108.66
740.296
728.666
1103.72
696.599
404.818
232.192
140.441
92.9896
68.0328
55.4911
50.162
49.8635
55.0203
67.864
93.493
142.817
239.238
420.5
713.566
1105.25
741.168
724.1
1098
691.238
403.304
232.495
140.349
91.5891
67.5851
55.247
49.9843
49.9248
55.1783
67.3287
91.8087
141.248
236.491
411.868
711.416
1110.31
738.1
722.034
1100.68
688.255
399.15
229.652
139.15
91.1732
67.2271
54.9387
49.7398
49.4151
54.9347
67.0018
91.2836
138.166
235.826
413.685
708.87
1106.55
739.402
718.854
1095.72
686.632
398.006
228.993
136.58
90.2417
66.7257
54.6419
49.5501
49.3685
54.4255
66.5645
90.5442
137.177
229.895
410.146
705.711
1109.28
737.787
716.23
1097.6
688.483
398.861
226.888
136.035
89.5323
66.0299
54.1655
49.2911
49.2962
54.1898
66.0942
89.7315
135.703
230.007
401.894
702.68
1112.14
732.531
713.512
1092.14
680.368
395.481
223.68
133.746
88.5984
65.5804
53.8269
49.0517
48.9277
53.8391
65.6158
88.874
134.236
226.505
406.254
698.612
1110.95
730.611
711.938
1096.69
682.986
388.979
220.061
132.333
87.6588
64.9916
53.4948
48.5601
48.6398
53.462
65.0364
87.8754
133.119
227.48
403.551
692.75
1106.48
727.838
711.65
1095.42
679.685
386.38
217.314
130.576
86.905
64.5248
53.2028
48.3786
48.2286
53.0591
64.3943
87.1517
131.878
225.022
400.623
695.058
1108.26
725.412
712.439
1094.2
676.223
382.278
214.11
129.177
86.1457
63.9567
52.847
48.0702
47.9553
52.6255
63.9081
86.3131
130.3
219.433
392.86
691.339
1108.4
724.604
711.268
1091.94
671.956
379.465
211.793
127.721
85.4078
63.5219
52.5108
47.8088
47.6557
52.329
63.4467
85.56
128.941
217.37
391.11
687.075
1110.36
721.556
708.072
1090.15
667.729
373.593
209.101
126.445
84.6944
63.1045
52.1306
47.5119
47.4159
51.9485
62.889
84.7333
127.508
213.375
383.239
682.759
1108.13
716.864
706.991
1087.38
657.756
368.407
206.813
125.233
83.9802
62.692
51.8668
47.2307
47.1579
51.6346
62.4326
83.9588
125.964
210.203
376.625
672.815
1102
714.232
705.248
1085.04
653.37
365.083
204.341
123.887
83.2779
62.2983
51.5193
46.9508
46.862
51.2953
61.9419
83.252
124.676
207.521
372.58
667.457
1101.47
710.221
703.961
1078.46
647.271
360.053
201.708
122.572
82.517
61.8249
51.159
46.6083
46.5286
50.9617
61.4654
82.4553
123.212
204.563
367.025
662.079
1099.75
707.598
700.295
1076.64
640.974
355.278
199.531
121.304
81.7708
61.3162
50.7714
46.2599
46.1983
50.6013
60.9393
81.5597
121.855
202.393
363.167
655.848
1100.91
703.555
697.283
1071.2
634.245
350.242
197.01
119.999
81.0022
60.7929
50.3604
45.9184
45.8906
50.1959
60.3955
80.69
120.352
199.625
358.298
650.885
1099.19
701.054
693.7
1066.5
627.901
346.501
195.028
118.848
80.3069
60.318
50.0401
45.6096
45.5398
49.7938
59.8924
79.8693
118.772
196.851
353.954
645.465
1095.03
697.046
690.095
1062.28
622.604
341.708
192.474
117.539
79.6213
59.8827
49.6691
45.2454
45.1768
49.3944
59.3501
78.9372
117.188
194.024
348.501
639.748
1095.98
693.855
686.287
1059.06
617.184
338.049
190.323
116.431
78.9932
59.4075
49.3245
44.9603
44.8486
48.9929
58.8515
78.214
115.811
191.422
344.109
634.42
1093.29
689.791
682.771
1057.98
612.09
333.56
187.897
115.236
78.3806
59.0348
48.9973
44.6437
44.5407
48.6576
58.3823
77.4761
114.487
188.642
339.529
628.602
1086.74
686.088
680.034
1059.81
607.276
329.935
185.909
114.162
77.7379
58.5723
48.6236
44.3001
44.17
48.2234
57.8352
76.6294
112.946
185.793
334.593
622.744
1086.3
682.09
678.196
1057.09
602.607
326.331
183.816
113.088
77.1338
58.1604
48.2778
43.979
43.8438
47.8587
57.363
75.8998
111.552
182.858
330.071
617.429
1079.34
678.698
676.001
1049.2
597.366
322.576
181.694
111.95
76.4451
57.6769
47.8868
43.6133
43.4647
47.4302
56.8321
75.1076
110.157
180.237
324.908
611.326
1078.13
674.285
674.553
1047.39
592.658
318.908
179.497
110.792
75.7753
57.2219
47.5141
43.2574
43.0939
47.0116
56.2955
74.3074
108.747
177.528
320.604
605.44
1070.55
670.512
672.236
1041.59
587.141
314.789
177.259
109.626
75.0673
56.7239
47.1034
42.8653
42.6915
46.5656
55.7492
73.517
107.385
174.948
315.401
598.345
1065.84
666.383
670.299
1036.07
581.817
310.969
175.059
108.435
74.362
56.2323
46.7078
42.492
42.297
46.1078
55.169
72.6525
105.848
172.023
310.339
591.375
1060.75
662.833
668.051
1030.94
576.162
306.786
172.79
107.264
73.6633
55.7325
46.2882
42.0988
41.8916
45.6565
54.6124
71.8686
104.526
169.434
305.322
583.733
1055.39
658.412
664.947
1026.36
570.258
302.799
170.592
106.065
72.9601
55.2296
45.8598
41.6893
41.4639
45.1727
54.006
70.9797
103
166.506
300.062
576.843
1050.35
654.169
662.039
1020.05
563.987
298.568
168.3
104.846
72.2188
54.7003
45.4203
41.2818
41.0454
44.6986
53.4121
70.1577
101.67
163.893
294.947
569.17
1044.52
649.257
659.142
1014.48
558.158
294.535
166.036
103.577
71.4393
54.1404
44.9575
40.8523
40.6085
44.2097
52.8049
69.2929
100.191
160.988
289.23
560.57
1038.08
643.337
655.677
1007.93
551.334
290.086
163.635
102.324
70.6535
53.576
44.5039
40.4421
40.195
43.7411
52.2094
68.4517
98.7987
158.295
284.151
552.794
1031.62
637.257
652.27
1002.84
544.992
285.707
161.226
100.94
69.7863
52.9601
44.0144
40.0045
39.7559
43.2488
51.5896
67.5661
97.3148
155.461
278.654
544.197
1024.59
631.176
647.678
996.236
537.467
280.971
158.73
99.5661
68.9267
52.3548
43.531
39.574
39.3205
42.7451
50.9499
66.6463
95.8115
152.732
273.58
536.364
1017.99
624.932
643.724
989.916
530.39
276.332
156.194
98.1252
68.01
51.6925
43.0085
39.1145
38.8584
42.2176
50.2708
65.6706
94.2392
149.809
267.897
527.442
1010.29
618.505
638.424
982.791
522.765
271.41
153.519
96.6348
67.0745
51.0265
42.4821
38.6491
38.3926
41.6813
49.5802
64.6915
92.6787
147.02
262.643
519.121
1003.13
612.592
633.419
975.931
515.073
266.411
150.746
95.0728
66.0718
50.3058
41.9201
38.1572
37.9016
41.1298
48.8663
63.6369
90.9673
144.01
257.201
511.04
996.19
607.189
628.988
969.241
507.113
261.117
147.794
93.3835
65.0165
49.5634
41.33
37.6401
37.3954
40.564
48.1356
62.5732
89.2749
141.016
251.604
502.542
989.649
603.031
624.152
962.993
498.991
255.608
144.672
91.5531
63.8588
48.7612
40.7033
37.0971
36.8648
39.9733
47.3882
61.4992
87.57
138.007
246.092
494.139
982.809
598.297
620.106
957.238
490.881
249.989
141.449
89.6337
62.62
47.8962
40.0394
36.5254
36.3176
39.3714
46.6154
60.4009
85.8467
134.891
240.306
485.405
976.577
594.505
615.201
951.158
481.747
243.578
137.809
87.5107
61.2772
46.9615
39.3238
35.9159
35.7337
38.7385
45.8434
59.34
84.1496
131.88
234.587
476.083
969.311
589.148
610.582
945.684
472.447
236.96
134.055
85.3222
59.8624
45.9687
38.5681
35.2795
35.1304
38.081
45.0193
58.1811
82.3384
128.674
228.533
466.383
962.21
583.483
604.816
939.023
461.712
229.468
129.804
82.8676
58.3151
44.9007
37.7483
34.5825
34.4675
37.3725
44.1546
56.9746
80.4662
125.453
222.292
455.772
953.433
577.151
597.021
930.893
449.759
221.507
125.291
80.2009
56.6262
43.743
36.8757
33.8432
33.7617
36.6021
43.199
55.6576
78.4388
121.929
215.468
443.875
943.102
567.748
587.571
921.028
436.093
212.828
120.406
77.3381
54.8269
42.5
35.9368
33.0498
32.9998
35.7689
42.1639
54.2245
76.2324
118.103
208.106
430.658
930.373
557.27
573.284
907.061
420.596
203.66
115.319
74.2833
52.9058
41.195
34.9429
32.1998
32.1757
34.8703
41.0577
52.6817
73.8466
114.009
200.138
415.835
914.737
543.492
557.03
889.865
403.021
193.645
109.972
71.1489
50.9005
39.8074
33.8852
31.2935
31.296
33.9023
39.8564
51.0237
71.3356
109.7
191.718
399.729
895.697
528.365
535.746
867.402
383.674
183.124
104.344
67.8439
48.7847
38.351
32.7705
30.3352
30.3648
32.8731
38.5741
49.2421
68.6125
105.114
182.855
382.115
872.429
509.817
514.229
841.132
362.877
172.33
98.6569
64.4931
46.6147
36.8232
31.5943
29.3201
29.3688
31.768
37.1997
47.3346
65.7369
100.332
173.66
363.412
845.203
489.994
489.53
809.583
340.858
161.093
92.7065
60.9937
44.3601
35.254
30.3863
28.2672
28.3277
30.6064
35.7499
45.3282
62.7252
95.3611
164.094
343.561
814.152
469.506
464.951
774.077
318.432
150.192
86.8584
57.4979
42.0958
33.6422
29.1227
27.159
27.2296
29.3745
34.1978
43.1777
59.4599
89.9754
154.149
322.585
778.416
447.43
439.99
734.569
295.441
139.085
80.8119
53.8757
39.765
32.001
27.8323
26.0211
26.0959
28.0992
32.5964
40.9462
56.0677
84.4299
143.942
300.929
739.264
426.509
415.148
691.539
272.542
128.394
75.0303
50.3448
37.4367
30.3302
26.505
24.8475
24.9277
26.783
30.9306
38.6087
52.5091
78.5958
133.33
278.415
695.191
404.149
391.201
644.869
249.556
117.6
69.2327
46.8615
35.136
28.6713
25.1822
23.6697
23.7495
25.4518
29.2419
36.2378
48.8706
72.6017
122.576
255.653
647.921
381.916
367.519
595.179
226.914
107.267
63.6738
43.4886
32.8881
27.0353
23.8705
22.4989
22.5787
24.132
27.5625
33.8586
45.221
66.6017
111.71
232.502
597.659
360.153
344.336
543.337
204.534
97.2455
58.2845
40.2574
30.7497
25.4705
22.6096
21.3695
21.4449
22.8523
25.9429
31.5844
41.7068
60.743
101.116
209.807
545.855
339.036
323.882
491.443
183.344
88.0262
53.3321
37.2444
28.7406
24.0005
21.4275
20.3133
20.3821
21.6463
24.4153
29.4497
38.435
55.3307
91.3175
188.264
494.441
321.035
306.544
441.643
164.055
79.7143
48.8852
34.5473
26.939
22.6816
20.3667
19.3611
19.4196
20.5521
23.0292
27.5215
35.5111
50.5097
82.4601
168.517
445.602
307.537
297.765
396.657
147.393
72.5111
45.0557
32.2091
25.3668
21.5291
19.4361
18.5234
18.5708
19.5855
21.8068
25.8293
32.9719
46.3481
74.7304
151.103
400.949
301.954
295.363
357.455
133.571
66.6969
41.9399
30.2865
24.0596
20.5598
18.649
17.8125
17.8487
18.7636
20.7722
24.4095
30.8585
42.9087
68.3678
136.495
361.692
298.425
293.72
324.276
122.328
62.0112
39.4161
28.7068
22.9741
19.7527
17.993
17.2192
17.2439
18.0721
19.9012
23.2184
29.0988
40.0643
63.0628
123.953
326.686
298.284
296.032
295.642
112.961
58.302
37.421
27.443
22.0948
19.0934
17.4564
16.7349
16.7497
17.5048
19.186
22.2498
27.6851
37.8015
58.8998
113.888
297.015
296.615
298.574
271.203
104.965
55.3024
35.7917
26.3896
21.3558
18.5416
17.0124
16.3383
16.3463
17.0381
18.5895
21.4387
26.5248
35.9883
55.5453
105.181
271.186
300.024
305.583
248.677
98.1438
52.775
34.4125
25.4931
20.7255
18.074
16.6416
16.0121
16.0167
16.6567
18.1008
20.7678