/*--------------------------------*- C++ -*----------------------------------*\
  =========                 |
  \\      /  F ield         | OpenFOAM: The Open Source CFD Toolbox
   \\    /   O peration     | Website:  https://openfoam.org
    \\  /    A nd           | Version:  6
     \\/     M anipulation  |
\*---------------------------------------------------------------------------*/
FoamFile
{
    version     2.0;
    format      ascii;
    class       volScalarField;
    location    "25";
    object      k;
}
// * * * * * * * * * * * * * * * * * * * * * * * * * * * * * * * * * * * * * //

dimensions      [0 2 -2 0 0 0 0];

internalField   nonuniform List<scalar> 
130000
(
0.376056
0.373519
0.370799
0.367942
0.364954
0.361853
0.358663
0.355418
0.352156
0.348918
0.345745
0.342676
0.339749
0.336995
0.33444
0.332103
0.33
0.328138
0.32652
0.325147
0.376355
0.373826
0.371111
0.368253
0.36526
0.362149
0.358947
0.355687
0.35241
0.349156
0.345968
0.342885
0.339945
0.337179
0.334614
0.332269
0.330159
0.328293
0.326673
0.325298
0.376653
0.374134
0.371422
0.368562
0.365562
0.362439
0.359223
0.355947
0.352651
0.349379
0.346173
0.343073
0.340117
0.337338
0.33476
0.332405
0.330286
0.328412
0.326786
0.325405
0.376922
0.374409
0.371697
0.368833
0.365824
0.36269
0.359459
0.356167
0.352854
0.349564
0.34634
0.343223
0.34025
0.337453
0.334859
0.33249
0.330359
0.328474
0.326837
0.325451
0.377136
0.374625
0.371913
0.369044
0.366027
0.362882
0.359638
0.35633
0.352999
0.349689
0.346445
0.343307
0.340313
0.3375
0.334893
0.332513
0.330373
0.328481
0.326839
0.325451
0.377297
0.374784
0.372067
0.369191
0.366166
0.363009
0.359747
0.35642
0.353067
0.349738
0.346476
0.343324
0.340317
0.337494
0.334879
0.332494
0.330351
0.328459
0.32682
0.325434
0.377414
0.374894
0.372169
0.369283
0.366243
0.363069
0.359787
0.35644
0.353071
0.349728
0.346456
0.343296
0.340286
0.337459
0.334842
0.332456
0.330314
0.328423
0.326787
0.325404
0.3775
0.374969
0.37223
0.369329
0.366269
0.363075
0.359776
0.356417
0.353039
0.349688
0.346408
0.343243
0.34023
0.337401
0.334785
0.3324
0.330261
0.328374
0.326742
0.325364
0.377569
0.375021
0.372264
0.369345
0.366264
0.363052
0.359741
0.356371
0.352983
0.349624
0.346338
0.343169
0.340154
0.337326
0.334711
0.33233
0.330195
0.328313
0.326688
0.325316
0.37763
0.375064
0.372286
0.369345
0.366246
0.363019
0.359693
0.356309
0.352911
0.349544
0.346253
0.34308
0.340065
0.337238
0.334627
0.33225
0.33012
0.328245
0.326627
0.325262
0.377692
0.375105
0.372305
0.369342
0.366225
0.36298
0.359638
0.35624
0.352831
0.349455
0.346158
0.342983
0.339967
0.337142
0.334534
0.332163
0.33004
0.328172
0.326562
0.325205
0.377759
0.375151
0.372329
0.369343
0.366206
0.362941
0.359582
0.356169
0.352747
0.349363
0.34606
0.342882
0.339865
0.337043
0.334439
0.332073
0.329957
0.328098
0.326495
0.325147
0.377835
0.375205
0.37236
0.369353
0.366195
0.362908
0.35953
0.3561
0.352666
0.349271
0.345962
0.34278
0.339763
0.336943
0.334343
0.331983
0.329874
0.328023
0.326429
0.325089
0.377921
0.375269
0.372401
0.369371
0.366193
0.362883
0.359484
0.356037
0.352588
0.349183
0.345867
0.342682
0.339664
0.336845
0.334249
0.331895
0.329793
0.327949
0.326364
0.325033
0.378019
0.375344
0.372453
0.369397
0.366195
0.362866
0.359447
0.355982
0.352519
0.349102
0.345778
0.342588
0.339569
0.336751
0.334159
0.33181
0.329715
0.327879
0.326302
0.324979
0.378132
0.375435
0.372518
0.369437
0.366208
0.36286
0.359421
0.355938
0.352459
0.34903
0.345697
0.342502
0.339481
0.336664
0.334075
0.33173
0.329642
0.327813
0.326243
0.324929
0.378261
0.375542
0.3726
0.369493
0.366238
0.362864
0.359409
0.355906
0.35241
0.348968
0.345626
0.342424
0.3394
0.336583
0.333996
0.331656
0.329573
0.327751
0.326189
0.324882
0.378409
0.375667
0.3727
0.369565
0.366283
0.362885
0.359407
0.355887
0.352373
0.348917
0.345564
0.342355
0.339327
0.336509
0.333924
0.331588
0.32951
0.327694
0.326139
0.32484
0.378573
0.37581
0.372817
0.369655
0.366345
0.362919
0.359415
0.355879
0.352348
0.348878
0.345513
0.342297
0.339264
0.336444
0.33386
0.331527
0.329454
0.327644
0.326095
0.324803
0.378758
0.375972
0.372953
0.369763
0.366425
0.362971
0.359441
0.355881
0.352338
0.348852
0.345475
0.342249
0.33921
0.336388
0.333804
0.331473
0.329404
0.327599
0.326056
0.32477
0.378962
0.376155
0.37311
0.36989
0.366522
0.36304
0.359483
0.355899
0.352337
0.348838
0.345447
0.342211
0.339167
0.336341
0.333756
0.331427
0.329361
0.32756
0.326023
0.324743
0.379187
0.376358
0.373286
0.370038
0.366639
0.363126
0.359541
0.355931
0.352345
0.348832
0.34543
0.342185
0.339134
0.336304
0.333718
0.331389
0.329325
0.327529
0.325996
0.324721
0.379432
0.376582
0.373484
0.370205
0.366775
0.363231
0.359616
0.35598
0.35237
0.348838
0.345427
0.342173
0.339113
0.336278
0.333689
0.33136
0.329299
0.327506
0.325978
0.324708
0.379699
0.376828
0.373703
0.370394
0.366932
0.363355
0.35971
0.356045
0.352411
0.348858
0.345432
0.34217
0.339105
0.336265
0.333672
0.331342
0.329281
0.327492
0.325969
0.324701
0.379989
0.377098
0.373946
0.370606
0.36711
0.3635
0.359823
0.356128
0.352467
0.348891
0.345445
0.342172
0.339101
0.336259
0.333664
0.331333
0.329271
0.327481
0.325958
0.324691
0.380303
0.377393
0.374213
0.370841
0.367311
0.363667
0.359956
0.35623
0.352541
0.34894
0.345473
0.342182
0.3391
0.336254
0.333658
0.331328
0.329265
0.327472
0.325948
0.324682
0.380641
0.377712
0.374506
0.371102
0.367537
0.363857
0.360111
0.356353
0.352634
0.349007
0.345518
0.342208
0.339111
0.336253
0.333652
0.331321
0.32926
0.327468
0.325945
0.324682
0.381007
0.37806
0.374828
0.371391
0.367791
0.364074
0.360292
0.356499
0.352749
0.349095
0.345582
0.342252
0.339138
0.336268
0.333658
0.33132
0.329258
0.327473
0.325952
0.324688
0.381401
0.378439
0.37518
0.371711
0.368074
0.364319
0.3605
0.356672
0.352889
0.349206
0.345668
0.342316
0.339185
0.336301
0.333681
0.331335
0.329269
0.327481
0.325958
0.324693
0.381826
0.378849
0.375566
0.372064
0.36839
0.364596
0.360739
0.356874
0.353058
0.349344
0.345779
0.342406
0.339256
0.336357
0.333725
0.33137
0.329296
0.3275
0.325976
0.324712
0.382285
0.379296
0.375987
0.372453
0.368742
0.364909
0.361011
0.357108
0.353257
0.349511
0.34592
0.342523
0.339354
0.336439
0.333795
0.331431
0.32935
0.32755
0.326023
0.324758
0.38278
0.37978
0.376449
0.372882
0.369133
0.365259
0.361321
0.357379
0.353491
0.349713
0.346092
0.34267
0.339481
0.33655
0.333893
0.331518
0.32943
0.327624
0.326093
0.324825
0.383314
0.380307
0.376953
0.373354
0.369567
0.365652
0.361672
0.357689
0.353764
0.349951
0.3463
0.342852
0.339641
0.336692
0.33402
0.331634
0.329537
0.327724
0.326187
0.324915
0.383892
0.38088
0.377506
0.373875
0.37005
0.366093
0.362069
0.358044
0.354079
0.35023
0.346547
0.343071
0.339837
0.336868
0.33418
0.331782
0.329674
0.327852
0.326308
0.325029
0.384518
0.381504
0.378112
0.37445
0.370585
0.366585
0.362517
0.358448
0.354442
0.350554
0.346837
0.343332
0.340073
0.337082
0.334377
0.331964
0.329844
0.328012
0.326459
0.325171
0.385198
0.382185
0.378775
0.375083
0.371179
0.367135
0.363021
0.358907
0.354857
0.35093
0.347177
0.343641
0.340354
0.337341
0.334616
0.332186
0.330052
0.328208
0.326644
0.325347
0.385935
0.382928
0.379504
0.375782
0.371839
0.367749
0.363588
0.359427
0.355332
0.351363
0.347572
0.344002
0.340686
0.337648
0.334902
0.332454
0.330304
0.328446
0.32687
0.32556
0.386736
0.38374
0.380303
0.376553
0.37257
0.368435
0.364226
0.360015
0.355873
0.35186
0.34803
0.344424
0.341077
0.338011
0.335241
0.332773
0.330606
0.328733
0.327141
0.325818
0.387608
0.384628
0.381182
0.377404
0.373382
0.369201
0.364941
0.36068
0.356489
0.35243
0.348557
0.344913
0.341532
0.338437
0.335642
0.333152
0.330965
0.329073
0.327465
0.326126
0.388559
0.3856
0.382149
0.378346
0.374284
0.370055
0.365744
0.361431
0.357188
0.35308
0.349163
0.345479
0.342062
0.338935
0.336112
0.333597
0.331388
0.329477
0.32785
0.326492
0.389596
0.386666
0.383214
0.379387
0.375287
0.37101
0.366646
0.362278
0.357982
0.353823
0.349859
0.346132
0.342677
0.339516
0.336662
0.33412
0.331886
0.329952
0.328304
0.326925
0.39073
0.387837
0.384389
0.380541
0.376404
0.372079
0.36766
0.363236
0.358884
0.354672
0.350657
0.346885
0.343388
0.34019
0.337304
0.334732
0.332471
0.330511
0.328837
0.327434
0.391972
0.389125
0.385686
0.381821
0.377648
0.373274
0.368801
0.364318
0.359908
0.35564
0.351573
0.347752
0.344211
0.340974
0.338051
0.335446
0.333154
0.331165
0.329464
0.328032
0.393334
0.390545
0.387123
0.383245
0.379037
0.374615
0.370085
0.365543
0.361073
0.356746
0.352624
0.348752
0.345164
0.341883
0.338921
0.33628
0.333954
0.331932
0.330199
0.328735
0.39483
0.392111
0.388715
0.384829
0.38059
0.376121
0.371535
0.366932
0.362399
0.358012
0.353831
0.349904
0.346266
0.342939
0.339934
0.337253
0.334889
0.332831
0.331062
0.329561
0.396478
0.393845
0.390484
0.386597
0.38233
0.377816
0.373174
0.368508
0.363912
0.359461
0.355219
0.351235
0.347544
0.344167
0.341115
0.33839
0.335985
0.333885
0.332074
0.330531
0.398296
0.395766
0.392454
0.388574
0.384284
0.379727
0.37503
0.370302
0.36564
0.361124
0.356819
0.352774
0.349026
0.345596
0.342494
0.33972
0.337268
0.335122
0.333264
0.331672
0.400306
0.3979
0.394653
0.39079
0.386484
0.381889
0.377138
0.372348
0.36762
0.363037
0.358666
0.354558
0.350749
0.347262
0.344105
0.341279
0.338775
0.336577
0.334665
0.333016
0.402534
0.400279
0.397113
0.39328
0.388967
0.384339
0.379538
0.374687
0.369893
0.365241
0.360803
0.356629
0.352757
0.349208
0.345993
0.343109
0.340546
0.338289
0.336316
0.334603
0.405012
0.402935
0.399874
0.396087
0.391779
0.387125
0.382278
0.37737
0.37251
0.367791
0.363283
0.359041
0.355103
0.351489
0.348209
0.345262
0.342635
0.340311
0.338268
0.33648
0.407769
0.405909
0.40298
0.39926
0.39497
0.390302
0.385418
0.380456
0.375534
0.370748
0.366171
0.361859
0.357851
0.354168
0.35082
0.347803
0.345104
0.342705
0.340581
0.338706
0.410849
0.409248
0.406485
0.402858
0.398607
0.393939
0.389027
0.38402
0.379041
0.37419
0.369545
0.365163
0.361083
0.357328
0.353905
0.350811
0.348032
0.345548
0.343331
0.341354
0.414296
0.413009
0.410455
0.406953
0.402767
0.398119
0.393195
0.388154
0.383125
0.378215
0.373504
0.369052
0.3649
0.361068
0.357566
0.354388
0.351519
0.348936
0.346611
0.344515
0.418168
0.41726
0.414968
0.411635
0.407548
0.402946
0.398031
0.392971
0.387906
0.382946
0.378175
0.373657
0.369431
0.365522
0.361934
0.358663
0.355691
0.352995
0.350544
0.348304
0.422535
0.422087
0.420124
0.417014
0.41307
0.408551
0.403675
0.398622
0.39354
0.388544
0.383724
0.379146
0.37485
0.37086
0.367181
0.363807
0.360718
0.357889
0.355286
0.352875
0.427481
0.427593
0.426045
0.423231
0.419491
0.415107
0.410313
0.405303
0.400233
0.395226
0.390376
0.38575
0.381391
0.377322
0.373547
0.370057
0.366831
0.363843
0.361055
0.358432
0.433127
0.433902
0.432889
0.430469
0.427018
0.422841
0.418194
0.413282
0.408272
0.403294
0.398446
0.393797
0.389391
0.385247
0.381371
0.377751
0.374364
0.371179
0.368159
0.365264
0.439607
0.441205
0.440871
0.438977
0.435932
0.43207
0.427665
0.422938
0.418066
0.413184
0.408395
0.403767
0.399343
0.395142
0.391165
0.387396
0.383811
0.380376
0.377053
0.373801
0.447086
0.449724
0.45027
0.449088
0.446623
0.443234
0.43922
0.434815
0.430206
0.425534
0.420902
0.416375
0.411994
0.40777
0.4037
0.399764
0.395933
0.392171
0.388438
0.384693
0.455776
0.459806
0.46145
0.461261
0.459633
0.45696
0.453565
0.449699
0.445558
0.441282
0.436972
0.432686
0.428454
0.42428
0.420148
0.41603
0.41189
0.40769
0.403388
0.398946
0.465984
0.471863
0.475011
0.476141
0.475734
0.474133
0.471701
0.468705
0.465343
0.461755
0.45803
0.454213
0.450313
0.446317
0.442193
0.437895
0.433378
0.428596
0.423506
0.418076
0.478144
0.486456
0.491787
0.494719
0.496011
0.495966
0.494981
0.49332
0.491186
0.488704
0.485944
0.482923
0.479628
0.476014
0.472025
0.46759
0.462645
0.457128
0.450992
0.444203
0.492845
0.504395
0.512689
0.518295
0.521822
0.523959
0.525098
0.525371
0.525028
0.52416
0.522816
0.520992
0.51864
0.515676
0.51201
0.507541
0.502175
0.495823
0.488414
0.4799
0.510862
0.526754
0.539023
0.548235
0.555103
0.560218
0.563968
0.566726
0.568807
0.570045
0.570536
0.570279
0.56918
0.567128
0.563995
0.559648
0.553958
0.546792
0.538035
0.527586
0.533177
0.554795
0.572282
0.586182
0.597281
0.606222
0.613469
0.619354
0.624063
0.627632
0.630156
0.631739
0.632074
0.631096
0.628654
0.624588
0.618736
0.610916
0.600945
0.588634
0.560967
0.589926
0.613975
0.633633
0.649795
0.663196
0.674373
0.683693
0.691371
0.69752
0.702176
0.705333
0.707058
0.707208
0.705508
0.701822
0.695962
0.687705
0.676792
0.662922
0.595548
0.633555
0.66544
0.691746
0.713555
0.73177
0.747051
0.759862
0.770496
0.779132
0.785849
0.790668
0.793596
0.79467
0.793653
0.790357
0.784581
0.776056
0.764455
0.749373
0.638257
0.686912
0.72765
0.761183
0.788922
0.812034
0.831375
0.847558
0.860988
0.871931
0.880538
0.886884
0.890988
0.892848
0.892367
0.889445
0.883796
0.875095
0.862963
0.84691
0.690318
0.750911
0.801148
0.842167
0.875876
0.903806
0.927068
0.946458
0.962512
0.975598
0.98594
0.99367
0.998834
1.00142
1.00143
0.998855
0.993352
0.98451
0.971912
0.955
0.752704
0.826087
0.886113
0.934645
0.974242
1.00687
1.03391
1.05638
1.07494
1.09006
1.10205
1.11108
1.11724
1.12054
1.12099
1.11872
1.11336
1.10437
1.09132
1.07358
0.826073
0.912653
0.982494
1.03845
1.08382
1.12103
1.15177
1.17723
1.19823
1.21533
1.22891
1.23921
1.24636
1.25041
1.25132
1.24923
1.24396
1.23482
1.2213
1.20275
0.91075
1.01057
1.0901
1.15335
1.2044
1.2461
1.28046
1.30884
1.33221
1.35123
1.36635
1.37787
1.38596
1.3907
1.39204
1.39018
1.385
1.37573
1.36177
1.34243
1.00678
1.11963
1.20864
1.27901
1.33559
1.38168
1.41954
1.45074
1.47637
1.4972
1.51377
1.52644
1.53541
1.5408
1.54255
1.54091
1.53583
1.52644
1.51212
1.49209
1.11395
1.23943
1.33759
1.41485
1.47675
1.527
1.56814
1.60193
1.6296
1.65204
1.66986
1.68351
1.69323
1.69916
1.70127
1.69985
1.69489
1.68549
1.67094
1.65042
1.23183
1.36933
1.47617
1.55988
1.62668
1.68069
1.7247
1.76066
1.78998
1.81364
1.83238
1.8467
1.85693
1.86323
1.8656
1.86437
1.85958
1.85028
1.83572
1.81503
1.3597
1.50831
1.62306
1.71251
1.7835
1.84054
1.8867
1.92414
1.95442
1.97868
1.99775
2.01226
2.02258
2.02896
2.03142
2.03032
2.02572
2.01669
2.00242
1.98203
1.49646
1.65484
1.7763
1.87033
1.94435
2.00326
2.05042
2.08822
2.1184
2.14227
2.16079
2.1747
2.18448
2.19044
2.19268
2.19157
2.18718
2.17859
2.16504
2.1456
1.6405
1.80671
1.93305
2.02988
2.10516
2.16419
2.21063
2.24712
2.27562
2.29764
2.31429
2.32645
2.33472
2.33952
2.34103
2.33967
2.33541
2.32749
2.31517
2.29753
1.7896
1.96086
2.08943
2.18645
2.26042
2.31704
2.3603
2.39311
2.41771
2.43583
2.44877
2.45755
2.4629
2.46542
2.46541
2.46333
2.45903
2.45198
2.44152
2.42674
1.94077
2.11326
2.24036
2.33395
2.40304
2.45374
2.49044
2.51633
2.53396
2.54549
2.55236
2.55559
2.55609
2.55467
2.55201
2.54833
2.54359
2.53759
2.52971
2.51908
2.09024
2.25885
2.37951
2.46478
2.52421
2.56434
2.59016
2.60486
2.61111
2.61107
2.60686
2.60055
2.59324
2.58572
2.57858
2.57217
2.56654
2.56159
2.55686
2.55167
2.23345
2.39161
2.49934
2.56996
2.61368
2.6368
2.64389
2.64063
2.63113
2.61946
2.60486
2.58949
2.57462
2.56101
2.54925
2.53983
2.5329
2.52853
2.52637
2.52584
2.36522
2.50474
2.59134
2.63902
2.65733
2.65699
2.64371
2.62164
2.59351
2.56052
2.52843
2.498
2.47011
2.44591
2.42604
2.41103
2.40118
2.39682
2.39796
2.4035
2.48012
2.59118
2.64633
2.66006
2.64863
2.61614
2.57173
2.52046
2.46665
2.41341
2.363
2.31696
2.27619
2.24142
2.21308
2.19166
2.17768
2.17187
2.17342
2.18107
2.57285
2.64394
2.65666
2.62978
2.5727
2.49918
2.41726
2.33332
2.25188
2.176
2.10736
2.04678
1.99442
1.95021
1.91399
1.8859
1.86631
1.8562
1.8551
1.86121
2.63707
2.65451
2.61192
2.52787
2.41842
2.29698
2.17389
2.05658
1.94956
1.85509
1.77348
1.70408
1.64555
1.59661
1.55606
1.52333
1.49829
1.48136
1.47368
1.47475
2.6687
2.62084
2.5084
2.35598
2.18442
2.01093
1.84806
1.70354
1.58051
1.47879
1.39598
1.32889
1.27419
1.22913
1.1915
1.16023
1.13493
1.1154
1.10209
1.09778
2.66704
2.53737
2.34167
2.11183
1.87595
1.65614
1.46629
1.31206
1.19225
1.10176
1.03397
0.982756
0.94313
0.911625
0.885815
0.865119
0.851076
0.843433
0.841066
0.854138
2.62087
2.39822
2.11056
1.80358
1.51596
1.27314
1.08534
0.950132
0.857569
0.795887
0.754772
0.726857
0.707644
0.695048
0.687252
0.68383
0.685064
0.693769
0.717347
0.774126
2.5251
2.19661
1.81685
1.45249
1.1534
0.934218
0.78853
0.698191
0.644233
0.612527
0.594101
0.583715
0.578362
0.576566
0.577948
0.582735
0.593799
0.622531
0.692121
0.796295
2.35745
1.91561
1.46594
1.09467
0.836816
0.680928
0.596276
0.5522
0.52856
0.515762
0.509103
0.50619
0.505856
0.507584
0.511846
0.521458
0.544375
0.606254
0.723137
0.924273
2.08184
1.53923
1.07508
0.766005
0.604494
0.531101
0.496523
0.47823
0.468136
0.462478
0.4595
0.458406
0.458994
0.461616
0.468076
0.483176
0.52119
0.619145
0.823186
1.13045
1.67045
1.08427
0.717159
0.558759
0.495064
0.465402
0.449311
0.439668
0.43337
0.429136
0.426503
0.425377
0.426083
0.429513
0.438311
0.459421
0.51403
0.656778
0.956402
1.33253
1.19523
0.750236
0.559781
0.485243
0.451811
0.43425
0.423341
0.415661
0.409987
0.405837
0.403163
0.402117
0.403241
0.407665
0.418502
0.444069
0.509759
0.684947
1.04292
1.48195
1.04477
0.674092
0.515446
0.455701
0.429374
0.41476
0.405185
0.398299
0.393206
0.389527
0.387304
0.386781
0.388546
0.393674
0.405151
0.431208
0.497744
0.681073
1.0638
1.57299
1.07344
0.671395
0.497725
0.438315
0.413128
0.399861
0.39165
0.386052
0.382154
0.379649
0.37842
0.37851
0.380467
0.385409
0.395923
0.418788
0.475072
0.629979
1.01953
1.61223
1.26344
0.695794
0.488614
0.425125
0.400886
0.389323
0.382831
0.378925
0.376586
0.37521
0.374638
0.374919
0.376552
0.38053
0.389094
0.407499
0.452129
0.579023
0.938539
1.61141
1.35868
0.697427
0.474674
0.413266
0.391875
0.382592
0.378023
0.375683
0.374434
0.373742
0.37348
0.37368
0.374667
0.377239
0.383315
0.396616
0.428318
0.517855
0.804728
1.4912
1.31456
0.616847
0.445401
0.400007
0.384216
0.378035
0.375636
0.374566
0.373941
0.373564
0.373427
0.373528
0.374031
0.375124
0.377869
0.384782
0.402611
0.454667
0.637277
1.19025
1.07556
0.520939
0.410805
0.384976
0.37787
0.3757
0.374905
0.374559
0.374435
0.374378
0.374346
0.374319
0.374321
0.374401
0.374456
0.374712
0.376109
0.383482
0.432511
0.7618
0.32121
0.320699
0.320135
0.319594
0.319086
0.318614
0.318184
0.317801
0.317468
0.31719
0.316969
0.316808
0.316708
0.316669
0.31669
0.316772
0.316914
0.317115
0.317374
0.317689
0.321431
0.320912
0.320344
0.3198
0.319287
0.318811
0.318376
0.317988
0.317651
0.317369
0.317144
0.316978
0.316875
0.316832
0.31685
0.316929
0.317069
0.317269
0.317526
0.31784
0.321605
0.321083
0.320511
0.319963
0.319445
0.318964
0.318525
0.318132
0.31779
0.317502
0.317272
0.317102
0.316994
0.316948
0.316962
0.317038
0.317175
0.317372
0.317627
0.31794
0.321751
0.321225
0.32065
0.320098
0.319576
0.319091
0.318647
0.31825
0.317904
0.317612
0.317378
0.317205
0.317093
0.317043
0.317054
0.317127
0.317262
0.317456
0.31771
0.31802
0.321877
0.321348
0.320769
0.320214
0.319689
0.3192
0.318754
0.318354
0.318004
0.317709
0.317473
0.317296
0.317182
0.317129
0.317137
0.317208
0.317341
0.317533
0.317785
0.318093
0.321991
0.321459
0.320877
0.320319
0.319791
0.3193
0.318851
0.318448
0.318097
0.317799
0.31756
0.317382
0.317265
0.31721
0.317217
0.317286
0.317417
0.317608
0.317858
0.318165
0.322099
0.321564
0.320979
0.320418
0.319888
0.319395
0.318943
0.318538
0.318184
0.317885
0.317644
0.317464
0.317346
0.317289
0.317294
0.317362
0.317491
0.317681
0.31793
0.318236
0.322204
0.321667
0.32108
0.320516
0.319983
0.319487
0.319033
0.318625
0.318269
0.317969
0.317726
0.317545
0.317426
0.317369
0.317372
0.317439
0.317566
0.317754
0.318001
0.318306
0.32231
0.321769
0.321177
0.32061
0.320074
0.319575
0.319119
0.31871
0.318353
0.318052
0.317809
0.317628
0.317509
0.317451
0.317454
0.317517
0.317641
0.317827
0.318072
0.318376
0.322405
0.321862
0.321265
0.320693
0.320152
0.319648
0.319189
0.318781
0.31843
0.318136
0.317897
0.317717
0.317598
0.317541
0.31754
0.317597
0.317712
0.317891
0.318134
0.318439
0.322453
0.321909
0.321314
0.320739
0.320196
0.319694
0.319237
0.318832
0.318488
0.318198
0.31796
0.317781
0.317663
0.317604
0.3176
0.317647
0.317755
0.317933
0.318176
0.31848
0.322454
0.321913
0.321324
0.320757
0.320232
0.31974
0.319285
0.318877
0.318523
0.318218
0.317975
0.317795
0.317677
0.317619
0.317618
0.317663
0.317779
0.317966
0.318211
0.318512
0.322458
0.321917
0.321332
0.320775
0.32026
0.319769
0.319313
0.3189
0.318536
0.318223
0.317977
0.317796
0.317677
0.317621
0.317623
0.317672
0.317795
0.317989
0.318238
0.318546
0.322509
0.321958
0.321363
0.320795
0.320265
0.319764
0.319303
0.31889
0.318528
0.318224
0.31798
0.317799
0.317681
0.317625
0.317626
0.317685
0.317812
0.318005
0.318258
0.318573
0.32259
0.322029
0.321421
0.320838
0.320287
0.319775
0.319308
0.318891
0.318529
0.318225
0.317984
0.317806
0.317691
0.317638
0.317646
0.317715
0.317846
0.318038
0.318288
0.318596
0.322699
0.322129
0.321512
0.32092
0.320361
0.319841
0.319369
0.318948
0.318583
0.318279
0.318037
0.317858
0.317744
0.317693
0.317701
0.317772
0.317902
0.318091
0.318336
0.318636
0.322831
0.322253
0.321629
0.32103
0.320463
0.319938
0.31946
0.319035
0.318667
0.31836
0.318116
0.317937
0.317823
0.317771
0.31778
0.31785
0.31798
0.318168
0.31841
0.318705
0.322984
0.322399
0.321769
0.321163
0.32059
0.320059
0.319575
0.319145
0.318774
0.318464
0.318219
0.318038
0.317924
0.317872
0.317881
0.317952
0.318081
0.318268
0.318508
0.3188
0.323159
0.322568
0.321932
0.321319
0.32074
0.320202
0.319713
0.319279
0.318904
0.318591
0.318344
0.318162
0.318047
0.317996
0.318005
0.318076
0.318206
0.318392
0.318631
0.318919
0.323358
0.322762
0.32212
0.321501
0.320916
0.320373
0.319878
0.319439
0.31906
0.318745
0.318496
0.318314
0.318198
0.318147
0.318157
0.318229
0.318359
0.318544
0.31878
0.319065
0.323585
0.322984
0.322337
0.321713
0.321122
0.320574
0.320075
0.319631
0.319249
0.318931
0.31868
0.318497
0.318381
0.318331
0.318341
0.318412
0.318542
0.318725
0.318958
0.319239
0.323841
0.323236
0.322585
0.321957
0.321362
0.320809
0.320305
0.319859
0.319473
0.319153
0.3189
0.318717
0.318601
0.318549
0.318559
0.31863
0.318758
0.318939
0.319169
0.319443
0.324128
0.32352
0.322867
0.322235
0.321636
0.321079
0.320573
0.320123
0.319735
0.319413
0.319158
0.318973
0.318857
0.318805
0.318814
0.318883
0.319009
0.319186
0.319411
0.31968
0.324451
0.323841
0.323185
0.322551
0.321948
0.321388
0.320878
0.320426
0.320035
0.319711
0.319455
0.319269
0.319151
0.319098
0.319106
0.319173
0.319296
0.319469
0.319688
0.319949
0.324812
0.324201
0.323544
0.322907
0.322302
0.321739
0.321226
0.320771
0.320378
0.320052
0.319794
0.319607
0.319487
0.319433
0.319438
0.319503
0.319622
0.31979
0.320003
0.320255
0.325219
0.324607
0.32395
0.323311
0.322703
0.322137
0.321621
0.321163
0.320768
0.32044
0.320181
0.319991
0.31987
0.319814
0.319817
0.319878
0.319993
0.320155
0.320359
0.320601
0.325678
0.325066
0.324409
0.323769
0.323159
0.32259
0.322072
0.321611
0.321213
0.320883
0.320622
0.32043
0.320307
0.320249
0.320248
0.320306
0.320415
0.32057
0.320765
0.320995
0.326197
0.325587
0.324931
0.324291
0.323679
0.323108
0.322587
0.322123
0.321723
0.32139
0.321126
0.320933
0.320807
0.320746
0.320742
0.320795
0.320897
0.321045
0.321229
0.321445
0.326786
0.326179
0.325526
0.324886
0.324273
0.3237
0.323176
0.32271
0.322307
0.321972
0.321706
0.32151
0.321381
0.321317
0.321308
0.321355
0.32145
0.321588
0.321759
0.32196
0.327456
0.326853
0.326204
0.325566
0.324953
0.324379
0.323852
0.323384
0.322978
0.322641
0.322372
0.322173
0.322041
0.321973
0.32196
0.321999
0.322085
0.322211
0.322368
0.32255
0.328219
0.327623
0.32698
0.326345
0.325733
0.325157
0.32463
0.324159
0.323751
0.32341
0.323138
0.322936
0.3228
0.322727
0.322708
0.322739
0.322814
0.322927
0.323066
0.323227
0.32909
0.328503
0.327869
0.327238
0.326628
0.326053
0.325524
0.325051
0.324641
0.324297
0.324022
0.323815
0.323674
0.323595
0.323569
0.323591
0.323653
0.32375
0.32387
0.324005
0.330086
0.329511
0.328888
0.328265
0.327658
0.327084
0.326555
0.326081
0.325667
0.325321
0.325042
0.32483
0.324683
0.324597
0.324562
0.324572
0.32462
0.324698
0.324795
0.324901
0.331227
0.330668
0.33006
0.329446
0.328845
0.328274
0.327746
0.32727
0.326855
0.326505
0.326221
0.326005
0.325851
0.325755
0.32571
0.325707
0.325737
0.325793
0.325862
0.325934
0.332537
0.331999
0.33141
0.33081
0.330217
0.329651
0.329124
0.328648
0.328231
0.327877
0.327589
0.327366
0.327203
0.327097
0.327039
0.32702
0.32703
0.327059
0.327096
0.327128
0.334045
0.333533
0.332969
0.332386
0.331805
0.331246
0.330722
0.330247
0.329828
0.329472
0.329178
0.328947
0.328775
0.328656
0.328582
0.328543
0.328528
0.328527
0.328525
0.328511
0.335786
0.335307
0.334775
0.334215
0.333649
0.333099
0.332581
0.332108
0.331689
0.331328
0.331029
0.33079
0.330606
0.330472
0.330378
0.330315
0.330271
0.330232
0.330185
0.330115
0.337799
0.337363
0.336871
0.33634
0.335795
0.335259
0.33475
0.33428
0.333861
0.333497
0.333191
0.332941
0.332743
0.332591
0.332474
0.332382
0.332301
0.332218
0.332116
0.33198
0.340136
0.339754
0.339312
0.33882
0.338302
0.337785
0.337287
0.336824
0.336405
0.336038
0.335724
0.335462
0.335247
0.335072
0.334926
0.334798
0.334672
0.334535
0.334368
0.334154
0.342856
0.342544
0.342168
0.341726
0.341245
0.340754
0.340273
0.339819
0.339403
0.339032
0.338708
0.33843
0.338193
0.337989
0.337806
0.337633
0.337452
0.337249
0.337002
0.336692
0.346039
0.345818
0.345531
0.345156
0.344727
0.344273
0.343816
0.343376
0.342964
0.342588
0.342251
0.341953
0.341686
0.341444
0.341213
0.34098
0.340729
0.340441
0.340095
0.339668
0.349792
0.349702
0.349537
0.349259
0.348903
0.348503
0.348083
0.347664
0.347258
0.346877
0.346521
0.346192
0.345882
0.345585
0.345286
0.344973
0.344626
0.344227
0.343752
0.343177
0.354311
0.354396
0.354407
0.354272
0.354028
0.353712
0.35335
0.352964
0.35257
0.352179
0.351794
0.351416
0.351039
0.350657
0.350256
0.349822
0.349337
0.348782
0.348131
0.347357
0.359878
0.36022
0.360512
0.360603
0.360543
0.360366
0.360102
0.359774
0.3594
0.358992
0.358556
0.358096
0.357606
0.357083
0.356514
0.355888
0.355188
0.354395
0.353483
0.352425
0.367039
0.367818
0.368509
0.368966
0.369226
0.369289
0.369193
0.368968
0.36863
0.368195
0.367671
0.367066
0.366378
0.36561
0.364753
0.363803
0.362745
0.361566
0.360243
0.35875
0.376646
0.378171
0.379625
0.380679
0.381395
0.381867
0.382051
0.382005
0.381737
0.381261
0.380591
0.379738
0.378711
0.37752
0.376168
0.37466
0.372994
0.371167
0.369163
0.366964
0.390096
0.392863
0.395563
0.397661
0.399179
0.400165
0.400755
0.401027
0.400887
0.400364
0.399474
0.398235
0.396667
0.394793
0.392633
0.390209
0.387537
0.384634
0.381503
0.378143
0.409474
0.414146
0.418707
0.422329
0.42503
0.426868
0.427938
0.428478
0.428564
0.428011
0.426847
0.425093
0.422782
0.419946
0.41662
0.412842
0.408651
0.404088
0.399187
0.39398
0.437251
0.444454
0.451373
0.456849
0.460937
0.463756
0.465418
0.466168
0.466392
0.465922
0.464501
0.462212
0.459091
0.455164
0.450462
0.445016
0.438872
0.432079
0.424702
0.416812
0.475391
0.48532
0.49461
0.501827
0.507146
0.510797
0.512989
0.514017
0.514327
0.513892
0.512291
0.509602
0.505841
0.500998
0.49507
0.488038
0.479907
0.470686
0.460421
0.44919
0.524227
0.536428
0.547534
0.555968
0.562081
0.566234
0.568724
0.569921
0.570348
0.570013
0.568373
0.56551
0.561421
0.55606
0.549365
0.541245
0.531614
0.520373
0.507463
0.492866
0.582365
0.59608
0.608356
0.617566
0.624218
0.628755
0.631514
0.632873
0.633403
0.633167
0.631535
0.628594
0.62433
0.618687
0.611575
0.602852
0.59235
0.579838
0.565078
0.547834
0.648198
0.663069
0.67635
0.686301
0.693515
0.698475
0.701544
0.703101
0.703755
0.703637
0.702034
0.699038
0.694627
0.688742
0.68128
0.672085
0.66095
0.647587
0.631631
0.612628
0.72139
0.737558
0.752032
0.762914
0.770853
0.776366
0.779833
0.781634
0.782452
0.78248
0.780921
0.777866
0.773276
0.767093
0.759207
0.749463
0.737638
0.723422
0.706389
0.685968
0.802713
0.820491
0.836457
0.848524
0.857392
0.863611
0.867573
0.869673
0.870671
0.870861
0.869409
0.866308
0.861508
0.854957
0.846546
0.836124
0.823452
0.808207
0.789921
0.767955
0.893332
0.913081
0.930871
0.944396
0.954418
0.961515
0.966078
0.968525
0.969642
0.969947
0.968858
0.965733
0.960682
0.953689
0.944646
0.933403
0.919702
0.903205
0.883397
0.859586
0.994577
1.01667
1.03662
1.0519
1.06334
1.07156
1.07699
1.08005
1.0815
1.08198
1.08094
1.07767
1.07228
1.06476
1.05497
1.04277
1.02787
1.00989
0.988287
0.96229
1.10787
1.13269
1.15516
1.17249
1.18559
1.19515
1.20165
1.2055
1.20735
1.20798
1.207
1.20359
1.19784
1.18973
1.17912
1.16582
1.14954
1.12987
1.10618
1.07765
1.23475
1.2627
1.28808
1.30777
1.32279
1.33391
1.34165
1.34641
1.34878
1.34966
1.3488
1.34527
1.33914
1.33039
1.31886
1.30435
1.28651
1.26492
1.23887
1.20745
1.37688
1.40842
1.43711
1.45953
1.47677
1.48968
1.49884
1.50468
1.50772
1.50893
1.50826
1.50463
1.49812
1.48869
1.47615
1.46029
1.44073
1.41698
1.38828
1.3536
1.53606
1.57168
1.60416
1.62969
1.64949
1.66447
1.67527
1.68237
1.68622
1.68789
1.68748
1.6838
1.67691
1.66676
1.65313
1.6358
1.61433
1.5882
1.55655
1.51822
1.71423
1.75446
1.79123
1.82032
1.84305
1.86042
1.87313
1.88168
1.88653
1.88877
1.88871
1.88502
1.87778
1.86689
1.85211
1.83318
1.80963
1.78087
1.74595
1.70357
1.91344
1.95887
2.00048
2.03361
2.05969
2.0798
2.09471
2.10496
2.11099
2.11389
2.11423
2.11068
2.10315
2.09151
2.07551
2.05487
2.02906
1.99744
1.95892
1.91208
2.13584
2.18708
2.23413
2.27181
2.30169
2.32494
2.3424
2.35465
2.36209
2.36567
2.36633
2.36329
2.35554
2.34315
2.32587
2.30339
2.27515
2.24041
2.19798
2.14626
2.38366
2.44135
2.49445
2.53722
2.57137
2.59819
2.6186
2.63326
2.64256
2.64727
2.64847
2.64558
2.63753
2.62432
2.60569
2.58127
2.55043
2.51234
2.46569
2.40868
2.65981
2.72454
2.78426
2.83261
2.87144
2.90218
2.92584
2.94313
2.9545
2.96059
2.96248
2.95985
2.95153
2.93754
2.91752
2.89108
2.85749
2.81585
2.76468
2.70198
2.96761
3.03997
3.10684
3.16121
3.2051
3.24006
3.26721
3.28734
3.30094
3.3086
3.31136
3.3091
3.30061
3.28586
3.26447
3.23597
3.19955
3.15418
3.09823
3.02947
3.31048
3.39098
3.46548
3.52625
3.57552
3.61496
3.64583
3.669
3.68501
3.69441
3.69819
3.69644
3.68788
3.67247
3.64975
3.61921
3.57992
3.53074
3.46983
3.39472
3.69149
3.78055
3.86302
3.93049
3.98536
4.0295
4.06426
4.09062
4.10918
4.12048
4.12543
4.12431
4.11584
4.09992