/*--------------------------------*- C++ -*----------------------------------*\
  =========                 |
  \\      /  F ield         | OpenFOAM: The Open Source CFD Toolbox
   \\    /   O peration     | Website:  https://openfoam.org
    \\  /    A nd           | Version:  6
     \\/     M anipulation  |
\*---------------------------------------------------------------------------*/
FoamFile
{
    version     2.0;
    format      ascii;
    class       volScalarField;
    location    "25";
    object      nut;
}
// * * * * * * * * * * * * * * * * * * * * * * * * * * * * * * * * * * * * * //

dimensions      [0 2 -1 0 0 0 0];

internalField   nonuniform List<scalar> 
130000
(
0.000903181
0.000907782
0.000911855
0.000915255
0.000918028
0.000920229
0.000921912
0.000923134
0.000923947
0.000924401
0.00092454
0.000924404
0.000924028
0.000923445
0.00092268
0.000921759
0.0009207
0.000919523
0.00091824
0.000916864
0.000903168
0.000907781
0.00091185
0.000915244
0.00091801
0.000920201
0.000921874
0.000923084
0.000923885
0.000924325
0.00092445
0.000924293
0.000923896
0.000923291
0.000922504
0.000921561
0.000920482
0.00091929
0.000917997
0.000916615
0.000903294
0.000907921
0.000911998
0.000915394
0.000918157
0.000920343
0.000922007
0.000923204
0.000923992
0.000924422
0.000924541
0.000924392
0.00092401
0.000923417
0.000922635
0.000921687
0.000920593
0.000919372
0.000918039
0.000916608
0.00090349
0.000908138
0.000912226
0.000915625
0.000918385
0.000920569
0.000922238
0.000923454
0.000924273
0.000924738
0.000924894
0.000924791
0.000924426
0.000923824
0.000923021
0.000922042
0.000920909
0.000919636
0.000918234
0.000916739
0.000903721
0.000908391
0.000912492
0.000915904
0.000918695
0.000920923
0.000922642
0.000923916
0.000924765
0.000925236
0.000925385
0.000925267
0.000924857
0.000924221
0.000923388
0.00092238
0.000921213
0.000919902
0.000918457
0.00091692
0.00090397
0.000908674
0.000912807
0.000916269
0.000919129
0.000921406
0.000923145
0.000924419
0.00092523
0.000925663
0.000925767
0.000925575
0.000925114
0.000924441
0.000923577
0.00092254
0.00092135
0.000920023
0.000918576
0.000917022
0.000904226
0.000908978
0.000913169
0.000916691
0.000919585
0.000921851
0.000923549
0.000924757
0.000925523
0.000925923
0.000925997
0.000925782
0.000925313
0.000924622
0.000923736
0.000922677
0.000921466
0.00092012
0.000918655
0.000917086
0.000904466
0.00090927
0.000913511
0.000917048
0.0009199
0.000922132
0.000923802
0.000924996
0.000925761
0.000926149
0.000926206
0.000925973
0.000925485
0.000924774
0.000923867
0.000922788
0.000921556
0.000920191
0.000918708
0.000917122
0.000904669
0.000909507
0.000913758
0.000917296
0.000920125
0.00092235
0.000924027
0.000925216
0.000925973
0.000926349
0.000926391
0.000926141
0.000925635
0.000924904
0.000923976
0.000922875
0.000921623
0.000920239
0.000918739
0.000917139
0.000904842
0.000909701
0.00091396
0.000917496
0.000920333
0.000922561
0.000924237
0.000925421
0.000926168
0.000926532
0.000926558
0.000926291
0.000925765
0.000925014
0.000924066
0.000922945
0.000921673
0.00092027
0.000918754
0.000917141
0.000905002
0.000909879
0.000914146
0.000917681
0.000920532
0.000922763
0.000924437
0.000925613
0.00092635
0.0009267
0.000926711
0.000926426
0.000925881
0.00092511
0.000924141
0.000922999
0.000921707
0.000920287
0.000918755
0.00091713
0.000905158
0.000910051
0.000914328
0.000917872
0.000920731
0.000922963
0.000924631
0.000925799
0.000926524
0.000926859
0.000926854
0.00092655
0.000925986
0.000925194
0.000924204
0.000923042
0.000921731
0.000920292
0.000918744
0.000917105
0.000905317
0.000910222
0.000914498
0.000918057
0.000920939
0.000923166
0.000924826
0.000925982
0.000926693
0.000927013
0.00092699
0.000926668
0.000926083
0.00092527
0.000924259
0.000923076
0.000921745
0.000920287
0.000918722
0.000917068
0.000905488
0.000910408
0.000914687
0.000918248
0.00092115
0.00092337
0.00092502
0.000926164
0.000926861
0.000927164
0.000927123
0.000926781
0.000926176
0.000925342
0.000924309
0.000923104
0.000921752
0.000920275
0.000918691
0.000917019
0.000905671
0.000910613
0.000914911
0.00091845
0.000921344
0.000923575
0.000925214
0.000926345
0.000927028
0.000927315
0.000927255
0.000926893
0.000926266
0.00092541
0.000924355
0.000923128
0.000921755
0.000920257
0.000918654
0.000916964
0.000905863
0.000910822
0.000915129
0.000918673
0.00092152
0.000923761
0.000925404
0.000926527
0.000927195
0.000927466
0.000927387
0.000927004
0.000926356
0.000925477
0.000924399
0.000923149
0.000921754
0.000920235
0.000918615
0.000916909
0.000906065
0.000911038
0.000915349
0.000918881
0.000921693
0.00092392
0.000925596
0.000926713
0.000927367
0.000927619
0.000927521
0.000927116
0.000926445
0.000925543
0.000924441
0.000923169
0.000921751
0.000920213
0.000918575
0.000916856
0.000906278
0.000911267
0.000915585
0.000919115
0.000921916
0.000924105
0.000925783
0.000926906
0.000927542
0.000927774
0.000927655
0.000927228
0.000926534
0.000925608
0.000924482
0.000923185
0.000921746
0.000920188
0.000918535
0.000916808
0.000906502
0.000911509
0.000915836
0.000919371
0.000922181
0.000924335
0.000925969
0.000927086
0.000927713
0.000927929
0.000927789
0.000927339
0.00092662
0.000925668
0.000924517
0.000923195
0.000921732
0.000920154
0.000918487
0.000916753
0.000906738
0.000911762
0.000916097
0.000919634
0.000922438
0.000924584
0.000926145
0.000927226
0.000927876
0.000928083
0.00092792
0.000927445
0.0009267
0.00092572
0.00092454
0.000923189
0.000921697
0.000920093
0.000918408
0.000916668
0.000906984
0.000912025
0.000916368
0.000919904
0.0009227
0.000924825
0.000926343
0.000927378
0.000928011
0.000928221
0.000928038
0.00092754
0.000926769
0.00092576
0.000924546
0.000923154
0.000921614
0.000919964
0.000918252
0.000916504
0.00090724
0.000912299
0.00091665
0.000920186
0.000922976
0.000925093
0.000926606
0.000927579
0.000928134
0.000928338
0.000928148
0.000927628
0.000926828
0.00092579
0.000924543
0.000923116
0.000921536
0.000919841
0.000918112
0.000916364
0.000907506
0.000912583
0.000916942
0.000920477
0.00092326
0.000925365
0.000926864
0.000927827
0.000928321
0.000928472
0.000928264
0.000927716
0.000926886
0.000925819
0.00092455
0.000923111
0.000921532
0.000919834
0.000918114
0.000916364
0.000907783
0.000912878
0.000917244
0.000920778
0.000923554
0.000925646
0.000927127
0.000928068
0.000928534
0.000928591
0.000928335
0.000927776
0.00092694
0.000925864
0.000924578
0.000923124
0.000921539
0.000919857
0.000918143
0.00091641
0.000908071
0.000913185
0.000917558
0.000921091
0.000923859
0.000925937
0.0009274
0.000928317
0.00092875
0.000928755
0.00092845
0.000927871
0.000927027
0.000925954
0.000924655
0.000923177
0.000921554
0.00091983
0.000918079
0.000916365
0.000908372
0.000913505
0.000917887
0.000921419
0.000924179
0.000926245
0.000927693
0.000928592
0.000929011
0.000929013
0.000928665
0.00092802
0.000927127
0.000926026
0.000924715
0.000923235
0.000921597
0.00091985
0.000918031
0.000916225
0.000908687
0.000913841
0.00091823
0.000921762
0.000924515
0.000926569
0.000928001
0.000928882
0.000929277
0.000929247
0.000928848
0.000928129
0.000927184
0.00092605
0.000924735
0.000923262
0.000921627
0.000919869
0.000918053
0.000916185
0.000909018
0.000914192
0.000918591
0.000922123
0.000924869
0.000926912
0.000928329
0.000929192
0.000929567
0.000929512
0.000929079
0.000928308
0.000927298
0.000926111
0.000924754
0.000923237
0.000921594
0.000919865
0.000918056
0.00091619
0.000909365
0.000914561
0.00091897
0.000922503
0.000925243
0.000927276
0.000928679
0.000929527
0.000929887
0.000929819
0.000929377
0.000928607
0.00092755
0.000926307
0.000924892
0.000923321
0.00092164
0.000919891
0.000918063
0.00091618
0.00090973
0.00091495
0.000919369
0.000922903
0.000925638
0.000927661
0.000929052
0.000929888
0.000930235
0.000930157
0.000929709
0.000928941
0.000927901
0.00092664
0.000925191
0.000923575
0.000921853
0.000920066
0.000918222
0.000916339
0.000910112
0.000915357
0.000919788
0.000923323
0.000926054
0.000928067
0.000929447
0.00093027
0.000930607
0.000930519
0.000930064
0.000929292
0.00092825
0.000926979
0.000925523
0.000923911
0.000922165
0.000920354
0.000918497
0.000916603
0.000910514
0.000915784
0.000920226
0.000923763
0.000926488
0.000928492
0.00092986
0.000930671
0.000930996
0.000930899
0.000930438
0.000929663
0.000928621
0.000927353
0.000925897
0.000924281
0.000922525
0.000920713
0.00091885
0.000916952
0.000910934
0.00091623
0.000920683
0.000924221
0.00092694
0.000928934
0.000930289
0.000931086
0.000931398
0.000931289
0.000930818
0.000930037
0.000928992
0.000927725
0.000926274
0.000924675
0.000922959
0.000921158
0.000919297
0.000917396
0.000911372
0.000916694
0.000921159
0.000924697
0.000927408
0.000929389
0.000930729
0.00093151
0.000931806
0.000931683
0.000931199
0.000930408
0.000929355
0.000928084
0.000926631
0.000925032
0.000923318
0.000921518
0.000919657
0.000917756
0.00091183
0.000917178
0.000921652
0.000925189
0.000927891
0.000929857
0.000931179
0.000931941
0.000932217
0.000932076
0.000931576
0.00093077
0.000929706
0.000928425
0.000926965
0.00092536
0.000923643
0.000921839
0.000919974
0.000918068
0.000912311
0.000917684
0.000922165
0.000925698
0.000928387
0.000930336
0.000931637
0.000932376
0.000932629
0.000932466
0.000931945
0.000931121
0.00093004
0.000928746
0.000927274
0.000925661
0.000923935
0.000922125
0.000920254
0.000918342
0.000912812
0.000918209
0.000922697
0.000926223
0.000928897
0.000930825
0.000932101
0.000932814
0.000933041
0.000932852
0.000932308
0.000931461
0.000930361
0.000929049
0.000927563
0.000925937
0.000924202
0.000922384
0.000920507
0.00091859
0.000913334
0.000918755
0.000923247
0.000926764
0.000929421
0.000931324
0.000932573
0.000933256
0.000933454
0.000933236
0.000932664
0.000931792
0.000930669
0.000929337
0.000927835
0.000926195
0.000924449
0.000922624
0.000920741
0.000918821
0.000913877
0.000919321
0.000923815
0.000927321
0.000929957
0.000931833
0.000933051
0.000933701
0.000933866
0.000933615
0.000933013
0.000932114
0.000930966
0.000929613
0.000928092
0.000926438
0.000924681
0.000922848
0.00092096
0.000919039
0.000914443
0.000919909
0.000924403
0.000927895
0.000930506
0.000932351
0.000933534
0.000934148
0.000934276
0.000933991
0.000933355
0.000932426
0.000931252
0.000929876
0.000928336
0.000926667
0.000924899
0.000923058
0.000921166
0.000919244
0.000915033
0.000920519
0.000925011
0.000928485
0.000931068
0.000932878
0.000934022
0.000934595
0.000934683
0.000934359
0.000933688
0.000932726
0.000931523
0.000930123
0.000928563
0.000926879
0.000925099
0.000923251
0.000921357
0.000919435
0.00091565
0.000921154
0.00092564
0.000929092
0.000931641
0.000933411
0.000934511
0.00093504
0.000935083
0.000934717
0.000934006
0.000933009
0.000931776
0.00093035
0.000928769
0.00092707
0.00092528
0.000923426
0.00092153
0.000919609
0.000916292
0.000921812
0.000926287
0.000929712
0.000932223
0.000933948
0.000934998
0.000935477
0.00093547
0.000935057
0.000934304
0.000933269
0.000932002
0.000930549
0.000928948
0.000927233
0.000925433
0.000923575
0.000921679
0.000919762
0.000916962
0.000922494
0.000926952
0.000930343
0.000932809
0.000934481
0.000935476
0.000935898
0.000935836
0.000935371
0.000934571
0.000933494
0.000932192
0.00093071
0.000929087
0.000927357
0.000925549
0.000923688
0.000921795
0.000919886
0.000917659
0.000923195
0.00092763
0.000930979
0.000933392
0.000935003
0.000935934
0.000936291
0.000936167
0.000935643
0.00093479
0.000933667
0.000932327
0.000930815
0.00092917
0.000927425
0.000925611
0.00092375
0.000921864
0.000919968
0.000918379
0.000923912
0.000928313
0.000931611
0.000933959
0.000935499
0.000936354
0.000936636
0.000936441
0.000935851
0.000934938
0.000933763
0.000932381
0.000930836
0.000929168
0.000927411
0.000925593
0.000923737
0.000921864
0.000919987
0.000919114
0.000924634
0.000928989
0.00093222
0.00093449
0.000935944
0.00093671
0.000936904
0.000936624
0.000935956
0.000934974
0.000933741
0.000932311
0.000930731
0.00092904
0.000927272
0.000925454
0.000923611
0.000921759
0.000919912
0.000919858
0.000925347
0.000929636
0.000932783
0.000934953
0.0009363
0.000936958
0.000937044
0.000936663
0.000935902
0.000934838
0.000933536
0.000932052
0.000930433
0.000928719
0.000926943
0.000925132
0.00092331
0.000921492
0.000919689
0.000920598
0.000926029
0.000930223
0.000933255
0.000935297
0.000936508
0.000937029
0.000936982
0.000936474
0.000935599
0.000934434
0.000933049
0.0009315
0.000929837
0.000928099
0.00092632
0.000924527
0.00092274
0.000920975
0.00091924
0.00092131
0.000926639
0.000930696
0.000933569
0.000935441
0.000936475
0.000936817
0.000936598
0.000935928
0.000934905
0.000933612
0.000932122
0.000930493
0.000928777
0.000927015
0.00092524
0.000923478
0.00092175
0.000920066
0.000918433
0.000921938
0.000927108
0.000930965
0.000933618
0.000935257
0.000936052
0.000936156
0.000935705
0.000934818
0.000933599
0.000932137
0.000930508
0.000928775
0.000926993
0.000925205
0.000923444
0.000921737
0.000920099
0.00091854
0.000917064
0.000922423
0.000927338
0.000930899
0.000933238
0.000934549
0.000935011
0.000934785
0.000934015
0.00093283
0.00093134
0.000929643
0.000927822
0.000925949
0.000924079
0.000922261
0.000920528
0.000918906
0.000917409
0.000916043
0.000914805
0.000922656
0.000927175
0.000930296
0.000932177
0.000933018
0.000933006
0.000932311
0.000931088
0.000929477
0.000927602
0.00092557
0.000923477
0.000921401
0.000919409
0.00091755
0.000915863
0.000914372
0.000913089
0.000912014
0.00091114
0.000922489
0.00092639
0.000928852
0.000930059
0.000930216
0.000929518
0.000928145
0.000926268
0.000924042
0.000921605
0.000919086
0.000916592
0.000914218
0.000912041
0.00091012
0.000908498
0.0009072
0.000906235
0.000905599
0.000905273
0.00092173
0.00092466
0.000926128
0.00092634
0.000925497
0.000923801
0.000921446
0.000918619
0.000915495
0.00091224
0.000909001
0.000905913
0.000903091
0.000900629
0.000898601
0.000897058
0.000896029
0.000895521
0.000895525
0.000896012
0.000920025
0.000921499
0.000921498
0.000920257
0.000917969
0.000914837
0.000911071
0.00090688
0.000902466
0.000898025
0.000893741
0.000889779
0.000886284
0.000883379
0.000881158
0.000879688
0.000879006
0.000879123
0.000880023
0.00088167
0.000916886
0.000916266
0.000914119
0.000910811
0.000906487
0.000901346
0.000895612
0.000889519
0.000883306
0.000877208
0.000871452
0.000866244
0.000861772
0.000858194
0.000855634
0.000854184
0.000853898
0.000854797
0.000856868
0.000860073
0.000911444
0.000907973
0.000902936
0.000896819
0.000889752
0.000881924
0.000873578
0.000864978
0.000856399
0.000848121
0.00084042
0.00083355
0.000827744
0.000823201
0.000820085
0.00081852
0.00081859
0.000820338
0.000823774
0.000828876
0.00090315
0.000895293
0.000886931
0.000877105
0.000866587
0.0008554
0.000843854
0.000832225
0.00082081
0.000809937
0.000799922
0.000791057
0.00078361
0.000777819
0.000773884
0.000771966
0.000772188
0.000774637
0.000779371
0.000786424
0.000891118
0.000877888
0.00086429
0.000850713
0.000836507
0.000821405
0.000806414
0.000791622
0.000777251
0.000763733
0.000751393
0.000740512
0.000731355
0.00072418
0.000719209
0.000716629
0.000716602
0.000719275
0.000724783
0.000733266
0.000874463
0.000855
0.000835743
0.000817272
0.000799083
0.000780891
0.000763094
0.000745882
0.000728885
0.000713332
0.000699293
0.000686917
0.000676388
0.000668003
0.000661966
0.000658458
0.00065766
0.000659771
0.000665023
0.000673695
0.000852958
0.000826778
0.000802363
0.000779434
0.000757962
0.00073725
0.000717451
0.000698675
0.000681101
0.000665017
0.000650717
0.000637992
0.000626743
0.000617686
0.000610841
0.000606332
0.000604319
0.000605022
0.000608743
0.000615891
0.00082708
0.000794659
0.000766206
0.000740756
0.000717247
0.000695715
0.00067598
0.000657633
0.000640872
0.000625736
0.000612287
0.00060054
0.000590404
0.000581447
0.000574318
0.000569
0.000565605
0.000564331
0.000565493
0.000569561
0.000798187
0.000761336
0.000731002
0.000705358
0.000682874
0.000662827
0.000644746
0.000628587
0.000614491
0.000601784
0.000590526
0.000580671
0.000572064
0.000564453
0.000557539
0.000551775
0.000547153
0.000543806
0.000542002
0.000542175
0.000768501
0.000730167
0.000700914
0.000677804
0.000658672
0.000642382
0.000628289
0.000616012
0.000605259
0.000595688
0.000587235
0.000579973
0.000573318
0.00056716
0.000561109
0.00055526
0.000549768
0.000544657
0.000540115
0.000536469
0.000740788
0.000704605
0.000679522
0.000661423
0.000647567
0.000636504
0.000627399
0.000619723
0.000613091
0.00060719
0.000601779
0.00059667
0.000591898
0.000587204
0.000582115
0.000576584
0.000570604
0.000564191
0.000557491
0.000550692
0.000717868
0.000687474
0.000669171
0.000657843
0.000650381
0.000645183
0.000641349
0.000638323
0.000635722
0.00063326
0.000630708
0.000627879
0.000624673
0.000621116
0.00061688
0.000611764
0.000605521
0.000598199
0.000589941
0.000580796
0.000702119
0.000680535
0.000670761
0.000667092
0.000666354
0.000666993
0.000668179
0.00066943
0.000670432
0.000670965
0.000670861
0.000669985
0.000668241
0.000665589
0.000661945
0.000657209
0.000650881
0.000642923
0.000633546
0.000622704
0.000695183
0.000684443
0.000684024
0.000688165
0.00069394
0.000700017
0.00070574
0.000710763
0.00071488
0.000717958
0.000719898
0.000720618
0.000720049
0.000718128
0.000714879
0.000710429
0.000704213
0.000695824
0.0006856
0.000673471
0.000697893
0.000698994
0.000708012
0.000719654
0.000731478
0.000742485
0.000752251
0.000760591
0.00076742
0.000772694
0.000776382
0.000778455
0.000778874
0.000777589
0.000774678
0.000770447
0.000764274
0.000755514
0.00074456
0.000731345
0.000710387
0.000723469
0.000741547
0.000760178
0.00077754
0.000793014
0.00080642
0.000817737
0.000826993
0.000834229
0.000839475
0.000842754
0.000844071
0.000843428
0.000840828
0.000836614
0.000830417
0.000821284
0.000809611
0.000795376
0.000732303
0.00075693
0.000783475
0.000808555
0.000831003
0.000850578
0.000867331
0.000881389
0.000892886
0.000901932
0.000908614
0.000912991
0.0009151
0.000914964
0.000912598
0.000908429
0.000902179
0.000892677
0.000880253
0.000864984
0.000762976
0.000798401
0.000832766
0.000863798
0.000890962
0.000914361
0.000934251
0.000950893
0.000964508
0.000975271
0.000983309
0.000988717
0.000991558
0.000991868
0.000989665
0.00098544
0.000979071
0.000969201
0.000955992
0.00093966
0.000801591
0.000846928
0.000888475
0.000925019
0.000956586
0.000983585
0.00100645
0.00102556
0.0010412
0.0010536
0.00106293
0.00106931
0.0010728
0.00107346
0.0010713
0.00106679
0.00106017
0.00105014
0.00103615
0.00101874
0.00084725
0.000901556
0.000949657
0.000991285
0.00102696
0.00105734
0.00108303
0.00110448
0.00112206
0.00113603
0.00114658
0.00115386
0.00115795
0.00115891
0.00115675
0.001152
0.00114501
0.00113452
0.00111977
0.00110126
0.000898978
0.000961246
0.00101523
0.00106148
0.00110091
0.00113442
0.00116273
0.00118637
0.00120576
0.0012212
0.00123289
0.00124099
0.00124559
0.00124676
0.00124453
0.00123944
0.00123192
0.00122088
0.00120539
0.00118571
0.000955661
0.00102476
0.00108385
0.00113413
0.00117688
0.00121316
0.0012438
0.0012694
0.00129042
0.00130715
0.00131984
0.00132861
0.00133359
0.00133484
0.00133239
0.00132675
0.0013183
0.00130636
0.00129033
0.0012696
0.00101596
0.00109054
0.00115372
0.00120726
0.0012527
0.00129124
0.00132379
0.001351
0.00137334
0.00139113
0.00140459
0.00141384
0.00141896
0.00142008
0.00141722
0.00141088
0.00140129
0.00138794
0.00137073
0.00134931
0.00107817
0.00115655
0.00122251
0.00127824
0.00132547
0.00136554
0.00139937
0.00142766
0.00145088
0.00146939
0.00148336
0.00149275
0.00149762
0.00149823
0.00149469
0.00148737
0.00147631
0.0014613
0.00144239
0.00141952
0.00114015
0.00122015
0.00128713
0.00134359
0.00139141
0.00143196
0.00146621
0.00149484
0.00151813
0.00153699
0.00155144
0.00156145
0.00156691
0.00156737
0.00156321
0.00155441
0.00154106
0.00152327
0.00150121
0.00147526
0.00119916
0.00127799
0.00134367
0.00139893
0.0014457
0.00148532
0.00151881
0.00154713
0.00157086
0.00158905
0.00160127
0.00160711
0.0016087
0.00160562
0.00159801
0.00158651
0.00157096
0.00155147
0.00152833
0.00150192
0.00125183
0.00132592
0.00138728
0.00143887
0.0014826
0.00151867
0.001549
0.00157403
0.0015928
0.00160973
0.00162174
0.00163059
0.00163323
0.00162986
0.00162058
0.00160617
0.00158741
0.00156373
0.00153562
0.00150357
0.00129416
0.00135908
0.00141245
0.00145642
0.00149161
0.00152423
0.00155087
0.00157405
0.00159477
0.00160755
0.00161672
0.00162077
0.00161868
0.00161025
0.00159519
0.00157437
0.00154978
0.00152034
0.00148683
0.00144959
0.00132178
0.0013728
0.00141273
0.00144303
0.00147235
0.00149463
0.00151625
0.00153463
0.00154999
0.00156157
0.00156846
0.00156955
0.00156364
0.00154977
0.00152729
0.00149742
0.00146371
0.00142491
0.00138061
0.00133163
0.00133085
0.0013622
0.00138295
0.00140179
0.00141463
0.00142692
0.00143925
0.00145148
0.00146279
0.00147173
0.00147636
0.00147449
0.00146393
0.00144281
0.00140983
0.0013666
0.00131785
0.00126223
0.00120067
0.00113459
0.00131581
0.00131879
0.00131693
0.00131342
0.0013107
0.00131061
0.00131411
0.00132099
0.00132981
0.00133797
0.00134203
0.00133812
0.00132251
0.00129208
0.00124483
0.00118342
0.00111222
0.00103005
0.000943753
0.000858889
0.00127319
0.00124378
0.00121377
0.00118644
0.00116437
0.0011502
0.00114529
0.00114917
0.00115917
0.0011706
0.00117738
0.00117298
0.00115158
0.00110909
0.00104396
0.000961977
0.000865088
0.00075711
0.000649299
0.000550068
0.00120175
0.00113722
0.00107706
0.0010245
0.000983211
0.000956843
0.000947574
0.00095453
0.000972438
0.000992901
0.0010056
0.00100041
0.000970135
0.000911925
0.000831193
0.000734307
0.000628793
0.000520705
0.000416734
0.00034173
0.00109877
0.00100317
0.000915209
0.000841736
0.000786871
0.000755638
0.000750911
0.000770767
0.000805489
0.000840268
0.000860144
0.00085428
0.000819053
0.000759647
0.000679323
0.000580668
0.000475233
0.000371595
0.000296151
0.000247551
0.000967265
0.000844517
0.000739798
0.000659842
0.000616515
0.000613057
0.000646928
0.000708293
0.000769978
0.000811709
0.000824444
0.000806668
0.00076103
0.000690026
0.00059555
0.000486218
0.000373363
0.00028813
0.000233252
0.000196654
0.000805283
0.000670674
0.000569434
0.000513581
0.000510538
0.000562842
0.000645805
0.00072488
0.000782756
0.000814645
0.000817565
0.000790061
0.000733821
0.000648447
0.000540651
0.000422215
0.000309266
0.000237969
0.000191553
0.000183989
0.000616357
0.000488816
0.000416632
0.000410681
0.000472939
0.000569548
0.0006671
0.000745987
0.000799864
0.000824666
0.000819474
0.000784647
0.0007195
0.000624735
0.00050717
0.000380499
0.000267891
0.000202509
0.000180561
0.000196156
0.000405276
0.000313623
0.00030152
0.000367256
0.000476358
0.000592355
0.000692438
0.000766855
0.000812606
0.000830763
0.00082237
0.000785987
0.000719246
0.000620973
0.000496537
0.000362468
0.000247742
0.000189389
0.000186108
0.000210955
0.000226783
0.000204426
0.000255521
0.000361659
0.0004914
0.000614147
0.000711271
0.000779118
0.0008195
0.000834918
0.00082733
0.000794578
0.000732656
0.000637485
0.000511583
0.000372603
0.000255396
0.000193126
0.000192461
0.000217825
0.000174939
0.000174418
0.00023945
0.000362611
0.000503895
0.000630655
0.000726535
0.000790016
0.000825955
0.000839478
0.000834393
0.000808658
0.000757301
0.000671969
0.000549069
0.000402406
0.000271774
0.000203583
0.000193181
0.0002158
0.000148147
0.000156077
0.00022952
0.000365783
0.00052162
0.000655161
0.000748648
0.000804802
0.000834097
0.000845224
0.000842909
0.000826734
0.000789592
0.000721397
0.000611469
0.000462628
0.000310333
0.000212008
0.000191599
0.00021271
0.000151559
0.000151947
0.000232095
0.00039131
0.00056588
0.000699714
0.000781311
0.000824072
0.000842689
0.000848445
0.000847107
0.000838388
0.000817385
0.00077238
0.000685652
0.000545838
0.000374182
0.000239919
0.000195172
0.000209646
0.000159842
0.000167713
0.000274561
0.000472567
0.000654448
0.000764881
0.000817733
0.000840275
0.000848924
0.000851281
0.000850791
0.000847608
0.000838789
0.000815633
0.00076378
0.000658433
0.000488943
0.00030742
0.0002107
0.000206663
0.000177668
0.000221254
0.000418858
0.000648934
0.000777305
0.000827066
0.000844922
0.000850253
0.000851531
0.00085198
0.000851527
0.000849805
0.000845624
0.000832904
0.000803793
0.000736218
0.000598501
0.000402497
0.000255471
0.00020719
0.000388072
0.000454647
0.000648492
0.000771319
0.000823398
0.000843406
0.000849889
0.000851684
0.000852171
0.000852211
0.000852264
0.000852455
0.000852748
0.000855594
0.000858973
0.000863581
0.000863507
0.00079489
0.000455467
0.000220601
0.000909319
0.000909818
0.000910493
0.00091104
0.00091146
0.000911758
0.000911943
0.000912023
0.000912008
0.000911906
0.000911729
0.000911484
0.000911189
0.000910848
0.000910448
0.000909998
0.000909497
0.00090894
0.000908322
0.000907636
0.000909184
0.000909689
0.000910355
0.000910895
0.000911307
0.000911595
0.000911767
0.000911829
0.000911792
0.000911666
0.000911463
0.000911196
0.000910881
0.000910528
0.000910121
0.000909672
0.000909178
0.000908635
0.000908035
0.000907374
0.000909157
0.000909651
0.000910309
0.000910841
0.000911244
0.00091152
0.000911671
0.000911705
0.000911629
0.000911461
0.000911215
0.000910906
0.000910557
0.000910178
0.000909754
0.000909301
0.000908814
0.000908286
0.000907704
0.000907067
0.000909156
0.000909637
0.000910287
0.000910814
0.000911214
0.000911482
0.000911614
0.000911609
0.000911479
0.000911247
0.000910946
0.000910598
0.00091023
0.000909839
0.000909421
0.000908987
0.000908514
0.000907999
0.000907433
0.000906806
0.000909177
0.000909639
0.00091028
0.000910808
0.000911217
0.000911494
0.000911618
0.000911568
0.000911386
0.000911152
0.000910881
0.000910576
0.000910252
0.000909936
0.000909532
0.000909142
0.000908667
0.000908153
0.000907613
0.000906973
0.00090924
0.000909666
0.000910288
0.000910822
0.000911258
0.000911595
0.000911789
0.000911792
0.000911654
0.000911474
0.000911244
0.000910964
0.000910621
0.000910327
0.00090995
0.00090956
0.000909053
0.000908548
0.000908032
0.000907392
0.000909425
0.00090983
0.000910402
0.00091093
0.000911442
0.000911862
0.000912129
0.000912203
0.000912088
0.000911917
0.000911699
0.000911414
0.00091106
0.000910673
0.000910343
0.00090991
0.000909434
0.000908945
0.000908445
0.000907842
0.00090973
0.000910169
0.000910745
0.000911294
0.000911834
0.000912239
0.000912486
0.000912572
0.000912474
0.00091234
0.000912141
0.000911856
0.000911507
0.000911062
0.000910698
0.000910402
0.000909933
0.000909459
0.000908962
0.000908301
0.000910033
0.000910526
0.00091117
0.000911721
0.000912184
0.000912529
0.000912759
0.000912873
0.000912884
0.000912799
0.000912617
0.000912329
0.000911924
0.000911559
0.000911192
0.000910854
0.000910378
0.000909836
0.000909235
0.000908558
0.000910164
0.000910685
0.000911332
0.000911865
0.000912278
0.00091258
0.000912789
0.000912912
0.000912967
0.000912927
0.000912781
0.000912538
0.000912229
0.000911882
0.000911469
0.000910981
0.000910417
0.000909816
0.000909183
0.000908506
0.000909914
0.000910453
0.000911118
0.000911644
0.000912063
0.000912393
0.000912625
0.000912766
0.000912848
0.000912807
0.000912638
0.000912367
0.000912028
0.000911647
0.000911175
0.000910615
0.000910016
0.000909413
0.00090878
0.000908098
0.000909304
0.000909875
0.000910592
0.000911191
0.000911764
0.000912225
0.0009125
0.000912609
0.000912596
0.000912435
0.000912166
0.000911809
0.000911434
0.000911061
0.000910636
0.000910097
0.000909538
0.00090894
0.000908257
0.000907526
0.000908684
0.000909286
0.000910075
0.000910835
0.000911583
0.000912095
0.000912336
0.000912362
0.00091225
0.000912042
0.000911793
0.000911489
0.000911114
0.000910763
0.000910405
0.000909948
0.000909429
0.000908816
0.000908073
0.000907351
0.000908649
0.000909218
0.000909989
0.000910772
0.000911458
0.000911867
0.000912066
0.000912088
0.000912017
0.000911892
0.000911728
0.000911524
0.000911162
0.000910832
0.000910465
0.000910048
0.00090952
0.000908902
0.00090818
0.000907521
0.000909082
0.000909616
0.000910305
0.000910926
0.000911348
0.00091165
0.000911828
0.000911895
0.000911869
0.000911769
0.000911621
0.000911421
0.00091116
0.000910845
0.000910437
0.00090996
0.000909419
0.000908826
0.000908196
0.00090754
0.000909668
0.000910168
0.000910669
0.000911037
0.000911305
0.000911512
0.000911633
0.000911684
0.000911657
0.00091157
0.000911431
0.00091123
0.000910974
0.000910656
0.00091023
0.000909721
0.000909141
0.000908506
0.000907836
0.000907139
0.000910324
0.000910692
0.000911127
0.000911407
0.000911623
0.000911759
0.000911813
0.00091179
0.000911696
0.000911553
0.000911363
0.000911118
0.000910835
0.00091051
0.000910083
0.00090957
0.000908993
0.000908361
0.000907689
0.000906971
0.000910874
0.0009113
0.000911822
0.000912134
0.000912369
0.000912485
0.000912483
0.000912334
0.00091216
0.000911959
0.000911718
0.000911437
0.000911143
0.000910862
0.000910456
0.000909945
0.00090937
0.000908712
0.000908023
0.000907288
0.000911328
0.000911802
0.000912396
0.000912835
0.000913129
0.000913281
0.000913287
0.000913129
0.00091297
0.000912767
0.000912515
0.000912216
0.000911906
0.000911621
0.000911167
0.000910589
0.00091
0.000909357
0.000908734
0.000908031
0.000911689
0.000912189
0.000912808
0.000913274
0.000913598
0.000913791
0.000913868
0.000913844
0.000913737
0.000913557
0.000913309
0.000912997
0.000912648
0.000912268
0.000911799
0.000911235
0.000910699
0.000910138
0.000909569
0.000908852
0.000911985
0.000912498
0.000913125
0.0009136
0.000913932
0.000914135
0.000914224
0.000914216
0.000914122
0.000913953
0.00091372
0.000913429
0.000913103
0.000912749
0.000912323
0.000911848
0.000911323
0.000910739
0.000910089
0.000909359
0.000912253
0.000912776
0.000913408
0.000913887
0.000914222
0.000914428
0.000914521
0.000914515
0.000914424
0.000914259
0.000914031
0.000913747
0.000913429
0.000913085
0.00091267
0.000912206
0.000911687
0.000911107
0.000910459
0.000909737
0.000912507
0.000913039
0.000913676
0.00091416
0.000914499
0.000914709
0.000914805
0.000914803
0.000914714
0.000914552
0.000914326
0.000914044
0.000913729
0.000913387
0.000912975
0.000912514
0.000911998
0.000911422
0.000910781
0.000910068
0.000912746
0.000913285
0.000913926
0.000914413
0.000914757
0.000914971
0.000915071
0.000915073
0.000914988
0.000914829
0.000914605
0.000914324
0.000914009
0.000913667
0.000913254
0.000912791
0.000912275
0.000911701
0.000911064
0.000910357
0.000912964
0.000913508
0.000914148
0.000914636
0.00091498
0.000915196
0.000915299
0.000915303
0.00091522