/*--------------------------------*- C++ -*----------------------------------*\
  =========                 |
  \\      /  F ield         | OpenFOAM: The Open Source CFD Toolbox
   \\    /   O peration     | Website:  https://openfoam.org
    \\  /    A nd           | Version:  6
     \\/     M anipulation  |
\*---------------------------------------------------------------------------*/
FoamFile
{
    version     2.0;
    format      ascii;
    class       volScalarField;
    location    "25";
    object      nut;
}
// * * * * * * * * * * * * * * * * * * * * * * * * * * * * * * * * * * * * * //

dimensions      [0 2 -1 0 0 0 0];

internalField   nonuniform List<scalar> 
10000
(
1.46526e-05
6.97965e-05
8.99067e-05
0.000107292
0.000126758
0.000150924
0.000178752
0.000205976
0.000227671
0.000239792
0.000240077
0.00022852
0.000207715
0.000181283
0.000153781
0.000128764
0.000108328
9.04932e-05
6.98957e-05
1.45857e-05
1.46035e-05
6.98273e-05
9.0161e-05
0.000107849
0.00012769
0.000152377
0.000180398
0.000207182
0.000230533
0.000243344
0.000243831
0.000231733
0.000208988
0.000182159
0.00015448
0.00012904
0.000108377
9.0504e-05
6.98103e-05
1.45675e-05
1.46212e-05
6.98012e-05
8.98863e-05
0.000107815
0.000126796
0.000151096
0.00017936
0.000208308
0.000228665
0.000242043
0.000242367
0.000230084
0.000210202
0.000183966
0.000156112
0.000129484
0.000108174
9.06531e-05
6.99207e-05
1.46028e-05
1.46442e-05
6.97166e-05
8.99545e-05
0.000107278
0.000126629
0.000151313
0.0001803
0.000206419
0.000228192
0.00024028
0.000240777
0.000229538
0.000208906
0.000181368
0.000154555
0.000129944
0.00010876
9.02778e-05
6.98151e-05
1.45905e-05
1.46308e-05
6.96628e-05
8.93747e-05
0.000106738
0.000127722
0.000152489
0.00018166
0.000207939
0.00022922
0.000241013
0.000240979
0.000229706
0.000209754
0.000182377
0.000153947
0.000129428
0.000109939
9.04439e-05
6.99002e-05
1.46095e-05
1.45983e-05
6.96069e-05
8.95184e-05
0.00010721
0.000126215
0.000151492
0.000180568
0.00020674
0.000230405
0.000243147
0.000243949
0.000231935
0.000209479
0.000181831
0.000154332
0.000129062
0.000109075
9.05336e-05
6.99443e-05
1.46309e-05
1.4611e-05
6.96211e-05
8.97409e-05
0.000106247
0.000126373
0.000152422
0.000179805
0.000206459
0.000228524
0.000241172
0.000242671
0.000231277
0.000208605
0.000183224
0.000153641
0.000129775
0.000108234
9.03898e-05
6.99271e-05
1.4646e-05
1.46062e-05
6.96215e-05
9.00934e-05
0.000106533
0.000126945
0.000152488
0.000179163
0.000206874
0.000228625
0.000240782
0.000241204
0.000231392
0.000209681
0.000181619
0.000153145
0.000129502
0.000109032
9.10689e-05
6.99835e-05
1.46372e-05
1.46208e-05
6.96656e-05
8.97456e-05
0.000106948
0.000127823
0.000152144
0.000180062
0.000208677
0.000229271
0.000240655
0.000240984
0.00022951
0.000208767
0.000180981
0.000153259
0.00012924
0.000108599
9.08339e-05
7.00347e-05
1.46372e-05
1.46433e-05
6.97452e-05
9.00282e-05
0.000107262
0.00012692
0.000151109
0.000179056
0.000207332
0.000228913
0.000240613
0.00024121
0.00023047
0.000208403
0.00018128
0.000153422
0.00012851
0.000108263
9.04337e-05
7.00123e-05
1.46123e-05
1.46763e-05
6.98501e-05
8.98327e-05
0.000107416
0.000127277
0.000151489
0.000180185
0.000209303
0.000230042
0.000241251
0.000241368
0.000230338
0.000210413
0.000183662
0.000155207
0.000128676
0.000108302
9.05927e-05
7.00487e-05
1.46433e-05
1.46818e-05
6.99717e-05
9.06085e-05
0.000107719
0.00012803
0.000151727
0.000179361
0.000207765
0.000229969
0.000243486
0.000243953
0.000232857
0.00021053
0.000182373
0.000154283
0.000128801
0.000108377
9.04228e-05
7.00687e-05
1.46543e-05
1.46611e-05
7.00062e-05
9.03081e-05
0.000108296
0.000127409
0.000151943
0.000179812
0.000208037
0.000232067
0.000241396
0.000241646
0.000231873
0.000210928
0.000183937
0.000155301
0.000129252
0.000108354
9.0652e-05
7.01072e-05
1.46574e-05
1.46749e-05
7.00044e-05
9.0509e-05
0.000107457
0.000128046
0.000152878
0.000181921
0.000208254
0.000230056
0.000241044
0.000241701
0.000229626
0.000208891
0.000181672
0.00015401
0.000129473
0.00010928
9.07472e-05
7.01611e-05
1.46557e-05
1.46824e-05
6.99194e-05
9.02773e-05
0.000108241
0.000128079
0.000152201
0.000181141
0.000210193
0.000232051
0.000241026
0.000240834
0.000229968
0.000210897
0.000182857
0.000155103
0.000130117
0.0001083
9.06929e-05
6.99507e-05
1.46416e-05
1.46715e-05
6.98956e-05
8.99691e-05
0.000106999
0.000127889
0.000152727
0.000181322
0.000208439
0.000229922
0.000241183
0.00024139
0.000229575
0.000208947
0.000181823
0.000154041
0.00012892
0.000108496
9.10029e-05
7.00055e-05
1.46159e-05
1.46757e-05
6.99192e-05
9.00038e-05
0.000107836
0.00012766
0.00015387
0.00018238
0.00021004
0.000230004
0.00024158
0.000243302
0.000230437
0.000210174
0.000182259
0.000154443
0.000129051
0.0001085
9.05623e-05
6.98609e-05
1.46092e-05
1.46455e-05
6.9902e-05
9.00017e-05
0.000107806
0.00012777
0.000154085
0.000182844
0.000210085
0.000232311
0.000243307
0.000241
0.000229462
0.000209461
0.000183472
0.000156203
0.000129072
0.000108156
9.07213e-05
6.98276e-05
1.45938e-05
1.46315e-05
6.98673e-05
8.99743e-05
0.000107747
0.00012859
0.000154164
0.000181425
0.000209328
0.00023049
0.000241247
0.000241089
0.000230027
0.000209421
0.000183132
0.000155477
0.000129165
0.000108158
9.00502e-05
6.97708e-05
1.45856e-05
1.46168e-05
6.98722e-05
9.00852e-05
0.000107075
0.000128076
0.000153856
0.000181682
0.000211396
0.000232566
0.000241865
0.00024125
0.000230555
0.000209565
0.000182894
0.000155566
0.000129236
0.000108083
9.03242e-05
6.98244e-05
1.45729e-05
1.46033e-05
6.97922e-05
8.97085e-05
0.000106975
0.000127574
0.000153136
0.000182285
0.000209582
0.000230254
0.000243082
0.000241793
0.000233425
0.000211761
0.000183473
0.000155819
0.000129328
0.000107987
8.99807e-05
6.96454e-05
1.45547e-05
1.45806e-05
6.96942e-05
8.98759e-05
0.000107072
0.000127704
0.000153734
0.000181923
0.00020791
0.00022948
0.000241094
0.000241133
0.000232175
0.000210914
0.000184524
0.000156445
0.00012934
0.000107829
8.98876e-05
6.96756e-05
1.45457e-05
1.45701e-05
6.96135e-05
8.9326e-05
0.000107019
0.00012845
0.000152386
0.000181346
0.000208303
0.000231809
0.000243535
0.000241493
0.000231993
0.000211165
0.000185358
0.000155557
0.000129306
0.000107831
8.97391e-05
6.95044e-05
1.45267e-05
1.45559e-05
6.95494e-05
8.92966e-05
0.000107345
0.000127675
0.000152577
0.000181668
0.000208515
0.000229879
0.000241477
0.000241523
0.00023249
0.000211948
0.000184807
0.000155485
0.000129204
0.000107535
8.95077e-05
6.94673e-05
1.45062e-05
1.45435e-05
6.95121e-05
8.91603e-05
0.000107158
0.000127759
0.000153734
0.000181997
0.000209006
0.000230306
0.000242165
0.000242121
0.000231667
0.00021162
0.000184108
0.000155068
0.000129085
0.000107836
8.9303e-05
6.93541e-05
1.44786e-05
1.45276e-05
6.94296e-05
8.93824e-05
0.000107161
0.000128437
0.00015315
0.00018237
0.00020949
0.00023335
0.000245392
0.000245171
0.000233373
0.000211856
0.000183622
0.000154632
0.000128948
0.000107427
8.8957e-05
6.91478e-05
1.44505e-05
1.45103e-05
6.94203e-05
8.92451e-05
0.000106925
0.000128043
0.000154303
0.000181183
0.000210236
0.00023273
0.000244998
0.000243764
0.000232123
0.000210894
0.000183229
0.000154151
0.000128894
0.000107022
8.88365e-05
6.91754e-05
1.44389e-05
1.4494e-05
6.93389e-05
8.92326e-05
0.000106926
0.000128157
0.000153748
0.000181281
0.00020989
0.000232126
0.000244773
0.000246332
0.000234728
0.00021177
0.000183924
0.000154249
0.000128853
0.000106873
8.87042e-05
6.90803e-05
1.44173e-05
1.44729e-05
6.93442e-05
8.91994e-05
0.000107524
0.000128545
0.000154013
0.000182284
0.000208921
0.000230366
0.000242679
0.000245177
0.000233464
0.00020963
0.000182276
0.0001546
0.000129023
0.000107403
8.85961e-05
6.89846e-05
1.43943e-05
1.44542e-05
6.93332e-05
8.91787e-05
0.000107384
0.000128662
0.000153987
0.000182312
0.000209902
0.000230748
0.000242491
0.00024483
0.000233854
0.000209893
0.000182601
0.00015534
0.000129061
0.000107253
8.87313e-05
6.887e-05
1.43756e-05
1.44252e-05
6.92456e-05
8.90843e-05
0.00010745
0.000129032
0.000155146
0.000183971
0.000212508
0.000231688
0.000242874
0.000243251
0.000232408
0.000210812
0.000183582
0.000155088
0.000129071
0.000106819
8.8396e-05
6.87624e-05
1.43484e-05
1.44084e-05
6.91671e-05
8.8964e-05
0.00010745
0.000129111
0.000155057
0.000183793
0.00021201
0.000232248
0.000243549
0.000243743
0.000234527
0.000212561
0.000184042
0.000156317
0.000129341
0.00010685
8.83161e-05
6.87023e-05
1.43272e-05
1.43936e-05
6.91265e-05
8.90525e-05
0.000107564
0.000130089
0.000156294
0.000184017
0.000212017
0.000234971
0.000246725
0.000244755
0.000232519
0.000211171
0.000184594
0.000157184
0.000130267
0.000107552
8.85059e-05
6.8609e-05
1.43044e-05
1.43703e-05
6.90698e-05
8.91129e-05
0.000107891
0.000130451
0.000156219
0.000186172
0.000214252
0.000234457
0.000246068
0.000247761
0.000233973
0.000212059
0.000184969
0.000156762
0.000130207
0.000107539
8.82773e-05
6.86616e-05
1.43029e-05
1.43529e-05
6.90391e-05
8.90691e-05
0.000108055
0.000130844
0.000156944
0.000186043
0.000214126
0.000235656
0.000247106
0.00024727
0.00023514
0.000213577
0.000185847
0.000156921
0.000130503
0.00010778
8.81783e-05
6.86352e-05
1.42921e-05
1.43229e-05
6.89579e-05
8.9048e-05
0.000108338
0.000131518
0.000157733
0.000188425
0.00021753
0.000239767
0.000251316
0.000249347
0.000238773
0.000216818
0.000187161
0.000158064
0.00013087
0.000107824
8.83719e-05
6.85842e-05
1.42777e-05
1.42977e-05
6.88886e-05
8.90111e-05
0.000108558
0.000131772
0.000158704
0.000189413
0.000218341
0.000240958
0.000252959
0.000252739
0.000240124
0.000217606
0.00018799
0.000158151
0.000131177
0.000107895
8.84115e-05
6.85951e-05
1.42488e-05
1.42652e-05
6.87855e-05
8.88837e-05
0.000108602
0.000132218
0.000160037
0.000190603
0.00022093
0.000243224
0.000255062
0.000253501
0.000241723
0.000219046
0.00018915
0.000159347
0.000131775
0.00010799
8.83344e-05
6.85148e-05
1.42228e-05
1.42401e-05
6.8705e-05
8.88358e-05
0.000108739
0.000132431
0.00016057
0.000192209
0.000222328
0.000245209
0.000257206
0.000255435
0.000243365
0.000219556
0.000189999
0.00015935
0.000131897
0.000108065
8.83298e-05
6.8401e-05
1.41853e-05
1.42244e-05
6.86535e-05
8.87433e-05
0.000108675
0.000132588
0.000161065
0.000192421
0.000223389
0.000247558
0.00026018
0.000259159
0.000245974
0.000222755
0.000191401
0.000160185
0.000132384
0.000107994
8.82084e-05
6.8313e-05
1.41637e-05
1.42072e-05
6.86174e-05
8.87306e-05
0.000108757
0.00013295
0.000161747
0.000193951
0.000225516
0.000249369
0.000262057
0.000261404
0.000248438
0.000223677
0.000192555
0.000161403
0.00013254
0.000107943
8.81434e-05
6.82377e-05
1.41403e-05
1.41953e-05
6.86089e-05
8.86822e-05
0.00010874
0.000133349
0.000163375
0.000196656
0.000227983
0.000252407
0.000264885
0.000264289
0.000250529
0.000225452
0.000193686
0.000161437
0.000132666
0.000107835
8.79858e-05
6.816e-05
1.41163e-05
1.41698e-05
6.8581e-05
8.86291e-05
0.000108768
0.000133697
0.000164159
0.000198148
0.000230304
0.000254434
0.000266959
0.000266282
0.00025249
0.000227688
0.000196113
0.000162332
0.000132888
0.000107875
8.78769e-05
6.80813e-05
1.40921e-05
1.41362e-05
6.84933e-05
8.85278e-05
0.000108824
0.000134262
0.000165319
0.000200219
0.00023225
0.000256569
0.000269411
0.000268959
0.000255079
0.000229913
0.000197236
0.000163459
0.000133416
0.000107964
8.78061e-05
6.80096e-05
1.40705e-05
1.41074e-05
6.84446e-05
8.84727e-05
0.000108941
0.000134811
0.000166368
0.000201804
0.000234371
0.000258893
0.00027165
0.000271132
0.00025742
0.000232466
0.000200064
0.000164666
0.000133867
0.000108213
8.7816e-05
6.79822e-05
1.40553e-05
1.40682e-05
6.83518e-05
8.84204e-05
0.000109164
0.000135528
0.000167553
0.000203481
0.000236346
0.000261043
0.000273932
0.000273476
0.000259775
0.000234697
0.00020151
0.000166392
0.000134779
0.000108585
8.78662e-05
6.79638e-05
1.40346e-05
1.40388e-05
6.82748e-05
8.83383e-05
0.000109335
0.000135999
0.000168572
0.000205158
0.000238402
0.000263248
0.000276258
0.000275899
0.000262264
0.000237036
0.000203663
0.00016732
0.000135343
0.000108734
8.78984e-05
6.79541e-05
1.40245e-05
1.40079e-05
6.81885e-05
8.82784e-05
0.000109545
0.000136639
0.000169548
0.000206922
0.000240482
0.000265492
0.000278656
0.000278494
0.000264999
0.000239551
0.000205612
0.0001689
0.000136003
0.000109079
8.7939e-05
6.79581e-05
1.40044e-05
1.39901e-05
6.81335e-05
8.82265e-05
0.000109735
0.000137046
0.000170531
0.000208573
0.000242564
0.000267809
0.000281161
0.000281069
0.000267513
0.00024197
0.00020785
0.000169906
0.000136664
0.000109306
8.79355e-05
6.79508e-05
1.39857e-05
1.39654e-05
6.81138e-05
8.82357e-05
0.000109998
0.000137359
0.000170845
0.000210036
0.000244605
0.000270195
0.000283811
0.000283864
0.000270246
0.000244498
0.000209863
0.000171361
0.000137374
0.000109591
8.79614e-05
6.79151e-05
1.39626e-05
1.39339e-05
6.80335e-05
8.81662e-05
0.000110199
0.000137719
0.000171777
0.000211091
0.000246648
0.000272617
0.000286407
0.000286506
0.00027284
0.000246911
0.000211684
0.000172414
0.000137989
0.000109766
8.79293e-05
6.79002e-05
1.39358e-05
1.39123e-05
6.79905e-05
8.81526e-05
0.000110534
0.000138777
0.000172858
0.000211232
0.000248451
0.000275068
0.000289139
0.000289283
0.000275445
0.000249122
0.000213567
0.000173956
0.000138843
0.000110061
8.7908e-05
6.78628e-05
1.3907e-05
1.38801e-05
6.79196e-05
8.80527e-05
0.000110628
0.000140076
0.000174448
0.000213752
0.000250601
0.000277602
0.00029189
0.000292029
0.000278011
0.00025134
0.000215219
0.000175011
0.000139186
0.000110143
8.78407e-05
6.78133e-05
1.38743e-05
1.38527e-05
6.78719e-05
8.79994e-05
0.000110702
0.000140061
0.000173947
0.000212815
0.000251627
0.000279836
0.000294631
0.000294864
0.000280652
0.000253496
0.000216712
0.000176059
0.000139536
0.000110295
8.77471e-05
6.77247e-05
1.38408e-05
1.38249e-05
6.78152e-05
8.78936e-05
0.000110733
0.000140424
0.000175021
0.000214763
0.000252592
0.000281825
0.000297078
0.000297429
0.00028298
0.000255269
0.000217501
0.000176954
0.0001401
0.0001105
8.76883e-05
6.76654e-05
1.3807e-05
1.38001e-05
6.7787e-05
8.78547e-05
0.000110821
0.000140586
0.000176043
0.000213629
0.000251537
0.000283251
0.000299366
0.000299879
0.00028518
0.000256822
0.000217498
0.000177922
0.000141277
0.00011075
8.76101e-05
6.76011e-05
1.37666e-05
1.37679e-05
6.77412e-05
8.78022e-05
0.000110961
0.000140927
0.000175874
0.000214344
0.000254039
0.000284932
0.000301408
0.000302023
0.000287066
0.000258235
0.000219439
0.000178687
0.000141618
0.000110814
8.74767e-05
6.74986e-05
1.37227e-05
1.37323e-05
6.76867e-05
8.77207e-05
0.000111112
0.000141612
0.000177523
0.00021542
0.000252026
0.000284664
0.000302915
0.000303913
0.000288592
0.000258382
0.000218371
0.000178815
0.000141991
0.00011094
8.73804e-05
6.74287e-05
1.36816e-05
1.36832e-05
6.75922e-05
8.75764e-05
0.000111219
0.000142326
0.000180472
0.000217416
0.000252864
0.000283638
0.000304063
0.000305449
0.000289801
0.000257788
0.000219467
0.00017993
0.000142649
0.000111065
8.7232e-05
6.73258e-05
1.36242e-05
1.36278e-05
6.74675e-05
8.73429e-05
0.000111186
0.000142744
0.000180784
0.000220293
0.000253893
0.000286564
0.000305414
0.000306593
0.000291141
0.000260724
0.000221409
0.000180653
0.00014303
0.000111043
8.69982e-05
6.71772e-05
1.35551e-05
1.35572e-05
6.73048e-05
8.70784e-05
0.000111061
0.000142909
0.000180845
0.000219103
0.000253917
0.000283797
0.000304205
0.00030586
0.000290424
0.00025911
0.000222904
0.000181594
0.000143663
0.000111063
8.67278e-05
6.699e-05
1.34802e-05
1.34755e-05
6.70566e-05
8.6675e-05
0.000110791
0.000142613
0.000180689
0.000218173
0.000255161
0.000284756
0.000302388
0.000303753
0.000288914
0.000260273
0.000224003
0.000182025
0.00014382
0.000110891
8.63982e-05
6.67795e-05
1.33987e-05
1.33866e-05
6.68145e-05
8.62917e-05
0.000110652
0.00014258
0.000180252
0.00021964
0.000257089
0.00028684
0.000307298
0.000309063
0.000293852
0.000262495
0.000225309
0.000182303
0.000144008
0.000110755
8.60591e-05
6.65558e-05
1.33089e-05
1.32784e-05
6.64991e-05
8.58092e-05
0.000110439
0.000142084
0.00017974
0.000221472
0.000259295
0.000288123
0.000304805
0.000306116
0.000291954
0.000265953
0.000227385
0.00018464
0.000144457
0.000110657
8.56694e-05
6.62931e-05
1.32092e-05
1.31655e-05
6.62006e-05
8.53353e-05
0.000110388
0.000142254
0.000182039
0.000224539
0.000264638
0.000291609
0.000308282
0.000311671
0.000296894
0.000266499
0.000228258
0.000183908
0.000144144
0.00011052
8.53127e-05
6.60645e-05
1.31084e-05
1.30275e-05
6.58746e-05
8.48481e-05
0.000110467
0.000144376
0.000184996
0.000227603
0.000265523
0.000294662
0.000313304
0.000311225
0.000296374
0.000270524
0.000230274
0.00018591
0.000144373
0.000110591
8.49204e-05
6.57752e-05
1.29806e-05
1.2871e-05
6.55194e-05
8.4384e-05
0.000110505
0.000147548
0.000188694
0.000232141
0.000272303
0.000298785
0.000313991
0.000314513
0.00029922
0.000270566
0.00023147
0.000187075
0.000144908
0.000110815
8.45959e-05
6.55333e-05
1.2849e-05
1.26988e-05
6.51557e-05
8.40011e-05
0.00011079
0.000148459
0.00019332
0.000238169
0.000277626
0.00030761
0.0003234
0.000321275
0.000308047
0.000278668
0.000236411
0.000190817
0.000147653
0.000111492
8.4302e-05
6.52445e-05
1.26856e-05
1.24987e-05
6.47835e-05
8.37298e-05
0.000111437
0.000150327
0.000195618
0.00024151
0.000283443
0.000313445
0.000328065
0.000326905
0.000312701
0.000282358
0.000243032
0.000195412
0.000152148
0.000112208
8.40943e-05
6.50202e-05
1.25137e-05
1.22762e-05
6.43971e-05
8.34976e-05
0.000112458
0.000153118
0.000200069
0.000249901
0.000293009
0.000323297
0.000336805
0.000337853
0.000321199
0.000289053
0.00024709
0.000199418
0.000153487
0.000112961
8.39809e-05
6.4745e-05
1.22952e-05
1.20311e-05
6.40223e-05
8.33596e-05
0.000113807
0.000156761
0.000206724
0.000258058
0.000301879
0.000333286
0.000349854
0.000348859
0.000331701
0.000299896
0.000255899
0.000205484
0.000157085
0.000114439
8.40138e-05
6.45005e-05
1.20668e-05
1.17689e-05
6.36564e-05
8.32932e-05
0.000115338
0.000160578
0.000213946
0.000266653
0.00031165
0.000343921
0.000360162
0.000359724
0.000342486
0.00030991
0.000265024
0.000212077
0.000160777
0.00011618
8.41401e-05
6.42285e-05
1.18042e-05
1.15031e-05
6.33753e-05
8.3546e-05
0.000117574
0.000165384
0.000221795
0.000276359
0.000322682
0.000355906
0.000373108
0.000372606
0.000354832
0.000321389
0.000275273
0.000221353
0.000166165
0.000118563
8.44638e-05
6.40251e-05
1.15474e-05
1.12427e-05
6.31928e-05
8.41353e-05
0.000120595
0.000171122
0.000230452
0.000287245
0.000334804
0.000368739
0.000386135
0.000385826
0.000367833
0.000333617
0.000286064
0.000229639
0.000171449
0.000121336
8.50126e-05
6.38501e-05
1.12763e-05
1.10015e-05
6.31588e-05
8.51072e-05
0.000124435
0.000179111
0.000240585
0.000298905
0.00034775
0.000382699
0.000400779
0.000400497
0.000382043
0.00034697
0.000298209
0.000240021
0.000178526
0.000125042
8.59649e-05
6.3802e-05
1.1037e-05
1.07959e-05
6.33147e-05
8.65401e-05
0.000128772
0.000187011
0.000250932
0.000311381
0.000361705
0.000397524
0.000415991
0.000415818
0.000396992
0.000360928
0.000310582
0.000250543
0.000187292
0.000129534
8.73105e-05
6.38691e-05
1.08163e-05
1.06346e-05
6.3692e-05
8.85301e-05
0.000134103
0.000195546
0.000262268
0.000324728
0.000376537
0.000413328
0.000432326
0.000432217
0.000412994
0.000376032
0.000324195
0.000261899
0.000195639
0.000134486
8.90408e-05
6.41082e-05
1.0644e-05
1.05267e-05
6.4263e-05
9.09832e-05
0.000140142
0.000205082
0.000274381
0.000338891
0.000392269
0.000429985
0.000448928
0.000448835
0.000429694
0.000391818
0.000338384
0.000273985
0.000205008
0.000140379
9.13308e-05
6.45262e-05
1.05121e-05
1.04787e-05
6.5002e-05
9.38726e-05
0.000146553
0.000215016
0.00028702
0.000353782
0.000408997
0.000448008
0.000467737
0.000467628
0.00044762
0.000408463
0.000353223
0.000286534
0.000214703
0.000146579
9.39674e-05
6.50963e-05
1.04153e-05
1.05323e-05
6.57712e-05
9.69965e-05
0.00015323
0.000224859
0.000299777
0.000369096
0.000426481
0.000467277
0.000488345
0.000488193
0.000466843
0.000425914
0.000368477
0.000299231
0.000224502
0.000153094
9.69849e-05
6.57634e-05
1.03273e-05
1.02371e-05
6.65138e-05
0.000100404
0.000160366
0.000235317
0.000313034
0.000384797
0.000444276
0.000486659
0.000508641
0.000508523
0.00048631
0.000443701
0.000384074
0.000312321
0.000234794
0.000160092
0.000100244
6.64726e-05
1.02552e-05
1.03141e-05
6.71842e-05
0.000103772
0.000167382
0.00024551
0.000326117
0.000400488
0.000462146
0.000506095
0.000528872
0.000528752
0.000505739
0.000461582
0.000399771
0.000325352
0.000244845
0.00016693
0.000103502
6.70552e-05
1.01579e-05
1.00509e-05
6.76351e-05
0.000107154
0.000174457
0.000255827
0.000339298
0.000416208
0.000479995
0.00052551
0.00054914
0.000549051
0.000525221
0.000479533
0.000415626
0.000338681
0.000255289
0.000174077
0.000106877
6.75169e-05
1.01548e-05
1.01162e-05
6.78617e-05
0.000110567
0.000181678
0.000266242
0.000352539
0.000431936
0.000497746
0.000544695
0.000569081
0.000568994
0.000544447
0.000497362
0.000431449
0.00035201
0.000265763
0.000181319
0.000110303
6.77216e-05
1.00701e-05
1.00391e-05
6.78085e-05
0.00011416
0.00018914
0.000276871
0.000365987
0.000447891
0.000515728
0.00056408
0.000589181
0.000589118
0.000563898
0.000515452
0.000447551
0.000365625
0.000276549
0.000188909
0.000114016
6.77222e-05
1.00293e-05
1.01542e-05
6.75931e-05
0.000118446
0.000196881
0.000287811
0.000379807
0.000464255
0.00053409
0.000583789
0.000609572
0.000609533
0.000583676
0.000533917
0.000464042
0.000379581
0.000287606
0.000196725
0.000118345
6.75539e-05
1.01568e-05
1.03317e-05
6.74622e-05
0.000122779
0.000204976
0.000299301
0.000394408
0.000481488
0.00055328
0.000604221
0.000630599
0.000630574
0.000604148
0.000553167
0.000481354
0.000394277
0.000299205
0.000204938
0.000122769
6.74539e-05
1.03262e-05
1.06624e-05
6.74101e-05
0.000127708
0.000213807
0.000311772
0.000410193
0.000499947
0.000573588
0.000625602
0.000652452
0.000652438
0.000625561
0.000573522
0.000499863
0.000410095
0.000311673
0.000213726
0.000127663
6.74064e-05
1.0662e-05
1.11069e-05
6.77355e-05
0.000132739
0.000223365
0.000325473
0.000427518
0.000519979
0.000595273
0.000648084
0.000675215
0.000675205
0.000648055
0.000595222
0.000519908
0.000427438
0.000325406
0.000223329
0.000132723
6.77262e-05
1.11031e-05
1.17234e-05
6.85855e-05
0.000138823
0.000234395
0.000340976
0.000446854
0.000541913
0.000618488
0.000671659
0.000698783
0.000698781
0.000671651
0.000618468
0.000541873
0.000446791
0.000340892
0.000234305
0.000138767
6.85644e-05
1.1727e-05
1.2482e-05
6.98445e-05
0.000145718
0.000246685
0.000358555
0.000468634
0.000566095
0.000643367
0.000696246
0.000722948
0.000722946
0.000696238
0.000643349
0.000566062
0.000468587
0.000358503
0.000246653
0.000145725
6.98579e-05
1.24802e-05
1.34237e-05
7.12327e-05
0.000153988
0.000261268
0.000379144
0.000493581
0.000592924
0.000669955
0.000721602
0.00074731
0.000747308
0.000721595
0.00066994
0.000592898
0.000493543
0.000379095
0.000261221
0.000153966
7.12458e-05
1.34259e-05
1.45616e-05
7.44987e-05
0.000164309
0.000278829
0.000403638
0.000522481
0.000622791
0.000698184
0.00074731
0.000771275
0.000771273
0.000747303
0.000698168
0.000622762
0.000522436
0.000403585
0.000278794
0.000164314
7.45106e-05
1.45585e-05
1.58388e-05
7.89661e-05
0.000177225
0.000300607
0.000433414
0.000556272
0.000655964
0.000727709
0.000772628
0.000793937
0.000793937
0.000772628
0.000727709
0.000655965
0.000556272
0.000433413
0.000300609
0.000177235
7.89719e-05
1.58381e-05
1.72968e-05
8.62014e-05
0.000194224
0.000328528
0.000470379
0.000596108
0.000692537
0.000757866
0.00079653
0.000814204
0.000814203
0.000796523
0.000757855
0.000692521
0.000596079
0.000470341
0.000328496
0.000194235
8.62385e-05
1.72968e-05
1.88436e-05
9.64406e-05
0.000216904
0.00036509
0.000516271
0.000642546
0.000731912
0.0007874
0.00081758
0.000830548
0.000830545
0.000817577
0.000787404
0.000731931
0.000642576
0.000516296
0.000365107
0.000216897
9.64148e-05
1.88382e-05
2.04815e-05
0.00011185
0.000248007
0.000414061
0.000575261
0.000696724
0.000772886
0.000814636
0.000834181
0.000841104
0.000841108
0.000834187
0.00081464
0.000772898
0.000696727
0.000575237
0.000414029
0.000247983
0.000111842
2.04842e-05
2.2105e-05
0.000132974
0.000294118
0.000489109
0.000654503
0.000758163
0.000811838
0.000834892
0.000843855
0.000847299
0.000847302
0.000843863
0.000834905
0.000811835
0.000758141
0.0006545
0.000489126
0.000294134
0.000132971
2.21018e-05
2.37693e-05
0.000165953
0.000385748
0.000610211
0.000753953
0.000817159
0.000839098
0.000846371
0.000849861
0.000851181
0.000851177
0.000849843
0.000846317
0.000839014
0.000817112
0.00075396
0.000610244
0.000385785
0.000165974
2.37706e-05
2.56201e-05
0.000278665
0.00062007
0.000787452
0.000832517
0.000845051
0.000849604
0.000851572
0.000851945
0.000851954
0.000851954
0.000851943
0.000851558
0.000849578
0.000845005
0.000832456
0.000787417
0.000620051
0.000278654
2.56197e-05
4.26416e-05
0.00011172
0.000129893
0.000138066
0.000147857
0.000165854
0.000196275
0.000231737
0.000262913
0.000280746
0.000280404
0.000261408
0.000228664
0.000193883
0.000166055
0.000148444
0.000137696
0.000128297
0.000110465
4.18029e-05
4.21678e-05
0.000111113
0.000129629
0.000137639
0.000145982
0.000164188
0.000198913
0.000235579
0.00026693
0.000284563
0.000284393
0.000264567
0.000229137
0.000193617
0.000166141
0.000150643
0.000139117
0.000128239
0.000110379
4.13756e-05
4.22071e-05
0.000111087
0.000129549
0.000136147
0.000148249
0.000165243
0.00019609
0.000232281
0.000263167
0.000280182
0.000280284
0.000263088
0.00022949
0.000194136
0.000164457
0.000146231
0.000135414
0.0001282
0.000110318
4.17544e-05
4.24415e-05
0.000111564
0.000130535
0.000140026
0.000151132
0.000168793
0.000196626
0.000232701
0.000264007
0.000280349
0.000280951
0.000260983
0.000229987
0.000197945
0.000169546
0.00014708
0.000136968
0.000128357
0.000110799
4.23798e-05
4.22033e-05
0.000111158
0.000129234
0.000135622
0.000147047
0.00016564
0.00019944
0.000236054
0.000264101
0.00028072
0.000280608
0.000261485
0.000230198
0.000195039
0.000163194
0.00014458
0.000136567
0.000129053
0.000110941
4.18222e-05
4.1977e-05
0.000110882
0.000126958
0.000136223
0.00014711
0.000166444
0.000197034
0.000233076
0.000266282
0.000281528
0.000281569
0.000262814
0.00023387
0.000198432
0.000164484
0.000147933
0.000136603
0.000128126
0.000110827
4.23778e-05
4.18163e-05
0.000110875
0.000127352
0.00013473
0.000144696
0.000165862
0.000197842
0.000233136
0.000263874
0.000283801
0.000283979
0.000262671
0.000230886
0.000197038
0.000164291
0.000145174
0.000137059
0.000127075
0.000109794
4.24572e-05
4.19104e-05
0.000110471
0.000127238
0.000136412
0.000145036
0.000166257
0.000201558
0.000236172
0.000266645
0.000282927
0.000284337
0.000266238
0.000231712
0.000197462
0.000162439
0.000146094
0.000136859
0.000127052
0.000110245
4.20891e-05
4.23982e-05
0.000109989
0.000125538
0.000136402
0.000146461
0.0001661
0.000198855
0.00023292
0.00026365
0.000281027
0.000282848
0.000265009
0.000234728
0.000196309
0.000164764
0.000146277
0.000134784
0.000126835
0.000110625
4.22037e-05
4.23727e-05
0.000110834
0.000127333
0.000136072
0.000143527
0.000164991
0.000196474
0.00023307
0.000264765
0.000281372
0.000281189
0.00026478
0.000233682
0.000198475
0.000165635
0.000144544
0.000136403
0.000125341
0.000110377
4.19182e-05
4.23391e-05
0.000110578
0.000127786
0.000135392
0.00014474
0.000162984
0.000195545
0.000233481
0.000265108
0.000282698
0.000280171
0.000264191
0.000232273
0.000196543
0.000167434
0.000147641
0.000135305
0.000126819
0.000110506
4.16061e-05
4.20866e-05
0.000110201
0.000126676
0.000133633
0.000142012
0.000162389
0.000196004
0.000236306
0.000267423
0.000282454
0.000280594
0.000262442
0.000232397
0.000199092
0.000166557
0.000146651
0.00013404
0.000126279
0.0001104
4.21061e-05
4.20835e-05
0.000110161
0.0001276
0.000133919
0.000145568
0.000162922
0.000198887
0.000233816
0.000266925
0.000285668
0.000283641
0.000263522
0.000235076
0.000195725
0.000165835
0.000147988
0.000134485
0.000126238
0.000110185
4.19786e-05
4.17169e-05
0.000110444
0.000127166
0.000134877
0.00014679
0.00016299
0.000198369
0.000236306
0.00026541
0.00028238
0.00028305
0.00026599
0.000232168
0.000198417
0.000168005
0.000147328
0.000134437
0.000126685
0.000110463
4.18556e-05
4.17182e-05
0.000109773
0.000124677
0.000134422
0.000146504
0.000163768
0.00019924
0.000237131
0.000266311
0.000285176
0.000283659
0.00026435
0.00023391
0.000193766
0.000162713
0.000145624
0.000134483
0.000125955
0.000109615
4.14532e-05
4.14316e-05
0.000110044
0.000124608
0.000132882
0.000144812
0.000167197
0.00019965
0.000236693
0.000265972
0.000282058
0.000283062
0.000264565
0.00023334
0.000194502
0.000165836
0.000145855
0.000136508
0.000124939
0.000108957
4.17238e-05
4.09482e-05
0.000108828
0.000124197
0.000133562
0.000146842
0.000164502
0.000199112
0.000235881
0.000266141
0.00028402
0.000281934
0.000262884
0.000232126
0.000194346
0.000164382
0.000145885
0.00013519
0.000125122
0.000108885
4.17956e-05
4.10061e-05
0.000107886
0.000123
0.000134789
0.000143983
0.000165529
0.000198002
0.000238016
0.000267266
0.000282359
0.00028168
0.000265784
0.000235347
0.000194884
0.000165569
0.000145497
0.000135077
0.000124713
0.000109056
4.15262e-05
4.08515e-05
0.000107829
0.000123539
0.000131852
0.000144795
0.000163958
0.000199961
0.000235753
0.00026634
0.00028488
0.000282872
0.000264989
0.00023301
0.000195115
0.000164965
0.000145378
0.000134037
0.000125369
0.000108728
4.11931e-05
4.08338e-05
0.000107759
0.000122976
0.000131587
0.000143954
0.000164662
0.000197637
0.00023388
0.000267827
0.000285559
0.0002847
0.000264541
0.000235757
0.000197662
0.000165033
0.000142351
0.000132449
0.000126288
0.000108557
4.12433e-05
4.05965e-05
0.00010789
0.000122383
0.000132714
0.000143966
0.000166828
0.000200561
0.000236814
0.000269172
0.000287304
0.000286528
0.000265258
0.000235345
0.000197525
0.000165463
0.000144561
0.000132098
0.000124735
0.000107836
4.14099e-05
4.03398e-05
0.000106551
0.000121509
0.000132162
0.000142952
0.000164766
0.00019898
0.00023585
0.00026951
0.000285564
0.000284826
0.00026574
0.000234541
0.000198014
0.000165411
0.000142189
0.000133156
0.000125073
0.000107947
4.10395e-05
4.0103e-05
0.000106117
0.000122093
0.000131422
0.000142418
0.000164658
0.000199684
0.00023867
0.000269518
0.000284864
0.000284137
0.000265493
0.000234855
0.000197571
0.000166282
0.000143537
0.000131219
0.000123893
0.000108031
4.13059e-05
3.99469e-05
0.000105803
0.000121086
0.000130865