/*--------------------------------*- C++ -*----------------------------------*\
  =========                 |
  \\      /  F ield         | OpenFOAM: The Open Source CFD Toolbox
   \\    /   O peration     | Website:  https://openfoam.org
    \\  /    A nd           | Version:  6
     \\/     M anipulation  |
\*---------------------------------------------------------------------------*/
FoamFile
{
    version     2.0;
    format      ascii;
    class       volScalarField;
    location    "25";
    object      p;
}
// * * * * * * * * * * * * * * * * * * * * * * * * * * * * * * * * * * * * * //

dimensions      [0 2 -2 0 0 0 0];

internalField   nonuniform List<scalar> 
130000
(
0.00622415
0.00540927
0.00486506
0.00444396
0.00407142
0.00373826
0.00343937
0.00316926
0.00292265
0.00269571
0.00248434
0.0022865
0.00209847
0.00191917
0.00174578
0.00157766
0.00141252
0.00124919
0.00108257
0.00092418
0.00651186
0.00612695
0.00567513
0.00531175
0.00498061
0.00467112
0.00437612
0.00409331
0.00381979
0.0035516
0.00328884
0.00302709
0.0027691
0.00251048
0.00225428
0.00199701
0.00174235
0.00148328
0.00121844
0.000949468
0.00821676
0.00762694
0.00704083
0.00655658
0.00611485
0.00569925
0.00530267
0.00491948
0.00454872
0.00418358
0.00382745
0.00347326
0.00312692
0.00278038
0.00244167
0.00210127
0.00176876
0.00143222
0.00109703
0.00075712
0.00900235
0.00855068
0.0080287
0.00755869
0.00710168
0.00664777
0.00620005
0.00575236
0.00531105
0.00486753
0.00443205
0.00399349
0.00356487
0.00313284
0.00271092
0.00228509
0.00187056
0.00144995
0.00103747
0.000620437
0.00958063
0.00920408
0.00873716
0.00828857
0.00783523
0.00736651
0.00689507
0.00641065
0.00592721
0.00543223
0.00494278
0.00444388
0.00395347
0.00345404
0.00296555
0.00246835
0.0019842
0.00149118
0.00100975
0.000521052
0.00983111
0.00954942
0.00914572
0.00873218
0.00829624
0.00782878
0.00735111
0.0068478
0.00633951
0.00580861
0.00527976
0.00473215
0.00419203
0.00363596
0.00309074
0.00253197
0.00198795
0.00143087
0.000888758
0.000334809
0.00994851
0.00972721
0.00937684
0.00899484
0.00858455
0.00812752
0.00765536
0.00714348
0.00662123
0.00606432
0.00550536
0.0049189
0.00433733
0.0037331
0.00313951
0.00252684
0.00192956
0.00131602
0.000719395
0.000106525
0.00987801
0.00971788
0.00942459
0.00908956
0.00871469
0.00827822
0.00781818
0.00730625
0.00677727
0.0062033
0.005623
0.00500637
0.00439275
0.00374962
0.00311581
0.00245759
0.0018151
0.00115149
0.000506688
-0.000159368
0.00970214
0.00960072
0.00935683
0.00906896
0.00872585
0.00831055
0.00786263
0.00735455
0.00682246
0.00623747
0.00564075
0.00500133
0.00436084
0.00368511
0.00301679
0.00231876
0.00163537
0.00092745
0.000238299
-0.000477008
0.00948777
0.00942367
0.00922047
0.00896986
0.00865453
0.0082581
0.00782248
0.0073196
0.00678676
0.00619393
0.00558502
0.00492647
0.00426441
0.00356122
0.00286332
0.00213079
0.00141227
0.000664329
-6.41915e-05
-0.000824157
0.00920905
0.00919361
0.00902989
0.00881332
0.00852218
0.00814188
0.00771727
0.00721915
0.00668627
0.00608715
0.00546766
0.0047934
0.00411188
0.00338427
0.00265983
0.00189586
0.00114432
0.00036005
-0.000405705
-0.00120778
0.0089199
0.00892787
0.00879506
0.00860784
0.00834072
0.00797664
0.00756399
0.00707212
0.00654089
0.00593746
0.00531002
0.00462182
0.00392418
0.00317515
0.00242715
0.001635
0.00085436
3.62529e-05
-0.000763225
-0.00160432
0.00860331
0.0086427
0.00853811
0.0083817
0.00813452
0.00778537
0.00738199
0.00689587
0.00636522
0.00575808
0.00512244
0.00442232
0.00370871
0.00293984
0.00216942
0.00135074
0.000541424
-0.000308151
-0.00114068
-0.00201922
0.00831098
0.00837923
0.00829735
0.00816273
0.00792997
0.00759222
0.00719597
0.00671373
0.00618263
0.0055711
0.00492765
0.00421524
0.00348708
0.00269943
0.00190794
0.00106423
0.000228646
-0.000651353
-0.00151478
-0.00242903
0.00807594
0.00815776
0.00809126
0.00796577
0.00774119
0.0074093
0.00701736
0.006536
0.00600274
0.00538563
0.00473302
0.00400889
0.00326518
0.00245939
0.00164651
0.000778709
-8.39692e-05
-0.000992641
-0.00188761
-0.00283623
0.00783215
0.00793814
0.00789131
0.00778064
0.00756605
0.00724165
0.0068547
0.0063749
0.00583937
0.00521679
0.00455542
0.00381921
0.00306074
0.00223702
0.0014035
0.000512044
-0.000376261
-0.00131375
-0.00223904
-0.00322173
0.00763451
0.00774615
0.00771348
0.00761849
0.00741295
0.00709656
0.00671415
0.00623708
0.00569882
0.00507175
0.00440059
0.00365377
0.00287927
0.00203896
0.00118379
0.000270174
-0.000645313
-0.00160947
-0.00256646
-0.00358124
0.00743111
0.00757519
0.00756389
0.0074941
0.0072987
0.00699119
0.00661243
0.0061385
0.00559686
0.00496503
0.004284
0.00352578
0.00273567
0.00187803
0.00100161
6.49151e-05
-0.000876819
-0.00186919
-0.00285742
-0.00390583
0.0073307
0.00748598
0.00748712
0.00742956
0.00723998
0.00693729
0.00655969
0.00608779
0.00554205
0.0049056
0.00421357
0.00344508
0.00263793
0.00176456
0.000865417
-9.23637e-05
-0.00106227
-0.00208028
-0.00310147
-0.0041807
0.00726566
0.00744661
0.00746599
0.00742226
0.0072401
0.00694172
0.00656447
0.00609356
0.00554392
0.0049025
0.00419979
0.00341989
0.00259625
0.00170543
0.000784113
-0.000196921
-0.0011942
-0.00224067
-0.00329463
-0.00440819
0.00726503
0.00745638
0.007494
0.00746777
0.00729656
0.00700685
0.00663169
0.00616335
0.00561051
0.0049663
0.00425285
0.00346357
0.00262235
0.0017166
0.00077158
-0.000229866
-0.00125647
-0.00232804
-0.00341639
-0.00456028
0.00727733
0.00751134
0.00757503
0.0075785
0.00742118
0.00714461
0.00677262
0.00630759
0.00575083
0.00510411
0.00438066
0.00358134
0.00272332
0.00180031
0.000832341
-0.000192841
-0.00124818
-0.00234914
-0.00347209
-0.00465169
0.00743922
0.00768931
0.00776849
0.00779116
0.00764324
0.00737775
0.00700826
0.00654685
0.00598479
0.00533597
0.00460177
0.00379437
0.00291839
0.0019812
0.000988522
-5.68146e-05
-0.00114317
-0.00226962
-0.00342913
-0.0046395
0.00765423
0.00794294
0.00804709
0.00809349
0.00795865
0.00770578
0.00734113
0.00688442
0.00631786
0.00566563
0.00492106
0.00410425
0.00321162
0.00225727
0.001241
0.000171066
-0.000945575
-0.00210307
-0.00329935
-0.00454745
0.00800023
0.0083041
0.00843138
0.00850277
0.0083838
0.0081467
0.00778934
0.00734066
0.00677167
0.00611792
0.00536277
0.00453883
0.00362917
0.00266154
0.00162045
0.00053047
-0.000618097
-0.00180146
-0.00303585
-0.00431563
0.00836331
0.00873394
0.00890069
0.00901296
0.00891726
0.0087018
0.00835572
0.00791779
0.00734949
0.00669506
0.0059309
0.00509824
0.00417323
0.00318931
0.00212534
0.00101071
-0.000168291
-0.00138341
-0.00265575
-0.00397562
0.00896927
0.00935703
0.00954828
0.00968647
0.00960952
0.00941173
0.00907667
0.00864943
0.0080834
0.00743028
0.00665792
0.00581783
0.00487651
0.00387931
0.0027917
0.00165693
0.000446401
-0.000795352
-0.00210646
-0.00346061
0.00963328
0.0100822
0.0103174
0.010493
0.0104437
0.0102682
0.00994913
0.00953444
0.00897394
0.00832305
0.00754546
0.00669685
0.00574065
0.0047263
0.00361637
0.00245683
0.00121643
-5.77262e-05
-0.00140694
-0.00280312
0.0105366
0.0110117
0.0112819
0.0114882
0.0114651
0.0113109
0.0110087
0.0106073
0.0100539
0.00940674
0.00862527
0.00777051
0.00679973
0.00577057
0.00463747
0.0034559
0.00218435
0.000881385
-0.000506644
-0.00194046
0.011536
0.012078
0.0123996
0.0126506
0.0126617
0.012535
0.0122542
0.0118691
0.0113255
0.0106834
0.00990076
0.00903998
0.00805724
0.0070113
0.00585632
0.00464861
0.00334663
0.00200925
0.000582323
-0.000896032
0.0128054
0.0133837
0.0137467
0.0140361
0.0140791
0.0139792
0.0137199
0.0133519
0.0128193
0.0121838
0.0114011
0.0105366
0.00954262
0.0084824
0.00730524
0.00607334
0.00473951
0.00336992
0.00190299
0.000382579
0.0142113
0.0148638
0.0152849
0.015626
0.0157091
0.0156422
0.0154091
0.0150615
0.0145426
0.0139152
0.0131347
0.0122667
0.0112639
0.0101887
0.00899126
0.00773296
0.00636838
0.00496249
0.00345538
0.00188727
0.015914
0.0166104
0.0170816
0.0174685
0.0175909
0.0175567
0.0173512
0.0170253
0.016522
0.0159044
0.0151272
0.0142578
0.0132466
0.0121588
0.0109416
0.00965919
0.00826295
0.00682245
0.00527351
0.00365871
0.017783
0.0185631
0.0191024
0.0195494
0.0197204
0.019726
0.0195536
0.0192535
0.0187693
0.0181637
0.0173928
0.0165227
0.0155056
0.0144048
0.0131693
0.0118614
0.0104349
0.00895684
0.00736609
0.00570017
0.0199756
0.0208126
0.021413
0.0219159
0.0221357
0.0221823
0.0220453
0.0217734
0.0213108
0.0207198
0.0199567
0.0190883
0.018066
0.0169541
0.0157004
0.0143687
0.012911
0.0113971
0.00976328
0.00804699
0.0223723
0.0233057
0.0239859
0.0245597
0.0248383
0.0249337
0.0248383
0.0245995
0.0241628
0.0235893
0.0228374
0.0219718
0.0209469
0.0198241
0.0185538
0.017197
0.0157091
0.0141567
0.0124795
0.0107087
0.0251327
0.0261339
0.0268878
0.0275285
0.027867
0.028013
0.0279624
0.0277597
0.0273522
0.0267992
0.0260608
0.0252011
0.0241745
0.0230429
0.0217562
0.0203759
0.0188564
0.0172666
0.015544
0.0137185
0.0281286
0.0292413
0.0300892
0.0308137
0.0312234
0.0314291
0.0314305
0.0312699
0.0308966
0.0303682
0.0296472
0.0287953
0.0277701
0.0266302
0.0253287
0.0239237
0.0223736
0.0207434
0.0189748
0.0170905
0.0315256
0.0327235
0.0336599
0.0344656
0.0349483
0.0352168
0.0352741
0.0351597
0.0348247
0.0343247
0.0336242
0.0327836
0.0317614
0.0306157
0.0292999
0.0278721
0.0262902
0.0246205
0.0228039
0.0208604
0.0351979
0.0365253
0.0375717
0.0384767
0.0390448
0.0393865
0.0395079
0.0394467
0.039156
0.0386893
0.0380139
0.0371874
0.0361719
0.0350217
0.0336938
0.0322424
0.0306298
0.0289182
0.0270531
0.0250462
0.0393161
0.0407447
0.0418966
0.0428988
0.0435554
0.0439741
0.0441649
0.044162
0.0439208
0.0434924
0.0428461
0.0420384
0.0410319
0.0398805
0.0385417
0.037069
0.035425
0.0336727
0.031757
0.0296862
0.0437411
0.0453204
0.046602
0.047722
0.0484814
0.0489895
0.0492596
0.0493237
0.0491394
0.0487556
0.0481447
0.0473596
0.0463671
0.0452167
0.0438699
0.0423761
0.0407024
0.038907
0.0369404
0.0348013
0.0486514
0.0503549
0.0517626
0.0529999
0.0538668
0.0544699
0.0548263
0.0549643
0.054844
0.0545114
0.0539412
0.0531848
0.0522099
0.0510651
0.0497126
0.0482006
0.046497
0.0446602
0.0426408
0.0404327
0.0539081
0.0557856
0.0573454
0.0587224
0.0597131
0.0604254
0.0608799
0.0611025
0.0610555
0.0607824
0.0602611
0.0595391
0.0585884
0.0574528
0.0560987
0.0545698
0.0528387
0.0509588
0.0488864
0.046605
0.0596894
0.0617137
0.063424
0.0649417
0.0660631
0.0668922
0.0674543
0.0677708
0.0678066
0.067602
0.0671372
0.0664579
0.065537
0.064417
0.0630651
0.0615235
0.0597657
0.0578451
0.0557182
0.0533628
0.0658456
0.0680701
0.0699591
0.071643
0.0729139
0.0738775
0.074562
0.0749865
0.0751175
0.074993
0.0745957
0.0739677
0.0730856
0.0719871
0.0706436
0.0690923
0.0673114
0.0653493
0.0631683
0.0607347
0.0725444
0.0749483
0.0770175
0.0788732
0.0803043
0.0814145
0.0822347
0.0827808
0.0830205
0.082989
0.0826707
0.0821057
0.0812711
0.0802035
0.0788744
0.0773197
0.0755182
0.073518
0.0712821
0.0687697
0.079646
0.0822808
0.0845598
0.0866154
0.0882292
0.0895075
0.0904829
0.0911695
0.0915351
0.0916131
0.0913891
0.0909002
0.090126
0.0890987
0.0877932
0.0862404
0.0844239
0.0823864
0.0800966
0.0775015
0.0872925
0.0901427
0.0926387
0.0949053
0.0967183
0.0981832
0.0993335
0.100181
0.100692
0.100899
0.100786
0.100391
0.0996904
0.0987171
0.0974448
0.0959035
0.0940765
0.0920069
0.0896634
0.0869853
0.0953395
0.0984593
0.101206
0.103718
0.105759
0.10744
0.108792
0.109827
0.110509
0.110868
0.11089
0.110608
0.11
0.109096
0.10787
0.106349
0.10452
0.102421
0.100026
0.0972607
0.103902
0.107285
0.110298
0.113075
0.11537
0.117295
0.11888
0.120133
0.121015
0.121557
0.121739
0.121595
0.121102
0.120286
0.119122
0.117635
0.115811
0.11369
0.111244
0.108392
0.112835
0.116537
0.119857
0.122941
0.125531
0.127741
0.129598
0.131108
0.132229
0.132988
0.133365
0.13339
0.133038
0.132333
0.13125
0.12981
0.128004
0.125864
0.123371
0.120427
0.122223
0.126246
0.129897
0.133322
0.136247
0.138787
0.140962
0.142777
0.144181
0.145202
0.145813
0.146043
0.145864
0.145298
0.144318
0.142945
0.141166
0.139018
0.136478
0.133442
0.131901
0.136308
0.140343
0.144168
0.147486
0.150416
0.152968
0.155147
0.156892
0.158228
0.159122
0.159602
0.159634
0.159239
0.158389
0.1571
0.155363
0.153212
0.150629
0.147493
0.141921
0.146727
0.151189
0.155466
0.159242
0.162631
0.165631
0.168244
0.170396
0.172111
0.173346
0.174127
0.174415
0.17423
0.173538
0.172357
0.170677
0.168533
0.165908
0.162671
0.152108
0.157386
0.162344
0.167157
0.171474
0.17541
0.178945
0.182075
0.184713
0.186879
0.188521
0.189663
0.190257
0.190323
0.189824
0.188777
0.187172
0.185042
0.182378
0.179031
0.162477
0.168262
0.173785
0.179217
0.18417
0.188749
0.192914
0.196653
0.199861
0.202557
0.204674
0.206239
0.207194
0.207558
0.207289
0.206405
0.204894
0.202796
0.200098
0.196641
0.172826
0.179215
0.185403
0.191567
0.197267
0.202598
0.207492
0.211932
0.215791
0.219089
0.221748
0.223792
0.225158
0.225865
0.225867
0.225181
0.223795
0.221748
0.219033
0.215473
0.183127
0.190188
0.197143
0.204148
0.210701
0.21688
0.222586
0.227793
0.23236
0.236306
0.239544
0.242106
0.243919
0.245009
0.245321
0.244877
0.243657
0.241707
0.239014
0.235389
0.193162
0.200995
0.208832
0.216792
0.224289
0.231377
0.237931
0.243921
0.249192
0.253776
0.257584
0.260656
0.262922
0.264412
0.265069
0.264916
0.263926
0.262143
0.259551
0.255938
0.202829
0.21149
0.220278
0.229247
0.237713
0.245694
0.253043
0.259734
0.265616
0.270741
0.275029
0.278541
0.28121
0.283085
0.284102
0.284292
0.283612
0.282106
0.279738
0.276281
0.211808
0.221352
0.23111
0.241054
0.250403
0.259139
0.26711
0.274304
0.280592
0.286056
0.290644
0.294446
0.29741
0.299605
0.300966
0.301532
0.301243
0.300137
0.298153
0.295037
0.219737
0.230157
0.24082
0.251578
0.261576
0.270779
0.279057
0.286428
0.292813
0.298334
0.302977
0.306864
0.309961
0.312364
0.314013
0.314952
0.315102
0.314499
0.313042
0.310454
0.226034
0.237259
0.248669
0.259969
0.270258
0.279524
0.287702
0.294863
0.300988
0.30625
0.310679
0.314427
0.317482
0.319954
0.321787
0.323039
0.323611
0.323533
0.322671
0.320713
0.229998
0.241892
0.253804
0.265293
0.27546
0.28436
0.292029
0.298612
0.304163
0.308895
0.31288
0.316293
0.319134
0.321523
0.323404
0.324841
0.325724
0.326082
0.325746
0.324376
0.230964
0.243323
0.25544
0.266756
0.276428
0.284616
0.291477
0.297229
0.301998
0.306025
0.309414
0.312348
0.314837
0.316995
0.318761
0.320201
0.321199
0.321777
0.321753
0.320763
0.228324
0.240965
0.253027
0.263881
0.272804
0.280085
0.286006
0.290839
0.294762
0.298029
0.300758
0.303132
0.305159
0.306943
0.308415
0.309632
0.310472
0.310962
0.310917
0.309952
0.221912
0.234641
0.246456
0.256691
0.264776
0.27113
0.276143
0.280116
0.283256
0.285803
0.287883
0.289657
0.291141
0.292415
0.293407
0.294157
0.294539
0.294584
0.294123
0.292752
0.211661
0.224415
0.235936
0.245561
0.252889
0.258451
0.262716
0.265985
0.268473
0.270391
0.271862
0.273022
0.273881
0.274503
0.274821
0.274845
0.274458
0.273687
0.27239
0.270148
0.198103
0.210826
0.222094
0.231243
0.238016
0.243017
0.246761
0.24952
0.251503
0.25288
0.253776
0.254283
0.254428
0.254247
0.253684
0.252728
0.251267
0.249317
0.246786
0.243227
0.181624
0.194429
0.205617
0.214526
0.221013
0.225721
0.229179
0.231608
0.233207
0.234099
0.234412
0.234202
0.233508
0.232335
0.230661
0.22844
0.225582
0.222086
0.217915
0.212585
0.163112
0.176078
0.18738
0.196306
0.202778
0.207442
0.210813
0.213053
0.214348
0.214771
0.214456
0.213421
0.21173
0.209351
0.2063
0.202508
0.197914
0.192486
0.186259
0.178706
0.142943
0.156302
0.167988
0.177218
0.183946
0.188793
0.192251
0.194408
0.195441
0.195372
0.194352
0.192351
0.18946
0.185602
0.180857
0.175116
0.168377
0.160562
0.151788
0.141472
0.121877
0.135776
0.14808
0.157879
0.165109
0.170349
0.174048
0.17622
0.177026
0.176431
0.17461
0.171472
0.167146
0.161502
0.154686
0.146568
0.137204
0.126464
0.11457
0.100874
0.0998859
0.114629
0.127857
0.138527
0.146535
0.152396
0.156516
0.158818
0.15945
0.158306
0.155587
0.15113
0.145096
0.137287
0.127959
0.116919
0.104328
0.0899827
0.0742368
0.056355
0.0772433
0.0930441
0.107489
0.11936
0.128466
0.13524
0.140015
0.142621
0.143181
0.141511
0.137825
0.131862
0.123828
0.113453
0.101085
0.0864942
0.0699497
0.0511808
0.0306879
0.00765779
0.0532581
0.0705358
0.0866246
0.100149
0.110797
0.118896
0.124687
0.127883
0.12857
0.126462
0.121778
0.114137
0.103793
0.0903754
0.0743688
0.0554492
0.0340466
0.00978941
-0.0166097
-0.0460658
0.0275546
0.0466691
0.0648961
0.0806579
0.0934452
0.103453
0.110786
0.115014
0.116154
0.113801
0.108165
0.0987119
0.0857535
0.068802
0.0484632
0.0243266
-0.00302806
-0.0340462
-0.067764
-0.105177
-0.0013144
0.0202895
0.0413944
0.0602294
0.0760147
0.0887555
0.0983778
0.104272
0.106364
0.104081
0.0976093
0.0862369
0.0703369
0.0492645
0.0237938
-0.00665319
-0.0412787
-0.0806434
-0.12344
-0.170777
-0.0343762
-0.00963192
0.0152657
0.0382615
0.0581714
0.0747464
0.0876607
0.0960784
0.0997861
0.0980145
0.090899
0.0775273
0.0583392
0.0325221
0.00100415
-0.0369596
-0.0803884
-0.129942
-0.183918
-0.243489
-0.0737469
-0.044797
-0.0148225
0.0137954
0.0393193
0.0611486
0.0786386
0.0906601
0.0968333
0.0961597
0.0887273
0.0733592
0.0505478
0.0192584
-0.0193761
-0.0663728
-0.12046
-0.182464
-0.250197
-0.32494
-0.120817
-0.086544
-0.0499413
-0.0139256
0.0190125
0.0478153
0.0714107
0.0883074
0.0978796
0.0988134
0.0911441
0.073476
0.0464227
0.00871449
-0.0383445
-0.0959965
-0.16272
-0.239548
-0.32392
-0.417192
-0.178003
-0.136738
-0.0914887
-0.0458799
-0.0034243
0.0341435
0.0652378
0.087939
0.1014
0.10404
0.0958763
0.0752244
0.0428665
-0.0026731
-0.0598081
-0.130099
-0.21172
-0.306168
-0.410485
-0.526074
-0.246537
-0.196564
-0.140426
-0.0829272
-0.028988
0.01886
0.0584481
0.0873825
0.104645
0.108315
0.0984865
0.0733864
0.0340344
-0.0213511
-0.0909164
-0.176348
-0.275531
-0.390474
-0.518092
-0.660148
-0.328827
-0.267809
-0.198208
-0.126477
-0.0592897
-0.000271817
0.0478106
0.0821207
0.101621
0.104287
0.0904647
0.0581564
0.00878774
-0.0596487
-0.144852
-0.248824
-0.369227
-0.508956
-0.664988
-0.839205
-0.425464
-0.351145
-0.265718
-0.1782
-0.0973591
-0.0279353
0.0268201
0.0637738
0.0821279
0.0798807
0.0578774
0.0140257
-0.0498324
-0.135952
-0.241721
-0.369582
-0.517104
-0.688109
-0.879608
-1.09335
-0.539151
-0.448672
-0.345569
-0.242251
-0.14967
-0.0734097
-0.0165884
0.0178763
0.02982
0.0173645
-0.0181217
-0.078727
-0.162336
-0.271883
-0.404513
-0.56334
-0.746194
-0.958055
-1.19565
-1.45968
-0.673188
-0.564076
-0.442572
-0.325876
-0.226704
-0.150401
-0.0988114
-0.0737418
-0.0742787
-0.102024
-0.15545
-0.237056
-0.344796
-0.482401
-0.647289
-0.843582
-1.06959
-1.33094
-1.6234
-1.94491
-0.83536
-0.70529
-0.567071
-0.443104
-0.346195
-0.279145
-0.240745
-0.230948
-0.248108
-0.293802
-0.366582
-0.469545
-0.601646
-0.767502
-0.96511
-1.1995
-1.46941
-1.78021
-2.12598
-2.50059
-1.03422
-0.883221
-0.734301
-0.61381
-0.530209
-0.480625
-0.46007
-0.467323
-0.500735
-0.562114
-0.650594
-0.770034
-0.92044
-1.10741
-1.33026
-1.59469
-1.89925
-2.24789
-2.63348
-3.0457
-1.28384
-1.11464
-0.964475
-0.858001
-0.793786
-0.762528
-0.757562
-0.777786
-0.822156
-0.8922
-0.987569
-1.11285
-1.26988
-1.46539
-1.7002
-1.9798
-2.30204
-2.66876
-3.07228
-3.49709
-1.59558
-1.41529
-1.27274
-1.18264
-1.13272
-1.11126
-1.11278
-1.13635
-1.18096
-1.24783
-1.338
-1.4564
-1.60658
-1.79562
-2.02573
-2.30146
-2.62029
-2.98128
-3.37625
-3.78388
-1.9985
-1.81268
-1.67648
-1.59048
-1.53825
-1.51004
-1.50245
-1.5144
-1.54555
-1.59656
-1.66958
-1.76868
-1.89879
-2.06593
-2.27385
-2.52531
-2.81841
-3.14865
-3.50693
-3.86864
-2.54976
-2.34887
-2.19738
-2.08891
-2.00948
-1.95228
-1.91647
-1.90101
-1.90601
-1.93064
-1.97704
-2.04695
-2.14593
-2.2778
-2.44787
-2.65657
-2.90273
-3.17742
-3.47115
-3.76281
-3.27991
-3.02536
-2.81729
-2.65035
-2.51469
-2.40659
-2.32687
-2.2731
-2.24448
-2.23703
-2.25189
-2.28729
-2.34877
-2.43679
-2.55854
-2.71131
-2.8951
-3.09581
-3.30592
-3.51208
-4.05925
-3.70568
-3.39855
-3.14634
-2.94079
-2.77727
-2.65382
-2.5641
-2.50442
-2.46728
-2.45258
-2.45505
-2.47986
-2.52315
-2.59295
-2.68283
-2.7955
-2.91613
-3.04522
-3.16852
-4.52164
-4.11579
-3.72938
-3.42268
-3.18365
-3.00001
-2.86133
-2.75554
-2.67778
-2.61953
-2.58149
-2.55598
-2.54788
-2.54888
-2.56616
-2.58804
-2.62224
-2.66365
-2.72218
-2.74024
-4.2349
-4.07468
-3.74027
-3.47697
-3.28245
-3.1332
-3.01362
-2.91302
-2.83148
-2.76225
-2.70829
-2.66133
-2.62691
-2.59226
-2.56259
-2.52077
-2.48217
-2.45611
-2.43079
-2.17876
-3.25197
-3.7505
-3.61465
-3.42523
-3.27969
-3.1641
-3.06389
-2.96986
-2.88959
-2.81529
-2.75622
-2.69934
-2.65642
-2.6074
-2.56723
-2.51057
-2.47135
-2.45067
-2.35115
-1.70908
-2.44427
-3.53336
-3.64654
-3.46308
-3.31108
-3.19555
-3.09268
-2.99807
-2.91433
-2.83986
-2.77622
-2.71991
-2.67277
-2.63034
-2.5947
-2.56545
-2.56006
-2.56381
-2.38195
-1.90004
0.00308899
0.00300511
0.00290276
0.00281919
0.00273081
0.00264977
0.00257977
0.00251608
0.00246047
0.00240937
0.00236438
0.0023222
0.00228373
0.00224654
0.00220983
0.00217308
0.00213486
0.002093
0.00203546
0.00195749
0.0135394
0.0134488
0.013359
0.0132856
0.0131973
0.0131146
0.0130328
0.0129533
0.0128715
0.0127894
0.0127042
0.0126167
0.0125251
0.0124288
0.012328
0.0122216
0.0121114
0.0119925
0.0118568
0.0117196
0.0241867
0.0241429
0.0240392
0.0239555
0.023845
0.0237379
0.0236198
0.0235046
0.0233784
0.0232536
0.0231183
0.0229826
0.0228363
0.0226885
0.022529
0.0223675
0.022195
0.0220163
0.0218156
0.021611
0.0345299
0.0345137
0.0344207
0.034347
0.0342315
0.0341158
0.033977
0.0338394
0.0336808
0.0335225
0.0333457
0.0331675
0.0329727
0.0327741
0.0325609
0.0323425
0.0321111
0.0318708
0.0316095
0.0313416
0.0450183
0.0450301
0.0449535
0.0448948
0.0447791
0.0446608
0.0445072
0.0443535
0.0441683
0.0439826
0.0437697
0.0435558
0.0433179
0.0430783
0.0428162
0.0425514
0.0422659
0.041974
0.0416551
0.0413336
0.0554323
0.0554768
0.05542
0.0553798
0.0552689
0.0551528
0.0549907
0.0548267
0.0546216
0.0544143
0.0541721
0.0539277
0.0536532
0.0533742
0.0530687
0.0527564
0.0524205
0.0520749
0.0517002
0.0513172
0.0659292
0.0660044
0.0659678
0.0659485
0.065846
0.0657379
0.0655736
0.0654063
0.065188
0.0649661
0.0647004
0.0644314
0.0641241
0.0638125
0.0634658
0.0631131
0.0627292
0.0623371
0.0619095
0.0614744
0.0764959
0.0766061
0.0765949
0.0766005
0.0765111
0.0764143
0.0762527
0.0760862
0.0758599
0.0756273
0.0753429
0.0750518
0.0747153
0.0743705
0.073986
0.0735913
0.0731619
0.0727204
0.0722402
0.0717465
0.0871801
0.0873292
0.087348
0.0873829
0.0873104
0.0872287
0.087073
0.0869106
0.0866794
0.0864392
0.0861382
0.0858281
0.0854646
0.0850914
0.0846706
0.0842389
0.0837651
0.0832788
0.0827471
0.0822003
0.0979859
0.0981803
0.0982352
0.0983042
0.0982535
0.0981892
0.0980418
0.097885
0.097651
0.0974047
0.0970901
0.0967626
0.0963751
0.0959732
0.0955186
0.0950474
0.0945298
0.0939945
0.0934099
0.092803
0.108947
0.109193
0.10929
0.109398
0.109373
0.109329
0.109191
0.10904
0.108805
0.108555
0.108228
0.107886
0.107477
0.10705
0.106562
0.106055
0.105493
0.104912
0.104274
0.103611
0.120067
0.120367
0.120509
0.120659
0.120661
0.120639
0.120514
0.120372
0.120138
0.119885
0.11955
0.119194
0.118764
0.118311
0.117791
0.117245
0.11664
0.11601
0.11532
0.114595
0.131366
0.131725
0.131913
0.132107
0.13214
0.132146
0.132038
0.131911
0.131681
0.131428
0.131083
0.130714
0.130263
0.129786
0.129234
0.128653
0.128005
0.127329
0.126586
0.125804
0.142867
0.143283
0.143522
0.143762
0.143831
0.143867
0.14378
0.143669
0.143445
0.143193
0.142841
0.142459
0.141989
0.141486
0.140903
0.140283
0.139593
0.138867
0.138071
0.137225
0.154607
0.155087
0.155376
0.155665
0.155772
0.15584
0.155776
0.155681
0.155465
0.155216
0.154859
0.154468
0.153979
0.153453
0.152838
0.152182
0.151447
0.150673
0.149821
0.148914
0.166624
0.167166
0.167507
0.167842
0.167985
0.168084
0.168043
0.167965
0.167758
0.167512
0.16715
0.166748
0.166241
0.165688
0.165041
0.164343
0.163562
0.162732
0.161822
0.160843
0.178935
0.179545
0.179941
0.180324
0.180505
0.180636
0.18062
0.18056
0.180363
0.18012
0.179753
0.179338
0.178811
0.178233
0.17755
0.176813
0.175983
0.175099
0.174127
0.17308
0.191559
0.19224
0.192695
0.193127
0.193351
0.193515
0.193525
0.193483
0.193297
0.193055
0.192683
0.192253
0.191705
0.191095
0.190377
0.189592
0.188711
0.187766
0.186728
0.185599
0.204543
0.205303
0.205821
0.206307
0.206578
0.206781
0.20682
0.206797
0.206623
0.206384
0.206006
0.205561
0.20499
0.204351
0.203593
0.202763
0.201827
0.200822
0.199714
0.198509
0.217902
0.218746
0.219333
0.219876
0.220197
0.22044
0.220512
0.22051
0.220349
0.220112
0.219728
0.219267
0.218672
0.217995
0.217196
0.216311
0.215316
0.214238
0.213053
0.211753
0.231703
0.232633
0.233295
0.233898
0.234275
0.23456
0.234667
0.234688
0.234542
0.234307
0.233918
0.233439
0.232818
0.232108
0.231263
0.230326
0.229265
0.228117
0.226849
0.22546
0.24593
0.246958
0.247701
0.248369
0.248804
0.249134
0.249279
0.249323
0.249192
0.248958
0.248564
0.248066
0.247419
0.246666
0.245774
0.244773
0.243643
0.242409
0.241052
0.239554
0.260677
0.261804
0.262633
0.26337
0.263868
0.264246
0.26443
0.264499
0.264383
0.264153
0.26375
0.263234
0.262557
0.261766
0.26082
0.259759
0.258555
0.257239
0.255787
0.254185
0.275931
0.277168
0.27809
0.278901
0.279466
0.279895
0.280121
0.280216
0.280117
0.279887
0.279476
0.278936
0.278227
0.277387
0.276386
0.275251
0.273966
0.272554
0.270997
0.269269
0.291805
0.293152
0.29417
0.29506
0.295696
0.29618
0.296451
0.296574
0.296491
0.296263
0.295842
0.295279
0.294533
0.293647
0.292583
0.291378
0.290005
0.288498
0.286829
0.284982
0.308272
0.309744
0.310869
0.311845
0.312557
0.313099
0.313417
0.313569
0.313505
0.313278
0.312846
0.312255
0.311471
0.310526
0.309396
0.308103
0.306635
0.305014
0.303224
0.30123
0.325461
0.327059
0.328295
0.329363
0.330156
0.33076
0.331128
0.331311
0.331266
0.33104
0.330597
0.329977
0.329149
0.328148
0.326943
0.325566
0.323993
0.322259
0.320338
0.318202
0.343344
0.345086
0.346443
0.347611
0.34849
0.349161
0.349582
0.349798
0.349772
0.349546
0.349089
0.348436
0.347561
0.346492
0.345208
0.343728
0.342044
0.340178
0.338114
0.335808
0.362053
0.36394
0.365425
0.3667
0.36767
0.368411
0.368888
0.36914
0.369134
0.368907
0.368434
0.367745
0.366818
0.36568
0.364309
0.362727
0.360922
0.35892
0.356705
0.354228
0.381559
0.383611
0.385237
0.386628
0.387697
0.388514
0.389051
0.389339
0.389355
0.389126
0.388635
0.387906
0.386923
0.385704
0.384239
0.382538
0.380602
0.378445
0.376063
0.373389
0.401986
0.40421
0.405985
0.407501
0.408677
0.409575
0.410176
0.410504
0.410541
0.41031
0.409799
0.409026
0.407982
0.40668
0.405111
0.403288
0.401209
0.398891
0.396329
0.393453
0.423317
0.425734
0.427673
0.429326
0.430618
0.431605
0.432276
0.432647
0.432708
0.432474
0.431941
0.431119
0.430008
0.428609
0.42693
0.424965
0.42273
0.420229
0.417472
0.414363
0.445665
0.448286
0.450401
0.452205
0.453622
0.454707
0.455453
0.455873
0.455959
0.455723
0.455165
0.45429
0.453103
0.451605
0.449801
0.447688
0.445283
0.442588
0.439618
0.436267
0.469019
0.471871
0.474181
0.476152
0.477707
0.478901
0.479731
0.480204
0.480319
0.48008
0.479495
0.478562
0.477294
0.47568
0.473741
0.471459
0.468867
0.465954
0.462749
0.459123
0.493488
0.496587
0.499111
0.501267
0.502976
0.504293
0.505216
0.505749
0.505896
0.505655
0.50504
0.504043
0.502684
0.500948
0.498858
0.496396
0.493598
0.49045
0.486989
0.48307
0.519067
0.522448
0.525212
0.527575
0.529457
0.530911
0.53194
0.532542
0.532726
0.532485
0.531837
0.530769
0.529309
0.527433
0.525177
0.522509
0.519482
0.51607
0.512324
0.508075
0.545862
0.549551
0.552582
0.555179
0.557256
0.558867
0.560017
0.5607
0.560927
0.560686
0.560003
0.558857
0.557283
0.555254
0.55281
0.549919
0.546636
0.542936
0.538876
0.534271
0.573869
0.57791
0.581244
0.584107
0.586408
0.5882
0.589489
0.590266
0.590543
0.590305
0.589582
0.588348
0.586646
0.58444
0.581786
0.578638
0.575069
0.571042
0.56663
0.561623
0.603187
0.607619
0.611295
0.614463
0.61702
0.619023
0.620474
0.621361
0.621698
0.621465
0.620696
0.619363
0.617514
0.615111
0.612216
0.608782
0.60489
0.600501
0.595698
0.590252
0.633798
0.638678
0.642746
0.646263
0.649118
0.651364
0.653004
0.65402
0.654427
0.654201
0.653382
0.651934
0.649917
0.647285
0.644116
0.640352
0.636093
0.631291
0.626047
0.620104
0.665768
0.671146
0.675657
0.679573
0.68277
0.685298
0.687157
0.688322
0.688811
0.688593
0.687715
0.686137
0.683928
0.68104
0.677556
0.673423
0.66875
0.663488
0.657752
0.651265
0.699007
0.704944
0.709953
0.714319
0.717902
0.720749
0.722854
0.724188
0.724769
0.724561
0.723618
0.721895
0.719472
0.716293
0.712461
0.707911
0.702774
0.696996
0.690713
0.683619
0.733441
0.739972
0.745516
0.750366
0.754365
0.757555
0.759924
0.761437
0.762115
0.761919
0.760908
0.759035
0.756386
0.752905
0.748701
0.743712
0.738078
0.73175
0.724877
0.717139
0.768706
0.775834
0.781911
0.78724
0.791648
0.795172
0.797795
0.79948
0.80025
0.80007
0.799001
0.796994
0.794141
0.790378
0.785822
0.780404
0.77428
0.767396
0.759925
0.751522
0.804252
0.811882
0.8184
0.824117
0.828849
0.832635
0.835455
0.837274
0.838118
0.837961
0.836865
0.834784
0.8318
0.827848
0.823034
0.817289
0.810761
0.803407
0.795405
0.7864
0.838947
0.846869
0.853615
0.859509
0.864376
0.868266
0.871167
0.873045
0.873932
0.873812
0.872753
0.870705
0.86774
0.86378
0.858912
0.853052
0.846338
0.838718
0.830375
0.820938
0.871217
0.879069
0.885697
0.891442
0.896161
0.899927
0.902741
0.904581
0.905472
0.905417
0.90448
0.90262
0.89988
0.896175
0.891553
0.885919
0.87937
0.871851
0.863516
0.853988
0.898919
0.906285
0.912402
0.917649
0.921924
0.925333
0.927898
0.929603
0.930471
0.930515
0.929795
0.928276
0.925975
0.922798
0.918755
0.913731
0.907777
0.900816
0.892963
0.88382
0.919942
0.926463
0.931764
0.936257
0.93989
0.942799
0.945021
0.946549
0.947392
0.947571
0.94714
0.946075
0.944367
0.941922
0.938713
0.934618
0.929635
0.923673
0.91678
0.90855
0.932601
0.938148
0.94254
0.946231
0.949203
0.951616
0.953512
0.954886
0.955736
0.956083
0.955979
0.955407
0.954343
0.9527
0.950427
0.947405
0.943594
0.938887
0.933283
0.926356
0.936184
0.940881
0.944519
0.947579
0.95006
0.952131
0.953828
0.955143
0.956064
0.956614
0.956837
0.956724
0.956245
0.95533
0.953921
0.951912
0.949243
0.945806
0.941563
0.936086
0.930908
0.935126
0.938381
0.941171
0.943474
0.945465
0.947164
0.948561
0.949637
0.950419
0.950941
0.951204
0.951178
0.950812
0.950049
0.948808
0.94703
0.944625
0.941545
0.937362
0.917825
0.922046
0.925376
0.928317