/*--------------------------------*- C++ -*----------------------------------*\
  =========                 |
  \\      /  F ield         | OpenFOAM: The Open Source CFD Toolbox
   \\    /   O peration     | Website:  https://openfoam.org
    \\  /    A nd           | Version:  6
     \\/     M anipulation  |
\*---------------------------------------------------------------------------*/
FoamFile
{
    version     2.0;
    format      ascii;
    class       surfaceScalarField;
    location    "25";
    object      phi;
}
// * * * * * * * * * * * * * * * * * * * * * * * * * * * * * * * * * * * * * //

dimensions      [0 3 -1 0 0 0 0];

internalField   nonuniform List<scalar> 
19400
(
-3.74401e-10
-7.73724e-07
-8.30776e-10
-1.0367e-06
-1.19933e-09
-1.16789e-06
-1.33982e-09
-1.25802e-06
-1.28807e-09
-1.3195e-06
-1.13728e-09
-1.3598e-06
-9.64464e-10
-1.38499e-06
-7.92781e-10
-1.39993e-06
-6.20019e-10
-1.40803e-06
-4.32392e-10
-1.41127e-06
-2.3014e-10
-1.41051e-06
-2.22583e-12
-1.40578e-06
2.37939e-10
-1.39628e-06
4.95017e-10
-1.3802e-06
7.18586e-10
-1.35436e-06
8.39818e-10
-1.31405e-06
7.5388e-10
-1.25322e-06
4.57399e-10
-1.16442e-06
5.54606e-11
-1.03468e-06
-7.72978e-07
8.00875e-11
-7.7379e-07
-1.94863e-10
-1.03643e-06
-3.83221e-10
-1.16769e-06
-5.65065e-10
-1.25785e-06
-6.82171e-10
-1.31938e-06
-7.23286e-10
-1.35976e-06
-6.93479e-10
-1.38502e-06
-6.32437e-10
-1.4e-06
-5.53903e-10
-1.40811e-06
-4.68689e-10
-1.41136e-06
-3.69778e-10
-1.41061e-06
-2.61605e-10
-1.40589e-06
-1.46766e-10
-1.39639e-06
-3.90644e-11
-1.3803e-06
3.8006e-11
-1.35444e-06
5.35872e-11
-1.31407e-06
7.99889e-12
-1.25317e-06
-5.7945e-11
-1.16435e-06
-2.23622e-10
-1.03451e-06
-7.732e-07
4.96305e-12
-7.73783e-07
-1.43935e-10
-1.0363e-06
-2.33476e-10
-1.16759e-06
-3.55075e-10
-1.25773e-06
-4.38669e-10
-1.31929e-06
-4.9401e-10
-1.35971e-06
-5.15704e-10
-1.38499e-06
-5.18901e-10
-1.39999e-06
-5.07292e-10
-1.40812e-06
-4.82506e-10
-1.41138e-06
-4.43281e-10
-1.41065e-06
-3.82207e-10
-1.40595e-06
-3.11598e-10
-1.39647e-06
-2.2842e-10
-1.38038e-06
-1.53546e-10
-1.35451e-06
-1.12497e-10
-1.31411e-06
-9.74137e-11
-1.25318e-06
-7.48705e-11
-1.16437e-06
-5.05111e-11
-1.03453e-06
-7.7325e-07
3.38584e-11
-7.73815e-07
-1.25119e-11
-1.03627e-06
-5.33825e-11
-1.16754e-06
-1.37433e-10
-1.25766e-06
-2.08103e-10
-1.31921e-06
-2.80579e-10
-1.35964e-06
-3.45635e-10
-1.38492e-06
-4.09834e-10
-1.39993e-06
-4.56709e-10
-1.40807e-06
-4.85752e-10
-1.41135e-06
-4.91284e-10
-1.41064e-06
-4.76402e-10
-1.40596e-06
-4.49454e-10
-1.39649e-06
-3.99608e-10
-1.38043e-06
-3.51702e-10
-1.35456e-06
-3.17278e-10
-1.31414e-06
-2.70133e-10
-1.25323e-06
-2.08351e-10
-1.16443e-06
-1.34828e-10
-1.0346e-06
-7.73385e-07
-7.1597e-11
-7.73743e-07
-1.00414e-11
-1.03635e-06
-3.36181e-11
-1.16751e-06
-7.34342e-11
-1.25763e-06
-1.15682e-10
-1.31916e-06
-1.96212e-10
-1.35956e-06
-2.8078e-10
-1.38483e-06
-3.70183e-10
-1.39983e-06
-4.40412e-10
-1.40799e-06
-4.94375e-10
-1.41129e-06
-5.21939e-10
-1.41061e-06
-5.33879e-10
-1.40595e-06
-5.2996e-10
-1.3965e-06
-5.08476e-10
-1.38045e-06
-4.64941e-10
-1.3546e-06
-4.00169e-10
-1.3142e-06
-3.21109e-10
-1.25331e-06
-2.30139e-10
-1.16452e-06
-5.73402e-11
-1.03478e-06
-7.73443e-07
-2.47474e-12
-7.73742e-07
5.92286e-11
-1.03642e-06
1.44543e-11
-1.16747e-06
-4.51485e-11
-1.25758e-06
-1.05505e-10
-1.31909e-06
-2.07356e-10
-1.35946e-06
-3.0294e-10
-1.38473e-06
-3.90222e-10
-1.39975e-06
-4.59199e-10
-1.40792e-06
-5.19088e-10
-1.41123e-06
-5.53665e-10
-1.41057e-06
-5.65789e-10
-1.40593e-06
-5.56401e-10
-1.3965e-06
-5.4184e-10
-1.38046e-06
-4.99821e-10
-1.35464e-06
-4.13734e-10
-1.31429e-06
-3.32864e-10
-1.25339e-06
-2.53682e-10
-1.1646e-06
-6.10681e-11
-1.03497e-06
-7.73503e-07
1.16643e-10
-7.73861e-07
1.04477e-10
-1.03641e-06
5.88129e-11
-1.16742e-06
-5.62083e-12
-1.25752e-06
-9.44455e-11
-1.319e-06
-2.09631e-10
-1.35935e-06
-3.03345e-10
-1.38463e-06
-3.85207e-10
-1.39967e-06
-4.51157e-10
-1.40785e-06
-5.05057e-10
-1.41118e-06
-5.4244e-10
-1.41053e-06
-5.53638e-10
-1.40592e-06
-5.45466e-10
-1.39651e-06
-5.2849e-10
-1.38048e-06
-4.951e-10
-1.35468e-06
-4.22746e-10
-1.31436e-06
-3.34483e-10
-1.25348e-06
-2.39651e-10
-1.1647e-06
-9.65847e-11
-1.03511e-06
-7.73598e-07
1.88225e-10
-7.74049e-07
1.7864e-10
-1.0364e-06
1.42596e-10
-1.16738e-06
9.22942e-11
-1.25747e-06
-4.89257e-12
-1.31891e-06
-1.30079e-10
-1.35923e-06
-2.37185e-10
-1.38453e-06
-3.30297e-10
-1.39958e-06
-4.07626e-10
-1.40777e-06
-4.64279e-10
-1.41112e-06
-5.08034e-10
-1.41049e-06
-5.24639e-10
-1.4059e-06
-5.1774e-10
-1.39651e-06
-4.96898e-10
-1.38049e-06
-4.65002e-10
-1.35471e-06
-4.0556e-10
-1.31442e-06
-3.21195e-10
-1.25356e-06
-2.2951e-10
-1.16478e-06
-1.30296e-10
-1.0352e-06
-7.73728e-07
1.5142e-10
-7.74202e-07
2.3766e-10
-1.03648e-06
2.35467e-10
-1.16738e-06
1.74855e-10
-1.25741e-06
7.35185e-11
-1.31881e-06
-5.55693e-11
-1.35911e-06
-1.84211e-10
-1.3844e-06
-2.95458e-10
-1.39947e-06
-3.89319e-10
-1.40768e-06
-4.67988e-10
-1.41104e-06
-5.30721e-10
-1.41043e-06
-5.68683e-10
-1.40586e-06
-5.8349e-10
-1.3965e-06
-5.751e-10
-1.3805e-06
-5.51985e-10
-1.35473e-06
-4.82443e-10
-1.31449e-06
-3.65863e-10
-1.25368e-06
-2.65285e-10
-1.16488e-06
-2.08306e-10
-1.03525e-06
-7.73935e-07
7.42302e-11
-7.74279e-07
2.25989e-10
-1.03663e-06
2.54036e-10
-1.16741e-06
1.71962e-10
-1.25733e-06
6.20702e-11
-1.3187e-06
-5.89049e-11
-1.35899e-06
-1.79491e-10
-1.38428e-06
-2.95566e-10
-1.39936e-06
-3.99896e-10
-1.40758e-06
-4.98383e-10
-1.41095e-06
-5.78494e-10
-1.41035e-06
-6.47522e-10
-1.40579e-06
-6.93945e-10
-1.39645e-06
-7.10616e-10
-1.38049e-06
-6.89909e-10
-1.35475e-06
-5.94547e-10
-1.31458e-06
-4.22062e-10
-1.25385e-06
-2.58686e-10
-1.16504e-06
-1.57501e-10
-1.03535e-06
-7.74092e-07
1.00338e-10
-7.74384e-07
2.26556e-10
-1.03675e-06
2.83188e-10
-1.16747e-06
1.95765e-10
-1.25724e-06
8.14705e-11
-1.31859e-06
-3.42176e-11
-1.35887e-06
-1.63175e-10
-1.38415e-06
-2.89368e-10
-1.39923e-06
-4.03361e-10
-1.40746e-06
-5.06611e-10
-1.41084e-06
-5.94014e-10
-1.41026e-06
-6.70056e-10
-1.40572e-06
-7.19725e-10
-1.3964e-06
-7.40971e-10
-1.38047e-06
-7.02514e-10
-1.35479e-06
-5.94477e-10
-1.31469e-06
-4.10463e-10
-1.25403e-06
-2.12578e-10
-1.16523e-06
-2.79672e-11
-1.03554e-06
-7.7412e-07
1.04992e-10
-7.74491e-07
2.07748e-10
-1.03686e-06
2.68755e-10
-1.16754e-06
1.94199e-10
-1.25716e-06
9.43451e-11
-1.31849e-06
-1.20289e-11
-1.35876e-06
-1.4887e-10
-1.38401e-06
-2.83263e-10
-1.39909e-06
-4.0632e-10
-1.40734e-06
-5.17685e-10
-1.41073e-06
-6.14859e-10
-1.41016e-06
-6.96266e-10
-1.40564e-06
-7.44441e-10
-1.39635e-06
-7.5355e-10
-1.38046e-06
-7.0621e-10
-1.35483e-06
-6.00467e-10
-1.3148e-06
-4.20516e-10
-1.25421e-06
-2.16171e-10
-1.16544e-06
-4.13716e-11
-1.03571e-06
-7.74163e-07
1.08017e-10
-7.74602e-07
1.68723e-10
-1.03692e-06
2.17265e-10
-1.16759e-06
2.06161e-10
-1.25715e-06
1.38188e-10
-1.31842e-06
2.81403e-11
-1.35865e-06
-1.15778e-10
-1.38387e-06
-2.66692e-10
-1.39894e-06
-4.10488e-10
-1.4072e-06
-5.37511e-10
-1.41061e-06
-6.479e-10
-1.41005e-06
-7.41595e-10
-1.40555e-06
-7.95057e-10
-1.3963e-06
-7.98837e-10
-1.38046e-06
-7.45925e-10
-1.35489e-06
-6.33939e-10
-1.31491e-06
-4.4844e-10
-1.25439e-06
-2.34347e-10
-1.16566e-06
-8.17028e-11
-1.03587e-06
-7.74245e-07
9.30348e-11
-7.74696e-07
1.75234e-10
-1.03701e-06
2.14575e-10
-1.16763e-06
2.47154e-10
-1.25718e-06
2.0544e-10
-1.31838e-06
7.95609e-11
-1.35852e-06
-8.8352e-11
-1.3837e-06
-2.6322e-10
-1.39877e-06
-4.23251e-10
-1.40703e-06
-5.62208e-10
-1.41046e-06
-6.79729e-10
-1.40993e-06
-7.76655e-10
-1.40545e-06
-8.34671e-10
-1.39624e-06
-8.35819e-10
-1.38046e-06
-7.65878e-10
-1.35496e-06
-6.42405e-10
-1.31503e-06
-4.59385e-10
-1.25458e-06
-2.43681e-10
-1.16588e-06
-8.06831e-11
-1.03603e-06
-7.74325e-07
1.25632e-10
-7.74811e-07
2.21037e-10
-1.0371e-06
2.29939e-10
-1.16763e-06
2.37413e-10
-1.25719e-06
1.98259e-10
-1.31834e-06
7.53123e-11
-1.3584e-06
-9.57151e-11
-1.38353e-06
-2.79333e-10
-1.39858e-06
-4.41777e-10
-1.40687e-06
-5.88405e-10
-1.41032e-06
-7.12384e-10
-1.4098e-06
-8.12874e-10
-1.40535e-06
-8.83297e-10
-1.39616e-06
-8.96825e-10
-1.38044e-06
-8.30799e-10
-1.35502e-06
-6.8891e-10
-1.31517e-06
-4.90467e-10
-1.25478e-06
-2.57611e-10
-1.16611e-06
-7.9619e-11
-1.03621e-06
-7.74403e-07
1.95534e-10
-7.74992e-07
2.35222e-10
-1.03714e-06
2.89692e-10
-1.16767e-06
3.05186e-10
-1.25721e-06
2.41917e-10
-1.31827e-06
1.03895e-10
-1.35826e-06
-7.93067e-11
-1.38334e-06
-2.77439e-10
-1.39838e-06
-4.54328e-10
-1.40668e-06
-6.08113e-10
-1.41016e-06
-7.38176e-10
-1.40967e-06
-8.41759e-10
-1.40524e-06
-9.10768e-10
-1.39609e-06
-9.27011e-10
-1.38042e-06
-8.65915e-10
-1.35508e-06
-7.14327e-10
-1.31532e-06
-4.87082e-10
-1.255e-06
-2.23326e-10
-1.16636e-06
-1.12183e-11
-1.03641e-06
-7.74411e-07
1.2143e-10
-7.75093e-07
2.26923e-10
-1.03724e-06
3.32547e-10
-1.16776e-06
3.41906e-10
-1.25722e-06
2.80984e-10
-1.3182e-06
1.40521e-10
-1.35812e-06
-5.01057e-11
-1.38314e-06
-2.60803e-10
-1.39816e-06
-4.61727e-10
-1.40648e-06
-6.29714e-10
-1.40998e-06
-7.70523e-10
-1.40952e-06
-8.66724e-10
-1.40513e-06
-9.27817e-10
-1.39603e-06
-9.27693e-10
-1.38042e-06
-8.51686e-10
-1.35515e-06
-7.00305e-10
-1.31547e-06
-4.70235e-10
-1.25522e-06
-2.33872e-10
-1.16658e-06
-5.40803e-11
-1.03657e-06
-7.74462e-07
1.2442e-10
-7.75203e-07
2.73409e-10
-1.03737e-06
4.2274e-10
-1.1679e-06
4.47985e-10
-1.25724e-06
3.82765e-10
-1.31812e-06
2.29248e-10
-1.35796e-06
2.14515e-11
-1.38293e-06
-2.12343e-10
-1.39793e-06
-4.41126e-10
-1.40625e-06
-6.43495e-10
-1.40978e-06
-8.10715e-10
-1.40935e-06
-9.35271e-10
-1.405e-06
-1.02174e-09
-1.39594e-06
-1.0404e-09
-1.38039e-06
-9.74896e-10
-1.35521e-06
-8.18752e-10
-1.31562e-06
-5.5534e-10
-1.25547e-06
-2.9818e-10
-1.16683e-06
-1.89685e-10
-1.03667e-06
-7.7465e-07
1.08374e-10
-7.75309e-07
3.17074e-10
-1.03757e-06
5.06459e-10
-1.16809e-06
5.97037e-10
-1.25733e-06
5.33431e-10
-1.31806e-06
3.54651e-10
-1.35779e-06
1.18242e-10
-1.38269e-06
-1.41419e-10
-1.39767e-06
-3.95898e-10
-1.40599e-06
-6.34258e-10
-1.40954e-06
-8.3993e-10
-1.40914e-06
-1.01566e-09
-1.40483e-06
-1.1408e-09
-1.39581e-06
-1.19577e-09
-1.38034e-06
-1.13994e-09
-1.35526e-06
-9.57727e-10
-1.3158e-06
-6.51215e-10
-1.25577e-06
-3.2834e-10
-1.16714e-06
-9.96085e-11
-1.03689e-06
-7.7475e-07
2.79666e-11
-7.7534e-07
3.39076e-10
-1.03787e-06
5.63657e-10
-1.16832e-06
7.02902e-10
-1.25746e-06
6.54256e-10
-1.31802e-06
4.60569e-10
-1.35759e-06
2.05212e-10
-1.38244e-06
-7.28477e-11
-1.39739e-06
-3.50261e-10
-1.40571e-06
-6.16364e-10
-1.40927e-06
-8.50167e-10
-1.4089e-06
-1.05388e-09
-1.40463e-06
-1.19341e-09
-1.39566e-06
-1.26049e-09
-1.38027e-06
-1.20805e-09
-1.35531e-06
-1.01434e-09
-1.31599e-06
-7.16266e-10
-1.25607e-06
-3.77011e-10
-1.16749e-06
-1.91965e-12
-1.03727e-06
-7.74754e-07
7.82411e-12
-7.7535e-07
3.47054e-10
-1.0382e-06
6.01983e-10
-1.16858e-06
7.48977e-10
-1.2576e-06
7.06997e-10
-1.31798e-06
5.17602e-10
-1.3574e-06
2.61176e-10
-1.38218e-06
-2.78548e-11
-1.3971e-06
-3.26044e-10
-1.40541e-06
-6.15819e-10
-1.40898e-06
-8.69363e-10
-1.40865e-06
-1.08528e-09
-1.40442e-06
-1.23252e-09
-1.39551e-06
-1.30056e-09
-1.38021e-06
-1.24871e-09
-1.35536e-06
-1.05345e-09
-1.31618e-06
-7.61971e-10
-1.25636e-06
-4.27864e-10
-1.16783e-06
-6.30154e-11
-1.03764e-06
-7.74818e-07
1.1372e-10
-7.75458e-07
4.01684e-10
-1.03848e-06
6.68504e-10
-1.16885e-06
8.22831e-10
-1.25775e-06
7.8533e-10
-1.31793e-06
5.94446e-10
-1.3572e-06
3.22092e-10
-1.3819e-06
1.37707e-11
-1.39679e-06
-3.04318e-10
-1.40509e-06
-6.1928e-10
-1.40867e-06
-8.98258e-10
-1.40836e-06
-1.13508e-09
-1.40418e-06
-1.30424e-09
-1.39534e-06
-1.39481e-09
-1.38011e-06
-1.36171e-09
-1.35539e-06
-1.16365e-09
-1.31638e-06
-8.39834e-10
-1.25669e-06
-4.73838e-10
-1.1682e-06
-1.4336e-10
-1.03798e-06
-7.74959e-07
2.05973e-10
-7.75652e-07
4.89299e-10
-1.03875e-06
7.67505e-10
-1.16912e-06
9.28212e-10
-1.2579e-06
8.99562e-10
-1.3179e-06
6.95536e-10
-1.35699e-06
3.93556e-10
-1.3816e-06
6.71603e-11
-1.39646e-06
-2.68532e-10
-1.40475e-06
-5.99799e-10
-1.40833e-06
-9.05111e-10
-1.40805e-06
-1.16113e-09
-1.40391e-06
-1.35175e-09
-1.39514e-06
-1.46505e-09
-1.37999e-06
-1.45707e-09
-1.35539e-06
-1.2719e-09
-1.31656e-06
-9.30117e-10
-1.25702e-06
-5.32406e-10
-1.16859e-06
-1.45421e-10
-1.03835e-06
-7.75101e-07
2.4363e-10
-7.7588e-07
5.68838e-10
-1.03907e-06
8.64945e-10
-1.1694e-06
1.02e-09
-1.25805e-06
9.96913e-10
-1.31787e-06
8.04485e-10
-1.35679e-06
4.95939e-10
-1.38128e-06
1.48133e-10
-1.3961e-06
-2.1418e-10
-1.40438e-06
-5.67194e-10
-1.40797e-06
-9.01558e-10
-1.40771e-06
-1.18152e-09
-1.40362e-06
-1.39226e-09
-1.39492e-06
-1.50808e-09
-1.37987e-06
-1.5033e-09
-1.35539e-06
-1.32891e-09
-1.31673e-06
-1.00146e-09
-1.25734e-06
-5.93805e-10
-1.16898e-06
-1.73167e-10
-1.03875e-06
-7.7527e-07
2.83709e-10
-7.76151e-07
6.54848e-10
-1.03943e-06
1.00574e-09
-1.16974e-06
1.18943e-09
-1.25823e-06
1.16045e-09
-1.31783e-06
9.61033e-10
-1.35659e-06
6.40399e-10
-1.38096e-06
2.54156e-10
-1.39571e-06
-1.51831e-10
-1.40397e-06
-5.44157e-10
-1.40757e-06
-9.16311e-10
-1.40734e-06
-1.23127e-09
-1.4033e-06
-1.4737e-09
-1.39468e-06
-1.6078e-09
-1.37973e-06
-1.61492e-09
-1.35538e-06
-1.45291e-09
-1.31688e-06
-1.12156e-09
-1.25766e-06
-6.69306e-10
-1.16941e-06
-2.47653e-10
-1.03916e-06
-7.75515e-07
2.80622e-10
-7.76421e-07
7.42371e-10
-1.03989e-06
1.15209e-09
-1.17014e-06
1.36854e-09
-1.25844e-06
1.33915e-09
-1.3178e-06
1.1206e-09
-1.35636e-06
7.75485e-10
-1.38061e-06
3.51242e-10
-1.39528e-06
-1.01037e-10
-1.40352e-06
-5.42457e-10
-1.40712e-06
-9.57616e-10
-1.40692e-06
-1.31774e-09
-1.40293e-06
-1.5972e-09
-1.39439e-06
-1.76443e-09
-1.37955e-06
-1.78713e-09
-1.35535e-06
-1.62596e-09
-1.31704e-06
-1.27344e-09
-1.258e-06
-7.74954e-10
-1.1699e-06
-2.94556e-10
-1.03963e-06
-7.75809e-07
2.7366e-10
-7.76687e-07
8.21521e-10
-1.04043e-06
1.28409e-09
-1.1706e-06
1.53069e-09
-1.25868e-06
1.5187e-09
-1.31778e-06
1.2867e-09
-1.35613e-06
9.08547e-10
-1.38022e-06
4.44803e-10
-1.39481e-06
-4.71898e-11
-1.40302e-06
-5.38251e-10
-1.40662e-06
-9.99343e-10
-1.40645e-06
-1.41176e-09
-1.40252e-06
-1.73893e-09
-1.39406e-06
-1.95187e-09
-1.37934e-06
-1.9922e-09
-1.3553e-06
-1.81612e-09
-1.31721e-06
-1.42367e-09
-1.25839e-06
-8.75955e-10
-1.17044e-06
-3.05993e-10
-1.04019e-06
-7.76115e-07
3.02382e-10
-7.76981e-07
9.09617e-10
-1.04103e-06
1.39642e-09
-1.17108e-06
1.65677e-09
-1.25894e-06
1.66237e-09
-1.31777e-06
1.42513e-09
-1.35589e-06
1.02751e-09
-1.37982e-06
5.38428e-10
-1.39432e-06
1.51784e-11
-1.40249e-06
-5.17295e-10
-1.40609e-06
-1.01831e-09
-1.40594e-06
-1.4739e-09
-1.40206e-06
-1.83817e-09
-1.39369e-06
-2.08768e-09
-1.37909e-06
-2.15172e-09
-1.35523e-06
-1.97425e-09
-1.31738e-06
-1.54556e-09
-1.25882e-06
-9.33282e-10
-1.17106e-06
-2.55393e-10
-1.04087e-06
-7.76372e-07
3.84895e-10
-7.77358e-07
1.00892e-09
-1.04165e-06
1.54794e-09
-1.17161e-06
1.83817e-09
-1.25922e-06
1.8433e-09
-1.31777e-06
1.59389e-09
-1.35563e-06
1.16894e-09
-1.37938e-06
6.4994e-10
-1.3938e-06
9.19293e-11
-1.40192e-06
-4.7528e-10
-1.40552e-06
-1.01636e-09
-1.4054e-06
-1.50537e-09
-1.40157e-06
-1.89775e-09
-1.39329e-06
-2.16366e-09
-1.37882e-06
-2.23566e-09
-1.35516e-06
-2.07347e-09
-1.31754e-06
-1.63815e-09
-1.25925e-06
-9.86268e-10
-1.17171e-06
-2.58068e-10
-1.04161e-06
-7.76629e-07
4.27032e-10
-7.77776e-07
1.11517e-09
-1.04233e-06
1.69765e-09
-1.17218e-06
2.02303e-09
-1.25954e-06
2.04015e-09
-1.31778e-06
1.77832e-09
-1.35537e-06
1.3333e-09
-1.37893e-06
7.84876e-10
-1.39324e-06
1.8787e-10
-1.40132e-06
-4.20411e-10
-1.40491e-06
-1.00284e-09
-1.40481e-06
-1.52863e-09
-1.40104e-06
-1.95772e-09
-1.39286e-06
-2.2479e-09
-1.37853e-06
-2.33867e-09
-1.35506e-06
-2.18743e-09
-1.31769e-06
-1.75148e-09
-1.25969e-06
-1.07628e-09
-1.17239e-06
-3.43103e-10
-1.04234e-06
-7.76971e-07
4.48794e-10
-7.78219e-07
1.20503e-09
-1.04308e-06
1.84822e-09
-1.17282e-06
2.22224e-09
-1.25991e-06
2.26056e-09
-1.31782e-06
1.99503e-09
-1.3551e-06
1.52723e-09
-1.37846e-06
9.40073e-10
-1.39265e-06
2.90149e-10
-1.40066e-06
-3.64281e-10
-1.40424e-06
-9.92494e-10
-1.40417e-06
-1.5527e-09
-1.40047e-06
-2.02117e-09
-1.39238e-06
-2.33794e-09
-1.3782e-06
-2.44606e-09
-1.35495e-06
-2.30002e-09
-1.31783e-06
-1.86037e-09
-1.26012e-06
-1.17791e-09
-1.17306e-06
-4.34294e-10
-1.04307e-06
-7.77402e-07
4.21358e-10
-7.78632e-07
1.26598e-09
-1.04392e-06
1.98446e-09
-1.17354e-06
2.39388e-09
-1.26032e-06
2.43082e-09
-1.31785e-06
2.15658e-09
-1.35482e-06
1.66611e-09
-1.37797e-06
1.04233e-09
-1.39202e-06
3.45475e-10
-1.39996e-06
-3.58604e-10
-1.40353e-06
-1.038e-09
-1.40349e-06
-1.64389e-09
-1.39985e-06
-2.15614e-09
-1.39186e-06
-2.50376e-09
-1.37784e-06
-2.63035e-09
-1.35481e-06
-2.48442e-09
-1.31797e-06
-2.01751e-09
-1.26058e-06
-1.29461e-09
-1.17377e-06
-5.53082e-10
-1.0438e-06
-7.77953e-07
5.26257e-10
-7.7914e-07
1.37557e-09
-1.04476e-06
2.09511e-09
-1.17424e-06
2.48948e-09
-1.2607e-06
2.50729e-09
-1.31786e-06
2.23187e-09
-1.35453e-06
1.74649e-09
-1.37747e-06
1.10831e-09
-1.39137e-06
3.83314e-10
-1.39923e-06
-3.65087e-10
-1.40277e-06
-1.09523e-09
-1.40276e-06
-1.75958e-09
-1.39918e-06
-2.31645e-09
-1.3913e-06
-2.70089e-09
-1.37745e-06
-2.85058e-09
-1.35465e-06
-2.69312e-09
-1.31812e-06
-2.18024e-09
-1.26108e-06
-1.38304e-09
-1.17456e-06
-5.58684e-10
-1.04462e-06
-7.78511e-07
7.01834e-10
-7.79822e-07
1.50757e-09
-1.04555e-06
2.28456e-09
-1.17501e-06
2.73122e-09
-1.26114e-06
2.76431e-09
-1.31788e-06
2.47962e-09
-1.35424e-06
1.96291e-09
-1.37695e-06
1.27824e-09
-1.39068e-06
5.01251e-10
-1.39845e-06
-3.00572e-10
-1.40196e-06
-1.08836e-09
-1.40196e-06
-1.8091e-09
-1.39845e-06
-2.41396e-09
-1.39069e-06
-2.83309e-09
-1.37703e-06
-2.99941e-09
-1.35449e-06
-2.83798e-09
-1.31827e-06
-2.30556e-09
-1.26161e-06
-1.48006e-09
-1.17538e-06
-5.40522e-10
-1.04555e-06
-7.79051e-07
6.30436e-10
-7.8044e-07
1.57962e-09
-1.04649e-06
2.45727e-09
-1.17588e-06
2.98847e-09
-1.26167e-06
3.07475e-09
-1.31797e-06
2.7899e-09
-1.35395e-06
2.23092e-09
-1.37639e-06
1.48825e-09
-1.38993e-06
6.48106e-10
-1.39761e-06
-2.16401e-10
-1.40109e-06
-1.06241e-09
-1.40111e-06
-1.83537e-09
-1.39767e-06
-2.4888e-09
-1.39004e-06
-2.94104e-09
-1.37657e-06
-3.1276e-09
-1.3543e-06
-2.96769e-09
-1.31843e-06
-2.42133e-09
-1.26216e-06
-1.58983e-09
-1.17621e-06
-6.33287e-10
-1.04651e-06
-7.79684e-07
5.44728e-10
-7.8098e-07
1.6585e-09
-1.04759e-06
2.58893e-09
-1.1768e-06
3.14171e-09
-1.26222e-06
3.25668e-09
-1.31808e-06
2.98445e-09
-1.35368e-06
2.40772e-09
-1.37581e-06
1.62933e-09
-1.38915e-06
7.45695e-10
-1.39672e-06
-1.73555e-10
-1.40017e-06
-1.07299e-09
-1.40021e-06
-1.89948e-09
-1.39684e-06
-2.59707e-09
-1.38933e-06
-3.08666e-09
-1.37607e-06
-3.29205e-09
-1.35409e-06
-3.12126e-09
-1.31859e-06
-2.55562e-09
-1.26272e-06
-1.67855e-09
-1.17709e-06
-6.85321e-10
-1.04749e-06
-7.80367e-07
6.28443e-10
-7.81606e-07
1.75294e-09
-1.04871e-06
2.69317e-09
-1.17774e-06
3.25662e-09
-1.26277e-06
3.38778e-09
-1.3182e-06
3.12403e-09
-1.35341e-06
2.53603e-09
-1.37521e-06
1.7364e-09
-1.38834e-06
8.18614e-10
-1.39579e-06
-1.43018e-10
-1.3992e-06
-1.09076e-09
-1.39926e-06
-1.96228e-09
-1.39596e-06
-2.69786e-09
-1.38859e-06
-3.21924e-09
-1.37554e-06
-3.43745e-09
-1.35386e-06
-3.26243e-09
-1.31876e-06
-2.68105e-09
-1.26329e-06
-1.7559e-09
-1.178e-06
-6.75721e-10
-1.04857e-06
-7.81042e-07
7.53775e-10
-7.82351e-07
1.84882e-09
-1.0498e-06
2.80981e-09
-1.17869e-06
3.39973e-09
-1.26336e-06
3.54552e-09
-1.31834e-06
3.27465e-09
-1.35313e-06
2.66805e-09
-1.3746e-06
1.84404e-09
-1.38751e-06
8.87863e-10
-1.39483e-06
-1.17897e-10
-1.39818e-06
-1.10998e-09
-1.39826e-06
-2.02416e-09
-1.39504e-06
-2.79445e-09
-1.38781e-06
-3.34078e-09
-1.37499e-06
-3.57728e-09
-1.35362e-06
-3.40773e-09
-1.31892e-06
-2.80406e-09
-1.26389e-06
-1.84526e-09
-1.17896e-06
-7.26464e-10
-1.04968e-06
-7.81768e-07
8.72594e-10
-7.83208e-07
1.99007e-09
-1.05091e-06
2.96377e-09
-1.17966e-06
3.56307e-09
-1.26395e-06
3.72039e-09
-1.31849e-06
3.44051e-09
-1.35284e-06
2.81462e-09
-1.37397e-06
1.95722e-09
-1.38665e-06
9.58915e-10
-1.39383e-06
-9.67569e-11
-1.39712e-06
-1.14257e-09
-1.39721e-06
-2.10837e-09
-1.39407e-06
-2.92213e-09
-1.387e-06
-3.50281e-09
-1.37441e-06
-3.75831e-09
-1.35336e-06
-3.58397e-09
-1.31909e-06
-2.95471e-09
-1.26451e-06
-1.9684e-09
-1.17994e-06
-8.16555e-10
-1.05083e-06
-7.82585e-07
9.61586e-10
-7.84155e-07
2.12503e-09
-1.05206e-06
3.15e-09
-1.18067e-06
3.79566e-09
-1.26459e-06
3.97319e-09
-1.31866e-06
3.68212e-09
-1.35255e-06
3.02245e-09
-1.37331e-06
2.11429e-09
-1.38573e-06
1.06024e-09
-1.39277e-06
-5.73785e-11
-1.396e-06
-1.16826e-09
-1.3961e-06
-2.19781e-09
-1.39303e-06
-3.07141e-09
-1.38612e-06
-3.7047e-09
-1.37377e-06
-3.98131e-09
-1.35308e-06
-3.7975e-09
-1.31927e-06
-3.13714e-09
-1.26517e-06
-2.09387e-09
-1.18099e-06
-8.70156e-10
-1.05206e-06
-7.83454e-07
9.1462e-10
-7.8506e-07
2.21058e-09
-1.05335e-06
3.325e-09
-1.18178e-06
4.03415e-09
-1.26529e-06
4.22725e-09
-1.31885e-06
3.92079e-09
-1.35223e-06
3.22365e-09
-1.3726e-06
2.26921e-09
-1.38477e-06
1.16652e-09
-1.39166e-06
8.28619e-13
-1.39483e-06
-1.15901e-09
-1.39493e-06
-2.24262e-09
-1.39194e-06
-3.1677e-09
-1.38519e-06
-3.84407e-09
-1.37308e-06
-4.15043e-09
-1.35277e-06
-3.97254e-09
-1.31944e-06
-3.28708e-09
-1.26586e-06
-2.16398e-09
-1.18211e-06
-8.16094e-10
-1.0534e-06
-7.84268e-07
8.91735e-10
-7.85945e-07
2.28849e-09
-1.05474e-06
3.43875e-09
-1.18292e-06
4.16883e-09
-1.26601e-06
4.36976e-09
-1.31904e-06
4.06597e-09
-1.35192e-06
3.35628e-09
-1.37188e-06
2.38181e-09
-1.38379e-06
1.25347e-09
-1.39052e-06
6.65013e-11
-1.39363e-06
-1.11915e-09
-1.39373e-06
-2.22295e-09
-1.39083e-06
-3.17085e-09
-1.38423e-06
-3.85502e-09
-1.37239e-06
-4.16729e-09
-1.35245e-06
-4.01428e-09
-1.31959e-06
-3.34928e-09
-1.26651e-06
-2.22889e-09
-1.18322e-06
-8.41401e-10
-1.05478e-06
-7.85107e-07
9.67931e-10
-7.86906e-07
2.35877e-09
-1.05612e-06
3.56892e-09
-1.18412e-06
4.33094e-09
-1.26677e-06
4.52617e-09
-1.31923e-06
4.19837e-09
-1.35159e-06
3.4678e-09
-1.37115e-06
2.47001e-09
-1.38278e-06
1.31677e-09
-1.38937e-06
1.01926e-10
-1.3924e-06
-1.11434e-09
-1.39251e-06
-2.24655e-09
-1.38968e-06
-3.2268e-09
-1.38325e-06
-3.93381e-09
-1.37168e-06
-4.26543e-09
-1.35211e-06
-4.13009e-09
-1.31972e-06
-3.47101e-09
-1.26717e-06
-2.35636e-09
-1.18432e-06
-1.07065e-09
-1.05605e-06
-7.86176e-07
1.02436e-09
-7.87918e-07
2.43941e-09
-1.05753e-06
3.68183e-09
-1.18535e-06
4.45271e-09
-1.26754e-06
4.64149e-09
-1.31941e-06
4.29311e-09
-1.35123e-06
3.54586e-09
-1.37039e-06
2.52596e-09
-1.38176e-06
1.34405e-09
-1.38818e-06
8.93337e-11
-1.39114e-06
-1.17059e-09
-1.39125e-06
-2.35462e-09
-1.38849e-06
-3.38413e-09
-1.38221e-06
-4.14002e-09
-1.37091e-06
-4.50844e-09
-1.35174e-06
-4.37643e-09
-1.31985e-06
-3.67796e-09
-1.26786e-06
-2.50458e-09
-1.18549e-06
-1.19608e-09
-1.05735e-06
-7.8737e-07
1.13282e-09
-7.89038e-07
2.56085e-09
-1.05896e-06
3.83661e-09
-1.18662e-06
4.61878e-09
-1.26832e-06
4.80121e-09
-1.31958e-06
4.43856e-09
-1.35087e-06
3.66461e-09
-1.36961e-06
2.61193e-09
-1.3807e-06
1.38902e-09
-1.38696e-06
8.59101e-11
-1.38983e-06
-1.22588e-09
-1.38994e-06
-2.46879e-09
-1.38724e-06
-3.54986e-09
-1.38113e-06
-4.35461e-09
-1.3701e-06
-4.75303e-09
-1.35133e-06
-4.61505e-09
-1.31998e-06
-3.87309e-09
-1.26859e-06
-2.62187e-09
-1.18673e-06
-1.15174e-09
-1.05881e-06
-7.88521e-07
1.15893e-09
-7.90185e-07
2.68081e-09
-1.06047e-06
4.02606e-09
-1.18796e-06
4.84234e-09
-1.26913e-06
5.02656e-09
-1.31976e-06
4.64553e-09
-1.35048e-06
3.83631e-09
-1.3688e-06
2.74189e-09
-1.3796e-06
1.47248e-09
-1.38568e-06
1.19295e-10
-1.38848e-06
-1.24248e-09
-1.38857e-06
-2.53553e-09
-1.38595e-06
-3.66145e-09
-1.38e-06
-4.50533e-09
-1.36926e-06
-4.9235e-09
-1.35091e-06
-4.77923e-09
-1.32012e-06
-4.0175e-09
-1.26935e-06
-2.71688e-09
-1.18803e-06
-1.11334e-09
-1.06041e-06
-7.89634e-07
1.11673e-09
-7.91291e-07
2.76443e-09
-1.06211e-06
4.1615e-09
-1.18935e-06
5.00682e-09
-1.26997e-06
5.20241e-09
-1.31995e-06
4.81538e-09
-1.35009e-06
3.98482e-09
-1.36797e-06
2.85754e-09
-1.37847e-06
1.55025e-09
-1.38437e-06
1.55926e-10
-1.38708e-06
-1.24623e-09
-1.38716e-06
-2.57669e-09
-1.38462e-06
-3.73615e-09
-1.37884e-06
-4.60611e-09
-1.36839e-06
-5.03722e-09
-1.35048e-06
-4.90217e-09
-1.32026e-06
-4.13628e-09
-1.27012e-06
-2.80797e-09
-1.18936e-06
-1.17202e-09
-1.06205e-06
-7.90805e-07
1.1609e-09
-7.92444e-07
2.86093e-09
-1.0638e-06
4.2918e-09
-1.19077e-06
5.1464e-09
-1.27081e-06
5.32945e-09
-1.32013e-06
4.9261e-09
-1.34968e-06
4.07839e-09
-1.36711e-06
2.9291e-09
-1.37731e-06
1.5972e-09
-1.38303e-06
1.72905e-10
-1.38565e-06
-1.25837e-09
-1.38572e-06
-2.61703e-09
-1.38325e-06
-3.80466e-09
-1.37764e-06
-4.69946e-09
-1.36749e-06
-5.15036e-09
-1.35002e-06
-5.02283e-09
-1.32038e-06
-4.23615e-09
-1.2709e-06
-2.8683e-09
-1.19072e-06
-1.24304e-09
-1.06366e-06
-7.92045e-07
1.30132e-09
-7.93737e-07
3.01029e-09
-1.0655e-06
4.43657e-09
-1.19219e-06
5.2698e-09
-1.27164e-06
5.42622e-09
-1.32028e-06
5.00272e-09
-1.34925e-06
4.14251e-09
-1.36625e-06
2.98057e-09
-1.37614e-06
1.62801e-09
-1.38167e-06
1.80674e-10
-1.38419e-06
-1.27914e-09
-1.38426e-06
-2.66076e-09
-1.38186e-06
-3.86987e-09
-1.37643e-06
-4.78271e-09
-1.36657e-06
-5.2504e-09
-1.34955e-06
-5.13196e-09
-1.32049e-06
-4.33853e-09
-1.27168e-06
-2.95799e-09
-1.19209e-06
-1.31448e-09
-1.06529e-06
-7.93358e-07
1.40266e-09
-7.95128e-07
3.12371e-09
-1.06721e-06
4.59659e-09
-1.19366e-06
5.46619e-09
-1.2725e-06
5.62331e-09
-1.32043e-06
5.17709e-09
-1.3488e-06
4.28381e-09
-1.36535e-06
3.08196e-09
-1.37494e-06
1.68189e-09
-1.38027e-06
1.85025e-10
-1.38269e-06
-1.32532e-09
-1.38275e-06
-2.7538e-09
-1.38043e-06
-4.00286e-09
-1.37517e-06
-4.9472e-09
-1.36562e-06
-5.43829e-09
-1.34905e-06
-5.33092e-09
-1.32059e-06
-4.51584e-09
-1.27249e-06
-3.10014e-09
-1.19349e-06
-1.441e-09
-1.06695e-06
-7.94798e-07
1.35375e-09
-7.96471e-07
3.18769e-09
-1.06903e-06
4.73846e-09
-1.1952e-06
5.66351e-09
-1.27342e-06
5.83738e-09
-1.3206e-06
5.37342e-09
-1.34833e-06
4.44373e-09
-1.36442e-06
3.19e-09
-1.37368e-06
1.73206e-09
-1.37881e-06
1.68916e-10
-1.38113e-06
-1.40366e-09
-1.38117e-06
-2.89852e-09
-1.37893e-06
-4.20397e-09
-1.37386e-06
-5.19422e-09
-1.36463e-06
-5.7124e-09
-1.34852e-06
-5.59988e-09
-1.3207e-06
-4.72891e-09
-1.27336e-06
-3.2167e-09
-1.195e-06
-1.44166e-09
-1.06872e-06
-7.96239e-07
1.36564e-09
-7.97828e-07
3.30296e-09
-1.07096e-06
4.87808e-09
-1.19677e-06
5.7865e-09
-1.27432e-06
5.94201e-09
-1.32075e-06
5.45719e-09
-1.34784e-06
4.50871e-09
-1.36346e-06
3.23006e-09
-1.3724e-06
1.74101e-09
-1.37731e-06
1.38116e-10
-1.37952e-06
-1.47618e-09
-1.37955e-06
-3.01546e-09
-1.37739e-06
-4.36316e-09
-1.37251e-06
-5.38856e-09
-1.3636e-06
-5.92758e-09
-1.34798e-06
-5.80735e-09
-1.32081e-06
-4.9041e-09
-1.27426e-06
-3.3098e-09
-1.1966e-06
-1.36041e-09
-1.07066e-06
-7.97598e-07
1.5393e-09
-7.9936e-07
3.45769e-09
-1.07287e-06
5.02671e-09
-1.19833e-06
5.90727e-09
-1.2752e-06
6.04153e-09
-1.32088e-06
5.53703e-09
-1.34733e-06
4.5693e-09
-1.36249e-06
3.27475e-09
-1.3711e-06
1.76441e-09
-1.3758e-06
1.41569e-10
-1.37789e-06
-1.4969e-09
-1.37791e-06
-3.05692e-09
-1.37583e-06
-4.42958e-09
-1.37114e-06
-5.48239e-09
-1.36254e-06
-6.0506e-09
-1.34741e-06
-5.94356e-09
-1.32092e-06
-5.03333e-09
-1.27517e-06
-3.38803e-09
-1.19824e-06
-1.36842e-09
-1.07268e-06
-7.98964e-07
1.65439e-09
-8.01003e-07
3.58347e-09
-1.07479e-06
5.21914e-09
-1.19996e-06
6.14554e-09
-1.27612e-06
6.28667e-09
-1.32102e-06
5.75914e-09
-1.3468e-06
4.74091e-09
-1.36147e-06
3.39674e-09
-1.36975e-06
1.83733e-09
-1.37424e-06
1.76182e-10
-1.37623e-06
-1.49915e-09
-1.37623e-06
-3.08216e-09
-1.37424e-06
-4.47368e-09
-1.36974e-06
-5.54008e-09
-1.36147e-06
-6.12403e-09
-1.34682e-06
-6.03293e-09
-1.321e-06
-5.12365e-09
-1.27607e-06
-3.47453e-09
-1.19988e-06
-1.4759e-09
-1.07466e-06
-8.00438e-07
1.57767e-09
-8.02567e-07
3.67501e-09
-1.07687e-06
5.41775e-09
-1.2017e-06
6.39486e-09
-1.27709e-06
6.53646e-09
-1.32115e-06
5.97595e-09
-1.34623e-06
4.90469e-09
-1.36039e-06
3.49888e-09
-1.36834e-06
1.88452e-09
-1.37262e-06
1.68709e-10
-1.37451e-06
-1.55569e-09
-1.3745e-06
-3.18432e-09
-1.3726e-06
-4.61593e-09
-1.36831e-06
-5.71877e-09
-1.36036e-06
-6.33624e-09
-1.3462e-06
-6.25847e-09
-1.32108e-06
-5.31762e-09
-1.277e-06
-3.62233e-09
-1.20156e-06
-1.64043e-09
-1.07663e-06
-8.02075e-07
1.57625e-09
-8.04132e-07
3.78202e-09
-1.07907e-06
5.56253e-09
-1.20347e-06
6.53915e-09
-1.27806e-06
6.66708e-09
-1.32127e-06
6.073e-09
-1.34563e-06
4.96896e-09
-1.35928e-06
3.52398e-09
-1.36689e-06
1.86866e-09
-1.37096e-06
1.02606e-10
-1.37274e-06
-1.67224e-09
-1.37272e-06
-3.35926e-09
-1.37091e-06
-4.84393e-09
-1.36682e-06
-5.9968e-09
-1.3592e-06
-6.64397e-09
-1.34555e-06
-6.55722e-09
-1.32116e-06
-5.56058e-09
-1.27799e-06
-3.76708e-09
-1.20334e-06
-1.65625e-09
-1.07873e-06
-8.03729e-07
1.69186e-09
-8.05818e-07
3.88204e-09
-1.08125e-06
5.71683e-09
-1.2053e-06
6.73195e-09
-1.27907e-06
6.8513e-09
-1.32139e-06
6.21748e-09
-1.345e-06
5.05955e-09
-1.35812e-06
3.56538e-09
-1.3654e-06
1.86035e-09
-1.36925e-06
4.3663e-11
-1.37092e-06
-1.78169e-09
-1.3709e-06
-3.52431e-09
-1.36917e-06
-5.05961e-09
-1.36528e-06
-6.26046e-09
-1.358e-06
-6.93493e-09
-1.34487e-06
-6.84889e-09
-1.32124e-06
-5.81766e-09
-1.27901e-06
-3.93185e-09
-1.20521e-06
-1.63989e-09
-1.08101e-06
-8.05368e-07
1.72553e-09
-8.07538e-07
4.00543e-09
-1.08352e-06
5.92972e-09
-1.20722e-06
6.9901e-09
-1.28012e-06
7.08585e-09
-1.32149e-06
6.41011e-09
-1.34432e-06
5.19512e-09
-1.35691e-06
3.63982e-09
-1.36384e-06
1.87832e-09
-1.36749e-06
8.6109e-12
-1.36905e-06
-1.86463e-09
-1.36902e-06
-3.65586e-09
-1.36739e-06
-5.23618e-09
-1.36369e-06
-6.48521e-09
-1.35676e-06
-7.19516e-09
-1.34415e-06
-7.12523e-09
-1.3213e-06
-6.06811e-09
-1.28006e-06
-4.09549e-09
-1.20718e-06
-1.67462e-09
-1.08343e-06
-8.07044e-07
1.76282e-09
-8.09298e-07
4.18536e-09
-1.08593e-06
6.18005e-09
-1.20921e-06
7.25551e-09
-1.28119e-06
7.32466e-09
-1.32156e-06
6.60797e-09
-1.3436e-06
5.3433e-09
-1.35565e-06
3.72601e-09
-1.36223e-06
1.90437e-09
-1.36567e-06
-2.50771e-11
-1.36713e-06
-1.955e-09
-1.36709e-06
-3.79994e-09
-1.36555e-06
-5.42837e-09
-1.36206e-06
-6.71648e-09
-1.35548e-06
-7.45261e-09
-1.34341e-06
-7.384e-09
-1.32137e-06
-6.2993e-09
-1.28114e-06
-4.25771e-09
-1.20923e-06
-1.73782e-09
-1.08596e-06
-8.08783e-07
1.78888e-09
-8.11086e-07
4.34383e-09
-1.08848e-06
6.46496e-09
-1.21134e-06
7.60058e-09
-1.28232e-06
7.66519e-09
-1.32162e-06