/*--------------------------------*- C++ -*----------------------------------*\
  =========                 |
  \\      /  F ield         | OpenFOAM: The Open Source CFD Toolbox
   \\    /   O peration     | Website:  https://openfoam.org
    \\  /    A nd           | Version:  6
     \\/     M anipulation  |
\*---------------------------------------------------------------------------*/
FoamFile
{
    version     2.0;
    format      ascii;
    class       surfaceScalarField;
    location    "25";
    object      phi;
}
// * * * * * * * * * * * * * * * * * * * * * * * * * * * * * * * * * * * * * //

dimensions      [0 3 -1 0 0 0 0];

internalField   nonuniform List<scalar> 
258600
(
-9.53737e-09
-8.53759e-08
9.22952e-09
-9.83096e-09
-9.13227e-08
-1.00955e-08
-9.71187e-08
-1.03337e-08
-1.02742e-07
-1.05474e-08
-1.08164e-07
-1.07387e-08
-1.13357e-07
-1.09098e-08
-1.18296e-07
-1.10629e-08
-1.2296e-07
-1.12002e-08
-1.27331e-07
-1.13235e-08
-1.31395e-07
-1.14346e-08
-1.35143e-07
-1.15351e-08
-1.3857e-07
-1.16265e-08
-1.41675e-07
-1.17101e-08
-1.44464e-07
-1.17868e-08
-1.46945e-07
-1.18577e-08
-1.49131e-07
-1.19235e-08
-1.51036e-07
-1.19847e-08
-1.52679e-07
-1.20419e-08
-1.54081e-07
-1.55264e-07
-1.20957e-08
-1.02749e-08
-8.51472e-08
1.00462e-08
-1.04987e-08
-9.10985e-08
-1.07116e-08
-9.69056e-08
-1.09093e-08
-1.02545e-07
-1.10902e-08
-1.07983e-07
-1.12545e-08
-1.13193e-07
-1.14028e-08
-1.18148e-07
-1.15364e-08
-1.22827e-07
-1.16566e-08
-1.27211e-07
-1.17651e-08
-1.31287e-07
-1.18633e-08
-1.35045e-07
-1.19529e-08
-1.38481e-07
-1.20347e-08
-1.41594e-07
-1.21104e-08
-1.44389e-07
-1.21804e-08
-1.46876e-07
-1.22459e-08
-1.49066e-07
-1.23072e-08
-1.50975e-07
-1.2365e-08
-1.52622e-07
-1.24197e-08
-1.54027e-07
-1.55213e-07
-1.24721e-08
-1.13827e-08
-8.49679e-08
1.12044e-08
-1.15569e-08
-9.09238e-08
-1.17215e-08
-9.67404e-08
-1.18745e-08
-1.02391e-07
-1.20149e-08
-1.07842e-07
-1.21429e-08
-1.13065e-07
-1.22588e-08
-1.18032e-07
-1.23638e-08
-1.22722e-07
-1.24588e-08
-1.27116e-07
-1.25452e-08
-1.31201e-07
-1.26241e-08
-1.34966e-07
-1.26969e-08
-1.38408e-07
-1.27643e-08
-1.41527e-07
-1.28275e-08
-1.44326e-07
-1.28871e-08
-1.46816e-07
-1.29439e-08
-1.49009e-07
-1.29982e-08
-1.50921e-07
-1.30508e-08
-1.52569e-07
-1.31015e-08
-1.53976e-07
-1.55163e-07
-1.31514e-08
-1.29021e-08
-8.48662e-08
1.28006e-08
-1.30031e-08
-9.08223e-08
-1.31002e-08
-9.66427e-08
-1.31922e-08
-1.02299e-07
-1.32774e-08
-1.07757e-07
-1.33561e-08
-1.12986e-07
-1.34279e-08
-1.1796e-07
-1.34936e-08
-1.22657e-07
-1.35536e-08
-1.27056e-07
-1.36091e-08
-1.31146e-07
-1.36604e-08
-1.34915e-07
-1.37091e-08
-1.3836e-07
-1.37552e-08
-1.41481e-07
-1.38001e-08
-1.44282e-07
-1.38437e-08
-1.46773e-07
-1.3887e-08
-1.48966e-07
-1.39298e-08
-1.50878e-07
-1.39731e-08
-1.52527e-07
-1.4016e-08
-1.53934e-07
-1.5512e-07
-1.40599e-08
-1.46679e-08
-8.48281e-08
1.46311e-08
-1.47035e-08
-9.07858e-08
-1.47363e-08
-9.66087e-08
-1.47669e-08
-1.02268e-07
-1.47944e-08
-1.07729e-07
-1.48195e-08
-1.12961e-07
-1.48419e-08
-1.17938e-07
-1.48627e-08
-1.22636e-07
-1.48816e-08
-1.27037e-07
-1.49001e-08
-1.31128e-07
-1.4918e-08
-1.34897e-07
-1.49368e-08
-1.38342e-07
-1.49562e-08
-1.41461e-07
-1.49774e-08
-1.44261e-07
-1.50001e-08
-1.46751e-07
-1.50252e-08
-1.48942e-07
-1.5052e-08
-1.50852e-07
-1.50814e-08
-1.52498e-07
-1.51124e-08
-1.53903e-07
-1.55087e-07
-1.51461e-08
-1.66149e-08
-8.4851e-08
1.6639e-08
-1.6588e-08
-9.08114e-08
-1.65589e-08
-9.66363e-08
-1.65294e-08
-1.02297e-07
-1.64995e-08
-1.07758e-07
-1.64703e-08
-1.1299e-07
-1.64417e-08
-1.17966e-07
-1.6415e-08
-1.22663e-07
-1.63899e-08
-1.27062e-07
-1.63678e-08
-1.3115e-07
-1.63486e-08
-1.34917e-07
-1.63335e-08
-1.38357e-07
-1.63222e-08
-1.41473e-07
-1.63157e-08
-1.44269e-07
-1.63132e-08
-1.46753e-07
-1.63159e-08
-1.4894e-07
-1.63226e-08
-1.50845e-07
-1.63341e-08
-1.52488e-07
-1.63491e-08
-1.53889e-07
-1.55069e-07
-1.63686e-08
-1.86693e-08
-8.49241e-08
1.8746e-08
-1.85886e-08
-9.08901e-08
-1.85047e-08
-9.67181e-08
-1.84208e-08
-1.02379e-07
-1.83373e-08
-1.0784e-07
-1.82563e-08
-1.1307e-07
-1.81779e-08
-1.18044e-07
-1.81038e-08
-1.22737e-07
-1.8034e-08
-1.27132e-07
-1.79702e-08
-1.31215e-07
-1.79119e-08
-1.34975e-07
-1.78606e-08
-1.38409e-07
-1.78157e-08
-1.41518e-07
-1.77784e-08
-1.44307e-07
-1.77477e-08
-1.46785e-07
-1.77245e-08
-1.48964e-07
-1.77075e-08
-1.50863e-07
-1.76976e-08
-1.52499e-07
-1.76931e-08
-1.53893e-07
-1.55068e-07
-1.76949e-08
-2.07924e-08
-8.5042e-08
2.09123e-08
-2.06653e-08
-9.10163e-08
-2.05332e-08
-9.68489e-08
-2.04002e-08
-1.02512e-07
-2.02676e-08
-1.07972e-07
-2.0138e-08
-1.132e-07
-2.00122e-08
-1.1817e-07
-1.98922e-08
-1.22858e-07
-1.97784e-08
-1.27246e-07
-1.96725e-08
-1.31321e-07
-1.95744e-08
-1.35074e-07
-1.94856e-08
-1.38499e-07
-1.94055e-08
-1.41599e-07
-1.93353e-08
-1.44378e-07
-1.92738e-08
-1.46847e-07
-1.92222e-08
-1.49017e-07
-1.91788e-08
-1.50907e-07
-1.91445e-08
-1.52534e-07
-1.91173e-08
-1.53921e-07
-1.55089e-07
-1.90984e-08
-2.29578e-08
-8.51997e-08
2.31159e-08
-2.27893e-08
-9.11844e-08
-2.26143e-08
-9.70234e-08
-2.2437e-08
-1.02689e-07
-2.22595e-08
-1.08149e-07
-2.20848e-08
-1.13375e-07
-2.19143e-08
-1.1834e-07
-2.17503e-08
-1.23022e-07
-2.15938e-08
-1.27403e-07
-2.14465e-08
-1.31469e-07
-2.13087e-08
-1.35212e-07
-2.1182e-08
-1.38627e-07
-2.10658e-08
-1.41716e-07
-2.09614e-08
-1.44484e-07
-2.08677e-08
-1.46941e-07
-2.07857e-08
-1.491e-07
-2.07138e-08
-1.50979e-07
-2.06528e-08
-1.52597e-07
-2.06007e-08
-1.53974e-07
-1.55132e-07
-2.05586e-08
-2.51417e-08
-8.53894e-08
2.53311e-08
-2.49383e-08
-9.13882e-08
-2.47259e-08
-9.72362e-08
-2.45088e-08
-1.02907e-07
-2.42904e-08
-1.08368e-07
-2.40739e-08
-1.13592e-07
-2.38615e-08
-1.18553e-07
-2.36559e-08
-1.23229e-07
-2.34582e-08
-1.27601e-07
-2.32707e-08
-1.31658e-07
-2.30938e-08
-1.35389e-07
-2.29292e-08
-1.38793e-07
-2.27766e-08
-1.41869e-07
-2.26374e-08
-1.44624e-07
-2.25104e-08
-1.47069e-07
-2.23968e-08
-1.49216e-07
-2.22948e-08
-1.51082e-07
-2.22055e-08
-1.52688e-07
-2.21264e-08
-1.54054e-07
-1.55201e-07
-2.20591e-08
-2.7343e-08
-8.5611e-08
2.75636e-08
-2.71055e-08
-9.16263e-08
-2.68574e-08
-9.7485e-08
-2.6603e-08
-1.03162e-07
-2.63462e-08
-1.08626e-07
-2.60904e-08
-1.13849e-07
-2.58384e-08
-1.18806e-07
-2.55928e-08
-1.23475e-07
-2.53556e-08
-1.27839e-07
-2.51289e-08
-1.31886e-07
-2.49136e-08
-1.35605e-07
-2.47116e-08
-1.38996e-07
-2.45226e-08
-1.42059e-07
-2.43482e-08
-1.448e-07
-2.41873e-08
-1.4723e-07
-2.40411e-08
-1.49363e-07
-2.39079e-08
-1.51216e-07
-2.37888e-08
-1.52809e-07
-2.36815e-08
-1.54162e-07
-1.55297e-07
-2.35873e-08
-2.95415e-08
-8.58583e-08
2.97871e-08
-2.92757e-08
-9.18938e-08
-2.89964e-08
-9.7766e-08
-2.87082e-08
-1.03451e-07
-2.84159e-08
-1.08919e-07
-2.81232e-08
-1.14143e-07
-2.78335e-08
-1.19097e-07
-2.75497e-08
-1.2376e-07
-2.72742e-08
-1.28116e-07
-2.70094e-08
-1.32152e-07
-2.67564e-08
-1.3586e-07
-2.65172e-08
-1.39237e-07
-2.6292e-08
-1.42285e-07
-2.60822e-08
-1.45012e-07
-2.58869e-08
-1.47427e-07
-2.57075e-08
-1.49545e-07
-2.55423e-08
-1.51383e-07
-2.53923e-08
-1.52961e-07
-2.52554e-08
-1.543e-07
-1.55422e-07
-2.51329e-08
-3.17465e-08
-8.61331e-08
3.20176e-08
-3.14516e-08
-9.21908e-08
-3.11414e-08
-9.80786e-08
-3.08203e-08
-1.03774e-07
-3.04938e-08
-1.09248e-07
-3.01654e-08
-1.14472e-07
-2.98393e-08
-1.19424e-07
-2.95184e-08
-1.24082e-07
-2.92057e-08
-1.2843e-07
-2.89034e-08
-1.32455e-07
-2.86133e-08
-1.36151e-07
-2.83373e-08
-1.39515e-07
-2.80759e-08
-1.42548e-07
-2.78304e-08
-1.45259e-07
-2.76005e-08
-1.47658e-07
-2.73872e-08
-1.4976e-07
-2.71892e-08
-1.51582e-07
-2.70075e-08
-1.53145e-07
-2.684e-08
-1.54469e-07
-1.55576e-07
-2.6688e-08
-3.39479e-08
-8.6432e-08
3.42432e-08
-3.3626e-08
-9.25147e-08
-3.32866e-08
-9.84205e-08
-3.2934e-08
-1.04128e-07
-3.25745e-08
-1.09609e-07
-3.22116e-08
-1.14837e-07
-3.18501e-08
-1.19788e-07
-3.1493e-08
-1.24441e-07
-3.11437e-08
-1.28781e-07
-3.08046e-08
-1.32796e-07
-3.04778e-08
-1.3648e-07
-3.0165e-08
-1.39829e-07
-2.98674e-08
-1.42848e-07
-2.95861e-08
-1.45543e-07
-2.93211e-08
-1.47925e-07
-2.90734e-08
-1.5001e-07
-2.88419e-08
-1.51816e-07
-2.86275e-08
-1.53362e-07
-2.84284e-08
-1.5467e-07
-1.55762e-07
-2.82459e-08
-3.61491e-08
-8.67545e-08
3.64698e-08
-3.58e-08
-9.2865e-08
-3.54314e-08
-9.87911e-08
-3.50478e-08
-1.04513e-07
-3.46558e-08
-1.10003e-07
-3.4259e-08
-1.15235e-07
-3.38626e-08
-1.20186e-07
-3.34697e-08
-1.24836e-07
-3.30842e-08
-1.29169e-07
-3.27084e-08
-1.33174e-07
-3.23448e-08
-1.36845e-07
-3.19954e-08
-1.40181e-07
-3.16613e-08
-1.43184e-07
-3.13438e-08
-1.45862e-07
-3.10433e-08
-1.48228e-07
-3.07605e-08
-1.50296e-07
-3.04947e-08
-1.52084e-07
-3.02469e-08
-1.53612e-07
-3.00153e-08
-1.54903e-07
-1.55979e-07
-2.98011e-08
-3.83494e-08
-8.71016e-08
3.86946e-08
-3.79733e-08
-9.32423e-08
-3.75757e-08
-9.9191e-08
-3.71612e-08
-1.04929e-07
-3.67368e-08
-1.1043e-07
-3.63061e-08
-1.15668e-07
-3.58748e-08
-1.20619e-07
-3.54461e-08
-1.25266e-07
-3.50242e-08
-1.29593e-07
-3.46116e-08
-1.33589e-07
-3.42111e-08
-1.37248e-07
-3.38245e-08
-1.4057e-07
-3.34535e-08
-1.43557e-07
-3.30994e-08
-1.46219e-07
-3.27625e-08
-1.48567e-07
-3.2444e-08
-1.50617e-07
-3.21431e-08
-1.52387e-07
-3.18609e-08
-1.53898e-07
-3.15957e-08
-1.55171e-07
-1.56229e-07
-3.13489e-08
-4.05443e-08
-8.74715e-08
4.09123e-08
-4.01431e-08
-9.36452e-08
-3.97174e-08
-9.96192e-08
-3.92724e-08
-1.05376e-07
-3.88156e-08
-1.10889e-07
-3.8351e-08
-1.16134e-07
-3.78847e-08
-1.21088e-07
-3.74199e-08
-1.25733e-07
-3.69613e-08
-1.30054e-07
-3.65114e-08
-1.34041e-07
-3.60734e-08
-1.37689e-07
-3.56492e-08
-1.40996e-07
-3.52407e-08
-1.43968e-07
-3.48491e-08
-1.46613e-07
-3.44753e-08
-1.48944e-07
-3.41201e-08
-1.50975e-07
-3.37832e-08
-1.52727e-07
-3.34655e-08
-1.54219e-07
-3.31658e-08
-1.55473e-07
-1.56513e-07
-3.28852e-08
-4.27431e-08
-8.78677e-08
4.31352e-08
-4.23141e-08
-9.40765e-08
-4.18587e-08
-1.00078e-07
-4.13819e-08
-1.05855e-07
-4.0892e-08
-1.11382e-07
-4.03927e-08
-1.16635e-07
-3.98908e-08
-1.21593e-07
-3.93892e-08
-1.26237e-07
-3.88934e-08
-1.30553e-07
-3.84055e-08
-1.34531e-07
-3.79294e-08
-1.38168e-07
-3.74668e-08
-1.41462e-07
-3.70199e-08
-1.44418e-07
-3.65901e-08
-1.47046e-07
-3.61782e-08
-1.49359e-07
-3.57853e-08
-1.51371e-07
-3.54113e-08
-1.53104e-07
-3.50571e-08
-1.54576e-07
-3.47216e-08
-1.55812e-07
-1.56832e-07
-3.44059e-08
-4.49359e-08
-8.8287e-08
4.53523e-08
-4.44801e-08
-9.4534e-08
-4.39954e-08
-1.00565e-07
-4.34871e-08
-1.06365e-07
-4.29637e-08
-1.11908e-07
-4.24295e-08
-1.17172e-07
-4.18914e-08
-1.22134e-07
-4.13526e-08
-1.26778e-07
-4.08188e-08
-1.3109e-07
-4.02922e-08
-1.3506e-07
-3.97771e-08
-1.38686e-07
-3.9275e-08
-1.41967e-07
-3.87888e-08
-1.44908e-07
-3.83195e-08
-1.47519e-07
-3.78686e-08
-1.49813e-07
-3.74368e-08
-1.51806e-07
-3.70245e-08
-1.53519e-07
-3.66323e-08
-1.54972e-07
-3.62598e-08
-1.56187e-07
-1.57187e-07
-3.59078e-08
-4.71321e-08
-8.87329e-08
4.75756e-08
-4.66472e-08
-9.50206e-08
-4.61313e-08
-1.01084e-07
-4.559e-08
-1.06909e-07
-4.50321e-08
-1.12469e-07
-4.44618e-08
-1.17744e-07
-4.38865e-08
-1.22712e-07
-4.33094e-08
-1.27357e-07
-4.27364e-08
-1.31666e-07
-4.217e-08
-1.3563e-07
-4.16146e-08
-1.39245e-07
-4.1072e-08
-1.42512e-07
-4.0545e-08
-1.45438e-07
-4.0035e-08
-1.48032e-07
-3.95436e-08
-1.50308e-07
-3.90715e-08
-1.52282e-07
-3.86194e-08
-1.53975e-07
-3.8188e-08
-1.55407e-07
-3.77769e-08
-1.56602e-07
-1.57581e-07
-3.73871e-08
-4.93241e-08
-8.92036e-08
4.97925e-08
-4.88114e-08
-9.55353e-08
-4.82647e-08
-1.01634e-07
-4.76901e-08
-1.07485e-07
-4.70968e-08
-1.13066e-07
-4.64893e-08
-1.18354e-07
-4.58756e-08
-1.2333e-07
-4.52589e-08
-1.27977e-07
-4.46454e-08
-1.32283e-07
-4.40378e-08
-1.3624e-07
-4.34407e-08
-1.39845e-07
-4.2856e-08
-1.431e-07
-4.22869e-08
-1.46011e-07
-4.17346e-08
-1.48587e-07
-4.12011e-08
-1.50844e-07
-4.06872e-08
-1.52799e-07
-4.01937e-08
-1.54471e-07
-3.97214e-08
-1.55883e-07
-3.92702e-08
-1.57056e-07
-1.58014e-07
-3.88409e-08
-5.1522e-08
-8.97033e-08
5.2017e-08
-5.09785e-08
-9.60815e-08
-5.03988e-08
-1.02217e-07
-4.97888e-08
-1.08098e-07
-4.91583e-08
-1.137e-07
-4.8512e-08
-1.19003e-07
-4.78582e-08
-1.23987e-07
-4.72002e-08
-1.28637e-07
-4.65447e-08
-1.32942e-07
-4.58942e-08
-1.36894e-07
-4.52538e-08
-1.40489e-07
-4.46252e-08
-1.43732e-07
-4.40122e-08
-1.46627e-07
-4.34159e-08
-1.49187e-07
-4.28385e-08
-1.51426e-07
-4.22809e-08
-1.5336e-07
-4.17442e-08
-1.55012e-07
-4.12292e-08
-1.56402e-07
-4.0736e-08
-1.57553e-07
-1.58488e-07
-4.02655e-08
-5.37168e-08
-9.02297e-08
5.42394e-08
-5.31429e-08
-9.66578e-08
-5.25297e-08
-1.02834e-07
-5.18837e-08
-1.08747e-07
-5.12151e-08
-1.14372e-07
-5.05288e-08
-1.19692e-07
-4.98334e-08
-1.24686e-07
-4.91326e-08
-1.29341e-07
-4.84334e-08
-1.33645e-07
-4.77382e-08
-1.37592e-07
-4.70526e-08
-1.41179e-07
-4.63784e-08
-1.44409e-07
-4.57196e-08
-1.4729e-07
-4.50772e-08
-1.49833e-07
-4.4454e-08
-1.52053e-07
-4.38507e-08
-1.53967e-07
-4.32689e-08
-1.55597e-07
-4.27091e-08
-1.56965e-07
-4.2172e-08
-1.58093e-07
-1.59005e-07
-4.16584e-08
-5.59185e-08
-9.0787e-08
5.64721e-08
-5.53109e-08
-9.72679e-08
-5.46618e-08
-1.03487e-07
-5.39776e-08
-1.09433e-07
-5.32688e-08
-1.15085e-07
-5.25404e-08
-1.20423e-07
-5.18015e-08
-1.25429e-07
-5.10559e-08
-1.3009e-07
-5.03108e-08
-1.34394e-07
-4.9569e-08
-1.38336e-07
-4.88361e-08
-1.41915e-07
-4.81141e-08
-1.45134e-07
-4.74071e-08
-1.48001e-07
-4.67166e-08
-1.50527e-07
-4.60452e-08
-1.52728e-07
-4.5394e-08
-1.54622e-07
-4.47647e-08
-1.5623e-07
-4.4158e-08
-1.57575e-07
-4.35747e-08
-1.5868e-07
-1.59568e-07
-4.30157e-08
-5.81192e-08
-9.13735e-08
5.87023e-08
-5.74787e-08
-9.79111e-08
-5.67932e-08
-1.04176e-07
-5.60697e-08
-1.1016e-07
-5.53191e-08
-1.1584e-07
-5.45469e-08
-1.21198e-07
-5.37624e-08
-1.26217e-07
-5.29697e-08
-1.30885e-07
-5.21764e-08
-1.35191e-07
-5.13855e-08
-1.3913e-07
-5.0603e-08
-1.42702e-07
-4.98307e-08
-1.4591e-07
-4.90733e-08
-1.48762e-07
-4.8332e-08
-1.51271e-07
-4.76102e-08
-1.53453e-07
-4.69086e-08
-1.55327e-07
-4.62294e-08
-1.56913e-07
-4.55734e-08
-1.58235e-07
-4.49416e-08
-1.59316e-07
-1.60178e-07
-4.43349e-08
-6.03307e-08
-9.19942e-08
6.09458e-08
-5.96533e-08
-9.85916e-08
-5.89282e-08
-1.04906e-07
-5.81623e-08
-1.10929e-07
-5.73672e-08
-1.16639e-07
-5.65484e-08
-1.22019e-07
-5.57158e-08
-1.27054e-07
-5.48734e-08
-1.3173e-07
-5.40294e-08
-1.36039e-07
-5.31868e-08
-1.39976e-07
-5.23519e-08
-1.43541e-07
-5.15267e-08
-1.46738e-07
-5.07161e-08
-1.49577e-07
-4.99215e-08
-1.52069e-07
-4.91463e-08
-1.54232e-07
-4.83918e-08
-1.56085e-07
-4.766e-08
-1.57649e-07
-4.69519e-08
-1.58947e-07
-4.62689e-08
-1.60002e-07
-1.60839e-07
-4.56118e-08
-6.25417e-08
-9.26469e-08
6.31901e-08
-6.18276e-08
-9.93086e-08
-6.1062e-08
-1.05676e-07
-6.02524e-08
-1.11741e-07
-5.94111e-08
-1.17484e-07
-5.85437e-08
-1.22889e-07
-5.76606e-08
-1.27941e-07
-5.67662e-08
-1.32627e-07
-5.58688e-08
-1.3694e-07
-5.49717e-08
-1.40876e-07
-5.40815e-08
-1.44435e-07
-5.32005e-08
-1.47622e-07
-5.23338e-08
-1.50447e-07
-5.14829e-08
-1.52923e-07
-5.06516e-08
-1.55067e-07
-4.98411e-08
-1.56899e-07
-4.90539e-08
-1.5844e-07
-4.82909e-08
-1.59713e-07
-4.75539e-08
-1.60743e-07
-1.61553e-07
-4.68438e-08
-6.4765e-08
-9.33369e-08
6.54503e-08
-6.40098e-08
-1.00067e-07
-6.32001e-08
-1.0649e-07
-6.23436e-08
-1.126e-07
-6.14529e-08
-1.18379e-07
-6.05339e-08
-1.23811e-07
-5.95974e-08
-1.28881e-07
-5.86478e-08
-1.3358e-07
-5.76939e-08
-1.37898e-07
-5.67391e-08
-1.41833e-07
-5.57905e-08
-1.45387e-07
-5.48504e-08
-1.48565e-07
-5.39243e-08
-1.51377e-07
-5.30139e-08
-1.53837e-07
-5.21231e-08
-1.55962e-07
-5.12534e-08
-1.57772e-07
-5.04075e-08
-1.5929e-07
-4.95865e-08
-1.60538e-07
-4.87923e-08
-1.61541e-07
-1.62323e-07
-4.80261e-08
-6.69907e-08
-9.40631e-08
6.77131e-08
-6.61943e-08
-1.00866e-07
-6.53392e-08
-1.07349e-07
-6.4434e-08
-1.13508e-07
-6.34915e-08
-1.19326e-07
-6.25183e-08
-1.24787e-07
-6.15253e-08
-1.29878e-07
-6.05174e-08
-1.3459e-07
-5.95038e-08
-1.38916e-07
-5.84881e-08
-1.42852e-07
-5.74776e-08
-1.46402e-07
-5.6475e-08
-1.49571e-07
-5.5486e-08
-1.5237e-07
-5.45125e-08
-1.54814e-07
-5.35588e-08
-1.5692e-07
-5.26264e-08
-1.58708e-07
-5.17182e-08
-1.60201e-07
-5.08358e-08
-1.61424e-07
-4.99811e-08
-1.62399e-07
-1.63152e-07
-4.91554e-08
-6.92287e-08
-9.48305e-08
6.99914e-08
-6.83872e-08
-1.0171e-07
-6.74833e-08
-1.08257e-07
-6.65259e-08
-1.14468e-07
-6.55283e-08
-1.20327e-07
-6.44973e-08
-1.25821e-07
-6.34444e-08
-1.30936e-07
-6.23747e-08
-1.35663e-07
-6.12977e-08
-1.39997e-07
-6.02174e-08
-1.43936e-07
-5.91412e-08
-1.47482e-07
-5.80723e-08
-1.50643e-07
-5.70165e-08
-1.5343e-07
-5.59762e-08
-1.55858e-07
-5.49556e-08
-1.57944e-07
-5.39567e-08
-1.59711e-07
-5.29825e-08
-1.6118e-07
-5.20349e-08
-1.62375e-07
-5.11158e-08
-1.63322e-07
-1.64044e-07
-5.02271e-08
-7.14724e-08
-9.5639e-08
7.22766e-08
-7.05846e-08
-1.02601e-07
-6.963e-08
-1.09216e-07
-6.86178e-08
-1.15483e-07
-6.75622e-08
-1.21387e-07
-6.64702e-08
-1.26916e-07
-6.53538e-08
-1.32056e-07
-6.42186e-08
-1.36801e-07
-6.30744e-08
-1.41145e-07
-6.19254e-08
-1.45088e-07
-6.07796e-08
-1.48632e-07
-5.96403e-08
-1.51786e-07
-5.85137e-08
-1.54561e-07
-5.74023e-08
-1.56972e-07
-5.63108e-08
-1.5904e-07
-5.52413e-08
-1.60784e-07
-5.41972e-08
-1.62228e-07
-5.31803e-08
-1.63396e-07
-5.21931e-08
-1.64314e-07
-1.65004e-07
-5.12375e-08
-7.37312e-08
-9.64936e-08
7.45805e-08
-7.27927e-08
-1.03543e-07
-7.17833e-08
-1.1023e-07
-7.07123e-08
-1.16558e-07
-6.95946e-08
-1.2251e-07
-6.84375e-08
-1.28076e-07
-6.72535e-08
-1.33245e-07
-6.60485e-08
-1.3801e-07
-6.48327e-08
-1.42366e-07
-6.36107e-08
-1.46313e-07
-6.23909e-08
-1.49856e-07
-6.11767e-08
-1.53004e-07
-5.99747e-08
-1.55767e-07
-5.87878e-08
-1.58163e-07
-5.76209e-08
-1.60211e-07
-5.64764e-08
-1.61933e-07
-5.53578e-08
-1.63351e-07
-5.42674e-08
-1.64491e-07
-5.32077e-08
-1.65378e-07
-1.66035e-07
-5.21811e-08
-7.59981e-08
-9.73944e-08
7.68941e-08
-7.50075e-08
-1.04537e-07
-7.39407e-08
-1.11302e-07
-7.2808e-08
-1.17694e-07
-7.16245e-08
-1.23698e-07
-7.03985e-08
-1.29305e-07
-6.91427e-08
-1.34505e-07
-6.78635e-08
-1.39292e-07
-6.65716e-08
-1.43662e-07
-6.5272e-08
-1.47617e-07
-6.39733e-08
-1.5116e-07
-6.26794e-08
-1.54301e-07
-6.13973e-08
-1.57054e-07
-6.013e-08
-1.59435e-07
-5.88828e-08
-1.61463e-07
-5.76584e-08
-1.63161e-07
-5.64607e-08
-1.64553e-07
-5.52921e-08
-1.65664e-07
-5.41555e-08
-1.66519e-07
-1.67141e-07
-5.30534e-08
-7.82832e-08
-9.83471e-08
7.923e-08
-7.72355e-08
-1.05589e-07
-7.61067e-08
-1.12436e-07
-7.49075e-08
-1.18897e-07
-7.36537e-08
-1.24957e-07
-7.23539e-08
-1.30609e-07
-7.10215e-08
-1.35843e-07
-6.96632e-08
-1.40654e-07
-6.82902e-08
-1.4504e-07
-6.69078e-08
-1.49003e-07
-6.5525e-08
-1.52547e-07
-6.41463e-08
-1.55684e-07
-6.27786e-08
-1.58426e-07
-6.14257e-08
-1.60792e-07
-6.00929e-08
-1.62801e-07
-5.87835e-08
-1.64475e-07
-5.75014e-08
-1.6584e-07
-5.62496e-08
-1.6692e-07
-5.50309e-08
-1.67742e-07
-1.68329e-07
-5.38485e-08
-8.05796e-08
-9.93521e-08
8.15791e-08
-7.94727e-08
-1.06699e-07
-7.82789e-08
-1.13636e-07
-7.70096e-08
-1.2017e-07
-7.56812e-08
-1.26291e-07
-7.43031e-08
-1.31991e-07
-7.28892e-08
-1.37262e-07
-7.14467e-08
-1.42101e-07
-6.99872e-08
-1.46505e-07
-6.85166e-08
-1.50477e-07
-6.70443e-08
-1.54025e-07
-6.5575e-08
-1.57158e-07
-6.41162e-08
-1.5989e-07
-6.26719e-08
-1.62241e-07
-6.12479e-08
-1.64229e-07
-5.98477e-08
-1.6588e-07
-5.84756e-08
-1.67217e-07
-5.7135e-08
-1.68266e-07
-5.58289e-08
-1.69053e-07
-1.69601e-07
-5.45609e-08
-8.28972e-08
-1.00416e-07
8.39542e-08
-8.17258e-08
-1.07875e-07
-8.04617e-08
-1.14906e-07
-7.91169e-08
-1.21519e-07
-7.77088e-08
-1.27705e-07
-7.62469e-08
-1.33457e-07
-7.47459e-08
-1.38769e-07
-7.32135e-08
-1.43637e-07
-7.16618e-08
-1.48062e-07
-7.0097e-08
-1.52047e-07
-6.8529e-08
-1.55598e-07
-6.6963e-08
-1.58728e-07
-6.54069e-08
-1.61452e-07
-6.38651e-08
-1.63787e-07
-6.23435e-08
-1.65756e-07
-6.08464e-08
-1.67382e-07
-5.93782e-08
-1.6869e-07
-5.79428e-08
-1.69707e-07
-5.65433e-08
-1.70457e-07
-1.70966e-07
-5.5184e-08
-8.52292e-08
-1.01538e-07
8.6346e-08
-8.39908e-08
-1.09118e-07
-8.26529e-08
-1.1625e-07
-8.12285e-08
-1.22948e-07
-7.97356e-08
-1.29204e-07
-7.81847e-08
-1.35012e-07
-7.6591e-08
-1.40368e-07
-7.49627e-08
-1.4527e-07
-7.33125e-08
-1.49718e-07
-7.16472e-08
-1.53716e-07
-6.9977e-08
-1.57274e-07
-6.83078e-08
-1.60402e-07
-6.66477e-08
-1.63117e-07
-6.50016e-08
-1.65438e-07
-6.33759e-08
-1.67387e-07
-6.17752e-08
-1.68988e-07
-6.02042e-08
-1.70266e-07
-5.86674e-08
-1.71249e-07
-5.71683e-08
-1.71961e-07
-1.72428e-07
-5.57113e-08
-8.75866e-08
-1.02727e-07
8.87683e-08
-8.62749e-08
-1.10434e-07
-8.48573e-08
-1.17674e-07
-8.33473e-08
-1.24463e-07
-8.17636e-08
-1.30793e-07
-8.01174e-08
-1.36663e-07
-7.84244e-08
-1.42067e-07
-7.66937e-08
-1.47005e-07
-7.49382e-08
-1.51479e-07
-7.31654e-08
-1.55494e-07
-7.1386e-08
-1.59059e-07
-6.96063e-08
-1.62187e-07
-6.78349e-08
-1.64894e-07
-6.60773e-08
-1.67201e-07
-6.43401e-08
-1.6913e-07
-6.26285e-08
-1.70705e-07
-6.09476e-08
-1.71953e-07
-5.93024e-08
-1.72899e-07
-5.76965e-08
-1.73572e-07
-1.73995e-07
-5.61352e-08
-8.99623e-08
-1.03983e-07
9.12119e-08
-8.85745e-08
-1.11827e-07
-8.70729e-08
-1.19182e-07
-8.54721e-08
-1.26068e-07
-8.3792e-08
-1.3248e-07
-8.20443e-08
-1.38415e-07
-8.02455e-08
-1.43872e-07
-7.84053e-08
-1.4885e-07
-7.65373e-08
-1.53353e-07
-7.46496e-08
-1.57386e-07
-7.27533e-08
-1.60961e-07
-7.08554e-08
-1.6409e-07
-6.89649e-08
-1.6679e-07
-6.70878e-08
-1.69083e-07
-6.52313e-08
-1.70992e-07
-6.3401e-08
-1.72541e-07
-6.16024e-08
-1.73757e-07
-5.98412e-08
-1.74666e-07
-5.81211e-08
-1.75297e-07
-1.75674e-07
-5.64482e-08
-9.23678e-08
-1.05314e-07
9.36909e-08
-9.08968e-08
-1.13303e-07
-8.93046e-08
-1.20781e-07
-8.76064e-08
-1.27771e-07
-8.58228e-08
-1.3427e-07
-8.39664e-08
-1.40277e-07
-8.20543e-08
-1.4579e-07
-8.0097e-08
-1.50813e-07
-7.81085e-08
-1.55348e-07
-7.60977e-08
-1.59402e-07
-7.40763e-08
-1.62988e-07
-7.20517e-08
-1.6612e-07
-7.00335e-08
-1.68814e-07
-6.80284e-08
-1.71094e-07
-6.60439e-08
-1.72982e-07
-6.40864e-08
-1.74504e-07
-6.21617e-08
-1.75687e-07
-6.02761e-08
-1.76558e-07
-5.84336e-08
-1.77145e-07
-1.77473e-07
-5.66412e-08
-9.47961e-08
-1.06722e-07
9.61963e-08
-9.32385e-08
-1.14866e-07
-9.15507e-08
-1.22476e-07
-8.97492e-08
-1.29578e-07
-8.78555e-08
-1.36171e-07
-8.58832e-08
-1.42254e-07
-8.38501e-08
-1.4783e-07
-8.17675e-08
-1.52901e-07
-7.96501e-08
-1.57471e-07
-7.75075e-08
-1.61551e-07
-7.53519e-08
-1.6515e-07
-7.31916e-08
-1.68285e-07
-7.10365e-08
-1.70976e-07
-6.88941e-08
-1.73242e-07
-6.67723e-08
-1.7511e-07
-6.46783e-08
-1.76604e-07
-6.26182e-08
-1.77753e-07
-6.05992e-08
-1.78584e-07
-5.86256e-08
-1.79124e-07
-1.794e-07
-5.6705e-08
-9.72598e-08
-1.08214e-07
9.87436e-08
-9.56079e-08
-1.16524e-07
-9.38169e-08
-1.24274e-07
-9.19043e-08
-1.31497e-07
-8.98925e-08
-1.3819e-07
-8.77959e-08
-1.44356e-07
-8.56332e-08
-1.5e-07
-8.34163e-08
-1.55123e-07
-8.11607e-08
-1.59734e-07
-7.88767e-08
-1.6384e-07
-7.65772e-08
-1.67456e-07
-7.42711e-08
-1.70598e-07
-7.1969e-08
-1.73284e-07
-6.96792e-08
-1.75538e-07
-6.74099e-08
-1.77385e-07
-6.51693e-08
-1.78851e-07
-6.29638e-08
-1.79965e-07
-6.08015e-08
-1.80753e-07
-5.8687e-08
-1.81245e-07
-1.81465e-07
-5.66288e-08
-9.97521e-08
-1.09794e-07
1.01324e-07
-9.80016e-08
-1.1828e-07
-9.61016e-08
-1.26182e-07
-9.40711e-08
-1.33533e-07
-9.19335e-08
-1.40335e-07
-8.97043e-08
-1.46592e-07
-8.74029e-08
-1.52308e-07
-8.50422e-08
-1.5749e-07
-8.26385e-08
-1.62144e-07
-8.02029e-08
-1.66282e-07
-7.77488e-08
-1.69917e-07
-7.52862e-08
-1.73066e-07
-7.28262e-08
-1.75751e-07
-7.03778e-08
-1.77993e-07
-6.79501e-08
-1.79819e-07
-6.55518e-08
-1.81256e-07
-6.319e-08
-1.82333e-07
-6.08736e-08
-1.83076e-07
-5.86076e-08
-1.83517e-07
-1.83678e-07
-5.64016e-08
-1.02286e-07
-1.1147e-07
1.03952e-07
-1.00428e-07
-1.20144e-07
-9.84108e-08
-1.28208e-07
-9.62536e-08
-1.35697e-07
-9.39811e-08
-1.42615e-07
-9.16096e-08
-1.48969e-07
-8.91595e-08
-1.54766e-07
-8.66446e-08
-1.60011e-07
-8.40819e-08
-1.64714e-07
-8.14834e-08
-1.68887e-07
-7.88633e-08
-1.72544e-07
-7.62324e-08
-1.75704e-07
-7.36024e-08
-1.78388e-07
-7.09834e-08
-1.80619e-07
-6.8385e-08
-1.82425e-07
-6.58169e-08
-1.83832e-07
-6.32868e-08
-1.84869e-07
-6.08045e-08
-1.85567e-07
-5.83755e-08
-1.85952e-07
-1.86051e-07
-5.60104e-08
-1.04855e-07
-1.13245e-07
1.06621e-07
-1.02885e-07
-1.22121e-07
-1.00743e-07
-1.30358e-07
-9.84516e-08
-1.37995e-07
-9.60354e-08
-1.4504e-07
-9.35119e-08
-1.51499e-07
-9.09027e-08
-1.57383e-07
-8.82224e-08
-1.62698e-07
-8.54891e-08
-1.67455e-07
-8.27156e-08
-1.71667e-07
-7.99169e-08
-1.7535e-07
-7.71048e-08
-1.78523e-07
-7.42918e-08
-1.81208e-07
-7.1489e-08
-1.83429e-07
-6.87066e-08
-1.85214e-07
-6.59555e-08
-1.8659e-07
-6.32439e-08
-1.87588e-07
-6.05827e-08
-1.88236e-07
-5.79781e-08
-1.88563e-07
-1.88595e-07
-5.54417e-08
-1.07473e-07
-1.15129e-07
1.09346e-07
-1.05381e-07
-1.2422e-07
-1.03106e-07
-1.32642e-07
-1.0067e-07
-1.40439e-07
-9.80995e-08
-1.47619e-07
-9.5413e-08
-1.54193e-07
-9.2633e-08
-1.60171e-07
-8.97752e-08
-1.65563e-07
-8.68584e-08
-1.7038e-07
-8.38965e-08
-1.74637e-07
-8.09055e-08
-1.78349e-07
-7.78981e-08
-1.81538e-07
-7.48877e-08
-1.84226e-07
-7.18866e-08
-1.86438e-07
-6.89056e-08
-1.88202e-07
-6.59569e-08
-1.89547e-07
-6.30493e-08
-1.90503e-07
-6.0195e-08
-1.91098e-07
-5.74008e-08
-1.91364e-07
-1.91325e-07
-5.46794e-08
-1.10134e-07
-1.17125e-07
1.1212e-07
-1.07915e-07
-1.26447e-07
-1.05499e-07
-1.35067e-07
-1.02909e-07
-1.43036e-07
-1.00174e-07
-1.50363e-07
-9.73133e-08
-1.57061e-07
-9.43504e-08
-1.63143e-07
-9.13018e-08
-1.68619e-07
-8.81878e-08
-1.73503e-07
-8.50231e-08
-1.77809e-07
-8.18247e-08
-1.81556e-07
-7.86067e-08
-1.84764e-07
-7.53832e-08
-1.87458e-07
-7.21676e-08
-1.89662e-07
-6.8972e-08
-1.91406e-07
-6.58095e-08
-1.92718e-07
-6.26901e-08
-1.9363e-07
-5.9627e-08
-1.9417e-07
-5.66278e-08
-1.9437e-07
-1.94255e-07
-5.37068e-08
-1.12852e-07
-1.19245e-07
1.1496e-07
-1.10496e-07
-1.28811e-07
-1.07928e-07
-1.37644e-07
-1.05174e-07
-1.45798e-07
-1.02263e-07
-1.53283e-07
-9.92151e-08
-1.60117e-07
-9.60556e-08
-1.66312e-07
-9.2802e-08
-1.71881e-07
-8.94755e-08
-1.76838e-07
-8.6092e-08
-1.81201e-07
-8.26698e-08
-1.84987e-07
-7.92239e-08
-1.88219e-07
-7.57698e-08
-1.9092e-07
-7.23222e-08
-1.93119e-07
-6.88941e-08
-1.94842e-07
-6.55001e-08
-1.96121e-07
-6.2151e-08
-1.96987e-07
-5.88618e-08
-1.97469e-07
-5.56407e-08
-1.97599e-07
-1.97403e-07
-5.25035e-08
-1.15624e-07
-1.21491e-07
1.17859e-07
-1.13123e-07
-1.31321e-07
-1.10395e-07
-1.40382e-07
-1.07466e-07
-1.48735e-07
-1.04367e-07
-1.56392e-07
-1.01119e-07
-1.63373e-07
-9.77489e-08
-1.69692e-07
-9.42746e-08
-1.75363e-07
-9.07192e-08
-1.80403e-07
-8.70995e-08
-1.84829e-07
-8.34352e-08
-1.8866e-07
-7.97426e-08
-1.9192e-07
-7.60387e-08
-1.94633e-07
-7.23392e-08
-1.96827e-07
-6.86589e-08
-1.98531e-07
-6.50135e-08
-1.99776e-07
-6.14154e-08
-2.00593e-07
-5.78807e-08
-2.01014e-07
-5.4419e-08
-2.01069e-07
-2.00784e-07
-5.10476e-08
-1.18463e-07
-1.23876e-07
1.20835e-07
-1.15807e-07
-1.33985e-07
-1.12908e-07
-1.43293e-07
-1.09792e-07
-1.5186e-07
-1.06491e-07
-1.59704e-07
-1.03029e-07
-1.66845e-07
-9.94314e-08
-1.73299e-07
-9.57193e-08
-1.79084e-07
-9.19165e-08
-1.84216e-07
-8.80412e-08
-1.88713e-07
-8.41146e-08
-1.92597e-07
-8.01542e-08
-1.9589e-07
-7.61787e-08
-1.98619e-07
-7.22056e-08
-2.00811e-07
-6.82507e-08
-2.02496e-07
-6.43321e-08
-2.03706e-07
-6.04629e-08
-2.04472e-07
-5.66615e-08
-2.04827e-07
-5.29383e-08
-2.04801e-07
-2.04421e-07
-4.93127e-08
-1.21367e-07
-1.26403e-07
1.23882e-07
-1.18548e-07
-1.36813e-07
-1.15468e-07
-1.46384e-07
-1.12153e-07
-1.55184e-07
-1.08638e-07
-1.6323e-07
-1.04945e-07
-1.70547e-07
-1.01104e-07
-1.77151e-07
-9.71347e-08
-1.83062e-07
-9.30644e-08
-1.88297e-07
-8.89118e-08
-1.92876e-07
-8.47002e-08
-1.96819e-07
-8.04485e-08
-2.00152e-07
-7.61773e-08
-2.029e-07
-7.19058e-08
-2.05093e-07
-6.76518e-08
-2.0676e-07
-6.3435e-08
-2.07934e-07
-5.92705e-08
-2.08646e-07
-5.51786e-08
-2.0893e-07
-5.11709e-08
-2.08817e-07
-2.08335e-07
-4.72691e-08
-1.24351e-07
-1.29085e-07
1.27018e-07
-1.21358e-07
-1.39816e-07
-1.18085e-07
-1.4967e-07
-1.14557e-07
-1.58721e-07
-1.10811e-07
-1.66988e-07
-1.0687e-07
-1.74497e-07
-1.02766e-07
-1.81268e-07
-9.85195e-08
-1.87319e-07
-9.4159e-08
-1.9267e-07
-8.97048e-08
-1.9734e-07
-8.51827e-08
-2.01353e-07
-8.0613e-08
-2.04733e-07
-7.60187e-08
-2.07506e-07
-7.1421e-08
-2.09702e-07
-6.68398e-08
-2.11352e-07
-6.22971e-08
-2.12489e-07
-5.78098e-08
-2.13145e-07
-5.34006e-08
-2.13353e-07
-4.90828e-08
-2.13145e-07
-2.12551e-07
-4.48803e-08
-1.27413e-07
-1.31926e-07
1.3024e-07
-1.24238e-07
-1.43e-07
-1.2076e-07
-1.53161e-07
-1.17007e-07
-1.62484e-07
-1.13014e-07
-1.70993e-07
-1.08807e-07
-1.78714e-07
-1.04419e-07
-1.85669e-07
-9.98711e-08
-1.91877e-07
-9.51949e-08
-1.97359e-07
-9.04118e-08
-2.02134e-07
-8.55501e-08
-2.06227e-07
-8.06322e-08
-2.09662e-07
-7.56837e-08
-2.12467e-07
-7.0728e-08
-2.1467e-07
-6.57879e-08
-2.16305e-07
-6.08877e-08
-2.17402e-07
-5.60468e-08
-2.17997e-07
-5.12905e-08
-2.18123e-07
-4.6634e-08
-2.17813e-07
-2.17095e-07
-4.21038e-08
-1.30568e-07
-1.34938e-07
1.33565e-07
-1.272e-07
-1.46379e-07
-1.23505e-07
-1.5687e-07
-1.19509e-07
-1.6649e-07
-1.15253e-07
-1.75264e-07
-1.10758e-07
-1.83219e-07
-1.06062e-07
-1.90379e-07
-1.01186e-07
-1.96764e-07
-9.61651e-08
-2.02393e-07
-9.10217e-08
-2.0729e-07
-8.57873e-08
-2.11476e-07
-8.04864e-08
-2.14976e-07
-7.51479e-08
-2.17819e-07
-6.97979e-08
-2.20034e-07
-6.44624e-08
-2.21653e-07
-5.91688e-08
-2.2271e-07
-5.39392e-08
-2.2324e-07
-4.88022e-08
-2.23275e-07
-4.37749e-08
-2.22852e-07
-2.21999e-07
-3.88872e-08
-1.33819e-07
-1.38126e-07
1.36991e-07
-1.30247e-07
-1.49959e-07
-1.26323e-07
-1.60808e-07
-1.2207e-07
-1.70753e-07
-1.17529e-07
-1.79819e-07
-1.12724e-07
-1.88035e-07
-1.07693e-07
-1.95425e-07
-1.02459e-07
-2.02008e-07
-9.70601e-08
-2.07807e-07
-9.15203e-08
-2.12842e-07
-8.5875e-08
-2.17136e-07
-8.0151e-08
-2.20714e-07
-7.43813e-08
-2.23603e-07
-6.8595e-08
-2.25835e-07
-6.28222e-08
-2.27441e-07
-5.70937e-08
-2.28454e-07
-5.14354e-08
-2.28911e-07
-4.58794e-08
-2.28848e-07
-4.04456e-08
-2.28298e-07
-2.27293e-07
-3.51673e-08
-1.37179e-07
-1.41499e-07
1.40536e-07
-1.33394e-07
-1.53754e-07
-1.29226e-07
-1.64991e-07
-1.24696e-07
-1.75293e-07
-1.19849e-07
-1.84682e-07
-1.14706e-07
-1.93189e-07
-1.09309e-07
-2.00837e-07
-1.03682e-07
-2.07647e-07
-9.78668e-08
-2.13639e-07
-9.18889e-08
-2.18833e-07
-8.57884e-08
-2.23252e-07