/*--------------------------------*- C++ -*----------------------------------*\
  =========                 |
  \\      /  F ield         | OpenFOAM: The Open Source CFD Toolbox
   \\    /   O peration     | Website:  https://openfoam.org
    \\  /    A nd           | Version:  6
     \\/     M anipulation  |
\*---------------------------------------------------------------------------*/
FoamFile
{
    version     2.0;
    format      ascii;
    class       volVectorField;
    location    "25";
    object      U;
}
// * * * * * * * * * * * * * * * * * * * * * * * * * * * * * * * * * * * * * //

dimensions      [0 1 -1 0 0 0 0];

internalField   nonuniform List<vector> 
10000
(
(0.000333903 -3.09456 0)
(-0.00104091 -4.14698 0)
(-0.0022756 -4.67169 0)
(-0.0028698 -5.03191 0)
(-0.00275483 -5.27756 0)
(-0.0024116 -5.43862 0)
(-0.00206758 -5.53935 0)
(-0.00174057 -5.59912 0)
(-0.00141112 -5.63151 0)
(-0.00106148 -5.64441 0)
(-0.000672614 -5.64131 0)
(-0.000245523 -5.62233 0)
(0.000223554 -5.58425 0)
(0.000720156 -5.51985 0)
(0.00121656 -5.41652 0)
(0.00164102 -5.25546 0)
(0.00183121 -5.0125 0)
(0.00135528 -4.6577 0)
(0.000524459 -4.13888 0)
(-0.000250903 -3.09101 0)
(0.000380023 -3.09561 0)
(2.74439e-05 -4.14649 0)
(-0.000571639 -4.67133 0)
(-0.00112644 -5.03186 0)
(-0.00140739 -5.27786 0)
(-0.00146589 -5.43927 0)
(-0.00142376 -5.5402 0)
(-0.00130734 -5.60005 0)
(-0.00117904 -5.63249 0)
(-0.0010197 -5.64548 0)
(-0.000840363 -5.64247 0)
(-0.000626178 -5.62357 0)
(-0.000402889 -5.58558 0)
(-0.000179379 -5.52127 0)
(2.24101e-05 -5.41792 0)
(9.49774e-05 -5.25663 0)
(8.46543e-05 -5.01324 0)
(-6.13378e-05 -4.658 0)
(-0.000235202 -4.13889 0)
(0.000238347 -3.0932 0)
(-0.000203884 -3.09596 0)
(-0.000223831 -4.1462 0)
(-0.000283728 -4.67127 0)
(-0.000613965 -5.03174 0)
(-0.000863536 -5.27771 0)
(-0.000985274 -5.43915 0)
(-0.00103819 -5.54015 0)
(-0.00103779 -5.60008 0)
(-0.00102619 -5.63255 0)
(-0.000987469 -5.64555 0)
(-0.000917244 -5.64259 0)
(-0.000814078 -5.62374 0)
(-0.000686456 -5.58583 0)
(-0.000540885 -5.52149 0)
(-0.000394477 -5.41808 0)
(-0.000320268 -5.25655 0)
(-0.0002413 -5.01292 0)
(-0.000187189 -4.65774 0)
(-4.00952e-05 -4.13842 0)
(0.000434969 -3.0933 0)
(-0.000505736 -3.09544 0)
(-0.000102099 -4.1454 0)
(3.63121e-05 -4.67051 0)
(-7.68154e-05 -5.031 0)
(-0.000320897 -5.27718 0)
(-0.000513943 -5.43888 0)
(-0.000665234 -5.53999 0)
(-0.00078149 -5.59997 0)
(-0.000875132 -5.63248 0)
(-0.000941644 -5.64554 0)
(-0.000971147 -5.64267 0)
(-0.000964403 -5.62392 0)
(-0.000913603 -5.58604 0)
(-0.000850694 -5.52173 0)
(-0.000789945 -5.41827 0)
(-0.000736818 -5.25665 0)
(-0.000686253 -5.013 0)
(-0.000508338 -4.65782 0)
(-0.00016658 -4.13851 0)
(0.000226173 -3.09355 0)
(-0.000337296 -3.09457 0)
(-5.97583e-05 -4.14482 0)
(-2.68776e-05 -4.66976 0)
(4.72693e-05 -5.03023 0)
(-0.000161187 -5.27646 0)
(-0.000319236 -5.43825 0)
(-0.000505254 -5.53941 0)
(-0.000680056 -5.59946 0)
(-0.000825599 -5.63209 0)
(-0.00093779 -5.64526 0)
(-0.00101245 -5.6425 0)
(-0.00105491 -5.6238 0)
(-0.00106689 -5.58597 0)
(-0.00104711 -5.52176 0)
(-0.00101299 -5.41827 0)
(-0.000931102 -5.25654 0)
(-0.00080122 -5.0129 0)
(-0.000498958 -4.6577 0)
(-0.000234862 -4.13847 0)
(-2.43931e-05 -3.09338 0)
(0.000175638 -3.09455 0)
(0.000203286 -4.14513 0)
(3.72547e-05 -4.66955 0)
(6.14517e-05 -5.03015 0)
(-0.000133365 -5.27631 0)
(-0.000330056 -5.43789 0)
(-0.000535892 -5.53901 0)
(-0.000715101 -5.59907 0)
(-0.000867802 -5.63175 0)
(-0.000983246 -5.64499 0)
(-0.00107402 -5.64231 0)
(-0.00112289 -5.62371 0)
(-0.00114941 -5.58592 0)
(-0.00112553 -5.52174 0)
(-0.00104677 -5.41836 0)
(-0.000916145 -5.25674 0)
(-0.000759334 -5.01307 0)
(-0.000483283 -4.65788 0)
(-0.000407908 -4.13907 0)
(-0.000415811 -3.09336 0)
(0.000383903 -3.09531 0)
(0.000265001 -4.14582 0)
(0.000147443 -4.66992 0)
(8.11826e-05 -5.03032 0)
(-8.09548e-05 -5.27637 0)
(-0.000298672 -5.43776 0)
(-0.000523721 -5.53875 0)
(-0.000712312 -5.59884 0)
(-0.000857455 -5.63153 0)
(-0.000970518 -5.64479 0)
(-0.00105935 -5.64218 0)
(-0.00110934 -5.62368 0)
(-0.00112473 -5.58596 0)
(-0.00109092 -5.52173 0)
(-0.00102293 -5.41847 0)
(-0.000863433 -5.25712 0)
(-0.000718031 -5.01346 0)
(-0.000501382 -4.65822 0)
(-0.000462089 -4.13979 0)
(-0.000482381 -3.09374 0)
(0.000267747 -3.09623 0)
(0.000297896 -4.14596 0)
(0.000330962 -4.66999 0)
(0.000280217 -5.0303 0)
(0.00011433 -5.27602 0)
(-9.40541e-05 -5.43731 0)
(-0.000357712 -5.53845 0)
(-0.000592884 -5.59857 0)
(-0.000762514 -5.63129 0)
(-0.000895322 -5.64462 0)
(-0.000999383 -5.64205 0)
(-0.00105162 -5.62366 0)
(-0.00106115 -5.58607 0)
(-0.00101884 -5.52198 0)
(-0.000952803 -5.41879 0)
(-0.000807332 -5.25754 0)
(-0.000683958 -5.0141 0)
(-0.000519621 -4.65902 0)
(-0.000498241 -4.14072 0)
(-0.000357002 -3.09483 0)
(0.000146985 -3.09659 0)
(0.000385094 -4.1457 0)
(0.000457587 -4.66951 0)
(0.000458836 -5.02984 0)
(0.000304699 -5.27551 0)
(6.42432e-05 -5.43672 0)
(-0.000229287 -5.5379 0)
(-0.000484783 -5.59814 0)
(-0.000710699 -5.63095 0)
(-0.000884008 -5.64437 0)
(-0.00102086 -5.64187 0)
(-0.00111557 -5.62358 0)
(-0.00115914 -5.58611 0)
(-0.00116402 -5.52209 0)
(-0.00113262 -5.41909 0)
(-0.00100014 -5.25814 0)
(-0.000912727 -5.01486 0)
(-0.000663213 -4.65985 0)
(-0.000419313 -4.14152 0)
(-0.000102309 -3.09599 0)
(0.000237593 -3.0968 0)
(0.000429669 -4.14607 0)
(0.000455936 -4.6694 0)
(0.000411322 -5.02933 0)
(0.000275235 -5.27493 0)
(3.38414e-05 -5.43614 0)
(-0.00021305 -5.53732 0)
(-0.000472768 -5.59765 0)
(-0.000709472 -5.63054 0)
(-0.000912052 -5.644 0)
(-0.0010889 -5.64158 0)
(-0.00123445 -5.62336 0)
(-0.00133853 -5.58598 0)
(-0.00141349 -5.52207 0)
(-0.00143207 -5.41903 0)
(-0.00131376 -5.25824 0)
(-0.00116915 -5.01521 0)
(-0.000761909 -4.66003 0)
(-0.000234459 -4.14145 0)
(0.000266688 -3.09631 0)
(0.000293299 -3.09719 0)
(0.00041425 -4.14669 0)
(0.000552189 -4.66966 0)
(0.000423511 -5.02904 0)
(0.000322077 -5.27445 0)
(3.794e-05 -5.4356 0)
(-0.000178286 -5.53683 0)
(-0.000450237 -5.59719 0)
(-0.000689109 -5.63009 0)
(-0.000915182 -5.64359 0)
(-0.00110644 -5.64123 0)
(-0.00126879 -5.62304 0)
(-0.00140449 -5.58572 0)
(-0.00147231 -5.52188 0)
(-0.0014786 -5.41903 0)
(-0.00135704 -5.25846 0)
(-0.00109213 -5.01555 0)
(-0.000674284 -4.66026 0)
(-0.00020181 -4.1415 0)
(0.000135068 -3.09623 0)
(0.000230128 -3.09772 0)
(0.00036905 -4.1472 0)
(0.000543577 -4.67001 0)
(0.000381942 -5.02877 0)
(0.000340742 -5.2742 0)
(5.32899e-05 -5.43533 0)
(-0.000150163 -5.53638 0)
(-0.000420491 -5.59668 0)
(-0.000679493 -5.62963 0)
(-0.000925485 -5.64318 0)
(-0.00113663 -5.64085 0)
(-0.00131942 -5.62273 0)
(-0.00145877 -5.5855 0)
(-0.00153658 -5.52183 0)
(-0.00150252 -5.41922 0)
(-0.00133782 -5.25892 0)
(-0.00101575 -5.01639 0)
(-0.000662712 -4.66124 0)
(-0.000249219 -4.14238 0)
(-0.000266497 -3.0964 0)
(0.000127117 -3.09814 0)
(0.000193144 -4.1476 0)
(0.000432926 -4.6704 0)
(0.000413704 -5.02864 0)
(0.000355745 -5.27387 0)
(0.000166374 -5.43489 0)
(-7.25308e-05 -5.53581 0)
(-0.000370436 -5.59611 0)
(-0.000670826 -5.6291 0)
(-0.000947965 -5.64269 0)
(-0.00119257 -5.64042 0)
(-0.00140044 -5.6224 0)
(-0.0015611 -5.58533 0)
(-0.00163981 -5.52186 0)
(-0.00159285 -5.41945 0)
(-0.00139953 -5.25943 0)
(-0.00105041 -5.01722 0)
(-0.000683842 -4.66219 0)
(-0.000262969 -4.14311 0)
(-0.00032224 -3.09676 0)
(4.79732e-05 -3.09842 0)
(0.000182181 -4.14763 0)
(0.000405354 -4.67026 0)
(0.000559477 -5.02848 0)
(0.000436584 -5.2734 0)
(0.000282668 -5.43422 0)
(-9.71881e-06 -5.5351 0)
(-0.00034431 -5.59539 0)
(-0.000678913 -5.62842 0)
(-0.000984034 -5.64212 0)
(-0.00125378 -5.63993 0)
(-0.00147381 -5.62197 0)
(-0.00164128 -5.58507 0)
(-0.00170653 -5.52182 0)
(-0.00164299 -5.41966 0)
(-0.00143432 -5.25986 0)
(-0.00105693 -5.01794 0)
(-0.000686202 -4.66306 0)
(-0.000308011 -4.14383 0)
(-0.000256842 -3.09717 0)
(0.000219955 -3.09895 0)
(0.00047006 -4.14815 0)
(0.000471518 -4.67035 0)
(0.000557167 -5.02859 0)
(0.000394348 -5.27333 0)
(0.000257307 -5.43373 0)
(-4.27373e-05 -5.53437 0)
(-0.000369266 -5.59464 0)
(-0.000714144 -5.62776 0)
(-0.00103343 -5.64152 0)
(-0.00130607 -5.63941 0)
(-0.00154399 -5.62154 0)
(-0.00171907 -5.58472 0)
(-0.00180547 -5.52169 0)
(-0.00174583 -5.41983 0)
(-0.00156163 -5.26024 0)
(-0.00118367 -5.01859 0)
(-0.000731196 -4.66387 0)
(-0.00027776 -4.14429 0)
(-0.000180341 -3.09725 0)
(0.000305865 -3.09965 0)
(0.000381019 -4.14855 0)
(0.000630704 -4.67062 0)
(0.000715513 -5.02883 0)
(0.000533831 -5.27322 0)
(0.00033578 -5.43331 0)
(-1.79106e-05 -5.53371 0)
(-0.000372169 -5.5939 0)
(-0.000736364 -5.6271 0)
(-0.00106646 -5.64092 0)
(-0.00135485 -5.6389 0)
(-0.00159272 -5.62111 0)
(-0.00177204 -5.58443 0)
(-0.00185626 -5.52162 0)
(-0.00181142 -5.42006 0)
(-0.00160349 -5.2608 0)
(-0.00121446 -5.0192 0)
(-0.000700819 -4.66449 0)
(-0.000243226 -4.14483 0)
(-5.97862e-05 -3.09719 0)
(0.000210573 -3.10035 0)
(0.000316444 -4.1488 0)
(0.000630286 -4.67096 0)
(0.000781289 -5.02902 0)
(0.000707863 -5.27302 0)
(0.000422236 -5.4328 0)
(5.98e-05 -5.53299 0)
(-0.000341986 -5.59311 0)
(-0.000741449 -5.62637 0)
(-0.00110375 -5.64033 0)
(-0.00141193 -5.63842 0)
(-0.00165944 -5.62079 0)
(-0.0018187 -5.5843 0)
(-0.0018685 -5.52172 0)
(-0.00180496 -5.4205 0)
(-0.00155246 -5.2616 0)
(-0.00114234 -5.02049 0)
(-0.000728668 -4.66602 0)
(-0.000373329 -4.14617 0)
(-0.00021078 -3.09802 0)
(0.000277272 -3.10107 0)
(0.000321645 -4.14955 0)
(0.000746274 -4.67157 0)
(0.000961464 -5.02909 0)
(0.000967993 -5.27286 0)
(0.000654431 -5.43236 0)
(0.000248952 -5.53228 0)
(-0.000222024 -5.59229 0)
(-0.000682288 -5.62555 0)
(-0.00110379 -5.6396 0)
(-0.00146938 -5.63784 0)
(-0.00176981 -5.62038 0)
(-0.00196921 -5.58405 0)
(-0.00207191 -5.52179 0)
(-0.002057 -5.42097 0)
(-0.00183748 -5.26257 0)
(-0.0014622 -5.02188 0)
(-0.000968462 -4.66745 0)
(-0.000235391 -4.1472 0)
(-9.55827e-05 -3.09896 0)
(0.000389492 -3.10132 0)
(0.000299428 -4.15008 0)
(0.000861136 -4.67219 0)
(0.00120367 -5.02926 0)
(0.00125429 -5.2725 0)
(0.000974661 -5.43167 0)
(0.000496021 -5.53139 0)
(-3.56545e-05 -5.59131 0)
(-0.000562337 -5.62456 0)
(-0.00105402 -5.63869 0)
(-0.00149029 -5.63706 0)
(-0.00186815 -5.61975 0)
(-0.00216669 -5.58356 0)
(-0.00235475 -5.52155 0)
(-0.00240846 -5.42104 0)
(-0.00223015 -5.26294 0)
(-0.001775 -5.02269 0)
(-0.00105034 -4.66813 0)
(-0.000135813 -4.14721 0)
(0.000201239 -3.09906 0)
(0.000407772 -3.10102 0)
(0.000301774 -4.15063 0)
(0.000883242 -4.67268 0)
(0.00137168 -5.02949 0)
(0.00144496 -5.2721 0)
(0.00120523 -5.43076 0)
(0.000718134 -5.53028 0)
(0.000141465 -5.59016 0)
(-0.00043572 -5.62346 0)
(-0.000989519 -5.63768 0)
(-0.001488 -5.63615 0)
(-0.00192168 -5.61896 0)
(-0.00227234 -5.58298 0)
(-0.00250863 -5.52125 0)
(-0.00254124 -5.42112 0)
(-0.00234822 -5.26346 0)
(-0.0018319 -5.02342 0)
(-0.0010491 -4.66891 0)
(-0.000346695 -4.14796 0)
(-9.50594e-05 -3.09866 0)
(0.000444905 -3.10094 0)
(0.000397589 -4.15184 0)
(0.000934653 -4.67345 0)
(0.00137104 -5.02989 0)
(0.00151183 -5.27183 0)
(0.0013022 -5.42987 0)
(0.000849475 -5.52917 0)
(0.000257317 -5.58895 0)
(-0.000356354 -5.62224 0)
(-0.000959404 -5.63652 0)
(-0.00150703 -5.63511 0)
(-0.00198628 -5.61811 0)
(-0.00236659 -5.58236 0)
(-0.00260658 -5.52096 0)
(-0.00261643 -5.42129 0)
(-0.00237275 -5.26427 0)
(-0.0018192 -5.02476 0)
(-0.00112109 -4.67049 0)
(-0.000504103 -4.14965 0)
(-0.000546362 -3.09885 0)
(0.000508193 -3.10138 0)
(0.000542515 -4.15321 0)
(0.00113751 -4.67472 0)
(0.00146913 -5.0305 0)
(0.00164019 -5.27162 0)
(0.00143811 -5.42907 0)
(0.000973087 -5.52809 0)
(0.000362125 -5.58775 0)
(-0.000286027 -5.62097 0)
(-0.000929894 -5.63528 0)
(-0.00154091 -5.634 0)
(-0.00206804 -5.61714 0)
(-0.00249502 -5.58165 0)
(-0.00276242 -5.52059 0)
(-0.00281985 -5.42143 0)
(-0.00257308 -5.26503 0)
(-0.00200433 -5.02596 0)
(-0.00129049 -4.67192 0)
(-0.000521497 -4.15112 0)
(-0.000526944 -3.09934 0)
(0.000417689 -3.10211 0)
(0.000670791 -4.15432 0)
(0.00137029 -4.67582 0)
(0.00173893 -5.03122 0)
(0.00185957 -5.27158 0)
(0.00161366 -5.42834 0)
(0.00112279 -5.52699 0)
(0.000488339 -5.58648 0)
(-0.000197257 -5.61964 0)
(-0.000875817 -5.63398 0)
(-0.00152473 -5.63281 0)
(-0.00209622 -5.61615 0)
(-0.00256177 -5.58089 0)
(-0.00286351 -5.52009 0)
(-0.00297705 -5.42141 0)
(-0.00275667 -5.26565 0)
(-0.0022355 -5.02719 0)
(-0.00145996 -4.67329 0)
(-0.000662106 -4.15229 0)
(-0.000360348 -3.09976 0)
(0.000313061 -3.10311 0)
(0.000778648 -4.1557 0)
(0.00155384 -4.6771 0)
(0.00195419 -5.03198 0)
(0.00207694 -5.27164 0)
(0.00182602 -5.4276 0)
(0.00132067 -5.52578 0)
(0.000665987 -5.58519 0)
(-6.18982e-05 -5.61831 0)
(-0.000790007 -5.63263 0)
(-0.00149096 -5.63156 0)
(-0.00211135 -5.61509 0)
(-0.00260676 -5.58014 0)
(-0.0029533 -5.51971 0)
(-0.00306137 -5.42153 0)
(-0.00286086 -5.26654 0)
(-0.00235621 -5.02864 0)
(-0.00158365 -4.67494 0)
(-0.00083793 -4.15405 0)
(-0.000435005 -3.10062 0)
(0.000175279 -3.10431 0)
(0.000746739 -4.15717 0)
(0.00176656 -4.6785 0)
(0.00235692 -5.03273 0)
(0.00245094 -5.27154 0)
(0.00218714 -5.42688 0)
(0.00161786 -5.52456 0)
(0.000897755 -5.58369 0)
(0.000101047 -5.61678 0)
(-0.000708289 -5.63115 0)
(-0.00147769 -5.63017 0)
(-0.0021691 -5.61391 0)
(-0.00273021 -5.57927 0)
(-0.0031295 -5.51927 0)
(-0.00328912 -5.42164 0)
(-0.00314828 -5.26738 0)
(-0.00263361 -5.03022 0)
(-0.00181575 -4.677 0)
(-0.000855981 -4.15607 0)
(-0.000398309 -3.10191 0)
(0.000133269 -3.10527 0)
(0.000853368 -4.1587 0)
(0.00194765 -4.67978 0)
(0.00272881 -5.03338 0)
(0.00285119 -5.27133 0)
(0.00255931 -5.42597 0)
(0.00192564 -5.52318 0)
(0.00112361 -5.58205 0)
(0.000238191 -5.61504 0)
(-0.000655583 -5.62945 0)
(-0.001513 -5.6286 0)
(-0.00228834 -5.61256 0)
(-0.00293471 -5.57826 0)
(-0.00341859 -5.51872 0)
(-0.00363752 -5.42165 0)
(-0.00354856 -5.26808 0)
(-0.00302192 -5.0316 0)
(-0.00212852 -4.67898 0)
(-0.000915747 -4.15801 0)
(-0.000248432 -3.10315 0)
(0.000389045 -3.10605 0)
(0.00100018 -4.16044 0)
(0.00211594 -4.68134 0)
(0.0029903 -5.03414 0)
(0.00321942 -5.27104 0)
(0.00291889 -5.42496 0)
(0.00224019 -5.52169 0)
(0.00136088 -5.58022 0)
(0.000387472 -5.6131 0)
(-0.000597811 -5.62754 0)
(-0.0015444 -5.62681 0)
(-0.00242124 -5.61098 0)
(-0.00317796 -5.57701 0)
(-0.0037541 -5.5179 0)
(-0.00405449 -5.42141 0)
(-0.00398625 -5.26863 0)
(-0.00341499 -5.03298 0)
(-0.00238481 -4.68091 0)
(-0.000986838 -4.15982 0)
(-0.000259279 -3.10411 0)
(0.000771082 -3.10719 0)
(0.00120801 -4.16277 0)
(0.00229344 -4.68317 0)
(0.00317674 -5.0351 0)
(0.00347305 -5.27103 0)
(0.0031872 -5.42401 0)
(0.00251978 -5.52008 0)
(0.00159303 -5.57829 0)
(0.0005524 -5.61104 0)
(-0.000508296 -5.62547 0)
(-0.00154467 -5.62483 0)
(-0.00250732 -5.6092 0)
(-0.00335491 -5.57554 0)
(-0.00400483 -5.5169 0)
(-0.00436061 -5.4211 0)
(-0.00429946 -5.26914 0)
(-0.00367699 -5.03424 0)
(-0.00252758 -4.68273 0)
(-0.00106849 -4.16189 0)
(-0.000437259 -3.10474 0)
(0.000920774 -3.10874 0)
(0.00131527 -4.16542 0)
(0.00259693 -4.6854 0)
(0.00349061 -5.03637 0)
(0.00383232 -5.27113 0)
(0.00354097 -5.42306 0)
(0.00282631 -5.51844 0)
(0.00185605 -5.57628 0)
(0.000750448 -5.60885 0)
(-0.000388009 -5.62325 0)
(-0.00150708 -5.62271 0)
(-0.00254865 -5.60728 0)
(-0.00346479 -5.57395 0)
(-0.00414782 -5.51574 0)
(-0.00453304 -5.42063 0)
(-0.00443896 -5.26967 0)
(-0.00376156 -5.03589 0)
(-0.00265185 -4.68517 0)
(-0.00126822 -4.16451 0)
(-0.00076041 -3.10547 0)
(0.000843995 -3.11044 0)
(0.00147965 -4.16808 0)
(0.00287169 -4.68771 0)
(0.00383409 -5.03762 0)
(0.00421798 -5.27122 0)
(0.00392903 -5.42214 0)
(0.00318703 -5.51672 0)
(0.00215752 -5.57414 0)
(0.000983757 -5.60653 0)
(-0.000239511 -5.6209 0)
(-0.00144934 -5.62042 0)
(-0.00256837 -5.60521 0)
(-0.003552 -5.57225 0)
(-0.00429411 -5.51462 0)
(-0.00470619 -5.42031 0)
(-0.00461297 -5.27021 0)
(-0.00396335 -5.03757 0)
(-0.00287002 -4.68787 0)
(-0.00147044 -4.16751 0)
(-0.000873321 -3.10675 0)
(0.000695035 -3.11175 0)
(0.00156623 -4.17067 0)
(0.0031135 -4.68996 0)
(0.00422649 -5.03891 0)
(0.0046496 -5.27119 0)
(0.004377 -5.42087 0)
(0.00360818 -5.51478 0)
(0.00250631 -5.57181 0)
(0.00124196 -5.60398 0)
(-8.59912e-05 -5.61832 0)
(-0.00138755 -5.61798 0)
(-0.00259394 -5.60305 0)
(-0.00363948 -5.57051 0)
(-0.00443741 -5.51346 0)
(-0.00488365 -5.41999 0)
(-0.00482515 -5.27101 0)
(-0.00421739 -5.03962 0)
(-0.00312819 -4.69091 0)
(-0.00165243 -4.17085 0)
(-0.000755127 -3.10873 0)
(0.000651997 -3.11312 0)
(0.00169094 -4.17346 0)
(0.00333647 -4.69216 0)
(0.00454333 -5.03997 0)
(0.00498772 -5.271 0)
(0.00470638 -5.41961 0)
(0.00389751 -5.51273 0)
(0.00274853 -5.56927 0)
(0.00140464 -5.60125 0)
(-1.91979e-05 -5.61559 0)
(-0.00142406 -5.61539 0)
(-0.00273048 -5.60071 0)
(-0.00385602 -5.56857 0)
(-0.00473116 -5.51221 0)
(-0.00523903 -5.41972 0)
(-0.00525074 -5.27185 0)
(-0.00464912 -5.04171 0)
(-0.00345082 -4.69402 0)
(-0.00171387 -4.17412 0)
(-0.000515855 -3.11116 0)
(0.000984009 -3.11562 0)
(0.00205303 -4.17734 0)
(0.00360083 -4.69546 0)
(0.00470035 -5.04196 0)
(0.00511338 -5.2714 0)
(0.00486367 -5.41867 0)
(0.00405191 -5.51088 0)
(0.00289666 -5.56681 0)
(0.00151187 -5.59844 0)
(2.18011e-05 -5.61268 0)
(-0.00147392 -5.61257 0)
(-0.00288741 -5.59814 0)
(-0.00412743 -5.5664 0)
(-0.00510012 -5.51066 0)
(-0.00567934 -5.41901 0)
(-0.00574874 -5.27226 0)
(-0.00509334 -5.04343 0)
(-0.00369592 -4.69676 0)
(-0.00174791 -4.1769 0)
(-0.000277707 -3.11302 0)
(0.000923284 -3.1186 0)
(0.00201943 -4.18129 0)
(0.00399099 -4.69915 0)
(0.00522729 -5.0442 0)
(0.00566365 -5.27183 0)
(0.00539808 -5.41781 0)
(0.0045157 -5.50905 0)
(0.00327179 -5.56426 0)
(0.00179925 -5.59548 0)
(0.000204951 -5.60956 0)
(-0.00140322 -5.60951 0)
(-0.00292952 -5.59532 0)
(-0.00427634 -5.56403 0)
(-0.00534477 -5.50896 0)
(-0.00598266 -5.41824 0)
(-0.00604998 -5.27265 0)
(-0.00533587 -5.04517 0)
(-0.0038794 -4.69967 0)
(-0.00199516 -4.18012 0)
(-0.000539039 -3.11493 0)
(0.000534252 -3.12074 0)
(0.00194038 -4.18415 0)
(0.00419339 -4.70189 0)
(0.00573816 -5.04579 0)
(0.00632565 -5.27184 0)
(0.00605166 -5.41652 0)
(0.00511119 -5.5068 0)
(0.00375275 -5.56132 0)
(0.00215169 -5.59219 0)
(0.00042481 -5.60619 0)
(-0.00129784 -5.60622 0)
(-0.00294007 -5.59232 0)
(-0.00438769 -5.56151 0)
(-0.00553237 -5.50723 0)
(-0.00622942 -5.41756 0)
(-0.00627867 -5.27337 0)
(-0.00557118 -5.04747 0)
(-0.00410149 -4.70313 0)
(-0.00218553 -4.18403 0)
(-0.000977902 -3.11734 0)
(0.000702579 -3.12237 0)
(0.00217499 -4.1877 0)
(0.00433132 -4.70494 0)
(0.00595116 -5.04746 0)
(0.00666621 -5.27186 0)
(0.00644089 -5.41513 0)
(0.00550616 -5.50434 0)
(0.00409225 -5.55816 0)
(0.00239497 -5.58866 0)
(0.000567093 -5.60254 0)
(-0.00126945 -5.60268 0)
(-0.00301714 -5.58905 0)
(-0.00456552 -5.55874 0)
(-0.00579506 -5.50529 0)
(-0.00653783 -5.41676 0)
(-0.00660987 -5.27402 0)
(-0.005888 -5.04975 0)
(-0.00432222 -4.70653 0)
(-0.00224823 -4.18786 0)
(-0.00100896 -3.12 0)
(0.00110144 -3.12465 0)
(0.00243302 -4.19223 0)
(0.0045331 -4.70873 0)
(0.00609973 -5.04965 0)
(0.00685968 -5.27231 0)
(0.00669406 -5.41402 0)
(0.00578325 -5.50197 0)
(0.0043537 -5.55495 0)
(0.00259034 -5.58502 0)
(0.000676573 -5.59874 0)
(-0.0012532 -5.59895 0)
(-0.00309823 -5.58562 0)
(-0.00473475 -5.55587 0)
(-0.00603834 -5.50324 0)
(-0.00682071 -5.41586 0)
(-0.0069094 -5.27464 0)
(-0.00615583 -5.05188 0)
(-0.00451752 -4.71001 0)
(-0.00238389 -4.19194 0)
(-0.000924808 -3.12263 0)
(0.00114127 -3.1277 0)
(0.00258684 -4.19687 0)
(0.00479816 -4.71273 0)
(0.00637642 -5.05214 0)
(0.00713714 -5.27298 0)
(0.00698041 -5.413 0)
(0.00606727 -5.49959 0)
(0.00460042 -5.5517 0)
(0.00277466 -5.58129 0)
(0.000781678 -5.59482 0)
(-0.00124476 -5.59509 0)
(-0.00318044 -5.58207 0)
(-0.0048975 -5.55288 0)
(-0.00626839 -5.50114 0)
(-0.00709194 -5.41504 0)
(-0.00719008 -5.27544 0)
(-0.0064371 -5.0544 0)
(-0.00475018 -4.71396 0)
(-0.0025155 -4.19655 0)
(-0.000959904 -3.12575 0)
(0.0010253 -3.13142 0)
(0.00283044 -4.20167 0)
(0.00512143 -4.71694 0)
(0.0067441 -5.05479 0)
(0.0074987 -5.2738 0)
(0.00732586 -5.41204 0)
(0.00638072 -5.49724 0)
(0.00485347 -5.5484 0)
(0.00295891 -5.57741 0)
(0.000879923 -5.5907 0)
(-0.00125011 -5.59105 0)
(-0.00329782 -5.57833 0)
(-0.00511421 -5.54976 0)
(-0.00656398 -5.49897 0)
(-0.00745455 -5.41414 0)
(-0.00756724 -5.27627 0)
(-0.00679822 -5.05708 0)
(-0.00504015 -4.71815 0)
(-0.00268204 -4.20143 0)
(-0.000978675 -3.12917 0)
(0.000907286 -3.13517 0)
(0.00289962 -4.20632 0)
(0.00543728 -4.72104 0)
(0.00725666 -5.05742 0)
(0.00804737 -5.27457 0)
(0.00785383 -5.41098 0)
(0.00683429 -5.49469 0)
(0.00521466 -5.54487 0)
(0.0032131 -5.57329 0)
(0.00101634 -5.58633 0)
(-0.00123924 -5.58669 0)
(-0.00340646 -5.57428 0)
(-0.00536175 -5.54631 0)
(-0.00690966 -5.49643 0)
(-0.00789091 -5.41294 0)
(-0.00805023 -5.27683 0)
(-0.00724228 -5.05954 0)
(-0.00536288 -4.72203 0)
(-0.00279822 -4.20591 0)
(-0.000954788 -3.13219 0)
(0.000876296 -3.13834 0)
(0.00293168 -4.21068 0)
(0.00565145 -4.72478 0)
(0.00770862 -5.05971 0)
(0.0085861 -5.275 0)
(0.00837786 -5.40959 0)
(0.00728384 -5.49185 0)
(0.00557156 -5.54105 0)
(0.00347019 -5.56889 0)
(0.00117512 -5.58167 0)
(-0.00117775 -5.58204 0)
(-0.00344713 -5.56993 0)
(-0.0055003 -5.54256 0)
(-0.00715202 -5.49358 0)
(-0.00818755 -5.41149 0)
(-0.00840351 -5.27713 0)
(-0.00754429 -5.06159 0)
(-0.00557096 -4.72557 0)
(-0.00292928 -4.21022 0)
(-0.00105619 -3.13465 0)
(0.00126393 -3.14161 0)
(0.00320625 -4.21579 0)
(0.00578716 -4.72902 0)
(0.00786371 -5.06233 0)
(0.00883304 -5.2756 0)
(0.00867966 -5.40821 0)
(0.00757508 -5.48892 0)
(0.00583037 -5.5371 0)
(0.00367873 -5.56435 0)
(0.00132566 -5.57689 0)
(-0.0010809 -5.5773 0)
(-0.00340399 -5.56551 0)
(-0.00548968 -5.53879 0)
(-0.00717186 -5.49084 0)
(-0.00820661 -5.41021 0)
(-0.00839508 -5.27776 0)
(-0.00752562 -5.06426 0)
(-0.00567431 -4.73004 0)
(-0.00329115 -4.21571 0)
(-0.00148278 -3.13802 0)
(0.00152765 -3.14531 0)
(0.00329426 -4.22141 0)
(0.00603945 -4.73377 0)
(0.00812179 -5.06531 0)
(0.00910871 -5.27635 0)
(0.00895402 -5.40691 0)
(0.007824 -5.48599 0)
(0.00603897 -5.53309 0)
(0.00383966 -5.55978 0)
(0.00142781 -5.57207 0)
(-0.00104002 -5.57252 0)
(-0.0034266 -5.56107 0)
(-0.00557321 -5.53501 0)
(-0.00729784 -5.48822 0)
(-0.00837936 -5.4092 0)
(-0.00858718 -5.27875 0)
(-0.00778634 -5.06754 0)
(-0.00601322 -4.73534 0)
(-0.00346024 -4.22196 0)
(-0.00159042 -3.1428 0)
(0.00150716 -3.14959 0)
(0.00348296 -4.22723 0)
(0.0062821 -4.73886 0)
(0.00835506 -5.06854 0)
(0.00932849 -5.27722 0)
(0.00914656 -5.40561 0)
(0.0079964 -5.48307 0)
(0.00617466 -5.5291 0)
(0.00392886 -5.55514 0)
(0.00145209 -5.56715 0)
(-0.00109924 -5.56761 0)
(-0.00357622 -5.55645 0)
(-0.00582462 -5.53105 0)
(-0.00765721 -5.48534 0)
(-0.00884199 -5.40794 0)
(-0.0091494 -5.2795 0)
(-0.00839794 -5.07051 0)
(-0.00645111 -4.74016 0)
(-0.00348249 -4.22736 0)
(-0.00112915 -3.14777 0)
(0.00140619 -3.15431 0)
(0.00359704 -4.23332 0)
(0.00661882 -4.74426 0)
(0.00873927 -5.07197 0)
(0.00968355 -5.27818 0)
(0.00945664 -5.40435 0)
(0.00825444 -5.48013 0)
(0.00637651 -5.525 0)
(0.00405995 -5.55036 0)
(0.00149971 -5.56204 0)
(-0.0011466 -5.56247 0)
(-0.00373496 -5.55157 0)
(-0.00609654 -5.5268 0)
(-0.00804606 -5.48217 0)
(-0.00933295 -5.4063 0)
(-0.00971669 -5.27983 0)
(-0.00891759 -5.07307 0)
(-0.00672923 -4.74459 0)
(-0.00358014 -4.23245 0)
(-0.000923622 -3.15206 0)
(0.0011992 -3.15865 0)
(0.00365209 -4.23901 0)
(0.00693685 -4.74936 0)
(0.00923442 -5.0751 0)
(0.0102003 -5.27887 0)
(0.00990761 -5.40282 0)
(0.00863477 -5.47693 0)
(0.00667234 -5.52067 0)
(0.00426983 -5.54534 0)
(0.00161721 -5.55667 0)
(-0.00112954 -5.55706 0)
(-0.00382004 -5.54643 0)
(-0.0062837 -5.5223 0)
(-0.00832543 -5.47875 0)
(-0.00967768 -5.40446 0)
(-0.0100727 -5.28012 0)
(-0.00918317 -5.07572 0)
(-0.00688756 -4.74928 0)
(-0.00380698 -4.23818 0)
(-0.00125658 -3.15605 0)
(0.00127104 -3.16268 0)
(0.00383173 -4.2449 0)
(0.00709447 -4.7544 0)
(0.00951967 -5.07805 0)
(0.0105732 -5.27936 0)
(0.0102807 -5.4011 0)
(0.00896504 -5.47351 0)
(0.00694094 -5.51611 0)
(0.00446241 -5.54009 0)
(0.00172662 -5.5511 0)
(-0.00110287 -5.55145 0)
(-0.0038746 -5.54112 0)
(-0.00641473 -5.51764 0)
(-0.00850795 -5.47522 0)
(-0.00989799 -5.40265 0)
(-0.0102752 -5.28057 0)
(-0.00934215 -5.07866 0)
(-0.00708804 -4.75443 0)
(-0.00404446 -4.24456 0)
(-0.00170404 -3.16039 0)
(0.00155735 -3.16713 0)
(0.00407566 -4.25151 0)
(0.00734365 -4.75989 0)
(0.00974422 -5.08125 0)
(0.0108063 -5.27994 0)
(0.0105179 -5.39939 0)
(0.00917718 -5.47007 0)
(0.00711465 -5.5115 0)
(0.00458457 -5.53477 0)
(0.00178935 -5.54543 0)
(-0.00110457 -5.54576 0)
(-0.00393449 -5.53571 0)
(-0.00652861 -5.51292 0)
(-0.00866769 -5.47168 0)
(-0.0100931 -5.40087 0)
(-0.0104763 -5.28106 0)
(-0.00954298 -5.08176 0)
(-0.00730714 -4.75984 0)
(-0.0041194 -4.25107 0)
(-0.00181243 -3.16523 0)
(0.00181605 -3.1725 0)
(0.00441892 -4.25871 0)
(0.00769799 -4.766 0)
(0.0099967 -5.08496 0)
(0.0109847 -5.28087 0)
(0.0106728 -5.39791 0)
(0.00931808 -5.46677 0)
(0.00723808 -5.50697 0)
(0.00467312 -5.52947 0)
(0.00183028 -5.53975 0)
(-0.00111742 -5.54003 0)
(-0.00400223 -5.53029 0)
(-0.0066399 -5.50819 0)
(-0.0088144 -5.46815 0)
(-0.010264 -5.39917 0)
(-0.010683 -5.28175 0)
(-0.00977336 -5.08517 0)
(-0.00753116 -4.7656 0)
(-0.0043005 -4.25792 0)
(-0.00173274 -3.17088 0)
(0.0016926 -3.17799 0)
(0.00440302 -4.26572 0)
(0.0080002 -4.77207 0)
(0.0104314 -5.08865 0)
(0.0114076 -5.28174 0)
(0.0110595 -5.39634 0)
(0.00963871 -5.46337 0)
(0.00748074 -5.5023 0)
(0.00482912 -5.52401 0)
(0.00189024 -5.53389 0)
(-0.0011577 -5.53413 0)
(-0.00413808 -5.52472 0)
(-0.0068618 -5.50336 0)
(-0.00911637 -5.46456 0)
(-0.0106396 -5.39745 0)
(-0.0111097 -5.28251 0)
(-0.0102308 -5.08876 0)
(-0.00788868 -4.77165 0)
(-0.00440999 -4.26501 0)
(-0.0015951 -3.17692 0)
(0.00137496 -3.18284 0)
(0.00439148 -4.27217 0)
(0.00818126 -4.7775 0)
(0.010821 -5.09172 0)
(0.0118566 -5.28201 0)
(0.011496 -5.39425 0)
(0.0100088 -5.45954 0)
(0.00775265 -5.49726 0)
(0.00498839 -5.5182 0)
(0.00192604 -5.52769 0)
(-0.00124685 -5.5279 0)
(-0.00435482 -5.51881 0)
(-0.00720735 -5.49819 0)
(-0.00957555 -5.46064 0)
(-0.0112067 -5.39535 0)
(-0.0117114 -5.28283 0)
(-0.0107955 -5.09195 0)
(-0.0082142 -4.77725 0)
(-0.00440408 -4.27155 0)
(-0.00137555 -3.18243 0)
(0.00153907 -3.18812 0)
(0.00472403 -4.27949 0)
(0.00844812 -4.78344 0)
(0.0110607 -5.09506 0)
(0.012057 -5.28237 0)
(0.0116614 -5.39212 0)
(0.0101621 -5.45562 0)
(0.00786457 -5.49209 0)
(0.00504609 -5.51221 0)
(0.00191136 -5.52128 0)
(-0.00134673 -5.52143 0)
(-0.00454408 -5.51264 0)
(-0.0074907 -5.49273 0)
(-0.00994327 -5.45641 0)
(-0.0116269 -5.39291 0)
(-0.0121534 -5.28284 0)
(-0.011151 -5.09496 0)
(-0.0084161 -4.78283 0)
(-0.00459529 -4.27833 0)
(-0.00153247 -3.18727 0)
(0.00188524 -3.19459 0)
(0.00502834 -4.28786 0)
(0.00879544 -4.79036 0)
(0.0113413 -5.09916 0)
(0.0122727 -5.28334 0)
(0.0118125 -5.3904 0)
(0.0102948 -5.45194 0)
(0.00796638 -5.48702 0)
(0.00511694 -5.50625 0)
(0.00193931 -5.51484 0)
(-0.00136624 -5.51491 0)
(-0.00461455 -5.50642 0)
(-0.00760631 -5.48723 0)
(-0.0101037 -5.45215 0)
(-0.0118158 -5.39057 0)
(-0.0123731 -5.2831 0)
(-0.0113397 -5.09832 0)
(-0.00862431 -4.78902 0)
(-0.00483552 -4.28601 0)
(-0.00196131 -3.19237 0)
(0.00177545 -3.20111 0)
(0.00501557 -4.29568 0)
(0.00913011 -4.79699 0)
(0.0118662 -5.103 0)
(0.0128321 -5.28409 0)
(0.012303 -5.38847 0)
(0.0106803 -5.44808 0)
(0.0082479 -5.48181 0)
(0.00530125 -5.50015 0)
(0.00203895 -5.5083 0)
(-0.00134358 -5.50831 0)
(-0.00465146 -5.50016 0)
(-0.0076816 -5.48175 0)
(-0.0102035 -5.44799 0)
(-0.0119277 -5.38841 0)
(-0.0124781 -5.28373 0)
(-0.0114742 -5.10228 0)
(-0.00886754 -4.79603 0)
(-0.00507027 -4.29449 0)
(-0.00221631 -3.19856 0)
(0.00162529 -3.20689 0)
(0.00507039 -4.30299 0)
(0.00937252 -4.80305 0)
(0.0123465 -5.10625 0)
(0.0133901 -5.2843 0)
(0.0128079 -5.38607 0)
(0.0110594 -5.44376 0)
(0.00851363 -5.47622 0)
(0.00544282 -5.49377 0)
(0.00207162 -5.50152 0)
(-0.00140939 -5.50152 0)
(-0.00480694 -5.49375 0)
(-0.00791662 -5.47617 0)
(-0.0105153 -5.44376 0)
(-0.0123237 -5.3862 0)
(-0.0129353 -5.28438 0)
(-0.0120076 -5.10642 0)
(-0.00932329 -4.80322 0)
(-0.00512227 -4.30295 0)
(-0.00203284 -3.2054 0)
(0.0020016 -3.21301 0)
(0.00539059 -4.31149 0)
(0.00957438 -4.80995 0)
(0.0125607 -5.11 0)
(0.0136538 -5.28468 0)
(0.0130434 -5.38368 0)
(0.0112396 -5.43935 0)
(0.00861163 -5.47047 0)
(0.00545596 -5.48719 0)
(0.00199425 -5.49453 0)
(-0.00158465 -5.4945 0)
(-0.00508518 -5.4871 0)
(-0.00830299 -5.47033 0)
(-0.0110234 -5.43924 0)
(-0.0129402 -5.38364 0)
(-0.0136319 -5.28467 0)
(-0.0126844 -5.11022 0)
(-0.00972994 -4.81002 0)
(-0.00515284 -4.31091 0)
(-0.0016822 -3.21195 0)
(0.00221965 -3.21984 0)
(0.00544605 -4.32062 0)
(0.00988963 -4.81751 0)
(0.0129219 -5.11421 0)
(0.0140288 -5.28532 0)
(0.0133695 -5.38127 0)
(0.0114851 -5.43485 0)
(0.00874607 -5.46462 0)
(0.00549052 -5.48047 0)
(0.00193149 -5.48736 0)
(-0.00174536 -5.48728 0)
(-0.00535187 -5.48022 0)
(-0.00868164 -5.46424 0)
(-0.0115144 -5.43447 0)
(-0.0135254 -5.38087 0)
(-0.0142761 -5.2848 0)
(-0.0132685 -5.11395 0)
(-0.0101121 -4.81701 0)
(-0.00538474 -4.31937 0)
(-0.00178591 -3.21821 0)
(0.0021036 -3.2269 0)
(0.00552369 -4.32953 0)
(0.0103037 -4.82501 0)
(0.0134633 -5.11837 0)
(0.014531 -5.2858 0)
(0.0138109 -5.37868 0)
(0.0118074 -5.43012 0)
(0.00895338 -5.45855 0)
(0.00558116 -5.47357 0)
(0.00191514 -5.48003 0)
(-0.00186398 -5.47991 0)
(-0.00556948 -5.47321 0)
(-0.00900057 -5.45803 0)
(-0.0119296 -5.42962 0)
(-0.014027 -5.3781 0)
(-0.0148142 -5.28509 0)
(-0.0137748 -5.11805 0)
(-0.0105161 -4.82463 0)
(-0.00562397 -4.32872 0)
(-0.00218916 -3.22479 0)
(0.00222015 -3.23413 0)
(0.00578872 -4.33915 0)
(0.0107433 -4.8331 0)
(0.0140026 -5.12287 0)
(0.0150557 -5.28632 0)
(0.0142832 -5.37605 0)
(0.0121597 -5.42528 0)
(0.00918804 -5.45227 0)
(0.00568964 -5.46644 0)
(0.00190197 -5.47248 0)
(-0.00199147 -5.47233 0)
(-0.00581209 -5.46599 0)
(-0.00935604 -5.45164 0)
(-0.0123744 -5.42462 0)
(-0.0145238 -5.37529 0)
(-0.0153181 -5.28549 0)
(-0.0142274 -5.12251 0)
(-0.0109073 -4.8329 0)
(-0.00585861 -4.33883 0)
(-0.00250704 -3.23179 0)
(0.00226131 -3.24095 0)
(0.00578251 -4.34894 0)
(0.0111823 -4.8413 0)
(0.0146776 -5.12729 0)
(0.0157968 -5.28659 0)
(0.0149545 -5.37309 0)
(0.012698 -5.42007 0)
(0.00955309 -5.44564 0)
(0.00588076 -5.45897 0)
(0.00194079 -5.4646 0)
(-0.00209459 -5.46441 0)
(-0.0060488 -5.45844 0)