/*--------------------------------*- C++ -*----------------------------------*\
  =========                 |
  \\      /  F ield         | OpenFOAM: The Open Source CFD Toolbox
   \\    /   O peration     | Website:  https://openfoam.org
    \\  /    A nd           | Version:  6
     \\/     M anipulation  |
\*---------------------------------------------------------------------------*/
FoamFile
{
    version     2.0;
    format      ascii;
    class       volVectorField;
    location    "25";
    object      U;
}
// * * * * * * * * * * * * * * * * * * * * * * * * * * * * * * * * * * * * * //

dimensions      [0 1 -1 0 0 0 0];

internalField   nonuniform List<vector> 
130000
(
(-0.0187623 -0.34244 0)
(-0.0193777 -0.366176 0)
(-0.0199364 -0.389279 0)
(-0.0204418 -0.411696 0)
(-0.0208929 -0.433309 0)
(-0.0212966 -0.454012 0)
(-0.0216578 -0.473706 0)
(-0.021981 -0.492306 0)
(-0.0222705 -0.50974 0)
(-0.0225301 -0.525952 0)
(-0.0227637 -0.540905 0)
(-0.0229746 -0.554579 0)
(-0.0231658 -0.566974 0)
(-0.0233402 -0.578106 0)
(-0.0235 -0.588009 0)
(-0.0236472 -0.596732 0)
(-0.0237835 -0.604337 0)
(-0.0239102 -0.610897 0)
(-0.0240291 -0.616495 0)
(-0.0241407 -0.621218 0)
(-0.0203426 -0.340916 0)
(-0.0207865 -0.364736 0)
(-0.0212156 -0.387959 0)
(-0.0216283 -0.410499 0)
(-0.0220079 -0.432232 0)
(-0.022353 -0.453048 0)
(-0.022665 -0.472846 0)
(-0.0229461 -0.49154 0)
(-0.0231991 -0.509057 0)
(-0.0234271 -0.525342 0)
(-0.0236331 -0.540359 0)
(-0.0238202 -0.554088 0)
(-0.023991 -0.56653 0)
(-0.024148 -0.577702 0)
(-0.0242933 -0.587639 0)
(-0.0244284 -0.596391 0)
(-0.0245548 -0.604021 0)
(-0.0246737 -0.610603 0)
(-0.0247865 -0.61622 0)
(-0.0248941 -0.620957 0)
(-0.0225948 -0.340177 0)
(-0.0229476 -0.363985 0)
(-0.0232817 -0.387231 0)
(-0.0236012 -0.409813 0)
(-0.0238956 -0.431597 0)
(-0.024164 -0.452464 0)
(-0.0244075 -0.472314 0)
(-0.0246278 -0.491055 0)
(-0.0248272 -0.508615 0)
(-0.025008 -0.524939 0)
(-0.0251727 -0.53999 0)
(-0.0253238 -0.553748 0)
(-0.0254635 -0.566214 0)
(-0.0255937 -0.577407 0)
(-0.0257161 -0.587363 0)
(-0.0258323 -0.59613 0)
(-0.0259431 -0.603774 0)
(-0.0260497 -0.610368 0)
(-0.0261532 -0.615995 0)
(-0.0262544 -0.620741 0)
(-0.0257147 -0.339594 0)
(-0.0259119 -0.363421 0)
(-0.0261044 -0.386699 0)
(-0.0262947 -0.409318 0)
(-0.0264729 -0.431141 0)
(-0.026637 -0.45205 0)
(-0.0267873 -0.471938 0)
(-0.0269245 -0.490715 0)
(-0.0270498 -0.508307 0)
(-0.0271648 -0.524659 0)
(-0.0272712 -0.539732 0)
(-0.0273708 -0.553509 0)
(-0.0274652 -0.565991 0)
(-0.0275559 -0.577196 0)
(-0.0276441 -0.58716 0)
(-0.0277309 -0.595935 0)
(-0.0278169 -0.603584 0)
(-0.0279027 -0.610181 0)
(-0.0279893 -0.615811 0)
(-0.0280766 -0.620558 0)
(-0.0293106 -0.339327 0)
(-0.0293772 -0.363153 0)
(-0.0294401 -0.38644 0)
(-0.0295038 -0.409073 0)
(-0.0295625 -0.430913 0)
(-0.0296152 -0.45184 0)
(-0.0296628 -0.471746 0)
(-0.0297057 -0.490539 0)
(-0.029745 -0.508145 0)
(-0.029782 -0.524508 0)
(-0.0298181 -0.53959 0)
(-0.0298544 -0.553372 0)
(-0.0298923 -0.565856 0)
(-0.0299327 -0.577062 0)
(-0.0299765 -0.587025 0)
(-0.0300242 -0.595797 0)
(-0.030076 -0.603442 0)
(-0.0301322 -0.610035 0)
(-0.0301931 -0.615661 0)
(-0.0302582 -0.620403 0)
(-0.0332678 -0.339303 0)
(-0.0332086 -0.363137 0)
(-0.0331468 -0.386432 0)
(-0.0330878 -0.409072 0)
(-0.0330287 -0.430918 0)
(-0.0329696 -0.451848 0)
(-0.0329117 -0.471756 0)
(-0.032856 -0.49055 0)
(-0.0328038 -0.508155 0)
(-0.0327563 -0.524513 0)
(-0.0327147 -0.539589 0)
(-0.0326802 -0.553362 0)
(-0.0326536 -0.565836 0)
(-0.0326356 -0.57703 0)
(-0.0326266 -0.586981 0)
(-0.0326269 -0.595739 0)
(-0.0326362 -0.603371 0)
(-0.0326545 -0.609952 0)
(-0.0326815 -0.615564 0)
(-0.0327164 -0.620295 0)
(-0.0374335 -0.339505 0)
(-0.037264 -0.363355 0)
(-0.0370938 -0.386659 0)
(-0.0369247 -0.409301 0)
(-0.0367572 -0.431145 0)
(-0.0365923 -0.452071 0)
(-0.0364326 -0.471971 0)
(-0.0362797 -0.490754 0)
(-0.0361355 -0.508345 0)
(-0.0360014 -0.524687 0)
(-0.0358789 -0.539744 0)
(-0.0357692 -0.553497 0)
(-0.0356729 -0.565949 0)
(-0.0355907 -0.577119 0)
(-0.0355226 -0.587046 0)
(-0.0354688 -0.595782 0)
(-0.0354288 -0.603391 0)
(-0.035402 -0.60995 0)
(-0.035388 -0.615542 0)
(-0.0353857 -0.620255 0)
(-0.0417271 -0.33989 0)
(-0.0414649 -0.363769 0)
(-0.0411997 -0.387089 0)
(-0.0409329 -0.409737 0)
(-0.0406667 -0.431578 0)
(-0.0404039 -0.452495 0)
(-0.0401479 -0.472381 0)
(-0.0399015 -0.491146 0)
(-0.0396672 -0.508714 0)
(-0.039447 -0.52503 0)
(-0.0392426 -0.540058 0)
(-0.0390555 -0.55378 0)
(-0.0388865 -0.566199 0)
(-0.0387361 -0.577337 0)
(-0.0386045 -0.587231 0)
(-0.0384916 -0.595934 0)
(-0.0383967 -0.603512 0)
(-0.0383191 -0.610041 0)
(-0.0382582 -0.615605 0)
(-0.0382124 -0.620291 0)
(-0.0460998 -0.34045 0)
(-0.0457557 -0.364365 0)
(-0.0454056 -0.387706 0)
(-0.0450512 -0.410362 0)
(-0.0446956 -0.432201 0)
(-0.0443424 -0.453108 0)
(-0.0439964 -0.472977 0)
(-0.0436612 -0.491718 0)
(-0.0433401 -0.509258 0)
(-0.0430357 -0.525541 0)
(-0.0427502 -0.540532 0)
(-0.0424854 -0.554215 0)
(-0.0422423 -0.566594 0)
(-0.0420216 -0.57769 0)
(-0.0418236 -0.587542 0)
(-0.0416481 -0.596205 0)
(-0.0414943 -0.603743 0)
(-0.0413616 -0.610235 0)
(-0.0412491 -0.615764 0)
(-0.0411551 -0.620417 0)
(-0.0505043 -0.341148 0)
(-0.0500902 -0.365113 0)
(-0.0496673 -0.388484 0)
(-0.0492354 -0.411155 0)
(-0.0487988 -0.432997 0)
(-0.0483626 -0.453896 0)
(-0.0479328 -0.473747 0)
(-0.0475138 -0.492462 0)
(-0.0471096 -0.50997 0)
(-0.0467237 -0.526215 0)
(-0.0463588 -0.541164 0)
(-0.046017 -0.554802 0)
(-0.0456996 -0.567134 0)
(-0.0454077 -0.578182 0)
(-0.0451415 -0.587986 0)
(-0.044901 -0.5966 0)
(-0.0446856 -0.604093 0)
(-0.0444945 -0.61054 0)
(-0.0443267 -0.616027 0)
(-0.0441805 -0.620641 0)
(-0.0549415 -0.341973 0)
(-0.0544599 -0.365999 0)
(-0.0539668 -0.38941 0)
(-0.0534618 -0.412103 0)
(-0.0529493 -0.433952 0)
(-0.0524352 -0.454845 0)
(-0.0519262 -0.47468 0)
(-0.0514275 -0.49337 0)
(-0.0509438 -0.510843 0)
(-0.050479 -0.527049 0)
(-0.0500364 -0.541952 0)
(-0.0496186 -0.555541 0)
(-0.0492274 -0.56782 0)
(-0.0488638 -0.578814 0)
(-0.0485285 -0.588564 0)
(-0.0482215 -0.597126 0)
(-0.0479424 -0.604566 0)
(-0.0476903 -0.610963 0)
(-0.0474644 -0.616402 0)
(-0.047263 -0.62097 0)
(-0.0593684 -0.342912 0)
(-0.0588304 -0.367011 0)
(-0.0582772 -0.39047 0)
(-0.057707 -0.413193 0)
(-0.057125 -0.435055 0)
(-0.0565382 -0.455947 0)
(-0.0559544 -0.475768 0)
(-0.0553797 -0.494433 0)
(-0.0548193 -0.511873 0)
(-0.054278 -0.528037 0)
(-0.0537595 -0.542893 0)
(-0.0532668 -0.556429 0)
(-0.052802 -0.568653 0)
(-0.0523667 -0.579589 0)
(-0.0519616 -0.589281 0)
(-0.051587 -0.597783 0)
(-0.0512425 -0.605166 0)
(-0.0509275 -0.611508 0)
(-0.0506411 -0.616893 0)
(-0.0503818 -0.62141 0)
(-0.0638061 -0.343956 0)
(-0.0632128 -0.36814 0)
(-0.0625991 -0.391659 0)
(-0.0619651 -0.414419 0)
(-0.0613157 -0.4363 0)
(-0.0606587 -0.457195 0)
(-0.0600027 -0.477006 0)
(-0.0593544 -0.495649 0)
(-0.0587195 -0.513056 0)
(-0.0581034 -0.529178 0)
(-0.0575102 -0.543984 0)
(-0.0569435 -0.557466 0)
(-0.0564057 -0.569631 0)
(-0.0558985 -0.580507 0)
(-0.055423 -0.590136 0)
(-0.0549798 -0.598576 0)
(-0.0545687 -0.605898 0)
(-0.054189 -0.612179 0)
(-0.0538402 -0.617507 0)
(-0.0535208 -0.621967 0)
(-0.068236 -0.345108 0)
(-0.0675901 -0.369385 0)
(-0.0669197 -0.39297 0)
(-0.0662248 -0.415775 0)
(-0.0655107 -0.437682 0)
(-0.0647862 -0.458585 0)
(-0.0640602 -0.478388 0)
(-0.0633401 -0.497011 0)
(-0.0626324 -0.514386 0)
(-0.0619427 -0.530467 0)
(-0.0612758 -0.545225 0)
(-0.0606355 -0.558651 0)
(-0.0600246 -0.570756 0)
(-0.0594454 -0.581568 0)
(-0.0588989 -0.591132 0)
(-0.0583862 -0.599507 0)
(-0.0579071 -0.606763 0)
(-0.0574612 -0.61298 0)
(-0.0570481 -0.618245 0)
(-0.0566665 -0.622646 0)
(-0.0726671 -0.346349 0)
(-0.0719663 -0.370733 0)
(-0.0712394 -0.394395 0)
(-0.0704843 -0.417253 0)
(-0.0697065 -0.439193 0)
(-0.0689154 -0.46011 0)
(-0.0681205 -0.479912 0)
(-0.0673297 -0.498517 0)
(-0.0665498 -0.515863 0)
(-0.0657871 -0.531904 0)
(-0.0650467 -0.546613 0)
(-0.0643329 -0.559983 0)
(-0.0636487 -0.572026 0)
(-0.0629968 -0.582774 0)
(-0.0623786 -0.59227 0)
(-0.0617951 -0.600577 0)
(-0.0612467 -0.607764 0)
(-0.060733 -0.613914 0)
(-0.0602539 -0.619113 0)
(-0.0598082 -0.623449 0)
(-0.0770932 -0.347688 0)
(-0.0763412 -0.372187 0)
(-0.075558 -0.395935 0)
(-0.0747431 -0.418854 0)
(-0.0739017 -0.440833 0)
(-0.0730441 -0.461771 0)
(-0.0721803 -0.481575 0)
(-0.0713186 -0.500167 0)
(-0.0704664 -0.517486 0)
(-0.0696304 -0.533488 0)
(-0.0688161 -0.548149 0)
(-0.0680282 -0.561463 0)
(-0.06727 -0.573445 0)
(-0.0665444 -0.584126 0)
(-0.0658531 -0.593553 0)
(-0.0651976 -0.601789 0)
(-0.0645782 -0.608906 0)
(-0.063995 -0.614985 0)
(-0.0634479 -0.620115 0)
(-0.0629358 -0.624382 0)
(-0.0815062 -0.349119 0)
(-0.0807073 -0.373746 0)
(-0.0798705 -0.39759 0)
(-0.078997 -0.420579 0)
(-0.0780926 -0.442605 0)
(-0.0771685 -0.463568 0)
(-0.0762356 -0.483379 0)
(-0.0753026 -0.501961 0)
(-0.0743775 -0.519256 0)
(-0.0734675 -0.535222 0)
(-0.0725784 -0.549835 0)
(-0.0717152 -0.563094 0)
(-0.0708818 -0.575013 0)
(-0.0700812 -0.585627 0)
(-0.0693155 -0.594984 0)
(-0.0685862 -0.603147 0)
(-0.0678941 -0.610191 0)
(-0.0672394 -0.616196 0)
(-0.0666222 -0.621253 0)
(-0.0660418 -0.625449 0)
(-0.0859258 -0.350653 0)
(-0.0850785 -0.375416 0)
(-0.0841835 -0.399364 0)
(-0.0832487 -0.422431 0)
(-0.0822792 -0.444509 0)
(-0.0812872 -0.465504 0)
(-0.0802838 -0.485326 0)
(-0.0792785 -0.503902 0)
(-0.0782792 -0.521176 0)
(-0.0772939 -0.537106 0)
(-0.0763287 -0.551674 0)
(-0.0753889 -0.564877 0)
(-0.0744786 -0.576734 0)
(-0.0736013 -0.58728 0)
(-0.0727591 -0.596566 0)
(-0.0719541 -0.604655 0)
(-0.0711872 -0.611623 0)
(-0.0704587 -0.617552 0)
(-0.069769 -0.622533 0)
(-0.0691177 -0.626653 0)
(-0.090338 -0.352287 0)
(-0.0894387 -0.377195 0)
(-0.0884874 -0.401257 0)
(-0.0874916 -0.424409 0)
(-0.086457 -0.446548 0)
(-0.0853964 -0.467579 0)
(-0.0843218 -0.487417 0)
(-0.0832429 -0.505992 0)
(-0.0821684 -0.523246 0)
(-0.0811062 -0.539144 0)
(-0.0800631 -0.553667 0)
(-0.0790449 -0.566816 0)
(-0.0780558 -0.578612 0)
(-0.0770995 -0.589089 0)
(-0.0761788 -0.598302 0)
(-0.0752957 -0.606316 0)
(-0.0744515 -0.613206 0)
(-0.0736468 -0.619057 0)
(-0.0728821 -0.62396 0)
(-0.0721574 -0.628001 0)
(-0.0947611 -0.354015 0)
(-0.0938033 -0.379081 0)
(-0.0927913 -0.403268 0)
(-0.0917314 -0.426515 0)
(-0.0906291 -0.44872 0)
(-0.0894978 -0.469795 0)
(-0.0883498 -0.489655 0)
(-0.0871952 -0.508232 0)
(-0.0860432 -0.525471 0)
(-0.0849019 -0.541339 0)
(-0.0837787 -0.55582 0)
(-0.0826795 -0.568916 0)
(-0.081609 -0.58065 0)
(-0.0805713 -0.591059 0)
(-0.0795692 -0.600199 0)
(-0.0786053 -0.608135 0)
(-0.077681 -0.614946 0)
(-0.0767972 -0.620717 0)
(-0.0759545 -0.625538 0)
(-0.0751534 -0.629498 0)
(-0.0991717 -0.355844 0)
(-0.098161 -0.38108 0)
(-0.0970902 -0.405402 0)
(-0.0959661 -0.428752 0)
(-0.0947948 -0.451033 0)
(-0.0935907 -0.472157 0)
(-0.092367 -0.492044 0)
(-0.0911342 -0.510628 0)
(-0.089902 -0.527856 0)
(-0.088679 -0.543697 0)
(-0.0874727 -0.558137 0)
(-0.0862896 -0.571181 0)
(-0.0851348 -0.582854 0)
(-0.0840126 -0.593195 0)
(-0.0829262 -0.602261 0)
(-0.0818783 -0.610119 0)
(-0.0808707 -0.61685 0)
(-0.0799045 -0.622537 0)
(-0.0789807 -0.627274 0)
(-0.0781 -0.631149 0)
(-0.103592 -0.357785 0)
(-0.102527 -0.383202 0)
(-0.101392 -0.407668 0)
(-0.1002 -0.431131 0)
(-0.0989559 -0.453494 0)
(-0.0976756 -0.474674 0)
(-0.0963729 -0.494592 0)
(-0.0950587 -0.513186 0)
(-0.093743 -0.530407 0)
(-0.092435 -0.546223 0)
(-0.0911424 -0.560625 0)
(-0.0898721 -0.573619 0)
(-0.0886295 -0.585231 0)
(-0.0874192 -0.595504 0)
(-0.0862448 -0.604495 0)
(-0.0851093 -0.612275 0)
(-0.0840147 -0.618922 0)
(-0.0829625 -0.624525 0)
(-0.0819539 -0.629175 0)
(-0.0809899 -0.632962 0)
(-0.108012 -0.359839 0)
(-0.106888 -0.385448 0)
(-0.105689 -0.410069 0)
(-0.104427 -0.433653 0)
(-0.103109 -0.456107 0)
(-0.10175 -0.477348 0)
(-0.100366 -0.497304 0)
(-0.098967 -0.515913 0)
(-0.0975646 -0.533129 0)
(-0.0961681 -0.548925 0)
(-0.0947856 -0.56329 0)
(-0.0934244 -0.576235 0)
(-0.0920901 -0.587788 0)
(-0.0907879 -0.597993 0)
(-0.0895216 -0.606909 0)
(-0.0882945 -0.614609 0)
(-0.0871089 -0.621172 0)
(-0.0859668 -0.626687 0)
(-0.0848694 -0.631248 0)
(-0.0838182 -0.634943 0)
(-0.112451 -0.362005 0)
(-0.111259 -0.387819 0)
(-0.10999 -0.412607 0)
(-0.108654 -0.436322 0)
(-0.107257 -0.458875 0)
(-0.105816 -0.480186 0)
(-0.104346 -0.500186 0)
(-0.102859 -0.518815 0)
(-0.101366 -0.536031 0)
(-0.0998767 -0.551809 0)
(-0.0984001 -0.56614 0)
(-0.0969436 -0.579038 0)
(-0.0955134 -0.590533 0)
(-0.0941148 -0.60067 0)
(-0.092752 -0.609512 0)
(-0.0914288 -0.61713 0)
(-0.0901478 -0.623607 0)
(-0.0889111 -0.629033 0)
(-0.0877205 -0.633501 0)
(-0.0865777 -0.637101 0)
(-0.116885 -0.364287 0)
(-0.11563 -0.390322 0)
(-0.114291 -0.415288 0)
(-0.112879 -0.439145 0)
(-0.111401 -0.461806 0)
(-0.109874 -0.483196 0)
(-0.108314 -0.503246 0)
(-0.106734 -0.521901 0)
(-0.105146 -0.539121 0)
(-0.103559 -0.554883 0)
(-0.101984 -0.569184 0)
(-0.100427 -0.582037 0)
(-0.0988963 -0.593474 0)
(-0.0973965 -0.603545 0)
(-0.0959324 -0.612311 0)
(-0.0945082 -0.619847 0)
(-0.0931269 -0.626237 0)
(-0.0917909 -0.631571 0)
(-0.0905023 -0.635943 0)
(-0.0892631 -0.639444 0)
(-0.121339 -0.366702 0)
(-0.120017 -0.392969 0)
(-0.118602 -0.418125 0)
(-0.117108 -0.442134 0)
(-0.115542 -0.464912 0)
(-0.113924 -0.486387 0)
(-0.11227 -0.506494 0)
(-0.110592 -0.52518 0)
(-0.108903 -0.542409 0)
(-0.107214 -0.55816 0)
(-0.105534 -0.572432 0)
(-0.103872 -0.585241 0)
(-0.102235 -0.596623 0)
(-0.100629 -0.606627 0)
(-0.099058 -0.615317 0)
(-0.0975274 -0.62277 0)
(-0.0960403 -0.629071 0)
(-0.0945997 -0.634311 0)
(-0.0932076 -0.638584 0)
(-0.0918667 -0.641984 0)
(-0.125798 -0.369249 0)
(-0.124405 -0.395763 0)
(-0.122912 -0.421122 0)
(-0.121333 -0.445294 0)
(-0.119678 -0.468199 0)
(-0.117965 -0.489768 0)
(-0.116211 -0.509939 0)
(-0.11443 -0.528662 0)
(-0.112636 -0.545904 0)
(-0.110839 -0.561648 0)
(-0.109049 -0.575894 0)
(-0.107276 -0.588663 0)
(-0.105527 -0.59999 0)
(-0.103808 -0.609928 0)
(-0.102125 -0.618542 0)
(-0.100482 -0.625911 0)
(-0.0988833 -0.632121 0)
(-0.0973323 -0.637264 0)
(-0.0958312 -0.641436 0)
(-0.094383 -0.644729 0)
(-0.130285 -0.371932 0)
(-0.128812 -0.398711 0)
(-0.127234 -0.424287 0)
(-0.125564 -0.448635 0)
(-0.123812 -0.471677 0)
(-0.121998 -0.493348 0)
(-0.120139 -0.513591 0)
(-0.118249 -0.532358 0)
(-0.116343 -0.549619 0)
(-0.114432 -0.56536 0)
(-0.112526 -0.579584 0)
(-0.110635 -0.592314 0)
(-0.108767 -0.603587 0)
(-0.106929 -0.61346 0)
(-0.105127 -0.621998 0)
(-0.103365 -0.629282 0)
(-0.101649 -0.635399 0)
(-0.0999811 -0.640442 0)
(-0.0983646 -0.644509 0)
(-0.096803 -0.647693 0)
(-0.134777 -0.374762 0)
(-0.133224 -0.401822 0)
(-0.131559 -0.42763 0)
(-0.129795 -0.452166 0)
(-0.127942 -0.475356 0)
(-0.126022 -0.49714 0)
(-0.124052 -0.517462 0)
(-0.122048 -0.53628 0)
(-0.120023 -0.553566 0)
(-0.117991 -0.569309 0)
(-0.115962 -0.583514 0)
(-0.113947 -0.596208 0)
(-0.111954 -0.60743 0)
(-0.10999 -0.617237 0)
(-0.108061 -0.625698 0)
(-0.106174 -0.632896 0)
(-0.104332 -0.638918 0)
(-0.102541 -0.64386 0)
(-0.100802 -0.647819 0)
(-0.0991202 -0.650888 0)
(-0.139296 -0.377746 0)
(-0.137657 -0.405107 0)
(-0.135898 -0.431162 0)
(-0.134032 -0.455899 0)
(-0.132072 -0.47925 0)
(-0.130039 -0.501156 0)
(-0.127951 -0.521567 0)
(-0.125825 -0.540443 0)
(-0.123675 -0.55776 0)
(-0.121515 -0.573509 0)
(-0.119356 -0.5877 0)
(-0.117208 -0.600359 0)
(-0.115082 -0.611531 0)
(-0.112984 -0.621274 0)
(-0.110921 -0.629659 0)
(-0.108901 -0.636769 0)
(-0.106927 -0.642694 0)
(-0.105004 -0.647531 0)
(-0.103135 -0.651378 0)
(-0.101326 -0.654328 0)
(-0.14383 -0.380896 0)
(-0.142101 -0.408575 0)
(-0.140244 -0.434893 0)
(-0.138273 -0.459847 0)
(-0.1362 -0.48337 0)
(-0.134047 -0.505409 0)
(-0.131835 -0.525918 0)
(-0.129579 -0.544861 0)
(-0.127296 -0.562215 0)
(-0.125 -0.577976 0)
(-0.122703 -0.592156 0)
(-0.120415 -0.604785 0)
(-0.118147 -0.615908 0)
(-0.115907 -0.625587 0)
(-0.113703 -0.633895 0)
(-0.11154 -0.640917 0)
(-0.109426 -0.646743 0)
(-0.107363 -0.651472 0)
(-0.105357 -0.655202 0)
(-0.103413 -0.658028 0)
(-0.148397 -0.384219 0)
(-0.14657 -0.412237 0)
(-0.144608 -0.438837 0)
(-0.142523 -0.464022 0)
(-0.140328 -0.487731 0)
(-0.138048 -0.509916 0)
(-0.135703 -0.530533 0)
(-0.13331 -0.54955 0)
(-0.130885 -0.566949 0)
(-0.128444 -0.582727 0)
(-0.126 -0.596901 0)
(-0.123563 -0.609501 0)
(-0.121145 -0.620578 0)
(-0.118754 -0.630194 0)
(-0.116398 -0.638425 0)
(-0.114085 -0.645356 0)
(-0.111821 -0.651081 0)
(-0.10961 -0.655698 0)
(-0.107458 -0.659308 0)
(-0.10537 -0.662005 0)
(-0.152982 -0.387727 0)
(-0.151055 -0.416106 0)
(-0.148982 -0.443006 0)
(-0.146778 -0.468439 0)
(-0.144455 -0.492349 0)
(-0.14204 -0.514691 0)
(-0.139554 -0.535427 0)
(-0.137015 -0.554527 0)
(-0.13444 -0.571978 0)
(-0.131845 -0.58778 0)
(-0.129244 -0.601951 0)
(-0.126649 -0.614527 0)
(-0.12407 -0.62556 0)
(-0.121519 -0.635113 0)
(-0.119002 -0.643266 0)
(-0.116529 -0.650105 0)
(-0.114105 -0.655726 0)
(-0.111738 -0.660229 0)
(-0.10943 -0.663713 0)
(-0.107189 -0.666275 0)
(-0.157607 -0.391431 0)
(-0.155571 -0.420193 0)
(-0.153379 -0.447414 0)
(-0.151045 -0.473113 0)
(-0.148586 -0.497239 0)
(-0.146027 -0.519752 0)
(-0.14339 -0.540618 0)
(-0.140695 -0.559811 0)
(-0.137959 -0.577322 0)
(-0.1352 -0.593153 0)
(-0.132432 -0.607328 0)
(-0.129667 -0.619883 0)
(-0.126919 -0.630873 0)
(-0.124196 -0.640365 0)
(-0.121508 -0.648439 0)
(-0.118864 -0.655185 0)
(-0.116271 -0.660699 0)
(-0.113735 -0.665083 0)
(-0.111262 -0.668437 0)
(-0.108858 -0.670857 0)
(-0.162258 -0.395343 0)
(-0.160107 -0.424514 0)
(-0.157791 -0.452077 0)
(-0.155322 -0.478061 0)
(-0.152718 -0.50242 0)
(-0.150005 -0.525118 0)
(-0.147208 -0.546126 0)
(-0.144347 -0.565423 0)
(-0.141441 -0.583001 0)
(-0.138507 -0.59887 0)
(-0.13556 -0.613052 0)
(-0.132616 -0.62559 0)
(-0.129685 -0.636539 0)
(-0.126779 -0.64597 0)
(-0.123909 -0.653966 0)
(-0.121083 -0.660617 0)
(-0.118309 -0.666021 0)
(-0.115594 -0.670281 0)
(-0.112944 -0.673499 0)
(-0.110367 -0.675772 0)
(-0.166956 -0.399477 0)
(-0.164681 -0.429083 0)
(-0.162229 -0.457011 0)
(-0.159614 -0.483301 0)
(-0.156855 -0.50791 0)
(-0.153978 -0.530809 0)
(-0.15101 -0.551972 0)
(-0.147972 -0.571383 0)
(-0.144883 -0.589039 0)
(-0.141763 -0.604951 0)
(-0.138626 -0.619147 0)
(-0.135489 -0.631671 0)
(-0.132364 -0.642583 0)
(-0.129263 -0.651955 0)
(-0.126198 -0.659871 0)
(-0.123177 -0.666424 0)
(-0.12021 -0.671715 0)
(-0.117304 -0.675847 0)
(-0.114466 -0.678923 0)
(-0.111703 -0.681041 0)
(-0.171685 -0.403845 0)
(-0.169282 -0.433915 0)
(-0.166689 -0.462234 0)
(-0.16392 -0.488851 0)
(-0.160995 -0.513729 0)
(-0.157945 -0.536845 0)
(-0.154795 -0.558178 0)
(-0.151568 -0.577715 0)
(-0.148284 -0.595458 0)
(-0.144965 -0.611422 0)
(-0.141625 -0.625638 0)
(-0.138282 -0.638153 0)
(-0.13495 -0.64903 0)
(-0.131641 -0.658343 0)
(-0.128366 -0.666179 0)
(-0.125138 -0.672633 0)
(-0.121964 -0.677807 0)
(-0.118854 -0.681805 0)
(-0.115814 -0.684733 0)
(-0.112854 -0.686688 0)
(-0.17647 -0.408464 0)
(-0.173927 -0.439029 0)
(-0.17118 -0.467765 0)
(-0.168246 -0.494732 0)
(-0.165144 -0.5199 0)
(-0.161908 -0.543251 0)
(-0.158563 -0.564768 0)
(-0.155134 -0.584444 0)
(-0.151642 -0.602285 0)
(-0.148109 -0.618309 0)
(-0.144553 -0.632552 0)
(-0.14099 -0.645063 0)
(-0.137436 -0.655907 0)
(-0.133904 -0.665163 0)
(-0.130406 -0.672918 0)
(-0.126955 -0.679271 0)
(-0.12356 -0.684324 0)
(-0.120231 -0.688184 0)
(-0.116976 -0.690956 0)
(-0.113805 -0.692739 0)
(-0.181296 -0.41335 0)
(-0.178606 -0.444442 0)
(-0.175699 -0.473623 0)
(-0.172589 -0.500967 0)
(-0.1693 -0.526447 0)
(-0.165865 -0.55005 0)
(-0.162313 -0.571768 0)
(-0.158668 -0.591598 0)
(-0.154955 -0.609548 0)
(-0.151194 -0.625642 0)
(-0.147405 -0.639918 0)
(-0.143607 -0.65243 0)
(-0.139815 -0.663245 0)
(-0.136044 -0.672445 0)
(-0.132307 -0.680119 0)
(-0.128618 -0.686368 0)
(-0.124987 -0.691297 0)
(-0.121424 -0.695012 0)
(-0.117938 -0.697621 0)
(-0.11454 -0.699223 0)
(-0.186187 -0.41852 0)
(-0.183339 -0.450175 0)
(-0.180257 -0.479832 0)
(-0.176959 -0.507579 0)
(-0.173468 -0.533393 0)
(-0.16982 -0.557271 0)
(-0.166046 -0.579207 0)
(-0.16217 -0.599205 0)
(-0.158219 -0.617277 0)
(-0.154214 -0.633451 0)
(-0.150177 -0.647768 0)
(-0.146127 -0.660287 0)
(-0.14208 -0.671077 0)
(-0.138053 -0.680222 0)
(-0.134061 -0.687815 0)
(-0.130116 -0.693958 0)
(-0.126231 -0.698757 0)
(-0.122417 -0.702321 0)
(-0.118684 -0.704759 0)
(-0.115044 -0.70617 0)
(-0.191128 -0.423992 0)
(-0.188113 -0.456247 0)
(-0.184849 -0.486414 0)
(-0.181351 -0.514592 0)
(-0.177647 -0.540767 0)
(-0.173773 -0.564941 0)
(-0.169761 -0.587115 0)
(-0.165639 -0.607297 0)
(-0.161433 -0.625504 0)
(-0.157167 -0.64177 0)
(-0.152864 -0.656138 0)
(-0.148543 -0.66867 0)
(-0.144224 -0.679438 0)
(-0.139922 -0.68853 0)
(-0.135654 -0.696042 0)
(-0.131435 -0.702075 0)
(-0.127278 -0.70674 0)
(-0.123196 -0.710146 0)
(-0.119198 -0.712404 0)
(-0.115298 -0.713613 0)
(-0.196146 -0.429787 0)
(-0.192952 -0.462682 0)
(-0.189488 -0.493394 0)
(-0.185776 -0.522035 0)
(-0.181842 -0.548598 0)
(-0.177725 -0.573093 0)
(-0.173459 -0.595525 0)
(-0.169073 -0.615909 0)
(-0.164594 -0.634267 0)
(-0.160048 -0.650635 0)
(-0.155459 -0.665064 0)
(-0.150849 -0.677615 0)
(-0.146236 -0.688367 0)
(-0.14164 -0.697409 0)
(-0.137077 -0.704837 0)
(-0.132563 -0.710759 0)
(-0.128114 -0.715284 0)
(-0.123743 -0.718525 0)
(-0.11946 -0.720593 0)
(-0.115281 -0.721587 0)
(-0.201226 -0.435926 0)
(-0.197843 -0.469504 0)
(-0.194171 -0.500799 0)
(-0.190232 -0.529937 0)
(-0.186054 -0.556918 0)
(-0.181678 -0.581758 0)
(-0.17714 -0.604472 0)
(-0.172471 -0.625077 0)
(-0.1677 -0.643602 0)
(-0.162854 -0.660088 0)
(-0.157958 -0.674586 0)
(-0.153036 -0.687166 0)
(-0.148109 -0.697906 0)
(-0.143196 -0.706899 0)
(-0.138315 -0.714245 0)
(-0.133485 -0.720052 0)
(-0.128722 -0.724432 0)
(-0.12404 -0.727499 0)
(-0.119451 -0.729366 0)
(-0.114972 -0.730133 0)
(-0.206397 -0.442431 0)
(-0.202809 -0.476739 0)
(-0.198912 -0.508659 0)
(-0.194728 -0.538329 0)
(-0.190288 -0.56576 0)
(-0.185634 -0.590975 0)
(-0.180805 -0.613994 0)
(-0.175832 -0.634842 0)
(-0.170748 -0.653553 0)
(-0.16558 -0.670169 0)
(-0.160355 -0.684751 0)
(-0.155098 -0.697367 0)
(-0.149832 -0.708101 0)
(-0.144578 -0.717048 0)
(-0.139356 -0.724311 0)
(-0.134185 -0.73 0)
(-0.129083 -0.734229 0)
(-0.124066 -0.737114 0)
(-0.119148 -0.738768 0)
(-0.114346 -0.739293 0)
(-0.211644 -0.449326 0)
(-0.207841 -0.484414 0)
(-0.203707 -0.517001 0)
(-0.199263 -0.547244 0)
(-0.194544 -0.57516 0)
(-0.189595 -0.60078 0)
(-0.184453 -0.624132 0)
(-0.179156 -0.645247 0)
(-0.173735 -0.664162 0)
(-0.168221 -0.680927 0)
(-0.162642 -0.695604 0)
(-0.157025 -0.708267 0)
(-0.151394 -0.719002 0)
(-0.145773 -0.727906 0)
(-0.140183 -0.735086 0)
(-0.134645 -0.740654 0)
(-0.129177 -0.744726 0)
(-0.1238 -0.747419 0)
(-0.118527 -0.748847 0)
(-0.113377 -0.749115 0)
(-0.216997 -0.456637 0)
(-0.212962 -0.492557 0)
(-0.208572 -0.52586 0)
(-0.203849 -0.556718 0)
(-0.198831 -0.585157 0)
(-0.193564 -0.611216 0)
(-0.188089 -0.634931 0)
(-0.182442 -0.656338 0)
(-0.17666 -0.675481 0)
(-0.170773 -0.692413 0)
(-0.164813 -0.7072 0)
(-0.158808 -0.71992 0)
(-0.152784 -0.730663 0)
(-0.146767 -0.739529 0)
(-0.140779 -0.746627 0)
(-0.134844 -0.75207 0)
(-0.128983 -0.755977 0)
(-0.123216 -0.758468 0)
(-0.117559 -0.759657 0)
(-0.112034 -0.75965 0)
(-0.222443 -0.46439 0)
(-0.218164 -0.5012 0)
(-0.213504 -0.53527 0)
(-0.208487 -0.566789 0)
(-0.20315 -0.595792 0)
(-0.197543 -0.622328 0)
(-0.19171 -0.646438 0)
(-0.18569 -0.668166 0)
(-0.179519 -0.687561 0)
(-0.173232 -0.704681 0)
(-0.166861 -0.719595 0)
(-0.160438 -0.732386 0)
(-0.153989 -0.743146 0)
(-0.147544 -0.751978 0)
(-0.141126 -0.758994 0)
(-0.134763 -0.764309 0)
(-0.128475 -0.768044 0)
(-0.122287 -0.770321 0)
(-0.116216 -0.771256 0)
(-0.110285 -0.770955 0)
(-0.228012 -0.472614 0)
(-0.223471 -0.510374 0)
(-0.218521 -0.545266 0)
(-0.213187 -0.577497 0)
(-0.207509 -0.60711 0)
(-0.201539 -0.634163 0)
(-0.195322 -0.658705 0)
(-0.188899 -0.680787 0)
(-0.18231 -0.700461 0)
(-0.175591 -0.717792 0)
(-0.168777 -0.732853 0)
(-0.161902 -0.745729 0)
(-0.154994 -0.756516 0)
(-0.148085 -0.76532 0)
(-0.141203 -0.772255 0)
(-0.134374 -0.777439 0)
(-0.127625 -0.780994 0)
(-0.120981 -0.783044 0)
(-0.11446 -0.783708 0)
(-0.10809 -0.783092 0)
(-0.233696 -0.481338 0)
(-0.228879 -0.520113 0)
(-0.223623 -0.555887 0)
(-0.217953 -0.588884 0)
(-0.211912 -0.619157 0)
(-0.205553 -0.646772 0)
(-0.198924 -0.671788 0)
(-0.19207 -0.694259 0)
(-0.18503 -0.714245 0)
(-0.177846 -0.731813 0)
(-0.170553 -0.747043 0)
(-0.163188 -0.760021 0)
(-0.155783 -0.770847 0)
(-0.148372 -0.77963 0)
(-0.140984 -0.786485 0)
(-0.133652 -0.791534 0)
(-0.126402 -0.794902 0)
(-0.119262 -0.796712 0)
(-0.112254 -0.797085 0)
(-0.105408 -0.79613 0)
(-0.239524 -0.490592 0)
(-0.234412 -0.530452 0)
(-0.228828 -0.567173 0)
(-0.222799 -0.600996 0)
(-0.216369 -0.631984 0)
(-0.209593 -0.660212 0)
(-0.202522 -0.685747 0)
(-0.195202 -0.708648 0)
(-0.187677 -0.728982 0)
(-0.179988 -0.746819 0)
(-0.172177 -0.762242 0)
(-0.164281 -0.775342 0)
(-0.156336 -0.786221 0)
(-0.148379 -0.794991 0)
(-0.140443 -0.801769 0)
(-0.132561 -0.80668 0)
(-0.124766 -0.809849 0)
(-0.117088 -0.811404 0)
(-0.109551 -0.811467 0)
(-0.102188 -0.810147 0)
(-0.24549 -0.500409 0)
(-0.240068 -0.541428 0)
(-0.234138 -0.579166 0)
(-0.227729 -0.613881 0)
(-0.220884 -0.645645 0)
(-0.213662 -0.674544 0)
(-0.206116 -0.700648 0)
(-0.198295 -0.724027 0)
(-0.190245 -0.744749 0)
(-0.182011 -0.76289 0)
(-0.173636 -0.778536 0)
(-0.165163 -0.791781 0)
(-0.156631 -0.80273 0)
(-0.148079 -0.811496 0)
(-0.139544 -0.8182 0)
(-0.131064 -0.822969 0)
(-0.122675 -0.82593 0)
(-0.11441 -0.827212 0)
(-0.106297 -0.82694 0)
(-0.0983713 -0.825225 0)
(-0.251626 -0.51082 0)
(-0.245872 -0.553079 0)
(-0.239574 -0.59191 0)
(-0.232758 -0.62759 0)
(-0.22547 -0.660199 0)
(-0.217769 -0.689831 0)
(-0.209712 -0.716565 0)
(-0.201349 -0.740474 0)
(-0.19273 -0.761632 0)
(-0.183904 -0.780119 0)
(-0.174916 -0.796022 0)
(-0.165813 -0.809438 0)
(-0.156639 -0.820476 0)
(-0.147436 -0.82925 0)
(-0.138247 -0.835884 0)
(-0.129113 -0.840506 0)
(-0.120074 -0.843246 0)
(-0.111168 -0.844236 0)
(-0.102426 -0.843603 0)
(-0.093888 -0.841459 0)
(-0.257928 -0.521858 0)
(-0.251826 -0.565442 0)
(-0.24514 -0.60545 0)
(-0.237894 -0.642177 0)
(-0.230133 -0.675708 0)
(-0.221919 -0.706147 0)
(-0.21331 -0.733578 0)
(-0.204361 -0.758079 0)
(-0.195124 -0.779728 0)
(-0.185652 -0.798607 0)
(-0.175995 -0.814807 0)
(-0.166203 -0.828427 0)
(-0.156325 -0.839576 0)
(-0.146409 -0.848372 0)
(-0.136502 -0.85494 0)
(-0.126651 -0.85941 0)
(-0.116899 -0.861915 0)
(-0.107291 -0.86259 0)
(-0.0978616 -0.861564 0)
(-0.0886555 -0.858951 0)
(-0.264426 -0.533555 0)
(-0.257957 -0.578558 0)
(-0.250858 -0.619836 0)
(-0.243153 -0.657699 0)
(-0.234885 -0.69224 0)
(-0.226118 -0.723569 0)
(-0.216913 -0.751775 0)
(-0.207328 -0.77694 0)
(-0.197417 -0.799144 0)
(-0.187239 -0.818473 0)
(-0.176848 -0.835017 0)
(-0.166299 -0.848877 0)
(-0.155646 -0.860164 0)
(-0.144945 -0.868997 0)
(-0.134246 -0.875503 0)
(-0.123605 -0.879814 0)
(-0.11307 -0.882068 0)
(-0.10269 -0.8824 0)
(-0.0925077 -0.880944 0)
(-0.0825711 -0.877816 0)
(-0.271124 -0.545945 0)
(-0.264269 -0.592467 0)
(-0.256737 -0.635118 0)
(-0.248545 -0.67422 0)
(-0.239735 -0.709871 0)
(-0.230373 -0.742186 0)
(-0.220522 -0.771258 0)
(-0.210242 -0.79717 0)
(-0.199595 -0.820005 0)
(-0.188641 -0.839849 0)
(-0.17744 -0.856792 0)
(-0.166056 -0.870936 0)
(-0.154547 -0.882392 0)
(-0.142976 -0.89128 0)
(-0.131403 -0.897729 0)
(-0.119887 -0.901873 0)
(-0.108487 -0.903853 0)
(-0.0972582 -0.903808 0)
(-0.0862478 -0.901876 0)
(-0.0755115 -0.898177 0)
(-0.278053 -0.55906 0)
(-0.270792 -0.607208 0)
(-0.2628 -0.651347 0)
(-0.254088 -0.691806 0)
(-0.244695 -0.728684 0)
(-0.234688 -0.762097 0)
(-0.224133 -0.79214 0)
(-0.213094 -0.818898 0)
(-0.201635 -0.842453 0)
(-0.189825 -0.862888 0)
(-0.17773 -0.880294 0)
(-0.165419 -0.894774 0)
(-0.152959 -0.906435 0)
(-0.140422 -0.915399 0)
(-0.127875 -0.921796 0)
(-0.115389 -0.925762 0)
(-0.103029 -0.92744 0)
(-0.0908602 -0.926976 0)
(-0.0789373 -0.924512 0)
(-0.0673233 -0.920174 0)
(-0.28522 -0.572926 0)
(-0.277537 -0.622822 0)
(-0.269061 -0.668581 0)
(-0.259795 -0.710533 0)
(-0.249774 -0.748772 0)
(-0.239065 -0.783414 0)
(-0.227739 -0.814553 0)
(-0.215863 -0.842272 0)
(-0.203509 -0.866649 0)
(-0.190749 -0.887767 0)
(-0.177659 -0.905713 0)
(-0.164316 -0.920588 0)
(-0.150795 -0.932497 0)
(-0.137179 -0.941561 0)
(-0.123545 -0.94791 0)
(-0.109975 -0.951682 0)
(-0.0965462 -0.953025 0)
(-0.0833339 -0.952087 0)
(-0.0704015 -0.949022 0)
(-0.0578219 -0.94396 0)
(-0.292658 -0.587571 0)
(-0.284533 -0.63935 0)
(-0.275542 -0.686882 0)
(-0.26568 -0.730486 0)
(-0.254974 -0.770245 0)
(-0.243496 -0.80627 0)
(-0.231319 -0.83865 0)
(-0.218516 -0.867463 0)
(-0.205165 -0.892783 0)
(-0.191348 -0.91469 0)
(-0.177147 -0.933266 0)
(-0.16265 -0.948605 0)
(-0.147942 -0.960812 0)
(-0.133117 -0.970004 0)
(-0.118266 -0.97631 0)
(-0.103483 -0.979869 0)
(-0.0888585 -0.980831 0)
(-0.0744822 -0.979353 0)
(-0.0604292 -0.975597 0)
(-0.046784 -0.969705 0)
(-0.30038 -0.603021 0)
(-0.291788 -0.656844 0)
(-0.282248 -0.706329 0)
(-0.271737 -0.751772 0)
(-0.260278 -0.793239 0)
(-0.247946 -0.830826 0)
(-0.23482 -0.864614 0)
(-0.220983 -0.894676 0)
(-0.206518 -0.921079 0)
(-0.191517 -0.943895 0)
(-0.176073 -0.963202 0)
(-0.160283 -0.979089 0)
(-0.144246 -0.991651 0)
(-0.128068 -1.001 0)
(-0.111853 -1.00727 0)
(-0.0957116 -1.01059 0)
(-0.0797501 -1.01112 0)
(-0.0640746 -1.00902 0)
(-0.0487751 -1.00446 0)
(-0.033952 -0.997603 0)
(-0.30841 -0.619306 0)
(-0.299318 -0.675366 0)
(-0.289169 -0.727027 0)
(-0.277935 -0.774533 0)
(-0.265629 -0.817925 0)
(-0.252332 -0.857282 0)
(-0.238135 -0.892673 0)
(-0.223128 -0.924158 0)
(-0.207409 -0.9518 0)
(-0.191078 -0.975661 0)
(-0.174241 -0.995814 0)
(-0.157006 -1.01234 0)
(-0.139486 -1.02532 0)
(-0.121799 -1.03487 0)
(-0.104066 -1.0411 0)
(-0.0864131 -1.04415 0)
(-0.0689644 -1.04418 0)
(-0.0518447 -1.04135 0)
(-0.0351627 -1.03586 0)
(-0.0190382 -1.02788 0)
(-0.316746 -0.636491 0)
(-0.307102 -0.695021 0)
(-0.296261 -0.749128 0)
(-0.284185 -0.798976 0)
(-0.270896 -0.844549 0)
(-0.256484 -0.885911 0)
(-0.241051 -0.923121 0)
(-0.224708 -0.956221 0)
(-0.207565 -0.985267 0)
(-0.189735 -1.01032 0)
(-0.171338 -1.03143 0)
(-0.152496 -1.04868 0)