/*--------------------------------*- C++ -*----------------------------------*\
  =========                 |
  \\      /  F ield         | OpenFOAM: The Open Source CFD Toolbox
   \\    /   O peration     | Website:  https://openfoam.org
    \\  /    A nd           | Version:  6
     \\/     M anipulation  |
\*---------------------------------------------------------------------------*/
FoamFile
{
    version     2.0;
    format      ascii;
    class       volScalarField;
    location    "10";
    object      epsilon;
}
// * * * * * * * * * * * * * * * * * * * * * * * * * * * * * * * * * * * * * //

dimensions      [0 2 -3 0 0 0 0];

internalField   nonuniform List<scalar> 
130000
(
16.2499
16.1511
15.9774
15.7409
15.453
15.1291
14.7859
14.4399
14.1057
13.7949
13.5159
13.2735
13.0694
12.9033
12.7727
12.6743
12.6042
12.5584
12.5332
12.5253
16.275
16.1793
16.0068
15.7696
15.48
15.1535
14.8075
14.4588
14.1222
13.8095
13.5289
13.2853
13.0806
12.9142
12.7836
12.6854
12.6156
12.5703
12.5456
12.5383
16.2939
16.2006
16.0292
15.7916
15.5003
15.1715
14.8227
14.4712
14.132
13.817
13.5344
13.2894
13.0838
12.9166
12.7856
12.6872
12.6173
12.5721
12.5477
12.5407
16.3073
16.215
16.0435
15.8046
15.5111
15.1796
14.8285
14.475
14.1343
13.8179
13.5341
13.2883
13.082
12.9144
12.7831
12.6846
12.6149
12.5699
12.5459
12.5392
16.3157
16.223
16.0501
15.809
15.5134
15.1801
14.8275
14.473
14.1315
13.8147
13.5311
13.2853
13.0791
12.9118
12.7809
12.6831
12.6145
12.5704
12.5469
12.5405
16.3205
16.2263
16.051
15.8078
15.5107
15.1765
14.8232
14.468
14.1262
13.8095
13.5261
13.2808
13.0751
12.9084
12.7783
12.6814
12.6141
12.5707
12.5477
12.5415
16.3236
16.2272
16.0494
15.8045
15.5059
15.1705
14.8163
14.4609
14.119
13.8026
13.5198
13.2752
13.0703
12.9044
12.775
12.6787
12.6116
12.5685
12.5457
12.54
16.3258
16.2272
16.047
15.8
15.4997
15.163
14.8081
14.4523
14.1106
13.7947
13.5126
13.2689
13.0649
12.9
12.7713
12.6755
12.6081
12.5652
12.5428
12.5376
16.3281
16.2272
16.0446
15.7954
15.4932
15.1551
14.7994
14.4433
14.1018
13.7864
13.5051
13.2623
13.0594
12.8954
12.7677
12.6726
12.606
12.5637
12.5418
12.5373
16.3307
16.2271
16.0426
15.791
15.4868
15.1473
14.7907
14.4343
14.0929
13.7781
13.4976
13.2558
13.054
12.8911
12.7644
12.6703
12.6046
12.5633
12.5422
12.5382
16.334
16.2278
16.0414
15.7872
15.4809
15.1399
14.7823
14.4255
14.0843
13.77
13.4904
13.2496
13.0489
12.8872
12.7617
12.6689
12.6042
12.5634
12.5422
12.5383
16.3383
16.2296
16.0404
15.7839
15.4756
15.133
14.7744
14.4172
14.076
13.7623
13.4834
13.2437
13.0441
12.8834
12.759
12.6673
12.6035
12.5626
12.5417
12.5376
16.3431
16.2319
16.0399
15.7813
15.471
15.1268
14.7672
14.4094
14.0683
13.755
13.4769
13.2381
13.0396
12.88
12.7564
12.665
12.6017
12.5616
12.5416
12.537
16.349
16.2355
16.0408
15.7799
15.4673
15.1214
14.7606
14.4023
14.0611
13.7482
13.4709
13.233
13.0355
12.877
12.7543
12.6634
12.6001
12.5609
12.5406
12.5365
16.3556
16.2398
16.0428
15.7796
15.4647
15.1168
14.7547
14.3957
14.0544
13.7419
13.4652
13.2283
13.0319
12.8745
12.7531
12.6631
12.6001
12.5605
12.5404
12.5367
16.3626
16.2447
16.0452
15.7797
15.4627
15.1129
14.7495
14.3898
14.0483
13.736
13.46
13.224
13.0286
12.8722
12.7518
12.6624
12.5999
12.5605
12.5405
12.5367
16.37
16.2503
16.0484
15.7803
15.4617
15.1099
14.7451
14.3846
14.0428
13.7307
13.4552
13.22
13.0255
12.8701
12.7506
12.6619
12.6
12.5611
12.5414
12.5377
16.3793
16.2574
16.053
15.7822
15.4613
15.1078
14.7415
14.3801
14.0379
13.7258
13.4508
13.2162
13.0226
12.8683
12.7501
12.663
12.6024
12.5646
12.5457
12.5426
16.3903
16.2661
16.059
15.7854
15.4617
15.1069
14.7389
14.3764
14.0336
13.7214
13.4466
13.2125
13.0195
12.8657
12.7479
12.6618
12.6022
12.5651
12.547
12.5444
16.4025
16.2761
16.0663
15.7898
15.4635
15.1065
14.7371
14.3733
14.0299
13.7175
13.4428
13.2091
13.0166
12.8635
12.7464
12.6603
12.6009
12.5641
12.5456
12.543
16.416
16.2874
16.0747
15.7954
15.4663
15.1067
14.7361
14.371
14.0268
13.7141
13.4395
13.2061
13.0141
12.8617
12.7456
12.6601
12.6011
12.5643
12.5454
12.5426
16.4307
16.2999
16.0845
15.8021
15.4702
15.1082
14.7357
14.3693
14.0243
13.7112
13.4366
13.2034
13.0118
12.8597
12.7437
12.6584
12.5997
12.5635
12.5458
12.5435
16.4469
16.3138
16.0955
15.8101
15.4751
15.1104
14.7356
14.3683
14.0224
13.7088
13.4341
13.2012
13.01
12.8585
12.7425
12.6574
12.599
12.5632
12.5459
12.5436
16.4642
16.3289
16.1078
15.8192
15.4812
15.1138
14.7369
14.3683
14.0213
13.707
13.432
13.1993
13.0085
12.8575
12.7419
12.6572
12.599
12.5633
12.5456
12.5436
16.4827
16.3453
16.1212
15.8293
15.4881
15.1179
14.7387
14.3683
14.0202
13.7053
13.4302
13.1975
13.0071
12.8565
12.7417
12.6577
12.6001
12.5651
12.5487
12.5476
16.5026
16.363
16.1359
15.8407
15.4961
15.1229
14.741
14.3684
14.0193
13.7039
13.4286
13.1961
13.0062
12.8563
12.7427
12.66
12.6035
12.5692
12.5534
12.5524
16.5243
16.3823
16.152
15.8532
15.5052
15.1288
14.7443
14.3698
14.0195
13.7031
13.4274
13.1949
13.0053
12.856
12.7428
12.661
12.605
12.5707
12.5548
12.5541
16.5473
16.4029
16.1693
15.8669
15.5152
15.1355
14.7483
14.3717
14.0203
13.7028
13.4266
13.1941
13.0048
12.8554
12.7426
12.6606
12.6046
12.5701
12.5543
12.5532
16.5715
16.4247
16.1877
15.8816
15.5262
15.143
14.7529
14.374
14.0209
13.703
13.4267
13.194
13.0045
12.8546
12.742
12.6603
12.6048
12.5708
12.5546
12.5523
16.5969
16.4478
16.2074
15.8974
15.5381
15.1513
14.7581
14.3768
14.0217
13.7033
13.4267
13.1939
13.0039
12.8543
12.7415
12.6596
12.6048
12.5718
12.5559
12.5548
16.6235
16.4721
16.2283
15.9144
15.5511
15.1607
14.7643
14.3803
14.0233
13.7034
13.4264
13.1934
13.0033
12.8543
12.7411
12.659
12.6044
12.5723
12.5577
12.5572
16.6516
16.4979
16.2507
15.9327
15.5653
15.171
14.7713
14.3846
14.0255
13.7041
13.4262
13.1924
13.0024
12.853
12.7399
12.6583
12.6035
12.5719
12.5575
12.5572
16.6812
16.5253
16.2745
15.9524
15.5808
15.1825
14.7793
14.3896
14.0282
13.705
13.4257
13.1913
13.001
12.8516
12.7386
12.6574
12.6032
12.5709
12.5569
12.5567
16.7124
16.5544
16.3001
15.9738
15.5977
15.1953
14.7884
14.3957
14.0318
13.7067
13.4258
13.1911
13.0005
12.8509
12.7379
12.6566
12.6019
12.5692
12.5552
12.5549
16.7455
16.5854
16.3275
15.9968
15.6163
15.2095
14.7988
14.4029
14.0365
13.7095
13.4272
13.1912
13.0001
12.8504
12.7374
12.656
12.6014
12.5691
12.5545
12.5541
16.7807
16.6185
16.3569
16.0218
15.6364
15.2252
14.8104
14.4112
14.0422
13.7133
13.4298
13.1932
13.0021
12.853
12.7404
12.6592
12.6046
12.5725
12.5579
12.5576
16.8181
16.6538
16.3886
16.0487
15.6584
15.2424
14.8234
14.4207
14.0489
13.7179
13.4331
13.1959
13.0049
12.8562
12.7438
12.6626
12.6081
12.5761
12.5616
12.5613
16.8579
16.6917
16.4226
16.0779
15.6825
15.2614
14.8379
14.4314
14.0565
13.7232
13.4367
13.1984
13.0067
12.8577
12.7451
12.665
12.6113
12.5799
12.5658
12.5656
16.9005
16.7323
16.4593
16.1096
15.7088
15.2825
14.8543
14.4437
14.0654
13.7295
13.4409
13.2009
13.0079
12.858
12.7454
12.6661
12.613
12.5818
12.5677
12.5673
16.946
16.776
16.4991
16.1442
15.7378
15.306
14.8727
14.4578
14.076
13.7372
13.4464
13.2047
13.0102
12.8592
12.7464
12.6669
12.6136
12.5823
12.568
12.5675
16.9948
16.8231
16.5421
16.182
15.7697
15.3322
14.8936
14.4742
14.0886
13.7469
13.4538
13.2103
13.0145
12.8623
12.7487
12.6683
12.6146
12.5831
12.5688
12.5682
17.0473
16.874
16.5889
16.2232
15.8048
15.3612
14.9172
14.493
14.1036
13.7587
13.4632
13.2181
13.021
12.8678
12.7533
12.6716
12.6173
12.5853
12.5707
12.5698
17.1046
16.9292
16.6397
16.2682
15.8434
15.3935
14.9437
14.5144
14.1209
13.7728
13.4749
13.228
13.0297
12.8757
12.7605
12.6785
12.6238
12.5916
12.5767
12.5754
17.1651
16.9884
16.6946
16.3171
15.8857
15.4292
14.9732
14.5387
14.1408
13.7892
13.4887
13.24
13.0403
12.8855
12.7698
12.6874
12.6325
12.6
12.5847
12.583
17.2301
17.0522
16.7541
16.3705
15.9321
15.4686
15.0062
14.566
14.1633
13.8081
13.5048
13.254
13.053
12.8972
12.7809
12.6981
12.6428
12.61
12.5944
12.5922
17.2999
17.1211
16.8187
16.4287
15.9829
15.5121
15.0428
14.5965
14.1889
13.8297
13.5233
13.2702
13.0677
12.9108
12.7938
12.7104
12.6548
12.6216
12.6056
12.6028
17.3752
17.1956
16.8888
16.4922
16.0387
15.5601
15.0835
14.6308
14.2177
13.8542
13.5445
13.2889
13.0846
12.9265
12.8086
12.7247
12.6686
12.6349
12.6184
12.6151
17.4564
17.2765
16.9652
16.5616
16.1001
15.6132
15.1287
14.6691
14.2502
13.8819
13.5686
13.3104
13.104
12.9446
12.8257
12.7411
12.6844
12.6501
12.6331
12.6291
17.5444
17.3644
17.0486
16.6377
16.1677
15.6719
15.1791
14.712
14.2869
13.9135
13.5961
13.3349
13.1264
12.9653
12.8454
12.7599
12.7025
12.6676
12.65
12.6451
17.6401
17.4602
17.1398
16.7213
16.2421
15.7369
15.2352
14.7601
14.3281
13.9492
13.6275
13.3629
13.152
12.9892
12.868
12.7815
12.7233
12.6877
12.6694
12.6636
17.7444
17.5649
17.2397
16.8132
16.3243
15.8091
15.2977
14.814
14.3746
13.9896
13.6632
13.395
13.1813
13.0166
12.8939
12.8064
12.7473
12.7109
12.6919
12.6853
17.858
17.6793
17.3492
16.9142
16.4151
15.889
15.3673
14.8743
14.427
14.0355
13.7038
13.4316
13.215
13.048
12.9237
12.8349
12.7747
12.7373
12.7171
12.7094
17.9817
17.8043
17.4692
17.0253
16.5153
15.9777
15.445
14.942
14.4861
14.0874
13.7501
13.4735
13.2536
13.0842
12.958
12.8678
12.8064
12.7676
12.7462
12.7372
18.1165
17.9409
17.6009
17.1477
16.6261
16.0763
15.5317
15.018
14.5528
14.1464
13.8029
13.5216
13.298
13.1258
12.9976
12.9057
12.8429
12.8028
12.78
12.7696
18.2636
18.0907
17.7458
17.2828
16.749
16.1862
15.6288
15.1035
14.6282
14.2135
13.8633
13.5766
13.3491
13.1739
13.0434
12.9496
12.8852
12.8435
12.819
12.8069
18.4246
18.2553
17.9055
17.4324
16.8856
16.3088
15.7378
15.1999
14.7137
14.2899
13.9324
13.64
13.408
13.2295
13.0963
13.0005
12.9342
12.8907
12.8642
12.85
18.6014
18.4365
18.0821
17.5985
17.0378
16.446
15.8603
15.3089
14.811
14.3773
14.0117
13.713
13.4761
13.2939
13.1578
13.0596
12.9912
12.9454
12.9165
12.8996
18.7959
18.6368
18.278
17.7833
17.208
16.6001
15.9986
15.4326
14.9219
14.4774
14.1031
13.7975
13.5552
13.3688
13.2295
13.1285
13.0576
13.0095
12.9779
12.958
19.0105
18.8586
18.4957
17.9896
17.3988
16.7737
16.1552
15.5734
15.0488
14.5926
14.2087
13.8955
13.6473
13.4562
13.3133
13.2093
13.1356
13.0846
13.05
13.0268
19.248
19.1052
18.7387
18.2207
17.6134
16.97
16.3331
15.7343
15.1946
14.7256
14.3313
14.0097
13.755
13.5588
13.4117
13.3042
13.2274
13.1732
13.1352
13.108
19.5116
19.38
19.0107
18.4806
17.8559
17.1929
16.5362
15.9189
15.3629
14.88
14.4742
14.1434
13.8814
13.6795
13.5278
13.4164
13.3359
13.278
13.2359
13.2042
19.8051
19.6875
19.3164
18.774
18.131
17.447
16.7691
16.1318
15.5579
15.0598
14.6415
14.3006
14.0306
13.8223
13.6654
13.5495
13.4648
13.4026
13.3557
13.3184
20.1332
20.033
19.6615
19.1068
18.4446
17.7382
17.0374
16.3785
15.7854
15.2707
14.8386
14.4866
14.2077
13.9922
13.8294
13.7083
13.6186
13.5513
13.4986
13.4547
20.5014
20.4229
20.0529
19.4861
18.804
18.0738
17.3485
16.6663
16.0521
15.5194
15.0722
14.7079
14.4191
14.1956
14.0261
13.8989
13.8034
13.7299
13.6703
13.6183
20.9165
20.865
20.499
19.9209
19.2182
18.463
17.7115
17.0042
16.3673
15.8148
15.3511
14.9733
14.6734
14.4409
14.2635
14.1293
14.0267
13.9458
13.8777
13.8159
21.3868
21.369
21.0107
20.4225
19.699
18.9176
18.1382
17.4039
16.7425
16.1686
15.6868
15.294
14.9818
14.7389
14.5525
14.4099
14.2989
14.2087
14.1302
14.0561
21.9224
21.9467
21.6011
21.005
20.2611
19.4527
18.6441
17.8811
17.1932
16.5961
16.0946
15.6852
15.3591
15.1044
14.9075
14.7548
14.6333
14.5317
14.44
14.3505
22.5378
22.6119
22.2871
21.687
20.9241
20.0885
19.2495
18.4562
17.7403
17.1182
16.5951
16.1675
15.8258
15.5575
15.348
15.183
15.0485
14.9323
14.8239
14.7147
23.2493
23.3877
23.0924
22.4933
21.7138
20.8518
19.982
19.1573
18.4118
17.7632
17.2169
16.7691
16.4099
16.1257
15.9012
15.7209
15.5699
15.435
15.3048
15.17
24.0778
24.299
24.0462
23.4563
22.6647
21.7785
20.8786
20.0225
19.2466
18.5702
17.9992
17.5295
17.1506
16.848
16.6051
16.4055
16.2331
16.0737
15.9148
15.7462
25.0507
25.3796
25.1878
24.6191
23.8233
22.9176
21.9905
21.1043
20.2986
19.5942
18.9975
18.5043
18.1034
17.779
17.5137
17.2894
17.0889
16.8968
16.6993
16.4853
26.2043
26.6741
26.5694
26.0399
25.2523
24.3359
23.3877
22.4755
21.6425
20.9115
20.2895
19.7719
19.3467
18.997
18.7038
18.4477
18.21
17.9737
17.7237
17.4477
27.5861
28.2422
28.2608
27.7969
27.0371
26.1245
25.1661
24.2363
23.3824
22.6291
21.9841
21.4427
20.9917
20.6127
20.2852
19.9879
19.7003
19.4039
19.082
18.7205
29.2592
30.1633
30.3537
29.9943
29.2922
28.4067
27.4566
26.5239
25.6607
24.8941
24.2324
23.6704
23.1935
22.7818
22.4124
22.0622
21.7083
21.3303
20.9093
20.4295
31.3058
32.5495
32.9595
32.7694
32.17
31.347
30.4337
29.5219
28.669
27.9048
27.2384
26.6637
26.1643
25.718
25.2994
24.8824
24.4417
23.954
23.3977
22.7542
33.8367
35.5523
36.2708
36.313
35.8729
35.1604
34.3251
33.4692
32.6566
31.9201
31.2691
30.6966
30.1836
29.7049
29.2316
28.734
28.1828
27.5511
26.8132
25.9465
36.9969
39.3427
40.4816
40.8498
40.6503
40.116
39.4155
38.6645
37.9343
37.2618
36.6569
36.1109
35.6017
35.1002
34.5724
33.9836
33.2991
32.4858
31.5119
30.348
40.9671
44.1551
45.8695
46.6437
46.8088
46.5408
46.0474
45.4629
44.8693
44.3083
43.791
43.307
42.8304
42.3266
41.7553
41.0744
40.2408
39.2123
37.9461
36.4019
45.9807
50.2779
52.8026
54.1168
54.729
54.8185
54.6125
54.2643
53.8687
53.4749
53.096
52.7202
52.3174
51.8466
51.259
50.5026
49.5214
48.2587
46.6549
44.65
52.3323
58.0486
61.6168
63.6471
64.7702
65.3583
65.5301
65.4903
65.3555
65.1867
65.0014
64.7877
64.5115
64.1251
63.5694
62.7787
61.6792
60.1928
58.2332
55.7094
60.3705
67.8777
72.7682
75.7555
77.5157
78.6354
79.2433
79.5668
79.7447
79.8528
79.9148
79.9199
79.8313
79.5958
79.1427
78.3892
77.2374
75.5798
73.2915
70.2342
70.4896
80.2068
86.685
90.8191
93.3977
95.0238
96.1585
96.8871
97.4164
97.8453
98.2041
98.4816
98.6426
98.6354
98.3787
97.7676
96.6732
94.9489
92.4178
88.8758
83.1357
95.5111
103.867
109.319
112.858
115.162
116.7
117.8
118.691
119.479
120.187
120.776
121.231
121.532
121.593
121.271
120.396
118.773
116.157
112.259
98.7878
114.287
124.802
131.723
136.269
139.296
141.375
142.881
144.075
145.128
146.123
147.079
147.948
148.622
149.013
149.118
148.698
147.427
144.978
140.955
117.935
137.018
149.947
158.447
164.003
167.655
170.123
171.887
173.291
174.57
175.86
177.214
178.602
179.922
181.013
181.649
181.702
181.091
179.194
175.418
141.056
164.157
179.699
189.801
196.266
200.353
202.965
204.738
206.117
207.436
208.9
210.618
212.58
214.69
216.748
218.478
219.505
219.649
218.738
215.808
168.603
196.091
214.341
225.915
232.99
237.111
239.406
240.703
241.598
242.552
243.883
245.789
248.309
251.357
254.71
258.037
260.88
262.683
263.059
261.682
200.967
233.086
253.932
266.566
273.602
276.964
278.1
278.095
277.72
277.591
278.195
279.897
282.796
286.839
291.799
297.311
302.83
307.649
310.856
311.695
238.484
275.238
298.209
311.017
316.889
318.344
317.076
314.305
311.229
308.776
307.653
308.408
311.267
316.172
322.93
331.202
340.402
349.66
357.804
363.419
281.426
322.382
346.364
357.696
360.638
358.053
351.94
344.34
336.752
330.354
325.981
324.461
326.325
331.78
340.612
352.351
366.262
381.583
396.785
410.291
330.067
374.036
396.741
404.022
401.001
390.903
376.807
361.22
346.625
335.326
327.426
323.584
324.208
329.448
339.308
353.453
371.085
393.426
418.556
443.431
384.817
429.1
446.764
445.849
431.85
409.455
383.841
359.946
338.165
319.718
306.356
298.584
296.764
300.868
311.374
328.585
352.999
382.301
416.348
453.202
446.54
485.898
492.746
476.194
444.127
407.106
368.723
331.748
300.036
274.717
256.28
244.83
240.372
242.769
252.419
270.224
297.068
333.878
380.853
436.883
516.731
542.107
526.961
484.209
429.65
370.996
316.378
269.41
231.534
202.751
182.358
169.549
163.777
164.662
172.444
188.843
215.888
256.505
313.83
389.317
598.67
592.421
534.204
453.219
368.345
291.514
228.127
179.485
144.148
119.559
103.137
93.086
88.4812
88.8263
94.462
107.629
131.519
171.455
235.311
331.45
694.282
611.865
487.724
360.737
254.715
175.938
120.951
86.2339
65.4152
53.1355
46.2683
42.8655
41.7784
42.7057
46.2762
54.7962
72.1652
105.924
171.983
303.228
746.197
541.421
344.211
198.553
112.81
67.9427
46.3218
35.6678
29.7042
26.2576
24.3704
23.5516
23.6772
24.8956
27.9718
33.9894
46.5062
75.355
149.962
347.705
583.647
282.055
123.383
63.0359
39.0714
28.3246
23.0203
20.2134
18.6824
17.8401
17.4223
17.307
17.4861
18.1184
19.6484
23.433
32.7922
59.512
151.571
489.466
225.57
84.3124
41.9954
27.0704
21.0068
18.167
16.7325
16.0029
15.6349
15.4548
15.3898
15.4095
15.5248
15.7621
16.2477
17.4248
21.3407
37.0682
118.142
534.036
86.3192
33.0468
20.3209
16.6304
15.5111
15.1573
15.0179
14.942
14.8988
14.8783
14.8736
14.8792
14.8955
14.9385
15.0563
15.3309
15.9425
17.4158
24.0043
135.865
12.8338
12.8023
12.7594
12.7141
12.668
12.6226
12.5795
12.5411
12.5092
12.4849
12.4691
12.4623
12.4643
12.4741
12.4905
12.5125
12.5385
12.5673
12.598
12.6304
12.8542
12.8211
12.7768
12.7297
12.6822
12.6346
12.59
12.5509
12.519
12.4946
12.4782
12.471
12.4726
12.4824
12.4989
12.5216
12.5478
12.5764
12.6061
12.6381
12.8641
12.828
12.7819
12.7337
12.6854
12.6372
12.5925
12.5533
12.5212
12.4968
12.4809
12.4743
12.4752
12.4834
12.4996
12.5214
12.5474
12.5771
12.6072
12.6396
12.8668
12.8284
12.7816
12.7337
12.6859
12.64
12.5955
12.5558
12.5229
12.4983
12.4832
12.4772
12.4777
12.4847
12.4997
12.5202
12.5469
12.5774
12.608
12.6409
12.8663
12.829
12.7828
12.7353
12.6879
12.6429
12.5995
12.5602
12.5271
12.5018
12.4851
12.4771
12.4773
12.4846
12.4988
12.5209
12.5484
12.5778
12.6074
12.6395
12.8667
12.8309
12.7851
12.7375
12.6899
12.6446
12.602
12.5622
12.5286
12.5028
12.4853
12.4764
12.4765
12.4848
12.5005
12.5219
12.5482
12.5773
12.608
12.6388
12.8704
12.8351
12.7893
12.7414
12.6929
12.6462
12.6012
12.5594
12.5252
12.4997
12.4828
12.4762
12.4759
12.486
12.501
12.5217
12.5465
12.5761
12.6075
12.6389
12.8717
12.8358
12.7897
12.7414
12.6923
12.6442
12.5988
12.5573
12.5236
12.4984
12.4821
12.4752
12.4761
12.4847
12.4988
12.5204
12.546
12.5751
12.6062
12.6368
12.8704
12.8332
12.7866
12.7383
12.6899
12.6429
12.5987
12.5593
12.5264
12.5012
12.4846
12.4767
12.4774
12.4847
12.5002
12.5223
12.5469
12.5742
12.605
12.6357
12.8717
12.8335
12.7876
12.7396
12.6913
12.644
12.5992
12.5603
12.5276
12.5024
12.4856
12.4769
12.4756
12.4837
12.4999
12.5229
12.5491
12.577
12.6078
12.6402
12.8718
12.8336
12.7877
12.7399
12.6915
12.6436
12.5979
12.5584
12.5252
12.4997
12.4826
12.4739
12.4725
12.4808
12.4974
12.5211
12.5485
12.5786
12.6102
12.6431
12.8711
12.8337
12.7874
12.7394
12.6908
12.6421
12.597
12.5569
12.5236
12.4972
12.4802
12.4724
12.4728
12.4819
12.4983
12.5204
12.547
12.5763
12.6078
12.641
12.8692
12.833
12.7868
12.7382
12.6887
12.6401
12.5957
12.5581
12.5254
12.4989
12.4817
12.4733
12.4738
12.4835
12.4995
12.5202
12.5454
12.5736
12.6057
12.6402
12.869
12.8326
12.7859
12.737
12.6877
12.6405
12.5961
12.558
12.5251
12.4989
12.4823
12.474
12.4746
12.4832
12.4983
12.5183
12.544
12.5735
12.6059
12.641
12.8706
12.8334
12.7867
12.7367
12.6867
12.6388
12.5945
12.5553
12.5223
12.4964
12.4813
12.4741
12.4751
12.4834
12.4996
12.5217
12.5483
12.578
12.61
12.6434
12.8707
12.8331
12.7862
12.7348
12.685
12.6378
12.5939
12.5547
12.522
12.4974
12.4818
12.4758
12.479
12.4905
12.5082
12.5309
12.5574
12.5866
12.6174
12.6492
12.8713
12.833
12.7852
12.7356
12.6878
12.6424
12.5997
12.561
12.5276
12.5014
12.485
12.4788
12.4823
12.4949
12.5129
12.5355
12.5616
12.59
12.6199
12.651
12.8699
12.8314
12.7845
12.7368
12.6898
12.6445
12.6021
12.5644
12.5304
12.5038
12.4873
12.4804
12.4827
12.4944
12.5115
12.5336
12.5591
12.5871
12.6169
12.6487
12.8712
12.8342
12.7874
12.7394
12.6915
12.6451
12.602
12.5645
12.5314
12.5071
12.4919
12.4854
12.487
12.4964
12.5123
12.5338
12.5587
12.5857
12.6149
12.647
12.877
12.84
12.7929
12.7445
12.696
12.649
12.6052
12.5667
12.5356
12.5137
12.5006
12.4952
12.4971
12.506
12.5211
12.5413
12.565
12.5908
12.6185
12.648
12.8846
12.8476
12.8009
12.7527
12.7043
12.657
12.6126
12.5727
12.5405
12.5181
12.505
12.5005
12.5025
12.5113
12.5257
12.5444
12.5675
12.5945
12.6223
12.6508
12.89
12.8545
12.8084
12.7599
12.7107
12.662
12.617
12.5777
12.5447
12.5201
12.5054
12.5004
12.5019
12.5105
12.5255
12.5442
12.5677
12.5953
12.6231
12.6507
12.8918
12.8567
12.81
12.7611
12.7118
12.6627
12.6186
12.5809
12.5488
12.5245
12.5095
12.5027
12.5035
12.5113
12.5251
12.544
12.5674
12.594
12.6222
12.651
12.8937
12.8573
12.8097
12.7601
12.7099
12.6614
12.6174
12.5794
12.5488
12.5256
12.511
12.5046
12.5057
12.5136
12.5251
12.5438
12.5675
12.5946
12.6239
12.6548
12.8966
12.859
12.8102
12.7593
12.7075
12.6588
12.6147
12.577
12.5476
12.525
12.5108
12.5047
12.5061
12.5142
12.5274
12.5476
12.5723
12.6001
12.6298
12.661
12.9007
12.8611
12.8114
12.7603
12.7094
12.6606
12.616
12.5778
12.5479
12.5254
12.5112
12.5053
12.507
12.5155
12.5316
12.5533
12.5789
12.6071
12.6369
12.668
12.9074
12.8677
12.8178
12.7664
12.7148
12.6652
12.6196
12.5803
12.5486
12.5257
12.512
12.507
12.51
12.5209
12.5382
12.5605
12.5863
12.6145
12.644
12.6747
12.9154
12.8764
12.8271
12.7758
12.7238
12.6733
12.6267
12.5868
12.5548
12.532
12.5186
12.5139
12.5175
12.529
12.5467
12.5691
12.5945
12.6221
12.6511
12.681
12.9226
12.8836
12.8345
12.7835
12.7316
12.6809
12.6343
12.5946
12.5629
12.5403
12.5272
12.523
12.5269
12.5383
12.5562
12.5789
12.6041
12.6312
12.6596
12.6888
12.9262
12.8865
12.8375
12.7877
12.7368
12.6874
12.6423
12.6036
12.5724
12.5498
12.5363
12.5313
12.5339
12.5435
12.5608
12.5841
12.6086
12.6356
12.6643
12.6936
12.9284
12.8884
12.8391
12.7889
12.738
12.6893
12.6453
12.6074
12.5766
12.554
12.54
12.5346
12.5369
12.5466
12.564
12.5869
12.6112
12.6377
12.6666
12.6964
12.9325
12.8915
12.8413
12.79
12.7387
12.6898
12.6455
12.6073
12.5759
12.5522
12.5379
12.5327
12.536
12.5483
12.5665
12.5891
12.6142
12.6423
12.672
12.7021
12.9378
12.8955
12.844
12.7922
12.7402
12.6905
12.6454
12.6064
12.5746
12.5505
12.5365
12.5312
12.5344
12.5469
12.565
12.5881
12.615
12.6454
12.6756
12.7058
12.9449
12.9018
12.8491
12.7954
12.7424
12.6922
12.6468
12.6081
12.5775
12.5562
12.543
12.5372
12.5384
12.548
12.5648
12.5876
12.6153
12.6444
12.6743
12.7044
12.9533
12.91
12.857
12.8032
12.75
12.6995
12.6535
12.6141
12.5829
12.5613
12.5479
12.542
12.5433
12.553
12.5694
12.5914
12.6172
12.6454
12.6747
12.7045
12.9623
12.9187
12.8659
12.8128
12.7606
12.7102
12.6635
12.6229
12.5893
12.5658
12.552
12.5467
12.5492
12.5598
12.5763
12.5982
12.6239
12.6521
12.6814
12.7112
12.9716
12.9271
12.8733
12.8192
12.7663
12.7162
12.6689
12.6285
12.5967
12.5742
12.5608
12.5556
12.5575
12.5671
12.5835
12.6058
12.632
12.6606
12.6901
12.7198
12.982
12.9361
12.8804
12.8239
12.7689
12.718
12.6714
12.6321
12.6018
12.5797
12.5666
12.5614
12.5628
12.5727
12.5904
12.614
12.6413
12.6705
12.7003
12.7299
12.9947
12.9476
12.8904
12.832
12.7748
12.7215
12.6745
12.6342
12.6025
12.5803
12.5676
12.5634
12.5668
12.5794
12.5993
12.6244
12.6527
12.6826
12.7125
12.7419
13.0103
12.9622
12.9038
12.8441
12.7853
12.7301
12.6806
12.6389
12.6064
12.5841
12.5721
12.5694
12.5756
12.5903
12.6117
12.6379
12.667
12.6972
12.7272
12.7561
13.0289
12.98
12.9208
12.86
12.8002
12.7439
12.6936
12.6513
12.6185
12.5963
12.5848
12.5827
12.5898
12.6055
12.6277
12.6546
12.6841
12.7146
12.7443
12.7728
13.0504
13.001
12.9411
12.8795
12.8189
12.7619
12.7109
12.6682
12.6353
12.6131
12.6019
12.6002
12.6079
12.6242
12.647
12.6744
12.7042
12.7346
12.7641
12.7919
13.075
13.0252
12.9647
12.9025
12.8411
12.7834
12.7319
12.6888
12.6557
12.6335
12.6222
12.6208
12.6293
12.6462
12.6696
12.6973
12.7273
12.7577
12.7869
12.8139
13.103
13.0528
12.9919
12.9289
12.8669
12.8085
12.7565
12.713
12.6797
12.6575
12.6464
12.6453
12.6543
12.6717
12.6955
12.7236
12.7537
12.784
12.8128
12.839
13.1348
13.0842
13.0228
12.9592
12.8965
12.8374
12.7848
12.741
12.7074
12.6853
12.6743
12.6736
12.683
12.7009
12.7251
12.7536
12.7839
12.8141
12.8423
12.8677
13.1707
13.1199
13.0581
12.9939
12.9304
12.8706
12.8175
12.7732
12.7394
12.7173
12.7065
12.7061
12.7159
12.7343
12.759
12.7878
12.8183
12.8483
12.8761
12.9005
13.2116
13.1606
13.0984
13.0336
12.9693
12.9088
12.855
12.8103
12.7763
12.7541
12.7435
12.7435
12.7538
12.7727
12.7979
12.827
12.8576
12.8874
12.9146
12.9379
13.2581
13.207
13.1445
13.079
13.014
12.9528
12.8983
12.8531
12.8188
12.7966
12.7862
12.7865
12.7973
12.8168
12.8424
12.8719
12.9026
12.9322
12.9586
12.9806
13.3112
13.2601
13.1974
13.1314
13.0656
13.0036
12.9484
12.9026
12.8681
12.8458
12.8355
12.8363
12.8476
12.8676
12.8937
12.9236
12.9543
12.9835
13.0091
13.0297
13.372
13.321
13.2582
13.1917
13.1252
13.0623
13.0064
12.9601
12.9252
12.9029
12.8928
12.8939
12.9058
12.9263
12.953
12.9831
13.0138
13.0426
13.0671
13.0859
13.4419
13.3912
13.3285
13.2615
13.1943
13.1306
13.0739
13.027
12.9918
12.9693
12.9594
12.961
12.9734
12.9945
13.0216
13.052
13.0826
13.1108
13.1341
13.1509
13.5225
13.4724
13.41
13.3426
13.2747
13.2102
13.1528
13.1053
13.0696
13.0471
13.0373
13.0393
13.0523
13.0739
13.1015
13.1321
13.1626
13.19
13.2117
13.2261
13.6158
13.5666
13.5048
13.4372
13.3687
13.3034
13.2452
13.197
13.161
13.1383
13.1287
13.1312
13.1447
13.1669
13.1949
13.2256
13.2557
13.2821
13.302
13.3135
13.7243
13.6765
13.6155
13.5481
13.4791
13.4131
13.3541
13.3053
13.2688
13.2459
13.2365
13.2395
13.2535
13.2762
13.3045
13.3352
13.3647
13.3897
13.4074
13.4154
13.8511
13.8052
13.7457
13.6786
13.6093
13.5427
13.483
13.4335
13.3965
13.3735
13.3642
13.3677
13.3822
13.4054
13.4339
13.4643
13.4929
13.5162
13.5309
13.5347
13.9999
13.9567
13.8993
13.8331
13.7639
13.6968
13.6364
13.5863
13.5489
13.5256
13.5165
13.5204
13.5354
13.5589
13.5874
13.6174
13.6446
13.6656
13.6766
13.6752
14.1756
14.1362
14.0819
14.0172
13.9484
13.8811
13.8203
13.7696
13.7317
13.7082
13.6993
13.7036
13.719
13.7426
13.7709
13.7998
13.8252
13.8431
13.8495
13.8418
14.3842
14.3501
14.3002
14.238
14.1704
14.1033
14.0422
13.9911
13.9528
13.929
13.9202
13.9249
13.9405
13.964
13.9915
14.019
14.0417
14.0554
14.0561
14.0404
14.6339
14.607
14.5634
14.5051
14.4395
14.3733
14.3124
14.2611
14.2223
14.1982
14.1894
14.1945
14.21
14.2329
14.2591
14.2842
14.3031
14.3114
14.3046
14.2789
14.9344
14.9179
14.8834
14.8309
14.7688
14.7045
14.6444
14.5931
14.554
14.5295
14.5208
14.5259
14.5409
14.5625
14.5865
14.608
14.6216
14.6225
14.606
14.5674
15.3014
15.2986
15.2766
15.2326
15.176
15.115
15.0565
15.0059
14.9666
14.9417
14.9328
14.9377
14.9515
14.9709
14.9912
15.0073
15.0135
15.0047
14.9751
14.9195
15.753
15.7686
15.7644
15.7331
15.685
15.6295
15.5742
15.525
15.4858
15.4603
15.451
15.4552
15.4668
15.4823
15.4969
15.5051
15.5007
15.4785
15.4315
15.3536
16.3144
16.3531
16.3767
16.3642
16.3291
16.2822
16.2323
16.1858
16.1472
16.1211
16.111
16.1136
16.1214
16.1308
16.1367
16.1331
16.1143
16.0735
16.0023
15.8946
17.0301
17.1004
17.157
17.1702
17.1542
17.1207
17.0795
17.0378
17.0006
16.9737
16.9622
16.962
16.9634
16.9631
16.9557
16.9353
16.8961
16.8289
16.7248
16.5769
17.9488
18.0662
18.1571
18.2101
18.2231
18.2104
18.1831
18.1495
18.1151
18.0873
18.0735
18.0682
18.0597
18.0449
18.0183
17.9749
17.9059
17.8007
17.651
17.4482
19.1402
19.3221
19.4707
19.5642
19.6224
19.6412
19.6356
19.6153
19.5866
19.5582
19.5401
19.5258
19.5022
19.4661
19.4133
19.3366
19.2233
19.0654
18.8524
18.5743
20.7069
20.9836
21.2225
21.3683
21.4668
21.5345
21.5616
21.5624
21.5447
21.519
21.4925
21.4581
21.4163
21.3552
21.2626
21.1336
20.959
20.7276
20.4273
20.046
22.7794
23.1873
23.5524
23.7939
23.9413
24.0456
24.1231
24.1553
24.1566
24.1403
24.1133
24.0604
23.9807
23.8693
23.7186
23.5196
23.2606
22.9284
22.5086
21.9865
25.5317
26.1189
26.655
27.0269
27.2693
27.4158
27.5185
27.5991
27.627
27.6194
27.5819
27.5026
27.3804
27.2103
26.9844
26.6922
26.3197
25.852
25.2716
24.5599
29.1788
30.0058
30.7667
31.3084
31.6773
31.9092
32.0405
32.1332
32.2086
32.2174
32.1677
32.0557
31.8797
31.6348
31.3111
30.8966
30.376
29.7312
28.94
27.9782
33.988
35.1252
36.1744
36.9318
37.4557
37.7956
37.9884
38.0887
38.1756
38.2237
38.1671
38.0179
37.7758
37.4361
36.9897
36.4228
35.7169
34.8486
33.7892
32.506
40.2645
41.7893
43.195
44.2185
44.9361
45.4109
45.6944
45.8342
45.9187
45.974
45.9044
45.7105
45.3908
44.9406
44.3497
43.6016
42.6729
41.5331
40.144
38.4602
48.3426
50.3362
52.1691
53.5091
54.4566
55.0927
55.482
55.6689
55.7304
55.775
55.7322
55.4955
55.0907
54.5162
53.7609
52.8044
51.6171
50.1589
48.3778
46.2101
58.5888
61.1359
63.47
65.1791
66.3942
67.22
67.7374
68.0015
68.0937
68.1373
68.0835
67.7925
67.293
66.5812
65.6433
64.4539
62.9747
61.1527
58.9172
56.1791
71.4175
74.614
77.5361
79.6795
81.2117
82.2637
82.9408
83.3287
83.4791
83.4971
83.439
83.0973
82.5015
81.6452
80.5103
79.0649
77.26
75.0265
72.2698
68.8675
87.3299
91.2965
94.9211
97.5881
99.5055
100.83
101.677
102.175
102.426
102.487
102.459
102.084
101.397
100.39
99.0422
97.313
95.1409
92.4373
89.0783
84.899
106.983
111.883
116.37
119.692
122.106
123.803
124.919
125.587
125.937
126.069
126.089
125.693
124.919
123.755
122.174
120.125
117.531
114.279
110.21
105.106
131.274
137.334
142.905
147.063
150.123
152.316
153.799
154.691
155.173
155.466
155.568
155.191
154.351
153.032
151.199
148.789
145.703
141.8
136.875
130.644
161.449
168.974
175.929
181.17
185.082
187.951
189.977
191.291
192.02
192.381
192.556
192.319
191.457
190.001
187.906
185.094
181.437
176.754
170.783
163.159
199.228
208.618
217.348
223.986
229.009
232.769
235.527
237.451
238.665
239.31
239.584
239.46
238.617
237.061
234.721
231.486
227.186
221.585
214.342
204.982
246.981
258.736
269.721
278.143
284.585
289.489
293.181
295.875
297.721
298.832
299.419
299.583
298.905
297.37
294.875
291.262
286.298
279.667
270.918
259.424
307.955
322.655
336.454
347.087
355.29
361.621
366.498
370.203
372.914
374.733
375.901
376.56
376.278
375.001
372.577
368.771
363.252
355.584
345.154
331.123
386.574
404.824
421.995
435.241
445.497
453.489
459.769
464.717
468.582
471.507
473.603
474.988
475.545
474.977
473.122
469.585
463.896
455.439
443.362
426.51
488.806
511.085
532.038
548.11
560.522
570.237
577.998
584.33
589.583
593.958
597.55
600.406
602.392
603.245
602.847
600.531
595.564
587.079
573.864
554.289
622.54
648.904
673.585
692.209
706.407
717.49
726.478
734.111
740.892
747.119
752.916
758.273
762.976
766.587
768.795
769.361
766.882
760.064
747.17
725.836
797.835
827.369
854.699
874.588
889.261
900.523
909.796
918.13
926.257
934.624
943.428
952.653
962.036
971.082
978.995
984.477
986.676
984.931
975.55
955.119