/*--------------------------------*- C++ -*----------------------------------*\
  =========                 |
  \\      /  F ield         | OpenFOAM: The Open Source CFD Toolbox
   \\    /   O peration     | Website:  https://openfoam.org
    \\  /    A nd           | Version:  6
     \\/     M anipulation  |
\*---------------------------------------------------------------------------*/
FoamFile
{
    version     2.0;
    format      ascii;
    class       volScalarField;
    location    "10";
    object      k;
}
// * * * * * * * * * * * * * * * * * * * * * * * * * * * * * * * * * * * * * //

dimensions      [0 2 -2 0 0 0 0];

internalField   nonuniform List<scalar> 
130000
(
0.400501
0.400065
0.398447
0.395786
0.392252
0.388065
0.383469
0.378707
0.373999
0.369527
0.365427
0.361788
0.358656
0.35604
0.35392
0.352256
0.350999
0.350095
0.349493
0.349146
0.400807
0.40041
0.398806
0.396135
0.392575
0.388353
0.383719
0.378921
0.374181
0.369683
0.365564
0.361914
0.358775
0.356156
0.354035
0.352373
0.351121
0.350223
0.349628
0.349288
0.401058
0.400692
0.3991
0.396424
0.392846
0.388597
0.383932
0.3791
0.374327
0.369801
0.365659
0.361989
0.358833
0.356202
0.354073
0.352407
0.351152
0.350254
0.34966
0.349323
0.401244
0.400895
0.399307
0.396624
0.393026
0.38875
0.384055
0.379195
0.374397
0.36985
0.365691
0.362007
0.35884
0.356201
0.354065
0.352394
0.351136
0.350237
0.349645
0.34931
0.40137
0.401022
0.399427
0.396725
0.393103
0.388805
0.38409
0.379212
0.3744
0.369842
0.365675
0.361986
0.358818
0.356178
0.354042
0.352372
0.351115
0.350218
0.349629
0.349297
0.40145
0.401089
0.399472
0.396747
0.393103
0.388787
0.384058
0.379171
0.374354
0.369793
0.365626
0.361938
0.358774
0.356137
0.354007
0.352341
0.35109
0.350197
0.349611
0.349282
0.401505
0.40112
0.399474
0.396725
0.393063
0.388731
0.38399
0.379096
0.374276
0.369716
0.365552
0.36187
0.358713
0.356085
0.353962
0.352305
0.35106
0.350175
0.349595
0.349269
0.401543
0.401131
0.39946
0.396685
0.393001
0.388651
0.383898
0.378998
0.374176
0.369619
0.365462
0.361789
0.358642
0.356024
0.353912
0.352264
0.351028
0.350151
0.349577
0.349258
0.401582
0.401143
0.399445
0.396641
0.392932
0.388563
0.383797
0.378889
0.374067
0.369514
0.365364
0.361702
0.358566
0.35596
0.353859
0.352222
0.350997
0.350128
0.349565
0.349254
0.401628
0.401162
0.399436
0.3966
0.392863
0.388473
0.383693
0.378779
0.373956
0.369407
0.365265
0.361613
0.358489
0.355895
0.353807
0.352181
0.350965
0.350105
0.349549
0.349247
0.401682
0.401188
0.39943
0.396563
0.3928
0.388388
0.383593
0.378671
0.373846
0.369301
0.365167
0.361526
0.358414
0.355832
0.353756
0.35214
0.350933
0.35008
0.349527
0.349229
0.401745
0.401221
0.399429
0.396535
0.392745
0.388311
0.3835
0.378568
0.373741
0.3692
0.365073
0.361441
0.358341
0.355772
0.353707
0.352102
0.350903
0.350057
0.349508
0.349211
0.401816
0.401267
0.399445
0.396522
0.392702
0.388243
0.383415
0.378474
0.373644
0.369104
0.364983
0.361361
0.358272
0.355714
0.353661
0.352066
0.350877
0.350038
0.349495
0.349201
0.401903
0.401327
0.399473
0.39652
0.39267
0.388187
0.383341
0.378388
0.373553
0.369014
0.364899
0.361286
0.358207
0.355661
0.353618
0.352035
0.350858
0.350031
0.349495
0.349203
0.402001
0.401399
0.399513
0.396526
0.392652
0.388143
0.383277
0.378311
0.37347
0.368932
0.364821
0.361215
0.358146
0.35561
0.353579
0.352007
0.350841
0.350025
0.349494
0.349204
0.402111
0.401485
0.399568
0.396548
0.392644
0.38811
0.383224
0.378245
0.373397
0.368857
0.36475
0.36115
0.35809
0.355564
0.353542
0.351979
0.350819
0.350008
0.349482
0.349193
0.402237
0.401586
0.399638
0.396585
0.392649
0.388093
0.383186
0.378191
0.373335
0.368792
0.364687
0.361093
0.35804
0.355523
0.353511
0.351956
0.350802
0.34999
0.349471
0.349186
0.402382
0.401707
0.399728
0.39664
0.392672
0.388089
0.383162
0.378151
0.373284
0.368737
0.364633
0.361044
0.357999
0.355491
0.353488
0.35194
0.350791
0.349982
0.349462
0.34918
0.40255
0.40185
0.399838
0.396715
0.392712
0.388098
0.383152
0.378124
0.373246
0.368694
0.36459
0.361005
0.357966
0.355466
0.353471
0.35193
0.350787
0.349982
0.349459
0.349172
0.402735
0.40201
0.399966
0.396806
0.392768
0.388123
0.383151
0.378108
0.373219
0.368662
0.364557
0.360976
0.357943
0.355449
0.353461
0.351925
0.350784
0.34998
0.34946
0.349185
0.402936
0.402186
0.400109
0.396913
0.392839
0.388161
0.383161
0.378102
0.373202
0.368638
0.364533
0.360955
0.35793
0.355442
0.353457
0.351924
0.350784
0.349988
0.349481
0.349214
0.403152
0.402379
0.400269
0.397036
0.392925
0.388213
0.383185
0.378103
0.373193
0.368622
0.364515
0.36094
0.35792
0.355438
0.353456
0.351931
0.350804
0.350017
0.349518
0.349256
0.403387
0.40259
0.400447
0.397176
0.393026
0.388279
0.383221
0.378116
0.37319
0.368611
0.364502
0.36093
0.357915
0.355443
0.353475
0.35196
0.35084
0.350059
0.349564
0.349306
0.403639
0.402818
0.40064
0.39733
0.39314
0.388356
0.383266
0.378136
0.373191
0.368603
0.36449
0.360919
0.357911
0.355448
0.353494
0.351991
0.35088
0.350102
0.34961
0.349355
0.403908
0.403064
0.400851
0.3975
0.393269
0.388446
0.383323
0.378166
0.373201
0.368602
0.36448
0.360903
0.357893
0.355435
0.353491
0.352001
0.350901
0.350129
0.349644
0.349396
0.404197
0.403329
0.40108
0.397687
0.393412
0.388548
0.383389
0.378203
0.373217
0.368603
0.364472
0.360891
0.357879
0.355421
0.353479
0.351996
0.350903
0.350145
0.349671
0.349428
0.404509
0.403615
0.401328
0.397891
0.39357
0.388663
0.383466
0.378249
0.373238
0.368605
0.364467
0.360883
0.357869
0.355413
0.353474
0.351993
0.350903
0.350151
0.349678
0.349434
0.404839
0.403919
0.401593
0.39811
0.393743
0.388791
0.383554
0.378303
0.373267
0.368615
0.364464
0.360874
0.357859
0.355403
0.353463
0.351984
0.350899
0.350147
0.349675
0.349431
0.405186
0.404242
0.401876
0.398346
0.39393
0.388931
0.383652
0.378367
0.373304
0.368633
0.364469
0.360871
0.357851
0.355393
0.353454
0.351979
0.350897
0.350148
0.349675
0.349432
0.405551
0.404582
0.402176
0.398598
0.394131
0.389084
0.383763
0.378441
0.373349
0.368657
0.36448
0.360876
0.357854
0.355395
0.353456
0.351985
0.350905
0.350154
0.349685
0.349443
0.405934
0.404941
0.402495
0.398868
0.394349
0.389252
0.383885
0.378526
0.373403
0.368688
0.364494
0.36088
0.357855
0.355397
0.353456
0.351985
0.350906
0.350167
0.349705
0.349466
0.406336
0.40532
0.402834
0.399157
0.394585
0.389436
0.384022
0.378623
0.373468
0.368728
0.364514
0.360886
0.357854
0.355396
0.353455
0.351981
0.350899
0.350165
0.349707
0.349471
0.40676
0.405722
0.403195
0.399467
0.39484
0.389637
0.384175
0.378734
0.373545
0.368778
0.364544
0.3609
0.357858
0.355394
0.353455
0.351977
0.350894
0.350157
0.349696
0.349463
0.407207
0.406147
0.40358
0.399799
0.395116
0.389858
0.384345
0.37886
0.373635
0.36884
0.364585
0.360925
0.35787
0.355395
0.353453
0.351975
0.350895
0.35015
0.349686
0.349456
0.40768
0.4066
0.403991
0.400157
0.395415
0.3901
0.384534
0.379004
0.373741
0.368917
0.364639
0.360963
0.357895
0.35541
0.353458
0.351979
0.350898
0.350151
0.349689
0.349457
0.408181
0.407082
0.404431
0.400542
0.39574
0.390365
0.384744
0.379166
0.373864
0.369008
0.364708
0.361015
0.357935
0.355441
0.353482
0.351995
0.350911
0.350166
0.349703
0.349468
0.408713
0.407596
0.404902
0.400957
0.396092
0.390655
0.384976
0.379348
0.374004
0.369117
0.364792
0.361082
0.35799
0.355488
0.353525
0.352034
0.350949
0.350203
0.349738
0.3495
0.409279
0.408145
0.405408
0.401405
0.396474
0.390972
0.385233
0.379553
0.374165
0.369243
0.364893
0.361164
0.35806
0.355551
0.353583
0.35209
0.351004
0.350257
0.34979
0.34955
0.409882
0.408732
0.405952
0.401888
0.396891
0.391321
0.385519
0.379782
0.374349
0.36939
0.365012
0.361263
0.358146
0.355629
0.353656
0.352161
0.351073
0.350325
0.349857
0.349614
0.410524
0.40936
0.406537
0.402411
0.397344
0.391703
0.385834
0.380039
0.374557
0.369559
0.365151
0.361382
0.35825
0.355724
0.353745
0.352247
0.351156
0.350407
0.349936
0.349692
0.411211
0.410034
0.407166
0.402977
0.397837
0.392122
0.386183
0.380327
0.374792
0.369753
0.365313
0.36152
0.358373
0.355835
0.35385
0.352347
0.351254
0.350501
0.350027
0.349777
0.411944
0.410756
0.407844
0.403589
0.398373
0.39258
0.386569
0.380647
0.375058
0.369973
0.365499
0.361681
0.358515
0.355965
0.353972
0.352463
0.351365
0.350608
0.350129
0.349874
0.412729
0.411532
0.408575
0.404253
0.398957
0.393083
0.386994
0.381003
0.375355
0.370223
0.365712
0.361865
0.358679
0.356116
0.354112
0.352597
0.351493
0.35073
0.350245
0.349981
0.413569
0.412367
0.409364
0.404971
0.399593
0.393634
0.387463
0.381399
0.375688
0.370504
0.365953
0.362076
0.358868
0.356288
0.354273
0.35275
0.35164
0.350871
0.350378
0.350105
0.414471
0.413265
0.410216
0.405751
0.400286
0.394237
0.38798
0.381838
0.376059
0.370821
0.366226
0.362316
0.359083
0.356486
0.354459
0.352926
0.351808
0.351032
0.350531
0.35025
0.41544
0.414232
0.411137
0.406596
0.401042
0.394897
0.388549
0.382324
0.376474
0.371177
0.366535
0.362588
0.359329
0.356712
0.354671
0.353127
0.352001
0.351217
0.350708
0.350418
0.41648
0.415275
0.412134
0.407515
0.401866
0.395622
0.389177
0.382864
0.376938
0.371577
0.366883
0.362898
0.359609
0.35697
0.354913
0.353358
0.352222
0.351429
0.350911
0.35061
0.4176
0.416402
0.413214
0.408515
0.402766
0.396417
0.389869
0.383462
0.377455
0.372026
0.367277
0.363249
0.359927
0.357265
0.35519
0.353621
0.352474
0.351671
0.351142
0.350829
0.418808
0.417621
0.414387
0.409604
0.403752
0.397291
0.390635
0.384127
0.378032
0.372529
0.367722
0.363647
0.36029
0.357601
0.355506
0.353922
0.352762
0.351947
0.351405
0.351079
0.420115
0.418944
0.415663
0.410793
0.404831
0.398253
0.391481
0.384867
0.378677
0.373096
0.368224
0.364098
0.360702
0.357984
0.355867
0.354265
0.353091
0.352262
0.351706
0.351364
0.421533
0.420382
0.417054
0.412093
0.406016
0.399312
0.392417
0.385689
0.379399
0.373732
0.36879
0.36461
0.361171
0.35842
0.356279
0.354657
0.353467
0.352623
0.352051
0.351691
0.423071
0.421946
0.418572
0.413516
0.407317
0.400481
0.393454
0.386604
0.380206
0.374447
0.369431
0.36519
0.361705
0.358919
0.35675
0.355107
0.353898
0.353036
0.352447
0.352067
0.42474
0.423648
0.420227
0.415073
0.408746
0.40177
0.394603
0.387623
0.381109
0.375252
0.370155
0.36585
0.362314
0.359489
0.357289
0.355622
0.354392
0.353511
0.352901
0.3525
0.426552
0.425501
0.422036
0.41678
0.410319
0.403194
0.395879
0.38876
0.382123
0.37616
0.370975
0.366599
0.363009
0.360141
0.357908
0.356214
0.354961
0.354058
0.353425
0.352998
0.428522
0.427523
0.424016
0.418655
0.412052
0.40477
0.397298
0.39003
0.38326
0.377184
0.371905
0.367453
0.363803
0.360889
0.358619
0.356895
0.355616
0.354688
0.354029
0.353574
0.430668
0.429734
0.426187
0.420718
0.413967
0.406519
0.398879
0.391452
0.384541
0.378342
0.372961
0.368428
0.364713
0.361748
0.359438
0.357681
0.356372
0.355416
0.354728
0.354241
0.433012
0.432155
0.428572
0.422993
0.416087
0.408463
0.400644
0.393049
0.385985
0.379655
0.374165
0.369543
0.365758
0.362737
0.360383
0.358589
0.357247
0.35626
0.355539
0.355014
0.435578
0.434813
0.431201
0.425508
0.41844
0.41063
0.402621
0.394845
0.387619
0.381148
0.37554
0.370823
0.366961
0.363879
0.361476
0.359641
0.358263
0.357239
0.35648
0.355913
0.438391
0.437739
0.434103
0.428296
0.421058
0.413052
0.404842
0.396873
0.389472
0.38285
0.377115
0.372294
0.368349
0.365201
0.362744
0.360864
0.359444
0.358379
0.357576
0.356959
0.441485
0.440968
0.437317
0.431395
0.42398
0.415768
0.407343
0.399169
0.391582
0.384797
0.378925
0.373992
0.369957
0.366736
0.36422
0.362289
0.360823
0.359711
0.358858
0.358183
0.444895
0.44454
0.440886
0.434849
0.427252
0.418822
0.41017
0.401778
0.393991
0.387032
0.381013
0.375959
0.371825
0.368526
0.365944
0.363956
0.362437
0.361272
0.36036
0.359618
0.448665
0.448503
0.444862
0.438712
0.430927
0.422269
0.413378
0.404753
0.396753
0.389607
0.38343
0.378245
0.374006
0.370619
0.367966
0.365914
0.364335
0.363108
0.362127
0.361308
0.452846
0.452915
0.449305
0.443049
0.435071
0.426175
0.417032
0.408159
0.399933
0.392588
0.386241
0.380915
0.37656
0.373079
0.370345
0.368222
0.366574
0.365275
0.364215
0.363303
0.457503
0.45784
0.454288
0.447934
0.439762
0.43062
0.421212
0.412079
0.403612
0.396053
0.389525
0.384047
0.379567
0.375982
0.373159
0.370956
0.369229
0.367846
0.366692
0.365671
0.462699
0.463361
0.459899
0.453462
0.445097
0.435703
0.426018
0.416611
0.407889
0.400104
0.393381
0.38774
0.383124
0.379424
0.376503
0.374208
0.372389
0.370909
0.369643
0.368492
0.468522
0.469576
0.466247
0.459746
0.451195
0.441544
0.431574
0.421881
0.41289
0.404865
0.397934
0.392118
0.387355
0.38353
0.380498
0.378098
0.376173
0.374577
0.373178
0.371871
0.475073
0.476604
0.473462
0.466928
0.458202
0.448296
0.438034
0.428044
0.418772
0.410495
0.403344
0.39734
0.392418
0.388455
0.385298
0.382778
0.380728
0.378993
0.377434
0.375937
0.48248
0.484591
0.481707
0.475182
0.466303
0.456149
0.445594
0.435301
0.425739
0.417198
0.409816
0.403612
0.398516
0.394401
0.391103
0.388443
0.386244
0.384341
0.382587
0.380858
0.490892
0.493716
0.491184
0.484725
0.475728
0.465344
0.454503
0.443906
0.43405
0.425236
0.417612
0.411196
0.405915
0.40163
0.39817
0.395345
0.392967
0.39086
0.388865
0.38685
0.500501
0.504204
0.502146
0.495836
0.486772
0.476192
0.465083
0.454192
0.444042
0.434954
0.427081
0.420442
0.414959
0.410486
0.406839
0.403819
0.401223
0.398863
0.396568
0.394196
0.511542
0.516336
0.514915
0.508866
0.499815
0.489091
0.477751
0.466588
0.456158
0.4468
0.438677
0.431807
0.426108
0.421424
0.417561
0.414304
0.411439
0.408763
0.406091
0.403266
0.524311
0.530471
0.5299
0.52427
0.515347
0.504564
0.493054
0.481663
0.470983
0.461374
0.453008
0.445904
0.439974
0.435055
0.430936
0.427391
0.424189
0.421112
0.417959
0.414559
0.539183
0.547064
0.547628
0.542631
0.534001
0.523288
0.511707
0.500165
0.489291
0.479469
0.470881
0.463549
0.457378
0.452193
0.447772
0.443872
0.440244
0.436654
0.432883
0.428741
0.556638
0.566703
0.568767
0.564702
0.556604
0.54615
0.53465
0.523077
0.512102
0.502135
0.49337
0.48583
0.479412
0.473932
0.469152
0.464811
0.460642
0.456391
0.451819
0.446714
0.577267
0.590207
0.594113
0.591445
0.584221
0.574299
0.563103
0.55168
0.54075
0.530749
0.521883
0.514177
0.507521
0.501718
0.496511
0.491623
0.486765
0.481662
0.476049
0.46969
0.601878
0.618558
0.624969
0.624171
0.618242
0.609214
0.598629
0.587614
0.57694
0.567072
0.558228
0.550433
0.543567
0.537419
0.531715
0.526155
0.520428
0.514231
0.507272
0.49928
0.631473
0.652957
0.662663
0.664425
0.66037
0.652725
0.643166
0.632911
0.622785
0.613285
0.604641
0.596876
0.589861
0.583368
0.5771
0.570734
0.56393
0.556355
0.547674
0.537576
0.667269
0.694955
0.70899
0.71414
0.712683
0.707042
0.699037
0.689987
0.680783
0.671955
0.663747
0.656183
0.64912
0.642311
0.635436
0.62814
0.620047
0.610781
0.599955
0.587195
0.710841
0.74639
0.766238
0.775406
0.77757
0.774701
0.768881
0.761562
0.753715
0.745916
0.738429
0.731279
0.724313
0.717263
0.709778
0.701467
0.691904
0.680652
0.66725
0.651234
0.764137
0.809543
0.83685
0.851323
0.857862
0.858525
0.855546
0.850507
0.844469
0.838069
0.831601
0.825103
0.818413
0.811243
0.803206
0.793864
0.782722
0.769262
0.752917
0.73309
0.829447
0.886906
0.923412
0.944704
0.956114
0.961283
0.96185
0.959627
0.95581
0.951137
0.945956
0.940334
0.93411
0.926979
0.918512
0.908209
0.89549
0.87973
0.860213
0.836158
0.909347
0.981394
1.02891
1.05856
1.07593
1.08571
1.09048
1.09147
1.09016
1.08743
1.08371
1.07913
1.07354
1.06663
1.0579
1.0468
1.03264
1.01464
0.99192
0.96344
1.00662
1.09586
1.15613
1.19538
1.22006
1.23492
1.24382
1.24808
1.24932
1.24857
1.24636
1.24289
1.23805
1.23151
1.22274
1.21109
1.19573
1.17576
1.15002
1.11719
1.12406
1.23298
1.30762
1.35739
1.38985
1.41033
1.42286
1.43041
1.43406
1.43511
1.43425
1.43182
1.42775
1.42171
1.41312
1.40124
1.3851
1.36359
1.3353
1.29854
1.26425
1.39497
1.48519
1.54605
1.58635
1.61236
1.62848
1.63816
1.64367
1.64595
1.64599
1.64428
1.64082
1.63531
1.62713
1.61544
1.59912
1.5768
1.54676
1.5069
1.42925
1.58327
1.68966
1.76149
1.80904
1.83954
1.8582
1.86898
1.87478
1.8772
1.8772
1.87553
1.87232
1.86731
1.85978
1.84879
1.83306
1.811
1.7805
1.73899
1.62021
1.79797
1.92006
2.0017
2.05477
2.08766
2.10653
2.11623
2.12022
2.12058
2.11878
2.11587
2.11216
2.1074
2.10082
2.09129
2.07729
2.05702
2.02804
1.98723
1.83679
2.03706
2.17272
2.26127
2.31634
2.34771
2.36293
2.36783
2.36625
2.36108
2.35463
2.34833
2.34272
2.33762
2.33218
2.3251
2.3146
2.29848
2.27397
2.23744
2.07657
2.29557
2.44009
2.53001
2.58091
2.60446
2.60995
2.60374
2.59066
2.57497
2.55969
2.54675
2.53711
2.53051
2.52605
2.52239
2.51763
2.50906
2.49341
2.46642
2.33417
2.56433
2.70916
2.79101
2.82799
2.83442
2.82037
2.79414
2.7617
2.72857
2.69885
2.67461
2.65699
2.64671
2.64301
2.64441
2.64802
2.65069
2.64996
2.63991
2.60024
2.8286
2.95969
3.01878
3.02852
3.00326
2.95468
2.89342
2.83013
2.77219
2.72628
2.68928
2.66333
2.6489
2.6455
2.65103
2.66291
2.67591
2.69365
2.7074
2.86035
3.06653
3.1621
3.17803
3.13647
3.06044
2.97087
2.87406
2.78002
2.69422
2.61856
2.56108
2.52165
2.5
2.49527
2.50522
2.53001
2.56963
2.61105
2.65181
3.09372
3.24589
3.27503
3.22219
3.11603
2.97883
2.82508
2.67518
2.53769
2.41881
2.32162
2.24738
2.19595
2.16678
2.15864
2.16842
2.19746
2.24568
2.3107
2.38827
3.26949
3.32321
3.25446
3.09849
2.89646
2.67712
2.4623
2.26669
2.09806
1.95927
1.84991
1.76793
1.71095
1.67721
1.66513
1.67121
1.69845
1.75044
1.82862
1.93181
3.34329
3.25439
3.02997
2.74015
2.43362
2.14339
1.8885
1.67726
1.51007
1.38211
1.28659
1.21699
1.16822
1.13713
1.12246
1.12334
1.14172
1.18546
1.26152
1.37363
3.24657
2.93211
2.52135
2.10176
1.72977
1.42915
1.19971
1.03501
0.922291
0.845456
0.792297
0.754786
0.728057
0.709584
0.698976
0.699087
0.715173
0.756644
0.837454
0.979664
2.81824
2.25862
1.70345
1.25101
0.945684
0.761747
0.657785
0.600333
0.564292
0.540245
0.524096
0.513508
0.507291
0.505084
0.50736
0.51648
0.535939
0.575109
0.665366
0.896413
1.81892
1.23431
0.852619
0.656002
0.554754
0.498529
0.465414
0.444974
0.432107
0.424258
0.419902
0.417884
0.417717
0.419171
0.42318
0.430991
0.447864
0.487214
0.60301
0.957824
0.948442
0.669884
0.530262
0.463955
0.430293
0.411297
0.400012
0.39332
0.389443
0.387312
0.386426
0.386421
0.387212
0.388542
0.390526
0.393938
0.402694
0.433047
0.552496
1.02122
0.675361
0.472766
0.410616
0.390562
0.383012
0.379657
0.377862
0.376808
0.376214
0.375928
0.375858
0.375928
0.376125
0.376494
0.377245
0.378665
0.381812
0.391015
0.433675
0.672983
0.353147
0.352788
0.352303
0.351765
0.351193
0.350611
0.350045
0.349524
0.349077
0.348726
0.348482
0.348352
0.348336
0.348426
0.348608
0.348865
0.349174
0.349515
0.349871
0.350233
0.353367
0.353
0.35251
0.351969
0.351392
0.350798
0.350211
0.349661
0.349198
0.348844
0.348596
0.348462
0.348442
0.348529
0.348704
0.348965
0.349276
0.349615
0.349962
0.350321
0.353495
0.353119
0.352617
0.352061
0.351472
0.350872
0.350274
0.349705
0.349228
0.348864
0.348609
0.348468
0.348443
0.348534
0.348707
0.348961
0.349268
0.349605
0.34995
0.350314
0.35359
0.353207
0.352691
0.352111
0.351497
0.350888
0.350294
0.349734
0.349258
0.348877
0.348607
0.348459
0.34843
0.348522
0.348699
0.348944
0.349255
0.349588
0.349944
0.350313
0.353636
0.35325
0.352729
0.352135
0.351513
0.350896
0.350303
0.349761
0.349287
0.348895
0.348617
0.348471
0.348451
0.348534
0.348706
0.348959
0.349262
0.349591
0.349951
0.35031
0.353631
0.353243
0.352723
0.352135
0.351521
0.350903
0.350304
0.349774
0.349303
0.348918
0.348651
0.348507
0.348483
0.348556
0.348726
0.348966
0.349254
0.349592
0.349963
0.350318
0.353649
0.353258
0.352738
0.352159
0.351543
0.350919
0.350318
0.349771
0.3493
0.348933
0.348672
0.348525
0.348491
0.348559
0.348732
0.348969
0.349265
0.349601
0.349959
0.350316
0.353676
0.353273
0.352747
0.352163
0.351544
0.35092
0.350317
0.349765
0.349294
0.348928
0.348661
0.348507
0.348474
0.348556
0.348726
0.348964
0.349258
0.349588
0.349928
0.350279
0.353672
0.353269
0.35274
0.352145
0.351523
0.350899
0.350301
0.349761
0.34929
0.348915
0.34865
0.348488
0.348454
0.348541
0.348711
0.348948
0.349252
0.349583
0.349921
0.350273
0.353671
0.353274
0.352752
0.352157
0.351542
0.350919
0.350316
0.349763
0.349288
0.348914
0.348658
0.348506
0.348477
0.348556
0.348727
0.34897
0.349273
0.349596
0.349932
0.350289
0.35367
0.353271
0.352748
0.352166
0.351558
0.350935
0.35033
0.349773
0.349289
0.348911
0.348651
0.348512
0.348495
0.348579
0.348742
0.348984
0.349271
0.349595
0.349944
0.350304
0.35367
0.353273
0.352737
0.352159
0.351543
0.350917
0.350311
0.349755
0.349278
0.348904
0.348644
0.348506
0.348486
0.348574
0.348735
0.348971
0.349252
0.349587
0.349933
0.350291
0.353693
0.353289
0.352757
0.352169
0.351545
0.350914
0.350303
0.34974
0.349271
0.348898
0.348638
0.348497
0.348466
0.348564
0.348735
0.34896
0.349249
0.349583
0.349918
0.350271
0.353708
0.353307
0.352776
0.352187
0.351563
0.350931
0.350316
0.349741
0.349257
0.348877
0.348615
0.348475
0.348452
0.348548
0.348727
0.348974
0.349276
0.349611
0.349937
0.350284
0.353696
0.353292
0.352759
0.352173
0.351559
0.350931
0.350321
0.349755
0.349274
0.348894
0.348631
0.348488
0.348455
0.348541
0.34872
0.348988
0.349297
0.349631
0.349969
0.350318
0.353698
0.353286
0.35275
0.352162
0.351542
0.350914
0.350309
0.349757
0.34928
0.348899
0.348634
0.34849
0.348463
0.348551
0.348727
0.348989
0.349297
0.349635
0.349981
0.350339
0.353701
0.353287
0.352749
0.352161
0.351542
0.35092
0.350318
0.34977
0.349294
0.348912
0.348641
0.348483
0.348457
0.348537
0.348712
0.348964
0.349271
0.349614
0.349975
0.350349
0.353708
0.353288
0.352746
0.352159
0.351552
0.350929
0.350325
0.349772
0.349297
0.348921
0.348655
0.348486
0.348445
0.348519
0.348693
0.348945
0.349253
0.3496
0.349973
0.350344
0.353755
0.353326
0.352775
0.352177
0.35156
0.350932
0.350324
0.349763
0.349293
0.348919
0.348654
0.348497
0.348465
0.348547
0.348726
0.348981
0.349289
0.34963
0.349987
0.350349
0.353816
0.353377
0.352814
0.352205
0.351576
0.350943
0.350339
0.349778
0.349301
0.348924
0.348656
0.348519
0.3485
0.348594
0.348782
0.349042
0.349353
0.349693
0.350046
0.350402
0.353885
0.353437
0.352864
0.35224
0.35159
0.350945
0.350339
0.349781
0.3493
0.348932
0.348685
0.348562
0.348554
0.348657
0.348851
0.349117
0.349431
0.349774
0.350126
0.35048
0.353962
0.353508
0.352927
0.352295
0.351637
0.350982
0.350362
0.349805
0.349337
0.348977
0.348738
0.348622
0.34862
0.348729
0.348928
0.349198
0.349515
0.34986
0.350214
0.350568
0.354045
0.353586
0.353
0.352363
0.3517
0.351043
0.35042
0.349863
0.349396
0.349039
0.348803
0.348689
0.34869
0.348802
0.349004
0.349276
0.349596
0.349943
0.350299
0.350655
0.354128
0.353666
0.353076
0.352436
0.351771
0.351112
0.350488
0.349931
0.349465
0.349109
0.348874
0.348761
0.348763
0.348874
0.349077
0.34935
0.34967
0.350018
0.350374
0.350731
0.354211
0.353745
0.353153
0.352511
0.351845
0.351186
0.350563
0.350008
0.349543
0.349189
0.348954
0.348841
0.348841
0.34895
0.349149
0.349419
0.349737
0.350083
0.350439
0.350796
0.354292
0.353823
0.353229
0.352586
0.351921
0.351264
0.350645
0.350094
0.349633
0.349281
0.349047
0.348932
0.348929
0.349032
0.349225
0.349489
0.349801
0.350142
0.350495
0.35085
0.354372
0.3539
0.353304
0.35266
0.351996
0.351345
0.350734
0.350192
0.349737
0.349388
0.349154
0.349036
0.349027
0.349122
0.349306
0.34956
0.349864
0.3502
0.350548
0.350899
0.354451
0.353975
0.353374
0.352728
0.352065
0.351419
0.350812
0.350273
0.349821
0.349472
0.349238
0.34912
0.349111
0.349207
0.349383
0.349626
0.349923
0.350254
0.350598
0.350945
0.354532
0.354049
0.35344
0.352786
0.352113
0.351457
0.350841
0.350294
0.349836
0.349487
0.349255
0.34914
0.349137
0.349239
0.349421
0.349669
0.349971
0.350303
0.350647
0.350992
0.354618
0.354127
0.353509
0.352842
0.352155
0.351481
0.35085
0.35029
0.349824
0.349473
0.349246
0.349136
0.349139
0.349249
0.349444
0.349709
0.35002
0.350357
0.350701
0.351043
0.354715
0.354216
0.353588
0.35291
0.35221
0.351524
0.350882
0.350315
0.349845
0.349492
0.349264
0.34916
0.34917
0.349287
0.349494
0.349769
0.350087
0.350428
0.350772
0.351109
0.354822
0.354316
0.35368
0.352992
0.352283
0.351586
0.350935
0.35036
0.349886
0.349532
0.349307
0.349208
0.349225
0.349352
0.349568
0.34985
0.350173
0.350516
0.35086
0.351193
0.354941
0.354429
0.353786
0.353091
0.352373
0.351669
0.351012
0.350433
0.349957
0.349604
0.349381
0.349286
0.349309
0.349442
0.349664
0.349951
0.350278
0.350623
0.350965
0.351295
0.355073
0.354555
0.353905
0.353202
0.352477
0.351767
0.351105
0.350524
0.350047
0.349694
0.349474
0.349382
0.34941
0.349548
0.349775
0.350067
0.350397
0.350743
0.351085
0.351411
0.355217
0.354693
0.354036
0.353325
0.352593
0.351877
0.35121
0.350626
0.350149
0.349797
0.349579
0.349491
0.349522
0.349665
0.349897
0.350194
0.350527
0.350876
0.351217
0.351541
0.355378
0.354847
0.354182
0.353463
0.352723
0.351999
0.351327
0.350739
0.350261
0.34991
0.349694
0.34961
0.349646
0.349794
0.350031
0.350332
0.35067
0.35102
0.351362
0.351683
0.355559
0.355022
0.354349
0.35362
0.35287
0.352138
0.351459
0.350866
0.350385
0.350035
0.349822
0.349741
0.349782
0.349937
0.35018
0.350488
0.350829
0.351182
0.351523
0.35184
0.355764
0.35522
0.354539
0.353801
0.353041
0.352299
0.351613
0.351014
0.35053
0.350179
0.349968
0.349892
0.349939
0.350101
0.350351
0.350664
0.35101
0.351365
0.351704
0.352017
0.355996
0.355446
0.354756
0.354009
0.353239
0.352489
0.351794
0.35119
0.350703
0.350351
0.350143
0.35007
0.350124
0.350292
0.350549
0.350867
0.351217
0.351573
0.351911
0.352218
0.356258
0.355702
0.355005
0.354248
0.353469
0.352709
0.352007
0.351398
0.350907
0.350556
0.350349
0.350281
0.350339
0.350514
0.350777
0.3511
0.351454
0.351811
0.352146
0.352447
0.356555
0.355993
0.355289
0.354523
0.353734
0.352965
0.352255
0.35164
0.351147
0.350795
0.350591
0.350526
0.350589
0.35077
0.351038
0.351367
0.351724
0.352081
0.352413
0.352708
0.356888
0.356322
0.35561
0.354835
0.354037
0.353258
0.352541
0.35192
0.351424
0.351071
0.350869
0.350807
0.350876
0.351062
0.351337
0.35167
0.352029
0.352387
0.352716
0.353002
0.357263
0.356692
0.355974
0.355189
0.354381
0.353593
0.352868
0.352241
0.351742
0.351388
0.351187
0.351129
0.351203
0.351395
0.351676
0.352014
0.352376
0.352733
0.353058
0.353336
0.357685
0.35711
0.356385
0.355591
0.354772
0.353975
0.353241
0.352608
0.352104
0.35175
0.35155
0.351496
0.351575
0.351774
0.35206
0.352403
0.352768
0.353125
0.353445
0.353713
0.358161
0.357582
0.35685
0.356047
0.355218
0.354409
0.353666
0.353026
0.352519
0.352163
0.351965
0.351914
0.351999
0.352204
0.352497
0.352846
0.353213
0.353569
0.353883
0.35414
0.358697
0.358116
0.357378
0.356565
0.355724
0.354905
0.354152
0.353505
0.352993
0.352636
0.352439
0.352392
0.352484
0.352695
0.352995
0.353348
0.353718
0.354072
0.35438
0.354623
0.359304
0.35872
0.357977
0.357154
0.356302
0.355472
0.354709
0.354054
0.353537
0.353178
0.352983
0.35294
0.353038
0.353256
0.353562
0.353921
0.354293
0.354645
0.354945
0.355173
0.359991
0.359407
0.358658
0.357827
0.356963
0.356121
0.355347
0.354684
0.354162
0.353801
0.353608
0.353569
0.353672
0.353898
0.354211
0.354574
0.354948
0.355297
0.355588
0.3558
0.360772
0.360189
0.359436
0.358595
0.35772
0.356865
0.356081
0.355409
0.354881
0.354518
0.354326
0.354291
0.354401
0.354634
0.354954
0.355323
0.355698
0.356043
0.356323
0.356515
0.361662
0.361081
0.360326
0.359477
0.35859
0.357722
0.356926
0.356244
0.355711
0.355345
0.355154
0.355123
0.35524
0.355481
0.355808
0.356181
0.356557
0.356897
0.357164
0.357333
0.362678
0.362102
0.361346
0.360489
0.359591
0.35871
0.357902
0.357211
0.35667
0.356301
0.35611
0.356084
0.356209
0.356458
0.356791
0.357169
0.357544
0.357877
0.358129
0.358271
0.363842
0.363274
0.36252
0.361656
0.360746
0.359853
0.359032
0.358331
0.357783
0.357411
0.357221
0.3572
0.357332
0.357588
0.357928
0.358309
0.358682
0.359006
0.359239
0.35935
0.365178
0.364623
0.363873
0.363005
0.362085
0.361179
0.360345
0.359634
0.359079
0.358704
0.358515
0.358498
0.358637
0.3589
0.359246
0.359629
0.359999
0.36031
0.360519
0.360593
0.366718
0.36618
0.36544
0.364569
0.36364
0.362722
0.361876
0.361154
0.360592
0.360213
0.360025
0.360013
0.360159
0.360429
0.36078
0.361164
0.361528
0.361823
0.362003
0.362034
0.368499
0.367985
0.367259
0.36639
0.365454
0.364525
0.363667
0.362934
0.362364
0.361982
0.361795
0.361788
0.361941
0.362217
0.362572
0.362955
0.363309
0.363584
0.363729
0.363708
0.370566
0.370085
0.369381
0.368518
0.367578
0.366639
0.36577
0.365027
0.364449
0.364063
0.363877
0.363875
0.364034
0.364316
0.364673
0.365052
0.365393
0.365642
0.365744
0.365662
0.372975
0.372538
0.371865
0.371014
0.370074
0.369128
0.36825
0.367497
0.366912
0.366522
0.366337
0.36634
0.366504
0.366791
0.367148
0.367519
0.367842
0.368057
0.368107
0.367949
0.375795
0.375415
0.374785
0.373956
0.373022
0.372073
0.371187
0.370426
0.369834
0.36944
0.369256
0.369264
0.369433
0.369721
0.370075
0.370433
0.37073
0.370902
0.370888
0.370639
0.379105
0.378806
0.378236
0.37744
0.376521
0.375574
0.374684
0.373917
0.373319
0.372921
0.372738
0.37275
0.372922
0.373209
0.373554
0.373893
0.374154
0.37427
0.374177
0.373815
0.383028
0.382827
0.382337
0.381589
0.380696
0.379759
0.378871
0.378101
0.377498
0.377097
0.376914
0.37693
0.377101
0.377382
0.377712
0.378022
0.378235
0.37828
0.378086
0.377585
0.387691
0.387621
0.387239
0.38656
0.385707
0.384793
0.383914
0.383145
0.382541
0.382136
0.381953
0.38197
0.382137
0.382406
0.382711
0.382979
0.383128
0.383082
0.382759
0.382084
0.393267
0.393368
0.393131
0.392551
0.391762
0.390886
0.390028
0.389268
0.388665
0.388259
0.388075
0.388091
0.388248
0.388494
0.38876
0.388967
0.389028
0.388863
0.388376
0.387483
0.399976
0.400299
0.40026
0.399822
0.39913
0.398317
0.397497
0.396757
0.396161
0.395754
0.395568
0.395579
0.395716
0.395925
0.396133
0.396253
0.396196
0.395874
0.395175
0.394006
0.408116
0.40869
0.408943
0.408713
0.408167
0.407452
0.406695
0.405991
0.40541
0.405004
0.404814
0.404813
0.404916
0.405069
0.405191
0.405192
0.404979
0.404444
0.403466
0.401943
0.418121
0.419033
0.419608
0.419687
0.419352
0.418783
0.418122
0.417477
0.416923
0.41652
0.416323
0.4163
0.41635
0.416414
0.416408
0.416242
0.415815
0.414996
0.413655
0.411676
0.43055
0.431974
0.43294
0.433377
0.433325
0.432963
0.432447
0.431891
0.431382
0.430987
0.430777
0.430716
0.430683
0.430619
0.430435
0.430043
0.429316
0.428109
0.426286
0.423712
0.446035
0.448118
0.449636
0.450506
0.450907
0.450852
0.450549
0.450131
0.449693
0.449313
0.449083