/*--------------------------------*- C++ -*----------------------------------*\
  =========                 |
  \\      /  F ield         | OpenFOAM: The Open Source CFD Toolbox
   \\    /   O peration     | Website:  https://openfoam.org
    \\  /    A nd           | Version:  6
     \\/     M anipulation  |
\*---------------------------------------------------------------------------*/
FoamFile
{
    version     2.0;
    format      ascii;
    class       volScalarField;
    location    "10";
    object      nut;
}
// * * * * * * * * * * * * * * * * * * * * * * * * * * * * * * * * * * * * * //

dimensions      [0 2 -1 0 0 0 0];

internalField   nonuniform List<scalar> 
10000
(
1.31064e-05
6.8129e-05
9.61672e-05
0.000133576
0.000183793
0.000242819
0.000304262
0.000360746
0.000404869
0.000429083
0.000428907
0.000404717
0.000360965
0.000304715
0.00024333
0.000184805
0.000134716
9.65855e-05
6.87326e-05
1.29464e-05
1.31631e-05
6.79882e-05
9.62352e-05
0.00013359
0.0001842
0.000246523
0.000309083
0.000366101
0.000411629
0.000432974
0.000431902
0.000407308
0.000363434
0.000308165
0.000244687
0.0001858
0.000136199
9.67257e-05
6.86303e-05
1.2695e-05
1.28974e-05
6.72924e-05
9.63036e-05
0.00013261
0.000184797
0.000243942
0.000309071
0.000367387
0.000411738
0.00043416
0.000433904
0.000409593
0.000367068
0.000309308
0.000246233
0.000187328
0.000136385
9.71426e-05
6.81967e-05
1.29488e-05
1.28113e-05
6.68842e-05
9.46951e-05
0.000132099
0.000184998
0.000245428
0.000308311
0.000366393
0.0004111
0.000439366
0.000441426
0.000416878
0.000367753
0.000307921
0.000246
0.000188276
0.000136584
9.70126e-05
6.94786e-05
1.27761e-05
1.27211e-05
6.62656e-05
9.37446e-05
0.000132142
0.000182798
0.000241363
0.000306965
0.000367094
0.000412867
0.000438326
0.000441552
0.000414562
0.000366737
0.000308398
0.000246876
0.000189727
0.000138212
9.7596e-05
6.81124e-05
1.30246e-05
1.28096e-05
6.75288e-05
9.47183e-05
0.00013029
0.000180129
0.000241029
0.000309458
0.000367229
0.000411581
0.000436799
0.000440133
0.000416564
0.00037222
0.000311322
0.000247973
0.000188998
0.000138175
9.85224e-05
6.69258e-05
1.3199e-05
1.28293e-05
6.79119e-05
9.38987e-05
0.000130637
0.00018302
0.000240878
0.00030692
0.000366356
0.000414225
0.000439817
0.000436032
0.000411719
0.000368802
0.000310938
0.000249972
0.000189629
0.000139461
9.82604e-05
6.81411e-05
1.3333e-05
1.29004e-05
6.77833e-05
9.48658e-05
0.000131679
0.00018126
0.000241075
0.000305083
0.000363332
0.000412525
0.000440437
0.00043769
0.000414693
0.000370666
0.000313243
0.000248548
0.000191154
0.000140459
0.000100078
6.96703e-05
1.31129e-05
1.26257e-05
6.71431e-05
9.59841e-05
0.000132751
0.000183178
0.000243165
0.00030606
0.000364042
0.000410389
0.00043676
0.000441025
0.000417004
0.000370129
0.000314462
0.000249964
0.000189732
0.00013893
9.89769e-05
6.95252e-05
1.338e-05
1.26628e-05
6.69746e-05
9.606e-05
0.000135016
0.000186778
0.000244838
0.0003102
0.000366445
0.000411692
0.00043675
0.000437432
0.000414167
0.000371058
0.000314451
0.000251629
0.000190147
0.00013863
9.87986e-05
6.93594e-05
1.3876e-05
1.26697e-05
6.65493e-05
9.61886e-05
0.000135478
0.000187182
0.000248745
0.000310845
0.000373148
0.000418769
0.000439985
0.000438953
0.000417074
0.00037535
0.000316827
0.00025316
0.000193496
0.00014098
0.000101067
6.88374e-05
1.37532e-05
1.28985e-05
6.90367e-05
9.70795e-05
0.000135908
0.000190606
0.000249918
0.00031139
0.000371782
0.000418345
0.000443961
0.000439798
0.000416551
0.000371309
0.000313847
0.000253557
0.00019545
0.000142309
0.000101341
7.13997e-05
1.34864e-05
1.30795e-05
6.8625e-05
9.70693e-05
0.000136787
0.000190616
0.000250513
0.000313672
0.000372453
0.000419281
0.000441816
0.000439792
0.000416725
0.000372588
0.000313884
0.000252655
0.000195993
0.000144791
0.000103394
7.04105e-05
1.30326e-05
1.28838e-05
6.80845e-05
9.66573e-05
0.000136452
0.000190806
0.000251383
0.000317146
0.000379445
0.000424367
0.000442613
0.000440557
0.000416498
0.000372319
0.0003162
0.00025331
0.00019584
0.000145435
0.000103363
6.96898e-05
1.32216e-05
1.23159e-05
6.5456e-05
9.77354e-05
0.000137113
0.000190429
0.000251338
0.000315077
0.000375185
0.00042296
0.000445936
0.00044074
0.000414043
0.000369574
0.000315733
0.00025581
0.000196499
0.000145141
0.000104252
7.17627e-05
1.30467e-05
1.28609e-05
6.6792e-05
9.66656e-05
0.000136715
0.000188598
0.000250583
0.000311633
0.0003689
0.000417249
0.000442531
0.000442066
0.000414069
0.000368824
0.000312229
0.000254048
0.000193585
0.000142786
0.000103513
7.02568e-05
1.35087e-05
1.30882e-05
6.85902e-05
9.79359e-05
0.000137206
0.000190818
0.000250061
0.000314073
0.000368403
0.000413504
0.000439392
0.000443318
0.000414674
0.000369614
0.000311382
0.00024987
0.000193908
0.0001419
0.000102434
7.11726e-05
1.37959e-05
1.32788e-05
6.79021e-05
9.74603e-05
0.000136464
0.000187362
0.000246087
0.000312512
0.000368593
0.000416686
0.000442145
0.000439377
0.000415644
0.000371899
0.000310865
0.000248616
0.000191712
0.00014138
0.000100834
7.0978e-05
1.3004e-05
1.33239e-05
6.77484e-05
9.84949e-05
0.000136222
0.000185652
0.000245156
0.000309234
0.000368202
0.000412588
0.00043807
0.000438877
0.000414223
0.000370832
0.000310702
0.000249036
0.000190728
0.000138182
9.96934e-05
7.03271e-05
1.34867e-05
1.32537e-05
6.78166e-05
9.81247e-05
0.000136018
0.000187268
0.000247936
0.000311774
0.00037063
0.000415423
0.000440347
0.000441653
0.000415069
0.000368649
0.000309518
0.000247225
0.000188253
0.000137674
9.92639e-05
7.01076e-05
1.36065e-05
1.29768e-05
6.74834e-05
9.74661e-05
0.000136032
0.000183675
0.000243042
0.000309791
0.000372068
0.000417271
0.000442282
0.000441998
0.000420996
0.000373394
0.000309925
0.000248024
0.000190208
0.000137604
9.90665e-05
6.87444e-05
1.29044e-05
1.31967e-05
6.72739e-05
9.6314e-05
0.000132815
0.000183074
0.000242838
0.00031013
0.000368873
0.00041085
0.000436421
0.000442048
0.000415804
0.00036645
0.000308199
0.000246309
0.00018728
0.000137925
9.9605e-05
6.91957e-05
1.32642e-05
1.35929e-05
6.84835e-05
9.53452e-05
0.000132435
0.000181703
0.000241291
0.000304831
0.000363943
0.000410554
0.00043531
0.000434096
0.000410696
0.000367076
0.000310773
0.000249228
0.000188018
0.000136953
9.88703e-05
6.89123e-05
1.29178e-05
1.32492e-05
6.79804e-05
9.55963e-05
0.000132806
0.000182257
0.000241731
0.000305312
0.000365561
0.000409079
0.000433793
0.000433327
0.000408313
0.000363003
0.000305369
0.000244314
0.000185343
0.0001358
9.86585e-05
6.86268e-05
1.2981e-05
1.25358e-05
6.82203e-05
9.68439e-05
0.000132787
0.000182124
0.000241346
0.000304235
0.000361235
0.000410711
0.000439801
0.000436542
0.000409938
0.000366158
0.000309704
0.000246996
0.000187854
0.000137261
9.83133e-05
6.8153e-05
1.30367e-05
1.32018e-05
6.9058e-05
9.58282e-05
0.000133136
0.000182722
0.000241754
0.000305566
0.000360099
0.000406382
0.000432436
0.000435263
0.000414429
0.000365835
0.000306163
0.000243146
0.000185152
0.000136419
9.79022e-05
6.77716e-05
1.29472e-05
1.3077e-05
6.80085e-05
9.61894e-05
0.000134157
0.000183583
0.000242325
0.000302914
0.000359029
0.00040396
0.000430021
0.000433901
0.00041145
0.000364724
0.000305839
0.000243364
0.000185929
0.000137911
9.95152e-05
6.8333e-05
1.30598e-05
1.27347e-05
6.7926e-05
9.51701e-05
0.000134198
0.000186382
0.000243288
0.000303671
0.000359711
0.000404364
0.00043137
0.000432963
0.000412961
0.000363205
0.000305318
0.000243764
0.000185942
0.000137307
9.8554e-05
7.00505e-05
1.28247e-05
1.28221e-05
6.83661e-05
9.61778e-05
0.000135619
0.000186329
0.00024649
0.000308321
0.00036182
0.000405577
0.000430171
0.000430622
0.000407794
0.000362659
0.000305954
0.000244658
0.000187889
0.000137257
9.95622e-05
6.82937e-05
1.3136e-05
1.24595e-05
6.83504e-05
9.69343e-05
0.00013623
0.00018772
0.000246619
0.000307905
0.000364861
0.000407627
0.000431643
0.000431387
0.000407665
0.00036568
0.00030855
0.000246074
0.000187478
0.00013666
9.8351e-05
7.02853e-05
1.3065e-05
1.31499e-05
6.85409e-05
9.73769e-05
0.000136028
0.000187427
0.000245675
0.00030757
0.000366384
0.00041345
0.000438719
0.000437177
0.000411388
0.000364343
0.000310281
0.000248322
0.000186871
0.000138191
9.7844e-05
6.8298e-05
1.31979e-05
1.31845e-05
6.94119e-05
9.85581e-05
0.000136852
0.000188346
0.000247762
0.000306892
0.00036398
0.00041115
0.000436254
0.000434251
0.000410546
0.000364276
0.000309594
0.00024731
0.000186718
0.000136571
9.83043e-05
6.9651e-05
1.33084e-05
1.34266e-05
7.05936e-05
9.8527e-05
0.000137754
0.000187923
0.000246963
0.000307982
0.000364836
0.000409792
0.000433761
0.00043554
0.000413388
0.000364785
0.000308263
0.000247384
0.000187935
0.000137998
9.81813e-05
6.97544e-05
1.32484e-05
1.29704e-05
7.04809e-05
0.00010002
0.000139495
0.000189215
0.000247637
0.000313478
0.000367239
0.000411756
0.000434024
0.00043382
0.000410714
0.000365498
0.000310486
0.000248205
0.000188187
0.000138292
0.000100101
6.99066e-05
1.34242e-05
1.33835e-05
6.9215e-05
9.8837e-05
0.000140384
0.000191956
0.000250678
0.000313316
0.000369997
0.000413195
0.000437269
0.000435761
0.000412046
0.000366751
0.000311913
0.000250097
0.000187914
0.000137922
9.9736e-05
6.99192e-05
1.35167e-05
1.39504e-05
6.99641e-05
0.000100767
0.000141299
0.000191164
0.000249327
0.000310835
0.000367538
0.000411889
0.00043684
0.000436486
0.000413021
0.00036941
0.000310277
0.000248998
0.000189696
0.000137777
9.83103e-05
6.95854e-05
1.34464e-05
1.42165e-05
7.009e-05
9.98549e-05
0.000141684
0.000193164
0.000250463
0.000312736
0.000368821
0.000414401
0.00044346
0.000442691
0.000417705
0.000373454
0.000313915
0.00025059
0.000189978
0.000138227
9.99477e-05
6.92216e-05
1.35054e-05
1.41664e-05
6.94628e-05
0.000101571
0.000142466
0.000191035
0.000250275
0.000313814
0.000374282
0.000420873
0.000444826
0.000440485
0.000413873
0.000370586
0.000315167
0.000250704
0.000189396
0.000138451
9.76037e-05
6.78682e-05
1.34577e-05
1.41561e-05
7.21409e-05
0.000103558
0.000142942
0.000190714
0.000249241
0.000311651
0.000369115
0.000414187
0.000437867
0.000437237
0.000413859
0.000368594
0.000313394
0.000251934
0.000192094
0.000139574
9.87022e-05
6.83133e-05
1.31551e-05
1.37455e-05
7.07542e-05
0.000103772
0.000141603
0.000191099
0.000248777
0.000309916
0.000370386
0.000416648
0.00043884
0.000437664
0.000413075
0.000368464
0.000312024
0.000252177
0.000192188
0.000140265
9.95329e-05
6.91866e-05
1.33611e-05
1.2959e-05
7.2133e-05
0.00010321
0.000141955
0.000192343
0.000249607
0.000312878
0.000367728
0.000412748
0.000436648
0.00043834
0.000415281
0.000369665
0.000312996
0.000252678
0.000192014
0.000139921
0.000100275
6.92599e-05
1.32051e-05
1.29647e-05
7.17745e-05
0.000101751
0.000139417
0.000191287
0.00025166
0.000312787
0.000369127
0.000410723
0.000436608
0.000442646
0.000413824
0.000369806
0.000316242
0.000249636
0.000191949
0.000140801
0.000101055
6.94503e-05
1.37687e-05
1.26037e-05
6.99273e-05
9.99552e-05
0.000139047
0.000191075
0.000249343
0.000312158
0.00037038
0.000409857
0.000436306
0.000438782
0.000413532
0.000371678
0.000313105
0.000248808
0.00018902
0.000137634
9.8714e-05
6.99625e-05
1.31387e-05
1.30354e-05
6.91656e-05
9.88447e-05
0.000139061
0.000190649
0.000252744
0.000312485
0.000367143
0.000409105
0.000431687
0.000432987
0.000414001
0.000372283
0.000312111
0.000247822
0.000189296
0.000138535
9.79628e-05
6.826e-05
1.28939e-05
1.30874e-05
6.8575e-05
9.8564e-05
0.000138304
0.000189214
0.000249709
0.000308587
0.000364942
0.000411359
0.000431863
0.000433527
0.000409608
0.000369289
0.000313477
0.000248654
0.000191576
0.000137809
9.76988e-05
6.77503e-05
1.29436e-05
1.33221e-05
6.87031e-05
9.85065e-05
0.000137552
0.000187511
0.000247522
0.000306755
0.000365448
0.000407591
0.000430994
0.00043193
0.00040933
0.000369445
0.000314414
0.000249549
0.000189126
0.000138331
9.77835e-05
6.8342e-05
1.31101e-05
1.2475e-05
6.85157e-05
9.94406e-05
0.000136616
0.000185154
0.000243705
0.000305669
0.000362518
0.000407065
0.00043326
0.000434645
0.000411766
0.000370117
0.000311536
0.000246644
0.000188334
0.000137717
9.8042e-05
6.78366e-05
1.23443e-05
1.29772e-05
6.91281e-05
9.88927e-05
0.000136857
0.000185451
0.000244637
0.000309648
0.000366633
0.000410205
0.000433247
0.000434187
0.000412034
0.000366579
0.000307365
0.000246734
0.000188561
0.00013791
9.97589e-05
6.78087e-05
1.27314e-05
1.27882e-05
6.82369e-05
9.78528e-05
0.000137582
0.000185496
0.000244331
0.000308898
0.000365812
0.000409062
0.000431449
0.000432438
0.000408977
0.000365738
0.000307442
0.00024758
0.000188408
0.000139679
9.90355e-05
6.95254e-05
1.28579e-05
1.3136e-05
6.92274e-05
9.87259e-05
0.000137312
0.000186152
0.000244917
0.000309181
0.000366416
0.000409469
0.000432967
0.000431473
0.00041238
0.000364566
0.000307707
0.000248938
0.000187664
0.000138907
9.71191e-05
6.86976e-05
1.25859e-05
1.31826e-05
6.93797e-05
9.75721e-05
0.000136693
0.000186859
0.00024604
0.00030723
0.000365503
0.00040795
0.00043169
0.000429564
0.000405522
0.000363229
0.000310032
0.000245927
0.000187541
0.000138639
9.81172e-05
6.87867e-05
1.30009e-05
1.33011e-05
6.94355e-05
9.98078e-05
0.000139745
0.000190569
0.000250084
0.000308356
0.000367398
0.000410572
0.000432324
0.000430441
0.000405554
0.000364345
0.000306643
0.000246072
0.000188293
0.000138697
9.88763e-05
6.8645e-05
1.32174e-05
1.35589e-05
6.995e-05
9.92755e-05
0.000138926
0.000189528
0.000248938
0.000309913
0.000368298
0.000409618
0.000431315
0.000428949
0.0004045
0.000361958
0.000308802
0.000245641
0.000187642
0.000139158
0.000100666
7.08859e-05
1.34655e-05
1.34986e-05
6.7836e-05
9.93204e-05
0.000139569
0.000189587
0.000248369
0.000311244
0.000370725
0.00041241
0.000431363
0.00043005
0.000405194
0.000361985
0.000306584
0.000246136
0.000187271
0.000137829
9.87205e-05
6.97683e-05
1.33749e-05
1.35556e-05
6.89167e-05
0.000101119
0.000139801
0.000189658
0.000246414
0.000307452
0.000367907
0.000410979
0.000433651
0.000431427
0.000405918
0.000364083
0.000308331
0.000249527
0.000187269
0.000138107
9.94292e-05
6.9611e-05
1.30492e-05
1.3051e-05
6.86452e-05
0.000101633
0.000139888
0.000189429
0.000246028
0.000307164
0.000364296
0.000408599
0.000433733
0.000438192
0.000407601
0.000362054
0.000308346
0.000246107
0.000187927
0.000138141
9.95707e-05
7.07946e-05
1.30452e-05
1.33318e-05
6.92844e-05
0.000101747
0.000139264
0.000188711
0.000249233
0.000311137
0.000368367
0.000412004
0.000435484
0.000436957
0.000412604
0.000362491
0.000306074
0.000248076
0.000190284
0.000137878
9.81001e-05
6.89087e-05
1.29325e-05
1.31132e-05
7.09896e-05
0.000101479
0.000138142
0.000186396
0.000245748
0.000308753
0.000369934
0.000412087
0.000434616
0.000435103
0.00040999
0.000362795
0.000305818
0.000245414
0.000188578
0.000138342
9.80413e-05
6.85689e-05
1.29162e-05
1.35715e-05
7.02488e-05
0.000100107
0.000137985
0.000186825
0.000246101
0.000310239
0.000366897
0.000411188
0.000436295
0.000434508
0.000412376
0.000366531
0.000308174
0.000246512
0.000189993
0.000137914
9.82666e-05
6.99823e-05
1.31736e-05
1.37738e-05
6.98855e-05
0.000100267
0.000137598
0.000187296
0.00024706
0.000312311
0.000370477
0.000417575
0.000443008
0.000439447
0.00041414
0.000367701
0.000309646
0.000245729
0.000187182
0.000137285
9.78236e-05
6.94668e-05
1.29853e-05
1.29917e-05
6.88403e-05
9.9532e-05
0.000137237
0.000187713
0.000248072
0.000310774
0.000369214
0.000412161
0.000438998
0.000436038
0.000409322
0.000366627
0.000308474
0.000246161
0.000187643
0.000138541
9.79557e-05
6.83935e-05
1.31735e-05
1.34668e-05
6.83483e-05
9.9555e-05
0.000138244
0.000188936
0.000249238
0.000314053
0.000368863
0.000411545
0.000436842
0.000434003
0.000408295
0.000363801
0.000306944
0.000246642
0.000188688
0.000137862
9.83427e-05
6.79622e-05
1.25879e-05
1.28232e-05
6.85386e-05
9.87199e-05
0.000136632
0.000191102
0.000251212
0.000314054
0.000367308
0.000412011
0.00043922
0.000435525
0.000410597
0.000367995
0.000309938
0.000247579
0.000190211
0.000139711
9.8901e-05
6.94976e-05
1.28446e-05
1.28262e-05
6.80528e-05
9.84834e-05
0.000136546
0.000187824
0.000247045
0.000309521
0.000367658
0.000412844
0.000437041
0.000440229
0.000415643
0.000369615
0.000311671
0.00025126
0.000191372
0.000139139
9.90529e-05
6.97156e-05
1.28854e-05
1.29424e-05
6.85212e-05
9.87333e-05
0.000137481
0.000186233
0.000245565
0.0003088
0.000368846
0.000416471
0.00044079
0.000438849
0.000414776
0.00037193
0.000314527
0.000251987
0.000191383
0.000139144
9.96666e-05
6.98176e-05
1.28225e-05
1.33698e-05
6.84883e-05
9.86757e-05
0.000137171
0.000189091
0.000249545
0.000311824
0.000370223
0.000417555
0.000443477
0.000443034
0.000420687
0.000374581
0.000315316
0.000251121
0.000190904
0.000141009
0.000101206
6.97348e-05
1.28895e-05
1.28348e-05
6.898e-05
9.94236e-05
0.000138343
0.00018944
0.000249548
0.000311633
0.000369438
0.000413395
0.000438647
0.000443804
0.000415735
0.000370346
0.00031273
0.000249333
0.000192003
0.000139885
0.000100778
6.97158e-05
1.29011e-05
1.29469e-05
6.8483e-05
9.9738e-05
0.000139863
0.00018927
0.000250076
0.000312897
0.000372965
0.000414637
0.000438093
0.000438654
0.000414504
0.000369403
0.00031152
0.000249327
0.000189682
0.000139703
0.000100884
7.02278e-05
1.30564e-05
1.32896e-05
6.88211e-05
0.000100422
0.000139148
0.000189835
0.000249438
0.00031204
0.000370835
0.000418885
0.000442321
0.000441168
0.000419339
0.000373451
0.000315426
0.000252498
0.000190324
0.00013962
0.000100287
6.9983e-05
1.32272e-05
1.23016e-05
6.93339e-05
0.000101099
0.000140423
0.000191139
0.000250971
0.000313639
0.000372121
0.000417796
0.000443966
0.000444557
0.000420147
0.000375406
0.000316188
0.000252396
0.000190755
0.000139139
9.94595e-05
7.01054e-05
1.32359e-05
1.31026e-05
7.06815e-05
0.000101851
0.000141538
0.000192838
0.00025369
0.000318622
0.000379996
0.000423199
0.000451148
0.000448857
0.00042363
0.000377872
0.000318411
0.000254203
0.000192566
0.000140905
9.97082e-05
6.88768e-05
1.33772e-05
1.34469e-05
7.07229e-05
0.000102103
0.000143641
0.00019424
0.000254408
0.00031874
0.000377366
0.000422962
0.000449112
0.000453817
0.000430219
0.000384371
0.000324382
0.000258344
0.00019583
0.000140662
9.99978e-05
7.00167e-05
1.33836e-05
1.31228e-05
7.0665e-05
0.000102281
0.000144909
0.000196072
0.000256575
0.000321924
0.000382027
0.000425612
0.000452435
0.000452783
0.000428073
0.000382714
0.000323649
0.000258204
0.000195488
0.000141429
0.000100143
6.94133e-05
1.31957e-05
1.23896e-05
7.0548e-05
0.000103058
0.000145864
0.000197668
0.00025869
0.000325347
0.000383309
0.000430183
0.000460601
0.00046062
0.000435112
0.000386006
0.000325521
0.000257985
0.00019528
0.000141548
0.00010034
7.01532e-05
1.27321e-05
1.26869e-05
7.00861e-05
0.000103054
0.000145667
0.000202096
0.000264589
0.000327121
0.000385422
0.000431815
0.00046126
0.000459588
0.000434432
0.000388281
0.000328072
0.000259975
0.000196555
0.000143152
0.000100595
7.03524e-05
1.2955e-05
1.27293e-05
7.01056e-05
0.000104117
0.000146966
0.000203629
0.000266433
0.00033027
0.000389167
0.000435581
0.000461628
0.00046254
0.000437934
0.000392478
0.000332477
0.000266162
0.000200937
0.000145504
0.00010078
7.01446e-05
1.27097e-05
1.23487e-05
7.01472e-05
0.000104176
0.000150353
0.000206141
0.000270458
0.000337371
0.000397932
0.000441355
0.000466429
0.000468341
0.000447006
0.000397208
0.000335503
0.00026734
0.000200523
0.000145503
0.000101862
7.04123e-05
1.28267e-05
1.25743e-05
6.98673e-05
0.000105032
0.000149023
0.00020733
0.000275289
0.000342421
0.000403972
0.000451755
0.000477698
0.000474535
0.000453254
0.000405783
0.000341844
0.000272128
0.000203933
0.000145244
0.000101343
6.93299e-05
1.29198e-05
1.27583e-05
6.90866e-05
0.000101934
0.000145087
0.000205434
0.00027815
0.000347832
0.000409099
0.000454472
0.000482611
0.000480652
0.000457518
0.000408918
0.000345028
0.000273077
0.000200636
0.000142665
0.000101935
6.97909e-05
1.20481e-05
1.14259e-05
6.83227e-05
9.90718e-05
0.000144361
0.0002064
0.000281026
0.000352537
0.000415672
0.000461583
0.000491127
0.000491868
0.000460724
0.000411826
0.000348752
0.000275807
0.000202943
0.000142568
9.98943e-05
6.98155e-05
1.20704e-05
1.14503e-05
6.84911e-05
9.94986e-05
0.00014494
0.000208847
0.000283702
0.000358255
0.000423207
0.000474639
0.000501931
0.000500725
0.000468303
0.000418228
0.000354529
0.000276451
0.000205073
0.000143757
0.000100789
6.95813e-05
1.19251e-05
1.12648e-05
6.76306e-05
0.000100709
0.000145364
0.000211435
0.000290108
0.000367159
0.000434749
0.000487107
0.000513877
0.000513154
0.000482892
0.00043041
0.000361578
0.000280526
0.000205869
0.000143441
0.000101508
6.88075e-05
1.14088e-05
1.07199e-05
6.56097e-05
9.85355e-05
0.000146369
0.000213245
0.000293072
0.000374737
0.000446795
0.000500781
0.00052889
0.000526934
0.000492315
0.000439005
0.000369795
0.000285999
0.000206932
0.000144218
0.0001007
6.76603e-05
1.16867e-05
1.14632e-05
6.48105e-05
9.7073e-05
0.000148776
0.000214965
0.000301293
0.00038539
0.000460113
0.000516013
0.00054488
0.000542852
0.000510192
0.000453398
0.000379487
0.000293047
0.000211575
0.00014632
0.000100541
6.55456e-05
1.0614e-05
1.15437e-05
6.50556e-05
0.000101035
0.00015385
0.00022426
0.0003097
0.000396831
0.000473818
0.00053143
0.000561644
0.000559861
0.000527507
0.000468911
0.000391653
0.000305064
0.000220473
0.000151754
0.000103441
6.39961e-05
1.03154e-05
1.09707e-05
6.38693e-05
9.93816e-05
0.00015946
0.000226109
0.000314953
0.000408904
0.000489368
0.000548673
0.00057964
0.000578026
0.000544683
0.000484075
0.000402425
0.000307741
0.000219637
0.000150003
9.77508e-05
6.16142e-05
9.9406e-06
1.02982e-05
6.19129e-05
9.66761e-05
0.000157245
0.00023218
0.000326089
0.000424004
0.000506978
0.000567423
0.000599179
0.000598371
0.000564744
0.00050252
0.000417573
0.000318125
0.000225821
0.000155343
9.79469e-05
6.07355e-05
1.0402e-05
1.09708e-05
6.00141e-05
9.62543e-05
0.00015621
0.000246306
0.000341652
0.000440614
0.000526153
0.000587551
0.00062014
0.000621415
0.000587876
0.00052352
0.000435073
0.000330863
0.000232347
0.000155239
9.57942e-05
5.87844e-05
1.09964e-05
1.02327e-05
5.74698e-05
0.000103393
0.000168056
0.000257423
0.000361849
0.000459898
0.000547082
0.000612151
0.000646327
0.000646757
0.000612789
0.000546959
0.000454713
0.000348033
0.000243268
0.000153433
9.6049e-05
5.74721e-05
1.0058e-05
1.16559e-05
5.66806e-05
0.000111668
0.00017989
0.000278246
0.000383121
0.000485701
0.00057442
0.00063857
0.000672184
0.000672334
0.000638524
0.000572724
0.000480395
0.00037177
0.000262637
0.000166992
9.5832e-05
5.72607e-05
1.07695e-05
1.17005e-05
6.13034e-05
0.000121918
0.000198773
0.000295271
0.000407396
0.000519009
0.000608152
0.000670821
0.000703224
0.000703544
0.000671185
0.000607435
0.0005157
0.000402569
0.000287046
0.000188039
0.000105967
5.77497e-05
1.25837e-05
1.26109e-05
6.14061e-05
0.000133671
0.000214439
0.000325133
0.000443673
0.000555208
0.000643184
0.000703823
0.000734663
0.000734731
0.000703838
0.000642561
0.000552654
0.000438034
0.00031686
0.000209908
0.000124684
6.64322e-05
1.29241e-05
1.40409e-05
6.38832e-05
0.000141921
0.000242514
0.000367164
0.000489493
0.000596276
0.000679713
0.000736065
0.000764456
0.000764827
0.000736868
0.000680005
0.000594571
0.000483637
0.00035416
0.000235765
0.000138033
7.25311e-05
1.4164e-05
1.56943e-05
7.40915e-05
0.000152478
0.000268831
0.000406361
0.000534062
0.000639847
0.000718148
0.000768672
0.000793294
0.000793537
0.000769249
0.000718614
0.000639497
0.000531952
0.000400813
0.000270399
0.000159793
8.04886e-05
1.55224e-05
1.70476e-05
8.52767e-05
0.000186204
0.000311524
0.000456567
0.000585578
0.000686097
0.000755859
0.000798441
0.000818352
0.000818533
0.000798885
0.000756297
0.000686131
0.000584994
0.000455791
0.000311349
0.000182558
8.61483e-05
1.70531e-05
1.91146e-05
9.43078e-05
0.000210185
0.000356541
0.000511755
0.000640311
0.000731805
0.000789858
0.00082274
0.000837004
0.000837065
0.000822886
0.000790006
0.000731734
0.000639818
0.000511013
0.000356241
0.000210814
9.5735e-05
1.90512e-05
2.05677e-05
0.000112249
0.000247325
0.0004146
0.000575849
0.000697578
0.000774109
0.000816195
0.000836498
0.000844421
0.000844445
0.000836562
0.000816301
0.000774049
0.000697168
0.000574866
0.000413102
0.000246157
0.000111272
2.06994e-05
2.21798e-05
0.000131426
0.000290446
0.000485116
0.000651394
0.000757559
0.000812291
0.000836095
0.000845348
0.000848366
0.000848386
0.000845371
0.000836132
0.000812451
0.000757948
0.000652184
0.000486272
0.000291723
0.000132093
2.21288e-05
2.3696e-05
0.000164509
0.000383153
0.000606532
0.000748857
0.000811811
0.000836587
0.00084508
0.000848979
0.000850818
0.000850844
0.000849069
0.000845279
0.00083686
0.000812014
0.000748575
0.000605754
0.000382491
0.000164536
2.37626e-05
2.56516e-05
0.000279261
0.000620533
0.000792845
0.000839742
0.000849402
0.0008504
0.000851683
0.000851985
0.000851955
0.000851949
0.00085197
0.000851677
0.00085039
0.000849288
0.000839623
0.000793045
0.000620807
0.000279355
2.56363e-05
3.63001e-05
0.000111365
0.000143317
0.000173363
0.000210641
0.000256885
0.000315426
0.000382876
0.000445318
0.000482687
0.000479617
0.000439462
0.00037701
0.000309031
0.000250586
0.000204344
0.000167945
0.000137198
0.000107891
3.63369e-05
3.49892e-05
0.000112221
0.00014523
0.000177633
0.0002154
0.000261678
0.000317883
0.000385789
0.000449405
0.00048775
0.000482573
0.000442045
0.000380213
0.000311442
0.000253129
0.00020782
0.000171883
0.000138462
0.00010896
3.55837e-05
3.65294e-05
0.00011435
0.000144047
0.000175421
0.000214464
0.000260635
0.000319079
0.000387857
0.000452697
0.000503095
0.000499089
0.000454976
0.000385811
0.000316283
0.000254712
0.000209104
0.000171546
0.000138345
0.000107857
3.77392e-05
3.59893e-05
0.000113007
0.00014273
0.000176409
0.000215716
0.000262059
0.00032612
0.000398428
0.000461918
0.000489428
0.000483171
0.00044204
0.000385861
0.00031134
0.000253176
0.000207089
0.000170832
0.000138874
0.000107746
4.04202e-05
3.86903e-05
0.000111517
0.000143947
0.000174046
0.000214873
0.000261188
0.000322757
0.000390922
0.000458019
0.000499972
0.000494949
0.000448138
0.000378727
0.000313217
0.000250934
0.000207587
0.000173812
0.000140312
0.0001091
3.95178e-05
4.06372e-05
0.00011114
0.000142993
0.000174749
0.000212956
0.000266145
0.000329641
0.00040173
0.000451022
0.000488948
0.000483153
0.000437474
0.000381842
0.000308877
0.00025085
0.000207692
0.000171688
0.000140073
0.000109624
3.94333e-05
3.98951e-05
0.000112329
0.000144628
0.000175851
0.000214031
0.000261582
0.000321517
0.000388414
0.000447665
0.000498778
0.000493662
0.000434702
0.000378818
0.000307211
0.000252599
0.00020701
0.000171227
0.000142554
0.000109031
3.78178e-05
3.88015e-05
0.000109774
0.000145598
0.000180431
0.00021874
0.000267164
0.000324081
0.000390201
0.000443302
0.000476941
0.000471511
0.000429137
0.000369266
0.000305533
0.000249378
0.000205791
0.000170442
0.000141491
0.00010901
3.45088e-05
3.57834e-05
0.000108786
0.000143895
0.000180164
0.000217912
0.000263173
0.000329878
0.000401417
0.000447202
0.000478848
0.000469419
0.000427584
0.000368245
0.000306396
0.000250538
0.000207974
0.000171321
0.000141081
0.000109187
3.69612e-05
3.83758e-05
0.00011053
0.000145038
0.000180079
0.000218836
0.000264358
0.000322088
0.000388196
0.000448137
0.000492694
0.00047286
0.000429081
0.000369208
0.000306905
0.000253366
0.000207681
0.000173715
0.000144836
0.000111081
3.87958e-05
3.96542e-05
0.000110747
0.000145946
0.000179708
0.000216077
0.000264399
0.000327989
0.0003982
0.000451866
0.000480942
0.000476819
0.000432021
0.000370801
0.000308078
0.000255496
0.000207264
0.000170922
0.000141832
0.000113134
3.5627e-05
4.00526e-05
0.00010956
0.000149993
0.000176021
0.00021179
0.000260626
0.000326033
0.000396997
0.000455946
0.000487649
0.000480158
0.000435425
0.000374508
0.000309125
0.000252046
0.000208187
0.000172135
0.000140639
0.000112165
3.79242e-05
3.98303e-05
0.000110488
0.000146793
0.000175666
0.000212844
0.000261604
0.000327751
0.000397386
0.000467891
0.000506288
0.000498189
0.000452541
0.000385902
0.00031659
0.000255501
0.00020846
0.000173593
0.000141393
0.000109975
3.97628e-05
3.93619e-05
0.000109207
0.000145846
0.00017843
0.000216907
0.000261163
0.000327864
0.000392286
0.000462717
0.000495831
0.000488605
0.000443956
0.000380359
0.000310608
0.000257375
0.000210739
0.000172514
0.000143032
0.000114176
3.70638e-05
3.79712e-05
0.000109844
0.000145909
0.000176002
0.000214079
0.000261208
0.000325192
0.000392096
0.000462895
0.000490072
0.000478853
0.00043954
0.000379359
0.000312042
0.000251801
0.00020529
0.000174501
0.000145466
0.000113684
3.94637e-05
3.51134e-05
0.000109365
0.000145834
0.000179004
0.000217881
0.000264801
0.000333898
0.000399497
0.000445987
0.000494513
0.000479721
0.000447231
0.00037359
0.000307569
0.000251729
0.000204282
0.000172523
0.000141882
0.000112427
3.70839e-05
3.7803e-05
0.000110749
0.000145235
0.000175801
0.000213548
0.000262226
0.000324953
0.00038717
0.000440576
0.000479391
0.000479546
0.000437052
0.000373981
0.000311446
0.000251875
0.000204813
0.000170534
0.000143256
0.00011173
3.86614e-05
3.96632e-05
0.000110885
0.000144233
0.000175353
0.000212953
0.000258867
0.00031994
0.000394086
0.000442374
0.000483475
0.000496237
0.000448731
0.00038046
0.000306005
0.00024914
0.000206753
0.000165545
0.000138335
0.000108239
3.39977e-05
3.84274e-05
0.000110593
0.000144969
0.00017919
0.000218099
0.000264114
0.0003217
0.00038126
0.000441957
0.000482854
0.000482694
0.000435519
0.000373694
0.000304735
0.000247404
0.000202714
0.000166412
0.000137025
0.000106744
3.46521e-05
3.61014e-05
0.000111946
0.000142325
0.000175793
0.000215606
0.000259116
0.000319105
0.000380968
0.000443039
0.000475701
0.000491906
0.00043374
0.000379966
0.000306223
0.000247624
0.000202266
0.000166229
0.000137542
0.000106851
3.34712e-05
3.86581e-05
0.000109296
0.000142511
0.000178212
0.00021751
0.000260714
0.000316698
0.000380432
0.000438843
0.000475077
0.000477811
0.000429294
0.000368936
0.000308035
0.000250344
0.00020363
0.000168812
0.000138538
0.000107276
3.73051e-05
3.70575e-05
0.000110387
0.000144451
0.000180787
0.00021985
0.000264733
0.000323433
0.000392833
0.000440334
0.000474641
0.000466144
0.000425694
0.000368525
0.00031153
0.000248377
0.000200406
0.000167675
0.000141124
0.000107853
3.64896e-05
3.90691e-05
0.000111459
0.000147098
0.000181693
0.000221883
0.000265314
0.000318825
0.000383106
0.000446329
0.000479378
0.000470181
0.000428333
0.000369321
0.000307506
0.00024686
0.00020043
0.000169812
0.000140106
0.00010906
3.83026e-05
3.59353e-05
0.000111054
0.000146304
0.000183855
0.000223241
0.000266477