/*--------------------------------*- C++ -*----------------------------------*\
  =========                 |
  \\      /  F ield         | OpenFOAM: The Open Source CFD Toolbox
   \\    /   O peration     | Website:  https://openfoam.org
    \\  /    A nd           | Version:  6
     \\/     M anipulation  |
\*---------------------------------------------------------------------------*/
FoamFile
{
    version     2.0;
    format      ascii;
    class       volScalarField;
    location    "10";
    object      nut;
}
// * * * * * * * * * * * * * * * * * * * * * * * * * * * * * * * * * * * * * //

dimensions      [0 2 -1 0 0 0 0];

internalField   nonuniform List<scalar> 
130000
(
0.000888382
0.00089187
0.000894286
0.000895642
0.000896107
0.000895858
0.00089507
0.000893896
0.000892464
0.000890871
0.000889195
0.000887495
0.000885815
0.00088418
0.000882611
0.000881119
0.000879708
0.000878378
0.00087712
0.00087593
0.00088837
0.000891854
0.000894252
0.000895585
0.00089602
0.000895742
0.000894927
0.000893731
0.000892282
0.000890681
0.000889012
0.000887321
0.000885644
0.000884006
0.000882432
0.000880936
0.000879522
0.000878188
0.000876927
0.000875733
0.000888444
0.000891933
0.000894323
0.000895647
0.00089608
0.000895808
0.000895002
0.000893812
0.000892363
0.000890767
0.000889109
0.000887413
0.000885717
0.000884068
0.000882486
0.000880983
0.00087956
0.000878216
0.000876944
0.000875741
0.000888541
0.000892045
0.000894452
0.000895811
0.000896277
0.000896034
0.000895228
0.000894021
0.000892552
0.000890947
0.000889286
0.000887581
0.000885874
0.000884216
0.00088262
0.000881096
0.000879647
0.000878279
0.000876991
0.00087578
0.000888643
0.00089217
0.00089462
0.000896019
0.000896493
0.000896256
0.000895444
0.000894228
0.000892744
0.000891112
0.000889406
0.000887676
0.000885958
0.000884281
0.000882657
0.00088109
0.00087957
0.000878153
0.000876841
0.000875624
0.000888736
0.000892288
0.000894773
0.000896187
0.000896651
0.000896385
0.000895562
0.000894342
0.000892857
0.000891215
0.000889492
0.000887743
0.000886008
0.000884309
0.000882658
0.000881053
0.00087947
0.000878027
0.000876697
0.000875478
0.000888808
0.000892372
0.000894874
0.000896275
0.000896749
0.000896482
0.000895656
0.00089443
0.000892938
0.000891285
0.000889548
0.000887785
0.000886035
0.000884321
0.00088266
0.000881055
0.000879499
0.000878073
0.00087675
0.00087552
0.000888858
0.000892425
0.00089494
0.000896346
0.000896822
0.000896555
0.000895725
0.000894494
0.000892994
0.000891331
0.000889584
0.000887809
0.000886047
0.000884326
0.000882665
0.000881078
0.000879581
0.000878181
0.000876871
0.000875631
0.000888907
0.000892482
0.000895007
0.000896411
0.000896884
0.000896614
0.000895779
0.000894541
0.000893034
0.000891362
0.000889604
0.000887818
0.000886046
0.000884318
0.000882654
0.000881069
0.000879572
0.000878172
0.000876871
0.000875633
0.000888969
0.000892567
0.000895082
0.000896474
0.000896941
0.000896664
0.000895824
0.000894579
0.000893063
0.000891382
0.000889613
0.000887816
0.000886033
0.000884294
0.000882618
0.000881021
0.000879507
0.000878082
0.000876771
0.000875531
0.000889026
0.000892644
0.000895121
0.000896523
0.000896991
0.000896711
0.000895864
0.000894612
0.000893087
0.000891395
0.000889615
0.000887806
0.000886009
0.000884253
0.000882555
0.000880918
0.000879377
0.000877951
0.000876658
0.000875434
0.000889071
0.000892696
0.000895172
0.000896585
0.000897047
0.00089676
0.000895906
0.000894644
0.000893109
0.000891405
0.000889612
0.000887789
0.000885977
0.000884206
0.000882491
0.000880832
0.000879278
0.000877888
0.000876601
0.000875394
0.000889124
0.000892769
0.000895272
0.000896676
0.000897119
0.000896818
0.000895952
0.000894679
0.000893131
0.000891414
0.000889606
0.000887767
0.00088594
0.000884159
0.000882447
0.00088082
0.000879271
0.000877866
0.000876538
0.00087539
0.000889186
0.000892842
0.000895347
0.000896745
0.000897186
0.000896878
0.000896002
0.000894718
0.000893156
0.000891422
0.000889596
0.000887739
0.000885895
0.000884098
0.000882381
0.000880775
0.000879287
0.000877884
0.000876608
0.000875434
0.000889264
0.000892923
0.000895419
0.000896787
0.000897258
0.000896946
0.000896061
0.000894763
0.000893185
0.000891433
0.000889587
0.000887708
0.000885841
0.00088402
0.000882266
0.000880654
0.000879199
0.000877877
0.000876614
0.000875423
0.000889372
0.000893035
0.000895526
0.000896881
0.00089734
0.000897027
0.000896131
0.000894819
0.000893223
0.000891451
0.000889583
0.00088768
0.000885789
0.000883944
0.00088217
0.000880561
0.000879108
0.000877791
0.00087655
0.00087537
0.000889521
0.000893178
0.000895664
0.000897016
0.000897417
0.000897123
0.000896218
0.000894889
0.000893275
0.000891482
0.000889592
0.000887666
0.000885751
0.000883885
0.000882102
0.000880478
0.000879012
0.00087766
0.000876429
0.00087526
0.000889662
0.000893325
0.000895809
0.000897155
0.000897543
0.000897232
0.000896324
0.000894977
0.000893345
0.000891534
0.000889625
0.00088768
0.000885742
0.000883848
0.000882016
0.000880322
0.000878791
0.000877377
0.000876086
0.000874889
0.000889809
0.000893482
0.000895969
0.000897314
0.000897703
0.000897328
0.000896435
0.00089508
0.000893435
0.000891612
0.000889691
0.000887737
0.000885795
0.000883903
0.000882086
0.000880353
0.000878789
0.000877336
0.000875983
0.000874722
0.000889963
0.000893645
0.000896134
0.000897475
0.000897854
0.000897462
0.000896545
0.000895196
0.000893542
0.000891709
0.000889781
0.000887822
0.000885875
0.000883973
0.000882144
0.000880436
0.000878861
0.000877403
0.000876085
0.000874885
0.000890119
0.000893811
0.000896305
0.000897645
0.000898021
0.000897627
0.000896647
0.000895306
0.000893654
0.000891816
0.000889885
0.000887924
0.000885981
0.00088406
0.000882178
0.000880445
0.000878852
0.000877427
0.000876206
0.000875061
0.000890276
0.00089398
0.000896478
0.000897816
0.000898186
0.000897782
0.000896786
0.000895425
0.000893777
0.000891928
0.000889991
0.00088803
0.000886089
0.000884172
0.0008823
0.000880598
0.000879046
0.00087763
0.000876362
0.000875208
0.000890439
0.000894155
0.000896657
0.000897995
0.00089836
0.000897951
0.000896956
0.000895544
0.00089388
0.000892028
0.000890088
0.000888125
0.000886187
0.000884289
0.000882485
0.000880813
0.000879276
0.000877861
0.000876585
0.000875454
0.000890613
0.00089434
0.000896844
0.000898177
0.000898533
0.00089811
0.000897092
0.000895639
0.000893958
0.000892114
0.000890171
0.000888203
0.000886267
0.000884379
0.000882614
0.000880983
0.000879475
0.000878071
0.00087684
0.000875699
0.0008908
0.000894536
0.00089704
0.000898369
0.000898716
0.00089828
0.000897249
0.000895783
0.000894076
0.000892216
0.000890242
0.000888243
0.000886276
0.000884385
0.000882613
0.000880999
0.000879504
0.000878081
0.00087679
0.000875626
0.000890996
0.000894741
0.000897246
0.000898569
0.000898906
0.000898459
0.000897418
0.000895951
0.000894207
0.000892309
0.000890309
0.000888278
0.000886268
0.000884328
0.000882486
0.000880815
0.000879277
0.000877871
0.000876599
0.000875445
0.0008912
0.000894956
0.000897462
0.000898778
0.000899103
0.000898639
0.000897576
0.000896081
0.000894295
0.000892372
0.000890366
0.000888316
0.000886276
0.000884308
0.000882456
0.000880732
0.000879172
0.000877796
0.000876532
0.000875358
0.000891415
0.000895182
0.000897688
0.000898998
0.00089931
0.000898828
0.000897743
0.000896217
0.000894385
0.000892443
0.000890403
0.000888331
0.000886264
0.000884295
0.000882419
0.000880715
0.00087918
0.000877821
0.000876553
0.00087541
0.000891642
0.00089542
0.000897927
0.00089923
0.00089953
0.000899032
0.000897927
0.000896379
0.000894521
0.000892512
0.00089042
0.000888317
0.000886245
0.000884306
0.000882411
0.000880706
0.000879159
0.000877772
0.000876539
0.000875474
0.000891881
0.000895671
0.000898179
0.000899473
0.00089976
0.000899246
0.000898123
0.000896558
0.000894686
0.000892614
0.000890472
0.000888355
0.000886299
0.000884335
0.000882455
0.000880785
0.000879195
0.000877737
0.000876494
0.000875356
0.000892133
0.000895934
0.000898442
0.000899729
0.000900002
0.00089947
0.000898326
0.000896739
0.000894846
0.000892758
0.000890562
0.000888409
0.000886347
0.000884347
0.000882481
0.000880829
0.000879233
0.000877762
0.000876466
0.000875303
0.000892397
0.00089621
0.000898718
0.000899996
0.000900255
0.000899704
0.00089854
0.000896931
0.000895015
0.000892901
0.000890673
0.0008885
0.000886405
0.000884431
0.000882562
0.000880858
0.000879261
0.000877787
0.000876491
0.00087533
0.000892674
0.0008965
0.000899008
0.000900278
0.000900521
0.000899953
0.000898769
0.000897142
0.00089521
0.000893086
0.000890855
0.00088865
0.000886516
0.000884516
0.000882648
0.000880898
0.000879252
0.000877811
0.00087648
0.000875323
0.000892964
0.000896803
0.000899312
0.000900573
0.000900802
0.000900214
0.00089901
0.000897362
0.000895413
0.000893277
0.000891044
0.000888782
0.00088661
0.000884567
0.000882688
0.000880949
0.000879346
0.000877897
0.000876549
0.000875415
0.000893268
0.000897123
0.000899633
0.000900885
0.000901098
0.000900491
0.000899264
0.000897593
0.000895621
0.000893465
0.000891218
0.00088896
0.000886761
0.000884678
0.000882754
0.000881007
0.000879397
0.000877905
0.000876609
0.000875482
0.000893589
0.00089746
0.000899972
0.000901216
0.000901413
0.000900786
0.000899538
0.000897842
0.000895845
0.000893661
0.000891383
0.000889084
0.000886824
0.000884654
0.000882661
0.000880864
0.000879237
0.000877744
0.000876439
0.000875289
0.000893928
0.000897817
0.000900332
0.000901567
0.00090175
0.000901104
0.000899834
0.000898116
0.000896095
0.000893885
0.000891575
0.000889232
0.000886908
0.000884671
0.00088264
0.000880824
0.000879188
0.00087768
0.000876359
0.000875186
0.000894287
0.000898194
0.000900712
0.00090194
0.000902108
0.000901444
0.000900154
0.000898417
0.000896378
0.000894152
0.000891827
0.00088947
0.00088713
0.000884879
0.000882836
0.000880941
0.000879235
0.000877685
0.000876332
0.000875142
0.000894666
0.000898592
0.000901113
0.000902333
0.000902487
0.000901804
0.000900495
0.000898741
0.000896689
0.000894455
0.000892131
0.000889787
0.000887477
0.000885243
0.000883185
0.000881214
0.000879464
0.000877892
0.00087653
0.000875341
0.000895064
0.00089901
0.000901534
0.000902745
0.000902883
0.00090218
0.000900851
0.000899078
0.000897011
0.00089477
0.000892447
0.000890116
0.000887831
0.000885636
0.000883558
0.000881589
0.000879843
0.00087827
0.000876906
0.000875719
0.00089548
0.000899446
0.000901973
0.000903175
0.000903294
0.000902569
0.000901216
0.000899421
0.000897335
0.00089508
0.00089275
0.000890421
0.000888149
0.000885976
0.000883924
0.000881994
0.000880259
0.000878686
0.000877308
0.000876099
0.000895908
0.000899897
0.000902429
0.000903621
0.00090372
0.00090297
0.00090159
0.000899767
0.000897656
0.000895378
0.00089303
0.000890688
0.000888412
0.000886245
0.000884216
0.000882343
0.000880631
0.000879065
0.000877685
0.000876471
0.00089631
0.000900354
0.000902901
0.000904086
0.000904165
0.000903387
0.000901975
0.000900119
0.000897976
0.000895668
0.000893293
0.000890928
0.000888632
0.00088645
0.000884412
0.000882533
0.000880814
0.000879241
0.000877848
0.000876619
0.000896792
0.000900859
0.000903409
0.00090458
0.000904634
0.000903824
0.000902376
0.000900484
0.000898304
0.000895962
0.000893554
0.000891159
0.000888836
0.000886632
0.000884575
0.000882679
0.000880947
0.000879361
0.000877953
0.000876711
0.000897313
0.000901403
0.000903952
0.000905106
0.000905131
0.000904286
0.000902799
0.000900867
0.000898648
0.000896267
0.000893823
0.000891395
0.000889043
0.000886812
0.000884733
0.000882819
0.000881071
0.000879472
0.00087805
0.000876798
0.000897871
0.000901983
0.00090453
0.000905665
0.000905659
0.000904776
0.000903247
0.000901272
0.00089901
0.000896589
0.000894107
0.000891644
0.00088926
0.000887003
0.0008849
0.000882967
0.000881203
0.000879591
0.000878155
0.000876893
0.000898467
0.000902603
0.000905146
0.00090626
0.000906221
0.000905296
0.000903723
0.000901703
0.000899396
0.000896932
0.00089441
0.000891911
0.000889495
0.000887209
0.000885082
0.000883129
0.00088135
0.000879725
0.000878274
0.000877003
0.000899102
0.000903261
0.000905801
0.000906892
0.000906817
0.00090585
0.00090423
0.000902162
0.000899809
0.0008973
0.000894736
0.000892199
0.000889749
0.000887433
0.000885282
0.000883309
0.000881513
0.000879875
0.000878409
0.000877125
0.000899775
0.000903959
0.000906496
0.000907564
0.000907452
0.000906439
0.00090477
0.000902652
0.00090025
0.000897694
0.000895087
0.00089251
0.000890025
0.000887679
0.000885501
0.000883506
0.000881692
0.00088004
0.000878558
0.000877262
0.000900488
0.000904701
0.000907236
0.000908279
0.000908128
0.000907068
0.000905347
0.000903177
0.000900723
0.000898119
0.000895467
0.000892848
0.000890326
0.000887947
0.000885742
0.000883724
0.000881889
0.000880219
0.000878715
0.000877402
0.000901247
0.000905492
0.000908025
0.000909043
0.000908852
0.000907741
0.000905967
0.000903741
0.000901234
0.000898578
0.000895879
0.000893216
0.000890655
0.000888243
0.000886008
0.000883964
0.000882108
0.000880415
0.000878877
0.000877535
0.00090206
0.00090634
0.000908871
0.000909863
0.000909629
0.000908466
0.000906633
0.000904349
0.000901785
0.000899076
0.000896326
0.000893619
0.000891017
0.000888569
0.000886304
0.000884236
0.00088236
0.000880654
0.000879103
0.000877743
0.000902937
0.000907253
0.000909783
0.000910747
0.000910466
0.000909246
0.000907353
0.000905007
0.000902382
0.000899616
0.000896814
0.000894058
0.000891414
0.000888928
0.000886632
0.000884538
0.000882642
0.000880924
0.000879361
0.000877981
0.000903883
0.000908237
0.000910765
0.000911698
0.000911368
0.000910088
0.000908129
0.000905717
0.000903029
0.000900203
0.000897345
0.000894539
0.00089185
0.000889325
0.000886996
0.000884874
0.000882957
0.000881223
0.000879643
0.000878235
0.000904903
0.000909299
0.000911824
0.000912725
0.000912342
0.000910996
0.000908968
0.000906485
0.00090373
0.000900841
0.000897924
0.000895065
0.000892329
0.000889764
0.0008874
0.00088525
0.00088331
0.00088156
0.000879968
0.000878538
0.000906003
0.000910443
0.000912967
0.000913832
0.000913392
0.000911977
0.000909874
0.000907317
0.00090449
0.000901534
0.000898556
0.000895642
0.000892857
0.00089025
0.000887851
0.000885672
0.00088371
0.000881945
0.000880345
0.000878895
0.000907189
0.000911678
0.000914199
0.000915027
0.000914526
0.000913037
0.000910854
0.000908218
0.000905315
0.000902287
0.000899245
0.000896274
0.000893438
0.000890788
0.000888353
0.000886146
0.000884163
0.000882386
0.000880787
0.000879342
0.000908471
0.000913012
0.000915531
0.00091632
0.000915753
0.000914184
0.000911915
0.000909194
0.000906209
0.000903107
0.000899997
0.000896965
0.000894077
0.000891381
0.000888909
0.000886673
0.000884669
0.000882877
0.00088127
0.000879814
0.000909857
0.000914456
0.000916973
0.000917718
0.000917081
0.000915426
0.000913065
0.000910252
0.00090718
0.000903998
0.000900816
0.00089772
0.000894776
0.000892034
0.000889523
0.000887256
0.000885228
0.000883419
0.000881797
0.000880324
0.000911359
0.00091602
0.000918536
0.000919235
0.000918521
0.000916772
0.000914311
0.000911398
0.000908233
0.000904965
0.000901705
0.000898542
0.00089554
0.000892748
0.000890197
0.000887897
0.000885843
0.000884012
0.000882371
0.000880878
0.000912991
0.000917719
0.000920232
0.000920881
0.000920084
0.000918232
0.000915662
0.000912641
0.000909373
0.000906012
0.00090267
0.000899434
0.000896371
0.000893527
0.000890932
0.000888598
0.000886515
0.000884661
0.000883
0.000881486
0.000914767
0.000919566
0.000922076
0.000922668
0.000921779
0.000919815
0.000917125
0.000913984
0.000910606
0.000907143
0.000903712
0.000900398
0.000897269
0.00089437
0.000891731
0.00088936
0.000887249
0.000885371
0.000883688
0.000882155
0.00091671
0.000921572
0.000924079
0.000924609
0.000923618
0.00092153
0.000918706
0.000915434
0.000911931
0.000908358
0.000904828
0.000901431
0.000898231
0.000895275
0.000892589
0.000890181
0.000888041
0.000886141
0.000884439
0.000882888
0.000918851
0.000923746
0.000926252
0.000926714
0.000925611
0.000923383
0.00092041
0.00091699
0.000913349
0.000909651
0.000906014
0.000902525
0.000899249
0.000896232
0.000893499
0.000891056
0.000888889
0.000886968
0.000885251
0.000883688
0.000921191
0.000926111
0.000928612
0.000928998
0.000927766
0.000925381
0.000922237
0.000918648
0.00091485
0.00091101
0.000907251
0.000903661
0.000900303
0.000897223
0.000894442
0.000891965
0.000889775
0.000887841
0.000886115
0.000884546
0.000923754
0.000928689
0.00093118
0.000931475
0.000930094
0.000927524
0.000924181
0.000920395
0.000916412
0.000912409
0.00090851
0.000904805
0.000901357
0.000898209
0.000895382
0.000892875
0.000890671
0.000888731
0.000887008
0.000885446
0.000926566
0.000931511
0.000933979
0.000934157
0.000932595
0.000929804
0.000926224
0.000922202
0.000917998
0.000913799
0.000909734
0.000905896
0.000902347
0.000899127
0.000896255
0.000893727
0.000891518
0.000889588
0.000887886
0.00088635
0.000929585
0.000934666
0.000937034
0.000937049
0.000935258
0.000932196
0.000928325
0.000924014
0.000919539
0.0009151
0.000910833
0.000906835
0.000903168
0.000899871
0.000896957
0.000894417
0.000892222
0.000890325
0.000888669
0.000887191
0.000932837
0.000938013
0.000940292
0.000940113
0.000938044
0.000934648
0.000930416
0.000925743
0.000920928
0.000916186
0.000911666
0.000907469
0.000903661
0.000900276
0.000897323
0.000894787
0.000892629
0.000890798
0.000889229
0.000887855
0.000936348
0.000941599
0.000943748
0.00094332
0.000940901
0.000937085
0.000932396
0.000927262
0.00092201
0.000916877
0.00091203
0.000907579
0.000903592
0.000900102
0.000897111
0.000894595
0.000892507
0.000890787
0.000889361
0.000888158
0.000940124
0.000945418
0.000947377
0.000946623
0.000943758
0.000939408
0.000934136
0.000928408
0.000922588
0.000916945
0.000911667
0.000906879
0.000902656
0.000899029
0.000895994
0.000893514
0.000891533
0.000889978
0.000888769
0.000887829
0.000944166
0.000949459
0.000951149
0.000949974
0.000946542
0.000941515
0.0009355
0.000929011
0.000922457
0.000916145
0.000910297
0.000905059
0.000900515
0.000896696
0.00089359
0.000891151
0.000889308
0.000887975
0.000887064
0.000886495
0.000948473
0.000953717
0.000955056
0.000953354
0.00094922
0.000943355
0.000936416
0.000928971
0.000921485
0.000914317
0.000907727
0.00090189
0.000896904
0.000892803
0.000889567
0.00088714
0.000885435
0.000884358
0.000883813
0.000883719
0.00095307
0.000958241
0.000959178
0.000956846
0.000951883
0.000945028
0.00093699
0.0009284
0.000919787
0.000911567
0.000904048
0.000897439
0.000891854
0.000887334
0.000883854
0.000881347
0.000879716
0.000878859
0.000878681
0.000879113
0.000958013
0.000963179
0.000963828
0.000960733
0.000954873
0.000946942
0.000937698
0.000927838
0.000917957
0.000908534
0.000899926
0.000892375
0.000886016
0.000880894
0.000876982
0.000874207
0.000872468
0.000871665
0.000871714
0.000872577
0.000963544
0.00096858
0.000969175
0.000965577
0.000958943
0.000950011
0.000939607
0.000928498
0.000917345
0.000906683
0.000896913
0.000888303
0.000881005
0.000875066
0.00087046
0.000867112
0.000864926
0.000863815
0.000863726
0.000864674
0.000970034
0.000975319
0.00097627
0.000972623
0.0009655
0.00095584
0.000944543
0.000932429
0.000920209
0.000908456
0.000897598
0.000887919
0.000879572
0.000872606
0.000866994
0.000862663
0.00085953
0.000857535
0.000856669
0.000857023
0.000978159
0.000984408
0.000986275
0.000984048
0.00097658
0.000966716
0.000955074
0.00094247
0.000929631
0.000917146
0.000905447
0.000894817
0.000885402
0.000877244
0.000870311
0.000864537
0.000859854
0.000856232
0.000853714
0.000852478
0.000989037
0.000997235
0.00100072
0.000999928
0.000994268
0.000985335
0.000974245
0.000961922
0.000949118
0.000936425
0.000924268
0.000912918
0.000902504
0.000893058
0.00088454
0.000876887
0.000870044
0.000864007
0.00085886
0.000854859
0.00100419
0.00101609
0.00102291
0.00102483
0.00102259
0.00101496
0.00100528
0.00099408
0.000982036
0.000969714
0.000957525
0.000945728
0.000934438
0.000923669
0.000913373
0.000903488
0.000893961
0.000884804
0.000876124
0.000868217
0.00102564
0.00104297
0.00105461
0.00106028
0.00106138
0.00105761
0.00105074
0.00104163
0.00103106
0.00101962
0.00100776
0.000995753
0.000983706
0.000971611
0.000959403
0.000947017
0.000934407
0.000921585
0.000908658
0.000895921
0.00105579
0.00108073
0.00109914
0.00111044
0.00111551
0.00111645
0.001113
0.00110663
0.00109797
0.00108768
0.00107632
0.00106424
0.00105152
0.00103809
0.00102385
0.00100873
0.000992728
0.000975841
0.000958166
0.000939957
0.00109695
0.00113161
0.00115819
0.00117642
0.00118705
0.00119181
0.00119313
0.0011901
0.00118352
0.00117428
0.00116324
0.00115114
0.0011379
0.00112313
0.00110664
0.00108852
0.00106881
0.00104751
0.00102473
0.00100064
0.00115112
0.00119717
0.00123306
0.00125889
0.0012758
0.00128512
0.00128883
0.00128882
0.00128466
0.0012772
0.001267
0.0012545
0.00124004
0.001224
0.00120609
0.00118505
0.00116119
0.00113509
0.00110687
0.00107664
0.00121974
0.00127819
0.00132395
0.0013577
0.00138099
0.00139557
0.00140295
0.00140512
0.00140312
0.00139671
0.00138654
0.00137307
0.00135668
0.0013377
0.00131636
0.00129298
0.00126663
0.00123567
0.00120161
0.00116503
0.00130337
0.00137434
0.00142986
0.00147131
0.0015007
0.00152007
0.00153112
0.00153551
0.00153472
0.00152891
0.00151819
0.00150313
0.00148417
0.00146172
0.00143618
0.00140803
0.00137769
0.00134385
0.00130438
0.00126116
0.00140126
0.00148371
0.00154798
0.00159623
0.00163092
0.00165428
0.00166818
0.0016745
0.00167461
0.00166858
0.00165665
0.0016393
0.00161697
0.00159018
0.00155946
0.00152542
0.00148866
0.00144973
0.00140716
0.0013582
0.0015109
0.00160226
0.00167314
0.0017264
0.00176493
0.00179106
0.00180694
0.00181447
0.00181449
0.00180741
0.00179365
0.00177323
0.00174667
0.00171456
0.00167757
0.0016365
0.00159219
0.0015455
0.00149711
0.00144549
0.00162734
0.00172312
0.00179694
0.00185227
0.00189182
0.00191771
0.00193349
0.00194127
0.00194081
0.0019326
0.00191671
0.00189273
0.00186117
0.00182279
0.00177836
0.00172891
0.00167585
0.00162039
0.00156381
0.00150649
0.00174238
0.00183577
0.00190713
0.00195998
0.00199584
0.00201941
0.00203417
0.00204058
0.00203839
0.0020283
0.00201099
0.00198427
0.00194703
0.00190023
0.00184579
0.00178618
0.00172304
0.00165719
0.00159282
0.00152872
0.00184361
0.00192519
0.00198713
0.00203002
0.00205853
0.00207663
0.00208518
0.0020859
0.00207968
0.00206262
0.002043
0.00201153
0.00196911
0.00191684
0.00185636
0.00178953
0.00171981
0.00163803
0.00156017
0.00148772
0.00191349
0.00197233
0.00201426
0.00203878
0.00205017
0.00205876
0.00206947
0.00206536
0.00205688
0.00204335
0.00201438
0.00197707
0.00192842
0.00186959
0.00179968
0.00171905
0.00163198
0.00155445
0.00147372
0.00139648
0.00192905
0.00195148
0.00195906
0.00196228
0.00196761
0.00196167
0.00194806
0.00194152
0.00193172
0.00191674
0.00189283
0.00185665
0.00180553
0.00174052
0.00166143
0.00156605
0.00146294
0.00135941
0.00126175
0.00117501
0.00186183
0.00183347
0.00180893
0.00178447
0.00175737
0.00173863
0.00172471
0.00171638
0.00171105
0.001704
0.00168896
0.00165912
0.00160865
0.00153754
0.00144707
0.00133107
0.0012026
0.00107508
0.000958949
0.000862719
0.00168037
0.00160898
0.00154672
0.00149102
0.00144708
0.00141835
0.00140701
0.00141063
0.00142374
0.00143796
0.00144448
0.00143196
0.00138816
0.00131015
0.00120041
0.00105521
0.000892015
0.000737679
0.000608675
0.000512347
0.00136633
0.00126459
0.0011731
0.00110209
0.00105721
0.00104482
0.00107099
0.00111804
0.00117031
0.00121071
0.00122105
0.00119614
0.00114188
0.00106112
0.000950187
0.000802701
0.000637876
0.000486444
0.00036701
0.000284858
0.000957954
0.000847996
0.000758711
0.000709399
0.000713487
0.000768637
0.000840668
0.000909391
0.00096479
0.00100039
0.00101438
0.00100767
0.000978201
0.000922245
0.000828236
0.000706326
0.000555855
0.000395031
0.000265695
0.000207993
0.000510178
0.000486136
0.000530272
0.000614418
0.000708898
0.000789695
0.000846857
0.000881603
0.000899482
0.000908041
0.000910818
0.000908099
0.000898076
0.000872783
0.000820287
0.00071343
0.000550508
0.000358987
0.000215911
0.000168691
0.000358908
0.000479016
0.00060259
0.000715648
0.000793252
0.000838051
0.000860653
0.000870037
0.00087304
0.000873579
0.000873258
0.000872118
0.000869191
0.000861995
0.000844791
0.000801549
0.00068389
0.000455313
0.000232539
0.000175757
0.000475561
0.000608703
0.000746743
0.000825506
0.000851189
0.000855859
0.000855653
0.000855212
0.000854989
0.000854868
0.000854818
0.00085482
0.000854776
0.000853986
0.000850691
0.000841754
0.000822976
0.000790109
0.000705152
0.000300015
0.000874581
0.000874951
0.000875476
0.000875913
0.000876246
0.000876485
0.00087665
0.00087672
0.00087671
0.000876648
0.000876529
0.000876354
0.000876133
0.0008759
0.000875661
0.000875413
0.000875146
0.000874845
0.000874493
0.000874059
0.000874277
0.000874717
0.000875312
0.000875854
0.000876261
0.000876588
0.000876751
0.000876721
0.000876628
0.000876561
0.000876464
0.000876295
0.000876082
0.000875836
0.000875555
0.000875283
0.000875008
0.000874712
0.000874381
0.000873963
0.000874238
0.000874838
0.000875492
0.000876039
0.00087643
0.000876774
0.000876891
0.000876776
0.000876626
0.00087651
0.000876339
0.000876097
0.000875912
0.000875793
0.000875528
0.000875278
0.000874994
0.000874619
0.000874249
0.000873823
0.000874528
0.000875243
0.00087588
0.000876286
0.000876523
0.000876661
0.000876785
0.00087675
0.000876656
0.000876466
0.000876172
0.000875847
0.000875672
0.00087564
0.000875475
0.000875271
0.000874964
0.000874509
0.000874165
0.000873729
0.000874788
0.000875418
0.000875989
0.0008763
0.000876464
0.000876501
0.000876552
0.000876575
0.000876509
0.000876312
0.000876094
0.000875916
0.000875802
0.000875707
0.000875578
0.000875299
0.000874895
0.000874493
0.00087424
0.000873813
0.000874736
0.000875252
0.000875803
0.000876148
0.000876372
0.00087642
0.000876382
0.000876499
0.00087649
0.000876357
0.000876248
0.000876145
0.000876018
0.0008758
0.00087556
0.000875259
0.000874873
0.000874538
0.000874258
0.000873902
0.00087457
0.000875039
0.000875586
0.000876001
0.000876274
0.000876389
0.000876508
0.000876675
0.000876708
0.000876651
0.000876522
0.000876252
0.000876104
0.000875736
0.000875556
0.000875293
0.000875043
0.000874661
0.000874278
0.000873882
0.000874614
0.000875064
0.000875606
0.000876019
0.000876317
0.000876527
0.000876669
0.000876797
0.000876791
0.000876719
0.000876523
0.00087623
0.000876
0.000875809
0.000875675
0.00087536
0.000875047
0.000874669
0.000874211
0.000873843
0.00087469
0.000875223
0.000875785
0.000876144
0.000876379
0.000876521
0.000876597
0.000876637
0.000876577
0.000876457
0.000876291
0.000876029
0.000875808
0.000875732
0.000875504
0.000875144
0.000874947
0.000874709
0.000874259
0.000873889
0.000874592
0.000875229
0.000875774
0.000876108
0.000876377
0.000876539
0.000876637
0.000876577
0.000876476
0.000876363
0.000876263
0.000876106
0.00087605
0.000875882
0.000875604
0.000875213
0.0008749
0.000874577
0.000874123
0.000873658
0.000874579
0.000875207
0.000875748
0.000876141
0.000876446
0.000876647
0.000876795
0.000876759
0.000876655
0.000876543
0.000876431
0.000876347
0.000876364
0.000876195
0.000875856
0.000875405
0.000874937
0.000874463
0.000874012
0.000873535
0.000874629
0.000875208
0.000875718
0.000876132
0.000876418
0.000876662
0.000876769
0.000876774
0.000876706
0.000876678
0.000876566
0.000876422
0.000876291
0.000876096
0.000875757
0.000875394
0.000874946
0.000874581
0.000874121
0.000873612
0.000874869
0.000875332
0.000875858
0.000876269
0.00087657
0.000876785
0.000876815
0.000876613
0.00087655
0.000876535
0.000876434
0.000876314
0.000876125
0.000875939
0.000875669
0.000875352
0.000875042
0.00087475
0.000874194
0.000873567
0.000874959
0.000875449
0.000876009
0.00087644
0.000876729
0.000876842
0.000876851
0.000876629
0.000876502
0.000876424
0.000876272
0.000876157
0.000875997
0.000875876
0.000875717
0.000875558
0.000875274
0.000874894
0.000874278
0.000873579
0.000874791
0.000875328
0.000875872
0.000876394
0.000876778
0.000876961
0.000876988
0.000876885
0.000876781
0.000876686
0.000876426
0.000876209
0.000875976
0.000875824
0.000875589
0.000875388
0.00087508
0.000874679
0.000874149
0.000873579
0.000874793
0.000875316
0.000875864
0.000876465
0.000876813
0.000876949
0.000876971
0.000876936
0.00087683
0.000876647
0.000876403
0.000876103
0.000875741
0.000875377
0.000875021
0.000874747
0.000874445
0.00087411
0.000873701
0.000873286
0.000874767
0.000875325
0.000875925
0.000876406
0.000876617
0.000876657
0.000876615
0.000876561
0.000876508
0.000876425
0.00087621
0.000875857
0.000875476
0.000875001
0.000874618
0.0008743
0.000874024
0.000873767
0.000873496
0.00087321
0.000874893
0.00087544
0.000875961
0.000876316
0.00087653
0.000876559
0.000876478
0.000876332
0.000876327
0.000876303
0.000876126
0.000875759
0.000875389
0.000874949
0.000874619
0.000874344
0.000874107
0.000873897
0.000873693
0.000873347
0.000875045
0.000875437
0.0008759
0.000876228
0.000876456
0.000876533
0.000876479
0.000876286
0.000876241
0.000876063
0.000875793
0.000875461
0.000875193
0.000874948
0.000874728
0.00087451
0.000874313
0.000874147
0.000873899
0.000873485
0.000874949
0.000875296
0.000875717
0.000876011
0.000876221
0.000876311
0.000876332
0.000876204
0.000875988
0.000875625
0.000875201
0.000874884
0.000874664
0.000874508
0.000874393
0.000874291
0.000874196
0.000874103
0.000873947
0.00087368
0.000874775
0.000875072
0.000875415
0.00087562
0.000875718
0.000875767
0.000875818
0.000875802
0.000875634
0.000875357
0.000875039
0.000874734
0.000874554
0.000874458
0.000874424
0.000874454
0.000874417
0.000874251
0.000874083
0.000873879
0.000874791
0.000874958
0.000875224
0.000875403
0.00087551
0.000875613
0.000875626
0.000875573
0.000875531
0.000875446
0.000875272
0.000875041
0.000874929
0.00087487
0.000874821
0.000874865
0.000874817
0.000874628
0.000874465
0.000874323
0.000875076
0.000875193
0.000875473
0.000875657
0.000875753
0.000875859
0.00087581
0.000875639
0.00087554
0.000875443
0.000875314
0.000875213
0.000875169
0.000875177
0.000875225
0.000875273
0.000875246
0.000875135
0.000874956
0.000874736
0.000875361
0.000875547
0.000875869
0.000876094
0.000876236
0.000876295
0.000876235
0.000876087
0.000875887
0.000875721
0.000875562
0.000875444
0.000875376
0.000875384
0.000875591
0.000875657
0.000875611
0.000875463
0.000875213
0.000874854
0.000875574
0.000875824
0.000876219
0.00087652
0.000876772
0.000876844
0.000876795
0.000876643
0.00087636
0.000876165