/*--------------------------------*- C++ -*----------------------------------*\
  =========                 |
  \\      /  F ield         | OpenFOAM: The Open Source CFD Toolbox
   \\    /   O peration     | Website:  https://openfoam.org
    \\  /    A nd           | Version:  6
     \\/     M anipulation  |
\*---------------------------------------------------------------------------*/
FoamFile
{
    version     2.0;
    format      ascii;
    class       volScalarField;
    location    "10";
    object      p;
}
// * * * * * * * * * * * * * * * * * * * * * * * * * * * * * * * * * * * * * //

dimensions      [0 2 -2 0 0 0 0];

internalField   nonuniform List<scalar> 
10000
(
-0.0710433
-0.0697091
-0.0609165
-0.0414659
-0.0267581
-0.0175919
-0.011995
-0.00783929
-0.00417891
-0.00169831
-0.000400089
-0.000673191
-0.00234053
-0.00559847
-0.0117116
-0.0222247
-0.0385414
-0.0594546
-0.0658865
-0.0605167
-0.134896
-0.122742
-0.094502
-0.0509102
-0.0139052
0.0110487
0.0256353
0.0351402
0.0422791
0.0476765
0.0519808
0.0549257
0.0587346
0.0616783
0.0612325
0.0507889
0.0253172
-0.0110111
-0.0399309
-0.0594751
0.00655379
0.0099892
0.0205571
0.0382583
0.0583375
0.0782003
0.0952261
0.108632
0.118608
0.12581
0.130948
0.134899
0.138283
0.142304
0.147047
0.150754
0.150797
0.145246
0.13169
0.114156
0.169917
0.182833
0.189953
0.193306
0.194595
0.194776
0.195379
0.197303
0.200244
0.204028
0.208145
0.213062
0.219045
0.225952
0.232896
0.238668
0.24086
0.23728
0.228848
0.218883
0.317694
0.333614
0.337667
0.329648
0.316462
0.302273
0.29111
0.284037
0.280966
0.280624
0.282232
0.285513
0.289748
0.29535
0.301132
0.30671
0.312063
0.315199
0.31247
0.305203
0.37258
0.378315
0.382239
0.38024
0.37382
0.365286
0.357272
0.35115
0.347405
0.345526
0.344664
0.344202
0.344078
0.343858
0.343523
0.343474
0.343771
0.344308
0.34418
0.343975
0.387067
0.379402
0.380257
0.385151
0.391008
0.396867
0.400963
0.403221
0.404124
0.404059
0.40347
0.401929
0.398711
0.393017
0.384572
0.374468
0.365182
0.359023
0.359507
0.368065
0.434721
0.428223
0.430988
0.439433
0.448998
0.458331
0.465106
0.469016
0.470383
0.470308
0.468763
0.465663
0.461113
0.454203
0.445272
0.435347
0.426639
0.421218
0.420524
0.426291
0.522083
0.52378
0.528366
0.534972
0.541261
0.545149
0.546646
0.546576
0.545622
0.544056
0.54208
0.539482
0.535607
0.53072
0.525183
0.518888
0.512796
0.508174
0.507216
0.510602
0.616136
0.620482
0.621119
0.620193
0.620472
0.620691
0.620756
0.620816
0.620702
0.620786
0.621171
0.621798
0.623204
0.625412
0.6286
0.632335
0.634909
0.635357
0.633253
0.629489
0.676903
0.674337
0.671647
0.671487
0.674162
0.678905
0.683983
0.688533
0.692087
0.69497
0.697722
0.701846
0.707586
0.716517
0.727897
0.740866
0.753344
0.761713
0.759699
0.748133
0.748474
0.746461
0.743681
0.742826
0.744793
0.749148
0.754261
0.759322
0.763504
0.766978
0.76968
0.772493
0.775986
0.780253
0.785321
0.791181
0.797142
0.802309
0.804677
0.804859
0.82831
0.827526
0.825646
0.824617
0.825355
0.827932
0.831476
0.835028
0.838187
0.840548
0.84241
0.843359
0.843005
0.841186
0.83804
0.833894
0.830395
0.829048
0.83237
0.842661
0.923995
0.928926
0.931711
0.931626
0.928954
0.925289
0.922107
0.920154
0.919324
0.919223
0.919271
0.918627
0.917658
0.915236
0.911807
0.907846
0.904577
0.903229
0.90406
0.909196
1.02496
1.03466
1.0377
1.03205
1.02251
1.01291
1.00566
1.00089
0.9982
0.996525
0.99551
0.994656
0.993583
0.992335
0.990622
0.988148
0.985808
0.984467
0.985062
0.988614
1.09585
1.09079
1.08653
1.08384
1.082
1.08087
1.07963
1.07806
1.07644
1.07529
1.07436
1.07348
1.07326
1.07349
1.07468
1.07683
1.07918
1.08104
1.08185
1.08244
1.18954
1.18624
1.18172
1.17576
1.17081
1.16655
1.16261
1.15926
1.15661
1.15459
1.15311
1.15232
1.15152
1.1517
1.15314
1.15659
1.16217
1.1674
1.169
1.16615
1.25306
1.2497
1.24939
1.24836
1.24598
1.24264
1.23926
1.2367
1.23487
1.23377
1.23328
1.23305
1.23302
1.23186
1.22909
1.22485
1.21978
1.21574
1.2176
1.22437
1.31016
1.30693
1.30933
1.3126
1.31422
1.31397
1.31265
1.31118
1.31015
1.30984
1.31054
1.31256
1.31554
1.31963
1.3241
1.32748
1.32908
1.32903
1.32786
1.32526
1.36954
1.3662
1.36725
1.37055
1.37394
1.37632
1.37749
1.37804
1.37821
1.37871
1.37941
1.38101
1.3845
1.39047
1.39947
1.4105
1.42072
1.42687
1.42473
1.41407
1.41233
1.40992
1.40983
1.41341
1.41931
1.42557
1.4309
1.43461
1.43704
1.43837
1.43924
1.43974
1.43936
1.43886
1.43815
1.43752
1.43768
1.43802
1.43894
1.44037
1.44723
1.44425
1.44529
1.45185
1.46174
1.47259
1.48243
1.4898
1.49471
1.49757
1.49889
1.49806
1.4956
1.48972
1.48045
1.4685
1.45631
1.44775
1.44826
1.45884
1.51861
1.51692
1.51844
1.52401
1.5319
1.54039
1.54852
1.55513
1.55991
1.5625
1.5634
1.56257
1.55999
1.55559
1.54974
1.54248
1.53506
1.52947
1.52762
1.52936
1.63441
1.6383
1.63695
1.63342
1.63119
1.63086
1.63262
1.63544
1.63795
1.63949
1.63957
1.63791
1.63499
1.63102
1.62775
1.62643
1.62666
1.62835
1.6286
1.62383
1.74437
1.74721
1.74474
1.74145
1.73742
1.73316
1.73006
1.72803
1.72684
1.72592
1.72533
1.72475
1.72367
1.72244
1.72091
1.71884
1.71666
1.71592
1.7173
1.71736
1.84771
1.85517
1.85809
1.85409
1.84506
1.83461
1.82559
1.81908
1.81508
1.81294
1.81201
1.81209
1.81391
1.81732
1.82201
1.82685
1.82981
1.83
1.82864
1.82569
1.92927
1.93384
1.9364
1.93037
1.92012
1.90966
1.90102
1.89513
1.89205
1.89089
1.89121
1.89324
1.89661
1.90219
1.90946
1.91784
1.92545
1.92907
1.92807
1.92232
1.98588
1.98454
1.98366
1.98066
1.97649
1.9715
1.96692
1.96349
1.96141
1.96087
1.96148
1.96335
1.96697
1.97196
1.97817
1.98506
1.99149
1.9962
1.99729
1.99271
2.01862
2.00838
2.00592
2.00992
2.01557
2.02053
2.02343
2.02416
2.0239
2.02334
2.02307
2.02304
2.02293
2.02305
2.0232
2.02361
2.02474
2.02666
2.02845
2.02682
2.07283
2.06695
2.06608
2.06937
2.07453
2.08017
2.08443
2.08671
2.08728
2.08667
2.0853
2.08268
2.07893
2.07263
2.06411
2.05446
2.0457
2.04007
2.041
2.04698
2.13608
2.13387
2.13316
2.13647
2.14115
2.14582
2.14944
2.15169
2.15251
2.15172
2.14976
2.14649
2.14159
2.13466
2.12598
2.11619
2.10779
2.1026
2.10218
2.10641
2.21422
2.21754
2.21933
2.22202
2.22402
2.22478
2.22471
2.22434
2.22377
2.22297
2.22132
2.21876
2.21532
2.2107
2.20547
2.19978
2.1941
2.18993
2.18932
2.19044
2.28428
2.29075
2.2929
2.29152
2.28964
2.28908
2.29031
2.29249
2.29486
2.29707
2.29913
2.30132
2.30329
2.30613
2.30973
2.31357
2.31622
2.31663
2.31418
2.3077
2.33739
2.32943
2.32629
2.32967
2.33673
2.34617
2.35562
2.36356
2.36926
2.37401
2.37808
2.38296
2.38937
2.3983
2.40964
2.42255
2.43459
2.44233
2.43946
2.4265
2.44941
2.4511
2.45145
2.45131
2.4514
2.45107
2.45064
2.4506
2.45112
2.45194
2.45325
2.45552
2.45864
2.46335
2.46898
2.47504
2.48086
2.48547
2.48715
2.4871
2.563
2.57428
2.5791
2.57418
2.56441
2.55218
2.5415
2.53398
2.52969
2.52735
2.52611
2.52501
2.52424
2.52298
2.52104
2.51859
2.51627
2.5152
2.51826
2.52735
2.61683
2.61575
2.61542
2.61227
2.60815
2.60385
2.60019
2.5974
2.59568
2.59466
2.59423
2.59392
2.59329
2.59201
2.58998
2.58768
2.5861
2.58555
2.58587
2.58871
2.6551
2.64322
2.63821
2.63945
2.64419
2.6505
2.65543
2.65856
2.65999
2.66099
2.66121
2.66106
2.66023
2.65847
2.65603
2.65331
2.65089
2.64932
2.64858
2.64991
2.7274
2.72024
2.71604
2.71533
2.71755
2.7218
2.72581
2.7291
2.73098
2.73192
2.73205
2.73174
2.73041
2.72852
2.72577
2.72261
2.71953
2.71714
2.71607
2.71675
2.8161
2.81189
2.80678
2.80361
2.80215
2.8021
2.80275
2.80402
2.80488
2.80551
2.80532
2.80491
2.80405
2.80299
2.8016
2.80013
2.79833
2.79663
2.79577
2.79655
2.91967
2.92156
2.9193
2.91447
2.90746
2.89933
2.89184
2.88616
2.88242
2.88004
2.87834
2.87745
2.87692
2.87762
2.87941
2.88248
2.88556
2.88756
2.88708
2.88579
3.00011
3.00649
3.00667
2.99918
2.98796
2.97616
2.96625
2.95883
2.95342
2.94974
2.94652
2.944
2.94177
2.94067
2.94146
2.94507
2.95039
2.95548
2.95608
2.95289
3.02597
3.01837
3.01616
3.01793
3.02027
3.02202
3.02227
3.02084
3.01845
3.01577
3.01297
3.00967
3.00496
2.99848
2.98984
2.98048
2.97186
2.96604
2.96789
2.97877
3.06927
3.06501
3.065
3.06866
3.07428
3.07989
3.08378
3.08588
3.08627
3.08586
3.0849
3.08378
3.08232
3.07994
3.07521
3.06778
3.05844
3.05001
3.048
3.05453
3.12391
3.12176
3.12205
3.1268
3.13337
3.14041
3.14648
3.15146
3.15489
3.15743
3.15936
3.16185
3.16501
3.17054
3.17779
3.18546
3.1914
3.19407
3.18996
3.18009
3.20761
3.21118
3.21296
3.21641
3.21975
3.22236
3.22417
3.22596
3.22751
3.22966
3.23181
3.23524
3.24008
3.24758
3.25773
3.27026
3.28262
3.29122
3.28937
3.27772
3.30202
3.31407
3.31733
3.31462
3.30969
3.30444
3.30026
3.29763
3.29621
3.29563
3.29561
3.29665
3.2983
3.30114
3.30466
3.30925
3.3137
3.31684
3.31786
3.31714
3.35947
3.36528
3.36895
3.36951
3.36742
3.36435
3.3616
3.3595
3.3579
3.35675
3.35565
3.35431
3.35186
3.34772
3.34173
3.33499
3.3289
3.32523
3.32788
3.33734
3.40062
3.40152
3.40326
3.40622
3.4091
3.41169
3.41393
3.41577
3.41675
3.4171
3.41662
3.41503
3.41151
3.40616
3.39897
3.39095
3.38418
3.38077
3.38192
3.38667
3.45003
3.44355
3.43974
3.44328
3.45147
3.46158
3.47057
3.47757
3.48168
3.48397
3.48416
3.48306
3.48015
3.47574
3.46961
3.4629
3.45666
3.45279
3.45301
3.45471
3.54079
3.54366
3.54568
3.54762
3.54982
3.55236
3.55444
3.55646
3.55787
3.55912
3.55981
3.56081
3.56152
3.56278
3.5637
3.5645
3.56431
3.5633
3.56223
3.55909
3.63303
3.6452
3.65313
3.65348
3.6488
3.64209
3.63622
3.63276
3.6312
3.63174
3.63308
3.63617
3.64076
3.64829
3.65781
3.66837
3.67731
3.68252
3.68062
3.6705
3.68854
3.69107
3.69126
3.68949
3.68788
3.68749
3.68828
3.6899
3.69159
3.69364
3.69557
3.69831
3.7014
3.70637
3.71213
3.71875
3.72496
3.72917
3.73057
3.72929
3.75187
3.74407
3.73865
3.73696
3.73937
3.74479
3.75034
3.75484
3.75751
3.75913
3.7593
3.75852
3.75629
3.75347
3.75
3.74758
3.74723
3.74895
3.75321
3.76075
3.86454
3.86456
3.86452
3.86044
3.85475
3.84864
3.84303
3.83885
3.83595
3.83385
3.83201
3.82982
3.82614
3.82042
3.81198
3.80161
3.79169
3.78557
3.7885
3.79984
3.95365
3.95866
3.96042
3.95369
3.94299
3.93134
3.92133
3.91417
3.90971
3.90729
3.90602
3.90554
3.90555
3.90571
3.90517
3.90394
3.90136
3.89877
3.89725
3.8954
3.9829
3.97245
3.96901
3.9696
3.9708
3.97228
3.97321
3.97366
3.97385
3.97485
3.9765
3.97982
3.9842
3.99106
3.99972
4.00943
4.01684
4.01929
4.01363
3.99935
4.03238
4.02369
4.02282
4.027
4.03111
4.03401
4.03546
4.03638
4.03691
4.03826
4.04008
4.04318
4.04717
4.05268
4.05893
4.06573
4.07095
4.07266
4.06884
4.0604
4.10277
4.10412
4.1047
4.10356
4.1024
4.10135
4.10052
4.09974
4.09898
4.09856
4.0983
4.09833
4.0978
4.09724
4.09593
4.09448
4.09392
4.09428
4.09364
4.09421
4.15793
4.15423
4.1522
4.15254
4.15437
4.15662
4.15825
4.159
4.15913
4.15873
4.15799
4.15652
4.1542
4.1499
4.14243
4.13237
4.12176
4.11374
4.1122
4.12031
4.22593
4.22864
4.23223
4.23479
4.23474
4.23175
4.22746
4.22344
4.22034
4.21774
4.21532
4.21279
4.20953
4.20564
4.20097
4.19561
4.19077
4.18684
4.18377
4.18365
4.27067
4.2782
4.284
4.28532
4.28414
4.28184
4.27961
4.27744
4.27525
4.27293
4.27007
4.26627
4.2617
4.25675
4.25239
4.25023
4.25017
4.25075
4.24909
4.24521
4.2829
4.27541
4.27697
4.28607
4.29821
4.31083
4.32125
4.32793
4.33114
4.33195
4.33135
4.32978
4.32659
4.32151
4.31389
4.30404
4.29402
4.2864
4.28652
4.29373
4.35282
4.35225
4.35545
4.36198
4.37061
4.37944
4.38684
4.39256
4.39659
4.39918
4.40113
4.40243
4.40421
4.40602
4.4074
4.40814
4.40719
4.40566
4.404
4.4008
4.45544
4.46211
4.46474
4.4637
4.46227
4.46124
4.46162
4.4636
4.46641
4.46951
4.47273
4.47684
4.48165
4.48907
4.49894
4.51019
4.5207
4.52746
4.52532
4.51203
4.55036
4.55298
4.55309
4.55204
4.54954
4.5461
4.543
4.54103
4.54027
4.54033
4.54119
4.54238
4.54491
4.54846
4.55279
4.55771
4.5626
4.56708
4.5697
4.56824
4.627
4.63155
4.63253
4.62969
4.62425
4.61756
4.61152
4.60694
4.60436
4.60291
4.60244
4.60238
4.60202
4.60129
4.5998
4.59717
4.59505
4.5947
4.59937
4.60876
4.65717
4.65807
4.65726
4.65656
4.65641
4.65691
4.65768
4.65853
4.65967
4.66084
4.66227
4.66296
4.66402
4.66429
4.66414
4.66417
4.66447
4.66595
4.66941
4.67412
4.67384
4.66326
4.65828
4.6633
4.6742
4.68733
4.69916
4.70805
4.71398
4.71799
4.72067
4.72285
4.7238
4.72443
4.72476
4.72462
4.72516
4.72686
4.73068
4.73393
4.75408
4.74601
4.74229
4.74679
4.75541
4.76567
4.7746
4.78126
4.78556
4.78814
4.78947
4.78903
4.78768
4.78475
4.78144
4.7791
4.77822
4.7796
4.78344
4.78611
4.89721
4.90541
4.9047
4.89839
4.89072
4.88267
4.87618
4.87162
4.86887
4.86678
4.86488
4.86263
4.85852
4.85278
4.84578
4.83837
4.8329
4.83087
4.83342
4.83587
5.01888
5.02957
5.02819
5.01596
4.99968
4.98278
4.96888
4.95881
4.9525
4.94809
4.9453
4.94247
4.94077
4.93817
4.93398
4.92799
4.92019
4.91338
4.91213
4.91329
5.08371
5.08185
5.07628
5.06691
5.05662
5.04686
5.03869
5.03227
5.0277
5.0249
5.02349
5.02401
5.02572
5.03022
5.03677
5.04405
5.05136
5.05674
5.05547
5.04494
5.12575
5.11349
5.10427
5.10085
5.1007
5.10239
5.10282
5.10198
5.10047
5.09958
5.0995
5.10034
5.10342
5.10915
5.11833
5.13129
5.146
5.15905
5.16243
5.15425
5.19121
5.18561
5.17893
5.17456
5.17347
5.1746
5.17573
5.17604
5.17553
5.17484
5.17452
5.17566
5.17717
5.18022
5.18468
5.191
5.19988
5.20973
5.21721
5.22081
5.26897
5.26661
5.25953
5.25355
5.25045
5.2503
5.25167
5.2533
5.25477
5.25596
5.25783
5.25974
5.26265
5.26476
5.2661
5.26714
5.26881
5.2729
5.28065
5.29083
5.37655
5.38067
5.37498
5.36541
5.35607
5.34862
5.34395
5.34152
5.34108
5.34228
5.34533
5.35086
5.35828
5.36806
5.37953
5.39096
5.40125
5.40921
5.4122
5.41003
5.49849
5.51212
5.50928
5.49331
5.47399
5.45634
5.44321
5.43495
5.43081
5.43
5.43213
5.43733
5.44682
5.46043
5.47834
5.49901
5.51826
5.53146
5.53127
5.51843
5.58928
5.60069
5.60147
5.58969
5.57182
5.55238
5.53552
5.52257
5.51417
5.50998
5.5095
5.51292
5.51912
5.5286
5.54035
5.5531
5.56477
5.57251
5.57257
5.56636
5.64973
5.66603
5.67434
5.66792
5.65125
5.6304
5.61084
5.59522
5.58482
5.57924
5.57806
5.58002
5.58472
5.58992
5.59495
5.59863
5.59989
5.59847
5.59487
5.59165
5.65631
5.67437
5.68823
5.69074
5.68289
5.66976
5.65635
5.64517
5.63738
5.6334
5.63287
5.63599
5.6415
5.64879
5.65666
5.66284
5.66509
5.66094
5.64778
5.62978
5.63335
5.65034
5.67191
5.68983
5.69881
5.69972
5.69538
5.68913
5.68298
5.67911
5.67735
5.67822
5.6812
5.68555
5.69087
5.69458
5.694
5.68542
5.66443
5.63598
5.61834
5.65127
5.68645
5.713
5.72781
5.73137
5.72754
5.72083
5.71453
5.71009
5.70785
5.70756
5.70786
5.70653
5.70145
5.68997
5.67076
5.64466
5.61605
5.59243
5.56897
5.61064
5.65533
5.69064
5.71425
5.7262
5.73024
5.72986
5.72795
5.72599
5.72452
5.7234
5.72193
5.71794
5.71047
5.69603
5.67341
5.64293
5.60535
5.56981
5.48473
5.51443
5.56025
5.61146
5.65785
5.69356
5.71708
5.72994
5.73564
5.73701
5.73574
5.73198
5.72589
5.71576
5.70149
5.68194
5.65539
5.62106
5.57749
5.53589
5.47389
5.50899
5.55709
5.60848
5.6583
5.6986
5.72636
5.74303
5.75169
5.75475
5.75368
5.74858
5.73825
5.72023
5.6938
5.6571
5.61264
5.56419
5.51788
5.48782
5.53383
5.57005
5.61241
5.65249
5.69354
5.72972
5.75679
5.77431
5.78411
5.78714
5.78497
5.77676
5.76338
5.74211
5.71356
5.67773
5.63616
5.5929
5.54753
5.51577
5.65525
5.6755
5.70453
5.73156
5.76386
5.79595
5.82134
5.83708
5.84442
5.84468
5.83922
5.82837
5.81105
5.78705
5.75887
5.72745
5.69586
5.66475
5.6275
5.60283
5.85186
5.85628
5.87034
5.87519
5.88553
5.90166
5.91712
5.92695
5.93116
5.92963
5.92406
5.91311
5.89796
5.87606
5.84945
5.82111
5.79394
5.77225
5.75141
5.75556
6.11452
6.09059
6.08302
6.05928
6.04229
6.03799
6.04198
6.04669
6.04934
6.04845
6.04483
6.03969
6.03238
6.02473
6.01905
6.01889
6.02812
6.04388
6.0459
6.06726
6.46644
6.40626
6.37417
6.31764
6.26891
6.23944
6.22596
6.22012
6.21762
6.21623
6.2163
6.21884
6.22625
6.24161
6.26927
6.31535
6.37683
6.43834
6.46242
6.50574
6.91518
6.83177
6.78996
6.69401
6.59573
6.52103
6.47383
6.44542
6.42992
6.42449
6.42828
6.4447
6.47286
6.52039
6.58864
6.67945
6.7839
6.87478
6.9061
6.98102
7.33138
7.22106
7.19526
7.08514
6.95122
6.83534
6.75302
6.69865
6.66639
6.65308
6.65691
6.67996
6.72357
6.79331
6.88972
7.01292
7.14448
7.24715
7.26706
7.37707
7.53022
7.37248
7.3969
7.32269
7.20027
7.07857
6.98355
6.91721
6.87556
6.85729
6.85864
6.88364
6.9282
6.99882
7.09388
7.20893
7.32435
7.39759
7.37966
7.54347
7.39868
7.15418
7.24889
7.26061
7.20815
7.13569
7.07099
7.02389
6.99377
6.98011
6.98044
6.99585
7.02606
7.07118
7.1275
7.18864
7.23179
7.22036
7.13464
7.38713
7.00247
6.60151
6.76258
6.88582
6.94037
6.95426
6.95329
6.94934
6.94486
6.94377
6.94384
6.94804
6.95145
6.95293
6.94716
6.92121
6.85763
6.73127
6.57564
6.9869
6.69965
6.06216
6.26358
6.46473
6.5897
6.65802
6.69642
6.72089
6.73479
6.74261
6.74442
6.73946
6.72763
6.70315
6.66167
6.58638
6.45681
6.2559
6.06069
6.70945
7.02895
6.09059
6.28456
6.44014
6.51306
6.54403
6.56152
6.5745
6.58266
6.58718
6.58836
6.58578
6.57798
6.56766
6.54747
6.51746
6.44111
6.29469
6.10952
7.05451
8.39293
6.7482
6.80968
6.86325
6.8475
6.81899
6.80308
6.79665
6.79522
6.79311
6.79427
6.79237
6.79186
6.80006
6.81314
6.84815
6.87107
6.82603
6.76311
8.38738
10.8029
6.35179
6.38268
6.70761
6.77912
6.78043
6.78125
6.78273
6.78357
6.7841
6.78424
6.78413
6.78253
6.7818
6.78133
6.78104
6.7129
6.39076
6.35833
10.8034
-0.362468
-0.305702
-0.303759
-0.218687
-0.165454
-0.142395
-0.129697
-0.118937
-0.109942
-0.105031
-0.10395
-0.107688
-0.114856
-0.123664
-0.133908
-0.153275
-0.201184
-0.281606
-0.289096
-0.341572
-0.523067
-0.470096
-0.447119
-0.33286
-0.224979
-0.152349
-0.110078
-0.0843387
-0.0687454
-0.0615264
-0.0607743
-0.0682581
-0.0800682
-0.0986091
-0.125585
-0.174662
-0.256513
-0.34808
-0.374456
-0.44459
-0.233479
-0.273046
-0.262878
-0.206729
-0.135885
-0.0677705
-0.0152957
0.0202245
0.042023
0.0538376
0.0573946
0.0531849
0.0405909
0.0184103
-0.0142946
-0.0550181
-0.0902818
-0.109636
-0.116965
-0.112146
-0.128153
-0.138396
-0.126805
-0.0850339
-0.0266634
0.0344543
0.0863731
0.126546
0.154802
0.174156
0.1863
0.19343
0.19645
0.193512
0.18005
0.149455
0.0973743
0.0372424
0.0199776
0.048636
-0.0785654
-0.0399046
-0.00658039
0.0430689
0.10854
0.17873
0.237312
0.281211
0.312934
0.338434
0.359392
0.381448
0.405771
0.437366
0.476455
0.520317
0.558574
0.581834
0.574722
0.557084
0.165525
0.238658
0.292305
0.329786
0.359532
0.38837
0.418265
0.449126
0.47647
0.502993
0.527191
0.555095
0.587301
0.62995
0.686319
0.761557
0.848056
0.924785
0.94983
0.921993
0.5589
0.631764
0.661541
0.638483
0.610408
0.595044
0.598687
0.616543
0.638691
0.661379
0.683565
0.707499
0.729942
0.749708
0.764123
0.778031
0.794802
0.815765
0.85607
0.892333
0.78233
0.811056
0.825981
0.830317
0.822559
0.812081
0.805937
0.806532
0.811912
0.820252
0.829627
0.837741
0.842791
0.838221
0.818732
0.781296
0.737802
0.710417
0.733224
0.786257
1.0266
1.04054
1.05949
1.06324
1.04962
1.02838
1.00807
0.992483
0.983085
0.97764
0.973406
0.966336
0.954027
0.935644
0.909616
0.874323
0.838989
0.816814
0.816488
0.833618
1.16542
1.11994
1.10236
1.10484
1.11698
1.12981
1.13617
1.138
1.13737
1.13545
1.13108
1.12206
1.10687
1.0842
1.05408
1.02082
0.986162
0.954203
0.938332
0.936851
1.37901
1.29325
1.25667
1.26798
1.28997
1.3059
1.31058
1.31043
1.30764
1.30433
1.29943
1.29299
1.2829
1.27266
1.2648
1.26183
1.26085
1.25415
1.23181
1.19291
1.74253
1.71678
1.68294
1.6356
1.58583
1.54167
1.50979
1.48996
1.4766
1.46842
1.46173
1.45711
1.4545
1.4569
1.46781
1.49086
1.52517
1.56175
1.55526
1.49507
1.77174
1.78916
1.75417
1.70264
1.6579
1.62902
1.61441
1.60781
1.6045
1.60311
1.60271
1.60528
1.61123
1.62139
1.63281
1.64105
1.64267
1.6429
1.64393
1.6325
1.62654
1.60254
1.58952
1.63114
1.67652
1.70798
1.72419
1.73161
1.73464
1.73537
1.73334
1.72887
1.72311
1.71777
1.71633
1.72067
1.7275
1.73301
1.7356
1.73991
1.77443
1.78069
1.78662
1.80738
1.83721
1.86416
1.88339
1.89404
1.89841
1.89615
1.88906
1.87527
1.85264
1.81905
1.77653
1.73359
1.70062
1.68045
1.68569
1.71386
1.97069
1.99173
2.00308
2.024
2.05389
2.08486
2.10614
2.11367
2.11306
2.10632
2.09684
2.08205
2.06374
2.03559
1.9941
1.93275
1.8537
1.77622
1.74912
1.76989
2.36786
2.41195
2.43676
2.43454
2.41839
2.39678
2.37858
2.36359
2.3519
2.34118
2.33295
2.32617
2.32198
2.32147
2.32627
2.32896
2.32236
2.30138
2.25641
2.20095
2.79126
2.83938
2.84408
2.78886
2.7195
2.6564
2.61168
2.58345
2.56647
2.55625
2.55192
2.55492
2.56882
2.59549
2.63428
2.68361
2.73607
2.77622
2.75756
2.68082
2.94021
2.92971
2.91068
2.87882
2.83988
2.80416
2.7757
2.75362
2.73872
2.73005
2.72797
2.73417
2.75099
2.78186
2.82231
2.86738
2.90957
2.93825
2.94781
2.93382
2.90063
2.87356
2.85877
2.8597
2.86397
2.86792
2.87068
2.87125
2.87158
2.87335
2.8778
2.88443
2.89338
2.90439
2.91959
2.94112
2.96963
2.99733
3.02604
3.05138
2.73761
2.69718
2.69994
2.76072
2.83366
2.89514
2.93847
2.96779
2.98815
3.00332
3.01751
3.03096
3.04206
3.04672
3.04365
3.0303
3.01367
3.00189
3.02551
3.07702
2.7723
2.78074
2.80989
2.86133
2.92543
2.99106
3.04675
3.08963
3.12056
3.14344
3.16079
3.17453
3.18583
3.19295
3.19728
3.19866
3.20168
3.21149
3.22627
3.2483
2.92896
2.95582
2.99317
3.04607
3.10419
3.16279
3.2162
3.25799
3.28763
3.30829
3.32243
3.33148
3.33555
3.33683
3.33698
3.33597
3.33443
3.33734
3.35159
3.37776
3.32982
3.39031
3.42888
3.44392
3.44795
3.45051
3.4593
3.47368
3.4881
3.49971
3.50735
3.51185
3.51439
3.51322
3.50852
3.50162
3.49394
3.48945
3.49734
3.5159
3.83707
3.91038
3.91687
3.85953
3.7946
3.74269
3.71073
3.69726
3.69507
3.69637
3.69775
3.69797
3.6973
3.69574
3.69308
3.69016
3.68722
3.68394
3.68435
3.68505
4.14557
4.14993
4.1246
4.07814
4.02317
3.97421
3.93693
3.91291
3.89952
3.89274
3.88811
3.88298
3.87778
3.87287
3.87162
3.87858
3.89434
3.9112
3.91391
3.89257
4.3144
4.2805
4.24743
4.22218
4.1922
4.16059
4.13264
4.11097
4.09607
4.08593
4.07749
4.06895
4.05728
4.04326
4.02768
4.01663
4.01846
4.03452
4.04374
4.02152
4.35471
4.28469
4.25261
4.27285
4.29564
4.30971
4.31271
4.30738
4.29863
4.2902
4.2828
4.27496
4.2662
4.25207
4.22659
4.18093
4.11297
4.04357
4.0278
4.05559
4.58064
4.54418
4.53613
4.54795
4.5515
4.54512
4.53188
4.51755
4.50504
4.49592
4.49011
4.48757
4.48696
4.48966
4.49741
4.50732
4.51115
4.50123
4.46985
4.44512
4.91318
4.91894
4.90519
4.85809
4.81019
4.76526
4.72839
4.70273
4.68601
4.6761
4.66999
4.66823
4.67081
4.68119
4.70438
4.74563
4.79996
4.8487
4.84615
4.8029
5.01613
4.9886
4.95203
4.92032
4.89769
4.87881
4.86185
4.84673
4.83492
4.82641
4.82113
4.81957
4.8209
4.82733
4.83842
4.8539
4.87269
4.89216
4.90718
4.90796
5.01822
4.99084
4.9664
4.95719
4.95788
4.96358
4.96842
4.96787
4.96365
4.95919
4.95529
4.951
4.94491
4.93273
4.91292
4.89065
4.87488
4.87186
4.88725
4.91651
4.91611
4.8872
4.88218
4.91339
4.96275
5.01242
5.05
5.07263
5.08465
5.08952
5.09149
5.09003
5.08617
5.07585
5.05359
5.0131
4.95722
4.90543
4.90034
4.94091
4.91784
4.90725
4.9426
5.01984
5.09585
5.15398
5.19281
5.21746
5.23302
5.24248
5.24844
5.25198
5.25585
5.26222
5.27626
5.29524
5.31091
5.31476
5.2961
5.27562
5.24875
5.3105
5.35634
5.35743
5.35595
5.36131
5.37406
5.38741
5.39864
5.40607
5.4111
5.41468
5.41714
5.42321
5.43902
5.47449
5.53036
5.58271
5.58743
5.55164
5.50252
5.54862
5.55098
5.52305
5.51288
5.5205
5.53775
5.55631
5.57183
5.58186
5.58773
5.59045
5.59146
5.5872
5.57284
5.54906
5.52712
5.51865
5.53449
5.55615
5.6943
5.71105
5.71605
5.72801
5.73864
5.7464
5.75391
5.76249
5.77178
5.77873
5.7845
5.78779
5.79003
5.78805
5.77646
5.74356
5.69036
5.64104
5.63446
5.66868
5.98028
6.01596
6.04108
6.04892
6.03465
6.01226
5.99472
5.98457
5.98103
5.98197
5.98585
5.99146
6.00054
6.01564
6.04258
6.07866
6.10766
6.11852
6.10027
6.07332
6.23742
6.26464
6.2843
6.28204
6.26047
6.22938
6.20119
6.1818
6.1708
6.16618
6.16627
6.1719
6.18186
6.20167
6.23672
6.29631
6.37102
6.43224
6.43685
6.38924
6.40736
6.41387
6.41302
6.39811
6.38199
6.36763
6.35321
6.34118
6.33207
6.32685
6.32406
6.32372
6.32392
6.32187
6.31562
6.31024
6.31027
6.31669
6.3369
6.35771
6.4649
6.44251
6.4292
6.42858
6.43891
6.45645
6.4706
6.47878
6.48132
6.4803
6.4772
6.47146
6.46192
6.44288
6.40827
6.35451
6.29473
6.25344
6.259
6.30894
6.57158
6.53298
6.52979
6.56418
6.60421
6.63539
6.65284
6.66187
6.66436
6.66272
6.65642
6.64536
6.62947
6.60825
6.58046
6.54203
6.49898
6.46594
6.45109
6.4633
6.92811
6.93866
6.94452
6.93006
6.90852
6.88942
6.87875
6.87428
6.87211
6.87007
6.86768
6.86337
6.85513
6.84363
6.83064
6.81513
6.79271
6.76468
6.74012
6.7277
7.1831
7.19316
7.17679
7.13694
7.0999
7.07708
7.06875
7.06744
7.06876
7.07162
7.07582
7.08279
7.09387
7.11192
7.14
7.17694
7.20943
7.22165
7.19696
7.15434
7.2922
7.25414
7.24079
7.26339
7.28079
7.28323
7.27512
7.26511
7.25856
7.25686
7.25836
7.26611
7.28155
7.31254
7.36134
7.43023
7.5073
7.56794
7.5667
7.51265
7.61449
7.61909
7.61505
7.58114
7.53415
7.4892
7.45532
7.43333
7.42037
7.4151
7.41435
7.41793
7.42326
7.43065
7.43892
7.44777
7.45722
7.4682
7.48874
7.50376
7.69858
7.691
7.65908
7.60833
7.5681
7.54864
7.54238
7.54171
7.54266
7.54428
7.54658
7.54827
7.54701
7.5377
7.51513
7.47914
7.44203
7.41784
7.42937
7.4735
7.5404
7.46916
7.44452
7.49132
7.55898
7.62041
7.65898
7.67851
7.68604
7.68796
7.68464
7.67743
7.66606
7.65046
7.62891
7.60366
7.58243
7.57222
7.57199
7.58497
7.72356
7.70099
7.72689
7.78516
7.83695
7.86863
7.88186
7.88303
7.87734
7.86813
7.85539
7.83819
7.81549
7.78894
7.75907
7.72759
7.69673
7.6745
7.67023
7.68114
8.16605
8.2254
8.2621
8.23975
8.19641
8.15366
8.12419
8.10368
8.0864
8.07066
8.05466
8.03764
8.01803
7.99494
7.96686
7.93387
7.89794
7.86717
7.85374
7.85908
8.37986
8.42945
8.4284
8.38787
8.34951
8.3209
8.30168
8.28917
8.28012
8.27324
8.26826
8.26504
8.26242
8.26018
8.25749
8.25185
8.23796
8.21675
8.19556
8.18231
8.30774
8.29513
8.28709
8.31367
8.35451
8.39321
8.42043
8.44048
8.45509
8.46783
8.4805
8.49741
8.51995
8.55216
8.59591
8.65
8.69899
8.72523
8.70969
8.67229
8.35448
8.33178
8.3471
8.40881
8.48162
8.54652
8.59211
8.62373
8.64524
8.66412
8.68215
8.70688
8.74051
8.79103
8.85862
8.94686
9.04352
9.12297
9.13572
9.09165
8.7447
8.785
8.81827
8.82591
8.82102
8.81556
8.81558
8.82315
8.83333
8.84689
8.86246
8.88392
8.90991
8.94
8.96817
8.99591
9.02517
9.05583
9.09343
9.12754
9.14382
9.2036
9.20516
9.14662
9.07782
9.02377
8.9934
8.98336
8.98422
8.99119
9.0019
9.01623
9.03101
9.04198
9.04251
9.02997
9.01402
9.00693
9.03414
9.09985
9.29228
9.29464
9.27028
9.23279
9.18991
9.15204
9.12408
9.10822
9.10124
9.10146
9.10375
9.10649
9.10663
9.10486
9.10068
9.09413
9.09008
9.09507
9.10979
9.14036
9.28057
9.25107
9.22616
9.21943
9.21487
9.20917
9.20256
9.19724
9.19353
9.19201
9.18913
9.18301
9.16992
9.14954
9.12146
9.09117
9.06458
9.05069
9.05853
9.07968
9.14721
9.0889
9.07745
9.13098
9.1938
9.2463
9.27871
9.29339
9.29581
9.29237
9.28246
9.26597
9.24093
9.20683
9.16205
9.11026
9.0585
9.02053
9.01088
9.01783
9.27655
9.2723
9.29912
9.35149
9.39557
9.42445
9.43762
9.43985
9.43431
9.42342
9.40713
9.38416
9.35183
9.31006
9.25986
9.20387
9.14492
9.09277
9.06127
9.04238
9.63082
9.69893
9.7261
9.69532
9.65735
9.62869
9.61189
9.60147
9.59174
9.57939
9.56307
9.54037
9.51094
9.47652
9.44224
9.41344
9.38608
9.35566
9.31474
9.26304
9.77064
9.80018
9.79106
9.76041
9.7461
9.74744
9.75388
9.75947
9.76067
9.75723
9.74902
9.73661
9.72003
9.70302
9.68941
9.68525
9.6931
9.70584
9.67983
9.60696
9.81789
9.78964
9.79778
9.85215
9.90367
9.93515
9.94799
9.95394
9.95745
9.96039
9.96397
9.96943
9.97912
9.98966
9.99355
9.98645
9.96905
9.94994
9.92898
9.89357
10.1547
10.1758
10.1964
10.1937
10.1804
10.166
10.1575
10.1557
10.1573
10.1614
10.169
10.1833
10.207
10.2434
10.2865
10.3245
10.3462
10.3451
10.3196
10.2782
10.3784
10.3953
10.3909
10.3613
10.3376
10.3294
10.3313
10.3365
10.342
10.3474
10.3541
10.3637
10.3798
10.4062
10.4443
10.4927
10.5409
10.5695
10.5706
10.5598
10.464
10.4284
10.429
10.4708
10.5088
10.5298
10.5355
10.5335
10.5313
10.531
10.5333
10.5374
10.5414
10.5474
10.5566
10.5691
10.5875
10.6104
10.6378
10.6709
10.8086
10.8211
10.8298
10.8116
10.783
10.7544
10.7328
10.7175
10.7081
10.7035
10.7042
10.707
10.7113
10.7113
10.7053
10.6913
10.6732
10.6592
10.6782
10.7278
10.977
10.9822
10.9608
10.9144
10.8779
10.8585
10.8515
10.8506
10.8515
10.854
10.8572
10.8623
10.8674
10.8732
10.8791
10.8842
10.893
10.9068
10.9208
10.9334
10.9273
10.873
10.8511
10.8838
10.9266
10.9592
10.9787
10.992
11.0012
11.0084
11.013
11.0154
11.0169
11.0197
11.0251
11.034
11.0454
11.0606
11.0801
11.0901
11.1222
11.1028
11.0983
11.1064
11.1224
11.1399
11.1544
11.1654
11.1729
11.1784
11.1817
11.1845
11.1847
11.1843
11.1839
11.1845
11.1893
11.2002
11.2188
11.2314
11.3499
11.3403
11.3342
11.3344
11.3392
11.3497
11.3589
11.3631
11.3644
11.3646
11.3644
11.3627
11.3597
11.3524
11.342
11.3321
11.325
11.3255
11.3394
11.3573
11.6456
11.6601
11.6508
11.626
11.5999
11.5798
11.5689
11.5642
11.5626
11.5613
11.5599
11.5582
11.5545
11.5481
11.5371
11.5218
11.5057
11.4947
11.4994
11.5108
11.8642
11.8829
11.857
11.8133
11.7819
11.7658
11.7626
11.7663
11.7722
11.7767
11.7805
11.782
11.7845
11.7878
11.7908
11.7926
11.7884
11.7783
11.7702
11.7599
11.9873
11.9621
11.9447
11.9718
11.9988
12.0132
12.0159
12.0148
12.0137
12.0151
12.0186
12.0259
12.0363
12.0548
12.084
12.1234
12.1646
12.1895
12.1811
12.1391
12.4651
12.5028
12.5063
12.473
12.4195
12.3641
12.32
12.2901
12.271
12.2609
12.2573
12.2595
12.2693
12.2882
12.32
12.373
12.4448
12.5126
12.5262
12.4661
12.8173
12.8661
12.846
12.7684
12.6822
12.6088
12.5566
12.5213
12.5
12.4884
12.4846
12.4876
12.4945
12.5019
12.5039
12.4983
12.4919
12.4941
12.5144
12.5178
12.8466
12.8325
12.7937
12.7708
12.7569
12.745
12.7325
12.7204
12.7139
12.7121
12.7175
12.7272
12.7437
12.7601
12.7693
12.7584
12.7221
12.6813
12.6719
12.6869
12.9582
12.9344
12.9232
12.9409
12.9562
12.9597
12.952
12.9412
12.9338
12.9338
12.9422
12.9613
12.9897
13.0294
13.081
13.1377
13.1819
13.199
13.1748
13.1197
13.2992
13.3502
13.3691
13.3491
13.3019
13.2446
13.1941
13.1574
13.1343
13.125
13.1272
13.1414
13.1684
13.2102
13.2702
13.3491
13.4336
13.4975
13.4967
13.4138
13.4419
13.5299
13.541
13.495
13.4312
13.3672
13.3167
13.2802
13.258
13.2475
13.2473
13.2553
13.2678
13.2834
13.2996
13.311
13.3173
13.3209
13.3306
13.3122
13.2038
13.2383
13.2479
13.2779
13.3107
13.3306
13.3354
13.3299
13.3238
13.3194
13.3198
13.3218
13.3252
13.3196
13.299
13.2577
13.2058
13.1573
13.1406
13.1458
13.0246
13.0571
13.1106
13.2012
13.2861
13.343
13.3692
13.3748
13.3716
13.3648
13.3571
13.348
13.3365
13.318
13.2887
13.2456
13.1955
13.1479
13.1069
13.0699
13.1169
13.2228
13.3101
13.3706
13.4079
13.4225
13.4238
13.4181
13.4088
13.396
13.3797
13.3578
13.3294
13.2903
13.2405
13.1773
13.1044