/*--------------------------------*- C++ -*----------------------------------*\
  =========                 |
  \\      /  F ield         | OpenFOAM: The Open Source CFD Toolbox
   \\    /   O peration     | Website:  https://openfoam.org
    \\  /    A nd           | Version:  6
     \\/     M anipulation  |
\*---------------------------------------------------------------------------*/
FoamFile
{
    version     2.0;
    format      ascii;
    class       volScalarField;
    location    "10";
    object      p;
}
// * * * * * * * * * * * * * * * * * * * * * * * * * * * * * * * * * * * * * //

dimensions      [0 2 -2 0 0 0 0];

internalField   nonuniform List<scalar> 
130000
(
0.00526137
0.00459204
0.00409858
0.00372674
0.00341547
0.0031311
0.00286372
0.00259609
0.00232972
0.00205775
0.00178297
0.00150444
0.00122257
0.000937921
0.000655438
0.000372515
9.39555e-05
-0.000183935
-0.000465683
-0.000746133
0.00815355
0.00753152
0.00690726
0.00641462
0.0059415
0.00550231
0.00504884
0.00459429
0.00412387
0.00364565
0.00316173
0.00267201
0.00218781
0.00170625
0.0012328
0.000768554
0.000317943
-0.00013131
-0.000574286
-0.00100514
0.00886985
0.00843007
0.00781754
0.00730494
0.00676595
0.0062483
0.00570314
0.00516096
0.00460083
0.00403357
0.00345962
0.00287791
0.00230162
0.00171651
0.00115342
0.00058289
4.21533e-05
-0.000506872
-0.00103145
-0.00156038
0.00917834
0.00872874
0.00810653
0.00754245
0.00691322
0.00627059
0.00559068
0.00490616
0.00420891
0.0035033
0.00280179
0.00208987
0.00139808
0.000701232
3.22168e-05
-0.000636957
-0.00126766
-0.00190492
-0.0025031
-0.00311102
0.00921509
0.00889344
0.00835022
0.00781456
0.00717207
0.00647182
0.00572014
0.00494264
0.00415243
0.00334155
0.00253946
0.00172018
0.000927505
0.000117945
-0.000644541
-0.00142278
-0.00214231
-0.00287736
-0.00355305
-0.00425374
0.00891942
0.00864503
0.00817281
0.00768487
0.00706568
0.00634897
0.00557018
0.00474066
0.00389739
0.00301424
0.00214466
0.00124097
0.000374455
-0.000515994
-0.00135617
-0.00221243
-0.00300293
-0.00381365
-0.00455426
-0.00532474
0.00805943
0.00792352
0.00753884
0.00711043
0.00652921
0.00581338
0.00502946
0.00416824
0.00329484
0.00236041
0.00144339
0.00047712
-0.0004474
-0.00141425
-0.00231453
-0.00325125
-0.00410544
-0.00499344
-0.00579794
-0.00665641
0.00724876
0.00711653
0.00676329
0.00636541
0.00581219
0.00509412
0.00430692
0.00342148
0.00252732
0.001554
0.000604209
-0.000412852
-0.0013783
-0.0023956
-0.00334436
-0.00433277
-0.0052331
-0.00617464
-0.00702391
-0.00793534
0.00630536
0.00612218
0.00575645
0.00537625
0.00484175
0.0041245
0.0033367
0.00243579
0.00152854
0.00052821
-0.000445861
-0.00149869
-0.00249755
-0.00356522
-0.00455093
-0.00559627
-0.00653951
-0.00753778
-0.00843312
-0.0094144
0.00498162
0.00485297
0.00454073
0.00420471
0.0037122
0.00300918
0.00223421
0.0013284
0.000419016
-0.00059854
-0.00158472
-0.00266591
-0.00368472
-0.00478154
-0.00579575
-0.00687344
-0.00784491
-0.00888013
-0.0098056
-0.010826
0.00370059
0.00351458
0.00319458
0.00287254
0.00240256
0.00170423
0.000938807
2.88852e-05
-0.000878651
-0.00190745
-0.00290093
-0.00400045
-0.00503531
-0.00616466
-0.00719924
-0.00831688
-0.00931597
-0.0103929
-0.0113517
-0.0124287
0.00208283
0.00196945
0.00170804
0.00143426
0.00100669
0.000322112
-0.0004284
-0.00133792
-0.00223933
-0.00327508
-0.00426913
-0.00538425
-0.00642606
-0.00757129
-0.00862099
-0.00975789
-0.0107725
-0.0118741
-0.0128516
-0.0139567
0.000644686
0.000435121
0.000151568
-0.000108477
-0.000517893
-0.00119764
-0.00193984
-0.00284852
-0.00374397
-0.00478227
-0.00577585
-0.00689848
-0.00794694
-0.00911274
-0.0101728
-0.0113376
-0.01237
-0.0135018
-0.0145033
-0.0156534
-0.00114512
-0.00130451
-0.00153799
-0.00174176
-0.00211156
-0.00276973
-0.003494
-0.00439345
-0.00527739
-0.0063132
-0.00730059
-0.00842914
-0.00947712
-0.0106494
-0.0117165
-0.0128917
-0.0139319
-0.0150796
-0.0160925
-0.017262
-0.00298972
-0.0031055
-0.00329436
-0.0034576
-0.00379517
-0.0044393
-0.00514766
-0.00603942
-0.00691144
-0.00794296
-0.00892497
-0.0100539
-0.0111031
-0.0122871
-0.0133594
-0.014553
-0.0156051
-0.0167733
-0.0178048
-0.0190085
-0.00474992
-0.0048657
-0.0050288
-0.00515603
-0.00546753
-0.00609848
-0.00679395
-0.007677
-0.0085382
-0.00956416
-0.0105388
-0.0116685
-0.0127151
-0.0139001
-0.0149759
-0.0161733
-0.0172296
-0.0184069
-0.019447
-0.0206636
-0.00662725
-0.00670787
-0.00684007
-0.00692336
-0.00720821
-0.00782239
-0.00850704
-0.00937924
-0.0102315
-0.0112487
-0.0122191
-0.0133438
-0.014392
-0.0155817
-0.0166621
-0.0178696
-0.0189364
-0.0201258
-0.021183
-0.0224236
-0.00826871
-0.00843116
-0.00858447
-0.00863827
-0.00890911
-0.00950966
-0.0101877
-0.0110489
-0.0118944
-0.0129025
-0.0138679
-0.0149891
-0.0160362
-0.0172234
-0.0183082
-0.0195164
-0.020588
-0.0217822
-0.0228481
-0.0240965
-0.0102429
-0.0103354
-0.0104374
-0.0104359
-0.0106742
-0.0112525
-0.0119178
-0.0127635
-0.0136004
-0.0145957
-0.0155577
-0.0166692
-0.0177191
-0.0189054
-0.0199973
-0.0212095
-0.0222931
-0.0234924
-0.0245757
-0.0258376
-0.012043
-0.0121258
-0.0122029
-0.012164
-0.0123795
-0.0129432
-0.0136005
-0.0144334
-0.0152631
-0.016247
-0.0172051
-0.0183105
-0.0193606
-0.0205424
-0.0216401
-0.0228513
-0.0239416
-0.0251439
-0.0262387
-0.0275063
-0.013904
-0.0139476
-0.013989
-0.0139061
-0.0140968
-0.0146417
-0.0152922
-0.0161103
-0.0169353
-0.0179053
-0.0188638
-0.0199577
-0.0210138
-0.0221903
-0.0232977
-0.0245074
-0.0256125
-0.0268142
-0.0279297
-0.0292039
-0.0155404
-0.0156316
-0.0156911
-0.0155733
-0.0157519
-0.0162772
-0.016926
-0.0177302
-0.0185548
-0.0195128
-0.0204728
-0.0215598
-0.0226208
-0.023793
-0.0249096
-0.0261184
-0.0272336
-0.0284388
-0.0295704
-0.030852
-0.0173108
-0.0173653
-0.0174034
-0.0172386
-0.0173987
-0.0179002
-0.0185471
-0.0193345
-0.0201607
-0.0211035
-0.022069
-0.0231433
-0.0242153
-0.0253799
-0.0265111
-0.0277147
-0.0288489
-0.0300494
-0.0312063
-0.0324892
-0.0189825
-0.0190164
-0.0190406
-0.0188346
-0.0189793
-0.0194617
-0.0201083
-0.0208825
-0.0217117
-0.0226438
-0.0236148
-0.0246832
-0.0257637
-0.0269256
-0.0280697
-0.0292746
-0.0304233
-0.0316299
-0.0328091
-0.0341035
-0.0205798
-0.020611
-0.0206255
-0.0203842
-0.0205165
-0.0209803
-0.0216291
-0.022389
-0.0232232
-0.024142
-0.0251222
-0.0261788
-0.0272739
-0.028428
-0.0295908
-0.0307897
-0.031962
-0.033163
-0.0343728
-0.0356672
-0.0221097
-0.0221371
-0.0221576
-0.0218729
-0.0219932
-0.022437
-0.0230878
-0.0238357
-0.0246752
-0.025586
-0.026574
-0.0276278
-0.0287344
-0.0298894
-0.0310688
-0.0322731
-0.0334641
-0.0346754
-0.0359126
-0.0372237
-0.0235511
-0.0235833
-0.0235986
-0.0232862
-0.0233959
-0.023827
-0.0244803
-0.0252189
-0.0260639
-0.0269662
-0.0279645
-0.0290109
-0.030134
-0.031286
-0.0324868
-0.0336899
-0.0349077
-0.0361174
-0.037388
-0.0387035
-0.0250145
-0.0250124
-0.0250003
-0.0246482
-0.0247356
-0.0251526
-0.0258027
-0.0265351
-0.0273833
-0.0282829
-0.0292885
-0.0303374
-0.0314726
-0.0326305
-0.0338498
-0.035063
-0.0363016
-0.0375263
-0.0388261
-0.0401637
-0.0262791
-0.0262974
-0.026276
-0.0259045
-0.0259777
-0.0263893
-0.0270392
-0.0277687
-0.0286203
-0.0295176
-0.0305326
-0.0315806
-0.0327319
-0.0338939
-0.0351342
-0.0363544
-0.0376201
-0.0388516
-0.0401859
-0.0415386
-0.0275537
-0.0275458
-0.0274973
-0.0270868
-0.0271372
-0.0275374
-0.0281836
-0.0289103
-0.0297642
-0.0306631
-0.0316852
-0.0327405
-0.0339034
-0.0350751
-0.0363336
-0.0375682
-0.038855
-0.0401069
-0.0414708
-0.0428519
-0.028648
-0.0286488
-0.0285902
-0.0281545
-0.0281895
-0.0285832
-0.0292287
-0.0299542
-0.0308115
-0.0317116
-0.0327431
-0.0338022
-0.0349811
-0.0361633
-0.0374423
-0.0386914
-0.0400055
-0.0412734
-0.0426726
-0.0440805
-0.0296892
-0.0296707
-0.0295877
-0.0291126
-0.0291242
-0.0295066
-0.0301481
-0.0308719
-0.031731
-0.0326348
-0.0336733
-0.0347431
-0.0359339
-0.0371296
-0.0384273
-0.0396946
-0.0410301
-0.0423227
-0.0437515
-0.0451927
-0.0305653
-0.0305517
-0.0304503
-0.0299471
-0.0299386
-0.0303141
-0.0309523
-0.0316757
-0.0325363
-0.0334428
-0.0344897
-0.0355666
-0.0367735
-0.0379843
-0.0393028
-0.0405905
-0.0419542
-0.0432697
-0.0447352
-0.0462121
-0.0313477
-0.0313146
-0.0311834
-0.0306392
-0.0306036
-0.0309678
-0.0315994
-0.0323215
-0.0331819
-0.0340927
-0.0351447
-0.0362335
-0.0374516
-0.0386778
-0.0400154
-0.0413239
-0.0427098
-0.0440531
-0.0455491
-0.0470635
-0.0319491
-0.0319139
-0.0317602
-0.0311852
-0.0311258
-0.0314816
-0.0321068
-0.0328282
-0.033688
-0.0346022
-0.0356608
-0.0367576
-0.0379907
-0.0392347
-0.0405931
-0.0419252
-0.0433398
-0.04471
-0.0462442
-0.0478005
-0.0324267
-0.0323668
-0.0321785
-0.0315586
-0.0314673
-0.0318091
-0.032424
-0.0331429
-0.0340002
-0.034919
-0.0359815
-0.0370911
-0.0383347
-0.0395951
-0.0409724
-0.0423269
-0.0437647
-0.0451655
-0.0467315
-0.0483284
-0.0326961
-0.0326337
-0.0324147
-0.0317604
-0.0316393
-0.0319704
-0.0325748
-0.0332914
-0.0341451
-0.0350666
-0.036134
-0.037252
-0.0385097
-0.0397891
-0.0411877
-0.0425689
-0.0440374
-0.0454684
-0.0470744
-0.0487173
-0.0328248
-0.0327311
-0.0324688
-0.0317638
-0.031605
-0.0319182
-0.0325078
-0.033219
-0.0340664
-0.0349904
-0.0360591
-0.0371893
-0.0384564
-0.039753
-0.0411711
-0.0425767
-0.0440694
-0.0455331
-0.0471729
-0.0488598
-0.0327184
-0.0326117
-0.0323132
-0.0315668
-0.0313731
-0.0316703
-0.0322449
-0.0329501
-0.0337902
-0.0347144
-0.0357854
-0.0369226
-0.0382024
-0.0395181
-0.0409569
-0.0423898
-0.0439136
-0.0454103
-0.0470921
-0.0488294
-0.0324409
-0.0322936
-0.0319447
-0.0311399
-0.0309023
-0.0311762
-0.0317312
-0.0324267
-0.0332566
-0.0341802
-0.0352493
-0.0363967
-0.0376838
-0.0390157
-0.040473
-0.0419305
-0.0434794
-0.0450112
-0.0467292
-0.0485145
-0.0318982
-0.0317316
-0.0313352
-0.0304809
-0.030201
-0.0304534
-0.0309878
-0.0316728
-0.0324908
-0.0334111
-0.0344787
-0.0356306
-0.0369276
-0.0382774
-0.039754
-0.0412397
-0.0428207
-0.0443883
-0.0461511
-0.0479917
-0.0311589
-0.0309404
-0.0304818
-0.0295598
-0.0292278
-0.0294502
-0.0299586
-0.0306285
-0.0314311
-0.0323464
-0.033408
-0.0345666
-0.0358677
-0.0372317
-0.0387256
-0.0402362
-0.0418433
-0.0434485
-0.0452501
-0.047143
-0.0301189
-0.0298689
-0.0293536
-0.0283726
-0.0279895
-0.0281827
-0.028663
-0.0293161
-0.0301007
-0.0310077
-0.0320631
-0.0332229
-0.0345309
-0.0359114
-0.0374236
-0.0389631
-0.0406032
-0.0422467
-0.0440956
-0.0460486
-0.0288518
-0.0285391
-0.027949
-0.0268883
-0.0264422
-0.0265964
-0.0270421
-0.027673
-0.0284353
-0.029332
-0.0303766
-0.03154
-0.0328494
-0.0342428
-0.0357714
-0.0373362
-0.0390031
-0.0406864
-0.0425765
-0.0445861
-0.0272523
-0.0269
-0.0262359
-0.0251025
-0.0245921
-0.0247073
-0.0251156
-0.0257217
-0.0264587
-0.0273414
-0.028375
-0.029536
-0.0308497
-0.0322582
-0.0338044
-0.0353986
-0.0370996
-0.0388235
-0.0407639
-0.0428384
-0.0253906
-0.024964
-0.0242082
-0.0229795
-0.0223931
-0.022458
-0.022822
-0.0233968
-0.024104
-0.0249697
-0.0259873
-0.0271477
-0.0284599
-0.0298794
-0.0314411
-0.0330609
-0.0347902
-0.0365564
-0.0385416
-0.0406778
-0.0231703
-0.0226814
-0.0218347
-0.0205141
-0.0198499
-0.0198625
-0.0201788
-0.0207187
-0.0213927
-0.0222368
-0.0232377
-0.0243909
-0.0257043
-0.0271365
-0.0287151
-0.0303646
-0.0321299
-0.0339397
-0.0359796
-0.0381865
-0.0206273
-0.0200491
-0.0190962
-0.0176617
-0.0169083
-0.0168571
-0.017119
-0.0176169
-0.0182529
-0.0190719
-0.0200509
-0.0211982
-0.0225066
-0.0239474
-0.0255409
-0.0272164
-0.0290119
-0.0308674
-0.0329569
-0.0352323
-0.0176999
-0.0170373
-0.015971
-0.0144225
-0.0135752
-0.0134566
-0.0136594
-0.0141106
-0.0147044
-0.0154927
-0.0164489
-0.0175827
-0.018889
-0.0203393
-0.0219492
-0.0236544
-0.0254886
-0.0273908
-0.0295409
-0.0318937
-0.0143915
-0.0136229
-0.0124298
-0.0107453
-0.00979203
-0.00959371
-0.00972977
-0.0101262
-0.0106722
-0.0114256
-0.0123528
-0.0134742
-0.0147715
-0.0162273
-0.0178514
-0.019583
-0.0214502
-0.0234023
-0.0256082
-0.0280377
-0.0106574
-0.00978092
-0.00845224
-0.00662936
-0.0055643
-0.00528108
-0.00534434
-0.00567989
-0.00617267
-0.00688437
-0.00778102
-0.00888138
-0.0101724
-0.0116338
-0.0132739
-0.0150351
-0.0169445
-0.0189472
-0.021221
-0.0237362
-0.00648984
-0.00548304
-0.00400389
-0.00202036
-0.000829662
-0.000448057
-0.000429161
-0.000694741
-0.00112753
-0.00179255
-0.00265162
-0.0037318
-0.0050091
-0.00647235
-0.00812572
-0.00991415
-0.01186
-0.0139178
-0.0162555
-0.0188575
-0.00184757
-0.000711038
0.000932532
0.00308246
0.00440845
0.00489602
0.00500506
0.00481732
0.0044512
0.00384096
0.0030218
0.00197162
0.000705692
-0.000758497
-0.00242734
-0.00424525
-0.00623749
-0.00835056
-0.0107652
-0.0134628
0.00328143
0.00457455
0.00639927
0.00874094
0.0102171
0.0108256
0.0110353
0.0109356
0.0106441
0.0100945
0.00932337
0.00830274
0.00705641
0.00559469
0.00391358
0.00206744
3.43811e-05
-0.00214031
-0.00462855
-0.00742562
0.00894947
0.0104034
0.0124227
0.0149626
0.0165989
0.0173373
0.0176565
0.0176543
0.0174452
0.0169659
0.0162458
0.0152658
0.014037
0.0125799
0.010884
0.00900824
0.00692357
0.00468754
0.00211125
-0.000793892
0.0151584
0.0168032
0.0190374
0.0218042
0.0236187
0.0245041
0.0249456
0.0250528
0.0249357
0.0245336
0.0238741
0.0229348
0.0217327
0.0202831
0.0185761
0.0166707
0.0145398
0.012234
0.00957205
0.00655176
0.0219688
0.0238072
0.0262747
0.0292776
0.0312832
0.0323271
0.0329022
0.0331305
0.0331152
0.0328019
0.0322074
0.0313216
0.0301448
0.0287065
0.0269857
0.0250504
0.0228617
0.0204869
0.0177234
0.0145794
0.0293685
0.0314399
0.0341648
0.0374365
0.0396546
0.0408772
0.0416017
0.0419654
0.0420639
0.0418483
0.0413303
0.040499
0.0393584
0.037934
0.0362041
0.0342376
0.0319964
0.0295418
0.026678
0.0233993
0.0374418
0.0397473
0.0427489
0.0463003
0.0487467
0.0501618
0.0510498
0.0515631
0.051788
0.0516841
0.0512492
0.0504874
0.0493825
0.0479779
0.0462364
0.0442398
0.0419337
0.0394008
0.0364189
0.0329964
0.0461474
0.0487324
0.0520431
0.0559133
0.058615
0.0602469
0.061318
0.0619986
0.0623651
0.0623843
0.0620466
0.061357
0.0603007
0.0589188
0.0571715
0.0551423
0.0527767
0.0501518
0.0470517
0.0434698
0.0555825
0.0584482
0.0620936
0.0662991
0.0692764
0.0711436
0.0724157
0.073282
0.073806
0.0739661
0.0737348
0.0731354
0.072129
0.0707781
0.0690227
0.0669637
0.0645251
0.06181
0.0585716
0.0548203
0.0656886
0.0688922
0.07291
0.0774965
0.0807812
0.082913
0.0844101
0.085484
0.0861847
0.0865005
0.086393
0.0858891
0.0849477
0.0836314
0.0818751
0.0797826
0.077276
0.0744543
0.0710751
0.067134
0.0765839
0.0801278
0.0845458
0.0895339
0.0931509
0.0955698
0.0973143
0.0986184
0.0995158
0.100009
0.100038
0.0996508
0.0987782
0.0975071
0.0957483
0.0936264
0.0910374
0.0881103
0.0845681
0.0804255
0.0881797
0.0921275
0.0969927
0.102436
0.106424
0.109165
0.111187
0.112748
0.113866
0.114556
0.114743
0.114481
0.113695
0.112474
0.110721
0.108565
0.105898
0.102846
0.0991361
0.0947662
0.100588
0.104949
0.110299
0.116227
0.120618
0.12371
0.126036
0.127884
0.129248
0.130162
0.130524
0.130412
0.12972
0.128563
0.126815
0.124631
0.12187
0.118694
0.11479
0.110178
0.113712
0.118557
0.124445
0.130918
0.135757
0.139243
0.14191
0.144077
0.145718
0.146881
0.147444
0.147495
0.146918
0.145831
0.1441
0.141881
0.13903
0.135708
0.131602
0.126714
0.127653
0.132997
0.139467
0.146522
0.151849
0.155765
0.158809
0.16133
0.16328
0.164725
0.165513
0.165757
0.165305
0.164306
0.162591
0.160344
0.157386
0.153915
0.149576
0.144394
0.142286
0.148203
0.155321
0.163029
0.1689
0.173295
0.17676
0.179676
0.181973
0.18373
0.184776
0.18523
0.184929
0.184027
0.182339
0.180058
0.176995
0.173348
0.168763
0.163244
0.157666
0.164191
0.172018
0.180431
0.186896
0.191815
0.195743
0.199097
0.201779
0.20389
0.205222
0.205922
0.205787
0.205
0.203343
0.201033
0.197846
0.194018
0.18915
0.183267
0.17368
0.180891
0.189503
0.1987
0.205821
0.211321
0.215762
0.219599
0.222709
0.225209
0.226864
0.227832
0.227892
0.227234
0.225619
0.223275
0.219964
0.215922
0.210751
0.204452
0.190337
0.198283
0.207752
0.217796
0.22563
0.231759
0.236759
0.241125
0.244705
0.247637
0.249648
0.250924
0.251197
0.25069
0.249123
0.24675
0.243291
0.239026
0.233509
0.226757
0.207514
0.21627
0.226679
0.237654
0.246266
0.253079
0.258684
0.263622
0.267714
0.271113
0.273519
0.275125
0.275645
0.275305
0.2738
0.271394
0.267788
0.263265
0.257374
0.250111
0.225133
0.234769
0.246207
0.258179
0.267623
0.275159
0.281404
0.286948
0.291582
0.295484
0.298312
0.300288
0.301074
0.300926
0.299493
0.297064
0.293292
0.288502
0.282193
0.274374
0.2431
0.253678
0.26622
0.279261
0.289579
0.297865
0.304769
0.310931
0.316123
0.320543
0.323817
0.326177
0.32726
0.327324
0.325986
0.32354
0.319611
0.314528
0.307781
0.299351
0.261222
0.272823
0.28655
0.300702
0.311911
0.320938
0.328483
0.335246
0.34098
0.345912
0.34963
0.352393
0.353783
0.354085
0.352862
0.350421
0.346336
0.34097
0.33376
0.324686
0.279412
0.292048
0.307
0.322278
0.334352
0.344064
0.352184
0.359476
0.365692
0.371085
0.375218
0.378362
0.38007
0.380627
0.379546
0.377139
0.372935
0.367295
0.359633
0.34989
0.297233
0.310988
0.327214
0.343595
0.356449
0.366725
0.375281
0.382968
0.389542
0.395296
0.399764
0.403249
0.405246
0.406059
0.405141
0.402805
0.398512
0.392645
0.384545
0.374132
0.314624
0.329416
0.346863
0.364242
0.377709
0.388337
0.397108
0.40497
0.411703
0.417642
0.42231
0.426026
0.428254
0.429296
0.428543
0.426305
0.421971
0.415905
0.407398
0.39631
0.33084
0.346691
0.365311
0.383528
0.397371
0.408063
0.416746
0.424486
0.431104
0.436989
0.441649
0.445443
0.447772
0.44896
0.448324
0.446161
0.441761
0.435488
0.426541
0.414755
0.34572
0.362379
0.381981
0.400798
0.414707
0.425094
0.433319
0.440572
0.446741
0.452263
0.456653
0.460281
0.462525
0.463698
0.463039
0.460822
0.456236
0.449625
0.440158
0.427638
0.358099
0.375484
0.395881
0.41502
0.428664
0.438384
0.445776
0.452177
0.45755
0.46238
0.466183
0.469357
0.471223
0.472091
0.471118
0.468531
0.463441
0.456236
0.446082
0.432688
0.367644
0.385343
0.406241
0.42538
0.438419
0.447131
0.45337
0.458602
0.462867
0.466679
0.469561
0.471905
0.473005
0.473133
0.471348
0.467871
0.46179
0.453602
0.442341
0.427493
0.372406
0.390323
0.411611
0.430614
0.442895
0.450431
0.455352
0.459234
0.462185
0.464713
0.46634
0.467439
0.467247
0.465983
0.462677
0.457582
0.449829
0.439806
0.426389
0.409133
0.37162
0.389262
0.410792
0.429661
0.441262
0.447741
0.451454
0.454039
0.455653
0.456748
0.456835
0.456204
0.454069
0.4506
0.44488
0.437213
0.42654
0.413172
0.396228
0.375359
0.3619
0.379413
0.401509
0.420723
0.432172
0.438154
0.441217
0.442974
0.44356
0.443307
0.441686
0.438861
0.434039
0.427406
0.418115
0.406208
0.390623
0.372005
0.349705
0.323269
0.340984
0.358141
0.381399
0.401999
0.414488
0.421193
0.424765
0.426715
0.42705
0.425879
0.422598
0.41719
0.408966
0.398035
0.383362
0.364913
0.342053
0.315652
0.285244
0.250436
0.302507
0.320163
0.346181
0.370333
0.386195
0.395929
0.402124
0.406067
0.407554
0.406361
0.401775
0.393597
0.381236
0.364331
0.341892
0.314156
0.280886
0.24298
0.200475
0.153258
0.240959
0.260062
0.291482
0.322748
0.345768
0.362217
0.374362
0.38313
0.387956
0.388233
0.383139
0.372263
0.354703
0.329632
0.29676
0.256416
0.208508
0.154093
0.094089
0.0289911
0.145363
0.169258
0.211099
0.255458
0.291607
0.320319
0.343253
0.360846
0.372074
0.375931
0.37159
0.357873
0.333514
0.297865
0.251368
0.193928
0.125922
0.0485992
-0.0359294
-0.126348
0.00680795
0.0403817
0.10055
0.166876
0.224597
0.273038
0.312965
0.344322
0.365582
0.375447
0.372861
0.35559
0.322656
0.273753
0.20964
0.129869
0.0352487
-0.0727315
-0.190493
-0.315595
-0.187459
-0.134323
-0.043072
0.0580441
0.14823
0.225055
0.288457
0.338186
0.372448
0.389824
0.388531
0.365843
0.321812
0.256033
0.169479
0.0611277
-0.0672611
-0.214063
-0.374576
-0.54536
-0.439629
-0.353119
-0.213961
-0.0631765
0.0704283
0.182574
0.273097
0.342627
0.389717
0.412919
0.410136
0.379062
0.320604
0.233813
0.119697
-0.0231452
-0.192496
-0.387134
-0.601429
-0.830184
-0.742848
-0.600806
-0.392786
-0.17843
0.00485946
0.1534
0.268935
0.353759
0.40772
0.429927
0.419095
0.373997
0.295631
0.1825
0.0352384
-0.148354
-0.366005
-0.617321
-0.896043
-1.19577
-1.0532
-0.828871
-0.532312
-0.246965
-0.015928
0.160538
0.289419
0.377413
0.426081
0.435432
0.405439
0.336151
0.228393
0.080138
-0.108596
-0.341017
-0.615589
-0.933202
-1.2882
-1.67413
-1.30012
-0.965841
-0.570228
-0.219557
0.0456059
0.233367
0.357792
0.431199
0.458384
0.44149
0.381319
0.278235
0.132523
-0.0595854
-0.299939
-0.593668
-0.940036
-1.34211
-1.79535
-2.29245
-1.41007
-0.959476
-0.485757
-0.103489
0.163864
0.336402
0.434996
0.476771
0.470157
0.42037
0.328599
0.194786
0.0157506
-0.215077
-0.505004
-0.863988
-1.29476
-1.8025
-2.38209
-3.02497
-1.37497
-0.884866
-0.435946
-0.108171
0.103781
0.224562
0.276961
0.28247
0.247128
0.177516
0.070393
-0.0725572
-0.259725
-0.498739
-0.806226
-1.19809
-1.6899
-2.29247
-2.98903
-3.75007
-1.70439
-1.20285
-0.839105
-0.598635
-0.43442
-0.330453
-0.277635
-0.265395
-0.29551
-0.359271
-0.461016
-0.59451
-0.77197
-0.992878
-1.27893
-1.64615
-2.12531
-2.7376
-3.45392
-4.14328
-3.04988
-2.13709
-1.60361
-1.21182
-0.895071
-0.665988
-0.5285
-0.45941
-0.458201
-0.503983
-0.605227
-0.741284
-0.934887
-1.16318
-1.47605
-1.8514
-2.34188
-2.90014
-3.4494
-3.72491
-3.81332
-2.83873
-2.25879
-1.714
-1.25901
-0.943804
-0.74628
-0.636451
-0.601212
-0.626251
-0.710584
-0.842708
-1.0277
-1.2533
-1.54163
-1.87508
-2.28895
-2.73227
-2.87022
-1.95994
-0.000905923
-0.000966998
-0.000960888
-0.00098211
-0.0010244
-0.00107515
-0.00112233
-0.00117853
-0.00123779
-0.00130981
-0.00138852
-0.00148062
-0.00158144
-0.00169754
-0.00181884
-0.00195506
-0.00209664
-0.00225803
-0.00244583
-0.00265711
2.79419e-05
-0.000105273
-0.000155654
-0.000232549
-0.000359377
-0.000488724
-0.000632008
-0.000778318
-0.000940779
-0.00111236
-0.00129973
-0.00149954
-0.00171328
-0.00193573
-0.00217462
-0.00241762
-0.0026751
-0.00295138
-0.00326186
-0.00356268
0.00118889
0.00111758
0.00094593
0.000792423
0.000575483
0.000367831
0.000125889
-0.000108182
-0.000374996
-0.000640631
-0.000935961
-0.00123287
-0.00155551
-0.0018837
-0.00222561
-0.00257148
-0.00292693
-0.0032906
-0.00367961
-0.00406095
0.000382946
0.000265236
1.96184e-05
-0.000187621
-0.000483755
-0.000765922
-0.00110332
-0.00142567
-0.0017937
-0.00215151
-0.00254603
-0.00293376
-0.0033497
-0.00375601
-0.00418705
-0.0046038
-0.00503688
-0.00546365
-0.0059128
-0.0063471
0.000368578
0.000206757
-9.53883e-05
-0.000345628
-0.000708233
-0.00105319
-0.00147151
-0.00186681
-0.00232093
-0.00275601
-0.00323844
-0.00370424
-0.00420697
-0.00469847
-0.00521059
-0.00571233
-0.00622559
-0.0067289
-0.00725052
-0.00775526
0.000328635
0.000120366
-0.000233557
-0.0005164
-0.000933304
-0.00132904
-0.00181458
-0.00227218
-0.00279948
-0.00330321
-0.00386151
-0.0044005
-0.00497977
-0.00553775
-0.00612829
-0.00669392
-0.00727899
-0.00784561
-0.00843518
-0.00900035
0.000111843
-0.000128967
-0.000526357
-0.000838854
-0.00130262
-0.00174224
-0.00228613
-0.00279788
-0.00339025
-0.00395435
-0.00458169
-0.00518447
-0.00583525
-0.00646807
-0.00712813
-0.00777135
-0.00842825
-0.00906865
-0.00973196
-0.010383
-5.48318e-05
-0.000346858
-0.000793542
-0.00113312
-0.00163942
-0.00211785
-0.00271291
-0.00327293
-0.00392226
-0.0045416
-0.00522949
-0.00589296
-0.00660655
-0.0072948
-0.00802166
-0.00871932
-0.0094384
-0.0101352
-0.0108603
-0.0115683
-0.000296468
-0.000624483
-0.00111207
-0.00147687
-0.00202135
-0.00253575
-0.00317768
-0.00378202
-0.00448397
-0.00515359
-0.0058983
-0.0066159
-0.00738937
-0.00814373
-0.00892955
-0.00969789
-0.0104803
-0.0112472
-0.0120413
-0.0128339
-0.000434783
-0.000813875
-0.00134581
-0.00173196
-0.00230968
-0.0028547
-0.00353833
-0.004183
-0.00493241
-0.00564895
-0.00644464
-0.00721486
-0.0080422
-0.00884462
-0.00968952
-0.0105062
-0.0113448
-0.0121641
-0.0130165
-0.013864
-0.000628937
-0.00103939
-0.00160658
-0.0020114
-0.00261919
-0.00319265
-0.00391516
-0.00459678
-0.00539068
-0.00615049
-0.00699545
-0.00781357
-0.00869433
-0.00955828
-0.0104573
-0.011342
-0.0122402
-0.0131277
-0.0140457
-0.0149761
-0.000675597
-0.00113508
-0.00174145
-0.00216417
-0.00280082
-0.00340037
-0.00415852
-0.00487397
-0.00570852
-0.00650879
-0.00739858
-0.00826384
-0.00919326
-0.0101012
-0.0110552
-0.0119852
-0.0129365
-0.0138734
-0.0148453
-0.015827
-0.000746664
-0.00122865
-0.00186614
-0.00230443
-0.00296846
-0.00359218
-0.00438454
-0.00513164
-0.00600568
-0.00684394
-0.00777841
-0.00868688
-0.00966577
-0.0106308
-0.0116358
-0.0126306
-0.0136393
-0.0146427
-0.015678
-0.0167415
-0.000623099
-0.00114749
-0.00182088
-0.00227751
-0.00296729
-0.00361415
-0.00443827
-0.00521611
-0.00612755
-0.00700295
-0.00797855
-0.00893083
-0.00995491
-0.0109618
-0.0120188
-0.0130584
-0.0141191
-0.0151727
-0.0162618
-0.0173773
-0.000513162
-0.00104663
-0.00174357
-0.00221387
-0.00292738
-0.00359512
-0.00444898
-0.00525536
-0.00620294
-0.00711348
-0.00813092
-0.00912349
-0.0101946
-0.0112552
-0.0123622
-0.0134639
-0.0145812
-0.0156996
-0.0168525
-0.0180486
-0.000184101
-0.000746222
-0.00146794
-0.00195604
-0.00269232
-0.00338368
-0.00426617
-0.00510228
-0.00608439
-0.00703204
-0.00808932
-0.00912598
-0.0102408
-0.0113442
-0.0125008
-0.0136472
-0.0148133
-0.0159807
-0.017185
-0.018434
0.000165573
-0.000391426
-0.00112443
-0.00162865
-0.00238825
-0.00310525
-0.00401705
-0.00488381
-0.00590028
-0.00688402
-0.00798214
-0.00905986
-0.0102214
-0.0113768
-0.0125816
-0.0137848
-0.0150037
-0.016229
-0.0174921
-0.0188146
0.00072559
0.000164456
-0.000580827
-0.00110695
-0.00189057
-0.0026359
-0.00357583
-0.00447547
-0.00552502
-0.00654632
-0.00768107
-0.00880305
-0.0100062
-0.0112057
-0.0124575
-0.0137065
-0.0149724
-0.0162481
-0.017561
-0.0189385
0.00132454
0.000789111
4.25556e-05
-0.000500868
-0.00130563
-0.00207701
-0.00304196
-0.0039727
-0.00505338
-0.00611078
-0.00728298
-0.00844536
-0.00969305
-0.0109433
-0.0122443
-0.0135501
-0.0148714
-0.0162048
-0.0175782
-0.0190268
0.00213642
0.00161015
0.000861038
0.000295069
-0.000529521
-0.00132953
-0.00231684
-0.00327895
-0.00438839
-0.00548488
-0.00669266
-0.00790074
-0.00918828
-0.010485
-0.0118326
-0.0131883
-0.0145576
-0.0159454
-0.0173719
-0.0188815
0.0030346
0.00252947
0.0017865
0.0012
0.000359765
-0.000468134
-0.00147613
-0.00247041
-0.00360834
-0.00474299
-0.00598757
-0.00723671
-0.00856688
-0.00991117
-0.0113054
-0.0127135
-0.0141384
-0.0155833
-0.0170738
-0.0186549
0.00411926
0.00362912
0.00289273
0.00228419
0.00142962
0.000572531
-0.000455304
-0.00148309
-0.00264757
-0.00382026
-0.00509656
-0.00638989
-0.00775749
-0.00914824
-0.0105877
-0.0120476
-0.0135229
-0.0150276
-0.0165769
-0.0182258
0.00532155
0.00485572
0.00412982
0.00349886
0.00262946
0.00174284
0.000697045
-0.000361331
-0.00154951
-0.00275645
-0.00406478
-0.00539616
-0.00680511
-0.00824247
-0.00973141
-0.0112447
-0.0127806
-0.0143438
-0.0159625
-0.0176824
0.00669899
0.00625431
0.00554031
0.00488857
0.00400914
0.00309593
0.00203643
0.000948597
-0.00026203
-0.00150616
-0.00284524
-0.00422092
-0.00566736
-0.00715262
-0.00868915
-0.0102587
-0.011851
-0.0134811
-0.0151663
-0.0169609
0.00822032
0.0077935
0.0070973
0.00642944
0.00554707
0.004611
0.00354034
0.00242394
0.00119093
-8.87877e-05
-0.00146152
-0.00287711
-0.00436708
-0.00590042
-0.00748986
-0.00911517
-0.0107734
-0.0124644
-0.0142246
-0.0160926
0.00990052
0.00949826
0.00882439
0.00814749
0.00726696
0.00631102
0.00523127
0.00408676
0.00283301
0.00151632
0.00011287
-0.00134906
-0.00287949
-0.00446528
-0.00610753
-0.00779365
-0.0095118
-0.0112723
-0.0131028
-0.0150516
0.0117705
0.0113842
0.0107312
0.0100434
0.00916491
0.00818926
0.00710205
0.00593145
0.00465863
0.00330771
0.00187156
0.000367562
-0.00120969
-0.00284931
-0.00454859
-0.00629469
-0.00808068
-0.00990459
-0.0118129
-0.0138414
0.0138285
0.0134637
0.0128305
0.0121355
0.0112603
0.0102684
0.00917679
0.00798303
0.00669409
0.00530855
0.00384263
0.00229011
0.000669774
-0.00102616
-0.00278159
-0.0045919
-0.00644035
-0.00833701
-0.0103187
-0.0124338
0.0161126
0.0157584
0.0151425
0.0144385
0.0135682
0.0125605
0.0114651
0.0102488
0.00894429
0.00752594
0.00602856
0.00443219
0.00276438
0.00100969
-0.000805248
-0.00268392
-0.00460424
-0.00657324
-0.00863733
-0.0108436
0.0186245
0.0182906
0.0176953
0.0169908
0.0161286
0.0151094
0.014011
0.0127721
0.011451
0.00999756
0.00847073
0.00682552
0.00511506
0.00330277
0.00142976
-0.000517338
-0.00250424
-0.00455316
-0.00669683
-0.00899839
0.0213876
0.0210738
0.020503
0.0198001
0.018948
0.0179174
0.016815
0.0155517
0.0142115
0.0127222
0.0111623
0.00947165
0.00771376
0.00583953
0.00390641
0.00188467
-0.000177904
-0.00231067
-0.00454499
-0.00695314
0.024437
0.0241526
0.0236117
0.0229213
0.022084
0.0210476
0.0199426
0.018657
0.0172982
0.0157722
0.0141807
0.0124392
0.0106368
0.00870253
0.00670802
0.00461304
0.00247765
0.000256411
-0.00206588
-0.00458053
0.0277748
0.0275231
0.0270169
0.0263425
0.0255236
0.0244835
0.0233774
0.0220713
0.0206945
0.0191335
0.0175076
0.0157184
0.0138649
0.0118634
0.00980355
0.0076254
0.00540614
0.00308921
0.000665242
-0.00197189
0.0314741
0.0312588
0.0307886
0.0301377
0.0293407
0.028303
0.0271991
0.0258765
0.0244831
0.0228875
0.0212291
0.0193879
0.0174868
0.0154228
0.013297
0.0110402
0.00874005
0.00632543
0.0038029
0.00104775
0.0355165
0.0353441
0.0349134
0.0342863
0.0335121
0.0324787
0.0313793
0.0300426
0.0286337
0.0270056
0.0253121
0.0234234
0.0214696
0.0193367
0.0171416
0.0147959
0.0124043
0.00988483
0.00724995
0.00435923
0.0399911
0.0398647
0.0394752
0.0388774
0.0381279
0.0371033
0.0360108
0.0346642
0.0332425
0.0315839
0.0298586
0.0279186
0.0259146
0.0237157
0.0214487
0.0190192
0.0165397
0.0139151
0.0111712
0.00815073
0.0448616
0.0447929
0.044453
0.0438886
0.0431666
0.042152
0.0410677
0.0397132
0.0382805
0.0365947
0.0348359
0.0328482
0.0307871
0.0285142
0.0261713
0.0236472
0.0210685
0.0183301
0.0154625
0.0122939
0.0502263
0.0502203
0.0499366
0.0494165
0.0487287
0.0477302
0.0466568
0.045297
0.0438538
0.0421401
0.0403498
0.0383105
0.0361966
0.033855
0.0314347
0.0288196
0.026143
0.023289
0.020301
0.016991
0.0560466
0.0561174
0.0559011
0.0554338
0.0547884
0.0538111
0.0527519
0.0513888
0.0499361
0.0481965
0.0463724
0.0442859
0.0421134
0.0396951
0.0371923
0.0344737
0.0316867
0.0287087
0.025586
0.0221163
0.062433
0.0625862
0.0624433
0.0620388
0.0614439
0.0604968
0.0594577
0.0580966
0.0566378