/*--------------------------------*- C++ -*----------------------------------*\
  =========                 |
  \\      /  F ield         | OpenFOAM: The Open Source CFD Toolbox
   \\    /   O peration     | Website:  https://openfoam.org
    \\  /    A nd           | Version:  6
     \\/     M anipulation  |
\*---------------------------------------------------------------------------*/
FoamFile
{
    version     2.0;
    format      ascii;
    class       surfaceScalarField;
    location    "10";
    object      phi;
}
// * * * * * * * * * * * * * * * * * * * * * * * * * * * * * * * * * * * * * //

dimensions      [0 3 -1 0 0 0 0];

internalField   nonuniform List<scalar> 
19400
(
-5.19945e-09
-8.58212e-07
-9.23117e-09
-1.13691e-06
-1.06323e-08
-1.24622e-06
-1.02302e-08
-1.29941e-06
-8.9198e-09
-1.32356e-06
-7.45553e-09
-1.33326e-06
-6.16376e-09
-1.33623e-06
-5.13e-09
-1.33637e-06
-4.24934e-09
-1.33553e-06
-3.47929e-09
-1.33456e-06
-2.7088e-09
-1.33373e-06
-1.83966e-09
-1.33296e-06
-7.58696e-10
-1.33183e-06
7.29236e-10
-1.3294e-06
2.61764e-09
-1.32381e-06
4.71188e-09
-1.31137e-06
6.21586e-09
-1.2848e-06
6.1559e-09
-1.23016e-06
3.53768e-09
-1.12136e-06
-8.49219e-07
-1.46446e-09
-8.57257e-07
-3.73819e-09
-1.13505e-06
-4.80965e-09
-1.24558e-06
-5.06465e-09
-1.29948e-06
-4.94816e-09
-1.32401e-06
-4.59057e-09
-1.33387e-06
-4.14509e-09
-1.33691e-06
-3.66628e-09
-1.33706e-06
-3.1488e-09
-1.33622e-06
-2.68811e-09
-1.33525e-06
-2.16439e-09
-1.33442e-06
-1.71247e-09
-1.33368e-06
-1.17791e-09
-1.33259e-06
-6.43944e-10
-1.33021e-06
-1.03655e-10
-1.32465e-06
4.54316e-10
-1.31217e-06
7.64081e-10
-1.28548e-06
7.09203e-10
-1.23053e-06
-4.98447e-11
-1.12104e-06
-8.49317e-07
-2.01335e-09
-8.55488e-07
-2.62275e-09
-1.13468e-06
-2.89486e-09
-1.24554e-06
-2.84576e-09
-1.2997e-06
-2.76117e-09
-1.3243e-06
-2.64376e-09
-1.33413e-06
-2.54759e-09
-1.33716e-06
-2.38762e-09
-1.33734e-06
-2.19725e-09
-1.33654e-06
-1.96374e-09
-1.33559e-06
-1.73314e-09
-1.33478e-06
-1.45348e-09
-1.33405e-06
-1.22178e-09
-1.33297e-06
-9.25633e-10
-1.3306e-06
-6.38234e-10
-1.32505e-06
-3.17213e-10
-1.31258e-06
-3.68243e-12
-1.2859e-06
3.50784e-10
-1.23106e-06
9.80393e-10
-1.12186e-06
-8.48344e-07
-1.36659e-09
-8.54234e-07
-1.48797e-09
-1.13465e-06
-1.53066e-09
-1.24558e-06
-1.40119e-09
-1.29988e-06
-1.36127e-09
-1.3244e-06
-1.35908e-09
-1.33416e-06
-1.40672e-09
-1.33717e-06
-1.41497e-09
-1.33736e-06
-1.41451e-09
-1.3366e-06
-1.35191e-09
-1.33569e-06
-1.28199e-09
-1.33492e-06
-1.15937e-09
-1.33422e-06
-1.06694e-09
-1.33316e-06
-9.05334e-10
-1.33079e-06
-8.24313e-10
-1.32522e-06
-7.06037e-10
-1.31272e-06
-5.60035e-10
-1.28606e-06
-2.66228e-10
-1.23137e-06
1.95287e-10
-1.12235e-06
-8.48153e-07
-1.01309e-09
-8.53289e-07
-1.13533e-09
-1.13461e-06
-1.23961e-09
-1.2455e-06
-1.23173e-09
-1.29993e-06
-1.21397e-09
-1.32444e-06
-1.22058e-09
-1.33419e-06
-1.21852e-09
-1.3372e-06
-1.18863e-09
-1.33743e-06
-1.14798e-09
-1.33669e-06
-1.05319e-09
-1.33582e-06
-9.81003e-10
-1.33508e-06
-8.19918e-10
-1.33439e-06
-7.28469e-10
-1.33334e-06
-5.71463e-10
-1.33095e-06
-4.99424e-10
-1.32535e-06
-4.45586e-10
-1.3128e-06
-4.10235e-10
-1.28613e-06
-2.76234e-10
-1.23152e-06
7.3805e-11
-1.12274e-06
-8.48107e-07
-1.76999e-10
-8.53289e-07
-7.47655e-10
-1.13424e-06
-1.11181e-09
-1.24527e-06
-1.35945e-09
-1.29981e-06
-1.4649e-09
-1.32444e-06
-1.47275e-09
-1.33427e-06
-1.41526e-09
-1.33735e-06
-1.30114e-09
-1.33761e-06
-1.18752e-09
-1.33689e-06
-1.0229e-09
-1.33603e-06
-8.76829e-10
-1.33531e-06
-6.83957e-10
-1.33464e-06
-5.18459e-10
-1.33359e-06
-3.29442e-10
-1.3312e-06
-2.28627e-10
-1.32555e-06
-1.9759e-10
-1.31291e-06
-3.01461e-10
-1.28612e-06
-3.98613e-10
-1.23154e-06
-3.64938e-10
-1.12292e-06
-8.48522e-07
1.83297e-10
-8.53779e-07
-4.71749e-10
-1.13389e-06
-8.34104e-10
-1.24517e-06
-1.09605e-09
-1.29978e-06
-1.26214e-09
-1.32448e-06
-1.3079e-09
-1.33439e-06
-1.29926e-09
-1.33752e-06
-1.22259e-09
-1.33781e-06
-1.14565e-09
-1.33711e-06
-1.02147e-09
-1.33626e-06
-9.16734e-10
-1.33555e-06
-7.61498e-10
-1.33488e-06
-6.40038e-10
-1.33383e-06
-5.04448e-10
-1.33142e-06
-4.19694e-10
-1.32574e-06
-4.02447e-10
-1.31304e-06
-5.18586e-10
-1.28616e-06
-6.94062e-10
-1.23158e-06
-8.88377e-10
-1.12298e-06
-8.4947e-07
1.10018e-10
-8.54098e-07
-1.86025e-10
-1.1338e-06
-3.14105e-10
-1.24522e-06
-4.95626e-10
-1.29976e-06
-6.77096e-10
-1.32446e-06
-7.87994e-10
-1.3344e-06
-8.85542e-10
-1.33756e-06
-9.21207e-10
-1.33787e-06
-9.65067e-10
-1.33719e-06
-9.55089e-10
-1.33635e-06
-9.55374e-10
-1.33565e-06
-9.27976e-10
-1.335e-06
-8.97005e-10
-1.33396e-06
-8.49956e-10
-1.33157e-06
-8.18876e-10
-1.32589e-06
-8.05271e-10
-1.31318e-06
-8.61832e-10
-1.28627e-06
-1.0518e-09
-1.23164e-06
-1.19196e-09
-1.12312e-06
-8.50714e-07
-5.15416e-11
-8.5411e-07
5.00958e-11
-1.13398e-06
1.00789e-10
-1.24534e-06
-7.98051e-11
-1.29965e-06
-3.06116e-10
-1.3243e-06
-4.93669e-10
-1.33428e-06
-6.41477e-10
-1.33748e-06
-7.56714e-10
-1.33781e-06
-8.62136e-10
-1.33715e-06
-9.49264e-10
-1.33633e-06
-1.04184e-09
-1.33564e-06
-1.10971e-09
-1.335e-06
-1.18412e-09
-1.33399e-06
-1.23508e-09
-1.33162e-06
-1.26742e-09
-1.32597e-06
-1.26809e-09
-1.3133e-06
-1.29444e-09
-1.28641e-06
-1.4269e-09
-1.23172e-06
-1.44387e-09
-1.12333e-06
-8.52187e-07
-1.30213e-10
-8.5404e-07
6.41165e-11
-1.13426e-06
4.10988e-11
-1.24536e-06
-1.33348e-10
-1.29955e-06
-3.30369e-10
-1.32414e-06
-4.89473e-10
-1.33418e-06
-5.90334e-10
-1.33742e-06
-6.815e-10
-1.33777e-06
-7.63453e-10
-1.33711e-06
-8.54779e-10
-1.3363e-06
-9.45718e-10
-1.3356e-06
-1.05227e-09
-1.33497e-06
-1.16467e-09
-1.33396e-06
-1.24925e-09
-1.33161e-06
-1.33479e-09
-1.326e-06
-1.33498e-09
-1.31337e-06
-1.34185e-09
-1.28651e-06
-1.34686e-09
-1.23182e-06
-1.16536e-09
-1.12363e-06
-8.53365e-07
2.88581e-10
-8.545e-07
2.55473e-10
-1.13436e-06
1.20637e-10
-1.24535e-06
-2.612e-11
-1.2995e-06
-1.79834e-10
-1.32409e-06
-2.73148e-10
-1.33415e-06
-3.46469e-10
-1.33742e-06
-3.82406e-10
-1.33778e-06
-4.3195e-10
-1.33713e-06
-4.51705e-10
-1.33631e-06
-5.01907e-10
-1.33562e-06
-5.11423e-10
-1.33499e-06
-5.65255e-10
-1.33398e-06
-5.77756e-10
-1.33164e-06
-6.16336e-10
-1.32602e-06
-6.69632e-10
-1.31336e-06
-7.49979e-10
-1.28645e-06
-8.1726e-10
-1.23179e-06
-5.89775e-10
-1.12392e-06
-8.53975e-07
2.68227e-10
-8.54994e-07
3.79751e-10
-1.13463e-06
2.91856e-10
-1.24544e-06
2.09764e-10
-1.29953e-06
1.23649e-10
-1.32413e-06
9.50706e-11
-1.3342e-06
5.0049e-11
-1.33747e-06
4.58134e-11
-1.33783e-06
2.05547e-11
-1.33718e-06
4.13904e-11
-1.33637e-06
5.06885e-11
-1.33569e-06
9.78277e-11
-1.33508e-06
1.31547e-10
-1.33408e-06
1.71292e-10
-1.33172e-06
1.42094e-10
-1.32607e-06
4.24578e-11
-1.31333e-06
-1.46078e-10
-1.28633e-06
-3.39939e-10
-1.23169e-06
-4.25218e-10
-1.12395e-06
-8.54435e-07
2.20015e-10
-8.55467e-07
4.05714e-10
-1.13499e-06
4.43788e-10
-1.24567e-06
4.76139e-10
-1.29968e-06
4.49042e-10
-1.32424e-06
4.40834e-10
-1.33428e-06
4.00278e-10
-1.33753e-06
3.78041e-10
-1.33788e-06
3.45163e-10
-1.33723e-06
3.38406e-10
-1.33643e-06
3.31886e-10
-1.33577e-06
3.64994e-10
-1.33516e-06
3.98402e-10
-1.33417e-06
4.29169e-10
-1.33181e-06
4.15136e-10
-1.32612e-06
3.312e-10
-1.31333e-06
1.52636e-10
-1.28627e-06
-4.22668e-11
-1.23163e-06
-2.85596e-10
-1.12387e-06
-8.54755e-07
3.06172e-11
-8.55722e-07
4.00616e-10
-1.1355e-06
5.47727e-10
-1.24599e-06
6.02007e-10
-1.29982e-06
5.51915e-10
-1.32431e-06
5.29765e-10
-1.33432e-06
4.78765e-10
-1.33756e-06
4.55221e-10
-1.33791e-06
4.16833e-10
-1.33725e-06
3.95315e-10
-1.33645e-06
3.73796e-10
-1.3358e-06
3.66152e-10
-1.33521e-06
3.82305e-10
-1.33423e-06
4.00348e-10
-1.33189e-06
4.31647e-10
-1.32622e-06
4.28589e-10
-1.3134e-06
3.39883e-10
-1.28628e-06
1.88644e-10
-1.23162e-06
4.23204e-11
-1.12388e-06
-8.5474e-07
-6.48012e-11
-8.5582e-07
3.1569e-10
-1.136e-06
2.94697e-10
-1.24609e-06
1.91413e-10
-1.29979e-06
1.47694e-10
-1.32435e-06
1.79294e-10
-1.33441e-06
2.07361e-10
-1.33765e-06
2.45029e-10
-1.33799e-06
2.62275e-10
-1.33732e-06
2.70958e-10
-1.3365e-06
2.64085e-10
-1.33584e-06
2.59791e-10
-1.33525e-06
2.61372e-10
-1.33428e-06
2.68577e-10
-1.33195e-06
3.23708e-10
-1.32632e-06
3.98895e-10
-1.31354e-06
4.14624e-10
-1.28636e-06
2.91367e-10
-1.23159e-06
3.2727e-11
-1.12375e-06
-8.54728e-07
3.57109e-10
-8.56289e-07
2.6564e-10
-1.13598e-06
1.01858e-10
-1.24601e-06
-1.91498e-11
-1.29971e-06
-6.62144e-11
-1.32436e-06
-3.10993e-11
-1.33447e-06
5.5216e-12
-1.33773e-06
6.16945e-11
-1.33807e-06
1.03479e-10
-1.3374e-06
1.39842e-10
-1.33657e-06
1.66991e-10
-1.33589e-06
1.8115e-10
-1.3353e-06
2.05319e-10
-1.33433e-06
2.42532e-10
-1.33203e-06
3.18241e-10
-1.32645e-06
4.57994e-10
-1.31373e-06
5.75043e-10
-1.28654e-06
5.13683e-10
-1.23162e-06
2.27506e-10
-1.12356e-06
-8.54519e-07
1.92637e-10
-8.5647e-07
-4.98458e-11
-1.13575e-06
-2.63749e-10
-1.24579e-06
-3.3092e-10
-1.29966e-06
-2.83802e-10
-1.32442e-06
-2.15759e-10
-1.33455e-06
-1.47025e-10
-1.33782e-06
-8.25771e-11
-1.33815e-06
-3.17749e-11
-1.33747e-06
2.65785e-11
-1.33664e-06
7.32222e-11
-1.33597e-06
1.511e-10
-1.33539e-06
2.32625e-10
-1.33446e-06
3.60495e-10
-1.33219e-06
5.35824e-10
-1.32667e-06
7.45767e-10
-1.314e-06
9.22646e-10
-1.28678e-06
8.65161e-10
-1.23164e-06
5.85775e-10
-1.12336e-06
-8.53936e-07
4.88451e-10
-8.56901e-07
-1.55233e-11
-1.13523e-06
-3.73032e-10
-1.2454e-06
-5.16323e-10
-1.29951e-06
-4.98232e-10
-1.32442e-06
-4.37808e-10
-1.33461e-06
-3.41565e-10
-1.3379e-06
-2.54256e-10
-1.33824e-06
-1.62836e-10
-1.33756e-06
-9.15717e-11
-1.33672e-06
-1.00996e-11
-1.33606e-06
6.38632e-11
-1.33548e-06
1.55372e-10
-1.33456e-06
2.74363e-10
-1.33232e-06
4.10812e-10
-1.32684e-06
6.43616e-10
-1.31424e-06
8.88238e-10
-1.28706e-06
9.273e-10
-1.23169e-06
5.13134e-10
-1.12293e-06
-8.53401e-07
5.17064e-10
-8.57337e-07
-7.20714e-11
-1.13462e-06
-4.42449e-10
-1.24498e-06
-6.25069e-10
-1.29932e-06
-6.48465e-10
-1.32437e-06
-5.87439e-10
-1.33466e-06
-4.69081e-10
-1.33801e-06
-3.24975e-10
-1.33837e-06
-1.78865e-10
-1.33769e-06
-3.91121e-11
-1.33685e-06
8.27091e-11
-1.33617e-06
2.01894e-10
-1.33558e-06
3.01088e-10
-1.33465e-06
4.06148e-10
-1.3324e-06
5.33077e-10
-1.32693e-06
7.37758e-10
-1.31441e-06
1.05312e-09
-1.28732e-06
1.2631e-09
-1.2318e-06
1.09169e-09
-1.12266e-06
-8.5229e-07
2.81904e-10
-8.57546e-07
-2.38888e-10
-1.13408e-06
-5.82231e-10
-1.24458e-06
-7.41226e-10
-1.29915e-06
-7.45301e-10
-1.32434e-06
-6.56604e-10
-1.33474e-06
-5.02819e-10
-1.33816e-06
-2.87396e-10
-1.33857e-06
-6.68591e-11
-1.33791e-06
1.89235e-10
-1.33708e-06
4.29377e-10
-1.3364e-06
6.78317e-10
-1.33581e-06
9.05808e-10
-1.33487e-06
1.11307e-09
-1.3326e-06
1.27457e-09
-1.32708e-06
1.3887e-09
-1.31452e-06
1.53194e-09
-1.2874e-06
1.59726e-09
-1.23178e-06
1.39026e-09
-1.12238e-06
-8.50903e-07
3.00902e-10
-8.57816e-07
-2.03799e-10
-1.13359e-06
-5.63994e-10
-1.24421e-06
-7.1757e-10
-1.29903e-06
-6.90658e-10
-1.32437e-06
-5.99555e-10
-1.33487e-06
-4.13771e-10
-1.33836e-06
-1.75656e-10
-1.33883e-06
9.75683e-11
-1.33822e-06
4.08928e-10
-1.33741e-06
7.15043e-10
-1.33675e-06
1.05297e-09
-1.33616e-06
1.35536e-09
-1.3352e-06
1.62611e-09
-1.33288e-06
1.79775e-09
-1.32728e-06
1.83245e-09
-1.31459e-06
1.73832e-09
-1.28734e-06
1.45162e-09
-1.23153e-06
9.41493e-10
-1.12189e-06
-8.49975e-07
3.97976e-10
-8.58239e-07
-1.97672e-12
-1.13324e-06
-2.07316e-10
-1.24402e-06
-3.26456e-10
-1.29897e-06
-3.26495e-10
-1.3244e-06
-2.70591e-10
-1.33497e-06
-1.23079e-10
-1.33854e-06
6.24666e-11
-1.33906e-06
2.96265e-10
-1.33848e-06
5.45348e-10
-1.33769e-06
8.06997e-10
-1.33703e-06
1.04223e-09
-1.33643e-06
1.26859e-09
-1.33544e-06
1.428e-09
-1.33307e-06
1.51076e-09
-1.3274e-06
1.50253e-09
-1.31462e-06
1.34359e-09
-1.28725e-06
1.01623e-09
-1.23126e-06
5.07711e-10
-1.12145e-06
-8.49474e-07
2.18523e-10
-8.58521e-07
2.67026e-10
-1.13335e-06
3.194e-10
-1.24412e-06
2.7265e-10
-1.29896e-06
2.269e-10
-1.32438e-06
2.22544e-10
-1.335e-06
2.80409e-10
-1.33862e-06
3.74599e-10
-1.33918e-06
5.02536e-10
-1.33863e-06
6.3949e-10
-1.33785e-06
7.75609e-10
-1.33718e-06
8.86516e-10
-1.33655e-06
9.76839e-10
-1.33552e-06
9.99068e-10
-1.33311e-06
1.00336e-09
-1.32738e-06
9.3408e-10
-1.31456e-06
8.3479e-10
-1.28715e-06
7.22375e-10
-1.23116e-06
5.99165e-10
-1.12135e-06
-8.48875e-07
-2.50132e-11
-8.58563e-07
3.58127e-10
-1.13377e-06
5.19839e-10
-1.24431e-06
5.52773e-10
-1.29902e-06
5.59222e-10
-1.3244e-06
5.58546e-10
-1.33502e-06
5.65347e-10
-1.33863e-06
5.78721e-10
-1.3392e-06
5.99335e-10
-1.33865e-06
6.23657e-10
-1.33787e-06
6.44105e-10
-1.3372e-06
6.38148e-10
-1.33655e-06
6.30663e-10
-1.33551e-06
5.98454e-10
-1.33309e-06
5.65878e-10
-1.32736e-06
5.02806e-10
-1.31451e-06
4.58321e-10
-1.2871e-06
4.46846e-10
-1.23116e-06
5.36081e-10
-1.12144e-06
-8.48339e-07
1.15199e-10
-8.58737e-07
5.01618e-10
-1.13418e-06
6.6959e-10
-1.24451e-06
7.20964e-10
-1.29907e-06
7.08548e-10
-1.32439e-06
6.61123e-10
-1.33497e-06
6.10917e-10
-1.33857e-06
5.45165e-10
-1.33914e-06
4.98846e-10
-1.33859e-06
4.23699e-10
-1.33781e-06
3.55925e-10
-1.33712e-06
2.61236e-10
-1.33647e-06
1.64722e-10
-1.33543e-06
6.53987e-11
-1.33301e-06
-1.03343e-11
-1.3273e-06
-5.53817e-11
-1.31449e-06
-3.58479e-11
-1.28714e-06
7.10606e-11
-1.23128e-06
1.91932e-10
-1.12156e-06
-8.48144e-07
1.61182e-10
-8.58936e-07
5.14468e-10
-1.13454e-06
5.52844e-10
-1.24456e-06
5.28231e-10
-1.29904e-06
4.51059e-10
-1.3243e-06
3.63334e-10
-1.33487e-06
2.96944e-10
-1.33848e-06
2.24299e-10
-1.33906e-06
1.81307e-10
-1.33852e-06
1.05873e-10
-1.33774e-06
4.98335e-11
-1.33705e-06
-5.2776e-11
-1.33639e-06
-1.48375e-10
-1.33534e-06
-2.40026e-10
-1.33294e-06
-3.2692e-10
-1.32725e-06
-3.57177e-10
-1.31448e-06
-3.20352e-10
-1.2872e-06
-1.46529e-10
-1.23145e-06
1.1076e-10
-1.1218e-06
-8.48027e-07
1.47028e-10
-8.59085e-07
2.28065e-10
-1.13463e-06
1.19068e-10
-1.24445e-06
-5.89875e-12
-1.29892e-06
-1.18916e-10
-1.32418e-06
-1.99077e-10
-1.3348e-06
-2.21087e-10
-1.33845e-06
-2.27767e-10
-1.33906e-06
-1.99587e-10
-1.33854e-06
-1.87075e-10
-1.33777e-06
-1.68724e-10
-1.33707e-06
-1.62933e-10
-1.3364e-06
-1.82436e-10
-1.33535e-06
-1.93869e-10
-1.33294e-06
-2.13604e-10
-1.32724e-06
-2.3809e-10
-1.31446e-06
-2.4118e-10
-1.28719e-06
-1.31667e-10
-1.23153e-06
4.40183e-11
-1.12195e-06
-8.47984e-07
2.94473e-10
-8.59361e-07
1.30259e-10
-1.13449e-06
-1.55931e-10
-1.24415e-06
-4.38668e-10
-1.29865e-06
-6.09105e-10
-1.32402e-06
-6.85957e-10
-1.33473e-06
-6.64012e-10
-1.33848e-06
-5.97477e-10
-1.33915e-06
-4.89942e-10
-1.33865e-06
-3.77959e-10
-1.33789e-06
-2.43849e-10
-1.3372e-06
-1.31501e-10
-1.33654e-06
-2.36706e-11
-1.33547e-06
6.4165e-11
-1.33304e-06
1.08967e-10
-1.32732e-06
1.12563e-10
-1.31448e-06
6.95454e-11
-1.28716e-06
4.45298e-11
-1.23151e-06
2.0579e-11
-1.12194e-06
-8.47976e-07
5.18704e-10
-8.59876e-07
1.94984e-10
-1.13421e-06
-8.53842e-11
-1.24389e-06
-4.28923e-10
-1.29836e-06
-6.74661e-10
-1.3238e-06
-8.2604e-10
-1.33463e-06
-8.49418e-10
-1.33849e-06
-7.99676e-10
-1.33924e-06
-6.81518e-10
-1.33881e-06
-5.27336e-10
-1.33809e-06
-3.4949e-10
-1.33742e-06
-1.48708e-10
-1.33676e-06
3.76738e-11
-1.33569e-06
2.03342e-10
-1.33324e-06
3.17316e-10
-1.32746e-06
3.36279e-10
-1.31453e-06
2.38859e-10
-1.2871e-06
2.93807e-11
-1.23135e-06
-2.25523e-10
-1.12175e-06
-8.48222e-07
3.46687e-10
-8.60203e-07
2.51129e-10
-1.13414e-06
2.35136e-11
-1.24365e-06
-3.46133e-10
-1.29803e-06
-6.15169e-10
-1.32354e-06
-8.09571e-10
-1.33448e-06
-8.80882e-10
-1.33843e-06
-8.94741e-10
-1.33927e-06
-8.25944e-10
-1.3389e-06
-7.21746e-10
-1.33823e-06
-5.61894e-10
-1.3376e-06
-4.09241e-10
-1.33696e-06
-2.29147e-10
-1.33588e-06
-9.87483e-11
-1.33341e-06
-1.23703e-11
-1.32758e-06
3.85616e-12
-1.31459e-06
-7.85668e-11
-1.28708e-06
-2.73055e-10
-1.23124e-06
-5.81031e-10
-1.12154e-06
-8.48818e-07
2.73087e-10
-8.60457e-07
3.47167e-10
-1.13424e-06
1.35755e-10
-1.24343e-06
-2.1202e-10
-1.29772e-06
-4.7959e-10
-1.32327e-06
-7.03206e-10
-1.33429e-06
-8.3121e-10
-1.33832e-06
-9.17079e-10
-1.33921e-06
-9.30167e-10
-1.3389e-06
-9.13281e-10
-1.33828e-06
-8.49022e-10
-1.33768e-06
-7.73668e-10
-1.33706e-06
-6.78097e-10
-1.33599e-06
-6.13914e-10
-1.33351e-06
-5.35622e-10
-1.32767e-06
-4.97776e-10
-1.31467e-06
-4.96858e-10
-1.28712e-06
-5.65019e-10
-1.23124e-06
-5.47959e-10
-1.12162e-06
-8.49366e-07
1.16447e-10
-8.60588e-07
2.87085e-10
-1.13442e-06
1.20704e-10
-1.24327e-06
-1.68738e-10
-1.29745e-06
-4.24985e-10
-1.32302e-06
-6.60313e-10
-1.33408e-06
-8.12206e-10
-1.33816e-06
-9.32079e-10
-1.33911e-06
-9.91411e-10
-1.33884e-06
-1.03839e-09
-1.33825e-06
-1.04507e-09
-1.33767e-06
-1.06955e-09
-1.33707e-06
-1.06923e-09
-1.336e-06
-1.08214e-09
-1.33352e-06
-1.07791e-09
-1.3277e-06
-1.03056e-09
-1.31473e-06
-9.5183e-10
-1.28721e-06
-8.67643e-10
-1.23132e-06
-6.3512e-10
-1.12183e-06
-8.49987e-07
3.87239e-10
-8.61027e-07
4.3686e-10
-1.13453e-06
1.23841e-10
-1.24299e-06
-2.26813e-10
-1.29715e-06
-4.58445e-10
-1.3228e-06
-6.25444e-10
-1.33394e-06
-7.24154e-10
-1.33807e-06
-8.0483e-10
-1.33905e-06
-8.53827e-10
-1.33879e-06
-9.11582e-10
-1.3382e-06
-9.59767e-10
-1.33762e-06
-1.01686e-09
-1.33701e-06
-1.08321e-09
-1.33594e-06
-1.15088e-09
-1.33345e-06
-1.20145e-09
-1.32763e-06
-1.19777e-09
-1.31472e-06
-1.08812e-09
-1.28728e-06
-8.85558e-10
-1.23146e-06
-4.5614e-10
-1.1222e-06
-8.50434e-07
8.64786e-10
-8.61953e-07
7.58635e-10
-1.13444e-06
4.99706e-10
-1.24277e-06
2.75467e-10
-1.29693e-06
8.37867e-11
-1.32264e-06
-4.44465e-11
-1.33381e-06
-1.64835e-10
-1.33797e-06
-2.48708e-10
-1.33896e-06
-3.24536e-10
-1.33872e-06
-3.79856e-10
-1.33814e-06
-4.2503e-10
-1.33757e-06
-4.69884e-10
-1.33697e-06
-5.12384e-10
-1.33591e-06
-5.4892e-10
-1.33342e-06
-6.01253e-10
-1.3276e-06
-6.39192e-10
-1.31469e-06
-6.22399e-10
-1.28728e-06
-5.16669e-10
-1.23153e-06
-1.49768e-10
-1.12254e-06
-8.50594e-07
4.45031e-10
-8.6236e-07
6.77931e-10
-1.13462e-06
6.47125e-10
-1.24271e-06
5.84722e-10
-1.29683e-06
5.05713e-10
-1.32254e-06
4.05132e-10
-1.3337e-06
3.12758e-10
-1.33786e-06
2.14913e-10
-1.33887e-06
1.50767e-10
-1.33865e-06
9.90953e-11
-1.3381e-06
7.54835e-11
-1.33757e-06
8.22679e-11
-1.33699e-06
8.80768e-11
-1.33595e-06
1.02885e-10
-1.33346e-06
6.99512e-11
-1.32761e-06
-2.45301e-11
-1.31465e-06
-1.38544e-10
-1.28723e-06
-1.86631e-10
-1.23154e-06
-2.72523e-10
-1.12251e-06
-8.50883e-07
3.32404e-10
-8.62685e-07
4.79084e-10
-1.13476e-06
3.32372e-10
-1.24254e-06
1.73262e-10
-1.29667e-06
1.07966e-10
-1.32244e-06
6.16182e-11
-1.33367e-06
8.09745e-11
-1.33785e-06
7.43392e-11
-1.33888e-06
1.10844e-10
-1.33867e-06
1.20004e-10
-1.33814e-06
1.7164e-10
-1.33761e-06
1.94536e-10
-1.33705e-06
2.47741e-10
-1.33601e-06
2.71936e-10
-1.33351e-06
2.31753e-10
-1.32762e-06
1.31456e-10
-1.31458e-06
7.90776e-12
-1.28718e-06
-4.35041e-11
-1.23156e-06
-2.92613e-10
-1.12233e-06
-8.51183e-07
7.72699e-10
-8.63591e-07
3.63915e-10
-1.13445e-06
-6.86025e-11
-1.2422e-06
-3.57496e-10
-1.29646e-06
-4.51105e-10
-1.32241e-06
-4.27714e-10
-1.33375e-06
-3.3095e-10
-1.33799e-06
-2.28368e-10
-1.33903e-06
-1.15153e-10
-1.33881e-06
-2.21978e-11
-1.33827e-06
6.49386e-11
-1.33772e-06
1.38703e-10
-1.33713e-06
2.02545e-10
-1.33607e-06
2.27211e-10
-1.33355e-06
2.35458e-10
-1.32762e-06
1.62141e-10
-1.31453e-06
6.26066e-11
-1.28709e-06
9.64175e-12
-1.23153e-06
-6.26622e-11
-1.12229e-06
-8.51246e-07
8.42722e-10
-8.64596e-07
2.64773e-10
-1.13398e-06
-1.66372e-10
-1.2419e-06
-3.78545e-10
-1.29632e-06
-4.60997e-10
-1.32242e-06
-4.25277e-10
-1.33383e-06
-3.61975e-10
-1.33812e-06
-2.58964e-10
-1.33917e-06
-1.61141e-10
-1.33895e-06
-5.45448e-11
-1.33839e-06
3.74544e-11
-1.33783e-06
1.03406e-10
-1.33722e-06
1.63453e-10
-1.33613e-06
1.81095e-10
-1.33358e-06
1.76229e-10
-1.32762e-06
1.18496e-10
-1.31449e-06
2.3988e-11
-1.287e-06
-3.65284e-11
-1.23147e-06
-6.90038e-11
-1.12225e-06
-8.5131e-07
5.65462e-10
-8.65249e-07
1.27553e-10
-1.1336e-06
-1.7622e-10
-1.24167e-06
-2.64984e-10
-1.29627e-06
-2.80941e-10
-1.32246e-06
-2.54325e-10
-1.33389e-06
-2.31887e-10
-1.33818e-06
-1.83583e-10
-1.33924e-06
-1.36284e-10
-1.33903e-06
-7.74702e-11
-1.33847e-06
-3.81773e-11
-1.3379e-06
7.00148e-12
-1.33727e-06
3.09819e-11
-1.33616e-06
3.5745e-11
-1.3336e-06
3.6625e-11
-1.32762e-06
-1.349e-11
-1.31446e-06
-7.23497e-11
-1.28694e-06
-1.06306e-10
-1.23142e-06
-1.08558e-10
-1.12222e-06
-8.51402e-07
2.08573e-10
-8.65456e-07
-9.34502e-11
-1.13326e-06
-2.29459e-10
-1.24152e-06
-1.82988e-10
-1.29629e-06
-1.45632e-10
-1.32248e-06
-1.38942e-10
-1.33388e-06
-1.62641e-10
-1.33815e-06
-1.74112e-10
-1.33921e-06
-1.81637e-10
-1.33901e-06
-1.76441e-10
-1.33846e-06
-1.65742e-10
-1.33789e-06
-1.72291e-10
-1.33727e-06
-1.65177e-10
-1.33616e-06
-1.66121e-10
-1.3336e-06
-1.57366e-10
-1.32764e-06
-1.15543e-10
-1.3145e-06
-4.69228e-11
-1.28699e-06
1.67622e-11
-1.23141e-06
-3.58028e-11
-1.12208e-06
-8.51416e-07
-5.7976e-10
-8.6476e-07
-5.22289e-10
-1.13322e-06
-4.242e-10
-1.24152e-06
-3.21283e-10
-1.29632e-06
-2.84302e-10
-1.32244e-06
-3.23666e-10
-1.33378e-06
-3.6187e-10
-1.33805e-06
-3.93323e-10
-1.33914e-06
-3.93075e-10
-1.33897e-06
-3.80986e-10
-1.33845e-06
-3.52927e-10
-1.33789e-06
-3.14198e-10
-1.33727e-06
-2.75155e-10
-1.33616e-06
-2.42802e-10
-1.3336e-06
-1.72791e-10
-1.32766e-06
-5.54662e-11
-1.31458e-06
1.54554e-10
-1.28712e-06
3.18649e-10
-1.23147e-06
2.67777e-10
-1.12194e-06
-8.51149e-07
-1.23141e-09
-8.63424e-07
-1.07478e-09
-1.13332e-06
-9.80497e-10
-1.24153e-06
-9.54083e-10
-1.2963e-06
-9.08815e-10
-1.32242e-06
-9.02433e-10
-1.33375e-06
-8.70102e-10
-1.33804e-06
-8.30644e-10
-1.33915e-06
-7.63973e-10
-1.33901e-06
-6.743e-10
-1.33851e-06
-5.52998e-10
-1.33798e-06
-4.25888e-10
-1.33738e-06
-2.59599e-10
-1.33629e-06
-1.1316e-10
-1.33374e-06
5.66299e-11
-1.32781e-06
2.1088e-10
-1.31475e-06
3.99575e-10
-1.28729e-06
4.98158e-10
-1.23158e-06
5.85509e-10
-1.12206e-06
-8.50591e-07
-1.00928e-09
-8.62409e-07
-1.24072e-09
-1.13311e-06
-1.18146e-09
-1.24159e-06
-1.1679e-09
-1.29635e-06
-1.15155e-09
-1.32245e-06
-1.15781e-09
-1.33378e-06
-1.11919e-09
-1.33808e-06
-1.08836e-09
-1.33922e-06
-1.0015e-09
-1.3391e-06
-9.2628e-10
-1.33863e-06
-8.02293e-10
-1.33813e-06
-6.74328e-10
-1.33755e-06
-5.07485e-10
-1.33648e-06
-3.56977e-10
-1.33395e-06
-1.83859e-10
-1.32803e-06
-3.34175e-11
-1.31498e-06
1.16374e-10
-1.28756e-06
2.51711e-10
-1.23186e-06
2.99796e-10
-1.12223e-06
-8.50305e-07
-9.67139e-10
-8.61437e-07
-1.16832e-09
-1.13293e-06
-1.09208e-09
-1.24167e-06
-1.04447e-09
-1.29643e-06
-1.01319e-09
-1.32248e-06
-1.01614e-09
-1.33382e-06
-9.94623e-10
-1.33811e-06
-1.00384e-09
-1.33925e-06
-9.62857e-10
-1.33914e-06
-9.51566e-10
-1.33868e-06
-8.83067e-10
-1.33818e-06
-8.64098e-10
-1.33762e-06
-7.96199e-10
-1.33655e-06
-7.48703e-10
-1.33403e-06
-6.76232e-10
-1.32814e-06
-5.22185e-10
-1.31516e-06
-2.97119e-10
-1.28785e-06
4.44237e-11
-1.23225e-06
3.89994e-10
-1.12261e-06
-8.49893e-07
-6.47429e-10
-8.60757e-07
-8.09761e-10
-1.13277e-06
-7.19277e-10
-1.24175e-06
-6.34208e-10
-1.29652e-06
-5.95423e-10
-1.32252e-06
-5.91673e-10
-1.33382e-06
-6.03601e-10
-1.33809e-06
-6.25552e-10
-1.33922e-06
-6.28134e-10
-1.33912e-06
-6.28885e-10
-1.33867e-06
-6.13367e-10
-1.33818e-06
-5.95448e-10
-1.33761e-06
-5.81025e-10
-1.33654e-06
-5.67525e-10
-1.33402e-06
-5.11378e-10
-1.32815e-06
-4.17704e-10
-1.31521e-06
-2.14776e-10
-1.28797e-06
1.09632e-10
-1.23247e-06
6.23445e-10
-1.12301e-06
-8.49239e-07
-5.58963e-10
-8.60122e-07
-4.89305e-10
-1.13276e-06
-2.94722e-10
-1.24188e-06
-1.66752e-10
-1.29658e-06
-1.43502e-10
-1.32249e-06
-1.48931e-10
-1.33376e-06
-1.73568e-10
-1.33802e-06
-1.8032e-10
-1.33916e-06
-1.7323e-10
-1.33909e-06
-1.36084e-10
-1.33866e-06
-7.30157e-11
-1.33819e-06
-7.93272e-12
-1.33765e-06
6.98151e-11
-1.33658e-06
1.39652e-10
-1.33405e-06
1.8345e-10
-1.32815e-06
2.00911e-10
-1.31518e-06
1.92333e-10
-1.28786e-06
2.36892e-10
-1.23238e-06
4.85597e-10
-1.12312e-06
-8.48739e-07
-6.50132e-10
-8.59327e-07
-4.40807e-10
-1.13287e-06
-2.31482e-10
-1.24197e-06
-1.47789e-10
-1.29659e-06
-9.76331e-11
-1.32246e-06
-8.26369e-11
-1.33373e-06
-3.60645e-11
-1.33801e-06
4.51736e-12
-1.33918e-06
8.41431e-11
-1.33913e-06
1.79623e-10
-1.33873e-06
3.00631e-10
-1.3383e-06
4.5553e-10
-1.33776e-06
5.98315e-10
-1.33671e-06
7.18495e-10
-1.33414e-06
7.66725e-10
-1.32817e-06
6.77848e-10
-1.31508e-06
4.44861e-10
-1.2876e-06
1.7295e-10
-1.23206e-06
1.49994e-11
-1.12291e-06
-8.48723e-07
-3.20667e-10
-8.58912e-07
-3.07683e-10
-1.13281e-06
-2.11022e-10
-1.24199e-06
-2.05326e-10
-1.29655e-06
-1.91103e-10
-1.3224e-06
-1.77619e-10
-1.33372e-06
-9.86791e-11
-1.33804e-06
-1.97967e-11
-1.33924e-06
1.07647e-10
-1.33922e-06
2.28142e-10
-1.33884e-06
3.89857e-10
-1.33842e-06
5.1568e-10
-1.33789e-06
6.65739e-10
-1.33681e-06
7.44444e-10
-1.33421e-06
7.35867e-10
-1.32815e-06
6.05092e-10
-1.31493e-06
3.39484e-10
-1.28734e-06
4.81555e-12
-1.23172e-06
-3.49728e-10
-1.12255e-06
-8.49068e-07
5.90517e-11
-8.58938e-07
3.61233e-11
-1.13278e-06
-1.00375e-11
-1.24192e-06
-1.10694e-10
-1.29645e-06
-1.53652e-10
-1.32235e-06
-1.4512e-10
-1.33373e-06
-6.78613e-11
-1.33811e-06
1.76876e-11
-1.33933e-06
1.22358e-10
-1.33931e-06
2.08728e-10
-1.33893e-06
2.92395e-10
-1.33849e-06
3.57828e-10
-1.33794e-06
4.11339e-10
-1.33683e-06
4.04313e-10
-1.33419e-06
3.85688e-10
-1.32808e-06
2.44343e-10
-1.31478e-06
2.23755e-11
-1.2871e-06
-2.35546e-10
-1.23145e-06
-3.89009e-10
-1.12236e-06
-8.49437e-07
3.53398e-10
-8.59251e-07
4.06026e-10
-1.13278e-06
3.78707e-10
-1.24186e-06
3.30606e-10
-1.29637e-06
2.97493e-10
-1.32229e-06
2.94392e-10
-1.3337e-06
2.95275e-10
-1.33809e-06
2.9892e-10
-1.33931e-06
2.89851e-10
-1.33928e-06
2.63951e-10
-1.33888e-06
2.25258e-10
-1.33841e-06
1.35429e-10
-1.33784e-06
4.56378e-11
-1.3367e-06
-7.43756e-11
-1.33405e-06
-1.92027e-10
-1.32793e-06
-3.24568e-10
-1.31461e-06
-5.06689e-10
-1.28686e-06
-6.94754e-10
-1.23118e-06
-6.80469e-10
-1.12226e-06
-8.50081e-07
1.7295e-10
-8.59306e-07
5.66479e-10
-1.13306e-06
6.67135e-10
-1.24187e-06
6.86603e-10
-1.2963e-06
7.00935e-10
-1.32224e-06
6.89227e-10
-1.33363e-06
6.37306e-10
-1.33799e-06
5.61535e-10
-1.33919e-06
4.63943e-10
-1.33914e-06
3.35716e-10
-1.33871e-06
1.77856e-10
-1.33822e-06
3.65191e-13
-1.3376e-06
-2.13068e-10
-1.33645e-06
-4.23904e-10
-1.33379e-06
-5.7856e-10
-1.32771e-06
-6.72258e-10
-1.31445e-06
-7.0306e-10
-1.28674e-06
-6.81496e-10
-1.23105e-06
-4.85143e-10
-1.12228e-06
-8.5053e-07
2.30708e-10
-8.59498e-07
6.94619e-10
-1.13348e-06
6.55041e-10
-1.2418e-06
5.54716e-10
-1.29615e-06
5.08951e-10
-1.32216e-06
5.06087e-10
-1.33357e-06
4.9547e-10
-1.33794e-06
4.80119e-10
-1.33913e-06
4.28358e-10
-1.33905e-06
3.52434e-10
-1.33859e-06
2.45741e-10
-1.33807e-06
9.3643e-11
-1.33743e-06
-7.83732e-11
-1.33625e-06
-2.51956e-10
-1.33358e-06
-4.04111e-10
-1.32753e-06
-4.5822e-10
-1.31435e-06
-4.31749e-10
-1.28667e-06
-3.75328e-10
-1.23097e-06
-1.9407e-10
-1.12231e-06
-8.50711e-07
7.34437e-10
-8.60353e-07
8.36624e-10
-1.13368e-06
5.89425e-10
-1.24164e-06
3.8597e-10
-1.29601e-06
2.97916e-10
-1.32213e-06
3.02075e-10
-1.33362e-06
3.27065e-10
-1.338e-06
3.64455e-10
-1.33918e-06
3.70944e-10
-1.33908e-06
3.65053e-10
-1.33859e-06
3.14264e-10
-1.33804e-06
2.75168e-10
-1.33737e-06
1.71698e-10
-1.33617e-06
7.26798e-11
-1.33347e-06
-4.68285e-11
-1.3274e-06
-1.44423e-10
-1.31424e-06
-1.99607e-10
-1.28659e-06
-2.51969e-10
-1.23087e-06
-3.93906e-10
-1.12214e-06
-8.51119e-07
8.98181e-10
-8.61332e-07
8.68667e-10
-1.13367e-06
7.06691e-10
-1.24154e-06
6.27827e-10
-1.29594e-06
5.74105e-10
-1.32212e-06
5.55816e-10
-1.3336e-06
4.97549e-10
-1.33797e-06
4.49268e-10
-1.33913e-06
3.70029e-10
-1.33902e-06
3.0255e-10
-1.33852e-06
2.23464e-10
-1.33796e-06
1.40154e-10
-1.3373e-06
6.24021e-11
-1.33609e-06
-1.10938e-11
-1.33339e-06
-9.36163e-11
-1.32734e-06
-1.48799e-10
-1.3142e-06
-1.78824e-10
-1.2866e-06
-2.26561e-10
-1.2309e-06
-5.10903e-10
-1.12193e-06
-8.51647e-07
5.00605e-10
-8.61724e-07
5.90257e-10
-1.13367e-06
5.56688e-10
-1.24142e-06
5.58771e-10
-1.29587e-06
5.57574e-10
-1.32206e-06
5.01756e-10
-1.33351e-06
4.11169e-10
-1.33784e-06
2.70368e-10
-1.33899e-06
1.27773e-10
-1.33886e-06
-5.02611e-11
-1.33835e-06
-2.23794e-10
-1.33779e-06
-4.01619e-10
-1.33712e-06
-5.64428e-10
-1.33592e-06
-7.23631e-10
-1.33325e-06
-8.20145e-10
-1.32724e-06
-8.49599e-10
-1.3142e-06
-7.29562e-10
-1.28679e-06
-5.30807e-10
-1.23118e-06
-5.59697e-10
-1.12196e-06
-8.52198e-07
5.14806e-10
-8.62138e-07
3.42056e-10
-1.13344e-06
6.64145e-11
-1.24106e-06
-8.80667e-11
-1.29568e-06
-1.24758e-10
-1.32195e-06
-1.71543e-10
-1.33343e-06
-2.02731e-10
-1.33776e-06
-2.89704e-10
-1.33888e-06
-3.8885e-10
-1.33872e-06
-5.49987e-10
-1.33818e-06
-7.1432e-10
-1.33759e-06
-9.38658e-10
-1.3369e-06
-1.13701e-09
-1.33569e-06
-1.32067e-09
-1.33305e-06
-1.45232e-09
-1.32711e-06
-1.41915e-09
-1.3142e-06
-1.12976e-09
-1.28706e-06
-5.73656e-10
-1.23169e-06
9.46585e-11
-1.12256e-06
-8.52072e-07
6.39451e-10
-8.62815e-07
3.38258e-11
-1.1329e-06
-2.73269e-10
-1.2408e-06
-4.20716e-10
-1.29557e-06
-5.02457e-10
-1.3219e-06
-5.53047e-10
-1.33339e-06
-6.05508e-10
-1.33772e-06
-6.49765e-10
-1.33883e-06
-7.23913e-10
-1.33865e-06
-8.07608e-10
-1.33808e-06
-9.42122e-10
-1.33746e-06
-1.05171e-09
-1.33674e-06
-1.20101e-09
-1.33553e-06
-1.29929e-09
-1.3329e-06
-1.35762e-09
-1.32698e-06
-1.34998e-09
-1.31415e-06
-1.11014e-09
-1.28719e-06
-4.98028e-10
-1.23216e-06
4.64655e-10
-1.12337e-06
-8.51577e-07
6.79759e-11
-8.62893e-07
-3.50666e-10
-1.13248e-06
-4.43277e-10
-1.24073e-06
-4.8033e-10
-1.29553e-06
-5.8156e-10
-1.32183e-06
-6.55706e-10
-1.3333e-06
-7.47159e-10
-1.33765e-06
-7.92062e-10
-1.33876e-06
-8.58561e-10
-1.33858e-06
-8.92676e-10
-1.338e-06
-9.38734e-10
-1.33738e-06
-9.75642e-10
-1.33667e-06
-1.00069e-09
-1.33547e-06
-9.94618e-10
-1.33286e-06
-1.00027e-09
-1.32695e-06
-9.91376e-10
-1.3141e-06
-9.08326e-10
-1.28719e-06
-4.93118e-10
-1.23246e-06
1.96621e-10
-1.12393e-06
-8.51362e-07
-4.82818e-10
-8.62288e-07
-6.68247e-10
-1.13225e-06
-6.63857e-10
-1.24065e-06
-7.28755e-10
-1.29544e-06
-8.30958e-10
-1.32168e-06
-9.43159e-10
-1.33317e-06
-1.02115e-09
-1.33754e-06
-1.07603e-09
-1.33868e-06
-1.12024e-09
-1.33852e-06
-1.13459e-09
-1.33796e-06
-1.15543e-09
-1.33736e-06
-1.10544e-09
-1.33667e-06
-1.05522e-09
-1.3355e-06
-9.55014e-10
-1.33291e-06
-8.27831e-10
-1.32703e-06
-7.47498e-10
-1.31416e-06
-7.23729e-10
-1.28718e-06
-5.57005e-10
-1.23256e-06
-1.34539e-10
-1.12426e-06
-8.5147e-07
-6.22052e-10
-8.61451e-07
-8.67291e-10
-1.13185e-06
-7.97001e-10
-1.24055e-06
-8.44516e-10