/*--------------------------------*- C++ -*----------------------------------*\
  =========                 |
  \\      /  F ield         | OpenFOAM: The Open Source CFD Toolbox
   \\    /   O peration     | Website:  https://openfoam.org
    \\  /    A nd           | Version:  6
     \\/     M anipulation  |
\*---------------------------------------------------------------------------*/
FoamFile
{
    version     2.0;
    format      ascii;
    class       volVectorField;
    location    "10";
    object      U;
}
// * * * * * * * * * * * * * * * * * * * * * * * * * * * * * * * * * * * * * //

dimensions      [0 1 -1 0 0 0 0];

internalField   nonuniform List<vector> 
130000
(
(-0.0100772 -0.339644 0)
(-0.0106702 -0.379092 0)
(-0.0111567 -0.417292 0)
(-0.0115842 -0.453676 0)
(-0.0119487 -0.487753 0)
(-0.0122636 -0.519121 0)
(-0.0125389 -0.547473 0)
(-0.0127839 -0.572607 0)
(-0.0130066 -0.594427 0)
(-0.0132133 -0.612939 0)
(-0.0134082 -0.628234 0)
(-0.0135941 -0.640477 0)
(-0.0137721 -0.64989 0)
(-0.0139424 -0.656734 0)
(-0.0141043 -0.661296 0)
(-0.0142567 -0.663878 0)
(-0.0143982 -0.664783 0)
(-0.0145277 -0.664316 0)
(-0.0146449 -0.662768 0)
(-0.0147495 -0.660439 0)
(-0.0119437 -0.338389 0)
(-0.0123361 -0.377946 0)
(-0.0126873 -0.41631 0)
(-0.013018 -0.452855 0)
(-0.0133105 -0.487078 0)
(-0.0135692 -0.518567 0)
(-0.0138005 -0.547015 0)
(-0.0140107 -0.572222 0)
(-0.014206 -0.594094 0)
(-0.0143908 -0.612642 0)
(-0.0145688 -0.627962 0)
(-0.0147416 -0.640223 0)
(-0.0149099 -0.649651 0)
(-0.0150733 -0.65651 0)
(-0.0152308 -0.661088 0)
(-0.0153809 -0.663688 0)
(-0.0155218 -0.664615 0)
(-0.0156525 -0.664172 0)
(-0.0157723 -0.66265 0)
(-0.0158797 -0.660346 0)
(-0.0148123 -0.337775 0)
(-0.0150718 -0.377302 0)
(-0.015275 -0.415672 0)
(-0.0154793 -0.452246 0)
(-0.0156701 -0.486504 0)
(-0.0158473 -0.518026 0)
(-0.016014 -0.546502 0)
(-0.0161725 -0.57173 0)
(-0.0163262 -0.593618 0)
(-0.0164772 -0.612177 0)
(-0.0166274 -0.627506 0)
(-0.0167771 -0.639776 0)
(-0.0169265 -0.649214 0)
(-0.0170747 -0.656085 0)
(-0.0172202 -0.660678 0)
(-0.0173613 -0.663296 0)
(-0.0174962 -0.664245 0)
(-0.017623 -0.663827 0)
(-0.0177406 -0.662332 0)
(-0.0178464 -0.660055 0)
(-0.018385 -0.337558 0)
(-0.0185263 -0.377057 0)
(-0.018598 -0.41542 0)
(-0.018677 -0.451997 0)
(-0.0187561 -0.48626 0)
(-0.0188363 -0.517786 0)
(-0.0189204 -0.546263 0)
(-0.0190091 -0.571487 0)
(-0.0191041 -0.593369 0)
(-0.0192058 -0.61192 0)
(-0.0193147 -0.627239 0)
(-0.01943 -0.6395 0)
(-0.019551 -0.648931 0)
(-0.0196758 -0.655799 0)
(-0.0198026 -0.660392 0)
(-0.0199293 -0.663015 0)
(-0.0200534 -0.663974 0)
(-0.0201731 -0.663568 0)
(-0.0202865 -0.66209 0)
(-0.0203906 -0.659831 0)
(-0.0224696 -0.3376 0)
(-0.0224866 -0.377077 0)
(-0.0224295 -0.41543 0)
(-0.0223848 -0.451993 0)
(-0.0223507 -0.486241 0)
(-0.0223288 -0.517751 0)
(-0.0223223 -0.546207 0)
(-0.0223314 -0.57141 0)
(-0.0223568 -0.593268 0)
(-0.022398 -0.611795 0)
(-0.0224545 -0.627092 0)
(-0.0225248 -0.639333 0)
(-0.0226072 -0.648748 0)
(-0.0226994 -0.655603 0)
(-0.0227991 -0.660189 0)
(-0.0229035 -0.662808 0)
(-0.0230099 -0.663768 0)
(-0.0231156 -0.663368 0)
(-0.0232185 -0.661901 0)
(-0.0233143 -0.659657 0)
(-0.026742 -0.337842 0)
(-0.0266817 -0.377309 0)
(-0.0265293 -0.415645 0)
(-0.0263854 -0.452186 0)
(-0.026254 -0.486404 0)
(-0.0261392 -0.517879 0)
(-0.0260462 -0.546297 0)
(-0.0259759 -0.571459 0)
(-0.0259293 -0.593277 0)
(-0.0259057 -0.611763 0)
(-0.0259044 -0.627023 0)
(-0.0259236 -0.63923 0)
(-0.0259612 -0.648615 0)
(-0.0260143 -0.655446 0)
(-0.0260802 -0.660014 0)
(-0.0261555 -0.662621 0)
(-0.0262372 -0.663574 0)
(-0.0263221 -0.663173 0)
(-0.0264071 -0.66171 0)
(-0.0264874 -0.659474 0)
(-0.0311064 -0.338237 0)
(-0.0309961 -0.377715 0)
(-0.0307711 -0.416046 0)
(-0.030547 -0.452566 0)
(-0.0303334 -0.48675 0)
(-0.0301372 -0.518182 0)
(-0.0299657 -0.546551 0)
(-0.029821 -0.57166 0)
(-0.0297048 -0.593422 0)
(-0.0296169 -0.611856 0)
(-0.0295567 -0.627065 0)
(-0.0295223 -0.639226 0)
(-0.0295115 -0.64857 0)
(-0.0295212 -0.655367 0)
(-0.0295484 -0.659906 0)
(-0.0295894 -0.662492 0)
(-0.0296408 -0.66343 0)
(-0.0296988 -0.663022 0)
(-0.0297601 -0.661556 0)
(-0.029819 -0.659325 0)
(-0.0355247 -0.338755 0)
(-0.0353633 -0.378257 0)
(-0.0350761 -0.416593 0)
(-0.0347858 -0.453098 0)
(-0.034503 -0.48725 0)
(-0.0342366 -0.518637 0)
(-0.0339958 -0.546952 0)
(-0.0337839 -0.572001 0)
(-0.0336034 -0.593701 0)
(-0.0334546 -0.612073 0)
(-0.0333374 -0.627222 0)
(-0.03325 -0.639328 0)
(-0.0331904 -0.648622 0)
(-0.0331553 -0.655375 0)
(-0.0331415 -0.659878 0)
(-0.0331453 -0.662435 0)
(-0.033163 -0.663351 0)
(-0.0331906 -0.662928 0)
(-0.0332243 -0.661455 0)
(-0.0332581 -0.659223 0)
(-0.0399367 -0.339317 0)
(-0.0397357 -0.378872 0)
(-0.0394013 -0.417234 0)
(-0.0390578 -0.453739 0)
(-0.0387171 -0.487869 0)
(-0.0383902 -0.519216 0)
(-0.0380881 -0.547478 0)
(-0.0378155 -0.572466 0)
(-0.0375758 -0.5941 0)
(-0.0373699 -0.612404 0)
(-0.0371981 -0.627488 0)
(-0.037059 -0.639531 0)
(-0.0369506 -0.648769 0)
(-0.0368699 -0.655471 0)
(-0.0368137 -0.659931 0)
(-0.0367781 -0.662452 0)
(-0.0367593 -0.66334 0)
(-0.0367532 -0.662897 0)
(-0.0367557 -0.661411 0)
(-0.0367607 -0.659172 0)
(-0.0443849 -0.339959 0)
(-0.0441362 -0.379575 0)
(-0.0437495 -0.417973 0)
(-0.0433537 -0.454485 0)
(-0.0429582 -0.488598 0)
(-0.042575 -0.519908 0)
(-0.0422164 -0.548119 0)
(-0.0418877 -0.573044 0)
(-0.0415928 -0.59461 0)
(-0.0413331 -0.612844 0)
(-0.0411094 -0.627857 0)
(-0.0409204 -0.639834 0)
(-0.0407645 -0.649009 0)
(-0.0406386 -0.655656 0)
(-0.0405397 -0.660067 0)
(-0.0404639 -0.662546 0)
(-0.0404074 -0.663401 0)
(-0.0403658 -0.662932 0)
(-0.0403353 -0.661428 0)
(-0.0403095 -0.659179 0)
(-0.0487816 -0.34066 0)
(-0.0484969 -0.380351 0)
(-0.0480757 -0.418795 0)
(-0.0476396 -0.455323 0)
(-0.047199 -0.489425 0)
(-0.0467675 -0.520703 0)
(-0.046359 -0.548863 0)
(-0.0459796 -0.573727 0)
(-0.0456339 -0.595224 0)
(-0.045324 -0.613384 0)
(-0.0450508 -0.628325 0)
(-0.0448137 -0.640231 0)
(-0.0446111 -0.649341 0)
(-0.0444403 -0.655927 0)
(-0.0442984 -0.660285 0)
(-0.0441816 -0.662719 0)
(-0.044086 -0.663536 0)
(-0.0440073 -0.663037 0)
(-0.0439417 -0.661511 0)
(-0.0438828 -0.659247 0)
(-0.0532231 -0.341422 0)
(-0.0528839 -0.381195 0)
(-0.052415 -0.419693 0)
(-0.0519336 -0.456243 0)
(-0.0514463 -0.49034 0)
(-0.0509673 -0.521588 0)
(-0.0505109 -0.549701 0)
(-0.0500834 -0.574505 0)
(-0.0496896 -0.595933 0)
(-0.0493317 -0.61402 0)
(-0.0490112 -0.628886 0)
(-0.0487276 -0.64072 0)
(-0.0484796 -0.649762 0)
(-0.0482647 -0.656285 0)
(-0.0480801 -0.660587 0)
(-0.0479221 -0.662972 0)
(-0.0477871 -0.663747 0)
(-0.0476706 -0.663215 0)
(-0.0475691 -0.661663 0)
(-0.0474762 -0.65938 0)
(-0.0576056 -0.342239 0)
(-0.0572214 -0.382101 0)
(-0.0567225 -0.420658 0)
(-0.0562073 -0.457236 0)
(-0.0556823 -0.491332 0)
(-0.0551624 -0.522556 0)
(-0.0546631 -0.550626 0)
(-0.0541913 -0.575371 0)
(-0.0537523 -0.596732 0)
(-0.0533486 -0.614747 0)
(-0.0529824 -0.629538 0)
(-0.0526532 -0.641299 0)
(-0.0523603 -0.65027 0)
(-0.0521014 -0.656729 0)
(-0.0518739 -0.660971 0)
(-0.0516743 -0.663305 0)
(-0.051499 -0.664036 0)
(-0.0513435 -0.663466 0)
(-0.0512046 -0.661886 0)
(-0.0510763 -0.659581 0)
(-0.0620019 -0.343086 0)
(-0.0615651 -0.383054 0)
(-0.0610335 -0.421682 0)
(-0.060483 -0.458296 0)
(-0.0599203 -0.492398 0)
(-0.0593601 -0.523603 0)
(-0.0588188 -0.551633 0)
(-0.0583036 -0.576323 0)
(-0.0578204 -0.597618 0)
(-0.0573719 -0.615561 0)
(-0.0569606 -0.630278 0)
(-0.0565866 -0.641965 0)
(-0.0562494 -0.650865 0)
(-0.0559467 -0.657257 0)
(-0.0556763 -0.661439 0)
(-0.0554349 -0.663718 0)
(-0.0552189 -0.664403 0)
(-0.055024 -0.663794 0)
(-0.0548472 -0.662182 0)
(-0.0546827 -0.659851 0)
(-0.0663752 -0.344011 0)
(-0.0658887 -0.384084 0)
(-0.0653306 -0.422782 0)
(-0.064749 -0.459434 0)
(-0.0641515 -0.493544 0)
(-0.0635538 -0.524731 0)
(-0.0629726 -0.552723 0)
(-0.0624158 -0.57736 0)
(-0.0618894 -0.598591 0)
(-0.0613969 -0.616462 0)
(-0.0609411 -0.631105 0)
(-0.0605224 -0.642718 0)
(-0.0601406 -0.651546 0)
(-0.0597939 -0.657871 0)
(-0.0594802 -0.66199 0)
(-0.0591962 -0.664214 0)
(-0.0589387 -0.664849 0)
(-0.0587034 -0.664198 0)
(-0.0584874 -0.662552 0)
(-0.0582856 -0.660193 0)
(-0.0707507 -0.344982 0)
(-0.0702069 -0.38517 0)
(-0.0696217 -0.423943 0)
(-0.0690095 -0.460637 0)
(-0.0683784 -0.494759 0)
(-0.0677442 -0.525933 0)
(-0.067124 -0.553891 0)
(-0.0665263 -0.578479 0)
(-0.0659575 -0.599647 0)
(-0.0654215 -0.617449 0)
(-0.0649214 -0.632019 0)
(-0.0644582 -0.643558 0)
(-0.0640319 -0.652314 0)
(-0.0636411 -0.65857 0)
(-0.0632837 -0.662626 0)
(-0.062957 -0.664793 0)
(-0.0626575 -0.665377 0)
(-0.0623811 -0.664683 0)
(-0.0621255 -0.662999 0)
(-0.0618856 -0.66061 0)
(-0.0751316 -0.346009 0)
(-0.0745304 -0.386315 0)
(-0.0739145 -0.425165 0)
(-0.0732702 -0.461904 0)
(-0.0726044 -0.496044 0)
(-0.0719332 -0.527209 0)
(-0.0712738 -0.555138 0)
(-0.0706352 -0.579678 0)
(-0.0700238 -0.600787 0)
(-0.069444 -0.618522 0)
(-0.0688994 -0.63302 0)
(-0.0683911 -0.644485 0)
(-0.0679197 -0.653169 0)
(-0.0674839 -0.659356 0)
(-0.067082 -0.663348 0)
(-0.0667114 -0.665456 0)
(-0.0663689 -0.665988 0)
(-0.0660503 -0.665248 0)
(-0.0657536 -0.663525 0)
(-0.0654744 -0.661104 0)
(-0.0795025 -0.347066 0)
(-0.0788467 -0.3875 0)
(-0.0782039 -0.426437 0)
(-0.0775292 -0.46323 0)
(-0.0768297 -0.497394 0)
(-0.0761213 -0.528558 0)
(-0.0754226 -0.556461 0)
(-0.0747425 -0.580958 0)
(-0.0740881 -0.602012 0)
(-0.073464 -0.619681 0)
(-0.0728742 -0.634109 0)
(-0.0723204 -0.645501 0)
(-0.0718032 -0.654114 0)
(-0.0713218 -0.660231 0)
(-0.0708746 -0.664159 0)
(-0.0704592 -0.666206 0)
(-0.0700726 -0.666685 0)
(-0.0697108 -0.665897 0)
(-0.0693719 -0.664134 0)
(-0.0690523 -0.661678 0)
(-0.0838958 -0.348171 0)
(-0.0831903 -0.388744 0)
(-0.0825134 -0.427774 0)
(-0.0818023 -0.464626 0)
(-0.081064 -0.498818 0)
(-0.0803148 -0.529984 0)
(-0.0795738 -0.557866 0)
(-0.0788502 -0.582324 0)
(-0.0781509 -0.603323 0)
(-0.0774811 -0.62093 0)
(-0.0768448 -0.635288 0)
(-0.0762441 -0.646609 0)
(-0.0756797 -0.655149 0)
(-0.0751513 -0.661198 0)
(-0.0746575 -0.665059 0)
(-0.0741959 -0.667046 0)
(-0.0737637 -0.667469 0)
(-0.0733572 -0.666633 0)
(-0.0729745 -0.664828 0)
(-0.0726128 -0.662333 0)
(-0.0882795 -0.349351 0)
(-0.0875323 -0.390065 0)
(-0.0868232 -0.42919 0)
(-0.0860759 -0.466104 0)
(-0.0852983 -0.500327 0)
(-0.0845077 -0.531496 0)
(-0.0837233 -0.559359 0)
(-0.0829551 -0.583779 0)
(-0.0822099 -0.604727 0)
(-0.0814932 -0.622271 0)
(-0.0808092 -0.636561 0)
(-0.0801604 -0.647811 0)
(-0.0795479 -0.65628 0)
(-0.0789714 -0.662259 0)
(-0.0784297 -0.666054 0)
(-0.0779208 -0.667979 0)
(-0.0774418 -0.668346 0)
(-0.0769892 -0.667459 0)
(-0.0765616 -0.665609 0)
(-0.0761566 -0.663076 0)
(-0.092682 -0.350595 0)
(-0.0918901 -0.391455 0)
(-0.0911425 -0.43068 0)
(-0.0903553 -0.467659 0)
(-0.0895356 -0.501917 0)
(-0.0887012 -0.533092 0)
(-0.0878718 -0.560939 0)
(-0.0870572 -0.585324 0)
(-0.0862645 -0.606222 0)
(-0.0854995 -0.623706 0)
(-0.0847663 -0.637929 0)
(-0.084068 -0.649109 0)
(-0.0834056 -0.657507 0)
(-0.0827794 -0.663416 0)
(-0.0821882 -0.667144 0)
(-0.0816302 -0.669007 0)
(-0.0811028 -0.669316 0)
(-0.0806026 -0.668377 0)
(-0.0801283 -0.666481 0)
(-0.0796782 -0.663906 0)
(-0.0970731 -0.35189 0)
(-0.0962398 -0.392905 0)
(-0.0954583 -0.432239 0)
(-0.0946332 -0.46929 0)
(-0.0937723 -0.503588 0)
(-0.0928938 -0.534775 0)
(-0.0920184 -0.56261 0)
(-0.0911562 -0.586963 0)
(-0.0903146 -0.607814 0)
(-0.0894995 -0.625239 0)
(-0.0887156 -0.639397 0)
(-0.087966 -0.650507 0)
(-0.0872523 -0.658834 0)
(-0.0865745 -0.664673 0)
(-0.0859321 -0.668335 0)
(-0.0853234 -0.670134 0)
(-0.0847458 -0.670385 0)
(-0.0841962 -0.669392 0)
(-0.0836735 -0.667447 0)
(-0.0831767 -0.664829 0)
(-0.101484 -0.353234 0)
(-0.100611 -0.394418 0)
(-0.0997903 -0.433869 0)
(-0.098923 -0.471001 0)
(-0.098017 -0.505344 0)
(-0.0970911 -0.536548 0)
(-0.0961668 -0.564374 0)
(-0.0952543 -0.588698 0)
(-0.0943612 -0.609505 0)
(-0.0934937 -0.626874 0)
(-0.0926567 -0.640968 0)
(-0.0918537 -0.652009 0)
(-0.0910862 -0.660266 0)
(-0.0903549 -0.666035 0)
(-0.0896591 -0.669628 0)
(-0.0889975 -0.671363 0)
(-0.0883677 -0.671554 0)
(-0.0877666 -0.670506 0)
(-0.0871934 -0.668511 0)
(-0.0866478 -0.665846 0)
(-0.105895 -0.354655 0)
(-0.104989 -0.396012 0)
(-0.104129 -0.435585 0)
(-0.103219 -0.472801 0)
(-0.102266 -0.507195 0)
(-0.101291 -0.538419 0)
(-0.100315 -0.566239 0)
(-0.0993503 -0.590537 0)
(-0.0984033 -0.611302 0)
(-0.0974811 -0.628616 0)
(-0.0965886 -0.642647 0)
(-0.0957296 -0.65362 0)
(-0.0949061 -0.661807 0)
(-0.0941187 -0.667506 0)
(-0.0933673 -0.671031 0)
(-0.0926505 -0.672701 0)
(-0.0919661 -0.67283 0)
(-0.0913112 -0.671725 0)
(-0.0906853 -0.669678 0)
(-0.0900887 -0.666964 0)
(-0.110325 -0.356141 0)
(-0.109381 -0.39768 0)
(-0.108479 -0.437384 0)
(-0.107522 -0.474692 0)
(-0.10652 -0.509141 0)
(-0.105494 -0.54039 0)
(-0.104464 -0.56821 0)
(-0.103444 -0.592484 0)
(-0.102441 -0.613209 0)
(-0.101461 -0.63047 0)
(-0.100511 -0.644439 0)
(-0.0995933 -0.655345 0)
(-0.0987108 -0.663462 0)
(-0.0978648 -0.669091 0)
(-0.0970548 -0.672547 0)
(-0.0962802 -0.67415 0)
(-0.0955385 -0.674217 0)
(-0.0948272 -0.673053 0)
(-0.094146 -0.670951 0)
(-0.0934955 -0.668187 0)
(-0.114764 -0.357699 0)
(-0.113783 -0.399429 0)
(-0.112837 -0.439272 0)
(-0.111833 -0.476678 0)
(-0.11078 -0.511189 0)
(-0.109699 -0.542468 0)
(-0.108614 -0.570291 0)
(-0.107536 -0.594546 0)
(-0.106474 -0.615232 0)
(-0.105434 -0.632444 0)
(-0.104422 -0.646352 0)
(-0.103443 -0.657192 0)
(-0.102499 -0.665239 0)
(-0.101591 -0.670797 0)
(-0.10072 -0.674183 0)
(-0.0998838 -0.675719 0)
(-0.0990818 -0.675721 0)
(-0.098311 -0.674496 0)
(-0.0975714 -0.672337 0)
(-0.0968643 -0.66952 0)
(-0.119214 -0.359323 0)
(-0.118197 -0.401259 0)
(-0.117207 -0.441251 0)
(-0.116153 -0.478764 0)
(-0.115046 -0.513344 0)
(-0.113909 -0.544659 0)
(-0.112765 -0.572488 0)
(-0.111626 -0.596727 0)
(-0.110501 -0.617379 0)
(-0.109398 -0.634542 0)
(-0.108322 -0.648391 0)
(-0.107278 -0.659165 0)
(-0.106268 -0.667143 0)
(-0.105295 -0.67263 0)
(-0.104359 -0.675946 0)
(-0.103459 -0.677412 0)
(-0.102593 -0.677348 0)
(-0.10176 -0.676061 0)
(-0.100959 -0.673843 0)
(-0.100193 -0.670969 0)
(-0.123681 -0.361035 0)
(-0.122629 -0.403184 0)
(-0.12159 -0.443333 0)
(-0.120483 -0.48096 0)
(-0.119319 -0.515615 0)
(-0.118122 -0.54697 0)
(-0.116915 -0.57481 0)
(-0.115712 -0.599036 0)
(-0.114521 -0.619656 0)
(-0.113351 -0.636771 0)
(-0.112207 -0.650563 0)
(-0.111094 -0.661272 0)
(-0.110016 -0.66918 0)
(-0.108975 -0.674596 0)
(-0.10797 -0.67784 0)
(-0.107002 -0.679237 0)
(-0.10607 -0.679105 0)
(-0.105171 -0.677752 0)
(-0.104306 -0.675472 0)
(-0.103476 -0.672539 0)
(-0.128155 -0.362828 0)
(-0.127068 -0.405201 0)
(-0.12598 -0.445519 0)
(-0.124819 -0.483268 0)
(-0.123595 -0.518005 0)
(-0.122335 -0.549406 0)
(-0.121063 -0.577263 0)
(-0.119792 -0.60148 0)
(-0.118532 -0.62207 0)
(-0.117291 -0.63914 0)
(-0.116075 -0.652875 0)
(-0.114891 -0.66352 0)
(-0.11374 -0.671359 0)
(-0.112627 -0.676703 0)
(-0.11155 -0.679874 0)
(-0.110512 -0.681199 0)
(-0.109509 -0.680998 0)
(-0.108541 -0.679577 0)
(-0.107607 -0.677232 0)
(-0.106712 -0.674237 0)
(-0.132656 -0.364707 0)
(-0.131529 -0.407317 0)
(-0.130387 -0.447814 0)
(-0.129166 -0.485695 0)
(-0.127879 -0.520521 0)
(-0.126551 -0.551975 0)
(-0.125209 -0.579852 0)
(-0.123866 -0.604064 0)
(-0.122533 -0.624627 0)
(-0.121217 -0.641654 0)
(-0.119926 -0.655335 0)
(-0.118665 -0.665915 0)
(-0.117439 -0.673685 0)
(-0.116249 -0.678956 0)
(-0.115097 -0.682055 0)
(-0.113983 -0.683306 0)
(-0.112906 -0.683032 0)
(-0.111865 -0.681542 0)
(-0.11086 -0.679128 0)
(-0.109894 -0.676067 0)
(-0.137159 -0.366678 0)
(-0.135996 -0.409538 0)
(-0.1348 -0.450225 0)
(-0.133518 -0.488247 0)
(-0.132165 -0.52317 0)
(-0.130767 -0.554683 0)
(-0.129352 -0.582587 0)
(-0.127934 -0.606797 0)
(-0.126523 -0.627337 0)
(-0.125129 -0.644323 0)
(-0.123758 -0.65795 0)
(-0.122417 -0.668467 0)
(-0.121109 -0.676168 0)
(-0.119839 -0.681366 0)
(-0.118607 -0.68439 0)
(-0.117413 -0.685566 0)
(-0.116258 -0.685218 0)
(-0.11514 -0.683655 0)
(-0.114059 -0.68117 0)
(-0.11302 -0.678039 0)
(-0.141695 -0.368741 0)
(-0.140489 -0.411866 0)
(-0.139232 -0.452756 0)
(-0.137883 -0.490929 0)
(-0.136459 -0.525959 0)
(-0.134986 -0.557538 0)
(-0.133494 -0.585473 0)
(-0.131996 -0.609687 0)
(-0.130503 -0.630207 0)
(-0.129025 -0.647155 0)
(-0.127569 -0.660729 0)
(-0.126143 -0.671184 0)
(-0.12475 -0.678816 0)
(-0.123394 -0.68394 0)
(-0.122077 -0.686888 0)
(-0.1208 -0.687987 0)
(-0.119562 -0.687562 0)
(-0.118362 -0.685923 0)
(-0.117201 -0.683363 0)
(-0.116084 -0.680158 0)
(-0.146238 -0.370906 0)
(-0.144992 -0.41431 0)
(-0.143674 -0.455416 0)
(-0.142257 -0.493752 0)
(-0.140758 -0.528897 0)
(-0.139206 -0.560549 0)
(-0.137632 -0.588522 0)
(-0.136049 -0.612744 0)
(-0.134469 -0.633247 0)
(-0.132903 -0.650159 0)
(-0.131357 -0.663683 0)
(-0.129841 -0.674077 0)
(-0.128357 -0.681639 0)
(-0.126911 -0.686689 0)
(-0.125504 -0.689559 0)
(-0.124138 -0.690579 0)
(-0.122812 -0.690075 0)
(-0.121526 -0.688357 0)
(-0.12028 -0.685718 0)
(-0.11908 -0.682435 0)
(-0.150816 -0.373178 0)
(-0.149521 -0.416878 0)
(-0.148134 -0.458212 0)
(-0.146643 -0.496723 0)
(-0.145065 -0.531992 0)
(-0.143429 -0.563725 0)
(-0.141767 -0.591743 0)
(-0.140094 -0.615977 0)
(-0.138422 -0.636468 0)
(-0.136761 -0.653347 0)
(-0.135121 -0.666822 0)
(-0.133508 -0.677155 0)
(-0.131929 -0.684648 0)
(-0.130387 -0.689623 0)
(-0.128885 -0.692414 0)
(-0.127425 -0.693353 0)
(-0.126006 -0.692766 0)
(-0.124628 -0.690965 0)
(-0.123293 -0.688244 0)
(-0.122005 -0.684879 0)
(-0.155403 -0.375563 0)
(-0.154061 -0.419574 0)
(-0.152606 -0.461153 0)
(-0.151038 -0.49985 0)
(-0.149376 -0.535254 0)
(-0.147652 -0.567077 0)
(-0.145897 -0.595146 0)
(-0.144129 -0.619399 0)
(-0.142359 -0.639881 0)
(-0.140599 -0.65673 0)
(-0.138858 -0.670158 0)
(-0.137143 -0.680431 0)
(-0.135462 -0.687854 0)
(-0.133818 -0.692753 0)
(-0.132215 -0.695463 0)
(-0.130655 -0.696318 0)
(-0.129138 -0.695646 0)
(-0.127663 -0.693759 0)
(-0.126233 -0.690951 0)
(-0.124852 -0.687498 0)
(-0.160027 -0.378067 0)
(-0.158629 -0.422409 0)
(-0.157098 -0.464247 0)
(-0.155447 -0.503144 0)
(-0.153695 -0.538694 0)
(-0.151876 -0.570616 0)
(-0.150024 -0.598743 0)
(-0.148154 -0.62302 0)
(-0.14628 -0.643498 0)
(-0.144414 -0.66032 0)
(-0.142565 -0.673703 0)
(-0.140743 -0.683917 0)
(-0.138954 -0.691271 0)
(-0.137202 -0.696092 0)
(-0.135492 -0.698719 0)
(-0.133825 -0.699488 0)
(-0.132203 -0.698727 0)
(-0.130626 -0.69675 0)
(-0.129095 -0.693851 0)
(-0.127616 -0.690305 0)
(-0.164663 -0.380699 0)
(-0.163211 -0.42539 0)
(-0.161602 -0.467504 0)
(-0.159864 -0.506614 0)
(-0.158019 -0.542322 0)
(-0.1561 -0.574353 0)
(-0.154143 -0.602546 0)
(-0.152166 -0.626854 0)
(-0.150182 -0.647332 0)
(-0.148203 -0.664131 0)
(-0.146241 -0.67747 0)
(-0.144304 -0.687626 0)
(-0.142399 -0.69491 0)
(-0.140533 -0.699653 0)
(-0.138708 -0.702196 0)
(-0.136929 -0.702876 0)
(-0.135196 -0.702022 0)
(-0.133509 -0.69995 0)
(-0.131872 -0.696955 0)
(-0.130288 -0.693311 0)
(-0.169339 -0.383467 0)
(-0.167822 -0.428527 0)
(-0.166127 -0.470934 0)
(-0.164295 -0.510273 0)
(-0.162349 -0.546151 0)
(-0.160324 -0.578301 0)
(-0.158256 -0.606569 0)
(-0.156164 -0.630913 0)
(-0.154063 -0.651397 0)
(-0.151964 -0.668175 0)
(-0.149881 -0.681474 0)
(-0.147822 -0.691572 0)
(-0.145795 -0.698786 0)
(-0.143807 -0.70345 0)
(-0.141862 -0.705906 0)
(-0.139963 -0.706494 0)
(-0.138111 -0.705544 0)
(-0.136309 -0.703373 0)
(-0.134558 -0.700275 0)
(-0.132864 -0.696527 0)
(-0.174029 -0.386378 0)
(-0.172446 -0.431828 0)
(-0.170664 -0.474548 0)
(-0.168734 -0.514131 0)
(-0.166682 -0.550192 0)
(-0.164545 -0.582472 0)
(-0.16236 -0.610823 0)
(-0.160146 -0.635211 0)
(-0.15792 -0.655706 0)
(-0.155695 -0.672468 0)
(-0.153483 -0.685728 0)
(-0.151294 -0.695771 0)
(-0.149137 -0.702915 0)
(-0.147019 -0.707498 0)
(-0.144945 -0.709865 0)
(-0.142919 -0.710357 0)
(-0.140943 -0.709307 0)
(-0.139017 -0.707031 0)
(-0.137146 -0.703826 0)
(-0.135334 -0.699966 0)
(-0.178764 -0.389444 0)
(-0.177105 -0.435307 0)
(-0.175225 -0.478358 0)
(-0.173189 -0.518202 0)
(-0.171023 -0.554461 0)
(-0.168765 -0.586882 0)
(-0.166454 -0.615326 0)
(-0.164112 -0.639765 0)
(-0.161753 -0.660277 0)
(-0.159392 -0.677026 0)
(-0.157043 -0.69025 0)
(-0.154716 -0.700238 0)
(-0.152421 -0.707312 0)
(-0.150166 -0.711813 0)
(-0.147955 -0.714088 0)
(-0.145793 -0.714481 0)
(-0.143684 -0.713326 0)
(-0.141628 -0.710939 0)
(-0.139629 -0.70762 0)
(-0.137693 -0.703643 0)
(-0.183516 -0.392673 0)
(-0.18178 -0.438973 0)
(-0.1798 -0.482376 0)
(-0.177654 -0.522499 0)
(-0.175367 -0.55897 0)
(-0.172982 -0.591545 0)
(-0.170538 -0.620091 0)
(-0.168058 -0.64459 0)
(-0.165558 -0.665124 0)
(-0.163053 -0.681865 0)
(-0.160558 -0.695056 0)
(-0.158084 -0.70499 0)
(-0.155642 -0.711994 0)
(-0.15324 -0.716411 0)
(-0.150884 -0.718592 0)
(-0.148578 -0.718882 0)
(-0.146327 -0.717616 0)
(-0.144132 -0.715114 0)
(-0.141997 -0.711674 0)
(-0.139928 -0.707571 0)
(-0.18832 -0.396077 0)
(-0.186492 -0.442839 0)
(-0.184402 -0.486616 0)
(-0.182135 -0.527037 0)
(-0.17972 -0.563736 0)
(-0.177198 -0.596477 0)
(-0.174612 -0.625138 0)
(-0.171985 -0.649704 0)
(-0.169334 -0.670267 0)
(-0.166676 -0.687005 0)
(-0.164025 -0.700166 0)
(-0.161395 -0.710047 0)
(-0.158797 -0.71698 0)
(-0.156238 -0.721312 0)
(-0.153726 -0.723395 0)
(-0.151267 -0.723577 0)
(-0.148865 -0.722197 0)
(-0.146522 -0.719573 0)
(-0.144242 -0.716005 0)
(-0.142032 -0.711768 0)
(-0.193146 -0.399667 0)
(-0.191225 -0.446918 0)
(-0.189022 -0.491093 0)
(-0.186629 -0.531831 0)
(-0.184078 -0.568775 0)
(-0.181411 -0.601697 0)
(-0.178675 -0.630483 0)
(-0.175891 -0.655126 0)
(-0.17308 -0.675725 0)
(-0.170258 -0.692464 0)
(-0.167441 -0.705598 0)
(-0.164644 -0.715428 0)
(-0.161878 -0.72229 0)
(-0.159152 -0.726535 0)
(-0.156474 -0.728517 0)
(-0.153852 -0.728588 0)
(-0.151288 -0.727087 0)
(-0.148787 -0.724334 0)
(-0.146353 -0.72063 0)
(-0.143992 -0.716251 0)
(-0.198031 -0.403455 0)
(-0.196002 -0.451223 0)
(-0.193674 -0.495821 0)
(-0.191145 -0.536898 0)
(-0.188446 -0.574105 0)
(-0.185625 -0.607224 0)
(-0.182726 -0.636147 0)
(-0.179775 -0.660877 0)
(-0.176792 -0.681519 0)
(-0.173795 -0.698265 0)
(-0.170801 -0.711375 0)
(-0.167825 -0.721155 0)
(-0.16488 -0.727946 0)
(-0.161976 -0.732102 0)
(-0.159121 -0.733981 0)
(-0.156324 -0.733935 0)
(-0.153588 -0.732307 0)
(-0.150919 -0.729417 0)
(-0.14832 -0.72557 0)
(-0.145799 -0.721038 0)
(-0.202945 -0.407454 0)
(-0.200804 -0.455772 0)
(-0.198347 -0.500818 0)
(-0.195674 -0.542257 0)
(-0.19282 -0.579747 0)
(-0.189834 -0.613078 0)
(-0.186763 -0.642151 0)
(-0.183633 -0.666979 0)
(-0.180467 -0.687673 0)
(-0.177283 -0.704431 0)
(-0.174099 -0.71752 0)
(-0.170933 -0.727253 0)
(-0.167796 -0.733973 0)
(-0.164701 -0.738037 0)
(-0.161657 -0.739809 0)
(-0.158673 -0.739641 0)
(-0.155753 -0.737879 0)
(-0.152904 -0.734845 0)
(-0.150129 -0.730844 0)
(-0.147438 -0.72615 0)
(-0.207923 -0.41168 0)
(-0.205654 -0.460579 0)
(-0.203054 -0.506103 0)
(-0.200226 -0.547928 0)
(-0.197204 -0.58572 0)
(-0.194041 -0.619281 0)
(-0.190785 -0.64852 0)
(-0.187465 -0.673456 0)
(-0.184102 -0.69421 0)
(-0.180717 -0.710987 0)
(-0.177331 -0.72406 0)
(-0.17396 -0.733746 0)
(-0.170619 -0.740395 0)
(-0.16732 -0.744366 0)
(-0.164074 -0.746026 0)
(-0.16089 -0.745731 0)
(-0.157774 -0.743827 0)
(-0.154733 -0.740641 0)
(-0.151771 -0.736476 0)
(-0.148898 -0.731608 0)
(-0.212937 -0.416146 0)
(-0.210534 -0.465662 0)
(-0.207786 -0.511694 0)
(-0.204794 -0.553931 0)
(-0.201595 -0.592049 0)
(-0.198243 -0.625858 0)
(-0.19479 -0.655277 0)
(-0.191265 -0.680334 0)
(-0.187692 -0.701158 0)
(-0.184094 -0.717961 0)
(-0.18049 -0.731021 0)
(-0.176901 -0.740663 0)
(-0.173341 -0.74724 0)
(-0.169824 -0.751116 0)
(-0.166361 -0.752659 0)
(-0.162964 -0.752231 0)
(-0.159638 -0.750178 0)
(-0.156391 -0.746829 0)
(-0.153228 -0.74249 0)
(-0.150161 -0.737436 0)
(-0.218022 -0.42087 0)
(-0.215468 -0.47104 0)
(-0.212557 -0.517613 0)
(-0.209387 -0.56029 0)
(-0.205997 -0.598758 0)
(-0.202442 -0.632836 0)
(-0.198778 -0.662451 0)
(-0.195034 -0.687642 0)
(-0.191236 -0.708546 0)
(-0.187408 -0.725382 0)
(-0.183572 -0.738434 0)
(-0.179748 -0.748034 0)
(-0.175953 -0.754538 0)
(-0.172203 -0.758315 0)
(-0.168508 -0.759738 0)
(-0.164882 -0.759169 0)
(-0.161332 -0.756959 0)
(-0.157865 -0.753437 0)
(-0.154489 -0.748911 0)
(-0.151213 -0.743658 0)
(-0.223153 -0.425871 0)
(-0.220442 -0.476736 0)
(-0.21736 -0.523883 0)
(-0.214002 -0.567032 0)
(-0.210408 -0.605874 0)
(-0.206637 -0.640241 0)
(-0.202746 -0.670071 0)
(-0.198767 -0.695411 0)
(-0.194727 -0.716405 0)
(-0.190654 -0.733281 0)
(-0.186568 -0.746331 0)
(-0.182494 -0.75589 0)
(-0.178447 -0.762321 0)
(-0.174446 -0.765997 0)
(-0.170503 -0.767294 0)
(-0.166632 -0.766578 0)
(-0.162841 -0.7642 0)
(-0.159139 -0.760494 0)
(-0.155533 -0.755769 0)
(-0.152036 -0.750302 0)
(-0.228363 -0.431167 0)
(-0.225474 -0.482771 0)
(-0.222207 -0.530531 0)
(-0.218644 -0.574181 0)
(-0.214831 -0.613426 0)
(-0.210827 -0.648106 0)
(-0.206693 -0.678169 0)
(-0.202462 -0.703673 0)
(-0.198164 -0.724769 0)
(-0.193826 -0.741694 0)
(-0.189473 -0.754746 0)
(-0.185129 -0.764267 0)
(-0.180813 -0.770625 0)
(-0.176543 -0.774197 0)
(-0.172334 -0.775362 0)
(-0.1682 -0.77449 0)
(-0.164151 -0.771935 0)
(-0.160196 -0.768033 0)
(-0.156345 -0.763095 0)
(-0.15261 -0.757398 0)
(-0.233633 -0.43678 0)
(-0.230557 -0.489168 0)
(-0.227093 -0.537581 0)
(-0.223314 -0.581769 0)
(-0.219266 -0.621446 0)
(-0.215014 -0.656463 0)
(-0.210618 -0.686781 0)
(-0.206117 -0.712464 0)
(-0.201541 -0.733676 0)
(-0.196919 -0.750659 0)
(-0.192279 -0.763719 0)
(-0.187645 -0.773204 0)
(-0.183039 -0.779487 0)
(-0.17848 -0.782952 0)
(-0.173985 -0.783979 0)
(-0.169568 -0.782942 0)
(-0.165242 -0.780199 0)
(-0.161018 -0.776087 0)
(-0.156903 -0.77092 0)
(-0.152913 -0.764977 0)
(-0.238994 -0.442732 0)
(-0.235711 -0.495956 0)
(-0.232032 -0.545065 0)
(-0.228018 -0.589827 0)
(-0.223717 -0.629968 0)
(-0.219196 -0.66535 0)
(-0.21452 -0.695944 0)
(-0.209728 -0.721826 0)
(-0.204853 -0.743166 0)
(-0.199926 -0.760216 0)
(-0.194976 -0.773291 0)
(-0.190031 -0.782743 0)
(-0.185113 -0.788951 0)
(-0.180244 -0.792303 0)
(-0.175441 -0.793186 0)
(-0.170721 -0.791975 0)
(-0.166098 -0.789032 0)
(-0.161583 -0.784696 0)
(-0.157186 -0.779283 0)
(-0.152923 -0.773073 0)
(-0.244427 -0.44905 0)
(-0.240925 -0.503164 0)
(-0.237019 -0.553014 0)
(-0.232754 -0.598391 0)
(-0.228182 -0.63903 0)
(-0.223373 -0.674806 0)
(-0.218396 -0.705701 0)
(-0.213291 -0.7318 0)
(-0.208093 -0.753283 0)
(-0.202838 -0.770412 0)
(-0.197556 -0.783507 0)
(-0.192275 -0.792928 0)
(-0.187022 -0.799061 0)
(-0.181818 -0.802297 0)
(-0.176684 -0.803027 0)
(-0.171639 -0.801632 0)
(-0.166695 -0.798475 0)
(-0.161868 -0.793899 0)
(-0.157167 -0.788222 0)
(-0.152612 -0.781725 0)
(-0.24996 -0.45576 0)
(-0.246217 -0.510822 0)
(-0.242063 -0.561464 0)
(-0.237528 -0.607499 0)
(-0.232664 -0.648673 0)
(-0.227545 -0.684875 0)
(-0.222242 -0.716096 0)
(-0.2168 -0.742433 0)
(-0.211256 -0.764076 0)
(-0.205647 -0.781295 0)
(-0.200006 -0.794417 0)
(-0.194365 -0.803811 0)
(-0.18875 -0.809867 0)
(-0.183186 -0.812982 0)
(-0.177696 -0.813552 0)
(-0.172299 -0.811961 0)
(-0.167012 -0.808575 0)
(-0.161848 -0.803742 0)
(-0.156822 -0.797781 0)
(-0.151951 -0.790974 0)
(-0.255579 -0.462889 0)
(-0.25158 -0.518962 0)
(-0.247164 -0.570451 0)
(-0.242339 -0.617191 0)
(-0.237161 -0.658942 0)
(-0.231708 -0.695603 0)
(-0.226056 -0.727178 0)
(-0.220251 -0.753776 0)
(-0.214333 -0.775596 0)
(-0.208343 -0.792917 0)
(-0.202315 -0.806075 0)
(-0.196285 -0.815444 0)
(-0.19028 -0.821422 0)
(-0.184328 -0.824412 0)
(-0.178454 -0.824812 0)
(-0.172679 -0.823012 0)
(-0.16702 -0.819382 0)
(-0.161495 -0.814272 0)
(-0.156117 -0.808004 0)
(-0.150908 -0.800863 0)
(-0.261315 -0.470472 0)
(-0.257036 -0.527624 0)
(-0.252333 -0.580017 0)
(-0.247194 -0.627513 0)
(-0.241677 -0.669883 0)
(-0.235864 -0.707041 0)
(-0.229834 -0.739002 0)
(-0.223638 -0.765885 0)
(-0.217317 -0.787901 0)
(-0.210915 -0.805338 0)
(-0.20447 -0.81854 0)
(-0.198019 -0.827889 0)
(-0.191594 -0.833787 0)
(-0.185223 -0.836645 0)
(-0.178934 -0.836867 0)
(-0.17275 -0.834844 0)
(-0.166691 -0.830952 0)
(-0.160777 -0.825544 0)
(-0.155021 -0.818945 0)
(-0.149447 -0.811441 0)
(-0.267153 -0.478542 0)
(-0.262578 -0.536846 0)
(-0.257569 -0.590208 0)
(-0.252094 -0.638514 0)
(-0.246211 -0.681551 0)
(-0.240011 -0.719245 0)
(-0.233573 -0.751625 0)
(-0.226954 -0.778821 0)
(-0.220198 -0.801054 0)
(-0.213352 -0.818621 0)
(-0.206456 -0.831876 0)
(-0.199551 -0.841208 0)
(-0.19267 -0.847027 0)
(-0.185847 -0.849747 0)
(-0.179109 -0.849778 0)
(-0.172484 -0.847518 0)
(-0.165993 -0.843344 0)
(-0.159658 -0.837614 0)
(-0.153494 -0.830658 0)
(-0.147528 -0.82276 0)
(-0.273127 -0.487138 0)
(-0.268227 -0.546673 0)
(-0.262885 -0.601071 0)
(-0.257045 -0.650248 0)
(-0.250768 -0.694002 0)
(-0.244147 -0.732277 0)
(-0.23727 -0.765112 0)
(-0.230193 -0.79265 0)
(-0.222967 -0.815123 0)
(-0.215639 -0.832837 0)
(-0.208255 -0.846155 0)
(-0.200859 -0.855474 0)
(-0.193485 -0.861211 0)
(-0.186172 -0.863787 0)
(-0.178949 -0.863617 0)
(-0.171847 -0.861102 0)
(-0.164889 -0.856625 0)
(-0.158099 -0.850548 0)
(-0.151495 -0.843203 0)
(-0.145106 -0.834879 0)
(-0.279224 -0.496299 0)
(-0.273979 -0.557152 0)
(-0.268281 -0.612661 0)
(-0.262048 -0.662772 0)
(-0.255345 -0.7073 0)
(-0.248271 -0.746203 0)
(-0.240918 -0.779533 0)
(-0.233347 -0.807446 0)
(-0.22561 -0.830183 0)
(-0.217762 -0.848063 0)
(-0.20985 -0.861455 0)
(-0.20192 -0.870766 0)
(-0.194014 -0.87642 0)
(-0.18617 -0.878844 0)
(-0.178421 -0.878458 0)
(-0.170802 -0.87567 0)
(-0.163338 -0.870867 0)
(-0.156056 -0.864414 0)
(-0.148976 -0.856648 0)
(-0.14213 -0.847859 0)
(-0.28548 -0.506073 0)
(-0.279858 -0.568336 0)
(-0.273771 -0.625035 0)
(-0.267111 -0.676152 0)
(-0.259947 -0.721515 0)
(-0.252382 -0.761097 0)
(-0.244513 -0.794966 0)
(-0.236405 -0.823289 0)
(-0.228116 -0.846318 0)
(-0.219703 -0.864382 0)
(-0.211218 -0.877861 0)
(-0.20271 -0.88717 0)
(-0.194225 -0.892739 0)
(-0.185805 -0.895003 0)
(-0.177487 -0.894388 0)
(-0.169307 -0.891306 0)
(-0.161295 -0.88615 0)
(-0.15348 -0.879289 0)
(-0.145885 -0.871065 0)
(-0.138544 -0.861771 0)
(-0.291881 -0.516507 0)
(-0.285859 -0.580282 0)
(-0.279355 -0.63826 0)
(-0.272235 -0.690459 0)
(-0.264571 -0.736723 0)
(-0.256474 -0.777041 0)
(-0.248046 -0.811496 0)
(-0.239358 -0.840267 0)
(-0.230469 -0.863618 0)
(-0.221443 -0.881889 0)