/*--------------------------------*- C++ -*----------------------------------*\
  =========                 |
  \\      /  F ield         | OpenFOAM: The Open Source CFD Toolbox
   \\    /   O peration     | Website:  https://openfoam.org
    \\  /    A nd           | Version:  6
     \\/     M anipulation  |
\*---------------------------------------------------------------------------*/
FoamFile
{
    version     2.0;
    format      ascii;
    class       volVectorField;
    location    "10";
    object      U;
}
// * * * * * * * * * * * * * * * * * * * * * * * * * * * * * * * * * * * * * //

dimensions      [0 1 -1 0 0 0 0];

internalField   nonuniform List<vector> 
10000
(
(-0.00866851 -3.4427 0)
(-0.0159585 -4.55375 0)
(-0.0210113 -4.98472 0)
(-0.021682 -5.19342 0)
(-0.0192812 -5.28831 0)
(-0.0161415 -5.32716 0)
(-0.0133567 -5.33984 0)
(-0.0111322 -5.3412 0)
(-0.00930052 -5.33845 0)
(-0.00769687 -5.33488 0)
(-0.00618685 -5.33163 0)
(-0.00462257 -5.32837 0)
(-0.00281638 -5.32334 0)
(-0.000426499 -5.31282 0)
(0.00286679 -5.28955 0)
(0.00718 -5.23951 0)
(0.0115225 -5.13455 0)
(0.0135658 -4.91968 0)
(0.011031 -4.49084 0)
(0.00926008 -3.40601 0)
(-0.00478355 -3.43576 0)
(-0.00634121 -4.54807 0)
(-0.00835868 -4.98794 0)
(-0.00992822 -5.20182 0)
(-0.0100695 -5.29858 0)
(-0.00953849 -5.33706 0)
(-0.00869384 -5.34853 0)
(-0.00777623 -5.34871 0)
(-0.00679751 -5.3451 0)
(-0.00582854 -5.34107 0)
(-0.00485496 -5.33771 0)
(-0.00390503 -5.33473 0)
(-0.0029866 -5.33043 0)
(-0.00199071 -5.32106 0)
(-0.000914993 -5.29905 0)
(0.000257586 -5.2495 0)
(0.00123518 -5.14307 0)
(0.00190896 -4.92338 0)
(0.00052214 -4.48579 0)
(0.00413398 -3.39854 0)
(-0.00749735 -3.42616 0)
(-0.00535548 -4.54071 0)
(-0.00523735 -4.98346 0)
(-0.00544951 -5.19958 0)
(-0.00536704 -5.29773 0)
(-0.00526378 -5.33686 0)
(-0.00514731 -5.34877 0)
(-0.00495198 -5.34928 0)
(-0.00462279 -5.3459 0)
(-0.00419698 -5.34197 0)
(-0.0037224 -5.33862 0)
(-0.00322625 -5.33559 0)
(-0.00275267 -5.33114 0)
(-0.00226257 -5.32151 0)
(-0.00167609 -5.29909 0)
(-0.00104218 -5.24896 0)
(-0.000259708 -5.14194 0)
(0.000825155 -4.92223 0)
(0.000607774 -4.48504 0)
(0.003641 -3.39354 0)
(-0.00537499 -3.41607 0)
(-0.00265902 -4.53644 0)
(-0.00319198 -4.98068 0)
(-0.0026745 -5.19811 0)
(-0.00256462 -5.29684 0)
(-0.00252947 -5.33636 0)
(-0.0026677 -5.34856 0)
(-0.00280842 -5.34934 0)
(-0.00286872 -5.34619 0)
(-0.00282015 -5.34245 0)
(-0.0026945 -5.33925 0)
(-0.00250231 -5.33632 0)
(-0.00228729 -5.33194 0)
(-0.00201926 -5.32234 0)
(-0.00170326 -5.29995 0)
(-0.00142912 -5.24979 0)
(-0.0011957 -5.14292 0)
(-0.000477743 -4.92365 0)
(-0.000912619 -4.48665 0)
(0.000857312 -3.39066 0)
(-0.00176662 -3.41074 0)
(-0.00163817 -4.53523 0)
(-0.00275679 -4.97931 0)
(-0.00262714 -5.19736 0)
(-0.00250198 -5.29595 0)
(-0.00235287 -5.33546 0)
(-0.00233799 -5.34789 0)
(-0.00235222 -5.34898 0)
(-0.00233967 -5.34613 0)
(-0.00223882 -5.34264 0)
(-0.00208288 -5.33963 0)
(-0.00185415 -5.33683 0)
(-0.00157917 -5.33253 0)
(-0.00127619 -5.32292 0)
(-0.000963335 -5.30041 0)
(-0.000753126 -5.25013 0)
(-0.000648847 -5.14327 0)
(-0.000433547 -4.92434 0)
(-0.000718685 -4.48844 0)
(-0.00149029 -3.39051 0)
(-0.000541908 -3.41219 0)
(7.01613e-07 -4.53715 0)
(-0.00209812 -4.98097 0)
(-0.00290017 -5.19891 0)
(-0.0030944 -5.29719 0)
(-0.00303283 -5.33637 0)
(-0.00286389 -5.34867 0)
(-0.00266376 -5.34975 0)
(-0.00245772 -5.34695 0)
(-0.00220961 -5.34354 0)
(-0.00192299 -5.34063 0)
(-0.00158925 -5.33794 0)
(-0.00120369 -5.33374 0)
(-0.00078763 -5.32418 0)
(-0.000403349 -5.30166 0)
(-0.000204336 -5.25134 0)
(-0.000225867 -5.14457 0)
(-0.000639936 -4.92639 0)
(-0.00143042 -4.4917 0)
(-0.00109814 -3.39324 0)
(-0.00241793 -3.41642 0)
(0.000965644 -4.53764 0)
(-0.0014026 -4.98213 0)
(-0.00221442 -5.20026 0)
(-0.00261458 -5.29868 0)
(-0.00270829 -5.33793 0)
(-0.00265297 -5.35014 0)
(-0.00250451 -5.35111 0)
(-0.00233872 -5.34823 0)
(-0.00215154 -5.34478 0)
(-0.00193269 -5.3419 0)
(-0.00167511 -5.33926 0)
(-0.00137379 -5.33513 0)
(-0.00107359 -5.32562 0)
(-0.000822313 -5.3031 0)
(-0.000716139 -5.25264 0)
(-0.000828723 -5.14549 0)
(-0.00127063 -4.92743 0)
(-0.00253898 -4.49334 0)
(0.00116352 -3.39722 0)
(-0.0020703 -3.4171 0)
(0.000548806 -4.53632 0)
(-0.000316967 -4.98169 0)
(-0.000856482 -5.19993 0)
(-0.00131297 -5.29857 0)
(-0.0015726 -5.33812 0)
(-0.00172968 -5.35058 0)
(-0.00181774 -5.35168 0)
(-0.00187227 -5.34887 0)
(-0.00189835 -5.34549 0)
(-0.00189487 -5.34267 0)
(-0.00186091 -5.34009 0)
(-0.001793 -5.33602 0)
(-0.00172648 -5.3266 0)
(-0.00168914 -5.30408 0)
(-0.00168175 -5.25347 0)
(-0.00174746 -5.14612 0)
(-0.00194427 -4.92798 0)
(-0.0028497 -4.49386 0)
(0.000839078 -3.40211 0)
(-0.000491475 -3.41596 0)
(0.000141638 -4.53479 0)
(0.000511549 -4.98048 0)
(9.95474e-05 -5.19835 0)
(-0.000440412 -5.29724 0)
(-0.000902171 -5.33718 0)
(-0.00120375 -5.34996 0)
(-0.00142104 -5.35132 0)
(-0.00161313 -5.3487 0)
(-0.00178947 -5.34545 0)
(-0.0019592 -5.34272 0)
(-0.00212134 -5.3402 0)
(-0.00228336 -5.33619 0)
(-0.0024472 -5.32681 0)
(-0.00259869 -5.30428 0)
(-0.00271753 -5.25364 0)
(-0.00280039 -5.14628 0)
(-0.00270282 -4.92775 0)
(-0.002922 -4.494 0)
(-0.000250496 -3.40665 0)
(0.000105818 -3.41517 0)
(0.000251627 -4.53619 0)
(0.000267573 -4.98115 0)
(2.69593e-05 -5.19799 0)
(-0.000483029 -5.2965 0)
(-0.000888299 -5.33662 0)
(-0.00115141 -5.34957 0)
(-0.00130971 -5.351 0)
(-0.00144813 -5.34841 0)
(-0.00159226 -5.34517 0)
(-0.00177158 -5.34241 0)
(-0.00197772 -5.33986 0)
(-0.00222359 -5.33576 0)
(-0.00247066 -5.32625 0)
(-0.00267276 -5.30359 0)
(-0.0028218 -5.25277 0)
(-0.00289645 -5.14494 0)
(-0.00251142 -4.92587 0)
(-0.00265736 -4.49244 0)
(-0.000940207 -3.40926 0)
(0.000669998 -3.41766 0)
(0.000357434 -4.53757 0)
(0.000493071 -4.98176 0)
(0.00031494 -5.19845 0)
(-0.000141279 -5.29663 0)
(-0.000468453 -5.33673 0)
(-0.00068084 -5.34971 0)
(-0.000778742 -5.3511 0)
(-0.000839854 -5.34843 0)
(-0.000890147 -5.34512 0)
(-0.000950963 -5.3423 0)
(-0.00102545 -5.33968 0)
(-0.00110591 -5.33551 0)
(-0.00117378 -5.32593 0)
(-0.00120555 -5.30321 0)
(-0.00124884 -5.25229 0)
(-0.00134404 -5.14437 0)
(-0.00121694 -4.92528 0)
(-0.00168006 -4.49299 0)
(-0.00323202 -3.41309 0)
(-9.83382e-05 -3.41956 0)
(0.000379426 -4.53876 0)
(0.000696118 -4.98231 0)
(0.000769457 -5.19869 0)
(0.000498563 -5.29696 0)
(0.000277039 -5.33713 0)
(0.000133477 -5.35006 0)
(5.71049e-05 -5.35139 0)
(2.49077e-05 -5.3487 0)
(2.26814e-05 -5.34539 0)
(5.50175e-05 -5.34261 0)
(0.000116856 -5.34004 0)
(0.000210728 -5.33598 0)
(0.000314237 -5.32653 0)
(0.00039564 -5.30397 0)
(0.000350737 -5.25317 0)
(0.000118536 -5.14539 0)
(-0.000267924 -4.92687 0)
(-0.000422543 -4.49583 0)
(-0.00483759 -3.41764 0)
(-0.000205655 -3.42171 0)
(7.04979e-05 -4.53973 0)
(0.00088311 -4.98265 0)
(0.00117022 -5.19884 0)
(0.00112615 -5.29712 0)
(0.00102257 -5.33725 0)
(0.000885201 -5.35022 0)
(0.000767279 -5.35156 0)
(0.000685876 -5.34891 0)
(0.000635043 -5.34567 0)
(0.00063131 -5.343 0)
(0.000669028 -5.34056 0)
(0.000759901 -5.33663 0)
(0.000865865 -5.32726 0)
(0.000917087 -5.3047 0)
(0.000860681 -5.25384 0)
(0.00061964 -5.14592 0)
(0.000135373 -4.92746 0)
(0.000536018 -4.49651 0)
(-0.00398823 -3.4197 0)
(0.000568659 -3.42205 0)
(1.27347e-05 -4.54024 0)
(0.00103265 -4.98253 0)
(0.00121022 -5.19837 0)
(0.00127574 -5.29666 0)
(0.00118962 -5.33695 0)
(0.00107285 -5.35006 0)
(0.000957238 -5.35151 0)
(0.000862348 -5.34893 0)
(0.000791607 -5.34576 0)
(0.000745539 -5.34315 0)
(0.000729768 -5.3408 0)
(0.000753977 -5.33692 0)
(0.000799305 -5.32758 0)
(0.000847032 -5.30494 0)
(0.000861743 -5.25379 0)
(0.000799877 -5.14563 0)
(0.000532963 -4.92727 0)
(0.000490469 -4.49656 0)
(-0.000766089 -3.41947 0)
(0.00147726 -3.4229 0)
(0.000678987 -4.54281 0)
(0.000494947 -4.98398 0)
(0.000191603 -5.19902 0)
(0.000297089 -5.29704 0)
(0.00036113 -5.33721 0)
(0.000456067 -5.35025 0)
(0.000510144 -5.35168 0)
(0.000534815 -5.34909 0)
(0.000542286 -5.34589 0)
(0.000542098 -5.34328 0)
(0.000529016 -5.34093 0)
(0.000527414 -5.33705 0)
(0.000537974 -5.32771 0)
(0.000583283 -5.3051 0)
(0.000642225 -5.25387 0)
(0.000731972 -5.1453 0)
(0.000678651 -4.92659 0)
(0.000535915 -4.49552 0)
(0.000519528 -3.41913 0)
(0.000475488 -3.42339 0)
(0.0012147 -4.5443 0)
(0.000141712 -4.98447 0)
(-0.000176696 -5.19913 0)
(-0.000184028 -5.29747 0)
(-0.000118121 -5.33779 0)
(1.38631e-05 -5.35077 0)
(0.000114873 -5.35211 0)
(0.000203594 -5.34944 0)
(0.000270773 -5.34615 0)
(0.000317368 -5.34348 0)
(0.000351281 -5.34111 0)
(0.000385967 -5.33723 0)
(0.000437642 -5.32792 0)
(0.000551907 -5.30539 0)
(0.000711111 -5.25423 0)
(0.000982549 -5.14526 0)
(0.00105255 -4.92567 0)
(0.00135014 -4.4939 0)
(-0.00034679 -3.41801 0)
(-0.00209997 -3.42414 0)
(0.00162971 -4.54296 0)
(-0.000807802 -4.98325 0)
(-0.00085686 -5.19846 0)
(-0.000719255 -5.29737 0)
(-0.000529659 -5.33793 0)
(-0.000333457 -5.35102 0)
(-0.000184772 -5.35238 0)
(-7.46356e-05 -5.3497 0)
(1.73361e-05 -5.3464 0)
(0.000109206 -5.34374 0)
(0.000211737 -5.34141 0)
(0.000354057 -5.33763 0)
(0.000559681 -5.32854 0)
(0.000865297 -5.3064 0)
(0.00130198 -5.25567 0)
(0.00180116 -5.14687 0)
(0.00173691 -4.92688 0)
(0.00187877 -4.49442 0)
(0.000117044 -3.41776 0)
(-0.00110102 -3.42702 0)
(0.00175975 -4.54159 0)
(-0.000808099 -4.98199 0)
(-0.00117054 -5.19793 0)
(-0.00122057 -5.29735 0)
(-0.00101655 -5.33807 0)
(-0.000777843 -5.35122 0)
(-0.000562846 -5.35258 0)
(-0.000378137 -5.34988 0)
(-0.000220375 -5.34658 0)
(-8.68819e-05 -5.34393 0)
(5.5328e-05 -5.34164 0)
(0.000209433 -5.33797 0)
(0.000401152 -5.32905 0)
(0.000661301 -5.30713 0)
(0.00107384 -5.25676 0)
(0.00151758 -5.14817 0)
(0.00170735 -4.92734 0)
(0.00214814 -4.49321 0)
(0.00102166 -3.4157 0)
(0.000679379 -3.4278 0)
(0.000929028 -4.53923 0)
(-0.000589423 -4.98023 0)
(-0.00132891 -5.19721 0)
(-0.00154525 -5.29716 0)
(-0.00138677 -5.33817 0)
(-0.00111375 -5.35148 0)
(-0.000789523 -5.35293 0)
(-0.000475005 -5.3502 0)
(-0.000185688 -5.34684 0)
(7.43954e-05 -5.34412 0)
(0.000306226 -5.34176 0)
(0.000515846 -5.33798 0)
(0.000709395 -5.32892 0)
(0.000934532 -5.30691 0)
(0.00127531 -5.25649 0)
(0.00178804 -5.1476 0)
(0.0024636 -4.92535 0)
(0.00231871 -4.48951 0)
(0.00208286 -3.40912 0)
(0.000958847 -3.42945 0)
(0.000173578 -4.53668 0)
(-0.000742867 -4.97856 0)
(-0.00148913 -5.19639 0)
(-0.00171719 -5.29693 0)
(-0.00159383 -5.33842 0)
(-0.00127276 -5.352 0)
(-0.000828766 -5.35359 0)
(-0.000353572 -5.35094 0)
(0.000138329 -5.34759 0)
(0.000628462 -5.34484 0)
(0.00111956 -5.34244 0)
(0.00160188 -5.3386 0)
(0.00204868 -5.32945 0)
(0.00247269 -5.30728 0)
(0.0028292 -5.25683 0)
(0.00317768 -5.14812 0)
(0.00341623 -4.92549 0)
(0.00260123 -4.48801 0)
(0.000386522 -3.40461 0)
(0.000835269 -3.43117 0)
(9.00429e-05 -4.53589 0)
(-0.000718511 -4.97808 0)
(-0.00125217 -5.19675 0)
(-0.00152259 -5.29765 0)
(-0.00145779 -5.33932 0)
(-0.00115039 -5.35307 0)
(-0.000666015 -5.3548 0)
(-0.000108719 -5.35224 0)
(0.000493272 -5.34895 0)
(0.00112093 -5.34627 0)
(0.00177004 -5.34392 0)
(0.00243608 -5.34012 0)
(0.00306626 -5.33097 0)
(0.00356841 -5.30882 0)
(0.00387591 -5.25849 0)
(0.00381178 -5.15003 0)
(0.00331435 -4.92748 0)
(0.00315837 -4.48922 0)
(-0.00257174 -3.40292 0)
(-0.000109163 -3.43472 0)
(0.000184267 -4.53528 0)
(-4.47262e-05 -4.97761 0)
(-0.000322334 -5.19714 0)
(-0.000591275 -5.2985 0)
(-0.000657218 -5.34037 0)
(-0.000506502 -5.35429 0)
(-0.00015711 -5.35615 0)
(0.000302397 -5.35369 0)
(0.000818501 -5.35048 0)
(0.00134857 -5.34783 0)
(0.00187607 -5.34547 0)
(0.00237979 -5.34164 0)
(0.0027964 -5.33239 0)
(0.00305087 -5.31 0)
(0.00309263 -5.25935 0)
(0.00278481 -5.15052 0)
(0.0020854 -4.92717 0)
(0.00321635 -4.48841 0)
(-0.00207911 -3.40057 0)
(-0.000768844 -3.43493 0)
(8.59051e-05 -4.53398 0)
(0.000793126 -4.97723 0)
(0.000908173 -5.19681 0)
(0.00069465 -5.29841 0)
(0.000520215 -5.34072 0)
(0.000458427 -5.35497 0)
(0.000577816 -5.35703 0)
(0.000816989 -5.35469 0)
(0.00111107 -5.35153 0)
(0.00142281 -5.34885 0)
(0.00170261 -5.3464 0)
(0.00193058 -5.3424 0)
(0.00204435 -5.33292 0)
(0.00200729 -5.31021 0)
(0.00183884 -5.25905 0)
(0.00157613 -5.14935 0)
(0.00111354 -4.92533 0)
(0.00217403 -4.48633 0)
(0.00155019 -3.39709 0)
(-3.7831e-05 -3.43369 0)
(-0.000314776 -4.53454 0)
(0.00098527 -4.97724 0)
(0.00125302 -5.1964 0)
(0.00137853 -5.29802 0)
(0.00129246 -5.3405 0)
(0.00117685 -5.35496 0)
(0.00112172 -5.35718 0)
(0.00114123 -5.35495 0)
(0.00120444 -5.35183 0)
(0.0012712 -5.34914 0)
(0.00131017 -5.34661 0)
(0.00129372 -5.3425 0)
(0.00120376 -5.33289 0)
(0.00106067 -5.30999 0)
(0.000919289 -5.25866 0)
(0.000817134 -5.149 0)
(0.000720205 -4.92507 0)
(0.000732503 -4.48598 0)
(0.00350545 -3.39499 0)
(0.00151632 -3.43427 0)
(-0.000264219 -4.53512 0)
(0.00112451 -4.97714 0)
(0.00145797 -5.19581 0)
(0.00165837 -5.29735 0)
(0.001546 -5.33985 0)
(0.00136802 -5.35436 0)
(0.00117913 -5.35668 0)
(0.00103705 -5.35452 0)
(0.000917245 -5.35144 0)
(0.000790642 -5.34873 0)
(0.000628974 -5.34616 0)
(0.000411414 -5.342 0)
(0.00016842 -5.33236 0)
(-8.12138e-05 -5.30947 0)
(-0.000261624 -5.2582 0)
(-0.000280223 -5.14871 0)
(-5.14406e-05 -4.92517 0)
(0.000155785 -4.48636 0)
(0.00314855 -3.3929 0)
(0.00150468 -3.43345 0)
(0.000876291 -4.53644 0)
(0.000760065 -4.9771 0)
(0.000962327 -5.1952 0)
(0.0010155 -5.29656 0)
(0.000904692 -5.33904 0)
(0.000743115 -5.35363 0)
(0.000565643 -5.35604 0)
(0.000423864 -5.35393 0)
(0.000299111 -5.35086 0)
(0.000164664 -5.34811 0)
(-9.64517e-07 -5.34548 0)
(-0.000224344 -5.34128 0)
(-0.000452143 -5.3316 0)
(-0.000663892 -5.30871 0)
(-0.000810066 -5.25746 0)
(-0.000808287 -5.14808 0)
(-0.000616366 -4.92471 0)
(6.80188e-05 -4.48577 0)
(0.00181307 -3.39137 0)
(0.000149013 -3.43448 0)
(0.00182009 -4.53709 0)
(-0.000108099 -4.97677 0)
(-0.000230749 -5.19494 0)
(-0.000305589 -5.29622 0)
(-0.000347758 -5.33875 0)
(-0.000385924 -5.3534 0)
(-0.000400084 -5.35586 0)
(-0.000391919 -5.35377 0)
(-0.00036853 -5.35067 0)
(-0.000344775 -5.34786 0)
(-0.000339232 -5.34516 0)
(-0.000368887 -5.34088 0)
(-0.000400299 -5.33113 0)
(-0.000421169 -5.30819 0)
(-0.000426709 -5.25689 0)
(-0.000435156 -5.1476 0)
(-0.000600882 -4.92463 0)
(-6.27011e-05 -4.48604 0)
(0.00062765 -3.38986 0)
(0.00276964 -3.43718 0)
(0.0011209 -4.53785 0)
(-0.000398804 -4.97704 0)
(-0.00100071 -5.19498 0)
(-0.00134811 -5.29619 0)
(-0.0014498 -5.33884 0)
(-0.00137862 -5.35366 0)
(-0.00123366 -5.35623 0)
(-0.00105118 -5.35419 0)
(-0.000844014 -5.3511 0)
(-0.00062272 -5.34827 0)
(-0.000388333 -5.34554 0)
(-0.000165227 -5.3412 0)
(6.25987e-05 -5.33142 0)
(0.000263163 -5.30844 0)
(0.000367909 -5.257 0)
(0.000345196 -5.14765 0)
(-1.38688e-05 -4.92487 0)
(-0.000379663 -4.48632 0)
(0.000557206 -3.39027 0)
(0.00333854 -3.43863 0)
(7.21697e-05 -4.53832 0)
(0.000281504 -4.9768 0)
(-0.000719433 -5.19458 0)
(-0.0013464 -5.296 0)
(-0.00169716 -5.33894 0)
(-0.00177914 -5.35403 0)
(-0.00167673 -5.35681 0)
(-0.00147348 -5.35492 0)
(-0.00120312 -5.35194 0)
(-0.000881618 -5.34921 0)
(-0.000513648 -5.34654 0)
(-0.000108439 -5.34225 0)
(0.000300305 -5.33247 0)
(0.000653986 -5.30949 0)
(0.000840667 -5.25798 0)
(0.00076222 -5.14854 0)
(0.000251275 -4.9259 0)
(-0.000805239 -4.48774 0)
(2.67143e-05 -3.39297 0)
(0.00198411 -3.44158 0)
(-0.000162722 -4.53693 0)
(0.00067171 -4.97557 0)
(-0.000390569 -5.19337 0)
(-0.001072 -5.29516 0)
(-0.00156472 -5.33859 0)
(-0.00179997 -5.3541 0)
(-0.0018387 -5.3572 0)
(-0.00174805 -5.35556 0)
(-0.00155795 -5.35278 0)
(-0.00129281 -5.3502 0)
(-0.000970741 -5.34764 0)
(-0.000613502 -5.34341 0)
(-0.000270263 -5.33366 0)
(-1.61747e-05 -5.31062 0)
(9.19989e-05 -5.25899 0)
(-6.01101e-05 -5.14932 0)
(-0.000539177 -4.92637 0)
(-0.00092842 -4.48785 0)
(-1.79291e-05 -3.39587 0)
(0.000297658 -3.44116 0)
(0.000375912 -4.53703 0)
(0.000753803 -4.97444 0)
(4.34156e-05 -5.19164 0)
(-0.000701497 -5.29369 0)
(-0.00125917 -5.33764 0)
(-0.00162092 -5.3536 0)
(-0.00181632 -5.35708 0)
(-0.00189011 -5.35574 0)
(-0.00186405 -5.3532 0)
(-0.00176222 -5.3508 0)
(-0.00161023 -5.34837 0)
(-0.00143188 -5.3442 0)
(-0.00127531 -5.33443 0)
(-0.00116349 -5.31131 0)
(-0.00110599 -5.25956 0)
(-0.00114387 -5.14972 0)
(-0.00119235 -4.92649 0)
(-0.00138045 -4.48811 0)
(0.00151706 -3.39786 0)
(-0.00235156 -3.44123 0)
(0.00131506 -4.53673 0)
(0.000563103 -4.97265 0)
(0.000169639 -5.18972 0)
(-0.00057698 -5.29215 0)
(-0.001142 -5.3365 0)
(-0.00154495 -5.35286 0)
(-0.00180519 -5.35666 0)
(-0.00195659 -5.35556 0)
(-0.00203918 -5.35319 0)
(-0.00207945 -5.35092 0)
(-0.0020948 -5.34854 0)
(-0.00213017 -5.34436 0)
(-0.00219302 -5.33454 0)
(-0.00226344 -5.31137 0)
(-0.00228069 -5.25957 0)
(-0.00226533 -5.14953 0)
(-0.00189996 -4.92609 0)
(-0.00165544 -4.48779 0)
(0.00172664 -3.3999 0)
(-0.00107842 -3.44451 0)
(0.00181825 -4.53905 0)
(0.000731808 -4.97347 0)
(-3.3472e-05 -5.18987 0)
(-0.000683639 -5.29209 0)
(-0.00111039 -5.33634 0)
(-0.00139336 -5.3527 0)
(-0.00156598 -5.3565 0)
(-0.00168025 -5.3554 0)
(-0.00177136 -5.35301 0)
(-0.00186118 -5.35066 0)
(-0.00196883 -5.34816 0)
(-0.00211778 -5.34383 0)
(-0.00229858 -5.33379 0)
(-0.00246998 -5.31035 0)
(-0.00251973 -5.25832 0)
(-0.00247225 -5.14811 0)
(-0.00203444 -4.92436 0)
(-0.00123661 -4.48664 0)
(-0.000137696 -3.39926 0)
(-4.77936e-05 -3.44779 0)
(0.00160151 -4.5394 0)
(0.00153489 -4.97298 0)
(0.000950589 -5.18946 0)
(0.000450778 -5.29194 0)
(9.02578e-05 -5.33625 0)
(-0.000214696 -5.35256 0)
(-0.000450281 -5.3563 0)
(-0.000611282 -5.35515 0)
(-0.000731264 -5.3527 0)
(-0.00082799 -5.35031 0)
(-0.000919358 -5.34776 0)
(-0.00102345 -5.34333 0)
(-0.00111591 -5.33316 0)
(-0.00118584 -5.30962 0)
(-0.0012105 -5.25767 0)
(-0.00109395 -5.1477 0)
(-0.000958496 -4.92426 0)
(-0.00163359 -4.48787 0)
(-0.000511171 -3.39973 0)
(-0.00230938 -3.44662 0)
(0.00230915 -4.53701 0)
(0.00126305 -4.96991 0)
(0.00138288 -5.18669 0)
(0.00120237 -5.28981 0)
(0.0010037 -5.3347 0)
(0.000756652 -5.35144 0)
(0.000511855 -5.35548 0)
(0.000319821 -5.35458 0)
(0.000194618 -5.35233 0)
(0.000125122 -5.35012 0)
(0.000111562 -5.34775 0)
(0.000134507 -5.3435 0)
(0.000191044 -5.33352 0)
(0.000230612 -5.31019 0)
(0.000195231 -5.25846 0)
(0.000130421 -5.14883 0)
(-4.14535e-05 -4.92597 0)
(-0.00178971 -4.49001 0)
(-0.00035324 -3.4034 0)
(-0.00183477 -3.44789 0)
(0.00308895 -4.53699 0)
(0.000550229 -4.96876 0)
(0.000374731 -5.18542 0)
(0.000211837 -5.28865 0)
(0.000166572 -5.33374 0)
(0.000172347 -5.35071 0)
(0.000164737 -5.35501 0)
(0.000168267 -5.35431 0)
(0.000197393 -5.35226 0)
(0.000251837 -5.35022 0)
(0.000336089 -5.348 0)
(0.000438894 -5.3439 0)
(0.000558769 -5.33402 0)
(0.000592008 -5.31063 0)
(0.000517724 -5.25871 0)
(0.000319077 -5.14917 0)
(0.000175162 -4.92668 0)
(-0.00104014 -4.49008 0)
(-0.000775603 -3.40472 0)
(0.00171024 -3.45314 0)
(0.00241733 -4.53867 0)
(0.000107616 -4.9696 0)
(-0.00067818 -5.18622 0)
(-0.000972979 -5.28951 0)
(-0.000978237 -5.33459 0)
(-0.000790158 -5.35148 0)
(-0.000556411 -5.35567 0)
(-0.000336146 -5.35486 0)
(-0.000140814 -5.35274 0)
(3.59997e-05 -5.35063 0)
(0.000199349 -5.34835 0)
(0.000359619 -5.34418 0)
(0.000479013 -5.33419 0)
(0.000529167 -5.31056 0)
(0.000473862 -5.25832 0)
(0.000357954 -5.14875 0)
(0.000355815 -4.92638 0)
(-0.000649298 -4.48933 0)
(-0.000909063 -3.40494 0)
(0.0021899 -3.45791 0)
(0.00141366 -4.53825 0)
(-1.34137e-05 -4.96928 0)
(-0.000607542 -5.18635 0)
(-0.000908512 -5.29027 0)
(-0.000971143 -5.3356 0)
(-0.000850661 -5.35252 0)
(-0.000647712 -5.3566 0)
(-0.000422155 -5.35567 0)
(-0.000210119 -5.35342 0)
(-1.23737e-05 -5.3512 0)
(0.000155831 -5.3488 0)
(0.000295082 -5.3445 0)
(0.000384108 -5.33439 0)
(0.000397038 -5.31066 0)
(0.000305898 -5.25824 0)
(0.000196096 -5.14839 0)
(0.000305343 -4.9263 0)
(-0.000376472 -4.48949 0)
(-0.00150447 -3.4057 0)
(0.00185562 -3.46063 0)
(0.000384816 -4.53616 0)
(-0.000168805 -4.96815 0)
(-0.000364043 -5.18607 0)
(-0.000490964 -5.29051 0)
(-0.00052462 -5.33605 0)
(-0.000509876 -5.35301 0)
(-0.00044198 -5.35709 0)
(-0.000339614 -5.35616 0)
(-0.00021938 -5.35387 0)
(-0.000106432 -5.35158 0)
(-1.26511e-05 -5.34909 0)
(6.48431e-05 -5.34469 0)
(9.34134e-05 -5.33449 0)
(6.71966e-05 -5.31066 0)
(-9.60174e-06 -5.25815 0)
(-0.000123361 -5.14822 0)
(6.12373e-05 -4.92622 0)
(8.37407e-05 -4.48952 0)
(-0.00243593 -3.40629 0)
(0.002635 -3.46198 0)
(-0.00114569 -4.53355 0)
(-0.00043778 -4.96632 0)
(-0.000286811 -5.18519 0)
(-0.000230538 -5.29004 0)
(-0.000204536 -5.33574 0)
(-0.000265214 -5.35282 0)
(-0.00034016 -5.35701 0)
(-0.000376032 -5.35615 0)
(-0.000369673 -5.35388 0)
(-0.000341234 -5.35156 0)
(-0.000321464 -5.34902 0)
(-0.000314582 -5.34455 0)
(-0.000321465 -5.33426 0)
(-0.000356197 -5.31034 0)
(-0.000346938 -5.25767 0)
(-0.000259434 -5.14762 0)
(-3.13262e-05 -4.92564 0)
(0.000773297 -4.48865 0)
(-0.00221696 -3.40468 0)
(0.0032061 -3.45929 0)
(-0.00262632 -4.53075 0)
(-0.00107795 -4.96424 0)
(-0.000739241 -5.18385 0)
(-0.00060493 -5.28894 0)
(-0.00056638 -5.33476 0)
(-0.000639363 -5.35206 0)
(-0.000728957 -5.35649 0)
(-0.000783259 -5.35582 0)
(-0.00078145 -5.35368 0)
(-0.000737197 -5.35143 0)
(-0.000666751 -5.3489 0)
(-0.000583555 -5.34441 0)
(-0.000517587 -5.33407 0)
(-0.000433424 -5.31006 0)
(-0.000279185 -5.25731 0)
(8.09451e-05 -5.14702 0)
(0.000414945 -4.92423 0)
(0.00144314 -4.48638 0)
(-0.00220792 -3.40408 0)
(0.00226261 -3.45551 0)
(-0.00306422 -4.5321 0)
(-0.00225769 -4.96502 0)
(-0.0022122 -5.18432 0)
(-0.00201676 -5.28899 0)
(-0.00185409 -5.33452 0)
(-0.00174138 -5.35181 0)
(-0.00165748 -5.35635 0)
(-0.00156289 -5.35583 0)
(-0.00142769 -5.35384 0)
(-0.00123488 -5.35172 0)
(-0.000995278 -5.34931 0)
(-0.000711659 -5.34493 0)
(-0.000398777 -5.33473 0)
(-6.47293e-05 -5.31102 0)
(0.000287074 -5.2588 0)
(0.000789501 -5.14893 0)
(0.00114296 -4.926 0)
(0.00143984 -4.48785 0)
(-0.0025034 -3.40443 0)
(0.00126949 -3.45235 0)
(-0.00345512 -4.53341 0)
(-0.00235578 -4.9667 0)
(-0.00253995 -5.18557 0)
(-0.00246078 -5.28986 0)
(-0.00239825 -5.33509 0)
(-0.0023006 -5.35224 0)
(-0.00219205 -5.35677 0)
(-0.00205822 -5.35629 0)
(-0.00190279 -5.35438 0)
(-0.00171781 -5.35239 0)
(-0.00148351 -5.35013 0)
(-0.00120674 -5.34594 0)
(-0.00090446 -5.33597 0)
(-0.000595016 -5.31256 0)
(-0.000240689 -5.26076 0)
(8.24101e-05 -5.15148 0)
(0.000398339 -4.92906 0)
(0.00173339 -4.49083 0)
(-0.00197223 -3.40486 0)
(-0.000891279 -3.4484 0)
(-0.00315807 -4.53329 0)
(-0.00203656 -4.96748 0)
(-0.00216712 -5.18632 0)
(-0.00207183 -5.29045 0)
(-0.00206967 -5.3356 0)
(-0.0020456 -5.35264 0)
(-0.00201083 -5.35711 0)
(-0.00195596 -5.35661 0)
(-0.00189132 -5.35473 0)
(-0.0018119 -5.35275 0)
(-0.00173003 -5.3505 0)
(-0.00166438 -5.34629 0)
(-0.00158683 -5.33626 0)
(-0.00151812 -5.31274 0)
(-0.00134539 -5.26082 0)
(-0.00108803 -5.15156 0)
(-0.000524653 -4.92914 0)
(0.00153056 -4.49071 0)
(0.000975871 -3.40029 0)
(-0.00221904 -3.44537 0)
(-0.00246605 -4.53236 0)
(-0.00116855 -4.96793 0)
(-0.00120942 -5.18678 0)
(-0.0011348 -5.29065 0)
(-0.00114912 -5.33571 0)
(-0.00121205 -5.35266 0)
(-0.00125644 -5.35707 0)
(-0.0012731 -5.35656 0)
(-0.00126112 -5.35466 0)
(-0.00123246 -5.35264 0)
(-0.00120177 -5.35029 0)
(-0.00118381 -5.34591 0)
(-0.00118211 -5.33569 0)
(-0.00114164 -5.31196 0)
(-0.00102358 -5.25983 0)
(-0.000800105 -5.15037 0)
(-0.000176986 -4.92784 0)
(0.000408046 -4.48941 0)
(0.00251247 -3.39574 0)
(-0.00241398 -3.44091 0)
(-0.00183692 -4.53051 0)
(-0.000410447 -4.96674 0)
(-0.000276276 -5.18591 0)
(-0.000174638 -5.2899 0)
(-0.000229853 -5.3351 0)
(-0.000328333 -5.35215 0)
(-0.000387692 -5.35668 0)
(-0.000390298 -5.35628 0)
(-0.000338838 -5.35447 0)
(-0.000239135 -5.35252 0)
(-0.00010476 -5.35019 0)
(4.47744e-05 -5.3458 0)
(0.000207554 -5.33552 0)
(0.000370256 -5.31172 0)
(0.000466947 -5.25962 0)
(0.000560046 -5.15024 0)
(0.000631822 -4.92787 0)
(-0.000167415 -4.49016 0)
(0.000267604 -3.39371 0)
(-0.00226368 -3.43742 0)
(-0.000667028 -4.52976 0)
(-0.000674142 -4.96642 0)
(-0.000388476 -5.18533 0)
(-0.00017721 -5.28913 0)
(-0.000142972 -5.33443 0)
(-0.000124318 -5.35167 0)
(-5.57997e-05 -5.3564 0)
(5.54182e-05 -5.35621 0)
(0.000223151 -5.3546 0)
(0.000435619 -5.35283 0)
(0.000718385 -5.35067 0)
(0.00104802 -5.34641 0)
(0.00137124 -5.3362 0)
(0.00163338 -5.31246 0)
(0.00166317 -5.26035 0)
(0.00141339 -5.15077 0)
(0.000737727 -4.92887 0)
(-0.00024463 -4.49201 0)
(-0.00185053 -3.39494 0)
(-0.00140673 -3.43593 0)
(0.000235366 -4.53122 0)
(-0.000631671 -4.9675 0)
(-0.000486058 -5.18575 0)
(-0.000440687 -5.2892 0)
(-0.000413081 -5.33453 0)
(-0.000309464 -5.35187 0)
(-0.000142916 -5.35672 0)
(6.86686e-05 -5.35666 0)
(0.000312596 -5.35518 0)
(0.000592469 -5.35352 0)
(0.000895846 -5.35146 0)
(0.0012083 -5.34726 0)
(0.00149086 -5.33703 0)
(0.001622 -5.3131 0)
(0.0015259 -5.26065 0)
(0.00105344 -5.15075 0)
(0.000138463 -4.9286 0)
(-0.000284569 -4.49215 0)
(-0.000663316 -3.39632 0)
(-0.000212852 -3.43709 0)
(0.000612425 -4.5321 0)
(-1.60175e-05 -4.96894 0)
(-0.000105781 -5.18698 0)
(-0.000324193 -5.29023 0)
(-0.000367555 -5.33538 0)
(-0.000260559 -5.35264 0)
(-7.35146e-05 -5.35743 0)
(0.000132962 -5.35732 0)
(0.00033245 -5.35581 0)
(0.000511203 -5.35412 0)
(0.000671012 -5.35202 0)
(0.000806216 -5.34775 0)
(0.000868133 -5.33739 0)
(0.000834264 -5.3132 0)
(0.000643561 -5.26037 0)
(0.000239924 -5.15006 0)
(-0.000567072 -4.92768 0)
(-0.000501083 -4.49124 0)
(0.00090068 -3.39857 0)
(0.000941965 -3.43711 0)
(-3.0268e-05 -4.53226 0)
(0.000842603 -4.969 0)
(0.000929186 -5.18699 0)
(0.000748665 -5.2903 0)
(0.000623089 -5.33562 0)
(0.00057218 -5.35293 0)
(0.000570314 -5.35768 0)
(0.000579487 -5.3575 0)
(0.000564533 -5.35588 0)
(0.000514142 -5.35409 0)
(0.000396304 -5.35186 0)
(0.000209829 -5.34745 0)
(-3.08388e-05 -5.33696 0)
(-0.000330905 -5.31263 0)
(-0.000645978 -5.25951 0)
(-0.000980575 -5.14879 0)
(-0.00147397 -4.92626 0)
(-0.000806011 -4.49025 0)
(-0.000221129 -3.40074 0)
(-0.000761169 -3.436 0)
(0.000697231 -4.53082 0)
(0.00118281 -4.96661 0)
(0.00154499 -5.18466 0)
(0.00158586 -5.28863 0)
(0.00149755 -5.33441 0)
(0.00136172 -5.35201 0)
(0.00119899 -5.35691 0)
(0.00102012 -5.35676 0)
(0.000807345 -5.35511 0)
(0.000538624 -5.3532 0)
(0.000207614 -5.35081 0)
(-0.000204036 -5.34621 0)
(-0.000677206 -5.33553 0)
(-0.00109763 -5.311 0)
(-0.00141452 -5.25764 0)
(-0.00157246 -5.14654 0)
(-0.0015154 -4.92374 0)
(-0.00134501 -4.4886 0)
(0.0015128 -3.39923 0)
(-0.00102605 -3.43659 0)
(0.00237658 -4.53241 0)
(0.00104332 -4.96648 0)
(0.00121506 -5.18396 0)
(0.00109632 -5.28798 0)
(0.00105854 -5.33378 0)
(0.00104044 -5.35141 0)
(0.00099757 -5.35632 0)
(0.00092078 -5.35614 0)
(0.000792591 -5.35438 0)
(0.000612433 -5.35233 0)
(0.000352455 -5.34977 0)
(8.01578e-06 -5.34497 0)
(-0.00036217 -5.33411 0)
(-0.000678598 -5.30959 0)
(-0.000910895 -5.25638 0)
(-0.000896576 -5.14519 0)
(-0.000724888 -4.92208 0)
(-0.00183569 -4.48701 0)
(0.00212943 -3.40069 0)
(0.00215474 -3.44168 0)
(0.0022598 -4.5356 0)
(0.00107269 -4.96814 0)
(0.000917208 -5.18535 0)
(0.00064542 -5.28931 0)
(0.000604129 -5.33486 0)
(0.00064954 -5.35219 0)
(0.000711294 -5.35682 0)
(0.000746536 -5.35639 0)
(0.000739569 -5.35444 0)
(0.000680915 -5.35224 0)
(0.000585052 -5.34956 0)
(0.000442747 -5.34471 0)
(0.000255606 -5.33387 0)
(7.93459e-05 -5.30953 0)
(-0.000104388 -5.25673 0)
(-0.000181589 -5.14593 0)
(-0.000350024 -4.92293 0)
(-0.00163012 -4.48829 0)
(9.80478e-05 -3.40321 0)
(0.00259169 -3.44371 0)
(0.00161764 -4.53582 0)
(0.00129785 -4.9673 0)
(0.0012687 -5.18474 0)
(0.00125054 -5.28927 0)
(0.00120645 -5.33507 0)
(0.00110506 -5.35245 0)
(0.000968803 -5.35702 0)
(0.000822272 -5.3565 0)
(0.000665833 -5.35448 0)
(0.000513643 -5.35227 0)
(0.000348544 -5.34963 0)
(0.000187479 -5.34487 0)
(5.43514e-05 -5.33418 0)
(-7.31821e-05 -5.31013 0)
(-0.000175828 -5.25776 0)
(-0.000160137 -5.14753 0)
(-0.000412541 -4.92494 0)
(-0.00117604 -4.48972 0)
(-4.80592e-05 -3.4074 0)
(0.000688564 -3.44346 0)
(0.00190285 -4.53298 0)
(0.000682207 -4.96438 0)
(0.000878917 -5.18236 0)
(0.00111404 -5.28752 0)
(0.00115157 -5.33373 0)
(0.00100781 -5.35137 0)
(0.000743593 -5.35612 0)
(0.000427113 -5.35572 0)
(8.67636e-05 -5.35377 0)
(-0.00027298 -5.35162 0)
(-0.000630089 -5.34904 0)
(-0.000979768 -5.34436 0)
(-0.00130942 -5.33383 0)
(-0.00160302 -5.30998 0)
(-0.00174365 -5.25789 0)
(-0.00171175 -5.14814 0)
(-0.0013022 -4.92568 0)
(-0.000719246 -4.48915 0)
(0.0002326 -3.40992 0)
(0.00360076 -3.44735 0)
(0.00155039 -4.53307 0)
(-0.00020225 -4.96395 0)
(-0.000507827 -5.18218 0)
(-0.000410543 -5.28722 0)
(-0.000297489 -5.33326 0)
(-0.000292234 -5.35075 0)
(-0.000401365 -5.3554 0)
(-0.000608716 -5.35492 0)
(-0.000892315 -5.35289 0)
(-0.00123742 -5.35062 0)
(-0.00163992 -5.34794 0)
(-0.00208591 -5.34314 0)
(-0.00251407 -5.33252 0)
(-0.00288791 -5.30859 0)
(-0.00300505 -5.25658 0)
(-0.0027687 -5.1473 0)
(-0.00157148 -4.92504 0)
(-9.57572e-05 -4.48807 0)
(5.24154e-06 -3.40803 0)
(0.0041396 -3.45087 0)
(0.000271103 -4.53383 0)
(-0.000457089 -4.96439 0)
(-0.00111258 -5.18298 0)
(-0.0011747 -5.28798 0)
(-0.0011278 -5.33376 0)
(-0.00113461 -5.35096 0)
(-0.00119357 -5.35535 0)
(-0.00131126 -5.3546 0)
(-0.00148722 -5.35233 0)
(-0.00172295 -5.34984 0)
(-0.00199111 -5.34695 0)
(-0.00227636 -5.342 0)
(-0.002547 -5.33125 0)
(-0.00269761 -5.30727 0)
(-0.00269701 -5.25549 0)
(-0.00242502 -5.14703 0)
(-0.00138456 -4.92597 0)
(-9.6911e-05 -4.48999 0)
(-0.00187058 -3.40527 0)
(0.00120193 -3.45239 0)
(-0.000286609 -4.5307 0)
(-0.000857549 -4.963 0)
(-0.00117905 -5.18227 0)
(-0.00128932 -5.2876 0)
(-0.00133739 -5.33353 0)
(-0.00141916 -5.35082 0)
(-0.00151314 -5.35521 0)
(-0.00161944 -5.35442 0)
(-0.00173207 -5.35208 0)
(-0.00183199 -5.34952 0)
(-0.00192914 -5.34659 0)
(-0.00199487 -5.34167 0)
(-0.00199023 -5.33103 0)
(-0.00190758 -5.30722 0)
(-0.00184387 -5.25573 0)
(-0.00166193 -5.14796 0)
(-0.00121952 -4.92835 0)
(-0.000408714 -4.49361 0)
(-0.00379619 -3.4046 0)
(0.000312006 -3.45081 0)
(-0.00053082 -4.52957 0)
(-0.00156452 -4.96281 0)
(-0.00166044 -5.18211 0)
(-0.0017776 -5.2872 0)
(-0.00186709 -5.33309 0)
(-0.00199189 -5.35045 0)
(-0.0020936 -5.35491 0)
(-0.00218574 -5.3542 0)
(-0.00225199 -5.35192 0)
(-0.00229717 -5.34944 0)
(-0.0022786 -5.34664 0)
(-0.00216953 -5.34191 0)
(-0.00196938 -5.33154 0)
(-0.00165422 -5.30802 0)
(-0.00141375 -5.25669 0)
(-0.00123621 -5.14915 0)
(-0.00117587 -4.93079 0)
(-0.000633865 -4.49703 0)