/*--------------------------------*- C++ -*----------------------------------*\
  =========                 |
  \\      /  F ield         | OpenFOAM: The Open Source CFD Toolbox
   \\    /   O peration     | Website:  https://openfoam.org
    \\  /    A nd           | Version:  6
     \\/     M anipulation  |
\*---------------------------------------------------------------------------*/
FoamFile
{
    version     2.0;
    format      ascii;
    class       volScalarField;
    location    "26";
    object      epsilon;
}
// * * * * * * * * * * * * * * * * * * * * * * * * * * * * * * * * * * * * * //

dimensions      [0 2 -3 0 0 0 0];

internalField   nonuniform List<scalar> 
130000
(
13.9749
13.7101
13.4451
13.1853
12.9299
12.6789
12.4328
12.1926
11.9597
11.7357
11.5223
11.3211
11.1335
10.9608
10.8039
10.6634
10.5397
10.433
10.343
10.2695
13.9972
13.7325
13.4677
13.2076
12.9517
12.6999
12.4528
12.2116
11.9777
11.7527
11.5383
11.3362
11.1479
10.9746
10.8172
10.6763
10.5524
10.4455
10.3554
10.2817
14.0174
13.7529
13.488
13.2275
12.9709
12.7183
12.4702
12.2279
11.9928
11.7666
11.551
11.3476
11.1581
10.9836
10.8253
10.6838
10.5594
10.4522
10.3621
10.2887
14.0344
13.7699
13.5046
13.2437
12.9864
12.7328
12.4835
12.2398
12.0031
11.7752
11.558
11.3529
11.162
10.9865
10.8274
10.6853
10.5606
10.4533
10.3633
10.2902
14.0469
13.7821
13.5165
13.2549
12.9965
12.7415
12.4907
12.2451
12.0068
11.7776
11.559
11.3528
11.1611
10.985
10.8255
10.6831
10.5582
10.4509
10.361
10.2882
14.0553
13.7897
13.5233
13.2604
13.0005
12.744
12.4917
12.2449
12.0056
11.7756
11.5566
11.3503
11.1584
10.9821
10.8224
10.68
10.5552
10.4481
10.3585
10.286
14.0602
13.7934
13.5255
13.2611
12.9998
12.7422
12.4892
12.242
12.0022
11.7717
11.5524
11.346
11.154
10.9778
10.8182
10.676
10.5515
10.4447
10.3554
10.2833
14.0629
13.7945
13.5249
13.2593
12.9972
12.7388
12.4851
12.2372
11.997
11.7662
11.5467
11.3402
11.1483
10.9723
10.813
10.6711
10.547
10.4407
10.3519
10.2802
14.0648
13.7947
13.5237
13.2569
12.9936
12.7343
12.4797
12.2312
11.9905
11.7594
11.5398
11.3333
11.1416
10.9658
10.8069
10.6655
10.542
10.4362
10.3479
10.2768
14.0666
13.7949
13.5223
13.254
12.9895
12.7291
12.4736
12.2244
11.9832
11.7518
11.532
11.3257
11.1341
10.9587
10.8003
10.6595
10.5365
10.4313
10.3437
10.2733
14.0687
13.7952
13.5211
13.2512
12.9852
12.7236
12.4671
12.2172
11.9754
11.7437
11.5239
11.3176
11.1263
10.9513
10.7934
10.6532
10.5308
10.4264
10.3395
10.2696
14.0712
13.796
13.5203
13.2486
12.9811
12.7182
12.4606
12.2099
11.9675
11.7355
11.5155
11.3093
11.1184
10.9438
10.7864
10.6468
10.5251
10.4214
10.3352
10.2661
14.0742
13.7971
13.5197
13.2463
12.9773
12.713
12.4544
12.2028
11.9598
11.7274
11.5073
11.3012
11.1104
10.9363
10.7794
10.6405
10.5195
10.4165
10.331
10.2627
14.0778
13.7988
13.5194
13.2447
12.9742
12.7085
12.4486
12.1961
11.9525
11.7196
11.4993
11.2933
11.1028
10.929
10.7727
10.6343
10.5141
10.4118
10.3271
10.2594
14.0823
13.8015
13.5203
13.2441
12.972
12.7047
12.4436
12.19
11.9456
11.7123
11.4918
11.2857
11.0954
10.922
10.7662
10.6285
10.5089
10.4073
10.3233
10.2564
14.0877
13.805
13.522
13.2441
12.9706
12.7017
12.4392
12.1846
11.9394
11.7056
11.4848
11.2787
11.0885
10.9154
10.7601
10.623
10.504
10.4031
10.3198
10.2535
14.0942
13.8095
13.5245
13.2446
12.9697
12.6994
12.4357
12.18
11.934
11.6995
11.4784
11.2722
11.0821
10.9094
10.7545
10.6179
10.4995
10.3993
10.3166
10.251
14.1018
13.8152
13.5282
13.2464
12.9696
12.6983
12.4333
12.1763
11.9293
11.6942
11.4727
11.2663
11.0764
10.9038
10.7493
10.6133
10.4955
10.396
10.314
10.2489
14.1107
13.8221
13.5331
13.2493
12.9707
12.6981
12.4318
12.1736
11.9256
11.6898
11.4678
11.2612
11.0712
10.8989
10.7448
10.6093
10.4922
10.3933
10.3122
10.2479
14.1208
13.8303
13.5392
13.2534
12.9728
12.6983
12.4309
12.1716
11.9227
11.6862
11.4637
11.2568
11.0669
10.8947
10.741
10.6059
10.4893
10.3912
10.3108
10.247
14.1323
13.8398
13.5467
13.2588
12.9762
12.6998
12.4309
12.1708
11.921
11.6836
11.4605
11.2534
11.0633
10.8913
10.7378
10.6031
10.4871
10.3893
10.3093
10.246
14.1451
13.8507
13.5555
13.2654
12.9808
12.7026
12.4321
12.171
11.9203
11.6822
11.4585
11.2508
11.0605
10.8885
10.7352
10.6009
10.4853
10.388
10.3083
10.2456
14.1594
13.863
13.5657
13.2735
12.9867
12.7065
12.4341
12.1713
11.9201
11.6814
11.457
11.2489
11.0583
10.8863
10.7331
10.599
10.4837
10.3869
10.3076
10.2447
14.1751
13.8769
13.5774
13.2829
12.9939
12.7116
12.4373
12.1728
11.92
11.6809
11.4558
11.2475
11.0569
10.8848
10.7316
10.5976
10.4826
10.3861
10.3073
10.2444
14.1924
13.8923
13.5906
13.2939
13.0026
12.718
12.4417
12.1755
11.9213
11.6809
11.4558
11.2473
11.0564
10.8841
10.7307
10.5967
10.4817
10.3852
10.3064
10.2436
14.2114
13.9094
13.6055
13.3064
13.0127
12.7259
12.4474
12.1793
11.9234
11.6817
11.4559
11.247
11.056
10.8838
10.7307
10.5968
10.4819
10.3853
10.3062
10.2436
14.2321
13.9283
13.6222
13.3207
13.0245
12.7352
12.4545
12.1844
11.9267
11.6835
11.4563
11.2467
11.0556
10.8839
10.7309
10.5971
10.482
10.3855
10.3066
10.2444
14.2547
13.949
13.6407
13.3367
13.038
12.7463
12.4632
12.1909
11.9313
11.6865
11.458
11.2475
11.0558
10.8834
10.7303
10.5968
10.4819
10.3858
10.3074
10.2459
14.2792
13.9718
13.6613
13.3548
13.0535
12.7591
12.4735
12.1989
11.9373
11.6907
11.4607
11.2489
11.0562
10.8834
10.7302
10.5969
10.4823
10.3864
10.3081
10.2468
14.3059
13.9969
13.6841
13.3751
13.0711
12.774
12.4858
12.2088
11.945
11.6964
11.4648
11.2515
11.0577
10.8841
10.7302
10.5963
10.4818
10.386
10.3078
10.2465
14.3349
14.0243
13.7094
13.3978
13.0911
12.7912
12.5003
12.2208
11.9546
11.704
11.4705
11.2557
11.0604
10.8854
10.7306
10.5961
10.4815
10.3855
10.3073
10.246
14.3664
14.0545
13.7375
13.4233
13.1137
12.811
12.5173
12.2352
11.9666
11.7138
11.4784
11.262
11.0653
10.889
10.7332
10.5979
10.4823
10.3857
10.3072
10.246
14.4008
14.0877
13.7686
13.4519
13.1395
12.8338
12.5372
12.2523
11.9812
11.7262
11.4888
11.2706
11.0725
10.895
10.7382
10.602
10.4856
10.3885
10.3095
10.2479
14.4384
14.1242
13.8032
13.4839
13.1686
12.8599
12.5604
12.2726
11.9988
11.7414
11.502
11.282
11.0824
10.9036
10.7457
10.6086
10.4915
10.3938
10.3143
10.2521
14.4794
14.1644
13.8416
13.5198
13.2016
12.8898
12.5872
12.2964
12.0199
11.76
11.5184
11.2966
11.0953
10.9151
10.7561
10.618
10.5001
10.4017
10.3216
10.2589
14.5244
14.2088
13.8843
13.56
13.2388
12.9239
12.618
12.3242
12.0449
11.7824
11.5384
11.3146
11.1115
10.9299
10.7697
10.6306
10.5118
10.4126
10.3318
10.2684
14.5736
14.2578
13.9317
13.605
13.2808
12.9627
12.6536
12.3565
12.0742
11.8089
11.5625
11.3365
11.1316
10.9484
10.7868
10.6465
10.5267
10.4266
10.345
10.2808
14.6277
14.3119
13.9845
13.6554
13.3282
13.0068
12.6942
12.3939
12.1084
11.8402
11.5912
11.3629
11.156
10.9711
10.8079
10.6663
10.5453
10.4442
10.3616
10.2965
14.6872
14.3718
14.0432
13.7119
13.3817
13.0569
12.7408
12.437
12.1481
11.8769
11.6251
11.3943
11.1852
10.9984
10.8336
10.6905
10.5682
10.4658
10.3821
10.3158
14.7526
14.4381
14.1086
13.7751
13.442
13.1137
12.7939
12.4865
12.1941
11.9197
11.6649
11.4314
11.22
11.0311
10.8644
10.7196
10.5958
10.4921
10.407
10.3394
14.8248
14.5117
14.1816
13.8461
13.51
13.1781
12.8547
12.5434
12.2474
11.9695
11.7115
11.4752
11.2611
11.0699
10.9012
10.7546
10.629
10.5237
10.437
10.3679
14.9044
14.5934
14.2632
13.9258
13.5867
13.2514
12.924
12.6088
12.3089
12.0273
11.766
11.5265
11.3097
11.1159
10.9449
10.7962
10.6687
10.5615
10.473
10.4021
14.9926
14.6844
14.3544
14.0155
13.6736
13.3347
13.0033
12.684
12.3801
12.0946
11.8296
11.5868
11.3669
11.1704
10.9968
10.8458
10.716
10.6067
10.5161
10.4431
15.0903
14.7858
14.4568
14.1166
13.7721
13.4296
13.0942
12.7706
12.4624
12.1729
11.904
11.6577
11.4344
11.2348
11.0584
10.9047
10.7724
10.6606
10.5676
10.4921
15.1989
14.8992
14.5719
14.2309
13.884
13.538
13.1986
12.8706
12.5581
12.2642
11.9912
11.741
11.5141
11.3112
11.1316
10.9748
10.8397
10.725
10.6291
10.5507
15.3199
15.0265
14.7017
14.3606
14.0117
13.6624
13.3189
12.9866
12.6694
12.3711
12.0937
11.8393
11.6086
11.4019
11.2187
11.0586
10.9201
10.8022
10.7029
10.621
15.4552
15.1698
14.8488
14.5084
14.1579
13.8057
13.4583
13.1216
12.7998
12.4967
12.2148
11.956
11.721
11.5102
11.3231
11.1591
11.0168
10.8949
10.7917
10.7056
15.6072
15.3318
15.0163
14.6777
14.3264
13.9718
13.6207
13.2797
12.9533
12.6455
12.3588
12.0953
11.8557
11.6404
11.4489
11.2805
11.1337
11.0072
10.8992
10.808
15.7787
15.516
15.208
14.8727
14.5219
14.1655
13.8115
13.4665
13.1356
12.823
12.5315
12.263
12.0185
11.7983
11.6018
11.4283
11.2762
11.1442
11.0303
10.933
15.9731
15.7268
15.429
15.0993
14.7505
14.3937
14.0375
13.6892
13.3543
13.0372
12.7408
12.4673
12.2175
11.9919
11.7897
11.6103
11.4519
11.3132
11.1921
11.087
16.195
15.9698
15.6862
15.365
15.0206
14.6654
14.3085
13.9582
13.6201
13.299
12.9981
12.7196
12.4643
12.2328
12.0241
11.8377
11.6716
11.5246
11.3944
11.2793
16.4502
16.2525
15.9885
15.6803
15.3441
14.9933
14.6384
14.2879
13.9482
13.6244
13.3197
13.0366
12.7758
12.5377
12.3217
12.1268
11.9513
11.7936
11.6514
11.5232
16.7466
16.5854
16.3486
16.0599
15.7373
15.3958
15.0468
14.6996
14.3612
14.0368
13.73
13.4431
13.177
12.9322
12.7076
12.5025
12.3148
12.1431
11.985
11.8388
17.0944
16.9823
16.7839
16.5244
16.2239
15.8991
15.5625
15.2244
14.892
14.5711
14.2651
13.9766
13.7063
13.4545
13.2202
13.0023
12.7988
12.6081
12.428
12.2567
17.5074
17.4631
17.3195
17.1037
16.8382
16.5418
16.2281
15.9083
15.5902
15.2797
14.9802
14.6942
14.4222
14.1641
13.9187
13.6848
13.4602
13.2434
13.032
12.8245
18.0074
18.0563
17.9912
17.8406
17.63
17.3801
17.106
16.8199
16.5297
16.2415
15.9586
15.6828
15.4142
15.1522
14.8949
14.641
14.3879
14.1341
13.8774
13.6168
18.628
18.8001
18.8495
18.7966
18.6708
18.4955
18.2874
18.0593
17.8195
17.5739
17.3247
17.0732
16.818
16.5577
16.2894
16.0108
15.7192
15.413
15.0901
14.7504
19.4059
19.7621
19.9654
20.0585
20.0617
20.0039
19.9022
19.7703
19.6167
19.4462
19.2594
19.0561
18.8327
18.586
18.311
18.0042
17.6617
17.2816
16.8625
16.4051
20.3927
21.0116
21.4538
21.7465
21.939
22.0658
22.1297
22.1503
22.1374
22.0919
22.012
21.8952
21.7348
21.5238
21.2539
20.9187
20.5123
20.0322
19.4768
18.8483
21.6653
22.652
23.4332
24.04
24.5176
24.9
25.2043
25.4486
25.6592
25.8078
25.8958
25.9199
25.8699
25.7311
25.4894
25.1344
24.6561
24.0498
23.3126
22.4477
23.3183
24.8171
26.0755
27.1213
28.0052
28.7661
29.4281
30.0076
30.5093
30.9262
31.2452
31.4715
31.599
31.5822
31.4054
31.0528
30.5084
29.7625
28.8075
27.6447
25.4706
27.6695
29.5814
31.2267
32.6625
33.9337
35.0678
36.0815
36.9774
37.7506
38.3865
38.8708
39.1868
39.3427
39.272
38.9572
38.3739
37.5043
36.3303
34.8442
28.268
31.4
34.1759
36.6016
38.742
40.6499
42.357
43.8844
45.2361
46.4101
47.3925
48.1698
48.7197
49.0327
49.1031
48.8637
48.2867
47.3444
46.0023
44.2354
31.8818
36.218
40.0854
43.4684
46.443
49.0755
51.4093
53.4765
55.2887
56.8534
58.1642
59.2149
59.9863
60.4684
60.66
60.5215
59.9934
59.0445
57.6214
55.6755
36.5072
42.3383
47.5131
51.9936
55.8787
59.2629
62.2145
64.788
67.0137
68.9168
70.5035
71.7801
72.7374
73.3716
73.6723
73.6192
73.1605
72.2562
70.8302
68.8131
42.3541
49.9617
56.6157
62.2717
67.0787
71.1833
74.6967
77.7103
80.2816
82.4591
84.2648
85.7198
86.8239
87.5802
87.9722
87.9883
87.6049
86.7691
85.3813
83.358
49.6371
59.2594
67.4959
74.3389
80.0288
84.7918
88.7992
92.1882
95.0484
97.4526
99.4395
101.043
102.27
103.13
103.607
103.687
103.361
102.596
101.255
99.2432
58.5554
70.3597
80.2098
88.2036
94.7166
100.077
104.526
108.249
111.366
113.974
116.126
117.867
119.209
120.165
120.721
120.863
120.592
119.887
118.586
116.578
69.2781
83.3489
94.7895
103.879
111.161
117.078
121.939
125.977
129.342
132.15
134.466
136.345
137.805
138.862
139.5
139.705
139.483
138.831
137.562
135.546
81.9287
98.2781
111.258
121.392
129.408
135.859
141.122
145.472
149.084
152.094
154.577
156.599
158.18
159.342
160.066
160.336
160.164
159.565
158.331
156.307
96.5876
115.177
129.641
140.78
149.508
156.483
162.143
166.801
170.657
173.866
176.515
178.679
180.384
181.654
182.47
182.811
182.694
182.155
180.971
178.956
113.293
134.058
149.954
162.067
171.487
178.97
185.011
189.959
194.042
197.433
200.232
202.527
204.349
205.727
206.64
207.063
207.01
206.545
205.444
203.475
132.054
154.917
172.19
185.237
195.314
203.267
209.645
214.84
219.104
222.631
225.542
227.936
229.854
231.331
232.348
232.875
232.907
232.535
231.558
229.693
152.849
177.713
196.291
210.205
220.865
229.206
235.836
241.185
245.54
249.12
252.067
254.496
256.463
258.014
259.14
259.825
260.003
259.715
258.901
257.217
175.623
202.359
222.125
236.784
247.892
256.475
263.202
268.551
272.844
276.333
279.186
281.54
283.468
285.027
286.219
287.029
287.38
287.285
286.717
285.364
200.27
228.691
249.455
264.652
275.983
284.569
291.148
296.251
300.245
303.422
305.98
308.086
309.835
311.304
312.509
313.445
314.049
314.242
313.978
313.132
226.625
256.449
277.914
293.325
304.532
312.76
318.823
323.316
326.663
329.203
331.174
332.777
334.139
335.362
336.483
337.512
338.386
339.015
339.28
339.114
254.439
285.258
306.981
322.129
332.707
340.054
345.076
348.448
350.659
352.113
353.092
353.834
354.509
355.26
356.152
357.217
358.394
359.633
360.772
361.574
283.384
314.623
335.977
350.19
359.434
365.178
368.443
370.001
370.415
370.205
369.67
369.064
368.636
368.597
369.06
370.027
371.512
373.433
375.676
377.974
313.049
343.937
364.073
376.44
383.4
386.585
387.141
386.021
383.685
380.664
377.539
374.822
372.781
371.665
371.733
372.533
374.21
376.652
380.189
384.442
342.98
372.519
390.323
399.653
403.09
402.547
399.114
393.671
387.57
381.851
376.448
371.825
368.207
365.744
364.355
364.749
366.744
370.624
375.554
381.567
372.726
399.677
413.711
418.445
416.922
410.778
402.162
392.376
382.128
371.715
362.426
354.545
348.415
344.274
342.28
342.437
344.52
348.871
355.474
364.171
401.919
424.728
433.194
431.735
422.936
410.159
394.707
378.374
362.225
347.193
333.923
322.871
314.328
308.517
305.597
305.526
307.873
313.161
321.578
332.996
430.297
447.007
448.133
437.831
420.444
398.321
374.422
350.606
328.218
308.183
291.059
277.165
266.65
259.619
256.163
256.162
259.049
265.533
275.972
290.319
457.75
466.643
457.926
436.274
406.709
373.66
340.195
308.593
280.304
256.113
236.295
220.842
209.606
202.458
199.357
200.04
204.052
212.345
225.324
243.146
484.596
483.501
461.01
424.778
381.11
335.623
292.404
254.026
221.71
195.707
175.657
160.97
151.053
145.495
144.12
146.474
152.684
163.873
180.494
203.68
512.322
497.75
458.19
403.136
342.866
284.837
233.819
191.995
159.568
135.591
118.672
107.484
101.014
98.726
100.495
105.789
115.79
131.529
155.582
189.593
541.14
508.037
445.348
368.628
291.757
224.656
171.438
132.209
104.916
86.8708
75.6569
69.4836
67.2324
68.4345
72.7069
81.212
95.1508
118.049
151.329
197.298
570.671
511.288
419.78
319.79
230.569
161.564
113.6
82.8687
64.253
53.5892
48.1511
46.2513
47.0655
50.3203
56.9103
68.3438
87.5669
118.411
167.914
244.657
599.942
503.111
375.341
253.961
161.565
101.984
67.4244
49.0792
39.7962
35.3383
33.6155
33.9064
36.0138
40.4488
48.34
62.0958
87.303
131.213
212.353
339.902
622.604
470.81
303.797
175.029
97.668
58.981
41.3282
32.9072
28.6818
26.7351
26.3628
27.321
29.7964
34.5231
43.0606
59.0794
91.4294
157.797
288.896
483.76
626.412
401.284
210.493
103.39
58.2134
39.2627
30.2772
25.6143
23.1965
22.1513
22.1337
23.1438
25.5213
30.1345
39.0263
57.4299
99.5642
195.351
389.329
648.54
598.411
298.266
132.847
68.9801
43.0976
31.1858
25.1481
21.8866
20.1213
19.3283
19.3176
20.1742
22.26
26.497
35.1683
54.5204
103.924
227.085
487.247
804.384
564.988
248.194
109.476
57.7181
36.7649
27.1946
22.2765
19.5666
18.0766
17.3864
17.3371
18.0117
19.7452
23.3933
31.1333
49.0985
96.7257
235.229
539.418
942.552
598.301
250.352
104.476
52.7395
33.175
24.4696
20.1429
17.8475
16.6237
16.0554
15.9959
16.5084
17.8598
20.7824
27.1673
42.4887
84.8862
212.934
552.147
1066.79
794.902
290.385
104.159
48.9888
29.8578
22.0026
18.3641
16.563
15.662
15.2779
15.2444
15.5771
16.504
18.5995
23.2951
34.7425
67.3216
174.654
503.537
1134.24
1039.09
322.113
99.9338
43.3263
26.0591
19.6361
16.9069
15.6695
15.1114
14.892
14.8671
15.0446
15.5915
16.9078
20.0088
27.7296
50.1916
129.088
416.939
1144.67
1144.11
287.052
80.166
34.3888
21.7367
17.4378
15.7822
15.1201
14.864
14.7658
14.7559
14.8414
15.1109
15.7412
17.299
21.431
33.6864
78.7621
276.801
977.867
981.272
188.957
51.2134
25.0487
18.3339
16.1063
15.2564
14.9204
14.7958
14.7431
14.7326
14.7579
14.8216
15.0109
15.5192
16.9288
21.3062
38.5832
130.844
606.577
372.301
69.8142
24.5841
16.8205
15.1961
14.8523
14.8073
14.8095
14.8004
14.7998
14.7991
14.7984
14.8058
14.8433
14.9605
15.2991
16.2581
18.9486
30.0483
154.331
10.0777
10.0397
9.99675
9.95685
9.92046
9.88782
9.85914
9.83455
9.81418
9.79811
9.78642
9.77911
9.77611
9.77732
9.78291
9.7928
9.80697
9.82538
9.84801
9.87488
10.0929
10.0543
10.0112
9.9711
9.9345
9.90168
9.87283
9.84813
9.82769
9.81159
9.79987
9.79254
9.7895
9.79067
9.79618
9.80598
9.82001
9.83825
9.8607
9.88732
10.104
10.0653
10.022
9.98168
9.94486
9.91187
9.88293
9.85823
9.83787
9.8219
9.81028
9.80302
9.79999
9.80122
9.80676
9.81655
9.83045
9.84855
9.87084
9.89721
10.113
10.0741
10.0306
9.99007
9.95305
9.9199
9.89091
9.86636
9.84638
9.83081
9.81946
9.81224
9.80901
9.80996
9.81528
9.82479
9.83836
9.85631
9.87858
9.9049
10.1204
10.0814
10.0376
9.9969
9.95959
9.92616
9.89701
9.87255
9.85255
9.83675
9.82507
9.81741
9.81364
9.81377
9.8186
9.8278
9.84117
9.85892
9.88088
9.90712
10.1264
10.0873
10.0434
10.0025
9.96474
9.93062
9.90078
9.87567
9.85492
9.8385
9.82639
9.81841
9.81457
9.81463
9.81959
9.82949
9.84303
9.86024
9.88103
9.90688
10.1312
10.0918
10.0477
10.0064
9.96817
9.93346
9.903
9.8771
9.85587
9.83944
9.82748
9.81943
9.8157
9.81714
9.82258
9.83241
9.84538
9.86233
9.88279
9.9084
10.1352
10.0954
10.0508
10.0091
9.97062
9.93588
9.90523
9.87904
9.85749
9.84081
9.82864
9.82041
9.81687
9.81912
9.82435
9.83306
9.8455
9.86204
9.88289
9.90829
10.1395
10.0992
10.0542
10.0123
9.97374
9.93896
9.90816
9.88166
9.85956
9.84207
9.82921
9.82114
9.81778
9.81925
9.82407
9.83277
9.8454
9.86173
9.88313
9.90915
10.1447
10.104
10.0588
10.0167
9.97799
9.94312
9.91225
9.88569
9.86352
9.84596
9.833
9.82472
9.82087
9.82128
9.826
9.83506
9.84833
9.86593
9.88781
9.91408
10.1509
10.1099
10.0644
10.022
9.983
9.94791
9.91691
9.89038
9.86839
9.85114
9.83856
9.83068
9.82715
9.82782
9.83285
9.8422
9.85561
9.87325
9.89507
9.92134
10.1576
10.1163
10.0704
10.0276
9.9881
9.95251
9.92132
9.89487
9.87324
9.85661
9.8449
9.83795
9.83484
9.83557
9.84043
9.84951
9.86275
9.88058
9.90284
9.92956
10.1642
10.1227
10.0763
10.0323
9.99203
9.95615
9.92491
9.8985
9.87687
9.86019
9.84847
9.84189
9.83878
9.83934
9.84387
9.85252
9.86517
9.88304
9.90582
9.93339
10.1672
10.1253
10.0787
10.0346
9.99471
9.95919
9.92802
9.90146
9.87938
9.86203
9.84946
9.8422
9.83858
9.83892
9.84342
9.85212
9.86473
9.88284
9.90573
9.93342
10.1672
10.1256
10.0798
10.0373
9.99841
9.96343
9.9324
9.90566
9.88324
9.86543
9.85215
9.84361
9.83953
9.83986
9.84472
9.85415
9.86797
9.88623
9.90864
9.93515
10.1691
10.128
10.0832
10.0423
10.0047
9.97036
9.93953
9.91257
9.88986
9.87179
9.85829
9.84962
9.84554
9.84602
9.85103
9.86057
9.87452
9.89289
9.91538
9.94192
10.1725
10.1313
10.0865
10.0458
10.0088
9.97473
9.94391
9.91792
9.89605
9.87856
9.86548
9.85706
9.85302
9.85327
9.85776
9.86659
9.88029
9.89904
9.92227
9.94915
10.1778
10.1357
10.0898
10.0477
10.01
9.97571
9.9456
9.92069
9.89923
9.88205
9.86922
9.86095
9.85691
9.85679
9.86042
9.86891
9.88275
9.90188
9.92576
9.9527
10.1856
10.1426
10.0957
10.0523
10.0127
9.97771
9.94762
9.92149
9.89956
9.88218
9.86929
9.86107
9.85714
9.85719
9.86109
9.87055
9.88459
9.90324
9.92639
9.95279
10.196
10.1525
10.1049
10.0608
10.0203
9.98415
9.95231
9.9251
9.90247
9.88467
9.87159
9.86338
9.85962
9.86024
9.86537
9.87504
9.88879
9.90666
9.92833
9.95404
10.2091
10.1651
10.1171
10.0725
10.0316
9.99494
9.9626
9.93495
9.91195
9.89388
9.88058
9.8722
9.86833
9.86885
9.87385
9.88329
9.8968
9.91442
9.93576
9.96094
10.2245
10.1802
10.132
10.087
10.0458
10.0088
9.97616
9.94823
9.925
9.90673
9.89327
9.88475
9.88076
9.88116
9.88602
9.89528
9.90858
9.92591
9.94687
9.97153
10.2424
10.1979
10.1495
10.1043
10.0628
10.0256
9.99265
9.96449
9.94106
9.92263
9.90903
9.9004
9.89631
9.89661
9.90134
9.91045
9.92352
9.94055
9.96108
9.98518
10.2631
10.2184
10.1699
10.1246
10.0829
10.0454
10.0122
9.98385
9.96023
9.94164
9.92791
9.91917
9.91497
9.91516
9.91975
9.92868
9.9415
9.95817
9.97823
10.0017
10.287
10.2422
10.1937
10.1483
10.1064
10.0687
10.0354
10.0068
9.98304
9.96429
9.95042
9.94156
9.93725
9.93732
9.94174
9.95046
9.96297
9.97925
9.99876
10.0215
10.3145
10.2698
10.2213
10.1759
10.1339
10.0961
10.0626
10.0339
10.01
9.99106
9.97705
9.96806
9.9636
9.9635
9.96771
9.97613
9.98827
10.004
10.0229
10.0449
10.3463
10.3017
10.2535
10.2081
10.1661
10.1282
10.0946
10.0658
10.0417
10.0227
10.0085
9.99935
9.99473
9.99443
9.99833
10.0064
10.018
10.0332
10.0513
10.0723
10.383
10.3387
10.2908
10.2456
10.2037
10.1658
10.1321
10.1032
10.0789
10.0598
10.0454
10.0361
10.0313
10.0308
10.0342
10.0418
10.0528
10.0672
10.0844
10.1043
10.4255
10.3816
10.3343
10.2894
10.2477
10.2098
10.1761
10.1471
10.1227
10.1034
10.0888
10.0793
10.0742
10.0733
10.0763
10.0833
10.0936
10.1071
10.1231
10.1416
10.4747
10.4315
10.3849
10.3406
10.2991
10.2614
10.2278
10.1987
10.1742
10.1547
10.1399
10.13
10.1245
10.1232
10.1256
10.1318
10.1412
10.1536
10.1682
10.1851
10.5321
10.4899
10.4444
10.4008
10.3598
10.3223
10.2887
10.2596
10.235
10.2153
10.2002
10.1899
10.1839
10.182
10.1837
10.189
10.1972
10.2083
10.2212
10.2361
10.5994
10.5585
10.5144
10.4718
10.4315
10.3944
10.3611
10.332
10.3073
10.2873
10.2718
10.261
10.2544
10.2517
10.2524
10.2566
10.2634
10.2727
10.2836
10.2959
10.6786
10.6396
10.5974
10.5563
10.517
10.4807
10.4477
10.4187
10.3939
10.3736
10.3576
10.3461
10.3386
10.335
10.3344
10.337
10.342
10.3491
10.3575
10.3668
10.7728
10.7364
10.697
10.6579
10.6201
10.5848
10.5524
10.5237
10.4988
10.4782
10.4615
10.4491
10.4404
10.4353
10.4331
10.4337
10.4362
10.4405
10.4455
10.451
10.8861
10.8535
10.8179
10.7818
10.7463
10.7125
10.6811
10.6528
10.6279
10.6068
10.5893
10.5756
10.5652
10.5581
10.5536
10.5513
10.5506
10.551
10.5517
10.5522
11.0245
10.9974
10.9675
10.9359
10.9037
10.8724
10.8425
10.815
10.7901
10.7684
10.7497
10.7341
10.7213
10.7112
10.7031
10.6968
10.6914
10.6866
10.6812
10.675
11.197
11.1783
11.1571
11.1324
11.1055
11.078
11.0506
11.0244
10.9996
10.977
10.9564
10.9381
10.9216
10.907
10.8936
10.8812
10.8689
10.8564
10.8426
10.827
11.4179
11.4123
11.4047
11.391
11.3725
11.3512
11.3279
11.3038
11.2794
11.2555
11.2318
11.2091
11.1867
11.165
11.1433
11.1214
11.0986
11.0746
11.0482
11.0189
11.7101
11.726
11.7401
11.7442
11.7396
11.7285
11.712
11.6917
11.6679
11.6418
11.6133
11.5833
11.5514
11.5181
11.4828
11.4458
11.4063
11.3643
11.3185
11.2686
12.1156
12.1647
12.2123
12.2463
12.2643
12.2704
12.2655
12.2515
12.2291
12.1996
12.1632
12.121
12.0732
12.0205
11.9629
11.901
11.8343
11.7631
11.6865
11.6043
12.6993
12.8039
12.9105
12.9888
13.042
13.0778
13.0921
13.0894
13.0699
13.0351
12.9857
12.9233
12.8488
12.7638
12.6688
12.5653
12.4534
12.3343
12.2074
12.073
13.5658
13.7632
13.9664
14.1244
14.2392
14.3141
14.3574
14.3763
14.3629
14.3204
14.2501
14.1547
14.0361
13.8973
13.74
13.5671
13.3801
13.1814
12.9715
12.7517
14.8833
15.2332
15.5944
15.8823
16.0979
16.2456
16.3313
16.3729
16.3741
16.3207
16.2182
16.0708
15.8818
15.6562
15.3978
15.1118
14.8018
14.4724
14.1263
13.7666
16.9087
17.4984
18.1064
18.595
18.9651
19.2239
19.379
19.4519
19.4685
19.4013
19.2534
19.0301
18.7363
18.3796
17.9663
17.5045
17.0012
16.4645
15.9005
15.3159
19.9991
20.9401
21.9019
22.6719
23.2519
23.6551
23.8962
24.0079
24.0337
23.9657
23.7643
23.4451
23.0146
22.4823
21.8558
21.1463
20.3633
19.5197
18.6262
17.6958
24.5779
25.9709
27.3692
28.4683
29.2792
29.8307
30.1534
30.3012
30.34
30.2674
30.0157
29.6031
29.0328
28.3119
27.4446
26.4412
25.3098
24.0653
22.7224
21.3028
30.9999
32.8562
34.663
36.0337
37.0065
37.6395
37.9898
38.1401
38.1808
38.113
37.8407
37.3827
36.732
35.884
34.8319
33.5775
32.1158
30.453
28.5978
26.578
39.3121
41.4681
43.4762
44.9226
45.8927
46.4694
46.7499
46.8541
46.8761
46.8215
46.5757
46.1584
45.5488
44.7075
43.6209
42.2809
40.6543
38.7144
36.4363
33.8395
49.1111
51.2577
53.1372
54.4189
55.2458
55.7364
55.9735
56.0657
56.0921
56.0503
55.8099
55.4025
54.8185
54.0563
53.0839
51.8721
50.3522
48.4317
45.9962
43.0561
59.7871
61.8713
63.7504
65.0321
65.8498
66.3226
66.5419
66.6373
66.6816
66.6557
66.4176
66.0089
65.4177
64.6452
63.6563
62.4276
60.8957
59.0093
56.6706
53.7648
71.7151
73.9355
75.9305
77.3096
78.2018
78.7265
78.9791
79.1054
79.1789
79.1584
78.9037
78.4658
77.8295
76.9989
75.9378
74.6318
73.0197
71.0526
68.6176
65.6082
85.4277
87.9184
90.1589
91.7188
92.7405
93.3518
93.6504
93.8496
94.0042
93.9366
93.6598
93.1896
92.5003
91.5965
90.4379
89.0109
87.2478
85.1017
82.4562
79.2078
101.387
104.257
106.85
108.671
109.88
110.616
110.987
111.24
111.436
111.385
111.108
110.612
109.865
108.873
107.591
106.005
104.043
101.654
98.71
95.0938
120.027
123.38
126.423
128.586
130.049
130.97
131.458
131.773
131.989
131.952
131.692
131.177
130.367
129.272
127.844
126.07
123.866
121.178
117.857
113.771
141.798
145.741
149.338
151.926
153.718
154.907
155.609
156.013
156.141
156.093
155.922
155.395
154.517
153.308
151.713
149.72
147.232
144.189
140.418
135.767
167.167
171.819
176.082
179.184
181.369
182.857
183.767
184.286
184.482
184.494
184.367
183.825
182.876
181.541
179.757
177.512
174.695
171.237
166.942
161.626
196.64
202.133
207.19
210.913
213.584
215.45
216.626
217.271
217.554
217.691
217.628
217.082
216.062
214.592
212.599
210.071
206.88
202.95
198.051
191.97
230.723
237.205
243.199
247.666
250.927
253.269
254.837
255.799
256.219
256.362
256.338
255.802
254.717
253.105
250.886
248.045
244.437
239.972
234.388
227.435
269.923
277.556
284.647
289.993
293.958
296.866
298.871
300.148
300.761
300.989
301.044
300.635
299.506
297.756
295.298
292.119
288.053
282.996
276.648
268.717
314.69
323.654
332.019
338.398
343.205
346.801
349.355
351.038
351.952
352.506
352.743
352.269
351.073
349.178
346.474
342.935
338.375
332.672
325.482
316.467
365.393
375.886
385.716
393.295
399.095
403.519
406.762
409.013
410.337
411.111
411.5
411.127
409.93
407.925
404.987
401.085
396.007
389.613
381.514
371.318
422.218
434.463
445.958
454.92
461.876
467.28
471.351
474.308
476.194
477.233
477.714
477.613
476.479
474.404
471.252
466.989
461.378
454.259
445.192
433.728
485.229
499.376
512.72
523.249
531.539
538.091
543.146
546.951
549.547
551.095
551.828
551.925
550.892
548.79
545.456
540.851
534.705
526.841
516.763
503.971
556.058
572.28
587.631
599.833
609.53
617.276
623.348
628.02
631.344
633.468
634.506
634.747
633.914
631.826
628.361
623.446
616.79
608.183
597.071
582.879
636.158
654.63
672.162
686.171
697.38
706.405
713.566
719.171
723.295
726.081
727.567
728.071
727.392
725.346
721.794
716.617
709.485
700.147
687.98
672.318
726.949
747.844
767.724
783.671
796.496
806.888
815.214
821.819
826.8
830.315
832.367
833.225
832.779
830.856
827.313
821.957
814.42
804.397
791.187
774.015
829.794
853.249
875.611
893.598
908.124
919.957
929.52
937.199
943.117
947.448
950.167
951.491
951.373
949.679
946.283
940.882
933.065
922.467
908.291
889.641
945.908
971.992
996.898
1016.97
1033.23
1046.54
1057.38
1066.19
1073.12
1078.36
1081.87
1083.81
1084.13
1082.79
1079.71
1074.46
1066.57
1055.58
1040.61
1020.61
1076.31
1104.98
1132.37
1154.47
1172.41
1187.16
1199.27
1209.22
1217.2
1223.43
1227.87
1230.61
1231.55
1230.74
1228.16
1223.36
1215.68
1204.62
1189.15
1168.07
1221.66
1252.68
1282.33
1306.23
1325.66
1341.69
1354.95
1365.99
1375.03
1382.3
1387.78
1391.52
1393.33
1393.28
1391.45
1387.49
1380.46
1369.78
1354.3
1332.62
1382.09
1414.97
1446.36
1471.6
1492.12
1509.09
1523.25
1535.2
1545.21
1553.55
1560.18
1565.16
1568.27
1569.36
1568.47
1565.77
1560.01
1550.41
1535.65
1514.12
1556.85
1590.71
1622.97
1648.75
1669.66
1686.98
1701.57
1714.08
1724.85
1734.16
1742.02
1748.46
1753.19
1755.98
1756.63
1755.55
1751.93
1744.4
1731.41
1711.17
1743.98
1777.45
1809.16
1834.23
1854.42
1871.16
1885.4
1897.88
1908.99
1919.09
1928.18
1936.33
1943.24
1948.68
1952
1953.1
1952.08
1947.78
1938.04
1920.68
1939.71
1970.72
1999.82
2022.32
2040.18
2054.93
2067.65
2079.17
2089.96
2100.41
2110.6
2120.58
2130.1
2138.88
2146.27
2151.54
2154.02
2153.93
2149.29
2137.04
2137.82
2163.47
2187.03
2204.39
2217.65
2228.47
2238.03
2247.25
2256.68
2266.79
2277.7
2289.51
2301.98
2314.85
2327.46
2339.1
2348.62
2354.68
2355.97
2351.34
2328.77
2345.19
2359.33
2368.12
2373.81
2378.14
2382.33
2387.43
2394.05
2402.76
2413.75
2427.16
2442.8
2460.41
2479.33
2498.79
2517.46
2533.87
2545.77
2550.9
2498.89
2501.29
2501.05
2496.92
2491.55
2486.24
2482.32
2480.98
2482.91
2488.79
2498.89
2513.43
2532.27
2555.22
2581.63
2610.69
2640.95
2670.73
2697.72
2719.65
2630.45
2612.96
2592.1
2569.38
2546.5
2526.58
2511.43
2502.09
2498.24
2500.46
2508.85
2523.65
2544.79
2572.23
2605.62
2644.84
2688.96
2736.56
2784.79
2829
2698.81
2652.86
2606.9
2567.85
2530.82
2499.14
2474.17
2457.04
2447.28
2444.96
2450.88
2465.26
2488.15
2519.52
2559.02
2606.66
2661.51
2722.2
2786.11
2848.56
2686.85
2614.89
2540.06
2465.78
2403.83
2352.46
2311.47
2280.79
2260.49
2250.85
2251.87
2264.52
2288.85
2325.31
2373.95
2433.97
2505
2586.62
2677.85
2778.37
2557.27
2444.92
2334.97
2238.18
2155.59
2087.4
2033.23
1992.68
1965.4
1950.85
1948.16
1958.48
1982
2019.64
2072.03
2139.88
2223.27
2321.89
2434.3
2557.81
2296.14
2152.08
2014.14
1895.81
1797.25
1717.49
1655.07
1608.58
1576.83
1558.9
1553.75
1561.88
1583.79
1620.97
1674.9
1747.31
1839.4
1951.52
2082.46
2229.11
1934.82
1766.11
1611.1
1481.61
1376.45
1293.29
1229.4
1182.39
1150.37
1132.05
1126.46
1133.74
1154.41
1190.52
1244.48
1319.55
1418.53
1541.92
1688.63
1854.2
1558.67
1376.09
1216.57
1086.59
983.734
904.302
844.608
801.637
773.138
757.632
754.151
762.756
784.083
820.592
875.015
950.918
1052.19
1182.97
1345.02
1534.51
1243.73
1044.51
880.97
756.23
662.585
592.975
542.129
506.335
483.067
470.746
468.327
475.974
494.569
526.69
575.532
646.134
745.904
885.274
1071.91
1313.53
1071.23
804.246
618.703
496.813
413.87
355.966
315.418
287.726
270.17
261.163
259.638
265.888
280.928
307.411