/*--------------------------------*- C++ -*----------------------------------*\
  =========                 |
  \\      /  F ield         | OpenFOAM: The Open Source CFD Toolbox
   \\    /   O peration     | Website:  https://openfoam.org
    \\  /    A nd           | Version:  6
     \\/     M anipulation  |
\*---------------------------------------------------------------------------*/
FoamFile
{
    version     2.0;
    format      ascii;
    class       volScalarField;
    location    "26";
    object      k;
}
// * * * * * * * * * * * * * * * * * * * * * * * * * * * * * * * * * * * * * //

dimensions      [0 2 -2 0 0 0 0];

internalField   nonuniform List<scalar> 
10000
(
0.208296
0.528369
0.485446
0.426554
0.37539
0.338612
0.315486
0.302062
0.295274
0.293053
0.293935
0.297966
0.306391
0.320617
0.343815
0.37921
0.427985
0.4847
0.525975
0.207465
0.208079
0.527838
0.484725
0.426434
0.375484
0.3392
0.31679
0.303559
0.295902
0.293762
0.294592
0.298453
0.307716
0.321651
0.344335
0.379151
0.427504
0.484174
0.525734
0.207416
0.20801
0.52783
0.485255
0.426335
0.375472
0.339202
0.31641
0.302559
0.295907
0.295051
0.29595
0.298462
0.306459
0.320616
0.343898
0.379369
0.428129
0.484678
0.525819
0.207435
0.207915
0.527389
0.484954
0.42583
0.375367
0.339306
0.316174
0.302621
0.296007
0.293708
0.29464
0.29857
0.306464
0.320524
0.343867
0.379558
0.427849
0.484019
0.525738
0.207442
0.207765
0.527269
0.484533
0.424729
0.375263
0.33933
0.316071
0.302972
0.29746
0.29528
0.296292
0.300136
0.306898
0.320669
0.343832
0.379574
0.428626
0.484898
0.525863
0.207706
0.207856
0.527173
0.484252
0.425353
0.375271
0.339455
0.316168
0.303044
0.29634
0.294078
0.295227
0.299121
0.306897
0.320651
0.343775
0.379404
0.427949
0.485427
0.526153
0.207869
0.207901
0.527264
0.485115
0.425925
0.375228
0.339656
0.316313
0.303186
0.296568
0.294464
0.296556
0.299653
0.308062
0.320847
0.343796
0.379376
0.428204
0.48551
0.526247
0.20786
0.207916
0.527352
0.485133
0.425535
0.375829
0.339848
0.316484
0.30447
0.298111
0.294566
0.295214
0.30046
0.307294
0.32072
0.343811
0.379241
0.427977
0.485601
0.526526
0.207995
0.207908
0.527346
0.485021
0.426658
0.375981
0.339821
0.316449
0.303562
0.297504
0.295989
0.295627
0.299482
0.307978
0.320952
0.344216
0.379391
0.427911
0.485836
0.526774
0.207969
0.208245
0.527723
0.48443
0.426663
0.37586
0.339874
0.316478
0.303659
0.298591
0.296123
0.297128
0.300883
0.307104
0.321344
0.344129
0.379325
0.428373
0.485775
0.526764
0.208106
0.208552
0.528196
0.485124
0.426775
0.376192
0.33972
0.316668
0.303812
0.29832
0.295561
0.296219
0.300135
0.307023
0.320682
0.343957
0.379067
0.427762
0.485796
0.526699
0.208109
0.208668
0.52841
0.485794
0.426506
0.376093
0.339767
0.316824
0.303892
0.297834
0.294506
0.295185
0.299322
0.306954
0.320527
0.344346
0.379272
0.428004
0.485788
0.527203
0.208312
0.208602
0.528095
0.485055
0.426733
0.376063
0.339876
0.317704
0.305069
0.29696
0.294585
0.295269
0.300423
0.307916
0.320453
0.343944
0.37919
0.428299
0.485747
0.52733
0.2083
0.208558
0.528015
0.485079
0.426396
0.375925
0.339811
0.317075
0.304409
0.296768
0.294889
0.296048
0.298779
0.306078
0.319981
0.343531
0.379005
0.428104
0.485481
0.527046
0.208098
0.208476
0.527816
0.484761
0.426151
0.375792
0.33973
0.317522
0.303658
0.296695
0.293862
0.29468
0.299197
0.306097
0.319957
0.343664
0.378758
0.42768
0.485072
0.526955
0.207961
0.208381
0.527722
0.484581
0.425682
0.375494
0.339727
0.316838
0.30366
0.296794
0.294183
0.295604
0.298103
0.305886
0.31988
0.343158
0.378495
0.427432
0.48448
0.526797
0.20779
0.208325
0.527559
0.484215
0.425112
0.375325
0.340127
0.317133
0.304117
0.297989
0.295261
0.294519
0.298072
0.306058
0.320024
0.343555
0.378275
0.426523
0.483932
0.52638
0.207628
0.208221
0.52735
0.483944
0.425207
0.375111
0.339737
0.317668
0.304843
0.296576
0.293803
0.294328
0.298352
0.306284
0.320278
0.342945
0.377756
0.42591
0.48345
0.526174
0.207494
0.208113
0.527218
0.483424
0.424261
0.374722
0.339796
0.316346
0.303195
0.29621
0.293774
0.295338
0.300047
0.307743
0.320717
0.343188
0.377544
0.425407
0.482867
0.526028
0.207357
0.207845
0.527017
0.482738
0.423493
0.374133
0.339297
0.316902
0.303387
0.296316
0.294492
0.293954
0.29896
0.306717
0.319612
0.342358
0.377027
0.424789
0.482219
0.525884
0.207208
0.207633
0.526603
0.482023
0.423025
0.373707
0.338774
0.315758
0.303893
0.296241
0.292981
0.29353
0.298014
0.305842
0.319514
0.342602
0.376616
0.424097
0.481411
0.525496
0.206942
0.207343
0.526065
0.481323
0.422448
0.373257
0.338228
0.315502
0.302287
0.29547
0.292798
0.293501
0.298508
0.30593
0.319556
0.341913
0.375939
0.423317
0.480877
0.525298
0.2068
0.207171
0.52572
0.480438
0.421746
0.372804
0.337736
0.31567
0.302557
0.295828
0.293114
0.293575
0.297892
0.306907
0.319887
0.342244
0.375327
0.422559
0.480066
0.524728
0.206479
0.206976
0.525334
0.47999
0.421122
0.372352
0.337808
0.31689
0.303846
0.296205
0.2934
0.293887
0.298739
0.305791
0.3203
0.341335
0.37438
0.421416
0.479181
0.524347
0.206238
0.206795
0.525045
0.479309
0.420543
0.37183
0.336909
0.315978
0.30297
0.297531
0.295071
0.294913
0.297138
0.30569
0.318745
0.340133
0.373484
0.420538
0.478314
0.523716
0.205884
0.206561
0.524695
0.478922
0.419893
0.371346
0.336078
0.315495
0.303623
0.296952
0.294204
0.293833
0.296709
0.304638
0.317236
0.338988
0.372646
0.41968
0.477556
0.523292
0.205557
0.206352
0.524402
0.478265
0.419371
0.37087
0.335684
0.3145
0.302769
0.298326
0.295964
0.294088
0.296507
0.302893
0.315455
0.337782
0.371759
0.418739
0.476882
0.523096
0.205376
0.206122
0.52411
0.477671
0.418684
0.370396
0.335344
0.314153
0.303143
0.29691
0.29479
0.294375
0.296877
0.302861
0.31523
0.337102
0.370993
0.417852
0.476055
0.52272
0.205042
0.205851
0.52377
0.476949
0.418096
0.369991
0.335153
0.313976
0.301869
0.295533
0.293579
0.295587
0.297557
0.302938
0.315184
0.336093
0.370273
0.417084
0.475291
0.522357
0.20473
0.205565
0.523366
0.476223
0.417255
0.369395
0.334982
0.314923
0.303258
0.296086
0.293594
0.294978
0.298002
0.303831
0.315699
0.335861
0.369644
0.416302
0.474585
0.521905
0.204405
0.205197
0.52281
0.475253
0.416324
0.368857
0.334732
0.314078
0.302728
0.297023
0.295053
0.294013
0.296398
0.302539
0.314664
0.335481
0.368904
0.415377
0.47371
0.5214
0.204069
0.204929
0.522332
0.474426
0.415425
0.368177
0.334556
0.314138
0.303685
0.297713
0.295192
0.295575
0.29694
0.302855
0.31561
0.335595
0.368427
0.41467
0.473043
0.520979
0.203774
0.204702
0.521978
0.473637
0.414548
0.367697
0.334592
0.314329
0.30316
0.297332
0.294953
0.295663
0.297264
0.302951
0.314819
0.3358
0.367717
0.413918
0.472254
0.520647
0.203542
0.20438
0.521528
0.472942
0.413917
0.367213
0.334894
0.31483
0.303996
0.298078
0.295613
0.295914
0.299098
0.304477
0.31478
0.334304
0.366831
0.413041
0.471438
0.520452
0.203442
0.204118
0.521184
0.472082
0.413071
0.366608
0.334237
0.31525
0.304976
0.30041
0.298042
0.29687
0.299465
0.304424
0.314071
0.333308
0.366118
0.412169
0.470623
0.520263
0.203235
0.20371
0.52066
0.471139
0.412288
0.366228
0.334345
0.316029
0.3062
0.301378
0.299298
0.298967
0.300387
0.304597
0.314231
0.333086
0.365542
0.411273
0.469888
0.519853
0.202993
0.203355
0.520118
0.470178
0.4114
0.365608
0.334461
0.317416
0.308007
0.303067
0.300654
0.299501
0.301732
0.305272
0.314503
0.332838
0.36478
0.410328
0.469019
0.519388
0.202641
0.202939
0.51943
0.469086
0.41038
0.365056
0.334472
0.317355
0.308732
0.30402
0.301831
0.301202
0.30263
0.306037
0.314938
0.332748
0.364215
0.409364
0.468054
0.518801
0.202272
0.202595
0.518869
0.468177
0.409453
0.364415
0.334797
0.317378
0.30939
0.305136
0.303093
0.302338
0.303689
0.306923
0.316104
0.332648
0.363365
0.408281
0.467044
0.518035
0.201802
0.202346
0.518428
0.467221
0.408387
0.363671
0.334336
0.317756
0.310125
0.306383
0.304607
0.304086
0.305104
0.308036
0.316418
0.33245
0.362688
0.40714
0.465921
0.517471
0.201475
0.202073
0.518029
0.466318
0.407406
0.363026
0.334103
0.319108
0.311412
0.30758
0.305745
0.305237
0.306312
0.309512
0.31693
0.332382
0.361933
0.406015
0.464837
0.516888
0.201127
0.201845
0.517654
0.465245
0.406281
0.362424
0.334203
0.319823
0.31262
0.309084
0.307252
0.306662
0.307369
0.310216
0.317309
0.332265
0.361072
0.404765
0.463603
0.516272
0.200783
0.201485
0.517118
0.46411
0.405147
0.361748
0.334234
0.320679
0.313704
0.310124
0.308348
0.307762
0.308484
0.311317
0.317767
0.332379
0.36046
0.403733
0.46251
0.515604
0.200459
0.201036
0.51639
0.462843
0.403946
0.361115
0.334269
0.321382
0.3146
0.311247
0.309635
0.309132
0.309798
0.312465
0.318969
0.333026
0.359914
0.402702
0.461476
0.515007
0.200151
0.200639
0.515773
0.461659
0.402783
0.360443
0.334295
0.321859
0.315518
0.31236
0.310792
0.310277
0.310936
0.313513
0.319408
0.33275
0.359235
0.401741
0.460509
0.514618
0.199941
0.20011
0.514955
0.460334
0.401611
0.359819
0.334404
0.322448
0.316415
0.313471
0.312046
0.311578
0.312179
0.314597
0.320381
0.332479
0.358674
0.400717
0.459438
0.514131
0.199642
0.199706
0.514275
0.458983
0.400349
0.359038
0.334909
0.323024
0.317362
0.314617
0.313301
0.312889
0.313447
0.31566
0.321052
0.332422
0.3579
0.399546
0.458356
0.513715
0.199459
0.19926
0.513495
0.45765
0.399073
0.358053
0.334291
0.323235
0.318164
0.31571
0.314563
0.314239
0.314784
0.316791
0.321728
0.332414
0.357205
0.398435
0.457184
0.513173
0.199171
0.198956
0.512884
0.456343
0.397734
0.356837
0.333644
0.323045
0.318867
0.31678
0.315811
0.315537
0.316012
0.317838
0.322427
0.33233
0.356392
0.397166
0.455945
0.512573
0.198885
0.198594
0.512266
0.455093
0.396465
0.355336
0.332488
0.322089
0.319357
0.317781
0.317041
0.316851
0.317281
0.318878
0.323
0.332282
0.355715
0.39597
0.4547
0.511952
0.198558
0.198158
0.511435
0.4536
0.395063
0.353817
0.33186
0.322727
0.319896
0.318738
0.318203
0.318046
0.318383
0.319734
0.323382
0.332186
0.3549
0.394575
0.453272
0.511313
0.198178
0.19783
0.510762
0.4522
0.393777
0.352861
0.330338
0.320731
0.319387
0.319435
0.319286
0.319206
0.319397
0.320403
0.323523
0.332159
0.354094
0.393143
0.451725
0.510593
0.197765
0.197384
0.509902
0.450589
0.392249
0.352487
0.330097
0.320358
0.31831
0.319951
0.320235
0.320242
0.320297
0.320899
0.322995
0.332466
0.352916
0.391465
0.450059
0.50976
0.197296
0.197006
0.509133
0.449015
0.390657
0.352554
0.330112
0.320097
0.318389
0.320361
0.321035
0.321142
0.321029
0.321207
0.322368
0.331609
0.351567
0.389815
0.44834
0.508828
0.196812
0.196592
0.508343
0.44726
0.388748
0.350772
0.32978
0.319996
0.319291
0.320255
0.321462
0.321725
0.321419
0.321224
0.322663
0.331152
0.350617
0.388213
0.446631
0.507917
0.196318
0.196211
0.50763
0.445555
0.386903
0.349149
0.328147
0.319574
0.316984
0.319587
0.321409
0.321931
0.321264
0.320216
0.320597
0.330087
0.34971
0.38641
0.444715
0.506912
0.195748
0.195717
0.506715
0.443655
0.384964
0.347576
0.326169
0.318937
0.316531
0.317838
0.320422
0.321635
0.320337
0.318677
0.31985
0.329003
0.34798
0.384263
0.442592
0.505826
0.195113
0.195183
0.505745
0.441591
0.382915
0.346353
0.325737
0.317812
0.316584
0.318643
0.319288
0.320854
0.31889
0.319207
0.319418
0.327762
0.346425
0.382163
0.440425
0.504773
0.194476
0.194466
0.504568
0.439173
0.380503
0.344841
0.3257
0.318693
0.316966
0.316443
0.32013
0.319708
0.318672
0.317176
0.318609
0.327078
0.344872
0.37976
0.437897
0.503439
0.193647
0.193656
0.503218
0.436434
0.377737
0.342915
0.326033
0.316852
0.315636
0.315549
0.318174
0.321327
0.320837
0.317349
0.318588
0.325874
0.342925
0.377064
0.435077
0.501857
0.192679
0.192646
0.5016
0.433374
0.374598
0.340194
0.32358
0.316573
0.314296
0.314984
0.318449
0.319018
0.318381
0.316868
0.319651
0.324746
0.340982
0.374212
0.432018
0.500079
0.191615
0.191474
0.499633
0.429909
0.371198
0.337203
0.321248
0.314336
0.313149
0.314335
0.315814
0.3164
0.316164
0.316042
0.318186
0.322368
0.338346
0.370932
0.42866
0.498087
0.190441
0.1902
0.497499
0.426303
0.367765
0.334253
0.318736
0.314533
0.314919
0.314978
0.3162
0.316625
0.316342
0.317141
0.317667
0.320392
0.335898
0.367686
0.425186
0.495929
0.189174
0.188668
0.494993
0.422282
0.36408
0.330925
0.31644
0.313161
0.313964
0.3155
0.316579
0.316785
0.316095
0.315476
0.317175
0.320495
0.333523
0.364233
0.421384
0.493537
0.187742
0.187047
0.492442
0.418094
0.360589
0.328696
0.316603
0.314203
0.315253
0.317559
0.319379
0.317882
0.316695
0.315406
0.315762
0.317495
0.330102
0.360579
0.417463
0.491152
0.186288
0.185103
0.48951
0.413569
0.357103
0.327929
0.31831
0.316319
0.316513
0.318849
0.31909
0.318425
0.317393
0.316011
0.315829
0.317241
0.327297
0.357087
0.413211
0.488287
0.184476
0.182899
0.486158
0.408738
0.353453
0.328284
0.317799
0.316973
0.319221
0.320418
0.32058
0.321208
0.318889
0.316842
0.314854
0.315546
0.32456
0.353637
0.408875
0.485381
0.182618
0.180452
0.482389
0.403722
0.349639
0.325401
0.316838
0.31709
0.320254
0.322146
0.322489
0.322861
0.320791
0.318691
0.317505
0.31734
0.323827
0.350516
0.404188
0.48192
0.180301
0.177644
0.478016
0.39845
0.346177
0.324226
0.317257
0.318351
0.322161
0.324668
0.325669
0.325275
0.323975
0.32019
0.317607
0.316715
0.323319
0.347114
0.399312
0.478302
0.177881
0.174544
0.473089
0.3928
0.342748
0.323325
0.319292
0.321735
0.324946
0.327231
0.328021
0.328018
0.326369
0.323411
0.31927
0.317608
0.323304
0.343759
0.394034
0.473789
0.174845
0.171158
0.467665
0.386846
0.339264
0.322396
0.320151
0.323134
0.326725
0.329405
0.330777
0.330506
0.328908
0.32616
0.322708
0.320016
0.322863
0.340681
0.38858
0.468879
0.171701
0.167568
0.461748
0.380737
0.335894
0.321528
0.321336
0.324933
0.328739
0.33146
0.332706
0.332564
0.331025
0.328177
0.324385
0.320833
0.321627
0.337457
0.38273
0.463135
0.168086
0.163932
0.455527
0.374938
0.333213
0.321182
0.322598
0.326796
0.330788
0.333596
0.334986
0.33488
0.333361
0.330524
0.32667
0.322878
0.32253
0.334912
0.376964
0.457175
0.164563
0.160378
0.449045
0.369454
0.331219
0.32157
0.324135
0.328714
0.332723
0.335471
0.336804
0.336757
0.335341
0.332566
0.328586
0.324141
0.322055
0.332346
0.371177
0.450573
0.160845
0.157082
0.442518
0.364437
0.329834
0.323275
0.326016
0.330574
0.334538
0.337263
0.338626
0.338628
0.337298
0.334641
0.330772
0.326286
0.323564
0.33091
0.366003
0.443935
0.157527
0.154239
0.436127
0.360088
0.328914
0.324078
0.327527
0.332294
0.33622
0.338839
0.340136
0.340181
0.338968
0.336429
0.332599
0.328006
0.32484
0.329783
0.361211
0.437114
0.154424
0.151965
0.429944
0.356427
0.328843
0.32546
0.329367
0.334097
0.337873
0.340357
0.341589
0.341674
0.340604
0.338256
0.33457
0.329869
0.325986
0.329353
0.357062
0.430542
0.151918
0.150386
0.423905
0.353217
0.328863
0.327032
0.331215
0.335866
0.339492
0.341827
0.34293
0.34303
0.342117
0.339951
0.336442
0.33183
0.3276
0.32932
0.353592
0.424118
0.149866
0.149956
0.417833
0.350367
0.328985
0.328614
0.333092
0.33769
0.341209
0.34348
0.344584
0.344683
0.343766
0.341668
0.338267
0.333691
0.329108
0.329339
0.350472
0.417752
0.14828
0.147684
0.411265
0.347636
0.329467
0.330152
0.334904
0.33948
0.342928
0.34517
0.346299
0.34639
0.345441
0.343372
0.340049
0.335523
0.330699
0.329812
0.347731
0.411178
0.14689
0.146705
0.404372
0.345056
0.330166
0.331993
0.336937
0.341397
0.344688
0.34681
0.347873
0.347954
0.347041
0.345048
0.341838
0.3374
0.332384
0.33038
0.345004
0.404246
0.145672
0.144846
0.396649
0.342225
0.330724
0.333689
0.338889
0.343306
0.34648
0.348494
0.349485
0.349544
0.348664
0.346752
0.343643
0.339239
0.333961
0.33081
0.34206
0.396449
0.144471
0.144132
0.388296
0.339465
0.331538
0.335671
0.341075
0.345384
0.348392
0.35027
0.351183
0.351225
0.350386
0.348579
0.345622
0.34133
0.335884
0.331614
0.339307
0.388045
0.143545
0.142693
0.379094
0.336787
0.332633
0.337885
0.343434
0.347591
0.350397
0.352111
0.352928
0.35295
0.352174
0.3505
0.347723
0.343572
0.337993
0.33265
0.336667
0.378861
0.142754
0.142859
0.369484
0.334647
0.334218
0.340453
0.346033
0.349971
0.35254
0.354073
0.354791
0.354801
0.354104
0.352591
0.35004
0.346107
0.340521
0.334256
0.334617
0.369381
0.142801
0.144333
0.359933
0.333656
0.336393
0.343384
0.348833
0.352469
0.354756
0.356087
0.3567
0.356703
0.356099
0.354774
0.352494
0.348858
0.343407
0.336404
0.333652
0.359968
0.144325
0.146934
0.351077
0.333373
0.33923
0.346675
0.351835
0.355076
0.357031
0.358135
0.358633
0.358632
0.358136
0.357031
0.355081
0.351841
0.346687
0.33925
0.333371
0.351075
0.146866
0.15163
0.343235
0.334506
0.342845
0.350315
0.354974
0.357715
0.359287
0.360139
0.360514
0.360511
0.360135
0.359278
0.357705
0.354962
0.350303
0.342837
0.334491
0.343271
0.151631
0.157983
0.336989
0.336934
0.347114
0.354203
0.358166
0.360314
0.36146
0.362043
0.362288
0.362285
0.362039
0.361453
0.360309
0.358167
0.354213
0.347132
0.336922
0.33693
0.157926
0.16674
0.333317
0.341018
0.352111
0.358301
0.361356
0.362818
0.363498
0.363795
0.363905
0.363903
0.363793
0.363495
0.362815
0.361357
0.358305
0.352123
0.341044
0.33331
0.166782
0.17754
0.331869
0.346522
0.357469
0.362445
0.364454
0.365175
0.365367
0.365371
0.365343
0.365342
0.365369
0.365365
0.365173
0.364459
0.362454
0.357482
0.346546
0.331871
0.177514
0.190937
0.332282
0.35361
0.363341
0.366628
0.367418
0.367343
0.367038
0.366754
0.366593
0.366592
0.366751
0.367035
0.367338
0.367415
0.366624
0.363336
0.353617
0.332297
0.190963
0.207104
0.338662
0.362453
0.369432
0.370625
0.370114
0.36925
0.368478
0.367933
0.367655
0.367654
0.36793
0.368473
0.369245
0.37011
0.370627
0.369445
0.362484
0.338683
0.207074
0.225278
0.348217
0.37232
0.375472
0.374287
0.372435
0.370835
0.369662
0.36891
0.368544
0.368542
0.368906
0.369655
0.370826
0.372425
0.374281
0.375472
0.372331
0.348229
0.225257
0.245998
0.363897
0.383516
0.381267
0.377401
0.374252
0.372036
0.370587
0.369715
0.369304
0.369304
0.369711
0.370581
0.372029
0.374246
0.377402
0.381284
0.383556
0.36393
0.246004
0.268
0.384386
0.394934
0.386027
0.379352
0.375305
0.372812
0.371291
0.370418
0.37002
0.370019
0.370416
0.371287
0.372805
0.375298
0.379348
0.38603
0.394946
0.384355
0.267931
0.291299
0.410314
0.404726
0.388358
0.380082
0.375739
0.373308
0.371901
0.371135
0.3708
0.3708
0.371135
0.371899
0.373303
0.375736
0.38008
0.388364
0.404745
0.410336
0.291326
0.314376
0.434546
0.408979
0.388854
0.38008
0.375803
0.373627
0.372508
0.371955
0.371732
0.371732
0.371957
0.37251
0.373627
0.375803
0.380078
0.38886
0.408991
0.434551
0.314342
0.338055
0.444931
0.406843
0.385646
0.378089
0.37506
0.373774
0.373202
0.372962
0.372876
0.372876
0.372964
0.373206
0.373777
0.375062
0.378091
0.385648
0.40685
0.444931
0.338065
0.364374
0.421503
0.386485
0.377504
0.375377
0.374626
0.374348
0.374272
0.374255
0.374253
0.374253
0.374255
0.374272
0.374347
0.374627
0.375377
0.377504
0.386483
0.421503
0.364371
0.604686
1.18129
1.04714
0.854678
0.681944
0.555229
0.478023
0.435472
0.412602
0.40269
0.402273
0.41174
0.433718
0.476535
0.554761
0.677904
0.846438
1.03578
1.173
0.597129
0.602631
1.17815
1.03978
0.846247
0.678629
0.552488
0.476409
0.435161
0.412554
0.402745
0.402194
0.411896
0.432919
0.474329
0.55033
0.671331
0.838832
1.03039
1.16958
0.596037
0.59971
1.17663
1.03996
0.848644
0.676413
0.547757
0.474736
0.434554
0.412411
0.402834
0.401904
0.411351
0.432613
0.473973
0.552722
0.675743
0.843237
1.03067
1.17342
0.594215
0.59984
1.17674
1.03734
0.846034
0.669732
0.547154
0.473943
0.433998
0.412431
0.402727
0.401714
0.410819
0.432135
0.47365
0.55163
0.674277
0.841501
1.02909
1.17377
0.598926
0.59816
1.1761
1.03527
0.84211
0.668019
0.545326
0.472631
0.433297
0.41125
0.401985
0.401478
0.410143
0.431591
0.473442
0.549692
0.671937
0.8341
1.02687
1.17293
0.598093
0.597736
1.17743
1.03496
0.839153
0.661502
0.541123
0.471336
0.432577
0.410945
0.401804
0.401826
0.409966
0.431118
0.471596
0.54823
0.67061
0.837151
1.02555
1.17204
0.597439
0.599288
1.17629
1.03257
0.835583
0.659503
0.539922
0.470579
0.431964
0.409984
0.400973
0.400672
0.409668
0.43065
0.470865
0.543817
0.668306
0.834746
1.02301
1.17051
0.594993
0.598635
1.17184
1.02492
0.832329
0.657056
0.53821
0.469455
0.431413
0.409764
0.401458
0.400632
0.409638
0.430365
0.470331
0.544744
0.666253
0.830323
1.02204
1.17039
0.594502
0.597726
1.17349
1.02623
0.827822
0.652836
0.5363
0.468438
0.430736
0.409398
0.400609
0.400405
0.409702
0.429955
0.469407
0.543288
0.659894
0.822626
1.02033
1.16788
0.594246
0.594398
1.17263
1.02152
0.822166
0.650184
0.534717
0.467353
0.430233
0.409264
0.401069
0.400386
0.409342
0.429615
0.468534
0.539772
0.661411
0.823528
1.02111
1.16987
0.594652
0.594668
1.16962
1.02556
0.822291
0.649719
0.532997
0.466299
0.429342
0.408992
0.399939
0.400361
0.409112
0.429121
0.467892
0.540866
0.659923
0.821532
1.01627
1.16877
0.595553
0.593326
1.16928
1.02318
0.821568
0.651677
0.531217
0.465229
0.428503
0.408342
0.399667
0.399879
0.408415
0.428669
0.466834
0.539318
0.6578
0.821231
1.02031
1.16585
0.594567
0.592163
1.16816
1.02068
0.822107
0.646657
0.529714
0.464322
0.427712
0.408312
0.399655
0.400573
0.408751
0.428154
0.4651
0.535054
0.655396
0.818487
1.01812
1.16577
0.591404
0.590837
1.16666
1.01243
0.818847
0.649236
0.529156
0.463456
0.427485
0.408443
0.39943
0.400049
0.40801
0.427478
0.464235
0.533366
0.64943
0.815482
1.01592
1.16475
0.591962
0.588607
1.16393
1.0083
0.810461
0.642128
0.52926
0.462764
0.427377
0.409226
0.399379
0.399967
0.408252
0.426796
0.462576
0.531067
0.647754
0.812609
1.01174
1.1632
0.592246
0.586805
1.16205
1.00425
0.808224
0.640009
0.527597
0.461703
0.427136
0.40802
0.399083
0.399476
0.407005
0.426174
0.461781
0.528697
0.644428
0.810341
1.0085
1.16248
0.59144
0.585325
1.15841
0.999793
0.802649
0.636452
0.52353
0.460364
0.42596
0.406862
0.398948
0.398934
0.406009
0.425472
0.460457
0.527792
0.641629
0.807396
1.01113
1.16437
0.589189
0.581927
1.15652
0.994058
0.798448
0.632144
0.5215
0.459366
0.424959
0.405481
0.398232
0.398198
0.405786
0.425065
0.459302
0.524575
0.637643
0.805131
1.00952
1.16387
0.589311
0.580976
1.15534
0.991604
0.7914
0.627793
0.520131
0.458549
0.423968
0.40517
0.398841
0.39899
0.405733
0.424348
0.458231
0.522183
0.634674
0.80205
1.00761
1.16003
0.589107
0.579329
1.15364
0.988291
0.788216
0.624406
0.518489
0.457624
0.423039
0.404755
0.39846
0.398272
0.405629
0.423726
0.457124
0.520011
0.629805
0.798491
1.00188
1.15979
0.588182
0.576726
1.15063
0.983916
0.783308
0.620917
0.516365
0.456806
0.423037
0.404478
0.397667
0.398837
0.405518
0.422994
0.456026
0.518078
0.627304
0.795051
1.00149
1.15952
0.585517
0.573384
1.14498
0.978152
0.778417
0.617839
0.514128
0.45555
0.422159
0.404087
0.397797
0.39746
0.404495
0.422105
0.454898
0.515867
0.623692
0.791293
0.998721
1.15846
0.58594
0.570555
1.14227
0.974107
0.773006
0.613566
0.511914
0.454578
0.421892
0.4038
0.396298
0.396245
0.403345
0.421212
0.453867
0.514002
0.620282
0.786414
0.99203
1.15454
0.584831
0.568254
1.1388
0.968069
0.766882
0.610088
0.510104
0.453612
0.420605
0.403656
0.396347
0.397021
0.40351
0.42037
0.45277
0.512047
0.617648
0.782205
0.988685
1.15462
0.58197
0.565625
1.13526
0.962992
0.76105
0.606087
0.508231
0.4529
0.420507
0.404116
0.396372
0.396045
0.402671
0.419535
0.452001
0.510279
0.614261
0.777628
0.982452
1.15329
0.580641
0.564129
1.13235
0.95826
0.756529
0.602867
0.506391
0.451924
0.420302
0.403327
0.397134
0.396951
0.402809
0.419494
0.451302
0.508743
0.611204
0.77304
0.979435
1.15215
0.578762
0.562625
1.13067
0.953539
0.75089
0.599136
0.504677
0.451139
0.420437
0.403287
0.396486
0.396309
0.402739
0.418913
0.450483
0.50712
0.608069
0.767925
0.973717
1.14891
0.575033
0.562796
1.13041
0.951695
0.747717
0.596533
0.503252
0.450324
0.421074
0.403371
0.397205
0.397103
0.403391
0.418984
0.449841
0.505527
0.605397
0.764966
0.970945
1.14685
0.573573
0.563933
1.13168
0.951099
0.743524
0.594026
0.501834
0.449386
0.420343
0.403243
0.396251
0.396006
0.402543
0.419189
0.448981
0.50369
0.601995
0.76029
0.96755
1.14563
0.571663
0.563082
1.12912
0.951391
0.741135
0.591825
0.500557
0.448472
0.419763
0.403344
0.396563
0.39624
0.402553
0.418422
0.448155
0.501969
0.599
0.757455
0.96504
1.14495
0.570146
0.562068
1.13162
0.949481
0.738046
0.589879
0.499435
0.447435
0.419037
0.403475
0.397618
0.396529
0.402627
0.418015
0.447408
0.50036
0.596161
0.754055
0.961724
1.14352
0.568494
0.558446
1.12724
0.942406
0.735015
0.588062
0.498354
0.446511
0.418379
0.40408
0.397687
0.396865
0.403368
0.417504
0.446694
0.498995
0.593394
0.748733
0.955461
1.14049
0.565717
0.557335
1.12672
0.939399
0.732583
0.586241
0.497438
0.446037
0.417865
0.403743
0.397855
0.397084
0.403323
0.417819
0.446072
0.497276
0.590056
0.743095
0.951189
1.13512
0.562272
0.555226
1.12481
0.935775
0.730007
0.584482
0.496432
0.445829
0.418335
0.404551
0.398265
0.397944
0.403444
0.417397
0.445304
0.495705
0.586915
0.738625
0.945139
1.13131
0.559324
0.553546
1.12239
0.931853
0.726854
0.5824
0.495335
0.445224
0.417599
0.403897
0.398278
0.397874
0.403348
0.41788
0.44463
0.494086
0.583656
0.732191
0.939481
1.12865
0.557339
0.551936
1.12021
0.927133
0.723494
0.580417
0.494394
0.444348
0.417566
0.404748
0.398653
0.398103
0.403407
0.417265
0.443742
0.492421
0.580762
0.728713
0.934617
1.12604
0.554396
0.549516
1.11635
0.922326
0.72003
0.578332
0.493411
0.444151
0.417631
0.404797
0.398894
0.398173
0.40297
0.41688
0.442912
0.490746
0.577628
0.723782
0.930464
1.12339
0.552334
0.546615
1.11381
0.917516
0.716538
0.576196
0.49235
0.444036
0.417641
0.404708
0.399076
0.398067
0.402197
0.416036
0.441875
0.488801
0.57403
0.718672
0.924878
1.12098
0.5494
0.544139
1.10959
0.913275
0.713506
0.57412
0.491189
0.442926
0.41799
0.404264
0.399265
0.397798
0.401959
0.415058
0.440942
0.48718
0.571119
0.714162
0.91965
1.11856
0.547097
0.541604
1.1078
0.90776
0.709087
0.571491
0.489971
0.442547
0.417319
0.404199
0.399267
0.398076
0.401975
0.414213
0.439968
0.485355
0.56767
0.708988
0.914248
1.11461
0.543685
0.539127
1.10643
0.902947
0.705182
0.56904
0.488713
0.442284
0.417787
0.404331
0.398978
0.39868
0.40249
0.414133
0.439065
0.483746
0.565004
0.704819
0.90879
1.11069
0.54095
0.537259
1.1058
0.898895
0.701031
0.566411
0.487381
0.442135
0.41692
0.404384
0.399223
0.399064
0.401701
0.414195
0.437807
0.481827
0.561734
0.700029
0.904282
1.10779
0.537851
0.535393
1.10383
0.894747
0.696867
0.563674
0.485958
0.442583
0.416918
0.405177
0.400159
0.398779
0.401394
0.412894
0.436497
0.480005
0.5585
0.69466
0.898018
1.10422
0.535164
0.533728
1.09895
0.890759
0.693108
0.561179
0.484413
0.441531
0.416824
0.404463
0.399125
0.39803
0.401196
0.411803
0.435334
0.478022
0.554993
0.689483
0.892129
1.10078
0.532094
0.532354
1.0979
0.886919
0.689418
0.558662
0.482821
0.440708
0.417288
0.405137
0.400062
0.398961
0.401193
0.411646
0.434154
0.475838
0.551167
0.683444
0.885421
1.09761
0.529296
0.530669
1.09512
0.882536
0.685811
0.556232
0.481108
0.439495
0.416029
0.404062
0.398964
0.39793
0.401034
0.411854
0.432689
0.473383
0.547091
0.677547
0.878488
1.09347
0.525946
0.529067
1.09225
0.878472
0.681957
0.553583
0.47928
0.438278
0.415263
0.404762
0.400019
0.398866
0.400878
0.410174
0.430473
0.470657
0.542737
0.671194
0.871872
1.09058
0.523281
0.52673
1.08832
0.873743
0.678336
0.55115
0.477457
0.437023
0.414972
0.403992
0.399233
0.398144
0.400852
0.408955
0.428564
0.468046
0.538445
0.664986
0.86476
1.08687
0.520061
0.525173
1.0856
0.869496
0.674278
0.548339
0.475483
0.435544
0.414043
0.404124
0.399453
0.398323
0.401559
0.408259
0.426814
0.465417
0.534192
0.659002
0.858465
1.08355
0.516988
0.522529
1.08174
0.864047
0.669758
0.545356
0.473584
0.434355
0.414056
0.405306
0.400694
0.398573
0.400213
0.407985
0.425313
0.462626
0.529544
0.652254
0.851028
1.0788
0.513113
0.520033
1.07795
0.858817
0.665096
0.542099
0.471658
0.433193
0.414403
0.404607
0.400063
0.399325
0.400051
0.408276
0.424911
0.459924
0.525107
0.645848
0.843996
1.07518
0.509496
0.517622
1.07426
0.853171
0.659999
0.538612
0.469755
0.431875
0.413347
0.405305
0.401006
0.398445
0.399732
0.407771
0.424954
0.456934
0.520204
0.638736
0.836183
1.0702
0.504958
0.514957
1.07101
0.847839
0.654961
0.535025
0.467984
0.430573
0.41327
0.404169
0.400498
0.398687
0.399457
0.40667
0.422681
0.453972
0.515349
0.631641
0.828101
1.06469
0.500315
0.511845
1.06646
0.84142
0.649254
0.531002
0.466127
0.430233
0.412875
0.404818
0.399967
0.399807
0.399378
0.405168
0.421057
0.450772
0.5098
0.623799
0.819689
1.05936
0.495754
0.508755
1.06306
0.835423
0.643541
0.526673
0.463694
0.43034
0.413087
0.404134
0.399761
0.398837
0.399249
0.405015
0.419445
0.44734
0.504045
0.615809
0.81076
1.05315
0.491001
0.505031
1.05816
0.82847
0.637364
0.52215
0.46041
0.428562
0.413861
0.405216
0.400026
0.398041
0.398758
0.405488
0.417249
0.443238
0.49781
0.607307
0.801318
1.04703
0.486364
0.501784
1.05449
0.821818
0.631085
0.51768
0.458128
0.427968
0.412945
0.404326
0.400197
0.398926
0.398621
0.403692
0.414516
0.439094
0.491713
0.59894
0.792015
1.04056
0.48195
0.497773
1.04943
0.814451
0.624564
0.513018
0.455006
0.425785
0.411494
0.40343
0.400933
0.398033
0.398688
0.402307
0.412189
0.435111
0.485284
0.590052
0.782588
1.03487
0.478124
0.494701
1.04578
0.807337
0.617831
0.508267
0.452316
0.423664
0.41
0.40361
0.399603
0.39738
0.397451
0.401483
0.410114
0.430989
0.478844
0.581361
0.773597
1.03001
0.47465
0.491298
1.042
0.79956
0.610764
0.503333
0.449516
0.422473
0.408759
0.402141
0.400234
0.397599
0.397668
0.400609
0.407851
0.42696
0.472557
0.572589
0.764551
1.02587
0.471402
0.48776
1.03782
0.790959
0.603056
0.498048
0.446186
0.421865
0.40903
0.401773
0.398343
0.397799
0.39661
0.399109
0.40552
0.423475
0.466751
0.563915
0.755121
1.02136
0.467573
0.484199
1.03387
0.782197
0.595309
0.493034
0.442322
0.419461
0.40868
0.401849
0.397992
0.396187
0.395307
0.397228
0.402579
0.420193
0.461309
0.555607
0.745758
1.01713
0.463682
0.47968
1.02921
0.771531
0.586296
0.488059
0.438351
0.41689
0.408
0.402433
0.397768
0.395432
0.394033
0.395194
0.400395
0.417934
0.45647
0.547363
0.735681
1.01154
0.45831
0.474587
1.02425
0.760112
0.576624
0.483282
0.4356
0.414652
0.4068
0.400353
0.397611
0.395639
0.394083
0.393701
0.398161
0.415221
0.451428
0.53886
0.724934
1.00608
0.452582
0.467441
1.01738
0.746379
0.565225
0.477565
0.434095
0.414391
0.405322
0.399949
0.397713
0.396559
0.394473
0.39386
0.397854
0.413003
0.44652
0.529973
0.712833
0.998685
0.444892
0.458377
1.00846
0.730772
0.55262
0.470342
0.431363
0.414936
0.404191
0.399557
0.397412
0.39603
0.395703
0.394088
0.398082
0.410323
0.44119
0.520197
0.698555
0.988402
0.435248
0.446825