/*--------------------------------*- C++ -*----------------------------------*\
  =========                 |
  \\      /  F ield         | OpenFOAM: The Open Source CFD Toolbox
   \\    /   O peration     | Website:  https://openfoam.org
    \\  /    A nd           | Version:  6
     \\/     M anipulation  |
\*---------------------------------------------------------------------------*/
FoamFile
{
    version     2.0;
    format      ascii;
    class       volScalarField;
    location    "26";
    object      k;
}
// * * * * * * * * * * * * * * * * * * * * * * * * * * * * * * * * * * * * * //

dimensions      [0 2 -2 0 0 0 0];

internalField   nonuniform List<scalar> 
130000
(
0.374633
0.372018
0.369241
0.366351
0.363351
0.360255
0.357087
0.353874
0.350652
0.347457
0.344326
0.341297
0.338404
0.335675
0.333136
0.330807
0.328702
0.326829
0.325194
0.323796
0.37493
0.372322
0.36955
0.366659
0.363653
0.360549
0.357368
0.354142
0.350905
0.347695
0.344549
0.341506
0.3386
0.33586
0.333311
0.330974
0.328862
0.326985
0.325347
0.323947
0.375227
0.372628
0.36986
0.366966
0.363954
0.360838
0.357644
0.354401
0.351147
0.347919
0.344756
0.341697
0.338775
0.336021
0.333461
0.331113
0.328993
0.327109
0.325465
0.32406
0.375497
0.372903
0.370135
0.367238
0.364217
0.36109
0.357881
0.354623
0.351351
0.348106
0.344926
0.34185
0.338911
0.336141
0.333565
0.331204
0.329072
0.327178
0.325526
0.324117
0.375714
0.373122
0.370353
0.36745
0.364422
0.361284
0.358062
0.354789
0.351501
0.348237
0.345037
0.341941
0.338983
0.336195
0.333604
0.331232
0.329091
0.32719
0.325533
0.324121
0.375879
0.373285
0.370511
0.367602
0.364564
0.361415
0.358178
0.354886
0.351577
0.348292
0.345074
0.341963
0.338992
0.336192
0.333594
0.331215
0.32907
0.327167
0.325509
0.324097
0.376
0.3734
0.370617
0.367698
0.364647
0.361481
0.358223
0.354913
0.351587
0.348287
0.345058
0.341938
0.338961
0.33616
0.333559
0.331179
0.329033
0.327131
0.325475
0.324066
0.376089
0.373477
0.370682
0.367748
0.364678
0.361492
0.358216
0.354892
0.351556
0.348249
0.345013
0.341887
0.338907
0.336104
0.333503
0.331124
0.328981
0.327082
0.32543
0.324025
0.376159
0.373532
0.370719
0.367768
0.364676
0.361473
0.358185
0.354849
0.351503
0.348188
0.344946
0.341816
0.338834
0.33603
0.333431
0.331055
0.328915
0.327021
0.325375
0.323976
0.376221
0.373576
0.370744
0.367773
0.364662
0.361442
0.35814
0.354791
0.351434
0.348111
0.344863
0.34173
0.338746
0.335944
0.333347
0.330974
0.32884
0.326952
0.325313
0.323921
0.376283
0.373617
0.370764
0.367771
0.364642
0.361405
0.358087
0.354724
0.351356
0.348025
0.344771
0.341634
0.33865
0.335849
0.333255
0.330888
0.32876
0.326878
0.325246
0.323862
0.37635
0.373663
0.370787
0.367771
0.364625
0.361369
0.358033
0.354656
0.351275
0.347935
0.344674
0.341534
0.338549
0.335749
0.333159
0.330797
0.328676
0.326802
0.325178
0.323802
0.376425
0.373717
0.37082
0.367782
0.364617
0.361338
0.357983
0.354589
0.351196
0.347845
0.344578
0.341434
0.338448
0.33565
0.333063
0.330706
0.328591
0.326725
0.325109
0.323742
0.376512
0.373782
0.370862
0.367801
0.364612
0.361313
0.357939
0.354528
0.351121
0.347759
0.344485
0.341337
0.338349
0.335552
0.332968
0.330617
0.328508
0.32665
0.325042
0.323683
0.376611
0.373859
0.370915
0.367829
0.364616
0.361299
0.357905
0.354476
0.351053
0.34768
0.344397
0.341244
0.338254
0.335458
0.332878
0.330531
0.328429
0.326577
0.324977
0.323626
0.376724
0.373951
0.370982
0.367871
0.364634
0.361295
0.357882
0.354433
0.350995
0.347609
0.344318
0.341159
0.338166
0.33537
0.332792
0.330449
0.328353
0.326509
0.324916
0.323573
0.376854
0.374059
0.371065
0.367928
0.364665
0.361302
0.357871
0.354403
0.350948
0.347549
0.344247
0.341082
0.338086
0.335289
0.332713
0.330374
0.328283
0.326445
0.32486
0.323525
0.377001
0.374184
0.371166
0.368002
0.364713
0.361324
0.357871
0.354386
0.350914
0.3475
0.344187
0.341014
0.338014
0.335215
0.33264
0.330305
0.328218
0.326386
0.324808
0.32348
0.377168
0.374329
0.371285
0.368094
0.364777
0.361361
0.357882
0.354381
0.350893
0.347463
0.344138
0.340957
0.337951
0.335151
0.332576
0.330243
0.32816
0.326334
0.324762
0.32344
0.377353
0.374493
0.371423
0.368205
0.364859
0.361416
0.357911
0.354386
0.350884
0.347439
0.344101
0.34091
0.337899
0.335095
0.332519
0.330188
0.328109
0.326287
0.324721
0.323406
0.377559
0.374677
0.371582
0.368335
0.36496
0.361488
0.357956
0.354407
0.350885
0.347428
0.344078
0.340877
0.337857
0.335049
0.332472
0.330142
0.328066
0.326248
0.324686
0.323377
0.377785
0.374883
0.371761
0.368485
0.365079
0.361578
0.358018
0.354443
0.350897
0.347427
0.344067
0.340855
0.337828
0.335014
0.332435
0.330104
0.32803
0.326216
0.324658
0.323354
0.378033
0.37511
0.371962
0.368657
0.36522
0.361687
0.358097
0.354496
0.350926
0.347435
0.344063
0.340845
0.337809
0.33499
0.332408
0.330077
0.328004
0.326192
0.324638
0.323338
0.378303
0.37536
0.372185
0.36885
0.365381
0.361817
0.358196
0.354566
0.350971
0.347458
0.344068
0.34084
0.337799
0.334976
0.33239
0.330058
0.327986
0.326176
0.324626
0.323329
0.378596
0.375633
0.372433
0.369067
0.365566
0.361968
0.358315
0.354656
0.351034
0.347498
0.344089
0.340846
0.3378
0.334972
0.332382
0.330049
0.327976
0.326169
0.324621
0.323328
0.378914
0.375932
0.372706
0.369309
0.365774
0.362142
0.358456
0.354765
0.351115
0.347554
0.344124
0.340865
0.337808
0.334976
0.332384
0.330048
0.327975
0.326168
0.324622
0.323328
0.379258
0.376259
0.373006
0.369578
0.366008
0.362341
0.358621
0.354897
0.351217
0.34763
0.344177
0.340898
0.337824
0.334983
0.332387
0.33005
0.327975
0.326165
0.324615
0.323319
0.37963
0.376614
0.373336
0.369876
0.366271
0.362568
0.358811
0.355054
0.351343
0.347727
0.34425
0.34095
0.337858
0.335
0.332394
0.330053
0.327974
0.32616
0.324609
0.323314
0.380031
0.377001
0.373697
0.370206
0.366565
0.362825
0.359031
0.355238
0.351495
0.34785
0.344347
0.341025
0.337915
0.335042
0.332423
0.330071
0.327987
0.326173
0.324621
0.323325
0.380465
0.377421
0.374093
0.37057
0.366893
0.363115
0.359283
0.355454
0.351676
0.348002
0.344472
0.341127
0.337998
0.33511
0.332479
0.330117
0.328026
0.326207
0.324653
0.323356
0.380933
0.377878
0.374527
0.370973
0.367259
0.363442
0.359571
0.355704
0.351892
0.348185
0.344627
0.341259
0.33811
0.335206
0.332562
0.33019
0.328092
0.326268
0.32471
0.323411
0.381439
0.378375
0.375003
0.371417
0.367667
0.36381
0.359899
0.355993
0.352144
0.348404
0.344817
0.341424
0.338253
0.335332
0.332674
0.330292
0.328185
0.326355
0.324792
0.323489
0.381987
0.378917
0.375524
0.371907
0.36812
0.364222
0.36027
0.356324
0.352437
0.348663
0.345045
0.341625
0.338432
0.335492
0.332819
0.330424
0.328308
0.32647
0.3249
0.323592
0.38258
0.379507
0.376095
0.372449
0.368624
0.364685
0.36069
0.356702
0.352775
0.348965
0.345315
0.341866
0.338649
0.335689
0.332999
0.33059
0.328462
0.326615
0.325037
0.323722
0.383223
0.380151
0.376723
0.373046
0.369184
0.365203
0.361164
0.357133
0.353165
0.349316
0.345632
0.342153
0.33891
0.335928
0.333219
0.330795
0.328654
0.326795
0.325208
0.323883
0.383922
0.380855
0.377411
0.373706
0.369806
0.365782
0.361698
0.357622
0.353611
0.349723
0.346002
0.342491
0.33922
0.336214
0.333484
0.331043
0.328887
0.327015
0.325416
0.32408
0.384682
0.381623
0.378168
0.374435
0.370497
0.36643
0.3623
0.358177
0.354121
0.35019
0.346431
0.342887
0.339585
0.336553
0.333801
0.33134
0.329168
0.327281
0.325668
0.324319
0.385509
0.382464
0.378999
0.375241
0.371266
0.367153
0.362976
0.358805
0.354702
0.350727
0.346928
0.343347
0.340014
0.336953
0.334177
0.331694
0.329503
0.327599
0.32597
0.324607
0.386411
0.383386
0.379915
0.376132
0.37212
0.367962
0.363736
0.359515
0.355363
0.351342
0.3475
0.343881
0.340513
0.337422
0.334619
0.332113
0.3299
0.327978
0.326331
0.32495
0.387394
0.384396
0.380924
0.377119
0.37307
0.368867
0.36459
0.360318
0.356115
0.352046
0.348159
0.344499
0.341094
0.33797
0.335138
0.332606
0.33037
0.328425
0.326758
0.325357
0.38847
0.385506
0.382038
0.378212
0.374128
0.369879
0.365551
0.361225
0.35697
0.35285
0.348916
0.345212
0.341768
0.338609
0.335745
0.333184
0.330922
0.328953
0.327262
0.325838
0.389648
0.386728
0.383268
0.379426
0.375307
0.371013
0.366633
0.362252
0.357942
0.353769
0.349784
0.346034
0.342548
0.339351
0.336453
0.33386
0.331569
0.329572
0.327855
0.326404
0.39094
0.388073
0.38463
0.380775
0.376624
0.372285
0.367852
0.363415
0.359047
0.354819
0.350782
0.346983
0.343452
0.340214
0.337278
0.334651
0.332327
0.330299
0.328551
0.32707
0.392359
0.389559
0.386139
0.382278
0.378097
0.373714
0.369227
0.364733
0.360307
0.356021
0.351929
0.348078
0.344499
0.341217
0.33824
0.335575
0.333214
0.331152
0.32937
0.327854
0.393922
0.391202
0.387816
0.383954
0.379747
0.375322
0.370783
0.36623
0.361743
0.357397
0.353248
0.349343
0.345712
0.342383
0.339361
0.336655
0.334254
0.332153
0.330331
0.328775
0.395645
0.393022
0.389683
0.385827
0.3816
0.377135
0.372544
0.367932
0.363384
0.358977
0.354767
0.350805
0.347121
0.34374
0.34067
0.337918
0.335473
0.333327
0.331461
0.329859
0.397551
0.395045
0.391766
0.387927
0.383685
0.379184
0.374543
0.369874
0.365264
0.360793
0.356521
0.352499
0.348757
0.345322
0.342201
0.339398
0.336903
0.334708
0.332791
0.331136
0.399661
0.397296
0.394096
0.390286
0.386038
0.381506
0.376819
0.372093
0.36742
0.362886
0.35855
0.354465
0.350663
0.34717
0.343992
0.341134
0.338585
0.336334
0.334359
0.332643
0.402005
0.39981
0.396709
0.392944
0.3887
0.384146
0.379416
0.374636
0.369903
0.365304
0.360903
0.356754
0.352889
0.349334
0.346095
0.343177
0.340567
0.338253
0.336212
0.334426
0.404616
0.402624
0.399647
0.395946
0.391721
0.387154
0.382389
0.37756
0.372768
0.368106
0.363639
0.359424
0.355494
0.351873
0.34857
0.345585
0.342907
0.340522
0.338406
0.336538
0.40753
0.405782
0.402961
0.399348
0.39516
0.390594
0.385804
0.380933
0.376087
0.371365
0.366833
0.362552
0.358553
0.354864
0.351491
0.348434
0.34568
0.343214
0.341011
0.339048
0.41079
0.409335
0.406711
0.403216
0.39909
0.394543
0.389743
0.384839
0.379947
0.375169
0.370576
0.366229
0.362161
0.3584
0.354951
0.351815
0.348976
0.346419
0.344115
0.34204
0.414447
0.413348
0.41097
0.407633
0.4036
0.399097
0.394305
0.389385
0.384459
0.379633
0.374984
0.370573
0.366437
0.362602
0.359073
0.355849
0.352915
0.350252
0.34783
0.345623
0.418566
0.417897
0.415828
0.412701
0.408801
0.404376
0.399621
0.394707
0.389764
0.384905
0.380209
0.375741
0.371538
0.367628
0.364013
0.360693
0.357649
0.354863
0.352301
0.349936
0.423226
0.42308
0.421398
0.418548
0.414839
0.410539
0.40586
0.400985
0.396053
0.391182
0.386457
0.381944
0.377681
0.373696
0.36999
0.366563
0.363394
0.360461
0.357729
0.355169
0.428528
0.42901
0.427826
0.425342
0.421901
0.417794
0.41325
0.408465
0.403587
0.398742
0.394016
0.38948
0.385171
0.381117
0.377318
0.37377
0.370451
0.367339
0.364394
0.361586
0.434612
0.435859
0.435307
0.433312
0.430248
0.426431
0.42211
0.417494
0.412741
0.407983
0.403309
0.398791
0.394464
0.390356
0.386463
0.38278
0.37928
0.37594
0.372719
0.369586
0.441623
0.443835
0.444099
0.442765
0.440236
0.436856
0.432894
0.428573
0.424061
0.419494
0.414963
0.410536
0.406248
0.402119
0.398142
0.394307
0.390583
0.386945
0.383351
0.379769
0.449762
0.453247
0.454543
0.454129
0.452371
0.449651
0.446259
0.442434
0.438351
0.434149
0.429914
0.425711
0.421562
0.41748
0.413449
0.40945
0.405447
0.40141
0.397297
0.39308
0.459303
0.464493
0.467181
0.468023
0.467373
0.465643
0.463141
0.460122
0.456762
0.4532
0.449511
0.445747
0.441912
0.438003
0.433985
0.429828
0.425481
0.420913
0.416077
0.410953
0.470642
0.478088
0.482777
0.485276
0.48624
0.485978
0.484827
0.483059
0.480852
0.478332
0.475555
0.47255
0.469293
0.465757
0.461878
0.457606
0.452869
0.447625
0.441818
0.435432
0.484335
0.494781
0.502237
0.507217
0.510293
0.51216
0.512959
0.513016
0.512512
0.511537
0.510122
0.508275
0.505935
0.503039
0.499488
0.495204
0.490083
0.48406
0.477056
0.469047
0.501107
0.515592
0.526767
0.535146
0.54137
0.545996
0.549349
0.551835
0.553681
0.55476
0.55514
0.554833
0.553731
0.551745
0.548734
0.544594
0.53918
0.532393
0.524105
0.514252
0.521884
0.54173
0.557828
0.570664
0.58094
0.589252
0.59601
0.601531
0.605959
0.609338
0.611733
0.613254
0.613582
0.612678
0.610371
0.606533
0.600984
0.593583
0.584131
0.572488
0.547794
0.57456
0.596905
0.615269
0.630441
0.643097
0.653703
0.662603
0.669966
0.675907
0.680427
0.683534
0.685254
0.685487
0.683938
0.680501
0.674971
0.667168
0.656817
0.64368
0.580099
0.615461
0.645326
0.670125
0.6908
0.708172
0.722817
0.735165
0.745456
0.753867
0.760438
0.765207
0.768144
0.769307
0.768456
0.76543
0.760008
0.751971
0.740978
0.726692
0.620109
0.665657
0.704075
0.735908
0.762384
0.784565
0.803206
0.818881
0.831934
0.842628
0.851072
0.857359
0.861471
0.863437
0.863135
0.860491
0.855217
0.847038
0.835561
0.820372
0.66902
0.726057
0.773695
0.812831
0.845148
0.872052
0.89454
0.913365
0.928998
0.941804
0.951962
0.959622
0.964798
0.967508
0.96769
0.96539
0.960273
0.951979
0.940081
0.9241
0.727807
0.797206
0.85436
0.900824
0.938888
0.970376
0.996563
1.0184
1.03648
1.05129
1.06306
1.07201
1.07819
1.08165
1.08229
1.08024
1.07527
1.06686
1.05455
1.0378
0.797125
0.87931
0.946006
0.999696
1.04338
1.07934
1.10912
1.13388
1.15435
1.17109
1.18443
1.19463
1.20177
1.20593
1.20703
1.20524
1.20038
1.19184
1.17911
1.1616
0.877317
0.972345
1.04845
1.10923
1.15842
1.19876
1.23207
1.2597
1.2825
1.30113
1.316
1.32742
1.3355
1.34036
1.3419
1.34035
1.33559
1.32693
1.31379
1.29553
0.968435
1.07611
1.16141
1.22911
1.2837
1.32833
1.36509
1.39549
1.42055
1.441
1.45733
1.46991
1.47889
1.48439
1.48636
1.48505
1.4804
1.47165
1.45815
1.43922
1.07032
1.19026
1.28447
1.35889
1.41869
1.46744
1.50747
1.5405
1.56764
1.58976
1.60741
1.62102
1.6308
1.63689
1.63925
1.63816
1.63365
1.62487
1.61112
1.59168
1.18258
1.31424
1.41695
1.49774
1.56243
1.61497
1.65796
1.69328
1.72219
1.74568
1.76438
1.77879
1.78918
1.79572
1.79839
1.79751
1.79316
1.78447
1.77065
1.75095
1.30462
1.44721
1.55777
1.64434
1.71334
1.76909
1.81446
1.8515
1.88164
1.90598
1.92527
1.94008
1.95075
1.95751
1.96036
1.95964
1.95549
1.94702
1.93339
1.91382
1.43549
1.58787
1.70528
1.79666
1.86902
1.92703
1.97381
2.01166
2.04215
2.06653
2.08567
2.10025
2.11068
2.11726
2.12004
2.11939
2.11545
2.10735
2.09427
2.07538
1.57382
1.73434
1.85705
1.95175
2.02598
2.08478
2.13155
2.16881
2.19833
2.22152
2.2394
2.25278
2.26217
2.26796
2.27027
2.2695
2.26573
2.25819
2.2461
2.22862
1.71769
1.88396
2.00973
2.10555
2.17948
2.23692
2.28159
2.31625
2.3429
2.36315
2.37818
2.38899
2.39618
2.40027
2.40148
2.40024
2.39652
2.38971
2.37914
2.36396
1.8645
2.03324
2.15889
2.25272
2.32328
2.37637
2.41604
2.44535
2.46653
2.4814
2.49139
2.49777
2.50123
2.50232
2.50148
2.49918
2.49521
2.48929
2.48085
2.46903
2.01089
2.17767
2.2989
2.38654
2.44959
2.49431
2.52508
2.5455
2.55786
2.56409
2.56586
2.56417
2.56041
2.55584
2.55081
2.54589
2.54107
2.53624
2.53092
2.52442
2.15278
2.31186
2.42303
2.49893
2.54907
2.58029
2.5967
2.6015
2.59884
2.59201
2.58375
2.57369
2.56325
2.55329
2.54437
2.53693
2.53111
2.52691
2.52401
2.52187
2.28541
2.42957
2.52354
2.58074
2.61037
2.61951
2.61632
2.60434
2.58653
2.56507
2.54054
2.51731
2.49595
2.47718
2.46155
2.44956
2.44151
2.43759
2.43766
2.4416
2.40364
2.52409
2.59197
2.62022
2.62259
2.60646
2.57637
2.5391
2.49795
2.45565
2.4146
2.37651
2.34243
2.31315
2.28923
2.27121
2.25959
2.255
2.25679
2.26365
2.50234
2.58896
2.61885
2.6119
2.57617
2.5231
2.45989
2.39237
2.32482
2.26027
2.20072
2.14734
2.10071
2.06114
2.0288
2.00401
1.98727
1.97945
1.97996
1.98724
2.57642
2.61635
2.60142
2.54354
2.46023
2.36281
2.26034
2.1596
2.06511
1.97955
1.904
1.83858
1.78274
1.73579
1.69709
1.66634
1.64374
1.62988
1.62581
1.63024
2.62159
2.60542
2.5263
2.40811
2.26807
2.12086
1.97768
1.84611
1.73018
1.63111
1.54802
1.47903
1.42184
1.37435
1.33486
1.30233
1.27646
1.25764
1.24751
1.24607
2.63427
2.54609
2.39398
2.20488
2.00238
1.80577
1.6284
1.47738
1.35424
1.25668
1.1804
1.12067
1.07324
1.03486
1.0033
0.977189
0.955859
0.940077
0.931798
0.932139
2.61232
2.44053
2.20355
1.93828
1.67712
1.44457
1.25339
1.10616
0.998102
0.921028
0.866406
0.827168
0.798204
0.776507
0.761611
0.752287
0.747647
0.747808
0.757249
0.784954
2.54857
2.28167
1.95492
1.62156
1.3247
1.09113
0.921963
0.807574
0.733899
0.687728
0.659102
0.641498
0.630975
0.625388
0.62359
0.62579
0.632534
0.647552
0.691767
0.765891
2.43078
2.05849
1.64916
1.28169
0.997366
0.80457
0.686672
0.618957
0.580919
0.559665
0.548028
0.542161
0.540008
0.540668
0.543843
0.551083
0.568069
0.611172
0.697195
0.842821
2.23187
1.75202
1.29453
0.944079
0.722569
0.602718
0.543498
0.513606
0.49771
0.489239
0.48501
0.483459
0.483935
0.486336
0.491953
0.504692
0.535439
0.612403
0.769264
1.01251
1.91438
1.3562
0.916156
0.660672
0.546328
0.497116
0.472977
0.459814
0.45221
0.447701
0.445209
0.444342
0.44517
0.448435
0.456486
0.475717
0.524967
0.6448
0.89228
1.21806
1.46968
0.923172
0.63386
0.521042
0.474187
0.451073
0.438001
0.429626
0.423819
0.41978
0.417255
0.416314
0.4174
0.421675
0.432234
0.457477
0.522325
0.691321
1.01851
1.39316
1.09985
0.716398
0.542407
0.473721
0.443215
0.427013
0.416595
0.409153
0.403639
0.399682
0.397269
0.396611
0.398281
0.403602
0.41599
0.444856
0.518253
0.709512
1.07989
1.51888
1.04145
0.689601
0.515212
0.452112
0.424996
0.410238
0.400732
0.394034
0.389187
0.385799
0.383968
0.383902
0.386178
0.391954
0.404396
0.432246
0.502329
0.688522
1.08972
1.60279
1.13401
0.707244
0.504667
0.438283
0.411273
0.397522
0.389249
0.383767
0.380106
0.377899
0.376935
0.377319
0.379606
0.384925
0.395976
0.419783
0.477999
0.63814
1.03518
1.6372
1.36524
0.749616
0.502198
0.428645
0.401573
0.389005
0.382165
0.378151
0.375814
0.374516
0.374026
0.374407
0.376153
0.38037
0.389163
0.407988
0.453637
0.582979
0.946704
1.62421
1.46532
0.753284
0.490591
0.418744
0.393994
0.383325
0.378069
0.3755
0.374184
0.373496
0.373253
0.373479
0.374451
0.376958
0.382717
0.3953
0.425814
0.513707
0.799336
1.49763
1.43862
0.662305
0.459088
0.404935
0.386312
0.378903
0.375828
0.374553
0.373839
0.37346
0.373324
0.373433
0.373875
0.374775
0.376828
0.382025
0.396111
0.441312
0.61868
1.19002
1.16464
0.548654
0.415402
0.385652
0.377687
0.375409
0.374808
0.374505
0.374403
0.374366
0.374345
0.374334
0.374362
0.374533
0.375099
0.376583
0.380403
0.391332
0.436975
0.728829
0.319379
0.318864
0.318298
0.317757
0.317248
0.316777
0.316349
0.315968
0.315637
0.31536
0.315141
0.31498
0.31488
0.31484
0.314859
0.314939
0.315079
0.315278
0.315534
0.315846
0.319599
0.319076
0.318507
0.317962
0.317449
0.316973
0.31654
0.316154
0.315819
0.315538
0.315314
0.315149
0.315045
0.315002
0.315018
0.315096
0.315234
0.31543
0.315685
0.315995
0.319776
0.319249
0.318675
0.318126
0.317608
0.317128
0.316689
0.316298
0.315958
0.315672
0.315443
0.315274
0.315166
0.315119
0.315132
0.315206
0.315341
0.315536
0.315788
0.316097
0.319925
0.319394
0.318817
0.318263
0.317741
0.317256
0.316813
0.316418
0.316073
0.315783
0.31555
0.315377
0.315266
0.315215
0.315225
0.315297
0.31543
0.315622
0.315872
0.316179
0.320055
0.319521
0.318939
0.318383
0.317857
0.317368
0.316922
0.316523
0.316175
0.315882
0.315646
0.315471
0.315357
0.315304
0.315311
0.315381
0.315512
0.315702
0.31595
0.316256
0.320172
0.319635
0.31905
0.31849
0.317962
0.317471
0.317022
0.31662
0.31627
0.315975
0.315737
0.315559
0.315443
0.315388
0.315394
0.315462
0.31559
0.315779
0.316026
0.31633
0.320282
0.319743
0.319155
0.318592
0.318061
0.317567
0.317116
0.316713
0.31636
0.316064
0.315824
0.315645
0.315527
0.315471
0.315475
0.315542
0.315669
0.315856
0.316101
0.316404
0.320387
0.319845
0.319255
0.318689
0.318154
0.317658
0.317205
0.3168
0.316447
0.316149
0.315909
0.31573
0.315611
0.315554
0.315556
0.31562
0.315745
0.315931
0.316174
0.316476
0.320489
0.319943
0.319349
0.318779
0.318241
0.317743
0.317288
0.316883
0.31653
0.316234
0.315996
0.315817
0.315698
0.315639
0.315638
0.315699
0.31582
0.316003
0.316244
0.316545
0.320582
0.320034
0.319434
0.318857
0.318314
0.317813
0.317358
0.316955
0.316606
0.316317
0.316084
0.315907
0.315788
0.315727
0.31572
0.315773
0.315886
0.316063
0.316303
0.316603
0.320625
0.320075
0.319477
0.318903
0.318365
0.317868
0.317416
0.317015
0.316669
0.316381
0.316146
0.315969
0.315848
0.315784
0.315772
0.315819
0.315929
0.316106
0.316346
0.316646
0.320632
0.320087
0.319496
0.318935
0.318412
0.317927
0.317478
0.317074
0.316719
0.316415
0.316165
0.315981
0.315857
0.315794
0.315785
0.315836
0.315954
0.316137
0.31638
0.316682
0.320666
0.320117
0.319525
0.318965
0.318444
0.317963
0.317513
0.317104
0.316739
0.316421
0.316161
0.315973
0.31585
0.315791
0.315791
0.315853
0.315978
0.316166
0.316414
0.316722
0.320731
0.320173
0.319572
0.318999
0.318462
0.317969
0.317511
0.317098
0.316732
0.316417
0.316168
0.315985
0.315866
0.31581
0.315814
0.31588
0.316008
0.316198
0.316447
0.316756
0.320827
0.32026
0.319647
0.319061
0.318508
0.317996
0.317528
0.317111
0.316747
0.316443
0.316199
0.31602
0.315904
0.315851
0.315857
0.315927
0.316056
0.316245
0.316491
0.316793
0.320952
0.320377
0.319756
0.319161
0.318598
0.318078
0.317604
0.317183
0.316817
0.316512
0.316268
0.316089
0.315974
0.315921
0.315928
0.315998
0.316126
0.316313
0.316554
0.31685
0.321103
0.320521
0.319893
0.319291
0.318722
0.318196
0.317716
0.31729
0.316921
0.316614
0.316368
0.316189
0.316072
0.31602
0.316027
0.316096
0.316223
0.316408
0.316646
0.316937
0.321279
0.320691
0.320057
0.319449
0.318874
0.318342
0.317857
0.317427
0.317053
0.316743
0.316496
0.316315
0.316198
0.316146
0.316152
0.316221
0.316347
0.316531
0.316766
0.317053
0.32148
0.320887
0.320248
0.319634
0.319053
0.318516
0.318026
0.317591
0.317215
0.316902
0.316653
0.316471
0.316353
0.3163
0.316306
0.316375
0.3165
0.316682
0.316914
0.317198
0.321708
0.32111
0.320466
0.319848
0.319261
0.318719
0.318224
0.317786
0.317406
0.317091
0.316839
0.316656
0.316538
0.316485
0.31649
0.316558
0.316683
0.316863
0.317092
0.31737
0.321966
0.321364
0.320716
0.320093
0.319503
0.318955
0.318456
0.318014
0.317631
0.317314
0.317061
0.316876
0.316757
0.316704
0.316709
0.316776
0.316899
0.317076
0.317301
0.317574
0.322256
0.321651
0.321
0.320374
0.319779
0.319228
0.318725
0.31828
0.317894
0.317574
0.317319
0.317133
0.317013
0.316959
0.316963
0.317029
0.317149
0.317323
0.317543
0.317809
0.322583
0.321975
0.321323
0.320693
0.320095
0.31954
0.319034
0.318586
0.318197
0.317875
0.317619
0.317432
0.317311
0.317255
0.317258
0.317321
0.317439
0.317609
0.317823
0.318081
0.322949
0.322341
0.321687
0.321055
0.320454
0.319896
0.319387
0.318936
0.318545
0.31822
0.317962
0.317774
0.317651
0.317594
0.317594
0.317655
0.317769
0.317933
0.318141
0.31839
0.323362
0.322753
0.322099
0.321465
0.320862
0.320301
0.319789
0.319335
0.318942
0.318615
0.318355
0.318165
0.31804
0.317981
0.317979
0.318037
0.318145
0.318304
0.318504
0.318743
0.323826
0.323218
0.322565
0.32193
0.321324
0.320761
0.320246
0.31979
0.319394
0.319065
0.318803
0.318611
0.318484
0.318422
0.318417
0.31847
0.318573
0.318725
0.318915
0.319142
0.324352
0.323745
0.323093
0.322459
0.321851
0.321286
0.320769
0.320309
0.319911
0.31958
0.319315
0.319121
0.318991
0.318928
0.318919
0.318966
0.319063
0.319206
0.319384
0.319598
0.324946
0.324343
0.323694
0.32306
0.322452
0.321885
0.321365
0.320903
0.320502
0.320169
0.319901
0.319704
0.319571
0.319504
0.319491
0.319532
0.319621
0.319753
0.319919
0.320116
0.325622
0.325024
0.324379
0.323747
0.323139
0.322571
0.322049
0.321585
0.321181
0.320845
0.320575
0.320374
0.320238
0.320166
0.320147
0.320182
0.320261
0.320383
0.320533
0.320712
0.326391
0.325799
0.325162
0.324533
0.323926
0.323358
0.322834
0.322368
0.321962
0.321623
0.321349
0.321145
0.321004
0.320927
0.320902
0.320928
0.320996
0.321104
0.321237
0.321394
0.327269
0.326687
0.326058
0.325435
0.324831
0.324263
0.323738
0.323271
0.322862
0.32252
0.322242
0.322034
0.321888
0.321804
0.321771
0.321788
0.321843
0.321935
0.322047
0.322179
0.328272
0.327703
0.327086
0.326471
0.325871
0.325304
0.32478
0.324311
0.323899
0.323554
0.323273
0.32306
0.322907
0.322816
0.322774
0.322778
0.322819
0.322891
0.32298
0.323082
0.329423
0.328871
0.328269
0.327665
0.327071
0.326507
0.325984
0.325514
0.3251
0.324752
0.324466
0.324247
0.324087
0.323987
0.323934
0.323925
0.323947
0.323997
0.324058
0.324126
0.330744
0.330213
0.329632
0.329041
0.328456
0.327898
0.327377
0.326907
0.326491
0.32614
0.325849
0.325624
0.325455
0.325344
0.325277
0.325251
0.325252
0.325276
0.325303
0.32533
0.332265
0.331762
0.331207
0.330634
0.330061
0.329511
0.328993
0.328525
0.328108
0.327753
0.327457
0.327224
0.327045
0.326921
0.326837
0.326792
0.326767
0.326759
0.326748
0.326727
0.334021
0.333552
0.333029
0.33248
0.331924
0.331384
0.330872
0.330406
0.329989
0.329631
0.329328
0.329087
0.328896
0.328756
0.328652
0.328582
0.328527
0.328481
0.328424
0.328346
0.336052
0.335627
0.335145
0.334627
0.334092
0.333567
0.333065
0.332603
0.332185
0.331824
0.331515
0.331262
0.331057
0.330898
0.330771
0.33067
0.330578
0.330487
0.330374
0.33023
0.338408
0.338038
0.337609
0.337131
0.336625
0.33612
0.33563
0.335174
0.334758
0.334393
0.334076
0.333811
0.333588
0.333405
0.333248
0.33311
0.332973
0.332826
0.332647
0.332423
0.341152
0.340855
0.340494
0.340068
0.339601
0.339123
0.338651
0.338206
0.337793
0.337424
0.337096
0.336814
0.336568
0.336355
0.33616
0.335976
0.335781
0.335566
0.335305
0.334985
0.344366
0.344166
0.343897
0.343544
0.343131
0.342693
0.342247
0.341816
0.341408
0.341034
0.340692
0.340388
0.340109
0.339855
0.339608
0.339361
0.339093
0.338791
0.338427
0.337986
0.34817
0.348109
0.347972
0.347724
0.347392
0.347014
0.346608
0.346201
0.345799
0.345418
0.345055
0.344716
0.34439
0.344075
0.343753
0.343419
0.343048
0.342627
0.342128
0.341532
0.352784
0.352917
0.352974
0.352887
0.352682
0.3524
0.35206
0.351692
0.351303
0.35091
0.350511
0.350115
0.34971
0.349297
0.348859
0.348389
0.347864
0.347271
0.34658
0.345771
0.358554
0.358976
0.35934
0.359526
0.359535
0.359416
0.359192
0.358892
0.358525
0.358112
0.357651
0.357155
0.356615
0.356035
0.355399
0.354705
0.353931
0.353067
0.352083
0.35096
0.366112
0.367055
0.367919
0.368513
0.368893
0.369052
0.36903
0.368854
0.36853
0.368083
0.367515
0.366843
0.366064
0.365188
0.364207
0.363126
0.361928
0.360612
0.359151
0.357529
0.376478
0.378304
0.380066
0.381399
0.38231
0.382914
0.383255
0.383295
0.383051
0.382555
0.38181
0.380844
0.379658
0.378278
0.376705
0.37496
0.373038
0.370954
0.36869
0.366243
0.391284
0.394558
0.397763
0.400299
0.402165
0.403423
0.404169
0.404552
0.404443
0.403891
0.402894
0.401489
0.399683
0.397519
0.39501
0.392201
0.389105
0.385761
0.382174
0.378368
0.41281
0.41821
0.423462
0.42766
0.430803
0.432986
0.434273
0.434896
0.43502
0.434443
0.43316
0.431219
0.428622
0.425432
0.421658
0.417366
0.41258
0.40737
0.401767
0.395844
0.443449
0.451473
0.459112
0.465145
0.469627
0.472735
0.474574
0.475432
0.475666
0.475197
0.473688
0.471258
0.467897
0.463665
0.458543
0.452587
0.445798
0.438257
0.429999
0.421147
0.484609
0.495182
0.504968
0.512528
0.518054
0.521848
0.524107
0.525204
0.525525
0.525116
0.52348
0.520749
0.516875
0.511896
0.505726
0.498381
0.489777
0.47995
0.468865
0.456642
0.535783
0.548242
0.559483
0.567995
0.574138
0.578342
0.580855
0.582089
0.582503
0.582175
0.580521
0.577682
0.57358
0.568237
0.561505
0.553345
0.543553
0.532062
0.518673
0.50339
0.595189
0.608859
0.62107
0.630257
0.636887
0.64145
0.644219
0.645606
0.646104
0.645872
0.644237
0.64135
0.637111
0.631544
0.624469
0.615832
0.605357
0.592895
0.578053
0.560618
0.661572
0.676321
0.689501
0.699431
0.706638
0.711651
0.714748
0.71633
0.716934
0.716811
0.715205
0.712267
0.70788
0.702073
0.694655
0.685572
0.674518
0.661311
0.645456
0.626589
0.735103
0.751152
0.765535
0.776419
0.784374
0.789965
0.793481
0.795311
0.796031
0.796029
0.794495
0.791513
0.78695
0.780847
0.773002
0.763373
0.751632
0.737588
0.720694
0.700512
0.816679
0.834354
0.850242
0.86233
0.871233
0.87756
0.88161
0.883756
0.884503
0.88457
0.883315
0.880305
0.875526
0.869049
0.860673
0.850358
0.837761
0.822683
0.804533
0.782824
0.907496
0.927138
0.944842
0.958393
0.96846
0.975705
0.980463
0.983151
0.984199
0.984347
0.983127
0.979997
0.97493
0.968001
0.958988
0.947855
0.93423
0.917904
0.898238
0.874695
1.00882
1.03078
1.05062
1.06591
1.07736
1.0857
1.09128
1.09457
1.09599
1.0963
1.09516
1.09191
1.08653
1.07908
1.06933
1.05725
1.04242
1.02463
1.00318
0.977472
1.12204
1.14669
1.16901
1.18632
1.1994
1.20904
1.21565
1.21969
1.22156
1.22207
1.22101
1.21762
1.21187
1.20384
1.19327
1.18011
1.16392
1.14446
1.12096
1.09276
1.24862
1.27635
1.30151
1.32114
1.33611
1.34727
1.35504
1.35995
1.36236
1.36319
1.36226
1.35876
1.35263
1.34396
1.33248
1.31811
1.3004
1.27905
1.25322
1.22218
1.39018
1.42141
1.44981
1.47211
1.48926
1.50218
1.51134
1.51728
1.52034
1.52155
1.5208
1.51719
1.51068
1.50133
1.48885
1.47317
1.45376
1.4303
1.40188
1.36765
1.54841
1.58361
1.61571
1.64105
1.66069
1.67564
1.68641
1.69358
1.69744
1.69909
1.69857
1.6949
1.68801
1.67796
1.66441
1.64727
1.626
1.6002
1.5689
1.53111
1.72518
1.76486
1.80112
1.82992
1.85241
1.86969
1.88232
1.89092
1.89577
1.89798
1.89777
1.89409
1.88683
1.87603
1.86134
1.84265
1.81933
1.79098
1.75649
1.71477
1.92241
1.96712
2.00806
2.04077
2.0665
2.08644
2.1012
2.11146
2.11746
2.12034
2.12052
2.11692
2.10934
2.0978
2.08191
2.06153
2.03601
2.00486
1.96688
1.92083
2.14211
2.19244
2.23863
2.27574
2.30514
2.3281
2.34531
2.35748
2.36486
2.36839
2.36888
2.36573
2.35793
2.34565
2.32849
2.30633
2.27843
2.24425
2.20247
2.1517
2.38637
2.44291
2.49493
2.53694
2.57044
2.59682
2.61684
2.63125
2.64033
2.64495
2.64599
2.64304
2.63495
2.62188
2.6034
2.57932
2.54888
2.51144
2.46556
2.40967
2.65792
2.72124
2.77963
2.82701
2.86503
2.89518
2.91831
2.93525
2.9463
2.95222
2.95392
2.95119
2.94282
2.92894
2.90909
2.88303
2.8499
2.809
2.75873
2.69735
2.95986
3.03051
3.09579
3.14896
3.19184
3.22605
3.25253
3.27219
3.28537
3.29278
3.2953
3.29289
3.28431
3.26966
3.24843
3.22033
3.18443
3.1399
3.08499
3.01774
3.29536
3.37386
3.44646
3.50579
3.55385
3.59237
3.62243
3.645
3.66047
3.66953
3.673
3.67104
3.66235
3.64701
3.62446
3.59433
3.55561
3.50735
3.44763
3.37424
3.6673
3.75403
3.8343
3.90007
3.95352
3.99656
4.03036
4.05599
4.0739
4.08475
4.08931
4.08791
4.07924
4.06335
4.03959
4.00753
3.96605
3.91406
3.84946
3.76977
4.07798
4.17314
4.26122
4.33354
4.39249
4.44011
4.47773
4.50649
4.52693
4.53968
4.54548
4.54477
4.53629