/*--------------------------------*- C++ -*----------------------------------*\
  =========                 |
  \\      /  F ield         | OpenFOAM: The Open Source CFD Toolbox
   \\    /   O peration     | Website:  https://openfoam.org
    \\  /    A nd           | Version:  6
     \\/     M anipulation  |
\*---------------------------------------------------------------------------*/
FoamFile
{
    version     2.0;
    format      ascii;
    class       volScalarField;
    location    "26";
    object      nut;
}
// * * * * * * * * * * * * * * * * * * * * * * * * * * * * * * * * * * * * * //

dimensions      [0 2 -1 0 0 0 0];

internalField   nonuniform List<scalar> 
130000
(
0.000903873
0.000908509
0.000912636
0.000916107
0.000918965
0.00092126
0.000923043
0.000924367
0.000925282
0.000925835
0.000926067
0.000926017
0.000925719
0.000925205
0.000924499
0.000923627
0.000922608
0.000921459
0.000920197
0.000918834
0.000903861
0.000908509
0.000912634
0.000916099
0.00091895
0.000921236
0.000923009
0.000924322
0.000925225
0.000925765
0.000925983
0.000925915
0.000925596
0.00092506
0.000924334
0.00092344
0.000922401
0.000921237
0.000919964
0.000918594
0.000903992
0.000908654
0.000912786
0.000916254
0.000919102
0.000921383
0.000923149
0.000924449
0.000925339
0.000925868
0.00092608
0.000926015
0.00092571
0.000925187
0.000924467
0.000923571
0.000922521
0.000921335
0.000920029
0.000918615
0.000904194
0.000908876
0.00091302
0.000916492
0.000919338
0.000921616
0.000923384
0.000924701
0.000925619
0.000926183
0.000926433
0.000926417
0.000926134
0.000925607
0.000924867
0.000923945
0.00092286
0.000921632
0.000920275
0.000918804
0.000904431
0.000909138
0.000913294
0.000916778
0.000919652
0.000921971
0.00092379
0.000925166
0.000926121
0.000926693
0.000926939
0.000926914
0.000926596
0.000926024
0.00092525
0.000924296
0.000923179
0.000921914
0.000920516
0.000919
0.000904689
0.000909427
0.000913615
0.000917148
0.000920091
0.000922462
0.000924307
0.000925691
0.000926618
0.000927145
0.000927341
0.000927241
0.000926872
0.000926257
0.00092545
0.000924464
0.000923316
0.000922024
0.000920602
0.000919064
0.000904955
0.00090974
0.000913987
0.00091758
0.000920563
0.000922928
0.000924732
0.00092605
0.000926932
0.00092742
0.000927584
0.000927455
0.000927064
0.000926442
0.000925616
0.000924608
0.000923438
0.000922124
0.000920683
0.000919128
0.000905207
0.000910047
0.000914346
0.000917957
0.000920898
0.000923229
0.000925001
0.000926299
0.000927166
0.000927652
0.000927802
0.000927655
0.000927245
0.000926604
0.000925756
0.000924727
0.000923536
0.000922203
0.000920743
0.000919173
0.000905422
0.0009103
0.000914611
0.000918226
0.000921141
0.000923461
0.000925238
0.00092653
0.000927388
0.000927863
0.000927998
0.000927833
0.000927405
0.000926743
0.000925874
0.000924824
0.000923613
0.00092226
0.000920783
0.000919198
0.000905605
0.000910505
0.000914827
0.000918447
0.000921365
0.000923684
0.000925459
0.000926744
0.000927593
0.000928055
0.000928175
0.000927993
0.000927545
0.000926862
0.000925973
0.000924902
0.00092367
0.000922298
0.000920804
0.000919205
0.000905771
0.000910685
0.00091501
0.000918634
0.000921567
0.000923893
0.000925667
0.000926946
0.000927784
0.000928233
0.000928337
0.000928137
0.000927669
0.000926966
0.000926056
0.000924964
0.000923712
0.000922321
0.00092081
0.000919196
0.000905932
0.000910858
0.000915178
0.000918815
0.000921774
0.000924101
0.00092587
0.00092714
0.000927967
0.000928401
0.000928488
0.000928269
0.000927782
0.000927058
0.000926127
0.000925013
0.000923741
0.000922331
0.000920802
0.000919172
0.000906101
0.000911046
0.000915381
0.00091903
0.000922
0.000924315
0.000926074
0.000927332
0.000928145
0.000928563
0.000928632
0.000928394
0.000927886
0.000927141
0.000926188
0.000925053
0.00092376
0.00092233
0.000920783
0.000919136
0.000906282
0.00091125
0.000915606
0.000919235
0.000922202
0.000924519
0.000926272
0.00092752
0.000928319
0.000928721
0.000928772
0.000928514
0.000927985
0.000927219
0.000926243
0.000925086
0.000923772
0.000922322
0.000920756
0.000919093
0.000906469
0.000911452
0.000915809
0.000919417
0.000922376
0.000924723
0.000926472
0.000927709
0.000928493
0.000928878
0.00092891
0.000928632
0.000928081
0.000927292
0.000926294
0.000925115
0.000923779
0.000922308
0.000920725
0.000919046
0.000906666
0.000911665
0.000916026
0.000919625
0.000922566
0.000924923
0.000926676
0.0009279
0.000928668
0.000929035
0.000929047
0.000928748
0.000928175
0.000927362
0.000926341
0.000925139
0.000923782
0.000922292
0.000920691
0.000918998
0.000906876
0.000911892
0.000916265
0.000919877
0.000922788
0.000925122
0.000926885
0.000928093
0.000928845
0.000929193
0.000929184
0.000928863
0.000928267
0.000927431
0.000926385
0.00092516
0.00092378
0.00092227
0.000920652
0.000918948
0.000907096
0.00091213
0.000916512
0.000920127
0.000923037
0.000925315
0.000927062
0.000928283
0.000929024
0.000929352
0.000929322
0.000928977
0.000928356
0.000927495
0.000926424
0.000925173
0.000923768
0.000922235
0.000920597
0.000918879
0.000907328
0.000912379
0.000916768
0.000920381
0.000923277
0.00092552
0.00092723
0.000928464
0.000929204
0.000929511
0.000929457
0.000929088
0.000928441
0.000927553
0.000926454
0.000925175
0.00092374
0.000922173
0.000920496
0.000918745
0.00090757
0.000912639
0.000917037
0.000920651
0.000923544
0.000925787
0.000927444
0.000928641
0.000929385
0.000929669
0.00092959
0.000929194
0.00092852
0.000927603
0.000926475
0.000925165
0.0009237
0.000922101
0.00092039
0.000918627
0.000907823
0.00091291
0.000917315
0.000920928
0.000923815
0.000926044
0.000927685
0.000928812
0.000929527
0.000929814
0.000929721
0.000929297
0.000928593
0.000927646
0.000926488
0.000925148
0.000923655
0.000922039
0.000920325
0.000918555
0.000908087
0.000913191
0.000917604
0.000921216
0.000924093
0.000926304
0.000927916
0.000928989
0.000929646
0.000929918
0.000929828
0.000929393
0.000928665
0.000927689
0.000926501
0.000925133
0.000923615
0.000921978
0.000920256
0.000918464
0.000908361
0.000913484
0.000917904
0.000921515
0.000924384
0.000926583
0.000928179
0.000929236
0.000929813
0.000930021
0.000929928
0.000929495
0.00092874
0.000927737
0.000926527
0.000925139
0.0009236
0.000921941
0.000920207
0.000918456
0.000908647
0.000913788
0.000918216
0.000921826
0.000924688
0.000926874
0.000928453
0.000929493
0.000930054
0.000930193
0.000930046
0.000929579
0.000928806
0.000927788
0.000926561
0.000925156
0.000923601
0.000921923
0.000920164
0.000918424
0.000908945
0.000914105
0.000918541
0.00092215
0.000925004
0.000927177
0.000928739
0.000929757
0.000930291
0.0009304
0.000930162
0.000929632
0.000928857
0.00092783
0.000926594
0.00092518
0.000923622
0.000921959
0.000920219
0.000918497
0.000909256
0.000914436
0.000918881
0.00092249
0.000925337
0.000927497
0.000929043
0.000930041
0.000930555
0.00093064
0.000930342
0.000929763
0.000928937
0.000927874
0.000926606
0.000925169
0.000923601
0.000921945
0.00092023
0.000918495
0.000909583
0.000914784
0.000919237
0.000922846
0.000925686
0.000927835
0.000929365
0.000930345
0.00093084
0.000930906
0.000930598
0.000929967
0.000929051
0.000927907
0.000926603
0.000925161
0.000923594
0.000921913
0.000920158
0.000918375
0.000909925
0.000915148
0.000919612
0.000923221
0.000926055
0.000928192
0.000929708
0.000930671
0.000931145
0.000931188
0.000930851
0.000930181
0.000929219
0.000928041
0.000926693
0.0009252
0.000923597
0.000921861
0.000920061
0.000918211
0.000910285
0.000915531
0.000920005
0.000923616
0.000926445
0.000928572
0.000930074
0.000931022
0.000931481
0.000931509
0.000931158
0.000930476
0.000929503
0.000928277
0.000926868
0.000925291
0.000923628
0.000921878
0.000920058
0.000918193
0.000910662
0.000915933
0.000920419
0.000924032
0.000926855
0.000928973
0.000930464
0.000931399
0.000931845
0.000931862
0.000931503
0.000930814
0.000929834
0.000928592
0.000927177
0.000925602
0.000923896
0.000922111
0.000920271
0.000918395
0.000911059
0.000916355
0.000920853
0.000924467
0.000927286
0.000929396
0.000930874
0.000931798
0.000932233
0.000932241
0.000931876
0.000931188
0.00093022
0.000929014
0.000927607
0.000926027
0.000924291
0.000922495
0.000920642
0.000918751
0.000911475
0.000916797
0.000921306
0.000924923
0.000927737
0.000929836
0.000931303
0.000932213
0.000932636
0.000932633
0.000932261
0.000931569
0.000930602
0.000929402
0.000928003
0.000926442
0.00092475
0.000922965
0.000921108
0.000919198
0.00091191
0.000917259
0.000921779
0.000925397
0.000928204
0.000930293
0.000931745
0.000932641
0.000933049
0.000933034
0.00093265
0.00093195
0.000930978
0.000929777
0.000928381
0.000926828
0.000925147
0.000923369
0.000921517
0.000919611
0.000912364
0.00091774
0.000922271
0.000925888
0.000928688
0.000930763
0.000932199
0.000933077
0.000933468
0.000933436
0.000933038
0.000932326
0.000931344
0.000930135
0.000928735
0.00092718
0.000925499
0.000923721
0.00092187
0.000919967
0.000912839
0.000918241
0.000922782
0.000926397
0.000929186
0.000931245
0.000932662
0.00093352
0.000933889
0.000933837
0.000933421
0.000932692
0.000931696
0.000930475
0.000929066
0.000927503
0.000925816
0.000924034
0.000922179
0.000920274
0.000913337
0.000918764
0.000923312
0.000926922
0.000929698
0.000931738
0.000933133
0.000933966
0.000934311
0.000934235
0.000933796
0.000933047
0.000932033
0.000930797
0.000929374
0.0009278
0.000926104
0.000924315
0.000922455
0.000920545
0.000913856
0.000919307
0.000923861
0.000927464
0.000930223
0.000932241
0.00093361
0.000934416
0.000934733
0.00093463
0.000934165
0.000933392
0.000932357
0.000931102
0.000929663
0.000928076
0.00092637
0.000924572
0.000922706
0.000920792
0.000914397
0.000919872
0.000924429
0.000928022
0.000930762
0.000932755
0.000934094
0.000934869
0.000935154
0.000935021
0.000934527
0.000933727
0.000932668
0.000931392
0.000929935
0.000928334
0.000926616
0.00092481
0.000922938
0.000921022
0.000914962
0.000920458
0.000925016
0.000928597
0.000931314
0.000933278
0.000934584
0.000935324
0.000935574
0.000935406
0.000934881
0.000934052
0.000932966
0.000931667
0.000930192
0.000928576
0.000926846
0.000925032
0.000923156
0.000921238
0.000915548
0.000921066
0.000925623
0.000929188
0.000931879
0.000933809
0.000935078
0.000935779
0.000935991
0.000935786
0.000935225
0.000934364
0.000933251
0.000931928
0.000930433
0.0009288
0.00092706
0.000925238
0.000923358
0.000921439
0.000916158
0.000921696
0.00092625
0.000929795
0.000932455
0.000934347
0.000935575
0.000936233
0.000936402
0.000936155
0.000935556
0.000934661
0.000933517
0.000932169
0.000930653
0.000929005
0.000927253
0.000925425
0.000923542
0.000921625
0.000916796
0.000922351
0.000926896
0.000930416
0.00093304
0.00093489
0.00093607
0.00093668
0.000936801
0.000936509
0.000935869
0.000934936
0.00093376
0.000932384
0.000930847
0.000929183
0.000927421
0.000925587
0.000923704
0.00092179
0.000917459
0.000923028
0.00092756
0.000931049
0.000933631
0.000935431
0.000936558
0.000937113
0.000937181
0.000936839
0.000936152
0.000935178
0.000933967
0.000932563
0.000931004
0.000929324
0.000927553
0.000925716
0.000923834
0.000921927
0.00091815
0.000923727
0.000928238
0.000931689
0.00093422
0.000935962
0.000937028
0.00093752
0.000937528
0.00093713
0.000936391
0.000935373
0.000934124
0.000932689
0.000931107
0.000929413
0.000927634
0.000925796
0.00092392
0.000922024
0.000918865
0.000924442
0.000928923
0.000932325
0.000934796
0.000936469
0.000937463
0.000937884
0.000937823
0.00093736
0.000936563
0.000935495
0.000934204
0.000932737
0.000931131
0.000929423
0.000927639
0.000925805
0.000923941
0.000922061
0.000919601
0.000925166
0.000929603
0.000932944
0.00093534
0.000936931
0.000937839
0.000938175
0.000938033
0.000937495
0.000936632
0.000935505
0.000934168
0.000932665
0.000931037
0.000929316
0.000927531
0.000925707
0.000923861
0.000922009
0.000920346
0.000925883
0.000930259
0.000933519
0.000935821
0.00093731
0.000938115
0.000938349
0.000938108
0.000937481
0.000936538
0.000935345
0.000933953
0.000932412
0.000930759
0.00092903
0.00092725
0.000925444
0.000923629
0.000921818
0.000921085
0.000926571
0.000930859
0.000934011
0.000936191
0.000937552
0.000938226
0.000938331
0.00093797
0.000937232
0.000936192
0.000934917
0.000933463
0.000931877
0.0009302
0.000928465
0.0009267
0.000924926
0.000923159
0.000921412
0.000921798
0.000927193
0.000931353
0.000934356
0.000936374
0.000937566
0.00093807
0.00093801
0.000937494
0.000936614
0.000935451
0.000934074
0.000932541
0.000930903
0.0009292
0.000927467
0.000925729
0.000924008
0.000922317
0.000920665
0.000922445
0.000927689
0.000931659
0.000934452
0.000936248
0.000937211
0.000937487
0.000937207
0.000936483
0.000935415
0.000934088
0.000932577
0.000930943
0.00092924
0.000927509
0.000925786
0.000924096
0.00092246
0.000920885
0.00091938
0.000922956
0.000927959
0.000931648
0.00093414
0.000935623
0.000936268
0.000936228
0.000935643
0.000934632
0.000933304
0.000931752
0.000930056
0.000928285
0.000926495
0.000924732
0.000923033
0.000921421
0.000919915
0.000918521
0.000917241
0.000923232
0.000927854
0.000931123
0.000933177
0.000934209
0.0009344
0.000933911
0.000932891
0.000931473
0.000929775
0.0009279
0.000925941
0.000923973
0.000922062
0.000920256
0.000918596
0.000917106
0.0009158
0.000914682
0.000913746
0.000923111
0.000927147
0.000929786
0.000931194
0.00093157
0.000931101
0.000929961
0.000928313
0.000926302
0.000924065
0.000921719
0.000919373
0.000917115
0.000915022
0.000913152
0.000911549
0.000910238
0.000909233
0.000908531
0.000908118
0.000922392
0.000925516
0.000927206
0.000927657
0.00092707
0.000925638
0.00092355
0.000920984
0.000918108
0.000915078
0.000912037
0.000909114
0.000906419
0.000904046
0.000902066
0.000900533
0.000899475
0.000898906
0.000898816
0.000899182
0.000920797
0.000922498
0.000922767
0.000921813
0.000919823
0.000916999
0.00091354
0.000909649
0.000905518
0.000901336
0.000897276
0.0008935
0.000890148
0.000887338
0.000885164
0.000883695
0.000882968
0.000882998
0.000883773
0.00088526
0.000917801
0.000917381
0.00091562
0.000912659
0.000908681
0.00090389
0.000898503
0.000892749
0.000886854
0.000881046
0.000875541
0.00087054
0.000866224
0.000862749
0.000860237
0.000858781
0.000858437
0.000859228
0.000861146
0.000864156
0.000912598
0.000909442
0.00090476
0.000899007
0.000892311
0.000884859
0.000876885
0.000868644
0.000860401
0.000852429
0.000844991
0.000838337
0.000832693
0.000828256
0.00082519
0.00082362
0.000823629
0.000825266
0.00082854
0.000833432
0.000904506
0.000897122
0.000889045
0.000879609
0.000869452
0.000858627
0.000847433
0.000836139
0.000825035
0.000814443
0.000804668
0.000796
0.0007887
0.000783007
0.000779121
0.000777207
0.000777388
0.000779753
0.000784357
0.00079123
0.000892755
0.000879941
0.000866738
0.000853515
0.000839491
0.00082466
0.000809917
0.000795353
0.000781195
0.00076787
0.000755692
0.000744943
0.000735884
0.000728778
0.000723849
0.000721291
0.000721266
0.000723921
0.000729385
0.00073779
0.000876345
0.000857224
0.000838264
0.000820053
0.000801849
0.000783697
0.000765939
0.000748729
0.000731776
0.000716263
0.000702254
0.0006899
0.000679389
0.000671024
0.000665015
0.00066155
0.000660813
0.000663003
0.000668343
0.000677101
0.000854924
0.000828909
0.000804456
0.000781465
0.000759812
0.000738915
0.000718875
0.000699863
0.000682075
0.000665849
0.000651419
0.000638589
0.000627273
0.000618184
0.000611352
0.00060691
0.000605018
0.0006059
0.000609849
0.000617263
0.000828888
0.000796284
0.000767434
0.000741489
0.00071752
0.000695702
0.000675303
0.000656476
0.000639312
0.00062384
0.000610115
0.000598158
0.000587884
0.00057887
0.000571754
0.000566529
0.000563307
0.000562289
0.000563785
0.000568257
0.000799484
0.000761949
0.000730736
0.000704185
0.000680846
0.000660027
0.000641231
0.000624526
0.000609926
0.000596816
0.000585245
0.000575164
0.000566415
0.000558769
0.000551896
0.000546262
0.000541854
0.000538814
0.000537402
0.000538053
0.000768861
0.000729262
0.000698647
0.000674263
0.000654009
0.000636767
0.000621883
0.00060897
0.000597713
0.000587763
0.000579043
0.0005716
0.000564854
0.0005587
0.000552748
0.000547068
0.000541832
0.000537063
0.000532942
0.000529799
0.000739773
0.000701746
0.0006749
0.000655274
0.000640154
0.000628077
0.000618176
0.000609895
0.000602817
0.000596611
0.000591011
0.000585813
0.000581016
0.000576386
0.000571441
0.000566121
0.000560449
0.000554419
0.000548168
0.00054189
0.000715076
0.000682349
0.00066201
0.000649028
0.000640268
0.000634078
0.000629502
0.000625942
0.000622975
0.000620288
0.000617624
0.00061478
0.000611629
0.000608185
0.000604137
0.000599278
0.000593404
0.000586516
0.000578749
0.00057016
0.000697224
0.000672956
0.000661003
0.000655653
0.000653647
0.000653351
0.000653863
0.00065465
0.000655353
0.000655724
0.000655566
0.000654729
0.000653093
0.000650607
0.00064716
0.000642702
0.00063685
0.000629388
0.000620558
0.000610327
0.000687945
0.000674311
0.000671667
0.000674151
0.000678706
0.0006839
0.000688998
0.0006936
0.00069746
0.000700416
0.000702345
0.000703154
0.000702759
0.000701088
0.000698124
0.000693991
0.000688196
0.000680338
0.000670716
0.000659268
0.000688145
0.000686251
0.00069305
0.000703067
0.000713702
0.00072385
0.000733009
0.000740943
0.000747526
0.000752693
0.00075639
0.000758581
0.000759224
0.000758284
0.000755718
0.000751753
0.000746027
0.000737853
0.000727574
0.000715129
0.000698005
0.000708059
0.000723932
0.000740952
0.000757128
0.000771738
0.000784525
0.000795422
0.000804422
0.000811545
0.0008168
0.0008202
0.000821739
0.000821407
0.000819184
0.000815378
0.000809681
0.000801202
0.000790289
0.000776922
0.000717189
0.000738783
0.000763124
0.000786578
0.000807815
0.000826494
0.000842594
0.000856203
0.00086742
0.000876339
0.000883025
0.000887532
0.000889886
0.000890102
0.000888167
0.00088446
0.000878754
0.000869957
0.000858385
0.000844094
0.000745042
0.00077743
0.000809572
0.000838944
0.000864851
0.000887305
0.000906498
0.000922653
0.000935959
0.000946573
0.000954608
0.00096015
0.000963249
0.00096394
0.000962231
0.000958563
0.000952816
0.000943704
0.000931437
0.000916195
0.000780757
0.000823052
0.000862348
0.000897183
0.000927441
0.000953444
0.000975567
0.000994148
0.00100945
0.0010217
0.00103102
0.00103754
0.00104133
0.00104243
0.00104086
0.00103713
0.00103128
0.00102186
0.00100888
0.000992677
0.00082346
0.00087473
0.000920556
0.000960438
0.000994758
0.00102411
0.00104901
0.00106991
0.00108714
0.00110094
0.0011115
0.00111895
0.00112337
0.0011248
0.00112325
0.00111919
0.00111302
0.00110348
0.00108987
0.00107273
0.000872225
0.0009315
0.000983221
0.00102771
0.00106579
0.00109825
0.00112576
0.00114885
0.00116789
0.00118317
0.0011949
0.00120322
0.00120821
0.00120994
0.00120842
0.00120413
0.00119757
0.0011876
0.00117335
0.00115517
0.000926026
0.000992254
0.00104915
0.00109774
0.00113917
0.00117444
0.00120432
0.00122939
0.00125009
0.00126672
0.0012795
0.00128858
0.00129406
0.001296
0.0012944
0.00128974
0.00128248
0.00127189
0.00125721
0.00123797
0.000983659
0.00105562
0.00111681
0.00116881
0.00121305
0.00125069
0.00128258
0.00130935
0.00133145
0.00134921
0.00136286
0.00137255
0.00137837
0.00138038
0.00137859
0.00137345
0.00136536
0.00135377
0.00133826
0.00131816
0.00104363
0.00111982
0.00118415
0.00123864
0.00128495
0.00132433
0.0013577
0.00138572
0.00140885
0.00142739
0.0014416
0.00145168
0.00145766
0.00145955
0.00145735
0.00145151
0.00144226
0.00142914
0.00141205
0.00139099
0.00110406
0.00118257
0.00124851
0.00130423
0.00135154
0.00139177
0.00142588
0.00145453
0.00147818
0.00149691
0.00151116
0.0015214
0.0015274
0.00152889
0.00152594
0.00151917
0.00150828
0.00149342
0.00147445
0.00145155
0.00116254
0.00124094
0.00130646
0.0013617
0.00140857
0.00144843
0.00148226
0.0015107
0.00153469
0.00155441
0.00156945
0.00157874
0.00158273
0.00158182
0.00157532
0.00156587
0.00155296
0.00153703
0.00151635
0.00149189
0.00121612
0.00129127
0.00135375
0.00140627
0.00145078
0.00148855
0.00152051
0.00154723
0.00156839
0.00158351
0.00159602
0.00160331
0.00160595
0.00160422
0.00159912
0.00158806
0.00157218
0.00155056
0.0015267
0.00150009
0.0012612
0.0013292
0.00138537
0.0014325
0.00147093
0.0015034
0.00153187
0.00155573
0.00157568
0.00159305
0.00160279
0.00160859
0.00160923
0.00160418
0.00159323
0.00157703
0.0015572
0.00153285
0.00150446
0.00147328
0.00129373
0.00135003
0.00139579
0.00143121
0.00146362
0.0014907
0.00151351
0.00153349
0.00155036
0.00156317
0.0015714
0.00157432
0.00157105
0.00156088
0.00154337
0.00151953
0.00149255
0.0014614
0.0014254
0.00138491
0.00130969
0.00134952
0.00137739
0.00140233
0.00142064
0.0014384
0.0014545
0.0014692
0.00148203
0.00149196
0.00149758
0.0014973
0.00148948
0.00147273
0.00144613
0.001411
0.00137206
0.00132805
0.00127847
0.00122424
0.00130511
0.00132022
0.00133005
0.00133463
0.0013394
0.00134469
0.00135164
0.00136019
0.0013693
0.00137703
0.00138078
0.00137761
0.00136463
0.00133938
0.00130022
0.00124926
0.0011917
0.00112593
0.00105578
0.000983741
0.00127642
0.00126357
0.00124596
0.00122866
0.0012148
0.00120619
0.00120384
0.00120748
0.00121518
0.00122349
0.00122781
0.00122307
0.00120452
0.0011684
0.00111273
0.00104214
0.000960426
0.000868658
0.000776012
0.000686085
0.00121905
0.00117214
0.00112574
0.00108533
0.00105247
0.00103032
0.00102067
0.00102314
0.00103439
0.00104824
0.0010567
0.00105161
0.00102626
0.000976273
0.000901479
0.000812378
0.000710166
0.000604712
0.000502259
0.000412461
0.00113498
0.00105515
0.000981267
0.000917251
0.000867661
0.00083599
0.000824729
0.000832946
0.000854573
0.000878849
0.00089297
0.000886233
0.000852889
0.000792972
0.000718014
0.000627176
0.000528717
0.000426345
0.000341033
0.000281066
0.00102435
0.000916392
0.000819368
0.000740022
0.000684975
0.00066321
0.000673429
0.000708299
0.000754435
0.000794326
0.000811972
0.000800774
0.000761314
0.000699518
0.000614964
0.000515703
0.000411216
0.000318712
0.000256493
0.000215784
0.000886392
0.000758012
0.000652145
0.000582159
0.00055412
0.000571266
0.000629395
0.000702533
0.000763189
0.000797724
0.000804097
0.000780221
0.000728743
0.000650425
0.00055066
0.000440164
0.000332671
0.000256207
0.000206013
0.000188088
0.000720057
0.000586779
0.000496458
0.0004583
0.000481115
0.000554318
0.000643268
0.00072146
0.000777301
0.000805755
0.000803069
0.000769954
0.000707379
0.000616602
0.000505836
0.000388026
0.000282213
0.000213904
0.000184354
0.000190728
0.000526548
0.000412516
0.000358875
0.00037996
0.000461451
0.000566471
0.000664978
0.000742888
0.000793415
0.000814366
0.000805967
0.000767789
0.000698862
0.000600587
0.000480552
0.000354652
0.000249117
0.000191547
0.000184047
0.000205894
0.000324855
0.000257161
0.000272194
0.000354212
0.000469558
0.000587189
0.000686575
0.000759004
0.00080343
0.000820527
0.000811136
0.000773195
0.000704406
0.000603951
0.000478111
0.00034548
0.000236269
0.000189414
0.000191614
0.000217162
0.000192694
0.000186105
0.000241867
0.000349925
0.000480882
0.00060345
0.000701171
0.000770016
0.00081117
0.000826915
0.000819287
0.000785994
0.000723036
0.000626696
0.000500247
0.000362755
0.00024991
0.000192606
0.00019457
0.000220285
0.000163154
0.000170957
0.000228663
0.000348818
0.000490007
0.000618995
0.00071751
0.000782949
0.000820035
0.000834337
0.000829515
0.000803483
0.000751519
0.000665299
0.000541763
0.00039576
0.000267536
0.00020037
0.000193561
0.000216729
0.000145599
0.000155027
0.000220068
0.000352902
0.000509853
0.000646384
0.000742552
0.000800271
0.000830244
0.000841261
0.000838815
0.00082257
0.000785814
0.000716958
0.000605779
0.000456491
0.000305452
0.000209844
0.000191534
0.000212687
0.000161438
0.000157005
0.000227133
0.000381668
0.000556943
0.000693582
0.000777461
0.000821329
0.000841172
0.000847678
0.000846876
0.000838589
0.000816738
0.000770134
0.000681215
0.00054025
0.000369001
0.000236953
0.000193463
0.000207419
0.000168904
0.00017791
0.000270203
0.000458905
0.000642729
0.000758379
0.000815115
0.000839283
0.000847769
0.000850274
0.000849733
0.000845865
0.000835107
0.000812438
0.000762035
0.000656226
0.000484427
0.000301548
0.000207747
0.000206429
0.000189821
0.000208928
0.000370382
0.000589154
0.000732595
0.000802234
0.000833242
0.00084623
0.000850103
0.000851415
0.0008514
0.000850439
0.000848788
0.000842128
0.000823492
0.000775888
0.000662781
0.000454293
0.000263281
0.00021012
0.00032789
0.000388057
0.000631721
0.000795784
0.000844842
0.000854002
0.000853857
0.000852349
0.000852412
0.000852278
0.000852219
0.000852209
0.000851909
0.000850534
0.000846425
0.000834254
0.000801051
0.000727371
0.000571919
0.000309772
0.000910948
0.000911445
0.000912118
0.000912663
0.00091308
0.000913376
0.000913559
0.000913636
0.000913617
0.000913512
0.00091333
0.000913081
0.000912781
0.000912434
0.000912026
0.000911569
0.000911062
0.000910501
0.000909883
0.000909202
0.00091083
0.000911333
0.000911997
0.000912534
0.000912943
0.000913227
0.000913395
0.000913453
0.000913412
0.000913283
0.000913078
0.000912808
0.00091249
0.000912129
0.000911711
0.000911249
0.000910743
0.000910188
0.000909581
0.000908919
0.000910833
0.000911327
0.000911982
0.00091251
0.000912907
0.000913177
0.000913322
0.000913349
0.000913269
0.0009131
0.000912856
0.000912554
0.00091221
0.000911823
0.000911383
0.000910905
0.000910397
0.000909844
0.000909241
0.000908597
0.000910874
0.000911359
0.000912008
0.000912529
0.000912919
0.000913176
0.000913299
0.000913287
0.000913147
0.000912915
0.000912623
0.000912295
0.000911949
0.000911569
0.000911132
0.000910666
0.000910174
0.000909624
0.000909013
0.000908363
0.00091095
0.000911426
0.00091207
0.00091259
0.000912985
0.000913248
0.000913364
0.000913324
0.000913166
0.000912938
0.000912659
0.000912356
0.000912045
0.000911728
0.000911323
0.000910873
0.000910387
0.000909846
0.000909253
0.000908601
0.000911075
0.000911545
0.000912181
0.0009127
0.000913115
0.000913426
0.00091359
0.000913595
0.000913493
0.000913309
0.000913059
0.000912774
0.000912458
0.000912136
0.000911707
0.000911182
0.00091067
0.000910169
0.000909674
0.000909047
0.000911273
0.000911749
0.00091239
0.000912924
0.00091337
0.00091372
0.000913928
0.000913996
0.000913927
0.000913736
0.000913463
0.000913176
0.000912841
0.000912382
0.000911899
0.000911371
0.000910904
0.000910418
0.000909945
0.000909334
0.000911511
0.000912013
0.000912675
0.000913231
0.000913684
0.000914023
0.000914237
0.000914322
0.000914277
0.000914106
0.000913849
0.000913576
0.000913218
0.000912676
0.000912203
0.000911767
0.000911336
0.000910877
0.000910358
0.000909756
0.0009117
0.000912228
0.000912904
0.000913457
0.000913897
0.000914225
0.000914443
0.000914556
0.000914566
0.000914479
0.000914294
0.00091401
0.000913633
0.000913157
0.000912704
0.000912248
0.000911777
0.000911319
0.000910736
0.000910074
0.000911765
0.000912304
0.000912973
0.000913504
0.000913925
0.000914247
0.000914471
0.000914599
0.000914638
0.000914596
0.00091445
0.0009142
0.000913868
0.000913476
0.000912999
0.000912463
0.000911883
0.000911281
0.000910642
0.000909954
0.000911452
0.000912012
0.000912713
0.000913286
0.000913758
0.000914124
0.000914374
0.000914511
0.00091455
0.000914485
0.000914297
0.000914005
0.000913635
0.000913199
0.000912663
0.000912065
0.000911459
0.000910854
0.000910223
0.000909538
0.00091089
0.000911502
0.000912275
0.000912951
0.000913562
0.000914037
0.000914324
0.000914435
0.000914387
0.000914177
0.000913816
0.000913396
0.000912971
0.000912535
0.000912035
0.00091149
0.000910945
0.000910356
0.000909706
0.000908993
0.000910487
0.000911092
0.000911907
0.000912695
0.000913387
0.000913913
0.000914196
0.000914275
0.000914168
0.000913877
0.000913459
0.000912984
0.000912563
0.000912171
0.00091175
0.000911308
0.000910859
0.000910297
0.000909627
0.00090887
0.000910593
0.000911177
0.000911956
0.000912685
0.000913243
0.000913669
0.000913897
0.000913967
0.000913897
0.000913685
0.000913412
0.000913028
0.000912675
0.00091232
0.000911922
0.000911501
0.000911074
0.0009105
0.000909827
0.000909061
0.000911139
0.000911645
0.000912289
0.000912796
0.00091317
0.000913432
0.00091359
0.000913653
0.000913626
0.000913519
0.000913342
0.000913099
0.000912804
0.000912468
0.000912053
0.000911581
0.000911049
0.000910457
0.000909809
0.000909116
0.000911679
0.000912096
0.000912601
0.000912911
0.000913116
0.000913269
0.000913372
0.000913429
0.000913415
0.000913328
0.00091317
0.000912941
0.000912651
0.000912304
0.000911879
0.000911399
0.00091085
0.000910235
0.000909556
0.000908826
0.00091223
0.000912618
0.000913083
0.000913335
0.000913452
0.000913545
0.000913614
0.000913556
0.000913445
0.000913289
0.000913083
0.000912825
0.000912528
0.000912203
0.000911825
0.000911409
0.000910878
0.000910218
0.000909452
0.000908664
0.000912753
0.000913189
0.000913721
0.000914065
0.000914211
0.000914294
0.000914269
0.000914086
0.000913916
0.000913715
0.000913474
0.000913196
0.000912895
0.000912602
0.000912303
0.000911916
0.000911365
0.00091066
0.000909818
0.000909001
0.000913197
0.000913681
0.000914276
0.000914712
0.000914989
0.00091511
0.000915056
0.000914962
0.000914816
0.000914619
0.000914373
0.000914083
0.000913768
0.000913458
0.000913132
0.000912653
0.000912079
0.000911408
0.000910617
0.000909824
0.000913555
0.000914065
0.00091469
0.000915163
0.000915491
0.000915687
0.000915767
0.00091575
0.00091565
0.000915476
0.000915237
0.00091494
0.000914605
0.00091424
0.000913798
0.000913296
0.000912742
0.000912132
0.000911457
0.000910698
0.000913855
0.000914378
0.000915013
0.000915498
0.000915841
0.000916056
0.000916156
0.000916158
0.000916072
0.000915911
0.000915682
0.000915394
0.000915065
0.000914707
0.000914274
0.000913789
0.000913248
0.000912647
0.000911979
0.000911237
0.000914123
0.000914655
0.000915294
0.000915783
0.00091613
0.000916349
0.000916455
0.000916461
0.00091638
0.000916223
0.000915999
0.000915716
0.000915393
0.000915041
0.000914615
0.000914138
0.000913604
0.000913011
0.000912351
0.000911619
0.000914373
0.000914911
0.000915551
0.000916042
0.00091639
0.000916611
0.000916719
0.000916727
0.000916648
0.000916493
0.000916271
0.000915991
0.00091567
0.000915321
0.000914898
0.000914425
0.000913895
0.000913308
0.000912655
0.000911933
0.000914604
0.000915145
0.000915784
0.000916274
0.000916622
0.000916843
0.000916951
0.00091696
0.000916882
0.000916728
0.000916507
0.000916228
0.000915908
0.000915559
0.000915138
0.000914667
0.00091414
0.000913556
0.00091291
0.000912196
0.000914812
0.000915354
0.000915987
0.000916471
0.000916816
0.000917034
0.00091714
0.000917148
0.000917069
0.000916916