/*--------------------------------*- C++ -*----------------------------------*\
  =========                 |
  \\      /  F ield         | OpenFOAM: The Open Source CFD Toolbox
   \\    /   O peration     | Website:  https://openfoam.org
    \\  /    A nd           | Version:  6
     \\/     M anipulation  |
\*---------------------------------------------------------------------------*/
FoamFile
{
    version     2.0;
    format      ascii;
    class       volScalarField;
    location    "26";
    object      p;
}
// * * * * * * * * * * * * * * * * * * * * * * * * * * * * * * * * * * * * * //

dimensions      [0 2 -2 0 0 0 0];

internalField   nonuniform List<scalar> 
130000
(
0.00612461
0.00530806
0.00476134
0.00433621
0.00395906
0.00362154
0.00331889
0.0030456
0.00279646
0.00256752
0.00235481
0.00215614
0.00196793
0.00178883
0.00161634
0.00144934
0.00128594
0.00112442
0.000959953
0.000803377
0.00612389
0.00573662
0.00528027
0.0049119
0.00457593
0.00426206
0.00396347
0.0036782
0.00340308
0.00313436
0.0028716
0.0026106
0.00235348
0.0020963
0.00184124
0.00158548
0.00133182
0.00107388
0.000809661
0.000540866
0.007628
0.00702369
0.00642636
0.00593258
0.00548182
0.00505855
0.0046551
0.00426664
0.00389127
0.00352283
0.00316361
0.00280705
0.00245804
0.00210902
0.00176746
0.00142406
0.00108801
0.000747699
0.000408236
6.36411e-05
0.00819731
0.00772254
0.00718367
0.00670027
0.00623168
0.00576828
0.00531181
0.00485714
0.00440915
0.00396037
0.00351936
0.00307606
0.00264186
0.00220478
0.00177658
0.00134473
0.000922736
0.000494717
7.34403e-05
-0.000352445
0.00857035
0.00815951
0.00766586
0.00719695
0.00672636
0.00624361
0.00575895
0.00526346
0.00476919
0.00426505
0.00376602
0.00325847
0.00275852
0.00224979
0.00175088
0.00124301
0.000746856
0.000241347
-0.000254053
-0.000757646
0.00862724
0.00829683
0.00785836
0.00741841
0.00696042
0.00647446
0.00597886
0.00545994
0.0049361
0.00439142
0.0038481
0.00328706
0.00273224
0.00216205
0.00160095
0.00102654
0.000464934
-0.000109866
-0.000671689
-0.00124582
0.0085435
0.00827509
0.00788605
0.00747321
0.00703459
0.00655314
0.00605637
0.00552247
0.00497793
0.00440071
0.00382069
0.00321426
0.00261146
0.00198626
0.00137036
0.000735096
0.000113722
-0.000524583
-0.00114763
-0.00178812
0.00834187
0.00811931
0.0077737
0.00739401
0.00697824
0.00650553
0.00600994
0.00546542
0.00490421
0.0043004
0.00369009
0.00304489
0.00240187
0.00173011
0.00106626
0.000378319
-0.000295639
-0.000990982
-0.00166932
-0.00236975
0.00805259
0.00786817
0.0075568
0.00720806
0.00681004
0.00634421
0.00584799
0.00529452
0.00471881
0.00409279
0.00345606
0.00277821
0.00209939
0.00138585
0.000679381
-5.70228e-05
-0.000779626
-0.00152761
-0.00225791
-0.00301605
0.00768709
0.0075362
0.00725752
0.00693429
0.00655235
0.00609251
0.00559662
0.00503602
0.00444837
0.00380338
0.00314437
0.00243746
0.00172791
0.000978149
0.000233595
-0.000545353
-0.00131108
-0.00210677
-0.00288403
-0.00369415
0.00723607
0.00712653
0.00688113
0.00658278
0.00621568
0.00576102
0.00526558
0.0046984
0.00410029
0.00343832
0.00275907
0.00202661
0.00128872
0.000505178
-0.000274167
-0.00109348
-0.00190018
-0.00274086
-0.00356319
-0.00442424
0.00675104
0.00666718
0.00644815
0.00617046
0.00581773
0.00536842
0.00487462
0.00430278
0.00369633
0.0030198
0.00232328
0.00156741
0.000804634
-8.94435e-06
-0.000820251
-0.00167587
-0.00251973
-0.0034022
-0.00426605
-0.00517382
0.0062286
0.00616322
0.00596429
0.00570759
0.00536694
0.00492342
0.00443092
0.00385568
0.00324161
0.00255229
0.00183937
0.00106266
0.000275795
-0.000566678
-0.00140839
-0.00229959
-0.00318021
-0.00410321
-0.0050083
-0.00596298
0.00566287
0.00562557
0.00544885
0.00521125
0.0048828
0.00444671
0.00395721
0.00337998
0.00275962
0.00205877
0.0013311
0.000534187
-0.000274867
-0.00114423
-0.00201517
-0.00293973
-0.00385501
-0.00481705
-0.00576154
-0.00676068
0.00509913
0.00508521
0.00492901
0.00470336
0.00438417
0.00395291
0.00346546
0.00288482
0.00225754
0.00154473
0.000801561
-1.48425e-05
-0.000846878
-0.00174337
-0.00264383
-0.00360222
-0.0045534
-0.00555444
-0.00653981
-0.00758452
0.00454772
0.0045558
0.00441807
0.00420487
0.003893
0.00346526
0.00297843
0.00239351
0.00175807
0.00103259
0.000273585
-0.000563201
-0.00141809
-0.00234146
-0.00327162
-0.0042633
-0.00524982
-0.00629005
-0.0073159
-0.00840558
0.00405564
0.0040658
0.00393592
0.00373024
0.00341988
0.00299184
0.00250219
0.00191167
0.001266
0.000527256
-0.000249535
-0.00110646
-0.00198621
-0.00293695
-0.00389835
-0.00492397
-0.00594823
-0.00702776
-0.00809664
-0.00923238
0.00357604
0.0035985
0.00347849
0.00328622
0.00297732
0.00254871
0.00205485
0.00145856
0.000801626
4.88514e-05
-0.000746455
-0.00162494
-0.0025299
-0.00350877
-0.00450212
-0.00556246
-0.00662447
-0.00774477
-0.008857
-0.0100397
0.0031347
0.00317188
0.0030637
0.00287956
0.00257194
0.0021414
0.00164218
0.00103957
0.000370836
-0.000396219
-0.00121147
-0.00211119
-0.00304329
-0.00405042
-0.00507759
-0.00617278
-0.00727515
-0.00843588
-0.00959415
-0.0108241
0.00272628
0.00279037
0.00270019
0.00252655
0.00222221
0.0017896
0.00128398
0.000673531
-7.53172e-06
-0.00078978
-0.00162537
-0.00254798
-0.00350743
-0.00454432
-0.00560573
-0.00673744
-0.00788015
-0.00908359
-0.0102882
-0.0115675
0.00240786
0.00247946
0.00240119
0.00223636
0.00193447
0.00150052
0.000987659
0.00036854
-0.000325879
-0.0011227
-0.00197961
-0.00292425
-0.00391271
-0.0049786
-0.00607603
-0.00724345
-0.00842896
-0.00967388
-0.0109272
-0.0122549
0.0021423
0.0022343
0.00216886
0.00201992
0.00172125
0.00128856
0.000768547
0.000140582
-0.000568756
-0.00138072
-0.00225897
-0.00322674
-0.00424405
-0.00534071
-0.00647416
-0.0076797
-0.00890791
-0.0101977
-0.0115002
-0.0128799
0.00197841
0.00208605
0.00203241
0.001895
0.0015982
0.00116648
0.000639666
3.65481e-06
-0.000721698
-0.00154879
-0.00244931
-0.00343887
-0.00448639
-0.00561231
-0.00678356
-0.00802548
-0.00929883
-0.0106313
-0.0119855
-0.0134148
0.00187176
0.00201462
0.0019825
0.00186187
0.0015711
0.00114236
0.000611194
-3.14863e-05
-0.000771884
-0.00161514
-0.00253783
-0.00355052
-0.00462735
-0.00578463
-0.00699311
-0.00827451
-0.00959245
-0.0109717
-0.0123773
-0.013861
0.00191316
0.00206646
0.00204979
0.00194374
0.00165902
0.00123439
0.000700063
5.30511e-05
-0.000700713
-0.00155866
-0.00250392
-0.003538
-0.00464445
-0.00583024
-0.00707664
-0.00839439
-0.00975839
-0.0111808
-0.0126395
-0.0141738
0.00200644
0.00220393
0.00221373
0.0021349
0.00186289
0.001448
0.000914645
0.00026639
-0.000497397
-0.00136855
-0.00233435
-0.00339059
-0.00452478
-0.00574059
-0.00702299
-0.00837973
-0.00978807
-0.0112576
-0.0127689
-0.0143596
0.00228956
0.00250739
0.00253975
0.00248105
0.00222155
0.00181568
0.00128508
0.00063703
-0.000134145
-0.00101564
-0.00200023
-0.00307676
-0.00423908
-0.00548267
-0.0068013
-0.00819366
-0.009647
-0.0111597
-0.0127242
-0.0143675
0.00264508
0.0029199
0.00299345
0.0029673
0.00273046
0.00233991
0.00181812
0.00117347
0.000398997
-0.000490856
-0.00149078
-0.00258783
-0.00377651
-0.0050502
-0.00640382
-0.00783468
-0.00933113
-0.0108907
-0.012507
-0.0142075
0.00324597
0.00354674
0.00365215
0.00365177
0.0034356
0.00305897
0.00254665
0.00190603
0.00112977
0.000233067
-0.000780603
-0.00189555
-0.00310985
-0.00441184
-0.00580076
-0.00726837
-0.00880906
-0.010413
-0.0120818
-0.0138368
0.00398017
0.00433643
0.00448567
0.00452145
0.004332
0.00397423
0.00347489
0.00284077
0.002065
0.00116265
0.000137694
-0.000994676
-0.00223181
-0.00356256
-0.00498536
-0.00649208
-0.00807608
-0.0097283
-0.0114493
-0.0132633
0.00497924
0.00536784
0.00555259
0.00561899
0.00545371
0.00511366
0.0046272
0.00400005
0.00322559
0.00231884
0.00128351
0.000135788
-0.00112334
-0.002481
-0.00393737
-0.00548197
-0.00711032
-0.00880951
-0.0105839
-0.012456
0.00612947
0.00658096
0.00681594
0.00692496
0.00679178
0.00647537
0.00600626
0.00538934
0.00461901
0.00370953
0.00266612
0.0015034
0.000224513
-0.0011598
-0.00264809
-0.00423136
-0.00590282
-0.00765155
-0.00947912
-0.0114129
0.00755456
0.00804766
0.00832765
0.00847522
0.00837388
0.00808138
0.00763119
0.00702607
0.00626175
0.00535132
0.00430108
0.00312541
0.00182729
0.00041779
-0.00110172
-0.00272243
-0.00443777
-0.00623531
-0.00811783
-0.010114
0.00915148
0.00971762
0.0100583
0.0102574
0.010197
0.0099355
0.00950986
0.00892086
0.00816628
0.00725747
0.00620332
0.00501573
0.00370082
0.00226663
0.00071715
-0.000941336
-0.00269931
-0.00454745
-0.00648472
-0.00854583
0.0110429
0.0116637
0.0120607
0.0123088
0.01229
0.0120612
0.0116627
0.0110924
0.0103504
0.0094457
0.00838951
0.00719248
0.00586158
0.00440398
0.00282484
0.00112917
-0.000672425
-0.00257058
-0.00456428
-0.00669147
0.0131368
0.0138437
0.0143133
0.0146241
0.0146569
0.0144686
0.0141036
0.0135572
0.012832
0.0119348
0.01088
0.00967507
0.00833087
0.0068509
0.00524348
0.00351056
0.00166627
-0.000283662
-0.00233395
-0.00452975
0.0155596
0.0163333
0.016872
0.0172434
0.0173293
0.0171835
0.0168553
0.0163358
0.015631
0.0147445
0.0136936
0.0124837
0.0111274
0.00962651
0.0079913
0.00622156
0.00433327
0.00233155
0.000222341
-0.00204394
0.0182175
0.0190911
0.0197161
0.0201629
0.0203125
0.0202182
0.0199339
0.0194475
0.0187682
0.0178965
0.0168536
0.0156409
0.0142756
0.0127554
0.0110939
0.00928763
0.00735634
0.00530115
0.00313265
0.00079336
0.0212371
0.0221936
0.022902
0.0234232
0.0236389
0.0235994
0.0233632
0.0229141
0.0222645
0.0214118
0.02038
0.0191684
0.017796
0.0162584
0.0145717
0.0127296
0.0107543
0.00864561
0.0064156
0.00400125
0.0245233
0.0255974
0.026408
0.0270203
0.0273142
0.0273399
0.0271602
0.0267558
0.0261422
0.0253137
0.0242982
0.023091
0.0217155
0.0201629
0.0184532
0.0165762
0.0145582
0.0123948
0.0101032
0.00761145
0.0282049
0.0293796
0.0302913
0.0309947
0.0313708
0.0314663
0.0313489
0.0309947
0.0304229
0.0296241
0.0286293
0.0274313
0.0260557
0.0244911
0.0227603
0.0208498
0.0187887
0.016571
0.0142157
0.0116444
0.0321809
0.0334937
0.0345273
0.0353405
0.0358128
0.0359904
0.0359455
0.0356508
0.0351288
0.0343666
0.0333994
0.0322155
0.0308451
0.0292723
0.0275236
0.0255816
0.0234796
0.0212069
0.0187881
0.0161351
0.0365812
0.038017
0.0391724
0.0400973
0.0406715
0.0409379
0.0409732
0.0407456
0.0402812
0.039563
0.0386297
0.0374665
0.0361061
0.0345294
0.032766
0.0307949
0.0286524
0.0263257
0.0238417
0.0211046
0.0413013
0.0428988
0.0441991
0.0452566
0.0459491
0.0463187
0.0464469
0.0462982
0.0459017
0.045237
0.0443467
0.0432113
0.0418681
0.0402933
0.0385201
0.0365233
0.0343435
0.0319631
0.0294145
0.0265916
0.046468
0.0482132
0.0496607
0.0508547
0.0516737
0.0521556
0.0523871
0.0523276
0.0520097
0.0514088
0.0505706
0.0494724
0.0481537
0.0465873
0.0448096
0.0427911
0.0405757
0.0381434
0.0355292
0.0326182
0.0519736
0.0539052
0.0555242
0.0568777
0.057842
0.0584541
0.058805
0.0588502
0.0586249
0.058101
0.0573275
0.0562769
0.0549931
0.0534439
0.0516688
0.0496344
0.0473884
0.044906
0.0422276
0.0392273
0.0579231
0.0600337
0.0618296
0.0633513
0.0644732
0.0652294
0.0657148
0.06588
0.0657629
0.0653309
0.0646357
0.0636466
0.0624087
0.0608866
0.0591225
0.0570786
0.0548057
0.0522765
0.049534
0.0464424
0.0642108
0.0665385
0.0685378
0.0702545
0.0715576
0.0724811
0.0731225
0.0734291
0.07344
0.0731191
0.0725204
0.0716084
0.0704317
0.0689499
0.0672076
0.0651633
0.062871
0.0602987
0.0574947
0.0543112
0.0709101
0.073455
0.0756704
0.0775974
0.0791011
0.0802133
0.0810336
0.0815048
0.0816667
0.0814795
0.0809978
0.0801834
0.0790846
0.0776583
0.0759507
0.073916
0.0716109
0.069001
0.0661367
0.0628599
0.0779175
0.0807174
0.0831791
0.0853493
0.0870846
0.0884172
0.0894471
0.0901138
0.0904559
0.0904307
0.0900927
0.0893995
0.0884011
0.0870497
0.0853928
0.0833812
0.0810739
0.0784326
0.0755124
0.0721423
0.085268
0.088333
0.0910622
0.093501
0.0954982
0.0970845
0.0983588
0.0992564
0.0998137
0.0999843
0.0998212
0.0992791
0.0984064
0.0971523
0.0955649
0.0935912
0.091292
0.0886271
0.0856535
0.0821888
0.0928532
0.0962237
0.0992582
0.102009
0.104312
0.106198
0.107762
0.108936
0.109752
0.110161
0.110212
0.109856
0.109141
0.108011
0.106516
0.104599
0.102322
0.0996424
0.0966208
0.0930616
0.100672
0.104369
0.107743
0.110847
0.113503
0.11574
0.117647
0.119151
0.120279
0.120974
0.121285
0.121158
0.120637
0.119665
0.118287
0.116446
0.114206
0.111521
0.108454
0.104799
0.108613
0.11268
0.116444
0.119961
0.123035
0.12569
0.128008
0.129909
0.131411
0.132454
0.13308
0.133231
0.132947
0.132168
0.130939
0.129198
0.127011
0.124332
0.121226
0.117472
0.116636
0.12111
0.125317
0.129313
0.132878
0.13603
0.138837
0.141212
0.143162
0.144621
0.145624
0.146109
0.14611
0.145565
0.144517
0.142901
0.140784
0.138121
0.13498
0.131125
0.124626
0.129567
0.134289
0.138852
0.143003
0.146746
0.150134
0.153071
0.155549
0.157499
0.158945
0.159823
0.160161
0.159895
0.159063
0.157602
0.155577
0.152944
0.149776
0.145821
0.132516
0.13799
0.143315
0.148542
0.153379
0.157815
0.16188
0.165466
0.168551
0.171062
0.173013
0.174339
0.175062
0.175116
0.174538
0.173262
0.171355
0.168774
0.165591
0.161543
0.140201
0.146289
0.152319
0.158324
0.163958
0.169186
0.174014
0.178321
0.182072
0.185193
0.18769
0.189501
0.190644
0.191056
0.190767
0.189715
0.187963
0.185468
0.182306
0.178194
0.147577
0.15437
0.161215
0.168108
0.174629
0.180716
0.186351
0.191403
0.195828
0.199556
0.202595
0.204889
0.206457
0.20724
0.207269
0.206482
0.204935
0.202589
0.199509
0.195399
0.154525
0.162092
0.169837
0.177695
0.185149
0.192099
0.198507
0.204241
0.209261
0.213512
0.217013
0.219724
0.221671
0.222809
0.223167
0.222686
0.221414
0.219305
0.216417
0.212429
0.160834
0.169238
0.177916
0.186721
0.195045
0.202746
0.209775
0.216013
0.221438
0.226025
0.229821
0.232807
0.235027
0.236452
0.237118
0.236966
0.236035
0.234272
0.231714
0.228011
0.166204
0.175445
0.185009
0.194632
0.20362
0.21181
0.219172
0.225613
0.231152
0.235802
0.239649
0.242704
0.245036
0.246636
0.247546
0.247714
0.247166
0.245837
0.243742
0.240492
0.170083
0.180126
0.190445
0.200637
0.209953
0.218249
0.225547
0.231805
0.237105
0.241504
0.245133
0.248034
0.250295
0.251922
0.252971
0.253391
0.253202
0.252328
0.250752
0.248045
0.171887
0.18259
0.193428
0.20385
0.213089
0.221064
0.227889
0.233593
0.238328
0.242194
0.245367
0.247906
0.249923
0.251426
0.252474
0.253024
0.253089
0.252577
0.251454
0.24925
0.170853
0.18206
0.193142
0.203432
0.212216
0.219509
0.225546
0.230428
0.234378
0.237526
0.24008
0.242109
0.243735
0.244958
0.245844
0.246338
0.246457
0.246095
0.245212
0.243304
0.166536
0.178018
0.189063
0.198918
0.206975
0.213373
0.218467
0.222419
0.225507
0.227869
0.229733
0.23116
0.232285
0.233091
0.233637
0.233858
0.233765
0.23325
0.232285
0.23034
0.158514
0.170136
0.180962
0.190215
0.197439
0.202903
0.207074
0.21014
0.212414
0.214023
0.215201
0.215991
0.216529
0.216777
0.216799
0.216496
0.215887
0.214869
0.213432
0.21102
0.146981
0.158596
0.169111
0.177739
0.184186
0.188834
0.192228
0.194556
0.196145
0.197085
0.197618
0.197752
0.197633
0.197193
0.196495
0.19542
0.193999
0.192122
0.189814
0.186496
0.132095
0.143724
0.15399
0.162121
0.167983
0.172031
0.174866
0.176644
0.177692
0.178056
0.177978
0.177431
0.176564
0.175278
0.173658
0.171555
0.169021
0.165929
0.162351
0.157679
0.114635
0.126276
0.136412
0.144253
0.149782
0.153487
0.15599
0.157395
0.158021
0.157865
0.157177
0.155881
0.154148
0.151845
0.149084
0.145697
0.141751
0.137101
0.131876
0.125436
0.0950321
0.106857
0.117086
0.124902
0.130373
0.133983
0.136353
0.137521
0.1378
0.137133
0.135785
0.133636
0.130877
0.127336
0.123181
0.118203
0.11251
0.105926
0.0986502
0.0899918
0.0741955
0.0863047
0.0968348
0.104877
0.110533
0.114257
0.116648
0.117671
0.117637
0.116432
0.11434
0.11119
0.107209
0.102184
0.0963337
0.0894288
0.081618
0.0726898
0.0629219
0.0515737
0.0523618
0.0650132
0.0761134
0.0846475
0.0907265
0.0947503
0.097294
0.0982406
0.0979008
0.0961036
0.0931594
0.088835
0.0833947
0.0765735
0.068672
0.0594139
0.0490275
0.0372433
0.0244391
0.00980235
0.0301617
0.043501
0.0553934
0.064662
0.0713843
0.0758923
0.0787219
0.0796703
0.0790433
0.0766039
0.0726895
0.0669953
0.059831
0.0508714
0.0404941
0.0284013
0.0148959
-0.000344706
-0.0168339
-0.0354492
0.00731632
0.0216674
0.0346585
0.0449599
0.052597
0.0578178
0.0611138
0.0621842
0.0613268
0.0582204
0.0532297
0.0459633
0.0367739
0.0252601
0.0119152
-0.00362158
-0.020925
-0.0403938
-0.0613955
-0.0849003
-0.0160958
-0.000512416
0.0138828
0.0255643
0.0344595
0.0407108
0.0447371
0.0461297
0.0451654
0.0414296
0.0352964
0.0262638
0.0147387
0.000236699
-0.01665
-0.0363244
-0.0582395
-0.0828562
-0.109379
-0.138852
-0.0410352
-0.0237598
-0.00749459
0.00606613
0.0167156
0.0244639
0.0296345
0.0316821
0.0308473
0.0265942
0.0193008
0.00833089
-0.0058552
-0.0238518
-0.0449284
-0.069588
-0.097112
-0.12805
-0.161378
-0.198235
-0.0680444
-0.0486881
-0.0300053
-0.0139129
-0.000833652
0.00907195
0.0159845
0.0191924
0.0188623
0.0143198
0.00592714
-0.00711189
-0.0242799
-0.046292
-0.0722983
-0.102891
-0.1372
-0.175834
-0.217502
-0.263406
-0.0987951
-0.0766387
-0.0547197
-0.0351675
-0.0187058
-0.00572816
0.00375351
0.00882302
0.00954808
0.00506309
-0.00430171
-0.0195263
-0.0400311
-0.0666842
-0.0984688
-0.136144
-0.178627
-0.226625
-0.278499
-0.335541
-0.13439
-0.108734
-0.0825816
-0.0583852
-0.0373166
-0.0200762
-0.00694658
0.000900848
0.00338258
-0.000571106
-0.0106794
-0.0281219
-0.0522702
-0.0841698
-0.12267
-0.168685
-0.220959
-0.280275
-0.344599
-0.415237
-0.177049
-0.146751
-0.114996
-0.0846031
-0.0573542
-0.0343577
-0.0162422
-0.00448928
0.000638597
-0.00220597
-0.0128282
-0.0326515
-0.0609611
-0.0989838
-0.145372
-0.201276
-0.265171
-0.338
-0.417306
-0.504478
-0.228063
-0.19198
-0.153031
-0.11462
-0.07934
-0.0488693
-0.0243296
-0.00761099
0.000773847
-0.000749534
-0.0119788
-0.0345496
-0.0676838
-0.112832
-0.168461
-0.235882
-0.313349
-0.40204
-0.499244
-0.606421
-0.289796
-0.246248
-0.198115
-0.149589
-0.104403
-0.0649299
-0.0328237
-0.0104095
0.00155143
0.00118246
-0.0112779
-0.0376286
-0.0769149
-0.130751
-0.197358
-0.278302
-0.371582
-0.478852
-0.597167
-0.728018
-0.363417
-0.310747
-0.251314
-0.190639
-0.133937
-0.0844008
-0.0442689
-0.0163132
-0.00145313
-0.00181971
-0.0171171
-0.0491703
-0.0967521
-0.1617
-0.241984
-0.339229
-0.451199
-0.5801
-0.723033
-0.881747
-0.451644
-0.387577
-0.314475
-0.239697
-0.17031
-0.110595
-0.0633409
-0.031629
-0.0163418
-0.0196063
-0.0408668
-0.0820761
-0.141637
-0.221538
-0.319379
-0.437029
-0.572154
-0.727823
-0.901262
-1.09408
-0.555203
-0.477765
-0.389242
-0.299694
-0.218311
-0.150402
-0.0990888
-0.0674998
-0.0561533
-0.0670034
-0.0990377
-0.154262
-0.230785
-0.330844
-0.451871
-0.596201
-0.761607
-0.951973
-1.16436
-1.39978
-0.677822
-0.584602
-0.479738
-0.3768
-0.286981
-0.215988
-0.166439
-0.140876
-0.139091
-0.162847
-0.210763
-0.284917
-0.383371
-0.509091
-0.659504
-0.837699
-1.04183
-1.2766
-1.53836
-1.82642
-0.82468
-0.713729
-0.593043
-0.480797
-0.389268
-0.323064
-0.282906
-0.269891
-0.282852
-0.323424
-0.390307
-0.486107
-0.609184
-0.763336
-0.94643
-1.16245
-1.4098
-1.69334
-2.0081
-2.34996
-1.00511
-0.87481
-0.741273
-0.627153
-0.54334
-0.490696
-0.466462
-0.470011
-0.499823
-0.557743
-0.642697
-0.757908
-0.902763
-1.08195
-1.29404
-1.54383
-1.82978
-2.15598
-2.51582
-2.90147
-1.22706
-1.07864
-0.93947
-0.834127
-0.767003
-0.732785
-0.725745
-0.744799
-0.7887
-0.859442
-0.956393
-1.08351
-1.24135
-1.43566
-1.66626
-1.93826
-2.24954
-2.60271
-2.99027
-3.40002
-1.50169
-1.33912
-1.20342
-1.11437
-1.06568
-1.04688
-1.05188
-1.0801
-1.13062
-1.20506
-1.30349
-1.43077
-1.58921
-1.78544
-2.02034
-2.29848
-2.61687
-2.97613
-3.36786
-3.77427
-1.84038
-1.67115
-1.54502
-1.46967
-1.43
-1.41528
-1.421
-1.44674
-1.49182
-1.55782
-1.64613
-1.76174
-1.90824
-2.09222
-2.3155
-2.58149
-2.88684
-3.22937
-3.59973
-3.97497
-2.28178
-2.10777
-1.98295
-1.90301
-1.85201
-1.82222
-1.81144
-1.81943
-1.84604
-1.89215
-1.9597
-2.05254
-2.17511
-2.33268
-2.52824
-2.76349
-3.03573
-3.33933
-3.66405
-3.98578
-2.88479
-2.68562
-2.53207
-2.41663
-2.32722
-2.25963
-2.21413
-2.1902
-2.18747
-2.20478
-2.24356
-2.30508
-2.394
-2.51336
-2.66747
-2.85602
-3.0771
-3.32111
-3.57812
-3.82953
-3.63407
-3.369
-3.14767
-2.96536
-2.814
-2.69208
-2.60087
-2.53779
-2.50096
-2.48583
-2.49253
-2.51885
-2.56928
-2.64373
-2.74826
-2.87987
-3.03796
-3.20831
-3.38357
-3.55375
-4.34628
-3.98728
-3.67219
-3.41152
-3.197
-3.02543
-2.89505
-2.79947
-2.73403
-2.69093
-2.66921
-2.66349
-2.67793
-2.70852
-2.76217
-2.83258
-2.92177
-3.01527
-3.11378
-3.20707
-4.66767
-4.2842
-3.91049
-3.61383
-3.38105
-3.20082
-3.06344
-2.95773
-2.8786
-2.8178
-2.77542
-2.74414
-2.72804
-2.71914
-2.72354
-2.72985
-2.74456
-2.76287
-2.79504
-2.78898
-4.23777
-4.13306
-3.83094
-3.59378
-3.41938
-3.28433
-3.17415
-3.07977
-3.00162
-2.93374
-2.87881
-2.82926
-2.79009
-2.74934
-2.71124
-2.65889
-2.60546
-2.56022
-2.51073
-2.23737
-3.16911
-3.74486
-3.65254
-3.49776
-3.38082
-3.28669
-3.2013
-3.11791
-3.04425
-2.97421
-2.91635
-2.85926
-2.81369
-2.7615
-2.71596
-2.65313
-2.60379
-2.56892
-2.44524
-1.76815
-2.38974
-3.48926
-3.66465
-3.52278
-3.40072
-3.30768
-3.22126
-3.1388
-3.06301
-2.99386
-2.93254
-2.8771
-2.82889
-2.78523
-2.74842
-2.72046
-2.72042
-2.73878
-2.58436
-1.92032
0.00180476
0.00170786
0.00158732
0.00148551
0.00137823
0.00127871
0.00119004
0.00110876
0.00103576
0.000968555
0.000907718
0.000850912
0.000798049
0.000747075
0.000697466
0.000647806
0.000597497
0.0005432
0.000473018
0.000378324
0.01006
0.00992005
0.00977888
0.00965256
0.00951167
0.00937487
0.00924017
0.00910728
0.00897381
0.00883992
0.00870464
0.0085669
0.0084267
0.00828222
0.00813392
0.0079805
0.00782371
0.00765786
0.00747572
0.00728908
0.0184206
0.0182898
0.0181015
0.0179274
0.0177287
0.0175289
0.0173216
0.0171142
0.0168999
0.0166844
0.0164626
0.0162378
0.0160062
0.0157695
0.0155257
0.0152756
0.0150185
0.0147513
0.0144662
0.0141701
0.0265596
0.0264183
0.026205
0.026002
0.0257614
0.0255136
0.0252483
0.0249788
0.0246947
0.0244061
0.0241052
0.0237982
0.0234802
0.0231545
0.0228185
0.0224736
0.0221196
0.0217527
0.0213694
0.0209728
0.0348701
0.0347209
0.0344892
0.0342621
0.0339842
0.0336934
0.0333753
0.0330489
0.0326999
0.032343
0.0319675
0.0315838
0.031184
0.0307748
0.0303513
0.0299169
0.0294696
0.0290081
0.0285277
0.0280321
0.0431835
0.0430301
0.0427831
0.0425361
0.0422261
0.0418978
0.0415332
0.0411558
0.0407481
0.0403285
0.0398847
0.0394291
0.0389534
0.0384648
0.0379581
0.0374367
0.0368997
0.0363449
0.0357698
0.0351735
0.0516124
0.0514561
0.0511966
0.0509329
0.0505955
0.0502354
0.0498311
0.0494098
0.0489504
0.0484749
0.0479685
0.0474468
0.0468991
0.0463347
0.0457477
0.0451423
0.0445175
0.0438722
0.0432037
0.0425092
0.0601562
0.0600013
0.0597347
0.0594598
0.0591004
0.0587138
0.0582756
0.0578156
0.0573104
0.056784
0.0562203
0.0556359
0.0550202
0.054383
0.0537188
0.0530319
0.0523223
0.0515875
0.0508271
0.050034
0.0688246
0.068678
0.0684108
0.0681302
0.0677542
0.0673455
0.0668777
0.0663833
0.0658366
0.065263
0.0646454
0.0640018
0.0633211
0.0626137
0.0618751
0.0611083
0.060315
0.059492
0.05864
0.0577483
0.077631
0.0774981
0.0772362
0.0769559
0.0765686
0.0761416
0.0756477
0.0751218
0.0745369
0.0739192
0.0732516
0.0725518
0.0718099
0.0710356
0.0702247
0.0693802
0.0685047
0.0675941
0.0666513
0.0656613
0.0865621
0.0864507
0.0862009
0.0859264
0.0855323
0.0850902
0.0845724
0.0840169
0.083396
0.0827372
0.0820224
0.08127
0.0804694
0.07963
0.0787488
0.0778268
0.0768697
0.0758717
0.0748384
0.0737493
0.0956078
0.0955203
0.095286
0.0950202
0.0946222
0.0941681
0.0936306
0.0930494
0.0923961
0.0916991
0.0909401
0.0901367
0.0892797
0.0883773
0.0874275
0.0864307
0.085394
0.0843104
0.0831881
0.0820014
0.104723
0.104665
0.104449
0.104195
0.103797
0.103337
0.102786
0.102185
0.101503
0.100771
0.0999693
0.0991167
0.0982041
0.0972396
0.0962228
0.0951518
0.0940365
0.0928674
0.0916561
0.0903712
0.113895
0.113866
0.113671
0.113433
0.113042
0.112582
0.112022
0.111404
0.110698
0.109933
0.109092
0.108193
0.107228
0.106204
0.105122
0.103979
0.102787
0.101533
0.100235
0.0988525
0.12309
0.123098
0.12293
0.122712
0.122331
0.121874
0.121308
0.120677
0.119949
0.119157
0.11828
0.117339
0.116325
0.115244
0.114098
0.112883
0.111613
0.110274
0.108886
0.107403
0.132317
0.132366
0.132228
0.132033
0.131665
0.131212
0.130644
0.130002
0.129258
0.128439
0.127531
0.126549
0.125489
0.124351
0.123143
0.121855
0.120507
0.119082
0.117602
0.116015
0.14156
0.141659
0.141558
0.14139
0.14104
0.140597
0.14003
0.139383
0.138624
0.137784
0.136845
0.135824
0.134716
0.133523
0.132252
0.130891
0.129463
0.127948
0.126373
0.124679
0.150854
0.15101
0.150953
0.150819
0.150494
0.150066
0.149507
0.148857
0.148088
0.147227
0.146261
0.1452
0.144047
0.142796
0.141461
0.140025
0.138516
0.136908
0.135234
0.133425
0.160236
0.160461
0.160458
0.160366
0.160076
0.159672
0.159127
0.158478
0.157703
0.156824
0.155831
0.154733
0.153533
0.152225
0.150823
0.149309
0.147714
0.14601
0.144232
0.142304
0.169773
0.170076
0.170136
0.170094
0.169847
0.169472
0.168948
0.168306
0.167528
0.166633
0.165615
0.164477
0.16323
0.161859
0.160388
0.158792
0.157106
0.155297
0.153408
0.15135
0.179539
0.179928
0.18006
0.180075
0.179876
0.179536
0.179036
0.178404
0.177627
0.176716
0.175672
0.174495
0.173197
0.171764
0.170219
0.168535
0.166752
0.164833
0.162822
0.160629
0.189588
0.190075
0.190286
0.190363
0.190217
0.189915
0.189442
0.188821
0.188043
0.187116
0.186047
0.184828
0.183478
0.181976
0.180353
0.178574
0.176686
0.174646
0.172507
0.170165
0.2
0.200588
0.200886
0.201029
0.200941
0.200679
0.200236
0.199626
0.198849
0.197905
0.196808
0.195544
0.194138
0.192564
0.190856
0.188979
0.186978
0.184813
0.182536
0.180038
0.210815
0.211516
0.211907
0.212124
0.212098
0.21188
0.211469
0.210871
0.210094
0.209132
0.208004
0.206691
0.205225
0.203572
0.201775
0.199789
0.19767
0.195366
0.192943
0.190274
0.222129
0.222946
0.223436
0.223731
0.223772
0.2236
0.223223
0.22264
0.221863
0.220882
0.219721
0.218357
0.216826
0.215092
0.213198
0.211098
0.208851
0.206405
0.203823
0.200978
0.233985
0.23493
0.235527
0.235906
0.236019
0.235897
0.235556
0.234986
0.234211
0.233209
0.232015
0.230596
0.228997
0.227173
0.225177
0.222954
0.220571
0.217969
0.215221
0.212183
0.246485
0.247561
0.24827
0.248738
0.248926
0.248856
0.248553
0.248
0.247225
0.246203
0.244973
0.243498
0.241826
0.23991
0.237804
0.235454
0.232926
0.230163
0.227238
0.223999
0.259659
0.260878
0.261707
0.262271
0.262539
0.262526
0.262264
0.261728
0.260955
0.259911
0.258644
0.257107
0.25536
0.253343
0.251124
0.248635
0.245956
0.243018
0.239907
0.236454
0.27359
0.274957
0.275913
0.276578
0.276931
0.276976
0.276758
0.27624
0.275469
0.274402
0.273095
0.271494
0.269665
0.267545
0.265203
0.26257
0.25973
0.25661
0.253301
0.249622
0.28829
0.289819
0.290911
0.291686
0.292128
0.292237
0.292064
0.291566
0.290797
0.289705
0.288356
0.286686
0.284771
0.282537
0.280067
0.277278
0.274266
0.27095
0.267431
0.26351
0.303814
0.305512
0.306747
0.307638
0.308176
0.308353
0.308228
0.30775
0.306982
0.305863
0.304467
0.302724
0.300715
0.29836
0.29575
0.292795
0.289598
0.286072
0.282327
0.278147
0.320158
0.32204
0.323431
0.324448
0.325089
0.325339
0.325266
0.32481
0.324042
0.322894
0.321448
0.319623
0.317513
0.315027
0.312266
0.309129
0.305734
0.30198
0.297992
0.293534
0.33735
0.33943
0.340988
0.342142
0.342893
0.343222
0.343205
0.342773
0.342005
0.340825
0.339323
0.33741
0.335188
0.332558
0.329631
0.326298
0.322685
0.318684
0.314431
0.30967
0.355384
0.357681
0.359422
0.360727
0.3616
0.362017
0.362062
0.361657
0.36089
0.359675
0.358112
0.356102
0.353758
0.350971
0.347863
0.344315
0.340465
0.336196
0.331656
0.326567
0.374273
0.376807
0.378749
0.38022
0.381229
0.381744
0.381859
0.381485
0.38072
0.379467
0.377837
0.375721
0.373243
0.370283
0.366975
0.36319
0.359079
0.354516
0.349661
0.344215
0.39401
0.396807
0.398974
0.400633
0.401795
0.402423
0.402618
0.402283
0.401522
0.400231
0.398528
0.396296
0.393669
0.39052
0.386992
0.382949
0.378552
0.373667
0.368469
0.362635
0.414596
0.417686
0.420104
0.421975
0.423311
0.42407
0.424359
0.424071
0.423319
0.421988
0.420206
0.417848
0.415056
0.411697
0.407924
0.403594
0.398881
0.393643
0.388067
0.381807
0.436016
0.439435
0.442137
0.444252
0.44579
0.446704
0.447105
0.446877
0.44614
0.444769
0.442902
0.440406
0.437433
0.433843
0.4298
0.425155
0.420093
0.414468
0.408479
0.401758
0.458251
0.462036
0.46506
0.467453
0.469226
0.470322
0.470856
0.470704
0.469989
0.46858
0.466622
0.463975
0.460802
0.456954
0.452611
0.447615
0.442167
0.436113
0.429669
0.422442
0.481255
0.485451
0.488838
0.491552
0.493595
0.494905
0.495597
0.495538
0.494855
0.493411
0.491357
0.488547
0.485156
0.481029
0.476355
0.470976
0.465103
0.458583
0.451643
0.44387
0.504943
0.509589
0.513379
0.516448
0.518796
0.520347
0.521219
0.521268
0.520627
0.51915
0.516997
0.514017
0.510393
0.505965
0.500936
0.49514
0.488808
0.48178
0.474302
0.465937
0.529155
0.534272
0.538487
0.541937
0.544608
0.546416
0.547478
0.547642
0.547046
0.54554
0.543292
0.540146
0.536291
0.531565
0.526175
0.519956
0.513147
0.505593
0.497554
0.488574
0.553572
0.559134
0.563749
0.567551
0.570522
0.572565
0.5738
0.574066
0.573509
0.57198
0.569652
0.566367
0.562314
0.557324
0.551611
0.545
0.53774
0.529676
0.521084
0.511487
0.577608
0.583511
0.588417
0.592465
0.595636
0.597833
0.599175
0.599501
0.598963
0.597418
0.595047
0.591684
0.587519
0.582373
0.576446
0.569561
0.56196
0.55349
0.544434
0.534302
0.600234
0.606256
0.611231
0.615309
0.618486
0.620673
0.622002
0.622311
0.62176
0.620211
0.617852
0.614517
0.610382
0.605252
0.599315
0.592369
0.584648
0.575986
0.566666
0.556175
0.619945
0.625759
0.630484
0.634293
0.637213
0.639178
0.640341
0.640536
0.639932
0.638391
0.636119
0.632936
0.629012
0.624131
0.618454
0.611759
0.60425
0.595741
0.586495
0.57598
0.634832
0.640076
0.64422
0.647461
0.649875
0.651419
0.652274
0.652272
0.651585
0.650073
0.647951
0.645036
0.641486
0.637062
0.631915
0.625783
0.618849
0.610886
0.602131
0.592015
0.643055
0.647466
0.650798
0.653289
0.655052
0.656069
0.656543
0.656301
0.655525
0.65406
0.652136
0.64955
0.646474
0.642643
0.638203
0.632866
0.626793
0.619713
0.611837
0.602555
0.643239
0.646748
0.649237
0.650969
0.6521
0.652617
0.65274
0.652287
0.651445
0.650043
0.648325
0.646075
0.643475
0.640243
0.636543
0.632056
0.62695
0.620905
0.614123
0.60594