/*--------------------------------*- C++ -*----------------------------------*\
  =========                 |
  \\      /  F ield         | OpenFOAM: The Open Source CFD Toolbox
   \\    /   O peration     | Website:  https://openfoam.org
    \\  /    A nd           | Version:  6
     \\/     M anipulation  |
\*---------------------------------------------------------------------------*/
FoamFile
{
    version     2.0;
    format      ascii;
    class       surfaceScalarField;
    location    "26";
    object      phi;
}
// * * * * * * * * * * * * * * * * * * * * * * * * * * * * * * * * * * * * * //

dimensions      [0 3 -1 0 0 0 0];

internalField   nonuniform List<scalar> 
19400
(
-2.99725e-10
-7.71503e-07
-6.52148e-10
-1.03389e-06
-9.47345e-10
-1.16512e-06
-1.05457e-09
-1.25582e-06
-1.00542e-09
-1.3184e-06
-8.88237e-10
-1.35989e-06
-7.67607e-10
-1.38611e-06
-6.51941e-10
-1.40184e-06
-5.3403e-10
-1.41045e-06
-3.98759e-10
-1.41395e-06
-2.44532e-10
-1.41324e-06
-5.93313e-11
-1.40837e-06
1.45129e-10
-1.39849e-06
3.67487e-10
-1.38173e-06
5.59536e-10
-1.35497e-06
6.58357e-10
-1.3136e-06
5.77172e-10
-1.25174e-06
3.19793e-10
-1.16223e-06
-2.74461e-12
-1.03232e-06
-7.7101e-07
8.40748e-11
-7.71581e-07
-1.34183e-10
-1.03368e-06
-2.86093e-10
-1.16496e-06
-4.33224e-10
-1.25567e-06
-5.22471e-10
-1.3183e-06
-5.61342e-10
-1.35985e-06
-5.6088e-10
-1.3861e-06
-5.4519e-10
-1.40186e-06
-5.07659e-10
-1.41049e-06
-4.56917e-10
-1.414e-06
-3.89045e-10
-1.41331e-06
-3.05279e-10
-1.40845e-06
-2.12945e-10
-1.39858e-06
-1.21425e-10
-1.38182e-06
-6.38477e-11
-1.35503e-06
-5.2501e-11
-1.31361e-06
-6.41584e-11
-1.25173e-06
-9.23533e-11
-1.1622e-06
-2.18442e-10
-1.03219e-06
-7.71227e-07
2.66615e-11
-7.71605e-07
-1.0291e-10
-1.03358e-06
-1.86097e-10
-1.16487e-06
-2.68301e-10
-1.2556e-06
-3.21555e-10
-1.31824e-06
-3.79573e-10
-1.3598e-06
-4.32168e-10
-1.38605e-06
-4.70811e-10
-1.40182e-06
-4.86506e-10
-1.41047e-06
-4.81577e-10
-1.414e-06
-4.62551e-10
-1.41333e-06
-4.23981e-10
-1.40849e-06
-3.72311e-10
-1.39863e-06
-2.9601e-10
-1.3819e-06
-2.34335e-10
-1.35509e-06
-2.03204e-10
-1.31364e-06
-1.51239e-10
-1.25177e-06
-8.7989e-11
-1.16226e-06
-6.27877e-11
-1.03221e-06
-7.7129e-07
5.70936e-11
-7.71667e-07
1.79439e-11
-1.03356e-06
-2.95765e-11
-1.16482e-06
-7.51851e-11
-1.25557e-06
-1.24366e-10
-1.31819e-06
-2.15804e-10
-1.35971e-06
-3.10524e-10
-1.38595e-06
-3.90619e-10
-1.40174e-06
-4.51186e-10
-1.41041e-06
-4.94916e-10
-1.41395e-06
-5.21081e-10
-1.4133e-06
-5.29451e-10
-1.40848e-06
-5.17187e-10
-1.39865e-06
-4.73664e-10
-1.38194e-06
-4.20221e-10
-1.35514e-06
-3.83096e-10
-1.31367e-06
-3.19494e-10
-1.25184e-06
-2.20862e-10
-1.16235e-06
-1.39036e-10
-1.03229e-06
-7.71429e-07
-4.76962e-11
-7.71623e-07
4.04302e-11
-1.03366e-06
3.92724e-11
-1.16482e-06
8.37834e-13
-1.25554e-06
-4.20443e-11
-1.31814e-06
-1.43161e-10
-1.35961e-06
-2.49458e-10
-1.38584e-06
-3.48548e-10
-1.40163e-06
-4.32265e-10
-1.41032e-06
-5.05267e-10
-1.41388e-06
-5.57037e-10
-1.41325e-06
-5.90439e-10
-1.40844e-06
-5.98969e-10
-1.39864e-06
-5.87836e-10
-1.38195e-06
-5.38392e-10
-1.35519e-06
-4.53014e-10
-1.31376e-06
-3.58322e-10
-1.25193e-06
-2.57504e-10
-1.16246e-06
-7.27312e-11
-1.03247e-06
-7.71502e-07
9.09003e-12
-7.71637e-07
1.20468e-10
-1.03379e-06
1.06909e-10
-1.1648e-06
3.24729e-11
-1.25548e-06
-4.63389e-11
-1.31806e-06
-1.7139e-10
-1.35949e-06
-2.75024e-10
-1.38573e-06
-3.70707e-10
-1.40154e-06
-4.5449e-10
-1.41023e-06
-5.30894e-10
-1.4138e-06
-5.87636e-10
-1.41318e-06
-6.26066e-10
-1.4084e-06
-6.36102e-10
-1.39862e-06
-6.24292e-10
-1.38196e-06
-5.76074e-10
-1.35524e-06
-4.80505e-10
-1.31385e-06
-3.69144e-10
-1.25205e-06
-2.75119e-10
-1.16255e-06
-6.52108e-11
-1.03268e-06
-7.71567e-07
1.3623e-10
-7.71776e-07
1.73574e-10
-1.03383e-06
1.52939e-10
-1.16478e-06
8.30746e-11
-1.25541e-06
-3.20517e-11
-1.31794e-06
-1.72701e-10
-1.35936e-06
-2.72874e-10
-1.38563e-06
-3.70306e-10
-1.40144e-06
-4.56132e-10
-1.41014e-06
-5.27737e-10
-1.41373e-06
-5.82314e-10
-1.41313e-06
-6.23101e-10
-1.40836e-06
-6.38959e-10
-1.3986e-06
-6.20678e-10
-1.38197e-06
-5.7242e-10
-1.35529e-06
-4.82741e-10
-1.31394e-06
-3.69338e-10
-1.25216e-06
-2.41219e-10
-1.16268e-06
-8.28344e-11
-1.03284e-06
-7.71648e-07
2.04333e-10
-7.7198e-07
2.19128e-10
-1.03385e-06
2.30936e-10
-1.16479e-06
1.76595e-10
-1.25536e-06
4.96525e-11
-1.31782e-06
-7.96367e-11
-1.35923e-06
-1.92013e-10
-1.38552e-06
-3.08776e-10
-1.40133e-06
-4.1541e-10
-1.41003e-06
-5.0047e-10
-1.41364e-06
-5.66999e-10
-1.41306e-06
-6.1334e-10
-1.40831e-06
-6.35959e-10
-1.39858e-06
-6.26302e-10
-1.38198e-06
-5.79389e-10
-1.35533e-06
-4.79581e-10
-1.31404e-06
-3.64831e-10
-1.25227e-06
-2.39877e-10
-1.1628e-06
-1.34484e-10
-1.03294e-06
-7.71782e-07
1.69692e-10
-7.72149e-07
2.53189e-10
-1.03393e-06
3.09105e-10
-1.16485e-06
2.61028e-10
-1.25531e-06
1.41764e-10
-1.3177e-06
1.54628e-11
-1.35911e-06
-1.16963e-10
-1.38538e-06
-2.56649e-10
-1.40119e-06
-3.8628e-10
-1.40991e-06
-4.97655e-10
-1.41354e-06
-5.88355e-10
-1.41297e-06
-6.53817e-10
-1.40825e-06
-6.98004e-10
-1.39854e-06
-7.11569e-10
-1.38197e-06
-6.65095e-10
-1.35538e-06
-5.50092e-10
-1.31416e-06
-4.06718e-10
-1.25241e-06
-2.77625e-10
-1.16292e-06
-2.26119e-10
-1.03299e-06
-7.72007e-07
9.72303e-11
-7.72245e-07
2.40873e-10
-1.03407e-06
3.09116e-10
-1.16491e-06
2.68478e-10
-1.25527e-06
1.7108e-10
-1.3176e-06
4.72187e-11
-1.35899e-06
-9.45626e-11
-1.38524e-06
-2.47125e-10
-1.40104e-06
-3.89675e-10
-1.40976e-06
-5.21527e-10
-1.41341e-06
-6.30836e-10
-1.41286e-06
-7.23233e-10
-1.40816e-06
-7.8932e-10
-1.39847e-06
-8.17869e-10
-1.38194e-06
-7.69913e-10
-1.35543e-06
-6.35797e-10
-1.31429e-06
-4.51957e-10
-1.2526e-06
-2.64733e-10
-1.16311e-06
-1.62513e-10
-1.03308e-06
-7.72169e-07
9.88884e-11
-7.72345e-07
2.29349e-10
-1.03419e-06
3.0205e-10
-1.16499e-06
2.86613e-10
-1.25525e-06
2.07712e-10
-1.31752e-06
8.34981e-11
-1.35886e-06
-7.71252e-11
-1.38508e-06
-2.42715e-10
-1.40088e-06
-4.00149e-10
-1.40961e-06
-5.4497e-10
-1.41326e-06
-6.67973e-10
-1.41274e-06
-7.71424e-10
-1.40805e-06
-8.37599e-10
-1.3984e-06
-8.58833e-10
-1.38192e-06
-8.09644e-10
-1.35547e-06
-6.82423e-10
-1.31442e-06
-4.81996e-10
-1.25279e-06
-2.57248e-10
-1.16333e-06
-4.05659e-11
-1.0333e-06
-7.72209e-07
9.88063e-11
-7.72444e-07
2.19115e-10
-1.03431e-06
2.94495e-10
-1.16507e-06
3.00659e-10
-1.25526e-06
2.39629e-10
-1.31746e-06
1.17463e-10
-1.35874e-06
-5.90826e-11
-1.3849e-06
-2.39517e-10
-1.40069e-06
-4.14328e-10
-1.40943e-06
-5.69923e-10
-1.4131e-06
-7.00058e-10
-1.4126e-06
-8.05861e-10
-1.40795e-06
-8.6762e-10
-1.39834e-06
-8.79828e-10
-1.38191e-06
-8.30666e-10
-1.35552e-06
-7.12894e-10
-1.31454e-06
-5.14744e-10
-1.25299e-06
-2.8514e-10
-1.16355e-06
-5.23176e-11
-1.03353e-06
-7.72261e-07
1.08525e-10
-7.72554e-07
2.1062e-10
-1.03441e-06
2.85818e-10
-1.16514e-06
3.37039e-10
-1.25531e-06
3.03725e-10
-1.31743e-06
1.81095e-10
-1.35861e-06
-9.62786e-12
-1.38471e-06
-2.17168e-10
-1.40049e-06
-4.12981e-10
-1.40923e-06
-5.85028e-10
-1.41293e-06
-7.27724e-10
-1.41246e-06
-8.4191e-10
-1.40784e-06
-9.12989e-10
-1.39827e-06
-9.26637e-10
-1.3819e-06
-8.7335e-10
-1.35557e-06
-7.43438e-10
-1.31466e-06
-5.35147e-10
-1.2532e-06
-2.88371e-10
-1.1638e-06
-7.46643e-11
-1.03374e-06
-7.72337e-07
8.48512e-11
-7.7264e-07
2.13087e-10
-1.03454e-06
3.18796e-10
-1.16525e-06
3.96753e-10
-1.25539e-06
3.73181e-10
-1.31741e-06
2.41621e-10
-1.35848e-06
3.94572e-11
-1.38451e-06
-1.88473e-10
-1.40026e-06
-4.02882e-10
-1.40902e-06
-5.93568e-10
-1.41274e-06
-7.53597e-10
-1.4123e-06
-8.81387e-10
-1.40771e-06
-9.65833e-10
-1.39818e-06
-9.86224e-10
-1.38188e-06
-9.26374e-10
-1.35563e-06
-7.71457e-10
-1.31482e-06
-5.50808e-10
-1.25342e-06
-3.04822e-10
-1.16405e-06
-6.84039e-11
-1.03398e-06
-7.72405e-07
1.19979e-10
-7.72753e-07
2.57643e-10
-1.03468e-06
3.59788e-10
-1.16535e-06
4.07876e-10
-1.25543e-06
3.77181e-10
-1.31737e-06
2.41943e-10
-1.35834e-06
4.06805e-11
-1.3843e-06
-1.86368e-10
-1.40003e-06
-4.05303e-10
-1.40879e-06
-6.08302e-10
-1.41254e-06
-7.85442e-10
-1.41212e-06
-9.28307e-10
-1.40756e-06
-1.02837e-09
-1.39807e-06
-1.06655e-09
-1.38184e-06
-1.00326e-09
-1.35569e-06
-8.24627e-10
-1.315e-06
-5.83492e-10
-1.25366e-06
-3.1416e-10
-1.16432e-06
-7.3653e-11
-1.03422e-06
-7.72477e-07
1.87167e-10
-7.72928e-07
2.94788e-10
-1.03479e-06
4.34764e-10
-1.16548e-06
4.82326e-10
-1.25548e-06
4.41137e-10
-1.31732e-06
2.90844e-10
-1.35819e-06
7.43011e-11
-1.38408e-06
-1.61931e-10
-1.39979e-06
-3.90776e-10
-1.40856e-06
-6.03886e-10
-1.41232e-06
-7.91451e-10
-1.41192e-06
-9.41999e-10
-1.40741e-06
-1.04965e-09
-1.39796e-06
-1.09733e-09
-1.38179e-06
-1.03988e-09
-1.35575e-06
-8.60097e-10
-1.31517e-06
-5.92901e-10
-1.25392e-06
-2.7962e-10
-1.16463e-06
-3.13166e-11
-1.03446e-06
-7.72506e-07
1.37838e-10
-7.73047e-07
3.12671e-10
-1.03495e-06
4.88591e-10
-1.16564e-06
5.50384e-10
-1.25554e-06
5.09215e-10
-1.31727e-06
3.53483e-10
-1.35803e-06
1.34039e-10
-1.38386e-06
-1.10612e-10
-1.39954e-06
-3.59955e-10
-1.40831e-06
-5.86228e-10
-1.41208e-06
-7.83644e-10
-1.41172e-06
-9.34243e-10
-1.40725e-06
-1.04104e-09
-1.39785e-06
-1.08084e-09
-1.38174e-06
-1.01878e-09
-1.35581e-06
-8.39624e-10
-1.31535e-06
-5.7423e-10
-1.25418e-06
-3.00208e-10
-1.16489e-06
-8.21424e-11
-1.03466e-06
-7.72585e-07
1.69518e-10
-7.73201e-07
3.87424e-10
-1.03516e-06
5.81688e-10
-1.16583e-06
6.83521e-10
-1.25564e-06
6.42136e-10
-1.31723e-06
4.67024e-10
-1.35786e-06
2.33984e-10
-1.38362e-06
-3.39785e-11
-1.39927e-06
-3.11578e-10
-1.40803e-06
-5.73139e-10
-1.41182e-06
-8.08357e-10
-1.41149e-06
-1.00121e-09
-1.40705e-06
-1.13825e-09
-1.39771e-06
-1.19675e-09
-1.38168e-06
-1.14775e-09
-1.35585e-06
-9.74333e-10
-1.31552e-06
-6.84995e-10
-1.25446e-06
-3.88e-10
-1.16517e-06
-2.24938e-10
-1.03481e-06
-7.72808e-07
1.71192e-10
-7.73365e-07
4.58201e-10
-1.03544e-06
6.91155e-10
-1.16606e-06
8.31261e-10
-1.25578e-06
7.98047e-10
-1.31719e-06
6.14109e-10
-1.35767e-06
3.55102e-10
-1.38336e-06
5.29086e-11
-1.39897e-06
-2.56272e-10
-1.40772e-06
-5.57551e-10
-1.41152e-06
-8.3706e-10
-1.4112e-06
-1.08459e-09
-1.4068e-06
-1.26343e-09
-1.39753e-06
-1.35393e-09
-1.38159e-06
-1.32159e-09
-1.35588e-06
-1.1392e-09
-1.31569e-06
-8.09444e-10
-1.25478e-06
-4.40289e-10
-1.16553e-06
-1.51742e-10
-1.0351e-06
-7.72959e-07
1.06437e-10
-7.73469e-07
4.91135e-10
-1.03581e-06
7.90011e-10
-1.16636e-06
9.55745e-10
-1.25594e-06
9.24654e-10
-1.31716e-06
7.45651e-10
-1.35749e-06
4.63062e-10
-1.38308e-06
1.35272e-10
-1.39864e-06
-2.01214e-10
-1.40738e-06
-5.36573e-10
-1.41118e-06
-8.45427e-10
-1.41089e-06
-1.12079e-09
-1.40653e-06
-1.31917e-09
-1.39733e-06
-1.42558e-09
-1.38148e-06
-1.39754e-09
-1.3559e-06
-1.21283e-09
-1.31588e-06
-8.84721e-10
-1.25511e-06
-4.84814e-10
-1.16593e-06
-4.95113e-11
-1.03553e-06
-7.7301e-07
7.9869e-11
-7.73547e-07
5.04846e-10
-1.03622e-06
8.48482e-10
-1.1667e-06
1.03673e-09
-1.25612e-06
1.00871e-09
-1.31713e-06
8.28189e-10
-1.35731e-06
5.37237e-10
-1.38279e-06
1.94965e-10
-1.39829e-06
-1.66677e-10
-1.40701e-06
-5.31493e-10
-1.41081e-06
-8.65783e-10
-1.41055e-06
-1.15574e-09
-1.40624e-06
-1.36902e-09
-1.39711e-06
-1.48375e-09
-1.38137e-06
-1.45539e-09
-1.35593e-06
-1.27624e-09
-1.31605e-06
-9.47003e-10
-1.25544e-06
-5.34102e-10
-1.16635e-06
-9.72689e-11
-1.03597e-06
-7.73108e-07
1.7262e-10
-7.73713e-07
5.74278e-10
-1.03661e-06
9.33064e-10
-1.16705e-06
1.14194e-09
-1.25632e-06
1.11713e-09
-1.31711e-06
9.23774e-10
-1.35711e-06
6.19165e-10
-1.38248e-06
2.52908e-10
-1.39793e-06
-1.38726e-10
-1.40661e-06
-5.34814e-10
-1.41042e-06
-8.98165e-10
-1.41018e-06
-1.213e-09
-1.40592e-06
-1.45441e-09
-1.39686e-06
-1.58929e-09
-1.38123e-06
-1.57928e-09
-1.35593e-06
-1.40489e-09
-1.31622e-06
-1.04676e-09
-1.25579e-06
-5.93679e-10
-1.16681e-06
-1.71244e-10
-1.0364e-06
-7.73278e-07
2.70194e-10
-7.73972e-07
6.78756e-10
-1.03701e-06
1.06586e-09
-1.16744e-06
1.27362e-09
-1.25652e-06
1.25287e-09
-1.31708e-06
1.04875e-09
-1.3569e-06
7.18532e-10
-1.38214e-06
3.24011e-10
-1.39752e-06
-9.49218e-11
-1.40619e-06
-5.1226e-10
-1.40999e-06
-9.04171e-10
-1.40978e-06
-1.24417e-09
-1.40557e-06
-1.50718e-09
-1.39659e-06
-1.65901e-09
-1.38107e-06
-1.67868e-09
-1.35591e-06
-1.52105e-09
-1.31637e-06
-1.15212e-09
-1.25616e-06
-6.60262e-10
-1.16729e-06
-1.83212e-10
-1.03687e-06
-7.73458e-07
3.11574e-10
-7.7427e-07
7.69027e-10
-1.03746e-06
1.16719e-09
-1.16782e-06
1.37476e-09
-1.25672e-06
1.37332e-09
-1.31707e-06
1.17085e-09
-1.35669e-06
8.30278e-10
-1.3818e-06
4.16638e-10
-1.3971e-06
-3.28632e-11
-1.40574e-06
-4.78291e-10
-1.40954e-06
-9.02833e-10
-1.40936e-06
-1.26418e-09
-1.4052e-06
-1.54248e-09
-1.39631e-06
-1.70246e-09
-1.3809e-06
-1.73063e-09
-1.35587e-06
-1.57939e-09
-1.31652e-06
-1.21988e-09
-1.25651e-06
-7.18894e-10
-1.16778e-06
-2.21141e-10
-1.03735e-06
-7.73676e-07
3.55418e-10
-7.74613e-07
8.55262e-10
-1.03795e-06
1.29758e-09
-1.16826e-06
1.55106e-09
-1.25697e-06
1.55689e-09
-1.31707e-06
1.33937e-09
-1.35647e-06
9.79057e-10
-1.38143e-06
5.3445e-10
-1.39665e-06
4.37308e-11
-1.40524e-06
-4.44085e-10
-1.40904e-06
-9.08217e-10
-1.40889e-06
-1.30399e-09
-1.4048e-06
-1.61708e-09
-1.39599e-06
-1.80962e-09
-1.3807e-06
-1.85836e-09
-1.35582e-06
-1.70907e-09
-1.31667e-06
-1.33335e-09
-1.25688e-06
-8.09068e-10
-1.16829e-06
-3.14968e-10
-1.03783e-06
-7.73988e-07
3.78102e-10
-7.74982e-07
9.55957e-10
-1.03852e-06
1.45705e-09
-1.16875e-06
1.74365e-09
-1.25725e-06
1.76187e-09
-1.31708e-06
1.52722e-09
-1.35623e-06
1.13591e-09
-1.38103e-06
6.49462e-10
-1.39616e-06
1.15602e-10
-1.4047e-06
-4.17346e-10
-1.4085e-06
-9.2617e-10
-1.40838e-06
-1.37037e-09
-1.40435e-06
-1.72753e-09
-1.39563e-06
-1.96349e-09
-1.38046e-06
-2.03161e-09
-1.35575e-06
-1.87295e-09
-1.31682e-06
-1.47076e-09
-1.25727e-06
-9.20634e-10
-1.16883e-06
-3.75124e-10
-1.03836e-06
-7.74362e-07
3.77776e-10
-7.75353e-07
1.03037e-09
-1.03917e-06
1.59178e-09
-1.1693e-06
1.91002e-09
-1.25756e-06
1.9408e-09
-1.31711e-06
1.70412e-09
-1.35599e-06
1.28493e-09
-1.38061e-06
7.55779e-10
-1.39562e-06
1.82462e-10
-1.40413e-06
-3.96591e-10
-1.40792e-06
-9.52827e-10
-1.40782e-06
-1.45156e-09
-1.40384e-06
-1.85577e-09
-1.39522e-06
-2.13614e-09
-1.38017e-06
-2.22267e-09
-1.35565e-06
-2.05313e-09
-1.31698e-06
-1.62141e-09
-1.25769e-06
-1.01169e-09
-1.16944e-06
-3.7507e-10
-1.03899e-06
-7.74737e-07
3.93146e-10
-7.75738e-07
1.09581e-09
-1.03987e-06
1.6974e-09
-1.1699e-06
2.03909e-09
-1.2579e-06
2.07265e-09
-1.31713e-06
1.84322e-09
-1.35575e-06
1.41076e-09
-1.38017e-06
8.52207e-10
-1.39506e-06
2.44376e-10
-1.40351e-06
-3.78373e-10
-1.40729e-06
-9.7758e-10
-1.40721e-06
-1.52349e-09
-1.4033e-06
-1.96687e-09
-1.39477e-06
-2.28168e-09
-1.37986e-06
-2.38913e-09
-1.35554e-06
-2.21688e-09
-1.31715e-06
-1.76008e-09
-1.25815e-06
-1.07323e-09
-1.17012e-06
-3.20258e-10
-1.03975e-06
-7.75058e-07
4.66046e-10
-7.76195e-07
1.18978e-09
-1.04058e-06
1.83782e-09
-1.17054e-06
2.21703e-09
-1.25827e-06
2.25993e-09
-1.31717e-06
2.01434e-09
-1.3555e-06
1.55902e-09
-1.37971e-06
9.69295e-10
-1.39447e-06
3.19732e-10
-1.40285e-06
-3.4472e-10
-1.40662e-06
-9.83765e-10
-1.40656e-06
-1.5683e-09
-1.40271e-06
-2.04831e-09
-1.39428e-06
-2.38359e-09
-1.37952e-06
-2.49818e-09
-1.35542e-06
-2.32329e-09
-1.31732e-06
-1.85701e-09
-1.25861e-06
-1.14749e-09
-1.17083e-06
-3.28168e-10
-1.04057e-06
-7.75386e-07
5.04935e-10
-7.76691e-07
1.29145e-09
-1.04136e-06
1.97639e-09
-1.17122e-06
2.39044e-09
-1.25868e-06
2.45596e-09
-1.31723e-06
2.2033e-09
-1.35524e-06
1.73138e-09
-1.37923e-06
1.11368e-09
-1.39384e-06
4.23608e-10
-1.40216e-06
-2.84849e-10
-1.40591e-06
-9.65151e-10
-1.40588e-06
-1.58907e-09
-1.40208e-06
-2.11333e-09
-1.39375e-06
-2.47564e-09
-1.37915e-06
-2.60782e-09
-1.35528e-06
-2.44145e-09
-1.31748e-06
-1.96066e-09
-1.25909e-06
-1.23444e-09
-1.17156e-06
-4.19737e-10
-1.04138e-06
-7.75805e-07
5.22557e-10
-7.77208e-07
1.36279e-09
-1.0422e-06
2.11195e-09
-1.17196e-06
2.57764e-09
-1.25914e-06
2.66869e-09
-1.31731e-06
2.42119e-09
-1.35499e-06
1.92824e-09
-1.37873e-06
1.28007e-09
-1.39319e-06
5.4245e-10
-1.40142e-06
-2.15007e-10
-1.40515e-06
-9.47538e-10
-1.40514e-06
-1.60929e-09
-1.40141e-06
-2.16663e-09
-1.39319e-06
-2.54869e-09
-1.37876e-06
-2.69627e-09
-1.35513e-06
-2.54124e-09
-1.31763e-06
-2.05559e-09
-1.25957e-06
-1.31442e-09
-1.17229e-06
-5.08282e-10
-1.04218e-06
-7.76311e-07
4.84282e-10
-7.77685e-07
1.40072e-09
-1.04311e-06
2.21708e-09
-1.17277e-06
2.72568e-09
-1.25965e-06
2.82322e-09
-1.31741e-06
2.56923e-09
-1.35473e-06
2.05737e-09
-1.37822e-06
1.3814e-09
-1.39251e-06
6.03806e-10
-1.40063e-06
-2.02216e-10
-1.40433e-06
-9.88274e-10
-1.40435e-06
-1.69265e-09
-1.40069e-06
-2.28348e-09
-1.39259e-06
-2.68938e-09
-1.37834e-06
-2.84923e-09
-1.35496e-06
-2.6977e-09
-1.31778e-06
-2.19487e-09
-1.26007e-06
-1.42231e-09
-1.17306e-06
-6.23885e-10
-1.04297e-06
-7.76933e-07
5.8089e-10
-7.7825e-07
1.50462e-09
-1.04403e-06
2.31019e-09
-1.17357e-06
2.79696e-09
-1.26013e-06
2.88903e-09
-1.31749e-06
2.64283e-09
-1.35448e-06
2.13465e-09
-1.3777e-06
1.43978e-09
-1.3918e-06
6.37734e-10
-1.39983e-06
-2.05525e-10
-1.40348e-06
-1.04055e-09
-1.40351e-06
-1.80387e-09
-1.39992e-06
-2.44583e-09
-1.39195e-06
-2.8876e-09
-1.3779e-06
-3.06142e-09
-1.35478e-06
-2.90174e-09
-1.31793e-06
-2.35583e-09
-1.26061e-06
-1.52308e-09
-1.17388e-06
-6.51328e-10
-1.04383e-06
-7.77584e-07
7.50592e-10
-7.78982e-07
1.62747e-09
-1.04489e-06
2.47469e-09
-1.1744e-06
2.9987e-09
-1.26065e-06
3.1143e-09
-1.3176e-06
2.86664e-09
-1.35422e-06
2.33209e-09
-1.37716e-06
1.59686e-09
-1.39106e-06
7.45215e-10
-1.39897e-06
-1.47729e-10
-1.40258e-06
-1.03336e-09
-1.40262e-06
-1.85113e-09
-1.3991e-06
-2.53763e-09
-1.39126e-06
-3.00709e-09
-1.37742e-06
-3.19083e-09
-1.3546e-06
-3.02351e-09
-1.31809e-06
-2.46486e-09
-1.26117e-06
-1.60835e-09
-1.17474e-06
-6.19721e-10
-1.04482e-06
-7.78203e-07
6.88476e-10
-7.79658e-07
1.68928e-09
-1.04588e-06
2.62151e-09
-1.17533e-06
3.21756e-09
-1.26124e-06
3.37842e-09
-1.31775e-06
3.13119e-09
-1.35397e-06
2.56299e-09
-1.37659e-06
1.7816e-09
-1.39027e-06
8.73944e-10
-1.39806e-06
-7.65734e-11
-1.40162e-06
-1.01361e-09
-1.40168e-06
-1.87646e-09
-1.39823e-06
-2.59843e-09
-1.39053e-06
-3.09411e-09
-1.37692e-06
-3.29476e-09
-1.3544e-06
-3.12303e-09
-1.31826e-06
-2.56368e-09
-1.26172e-06
-1.69452e-09
-1.17561e-06
-6.69351e-10
-1.04584e-06
-7.78872e-07
6.12913e-10
-7.80265e-07
1.76663e-09
-1.04703e-06
2.74366e-09
-1.1763e-06
3.35986e-09
-1.26185e-06
3.54051e-09
-1.31793e-06
3.29836e-09
-1.35373e-06
2.71565e-09
-1.376e-06
1.9038e-09
-1.38946e-06
9.59187e-10
-1.39711e-06
-3.90351e-11
-1.40061e-06
-1.02575e-09
-1.40069e-06
-1.93338e-09
-1.39731e-06
-2.69504e-09
-1.38977e-06
-3.22653e-09
-1.37639e-06
-3.44625e-09
-1.35417e-06
-3.26792e-09
-1.31844e-06
-2.681e-09
-1.26231e-06
-1.76288e-09
-1.17652e-06
-7.14109e-10
-1.04689e-06
-7.79584e-07
6.83944e-10
-7.80946e-07
1.85056e-09
-1.04819e-06
2.83697e-09
-1.17728e-06
3.46372e-09
-1.26247e-06
3.65473e-09
-1.31812e-06
3.4122e-09
-1.35348e-06
2.82071e-09
-1.3754e-06
1.99174e-09
-1.38862e-06
1.01805e-09
-1.39613e-06
-1.50574e-11
-1.39957e-06
-1.04049e-09
-1.39966e-06
-1.98595e-09
-1.39636e-06
-2.7824e-09
-1.38897e-06
-3.34384e-09
-1.37582e-06
-3.57653e-09
-1.35393e-06
-3.39608e-09
-1.31861e-06
-2.77981e-09
-1.26292e-06
-1.81807e-09
-1.17747e-06
-7.11612e-10
-1.04799e-06
-7.80294e-07
7.94711e-10
-7.81733e-07
1.93246e-09
-1.04932e-06
2.93869e-09
-1.17828e-06
3.58685e-09
-1.26311e-06
3.78087e-09
-1.31831e-06
3.53137e-09
-1.35322e-06
2.92277e-09
-1.37479e-06
2.07218e-09
-1.38776e-06
1.06977e-09
-1.39512e-06
3.74875e-12
-1.3985e-06
-1.05777e-09
-1.39859e-06
-2.03924e-09
-1.39537e-06
-2.86748e-09
-1.38813e-06
-3.45392e-09
-1.37523e-06
-3.69999e-09
-1.35368e-06
-3.52078e-09
-1.31878e-06
-2.888e-09
-1.26354e-06
-1.90057e-09
-1.17846e-06
-7.63099e-10
-1.04912e-06
-7.81057e-07
9.04705e-10
-7.82625e-07
2.05309e-09
-1.05046e-06
3.06942e-09
-1.17929e-06
3.72432e-09
-1.26376e-06
3.92154e-09
-1.3185e-06
3.66286e-09
-1.35296e-06
3.03559e-09
-1.37416e-06
2.15563e-09
-1.38688e-06
1.11972e-09
-1.39408e-06
1.4493e-11
-1.39739e-06
-1.08964e-09
-1.39748e-06
-2.1147e-09
-1.39434e-06
-2.98292e-09
-1.38726e-06
-3.59956e-09
-1.37461e-06
-3.85903e-09
-1.35342e-06
-3.67401e-09
-1.31896e-06
-3.02773e-09
-1.26419e-06
-2.0204e-09
-1.17946e-06
-8.56301e-10
-1.05028e-06
-7.81914e-07
9.83655e-10
-7.83595e-07
2.16366e-09
-1.05163e-06
3.22526e-09
-1.18034e-06
3.91905e-09
-1.26445e-06
4.13125e-09
-1.3187e-06
3.85905e-09
-1.35268e-06
3.19931e-09
-1.37349e-06
2.27271e-09
-1.38595e-06
1.18915e-09
-1.39299e-06
3.27854e-11
-1.39623e-06
-1.12357e-09
-1.39632e-06
-2.20411e-09
-1.39326e-06
-3.12579e-09
-1.38634e-06
-3.78708e-09
-1.37394e-06
-4.0701e-09
-1.35313e-06
-3.87702e-09
-1.31915e-06
-3.20161e-09
-1.26486e-06
-2.1383e-09
-1.18053e-06
-9.06547e-10
-1.05151e-06
-7.8282e-07
9.32823e-10
-7.8452e-07
2.23581e-09
-1.05292e-06
3.38117e-09
-1.18148e-06
4.12734e-09
-1.26519e-06
4.34913e-09
-1.31892e-06
4.06087e-09
-1.35239e-06
3.36437e-09
-1.37279e-06
2.39673e-09
-1.38497e-06
1.27226e-09
-1.39186e-06
7.55592e-11
-1.39503e-06
-1.12165e-09
-1.39512e-06
-2.24919e-09
-1.39213e-06
-3.21915e-09
-1.38536e-06
-3.92331e-09
-1.37323e-06
-4.23457e-09
-1.35282e-06
-4.052e-09
-1.31933e-06
-3.34576e-09
-1.26557e-06
-2.20104e-09
-1.18167e-06
-8.47229e-10
-1.05286e-06
-7.83666e-07
9.00719e-10
-7.85416e-07
2.30752e-09
-1.05432e-06
3.48979e-09
-1.18266e-06
4.25042e-09
-1.26595e-06
4.47309e-09
-1.31913e-06
4.18154e-09
-1.35209e-06
3.47568e-09
-1.37208e-06
2.49461e-09
-1.38398e-06
1.34892e-09
-1.39071e-06
1.33957e-10
-1.3938e-06
-1.0849e-09
-1.39389e-06
-2.22764e-09
-1.39097e-06
-3.21552e-09
-1.38437e-06
-3.93016e-09
-1.37251e-06
-4.24907e-09
-1.35249e-06
-4.08889e-09
-1.31949e-06
-3.40144e-09
-1.26625e-06
-2.2601e-09
-1.18281e-06
-8.61454e-10
-1.05426e-06
-7.84525e-07
9.61746e-10
-7.86374e-07
2.3688e-09
-1.05573e-06
3.60279e-09
-1.18389e-06
4.38613e-09
-1.26672e-06
4.59654e-09
-1.31934e-06
4.28248e-09
-1.35177e-06
3.56007e-09
-1.37135e-06
2.56126e-09
-1.38298e-06
1.39533e-09
-1.38954e-06
1.56905e-10
-1.39256e-06
-1.08872e-09
-1.39265e-06
-2.25402e-09
-1.3898e-06
-3.26444e-09
-1.38335e-06
-3.99674e-09
-1.37177e-06
-4.33852e-09
-1.35215e-06
-4.19031e-09
-1.31963e-06
-3.50859e-09
-1.26693e-06
-2.37611e-09
-1.18393e-06
-1.07154e-09
-1.05555e-06
-7.85595e-07
1.01745e-09
-7.87383e-07
2.44265e-09
-1.05715e-06
3.69617e-09
-1.18513e-06
4.47801e-09
-1.2675e-06
4.67815e-09
-1.31953e-06
4.34747e-09
-1.35144e-06
3.61087e-09
-1.37061e-06
2.59314e-09
-1.38196e-06
1.40351e-09
-1.38835e-06
1.31936e-10
-1.39128e-06
-1.15e-09
-1.39136e-06
-2.35727e-09
-1.38858e-06
-3.40901e-09
-1.3823e-06
-4.18327e-09
-1.37099e-06
-4.55695e-09
-1.35177e-06
-4.40977e-09
-1.31978e-06
-3.69261e-09
-1.26764e-06
-2.51158e-09
-1.1851e-06
-1.19746e-09
-1.05686e-06
-7.86791e-07
1.12745e-09
-7.88501e-07
2.55769e-09
-1.05857e-06
3.83247e-09
-1.1864e-06
4.61776e-09
-1.26828e-06
4.80899e-09
-1.31972e-06
4.46295e-09
-1.35109e-06
3.70267e-09
-1.36985e-06
2.65549e-09
-1.38091e-06
1.42908e-09
-1.38712e-06
1.14871e-10
-1.38996e-06
-1.21213e-09
-1.39003e-06
-2.47028e-09
-1.38732e-06
-3.56706e-09
-1.3812e-06
-4.3842e-09
-1.37017e-06
-4.78057e-09
-1.35137e-06
-4.62605e-09
-1.31993e-06
-3.86993e-09
-1.26839e-06
-2.62005e-09
-1.18635e-06
-1.1653e-09
-1.05831e-06
-7.87956e-07
1.16297e-09
-7.89655e-07
2.67034e-09
-1.06008e-06
4.0023e-09
-1.18773e-06
4.81485e-09
-1.26909e-06
5.00213e-09
-1.3199e-06
4.63539e-09
-1.35072e-06
3.842e-09
-1.36905e-06
2.75661e-09
-1.37982e-06
1.48777e-09
-1.38585e-06
1.2794e-10
-1.3886e-06
-1.24464e-09
-1.38866e-06
-2.54904e-09
-1.38602e-06
-3.68595e-09
-1.38006e-06
-4.53507e-09
-1.36932e-06
-4.9469e-09
-1.35096e-06
-4.78949e-09
-1.32008e-06
-4.01157e-09
-1.26916e-06
-2.70772e-09
-1.18765e-06
-1.12606e-09
-1.05989e-06
-7.89082e-07
1.12773e-09
-7.90775e-07
2.74795e-09
-1.06169e-06
4.12754e-09
-1.1891e-06
4.9645e-09
-1.26992e-06
5.15694e-09
-1.32009e-06
4.78043e-09
-1.35033e-06
3.96526e-09
-1.36823e-06
2.84822e-09
-1.37869e-06
1.54346e-09
-1.38454e-06
1.45372e-10
-1.3872e-06
-1.26323e-09
-1.38725e-06
-2.59996e-09
-1.38468e-06
-3.76362e-09
-1.37889e-06
-4.6335e-09
-1.36845e-06
-5.05944e-09
-1.35053e-06
-4.91214e-09
-1.32023e-06
-4.12705e-09
-1.26995e-06
-2.78991e-09
-1.18899e-06
-1.16754e-09
-1.06151e-06
-7.90249e-07
1.16147e-09
-7.91931e-07
2.83617e-09
-1.06336e-06
4.25174e-09
-1.19051e-06
5.09628e-09
-1.27076e-06
5.27433e-09
-1.32026e-06
4.87818e-09
-1.34993e-06
4.04352e-09
-1.36739e-06
2.90348e-09
-1.37755e-06
1.57418e-09
-1.38321e-06
1.47483e-10
-1.38577e-06
-1.28781e-09
-1.38581e-06
-2.6494e-09
-1.38332e-06
-3.83623e-09
-1.3777e-06
-4.72738e-09
-1.36756e-06
-5.17414e-09
-1.35008e-06
-5.03299e-09
-1.32037e-06
-4.22581e-09
-1.27075e-06
-2.84652e-09
-1.19036e-06
-1.22078e-09
-1.06313e-06
-7.91467e-07
1.28501e-09
-7.93209e-07
2.97513e-09
-1.06504e-06
4.39178e-09
-1.19192e-06
5.21795e-09
-1.27158e-06
5.3691e-09
-1.32041e-06
4.94851e-09
-1.34951e-06
4.09742e-09
-1.36654e-06
2.9424e-09
-1.37639e-06
1.59216e-09
-1.38186e-06
1.43507e-10
-1.38431e-06
-1.31796e-09
-1.38434e-06
-2.7004e-09
-1.38193e-06
-3.90644e-09
-1.37649e-06
-4.81367e-09
-1.36664e-06
-5.27517e-09
-1.34961e-06
-5.14399e-09
-1.32049e-06
-4.32896e-09
-1.27156e-06
-2.93239e-09
-1.19175e-06
-1.28494e-09
-1.06476e-06
-7.9275e-07
1.37575e-09
-7.94576e-07
3.07973e-09
-1.06673e-06
4.54424e-09
-1.19338e-06
5.40844e-09
-1.27244e-06
5.5606e-09
-1.32056e-06
5.11073e-09
-1.34906e-06
4.22266e-09
-1.36565e-06
3.02794e-09
-1.3752e-06
1.63257e-09
-1.38046e-06
1.38141e-10
-1.38282e-06
-1.36929e-09
-1.38283e-06
-2.79363e-09
-1.3805e-06
-4.03589e-09
-1.37525e-06
-4.97373e-09
-1.3657e-06
-5.45673e-09
-1.34912e-06
-5.33295e-09
-1.32061e-06
-4.49758e-09
-1.27239e-06
-3.06619e-09
-1.19317e-06
-1.40607e-09
-1.06642e-06
-7.94156e-07
1.32857e-09
-7.95896e-07
3.13789e-09
-1.06853e-06
4.67922e-09
-1.19492e-06
5.60349e-09
-1.27336e-06
5.77366e-09
-1.32073e-06
5.29921e-09
-1.34858e-06
4.36894e-09
-1.36472e-06
3.12081e-09
-1.37395e-06
1.66908e-09
-1.379e-06
1.12242e-10
-1.38126e-06
-1.45289e-09
-1.38126e-06
-2.93865e-09
-1.37901e-06
-4.23409e-09
-1.37395e-06
-5.21836e-09
-1.36472e-06
-5.72812e-09
-1.34861e-06
-5.59269e-09
-1.32074e-06
-4.7049e-09
-1.27327e-06
-3.18137e-09
-1.19469e-06
-1.4122e-09
-1.06818e-06
-7.95568e-07
1.33562e-09
-7.97225e-07
3.24572e-09
-1.07044e-06
4.81522e-09
-1.19648e-06
5.73301e-09
-1.27427e-06
5.88525e-09
-1.32087e-06
5.38749e-09
-1.34808e-06
4.42954e-09
-1.36375e-06
3.14976e-09
-1.37266e-06
1.66516e-09
-1.37751e-06
6.84644e-11
-1.37966e-06
-1.53775e-09
-1.37965e-06
-3.06716e-09
-1.37748e-06
-4.40406e-09
-1.37261e-06
-5.42381e-09
-1.3637e-06
-5.95534e-09
-1.34807e-06
-5.81154e-09
-1.32088e-06
-4.88817e-09
-1.27419e-06
-3.27984e-09
-1.1963e-06
-1.33947e-09
-1.07012e-06
-7.96906e-07
1.4951e-09
-7.98714e-07
3.39606e-09
-1.07233e-06
4.96898e-09
-1.19805e-06
5.86505e-09
-1.27517e-06
5.99654e-09
-1.321e-06
5.47854e-09
-1.34756e-06
4.49323e-09
-1.36276e-06
3.18862e-09
-1.37136e-06
1.67752e-09
-1.376e-06
5.67548e-11
-1.37804e-06
-1.576e-09
-1.37802e-06
-3.12861e-09
-1.37593e-06
-4.49055e-09
-1.37124e-06
-5.5357e-09
-1.36265e-06
-6.09709e-09
-1.34751e-06
-5.97092e-09
-1.32101e-06
-5.03242e-09
-1.27513e-06
-3.36431e-09
-1.19797e-06
-1.34255e-09
-1.07214e-06
-7.98247e-07
1.60224e-09
-8.00307e-07
3.5188e-09
-1.07424e-06
5.16301e-09
-1.19969e-06
6.10556e-09
-1.2761e-06
6.24622e-09
-1.32114e-06
5.70171e-09
-1.34701e-06
4.6612e-09
-1.36172e-06
3.30336e-09
-1.36999e-06
1.74061e-09
-1.37444e-06
7.92496e-11
-1.37637e-06
-1.59173e-09
-1.37634e-06
-3.16857e-09
-1.37435e-06
-4.54985e-09
-1.36986e-06
-5.60758e-09
-1.36159e-06
-6.18656e-09
-1.34693e-06
-6.07882e-09
-1.32111e-06
-5.13698e-09
-1.27607e-06
-3.45645e-09
-1.19964e-06
-1.44082e-09
-1.07415e-06
-7.99686e-07
1.5295e-09
-8.01824e-07
3.6078e-09
-1.0763e-06
5.36055e-09
-1.20143e-06
6.357e-09
-1.27709e-06
6.5034e-09
-1.32128e-06
5.92035e-09
-1.34642e-06
4.82485e-09
-1.36062e-06
3.40564e-09
-1.36857e-06
1.78618e-09
-1.37281e-06
7.01962e-11
-1.37465e-06
-1.65019e-09
-1.37462e-06
-3.27227e-09
-1.37272e-06
-4.69473e-09
-1.36843e-06
-5.78894e-09
-1.36049e-06
-6.39951e-09
-1.34632e-06
-6.30408e-09
-1.3212e-06
-5.33317e-09
-1.27703e-06
-3.60447e-09
-1.20136e-06
-1.59703e-09
-1.07614e-06
-8.0128e-07
1.52257e-09
-8.03336e-07
3.7169e-09
-1.07849e-06
5.51807e-09
-1.20323e-06
6.52073e-09
-1.27809e-06
6.6533e-09
-1.32141e-06
6.03929e-09
-1.3458e-06
4.90758e-09
-1.35949e-06
3.44169e-09
-1.36711e-06
1.7774e-09
-1.37115e-06
1.15293e-11
-1.37289e-06
-1.75901e-09
-1.37285e-06
-3.43814e-09
-1.37104e-06
-4.91626e-09
-1.36695e-06
-6.06363e-09
-1.35934e-06
-6.69997e-09
-1.34567e-06
-6.59516e-09
-1.3213e-06
-5.57337e-09
-1.27805e-06
-3.749e-09
-1.20317e-06
-1.62099e-09
-1.07826e-06
-8.02898e-07
1.62358e-09
-8.04951e-07
3.82357e-09
-1.08068e-06
5.68721e-09
-1.20509e-06
6.72769e-09
-1.27913e-06
6.84965e-09
-1.32153e-06
6.20344e-09
-1.34516e-06
5.01764e-09
-1.3583e-06
3.49801e-09
-1.36559e-06
1.78144e-09
-1.36943e-06
-3.67981e-11
-1.37107e-06
-1.8598e-09
-1.37102e-06
-3.59622e-09
-1.3693e-06
-5.12838e-09
-1.36542e-06
-6.32732e-09
-1.35814e-06
-6.99086e-09
-1.34501e-06
-6.88698e-09
-1.3214e-06
-5.829e-09
-1.27909e-06
-3.91086e-09
-1.20507e-06
-1.60932e-09
-1.08055e-06
-8.04505e-07
1.65961e-09
-8.06602e-07
3.95921e-09
-1.08297e-06
5.91444e-09
-1.20704e-06
6.99291e-09
-1.2802e-06
7.0968e-09
-1.32163e-06
6.40945e-09
-1.34447e-06
5.16811e-09
-1.35706e-06
3.58838e-09
-1.36401e-06
1.8127e-09
-1.36765e-06
-6.13163e-11
-1.36919e-06
-1.93489e-09
-1.36915e-06
-3.72454e-09
-1.36752e-06
-5.30742e-09
-1.36383e-06
-6.5588e-09
-1.35689e-06
-7.26005e-09
-1.3443e-06
-7.17233e-09
-1.32149e-06
-6.08626e-09
-1.28017e-06
-4.07703e-09
-1.20708e-06
-1.63907e-09
-1.08298e-06
-8.06144e-07
1.70715e-09
-8.08302e-07
4.15761e-09
-1.08541e-06
6.18896e-09
-1.20907e-06
7.27727e-09
-1.28129e-06
7.35047e-09
-1.32171e-06
6.62203e-09
-1.34374e-06
5.33417e-09
-1.35577e-06
3.69196e-09
-1.36237e-06
1.85216e-09
-1.36581e-06
-8.39656e-11
-1.36726e-06
-2.015e-09
-1.36721e-06
-3.86213e-09
-1.36568e-06
-5.50058e-09
-1.36219e-06
-6.79681e-09
-1.3556e-06
-7.52443e-09
-1.34357e-06
-7.44288e-09
-1.32157e-06
-6.33276e-09
-1.28128e-06
-4.25102e-09
-1.20916e-06
-1.70132e-09
-1.08552e-06
-8.07845e-07
1.74242e-09
-8.1004e-07
4.34077e-09
-1.08799e-06
6.50413e-09
-1.21123e-06
7.64956e-09