/*--------------------------------*- C++ -*----------------------------------*\
  =========                 |
  \\      /  F ield         | OpenFOAM: The Open Source CFD Toolbox
   \\    /   O peration     | Website:  https://openfoam.org
    \\  /    A nd           | Version:  6
     \\/     M anipulation  |
\*---------------------------------------------------------------------------*/
FoamFile
{
    version     2.0;
    format      ascii;
    class       surfaceScalarField;
    location    "26";
    object      phi;
}
// * * * * * * * * * * * * * * * * * * * * * * * * * * * * * * * * * * * * * //

dimensions      [0 3 -1 0 0 0 0];

internalField   nonuniform List<scalar> 
258600
(
-9.80527e-09
-8.53844e-08
9.49663e-09
-1.00986e-08
-9.12082e-08
-1.03642e-08
-9.68891e-08
-1.06036e-08
-1.02398e-07
-1.08185e-08
-1.0771e-07
-1.10108e-08
-1.12801e-07
-1.11827e-08
-1.17649e-07
-1.13365e-08
-1.22235e-07
-1.14742e-08
-1.26541e-07
-1.15978e-08
-1.30555e-07
-1.1709e-08
-1.34267e-07
-1.18095e-08
-1.37673e-07
-1.19006e-08
-1.40772e-07
-1.19839e-08
-1.43568e-07
-1.206e-08
-1.46068e-07
-1.21303e-08
-1.48282e-07
-1.21952e-08
-1.50225e-07
-1.22556e-08
-1.51914e-07
-1.23118e-08
-1.53367e-07
-1.54606e-07
-1.23646e-08
-1.05372e-08
-8.51563e-08
1.03075e-08
-1.07623e-08
-9.09852e-08
-1.09768e-08
-9.66766e-08
-1.11759e-08
-1.02201e-07
-1.13583e-08
-1.07529e-07
-1.15236e-08
-1.12637e-07
-1.16727e-08
-1.17502e-07
-1.18067e-08
-1.22102e-07
-1.19272e-08
-1.26422e-07
-1.20356e-08
-1.30447e-07
-1.21337e-08
-1.3417e-07
-1.22227e-08
-1.37585e-07
-1.2304e-08
-1.40692e-07
-1.23786e-08
-1.43494e-07
-1.24478e-08
-1.45999e-07
-1.25119e-08
-1.48218e-07
-1.2572e-08
-1.50165e-07
-1.26284e-08
-1.51858e-07
-1.26817e-08
-1.53314e-07
-1.54554e-07
-1.27326e-08
-1.16403e-08
-8.49808e-08
1.14592e-08
-1.18151e-08
-9.08132e-08
-1.19818e-08
-9.65134e-08
-1.21363e-08
-1.02049e-07
-1.22783e-08
-1.0739e-07
-1.2407e-08
-1.12511e-07
-1.25236e-08
-1.17388e-07
-1.26285e-08
-1.21999e-07
-1.27233e-08
-1.26329e-07
-1.28091e-08
-1.30363e-07
-1.28872e-08
-1.34093e-07
-1.29587e-08
-1.37515e-07
-1.30246e-08
-1.40627e-07
-1.30863e-08
-1.43433e-07
-1.31439e-08
-1.45942e-07
-1.31988e-08
-1.48164e-07
-1.3251e-08
-1.50114e-07
-1.33015e-08
-1.51808e-07
-1.335e-08
-1.53266e-07
-1.54507e-07
-1.3398e-08
-1.315e-08
-8.48783e-08
1.30452e-08
-1.32539e-08
-9.07118e-08
-1.3354e-08
-9.64159e-08
-1.34479e-08
-1.01957e-07
-1.35349e-08
-1.07306e-07
-1.36141e-08
-1.12434e-07
-1.36863e-08
-1.17318e-07
-1.37514e-08
-1.21936e-07
-1.38108e-08
-1.26271e-07
-1.38648e-08
-1.30311e-07
-1.39147e-08
-1.34045e-07
-1.39611e-08
-1.37469e-07
-1.40052e-08
-1.40584e-07
-1.40473e-08
-1.43392e-07
-1.40884e-08
-1.45902e-07
-1.41287e-08
-1.48124e-07
-1.41687e-08
-1.50074e-07
-1.42088e-08
-1.51768e-07
-1.4249e-08
-1.53225e-07
-1.54466e-07
-1.429e-08
-1.49092e-08
-8.48428e-08
1.48672e-08
-1.49473e-08
-9.06772e-08
-1.49835e-08
-9.63838e-08
-1.50161e-08
-1.01928e-07
-1.50453e-08
-1.0728e-07
-1.50707e-08
-1.12412e-07
-1.50931e-08
-1.17299e-07
-1.51127e-08
-1.21919e-07
-1.51303e-08
-1.26257e-07
-1.51465e-08
-1.30297e-07
-1.51621e-08
-1.34032e-07
-1.51778e-08
-1.37456e-07
-1.5194e-08
-1.40569e-07
-1.52117e-08
-1.43376e-07
-1.52306e-08
-1.45884e-07
-1.52519e-08
-1.48105e-07
-1.52748e-08
-1.50053e-07
-1.53004e-08
-1.51745e-07
-1.53274e-08
-1.53199e-07
-1.54438e-07
-1.53575e-08
-1.68471e-08
-8.48662e-08
1.68647e-08
-1.6825e-08
-9.0705e-08
-1.67998e-08
-9.64142e-08
-1.67725e-08
-1.01961e-07
-1.67439e-08
-1.07313e-07
-1.67145e-08
-1.12445e-07
-1.66852e-08
-1.17332e-07
-1.66565e-08
-1.21951e-07
-1.66292e-08
-1.26287e-07
-1.6604e-08
-1.30325e-07
-1.65815e-08
-1.34056e-07
-1.65625e-08
-1.37477e-07
-1.65472e-08
-1.40587e-07
-1.65361e-08
-1.43389e-07
-1.65291e-08
-1.45893e-07
-1.6527e-08
-1.48109e-07
-1.65288e-08
-1.50052e-07
-1.65356e-08
-1.51739e-07
-1.65459e-08
-1.53189e-07
-1.54424e-07
-1.6561e-08
-1.89011e-08
-8.49486e-08
1.89691e-08
-1.88222e-08
-9.07919e-08
-1.87411e-08
-9.65034e-08
-1.86578e-08
-1.02051e-07
-1.85748e-08
-1.07403e-07
-1.84926e-08
-1.12533e-07
-1.84126e-08
-1.17416e-07
-1.83358e-08
-1.22032e-07
-1.8263e-08
-1.26363e-07
-1.81953e-08
-1.30396e-07
-1.81328e-08
-1.34122e-07
-1.80769e-08
-1.37536e-07
-1.80268e-08
-1.40639e-07
-1.79844e-08
-1.43435e-07
-1.79479e-08
-1.45931e-07
-1.79193e-08
-1.4814e-07
-1.78963e-08
-1.50076e-07
-1.7881e-08
-1.51757e-07
-1.78705e-08
-1.53201e-07
-1.5443e-07
-1.78673e-08
-2.10176e-08
-8.50716e-08
2.1131e-08
-2.08921e-08
-9.09228e-08
-2.07618e-08
-9.66391e-08
-2.0629e-08
-1.02188e-07
-2.0496e-08
-1.0754e-07
-2.03647e-08
-1.12669e-07
-2.02366e-08
-1.17549e-07
-2.01135e-08
-1.22159e-07
-1.99958e-08
-1.26484e-07
-1.98856e-08
-1.3051e-07
-1.97825e-08
-1.34228e-07
-1.96885e-08
-1.37633e-07
-1.96025e-08
-1.40727e-07
-1.95263e-08
-1.43513e-07
-1.94584e-08
-1.46001e-07
-1.94005e-08
-1.482e-07
-1.93503e-08
-1.50128e-07
-1.93098e-08
-1.518e-07
-1.92758e-08
-1.53236e-07
-1.54457e-07
-1.92512e-08
-2.31747e-08
-8.52291e-08
2.33271e-08
-2.30091e-08
-9.10926e-08
-2.28345e-08
-9.68169e-08
-2.26572e-08
-1.0237e-07
-2.24781e-08
-1.07723e-07
-2.23015e-08
-1.1285e-07
-2.21277e-08
-1.17726e-07
-2.19605e-08
-1.22331e-07
-2.17992e-08
-1.26649e-07
-2.16474e-08
-1.30666e-07
-2.15037e-08
-1.34374e-07
-2.13714e-08
-1.3777e-07
-2.12482e-08
-1.40853e-07
-2.11375e-08
-1.43628e-07
-2.10361e-08
-1.46104e-07
-2.09474e-08
-1.48293e-07
-2.08675e-08
-1.5021e-07
-2.07998e-08
-1.51871e-07
-2.07396e-08
-1.53297e-07
-1.54509e-07
-2.06912e-08
-2.5359e-08
-8.54219e-08
2.55482e-08
-2.51555e-08
-9.12991e-08
-2.49405e-08
-9.70332e-08
-2.47222e-08
-1.02592e-07
-2.45004e-08
-1.07948e-07
-2.42815e-08
-1.13073e-07
-2.40646e-08
-1.17946e-07
-2.38553e-08
-1.22545e-07
-2.36519e-08
-1.26855e-07
-2.34595e-08
-1.30863e-07
-2.32758e-08
-1.34561e-07
-2.31052e-08
-1.37945e-07
-2.29448e-08
-1.41016e-07
-2.27985e-08
-1.43778e-07
-2.26631e-08
-1.46242e-07
-2.25419e-08
-1.48418e-07
-2.24311e-08
-1.50322e-07
-2.23343e-08
-1.51971e-07
-2.22464e-08
-1.53386e-07
-1.54587e-07
-2.21721e-08
-2.75579e-08
-8.56455e-08
2.77792e-08
-2.73199e-08
-9.15407e-08
-2.7067e-08
-9.72869e-08
-2.68104e-08
-1.02853e-07
-2.65483e-08
-1.08212e-07
-2.62894e-08
-1.13338e-07
-2.60314e-08
-1.18207e-07
-2.57818e-08
-1.22801e-07
-2.55378e-08
-1.27103e-07
-2.53058e-08
-1.311e-07
-2.50827e-08
-1.34787e-07
-2.48741e-08
-1.38158e-07
-2.46762e-08
-1.41216e-07
-2.44944e-08
-1.43965e-07
-2.43237e-08
-1.46414e-07
-2.41695e-08
-1.48577e-07
-2.40262e-08
-1.50467e-07
-2.38992e-08
-1.52103e-07
-2.37816e-08
-1.53505e-07
-1.54693e-07
-2.36799e-08
-2.97595e-08
-8.58986e-08
3.00114e-08
-2.94891e-08
-9.18123e-08
-2.92018e-08
-9.75726e-08
-2.89098e-08
-1.03148e-07
-2.86103e-08
-1.08512e-07
-2.83138e-08
-1.13639e-07
-2.80168e-08
-1.18506e-07
-2.77285e-08
-1.23094e-07
-2.74451e-08
-1.27388e-07
-2.71745e-08
-1.31376e-07
-2.69126e-08
-1.35051e-07
-2.66664e-08
-1.3841e-07
-2.64312e-08
-1.41453e-07
-2.62132e-08
-1.44188e-07
-2.60073e-08
-1.46622e-07
-2.5819e-08
-1.48769e-07
-2.56427e-08
-1.50644e-07
-2.54841e-08
-1.52266e-07
-2.5336e-08
-1.53653e-07
-1.54827e-07
-2.52054e-08
-3.19585e-08
-8.61735e-08
3.22376e-08
-3.16605e-08
-9.21107e-08
-3.13409e-08
-9.78887e-08
-3.10159e-08
-1.03477e-07
-3.06806e-08
-1.08847e-07
-3.03481e-08
-1.13976e-07
-3.00133e-08
-1.18842e-07
-2.96875e-08
-1.23426e-07
-2.93654e-08
-1.27713e-07
-2.90569e-08
-1.31691e-07
-2.87565e-08
-1.35354e-07
-2.84729e-08
-1.38699e-07
-2.82001e-08
-1.41728e-07
-2.79461e-08
-1.44447e-07
-2.77039e-08
-1.46866e-07
-2.74814e-08
-1.48997e-07
-2.72708e-08
-1.50856e-07
-2.708e-08
-1.52462e-07
-2.68997e-08
-1.53834e-07
-1.54993e-07
-2.67392e-08
-3.41595e-08
-8.64752e-08
3.44642e-08
-3.38336e-08
-9.24385e-08
-3.3483e-08
-9.82362e-08
-3.31257e-08
-1.03838e-07
-3.27556e-08
-1.09217e-07
-3.23877e-08
-1.1435e-07
-3.20158e-08
-1.19215e-07
-3.1653e-08
-1.23795e-07
-3.12927e-08
-1.28075e-07
-3.09466e-08
-1.32043e-07
-3.06079e-08
-1.35695e-07
-3.02869e-08
-1.39026e-07
-2.99766e-08
-1.4204e-07
-2.96859e-08
-1.44743e-07
-2.94075e-08
-1.47145e-07
-2.91496e-08
-1.4926e-07
-2.89044e-08
-1.51102e-07
-2.86801e-08
-1.52691e-07
-2.84671e-08
-1.54046e-07
-1.55189e-07
-2.82754e-08
-3.63625e-08
-8.68079e-08
3.66912e-08
-3.60072e-08
-9.27988e-08
-3.56257e-08
-9.86173e-08
-3.52359e-08
-1.04234e-07
-3.48316e-08
-1.09622e-07
-3.44286e-08
-1.1476e-07
-3.40201e-08
-1.19626e-07
-3.36204e-08
-1.24202e-07
-3.32223e-08
-1.28475e-07
-3.28386e-08
-1.32434e-07
-3.24616e-08
-1.36074e-07
-3.2103e-08
-1.39391e-07
-3.17545e-08
-1.4239e-07
-3.1427e-08
-1.45077e-07
-3.11113e-08
-1.47462e-07
-3.08179e-08
-1.49559e-07
-3.05367e-08
-1.51384e-07
-3.02783e-08
-1.52955e-07
-3.0031e-08
-1.54293e-07
-1.55419e-07
-2.98072e-08
-3.85586e-08
-8.71645e-08
3.89114e-08
-3.81764e-08
-9.31865e-08
-3.77647e-08
-9.90281e-08
-3.73434e-08
-1.04661e-07
-3.69053e-08
-1.10061e-07
-3.64676e-08
-1.15205e-07
-3.60228e-08
-1.20072e-07
-3.55865e-08
-1.24646e-07
-3.51504e-08
-1.28913e-07
-3.47291e-08
-1.32863e-07
-3.43135e-08
-1.3649e-07
-3.3917e-08
-1.39795e-07
-3.35301e-08
-1.42778e-07
-3.31649e-08
-1.45449e-07
-3.28116e-08
-1.47816e-07
-3.24814e-08
-1.49895e-07
-3.21637e-08
-1.51701e-07
-3.18701e-08
-1.53254e-07
-3.15878e-08
-1.54573e-07
-1.55682e-07
-3.13307e-08
-4.07492e-08
-8.75463e-08
4.11261e-08
-4.03397e-08
-9.36005e-08
-3.98987e-08
-9.94678e-08
-3.94463e-08
-1.0512e-07
-3.89748e-08
-1.10533e-07
-3.85029e-08
-1.15684e-07
-3.80216e-08
-1.20555e-07
-3.75487e-08
-1.25127e-07
-3.70744e-08
-1.29389e-07
-3.66151e-08
-1.3333e-07
-3.61604e-08
-1.36947e-07
-3.57255e-08
-1.40237e-07
-3.52992e-08
-1.43206e-07
-3.4896e-08
-1.45859e-07
-3.45036e-08
-1.48209e-07
-3.41361e-08
-1.50269e-07
-3.37805e-08
-1.52057e-07
-3.34509e-08
-1.53591e-07
-3.31319e-08
-1.54891e-07
-1.55981e-07
-3.28404e-08
-4.29356e-08
-8.79466e-08
4.33378e-08
-4.25013e-08
-9.40384e-08
-4.20304e-08
-9.99352e-08
-4.15468e-08
-1.0561e-07
-4.1041e-08
-1.11038e-07
-4.05343e-08
-1.16199e-07
-4.00161e-08
-1.21073e-07
-3.95059e-08
-1.25646e-07
-3.89927e-08
-1.29903e-07
-3.84947e-08
-1.33836e-07
-3.80001e-08
-1.37442e-07
-3.75259e-08
-1.40719e-07
-3.70595e-08
-1.43672e-07
-3.66169e-08
-1.46309e-07
-3.6185e-08
-1.48641e-07
-3.57788e-08
-1.50682e-07
-3.53844e-08
-1.52451e-07
-3.50173e-08
-1.53965e-07
-3.46609e-08
-1.55245e-07
-1.56315e-07
-3.43336e-08
-4.5128e-08
-8.83775e-08
4.55559e-08
-4.46641e-08
-9.45078e-08
-4.41614e-08
-1.00435e-07
-4.36449e-08
-1.06134e-07
-4.31039e-08
-1.11579e-07
-4.25612e-08
-1.1675e-07
-4.2005e-08
-1.2163e-07
-4.14567e-08
-1.26203e-07
-4.09036e-08
-1.30457e-07
-4.0366e-08
-1.34383e-07
-3.98304e-08
-1.37978e-07
-3.93159e-08
-1.41243e-07
-3.8808e-08
-1.44181e-07
-3.83253e-08
-1.46801e-07
-3.7852e-08
-1.49114e-07
-3.74063e-08
-1.51137e-07
-3.69713e-08
-1.52885e-07
-3.65657e-08
-1.54379e-07
-3.61699e-08
-1.55639e-07
-1.56689e-07
-3.58057e-08
-4.73218e-08
-8.88364e-08
4.77776e-08
-4.68275e-08
-9.50084e-08
-4.62915e-08
-1.00969e-07
-4.57407e-08
-1.06692e-07
-4.51631e-08
-1.12155e-07
-4.45832e-08
-1.17339e-07
-4.39879e-08
-1.22226e-07
-4.34002e-08
-1.268e-07
-4.28061e-08
-1.31051e-07
-4.22276e-08
-1.34971e-07
-4.16498e-08
-1.38556e-07
-4.10937e-08
-1.41808e-07
-4.05433e-08
-1.44731e-07
-4.00186e-08
-1.47334e-07
-3.9503e-08
-1.49629e-07
-3.90158e-08
-1.51632e-07
-3.85392e-08
-1.5336e-07
-3.80933e-08
-1.54833e-07
-3.7657e-08
-1.56073e-07
-1.571e-07
-3.72542e-08
-4.9511e-08
-8.93235e-08
4.99934e-08
-4.89862e-08
-9.55389e-08
-4.84173e-08
-1.01534e-07
-4.7832e-08
-1.07285e-07
-4.72172e-08
-1.12769e-07
-4.65993e-08
-1.17967e-07
-4.59636e-08
-1.22862e-07
-4.53355e-08
-1.27439e-07
-4.46989e-08
-1.31688e-07
-4.40783e-08
-1.35602e-07
-4.34567e-08
-1.39178e-07
-4.28576e-08
-1.42417e-07
-4.22626e-08
-1.45325e-07
-4.16949e-08
-1.47912e-07
-4.11348e-08
-1.50189e-07
-4.0605e-08
-1.52172e-07
-4.00846e-08
-1.5388e-07
-3.95971e-08
-1.55332e-07
-3.9118e-08
-1.56549e-07
-1.57555e-07
-3.86751e-08
-5.16973e-08
-8.9832e-08
5.22078e-08
-5.11441e-08
-9.60965e-08
-5.05414e-08
-1.02131e-07
-4.99207e-08
-1.07913e-07
-4.92673e-08
-1.1342e-07
-4.86099e-08
-1.18634e-07
-4.79324e-08
-1.23538e-07
-4.72621e-08
-1.28119e-07
-4.65815e-08
-1.32368e-07
-4.5917e-08
-1.36277e-07
-4.525e-08
-1.39844e-07
-4.46059e-08
-1.43071e-07
-4.39651e-08
-1.45965e-07
-4.3352e-08
-1.48535e-07
-4.2746e-08
-1.50793e-07
-4.21713e-08
-1.52756e-07
-4.16056e-08
-1.54443e-07
-4.10743e-08
-1.55873e-07
-4.05511e-08
-1.57068e-07
-1.58051e-07
-4.00661e-08
-5.38913e-08
-9.03738e-08
5.44316e-08
-5.33048e-08
-9.66888e-08
-5.26659e-08
-1.02765e-07
-5.20076e-08
-1.08579e-07
-5.13137e-08
-1.14111e-07
-5.06151e-08
-1.19342e-07
-4.98938e-08
-1.24258e-07
-4.91795e-08
-1.28845e-07
-4.8453e-08
-1.33094e-07
-4.77428e-08
-1.36998e-07
-4.70283e-08
-1.40558e-07
-4.63375e-08
-1.43774e-07
-4.56482e-08
-1.46653e-07
-4.49882e-08
-1.49206e-07
-4.43337e-08
-1.51446e-07
-4.37124e-08
-1.5339e-07
-4.30989e-08
-1.55055e-07
-4.2522e-08
-1.56463e-07
-4.19521e-08
-1.57635e-07
-1.58594e-07
-4.1423e-08
-5.60907e-08
-9.09469e-08
5.6663e-08
-5.54692e-08
-9.73161e-08
-5.47918e-08
-1.03436e-07
-5.40938e-08
-1.09285e-07
-5.33572e-08
-1.14844e-07
-5.26152e-08
-1.20095e-07
-5.18481e-08
-1.25023e-07
-5.10877e-08
-1.29617e-07
-5.03129e-08
-1.33867e-07
-4.95548e-08
-1.37768e-07
-4.87906e-08
-1.4132e-07
-4.80507e-08
-1.44525e-07
-4.73111e-08
-1.47391e-07
-4.66014e-08
-1.49927e-07
-4.58966e-08
-1.52149e-07
-4.52258e-08
-1.54072e-07
-4.45626e-08
-1.55715e-07
-4.39374e-08
-1.571e-07
-4.3319e-08
-1.58248e-07
-1.59182e-07
-4.27435e-08
-5.82899e-08
-9.15527e-08
5.88937e-08
-5.76328e-08
-9.79787e-08
-5.69164e-08
-1.04146e-07
-5.61776e-08
-1.10033e-07
-5.5397e-08
-1.15621e-07
-5.46098e-08
-1.20893e-07
-5.37948e-08
-1.25836e-07
-5.29861e-08
-1.30438e-07
-5.21608e-08
-1.34691e-07
-5.13522e-08
-1.3859e-07
-5.05358e-08
-1.42135e-07
-4.97443e-08
-1.4533e-07
-4.89515e-08
-1.48182e-07
-4.81899e-08
-1.50702e-07
-4.74317e-08
-1.52905e-07
-4.67094e-08
-1.54808e-07
-4.59935e-08
-1.56429e-07
-4.53177e-08
-1.57791e-07
-4.46477e-08
-1.58914e-07
-1.59823e-07
-4.40234e-08
-6.04925e-08
-9.21862e-08
6.11301e-08
-5.98005e-08
-9.86753e-08
-5.90433e-08
-1.04894e-07
-5.82616e-08
-1.10823e-07
-5.74345e-08
-1.16443e-07
-5.65997e-08
-1.21739e-07
-5.57343e-08
-1.26699e-07
-5.48745e-08
-1.3131e-07
-5.3996e-08
-1.35567e-07
-5.31341e-08
-1.39465e-07
-5.22628e-08
-1.43004e-07
-5.14168e-08
-1.46189e-07
-5.05683e-08
-1.49028e-07
-4.97516e-08
-1.51532e-07
-4.89376e-08
-1.53717e-07
-4.81605e-08
-1.55598e-07
-4.73895e-08
-1.57197e-07
-4.66602e-08
-1.58535e-07
-4.59364e-08
-1.59633e-07
-1.60515e-07
-4.52604e-08
-6.27067e-08
-9.28595e-08
6.33802e-08
-6.19742e-08
-9.94139e-08
-6.11732e-08
-1.05687e-07
-6.03458e-08
-1.11659e-07
-5.94697e-08
-1.17314e-07
-5.85846e-08
-1.22637e-07
-5.76659e-08
-1.27614e-07
-5.67524e-08
-1.32238e-07
-5.58177e-08
-1.365e-07
-5.48996e-08
-1.40397e-07
-5.39703e-08
-1.43932e-07
-5.30667e-08
-1.47108e-07
-5.21591e-08
-1.49934e-07
-5.12845e-08
-1.52422e-07
-5.04113e-08
-1.54588e-07
-4.95768e-08
-1.56448e-07
-4.87472e-08
-1.58025e-07
-4.79616e-08
-1.59337e-07
-4.71805e-08
-1.60409e-07
-1.61264e-07
-4.645e-08
-6.49299e-08
-9.35702e-08
6.56418e-08
-6.41553e-08
-1.00195e-07
-6.33078e-08
-1.06525e-07
-6.24317e-08
-1.12545e-07
-6.15035e-08
-1.18237e-07
-6.05648e-08
-1.23588e-07
-5.95899e-08
-1.28586e-07
-5.86193e-08
-1.33222e-07
-5.76254e-08
-1.37491e-07
-5.66478e-08
-1.41389e-07
-5.56571e-08
-1.4492e-07
-5.46924e-08
-1.48087e-07
-5.37227e-08
-1.509e-07
-5.27865e-08
-1.53373e-07
-5.18511e-08
-1.5552e-07
-5.09552e-08
-1.57359e-07
-5.00642e-08
-1.58912e-07
-4.92186e-08
-1.60199e-07
-4.83776e-08
-1.61244e-07
-1.6207e-07
-4.75892e-08
-6.71578e-08
-9.43216e-08
6.79079e-08
-6.63392e-08
-1.0102e-07
-6.54437e-08
-1.07412e-07
-6.45166e-08
-1.13482e-07
-6.35339e-08
-1.19214e-07
-6.2539e-08
-1.24596e-07
-6.15049e-08
-1.29616e-07
-6.0474e-08
-1.34267e-07
-5.94175e-08
-1.38544e-07
-5.83769e-08
-1.42445e-07
-5.73214e-08
-1.45972e-07
-5.62922e-08
-1.49131e-07
-5.52563e-08
-1.51933e-07
-5.42552e-08
-1.5439e-07
-5.32536e-08
-1.56518e-07
-5.22931e-08
-1.58336e-07
-5.13367e-08
-1.59864e-07
-5.04277e-08
-1.61126e-07
-4.95227e-08
-1.62142e-07
-1.62939e-07
-4.86731e-08
-6.93935e-08
-9.51117e-08
7.01858e-08
-6.85296e-08
-1.0189e-07
-6.75832e-08
-1.08348e-07
-6.66023e-08
-1.14473e-07
-6.55619e-08
-1.20248e-07
-6.45073e-08
-1.25663e-07
-6.34105e-08
-1.30708e-07
-6.23157e-08
-1.35376e-07
-6.11929e-08
-1.39663e-07
-6.00854e-08
-1.43567e-07
-5.89613e-08
-1.47092e-07
-5.78636e-08
-1.50244e-07
-5.67581e-08
-1.53034e-07
-5.56876e-08
-1.55475e-07
-5.46163e-08
-1.57584e-07
-5.35869e-08
-1.5938e-07
-5.25615e-08
-1.60884e-07
-5.1585e-08
-1.62118e-07
-5.06128e-08
-1.63106e-07
-1.63872e-07
-4.96981e-08
-7.16386e-08
-9.59461e-08
7.24742e-08
-7.07258e-08
-1.02809e-07
-6.97258e-08
-1.09337e-07
-6.86882e-08
-1.1552e-07
-6.75869e-08
-1.21342e-07
-6.64692e-08
-1.26793e-07
-6.5306e-08
-1.31866e-07
-6.41435e-08
-1.36553e-07
-6.29503e-08
-1.40851e-07
-6.1772e-08
-1.4476e-07
-6.05751e-08
-1.48284e-07
-5.94046e-08
-1.51429e-07
-5.82248e-08
-1.54208e-07
-5.70811e-08
-1.56634e-07
-5.59353e-08
-1.58724e-07
-5.48332e-08
-1.60498e-07
-5.37342e-08
-1.61977e-07
-5.26863e-08
-1.63184e-07
-5.16424e-08
-1.64142e-07
-1.64875e-07
-5.06588e-08
-7.3896e-08
-9.68247e-08
7.47791e-08
-7.2932e-08
-1.03778e-07
-7.18746e-08
-1.10382e-07
-7.07764e-08
-1.16626e-07
-6.96102e-08
-1.22499e-07
-6.84252e-08
-1.2799e-07
-6.71915e-08
-1.33093e-07
-6.59568e-08
-1.37801e-07
-6.4689e-08
-1.42113e-07
-6.34352e-08
-1.46028e-07
-6.21609e-08
-1.49552e-07
-6.0913e-08
-1.52692e-07
-5.96547e-08
-1.5546e-07
-5.84326e-08
-1.5787e-07
-5.72082e-08
-1.59942e-07
-5.60281e-08
-1.61693e-07
-5.48515e-08
-1.63146e-07
-5.37274e-08
-1.64324e-07
-5.26079e-08
-1.65251e-07
-1.6595e-07
-5.15507e-08
-7.61661e-08
-9.77537e-08
7.70982e-08
-7.51468e-08
-1.04802e-07
-7.40289e-08
-1.11486e-07
-7.28664e-08
-1.17798e-07
-7.16314e-08
-1.23725e-07
-7.03751e-08
-1.29259e-07
-6.90663e-08
-1.34394e-07
-6.7755e-08
-1.39126e-07
-6.64077e-08
-1.43453e-07
-6.50736e-08
-1.47376e-07
-6.3717e-08
-1.50901e-07
-6.23866e-08
-1.54037e-07
-6.10444e-08
-1.56795e-07
-5.97393e-08
-1.59191e-07
-5.84307e-08
-1.61243e-07
-5.71681e-08
-1.62971e-07
-5.59085e-08
-1.64398e-07
-5.47035e-08
-1.65547e-07
-5.3503e-08
-1.6644e-07
-1.67105e-07
-5.23678e-08
-7.84513e-08
-9.87331e-08
7.94368e-08
-7.7374e-08
-1.05884e-07
-7.61914e-08
-1.12654e-07
-7.49604e-08
-1.19037e-07
-7.36519e-08
-1.25022e-07
-7.23194e-08
-1.30603e-07
-7.09307e-08
-1.35775e-07
-6.95376e-08
-1.40533e-07
-6.81057e-08
-1.44877e-07
-6.6686e-08
-1.4881e-07
-6.52417e-08
-1.52338e-07
-6.38234e-08
-1.55469e-07
-6.23921e-08
-1.58218e-07
-6.0998e-08
-1.60599e-07
-5.96002e-08
-1.62632e-07
-5.82492e-08
-1.64337e-07
-5.69015e-08
-1.65736e-07
-5.56099e-08
-1.66854e-07
-5.43238e-08
-1.67714e-07
-1.68341e-07
-5.31052e-08
-8.07525e-08
-9.97695e-08
8.1793e-08
-7.96126e-08
-1.07028e-07
-7.83616e-08
-1.1389e-07
-7.70577e-08
-1.20349e-07
-7.56714e-08
-1.26398e-07
-7.42578e-08
-1.32029e-07
-7.2784e-08
-1.3724e-07
-7.13038e-08
-1.42027e-07
-6.97817e-08
-1.46391e-07
-6.82707e-08
-1.50336e-07
-6.67329e-08
-1.53868e-07
-6.52208e-08
-1.56996e-07
-6.36942e-08
-1.59736e-07
-6.22055e-08
-1.62103e-07
-6.07121e-08
-1.64116e-07
-5.92671e-08
-1.65797e-07
-5.78251e-08
-1.67169e-07
-5.64415e-08
-1.68255e-07
-5.50634e-08
-1.6908e-07
-1.69669e-07
-5.37561e-08
-8.30721e-08
-1.00863e-07
8.41728e-08
-8.18666e-08
-1.08238e-07
-8.05424e-08
-1.15198e-07
-7.91606e-08
-1.21739e-07
-7.76911e-08
-1.27855e-07
-7.61909e-08
-1.33541e-07
-7.46264e-08
-1.38795e-07
-7.30531e-08
-1.43614e-07
-7.14349e-08
-1.48001e-07
-6.98263e-08
-1.51959e-07
-6.81887e-08
-1.55496e-07
-6.65764e-08
-1.58623e-07
-6.49483e-08
-1.61355e-07
-6.33582e-08
-1.63708e-07
-6.17632e-08
-1.65701e-07
-6.02173e-08
-1.67358e-07
-5.86749e-08
-1.68701e-07
-5.71926e-08
-1.69754e-07
-5.5717e-08
-1.70541e-07
-1.71089e-07
-5.43146e-08
-8.54114e-08
-1.02022e-07
8.65744e-08
-8.41349e-08
-1.0952e-07
-8.27331e-08
-1.16583e-07
-8.12686e-08
-1.23213e-07
-7.97106e-08
-1.29401e-07
-7.81182e-08
-1.35146e-07
-7.6457e-08
-1.40446e-07
-7.47845e-08
-1.45301e-07
-7.30636e-08
-1.49713e-07
-7.13509e-08
-1.53687e-07
-6.96068e-08
-1.57231e-07
-6.78873e-08
-1.60358e-07
-6.61505e-08
-1.63082e-07
-6.44524e-08
-1.65421e-07
-6.27482e-08
-1.67396e-07
-6.10949e-08
-1.69028e-07
-5.94448e-08
-1.70341e-07
-5.78572e-08
-1.71359e-07
-5.62768e-08
-1.72108e-07
-1.72614e-07
-5.4773e-08
-8.77723e-08
-1.03245e-07
8.90032e-08
-8.64214e-08
-1.10875e-07
-8.49368e-08
-1.1805e-07
-8.33839e-08
-1.24774e-07
-8.17315e-08
-1.31041e-07
-8.00405e-08
-1.3685e-07
-7.82761e-08
-1.422e-07
-7.64974e-08
-1.47094e-07
-7.46669e-08
-1.51533e-07
-7.28428e-08
-1.55525e-07
-7.09848e-08
-1.59079e-07
-6.91507e-08
-1.62207e-07
-6.72978e-08
-1.64925e-07
-6.54836e-08
-1.6725e-07
-6.36632e-08
-1.69205e-07
-6.18943e-08
-1.70811e-07
-6.01295e-08
-1.72094e-07
-5.84289e-08
-1.73076e-07
-5.67369e-08
-1.73785e-07
-1.74245e-07
-5.51244e-08
-9.01571e-08
-1.04542e-07
9.14584e-08
-8.87259e-08
-1.12311e-07
-8.71534e-08
-1.19605e-07
-8.55064e-08
-1.2643e-07
-8.37534e-08
-1.32781e-07
-8.19574e-08
-1.38659e-07
-8.00828e-08
-1.44065e-07
-7.81908e-08
-1.49001e-07
-7.62431e-08
-1.53471e-07
-7.42998e-08
-1.57484e-07
-7.23199e-08
-1.61049e-07
-7.03631e-08
-1.64179e-07
-6.83857e-08
-1.66892e-07
-6.64475e-08
-1.69205e-07
-6.45022e-08
-1.7114e-07
-6.261e-08
-1.7272e-07
-6.07217e-08
-1.7397e-07
-5.89004e-08
-1.74916e-07
-5.70884e-08
-1.75582e-07
-1.75995e-07
-5.53597e-08
-9.25684e-08
-1.05912e-07
9.39466e-08
-9.10528e-08
-1.13831e-07
-8.93863e-08
-1.21253e-07
-8.76388e-08
-1.28186e-07
-8.57783e-08
-1.34628e-07
-8.38698e-08
-1.4058e-07
-8.18774e-08
-1.46046e-07
-7.98641e-08
-1.51029e-07
-7.7791e-08
-1.55534e-07
-7.572e-08
-1.5957e-07
-7.36096e-08
-1.63149e-07
-7.15212e-08
-1.66283e-07
-6.94108e-08
-1.68991e-07
-6.73392e-08
-1.71291e-07
-6.52604e-08
-1.73207e-07
-6.32354e-08
-1.7476e-07
-6.12153e-08
-1.75978e-07
-5.92642e-08
-1.76884e-07
-5.73243e-08
-1.77505e-07
-1.77868e-07
-5.54706e-08
-9.50093e-08
-1.07365e-07
9.64674e-08
-9.34023e-08
-1.15442e-07
-9.16359e-08
-1.23001e-07
-8.97812e-08
-1.3005e-07
-8.78061e-08
-1.36589e-07
-8.57776e-08
-1.42622e-07
-8.36593e-08
-1.48153e-07
-8.15162e-08
-1.53187e-07
-7.93089e-08
-1.57731e-07
-7.71011e-08
-1.61794e-07
-7.48509e-08
-1.65388e-07
-7.26214e-08
-1.68529e-07
-7.03678e-08
-1.71233e-07
-6.81536e-08
-1.73522e-07
-6.59309e-08
-1.75417e-07
-6.37639e-08
-1.76944e-07
-6.16019e-08
-1.78127e-07
-5.95117e-08
-1.78993e-07
-5.74338e-08
-1.79567e-07
-1.79877e-07
-5.54464e-08
-9.74816e-08
-1.08901e-07
9.90268e-08
-9.57789e-08
-1.1715e-07
-9.39056e-08
-1.24855e-07
-9.19365e-08
-1.32028e-07
-8.98388e-08
-1.38672e-07
-8.76818e-08
-1.44792e-07
-8.54288e-08
-1.50394e-07
-8.31466e-08
-1.55484e-07
-8.07955e-08
-1.60071e-07
-7.8441e-08
-1.64164e-07
-7.60408e-08
-1.67777e-07
-7.36597e-08
-1.70925e-07
-7.12529e-08
-1.73628e-07
-6.88848e-08
-1.75905e-07
-6.65082e-08
-1.77781e-07
-6.4188e-08
-1.7928e-07
-6.18739e-08
-1.80428e-07
-5.96338e-08
-1.8125e-07
-5.74084e-08
-1.81775e-07
-1.82028e-07
-5.52772e-08
-9.99896e-08
-1.10532e-07
1.01625e-07
-9.81832e-08
-1.18961e-07
-9.61964e-08
-1.26822e-07
-9.41051e-08
-1.34129e-07
-9.18767e-08
-1.40886e-07
-8.95826e-08
-1.471e-07
-8.71855e-08
-1.52779e-07
-8.47543e-08
-1.57931e-07
-8.2249e-08
-1.62565e-07
-7.97372e-08
-1.66692e-07
-7.71759e-08
-1.70327e-07
-7.4632e-08
-1.73485e-07
-7.206e-08
-1.76188e-07
-6.95269e-08
-1.78455e-07
-6.69842e-08
-1.80311e-07
-6.44995e-08
-1.81781e-07
-6.20214e-08
-1.82892e-07
-5.96204e-08
-1.8367e-07
-5.72356e-08
-1.84142e-07
-1.84335e-07
-5.49497e-08
-1.02536e-07
-1.12257e-07
1.0427e-07
-1.00621e-07
-1.2088e-07
-9.85123e-08
-1.28909e-07
-9.62906e-08
-1.3636e-07
-9.39224e-08
-1.43238e-07
-9.14813e-08
-1.49555e-07
-8.89298e-08
-1.55318e-07
-8.63389e-08
-1.60537e-07
-8.36682e-08
-1.65223e-07
-8.09872e-08
-1.69389e-07
-7.82528e-08
-1.73049e-07
-7.55338e-08
-1.7622e-07
-7.27844e-08
-1.78924e-07
-7.00731e-08
-1.81181e-07
-6.73521e-08
-1.83018e-07
-6.46897e-08
-1.84459e-07
-6.20352e-08
-1.85531e-07
-5.94604e-08
-1.86262e-07
-5.69048e-08
-1.86678e-07
-1.86808e-07
-5.44521e-08
-1.05125e-07
-1.14088e-07
1.06962e-07
-1.03092e-07
-1.22918e-07
-1.00855e-07
-1.31126e-07
-9.84937e-08
-1.3873e-07
-9.59764e-08
-1.4574e-07
-9.33783e-08
-1.52167e-07
-9.06616e-08
-1.58022e-07
-8.78995e-08
-1.63315e-07
-8.50513e-08
-1.68059e-07
-8.21885e-08
-1.72268e-07
-7.92679e-08
-1.75957e-07
-7.63602e-08
-1.79144e-07
-7.34193e-08
-1.81851e-07
-7.05164e-08
-1.84101e-07
-6.76022e-08
-1.85918e-07
-6.47486e-08
-1.8733e-07
-6.19034e-08
-1.88362e-07
-5.91413e-08
-1.89043e-07
-5.64006e-08
-1.894e-07
-1.89462e-07
-5.37682e-08
-1.07758e-07
-1.16026e-07
1.09707e-07
-1.05603e-07
-1.25078e-07
-1.03228e-07
-1.33478e-07
-1.00719e-07
-1.41248e-07
-9.80418e-08
-1.484e-07
-9.52755e-08
-1.54947e-07
-9.23817e-08
-1.60901e-07
-8.94358e-08
-1.66277e-07
-8.63968e-08
-1.71085e-07
-8.33384e-08
-1.75342e-07
-8.02171e-08
-1.79064e-07
-7.71059e-08
-1.82271e-07
-7.39588e-08
-1.84984e-07
-7.08482e-08
-1.87227e-07
-6.77263e-08
-1.89025e-07
-6.46654e-08
-1.90406e-07
-6.16145e-08
-1.91396e-07
-5.86496e-08
-1.92025e-07
-5.57097e-08
-1.92319e-07
-1.92308e-07
-5.2883e-08
-1.10444e-07
-1.18085e-07
1.12508e-07
-1.08155e-07
-1.27371e-07
-1.05634e-07
-1.35976e-07
-1.02967e-07
-1.43925e-07
-1.0012e-07
-1.5123e-07
-9.71739e-08
-1.57907e-07
-9.40905e-08
-1.63971e-07
-9.09472e-08
-1.69436e-07
-8.77029e-08
-1.74316e-07
-8.44338e-08
-1.78628e-07
-8.10961e-08
-1.82388e-07
-7.77651e-08
-1.85618e-07
-7.43946e-08
-1.8834e-07
-7.106e-08
-1.90578e-07
-6.77123e-08
-1.92357e-07
-6.44275e-08
-1.93707e-07
-6.11535e-08
-1.94654e-07
-5.79694e-08
-1.95227e-07
-5.48131e-08
-1.95455e-07
-1.95367e-07
-5.17764e-08
-1.13183e-07
-1.20263e-07
1.15373e-07
-1.10755e-07
-1.29802e-07
-1.08079e-07
-1.38628e-07
-1.05243e-07
-1.46769e-07
-1.02215e-07
-1.5424e-07
-9.9076e-08
-1.61059e-07
-9.5789e-08
-1.67243e-07
-9.24334e-08
-1.72807e-07
-8.89682e-08
-1.77767e-07
-8.54715e-08
-1.8214e-07
-8.19e-08
-1.85945e-07
-7.8331e-08
-1.89203e-07
-7.47191e-08
-1.91936e-07
-7.1141e-08
-1.94171e-07
-6.75494e-08
-1.95933e-07
-6.4021e-08
-1.9725e-07
-6.05055e-08
-1.98152e-07
-5.70831e-08
-1.98666e-07
-5.36932e-08
-1.98823e-07
-1.9865e-07
-5.04287e-08
-1.15985e-07
-1.22576e-07
1.18306e-07
-1.13408e-07
-1.32383e-07
-1.10566e-07
-1.41446e-07
-1.07551e-07
-1.49794e-07
-1.04328e-07
-1.57444e-07
-1.00984e-07
-1.64418e-07
-9.7478e-08
-1.70733e-07
-9.3894e-08
-1.76407e-07
-9.01903e-08
-1.81456e-07
-8.64477e-08
-1.85899e-07
-8.2623e-08
-1.89755e-07
-7.87961e-08
-1.93046e-07
-7.49215e-08
-1.95795e-07
-7.10796e-08
-1.98029e-07
-6.72218e-08
-1.99774e-07
-6.34293e-08
-2.01059e-07
-5.96507e-08
-2.01913e-07
-5.59698e-08
-2.02365e-07
-5.23252e-08
-2.02445e-07
-2.02183e-07
-4.88138e-08
-1.18851e-07
-1.25023e-07
1.21311e-07
-1.16118e-07
-1.35119e-07
-1.13101e-07
-1.44436e-07
-1.09895e-07
-1.53008e-07
-1.06465e-07
-1.60854e-07
-1.02899e-07
-1.67997e-07
-9.91588e-08
-1.74457e-07
-9.53284e-08
-1.80252e-07
-9.1367e-08
-1.85402e-07
-8.73579e-08
-1.89923e-07
-8.32583e-08
-1.93838e-07
-7.91509e-08
-1.97168e-07
-7.4991e-08
-1.99938e-07
-7.08608e-08
-2.02173e-07
-6.67141e-08
-2.03902e-07
-6.26329e-08
-2.05154e-07
-5.85682e-08
-2.05958e-07
-5.46054e-08
-2.06344e-07
-5.06848e-08
-2.06342e-07
-2.05982e-07
-4.69046e-08
-1.21793e-07
-1.27621e-07
1.24399e-07
-1.18893e-07
-1.38022e-07
-1.15689e-07
-1.47612e-07
-1.1228e-07
-1.56426e-07
-1.08628e-07
-1.64485e-07
-1.04825e-07
-1.71814e-07
-1.00832e-07
-1.78434e-07
-9.67353e-08
-1.84365e-07
-9.24946e-08
-1.89627e-07
-8.8196e-08
-1.94238e-07
-8.37972e-08
-1.98221e-07
-7.93839e-08
-2.01597e-07
-7.49119e-08
-2.04392e-07
-7.04675e-08
-2.06633e-07
-6.60039e-08
-2.08348e-07
-6.16081e-08
-2.09566e-07
-5.72303e-08
-2.10317e-07
-5.29602e-08
-2.10632e-07
-4.87378e-08
-2.10541e-07
-2.10075e-07
-4.46656e-08
-1.24811e-07
-1.30367e-07
1.27572e-07
-1.21737e-07
-1.41098e-07
-1.18337e-07
-1.50983e-07
-1.14711e-07
-1.6006e-07
-1.10822e-07
-1.68351e-07
-1.06765e-07
-1.75884e-07
-1.02498e-07
-1.82682e-07
-9.8113e-08
-1.88765e-07
-9.35686e-08
-1.94153e-07
-8.89544e-08
-1.98867e-07
-8.42287e-08
-2.02928e-07
-7.94805e-08
-2.0636e-07
-7.46672e-08
-2.09187e-07
-6.98774e-08
-2.11437e-07
-6.50675e-08
-2.13138e-07
-6.03258e-08
-2.1432e-07
-5.56059e-08
-2.15015e-07
-5.09992e-08
-2.15253e-07
-4.64483e-08
-2.15065e-07
-2.14484e-07
-4.20574e-08
-1.2792e-07
-1.3328e-07
1.30843e-07
-1.2466e-07
-1.4436e-07
-1.21051e-07
-1.54563e-07
-1.17194e-07
-1.63925e-07
-1.13051e-07
-1.72471e-07
-1.08719e-07
-1.8023e-07
-1.04157e-07
-1.87226e-07
-9.94581e-08
-1.9348e-07
-9.45824e-08
-1.99012e-07
-8.96228e-08
-2.03843e-07
-8.45383e-08
-2.07995e-07
-7.94221e-08
-2.11491e-07
-7.42326e-08
-2.14358e-07
-6.90635e-08
-2.16621e-07
-6.38711e-08
-2.1831e-07
-5.87498e-08
-2.19457e-07
-5.36533e-08
-2.20091e-07
-4.8678e-08
-2.20246e-07
-4.37667e-08
-2.19952e-07
-2.19243e-07
-3.90285e-08
-1.31118e-07
-1.36356e-07
1.34212e-07
-1.27667e-07
-1.47813e-07
-1.23837e-07
-1.5836e-07
-1.19735e-07
-1.68034e-07
-1.15319e-07
-1.76862e-07
-1.10691e-07
-1.84872e-07
-1.05807e-07
-1.92089e-07
-1.00766e-07
-1.98535e-07
-9.55269e-08
-2.04231e-07
-9.01875e-08
-2.09197e-07
-8.47076e-08
-2.13455e-07
-7.9185e-08
-2.17028e-07
-7.35803e-08
-2.19942e-07
-6.79906e-08
-2.22223e-07
-6.23766e-08
-2.23903e-07
-5.6835e-08
-2.25011e-07
-5.1324e-08
-2.25579e-07
-4.59426e-08
-2.25641e-07
-4.06374e-08
-2.25229e-07
-2.24378e-07
-3.55194e-08
-1.34426e-07
-1.39614e-07
1.37695e-07
-1.30769e-07
-1.51472e-07
-1.26705e-07
-1.62391e-07
-1.2234e-07
-1.72408e-07
-1.1763e-07
-1.81547e-07
-1.1268e-07
-1.89837e-07
-1.07445e-07
-1.97303e-07
-1.02028e-07
-2.03968e-07
-9.63894e-08
-2.09851e-07
-9.06303e-08
-2.14972e-07
-8.47124e-08
-2.19353e-07
-7.87388e-08
-2.23017e-07
-7.26719e-08
-2.25988e-07
-6.66158e-08
-2.28294e-07
-6.0532e-08
-2.29965e-07
-5.45251e-08
-2.31032e-07
-4.85542e-08
-2.31528e-07
-4.27253e-08
-2.31486e-07
-3.69858e-08
-2.30941e-07
-2.29931e-07
-3.14525e-08
-1.37841e-07
-1.43048e-07
1.41296e-07
-1.33974e-07
-1.5534e-07
-1.29662e-07
-1.66667e-07
-1.25015e-07
-1.77062e-07
-1.19987e-07
-1.86547e-07
-1.14685e-07
-1.95152e-07
-1.09065e-07
-2.02901e-07
-1.03234e-07
-2.09814e-07
-9.7152e-08
-2.15912e-07
-9.09267e-08
-2.21212e-07
-8.4521e-08