/*--------------------------------*- C++ -*----------------------------------*\
  =========                 |
  \\      /  F ield         | OpenFOAM: The Open Source CFD Toolbox
   \\    /   O peration     | Website:  https://openfoam.org
    \\  /    A nd           | Version:  6
     \\/     M anipulation  |
\*---------------------------------------------------------------------------*/
FoamFile
{
    version     2.0;
    format      ascii;
    class       volVectorField;
    location    "26";
    object      U;
}
// * * * * * * * * * * * * * * * * * * * * * * * * * * * * * * * * * * * * * //

dimensions      [0 1 -1 0 0 0 0];

internalField   nonuniform List<vector> 
10000
(
(0.000386433 -3.08569 0)
(-0.000803864 -4.13562 0)
(-0.00182021 -4.66053 0)
(-0.00228221 -5.02309 0)
(-0.00215205 -5.2732 0)
(-0.0018796 -5.43912 0)
(-0.00162337 -5.54399 0)
(-0.00140055 -5.60694 0)
(-0.00118705 -5.64137 0)
(-0.00094662 -5.6553 0)
(-0.000657553 -5.65241 0)
(-0.000318044 -5.63283 0)
(6.70584e-05 -5.59321 0)
(0.000495065 -5.52613 0)
(0.000933446 -5.41908 0)
(0.00131477 -5.25373 0)
(0.00144554 -5.00662 0)
(0.00101821 -4.64889 0)
(0.000300417 -4.12927 0)
(-0.000370143 -3.08308 0)
(0.000337006 -3.08661 0)
(9.84808e-05 -4.13537 0)
(-0.000395555 -4.66026 0)
(-0.000881271 -5.02303 0)
(-0.00108715 -5.27343 0)
(-0.00113791 -5.43957 0)
(-0.00112639 -5.54454 0)
(-0.00109065 -5.60755 0)
(-0.0010395 -5.64205 0)
(-0.000964558 -5.65606 0)
(-0.000854677 -5.65328 0)
(-0.000703501 -5.63384 0)
(-0.000517604 -5.59436 0)
(-0.000332585 -5.52736 0)
(-0.000159899 -5.42027 0)
(-7.98502e-05 -5.25471 0)
(-0.000102293 -5.00725 0)
(-0.000191331 -4.64921 0)
(-0.000272374 -4.12946 0)
(0.000157301 -3.08517 0)
(-0.000233493 -3.08709 0)
(-0.00011672 -4.13512 0)
(-0.000185205 -4.66027 0)
(-0.000456903 -5.02302 0)
(-0.00067233 -5.2734 0)
(-0.000755038 -5.43955 0)
(-0.000839243 -5.54449 0)
(-0.000897401 -5.60745 0)
(-0.000949973 -5.642 0)
(-0.000965114 -5.65607 0)
(-0.000944708 -5.65335 0)
(-0.000887059 -5.63394 0)
(-0.000787665 -5.59448 0)
(-0.000672521 -5.52751 0)
(-0.000557311 -5.42039 0)
(-0.000462286 -5.25474 0)
(-0.000360008 -5.00724 0)
(-0.000282565 -4.64916 0)
(-8.28801e-05 -4.12908 0)
(0.000360155 -3.08547 0)
(-0.000387832 -3.08678 0)
(-5.10797e-05 -4.13451 0)
(7.72627e-05 -4.65962 0)
(4.05848e-05 -5.02256 0)
(-0.000214485 -5.27307 0)
(-0.000375135 -5.43922 0)
(-0.000557176 -5.54412 0)
(-0.000707301 -5.6072 0)
(-0.000850155 -5.64185 0)
(-0.000945441 -5.656 0)
(-0.00101399 -5.65335 0)
(-0.00104161 -5.63402 0)
(-0.00103847 -5.59468 0)
(-0.000994406 -5.52779 0)
(-0.000949335 -5.42055 0)
(-0.000884904 -5.25474 0)
(-0.000752789 -5.00746 0)
(-0.000575543 -4.64951 0)
(-0.000215859 -4.12924 0)
(0.000212215 -3.08569 0)
(-0.000183426 -3.0861 0)
(1.30476e-06 -4.13397 0)
(6.30842e-05 -4.65889 0)
(0.000150666 -5.02204 0)
(1.46355e-05 -5.2725 0)
(-0.000199136 -5.43852 0)
(-0.000406153 -5.54348 0)
(-0.000618163 -5.60667 0)
(-0.000796489 -5.64141 0)
(-0.000942245 -5.65565 0)
(-0.0010589 -5.65309 0)
(-0.00113862 -5.63383 0)
(-0.00119555 -5.59455 0)
(-0.00119578 -5.52778 0)
(-0.00117598 -5.42066 0)
(-0.00107445 -5.25473 0)
(-0.000902959 -5.00738 0)
(-0.000535496 -4.64952 0)
(-0.000303484 -4.1293 0)
(3.66638e-05 -3.08569 0)
(0.000242257 -3.08609 0)
(0.000273579 -4.13456 0)
(0.000148069 -4.65891 0)
(0.000203735 -5.02168 0)
(2.37615e-05 -5.27217 0)
(-0.000240686 -5.4381 0)
(-0.00045028 -5.54303 0)
(-0.000669431 -5.60628 0)
(-0.000836063 -5.64104 0)
(-0.000988784 -5.65531 0)
(-0.00112282 -5.65281 0)
(-0.00121665 -5.63366 0)
(-0.00128214 -5.59448 0)
(-0.00127589 -5.52772 0)
(-0.00124756 -5.42073 0)
(-0.00105375 -5.25507 0)
(-0.000903997 -5.00766 0)
(-0.00051463 -4.64963 0)
(-0.000437735 -4.12992 0)
(-0.000331589 -3.08566 0)
(0.000403756 -3.08693 0)
(0.000367358 -4.1354 0)
(0.000293267 -4.65925 0)
(0.000275317 -5.0219 0)
(5.08333e-05 -5.27215 0)
(-0.00019537 -5.43776 0)
(-0.000446194 -5.54272 0)
(-0.000674515 -5.60598 0)
(-0.000837663 -5.64075 0)
(-0.000991716 -5.65507 0)
(-0.00112212 -5.6526 0)
(-0.00122363 -5.63351 0)
(-0.0012761 -5.59438 0)
(-0.00127571 -5.52775 0)
(-0.00121385 -5.4209 0)
(-0.00103537 -5.25537 0)
(-0.000815912 -5.00817 0)
(-0.000530357 -4.65008 0)
(-0.00041982 -4.13067 0)
(-0.000478031 -3.08598 0)
(0.000248738 -3.08787 0)
(0.000385879 -4.1357 0)
(0.000490816 -4.65944 0)
(0.000406955 -5.02181 0)
(0.000254829 -5.27172 0)
(3.71454e-05 -5.4373 0)
(-0.000274364 -5.54239 0)
(-0.000531603 -5.60562 0)
(-0.00074574 -5.6404 0)
(-0.000932819 -5.65479 0)
(-0.00108788 -5.6524 0)
(-0.00120471 -5.63336 0)
(-0.00125844 -5.59439 0)
(-0.00128145 -5.52794 0)
(-0.00118422 -5.42122 0)
(-0.00104741 -5.25591 0)
(-0.000790403 -5.00881 0)
(-0.000603932 -4.65101 0)
(-0.00045152 -4.13169 0)
(-0.000416938 -3.08697 0)
(0.000100931 -3.08836 0)
(0.000408978 -4.13554 0)
(0.000609954 -4.65931 0)
(0.000578422 -5.02143 0)
(0.000467158 -5.27106 0)
(0.000225085 -5.43673 0)
(-9.63027e-05 -5.54185 0)
(-0.000389395 -5.60508 0)
(-0.000667139 -5.63992 0)
(-0.000907744 -5.65441 0)
(-0.00110573 -5.65211 0)
(-0.00125994 -5.63318 0)
(-0.00136622 -5.59431 0)
(-0.00141083 -5.52802 0)
(-0.00135992 -5.42158 0)
(-0.0012354 -5.25667 0)
(-0.000993279 -5.00974 0)
(-0.000771382 -4.65189 0)
(-0.000396496 -4.13235 0)
(-0.000163917 -3.08814 0)
(0.000202179 -3.0887 0)
(0.000423518 -4.13589 0)
(0.000576737 -4.65939 0)
(0.0005725 -5.021 0)
(0.000490124 -5.27047 0)
(0.000257065 -5.43615 0)
(-2.50356e-05 -5.54125 0)
(-0.000343306 -5.6045 0)
(-0.00065131 -5.63937 0)
(-0.000927323 -5.65391 0)
(-0.00116678 -5.65169 0)
(-0.00136363 -5.63284 0)
(-0.00151986 -5.59407 0)
(-0.0016137 -5.52789 0)
(-0.00159847 -5.42172 0)
(-0.00148802 -5.25705 0)
(-0.00120592 -5.01019 0)
(-0.000799966 -4.65224 0)
(-0.000233489 -4.13229 0)
(0.000210461 -3.08861 0)
(0.000330017 -3.08908 0)
(0.000377178 -4.13639 0)
(0.000575503 -4.6597 0)
(0.000583241 -5.02096 0)
(0.000507641 -5.27016 0)
(0.000307173 -5.43567 0)
(3.3954e-05 -5.54065 0)
(-0.000307953 -5.60384 0)
(-0.000647537 -5.63874 0)
(-0.000954946 -5.65335 0)
(-0.0012201 -5.65121 0)
(-0.00144692 -5.63242 0)
(-0.00162022 -5.59371 0)
(-0.00172303 -5.52769 0)
(-0.00171515 -5.42179 0)
(-0.00156728 -5.25738 0)
(-0.00124967 -5.01062 0)
(-0.000750574 -4.65265 0)
(-0.000265894 -4.13253 0)
(0.000107721 -3.08863 0)
(0.000313573 -3.08956 0)
(0.000336225 -4.13705 0)
(0.000564503 -4.66012 0)
(0.000576674 -5.02101 0)
(0.000556164 -5.26999 0)
(0.000362045 -5.43522 0)
(7.87392e-05 -5.54001 0)
(-0.000276773 -5.6032 0)
(-0.000653398 -5.63812 0)
(-0.000985032 -5.65276 0)
(-0.00127928 -5.65069 0)
(-0.00151989 -5.63204 0)
(-0.00169721 -5.59352 0)
(-0.00178993 -5.5277 0)
(-0.00176712 -5.42196 0)
(-0.00157948 -5.25784 0)
(-0.00125647 -5.01148 0)
(-0.000765869 -4.65367 0)
(-0.000344396 -4.13351 0)
(-0.000283272 -3.0888 0)
(0.000128253 -3.08996 0)
(0.000244453 -4.13746 0)
(0.000524266 -4.66056 0)
(0.000665933 -5.0212 0)
(0.000651275 -5.26982 0)
(0.000508419 -5.43476 0)
(0.000181798 -5.53928 0)
(-0.000208473 -5.60241 0)
(-0.000623062 -5.63735 0)
(-0.000998889 -5.65211 0)
(-0.0013211 -5.65016 0)
(-0.00159315 -5.6316 0)
(-0.00178908 -5.59322 0)
(-0.00188902 -5.52764 0)
(-0.0018524 -5.42222 0)
(-0.00163902 -5.25844 0)
(-0.00127955 -5.01237 0)
(-0.000789915 -4.6547 0)
(-0.000316009 -4.13455 0)
(-0.000341544 -3.08921 0)
(-4.28763e-05 -3.0902 0)
(0.000258003 -4.13771 0)
(0.000555605 -4.66051 0)
(0.000789343 -5.02122 0)
(0.000780221 -5.26958 0)
(0.00064037 -5.4341 0)
(0.000292946 -5.53838 0)
(-0.000142836 -5.60144 0)
(-0.000583765 -5.63649 0)
(-0.000999064 -5.65135 0)
(-0.0013576 -5.64952 0)
(-0.00165903 -5.6311 0)
(-0.00187918 -5.5929 0)
(-0.00200887 -5.52756 0)
(-0.00195427 -5.42238 0)
(-0.001712 -5.25888 0)
(-0.00133897 -5.01322 0)
(-0.000801809 -4.65578 0)
(-0.000358536 -4.13546 0)
(-0.000276124 -3.08955 0)
(0.000207788 -3.09068 0)
(0.000483638 -4.13833 0)
(0.000672371 -4.66107 0)
(0.000804115 -5.02146 0)
(0.000788094 -5.26938 0)
(0.000609867 -5.43354 0)
(0.000289919 -5.53759 0)
(-0.000137652 -5.60053 0)
(-0.000585954 -5.63557 0)
(-0.00101776 -5.65052 0)
(-0.00140184 -5.64879 0)
(-0.00173196 -5.63048 0)
(-0.00198963 -5.59242 0)
(-0.00213315 -5.52734 0)
(-0.00209749 -5.42254 0)
(-0.00187643 -5.25955 0)
(-0.00144428 -5.01407 0)
(-0.000853816 -4.65658 0)
(-0.000327132 -4.13624 0)
(-0.000194814 -3.08948 0)
(0.000345839 -3.09135 0)
(0.000411468 -4.13893 0)
(0.000838635 -4.66161 0)
(0.00100552 -5.02188 0)
(0.000966535 -5.26941 0)
(0.000699015 -5.43302 0)
(0.000354222 -5.53672 0)
(-9.11933e-05 -5.59959 0)
(-0.000554524 -5.6347 0)
(-0.00100198 -5.64969 0)
(-0.0014067 -5.64806 0)
(-0.00175074 -5.62991 0)
(-0.00202071 -5.59203 0)
(-0.00217303 -5.52716 0)
(-0.00215415 -5.42274 0)
(-0.00195386 -5.26007 0)
(-0.00145553 -5.01476 0)
(-0.000886447 -4.65747 0)
(-0.000285848 -4.13697 0)
(-0.000105154 -3.08955 0)
(0.000306122 -3.0921 0)
(0.000380682 -4.13952 0)
(0.000879024 -4.66233 0)
(0.00114714 -5.02209 0)
(0.00115365 -5.26926 0)
(0.000864697 -5.4325 0)
(0.00047982 -5.53591 0)
(2.72236e-06 -5.59865 0)
(-0.000488175 -5.63375 0)
(-0.000959781 -5.64883 0)
(-0.00138633 -5.64733 0)
(-0.00174163 -5.62935 0)
(-0.00200885 -5.59168 0)
(-0.00214756 -5.52711 0)
(-0.00210946 -5.42316 0)
(-0.00187758 -5.26108 0)
(-0.0014033 -5.01626 0)
(-0.000899287 -4.65911 0)
(-0.000442747 -4.13834 0)
(-0.000253101 -3.09031 0)
(0.000395353 -3.0929 0)
(0.000431963 -4.14053 0)
(0.00100792 -4.66318 0)
(0.00142631 -5.02255 0)
(0.00142741 -5.26919 0)
(0.00116935 -5.43195 0)
(0.000711566 -5.53508 0)
(0.000174512 -5.5977 0)
(-0.00037179 -5.63274 0)
(-0.000903153 -5.64787 0)
(-0.00140127 -5.64651 0)
(-0.00182439 -5.62869 0)
(-0.0021617 -5.59123 0)
(-0.00236292 -5.52696 0)
(-0.00238763 -5.42354 0)
(-0.00217813 -5.26212 0)
(-0.00174393 -5.01775 0)
(-0.00117566 -4.66069 0)
(-0.00037388 -4.13962 0)
(-0.000152369 -3.09147 0)
(0.000402304 -3.09341 0)
(0.000499283 -4.14137 0)
(0.00115613 -4.66396 0)
(0.00168648 -5.02304 0)
(0.00176426 -5.26898 0)
(0.00151352 -5.43117 0)
(0.000993552 -5.53408 0)
(0.00038831 -5.59657 0)
(-0.000225819 -5.63158 0)
(-0.000836065 -5.64676 0)
(-0.00141098 -5.64546 0)
(-0.00192684 -5.62778 0)
(-0.00235736 -5.59057 0)
(-0.00265377 -5.52663 0)
(-0.0027648 -5.42357 0)
(-0.00259372 -5.26255 0)
(-0.00211369 -5.01868 0)
(-0.00131555 -4.6616 0)
(-0.000314362 -4.1399 0)
(0.000130846 -3.09181 0)
(0.00040648 -3.09349 0)
(0.00053397 -4.14231 0)
(0.00128634 -4.66463 0)
(0.00184012 -5.02334 0)
(0.00202362 -5.26871 0)
(0.00178682 -5.43037 0)
(0.00124147 -5.53295 0)
(0.000609197 -5.59526 0)
(-7.86511e-05 -5.63023 0)
(-0.000759569 -5.64544 0)
(-0.00140407 -5.64424 0)
(-0.00197996 -5.62671 0)
(-0.00246063 -5.58977 0)
(-0.00280141 -5.52617 0)
(-0.00292378 -5.42355 0)
(-0.00274752 -5.26306 0)
(-0.00220555 -5.01956 0)
(-0.00133516 -4.66263 0)
(-0.000492358 -4.14097 0)
(-0.000125105 -3.09172 0)
(0.000517324 -3.09364 0)
(0.000614543 -4.14371 0)
(0.00136777 -4.66582 0)
(0.00189195 -5.02388 0)
(0.00214598 -5.26845 0)
(0.00194433 -5.42955 0)
(0.00142113 -5.5317 0)
(0.000770114 -5.59385 0)
(2.66959e-05 -5.6288 0)
(-0.000715239 -5.64401 0)
(-0.00142002 -5.6429 0)
(-0.00205361 -5.62554 0)
(-0.00257501 -5.5889 0)
(-0.00291313 -5.52573 0)
(-0.00304713 -5.42365 0)
(-0.00282455 -5.26382 0)
(-0.00222991 -5.021 0)
(-0.00143957 -4.66445 0)
(-0.000632893 -4.14286 0)
(-0.000537032 -3.09198 0)
(0.000603758 -3.09427 0)
(0.000779111 -4.14551 0)
(0.00156841 -4.66735 0)
(0.00206423 -5.02469 0)
(0.00230814 -5.26834 0)
(0.00214013 -5.42872 0)
(0.00160594 -5.53044 0)
(0.000906409 -5.59239 0)
(0.000118896 -5.62723 0)
(-0.000678101 -5.64245 0)
(-0.00145511 -5.64146 0)
(-0.00215152 -5.6243 0)
(-0.00272254 -5.5879 0)
(-0.003099 -5.52511 0)
(-0.00327959 -5.42365 0)
(-0.00305136 -5.26448 0)
(-0.00245933 -5.02237 0)
(-0.00163505 -4.66621 0)
(-0.000673482 -4.14461 0)
(-0.000528987 -3.0926 0)
(0.000511822 -3.09524 0)
(0.000947159 -4.14707 0)
(0.00186802 -4.66886 0)
(0.00236105 -5.02561 0)
(0.0025872 -5.26826 0)
(0.0023656 -5.42794 0)
(0.00181404 -5.52921 0)
(0.00106837 -5.59089 0)
(0.000240957 -5.6256 0)
(-0.000611378 -5.6408 0)
(-0.00143793 -5.63992 0)
(-0.00218844 -5.62296 0)
(-0.00279421 -5.58685 0)
(-0.00322438 -5.5245 0)
(-0.00342555 -5.42356 0)
(-0.00325064 -5.26499 0)
(-0.00269644 -5.02366 0)
(-0.00184699 -4.66789 0)
(-0.000812813 -4.14617 0)
(-0.000407157 -3.09307 0)
(0.000414484 -3.09651 0)
(0.00108133 -4.14894 0)
(0.00204307 -4.67057 0)
(0.00262512 -5.02648 0)
(0.00283137 -5.26834 0)
(0.00258083 -5.42724 0)
(0.00204903 -5.52791 0)
(0.0012717 -5.58929 0)
(0.000396299 -5.6239 0)
(-0.000516724 -5.63911 0)
(-0.00140328 -5.63831 0)
(-0.00220497 -5.62156 0)
(-0.00284767 -5.5858 0)
(-0.0033145 -5.52392 0)
(-0.00349942 -5.42351 0)
(-0.00335559 -5.26573 0)
(-0.00280473 -5.02523 0)
(-0.00198821 -4.66995 0)
(-0.0009826 -4.14823 0)
(-0.000490516 -3.0941 0)
(0.000294721 -3.09797 0)
(0.00105574 -4.15096 0)
(0.00223135 -4.67233 0)
(0.00305254 -5.02753 0)
(0.00321087 -5.26842 0)
(0.00296546 -5.4264 0)
(0.00236553 -5.52651 0)
(0.00153181 -5.58756 0)
(0.000577333 -5.62202 0)
(-0.000409695 -5.63723 0)
(-0.00136776 -5.63656 0)
(-0.00224092 -5.62006 0)
(-0.00296217 -5.58466 0)
(-0.00348671 -5.52328 0)
(-0.00374577 -5.42346 0)
(-0.00364591 -5.26646 0)
(-0.0031077 -5.02691 0)
(-0.00221485 -4.67236 0)
(-0.00105006 -4.15057 0)
(-0.000466863 -3.09557 0)
(0.000279622 -3.09929 0)
(0.0011597 -4.15302 0)
(0.00246372 -4.67406 0)
(0.00343624 -5.0285 0)
(0.00367705 -5.26833 0)
(0.00337841 -5.42543 0)
(0.00272155 -5.52499 0)
(0.00179287 -5.58568 0)
(0.000761253 -5.61995 0)
(-0.000311042 -5.63515 0)
(-0.00135794 -5.6346 0)
(-0.00231565 -5.61838 0)
(-0.00313469 -5.58337 0)
(-0.00375207 -5.52247 0)
(-0.00409525 -5.4233 0)
(-0.00403206 -5.26719 0)
(-0.0035003 -5.02857 0)
(-0.00247669 -4.67458 0)
(-0.00114078 -4.15275 0)
(-0.00033538 -3.09715 0)
(0.000490081 -3.10053 0)
(0.00129881 -4.15518 0)
(0.00265613 -4.67591 0)
(0.00368063 -5.0295 0)
(0.00404889 -5.26834 0)
(0.00376416 -5.42441 0)
(0.00305614 -5.52331 0)
(0.00205678 -5.58361 0)
(0.000941774 -5.61771 0)
(-0.000223945 -5.6329 0)
(-0.00136032 -5.63246 0)
(-0.00241756 -5.61646 0)
(-0.00334878 -5.5818 0)
(-0.00406534 -5.52139 0)
(-0.00448531 -5.42294 0)
(-0.00445552 -5.26777 0)
(-0.00386144 -5.03012 0)
(-0.00271516 -4.6767 0)
(-0.00120844 -4.1549 0)
(-0.000321306 -3.09853 0)
(0.000804462 -3.10204 0)
(0.00147743 -4.15793 0)
(0.00281695 -4.67824 0)
(0.003845 -5.0308 0)
(0.00428189 -5.26839 0)
(0.00406031 -5.42344 0)
(0.00332085 -5.52156 0)
(0.00230345 -5.5814 0)
(0.00111047 -5.61531 0)
(-0.000137585 -5.63047 0)
(-0.0013693 -5.63009 0)
(-0.00251733 -5.61432 0)
(-0.00354144 -5.58003 0)
(-0.00434873 -5.52011 0)
(-0.00480115 -5.42241 0)
(-0.00480276 -5.26824 0)
(-0.00412745 -5.0316 0)
(-0.00288853 -4.67894 0)
(-0.00129426 -4.15728 0)
(-0.000463564 -3.09942 0)
(0.000926907 -3.10396 0)
(0.00158423 -4.16095 0)
(0.00308683 -4.68092 0)
(0.0041734 -5.03235 0)
(0.00463741 -5.26859 0)
(0.00440837 -5.42253 0)
(0.00365102 -5.51977 0)
(0.00257202 -5.57909 0)
(0.00131167 -5.61278 0)
(-2.42793e-05 -5.62789 0)
(-0.00134571 -5.62759 0)
(-0.00258522 -5.61204 0)
(-0.00368213 -5.57813 0)
(-0.00454267 -5.5187 0)
(-0.00500829 -5.42179 0)
(-0.00497722 -5.26873 0)
(-0.00427512 -5.03327 0)
(-0.00301505 -4.68162 0)
(-0.00152134 -4.16024 0)
(-0.000763043 -3.10043 0)
(0.000849766 -3.10594 0)
(0.00174752 -4.164 0)
(0.00333219 -4.68362 0)
(0.00450676 -5.03403 0)
(0.00500953 -5.2689 0)
(0.0047939 -5.42159 0)
(0.00402711 -5.51795 0)
(0.00288884 -5.57669 0)
(0.00156245 -5.61007 0)
(0.000139292 -5.62512 0)
(-0.00127538 -5.6249 0)
(-0.00260324 -5.60957 0)
(-0.00376995 -5.57605 0)
(-0.0046927 -5.51726 0)
(-0.00520589 -5.42127 0)
(-0.00514906 -5.26939 0)
(-0.00448245 -5.03511 0)
(-0.00324352 -4.68445 0)
(-0.00169953 -4.16358 0)
(-0.000921922 -3.10191 0)
(0.000730046 -3.10758 0)
(0.00178721 -4.16701 0)
(0.00355376 -4.6863 0)
(0.0048583 -5.03563 0)
(0.00542111 -5.26907 0)
(0.0052354 -5.42045 0)
(0.00444889 -5.51591 0)
(0.00326562 -5.57406 0)
(0.00184355 -5.60715 0)
(0.00032116 -5.62214 0)
(-0.00119157 -5.62207 0)
(-0.00261161 -5.60699 0)
(-0.00384574 -5.57389 0)
(-0.00481747 -5.51583 0)
(-0.00535597 -5.42083 0)
(-0.00533147 -5.27021 0)
(-0.00466879 -5.03733 0)
(-0.00347839 -4.68766 0)
(-0.00185359 -4.16708 0)
(-0.000853632 -3.10417 0)
(0.000709325 -3.10924 0)
(0.00185999 -4.17007 0)
(0.00370883 -4.68894 0)
(0.00513091 -5.03713 0)
(0.00571045 -5.26911 0)
(0.00553053 -5.41923 0)
(0.00472081 -5.51377 0)
(0.00350398 -5.57133 0)
(0.0020076 -5.60409 0)
(0.000400038 -5.61898 0)
(-0.00121518 -5.61902 0)
(-0.00272908 -5.60425 0)
(-0.0040447 -5.57165 0)
(-0.00507139 -5.51431 0)
(-0.00565618 -5.42034 0)
(-0.00569122 -5.27105 0)
(-0.00503898 -5.03958 0)
(-0.00375954 -4.69105 0)
(-0.00192518 -4.17065 0)
(-0.000640337 -3.10685 0)
(0.0010238 -3.1119 0)
(0.00221377 -4.17426 0)
(0.00393025 -4.69259 0)
(0.00525082 -5.03947 0)
(0.00582292 -5.26972 0)
(0.00566569 -5.41834 0)
(0.00485868 -5.5118 0)
(0.00363825 -5.56865 0)
(0.00211356 -5.60096 0)
(0.00044024 -5.61566 0)
(-0.0012577 -5.61578 0)
(-0.00288204 -5.6013 0)
(-0.00431156 -5.56915 0)
(-0.00542392 -5.51253 0)
(-0.00610307 -5.41955 0)
(-0.00616825 -5.27148 0)
(-0.0054884 -5.04145 0)
(-0.00402596 -4.69401 0)
(-0.00196915 -4.17372 0)
(-0.000437111 -3.10916 0)
(0.000968248 -3.11507 0)
(0.00220002 -4.17843 0)
(0.00429291 -4.69651 0)
(0.00569035 -5.04201 0)
(0.00630479 -5.27049 0)
(0.00613379 -5.41766 0)
(0.00528548 -5.50989 0)
(0.00398332 -5.56583 0)
(0.00237447 -5.59768 0)
(0.000604432 -5.6122 0)
(-0.00119672 -5.61233 0)
(-0.00291847 -5.59809 0)
(-0.00444692 -5.56646 0)
(-0.00564707 -5.51065 0)
(-0.00637243 -5.41874 0)
(-0.00643502 -5.27195 0)
(-0.00570355 -5.04338 0)
(-0.00416214 -4.69701 0)
(-0.00219133 -4.17706 0)
(-0.000657121 -3.11144 0)
(0.000600102 -3.11751 0)
(0.00212166 -4.18164 0)
(0.00446477 -4.69961 0)
(0.00612844 -5.04396 0)
(0.00686899 -5.27086 0)
(0.00670093 -5.41651 0)
(0.00580499 -5.50759 0)
(0.00439798 -5.56276 0)
(0.00267386 -5.59413 0)
(0.00079725 -5.60846 0)
(-0.00111015 -5.60866 0)
(-0.00293144 -5.59469 0)
(-0.00454134 -5.56362 0)
(-0.00580769 -5.50871 0)
(-0.00656152 -5.41798 0)
(-0.00662807 -5.27267 0)
(-0.00588621 -5.04574 0)
(-0.00431601 -4.70063 0)
(-0.00235365 -4.18124 0)
(-0.00100302 -3.11406 0)
(0.000740209 -3.11945 0)
(0.00234133 -4.18543 0)
(0.0045938 -4.7029 0)
(0.00633888 -5.04591 0)
(0.00717606 -5.27118 0)
(0.00704512 -5.41532 0)
(0.0061477 -5.50515 0)
(0.00468957 -5.55945 0)
(0.00288884 -5.59033 0)
(0.000921231 -5.60448 0)
(-0.00108678 -5.60475 0)
(-0.00300637 -5.59108 0)
(-0.00470185 -5.56061 0)
(-0.00604352 -5.50662 0)
(-0.00684967 -5.41712 0)
(-0.00692423 -5.27338 0)
(-0.00617031 -5.04801 0)
(-0.00453378 -4.70419 0)
(-0.00237598 -4.18538 0)
(-0.00100717 -3.11679 0)
(0.00109754 -3.12193 0)
(0.00258001 -4.19007 0)
(0.00477113 -4.70683 0)
(0.0064697 -5.04835 0)
(0.0073448 -5.27188 0)
(0.0072535 -5.41429 0)
(0.00638503 -5.50273 0)
(0.00490221 -5.55612 0)
(0.003052 -5.58647 0)
(0.00100989 -5.60039 0)
(-0.00107526 -5.6007 0)
(-0.00307587 -5.58736 0)
(-0.00485091 -5.55748 0)
(-0.00625283 -5.5044 0)
(-0.00710554 -5.41618 0)
(-0.00718624 -5.27401 0)
(-0.00639436 -5.05032 0)
(-0.00470322 -4.70782 0)
(-0.00247209 -4.18955 0)
(-0.000941378 -3.11958 0)
(0.00113851 -3.12513 0)
(0.00272082 -4.19485 0)
(0.00500282 -4.71098 0)
(0.00670242 -5.05104 0)
(0.00756899 -5.27274 0)
(0.00748913 -5.41332 0)
(0.00659637 -5.50035 0)
(0.00508927 -5.55276 0)
(0.00319457 -5.58253 0)
(0.00109134 -5.59619 0)
(-0.00107173 -5.59655 0)
(-0.00314716 -5.58352 0)
(-0.00499372 -5.55426 0)
(-0.0064553 -5.50215 0)
(-0.00734591 -5.41528 0)
(-0.00744083 -5.27484 0)
(-0.00663443 -5.05296 0)
(-0.00490218 -4.7119 0)
(-0.00261082 -4.19425 0)
(-0.000973255 -3.12279 0)
(0.00104793 -3.12897 0)
(0.00293218 -4.19976 0)
(0.00528464 -4.71533 0)
(0.00701511 -5.0539 0)
(0.00786342 -5.27371 0)
(0.0077663 -5.41246 0)
(0.00683391 -5.49797 0)
(0.00528395 -5.54935 0)
(0.00332766 -5.57849 0)
(0.00115532 -5.59187 0)
(-0.00108708 -5.59225 0)
(-0.00325364 -5.57954 0)
(-0.00518617 -5.55092 0)
(-0.00672297 -5.49982 0)
(-0.00766577 -5.41438 0)
(-0.00777501 -5.27571 0)
(-0.00695853 -5.05573 0)
(-0.00517656 -4.71617 0)
(-0.0027805 -4.19918 0)
(-0.000987467 -3.12638 0)
(0.000938745 -3.13286 0)
(0.00296428 -4.20454 0)
(0.00555186 -4.71962 0)
(0.00745264 -5.05675 0)
(0.00832813 -5.27464 0)
(0.00819949 -5.41146 0)
(0.00719759 -5.49543 0)
(0.00555727 -5.54575 0)
(0.00350928 -5.57424 0)
(0.00124098 -5.58731 0)
(-0.00110328 -5.58768 0)
(-0.00337368 -5.57527 0)
(-0.005419 -5.54726 0)
(-0.00705992 -5.49718 0)
(-0.00806897 -5.41319 0)
(-0.00823332 -5.27636 0)
(-0.00738432 -5.05827 0)
(-0.00547964 -4.72016 0)
(-0.00288205 -4.20374 0)
(-0.000959806 -3.12962 0)
(0.000883348 -3.13621 0)
(0.0029685 -4.209 0)
(0.00573814 -4.72357 0)
(0.00785565 -5.05927 0)
(0.00880512 -5.27525 0)
(0.00864651 -5.41019 0)
(0.00756738 -5.49262 0)
(0.00584903 -5.54187 0)
(0.00371317 -5.56974 0)
(0.0013607 -5.58253 0)
(-0.00106269 -5.58288 0)
(-0.00342092 -5.57075 0)
(-0.0055602 -5.54335 0)
(-0.00728564 -5.49423 0)
(-0.00837357 -5.41171 0)
(-0.00857649 -5.2767 0)
(-0.0076856 -5.06043 0)
(-0.00566876 -4.72384 0)
(-0.00298979 -4.20813 0)
(-0.0010435 -3.13228 0)
(0.00121494 -3.13954 0)
(0.00321135 -4.21415 0)
(0.0058635 -4.72794 0)
(0.0080022 -5.06204 0)
(0.0090272 -5.27598 0)
(0.00890139 -5.4089 0)
(0.00782011 -5.4897 0)
(0.00607054 -5.53788 0)
(0.0038931 -5.56513 0)
(0.00149266 -5.57764 0)
(-0.000977022 -5.57801 0)
(-0.00337622 -5.56617 0)
(-0.00554761 -5.5394 0)
(-0.00729018 -5.49139 0)
(-0.00838396 -5.41042 0)
(-0.00856247 -5.27732 0)
(-0.00766452 -5.06316 0)
(-0.00575402 -4.72836 0)
(-0.00332961 -4.21362 0)
(-0.00144219 -3.13567 0)
(0.00144607 -3.14319 0)
(0.00328892 -4.2198 0)
(0.00608145 -4.7328 0)
(0.00821569 -5.0651 0)
(0.0092447 -5.27677 0)
(0.00911613 -5.40761 0)
(0.00800948 -5.4868 0)
(0.00622949 -5.53389 0)
(0.00401447 -5.56051 0)
(0.00156497 -5.57273 0)
(-0.000958274 -5.5731 0)
(-0.00340927 -5.56157 0)
(-0.00562678 -5.53546 0)
(-0.00741005 -5.48861 0)
(-0.00852096 -5.40935 0)
(-0.00872741 -5.27833 0)
(-0.00788809 -5.06648 0)
(-0.00606038 -4.73366 0)
(-0.0034931 -4.21985 0)
(-0.00156643 -3.14038 0)
(0.00143496 -3.14743 0)
(0.00347709 -4.22564 0)
(0.00629232 -4.73793 0)
(0.00839333 -5.06837 0)
(0.00939963 -5.27769 0)
(0.00924655 -5.40638 0)
(0.00812033 -5.48391 0)
(0.00631527 -5.52988 0)
(0.00406043 -5.55583 0)
(0.00155679 -5.56773 0)
(-0.00103618 -5.56809 0)
(-0.0035628 -5.55685 0)
(-0.00586047 -5.53142 0)
(-0.00773396 -5.48567 0)
(-0.00893438 -5.40803 0)
(-0.00923004 -5.27912 0)
(-0.00843612 -5.06954 0)
(-0.00646097 -4.73856 0)
(-0.00351546 -4.22533 0)
(-0.00115582 -3.14537 0)
(0.00135531 -3.15211 0)
(0.00360072 -4.23174 0)
(0.00659868 -4.74334 0)
(0.0087257 -5.07181 0)
(0.00969324 -5.27868 0)
(0.00949442 -5.40517 0)
(0.00832389 -5.48101 0)
(0.00646442 -5.52581 0)
(0.00414808 -5.55103 0)
(0.00157075 -5.56257 0)
(-0.00110466 -5.56288 0)
(-0.00372759 -5.5519 0)
(-0.00612462 -5.52709 0)
(-0.00809418 -5.48244 0)
(-0.00938804 -5.40643 0)
(-0.00975162 -5.27958 0)
(-0.00891566 -5.07223 0)
(-0.00671808 -4.74308 0)
(-0.00360259 -4.23048 0)
(-0.000948757 -3.14979 0)
(0.00116896 -3.1565 0)
(0.00365929 -4.23745 0)
(0.00688753 -4.74844 0)
(0.00917358 -5.07495 0)
(0.0101443 -5.27941 0)
(0.00987853 -5.40373 0)
(0.00863385 -5.47789 0)
(0.00669774 -5.52152 0)
(0.0043039 -5.54601 0)
(0.0016433 -5.55718 0)
(-0.00112297 -5.55743 0)
(-0.00383696 -5.54672 0)
(-0.00632594 -5.52256 0)
(-0.00838112 -5.479 0)
(-0.00973759 -5.40464 0)
(-0.0101023 -5.27997 0)
(-0.00918415 -5.07498 0)
(-0.00687591 -4.7478 0)
(-0.0037966 -4.23617 0)
(-0.00123858 -3.1539 0)
(0.00123669 -3.16063 0)
(0.00382118 -4.2433 0)
(0.00703219 -4.75346 0)
(0.00943865 -5.07792 0)
(0.0104818 -5.27993 0)
(0.0102066 -5.40208 0)
(0.00891133 -5.47455 0)
(0.00691448 -5.51701 0)
(0.00444916 -5.54078 0)
(0.00171175 -5.55159 0)
(-0.00112929 -5.5518 0)
(-0.00391522 -5.54138 0)
(-0.00646761 -5.51788 0)
(-0.00856627 -5.47549 0)
(-0.00995237 -5.40287 0)
(-0.0103081 -5.28045 0)
(-0.00934995 -5.07797 0)
(-0.00706433 -4.75297 0)
(-0.0039987 -4.24246 0)
(-0.00165426 -3.15823 0)
(0.0015164 -3.16511 0)
(0.00403713 -4.2498 0)
(0.00726534 -4.75888 0)
(0.0096514 -5.08108 0)
(0.0107044 -5.2805 0)
(0.010422 -5.40041 0)
(0.00909505 -5.47117 0)
(0.00705418 -5.51245 0)
(0.00453728 -5.53548 0)
(0.00174272 -5.54592 0)
(-0.00115789 -5.54609 0)
(-0.00399654 -5.53596 0)
(-0.00659463 -5.51315 0)
(-0.00873376 -5.47193 0)
(-0.0101455 -5.40108 0)
(-0.0105124 -5.28099 0)
(-0.00955341 -5.08114 0)
(-0.00726965 -4.75839 0)
(-0.00407021 -4.24892 0)
(-0.00175642 -3.16298 0)
(0.00178297 -3.17041 0)
(0.00435472 -4.25688 0)
(0.00760321 -4.76492 0)
(0.00989521 -5.08473 0)
(0.0108818 -5.28139 0)
(0.0105701 -5.39894 0)
(0.00922023 -5.46791 0)
(0.00715294 -5.50794 0)
(0.00459901 -5.53018 0)
(0.00175811 -5.54022 0)
(-0.00119275 -5.54035 0)
(-0.00408136 -5.53053 0)
(-0.00671826 -5.50842 0)
(-0.00888549 -5.46842 0)
(-0.0103239 -5.39939 0)
(-0.010718 -5.2817 0)
(-0.00978192 -5.0846 0)
(-0.00749164 -4.76418 0)
(-0.00424262 -4.25575 0)
(-0.00170071 -3.16845 0)
(0.00168156 -3.17581 0)
(0.0043408 -4.26382 0)
(0.00789238 -4.77095 0)
(0.01031 -5.08838 0)
(0.0112896 -5.28222 0)
(0.0109333 -5.39737 0)
(0.00951535 -5.46455 0)
(0.0073629 -5.50331 0)
(0.00472501 -5.52474 0)
(0.00179412 -5.53437 0)
(-0.00124877 -5.53446 0)
(-0.00422303 -5.52497 0)
(-0.00693812 -5.50361 0)
(-0.00917875 -5.46487 0)
(-0.0106811 -5.3977 0)
(-0.0111274 -5.28252 0)
(-0.0102146 -5.08827 0)
(-0.00783518 -4.77028 0)
(-0.00434213 -4.26284 0)
(-0.00158326 -3.17437 0)
(0.00138799 -3.18062 0)
(0.00432124 -4.27025 0)
(0.0080677 -4.7764 0)
(0.0106922 -5.09148 0)
(0.0117285 -5.28253 0)
(0.0113556 -5.39528 0)
(0.00986713 -5.46075 0)
(0.00760531 -5.49832 0)
(0.00485491 -5.51897 0)
(0.00180567 -5.52821 0)
(-0.00135365 -5.52826 0)
(-0.00444548 -5.51911 0)
(-0.00728067 -5.4985 0)
(-0.00963452 -5.46099 0)
(-0.0112315 -5.39566 0)
(-0.0117248 -5.28295 0)
(-0.0107626 -5.09159 0)
(-0.0081532 -4.77599 0)
(-0.0043392 -4.26943 0)
(-0.00136371 -3.17982 0)
(0.0015378 -3.1858 0)
(0.0046257 -4.27747 0)
(0.00832651 -4.78231 0)
(0.0109425 -5.09485 0)
(0.0119356 -5.28289 0)
(0.0115411 -5.39311 0)
(0.0100152 -5.45683 0)
(0.00770407 -5.49317 0)
(0.00488845 -5.51301 0)
(0.00176411 -5.52183 0)
(-0.00147898 -5.52183 0)
(-0.00465798 -5.51299 0)
(-0.00758444 -5.4931 0)
(-0.0100255 -5.4568 0)
(-0.0116782 -5.39329 0)
(-0.0121953 -5.28312 0)
(-0.0111443 -5.09471 0)
(-0.00837105 -4.78168 0)
(-0.00452072 -4.27624 0)
(-0.00149093 -3.18462 0)
(0.00185614 -3.19205 0)
(0.0049192 -4.28569 0)
(0.00867492 -4.78918 0)
(0.0112375 -5.09899 0)
(0.012175 -5.28382 0)
(0.0117231 -5.39131 0)
(0.010158 -5.45306 0)
(0.00780576 -5.48807 0)
(0.00494109 -5.50705 0)
(0.0017651 -5.51542 0)
(-0.00153115 -5.51534 0)
(-0.00476506 -5.5068 0)
(-0.00773867 -5.48764 0)
(-0.0102253 -5.45257 0)
(-0.0119185 -5.39097 0)
(-0.0124531 -5.28346 0)
(-0.011377 -5.09816 0)
(-0.00859868 -4.78793 0)
(-0.00475073 -4.28389 0)
(-0.00189357 -3.18961 0)
(0.00175618 -3.1984 0)
(0.00490739 -4.29347 0)
(0.00901207 -4.79583 0)
(0.0117628 -5.10286 0)
(0.0127409 -5.28454 0)
(0.0122131 -5.38933 0)
(0.0105436 -5.44913 0)
(0.00807702 -5.48281 0)
(0.00510662 -5.50095 0)
(0.00184271 -5.50888 0)
(-0.00153397 -5.50875 0)
(-0.00483025 -5.50057 0)
(-0.00784382 -5.48219 0)
(-0.0103564 -5.44843 0)
(-0.0120634 -5.38881 0)
(-0.0125893 -5.28411 0)
(-0.0115434 -5.1022 0)
(-0.00885734 -4.79498 0)
(-0.00498865 -4.29235 0)
(-0.00216113 -3.19559 0)
(0.00161437 -3.20406 0)
(0.0049455 -4.30079 0)
(0.00926012 -4.802 0)
(0.0122545 -5.10625 0)
(0.01331 -5.2848 0)
(0.0127085 -5.38688 0)
(0.0109342 -5.44473 0)
(0.00834151 -5.47718 0)
(0.00524471 -5.49455 0)
(0.00187187 -5.5021 0)
(-0.00160417 -5.50198 0)
(-0.00499057 -5.49419 0)
(-0.00808347 -5.47664 0)
(-0.0106733 -5.44423 0)
(-0.0124575 -5.3866 0)
(-0.0130423 -5.2848 0)
(-0.0120666 -5.10643 0)
(-0.00931103 -4.80227 0)
(-0.00505966 -4.30086 0)
(-0.00201756 -3.20221 0)
(0.00195823 -3.20997 0)
(0.0052387 -4.30922 0)
(0.0094853 -4.80896 0)
(0.0125134 -5.1101 0)
(0.013617 -5.28524 0)
(0.0129919 -5.38438 0)
(0.0111488 -5.44021 0)
(0.00846228 -5.47138 0)
(0.00527657 -5.48795 0)
(0.00180817 -5.49512 0)
(-0.00176544 -5.49499 0)
(-0.00525337 -5.48757 0)
(-0.00845672 -5.47084 0)
(-0.0111623 -5.43975 0)
(-0.0130593 -5.3841 0)
(-0.0137213 -5.28518 0)
(-0.0127261 -5.11038 0)
(-0.00972138 -4.80925 0)
(-0.00509916 -4.30895 0)
(-0.00170114 -3.20864 0)
(0.00216512 -3.21649 0)
(0.00529592 -4.31829 0)
(0.0098217 -4.81658 0)
(0.0129073 -5.11439 0)
(0.01402 -5.28585 0)
(0.0133595 -5.38193 0)
(0.0114192 -5.43561 0)
(0.00863481 -5.46542 0)
(0.00534016 -5.48119 0)
(0.00176597 -5.48795 0)
(-0.00190717 -5.48778 0)
(-0.00550245 -5.48072 0)
(-0.0088257 -5.46478 0)
(-0.0116451 -5.435 0)
(-0.0136421 -5.38141 0)
(-0.0143651 -5.28543 0)
(-0.0133172 -5.11424 0)
(-0.0101121 -4.8164 0)
(-0.00530966 -4.3175 0)
(-0.00179381 -3.21484 0)
(0.00206707 -3.22326 0)
(0.00538848 -4.32727 0)
(0.0102615 -4.82421 0)
(0.0134723 -5.11864 0)
(0.0145542 -5.28634 0)
(0.0138071 -5.37928 0)
(0.0117766 -5.43077 0)
(0.00887868 -5.45925 0)
(0.00545729 -5.47424 0)
(0.00177152 -5.4806 0)
(-0.00200629 -5.48042 0)
(-0.00570525 -5.47372 0)
(-0.0091404 -5.45859 0)
(-0.0120714 -5.43015 0)
(-0.0141592 -5.37867 0)
(-0.0149262 -5.28579 0)
(-0.0138518 -5.11847 0)
(-0.0105331 -4.82416 0)
(-0.00553743 -4.3269 0)
(-0.00216512 -3.2213 0)
(0.0021817 -3.23025 0)
(0.00567001 -4.33698 0)
(0.0107483 -4.83243 0)
(0.0140586 -5.12321 0)
(0.0151241 -5.28692 0)
(0.0143082 -5.3766 0)
(0.0121608 -5.42581 0)
(0.00914495 -5.45287 0)
(0.00559516 -5.46705 0)
(0.00178446 -5.47303 0)
(-0.00211127 -5.47283 0)
(-0.00593132 -5.46651 0)
(-0.00948717 -5.45217 0)
(-0.0125165 -5.42513 0)
(-0.0146767 -5.37589 0)
(-0.0154594 -5.28626 0)
(-0.0143395 -5.12303 0)
(-0.0109556 -4.83255 0)
(-0.00578511 -4.33707 0)
(-0.00246465 -3.22814 0)
(0.00222333 -3.2369 0)
(0.00569952 -4.34692 0)
(0.0112458 -4.8408 0)
(0.0147933 -5.12768 0)
(0.015913 -5.28719 0)
(0.0150221 -5.37363 0)
(0.0127311 -5.42055 0)
(0.00954034 -5.44615 0)
(0.00582492 -5.45951 0)
(0.00185537 -5.46512 0)
(-0.00219615 -5.46491 0)
(-0.00616537 -5.45894 0)
(-0.00986683 -5.44538 0)
(-0.0130347 -5.41973 0)