/*--------------------------------*- C++ -*----------------------------------*\
  =========                 |
  \\      /  F ield         | OpenFOAM: The Open Source CFD Toolbox
   \\    /   O peration     | Website:  https://openfoam.org
    \\  /    A nd           | Version:  6
     \\/     M anipulation  |
\*---------------------------------------------------------------------------*/
FoamFile
{
    version     2.0;
    format      ascii;
    class       volScalarField;
    location    "16";
    object      epsilon;
}
// * * * * * * * * * * * * * * * * * * * * * * * * * * * * * * * * * * * * * //

dimensions      [0 2 -3 0 0 0 0];

internalField   nonuniform List<scalar> 
130000
(
15.2764
15.0871
14.8696
14.6318
14.3763
14.1071
13.8294
13.5493
13.2728
13.0059
12.7538
12.5206
12.3097
12.123
11.9615
11.8251
11.7133
11.6249
11.5582
11.5118
15.3018
15.1137
14.8968
14.6588
14.4024
14.1318
13.8525
13.5706
13.2925
13.024
12.7703
12.5359
12.3238
12.1361
11.9739
11.8371
11.7253
11.6371
11.5707
11.5245
15.3233
15.1363
14.9198
14.6816
14.4244
14.1525
13.8715
13.5877
13.3074
13.0367
12.781
12.5446
12.3308
12.1415
11.9783
11.8411
11.7293
11.6415
11.5761
11.5308
15.34
15.1537
14.9373
14.6986
14.4403
14.1666
13.8834
13.5973
13.3144
13.0416
12.7842
12.5465
12.3316
12.1414
11.9777
11.8404
11.7286
11.6412
11.5768
11.5325
15.3512
15.1648
14.9479
14.708
14.4479
14.1721
13.8871
13.5991
13.3147
13.0408
12.7825
12.5442
12.3291
12.1393
11.9757
11.8384
11.7267
11.6394
11.5748
11.5311
15.3578
15.1702
14.952
14.7104
14.4486
14.1712
13.885
13.5962
13.3116
13.0373
12.7788
12.5404
12.3253
12.1357
11.9723
11.8354
11.724
11.6369
11.5725
11.529
15.3616
15.1723
14.9521
14.7089
14.4458
14.1677
13.8807
13.5913
13.3062
13.0317
12.7731
12.5349
12.3201
12.1309
11.968
11.8315
11.7206
11.634
11.5701
11.5268
15.3643
15.1733
14.9513
14.7064
14.4419
14.1627
13.8747
13.5846
13.2991
13.0245
12.766
12.5281
12.3139
12.1252
11.963
11.8272
11.717
11.631
11.5676
11.525
15.3667
15.1737
14.9498
14.7032
14.4372
14.1566
13.8676
13.5769
13.291
13.0163
12.7581
12.5206
12.3069
12.1189
11.9575
11.8225
11.713
11.6278
11.5651
11.5231
15.3691
15.1742
14.9485
14.6999
14.4321
14.1501
13.86
13.5686
13.2824
13.0076
12.7496
12.5126
12.2996
12.1124
11.9518
11.8177
11.709
11.6246
11.5626
11.5211
15.3722
15.1752
14.9477
14.6969
14.4272
14.1437
13.8524
13.5602
13.2736
12.9988
12.7411
12.5045
12.2922
12.1058
11.9461
11.8129
11.7051
11.6214
11.5601
11.5192
15.3758
15.1767
14.947
14.6941
14.4226
14.1375
13.8451
13.552
13.265
12.9901
12.7326
12.4965
12.2849
12.0994
11.9405
11.8082
11.7013
11.6185
11.5578
11.5175
15.3801
15.1787
14.9465
14.6919
14.4186
14.1319
13.8382
13.5442
13.2567
12.9816
12.7243
12.4888
12.2778
12.0931
11.9352
11.8037
11.6978
11.6157
11.5558
11.516
15.3851
15.1816
14.9473
14.6908
14.4154
14.127
13.8318
13.5369
13.2488
12.9736
12.7165
12.4814
12.2711
12.0871
11.9301
11.7996
11.6946
11.6134
11.5542
11.515
15.3908
15.1853
14.949
14.6906
14.4132
14.1228
13.8262
13.5302
13.2415
12.966
12.709
12.4743
12.2646
12.0815
11.9253
11.7958
11.6917
11.6115
11.5533
11.5149
15.3974
15.1899
14.9513
14.6908
14.4116
14.1193
13.8212
13.5241
13.2347
12.959
12.702
12.4676
12.2585
12.0762
11.9209
11.7923
11.6891
11.6099
11.5526
11.5145
15.405
15.1954
14.9544
14.6914
14.4105
14.1164
13.8169
13.5187
13.2285
12.9525
12.6955
12.4614
12.2528
12.0712
11.9167
11.789
11.6868
11.6085
11.5521
11.5134
15.4139
15.2021
14.9587
14.6932
14.4099
14.1144
13.8134
13.514
13.223
12.9465
12.6894
12.4556
12.2475
12.0665
11.9129
11.7862
11.685
11.6078
11.552
11.514
15.4238
15.2099
14.9643
14.6964
14.411
14.1138
13.811
13.5102
13.2182
12.9412
12.6839
12.4503
12.2426
12.0623
11.9094
11.7835
11.6833
11.6072
11.5515
11.5146
15.4351
15.2191
14.971
14.7007
14.413
14.1139
13.8095
13.5071
13.2141
12.9364
12.679
12.4454
12.2381
12.0583
11.9062
11.781
11.6815
11.606
11.5512
11.5158
15.4477
15.2295
14.9789
14.7061
14.4158
14.1143
13.8087
13.5048
13.2107
12.9324
12.6746
12.4411
12.2341
12.0548
11.9032
11.7787
11.6798
11.6046
11.551
11.5159
15.4615
15.2412
14.9881
14.7126
14.4197
14.1159
13.8083
13.5031
13.208
12.929
12.6709
12.4373
12.2306
12.0517
11.9008
11.777
11.6789
11.604
11.5501
11.515
15.4766
15.2541
14.9985
14.7203
14.4247
14.1184
13.8086
13.5026
13.2066
12.9266
12.6679
12.4342
12.2276
12.0492
11.8989
11.7758
11.6783
11.6037
11.5503
11.5153
15.493
15.2684
15.0102
14.7292
14.4309
14.1222
13.8103
13.5029
13.2058
12.9248
12.6655
12.4316
12.2252
12.0472
11.8976
11.7751
11.6771
11.6028
11.5499
11.5154
15.5108
15.284
15.0232
14.7394
14.4383
14.1269
13.8126
13.5031
13.2051
12.9233
12.6635
12.4295
12.2232
12.0456
11.8966
11.7749
11.6776
11.6038
11.5511
11.5173
15.53
15.3011
15.0375
14.7508
14.4467
14.1326
13.816
13.5044
13.2047
12.9222
12.6621
12.4278
12.2216
12.0441
11.8951
11.7738
11.6775
11.6045
11.5529
11.5201
15.5506
15.3195
15.0532
14.7634
14.4563
14.1393
13.8202
13.5065
13.2052
12.9222
12.6614
12.4268
12.2204
12.0428
11.8938
11.7721
11.6761
11.6036
11.5527
11.5205
15.5727
15.3394
15.0703
14.7774
14.4672
14.1472
13.8254
13.5095
13.2066
12.9226
12.6615
12.4267
12.22
12.0425
11.8937
11.7723
11.6764
11.604
11.5525
11.52
15.5963
15.3608
15.0889
14.7928
14.4793
14.1562
13.8316
13.5133
13.2084
12.9229
12.6614
12.4264
12.2199
12.0425
11.8936
11.7722
11.6768
11.6045
11.5526
11.5195
15.6214
15.3838
15.109
14.8096
14.4928
14.1665
13.839
13.5181
13.2112
12.924
12.6613
12.4261
12.2198
12.0421
11.8929
11.7717
11.6765
11.6041
11.5527
11.5205
15.6482
15.4084
15.1307
14.828
14.5077
14.1781
13.8475
13.524
13.2149
12.9261
12.6622
12.4265
12.2192
12.0415
11.8924
11.7712
11.6758
11.6038
11.5535
11.5217
15.6767
15.4349
15.1543
14.8482
14.5243
14.1911
13.8573
13.531
13.2194
12.9286
12.6632
12.4262
12.2182
12.0402
11.8907
11.7696
11.6748
11.6032
11.5526
11.521
15.7071
15.4634
15.1798
14.8702
14.5426
14.2059
13.8686
13.5393
13.2251
12.9322
12.6649
12.4263
12.2181
12.0396
11.8903
11.7693
11.6748
11.6029
11.5523
11.5209
15.7397
15.494
15.2075
14.8944
14.563
14.2224
13.8817
13.5492
13.2323
12.937
12.6679
12.4279
12.2184
12.0398
11.8904
11.7693
11.6748
11.6033
11.5526
11.5201
15.7746
15.5271
15.2376
14.9208
14.5855
14.2411
13.8966
13.5608
13.2411
12.9434
12.6723
12.4306
12.22
12.0405
11.8913
11.77
11.6748
11.6031
11.552
11.5196
15.8121
15.5629
15.2704
14.9499
14.6106
14.262
13.9138
13.5745
13.2518
12.9515
12.6783
12.435
12.223
12.0425
11.8926
11.7708
11.6752
11.6033
11.552
11.5203
15.8524
15.6016
15.3062
14.9819
14.6383
14.2856
13.9334
13.5905
13.2646
12.9618
12.6864
12.4414
12.2279
12.0462
11.895
11.7726
11.6768
11.605
11.5546
11.5232
15.8958
15.6435
15.3451
15.017
14.6692
14.3121
13.9557
13.6091
13.2799
12.9743
12.6967
12.4498
12.235
12.0522
11.9003
11.7775
11.6813
11.6094
11.559
11.5276
15.9427
15.689
15.3877
15.0556
14.7033
14.3417
13.981
13.6304
13.2978
12.9893
12.7093
12.4605
12.2443
12.0603
11.9076
11.7841
11.6875
11.6152
11.5644
11.5327
15.9933
15.7385
15.4343
15.0981
14.7413
14.375
14.0097
13.6549
13.3186
13.007
12.7244
12.4736
12.2558
12.0706
11.9168
11.7926
11.6954
11.6224
11.5711
11.5388
16.0482
15.7924
15.4853
15.145
14.7834
14.4121
14.0421
13.683
13.3428
13.0278
12.7425
12.4895
12.2698
12.0832
11.9284
11.8033
11.7053
11.6316
11.5796
11.5465
16.1076
15.8511
15.5411
15.1966
14.8301
14.4537
14.0786
13.7149
13.3706
13.0521
12.7638
12.5084
12.2868
12.0987
11.9427
11.8165
11.7176
11.6432
11.5904
11.5565
16.1721
15.9151
15.6023
15.2535
14.8819
14.5001
14.1198
13.7511
13.4025
13.0802
12.7888
12.5308
12.3071
12.1173
11.9599
11.8326
11.7328
11.6575
11.6038
11.569
16.2422
15.9849
15.6694
15.3163
14.9393
14.5519
14.1661
13.7922
13.4389
13.1126
12.8178
12.5569
12.331
12.1394
11.9805
11.852
11.751
11.6747
11.6201
11.5842
16.3184
16.0613
15.7431
15.3855
15.0031
14.6098
14.2181
13.8387
13.4804
13.1498
12.8513
12.5874
12.3589
12.1653
12.0047
11.8748
11.7727
11.6952
11.6395
11.6025
16.4014
16.1448
15.8242
15.462
15.0739
14.6744
14.2764
13.8912
13.5276
13.1923
12.8898
12.6226
12.3914
12.1955
12.0331
11.9016
11.7981
11.7194
11.6623
11.6241
16.4921
16.2365
15.9134
15.5466
15.1525
14.7465
14.3421
13.9506
13.5813
13.241
12.9342
12.6634
12.4291
12.2307
12.0662
11.9329
11.8278
11.7476
11.6892
11.6495
16.5912
16.3371
16.0119
15.6404
15.2402
14.8273
14.4159
14.0178
13.6424
13.2967
12.9852
12.7104
12.4728
12.2716
12.1048
11.9695
11.8626
11.7807
11.7206
11.6792
16.6998
16.448
16.1209
15.7446
15.3379
14.9179
14.4991
14.0939
13.7119
13.3604
13.0438
12.7647
12.5235
12.3192
12.1497
12.0121
11.9032
11.8194
11.7574
11.7141
16.8194
16.5704
16.2416
15.8606
15.4472
15.0196
14.5929
14.1802
13.7912
13.4334
13.1113
12.8275
12.5822
12.3745
12.2021
12.062
11.9507
11.8647
11.8005
11.755
16.951
16.7058
16.3757
15.9899
15.5697
15.134
14.6991
14.2783
13.8818
13.5172
13.1892
12.9002
12.6505
12.439
12.2633
12.1203
12.0064
11.9179
11.8512
11.803
17.0963
16.8559
16.525
16.1345
15.7071
15.2631
14.8195
14.39
13.9855
13.6136
13.2791
12.9845
12.73
12.5143
12.335
12.1887
12.0718
11.9803
11.9107
11.8596
17.2567
17.0225
16.6915
16.2965
15.862
15.4093
14.9564
14.5178
14.1047
13.7249
13.3834
13.0827
12.8229
12.6026
12.4191
12.2692
12.1488
12.054
11.981
11.9263
17.4345
17.2081
16.878
16.4788
16.0369
15.5752
15.1126
14.6644
14.242
13.8538
13.5048
13.1974
12.9317
12.7063
12.5183
12.3641
12.2398
12.1412
12.0643
12.0054
17.6322
17.4157
17.0875
16.6846
16.2354
15.7645
15.2917
14.8332
14.4011
14.0038
13.6466
13.332
13.0599
12.8288
12.6356
12.4767
12.3478
12.2447
12.1632
12.0995
17.8528
17.6486
17.3238
16.9179
16.4617
15.9813
15.498
15.0288
14.5862
14.1793
13.8133
13.4907
13.2116
12.9741
12.7752
12.6109
12.4767
12.3683
12.2813
12.2118
18.1
17.9111
17.5917
17.1838
16.721
16.2311
15.737
15.2566
14.8031
14.3858
14.0103
13.6792
13.3923
13.1478
12.9423
12.7717
12.6314
12.5168
12.4232
12.3467
18.3779
18.2084
17.8968
17.4885
17.0198
16.5208
16.0158
15.5237
15.0588
14.6307
14.2451
13.9046
13.6092
13.3568
13.1439
12.9661
12.8185
12.6964
12.5949
12.5097
18.6915
18.5465
18.2465
17.8401
17.3668
16.8592
16.3435
15.8398
15.363
14.9234
14.5271
14.1766
13.8718
13.6106
13.3891
13.2028
13.0466
12.9154
12.8042
12.7084
19.048
18.9342
18.6503
18.2488
17.773
17.2581
16.7322
16.2171
15.7285
15.2771
14.8695
14.5083
14.1932
13.922
13.6907
13.4944
13.3278
13.1854
13.062
12.9529
19.4559
19.3819
19.1205
18.7285
18.2532
17.7331
17.1985
16.6727
16.1726
15.7096
15.2903
14.9177
14.5915
14.3091
14.0663
13.8579
13.6784
13.5219
13.3831
13.2569
19.9261
19.9034
19.6732
19.2971
18.8272
18.3054
17.7647
17.2301
16.7196
16.2455
15.8148
15.4305
15.0921
14.797
14.5407
14.3177
14.122
13.9476
13.7887
13.64
20.4733
20.5167
20.33
19.9793
19.5221
19.0044
18.4619
17.9219
17.4037
16.9202
16.4789
16.083
15.7318
15.4224
15.15
14.9088
14.6924
14.4945
14.309
14.1304
21.1196
21.2441
21.1198
20.8087
20.3753
19.8706
19.3339
18.7944
18.2732
17.7839
17.3344
16.9279
16.5637
16.2383
15.9467
15.6827
15.4393
15.21
14.9884
14.7688
21.8894
22.1234
22.0844
21.8322
21.4391
20.9615
20.4422
19.9134
19.3974
18.9089
18.4561
18.0419
17.6654
17.3227
17.0082
16.715
16.4359
16.164
15.8926
15.6159
22.8167
23.1986
23.2779
23.1136
22.7857
22.3565
21.8735
21.3716
20.8749
20.3988
19.9515
19.5358
19.15
18.7895
18.4479
18.1176
17.7909
17.4604
17.1193
16.7617
23.9466
24.5376
24.7704
24.7398
24.5142
24.166
23.7483
23.299
22.8441
22.3996
21.9736
21.5678
21.1796
20.8031
20.4305
20.0534
19.6633
19.2521
18.813
18.3402
25.3419
26.226
26.6768
26.8326
26.7604
26.5402
26.2305
25.8728
25.4947
25.1124
24.7331
24.3573
23.9802
23.5939
23.1887
22.7544
22.2812
21.7602
21.1843
20.548
27.0832
28.3707
29.1439
29.5413
29.7012
29.6766
29.5361
29.3261
29.0756
28.8007
28.5073
28.1932
27.8508
27.4688
27.0344
26.5345
25.9568
25.291
24.5287
23.6645
29.286
31.1166
32.3504
33.1116
33.5614
33.8266
33.9351
33.9491
33.8944
33.788
33.6346
33.4283
33.157
32.8049
32.3542
31.7872
31.0874
30.2407
29.2361
28.0662
32.0946
34.6608
36.5158
37.8017
38.6895
39.2932
39.7358
40.0796
40.2997
40.4328
40.487
40.4466
40.2955
40.0117
39.5713
38.9494
38.1227
37.0697
35.7725
34.2178
35.689
39.2357
41.9185
43.8966
45.3732
46.5034
47.3916
48.0947
48.6435
49.0733
49.4197
49.6045
49.6294
49.4624
49.0726
48.4266
47.491
46.2319
44.6177
42.6206
40.2901
45.1141
48.864
51.7233
53.9407
55.7011
57.1321
58.3178
59.3069
60.1122
60.7303
61.1628
61.4239
61.4223
61.1308
60.5079
59.508
58.079
56.1676
53.7192
46.1604
52.6042
57.6824
61.6152
64.7158
67.2156
69.2749
70.9996
72.4506
73.6571
74.6276
75.3552
75.8274
76.0288
75.8761
75.3297
74.3295
72.7993
70.6567
67.8083
53.5998
62.0341
68.7013
73.8823
77.9812
81.2951
84.0281
86.3167
88.2458
89.8643
91.1904
92.2224
92.945
93.333
93.3395
92.9216
91.9946
90.4481
88.1686
85.0166
62.9327
73.7295
82.2213
88.7901
93.9647
98.1305
101.551
104.405
106.807
108.825
110.495
111.826
112.805
113.397
113.567
113.307
112.521
111.043
108.725
105.38
74.4927
87.9963
98.5067
106.562
112.854
117.879
121.976
125.376
128.227
130.626
132.626
134.249
135.49
136.319
136.684
136.573
135.969
134.639
132.374
128.944
88.5958
105.099
117.773
127.375
134.799
140.672
145.418
149.33
152.597
155.35
157.662
159.571
161.08
162.16
162.748
162.825
162.424
161.314
159.198
155.788
105.523
125.254
140.189
151.368
159.914
166.602
171.952
176.323
179.957
183.02
185.614
187.797
189.582
190.951
191.842
192.168
191.932
191.108
189.249
185.982
125.496
148.614
165.865
178.615
188.242
195.678
201.548
206.29
210.202
213.496
216.309
218.727
220.78
222.452
223.674
224.33
224.388
223.884
222.405
219.459
148.673
175.269
194.837
209.101
219.71
227.76
233.998
238.947
242.977
246.355
249.266
251.83
254.103
256.083
257.707
258.863
259.381
259.203
258.252
255.871
175.134
205.213
227.021
242.656
254.044
262.465
268.799
273.671
277.539
280.743
283.528
286.064
288.442
290.685
292.739
294.492
295.749
296.255
295.877
294.388
204.871
238.323
262.166
278.879
290.68
299.05
305.023
309.353
312.604
315.211
317.499
319.705
321.969
324.353
326.824
329.272
331.472
333.092
333.813
333.544
237.763
274.308
299.781
317.052
328.65
336.286
341.184
344.251
346.188
347.552
348.776
350.177
351.962
354.252
357.059
360.298
363.752
367.097
369.869
371.448
273.569
312.673
339.077
356.053
366.478
372.341
375.106
375.871
375.495
374.684
374.059
373.981
374.736
376.537
379.48
383.524
388.438
393.867
399.27
404.083
311.914
352.695
378.913
394.282
402.084
404.666
403.853
400.953
396.922
392.579
388.543
385.647
384.46
385.212
387.967
392.715
399.392
407.738
417.166
426.566
352.316
393.425
417.791
429.616
432.818
430.317
423.841
414.891
405.278
396.724
389.48
384.155
381.172
380.838
383.149
388.225
396.089
406.56
419.175
433.103
394.239
433.727
453.754
459.503
455.768
444.98
430.305
415.024
399.616
384.964
372.649
363.22
357.091
354.601
355.925
361.169
370.575
384.157
401.777
423.115
437.196
472.149
484.592
481.306
466.373
445.6
421.678
396.344
372.478
351.277
333.587
319.961
310.748
306.217
306.434
311.301
321.629
337.832
360.122
388.404
480.743
507.114
508.251
490.253
461.684
426.501
389.752
354.471
322.693
295.561
273.601
256.979
245.687
239.762
239.168
243.583
254.269
272.309
298.733
334.402
524.558
537.744
520.86
483.902
435.284
383.622
334.097
289.931
252.644
222.599
199.458
182.628
171.523
165.815
165.301
169.633
180.421
199.596
229.448
272.926
569.502
562.794
518.885
454.272
383.107
315.186
256.157
208.245
171.276
143.911
124.456
111.346
103.401
100.013
100.856
106.042
117.671
138.543
172.5
228.61
617.64
575.214
493.403
395.996
302.959
225.244
166.041
124.086
95.6331
77.0097
65.4933
58.8587
55.7916
55.8937
58.9855
66.0256
79.2335
102.661
146.439
222.257
668.027
569.618
434.623
304.463
201.919
131.398
86.4401
60.7256
46.6948
39.2181
35.3385
33.5631
33.5356
35.2082
39.122
46.7817
61.3853
90.5476
149.074
274.958
696.643
515.061
326.997
187.344
101.755
59.344
40.3802
31.3221
26.6742
24.2362
23.1017
22.9274
23.6433
25.4985
29.3015
36.8735
52.8168
90.5261
183.387
412.494
678.723
386.236
178.086
81.5868
45.9251
31.4096
24.7115
21.3395
19.5541
18.6172
18.2223
18.2888
18.9153
20.4619
23.7325
30.7393
47.2872
92.9203
240.907
642.457
540.454
202.588
82.7901
42.9954
28.2361
21.995
19.0364
17.5064
16.6822
16.2451
16.064
16.1127
16.4903
17.5071
19.9296
25.6157
40.6225
88.3305
266.244
786.482
472.104
139.063
52.7902
29.374
21.4274
18.1532
16.6266
15.8413
15.4394
15.2386
15.16
15.1891
15.3968
15.971
17.3539
20.981
31.562
68.6274
226.085
815.582
491.483
104.804
36.4146
21.7194
17.3909
15.8492
15.2635
15.0318
14.9287
14.8733
14.8506
14.8551
14.9139
15.097
15.6923
17.4364
22.9216
42.604
133.312
572.408
237.558
39.2728
18.4853
15.5694
15.0843
14.9825
14.9119
14.8625
14.832
14.8136
14.8068
14.8106
14.8363
14.9151
15.168
15.9812
18.6152
27.9943
67.5325
261.582
11.6217
11.5846
11.5394
11.4961
11.4553
11.4175
11.3834
11.3535
11.3284
11.3087
11.2947
11.2865
11.2843
11.2878
11.297
11.3114
11.3305
11.354
11.3816
11.4134
11.6391
11.6013
11.556
11.5125
11.4716
11.4337
11.3994
11.3693
11.344
11.324
11.3097
11.3014
11.299
11.3025
11.3122
11.327
11.3464
11.37
11.3974
11.4288
11.6506
11.6128
11.5674
11.524
11.4831
11.4453
11.411
11.381
11.3556
11.3353
11.3206
11.3116
11.3085
11.3115
11.3208
11.3359
11.355
11.3781
11.4051
11.436
11.6601
11.6223
11.5771
11.534
11.4933
11.4557
11.4218
11.3922
11.3671
11.3466
11.3312
11.3208
11.3162
11.3175
11.3248
11.3384
11.3563
11.3786
11.4051
11.4357
11.669
11.6314
11.5864
11.5437
11.5037
11.4663
11.432
11.4016
11.3754
11.3541
11.3377
11.3265
11.3212
11.3214
11.3269
11.3375
11.354
11.3754
11.4016
11.4321
11.6782
11.6404
11.5952
11.5519
11.5109
11.4725
11.4369
11.4052
11.3781
11.356
11.339
11.3271
11.3213
11.3214
11.3272
11.3378
11.3548
11.3755
11.4014
11.4317
11.683
11.644
11.598
11.5538
11.5122
11.473
11.4363
11.4039
11.3769
11.3551
11.3378
11.3248
11.3186
11.3192
11.3263
11.3387
11.3555
11.3766
11.4029
11.4333
11.6833
11.6439
11.5977
11.553
11.5109
11.4721
11.4353
11.4033
11.3763
11.354
11.3368
11.3247
11.3191
11.3196
11.3267
11.3385
11.3542
11.3766
11.4029
11.4332
11.6828
11.6441
11.598
11.5528
11.5099
11.4713
11.4354
11.4033
11.3756
11.3525
11.3367
11.3262
11.3208
11.3211
11.3272
11.3383
11.3544
11.3761
11.4025
11.4331
11.683
11.6427
11.5968
11.5524
11.5108
11.4713
11.4353
11.4033
11.3761
11.3539
11.3375
11.3265
11.3215
11.3221
11.3284
11.3396
11.3572
11.3803
11.4082
11.4393
11.6839
11.6435
11.5969
11.5533
11.5117
11.4731
11.4373
11.4054
11.3781
11.3559
11.3385
11.3279
11.3234
11.3243
11.3311
11.3437
11.3619
11.3852
11.4121
11.4424
11.6865
11.6456
11.599
11.5546
11.5127
11.4738
11.4376
11.4055
11.3783
11.3564
11.3398
11.3297
11.3258
11.3278
11.3354
11.3485
11.3661
11.3875
11.4128
11.4428
11.6886
11.6485
11.602
11.5562
11.5129
11.4724
11.4358
11.4036
11.3764
11.3547
11.3387
11.3293
11.3259
11.3283
11.3362
11.3501
11.3675
11.3879
11.4133
11.4429
11.6893
11.65
11.6027
11.5558
11.512
11.4719
11.4358
11.4038
11.3766
11.3546
11.3394
11.3297
11.3257
11.3268
11.3349
11.349
11.3665
11.3876
11.412
11.4417
11.689
11.65
11.6026
11.5562
11.5127
11.4739
11.4381
11.4063
11.3791
11.3568
11.3405
11.3304
11.3265
11.3287
11.3367
11.35
11.3678
11.3898
11.4157
11.4456
11.6901
11.6495
11.6011
11.5542
11.5119
11.4727
11.4374
11.4061
11.3793
11.3574
11.3422
11.3336
11.3309
11.3341
11.343
11.357
11.3756
11.398
11.4241
11.4537
11.689
11.6477
11.5995
11.5537
11.5113
11.4723
11.4366
11.4054
11.3787
11.3569
11.3424
11.3349
11.3328
11.3364
11.3458
11.3604
11.38
11.4027
11.4281
11.4574
11.6872
11.6464
11.5996
11.5538
11.5119
11.4727
11.4357
11.4039
11.3769
11.3562
11.342
11.3341
11.3325
11.3363
11.346
11.361
11.3811
11.4038
11.4289
11.4583
11.6884
11.6475
11.5998
11.5544
11.5118
11.4727
11.4361
11.403
11.3761
11.3555
11.3416
11.3349
11.3331
11.3369
11.3464
11.3611
11.3804
11.4034
11.4298
11.4597
11.6922
11.6518
11.6044
11.5592
11.5165
11.4767
11.4404
11.4084
11.3815
11.3603
11.3455
11.3371
11.3346
11.3379
11.347
11.3616
11.3811
11.4051
11.4324
11.463
11.6978
11.6579
11.6116
11.5675
11.5257
11.4865
11.4503
11.4178
11.39
11.3681
11.3526
11.3435
11.3405
11.3432
11.3518
11.3657
11.3846
11.4081
11.4351
11.4656
11.7032
11.6632
11.6169
11.5734
11.5322
11.4936
11.4579
11.4259
11.3986
11.377
11.3611
11.3515
11.348
11.3502
11.3581
11.3707
11.388
11.4098
11.4361
11.4659
11.7079
11.6668
11.6194
11.5751
11.5336
11.4954
11.4601
11.4288
11.4022
11.3819
11.3671
11.3583
11.3552
11.3575
11.3653
11.3776
11.3942
11.4145
11.4384
11.4658
11.7127
11.6705
11.6217
11.5755
11.5327
11.4939
11.4582
11.4272
11.4014
11.3821
11.368
11.3599
11.3572
11.3598
11.3679
11.3809
11.3976
11.4171
11.4387
11.4658
11.7186
11.6754
11.6255
11.5782
11.534
11.4932
11.4568
11.4257
11.401
11.3812
11.3677
11.3598
11.3573
11.36
11.3683
11.3812
11.3973
11.4171
11.4398
11.4673
11.7256
11.6816
11.6308
11.5825
11.5374
11.496
11.459
11.4272
11.4013
11.3823
11.3686
11.3607
11.3582
11.3609
11.369
11.3816
11.3977
11.4187
11.4437
11.4721
11.7339
11.6892
11.6378
11.5887
11.5429
11.5008
11.4634
11.4311
11.4046
11.3843
11.3702
11.3624
11.3602
11.3633
11.3719
11.3854
11.4034
11.4252
11.4506
11.4792
11.7432
11.6981
11.6462
11.5967
11.5504
11.508
11.4703
11.4379
11.4113
11.3909
11.3769
11.3693
11.3673
11.3707
11.3796
11.3935
11.4117
11.4337
11.4591
11.4876
11.7535
11.7079
11.6556
11.6057
11.559
11.5163
11.4784
11.4458
11.4192
11.3988
11.385
11.3775
11.3757
11.3794
11.3886
11.4027
11.4211
11.4432
11.4686
11.4968
11.7648
11.7187
11.666
11.6156
11.5685
11.5254
11.4872
11.4544
11.4277
11.4073
11.3936
11.3864
11.3848
11.3887
11.3982
11.4126
11.4312
11.4534
11.4787
11.5067
11.7774
11.7309
11.6777
11.6269
11.5793
11.5357
11.4971
11.464
11.4371
11.4167
11.4031
11.396
11.3946
11.3988
11.4085
11.4231
11.4419
11.4642
11.4894
11.5173
11.7919
11.7449
11.6913
11.6399
11.5918
11.5478
11.5088
11.4754
11.4482
11.4277
11.4141
11.407
11.4057
11.41
11.4199
11.4347
11.4535
11.4758
11.501
11.5286
11.8084
11.7611
11.707
11.6552
11.6067
11.5622
11.5227
11.489
11.4616
11.441
11.4272
11.4202
11.4189
11.4232
11.4331
11.4479
11.4666
11.4888
11.5137
11.541
11.8275
11.7797
11.7254
11.6732
11.6241
11.5792
11.5394
11.5054
11.4778
11.457
11.4431
11.4361
11.4348
11.4391
11.449
11.4637
11.4823
11.5042
11.5287
11.5555
11.8493
11.8013
11.7466
11.694
11.6446
11.5993
11.5591
11.5248
11.497
11.4761
11.4623
11.4552
11.454
11.4583
11.4683
11.4829
11.5013
11.5229
11.5471
11.5732
11.8745
11.8262
11.7713
11.7184
11.6686
11.6229
11.5824
11.5478
11.5199
11.4989
11.485
11.478
11.4769
11.4814
11.4913
11.5059
11.5242
11.5456
11.5692
11.5946
11.9036
11.8551
11.8001
11.7468
11.6966
11.6506
11.6097
11.5749
11.5468
11.5258
11.5119
11.505
11.5039
11.5086
11.5186
11.5332
11.5514
11.5723
11.5954
11.6199
11.9373
11.8887
11.8335
11.78
11.7295
11.6831
11.642
11.6069
11.5786
11.5575
11.5437
11.5368
11.5359
11.5406
11.5507
11.5652
11.5831
11.6036
11.626
11.6496
11.9762
11.9276
11.8725
11.8188
11.768
11.7213
11.6799
11.6446
11.6161
11.5949
11.5811
11.5742
11.5733
11.5781
11.5882
11.6026
11.6202
11.6401
11.6616
11.6839
12.0213
11.9728
11.9178
11.8641
11.813
11.7661
11.7243
11.6888
11.6602
11.6389
11.6249
11.6179
11.617
11.622
11.632
11.6461
11.6632
11.6824
11.7029
11.7238
12.0732
12.0251
11.9704
11.9167
11.8656
11.8183
11.7764
11.7406
11.7118
11.6904
11.6763
11.6693
11.6683
11.6732
11.683
11.6968
11.7133
11.7316
11.7507
11.77
12.1332
12.0856
12.0315
11.9779
11.9267
11.8794
11.8372
11.8012
11.7722
11.7506
11.7365
11.7293
11.7282
11.733
11.7425
11.7557
11.7714
11.7886
11.8063
11.8236
12.2025
12.1557
12.1023
12.0492
11.998
11.9506
11.9082
11.872
11.8429
11.8211
11.8068
11.7995
11.7982
11.8027
11.8118
11.8243
11.8391
11.855
11.8708
11.8858
12.2828
12.2371
12.1849
12.1323
12.0814
12.034
11.9915
11.9551
11.9258
11.9038
11.8893
11.8818
11.8803
11.8844
11.8929
11.9046
11.9181
11.9324
11.9461
11.9583
12.3763
12.3321
12.2813
12.2297
12.1792
12.132
12.0894
12.053
12.0234
12.0012
11.9864
11.9787
11.9769
11.9804
11.9881
11.9987
12.0108
12.023
12.0341
12.0431
12.4855
12.4434
12.3947
12.3444
12.2947
12.2478
12.2053
12.1688
12.1391
12.1166
12.1014
12.0933
12.091
12.0938
12.1005
12.1097
12.1199
12.1297
12.1376
12.1426
12.6138
12.5745
12.5287
12.4803
12.4318
12.3855
12.3434
12.3069
12.277
12.2542
12.2385
12.2298
12.2268
12.2287
12.234
12.2414
12.2491
12.2558
12.2598
12.2599
12.7656
12.7303
12.6883
12.6426
12.5959
12.5507
12.5092
12.4729
12.4428
12.4197
12.4034
12.3938
12.3898
12.3903
12.3938
12.3987
12.4033
12.406
12.4051
12.3992
12.9468
12.9168
12.8802
12.8383
12.7942
12.7508
12.7102
12.6744
12.6443
12.6207
12.6036
12.5927
12.5873
12.5859
12.5867
12.5883
12.5887
12.5863
12.5791
12.5656
13.1649
13.1424
13.1132
13.0768
13.0367
12.9959
12.957
12.9219
12.892
12.8679
12.8497
12.8371
12.8294
12.8252
12.8224
12.8193
12.8141
12.8049
12.7896
12.7663
13.4306
13.4185
13.3998
13.3714
13.337
13.3003
13.2641
13.2305
13.2009
13.1763
13.1566
13.1415
13.1303
13.1219
13.1139
13.1045
13.0917
13.0732
13.0468
13.0107
13.7577
13.7612
13.7577
13.7409
13.7153
13.6848
13.6528
13.6215
13.5928
13.5674
13.5458
13.5275
13.5117
13.4969
13.481
13.4622
13.4382
13.4067
13.3654
13.3119
14.1705
14.1951
14.2129
14.2132
14.2006
14.1797
14.1541
14.1267
14.0993
14.073
14.0483
14.0249
14.0018
13.9776
13.9503
13.9179
13.878
13.8282
13.7658
13.6887
14.703
14.7559
14.8023
14.8292
14.8365
14.8301
14.8147
14.7933
14.7682
14.7408
14.7114
14.6801
14.6459
14.6075
14.563
14.5103
14.447
14.3706
14.2784
14.1678
15.404
15.5016
15.5926
15.6509
15.6888
15.704
15.7045
15.6929
15.6716
15.6424
15.606
15.5625
15.5112
15.4512
15.3804
15.2972
15.199
15.0834
14.9477
14.789
16.3474
16.5133
16.6745
16.7856
16.856
16.9015
16.9292
16.9332
16.9184
16.8869
16.8398
16.7776
16.7001
16.6066
16.4956
16.3658
16.2148
16.0406
15.8403
15.6111
17.6403
17.9111
18.1789
18.3749
18.5104
18.595
18.6453
18.675
18.6706
18.6364
18.5735
18.483
18.3653
18.2205
18.048
17.847
17.6159
17.3532
17.0562
16.7223
19.4462
19.8756
20.3039
20.6269
20.8588
21.0122
21.0993
21.1442
21.1615
21.1258
21.0406
20.9081
20.7302
20.5082
20.2428
19.9344
19.5825
19.1864
18.7443
18.2542
21.9955
22.6607
23.3258
23.8355
24.2083
24.4617
24.6099
24.6752
24.7021
24.6768
24.5614
24.3693
24.1045
23.7704
23.3692
22.9028
22.3724
21.7787
21.1214
20.3996
25.6016
26.6044
27.6047
28.3754
28.9431
29.3339
29.5722
29.6836
29.7153
29.6907
29.5339
29.2622
28.8805
28.3935
27.8045
27.1172
26.3342
25.458
24.4901
23.4314
30.6534
32.1122
33.5562
34.6642
35.4763
36.031
36.3617
36.5163
36.5813
36.5691
36.3696
36.0064
35.485
34.8098
33.9842
33.0118
31.8955
30.6389
29.2444
27.7151
37.5736
39.5992
41.5772
43.0758
44.1608
44.8934
45.3257
45.5254
45.6138
45.6211
45.3859
44.9365
44.2751
43.4017
42.3164
41.0184
39.5066
37.7815
35.8441
33.6972
46.7355
49.3922
51.9372
53.8243
55.1609
56.0423
56.5498
56.7793
56.8804
56.9195
56.6743
56.1749
55.4126
54.3777
53.0623
51.4541
49.5391
47.3058
44.7464
41.8567
58.3759
61.6525
64.7177
66.9201
68.4318
69.3924
69.9027
70.0985
70.2239
70.2978
70.0831
69.6031
68.8214
67.7111
66.2608
64.4366
62.194
59.4952
56.3127
52.6218
72.5842
76.4043
79.8831
82.2587
83.8207
84.7892
85.2906
85.4833
85.6208
85.715
85.528
85.0591
84.2951
83.2139
81.7794
79.9206
77.5121
74.4758
70.7619
66.3036
89.4146
93.6832
97.4982
100.161
101.973
103.134
103.774
104.041
104.141
104.191
104.121
103.655
102.845
101.671
100.1
98.0774
95.5257
92.3156
88.2358
83.1162
109.084
113.911
118.336
121.469
123.635
125.061
125.924
126.409
126.55
126.517
126.467
125.998
125.15
123.888
122.166
119.919
117.064
113.477
108.988
103.32
132.112
137.78
143.011
146.756
149.392
151.188
152.34
153.009
153.251
153.28
153.279
152.833
151.945
150.581
148.693
146.199
142.991
138.928
133.821
127.385
159.08
165.83
172.09
176.638
179.918
182.231
183.768
184.691
185.163
185.265
185.283
185.017
184.123
182.65
180.557
177.76
174.137
169.515
163.668
156.258
190.412
198.538
206.1
211.667
215.787
218.795
220.896
222.227
223.046
223.526
223.562
223.381
222.484
220.914
218.617
215.492
211.393
206.123
199.406
190.831
226.879
236.425
245.449
252.26
257.439
261.367
264.288
266.336
267.614
268.299
268.604
268.591
267.757
266.144
263.678
260.24
255.638
249.63
241.899
231.968
270.028
281.238
291.898
300.019
306.271
311.099
314.791
317.518
319.368
320.422
320.974
321.195
320.542
318.992
316.446
312.765
307.75
301.118
292.467
281.219
321.447
334.661
347.295
357.001
364.556
370.477
375.103
378.642
381.21
382.871
383.745
384.094
383.791
382.395
379.86
376.019
370.627
363.342
353.673
340.917
382.992
398.579
413.557
425.147
434.254
441.485
447.244
451.775
455.222
457.658
459.132
459.831
459.863
458.7
456.283
452.372
446.662
438.735
427.985
413.553
456.887
475.231
492.932
506.71
517.621
526.384
533.477
539.198
543.716
547.106
549.383
550.705
551.211
550.43
548.316
544.512
538.634
530.161
518.345
502.133
545.755
567.218
588.004
604.248
617.19
627.684
636.302
643.405
649.203
653.792
657.189
659.432
660.546
660.384
658.814
655.44
649.672
640.881
628.14
610.156
652.628
677.499
701.653
720.565
735.697
748.063
758.354
767.012
774.297
780.335
785.146
788.697
790.882
791.607
790.864
788.373
783.185
774.497
761.174
741.622
780.9
809.296
836.931
858.552
875.886
890.144
902.162
912.485
921.442
929.199
935.782
941.134
945.083
947.337
947.756
946.499
942.591
934.713
921.455
900.852
934.174
965.901
996.813
1020.89
1040.18
1056.12
1069.74
1081.7
1092.43
1102.15
1110.9
1118.62
1125.07
1129.9
1132.53
1132.81
1130.88
1124.96
1112.87
1092.22
1115.94
1150.29
1183.74
1209.54
1230.09
1247.14
1261.91
1275.25
1287.69
1299.53
1310.85
1321.57
1331.43
1340
1346.56
1350.2
1350.52
1347.63
1338.49
1319.54
1329.02
1364.45
1398.89
1424.93
1445.41
1462.4
1477.4
1491.45
1505.23
1519.15
1533.34
1547.75
1562.07
1575.8
1588.08
1597.8
1603.41
1604.12
1599.65
1585.13
1574.55
1608.34
1641.03
1664.77
1682.89
1697.84
1711.44
1724.95
1739.24
1754.85
1772
1790.68
1810.56
1831.09
1851.29
1869.86
1884.92
1894.09
1895.61
1888.41
1850.54
1878.33
1904.89
1922.37
1934.59
1944.43
1954.07
1965.03
1978.37
1994.77
2014.55
2037.8
2064.22
2093.24
2123.83
2154.54
2183.2
2207.01
2221.99
2224.75
2149.64
2165.01
2179.1
2184.68
2185.91
2186.19
2188.23
2193.77
2203.92
2219.5
2241.01
2268.6
2302.09
2341.01
2384.38
2430.74
2477.74
2522.26
2559.68
2583.79
2457.28
2450.73
2443.51
2430.3
2413.53
2398.04
2387.89
2384.6
2388.53
2400.96
2422.49
2453.38
2493.58
2542.89
2600.79
2665.89
2735.89
2807.72
2876.18
2934.21
2753.98
2714.53
2673.37
2628.68
2585.74
2548.18
2519.4
2502.51
2496.41
2501.95
2520.13
2551.89