/*--------------------------------*- C++ -*----------------------------------*\
  =========                 |
  \\      /  F ield         | OpenFOAM: The Open Source CFD Toolbox
   \\    /   O peration     | Website:  https://openfoam.org
    \\  /    A nd           | Version:  6
     \\/     M anipulation  |
\*---------------------------------------------------------------------------*/
FoamFile
{
    version     2.0;
    format      ascii;
    class       volScalarField;
    location    "16";
    object      epsilon;
}
// * * * * * * * * * * * * * * * * * * * * * * * * * * * * * * * * * * * * * //

dimensions      [0 2 -3 0 0 0 0];

internalField   nonuniform List<scalar> 
10000
(
252.825
342.094
206.118
124.408
79.1303
55.8266
43.4503
36.675
33.0327
31.5198
31.6728
33.5266
37.5527
44.853
57.6885
80.6408
123.711
203.333
336.017
254.989
250.445
341.89
206.012
124.475
78.2645
55.3464
43.2169
36.647
32.94
31.4865
31.646
33.5019
37.5379
44.8567
57.6789
80.0654
121.741
201.136
334.2
254.258
252.089
342.19
204.659
124.672
79.3281
55.9895
43.5774
36.7128
33.0345
31.4753
31.6201
33.4837
37.551
44.924
57.8756
80.9853
123.812
203.801
336.741
254.044
252.312
342.716
207.758
124.771
78.5063
55.874
43.579
36.7099
33.0119
31.3481
31.468
33.3116
37.5145
44.9179
57.87
80.8206
124.005
201.464
336.46
253.382
254.699
342.607
207.477
124.659
79.4032
55.5231
43.5323
36.6805
33.0003
31.4421
31.597
33.4751
37.5174
44.8979
57.9006
79.646
122.621
204.443
335.671
253.316
253.995
340.09
207.077
124.11
78.4728
55.6822
43.5717
36.6857
32.9753
31.3167
31.5362
33.4139
37.4229
44.5179
58.0489
81.3239
125.117
204.195
337.771
253.145
253.509
340.384
206.698
122.436
79.2816
56.0712
43.5833
36.669
32.9715
31.365
31.3824
33.2286
37.25
44.6773
58.037
80.4143
124.689
201.098
337.639
252.286
252.74
340.596
206.35
124.843
78.7293
55.6963
43.5316
36.6195
32.8557
31.2469
31.389
33.352
37.4239
44.8631
58.1957
82.0101
123.983
204.272
337.9
253.577
251.212
341.669
203.932
124.721
80.0152
56.3811
43.5427
36.5899
32.9522
31.2914
31.3557
33.1932
37.341
44.4502
57.9612
82.0736
126.152
206.527
338.162
255.236
253.125
340.419
207.303
124.543
79.9535
56.3889
43.3048
36.3999
32.9287
31.276
31.3433
33.239
37.3141
44.4505
57.2683
81.0339
124.528
205.888
336.327
256.883
250.907
342.689
206.851
122.423
78.9412
56.3818
43.6569
36.504
32.9586
31.3527
31.3407
33.1846
37.3005
44.6226
57.4387
81.883
126.041
204.068
338.704
258.131
251.691
342.305
206.343
123.842
80.2176
56.4955
43.6832
36.6185
32.9722
31.3674
31.3603
33.2398
37.0757
44.5493
57.21
81.4393
125.728
205.625
336.585
257.318
252.759
342.045
204.321
122.242
80.2198
56.4952
43.6737
36.6699
32.9639
31.3665
31.437
33.2365
37.1404
44.491
56.9917
80.1863
123.653
204.687
336.286
254.43
252.843
341.547
206.557
123.515
80.3202
56.4309
43.5983
36.5042
32.9358
31.3526
31.3293
33.1619
37.2515
44.4802
57.1513
80.7908
124.461
202.542
336.477
253.515
251.095
339.402
205.988
125.437
80.3971
56.3215
43.5686
36.6229
32.923
31.3341
31.4338
33.2474
37.2031
44.1986
57.4453
81.3305
125.088
202.862
334.12
251.429
251.746
339.816
203.732
125.316
80.2536
55.8222
43.2437
36.5762
32.8803
31.1809
31.2521
33.0403
37.0127
44.3924
56.8853
81.1247
124.708
202.49
335.684
250.52
251.708
339.502
205.496
125.593
80.2234
56.3941
43.4745
36.5176
32.8016
31.1925
31.2573
33.0687
37.116
44.3927
57.3207
80.8123
123.25
202.639
334.163
250.436
252.648
339.633
207.394
125.674
80.0083
56.3393
43.7062
36.6985
32.9185
31.2483
31.2568
33.0346
36.8781
43.9644
56.6545
79.9308
123.949
204.024
335.871
251.506
251.671
339.62
207.498
125.697
78.9428
55.7593
43.6684
36.7196
32.9362
31.2239
31.3109
33.1228
36.9735
44.1061
56.8968
80.3436
124.648
206.208
334.867
251.626
253.853
340.46
207.347
125.716
80.2519
56.406
43.7031
36.7274
32.9442
31.1677
31.1928
33.1006
36.9997
44.2083
57.0811
80.7
125.827
206.213
337.628
253.813
252.539
341.837
206.895
125.41
80.275
55.888
43.6217
36.739
32.9743
31.3017
31.2792
33.0412
37.1638
44.4779
57.5069
81.3364
125.442
205.649
337.413
253.858
254.289
341.396
204.249
123.764
79.4024
56.0953
43.4214
36.7095
32.9619
31.2388
31.409
33.2126
37.1444
44.4099
57.3483
81.0915
123.558
203.453
337.113
254.034
254.371
341.007
206.849
126.002
80.5085
55.6877
43.6394
36.7253
32.9582
31.3119
31.4218
33.2015
36.9265
44.0498
56.6276
80.4142
124.632
205.634
336.782
253.811
252.766
340.386
204.521
125.752
80.3751
56.1989
43.5995
36.6173
32.8206
31.1801
31.3788
33.2399
37.1407
44.4092
57.1173
81.3737
125.565
205.238
336.651
253.678
254.672
338.688
207.209
125.724
79.3361
56.6446
44.0232
36.9163
33.0186
31.2577
31.3301
33.2332
36.9564
44.332
57.5612
81.1996
125.13
203.054
335.207
255.472
254.626
339.782
205.641
125.045
79.5257
56.6031
44.0248
36.8279
33.0626
31.3647
31.4092
33.3066
37.2228
44.507
57.5193
80.104
123.504
204.324
336.669
256.676
253.574
341.143
208.02
125.855
79.8025
56.3053
43.9907
36.9965
33.2034
31.5287
31.4891
33.3161
37.1727
44.2131
57.4833
80.9799
124.738
202.566
337.625
256.58
253.26
341.105
207.761
125.391
80.3735
57.0806
43.8713
36.8648
33.0999
31.5312
31.5922
33.3387
37.0687
44.4956
57.1176
79.8258
123.18
203.272
336.668
257.04
254.088
340.836
206.983
123.573
79.0501
57.063
44.1552
37.0839
33.2405
31.4652
31.5688
33.3569
37.3188
44.5438
57.4749
80.8362
124.721
205.079
337.891
256.167
255.503
339.365
204.795
124.842
80.2737
57.2622
44.0089
36.9651
33.1592
31.5623
31.5065
33.201
37.2558
44.3
57.2622
79.5604
122.512
202.566
337.258
254.903
255.339
342.345
205.87
126.239
81.2054
57.4063
44.3345
37.1689
33.2981
31.5914
31.5861
33.3018
37.2572
44.2616
57.2558
79.9268
123.162
204.016
335.403
255.557
257.824
340.713
206.109
126.262
81.4147
57.3403
44.05
36.9201
33.116
31.5278
31.5387
33.1454
37.236
44.454
57.1716
80.0554
123.303
202.857
336.413
254.427
258.879
342.009
207.679
125.958
81.1867
57.2649
44.2416
36.9869
33.1482
31.5078
31.5398
33.2841
37.2212
44.3656
56.7212
80.8717
124.333
202.471
334.284
255.212
257.321
339.752
207.26
125.428
80.8333
57.0254
43.9413
37.0216
33.1772
31.3926
31.3918
33.1022
37.0008
44.1353
57.2216
80.6808
122.736
204.169
336.435
254.799
258.085
340.327
206.609
123.317
79.6133
56.7648
44.0918
37.0199
33.1659
31.4757
31.4968
33.2254
37.2029
44.4108
56.7535
79.9219
124.599
202.011
337.902
253.376
257.796
340.289
204.927
123.637
80.2851
56.3938
43.7913
36.9318
33.0253
31.4527
31.4915
33.0806
37.1693
44.4669
57.384
80.9203
124.484
202.9
337.655
253.686
256.694
341.091
206.541
123.875
79.5597
56.7887
44.0706
36.9384
33.1096
31.4555
31.5168
33.2249
36.9956
44.4008
57.2542
80.6804
123.096
203.961
337.372
254.079
256.395
340.39
205.952
124.781
80.3753
56.3915
43.7838
36.846
32.9778
31.342
31.5167
33.1423
37.1541
44.3388
57.0194
79.8212
125.194
201.264
336.866
254.127
255.071
337.716
203.157
122.829
79.1699
56.4957
43.9716
36.7328
33.1149
31.4961
31.5486
33.2826
37.1682
44.2561
56.5996
80.7252
125.358
203.606
335.584
252.997
253.658
338.477
204.071
124.434
79.7708
56.8564
43.8556
36.8165
33.067
31.4146
31.5179
33.2546
37.1243
44.0458
57.2349
79.8918
125.104
205.598
338.528
254.73
253.791
339.803
204.507
123.134
80.3155
56.8493
44.0227
36.9565
33.1523
31.4861
31.5043
33.2231
37.125
44.2869
57.2612
80.9337
123.647
203.24
338.27
254.582
255.104
339.887
206.174
123.872
80.1193
56.2634
43.6267
36.8513
32.9785
31.3371
31.3361
32.9976
36.865
43.899
57.0597
80.6284
125.186
205.504
338.201
254.418
253.93
339.188
205.547
122.893
79.0983
56.5098
43.7046
36.8337
32.9985
31.398
31.3998
33.0482
37.0318
44.1476
56.4693
79.6339
124.652
204.991
337.742
254.409
255.914
336.661
203.165
123.548
79.7579
56.4906
43.6718
36.6753
32.9552
31.371
31.3038
33.0311
36.9963
44.1067
56.7415
79.8845
123.015
202.634
337.13
254.128
256.328
338.605
205.506
124.933
80.4351
56.1605
43.7786
36.7629
32.9891
31.3103
31.4233
33.1196
36.9315
43.7397
56.1137
80.5112
124.256
204.144
335.537
253.659
254.083
335.851
204.87
124.626
80.3303
56.2104
43.6153
36.8661
33.0839
31.386
31.4249
33.0206
36.8187
43.9645
56.5605
80.3608
123.721
203.566
336.979
253.32
254.415
336.437
204.238
124.221
80.1534
56.5554
43.9411
36.9033
33.0799
31.2703
31.4272
33.1449
37.0048
44.1176
56.8978
80.0483
121.714
200.818
336.228
252.796
254.313
337.794
203.628
123.842
79.9318
56.2345
43.8856
36.8724
33.0778
31.362
31.4089
33.0714
36.7482
43.6727
56.3075
79.9119
122.939
202.264
334.793
251.926
252.446
337.023
200.743
123.246
79.6292
56.5026
43.8923
36.8515
33.068
31.3955
31.3856
32.9632
36.7682
43.7817
56.6523
79.5412
122.123
200.172
336.225
252.615
252.645
336.408
201.642
123.006
78.5949
56.3029
43.8167
36.7405
32.92
31.2613
31.2787
33.0325
36.7447
43.7042
56.5258
78.5316
120.925
202.328
335.929
252.547
253.054
334.359
202.38
122.644
79.3211
56.2508
43.7902
36.7023
33.0283
31.3671
31.3509
32.9423
36.724
43.6972
56.5077
79.5563
122.476
201.696
333.806
251.44
252.908
336.081
201.676
121.971
78.2571
55.81
43.748
36.8253
33.0328
31.3446
31.3484
33.0141
36.8018
43.7909
56.3522
79.2317
121.847
200.971
335.018
251.125
252.999
335.505
199.219
121.173
78.6409
56.0959
43.7538
36.8072
32.9829
31.2035
31.193
32.8375
36.5699
43.4289
56.0871
78.8802
121.206
198.422
334.047
251.339
252.662
334.687
199.992
119.48
78.2054
55.9232
43.6767
36.7724
32.8886
31.2609
31.2707
32.9604
36.746
43.6425
55.5677
78.4452
120.203
199.419
331.438
249.446
251.51
331.91
197.316
120.122
77.2835
55.6815
43.581
36.7576
32.9806
31.1694
31.1332
32.7797
36.532
43.5857
55.8728
78.1789
119.073
197.447
331.867
250.354
249.99
331.941
198.436
118.828
77.7124
55.5805
43.4607
36.6823
32.9474
31.2592
31.2269
32.8026
36.529
43.4842
55.3636
77.8409
118.968
198.959
331.972
251.078
249.664
331.218
197.452
119.003
77.3859
55.0021
43.0769
36.4547
32.7688
31.1031
31.0863
32.7406
36.4643
43.4134
55.4876
77.5559
118.492
198.178
332.951
251.211
250.235
331.741
196.429
118.175
76.3979
54.8953
43.0917
36.5402
32.8299
31.1416
31.122
32.7493
36.4465
43.3139
55.2536
77.1397
118.484
197.117
332.414
251.36
249.315
330.835
194.737
117.064
76.4832
54.9202
43.0234
36.5211
32.8034
31.1585
31.183
32.816
36.4807
43.1502
54.9186
75.9761
117.543
194.249
331.683
251.709
250.16
329.914
192.66
116.676
75.5438
54.3498
43.0183
36.4937
32.8697
31.2329
31.1006
32.6864
36.3972
42.8914
54.7003
76.116
115.851
194.207
330.642
251.263
249.547
328.997
193.246
116.037
75.757
54.5424
42.8363
36.3282
32.7468
31.2309
31.2123
32.7696
36.2399
42.7574
54.3776
75.1993
115.178
191.031
327.645
249.584
248.059
325.999
190.206
113.97
74.7066
54.3203
42.9435
36.459
32.8455
31.1381
31.1518
32.6293
36.1663
42.6079
54.125
74.7874
114.316
190.877
328.414
249.415
247.573
325.985
189.986
113.746
74.5921
53.8771
42.8058
36.2815
32.7186
31.1694
31.1307
32.5921
36.0549
42.3941
53.5927
74.088
113.37
189.776
325.688
249.401
246.872
322.393
188.462
112.787
74.119
53.8184
42.7392
36.3228
32.7683
31.1341
31.007
32.5178
35.9449
42.2319
53.2906
73.4191
112.236
188.537
326.728
249.117
246.052
321.7
185.459
110.686
73.0302
53.492
42.441
36.2041
32.6
31.063
31.0178
32.5052
35.8574
41.9872
52.8889
72.732
110.981
186.531
323.791
247.928
245.356
320.143
183.34
109.646
72.336
53.016
42.2781
36.1009
32.6242
30.9985
30.9483
32.4238
35.6889
41.8087
52.5442
72.0239
109.478
184.332
322.673
247.375
243.78
318.516
181.66
108.253
71.7657
52.7182
42.063
35.9631
32.3995
30.7394
30.7102
32.2092
35.5654
41.6186
52.2011
71.4364
108.421
182.785
321.868
246.125
243.028
316.855
179.762
107.203
71.1335
52.4006
41.8786
35.7364
32.2651
30.6523
30.6246
32.1088
35.4367
41.4281
51.8359
70.7076
107.185
180.719
319.995
244.731
242.033
315.037
177.542
105.808
70.4127
52.0355
41.6787
35.6053
32.1309
30.5142
30.4677
31.9275
35.1889
41.1341
51.4445
69.9759
105.665
178.129
316.682
243.236
241.172
313.283
175.456
104.142
69.5631
51.5728
41.4248
35.4138
31.9612
30.3288
30.2475
31.7117
35.0144
40.918
51.0956
69.3084
104.327
176.023
314.741
242.431
239.576
310.896
173.215
103.038
68.9785
51.2121
41.1709
35.2172
31.7756
30.1479
30.0946
31.5647
34.8407
40.6938
50.7373
68.6417
103.044
173.861
312.198
240.638
237.842
309.228
170.919
101.539
68.1193
50.6855
40.8001
34.9413
31.5579
29.9629
29.9002
31.3646
34.642
40.4362
50.3187
67.863
101.587
171.559
309.63
239.141
236.233
306.768
168.436
100.009
67.2765
50.1926
40.4626
34.6549
31.3151
29.7688
29.7325
31.2042
34.4566
40.1823
49.9138
67.1273
100.119
168.958
306.732
237.786
234.223
304.071
165.837
98.3307
66.3416
49.6195
40.0785
34.3869
31.0999
29.5713
29.5347
30.9943
34.2093
39.8436
49.3897
66.2138
98.4038
166.191
304.068
235.877
232.331
300.895
162.787
96.5058
65.3315
49.053
39.7109
34.1008
30.8493
29.3327
29.2991
30.753
33.928
39.4559
48.784
65.1498
96.4149
162.909
300.376
234.431
229.3
296.95
159.324
94.4389
64.1894
48.356
39.244
33.753
30.5611
29.0667
29.025
30.4436
33.5622
38.9932
48.106
64.0044
94.3184
159.392
296.692
231.256
226.148
292.225
155.225
92.0926
62.9628
47.6283
38.7424
33.3687
30.2315
28.7561
28.7105
30.097
33.1501
38.4558
47.3132
62.6867
91.875
154.978
291.495
227.85
222.492
286.124
150.531
89.4916
61.5499
46.7581
38.1383
32.9045
29.8402
28.3991
28.3577
29.7157
32.6948
37.8577
46.4376
61.2239
89.1353
149.986
285.258
223.033
217.32
278.632
145.145
86.5587
59.9772
45.8009
37.4597
32.3725
29.3889
27.9839
27.9381
29.2527
32.1418
37.1384
45.3987
59.5416
86.0668
144.139
276.737
216.099
211.127
269.78
139.295
83.4457
58.2271
44.6718
36.6418
31.7287
28.844
27.486
27.4412
28.7122
31.5058
36.3303
44.2567
57.6773
82.6324
137.688
266.583
208.522
204.511
258.543
132.604
79.9774
56.2746
43.4095
35.7132
30.9825
28.2058
26.8999
26.8589
28.0854
30.7779
35.4173
42.9991
55.6862
78.9769
130.558
254.476
199.261
197.007
246.173
125.674
76.4483
54.1983
42.0027
34.6474
30.1047
27.4431
26.1961
26.1623
27.3442
29.9338
34.3847
41.6058
53.5178
75.1273
123.141
241.254
190.431
189.975
231.839
118.364
72.805
51.997
40.4307
33.4172
29.0903
26.5586
25.3754
25.3493
26.485
28.9713
33.243
40.1442
51.3903
71.4819
115.961
227.43
183.417
181.759
216.086
110.707
69.0248
49.6602
38.7295
32.0645
27.9548
25.557
24.4422
24.4263
25.5171
27.9014
31.9954
38.5901
49.2459
67.9609
108.873
213.341
178.657
175.434
199.919
103.254
65.2469
47.1911
36.9006
30.6049
26.7151
24.4463
23.3963
23.3911
24.4343
26.7128
30.6395
36.9791
47.1652
64.7068
102.243
199.295
176.383
174.545
185.55
96.5345
61.7088
44.7591
34.9955
29.0319
25.3735
23.2516
22.2746
22.2792
23.2687
25.4271
29.1573
35.2255
45.0201
61.6884
96.2993
185.866
176.871
179.369
172.911
90.5105
58.2499
42.2489
33.0354
27.4286
23.9998
22.0207
21.1143
21.1229
22.0523
24.0843
27.6184
33.4193
42.8736
58.8862
90.8797
173.974
182.83
187.522
162.453
85.3661
55.2548
39.9742
31.176
25.8656
22.6501
20.8075
19.9668
19.9766
20.8411
22.7338
26.048
31.5399
40.6023
56.0791
86.1093
163.685
187.676
196.005
153.901
81.2747
52.58
37.8359
29.4068
24.3835
21.3739
19.6598
18.8813
18.8918
19.6945
21.4495
24.5342
29.7097
38.4264
53.6266
82.7584
156.036
200.042
211.152
147.997
78.6834
50.4187
35.9416
27.8106
23.0473
20.2265
18.6303
17.9086
17.9174
18.6574
20.2786
23.1385
27.9681
36.2226
50.9287
79.4941
148.657
211.265
225.061
143.196
76.3102
48.31
34.1468
26.3496
21.8518
19.2181
17.7424
17.0794
17.0861
17.7638
19.2572
21.9141
26.4402
34.2768
48.4652
76.5438
143.631
226.364
244.369
140.785
74.6671
46.5003
32.5371
25.0363
20.7966
18.3547
17.0034
16.4004
16.404
17.0155
18.3772
20.8358
25.0996
32.6377
46.6209
74.6543
141.039
244.867
266.763
139.476
72.7537
44.4929
30.8882
23.7671
19.8284
17.6028
16.3904
15.8545
15.8554
16.3943
17.6097
19.8419
23.7878
30.9236
44.569
72.8943
139.6
265.607
289.512
138.957
70.8159
42.4196
29.2047
22.5101
18.9126
16.9322
15.878
15.4194
15.4191
15.8779
16.9312
18.9115
22.5135
29.2277
42.4929
70.9754
139.198
290.486
316.909
138.863
68.5628
39.9852
27.3107
21.1677
17.9954
16.3128
15.4461
15.0778
15.0776
15.4455
16.3113
17.9926
21.1627
27.3014
39.9731
68.5673
138.892
316.365
344.448
138.457
64.9679
36.7882
25.0924
19.7236
17.085
15.7532
15.098
14.8306
14.8306
15.0981
15.7535
17.0861
19.7281
25.107
36.8337
65.0911
138.689
344.82
372.743
135.973
59.6447
32.8361
22.6159
18.2356
16.2243
15.2841
14.8658
14.7141
14.7142
14.8658
15.284
16.2236
18.2341
22.6132
32.8382
59.6781
136.084
372.77
402.858
128.411
51.3604
27.8796
19.8884
16.7557
15.4633
14.9459
14.7498
14.6756
14.6758
14.7505
14.9473
15.4641
16.7577
19.8908
27.8877
51.3798
128.45
402.838
432.134
107.485
38.6738
22.0089
17.1416
15.5645
15.0158
14.8212
14.7328
14.7011
14.7011
14.7328
14.8207
15.0143
15.5651
17.1463
22.0175
38.7123
107.656
432.62
466.677
57.4797
21.664
16.1842
15.1234
14.8846
14.8324
14.8022
14.7959
14.796
14.796
14.7958
14.802
14.8317
14.8823
15.1192
16.1807
21.656
57.4533
466.554
684.604
964.884
560.426
312.227
179.382
110.938
75.5113
56.7208
46.8318
42.5724
42.6436
47.1253
57.082
76.1566
112.708
184.373
321.385
569.819
947.891
677.399
679.692
962.183
547.171
305.104
176.161
110.369
75.1835
56.4738
46.5736
42.3137
42.3891
46.9396
56.8348
74.9262
110.342
183.025
319.398
568.418
932.891
676.968
680.471
962.365
561.021
315.178
181.277
109.507
74.2719
55.8277
45.9276
41.6735
41.7288
46.7645
56.8059
76.3409
112.723
181.744
316.988
568.501
946.507
677.28
679.808
958.805
556.814
314.157
181.185
112.19
75.8306
56.8619
46.6501
42.3164
42.3238
46.6063
55.8905
76.0861
112.458
177.232
307.187
565.996
960.648
678.438
679.106
954.182
541.212
312.102
180.299
111.974
75.5612
56.6536
45.9359
41.5882
41.6136
46.4477
56.4864
75.7686
112.248
181.013
315.152
562.429
959.493
676.638
678.531
941.439
547.966
311.308
179.313
111.672
74.7699
56.8124
46.2919
41.8106
41.6683
45.7621
56.1925
75.3254
111.728
179.477
312.248
555.711
954.462
677.223
676.272
953.235
553.646
309.226
175.258
111.229
75.9225
56.8564
45.6138
42.0309
41.6062
45.9
55.3763
73.8181
111.029
174.727
303.121
542.778
937.545
674.302
673.296
948.05
546.035
300.71
178.906
111.102
75.6807
56.8535
46.2564
41.831
41.7563
46.2901
55.9145
74.4261
110.986
178.308
310.039
550.159
954.304
670.786
673.087
940.803
541.498
308.825
178.457
109.258
74.6623
56.6943
46.7902
42.468
42.1533
46.2092
55.2789
74.8792
110.248
176.66
302.7
558.007
939.416
669.052
672.933
923.086
552.458
301.491
174.573
110.91
76.4714
56.227
46.1229
42.2185
41.575
46.064
55.937
74.6094
109.362
172.53
309.166
548.679
951.847
669.475
671.627
942.356
542.538
305.58
178.101
110.055
76.5546
57.0042
46.5607
41.8475
42.1134
45.4702
55.1581
73.2833
107.76
176.275
302.119
551.165
964.439
667.71
673.613
956.214
553.786
311.172
181.691
112.836
76.7398
56.6718
47.0659
42.143
42.0326
46.1025
55.7722
73.5452
107.89
173.409
306.667
546.83
962.196
664.828
673.068
942.846
564.517
315.155
181.296
112.545
76.7354
57.3049
47.1212
42.5021
41.3586
45.3411
55.6272
73.3143
107.921
177.793
312.64
546.186
959.263
661.382
671.886
954.278
563.227
312.557
180.152
112.173
76.4584
56.583
46.4955
42.5092
41.531
45.7221
55.5206
73.5279
107.958
173.415
312.082
544.807
955.906
659.727
676.403
949.017
558.964
303.585
176.084
110.393
76.212
57.354
47.1714
42.5575
41.5892
46.2279
55.0519
74.2392
109.282
176.762
310.93
549.112
950.747
658.438
677.022
936.139
547.092
312.018
180.7
112.464
75.4843
57.2178
47.0679
42.5477
41.9166
46.3436
55.8041
73.3006
107.173
172.165
309.156
560.083
935.865
660.04
672.347
949.794
569.326
305.815
179.59
112.159
75.7794
56.6155
46.3225
42.0005
41.0208
46.1816
55.2455
74.2937
109.229
175.931
299.544
557.955
953.18
660.753
675.726
959.145
568.059
314.626
176.118
111.505
76.2919
57.2212
46.6615
42.7032
41.8644
46.2915
55.6998
73.1952
107.016
172.415
304.259
553.131
936.723
663.72
679.816
956.046
564.783
305.966
177.848
111.175
76.055
57.12
46.6415
42.6973
42.4243
45.8236
55.1949
73.9078
108.06
175.517
293.667
540.427
952.321
664.359
679.343
941.158
561.003
313.694
180.375
109.381
75.5995
56.9258
46.9214
42.5771
42.3658
46.455
55.9713
74.6835
107.329
174.547
302.884
553.97
939.589
665.038
684.428
953.027
548.403
305.372
179.084
110.36
75.366
56.7405
46.7209
42.3357
42.1887
46.2439
55.0726
74.6754
108.49
176.798
307.225
543.087
961.3
665.123
682.164
964.476
564.04
316.025
176.124
108.022
74.7668
56.4239
45.9432
41.5446
41.4282
46.091
55.5098
74.5142
109.76
175.632
300.248
545.374
957.442
658.895
678.59
960.421
547.561
313.86
178.802
109.852
73.8552
55.8816
46.2995
41.7584
41.6277
45.8776
54.4465
73.3998
109.307
172.503
306.902
549.758
955.315
661.678
682.452
945.117
555.432
312.777
174.898
110.895
74.4711
56.7662
46.8083
41.8835
41.7749
45.6436
55.2504
74.6786
108.139
177.142
300.234
560.575
941.134
662.492
676.703
958.083
563.438
309.564
177.652
110.533
74.6502
56.6163
46.7709
42.3367
41.3369
45.3627
55.6754
74.5841
109.356
176.536
307.909
560.247
956.209
662.638
676.555
943.49
559.583
302.553
173.224
108.602
75.0244
55.92
46.1284
42.3715
41.9451
45.4343
54.9065
74.1773
108.549
174.992
298.981
556.828
950.872
659.931
673.465
959.158
548.568
302.883
174.982
109.286
74.2595
56.5016
46.7313
42.3749
41.5804
45.6888
55.3295
73.2221
106.149
171.333
300.576
553.976
935.028
664.801
666.663
944.208
558.365
304.439
172.107
108.898
74.2908
56.3529
46.6042
42.4249
42.2982
46.3941
56.082
74.1409
107.025
172.702
299.842
543.018
939.789
665.974
665.814
957.452
555.612
308.797
174.168
108.264
74.1772
55.6227
45.8654
42.2668
42.2867
46.406
55.9965
73.7898
107.695
173.919
303.389
554.234
942.69
666.306
663.375
941.771
539.428
306.42
176.294
108.371
74.553
55.9848
46.2958
42.2038
42.1862
46.289
55.9249
73.672
105.241
169.166
292.624
541.947
955.601
665.717
663.272
963.045
548.07
300.376
172.726
107.803
74.249
55.5157
45.631
42.0903
42.1209
46.2094
55.733
74.26
108.124
174.356
302.463
555.883
941.426
663.528
663.125
959.718
553.241
305.768
174.345
107.648
73.3464
55.9595
46.2496
41.9461
41.9475
45.9978
55.1136
73.1914
109.37
176.304
306.784
546.331
958.81
664.846
661.44
956.091
539.461
297.385
171.329
107.364
73.7525
55.5881
46.4577
41.5716
41.4789
45.5715
55.0822
73.5162
108.77
172.157
298.802
558.043
953.456
660.712
664.399
951.65
552.836
304.799
172.711
107.775
74.4167
56.4697
46.2479
41.6193
42.4863
46.5583
55.522
73.8778
108.522
173.202
302.922
555.561
938.877
658.813
665.044
938.092
538.772
297.013
173.596
108.623
73.736
56.3661
46.7441
42.0998
42.5751
46.5509
56.1509
74.7904
106.922
172.122
306.366
551.958
953.26
657.345
663.961
960.546
549.748
302.75
170.947
107.173
74.6012
56.2822
46.6474
42.5519
42.6363
46.0671
55.5267
74.9871
108.103
172.006
303.913
547.664
936.353
655.472
663.33
956.846
536.15
295.401
174.413
108.788
74.0294
55.4533
45.9037
42.3136
42.5228
47.0311
56.6686
75.0122
109.243
172.43
296.325
533.971
946.162
656.632
660.498
954.492
548.929
302.74
173.791
107.345
74.8824
56.0575
46.5135
41.8961
42.4387
46.963
56.6102
74.6589
109.022
174.894
301.791
539.649
936.479
656.788
662.884
948.599
535.532
295.291
172.522
108.68
74.9218
56.5787
46.2109
42.3497
41.8462
46.7522
56.3664
73.4606
108.224
172.003
307.03
543.07
939.582
658.924
661.394
943.447
549.791
301.608
169.229
108.216
74.6905
56.5403
46.8702
42.0371
41.8585
46.5927
55.9357
74.4288
106.702
176.75
306.289
528.819
951.396
662.738
656.251
923.763
546.53
299.035
170.293
107.822
74.0128
55.774
46.7344
42.3633
41.8418
46.171
56.4512
74.4652
107.349
176.178
305.596
542.093
940.508
664.119
658.803
935.097
543.115
290.754
171.107
106.59
73.9691
55.9003
46.6027
42.265
42.2035
46.5414
56.3278
73.6254
107.606
175.611
304.414
549.544
950.718
663.873
659.957
927.333
538.853
292.055
171.164
108.103
74.412
55.852
46.3605
41.5575
41.9342
46.3598
56.209
74.5803
108.832
174.687
301.657
536.365
962.586
663.535
658.662
918.368
527.048
290.562
168.168
107.509
73.6164
55.6372
46.2126
41.5092
41.7597
46.0489
55.4086
74.2466
108.294
173.696
299.745
542.828
962.904
663.562
658.205
937.977
529.829
294.302
171.278
106.573
74.2362
55.8809
45.7119
41.189
41.043
45.4595
55.6891
73.2111
106.908
172.338
292.358
548.162
959.405
661.785
656.347
940.015
526.665
288.097
170.274
107.64
73.6217
55.2849
46.0007
41.2338
41.4889
45.8904
55.6172
73.3662
106.57
171.712
299.274
544.707
956.362
662.53
659.337
936.25
525.073
292.4
167.557
107.076
73.9956
55.7973
45.9428
41.41
41.5157
45.3918
55.3056
73.218
106.85
170.117
296.364
530.404
940.145
661.791
659.115
932.238
525.143
286.642
167.783
106.688
73.6471
55.1136
45.6552
40.6326
41.3413
45.2667
54.6402
72.5865
106.133
167.052
294.269
535.122
949.152
661.93
659.345
924.887
528.676
286.85
168.154
106.062
73.2345
55.2134
45.5488
40.9821
41.2362
45.2405
54.9539
72.3471
104.722
167.528
287.078
536.561
955.918
660.724
658.312
905.591
523.661
284.656
167.133
105.319
72.7691
54.8382
45.1319
41.1304
40.7206
45.2532
54.2824
71.9879
104.71
164.434
287.271
530.243
951.359
656.973
657.277
920.107
513.256
283.305
164.401
104.054
71.6453
53.904
44.4844
40.8602
41.0053
45.0868
54.136
71.6406
104.166
163.971
287.14
520.929
946.591
653.879
656.842
932.636
512.722
284.147
165.058
103.877
71.6792
53.879
44.3782
40.5569
40.2869
44.3171
53.6782
71.0871
102.599
162.486
284.298
511.701
931.071
652.525
655.345
928.941
509.039
282.176
163.949
103.975
71.3127
53.4803
44.0162
40.1341
40.0454
44.0902
53.3001
70.5917
102.173
162.436
278.199
512.468
950.728
652.32
653.524
926.327
508.38
279.83
161.006
103.267
70.9398
53.1877
43.7741
39.9435
39.6897
43.6016
52.8386
70.0233
101.234
161.162
277.754
507.787
943.019
650.062
650.951
922.386
511.154
277.618
160.239
102.065
70.5681
52.8672
43.4651
39.6069
39.2508
43.113
52.2809
69.3321
100.187
159.503
272.13
507.081
951.513
649.373
647.171
918.591
506.21
274.308
158.964
101.689
70.3417
52.4179
42.9938
38.8116
38.696
42.5382
51.7303
68.5739
99.4015
156.976
272.092
506.442
947.84
647.521
645.35
913.637
500.05
271.209
156.613
100.501
69.7483
52.0477
42.5049
38.1816
37.9278
41.8794
50.9596
68.0378
98.6771
155.362
268.386
509.163
930.086
646.333
643.349
908.133
486.51
264.147
155.355
99.939
69.2604
51.6376
42.0494
37.7473
37.5035
41.3774
50.4636
67.3696
97.5163
152.616
264.675
503.952
931.423
640.616
641.41
892.709
491.083
263.001
154.107
98.9542
68.3984
51.0722
41.5226
37.182
36.916
40.8218
49.9062
66.7933
96.6188
151.233
260.236
491.184
928.625
635.112
639.832
902.331
486.597
258.764
152.648
98.3209
67.8113
50.4517
41.0615
36.7568
36.4527
40.3024
49.3224
66.1188
95.8675
149.556
256.324
491.291
934.257
625.488
638.678
896.577
472.866
256.084
151.475
97.4973
67.1325
49.7339
40.4198
36.2265
35.9864
39.7596
48.7601
65.4212
94.9853
148.108
252.147
475.712
927.209
619.949
636.603
878.78
470.016
253.774
150.412
96.7331
66.4696
49.233
39.8801
35.7665
35.5414
39.2794
48.1416
64.7927
94.2119
146.889
249.21
474.403
918.146
615.72
635.283
888.137
469.628
250.166
148.957
95.8405
65.7588
48.6454
39.4334
35.3417
35.0769
38.7308
47.4891
64.0233
93.3231
145.466
245.747
464.318
909.654
611.238
629.637
881.058
453.985
246.926
147.664
95.0202
65.1202
48.0709
38.8834
34.8477
34.5611
38.1867
46.8945
63.2536
92.286
143.774
242.061
456.56
889.422
605.108
623.291
873.404
452.601
244.01
146.196
94.016
64.3624
47.476
38.3363
34.2671
34.0091
37.5954
46.2006
62.4353
91.2537
142.121
238.534
448.909
888.416
595.95
619.107
864.685
440.427
240.524
144.495
92.9399
63.5792
46.8309
37.7384
33.7143
33.4651
37.0331
45.502
61.5125
89.9773
140.175
234.826
441.318
888.132
593.154
617.055
858.371
435.505
237.28
142.73
91.6876
62.5938
46.0858
37.127
33.126
32.93
36.438
44.757
60.5397
88.6541
138.035
230.571
433.9
879.478
584.431
612.557
848.511
427.642
233.193
140.52
90.2351
61.5671
45.3104
36.5177
32.6115
32.418
35.8917
44.094
59.6582
87.3793
135.961
226.483
424.392
857.162
582.685
603.66
838.435
419.824
229.04
138.167
88.5984
60.3355
44.4004
35.836
32.0564
31.9171
35.3551
43.3699
58.6148
85.9207
133.923
223.019
417.365
848.965
580.903
594.936
814.217
410.061
224.286
135.419
86.785
59.0793
43.4991
35.1671
31.5248
31.4651
34.9673
42.7196
57.6238
84.5215
132.022
219.422
409.477
833.923
572.089
592.943
800.659
402.537
219.439
132.448
84.7621
57.6398
42.4913
34.4513
30.9718
30.9755
34.4644
41.9865
56.5482
82.9838
129.716
215.281
400.448
816.926
564.626
591.01
789.834
392.946
214.081
129.27
82.723
56.2655
41.5272
33.7386
30.3865
30.4008
33.7236
41.1982
55.4299
81.2695
127.205
211.079
392.641
805.321
556.124
589.114
775.96
382.953
208.399
125.844
80.4607
54.7797
40.5023
32.9695
29.7473
29.7901
33.0366
40.3729
54.2784
79.5435
124.416
205.807
381.819
790.081
551.025
567.544
760.069
370.948
201.917
122.058
78.0451
53.1781
39.3959
32.1594
29.0788
29.1413
32.3142
39.4687
52.9828
77.5813
121.357
200.341
371.825
774.63
547.028
551.785
742.746
358.266
194.689
117.652
75.2886
51.4293
38.2442
31.3155
28.3536
28.3922
31.4189
38.3858
51.5095
75.4194
118.048
194.491
360.381
755.811
528.793
531.798
720.746
343.368
187.095
113.132
72.4188
49.6127
37.0334
30.4175
27.5882
27.6416
30.5581
37.2295
49.9009
73.0527
114.322
187.832
347.924
734.309
508.091
515.882
696.291
326.952
178.435
107.927
69.1875
47.609
35.7127
29.4449
26.7549
26.7936
29.5785
35.9738
48.1414
70.3672
110.033
180.382
333.661
710.165
486.272
491.864
666.925
308.746
169.002
102.252
65.7164
45.4774
34.3392
28.4683
25.9436
25.983
28.6152
34.7014
46.3203
67.5894
105.578
172.734
319.26
681.919
463.418
469.631
636.567
291.343
158.896
96.0025
62.0237
43.259
32.9124
27.451
25.105
25.1524
27.6296
33.3395
44.2676
64.3928
100.624
164.918
303.703
651.328
444.784
449.453
603.05
273.377
148.816
89.7658
58.1855
40.9189
31.4304
26.4156
24.2636
24.3287
26.6488
31.9758
42.146
60.9288
95.1354
156.531
287.013
617.659
431.046
429.503
565.348
255.514
138.469
83.2433
54.2509
38.542
29.9013
25.3218
23.3529
23.4156
25.5477
30.4379
39.7812
57.1073
89.0814
147.945
269.493
579.62
414.13
407.756
523.871
236.062
127.645
76.7481
50.3964
36.162
28.3367
24.1948
22.4201
22.4908
24.4399
28.8854
37.3341
52.9759
82.1281
137.256
249.894
538.456
396.673
381.122
476.155
215.293
116.554
70.031
46.2938
33.6202
26.681
23.0053
21.4296
21.4996
23.2487
27.2245
34.7552
48.6768
74.6816
124.478
227.464
489.842
374.355
353.203
425.022
192.195
104.162
63.0284
42.1973
31.1069
25.03
21.8102
20.4319
20.4998
22.0421
25.537
32.1456
44.3593
67.1384
110.61
202.852
438.197
346.843
326.608
374.299
169.572
92.2216
56.2788
38.2186
28.6261
23.3809
20.6065
19.4217
19.4857
20.8214
23.8385
29.5202
39.993
59.6748
98.058
178.41
387.62
331.703
305.367
323.489
146.322
80.038
49.7476
34.4445
26.2717
21.8117
19.459
18.4569
18.5133
19.6467