/*--------------------------------*- C++ -*----------------------------------*\
  =========                 |
  \\      /  F ield         | OpenFOAM: The Open Source CFD Toolbox
   \\    /   O peration     | Website:  https://openfoam.org
    \\  /    A nd           | Version:  6
     \\/     M anipulation  |
\*---------------------------------------------------------------------------*/
FoamFile
{
    version     2.0;
    format      ascii;
    class       volScalarField;
    location    "16";
    object      k;
}
// * * * * * * * * * * * * * * * * * * * * * * * * * * * * * * * * * * * * * //

dimensions      [0 2 -2 0 0 0 0];

internalField   nonuniform List<scalar> 
130000
(
0.389821
0.388284
0.386182
0.383599
0.380585
0.377215
0.373578
0.369775
0.36591
0.362083
0.358384
0.35489
0.351661
0.348742
0.346159
0.343923
0.342034
0.340481
0.339245
0.338303
0.39014
0.388622
0.38653
0.383945
0.38092
0.377532
0.373873
0.370046
0.366157
0.362307
0.358587
0.355075
0.351833
0.348903
0.346313
0.344073
0.342183
0.34063
0.339395
0.338456
0.390434
0.388935
0.386852
0.384265
0.38123
0.377824
0.374143
0.370292
0.366378
0.362503
0.35876
0.355227
0.351966
0.349019
0.346414
0.344163
0.342264
0.340705
0.339468
0.338529
0.390678
0.389192
0.387113
0.384523
0.381477
0.378056
0.374355
0.37048
0.36654
0.362638
0.35887
0.355314
0.35203
0.349066
0.346448
0.344187
0.34228
0.340716
0.339475
0.338536
0.390857
0.389376
0.387297
0.3847
0.381643
0.378203
0.374479
0.370579
0.366613
0.36269
0.358904
0.355332
0.352034
0.34906
0.346435
0.344168
0.342257
0.340691
0.33945
0.338511
0.390978
0.389494
0.387408
0.384799
0.381723
0.37826
0.374515
0.370596
0.366614
0.362678
0.358882
0.355303
0.352004
0.349029
0.346402
0.344136
0.342226
0.340662
0.339423
0.338487
0.39106
0.389564
0.387462
0.384833
0.381735
0.378253
0.374492
0.370561
0.366572
0.36263
0.358829
0.355248
0.351949
0.348975
0.346352
0.344089
0.342184
0.340625
0.339391
0.33846
0.39112
0.389605
0.387481
0.384828
0.381711
0.378215
0.374441
0.370499
0.366502
0.362554
0.358751
0.35517
0.351874
0.348904
0.346287
0.344031
0.342133
0.340581
0.339354
0.33843
0.391172
0.389635
0.387487
0.384813
0.381675
0.378161
0.374371
0.370418
0.366412
0.36246
0.358656
0.355077
0.351785
0.348822
0.346212
0.343964
0.342075
0.340532
0.339314
0.338398
0.391225
0.389665
0.387492
0.384793
0.381633
0.378098
0.374292
0.370326
0.366312
0.362356
0.358551
0.354975
0.351689
0.348733
0.346132
0.343894
0.342015
0.340481
0.339273
0.338365
0.391284
0.389699
0.387501
0.384777
0.381592
0.378035
0.374211
0.370231
0.366208
0.362247
0.358442
0.354869
0.351589
0.348641
0.346049
0.343822
0.341953
0.34043
0.339231
0.338333
0.391351
0.389743
0.387518
0.384769
0.381557
0.377977
0.374133
0.370139
0.366105
0.362139
0.358333
0.354764
0.351489
0.34855
0.345968
0.34375
0.341892
0.34038
0.339191
0.338302
0.391428
0.389795
0.387543
0.384767
0.381529
0.377924
0.374061
0.370051
0.366007
0.362035
0.358228
0.354661
0.351392
0.34846
0.345888
0.343681
0.341834
0.340332
0.339153
0.338273
0.391515
0.389856
0.387577
0.384771
0.381511
0.377882
0.373997
0.36997
0.365915
0.361937
0.358128
0.354563
0.351299
0.348376
0.345812
0.343616
0.341779
0.340287
0.339118
0.338247
0.391613
0.389931
0.387624
0.384791
0.381504
0.377849
0.373943
0.3699
0.365832
0.361847
0.358035
0.354472
0.351213
0.348296
0.345742
0.343555
0.341729
0.340247
0.339088
0.338225
0.391726
0.390021
0.387686
0.384823
0.381506
0.377831
0.373902
0.36984
0.36576
0.361766
0.357951
0.354388
0.351133
0.348223
0.345678
0.3435
0.341684
0.340213
0.339065
0.338213
0.391855
0.390127
0.387764
0.384871
0.381525
0.377824
0.373872
0.369792
0.365697
0.361695
0.357876
0.354313
0.351062
0.348158
0.34562
0.343452
0.341645
0.340184
0.339045
0.338203
0.392003
0.39025
0.387859
0.384935
0.381557
0.377828
0.373857
0.369756
0.365647
0.361634
0.35781
0.354246
0.350998
0.348099
0.345569
0.343409
0.341611
0.340158
0.339027
0.338191
0.392167
0.390391
0.38797
0.385015
0.381606
0.377847
0.373853
0.369732
0.365607
0.361584
0.357754
0.354189
0.350942
0.348049
0.345525
0.343373
0.341583
0.340138
0.339012
0.338179
0.39235
0.39055
0.3881
0.385112
0.381671
0.377881
0.373858
0.369722
0.36558
0.361545
0.357707
0.35414
0.350895
0.348005
0.345488
0.343343
0.341561
0.340122
0.339001
0.338169
0.392551
0.390728
0.388248
0.385226
0.381752
0.37793
0.373879
0.369721
0.365564
0.361516
0.35767
0.3541
0.350855
0.347969
0.345457
0.343319
0.341545
0.340112
0.338998
0.338168
0.392769
0.390923
0.388413
0.385358
0.381848
0.377993
0.373912
0.369728
0.365558
0.361495
0.357641
0.354067
0.350823
0.34794
0.345433
0.343302
0.341535
0.340106
0.338992
0.338162
0.393005
0.391136
0.388595
0.385505
0.38196
0.37807
0.373959
0.369748
0.365557
0.361484
0.357621
0.354042
0.350797
0.347917
0.345416
0.343291
0.341528
0.340101
0.338986
0.338163
0.393259
0.391367
0.388796
0.38567
0.382087
0.378162
0.374018
0.369779
0.365565
0.361482
0.35761
0.354025
0.350778
0.347901
0.345405
0.343286
0.341523
0.340102
0.338996
0.338179
0.393533
0.391618
0.389015
0.385853
0.382232
0.37827
0.374091
0.369823
0.365585
0.361483
0.357602
0.354011
0.350762
0.347887
0.345397
0.343287
0.341534
0.34012
0.339019
0.338204
0.393827
0.39189
0.389254
0.386054
0.382393
0.378392
0.374178
0.369878
0.365613
0.36149
0.357596
0.354
0.35075
0.347875
0.345387
0.343283
0.341542
0.340137
0.339043
0.338233
0.394141
0.392181
0.389512
0.386274
0.382572
0.378531
0.374279
0.369947
0.365655
0.361511
0.357603
0.354
0.350746
0.347867
0.345376
0.343271
0.341534
0.340136
0.339051
0.338248
0.394476
0.392493
0.389792
0.386513
0.382769
0.378686
0.374396
0.370029
0.365708
0.36154
0.357615
0.354001
0.35074
0.347858
0.345366
0.34326
0.341522
0.340129
0.339047
0.338248
0.394832
0.392827
0.390092
0.386773
0.382986
0.378859
0.374528
0.370125
0.365773
0.36158
0.357635
0.354005
0.350736
0.347854
0.345364
0.343258
0.34152
0.340127
0.339046
0.338248
0.39521
0.393184
0.390416
0.387055
0.383223
0.379052
0.374679
0.370238
0.365853
0.361633
0.357666
0.354021
0.350742
0.347855
0.345361
0.343254
0.341516
0.340122
0.339047
0.33826
0.395612
0.393566
0.390763
0.387361
0.383483
0.379266
0.374848
0.370367
0.365948
0.3617
0.35771
0.354046
0.350753
0.347855
0.345357
0.34325
0.341515
0.340128
0.339059
0.338277
0.396039
0.393973
0.391137
0.387693
0.383768
0.379502
0.375039
0.370517
0.366062
0.361783
0.357769
0.354086
0.350779
0.347871
0.345369
0.343261
0.341528
0.340143
0.339077
0.338299
0.396492
0.394409
0.39154
0.388052
0.384079
0.379764
0.375254
0.370689
0.366195
0.361884
0.357844
0.35414
0.350817
0.347898
0.345388
0.343277
0.341545
0.340164
0.339105
0.338334
0.396976
0.394877
0.391974
0.388443
0.38442
0.380055
0.375496
0.370885
0.366352
0.362007
0.357938
0.354212
0.350872
0.347939
0.345419
0.343301
0.341566
0.340184
0.339128
0.338362
0.397492
0.395378
0.392443
0.388867
0.384794
0.380377
0.375767
0.37111
0.366535
0.362154
0.358056
0.354307
0.350947
0.348
0.345468
0.34334
0.341596
0.340208
0.339143
0.338369
0.398045
0.395917
0.39295
0.389329
0.385205
0.380734
0.376071
0.371366
0.366748
0.36233
0.358201
0.354426
0.351047
0.348084
0.34554
0.343402
0.341649
0.340251
0.339176
0.338389
0.398636
0.396498
0.393499
0.389832
0.385655
0.381128
0.376412
0.371655
0.366992
0.362536
0.358375
0.354574
0.351174
0.348195
0.345638
0.343491
0.341729
0.340324
0.339241
0.338446
0.39927
0.397123
0.394093
0.39038
0.386148
0.381564
0.376791
0.371982
0.367272
0.362775
0.358581
0.354752
0.351331
0.348335
0.345765
0.343607
0.341837
0.340424
0.339335
0.338533
0.399952
0.397798
0.394737
0.390977
0.38669
0.382046
0.377214
0.37235
0.367591
0.363051
0.35882
0.354963
0.351518
0.348504
0.34592
0.343752
0.341973
0.340552
0.339456
0.338647
0.400684
0.398526
0.395435
0.391628
0.387283
0.382578
0.377684
0.372763
0.367951
0.363366
0.359097
0.355208
0.351739
0.348705
0.346106
0.343925
0.342137
0.340708
0.339603
0.338787
0.401473
0.399314
0.396194
0.392338
0.387933
0.383164
0.378207
0.373224
0.368357
0.363724
0.359414
0.355492
0.351995
0.34894
0.346324
0.344129
0.34233
0.340892
0.339778
0.338953
0.402323
0.400166
0.397018
0.393113
0.388647
0.383811
0.378786
0.37374
0.368815
0.36413
0.359777
0.355818
0.352291
0.349213
0.346577
0.344368
0.342556
0.341106
0.339982
0.339146
0.40324
0.401089
0.397913
0.393959
0.38943
0.384524
0.379429
0.374315
0.369329
0.36459
0.360189
0.356191
0.352633
0.349528
0.346871
0.344645
0.342818
0.341355
0.340219
0.339371
0.40423
0.40209
0.398889
0.394885
0.39029
0.385312
0.380143
0.374958
0.369906
0.365109
0.360659
0.356618
0.353025
0.349891
0.347211
0.344965
0.343121
0.341644
0.340493
0.339631
0.405302
0.403178
0.399953
0.395898
0.391236
0.386182
0.380936
0.375676
0.370555
0.365696
0.361192
0.357106
0.353474
0.350309
0.347603
0.345335
0.343473
0.341978
0.340811
0.339933
0.406464
0.404361
0.401115
0.397009
0.392277
0.387145
0.381818
0.376479
0.371284
0.366359
0.361798
0.357663
0.35399
0.35079
0.348056
0.345763
0.343879
0.342366
0.34118
0.340282
0.407725
0.40565
0.402385
0.398228
0.393426
0.388211
0.382799
0.377377
0.372105
0.367109
0.362486
0.358298
0.35458
0.351343
0.348577
0.346257
0.34435
0.342814
0.341607
0.340688
0.409096
0.407057
0.403777
0.399569
0.394693
0.389394
0.383892
0.378382
0.373028
0.367958
0.363269
0.359024
0.355257
0.351979
0.349178
0.346829
0.344894
0.343333
0.342102
0.341158
0.41059
0.408595
0.405304
0.401046
0.396095
0.390708
0.385112
0.37951
0.374068
0.368918
0.364159
0.359853
0.356034
0.352711
0.349871
0.347488
0.345524
0.343935
0.342676
0.341704
0.412223
0.410282
0.406984
0.402677
0.397649
0.39217
0.386476
0.380776
0.375242
0.370008
0.365172
0.360801
0.356925
0.353554
0.350672
0.348252
0.346253
0.344633
0.343342
0.342338
0.41401
0.412134
0.408835
0.404479
0.399374
0.393799
0.388003
0.382201
0.376568
0.371245
0.366329
0.361886
0.357949
0.354525
0.351597
0.349136
0.3471
0.345443
0.344117
0.343075
0.415962
0.414167
0.410876
0.406476
0.401292
0.395619
0.389717
0.383807
0.378071
0.372652
0.36765
0.363132
0.359129
0.355646
0.352668
0.350161
0.348083
0.346386
0.345019
0.343935
0.418103
0.416406
0.413133
0.408692
0.403431
0.397657
0.391644
0.385621
0.379777
0.374256
0.369163
0.364563
0.360489
0.356944
0.35391
0.351353
0.349228
0.347485
0.346071
0.344938
0.420457
0.418879
0.415635
0.41116
0.405821
0.399945
0.393817
0.387676
0.381717
0.37609
0.3709
0.366213
0.362062
0.35845
0.355355
0.352742
0.350564
0.348769
0.347302
0.346112
0.423051
0.421616
0.418416
0.413913
0.408499
0.402521
0.396274
0.390012
0.383933
0.378193
0.372899
0.36812
0.363887
0.3602
0.357039
0.354364
0.352127
0.350273
0.348745
0.34749
0.425919
0.424654
0.421516
0.416995
0.411511
0.405429
0.399063
0.392673
0.38647
0.380611
0.375209
0.370332
0.366009
0.362243
0.359009
0.356266
0.353961
0.35204
0.350442
0.349111
0.429096
0.428037
0.424982
0.420457
0.414909
0.408726
0.402238
0.395719
0.389386
0.383404
0.377887
0.372905
0.368488
0.364635
0.361321
0.358501
0.356122
0.354124
0.352444
0.351026
0.432626
0.431814
0.428872
0.42436
0.418757
0.412477
0.405868
0.399217
0.392751
0.386641
0.381004
0.375912
0.371393
0.367447
0.364045
0.361141
0.358677
0.35659
0.354816
0.353294
0.436562
0.436047
0.433252
0.428775
0.423132
0.416763
0.410036
0.403254
0.396653
0.390411
0.38465
0.379441
0.374815
0.370768
0.367269
0.36427
0.361709
0.359521
0.357637
0.355993
0.440965
0.440809
0.438203
0.433792
0.428129
0.421683
0.414846
0.407935
0.4012
0.394824
0.388934
0.383604
0.378864
0.374709
0.371104
0.367998
0.365327
0.36302
0.361007
0.359218
0.445913
0.446181
0.443826
0.439521
0.433864
0.427361
0.420425
0.413393
0.406526
0.400018
0.393998
0.388543
0.383683
0.37941
0.375689
0.372463
0.369665
0.36722
0.365052
0.363091
0.451507
0.45228
0.450243
0.446096
0.440485
0.43395
0.426935
0.419795
0.412806
0.406169
0.400021
0.394439
0.389453
0.385054
0.381204
0.377842
0.374896
0.372287
0.369935
0.367764
0.45785
0.459238
0.45761
0.453688
0.448173
0.441647
0.434582
0.427357
0.420261
0.413506
0.407234
0.401526
0.396411
0.391878
0.387884
0.384367
0.381247
0.378442
0.375866
0.373439
0.465075
0.467219
0.466116
0.46251
0.457164
0.450702
0.443632
0.436356
0.42918
0.422326
0.415943
0.410114
0.404868
0.400192
0.396039
0.392342
0.389016
0.385973
0.383122
0.380376
0.473351
0.476428
0.476002
0.472835
0.467755
0.461439
0.454431
0.447157
0.439944
0.433025
0.426555
0.420619
0.415245
0.410418
0.406087
0.402179
0.398603
0.395267
0.392071
0.388925
0.482887
0.487127
0.487573
0.485009
0.480336
0.474282
0.467434
0.460247
0.453066
0.446136
0.439619
0.433602
0.428112
0.42313
0.418599
0.41444
0.410558
0.406852
0.403218
0.399559
0.493942
0.499676
0.501199
0.499487
0.495417
0.489794
0.483251
0.476275
0.469233
0.462381
0.455886
0.449836
0.444255
0.439119
0.434365
0.429907
0.425642
0.421463
0.417261
0.412931
0.506859
0.514535
0.517464
0.516887
0.513682
0.508725
0.502696
0.496119
0.489377
0.482741
0.476379
0.470377
0.464754
0.459479
0.45448
0.449662
0.444916
0.440125
0.435175
0.429958
0.522069
0.532251
0.537034
0.53799
0.536017
0.532057
0.526844
0.520935
0.514736
0.508523
0.502466
0.496643
0.491067
0.485691
0.480435
0.47519
0.469837
0.464254
0.458317
0.451914
0.540131
0.553544
0.560839
0.563746
0.563555
0.561058
0.55708
0.552219
0.546901
0.541408
0.535905
0.530461
0.52507
0.519671
0.514167
0.508432
0.502335
0.49574
0.488515
0.480541
0.561798
0.579364
0.59009
0.595627
0.597786
0.597326
0.595119
0.591796
0.587802
0.583419
0.578803
0.574006
0.569003
0.563709
0.558006
0.551745
0.544775
0.536938
0.528087
0.518086
0.58803
0.61091
0.626144
0.635342
0.640367
0.642707
0.64293
0.641734
0.639586
0.63677
0.63343
0.629602
0.625237
0.620227
0.614426
0.607658
0.599738
0.590476
0.579686
0.567195
0.620026
0.649721
0.670671
0.684716
0.693721
0.699252
0.702637
0.704152
0.704383
0.703591
0.701916
0.699379
0.695916
0.691395
0.685645
0.678455
0.669601
0.658835
0.645911
0.630575
0.659226
0.697521
0.725645
0.745661
0.759758
0.769602
0.776319
0.780929
0.784074
0.785658
0.785953
0.784965
0.782622
0.778779
0.773246
0.765777
0.756099
0.743892
0.728815
0.710489
0.707308
0.756182
0.793011
0.820175
0.840242
0.855123
0.866182
0.874359
0.880184
0.884202
0.886705
0.887409
0.886308
0.883271
0.878096
0.870504
0.860169
0.846689
0.829606
0.808377
0.766087
0.827587
0.874591
0.909947
0.93672
0.957163
0.972852
0.984873
0.993948
1.00053
1.0049
1.00731
1.00745
1.00526
1.00054
0.992955
0.982135
0.967589
0.948732
0.924835
0.837429
0.9135
0.971963
1.01635
1.05037
1.0767
1.0972
1.11318
1.12548
1.13466
1.14107
1.14491
1.14622
1.14485
1.14064
1.13318
1.12202
1.10661
1.08622
1.05993
0.923066
1.01538
1.08631
1.14032
1.18192
1.21429
1.23965
1.25952
1.27495
1.28664
1.295
1.30029
1.30259
1.30193
1.29826
1.29102
1.27965
1.26354
1.24184
1.21345
1.02446
1.1343
1.21839
1.28238
1.33169
1.3701
1.40021
1.42382
1.44218
1.45616
1.46628
1.47289
1.47608
1.47606
1.47289
1.46592
1.45447
1.43783
1.41505
1.38485
1.14267
1.27084
1.36844
1.4425
1.49945
1.5437
1.57826
1.60528
1.62622
1.64214
1.65373
1.66141
1.66535
1.66582
1.6631
1.65645
1.64501
1.62805
1.60447
1.57284
1.27823
1.425
1.53607
1.61996
1.68416
1.73374
1.77219
1.80198
1.82489
1.84218
1.85471
1.86304
1.86743
1.8682
1.86577
1.85945
1.84819
1.83119
1.80726
1.77478
1.43104
1.59607
1.72003
1.81302
1.8836
1.93752
1.9788
2.01029
2.0341
2.05175
2.06435
2.07265
2.07708
2.07786
2.07538
2.06933
2.05842
2.04178
2.01815
1.98572
1.60028
1.78236
1.91789
2.01851
2.09384
2.15037
2.19266
2.22406
2.24702
2.26342
2.27462
2.28159
2.28486
2.28501
2.28257
2.27679
2.26651
2.25084
2.22844
2.1974
1.78411
1.98091
2.12558
2.23125
2.30859
2.3649
2.40536
2.43385
2.45331
2.466
2.47363
2.47747
2.47835
2.47705
2.47382
2.46793
2.45852
2.44463
2.42479
2.39702
1.9795
2.1871
2.33691
2.44349
2.5186
2.57036
2.60471
2.62618
2.63827
2.64368
2.64455
2.64251
2.63894
2.63466
2.62946
2.6231
2.61488
2.60375
2.5882
2.56628
2.18191
2.39428
2.54314
2.64442
2.71101
2.75201
2.77416
2.7829
2.78256
2.77592
2.76578
2.75426
2.74244
2.73139
2.72197
2.71429
2.7078
2.70144
2.69334
2.68087
2.38509
2.59352
2.73262
2.81977
2.86905
2.891
2.8926
2.87965
2.85731
2.83095
2.80431
2.78113
2.75991
2.74221
2.72863
2.71933
2.71378
2.71105
2.70949
2.70706
2.58092
2.77341
2.89069
2.95188
2.97129
2.96055
2.93114
2.89343
2.84921
2.8033
2.75823
2.71484
2.67868
2.65003
2.62915
2.61621
2.61107
2.61277
2.61946
2.63142
2.75944
2.92014
2.99936
3.01693
2.99531
2.94686
2.88107
2.80345
2.72497
2.64939
2.58009
2.51925
2.46825
2.42781
2.39822
2.37978
2.37271
2.37576
2.3878
2.41083
2.90906
3.01703
3.03635
2.99907
2.91839
2.81355
2.69685
2.57837
2.46527
2.36198
2.27097
2.19331
2.1291
2.07814
2.04008
2.01497
2.00315
2.00359
2.01511
2.04248
3.01518
3.04607
2.98941
2.86801
2.7124
2.54229
2.37281
2.21437
2.0729
1.95082
1.84806
1.76323
1.69429
1.6394
1.59708
1.56677
1.54865
1.54246
1.54611
1.56591
3.05838
2.98702
2.82105
2.6013
2.36149
2.12712
1.91479
1.73304
1.58361
1.46396
1.36936
1.29477
1.23557
1.18824
1.15032
1.12086
1.09961
1.08748
1.08472
1.09412
3.02905
2.81656
2.51783
2.18864
1.87218
1.59662
1.37431
1.20591
1.0834
0.995707
0.932483
0.885617
0.849337
0.820119
0.796086
0.777557
0.767598
0.768221
0.781041
0.828788
2.87593
2.49918
2.06294
1.648
1.30302
1.04646
0.870345
0.76164
0.69689
0.657243
0.631259
0.612857
0.599211
0.589614
0.585415
0.586433
0.593566
0.611702
0.660802
0.77695
2.55655
2.00658
1.47883
1.07538
0.807467
0.657523
0.580444
0.539424
0.515757
0.501045
0.49159
0.48568
0.482846
0.482644
0.485228
0.491867
0.507022
0.544174
0.644507
0.874348
1.99626
1.3538
0.89225
0.649987
0.543707
0.492919
0.465358
0.448877
0.43846
0.431648
0.427332
0.424975
0.424571
0.426318
0.431026
0.440628
0.46221
0.519562
0.695324
1.10975
1.24171
0.766817
0.566206
0.48609
0.449593
0.429691
0.417185
0.408672
0.402751
0.398664
0.396078
0.394765
0.394872
0.396679
0.401515
0.412189
0.437217
0.508075
0.739702
1.28809
0.924191
0.580816
0.465442
0.426668
0.409337
0.399237
0.392438
0.387754
0.384571
0.382426
0.381134
0.38055
0.380916
0.382653
0.387114
0.396667
0.420432
0.489175
0.721703
1.33672
0.88266
0.508878
0.419293
0.396406
0.387642
0.382899
0.380114
0.378273
0.377051
0.376237
0.375788
0.375595
0.375834
0.376715
0.37936
0.386586
0.404705
0.455567
0.633263
1.17281
0.705209
0.435284
0.38941
0.380325
0.377592
0.376469
0.375759
0.375285
0.374981
0.374742
0.374615
0.374584
0.374699
0.375003
0.375737
0.377838
0.385392
0.411067
0.506043
0.855678
0.33921
0.338758
0.338215
0.337675
0.337148
0.336645
0.336177
0.335756
0.335392
0.335092
0.334864
0.334711
0.334634
0.334629
0.334695
0.334827
0.335018
0.335264
0.335559
0.335901
0.339443
0.338982
0.338437
0.337893
0.33736
0.336851
0.336377
0.335949
0.335577
0.335271
0.335038
0.33488
0.334798
0.33479
0.334853
0.334983
0.335172
0.335415
0.335707
0.336046
0.339607
0.339144
0.338595
0.338047
0.337509
0.336995
0.336514
0.33608
0.335702
0.335389
0.33515
0.334987
0.334901
0.334891
0.334953
0.335081
0.335269
0.335508
0.335797
0.336133
0.339727
0.339263
0.338714
0.338164
0.337624
0.337107
0.336623
0.336185
0.335802
0.335485
0.335239
0.335072
0.334984
0.334974
0.335039
0.335165
0.335345
0.335575
0.335858
0.336192
0.339821
0.33936
0.338813
0.338264
0.337724
0.337207
0.336723
0.336283
0.335899
0.335576
0.33532
0.335145
0.335052
0.335041
0.335109
0.335231
0.3354
0.33562
0.335896
0.336224
0.339911
0.339453
0.338908
0.338361
0.337824
0.337308
0.336825
0.336382
0.335988
0.335651
0.335384
0.335202
0.335106
0.335092
0.335153
0.335265
0.335438
0.335664
0.335936
0.336254
0.340009
0.339553
0.33901
0.338462
0.337919
0.337396
0.336902
0.336447
0.336044
0.335702
0.335436
0.335253
0.335153
0.335128
0.335167
0.335275
0.335457
0.335685
0.335958
0.336283
0.34007
0.339611
0.33906
0.338508
0.33796
0.337431
0.336926
0.336459
0.33605
0.335715
0.335449
0.335265
0.335166
0.335136
0.335167
0.335273
0.335444
0.335672
0.33595
0.336298
0.340085
0.33962
0.33907
0.338519
0.337966
0.337427
0.336919
0.336441
0.336028
0.335694
0.335424
0.335243
0.335151
0.335123
0.33516
0.335259
0.33543
0.335661
0.335948
0.33629
0.34009
0.339628
0.339088
0.338533
0.337976
0.337429
0.336922
0.336446
0.336029
0.335685
0.335423
0.335243
0.33515
0.335128
0.335176
0.335289
0.335462
0.335693
0.335977
0.336309
0.34009
0.339629
0.339089
0.338536
0.337979
0.337432
0.336919
0.336453
0.336046
0.335707
0.335445
0.335264
0.335167
0.335152
0.3352
0.335312
0.335479
0.335708
0.335996
0.336337
0.340081
0.339622
0.339083
0.33853
0.337979
0.337437
0.336928
0.336465
0.336065
0.335724
0.335457
0.335271
0.335168
0.335142
0.335187
0.335298
0.335464
0.335698
0.335989
0.33633
0.34012
0.339664
0.339116
0.338557
0.338005
0.337466
0.336963
0.336501
0.336092
0.335747
0.335476
0.335281
0.335171
0.335141
0.335186
0.335302
0.335481
0.33572
0.336015
0.336346
0.340159
0.339698
0.339149
0.338583
0.338022
0.337475
0.336976
0.336514
0.336107
0.335767
0.335498
0.335316
0.335216
0.335192
0.33524
0.335356
0.335534
0.335765
0.336046
0.336369
0.340186
0.339705
0.339147
0.338579
0.338017
0.33747
0.336963
0.336497
0.336089
0.335754
0.335499
0.335335
0.335245
0.335226
0.335277
0.335393
0.335567
0.335792
0.336057
0.336375
0.340209
0.339727
0.339155
0.33858
0.338013
0.337463
0.336956
0.336482
0.336072
0.335739
0.335494
0.335323
0.335231
0.335213
0.335264
0.335382
0.335558
0.335786
0.336062
0.336383
0.340222
0.339749
0.339169
0.338587
0.33802
0.33747
0.336957
0.336493
0.336092
0.33576
0.335503
0.335324
0.335232
0.335219
0.335275
0.335395
0.335574
0.335806
0.336087
0.336413
0.340241
0.339753
0.339168
0.338599
0.338027
0.337468
0.336951
0.3365
0.336103
0.335774
0.335523
0.335354
0.335268
0.335254
0.335307
0.335426
0.335603
0.335838
0.33612
0.336447
0.340277
0.339768
0.339178
0.338595
0.338018
0.337466
0.336956
0.336498
0.336097
0.33577
0.335523
0.335365
0.335279
0.335258
0.3353
0.335415
0.335595
0.335828
0.336109
0.336436
0.340341
0.339817
0.33921
0.338605
0.338018
0.337465
0.336964
0.336513
0.336113
0.335786
0.335535
0.335366
0.335277
0.335247
0.335285
0.335405
0.335593
0.335823
0.336107
0.336436
0.34043
0.339895
0.339277
0.338661
0.338062
0.337495
0.336976
0.33652
0.336119
0.33579
0.335539
0.33537
0.335278
0.335254
0.33531
0.335438
0.335628
0.335871
0.33616
0.336489
0.340536
0.339994
0.339369
0.338744
0.338137
0.33756
0.337029
0.336555
0.336148
0.335817
0.335568
0.335403
0.33532
0.335312
0.335379
0.335514
0.335709
0.335954
0.336244
0.336572
0.340655
0.340108
0.339478
0.338848
0.338236
0.337654
0.337118
0.33664
0.336231
0.3359
0.335652
0.335488
0.335408
0.335403
0.335474
0.335611
0.335807
0.336054
0.336343
0.336669
0.340783
0.340232
0.339598
0.338965
0.338349
0.337764
0.337226
0.336746
0.336336
0.336004
0.335756
0.335594
0.335514
0.33551
0.335582
0.33572
0.335916
0.336161
0.336449
0.336773
0.340918
0.340363
0.339725
0.339088
0.338469
0.337882
0.337342
0.33686
0.33645
0.336118
0.33587
0.335707
0.335628
0.335624
0.335696
0.335833
0.336028
0.336272
0.336558
0.33688
0.341059
0.3405
0.339858
0.339217
0.338595
0.338004
0.337461
0.336978
0.336567
0.336234
0.335986
0.335824
0.335745
0.335741
0.335812
0.335949
0.336144
0.336387
0.33667
0.336989
0.341208
0.340644
0.339998
0.339352
0.338724
0.33813
0.337584
0.337098
0.336685
0.336352
0.336104
0.335942
0.335863
0.33586
0.335932
0.336069
0.336263
0.336505
0.336787
0.337102
0.341369
0.3408
0.340147
0.339495
0.338862
0.338262
0.337711
0.337223
0.336807
0.336473
0.336224
0.336063
0.335986
0.335984
0.336057
0.336196
0.336391
0.336633
0.336913
0.337225
0.341545
0.34097
0.340312
0.339653
0.339012
0.338406
0.33785
0.337357
0.336939
0.336603
0.336355
0.336195
0.33612
0.336121
0.336197
0.336338
0.336533
0.336775
0.337053
0.337362
0.341743
0.341162
0.340497
0.339831
0.339184
0.338571
0.338009
0.337511
0.33709
0.336753
0.336506
0.336348
0.336275
0.336279
0.336358
0.336501
0.336698
0.336939
0.337215
0.337519
0.341964
0.341378
0.340708
0.340036
0.339382
0.338763
0.338195
0.337694
0.33727
0.336932
0.336685
0.33653
0.336459
0.336466
0.336547
0.336692
0.336889
0.337129
0.337402
0.3377
0.342215
0.341624
0.340949
0.340271
0.339611
0.338986
0.338414
0.337909
0.337483
0.337145
0.336899
0.336745
0.336677
0.336686
0.336769
0.336915
0.337112
0.33735
0.337618
0.33791
0.342496
0.341902
0.341223
0.34054
0.339874
0.339244
0.338668
0.33816
0.337732
0.337393
0.337147
0.336995
0.336928
0.33694
0.337024
0.337171
0.337368
0.337603
0.337867
0.338151
0.342814
0.342216
0.341533
0.340846
0.340175
0.33954
0.338959
0.338447
0.338018
0.337678
0.337433
0.337281
0.337217
0.33723
0.337316
0.337463
0.337659
0.337891
0.338149
0.338425
0.343171
0.342571
0.341885
0.341193
0.340517
0.339877
0.339292
0.338777
0.338345
0.338004
0.337759
0.337608
0.337545
0.33756
0.337647
0.337794
0.337988
0.338217
0.338468
0.338735
0.343575
0.342973
0.342284
0.341588
0.340907
0.340261
0.339672
0.339153
0.338718
0.338376
0.338131
0.337981
0.337919
0.337935
0.338022
0.338169
0.338361
0.338585
0.33883
0.339085
0.344031
0.343428
0.342737
0.342037
0.341351
0.3407
0.340106
0.339583
0.339146
0.338802
0.338556
0.338407
0.338345
0.338362
0.338449
0.338595
0.338784
0.339003
0.339239
0.339482
0.344548
0.343944
0.343252
0.342548
0.341857
0.341202
0.340602
0.340075
0.339635
0.33929
0.339043
0.338893
0.338832
0.338849
0.338937
0.339081
0.339266
0.339478
0.339705
0.339934
0.345133
0.34453
0.343838
0.343131
0.342435
0.341774
0.34117
0.340639
0.340195
0.339848
0.3396
0.33945
0.339389
0.339406
0.339493
0.339635
0.339816
0.34002
0.340235
0.340449
0.345797
0.345196
0.344505
0.343795
0.343096
0.34243
0.34182
0.341285
0.340838
0.340488
0.340239
0.340089
0.340028
0.340045
0.34013
0.340269
0.340444
0.34064
0.340842
0.341037
0.346552
0.345955
0.345265
0.344555
0.343851
0.343181
0.342566
0.342026
0.341576
0.341224
0.340973
0.340822
0.340761
0.340777
0.340861
0.340996
0.341164
0.341349
0.341536
0.34171
0.347411
0.34682
0.346135
0.345425
0.344718
0.344043
0.343424
0.342879
0.342425
0.34207
0.341818
0.341666
0.341604
0.341619
0.3417
0.34183
0.34199
0.342164
0.342332
0.342482
0.348392
0.34781
0.347131
0.346422
0.345714
0.345035
0.344411
0.343863
0.343405
0.343047
0.342792
0.342639
0.342575
0.342588
0.342666
0.34279
0.34294
0.343099
0.343247
0.343369
0.349514
0.348944
0.348275
0.34757
0.346861
0.34618
0.345552
0.344999
0.344537
0.344176
0.343919
0.343763
0.343698
0.343708
0.343781
0.343898
0.344036
0.344177
0.3443
0.34439
0.350802
0.350248
0.349593
0.348894
0.348187
0.347503
0.346872
0.346315
0.34585
0.345486
0.345225
0.345067
0.344999
0.345006
0.345073
0.345179
0.345302
0.345422
0.345517
0.345567
0.352283
0.351751
0.351114
0.350426
0.349722
0.349039
0.348406
0.347846
0.347377
0.347009
0.346745
0.346583
0.346511
0.346513
0.346572
0.346666
0.346771
0.346865
0.346925
0.346931
0.353993
0.353489
0.352877
0.352203
0.351507
0.350826
0.350192
0.34963
0.349158
0.348786
0.348519
0.348352
0.348275
0.34827
0.348318
0.348396
0.348479
0.348542
0.348561
0.348513
0.355973
0.355505
0.354927
0.354273
0.353589
0.352914
0.352281
0.351718
0.351243
0.350868
0.350596
0.350423
0.350339
0.350325
0.350359
0.350417
0.350472
0.350498
0.350467
0.350356
0.358273
0.357853
0.357318
0.356693
0.356027
0.355361
0.354732
0.35417
0.353693
0.353315
0.353037
0.352857
0.352764
0.352738
0.352754
0.352786
0.352806
0.352786
0.352695
0.352508
0.360957
0.360598
0.360119
0.359533
0.358892
0.358242
0.357622
0.357063
0.356586
0.356204
0.35592
0.355731
0.355625
0.355582
0.355574
0.355573
0.355549
0.355473
0.355311
0.355031
0.364099
0.363821
0.363415
0.362882
0.362277
0.361651
0.361045
0.360493
0.360017
0.359633
0.359342
0.35914
0.359015
0.35895
0.358912
0.35887
0.358792
0.358646
0.358393
0.358002
0.36779
0.36762
0.367313
0.366852
0.366298
0.365706
0.365122
0.364582
0.364111
0.363725
0.363426
0.36321
0.363062
0.362966
0.362885
0.36279
0.362643
0.362407
0.362043
0.361513
0.372166
0.372132
0.371953
0.371588
0.371104
0.370561
0.370009
0.369489
0.369028
0.368641
0.368333
0.368099
0.367925
0.367786
0.367649
0.367481
0.367241
0.366891
0.366386
0.365685
0.377384
0.377525
0.377514
0.377279
0.376892
0.376419
0.375916
0.375426
0.374979
0.374593
0.374272
0.374013
0.373797
0.373602
0.37339
0.373127
0.372767
0.37227
0.371586
0.370669
0.383659
0.384009
0.384234
0.384178
0.383929
0.383557
0.383125
0.382681
0.382256
0.381873
0.381535
0.381239
0.380966
0.380691
0.380376
0.379983
0.379464
0.378773
0.377857
0.376665
0.39132
0.391968
0.392443
0.39264
0.392584
0.392359
0.392031
0.391654
0.391265
0.390885
0.390523
0.390174
0.389818
0.389429
0.388969
0.388397
0.387661
0.386711
0.38549
0.38394
0.400755
0.401811
0.402667
0.403154
0.403384
0.403371
0.403197
0.40292
0.402583
0.402211
0.401812
0.401384
0.400906
0.400354
0.399686
0.398859
0.39782
0.396516
0.394882
0.392857
0.412564
0.414211
0.415641
0.416533
0.41708
0.417384
0.417435
0.417307
0.417047
0.416684
0.416231
0.415684
0.415027
0.414232
0.413261
0.412069
0.4106
0.4088
0.406598
0.403928
0.427565
0.430063
0.432326
0.433888
0.434883
0.435513
0.435902
0.435991
0.435844
0.435495
0.434959
0.434237
0.433312
0.432161
0.430746
0.429023
0.426938
0.424433
0.421436
0.417876
0.446928
0.450645
0.454096
0.456624
0.45837
0.45948
0.460161
0.460572
0.460588
0.460262
0.459609
0.458633
0.457321
0.455654
0.453598
0.451114
0.448148
0.444644
0.440526
0.435721
0.472241
0.477664
0.482764
0.486624
0.489416
0.491307
0.492438
0.493022
0.49329
0.493007
0.492205
0.490884
0.489041
0.48666
0.483716
0.480173
0.475981
0.471084
0.465409
0.458876
0.505475
0.513184
0.520458
0.526054
0.530185
0.533061
0.534862
0.535759
0.53607
0.535943
0.53497
0.533222
0.530704
0.527408
0.523312
0.518382
0.512572
0.505821
0.498054
0.489184
0.548798
0.559373
0.569314
0.576997
0.58271
0.58673
0.589289
0.59059
0.591086
0.591062
0.589901
0.587679
0.584397
0.580038
0.574582
0.567986
0.560198
0.551144
0.540731
0.528853
0.604203
0.618088
0.631031
0.641017
0.648447
0.653687
0.657023
0.658733
0.659473
0.659566
0.658295
0.655652
0.651616
0.646163
0.639266
0.63086
0.620874
0.609194
0.59569
0.580202
0.673132
0.690546
0.706618
0.718964
0.728142
0.734638
0.738829
0.741027
0.741794
0.741836
0.740784
0.73785
0.733162
0.726699
0.718422
0.708234
0.696022
0.681608
0.664787
0.645299
0.756394
0.777368
0.796558
0.811229
0.822121
0.829842
0.834849
0.837548
0.838636
0.838867
0.837879
0.834693
0.829453
0.822119
0.812622
0.800807
0.786501
0.769434
0.749298
0.72568
0.854534
0.879069
0.901386
0.918419
0.93109
0.940122
0.946042
0.94933
0.950795
0.951275
0.950378
0.946995
0.94129
0.933197
0.922604
0.909306