/*--------------------------------*- C++ -*----------------------------------*\
  =========                 |
  \\      /  F ield         | OpenFOAM: The Open Source CFD Toolbox
   \\    /   O peration     | Website:  https://openfoam.org
    \\  /    A nd           | Version:  6
     \\/     M anipulation  |
\*---------------------------------------------------------------------------*/
FoamFile
{
    version     2.0;
    format      ascii;
    class       volScalarField;
    location    "16";
    object      k;
}
// * * * * * * * * * * * * * * * * * * * * * * * * * * * * * * * * * * * * * //

dimensions      [0 2 -2 0 0 0 0];

internalField   nonuniform List<scalar> 
10000
(
0.199313
0.510947
0.454824
0.398882
0.364055
0.347151
0.340404
0.338467
0.338421
0.339164
0.340076
0.341213
0.343032
0.347098
0.35597
0.374053
0.408591
0.462051
0.513781
0.200965
0.198781
0.509537
0.454931
0.39872
0.364557
0.347937
0.342388
0.341036
0.340825
0.341552
0.342398
0.343319
0.343925
0.347816
0.356646
0.374074
0.407983
0.462021
0.513443
0.199899
0.199236
0.512011
0.454618
0.400716
0.365135
0.348178
0.341868
0.34002
0.339268
0.340005
0.340972
0.342094
0.343902
0.348139
0.357898
0.374937
0.409115
0.461749
0.513509
0.199914
0.199304
0.513271
0.458461
0.401259
0.365766
0.349178
0.341154
0.338989
0.339106
0.339994
0.341023
0.342273
0.345129
0.349374
0.358049
0.375055
0.407717
0.460598
0.512713
0.199863
0.200771
0.516075
0.458928
0.400801
0.366033
0.349007
0.341222
0.339073
0.340619
0.340655
0.341389
0.342352
0.344112
0.348475
0.357648
0.375794
0.409435
0.459439
0.512761
0.198998
0.199156
0.515771
0.459257
0.401798
0.366131
0.348454
0.342228
0.339145
0.339754
0.341831
0.342968
0.343959
0.345466
0.349699
0.357739
0.3761
0.409725
0.462977
0.513329
0.199626
0.199352
0.513674
0.459231
0.400136
0.365803
0.348068
0.341002
0.339212
0.340774
0.340466
0.341202
0.342216
0.344052
0.348325
0.357645
0.376358
0.409353
0.462548
0.511277
0.199844
0.199566
0.514752
0.45913
0.401298
0.365769
0.348029
0.341874
0.339049
0.340419
0.341683
0.342847
0.343867
0.345466
0.349444
0.358458
0.376468
0.407723
0.461791
0.513657
0.199625
0.20042
0.515726
0.459148
0.400436
0.365465
0.347506
0.340279
0.338688
0.339275
0.340417
0.341789
0.342773
0.344125
0.348147
0.357635
0.376498
0.409574
0.462862
0.514581
0.201215
0.200088
0.515168
0.458467
0.401814
0.365471
0.347499
0.339838
0.338844
0.340105
0.34149
0.343477
0.344249
0.344144
0.347901
0.357692
0.376901
0.410171
0.462932
0.514307
0.201533
0.199333
0.512417
0.456
0.401452
0.365233
0.347974
0.339439
0.337872
0.337662
0.338778
0.341337
0.342725
0.344025
0.347791
0.35757
0.376222
0.4095
0.460501
0.513842
0.201614
0.198625
0.5136
0.457356
0.401448
0.36485
0.346692
0.338935
0.336856
0.337375
0.338092
0.339363
0.341047
0.344546
0.348003
0.356566
0.375396
0.407107
0.459366
0.512779
0.200298
0.20017
0.513387
0.457341
0.40131
0.364856
0.34724
0.338999
0.336798
0.338366
0.337976
0.338981
0.340642
0.342709
0.346838
0.356301
0.374623
0.406075
0.45719
0.510472
0.198777
0.200045
0.513463
0.454938
0.400987
0.364836
0.346642
0.338933
0.336418
0.336654
0.33772
0.338842
0.341453
0.342885
0.346799
0.35692
0.373931
0.405146
0.456852
0.509906
0.198471
0.19997
0.513276
0.456032
0.40081
0.365105
0.347815
0.34056
0.336784
0.336796
0.338237
0.338358
0.339723
0.343472
0.347116
0.355971
0.372948
0.404615
0.458139
0.511005
0.198099
0.200206
0.512197
0.455272
0.401061
0.365257
0.347661
0.340169
0.336912
0.336731
0.337303
0.338232
0.339263
0.341722
0.344852
0.35486
0.372081
0.405428
0.45913
0.511199
0.199037
0.200524
0.512429
0.457087
0.401275
0.365308
0.347842
0.339707
0.337265
0.3373
0.338973
0.338672
0.339269
0.340725
0.344531
0.354316
0.371605
0.406041
0.459553
0.511514
0.199198
0.200908
0.513109
0.456866
0.401738
0.365418
0.34815
0.34019
0.337534
0.3374
0.338437
0.340438
0.3414
0.34232
0.344797
0.354269
0.371348
0.405932
0.459542
0.51148
0.199313
0.201132
0.514079
0.455622
0.401893
0.365833
0.348321
0.341957
0.339321
0.339186
0.340138
0.340515
0.340752
0.341158
0.34456
0.353518
0.371153
0.405792
0.460035
0.511868
0.19873
0.201429
0.515526
0.459057
0.402473
0.366214
0.348432
0.341504
0.338072
0.337809
0.339309
0.340065
0.340073
0.341071
0.344605
0.35312
0.370769
0.404803
0.458368
0.511208
0.200064
0.201253
0.513795
0.457068
0.401011
0.366261
0.348761
0.340885
0.337958
0.337609
0.338062
0.338934
0.341101
0.341902
0.346179
0.353897
0.371549
0.407026
0.461188
0.51055
0.199547
0.201227
0.514902
0.459216
0.402865
0.367174
0.349268
0.341253
0.338392
0.337837
0.337995
0.33854
0.339712
0.342357
0.346144
0.354581
0.37174
0.406579
0.461715
0.512157
0.200235
0.200924
0.514271
0.457234
0.401926
0.367646
0.34992
0.341934
0.339085
0.338535
0.33858
0.339008
0.339983
0.341672
0.34575
0.354635
0.372416
0.408451
0.462376
0.511742
0.19968
0.200429
0.512378
0.459052
0.403462
0.368152
0.350407
0.342438
0.339551
0.339134
0.340419
0.340868
0.340598
0.342172
0.346866
0.354496
0.372572
0.408531
0.462393
0.510855
0.200567
0.200448
0.512677
0.456845
0.402392
0.368512
0.351897
0.344285
0.341403
0.340577
0.33959
0.339893
0.341871
0.34359
0.346097
0.354537
0.372935
0.408682
0.462918
0.513469
0.201112
0.199666
0.512766
0.459035
0.404152
0.36909
0.351936
0.343617
0.34033
0.339439
0.339764
0.339805
0.340768
0.342986
0.346947
0.355397
0.373321
0.407775
0.462846
0.513639
0.201954
0.200315
0.513167
0.457747
0.404364
0.369637
0.352764
0.344168
0.340646
0.339558
0.339603
0.340897
0.341709
0.342142
0.346214
0.35524
0.373833
0.409113
0.462895
0.513892
0.202147
0.200738
0.512163
0.460739
0.404462
0.370124
0.353435
0.346198
0.342556
0.34128
0.340764
0.339692
0.340162
0.342
0.346363
0.355852
0.373423
0.408541
0.462131
0.515731
0.202232
0.200649
0.51345
0.460948
0.404143
0.370401
0.353527
0.345935
0.341258
0.339782
0.339488
0.339773
0.340362
0.342352
0.346646
0.355407
0.373637
0.407522
0.460636
0.515509
0.201391
0.202335
0.515406
0.46106
0.40328
0.370697
0.353279
0.345867
0.341191
0.33967
0.339629
0.340919
0.340812
0.34295
0.348141
0.356552
0.374228
0.409399
0.463154
0.515787
0.202035
0.20223
0.514736
0.460816
0.40315
0.370962
0.354014
0.345006
0.341331
0.339811
0.339696
0.339897
0.340975
0.344264
0.347399
0.356388
0.374527
0.409447
0.462989
0.51564
0.201968
0.202243
0.515584
0.461151
0.404302
0.37093
0.352874
0.345672
0.342449
0.341001
0.340989
0.340238
0.341178
0.344303
0.348514
0.356753
0.374443
0.409153
0.46287
0.515313
0.201734
0.202481
0.515972
0.461353
0.405086
0.370893
0.35242
0.343774
0.340124
0.338971
0.339187
0.340863
0.342202
0.344294
0.348244
0.356698
0.374224
0.40881
0.461951
0.513532
0.201357
0.20202
0.514224
0.459484
0.404659
0.371009
0.353667
0.345197
0.340417
0.338959
0.338882
0.339368
0.340762
0.343124
0.347355
0.356193
0.373797
0.4081
0.459355
0.514616
0.200367
0.201933
0.515008
0.461142
0.405723
0.371299
0.353059
0.344086
0.340551
0.339048
0.339054
0.339143
0.341749
0.344322
0.348334
0.35548
0.373453
0.407826
0.461462
0.515025
0.201115
0.20139
0.514315
0.461232
0.406527
0.371093
0.352462
0.344894
0.34136
0.340029
0.33953
0.338729
0.340299
0.342059
0.346059
0.354979
0.372793
0.407214
0.461221
0.514985
0.20036
0.201253
0.514496
0.460612
0.405986
0.37086
0.352257
0.343609
0.339986
0.338439
0.337948
0.338093
0.338726
0.340279
0.344309
0.353401
0.371932
0.406379
0.458689
0.514412
0.201699
0.200702
0.515099
0.460065
0.404325
0.370704
0.353404
0.345272
0.341962
0.339267
0.338211
0.338294
0.338826
0.340284
0.34517
0.353384
0.371519
0.405478
0.459818
0.514451
0.201503
0.200426
0.513354
0.458813
0.404061
0.370598
0.352693
0.344297
0.341631
0.340378
0.33849
0.338297
0.338733
0.340072
0.343966
0.353693
0.371374
0.403915
0.460475
0.513956
0.20116
0.201064
0.513999
0.459467
0.403814
0.370104
0.351837
0.344872
0.34121
0.339923
0.338629
0.3385
0.338995
0.340226
0.343863
0.352791
0.371355
0.404861
0.459912
0.513212
0.200975
0.200627
0.515514
0.45825
0.404309
0.370133
0.351495
0.343144
0.339816
0.338769
0.338718
0.338684
0.340324
0.340978
0.344734
0.35312
0.371116
0.405563
0.45933
0.511544
0.199822
0.202245
0.516213
0.460288
0.404999
0.370031
0.351775
0.343435
0.339995
0.338903
0.338622
0.33854
0.338685
0.339705
0.3432
0.352262
0.37042
0.403957
0.458366
0.511232
0.200246
0.20202
0.516285
0.460697
0.403856
0.369598
0.351449
0.344589
0.340757
0.340697
0.340553
0.33924
0.338994
0.339928
0.343241
0.352303
0.370081
0.403574
0.456212
0.5106
0.199178
0.201415
0.515363
0.460052
0.404829
0.369734
0.351314
0.343581
0.341711
0.339764
0.339488
0.339293
0.339346
0.340392
0.343444
0.351644
0.369799
0.403421
0.456255
0.510219
0.199057
0.201092
0.514241
0.458872
0.403355
0.369361
0.351274
0.343737
0.341042
0.339749
0.339697
0.340699
0.341051
0.3424
0.344216
0.351838
0.369865
0.403515
0.455603
0.510422
0.198697
0.200362
0.512087
0.45749
0.403293
0.369027
0.351391
0.344889
0.342893
0.341132
0.339854
0.339342
0.339538
0.341742
0.344532
0.351962
0.369558
0.403008
0.455196
0.509389
0.198547
0.199985
0.511359
0.455678
0.402959
0.368743
0.351426
0.342694
0.340984
0.339428
0.340569
0.339213
0.339025
0.341002
0.343482
0.351901
0.36924
0.401884
0.455252
0.509459
0.198305
0.199
0.510223
0.456511
0.402596
0.368599
0.350246
0.342201
0.339345
0.338565
0.338745
0.33902
0.338627
0.339638
0.343405
0.351007
0.368732
0.401585
0.453718
0.508541
0.198726
0.199025
0.509817
0.454776
0.402212
0.368364
0.351049
0.342421
0.339477
0.33859
0.338754
0.340223
0.338669
0.33933
0.342575
0.350259
0.367986
0.400987
0.454806
0.509899
0.19875
0.198488
0.510654
0.454992
0.401226
0.367816
0.350324
0.342478
0.339591
0.338599
0.338356
0.338377
0.33844
0.339491
0.343837
0.350339
0.367571
0.399934
0.452173
0.508121
0.197595
0.198925
0.509903
0.453945
0.401023
0.367823
0.35138
0.344043
0.341452
0.339261
0.339741
0.338443
0.338444
0.339494
0.343315
0.350261
0.367428
0.399657
0.452028
0.5088
0.197756
0.198497
0.508847
0.453806
0.400322
0.367644
0.350564
0.342844
0.340149
0.338907
0.3386
0.338553
0.338784
0.339739
0.342669
0.350242
0.36765
0.399823
0.452681
0.508692
0.197803
0.198397
0.50873
0.453371
0.399987
0.36757
0.351452
0.344173
0.341697
0.339416
0.338889
0.33886
0.339099
0.340046
0.342861
0.350221
0.366988
0.399213
0.452216
0.506567
0.197292
0.197218
0.507524
0.45121
0.399067
0.366859
0.350323
0.343102
0.340564
0.339717
0.339725
0.340865
0.34126
0.342136
0.34458
0.351254
0.366532
0.398515
0.450138
0.506256
0.196877
0.196546
0.505526
0.450445
0.397918
0.366383
0.35156
0.343933
0.341627
0.341991
0.341231
0.340612
0.340557
0.341362
0.343735
0.350432
0.3663
0.398139
0.450171
0.504971
0.196527
0.196403
0.504835
0.448425
0.397282
0.366193
0.351563
0.344549
0.343358
0.342607
0.342352
0.341498
0.342572
0.3433
0.344283
0.350632
0.366317
0.397252
0.449515
0.506211
0.197347
0.196454
0.504847
0.447801
0.396549
0.36609
0.352074
0.346097
0.342989
0.343124
0.343145
0.343141
0.342953
0.342737
0.345551
0.35171
0.365902
0.396728
0.447706
0.505985
0.196917
0.19627
0.503532
0.446912
0.395949
0.366209
0.352645
0.346928
0.344791
0.343221
0.34301
0.342934
0.343092
0.34413
0.345183
0.351001
0.365731
0.396119
0.446918
0.505451
0.197035
0.195874
0.50297
0.445904
0.395521
0.366719
0.353316
0.347906
0.345686
0.344161
0.344171
0.34532
0.344135
0.34401
0.345611
0.351218
0.36598
0.395442
0.445946
0.5052
0.19711
0.195636
0.502324
0.444673
0.394741
0.366443
0.354041
0.349396
0.34759
0.346788
0.346713
0.346893
0.346956
0.346468
0.346688
0.35245
0.364972
0.39435
0.444186
0.503102
0.196044
0.194537
0.501126
0.443192
0.394114
0.366626
0.354691
0.35032
0.348638
0.347289
0.347091
0.347377
0.347567
0.346981
0.347201
0.352478
0.364781
0.393702
0.443078
0.502715
0.19575
0.19402
0.500512
0.442059
0.393779
0.367815
0.355833
0.351561
0.350181
0.349819
0.349716
0.349372
0.34902
0.347914
0.348225
0.353011
0.365162
0.392936
0.441758
0.501163
0.195535
0.193524
0.499227
0.440487
0.393021
0.367875
0.357221
0.353048
0.351843
0.351405
0.351128
0.350779
0.350251
0.349932
0.350099
0.352951
0.364442
0.392005
0.440483
0.500468
0.194767
0.19276
0.497849
0.438632
0.392155
0.367721
0.35803
0.354199
0.353038
0.352561
0.352239
0.351848
0.351285
0.350614
0.349986
0.354288
0.364953
0.391026
0.439082
0.499251
0.194269
0.192177
0.496757
0.437467
0.391396
0.367942
0.358893
0.355375
0.354205
0.353838
0.353584
0.353223
0.3526
0.351757
0.350624
0.353737
0.363732
0.389849
0.437609
0.498396
0.193423
0.191347
0.49517
0.435575
0.390191
0.367067
0.359413
0.356373
0.355326
0.354968
0.354793
0.354498
0.353966
0.353274
0.352848
0.353354
0.36339
0.388781
0.435621
0.496324
0.192757
0.190278
0.49321
0.433455
0.388969
0.367732
0.360101
0.357406
0.356496
0.356188
0.356063
0.355833
0.355322
0.354471
0.353542
0.35359
0.362801
0.387176
0.433313
0.495221
0.19177
0.189752
0.491929
0.431677
0.386894
0.365429
0.359867
0.358219
0.357718
0.357541
0.357479
0.357298
0.356794
0.355911
0.354813
0.354775
0.36244
0.385639
0.431056
0.492819
0.190525
0.188891
0.490402
0.429262
0.384279
0.363668
0.359327
0.359017
0.359083
0.359187
0.359143
0.358848
0.358172
0.357031
0.355484
0.353844
0.361721
0.383753
0.428513
0.491234
0.189663
0.188038
0.488967
0.42681
0.381773
0.364061
0.35798
0.359597
0.360308
0.360635
0.360639
0.360332
0.359553
0.35817
0.356099
0.35358
0.360756
0.38166
0.426148
0.48922
0.188712
0.186661
0.486756
0.423714
0.379892
0.361438
0.358606
0.360304
0.361425
0.361951
0.361997
0.361609
0.360726
0.359206
0.356803
0.353278
0.359577
0.378727
0.422791
0.486664
0.18729
0.185248
0.484116
0.420125
0.379651
0.360899
0.356414
0.360271
0.362333
0.363212
0.363378
0.362986
0.361984
0.36016
0.357147
0.352696
0.356574
0.374945
0.419741
0.484741
0.186266
0.18381
0.481398
0.415879
0.37556
0.358883
0.356215
0.360378
0.363517
0.364689
0.364909
0.364462
0.363316
0.361191
0.357458
0.352236
0.353689
0.371982
0.416368
0.482702
0.185036
0.182005
0.478047
0.411407
0.372388
0.356935
0.356226
0.362109
0.364917
0.366203
0.366502
0.36604
0.364771
0.362347
0.357499
0.352296
0.352869
0.372533
0.4127
0.479543
0.1833
0.180044
0.474346
0.406835
0.369628
0.356433
0.356652
0.362817
0.366286
0.367863
0.368271
0.367788
0.366414
0.363914
0.359741
0.352435
0.351328
0.36751
0.407683
0.476425
0.181564
0.177211
0.469083
0.401183
0.366097
0.354654
0.357796
0.363952
0.367652
0.369516
0.370069
0.369592
0.368093
0.365284
0.360513
0.35269
0.350463
0.365048
0.402672
0.471474
0.178383
0.174304
0.463495
0.394947
0.362588
0.352372
0.355781
0.364122
0.368867
0.371182
0.371917
0.371458
0.369847
0.366782
0.361584
0.353063
0.349511
0.361755
0.39669
0.466229
0.175052
0.1706
0.456631
0.38756
0.35835
0.349907
0.356634
0.36507
0.370113
0.372723
0.373635
0.373219
0.371524
0.368259
0.362747
0.353653
0.349119
0.358961
0.389701
0.458983
0.170239
0.165789
0.447456
0.379028
0.353951
0.349188
0.354715
0.364342
0.370537
0.373734
0.374952
0.374637
0.372861
0.369367
0.363559
0.354254
0.349103
0.35477
0.381248
0.449137
0.164266
0.160457
0.436702
0.370019
0.348874
0.350441
0.3548
0.362683
0.369797
0.373801
0.375474
0.375339
0.373505
0.369817
0.364009
0.355984
0.34751
0.34954
0.372193
0.438102
0.157988
0.154914
0.425049
0.360695
0.343225
0.347457
0.354079
0.362532
0.368819
0.372624
0.374614
0.37475
0.37279
0.368719
0.362733
0.355667
0.346701
0.345292
0.36233
0.424233
0.150925
0.148944
0.411923
0.351848
0.338166
0.345851
0.354519
0.363099
0.370252
0.372963
0.374575
0.374522
0.372672
0.36891
0.363213
0.356193
0.34516
0.340489
0.352416
0.409887
0.14498
0.143583
0.399539
0.345862
0.33567
0.345051
0.355264
0.363493
0.369371
0.373023
0.374762
0.374808
0.373087
0.369509
0.364053
0.357215
0.346029
0.337693
0.344353
0.395216
0.140366
0.137932
0.383788
0.339459
0.33625
0.348103
0.359435
0.366866
0.371775
0.373888
0.375296
0.375486
0.375039
0.372162
0.367146
0.359333
0.347693
0.336947
0.337588
0.380913
0.137438
0.135966
0.368568
0.334176
0.337157
0.351171
0.360707
0.367031
0.37186
0.374014
0.375323
0.375517
0.374826
0.372147
0.36786
0.361985
0.35266
0.341351
0.334415
0.368066
0.13672
0.136789
0.355912
0.332368
0.340937
0.353697
0.362955
0.368912
0.371854
0.37417
0.37537
0.375484
0.374288
0.371682
0.367737
0.362682
0.355135
0.34326
0.333674
0.356877
0.138689
0.141451
0.347274
0.333288
0.343818
0.3559
0.363723
0.368623
0.371845
0.37463
0.375265
0.375196
0.374062
0.371698
0.368208
0.364296
0.357733
0.347113
0.335172
0.348147
0.143052
0.147592
0.341672
0.337423
0.348943
0.358515
0.363799
0.368217
0.371482
0.373622
0.374621
0.374682
0.373863
0.372386
0.368651
0.36465
0.360018
0.350284
0.337182
0.34177
0.147924
0.155032
0.337277
0.339838
0.35211
0.360672
0.364757
0.368443
0.371557
0.373167
0.373842
0.37391
0.373373
0.371933
0.368864
0.365438
0.361773
0.354118
0.341527
0.337604
0.157118
0.166013
0.334153
0.344165
0.356715
0.363555
0.36703
0.368821
0.370626
0.37136
0.371662
0.371723
0.371512
0.370829
0.36907
0.367207
0.362957
0.357091
0.344774
0.334642
0.165609
0.176798
0.333046
0.349338
0.360851
0.36594
0.367618
0.369284
0.369799
0.369965
0.370028
0.370075
0.370098
0.369999
0.369576
0.368329
0.36598
0.361241
0.350034
0.333504
0.177691
0.191805
0.333692
0.355967
0.365638
0.368806
0.369527
0.369483
0.369354
0.369141
0.369025
0.36905
0.369215
0.36942
0.369408
0.369606
0.368896
0.365656
0.355888
0.333771
0.191562
0.208388
0.340418
0.364293
0.370833
0.371741
0.37098
0.369944
0.36931
0.368844
0.368614
0.368635
0.368934
0.369503
0.370351
0.370952
0.371793
0.370912
0.364396
0.340044
0.20792
0.22628
0.349863
0.373931
0.376434
0.374915
0.372887
0.371147
0.369815
0.369064
0.368719
0.368711
0.369041
0.369721
0.37084
0.372585
0.374679
0.376349
0.37405
0.35055
0.226905
0.247432
0.366287
0.385004
0.381825
0.377539
0.374232
0.371978
0.370539
0.369676
0.369275
0.369271
0.369672
0.370532
0.371983
0.37425
0.377581
0.381908
0.384943
0.365859
0.246936
0.268612
0.386528
0.396127
0.386399
0.379425
0.375271
0.372731
0.371199
0.370323
0.369927
0.369924
0.370315
0.371181
0.372699
0.37523
0.379358
0.38634
0.396326
0.387068
0.269008
0.291352
0.412071
0.405465
0.388523
0.380088
0.375678
0.373229
0.371828
0.371071
0.370742
0.370741
0.371069
0.371824
0.373213
0.375663
0.380065
0.388542
0.405513
0.411871
0.291175
0.314587
0.435369
0.409469
0.388967
0.38006
0.375752
0.37358
0.372468
0.371924
0.371705
0.371708
0.37193
0.37248
0.37358
0.375751
0.380043
0.388964
0.409475
0.435361
0.314699
0.33769
0.445174
0.407113
0.385697
0.378058
0.375027
0.373744
0.373179
0.372942
0.372859
0.372861
0.372951
0.373194
0.373757
0.375035
0.378056
0.385673
0.407077
0.445141
0.337914
0.364549
0.421818
0.386523
0.377503
0.375369
0.374618
0.374344
0.37427
0.374254
0.374251
0.374252
0.374253
0.374271
0.374344
0.37462
0.37537
0.377508
0.386531
0.421862
0.364496
0.539051
1.07717
0.891724
0.709216
0.582285
0.505791
0.461939
0.437199
0.42361
0.417062
0.416026
0.420616
0.432828
0.457068
0.501975
0.58136
0.710772
0.891194
1.06861
0.535733
0.536972
1.07445
0.882864
0.704482
0.581764
0.506135
0.462227
0.437426
0.423769
0.417164
0.416152
0.420944
0.433164
0.457084
0.501593
0.578332
0.70426
0.882122
1.06082
0.534451
0.535537
1.0702
0.890834
0.710865
0.580523
0.506513
0.46243
0.437609
0.423894
0.417183
0.416307
0.420671
0.432872
0.456956
0.500801
0.580441
0.70566
0.885269
1.0705
0.533364
0.532475
1.08119
0.898487
0.708969
0.582185
0.506922
0.462601
0.438174
0.42409
0.417208
0.416201
0.420865
0.432556
0.4569
0.501242
0.580092
0.703803
0.8838
1.07029
0.53658
0.532365
1.07815
0.89949
0.717396
0.58302
0.507141
0.463025
0.43765
0.424534
0.417484
0.416049
0.420607
0.432379
0.456497
0.500347
0.578869
0.703786
0.883846
1.07495
0.535104
0.532095
1.07791
0.897927
0.716789
0.584097
0.507261
0.462814
0.437539
0.424104
0.417132
0.415839
0.420479
0.432254
0.45619
0.499624
0.57762
0.706396
0.886528
1.06435
0.532734
0.530763
1.06472
0.896854
0.7157
0.58616
0.507309
0.462731
0.437535
0.423925
0.41702
0.415699
0.420312
0.432175
0.455777
0.498968
0.573773
0.704683
0.879079
1.06092
0.526705
0.531667
1.06972
0.894479
0.712792
0.585001
0.506834
0.462961
0.438145
0.42408
0.416866
0.415526
0.420189
0.432359
0.455571
0.498558
0.574623
0.703086
0.88503
1.0591
0.526222
0.528672
1.07887
0.893633
0.705598
0.582361
0.506925
0.46317
0.437878
0.423751
0.416618
0.415327
0.419874
0.43173
0.455387
0.497853
0.570912
0.700274
0.882054
1.0654
0.526987
0.531773
1.07804
0.886997
0.709839
0.586241
0.507802
0.464017
0.438186
0.423695
0.416478
0.415187
0.41975
0.431488
0.455218
0.497608
0.570679
0.69285
0.880389
1.06041
0.526186
0.533382
1.07261
0.896851
0.710225
0.586266
0.508413
0.464631
0.438968
0.424003
0.416636
0.415256
0.419567
0.431393
0.455034
0.497198
0.570448
0.696158
0.870199
1.06909
0.523296
0.532566
1.06877
0.896787
0.714712
0.586286
0.509203
0.465395
0.439345
0.42425
0.416803
0.415184
0.419342
0.431129
0.454689
0.496721
0.569289
0.694849
0.872576
1.06443
0.52068
0.529965
1.05707
0.887298
0.707652
0.584989
0.510007
0.466373
0.440041
0.424894
0.417307
0.415566
0.419428
0.43127
0.454558
0.496929
0.570464
0.692869
0.875796
1.06274
0.519923
0.535539
1.06473
0.8932
0.713557
0.582975
0.510677
0.466853
0.440333
0.425036
0.417383
0.415584
0.419396
0.431008
0.454184
0.497273
0.573034
0.685273
0.86752
1.04949
0.519555
0.536394
1.07228
0.895987
0.710315
0.58544
0.511731
0.467252
0.440575
0.425213
0.417527
0.415671
0.419373
0.431166
0.454166
0.496479
0.573682
0.693009
0.878303
1.05999
0.522296
0.538066
1.0708
0.900848
0.717247
0.587211
0.511694
0.467014
0.440554
0.425256
0.417518
0.415625
0.419314
0.430895
0.454185
0.497488
0.573517
0.696502
0.867913
1.06771
0.519376
0.538099
1.08194
0.90348
0.709873
0.588447
0.511232
0.466255
0.440009
0.425048
0.417398
0.415488
0.419311
0.430899
0.454075
0.497256
0.572862
0.690029
0.869504
1.06986
0.522598
0.535127
1.0732
0.896373
0.711945
0.587926
0.510959
0.466509
0.439795
0.42464
0.417112
0.415576
0.419331
0.43087
0.454099
0.497054
0.572524
0.692515
0.869325
1.0694
0.524844
0.542449
1.08658
0.905217
0.71593
0.585909
0.509804
0.465052
0.43983
0.42459
0.4171
0.415318
0.419321
0.431062
0.454122
0.496746
0.571773
0.693504
0.871096
1.07114
0.524549
0.542333
1.08835
0.904735
0.713003
0.586969
0.509674
0.464894
0.44
0.424611
0.4172
0.415387
0.419439
0.430737
0.454056
0.496269
0.56849
0.698183
0.877367
1.0697
0.526733
0.54094
1.08528
0.900406
0.714089
0.583741
0.508629
0.464619
0.439247
0.424595
0.417564
0.415663
0.419156
0.430637
0.453852
0.496
0.570809
0.697966
0.87562
1.06844
0.526114
0.535444
1.0751
0.896306
0.710318
0.582669
0.508093
0.464615
0.438144
0.42389
0.417175
0.415393
0.419072
0.430651
0.453932
0.496166
0.567588
0.697042
0.861643
1.0651
0.524582
0.537792
1.07463
0.885561
0.707402
0.581296
0.507774
0.464301
0.438026
0.423768
0.41701
0.415214
0.419038
0.430666
0.453743
0.496097
0.570625
0.69748
0.864894
1.06521
0.523278
0.536695
1.07688
0.886618
0.700614
0.57991
0.507438
0.463937
0.437917
0.423723
0.416683
0.414893
0.419107
0.430311
0.453551
0.496502
0.57215
0.696708
0.865202
1.06528
0.525616
0.53436
1.08006
0.875338
0.699346
0.578755
0.50622
0.463047
0.438042
0.424066
0.416288
0.414467
0.418653
0.429879
0.453326
0.49584
0.571278
0.696223
0.872323
1.06669
0.526729
0.528533
1.07872
0.875933
0.696013
0.57718
0.505246
0.46166
0.436948
0.423386
0.415794
0.414054
0.418308
0.429773
0.45328
0.496024
0.568709
0.695085
0.865599
1.06298
0.525439
0.527864
1.07624
0.879106
0.694795
0.576025
0.504957
0.462056
0.437418
0.423203
0.415505
0.413886
0.418031
0.429685
0.453026
0.496113
0.571998
0.69192
0.87958
1.06355
0.525303
0.527136
1.0727
0.887594
0.693848
0.574192
0.503372
0.461205
0.436668
0.422669
0.415175
0.413775
0.418106
0.429765
0.452966
0.495132
0.571672
0.700463
0.878754
1.06095
0.526143
0.52434
1.07888
0.886873
0.69447
0.57324
0.502272
0.460404
0.437303
0.42243
0.415374
0.414111
0.418287
0.429897
0.452808
0.495071
0.568923
0.699306
0.871357
1.06578
0.527176
0.526481
1.07548
0.885131
0.698082
0.572002
0.500297
0.458961
0.436202
0.421801
0.415125
0.41414
0.418608
0.430289
0.452781
0.494779
0.570051
0.698518
0.880799
1.06973
0.522917
0.520419
1.07044
0.883349
0.693126
0.571343
0.499487
0.458987
0.435959
0.421786
0.415464
0.414335
0.418842
0.430514
0.4527
0.494014
0.567067
0.694777
0.875543
1.05916
0.523252
0.524721
1.06019
0.880021
0.698183
0.571265
0.49911
0.458188
0.434923
0.421781
0.415463
0.414463
0.41903
0.430695
0.452861
0.493535
0.56484
0.69283
0.87355
1.05855
0.521419
0.527118
1.06519
0.877653
0.691988
0.569979
0.498531
0.457283
0.433966
0.421146
0.415483
0.414572
0.419186
0.430849
0.452607
0.493157
0.564426
0.687007
0.862655
1.06199
0.517728
0.52575
1.07149
0.866891
0.696201
0.570252
0.498569
0.457359
0.433966
0.421146
0.415508
0.414615
0.419257
0.430936
0.452682
0.492644
0.5652
0.691857
0.866229
1.06084
0.517578
0.52627
1.07166
0.87299
0.696512
0.570661
0.498669
0.457295
0.433911
0.421111
0.415489
0.414673
0.419325
0.430868
0.452182
0.492502
0.564066
0.691528
0.87057
1.05004
0.517068
0.52038
1.06946
0.878721
0.695518
0.571547
0.498683
0.457356
0.434373
0.421452
0.415332
0.414506
0.419148
0.430634
0.452272
0.49237
0.56628
0.690318
0.869238
1.05755
0.519157
0.523101
1.06568
0.876879
0.694056
0.570532
0.498436
0.457435
0.433327
0.420713
0.414862
0.414174
0.418741
0.430271
0.452818
0.492625
0.565933
0.689789
0.86
1.05645
0.518554
0.52366
1.05405
0.872095
0.691587
0.567909
0.497324
0.456014
0.433044
0.420642
0.414867
0.414272
0.418839
0.430353
0.452746
0.49272
0.565217
0.688754
0.866157
1.04588
0.515943
0.522954
1.05657
0.870075
0.690138
0.567831
0.49659
0.455925
0.433035
0.420697
0.414928
0.414459
0.419039
0.430916
0.452611
0.492647
0.562823
0.687855
0.872391
1.05318
0.520146
0.518459
1.05152
0.858009
0.682812
0.567537
0.496441
0.455817
0.43295
0.420767
0.415027
0.414949
0.419435
0.430437
0.452071
0.492801
0.564413
0.681452
0.871078
1.06046
0.522666
0.520646
1.05314
0.858131
0.683444
0.566902
0.49626
0.455864
0.43302
0.42099
0.415082
0.414593
0.418812
0.429743
0.451846
0.492667
0.564205
0.685373
0.868551
1.06097
0.524122
0.518248
1.05756
0.856551
0.684249
0.565793
0.495673
0.455827
0.43298
0.421779
0.415491
0.414419
0.418411
0.429674
0.451695
0.492408
0.563348
0.680867
0.857527
1.05131
0.521592
0.520143
1.05584
0.855526
0.682597
0.565557
0.495412
0.456616
0.432955
0.421325
0.415014
0.414144
0.418745
0.429841
0.451634
0.492314
0.564011
0.685393
0.862183
1.06104
0.524037
0.516426
1.05037
0.846226
0.680291
0.564668
0.495056
0.456082
0.432831
0.421036
0.414643
0.413748
0.418252
0.430192
0.451449
0.491799
0.561864
0.683298
0.863132
1.06137
0.523361
0.517842
1.04789
0.848699
0.679067
0.564084
0.494751
0.455503
0.432759
0.420947
0.414326
0.413485
0.418304
0.429464
0.451436
0.491652
0.562207
0.68163
0.85493
1.05994
0.522507
0.519754
1.04614
0.851697
0.674402
0.563205
0.494525
0.455927
0.432693
0.420644
0.414341
0.413502
0.417951
0.429523
0.451576
0.491248
0.561292
0.679756
0.86042
1.05995
0.521696
0.519966
1.04044
0.853338
0.674275
0.562741
0.494389
0.45548
0.432707
0.420223
0.414442
0.413857
0.418112
0.430291
0.452446
0.491353
0.559867
0.677737
0.851791
1.05839
0.520747
0.519611
1.04998
0.852395
0.673095
0.562048
0.494253
0.456473
0.432993
0.420407
0.414644
0.413567
0.418032
0.429749
0.451769
0.490813
0.559516
0.675509
0.852924
1.05856
0.520059
0.518438
1.04915
0.84979
0.672011
0.561624
0.493942
0.455717
0.433099
0.420663
0.414425
0.413658
0.418182
0.429202
0.451094
0.490247
0.558468
0.673528
0.850819
1.05089
0.516395
0.51388
1.03709
0.845096
0.670413
0.560301
0.493813
0.456639
0.433383
0.420595
0.414573
0.41411
0.41854
0.429183
0.451474
0.489131
0.556862
0.669894
0.85128
1.05506
0.514372
0.514175
1.03827
0.842509
0.668509
0.558529
0.493608
0.455833
0.434121
0.42119
0.414971
0.413988
0.418274
0.4291
0.449791
0.487658
0.555647
0.666279
0.847943
1.05363
0.513418
0.512584
1.03387
0.837475
0.666938
0.55793
0.494619
0.456903
0.434144
0.420862
0.414796
0.41397
0.418828
0.429854
0.44979
0.487343
0.55361
0.66343
0.842763
1.04988
0.512957
0.511081
1.02497
0.836154
0.665796
0.557413
0.493688
0.456732
0.434245
0.420936
0.414766
0.413778
0.418379
0.429121
0.449681
0.487408
0.551244
0.661131
0.837642
1.04693
0.510423
0.509109
1.02382
0.833415
0.664599
0.557143
0.493055
0.456572
0.434285
0.42126
0.414683
0.413584
0.418164
0.429653
0.449903
0.484471
0.548131
0.657279
0.828346
1.04168
0.509122
0.507266
1.0222
0.826426
0.662033
0.555932
0.493654
0.456007
0.434061
0.421103
0.414665
0.413418
0.417718
0.428643
0.448672
0.482854
0.546324
0.654326
0.822055
1.03585
0.507364
0.504561
1.01904
0.824613
0.660664
0.555064
0.491804
0.456702
0.434746
0.421301
0.414605
0.41323
0.417285
0.427831
0.447654
0.483267
0.546598
0.650497
0.815669
1.03603
0.505144
0.503533
1.01823
0.820569
0.658438
0.553678
0.491752
0.455475
0.434558
0.421714
0.414745
0.413093
0.416688
0.426393
0.445096
0.479546
0.542624
0.645178
0.809252
1.02588
0.502351
0.50183
1.01703
0.818363
0.656527
0.552001
0.493108
0.456427
0.434867
0.421894
0.414995
0.41307
0.416139
0.424865
0.442478
0.476135
0.539165
0.639755
0.802367
1.02227
0.497135
0.50062
1.01844
0.814241
0.653835
0.551635
0.491314
0.4552
0.43463
0.422112
0.415201
0.413327
0.415776
0.423803
0.440484
0.472703
0.534132
0.634386
0.798077
1.01709
0.492447
0.499729
1.01212
0.81086
0.650086
0.547569
0.488668
0.455161
0.434178
0.422296
0.415566
0.413615
0.415974
0.424347
0.440633
0.471457
0.530354
0.628791
0.791274
1.0099
0.485879
0.498874
1.01719
0.807754
0.646965
0.546701
0.488661
0.454828
0.434264
0.422592
0.41595
0.41389
0.416168
0.423239
0.438363
0.468605
0.52474
0.622966
0.784214
1.00004
0.481774
0.496503
1.01265
0.804193
0.644067
0.54225
0.484996
0.452698
0.434623
0.42301
0.416299
0.414055
0.415864
0.423515
0.436204
0.466667
0.522122
0.61982
0.77681
0.98665
0.477465
0.49449
1.00831
0.79993
0.639898
0.54157
0.486
0.453687
0.434198
0.423218
0.416655
0.41435
0.415858
0.422355
0.435259
0.465611
0.518971
0.61366
0.769289
0.977149
0.472501
0.488254
0.993316
0.793398
0.635691
0.538591
0.483899
0.452237
0.434223
0.423463
0.417018
0.414677
0.416032
0.421909
0.434195
0.460743
0.513938
0.606448
0.761838
0.973091
0.467049
0.48483
0.989347
0.788426
0.633271
0.538744
0.485521
0.452525
0.434921
0.423742
0.417364
0.415078
0.41672
0.422642
0.434014
0.460282
0.508698
0.599761
0.753458
0.968617
0.461958
0.480845
0.97798
0.781923
0.6302
0.540049
0.483072
0.452553
0.434159
0.423883
0.417642
0.415349
0.416819
0.421808
0.433467