/*--------------------------------*- C++ -*----------------------------------*\
  =========                 |
  \\      /  F ield         | OpenFOAM: The Open Source CFD Toolbox
   \\    /   O peration     | Website:  https://openfoam.org
    \\  /    A nd           | Version:  6
     \\/     M anipulation  |
\*---------------------------------------------------------------------------*/
FoamFile
{
    version     2.0;
    format      ascii;
    class       volScalarField;
    location    "16";
    object      nut;
}
// * * * * * * * * * * * * * * * * * * * * * * * * * * * * * * * * * * * * * //

dimensions      [0 2 -1 0 0 0 0];

internalField   nonuniform List<scalar> 
10000
(
1.41414e-05
6.86829e-05
9.0326e-05
0.000115102
0.000150741
0.000194285
0.000240016
0.000281129
0.000312042
0.000328456
0.00032863
0.00031254
0.000282015
0.000241744
0.000197688
0.000156154
0.000121453
9.44962e-05
7.0703e-05
1.42549e-05
1.41997e-05
6.83452e-05
9.0415e-05
0.000114947
0.00015283
0.000196858
0.000244132
0.00028563
0.000317381
0.00033345
0.000333417
0.000316643
0.000283596
0.000242724
0.000198472
0.000157295
0.000123052
9.55159e-05
7.09936e-05
1.41445e-05
1.41717e-05
6.89498e-05
9.08875e-05
0.000115917
0.000151259
0.000194867
0.000241379
0.000283422
0.000313589
0.000330555
0.000330915
0.000314557
0.000283458
0.000242811
0.000199189
0.000156226
0.000121666
9.41559e-05
7.04762e-05
1.41586e-05
1.4169e-05
6.91834e-05
9.10519e-05
0.000116139
0.000153371
0.000196393
0.000240362
0.000281728
0.000313503
0.000331874
0.000332614
0.000316514
0.000285763
0.00024457
0.000199376
0.000156643
0.000120648
9.4774e-05
7.03166e-05
1.41884e-05
1.42435e-05
6.99636e-05
9.13611e-05
0.000115978
0.000151861
0.00019744
0.000240716
0.000282094
0.000316419
0.000332171
0.000331967
0.000315112
0.000284059
0.000243423
0.000198825
0.00015958
0.00012304
9.29237e-05
7.0495e-05
1.40695e-05
1.40541e-05
7.03983e-05
9.16691e-05
0.000117071
0.000153743
0.000196254
0.000241918
0.000282175
0.000315052
0.000335806
0.000335691
0.00031866
0.000287022
0.000247228
0.000198418
0.000156542
0.000120757
9.44749e-05
7.0212e-05
1.41679e-05
1.41089e-05
6.97668e-05
9.18268e-05
0.000117693
0.000151902
0.00019446
0.000240124
0.000282413
0.000316982
0.000332617
0.000333872
0.000317199
0.000285999
0.000244414
0.000198354
0.00015853
0.000120951
9.57523e-05
6.96789e-05
1.42473e-05
1.41821e-05
7.00163e-05
9.19411e-05
0.000116095
0.00015294
0.000195726
0.000241641
0.000282524
0.000317439
0.000336266
0.000337029
0.000319082
0.000287015
0.000244968
0.000198714
0.000155536
0.000120673
9.39559e-05
7.0275e-05
1.41437e-05
1.43907e-05
7.00607e-05
9.30386e-05
0.00011571
0.000150231
0.000192767
0.00023933
0.000282151
0.000314386
0.000333304
0.000335307
0.000318571
0.000285424
0.000245411
0.000198602
0.000155441
0.000119678
9.33618e-05
7.04734e-05
1.42765e-05
1.42347e-05
7.01658e-05
9.1254e-05
0.000116674
0.000150353
0.000192733
0.000240022
0.000283885
0.000316151
0.000335572
0.000338761
0.000320878
0.000285661
0.000245063
0.00020107
0.000157772
0.000121593
9.36796e-05
7.07825e-05
1.42298e-05
1.42524e-05
6.89586e-05
9.04723e-05
0.00011848
0.000152082
0.000193284
0.000237527
0.000281454
0.000311343
0.000329456
0.000334579
0.000318565
0.000285568
0.000243963
0.000200337
0.000155574
0.000119739
9.35254e-05
7.01585e-05
1.41725e-05
1.41072e-05
6.93552e-05
9.12349e-05
0.00011712
0.000149349
0.000191477
0.000236679
0.000278888
0.000310686
0.00032797
0.000330514
0.000314929
0.000288169
0.000244663
0.00020001
0.000155735
0.000118639
9.23602e-05
7.03087e-05
1.40322e-05
1.42671e-05
6.93506e-05
9.21317e-05
0.000118572
0.000149349
0.000192084
0.00023682
0.000278401
0.000312591
0.000327754
0.000328967
0.000314212
0.000284608
0.000243346
0.000200477
0.000157518
0.000120019
9.19064e-05
6.97393e-05
1.39767e-05
1.42445e-05
6.94721e-05
9.01795e-05
0.000117161
0.000149147
0.000191641
0.000237138
0.000279034
0.000309701
0.000327403
0.000329827
0.00031642
0.00028405
0.00024335
0.000200612
0.000155762
0.000118695
9.27426e-05
6.95452e-05
1.3984e-05
1.4333e-05
6.98602e-05
9.0864e-05
0.000115264
0.000149224
0.000193315
0.000239583
0.000278736
0.000310082
0.000328601
0.000327791
0.000312418
0.000285394
0.000245348
0.000198526
0.000153917
0.000117791
9.31186e-05
7.03381e-05
1.40473e-05
1.43296e-05
6.94821e-05
9.15643e-05
0.00011552
0.000149615
0.000194871
0.000240829
0.000279304
0.000310366
0.000328394
0.000329452
0.000313524
0.000283947
0.0002411
0.000199231
0.000153591
0.000118625
9.36936e-05
7.00636e-05
1.4232e-05
1.43773e-05
6.96092e-05
9.15031e-05
0.000115389
0.000149713
0.000193096
0.000238901
0.000280338
0.000312163
0.000331529
0.000330256
0.000313266
0.000281506
0.000240651
0.000197112
0.00015379
0.000120391
9.37972e-05
7.04691e-05
1.42599e-05
1.43788e-05
6.97673e-05
9.05783e-05
0.00011558
0.000150206
0.000193627
0.000238311
0.000279402
0.000311238
0.000329893
0.000333714
0.000317542
0.000285982
0.00024337
0.000199377
0.000155271
0.000119648
9.31565e-05
7.01013e-05
1.42155e-05
1.44668e-05
7.00338e-05
9.00405e-05
0.000115648
0.000152579
0.000195833
0.000241
0.000282206
0.000314374
0.000333477
0.000333287
0.000315496
0.00028331
0.000242256
0.000197687
0.000154311
0.000118896
9.23676e-05
7.04183e-05
1.41258e-05
1.43848e-05
7.02553e-05
9.14699e-05
0.000115964
0.000150403
0.00019371
0.000240171
0.000280073
0.000311749
0.000332452
0.000333666
0.000314449
0.000282966
0.000241758
0.000196605
0.000153312
0.000117208
9.16968e-05
6.96626e-05
1.41927e-05
1.44344e-05
6.95027e-05
9.08771e-05
0.000115404
0.000150398
0.000195875
0.000239748
0.000279795
0.000311096
0.000328599
0.000330534
0.000316923
0.000283091
0.000242493
0.000196009
0.000152753
0.000118862
9.30834e-05
6.95277e-05
1.4117e-05
1.43313e-05
6.98928e-05
9.29213e-05
0.000118023
0.00015281
0.000195719
0.000241374
0.00028074
0.000311635
0.000329132
0.000328405
0.000312725
0.000283993
0.000242815
0.000197312
0.000153371
0.000120409
9.43036e-05
7.00282e-05
1.42046e-05
1.42837e-05
6.98014e-05
9.09633e-05
0.000115387
0.000151099
0.000197889
0.000241128
0.000281769
0.000312958
0.000329499
0.00032918
0.000313328
0.000284527
0.000244243
0.000199883
0.000155227
0.000120474
9.35704e-05
6.99835e-05
1.41385e-05
1.43036e-05
6.94146e-05
9.27315e-05
0.000116501
0.000151766
0.000196635
0.000242061
0.000283378
0.000315383
0.000334498
0.000333256
0.000314099
0.000283715
0.000243833
0.000198014
0.000153525
0.000119626
9.37577e-05
6.97684e-05
1.42717e-05
1.41992e-05
6.98443e-05
9.06509e-05
0.00011591
0.000154055
0.00019675
0.000242324
0.000284156
0.000316164
0.000332043
0.000331868
0.000316515
0.000287497
0.000243176
0.000196533
0.000154154
0.00012013
9.49815e-05
7.07877e-05
1.42487e-05
1.40912e-05
6.96435e-05
9.222e-05
0.000117562
0.00015417
0.000196938
0.000241375
0.000283053
0.000313638
0.000331251
0.000330861
0.000313784
0.000284438
0.000243411
0.000197631
0.000156586
0.000121172
9.43618e-05
7.0527e-05
1.43009e-05
1.42417e-05
6.94741e-05
9.06543e-05
0.000116927
0.000154091
0.000198912
0.000242339
0.000282285
0.000312526
0.000329214
0.000332147
0.000315428
0.000283421
0.000243995
0.000197581
0.000155318
0.000120762
9.52007e-05
7.03966e-05
1.43336e-05
1.43197e-05
6.92104e-05
9.19577e-05
0.000117417
0.000153399
0.000196958
0.000245873
0.000286479
0.000316693
0.000331443
0.000328725
0.000312367
0.00028398
0.000242655
0.000199532
0.000157218
0.000121948
9.45574e-05
7.1103e-05
1.432e-05
1.42604e-05
6.96136e-05
9.23871e-05
0.000118957
0.000156201
0.000197121
0.000243921
0.000282633
0.000312591
0.000329657
0.000329125
0.000312565
0.000282658
0.000242789
0.000197795
0.000155431
0.00011984
9.31185e-05
7.07845e-05
1.42495e-05
1.44207e-05
7.0449e-05
9.34199e-05
0.000117245
0.000154066
0.00019616
0.000244636
0.000283429
0.00031315
0.000328914
0.000332005
0.000314863
0.000284126
0.000246235
0.000199812
0.000158423
0.000123129
9.53073e-05
7.09939e-05
1.44118e-05
1.4415e-05
6.96541e-05
9.28334e-05
0.000115872
0.000152516
0.000196483
0.000241631
0.000282108
0.000312104
0.000328742
0.000329187
0.000314211
0.000286295
0.000245398
0.00019965
0.000157949
0.000122507
9.45624e-05
7.13458e-05
1.43654e-05
1.42781e-05
7.02186e-05
9.28607e-05
0.000116515
0.000152098
0.000195444
0.000244132
0.000285873
0.00031602
0.000331916
0.000330342
0.000316069
0.000286524
0.000245908
0.000200354
0.000157624
0.000122192
9.50541e-05
7.10413e-05
1.43959e-05
1.42532e-05
7.00577e-05
9.22397e-05
0.00011725
0.000152495
0.000195198
0.000240413
0.000281494
0.000311967
0.000328627
0.000331547
0.000316644
0.000286624
0.000246016
0.000201883
0.000155851
0.000120976
9.48575e-05
7.10005e-05
1.42979e-05
1.42743e-05
7.00463e-05
9.16788e-05
0.000117496
0.000153257
0.000197408
0.000244064
0.000281714
0.000311672
0.000329239
0.000330193
0.00031571
0.000286374
0.000246039
0.000199551
0.000155864
0.000122124
9.30142e-05
7.0845e-05
1.41807e-05
1.42198e-05
7.01413e-05
9.26322e-05
0.000120137
0.000155849
0.000197632
0.000241667
0.00028195
0.00031194
0.000328704
0.000328657
0.000316364
0.000286811
0.000245893
0.000200392
0.000157054
0.000120137
9.48719e-05
7.06492e-05
1.4367e-05
1.41593e-05
6.99605e-05
9.34292e-05
0.000120302
0.000154373
0.00019826
0.000244471
0.000283967
0.000315086
0.000329869
0.00032791
0.000315058
0.000283308
0.000242384
0.000197632
0.000154569
0.000119887
9.4358e-05
7.06901e-05
1.42418e-05
1.42008e-05
6.98452e-05
9.24501e-05
0.000119751
0.000155586
0.000196652
0.000241114
0.000281636
0.00031135
0.000326771
0.000326416
0.000310796
0.000281685
0.000240297
0.000196323
0.000154312
0.000120743
9.2839e-05
7.05921e-05
1.44105e-05
1.41396e-05
7.0153e-05
9.2494e-05
0.000117911
0.000153877
0.000199329
0.000245049
0.000285633
0.000314126
0.000328467
0.000326807
0.000311754
0.000280491
0.000241838
0.000197112
0.000155628
0.000118193
9.45469e-05
7.07087e-05
1.43798e-05
1.41739e-05
7.02302e-05
9.32574e-05
0.000119629
0.000156131
0.000198163
0.000242626
0.000285959
0.000314878
0.000327399
0.000326481
0.00031027
0.000280034
0.000240603
0.000198921
0.000153764
0.000117131
9.37268e-05
7.08424e-05
1.43949e-05
1.43437e-05
7.02487e-05
9.31043e-05
0.000117942
0.000154542
0.000195951
0.00024408
0.000284605
0.000314493
0.000328519
0.000327193
0.000311013
0.000280621
0.000241607
0.000195711
0.000155353
0.000117918
9.25923e-05
7.00231e-05
1.42707e-05
1.4274e-05
7.03876e-05
9.24143e-05
0.000119479
0.000153518
0.000195594
0.000240724
0.000281216
0.000311555
0.000327945
0.00032769
0.000313754
0.000281857
0.000241511
0.000195987
0.000153156
0.000119722
9.34291e-05
6.96219e-05
1.41157e-05
1.44305e-05
7.05613e-05
9.24841e-05
0.000119173
0.000153809
0.000197946
0.00024332
0.000282315
0.000313446
0.000329317
0.000329168
0.000312862
0.000281729
0.00024148
0.000195724
0.000153159
0.000117316
9.20127e-05
6.95511e-05
1.41847e-05
1.44649e-05
7.07263e-05
9.29315e-05
0.000119445
0.00015543
0.000196718
0.000244522
0.000283718
0.00031658
0.000332437
0.000329861
0.000312953
0.000280828
0.000240178
0.000197817
0.000154788
0.000117595
9.13781e-05
6.94736e-05
1.40343e-05
1.4267e-05
7.10029e-05
9.37581e-05
0.000119385
0.000154258
0.000196633
0.000243277
0.000286541
0.000315264
0.000330646
0.000330975
0.000313766
0.000281866
0.000240685
0.000196132
0.000154068
0.000119069
9.24584e-05
6.94958e-05
1.40328e-05
1.41983e-05
7.02882e-05
9.22151e-05
0.000117203
0.000152651
0.000197745
0.000242903
0.00028474
0.000314912
0.000331696
0.000332454
0.000316078
0.000285702
0.000243797
0.000198545
0.000152923
0.000117936
9.15118e-05
6.98812e-05
1.4008e-05
1.42199e-05
7.02721e-05
9.19444e-05
0.000117456
0.000152573
0.0001977
0.000245449
0.000287033
0.00031657
0.000331201
0.000329796
0.000314221
0.000285477
0.000242996
0.000197116
0.000152955
0.000118148
9.16081e-05
6.93007e-05
1.40056e-05
1.4148e-05
6.99505e-05
9.15003e-05
0.000117644
0.000152675
0.000196533
0.000240538
0.00028356
0.000313453
0.000333827
0.000329521
0.000312097
0.000282813
0.00024068
0.000195879
0.000153288
0.000119427
9.28846e-05
6.9475e-05
1.40003e-05
1.40146e-05
6.93601e-05
9.21103e-05
0.000117791
0.000152979
0.00019633
0.000240151
0.000281077
0.000311882
0.000329295
0.000329337
0.000312057
0.000282514
0.000243022
0.000196928
0.000153128
0.000118061
9.15997e-05
6.95212e-05
1.41084e-05
1.41219e-05
6.94083e-05
9.27252e-05
0.000118135
0.000153365
0.000196295
0.000240423
0.000281453
0.00031202
0.000328961
0.000331924
0.000313159
0.000281848
0.000241247
0.000194896
0.000153219
0.000118496
9.30021e-05
6.95955e-05
1.40734e-05
1.40346e-05
6.97637e-05
9.23996e-05
0.000117786
0.000154921
0.000196178
0.000240917
0.000282495
0.00031344
0.000329598
0.000329454
0.000312078
0.000282296
0.000243458
0.000195422
0.000154839
0.000119042
9.09487e-05
6.91718e-05
1.3914e-05
1.40737e-05
6.9985e-05
9.16394e-05
0.000118015
0.000153509
0.000197546
0.000243272
0.000285896
0.000313636
0.00033118
0.000328824
0.000312942
0.00028246
0.000242759
0.000195397
0.000152726
0.000117372
9.1175e-05
6.97979e-05
1.39981e-05
1.40212e-05
6.93382e-05
9.19029e-05
0.000118251
0.000155444
0.000198182
0.000241813
0.000282771
0.000312939
0.000329195
0.000329064
0.000312887
0.00028227
0.000241328
0.000195915
0.000153537
0.000118076
9.17686e-05
6.95158e-05
1.40222e-05
1.40022e-05
6.94254e-05
9.28584e-05
0.000118831
0.000154623
0.000198173
0.000243658
0.00028549
0.000314353
0.000331249
0.000331303
0.000315156
0.000284574
0.000243612
0.000196818
0.000153666
0.000118339
9.27566e-05
6.91365e-05
1.3938e-05
1.38547e-05
6.92656e-05
9.16192e-05
0.000119961
0.000154883
0.000197509
0.000242571
0.000283869
0.000315815
0.000332275
0.000334402
0.000317995
0.000286702
0.000244857
0.000199831
0.000154134
0.000118909
9.14465e-05
6.95955e-05
1.39848e-05
1.38235e-05
6.92962e-05
9.25473e-05
0.000118634
0.000156325
0.00019977
0.000244282
0.000285758
0.000319164
0.000336211
0.00033538
0.000318432
0.000287077
0.000243976
0.000197811
0.000154464
0.000119812
9.23733e-05
6.91531e-05
1.38845e-05
1.38873e-05
6.91005e-05
9.12012e-05
0.000119542
0.0001553
0.000200137
0.000245837
0.000289254
0.000320638
0.000337451
0.000336116
0.000321988
0.00029037
0.000245326
0.000199858
0.000155149
0.000119384
9.14047e-05
6.94711e-05
1.39603e-05
1.39126e-05
6.92545e-05
9.14014e-05
0.000118926
0.000155867
0.00020283
0.000250261
0.000290436
0.000323359
0.000340717
0.000340893
0.000323315
0.000289931
0.000247538
0.000200639
0.000155367
0.000119547
9.10278e-05
6.92051e-05
1.38922e-05
1.38549e-05
6.87856e-05
9.15126e-05
0.000119398
0.000157986
0.000203883
0.000251378
0.000292809
0.000322939
0.000340027
0.000340092
0.000323492
0.000292436
0.000247578
0.000200677
0.000156059
0.000119188
9.11958e-05
6.91707e-05
1.39005e-05
1.38499e-05
6.88201e-05
9.18921e-05
0.000120271
0.00015825
0.000204568
0.000253199
0.000294484
0.000324973
0.000342149
0.000344166
0.0003248
0.000291959
0.000249135
0.000202151
0.000158664
0.000119732
9.21398e-05
6.92541e-05
1.3892e-05
1.37697e-05
6.8835e-05
9.23706e-05
0.000120195
0.000159976
0.000207564
0.000255402
0.000297961
0.000329288
0.000346394
0.000348229
0.000331455
0.000296825
0.000252203
0.000204385
0.000157502
0.000120811
9.1434e-05
6.88963e-05
1.37664e-05
1.36487e-05
6.86978e-05
9.14781e-05
0.000120473
0.000159685
0.000207592
0.000257845
0.000301125
0.000331479
0.000347172
0.000347953
0.00033178
0.000298997
0.000253742
0.00020563
0.000159255
0.000121118
9.2491e-05
6.94197e-05
1.38175e-05
1.36577e-05
6.91601e-05
9.24654e-05
0.000122449
0.000162983
0.000209784
0.000259028
0.000302707
0.000335314
0.000353494
0.000352644
0.000335998
0.000301219
0.000256137
0.000207215
0.000160466
0.000121557
9.20148e-05
6.88301e-05
1.37965e-05
1.36147e-05
6.88084e-05
9.19152e-05
0.000122218
0.000163287
0.000213164
0.000262064
0.000307083
0.000339675
0.000355997
0.000355729
0.000338758
0.000305665
0.000260207
0.000209202
0.000161343
0.000121991
9.20151e-05
6.9214e-05
1.36892e-05
1.35458e-05
6.91915e-05
9.18797e-05
0.000122716
0.000164192
0.000214363
0.000264187
0.000308821
0.000341395
0.000358657
0.000359329
0.00034154
0.000307796
0.000261038
0.000211985
0.000163271
0.000122608
9.20319e-05
6.86584e-05
1.36347e-05
1.35088e-05
6.90367e-05
9.28722e-05
0.000124561
0.00016684
0.000216712
0.000267812
0.000311884
0.000345648
0.00036223
0.000362018
0.000344235
0.000310562
0.000263517
0.000212931
0.000163712
0.000123249
9.23982e-05
6.90442e-05
1.35811e-05
1.34304e-05
6.89299e-05
9.31344e-05
0.000124969
0.000167641
0.000219293
0.000270357
0.000314759
0.0003476
0.000365472
0.000365453
0.000347778
0.000314727
0.00026801
0.000213864
0.00016501
0.000124259
9.26528e-05
6.87086e-05
1.35178e-05
1.33666e-05
6.87345e-05
9.3083e-05
0.000125786
0.000169586
0.000221376
0.000273317
0.00031805
0.000352422
0.000371194
0.000371067
0.000352783
0.000317963
0.000270295
0.000215557
0.000165829
0.000124436
9.24499e-05
6.85745e-05
1.34476e-05
1.3334e-05
6.87362e-05
9.3296e-05
0.000125667
0.000168956
0.000222429
0.00027577
0.000322266
0.000356583
0.000375215
0.000375175
0.000356824
0.000321716
0.000273493
0.000218533
0.000167205
0.000124873
9.25351e-05
6.83084e-05
1.33492e-05
1.32675e-05
6.87047e-05
9.34086e-05
0.000125608
0.000169045
0.000223317
0.000278328
0.000325924
0.000361377
0.000380431
0.000380386
0.000361628
0.000326022
0.00027649
0.000219043
0.000168284
0.000125434
9.27762e-05
6.85799e-05
1.33101e-05
1.3195e-05
6.86854e-05
9.34421e-05
0.000125958
0.000171479
0.000223635
0.00028094
0.000329928
0.000366232
0.000385952
0.00038633
0.000366902
0.000329742
0.000278913
0.000220209
0.000168999
0.000125661
9.28525e-05
6.8438e-05
1.32206e-05
1.3089e-05
6.85884e-05
9.32831e-05
0.000126056
0.000170449
0.000225998
0.000283785
0.000333828
0.000371064
0.000391198
0.00039105
0.000371018
0.000333306
0.00028156
0.000221386
0.000169526
0.000125278
9.25319e-05
6.82764e-05
1.31192e-05
1.29855e-05
6.82123e-05
9.29416e-05
0.000127755
0.000172085
0.000225563
0.000286312
0.000338158
0.000376232
0.000396622
0.000396596
0.000375994
0.000337001
0.0002839
0.000222492
0.00016862
0.000124549
9.24255e-05
6.82998e-05
1.30574e-05
1.28718e-05
6.79895e-05
9.24149e-05
0.00012693
0.0001723
0.000227523
0.000288871
0.000343184
0.000382237
0.000402579
0.000402084
0.000380714
0.000340757
0.000286193
0.000223711
0.000167721
0.000124386
9.23457e-05
6.83661e-05
1.29588e-05
1.27286e-05
6.76406e-05
9.18553e-05
0.000126924
0.000172836
0.000230166
0.000294449
0.000348527
0.000388084
0.000408814
0.000408287
0.000386368
0.00034542
0.000288691
0.000226163
0.000169247
0.000126929
9.22367e-05
6.80656e-05
1.28199e-05
1.25572e-05
6.73004e-05
9.15082e-05
0.000127415
0.000175015
0.000233381
0.000298338
0.000354094
0.000394794
0.000416126
0.000415513
0.000392916
0.000351302
0.000295195
0.000229151
0.000170512
0.000126077
9.1821e-05
6.80092e-05
1.26557e-05
1.2326e-05
6.66898e-05
9.09169e-05
0.000127728
0.000176355
0.000238266
0.000303779
0.000360416
0.000402105
0.000424045
0.000423561
0.000400555
0.000357811
0.000299983
0.000232718
0.00017271
0.000127159
9.15543e-05
6.74298e-05
1.23839e-05
1.20911e-05
6.61629e-05
9.04394e-05
0.000128483
0.000177485
0.00023919
0.000307998
0.000366981
0.000410162
0.000432916
0.000432537
0.000409037
0.000365236
0.000305983
0.000237118
0.000175384
0.000128196
9.13851e-05
6.71136e-05
1.2104e-05
1.1773e-05
6.55871e-05
8.98039e-05
0.000129144
0.000179027
0.00024481
0.00031451
0.000374675
0.000419
0.000442418
0.000442079
0.000418052
0.000373311
0.000312821
0.000242397
0.000179171
0.000130103
9.11287e-05
6.64659e-05
1.16947e-05
1.13829e-05
6.46715e-05
8.90805e-05
0.000130262
0.000182967
0.000247245
0.000318931
0.000381707
0.000427745
0.000452154
0.000452133
0.000427732
0.000382023
0.000320309
0.000248787
0.000184217
0.000131614
9.07563e-05
6.56045e-05
1.12379e-05
1.09752e-05
6.36214e-05
8.84617e-05
0.000131273
0.000189823
0.000253615
0.000323087
0.000387897
0.00043598
0.000461628
0.000462047
0.000437289
0.000390685
0.000328245
0.000257707
0.00018844
0.000133072
9.05492e-05
6.47979e-05
1.07731e-05
1.05611e-05
6.28907e-05
8.83009e-05
0.000132567
0.000193078
0.000259932
0.000331213
0.000395142
0.000443044
0.000469526
0.000470585
0.00044534
0.000397552
0.000334351
0.000264771
0.00019427
0.000135867
9.04996e-05
6.36508e-05
1.02884e-05
1.01346e-05
6.20347e-05
8.86563e-05
0.000134628
0.000198625
0.000269305
0.00034247
0.000409829
0.000456186
0.00048204
0.000482526
0.000457121
0.000409188
0.000345302
0.000274448
0.000200349
0.000138883
9.0772e-05
6.26753e-05
9.93399e-06
9.76679e-06
6.19691e-05
9.09552e-05
0.000139286
0.000206077
0.000280953
0.000355848
0.000422105
0.00047153
0.000498129
0.000498763
0.000473001
0.000424154
0.000358815
0.000286075
0.000209695
0.000143579
9.20322e-05
6.18107e-05
9.6678e-06
9.42056e-06
6.13475e-05
9.36787e-05
0.000147422
0.000219609
0.000300222
0.000377774
0.000444987
0.000492282
0.000518621
0.000519484
0.000496094
0.000446767
0.000379168
0.000301134
0.000220935
0.000150352
9.421e-05
6.12096e-05
9.51557e-06
9.48389e-06
6.11539e-05
9.73391e-05
0.000156801
0.00023519
0.000317336
0.000396147
0.000465848
0.000514998
0.000541884
0.000542564
0.000517488
0.000466607
0.000397491
0.000318909
0.000237319
0.000162067
9.84423e-05
6.11784e-05
9.53791e-06
9.648e-06
6.14422e-05
0.000102991
0.000169529
0.00025155
0.000338794
0.000421904
0.000490462
0.00054191
0.000569313
0.000569545
0.000541854
0.000488977
0.000417416
0.000336077
0.000252129
0.000171904
0.000104055
6.1671e-05
9.7875e-06
1.00393e-05
6.27717e-05
0.000110454
0.000182643
0.000269826
0.000360415
0.000445865
0.000518513
0.000573609
0.000600265
0.000599798
0.000571052
0.000516285
0.000441804
0.0003574
0.000268639
0.00018415
0.000111253
6.27024e-05
1.00736e-05
1.04549e-05
6.46743e-05
0.000120035
0.000198327
0.000289386
0.000382072
0.000471767
0.00054834
0.000603792
0.000632584
0.000632479
0.000603596
0.000548982
0.000469569
0.000379432
0.000287303
0.000196916
0.000118829
6.42247e-05
1.04933e-05
1.10361e-05
6.65231e-05
0.000127888
0.000212216
0.000309432
0.000407195
0.000501058
0.000581314
0.000637487
0.000666174
0.000666045
0.000637065
0.000580437
0.000499118
0.000404549
0.000306539
0.000210455
0.000126847
6.57402e-05
1.11063e-05
1.17471e-05
6.79018e-05
0.000135486
0.00022714
0.000330967
0.000435948
0.000531195
0.000611217
0.000666213
0.000694187
0.000694074
0.000665788
0.000610312
0.000529817
0.000433912
0.000327321
0.00022534
0.000134579
6.77981e-05
1.16838e-05
1.24997e-05
6.97142e-05
0.00014393
0.000242584
0.00035295
0.000461595
0.000561666
0.00064042
0.000694306
0.000721507
0.000721406
0.00069397
0.000639809
0.000560951
0.000461795
0.000351688
0.00024233
0.000144063
6.96941e-05
1.25536e-05
1.35493e-05
7.11829e-05
0.000152733
0.000258755
0.000376234
0.000490868
0.000590799
0.000668928
0.000721259
0.000747308
0.000747248
0.000721034
0.000668352
0.000589448
0.00048984
0.000375258
0.000258112
0.000152691
7.10889e-05
1.34875e-05
1.46509e-05
7.4777e-05
0.000164168
0.000278169
0.000402653
0.000521156
0.000621193
0.000697339
0.00074703
0.000771318
0.000771361
0.000747219
0.000697791
0.000622138
0.000520624
0.000402304
0.000277812
0.000163944
7.45463e-05
1.46486e-05
1.59173e-05
7.9279e-05
0.000177703
0.000300645
0.000433166
0.000555932
0.000655519
0.000726939
0.000772056
0.000793538
0.000793518
0.000771965
0.000726613
0.000654469
0.000554947
0.000432282
0.000299992
0.000177417
7.94531e-05
1.59516e-05
1.73868e-05
8.69558e-05
0.000194573
0.000328149
0.000469712
0.000595458
0.000692016
0.000757498
0.000796284
0.000813959
0.000813958
0.000796293
0.000757541
0.000692141
0.000595655
0.000469978
0.000328392
0.000194499
8.67349e-05
1.7347e-05
1.88525e-05
9.71157e-05
0.000217376
0.000365265
0.000516359
0.000642611
0.000731845
0.000787203
0.000817497
0.000830454
0.000830441
0.000817454
0.000787114
0.000731671
0.000642319
0.000515878
0.0003647
0.000217184
9.72246e-05
1.88878e-05
2.0496e-05
0.000112392
0.000248071
0.000413738
0.000574904
0.000696553
0.000772728
0.000814117
0.000833621
0.00084072
0.000840713
0.000833614
0.000814105
0.000772696
0.000696553
0.000574907
0.00041375
0.000247992
0.000112191
2.04696e-05
2.21091e-05
0.000132848
0.000293804
0.000488408
0.000653653
0.000758371
0.000812283
0.000835411
0.000844045
0.000847315
0.000847312
0.00084403
0.000835385
0.000812244
0.000758279
0.000653517
0.000488258
0.0002937
0.000132803
2.2126e-05
2.37498e-05
0.000165941
0.000385706
0.000608327
0.000750427
0.000813266
0.000837225
0.000845653
0.00084965
0.000851101
0.000851111
0.000849688
0.000845753
0.000837368
0.000813267
0.000750213
0.000608014
0.000385253
0.000165653
2.37547e-05
2.56294e-05
0.000278599
0.000620659
0.000792488
0.00083851
0.000848561
0.000850299
0.0008517
0.000851989
0.000851969
0.000851969
0.000851989
0.000851713
0.000850343
0.000848702
0.000838751
0.000792678
0.000620916
0.000278784
2.56287e-05
3.81999e-05
0.000108228
0.000127698
0.000144987
0.000170112
0.000207541
0.000254332
0.00030329
0.000344854
0.000367719
0.000365283
0.000337878
0.000295374
0.000246886
0.000201211
0.000164981
0.000141474
0.000125444
0.000108422
3.81325e-05
3.81799e-05
0.000107984
0.000128206
0.000146397
0.000172913
0.000208895
0.000255758
0.000304933
0.000347025
0.000370149
0.0003677
0.000339743
0.00029712
0.000250958
0.000205213
0.00016447
0.000139758
0.000123206
0.000108566
3.79743e-05
3.79326e-05
0.00010711
0.000127308
0.000144298
0.000167317
0.000210855
0.000259126
0.00030872
0.000352114
0.000375869
0.000373795
0.000340573
0.000296872
0.00024617
0.000200244
0.000166839
0.000141381
0.000124069
0.000108967
3.78027e-05
3.75365e-05
0.000109727
0.000130484
0.000143996
0.000168362
0.000206143
0.000253987
0.000303888
0.000346982
0.000370201
0.000368354
0.000342045
0.000301293
0.000246934
0.000201069
0.000170882
0.000145125
0.000124204
0.00010732
3.81946e-05
3.75598e-05
0.000109639
0.000134545
0.00014841
0.000169674
0.00020672
0.00025536
0.000304277
0.000353114
0.000377183
0.000374366
0.000342792
0.00029787
0.000247531
0.000200727
0.000166607
0.00014145
0.000125005
0.000108387
3.80857e-05
3.75535e-05
0.000111074
0.000132425
0.000148537
0.000171238
0.000207378
0.000257827
0.000303272
0.000349689
0.000374544
0.000373497
0.000347716
0.000299255
0.000248653
0.000201079
0.000167308
0.000143827
0.000127285
0.00010682
3.77165e-05
3.74905e-05
0.000107032
0.000130754
0.000149083
0.00017644
0.000208242
0.000253822
0.000303032
0.000354588
0.00037238
0.000373803
0.000346397
0.000303556
0.00025327
0.000201815
0.000169575
0.00014744
0.000128138
0.000108047
3.70273e-05
3.77846e-05
0.000108631
0.000131875
0.000152062
0.00017216
0.000208091
0.000254886
0.000303893
0.000349919
0.000373884
0.000372149
0.000343276
0.000300889
0.000250974
0.00020156
0.000166663
0.000143497
0.000128136
0.000105787
3.71531e-05
3.73718e-05
0.000111348
0.000132728
0.000145093
0.000171038
0.000211678
0.000258596
0.000304375
0.000345389
0.000367839
0.000368292
0.000343361
0.000303464
0.000249254
0.000202337
0.000166051
0.000145803
0.000125485
0.000108744
3.73579e-05
3.78202e-05
0.000113309
0.00012817
0.000150414
0.000177182
0.000209248
0.000253403
0.000307336
0.000350294
0.000369763
0.000373162
0.00034424
0.000299557
0.00024997
0.000203775
0.000169887
0.000139743
0.000127137
0.000106322
3.72209e-05
3.81233e-05
0.000109878
0.00013343
0.000148562
0.000173686
0.000211382
0.000253798
0.000304229
0.000347504
0.000373325
0.000368513
0.000348432
0.000303655
0.000254288
0.000206463
0.000166144
0.000144371
0.000123651
0.00010666
3.69105e-05
3.78947e-05
0.000107512
0.000130701
0.000147742
0.000170267
0.000206813
0.000254019
0.00030654
0.000344175
0.000371005
0.000369094
0.000343285
0.000299944
0.000252998
0.000205819
0.000168204
0.000141696
0.000125313
0.000105978
3.67007e-05
3.75559e-05
0.000106662
0.000125518
0.000143007
0.000169883
0.000208002
0.000255102
0.000304114
0.000344816
0.000368759
0.0003758
0.000349193
0.000300922
0.000253648
0.000205932
0.000164735
0.000138198
0.000126389
0.000105964
3.67847e-05
3.84175e-05
0.000106917
0.000127484
0.000146613
0.000169786
0.000209241
0.000256553
0.000308404
0.00034969
0.000368832
0.000374273
0.00034623
0.000301134
0.000252495
0.000206147
0.000170418
0.000135425
0.000124325
0.000103702
3.68249e-05
3.82829e-05
0.00010904
0.00012926
0.000149577
0.000175181
0.000213494
0.000257823
0.000304592
0.000344967
0.000368667
0.000373904
0.000342405
0.000303919
0.000250057
0.000203
0.00016757
0.000139014
0.000126436
0.000106362
3.72873e-05
3.84867e-05
0.000110235
0.000133501
0.000148389
0.00017174
0.000209532
0.000260044
0.000305288
0.000345796
0.000368737
0.000370902
0.000341453
0.000299446
0.00025328
0.000207836
0.000171945
0.000141225
0.000121044
0.000109631
3.6782e-05
3.8759e-05
0.000110923
0.000129038
0.000148301
0.00017353
0.000209722
0.00025819
0.000307774
0.000351016
0.000373327
0.000378752
0.000342646
0.000302479
0.000249773
0.000203735
0.00016788
0.000143059
0.000121951
0.000108073
3.71997e-05
3.81404e-05
0.000108074
0.000127299
0.000144991
0.000176637
0.000210727
0.000256735
0.000304219
0.000347797
0.000366681
0.000371278
0.000341865
0.000299973
0.000253548
0.000207779
0.000171102
0.000141859
0.000122964
0.000109878
3.73524e-05
3.89555e-05
0.000111144
0.000130577
0.000150768
0.000173722
0.000210399
0.000255928
0.000304807
0.000347863
0.000366709
0.000365922
0.00034534
0.000302987
0.000251129
0.000205516
0.000167638
0.000147396
0.000126368
0.000108431
3.72745e-05
3.8966e-05
0.000113271
0.000131317
0.000145854
0.000171908
0.00021374
0.000257295
0.000306083
0.000345824
0.000367921
0.00036655
0.000340838
0.000298334
0.000248448
0.000206518
0.000166638
0.000144846
0.00012506
0.000109605
3.75471e-05
3.84781e-05
0.000111231
0.000133051
0.000150286
0.000171248
0.000210976
0.000257787
0.000306031
0.000347282
0.000370665
0.000368578
0.000341931
0.000303061
0.000248253
0.000204087
0.000165863
0.00014271
0.000127059
0.000106877
3.74541e-05
3.78253e-05
0.000107857
0.000128187
0.00014369
0.000173487
0.000215088
0.000259849
0.000306205
0.000351988
0.000377019
0.000374856
0.000342928
0.000300693
0.000248877
0.000201862
0.000165084
0.00014564
0.000122519
0.000106638
3.75883e-05
3.83587e-05
0.000108218
0.000128898
0.000143496
0.000170084
0.000211239
0.000262701
0.000309011
0.000349077
0.000374793
0.000372739
0.000344468
0.000306587
0.000252445
0.00020264
0.000169882
0.000142661
0.000122461
0.000106898
3.72444e-05
3.79861e-05
0.000110431
0.000127375
0.000141242