/*--------------------------------*- C++ -*----------------------------------*\
  =========                 |
  \\      /  F ield         | OpenFOAM: The Open Source CFD Toolbox
   \\    /   O peration     | Website:  https://openfoam.org
    \\  /    A nd           | Version:  6
     \\/     M anipulation  |
\*---------------------------------------------------------------------------*/
FoamFile
{
    version     2.0;
    format      ascii;
    class       volScalarField;
    location    "16";
    object      nut;
}
// * * * * * * * * * * * * * * * * * * * * * * * * * * * * * * * * * * * * * //

dimensions      [0 2 -1 0 0 0 0];

internalField   nonuniform List<scalar> 
130000
(
0.000895268
0.000899363
0.000902669
0.000905105
0.000906775
0.000907786
0.000908242
0.000908243
0.000907879
0.000907229
0.000906358
0.00090532
0.000904154
0.000902899
0.000901588
0.000900241
0.000898878
0.000897512
0.000896145
0.00089477
0.000895244
0.000899347
0.000902645
0.000905069
0.000906724
0.000907719
0.000908159
0.000908144
0.000907762
0.000907093
0.000906209
0.000905162
0.000904
0.000902759
0.000901459
0.000900114
0.00089874
0.000897352
0.000895967
0.000894593
0.000895338
0.000899452
0.000902751
0.000905171
0.000906815
0.000907797
0.000908227
0.00090821
0.000907838
0.000907193
0.000906333
0.000905311
0.000904172
0.000902955
0.000901651
0.000900281
0.000898865
0.000897413
0.000895936
0.000894494
0.000895479
0.000899609
0.000902913
0.000905337
0.000906994
0.000908006
0.000908473
0.000908491
0.000908159
0.000907524
0.000906655
0.000905613
0.000904444
0.000903207
0.000901869
0.000900463
0.000899002
0.000897491
0.000895926
0.000894398
0.000895641
0.000899799
0.000903127
0.000905593
0.000907301
0.000908357
0.000908838
0.000908852
0.000908503
0.000907842
0.000906946
0.00090587
0.000904648
0.000903339
0.000901957
0.000900515
0.000899027
0.000897501
0.000895946
0.000894367
0.000895815
0.00090002
0.000903401
0.000905912
0.000907639
0.00090869
0.000909149
0.00090913
0.00090872
0.000908024
0.000907102
0.000906004
0.000904773
0.000903443
0.000902038
0.000900576
0.000899072
0.000897537
0.00089598
0.000894408
0.00089597
0.000900221
0.000903648
0.000906163
0.00090787
0.000908878
0.00090932
0.000909291
0.000908881
0.000908174
0.000907235
0.00090612
0.000904871
0.000903523
0.0009021
0.000900622
0.000899105
0.000897561
0.000896
0.000894432
0.000896087
0.000900352
0.000903785
0.000906293
0.000908003
0.000909024
0.000909466
0.000909431
0.000909014
0.000908295
0.000907343
0.000906212
0.000904947
0.000903581
0.000902142
0.000900649
0.000899119
0.000897564
0.000895995
0.000894418
0.000896188
0.000900465
0.000903899
0.000906417
0.000908131
0.000909152
0.000909591
0.000909551
0.000909125
0.000908395
0.000907429
0.000906283
0.000905002
0.000903621
0.000902166
0.000900659
0.000899117
0.000897553
0.000895977
0.000894393
0.000896286
0.000900574
0.000904002
0.00090653
0.000908248
0.000909269
0.000909703
0.000909656
0.00090922
0.000908479
0.000907499
0.000906339
0.000905043
0.000903646
0.000902177
0.000900657
0.000899105
0.000897534
0.000895955
0.000894376
0.000896378
0.000900671
0.00090409
0.000906639
0.000908361
0.00090938
0.000909808
0.000909752
0.000909306
0.000908552
0.000907559
0.000906384
0.000905073
0.000903661
0.000902178
0.000900646
0.000899084
0.000897506
0.000895926
0.000894352
0.000896474
0.000900783
0.000904218
0.000906777
0.000908486
0.000909493
0.000909912
0.000909845
0.000909387
0.00090862
0.000907613
0.000906423
0.000905096
0.000903669
0.000902172
0.000900627
0.000899056
0.000897473
0.000895892
0.000894324
0.000896577
0.000900905
0.000904362
0.000906902
0.000908602
0.000909603
0.000910014
0.000909937
0.000909468
0.000908687
0.000907666
0.00090646
0.000905117
0.000903675
0.000902162
0.000900604
0.000899021
0.00089743
0.000895847
0.000894284
0.000896681
0.000901019
0.000904473
0.000906992
0.000908718
0.000909716
0.000910119
0.000910033
0.000909552
0.000908758
0.000907721
0.000906499
0.00090514
0.00090368
0.000902151
0.000900577
0.000898979
0.000897377
0.000895786
0.000894224
0.000896797
0.000901143
0.000904593
0.000907091
0.000908824
0.000909827
0.000910229
0.000910135
0.000909643
0.000908835
0.000907783
0.000906545
0.000905168
0.000903691
0.000902143
0.000900551
0.000898935
0.000897313
0.000895697
0.000894114
0.00089693
0.000901287
0.00090474
0.000907232
0.000908931
0.000909963
0.000910358
0.000910252
0.000909745
0.000908923
0.000907856
0.000906601
0.000905207
0.000903711
0.000902145
0.000900534
0.0008989
0.000897259
0.000895625
0.00089408
0.00089708
0.000901452
0.000904916
0.000907424
0.000909097
0.00091012
0.000910499
0.00091038
0.00090986
0.000909024
0.000907941
0.00090667
0.000905258
0.000903743
0.000902156
0.000900524
0.000898868
0.000897209
0.000895568
0.000894113
0.000897242
0.000901626
0.000905097
0.000907608
0.000909287
0.000910264
0.000910655
0.000910521
0.000909987
0.000909137
0.000908039
0.000906752
0.000905322
0.000903787
0.000902179
0.000900521
0.000898832
0.000897126
0.000895476
0.000894007
0.000897413
0.000901809
0.000905283
0.00090779
0.000909453
0.000910396
0.000910786
0.00091066
0.000910121
0.000909259
0.000908148
0.000906845
0.000905398
0.000903845
0.000902215
0.000900533
0.000898813
0.000897063
0.000895433
0.000893896
0.000897593
0.000902002
0.00090548
0.000907983
0.000909633
0.00091055
0.000910915
0.000910816
0.000910269
0.000909393
0.000908267
0.000906949
0.000905485
0.000903915
0.000902268
0.000900568
0.000898835
0.000897078
0.000895402
0.000893753
0.000897782
0.000902206
0.00090569
0.000908194
0.000909843
0.000910763
0.000911069
0.000910968
0.000910424
0.000909532
0.00090839
0.000907057
0.000905579
0.000903994
0.000902332
0.00090062
0.000898882
0.000897134
0.000895404
0.000893734
0.000897977
0.000902415
0.000905905
0.000908409
0.000910053
0.000910963
0.000911257
0.000911119
0.000910577
0.000909668
0.000908512
0.000907164
0.000905672
0.000904072
0.000902395
0.000900665
0.000898902
0.000897147
0.000895434
0.000893773
0.000898179
0.000902632
0.000906128
0.000908631
0.000910271
0.000911175
0.000911464
0.00091125
0.000910674
0.000909782
0.000908624
0.000907265
0.000905758
0.000904141
0.000902445
0.000900693
0.000898911
0.000897144
0.00089539
0.000893759
0.000898389
0.000902856
0.000906357
0.000908857
0.000910488
0.000911377
0.000911642
0.000911386
0.000910766
0.0009099
0.000908741
0.000907368
0.00090584
0.000904204
0.000902488
0.000900721
0.000898972
0.000897219
0.000895474
0.000893835
0.000898609
0.00090309
0.000906594
0.000909091
0.000910713
0.000911591
0.000911844
0.000911585
0.000910912
0.000910008
0.000908842
0.00090745
0.000905907
0.000904255
0.000902522
0.000900747
0.00089899
0.000897233
0.000895504
0.00089382
0.000898838
0.000903333
0.000906842
0.000909335
0.000910948
0.000911811
0.000912048
0.000911771
0.000911083
0.000910122
0.000908916
0.000907516
0.000905966
0.000904307
0.000902577
0.000900801
0.000899041
0.00089727
0.000895493
0.000893759
0.000899078
0.000903588
0.0009071
0.00090959
0.000911193
0.000912043
0.000912263
0.000911967
0.000911257
0.000910226
0.000908995
0.00090759
0.000906032
0.000904362
0.000902624
0.000900868
0.000899114
0.000897341
0.000895545
0.000893805
0.000899328
0.000903853
0.00090737
0.000909856
0.000911449
0.000912284
0.000912486
0.000912167
0.000911426
0.000910342
0.000909056
0.000907607
0.000906026
0.000904337
0.000902576
0.0009008
0.000899019
0.000897268
0.000895543
0.000893839
0.000899591
0.000904131
0.000907653
0.000910134
0.000911717
0.000912538
0.000912722
0.000912384
0.000911623
0.000910525
0.000909158
0.000907644
0.000906011
0.000904318
0.000902578
0.000900797
0.000898987
0.000897221
0.00089553
0.000893881
0.000899867
0.000904423
0.000907949
0.000910426
0.000911999
0.000912804
0.000912971
0.000912613
0.00091183
0.000910711
0.00090933
0.000907748
0.000906054
0.000904345
0.000902609
0.00090081
0.000898985
0.00089722
0.00089553
0.000893867
0.000900155
0.000904729
0.000908259
0.000910732
0.000912295
0.000913086
0.000913234
0.000912856
0.000912051
0.000910904
0.000909485
0.000907849
0.000906157
0.000904396
0.000902624
0.000900831
0.000899033
0.000897281
0.000895528
0.000893869
0.000900458
0.000905049
0.000908585
0.000911054
0.000912607
0.000913384
0.000913517
0.000913122
0.000912301
0.000911141
0.000909714
0.000908077
0.000906362
0.000904577
0.000902821
0.000901012
0.000899176
0.000897404
0.000895698
0.00089403
0.000900774
0.000905384
0.000908926
0.000911393
0.000912936
0.0009137
0.000913818
0.000913408
0.000912573
0.000911403
0.000909971
0.000908342
0.000906567
0.000904767
0.000902954
0.000901121
0.000899265
0.000897538
0.000895863
0.000894226
0.000901105
0.000905735
0.000909284
0.000911748
0.000913282
0.000914034
0.000914137
0.000913711
0.000912862
0.00091168
0.000910239
0.000908603
0.000906827
0.000904959
0.000903109
0.000901246
0.00089938
0.000897617
0.000895965
0.000894432
0.000901451
0.000906102
0.000909659
0.00091212
0.000913646
0.000914384
0.000914472
0.000914032
0.000913169
0.000911974
0.000910524
0.000908882
0.000907101
0.000905225
0.000903288
0.000901397
0.000899537
0.000897756
0.000896087
0.000894517
0.000901813
0.000906487
0.000910051
0.000912511
0.000914027
0.000914752
0.000914824
0.000914368
0.00091349
0.000912282
0.000910823
0.000909175
0.000907392
0.000905514
0.00090357
0.000901655
0.00089978
0.00089797
0.00089626
0.000894564
0.000902195
0.000906891
0.000910463
0.00091292
0.000914426
0.000915136
0.000915191
0.000914717
0.000913822
0.0009126
0.000911127
0.000909471
0.000907685
0.000905816
0.000903904
0.000901984
0.000900082
0.000898219
0.000896405
0.000894641
0.000902596
0.000907316
0.000910895
0.000913347
0.000914842
0.000915536
0.000915573
0.00091508
0.000914166
0.000912925
0.000911436
0.000909765
0.000907966
0.000906086
0.000904162
0.000902226
0.000900302
0.000898409
0.000896561
0.000894762
0.000903018
0.00090776
0.000911345
0.000913793
0.000915274
0.000915951
0.000915968
0.000915453
0.000914518
0.000913258
0.000911751
0.000910063
0.00090825
0.000906357
0.000904422
0.000902475
0.00090054
0.000898637
0.000896778
0.000894968
0.000903459
0.000908225
0.000911815
0.000914256
0.000915722
0.000916379
0.000916373
0.000915835
0.000914877
0.000913595
0.000912069
0.000910364
0.000908537
0.000906632
0.000904689
0.000902736
0.000900799
0.000898896
0.00089704
0.000895235
0.000903921
0.000908709
0.000912303
0.000914735
0.000916185
0.000916819
0.000916788
0.000916224
0.00091524
0.000913934
0.000912386
0.000910662
0.000908819
0.000906902
0.000904949
0.000902992
0.000901055
0.000899155
0.000897304
0.000895509
0.000904401
0.000909212
0.00091281
0.000915232
0.000916662
0.000917271
0.000917212
0.000916618
0.000915606
0.000914273
0.000912699
0.000910953
0.00090909
0.000907158
0.000905194
0.00090323
0.00090129
0.000899391
0.000897545
0.000895757
0.000904903
0.000909738
0.000913338
0.000915747
0.000917156
0.000917737
0.000917646
0.00091702
0.000915976
0.000914611
0.000913009
0.000911237
0.000909353
0.000907402
0.000905423
0.000903448
0.000901502
0.000899601
0.000897757
0.000895975
0.000905431
0.000910289
0.00091389
0.000916285
0.000917669
0.000918219
0.000918094
0.000917432
0.000916352
0.000914954
0.00091332
0.000911519
0.000909609
0.000907637
0.000905641
0.000903654
0.000901698
0.000899793
0.000897948
0.000896168
0.000905989
0.000910869
0.000914469
0.000916848
0.000918205
0.000918721
0.000918558
0.000917857
0.000916739
0.000915303
0.000913635
0.000911804
0.000909866
0.000907871
0.000905856
0.000903853
0.000901887
0.000899975
0.000898127
0.000896347
0.000906578
0.000911481
0.000915078
0.000917439
0.000918766
0.000919245
0.000919041
0.000918298
0.000917138
0.000915664
0.000913959
0.000912095
0.000910128
0.000908108
0.000906073
0.000904055
0.000902077
0.000900157
0.000898305
0.000896523
0.0009072
0.000912125
0.000915719
0.000918058
0.000919352
0.000919791
0.000919544
0.000918756
0.000917552
0.000916036
0.000914293
0.000912395
0.000910398
0.000908352
0.000906296
0.000904261
0.000902272
0.000900345
0.000898488
0.000896704
0.000907855
0.000912803
0.000916391
0.000918708
0.000919966
0.000920362
0.000920068
0.000919232
0.000917982
0.000916422
0.000914639
0.000912704
0.000910676
0.000908604
0.000906526
0.000904475
0.000902474
0.000900538
0.000898677
0.000896891
0.000908546
0.000913516
0.000917098
0.000919389
0.000920609
0.000920958
0.000920614
0.000919727
0.000918427
0.000916821
0.000914995
0.000913022
0.000910962
0.000908862
0.000906763
0.000904696
0.000902682
0.000900739
0.000898873
0.000897085
0.000909275
0.000914268
0.000917841
0.000920103
0.000921281
0.00092158
0.000921181
0.00092024
0.000918887
0.000917231
0.00091536
0.000913348
0.000911253
0.000909126
0.000907004
0.00090492
0.000902895
0.000900944
0.000899075
0.000897285
0.000910061
0.000915064
0.000918622
0.000920852
0.000921983
0.000922227
0.00092177
0.000920769
0.000919358
0.000917649
0.00091573
0.000913675
0.000911545
0.000909389
0.000907245
0.000905144
0.000903107
0.00090115
0.000899278
0.000897488
0.000910852
0.000915888
0.000919437
0.000921632
0.000922714
0.000922898
0.000922376
0.00092131
0.000919837
0.000918069
0.000916098
0.000913999
0.000911831
0.000909644
0.000907477
0.000905359
0.000903313
0.00090135
0.000899476
0.000897688
0.000911697
0.000916756
0.00092029
0.000922446
0.000923471
0.000923588
0.000922994
0.000921856
0.000920314
0.000918483
0.000916455
0.000914307
0.000912099
0.00090988
0.000907689
0.000905556
0.0009035
0.000901534
0.000899661
0.000897877
0.00091259
0.000917668
0.000921182
0.00092329
0.00092425
0.000924291
0.000923616
0.000922397
0.000920777
0.000918875
0.000916785
0.000914584
0.000912333
0.000910081
0.000907866
0.000905718
0.000903655
0.000901689
0.00089982
0.000898045
0.000913529
0.000918621
0.000922106
0.000924158
0.000925042
0.000924995
0.000924227
0.000922915
0.000921207
0.000919225
0.000917065
0.000914805
0.000912506
0.000910219
0.000907981
0.00090582
0.000903754
0.000901792
0.000899934
0.000898174
0.00091451
0.000919609
0.000923053
0.000925036
0.000925829
0.00092568
0.000924803
0.000923383
0.000921574
0.000919499
0.000917259
0.000914932
0.000912582
0.000910258
0.000907997
0.000905826
0.000903761
0.000901811
0.000899973
0.000898239
0.000915529
0.000920622
0.000924011
0.000925907
0.000926589
0.000926315
0.000925308
0.000923761
0.000921831
0.000919647
0.000917313
0.00091491
0.000912502
0.000910138
0.000907855
0.000905678
0.000903623
0.000901695
0.00089989
0.000898196
0.000916581
0.000921649
0.000924958
0.000926738
0.000927282
0.000926854
0.000925688
0.000923984
0.000921907
0.000919592
0.000917146
0.000914652
0.000912176
0.000909769
0.000907465
0.00090529
0.000903256
0.000901366
0.000899613
0.000897983
0.000917678
0.000922672
0.000925856
0.000927481
0.000927844
0.000927221
0.000925856
0.000923957
0.000921697
0.000919218
0.000916632
0.000914027
0.000911471
0.000909015
0.000906693
0.000904529
0.000902533
0.000900704
0.000899033
0.0008975
0.000918761
0.000923626
0.000926634
0.000928049
0.000928177
0.000927303
0.000925681
0.000923532
0.000921038
0.000918349
0.000915585
0.000912839
0.000910183
0.000907669
0.000905332
0.000903192
0.000901258
0.000899524
0.000897976
0.000896591
0.000919797
0.000924418
0.000927189
0.000928322
0.000928136
0.000926929
0.00092497
0.000922491
0.000919687
0.000916721
0.000913722
0.000910791
0.000908005
0.000905419
0.000903068
0.000900972
0.000899133
0.000897543
0.000896181
0.000895017
0.000920764
0.000924976
0.000927388
0.000928124
0.000927509
0.000925853
0.000923438
0.000920514
0.000917293
0.000913951
0.000910632
0.000907449
0.000904487
0.000901805
0.00089944
0.00089741
0.000895714
0.000894336
0.000893248
0.000892413
0.000921511
0.000925148
0.000927034
0.000927206
0.000925994
0.00092372
0.000920683
0.00091715
0.000913355
0.000909496
0.000905735
0.000902201
0.000898991
0.000896172
0.000893786
0.000891848
0.000890354
0.00088928
0.000888589
0.000888236
0.000921727
0.000924797
0.00092585
0.000925212
0.00092317
0.000920047
0.000916157
0.00091179
0.000907208
0.000902634
0.000898257
0.000894229
0.000890664
0.000887643
0.000885212
0.000883389
0.000882164
0.000881509
0.000881375
0.000881707
0.000921248
0.000923392
0.000923369
0.000921645
0.000918484
0.000914217
0.000909179
0.000903688
0.000898038
0.000892489
0.000887264
0.000882545
0.000878472
0.000875144
0.000872617
0.000870913
0.000870021
0.000869907
0.000870516
0.000871783
0.000919773
0.000920588
0.000919131
0.000915956
0.000911319
0.000905551
0.000899008
0.000892045
0.000884994
0.00087816
0.000871805
0.000866151
0.000861368
0.000857579
0.000854856
0.000853231
0.000852698
0.000853221
0.000854746
0.000857207
0.000916959
0.000915773
0.000912703
0.000907598
0.000901087
0.000893439
0.000885027
0.000876238
0.000867452
0.000859017
0.000851244
0.000844392
0.000838667
0.000834217
0.000831136
0.000829473
0.000829232
0.000830393
0.000832912
0.000836744
0.000912383
0.000908535
0.000903379
0.000896131
0.000887439
0.000877613
0.000867055
0.00085619
0.000845436
0.000835186
0.000825787
0.000817533
0.000810657
0.000805331
0.000801671
0.000799742
0.000799577
0.000801183
0.000804556
0.000809699
0.000905729
0.000898682
0.000890634
0.000881781
0.000870613
0.000858508
0.000845772
0.000832828
0.000820131
0.000808092
0.000797075
0.000787386
0.000779267
0.0007729
0.000768411
0.000765889
0.000765396
0.000766986
0.000770725
0.000776706
0.000896562
0.000886246
0.000875063
0.000863832
0.000851679
0.00083753
0.000823053
0.000808419
0.000794203
0.000780782
0.000768479
0.000757591
0.000748344
0.000740904
0.000735393
0.000731908
0.000730542
0.000731404
0.000734646
0.00074049
0.000885056
0.000871579
0.000858218
0.000844656
0.000831267
0.000817239
0.000802173
0.000786436
0.000771618
0.000757652
0.000744713
0.00073315
0.000723127
0.000714769
0.000708173
0.000703427
0.000700638
0.000699959
0.000701624
0.000705983
0.000871981
0.000856083
0.000841754
0.000827612
0.000813393
0.000799436
0.000784998
0.000770648
0.00075686
0.000743638
0.000730702
0.000719205
0.000708914
0.000699953
0.000692377
0.00068624
0.000681639
0.000678742
0.000677831
0.000679341
0.000858742
0.000842139
0.000828462
0.000815788
0.000802964
0.000790035
0.000777722
0.000765199
0.000752931
0.000741174
0.000730143
0.000719748
0.000709607
0.000700436
0.000692119
0.000684656
0.000678108
0.000672631
0.000668502
0.000666173
0.00084731
0.000832407
0.000821575
0.000812152
0.000802754
0.000793059
0.000782972
0.000773054
0.000763685
0.000754214
0.000744965
0.000735919
0.000726978
0.000717948
0.000709207
0.000700617
0.000692211
0.000684123
0.000676586
0.00067
0.000840033
0.000829591
0.000823827
0.000819437
0.000814819
0.000809534
0.000803593
0.000797126
0.000790125
0.000782994
0.000775982
0.000768517
0.000760652
0.000752307
0.000743467
0.000733952
0.00072385
0.000713331
0.000702543
0.000691778
0.00083931
0.000836043
0.000837275
0.000839286
0.000840422
0.000840254
0.000838787
0.000836143
0.000832472
0.000827885
0.000822515
0.000816629
0.000809775
0.000802046
0.000793334
0.000783153
0.000771525
0.000758812
0.000745077
0.000730486
0.000847276
0.000853483
0.000863131
0.000872423
0.00087985
0.000885102
0.000888265
0.000889527
0.000889072
0.000887043
0.000883567
0.000878773
0.000872714
0.000865329
0.000856684
0.000846203
0.000833306
0.000818575
0.00080218
0.00078415
0.000865554
0.000882879
0.00090179
0.000918784
0.000932675
0.000943368
0.000951086
0.000956112
0.000958699
0.00095905
0.000957313
0.000953608
0.000948013
0.000940752
0.000932078
0.000921263
0.000907355
0.000890734
0.000871836
0.000850652
0.00089514
0.000924507
0.000953017
0.000977784
0.000998076
0.00101407
0.00102617
0.00103477
0.00104019
0.0010427
0.00104248
0.00103967
0.00103435
0.0010269
0.00101775
0.00100643
0.000991986
0.000973599
0.000952248
0.000928056
0.000936389
0.000978057
0.0010161
0.00104847
0.00107495
0.00109604
0.0011123
0.00112425
0.00113231
0.00113678
0.00113788
0.00113577
0.00113056
0.0011227
0.00111292
0.00110081
0.00108538
0.0010655
0.00104174
0.00101452
0.000989066
0.00104272
0.00108991
0.00112952
0.00116188
0.00118777
0.00120795
0.00122305
0.00123354
0.00123978
0.00124202
0.00124045
0.00123516
0.00122662
0.00121572
0.0012021
0.00118521
0.00116431
0.00113825
0.00110793
0.00105239
0.00111722
0.00117287
0.00121916
0.00125693
0.00128725
0.00131104
0.00132902
0.00134172
0.00134953
0.00135274
0.00135155
0.00134614
0.00133675
0.00132421
0.00130867
0.0012894
0.00126647
0.0012389
0.00120548
0.001125
0.00119968
0.00126275
0.00131489
0.00135742
0.00139163
0.00141858
0.00143906
0.00145366
0.00146276
0.00146662
0.00146544
0.00145931
0.00144878
0.00143475
0.00141688
0.0013948
0.00136889
0.00133888
0.00130289
0.00120487
0.00128746
0.00135642
0.00141321
0.0014595
0.00149678
0.00152622
0.00154866
0.00156471
0.00157474
0.00157893
0.00157751
0.00157063
0.00155883
0.00154254
0.00152141
0.00149549
0.00146517
0.00143068
0.00139215
0.0012891
0.00137686
0.00144954
0.00150921
0.0015578
0.00159694
0.00162783
0.0016514
0.00166831
0.00167878
0.00168269
0.00168045
0.00167254
0.00165914
0.00163978
0.00161465
0.00158425
0.00154915
0.00150998
0.00146683
0.00137367
0.00146283
0.00153618
0.00159623
0.00164508
0.00168439
0.00171508
0.00173837
0.0017556
0.00176656
0.00177189
0.00177036
0.00176062
0.00174305
0.00171875
0.00168841
0.00165225
0.00161084
0.00156501
0.00151637
0.00145318
0.00153872
0.00160857
0.00166567
0.00171164
0.00174803
0.00177671
0.00179882
0.00181302
0.00181811
0.00181723
0.00181208
0.00179851
0.00177706
0.0017489
0.00171428
0.0016734
0.00162702
0.00157624
0.00152282
0.00152066
0.00159608
0.00165739
0.00170668
0.00174337
0.00177274
0.00179697
0.0018155
0.00182831
0.00183721
0.00183739
0.00182625
0.00180844
0.0017824
0.00174789
0.0017056
0.00165579
0.00159933
0.00153703
0.00147287
0.00156751
0.00162544
0.0016708
0.00170197
0.00173138
0.00175395
0.00177162
0.00178467
0.00179418
0.00179839
0.00179599
0.00178521
0.00176446
0.00173237
0.00168921
0.00163733
0.00157535
0.00150365
0.00142491
0.00134677
0.00158429
0.00161546
0.00163255
0.00165119
0.00166029
0.00167044
0.00167945
0.00168792
0.00169505
0.00169882
0.00169647
0.00168478
0.00166055
0.0016211
0.00156616
0.00150014
0.00142029
0.00132678
0.00122337
0.00112276
0.00155983
0.00155291
0.00154416
0.00152984
0.00152116
0.00151631
0.00151669
0.00152212
0.00153069
0.0015387
0.00154108
0.00153211
0.00150624
0.00145877
0.00138873
0.00130239
0.00119636
0.0010728
0.000937647
0.000808598
0.00147819
0.00142682
0.00138036
0.00134063
0.00131007
0.00129199
0.00128819
0.00129803
0.00131777
0.00134033
0.00135601
0.00135505
0.00132878
0.00127056
0.0011808
0.00106627
0.000924808
0.000768254
0.000613887
0.000471276
0.00133697
0.00124123
0.00115636
0.00108868
0.00104125
0.00101857
0.00102375
0.00105475
0.00110462
0.00115867
0.00119489
0.00119929
0.00116368
0.00108301
0.00096698
0.000824128
0.00066927
0.00051738
0.000374915
0.000278147
0.00111431
0.000986854
0.000881256
0.000802825
0.000756778
0.00075007
0.000788697
0.000859747
0.000936059
0.000991305
0.00101487
0.00100716
0.000963599
0.000888656
0.000788404
0.000661611
0.000516555
0.000371916
0.000263623
0.000197589
0.000844385
0.000703552
0.000601918
0.000555555
0.000576681
0.000655674
0.000750921
0.00083609
0.000897514
0.000932249
0.000941463
0.000925953
0.000887467
0.000822209
0.000723177
0.000590505
0.000438051
0.000294405
0.000203859
0.000166799
0.000528425
0.000427069
0.000402333
0.000466049
0.000579325
0.000696194
0.000788711
0.000849794
0.000884837
0.000900716
0.000901924
0.000888759
0.000857686
0.000799401
0.000704541
0.000568452
0.000406609
0.000261461
0.000180621
0.000172523
0.000256759
0.000261223
0.000348508
0.000494601
0.000644284
0.000755495
0.000822837
0.000858608
0.00087511
0.00088051
0.000878921
0.000870467
0.000850995
0.000808923
0.000728025
0.000596938
0.000423517
0.000263019
0.00018496
0.000189866
0.000162828
0.000218327
0.000369335
0.000557775
0.000703775
0.000790228
0.000833644
0.00085421
0.000862117
0.00086376
0.000862378
0.000858094
0.000848145
0.00082513
0.00077718
0.000674943
0.000504046
0.000313815
0.000207342
0.000197178
0.000142666
0.000222377
0.000434513
0.000651141
0.000777646
0.000832537
0.000851956
0.000856726
0.000857079
0.000856562
0.000855825
0.000854685
0.000852398
0.000846016
0.000825391
0.000771395
0.000643093
0.000438427
0.000270733
0.000216268
0.000188412
0.000434205
0.000738295
0.000836144
0.000850672
0.000851367
0.000852173
0.000852851
0.000853222
0.000853192
0.000853008
0.000852641
0.000851691
0.000848567
0.000837687
0.000803977
0.000718091
0.000543248
0.000341275
0.000251915
0.000891066
0.000891535
0.000892169
0.000892671
0.000893056
0.000893338
0.000893529
0.000893638
0.00089367
0.000893632
0.000893525
0.00089335
0.000893115
0.000892812
0.000892438
0.000892005
0.000891518
0.000890978
0.00089038
0.000889713
0.000890959
0.000891436
0.000892057
0.000892543
0.000892908
0.000893168
0.000893335
0.000893419
0.000893431
0.000893377
0.000893259
0.000893077
0.000892832
0.000892507
0.000892086
0.000891605
0.000891084
0.000890528
0.000889931
0.000889282
0.000890936
0.000891402
0.000892005
0.000892465
0.000892799
0.000893024
0.000893153
0.0008932
0.000893182
0.000893113
0.000892998
0.00089284
0.000892631
0.00089234
0.000891932
0.000891429
0.000890922
0.000890385
0.000889807
0.000889185
0.000890843
0.000891302
0.000891886
0.000892318
0.000892617
0.000892804
0.000892888
0.000892877
0.000892817
0.000892732
0.000892643
0.00089257
0.000892467
0.00089231
0.000892072
0.00089168
0.000891232
0.000890707
0.000890131
0.000889519
0.000890652
0.000891116
0.000891687
0.000892086
0.000892341
0.000892504
0.000892616
0.000892666
0.000892674
0.000892632
0.000892556
0.000892504
0.000892436
0.000892358
0.000892286
0.000892097
0.000891697
0.000891193
0.000890606
0.00088997
0.000890423
0.000890908
0.000891511
0.000891969
0.000892301
0.000892557
0.000892774
0.000892905
0.000892939
0.000892883
0.000892798
0.000892763
0.000892714
0.000892624
0.000892491
0.000892252
0.000891844
0.000891415
0.000890839
0.000890158
0.000890569
0.000891159
0.000891836
0.000892352
0.000892713
0.000892983
0.000893234
0.000893351
0.000893326
0.000893226
0.000893166
0.000893216
0.000893174
0.000892997
0.000892641
0.000892241
0.000891889
0.000891442
0.000890834
0.000890188
0.000890872
0.000891473
0.000892118
0.000892658
0.00089303
0.000893239
0.000893434
0.000893458
0.000893402
0.000893378
0.00089331
0.000893287
0.000893204
0.000893008
0.000892612
0.000892244
0.000891915
0.000891372
0.000890798
0.000890268
0.000890985
0.000891501
0.00089215
0.000892736
0.000893136
0.000893281
0.000893394
0.000893364
0.000893342
0.000893388
0.000893194
0.000893055
0.00089299
0.000892815
0.000892538
0.000892187
0.000891831
0.000891356
0.000890812
0.000890239
0.000890995
0.000891656
0.000892334
0.000892836
0.000893118
0.0008933
0.000893418
0.000893388
0.000893316
0.000893225
0.00089312
0.000893033
0.000892931
0.000892765
0.000892525
0.000892246
0.000891782
0.000891192
0.000890523
0.00088986
0.000890924
0.000891596
0.000892335
0.000892781
0.000893067
0.000893171
0.000893242
0.000893268
0.000893245
0.000893189
0.000893164
0.000893031
0.000892873
0.000892717
0.000892437
0.000892039
0.000891496
0.000890892
0.000890319
0.000889764
0.000890684
0.0008914
0.00089214
0.000892652
0.000892988
0.000893145
0.00089327
0.000893322
0.000893325
0.000893232
0.000893123
0.000892929
0.000892689
0.000892386
0.000892026
0.000891592
0.000891094
0.000890661
0.000890226
0.000889697
0.000890723
0.000891393
0.000892082
0.000892672
0.00089311
0.000893405
0.0008936
0.000893663
0.000893619
0.000893495
0.00089331
0.00089301
0.000892698
0.000892351
0.000891964
0.000891488
0.000891074
0.000890747
0.000890321
0.000889774
0.000890878
0.000891459
0.000892199
0.000892836
0.000893263
0.00089349
0.000893664
0.000893715
0.000893687
0.000893603
0.000893376
0.000893169
0.000892948
0.000892738
0.000892357
0.000891859
0.000891427
0.000891006
0.000890587
0.000889987
0.000891039
0.000891496
0.000892201
0.000892789
0.00089319
0.000893306
0.000893418
0.000893432
0.000893396
0.000893368
0.000893291
0.000893214
0.00089304
0.000892769
0.000892403
0.00089198
0.000891512
0.00089098
0.000890359
0.000889719
0.000891076
0.000891647
0.000892361
0.000892942
0.000893223
0.000893365
0.000893432
0.000893366
0.000893286
0.000893237
0.00089313
0.000892897
0.000892614
0.000892266
0.000891842
0.000891366
0.000890847
0.000890305
0.000889732
0.000889125
0.000891233
0.000891907
0.000892554
0.000893022
0.000893311
0.000893432
0.000893502
0.000893481
0.000893443
0.000893393
0.000893164
0.000892802
0.000892475
0.000892125
0.000891685
0.000891173
0.000890585
0.000890044
0.000889553
0.000888997
0.000891467
0.000892029
0.000892547
0.000893077
0.000893304
0.000893394
0.000893542
0.000893631
0.000893637
0.000893523
0.0008933
0.00089302
0.000892686
0.000892317
0.000891836
0.000891285
0.000890651
0.00089013
0.000889667
0.000889111
0.000891561
0.000892016
0.000892577
0.00089301
0.000893264
0.000893381
0.00089353
0.000893694
0.000893672
0.000893556
0.000893334
0.00089302
0.000892703
0.000892292
0.000891766
0.000891223
0.000890675
0.000890109
0.000889533
0.000888945
0.000891615
0.000891951
0.000892391
0.00089269
0.000892897
0.000893062
0.000893237
0.000893352
0.000893338
0.000893257
0.000893085
0.000892851
0.000892571
0.000892155
0.000891638
0.000891132
0.000890602
0.000889946
0.00088932
0.000888688
0.000891648
0.00089189
0.000892195
0.000892342
0.000892419
0.000892463
0.000892534
0.000892654
0.0008927
0.000892667
0.000892552
0.000892362
0.000892115
0.000891771
0.000891398
0.00089099
0.000890514
0.000889964
0.000889393
0.000888763
0.000891792
0.000892009
0.000892268
0.000892327
0.000892307
0.000892251
0.00089222
0.000892204
0.000892176
0.000892115
0.000892036
0.000891913
0.000891744
0.000891528
0.000891267
0.000890999
0.000890676
0.000890272
0.000889762
0.000889185
0.00089206
0.000892328
0.00089265
0.00089275
0.000892726
0.000892614
0.00089252
0.000892426
0.000892338
0.000892166
0.000892008
0.000891836
0.000891648
0.000891442
0.000891208
0.000890977
0.000890719
0.000890433
0.000890103
0.000889705
0.00089236
0.000892696
0.000893106
0.00089333
0.00089339
0.000893309
0.000893236
0.000893118
0.000892962
0.000892709
0.000892494
0.000892272
0.00089206
0.000891837
0.000891575
0.000891289
0.000891025
0.0008908
0.000890643
0.000890251
0.000892618
0.000893008
0.000893481
0.000893776
0.000893927
0.000893986