/*--------------------------------*- C++ -*----------------------------------*\
  =========                 |
  \\      /  F ield         | OpenFOAM: The Open Source CFD Toolbox
   \\    /   O peration     | Website:  https://openfoam.org
    \\  /    A nd           | Version:  6
     \\/     M anipulation  |
\*---------------------------------------------------------------------------*/
FoamFile
{
    version     2.0;
    format      ascii;
    class       volScalarField;
    location    "16";
    object      p;
}
// * * * * * * * * * * * * * * * * * * * * * * * * * * * * * * * * * * * * * //

dimensions      [0 2 -2 0 0 0 0];

internalField   nonuniform List<scalar> 
10000
(
-0.00822296
-0.0121107
-0.0117734
-0.0063571
-0.00266091
-0.000175793
0.00183453
0.003697
0.00542843
0.00641594
0.00661431
0.00561376
0.00319909
-0.000604106
-0.00595988
-0.0122488
-0.0191862
-0.0259925
-0.0234215
-0.0139435
-0.0288318
-0.0297618
-0.018688
0.00272187
0.0214689
0.0340963
0.0413911
0.0459886
0.0492544
0.0512525
0.0524168
0.0520783
0.051464
0.0494952
0.0455937
0.037287
0.0228179
0.00566664
-0.00415177
-0.00596087
0.0346734
0.0309644
0.0336121
0.0445962
0.0593702
0.0744328
0.0871146
0.0965282
0.102835
0.10663
0.108464
0.108754
0.107709
0.106205
0.104832
0.103623
0.102025
0.0997159
0.0950852
0.0888577
0.12802
0.131033
0.132694
0.136449
0.142278
0.148665
0.154815
0.160217
0.164434
0.167613
0.169815
0.171585
0.173273
0.17523
0.177359
0.179647
0.180677
0.179224
0.175512
0.170924
0.237589
0.245899
0.24704
0.242241
0.236612
0.232075
0.229946
0.229759
0.230837
0.232393
0.234233
0.236664
0.239567
0.243744
0.248675
0.254245
0.259773
0.263167
0.261498
0.256237
0.308889
0.313512
0.315027
0.311103
0.304939
0.298929
0.294723
0.292579
0.292127
0.292732
0.293839
0.29545
0.29783
0.301175
0.305407
0.310381
0.315148
0.31823
0.317833
0.315858
0.35063
0.346987
0.346106
0.345261
0.344372
0.34432
0.344717
0.345545
0.346644
0.347874
0.349236
0.350677
0.35188
0.352615
0.352399
0.3513
0.349987
0.348932
0.349585
0.353977
0.398714
0.394341
0.394183
0.396066
0.397982
0.400178
0.401922
0.403271
0.404135
0.404877
0.40515
0.404915
0.404121
0.40213
0.398812
0.394506
0.390585
0.38837
0.388951
0.393582
0.465235
0.465362
0.467199
0.469545
0.470801
0.470282
0.468836
0.467297
0.466043
0.464942
0.463807
0.462231
0.459567
0.455685
0.450661
0.444631
0.439059
0.435903
0.437108
0.441879
0.535844
0.538644
0.53975
0.539227
0.538012
0.535528
0.532718
0.530217
0.528287
0.526949
0.526021
0.524941
0.523748
0.522167
0.52039
0.518691
0.517022
0.51624
0.516642
0.516771
0.586297
0.585137
0.584735
0.585493
0.586693
0.587711
0.588077
0.587964
0.587629
0.587414
0.587447
0.588294
0.589822
0.592918
0.59732
0.602853
0.608586
0.612699
0.611367
0.603779
0.634781
0.633234
0.632401
0.633485
0.636122
0.639261
0.641736
0.643461
0.644452
0.645201
0.645761
0.646717
0.648407
0.650994
0.654523
0.658882
0.663166
0.666129
0.665947
0.662624
0.683637
0.682019
0.681053
0.682648
0.686441
0.691161
0.695436
0.698584
0.700689
0.701978
0.70298
0.703753
0.704219
0.704386
0.704217
0.703514
0.702574
0.701708
0.702159
0.705191
0.742045
0.74435
0.74673
0.749453
0.752098
0.754503
0.756497
0.758123
0.759367
0.760354
0.761078
0.761331
0.761471
0.760825
0.759577
0.757616
0.755347
0.753548
0.752743
0.754048
0.807963
0.814938
0.818844
0.818523
0.816815
0.815438
0.815135
0.815587
0.816407
0.81708
0.817607
0.817843
0.817653
0.816975
0.815573
0.812965
0.809772
0.806994
0.805935
0.807017
0.86638
0.865094
0.863987
0.864288
0.86577
0.868115
0.870452
0.872318
0.873616
0.874537
0.874995
0.874902
0.874752
0.874328
0.87389
0.87332
0.872451
0.871307
0.87024
0.869764
0.942433
0.94247
0.940203
0.936596
0.934362
0.933512
0.933371
0.93357
0.933787
0.933743
0.933331
0.932639
0.931342
0.930077
0.929164
0.929294
0.930806
0.932286
0.931967
0.92953
1.01054
1.01025
1.00942
1.00651
1.00307
1.00016
0.998252
0.997359
0.997
0.996717
0.996317
0.995406
0.994016
0.991378
0.987456
0.982841
0.97828
0.975321
0.976892
0.981614
1.07969
1.07889
1.0793
1.07795
1.07472
1.07078
1.0673
1.06488
1.06353
1.0629
1.06287
1.06333
1.06399
1.06484
1.06567
1.06602
1.066
1.06613
1.06633
1.06579
1.14954
1.14842
1.14827
1.14702
1.1438
1.13936
1.13493
1.13155
1.12931
1.12829
1.12803
1.12875
1.13091
1.13494
1.14127
1.1494
1.15739
1.16249
1.16109
1.15377
1.20161
1.2004
1.20002
1.19979
1.1986
1.19627
1.19354
1.19095
1.18907
1.18794
1.18769
1.18834
1.18956
1.192
1.19545
1.19968
1.2041
1.20692
1.20725
1.20644
1.2332
1.23054
1.23099
1.23427
1.23811
1.24104
1.24272
1.24314
1.24304
1.24295
1.2432
1.24345
1.24397
1.24367
1.24212
1.23909
1.23523
1.23219
1.23308
1.23961
1.27009
1.26765
1.26858
1.27354
1.28009
1.28586
1.29015
1.29277
1.29424
1.29493
1.29537
1.29561
1.2955
1.29472
1.29303
1.28998
1.2862
1.28303
1.28237
1.28521
1.32846
1.32943
1.32905
1.33013
1.33351
1.33775
1.34202
1.34554
1.34786
1.34915
1.34944
1.34875
1.3472
1.34464
1.3419
1.33978
1.33848
1.33845
1.33885
1.33822
1.39445
1.39473
1.3932
1.39413
1.39701
1.40044
1.40387
1.40648
1.40812
1.40872
1.4087
1.40793
1.40609
1.40326
1.3995
1.39517
1.39136
1.3898
1.39157
1.39408
1.4705
1.47466
1.4764
1.47579
1.47438
1.47328
1.4729
1.47295
1.47313
1.47309
1.47272
1.47189
1.47109
1.47024
1.46949
1.46883
1.46792
1.46699
1.46729
1.46788
1.54746
1.55204
1.55438
1.55109
1.54585
1.5415
1.5388
1.53761
1.53753
1.53779
1.53819
1.53883
1.53966
1.54136
1.54395
1.54749
1.55108
1.55296
1.55306
1.5511
1.61562
1.61761
1.61841
1.61552
1.61086
1.60629
1.60301
1.60132
1.60088
1.60137
1.60242
1.6041
1.60692
1.61096
1.6163
1.62257
1.62848
1.63249
1.6332
1.63023
1.66829
1.6635
1.66231
1.66275
1.66272
1.66236
1.66172
1.66108
1.66088
1.66124
1.66224
1.66397
1.66638
1.66997
1.6745
1.67963
1.68458
1.68811
1.68897
1.68683
1.72513
1.72067
1.71937
1.71939
1.71949
1.7199
1.72009
1.72003
1.71988
1.71991
1.72023
1.72065
1.7213
1.72142
1.72091
1.7198
1.7184
1.71727
1.71815
1.72138
1.78307
1.77934
1.77738
1.77746
1.77789
1.77836
1.77848
1.77825
1.77773
1.77692
1.77601
1.77492
1.77329
1.77071
1.76701
1.76227
1.75792
1.75536
1.75588
1.75941
1.84516
1.84532
1.84511
1.84513
1.84448
1.84291
1.84076
1.83856
1.83655
1.83478
1.83279
1.83034
1.82717
1.82276
1.81725
1.81093
1.80486
1.80123
1.80203
1.80507
1.89603
1.8995
1.90057
1.89895
1.89669
1.89491
1.8939
1.89332
1.89296
1.89261
1.89217
1.89145
1.88999
1.88813
1.8859
1.88345
1.88101
1.87922
1.87827
1.87635
1.9351
1.92912
1.92615
1.92786
1.93222
1.93807
1.94364
1.94794
1.95059
1.95243
1.9536
1.95477
1.95622
1.95853
1.96193
1.96641
1.97104
1.97394
1.971
1.96245
2.00913
2.00852
2.00726
2.00708
2.00845
2.01025
2.01196
2.01329
2.01422
2.01472
2.01511
2.01577
2.01673
2.01861
2.02127
2.02461
2.02801
2.0303
2.02962
2.02675
2.09327
2.10133
2.10448
2.10153
2.09615
2.08968
2.08437
2.08074
2.07873
2.07748
2.07676
2.07607
2.07583
2.07563
2.07548
2.0753
2.07494
2.07471
2.07582
2.07903
2.14792
2.15109
2.15296
2.15163
2.14853
2.14468
2.14121
2.13857
2.13695
2.13598
2.13558
2.1355
2.13563
2.13581
2.13594
2.13602
2.13618
2.13637
2.13644
2.13701
2.1854
2.18194
2.18148
2.18402
2.1873
2.19029
2.19187
2.19248
2.19247
2.19261
2.19265
2.19283
2.19298
2.19291
2.19266
2.19227
2.19176
2.19125
2.19088
2.191
2.23249
2.2308
2.2308
2.23355
2.23773
2.24225
2.2458
2.24837
2.24981
2.25072
2.25127
2.25177
2.25179
2.25154
2.25067
2.24923
2.24756
2.24619
2.24563
2.24566
2.29289
2.29181
2.29063
2.29212
2.29535
2.29943
2.30337
2.30683
2.30926
2.31111
2.31229
2.31331
2.31402
2.31441
2.31415
2.31323
2.31176
2.31047
2.30979
2.30963
2.37381
2.37625
2.37641
2.37564
2.37435
2.37303
2.37216
2.37201
2.37242
2.37317
2.37403
2.37529
2.3767
2.3787
2.38094
2.3834
2.38555
2.38671
2.38566
2.38332
2.45184
2.45799
2.45982
2.45556
2.44876
2.44215
2.43732
2.43444
2.43289
2.43235
2.43197
2.43203
2.4323
2.43328
2.43538
2.43901
2.44352
2.44704
2.4463
2.44216
2.50125
2.49823
2.49748
2.4972
2.49618
2.49479
2.49315
2.4914
2.48983
2.48851
2.48731
2.4858
2.48337
2.47977
2.47488
2.46963
2.46491
2.4619
2.46339
2.46957
2.54982
2.54666
2.54592
2.54666
2.54794
2.54899
2.54921
2.5488
2.54799
2.54705
2.54596
2.54447
2.54227
2.53874
2.53319
2.52584
2.51779
2.51189
2.51227
2.51857
2.59858
2.5948
2.59306
2.59482
2.59801
2.60148
2.60423
2.60631
2.60756
2.60835
2.60873
2.60905
2.6091
2.60961
2.61033
2.61095
2.61118
2.61127
2.6096
2.60545
2.66549
2.66437
2.66304
2.66415
2.66618
2.66813
2.66951
2.67074
2.67163
2.6728
2.67385
2.6755
2.67777
2.68143
2.68654
2.69313
2.69994
2.70464
2.70256
2.69407
2.74591
2.75103
2.75142
2.74843
2.74459
2.74099
2.73825
2.73654
2.73567
2.73547
2.73579
2.73712
2.7393
2.74289
2.74753
2.75314
2.7583
2.76107
2.75992
2.75638
2.80994
2.81315
2.81473
2.8132
2.80929
2.80469
2.8007
2.79766
2.79566
2.79459
2.79427
2.79459
2.79522
2.79584
2.79611
2.79601
2.79537
2.79429
2.79482
2.79847
2.85791
2.85862
2.85947
2.85968
2.85856
2.85656
2.85445
2.8527
2.85135
2.85053
2.85008
2.84976
2.84902
2.8477
2.84555
2.8426
2.83966
2.83766
2.83774
2.84009
2.903
2.89812
2.89471
2.89571
2.89922
2.9032
2.90615
2.90795
2.90849
2.90853
2.90791
2.90688
2.90491
2.90182
2.89734
2.89206
2.88689
2.8834
2.88333
2.88525
2.96781
2.96811
2.96814
2.969
2.97059
2.97207
2.97269
2.97278
2.97236
2.97187
2.97122
2.97068
2.96968
2.96834
2.96615
2.96343
2.96032
2.95768
2.95658
2.9554
3.03336
3.04135
3.04712
3.0486
3.04692
3.0434
3.03971
3.03691
3.03504
3.03436
3.03428
3.0352
3.03688
3.03988
3.04371
3.04785
3.05092
3.05194
3.04878
3.04077
3.07647
3.08067
3.08333
3.08498
3.08621
3.08711
3.08775
3.08825
3.08861
3.08928
3.09016
3.09187
3.09411
3.09769
3.10184
3.10628
3.10977
3.11089
3.10872
3.10389
3.12254
3.1206
3.11939
3.12147
3.12649
3.13265
3.13781
3.14136
3.1432
3.14421
3.14445
3.14444
3.14396
3.14342
3.14263
3.14223
3.14235
3.14242
3.14275
3.14417
3.20164
3.20517
3.20725
3.20746
3.20759
3.20742
3.20686
3.20611
3.20525
3.20417
3.20294
3.20128
3.19869
3.19462
3.18874
3.18148
3.17452
3.1702
3.17226
3.17942
3.27793
3.28585
3.28994
3.28777
3.28308
3.27776
3.27318
3.26975
3.26742
3.26565
3.26413
3.26252
3.26067
3.25818
3.25472
3.2507
3.24666
3.24453
3.24531
3.2464
3.32503
3.32309
3.32353
3.32509
3.32613
3.32697
3.32728
3.32721
3.32685
3.32673
3.32672
3.32733
3.32818
3.3301
3.33293
3.33659
3.33976
3.34141
3.33913
3.33141
3.3791
3.37673
3.37779
3.3813
3.38414
3.38596
3.38669
3.38706
3.38711
3.3876
3.38837
3.39
3.39238
3.39608
3.40078
3.40636
3.41127
3.41379
3.4117
3.4052
3.44538
3.44838
3.4496
3.44926
3.44884
3.44858
3.44843
3.44828
3.44812
3.44832
3.44886
3.45012
3.4517
3.4542
3.45709
3.46034
3.46372
3.46627
3.46583
3.46357
3.51116
3.5102
3.50817
3.50712
3.50732
3.50828
3.50919
3.50978
3.51019
3.51066
3.51147
3.51267
3.51422
3.51554
3.51556
3.514
3.51127
3.50878
3.50834
3.5113
3.58794
3.59038
3.591
3.58986
3.58719
3.58325
3.57914
3.57581
3.57364
3.57248
3.57219
3.57273
3.57364
3.57476
3.57552
3.57541
3.57471
3.57352
3.57169
3.57015
3.64776
3.65371
3.65636
3.65411
3.64947
3.64401
3.63902
3.63492
3.63183
3.62975
3.62822
3.62697
3.62578
3.62464
3.62377
3.62381
3.62462
3.62508
3.62328
3.61923
3.67907
3.67536
3.67519
3.67832
3.68237
3.68608
3.68835
3.68875
3.68788
3.68649
3.68506
3.68357
3.68134
3.67787
3.67263
3.66577
3.65869
3.65332
3.6532
3.65698
3.73179
3.73146
3.73231
3.73525
3.7396
3.74379
3.74659
3.74787
3.74804
3.74756
3.74709
3.74641
3.7459
3.74491
3.74307
3.74047
3.73699
3.73415
3.73262
3.73028
3.80832
3.81331
3.81436
3.81309
3.81215
3.81172
3.81183
3.81224
3.81259
3.8129
3.81338
3.81451
3.81605
3.81889
3.82294
3.82771
3.83214
3.8344
3.83074
3.81947
3.89613
3.90032
3.90038
3.89826
3.89505
3.89152
3.88839
3.88589
3.88398
3.88262
3.88203
3.88213
3.88351
3.88596
3.88924
3.89299
3.89639
3.89818
3.89631
3.8896
3.98236
3.98969
3.99169
3.98793
3.98067
3.9721
3.96428
3.95794
3.95354
3.95053
3.94904
3.9488
3.94951
3.95096
3.95262
3.95367
3.95414
3.95372
3.95344
3.95318
4.03519
4.04175
4.04431
4.04238
4.03734
4.03103
4.025
4.01995
4.01649
4.01447
4.01411
4.01489
4.01742
4.02076
4.02461
4.02841
4.03114
4.03224
4.03153
4.02889
4.0605
4.05933
4.05967
4.06324
4.0673
4.07064
4.07258
4.07325
4.07327
4.07366
4.07489
4.0777
4.08159
4.08683
4.09266
4.09783
4.10172
4.10353
4.10328
4.09987
4.10696
4.10584
4.10695
4.11293
4.12012
4.12663
4.1311
4.1337
4.135
4.13615
4.13776
4.14009
4.14356
4.14756
4.15189
4.15609
4.15918
4.16071
4.16059
4.15706
4.19284
4.20333
4.20831
4.20988
4.20969
4.20784
4.20566
4.20373
4.20251
4.20196
4.20232
4.20369
4.20512
4.20636
4.20682
4.20587
4.20392
4.20173
4.20072
4.19776
4.28142
4.29782
4.3058
4.30489
4.29864
4.28971
4.2815
4.2753
4.27158
4.26948
4.26912
4.26953
4.27115
4.27209
4.27111
4.26704
4.2594
4.25097
4.24642
4.24282
4.34317
4.35494
4.36306
4.36521
4.36169
4.35449
4.34669
4.34023
4.33592
4.33382
4.3336
4.33522
4.33778
4.34117
4.34402
4.34444
4.34198
4.33691
4.32859
4.31502
4.38167
4.38687
4.39401
4.40234
4.40706
4.40732
4.40388
4.39942
4.39561
4.39364
4.39333
4.3943
4.39673
4.39982
4.40306
4.40541
4.40558
4.40249
4.39332
4.37726
4.41437
4.42205
4.43145
4.443
4.45242
4.45701
4.45688
4.45423
4.45108
4.44864
4.44726
4.44709
4.44703
4.44665
4.44506
4.44137
4.43593
4.42913
4.42119
4.41084
4.44188
4.4498
4.45868
4.47274
4.4872
4.49772
4.50309
4.50456
4.50416
4.50305
4.5023
4.5011
4.49961
4.49555
4.48832
4.47741
4.46426
4.45258
4.44597
4.44128
4.4868
4.49648
4.5044
4.51781
4.53337
4.5461
4.55411
4.55795
4.55942
4.55972
4.55988
4.55991
4.55926
4.55693
4.55229
4.54418
4.53384
4.52408
4.51597
4.50542
4.55691
4.5706
4.5768
4.58418
4.59474
4.60503
4.61264
4.61727
4.61965
4.62063
4.62103
4.62092
4.62094
4.62018
4.61894
4.61656
4.61288
4.6083
4.59991
4.58304
4.64058
4.65105
4.65344
4.65687
4.66428
4.67261
4.6792
4.68308
4.68479
4.68502
4.68457
4.68366
4.68206
4.67962
4.67628
4.67198
4.66759
4.66443
4.66054
4.64968
4.74036
4.75048
4.74978
4.74677
4.74683
4.7493
4.75209
4.7539
4.75471
4.75452
4.75403
4.75274
4.75083
4.74711
4.74186
4.73559
4.73009
4.72837
4.72963
4.72561
4.8412
4.84764
4.84111
4.83136
4.82529
4.82387
4.82509
4.82693
4.8282
4.82885
4.82906
4.82919
4.82907
4.82878
4.82875
4.82951
4.83229
4.83806
4.84144
4.83338
4.95253
4.95268
4.94057
4.92671
4.91744
4.91352
4.91267
4.91304
4.91307
4.91308
4.91281
4.91305
4.91381
4.91605
4.92074
4.92867
4.94031
4.95413
4.96038
4.95004
5.08538
5.09146
5.08029
5.05953
5.04007
5.02517
5.01504
5.00877
5.00507
5.00317
5.00267
5.00392
5.00666
5.0114
5.01808
5.02726
5.03904
5.05314
5.06247
5.05959
5.19742
5.20921
5.20194
5.17843
5.1523
5.12941
5.11281
5.1022
5.0962
5.09363
5.09375
5.09696
5.10315
5.11323
5.12717
5.14467
5.16458
5.18454
5.19284
5.18509
5.26396
5.27087
5.2673
5.2521
5.23364
5.21583
5.20158
5.19155
5.1854
5.183
5.18367
5.1883
5.19682
5.21059
5.22937
5.25323
5.27894
5.30116
5.30531
5.29203
5.32266
5.33782
5.34519
5.33723
5.32335
5.3065
5.29085
5.27915
5.27208
5.26983
5.27165
5.27846
5.28925
5.3046
5.3227
5.34167
5.35857
5.36984
5.36642
5.35549
5.36601
5.39143
5.41132
5.41131
5.40254
5.388
5.37281
5.36086
5.35377
5.35175
5.3542
5.36151
5.37324
5.38895
5.4063
5.42261
5.43356
5.43579
5.4185
5.39694
5.3829
5.41207
5.44526
5.4592
5.46352
5.45874
5.44892
5.43865
5.43119
5.42816
5.42906
5.43453
5.44275
5.45303
5.46324
5.46951
5.46832
5.45592
5.42133
5.39029
5.37747
5.41105
5.4603
5.48872
5.50639
5.51293
5.51075
5.50422
5.49821
5.49465
5.49428
5.49594
5.49875
5.49878
5.49278
5.47691
5.44935
5.41311
5.36352
5.33725
5.35853
5.38552
5.44436
5.48386
5.51619
5.5384
5.54987
5.55296
5.55244
5.55081
5.5493
5.54738
5.54297
5.53226
5.51254
5.48088
5.4409
5.39788
5.34016
5.31558
5.3858
5.39124
5.44636
5.48374
5.52333
5.55927
5.58463
5.59851
5.60476
5.60608
5.60455
5.59886
5.58876
5.57022
5.54331
5.50989
5.47596
5.44446
5.389
5.37696
5.54699
5.52311
5.56485
5.57178
5.58825
5.61441
5.63925
5.65584
5.66488
5.66816
5.66769
5.66347
5.65411
5.63914
5.61993
5.60101
5.59045
5.58473
5.5391
5.55847
5.85319
5.7834
5.81076
5.77165
5.74014
5.7318
5.73692
5.74334
5.74731
5.74864
5.74856
5.7469
5.74456
5.74248
5.74489
5.76057
5.79478
5.83187
5.79978
5.86747
6.22255
6.0825
6.11396
6.03996
5.9592
5.9069
5.88058
5.86734
5.85983
5.85606
5.85543
5.85954
5.86715
5.88332
5.91343
5.96761
6.04783
6.1213
6.08953
6.22913
6.50848
6.26299
6.33088
6.26124
6.16214
6.08596
6.03909
6.01224
5.99691
5.98946
5.98857
5.99513
6.01023
6.03847
6.08512
6.16003
6.25603
6.32422
6.25657
6.50136
6.58762
6.1734
6.31168
6.30163
6.23684
6.17756
6.13942
6.11728
6.10407
6.09795
6.09699
6.10339
6.11565
6.13843
6.17586
6.23142
6.29165
6.29732
6.1581
6.57443
6.55429
5.8801
6.1087
6.18369
6.17402
6.14699
6.12764
6.11732
6.1111
6.10852
6.10889
6.11231
6.11928
6.13082
6.1496
6.17344
6.17921
6.10139
5.87493
6.55578
6.81937
5.76156
6.05756
6.1555
6.14172
6.10887
6.08719
6.07573
6.06899
6.06606
6.06657
6.07091
6.07758
6.0917
6.11093
6.14374
6.15246
6.05789
5.76796
6.8328
7.93389
6.0074
6.21437
6.29919
6.26249
6.21412
6.1864
6.17187
6.16435
6.15986
6.16054
6.16296
6.16914
6.18493
6.21046
6.26125
6.30081
6.22033
6.01394
7.93013
9.98794
5.57815
5.66555
6.04625
6.13862
6.13969
6.13763
6.13712
6.13605
6.13515
6.1351
6.1361
6.1367
6.1376
6.13939
6.13856
6.04684
5.66675
5.57931
9.98774
-0.078274
-0.0552935
-0.0605945
-0.0324871
-0.0265443
-0.0311832
-0.0337842
-0.03221
-0.0290716
-0.0271698
-0.0270931
-0.0296414
-0.0344553
-0.0400407
-0.0450048
-0.0502469
-0.0662056
-0.100539
-0.0996454
-0.119529
-0.0375906
-0.0160744
-0.0124591
0.0291644
0.0594015
0.0705472
0.0713056
0.0703497
0.0696506
0.0673605
0.0631673
0.0543343
0.0432917
0.0286878
0.0114968
-0.014654
-0.0568372
-0.105001
-0.120474
-0.15858
0.207776
0.171139
0.1602
0.16846
0.178391
0.184642
0.185882
0.183714
0.180085
0.174693
0.166492
0.153545
0.134289
0.10774
0.074319
0.0375539
0.00677583
-0.0133107
-0.0250316
-0.0291357
0.313166
0.281025
0.26254
0.264187
0.275115
0.285241
0.290721
0.291834
0.290132
0.285742
0.278544
0.267046
0.250754
0.227205
0.194244
0.149467
0.0930075
0.0367021
0.0154042
0.0278099
0.332709
0.32397
0.315929
0.329507
0.35872
0.389181
0.409572
0.418967
0.421275
0.420417
0.417201
0.413232
0.408794
0.406078
0.405764
0.406109
0.402245
0.390994
0.368781
0.347481
0.433995
0.454812
0.466727
0.482655
0.503165
0.52299
0.538513
0.549107
0.554351
0.557638
0.558913
0.561943
0.567907
0.581768
0.60688
0.645763
0.691195
0.724822
0.719985
0.683953
0.634739
0.67461
0.686421
0.671731
0.660552
0.658787
0.665831
0.676399
0.685582
0.692512
0.698367
0.706149
0.715812
0.729045
0.745761
0.767954
0.79185
0.808881
0.822144
0.827364
0.775995
0.80432
0.819102
0.822367
0.819491
0.817159
0.818198
0.821525
0.825548
0.829367
0.833741
0.839044
0.846182
0.852581
0.855508
0.85154
0.842788
0.836852
0.851945
0.88205
0.933467
0.964153
0.994093
1.00337
0.996955
0.985931
0.977086
0.971289
0.968552
0.967329
0.967159
0.967032
0.966446
0.964837
0.960216
0.949779
0.937497
0.931433
0.940468
0.961698
1.03952
1.0375
1.05155
1.06757
1.08194
1.09416
1.10223
1.10698
1.10956
1.11093
1.11126
1.11005
1.10647
1.09872
1.08503
1.06651
1.04482
1.02746
1.02999
1.04611
1.22253
1.18664
1.18318
1.2074
1.23379
1.25276
1.26199
1.2661
1.26716
1.2675
1.26712
1.26643
1.26377
1.26012
1.25569
1.25132
1.24656
1.24168
1.23717
1.22863
1.53332
1.52363
1.5138
1.49681
1.47503
1.45406
1.43875
1.42974
1.424
1.42164
1.42059
1.42164
1.42416
1.42981
1.43986
1.45665
1.4804
1.50613
1.5068
1.47541
1.6579
1.66763
1.64889
1.61653
1.5839
1.56122
1.54968
1.54562
1.54509
1.54736
1.55163
1.55983
1.57207
1.58948
1.60954
1.6292
1.64534
1.65843
1.66518
1.65695
1.61948
1.59613
1.58137
1.59952
1.61812
1.62954
1.63541
1.64026
1.64502
1.65074
1.65633
1.66301
1.67142
1.68352
1.70096
1.72444
1.75054
1.77259
1.78413
1.78715
1.66641
1.65519
1.65018
1.66337
1.6854
1.70636
1.72327
1.73637
1.74639
1.75316
1.7571
1.75779
1.75332
1.74325
1.72897
1.71705
1.71413
1.72004
1.73871
1.76462
1.73306
1.72898
1.7294
1.75046
1.78537
1.82215
1.85074
1.8685
1.87913
1.8843
1.88592
1.88203
1.87273
1.85376
1.8235
1.78081
1.73054
1.68947
1.68981
1.72118
1.96973
1.9868
2.00092
2.01118
2.02088
2.02892
2.03614
2.04146
2.04522
2.04641
2.04581
2.04163
2.03332
2.0204
2.00453
1.98378
1.95923
1.93581
1.91382
1.89383
2.32548
2.3568
2.3624
2.33137
2.29269
2.25978
2.23861
2.2272
2.22158
2.21814
2.21536
2.21271
2.21145
2.21239
2.21623
2.22407
2.23499
2.24298
2.22139
2.17118
2.60423
2.60286
2.58734
2.55087
2.50429
2.46173
2.42896
2.40544
2.39014
2.37993
2.37324
2.36953
2.37029
2.37795
2.39107
2.40748
2.42244
2.42735
2.41564
2.39081
2.75641
2.73617
2.71251
2.68242
2.64548
2.60897
2.57838
2.55455
2.53783
2.52647
2.51905
2.51381
2.51111
2.51133
2.51641
2.52742
2.54216
2.55107
2.55093
2.54714
2.74872
2.70874
2.68707
2.69179
2.69783
2.69512
2.68506
2.67309
2.66328
2.65618
2.65283
2.6518
2.65224
2.65153
2.64914
2.64271
2.6334
2.62219
2.62368
2.64036
2.73361
2.71698
2.71207
2.72471
2.74541
2.7639
2.77448
2.77799
2.77795
2.77742
2.77775
2.77916
2.78201
2.78463
2.78748
2.78942
2.79137
2.79356
2.79265
2.79519
2.71821
2.71456
2.72328
2.75701
2.80041
2.84077
2.87118
2.88879
2.89701
2.90076
2.90306
2.9049
2.90603
2.90728
2.90912
2.9104
2.91032
2.90989
2.91262
2.92233
2.83929
2.86874
2.89409
2.92283
2.95307
2.97978
3.0016
3.01731
3.02667
3.03175
3.03468
3.03712
3.03995
3.04177
3.04194
3.03977
3.03527
3.03089
3.03404
3.04524
3.08114
3.13841
3.16114
3.15164
3.14145
3.13869
3.1424
3.14921
3.1559
3.16044
3.16372
3.16674
3.1704
3.17449
3.17806
3.17999
3.17971
3.1783
3.18016
3.18446
3.27556
3.30661
3.31697
3.30733
3.29134
3.28108
3.27753
3.27862
3.28162
3.28468
3.2869
3.28825
3.2901
3.29297
3.29901
3.31048
3.32721
3.34336
3.34867
3.34089
3.403
3.41299
3.4188
3.41694
3.40854
3.40221
3.40043
3.40216
3.40537
3.40817
3.40917
3.4085
3.40491
3.39971
3.39395
3.39269
3.40198
3.42052
3.43233
3.42434
3.45701
3.43657
3.43799
3.4643
3.48981
3.5116
3.52807
3.53917
3.54598
3.54986
3.55167
3.55086
3.54767
3.53927
3.52188
3.49129
3.44847
3.41008
3.41006
3.43573
3.63793
3.63094
3.64331
3.66713
3.68421
3.6947
3.70065
3.70504
3.70818
3.71077
3.71287
3.71481
3.71584
3.716
3.71537
3.7118
3.70287
3.68979
3.67364
3.66484
3.94172
3.959
3.96612
3.94884
3.92569
3.90276
3.88537
3.87616
3.8724
3.87206
3.87262
3.87474
3.87837
3.88585
3.89978
3.92281
3.952
3.97644
3.96986
3.93849
4.16953
4.16225
4.14624
4.12217
4.09538
4.06953
4.04849
4.0342
4.02607
4.02224
4.02088
4.02213
4.02559
4.03379
4.04698
4.06469
4.08416
4.09988
4.10441
4.09349
4.31765
4.30079
4.27873
4.25464
4.22913
4.20631
4.18832
4.17464
4.16509
4.1597
4.1568
4.15514
4.15335
4.14941
4.14255
4.13567
4.13293
4.13565
4.14443
4.15466
4.33811
4.30659
4.28534
4.28338
4.28914
4.29452
4.29595
4.29382
4.29085
4.28813
4.2869
4.28557
4.28385
4.27814
4.2642
4.23739
4.19977
4.16644
4.16605
4.1931
4.35202
4.3214
4.32131
4.35588
4.39125
4.41291
4.4214
4.42251
4.42117
4.41984
4.41945
4.41954
4.42088
4.42334
4.42882
4.43445
4.43532
4.43024
4.41771
4.40766
4.5224
4.5395
4.55224
4.55042
4.55031
4.55104
4.55221
4.55152
4.54984
4.54779
4.5461
4.54492
4.54352
4.5448
4.55273
4.57351
4.60655
4.63549
4.63255
4.60497
4.66067
4.67608
4.66641
4.64659
4.64309
4.65108
4.66239
4.67106
4.67612
4.67752
4.67678
4.67433
4.67053
4.66328
4.65049
4.63406
4.62141
4.61713
4.62399
4.63244
4.77388
4.77381
4.76518
4.76776
4.7783
4.79134
4.80344
4.81255
4.81895
4.82167
4.82287
4.82156
4.81867
4.81095
4.7946
4.76307
4.72029
4.68507
4.68237
4.7066
4.95825
4.97471
4.98244
4.98517
4.98144
4.9764
4.97425
4.9742
4.97549
4.97711
4.97931
4.9813
4.98463
4.98976
4.99918
5.01051
5.01626
5.01462
5.00224
4.98891
5.1549
5.17597
5.18831
5.18673
5.17387
5.15602
5.14079
5.13135
5.12672
5.12559
5.12683
5.13146
5.13916
5.15436
5.18071
5.22305
5.27401
5.31323
5.31177
5.27583
5.30144
5.31773
5.32423
5.31515
5.30076
5.28631
5.27312
5.2635
5.25748
5.25533
5.25572
5.25915
5.26505
5.27344
5.28444
5.30098
5.32158
5.33956
5.35294
5.35623
5.35217
5.35174
5.3523
5.35403
5.35842
5.36571
5.3708
5.37288
5.37274
5.37212
5.37196
5.37233
5.37252
5.36953
5.3599
5.34168
5.32099
5.30958
5.3218
5.35282
5.40747
5.39397
5.40041
5.42951
5.46126
5.48555
5.4984
5.50378
5.50424
5.50257
5.49888
5.49329
5.48495
5.4723
5.45343
5.42663
5.39856
5.38177
5.38337
5.4006
5.61082
5.62952
5.64587
5.65081
5.65178
5.65214
5.65362
5.65481
5.65472
5.65314
5.65079
5.6464
5.6379
5.6235
5.60291
5.57647
5.54679
5.52307
5.51577
5.51968
5.79049
5.81248
5.81893
5.80823
5.7988
5.79719
5.80201
5.80754
5.81148
5.81375
5.81555
5.81743
5.81988
5.823
5.82802
5.83506
5.8394
5.8375
5.8233
5.80042
5.92563
5.91728
5.923
5.94762
5.96785
5.97754
5.97898
5.97748
5.97604
5.97612
5.97719
5.98183
5.99094
6.00979
6.04008
6.08328
6.13136
6.16648
6.15949
6.11653
6.20322
6.22224
6.23259
6.21866
6.19177
6.16393
6.14269
6.12981
6.12319
6.12196
6.12423
6.13083
6.14104
6.1565
6.17698
6.20132
6.22499
6.24117
6.24904
6.24397
6.33881
6.34802
6.33584
6.30031
6.26469
6.24242
6.23245
6.23056
6.23299
6.23833
6.24623
6.25672
6.26873
6.2799
6.2867
6.28733
6.28499
6.28297
6.29128
6.30918
6.2806
6.23626
6.21499
6.23406
6.26586
6.29652
6.31713
6.33008
6.33863
6.34638
6.35298
6.3597
6.36589
6.37103
6.37321
6.37276
6.37318
6.37647
6.37991
6.38396
6.38029
6.35301
6.35677
6.39002
6.42488
6.44817
6.45931
6.46301
6.46328
6.4627
6.46088
6.45706
6.44947
6.43821
6.42286
6.4048
6.3872
6.37612
6.3764
6.38089
6.66483
6.69172
6.70742
6.69388
6.66923
6.6435
6.62418
6.60963
6.59759
6.58694
6.57603
6.56276
6.54481
6.51971
6.48633
6.44622
6.40561
6.37556
6.36592
6.36857
6.84985
6.87969
6.87683
6.84519
6.81052
6.78037
6.75714
6.73934
6.72543
6.71313
6.70151
6.68743
6.66877
6.64254
6.60835
6.56651
6.52076
6.48184
6.46019
6.45042
6.83013
6.82138
6.81229
6.82063
6.8353
6.84721
6.85211
6.85235
6.84989
6.8457
6.84057
6.83401
6.82604
6.81696
6.809
6.80288
6.79381
6.77864
6.75123
6.71607
6.82802
6.80816
6.81217
6.85419
6.90742
6.95304
6.9811
6.99494
6.99913
6.99938
6.99737
6.99656
6.99842
7.0081
7.02796
7.06087
7.09924
7.1255
7.10838
7.05425
7.04633
7.06915
7.09122
7.11221
7.13224
7.14885
7.16028
7.16717
7.16935
7.16979
7.16992
7.17296
7.17981
7.19186
7.20752
7.22708
7.2473
7.26026
7.26317
7.25329
7.35865
7.40696
7.41822
7.39553
7.36831
7.34915
7.34008
7.3375
7.337
7.33753
7.3404
7.34757
7.35934
7.37424
7.38872
7.39898
7.40527
7.40744
7.41636
7.43558
7.59259
7.6136
7.60732
7.58202
7.55004
7.52315
7.50483
7.49486
7.49052
7.49107
7.49515
7.50403
7.51736
7.53622
7.55922
7.5833
7.60629
7.62533
7.63832
7.6484
7.71572
7.7103
7.69492
7.6779
7.65835
7.64145
7.62964
7.62354
7.62199
7.62511
7.63135
7.64159
7.65416
7.66929
7.68482
7.70092
7.71684
7.73285
7.7533
7.76784
7.7114
7.67308
7.65498
7.6749
7.70156
7.72397
7.7374
7.74387
7.74655
7.75011
7.75441
7.76093
7.76804
7.77482
7.77763
7.77613
7.77245
7.77418
7.79257
7.80887
7.81534
7.80104
7.80271
7.82948
7.85598
7.87288
7.87935
7.87967
7.87721
7.87519
7.87413
7.87413
7.87235
7.86709
7.85596
7.83872
7.81754
7.80332
7.8105
7.81771
8.04837
8.08568
8.09342
8.07148
8.04781
8.03005
8.01892
8.01135
8.005
7.99924
7.99368
7.9868
7.97685
7.96307
7.94705
7.93188
7.91745
7.90774
7.90409
7.88785
8.16627
8.19021
8.17844
8.15129
8.13554
8.13222
8.13368
8.13486
8.13341
8.1298
8.12383
8.11515
8.10174
8.08499
8.06769
8.05602
8.0555
8.06622
8.06302
8.02257
8.22419
8.21327
8.20944
8.23349
8.25907
8.27489
8.28025
8.28115
8.28011
8.27847
8.27676
8.27455
8.27168
8.26529
8.25195
8.23264
8.21227
8.19973
8.19174
8.16211
8.44169
8.46575
8.47445
8.46851
8.45775
8.44718
8.44019
8.43686
8.43512
8.43453
8.43564
8.43963
8.44723
8.45929
8.47258
8.48178
8.48327
8.47531
8.45305
8.40769
8.61476
8.64436
8.64302
8.6204
8.60054
8.59128
8.5897
8.59075
8.59201
8.59306
8.59492
8.59874
8.60675
8.62066
8.64118
8.66727
8.69185
8.70107
8.68641
8.64738
8.73217
8.73103
8.73313
8.75452
8.77152
8.77753
8.77501
8.76909
8.76406
8.7611
8.76079
8.76322
8.76763
8.77512
8.78611
8.79911
8.8126
8.82095
8.82135
8.80656
9.01232
9.04514
9.05779
9.04622
9.02142
8.99292
8.96835
8.94925
8.93644
8.92914
8.928
8.93117
8.93848
8.94574
8.95066
8.94969
8.94138
8.92772
8.92612
8.92736
9.20259
9.23774
9.23607
9.20467
9.16758
9.13631
9.1134
9.0977
9.08752
9.08294
9.08357
9.08988
9.10012
9.11312
9.12653
9.13656
9.14266
9.14332
9.13888
9.1207
9.23488
9.23064
9.22625
9.24352
9.25566
9.25527
9.24651
9.23755
9.2312
9.22939
9.23159
9.23797
9.24826
9.26202
9.27768
9.29214
9.30142
9.30415
9.30362
9.28386
9.34832
9.3601
9.36793
9.38168
9.39139
9.39243
9.38659
9.37891
9.37263
9.37047
9.37243
9.37946
9.38911
9.40111
9.41303
9.42188
9.4269
9.42808
9.42912
9.41077
9.46132
9.47892
9.48965
9.5085
9.52295
9.52956
9.52691
9.51818
9.50918
9.50391
9.50329
9.50635
9.51176
9.5153
9.51512
9.51018
9.50153
9.49367
9.49439
9.48142
9.59205
9.6282
9.64249
9.65316
9.65696
9.65363
9.64632
9.63709
9.62902
9.6235
9.62168
9.62259
9.62315
9.61941
9.60747
9.58513
9.55727
9.53373
9.52896
9.51566
9.6442
9.68737
9.69568
9.7011
9.71098
9.72168
9.72996
9.73424
9.73612
9.73666
9.73821
9.73887
9.7386
9.73304
9.71872
9.69305
9.65796
9.62407
9.608
9.58264
9.62762
9.64351
9.65604
9.71193
9.77066
9.81403
9.83764
9.84779
9.85099
9.8522
9.85347
9.8549
9.85467
9.85242
9.84811
9.84044
9.829
9.81153
9.78933
9.73934
9.83027
9.88949
9.9194
9.9461
9.96479
9.97481
9.97762
9.97603
9.97155
9.96662
9.96157
9.95553
9.94862
9.93999
9.93309
9.93419
9.94662
9.95954
9.94702
9.87578
10.0117
10.0867
10.1053
10.0996
10.0918
10.0877
10.086
10.0827
10.0781
10.0715
10.0638
10.0532
10.038
10.0148
9.98242
9.9433
9.90788
9.8859
9.88351
9.85048
10.0333
10.066
10.0635
10.0807
10.1116
10.1445
10.1696
10.1834
10.19
10.1898
10.1867
10.1776
10.1643
10.1408
10.1048
10.0526
9.99003
9.9398
9.9275
9.91052
10.1341
10.1471
10.1443
10.1777
10.2259
10.2725
10.3059
10.3256
10.335
10.3381
10.3379
10.3353
10.3305
10.3235
10.317
10.3111
10.3031
10.2931
10.2749
10.2186
10.4557
10.5059
10.5074
10.5016
10.4978
10.4986
10.5024
10.5062
10.5074
10.5071
10.5057
10.5047
10.5059
10.5125
10.5306
10.5647
10.6104
10.6514
10.653
10.5773
10.7601
10.8279
10.8112
10.7615
10.7166
10.6886
10.6774
10.6743
10.6743
10.6746
10.6757
10.6781
10.6823
10.6914
10.7083
10.7335
10.7653
10.7991
10.824
10.7931
10.8789
10.9018
10.8631
10.832
10.8192
10.8201
10.8274
10.835
10.8422
10.8482
10.8551
10.8636
10.8757
10.8901
10.9057
10.9217
10.9409
10.9655
10.9954
10.9931
11.0287
11.0341
11.0019
10.9909
10.9962
11.0074
11.0179
11.0263
11.0327
11.0391
11.0466
11.0579
11.0737
11.0953
11.1214
11.152
11.1876
11.2282
11.2578
11.2417
11.3704
11.4139
11.3941
11.3501
11.3088
11.2766
11.2577
11.2494
11.2471
11.2493