/*--------------------------------*- C++ -*----------------------------------*\
  =========                 |
  \\      /  F ield         | OpenFOAM: The Open Source CFD Toolbox
   \\    /   O peration     | Website:  https://openfoam.org
    \\  /    A nd           | Version:  6
     \\/     M anipulation  |
\*---------------------------------------------------------------------------*/
FoamFile
{
    version     2.0;
    format      ascii;
    class       surfaceScalarField;
    location    "16";
    object      phi;
}
// * * * * * * * * * * * * * * * * * * * * * * * * * * * * * * * * * * * * * //

dimensions      [0 3 -1 0 0 0 0];

internalField   nonuniform List<scalar> 
19400
(
-1.72231e-09
-8.076e-07
-3.77769e-09
-1.07793e-06
-5.02502e-09
-1.20455e-06
-5.39314e-09
-1.2823e-06
-5.10289e-09
-1.32772e-06
-4.51582e-09
-1.35291e-06
-3.84912e-09
-1.3664e-06
-3.19829e-09
-1.37331e-06
-2.57147e-09
-1.37643e-06
-1.97259e-09
-1.3772e-06
-1.38981e-09
-1.37619e-06
-7.89952e-10
-1.37337e-06
-1.69418e-10
-1.36815e-06
5.42835e-10
-1.35912e-06
1.29228e-09
-1.34367e-06
1.99903e-09
-1.31703e-06
2.33367e-09
-1.27125e-06
1.99676e-09
-1.19471e-06
8.29577e-10
-1.07037e-06
-8.03664e-07
1.7347e-10
-8.078e-07
-1.2258e-09
-1.07658e-06
-2.18804e-09
-1.20362e-06
-2.73358e-09
-1.2818e-06
-2.92938e-09
-1.32756e-06
-2.87119e-09
-1.35301e-06
-2.6284e-09
-1.36667e-06
-2.3071e-09
-1.37368e-06
-1.92787e-09
-1.37684e-06
-1.56611e-09
-1.37762e-06
-1.1757e-09
-1.37661e-06
-8.20461e-10
-1.37379e-06
-4.49651e-10
-1.36856e-06
-1.30237e-10
-1.3595e-06
1.27662e-10
-1.34398e-06
3.23649e-10
-1.31727e-06
4.05897e-10
-1.27141e-06
2.6582e-10
-1.19466e-06
-2.94062e-10
-1.06991e-06
-8.03974e-07
-2.34012e-10
-8.07572e-07
-8.90892e-10
-1.07596e-06
-1.4281e-09
-1.2031e-06
-1.72849e-09
-1.28153e-06
-1.86947e-09
-1.32745e-06
-1.89531e-09
-1.35301e-06
-1.8231e-09
-1.36677e-06
-1.68221e-09
-1.37385e-06
-1.48239e-09
-1.37706e-06
-1.2637e-09
-1.37787e-06
-1.02656e-09
-1.37687e-06
-7.87391e-10
-1.37406e-06
-5.49463e-10
-1.36882e-06
-3.31465e-10
-1.35974e-06
-1.41887e-10
-1.34418e-06
4.21415e-11
-1.31746e-06
2.26067e-10
-1.27162e-06
3.15614e-10
-1.19481e-06
3.97254e-10
-1.07006e-06
-8.03581e-07
-2.32438e-10
-8.07356e-07
-4.18719e-10
-1.07579e-06
-6.95076e-10
-1.20283e-06
-8.9906e-10
-1.28134e-06
-1.03191e-09
-1.32732e-06
-1.11486e-09
-1.35294e-06
-1.13827e-09
-1.36675e-06
-1.11079e-09
-1.37388e-06
-1.03414e-09
-1.37714e-06
-9.34719e-10
-1.37797e-06
-8.06786e-10
-1.37699e-06
-6.72796e-10
-1.3742e-06
-5.28891e-10
-1.36897e-06
-3.87637e-10
-1.35988e-06
-2.80252e-10
-1.3443e-06
-1.56815e-10
-1.31758e-06
-1.99971e-11
-1.27177e-06
2.13865e-11
-1.19487e-06
1.12277e-10
-1.07017e-06
-8.03469e-07
-5.59914e-10
-8.06807e-07
-4.12029e-10
-1.07594e-06
-5.16193e-10
-1.20272e-06
-6.81758e-10
-1.28116e-06
-7.80441e-10
-1.3272e-06
-8.49068e-10
-1.35286e-06
-8.62321e-10
-1.36672e-06
-8.3846e-10
-1.3739e-06
-7.76367e-10
-1.37719e-06
-6.93416e-10
-1.37805e-06
-5.88967e-10
-1.3771e-06
-4.67666e-10
-1.37432e-06
-3.40983e-10
-1.3691e-06
-2.01225e-10
-1.36002e-06
-7.52753e-11
-1.34443e-06
4.62417e-11
-1.31771e-06
1.25067e-10
-1.27185e-06
1.11595e-10
-1.19485e-06
2.41035e-10
-1.07029e-06
-8.03226e-07
-3.30371e-10
-8.06509e-07
-3.16131e-10
-1.07597e-06
-4.89669e-10
-1.20256e-06
-6.94718e-10
-1.28096e-06
-8.04194e-10
-1.32709e-06
-8.48528e-10
-1.35282e-06
-8.25185e-10
-1.36674e-06
-7.63994e-10
-1.37396e-06
-6.71665e-10
-1.37728e-06
-5.57658e-10
-1.37817e-06
-4.28332e-10
-1.37722e-06
-2.86269e-10
-1.37446e-06
-1.31823e-10
-1.36926e-06
4.09146e-11
-1.36019e-06
1.93209e-10
-1.34459e-06
2.69558e-10
-1.31779e-06
2.19069e-10
-1.27179e-06
1.67519e-10
-1.19479e-06
1.55771e-10
-1.07028e-06
-8.03071e-07
-7.55562e-11
-8.06497e-07
-2.66711e-10
-1.07584e-06
-4.6847e-10
-1.2024e-06
-6.36121e-10
-1.28083e-06
-7.23574e-10
-1.32704e-06
-7.40034e-10
-1.35283e-06
-7.10526e-10
-1.36679e-06
-6.42639e-10
-1.37405e-06
-5.50499e-10
-1.3774e-06
-4.32595e-10
-1.3783e-06
-3.07803e-10
-1.37737e-06
-1.63069e-10
-1.37461e-06
-1.56764e-11
-1.36942e-06
1.56356e-10
-1.36036e-06
3.10961e-10
-1.34475e-06
3.6247e-10
-1.31784e-06
3.00946e-10
-1.27174e-06
2.27153e-10
-1.19471e-06
-3.68992e-11
-1.07002e-06
-8.03113e-07
-9.34007e-11
-8.06443e-07
-2.53936e-10
-1.07571e-06
-3.74897e-10
-1.20232e-06
-4.86852e-10
-1.28074e-06
-5.3916e-10
-1.32701e-06
-5.26178e-10
-1.35286e-06
-5.08509e-10
-1.36684e-06
-4.62609e-10
-1.37411e-06
-4.04944e-10
-1.37747e-06
-3.16925e-10
-1.37839e-06
-2.20158e-10
-1.37748e-06
-1.03144e-10
-1.37473e-06
3.05902e-11
-1.36956e-06
1.81304e-10
-1.36052e-06
3.35604e-10
-1.34491e-06
4.09174e-10
-1.31793e-06
3.92122e-10
-1.27173e-06
2.59275e-10
-1.1946e-06
-9.33868e-11
-1.06969e-06
-8.03214e-07
-2.16849e-10
-8.06226e-07
-2.49362e-10
-1.07569e-06
-2.77643e-10
-1.20229e-06
-3.41712e-10
-1.28069e-06
-3.97511e-10
-1.32696e-06
-4.22528e-10
-1.35284e-06
-4.20159e-10
-1.36684e-06
-3.99502e-10
-1.37413e-06
-3.62861e-10
-1.37752e-06
-3.15415e-10
-1.37845e-06
-2.54157e-10
-1.37755e-06
-1.81252e-10
-1.37482e-06
-8.8741e-11
-1.36966e-06
1.65232e-11
-1.36065e-06
1.4856e-10
-1.34505e-06
2.49931e-10
-1.31805e-06
2.87515e-10
-1.27179e-06
2.0169e-10
-1.19455e-06
-5.83396e-11
-1.06947e-06
-8.03277e-07
-3.00928e-10
-8.05909e-07
-3.15316e-10
-1.07568e-06
-3.13756e-10
-1.20227e-06
-3.70166e-10
-1.28063e-06
-4.4618e-10
-1.32687e-06
-4.93533e-10
-1.35279e-06
-4.78703e-10
-1.36685e-06
-4.5215e-10
-1.37416e-06
-4.07029e-10
-1.37756e-06
-3.72651e-10
-1.37849e-06
-3.23812e-10
-1.37759e-06
-2.89562e-10
-1.37487e-06
-2.38536e-10
-1.36971e-06
-1.75008e-10
-1.36073e-06
-7.41233e-11
-1.34517e-06
7.10955e-11
-1.31821e-06
1.97533e-10
-1.27194e-06
2.55978e-10
-1.19463e-06
2.56959e-10
-1.06949e-06
-8.03019e-07
-9.33825e-11
-8.05802e-07
-2.76569e-10
-1.07551e-06
-2.86258e-10
-1.20225e-06
-3.74882e-10
-1.28055e-06
-4.8644e-10
-1.32676e-06
-5.2499e-10
-1.35276e-06
-5.07765e-10
-1.36686e-06
-4.66056e-10
-1.3742e-06
-4.12257e-10
-1.37761e-06
-3.5105e-10
-1.37855e-06
-2.90725e-10
-1.37765e-06
-2.28391e-10
-1.37493e-06
-1.68093e-10
-1.36978e-06
-1.01473e-10
-1.3608e-06
-4.61402e-12
-1.34527e-06
1.60558e-10
-1.31837e-06
3.31094e-10
-1.2721e-06
3.86354e-10
-1.19468e-06
5.48189e-10
-1.06964e-06
-8.0247e-07
1.91754e-11
-8.05813e-07
-1.61543e-10
-1.07533e-06
-2.43156e-10
-1.20217e-06
-3.516e-10
-1.28045e-06
-4.42614e-10
-1.32666e-06
-4.71543e-10
-1.35273e-06
-4.58316e-10
-1.36688e-06
-4.15411e-10
-1.37424e-06
-3.58905e-10
-1.37766e-06
-2.7936e-10
-1.37862e-06
-1.94703e-10
-1.37774e-06
-9.89889e-11
-1.37502e-06
-6.80782e-12
-1.36987e-06
8.12515e-11
-1.36088e-06
1.71205e-10
-1.34536e-06
3.08143e-10
-1.31851e-06
4.41885e-10
-1.27223e-06
4.35585e-10
-1.19467e-06
3.91611e-10
-1.06959e-06
-8.02078e-07
1.34334e-10
-8.05953e-07
-2.4081e-11
-1.07519e-06
-1.48291e-10
-1.20205e-06
-2.14495e-10
-1.2804e-06
-2.62708e-10
-1.32663e-06
-3.06151e-10
-1.3527e-06
-3.21885e-10
-1.36687e-06
-3.15818e-10
-1.37426e-06
-2.85417e-10
-1.37771e-06
-2.25915e-10
-1.37869e-06
-1.49855e-10
-1.37782e-06
-4.96524e-11
-1.37512e-06
4.66595e-11
-1.36997e-06
1.43324e-10
-1.36098e-06
2.34159e-10
-1.34546e-06
3.3989e-10
-1.31863e-06
4.2374e-10
-1.27233e-06
3.90298e-10
-1.19464e-06
1.54789e-10
-1.06936e-06
-8.01924e-07
1.51472e-10
-8.06122e-07
9.13852e-11
-1.07513e-06
3.04742e-11
-1.202e-06
7.72379e-12
-1.28039e-06
-6.08636e-11
-1.32657e-06
-1.52914e-10
-1.35262e-06
-2.17949e-10
-1.36682e-06
-2.50312e-10
-1.37423e-06
-2.54674e-10
-1.37771e-06
-2.21478e-10
-1.37872e-06
-1.64358e-10
-1.37789e-06
-8.4991e-11
-1.37521e-06
7.93899e-12
-1.37007e-06
9.97611e-11
-1.36108e-06
1.86001e-10
-1.34555e-06
2.62054e-10
-1.31871e-06
2.68915e-10
-1.27234e-06
1.72399e-10
-1.19454e-06
4.06785e-11
-1.06923e-06
-8.01884e-07
1.03827e-10
-8.06247e-07
1.62726e-10
-1.07521e-06
6.65589e-11
-1.20192e-06
-1.69672e-11
-1.28032e-06
-8.87634e-11
-1.32651e-06
-1.66463e-10
-1.35255e-06
-2.22497e-10
-1.36677e-06
-2.56852e-10
-1.37421e-06
-2.65418e-10
-1.37771e-06
-2.48718e-10
-1.37875e-06
-2.1379e-10
-1.37793e-06
-1.5951e-10
-1.37526e-06
-9.7557e-11
-1.37014e-06
-3.54595e-11
-1.36114e-06
3.20104e-11
-1.34561e-06
5.59767e-11
-1.31873e-06
-2.581e-11
-1.27225e-06
-1.30173e-10
-1.19444e-06
-1.41433e-10
-1.06923e-06
-8.02028e-07
2.43273e-10
-8.06522e-07
2.87354e-10
-1.07526e-06
2.05636e-10
-1.20187e-06
1.1588e-10
-1.28023e-06
3.16119e-11
-1.32644e-06
-6.01264e-11
-1.35247e-06
-1.45344e-10
-1.3667e-06
-2.04278e-10
-1.37416e-06
-2.35586e-10
-1.37769e-06
-2.43937e-10
-1.37875e-06
-2.27424e-10
-1.37795e-06
-2.02165e-10
-1.3753e-06
-1.61452e-10
-1.37018e-06
-1.14648e-10
-1.3612e-06
-7.03169e-11
-1.34567e-06
-8.4657e-11
-1.31872e-06
-2.00881e-10
-1.27214e-06
-2.88228e-10
-1.19436e-06
-2.00828e-10
-1.06933e-06
-8.02235e-07
7.32622e-11
-8.06623e-07
2.72765e-10
-1.07546e-06
2.36783e-10
-1.20185e-06
1.4673e-10
-1.28015e-06
7.78279e-11
-1.32639e-06
3.45886e-12
-1.3524e-06
-8.20783e-11
-1.36662e-06
-1.58249e-10
-1.37409e-06
-2.15273e-10
-1.37764e-06
-2.49463e-10
-1.37873e-06
-2.61715e-10
-1.37795e-06
-2.44111e-10
-1.37532e-06
-2.05293e-10
-1.37024e-06
-1.42647e-10
-1.36127e-06
-9.48349e-11
-1.34572e-06
-1.28137e-10
-1.3187e-06
-2.61041e-10
-1.27202e-06
-4.00879e-10
-1.19425e-06
-3.1135e-10
-1.06945e-06
-8.02552e-07
1.65379e-10
-8.06817e-07
3.36636e-10
-1.07565e-06
2.86013e-10
-1.20182e-06
1.80809e-10
-1.28005e-06
1.07999e-10
-1.32632e-06
3.4872e-11
-1.35234e-06
-5.6241e-11
-1.36653e-06
-1.53569e-10
-1.374e-06
-2.30668e-10
-1.37756e-06
-3.05928e-10
-1.37866e-06
-3.56909e-10
-1.3779e-06
-3.98133e-10
-1.37529e-06
-4.1316e-10
-1.37022e-06
-4.13161e-10
-1.36127e-06
-4.24172e-10
-1.34572e-06
-4.57064e-10
-1.31867e-06
-5.29774e-10
-1.27196e-06
-5.59473e-10
-1.19424e-06
-5.24958e-10
-1.0695e-06
-8.03079e-07
1.82341e-10
-8.07022e-07
3.16736e-10
-1.0758e-06
2.61793e-10
-1.20178e-06
1.74622e-10
-1.27997e-06
1.16529e-10
-1.32627e-06
4.3681e-11
-1.35226e-06
-5.97487e-11
-1.36643e-06
-1.62787e-10
-1.3739e-06
-2.4891e-10
-1.37747e-06
-3.35329e-10
-1.37858e-06
-4.11167e-10
-1.37782e-06
-4.89034e-10
-1.37522e-06
-5.55036e-10
-1.37015e-06
-6.19627e-10
-1.3612e-06
-6.69501e-10
-1.34566e-06
-6.92239e-10
-1.31864e-06
-6.51174e-10
-1.27201e-06
-4.68083e-10
-1.19443e-06
-1.89885e-10
-1.06979e-06
-8.03268e-07
7.00526e-11
-8.07092e-07
1.45741e-10
-1.07588e-06
1.12879e-10
-1.20174e-06
6.6393e-11
-1.27991e-06
1.37923e-11
-1.32621e-06
-6.0357e-11
-1.35218e-06
-1.4995e-10
-1.36633e-06
-2.17504e-10
-1.37382e-06
-2.72373e-10
-1.37741e-06
-3.15228e-10
-1.37853e-06
-3.53393e-10
-1.37778e-06
-3.85936e-10
-1.37518e-06
-4.18446e-10
-1.37012e-06
-4.5422e-10
-1.36116e-06
-4.96465e-10
-1.34562e-06
-5.214e-10
-1.31861e-06
-4.804e-10
-1.27205e-06
-3.13654e-10
-1.19459e-06
5.45182e-11
-1.07015e-06
-8.03212e-07
4.1004e-11
-8.071e-07
-1.12016e-11
-1.07582e-06
-7.11092e-11
-1.20166e-06
-1.29889e-10
-1.27985e-06
-1.79327e-10
-1.32615e-06
-2.51855e-10
-1.3521e-06
-2.97485e-10
-1.36628e-06
-3.18044e-10
-1.3738e-06
-3.22833e-10
-1.3774e-06
-3.10224e-10
-1.37853e-06
-2.99273e-10
-1.37779e-06
-2.68589e-10
-1.3752e-06
-2.57949e-10
-1.37014e-06
-2.36535e-10
-1.36118e-06
-2.33435e-10
-1.34563e-06
-2.47879e-10
-1.31861e-06
-2.76804e-10
-1.27202e-06
-2.45934e-10
-1.19463e-06
-1.14115e-10
-1.07028e-06
-8.03324e-07
1.64872e-10
-8.07219e-07
-3.53738e-11
-1.07562e-06
-1.42436e-10
-1.20152e-06
-2.37962e-10
-1.27976e-06
-2.81322e-10
-1.32609e-06
-3.30004e-10
-1.35205e-06
-3.47621e-10
-1.36625e-06
-3.52192e-10
-1.37379e-06
-3.36141e-10
-1.37742e-06
-3.05832e-10
-1.37856e-06
-2.71558e-10
-1.37783e-06
-2.38148e-10
-1.37522e-06
-2.22043e-10
-1.37015e-06
-2.0451e-10
-1.36118e-06
-2.03465e-10
-1.34563e-06
-2.18145e-10
-1.31858e-06
-2.41748e-10
-1.272e-06
-2.11124e-10
-1.19464e-06
-2.83742e-10
-1.07019e-06
-8.03601e-07
2.67343e-10
-8.07449e-07
7.63894e-11
-1.07542e-06
-1.65592e-11
-1.2014e-06
-8.31134e-11
-1.2797e-06
-1.34258e-10
-1.32602e-06
-2.09775e-10
-1.35198e-06
-2.58331e-10
-1.3662e-06
-2.7922e-10
-1.37377e-06
-2.76401e-10
-1.37742e-06
-2.52439e-10
-1.37858e-06
-2.27743e-10
-1.37785e-06
-1.95537e-10
-1.37524e-06
-1.82267e-10
-1.37015e-06
-1.80507e-10
-1.36117e-06
-2.02176e-10
-1.3456e-06
-2.46015e-10
-1.31853e-06
-2.35859e-10
-1.27199e-06
-1.84178e-10
-1.19466e-06
-2.38993e-10
-1.0701e-06
-8.03835e-07
1.53924e-10
-8.07582e-07
7.73702e-11
-1.07534e-06
1.58911e-11
-1.20132e-06
4.09715e-12
-1.27969e-06
-2.10754e-11
-1.32599e-06
-9.0109e-11
-1.35191e-06
-1.44649e-10
-1.36614e-06
-1.77934e-10
-1.37373e-06
-1.99233e-10
-1.3774e-06
-1.99795e-10
-1.37856e-06
-2.01683e-10
-1.37785e-06
-1.93596e-10
-1.37524e-06
-1.83255e-10
-1.37016e-06
-1.76232e-10
-1.36117e-06
-1.85371e-10
-1.34558e-06
-2.10997e-10
-1.3185e-06
-2.13457e-10
-1.27197e-06
-2.14003e-10
-1.19464e-06
-2.35824e-10
-1.07007e-06
-8.04072e-07
1.11298e-10
-8.07698e-07
1.1446e-10
-1.07534e-06
9.96139e-11
-1.20131e-06
1.21882e-10
-1.27971e-06
9.67724e-11
-1.32596e-06
2.56292e-11
-1.35185e-06
-4.07362e-11
-1.36607e-06
-1.02525e-10
-1.37367e-06
-1.48113e-10
-1.37735e-06
-1.86958e-10
-1.37853e-06
-2.19438e-10
-1.37782e-06
-2.53096e-10
-1.37521e-06
-2.79426e-10
-1.37013e-06
-3.02115e-10
-1.36115e-06
-3.13745e-10
-1.34556e-06
-3.11348e-10
-1.3185e-06
-2.8084e-10
-1.272e-06
-2.70579e-10
-1.19466e-06
-2.9524e-10
-1.07005e-06
-8.04372e-07
2.26323e-11
-8.07737e-07
1.9456e-10
-1.0755e-06
2.08255e-10
-1.20133e-06
2.15449e-10
-1.27972e-06
1.59372e-10
-1.32591e-06
7.8648e-11
-1.35177e-06
-4.66297e-14
-1.36599e-06
-8.18143e-11
-1.37359e-06
-1.43866e-10
-1.37728e-06
-2.0401e-10
-1.37847e-06
-2.48285e-10
-1.37776e-06
-3.07612e-10
-1.37516e-06
-3.60585e-10
-1.37008e-06
-4.07797e-10
-1.36111e-06
-4.29807e-10
-1.34554e-06
-4.17795e-10
-1.31851e-06
-3.27281e-10
-1.2721e-06
-2.41734e-10
-1.19477e-06
-1.77762e-10
-1.07014e-06
-8.04554e-07
-1.63532e-11
-8.07734e-07
1.42056e-10
-1.07565e-06
1.86043e-10
-1.20138e-06
1.92031e-10
-1.27971e-06
1.01743e-10
-1.32582e-06
2.10763e-11
-1.35168e-06
-4.83341e-11
-1.36592e-06
-1.17405e-10
-1.37352e-06
-1.68191e-10
-1.37722e-06
-2.21949e-10
-1.37842e-06
-2.65276e-10
-1.37771e-06
-3.22467e-10
-1.37511e-06
-3.8677e-10
-1.37001e-06
-4.49796e-10
-1.36105e-06
-4.75162e-10
-1.34552e-06
-4.37345e-10
-1.31855e-06
-3.05579e-10
-1.27224e-06
-1.6828e-10
-1.19492e-06
-3.0997e-11
-1.07029e-06
-8.04587e-07
4.35153e-11
-8.07779e-07
8.7998e-11
-1.07568e-06
9.87455e-11
-1.20139e-06
6.20635e-11
-1.27966e-06
-4.04585e-11
-1.32571e-06
-1.05202e-10
-1.35161e-06
-1.45072e-10
-1.36587e-06
-1.72275e-10
-1.37349e-06
-1.86964e-10
-1.3772e-06
-2.04799e-10
-1.3784e-06
-2.18623e-10
-1.37769e-06
-2.46184e-10
-1.37508e-06
-2.81306e-10
-1.36997e-06
-3.19785e-10
-1.36101e-06
-3.38636e-10
-1.3455e-06
-2.8099e-10
-1.31861e-06
-1.66446e-10
-1.27236e-06
-2.65128e-11
-1.19507e-06
1.36249e-10
-1.07046e-06
-8.04449e-07
1.99729e-10
-8.07981e-07
1.03095e-10
-1.07557e-06
1.03444e-10
-1.2014e-06
2.43692e-11
-1.27957e-06
-9.09321e-11
-1.3256e-06
-1.53754e-10
-1.35154e-06
-1.85921e-10
-1.36584e-06
-1.84963e-10
-1.37349e-06
-1.75322e-10
-1.37721e-06
-1.52348e-10
-1.37842e-06
-1.36776e-10
-1.37771e-06
-1.05343e-10
-1.3751e-06
-8.65113e-11
-1.37e-06
-5.99179e-11
-1.36103e-06
-4.09182e-11
-1.34552e-06
4.83522e-12
-1.31865e-06
3.88584e-11
-1.27239e-06
8.61161e-11
-1.19511e-06
1.42888e-10
-1.07051e-06
-8.04302e-07
1.58495e-10
-8.0813e-07
1.12828e-10
-1.07551e-06
1.19941e-10
-1.20141e-06
7.70523e-12
-1.27945e-06
-1.19301e-10
-1.32548e-06
-1.7163e-10
-1.35148e-06
-1.92084e-10
-1.36582e-06
-1.80986e-10
-1.37349e-06
-1.62248e-10
-1.37724e-06
-1.26951e-10
-1.37845e-06
-9.19194e-11
-1.37775e-06
-4.32848e-11
-1.37514e-06
4.17298e-12
-1.37004e-06
5.40438e-11
-1.36106e-06
8.0227e-11
-1.34554e-06
1.02006e-10
-1.31865e-06
9.21607e-11
-1.27237e-06
8.07447e-11
-1.19508e-06
-9.7669e-12
-1.0704e-06
-8.04307e-07
7.55687e-11
-8.08193e-07
9.65414e-11
-1.07552e-06
9.75763e-11
-1.2014e-06
1.71604e-12
-1.27935e-06
-1.04709e-10
-1.32537e-06
-1.59276e-10
-1.35142e-06
-1.882e-10
-1.3658e-06
-1.88705e-10
-1.37349e-06
-1.88099e-10
-1.37724e-06
-1.63054e-10
-1.37847e-06
-1.39708e-10
-1.37778e-06
-9.2046e-11
-1.37517e-06
-5.04188e-11
-1.37008e-06
-1.98263e-12
-1.3611e-06
3.56864e-11
-1.34556e-06
5.83213e-11
-1.31867e-06
6.8003e-11
-1.27236e-06
5.5957e-11
-1.19505e-06
-5.2467e-11
-1.07027e-06
-8.04355e-07
-1.11312e-10
-8.08068e-07
-2.51117e-11
-1.0756e-06
-7.43252e-12
-1.20141e-06
-7.93327e-11
-1.27926e-06
-1.79079e-10
-1.32526e-06
-2.51843e-10
-1.35133e-06
-2.92677e-10
-1.36575e-06
-3.05508e-10
-1.37346e-06
-3.17652e-10
-1.37723e-06
-3.10774e-10
-1.37846e-06
-3.01498e-10
-1.37778e-06
-2.83088e-10
-1.37518e-06
-2.67373e-10
-1.37009e-06
-2.44858e-10
-1.36111e-06
-2.15713e-10
-1.34558e-06
-1.8751e-10
-1.31868e-06
-1.18344e-10
-1.27241e-06
-3.03191e-11
-1.19512e-06
-1.05489e-10
-1.07017e-06
-8.04455e-07
-5.09421e-11
-8.07999e-07
-3.58882e-11
-1.07561e-06
-1.07524e-10
-1.20132e-06
-2.33618e-10
-1.27913e-06
-3.40376e-10
-1.32515e-06
-4.07471e-10
-1.35126e-06
-4.37654e-10
-1.36571e-06
-4.46126e-10
-1.37345e-06
-4.50593e-10
-1.37721e-06
-4.54208e-10
-1.37845e-06
-4.58765e-10
-1.37777e-06
-4.69421e-10
-1.37517e-06
-4.86898e-10
-1.37006e-06
-5.01715e-10
-1.36109e-06
-4.88918e-10
-1.34558e-06
-4.51864e-10
-1.3187e-06
-3.21703e-10
-1.27253e-06
-1.15866e-10
-1.1953e-06
3.00761e-11
-1.07029e-06
-8.04423e-07
1.70674e-10
-8.08153e-07
2.11793e-11
-1.07544e-06
-1.53995e-11
-1.20128e-06
-6.87128e-11
-1.27907e-06
-1.6319e-10
-1.32504e-06
-2.44762e-10
-1.35116e-06
-3.19087e-10
-1.36564e-06
-3.61251e-10
-1.37339e-06
-3.96215e-10
-1.37717e-06
-4.2063e-10
-1.37841e-06
-4.40431e-10
-1.37774e-06
-4.56103e-10
-1.37515e-06
-4.59476e-10
-1.37006e-06
-4.58157e-10
-1.36109e-06
-4.39266e-10
-1.3456e-06
-3.88739e-10
-1.31875e-06
-2.93875e-10
-1.27261e-06
-1.5889e-10
-1.19543e-06
1.24312e-10
-1.07057e-06
-8.04301e-07
-7.7277e-11
-8.08045e-07
-2.63068e-11
-1.07546e-06
4.41387e-11
-1.20132e-06
7.36592e-11
-1.27908e-06
1.79744e-11
-1.32497e-06
-6.64177e-11
-1.35106e-06
-1.55113e-10
-1.36553e-06
-2.39262e-10
-1.37329e-06
-3.08147e-10
-1.37709e-06
-3.63346e-10
-1.37835e-06
-3.98685e-10
-1.3777e-06
-4.09006e-10
-1.37513e-06
-3.90425e-10
-1.37007e-06
-3.55402e-10
-1.36113e-06
-3.15558e-10
-1.34564e-06
-2.49884e-10
-1.31881e-06
-2.13252e-10
-1.27265e-06
-1.97925e-10
-1.19545e-06
-5.11951e-11
-1.07072e-06
-8.04354e-07
-1.73491e-10
-8.07843e-07
-4.75382e-12
-1.07562e-06
6.97535e-12
-1.2013e-06
-4.89795e-11
-1.279e-06
-1.12013e-10
-1.32488e-06
-1.87846e-10
-1.35097e-06
-2.50275e-10
-1.36544e-06
-3.30887e-10
-1.3732e-06
-3.89569e-10
-1.37701e-06
-4.47427e-10
-1.37829e-06
-4.74446e-10
-1.37765e-06
-4.96354e-10
-1.37511e-06
-4.83643e-10
-1.37007e-06
-4.6106e-10
-1.36114e-06
-4.22946e-10
-1.34567e-06
-3.26627e-10
-1.31889e-06
-2.66139e-10
-1.27271e-06
-2.691e-10
-1.19545e-06
-1.59702e-10
-1.07084e-06
-8.04512e-07
2.51117e-11
-8.07853e-07
-7.09556e-12
-1.07558e-06
-8.13117e-11
-1.20121e-06
-2.17831e-10
-1.27886e-06
-3.0564e-10
-1.32478e-06
-3.75411e-10
-1.3509e-06
-4.31142e-10
-1.36537e-06
-4.88245e-10
-1.37314e-06
-5.24404e-10
-1.37696e-06
-5.57619e-10
-1.37825e-06
-5.75319e-10
-1.37762e-06
-5.88623e-10
-1.37509e-06
-5.82652e-10
-1.37006e-06
-5.72787e-10
-1.36114e-06
-5.34378e-10
-1.34569e-06
-4.28765e-10
-1.31899e-06
-3.09439e-10
-1.27282e-06
-2.7908e-10
-1.19547e-06
-1.26587e-10
-1.07099e-06
-8.04637e-07
1.52869e-10
-8.07989e-07
2.25853e-11
-1.07544e-06
-7.27252e-11
-1.20111e-06
-1.79611e-10
-1.27875e-06
-2.80985e-10
-1.32467e-06
-3.86845e-10
-1.35079e-06
-4.79713e-10
-1.36527e-06
-5.48316e-10
-1.37307e-06
-5.95063e-10
-1.37691e-06
-6.30259e-10
-1.37821e-06
-6.54681e-10
-1.37759e-06
-6.7207e-10
-1.37506e-06
-6.69081e-10
-1.37005e-06
-6.53007e-10
-1.36115e-06
-6.14423e-10
-1.34571e-06
-5.41802e-10
-1.31905e-06
-4.14674e-10
-1.27293e-06
-2.99696e-10
-1.19558e-06
-1.61514e-10
-1.07112e-06
-8.04797e-07
2.02887e-10
-8.08168e-07
1.93989e-10
-1.07542e-06
5.25902e-11
-1.20095e-06
-6.05319e-11
-1.27864e-06
-1.68145e-10
-1.32455e-06
-3.08181e-10
-1.35065e-06
-4.26897e-10
-1.36515e-06
-5.25963e-10
-1.37296e-06
-6.11746e-10
-1.37682e-06
-6.85297e-10
-1.37813e-06
-7.48191e-10
-1.37752e-06
-7.93928e-10
-1.37501e-06
-8.22483e-10
-1.37002e-06
-8.18767e-10
-1.36115e-06
-7.70739e-10
-1.34575e-06
-7.25277e-10
-1.31909e-06
-6.28889e-10
-1.27302e-06
-4.02323e-10
-1.1958e-06
-1.87256e-10
-1.07132e-06
-8.04976e-07
2.66587e-10
-8.08406e-07
3.82364e-10
-1.07551e-06
2.82929e-10
-1.20083e-06
1.55571e-10
-1.27849e-06
2.90146e-11
-1.32441e-06
-1.22886e-10
-1.35048e-06
-2.73382e-10
-1.36499e-06
-4.24331e-10
-1.3728e-06
-5.71037e-10
-1.37666e-06
-7.03325e-10
-1.37798e-06
-8.17902e-10
-1.37739e-06
-9.15822e-10
-1.3749e-06
-9.8903e-10
-1.36993e-06
-1.02229e-09
-1.3611e-06
-9.94838e-10
-1.34577e-06
-9.44442e-10
-1.31912e-06
-8.34188e-10
-1.27311e-06
-4.8914e-10
-1.19611e-06
-1.56019e-10
-1.0716e-06
-8.05118e-07
1.2033e-10
-8.08482e-07
4.3246e-10
-1.07577e-06
4.60944e-10
-1.20082e-06
3.30095e-10
-1.27832e-06
1.75658e-10
-1.32422e-06
2.10476e-12
-1.35028e-06
-1.8895e-10
-1.36477e-06
-3.76168e-10
-1.37259e-06
-5.52691e-10
-1.37646e-06
-7.1162e-10
-1.3778e-06
-8.54018e-10
-1.37722e-06
-9.69069e-10
-1.37475e-06
-1.06059e-09
-1.36981e-06
-1.11024e-09
-1.36102e-06
-1.10148e-09
-1.34574e-06
-1.04852e-09
-1.31914e-06
-8.80989e-10
-1.27323e-06
-4.57718e-10
-1.19647e-06
4.78988e-11
-1.07204e-06
-8.0506e-07
6.10956e-11
-8.08498e-07
3.74571e-10
-1.07604e-06
4.1542e-10
-1.20082e-06
2.58986e-10
-1.27813e-06
8.26101e-11
-1.32401e-06
-1.00504e-10
-1.35006e-06
-2.90381e-10
-1.36455e-06
-4.64068e-10
-1.37238e-06
-6.33266e-10
-1.37626e-06
-7.76882e-10
-1.37762e-06
-9.04273e-10
-1.37707e-06
-9.9264e-10
-1.37463e-06
-1.04747e-09
-1.36972e-06
-1.07004e-09
-1.36097e-06
-1.05279e-09
-1.34573e-06
-9.79841e-10
-1.31919e-06
-7.77341e-10
-1.27339e-06
-4.45298e-10
-1.19676e-06
1.03501e-11
-1.07246e-06
-8.05049e-07
1.98098e-10
-8.08669e-07
3.07123e-10
-1.07613e-06
4.14926e-10
-1.20091e-06
2.97208e-10
-1.27799e-06
7.36218e-11
-1.32377e-06
-1.54214e-10
-1.34982e-06
-3.68869e-10
-1.36432e-06
-5.76874e-10
-1.37217e-06
-7.63118e-10
-1.37607e-06
-9.32027e-10
-1.37745e-06
-1.07083e-09
-1.37693e-06
-1.17566e-09
-1.37452e-06
-1.24248e-09
-1.36965e-06
-1.2819e-09
-1.36092e-06
-1.28323e-09
-1.34571e-06
-1.18594e-09
-1.31928e-06
-9.42766e-10
-1.27363e-06
-6.1957e-10
-1.19709e-06
-3.98756e-10
-1.07268e-06
-8.0545e-07
1.18473e-10
-8.08757e-07
2.70426e-10
-1.07626e-06
4.03598e-10
-1.20102e-06
3.17142e-10
-1.2779e-06
9.65148e-11
-1.32353e-06
-1.50477e-10
-1.34957e-06
-3.94476e-10
-1.36406e-06
-6.51524e-10
-1.37191e-06
-8.79165e-10
-1.37583e-06
-1.10234e-09
-1.37722e-06
-1.29039e-09
-1.37672e-06
-1.46999e-09
-1.37434e-06
-1.60064e-09
-1.3695e-06
-1.69622e-09
-1.36082e-06
-1.72243e-09
-1.34567e-06
-1.6124e-09
-1.31937e-06
-1.302e-09
-1.27394e-06
-8.18437e-10
-1.19758e-06
-3.91031e-10
-1.07312e-06
-8.05838e-07
2.09118e-10
-8.08944e-07
3.93681e-10
-1.07642e-06
5.58145e-10
-1.20117e-06
5.3676e-10
-1.27786e-06
3.32162e-10
-1.32332e-06
4.11934e-11
-1.34927e-06
-2.72455e-10
-1.36374e-06
-5.8363e-10
-1.37159e-06
-8.76786e-10
-1.37552e-06
-1.15717e-09
-1.37694e-06
-1.41226e-09
-1.37645e-06
-1.65088e-09
-1.37409e-06
-1.84469e-09
-1.36929e-06
-1.98784e-09
-1.36066e-06
-2.02575e-09
-1.34561e-06
-1.91436e-09
-1.31946e-06
-1.5495e-09
-1.27429e-06
-9.39709e-10
-1.19817e-06
-1.693e-10
-1.07387e-06
-8.06001e-07
9.25435e-11
-8.09011e-07
4.64681e-10
-1.07676e-06
7.47653e-10
-1.20144e-06
7.99346e-10
-1.27789e-06
6.03585e-10
-1.32311e-06
2.79374e-10
-1.34892e-06
-8.69098e-11
-1.36336e-06
-4.4254e-10
-1.37121e-06
-7.89058e-10
-1.37515e-06
-1.10846e-09
-1.37659e-06
-1.39714e-09
-1.37614e-06
-1.6544e-09
-1.37382e-06
-1.86724e-09
-1.36905e-06
-2.011e-09
-1.3605e-06
-2.04885e-09
-1.34555e-06
-1.94146e-09
-1.31954e-06
-1.59854e-09
-1.2746e-06
-9.86601e-10
-1.19875e-06
-1.08812e-10
-1.07472e-06
-8.06103e-07
-5.74617e-11
-8.08909e-07
4.79833e-10
-1.07725e-06
8.19666e-10
-1.20174e-06
8.72614e-10
-1.2779e-06
6.71834e-10
-1.32287e-06
3.4958e-10
-1.34857e-06
-1.877e-11
-1.36296e-06
-3.94495e-10
-1.3708e-06
-7.54222e-10
-1.37477e-06
-1.08017e-09
-1.37624e-06
-1.37325e-09
-1.37583e-06
-1.61542e-09
-1.37355e-06
-1.81273e-09
-1.36884e-06
-1.92887e-09
-1.36036e-06
-1.94914e-09
-1.34551e-06
-1.84282e-09
-1.31962e-06
-1.5703e-09
-1.27485e-06
-1.05088e-09
-1.19924e-06
-3.36442e-10
-1.0754e-06
-8.06432e-07
7.68386e-11
-8.08941e-07
5.89716e-10
-1.07772e-06
9.30832e-10
-1.20204e-06
9.30947e-10
-1.27787e-06
6.81584e-10
-1.32259e-06
3.31637e-10
-1.34819e-06
-5.01414e-11
-1.36255e-06
-4.3982e-10
-1.37039e-06
-8.01802e-10
-1.37438e-06
-1.13413e-09
-1.37589e-06
-1.42773e-09
-1.37551e-06
-1.68193e-09
-1.37327e-06
-1.8827e-09
-1.36861e-06
-2.0199e-09
-1.36019e-06
-2.06151e-09
-1.34544e-06
-1.93405e-09
-1.31972e-06
-1.62364e-09
-1.27513e-06
-1.12312e-09
-1.19971e-06
-5.91788e-10
-1.07589e-06
-8.07015e-07
3.06309e-10
-8.09202e-07
7.83452e-10
-1.07817e-06
1.06044e-09
-1.20228e-06
9.97917e-10
-1.27778e-06
7.38986e-10
-1.3223e-06
3.59271e-10
-1.34779e-06
-4.95597e-11
-1.36211e-06
-4.57122e-10
-1.36996e-06
-8.4531e-10
-1.37397e-06
-1.20239e-09
-1.37551e-06
-1.53265e-09
-1.37516e-06
-1.8201e-09
-1.37295e-06
-2.06248e-09
-1.36834e-06
-2.23718e-09
-1.35999e-06
-2.29215e-09
-1.34535e-06
-2.1682e-09
-1.31982e-06
-1.80479e-09
-1.27546e-06
-1.25629e-09
-1.20022e-06
-6.40276e-10
-1.07647e-06
-8.07647e-07
4.87371e-10
-8.09628e-07
9.76702e-10
-1.07862e-06
1.31062e-09
-1.20257e-06
1.31851e-09
-1.27776e-06
1.09449e-09
-1.32204e-06
6.77052e-10
-1.34735e-06
1.88673e-10
-1.3616e-06
-3.05349e-10
-1.36945e-06
-7.84139e-10
-1.37347e-06
-1.22719e-09
-1.37504e-06
-1.64144e-09
-1.37472e-06
-2.01581e-09
-1.37255e-06
-2.33876e-09
-1.36799e-06
-2.57284e-09
-1.35972e-06
-2.65772e-09
-1.34523e-06
-2.53319e-09
-1.31991e-06
-2.14056e-09
-1.27582e-06
-1.49568e-09
-1.20083e-06
-7.41747e-10
-1.07718e-06
-8.08377e-07
4.43145e-10
-8.0998e-07
1.13519e-09
-1.07925e-06
1.60376e-09
-1.20297e-06
1.7057e-09
-1.27782e-06
1.49024e-09
-1.32177e-06
1.02831e-09
-1.34685e-06
4.68741e-10
-1.361e-06
-1.20878e-10
-1.36882e-06
-6.91821e-10
-1.37286e-06
-1.23497e-09
-1.37446e-06
-1.74196e-09
-1.37418e-06
-2.21148e-09
-1.37205e-06
-2.61988e-09
-1.36755e-06
-2.92372e-09
-1.35939e-06
-3.04241e-09
-1.34508e-06
-2.90921e-09
-1.32001e-06
-2.45001e-09
-1.27625e-06
-1.66188e-09
-1.20157e-06
-6.64248e-10
-1.07812e-06
-8.09027e-07
5.39993e-10
-8.10444e-07
1.34632e-09
-1.08001e-06
1.83994e-09
-1.2034e-06
1.92065e-09
-1.27787e-06
1.64942e-09
-1.32145e-06
1.14962e-09
-1.34631e-06
5.67288e-10
-1.36038e-06
-4.70404e-11
-1.36817e-06
-6.50975e-10
-1.37222e-06
-1.23279e-09
-1.37385e-06
-1.78015e-09
-1.3736e-06
-2.29024e-09
-1.37151e-06
-2.73369e-09
-1.36707e-06
-3.07154e-09
-1.35903e-06
-3.22635e-09
-1.3449e-06
-3.10348e-09
-1.3201e-06
-2.63997e-09
-1.27667e-06
-1.78972e-09
-1.20236e-06
-4.94278e-10
-1.07935e-06
-8.09508e-07
8.00349e-10
-8.11206e-07
1.63047e-09
-1.08083e-06
2.12811e-09
-1.20386e-06
2.18167e-09
-1.27791e-06
1.88433e-09
-1.32113e-06
1.36685e-09
-1.34578e-06
7.53893e-10
-1.35974e-06
1.08999e-10
-1.36751e-06
-5.31552e-10
-1.37156e-06
-1.14344e-09
-1.37321e-06
-1.72519e-09
-1.373e-06
-2.24699e-09
-1.37096e-06
-2.71216e-09
-1.36658e-06
-3.07247e-09
-1.35864e-06
-3.27599e-09
-1.34466e-06
-3.21211e-09
-1.32013e-06
-2.77744e-09
-1.27705e-06
-1.91778e-09
-1.20316e-06
-6.42e-10
-1.08056e-06
-8.10142e-07
9.14971e-10
-8.12078e-07
1.91455e-09
-1.08178e-06
2.5959e-09
-1.20452e-06
2.7741e-09
-1.27806e-06
2.49894e-09
-1.32083e-06
1.9334e-09
-1.3452e-06
1.21767e-09
-1.35901e-06
4.58312e-10
-1.36672e-06
-2.98008e-10
-1.37079e-06
-1.00716e-09
-1.37247e-06
-1.67327e-09
-1.37231e-06
-2.26601e-09
-1.37033e-06
-2.77688e-09
-1.36604e-06
-3.17266e-09
-1.35821e-06
-3.39311e-09
-1.34441e-06
-3.36423e-09
-1.32013e-06
-2.93074e-09
-1.27745e-06
-2.06732e-09
-1.20399e-06
-1.00348e-09
-1.08159e-06
-8.11144e-07
7.33779e-10
-8.1273e-07
2.08388e-09
-1.08306e-06
2.98833e-09
-1.20536e-06
3.26664e-09
-1.2783e-06
3.00936e-09
-1.32053e-06
2.3905e-09
-1.34455e-06
1.59818e-09
-1.35818e-06
7.21627e-10
-1.36583e-06
-1.47557e-10
-1.36989e-06
-9.94173e-10
-1.37161e-06
-1.77971e-09
-1.3715e-06
-2.5075e-09
-1.36959e-06
-3.12863e-09
-1.36539e-06
-3.62959e-09
-1.3577e-06
-3.91008e-09
-1.3441e-06
-3.88403e-09
-1.32014e-06
-3.39814e-09
-1.27792e-06
-2.44035e-09
-1.20495e-06
-1.37835e-09
-1.08265e-06
-8.1252e-07
8.27486e-10
-8.13483e-07
2.31709e-09
-1.08449e-06
3.25176e-09
-1.20623e-06
3.48643e-09
-1.2785e-06
3.2193e-09
-1.32021e-06
2.57582e-09
-1.34389e-06
1.75173e-09
-1.35732e-06
8.16464e-10
-1.36488e-06
-1.23802e-10
-1.36892e-06
-1.07452e-09
-1.37064e-06
-1.96971e-09
-1.37057e-06
-2.83002e-09
-1.36872e-06
-3.57316e-09
-1.36462e-06
-4.18421e-09
-1.35707e-06
-4.52251e-09
-1.34373e-06
-4.46316e-09
-1.32017e-06
-3.88814e-09
-1.27848e-06
-2.762e-09
-1.20606e-06
-1.30363e-09
-1.08409e-06
-8.13819e-07
1.25856e-09
-8.14715e-07
2.62876e-09
-1.08583e-06
3.60905e-09
-1.2072e-06
3.91378e-09
-1.27879e-06
3.63467e-09
-1.31992e-06
2.94879e-09
-1.34319e-06
2.03731e-09
-1.35639e-06
1.02279e-09
-1.36385e-06
-1.61429e-11
-1.36786e-06
-1.05694e-09
-1.36958e-06
-2.05858e-09
-1.36954e-06
-3.01225e-09
-1.36775e-06
-3.85476e-09
-1.36375e-06
-4.54327e-09
-1.35637e-06
-4.93526e-09
-1.34331e-06
-4.90544e-09
-1.32017e-06
-4.28723e-09
-1.27906e-06
-3.00457e-09
-1.20731e-06
-1.20444e-09
-1.08587e-06
-8.15018e-07
1.34514e-09
-8.16038e-07
2.96367e-09
-1.0874e-06
4.08024e-09
-1.20831e-06
4.48918e-09
-1.27917e-06
4.20374e-09
-1.31963e-06
3.46639e-09
-1.34243e-06
2.46379e-09
-1.35538e-06
1.35087e-09
-1.36272e-06
1.99136e-10
-1.36669e-06
-9.44278e-10
-1.36842e-06
-2.04669e-09
-1.36841e-06
-3.09034e-09
-1.36669e-06
-4.01758e-09
-1.3628e-06
-4.77005e-09
-1.3556e-06
-5.22757e-09
-1.34283e-06
-5.23567e-09
-1.32014e-06
-4.5866e-09
-1.27969e-06
-3.20219e-09
-1.20868e-06
-1.31358e-09
-1.08773e-06
-8.16327e-07
1.35338e-09
-8.17355e-07
3.28734e-09
-1.08929e-06
4.55567e-09
-1.20955e-06
5.01055e-09
-1.2796e-06
4.73151e-09
-1.31933e-06
3.95688e-09
-1.34164e-06
2.8872e-09
-1.35429e-06
1.67608e-09
-1.36149e-06
4.13019e-10
-1.36541e-06
-8.40956e-10
-1.36715e-06
-2.05803e-09
-1.36718e-06
-3.19277e-09
-1.36553e-06
-4.20598e-09
-1.36176e-06
-5.01363e-09
-1.35477e-06
-5.49455e-09
-1.34232e-06
-5.48568e-09
-1.32012e-06
-4.81607e-09
-1.28034e-06
-3.39299e-09
-1.21008e-06