/*--------------------------------*- C++ -*----------------------------------*\
  =========                 |
  \\      /  F ield         | OpenFOAM: The Open Source CFD Toolbox
   \\    /   O peration     | Website:  https://openfoam.org
    \\  /    A nd           | Version:  6
     \\/     M anipulation  |
\*---------------------------------------------------------------------------*/
FoamFile
{
    version     2.0;
    format      ascii;
    class       surfaceScalarField;
    location    "16";
    object      phi;
}
// * * * * * * * * * * * * * * * * * * * * * * * * * * * * * * * * * * * * * //

dimensions      [0 3 -1 0 0 0 0];

internalField   nonuniform List<scalar> 
258600
(
-7.0606e-09
-8.5147e-08
6.76249e-09
-7.34483e-09
-9.28704e-08
-7.5985e-09
-1.00357e-07
-7.82421e-09
-1.07554e-07
-8.02371e-09
-1.14408e-07
-8.19949e-09
-1.20867e-07
-8.3545e-09
-1.26888e-07
-8.49171e-09
-1.32432e-07
-8.61389e-09
-1.37474e-07
-8.72365e-09
-1.41997e-07
-8.82316e-09
-1.45995e-07
-8.91439e-09
-1.49471e-07
-8.99878e-09
-1.52441e-07
-9.07759e-09
-1.54926e-07
-9.15159e-09
-1.56957e-07
-9.22136e-09
-1.58571e-07
-9.28711e-09
-1.59807e-07
-9.34898e-09
-1.6071e-07
-9.40693e-09
-1.61325e-07
-1.61695e-07
-9.46085e-09
-7.85178e-09
-8.4932e-08
7.63752e-09
-8.06324e-09
-9.26586e-08
-8.26385e-09
-1.00156e-07
-8.44823e-09
-1.0737e-07
-8.615e-09
-1.14241e-07
-8.76441e-09
-1.20718e-07
-8.89801e-09
-1.26754e-07
-9.01763e-09
-1.32312e-07
-9.12554e-09
-1.37366e-07
-9.2237e-09
-1.41899e-07
-9.31409e-09
-1.45904e-07
-9.39817e-09
-1.49387e-07
-9.4773e-09
-1.52362e-07
-9.55232e-09
-1.54851e-07
-9.62386e-09
-1.56886e-07
-9.69223e-09
-1.58503e-07
-9.7575e-09
-1.59742e-07
-9.8196e-09
-1.60649e-07
-9.87834e-09
-1.61266e-07
-1.6164e-07
-9.93387e-09
-9.08612e-09
-8.4782e-08
8.93753e-09
-9.23483e-09
-9.25089e-08
-9.37804e-09
-1.00012e-07
-9.51169e-09
-1.07235e-07
-9.63509e-09
-1.14117e-07
-9.74744e-09
-1.20604e-07
-9.85018e-09
-1.26651e-07
-9.94387e-09
-1.32218e-07
-1.00306e-08
-1.37279e-07
-1.01111e-08
-1.41818e-07
-1.01874e-08
-1.45828e-07
-1.02601e-08
-1.49314e-07
-1.03304e-08
-1.52291e-07
-1.03985e-08
-1.54783e-07
-1.0465e-08
-1.56819e-07
-1.05298e-08
-1.58438e-07
-1.05929e-08
-1.59679e-07
-1.0654e-08
-1.60588e-07
-1.07128e-08
-1.61208e-07
-1.61583e-07
-1.07692e-08
-1.07209e-08
-8.47103e-08
1.06507e-08
-1.07951e-08
-9.24334e-08
-1.08697e-08
-9.99364e-08
-1.09414e-08
-1.07162e-07
-1.10101e-08
-1.14048e-07
-1.10744e-08
-1.20539e-07
-1.11356e-08
-1.26589e-07
-1.11934e-08
-1.32159e-07
-1.12497e-08
-1.37223e-07
-1.13043e-08
-1.41763e-07
-1.1359e-08
-1.45773e-07
-1.14136e-08
-1.49259e-07
-1.14691e-08
-1.52236e-07
-1.15252e-08
-1.54727e-07
-1.15823e-08
-1.56763e-07
-1.16397e-08
-1.58381e-07
-1.16974e-08
-1.59622e-07
-1.17548e-08
-1.60531e-07
-1.18114e-08
-1.61151e-07
-1.61529e-07
-1.18666e-08
-1.26129e-08
-8.4706e-08
1.26111e-08
-1.26184e-08
-9.2426e-08
-1.26267e-08
-9.99267e-08
-1.26363e-08
-1.07151e-07
-1.26478e-08
-1.14035e-07
-1.26603e-08
-1.20525e-07
-1.26751e-08
-1.26573e-07
-1.26917e-08
-1.32142e-07
-1.27116e-08
-1.37203e-07
-1.27345e-08
-1.41739e-07
-1.27617e-08
-1.45746e-07
-1.27926e-08
-1.49228e-07
-1.2828e-08
-1.52201e-07
-1.28669e-08
-1.54688e-07
-1.29096e-08
-1.5672e-07
-1.29551e-08
-1.58335e-07
-1.30031e-08
-1.59574e-07
-1.30525e-08
-1.60481e-07
-1.31028e-08
-1.61101e-07
-1.61479e-07
-1.31529e-08
-1.46516e-08
-8.47554e-08
1.47038e-08
-1.46003e-08
-9.24747e-08
-1.45518e-08
-9.99734e-08
-1.45059e-08
-1.07194e-07
-1.44645e-08
-1.14075e-07
-1.44271e-08
-1.20561e-07
-1.43958e-08
-1.26604e-07
-1.437e-08
-1.32167e-07
-1.43517e-08
-1.37221e-07
-1.43401e-08
-1.4175e-07
-1.43364e-08
-1.4575e-07
-1.43399e-08
-1.49224e-07
-1.43511e-08
-1.5219e-07
-1.43689e-08
-1.5467e-07
-1.43932e-08
-1.56696e-07
-1.44227e-08
-1.58306e-07
-1.44568e-08
-1.59541e-07
-1.44943e-08
-1.60444e-07
-1.45342e-08
-1.61062e-07
-1.61438e-07
-1.45755e-08
-1.67749e-08
-8.48461e-08
1.68705e-08
-1.66782e-08
-9.25684e-08
-1.65824e-08
-1.00067e-07
-1.64887e-08
-1.07286e-07
-1.64001e-08
-1.14162e-07
-1.6317e-08
-1.20642e-07
-1.6242e-08
-1.26678e-07
-1.61752e-08
-1.32232e-07
-1.61185e-08
-1.37277e-07
-1.60715e-08
-1.41797e-07
-1.60354e-08
-1.45786e-07
-1.60093e-08
-1.4925e-07
-1.59938e-08
-1.52206e-07
-1.59874e-08
-1.54676e-07
-1.59901e-08
-1.56694e-07
-1.60003e-08
-1.58296e-07
-1.60172e-08
-1.59524e-07
-1.60394e-08
-1.60423e-07
-1.60657e-08
-1.61036e-07
-1.61409e-07
-1.6095e-08
-1.89483e-08
-8.49711e-08
1.9077e-08
-1.88141e-08
-9.26999e-08
-1.86783e-08
-1.00201e-07
-1.85432e-08
-1.07419e-07
-1.84127e-08
-1.14292e-07
-1.82881e-08
-1.20765e-07
-1.81727e-08
-1.26793e-07
-1.80669e-08
-1.32337e-07
-1.7973e-08
-1.37371e-07
-1.7891e-08
-1.41878e-07
-1.78221e-08
-1.45855e-07
-1.77656e-08
-1.49307e-07
-1.77219e-08
-1.5225e-07
-1.76897e-08
-1.54709e-07
-1.76686e-08
-1.56716e-07
-1.76571e-08
-1.58308e-07
-1.76543e-08
-1.59528e-07
-1.76586e-08
-1.60419e-07
-1.76686e-08
-1.61027e-07
-1.61396e-07
-1.76831e-08
-2.11455e-08
-8.51244e-08
2.13015e-08
-2.09801e-08
-9.28632e-08
-2.08104e-08
-1.00369e-07
-2.06395e-08
-1.07588e-07
-2.04721e-08
-1.14458e-07
-2.03103e-08
-1.20926e-07
-2.01577e-08
-1.26945e-07
-2.00156e-08
-1.32479e-07
-1.98864e-08
-1.375e-07
-1.97705e-08
-1.41994e-07
-1.96693e-08
-1.45956e-07
-1.95822e-08
-1.49394e-07
-1.95097e-08
-1.52323e-07
-1.94506e-08
-1.54768e-07
-1.94043e-08
-1.56763e-07
-1.93696e-08
-1.58343e-07
-1.9345e-08
-1.59553e-07
-1.93294e-08
-1.60436e-07
-1.93209e-08
-1.61036e-07
-1.61399e-07
-1.93183e-08
-2.33518e-08
-8.53005e-08
2.35298e-08
-2.31606e-08
-9.30529e-08
-2.29619e-08
-1.00567e-07
-2.27597e-08
-1.07789e-07
-2.25594e-08
-1.14658e-07
-2.23639e-08
-1.21121e-07
-2.21772e-08
-1.27132e-07
-2.20012e-08
-1.32654e-07
-2.18386e-08
-1.37663e-07
-2.16902e-08
-1.42142e-07
-2.15576e-08
-1.46089e-07
-2.14404e-08
-1.49511e-07
-2.1339e-08
-1.52425e-07
-2.12526e-08
-1.54855e-07
-2.11804e-08
-1.56836e-07
-2.11213e-08
-1.58404e-07
-2.10739e-08
-1.59601e-07
-2.10368e-08
-1.60474e-07
-2.10081e-08
-1.61066e-07
-1.61422e-07
-2.09868e-08
-2.55624e-08
-8.54988e-08
2.57617e-08
-2.53471e-08
-9.32673e-08
-2.5122e-08
-1.00791e-07
-2.48918e-08
-1.08018e-07
-2.46617e-08
-1.14888e-07
-2.44355e-08
-1.21347e-07
-2.42174e-08
-1.2735e-07
-2.40098e-08
-1.32862e-07
-2.38157e-08
-1.37857e-07
-2.36362e-08
-1.42322e-07
-2.3473e-08
-1.46253e-07
-2.33263e-08
-1.49659e-07
-2.31963e-08
-1.52556e-07
-2.30824e-08
-1.5497e-07
-2.29839e-08
-1.56935e-07
-2.28997e-08
-1.58489e-07
-2.28284e-08
-1.59674e-07
-2.27686e-08
-1.60535e-07
-2.27186e-08
-1.61117e-07
-1.61465e-07
-2.26772e-08
-2.77733e-08
-8.57157e-08
2.79901e-08
-2.75372e-08
-9.35038e-08
-2.72882e-08
-1.01041e-07
-2.70319e-08
-1.08275e-07
-2.6774e-08
-1.15146e-07
-2.65188e-08
-1.21602e-07
-2.62709e-08
-1.27598e-07
-2.60332e-08
-1.331e-07
-2.58088e-08
-1.38082e-07
-2.55994e-08
-1.42532e-07
-2.54065e-08
-1.46447e-07
-2.52307e-08
-1.49835e-07
-2.50724e-08
-1.52715e-07
-2.49311e-08
-1.55113e-07
-2.4806e-08
-1.57061e-07
-2.46964e-08
-1.586e-07
-2.46005e-08
-1.59771e-07
-2.45174e-08
-1.6062e-07
-2.4445e-08
-1.61191e-07
-1.61529e-07
-2.43823e-08
-2.99846e-08
-8.59525e-08
3.0219e-08
-2.97276e-08
-9.37622e-08
-2.94556e-08
-1.01314e-07
-2.91744e-08
-1.08557e-07
-2.88902e-08
-1.15431e-07
-2.86076e-08
-1.21885e-07
-2.83314e-08
-1.27875e-07
-2.80649e-08
-1.33367e-07
-2.78114e-08
-1.38337e-07
-2.75729e-08
-1.42772e-07
-2.7351e-08
-1.4667e-07
-2.71467e-08
-1.50041e-07
-2.69603e-08
-1.52903e-07
-2.67915e-08
-1.55283e-07
-2.66397e-08
-1.57214e-07
-2.65042e-08
-1.58737e-07
-2.63832e-08
-1.59893e-07
-2.62761e-08
-1.60729e-07
-2.61804e-08
-1.61288e-07
-1.61616e-07
-2.60957e-08
-3.21949e-08
-8.6207e-08
3.24468e-08
-3.19177e-08
-9.40409e-08
-3.16234e-08
-1.0161e-07
-3.13183e-08
-1.08863e-07
-3.10086e-08
-1.15742e-07
-3.06996e-08
-1.22196e-07
-3.03959e-08
-1.28181e-07
-3.01014e-08
-1.33663e-07
-2.98195e-08
-1.3862e-07
-2.95525e-08
-1.4304e-07
-2.93021e-08
-1.46922e-07
-2.90696e-08
-1.50275e-07
-2.88552e-08
-1.53119e-07
-2.86591e-08
-1.55481e-07
-2.84803e-08
-1.57395e-07
-2.83186e-08
-1.58901e-07
-2.81722e-08
-1.60042e-07
-2.80404e-08
-1.60863e-07
-2.79209e-08
-1.61409e-07
-1.61726e-07
-2.78133e-08
-3.44012e-08
-8.64781e-08
3.46709e-08
-3.41047e-08
-9.43385e-08
-3.3789e-08
-1.01927e-07
-3.34609e-08
-1.09193e-07
-3.31267e-08
-1.16078e-07
-3.27919e-08
-1.22532e-07
-3.24615e-08
-1.28513e-07
-3.21398e-08
-1.33987e-07
-3.18299e-08
-1.38932e-07
-3.15348e-08
-1.43337e-07
-3.12562e-08
-1.47203e-07
-3.09956e-08
-1.50538e-07
-3.07532e-08
-1.53363e-07
-3.05295e-08
-1.55707e-07
-3.03236e-08
-1.57603e-07
-3.01354e-08
-1.59092e-07
-2.99629e-08
-1.60216e-07
-2.98059e-08
-1.61022e-07
-2.96619e-08
-1.61555e-07
-1.6186e-07
-2.95307e-08
-3.66092e-08
-8.67676e-08
3.68972e-08
-3.62926e-08
-9.46564e-08
-3.5955e-08
-1.02266e-07
-3.56039e-08
-1.09546e-07
-3.5245e-08
-1.16439e-07
-3.48846e-08
-1.22895e-07
-3.45275e-08
-1.28872e-07
-3.41785e-08
-1.34338e-07
-3.38409e-08
-1.39272e-07
-3.35178e-08
-1.43663e-07
-3.32109e-08
-1.47512e-07
-3.29222e-08
-1.50829e-07
-3.26516e-08
-1.53636e-07
-3.24002e-08
-1.55961e-07
-3.21667e-08
-1.57839e-07
-3.19515e-08
-1.5931e-07
-3.17525e-08
-1.60418e-07
-3.15698e-08
-1.61208e-07
-3.14005e-08
-1.61727e-07
-1.62018e-07
-3.12451e-08
-3.88141e-08
-8.70736e-08
3.91181e-08
-3.84791e-08
-9.49936e-08
-3.81202e-08
-1.02626e-07
-3.7746e-08
-1.09922e-07
-3.73625e-08
-1.16824e-07
-3.69764e-08
-1.23283e-07
-3.65926e-08
-1.29258e-07
-3.62163e-08
-1.34717e-07
-3.58506e-08
-1.3964e-07
-3.54994e-08
-1.44017e-07
-3.5164e-08
-1.4785e-07
-3.48468e-08
-1.5115e-07
-3.45478e-08
-1.53938e-07
-3.42682e-08
-1.56244e-07
-3.40067e-08
-1.58103e-07
-3.3764e-08
-1.59556e-07
-3.35379e-08
-1.60646e-07
-3.33287e-08
-1.6142e-07
-3.31336e-08
-1.61924e-07
-1.62202e-07
-3.2953e-08
-4.10216e-08
-8.73997e-08
4.13431e-08
-4.06657e-08
-9.53523e-08
-4.02845e-08
-1.0301e-07
-3.98865e-08
-1.10323e-07
-3.9478e-08
-1.17235e-07
-3.9066e-08
-1.23699e-07
-3.86552e-08
-1.29672e-07
-3.82513e-08
-1.35124e-07
-3.78575e-08
-1.40037e-07
-3.74778e-08
-1.444e-07
-3.71136e-08
-1.48217e-07
-3.67676e-08
-1.51499e-07
-3.64397e-08
-1.54269e-07
-3.61315e-08
-1.56556e-07
-3.58415e-08
-1.58396e-07
-3.55707e-08
-1.5983e-07
-3.53168e-08
-1.60903e-07
-3.50806e-08
-1.6166e-07
-3.48587e-08
-1.62149e-07
-1.62412e-07
-3.46523e-08
-4.32233e-08
-8.77421e-08
4.35622e-08
-4.28481e-08
-9.57302e-08
-4.24451e-08
-1.03415e-07
-4.20238e-08
-1.10747e-07
-4.15903e-08
-1.17672e-07
-4.11522e-08
-1.2414e-07
-4.07143e-08
-1.30113e-07
-4.02827e-08
-1.3556e-07
-3.98603e-08
-1.40462e-07
-3.94517e-08
-1.44813e-07
-3.90582e-08
-1.48614e-07
-3.86829e-08
-1.51878e-07
-3.83255e-08
-1.54629e-07
-3.79879e-08
-1.56897e-07
-3.76687e-08
-1.58718e-07
-3.73691e-08
-1.60133e-07
-3.70867e-08
-1.61188e-07
-3.68225e-08
-1.61929e-07
-3.65732e-08
-1.62401e-07
-1.62649e-07
-3.634e-08
-4.54256e-08
-8.81036e-08
4.5784e-08
-4.50294e-08
-9.6129e-08
-4.46039e-08
-1.03842e-07
-4.41586e-08
-1.11196e-07
-4.36996e-08
-1.18134e-07
-4.32351e-08
-1.24608e-07
-4.27696e-08
-1.30581e-07
-4.23097e-08
-1.36024e-07
-4.18582e-08
-1.40917e-07
-4.14201e-08
-1.45255e-07
-4.09967e-08
-1.49041e-07
-4.05913e-08
-1.52288e-07
-4.02037e-08
-1.55021e-07
-3.98361e-08
-1.57269e-07
-3.94868e-08
-1.59071e-07
-3.91575e-08
-1.60467e-07
-3.88457e-08
-1.61503e-07
-3.85526e-08
-1.62226e-07
-3.82748e-08
-1.62681e-07
-1.62914e-07
-3.8014e-08
-4.76278e-08
-8.84833e-08
4.80042e-08
-4.72113e-08
-9.65488e-08
-4.67628e-08
-1.04293e-07
-4.62928e-08
-1.1167e-07
-4.58075e-08
-1.18622e-07
-4.53156e-08
-1.25104e-07
-4.48216e-08
-1.31079e-07
-4.43324e-08
-1.36517e-07
-4.38509e-08
-1.41402e-07
-4.33824e-08
-1.45728e-07
-4.29281e-08
-1.49499e-07
-4.24918e-08
-1.52729e-07
-4.20729e-08
-1.55443e-07
-4.16742e-08
-1.57672e-07
-4.12939e-08
-1.59454e-07
-4.0934e-08
-1.60831e-07
-4.05917e-08
-1.61849e-07
-4.02687e-08
-1.62553e-07
-3.99614e-08
-1.62991e-07
-1.63208e-07
-3.96719e-08
-4.98343e-08
-8.88845e-08
5.02296e-08
-4.93952e-08
-9.69921e-08
-4.89223e-08
-1.04769e-07
-4.84264e-08
-1.1217e-07
-4.79137e-08
-1.19138e-07
-4.73932e-08
-1.2563e-07
-4.68696e-08
-1.31607e-07
-4.63502e-08
-1.37042e-07
-4.58376e-08
-1.41919e-07
-4.53377e-08
-1.46233e-07
-4.48514e-08
-1.49989e-07
-4.4383e-08
-1.53202e-07
-4.39318e-08
-1.55898e-07
-4.35009e-08
-1.58108e-07
-4.30884e-08
-1.5987e-07
-4.26966e-08
-1.61228e-07
-4.23227e-08
-1.62226e-07
-4.19687e-08
-1.62912e-07
-4.16308e-08
-1.63332e-07
-1.63532e-07
-4.13114e-08
-5.20394e-08
-8.9305e-08
5.24546e-08
-5.15782e-08
-9.74575e-08
-5.10807e-08
-1.0527e-07
-5.05583e-08
-1.12697e-07
-5.00174e-08
-1.19683e-07
-4.94676e-08
-1.26184e-07
-4.89134e-08
-1.32165e-07
-4.83626e-08
-1.37598e-07
-4.78179e-08
-1.42468e-07
-4.72853e-08
-1.4677e-07
-4.67658e-08
-1.50512e-07
-4.6264e-08
-1.53709e-07
-4.57792e-08
-1.56387e-07
-4.53148e-08
-1.58577e-07
-4.48689e-08
-1.6032e-07
-4.44439e-08
-1.61658e-07
-4.40371e-08
-1.62636e-07
-4.36507e-08
-1.63303e-07
-4.32809e-08
-1.63705e-07
-1.63887e-07
-4.29305e-08
-5.42484e-08
-8.97473e-08
5.46855e-08
-5.37631e-08
-9.7947e-08
-5.32396e-08
-1.05797e-07
-5.26895e-08
-1.13252e-07
-5.21192e-08
-1.20257e-07
-5.15387e-08
-1.2677e-07
-5.09526e-08
-1.32755e-07
-5.03692e-08
-1.38187e-07
-4.97909e-08
-1.4305e-07
-4.92243e-08
-1.47343e-07
-4.86702e-08
-1.5107e-07
-4.81336e-08
-1.54251e-07
-4.76138e-08
-1.5691e-07
-4.71145e-08
-1.59082e-07
-4.66335e-08
-1.60805e-07
-4.6174e-08
-1.62122e-07
-4.57327e-08
-1.63081e-07
-4.53126e-08
-1.63728e-07
-4.49095e-08
-1.64111e-07
-1.64275e-07
-4.45265e-08
-5.64587e-08
-9.02108e-08
5.6917e-08
-5.59496e-08
-9.84608e-08
-5.53994e-08
-1.06351e-07
-5.48206e-08
-1.13835e-07
-5.42197e-08
-1.20862e-07
-5.36072e-08
-1.27388e-07
-5.29878e-08
-1.33379e-07
-5.237e-08
-1.3881e-07
-5.17567e-08
-1.43668e-07
-5.11544e-08
-1.4795e-07
-5.05642e-08
-1.51665e-07
-4.99912e-08
-1.54829e-07
-4.94347e-08
-1.57471e-07
-4.88987e-08
-1.59623e-07
-4.83812e-08
-1.61326e-07
-4.78854e-08
-1.62623e-07
-4.74082e-08
-1.63561e-07
-4.69527e-08
-1.64189e-07
-4.65148e-08
-1.64552e-07
-1.64696e-07
-4.60977e-08
-5.86774e-08
-9.06994e-08
5.91586e-08
-5.81416e-08
-9.9002e-08
-5.75625e-08
-1.06934e-07
-5.69529e-08
-1.14451e-07
-5.63195e-08
-1.215e-07
-5.56731e-08
-1.2804e-07
-5.50186e-08
-1.34038e-07
-5.43648e-08
-1.39469e-07
-5.37146e-08
-1.44323e-07
-5.30749e-08
-1.48596e-07
-5.24466e-08
-1.52297e-07
-5.18354e-08
-1.55446e-07
-5.12403e-08
-1.5807e-07
-5.06659e-08
-1.60203e-07
-5.01099e-08
-1.61885e-07
-4.9576e-08
-1.63162e-07
-4.90611e-08
-1.6408e-07
-4.85684e-08
-1.64687e-07
-4.80938e-08
-1.6503e-07
-1.65154e-07
-4.7641e-08
-6.08961e-08
-9.12108e-08
6.14011e-08
-6.03337e-08
-9.95695e-08
-5.97253e-08
-1.07546e-07
-5.90841e-08
-1.15097e-07
-5.84171e-08
-1.22171e-07
-5.77355e-08
-1.28727e-07
-5.70443e-08
-1.34733e-07
-5.63527e-08
-1.40167e-07
-5.56638e-08
-1.45016e-07
-5.49848e-08
-1.4928e-07
-5.43166e-08
-1.5297e-07
-5.36652e-08
-1.56103e-07
-5.30297e-08
-1.58709e-07
-5.24148e-08
-1.60823e-07
-5.18185e-08
-1.62485e-07
-5.12445e-08
-1.63741e-07
-5.06899e-08
-1.64638e-07
-5.01581e-08
-1.65224e-07
-4.9645e-08
-1.65546e-07
-1.6565e-07
-4.91546e-08
-6.31237e-08
-9.1749e-08
6.36551e-08
-6.2532e-08
-1.00166e-07
-6.18918e-08
-1.0819e-07
-6.12168e-08
-1.15778e-07
-6.0514e-08
-1.22878e-07
-5.97951e-08
-1.29452e-07
-5.90651e-08
-1.35468e-07
-5.83337e-08
-1.40904e-07
-5.76039e-08
-1.4575e-07
-5.68834e-08
-1.50007e-07
-5.61732e-08
-1.53684e-07
-5.54793e-08
-1.56803e-07
-5.48012e-08
-1.59392e-07
-5.41437e-08
-1.61486e-07
-5.35048e-08
-1.63128e-07
-5.28886e-08
-1.64363e-07
-5.22921e-08
-1.65238e-07
-5.17191e-08
-1.65802e-07
-5.11654e-08
-1.66103e-07
-1.66185e-07
-5.06353e-08
-6.53537e-08
-9.23127e-08
6.59114e-08
-6.47326e-08
-1.00793e-07
-6.40599e-08
-1.08867e-07
-6.33497e-08
-1.16493e-07
-6.26096e-08
-1.23623e-07
-6.18515e-08
-1.30216e-07
-6.10808e-08
-1.36243e-07
-6.03074e-08
-1.41684e-07
-5.95345e-08
-1.46528e-07
-5.87701e-08
-1.50777e-07
-5.80154e-08
-1.54443e-07
-5.72768e-08
-1.57547e-07
-5.65537e-08
-1.60119e-07
-5.58511e-08
-1.62194e-07
-5.51674e-08
-1.63816e-07
-5.45066e-08
-1.65029e-07
-5.3866e-08
-1.65883e-07
-5.32496e-08
-1.66424e-07
-5.26532e-08
-1.66702e-07
-1.66762e-07
-5.20813e-08
-6.75952e-08
-9.29061e-08
6.81817e-08
-6.69415e-08
-1.01452e-07
-6.62334e-08
-1.09579e-07
-6.54856e-08
-1.17247e-07
-6.47055e-08
-1.24408e-07
-6.39058e-08
-1.31022e-07
-6.30917e-08
-1.37062e-07
-6.22737e-08
-1.42508e-07
-6.14551e-08
-1.47351e-07
-6.06443e-08
-1.51594e-07
-5.98426e-08
-1.5525e-07
-5.90565e-08
-1.5834e-07
-5.82857e-08
-1.60894e-07
-5.75356e-08
-1.62951e-07
-5.68043e-08
-1.64552e-07
-5.60964e-08
-1.65743e-07
-5.54091e-08
-1.66574e-07
-5.47468e-08
-1.67093e-07
-5.41052e-08
-1.67348e-07
-1.67384e-07
-5.34893e-08
-6.98403e-08
-9.3528e-08
7.04557e-08
-6.9154e-08
-1.02144e-07
-6.84095e-08
-1.10327e-07
-6.76224e-08
-1.1804e-07
-6.68006e-08
-1.25234e-07
-6.59569e-08
-1.31873e-07
-6.50972e-08
-1.37927e-07
-6.42322e-08
-1.4338e-07
-6.33653e-08
-1.48223e-07
-6.25053e-08
-1.52461e-07
-6.16536e-08
-1.56106e-07
-6.08173e-08
-1.59182e-07
-5.9996e-08
-1.6172e-07
-5.91955e-08
-1.63758e-07
-5.84138e-08
-1.65338e-07
-5.76561e-08
-1.66507e-07
-5.69194e-08
-1.67315e-07
-5.62085e-08
-1.6781e-07
-5.55192e-08
-1.68041e-07
-1.68053e-07
-5.48566e-08
-7.20988e-08
-9.41829e-08
7.27464e-08
-7.13762e-08
-1.02872e-07
-7.05923e-08
-1.11116e-07
-6.97629e-08
-1.18876e-07
-6.88963e-08
-1.26106e-07
-6.80059e-08
-1.3277e-07
-6.70975e-08
-1.38841e-07
-6.61824e-08
-1.44302e-07
-6.52642e-08
-1.49147e-07
-6.4352e-08
-1.5338e-07
-6.34474e-08
-1.57016e-07
-6.25578e-08
-1.60079e-07
-6.16829e-08
-1.626e-07
-6.08288e-08
-1.64618e-07
-5.99938e-08
-1.66177e-07
-5.91832e-08
-1.67324e-07
-5.83942e-08
-1.68108e-07
-5.76318e-08
-1.68579e-07
-5.68919e-08
-1.68784e-07
-1.68771e-07
-5.618e-08
-7.43628e-08
-9.48699e-08
7.50427e-08
-7.36034e-08
-1.03638e-07
-7.27787e-08
-1.11945e-07
-7.19051e-08
-1.19756e-07
-7.09915e-08
-1.27025e-07
-7.00516e-08
-1.33717e-07
-6.90918e-08
-1.39806e-07
-6.81236e-08
-1.45277e-07
-6.7151e-08
-1.50125e-07
-6.61834e-08
-1.54355e-07
-6.52226e-08
-1.57982e-07
-6.42764e-08
-1.61032e-07
-6.33446e-08
-1.63537e-07
-6.24337e-08
-1.65536e-07
-6.15421e-08
-1.67074e-07
-6.06754e-08
-1.68198e-07
-5.98309e-08
-1.68957e-07
-5.90139e-08
-1.69403e-07
-5.82204e-08
-1.69582e-07
-1.69542e-07
-5.74561e-08
-7.6642e-08
-9.55938e-08
7.73579e-08
-7.58419e-08
-1.04444e-07
-7.49727e-08
-1.12819e-07
-7.40515e-08
-1.20684e-07
-7.30874e-08
-1.27994e-07
-7.20948e-08
-1.34717e-07
-7.10802e-08
-1.40827e-07
-7.00555e-08
-1.46309e-07
-6.9025e-08
-1.51161e-07
-6.79985e-08
-1.55389e-07
-6.6978e-08
-1.59009e-07
-6.59716e-08
-1.62046e-07
-6.49794e-08
-1.64535e-07
-6.40082e-08
-1.66515e-07
-6.30564e-08
-1.68031e-07
-6.21301e-08
-1.69131e-07
-6.12267e-08
-1.69866e-07
-6.03517e-08
-1.70285e-07
-5.95012e-08
-1.70437e-07
-1.70369e-07
-5.86814e-08
-7.89288e-08
-9.63541e-08
7.96813e-08
-7.8087e-08
-1.05292e-07
-7.71716e-08
-1.13739e-07
-7.62004e-08
-1.21662e-07
-7.51831e-08
-1.29017e-07
-7.41345e-08
-1.35773e-07
-7.30617e-08
-1.41905e-07
-7.19771e-08
-1.47402e-07
-7.08851e-08
-1.52259e-07
-6.9796e-08
-1.56486e-07
-6.87119e-08
-1.60098e-07
-6.76416e-08
-1.63124e-07
-6.65852e-08
-1.65597e-07
-6.55498e-08
-1.67558e-07
-6.45342e-08
-1.69052e-07
-6.35445e-08
-1.70128e-07
-6.25785e-08
-1.70837e-07
-6.16419e-08
-1.71229e-07
-6.0731e-08
-1.71353e-07
-1.71255e-07
-5.98521e-08
-8.12323e-08
-9.71558e-08
8.20255e-08
-8.03446e-08
-1.06187e-07
-7.9379e-08
-1.1471e-07
-7.8354e-08
-1.22695e-07
-7.72796e-08
-1.30098e-07
-7.61713e-08
-1.36889e-07
-7.50364e-08
-1.43047e-07
-7.38878e-08
-1.48559e-07
-7.27302e-08
-1.53423e-07
-7.15744e-08
-1.5765e-07
-7.04228e-08
-1.61256e-07
-6.92844e-08
-1.6427e-07
-6.81596e-08
-1.66727e-07
-6.7056e-08
-1.68669e-07
-6.59724e-08
-1.70141e-07
-6.49154e-08
-1.71193e-07
-6.38828e-08
-1.71875e-07
-6.28807e-08
-1.72238e-07
-6.19055e-08
-1.72333e-07
-1.72204e-07
-6.0964e-08
-8.35454e-08
-9.79988e-08
8.43801e-08
-8.26104e-08
-1.07129e-07
-8.15923e-08
-1.15734e-07
-8.05106e-08
-1.23784e-07
-7.93758e-08
-1.31239e-07
-7.82041e-08
-1.38069e-07
-7.70032e-08
-1.44254e-07
-7.57865e-08
-1.49784e-07
-7.45591e-08
-1.54657e-07
-7.33323e-08
-1.58885e-07
-7.21087e-08
-1.62486e-07
-7.08978e-08
-1.65489e-07
-6.97002e-08
-1.67931e-07
-6.85238e-08
-1.69853e-07
-6.73679e-08
-1.71303e-07
-6.62392e-08
-1.72329e-07
-6.51357e-08
-1.72984e-07
-6.4064e-08
-1.73318e-07
-6.30205e-08
-1.73381e-07
-1.7322e-07
-6.20124e-08
-8.58773e-08
-9.88887e-08
8.6758e-08
-8.48903e-08
-1.08123e-07
-8.38154e-08
-1.16814e-07
-8.26726e-08
-1.24935e-07
-8.14731e-08
-1.32445e-07
-8.02335e-08
-1.39317e-07
-7.89621e-08
-1.45532e-07
-7.76728e-08
-1.51082e-07
-7.63709e-08
-1.55966e-07
-7.50684e-08
-1.60196e-07
-7.3768e-08
-1.63793e-07
-7.24798e-08
-1.66786e-07
-7.12045e-08
-1.69213e-07
-6.99507e-08
-1.71115e-07
-6.87175e-08
-1.72542e-07
-6.75124e-08
-1.73542e-07
-6.63334e-08
-1.74169e-07
-6.51876e-08
-1.74472e-07
-6.40713e-08
-1.74502e-07
-1.74307e-07
-6.29923e-08
-8.8221e-08
-9.98256e-08
8.9149e-08
-8.71802e-08
-1.09172e-07
-8.60456e-08
-1.17955e-07
-8.48384e-08
-1.2615e-07
-8.35701e-08
-1.33719e-07
-8.22585e-08
-1.40637e-07
-8.0912e-08
-1.46886e-07
-7.95453e-08
-1.52457e-07
-7.81641e-08
-1.57354e-07
-7.67807e-08
-1.61588e-07
-7.53984e-08
-1.65182e-07
-7.40277e-08
-1.68165e-07
-7.26696e-08
-1.70577e-07
-7.1333e-08
-1.7246e-07
-7.00175e-08
-1.73864e-07
-6.87309e-08
-1.74837e-07
-6.74714e-08
-1.75434e-07
-6.62466e-08
-1.75705e-07
-6.5053e-08
-1.75701e-07
-1.7547e-07
-6.38986e-08
-9.05862e-08
-1.00816e-07
9.15664e-08
-8.94863e-08
-1.10279e-07
-8.82871e-08
-1.1916e-07
-8.70104e-08
-1.27435e-07
-8.56685e-08
-1.35068e-07
-8.42797e-08
-1.42035e-07
-8.28529e-08
-1.4832e-07
-8.14034e-08
-1.53916e-07
-7.99374e-08
-1.58827e-07
-7.84678e-08
-1.63067e-07
-7.6998e-08
-1.66658e-07
-7.55391e-08
-1.69633e-07
-7.40926e-08
-1.7203e-07
-7.26677e-08
-1.73894e-07
-7.12643e-08
-1.75273e-07
-6.98908e-08
-1.76219e-07
-6.85454e-08
-1.76785e-07
-6.72364e-08
-1.77023e-07
-6.59603e-08
-1.76983e-07
-1.76713e-07
-6.47257e-08
-9.29658e-08
-1.01859e-07
9.39998e-08
-9.18047e-08
-1.11448e-07
-9.05376e-08
-1.20433e-07
-8.91874e-08
-1.28794e-07
-8.77673e-08
-1.36495e-07
-8.62963e-08
-1.43515e-07
-8.47838e-08
-1.49839e-07
-8.32461e-08
-1.55463e-07
-8.16895e-08
-1.60391e-07
-8.01276e-08
-1.64638e-07
-7.85644e-08
-1.68229e-07
-7.70114e-08
-1.71195e-07
-7.54703e-08
-1.73578e-07
-7.39511e-08
-1.75422e-07
-7.24538e-08
-1.76777e-07
-7.09874e-08
-1.77695e-07
-6.95504e-08
-1.78228e-07
-6.81514e-08
-1.78431e-07
-6.67873e-08
-1.78352e-07
-1.78041e-07
-6.54672e-08
-9.53707e-08
-1.02963e-07
9.64641e-08
-9.41424e-08
-1.12685e-07
-9.28017e-08
-1.2178e-07
-9.13724e-08
-1.30232e-07
-8.98682e-08
-1.38007e-07
-8.8309e-08
-1.45084e-07
-8.67049e-08
-1.51451e-07
-8.50727e-08
-1.57105e-07
-8.34191e-08
-1.62052e-07
-8.17587e-08
-1.66308e-07
-8.00954e-08
-1.69899e-07
-7.84417e-08
-1.72859e-07
-7.67995e-08
-1.75227e-07
-7.51795e-08
-1.77051e-07
-7.35818e-08
-1.78381e-07
-7.20161e-08
-1.79269e-07
-7.04811e-08
-1.7977e-07
-6.89861e-08
-1.79935e-07
-6.75279e-08
-1.79816e-07
-1.79462e-07
-6.61164e-08
-9.77936e-08
-1.04128e-07
9.89485e-08
-9.64953e-08
-1.13991e-07
-9.5077e-08
-1.23205e-07
-9.35638e-08
-1.31754e-07
-9.19702e-08
-1.39608e-07
-9.03171e-08
-1.46747e-07
-8.8615e-08
-1.53161e-07
-8.68817e-08
-1.58848e-07
-8.51245e-08
-1.63817e-07
-8.33585e-08
-1.68084e-07
-8.15883e-08
-1.71677e-07
-7.98268e-08
-1.7463e-07
-7.80763e-08
-1.76985e-07
-7.63483e-08
-1.78789e-07
-7.46432e-08
-1.80093e-07
-7.29712e-08
-1.80951e-07
-7.13314e-08
-1.81416e-07
-6.97335e-08
-1.81542e-07
-6.81748e-08
-1.81381e-07
-1.8098e-07
-6.66656e-08
-1.00246e-07
-1.05361e-07
1.01468e-07
-9.88708e-08
-1.15375e-07
-9.73684e-08
-1.24714e-07
-9.57648e-08
-1.33367e-07
-9.4075e-08
-1.41305e-07
-9.2321e-08
-1.48511e-07
-9.05139e-08
-1.54976e-07
-8.86723e-08
-1.607e-07
-8.6804e-08
-1.65693e-07
-8.49249e-08
-1.69973e-07
-8.304e-08
-1.73569e-07
-8.1163e-08
-1.76517e-07
-7.92966e-08
-1.78858e-07
-7.74529e-08
-1.80642e-07
-7.56326e-08
-1.8192e-07
-7.38468e-08
-1.82746e-07
-7.20948e-08
-1.83174e-07
-7.03869e-08
-1.83259e-07
-6.87206e-08
-1.83053e-07
-1.82603e-07
-6.71069e-08
-1.02719e-07
-1.06665e-07
1.04012e-07
-1.01264e-07
-1.16839e-07
-9.96733e-08
-1.26312e-07
-9.79736e-08
-1.35077e-07
-9.61813e-08
-1.43105e-07
-9.43195e-08
-1.50383e-07
-9.24001e-08
-1.56903e-07
-9.04426e-08
-1.62668e-07
-8.84552e-08
-1.67688e-07
-8.64549e-08
-1.71984e-07
-8.4447e-08
-1.75585e-07
-8.24461e-08
-1.78528e-07
-8.04554e-08
-1.80856e-07
-7.84876e-08
-1.8262e-07
-7.65441e-08
-1.83871e-07
-7.46362e-08
-1.84663e-07
-7.27639e-08
-1.85053e-07
-7.09382e-08
-1.85095e-07
-6.91568e-08
-1.8484e-07
-1.84338e-07
-6.74312e-08
-1.05226e-07
-1.08046e-07
1.06596e-07
-1.03684e-07
-1.18391e-07
-1.01996e-07
-1.28007e-07
-1.00193e-07
-1.3689e-07
-9.82906e-08
-1.45015e-07
-9.63131e-08
-1.52371e-07
-9.4273e-08
-1.58952e-07
-9.2191e-08
-1.64761e-07
-9.0076e-08
-1.69812e-07
-8.79455e-08
-1.74125e-07
-8.58057e-08
-1.77733e-07
-8.3672e-08
-1.80672e-07
-8.15479e-08
-1.82988e-07
-7.9447e-08
-1.84731e-07
-7.7371e-08
-1.85954e-07
-7.53324e-08
-1.86712e-07
-7.33311e-08
-1.87061e-07
-7.13791e-08
-1.87057e-07
-6.94743e-08
-1.86751e-07
-1.86193e-07
-6.76291e-08
-1.07759e-07
-1.09508e-07
1.0921e-07
-1.06125e-07
-1.20034e-07
-1.04336e-07
-1.29803e-07
-1.02422e-07
-1.38814e-07
-1.00402e-07
-1.47044e-07
-9.83004e-08
-1.54483e-07
-9.61311e-08
-1.6113e-07
-9.39156e-08
-1.66988e-07
-9.16635e-08
-1.72072e-07
-8.93935e-08
-1.76406e-07
-8.7112e-08
-1.80022e-07
-8.48356e-08
-1.82959e-07
-8.25682e-08
-1.85263e-07
-8.03244e-08
-1.86985e-07
-7.81063e-08
-1.88179e-07
-7.59272e-08
-1.88901e-07
-7.37875e-08
-1.89208e-07
-7.17e-08
-1.89154e-07
-6.96629e-08
-1.88794e-07
-1.88177e-07
-6.76895e-08
-1.1033e-07
-1.11059e-07
1.11869e-07
-1.08595e-07
-1.21778e-07
-1.06696e-07
-1.3171e-07
-1.04663e-07
-1.40857e-07
-1.02516e-07
-1.49199e-07
-1.00282e-07
-1.56729e-07
-9.79736e-08
-1.63446e-07
-9.56147e-08
-1.69358e-07
-9.32154e-08
-1.7448e-07
-9.07952e-08
-1.78838e-07
-8.83616e-08
-1.82464e-07
-8.59318e-08
-1.854e-07
-8.35104e-08
-1.87692e-07
-8.1113e-08
-1.89393e-07
-7.87423e-08
-1.90557e-07
-7.64122e-08
-1.91242e-07
-7.41239e-08
-1.91503e-07
-7.18909e-08
-1.91398e-07
-6.97119e-08
-1.9098e-07
-1.90298e-07
-6.76009e-08
-1.12933e-07
-1.12703e-07
1.14564e-07
-1.11092e-07
-1.23628e-07
-1.09076e-07
-1.33734e-07
-1.06916e-07
-1.43027e-07
-1.04633e-07
-1.5149e-07
-1.02256e-07
-1.59118e-07
-9.97989e-08
-1.65913e-07
-9.7286e-08
-1.71883e-07
-9.47284e-08
-1.77047e-07
-9.2147e-08
-1.81431e-07
-8.95496e-08
-1.8507e-07
-8.69548e-08
-1.88006e-07
-8.43678e-08
-1.90287e-07
-8.18051e-08
-1.91967e-07
-7.92701e-08
-1.931e-07
-7.67778e-08
-1.93744e-07
-7.43297e-08
-1.93958e-07
-7.19403e-08
-1.93798e-07
-6.96088e-08
-1.93317e-07
-1.92567e-07
-6.73501e-08
-1.15578e-07
-1.14448e-07
1.1731e-07
-1.13623e-07
-1.25593e-07
-1.1148e-07
-1.35885e-07
-1.09183e-07
-1.45335e-07
-1.06755e-07
-1.53928e-07
-1.04224e-07
-1.61661e-07
-1.01606e-07
-1.68539e-07
-9.89275e-08
-1.74574e-07
-9.61996e-08
-1.79784e-07
-9.34445e-08
-1.84198e-07
-9.06708e-08
-1.87852e-07
-8.78984e-08
-1.9079e-07
-8.5133e-08
-1.93061e-07
-8.23924e-08
-1.94718e-07
-7.96805e-08
-1.95819e-07
-7.70135e-08
-1.96422e-07
-7.43934e-08
-1.96586e-07
-7.18358e-08
-1.96366e-07
-6.93403e-08
-1.95819e-07
-1.94995e-07
-6.6923e-08
-1.18263e-07
-1.16299e-07
1.20102e-07
-1.16186e-07
-1.2768e-07
-1.13908e-07
-1.38172e-07
-1.11465e-07
-1.4779e-07
-1.0888e-07
-1.56522e-07
-1.06183e-07
-1.64369e-07
-1.03394e-07
-1.71339e-07
-1.00536e-07
-1.77443e-07
-9.76252e-08
-1.82704e-07
-9.4683e-08
-1.87152e-07
-9.17194e-08
-1.90824e-07
-8.87555e-08
-1.93766e-07
-8.57979e-08
-1.96027e-07
-8.28654e-08
-1.97662e-07
-7.99628e-08
-1.9873e-07
-7.71075e-08
-1.99289e-07
-7.43021e-08
-1.99398e-07
-7.15634e-08
-1.99116e-07
-6.88914e-08
-1.98498e-07
-1.97594e-07
-6.63034e-08
-1.20997e-07
-1.18268e-07
1.22952e-07
-1.18789e-07
-1.29899e-07
-1.16364e-07
-1.40604e-07
-1.13763e-07
-1.50402e-07
-1.11009e-07
-1.59285e-07
-1.08135e-07
-1.67256e-07
-1.0516e-07
-1.74324e-07
-1.0211e-07
-1.80505e-07
-9.90013e-08
-1.85822e-07
-9.58574e-08
-1.90308e-07
-9.2689e-08
-1.94002e-07
-8.95184e-08
-1.96948e-07
-8.63533e-08
-1.992e-07
-8.32139e-08
-2.00813e-07
-8.01056e-08
-2.01846e-07
-7.7047e-08
-2.02359e-07
-7.40418e-08
-2.02411e-07
-7.11077e-08
-2.02062e-07
-6.82456e-08
-2.01366e-07
-2.00377e-07
-6.54739e-08
-1.23778e-07
-1.20359e-07
1.25856e-07
-1.21429e-07
-1.32259e-07
-1.18849e-07
-1.43192e-07
-1.16078e-07
-1.53184e-07
-1.13143e-07
-1.62229e-07
-1.10078e-07
-1.70334e-07
-1.06902e-07
-1.77509e-07
-1.03646e-07
-1.83774e-07
-1.00323e-07
-1.89154e-07
-9.69618e-08
-1.93683e-07
-9.35722e-08
-1.974e-07
-9.01784e-08
-2.00354e-07
-8.67892e-08
-2.02598e-07
-8.34261e-08
-2.04188e-07
-8.00955e-08
-2.05185e-07
-7.68174e-08
-2.05648e-07
-7.35963e-08
-2.0564e-07
-7.04514e-08
-2.05218e-07
-6.73842e-08
-2.0444e-07
-2.03359e-07
-6.44144e-08
-1.26616e-07
-1.22584e-07
1.28827e-07
-1.24114e-07
-1.34771e-07
-1.21366e-07
-1.45949e-07
-1.18413e-07
-1.5615e-07
-1.15282e-07
-1.65369e-07
-1.12011e-07
-1.73618e-07
-1.08619e-07
-1.8091e-07
-1.05139e-07
-1.87268e-07
-1.01587e-07
-1.92716e-07
-9.79897e-08
-1.97293e-07
-9.43611e-08
-2.01038e-07
-9.0726e-08
-2.04002e-07
-8.70943e-08
-2.06238e-07
-8.34892e-08
-2.07805e-07
-7.99181e-08
-2.08764e-07
-7.64026e-08
-2.09175e-07
-7.29482e-08
-2.09102e-07
-6.95754e-08
-2.08603e-07
-6.62866e-08
-2.07736e-07
-2.06554e-07
-6.3103e-08
-1.29509e-07
-1.24951e-07
1.31862e-07
-1.26845e-07
-1.37446e-07
-1.23916e-07
-1.48887e-07
-1.20767e-07
-1.59311e-07
-1.17426e-07
-1.68719e-07
-1.13933e-07
-1.77124e-07
-1.10308e-07
-1.84545e-07
-1.06587e-07
-1.91003e-07
-1.02785e-07
-1.96528e-07
-9.8934e-08
-2.01157e-07
-9.50466e-08
-2.04935e-07
-9.11501e-08
-2.07911e-07
-8.72559e-08
-2.10141e-07
-8.33886e-08
-2.11685e-07
-7.9557e-08
-2.12604e-07
-7.57844e-08
-2.1296e-07
-7.20772e-08
-2.12817e-07
-6.84578e-08
-2.12234e-07
-6.49294e-08
-2.11271e-07
-2.09981e-07
-6.15148e-08
-1.32467e-07
-1.27472e-07
1.34974e-07
-1.29628e-07
-1.40296e-07
-1.26505e-07
-1.52018e-07
-1.23144e-07
-1.62684e-07
-1.19576e-07
-1.72296e-07
-1.15843e-07
-1.80871e-07
-1.11967e-07
-1.88431e-07
-1.07984e-07
-1.94999e-07
-1.03914e-07
-2.00608e-07
-9.97864e-08
-2.05298e-07
-9.56187e-08