/*--------------------------------*- C++ -*----------------------------------*\
  =========                 |
  \\      /  F ield         | OpenFOAM: The Open Source CFD Toolbox
   \\    /   O peration     | Website:  https://openfoam.org
    \\  /    A nd           | Version:  6
     \\/     M anipulation  |
\*---------------------------------------------------------------------------*/
FoamFile
{
    version     2.0;
    format      ascii;
    class       volVectorField;
    location    "16";
    object      U;
}
// * * * * * * * * * * * * * * * * * * * * * * * * * * * * * * * * * * * * * //

dimensions      [0 1 -1 0 0 0 0];

internalField   nonuniform List<vector> 
130000
(
(-0.0138211 -0.341484 0)
(-0.0144175 -0.372328 0)
(-0.0149535 -0.402186 0)
(-0.0154362 -0.430892 0)
(-0.0158606 -0.458227 0)
(-0.0162343 -0.48399 0)
(-0.0165635 -0.508006 0)
(-0.0168542 -0.530129 0)
(-0.0171123 -0.55025 0)
(-0.017343 -0.568303 0)
(-0.0175513 -0.584261 0)
(-0.0177412 -0.598141 0)
(-0.0179161 -0.609998 0)
(-0.0180788 -0.619923 0)
(-0.0182313 -0.628034 0)
(-0.0183749 -0.634477 0)
(-0.0185103 -0.639412 0)
(-0.0186379 -0.643013 0)
(-0.0187586 -0.64546 0)
(-0.0188718 -0.64693 0)
(-0.015524 -0.340039 0)
(-0.0159287 -0.370965 0)
(-0.0163326 -0.400952 0)
(-0.0167204 -0.429794 0)
(-0.0170722 -0.45726 0)
(-0.0173878 -0.483145 0)
(-0.0176698 -0.507269 0)
(-0.0179219 -0.529485 0)
(-0.0181484 -0.549685 0)
(-0.0183535 -0.567802 0)
(-0.0185412 -0.583813 0)
(-0.018715 -0.597735 0)
(-0.0188776 -0.609625 0)
(-0.0190314 -0.619576 0)
(-0.0191778 -0.627709 0)
(-0.0193176 -0.634171 0)
(-0.0194512 -0.639123 0)
(-0.0195785 -0.642741 0)
(-0.0197001 -0.645204 0)
(-0.0198157 -0.64669 0)
(-0.018041 -0.339352 0)
(-0.018329 -0.370256 0)
(-0.018615 -0.400259 0)
(-0.0188942 -0.429138 0)
(-0.0191521 -0.456651 0)
(-0.0193876 -0.482585 0)
(-0.0196022 -0.506756 0)
(-0.0197979 -0.529014 0)
(-0.0199777 -0.549249 0)
(-0.0201442 -0.567397 0)
(-0.0203005 -0.583432 0)
(-0.0204489 -0.597374 0)
(-0.0205916 -0.609281 0)
(-0.0207297 -0.619246 0)
(-0.0208643 -0.627392 0)
(-0.0209956 -0.633865 0)
(-0.0211236 -0.63883 0)
(-0.0212478 -0.642461 0)
(-0.0213685 -0.644939 0)
(-0.021485 -0.646439 0)
(-0.021393 -0.338913 0)
(-0.021522 -0.369813 0)
(-0.0216645 -0.399829 0)
(-0.0218123 -0.428731 0)
(-0.0219534 -0.456273 0)
(-0.0220862 -0.482236 0)
(-0.0222115 -0.506433 0)
(-0.0223302 -0.528714 0)
(-0.0224439 -0.548969 0)
(-0.0225544 -0.56713 0)
(-0.0226634 -0.583174 0)
(-0.0227723 -0.597123 0)
(-0.0228823 -0.609033 0)
(-0.0229938 -0.619 0)
(-0.0231071 -0.627148 0)
(-0.0232218 -0.633623 0)
(-0.0233372 -0.63859 0)
(-0.0234524 -0.642226 0)
(-0.0235672 -0.644709 0)
(-0.0236803 -0.646216 0)
(-0.0252434 -0.338774 0)
(-0.0252358 -0.36966 0)
(-0.0252436 -0.399669 0)
(-0.0252621 -0.428571 0)
(-0.0252834 -0.456115 0)
(-0.0253071 -0.482082 0)
(-0.0253342 -0.506283 0)
(-0.0253654 -0.528565 0)
(-0.0254017 -0.548818 0)
(-0.0254443 -0.566975 0)
(-0.0254943 -0.583013 0)
(-0.0255523 -0.596953 0)
(-0.0256186 -0.608855 0)
(-0.025693 -0.618813 0)
(-0.0257749 -0.626953 0)
(-0.0258635 -0.633422 0)
(-0.0259573 -0.638385 0)
(-0.026055 -0.642018 0)
(-0.0261556 -0.644501 0)
(-0.0262573 -0.646012 0)
(-0.0293753 -0.338877 0)
(-0.0292566 -0.369753 0)
(-0.0291507 -0.39975 0)
(-0.0290559 -0.42864 0)
(-0.0289681 -0.456171 0)
(-0.0288887 -0.482125 0)
(-0.0288198 -0.50631 0)
(-0.0287625 -0.528574 0)
(-0.0287182 -0.548808 0)
(-0.028688 -0.566943 0)
(-0.0286728 -0.582959 0)
(-0.0286727 -0.596876 0)
(-0.0286875 -0.608755 0)
(-0.0287168 -0.618692 0)
(-0.0287593 -0.626812 0)
(-0.0288134 -0.633264 0)
(-0.0288775 -0.638214 0)
(-0.0289495 -0.641837 0)
(-0.029028 -0.644315 0)
(-0.0291104 -0.645823 0)
(-0.0336685 -0.339165 0)
(-0.0334583 -0.370045 0)
(-0.0332603 -0.400037 0)
(-0.0330694 -0.428915 0)
(-0.0328861 -0.456431 0)
(-0.0327133 -0.482363 0)
(-0.0325547 -0.506522 0)
(-0.0324125 -0.528757 0)
(-0.0322888 -0.548957 0)
(-0.0321848 -0.567058 0)
(-0.0321017 -0.583037 0)
(-0.0320396 -0.596918 0)
(-0.0319982 -0.608762 0)
(-0.0319766 -0.618666 0)
(-0.0319735 -0.626757 0)
(-0.0319868 -0.633183 0)
(-0.0320145 -0.638111 0)
(-0.0320541 -0.641717 0)
(-0.0321037 -0.644181 0)
(-0.0321607 -0.645681 0)
(-0.0380484 -0.339604 0)
(-0.037769 -0.370503 0)
(-0.0374929 -0.400499 0)
(-0.0372204 -0.42937 0)
(-0.0369533 -0.456869 0)
(-0.0366967 -0.482777 0)
(-0.0364559 -0.506904 0)
(-0.0362341 -0.529101 0)
(-0.036034 -0.54926 0)
(-0.0358578 -0.567315 0)
(-0.0357068 -0.583248 0)
(-0.0355815 -0.597083 0)
(-0.0354815 -0.608882 0)
(-0.0354059 -0.618743 0)
(-0.0353531 -0.626795 0)
(-0.0353212 -0.633186 0)
(-0.0353076 -0.638083 0)
(-0.0353096 -0.641664 0)
(-0.035325 -0.644109 0)
(-0.0353508 -0.645595 0)
(-0.0424713 -0.340164 0)
(-0.0421337 -0.371097 0)
(-0.0417918 -0.401107 0)
(-0.0414496 -0.429979 0)
(-0.0411095 -0.457465 0)
(-0.0407783 -0.483348 0)
(-0.0404629 -0.507441 0)
(-0.0401674 -0.529596 0)
(-0.0398955 -0.549707 0)
(-0.03965 -0.567711 0)
(-0.0394327 -0.58359 0)
(-0.0392443 -0.59737 0)
(-0.039085 -0.609116 0)
(-0.0389537 -0.618927 0)
(-0.0388489 -0.626931 0)
(-0.0387685 -0.633279 0)
(-0.03871 -0.638139 0)
(-0.0386704 -0.641688 0)
(-0.0386473 -0.644107 0)
(-0.0386374 -0.645572 0)
(-0.0469073 -0.340829 0)
(-0.0465223 -0.371808 0)
(-0.0461249 -0.401844 0)
(-0.0457223 -0.430724 0)
(-0.0453177 -0.458201 0)
(-0.0449195 -0.484061 0)
(-0.0445359 -0.508121 0)
(-0.0441723 -0.530233 0)
(-0.043833 -0.550293 0)
(-0.0435214 -0.56824 0)
(-0.0432401 -0.58406 0)
(-0.0429901 -0.59778 0)
(-0.0427717 -0.609466 0)
(-0.0425843 -0.61922 0)
(-0.0424263 -0.62717 0)
(-0.0422957 -0.633469 0)
(-0.0421899 -0.638285 0)
(-0.0421059 -0.641797 0)
(-0.0420412 -0.644183 0)
(-0.0419923 -0.645623 0)
(-0.0513551 -0.341579 0)
(-0.0509206 -0.372618 0)
(-0.0504727 -0.402691 0)
(-0.0500157 -0.431587 0)
(-0.049553 -0.459062 0)
(-0.049094 -0.484904 0)
(-0.048648 -0.508932 0)
(-0.0482211 -0.531001 0)
(-0.0478185 -0.551008 0)
(-0.0474442 -0.568897 0)
(-0.0471011 -0.584655 0)
(-0.046791 -0.59831 0)
(-0.0465144 -0.609932 0)
(-0.0462708 -0.619623 0)
(-0.0460589 -0.627514 0)
(-0.0458769 -0.633759 0)
(-0.0457222 -0.638526 0)
(-0.0455916 -0.641994 0)
(-0.0454829 -0.644344 0)
(-0.0453924 -0.645752 0)
(-0.0557951 -0.342409 0)
(-0.0553233 -0.37352 0)
(-0.0548301 -0.40364 0)
(-0.0543231 -0.43256 0)
(-0.0538062 -0.46004 0)
(-0.05329 -0.485868 0)
(-0.0527851 -0.509867 0)
(-0.0522982 -0.531893 0)
(-0.0518351 -0.551849 0)
(-0.0514004 -0.569678 0)
(-0.0509976 -0.585371 0)
(-0.0506287 -0.598959 0)
(-0.0502946 -0.610513 0)
(-0.0499951 -0.620137 0)
(-0.0497293 -0.627965 0)
(-0.0494952 -0.634151 0)
(-0.0492904 -0.638865 0)
(-0.049112 -0.642285 0)
(-0.0489574 -0.644593 0)
(-0.0488232 -0.645965 0)
(-0.060235 -0.343318 0)
(-0.0597263 -0.374511 0)
(-0.0591886 -0.404687 0)
(-0.0586339 -0.433639 0)
(-0.0580657 -0.461128 0)
(-0.0574955 -0.486947 0)
(-0.0569347 -0.510919 0)
(-0.0563906 -0.532905 0)
(-0.0558695 -0.552809 0)
(-0.0553765 -0.570578 0)
(-0.0549155 -0.586205 0)
(-0.0544889 -0.599724 0)
(-0.0540982 -0.611207 0)
(-0.0537431 -0.620763 0)
(-0.053423 -0.628524 0)
(-0.0531363 -0.634647 0)
(-0.0528805 -0.639303 0)
(-0.0526529 -0.642671 0)
(-0.052451 -0.644934 0)
(-0.0522714 -0.646266 0)
(-0.0646703 -0.344301 0)
(-0.0641274 -0.375586 0)
(-0.0635476 -0.405826 0)
(-0.0629466 -0.434817 0)
(-0.0623287 -0.462322 0)
(-0.0617063 -0.488136 0)
(-0.0610914 -0.512085 0)
(-0.0604918 -0.534033 0)
(-0.0599142 -0.553886 0)
(-0.0593642 -0.571595 0)
(-0.0588462 -0.587155 0)
(-0.0583628 -0.600604 0)
(-0.0579158 -0.612015 0)
(-0.0575053 -0.621499 0)
(-0.0571309 -0.629192 0)
(-0.056791 -0.635249 0)
(-0.0564836 -0.639844 0)
(-0.0562058 -0.643157 0)
(-0.0559553 -0.64537 0)
(-0.0557288 -0.646659 0)
(-0.0690999 -0.345354 0)
(-0.0685209 -0.37674 0)
(-0.0679012 -0.407052 0)
(-0.0672557 -0.436089 0)
(-0.06659 -0.463616 0)
(-0.0659172 -0.48943 0)
(-0.0652498 -0.51336 0)
(-0.064596 -0.535272 0)
(-0.0639632 -0.555076 0)
(-0.0633571 -0.572726 0)
(-0.0627826 -0.58822 0)
(-0.0622428 -0.601598 0)
(-0.0617396 -0.612936 0)
(-0.0612736 -0.622347 0)
(-0.0608443 -0.629968 0)
(-0.0604507 -0.635958 0)
(-0.0600907 -0.640489 0)
(-0.0597616 -0.643744 0)
(-0.0594613 -0.645904 0)
(-0.0591866 -0.647146 0)
(-0.073532 -0.346473 0)
(-0.0729175 -0.377969 0)
(-0.0722561 -0.408362 0)
(-0.0715656 -0.437452 0)
(-0.0708518 -0.465008 0)
(-0.0701286 -0.490827 0)
(-0.0694088 -0.514742 0)
(-0.0687011 -0.536621 0)
(-0.0680131 -0.556379 0)
(-0.0673511 -0.573972 0)
(-0.0667203 -0.5894 0)
(-0.066124 -0.602706 0)
(-0.0655645 -0.613971 0)
(-0.0650425 -0.623307 0)
(-0.0645579 -0.630855 0)
(-0.0641097 -0.636775 0)
(-0.0636963 -0.641241 0)
(-0.0633148 -0.644434 0)
(-0.0629635 -0.646538 0)
(-0.062639 -0.64773 0)
(-0.0779543 -0.347663 0)
(-0.0773096 -0.379279 0)
(-0.0766088 -0.40976 0)
(-0.0758739 -0.438911 0)
(-0.0751121 -0.4665 0)
(-0.0743383 -0.492329 0)
(-0.073566 -0.516232 0)
(-0.0728042 -0.538082 0)
(-0.0720608 -0.557795 0)
(-0.0713426 -0.575331 0)
(-0.070655 -0.590694 0)
(-0.0700017 -0.603929 0)
(-0.0693852 -0.61512 0)
(-0.0688065 -0.624381 0)
(-0.0682657 -0.631855 0)
(-0.067762 -0.637703 0)
(-0.0672939 -0.6421 0)
(-0.0668588 -0.64523 0)
(-0.066455 -0.647275 0)
(-0.0660795 -0.648414 0)
(-0.0823839 -0.348928 0)
(-0.0817047 -0.380671 0)
(-0.0809603 -0.411249 0)
(-0.0801795 -0.440466 0)
(-0.0793688 -0.468094 0)
(-0.0785437 -0.493938 0)
(-0.0777185 -0.517832 0)
(-0.0769022 -0.539655 0)
(-0.076103 -0.559325 0)
(-0.0753281 -0.576806 0)
(-0.0745832 -0.592104 0)
(-0.0738722 -0.605268 0)
(-0.073198 -0.616384 0)
(-0.0725617 -0.62557 0)
(-0.0719637 -0.632968 0)
(-0.0714033 -0.638743 0)
(-0.0708793 -0.64307 0)
(-0.0703893 -0.646134 0)
(-0.0699316 -0.648119 0)
(-0.0695033 -0.649201 0)
(-0.0868044 -0.350267 0)
(-0.0860895 -0.382146 0)
(-0.0853044 -0.412827 0)
(-0.0844783 -0.442117 0)
(-0.0836191 -0.469789 0)
(-0.0827428 -0.495651 0)
(-0.0818643 -0.519541 0)
(-0.080993 -0.54134 0)
(-0.0801374 -0.560969 0)
(-0.079305 -0.578396 0)
(-0.0785018 -0.593631 0)
(-0.0777322 -0.606725 0)
(-0.076999 -0.617767 0)
(-0.0763038 -0.626876 0)
(-0.0756473 -0.634198 0)
(-0.0750288 -0.639897 0)
(-0.0744474 -0.644153 0)
(-0.0739009 -0.647149 0)
(-0.0733876 -0.64907 0)
(-0.0729049 -0.650094 0)
(-0.0912311 -0.351674 0)
(-0.0904738 -0.383698 0)
(-0.0896455 -0.414492 0)
(-0.0887728 -0.443862 0)
(-0.0878639 -0.471585 0)
(-0.0869356 -0.497469 0)
(-0.0860029 -0.52136 0)
(-0.0850756 -0.543138 0)
(-0.0841626 -0.56273 0)
(-0.0832715 -0.580105 0)
(-0.0824088 -0.595278 0)
(-0.0815792 -0.608302 0)
(-0.0807857 -0.619269 0)
(-0.0800301 -0.628301 0)
(-0.0793133 -0.635546 0)
(-0.0786351 -0.64117 0)
(-0.0779946 -0.645353 0)
(-0.0773897 -0.648279 0)
(-0.076819 -0.650135 0)
(-0.07628 -0.651098 0)
(-0.0956535 -0.353153 0)
(-0.0948588 -0.385333 0)
(-0.0939873 -0.416247 0)
(-0.0930669 -0.445704 0)
(-0.0921067 -0.473484 0)
(-0.0911244 -0.499397 0)
(-0.0901357 -0.523291 0)
(-0.0891506 -0.545052 0)
(-0.0881783 -0.564609 0)
(-0.0872267 -0.581934 0)
(-0.0863027 -0.597046 0)
(-0.0854111 -0.610002 0)
(-0.0845553 -0.620895 0)
(-0.0837375 -0.629851 0)
(-0.0829585 -0.637018 0)
(-0.0822186 -0.642565 0)
(-0.0815168 -0.646673 0)
(-0.0808515 -0.649528 0)
(-0.0802213 -0.651315 0)
(-0.079624 -0.652214 0)
(-0.100084 -0.354715 0)
(-0.0992502 -0.387059 0)
(-0.0983316 -0.4181 0)
(-0.0973609 -0.447652 0)
(-0.0963472 -0.475493 0)
(-0.0953087 -0.501439 0)
(-0.0942619 -0.525341 0)
(-0.0932169 -0.547087 0)
(-0.0921832 -0.566611 0)
(-0.0911691 -0.583889 0)
(-0.0901815 -0.598942 0)
(-0.0892258 -0.61183 0)
(-0.0883055 -0.622649 0)
(-0.0874231 -0.631527 0)
(-0.0865797 -0.638616 0)
(-0.0857756 -0.644086 0)
(-0.0850104 -0.648118 0)
(-0.0842823 -0.650899 0)
(-0.0835903 -0.652616 0)
(-0.0829323 -0.653449 0)
(-0.104513 -0.356358 0)
(-0.103639 -0.388876 0)
(-0.102674 -0.420054 0)
(-0.101652 -0.449706 0)
(-0.100584 -0.477614 0)
(-0.0994874 -0.503598 0)
(-0.0983804 -0.527511 0)
(-0.0972734 -0.549247 0)
(-0.0961761 -0.568741 0)
(-0.0950971 -0.585973 0)
(-0.0940436 -0.600968 0)
(-0.0930212 -0.613789 0)
(-0.092034 -0.624535 0)
(-0.0910843 -0.633336 0)
(-0.0901739 -0.640346 0)
(-0.0893032 -0.645737 0)
(-0.0884718 -0.649691 0)
(-0.0876785 -0.652397 0)
(-0.0869221 -0.654042 0)
(-0.086201 -0.654805 0)
(-0.108954 -0.358084 0)
(-0.108034 -0.390786 0)
(-0.107019 -0.422109 0)
(-0.105943 -0.451869 0)
(-0.104817 -0.479851 0)
(-0.103661 -0.505878 0)
(-0.102491 -0.529808 0)
(-0.10132 -0.551535 0)
(-0.100156 -0.571002 0)
(-0.0990094 -0.588191 0)
(-0.0978872 -0.60313 0)
(-0.0967954 -0.615885 0)
(-0.0957382 -0.626558 0)
(-0.0947186 -0.635282 0)
(-0.0937382 -0.642213 0)
(-0.0927978 -0.647524 0)
(-0.0918973 -0.6514 0)
(-0.0910358 -0.654028 0)
(-0.0902121 -0.655599 0)
(-0.0894251 -0.65629 0)
(-0.113397 -0.359893 0)
(-0.112432 -0.392789 0)
(-0.111367 -0.424267 0)
(-0.110235 -0.454144 0)
(-0.10905 -0.482208 0)
(-0.10783 -0.508284 0)
(-0.106595 -0.532234 0)
(-0.105356 -0.553958 0)
(-0.104123 -0.573401 0)
(-0.102906 -0.590549 0)
(-0.101711 -0.605433 0)
(-0.100547 -0.618123 0)
(-0.0994167 -0.628725 0)
(-0.0983236 -0.637372 0)
(-0.0972699 -0.644223 0)
(-0.0962567 -0.649453 0)
(-0.095284 -0.653248 0)
(-0.094351 -0.655798 0)
(-0.0934571 -0.657291 0)
(-0.092601 -0.657907 0)
(-0.117857 -0.361797 0)
(-0.116844 -0.394899 0)
(-0.115723 -0.42654 0)
(-0.114532 -0.456541 0)
(-0.113283 -0.484692 0)
(-0.111997 -0.510822 0)
(-0.110693 -0.534798 0)
(-0.109382 -0.556522 0)
(-0.108076 -0.575944 0)
(-0.106784 -0.593054 0)
(-0.105515 -0.607885 0)
(-0.104274 -0.620512 0)
(-0.103067 -0.631042 0)
(-0.101896 -0.639612 0)
(-0.100766 -0.646383 0)
(-0.099676 -0.651531 0)
(-0.0986274 -0.655244 0)
(-0.0976194 -0.657713 0)
(-0.0966515 -0.659126 0)
(-0.0957227 -0.659664 0)
(-0.12232 -0.363796 0)
(-0.121256 -0.397116 0)
(-0.120079 -0.42893 0)
(-0.118827 -0.459063 0)
(-0.117512 -0.487308 0)
(-0.116157 -0.513499 0)
(-0.114781 -0.537505 0)
(-0.113396 -0.559234 0)
(-0.112014 -0.578638 0)
(-0.110644 -0.595712 0)
(-0.109295 -0.610493 0)
(-0.107974 -0.623057 0)
(-0.106686 -0.633517 0)
(-0.105435 -0.64201 0)
(-0.104223 -0.648701 0)
(-0.103053 -0.653766 0)
(-0.101924 -0.657395 0)
(-0.100838 -0.65978 0)
(-0.0997919 -0.661111 0)
(-0.0987869 -0.661569 0)
(-0.126803 -0.365894 0)
(-0.125683 -0.399443 0)
(-0.124445 -0.431441 0)
(-0.123127 -0.461716 0)
(-0.121743 -0.490063 0)
(-0.120315 -0.516322 0)
(-0.118862 -0.540363 0)
(-0.117399 -0.562101 0)
(-0.115935 -0.581491 0)
(-0.114483 -0.598531 0)
(-0.11305 -0.613264 0)
(-0.111645 -0.625769 0)
(-0.110271 -0.636158 0)
(-0.108935 -0.644575 0)
(-0.107638 -0.651184 0)
(-0.106383 -0.656165 0)
(-0.10517 -0.659709 0)
(-0.104001 -0.662009 0)
(-0.102873 -0.663255 0)
(-0.101787 -0.663629 0)
(-0.131292 -0.368096 0)
(-0.130115 -0.401887 0)
(-0.128815 -0.43408 0)
(-0.127429 -0.464506 0)
(-0.125973 -0.492964 0)
(-0.124468 -0.519297 0)
(-0.122935 -0.543381 0)
(-0.121389 -0.565132 0)
(-0.11984 -0.584512 0)
(-0.1183 -0.601523 0)
(-0.116779 -0.61621 0)
(-0.115284 -0.628655 0)
(-0.113821 -0.638975 0)
(-0.112395 -0.647315 0)
(-0.111008 -0.653842 0)
(-0.109664 -0.658739 0)
(-0.108362 -0.662196 0)
(-0.107105 -0.664408 0)
(-0.10589 -0.665566 0)
(-0.10472 -0.665852 0)
(-0.135806 -0.370408 0)
(-0.134567 -0.404456 0)
(-0.133199 -0.436855 0)
(-0.13174 -0.467442 0)
(-0.130205 -0.49602 0)
(-0.128619 -0.522435 0)
(-0.127001 -0.546567 0)
(-0.125366 -0.568338 0)
(-0.123727 -0.587711 0)
(-0.122096 -0.604695 0)
(-0.120481 -0.619338 0)
(-0.118891 -0.631725 0)
(-0.117333 -0.641977 0)
(-0.115811 -0.650241 0)
(-0.114329 -0.656686 0)
(-0.11289 -0.661497 0)
(-0.111495 -0.664865 0)
(-0.110144 -0.666986 0)
(-0.108839 -0.668053 0)
(-0.10758 -0.668248 0)
(-0.140327 -0.372838 0)
(-0.139026 -0.407156 0)
(-0.137589 -0.439775 0)
(-0.136055 -0.470534 0)
(-0.134438 -0.49924 0)
(-0.132766 -0.525744 0)
(-0.131058 -0.549931 0)
(-0.129331 -0.571727 0)
(-0.127597 -0.591099 0)
(-0.125867 -0.60806 0)
(-0.124153 -0.622661 0)
(-0.122463 -0.634992 0)
(-0.120804 -0.645177 0)
(-0.119181 -0.653365 0)
(-0.117599 -0.659727 0)
(-0.116059 -0.664449 0)
(-0.114564 -0.667726 0)
(-0.113116 -0.669755 0)
(-0.111714 -0.670727 0)
(-0.11036 -0.670826 0)
(-0.144878 -0.375389 0)
(-0.143508 -0.409995 0)
(-0.141996 -0.442846 0)
(-0.140379 -0.473789 0)
(-0.138676 -0.502634 0)
(-0.136911 -0.529236 0)
(-0.135108 -0.553485 0)
(-0.133282 -0.575311 0)
(-0.131446 -0.594687 0)
(-0.129613 -0.611628 0)
(-0.127794 -0.62619 0)
(-0.125998 -0.638468 0)
(-0.124232 -0.648586 0)
(-0.122502 -0.656697 0)
(-0.120812 -0.662975 0)
(-0.119166 -0.667608 0)
(-0.117566 -0.670792 0)
(-0.116014 -0.672724 0)
(-0.11451 -0.673598 0)
(-0.113056 -0.673597 0)
(-0.14944 -0.378071 0)
(-0.148001 -0.412981 0)
(-0.146411 -0.446079 0)
(-0.144709 -0.477218 0)
(-0.142914 -0.506212 0)
(-0.141053 -0.532922 0)
(-0.139149 -0.55724 0)
(-0.137219 -0.579103 0)
(-0.135275 -0.598488 0)
(-0.133332 -0.615413 0)
(-0.131401 -0.629939 0)
(-0.129492 -0.642164 0)
(-0.127612 -0.652216 0)
(-0.125768 -0.660251 0)
(-0.123965 -0.666444 0)
(-0.122206 -0.670986 0)
(-0.120494 -0.674074 0)
(-0.118832 -0.675906 0)
(-0.11722 -0.676678 0)
(-0.115659 -0.676573 0)
(-0.154037 -0.380891 0)
(-0.152521 -0.416122 0)
(-0.150846 -0.449483 0)
(-0.149051 -0.480831 0)
(-0.147158 -0.509986 0)
(-0.145193 -0.536812 0)
(-0.143182 -0.561209 0)
(-0.14114 -0.583115 0)
(-0.139081 -0.602513 0)
(-0.137021 -0.619427 0)
(-0.134972 -0.63392 0)
(-0.132943 -0.646094 0)
(-0.130942 -0.656081 0)
(-0.128977 -0.66404 0)
(-0.127053 -0.670148 0)
(-0.125175 -0.674597 0)
(-0.123345 -0.677585 0)
(-0.121565 -0.679315 0)
(-0.119837 -0.67998 0)
(-0.118164 -0.679765 0)
(-0.15865 -0.383857 0)
(-0.157055 -0.419429 0)
(-0.155292 -0.453069 0)
(-0.153401 -0.484641 0)
(-0.151404 -0.513968 0)
(-0.14933 -0.540921 0)
(-0.147204 -0.565404 0)
(-0.145043 -0.587361 0)
(-0.142864 -0.606778 0)
(-0.140679 -0.623685 0)
(-0.138503 -0.638149 0)
(-0.136347 -0.650274 0)
(-0.134218 -0.660197 0)
(-0.132125 -0.668079 0)
(-0.130073 -0.6741 0)
(-0.128067 -0.678454 0)
(-0.12611 -0.681341 0)
(-0.124206 -0.682963 0)
(-0.122357 -0.683517 0)
(-0.120564 -0.683188 0)
(-0.1633 -0.386979 0)
(-0.161618 -0.422912 0)
(-0.159759 -0.456848 0)
(-0.157764 -0.488659 0)
(-0.155656 -0.518172 0)
(-0.153464 -0.545262 0)
(-0.151216 -0.56984 0)
(-0.14893 -0.591855 0)
(-0.14662 -0.611298 0)
(-0.144303 -0.628202 0)
(-0.141993 -0.642639 0)
(-0.139701 -0.654718 0)
(-0.137435 -0.664578 0)
(-0.135205 -0.672383 0)
(-0.133017 -0.678316 0)
(-0.130875 -0.682573 0)
(-0.128785 -0.685355 0)
(-0.126749 -0.686866 0)
(-0.124769 -0.687304 0)
(-0.122849 -0.686854 0)
(-0.167971 -0.390265 0)
(-0.166199 -0.426582 0)
(-0.16424 -0.460834 0)
(-0.162136 -0.492898 0)
(-0.15991 -0.52261 0)
(-0.157595 -0.54985 0)
(-0.155217 -0.574533 0)
(-0.152796 -0.596614 0)
(-0.150349 -0.616089 0)
(-0.147891 -0.632996 0)
(-0.145437 -0.64741 0)
(-0.143 -0.659445 0)
(-0.140589 -0.669242 0)
(-0.138214 -0.67697 0)
(-0.13588 -0.682813 0)
(-0.133594 -0.68697 0)
(-0.131361 -0.689645 0)
(-0.129185 -0.691041 0)
(-0.127067 -0.691357 0)
(-0.125011 -0.69078 0)
(-0.172683 -0.393728 0)
(-0.170814 -0.430452 0)
(-0.168746 -0.465038 0)
(-0.166523 -0.497374 0)
(-0.164171 -0.5273 0)
(-0.161723 -0.554701 0)
(-0.159207 -0.5795 0)
(-0.156642 -0.601655 0)
(-0.154047 -0.621169 0)
(-0.151439 -0.638083 0)
(-0.148833 -0.652479 0)
(-0.146242 -0.664471 0)
(-0.143676 -0.674207 0)
(-0.141145 -0.681857 0)
(-0.138656 -0.68761 0)
(-0.136217 -0.691665 0)
(-0.133832 -0.694227 0)
(-0.131505 -0.695503 0)
(-0.12924 -0.695692 0)
(-0.127041 -0.694982 0)
(-0.177422 -0.397379 0)
(-0.17545 -0.434533 0)
(-0.173269 -0.469476 0)
(-0.170921 -0.502102 0)
(-0.168436 -0.532257 0)
(-0.165847 -0.559833 0)
(-0.163183 -0.584758 0)
(-0.160466 -0.606997 0)
(-0.157714 -0.626557 0)
(-0.154946 -0.643484 0)
(-0.152176 -0.657865 0)
(-0.14942 -0.669818 0)
(-0.146689 -0.679494 0)
(-0.143992 -0.687066 0)
(-0.141338 -0.692726 0)
(-0.138735 -0.696675 0)
(-0.136188 -0.699122 0)
(-0.133702 -0.700273 0)
(-0.13128 -0.700328 0)
(-0.128927 -0.699476 0)
(-0.182207 -0.401229 0)
(-0.180124 -0.438842 0)
(-0.177819 -0.474163 0)
(-0.175337 -0.507098 0)
(-0.172709 -0.537499 0)
(-0.169968 -0.565264 0)
(-0.167146 -0.590328 0)
(-0.164266 -0.61266 0)
(-0.161346 -0.632274 0)
(-0.158407 -0.649221 0)
(-0.155463 -0.66359 0)
(-0.152531 -0.675507 0)
(-0.149623 -0.685123 0)
(-0.146749 -0.692618 0)
(-0.143919 -0.698183 0)
(-0.141141 -0.702024 0)
(-0.138421 -0.70435 0)
(-0.135764 -0.705369 0)
(-0.133175 -0.705283 0)
(-0.13066 -0.704282 0)
(-0.187025 -0.405292 0)
(-0.184825 -0.443391 0)
(-0.182391 -0.479115 0)
(-0.179767 -0.512381 0)
(-0.176986 -0.543045 0)
(-0.174085 -0.571015 0)
(-0.171095 -0.596229 0)
(-0.168041 -0.618666 0)
(-0.164942 -0.638342 0)
(-0.161819 -0.655314 0)
(-0.15869 -0.669677 0)
(-0.15557 -0.68156 0)
(-0.152473 -0.691119 0)
(-0.14941 -0.698535 0)
(-0.146392 -0.704003 0)
(-0.143427 -0.707732 0)
(-0.140522 -0.709932 0)
(-0.137684 -0.710814 0)
(-0.134916 -0.71058 0)
(-0.132227 -0.70942 0)
(-0.191897 -0.409583 0)
(-0.189571 -0.448198 0)
(-0.186996 -0.484351 0)
(-0.184219 -0.517969 0)
(-0.181275 -0.548917 0)
(-0.1782 -0.577107 0)
(-0.175031 -0.602486 0)
(-0.17179 -0.625038 0)
(-0.168499 -0.644785 0)
(-0.165181 -0.66179 0)
(-0.161853 -0.676152 0)
(-0.158532 -0.688004 0)
(-0.155233 -0.697506 0)
(-0.151968 -0.704843 0)
(-0.148748 -0.710212 0)
(-0.145583 -0.713825 0)
(-0.14248 -0.715895 0)
(-0.139448 -0.716631 0)
(-0.13649 -0.71624 0)
(-0.133615 -0.714912 0)
(-0.196809 -0.414116 0)
(-0.194351 -0.453279 0)
(-0.191628 -0.48989 0)
(-0.188689 -0.523885 0)
(-0.185571 -0.555135 0)
(-0.182313 -0.583564 0)
(-0.178951 -0.609122 0)
(-0.17551 -0.631801 0)
(-0.172015 -0.65163 0)
(-0.168487 -0.668675 0)
(-0.164946 -0.683041 0)
(-0.16141 -0.694865 0)
(-0.157895 -0.704312 0)
(-0.154413 -0.711569 0)
(-0.150977 -0.716837 0)
(-0.147598 -0.72033 0)
(-0.144285 -0.722262 0)
(-0.141045 -0.722847 0)
(-0.137883 -0.72229 0)
(-0.134809 -0.720783 0)
(-0.201785 -0.418909 0)
(-0.199182 -0.458655 0)
(-0.196298 -0.495752 0)
(-0.193185 -0.530149 0)
(-0.189879 -0.561726 0)
(-0.186423 -0.590411 0)
(-0.182855 -0.616165 0)
(-0.179201 -0.638984 0)
(-0.175486 -0.658904 0)
(-0.171734 -0.675997 0)
(-0.167965 -0.690373 0)
(-0.164198 -0.702173 0)
(-0.160451 -0.711566 0)
(-0.156738 -0.718742 0)
(-0.153071 -0.723907 0)
(-0.149463 -0.727275 0)
(-0.145923 -0.729064 0)
(-0.14246 -0.729488 0)
(-0.139081 -0.728756 0)
(-0.135794 -0.727059 0)
(-0.206809 -0.423978 0)
(-0.204054 -0.464344 0)
(-0.201 -0.50196 0)
(-0.197702 -0.536788 0)
(-0.194197 -0.568713 0)
(-0.190531 -0.597676 0)
(-0.186742 -0.623642 0)
(-0.18286 -0.646616 0)
(-0.178909 -0.666639 0)
(-0.174916 -0.683789 0)
(-0.170902 -0.698181 0)
(-0.166889 -0.70996 0)
(-0.162893 -0.719301 0)
(-0.158931 -0.726396 0)
(-0.155017 -0.731454 0)
(-0.151163 -0.734692 0)
(-0.147381 -0.736331 0)
(-0.143679 -0.736586 0)
(-0.140066 -0.735667 0)
(-0.136552 -0.733768 0)
(-0.211904 -0.429343 0)
(-0.208985 -0.470369 0)
(-0.205747 -0.508539 0)
(-0.202248 -0.543826 0)
(-0.198529 -0.576127 0)
(-0.194636 -0.605388 0)
(-0.190611 -0.631586 0)
(-0.186483 -0.654729 0)
(-0.18228 -0.674867 0)
(-0.178028 -0.692084 0)
(-0.173752 -0.706498 0)
(-0.169474 -0.718261 0)
(-0.165212 -0.727551 0)
(-0.160983 -0.734563 0)
(-0.156802 -0.739512 0)
(-0.152685 -0.742615 0)
(-0.148643 -0.744096 0)
(-0.144686 -0.744172 0)
(-0.140823 -0.743055 0)
(-0.137065 -0.74094 0)
(-0.217057 -0.435025 0)
(-0.213964 -0.476754 0)
(-0.210532 -0.515513 0)
(-0.20682 -0.551293 0)
(-0.202872 -0.583997 0)
(-0.198737 -0.613581 0)
(-0.194458 -0.640029 0)
(-0.190067 -0.663359 0)
(-0.185593 -0.683625 0)
(-0.181065 -0.700918 0)
(-0.176507 -0.715362 0)
(-0.171944 -0.727114 0)
(-0.167396 -0.736354 0)
(-0.16288 -0.743284 0)
(-0.158415 -0.748118 0)
(-0.154014 -0.751081 0)
(-0.149693 -0.752395 0)
(-0.145462 -0.752282 0)
(-0.14133 -0.750954 0)
(-0.137311 -0.748608 0)
(-0.222291 -0.441044 0)
(-0.219011 -0.483522 0)
(-0.215368 -0.522912 0)
(-0.211426 -0.559219 0)
(-0.207232 -0.592355 0)
(-0.202836 -0.622288 0)
(-0.198285 -0.649008 0)
(-0.193611 -0.672543 0)
(-0.188846 -0.692952 0)
(-0.18402 -0.710332 0)
(-0.17916 -0.724814 0)
(-0.17429 -0.736559 0)
(-0.169434 -0.745751 0)
(-0.164611 -0.752597 0)
(-0.159838 -0.757314 0)
(-0.155134 -0.760129 0)
(-0.150513 -0.761268 0)
(-0.145987 -0.760954 0)
(-0.141568 -0.759401 0)
(-0.137269 -0.756808 0)
(-0.227595 -0.447426 0)
(-0.224116 -0.490703 0)
(-0.22025 -0.530766 0)
(-0.216063 -0.567637 0)
(-0.211606 -0.601239 0)
(-0.206931 -0.631547 0)
(-0.202087 -0.658564 0)
(-0.19711 -0.682322 0)
(-0.192032 -0.702889 0)
(-0.186886 -0.720369 0)
(-0.1817 -0.734898 0)
(-0.176502 -0.74664 0)
(-0.171314 -0.755787 0)
(-0.16616 -0.762548 0)
(-0.161058 -0.767144 0)
(-0.156027 -0.769804 0)
(-0.151083 -0.770757 0)
(-0.146241 -0.770229 0)
(-0.141512 -0.768436 0)
(-0.136912 -0.765578 0)
(-0.232993 -0.454196 0)
(-0.229299 -0.498325 0)
(-0.22519 -0.539108 0)
(-0.22074 -0.576583 0)
(-0.215999 -0.610685 0)
(-0.211023 -0.6414 0)
(-0.205865 -0.668738 0)
(-0.200561 -0.692741 0)
(-0.195147 -0.713484 0)
(-0.189656 -0.731076 0)
(-0.18412 -0.745661 0)
(-0.178567 -0.757407 0)
(-0.173023 -0.766511 0)
(-0.167512 -0.773185 0)
(-0.162055 -0.777655 0)
(-0.156672 -0.780152 0)
(-0.151381 -0.78091 0)
(-0.146198 -0.780154 0)
(-0.141136 -0.778104 0)
(-0.136213 -0.774961 0)
(-0.238478 -0.461383 0)
(-0.234554 -0.50642 0)
(-0.230187 -0.547973 0)
(-0.225455 -0.586097 0)
(-0.220409 -0.620737 0)
(-0.215112 -0.65189 0)
(-0.209615 -0.679577 0)
(-0.20396 -0.703848 0)
(-0.198184 -0.724785 0)
(-0.192322 -0.742505 0)
(-0.186408 -0.757155 0)
(-0.180474 -0.768912 0)
(-0.174545 -0.777975 0)
(-0.168649 -0.784562 0)
(-0.162809 -0.788901 0)
(-0.157047 -0.791227 0)
(-0.151381 -0.791776 0)
(-0.145832 -0.790777 0)
(-0.140412 -0.788452 0)
(-0.13514 -0.785003 0)
(-0.244069 -0.469015 0)
(-0.239898 -0.515023 0)
(-0.235252 -0.5574 0)
(-0.230215 -0.59622 0)
(-0.224842 -0.631439 0)
(-0.219197 -0.663066 0)
(-0.213337 -0.691132 0)
(-0.207303 -0.715696 0)
(-0.201136 -0.736848 0)
(-0.194874 -0.754711 0)
(-0.188553 -0.769439 0)
(-0.182207 -0.781213 0)
(-0.175864 -0.790238 0)
(-0.169553 -0.796736 0)
(-0.163299 -0.800938 0)
(-0.157127 -0.803084 0)
(-0.151059 -0.803411 0)
(-0.145113 -0.802153 0)
(-0.139307 -0.799532 0)
(-0.133661 -0.795753 0)
(-0.249763 -0.477125 0)
(-0.245327 -0.524171 0)
(-0.240384 -0.567431 0)
(-0.235021 -0.606997 0)
(-0.229296 -0.64284 0)
(-0.223278 -0.67498 0)
(-0.217026 -0.703458 0)
(-0.210584 -0.728343 0)
(-0.203996 -0.749732 0)
(-0.197303 -0.767756 0)
(-0.190542 -0.782574 0)
(-0.183751 -0.794373 0)
(-0.17696 -0.803364 0)
(-0.1702 -0.80977 0)
(-0.1635 -0.813831 0)
(-0.156886 -0.815786 0)
(-0.150382 -0.815877 0)
(-0.144009 -0.814341 0)
(-0.137786 -0.811401 0)
(-0.131735 -0.807267 0)
(-0.25558 -0.485749 0)
(-0.250859 -0.533904 0)
(-0.245594 -0.578109 0)
(-0.23988 -0.618479 0)
(-0.233776 -0.654994 0)
(-0.227355 -0.687689 0)
(-0.22068 -0.716616 0)
(-0.213799 -0.741851 0)
(-0.206756 -0.763502 0)
(-0.199596 -0.781706 0)
(-0.192361 -0.796628 0)
(-0.185088 -0.808462 0)
(-0.177813 -0.817421 0)
(-0.170568 -0.823736 0)
(-0.163385 -0.827647 0)
(-0.156292 -0.829401 0)
(-0.149316 -0.829241 0)
(-0.142482 -0.827406 0)
(-0.135808 -0.824123 0)
(-0.129321 -0.819604 0)
(-0.261519 -0.494923 0)
(-0.256492 -0.544265 0)
(-0.250884 -0.589485 0)
(-0.244792 -0.630717 0)
(-0.238281 -0.667958 0)
(-0.231427 -0.701254 0)
(-0.224296 -0.730669 0)
(-0.216939 -0.756289 0)
(-0.209405 -0.77823 0)
(-0.201742 -0.796635 0)
(-0.193992 -0.811677 0)
(-0.186198 -0.823555 0)
(-0.178399 -0.832487 0)
(-0.170629 -0.838709 0)
(-0.162922 -0.842465 0)
(-0.155311 -0.844004 0)
(-0.147824 -0.843575 0)
(-0.14049 -0.841419 0)
(-0.133329 -0.837766 0)
(-0.12637 -0.83283 0)
(-0.267601 -0.504689 0)
(-0.262244 -0.555301 0)
(-0.256264 -0.601609 0)
(-0.249766 -0.64377 0)
(-0.242815 -0.681794 0)
(-0.235493 -0.715742 0)
(-0.22787 -0.745689 0)
(-0.22 -0.771732 0)
(-0.211935 -0.793992 0)
(-0.203725 -0.812623 0)
(-0.195419 -0.827803 0)
(-0.18706 -0.839736 0)
(-0.178691 -0.848646 0)
(-0.170351 -0.854773 0)
(-0.162077 -0.858367 0)
(-0.153904 -0.859679 0)
(-0.145863 -0.858961 0)
(-0.137987 -0.856459 0)
(-0.130298 -0.852405 0)
(-0.122828 -0.847017 0)
(-0.273827 -0.515089 0)
(-0.268116 -0.567062 0)
(-0.261739 -0.614538 0)
(-0.254803 -0.657701 0)
(-0.247379 -0.696572 0)
(-0.239553 -0.731228 0)
(-0.231398 -0.761755 0)
(-0.222972 -0.788261 0)
(-0.214331 -0.810876 0)
(-0.20553 -0.829759 0)
(-0.196619 -0.845097 0)
(-0.187648 -0.857098 0)
(-0.178661 -0.865992 0)
(-0.169702 -0.872024 0)
(-0.16081 -0.875446 0)
(-0.152026 -0.876516 0)
(-0.143385 -0.875489 0)
(-0.134919 -0.872613 0)
(-0.126658 -0.868125 0)
(-0.118634 -0.862245 0)
(-0.280219 -0.526172 0)
(-0.274127 -0.579603 0)
(-0.26732 -0.628335 0)
(-0.259912 -0.672577 0)
(-0.251977 -0.712365 0)
(-0.243606 -0.747791 0)
(-0.234875 -0.778953 0)
(-0.225847 -0.805967 0)
(-0.216582 -0.828975 0)
(-0.207138 -0.848142 0)
(-0.197571 -0.863659 0)
(-0.187933 -0.875743 0)
(-0.178274 -0.884629 0)
(-0.168641 -0.890564 0)
(-0.159078 -0.893807 0)
(-0.149629 -0.894618 0)
(-0.140333 -0.893258 0)
(-0.131228 -0.889977 0)
(-0.122344 -0.885017 0)
(-0.11372 -0.878601 0)
(-0.286782 -0.537987 0)
(-0.28028 -0.592981 0)
(-0.273012 -0.643065 0)
(-0.265096 -0.688472 0)
(-0.25661 -0.729255 0)
(-0.247649 -0.765519 0)
(-0.238295 -0.797375 0)
(-0.228615 -0.824951 0)
(-0.218672 -0.848394 0)
(-0.208529 -0.867878 0)
(-0.198247 -0.883602 0)
(-0.187883 -0.895786 0)
(-0.177491 -0.904671 0)
(-0.167123 -0.910508 0)
(-0.156828 -0.913562 0)
(-0.146654 -0.914097 0)
(-0.136646 -0.912377 0)
(-0.126844 -0.908657 0)
(-0.117283 -0.903183 0)
(-0.108006 -0.896181 0)
(-0.293538 -0.550591 0)
(-0.286594 -0.607262 0)
(-0.278828 -0.658802 0)
(-0.270364 -0.705469 0)
(-0.261281 -0.747331 0)
(-0.251682 -0.784509 0)
(-0.241651 -0.817127 0)
(-0.231262 -0.845321 0)
(-0.220581 -0.869249 0)
(-0.209678 -0.88909 0)
(-0.198617 -0.90505 0)
(-0.187461 -0.917353 0)
(-0.176268 -0.926246 0)
(-0.165097 -0.931986 0)
(-0.154002 -0.934841 0)
(-0.143037 -0.935079 0)
(-0.13225 -0.932969 0)
(-0.121689 -0.928771 0)
(-0.111391 -0.922735 0)
(-0.101404 -0.915091 0)
(-0.300496 -0.564041 0)
(-0.293076 -0.622513 0)
(-0.284773 -0.675623 0)
(-0.275718 -0.723654 0)
(-0.265991 -0.76669 0)
(-0.255699 -0.804868 0)
(-0.244935 -0.838323 0)
(-0.233774 -0.867201 0)
(-0.22229 -0.891668 0)
(-0.210556 -0.911912 0)
(-0.198643 -0.92814 0)
(-0.186621 -0.940586 0)