/*--------------------------------*- C++ -*----------------------------------*\
  =========                 |
  \\      /  F ield         | OpenFOAM: The Open Source CFD Toolbox
   \\    /   O peration     | Website:  https://openfoam.org
    \\  /    A nd           | Version:  6
     \\/     M anipulation  |
\*---------------------------------------------------------------------------*/
FoamFile
{
    version     2.0;
    format      ascii;
    class       volVectorField;
    location    "16";
    object      U;
}
// * * * * * * * * * * * * * * * * * * * * * * * * * * * * * * * * * * * * * //

dimensions      [0 1 -1 0 0 0 0];

internalField   nonuniform List<vector> 
10000
(
(-0.00232868 -3.23121 0)
(-0.0054763 -4.31424 0)
(-0.0094002 -4.81911 0)
(-0.0110741 -5.1283 0)
(-0.0107495 -5.30872 0)
(-0.00963986 -5.409 0)
(-0.00831467 -5.46294 0)
(-0.00701326 -5.49071 0)
(-0.00574777 -5.50336 0)
(-0.00452633 -5.50651 0)
(-0.00333734 -5.50249 0)
(-0.00216715 -5.49121 0)
(-0.000990656 -5.4702 0)
(0.000274695 -5.43393 0)
(0.00169625 -5.37197 0)
(0.00329236 -5.26558 0)
(0.00466989 -5.08323 0)
(0.00483243 -4.77854 0)
(0.00338491 -4.28308 0)
(0.00174995 -3.21562 0)
(-0.00123346 -3.23403 0)
(-0.000972279 -4.31111 0)
(-0.00335031 -4.81828 0)
(-0.00503589 -5.12979 0)
(-0.00586723 -5.31194 0)
(-0.00593622 -5.413 0)
(-0.00556918 -5.46714 0)
(-0.00495981 -5.49487 0)
(-0.00423623 -5.50737 0)
(-0.0034745 -5.51041 0)
(-0.00271039 -5.50635 0)
(-0.00195997 -5.49512 0)
(-0.00125354 -5.47429 0)
(-0.0006032 -5.43826 0)
(-5.49252e-05 -5.37653 0)
(0.000377222 -5.27005 0)
(0.000619057 -5.08691 0)
(0.000779362 -4.78035 0)
(0.000244265 -4.28219 0)
(0.00114105 -3.21756 0)
(-0.00206656 -3.23225 0)
(-0.0016826 -4.30656 0)
(-0.0020836 -4.81487 0)
(-0.00292552 -5.12794 0)
(-0.00355571 -5.31099 0)
(-0.00378526 -5.41271 0)
(-0.00380417 -5.46732 0)
(-0.00357475 -5.49536 0)
(-0.00320005 -5.50805 0)
(-0.0027489 -5.51117 0)
(-0.00226694 -5.50713 0)
(-0.00178533 -5.49589 0)
(-0.00132818 -5.47495 0)
(-0.000907341 -5.43864 0)
(-0.000550181 -5.37646 0)
(-0.000231766 -5.26954 0)
(0.000160527 -5.0861 0)
(0.000589275 -4.77903 0)
(0.000951472 -4.28018 0)
(0.00109817 -3.2154 0)
(-0.00139943 -3.22958 0)
(-0.00110359 -4.30299 0)
(-0.00106825 -4.81154 0)
(-0.00126814 -5.12573 0)
(-0.00174361 -5.30966 0)
(-0.00209215 -5.41213 0)
(-0.00229082 -5.46724 0)
(-0.00231163 -5.4956 0)
(-0.00219812 -5.50853 0)
(-0.00199441 -5.51178 0)
(-0.00174857 -5.5078 0)
(-0.00147683 -5.49657 0)
(-0.00120792 -5.47561 0)
(-0.000940484 -5.43921 0)
(-0.000712447 -5.3769 0)
(-0.000464545 -5.26996 0)
(-0.000325569 -5.08663 0)
(4.38397e-05 -4.77923 0)
(0.000322959 -4.27991 0)
(-1.05012e-05 -3.21296 0)
(-0.000506914 -3.22647 0)
(-0.000946423 -4.30176 0)
(-0.00117131 -4.80957 0)
(-0.00107715 -5.12387 0)
(-0.00133047 -5.30825 0)
(-0.00157286 -5.41107 0)
(-0.00168784 -5.46659 0)
(-0.00172546 -5.49533 0)
(-0.00165689 -5.5085 0)
(-0.00150525 -5.51191 0)
(-0.00130487 -5.50804 0)
(-0.00107562 -5.49689 0)
(-0.000826901 -5.47594 0)
(-0.000552359 -5.43949 0)
(-0.000288021 -5.37702 0)
(2.49174e-05 -5.27001 0)
(0.000132643 -5.08652 0)
(0.000482645 -4.77829 0)
(0.000191563 -4.27963 0)
(-0.000514867 -3.21209 0)
(0.000761404 -3.22588 0)
(-0.000478787 -4.30325 0)
(-0.00112184 -4.81002 0)
(-0.00124577 -5.12363 0)
(-0.00153075 -5.30806 0)
(-0.0016485 -5.41097 0)
(-0.00164616 -5.46665 0)
(-0.00158615 -5.49554 0)
(-0.00144889 -5.50882 0)
(-0.00125419 -5.51232 0)
(-0.00101844 -5.50853 0)
(-0.000748991 -5.49743 0)
(-0.000437133 -5.47655 0)
(-8.53481e-05 -5.44016 0)
(0.000307814 -5.37768 0)
(0.000563727 -5.27057 0)
(0.000692556 -5.08676 0)
(0.000581347 -4.77861 0)
(-8.89748e-05 -4.28069 0)
(-0.000879556 -3.21207 0)
(0.00067072 -3.22675 0)
(-0.000401619 -4.30434 0)
(-0.000891504 -4.81044 0)
(-0.00122554 -5.12402 0)
(-0.0014479 -5.30859 0)
(-0.00147764 -5.4115 0)
(-0.00143641 -5.4672 0)
(-0.00133928 -5.49609 0)
(-0.00119694 -5.50941 0)
(-0.00100355 -5.51296 0)
(-0.000767652 -5.50921 0)
(-0.00050116 -5.49814 0)
(-0.000182138 -5.47733 0)
(0.000178967 -5.44106 0)
(0.00056503 -5.37863 0)
(0.000779767 -5.27124 0)
(0.000863721 -5.08709 0)
(0.000493015 -4.77922 0)
(6.88057e-06 -4.28087 0)
(-0.000425004 -3.21228 0)
(-4.80038e-05 -3.22656 0)
(-0.000460942 -4.30348 0)
(-0.000650409 -4.80988 0)
(-0.0010115 -5.12362 0)
(-0.00108034 -5.30849 0)
(-0.00106168 -5.41163 0)
(-0.00102217 -5.46745 0)
(-0.000955058 -5.49646 0)
(-0.000867712 -5.50987 0)
(-0.000733973 -5.51349 0)
(-0.00055816 -5.5098 0)
(-0.000336237 -5.49881 0)
(-6.38696e-05 -5.47811 0)
(0.000249055 -5.44204 0)
(0.000572526 -5.37968 0)
(0.000806651 -5.27199 0)
(0.000860621 -5.08751 0)
(0.00051094 -4.77944 0)
(0.000223834 -4.28035 0)
(0.000273895 -3.21375 0)
(-0.000426787 -3.2249 0)
(-0.00042266 -4.30254 0)
(-0.000468355 -4.80885 0)
(-0.000693172 -5.1224 0)
(-0.000838992 -5.30767 0)
(-0.000851987 -5.4113 0)
(-0.000837567 -5.4673 0)
(-0.000800618 -5.49644 0)
(-0.000750558 -5.50998 0)
(-0.000676051 -5.51372 0)
(-0.00056708 -5.51013 0)
(-0.000427704 -5.49924 0)
(-0.000259029 -5.47864 0)
(-5.54376e-05 -5.44266 0)
(0.000156769 -5.3804 0)
(0.000346754 -5.27263 0)
(0.000427633 -5.0879 0)
(0.000362746 -4.77924 0)
(0.000587073 -4.27923 0)
(0.000562105 -3.21453 0)
(-0.000235649 -3.22368 0)
(-0.000422049 -4.30214 0)
(-0.000525317 -4.80853 0)
(-0.000757887 -5.12224 0)
(-0.00096981 -5.30739 0)
(-0.00101369 -5.41099 0)
(-0.000993775 -5.46718 0)
(-0.000920248 -5.49648 0)
(-0.00083794 -5.51008 0)
(-0.000754029 -5.51385 0)
(-0.000674555 -5.51028 0)
(-0.000595719 -5.49938 0)
(-0.000517361 -5.47877 0)
(-0.000423567 -5.44279 0)
(-0.000293947 -5.38044 0)
(-0.000116398 -5.27241 0)
(8.81536e-05 -5.08725 0)
(0.000402659 -4.77814 0)
(0.00108027 -4.27759 0)
(0.000595782 -3.21227 0)
(-0.000335461 -3.2231 0)
(-0.000278028 -4.30246 0)
(-0.000322412 -4.80895 0)
(-0.000763253 -5.12225 0)
(-0.000972866 -5.30715 0)
(-0.00109559 -5.411 0)
(-0.00109516 -5.46734 0)
(-0.000986101 -5.49665 0)
(-0.000865067 -5.51026 0)
(-0.000740666 -5.51401 0)
(-0.00061927 -5.51042 0)
(-0.000510626 -5.49949 0)
(-0.000407252 -5.47882 0)
(-0.000292879 -5.4428 0)
(-0.000119324 -5.38048 0)
(0.00015625 -5.27248 0)
(0.00038922 -5.08719 0)
(0.000827871 -4.77767 0)
(0.00115108 -4.27715 0)
(-0.000147578 -3.2099 0)
(-0.000744143 -3.22336 0)
(-9.35014e-05 -4.30179 0)
(-0.000232625 -4.80935 0)
(-0.0005624 -5.12241 0)
(-0.000817981 -5.30702 0)
(-0.000992191 -5.41109 0)
(-0.00100209 -5.46755 0)
(-0.000907754 -5.49692 0)
(-0.000782284 -5.51055 0)
(-0.000634416 -5.51433 0)
(-0.000473247 -5.51075 0)
(-0.000300122 -5.49983 0)
(-0.000124938 -5.47921 0)
(5.69269e-05 -5.44324 0)
(0.000284072 -5.38107 0)
(0.000589299 -5.27361 0)
(0.000815031 -5.08837 0)
(0.000952718 -4.77824 0)
(0.000938201 -4.27832 0)
(-0.000767878 -3.20869 0)
(-0.000298724 -3.22403 0)
(-0.000211033 -4.30153 0)
(-9.95063e-05 -4.8088 0)
(-0.000154871 -5.12195 0)
(-0.000421022 -5.30684 0)
(-0.000597296 -5.41109 0)
(-0.000682949 -5.46764 0)
(-0.00068768 -5.49707 0)
(-0.000632178 -5.51078 0)
(-0.000531656 -5.51464 0)
(-0.000385779 -5.51112 0)
(-0.000215883 -5.50027 0)
(-1.51986e-05 -5.47967 0)
(0.000187017 -5.44373 0)
(0.000416543 -5.38171 0)
(0.000661912 -5.27444 0)
(0.000903251 -5.08943 0)
(0.000757551 -4.77897 0)
(0.000768972 -4.27804 0)
(-0.000424188 -3.20782 0)
(0.000163654 -3.22417 0)
(-0.0001753 -4.30055 0)
(0.000327369 -4.80789 0)
(0.000246469 -5.12135 0)
(2.14514e-05 -5.30622 0)
(-0.000227111 -5.41056 0)
(-0.000404404 -5.46737 0)
(-0.000521089 -5.49699 0)
(-0.000545758 -5.51085 0)
(-0.000501478 -5.51483 0)
(-0.000403684 -5.51143 0)
(-0.000257275 -5.50065 0)
(-8.06226e-05 -5.48009 0)
(0.000100612 -5.44417 0)
(0.000315767 -5.38209 0)
(0.000495481 -5.27484 0)
(0.000598571 -5.08958 0)
(0.000466318 -4.7786 0)
(0.000228156 -4.27738 0)
(-4.91694e-06 -3.20809 0)
(0.000418627 -3.22495 0)
(0.000338777 -4.30069 0)
(0.000335587 -4.8079 0)
(0.000131058 -5.12154 0)
(-5.68813e-05 -5.30625 0)
(-0.000253902 -5.41039 0)
(-0.000402919 -5.46722 0)
(-0.000512984 -5.49692 0)
(-0.00055471 -5.51088 0)
(-0.000540584 -5.51499 0)
(-0.000473879 -5.51168 0)
(-0.000369089 -5.50096 0)
(-0.000255644 -5.48043 0)
(-0.000114025 -5.44441 0)
(1.37656e-05 -5.38228 0)
(5.36343e-05 -5.27494 0)
(2.90427e-05 -5.08941 0)
(-0.000123035 -4.77816 0)
(-0.000381266 -4.27698 0)
(0.000298922 -3.20764 0)
(0.000435197 -3.22582 0)
(0.000433301 -4.30129 0)
(0.000471576 -4.80806 0)
(0.000475292 -5.12148 0)
(0.000234715 -5.30612 0)
(-7.99537e-06 -5.41021 0)
(-0.000210552 -5.46707 0)
(-0.000378204 -5.49685 0)
(-0.000469337 -5.51091 0)
(-0.000502213 -5.51511 0)
(-0.000487838 -5.51187 0)
(-0.000432289 -5.50122 0)
(-0.000353613 -5.48074 0)
(-0.000258113 -5.44475 0)
(-0.000185464 -5.38262 0)
(-0.000203113 -5.27487 0)
(-0.000305671 -5.08855 0)
(-0.000459234 -4.77728 0)
(-0.000734653 -4.27674 0)
(0.000457783 -3.20804 0)
(0.00028341 -3.22622 0)
(0.000421402 -4.30134 0)
(0.00031636 -4.80734 0)
(0.000436766 -5.1209 0)
(0.000343367 -5.30592 0)
(0.000150618 -5.40994 0)
(-5.17697e-05 -5.46679 0)
(-0.000246705 -5.49663 0)
(-0.000394038 -5.51078 0)
(-0.000489002 -5.51509 0)
(-0.000529941 -5.51198 0)
(-0.000523027 -5.50143 0)
(-0.000462484 -5.48106 0)
(-0.00035754 -5.44521 0)
(-0.000270562 -5.38312 0)
(-0.000215881 -5.27522 0)
(-0.000325254 -5.08872 0)
(-0.000611511 -4.77771 0)
(-0.00112319 -4.27825 0)
(7.55502e-05 -3.21042 0)
(0.000669912 -3.22699 0)
(0.000620049 -4.30233 0)
(0.000392134 -4.80748 0)
(0.000394862 -5.1204 0)
(0.000355794 -5.30537 0)
(0.000221742 -5.40952 0)
(3.28236e-05 -5.46639 0)
(-0.000186956 -5.49628 0)
(-0.000386964 -5.51049 0)
(-0.000548033 -5.51486 0)
(-0.000676084 -5.51182 0)
(-0.000763938 -5.50136 0)
(-0.000820359 -5.48109 0)
(-0.000850582 -5.44533 0)
(-0.000888952 -5.38324 0)
(-0.000934111 -5.27528 0)
(-0.00105956 -5.08877 0)
(-0.00109758 -4.77789 0)
(-0.00103069 -4.27881 0)
(4.0263e-05 -3.21234 0)
(0.000731556 -3.22709 0)
(0.000675743 -4.30246 0)
(0.000397115 -4.80675 0)
(0.000301551 -5.11974 0)
(0.000278815 -5.30499 0)
(0.000190356 -5.40904 0)
(3.10614e-05 -5.46581 0)
(-0.000184307 -5.49574 0)
(-0.000394018 -5.51002 0)
(-0.00058048 -5.51442 0)
(-0.000743874 -5.51138 0)
(-0.000896828 -5.50094 0)
(-0.00105524 -5.48066 0)
(-0.00120418 -5.44484 0)
(-0.00135199 -5.38259 0)
(-0.00146067 -5.2743 0)
(-0.00138889 -5.08734 0)
(-0.00109217 -4.77655 0)
(-0.000767635 -4.27793 0)
(0.000338779 -3.21206 0)
(0.000570944 -3.22717 0)
(0.000421554 -4.30257 0)
(0.000224271 -4.80629 0)
(1.13628e-05 -5.11894 0)
(-5.28362e-05 -5.30437 0)
(-9.40444e-05 -5.40852 0)
(-0.000191072 -5.46525 0)
(-0.000323702 -5.49521 0)
(-0.000459852 -5.50956 0)
(-0.000574596 -5.51402 0)
(-0.000672309 -5.51102 0)
(-0.000750686 -5.5006 0)
(-0.000832253 -5.48032 0)
(-0.000910085 -5.44442 0)
(-0.000961949 -5.38207 0)
(-0.000972867 -5.27371 0)
(-0.000850586 -5.0871 0)
(-0.000641469 -4.7769 0)
(-0.000813886 -4.27836 0)
(-0.000509216 -3.21126 0)
(0.000183434 -3.22789 0)
(0.000422496 -4.30287 0)
(-6.42231e-05 -4.80629 0)
(-0.000353793 -5.1192 0)
(-0.000509668 -5.30444 0)
(-0.000547531 -5.40826 0)
(-0.000564316 -5.46494 0)
(-0.000588623 -5.49501 0)
(-0.000612239 -5.50945 0)
(-0.000622512 -5.51394 0)
(-0.000614445 -5.51097 0)
(-0.000594145 -5.50058 0)
(-0.00055564 -5.48031 0)
(-0.000500514 -5.44444 0)
(-0.0004326 -5.38223 0)
(-0.000346382 -5.27423 0)
(-0.000275756 -5.08797 0)
(-0.000307296 -4.77816 0)
(-0.000806956 -4.28069 0)
(-0.00140005 -3.21287 0)
(-2.40845e-05 -3.22931 0)
(0.000448797 -4.30337 0)
(-0.000114177 -4.80678 0)
(-0.000447091 -5.11946 0)
(-0.000662119 -5.30454 0)
(-0.00072376 -5.40826 0)
(-0.000737371 -5.46499 0)
(-0.000716253 -5.4951 0)
(-0.000679798 -5.50957 0)
(-0.000631063 -5.51411 0)
(-0.000583388 -5.51117 0)
(-0.000519135 -5.50077 0)
(-0.000454951 -5.4805 0)
(-0.000394186 -5.44467 0)
(-0.000355525 -5.38253 0)
(-0.000333489 -5.27444 0)
(-0.000305304 -5.08822 0)
(-0.00039358 -4.77894 0)
(-0.000637806 -4.28143 0)
(-0.000784836 -3.21415 0)
(8.09393e-05 -3.23034 0)
(0.000278901 -4.30285 0)
(0.000265406 -4.80642 0)
(2.89499e-05 -5.11928 0)
(-0.000263775 -5.3045 0)
(-0.000433086 -5.4083 0)
(-0.000554067 -5.46507 0)
(-0.000587466 -5.49522 0)
(-0.000574175 -5.50974 0)
(-0.000533476 -5.51434 0)
(-0.00047937 -5.51141 0)
(-0.000417281 -5.50098 0)
(-0.000350693 -5.48066 0)
(-0.000313659 -5.44477 0)
(-0.000338152 -5.38257 0)
(-0.000402616 -5.27433 0)
(-0.0004441 -5.08801 0)
(-0.000518405 -4.77869 0)
(-0.000543387 -4.28085 0)
(-6.27173e-05 -3.21525 0)
(-0.000315303 -3.23042 0)
(0.000142866 -4.30209 0)
(0.000286003 -4.80599 0)
(0.000213711 -5.11931 0)
(3.42329e-05 -5.30455 0)
(-0.000132441 -5.4082 0)
(-0.000288447 -5.46499 0)
(-0.000376931 -5.49525 0)
(-0.000409411 -5.50984 0)
(-0.000411102 -5.51447 0)
(-0.000402096 -5.51158 0)
(-0.000381011 -5.50115 0)
(-0.000347691 -5.48081 0)
(-0.000349434 -5.44492 0)
(-0.000350871 -5.38263 0)
(-0.000410852 -5.27441 0)
(-0.000439164 -5.08847 0)
(-0.000495244 -4.77924 0)
(-0.000565156 -4.2808 0)
(5.55001e-05 -3.21633 0)
(-7.77444e-05 -3.23108 0)
(-0.00012048 -4.30154 0)
(0.000258724 -4.80563 0)
(0.000496818 -5.1192 0)
(0.000357596 -5.30418 0)
(0.000170709 -5.40773 0)
(-3.30788e-05 -5.46461 0)
(-0.000188418 -5.49497 0)
(-0.000286583 -5.50965 0)
(-0.000351408 -5.51433 0)
(-0.000401783 -5.51148 0)
(-0.000452979 -5.50109 0)
(-0.000514672 -5.48082 0)
(-0.000581855 -5.44495 0)
(-0.000673371 -5.38264 0)
(-0.000728195 -5.2745 0)
(-0.000734103 -5.08846 0)
(-0.000583109 -4.77926 0)
(-0.000334775 -4.28104 0)
(0.000211492 -3.21786 0)
(0.000522177 -3.23068 0)
(5.17696e-05 -4.3014 0)
(0.00025805 -4.80501 0)
(0.000635998 -5.11872 0)
(0.000511912 -5.30371 0)
(0.000335745 -5.40719 0)
(8.78864e-05 -5.4641 0)
(-0.000110293 -5.49452 0)
(-0.000256202 -5.50927 0)
(-0.000360473 -5.51404 0)
(-0.000450347 -5.51121 0)
(-0.000545636 -5.50082 0)
(-0.000661643 -5.48054 0)
(-0.000779983 -5.44469 0)
(-0.000932305 -5.38238 0)
(-0.000964 -5.27419 0)
(-0.000896247 -5.08833 0)
(-0.000706577 -4.77904 0)
(1.40201e-05 -4.28067 0)
(0.00025457 -3.21822 0)
(0.000804766 -3.2302 0)
(0.00029025 -4.30182 0)
(0.000194342 -4.80478 0)
(0.00035949 -5.1183 0)
(0.00033844 -5.30311 0)
(0.000224934 -5.4067 0)
(-4.49158e-06 -5.46369 0)
(-0.000167952 -5.49414 0)
(-0.000297989 -5.50895 0)
(-0.00039935 -5.51373 0)
(-0.000482423 -5.51089 0)
(-0.000589148 -5.50045 0)
(-0.000723683 -5.48008 0)
(-0.000856508 -5.4442 0)
(-0.000984725 -5.38191 0)
(-0.000993666 -5.2738 0)
(-0.000844148 -5.08832 0)
(-0.000641046 -4.77898 0)
(0.000199474 -4.28031 0)
(0.000131186 -3.21766 0)
(0.00092225 -3.2306 0)
(0.000519174 -4.30237 0)
(9.62978e-05 -4.80532 0)
(-2.42245e-05 -5.11857 0)
(-1.1179e-05 -5.30282 0)
(-0.000125137 -5.40638 0)
(-0.000227503 -5.46344 0)
(-0.000298151 -5.49392 0)
(-0.000350995 -5.50876 0)
(-0.000391259 -5.51355 0)
(-0.000428989 -5.5107 0)
(-0.000477056 -5.50022 0)
(-0.000551968 -5.47975 0)
(-0.000626738 -5.44383 0)
(-0.00064943 -5.38164 0)
(-0.00062206 -5.27374 0)
(-0.000439213 -5.08844 0)
(-0.000221899 -4.77894 0)
(0.000173044 -4.28031 0)
(1.56327e-05 -3.21679 0)
(0.000570255 -3.23157 0)
(0.000532436 -4.30268 0)
(0.000204781 -4.80572 0)
(-5.73579e-05 -5.11861 0)
(-9.41403e-05 -5.30271 0)
(-0.000284586 -5.40631 0)
(-0.000336199 -5.4634 0)
(-0.000355616 -5.49389 0)
(-0.000350299 -5.50876 0)
(-0.000332239 -5.51357 0)
(-0.00030275 -5.51071 0)
(-0.000267797 -5.50022 0)
(-0.000219332 -5.47976 0)
(-0.000161399 -5.44382 0)
(-4.01858e-05 -5.38172 0)
(5.77928e-05 -5.2741 0)
(0.000177909 -5.08903 0)
(0.00024031 -4.77979 0)
(-1.94807e-05 -4.28123 0)
(-0.000262436 -3.21683 0)
(0.000228481 -3.23267 0)
(0.000437873 -4.30228 0)
(0.000246541 -4.8058 0)
(-4.20183e-05 -5.11827 0)
(-0.000115346 -5.30234 0)
(-0.000317927 -5.40612 0)
(-0.000374739 -5.46336 0)
(-0.000372781 -5.49398 0)
(-0.000343021 -5.5089 0)
(-0.000296256 -5.51372 0)
(-0.00023745 -5.51088 0)
(-0.000155081 -5.50042 0)
(-4.59414e-05 -5.48 0)
(6.72045e-05 -5.4441 0)
(0.000205056 -5.38206 0)
(0.000302594 -5.27461 0)
(0.000278113 -5.08959 0)
(0.000211151 -4.78054 0)
(1.2225e-06 -4.282 0)
(-7.56378e-05 -3.21735 0)
(-0.000120316 -3.23226 0)
(0.000184642 -4.30182 0)
(0.000141334 -4.80567 0)
(0.000103798 -5.11756 0)
(-0.000109548 -5.30157 0)
(-0.00028234 -5.40575 0)
(-0.000363724 -5.46321 0)
(-0.000385352 -5.49393 0)
(-0.000384449 -5.50894 0)
(-0.000359873 -5.51384 0)
(-0.000310018 -5.51108 0)
(-0.000235573 -5.50069 0)
(-0.000128638 -5.48037 0)
(-2.91886e-05 -5.44453 0)
(7.13154e-05 -5.3825 0)
(0.000135457 -5.27507 0)
(0.000112495 -5.09004 0)
(8.72254e-06 -4.78104 0)
(0.000201204 -4.28231 0)
(0.000354627 -3.21837 0)
(-0.000276805 -3.232 0)
(-0.00012833 -4.30158 0)
(-5.37313e-05 -4.80481 0)
(-9.22385e-06 -5.11656 0)
(-0.000293279 -5.30084 0)
(-0.00047157 -5.4052 0)
(-0.000572212 -5.46293 0)
(-0.000610079 -5.49383 0)
(-0.000624908 -5.50893 0)
(-0.000622333 -5.5139 0)
(-0.00060348 -5.5112 0)
(-0.000566774 -5.50085 0)
(-0.000519998 -5.48055 0)
(-0.000490348 -5.44474 0)
(-0.000481264 -5.38275 0)
(-0.00049665 -5.27539 0)
(-0.000430406 -5.09036 0)
(-0.000385279 -4.7812 0)
(0.000298989 -4.28196 0)
(0.000870112 -3.21899 0)
(0.000347778 -3.233 0)
(-2.04993e-05 -4.30304 0)
(-7.98182e-05 -4.80594 0)
(-0.00037348 -5.11705 0)
(-0.000631274 -5.30094 0)
(-0.000800087 -5.4053 0)
(-0.000879124 -5.46306 0)
(-0.000892196 -5.49392 0)
(-0.000887542 -5.50897 0)
(-0.000885652 -5.51391 0)
(-0.000884451 -5.51117 0)
(-0.000899008 -5.50078 0)
(-0.000930324 -5.48037 0)
(-0.000973332 -5.44447 0)
(-0.00105167 -5.38234 0)
(-0.00110797 -5.27471 0)
(-0.000972471 -5.08982 0)
(-0.000602964 -4.78079 0)
(0.000263572 -4.28066 0)
(0.000913407 -3.21762 0)
(-9.08979e-05 -3.23347 0)
(-0.000341849 -4.30343 0)
(0.00023165 -4.80639 0)
(-1.36616e-05 -5.11743 0)
(-0.000212298 -5.30124 0)
(-0.000412772 -5.40544 0)
(-0.000582957 -5.46309 0)
(-0.000693249 -5.4939 0)
(-0.000761808 -5.5089 0)
(-0.000807603 -5.5138 0)
(-0.000846304 -5.51104 0)
(-0.000879772 -5.50061 0)
(-0.000916087 -5.48014 0)
(-0.000938685 -5.44421 0)
(-0.000939379 -5.38211 0)
(-0.000921308 -5.27448 0)
(-0.000781687 -5.08966 0)
(-0.000419403 -4.78068 0)
(-3.59075e-05 -4.2808 0)
(-0.000178846 -3.21624 0)
(-0.000555877 -3.23184 0)
(-0.000579923 -4.30118 0)
(9.47094e-05 -4.80494 0)
(0.000227812 -5.1162 0)
(0.000174371 -5.30001 0)
(2.15375e-05 -5.40447 0)
(-0.000202487 -5.46233 0)
(-0.000405312 -5.49337 0)
(-0.00056613 -5.50854 0)
(-0.000685281 -5.51353 0)
(-0.000765253 -5.51085 0)
(-0.000810064 -5.50053 0)
(-0.000819301 -5.48019 0)
(-0.000784503 -5.44433 0)
(-0.000685993 -5.38234 0)
(-0.000567317 -5.27496 0)
(-0.000477782 -5.09042 0)
(-0.000297558 -4.78169 0)
(-0.000341224 -4.28241 0)
(-0.00066442 -3.21706 0)
(0.000408088 -3.23029 0)
(-0.000168271 -4.30104 0)
(-0.000100617 -4.80414 0)
(-7.31306e-05 -5.11523 0)
(-0.000150524 -5.29894 0)
(-0.00026481 -5.40353 0)
(-0.000412153 -5.46163 0)
(-0.000579582 -5.49279 0)
(-0.000726591 -5.50807 0)
(-0.000845296 -5.5132 0)
(-0.000931105 -5.51064 0)
(-0.000980536 -5.50046 0)
(-0.000991164 -5.48029 0)
(-0.000963779 -5.44452 0)
(-0.000879774 -5.38256 0)
(-0.000723907 -5.27536 0)
(-0.000692589 -5.09073 0)
(-0.000415322 -4.78192 0)
(-0.000483882 -4.28319 0)
(-0.000263463 -3.21785 0)
(0.000946157 -3.23123 0)
(0.000139666 -4.30217 0)
(-6.09494e-05 -4.80465 0)
(-0.000455678 -5.11535 0)
(-0.000588425 -5.29899 0)
(-0.00073431 -5.40352 0)
(-0.000820894 -5.46149 0)
(-0.000908287 -5.49259 0)
(-0.00100203 -5.50787 0)
(-0.00107992 -5.51304 0)
(-0.00113619 -5.51052 0)
(-0.00117243 -5.50039 0)
(-0.00117677 -5.48028 0)
(-0.00116093 -5.44459 0)
(-0.00109618 -5.38275 0)
(-0.00091297 -5.27572 0)
(-0.000844971 -5.0909 0)
(-0.000542879 -4.7817 0)
(-0.00047882 -4.28361 0)
(-0.000213759 -3.21807 0)
(0.000561017 -3.23228 0)
(0.000100058 -4.30253 0)
(0.00010878 -4.80517 0)
(-0.000261687 -5.11552 0)
(-0.000525821 -5.29907 0)
(-0.000751757 -5.40353 0)
(-0.000917914 -5.46139 0)
(-0.00103976 -5.49248 0)
(-0.00113857 -5.5078 0)
(-0.00121939 -5.51298 0)
(-0.00128725 -5.51047 0)
(-0.00133142 -5.50036 0)
(-0.00134558 -5.48029 0)
(-0.00132891 -5.44465 0)
(-0.00127454 -5.3829 0)
(-0.00110594 -5.2763 0)
(-0.000969507 -5.09168 0)
(-0.000791574 -4.78209 0)
(-0.000467642 -4.28432 0)
(-0.000391386 -3.2193 0)
(8.90079e-05 -3.23322 0)
(0.000381784 -4.30252 0)
(0.00033241 -4.80498 0)
(0.000161308 -5.11554 0)
(-0.000240494 -5.299 0)
(-0.000516464 -5.40328 0)
(-0.000774924 -5.4611 0)
(-0.000986666 -5.49222 0)
(-0.00115574 -5.50758 0)
(-0.00130349 -5.51279 0)
(-0.00143428 -5.51032 0)
(-0.00154606 -5.50025 0)
(-0.00161863 -5.48024 0)
(-0.00163419 -5.44471 0)
(-0.00161332 -5.38305 0)
(-0.00153855 -5.2765 0)
(-0.00130622 -5.09231 0)
(-0.00112893 -4.78318 0)
(-0.00070293 -4.28537 0)
(-0.000131732 -3.22003 0)
(-0.000171037 -3.23359 0)
(0.000644938 -4.30234 0)
(0.000642858 -4.80406 0)
(0.000662421 -5.11485 0)
(0.000274861 -5.2984 0)
(-5.19255e-05 -5.40253 0)
(-0.000408031 -5.46046 0)
(-0.000738617 -5.49166 0)
(-0.00103098 -5.50704 0)
(-0.00129453 -5.51227 0)
(-0.00153252 -5.50983 0)
(-0.00173585 -5.49981 0)
(-0.00190666 -5.47986 0)
(-0.00199892 -5.44446 0)
(-0.00202704 -5.38299 0)
(-0.00206619 -5.27635 0)
(-0.00176642 -5.09219 0)
(-0.00138861 -4.78368 0)
(-0.000704198 -4.28557 0)
(-0.000223256 -3.22005 0)
(-1.99321e-05 -3.2329 0)
(0.000749913 -4.30171 0)
(0.000796159 -4.80254 0)
(0.000923031 -5.11312 0)
(0.000630901 -5.2969 0)
(0.000229973 -5.40135 0)
(-0.000191537 -5.45946 0)
(-0.000584609 -5.49074 0)
(-0.000959885 -5.50618 0)
(-0.0012929 -5.51151 0)
(-0.00158416 -5.50916 0)
(-0.00183374 -5.4992 0)
(-0.00203392 -5.4793 0)
(-0.00216521 -5.44395 0)
(-0.0022225 -5.38261 0)
(-0.0022204 -5.27586 0)
(-0.0019139 -5.09174 0)
(-0.00128512 -4.78402 0)
(-0.000601904 -4.28594 0)
(-0.0006243 -3.21902 0)
(0.00101297 -3.23319 0)
(0.000898966 -4.30298 0)
(0.00073259 -4.80243 0)
(0.000549125 -5.11214 0)
(0.000352674 -5.296 0)
(-1.98879e-05 -5.40043 0)
(-0.000368869 -5.45847 0)
(-0.000745245 -5.48983 0)
(-0.00110834 -5.50539 0)
(-0.00143282 -5.5108 0)
(-0.00170498 -5.50856 0)
(-0.00192018 -5.49875 0)
(-0.00205559 -5.47903 0)
(-0.00214161 -5.44394 0)
(-0.00212067 -5.38283 0)
(-0.00198301 -5.27637 0)
(-0.0016512 -5.09281 0)
(-0.00112868 -4.78616 0)
(-0.000809558 -4.28889 0)
(-0.00123639 -3.21978 0)
(0.00114753 -3.23425 0)
(0.00064633 -4.30422 0)
(0.000859051 -4.80329 0)
(0.00055774 -5.11216 0)
(0.000311666 -5.2955 0)
(-0.000100267 -5.39968 0)
(-0.000518792 -5.45768 0)
(-0.00094074 -5.4891 0)
(-0.00134037 -5.50471 0)
(-0.00170192 -5.51021 0)
(-0.00201341 -5.5081 0)
(-0.00226019 -5.49847 0)
(-0.00243541 -5.47898 0)
(-0.00256152 -5.44414 0)
(-0.0025816 -5.3834 0)
(-0.00246141 -5.27775 0)
(-0.00215117 -5.09513 0)
(-0.00163845 -4.7889 0)
(-0.00080679 -4.29167 0)
(-0.00104562 -3.22276 0)
(0.00050348 -3.23549 0)
(0.000537407 -4.30516 0)
(0.000798965 -4.80427 0)
(0.000671472 -5.11207 0)
(0.000381658 -5.29481 0)
(-5.05975e-05 -5.39898 0)
(-0.000560625 -5.45693 0)
(-0.00105089 -5.48829 0)
(-0.00152812 -5.50391 0)
(-0.00197662 -5.50948 0)
(-0.00238851 -5.50747 0)
(-0.00275155 -5.49793 0)
(-0.00307082 -5.47855 0)
(-0.00333367 -5.44381 0)
(-0.00351161 -5.38324 0)
(-0.00347767 -5.278 0)
(-0.00317844 -5.09606 0)
(-0.00225243 -4.79034 0)
(-0.000687391 -4.29255 0)
(3.75214e-05 -3.22374 0)
(0.000330252 -3.23648 0)
(0.000339126 -4.30634 0)
(0.00118216 -4.80521 0)
(0.00121431 -5.11209 0)
(0.000917447 -5.29411 0)
(0.000390008 -5.39805 0)
(-0.000232876 -5.45587 0)
(-0.000868437 -5.48716 0)
(-0.00146976 -5.50282 0)
(-0.00203702 -5.50842 0)
(-0.00256161 -5.50643 0)
(-0.00305618 -5.49692 0)
(-0.00350391 -5.47761 0)
(-0.00387338 -5.44297 0)
(-0.00414188 -5.38247 0)
(-0.0041413 -5.27744 0)
(-0.00374133 -5.09611 0)
(-0.0025723 -4.79108 0)
(-0.000831212 -4.2935 0)
(0.000140434 -3.22303 0)
(-0.000275719 -3.23575 0)
(0.000246793 -4.30607 0)
(0.00140817 -4.80518 0)
(0.00175813 -5.11169 0)
(0.001543 -5.29309 0)
(0.000926216 -5.39654 0)
(0.000214284 -5.45429 0)
(-0.00054583 -5.48564 0)
(-0.00125391 -5.50136 0)
(-0.0019133 -5.50703 0)
(-0.00251964 -5.50512 0)
(-0.00306992 -5.49572 0)
(-0.00355558 -5.47652 0)
(-0.00392797 -5.44207 0)
(-0.00417021 -5.38191 0)
(-0.0041094 -5.27741 0)
(-0.00359114 -5.09687 0)
(-0.00252382 -4.79261 0)
(-0.00130704 -4.2958 0)
(-0.000727338 -3.22289 0)
(-0.000218619 -3.23482 0)
(0.00051136 -4.30725 0)
(0.00133665 -4.80565 0)
(0.00180442 -5.11095 0)
(0.00166327 -5.29153 0)
(0.00109987 -5.39467 0)
(0.000349973 -5.45245 0)
(-0.000418367 -5.48391 0)
(-0.00116793 -5.49974 0)
(-0.00186269 -5.50558 0)
(-0.00248742 -5.50384 0)
(-0.00303135 -5.49461 0)
(-0.00347386 -5.4756 0)
(-0.00378679 -5.44147 0)
(-0.00391791 -5.38178 0)
(-0.00381679 -5.27789 0)
(-0.00332528 -5.09849 0)
(-0.00252354 -4.79554 0)
(-0.00164481 -4.29961 0)
(-0.00162935 -3.22391 0)
(0.00047899 -3.23515 0)
(0.000826861 -4.30916 0)
(0.00162139 -4.8068 0)
(0.00187143 -5.11097 0)
(0.00163188 -5.2905 0)
(0.00105049 -5.39324 0)
(0.000282688 -5.45084 0)
(-0.000489146 -5.48229 0)
(-0.00125098 -5.49824 0)
(-0.0019611 -5.50423 0)
(-0.0025992 -5.50264 0)
(-0.00314802 -5.49361 0)
(-0.00359881 -5.47487 0)
(-0.00392929 -5.44107 0)
(-0.00406033 -5.38186 0)
(-0.0039868 -5.27857 0)
(-0.00356519 -5.09977 0)
(-0.00284061 -4.79792 0)
(-0.00168176 -4.30275 0)
(-0.00134619 -3.22686 0)
(0.000614778 -3.23651 0)
(0.0012783 -4.31227 0)
(0.00199985 -4.80917 0)
(0.00210091 -5.11158 0)
(0.00172627 -5.28988 0)
(0.0010653 -5.39208 0)
(0.000301092 -5.44947 0)
(-0.000506763 -5.48084 0)
(-0.00130762 -5.49683 0)
(-0.00206103 -5.50292 0)
(-0.00275849 -5.50147 0)
(-0.00337749 -5.4926 0)
(-0.00390466 -5.47408 0)
(-0.00430736 -5.44056 0)
(-0.00452995 -5.38185 0)
(-0.00448552 -5.27948 0)
(-0.00407263 -5.10168 0)
(-0.00325461 -4.80032 0)
(-0.00185672 -4.30526 0)
(-0.000911874 -3.23045 0)
(6.70388e-05 -3.23824 0)
(0.00132366 -4.31409 0)
(0.00245737 -4.81031 0)
(0.00284751 -5.11178 0)
(0.0025118 -5.28927 0)
(0.00176192 -5.3907 0)
(0.000855681 -5.44772 0)
(-0.000133656 -5.47905 0)
(-0.00110405 -5.49508 0)
(-0.00202008 -5.50127 0)
(-0.0028804 -5.49994 0)
(-0.00366727 -5.49121 0)
(-0.004363 -5.47292 0)
(-0.00493261 -5.43978 0)
(-0.0052848 -5.38165 0)
(-0.00533617 -5.28009 0)
(-0.00489057 -5.1034 0)
(-0.00386497 -4.80306 0)
(-0.00195395 -4.30821 0)
(-0.000881547 -3.23315 0)
(0.000105172 -3.23842 0)
(0.0014563 -4.31516 0)
(0.00291229 -4.81048 0)
(0.00357357 -5.11062 0)
(0.00334858 -5.2873 0)
(0.00256051 -5.38824 0)
(0.00150026 -5.44512 0)
(0.000322485 -5.4765 0)
(-0.000831083 -5.49265 0)
(-0.00193861 -5.49899 0)
(-0.00298064 -5.49782 0)
(-0.00395451 -5.48923 0)
(-0.00484013 -5.4711 0)
(-0.00558653 -5.43828 0)
(-0.00607589 -5.38068 0)
(-0.00615843 -5.2799 0)
(-0.00564984 -5.1041 0)
(-0.00435559 -4.80471 0)
(-0.00203668 -4.31038 0)
(-0.000619791 -3.23444 0)
(0.00126616 -3.23986 0)
(0.00193865 -4.31769 0)
(0.00345472 -4.81192 0)
(0.00398462 -5.11071 0)
(0.00364412 -5.28595 0)
(0.0028175 -5.38594 0)
(0.001708 -5.44249 0)
(0.000500295 -5.47381 0)
(-0.000711672 -5.49006 0)
(-0.00189346 -5.49652 0)
(-0.00301883 -5.49545 0)
(-0.00407475 -5.48697 0)
(-0.00504225 -5.46902 0)
(-0.00585257 -5.43653 0)
(-0.00639066 -5.37948 0)
(-0.00649039 -5.2795 0)
(-0.00597998 -5.10492 0)
(-0.0044803 -4.80672 0)
(-0.00262048 -4.31347 0)
(-0.000935897 -3.23587 0)
(0.00212144 -3.24468 0)
(0.00242022 -4.32235 0)
(0.00400645 -4.81516 0)
(0.00460012 -5.11209 0)
(0.00414803 -5.28551 0)
(0.00326757 -5.38443 0)
(0.00208479 -5.44042 0)
(0.000833838 -5.47151 0)
(-0.00044509 -5.48769 0)
(-0.0016937 -5.49419 0)
(-0.00288331 -5.49323 0)
(-0.00398943 -5.48493 0)
(-0.00498024 -5.46722 0)
(-0.00581095 -5.43512 0)
(-0.00639402 -5.37879 0)
(-0.00655696 -5.28 0)
(-0.00616177 -5.10667 0)
(-0.00472135 -4.81012 0)
(-0.00310783 -4.319 0)
(-0.00170838 -3.23824 0)
(0.00189741 -3.24735 0)
(0.00254406 -4.32601 0)
(0.00477082 -4.81749 0)
(0.00581311 -5.1126 0)
(0.00548427 -5.28453 0)
(0.0045053 -5.38246 0)
(0.00312501 -5.43789 0)
(0.00163184 -5.46876 0)
(0.000119541 -5.48495 0)
(-0.00134182 -5.49156 0)
(-0.00270997 -5.4908 0)
(-0.00396721 -5.48277 0)
(-0.00506763 -5.46545 0)
(-0.00597066 -5.43391 0)
(-0.00662339 -5.37838 0)
(-0.00683443 -5.28085 0)
(-0.00638583 -5.10942 0)
(-0.00532425 -4.81483 0)
(-0.0033485 -4.32514 0)
(-0.00174738 -3.24297 0)
(0.00177943 -3.24849 0)
(0.00272506 -4.32863 0)
(0.00531994 -4.81893 0)
(0.00666219 -5.11223 0)
(0.00655637 -5.28247 0)
(0.00552377 -5.37941 0)
(0.00399873 -5.43439 0)
(0.0022908 -5.46517 0)
(0.00053284 -5.48149 0)
(-0.00117866 -5.4883 0)
(-0.00279787 -5.4878 0)
(-0.00430274 -5.4801 0)
(-0.00565339 -5.46318 0)
(-0.00679884 -5.43226 0)
(-0.00764864 -5.37764 0)
(-0.0080216 -5.28137 0)
(-0.00758624 -5.11185 0)
(-0.00634831 -4.81912 0)
(-0.00353812 -4.32957 0)
(-0.00111224 -3.24868 0)
(0.00247468 -3.25161 0)
(0.00349411 -4.33447 0)
(0.0057658 -4.8225 0)
(0.00696728 -5.11309 0)
(0.00697266 -5.28109 0)
(0.0059056 -5.37664 0)
(0.00435954 -5.43091 0)
(0.00256673 -5.4614 0)
(0.000674619 -5.47767 0)
(-0.00121447 -5.48459 0)
(-0.00305253 -5.48427 0)
(-0.0047993 -5.4768 0)
(-0.0064199 -5.46024 0)
(-0.00783566 -5.4298 0)
(-0.00888548 -5.37592 0)
(-0.00935688 -5.28088 0)
(-0.00885702 -5.1131 0)
(-0.00699631 -4.8222 0)
(-0.00368385 -4.33348 0)
(-0.000976271 -3.25291 0)
(0.00261602 -3.25663 0)
(0.00390534 -4.34112 0)
(0.00663524 -4.82723 0)
(0.00782889 -5.11471 0)
(0.00781099 -5.28038 0)
(0.00668301 -5.37427 0)
(0.00501949 -5.42751 0)
(0.00306152 -5.45755 0)
(0.000995583 -5.47364 0)
(-0.00108489 -5.48054 0)
(-0.00312184 -5.4803 0)
(-0.00507818 -5.47301 0)
(-0.0069086 -5.45674 0)
(-0.0085 -5.42682 0)
(-0.00968083 -5.37392 0)
(-0.0102034 -5.28033 0)
(-0.00960048 -5.11439 0)
(-0.00753755 -4.82584 0)
(-0.004173 -4.33914 0)
(-0.00176183 -3.25702 0)
(0.00228949 -3.262 0)
(0.00425645 -4.3463 0)
(0.00749325 -4.831 0)
(0.00907942 -5.11604 0)
(0.00896644 -5.27923 0)
(0.00778863 -5.37139 0)
(0.00596651 -5.42368 0)
(0.00381363 -5.45328 0)
(0.0015365 -5.46922 0)
(-0.000765554 -5.47614 0)
(-0.00301716 -5.47601 0)
(-0.00516797 -5.46896 0)
(-0.00716418 -5.4531 0)
(-0.00890129 -5.42385 0)
(-0.0101772 -5.37207 0)
(-0.0107393 -5.28023 0)
(-0.0101323 -5.11698 0)
(-0.00800988 -4.83134 0)
(-0.00458682 -4.34636 0)
(-0.00278512 -3.2617 0)
(0.00242563 -3.26701 0)
(0.00473191 -4.35369 0)
(0.00822528 -4.8359 0)
(0.0101037 -5.11776 0)
(0.0100802 -5.27817 0)
(0.00885751 -5.36836 0)
(0.00689754 -5.41952 0)
(0.00456725 -5.44858 0)