/*--------------------------------*- C++ -*----------------------------------*\
  =========                 |
  \\      /  F ield         | OpenFOAM: The Open Source CFD Toolbox
   \\    /   O peration     | Website:  https://openfoam.org
    \\  /    A nd           | Version:  6
     \\/     M anipulation  |
\*---------------------------------------------------------------------------*/
FoamFile
{
    version     2.0;
    format      ascii;
    class       volScalarField;
    location    "18";
    object      epsilon;
}
// * * * * * * * * * * * * * * * * * * * * * * * * * * * * * * * * * * * * * //

dimensions      [0 2 -3 0 0 0 0];

internalField   nonuniform List<scalar> 
10000
(
257.473
348.31
215.911
132.453
85.1312
59.1529
45.3111
37.6328
33.6636
32.034
32.2188
34.267
38.6998
46.6962
60.8048
86.3752
132.6
213.768
344.818
259.945
256.999
347.663
215.915
132.212
85.0102
58.8676
45.2659
37.4318
33.5029
31.9799
32.1619
34.199
38.6284
46.5769
60.1157
85.2487
130.9
211.846
344.375
259.313
257.316
348.92
215.903
130.815
84.7823
58.7729
45.3012
37.541
33.5652
31.9707
32.0551
34.0393
38.5483
46.5881
60.4654
86.1481
131.601
212.603
343.446
258.921
257.489
349.297
214.698
132.687
84.3201
59.3091
45.37
37.649
33.6209
31.9806
32.1545
34.1366
38.3479
46.5048
60.6351
86.9739
131.556
212.69
344.737
257.614
259.132
349.521
216.522
132.498
85.1492
59.3731
45.339
37.6178
33.512
31.9292
32.0435
34.0285
38.3656
46.2629
61.0958
87.1781
131.989
213.788
344.625
258.699
258.336
349.133
216.229
130.585
84.0202
59.1762
45.2452
37.4273
33.5814
31.8826
32.0995
34.1209
38.5039
46.5582
61.0021
87.1436
132.718
215.584
343.602
258.25
256.497
348.749
215.859
132.528
84.9078
59.1615
45.1795
37.52
33.5757
31.8438
32.069
34.078
38.4335
46.404
60.2671
86.911
133.95
215.682
344.608
259.065
257.973
347.169
213.626
130.741
83.6211
58.4837
45.0109
37.3228
33.5486
31.8424
31.956
33.8996
38.1579
46.3332
60.3841
86.5084
133.634
215.514
345.551
259.222
258.688
348.838
215.861
132.358
84.4766
58.8865
44.8275
37.368
33.5376
31.8931
32.0268
33.9901
38.2001
46.0774
60.5014
85.257
132.892
215.02
345.258
259.153
256.817
346.842
213.826
130.76
85.0601
59.199
44.9088
37.5017
33.4672
31.8
31.9869
33.8617
38.3377
46.3945
60.5068
85.4091
131.202
214.259
343.441
258.65
257.074
347.484
215.693
132.858
85.0053
59.0392
44.8395
37.4668
33.5366
31.8547
31.9309
33.8575
38.1527
46.3653
60.1175
85.6883
132.016
213.821
343.708
258.108
258.017
348.008
213.704
132.285
83.8615
58.3941
44.8188
37.4041
33.528
31.791
31.9956
33.917
38.3736
46.4127
60.7486
86.6027
133.01
212.278
342.891
256.633
257.995
346.742
215.752
131.304
84.5857
58.8096
45.021
37.4293
33.5376
31.86
32.0102
33.9848
38.3313
46.3391
60.6749
86.5481
133.12
213.75
343.121
256.447
257.156
347.153
214.659
132.988
83.9287
58.1049
44.8552
37.5318
33.5465
31.8442
31.9756
33.9444
38.2672
46.2142
60.4759
86.3274
132.894
213.234
342.52
256.223
257.865
348.266
216.933
133.181
85.0392
58.8205
45.015
37.638
33.5511
31.7634
31.8406
33.7512
38.1427
46.0621
60.2573
86.1435
132.81
211.277
342.681
257.625
256.974
347.337
216.78
131.76
84.0556
59.2619
45.4345
37.6949
33.515
31.8934
31.9278
33.7724
38.0463
45.5712
59.7084
85.7809
132.763
212.445
343.096
257.465
257.85
348.422
216.669
133.711
85.3192
59.0791
45.4421
37.681
33.6862
31.9415
32.0171
33.7596
37.8925
45.6181
59.3693
84.6723
132.716
213.905
343.984
257.331
258.44
348.49
216.283
133.68
84.5182
59.736
45.5047
37.7613
33.6861
31.9593
32.0498
33.8175
38.0551
45.8309
59.8591
86.1199
132.428
212.022
343.585
258.384
259.214
347.574
214.565
133.696
86.0029
59.9225
45.5525
37.7178
33.6608
31.952
32.0817
33.9103
38.2749
46.2149
60.4068
86.0399
131.44
214.065
342.421
258.349
259.782
349.133
216.324
133.617
85.9001
59.83
45.2783
37.4763
33.5501
31.9102
32.1036
34.0409
38.1621
45.9727
59.9572
85.5118
133.768
213.058
343.117
258.22
258.961
348.768
214.028
133.022
85.495
59.7411
45.6488
37.7142
33.754
31.9442
32.1136
34.0833
38.5612
46.6495
61.0811
87.1899
134.049
214.807
344.318
258.362
258.229
348.496
215.911
132.663
84.2452
59.5446
45.6684
37.713
33.7806
32.0045
32.1216
34.0384
38.5523
46.6363
61.0251
87.0952
133.921
214.517
344.067
258.533
258.284
348.038
213.808
130.996
84.8026
59.2523
45.6939
37.7583
33.7826
31.8918
32.0412
34.1378
38.5411
46.6085
60.9669
87.0245
133.728
212.923
343.544
258.323
258.707
347.995
214.43
132.025
85.7495
59.9827
45.8002
37.8178
33.822
31.9688
32.1358
34.1179
38.4694
46.5223
60.7927
86.7511
133.667
214.81
342.811
258.145
258.655
347.83
214.161
133.087
85.775
60.0227
45.7931
37.8724
33.8356
32.0567
32.1428
34.0613
38.2108
46.401
60.6404
86.4426
133.217
214.539
344.898
259.605
258.534
347.786
214.232
132.851
85.4659
59.9335
45.5577
37.8552
33.7611
31.9873
32.1141
33.9663
38.2734
46.2912
60.3572
86.0327
132.665
212.415
344.776
260.192
258.339
347.87
214.553
131.681
84.4391
59.7606
45.9083
38.0247
33.9692
32.1601
32.098
34.0864
38.3814
45.9538
59.5899
84.6833
130.973
213.369
345.147
260.434
259.746
347.636
215.73
133.424
85.8203
60.0213
45.9459
38.103
33.9356
32.15
32.1958
34.0055
38.4025
46.244
60.1301
84.9509
131.511
214.392
345.177
261.284
260.117
346.281
213.591
133.078
84.7714
59.4353
45.84
38.0245
33.7801
32.0283
32.1746
34.0949
38.3284
45.8986
59.5061
84.6011
130.743
213.854
343.769
260.915
260.613
347.914
215.658
133.011
85.752
59.9267
45.8225
37.846
33.7733
32.082
32.1437
33.936
38.1429
46.166
59.8218
84.8961
131.007
212.006
344.644
260.67
260.169
346.302
213.572
132.539
85.5205
59.771
45.7352
37.8557
33.7643
32.0497
32.0584
33.9812
38.2127
46.2439
60.222
85.6393
131.955
212.992
344.197
259.251
259.696
346.865
215.585
131.081
84.3857
59.4538
45.5999
37.8518
33.762
31.9682
32.0691
34.0432
38.2921
46.143
59.5572
84.5149
130.341
214.116
342.913
259.567
260.125
346.626
215.357
132.247
85.2118
59.0091
45.5727
37.982
33.8686
32.0592
32.0338
33.9841
38.0729
46.0975
60.2628
86.0234
132.306
213.999
344.034
259.543
259.558
346.432
214.707
130.518
84.2639
59.4086
45.3659
37.964
33.8712
32.0627
32.0186
33.8764
38.1915
45.9427
59.5385
85.6821
130.518
211.827
345.113
260.17
258.917
345.554
212.956
132.372
85.4437
59.1086
45.4314
37.941
33.8454
32.048
32.0186
33.885
37.9907
45.5568
59.5845
85.6172
131.559
213.123
345.218
260.045
258.835
345.769
214.648
132.027
85.1799
59.5558
45.5996
37.9278
33.8181
32.0157
32.0053
33.9421
38.1042
45.6741
59.5261
84.7422
132.302
214.216
344.922
259.691
258.311
345.74
213.099
130.177
83.7493
58.7827
45.1753
37.7066
33.6838
31.9068
31.963
33.8872
37.9876
45.778
59.8447
85.3844
131.893
213.813
344.427
259.566
259.011
346.728
214.99
132.041
84.36
59.1966
45.4086
37.8848
33.8013
31.965
31.9521
33.777
37.9857
45.3562
59.1866
85.0066
130.111
211.695
342.699
258.334
259.965
346.415
214.576
130.611
84.3087
59.5475
45.5862
37.8967
33.7885
31.9297
31.9495
33.7825
37.8814
45.5801
59.6302
84.2477
130.742
213.101
344.015
258.037
260.073
346.025
213.994
131.563
85.0685
59.5518
45.4874
37.8317
33.7561
31.9693
31.988
33.8186
37.8993
45.7134
59.2123
84.3544
131.264
212.494
342.455
257.203
260.197
345.927
211.73
129.49
84.7794
59.3585
45.1251
37.749
33.6965
31.9233
31.8825
33.6931
37.8146
45.5063
59.306
84.3831
130.866
210.78
342.325
256.823
260.157
344.945
213.521
129.947
84.6136
59.25
45.1706
37.605
33.5452
31.8317
31.9603
33.8011
37.8364
45.6927
59.5619
84.7645
129.648
211.346
342.52
256.506
258.851
345.362
212.946
129.65
84.3997
58.7598
45.1893
37.7458
33.5928
31.8651
31.9001
33.7095
37.7889
45.3477
59.3347
84.6595
130.635
212.168
343.531
256.059
258.273
344.589
212.187
130.216
84.2044
59.1129
45.3991
37.7733
33.615
31.914
31.9678
33.7958
37.8916
45.4793
58.6922
84.2566
130.136
211.611
342.094
255.398
257.469
342.561
210.242
129.634
83.8958
58.9709
45.3297
37.7502
33.6768
31.9055
31.9337
33.7387
37.6995
45.4517
58.8117
83.9591
128.544
209.751
343.371
255.509
256.785
342.928
211.066
128.996
83.4752
58.7646
45.2301
37.703
33.6511
31.7981
31.8792
33.6283
37.8148
45.3823
58.974
83.6881
129.268
210.685
342.15
255.281
256.32
343.573
210.517
128.235
83.0657
58.5455
45.0935
37.635
33.6177
31.8042
31.8636
33.6072
37.714
45.2351
58.7347
83.2369
128.661
210.02
343.209
255.797
256.164
343.196
209.704
126.118
82.3315
57.8365
44.7009
37.5328
33.5818
31.8334
31.8361
33.5909
37.4605
44.772
57.9413
82.4538
126.836
207.511
342.582
255.584
256.018
342.643
209.019
126.201
82.3583
57.8789
44.7706
37.4884
33.4892
31.8023
31.7523
33.5649
37.4755
44.7779
57.9824
82.6006
127.452
207.486
341.059
255.203
255.655
340.605
208.107
125.755
82.0006
57.681
44.8178
37.4079
33.5583
31.7521
31.7901
33.4751
37.4711
44.6151
57.6143
82.1321
126.876
206.969
341.735
254.659
255.158
341.414
207.333
124.999
81.0549
57.797
44.7778
37.4887
33.5424
31.7501
31.7293
33.4554
37.427
44.5281
57.3746
80.9607
125.109
207.091
341.223
254.266
254.309
339.472
206.355
124.891
80.9141
57.6273
44.6513
37.3039
33.4264
31.764
31.7492
33.3972
37.251
44.4059
57.1451
80.9911
125.196
204.719
339.391
253.988
253.659
339.634
205.481
124.796
80.5018
57.0747
44.3394
37.2993
33.4713
31.758
31.7278
33.3632
37.2059
44.3196
57.1444
79.783
123.371
205.42
340.18
252.889
252.511
337.191
203.016
123.933
80.3647
57.0985
44.3915
37.1647
33.4382
31.7161
31.6278
33.303
37.113
44.1663
56.9497
79.6899
123.646
203.308
339.427
253.146
252.468
337.438
202.346
122.268
79.8283
56.8186
44.2917
37.1898
33.3677
31.6249
31.6045
33.2583
37.0217
43.9923
56.4046
79.1678
122.862
202.761
338.342
253.377
252.279
336.464
200.834
121.45
78.8072
56.1334
44.1539
37.2531
33.4292
31.6417
31.6026
33.2407
37.0083
43.8054
56.1947
78.6569
121.874
201.395
338.347
253.23
251.932
335.559
199.695
120.372
78.5768
56.092
44.0615
37.2061
33.4101
31.6325
31.5959
33.2143
36.9397
43.6614
55.8579
78.1607
120.945
200.134
337.48
252.711
250.898
334.548
198.337
119.509
77.7257
55.7993
43.7528
37.0176
33.3107
31.6652
31.6353
33.2149
36.7773
43.4511
55.4492
77.4391
119
198.734
336.43
252.083
250.609
334.242
198.16
118.454
77.2812
55.5467
43.6736
37.0556
33.3647
31.6025
31.611
33.1731
36.6985
43.2833
55.1425
76.9718
118.281
197.798
334.558
251.735
249.89
331.888
195.731
117.399
76.6505
55.2335
43.5974
36.996
33.3372
31.6346
31.5092
33.0245
36.525
43.0389
54.7472
76.2248
117
196.938
334.831
250.924
248.807
331.408
194.565
116.378
76.0503
54.8978
43.4473
36.8976
33.1965
31.5747
31.4672
32.9765
36.4342
42.8727
54.3755
75.4179
115.915
194.141
332.161
250.593
248.445
329.881
192.556
115.169
75.2557
54.4547
43.1251
36.6906
33.1312
31.5204
31.3856
32.8716
36.3039
42.6529
54.0027
74.8406
114.787
192.939
331.272
249.796
247.504
328.449
190.208
113.503
74.3841
54.0956
42.9092
36.5784
33.0283
31.392
31.3234
32.8379
36.1902
42.4296
53.5565
74.0456
113.576
190.852
329.756
249.019
246.755
326.138
188.561
112.378
73.7163
53.6673
42.6998
36.4361
32.9175
31.2846
31.2397
32.7089
36.0572
42.2289
53.2152
73.3529
112.261
189.077
328.085
248.079
245.814
324.742
186.174
110.691
72.7795
53.2293
42.4229
36.2404
32.7867
31.1793
31.1255
32.5749
35.9027
41.9808
52.7662
72.5695
110.88
187.038
326.17
247.17
244.653
323.068
184.578
109.647
72.1571
52.8259
42.2089
36.0972
32.6507
31.0374
30.9691
32.4362
35.74
41.7547
52.3721
71.8288
109.485
185.047
324.708
245.951
243.51
321.535
182.492
108.09
71.3349
52.3948
41.9297
35.8861
32.4563
30.8855
30.8317
32.2822
35.5684
41.5051
51.942
71.0494
108.15
183.073
322.943
244.652
242.764
319.993
180.474
106.718
70.4917
51.9266
41.66
35.6969
32.321
30.7501
30.6903
32.1311
35.3763
41.2298
51.4868
70.2037
106.589
180.659
320.561
243.175
241.475
318.133
178.22
105.083
69.5909
51.4048
41.3398
35.4821
32.1424
30.5853
30.5212
31.9443
35.1539
40.9324
51.0251
69.3719
105.051
178.357
318.422
242.199
240.15
316.27
175.979
103.523
68.7335
50.8888
40.9964
35.2331
31.9441
30.4071
30.3481
31.7682
34.957
40.655
50.5533
68.5006
103.499
176.042
316.256
240.622
238.21
314.106
173.372
101.938
67.8362
50.3534
40.6314
34.9647
31.7307
30.2233
30.1757
31.583
34.7252
40.3239
50.0167
67.5445
101.792
173.45
313.621
238.928
236.244
311.918
170.505
100.028
66.7548
49.6995
40.204
34.6594
31.4908
30.0157
29.9726
31.365
34.465
39.9619
49.4348
66.5141
99.9855
170.744
311.113
237.533
234.055
308.937
167.378
98.0002
65.5892
49.0326
39.7883
34.3539
31.2388
29.7915
29.7556
31.13
34.1745
39.5588
48.8123
65.4371
98.0103
167.52
308.053
235.493
231.291
305.386
163.835
95.7994
64.3479
48.2978
39.3034
33.999
30.9498
29.5272
29.489
30.8376
33.8251
39.0875
48.0825
64.1948
95.7675
163.842
304.461
232.792
228.1
300.893
159.773
93.355
63.0095
47.4978
38.7592
33.5882
30.608
29.2154
29.1782
30.4986
33.4179
38.5412
47.2581
62.8125
93.2671
159.654
299.886
229.666
223.881
295.316
155.16
90.6605
61.4966
46.5652
38.1193
33.106
30.209
28.8517
28.8131
30.0976
32.9404
37.9208
46.3511
61.3065
90.5257
154.926
294.209
224.79
219.427
288.62
149.94
87.7108
59.8684
45.559
37.4221
32.5628
29.7435
28.4231
28.3869
29.6373
32.3969
37.2149
45.3225
59.6078
87.4186
149.38
287.09
219.656
213.647
280.305
144.056
84.472
58.0551
44.4315
36.6133
31.9168
29.1907
27.9156
27.8839
29.0975
31.7691
36.4198
44.1959
57.7727
84.0496
143.177
278.301
212.484
206.832
270.422
137.605
81.0035
56.14
43.2026
35.7119
31.1874
28.5517
27.3203
27.2911
28.464
31.0418
35.5172
42.9488
55.7742
80.3967
136.349
267.672
204.596
199.703
259.005
130.749
77.3766
54.0738
41.8499
34.6817
30.3406
27.8129
26.6308
26.6068
27.7425
30.2285
34.5286
41.6096
53.6823
76.6762
129.236
255.794
196.506
192.471
246.058
123.512
73.6422
51.8997
40.3771
33.5603
29.4005
26.9746
25.8456
25.8302
26.929
29.324
33.45
40.1928
51.5544
72.9326
121.857
242.578
188.199
185.14
232.07
116.263
69.9911
49.6706
38.8016
32.3285
28.357
26.0383
24.9628
24.9559
26.0223
28.3328
32.2933
38.713
49.4116
69.3253
114.758
229.146
181.82
178.878
217.176
108.923
66.3518
47.4251
37.1577
31.0001
27.2161
25.0126
23.9958
23.9977
25.0245
27.2449
31.0565
37.2257
47.4003
65.9898
107.985
215.37
176.957
174.261
202.229
101.816
62.8225
45.2007
35.4901
29.6248
26.0212
23.9242
22.9593
22.9684
23.9574
26.0908
29.7535
35.6776
45.3901
62.8569
101.621
201.97
175.072
173.986
188.761
95.6264
59.6061
43.021
33.7918
28.2121
24.7871
22.8009
21.8912
21.9043
22.8481
24.8846
28.3968
34.1125
43.4631
60.0141
95.905
189.324
175.304
176.548
177.092
90.2083
56.7322
40.9934
32.1565
26.8218
23.5675
21.6881
20.8293
20.8442
21.7375
23.673
27.0226
32.4982
41.4905
57.3129
90.7944
177.982
178.49
182.97
167.348
85.445
54.1384
39.0956
30.6109
25.5088
22.4107
20.6283
19.817
19.8314
20.6758
22.5086
25.691
30.9372
39.6226
54.835
86.1384
168.287
184.042
190.54
159.084
81.5993
52.0171
37.4551
29.2317
24.3148
21.3506
19.6576
18.8885
18.8996
19.6931
21.4219
24.4393
29.4489
37.8188
52.5601
82.2874
159.951
191.023
200.339
152.198
78.76
50.1826
35.9518
27.963
23.2349
20.4065
18.7973
18.0671
18.0752
18.8221
20.4544
23.3156
28.105
36.2043
50.6131
79.3732
153.017
201.884
213.307
146.926
76.7861
48.6922
34.6465
26.8429
22.2797
19.5777
18.0502
17.3586
17.3635
18.0646
19.6048
22.3215
26.8973
34.7115
48.7693
76.8527
146.837
212.684
227.191
142.79
75.045
47.2342
33.3757
25.7835
21.4048
18.8405
17.4035
16.7563
16.7592
17.4122
18.8574
21.4344
25.8316
33.4477
47.3294
75.1763
143.118
228.084
245.941
140.574
73.8168
45.8885
32.1418
24.7604
20.5808
18.1706
16.8367
16.2404
16.2411
16.8387
18.1742
20.5887
24.7765
32.1724
45.9365
73.8721
140.821
245.278
266.466
139.341
72.3894
44.2705
30.7478
23.6669
19.7475
17.5318
16.3253
15.7918
15.7917
16.3253
17.5312
19.7467
23.6673
30.7593
44.3142
72.5017
139.49
266.386
289.619
138.886
70.7703
42.3784
29.1689
22.4804
18.8884
16.9118
15.8599
15.4021
15.4016
15.8587
16.9091
18.8853
22.4782
29.1719
42.397
70.8183
138.985
290.089
316.318
138.769
68.4221
39.9143
27.2803
21.1546
17.9891
16.309
15.4433
15.0754
15.0753
15.443
16.3083
17.9881
21.1537
27.2811
39.9216
68.4444
138.773
315.771
343.451
138.182
64.8543
36.7626
25.0884
19.7243
17.0863
15.7542
15.0985
14.8308
14.8308
15.0984
15.754
17.0865
19.7264
25.0969
36.7938
64.9515
138.404
343.961
373.077
135.866
59.5841
32.8178
22.6102
18.2342
16.2242
15.2842
14.8663
14.7148
14.7149
14.8664
15.2843
16.2237
18.2328
22.6066
32.8126
59.5799
135.842
372.715
402.491
128.13
51.2738
27.8569
19.8825
16.7553
15.4637
14.9465
14.7502
14.676
14.6761
14.7508
14.9474
15.4642
16.7568
19.8861
27.8695
51.3124
128.254
402.745
432.372
107.418
38.6559
22.0062
17.1398
15.5616
15.0148
14.8211
14.733
14.7015
14.7015
14.733
14.8205
15.0136
15.5623
17.1414
22.005
38.6576
107.446
432.487
466.568
57.4366
21.657
16.1836
15.1265
14.887
14.833
14.8024
14.796
14.7961
14.7961
14.7959
14.8022
14.8323
14.8847
15.123
16.1831
21.6577
57.4393
466.547
694.82
1008.25
610.03
345.824
197.058
121.038
81.5678
60.616
49.8433
45.2037
45.1098
49.5641
60.0514
80.7618
121.145
200.88
350.147
610.656
1009.29
694.893
688.021
994.079
596.642
336.307
191.437
120.235
81.288
60.385
49.6294
44.9938
44.8895
49.3272
59.1641
79.132
118.933
199.076
346.986
596.324
997.98
689.137
691.07
1002.12
608.278
343.758
194.363
120.115
81.1778
60.207
49.4522
44.8211
44.7079
49.2661
60.0367
80.222
119.52
194.29
339.746
602.664
1012.19
693.027
692.201
1007.37
619.047
350.241
195.994
118.15
80.1574
59.3161
48.6919
44.1238
43.9525
49.0031
59.9377
81.2401
121.44
199.688
349.323
607.457
1010.29
690.9
684.608
991.582
617.113
348.103
190.162
120.157
81.8166
60.0477
49.0075
44.567
44.1086
48.3976
58.9971
80.9689
120.878
195.018
340.443
597.699
1006.21
685.865
690.399
1004.94
615.35
345.695
195.455
119.107
81.9426
60.7142
49.1813
45.0706
44.2337
49.1904
59.7788
80.763
120.459
199.602
348.657
600.142
994.914
683.953
694.027
992.035
613.878
336.698
199.246
122.626
82.0503
60.7044
49.3583
45.2338
44.4438
49.0648
59.5114
80.416
119.34
198.126
346.424
613.795
1008.19
684.063
693.811
1004.28
612.293
345.643
196.325
122.322
81.8062
60.5643
49.8923
45.3156
44.8896
48.9408
58.4865
79.9963
117.919
193.301
335.952
609.261
996.831
682.999
693.201
993.248
608.607
335.806
201.488
122.239
81.5939
59.8631
49.7804
45.25
44.828
48.7724
58.679
79.8379
115.155
197.905
337.954
605.458
1005.52
681.456
686.644
1009.89
597.892
341.875
201.933
122.052
80.6736
60.7417
49.3549
45.1507
44.632
48.1549
58.5206
79.8148
117.584
197.931
336.673
591.86
1012.65
674.146
692.207
1008.29
607.061
349.421
201.585
121.05
81.4907
60.7308
49.9711
45.2112
44.293
48.681
58.5764
79.6035
119.494
195.505
340.087
596.029
1012.1
673.976
687.862
1006.19
617.57
344.311
200.679
119.363
81.1487
60.4518
49.8921
45.1906
44.7245
48.162
58.5763
78.0488
118.324
200.277
347.5
600.495
1010.43
673.958
695.185
994.708
616.799
355.059
199.817
121.028
80.8034
59.549
49.6322
45.1332
44.7435
48.5694
59.2282
79.1914
119.584
199.381
346.304
617.186
1010.33
676.194
695.478
1008.06
613.981
353.656
194.891
118.551
80.0745
59.6689
49.2408
44.9862
44.6244
49.0154
58.7073
80.0675
117.148
197.972
341.651
615.2
1008.47
682.854
698.335
1023.21
603.844
352.049
200.286
121.272
80.1275
59.8463
49.265
44.9273
44.0699
48.9013
59.5147
80.0468
119.666
196.367
328.495
612.072
996.52
683.818
706.429
1024.8
617.717
349.482
195.781
119.122
81.2485
60.3349
49.5442
44.8898
44.665
48.9186
58.6376
78.4397
117.018
193.32
338.765
610.898
1011.05
684.028
705.365
1023.71
603.524
340.416
199.73
121.469
81.1862
60.1698
49.3588
44.7095
44.1072
48.3097
58.7609
78.8666
117.644
195.813
343.731
606.356
998.706
678.679
703.543
1024.41
611.427
342.207
199.24
120.936
80.8821
59.3626
48.5988
44.1969
44.4617
48.4024
58.8023
78.9448
116.66
190.649
333.476
591.83
1001.4
686.653
703.185
1023.95
593.507
339.642
198.142
120.193
80.4993
59.9493
48.8524
44.5314
44.449
48.3382
59.1313
79.9213
117.04
192.846
341.738
603.196
999.429
684.476
695.824
1024.78
606.407
340.068
197.209
119.254
80.0877
59.8307
48.9158
44.0926
44.2891
48.3816
58.7138
79.9048
117.815
192.592
348.093
590.393
996.47
682.416
695.418
1023.09
612.885
338.968
195.659
116.548
79.5477
59.6529
49.4501
44.7488
43.9893
48.7852
59.2425
79.6785
119.801
193.893
348.316
597.361
999.97
676.348
694.824
1022.11
599.813
340.605
194.544
117.814
78.6021
58.8981
49.3954
44.765
44.6216
48.7181
58.9363
78.1544
119.618
196.84
347.289
606.104
1006.79
680.122
693.045
1020.06
607.45
347.199
190.522
118.942
80.0887
59.8265
49.4004
44.6177
44.5296
48.5098
58.2847
79.3614
118.857
195.277
344.333
594.165
995.844
683.46
687.053
1017.56
616.426
346.624
191.013
118.71
79.6618
59.1528
49.3137
44.1289
44.424
47.9487
58.9465
78.0918
118.049
190.263
337.425
606.932
1010.55
681.845
686.339
1014.17
614.088
344.703
189.966
118.157
78.4513
59.6817
49.3019
44.646
44.399
48.649
58.9999
79.0123
116.385
194.114
344.017
602.621
999.827
687.318
684.634
1000.92
610.448
342.968
189.543
117.833
79.6531
59.6456
49.1433
44.1032
43.7105
48.3645
58.1522
78.01
118.94
189.833
342.891
585.668
1013.17
685.502
679.394
1003.41
608.657
340.787
189.212
115.932
78.4114
58.8883
48.6193
44.4419
43.8816
47.9958
58.9889
79.4066
119.112
195.358
341.339
601.093
1012.63
684.889
683.88
999.407
599.081
333.432
190.617
117.722
79.189
59.5287
49.0659
44.4107
43.8777
48.5082
58.8297
78.0152
118.303
193.81
332.122
607.873
1009.35
678.758
686.582
998.322
609.592
344.679
193.956
117.372
78.1272
59.364
48.9019
44.2148
43.8952
47.8833
58.5434
78.8638
117.75
193.139
334.105
603.558
995.838
682.512
684.567
995.105
607.394
342.918
192.615
114.891
78.6069
58.9227
48.2701
43.6201
43.2867
48.1522
57.9405
78.3736
115.331
188.997
333.534
591.446
1009.37
680.365
681.929
995.444
604.383
340.489
187.38
116.377
79.5803
59.5755
48.774
44.2928
43.7168
47.7912
58.2032
77.3357
117.341
192.57
338.897
592.056
996.922
677.915
678.695
999.812
601.226
337.309
188.209
114.624
79.4453
59.4044
49.1316
44.0319
44.156
48.5517
59.0083
77.9779
116.805
191.019
337.576
590.876
1003.02
671.682
685.262
983.55
588.68
328.836
187.854
117.207
79.4164
58.8955
49.0684
44.6884
44.7193
49.0614
58.5747
78.6574
115.969
185.674
331.114
594.82
1008.55
675.351
684.374
997.667
592.31
330.517
189.747
116.784
79.1781
58.7805
48.753
44.5137
44.2587
48.6535
59.2941
77.8208
114.447
187.438
340.657
604.8
1004.85
669.588
681.808
1003.87
587.941
327.676
188.443
116.012
78.8092
59.1096
48.6822
44.1958
44.7279
49.1099
59.3539
79.4374
116.954
187.158
339.617
604.045
992.613
675.556
678.181
990.774
585.359
325.729
183.98
113.545
77.5622
58.4512
49.051
44.7411
44.6735
48.9436
58.4886
79.106
116.493
187.352
337.826
602.452
995.258
675.172
676.348
999.794
582.041
323.604
184.726
113.851
77.8656
59.1637
48.9754
44.567
44.4344
48.4401
58.6489
78.7308
116.015
189.824
336.437
601.491
993.345
669.122
676.786
996.91
579.655
321.697
185.377
113.273
77.588
58.9847
48.3457
44.3541
43.9467
48.7467
58.8107
78.2598
114.928
188.236
334.018
599.427
999.923
674.232
672.925
992.637
577.049
320.234
182.03
113.366
77.736
58.9329
48.3649
43.9327
44.2448
48.6067
58.0712
77.7804
112.411
182.857
331.311
597.475
1011.93
671.025
675.807
979.051
577.845
320.65
185.421
114.203
78.0853
58.7581
48.1918
43.8218
43.6958
48.4293
58.4403
76.9808
114.144
183.95
328.038
584.684
1011.43
678.157
675.257
991.434
583.531
323.055
184.39
112.239
77.665
58.531
48.2244
43.7634
43.6556
48.2082
57.8078
76.7983
113.419
184.106
325.574
594.579
1000.37
680.395
673.763
979.533
580.116
320.445
183.179
113.439
76.7639
57.7962
47.7576
43.8635
43.4995
47.6798
57.8703
76.4334
111.258
181.934
315.438
592.172
1012.3
678.124
671.918
987.871
577.214
312.352
178.808
111.493
76.6055
58.0843
48.1122
43.7749
43.6149
47.7887
57.2874
76.3542
112.249
177.904
321.663
581.268
1009.29
676.968
669.912
984.121
573.312
312.328
178.849
111.864
76.31
57.842
47.4649
43.5014
43.0304
47.2155
57.4782
76.2926
111.588
178.167
322.58
590.844
998.026
671.819
665.88
970.204
562.357
309.034
177.593
111.193
75.9323
57.2031
47.6768
43.3804
43.3227
47.428
56.7343
75.7442
110.822
176.726
319.29
588.162
1008.88
672.284
670.017
979.659
570.372
307.624
177.488
109.391
75.3521
56.9304
47.015
43.036
42.6795
46.7729
56.4241
74.496
108.967
175.865
310.549
583.352
996.829
670.635
669.065
988.394
567.642
305.132
176.108
108.907
74.8874
56.5899
46.8889
42.8402
42.5961
46.7467
56.2325
74.2172
108.701
176.639
312.974
579.974
1013.33
669.406
665.358
985.479
562.592
302.296
174.624
107.914
74.3936
56.2036
46.3264
42.1925
42.4192
46.2992
55.71
73.4291
108.119
174.561
309.215
574.485
1010.21
666.67
663.589
981.512
558.23
300.672
173.374
107.547
73.9166
55.8756
46.0834
42.1405
41.8724
46.1165
55.3745
72.9212
106.092
169.81
299.554
568.443
1007.06
662.075
661.413
977.538
552.921
300.113
171.839
107.346
73.7174
55.6213
45.7204
41.8474
41.7003
45.6855
54.8086
72.3831
105.401
168.751
298.473
562.175
1002.27
661.187
658.833
971.965
547.85
296.892
170.13
105.939
72.9768
54.8899
45.3334
41.1218
41.1612
45.0826
54.3284
71.8604
104.372
168.044
296.647
546.225
988.383
659.049
654.001
965.901
541.944
289.234
166.385
105.287
72.4606
54.4761
44.9507
40.8662
40.7119
44.7126
53.8888
71.2241
103.325
165.975
289.417
552.955
1000.84
657.783
652.603
959.848
537.255
287.317
164.856
104.271
71.8956
54.0086
44.5658
40.4798
40.3295
44.234
53.3875
70.594
102.15
162.961
287.657
538.314
987.624
653.565
649.582
953.201
525.198
282.588
162.842
103.161
71.3127
53.6545
44.2103
40.0859
39.8678
43.7283
52.8309
69.9104
101.205
161.407
285.062
536.385
989.454
652.003
647.732
937.864
522.121
279.717
161.079
102.455
70.8553
53.2117
43.7467
39.5473
39.3301
43.1824
52.2374
69.1841
100.088
158.997
281.167
537.72
988.045
648.469
645.387
944.768
518.812
276.142
159.439
101.497
70.3138
52.7393
43.2515
38.9602
38.7635
42.6067
51.6276
68.5106
99.1732
156.504
273.191
531.726
991.009
644.865
644.425
950.623
514.059
272.752
157.48
100.517
69.6493
52.262
42.7989
38.5145
38.2508
42.0654
51.0074
67.8399
98.1462
154.732
269.835
517.234
983.973
639.276
643.033
950.504
508.035
269.397
156.211
99.7837
69.0424
51.728
42.3161
38.0662
37.8267
41.5976
50.4918
67.1255
96.9967
152.331
265.04
512.863
966.749
632.343
641.826
944.712
501.493
264.659
154.403
98.7476
68.2581
51.1171
41.7975
37.5703
37.3134
41.0597
49.8959
66.4756
96.153
150.903
261.072
502.197
962.346
625.738
639.676
928.423
495.32
261.779
152.99
97.9489
67.6538
50.5433
41.3065
37.1463
36.8988
40.5868
49.3302
65.7461
95.1327
148.858
256.75
494.591
950.888
617.638
638.005
931.299
487.2
258.517
151.462
96.9796
66.901
49.9254
40.7598
36.6542
36.4217
40.0647
48.7307
65.0205
94.147
147.267
252.697
484.89
942.48
612.407
633.467
923.216
481.307
254.933
149.829
96.0213
66.2026
49.394
40.295
36.2201
35.9696
39.5588
48.101
64.2515
93.135
145.483
248.781
474.535
929.832
605.742
628.623
903.789
471.152
250.695
148.008
94.9887
65.4561
48.772
39.7672
35.726
35.466
39.0018
47.4459
63.3867
91.9054
143.432
244.686
468.086
927.975
599.604
620.683
899.156
464.369
247.2
146.249
93.8997
64.6679
48.1423
39.2022
35.1998
34.9498
38.4517
46.7881
62.5109
90.6173
141.281
240.372
459.636
915.464
593.62
617.113
882.714
453.013
242.954
144.24
92.6537
63.7695
47.4448
38.6164
34.6595
34.4265
37.8813
46.0844
61.5803
89.262
139.015
236.073
451.407
904.62
587.85
611.393
875.772
446.602
238.987
141.996
91.2141
62.7526
46.6754
37.9956
34.1262
33.9184
37.3305
45.3789
60.5641
87.7489
136.62
231.518
443.246
895.907
583.3
607.344
867.03
438.262
234.446
139.5
89.5928
61.5992
45.8379
37.3578
33.5835
33.4108
36.7755
44.6809
59.6175
86.3853
134.286
226.859
434.603
883.277
578.882
600.223
854.933
429.452
229.246
136.573
87.7332
60.323
44.9386
36.6936
33.0492
32.9156
36.2499
44.0174
58.6707
84.9668
132.065
222.678
426.01
871.696
576.953
593.651
842.57
420.432
224.142
133.572
85.7765
58.969
43.9844
35.9885
32.4765
32.3955
35.6918
43.2754
57.5909
83.3814
129.723
218.516
417.765
859.685
568.92
591.324
829.34
410.654
218.285
130.097
83.6043
57.5599
43.0191
35.2755
31.8939
31.8557
35.1205
42.5383
56.5431
81.8246
127.277
213.75
408
846.376
561.524
587.243
820.452
401.11
212.328
126.546
81.3043
56.0276
41.9693
34.5003
31.2498
31.2314
34.4141
41.6671
55.3561
80.0769
124.437
208.488
397.976
833.387
554.693
577.947
806.601
388.682
205.476
122.61
78.9052
54.5118
40.9222
33.7036
30.5709
30.5626
33.6514
40.7525
54.1037
78.1878
121.356
202.752
387.227
819.77
545.547
563.633
790.604
375.788
198.196
118.439
76.2753
52.7933
39.7497
32.8303
29.837
29.852
32.8603
39.7429
52.7067
76.0991
117.885
196.325
374.51
802.01
535.765
542.028
771.246
360.532
189.818
113.699
73.4458
50.9893
38.5263
31.9197
29.0604
29.0796
31.9816
38.6356
51.1511
73.7376
114.154
189.697
361.728
782.185
518.954
525.65
748.251
344.023
180.964
108.503
70.2769
49.0186
37.2184
30.9511
28.2334
28.2537
31.0287
37.4223
49.4877
71.2551
110.169
182.498
346.91
757.473
496.445
502.14
720
325.529
171.579
103.184
66.9943
46.9421
35.8355
29.9292
27.3708
27.4067
30.0595
36.1467
47.6679
68.5326
105.864
174.764
331.398
730.453
476.646
480.953
688.84
306.234
161.528
97.3368
63.4408
44.7341
34.382
28.8641
26.4696
26.5087
29.0203
34.7878
45.7032
65.5047
101.059
166.533
314.515
699.479
455.063
455.225
653.844
286.363
151.281
91.3611
59.8305
42.4722
32.8772
27.7686
25.5558
25.6097
27.972
33.3847
43.6375
62.2699
95.9388
158.112
297.289
665.49
436.213
434.634
616.977
267.123
140.717
84.9802
55.9792
40.0892
31.3052
26.6182
24.5886
24.6526
26.8525
31.8636
41.3396
58.6274
90.1541
148.785
278.576
627.651
418.634
411.802
574.575
247.167
130.158
78.5683
52.0743
37.6784
29.6989
25.4292
23.5854
23.6582
25.6849
30.2762
38.9539
54.8136
83.8826
138.685
259.175
585.629
400.356
388.528
528.266
226.737
119.405
72.2036
48.1981
35.2273
28.0417
24.1897
22.5286
22.6028
24.4444
28.588
36.3856
50.6605
77.031
127.601
237.921
538.634
378.262
362.467
477.477
204.694
108.248
65.7475
44.3273
32.7674
26.3577
22.9304
21.4583
21.537
23.1956
26.9043
33.8293
46.425
69.7893
115.206
214.854
487.559
355.057
335.695
423.892
182.031
96.9334
59.2753
40.369
30.2496
24.6573
21.6622
20.375
20.4498
21.9154
25.1815
31.2515
42.2715
62.7137
102.536
190.638
432.869
328.519
312.016
371.464
159.345
85.4527
52.9671
36.6695
27.9098
23.0528
20.4509
19.3343
19.4023
20.679
23.5234
28.7855
38.2845
55.904
90.3183
167.107
381.244
306.014
294.88
323.296
138.995
75.2269
47.2661
33.245
25.7081
21.5373
19.3065
18.3497
18.4073
19.4981
21.9284
26.4286
34.5276
49.5333
79.2174
145.557
333.159
297.088
290.091
281.194
120.716
66.0195
42.2167
30.2326
23.7711
20.1992
18.2924
17.4742
17.5192
18.4405
20.5014
24.324
31.2165
43.9297
68.9644