/*--------------------------------*- C++ -*----------------------------------*\
  =========                 |
  \\      /  F ield         | OpenFOAM: The Open Source CFD Toolbox
   \\    /   O peration     | Website:  https://openfoam.org
    \\  /    A nd           | Version:  6
     \\/     M anipulation  |
\*---------------------------------------------------------------------------*/
FoamFile
{
    version     2.0;
    format      ascii;
    class       volScalarField;
    location    "18";
    object      epsilon;
}
// * * * * * * * * * * * * * * * * * * * * * * * * * * * * * * * * * * * * * //

dimensions      [0 2 -3 0 0 0 0];

internalField   nonuniform List<scalar> 
130000
(
14.9821
14.7715
14.5421
14.2995
14.0453
13.7825
13.5148
13.2466
12.9827
12.7274
12.485
12.259
12.0523
11.8668
11.7037
11.5634
11.4456
11.3496
11.2746
11.2192
15.0068
14.7971
14.5682
14.3253
14.0704
13.8064
13.5373
13.2677
13.0021
12.7455
12.5017
12.2746
12.0668
11.8804
11.7166
11.5757
11.4578
11.362
11.2872
11.2321
15.0284
14.8196
14.5909
14.3478
14.092
13.8269
13.5564
13.285
13.0177
12.759
12.5133
12.2844
12.075
11.8871
11.722
11.5805
11.4624
11.367
11.2931
11.239
15.0455
14.8372
14.6086
14.3649
14.1082
13.8416
13.5691
13.2956
13.0261
12.7651
12.5176
12.2872
12.0767
11.8879
11.7221
11.5803
11.4622
11.367
11.2939
11.2405
15.0573
14.8489
14.6198
14.3751
14.1168
13.848
13.5737
13.2985
13.0274
12.7651
12.5166
12.2854
12.0744
11.8856
11.7201
11.5784
11.4603
11.3651
11.2917
11.2387
15.0645
14.8552
14.625
14.3786
14.1185
13.8481
13.5724
13.2962
13.0245
12.762
12.5132
12.2819
12.0708
11.882
11.7167
11.5753
11.4575
11.3626
11.2894
11.2366
15.0686
14.8577
14.6257
14.3776
14.1163
13.8452
13.5687
13.2918
13.0195
12.7567
12.5079
12.2765
12.0657
11.8772
11.7123
11.5713
11.454
11.3595
11.2867
11.2343
15.0712
14.8585
14.6246
14.3753
14.1127
13.8406
13.5632
13.2856
13.0129
12.7499
12.501
12.2699
12.0594
11.8714
11.707
11.5666
11.4499
11.356
11.2838
11.2319
15.0734
14.8588
14.6233
14.3723
14.1083
13.8349
13.5565
13.2782
13.0051
12.7419
12.4932
12.2623
12.0523
11.8649
11.7012
11.5615
11.4455
11.3523
11.2808
11.2295
15.0759
14.8594
14.622
14.3692
14.1035
13.8287
13.5493
13.2703
12.9967
12.7334
12.4847
12.2543
12.0447
11.858
11.6951
11.5562
11.441
11.3486
11.2778
11.2272
15.0787
14.8603
14.6212
14.3662
14.0988
13.8225
13.5419
13.2621
12.988
12.7246
12.4761
12.246
12.037
11.851
11.6889
11.5509
11.4365
11.345
11.2751
11.2255
15.0821
14.8616
14.6204
14.3635
14.0943
13.8165
13.5347
13.254
12.9795
12.7158
12.4674
12.2377
12.0293
11.8441
11.6828
11.5456
11.4322
11.3416
11.2726
11.2239
15.0861
14.8634
14.6198
14.3612
14.0903
13.8109
13.5279
13.2463
12.9712
12.7073
12.459
12.2297
12.0218
11.8373
11.6768
11.5406
11.4281
11.3383
11.2701
11.222
15.0908
14.866
14.6204
14.3599
14.087
13.806
13.5216
13.239
12.9633
12.6992
12.4509
12.2219
12.0146
11.8308
11.6711
11.5358
11.4241
11.3352
11.2677
11.2202
15.0963
14.8695
14.6219
14.3596
14.0848
13.8019
13.516
13.2324
12.9559
12.6915
12.4433
12.2145
12.0078
11.8246
11.6658
11.5312
11.4204
11.3323
11.2655
11.2184
15.1026
14.8738
14.6241
14.3597
14.0832
13.7985
13.5111
13.2263
12.9492
12.6844
12.4361
12.2076
12.0013
11.8188
11.6607
11.5271
11.4171
11.3299
11.2638
11.2171
15.11
14.8791
14.627
14.3603
14.082
13.7956
13.5069
13.221
12.943
12.6778
12.4294
12.2011
11.9952
11.8134
11.6561
11.5233
11.4143
11.328
11.263
11.2172
15.1185
14.8855
14.6312
14.3621
14.0816
13.7938
13.5035
13.2164
12.9376
12.6718
12.4232
12.1951
11.9896
11.8083
11.6517
11.5198
11.4116
11.3262
11.2623
11.2168
15.1283
14.8932
14.6365
14.3652
14.0826
13.7933
13.5014
13.2128
12.9329
12.6665
12.4177
12.1896
11.9845
11.8037
11.6478
11.5166
11.4093
11.3246
11.2611
11.2161
15.1393
14.9021
14.6431
14.3694
14.0846
13.7934
13.5001
13.2099
12.9289
12.6619
12.4127
12.1846
11.9798
11.7995
11.6443
11.5138
11.4074
11.3236
11.261
11.2173
15.1516
14.9122
14.6509
14.3747
14.0875
13.7938
13.499
13.2076
12.9256
12.6579
12.4084
12.1803
11.9757
11.7958
11.6412
11.5115
11.4059
11.323
11.2608
11.2174
15.1651
14.9237
14.6599
14.3812
14.0915
13.7956
13.4987
13.2063
12.9233
12.6548
12.4048
12.1766
11.9721
11.7926
11.6385
11.5094
11.4045
11.3219
11.2595
11.2166
15.18
14.9364
14.6701
14.3889
14.0967
13.7985
13.4998
13.2062
12.9221
12.6526
12.402
12.1735
11.9691
11.79
11.6364
11.5078
11.4033
11.3212
11.2595
11.2165
15.1962
14.9505
14.6817
14.3978
14.103
13.8024
13.5016
13.2064
12.9212
12.6508
12.3997
12.171
11.9667
11.788
11.635
11.5072
11.4032
11.3213
11.2594
11.216
15.2138
14.9659
14.6947
14.408
14.1105
13.8074
13.5042
13.2068
12.9203
12.6494
12.398
12.1691
11.9648
11.7862
11.6336
11.5064
11.4031
11.3214
11.2604
11.2182
15.2328
14.9828
14.709
14.4196
14.1192
13.8135
13.5081
13.2088
12.921
12.6494
12.3972
12.1679
11.9634
11.7847
11.6321
11.5048
11.402
11.3212
11.2611
11.2201
15.2533
15.0012
14.7247
14.4324
14.1292
13.8207
13.5129
13.2115
12.9222
12.6497
12.3971
12.1674
11.9624
11.7835
11.6307
11.5033
11.4001
11.3196
11.26
11.2197
15.2754
15.0211
14.7419
14.4467
14.1405
13.8291
13.5187
13.2151
12.9239
12.6499
12.3969
12.167
11.9617
11.7827
11.6298
11.5025
11.3995
11.3192
11.26
11.2194
15.299
15.0426
14.7607
14.4624
14.1531
13.8388
13.5256
13.2197
12.9265
12.6509
12.3966
12.1664
11.9614
11.7825
11.6298
11.5027
11.3999
11.3197
11.2603
11.2196
15.3242
15.0658
14.7811
14.4797
14.1672
13.8498
13.5338
13.2253
12.9301
12.6528
12.3972
12.166
11.9609
11.782
11.6294
11.5025
11.3998
11.3198
11.2606
11.2203
15.3512
15.0907
14.8033
14.4988
14.183
13.8623
13.5433
13.2322
12.9347
12.6556
12.3986
12.1666
11.961
11.7818
11.6292
11.5023
11.3998
11.3199
11.2616
11.2213
15.3801
15.1177
14.8275
14.5197
14.2005
13.8764
13.5542
13.2403
12.9404
12.6593
12.4009
12.1678
11.9619
11.7822
11.6293
11.5024
11.4
11.3203
11.2616
11.2215
15.4111
15.1468
14.8538
14.5427
14.2199
13.8924
13.5669
13.25
12.9474
12.6641
12.4038
12.1692
11.9621
11.7819
11.6289
11.502
11.3995
11.3205
11.2619
11.2225
15.4444
15.1783
14.8825
14.5681
14.2417
13.9105
13.5815
13.2615
12.9561
12.6704
12.4081
12.1717
11.963
11.7825
11.6291
11.502
11.3998
11.3206
11.2624
11.2228
15.4802
15.2124
14.9139
14.596
14.2659
13.9309
13.5984
13.2751
12.9668
12.6786
12.4142
12.1761
11.9658
11.7838
11.6296
11.5021
11.4001
11.3208
11.2624
11.2229
15.5188
15.2495
14.9482
14.6268
14.2929
13.954
13.6178
13.2911
12.9798
12.689
12.4224
12.1826
11.9709
11.7877
11.6325
11.5042
11.4011
11.3213
11.2629
11.2231
15.5606
15.2898
14.9858
14.6609
14.323
13.9801
13.64
13.3097
12.9954
12.7019
12.433
12.1913
11.9782
11.7938
11.6377
11.5086
11.4048
11.3244
11.265
11.2247
15.6057
15.3336
15.027
14.6984
14.3565
14.0095
13.6654
13.3314
13.0137
12.7174
12.4462
12.2026
11.9879
11.8023
11.6453
11.5155
11.4111
11.3302
11.2704
11.2296
15.6545
15.3814
15.0721
14.7399
14.3938
14.0425
13.6942
13.3563
13.0352
12.7359
12.4622
12.2165
12.0002
11.8133
11.6553
11.5247
11.4196
11.3381
11.2778
11.2366
15.7076
15.4336
15.1217
14.7858
14.4354
14.0796
13.7269
13.3849
13.0601
12.7576
12.4812
12.2334
12.0152
11.827
11.6678
11.5362
11.4304
11.3482
11.2873
11.2454
15.7652
15.4906
15.1761
14.8365
14.4817
14.1212
13.7639
13.4176
13.0889
12.783
12.5038
12.2535
12.0334
11.8435
11.6831
11.5505
11.4438
11.3607
11.299
11.2564
15.8279
15.5529
15.236
14.8926
14.5332
14.1678
13.8057
13.4549
13.122
12.8125
12.5302
12.2773
12.0551
11.8635
11.7016
11.5678
11.46
11.376
11.3135
11.2699
15.8963
15.6212
15.302
14.9546
14.5905
14.2201
13.8528
13.4972
13.16
12.8466
12.5609
12.3053
12.0807
11.8872
11.7237
11.5885
11.4796
11.3945
11.3309
11.2863
15.9708
15.696
15.3745
15.0233
14.6543
14.2786
13.906
13.5453
13.2034
12.8859
12.5966
12.3379
12.1108
11.9152
11.7499
11.6132
11.5029
11.4167
11.3518
11.3061
16.0521
15.7781
15.4546
15.0995
14.7254
14.3441
13.9659
13.5998
13.253
12.931
12.6379
12.3759
12.146
11.948
11.7807
11.6423
11.5305
11.4429
11.3767
11.3295
16.141
15.8683
15.543
15.184
14.8047
14.4176
14.0335
13.6617
13.3095
12.9828
12.6855
12.4199
12.187
11.9864
11.8169
11.6765
11.563
11.4738
11.406
11.3573
16.2386
15.9678
15.6409
15.2779
14.8933
14.5002
14.1098
13.7319
13.3741
13.0423
12.7404
12.4709
12.2346
12.0312
11.8592
11.7167
11.6012
11.5101
11.4406
11.39
16.3458
16.0775
15.7494
15.3826
14.9925
14.593
14.1961
13.8117
13.4479
13.1105
12.8038
12.5301
12.2901
12.0834
11.9087
11.7638
11.6461
11.5528
11.4812
11.4285
16.4638
16.199
15.8701
15.4995
15.1038
14.6977
14.2938
13.9026
13.5323
13.1891
12.8771
12.5987
12.3547
12.1445
11.9667
11.819
11.6987
11.603
11.529
11.4739
16.5942
16.3338
16.0046
15.6303
15.229
14.816
14.4048
14.0063
13.6291
13.2796
12.9619
12.6784
12.43
12.2159
12.0346
11.8838
11.7607
11.6622
11.5854
11.5274
16.7385
16.4838
16.1549
15.7772
15.3701
14.9501
14.5313
14.1251
13.7405
13.3841
13.0603
12.7714
12.5181
12.2997
12.1146
11.9602
11.8338
11.7321
11.6521
11.5908
16.8987
16.651
16.3233
15.9427
15.5298
15.1025
14.6757
14.2615
13.8691
13.5054
13.175
12.8801
12.6215
12.3983
12.2089
12.0505
11.9203
11.8149
11.7311
11.6659
17.0769
16.8382
16.5128
16.1296
15.7112
15.2766
14.8415
14.4188
14.0181
13.6467
13.3091
13.0078
12.7433
12.5149
12.3206
12.1577
12.0231
11.9134
11.8252
11.7553
17.2759
17.0484
16.7266
16.3418
15.9182
15.4762
15.0327
14.6011
14.1918
13.8121
13.4669
13.1585
12.8876
12.6534
12.4536
12.2856
12.1459
12.0311
11.9377
11.8622
17.4986
17.2852
16.9692
16.5838
16.1556
15.7064
15.2544
14.8138
14.3954
14.007
13.6536
13.3376
13.0598
12.819
12.6131
12.4391
12.2936
12.1727
12.073
11.9909
17.7492
17.5538
17.2458
16.8616
16.4296
15.9738
15.5134
15.0636
14.6359
14.2384
13.8763
13.5522
13.2667
13.0186
12.8058
12.6249
12.4724
12.3444
12.237
12.1468
18.0328
17.8598
17.5634
17.1824
16.7483
16.2867
15.8184
15.3595
14.9224
14.5155
14.1443
13.8115
13.5177
13.2615
13.0407
12.8518
12.6909
12.5542
12.4375
12.3371
18.3549
18.2108
17.9305
17.5561
17.1221
16.6563
16.1811
15.7138
15.2676
14.8513
14.4707
14.1287
13.8257
13.5605
13.3305
13.132
12.9611
12.8136
12.6852
12.5721
18.7235
18.6165
18.3587
17.9956
17.5652
17.0977
16.6174
16.1431
15.6885
15.2632
14.8733
14.5217
14.209
13.9336
13.6928
13.4829
13.2997
13.1386
12.9952
12.8655
19.149
19.0901
18.8634
18.5184
18.0968
17.6317
17.1496
16.6705
16.2093
15.7762
15.3776
15.0165
14.6933
14.4066
14.1533
13.9294
13.7305
13.5519
13.389
13.2375
19.6449
19.6488
19.4653
19.1482
18.7434
18.2872
17.8085
17.3289
16.8645
16.4261
16.0203
15.6503
15.3166
15.0172
14.749
14.5078
14.2888
14.0872
13.8981
13.7172
20.2306
20.3143
20.1927
19.9181
19.5421
19.1049
18.6381
18.1653
17.7036
17.2645
16.8549
16.478
16.1341
15.821
15.5352
15.2721
15.0269
14.7942
14.5693
14.3476
20.9327
21.1221
21.086
20.8744
20.5451
20.1425
19.7013
19.247
18.7981
18.3665
17.9595
17.58
17.2278
16.9004
16.5938
16.3031
16.0228
15.7477
15.4728
15.1935
21.783
22.1162
22.1992
22.0809
21.8251
21.4811
21.0868
20.67
20.2505
19.8406
19.4475
19.0735
18.7179
18.3772
18.0467
17.7208
17.3936
17.0597
16.7141
16.3524
22.8248
23.3641
23.6027
23.6244
23.4829
23.2336
22.919
22.5693
22.2057
21.8405
21.4806
21.127
20.7777
20.4279
20.0714
19.7016
19.312
18.8967
18.4508
17.9705
24.1188
24.9489
25.4106
25.6222
25.6566
25.5547
25.3679
25.1296
24.8621
24.5777
24.2817
23.9734
23.6484
23.2994
22.9182
22.496
22.0251
21.4989
20.9125
20.2628
25.7462
26.9765
27.7815
28.2574
28.5357
28.649
28.6572
28.5925
28.4786
28.3272
28.1412
27.9166
27.6456
27.317
26.919
26.4394
25.868
25.1964
24.419
23.5332
27.8175
29.5912
30.8671
31.7512
32.3471
32.7603
33.0639
33.2539
33.3676
33.4197
33.4054
33.3176
33.1443
32.8686
32.4729
31.94
31.255
30.4053
29.3826
28.1829
30.4719
32.9836
34.8997
36.3352
37.4238
38.2673
38.9288
39.4462
39.8616
40.2105
40.437
40.5474
40.5277
40.3503
39.9906
39.4239
38.6279
37.5825
36.2721
34.6862
33.8824
37.3778
40.144
42.3086
44.0302
45.4281
46.5865
47.5611
48.3803
49.0442
49.5463
49.9047
50.1067
50.0798
49.8008
49.2373
48.358
47.1297
45.5229
43.5115
38.2608
43.0367
46.8959
49.9833
52.4938
54.5744
56.3295
57.8261
59.0998
60.1638
61.0182
61.6513
62.0601
62.2261
62.0698
61.5568
60.6448
59.2832
57.4207
55.0037
43.854
50.2477
55.4571
59.6551
63.0889
65.9469
68.3623
70.4222
72.1798
73.662
74.8755
75.8118
76.4574
76.8027
76.8
76.3811
75.4978
74.0771
72.0409
69.2977
50.9415
59.3097
66.1147
71.5805
76.0323
79.7194
82.8177
85.4474
87.684
89.5711
91.1292
92.3605
93.2532
93.7856
93.9271
93.6297
92.8333
91.4302
89.3146
86.3541
59.8212
70.5104
79.1188
85.9637
91.4832
96.0105
99.781
102.957
105.644
107.908
109.786
111.29
112.416
113.143
113.431
113.263
112.598
111.279
109.166
106.089
70.7941
84.1091
94.6743
102.961
109.561
114.914
119.328
123.016
126.12
128.732
130.905
132.666
134.014
134.933
135.381
135.354
134.841
133.656
131.608
128.492
84.137
100.318
112.936
122.69
130.36
136.512
141.535
145.701
149.189
152.121
154.57
156.577
158.148
159.271
159.895
160.012
159.656
158.648
156.722
153.633
100.087
119.298
134.019
145.237
153.954
160.87
166.464
171.067
174.901
178.121
180.822
183.064
184.864
186.215
187.074
187.379
187.148
186.337
184.589
181.598
118.819
141.155
157.989
170.65
180.373
188.002
194.107
199.085
203.204
206.658
209.568
212.015
214.031
215.614
216.714
217.25
217.221
216.638
215.148
212.363
140.448
165.938
184.86
198.91
209.566
217.815
224.328
229.57
233.867
237.454
240.487
243.077
245.272
247.082
248.463
249.338
249.584
249.22
248.113
245.695
165.015
193.624
214.556
229.885
241.33
250.033
256.768
262.082
266.366
269.908
272.91
275.518
277.806
279.803
281.468
282.717
283.387
283.445
282.823
280.991
192.489
224.098
246.874
263.27
275.25
284.115
290.76
295.826
299.782
302.985
305.695
308.107
310.331
312.426
314.366
316.078
317.401
318.128
318.115
317.157
222.745
257.112
281.431
298.524
310.61
319.166
325.223
329.538
332.678
335.087
337.099
338.971
340.867
342.888
345.034
347.247
349.369
351.175
352.308
352.466
255.558
292.263
317.614
334.805
346.321
353.842
358.565
361.386
362.999
363.957
364.679
365.503
366.67
368.34
370.542
373.248
376.309
379.508
382.447
384.601
290.58
328.953
354.539
370.912
380.853
386.286
388.616
388.911
388.014
386.658
385.292
384.359
384.233
385.185
387.211
390.338
394.437
399.385
404.718
409.798
327.357
366.398
391.041
405.264
412.199
414.082
412.644
409.113
404.305
398.99
394.171
390.55
388.541
388.656
390.286
393.622
398.429
405.321
413.692
422.968
365.35
403.651
425.69
435.896
437.979
434.564
427.254
417.72
408.106
398.981
391.031
384.795
380.512
378.202
378.839
382.407
389.214
398.167
409.255
422.114
404.021
439.666
456.73
460.607
455.451
443.857
429.366
413.447
397.16
382.15
369.145
358.733
351.408
347.507
347.2
350.394
357.527
368.71
383.863
402.646
442.93
473.184
482.371
477.126
461.114
440.084
415.602
390.634
366.82
345.501
327.487
313.271
303.138
297.31
295.969
298.945
306.68
319.783
338.474
362.791
481.689
503.133
501.314
481.951
453.31
418.313
382.076
347.458
316.268
289.546
267.734
250.947
239.131
232.264
230.414
233.355
241.626
256.397
278.445
308.517
520.169
529.139
510.292
473.48
425.773
375.476
327.406
284.555
248.333
219.058
196.387
179.737
168.513
162.336
161.126
164.634
173.764
190.201
215.594
251.706
559.233
550.305
507.266
445.034
376.606
311.114
253.964
207.373
171.298
144.495
125.357
112.42
104.558
101.12
101.946
106.941
117.916
137.048
167.935
216.091
600.846
561.564
485.206
393.351
304.302
228.774
170.461
128.542
99.9639
81.0933
69.1973
62.379
59.415
59.7831
63.1663
70.5234
83.9689
107.372
149.628
215.042
643.937
559.15
437.047
314.261
213.912
142.367
95.7368
67.5137
51.5694
42.9072
38.4662
36.6563
36.8495
38.866
43.3565
51.9514
67.9719
99.32
156.119
265.687
677.714
522.684
349.661
210.476
119.718
70.2093
46.3614
35.144
29.5267
26.666
25.4074
25.3101
26.2585
28.6043
33.2878
42.2879
60.6104
101.423
194.44
395.39
681.206
427.091
220.509
104.219
55.8645
36.6017
27.9351
23.6032
21.3185
20.145
19.7096
19.9157
20.8846
23.0459
27.4151
36.4963
57.3459
112.563
264.763
612.732
606.4
261.958
105.47
52.9929
33.5786
25.1886
21.0991
18.9489
17.7728
17.1553
16.9373
17.1082
17.8311
19.5155
23.1751
31.4575
52.7926
118.938
326.557
848.322
505.152
167.703
66.9454
36.1821
24.9566
20.1456
17.8172
16.6178
15.9882
15.6664
15.5467
15.6301
16.0533
17.1685
19.8015
26.1568
43.7666
102.953
332.917
948.581
552.535
144.115
51.8697
28.3808
20.5954
17.4896
16.1618
15.53
15.2098
15.0459
14.9825
15.0154
15.2206
15.7781
17.1998
21.0113
32.345
73.405
252.216
929.625
621.272
123.631
39.7287
22.4378
17.5429
15.8763
15.2378
14.986
14.8789
14.8243
14.7998
14.796
14.8336
14.9688
15.3862
16.5934
20.5782
36.9776
126.483
586.385
271.523
54.5629
23.7318
17.0897
15.4253
15.0162
14.9018
14.8535
14.8232
14.8046
14.7958
14.7938
14.8031
14.8321
14.9231
15.1653
15.7775
17.3968
25.0915
136.821
11.2592
11.2208
11.177
11.1352
11.0959
11.0598
11.0273
10.999
10.9753
10.9564
10.9429
10.9348
10.9321
10.9349
10.9431
10.9565
10.9747
10.9975
11.0247
11.0559
11.2766
11.2377
11.1939
11.152
11.1126
11.0763
11.0436
11.0151
10.9911
10.972
10.9581
10.9497
10.9467
10.9493
10.9575
10.9711
10.9896
11.0123
11.0388
11.0693
11.2893
11.2504
11.2067
11.1648
11.1254
11.0891
11.0564
11.0278
11.0036
10.9843
10.9701
10.9611
10.9576
10.9597
10.9676
10.9814
10.9992
11.0205
11.0449
11.0742
11.3001
11.2614
11.2178
11.1761
11.1368
11.1006
11.0682
11.0399
11.0159
10.9965
10.9818
10.9722
10.9679
10.9689
10.9753
10.9875
11.0036
11.0238
11.0474
11.0763
11.3102
11.2717
11.2286
11.1872
11.148
11.1115
11.0783
11.0494
11.0246
11.0043
10.9888
10.9783
10.9731
10.9731
10.9782
10.9883
11.0041
11.0243
11.0495
11.0789
11.3196
11.281
11.2376
11.1955
11.1551
11.1166
11.0824
11.0532
11.0277
11.0066
10.9901
10.9783
10.9724
10.9719
10.9768
10.9866
11.0035
11.0235
11.0494
11.0793
11.3248
11.2858
11.2418
11.1989
11.1575
11.1178
11.0837
11.0543
11.028
11.0064
10.9893
10.9762
10.9705
10.9703
10.9756
10.9864
11.0026
11.0228
11.048
11.0771
11.3249
11.2854
11.2412
11.1989
11.1583
11.1197
11.0856
11.0546
11.0272
11.0057
10.9888
10.9762
10.97
10.9694
10.9745
10.9854
11.0013
11.0219
11.0464
11.0744
11.3239
11.2839
11.2395
11.198
11.1581
11.1204
11.0854
11.0531
11.025
11.0037
10.9869
10.9751
10.9681
10.9675
10.9728
10.984
11.0007
11.0207
11.0458
11.0753
11.3248
11.285
11.2404
11.1977
11.1569
11.1191
11.0844
11.0528
11.0258
11.0035
10.9867
10.9756
10.9702
10.9701
10.9757
10.9866
11.0027
11.0235
11.0489
11.0787
11.3254
11.2859
11.241
11.1978
11.1567
11.12
11.0863
11.0563
11.03
11.0082
10.992
10.9815
10.9766
10.9768
10.9823
10.9929
11.0087
11.0292
11.054
11.0833
11.3286
11.2883
11.2434
11.2003
11.1599
11.1228
11.0879
11.0574
11.0311
11.0097
10.9939
10.984
10.9799
10.9815
10.9879
10.9992
11.0152
11.0356
11.0602
11.089
11.3325
11.2918
11.2457
11.2016
11.1604
11.1228
11.0878
11.0573
11.031
11.0096
10.9939
10.9842
10.9805
10.9829
10.9898
11.0015
11.0177
11.0384
11.0631
11.0919
11.3342
11.2927
11.2455
11.2006
11.159
11.122
11.0884
11.0582
11.032
11.0103
10.9941
10.984
10.9798
10.981
10.9877
10.9994
11.0157
11.0364
11.0614
11.0904
11.3338
11.2919
11.2453
11.2007
11.1598
11.122
11.0883
11.0578
11.0314
11.0105
10.9947
10.9841
10.9795
10.9806
10.9872
10.9988
11.0152
11.0361
11.0613
11.0906
11.3348
11.2925
11.246
11.2015
11.161
11.1226
11.0871
11.0567
11.031
11.012
10.9976
10.9881
10.9844
10.9861
10.9932
11.0051
11.0214
11.0424
11.0678
11.0974
11.3359
11.2938
11.2474
11.2022
11.1611
11.1219
11.0855
11.0551
11.0299
11.0105
10.9974
10.9889
10.9858
10.988
10.9958
11.0083
11.0257
11.0468
11.0712
11.1005
11.3356
11.2934
11.2462
11.2013
11.1595
11.1208
11.0847
11.0533
11.028
11.0087
10.996
10.988
10.9855
10.988
10.9961
11.0091
11.0272
11.048
11.0711
11.0999
11.3362
11.2931
11.2451
11.2003
11.1587
11.1208
11.0852
11.0548
11.0295
11.0098
10.996
10.9886
10.9859
10.9882
10.996
11.0088
11.0261
11.0473
11.0716
11.101
11.3376
11.2953
11.2488
11.2044
11.163
11.1247
11.0901
11.0598
11.0342
11.014
10.9994
10.9906
10.9873
10.9891
10.9964
11.0089
11.0262
11.048
11.0743
11.105
11.3431
11.3011
11.2549
11.2114
11.1708
11.1332
11.0989
11.0685
11.0425
11.0218
11.0069
10.9978
10.994
10.9955
11.0023
11.0141
11.0308
11.0523
11.0783
11.1088
11.3492
11.3069
11.2606
11.2173
11.1776
11.1406
11.1067
11.0768
11.0513
11.0311
11.0163
11.0073
11.0036
11.0047
11.0108
11.0216
11.0371
11.0575
11.0826
11.1117
11.3553
11.3121
11.2649
11.2207
11.1803
11.1428
11.1092
11.0808
11.0566
11.0373
11.0233
11.0147
11.0112
11.0124
11.0186
11.0294
11.0443
11.0632
11.086
11.1132
11.3619
11.3177
11.2693
11.2236
11.1813
11.143
11.1095
11.082
11.0577
11.0388
11.0254
11.0173
11.0139
11.0153
11.0219
11.033
11.048
11.0658
11.0873
11.1139
11.3697
11.3246
11.2752
11.2284
11.185
11.1457
11.1112
11.0824
11.058
11.0392
11.0254
11.0165
11.0129
11.0144
11.0212
11.0328
11.0483
11.067
11.0901
11.1172
11.3789
11.3331
11.283
11.2352
11.1908
11.1503
11.1146
11.0842
11.06
11.0405
11.0262
11.0168
11.0134
11.0154
11.0226
11.0347
11.0512
11.0716
11.0957
11.1234
11.3896
11.3432
11.2925
11.2442
11.1991
11.158
11.1215
11.0902
11.0645
11.0446
11.0306
11.0225
11.0197
11.0221
11.0298
11.0423
11.0591
11.0799
11.1042
11.1319
11.4017
11.3549
11.3038
11.2551
11.2095
11.168
11.1311
11.0995
11.0736
11.0536
11.0397
11.0318
11.0293
11.0319
11.0398
11.0524
11.0694
11.0903
11.1146
11.1421
11.4154
11.3682
11.3168
11.2676
11.2217
11.1798
11.1427
11.1109
11.0848
11.0648
11.0509
11.0431
11.0407
11.0435
11.0515
11.0643
11.0814
11.1022
11.1264
11.1536
11.4308
11.3833
11.3315
11.282
11.2357
11.1935
11.1561
11.124
11.0978
11.0778
11.0639
11.0562
11.0539
11.0568
11.0649
11.0778
11.0948
11.1156
11.1395
11.1665
11.4484
11.4006
11.3485
11.2986
11.2519
11.2093
11.1716
11.1394
11.113
11.0928
11.079
11.0713
11.069
11.072
11.0802
11.0931
11.1101
11.1307
11.1544
11.1809
11.4685
11.4204
11.368
11.3178
11.2708
11.2279
11.1898
11.1573
11.1308
11.1105
11.0966
11.0889
11.0866
11.0896
11.0978
11.1107
11.1276
11.1479
11.1713
11.1973
11.4916
11.4433
11.3907
11.3402
11.2928
11.2496
11.2113
11.1785
11.1518
11.1314
11.1174
11.1097
11.1074
11.1104
11.1185
11.1313
11.148
11.168
11.1909
11.2163
11.5181
11.4697
11.417
11.3663
11.3186
11.275
11.2364
11.2034
11.1765
11.156
11.142
11.1342
11.1319
11.1348
11.1429
11.1555
11.172
11.1916
11.214
11.2386
11.5488
11.5003
11.4475
11.3966
11.3487
11.3049
11.266
11.2328
11.2057
11.1851
11.1709
11.1631
11.1608
11.1637
11.1717
11.1841
11.2002
11.2194
11.2411
11.2647
11.5841
11.5357
11.483
11.4319
11.3838
11.3398
11.3006
11.2672
11.24
11.2192
11.205
11.1972
11.1948
11.1977
11.2055
11.2177
11.2334
11.252
11.2729
11.2955
11.625
11.5768
11.5242
11.4731
11.4248
11.3806
11.3413
11.3076
11.2802
11.2594
11.2451
11.2372
11.2347
11.2375
11.2452
11.257
11.2722
11.2902
11.31
11.3313
11.6723
11.6244
11.5722
11.5211
11.4728
11.4284
11.3888
11.355
11.3275
11.3065
11.2921
11.284
11.2815
11.2841
11.2915
11.303
11.3176
11.3346
11.3533
11.3731
11.7271
11.6798
11.628
11.5771
11.5288
11.4843
11.4446
11.4106
11.3829
11.3617
11.3472
11.339
11.3363
11.3386
11.3457
11.3566
11.3704
11.3864
11.4037
11.4217
11.7907
11.7441
11.693
11.6425
11.5944
11.5498
11.51
11.4759
11.448
11.4266
11.4118
11.4034
11.4005
11.4025
11.4091
11.4193
11.4321
11.4468
11.4624
11.4783
11.8645
11.819
11.7689
11.719
11.6711
11.6267
11.5868
11.5526
11.5245
11.5029
11.4879
11.4791
11.4759
11.4774
11.4833
11.4927
11.5043
11.5174
11.531
11.5443
11.9504
11.9064
11.8577
11.8088
11.7614
11.7172
11.6774
11.643
11.6148
11.593
11.5776
11.5684
11.5647
11.5657
11.5707
11.5789
11.589
11.6002
11.6113
11.6215
12.0509
12.0089
11.9622
11.9145
11.868
11.8242
11.7846
11.7503
11.7218
11.6997
11.6839
11.6742
11.6699
11.67
11.6739
11.6806
11.6888
11.6976
11.7057
11.7122
12.1691
12.13
12.0858
12.04
11.9947
11.9517
11.9125
11.8782
11.8496
11.8272
11.8109
11.8004
11.7952
11.7943
11.7967
11.8014
11.8072
11.8129
11.8173
11.8192
12.3092
12.2738
12.2333
12.1901
12.1466
12.1047
12.0662
12.0322
12.0036
11.9807
11.9637
11.9523
11.9458
11.9433
11.9438
11.946
11.9486
11.9504
11.9501
11.9464
12.4765
12.4463
12.4108
12.3714
12.3306
12.2906
12.2532
12.2197
12.1911
12.1678
12.1498
12.137
12.1287
12.1241
12.1218
12.1206
12.119
12.1158
12.1094
12.0985
12.6785
12.6557
12.6274
12.5934
12.5566
12.5194
12.4837
12.4511
12.4226
12.3988
12.3797
12.365
12.3542
12.3464
12.3401
12.3341
12.3268
12.3168
12.3025
12.2823
12.9257
12.9135
12.8954
12.8694
12.8386
12.8057
12.7728
12.7417
12.7136
12.6891
12.6683
12.651
12.6366
12.6241
12.6121
12.5992
12.5839
12.5646
12.5394
12.5069
13.2326
13.2365
13.2335
13.2194
13.1977
13.1713
13.1429
13.1143
13.0868
13.0614
13.038
13.0168
12.9968
12.9773
12.9569
12.9341
12.9072
12.8748
12.8346
12.7853
13.6255
13.6513
13.67
13.6737
13.6658
13.6497
13.6282
13.6035
13.5773
13.5504
13.5233
13.4959
13.4675
13.4374
13.4041
13.3665
13.3226
13.2709
13.2094
13.1362
14.1402
14.1975
14.2467
14.2788
14.2924
14.2922
14.2816
14.2634
14.2392
14.2103
14.1772
14.1401
14.0985
14.0518
13.9989
13.9385
13.8689
13.7886
13.6956
13.588
14.8326
14.94
15.0393
15.1072
15.1549
15.179
15.186
15.1781
15.1574
15.1255
15.0831
15.0308
14.9684
14.8956
14.8117
14.7159
14.6066
14.4828
14.3423
14.1834
15.7882
15.975
16.1538
16.285
16.3738
16.4321
16.4691
16.4782
16.4636
16.4273
16.3705
16.2943
16.199
16.0851
15.9525
15.801
15.6299
15.4385
15.2252
14.9887
17.1368
17.4484
17.7512
17.9824
18.1491
18.2583
18.324
18.361
18.3565
18.3146
18.2362
18.1232
17.9768
17.7987
17.5899
17.3515
17.0839
16.7876
16.4617
16.1058
19.0751
19.5788
20.0716
20.4559
20.7402
20.9349
21.0498
21.1039
21.1204
21.073
20.9643
20.797
20.5741
20.2988
19.974
19.6026
19.1868
18.729
18.23
17.6907
21.8832
22.6733
23.4462
24.054
24.5077
24.8213
25.0094
25.0952
25.1198
25.0781
24.9299
24.6876
24.3568
23.9428
23.4503
22.8845
22.2497
21.5508
20.7913
19.9749
25.9312
27.125
28.284
29.1934
29.8705
30.3382
30.6214
30.7543
30.795
30.7511
30.5535
30.2178
29.7502
29.1568
28.443
27.6146
26.6775
25.6388
24.5055
23.2849
31.6524
33.3659
35.0024
36.2688
37.1978
37.8282
38.1996
38.3733
38.4447
38.4101
38.1687
37.7392
37.1277
36.3378
35.372
34.2327
32.923
31.4488
29.8189
28.0449
39.4554
41.7528
43.8891
45.4987
46.6485
47.4106
47.8497
48.047
48.1318
48.1135
47.8484
47.3542
46.6336
45.6832
44.496
43.0612
41.3688
39.4137
37.1996
34.738
49.5881
52.4212
54.958
56.7844
58.0351
58.8296
59.2699
59.4598
59.5407
59.5486
59.3013
58.8026
58.0553
57.0466
55.755
54.1437
52.1691
49.7956
47.01
43.8074
62.0417
65.2329
67.9581
69.7593
70.9204
71.6092
71.9498
72.0878
72.1885
72.2365
72.0244
71.5812
70.906
69.9793
68.7688
67.2067
65.1742
62.5711
59.3744
55.5231
76.6119
79.9095
82.7256
84.6748
85.9586
86.7187
87.0716
87.2289
87.4051
87.5008
87.3046
86.8463
86.127
85.1281
83.8231
82.1598
80.0736
77.4599
74.1628
69.905
93.3736
97.076
100.26
102.476
103.949
104.84
105.26
105.443
105.677
105.816
105.633
105.164
104.408
103.342
101.932
100.116
97.8166
94.9288
91.3235
86.8075
113.142
117.43
121.117
123.731
125.525
126.67
127.271
127.538
127.818
128.011
127.845
127.351
126.524
125.336
123.758
121.727
119.168
115.949
111.903
106.805
136.511
141.573
145.971
149.143
151.373
152.861
153.731
154.151
154.464
154.703
154.588
154.098
153.216
151.913
150.149
147.856
144.945
141.279
136.677
130.865
164.061
170.114
175.426
179.319
182.129
184.091
185.376
186.101
186.404
186.571
186.635
186.183
185.26
183.839
181.875
179.29
175.98
171.786
166.494
159.788
196.353
203.633
210.087
214.888
218.427
220.979
222.74
223.851
224.409
224.669
224.804
224.406
223.472
221.954
219.793
216.9
213.149
208.356
202.264
194.499
233.907
242.674
250.525
256.453
260.917
264.235
266.629
268.256
269.24
269.658
269.745
269.58
268.702
267.126
264.786
261.58
257.359
251.907
244.913
235.931
277.137
287.68
297.208
304.515
310.133
314.429
317.65
319.956
321.458
322.234
322.548
322.572
321.805
320.22
317.733
314.231
309.529
303.375
295.394
285.051
326.262
338.884
350.379
359.338
366.373
371.9
376.196
379.431
381.699
383.045
383.676
383.887
383.413
381.915
379.356
375.608
370.45
363.583
354.558
342.734
383.533
398.286
411.801
422.426
430.861
437.588
442.934
447.105
450.218
452.344
453.554
454.081
453.908
452.602
450.088
446.196
440.656
433.116
423.038
409.671
451.148
468.347
484.172
496.691
506.71
514.785
521.3
526.497
530.51
533.399
535.209
536.188
536.361
535.31
532.935
528.999
523.174
515.041
503.954
489.02
531.096
551.072
569.516
584.181
595.993
605.602
613.457
619.847
624.935
628.799
631.445
633.006
633.597
632.958
630.886
627.082
621.118
612.496
600.438
583.881
625.588
648.642
669.982
687.015
700.808
712.118
721.475
729.225
735.567
740.599
744.332
746.801
748.014
747.895
746.305
742.894
737.029
728.119
715.23
697.089
737.068
763.419
787.854
807.399
823.29
836.413
847.394
856.646
864.414
870.823
875.881
879.56
881.753
882.413
881.544
878.885
873.507
864.669
851.252
831.734
868.124
897.835
925.399
947.455
965.434
980.372
993.01
1003.85
1013.18
1021.17
1027.84
1033.13
1036.87
1038.84
1038.95
1037.32
1032.98
1024.79
1011.39
990.951
1021.32
1054.18
1084.64
1108.96
1128.79
1145.36
1159.53
1171.92
1182.89
1192.65
1201.22
1208.56
1214.43
1218.54
1220.38
1219.98
1217.3
1210.68
1198.2
1177.68
1198.88
1234.25
1266.93
1292.87
1313.98
1331.68
1347.02
1360.72
1373.25
1384.88
1395.65
1405.51
1414.18
1421.3
1426.24
1428.26
1427.36
1423.41
1413.31
1394.13
1402.23
1438.81
1472.39
1498.72
1519.99
1537.88
1553.63
1568.1
1581.87
1595.3
1608.47
1621.34
1633.59
1644.78
1654.07
1660.36
1663.04
1662.59
1656.7
1641.07
1631.2
1666.75
1699
1723.65
1743.26
1759.75
1774.59
1788.81
1803.14
1818.02
1833.61
1849.91
1866.59
1883.18
1898.81
1912.31
1921.9
1926.51
1926.03
1916.59
1883.01
1914.01
1941.44
1961.26
1976.39
1989.05
2000.94
2013.31
2027
2042.58
2060.29
2080.19
2101.97
2125.19
2148.92
2172.01
2192.65
2208.7
2216.87
2215.05
2150.72
2172.04
2189.61
2200.08
2206.74
2212.12
2218.17
2226.32
2237.57
2252.59
2271.67
2294.94
2322.19
2353.03
2386.56
2421.61
2456.16
2487.74
2512.6
2525.93
2421.23
2426.11
2427.05
2422.1
2415
2408.53
2404.92
2405.77
2412.18
2424.87
2444.05
2469.92
2502.39
2541.28
2586.03
2635.56
2687.72
2739.82
2787.71
2826.12
2674.17
2654.02
2629.73
2601.55
2574.3
2550.35
2532.53
2522.56
2521.37
2529.93
2547.49
2574.46
2610.87
2656.77
2713.22
2779.19
2852.38
2929.85
3007.12
3079.77
2889.1
2828.47
2765.57
2704.37
2648.09
2600.59
2564.37
2541.19
2531.31
2537.27
2552.05
2578.24
2615.83
2662.67
2727.42
2807.53
2901.81
3008.88
3124.68
3241.16
3010.83
2895.66
2787.25
2697.48
2617.56
2551.33
2499.82
2463.29
2439.94
2425.19
2430.13
2452.86
2494.26
2558.03
2633.04
2724.78