/*--------------------------------*- C++ -*----------------------------------*\
  =========                 |
  \\      /  F ield         | OpenFOAM: The Open Source CFD Toolbox
   \\    /   O peration     | Website:  https://openfoam.org
    \\  /    A nd           | Version:  6
     \\/     M anipulation  |
\*---------------------------------------------------------------------------*/
FoamFile
{
    version     2.0;
    format      ascii;
    class       volScalarField;
    location    "18";
    object      k;
}
// * * * * * * * * * * * * * * * * * * * * * * * * * * * * * * * * * * * * * //

dimensions      [0 2 -2 0 0 0 0];

internalField   nonuniform List<scalar> 
10000
(
0.20265
0.517578
0.464833
0.406736
0.366297
0.344276
0.333782
0.329714
0.32882
0.329369
0.330451
0.332079
0.334992
0.341218
0.353309
0.375943
0.414659
0.468836
0.518702
0.204163
0.202216
0.517169
0.464142
0.406132
0.366311
0.345252
0.335301
0.331528
0.330251
0.331083
0.332642
0.334077
0.33593
0.341876
0.35372
0.376018
0.414177
0.468278
0.517515
0.203017
0.20195
0.516867
0.466337
0.407922
0.367079
0.344513
0.333762
0.329895
0.329787
0.33132
0.332322
0.333941
0.336877
0.343024
0.354259
0.376736
0.415466
0.466783
0.518011
0.20363
0.203374
0.520289
0.468454
0.409491
0.367606
0.344532
0.333505
0.329534
0.329729
0.330579
0.331305
0.332883
0.335646
0.341529
0.353727
0.376675
0.415678
0.468467
0.518477
0.203982
0.204277
0.521639
0.468322
0.409221
0.367604
0.344581
0.333522
0.329396
0.327946
0.328911
0.332012
0.33414
0.336963
0.341493
0.35423
0.376634
0.415611
0.470064
0.519286
0.203936
0.202946
0.521242
0.468076
0.407528
0.366869
0.344694
0.33359
0.330339
0.327636
0.328082
0.329444
0.331672
0.335685
0.341227
0.353729
0.376421
0.415229
0.470217
0.519367
0.203796
0.203663
0.521242
0.467631
0.408121
0.366638
0.34361
0.332524
0.328324
0.327306
0.327696
0.328991
0.331116
0.334743
0.341272
0.353661
0.376098
0.414483
0.469268
0.518648
0.203443
0.202621
0.520513
0.467196
0.406547
0.366418
0.343645
0.332554
0.328281
0.327318
0.32768
0.329068
0.331297
0.335113
0.342459
0.353877
0.375998
0.413973
0.468829
0.517082
0.203274
0.203258
0.520218
0.465178
0.406508
0.366418
0.34369
0.332673
0.328159
0.327305
0.327932
0.329328
0.331602
0.336255
0.341879
0.353157
0.375608
0.413135
0.46647
0.517264
0.202512
0.202813
0.519908
0.466292
0.406276
0.366459
0.344376
0.332985
0.328419
0.328863
0.328284
0.330663
0.332644
0.335755
0.340891
0.353243
0.375271
0.412496
0.466064
0.515938
0.202173
0.202166
0.519461
0.466202
0.406149
0.366572
0.344153
0.333864
0.328354
0.327944
0.328735
0.328747
0.330537
0.334823
0.340962
0.352263
0.374432
0.410196
0.46554
0.515766
0.201949
0.203054
0.519123
0.464474
0.406458
0.366657
0.343954
0.332872
0.328083
0.326656
0.32701
0.328105
0.329784
0.333541
0.340159
0.352035
0.374009
0.410584
0.464133
0.516181
0.201984
0.202124
0.517635
0.465863
0.405458
0.36669
0.344882
0.33442
0.328775
0.327038
0.327307
0.32845
0.32991
0.33297
0.339204
0.351416
0.373665
0.411617
0.466218
0.517183
0.20174
0.20258
0.517894
0.466267
0.406349
0.366573
0.344959
0.334487
0.329232
0.327535
0.327634
0.329993
0.330402
0.333228
0.339455
0.352029
0.373496
0.410837
0.46751
0.517307
0.202628
0.202443
0.518121
0.466893
0.407485
0.36701
0.345387
0.334997
0.331153
0.329573
0.327988
0.328569
0.331272
0.333373
0.340296
0.351464
0.373426
0.412802
0.467596
0.516284
0.202657
0.202327
0.518104
0.466848
0.407042
0.366641
0.345498
0.334332
0.330061
0.329484
0.329311
0.328763
0.330169
0.333246
0.339709
0.351627
0.373671
0.412933
0.467062
0.517644
0.202412
0.202
0.517758
0.467014
0.405724
0.367018
0.345896
0.334614
0.331276
0.329588
0.328614
0.329055
0.33049
0.333417
0.339213
0.351085
0.373199
0.413029
0.469142
0.517893
0.203246
0.20297
0.517804
0.467331
0.407177
0.367682
0.346432
0.334797
0.330026
0.328763
0.329988
0.32947
0.330855
0.335026
0.340532
0.351443
0.373724
0.412569
0.468402
0.516727
0.20315
0.203782
0.520264
0.468343
0.408785
0.368591
0.346722
0.335215
0.330373
0.328903
0.329774
0.330669
0.331103
0.334727
0.340067
0.351428
0.373471
0.41128
0.467529
0.517559
0.202821
0.204236
0.521208
0.469808
0.41066
0.36957
0.347282
0.335948
0.332228
0.330366
0.328915
0.329305
0.330835
0.334422
0.33958
0.351797
0.374437
0.413306
0.469805
0.518694
0.203367
0.202978
0.519928
0.469521
0.409612
0.369621
0.347561
0.336195
0.33211
0.330229
0.328948
0.329314
0.331889
0.333802
0.339466
0.35151
0.374353
0.413753
0.469992
0.519135
0.203166
0.203528
0.519598
0.469587
0.411387
0.369859
0.348103
0.33675
0.33199
0.329922
0.330242
0.329579
0.330966
0.333789
0.339642
0.351672
0.37414
0.413684
0.470061
0.518899
0.203711
0.202724
0.519971
0.469717
0.411576
0.369593
0.34836
0.338068
0.333831
0.330247
0.329331
0.329805
0.331484
0.335062
0.339899
0.352409
0.375099
0.415051
0.470471
0.518582
0.203092
0.203402
0.519787
0.469755
0.411704
0.370176
0.348011
0.336813
0.332844
0.33121
0.329777
0.330441
0.332633
0.334182
0.339883
0.352324
0.375033
0.414797
0.470299
0.518306
0.203994
0.202604
0.519233
0.469702
0.411777
0.370619
0.34869
0.336892
0.331716
0.329759
0.329351
0.329863
0.331198
0.334069
0.340045
0.35227
0.37498
0.414747
0.470212
0.519013
0.203804
0.203415
0.518511
0.469789
0.411783
0.37114
0.348503
0.33816
0.333255
0.331431
0.331304
0.331955
0.332135
0.334659
0.340555
0.352549
0.375114
0.413491
0.468768
0.518748
0.204167
0.204047
0.52025
0.469817
0.41179
0.370894
0.348328
0.337048
0.331912
0.330036
0.330112
0.331605
0.333184
0.33514
0.341735
0.353376
0.375783
0.414459
0.469747
0.518932
0.204477
0.203906
0.519139
0.469607
0.411822
0.371252
0.348444
0.337201
0.33202
0.33013
0.331284
0.331377
0.332857
0.336073
0.341368
0.353032
0.375391
0.415141
0.470616
0.520312
0.205033
0.203964
0.520396
0.469339
0.411464
0.371185
0.348681
0.338298
0.333627
0.330383
0.330654
0.3301
0.331737
0.33523
0.342011
0.353422
0.37575
0.414914
0.470203
0.519337
0.204215
0.204305
0.520449
0.469116
0.411489
0.371472
0.348997
0.337045
0.33268
0.331023
0.329834
0.329698
0.331604
0.335821
0.34081
0.352864
0.375429
0.414391
0.468556
0.5192
0.204389
0.203683
0.519276
0.467597
0.410202
0.371216
0.348314
0.336773
0.331237
0.329504
0.330729
0.329739
0.331516
0.334321
0.34044
0.353231
0.375024
0.412763
0.469078
0.519082
0.204369
0.204067
0.520246
0.468768
0.411716
0.371443
0.34852
0.337386
0.331126
0.328999
0.329103
0.329446
0.332784
0.33524
0.341031
0.35267
0.374471
0.412908
0.468934
0.518497
0.20442
0.203923
0.520021
0.468389
0.411672
0.371601
0.34853
0.336641
0.331373
0.329158
0.328493
0.328789
0.330675
0.332905
0.339065
0.351653
0.373551
0.410693
0.468442
0.51933
0.204448
0.203148
0.518406
0.466443
0.410291
0.371289
0.349166
0.337022
0.332037
0.3308
0.330062
0.329092
0.329939
0.332172
0.338488
0.352131
0.373268
0.410749
0.468159
0.519003
0.204312
0.20351
0.51877
0.466849
0.411086
0.371249
0.348626
0.337864
0.333126
0.329538
0.328782
0.329312
0.331112
0.332149
0.337819
0.35093
0.372308
0.409655
0.466214
0.518529
0.203421
0.202989
0.518441
0.466229
0.41093
0.371052
0.348564
0.33678
0.331721
0.329363
0.328795
0.330145
0.32977
0.33182
0.337355
0.349874
0.371677
0.40932
0.466541
0.518166
0.20342
0.203571
0.518931
0.466801
0.410365
0.370826
0.348284
0.337789
0.333605
0.331072
0.32928
0.329034
0.329617
0.331763
0.337069
0.348839
0.371026
0.408884
0.465987
0.517717
0.202768
0.203396
0.518819
0.465687
0.409914
0.370489
0.348514
0.336604
0.332821
0.330094
0.329898
0.330734
0.331611
0.333524
0.338199
0.349532
0.370992
0.409436
0.465352
0.5161
0.20217
0.203974
0.517772
0.466864
0.4097
0.370201
0.34776
0.336465
0.33183
0.329929
0.331217
0.329901
0.330776
0.332635
0.337038
0.348948
0.370735
0.408931
0.464709
0.514911
0.201496
0.203532
0.518245
0.465359
0.409273
0.369871
0.347911
0.337313
0.332903
0.329802
0.330366
0.33055
0.329938
0.331851
0.336935
0.348804
0.370467
0.4082
0.463724
0.514747
0.201147
0.20371
0.518296
0.465009
0.408806
0.369557
0.347182
0.335905
0.331124
0.329281
0.329082
0.329193
0.329871
0.332019
0.337126
0.348409
0.369964
0.407654
0.463366
0.514664
0.201023
0.203062
0.518244
0.464471
0.408297
0.36946
0.347762
0.336112
0.331498
0.329755
0.331069
0.331315
0.331836
0.333806
0.338385
0.347892
0.369421
0.406743
0.462659
0.514979
0.200839
0.202293
0.516836
0.46306
0.406792
0.368941
0.34695
0.336145
0.332586
0.329705
0.330595
0.330504
0.330787
0.332842
0.337687
0.347631
0.369206
0.40651
0.462083
0.51374
0.200758
0.201601
0.515047
0.461512
0.406105
0.368658
0.347308
0.335605
0.331006
0.329213
0.330048
0.329425
0.331554
0.333961
0.339027
0.347574
0.368881
0.405857
0.460453
0.514554
0.201041
0.201141
0.514528
0.461012
0.405229
0.368074
0.346446
0.335712
0.33189
0.329298
0.329136
0.328881
0.329602
0.331939
0.337761
0.347107
0.368435
0.404714
0.460656
0.513346
0.200807
0.200791
0.513803
0.461197
0.404965
0.367866
0.346881
0.335735
0.332022
0.329535
0.330671
0.328983
0.329751
0.331885
0.33682
0.346703
0.368065
0.404016
0.460179
0.513402
0.200674
0.200737
0.513686
0.460532
0.403998
0.367218
0.345796
0.336287
0.330977
0.329274
0.329577
0.329013
0.330994
0.332982
0.335973
0.346469
0.367444
0.403101
0.458257
0.512845
0.200498
0.200412
0.513842
0.458795
0.403388
0.366777
0.34531
0.33525
0.330952
0.329338
0.328896
0.328835
0.329367
0.331184
0.335744
0.346731
0.366852
0.40244
0.457876
0.512268
0.199712
0.200329
0.513582
0.458064
0.402554
0.366065
0.345389
0.335852
0.331693
0.330219
0.331118
0.331247
0.331427
0.331709
0.33581
0.345742
0.36618
0.40186
0.457136
0.511983
0.19961
0.199694
0.511916
0.456914
0.401848
0.365499
0.345604
0.336205
0.333281
0.330709
0.331096
0.330958
0.331408
0.333125
0.337227
0.346529
0.365919
0.401526
0.456437
0.511408
0.199229
0.199122
0.510997
0.455367
0.400965
0.365455
0.346737
0.336604
0.332522
0.331077
0.331575
0.33071
0.330918
0.332284
0.336217
0.345775
0.365493
0.400875
0.455516
0.510722
0.198908
0.198563
0.510083
0.454286
0.400245
0.365414
0.346983
0.338465
0.334906
0.333345
0.332471
0.331346
0.331367
0.332545
0.336275
0.346369
0.365393
0.400087
0.45434
0.51002
0.198676
0.198039
0.508856
0.45293
0.399289
0.365577
0.347322
0.338828
0.335346
0.333503
0.33282
0.332157
0.332092
0.33311
0.336506
0.345225
0.364643
0.398907
0.453136
0.509414
0.19867
0.197698
0.507839
0.451437
0.398077
0.364855
0.347658
0.339625
0.336346
0.33579
0.33516
0.333321
0.333061
0.333917
0.337007
0.345275
0.363924
0.398148
0.452165
0.509357
0.198178
0.197211
0.507437
0.450429
0.397311
0.364549
0.348347
0.340295
0.336586
0.336148
0.335853
0.335577
0.335855
0.336601
0.339047
0.346371
0.363402
0.397246
0.451119
0.50899
0.19843
0.197015
0.506549
0.449071
0.396513
0.364433
0.348906
0.341932
0.337453
0.33611
0.33554
0.335584
0.336562
0.337018
0.338644
0.345714
0.363395
0.39632
0.449212
0.507454
0.197706
0.196486
0.505644
0.448167
0.395683
0.363868
0.349805
0.343245
0.339945
0.337516
0.336668
0.336672
0.337866
0.338072
0.339276
0.34586
0.362797
0.395484
0.448279
0.50688
0.197286
0.195938
0.504819
0.446826
0.395007
0.363799
0.35032
0.34432
0.341543
0.340664
0.339807
0.339552
0.339561
0.339541
0.341326
0.347063
0.362206
0.394561
0.446958
0.506136
0.196914
0.195644
0.503852
0.445574
0.394135
0.363704
0.350874
0.34535
0.343001
0.3417
0.340663
0.34036
0.340856
0.340707
0.341807
0.346614
0.362135
0.393508
0.445423
0.505098
0.196426
0.19493
0.503012
0.444054
0.393225
0.364017
0.351599
0.346551
0.344503
0.343395
0.343046
0.342939
0.34245
0.342196
0.343148
0.346758
0.361506
0.392386
0.443863
0.503883
0.195879
0.194426
0.502074
0.442556
0.39234
0.363455
0.352112
0.347514
0.345878
0.345326
0.345046
0.344668
0.344047
0.343234
0.343591
0.346934
0.36098
0.391367
0.44262
0.502861
0.195422
0.193968
0.501297
0.441205
0.391409
0.363682
0.352798
0.348619
0.347198
0.346728
0.346422
0.345952
0.345233
0.344335
0.343742
0.347022
0.360116
0.390081
0.440936
0.501554
0.194726
0.193298
0.499984
0.439422
0.390143
0.363057
0.352993
0.349443
0.348292
0.347894
0.347616
0.347177
0.346451
0.345487
0.345162
0.348363
0.359236
0.388825
0.439362
0.500738
0.194168
0.192683
0.498946
0.437714
0.388835
0.362278
0.352525
0.350009
0.34925
0.349041
0.348852
0.348443
0.347734
0.346758
0.345875
0.348247
0.358886
0.387533
0.437495
0.499276
0.193373
0.191947
0.497749
0.435961
0.387359
0.36132
0.351301
0.350456
0.350222
0.350237
0.350156
0.349789
0.34905
0.347947
0.346508
0.347831
0.358714
0.386037
0.435398
0.498271
0.192682
0.191001
0.496043
0.43334
0.385258
0.360246
0.351935
0.35096
0.351133
0.351385
0.35142
0.351094
0.350342
0.349204
0.348004
0.348028
0.359387
0.384337
0.432702
0.495904
0.191522
0.190226
0.494585
0.430901
0.383018
0.358672
0.34967
0.350615
0.35192
0.352575
0.352761
0.352452
0.351615
0.350269
0.348635
0.347974
0.358022
0.382096
0.430102
0.494497
0.190598
0.189467
0.493077
0.428145
0.380037
0.356742
0.349304
0.349895
0.352691
0.3538
0.354129
0.353811
0.352847
0.35126
0.349298
0.347843
0.356951
0.379852
0.427276
0.492276
0.189495
0.188297
0.491071
0.424949
0.376712
0.353527
0.34982
0.352032
0.353905
0.355095
0.355496
0.355131
0.35399
0.352072
0.349617
0.347834
0.355471
0.377014
0.424147
0.49068
0.188651
0.187069
0.488987
0.421657
0.373442
0.351737
0.347271
0.350861
0.354337
0.356144
0.356754
0.356396
0.355094
0.352776
0.349507
0.34863
0.353625
0.373631
0.42055
0.487983
0.187206
0.18539
0.486262
0.417801
0.370765
0.350989
0.347389
0.350163
0.355108
0.357376
0.358109
0.357712
0.356222
0.353422
0.348608
0.346955
0.350801
0.369496
0.416616
0.485649
0.185946
0.183658
0.483208
0.413634
0.371145
0.351074
0.349402
0.352543
0.356609
0.358806
0.359574
0.359158
0.357548
0.35456
0.350105
0.345869
0.347595
0.365171
0.412856
0.483318
0.184558
0.181588
0.479645
0.408248
0.365807
0.350618
0.348338
0.352045
0.357457
0.360076
0.361016
0.360631
0.358901
0.35546
0.349385
0.344573
0.345424
0.362417
0.408655
0.480263
0.182526
0.179006
0.475192
0.403069
0.362912
0.348277
0.34698
0.352572
0.358258
0.361212
0.36239
0.362113
0.360435
0.357127
0.351198
0.345434
0.345464
0.36146
0.40402
0.476249
0.179965
0.175979
0.469849
0.396929
0.358913
0.347558
0.34752
0.351117
0.358361
0.361989
0.363542
0.363385
0.361686
0.358377
0.353201
0.346051
0.346157
0.359009
0.398268
0.471491
0.176824
0.172214
0.463154
0.389904
0.354255
0.344078
0.3449
0.350393
0.357956
0.362093
0.364205
0.364216
0.362513
0.359071
0.353671
0.346475
0.344096
0.354838
0.391797
0.464969
0.172492
0.168128
0.455765
0.382386
0.349742
0.341531
0.344598
0.350306
0.356605
0.360957
0.363933
0.364231
0.362499
0.358885
0.353375
0.346481
0.34184
0.351026
0.384514
0.457795
0.167884
0.163002
0.446507
0.373854
0.344806
0.33826
0.342807
0.35037
0.358168
0.362354
0.363305
0.363199
0.361327
0.357527
0.351832
0.34472
0.339359
0.346814
0.376077
0.448059
0.16184
0.157477
0.435838
0.365147
0.340486
0.336279
0.342952
0.350749
0.356832
0.361003
0.364331
0.364953
0.363331
0.359718
0.354285
0.347017
0.339283
0.342566
0.367113
0.436997
0.155792
0.151932
0.424493
0.356683
0.336613
0.336721
0.345801
0.351948
0.35783
0.361359
0.363377
0.363731
0.361977
0.358329
0.352788
0.345683
0.339469
0.338434
0.358152
0.42475
0.149709
0.146514
0.412619
0.348935
0.333404
0.337409
0.34726
0.354838
0.359411
0.363834
0.365648
0.365112
0.364462
0.361353
0.356186
0.348971
0.340212
0.335282
0.349575
0.411302
0.144037
0.141491
0.400168
0.342587
0.331639
0.338423
0.348862
0.355941
0.361695
0.364686
0.366121
0.365701
0.364926
0.361857
0.356918
0.350167
0.3399
0.332969
0.342395
0.398497
0.139951
0.137792
0.387983
0.338025
0.332186
0.342002
0.351545
0.358337
0.3626
0.364787
0.366143
0.366189
0.364984
0.362468
0.359208
0.352914
0.343796
0.333407
0.33733
0.385945
0.137447
0.136597
0.374571
0.333967
0.33509
0.345148
0.353459
0.359263
0.36341
0.36538
0.366618
0.366621
0.365502
0.363167
0.360013
0.354442
0.345902
0.336164
0.3349
0.374739
0.137015
0.136892
0.364222
0.333091
0.33662
0.347114
0.354544
0.359706
0.364122
0.366102
0.367324
0.367886
0.366309
0.364008
0.361033
0.356074
0.348979
0.339145
0.334234
0.364934
0.137508
0.13931
0.355686
0.333202
0.339989
0.34972
0.356476
0.360609
0.364168
0.366943
0.367514
0.367516
0.366443
0.36443
0.361799
0.357394
0.350857
0.341148
0.334104
0.356398
0.140506
0.144419
0.349399
0.334499
0.342947
0.352049
0.357833
0.361665
0.365144
0.367007
0.367705
0.368133
0.366806
0.364974
0.362306
0.358969
0.353333
0.344379
0.335205
0.34941
0.144703
0.149964
0.343465
0.33691
0.346771
0.354952
0.359883
0.362469
0.364845
0.366879
0.367816
0.367908
0.367251
0.365527
0.363953
0.360785
0.355636
0.347237
0.33693
0.343313
0.150318
0.157509
0.33788
0.338852
0.34997
0.357496
0.361707
0.364218
0.365795
0.366789
0.36723
0.367263
0.366833
0.365684
0.36452
0.362106
0.357953
0.350716
0.339729
0.338118
0.158097
0.166985
0.334363
0.343074
0.354521
0.360649
0.363542
0.365121
0.365807
0.36641
0.366632
0.366664
0.366498
0.366013
0.36538
0.363867
0.360658
0.354411
0.343
0.33448
0.166592
0.177913
0.332979
0.348062
0.359009
0.363886
0.365776
0.366375
0.366331
0.366442
0.366511
0.366541
0.366515
0.366375
0.366354
0.365814
0.363989
0.359191
0.348316
0.333055
0.178388
0.192124
0.333481
0.354894
0.364398
0.367499
0.368136
0.367926
0.3675
0.367033
0.36686
0.366866
0.367039
0.367469
0.367839
0.368067
0.36744
0.364307
0.354755
0.333377
0.191587
0.207938
0.339888
0.363509
0.370122
0.371105
0.370453
0.369478
0.368625
0.368063
0.367788
0.367798
0.368102
0.368695
0.369529
0.370447
0.371103
0.37019
0.363675
0.340007
0.208122
0.226171
0.34947
0.373293
0.375983
0.374577
0.37262
0.370958
0.369742
0.368961
0.368579
0.368566
0.368924
0.369669
0.370859
0.372514
0.374495
0.375964
0.37336
0.349773
0.226289
0.246795
0.365433
0.384441
0.381605
0.377484
0.374248
0.372012
0.370555
0.369678
0.369268
0.369267
0.369678
0.370553
0.372012
0.374253
0.377512
0.381677
0.384466
0.365249
0.246508
0.268185
0.385635
0.395675
0.386247
0.379386
0.375277
0.37276
0.371234
0.37036
0.369963
0.36996
0.370353
0.371219
0.372735
0.375246
0.379349
0.386214
0.395789
0.385974
0.26851
0.291516
0.41147
0.405199
0.388456
0.380079
0.375697
0.373257
0.371856
0.371096
0.370766
0.370765
0.371096
0.371853
0.373245
0.375686
0.380062
0.388463
0.40522
0.411287
0.29121
0.314342
0.435035
0.409287
0.38892
0.380065
0.375769
0.373597
0.372484
0.371938
0.371718
0.37172
0.371942
0.372493
0.373597
0.375768
0.38005
0.388916
0.409287
0.435023
0.314576
0.337891
0.445037
0.407016
0.385676
0.378068
0.375039
0.373756
0.373188
0.37295
0.372866
0.372868
0.372957
0.3732
0.373767
0.375047
0.378071
0.385667
0.407001
0.445009
0.337879
0.364465
0.421687
0.386499
0.377501
0.375372
0.374622
0.374346
0.374271
0.374254
0.374252
0.374252
0.374254
0.374271
0.374345
0.374623
0.375372
0.377503
0.386501
0.421713
0.364476
0.552268
1.11406
0.933984
0.744118
0.602179
0.512797
0.462434
0.435426
0.421319
0.414759
0.413795
0.418692
0.431692
0.457864
0.507302
0.595008
0.736027
0.925801
1.10224
0.549785
0.550345
1.11336
0.925449
0.737441
0.601293
0.512626
0.462585
0.435716
0.421683
0.415241
0.414027
0.418829
0.431826
0.457207
0.506242
0.589664
0.727448
0.915295
1.09756
0.547413
0.547856
1.11414
0.935966
0.744471
0.601184
0.512536
0.462559
0.436104
0.422332
0.41511
0.414121
0.418915
0.431591
0.456987
0.505543
0.59061
0.729239
0.918315
1.09432
0.54589
0.551434
1.1129
0.934841
0.744532
0.599497
0.512082
0.462587
0.435623
0.421836
0.415474
0.414364
0.419333
0.431767
0.456582
0.50321
0.590512
0.726832
0.918236
1.09132
0.540143
0.548681
1.1018
0.922566
0.735795
0.593739
0.510131
0.462659
0.4357
0.421388
0.414958
0.414691
0.419053
0.431462
0.456179
0.503307
0.586929
0.726874
0.923117
1.09233
0.540304
0.545068
1.10897
0.927634
0.741655
0.599954
0.512621
0.463107
0.43593
0.421607
0.415089
0.414564
0.419293
0.431228
0.455821
0.501708
0.590172
0.727658
0.920935
1.094
0.540674
0.550214
1.10936
0.92255
0.739236
0.603951
0.513777
0.463294
0.436576
0.421882
0.415654
0.414456
0.419008
0.430952
0.455596
0.501394
0.588401
0.730469
0.908895
1.08651
0.539105
0.545061
1.10749
0.9189
0.736125
0.603669
0.51228
0.46352
0.436898
0.422406
0.415391
0.414171
0.418829
0.43097
0.455535
0.501011
0.582995
0.73008
0.914175
1.0958
0.53636
0.549338
1.10711
0.926993
0.745466
0.604353
0.514279
0.464096
0.437294
0.422466
0.415193
0.413861
0.418602
0.430837
0.455436
0.501823
0.584741
0.728648
0.916065
1.08843
0.537553
0.551917
1.10079
0.934617
0.740368
0.60045
0.513688
0.464728
0.437888
0.422683
0.415002
0.4136
0.418462
0.430661
0.455417
0.503
0.586983
0.727325
0.910201
1.08923
0.539668
0.552581
1.09987
0.927791
0.750008
0.605606
0.512703
0.465024
0.438167
0.422771
0.415238
0.413985
0.418199
0.430442
0.455227
0.501565
0.583134
0.719678
0.921549
1.09005
0.538587
0.552381
1.11216
0.937
0.750786
0.605325
0.514221
0.465502
0.438203
0.423208
0.415715
0.413876
0.41791
0.430265
0.455508
0.504156
0.589527
0.726539
0.920248
1.09418
0.539133
0.552177
1.11425
0.935568
0.748891
0.604088
0.513434
0.465341
0.437772
0.42275
0.415204
0.413652
0.418063
0.430294
0.455503
0.503533
0.588827
0.719422
0.91852
1.08813
0.53565
0.547477
1.11416
0.9325
0.74755
0.603323
0.51446
0.465412
0.437968
0.4222
0.414658
0.413154
0.41767
0.430064
0.45512
0.502904
0.589083
0.729956
0.91058
1.09934
0.54357
0.555546
1.11674
0.923282
0.745069
0.601221
0.514086
0.464606
0.437006
0.422188
0.414627
0.413079
0.417834
0.429898
0.454521
0.500232
0.584016
0.727721
0.91089
1.09835
0.542139
0.558456
1.11185
0.933765
0.743316
0.597833
0.512578
0.464302
0.436903
0.422153
0.414719
0.413034
0.417435
0.429827
0.454854
0.501851
0.588248
0.725725
0.908357
1.09816
0.543478
0.553632
1.11749
0.938826
0.736143
0.599617
0.512693
0.464254
0.436965
0.42225
0.415099
0.413094
0.417519
0.429825
0.455076
0.502737
0.587313
0.717268
0.909435
1.0981
0.542127
0.554627
1.11394
0.926876
0.739179
0.597781
0.511653
0.463796
0.43594
0.421168
0.414395
0.413126
0.417912
0.429922
0.454654
0.502356
0.586906
0.724767
0.911833
1.09121
0.540958
0.550634
1.11214
0.926442
0.736582
0.595917
0.510819
0.463408
0.435742
0.421072
0.414815
0.413494
0.417832
0.429805
0.454884
0.501745
0.582852
0.718717
0.919225
1.09286
0.536752
0.549669
1.10386
0.92149
0.726313
0.589505
0.509042
0.462643
0.435436
0.420894
0.414194
0.412986
0.417603
0.429508
0.454698
0.500669
0.587417
0.728026
0.920473
1.09539
0.538594
0.544429
1.10546
0.915427
0.725514
0.587931
0.50849
0.461907
0.435286
0.420845
0.414198
0.412974
0.417297
0.429361
0.454668
0.501634
0.581991
0.724516
0.917703
1.09004
0.540704
0.544791
1.10346
0.919798
0.724337
0.586012
0.507691
0.461841
0.43523
0.42083
0.414379
0.413126
0.417586
0.429251
0.454019
0.500465
0.584408
0.722977
0.916586
1.09875
0.539213
0.542241
1.09652
0.9154
0.715519
0.584596
0.506998
0.462006
0.435464
0.42113
0.41513
0.413636
0.417102
0.429148
0.453996
0.501123
0.58601
0.714159
0.904271
1.09595
0.544546
0.541213
1.09955
0.905353
0.716466
0.583545
0.505976
0.460675
0.434271
0.419987
0.414342
0.41305
0.416895
0.429204
0.453612
0.499956
0.586279
0.719574
0.917563
1.0939
0.544092
0.538275
1.10018
0.906988
0.718143
0.582426
0.504911
0.459352
0.434065
0.419972
0.414148
0.412821
0.416833
0.428892
0.45359
0.500156
0.585349
0.712562
0.918051
1.1017
0.543683
0.539592
1.09867
0.911869
0.711313
0.581415
0.504262
0.458215
0.433582
0.41999
0.413768
0.412511
0.417097
0.429066
0.453531
0.500439
0.585061
0.717681
0.910496
1.09273
0.539302
0.541347
1.09439
0.907556
0.718602
0.581688
0.503616
0.457889
0.433591
0.420622
0.413318
0.412394
0.416857
0.428843
0.453011
0.499469
0.581205
0.721798
0.908839
1.09395
0.53962
0.538544
1.10105
0.916274
0.723848
0.581864
0.502431
0.457507
0.432814
0.419673
0.412612
0.412098
0.417364
0.429259
0.452819
0.49785
0.582374
0.71537
0.911365
1.09369
0.540598
0.541383
1.09379
0.91183
0.720998
0.583452
0.501678
0.457274
0.432119
0.419153
0.412554
0.412549
0.417412
0.429139
0.452512
0.497958
0.581442
0.718904
0.910021
1.09568
0.538634
0.536745
1.09827
0.908472
0.719515
0.579819
0.500956
0.456404
0.432369
0.418344
0.412458
0.412242
0.417307
0.428954
0.452217
0.496131
0.577114
0.716534
0.90012
1.09315
0.533725
0.539311
1.09822
0.898941
0.711764
0.581958
0.500557
0.456336
0.431282
0.41824
0.412566
0.41273
0.417404
0.429037
0.452091
0.496572
0.578581
0.714478
0.904217
1.08738
0.535586
0.542019
1.09868
0.905002
0.7128
0.580876
0.500333
0.455573
0.431248
0.418594
0.412879
0.412206
0.416853
0.428452
0.451706
0.494651
0.575917
0.707949
0.897296
1.08962
0.538208
0.540451
1.0959
0.89653
0.710024
0.579768
0.499689
0.454638
0.429931
0.417349
0.412056
0.412664
0.417459
0.428806
0.451779
0.495402
0.577946
0.714906
0.908133
1.08866
0.537979
0.535355
1.09401
0.902503
0.709041
0.578325
0.499237
0.45457
0.429806
0.417342
0.411917
0.411903
0.416538
0.427895
0.451367
0.494985
0.573466
0.707368
0.906427
1.09213
0.536873
0.534496
1.08404
0.898014
0.706734
0.576866
0.498716
0.453759
0.429632
0.417422
0.411993
0.411214
0.415807
0.427797
0.451179
0.49546
0.574211
0.71142
0.906652
1.09227
0.536919
0.533697
1.08486
0.89466
0.705414
0.575954
0.498222
0.453619
0.429653
0.417648
0.412708
0.411348
0.415829
0.42815
0.451121
0.495148
0.573251
0.709695
0.904089
1.08588
0.533323
0.535847
1.07869
0.886646
0.69864
0.574005
0.497212
0.453383
0.42967
0.418297
0.412172
0.41137
0.415742
0.427261
0.45093
0.494692
0.573814
0.706406
0.903957
1.09467
0.538425
0.534789
1.08257
0.882894
0.698007
0.571825
0.496558
0.453027
0.42962
0.418067
0.412444
0.41161
0.415882
0.427182
0.450942
0.494182
0.570722
0.707385
0.9023
1.09624
0.538884
0.533007
1.07482
0.881252
0.696081
0.571359
0.496125
0.452986
0.429683
0.417673
0.413209
0.412218
0.416316
0.426981
0.451056
0.493518
0.572257
0.700594
0.900122
1.09623
0.537948
0.531789
1.07537
0.879745
0.695156
0.569108
0.495699
0.452948
0.42981
0.417613
0.412842
0.411353
0.415266
0.426623
0.450535
0.4929
0.569614
0.704466
0.896767
1.09685
0.53595
0.527635
1.0752
0.878001
0.694925
0.568877
0.495253
0.453035
0.430576
0.417651
0.412587
0.411459
0.415227
0.426403
0.450265
0.492534
0.569702
0.697371
0.888192
1.09517
0.537196
0.527874
1.07371
0.879583
0.692671
0.567309
0.494619
0.453345
0.430202
0.417575
0.411983
0.411791
0.415265
0.42628
0.449758
0.491858
0.568652
0.697465
0.894348
1.09313
0.531731
0.525857
1.0665
0.877108
0.688543
0.565997
0.494232
0.452896
0.431024
0.417721
0.412064
0.411913
0.415689
0.426193
0.449046
0.490963
0.565455
0.693916
0.89123
1.09009
0.532559
0.525564
1.06521
0.874452
0.686159
0.565181
0.493749
0.452137
0.43049
0.417658
0.412282
0.411292
0.415064
0.426009
0.448217
0.490134
0.564191
0.692291
0.887687
1.08339
0.532644
0.526749
1.07037
0.87201
0.686785
0.564411
0.493311
0.45192
0.430205
0.417706
0.411791
0.410833
0.415426
0.426447
0.448251
0.489087
0.562279
0.685147
0.877811
1.08434
0.530965
0.526005
1.06495
0.868482
0.684251
0.563362
0.493063
0.451974
0.42982
0.418367
0.412076
0.410953
0.414821
0.425373
0.44689
0.487659
0.560773
0.684148
0.87751
1.08136
0.524852
0.523007
1.07116
0.866062
0.680593
0.561768
0.492551
0.45246
0.430128
0.417949
0.412633
0.41117
0.414955
0.425191
0.446537
0.486832
0.559401
0.680928
0.871985
1.07853
0.524936
0.520555
1.06209
0.858168
0.675703
0.560766
0.49191
0.451871
0.431035
0.418212
0.412365
0.411754
0.415635
0.42511
0.446334
0.486439
0.557702
0.677808
0.868895
1.07584
0.522085
0.518754
1.06127
0.853873
0.674312
0.559317
0.490999
0.451873
0.430681
0.418415
0.412892
0.411458
0.415003
0.424762
0.446078
0.486337
0.555773
0.674271
0.863464
1.07125
0.520651
0.516205
1.05265
0.849703
0.671858
0.557688
0.489668
0.452425
0.4303
0.419036
0.412786
0.41163
0.415158
0.424575
0.445077
0.483955
0.553268
0.669873
0.858244
1.06832
0.517652
0.513718
1.05039
0.846308
0.669362
0.556327
0.488062
0.452106
0.430347
0.419042
0.413018
0.412393
0.416047
0.424385
0.443437
0.482058
0.550911
0.665836
0.849988
1.06399
0.515302
0.510779
1.0475
0.842583
0.667665
0.555888
0.487736
0.451867
0.430517
0.419117
0.413454
0.412185
0.415848
0.42433
0.442925
0.480698
0.547825
0.662152
0.843626
1.05496
0.513121
0.509589
1.04139
0.838179
0.66545
0.55484
0.487395
0.450893
0.430976
0.418827
0.413185
0.412622
0.415644
0.424353
0.442328
0.479309
0.544434
0.657489
0.836393
1.05274
0.51051
0.507692
1.04611
0.83513
0.663058
0.553539
0.487235
0.451284
0.430188
0.418936
0.413288
0.412502
0.416315
0.425098
0.442004
0.477509
0.540436
0.652666
0.828786
1.05078
0.508622
0.506728
1.04464
0.831201
0.660329
0.551827
0.486416
0.44982
0.430396
0.419799
0.413552
0.412356
0.415637
0.423923
0.44161
0.475251
0.537876
0.64817
0.822482
1.04629
0.50519
0.505643
1.04491
0.828097
0.658218
0.550162
0.485361
0.450474
0.431423
0.42004
0.413748
0.412137
0.415161
0.424101
0.442066
0.475083
0.536515
0.64264
0.814425
1.04047
0.501496
0.504509
1.04263
0.824026
0.654866
0.547599
0.483365
0.449411
0.431075
0.420455
0.414344
0.411974
0.414351
0.421952
0.438685
0.472626
0.534
0.636745
0.807651
1.0315
0.495764
0.503369
1.04037
0.820915
0.652043
0.545239
0.480846
0.450098
0.43093
0.4206
0.414552
0.412345
0.41376
0.420392
0.436038
0.46853
0.528229
0.630913
0.801321
1.0269
0.490688
0.501435
1.03118
0.815692
0.648086
0.54253
0.479613
0.448757
0.430063
0.420611
0.414876
0.412616
0.413338
0.419428
0.434477
0.466554
0.524284
0.625148
0.794304
1.01844
0.485159
0.499549
1.02932
0.812452
0.644238
0.538372
0.478367
0.447141
0.429821
0.420972
0.415229
0.412901
0.413527
0.419922
0.434269
0.464569
0.51992
0.619057
0.785725
1.0094
0.479396
0.496973
1.02385
0.807096
0.640205
0.535854
0.478573
0.447637
0.429892
0.421243
0.41559
0.413165
0.413547
0.418885
0.433501
0.461297
0.515287
0.613357
0.778214
0.999984
0.475288
0.491849
1.01256
0.800748
0.635603
0.530643
0.474015
0.445026
0.429698
0.42146
0.415955
0.413561
0.414129
0.417857
0.430957
0.458181
0.511519
0.607337
0.769666
0.990754
0.469683
0.487762
1.00783
0.795017
0.631024
0.529258
0.474074
0.445758
0.430545
0.421851
0.416362
0.413937
0.414257
0.417537
0.428882
0.453177
0.505369
0.599053
0.761565
0.986161
0.465571
0.482523
0.998807
0.787651
0.625804
0.522766
0.470387
0.443591
0.429535
0.421883
0.416729
0.414358
0.414419
0.417384
0.426397
0.448903
0.498818
0.590886
0.752374
0.980974
0.461114
0.479588
0.992323
0.781868
0.620813
0.521205
0.469829
0.443346
0.429507
0.422283
0.417177
0.41486
0.415185
0.418317
0.426189
0.448994
0.491639
0.581866
0.742197
0.975123
0.457277
0.474856
0.98497
0.773874
0.615863
0.519725
0.469361
0.443119
0.429576
0.422565