/*--------------------------------*- C++ -*----------------------------------*\
  =========                 |
  \\      /  F ield         | OpenFOAM: The Open Source CFD Toolbox
   \\    /   O peration     | Website:  https://openfoam.org
    \\  /    A nd           | Version:  6
     \\/     M anipulation  |
\*---------------------------------------------------------------------------*/
FoamFile
{
    version     2.0;
    format      ascii;
    class       volScalarField;
    location    "18";
    object      nut;
}
// * * * * * * * * * * * * * * * * * * * * * * * * * * * * * * * * * * * * * //

dimensions      [0 2 -1 0 0 0 0];

internalField   nonuniform List<scalar> 
10000
(
1.4355e-05
6.92194e-05
9.00661e-05
0.000112411
0.000141847
0.000180335
0.000221291
0.000259986
0.000289066
0.000304788
0.000305034
0.000289634
0.000260977
0.000224402
0.000184763
0.000147265
0.000116703
9.25428e-05
7.02246e-05
1.44315e-05
1.43199e-05
6.92386e-05
8.97973e-05
0.000112281
0.00014206
0.000182238
0.000223533
0.000264267
0.000292988
0.000308488
0.000309637
0.000293713
0.000262926
0.000225845
0.000187316
0.00014927
0.000117944
9.316e-05
6.99935e-05
1.43048e-05
1.42647e-05
6.89088e-05
9.06532e-05
0.000114482
0.000143039
0.000181751
0.000221312
0.000260908
0.000291622
0.000309019
0.000310072
0.00029485
0.000264959
0.000227309
0.0001868
0.000148276
0.000118047
9.22363e-05
7.03173e-05
1.44132e-05
1.44569e-05
6.9749e-05
9.19916e-05
0.000113737
0.000144237
0.000180128
0.000220637
0.00025959
0.000291036
0.000307543
0.000307225
0.000292151
0.000264401
0.000225736
0.000185718
0.00014682
0.000118207
9.28651e-05
7.018e-05
1.45365e-05
1.4493e-05
7.00664e-05
9.11652e-05
0.00011375
0.000142831
0.000179985
0.00022081
0.000259589
0.000288833
0.000304939
0.000309607
0.000295296
0.000266357
0.000226868
0.000184842
0.000146445
0.000117782
9.30193e-05
7.04222e-05
1.44689e-05
1.43489e-05
7.00374e-05
9.1193e-05
0.000114463
0.000144172
0.000180702
0.000221359
0.000262406
0.000287692
0.000303845
0.000304303
0.000290162
0.000263392
0.000225077
0.000184603
0.000146337
0.00011692
9.23043e-05
7.06537e-05
1.44743e-05
1.45541e-05
7.01146e-05
9.11755e-05
0.000113113
0.000142485
0.000179612
0.000220266
0.000258573
0.000287161
0.000303502
0.000303756
0.000289553
0.000262395
0.000225885
0.000186783
0.000146477
0.000115429
9.18906e-05
7.02527e-05
1.43787e-05
1.43231e-05
7.02367e-05
9.19573e-05
0.000113777
0.000144504
0.00018173
0.000221131
0.000259872
0.000287414
0.000303485
0.000304974
0.000291395
0.000264874
0.000227807
0.000186648
0.000147081
0.000115417
9.17902e-05
6.96385e-05
1.43461e-05
1.43734e-05
6.98214e-05
9.02207e-05
0.000112365
0.000143041
0.000180535
0.000222194
0.000259365
0.000287485
0.000303468
0.00030478
0.000291156
0.000266389
0.000228297
0.000185529
0.00014893
0.000115592
9.10775e-05
6.97467e-05
1.42425e-05
1.44149e-05
7.01397e-05
9.15163e-05
0.000113608
0.000142091
0.0001803
0.000222209
0.00025885
0.00029084
0.000305011
0.000307639
0.000294098
0.000264644
0.000225428
0.000185604
0.000148398
0.000116719
9.12416e-05
6.97567e-05
1.42225e-05
1.43088e-05
6.98896e-05
9.06887e-05
0.000111744
0.00014227
0.000180553
0.000223728
0.000258989
0.000288618
0.000305325
0.000304618
0.000290421
0.000264453
0.000225664
0.00018577
0.000147254
0.000114709
9.12236e-05
6.96559e-05
1.42208e-05
1.43819e-05
6.96937e-05
9.08557e-05
0.000112399
0.000144278
0.000182337
0.000222503
0.000258995
0.000286428
0.000302733
0.000302815
0.000288592
0.00026092
0.000224373
0.000183603
0.00014537
0.000114067
9.13316e-05
6.99345e-05
1.43075e-05
1.42516e-05
6.95478e-05
9.05326e-05
0.000112683
0.000143069
0.000182027
0.00022357
0.000259914
0.000287015
0.000302627
0.000303313
0.000288236
0.000260314
0.000223469
0.000183179
0.000145194
0.000114548
9.15193e-05
7.01589e-05
1.42833e-05
1.43628e-05
6.95348e-05
9.11511e-05
0.000111745
0.000144097
0.000184317
0.000224485
0.000259925
0.000287813
0.000303382
0.000306502
0.00028944
0.000261156
0.000224404
0.000184424
0.000145434
0.000114308
9.22504e-05
7.03159e-05
1.4422e-05
1.4304e-05
6.93737e-05
9.04381e-05
0.000112208
0.000142554
0.000182526
0.000224371
0.000262225
0.000291365
0.000304811
0.00030515
0.000292633
0.000262236
0.000226262
0.000184499
0.00014569
0.000115477
9.31391e-05
7.00051e-05
1.43476e-05
1.4337e-05
6.95545e-05
9.04847e-05
0.000113172
0.000143932
0.000181284
0.000221417
0.000260106
0.000291523
0.000306023
0.000304677
0.000290504
0.0002627
0.000227911
0.000186368
0.000146497
0.000115591
9.24158e-05
7.02894e-05
1.43217e-05
1.42423e-05
6.92453e-05
9.05953e-05
0.000110799
0.000142092
0.000182263
0.000221754
0.00026212
0.000290224
0.000304269
0.000304368
0.00029118
0.000264037
0.000227012
0.000186855
0.000148041
0.000115686
9.26042e-05
7.01753e-05
1.44475e-05
1.43465e-05
6.92443e-05
9.08802e-05
0.00011162
0.000143958
0.000180818
0.000221692
0.000259592
0.000288774
0.000306649
0.000304824
0.000291324
0.000265453
0.000227719
0.000185705
0.000145962
0.000115679
9.31318e-05
6.99408e-05
1.43751e-05
1.44184e-05
7.00877e-05
9.20052e-05
0.00011249
0.000142174
0.000180557
0.000222013
0.000260439
0.000289237
0.000306322
0.000306742
0.000290962
0.000263458
0.000225211
0.000184005
0.0001459
0.000115821
9.18996e-05
7.04047e-05
1.43305e-05
1.4451e-05
7.00283e-05
9.18284e-05
0.000113592
0.000143101
0.000181421
0.000224335
0.000265068
0.000292778
0.000305127
0.000304008
0.000289378
0.000263754
0.000225749
0.000185774
0.000147562
0.000114931
9.32349e-05
7.05705e-05
1.4415e-05
1.43188e-05
6.97577e-05
9.27006e-05
0.000113518
0.000143819
0.000181983
0.000222842
0.00026321
0.000290768
0.000304864
0.00030393
0.000290862
0.000260058
0.000222325
0.000182059
0.000144657
0.000114938
9.25498e-05
7.0444e-05
1.43785e-05
1.44373e-05
6.97235e-05
9.19178e-05
0.000114814
0.00014614
0.000183153
0.000223482
0.000263028
0.00029
0.000306687
0.000304343
0.000289628
0.000260098
0.000222619
0.000182394
0.000144649
0.000115009
9.27019e-05
7.04314e-05
1.44462e-05
1.43205e-05
6.99155e-05
9.28734e-05
0.000116382
0.000144971
0.000184329
0.000225108
0.000265634
0.000290555
0.000306076
0.000305525
0.000289688
0.000262162
0.000223088
0.000183334
0.00014551
0.000115938
9.35589e-05
7.04524e-05
1.43702e-05
1.43927e-05
6.98749e-05
9.2619e-05
0.000115546
0.000143823
0.00018172
0.000222922
0.00026365
0.00029191
0.000306166
0.000305802
0.000291871
0.000261272
0.00022348
0.000183771
0.000145918
0.000115848
9.26696e-05
7.05279e-05
1.45083e-05
1.4283e-05
6.9759e-05
9.27144e-05
0.000114665
0.000144124
0.000182308
0.000223061
0.000261488
0.000289242
0.000304539
0.000304667
0.000289839
0.000262863
0.000224279
0.000184175
0.000146397
0.000116212
9.27519e-05
7.02926e-05
1.43998e-05
1.44042e-05
6.95739e-05
9.27177e-05
0.000114872
0.000145052
0.000182384
0.000225905
0.00026404
0.000292828
0.000308828
0.00030882
0.000292297
0.000263361
0.000225486
0.000185333
0.000147199
0.000115989
9.31048e-05
7.02454e-05
1.44185e-05
1.45048e-05
7.00245e-05
9.25902e-05
0.000115897
0.000146622
0.000182728
0.000222707
0.000260749
0.00028859
0.000304962
0.000308323
0.000293109
0.000263375
0.000228718
0.0001886
0.000150079
0.000118039
9.30764e-05
7.02197e-05
1.44489e-05
1.44063e-05
6.97724e-05
9.20029e-05
0.0001144
0.000144541
0.000182055
0.000222728
0.000260383
0.000289039
0.000307228
0.000306964
0.00029323
0.000264697
0.000226795
0.000186543
0.000149294
0.000117943
9.29752e-05
7.05877e-05
1.44802e-05
1.4394e-05
7.03853e-05
9.28179e-05
0.000114499
0.000146277
0.0001841
0.000224697
0.000263452
0.000290815
0.000307224
0.000304804
0.000290496
0.000263881
0.000229363
0.000188915
0.000150198
0.000118505
9.30455e-05
7.06113e-05
1.43853e-05
1.44146e-05
7.00691e-05
9.18414e-05
0.00011457
0.000144827
0.000182922
0.000223121
0.000263194
0.000292001
0.000305191
0.000304355
0.000291622
0.0002661
0.000226436
0.000187325
0.000149421
0.000117969
9.32006e-05
7.03949e-05
1.44233e-05
1.43516e-05
7.00784e-05
9.21386e-05
0.00011426
0.00014502
0.000182681
0.000223185
0.000260848
0.000289405
0.000307158
0.00030524
0.00029108
0.000263246
0.000225563
0.000186468
0.000147804
0.000116203
9.29757e-05
7.04542e-05
1.44995e-05
1.44318e-05
7.02261e-05
9.17361e-05
0.000116386
0.000147149
0.000183873
0.000224663
0.000260702
0.000288539
0.000304921
0.000304595
0.000292778
0.000264147
0.000226842
0.000187951
0.00014933
0.000117725
9.2431e-05
7.05587e-05
1.4489e-05
1.43878e-05
7.02137e-05
9.16847e-05
0.000115334
0.000145847
0.000185269
0.000223806
0.000260194
0.000287907
0.00030293
0.000303717
0.000289581
0.000261978
0.000224456
0.000184681
0.000145991
0.000114736
9.22872e-05
7.05552e-05
1.44944e-05
1.43097e-05
6.98177e-05
9.11997e-05
0.000116079
0.00014724
0.000184696
0.000225336
0.000261363
0.000290766
0.000305798
0.000304422
0.000289209
0.000260018
0.000224446
0.000187436
0.000146351
0.000116339
9.31212e-05
7.02458e-05
1.44401e-05
1.43965e-05
7.00933e-05
9.21095e-05
0.000114898
0.000145175
0.000185059
0.000226137
0.000263239
0.000288772
0.000303569
0.000304829
0.000291195
0.000261354
0.000225454
0.000186015
0.000145709
0.000114805
9.17875e-05
7.00964e-05
1.43214e-05
1.43273e-05
6.99607e-05
9.1141e-05
0.000115111
0.00014547
0.000183605
0.000223859
0.000261114
0.000288698
0.0003039
0.0003065
0.000288353
0.000260061
0.000224258
0.000185079
0.000146715
0.000113973
9.14472e-05
7.00582e-05
1.43408e-05
1.44388e-05
7.00991e-05
9.20288e-05
0.000116426
0.000147775
0.00018572
0.000227317
0.000265637
0.000292865
0.000305838
0.000304844
0.000288554
0.00026077
0.000223369
0.000183007
0.000145102
0.000114084
9.14023e-05
7.00374e-05
1.42558e-05
1.43751e-05
6.9869e-05
9.07847e-05
0.00011453
0.000146439
0.000184666
0.000224565
0.000263147
0.000290125
0.000306427
0.000308107
0.000293007
0.000263557
0.000226961
0.000185777
0.00014572
0.000115958
9.20651e-05
6.99517e-05
1.42395e-05
1.44038e-05
6.96503e-05
9.14203e-05
0.000115663
0.000146301
0.000182784
0.000223506
0.0002615
0.000289944
0.000309224
0.000306581
0.000291486
0.000262877
0.000224298
0.00018378
0.000146829
0.000115114
9.12051e-05
6.93632e-05
1.41609e-05
1.43355e-05
6.98563e-05
9.10785e-05
0.000114587
0.000144735
0.000182929
0.000225121
0.000263647
0.000289999
0.000307257
0.000307418
0.000289702
0.000261516
0.000223507
0.000184924
0.000146432
0.000114246
9.10782e-05
6.96348e-05
1.41577e-05
1.43538e-05
6.98899e-05
9.19141e-05
0.000116156
0.000144983
0.000182757
0.000225039
0.000261408
0.000289595
0.000305311
0.000305908
0.000290663
0.000262367
0.000224779
0.000184214
0.000145984
0.000114288
9.16774e-05
6.96389e-05
1.41612e-05
1.42648e-05
7.00748e-05
9.09328e-05
0.000115459
0.00014519
0.000183704
0.00022509
0.000263003
0.000291738
0.000309898
0.00030911
0.000293196
0.000265046
0.000225537
0.000182879
0.000144901
0.000114847
9.11529e-05
6.96845e-05
1.41528e-05
1.42283e-05
6.96102e-05
9.0625e-05
0.000114872
0.00014515
0.000184372
0.00022504
0.000263743
0.000291238
0.000308687
0.000308179
0.000292138
0.000263847
0.000226317
0.000183304
0.000144912
0.000113848
9.05738e-05
6.91455e-05
1.41661e-05
1.41627e-05
6.92843e-05
9.03418e-05
0.000113987
0.000145263
0.000183649
0.000223282
0.000261053
0.000290178
0.000307197
0.000305521
0.000292745
0.000264906
0.000227456
0.000185249
0.000145349
0.000113918
9.01726e-05
6.96559e-05
1.42427e-05
1.41422e-05
6.9554e-05
9.09803e-05
0.000114005
0.000145336
0.000183179
0.000223765
0.00026261
0.000289794
0.000305582
0.00030484
0.000289798
0.000263041
0.000225897
0.000184376
0.000145511
0.00011468
9.10523e-05
6.90716e-05
1.42034e-05
1.41307e-05
6.92841e-05
9.06983e-05
0.000114419
0.000145903
0.000184283
0.00022429
0.000263149
0.000290433
0.00030948
0.000305549
0.000291012
0.000262154
0.000224985
0.000183441
0.00014569
0.000113644
9.04613e-05
6.93333e-05
1.41974e-05
1.41486e-05
6.91223e-05
9.06724e-05
0.00011455
0.000146106
0.000183818
0.000225709
0.000261966
0.000290261
0.000307377
0.000305755
0.000293393
0.000264595
0.000224583
0.00018394
0.000145986
0.000113664
8.99911e-05
6.89693e-05
1.41438e-05
1.41115e-05
6.92405e-05
9.03384e-05
0.000116122
0.000147055
0.000185549
0.000226289
0.000262641
0.000290684
0.000305828
0.000305689
0.000290658
0.000263516
0.000226595
0.000186742
0.000146897
0.000114922
9.09276e-05
6.89402e-05
1.40448e-05
1.41079e-05
6.9282e-05
9.03463e-05
0.000115565
0.000146437
0.000185498
0.000226749
0.000264131
0.00029305
0.000310278
0.000311008
0.000294531
0.000264248
0.000226656
0.000185546
0.000146099
0.000114037
9.06453e-05
6.91711e-05
1.40515e-05
1.40385e-05
6.92451e-05
9.0287e-05
0.000115568
0.000146622
0.000186366
0.000226986
0.00026724
0.000293316
0.000310726
0.000310097
0.000295289
0.000266539
0.000229406
0.000187582
0.000146724
0.000114364
9.05937e-05
6.88791e-05
1.40278e-05
1.39853e-05
6.8833e-05
9.00116e-05
0.000115758
0.000148297
0.000187214
0.000227729
0.000265449
0.000294108
0.000311646
0.000310225
0.000294589
0.000265507
0.00022848
0.000187547
0.0001485
0.000115604
9.01758e-05
6.87978e-05
1.40042e-05
1.39533e-05
6.89796e-05
9.00092e-05
0.000115442
0.000148521
0.000188031
0.000230906
0.000270604
0.000299186
0.000313195
0.000311225
0.000295904
0.000267181
0.000229187
0.000188948
0.000148363
0.000115069
9.07502e-05
6.8979e-05
1.39868e-05
1.39153e-05
6.86153e-05
8.98528e-05
0.000114978
0.000149415
0.000190223
0.000233029
0.000271348
0.000299067
0.000313912
0.000312961
0.000297503
0.000268415
0.000229949
0.000187704
0.000149992
0.000116084
8.99617e-05
6.86554e-05
1.40467e-05
1.39305e-05
6.88367e-05
9.03456e-05
0.000115077
0.00014908
0.000190512
0.000233852
0.000273959
0.000303484
0.000318762
0.000316153
0.000299782
0.000270392
0.000231435
0.0001884
0.000149575
0.000115386
9.0507e-05
6.87924e-05
1.39631e-05
1.38643e-05
6.86772e-05
9.02405e-05
0.000116196
0.00014983
0.00019221
0.000235305
0.000274164
0.000304774
0.000321005
0.000320685
0.000305243
0.000275434
0.000235172
0.00019143
0.00015013
0.000115596
9.03317e-05
6.89136e-05
1.39859e-05
1.38472e-05
6.86351e-05
9.03721e-05
0.000116509
0.000151674
0.000195181
0.000238316
0.00027511
0.000304144
0.000320237
0.000320716
0.000306693
0.000276217
0.000235614
0.000191418
0.0001511
0.000115991
9.01773e-05
6.84973e-05
1.38921e-05
1.37919e-05
6.85746e-05
9.05222e-05
0.00011706
0.000151647
0.000196333
0.000240653
0.000279541
0.000306869
0.000322487
0.000322868
0.000309319
0.000278462
0.000237274
0.000192735
0.000151559
0.000116389
9.03687e-05
6.85179e-05
1.38615e-05
1.37716e-05
6.85575e-05
9.05975e-05
0.000117504
0.00015325
0.000197944
0.000243872
0.000283612
0.000313554
0.000328189
0.000328007
0.000312426
0.000282129
0.000241312
0.000195508
0.000152473
0.00011774
9.04698e-05
6.85303e-05
1.38437e-05
1.37461e-05
6.83577e-05
9.01707e-05
0.000118027
0.000154051
0.000199474
0.000245777
0.000285745
0.000314953
0.0003305
0.000329823
0.000315209
0.00028468
0.000242932
0.000196087
0.000153338
0.000117824
9.02745e-05
6.86313e-05
1.37941e-05
1.36852e-05
6.86133e-05
9.06682e-05
0.000118539
0.000155586
0.000201435
0.000247923
0.000288718
0.000318348
0.0003348
0.000335922
0.000319595
0.000288537
0.000246232
0.000197666
0.000154304
0.000118436
9.00348e-05
6.82457e-05
1.37618e-05
1.36737e-05
6.84564e-05
9.05972e-05
0.000119041
0.00015633
0.000203259
0.000250164
0.000291805
0.000323302
0.000339358
0.000339771
0.000323054
0.000291014
0.000247826
0.00019922
0.000155502
0.000118925
9.08216e-05
6.85158e-05
1.37158e-05
1.36293e-05
6.85607e-05
9.09842e-05
0.00011972
0.000158179
0.000205712
0.000253638
0.000295694
0.000326575
0.000342658
0.000343197
0.000326323
0.000293934
0.000249322
0.000200697
0.000155952
0.000119305
9.06926e-05
6.83428e-05
1.36618e-05
1.35867e-05
6.84993e-05
9.13645e-05
0.000120693
0.000159482
0.000207307
0.000256121
0.000298472
0.0003298
0.000346437
0.000346319
0.000328965
0.000296836
0.000252709
0.000203936
0.000156857
0.000119802
9.10309e-05
6.8434e-05
1.36258e-05
1.35413e-05
6.86987e-05
9.14475e-05
0.000121085
0.000160237
0.000208408
0.000258211
0.000301289
0.000333095
0.000350102
0.000349784
0.000332714
0.000300126
0.00025496
0.000205108
0.00015803
0.000120402
9.11067e-05
6.83812e-05
1.35658e-05
1.34896e-05
6.86633e-05
9.18797e-05
0.000121999
0.000161442
0.000208666
0.00026056
0.000304604
0.00033672
0.000353915
0.000353784
0.000336615
0.000303489
0.000257406
0.000206359
0.000159582
0.000120961
9.1219e-05
6.85062e-05
1.35185e-05
1.34204e-05
6.85468e-05
9.15631e-05
0.000121828
0.000161869
0.000211019
0.000262635
0.000307406
0.000340344
0.000358105
0.000358228
0.000340562
0.000307076
0.000261039
0.000208147
0.000161833
0.000121426
9.1062e-05
6.81624e-05
1.34225e-05
1.33741e-05
6.84691e-05
9.15702e-05
0.00012215
0.000162306
0.000210025
0.000263865
0.000310602
0.000344703
0.000362617
0.000362615
0.000344678
0.000310443
0.000263563
0.000209806
0.000162368
0.000121496
9.09416e-05
6.81464e-05
1.33638e-05
1.33084e-05
6.83803e-05
9.14133e-05
0.000121803
0.000162485
0.000211475
0.000264484
0.000313619
0.000348556
0.000367045
0.000367099
0.000348731
0.000313897
0.000266331
0.000211501
0.000163343
0.000121832
9.09495e-05
6.80377e-05
1.32898e-05
1.32148e-05
6.82218e-05
9.11929e-05
0.000121542
0.000161635
0.000214254
0.000269798
0.000317693
0.000353064
0.000371876
0.000371893
0.000353045
0.000317345
0.000268757
0.000213404
0.000163933
0.000121775
9.07787e-05
6.80512e-05
1.32247e-05
1.31149e-05
6.80421e-05
9.09289e-05
0.000121241
0.000161998
0.000213284
0.00027025
0.000320718
0.000357358
0.000376708
0.000376684
0.000357221
0.000320411
0.000270421
0.000216382
0.000164298
0.000121393
9.04196e-05
6.77662e-05
1.31082e-05
1.29853e-05
6.77497e-05
9.06154e-05
0.000121368
0.000163444
0.000215698
0.000271594
0.000324589
0.000362254
0.000381882
0.000381638
0.000361601
0.000323732
0.00027124
0.000216607
0.000163974
0.000120711
9.00619e-05
6.76836e-05
1.30242e-05
1.28499e-05
6.73707e-05
9.03101e-05
0.000123939
0.000166171
0.000221075
0.000278226
0.000330222
0.00036794
0.000387677
0.000387337
0.000366831
0.000328278
0.000276054
0.000217788
0.000163484
0.000120033
8.98452e-05
6.75757e-05
1.29058e-05
1.26794e-05
6.70214e-05
8.9617e-05
0.000122891
0.000168686
0.000222721
0.000280339
0.000334746
0.000373539
0.000393734
0.000393368
0.000372403
0.000332752
0.000277721
0.000218916
0.000164106
0.000120611
8.97201e-05
6.73867e-05
1.27326e-05
1.24687e-05
6.65475e-05
8.92472e-05
0.000123732
0.000169652
0.000224349
0.000284647
0.000339757
0.00037941
0.000400287
0.000400193
0.000379154
0.000339351
0.000283994
0.000223349
0.00016732
0.000122785
8.96647e-05
6.70469e-05
1.25213e-05
1.2219e-05
6.60308e-05
8.8749e-05
0.000124189
0.00017254
0.000228838
0.000286267
0.000344111
0.0003853
0.000407137
0.000407303
0.000386034
0.000345895
0.000291315
0.000228058
0.000171689
0.000124372
8.94155e-05
6.67166e-05
1.22526e-05
1.19223e-05
6.53742e-05
8.81819e-05
0.000124582
0.000173263
0.000229915
0.000289873
0.000348333
0.000390613
0.000413775
0.000414353
0.000392969
0.00035227
0.000296869
0.000233091
0.000173819
0.000125179
8.91743e-05
6.61355e-05
1.19125e-05
1.1594e-05
6.47737e-05
8.77669e-05
0.000125512
0.00017535
0.000234582
0.000295128
0.000351477
0.00039424
0.000419388
0.000420609
0.000399041
0.000357809
0.000301994
0.00023839
0.000176435
0.000126858
8.90788e-05
6.57001e-05
1.15483e-05
1.11927e-05
6.40129e-05
8.73201e-05
0.000126672
0.000177379
0.00023804
0.000301756
0.000361739
0.000404823
0.000425536
0.000425775
0.000403819
0.000362124
0.000305897
0.000241988
0.000179407
0.000128795
8.89044e-05
6.4923e-05
1.10939e-05
1.07909e-05
6.32196e-05
8.72058e-05
0.000128807
0.000181288
0.000245019
0.000310043
0.000367445
0.000410802
0.00043727
0.000439233
0.000417398
0.000375163
0.000318061
0.000252343
0.000185752
0.000131369
8.89589e-05
6.42092e-05
1.06767e-05
1.0403e-05
6.26144e-05
8.75729e-05
0.000131794
0.000188711
0.000257158
0.000321439
0.000379816
0.000422546
0.000446244
0.000447516
0.000425068
0.000382289
0.000324408
0.000258467
0.000193202
0.000134441
8.93295e-05
6.34775e-05
1.02651e-05
1.00378e-05
6.22734e-05
8.872e-05
0.000135849
0.000197419
0.000268792
0.000337659
0.000395432
0.000441666
0.000465567
0.000464479
0.000443942
0.000400759
0.000341349
0.000272692
0.000202058
0.000138721
9.02552e-05
6.27642e-05
9.92136e-06
9.73195e-06
6.21023e-05
9.08542e-05
0.000141426
0.000207522
0.000282292
0.000352705
0.00041521
0.000459692
0.000483279
0.000482303
0.000460581
0.000415936
0.00035503
0.000285059
0.000210434
0.000143933
9.19419e-05
6.23707e-05
9.69513e-06
9.55291e-06
6.23817e-05
9.44107e-05
0.000149676
0.000221969
0.000299334
0.000372788
0.000434783
0.000478809
0.000502815
0.000502901
0.000479097
0.000434007
0.000373923
0.000301118
0.000224421
0.000151606
9.48399e-05
6.22453e-05
9.60828e-06
9.63658e-06
6.24405e-05
9.85899e-05
0.000160861
0.000237197
0.000316821
0.000392113
0.000456782
0.00050222
0.00052688
0.000526679
0.000501859
0.000454954
0.00039205
0.000316911
0.00023724
0.000161805
9.93321e-05
6.25767e-05
9.65082e-06
9.69358e-06
6.32506e-05
0.000104422
0.000171092
0.000252062
0.000334789
0.000412764
0.000481406
0.000529048
0.000554719
0.000556083
0.000528551
0.000479218
0.000413111
0.00033451
0.000252186
0.000172488
0.000104834
6.33091e-05
9.70752e-06
9.89334e-06
6.42948e-05
0.000110767
0.000183376
0.000268516
0.00035566
0.000436343
0.000506446
0.000558749
0.000583601
0.000583191
0.000555964
0.000504914
0.000435964
0.000353734
0.000267027
0.000182757
0.000110649
6.42295e-05
9.95446e-06
1.02591e-05
6.56547e-05
0.000117854
0.00019552
0.000285313
0.000376468
0.000461493
0.000535447
0.000587661
0.000614051
0.000615036
0.000585671
0.000532623
0.000459846
0.000374865
0.000283574
0.000194651
0.0001174
6.52925e-05
1.02395e-05
1.06226e-05
6.67391e-05
0.000125194
0.000208056
0.000302741
0.00039876
0.00048631
0.00056111
0.00061625
0.000644625
0.000644568
0.000616389
0.000561334
0.000487802
0.000397805
0.000300987
0.000206461
0.000124162
6.63185e-05
1.06458e-05
1.11451e-05
6.75087e-05
0.000131207
0.00021966
0.000319936
0.000421088
0.000513835
0.000590132
0.000644137
0.000671784
0.000671606
0.000643444
0.000588394
0.000512906
0.000419885
0.000318517
0.000218722
0.000130868
6.72421e-05
1.11427e-05
1.1765e-05
6.84826e-05
0.000137954
0.000232309
0.000337872
0.000443121
0.000538526
0.000615154
0.000669413
0.000696932
0.000696853
0.000669202
0.000614994
0.000538282
0.000443017
0.000337256
0.000231798
0.000137775
6.8572e-05
1.17441e-05
1.25391e-05
6.98839e-05
0.000145289
0.000245583
0.000357062
0.000467016
0.000564395
0.000641059
0.000694409
0.000721504
0.000721495
0.00069434
0.000640639
0.000563551
0.000466243
0.000356496
0.000245336
0.000145247
6.97554e-05
1.25568e-05
1.35075e-05
7.11999e-05
0.000153563
0.00026043
0.000378167
0.00049261
0.000591974
0.000668943
0.000720105
0.00074584
0.000745834
0.000720041
0.000668696
0.000591466
0.000492102
0.000377687
0.000260028
0.000153327
7.10303e-05
1.34684e-05
1.46038e-05
7.46166e-05
0.000164285
0.000278496
0.000403109
0.000521876
0.000622167
0.000697566
0.000746834
0.000770912
0.000770959
0.000746993
0.000697855
0.000622365
0.00052185
0.000402954
0.000278324
0.000164181
7.45894e-05
1.46341e-05
1.58961e-05
7.91416e-05
0.000177212
0.000300216
0.000432917
0.000555865
0.000655688
0.000727529
0.000772506
0.000793824
0.000793796
0.000772415
0.000727357
0.000655446
0.000555604
0.000432683
0.000300055
0.000177155
7.92224e-05
1.58869e-05
1.73298e-05
8.66091e-05
0.000194404
0.000328353
0.000470099
0.000595878
0.000692384
0.000757741
0.000796434
0.000814059
0.000814062
0.000796446
0.000757765
0.000692421
0.000595918
0.000470156
0.000328418
0.000194367
8.65197e-05
1.73194e-05
1.88472e-05
9.68595e-05
0.000217261
0.000365231
0.000516337
0.000642606
0.0007319
0.000787304
0.000817633
0.000830604
0.000830595
0.000817604
0.000787247
0.000731795
0.000642433
0.000516059
0.000364858
0.000217061
9.68747e-05
1.88648e-05
2.05008e-05
0.000112152
0.000247998
0.000413825
0.000575023
0.000696676
0.000772849
0.000814232
0.000833702
0.000840787
0.000840782
0.000833696
0.000814215
0.000772823
0.00069669
0.000575063
0.000413906
0.000248042
0.000112072
2.04775e-05
2.20948e-05
0.000132935
0.000294038
0.000488686
0.000653862
0.000758459
0.000812337
0.000835447
0.000844082
0.00084735
0.000847348
0.000844072
0.000835433
0.000812309
0.000758384
0.000653693
0.000488456
0.000293817
0.000132799
2.21138e-05
2.3765e-05
0.000165943
0.0003857
0.000608333
0.000750548
0.000813471
0.000837334
0.000845703
0.000849672
0.000851112
0.000851121
0.000849705
0.000845788
0.00083745
0.000813465
0.000750486
0.000608339
0.000385655
0.000165879
2.3757e-05
2.56236e-05
0.000278634
0.000620784
0.000792506
0.000838354
0.000848437
0.000850272
0.000851693
0.000851987
0.00085197
0.00085197
0.000851988
0.000851707
0.000850316
0.000848578
0.00083855
0.000792539
0.00062077
0.000278655
2.56263e-05
3.95066e-05
0.000110788
0.000128697
0.000144102
0.000165615
0.000195529
0.000235952
0.000281504
0.000320521
0.000342499
0.00034162
0.00031832
0.000279298
0.00023362
0.000191192
0.000158618
0.000139245
0.000126323
0.000108338
3.9148e-05
3.96196e-05
0.000112227
0.000129191
0.000145533
0.000169976
0.000196705
0.000236918
0.000282957
0.00032246
0.000344898
0.000343681
0.000320058
0.000283663
0.000237748
0.000193936
0.000157193
0.000137257
0.000126439
0.000108636
3.91352e-05
3.9089e-05
0.000111481
0.000129616
0.000145106
0.000167357
0.000196831
0.000237213
0.000284299
0.000324613
0.000346009
0.000345233
0.000320587
0.000279236
0.000234292
0.000192451
0.000161582
0.000140873
0.000125936
0.000106481
3.86993e-05
3.95365e-05
0.000110654
0.000127056
0.000142443
0.000165034
0.000199751
0.000240262
0.000287933
0.000328907
0.000352094
0.000351579
0.000322951
0.000279925
0.000230945
0.000187663
0.000157162
0.000136108
0.000124921
0.000106095
3.80053e-05
3.95768e-05
0.000110184
0.000124129
0.000139974
0.000166844
0.00019492
0.000235463
0.000284525
0.000326096
0.000347727
0.000350888
0.000326555
0.000283986
0.00023131
0.000188609
0.000158979
0.000139674
0.000128314
0.000106724
3.83072e-05
3.87296e-05
0.000110139
0.000125856
0.000143204
0.000165742
0.000198563
0.000235557
0.0002817
0.000325281
0.000344058
0.000349682
0.000321661
0.000279969
0.000231536
0.000188064
0.000157049
0.000136678
0.000127188
0.000108265
3.84669e-05
3.92582e-05
0.000111651
0.000124779
0.000146072
0.000164762
0.000193735
0.000235438
0.000282581
0.000324537
0.00034375
0.000347847
0.000322046
0.000280867
0.000232306
0.00018959
0.000157271
0.000138624
0.000121129
0.000105383
3.82378e-05
3.85382e-05
0.000109917
0.000124114
0.000141097
0.000167057
0.000193087
0.00023637
0.000283652
0.000321862
0.000342696
0.000343919
0.000322586
0.000285812
0.000233462
0.000191582
0.000158248
0.000142793
0.000123452
0.000108414
3.79084e-05
3.91799e-05
0.000111062
0.000127075
0.000148939
0.000163145
0.000194729
0.000237574
0.000287495
0.000322676
0.000342865
0.000343876
0.000323348
0.000284699
0.000233823
0.000196817
0.000155494
0.000141391
0.000124742
0.000106036
3.81634e-05
3.99263e-05
0.000107989
0.000131489
0.000144301
0.00016069
0.000194578
0.00024094
0.000284107
0.000325793
0.000343304
0.000344951
0.000327276
0.000285237
0.000233871
0.000193656
0.000156668
0.000141413
0.000125979
0.000105445
3.88815e-05
3.97007e-05
0.000107978
0.000127618
0.000144886
0.000163744
0.000195438
0.000238828
0.00028452
0.000321909
0.000343234
0.000348238
0.000323333
0.000284675
0.000234296
0.000189474
0.000156538
0.000137066
0.000128237
0.000105661
3.87355e-05
3.99226e-05
0.000110636
0.000127949
0.000147341
0.00016433
0.000199376
0.000240328
0.00028588
0.000323087
0.000344181
0.000344697
0.000326365
0.000284441
0.000239259
0.00019333
0.000156177
0.000136712
0.000126924
0.000106638
3.88151e-05
3.94729e-05
0.000112333
0.000127717
0.000142161
0.000164366
0.000196032
0.000241188
0.000289644
0.000324075
0.00034377
0.000344177
0.000323865
0.000281349
0.000235802
0.00019082
0.000156507
0.000134509
0.000123028
0.000105472
3.81886e-05
3.87874e-05
0.000110828
0.000127463
0.000142214
0.000168093
0.000200929
0.000243458
0.000289321
0.000325801
0.000343988
0.000344266
0.000320315
0.000283542
0.000232829
0.000194303
0.000157758
0.000140363
0.0001213
0.000107855
3.89427e-05
3.97759e-05
0.000109693
0.000127053
0.000141917
0.000162427
0.000196135
0.000242454
0.000287196
0.000325624
0.000344388
0.000348471
0.000321314
0.000279479
0.000232277
0.000188198
0.000156323
0.000145092
0.000122003
0.000108952
3.86833e-05
3.97331e-05
0.000108567
0.000127036
0.000142287
0.000164298
0.000198504
0.000238797
0.000284737
0.000323735
0.000344828
0.000343754
0.000320587
0.000283566
0.000237384
0.000193705
0.000161096
0.000139923
0.000121559
0.000107349
3.88626e-05
3.91085e-05
0.000109787
0.000131437
0.000143271
0.000162011
0.000194756
0.00023893
0.0002856
0.0003251
0.000346852
0.000348202
0.000324758
0.000282969
0.000236329
0.000193355
0.00015854
0.000134706
0.00012276
0.000108665
3.89745e-05
3.93508e-05
0.000109017
0.000126457
0.000143699
0.000161417
0.000194822
0.000239355
0.000288127
0.000328494
0.000349687
0.000345479
0.000324746
0.000282896
0.000235657
0.000194689
0.000162609
0.000141767
0.000126437
0.000107017
3.8356e-05
3.8806e-05
0.000108714
0.000130153
0.000143768
0.000161301
0.000195389
0.000240092
0.000285047
0.00032664
0.000347765
0.000346193
0.000325054
0.000281169
0.000233014
0.000193585
0.000158544
0.000136039
0.000126075
0.000107553
3.78819e-05
3.90792e-05
0.000107014
0.000126026
0.000139613
0.000158595
0.000195558
0.000240529
0.000285211
0.000325941
0.000350174
0.00034659
0.000324407
0.000282777
0.000232871
0.000191488
0.000161249
0.000137038
0.000129159
0.000108372
3.82575e-05
3.836e-05
0.000107502
0.000123058
0.000139758
0.000158999
0.000199666
0.000241392
0.000285865
0.000322344
0.000345046
0.000348932
0.000321251
0.000280062
0.000233501
0.000189041
0.000157222
0.000135633
0.000126885
0.000106941
3.89038e-05
3.84439e-05
0.000107215
0.000126944
0.000138635
0.000158869
0.0001969
0.000244227
0.000289454
0.000322678
0.000345223
0.000344242
0.000322139
0.000281373
0.000237376
0.000188449
0.000156157
0.000135457
0.00012475
0.000107921
3.84747e-05
3.81826e-05
0.000106085
0.000124152
0.000132711
0.000161439
0.0001945
0.000239864
0.000285268
0.000323105
0.000347619
0.000345804
0.000322773
0.000284381
0.000233742
0.000190155
0.000158271
0.000133307
0.00012386
0.000108551
3.9048e-05
3.83697e-05
0.000106933
0.000119673
0.000133283