/*--------------------------------*- C++ -*----------------------------------*\
  =========                 |
  \\      /  F ield         | OpenFOAM: The Open Source CFD Toolbox
   \\    /   O peration     | Website:  https://openfoam.org
    \\  /    A nd           | Version:  6
     \\/     M anipulation  |
\*---------------------------------------------------------------------------*/
FoamFile
{
    version     2.0;
    format      ascii;
    class       volScalarField;
    location    "18";
    object      nut;
}
// * * * * * * * * * * * * * * * * * * * * * * * * * * * * * * * * * * * * * //

dimensions      [0 2 -1 0 0 0 0];

internalField   nonuniform List<scalar> 
130000
(
0.000897958
0.000902281
0.000905784
0.000908485
0.00091046
0.000911795
0.000912578
0.000912896
0.000912828
0.000912448
0.000911819
0.000910994
0.000910016
0.000908915
0.000907728
0.000906482
0.000905195
0.000903882
0.000902549
0.000901188
0.000897947
0.000902273
0.000905771
0.000908462
0.000910425
0.000911745
0.000912513
0.000912815
0.000912732
0.000912333
0.000911687
0.000910848
0.000909861
0.000908764
0.000907587
0.000906345
0.00090505
0.000903717
0.000902363
0.000900991
0.000898045
0.000902382
0.000905884
0.000908573
0.000910528
0.000911836
0.000912591
0.000912883
0.000912798
0.000912415
0.000911793
0.00091098
0.000910016
0.00090894
0.000907783
0.000906529
0.000905195
0.000903798
0.000902343
0.000900887
0.000898197
0.000902551
0.00090606
0.00090875
0.000910711
0.000912039
0.000912827
0.000913155
0.000913106
0.00091276
0.000912145
0.000911318
0.000910329
0.000909215
0.000908029
0.000906734
0.000905357
0.000903905
0.000902376
0.000900846
0.000898374
0.000902753
0.000906282
0.00090901
0.000911024
0.000912413
0.000913226
0.000913556
0.000913496
0.000913124
0.000912478
0.00091162
0.000910592
0.000909422
0.000908162
0.000906822
0.000905412
0.000903944
0.000902426
0.000900869
0.000898563
0.000902981
0.000906552
0.000909343
0.000911387
0.000912776
0.000913576
0.000913887
0.00091379
0.000913355
0.000912671
0.000911782
0.000910731
0.00090955
0.000908268
0.000906905
0.000905476
0.000903993
0.000902468
0.000900906
0.000898743
0.000903205
0.000906821
0.000909642
0.000911666
0.000913006
0.000913781
0.000914073
0.000913964
0.000913526
0.000912828
0.000911922
0.000910852
0.000909653
0.000908353
0.000906972
0.000905527
0.000904032
0.000902496
0.000900929
0.000898892
0.000903387
0.000907025
0.000909822
0.000911834
0.000913182
0.000913954
0.000914238
0.000914119
0.000913671
0.000912959
0.000912038
0.000910951
0.000909735
0.000908418
0.000907021
0.000905562
0.000904055
0.000902511
0.000900937
0.000899015
0.000903527
0.000907166
0.000909958
0.000911983
0.000913334
0.000914103
0.000914381
0.000914253
0.000913794
0.000913069
0.000912132
0.00091103
0.000909798
0.000908465
0.000907053
0.000905581
0.000904063
0.00090251
0.000900932
0.000899126
0.000903649
0.000907292
0.000910093
0.000912122
0.000913473
0.000914238
0.000914509
0.000914371
0.0009139
0.000913162
0.000912211
0.000911093
0.000909845
0.000908496
0.00090707
0.000905584
0.000904054
0.00090249
0.000900903
0.000899232
0.000903764
0.000907403
0.000910225
0.000912258
0.000913605
0.000914365
0.000914628
0.000914479
0.000913996
0.000913244
0.000912278
0.000911145
0.000909881
0.000908516
0.000907073
0.000905572
0.000904026
0.000902444
0.000900828
0.000899342
0.000903891
0.000907543
0.000910379
0.000912401
0.000913739
0.000914489
0.000914742
0.000914582
0.000914086
0.00091332
0.000912339
0.000911189
0.000909909
0.000908527
0.000907068
0.000905551
0.000903988
0.000902388
0.00090075
0.000899457
0.000904027
0.000907701
0.000910521
0.000912538
0.00091387
0.000914612
0.000914854
0.000914683
0.000914174
0.000913393
0.000912396
0.000911231
0.000909933
0.000908534
0.000907059
0.000905527
0.000903951
0.000902342
0.000900704
0.000899576
0.000904157
0.000907831
0.000910634
0.000912677
0.000914004
0.000914738
0.000914971
0.000914787
0.000914265
0.000913469
0.000912456
0.000911273
0.000909958
0.000908542
0.000907051
0.000905504
0.000903917
0.000902302
0.000900665
0.000899706
0.000904295
0.000907967
0.000910752
0.000912801
0.000914137
0.000914869
0.000915093
0.000914899
0.000914362
0.00091355
0.000912521
0.00091132
0.000909987
0.000908553
0.000907045
0.000905485
0.00090389
0.000902276
0.000900655
0.000899851
0.000904454
0.000908129
0.000910907
0.000912926
0.000914294
0.000915018
0.000915229
0.00091502
0.000914469
0.000913641
0.000912593
0.000911374
0.000910022
0.000908568
0.000907041
0.000905462
0.000903851
0.000902228
0.000900619
0.000900013
0.000904632
0.00090832
0.000911113
0.000913107
0.000914463
0.000915181
0.000915378
0.000915154
0.000914586
0.000913741
0.000912675
0.000911437
0.000910064
0.000908589
0.000907039
0.000905435
0.000903794
0.000902128
0.000900495
0.000900185
0.000904819
0.000908515
0.000911312
0.000913311
0.000914622
0.000915355
0.000915538
0.000915298
0.000914713
0.000913851
0.000912767
0.000911509
0.000910115
0.000908618
0.000907045
0.000905417
0.000903749
0.000902044
0.000900425
0.000900368
0.000905015
0.000908716
0.00091151
0.000913495
0.00091477
0.000915493
0.000915697
0.000915448
0.000914849
0.000913969
0.000912867
0.000911589
0.000910174
0.000908656
0.00090706
0.000905411
0.000903728
0.000902023
0.000900403
0.000900559
0.000905221
0.000908927
0.000911718
0.000913692
0.000914945
0.000915631
0.000915866
0.00091561
0.000914993
0.000914094
0.000912973
0.000911675
0.00091024
0.000908698
0.000907078
0.000905403
0.000903696
0.000901962
0.000900253
0.000900759
0.000905435
0.000909148
0.000911941
0.000913914
0.000915174
0.000915824
0.000916028
0.000915773
0.000915136
0.00091422
0.000913081
0.000911765
0.000910309
0.000908745
0.000907099
0.000905389
0.000903652
0.000901916
0.00090021
0.000900966
0.000905657
0.000909376
0.000912168
0.000914135
0.000915386
0.000916027
0.000916165
0.000915904
0.000915263
0.000914339
0.000913187
0.000911854
0.00091038
0.000908799
0.000907137
0.000905411
0.000903672
0.000901982
0.000900274
0.000901181
0.000905887
0.000909611
0.0009124
0.00091436
0.000915594
0.000916207
0.00091629
0.000915999
0.000915383
0.000914459
0.000913289
0.000911937
0.000910446
0.000908849
0.000907177
0.000905461
0.000903708
0.000901982
0.000900269
0.000901404
0.000906125
0.000909854
0.000912641
0.000914591
0.000915813
0.000916408
0.00091647
0.000916146
0.000915518
0.000914584
0.000913386
0.00091201
0.000910494
0.000908867
0.000907164
0.000905437
0.000903682
0.000901959
0.000900279
0.000901636
0.000906372
0.000910106
0.00091289
0.000914833
0.000916043
0.000916628
0.000916692
0.000916331
0.000915636
0.000914676
0.000913463
0.000912074
0.00091054
0.000908892
0.000907166
0.000905417
0.000903665
0.000901899
0.000900158
0.000901878
0.000906629
0.000910368
0.000913148
0.000915081
0.000916276
0.00091684
0.000916876
0.000916474
0.000915719
0.000914733
0.000913534
0.000912143
0.0009106
0.00090895
0.000907232
0.000905463
0.000903685
0.000901898
0.000900086
0.000902131
0.000906897
0.000910641
0.000913418
0.00091534
0.00091652
0.000917066
0.000917077
0.000916643
0.00091584
0.000914798
0.000913573
0.000912185
0.000910644
0.000909002
0.000907297
0.000905556
0.000903795
0.000902024
0.000900169
0.000902396
0.000907178
0.000910927
0.0009137
0.000915613
0.000916778
0.000917306
0.000917298
0.000916845
0.000916027
0.000914911
0.000913617
0.000912215
0.000910689
0.000909071
0.000907371
0.000905625
0.000903849
0.000902042
0.000900217
0.000902673
0.000907471
0.000911225
0.000913995
0.000915898
0.000917049
0.00091756
0.000917532
0.000917059
0.000916223
0.000915097
0.000913742
0.00091227
0.000910714
0.000909063
0.000907346
0.000905592
0.000903803
0.00090202
0.000900229
0.000902963
0.000907779
0.000911539
0.000914305
0.000916198
0.000917335
0.000917828
0.00091778
0.000917285
0.000916426
0.000915276
0.000913905
0.000912368
0.00091076
0.000909058
0.000907327
0.000905576
0.000903764
0.000901987
0.000900208
0.000903266
0.000908101
0.000911867
0.000914631
0.000916515
0.000917638
0.000918114
0.000918048
0.000917532
0.00091665
0.000915473
0.000914065
0.000912484
0.000910823
0.000909101
0.000907341
0.00090557
0.000903768
0.000901931
0.000900199
0.000903584
0.000908438
0.000912211
0.000914973
0.000916849
0.00091796
0.000918421
0.000918339
0.000917807
0.000916906
0.000915706
0.000914264
0.000912624
0.000910943
0.000909194
0.000907406
0.000905608
0.00090382
0.00090204
0.000900322
0.000903917
0.000908791
0.000912572
0.000915333
0.0009172
0.0009183
0.000918748
0.000918652
0.000918109
0.000917199
0.000915995
0.000914552
0.000912918
0.000911203
0.00090942
0.000907609
0.000905799
0.00090396
0.000902179
0.000900417
0.000904264
0.00090916
0.000912949
0.000915708
0.000917568
0.000918656
0.000919091
0.000918983
0.000918428
0.000917512
0.000916307
0.000914873
0.00091326
0.000911505
0.000909699
0.000907857
0.000906003
0.000904152
0.000902336
0.000900581
0.000904627
0.000909545
0.000913342
0.0009161
0.000917952
0.000919027
0.000919448
0.000919325
0.000918757
0.000917831
0.00091662
0.000915187
0.000913586
0.000911862
0.000910056
0.000908193
0.000906284
0.000904409
0.000902572
0.000900772
0.000905007
0.000909948
0.000913753
0.000916509
0.000918351
0.000919413
0.000919817
0.000919678
0.000919094
0.000918153
0.000916931
0.00091549
0.000913884
0.000912159
0.000910355
0.000908504
0.000906631
0.000904754
0.000902873
0.000901069
0.000905407
0.000910369
0.000914183
0.000916934
0.000918766
0.000919812
0.000920198
0.00092004
0.000919437
0.00091848
0.000917242
0.000915787
0.000914171
0.000912438
0.000910629
0.000908776
0.000906906
0.00090504
0.000903197
0.000901389
0.000905828
0.000910811
0.00091463
0.000917377
0.000919195
0.000920223
0.00092059
0.00092041
0.000919787
0.000918809
0.000917552
0.000916081
0.00091445
0.000912705
0.000910884
0.00090902
0.000907141
0.000905267
0.000903415
0.000901597
0.000906264
0.00091127
0.000915094
0.000917835
0.000919638
0.000920647
0.000920991
0.000920787
0.000920141
0.000919141
0.000917864
0.000916374
0.000914726
0.000912966
0.000911133
0.000909258
0.00090737
0.000905488
0.000903628
0.000901803
0.000906719
0.000911746
0.000915575
0.000918307
0.000920095
0.000921081
0.0009214
0.000921171
0.000920498
0.000919474
0.000918174
0.000916665
0.000914999
0.000913225
0.000911379
0.000909495
0.0009076
0.000905713
0.00090385
0.000902023
0.000907191
0.00091224
0.000916073
0.000918795
0.000920563
0.000921525
0.000921816
0.000921558
0.000920858
0.000919807
0.000918482
0.00091695
0.000915266
0.000913476
0.000911618
0.000909725
0.000907824
0.000905934
0.000904071
0.000902244
0.000907683
0.000912754
0.000916588
0.000919298
0.000921045
0.00092198
0.00092224
0.00092195
0.000921218
0.000920137
0.000918786
0.000917229
0.000915524
0.000913716
0.000911845
0.000909942
0.000908034
0.000906142
0.000904278
0.000902453
0.0009082
0.000913289
0.000917123
0.000919819
0.000921542
0.000922445
0.000922672
0.000922347
0.00092158
0.000920466
0.000919085
0.000917501
0.000915773
0.000913945
0.000912059
0.000910144
0.000908229
0.000906332
0.000904468
0.000902644
0.000908738
0.000913847
0.00091768
0.000920359
0.000922054
0.000922924
0.000923113
0.000922749
0.000921945
0.000920795
0.00091938
0.000917768
0.000916013
0.000914165
0.000912261
0.000910334
0.00090841
0.000906508
0.000904641
0.000902819
0.000909303
0.000914431
0.000918261
0.00092092
0.000922584
0.000923417
0.000923564
0.000923159
0.000922314
0.000921125
0.000919675
0.00091803
0.000916248
0.000914377
0.000912454
0.000910513
0.000908579
0.000906672
0.000904803
0.00090298
0.000909895
0.000915042
0.000918866
0.000921503
0.000923133
0.000923924
0.000924027
0.000923576
0.000922686
0.000921456
0.000919968
0.000918289
0.000916478
0.000914582
0.00091264
0.000910685
0.000908741
0.000906827
0.000904956
0.000903133
0.000910512
0.000915679
0.000919497
0.000922108
0.0009237
0.000924446
0.0009245
0.000924
0.000923063
0.000921788
0.000920258
0.000918544
0.000916703
0.000914781
0.000912819
0.000910849
0.000908895
0.000906975
0.000905102
0.00090328
0.000911165
0.000916347
0.000920154
0.000922736
0.000924286
0.000924981
0.000924982
0.000924428
0.000923439
0.000922116
0.000920544
0.000918792
0.000916918
0.00091497
0.000912988
0.000911003
0.000909039
0.000907114
0.00090524
0.00090342
0.000911848
0.000917044
0.000920837
0.000923384
0.000924887
0.000925528
0.00092547
0.000924858
0.000923812
0.000922437
0.000920818
0.000919026
0.000917118
0.000915143
0.00091314
0.00091114
0.000909168
0.000907239
0.000905365
0.000903549
0.000912563
0.00091777
0.000921544
0.000924052
0.000925501
0.00092608
0.000925958
0.000925281
0.000924174
0.000922742
0.000921072
0.000919236
0.000917292
0.000915289
0.000913265
0.000911251
0.000909271
0.000907341
0.00090547
0.000903661
0.000913311
0.000918524
0.000922273
0.000924734
0.000926122
0.000926632
0.000926437
0.000925688
0.000924512
0.000923017
0.000921292
0.000919408
0.000917426
0.000915393
0.000913348
0.000911321
0.000909336
0.000907406
0.000905541
0.000903743
0.000914089
0.0009193
0.000923017
0.000925423
0.000926741
0.000927171
0.000926894
0.000926063
0.00092481
0.000923244
0.000921457
0.000919521
0.000917497
0.000915432
0.000913366
0.000911328
0.000909339
0.000907415
0.000905561
0.000903779
0.000914892
0.000920092
0.000923766
0.000926106
0.000927342
0.00092768
0.000927307
0.000926382
0.00092504
0.000923394
0.000921537
0.000919542
0.000917472
0.000915374
0.000913286
0.000911239
0.000909251
0.000907338
0.000905502
0.000903745
0.000915696
0.000920884
0.000924506
0.000926766
0.000927903
0.000928132
0.000927646
0.00092661
0.000925164
0.000923424
0.000921485
0.000919424
0.000917301
0.000915167
0.000913059
0.000911005
0.000909025
0.00090713
0.000905324
0.000903603
0.00091652
0.000921671
0.000925218
0.000927375
0.000928389
0.000928486
0.000927863
0.000926694
0.000925123
0.00092327
0.000921233
0.000919093
0.000916911
0.000914737
0.000912609
0.000910554
0.00090859
0.000906727
0.000904965
0.000903299
0.00091734
0.000922425
0.000925867
0.000927889
0.000928748
0.000928678
0.000927886
0.000926551
0.000924824
0.000922833
0.000920678
0.000918441
0.000916189
0.00091397
0.000911823
0.000909774
0.00090784
0.000906026
0.000904331
0.000902747
0.000918128
0.000923107
0.000926399
0.000928241
0.000928897
0.000928612
0.000927603
0.000926057
0.000924134
0.000921965
0.00091966
0.000917303
0.000914964
0.000912693
0.000910529
0.000908496
0.000906609
0.000904872
0.000903279
0.000901817
0.000918864
0.000923662
0.000926735
0.000928327
0.000928712
0.000928143
0.000926848
0.000925026
0.000922844
0.000920444
0.000917942
0.000915429
0.000912978
0.000910643
0.000908463
0.000906461
0.000904649
0.000903027
0.000901586
0.000900307
0.000919485
0.000923993
0.000926746
0.000927989
0.000928003
0.00092705
0.000925371
0.000923177
0.000920647
0.000917936
0.000915168
0.000912444
0.000909844
0.000907425
0.000905228
0.000903276
0.000901577
0.000900128
0.000898911
0.000897904
0.000919894
0.000923926
0.000926232
0.000926989
0.00092649
0.000925011
0.000922806
0.000920101
0.000917094
0.000913952
0.000910816
0.0009078
0.000904992
0.000902457
0.000900239
0.00089836
0.000896826
0.000895628
0.000894742
0.000894136
0.000920002
0.000923296
0.000924936
0.000924998
0.00092378
0.000921569
0.000918635
0.000915223
0.00091155
0.000907807
0.000904154
0.000900722
0.000897616
0.00089491
0.000892655
0.000890875
0.000889572
0.000888732
0.000888322
0.000888301
0.000919483
0.000921877
0.000922495
0.000921558
0.000919331
0.000916104
0.00091216
0.000907767
0.000903169
0.000898585
0.000894203
0.00089018
0.00088664
0.000883677
0.000881349
0.000879685
0.000878689
0.000878338
0.000878593
0.0008794
0.000917946
0.000919095
0.000918345
0.000916045
0.000912441
0.000907827
0.000902509
0.000896781
0.00089092
0.000885182
0.00087979
0.000874935
0.000870773
0.000867416
0.000864942
0.00086339
0.000862763
0.00086304
0.000864175
0.000866107
0.000915052
0.000914432
0.000911857
0.000907737
0.000902303
0.00089586
0.000888734
0.000881253
0.000873734
0.000866472
0.000859737
0.000853759
0.000848729
0.000844791
0.000842043
0.000840541
0.0008403
0.000841303
0.000843509
0.00084686
0.000910361
0.000907082
0.000902436
0.000895938
0.000888157
0.000879412
0.000870041
0.000860397
0.000850836
0.000841698
0.000833294
0.000825899
0.000819738
0.000814988
0.000811773
0.000810172
0.000810222
0.000811927
0.000815268
0.000820212
0.000903329
0.000896567
0.000889197
0.000880226
0.000869517
0.000858105
0.000846185
0.00083412
0.000822294
0.000811075
0.000800813
0.000791808
0.000784316
0.000778534
0.000774612
0.000772654
0.000772729
0.000774881
0.000779141
0.000785541
0.000893417
0.00088257
0.000871165
0.000859746
0.000846353
0.000832392
0.000817974
0.000803589
0.000789624
0.000776448
0.000764428
0.00075387
0.000745026
0.000738096
0.000733242
0.000730587
0.000730234
0.000732284
0.000736847
0.000744064
0.000880201
0.000865031
0.000849892
0.000834885
0.00082005
0.0008043
0.000787667
0.000771592
0.000756136
0.000741556
0.000728292
0.000716589
0.000706649
0.000698654
0.00069275
0.000689065
0.000687727
0.000688891
0.00069276
0.00069961
0.000863888
0.000844467
0.00082647
0.000808843
0.000791903
0.000775207
0.00075849
0.000742306
0.000726681
0.00071147
0.000697894
0.000685803
0.000675278
0.000666514
0.000659623
0.000654705
0.000651889
0.000651361
0.000653396
0.000658392
0.000845303
0.000822616
0.000803156
0.000785068
0.000767521
0.000751146
0.000735022
0.000719484
0.000704713
0.000691044
0.000678645
0.00066716
0.000656557
0.000647464
0.000639826
0.000633679
0.000629119
0.000626326
0.000625601
0.000627405
0.000825985
0.000801989
0.000782973
0.000766289
0.000750685
0.000735625
0.00072143
0.000708401
0.000695891
0.000684225
0.000673398
0.000663403
0.000654016
0.000645087
0.000637072
0.000629899
0.000623613
0.000618361
0.000614418
0.000612232
0.000808122
0.000785517
0.000769391
0.000756195
0.000744278
0.000733027
0.0007223
0.000711972
0.0007022
0.000693364
0.000684741
0.000676481
0.00066844
0.000660368
0.00065231
0.000644403
0.000636604
0.000629035
0.000621906
0.000615582
0.000794238
0.000776063
0.000765235
0.000757395
0.000750631
0.00074421
0.000737864
0.000731509
0.000725142
0.000718689
0.000712238
0.000705934
0.000699228
0.000692076
0.000684367
0.000676014
0.000666958
0.000657381
0.000647406
0.000637279
0.000786804
0.00077595
0.000772405
0.000771267
0.000770551
0.000769528
0.000767944
0.000765725
0.000762848
0.000759295
0.000755066
0.000750202
0.000744758
0.000738376
0.000731069
0.000722506
0.000712416
0.000701124
0.00068872
0.000675314
0.000787911
0.000786726
0.000791828
0.000798157
0.000803881
0.000808401
0.00081156
0.000813355
0.000813817
0.000812984
0.00081087
0.00080751
0.000802957
0.00079716
0.000790183
0.000781525
0.000770622
0.000757842
0.000743354
0.000727149
0.000799051
0.000809129
0.000823607
0.000837681
0.000849873
0.000859821
0.000867527
0.000873099
0.000876652
0.000878282
0.000878054
0.000876017
0.0008722
0.000866734
0.000859943
0.000851271
0.000839756
0.000825609
0.000809222
0.000790539
0.000821064
0.000843225
0.000867287
0.000889051
0.000907535
0.000922683
0.000934689
0.00094379
0.00095019
0.000954053
0.000955491
0.000954576
0.000951334
0.000945951
0.000938951
0.0009301
0.000918279
0.000902941
0.000884758
0.000863766
0.000854178
0.000888588
0.000922075
0.00095128
0.000975793
0.000995886
0.00101196
0.00102437
0.00103343
0.00103935
0.0010423
0.00104241
0.00103975
0.00103443
0.00102697
0.00101764
0.0010052
0.00098876
0.000968777
0.000945471
0.000898125
0.000944449
0.000986959
0.00102325
0.00105349
0.00107827
0.00109819
0.00111373
0.00112529
0.00113312
0.00113744
0.0011384
0.0011361
0.00113062
0.00112258
0.00111233
0.0010991
0.00108186
0.00105998
0.00103427
0.000952222
0.00100974
0.00106069
0.00110361
0.00113922
0.00116841
0.00119196
0.00121046
0.00122435
0.00123397
0.00123954
0.00124123
0.00123915
0.00123339
0.00122461
0.00121329
0.00119874
0.00118016
0.00115655
0.0011284
0.0010154
0.00108307
0.00114167
0.00119062
0.00123114
0.00126438
0.00129127
0.00131249
0.00132854
0.00133977
0.00134642
0.00134867
0.00134663
0.00134039
0.00133062
0.00131779
0.00130121
0.00128076
0.00125574
0.00122516
0.00108618
0.00116255
0.00122772
0.00128189
0.00132667
0.00136344
0.00139326
0.00141686
0.00143478
0.00144738
0.0014549
0.00145751
0.00145528
0.00144834
0.00143734
0.00142262
0.00140358
0.00138026
0.00135276
0.00132039
0.00116251
0.00124565
0.00131589
0.00137408
0.00142216
0.00146169
0.00149379
0.00151927
0.00153863
0.00155222
0.00156029
0.00156297
0.00156021
0.00155226
0.00153982
0.00152268
0.00150065
0.00147392
0.00144273
0.00140727
0.00124162
0.00132888
0.0014021
0.00146261
0.00151261
0.00155373
0.00158717
0.00161377
0.00163395
0.00164782
0.00165597
0.00165869
0.00165546
0.00164612
0.00163112
0.00161062
0.00158491
0.00155394
0.00151831
0.00147864
0.00131979
0.00140763
0.00148092
0.00154139
0.00159135
0.00163242
0.00166557
0.00169228
0.00171306
0.00172844
0.00173709
0.00173755
0.0017305
0.00171529
0.0016955
0.00167081
0.00164219
0.00160688
0.00156661
0.00152229
0.00139214
0.00147589
0.00154535
0.00160264
0.00164965
0.00168779
0.00171884
0.0017429
0.00175838
0.00176821
0.00177457
0.00177324
0.00176541
0.00175241
0.00173056
0.00170079
0.00166233
0.00162039
0.00157451
0.00152542
0.00145256
0.00152625
0.00158714
0.00163638
0.0016743
0.00170669
0.00173391
0.00175601
0.00177467
0.00178618
0.00178791
0.00178442
0.00177333
0.00175352
0.00172478
0.00168868
0.00164432
0.00159291
0.0015351
0.00147377
0.00149373
0.00155086
0.00159625
0.00162852
0.00166082
0.00168495
0.00170455
0.00172153
0.00173514
0.00174404
0.00174652
0.00174102
0.00172589
0.00169976
0.00166193
0.00161493
0.00155893
0.00149353
0.0014192
0.00134306
0.00150789
0.0015396
0.0015599
0.00157932
0.00158916
0.00160207
0.00161485
0.00162747
0.00163889
0.00164712
0.00164943
0.00164267
0.00162376
0.00159009
0.00154006
0.00147692
0.00140121
0.00131336
0.0012161
0.00111685
0.00148532
0.00148042
0.00147255
0.00146242
0.00145766
0.0014566
0.00146079
0.00146998
0.00148219
0.00149377
0.0014998
0.00149469
0.00147308
0.00143057
0.00136446
0.00127939
0.0011759
0.00105682
0.000929781
0.000805312
0.001415
0.00136802
0.00132538
0.00128927
0.00126196
0.00124676
0.00124542
0.00125724
0.00127842
0.0013022
0.00131938
0.00132005
0.00129565
0.00124045
0.00115261
0.00104065
0.000903924
0.000753886
0.000605819
0.000472938
0.0012936
0.0012039
0.00112396
0.00105912
0.00101303
0.000990329
0.000993936
0.00102223
0.00106717
0.00111675
0.00115273
0.00115773
0.00112163
0.00104229
0.000931873
0.000797419
0.000652369
0.000507687
0.00037194
0.000282499
0.00110843
0.000983284
0.000877893
0.000797905
0.000747675
0.000734578
0.000762334
0.000825461
0.000901476
0.00096345
0.000993525
0.000985596
0.000939607
0.000863777
0.000761641
0.000634688
0.000494807
0.000354403
0.000258911
0.000201828
0.000873055
0.000730581
0.000621695
0.000564705
0.000566048
0.000626265
0.000718942
0.000806944
0.000875055
0.00091536
0.000926295
0.000908013
0.000864765
0.000792574
0.000687593
0.000554357
0.000408583
0.000278275
0.000198113
0.000169096
0.000595607
0.000475928
0.000417526
0.000446009
0.00054192
0.000657124
0.000757306
0.000829398
0.000873953
0.000895805
0.000897657
0.000879412
0.000837633
0.000765133
0.000656679
0.000515514
0.000361833
0.00023453
0.000170594
0.000173067
0.000316987
0.000274842
0.00032861
0.000450681
0.0005907
0.000709281
0.000792788
0.000844136
0.000872013
0.000882733
0.00088018
0.000864143
0.000829526
0.00076646
0.000663756
0.000518801
0.000353769
0.00021996
0.00017385
0.000187679
0.000176485
0.000211396
0.000329222
0.000496343
0.000649902
0.000757954
0.000821877
0.000854084
0.000867151
0.000870101
0.000867061
0.000857531
0.000836166
0.000790953
0.000706452
0.000569869
0.000395063
0.0002444
0.000178707
0.000192468
0.000152482
0.000199355
0.000351401
0.00054752
0.000702272
0.000793269
0.000834746
0.000851792
0.000857848
0.000858974
0.000857429
0.000852993
0.000842659
0.0008195
0.000769103
0.000662633
0.000487126
0.000297497
0.000196979
0.000193325
0.000157974
0.000211273
0.000412734
0.00063435
0.000767467
0.000825208
0.000846938
0.000853446
0.000854837
0.00085477
0.000854265
0.000853422
0.000851721
0.000846331
0.000830981
0.000789815
0.000681403
0.000462656
0.00025375
0.000198053
0.000218202
0.000368652
0.000609909
0.000773384
0.000833214
0.000848021
0.000851369
0.000852357
0.000852834
0.000852834
0.000852697
0.000852491
0.000852152
0.000851276
0.000848346
0.000840272
0.000820804
0.000780147
0.000661187
0.00030742
0.000896875
0.000897427
0.000897984
0.000898443
0.000898803
0.000899068
0.000899242
0.000899332
0.000899346
0.000899287
0.000899159
0.000898963
0.000898706
0.000898376
0.000897965
0.000897483
0.000896936
0.000896327
0.000895657
0.000894946
0.000896722
0.000897267
0.000897812
0.000898257
0.000898603
0.000898851
0.000899008
0.000899083
0.000899084
0.000899017
0.000898886
0.00089869
0.000898434
0.0008981
0.000897672
0.000897158
0.000896576
0.000895971
0.000895348
0.00089468
0.000896607
0.000897138
0.000897665
0.00089809
0.000898412
0.000898635
0.000898764
0.000898811
0.00089879
0.00089871
0.000898579
0.000898395
0.000898156
0.000897842
0.000897417
0.00089687
0.000896329
0.000895822
0.000895355
0.000894784
0.000896441
0.000896956
0.000897461
0.000897863
0.000898164
0.000898363
0.00089845
0.000898449
0.00089839
0.000898289
0.00089816
0.000898007
0.000897813
0.000897571
0.00089725
0.000896822
0.000896394
0.000895953
0.000895532
0.000894989
0.000896211
0.000896709
0.000897182
0.000897552
0.000897843
0.000898068
0.000898206
0.000898248
0.000898239
0.000898187
0.000898104
0.000897998
0.000897851
0.000897671
0.00089745
0.000897177
0.000896748
0.000896265
0.000895683
0.000895061
0.000895969
0.000896476
0.000896974
0.000897415
0.000897822
0.000898211
0.00089845
0.000898518
0.000898556
0.000898554
0.000898519
0.00089849
0.000898375
0.0008982
0.000897963
0.000897676
0.000897136
0.000896654
0.000895981
0.000895283
0.000896005
0.000896542
0.000897082
0.000897586
0.000898087
0.000898601
0.000898825
0.000898889
0.000898959
0.000898978
0.000898978
0.000899031
0.000898878
0.000898648
0.000898299
0.000897866
0.000897377
0.000896913
0.000896366
0.000895783
0.000896362
0.000896908
0.000897437
0.000897852
0.000898253
0.000898642
0.000898819
0.000898967
0.0008991
0.000899089
0.000899074
0.000899096
0.000898993
0.000898823
0.000898446
0.000898003
0.000897545
0.000897069
0.000896633
0.000896183
0.000896791
0.000897341
0.00089785
0.000898144
0.000898401
0.000898655
0.000898836
0.000899076
0.000899243
0.00089917
0.000899132
0.000899099
0.000899083
0.000898953
0.000898618
0.000898203
0.000897693
0.00089725
0.000896708
0.000896113
0.000896919
0.000897497
0.000898045
0.000898423
0.000898708
0.00089889
0.000899021
0.000899193
0.000899256
0.000899257
0.000899233
0.000899148
0.000898998
0.000898848
0.000898588
0.000898235
0.000897799
0.000897281
0.000896679
0.000895986
0.000896904
0.000897517
0.000898102
0.000898532
0.000898822
0.000898823
0.000898882
0.000898876
0.000898879
0.000898869
0.00089881
0.000898704
0.000898573
0.000898456
0.000898209
0.000897877
0.000897477
0.000897
0.000896457
0.0008958
0.000896618
0.000897276
0.000897854
0.000898288
0.000898555
0.000898646
0.00089878
0.000898819
0.000898803
0.000898745
0.000898636
0.000898485
0.000898324
0.000898054
0.000897751
0.000897379
0.000896962
0.000896478
0.000895938
0.000895276
0.000896328
0.000897009
0.000897726
0.000898276
0.000898639
0.00089883
0.000899001
0.000899061
0.000899059
0.000898997
0.000898851
0.000898625
0.000898344
0.000897979
0.000897643
0.000897226
0.000896754
0.000896227
0.000895638
0.000894976
0.000896333
0.000897063
0.000897865
0.000898504
0.000898883
0.00089897
0.000899014
0.000899066
0.000899107
0.000899162
0.000899123
0.000898966
0.000898734
0.000898435
0.000898057
0.000897615
0.000897104
0.000896513
0.000895845
0.000895177
0.000896496
0.000897192
0.000897876
0.000898471
0.000898808
0.000898998
0.000899054
0.00089909
0.000899164
0.000899242
0.000899222
0.000899146
0.000898965
0.000898688
0.000898311
0.00089787
0.000897335
0.000896675
0.000895939
0.000895209
0.000896596
0.00089729
0.000897935
0.000898449
0.00089875
0.000899082
0.000899286
0.000899256
0.000899233
0.000899098
0.00089893
0.000898754
0.000898497
0.000898172
0.000897768
0.000897317
0.000896809
0.00089619
0.00089553
0.000894824
0.000896731
0.000897376
0.00089801
0.000898587
0.00089892
0.000899247
0.000899484
0.000899502
0.000899456
0.00089929
0.000899001
0.00089873
0.000898408
0.000898046
0.000897601
0.000897113
0.000896561
0.000896039
0.000895543
0.000894913
0.000897006
0.000897606
0.000898253
0.000898825
0.000899158
0.000899337
0.000899555
0.000899708
0.000899685
0.000899532
0.000899236
0.000898977
0.000898639
0.000898251
0.000897744
0.000897177
0.000896561
0.000896083
0.00089574
0.000895141
0.000897286
0.000897865
0.000898481
0.000898938
0.000899191
0.00089928
0.000899497
0.000899561
0.000899546
0.000899443
0.000899253
0.000898978
0.000898678
0.000898295
0.000897771
0.000897197
0.000896653
0.000896148
0.000895709
0.000895084
0.00089761
0.000898046
0.000898453
0.000898737
0.00089892
0.000899036
0.000899116
0.00089919
0.000899176
0.000899095
0.000898947
0.000898739
0.000898489
0.000898163
0.000897711
0.000897247
0.00089674
0.000896178
0.000895549
0.000894842
0.000897733
0.0008981
0.00089841
0.000898567
0.000898619
0.000898616
0.000898605
0.000898592
0.000898564
0.000898497
0.000898367
0.000898186
0.000897976
0.000897727
0.00089741
0.000897044
0.000896613
0.000896096
0.000895477
0.00089474
0.000897918
0.000898271
0.000898549
0.000898644
0.000898578
0.000898491
0.000898412
0.000898323
0.000898228
0.000898109
0.00089796
0.00089778
0.000897583
0.00089738
0.000897144
0.000896883
0.000896566
0.000896147
0.000895599
0.000894969
0.000898187
0.000898579
0.0008989
0.000899045
0.000899008
0.000898934
0.000898801
0.000898569
0.000898363
0.000898157
0.000897948
0.000897736
0.000897532
0.000897331
0.000897099
0.000896852
0.000896585
0.000896292
0.000895926
0.000895441
0.000898478
0.000898928
0.000899324
0.000899565
0.00089966
0.000899633
0.000899477
0.000899158
0.000898952
0.000898708
0.000898452
0.000898201
0.00089799
0.000897775
0.000897517
0.000897244
0.000896975
0.00089677
0.0008965
0.000896047
0.000898734
0.000899232
0.000899685
0.000899994
0.000900161
0.000900195
0.000900108
0.000899881
0.000899671
0.000899422