/*--------------------------------*- C++ -*----------------------------------*\
  =========                 |
  \\      /  F ield         | OpenFOAM: The Open Source CFD Toolbox
   \\    /   O peration     | Website:  https://openfoam.org
    \\  /    A nd           | Version:  6
     \\/     M anipulation  |
\*---------------------------------------------------------------------------*/
FoamFile
{
    version     2.0;
    format      ascii;
    class       volScalarField;
    location    "18";
    object      p;
}
// * * * * * * * * * * * * * * * * * * * * * * * * * * * * * * * * * * * * * //

dimensions      [0 2 -2 0 0 0 0];

internalField   nonuniform List<scalar> 
10000
(
0.00344229
-0.000119684
-0.000591846
0.00238728
0.00387024
0.00475209
0.00567761
0.00676172
0.00789718
0.00852232
0.00857221
0.00767424
0.0055489
0.00222464
-0.00238008
-0.00746918
-0.0125921
-0.0171766
-0.0139813
-0.0053193
-0.00401852
-0.00631426
0.00177787
0.0183593
0.0325923
0.0417518
0.046687
0.0496061
0.051656
0.0528184
0.0534298
0.052794
0.0518488
0.0495945
0.0456329
0.0381495
0.0259622
0.01228
0.00546607
0.00588127
0.0469041
0.0424886
0.0439135
0.0531707
0.0658324
0.0785092
0.0889145
0.0963574
0.101108
0.103758
0.104794
0.104464
0.102833
0.100535
0.098086
0.0957415
0.0933826
0.0911796
0.0879373
0.0836478
0.123454
0.124768
0.125663
0.129606
0.136048
0.142932
0.149152
0.15416
0.157716
0.160105
0.161507
0.162353
0.162921
0.163479
0.163993
0.164632
0.164473
0.162853
0.159924
0.156423
0.218611
0.225367
0.226374
0.223134
0.219884
0.217735
0.21732
0.217995
0.219245
0.220525
0.221816
0.223435
0.225354
0.228303
0.23189
0.236039
0.24023
0.242859
0.241203
0.236385
0.287235
0.291636
0.293244
0.290239
0.285594
0.281317
0.27859
0.27739
0.277363
0.278002
0.278929
0.280238
0.282272
0.285313
0.289344
0.294134
0.298623
0.301323
0.300478
0.297948
0.332013
0.329344
0.328719
0.32782
0.326895
0.326914
0.327531
0.328581
0.329832
0.331125
0.332496
0.334009
0.335505
0.336916
0.337866
0.338195
0.338019
0.33734
0.337429
0.340363
0.380288
0.376557
0.376216
0.37736
0.378537
0.38025
0.381879
0.383361
0.384486
0.38548
0.386049
0.386255
0.386117
0.385153
0.383253
0.380505
0.37773
0.375831
0.376038
0.37958
0.443688
0.443676
0.445042
0.446598
0.447073
0.44625
0.444941
0.443796
0.443017
0.442369
0.441649
0.440519
0.438437
0.435259
0.431048
0.425884
0.420949
0.417975
0.419021
0.423208
0.511905
0.514359
0.515332
0.514513
0.512733
0.509772
0.506732
0.504242
0.502479
0.501315
0.500499
0.499453
0.49816
0.496311
0.494099
0.491863
0.489661
0.488511
0.489075
0.489668
0.564288
0.563239
0.562824
0.563031
0.563169
0.562791
0.56189
0.560879
0.559995
0.559434
0.559172
0.559543
0.560378
0.562396
0.565437
0.569488
0.573853
0.577065
0.575989
0.569771
0.612804
0.611158
0.610217
0.610791
0.61232
0.613885
0.614783
0.615218
0.615291
0.615397
0.615504
0.616027
0.617222
0.619256
0.622203
0.626046
0.630017
0.632889
0.632803
0.62982
0.659332
0.657321
0.65607
0.657274
0.660303
0.663814
0.666712
0.668614
0.669744
0.670352
0.67089
0.671415
0.671848
0.672237
0.672551
0.672606
0.672561
0.672548
0.673256
0.675764
0.712065
0.713322
0.715002
0.717545
0.720246
0.722459
0.724011
0.725058
0.725745
0.726284
0.726728
0.726943
0.72722
0.72701
0.72642
0.725307
0.723993
0.723103
0.722832
0.724164
0.769876
0.775638
0.779231
0.779655
0.77905
0.778503
0.778595
0.77907
0.779719
0.780224
0.780677
0.781004
0.781067
0.780777
0.779867
0.777906
0.775491
0.773525
0.772921
0.774077
0.822222
0.821335
0.820878
0.821947
0.824142
0.827032
0.829735
0.831771
0.833104
0.834004
0.834503
0.834577
0.834635
0.834448
0.834182
0.833698
0.832926
0.831942
0.830993
0.830586
0.889759
0.889986
0.888396
0.886019
0.885123
0.885613
0.886634
0.887672
0.888401
0.88866
0.888446
0.887902
0.886775
0.885619
0.884691
0.884535
0.885479
0.886311
0.885624
0.883363
0.953466
0.95343
0.952652
0.950282
0.94791
0.946424
0.945914
0.946127
0.946517
0.946654
0.946433
0.945544
0.944055
0.941336
0.937388
0.932769
0.928223
0.92519
0.92634
0.930364
1.02087
1.02056
1.02062
1.01895
1.016
1.0129
1.01051
1.00914
1.00858
1.00839
1.00846
1.00866
1.00875
1.00872
1.00843
1.00762
1.0067
1.00639
1.0066
1.00626
1.09141
1.09108
1.0908
1.08883
1.08497
1.08034
1.07619
1.07333
1.07161
1.0709
1.07071
1.07116
1.07267
1.07564
1.0805
1.08692
1.0935
1.09792
1.09663
1.09003
1.14811
1.1476
1.14715
1.14583
1.14304
1.13929
1.13566
1.13269
1.13072
1.12962
1.12934
1.12987
1.13094
1.13324
1.13665
1.14099
1.14561
1.14862
1.14871
1.14722
1.18506
1.18291
1.18308
1.1849
1.18648
1.187
1.18671
1.18582
1.18496
1.18449
1.18459
1.18494
1.18576
1.18621
1.18591
1.18458
1.18245
1.18052
1.18122
1.18622
1.22147
1.21908
1.21969
1.22346
1.22808
1.23168
1.23401
1.23511
1.23557
1.23573
1.23601
1.23643
1.23683
1.2369
1.23632
1.23457
1.23196
1.2295
1.22891
1.23126
1.27184
1.27215
1.27174
1.27281
1.27575
1.27919
1.28244
1.2849
1.28641
1.28724
1.28742
1.28698
1.28597
1.28418
1.28216
1.28054
1.27944
1.27921
1.27936
1.27897
1.32798
1.3277
1.32622
1.3275
1.33084
1.33459
1.33799
1.34037
1.34171
1.34213
1.34203
1.3413
1.33962
1.33697
1.33335
1.32911
1.32531
1.3235
1.32482
1.32718
1.39402
1.39723
1.39865
1.39877
1.3989
1.39937
1.40009
1.40072
1.40111
1.40106
1.40059
1.39955
1.39833
1.39678
1.39505
1.39325
1.39132
1.38976
1.38991
1.39079
1.46389
1.46814
1.47047
1.46821
1.46477
1.46229
1.46099
1.46061
1.46084
1.46106
1.4612
1.46131
1.46135
1.46185
1.46292
1.46473
1.46675
1.46764
1.4676
1.46625
1.52878
1.53149
1.53282
1.53072
1.52714
1.52377
1.52154
1.52058
1.52051
1.52103
1.52186
1.52304
1.52508
1.52807
1.5322
1.53722
1.54206
1.54524
1.5456
1.54297
1.5818
1.57883
1.5784
1.57897
1.57895
1.57864
1.57821
1.5779
1.578
1.57855
1.5796
1.58125
1.58355
1.587
1.59149
1.59668
1.60168
1.60508
1.6056
1.60332
1.63769
1.63467
1.63393
1.63407
1.63417
1.63447
1.63465
1.63475
1.63489
1.63528
1.636
1.63692
1.63824
1.63939
1.64028
1.64077
1.64079
1.64046
1.64118
1.64353
1.69488
1.69201
1.69046
1.69055
1.69084
1.69115
1.6912
1.69108
1.69083
1.69048
1.69017
1.68987
1.68929
1.6881
1.68604
1.68295
1.67985
1.67795
1.67853
1.68161
1.75537
1.75556
1.75549
1.75548
1.75468
1.75308
1.75101
1.74899
1.74728
1.74591
1.74447
1.74274
1.74045
1.73707
1.73258
1.72708
1.72155
1.71825
1.71929
1.72258
1.80489
1.80793
1.80906
1.80773
1.80559
1.80373
1.80246
1.80163
1.80111
1.80075
1.80039
1.7998
1.79846
1.79652
1.79394
1.79088
1.78779
1.78568
1.78514
1.78432
1.84335
1.83802
1.83528
1.83673
1.84045
1.84538
1.84998
1.85347
1.85557
1.85706
1.85801
1.85888
1.85981
1.86117
1.86318
1.86593
1.86885
1.87065
1.86796
1.86079
1.91054
1.90933
1.90772
1.90754
1.90904
1.91106
1.91293
1.91432
1.91525
1.91574
1.91609
1.91661
1.91725
1.91852
1.92034
1.92266
1.92503
1.92651
1.9254
1.9223
1.98893
1.9954
1.99779
1.99518
1.99063
1.98525
1.9809
1.97795
1.97633
1.97531
1.97471
1.97411
1.97384
1.97359
1.9734
1.9732
1.97277
1.97225
1.97271
1.97469
2.04493
2.04784
2.04944
2.04803
2.0448
2.04071
2.03706
2.03431
2.03259
2.03154
2.03104
2.03086
2.03089
2.03101
2.03117
2.03132
2.03143
2.0314
2.03113
2.03101
2.08449
2.08188
2.08166
2.08355
2.08562
2.08711
2.08742
2.08704
2.08635
2.08599
2.08571
2.08566
2.08569
2.08562
2.08546
2.08521
2.08485
2.08436
2.08375
2.08325
2.12799
2.12672
2.12701
2.12952
2.13298
2.13648
2.13897
2.1405
2.14111
2.14139
2.1415
2.1417
2.14163
2.14138
2.14063
2.1394
2.13802
2.13675
2.13592
2.13544
2.18153
2.18065
2.17996
2.18181
2.18523
2.18925
2.19281
2.19567
2.1975
2.19879
2.19958
2.20034
2.20095
2.20134
2.20115
2.20031
2.19894
2.19766
2.19683
2.19626
2.25387
2.2563
2.2569
2.25696
2.25676
2.25652
2.25642
2.25666
2.25714
2.2578
2.25858
2.25978
2.26124
2.26328
2.26555
2.2679
2.26977
2.27057
2.26935
2.26674
2.32659
2.33292
2.33529
2.33224
2.32693
2.32177
2.31804
2.31586
2.31471
2.31437
2.3142
2.31451
2.31517
2.3166
2.31906
2.32281
2.32713
2.33017
2.32898
2.32453
2.37699
2.37594
2.37624
2.37631
2.37534
2.37389
2.37226
2.37059
2.36915
2.36798
2.36699
2.36584
2.36404
2.36138
2.3577
2.35369
2.35006
2.34768
2.34876
2.35344
2.42451
2.423
2.42324
2.42429
2.42536
2.42597
2.42579
2.42509
2.42411
2.42308
2.42197
2.42052
2.41844
2.4151
2.40992
2.40306
2.39561
2.39031
2.39087
2.39657
2.47067
2.46797
2.46698
2.46897
2.47207
2.47523
2.4776
2.47926
2.48011
2.48052
2.48056
2.48042
2.47989
2.47944
2.47888
2.47803
2.47701
2.47646
2.47521
2.47217
2.53201
2.5311
2.53011
2.53152
2.53395
2.53637
2.53812
2.53948
2.54032
2.54123
2.54194
2.54301
2.54446
2.54688
2.55036
2.55507
2.56016
2.5638
2.56184
2.55438
2.60687
2.61141
2.61191
2.60969
2.60701
2.60465
2.60293
2.60188
2.60136
2.60126
2.60153
2.60262
2.60445
2.60754
2.61164
2.61666
2.62138
2.62386
2.62247
2.61855
2.67096
2.67424
2.67586
2.67457
2.67118
2.66721
2.66379
2.66122
2.65954
2.65868
2.6585
2.65899
2.65997
2.6612
2.66237
2.66334
2.66376
2.66333
2.66349
2.66559
2.72158
2.72275
2.72373
2.72372
2.72222
2.71982
2.71741
2.71545
2.71404
2.71325
2.71294
2.71295
2.71286
2.71255
2.7117
2.7102
2.70853
2.70725
2.70721
2.70865
2.76877
2.76481
2.76173
2.76217
2.76449
2.76706
2.76879
2.76968
2.7697
2.7695
2.76893
2.7682
2.76684
2.76465
2.7613
2.75721
2.75308
2.75029
2.7504
2.752
2.83182
2.83186
2.83131
2.83147
2.83225
2.83287
2.83278
2.83228
2.83145
2.8307
2.82999
2.82949
2.82867
2.82749
2.82549
2.82295
2.82008
2.81781
2.81701
2.81603
2.89533
2.9022
2.90686
2.90769
2.90569
2.90195
2.89802
2.8949
2.89271
2.89175
2.89149
2.89225
2.89374
2.89633
2.89953
2.9029
2.90534
2.90599
2.90289
2.89548
2.93899
2.94309
2.94564
2.94701
2.94762
2.94755
2.9471
2.9466
2.94623
2.94643
2.94711
2.9488
2.95118
2.95486
2.95908
2.96344
2.96673
2.96747
2.96467
2.95921
2.98355
2.98236
2.98154
2.98352
2.98781
2.9927
2.99648
2.99885
2.9999
3.00052
3.0008
3.00122
3.00154
3.00205
3.00242
3.00294
3.00352
3.00333
3.00255
3.00226
3.05534
3.05893
3.06098
3.06146
3.0619
3.0619
3.0613
3.06038
3.05936
3.05827
3.05727
3.05615
3.05444
3.05156
3.04708
3.04117
3.03517
3.03107
3.03224
3.03751
3.12645
3.13449
3.13874
3.13721
3.13335
3.12877
3.12466
3.12139
3.11906
3.11726
3.11581
3.11437
3.11277
3.11046
3.10707
3.10288
3.09851
3.09598
3.09641
3.09714
3.1742
3.17427
3.17558
3.17726
3.17812
3.1785
3.17824
3.17758
3.17671
3.17613
3.17575
3.17593
3.17629
3.17735
3.17893
3.18098
3.18261
3.18332
3.18108
3.17417
3.22611
3.22553
3.2274
3.23109
3.23388
3.23542
3.23571
3.23551
3.23504
3.235
3.23529
3.23638
3.23816
3.24103
3.24471
3.24908
3.25287
3.25465
3.25234
3.24582
3.28746
3.29128
3.2934
3.29417
3.29464
3.29486
3.29479
3.29449
3.29409
3.29401
3.29431
3.29538
3.29688
3.29929
3.30216
3.30533
3.3085
3.31069
3.30971
3.30638
3.35043
3.35079
3.34993
3.35
3.35105
3.3525
3.3536
3.35419
3.35451
3.3549
3.3557
3.35703
3.35892
3.36083
3.36174
3.36127
3.35954
3.35765
3.35691
3.35824
3.4244
3.42755
3.42877
3.42848
3.42687
3.42404
3.42085
3.41818
3.41644
3.41563
3.41571
3.41675
3.41835
3.42032
3.42198
3.42269
3.42255
3.42157
3.41957
3.41721
3.48426
3.49056
3.49368
3.49238
3.48883
3.48431
3.47997
3.47635
3.47368
3.47205
3.47107
3.47058
3.47033
3.47021
3.47023
3.47074
3.47158
3.47173
3.46956
3.46503
3.51797
3.51586
3.51644
3.51985
3.52389
3.52727
3.52905
3.52912
3.52817
3.52696
3.52589
3.52489
3.52333
3.52062
3.51618
3.51006
3.50349
3.49838
3.49791
3.5005
3.56537
3.56555
3.56675
3.57039
3.57557
3.58039
3.5835
3.58486
3.58505
3.58463
3.58423
3.58361
3.58296
3.58156
3.57898
3.57533
3.57083
3.56735
3.56575
3.56355
3.63266
3.63716
3.63838
3.63858
3.63982
3.64158
3.6433
3.64463
3.6454
3.64585
3.64624
3.64695
3.64771
3.64912
3.65107
3.65325
3.65521
3.65584
3.652
3.64173
3.71425
3.71811
3.71816
3.71717
3.71616
3.71523
3.71436
3.71349
3.71258
3.71172
3.71121
3.71097
3.71147
3.71249
3.71388
3.71547
3.71689
3.71726
3.7147
3.70767
3.79991
3.80661
3.80807
3.80488
3.79941
3.79329
3.7878
3.78328
3.78002
3.77759
3.77616
3.77547
3.77532
3.77548
3.77563
3.77521
3.77448
3.77333
3.77246
3.771
3.85972
3.86592
3.86764
3.86518
3.86041
3.85502
3.85006
3.84592
3.84301
3.84114
3.8405
3.84061
3.842
3.84392
3.84622
3.84856
3.85029
3.851
3.85026
3.84718
3.89397
3.89312
3.89233
3.89399
3.89646
3.89888
3.90043
3.90096
3.9009
3.90107
3.90185
3.90387
3.90679
3.91092
3.91573
3.92029
3.92408
3.92632
3.92657
3.92313
3.94268
3.94099
3.93998
3.94335
3.94865
3.95428
3.95861
3.96136
3.9628
3.96395
3.96537
3.96741
3.97053
3.97442
3.97902
3.984
3.98842
3.99153
3.99266
3.98951
4.02575
4.03381
4.03575
4.03484
4.03354
4.03216
4.03123
4.03064
4.03042
4.03053
4.03123
4.03283
4.03468
4.03685
4.03893
4.04047
4.04157
4.04248
4.04375
4.04176
4.11702
4.13112
4.13585
4.13196
4.12403
4.11521
4.10823
4.10363
4.10125
4.10019
4.10051
4.10164
4.10401
4.10636
4.10768
4.10703
4.10374
4.09984
4.0987
4.09658
4.19069
4.20211
4.20745
4.20538
4.19785
4.1882
4.17966
4.17362
4.17017
4.16896
4.16953
4.17199
4.17562
4.18062
4.18577
4.1894
4.19079
4.18969
4.1849
4.1737
4.24478
4.25145
4.25662
4.25969
4.25798
4.25277
4.24601
4.2402
4.23628
4.23483
4.23535
4.2376
4.2417
4.24725
4.25364
4.25975
4.26383
4.26413
4.25754
4.24271
4.28849
4.29788
4.30613
4.31302
4.3156
4.31341
4.30829
4.30284
4.29861
4.2963
4.29578
4.29721
4.29956
4.30266
4.30547
4.30677
4.30595
4.30234
4.29564
4.28434
4.32
4.33028
4.3397
4.35089
4.35947
4.36304
4.36245
4.35989
4.35738
4.35575
4.35552
4.35597
4.35704
4.35682
4.35436
4.34861
4.33987
4.33061
4.32396
4.31676
4.35744
4.3701
4.38058
4.3941
4.4065
4.41397
4.41666
4.41643
4.41545
4.41484
4.41523
4.4165
4.41789
4.41836
4.41684
4.41166
4.40312
4.39332
4.38381
4.37075
4.40953
4.42666
4.43766
4.44911
4.46061
4.46882
4.47306
4.47455
4.47479
4.47489
4.47542
4.47631
4.47778
4.4787
4.47874
4.4766
4.47149
4.46376
4.45189
4.43205
4.47065
4.48583
4.49505
4.50574
4.51778
4.52733
4.53296
4.53522
4.53565
4.53535
4.53508
4.5349
4.53432
4.53273
4.52949
4.52371
4.51568
4.50691
4.49718
4.48149
4.54537
4.56035
4.56761
4.57467
4.58325
4.59078
4.59562
4.59775
4.59832
4.59796
4.59752
4.59639
4.59455
4.59028
4.58333
4.57336
4.56183
4.55244
4.54639
4.53675
4.62473
4.63562
4.63723
4.63902
4.64417
4.65085
4.65666
4.66057
4.66256
4.66328
4.66328
4.66263
4.66105
4.65782
4.65299
4.64652
4.63999
4.63602
4.632
4.61994
4.72084
4.72412
4.71851
4.71538
4.71805
4.72413
4.73011
4.73443
4.73648
4.73709
4.73653
4.73524
4.73318
4.73046
4.72786
4.726
4.72638
4.72981
4.72959
4.71716
4.84655
4.85196
4.8436
4.83128
4.8235
4.82014
4.81912
4.8189
4.81856
4.81782
4.81686
4.81575
4.81441
4.81275
4.81103
4.81014
4.81167
4.81774
4.82321
4.81971
4.96863
4.97588
4.96664
4.94706
4.92963
4.91715
4.90974
4.90572
4.90357
4.90226
4.90159
4.90176
4.90289
4.90558
4.91041
4.91805
4.92936
4.94454
4.95334
4.94895
5.06422
5.06419
5.0534
5.0351
5.01879
5.00657
4.99869
4.99394
4.99113
4.98975
4.98944
4.9909
4.99443
5.00148
5.01273
5.02957
5.05101
5.07392
5.08397
5.07791
5.15905
5.16359
5.15815
5.14039
5.12216
5.10589
5.0935
5.08542
5.08089
5.07934
5.08014
5.08419
5.09113
5.1023
5.11717
5.13566
5.15632
5.17644
5.1847
5.18316
5.24287
5.25566
5.25897
5.24342
5.22377
5.20389
5.18756
5.1765
5.17051
5.16883
5.17062
5.17655
5.18676
5.20213
5.2216
5.24415
5.26627
5.28401
5.28309
5.27341
5.29912
5.31714
5.33299
5.32729
5.3145
5.29769
5.28116
5.26811
5.25988
5.2568
5.25785
5.26401
5.2742
5.28929
5.30794
5.3275
5.34378
5.35122
5.3345
5.31494
5.31967
5.3459
5.38074
5.38987
5.38805
5.37814
5.3645
5.35142
5.34232
5.33797
5.33827
5.34272
5.35076
5.36037
5.36849
5.37132
5.36497
5.34915
5.31445
5.2948
5.30134
5.32794
5.38003
5.40641
5.42229
5.42759
5.42496
5.41842
5.41246
5.40896
5.4083
5.41031
5.41315
5.41402
5.40942
5.39513
5.37165
5.34169
5.2912
5.26759
5.29262
5.30597
5.36517
5.40087
5.43343
5.4579
5.47108
5.47517
5.47521
5.47404
5.47312
5.47135
5.46805
5.45915
5.44281
5.41823
5.38905
5.3581
5.29951
5.28139
5.38233
5.37235
5.42773
5.4469
5.47145
5.49863
5.5194
5.53065
5.53551
5.53685
5.53652
5.53431
5.52839
5.51675
5.49863
5.47586
5.45592
5.43841
5.38064
5.38725
5.6111
5.5581
5.60323
5.58466
5.57406
5.58035
5.59231
5.60071
5.60475
5.60589
5.60581
5.604
5.60058
5.59438
5.58762
5.58707
5.60043
5.61811
5.5694
5.62079
5.93897
5.81519
5.86082
5.80381
5.74608
5.715
5.70301
5.69776
5.69425
5.69209
5.69158
5.69371
5.69696
5.70408
5.71924
5.7525
5.81057
5.86767
5.82159
5.94469
6.2454
6.01295
6.08701
6.0197
5.93247
5.87231
5.83877
5.82044
5.80977
5.80432
5.80353
5.80801
5.81834
5.83782
5.87171
5.93173
6.01716
6.0835
6.00902
6.24018
6.39567
5.99008
6.12943
6.10397
6.03284
5.97633
5.94337
5.92517
5.91427
5.909
5.90807
5.91326
5.92321
5.94205
5.97495
6.02919
6.09706
6.11875
5.97777
6.38425
6.43135
5.75899
5.99358
6.04441
6.01587
5.98122
5.96005
5.94922
5.94271
5.93973
5.9399
5.94331
5.9503
5.96229
5.98329
6.0157
6.04102
5.98732
5.75389
6.43156
6.71316
5.63655
5.95299
6.03567
6.00509
5.9644
5.94013
5.92752
5.92008
5.91664
5.91704
5.92161
5.92895
5.944
5.96614
6.00685
6.03263
5.95223
5.6408
6.72369
7.80154
5.81662
6.05278
6.14129
6.09815
6.04684
6.01879
6.00439
5.99676
5.9923
5.9929
5.99563
6.00217
6.01768
6.04389
6.09694
6.1421
6.05701
5.82156
7.7984
9.81871
5.40942
5.50084
5.88481
5.97747
5.97793
5.97549
5.97482
5.97359
5.97253
5.97251
5.97357
5.97448
5.97542
5.97762
5.97731
5.88497
5.50141
5.41003
9.8184
-0.0410396
-0.0217951
-0.0261981
-0.00658998
-0.00607946
-0.0125585
-0.0156617
-0.0145222
-0.011966
-0.0104249
-0.010286
-0.0120208
-0.0153484
-0.0189721
-0.0216109
-0.0232825
-0.0322677
-0.0562618
-0.0527047
-0.0663572
0.0255754
0.0441756
0.0472147
0.0778301
0.0970352
0.100925
0.0980136
0.0953947
0.0940282
0.0918612
0.0885349
0.0817941
0.0737826
0.0634528
0.051767
0.0336697
0.0032502
-0.0319212
-0.0417636
-0.071923
0.258973
0.228011
0.21717
0.219768
0.221356
0.219408
0.21478
0.209282
0.204196
0.198625
0.191227
0.180155
0.163777
0.141244
0.112831
0.0819349
0.0571081
0.0424716
0.0342581
0.0298369
0.374266
0.342843
0.322854
0.319228
0.321956
0.323186
0.321492
0.317753
0.313314
0.307625
0.300065
0.288704
0.272616
0.249255
0.216671
0.173305
0.120667
0.0708111
0.0529724
0.0628445
0.406146
0.390091
0.376735
0.383801
0.40416
0.424753
0.436821
0.440173
0.438554
0.435011
0.429778
0.423393
0.415624
0.407735
0.400223
0.391924
0.380124
0.364213
0.342185
0.321842
0.495467
0.50342
0.506427
0.51655
0.53228
0.547154
0.557608
0.563291
0.564525
0.564329
0.562425
0.561441
0.562222
0.568883
0.584676
0.611937
0.64479
0.667487
0.657313
0.621441
0.66617
0.693295
0.69738
0.681785
0.671443
0.669674
0.674819
0.682061
0.687705
0.691185
0.693575
0.69725
0.702373
0.710811
0.723276
0.741512
0.761176
0.772959
0.778625
0.777136
0.791806
0.813366
0.822322
0.821423
0.816644
0.813495
0.813639
0.815448
0.817598
0.819233
0.821213
0.823893
0.828435
0.83302
0.835945
0.834236
0.828353
0.822552
0.832083
0.853944
0.926514
0.955392
0.981923
0.987523
0.979294
0.968019
0.959397
0.95356
0.95035
0.948222
0.946934
0.945709
0.944399
0.942631
0.93886
0.930347
0.919869
0.913756
0.920144
0.937043
1.01876
1.02262
1.03919
1.05342
1.06488
1.0742
1.08003
1.08299
1.08414
1.08409
1.08318
1.08092
1.07674
1.06895
1.05585
1.03787
1.01652
0.999562
1.00145
1.01668
1.18492
1.15867
1.16087
1.18512
1.20975
1.22661
1.2341
1.23655
1.23612
1.23487
1.233
1.23073
1.22665
1.2212
1.21438
1.20666
1.19785
1.18995
1.18561
1.18144
1.47463
1.46843
1.46463
1.4543
1.4378
1.42035
1.4066
1.39751
1.39095
1.38716
1.38461
1.38387
1.38435
1.38721
1.39337
1.40477
1.42153
1.44027
1.4396
1.41486
1.61905
1.62793
1.61467
1.58783
1.55843
1.53657
1.52416
1.51826
1.51562
1.51568
1.51799
1.52424
1.53466
1.55017
1.56842
1.5866
1.6017
1.61303
1.61774
1.61116
1.6118
1.59138
1.57883
1.59279
1.60546
1.6114
1.6131
1.61469
1.61686
1.62055
1.62493
1.63136
1.64061
1.65458
1.67437
1.70013
1.72824
1.75074
1.76138
1.76425
1.64428
1.63309
1.62873
1.6412
1.66068
1.67836
1.69235
1.70319
1.71158
1.71763
1.72182
1.72428
1.72352
1.71953
1.71331
1.7102
1.71521
1.72641
1.74655
1.77137
1.67709
1.67231
1.67387
1.69666
1.73265
1.76961
1.79847
1.8169
1.82831
1.83466
1.83788
1.83676
1.83128
1.81796
1.79519
1.7622
1.72339
1.69368
1.70102
1.73436
1.85653
1.87219
1.88766
1.90441
1.92326
1.94059
1.95541
1.96646
1.97424
1.97858
1.98054
1.9789
1.97297
1.96212
1.94755
1.92804
1.90566
1.88707
1.87415
1.86445
2.16552
2.19668
2.20706
2.18836
2.1646
2.14624
2.1367
2.1339
2.1343
2.13511
2.13526
2.13443
2.1335
2.13295
2.13345
2.13649
2.14278
2.14873
2.13211
2.09224
2.44668
2.45207
2.44372
2.41559
2.37796
2.34458
2.3202
2.30409
2.29463
2.28872
2.28483
2.2825
2.28294
2.28824
2.29741
2.3092
2.32027
2.32381
2.31286
2.28945
2.63953
2.62742
2.60877
2.57991
2.54265
2.50646
2.4774
2.4563
2.44249
2.43359
2.42777
2.42332
2.42058
2.42003
2.42359
2.43251
2.44456
2.45138
2.44916
2.44181
2.6949
2.66079
2.63861
2.63465
2.62915
2.61636
2.59962
2.58425
2.57315
2.56576
2.56213
2.56055
2.56023
2.55908
2.55674
2.55145
2.54374
2.5336
2.53284
2.5439
2.71772
2.69793
2.68599
2.68813
2.69597
2.70157
2.70154
2.6977
2.69324
2.69016
2.68888
2.68902
2.69063
2.69221
2.69418
2.69567
2.69716
2.69781
2.69477
2.69459
2.71396
2.70246
2.70092
2.72346
2.75507
2.78356
2.80315
2.8123
2.8148
2.81498
2.8151
2.81552
2.81573
2.81624
2.81752
2.81855
2.81821
2.81671
2.81728
2.82336
2.80962
2.82689
2.84183
2.86432
2.89009
2.91217
2.92849
2.93846
2.94301
2.94469
2.94549
2.94661
2.94848
2.94975
2.94975
2.94766
2.94317
2.93846
2.94024
2.9484
3.00969
3.05497
3.07158
3.06365
3.05715
3.05673
3.0602
3.06463
3.0682
3.07012
3.07164
3.07368
3.0769
3.08087
3.08456
3.08651
3.08596
3.08402
3.08489
3.08747
3.17898
3.20714
3.21595
3.20718
3.19448
3.18709
3.18473
3.1852
3.18662
3.188
3.1891
3.19005
3.19211
3.1956
3.20231
3.21382
3.22965
3.24395
3.24777
3.23939
3.28812
3.30054
3.30747
3.30585
3.29932
3.29519
3.29491
3.29693
3.2996
3.30157
3.30206
3.3014
3.29858
3.29479
3.29106
3.29182
3.30226
3.31993
3.32981
3.32104
3.32721
3.31408
3.31857
3.34336
3.36813
3.39009
3.40724
3.41881
3.42572
3.42938
3.43097
3.43023
3.42745
3.42012
3.40491
3.37841
3.3421
3.31056
3.3117
3.33345
3.47114
3.47019
3.48608
3.51217
3.53324
3.54873
3.55934
3.56703
3.57205
3.57539
3.57768
3.57943
3.58007
3.57929
3.57683
3.57072
3.55978
3.54677
3.53342
3.5263
3.73547
3.75712
3.77101
3.7638
3.75068
3.7374
3.72804
3.72443
3.72402
3.72534
3.72666
3.72886
3.73203
3.73809
3.74911
3.7672
3.79011
3.80904
3.80204
3.77338
3.96255
3.96374
3.95752
3.94199
3.92154
3.90145
3.88575
3.87591
3.87091
3.869
3.86867
3.87029
3.87375
3.88158
3.89417
3.91109
3.92956
3.94381
3.94623
3.93313
4.13163
4.12268
4.10817
4.08836
4.06441
4.04271
4.02634
4.0148
4.00734
4.00354
4.00173
4.00097
4.00016
3.99791
3.99376
3.99037
3.99092
3.99523
4.0024
4.00841
4.18546
4.16096
4.1433
4.13978
4.14072
4.14123
4.13955
4.13614
4.13301
4.13074
4.13012
4.12966
4.12902
4.12495
4.11371
4.09144
4.05992
4.03254
4.0332
4.05619
4.21892
4.19206
4.19011
4.21818
4.24625
4.26166
4.26572
4.26415
4.26141
4.25959
4.25925
4.25978
4.26164
4.26431
4.26906
4.27317
4.27232
4.26706
4.2568
4.24858
4.37216
4.38513
4.39482
4.39401
4.39436
4.39377
4.39247
4.38944
4.38605
4.38315
4.38121
4.3802
4.37921
4.38064
4.38785
4.40601
4.43424
4.45835
4.45474
4.42973
4.49942
4.5107
4.50134
4.48494
4.48265
4.48941
4.49811
4.50394
4.50661
4.50652
4.505
4.50231
4.49849
4.49171
4.48033
4.4662
4.45578
4.45234
4.4573
4.46218
4.60566
4.60277
4.59258
4.594
4.60392
4.61658
4.62797
4.63583
4.64071
4.64214
4.6423
4.64026
4.63664
4.62817
4.61136
4.58064
4.54023
4.50793
4.50545
4.52613
4.77432
4.78582
4.78899
4.7902
4.78815
4.786
4.78613
4.78714
4.78847
4.78947
4.79074
4.79154
4.79311
4.79527
4.79972
4.80411
4.80283
4.79665
4.78469
4.77377
4.96293
4.98001
4.98805
4.98503
4.97345
4.95837
4.94576
4.93798
4.93408
4.93291
4.93364
4.93711
4.94314
4.95538
4.97699
5.01185
5.05345
5.08405
5.07943
5.04584
5.11244
5.1273
5.13127
5.12066
5.10539
5.09052
5.07739
5.06796
5.06213
5.05995
5.06022
5.06341
5.06919
5.07793
5.09013
5.10814
5.12964
5.14627
5.15485
5.15264
5.17335
5.17477
5.17346
5.17147
5.17178
5.17494
5.17665
5.17635
5.17485
5.17358
5.17331
5.17418
5.17565
5.17543
5.17067
5.15966
5.14673
5.13965
5.14957
5.17238
5.22742
5.21731
5.22081
5.24353
5.26927
5.28858
5.29779
5.30049
5.29923
5.29666
5.29291
5.2881
5.28135
5.2711
5.2554
5.23283
5.20936
5.19587
5.19861
5.21274
5.40033
5.4187
5.43238
5.43676
5.43873
5.43988
5.44115
5.44131
5.43998
5.43731
5.4342
5.42941
5.42091
5.40656
5.38566
5.35857
5.32873
5.3064
5.30214
5.30725
5.56019
5.58328
5.59055
5.58277
5.57683
5.5775
5.58292
5.58778
5.59036
5.59093
5.591
5.59085
5.5907
5.59
5.58953
5.58955
5.5872
5.58175
5.57012
5.55173
5.69636
5.69396
5.70105
5.72399
5.74366
5.75404
5.75656
5.75542
5.75334
5.75199
5.75133
5.75363
5.75967
5.77377
5.79746
5.83209
5.87095
5.899
5.8916
5.85226
5.96101
5.98374
5.99647
5.98709
5.96536
5.94201
5.92371
5.91204
5.90533
5.90311
5.90411
5.90939
5.91859
5.9335
5.95405
5.97904
6.00339
6.01962
6.02535
6.01586
6.1112
6.12771
6.12191
6.09169
6.05874
6.03708
6.0267
6.02398
6.02543
6.02989
6.0373
6.04822
6.06202
6.07709
6.09031
6.09944
6.10549
6.10912
6.11718
6.1282
6.08838
6.05684
6.04057
6.05512
6.07935
6.10327
6.11976
6.13078
6.13877
6.14693
6.15515
6.16516
6.17649
6.18892
6.20029
6.21013
6.21992
6.22946
6.23487
6.2355
6.18578
6.16479
6.16774
6.19619
6.22665
6.24752
6.25809
6.26261
6.26458
6.26668
6.26868
6.27054
6.27066
6.26911
6.26484
6.25848
6.25187
6.24896
6.25269
6.25545
6.44558
6.47077
6.48475
6.47411
6.45375
6.43216
6.416
6.4043
6.39529
6.38837
6.38202
6.37467
6.36394
6.34732
6.32308
6.29231
6.26071
6.23812
6.23289
6.23544
6.63135
6.66136
6.66055
6.63197
6.59858
6.56876
6.54589
6.52902
6.51677
6.50697
6.49847
6.48811
6.47337
6.45076
6.4192
6.379
6.33514
6.29918
6.28118
6.2729
6.63408
6.63009
6.62263
6.62689
6.63439
6.63919
6.63895
6.63602
6.63215
6.62777
6.62307
6.61663
6.60771
6.59538
6.58121
6.56611
6.54818
6.52752
6.50044
6.46728
6.62905
6.61212
6.61469
6.65103
6.69662
6.73464
6.75674
6.76629
6.76786
6.76638
6.76295
6.75957
6.7569
6.75857
6.76692
6.78491
6.80753
6.82048
6.79761
6.74281
6.80266
6.82179
6.84159
6.86472
6.88804
6.90685
6.91856
6.92416
6.92458
6.92291
6.92055
6.91968
6.9209
6.92514
6.93174
6.94142
6.95163
6.95452
6.94715
6.92649
7.07486
7.1193
7.13305
7.12011
7.10365
7.09268
7.08781
7.08604
7.08451
7.08288
7.08282
7.08579
7.09226
7.10078
7.10889
7.11348
7.11427
7.10943
7.10819
7.11249
7.30392
7.32876
7.32874
7.31082
7.28608
7.26494
7.25014
7.24136
7.23656
7.23534
7.23705
7.2428
7.25264
7.26731
7.28589
7.30547
7.32333
7.33521
7.33945
7.33766
7.44301
7.44551
7.43666
7.42333
7.40609
7.39072
7.37973
7.37361
7.3714
7.37319
7.37801
7.38684
7.39856
7.41332
7.42925
7.44581
7.46124
7.47421
7.4882
7.49288
7.46559
7.43659
7.42265
7.44063
7.46372
7.48253
7.49328
7.49802
7.4998
7.50282
7.50728
7.51472
7.52392
7.53388
7.54108
7.54432
7.54446
7.54746
7.56344
7.57377
7.56755
7.55565
7.55682
7.58256
7.60901
7.62599
7.63251
7.63284
7.63066
7.62942
7.63
7.63276
7.63522
7.63543
7.63051
7.61929
7.60326
7.59272
7.60191
7.60858
7.77568
7.80835
7.8152
7.80017
7.78472
7.77329
7.76587
7.76017
7.75499
7.75059
7.74711
7.74342
7.73775
7.72877
7.71718
7.705
7.69246
7.68496
7.68642
7.67547
7.88858
7.91169
7.90189
7.88075
7.87051
7.87106
7.87486
7.87715
7.87632
7.87345
7.86873
7.8618
7.8505
7.83542
7.81884
7.80638
7.80385
7.81326
7.81547
7.78391
7.94776
7.94059
7.93569
7.95696
7.98209
7.99982
8.00796
8.01084
8.01079
8.00946
8.00764
8.00474
8.00014
7.99098
7.97459
7.95293
7.93197
7.92139
7.91964
7.89656
8.13668
8.15861
8.16376
8.15994
8.15506
8.15161
8.15063
8.15122
8.15153
8.15154
8.15208
8.15398
8.15759
8.16322
8.16845
8.16995
8.16658
8.1588
8.14335
8.10534
8.29451
8.32127
8.31745
8.29819
8.28436
8.28185
8.28633
8.29188
8.29583
8.29789
8.29934
8.30124
8.30551
8.31361
8.32669
8.34481
8.36308
8.37037
8.35938
8.3239
8.41651
8.41621
8.4135
8.42993
8.44593
8.45545
8.45883
8.45871
8.45772
8.45672
8.45648
8.45734
8.45902
8.46288
8.46999
8.48003
8.4919
8.50018
8.50205
8.48585
8.687
8.71579
8.72154
8.70864
8.68659
8.66421
8.64689
8.63441
8.62628
8.62143
8.62056
8.62242
8.62726
8.63219
8.63597
8.6363
8.63162
8.62277
8.62473
8.62326
8.89898
8.93094
8.92391
8.89049
8.85233
8.82216
8.80233
8.79035
8.78321
8.78026
8.78106
8.7863
8.79491
8.8065
8.81962
8.8315
8.84092
8.84538
8.84599
8.82867
8.98392
8.98141
8.96978
8.97414
8.97328
8.96457
8.95283
8.94404
8.9389
8.93805
8.94065
8.94721
8.9578
8.97291
8.99153
9.01103
9.02665
9.03534
9.04005
9.02033
9.13006
9.13963
9.13736
9.13847
9.1345
9.12485
9.11302
9.10327
9.09702
9.09565
9.09856
9.10695
9.11911
9.13579
9.15504
9.1738
9.1893
9.19899
9.20589
9.18664
9.27587
9.29141
9.29197
9.29747
9.29658
9.28942
9.27755
9.26444
9.25424
9.24961
9.25061
9.25683
9.26719
9.27907
9.29053
9.29977
9.30526
9.3082
9.31557
9.30093
9.43132
9.46628
9.47164
9.47064
9.45982
9.44231
9.42419
9.40855
9.39769
9.39228
9.39252
9.39785
9.40543
9.41229
9.41418
9.40793
9.39542
9.38356
9.38621
9.37096
9.50739
9.55213
9.55502
9.55154
9.54697
9.54143
9.53593
9.53092
9.52791
9.52754
9.5311
9.53717
9.5451
9.55097
9.55017
9.53865
9.51611
9.49179
9.48319
9.45625
9.51129
9.53483
9.544
9.5878
9.62924
9.65422
9.66271
9.66276
9.66071
9.66096
9.66463
9.67183
9.68024
9.68891
9.6959
9.69785
9.69245
9.67837
9.66077
9.6087
9.68476
9.74887
9.77855
9.80451
9.81792
9.8183
9.81067
9.80099
9.79212
9.78679
9.78466
9.7849
9.78662
9.78831
9.79123
9.79862
9.8115
9.82034
9.8061
9.73066
9.83377
9.9178
9.94453
9.94837
9.94323
9.93397
9.92361
9.91255
9.90316
9.89548
9.88997
9.88453
9.87661
9.86212
9.83842
9.80596
9.77274
9.74765
9.73864
9.69355
9.83427
9.88516
9.89792
9.92665
9.96051
9.98797
10.0038
10.0089
10.0093
10.0065
10.0034
9.99684
9.98684
9.9664
9.93174
9.87814
9.81134
9.75439
9.734
9.70295
9.88616
9.91871
9.93258
9.98198
10.0403
10.0885
10.1179
10.1317
10.136
10.1358
10.1341
10.1304
10.1237
10.1116
10.0949
10.0723
10.0434
10.0136
9.98397
9.91806
10.1254
10.1884
10.2072
10.2283
10.2497
10.2667
10.2772
10.2816
10.2809
10.2781
10.2742
10.2693
10.2645
10.26
10.2606
10.2693
10.2845
10.2964
10.2804
10.1946
10.3629
10.4409
10.4443
10.4283
10.4168
10.4131
10.4151
10.4171
10.4176
10.4158
10.4132
10.4095
10.4048
10.4004
10.399
10.401
10.4064
10.4148
10.4201
10.3719
10.4494
10.4859
10.4664
10.4638
10.4806
10.5052
10.5277
10.543
10.5525
10.5568
10.5593
10.5599
10.5607
10.5596
10.5568
10.5519
10.5488
10.5536
10.5684
10.5489
10.5625
10.5766
10.5556
10.5669
10.6015
10.6405
10.6721
10.6935
10.7063
10.7132
10.7171
10.7202
10.7238
10.7288
10.7354
10.7446
10.7591
10.7833
10.8045
10.78
10.8585
10.8973
10.879
10.8555
10.8481
10.8522
10.8633
10.8755