/*--------------------------------*- C++ -*----------------------------------*\
  =========                 |
  \\      /  F ield         | OpenFOAM: The Open Source CFD Toolbox
   \\    /   O peration     | Website:  https://openfoam.org
    \\  /    A nd           | Version:  6
     \\/     M anipulation  |
\*---------------------------------------------------------------------------*/
FoamFile
{
    version     2.0;
    format      ascii;
    class       volScalarField;
    location    "18";
    object      p;
}
// * * * * * * * * * * * * * * * * * * * * * * * * * * * * * * * * * * * * * //

dimensions      [0 2 -2 0 0 0 0];

internalField   nonuniform List<scalar> 
130000
(
0.00693477
0.0061434
0.00559753
0.00518258
0.00482246
0.0045003
0.00421141
0.00394627
0.00370217
0.00347209
0.0032536
0.00304247
0.00283616
0.00263198
0.00243026
0.00222816
0.00202708
0.0018241
0.00161624
0.00141345
0.0100149
0.00952976
0.00900479
0.00858912
0.00820266
0.0078467
0.00749904
0.00716483
0.006834
0.00650754
0.00618228
0.00585625
0.00553151
0.00520592
0.00488047
0.00455574
0.00423366
0.00390803
0.00357752
0.00324841
0.0134234
0.0128627
0.0122379
0.0117201
0.01122
0.010752
0.0102885
0.00984323
0.00940079
0.00896654
0.00853542
0.00810774
0.00768466
0.00726069
0.0068455
0.00642745
0.0060206
0.00560869
0.00520117
0.0047884
0.0162971
0.0158005
0.0151993
0.0146591
0.0141051
0.0135609
0.0130095
0.0124669
0.0119222
0.0113806
0.0108424
0.0103045
0.00977551
0.00924677
0.00872851
0.00821049
0.00770729
0.0072009
0.00670802
0.00621278
0.0187255
0.0183503
0.0178241
0.0173124
0.0167572
0.0161867
0.0155973
0.0150014
0.0143966
0.0137837
0.0131705
0.0125505
0.0119386
0.0113194
0.0107166
0.0101061
0.00951766
0.0089219
0.00834842
0.00776701
0.0208824
0.0205705
0.0200989
0.0196155
0.0190702
0.0184894
0.0178814
0.0172511
0.0166057
0.0159388
0.0152691
0.0145817
0.0139036
0.0132125
0.0125374
0.0118528
0.0111925
0.0105221
0.00987868
0.00922407
0.0227597
0.0225273
0.0221114
0.0216603
0.0211342
0.0205524
0.0199371
0.0192828
0.0186089
0.0178993
0.0171845
0.0164421
0.0157083
0.0149516
0.0142159
0.0134606
0.0127356
0.0119946
0.011287
0.0105582
0.0245081
0.0243167
0.0239472
0.0235324
0.0230309
0.0224531
0.0218359
0.0211653
0.0204714
0.0197291
0.0189801
0.018192
0.017414
0.0166062
0.0158184
0.0150075
0.0142284
0.0134291
0.0126672
0.0118797
0.0261332
0.0259568
0.0256127
0.0252269
0.0247446
0.024171
0.023553
0.0228707
0.0221618
0.0213938
0.0206167
0.0197921
0.018976
0.0181204
0.0172887
0.0164233
0.0155943
0.0147384
0.0139244
0.0130738
0.0275807
0.0274412
0.0271369
0.0267833
0.0263252
0.025759
0.0251447
0.0244548
0.0237358
0.0229473
0.0221487
0.0212925
0.020446
0.0195534
0.0186833
0.0177758
0.0169053
0.0160028
0.015145
0.0142452
0.0289982
0.0288591
0.0285687
0.0282292
0.0277824
0.0272159
0.0266016
0.0259027
0.0251747
0.0243679
0.0235501
0.0226671
0.021793
0.0208636
0.0199603
0.0190092
0.0180993
0.0171504
0.0162496
0.0152957
0.030241
0.0301355
0.0298782
0.0295654
0.0291394
0.0285783
0.0279682
0.0272641
0.0265302
0.0257082
0.0248754
0.0239679
0.0230712
0.022113
0.0211799
0.020195
0.0192519
0.0182644
0.0173275
0.0163315
0.0314989
0.0313755
0.0311235
0.0308243
0.0304067
0.0298445
0.0292334
0.0285224
0.0277812
0.026945
0.0260971
0.0251685
0.0242498
0.0232615
0.0223014
0.0212802
0.020304
0.0192769
0.0183031
0.0172597
0.0326139
0.0325194
0.0322922
0.0320141
0.0316077
0.0310482
0.0304383
0.0297228
0.028976
0.0281274
0.0272669
0.0263181
0.0253806
0.0243683
0.023383
0.0223331
0.0213285
0.0202681
0.0192625
0.0181819
0.0337098
0.0336306
0.033418
0.0331455
0.0327421
0.0321794
0.0315682
0.0308461
0.030093
0.029232
0.0283581
0.0273912
0.0264342
0.0253963
0.0243869
0.0233055
0.0222712
0.0211762
0.0201368
0.0190139
0.0347623
0.0346962
0.0344994
0.0342375
0.0338388
0.0332751
0.0326628
0.0319355
0.0311762
0.0303037
0.0294177
0.028433
0.0274585
0.0263993
0.0253667
0.0242597
0.023199
0.0220738
0.0210045
0.0198475
0.0357472
0.0356947
0.0355135
0.0352674
0.0348746
0.0343121
0.0336988
0.0329679
0.032202
0.0313198
0.0304206
0.0294208
0.0284274
0.027346
0.0262901
0.0251555
0.024066
0.0229101
0.0218077
0.020613
0.0367509
0.036693
0.0365181
0.0362895
0.0358995
0.0353372
0.0347213
0.0339873
0.0332141
0.0323227
0.0314109
0.0303956
0.0293847
0.0282841
0.0272052
0.0260468
0.0249311
0.023747
0.0226146
0.0213878
0.0376713
0.0376388
0.0374829
0.0372701
0.0368856
0.0363245
0.0357074
0.0349718
0.034192
0.0332929
0.0323678
0.0313397
0.0303097
0.02919
0.0280873
0.0269045
0.0257598
0.024548
0.0233822
0.0221216
0.0386294
0.0386096
0.0384662
0.0382635
0.0378816
0.037319
0.0366985
0.0359605
0.0351741
0.034267
0.0333292
0.0322872
0.0312395
0.0301019
0.0289762
0.0277708
0.0265993
0.0253603
0.0241634
0.0228712
0.0395417
0.0395406
0.039417
0.039232
0.0388578
0.0382987
0.0376763
0.036938
0.0361454
0.0352328
0.0342815
0.0332286
0.0321616
0.0310075
0.0298574
0.0286304
0.0274292
0.0261651
0.0249335
0.0236103
0.0404927
0.0405008
0.0403861
0.0402233
0.0398544
0.0393009
0.0386748
0.037936
0.037136
0.0362182
0.0352541
0.0341895
0.0331043
0.0319333
0.0307597
0.0295105
0.0282814
0.0269901
0.0257253
0.0243698
0.0414423
0.0414716
0.0413715
0.0412286
0.0408649
0.0403179
0.0396886
0.0389508
0.038143
0.0372223
0.0362445
0.0351712
0.0340658
0.0328805
0.0316812
0.0304126
0.0291521
0.0278376
0.0265362
0.025152
0.0424234
0.0424785
0.0423945
0.0422714
0.0419135
0.0413726
0.0407413
0.0400044
0.0391885
0.0382634
0.0372726
0.0361885
0.0350645
0.0338627
0.0326389
0.0313478
0.030058
0.0287155
0.0273789
0.0259609
0.0434553
0.0435222
0.0434543
0.043352
0.0430016
0.042469
0.0418363
0.0411022
0.0402782
0.0393502
0.0383456
0.0372542
0.0361099
0.0348948
0.0336445
0.0323351
0.0310127
0.0296482
0.0282733
0.0268275
0.0444892
0.0445945
0.0445472
0.0444771
0.0441386
0.0436181
0.0429863
0.042256
0.0414254
0.040493
0.0394759
0.0383741
0.0372116
0.0359798
0.0347044
0.0333716
0.032019
0.0306255
0.0292137
0.0277318
0.0456516
0.0457665
0.0457344
0.0456835
0.045354
0.0448415
0.0442107
0.0434837
0.0426472
0.0417114
0.0406809
0.0395709
0.0383884
0.0371424
0.0358403
0.0344878
0.0331018
0.0316849
0.0302335
0.0287213
0.0468148
0.0469734
0.0469727
0.0469507
0.0466385
0.0461376
0.0455124
0.0447893
0.0439498
0.0430093
0.0419672
0.0408452
0.0396449
0.0383809
0.0370537
0.0356763
0.0342592
0.0328111
0.0313216
0.0297703
0.0481423
0.0483101
0.0483306
0.0483276
0.048029
0.0475362
0.0469159
0.0461961
0.0453539
0.0444092
0.0433551
0.0422225
0.0410031
0.0397225
0.0383693
0.036969
0.035518
0.0340423
0.0325122
0.0309253
0.0494877
0.0497034
0.0497615
0.0497923
0.0495153
0.0490364
0.048425
0.0477103
0.0468677
0.0459185
0.0448543
0.0437082
0.0424713
0.0411711
0.0397929
0.0383657
0.036883
0.0353731
0.0338036
0.0321739
0.0510214
0.0512545
0.0513375
0.051393
0.0511328
0.0506652
0.0500613
0.0493513
0.0485084
0.0475557
0.046481
0.0453227
0.0440662
0.042746
0.0413413
0.0398872
0.03837
0.0368277
0.0352162
0.0335442
0.052614
0.0528972
0.053021
0.0531145
0.0528793
0.0524282
0.0518358
0.0511326
0.0502914
0.0493352
0.048252
0.0470793
0.0458047
0.0444625
0.0430315
0.0415478
0.0399975
0.0384178
0.0367653
0.0350461
0.0544122
0.0547171
0.0548723
0.0549948
0.0547814
0.0543445
0.0537629
0.053066
0.0522268
0.0512678
0.0501759
0.0489908
0.0476968
0.0463321
0.0448733
0.0433588
0.0417718
0.0401548
0.0384576
0.03669
0.056303
0.0566626
0.0568649
0.0570295
0.0568458
0.0564282
0.0558613
0.055173
0.0543377
0.0533762
0.0522778
0.0510792
0.0497683
0.0483803
0.0468939
0.0453469
0.0437244
0.0420661
0.0403248
0.0385052
0.0584218
0.0588122
0.0590527
0.0592519
0.0590951
0.0586954
0.0581433
0.0574635
0.0566326
0.0556693
0.0545641
0.0533538
0.0520248
0.0506132
0.0490979
0.0475169
0.0458551
0.0441549
0.0423648
0.04049
0.0606691
0.0611217
0.0614161
0.0616634
0.0615421
0.0611662
0.0606332
0.0599646
0.0591404
0.0581758
0.0570654
0.0558419
0.0544968
0.0530618
0.0515184
0.0499027
0.0482026
0.046457
0.0446184
0.0426855
0.0631796
0.0636685
0.0640096
0.0642977
0.0642101
0.0638566
0.0633432
0.0626863
0.0618699
0.0609049
0.0597891
0.0585539
0.0571911
0.0557318
0.0541591
0.0525069
0.0507647
0.0489727
0.0470805
0.0450857
0.0658497
0.0664101
0.0668146
0.0671585
0.0671135
0.0667895
0.0663004
0.0656589
0.0648527
0.0638888
0.0627697
0.0615216
0.0601428
0.0586591
0.0570568
0.0553675
0.0535842
0.0517423
0.0497966
0.047737
0.0688196
0.0694284
0.0698883
0.0702816
0.0702774
0.0699823
0.0695186
0.0688933
0.0680987
0.0671372
0.0660147
0.0647557
0.0633593
0.0618499
0.0602166
0.0584879
0.0566588
0.0547654
0.0527608
0.0506323
0.0719873
0.0726797
0.0732129
0.0736717
0.0737181
0.0734599
0.0730267
0.0724219
0.071642
0.0706846
0.0695611
0.0682903
0.0668781
0.0653432
0.0636787
0.0619097
0.0600355
0.0580872
0.0560237
0.0538235
0.0754987
0.076249
0.0768492
0.077367
0.0774633
0.0772416
0.0768405
0.0762578
0.0754942
0.0745427
0.0734186
0.0721382
0.0707089
0.0691475
0.0674504
0.0656389
0.0637154
0.0617106
0.0595827
0.057306
0.0792423
0.080091
0.080778
0.0813727
0.0815298
0.0813537
0.080991
0.0804352
0.0796917
0.0787486
0.0776268
0.0763364
0.0748924
0.0733052
0.0715756
0.0697212
0.0677492
0.0656845
0.0634918
0.0611357
0.0833737
0.0842959
0.0850629
0.0857291
0.0859472
0.0858175
0.0854957
0.0849694
0.0842486
0.0833163
0.0821977
0.0809001
0.0794405
0.0778267
0.0760634
0.0741639
0.0721388
0.0700122
0.067749
0.0653077
0.0877799
0.0888159
0.0896851
0.0904425
0.0907343
0.0906613
0.0903879
0.089897
0.0892037
0.0882854
0.0871737
0.0858691
0.0843967
0.0827573
0.0809605
0.0790156
0.0769383
0.0747464
0.0724119
0.0698824
0.0926208
0.0937452
0.0947122
0.0955564
0.0959232
0.0959087
0.0956872
0.0952351
0.0945728
0.0936719
0.0925686
0.0912607
0.0897748
0.0881095
0.0862783
0.0842858
0.0821516
0.0798922
0.0774801
0.0748562
0.097784
0.0990395
0.100127
0.101079
0.101534
0.10159
0.101429
0.101023
0.100397
0.0995181
0.0984278
0.0971174
0.0956217
0.0939321
0.0920672
0.0900271
0.0878369
0.0855065
0.0830159
0.080294
0.10342
0.104788
0.105993
0.107052
0.107599
0.107729
0.107633
0.107279
0.106694
0.105842
0.104767
0.103459
0.101954
0.10024
0.098341
0.0962515
0.0940007
0.0915972
0.0890214
0.0861949
0.109435
0.110956
0.112301
0.113489
0.114142
0.114358
0.114338
0.114044
0.113508
0.112688
0.111634
0.110331
0.10882
0.107086
0.105154
0.103015
0.100705
0.0982249
0.0955628
0.0926277
0.115958
0.117618
0.119106
0.120425
0.12119
0.121501
0.121563
0.121337
0.120856
0.120075
0.119048
0.117755
0.116241
0.114487
0.112522
0.110334
0.10796
0.105401
0.102646
0.099595
0.12291
0.124748
0.126403
0.127877
0.128771
0.129191
0.129348
0.1292
0.128784
0.128051
0.127057
0.125779
0.124268
0.122498
0.120503
0.118266
0.11583
0.113189
0.110339
0.107168
0.130402
0.132412
0.134241
0.135876
0.136909
0.137449
0.137711
0.137654
0.137312
0.136636
0.135682
0.134428
0.132922
0.13114
0.129116
0.126832
0.124329
0.121605
0.118654
0.115355
0.138365
0.140588
0.142616
0.144439
0.145631
0.146308
0.146692
0.146739
0.146484
0.145876
0.144974
0.14375
0.142259
0.140471
0.138422
0.136091
0.133525
0.130715
0.12766
0.124228
0.146899
0.149331
0.151571
0.153593
0.154959
0.155789
0.15631
0.156476
0.156322
0.155795
0.154954
0.153773
0.152302
0.150513
0.148443
0.146068
0.143436
0.140538
0.137373
0.133801
0.155934
0.158619
0.1611
0.163352
0.164915
0.165921
0.166598
0.166903
0.166867
0.166438
0.165673
0.164544
0.163106
0.161325
0.15924
0.156825
0.15413
0.151142
0.147865
0.144145
0.165558
0.168499
0.171238
0.173736
0.175516
0.17672
0.177575
0.178039
0.178141
0.177827
0.177153
0.176095
0.174698
0.172936
0.170841
0.16839
0.16563
0.162553
0.159157
0.155282
0.175692
0.178936
0.181966
0.184748
0.186777
0.188208
0.189268
0.189919
0.190181
0.190006
0.189444
0.188471
0.187134
0.185401
0.183307
0.180825
0.178006
0.174836
0.171319
0.167281
0.186406
0.189962
0.193309
0.196398
0.198705
0.200393
0.201687
0.202554
0.203006
0.202996
0.202569
0.201704
0.200441
0.198753
0.196669
0.194164
0.191285
0.188024
0.184379
0.180168
0.197603
0.201525
0.205231
0.208674
0.211299
0.213285
0.214853
0.215973
0.216649
0.216835
0.216572
0.215839
0.214673
0.213047
0.210986
0.208467
0.205535
0.202179
0.198404
0.194011
0.209333
0.213639
0.217738
0.221572
0.224556
0.226883
0.228767
0.230183
0.231122
0.231543
0.231476
0.230907
0.229862
0.228318
0.226295
0.223771
0.220787
0.21734
0.213426
0.208839
0.221473
0.226225
0.230773
0.235057
0.238457
0.241181
0.243435
0.245198
0.246449
0.24715
0.247321
0.246948
0.246055
0.244617
0.24265
0.240132
0.237105
0.233563
0.229507
0.224712
0.234044
0.239272
0.244317
0.249106
0.252981
0.256162
0.258845
0.261016
0.262634
0.263667
0.264121
0.263989
0.263279
0.261976
0.260084
0.257587
0.254519
0.250884
0.246675
0.241661
0.246898
0.252673
0.258285
0.263657
0.268083
0.271798
0.274985
0.277632
0.279682
0.281106
0.281896
0.282048
0.281564
0.280426
0.278634
0.276173
0.273076
0.269345
0.264979
0.259727
0.260009
0.266383
0.272631
0.278662
0.283718
0.288047
0.291814
0.295013
0.297562
0.299441
0.300622
0.301113
0.300894
0.299958
0.298292
0.295889
0.292769
0.288949
0.284417
0.278915
0.273197
0.280259
0.287237
0.294027
0.299807
0.30484
0.309269
0.313095
0.316211
0.318606
0.320235
0.321111
0.321204
0.32051
0.319005
0.316683
0.313562
0.309659
0.304966
0.299204
0.286374
0.294203
0.302006
0.309648
0.316241
0.322058
0.327218
0.331732
0.335469
0.338429
0.340548
0.341855
0.342298
0.341887
0.34058
0.338378
0.335284
0.331328
0.326487
0.320475
0.299345
0.308028
0.316758
0.325351
0.332835
0.339495
0.34543
0.350661
0.355038
0.358579
0.361207
0.362964
0.363789
0.363699
0.362634
0.360602
0.35759
0.353628
0.348688
0.342463
0.311908
0.32153
0.331277
0.340887
0.3493
0.35681
0.363503
0.369418
0.374395
0.378479
0.381584
0.38378
0.384987
0.385243
0.384464
0.382667
0.37981
0.375933
0.370978
0.364628
0.32382
0.334421
0.345228
0.355875
0.365191
0.373476
0.380825
0.387302
0.392757
0.397267
0.400754
0.403316
0.404869
0.405471
0.405013
0.403521
0.40092
0.397246
0.392414
0.386081
0.334681
0.346304
0.358155
0.369755
0.379847
0.388732
0.396529
0.403345
0.409061
0.413799
0.417497
0.420296
0.422104
0.423008
0.422876
0.421744
0.41949
0.416161
0.411611
0.40548
0.34416
0.356727
0.369502
0.381846
0.392453
0.401644
0.409588
0.416436
0.422121
0.426816
0.430497
0.433338
0.43526
0.436376
0.436526
0.435766
0.433921
0.431041
0.426919
0.421164
0.351555
0.365002
0.378521
0.391308
0.402062
0.411165
0.418879
0.425401
0.430735
0.4351
0.438508
0.441176
0.443027
0.444206
0.444534
0.444078
0.442618
0.440211
0.436571
0.431288
0.356415
0.370507
0.384483
0.397346
0.407834
0.416427
0.423519
0.429365
0.434044
0.437803
0.440702
0.442974
0.444558
0.445613
0.445944
0.445641
0.444432
0.44238
0.439143
0.434289
0.357767
0.372366
0.386541
0.399143
0.409011
0.416748
0.422908
0.427797
0.431574
0.43451
0.436697
0.438373
0.439479
0.440182
0.440286
0.439873
0.438646
0.436681
0.433593
0.42893
0.355368
0.370168
0.384248
0.396296
0.405285
0.411951
0.417004
0.420786
0.423521
0.425474
0.426783
0.427666
0.428089
0.428197
0.427782
0.426922
0.425303
0.423016
0.41967
0.414787
0.34842
0.36335
0.377204
0.388564
0.396576
0.402109
0.406025
0.408673
0.410328
0.411223
0.411533
0.411456
0.410973
0.410194
0.408924
0.407191
0.404708
0.401572
0.397413
0.391716
0.337215
0.352055
0.365586
0.376248
0.383339
0.387829
0.390697
0.392275
0.392881
0.3927
0.391937
0.390734
0.389121
0.387152
0.384644
0.381586
0.377713
0.373125
0.36751
0.360313
0.321223
0.336099
0.349428
0.359559
0.365931
0.369601
0.371631
0.372303
0.371961
0.370717
0.368812
0.366326
0.363331
0.359812
0.355644
0.350728
0.344869
0.338135
0.330317
0.320792
0.301121
0.315973
0.329241
0.339098
0.345052
0.348218
0.3497
0.349694
0.348541
0.346278
0.343184
0.339249
0.334602
0.329153
0.322846
0.315515
0.30702
0.297388
0.286549
0.27381
0.276238
0.29141
0.304991
0.315006
0.320992
0.324077
0.325374
0.324981
0.323227
0.320034
0.315711
0.310151
0.303547
0.295712
0.286721
0.27628
0.264372
0.250931
0.236076
0.219015
0.246998
0.262609
0.276882
0.287573
0.294138
0.297685
0.299278
0.298887
0.2968
0.292822
0.287289
0.279956
0.27109
0.260398
0.248084
0.233764
0.217525
0.199203
0.179154
0.156523
0.211937
0.228579
0.2442
0.256324
0.26424
0.268985
0.271536
0.271708
0.269717
0.265211
0.258547
0.249316
0.237865
0.223758
0.207397
0.188197
0.166448
0.141846
0.115115
0.0852734
0.170596
0.188635
0.206338
0.220833
0.231097
0.238045
0.242468
0.243994
0.242724
0.238127
0.230547
0.219384
0.205072
0.187002
0.165726
0.140491
0.111804
0.0793018
0.0440503
0.00493871
0.120093
0.140526
0.161521
0.179797
0.193847
0.204396
0.21199
0.216003
0.21637
0.212335
0.204217
0.191168
0.173724
0.151028
0.123858
0.0911788
0.0538676
0.0113236
-0.0349317
-0.0860806
0.058682
0.0823966
0.108185
0.132092
0.15186
0.167898
0.180376
0.188395
0.191646
0.189114
0.181034
0.16628
0.145482
0.117515
0.0833476
0.0416999
-0.00630462
-0.0614934
-0.121696
-0.188067
-0.0179768
0.0108945
0.0438166
0.0759967
0.104114
0.128155
0.147795
0.161773
0.169488
0.16963
0.162351
0.146195
0.121878
0.0878988
0.0454942
-0.0070942
-0.0683252
-0.139264
-0.216992
-0.302804
-0.112277
-0.0762247
-0.0331644
0.0106824
0.0504881
0.0856451
0.115199
0.137476
0.1515
0.155608
0.14981
0.13229
0.103906
0.0628638
0.0106066
-0.0549885
-0.131997
-0.221949
-0.321391
-0.431596
-0.228566
-0.181804
-0.124334
-0.064351
-0.00870187
0.0411227
0.0834072
0.115981
0.13751
0.146026
0.141605
0.122234
0.0889035
0.0393328
-0.0246093
-0.105483
-0.201158
-0.314114
-0.440266
-0.580909
-0.3675
-0.305937
-0.228872
-0.147749
-0.0722014
-0.00472853
0.0521611
0.0958447
0.124872
0.137161
0.13277
0.109554
0.06896
0.00847646
-0.0696642
-0.168499
-0.28596
-0.425781
-0.583763
-0.761162
-0.530197
-0.447776
-0.344844
-0.237505
-0.138793
-0.0523598
0.0190217
0.0725499
0.106762
0.119602
0.111975
0.0816782
0.0301554
-0.0452618
-0.141562
-0.262566
-0.406631
-0.579155
-0.775829
-0.998008
-0.711831
-0.601842
-0.466879
-0.329809
-0.207133
-0.103366
-0.0209661
0.037562
0.071638
0.0796456
0.0630428
0.0194398
-0.0490355
-0.14521
-0.26582
-0.41581
-0.594318
-0.808477
-1.05405
-1.33201
-0.907657
-0.761406
-0.588697
-0.421286
-0.278388
-0.163971
-0.0787465
-0.023732
0.00192904
-0.00262797
-0.0351896
-0.0984269
-0.189962
-0.313607
-0.466394
-0.655155
-0.879761
-1.14877
-1.45757
-1.80563
-1.10833
-0.91911
-0.707499
-0.515787
-0.363445
-0.250713
-0.174145
-0.132347
-0.122745
-0.145606
-0.198787
-0.285045
-0.402444
-0.556547
-0.746029
-0.980206
-1.25964
-1.59297
-1.97475
-2.40117
-1.31667
-1.08176
-0.840212
-0.641345
-0.497999
-0.402296
-0.345397
-0.323116
-0.332529
-0.373647
-0.445051
-0.549539
-0.687467
-0.866115
-1.08738
-1.36221
-1.69174
-2.08277
-2.52849
-3.02257
-1.55163
-1.28246
-1.03485
-0.854952
-0.739166
-0.669659
-0.634814
-0.630058
-0.653778
-0.705695
-0.78557
-0.896
-1.04079
-1.22858
-1.46529
-1.76204
-2.12009
-2.54182
-3.02044
-3.5495
-1.86885
-1.58793
-1.35644
-1.20207
-1.10722
-1.05191
-1.02674
-1.02672
-1.05157
-1.09988
-1.1738
-1.27515
-1.41128
-1.58995
-1.82121
-2.11317
-2.46818
-2.88338
-3.35359
-3.86803
-2.38845
-2.089
-1.84232
-1.66717
-1.55033
-1.47497
-1.43212
-1.41457
-1.42204
-1.45122
-1.5062
-1.58632
-1.70094
-1.85328
-2.05654
-2.31431
-2.63321
-3.00729
-3.4351
-3.88837
-3.19462
-2.82483
-2.48919
-2.22981
-2.04606
-1.92175
-1.84143
-1.79003
-1.76597
-1.76349
-1.78843
-1.83539
-1.91393
-2.01983
-2.1681
-2.35647
-2.60224
-2.90396
-3.25914
-3.57707
-4.02029
-3.62668
-3.1922
-2.84904
-2.60054
-2.42479
-2.30027
-2.20857
-2.14909
-2.11263
-2.10464
-2.1147
-2.1521
-2.20211
-2.27877
-2.37182
-2.51375
-2.71435
-2.94947
-2.94005
-4.16958
-4.04239
-3.61743
-3.21793
-2.90732
-2.6809
-2.51779
-2.39317
-2.30935
-2.25001
-2.22609
-2.21661
-2.23849
-2.26178
-2.3152
-2.36655
-2.47019
-2.60924
-2.68395
-2.16645
-3.18855
-3.90451
-3.69913
-3.3001
-2.99707
-2.77825
-2.6097
-2.47809
-2.38311
-2.3175
-2.2832
-2.27055
-2.28368
-2.31046
-2.35727
-2.41622
-2.51801
-2.64117
-2.52454
-1.73913
0.00312935
0.00305513
0.00298262
0.00291681
0.00283888
0.0027647
0.00269995
0.00263754
0.00257976
0.00252123
0.00246442
0.00240497
0.00234467
0.00227931
0.00221195
0.00213831
0.00206189
0.00197594
0.0018722
0.00175165
0.0117598
0.0116701
0.0115944
0.0115197
0.0114171
0.011319
0.0112191
0.0111207
0.0110163
0.0109089
0.0107943
0.0106742
0.0105463
0.0104124
0.0102693
0.0101215
0.00996639
0.0098006
0.00961229
0.00942711
0.0205963
0.0205574
0.0204361
0.0203287
0.0201814
0.0200397
0.0198828
0.0197312
0.0195639
0.0193983
0.0192182
0.0190376
0.0188436
0.0186466
0.0184394
0.0182294
0.0180112
0.0177864
0.0175401
0.0172925
0.0288541
0.0288172
0.0286816
0.0285649
0.0283911
0.0282208
0.0280221
0.0278291
0.0276107
0.0273958
0.0271598
0.0269254
0.0266733
0.0264225
0.0261556
0.0258907
0.0256134
0.0253338
0.025035
0.0247398
0.0374127
0.0373836
0.0372453
0.0371259
0.0369319
0.0367396
0.0365069
0.0362816
0.0360216
0.0357671
0.035484
0.0352054
0.0349031
0.0346025
0.0342835
0.033965
0.0336323
0.0332986
0.0329451
0.0325972
0.0458178
0.0457977
0.0456587
0.0455414
0.0453335
0.0451257
0.0448675
0.0446176
0.0443258
0.0440397
0.0437186
0.0434017
0.0430565
0.042715
0.0423485
0.0419851
0.0416025
0.0412202
0.0408147
0.0404143
0.0541937
0.0541841
0.0540471
0.0539347
0.0537187
0.0535026
0.0532269
0.0529601
0.0526432
0.0523318
0.0519779
0.0516282
0.0512438
0.0508611
0.0504517
0.0500418
0.0496115
0.0491807
0.0487249
0.04827
0.0626137
0.0626095
0.0624755
0.0623727
0.0621544
0.0619349
0.0616469
0.0613668
0.061029
0.0606953
0.0603131
0.0599331
0.0595142
0.059097
0.0586465
0.0581975
0.0577237
0.0572496
0.0567473
0.0562449
0.0710411
0.0710502
0.0709245
0.0708341
0.0706162
0.070395
0.0700967
0.0698052
0.069449
0.0690957
0.0686881
0.0682814
0.0678304
0.0673772
0.0668897
0.0663984
0.0658816
0.0653615
0.0648114
0.0642542
0.0795288
0.0795498
0.0794344
0.0793597
0.0791452
0.0789244
0.0786181
0.0783174
0.0779456
0.0775751
0.0771454
0.076714
0.0762343
0.0757518
0.0752282
0.0747015
0.0741441
0.0735821
0.0729865
0.0723818
0.0880283
0.0880726
0.0879753
0.0879212
0.0877144
0.0874973
0.0871854
0.0868774
0.0864916
0.0861057
0.085655
0.0852015
0.0846944
0.0841798
0.0836224
0.0830546
0.0824552
0.0818473
0.0812049
0.0805457
0.0966133
0.0966754
0.0965962
0.0965651
0.0963684
0.0961577
0.0958434
0.095531
0.0951342
0.0947351
0.094266
0.0937911
0.0932587
0.0927175
0.0921266
0.0915253
0.0908873
0.0902398
0.0895544
0.0888486
0.105242
0.105332
0.105273
0.105265
0.105079
0.104878
0.104564
0.104251
0.103846
0.103437
0.10295
0.102455
0.101896
0.101324
0.100702
0.100062
0.0993861
0.098695
0.097964
0.0972027
0.113997
0.114107
0.114067
0.114081
0.113908
0.113717
0.113407
0.113095
0.112683
0.112265
0.111762
0.111248
0.110665
0.110068
0.109413
0.108741
0.108027
0.107295
0.106519
0.105708
0.122821
0.122966
0.122948
0.122987
0.122828
0.122649
0.122343
0.122033
0.121616
0.12119
0.120674
0.120143
0.119538
0.118912
0.118226
0.117515
0.116759
0.115979
0.115153
0.114282
0.131792
0.131967
0.131974
0.132036
0.131894
0.131729
0.131429
0.131121
0.130701
0.130266
0.129737
0.129188
0.128561
0.12791
0.127191
0.126444
0.125647
0.124822
0.123948
0.123023
0.140853
0.141076
0.141118
0.141208
0.141085
0.140934
0.140643
0.140339
0.139916
0.139474
0.13893
0.138363
0.137711
0.13703
0.136278
0.135492
0.134652
0.133781
0.132855
0.131871
0.150089
0.150359
0.150437
0.150555
0.150454
0.150318
0.150036
0.149737
0.149312
0.148863
0.148307
0.147721
0.147046
0.146335
0.14555
0.144725
0.143843
0.142924
0.141948
0.140905
0.159476
0.159806
0.159924
0.160072
0.159994
0.159877
0.159608
0.159314
0.15889
0.158434
0.157866
0.157262
0.156562
0.155821
0.154999
0.154132
0.153204
0.152234
0.151203
0.150097
0.169091
0.169475
0.169632
0.169806
0.169753
0.169654
0.169399
0.169111
0.168688
0.168224
0.167644
0.167019
0.166295
0.165521
0.164663
0.163752
0.162777
0.161753
0.160665
0.159492
0.178918
0.179363
0.179562
0.179764
0.179735
0.179651
0.17941
0.179127
0.178705
0.178233
0.177641
0.176995
0.176246
0.17544
0.174543
0.173588
0.172562
0.171483
0.170334
0.169093
0.188989
0.189496
0.189743
0.189971
0.189967
0.189898
0.18967
0.189389
0.188967
0.188488
0.187885
0.187219
0.186446
0.185606
0.184672
0.183671
0.182594
0.181455
0.180243
0.178929
0.199314
0.19989
0.200187
0.200446
0.20047
0.200418
0.200204
0.199927
0.199506
0.199019
0.198403
0.197719
0.19692
0.19605
0.195077
0.194031
0.1929
0.191704
0.190425
0.189037
0.20992
0.210568
0.210921
0.211215
0.211273
0.211242
0.211047
0.210775
0.210355
0.209857
0.209229
0.208522
0.207699
0.206792
0.205781
0.204684
0.2035
0.202239
0.200891
0.19942
0.220846
0.221565
0.221979
0.222314
0.222411
0.222405
0.222231
0.221968
0.221551
0.221046
0.220404
0.219675
0.218823
0.217882
0.216827
0.215681
0.214437
0.213112
0.211688
0.210134
0.232094
0.232894
0.233375
0.233758
0.2339
0.233923
0.233775
0.233522
0.233112
0.232599
0.231946
0.231194
0.230313
0.229332
0.22823
0.227026
0.225718
0.224318
0.222812
0.221163
0.243723
0.244604
0.245157
0.245592
0.245783
0.245838
0.245719
0.24548
0.245079
0.244562
0.243897
0.243121
0.242209
0.241186
0.240033
0.23877
0.237391
0.235915
0.234322
0.232576
0.255731
0.256702
0.257332
0.257825
0.258069
0.258161
0.258075
0.257852
0.257461
0.256939
0.256264
0.255462
0.254518
0.253448
0.252241
0.250912
0.24946
0.247898
0.246213
0.244359
0.26818
0.269241
0.269951
0.270505
0.270805
0.270937
0.270884
0.270679
0.270301
0.269775
0.269088
0.268261
0.267281
0.266164
0.264901
0.263503
0.261972
0.260324
0.25854
0.256575
0.281066
0.282228
0.283025
0.283648
0.284009
0.284183
0.284167
0.283982
0.283615
0.283085
0.282387
0.281532
0.280518
0.27935
0.278029
0.276557
0.274946
0.273201
0.271315
0.269227
0.294446
0.295712
0.296602
0.297299
0.297725
0.297946
0.297968
0.297803
0.297449
0.296915
0.296205
0.295322
0.294271
0.293051
0.291668
0.29012
0.288422
0.286577
0.284581
0.282365
0.308332
0.309713
0.310704
0.311484
0.311981
0.312253
0.312318
0.312176
0.311837
0.311301
0.310579
0.309666
0.308577
0.307301
0.305853
0.304222
0.302433
0.30048
0.298368
0.296014
0.322772
0.324277
0.325376
0.326246
0.326819
0.327148
0.327259
0.327145
0.326823
0.326285
0.325551
0.324609
0.323478
0.322142
0.320623
0.318904
0.317016
0.314948
0.31271
0.310209
0.337794
0.339435
0.340651
0.341621
0.342278
0.342672
0.342834
0.342752
0.34245
0.341912
0.341167
0.340193
0.33902
0.337622
0.336028
0.334215
0.332222
0.33003
0.327659
0.325
0.353441
0.355229
0.356573
0.357652
0.358401
0.358865
0.359084
0.359039
0.358759
0.358224
0.357467
0.356461
0.355243
0.35378
0.352107
0.350193
0.348087
0.345763
0.343247
0.340417
0.369751
0.371701
0.373184
0.374383
0.375233
0.375776
0.376058
0.376055
0.375801
0.375271
0.374503
0.373465
0.3722
0.370668
0.368911
0.366892
0.364666
0.3622
0.359531
0.356517
0.386766
0.388892
0.390529
0.391859
0.392819
0.393449
0.393801
0.393845
0.393621
0.393098
0.39232
0.391249
0.389933
0.388327
0.386481
0.384348
0.381992
0.379375
0.376538
0.373328
0.40453
0.40685
0.408655
0.410132
0.411213
0.41194
0.412369
0.412466
0.412277
0.411763
0.410976
0.409871
0.408503
0.40682
0.404878
0.402624
0.400131
0.39735
0.394336
0.390915
0.423086
0.425621
0.427609
0.429247
0.430462
0.431298
0.431812
0.43197
0.431819
0.431318
0.430522
0.429383
0.427959
0.426193
0.424148
0.421765
0.419121
0.416167
0.41296
0.409312
0.442486
0.445256
0.447446
0.449262
0.450626
0.451582
0.452192
0.452418
0.452312
0.451827
0.451025
0.449849
0.448367
0.446514
0.44436
0.441837
0.439035
0.435892
0.432479
0.428587
0.462777
0.465805
0.468219
0.47023
0.471758
0.472847
0.473565
0.473868
0.473813
0.473348
0.47254
0.471328
0.469784
0.467838
0.465565
0.462893
0.459918
0.456573
0.452936
0.448781
0.48401
0.487324
0.489983
0.49221
0.49392
0.495159
0.495996
0.496387
0.496389
0.49595
0.495138
0.493889
0.49228
0.490234
0.487836
0.485004
0.481844
0.47828
0.474403
0.469964
0.506238
0.509867
0.512797
0.515263
0.517174
0.518579
0.519549
0.520038
0.520107
0.519698
0.518885
0.517597
0.515919
0.513767
0.511233
0.508227
0.504866
0.501067
0.496927
0.49218
0.529512
0.533489
0.536718
0.53945
0.541584
0.543175
0.544295
0.544895
0.54504
0.544666
0.543854
0.542527
0.540776
0.53851
0.53583
0.532637
0.52906
0.525003
0.520581
0.515501
0.553887
0.558248
0.561809
0.564833
0.567217
0.569014
0.570302
0.571028
0.571258
0.570927
0.570118
0.56875
0.566921
0.564532
0.561692
0.558296
0.554481
0.550146
0.545414
0.539972
0.579409
0.584195
0.588124
0.591476
0.594137
0.596167
0.597643
0.59851
0.598838
0.598557
0.597755
0.596343
0.59443
0.591907
0.588894
0.585276
0.581204
0.576564
0.571497
0.565659
0.606129
0.611386
0.615723
0.619439
0.62241
0.6247
0.626387
0.627415
0.627854
0.62763
0.626837
0.62538
0.623373
0.620704
0.617501
0.61364
0.609282
0.60431
0.598873
0.592604
0.634081
0.63986
0.644651
0.648775
0.652094
0.654677
0.656602
0.657811
0.658376
0.658218
0.657437
0.655931
0.653823
0.650993
0.647579
0.64345
0.638781
0.633442
0.627602
0.620862
0.6633
0.669658
0.674955
0.679532
0.683239
0.686151
0.688344
0.689758
0.690466
0.690383
0.689615
0.688057
0.685836
0.682827
0.679181
0.674754
0.66974
0.663997
0.657713
0.650457
0.693785
0.700786
0.706644
0.711729
0.715872
0.719153
0.721648
0.723293
0.72416
0.724164
0.723413
0.721796
0.719452
0.716245
0.71234
0.707586
0.702192
0.696005
0.689234
0.681413
0.725523
0.733231
0.739712
0.74536
0.749987
0.753681
0.756512
0.758414
0.759462
0.759562
0.758831
0.75715
0.754668
0.751244
0.747055
0.741941
0.736126
0.729453
0.722147
0.713712
0.758418
0.766904
0.77407
0.780338
0.7855
0.78965
0.792852
0.795039
0.796285
0.796494
0.795787
0.79404
0.791413
0.787756
0.78326
0.777756
0.771488
0.764288
0.756405
0.747307
0.792325
0.80164
0.809543
0.81648
0.822217
0.826856
0.830456
0.83295
0.83441
0.83474
0.834065
0.832258
0.829484
0.825589
0.820775
0.814864
0.808118
0.800363
0.791867
0.782066
0.826919
0.837091
0.845753
0.853382
0.859716
0.86486
0.868871
0.871682
0.873368
0.873833
0.873207
0.871359
0.868461
0.864349
0.859234
0.852932
0.845715
0.837403
0.828289
0.817773
0.861702
0.872696
0.88208
0.890363
0.897265
0.902895
0.907302
0.910423
0.912336
0.912954
0.912406
0.910564
0.907594
0.90333
0.897979
0.891349
0.883718
0.874904
0.86521
0.854013
0.895795
0.907505
0.917498
0.926323
0.933691
0.939726
0.944476
0.94788
0.950014
0.950808
0.950389
0.948633
0.945697
0.941409
0.935959
0.929149
0.921248
0.912069
0.901922
0.890158
0.927972
0.940178
0.950568
0.959728
0.96738
0.973674
0.978664
0.982298
0.984642
0.985644
0.985426
0.983877