/*--------------------------------*- C++ -*----------------------------------*\
  =========                 |
  \\      /  F ield         | OpenFOAM: The Open Source CFD Toolbox
   \\    /   O peration     | Website:  https://openfoam.org
    \\  /    A nd           | Version:  6
     \\/     M anipulation  |
\*---------------------------------------------------------------------------*/
FoamFile
{
    version     2.0;
    format      ascii;
    class       surfaceScalarField;
    location    "18";
    object      phi;
}
// * * * * * * * * * * * * * * * * * * * * * * * * * * * * * * * * * * * * * //

dimensions      [0 3 -1 0 0 0 0];

internalField   nonuniform List<scalar> 
258600
(
-7.63072e-09
-8.54345e-08
7.32892e-09
-7.91836e-09
-9.27154e-08
-8.17631e-09
-9.97762e-08
-8.40692e-09
-1.06572e-07
-8.61185e-09
-1.13058e-07
-8.79337e-09
-1.19192e-07
-8.95415e-09
-1.24938e-07
-9.0969e-09
-1.30266e-07
-9.22414e-09
-1.35152e-07
-9.33829e-09
-1.39581e-07
-9.44137e-09
-1.43546e-07
-9.53532e-09
-1.47046e-07
-9.62159e-09
-1.50092e-07
-9.70153e-09
-1.52699e-07
-9.77598e-09
-1.54889e-07
-9.84577e-09
-1.56692e-07
-9.91119e-09
-1.58138e-07
-9.97264e-09
-1.59264e-07
-1.00302e-08
-1.60107e-07
-1.60706e-07
-1.0084e-08
-8.40585e-09
-8.5215e-08
8.1858e-09
-8.62235e-09
-9.24995e-08
-8.82797e-09
-9.95713e-08
-9.01756e-09
-1.06383e-07
-9.18978e-09
-1.12886e-07
-9.34464e-09
-1.19037e-07
-9.48351e-09
-1.248e-07
-9.60797e-09
-1.30142e-07
-9.72008e-09
-1.35041e-07
-9.82166e-09
-1.3948e-07
-9.91461e-09
-1.43453e-07
-1.00004e-08
-1.46961e-07
-1.00803e-08
-1.50013e-07
-1.01555e-08
-1.52624e-07
-1.02265e-08
-1.54819e-07
-1.0294e-08
-1.56625e-07
-1.03581e-08
-1.58074e-07
-1.04191e-08
-1.59204e-07
-1.04769e-08
-1.6005e-07
-1.60652e-07
-1.05318e-08
-9.60844e-09
-8.50573e-08
9.44978e-09
-9.7654e-09
-9.2343e-08
-9.91601e-09
-9.94215e-08
-1.00562e-08
-1.06243e-07
-1.01856e-08
-1.12758e-07
-1.03031e-08
-1.1892e-07
-1.04104e-08
-1.24693e-07
-1.05078e-08
-1.30045e-07
-1.05973e-08
-1.34952e-07
-1.06798e-08
-1.39398e-07
-1.07572e-08
-1.43377e-07
-1.083e-08
-1.46889e-07
-1.08997e-08
-1.49943e-07
-1.09665e-08
-1.52558e-07
-1.10313e-08
-1.54754e-07
-1.10941e-08
-1.56562e-07
-1.11552e-08
-1.58014e-07
-1.12144e-08
-1.59145e-07
-1.12717e-08
-1.59993e-07
-1.60597e-07
-1.13269e-08
-1.12162e-08
-8.49775e-08
1.11359e-08
-1.12988e-08
-9.22606e-08
-1.13809e-08
-9.93401e-08
-1.14591e-08
-1.06165e-07
-1.15332e-08
-1.12684e-07
-1.1602e-08
-1.18852e-07
-1.16667e-08
-1.24629e-07
-1.17269e-08
-1.29985e-07
-1.17845e-08
-1.34895e-07
-1.18394e-08
-1.39343e-07
-1.18934e-08
-1.43323e-07
-1.19464e-08
-1.46836e-07
-1.19996e-08
-1.49891e-07
-1.20528e-08
-1.52505e-07
-1.21067e-08
-1.54701e-07
-1.21606e-08
-1.56509e-07
-1.22151e-08
-1.5796e-07
-1.22693e-08
-1.59091e-07
-1.23233e-08
-1.5994e-07
-1.60544e-07
-1.23764e-08
-1.30798e-08
-8.49653e-08
1.30669e-08
-1.30942e-08
-9.22463e-08
-1.31102e-08
-9.93248e-08
-1.31261e-08
-1.0615e-07
-1.31426e-08
-1.12668e-07
-1.31586e-08
-1.18836e-07
-1.31758e-08
-1.24613e-07
-1.31934e-08
-1.29968e-07
-1.32132e-08
-1.34876e-07
-1.32347e-08
-1.39322e-07
-1.32595e-08
-1.43299e-07
-1.3287e-08
-1.46809e-07
-1.33184e-08
-1.4986e-07
-1.33528e-08
-1.52471e-07
-1.33908e-08
-1.54664e-07
-1.34314e-08
-1.56468e-07
-1.34747e-08
-1.57917e-07
-1.35197e-08
-1.59047e-07
-1.35662e-08
-1.59894e-07
-1.60498e-07
-1.36131e-08
-1.50976e-08
-8.50082e-08
1.51399e-08
-1.50543e-08
-9.22896e-08
-1.50123e-08
-9.93674e-08
-1.49714e-08
-1.06191e-07
-1.49336e-08
-1.12707e-07
-1.48984e-08
-1.18871e-07
-1.48678e-08
-1.24644e-07
-1.48415e-08
-1.29994e-07
-1.48213e-08
-1.34897e-07
-1.48066e-08
-1.39337e-07
-1.47989e-08
-1.43308e-07
-1.47974e-08
-1.46811e-07
-1.4803e-08
-1.49855e-07
-1.48146e-08
-1.5246e-07
-1.48326e-08
-1.54647e-07
-1.48557e-08
-1.56446e-07
-1.48838e-08
-1.5789e-07
-1.49155e-08
-1.59015e-07
-1.49506e-08
-1.5986e-07
-1.60462e-07
-1.49875e-08
-1.72091e-08
-8.5097e-08
1.72969e-08
-1.71173e-08
-9.23817e-08
-1.70255e-08
-9.94601e-08
-1.69345e-08
-1.06282e-07
-1.68474e-08
-1.12795e-07
-1.67645e-08
-1.18954e-07
-1.66886e-08
-1.24721e-07
-1.66193e-08
-1.30064e-07
-1.65591e-08
-1.34958e-07
-1.65072e-08
-1.39389e-07
-1.64654e-08
-1.43351e-07
-1.64327e-08
-1.46844e-07
-1.64099e-08
-1.49879e-07
-1.63958e-08
-1.52474e-07
-1.63907e-08
-1.54653e-07
-1.63929e-08
-1.56444e-07
-1.64024e-08
-1.57881e-07
-1.64175e-08
-1.59001e-07
-1.64378e-08
-1.59841e-07
-1.60439e-07
-1.64614e-08
-1.93722e-08
-8.52219e-08
1.94964e-08
-1.92407e-08
-9.25134e-08
-1.91067e-08
-9.95948e-08
-1.89723e-08
-1.06416e-07
-1.88414e-08
-1.12926e-07
-1.87152e-08
-1.19081e-07
-1.8597e-08
-1.2484e-07
-1.8487e-08
-1.30174e-07
-1.83879e-08
-1.35058e-07
-1.82993e-08
-1.39478e-07
-1.8223e-08
-1.43428e-07
-1.81581e-08
-1.46909e-07
-1.81056e-08
-1.49933e-07
-1.80639e-08
-1.52516e-07
-1.80335e-08
-1.54684e-07
-1.80126e-08
-1.56466e-07
-1.8001e-08
-1.57894e-07
-1.79967e-08
-1.59006e-07
-1.79994e-08
-1.59839e-07
-1.60432e-07
-1.8007e-08
-2.15626e-08
-8.53769e-08
2.1717e-08
-2.13975e-08
-9.26786e-08
-2.12274e-08
-9.97656e-08
-2.10551e-08
-1.06589e-07
-2.08854e-08
-1.13097e-07
-2.072e-08
-1.19246e-07
-2.05629e-08
-1.24998e-07
-2.04147e-08
-1.30322e-07
-2.02786e-08
-1.35195e-07
-2.01544e-08
-1.39603e-07
-2.00441e-08
-1.43539e-07
-1.99469e-08
-1.47007e-07
-1.98639e-08
-1.50017e-07
-1.97937e-08
-1.52587e-07
-1.97366e-08
-1.54743e-07
-1.96908e-08
-1.56512e-07
-1.96561e-08
-1.5793e-07
-1.96304e-08
-1.59033e-07
-1.96132e-08
-1.59857e-07
-1.60443e-07
-1.96025e-08
-2.37664e-08
-8.55576e-08
2.39464e-08
-2.35724e-08
-9.28728e-08
-2.33706e-08
-9.99681e-08
-2.31646e-08
-1.06795e-07
-2.29599e-08
-1.13303e-07
-2.27588e-08
-1.19448e-07
-2.25657e-08
-1.25192e-07
-2.23819e-08
-1.30507e-07
-2.22106e-08
-1.35368e-07
-2.20521e-08
-1.39762e-07
-2.19087e-08
-1.43684e-07
-2.17797e-08
-1.47137e-07
-2.16663e-08
-1.50132e-07
-2.15671e-08
-1.52687e-07
-2.14826e-08
-1.54828e-07
-2.14108e-08
-1.56585e-07
-2.13517e-08
-1.57991e-07
-2.1303e-08
-1.59082e-07
-2.12644e-08
-1.59897e-07
-1.60475e-07
-2.12335e-08
-2.59752e-08
-8.5762e-08
2.61788e-08
-2.57549e-08
-9.30935e-08
-2.55243e-08
-1.00199e-07
-2.5288e-08
-1.07032e-07
-2.50514e-08
-1.1354e-07
-2.48176e-08
-1.19682e-07
-2.45912e-08
-1.2542e-07
-2.43738e-08
-1.30725e-07
-2.41692e-08
-1.35574e-07
-2.39779e-08
-1.39954e-07
-2.38023e-08
-1.43861e-07
-2.3642e-08
-1.47298e-07
-2.34983e-08
-1.50277e-07
-2.337e-08
-1.52816e-07
-2.32575e-08
-1.54942e-07
-2.31591e-08
-1.56684e-07
-2.30746e-08
-1.58077e-07
-2.30019e-08
-1.59156e-07
-2.29404e-08
-1.5996e-07
-1.60528e-07
-2.2888e-08
-2.81844e-08
-8.59875e-08
2.84088e-08
-2.79404e-08
-9.3338e-08
-2.76838e-08
-1.00457e-07
-2.74193e-08
-1.07296e-07
-2.71531e-08
-1.13807e-07
-2.68885e-08
-1.19947e-07
-2.66306e-08
-1.25679e-07
-2.63814e-08
-1.30974e-07
-2.6145e-08
-1.35812e-07
-2.59219e-08
-1.40178e-07
-2.5715e-08
-1.44069e-07
-2.5524e-08
-1.4749e-07
-2.53503e-08
-1.50452e-07
-2.51929e-08
-1.52975e-07
-2.50524e-08
-1.55084e-07
-2.49268e-08
-1.56811e-07
-2.48163e-08
-1.58189e-07
-2.47186e-08
-1.59255e-07
-2.46334e-08
-1.60047e-07
-1.60605e-07
-2.45583e-08
-3.0391e-08
-8.62328e-08
3.06352e-08
-3.01247e-08
-9.36049e-08
-2.98436e-08
-1.00739e-07
-2.95529e-08
-1.07588e-07
-2.92588e-08
-1.14103e-07
-2.89652e-08
-1.20241e-07
-2.86775e-08
-1.25968e-07
-2.83979e-08
-1.31255e-07
-2.81307e-08
-1.3608e-07
-2.78769e-08
-1.40432e-07
-2.76394e-08
-1.44308e-07
-2.74181e-08
-1.47712e-07
-2.72148e-08
-1.50657e-07
-2.70283e-08
-1.53162e-07
-2.68593e-08
-1.55255e-07
-2.67063e-08
-1.56965e-07
-2.65692e-08
-1.58327e-07
-2.64458e-08
-1.59379e-07
-2.63359e-08
-1.60159e-07
-1.60705e-07
-2.62372e-08
-3.25964e-08
-8.64974e-08
3.28597e-08
-3.23086e-08
-9.38934e-08
-3.2004e-08
-1.01045e-07
-3.16879e-08
-1.07905e-07
-3.1367e-08
-1.14425e-07
-3.10453e-08
-1.20564e-07
-3.07286e-08
-1.26286e-07
-3.04194e-08
-1.31565e-07
-3.01222e-08
-1.36379e-07
-2.98383e-08
-1.40717e-07
-2.95707e-08
-1.44577e-07
-2.93194e-08
-1.47964e-07
-2.90865e-08
-1.50891e-07
-2.88709e-08
-1.53379e-07
-2.86735e-08
-1.55454e-07
-2.84926e-08
-1.57147e-07
-2.83284e-08
-1.58493e-07
-2.81788e-08
-1.5953e-07
-2.80436e-08
-1.60296e-07
-1.60829e-07
-2.79204e-08
-3.47989e-08
-8.67809e-08
3.50809e-08
-3.44901e-08
-9.42032e-08
-3.41625e-08
-1.01373e-07
-3.38219e-08
-1.08246e-07
-3.34749e-08
-1.14773e-07
-3.3126e-08
-1.20914e-07
-3.2781e-08
-1.26633e-07
-3.24428e-08
-1.31904e-07
-3.21161e-08
-1.36707e-07
-3.18024e-08
-1.41032e-07
-3.15048e-08
-1.44877e-07
-3.12238e-08
-1.48247e-07
-3.09612e-08
-1.51156e-07
-3.07163e-08
-1.53625e-07
-3.04901e-08
-1.55682e-07
-3.0281e-08
-1.57358e-07
-3.00891e-08
-1.58687e-07
-2.99127e-08
-1.59708e-07
-2.97513e-08
-1.60459e-07
-1.60979e-07
-2.96029e-08
-3.70007e-08
-8.70836e-08
3.73017e-08
-3.66708e-08
-9.45343e-08
-3.63204e-08
-1.01725e-07
-3.59552e-08
-1.08612e-07
-3.55824e-08
-1.15148e-07
-3.52063e-08
-1.21291e-07
-3.48333e-08
-1.27008e-07
-3.44663e-08
-1.32272e-07
-3.41102e-08
-1.37065e-07
-3.37667e-08
-1.41377e-07
-3.34393e-08
-1.45206e-07
-3.31283e-08
-1.48559e-07
-3.2836e-08
-1.5145e-07
-3.25616e-08
-1.53901e-07
-3.23061e-08
-1.5594e-07
-3.20683e-08
-1.57597e-07
-3.18483e-08
-1.58909e-07
-3.16444e-08
-1.59914e-07
-3.14561e-08
-1.60649e-07
-1.61155e-07
-3.12817e-08
-3.91995e-08
-8.74044e-08
3.95184e-08
-3.88492e-08
-9.48857e-08
-3.84764e-08
-1.021e-07
-3.8087e-08
-1.09003e-07
-3.76883e-08
-1.15548e-07
-3.72853e-08
-1.21695e-07
-3.68841e-08
-1.27411e-07
-3.64882e-08
-1.32669e-07
-3.61026e-08
-1.37453e-07
-3.57293e-08
-1.41752e-07
-3.53717e-08
-1.45566e-07
-3.50305e-08
-1.48902e-07
-3.4708e-08
-1.51775e-07
-3.44036e-08
-1.54207e-07
-3.41184e-08
-1.56227e-07
-3.38513e-08
-1.57866e-07
-3.36024e-08
-1.5916e-07
-3.33702e-08
-1.60148e-07
-3.31544e-08
-1.60867e-07
-1.61358e-07
-3.29532e-08
-4.13991e-08
-8.77445e-08
4.1737e-08
-4.10276e-08
-9.52586e-08
-4.06316e-08
-1.02498e-07
-4.02174e-08
-1.09419e-07
-3.97925e-08
-1.15975e-07
-3.93621e-08
-1.22127e-07
-3.89325e-08
-1.27842e-07
-3.85075e-08
-1.33096e-07
-3.80921e-08
-1.3787e-07
-3.76885e-08
-1.42157e-07
-3.73003e-08
-1.45956e-07
-3.69285e-08
-1.49275e-07
-3.65752e-08
-1.5213e-07
-3.62402e-08
-1.54544e-07
-3.59247e-08
-1.56545e-07
-3.56276e-08
-1.58165e-07
-3.53492e-08
-1.59441e-07
-3.5088e-08
-1.60411e-07
-3.48438e-08
-1.61114e-07
-1.61589e-07
-3.46149e-08
-4.35976e-08
-8.81037e-08
4.39544e-08
-4.32048e-08
-9.5653e-08
-4.27854e-08
-1.02919e-07
-4.2346e-08
-1.0986e-07
-4.18945e-08
-1.16428e-07
-4.14363e-08
-1.22587e-07
-4.09779e-08
-1.28303e-07
-4.05231e-08
-1.33552e-07
-4.00773e-08
-1.38318e-07
-3.96429e-08
-1.42593e-07
-3.92236e-08
-1.46378e-07
-3.88204e-08
-1.4968e-07
-3.84357e-08
-1.52518e-07
-3.80694e-08
-1.54913e-07
-3.77227e-08
-1.56894e-07
-3.73948e-08
-1.58495e-07
-3.70859e-08
-1.59752e-07
-3.67948e-08
-1.60704e-07
-3.65212e-08
-1.6139e-07
-1.61849e-07
-3.62637e-08
-4.57976e-08
-8.84835e-08
4.61749e-08
-4.53821e-08
-9.60702e-08
-4.49383e-08
-1.03365e-07
-4.4473e-08
-1.10327e-07
-4.39941e-08
-1.16909e-07
-4.35074e-08
-1.23075e-07
-4.30194e-08
-1.28793e-07
-4.25343e-08
-1.34039e-07
-4.20574e-08
-1.38798e-07
-4.15915e-08
-1.43061e-07
-4.11402e-08
-1.46832e-07
-4.07049e-08
-1.50118e-07
-4.02879e-08
-1.52937e-07
-3.98895e-08
-1.55313e-07
-3.95107e-08
-1.57275e-07
-3.9151e-08
-1.58857e-07
-3.88107e-08
-1.60095e-07
-3.84887e-08
-1.61029e-07
-3.81847e-08
-1.61697e-07
-1.62138e-07
-3.78975e-08
-4.79971e-08
-8.88834e-08
4.83943e-08
-4.75592e-08
-9.65102e-08
-4.70907e-08
-1.03836e-07
-4.65988e-08
-1.10821e-07
-4.60918e-08
-1.17419e-07
-4.55757e-08
-1.23594e-07
-4.50572e-08
-1.29314e-07
-4.45408e-08
-1.34558e-07
-4.40319e-08
-1.39309e-07
-4.35334e-08
-1.43562e-07
-4.30491e-08
-1.47319e-07
-4.25807e-08
-1.50589e-07
-4.21304e-08
-1.5339e-07
-4.16986e-08
-1.55748e-07
-4.12867e-08
-1.5769e-07
-4.08941e-08
-1.59252e-07
-4.05212e-08
-1.60471e-07
-4.01672e-08
-1.61386e-07
-3.98315e-08
-1.62035e-07
-1.62459e-07
-3.95135e-08
-5.01989e-08
-8.9305e-08
5.0617e-08
-4.97374e-08
-9.6974e-08
-4.92431e-08
-1.04333e-07
-4.87236e-08
-1.11343e-07
-4.81875e-08
-1.17958e-07
-4.76409e-08
-1.24143e-07
-4.70909e-08
-1.29867e-07
-4.65421e-08
-1.35109e-07
-4.6e-08
-1.39854e-07
-4.54678e-08
-1.44097e-07
-4.49494e-08
-1.4784e-07
-4.44465e-08
-1.51094e-07
-4.39616e-08
-1.53878e-07
-4.34953e-08
-1.56216e-07
-4.30489e-08
-1.5814e-07
-4.26221e-08
-1.59682e-07
-4.22153e-08
-1.60881e-07
-4.1828e-08
-1.61776e-07
-4.14595e-08
-1.62407e-07
-1.62812e-07
-4.11093e-08
-5.24019e-08
-8.97481e-08
5.28416e-08
-5.19162e-08
-9.74621e-08
-5.13954e-08
-1.04857e-07
-5.08474e-08
-1.11893e-07
-5.02811e-08
-1.18527e-07
-4.97029e-08
-1.24723e-07
-4.91201e-08
-1.30453e-07
-4.85377e-08
-1.35694e-07
-4.79612e-08
-1.40434e-07
-4.73939e-08
-1.44667e-07
-4.68399e-08
-1.48397e-07
-4.63012e-08
-1.51636e-07
-4.57803e-08
-1.54402e-07
-4.5278e-08
-1.56722e-07
-4.47957e-08
-1.58625e-07
-4.43333e-08
-1.60147e-07
-4.38912e-08
-1.61326e-07
-4.3469e-08
-1.62201e-07
-4.30663e-08
-1.62812e-07
-1.63199e-07
-4.26827e-08
-5.46095e-08
-9.02147e-08
5.50727e-08
-5.40978e-08
-9.79763e-08
-5.3549e-08
-1.05409e-07
-5.2971e-08
-1.12474e-07
-5.23731e-08
-1.19128e-07
-5.17618e-08
-1.25337e-07
-5.11448e-08
-1.31073e-07
-5.05272e-08
-1.36315e-07
-4.99147e-08
-1.4105e-07
-4.93108e-08
-1.45274e-07
-4.87197e-08
-1.48991e-07
-4.81436e-08
-1.52215e-07
-4.75851e-08
-1.54964e-07
-4.70453e-08
-1.57264e-07
-4.65254e-08
-1.59148e-07
-4.60258e-08
-1.6065e-07
-4.55467e-08
-1.61808e-07
-4.50881e-08
-1.62663e-07
-4.46495e-08
-1.63254e-07
-1.6362e-07
-4.42309e-08
-5.68192e-08
-9.07047e-08
5.73056e-08
-5.62814e-08
-9.8517e-08
-5.57036e-08
-1.05989e-07
-5.50946e-08
-1.13085e-07
-5.44636e-08
-1.19762e-07
-5.38179e-08
-1.25986e-07
-5.31651e-08
-1.31729e-07
-5.25106e-08
-1.36972e-07
-5.18603e-08
-1.41703e-07
-5.12181e-08
-1.45919e-07
-5.05881e-08
-1.49624e-07
-4.99729e-08
-1.52833e-07
-4.9375e-08
-1.55565e-07
-4.87958e-08
-1.57847e-07
-4.82365e-08
-1.59711e-07
-4.76979e-08
-1.61192e-07
-4.71801e-08
-1.62329e-07
-4.66834e-08
-1.63163e-07
-4.62072e-08
-1.63733e-07
-1.64079e-07
-4.57519e-08
-5.90358e-08
-9.12207e-08
5.95471e-08
-5.84697e-08
-9.90864e-08
-5.78611e-08
-1.06601e-07
-5.72191e-08
-1.1373e-07
-5.65534e-08
-1.20431e-07
-5.58713e-08
-1.26671e-07
-5.51807e-08
-1.32423e-07
-5.44875e-08
-1.37669e-07
-5.37975e-08
-1.42396e-07
-5.3115e-08
-1.46605e-07
-5.24442e-08
-1.50299e-07
-5.17878e-08
-1.53493e-07
-5.11484e-08
-1.56208e-07
-5.05277e-08
-1.58471e-07
-4.99271e-08
-1.60314e-07
-4.93475e-08
-1.61775e-07
-4.87889e-08
-1.62891e-07
-4.82522e-08
-1.63703e-07
-4.77365e-08
-1.64252e-07
-1.64577e-07
-4.72425e-08
-6.12548e-08
-9.17623e-08
6.17918e-08
-6.06598e-08
-9.96848e-08
-6.00194e-08
-1.07245e-07
-5.93433e-08
-1.1441e-07
-5.86412e-08
-1.21137e-07
-5.79212e-08
-1.27395e-07
-5.71911e-08
-1.33157e-07
-5.64571e-08
-1.38406e-07
-5.57255e-08
-1.43132e-07
-5.50006e-08
-1.47333e-07
-5.42868e-08
-1.51016e-07
-5.35871e-08
-1.54196e-07
-5.2904e-08
-1.56894e-07
-5.22398e-08
-1.59139e-07
-5.15956e-08
-1.60962e-07
-5.09728e-08
-1.62401e-07
-5.03714e-08
-1.63496e-07
-4.97925e-08
-1.64286e-07
-4.92352e-08
-1.64812e-07
-1.65115e-07
-4.87006e-08
-6.34825e-08
-9.23323e-08
6.40474e-08
-6.28561e-08
-1.00315e-07
-6.21817e-08
-1.07924e-07
-6.14691e-08
-1.15126e-07
-6.07285e-08
-1.21881e-07
-5.99681e-08
-1.28159e-07
-5.91962e-08
-1.33933e-07
-5.84193e-08
-1.39186e-07
-5.76436e-08
-1.43911e-07
-5.68739e-08
-1.48106e-07
-5.61147e-08
-1.51779e-07
-5.53693e-08
-1.54945e-07
-5.46402e-08
-1.57627e-07
-5.393e-08
-1.59853e-07
-5.32399e-08
-1.61656e-07
-5.25715e-08
-1.63074e-07
-5.19249e-08
-1.64146e-07
-5.13015e-08
-1.64913e-07
-5.07003e-08
-1.65417e-07
-1.65696e-07
-5.01228e-08
-6.57138e-08
-9.29306e-08
6.63071e-08
-6.50554e-08
-1.00977e-07
-6.43457e-08
-1.08637e-07
-6.35952e-08
-1.1588e-07
-6.28142e-08
-1.22666e-07
-6.20116e-08
-1.28965e-07
-6.11957e-08
-1.34752e-07
-6.03734e-08
-1.40013e-07
-5.95512e-08
-1.44737e-07
-5.87342e-08
-1.48927e-07
-5.7927e-08
-1.5259e-07
-5.71332e-08
-1.55743e-07
-5.63556e-08
-1.58408e-07
-5.55968e-08
-1.60615e-07
-5.48582e-08
-1.62398e-07
-5.41417e-08
-1.63794e-07
-5.34474e-08
-1.64844e-07
-5.2777e-08
-1.65588e-07
-5.21295e-08
-1.66068e-07
-1.66323e-07
-5.15068e-08
-6.79557e-08
-9.35606e-08
6.85799e-08
-6.72626e-08
-1.01674e-07
-6.65149e-08
-1.09389e-07
-6.57238e-08
-1.16676e-07
-6.48999e-08
-1.23495e-07
-6.40523e-08
-1.29817e-07
-6.31897e-08
-1.35619e-07
-6.23193e-08
-1.40887e-07
-6.14478e-08
-1.45613e-07
-6.05807e-08
-1.49798e-07
-5.97227e-08
-1.53452e-07
-5.88777e-08
-1.56592e-07
-5.80486e-08
-1.59241e-07
-5.72384e-08
-1.6143e-07
-5.64485e-08
-1.63192e-07
-5.5681e-08
-1.64566e-07
-5.49363e-08
-1.65592e-07
-5.42161e-08
-1.66312e-07
-5.35197e-08
-1.66768e-07
-1.66998e-07
-5.28491e-08
-7.02025e-08
-9.42219e-08
7.08582e-08
-6.94738e-08
-1.02407e-07
-6.86869e-08
-1.10181e-07
-6.78533e-08
-1.17514e-07
-6.69843e-08
-1.24368e-07
-6.60893e-08
-1.30716e-07
-6.51775e-08
-1.36536e-07
-6.42563e-08
-1.41813e-07
-6.33327e-08
-1.46541e-07
-6.24126e-08
-1.50723e-07
-6.15006e-08
-1.54368e-07
-6.06014e-08
-1.57496e-07
-5.97178e-08
-1.60129e-07
-5.8853e-08
-1.62299e-07
-5.80087e-08
-1.6404e-07
-5.71872e-08
-1.65392e-07
-5.6389e-08
-1.66394e-07
-5.56163e-08
-1.6709e-07
-5.48681e-08
-1.67519e-07
-1.67724e-07
-5.41469e-08
-7.24622e-08
-9.49187e-08
7.31524e-08
-7.16945e-08
-1.0318e-07
-7.08651e-08
-1.11015e-07
-6.9986e-08
-1.18398e-07
-6.90688e-08
-1.2529e-07
-6.81234e-08
-1.31666e-07
-6.71591e-08
-1.37505e-07
-6.6184e-08
-1.42793e-07
-6.5205e-08
-1.47525e-07
-6.42285e-08
-1.51704e-07
-6.32595e-08
-1.55342e-07
-6.23026e-08
-1.58457e-07
-6.13611e-08
-1.61075e-07
-6.04386e-08
-1.63226e-07
-5.95365e-08
-1.64947e-07
-5.86578e-08
-1.66275e-07
-5.78028e-08
-1.67253e-07
-5.69742e-08
-1.67923e-07
-5.61712e-08
-1.68326e-07
-1.68503e-07
-5.53964e-08
-7.47284e-08
-9.56507e-08
7.54539e-08
-7.39207e-08
-1.03992e-07
-7.30471e-08
-1.11894e-07
-7.21202e-08
-1.19329e-07
-7.11522e-08
-1.26264e-07
-7.01534e-08
-1.3267e-07
-6.91336e-08
-1.3853e-07
-6.81012e-08
-1.4383e-07
-6.70636e-08
-1.48567e-07
-6.60273e-08
-1.52745e-07
-6.49976e-08
-1.56376e-07
-6.39796e-08
-1.5948e-07
-6.29766e-08
-1.62082e-07
-6.19926e-08
-1.64215e-07
-6.10293e-08
-1.65914e-07
-6.00898e-08
-1.6722e-07
-5.91747e-08
-1.68173e-07
-5.82868e-08
-1.68816e-07
-5.74256e-08
-1.69192e-07
-1.6934e-07
-5.6594e-08
-7.70093e-08
-9.64225e-08
7.77736e-08
-7.61578e-08
-1.04849e-07
-7.52363e-08
-1.12821e-07
-7.42581e-08
-1.20313e-07
-7.32357e-08
-1.27291e-07
-7.218e-08
-1.33731e-07
-7.1101e-08
-1.39614e-07
-7.00076e-08
-1.44929e-07
-6.89075e-08
-1.49673e-07
-6.78076e-08
-1.53851e-07
-6.67134e-08
-1.57476e-07
-6.56304e-08
-1.60568e-07
-6.45621e-08
-1.63156e-07
-6.35128e-08
-1.6527e-07
-6.24844e-08
-1.66948e-07
-6.14804e-08
-1.68229e-07
-6.05014e-08
-1.69156e-07
-5.95506e-08
-1.69772e-07
-5.86276e-08
-1.70119e-07
-1.70237e-07
-5.77356e-08
-7.92989e-08
-9.72341e-08
8.01032e-08
-7.84021e-08
-1.05752e-07
-7.74306e-08
-1.13798e-07
-7.63984e-08
-1.21351e-07
-7.53184e-08
-1.28377e-07
-7.42023e-08
-1.34853e-07
-7.30605e-08
-1.40761e-07
-7.19023e-08
-1.46093e-07
-7.07357e-08
-1.50845e-07
-6.95681e-08
-1.55024e-07
-6.84053e-08
-1.58644e-07
-6.72531e-08
-1.61726e-07
-6.61153e-08
-1.64299e-07
-6.49965e-08
-1.66394e-07
-6.38989e-08
-1.6805e-07
-6.28262e-08
-1.69307e-07
-6.17793e-08
-1.70208e-07
-6.07618e-08
-1.70795e-07
-5.97731e-08
-1.71112e-07
-1.71199e-07
-5.88169e-08
-8.16052e-08
-9.80905e-08
8.24532e-08
-8.06589e-08
-1.06704e-07
-7.96333e-08
-1.1483e-07
-7.85429e-08
-1.22447e-07
-7.74015e-08
-1.29525e-07
-7.62208e-08
-1.3604e-07
-7.5012e-08
-1.41976e-07
-7.37846e-08
-1.47326e-07
-7.25472e-08
-1.52088e-07
-7.13075e-08
-1.56269e-07
-7.00716e-08
-1.59885e-07
-6.88458e-08
-1.62958e-07
-6.76339e-08
-1.65516e-07
-6.64412e-08
-1.67593e-07
-6.52698e-08
-1.69227e-07
-6.41241e-08
-1.70459e-07
-6.30049e-08
-1.71332e-07
-6.19162e-08
-1.7189e-07
-6.08577e-08
-1.72176e-07
-1.72229e-07
-5.98333e-08
-8.39223e-08
-9.89922e-08
8.48156e-08
-8.29246e-08
-1.07708e-07
-8.18423e-08
-1.15918e-07
-8.06905e-08
-1.23605e-07
-7.94838e-08
-1.30738e-07
-7.82346e-08
-1.37295e-07
-7.69544e-08
-1.43263e-07
-7.56535e-08
-1.48633e-07
-7.43406e-08
-1.53407e-07
-7.30241e-08
-1.57592e-07
-7.17103e-08
-1.61205e-07
-7.04059e-08
-1.64268e-07
-6.91152e-08
-1.66812e-07
-6.78436e-08
-1.6887e-07
-6.65937e-08
-1.70482e-07
-6.53701e-08
-1.71689e-07
-6.41739e-08
-1.72534e-07
-6.30095e-08
-1.73061e-07
-6.18766e-08
-1.73313e-07
-1.73332e-07
-6.07797e-08
-8.62583e-08
-9.99444e-08
8.72012e-08
-8.52045e-08
-1.08769e-07
-8.40609e-08
-1.17069e-07
-8.28432e-08
-1.2483e-07
-8.15666e-08
-1.32021e-07
-8.0244e-08
-1.38625e-07
-7.88877e-08
-1.44626e-07
-7.75082e-08
-1.50019e-07
-7.61149e-08
-1.54807e-07
-7.47163e-08
-1.58997e-07
-7.33194e-08
-1.62608e-07
-7.19312e-08
-1.65663e-07
-7.05564e-08
-1.68193e-07
-6.92007e-08
-1.70233e-07
-6.7867e-08
-1.71821e-07
-6.65603e-08
-1.73002e-07
-6.52821e-08
-1.73817e-07
-6.40369e-08
-1.74312e-07
-6.28248e-08
-1.74531e-07
-1.74513e-07
-6.16507e-08
-8.86075e-08
-1.00948e-07
8.9602e-08
-8.74953e-08
-1.09888e-07
-8.62872e-08
-1.18284e-07
-8.49997e-08
-1.26124e-07
-8.36489e-08
-1.33379e-07
-8.22483e-08
-1.40032e-07
-8.08109e-08
-1.4607e-07
-7.93476e-08
-1.51489e-07
-7.78684e-08
-1.56292e-07
-7.63823e-08
-1.6049e-07
-7.48967e-08
-1.641e-07
-7.3419e-08
-1.67148e-07
-7.19543e-08
-1.69664e-07
-7.05088e-08
-1.71685e-07
-6.90857e-08
-1.73251e-07
-6.76904e-08
-1.74404e-07
-6.63246e-08
-1.75189e-07
-6.49934e-08
-1.7565e-07
-6.36969e-08
-1.75832e-07
-1.75776e-07
-6.24405e-08
-9.09788e-08
-1.02009e-07
9.20295e-08
-8.98028e-08
-1.11071e-07
-8.8525e-08
-1.1957e-07
-8.71625e-08
-1.27494e-07
-8.57321e-08
-1.34818e-07
-8.4248e-08
-1.41524e-07
-8.27238e-08
-1.47602e-07
-8.11709e-08
-1.5305e-07
-7.95999e-08
-1.57871e-07
-7.80202e-08
-1.62077e-07
-7.64399e-08
-1.65687e-07
-7.48666e-08
-1.68728e-07
-7.33059e-08
-1.71231e-07
-7.17644e-08
-1.73233e-07
-7.02458e-08
-1.74775e-07
-6.87558e-08
-1.75901e-07
-6.72965e-08
-1.76654e-07
-6.58734e-08
-1.77081e-07
-6.44869e-08
-1.77225e-07
-1.77127e-07
-6.31429e-08
-9.33663e-08
-1.03129e-07
9.44756e-08
-9.21237e-08
-1.12322e-07
-9.07725e-08
-1.20929e-07
-8.93304e-08
-1.28944e-07
-8.78154e-08
-1.3634e-07
-8.62423e-08
-1.43104e-07
-8.46255e-08
-1.49227e-07
-8.29768e-08
-1.54706e-07
-8.13078e-08
-1.59547e-07
-7.96281e-08
-1.63764e-07
-7.79464e-08
-1.67376e-07
-7.62708e-08
-1.70411e-07
-7.46075e-08
-1.72901e-07
-7.29634e-08
-1.74885e-07
-7.13426e-08
-1.76403e-07
-6.97514e-08
-1.77499e-07
-6.81922e-08
-1.7822e-07
-6.6671e-08
-1.7861e-07
-6.51884e-08
-1.78713e-07
-1.78572e-07
-6.37507e-08
-9.57796e-08
-1.04314e-07
9.69529e-08
-9.44645e-08
-1.13645e-07
-9.30338e-08
-1.22369e-07
-9.15062e-08
-1.3048e-07
-8.99004e-08
-1.37955e-07
-8.82319e-08
-1.44781e-07
-8.65158e-08
-1.50951e-07
-8.47647e-08
-1.56465e-07
-8.29907e-08
-1.61329e-07
-8.1204e-08
-1.65558e-07
-7.94138e-08
-1.69174e-07
-7.76287e-08
-1.72204e-07
-7.58555e-08
-1.74682e-07
-7.41016e-08
-1.76646e-07
-7.23715e-08
-1.7814e-07
-7.0672e-08
-1.79207e-07
-6.90059e-08
-1.79893e-07
-6.73797e-08
-1.80244e-07
-6.57942e-08
-1.80305e-07
-1.80118e-07
-6.42565e-08
-9.82129e-08
-1.05566e-07
9.94532e-08
-9.68218e-08
-1.15045e-07
-9.53073e-08
-1.23892e-07
-9.36887e-08
-1.32107e-07
-9.19862e-08
-1.39666e-07
-9.02158e-08
-1.4656e-07
-8.83938e-08
-1.52782e-07
-8.65331e-08
-1.58334e-07
-8.46467e-08
-1.63224e-07
-8.27453e-08
-1.67468e-07
-8.08389e-08
-1.71088e-07
-7.89366e-08
-1.74114e-07
-7.70457e-08
-1.7658e-07
-7.51741e-08
-1.78526e-07
-7.33269e-08
-1.79994e-07
-7.15114e-08
-1.8103e-07
-6.97308e-08
-1.8168e-07
-6.79922e-08
-1.81991e-07
-6.62968e-08
-1.82007e-07
-1.81771e-07
-6.46521e-08
-1.00676e-07
-1.06892e-07
1.0199e-07
-9.92025e-08
-1.16528e-07
-9.75973e-08
-1.25507e-07
-9.58807e-08
-1.33832e-07
-9.40744e-08
-1.41482e-07
-9.21946e-08
-1.48448e-07
-9.02589e-08
-1.54727e-07
-8.82807e-08
-1.60321e-07
-8.62738e-08
-1.6524e-07
-8.42495e-08
-1.69501e-07
-8.22186e-08
-1.73128e-07
-8.01905e-08
-1.76151e-07
-7.81734e-08
-1.78606e-07
-7.61757e-08
-1.80532e-07
-7.4203e-08
-1.81975e-07
-7.22632e-08
-1.82979e-07
-7.03599e-08
-1.83591e-07
-6.85009e-08
-1.83859e-07
-6.66877e-08
-1.83827e-07
-1.83539e-07
-6.49284e-08
-1.03164e-07
-1.08294e-07
1.04554e-07
-1.01603e-07
-1.18098e-07
-9.99018e-08
-1.27219e-07
-9.80811e-08
-1.35662e-07
-9.61639e-08
-1.4341e-07
-9.41672e-08
-1.50454e-07
-9.21099e-08
-1.56794e-07
-9.00057e-08
-1.62434e-07
-8.78698e-08
-1.67385e-07
-8.57136e-08
-1.71666e-07
-8.35491e-08
-1.75301e-07
-8.13861e-08
-1.78323e-07
-7.92337e-08
-1.80767e-07
-7.71005e-08
-1.82674e-07
-7.49932e-08
-1.8409e-07
-7.292e-08
-1.85061e-07
-7.08852e-08
-1.85634e-07
-6.8897e-08
-1.85856e-07
-6.69576e-08
-1.85774e-07
-1.8543e-07
-6.50756e-08
-1.05686e-07
-1.09782e-07
1.07158e-07
-1.0403e-07
-1.19763e-07
-1.02225e-07
-1.29035e-07
-1.00292e-07
-1.37605e-07
-9.82561e-08
-1.45457e-07
-9.6134e-08
-1.52586e-07
-9.3946e-08
-1.58992e-07
-9.17067e-08
-1.64683e-07
-8.94322e-08
-1.6967e-07
-8.71345e-08
-1.73973e-07
-8.48266e-08
-1.77619e-07
-8.25187e-08
-1.8064e-07
-8.02209e-08
-1.83074e-07
-7.79424e-08
-1.84962e-07
-7.56904e-08
-1.86351e-07
-7.3474e-08
-1.87287e-07
-7.1298e-08
-1.87818e-07
-6.91712e-08
-1.87993e-07
-6.70964e-08
-1.87856e-07
-1.87453e-07
-6.50828e-08
-1.08236e-07
-1.11357e-07
1.09797e-07
-1.06481e-07
-1.21529e-07
-1.04566e-07
-1.30962e-07
-1.02514e-07
-1.39668e-07
-1.0035e-07
-1.47632e-07
-9.80938e-08
-1.54852e-07
-9.57659e-08
-1.61331e-07
-9.33816e-08
-1.67077e-07
-9.09583e-08
-1.72103e-07
-8.85087e-08
-1.76432e-07
-8.60466e-08
-1.80091e-07
-8.35831e-08
-1.83113e-07
-8.1129e-08
-1.85537e-07
-7.86941e-08
-1.87407e-07
-7.62869e-08
-1.88768e-07
-7.39164e-08
-1.89667e-07
-7.15887e-08
-1.90155e-07
-6.93131e-08
-1.90278e-07
-6.7093e-08
-1.90085e-07
-1.89618e-07
-6.49382e-08
-1.10826e-07
-1.13028e-07
1.12482e-07
-1.08963e-07
-1.23404e-07
-1.06929e-07
-1.33009e-07
-1.04748e-07
-1.4186e-07
-1.02448e-07
-1.49945e-07
-1.00047e-07
-1.57264e-07
-9.75688e-08
-1.63821e-07
-9.50287e-08
-1.69627e-07
-9.24455e-08
-1.74698e-07
-8.98324e-08
-1.79056e-07
-8.72046e-08
-1.82729e-07
-8.45736e-08
-1.85754e-07
-8.19514e-08
-1.8817e-07
-7.93484e-08
-1.9002e-07
-7.67739e-08
-1.91352e-07
-7.42379e-08
-1.92214e-07
-7.17471e-08
-1.92655e-07
-6.93114e-08
-1.92725e-07
-6.69351e-08
-1.9247e-07
-1.91935e-07
-6.46287e-08
-1.13452e-07
-1.148e-07
1.15208e-07
-1.11474e-07
-1.25393e-07
-1.09314e-07
-1.35183e-07
-1.06996e-07
-1.4419e-07
-1.04549e-07
-1.52405e-07
-1.01993e-07
-1.59831e-07
-9.93533e-08
-1.66473e-07
-9.66457e-08
-1.72346e-07
-9.38906e-08
-1.77465e-07
-9.11016e-08
-1.81855e-07
-8.82955e-08
-1.85547e-07
-8.54841e-08
-1.88576e-07
-8.26809e-08
-1.90984e-07
-7.98968e-08
-1.92815e-07
-7.71423e-08
-1.94117e-07
-7.44279e-08
-1.94939e-07
-7.17614e-08
-1.95332e-07
-6.91535e-08
-1.95344e-07
-6.66092e-08
-1.95024e-07
-1.94416e-07
-6.41398e-08
-1.16124e-07
-1.16683e-07
1.17988e-07
-1.14022e-07
-1.27507e-07
-1.11725e-07
-1.37494e-07
-1.09259e-07
-1.46668e-07
-1.06654e-07
-1.55023e-07
-1.03932e-07
-1.62564e-07
-1.01118e-07
-1.693e-07
-9.82306e-08
-1.75245e-07
-9.52904e-08
-1.80418e-07
-9.2312e-08
-1.84845e-07
-8.93137e-08
-1.88557e-07
-8.63079e-08
-1.91593e-07
-8.33095e-08
-1.93994e-07
-8.03302e-08
-1.95806e-07
-7.73815e-08
-1.97077e-07
-7.44748e-08
-1.97858e-07
-7.16189e-08
-1.98199e-07
-6.88254e-08
-1.9815e-07
-6.61002e-08
-1.9776e-07
-1.97073e-07
-6.34553e-08
-1.18838e-07
-1.18681e-07
1.20819e-07
-1.16605e-07
-1.29753e-07
-1.14163e-07
-1.39951e-07
-1.11538e-07
-1.49305e-07
-1.08764e-07
-1.57811e-07
-1.05863e-07
-1.65477e-07
-1.02863e-07
-1.72314e-07
-9.97808e-08
-1.78338e-07
-9.66413e-08
-1.83571e-07
-9.34586e-08
-1.88039e-07
-9.0253e-08
-1.91776e-07
-8.70375e-08
-1.94821e-07
-8.38285e-08
-1.97216e-07
-8.06382e-08
-1.99008e-07
-7.748e-08
-2.00247e-07
-7.43656e-08
-2.00984e-07
-7.13055e-08
-2.0127e-07
-6.83117e-08
-2.01156e-07
-6.53914e-08
-2.00691e-07
-1.9992e-07
-6.25574e-08
-1.21606e-07
-1.20805e-07
1.23711e-07
-1.19231e-07
-1.32142e-07
-1.16632e-07
-1.42567e-07
-1.13836e-07
-1.52114e-07
-1.10881e-07
-1.60783e-07
-1.07786e-07
-1.68584e-07
-1.04585e-07
-1.75531e-07
-1.01294e-07
-1.81641e-07
-9.79393e-08
-1.8694e-07
-9.45362e-08
-1.91454e-07
-9.11067e-08
-1.95219e-07
-8.76645e-08
-1.98275e-07
-8.42279e-08
-2.00666e-07
-8.08098e-08
-2.02439e-07
-7.74249e-08
-2.03645e-07
-7.40862e-08
-2.04336e-07
-7.08051e-08
-2.04564e-07
-6.7595e-08
-2.0438e-07
-6.4464e-08
-2.03834e-07
-2.02971e-07
-6.14261e-08
-1.24426e-07
-1.23062e-07
1.26664e-07
-1.21899e-07
-1.34683e-07
-1.19133e-07
-1.45351e-07
-1.16154e-07
-1.55106e-07
-1.13003e-07
-1.6395e-07
-1.09701e-07
-1.71898e-07
-1.06283e-07
-1.78964e-07
-1.02767e-07
-1.85171e-07
-9.91799e-08
-1.90542e-07
-9.55386e-08
-1.95108e-07
-9.18671e-08
-1.98905e-07
-8.81798e-08
-2.01975e-07
-8.44968e-08
-2.04363e-07
-8.08319e-08
-2.06117e-07
-7.72018e-08
-2.07289e-07
-7.36202e-08
-2.07932e-07
-7.01002e-08
-2.08097e-07
-6.6656e-08
-2.07838e-07
-6.32973e-08
-2.07205e-07
-2.06244e-07
-6.00391e-08
-1.27308e-07
-1.25464e-07
1.29689e-07
-1.24617e-07
-1.37388e-07
-1.2167e-07
-1.48316e-07
-1.18495e-07
-1.58296e-07
-1.15133e-07
-1.6733e-07
-1.11608e-07
-1.75436e-07
-1.07956e-07
-1.82633e-07
-1.04196e-07
-1.88944e-07
-1.00358e-07
-1.94396e-07
-9.64593e-08
-1.9902e-07
-9.25259e-08
-2.02855e-07
-8.85729e-08
-2.05942e-07
-8.46229e-08
-2.08328e-07
-8.06906e-08
-2.10064e-07
-7.67945e-08
-2.112e-07
-7.29495e-08
-2.11791e-07
-6.91705e-08
-2.11891e-07
-6.54729e-08
-2.11551e-07
-6.18676e-08
-2.10824e-07
-2.09756e-07
-5.83711e-08
-1.30252e-07
-1.28019e-07
1.32785e-07
-1.27387e-07
-1.40267e-07
-1.24247e-07
-1.51476e-07
-1.20859e-07
-1.61697e-07
-1.17272e-07
-1.70936e-07
-1.13506e-07
-1.79215e-07
-1.09602e-07
-1.86555e-07
-1.05578e-07
-1.92981e-07
-1.01469e-07
-1.98522e-07
-9.72907e-08
-2.03212e-07
-9.30732e-08
-2.07089e-07
-8.88321e-08
-2.10197e-07
-8.45924e-08
-2.12584e-07
-8.03696e-08
-2.14301e-07
-7.61848e-08
-2.15401e-07
-7.20538e-08
-2.15938e-07
-6.79936e-08
-2.15966e-07
-6.40209e-08
-2.1554e-07
-6.01485e-08
-2.14711e-07
-2.13527e-07
-5.63939e-08
-1.33267e-07
-1.30738e-07
1.35964e-07
-1.30215e-07
-1.43335e-07
-1.26867e-07
-1.54846e-07
-1.23252e-07
-1.65326e-07
-1.1942e-07
-1.74788e-07
-1.15395e-07
-1.83255e-07
-1.11218e-07
-1.90751e-07
-1.06909e-07
-1.97304e-07
-1.02505e-07
-2.02944e-07