/*--------------------------------*- C++ -*----------------------------------*\
  =========                 |
  \\      /  F ield         | OpenFOAM: The Open Source CFD Toolbox
   \\    /   O peration     | Website:  https://openfoam.org
    \\  /    A nd           | Version:  6
     \\/     M anipulation  |
\*---------------------------------------------------------------------------*/
FoamFile
{
    version     2.0;
    format      ascii;
    class       surfaceScalarField;
    location    "18";
    object      phi;
}
// * * * * * * * * * * * * * * * * * * * * * * * * * * * * * * * * * * * * * //

dimensions      [0 3 -1 0 0 0 0];

internalField   nonuniform List<scalar> 
19400
(
-1.21139e-09
-7.97076e-07
-2.83214e-09
-1.06513e-06
-3.94221e-09
-1.19334e-06
-4.36339e-09
-1.27537e-06
-4.2058e-09
-1.32612e-06
-3.75219e-09
-1.35582e-06
-3.19765e-09
-1.37254e-06
-2.63069e-09
-1.38163e-06
-2.07129e-09
-1.3861e-06
-1.52519e-09
-1.38753e-06
-9.90631e-10
-1.38659e-06
-4.38463e-10
-1.38328e-06
1.23659e-10
-1.37692e-06
7.40727e-10
-1.36601e-06
1.35692e-09
-1.34771e-06
1.88255e-09
-1.31703e-06
2.05807e-09
-1.26642e-06
1.6696e-09
-1.18534e-06
6.55027e-10
-1.05862e-06
-7.93812e-07
2.25028e-10
-7.97291e-07
-9.13683e-10
-1.06402e-06
-1.71475e-09
-1.19254e-06
-2.23605e-09
-1.27487e-06
-2.44658e-09
-1.32592e-06
-2.42366e-09
-1.35586e-06
-2.21446e-09
-1.37276e-06
-1.92329e-09
-1.38194e-06
-1.57752e-09
-1.38646e-06
-1.24031e-09
-1.3879e-06
-8.84485e-10
-1.38696e-06
-5.52103e-10
-1.38365e-06
-2.12465e-10
-1.37728e-06
8.93472e-11
-1.36634e-06
3.29499e-10
-1.34797e-06
4.90788e-10
-1.3172e-06
5.21025e-10
-1.26648e-06
3.35553e-10
-1.1852e-06
-1.58219e-10
-1.05818e-06
-7.93978e-07
-1.73068e-10
-7.97101e-07
-7.39919e-10
-1.06347e-06
-1.16864e-09
-1.19211e-06
-1.46348e-09
-1.2746e-06
-1.60264e-09
-1.32579e-06
-1.64179e-09
-1.35584e-06
-1.56538e-09
-1.37284e-06
-1.42112e-09
-1.3821e-06
-1.22912e-09
-1.38666e-06
-1.02192e-09
-1.38813e-06
-8.00401e-10
-1.38719e-06
-5.78574e-10
-1.38388e-06
-3.53697e-10
-1.37752e-06
-1.29048e-10
-1.36657e-06
7.2617e-11
-1.34818e-06
2.40089e-10
-1.31737e-06
3.26503e-10
-1.26658e-06
3.14068e-10
-1.18522e-06
3.67556e-10
-1.05826e-06
-7.93613e-07
-2.35582e-10
-7.96868e-07
-4.34371e-10
-1.06328e-06
-6.43335e-10
-1.19189e-06
-8.23394e-10
-1.27443e-06
-9.33191e-10
-1.32567e-06
-9.89485e-10
-1.35579e-06
-9.84281e-10
-1.37285e-06
-9.47548e-10
-1.38214e-06
-8.73886e-10
-1.38673e-06
-7.84378e-10
-1.38822e-06
-6.69723e-10
-1.38731e-06
-5.53774e-10
-1.38401e-06
-4.25783e-10
-1.37765e-06
-2.84038e-10
-1.36671e-06
-1.44048e-10
-1.34832e-06
-1.65078e-11
-1.31749e-06
1.86025e-11
-1.26661e-06
6.51775e-11
-1.18527e-06
2.03063e-10
-1.05841e-06
-7.93409e-07
-4.84188e-10
-7.96387e-07
-4.23315e-10
-1.06334e-06
-5.10086e-10
-1.1918e-06
-6.01057e-10
-1.27433e-06
-6.65181e-10
-1.3256e-06
-7.03401e-10
-1.35575e-06
-7.0224e-10
-1.37283e-06
-6.95159e-10
-1.38215e-06
-6.57083e-10
-1.38676e-06
-6.0346e-10
-1.38827e-06
-5.28732e-10
-1.38737e-06
-4.50626e-10
-1.38408e-06
-3.69065e-10
-1.37773e-06
-2.64597e-10
-1.36681e-06
-1.38069e-10
-1.34845e-06
-4.4236e-12
-1.31762e-06
6.14453e-11
-1.26668e-06
1.39532e-10
-1.18535e-06
3.02934e-10
-1.05857e-06
-7.93105e-07
-3.01587e-10
-7.96104e-07
-3.3859e-10
-1.06331e-06
-4.54669e-10
-1.19169e-06
-5.39511e-10
-1.27425e-06
-6.13327e-10
-1.32552e-06
-6.51328e-10
-1.35572e-06
-6.36502e-10
-1.37284e-06
-6.09993e-10
-1.38217e-06
-5.60076e-10
-1.3868e-06
-4.93583e-10
-1.38833e-06
-4.10194e-10
-1.38745e-06
-3.20248e-10
-1.38417e-06
-2.26666e-10
-1.37782e-06
-1.22305e-10
-1.36692e-06
-1.12111e-11
-1.34856e-06
1.00218e-10
-1.31774e-06
1.90528e-10
-1.26677e-06
2.1648e-10
-1.18537e-06
1.48165e-10
-1.0585e-06
-7.92956e-07
-1.50655e-10
-7.95993e-07
-3.28174e-10
-1.06316e-06
-4.11345e-10
-1.19163e-06
-4.68191e-10
-1.27421e-06
-5.36871e-10
-1.32547e-06
-5.62752e-10
-1.35571e-06
-5.50038e-10
-1.37287e-06
-5.1702e-10
-1.38222e-06
-4.61948e-10
-1.38687e-06
-3.87199e-10
-1.38842e-06
-3.04512e-10
-1.38754e-06
-2.05834e-10
-1.38426e-06
-1.14209e-10
-1.37792e-06
-3.08396e-11
-1.367e-06
4.68203e-11
-1.34864e-06
1.54389e-10
-1.31784e-06
2.57193e-10
-1.26687e-06
2.43033e-10
-1.18535e-06
3.74668e-11
-1.05829e-06
-7.9292e-07
-1.48539e-10
-7.95872e-07
-2.86483e-10
-1.06304e-06
-2.8286e-10
-1.19166e-06
-2.8642e-10
-1.27422e-06
-3.37451e-10
-1.32544e-06
-3.61331e-10
-1.35569e-06
-3.77224e-10
-1.37287e-06
-3.68536e-10
-1.38224e-06
-3.4014e-10
-1.38691e-06
-2.86283e-10
-1.38847e-06
-2.26248e-10
-1.38761e-06
-1.4685e-10
-1.38434e-06
-6.59659e-11
-1.378e-06
2.19978e-13
-1.36706e-06
5.96167e-11
-1.3487e-06
1.46206e-10
-1.31794e-06
2.30985e-10
-1.26696e-06
2.02995e-10
-1.18533e-06
6.27683e-11
-1.05816e-06
-7.92862e-07
-1.46392e-10
-7.95733e-07
-1.75653e-10
-1.06302e-06
-1.59712e-10
-1.19168e-06
-1.39104e-10
-1.27425e-06
-1.76561e-10
-1.3254e-06
-2.29147e-10
-1.35564e-06
-2.74668e-10
-1.37283e-06
-3.0247e-10
-1.38222e-06
-3.04536e-10
-1.38691e-06
-2.89356e-10
-1.3885e-06
-2.61778e-10
-1.38765e-06
-2.20572e-10
-1.38439e-06
-1.73269e-10
-1.37805e-06
-1.36271e-10
-1.36711e-06
-9.80903e-11
-1.34874e-06
-4.46143e-11
-1.318e-06
4.2933e-11
-1.26706e-06
8.06631e-11
-1.18539e-06
2.67203e-11
-1.05813e-06
-7.92839e-07
-1.58218e-10
-7.95572e-07
-1.18059e-10
-1.06308e-06
-1.94896e-10
-1.1916e-06
-2.21933e-10
-1.27423e-06
-2.13365e-10
-1.3254e-06
-2.61222e-10
-1.3556e-06
-3.02403e-10
-1.37278e-06
-3.38647e-10
-1.38218e-06
-3.48933e-10
-1.3869e-06
-3.55049e-10
-1.38849e-06
-3.44786e-10
-1.38765e-06
-3.41189e-10
-1.3844e-06
-3.28003e-10
-1.37806e-06
-3.21776e-10
-1.36712e-06
-3.18926e-10
-1.34875e-06
-2.64575e-10
-1.31806e-06
-1.37557e-10
-1.2672e-06
-1.53438e-11
-1.18552e-06
8.15479e-11
-1.05824e-06
-7.92758e-07
2.81582e-11
-7.95593e-07
-6.08454e-11
-1.063e-06
-1.72841e-10
-1.19148e-06
-2.26946e-10
-1.27418e-06
-2.31975e-10
-1.32539e-06
-2.80933e-10
-1.35555e-06
-3.30772e-10
-1.37272e-06
-3.58852e-10
-1.38215e-06
-3.69662e-10
-1.38688e-06
-3.6565e-10
-1.38849e-06
-3.48379e-10
-1.38767e-06
-3.2314e-10
-1.38442e-06
-2.95942e-10
-1.37809e-06
-2.68837e-10
-1.36715e-06
-2.55882e-10
-1.34876e-06
-2.31062e-10
-1.31808e-06
-1.64477e-10
-1.26726e-06
-6.88123e-11
-1.18562e-06
1.39955e-10
-1.05845e-06
-7.92618e-07
6.82097e-11
-7.95653e-07
-3.47989e-11
-1.0629e-06
-1.0793e-10
-1.1914e-06
-1.68475e-10
-1.27412e-06
-2.21099e-10
-1.32534e-06
-2.82626e-10
-1.35548e-06
-3.32805e-10
-1.37267e-06
-3.52958e-10
-1.38212e-06
-3.56706e-10
-1.38687e-06
-3.40711e-10
-1.3885e-06
-3.09104e-10
-1.3877e-06
-2.63427e-10
-1.38446e-06
-2.16126e-10
-1.37814e-06
-1.6044e-10
-1.3672e-06
-1.28914e-10
-1.34879e-06
-1.35416e-10
-1.31808e-06
-1.87268e-10
-1.26721e-06
-1.9926e-10
-1.18561e-06
-6.30671e-11
-1.05858e-06
-7.92681e-07
7.35901e-11
-7.95721e-07
2.24767e-11
-1.06286e-06
-1.81477e-11
-1.19135e-06
-8.77979e-11
-1.27406e-06
-1.30502e-10
-1.32529e-06
-1.85697e-10
-1.35544e-06
-2.44241e-10
-1.37261e-06
-2.89036e-10
-1.38208e-06
-3.11072e-10
-1.38686e-06
-3.0967e-10
-1.38851e-06
-2.937e-10
-1.38772e-06
-2.56617e-10
-1.3845e-06
-2.17509e-10
-1.37819e-06
-1.65677e-10
-1.36725e-06
-1.42769e-10
-1.34882e-06
-1.68623e-10
-1.31805e-06
-2.57721e-10
-1.26712e-06
-2.94051e-10
-1.18557e-06
-2.60432e-10
-1.05862e-06
-7.9294e-07
4.55956e-11
-7.95767e-07
1.25267e-10
-1.06295e-06
9.88219e-11
-1.19133e-06
2.61339e-11
-1.274e-06
-2.47953e-11
-1.32525e-06
-9.66686e-11
-1.35537e-06
-1.72019e-10
-1.37254e-06
-2.35476e-10
-1.38202e-06
-2.77629e-10
-1.38682e-06
-2.93825e-10
-1.38849e-06
-2.95277e-10
-1.38772e-06
-2.76626e-10
-1.38452e-06
-2.47718e-10
-1.37822e-06
-2.07607e-10
-1.36728e-06
-1.90091e-10
-1.34884e-06
-2.25458e-10
-1.31801e-06
-3.1072e-10
-1.26704e-06
-3.23083e-10
-1.18556e-06
-2.632e-10
-1.05867e-06
-7.93202e-07
1.12637e-10
-7.95877e-07
1.91554e-10
-1.06303e-06
1.27074e-10
-1.19126e-06
2.94738e-11
-1.27391e-06
-6.05068e-11
-1.32515e-06
-1.39111e-10
-1.3553e-06
-1.88914e-10
-1.37249e-06
-2.3442e-10
-1.38198e-06
-2.66083e-10
-1.38679e-06
-2.85724e-10
-1.38847e-06
-2.97227e-10
-1.38771e-06
-2.9254e-10
-1.38452e-06
-2.82425e-10
-1.37823e-06
-2.64301e-10
-1.3673e-06
-2.61315e-10
-1.34884e-06
-3.01742e-10
-1.31797e-06
-3.6543e-10
-1.26697e-06
-3.5578e-10
-1.18556e-06
-2.64693e-10
-1.05875e-06
-7.93465e-07
2.91191e-10
-7.96175e-07
2.31572e-10
-1.06296e-06
2.16645e-10
-1.19125e-06
1.55143e-10
-1.27384e-06
4.46068e-11
-1.32505e-06
-5.02934e-11
-1.35521e-06
-1.18893e-10
-1.37242e-06
-1.70803e-10
-1.38193e-06
-2.09562e-10
-1.38675e-06
-2.38339e-10
-1.38845e-06
-2.55278e-10
-1.3877e-06
-2.64492e-10
-1.38451e-06
-2.67456e-10
-1.37823e-06
-2.76711e-10
-1.36729e-06
-2.86927e-10
-1.34883e-06
-3.08959e-10
-1.31795e-06
-3.30238e-10
-1.26695e-06
-2.96267e-10
-1.18559e-06
-1.85033e-10
-1.05886e-06
-7.93651e-07
1.64297e-10
-7.96351e-07
2.08729e-10
-1.06301e-06
2.22419e-10
-1.19127e-06
1.77084e-10
-1.2738e-06
1.06946e-10
-1.32498e-06
2.91489e-11
-1.35513e-06
-5.10704e-11
-1.37235e-06
-1.18026e-10
-1.38187e-06
-1.74382e-10
-1.3867e-06
-2.15145e-10
-1.38841e-06
-2.44275e-10
-1.38767e-06
-2.55264e-10
-1.3845e-06
-2.63628e-10
-1.37822e-06
-2.71319e-10
-1.36729e-06
-2.62715e-10
-1.34884e-06
-2.61755e-10
-1.31795e-06
-2.69738e-10
-1.26694e-06
-2.63421e-10
-1.1856e-06
-2.0673e-10
-1.05893e-06
-7.93861e-07
1.72653e-10
-7.96544e-07
2.59307e-10
-1.0631e-06
2.55631e-10
-1.19128e-06
1.98978e-10
-1.27374e-06
1.4487e-10
-1.32493e-06
8.26636e-11
-1.35508e-06
-4.22638e-12
-1.37226e-06
-9.6418e-11
-1.38179e-06
-1.72764e-10
-1.38662e-06
-2.45475e-10
-1.38834e-06
-2.98415e-10
-1.38762e-06
-3.50489e-10
-1.38446e-06
-3.91124e-10
-1.37818e-06
-4.26534e-10
-1.36725e-06
-4.44247e-10
-1.34882e-06
-4.46757e-10
-1.31795e-06
-4.10658e-10
-1.26698e-06
-3.50079e-10
-1.18567e-06
-3.64484e-10
-1.05892e-06
-7.94227e-07
5.14943e-11
-7.96622e-07
2.0244e-10
-1.06326e-06
2.2772e-10
-1.19132e-06
2.04522e-10
-1.27372e-06
1.56876e-10
-1.32489e-06
9.32489e-11
-1.35501e-06
-1.95169e-12
-1.37217e-06
-9.83678e-11
-1.38169e-06
-1.79227e-10
-1.38654e-06
-2.63167e-10
-1.38827e-06
-3.33594e-10
-1.38754e-06
-4.15675e-10
-1.38438e-06
-4.87009e-10
-1.3781e-06
-5.46732e-10
-1.3672e-06
-5.6501e-10
-1.3488e-06
-5.57064e-10
-1.31795e-06
-4.98649e-10
-1.26704e-06
-3.52002e-10
-1.18582e-06
-1.09841e-10
-1.05917e-06
-7.94338e-07
-1.09425e-10
-7.96527e-07
4.28177e-11
-1.06342e-06
1.26706e-10
-1.19142e-06
1.53124e-10
-1.27374e-06
9.54944e-11
-1.32484e-06
1.20252e-11
-1.35492e-06
-7.85655e-11
-1.37208e-06
-1.49896e-10
-1.38161e-06
-2.10632e-10
-1.38647e-06
-2.61809e-10
-1.38821e-06
-3.00766e-10
-1.3875e-06
-3.45698e-10
-1.38434e-06
-3.79558e-10
-1.37807e-06
-3.97652e-10
-1.36718e-06
-3.87128e-10
-1.34881e-06
-3.80803e-10
-1.31796e-06
-3.84553e-10
-1.26704e-06
-2.71605e-10
-1.18594e-06
4.76249e-11
-1.0595e-06
-7.94291e-07
-8.63187e-11
-7.96429e-07
-6.92579e-11
-1.06344e-06
-3.19476e-11
-1.19144e-06
-5.82759e-12
-1.27376e-06
-5.97132e-11
-1.32478e-06
-1.49163e-10
-1.35482e-06
-2.07791e-10
-1.37201e-06
-2.43956e-10
-1.38157e-06
-2.69322e-10
-1.38644e-06
-2.78475e-10
-1.3882e-06
-2.76959e-10
-1.3875e-06
-2.62869e-10
-1.38434e-06
-2.45883e-10
-1.37808e-06
-2.23528e-10
-1.3672e-06
-2.07489e-10
-1.34883e-06
-2.05075e-10
-1.31797e-06
-2.19821e-10
-1.26703e-06
-2.0877e-10
-1.18595e-06
-1.23499e-10
-1.05958e-06
-7.94412e-07
7.98609e-11
-7.9648e-07
-4.40068e-11
-1.06331e-06
-7.67303e-11
-1.19139e-06
-9.38259e-11
-1.27375e-06
-1.5747e-10
-1.3247e-06
-2.54862e-10
-1.35472e-06
-3.00185e-10
-1.37195e-06
-3.16148e-10
-1.38155e-06
-3.13103e-10
-1.38644e-06
-3.04937e-10
-1.3882e-06
-2.89528e-10
-1.38751e-06
-2.69509e-10
-1.38436e-06
-2.4539e-10
-1.3781e-06
-2.27819e-10
-1.36721e-06
-2.26085e-10
-1.34883e-06
-2.09296e-10
-1.31798e-06
-2.00274e-10
-1.26703e-06
-2.06357e-10
-1.18594e-06
-2.57764e-10
-1.05952e-06
-7.94663e-07
1.75249e-10
-7.96623e-07
3.48128e-11
-1.06317e-06
5.37871e-12
-1.19134e-06
-6.22496e-11
-1.27368e-06
-1.73078e-10
-1.32457e-06
-2.8662e-10
-1.3546e-06
-3.37622e-10
-1.37189e-06
-3.47527e-10
-1.38153e-06
-3.34512e-10
-1.38645e-06
-3.10452e-10
-1.38822e-06
-2.89544e-10
-1.38752e-06
-2.63754e-10
-1.38437e-06
-2.41052e-10
-1.37812e-06
-2.26756e-10
-1.36721e-06
-2.23958e-10
-1.34882e-06
-2.02697e-10
-1.31799e-06
-1.81606e-10
-1.26704e-06
-1.94411e-10
-1.18589e-06
-2.21082e-10
-1.05946e-06
-7.94878e-07
1.48612e-10
-7.96747e-07
1.0333e-10
-1.06313e-06
5.35163e-11
-1.19126e-06
-5.44483e-11
-1.27357e-06
-1.68317e-10
-1.32444e-06
-2.5956e-10
-1.35451e-06
-3.0587e-10
-1.37184e-06
-3.24379e-10
-1.38151e-06
-3.25165e-10
-1.38644e-06
-3.06466e-10
-1.38822e-06
-2.88604e-10
-1.38754e-06
-2.64687e-10
-1.38439e-06
-2.39419e-10
-1.37813e-06
-2.14521e-10
-1.36724e-06
-1.89718e-10
-1.34883e-06
-1.68983e-10
-1.31801e-06
-1.29957e-10
-1.26705e-06
-1.44522e-10
-1.18585e-06
-1.84705e-10
-1.05939e-06
-7.95061e-07
1.45712e-10
-7.96885e-07
1.8969e-10
-1.06317e-06
1.44055e-10
-1.19121e-06
4.63593e-11
-1.27348e-06
-5.09347e-11
-1.32434e-06
-1.42478e-10
-1.35443e-06
-2.10258e-10
-1.37177e-06
-2.6673e-10
-1.38145e-06
-2.99322e-10
-1.38641e-06
-3.20013e-10
-1.3882e-06
-3.32178e-10
-1.38752e-06
-3.44592e-10
-1.38438e-06
-3.54208e-10
-1.37812e-06
-3.63229e-10
-1.36723e-06
-3.4717e-10
-1.34884e-06
-3.01983e-10
-1.31805e-06
-2.22532e-10
-1.26712e-06
-1.709e-10
-1.18589e-06
-2.07446e-10
-1.05935e-06
-7.9527e-07
9.78356e-11
-7.96985e-07
2.46213e-10
-1.06331e-06
2.24284e-10
-1.19119e-06
1.20931e-10
-1.27338e-06
1.57318e-11
-1.32423e-06
-7.56242e-11
-1.35434e-06
-1.61194e-10
-1.37168e-06
-2.49189e-10
-1.38137e-06
-3.11029e-10
-1.38634e-06
-3.67133e-10
-1.38815e-06
-4.07041e-10
-1.38748e-06
-4.56324e-10
-1.38433e-06
-4.90827e-10
-1.37808e-06
-5.2255e-10
-1.3672e-06
-5.10924e-10
-1.34885e-06
-4.38357e-10
-1.31812e-06
-3.1811e-10
-1.26724e-06
-2.27784e-10
-1.18599e-06
-1.56609e-10
-1.05943e-06
-7.9543e-07
2.55924e-11
-7.97012e-07
1.99772e-10
-1.06348e-06
2.19816e-10
-1.19121e-06
1.08731e-10
-1.27326e-06
-3.49296e-12
-1.32411e-06
-8.88425e-11
-1.35425e-06
-1.74764e-10
-1.37159e-06
-2.67706e-10
-1.38128e-06
-3.38024e-10
-1.38626e-06
-4.11134e-10
-1.38808e-06
-4.65834e-10
-1.38741e-06
-5.27949e-10
-1.38427e-06
-5.69647e-10
-1.37803e-06
-5.98618e-10
-1.36718e-06
-5.7773e-10
-1.34887e-06
-5.0723e-10
-1.31819e-06
-3.44423e-10
-1.26741e-06
-1.93296e-10
-1.18616e-06
-5.74828e-11
-1.05958e-06
-7.95489e-07
2.37714e-11
-7.9703e-07
1.55859e-10
-1.06359e-06
1.41958e-10
-1.19119e-06
5.13891e-11
-1.27316e-06
-6.02409e-11
-1.324e-06
-1.63565e-10
-1.35414e-06
-2.43327e-10
-1.3715e-06
-3.13899e-10
-1.3812e-06
-3.67338e-10
-1.38619e-06
-4.26755e-10
-1.38802e-06
-4.68194e-10
-1.38736e-06
-5.13585e-10
-1.38423e-06
-5.37667e-10
-1.378e-06
-5.46947e-10
-1.36717e-06
-5.27939e-10
-1.34889e-06
-4.59423e-10
-1.31825e-06
-2.96624e-10
-1.26758e-06
-9.73613e-11
-1.18637e-06
8.60304e-11
-1.05977e-06
-7.95403e-07
1.16986e-10
-7.97142e-07
1.48349e-10
-1.06361e-06
1.34612e-10
-1.19117e-06
6.93766e-11
-1.27308e-06
-4.55876e-11
-1.32388e-06
-1.7004e-10
-1.35401e-06
-2.68557e-10
-1.3714e-06
-3.39243e-10
-1.38113e-06
-3.93986e-10
-1.38614e-06
-4.32826e-10
-1.38798e-06
-4.57348e-10
-1.38733e-06
-4.62606e-10
-1.38422e-06
-4.52075e-10
-1.37801e-06
-4.19682e-10
-1.36719e-06
-3.76078e-10
-1.34893e-06
-2.97186e-10
-1.31833e-06
-1.67625e-10
-1.26771e-06
-2.34882e-11
-1.18651e-06
8.87018e-11
-1.05988e-06
-7.95311e-07
7.28673e-11
-7.97203e-07
1.361e-10
-1.06366e-06
1.42377e-10
-1.19118e-06
7.0046e-11
-1.273e-06
-3.43413e-11
-1.32378e-06
-1.54706e-10
-1.35388e-06
-2.60991e-10
-1.37129e-06
-3.42909e-10
-1.38104e-06
-4.1126e-10
-1.38607e-06
-4.50888e-10
-1.38793e-06
-4.70251e-10
-1.38731e-06
-4.66371e-10
-1.38422e-06
-4.44492e-10
-1.37803e-06
-4.02165e-10
-1.36722e-06
-3.49678e-10
-1.34898e-06
-2.56289e-10
-1.31841e-06
-1.42835e-10
-1.26781e-06
-5.12981e-11
-1.18658e-06
-4.73674e-11
-1.05987e-06
-7.95354e-07
6.7733e-11
-7.97259e-07
1.16635e-10
-1.06369e-06
1.59877e-10
-1.19122e-06
1.13752e-10
-1.27295e-06
3.80462e-12
-1.32367e-06
-1.2757e-10
-1.35375e-06
-2.55961e-10
-1.37117e-06
-3.55741e-10
-1.38094e-06
-4.44628e-10
-1.38598e-06
-4.96248e-10
-1.38787e-06
-5.3433e-10
-1.38727e-06
-5.36601e-10
-1.3842e-06
-5.274e-10
-1.37803e-06
-4.81089e-10
-1.36726e-06
-3.91992e-10
-1.34905e-06
-2.69994e-10
-1.31853e-06
-1.71909e-10
-1.26789e-06
-1.22564e-10
-1.18661e-06
-9.96682e-11
-1.05987e-06
-7.95449e-07
-2.95643e-11
-7.97218e-07
3.36472e-11
-1.06374e-06
1.17942e-10
-1.1913e-06
7.88775e-11
-1.2729e-06
-5.97888e-11
-1.32353e-06
-2.02296e-10
-1.35359e-06
-3.40942e-10
-1.37102e-06
-4.56001e-10
-1.38081e-06
-5.59111e-10
-1.38588e-06
-6.31154e-10
-1.38779e-06
-6.8675e-10
-1.38722e-06
-7.14022e-10
-1.38417e-06
-7.25379e-10
-1.37801e-06
-6.95108e-10
-1.36728e-06
-6.02873e-10
-1.34914e-06
-4.67986e-10
-1.31865e-06
-3.39418e-10
-1.26801e-06
-2.63461e-10
-1.18667e-06
-2.28338e-10
-1.05988e-06
-7.95673e-07
7.52663e-11
-7.97276e-07
1.36579e-10
-1.06379e-06
9.74268e-11
-1.19124e-06
-3.48891e-11
-1.27276e-06
-1.84545e-10
-1.32337e-06
-3.14774e-10
-1.35346e-06
-4.36323e-10
-1.3709e-06
-5.50887e-10
-1.38069e-06
-6.59304e-10
-1.38576e-06
-7.54692e-10
-1.38769e-06
-8.34516e-10
-1.38713e-06
-8.94546e-10
-1.3841e-06
-9.25642e-10
-1.37798e-06
-9.20191e-10
-1.36728e-06
-8.55505e-10
-1.34919e-06
-7.21527e-10
-1.31877e-06
-5.25959e-10
-1.26819e-06
-3.25724e-10
-1.18685e-06
-1.02935e-10
-1.06008e-06
-7.95774e-07
3.27302e-10
-7.97588e-07
2.97064e-10
-1.06374e-06
2.55486e-10
-1.19119e-06
1.55832e-10
-1.27265e-06
2.15505e-11
-1.32323e-06
-1.20996e-10
-1.3533e-06
-2.82182e-10
-1.37073e-06
-4.35656e-10
-1.38052e-06
-5.89057e-10
-1.3856e-06
-7.22468e-10
-1.38754e-06
-8.35561e-10
-1.38701e-06
-9.21861e-10
-1.38401e-06
-9.67613e-10
-1.37793e-06
-9.74266e-10
-1.36728e-06
-9.18119e-10
-1.34924e-06
-7.86065e-10
-1.3189e-06
-6.00751e-10
-1.26837e-06
-3.3746e-10
-1.18711e-06
8.85995e-11
-1.0605e-06
-7.95686e-07
1.42419e-10
-7.97712e-07
2.80725e-10
-1.06386e-06
3.62573e-10
-1.19126e-06
3.67877e-10
-1.27264e-06
2.7174e-10
-1.32312e-06
1.21554e-10
-1.35314e-06
-7.86387e-11
-1.37052e-06
-2.91111e-10
-1.3803e-06
-4.93576e-10
-1.38539e-06
-6.70031e-10
-1.38736e-06
-8.14313e-10
-1.38686e-06
-9.21503e-10
-1.3839e-06
-9.91788e-10
-1.37785e-06
-1.015e-09
-1.36725e-06
-9.70635e-10
-1.34929e-06
-8.4941e-10
-1.31902e-06
-6.5893e-10
-1.26855e-06
-3.64516e-10
-1.18741e-06
-2.59185e-11
-1.06084e-06
-7.95712e-07
3.37677e-11
-7.97732e-07
3.21786e-10
-1.06413e-06
3.63699e-10
-1.19129e-06
3.59284e-10
-1.27262e-06
2.6918e-10
-1.32301e-06
9.20947e-11
-1.35295e-06
-1.15343e-10
-1.3703e-06
-3.42659e-10
-1.38007e-06
-5.50212e-10
-1.38517e-06
-7.45166e-10
-1.38716e-06
-9.01748e-10
-1.38669e-06
-1.03148e-09
-1.38376e-06
-1.11721e-09
-1.37776e-06
-1.164e-09
-1.36719e-06
-1.14603e-09
-1.3493e-06
-1.01581e-09
-1.31914e-06
-7.43436e-10
-1.26883e-06
-4.00221e-10
-1.18775e-06
-1.10094e-10
-1.06113e-06
-7.9582e-07
2.03182e-10
-7.97923e-07
3.7713e-10
-1.0643e-06
3.24202e-10
-1.19122e-06
2.65319e-10
-1.27256e-06
1.65e-10
-1.3229e-06
-3.41682e-11
-1.35275e-06
-2.4053e-10
-1.37008e-06
-4.54629e-10
-1.37985e-06
-6.5658e-10
-1.38496e-06
-8.50023e-10
-1.38696e-06
-1.01862e-09
-1.38651e-06
-1.15911e-09
-1.38361e-06
-1.2576e-09
-1.37764e-06
-1.31307e-09
-1.36713e-06
-1.29014e-09
-1.3493e-06
-1.15786e-09
-1.31926e-06
-8.7201e-10
-1.2691e-06
-4.64795e-10
-1.18814e-06
-3.9651e-11
-1.06155e-06
-7.95859e-07
3.23237e-10
-7.98226e-07
4.16941e-10
-1.06439e-06
4.29229e-10
-1.19122e-06
3.53367e-10
-1.27248e-06
2.06297e-10
-1.32274e-06
-1.71612e-11
-1.35252e-06
-2.45734e-10
-1.36984e-06
-4.73983e-10
-1.37961e-06
-6.94318e-10
-1.38473e-06
-9.03592e-10
-1.38674e-06
-1.09725e-09
-1.3863e-06
-1.26399e-09
-1.38344e-06
-1.38081e-09
-1.37751e-06
-1.43335e-09
-1.36707e-06
-1.40713e-09
-1.34932e-06
-1.29892e-09
-1.31936e-06
-1.02704e-09
-1.26936e-06
-5.34701e-10
-1.18863e-06
-4.63209e-11
-1.06203e-06
-7.95904e-07
3.48687e-10
-7.98547e-07
5.13184e-10
-1.06454e-06
6.24892e-10
-1.19131e-06
5.59981e-10
-1.27241e-06
3.70927e-10
-1.32254e-06
1.24864e-10
-1.35227e-06
-1.38947e-10
-1.36957e-06
-4.12216e-10
-1.37933e-06
-6.77225e-10
-1.38446e-06
-9.28313e-10
-1.38649e-06
-1.16427e-09
-1.38607e-06
-1.36923e-09
-1.38323e-06
-1.52189e-09
-1.37735e-06
-1.60163e-09
-1.36698e-06
-1.60141e-09
-1.34931e-06
-1.4994e-09
-1.31945e-06
-1.18932e-09
-1.26967e-06
-6.66737e-10
-1.18915e-06
-1.85891e-10
-1.06251e-06
-7.96085e-07
3.5829e-10
-7.98875e-07
5.81618e-10
-1.06475e-06
8.18478e-10
-1.19153e-06
8.37373e-10
-1.27242e-06
6.63807e-10
-1.32236e-06
3.9197e-10
-1.35199e-06
6.58084e-11
-1.36923e-06
-2.76863e-10
-1.37898e-06
-6.08538e-10
-1.38412e-06
-9.2202e-10
-1.38616e-06
-1.21052e-09
-1.38577e-06
-1.46838e-09
-1.38296e-06
-1.67775e-09
-1.37713e-06
-1.81716e-09
-1.36683e-06
-1.85757e-09
-1.34926e-06
-1.71678e-09
-1.31958e-06
-1.34668e-09
-1.27003e-06
-8.19072e-10
-1.18966e-06
-2.83691e-10
-1.06301e-06
-7.96358e-07
1.70322e-10
-7.99009e-07
5.82949e-10
-1.06512e-06
9.53761e-10
-1.19187e-06
1.06092e-09
-1.2725e-06
8.95103e-10
-1.32216e-06
5.90418e-10
-1.35167e-06
2.19899e-10
-1.36884e-06
-1.68863e-10
-1.37857e-06
-5.43922e-10
-1.38372e-06
-8.93064e-10
-1.38579e-06
-1.21299e-09
-1.38542e-06
-1.49446e-09
-1.38265e-06
-1.73485e-09
-1.37687e-06
-1.90611e-09
-1.36663e-06
-1.967e-09
-1.34917e-06
-1.82597e-09
-1.3197e-06
-1.4367e-09
-1.27038e-06
-8.80491e-10
-1.19017e-06
-1.98449e-10
-1.06364e-06
-7.96547e-07
4.94998e-11
-7.99022e-07
6.0362e-10
-1.06564e-06
9.72654e-10
-1.19221e-06
1.06178e-09
-1.27256e-06
9.05578e-10
-1.32198e-06
6.09001e-10
-1.35135e-06
2.43777e-10
-1.36846e-06
-1.44452e-10
-1.37816e-06
-5.30418e-10
-1.38332e-06
-8.82712e-10
-1.38541e-06
-1.20669e-09
-1.38508e-06
-1.48135e-09
-1.38235e-06
-1.70215e-09
-1.37663e-06
-1.84163e-09
-1.36648e-06
-1.86586e-09
-1.34913e-06
-1.76088e-09
-1.31978e-06
-1.46042e-09
-1.27065e-06
-9.5004e-10
-1.19064e-06
-2.53835e-10
-1.0643e-06
-7.96798e-07
2.00621e-10
-7.99194e-07
6.94177e-10
-1.0661e-06
1.10745e-09
-1.1926e-06
1.19976e-09
-1.27264e-06
1.02876e-09
-1.32179e-06
6.90182e-10
-1.351e-06
2.8454e-10
-1.36804e-06
-1.41142e-10
-1.37773e-06
-5.55235e-10
-1.38289e-06
-9.50027e-10
-1.38501e-06
-1.30989e-09
-1.38471e-06
-1.61888e-09
-1.38203e-06
-1.86872e-09
-1.37637e-06
-2.0267e-09
-1.36631e-06
-2.06335e-09
-1.34908e-06
-1.9665e-09
-1.31987e-06
-1.67888e-09
-1.27092e-06
-1.18156e-09
-1.19112e-06
-6.64138e-10
-1.06481e-06
-7.97461e-07
2.77562e-10
-7.99438e-07
8.29226e-10
-1.06663e-06
1.24922e-09
-1.193e-06
1.35219e-09
-1.27273e-06
1.17333e-09
-1.3216e-06
8.07272e-10
-1.35063e-06
3.60332e-10
-1.36758e-06
-1.22519e-10
-1.37725e-06
-5.94382e-10
-1.38241e-06
-1.06156e-09
-1.38454e-06
-1.48768e-09
-1.38428e-06
-1.88035e-09
-1.38164e-06
-2.2039e-09
-1.37603e-06
-2.44416e-09
-1.36606e-06
-2.54319e-09
-1.34896e-06
-2.42345e-09
-1.31997e-06
-2.04085e-09
-1.2713e-06
-1.41146e-09
-1.19175e-06
-7.52955e-10
-1.06546e-06
-7.98212e-07
4.36311e-10
-7.9985e-07
1.05134e-09
-1.06722e-06
1.49331e-09
-1.19343e-06
1.61443e-09
-1.27284e-06
1.42996e-09
-1.32141e-06
1.04582e-09
-1.35024e-06
5.56124e-10
-1.36708e-06
1.45045e-11
-1.3767e-06
-5.37399e-10
-1.38185e-06
-1.08186e-09
-1.38399e-06
-1.58972e-09
-1.38376e-06
-2.06128e-09
-1.38116e-06
-2.45347e-09
-1.37562e-06
-2.75193e-09
-1.36575e-06
-2.87837e-09
-1.34882e-06
-2.74688e-09
-1.32009e-06
-2.29791e-09
-1.27173e-06
-1.52646e-09
-1.19251e-06
-5.16429e-10
-1.06646e-06
-7.98725e-07
4.50739e-10
-8.00279e-07
1.25425e-09
-1.06798e-06
1.82364e-09
-1.19399e-06
2.01353e-09
-1.273e-06
1.82312e-09
-1.32121e-06
1.40965e-09
-1.34981e-06
8.59845e-10
-1.36652e-06
2.47381e-10
-1.37607e-06
-3.85505e-10
-1.3812e-06
-1.00121e-09
-1.38336e-06
-1.5797e-09
-1.38316e-06
-2.11024e-09
-1.38062e-06
-2.55506e-09
-1.37516e-06
-2.88657e-09
-1.36541e-06
-3.03438e-09
-1.34865e-06
-2.91155e-09
-1.32019e-06
-2.43661e-09
-1.27219e-06
-1.61542e-09
-1.19332e-06
-4.73202e-10
-1.06758e-06
-7.99195e-07
3.73983e-10
-8.00624e-07
1.36949e-09
-1.06894e-06
2.03541e-09
-1.19463e-06
2.28739e-09
-1.27323e-06
2.13556e-09
-1.32104e-06
1.71493e-09
-1.34936e-06
1.11945e-09
-1.36591e-06
4.44344e-10
-1.37537e-06
-2.47649e-10
-1.38049e-06
-9.1889e-10
-1.38267e-06
-1.55156e-09
-1.38251e-06
-2.11933e-09
-1.38003e-06
-2.60362e-09
-1.37466e-06
-2.959e-09
-1.36504e-06
-3.12055e-09
-1.34848e-06
-3.01857e-09
-1.32028e-06
-2.5574e-09
-1.27263e-06
-1.72815e-09
-1.19413e-06
-6.49499e-10
-1.06864e-06
-7.9984e-07
4.99453e-10
-8.01097e-07
1.49688e-09
-1.0699e-06
2.22032e-09
-1.19533e-06
2.50512e-09
-1.27348e-06
2.36975e-09
-1.32088e-06
1.92835e-09
-1.3489e-06
1.29468e-09
-1.36525e-06
5.74902e-10
-1.37464e-06
-1.59666e-10
-1.37974e-06
-8.79896e-10
-1.38194e-06
-1.559e-09
-1.38181e-06
-2.17734e-09
-1.3794e-06
-2.70545e-09
-1.37412e-06
-3.09201e-09
-1.36463e-06
-3.27329e-09
-1.34828e-06
-3.17667e-09
-1.32035e-06
-2.70974e-09
-1.27308e-06
-1.82426e-09
-1.19499e-06
-8.01008e-10
-1.06965e-06
-8.00636e-07
7.07195e-10
-8.01779e-07
1.72372e-09
-1.0709e-06
2.47965e-09
-1.19607e-06
2.75719e-09
-1.27374e-06
2.61165e-09
-1.32072e-06
2.14117e-09
-1.34842e-06
1.47124e-09
-1.36457e-06
7.14728e-10
-1.37387e-06
-6.97643e-11
-1.37894e-06
-8.44464e-10
-1.38115e-06
-1.59092e-09
-1.38106e-06
-2.26933e-09
-1.3787e-06
-2.85656e-09
-1.37351e-06
-3.29232e-09
-1.36417e-06
-3.50249e-09
-1.34804e-06
-3.40045e-09
-1.32043e-06
-2.91644e-09
-1.27354e-06
-2.00524e-09
-1.19588e-06
-9.07889e-10
-1.07072e-06
-8.01539e-07
8.33332e-10
-8.02577e-07
1.92646e-09
-1.07196e-06
2.8167e-09
-1.19693e-06
3.1859e-09
-1.27409e-06
3.05243e-09
-1.32056e-06
2.53969e-09
-1.34788e-06
1.80226e-09
-1.36382e-06
9.62888e-10
-1.37301e-06
7.98017e-11
-1.37805e-06
-7.98768e-10
-1.38025e-06
-1.65082e-09
-1.38019e-06
-2.42909e-09
-1.3779e-06
-3.10431e-09
-1.37282e-06
-3.61856e-09
-1.36363e-06
-3.88445e-09
-1.34775e-06
-3.78637e-09
-1.32051e-06
-3.2554e-09
-1.27405e-06
-2.27086e-09
-1.19685e-06
-1.05371e-09
-1.07192e-06
-8.02588e-07
7.80574e-10
-8.03306e-07
2.07546e-09
-1.07322e-06
3.10581e-09
-1.19792e-06
3.59089e-09
-1.27455e-06
3.49213e-09
-1.32043e-06
2.95258e-09
-1.34732e-06
2.15232e-09
-1.36299e-06
1.21448e-09
-1.37205e-06
2.18553e-10
-1.37703e-06
-7.82097e-10
-1.37923e-06
-1.74902e-09
-1.3792e-06
-2.64395e-09
-1.37698e-06
-3.42395e-09
-1.37202e-06
-4.02492e-09
-1.36301e-06
-4.35029e-09
-1.34741e-06
-4.26297e-09
-1.32058e-06
-3.62399e-09
-1.27468e-06
-2.43353e-09
-1.19802e-06
-9.80064e-10
-1.07334e-06
-8.03561e-07
8.53138e-10
-8.04115e-07
2.30888e-09
-1.07464e-06
3.38188e-09
-1.19896e-06
3.86093e-09
-1.275e-06
3.75046e-09
-1.32029e-06
3.18491e-09
-1.34673e-06
2.34575e-09
-1.36212e-06
1.35607e-09
-1.37104e-06
2.98191e-10
-1.37595e-06
-7.68784e-10
-1.37814e-06
-1.80462e-09
-1.37815e-06
-2.77214e-09
-1.37599e-06
-3.62577e-09
-1.37115e-06
-4.28519e-09
-1.36234e-06
-4.6507e-09
-1.34703e-06
-4.57126e-09
-1.32064e-06
-3.86845e-09
-1.27536e-06
-2.56743e-09
-1.19929e-06
-9.17357e-10
-1.07496e-06
-8.0447e-07
1.15774e-09
-8.05249e-07
2.60948e-09
-1.07609e-06
3.70031e-09
-1.20003e-06
4.17744e-09
-1.27547e-06
4.0573e-09
-1.32016e-06
3.46458e-09
-1.34612e-06
2.581e-09
-1.36123e-06
1.54742e-09
-1.36998e-06
4.39287e-10
-1.37482e-06
-6.73555e-10
-1.377e-06
-1.76546e-09
-1.37704e-06
-2.77741e-09
-1.37496e-06
-3.68112e-09
-1.37023e-06
-4.38019e-09
-1.36161e-06
-4.77798e-09
-1.34662e-06
-4.72011e-09
-1.32068e-06
-4.03901e-09
-1.27601e-06
-2.73921e-09
-1.20056e-06
-1.08357e-09
-1.07658e-06
-8.05548e-07
1.34509e-09
-8.06566e-07
2.89649e-09
-1.07762e-06
4.13195e-09
-1.20124e-06
4.70195e-09
-1.27603e-06
4.61288e-09
-1.32005e-06
3.99657e-09
-1.34549e-06
3.03258e-09
-1.36025e-06
1.89983e-09
-1.36883e-06
6.83404e-10
-1.3736e-06
-5.27275e-10
-1.37576e-06
-1.71494e-09
-1.37584e-06
-2.80651e-09
-1.37384e-06
-3.76815e-09
-1.36925e-06
-4.50862e-09
-1.36085e-06
-4.92067e-09
-1.34618e-06
-4.87132e-09
-1.32071e-06
-4.21656e-09
-1.27664e-06
-2.94977e-09
-1.2018e-06
-1.33607e-09
-1.07817e-06
-8.06882e-07
1.23706e-09
-8.07752e-07
3.12506e-09
-1.07947e-06
4.56255e-09
-1.20264e-06
5.20248e-09
-1.27664e-06
5.12064e-09
-1.31994e-06
4.46049e-09
-1.34481e-06
3.43044e-09
-1.3592e-06
2.19443e-09
-1.36758e-06
8.7158e-10
-1.37226e-06
-4.68221e-10
-1.37441e-06
-1.77519e-09
-1.37452e-06
-2.99523e-09
-1.3726e-06
-4.06643e-09
-1.36816e-06
-4.91144e-09
-1.35999e-06
-5.3898e-09
-1.34569e-06
-5.35354e-09
-1.32073e-06
-4.65044e-09
-1.27734e-06
-3.27288e-09
-1.20317e-06
-1.61746e-09
-1.07981e-06
-8.08498e-07
1.30586e-09
-8.09009e-07
3.3804e-09
-1.08152e-06
4.85808e-09
-1.20407e-06
5.49174e-09
-1.27726e-06
5.38671e-09
-1.3198e-06
4.69647e-09
-1.34411e-06
3.64221e-09
-1.35812e-06
2.34783e-09
-1.36627e-06
9.49758e-10
-1.37084e-06
-4.9733e-10
-1.37295e-06
-1.91805e-09
-1.37308e-06
-3.27139e-09
-1.37124e-06
-4.46528e-09
-1.36695e-06
-5.41862e-09
-1.35903e-06
-5.96394e-09
-1.34512e-06
-5.91722e-09
-1.32076e-06
-5.11372e-09
-1.27813e-06
-3.5308e-09
-1.20474e-06
-1.52223e-09
-1.08181e-06
-8.10018e-07
1.62406e-09
-8.10612e-07
3.64198e-09
-1.08352e-06
5.19471e-09
-1.20561e-06
5.89086e-09
-1.27795e-06
5.77916e-09
-1.31968e-06
5.06453e-09
-1.34339e-06
3.94989e-09
-1.35699e-06
2.58194e-09
-1.36489e-06
1.08684e-09
-1.36933e-06
-4.58433e-10
-1.37139e-06
-1.98614e-09
-1.37154e-06
-3.44238e-09
-1.36978e-06
-4.73501e-09
-1.36564e-06
-5.76797e-09
-1.35799e-06
-6.36245e-09
-1.34451e-06
-6.32578e-09
-1.32078e-06
-5.47305e-09
-1.27896e-06
-3.75732e-09
-1.20644e-06
-1.46161e-09
-1.0841e-06
-8.11478e-07
1.74411e-09
-8.12339e-07
3.8905e-09
-1.08565e-06
5.58387e-09
-1.2073e-06
6.37626e-09
-1.27873e-06
6.27923e-09
-1.31958e-06
5.53174e-09
-1.34263e-06
4.34474e-09
-1.3558e-06
2.89727e-09
-1.36343e-06
1.30676e-09
-1.36773e-06
-3.33643e-10
-1.36974e-06
-1.95519e-09
-1.3699e-06
-3.49568e-09
-1.36823e-06
-4.86925e-09
-1.36425e-06
-5.96925e-09
-1.35688e-06
-6.6186e-09
-1.34385e-06
-6.61532e-09
-1.32077e-06
-5.75696e-09
-1.27981e-06
-3.95302e-09
-1.20824e-06
-1.57134e-09
-1.08648e-06
-8.13048e-07
1.81493e-09
-8.14129e-07
4.17933e-09
-1.08799e-06
5.96468e-09
-1.20907e-06
6.80703e-09
-1.27956e-06
6.72604e-09
-1.31949e-06
5.95124e-09
-1.34184e-06
4.71386e-09
-1.35455e-06
3.19682e-09
-1.36191e-06
1.52157e-09
-1.36605e-06
-2.09526e-10
-1.368e-06
-1.92945e-09
-1.36817e-06
-3.55417e-09
-1.36659e-06
-5.00514e-09
-1.36279e-06
-6.15006e-09
-1.35572e-06
-6.82791e-09
-1.34316e-06
-6.8312e-09
-1.32076e-06
-5.95652e-09
-1.28068e-06
-4.12e-09
-1.21008e-06
-1.69011e-09