/*--------------------------------*- C++ -*----------------------------------*\
  =========                 |
  \\      /  F ield         | OpenFOAM: The Open Source CFD Toolbox
   \\    /   O peration     | Website:  https://openfoam.org
    \\  /    A nd           | Version:  6
     \\/     M anipulation  |
\*---------------------------------------------------------------------------*/
FoamFile
{
    version     2.0;
    format      ascii;
    class       volVectorField;
    location    "18";
    object      U;
}
// * * * * * * * * * * * * * * * * * * * * * * * * * * * * * * * * * * * * * //

dimensions      [0 1 -1 0 0 0 0];

internalField   nonuniform List<vector> 
130000
(
(-0.0149569 -0.342643 0)
(-0.0155605 -0.371717 0)
(-0.0161046 -0.399876 0)
(-0.0165965 -0.426979 0)
(-0.0170312 -0.452842 0)
(-0.0174162 -0.477307 0)
(-0.0177571 -0.500227 0)
(-0.0180593 -0.521483 0)
(-0.018328 -0.54098 0)
(-0.0185683 -0.558655 0)
(-0.0187846 -0.574479 0)
(-0.0189808 -0.588453 0)
(-0.0191603 -0.600612 0)
(-0.0193259 -0.61102 0)
(-0.01948 -0.619766 0)
(-0.0196239 -0.626961 0)
(-0.0197589 -0.632735 0)
(-0.0198857 -0.637228 0)
(-0.0200054 -0.640591 0)
(-0.0201178 -0.642977 0)
(-0.0166218 -0.341177 0)
(-0.0170418 -0.370334 0)
(-0.0174556 -0.398619 0)
(-0.0178537 -0.425852 0)
(-0.0182162 -0.451844 0)
(-0.0185428 -0.476427 0)
(-0.0188357 -0.499455 0)
(-0.0190981 -0.520804 0)
(-0.0193337 -0.540382 0)
(-0.0195464 -0.558125 0)
(-0.0197401 -0.574005 0)
(-0.0199181 -0.588025 0)
(-0.0200833 -0.600222 0)
(-0.020238 -0.610661 0)
(-0.0203839 -0.619433 0)
(-0.0205222 -0.62665 0)
(-0.0206536 -0.632443 0)
(-0.0207786 -0.636954 0)
(-0.020898 -0.640333 0)
(-0.0210118 -0.642734 0)
(-0.0190717 -0.340476 0)
(-0.0193822 -0.369612 0)
(-0.0196837 -0.397914 0)
(-0.019977 -0.425186 0)
(-0.0202474 -0.451225 0)
(-0.0204941 -0.475859 0)
(-0.0207185 -0.498935 0)
(-0.0209225 -0.520328 0)
(-0.0211088 -0.539944 0)
(-0.0212802 -0.55772 0)
(-0.0214394 -0.573628 0)
(-0.021589 -0.587671 0)
(-0.0217311 -0.599887 0)
(-0.0218673 -0.610342 0)
(-0.0219988 -0.619127 0)
(-0.0221264 -0.626357 0)
(-0.0222502 -0.632162 0)
(-0.0223703 -0.636686 0)
(-0.0224874 -0.640078 0)
(-0.0226012 -0.642491 0)
(-0.0223691 -0.339997 0)
(-0.0225215 -0.369136 0)
(-0.0226796 -0.397456 0)
(-0.0228416 -0.424755 0)
(-0.0229947 -0.450826 0)
(-0.0231375 -0.475492 0)
(-0.0232708 -0.498599 0)
(-0.0233953 -0.520019 0)
(-0.0235127 -0.539658 0)
(-0.0236248 -0.557452 0)
(-0.0237333 -0.573372 0)
(-0.0238399 -0.587425 0)
(-0.0239459 -0.599648 0)
(-0.0240522 -0.610107 0)
(-0.0241592 -0.618895 0)
(-0.0242671 -0.626128 0)
(-0.0243756 -0.631936 0)
(-0.0244843 -0.636462 0)
(-0.0245933 -0.639858 0)
(-0.0247017 -0.642276 0)
(-0.0261617 -0.339825 0)
(-0.0261793 -0.368952 0)
(-0.0262032 -0.39727 0)
(-0.026236 -0.424572 0)
(-0.0262686 -0.450651 0)
(-0.026301 -0.475325 0)
(-0.0263341 -0.498439 0)
(-0.0263685 -0.519864 0)
(-0.0264056 -0.539505 0)
(-0.0264466 -0.557299 0)
(-0.0264927 -0.573217 0)
(-0.0265449 -0.587265 0)
(-0.0266038 -0.599481 0)
(-0.0266695 -0.609933 0)
(-0.0267421 -0.618715 0)
(-0.0268208 -0.625941 0)
(-0.026905 -0.631744 0)
(-0.0269935 -0.636267 0)
(-0.0270858 -0.639661 0)
(-0.0271806 -0.64208 0)
(-0.0302527 -0.339898 0)
(-0.0301575 -0.36902 0)
(-0.0300654 -0.397331 0)
(-0.0299826 -0.424627 0)
(-0.0299036 -0.450698 0)
(-0.02983 -0.475363 0)
(-0.0297639 -0.498466 0)
(-0.0297067 -0.519879 0)
(-0.02966 -0.539504 0)
(-0.0296247 -0.557281 0)
(-0.0296022 -0.573179 0)
(-0.0295929 -0.587207 0)
(-0.0295971 -0.599403 0)
(-0.0296145 -0.609835 0)
(-0.0296444 -0.618598 0)
(-0.0296858 -0.625808 0)
(-0.0297374 -0.631597 0)
(-0.0297975 -0.636108 0)
(-0.0298652 -0.639494 0)
(-0.0299385 -0.641907 0)
(-0.0345238 -0.34017 0)
(-0.0343324 -0.369299 0)
(-0.0341424 -0.397609 0)
(-0.0339587 -0.424898 0)
(-0.0337798 -0.450957 0)
(-0.033609 -0.475605 0)
(-0.0334496 -0.498686 0)
(-0.033304 -0.520073 0)
(-0.0331741 -0.53967 0)
(-0.0330617 -0.557415 0)
(-0.0329679 -0.573282 0)
(-0.0328933 -0.587276 0)
(-0.032838 -0.599439 0)
(-0.0328013 -0.60984 0)
(-0.0327824 -0.618574 0)
(-0.0327799 -0.625757 0)
(-0.0327922 -0.631522 0)
(-0.0328172 -0.636014 0)
(-0.0328535 -0.639384 0)
(-0.0328988 -0.641785 0)
(-0.0388874 -0.340606 0)
(-0.0386204 -0.369755 0)
(-0.0383478 -0.398071 0)
(-0.0380782 -0.425356 0)
(-0.0378116 -0.451402 0)
(-0.0375532 -0.476029 0)
(-0.037308 -0.499082 0)
(-0.0370792 -0.520436 0)
(-0.0368696 -0.539995 0)
(-0.0366815 -0.557699 0)
(-0.0365165 -0.573523 0)
(-0.0363752 -0.587474 0)
(-0.0362579 -0.599594 0)
(-0.0361639 -0.609953 0)
(-0.0360923 -0.618648 0)
(-0.0360414 -0.625795 0)
(-0.0360094 -0.631529 0)
(-0.035994 -0.635993 0)
(-0.0359934 -0.63934 0)
(-0.0360051 -0.641723 0)
(-0.0432994 -0.34117 0)
(-0.042969 -0.370353 0)
(-0.0426262 -0.398687 0)
(-0.0422825 -0.425975 0)
(-0.0419389 -0.45201 0)
(-0.041602 -0.476617 0)
(-0.0412784 -0.49964 0)
(-0.0409723 -0.520956 0)
(-0.0406874 -0.540472 0)
(-0.0404265 -0.558128 0)
(-0.0401917 -0.573901 0)
(-0.0399841 -0.5878 0)
(-0.0398041 -0.599869 0)
(-0.0396512 -0.610179 0)
(-0.0395243 -0.618826 0)
(-0.0394219 -0.62593 0)
(-0.039342 -0.631625 0)
(-0.039282 -0.636055 0)
(-0.0392402 -0.639372 0)
(-0.0392136 -0.64173 0)
(-0.0477343 -0.341846 0)
(-0.0473491 -0.371076 0)
(-0.0469454 -0.399438 0)
(-0.0465361 -0.426736 0)
(-0.0461235 -0.452766 0)
(-0.0457156 -0.477354 0)
(-0.0453201 -0.500347 0)
(-0.0449421 -0.521624 0)
(-0.0445862 -0.541093 0)
(-0.0442558 -0.558697 0)
(-0.0439535 -0.574414 0)
(-0.0436809 -0.588256 0)
(-0.0434385 -0.600267 0)
(-0.0432261 -0.61052 0)
(-0.0430428 -0.619114 0)
(-0.042887 -0.626168 0)
(-0.0427568 -0.631816 0)
(-0.0426495 -0.636206 0)
(-0.0425632 -0.639487 0)
(-0.042495 -0.641815 0)
(-0.0521778 -0.342618 0)
(-0.0517415 -0.371908 0)
(-0.0512825 -0.400308 0)
(-0.0508142 -0.427624 0)
(-0.0503391 -0.453655 0)
(-0.0498662 -0.478228 0)
(-0.0494044 -0.501193 0)
(-0.0489595 -0.52243 0)
(-0.0485367 -0.541851 0)
(-0.0481399 -0.5594 0)
(-0.0477725 -0.575058 0)
(-0.0474363 -0.588838 0)
(-0.0471323 -0.600787 0)
(-0.0468605 -0.610978 0)
(-0.0466201 -0.619513 0)
(-0.0464097 -0.626511 0)
(-0.0462275 -0.632108 0)
(-0.0460707 -0.636451 0)
(-0.0459374 -0.639692 0)
(-0.0458248 -0.641984 0)
(-0.0566188 -0.343478 0)
(-0.0561376 -0.37284 0)
(-0.0556286 -0.401287 0)
(-0.0551058 -0.428629 0)
(-0.0545727 -0.454666 0)
(-0.0540392 -0.479228 0)
(-0.053515 -0.502168 0)
(-0.0530067 -0.523367 0)
(-0.05252 -0.542739 0)
(-0.0520595 -0.560233 0)
(-0.051629 -0.575829 0)
(-0.0512307 -0.589545 0)
(-0.0508659 -0.601427 0)
(-0.050535 -0.611553 0)
(-0.0502374 -0.620025 0)
(-0.0499717 -0.626963 0)
(-0.0497363 -0.632504 0)
(-0.0495285 -0.636796 0)
(-0.0493465 -0.639991 0)
(-0.0491874 -0.642243 0)
(-0.0610529 -0.344421 0)
(-0.0605297 -0.373864 0)
(-0.0599736 -0.402367 0)
(-0.0594002 -0.429743 0)
(-0.0588128 -0.455793 0)
(-0.0582222 -0.480348 0)
(-0.057639 -0.503265 0)
(-0.0570702 -0.524428 0)
(-0.0565223 -0.543753 0)
(-0.0560002 -0.56119 0)
(-0.0555082 -0.576724 0)
(-0.055049 -0.590373 0)
(-0.0546242 -0.602187 0)
(-0.0542344 -0.612245 0)
(-0.0538793 -0.62065 0)
(-0.0535578 -0.627524 0)
(-0.0532682 -0.633005 0)
(-0.0530082 -0.637242 0)
(-0.0527758 -0.640387 0)
(-0.0525683 -0.642594 0)
(-0.0654842 -0.345441 0)
(-0.06492 -0.374976 0)
(-0.0643191 -0.403544 0)
(-0.0636965 -0.43096 0)
(-0.0630566 -0.457028 0)
(-0.0624109 -0.481582 0)
(-0.0617706 -0.50448 0)
(-0.0611432 -0.52561 0)
(-0.0605355 -0.544889 0)
(-0.0599532 -0.56227 0)
(-0.0594008 -0.577741 0)
(-0.0588815 -0.591323 0)
(-0.0583971 -0.603067 0)
(-0.0579485 -0.613054 0)
(-0.0575357 -0.621389 0)
(-0.0571579 -0.628196 0)
(-0.0568134 -0.633614 0)
(-0.0565 -0.637792 0)
(-0.0562159 -0.640883 0)
(-0.0559585 -0.643042 0)
(-0.0699112 -0.346539 0)
(-0.0693046 -0.376173 0)
(-0.0686603 -0.404814 0)
(-0.06799 -0.432278 0)
(-0.0672992 -0.45837 0)
(-0.0666 -0.482927 0)
(-0.065904 -0.50581 0)
(-0.0652192 -0.526908 0)
(-0.064553 -0.546143 0)
(-0.0639113 -0.56347 0)
(-0.0632991 -0.578878 0)
(-0.0627199 -0.592392 0)
(-0.062176 -0.604065 0)
(-0.0616685 -0.61398 0)
(-0.0611975 -0.622243 0)
(-0.0607625 -0.628981 0)
(-0.0603622 -0.634333 0)
(-0.0599942 -0.638449 0)
(-0.0596571 -0.641483 0)
(-0.0593482 -0.64359 0)
(-0.0743359 -0.34771 0)
(-0.0736878 -0.377454 0)
(-0.0729998 -0.406175 0)
(-0.072282 -0.433693 0)
(-0.0715406 -0.459815 0)
(-0.0707883 -0.484381 0)
(-0.070037 -0.507253 0)
(-0.0692953 -0.528323 0)
(-0.0685708 -0.547516 0)
(-0.0678699 -0.564789 0)
(-0.067198 -0.580135 0)
(-0.0665589 -0.593581 0)
(-0.0659552 -0.605182 0)
(-0.0653883 -0.615024 0)
(-0.0648586 -0.623214 0)
(-0.0643656 -0.629881 0)
(-0.0639084 -0.635164 0)
(-0.0634847 -0.639216 0)
(-0.0630932 -0.64219 0)
(-0.0627314 -0.644242 0)
(-0.0787532 -0.348957 0)
(-0.0780659 -0.378819 0)
(-0.0773355 -0.407627 0)
(-0.0765708 -0.435206 0)
(-0.0757791 -0.461365 0)
(-0.0749736 -0.485944 0)
(-0.0741672 -0.508808 0)
(-0.0733684 -0.529853 0)
(-0.0725854 -0.549006 0)
(-0.071825 -0.566228 0)
(-0.071093 -0.581513 0)
(-0.0703935 -0.594891 0)
(-0.0697294 -0.60642 0)
(-0.0691021 -0.616187 0)
(-0.0685127 -0.624303 0)
(-0.0679606 -0.630896 0)
(-0.0674452 -0.63611 0)
(-0.0669644 -0.640094 0)
(-0.0665169 -0.643006 0)
(-0.0661006 -0.644999 0)
(-0.0831718 -0.350278 0)
(-0.082445 -0.380267 0)
(-0.0816699 -0.409172 0)
(-0.0808572 -0.436818 0)
(-0.0800144 -0.463019 0)
(-0.0791552 -0.487616 0)
(-0.0782929 -0.510478 0)
(-0.0774365 -0.531501 0)
(-0.0765944 -0.550616 0)
(-0.0757738 -0.567787 0)
(-0.0749809 -0.583013 0)
(-0.0742201 -0.596323 0)
(-0.0734945 -0.60778 0)
(-0.072806 -0.617472 0)
(-0.0721555 -0.625513 0)
(-0.0715431 -0.632032 0)
(-0.0709681 -0.637173 0)
(-0.0704286 -0.641088 0)
(-0.0699236 -0.643934 0)
(-0.0694511 -0.645866 0)
(-0.0875897 -0.351678 0)
(-0.0868215 -0.381802 0)
(-0.086002 -0.410811 0)
(-0.0851406 -0.438532 0)
(-0.0842457 -0.464779 0)
(-0.0833319 -0.489399 0)
(-0.0824128 -0.512262 0)
(-0.0814978 -0.533266 0)
(-0.0805955 -0.552347 0)
(-0.0797137 -0.56947 0)
(-0.0788587 -0.584636 0)
(-0.0780353 -0.597879 0)
(-0.0772469 -0.609264 0)
(-0.0764956 -0.618882 0)
(-0.0757826 -0.626846 0)
(-0.0751082 -0.633289 0)
(-0.0744718 -0.638356 0)
(-0.0738719 -0.6422 0)
(-0.0733076 -0.644978 0)
(-0.0727769 -0.646846 0)
(-0.0920125 -0.353155 0)
(-0.0911995 -0.383424 0)
(-0.0903333 -0.412545 0)
(-0.0894213 -0.440347 0)
(-0.0884729 -0.466648 0)
(-0.0875031 -0.491296 0)
(-0.0865259 -0.514163 0)
(-0.0855509 -0.535153 0)
(-0.0845872 -0.554201 0)
(-0.0836426 -0.571277 0)
(-0.0827241 -0.586386 0)
(-0.0818365 -0.599564 0)
(-0.0809836 -0.610877 0)
(-0.0801678 -0.620419 0)
(-0.0793905 -0.628306 0)
(-0.0786522 -0.634672 0)
(-0.0779526 -0.639664 0)
(-0.0772903 -0.643435 0)
(-0.0766645 -0.646143 0)
(-0.0760737 -0.647944 0)
(-0.0964328 -0.354712 0)
(-0.0955772 -0.385137 0)
(-0.0946639 -0.414377 0)
(-0.0937005 -0.442268 0)
(-0.0926971 -0.468628 0)
(-0.0916696 -0.493308 0)
(-0.0906325 -0.516185 0)
(-0.0895956 -0.537163 0)
(-0.0885685 -0.556182 0)
(-0.0875593 -0.573214 0)
(-0.0865751 -0.588267 0)
(-0.0856213 -0.601379 0)
(-0.0847019 -0.612621 0)
(-0.0838194 -0.622088 0)
(-0.0829755 -0.629898 0)
(-0.0821711 -0.636186 0)
(-0.081406 -0.6411 0)
(-0.080679 -0.644796 0)
(-0.0799895 -0.647432 0)
(-0.0793361 -0.649163 0)
(-0.100857 -0.356355 0)
(-0.0999582 -0.386944 0)
(-0.0989954 -0.416312 0)
(-0.0979786 -0.444298 0)
(-0.0969184 -0.470724 0)
(-0.0958311 -0.495441 0)
(-0.0947319 -0.518331 0)
(-0.093631 -0.539302 0)
(-0.0925382 -0.558294 0)
(-0.0914621 -0.575284 0)
(-0.0904099 -0.590282 0)
(-0.0893874 -0.603331 0)
(-0.0883989 -0.614502 0)
(-0.0874472 -0.623893 0)
(-0.0865343 -0.631625 0)
(-0.0856612 -0.637834 0)
(-0.084828 -0.64267 0)
(-0.0840337 -0.646289 0)
(-0.0832778 -0.64885 0)
(-0.0825594 -0.65051 0)
(-0.105286 -0.358084 0)
(-0.104341 -0.388847 0)
(-0.103328 -0.418352 0)
(-0.102256 -0.446442 0)
(-0.101137 -0.472939 0)
(-0.0999873 -0.4977 0)
(-0.0988236 -0.520607 0)
(-0.0976563 -0.541573 0)
(-0.0964952 -0.560541 0)
(-0.0953495 -0.577492 0)
(-0.0942267 -0.592437 0)
(-0.0931328 -0.605423 0)
(-0.0920724 -0.616524 0)
(-0.0910486 -0.625839 0)
(-0.0900638 -0.633492 0)
(-0.0891191 -0.639622 0)
(-0.0882148 -0.644378 0)
(-0.0873504 -0.647918 0)
(-0.0865253 -0.650402 0)
(-0.0857389 -0.651987 0)
(-0.109727 -0.359903 0)
(-0.108731 -0.390851 0)
(-0.107664 -0.420502 0)
(-0.106534 -0.448703 0)
(-0.105353 -0.475278 0)
(-0.104139 -0.500088 0)
(-0.102908 -0.523017 0)
(-0.101671 -0.543982 0)
(-0.100439 -0.56293 0)
(-0.0992202 -0.579844 0)
(-0.0980237 -0.594738 0)
(-0.0968552 -0.607662 0)
(-0.0957197 -0.618693 0)
(-0.0946207 -0.627934 0)
(-0.0935607 -0.635508 0)
(-0.0925411 -0.641556 0)
(-0.0915626 -0.646231 0)
(-0.0906247 -0.649691 0)
(-0.0897273 -0.652096 0)
(-0.0888699 -0.653603 0)
(-0.114171 -0.361813 0)
(-0.113126 -0.392959 0)
(-0.112003 -0.422765 0)
(-0.110813 -0.451085 0)
(-0.109568 -0.477746 0)
(-0.108286 -0.502611 0)
(-0.106985 -0.525568 0)
(-0.105675 -0.546535 0)
(-0.104368 -0.565467 0)
(-0.103073 -0.582346 0)
(-0.1018 -0.597192 0)
(-0.100553 -0.610055 0)
(-0.0993389 -0.621017 0)
(-0.098161 -0.630182 0)
(-0.0970221 -0.637677 0)
(-0.0959241 -0.643643 0)
(-0.0948678 -0.648235 0)
(-0.0938531 -0.651612 0)
(-0.0928798 -0.653935 0)
(-0.091948 -0.655362 0)
(-0.118629 -0.363825 0)
(-0.117532 -0.395178 0)
(-0.11635 -0.42515 0)
(-0.115096 -0.453598 0)
(-0.113783 -0.480352 0)
(-0.11243 -0.505277 0)
(-0.111054 -0.528266 0)
(-0.109668 -0.549241 0)
(-0.108283 -0.568158 0)
(-0.106908 -0.585005 0)
(-0.105553 -0.599805 0)
(-0.104224 -0.612609 0)
(-0.102927 -0.623503 0)
(-0.101666 -0.632593 0)
(-0.100445 -0.640008 0)
(-0.0992642 -0.645891 0)
(-0.0981261 -0.650399 0)
(-0.0970305 -0.653691 0)
(-0.0959775 -0.655929 0)
(-0.0949673 -0.657272 0)
(-0.123095 -0.365939 0)
(-0.121942 -0.397512 0)
(-0.1207 -0.427661 0)
(-0.11938 -0.456245 0)
(-0.117996 -0.483099 0)
(-0.116568 -0.508092 0)
(-0.115115 -0.531119 0)
(-0.113649 -0.552107 0)
(-0.112181 -0.571013 0)
(-0.110722 -0.587831 0)
(-0.109281 -0.602585 0)
(-0.107866 -0.615333 0)
(-0.106482 -0.626159 0)
(-0.105134 -0.635174 0)
(-0.103825 -0.642509 0)
(-0.102558 -0.648308 0)
(-0.101334 -0.65273 0)
(-0.100153 -0.655934 0)
(-0.099016 -0.658086 0)
(-0.0979235 -0.659342 0)
(-0.127579 -0.368161 0)
(-0.126368 -0.399968 0)
(-0.12506 -0.430304 0)
(-0.123669 -0.459035 0)
(-0.12221 -0.485998 0)
(-0.120703 -0.511065 0)
(-0.119168 -0.534136 0)
(-0.117616 -0.55514 0)
(-0.116061 -0.57404 0)
(-0.114514 -0.590832 0)
(-0.112983 -0.605543 0)
(-0.111476 -0.618235 0)
(-0.110001 -0.628995 0)
(-0.108561 -0.637935 0)
(-0.10716 -0.645188 0)
(-0.105801 -0.650903 0)
(-0.104486 -0.655237 0)
(-0.103215 -0.658352 0)
(-0.10199 -0.660413 0)
(-0.10081 -0.661579 0)
(-0.132072 -0.370496 0)
(-0.1308 -0.40255 0)
(-0.129425 -0.433086 0)
(-0.127961 -0.461974 0)
(-0.126423 -0.489054 0)
(-0.124833 -0.514203 0)
(-0.123211 -0.537325 0)
(-0.121571 -0.558351 0)
(-0.119924 -0.577249 0)
(-0.118282 -0.594017 0)
(-0.116656 -0.608689 0)
(-0.115053 -0.621326 0)
(-0.11348 -0.63202 0)
(-0.111943 -0.640885 0)
(-0.110445 -0.648058 0)
(-0.108989 -0.653686 0)
(-0.107578 -0.65793 0)
(-0.106213 -0.660953 0)
(-0.104894 -0.662921 0)
(-0.103622 -0.663993 0)
(-0.136588 -0.372951 0)
(-0.135251 -0.405267 0)
(-0.133803 -0.436015 0)
(-0.13226 -0.465071 0)
(-0.130638 -0.492278 0)
(-0.128961 -0.517517 0)
(-0.127247 -0.540695 0)
(-0.125511 -0.56175 0)
(-0.123767 -0.58065 0)
(-0.122025 -0.597398 0)
(-0.120298 -0.612032 0)
(-0.118593 -0.624617 0)
(-0.116918 -0.635246 0)
(-0.115277 -0.644037 0)
(-0.113676 -0.651127 0)
(-0.112118 -0.656668 0)
(-0.110606 -0.66082 0)
(-0.10914 -0.663748 0)
(-0.107722 -0.66562 0)
(-0.106354 -0.666593 0)
(-0.141115 -0.375532 0)
(-0.13971 -0.408126 0)
(-0.138188 -0.439099 0)
(-0.136563 -0.468335 0)
(-0.134854 -0.495679 0)
(-0.133083 -0.521017 0)
(-0.131273 -0.544259 0)
(-0.129437 -0.565347 0)
(-0.127589 -0.584254 0)
(-0.125743 -0.600987 0)
(-0.123908 -0.615586 0)
(-0.122095 -0.628119 0)
(-0.120311 -0.638684 0)
(-0.118561 -0.647401 0)
(-0.116851 -0.654408 0)
(-0.115185 -0.65986 0)
(-0.113565 -0.663918 0)
(-0.111993 -0.666749 0)
(-0.11047 -0.668521 0)
(-0.109 -0.669392 0)
(-0.145671 -0.378246 0)
(-0.144192 -0.411135 0)
(-0.142588 -0.442348 0)
(-0.140875 -0.471776 0)
(-0.139072 -0.499268 0)
(-0.137203 -0.524713 0)
(-0.135289 -0.548027 0)
(-0.133347 -0.569155 0)
(-0.13139 -0.588074 0)
(-0.129431 -0.604795 0)
(-0.127483 -0.619362 0)
(-0.125555 -0.631846 0)
(-0.123655 -0.642348 0)
(-0.12179 -0.65099 0)
(-0.119964 -0.657914 0)
(-0.118183 -0.663275 0)
(-0.116449 -0.667237 0)
(-0.114764 -0.669968 0)
(-0.113131 -0.671635 0)
(-0.111551 -0.672399 0)
(-0.150241 -0.381102 0)
(-0.148687 -0.414303 0)
(-0.146998 -0.445772 0)
(-0.145193 -0.475404 0)
(-0.143291 -0.503055 0)
(-0.141317 -0.528618 0)
(-0.139295 -0.552011 0)
(-0.137239 -0.573186 0)
(-0.135166 -0.592123 0)
(-0.133089 -0.608837 0)
(-0.13102 -0.623374 0)
(-0.128971 -0.635811 0)
(-0.126948 -0.646251 0)
(-0.124959 -0.654819 0)
(-0.123011 -0.661659 0)
(-0.121107 -0.666928 0)
(-0.119252 -0.670791 0)
(-0.117448 -0.673417 0)
(-0.115697 -0.674976 0)
(-0.114002 -0.675629 0)
(-0.154843 -0.384107 0)
(-0.153207 -0.417639 0)
(-0.151427 -0.44938 0)
(-0.149522 -0.479232 0)
(-0.147514 -0.507054 0)
(-0.145429 -0.532744 0)
(-0.14329 -0.556226 0)
(-0.141114 -0.577454 0)
(-0.138917 -0.596415 0)
(-0.136714 -0.613126 0)
(-0.134517 -0.627638 0)
(-0.132337 -0.64003 0)
(-0.130184 -0.650409 0)
(-0.128065 -0.658902 0)
(-0.125986 -0.665657 0)
(-0.123953 -0.670831 0)
(-0.121969 -0.674593 0)
(-0.120038 -0.677112 0)
(-0.118162 -0.678558 0)
(-0.116345 -0.679093 0)
(-0.159465 -0.387271 0)
(-0.157743 -0.421155 0)
(-0.155868 -0.453185 0)
(-0.153858 -0.483272 0)
(-0.151738 -0.511278 0)
(-0.149535 -0.537106 0)
(-0.147273 -0.560686 0)
(-0.144969 -0.581976 0)
(-0.142641 -0.600966 0)
(-0.140303 -0.617679 0)
(-0.13797 -0.632168 0)
(-0.135652 -0.644518 0)
(-0.13336 -0.654837 0)
(-0.131102 -0.663256 0)
(-0.128884 -0.669924 0)
(-0.126713 -0.675002 0)
(-0.124592 -0.678659 0)
(-0.122527 -0.681066 0)
(-0.120518 -0.682395 0)
(-0.118571 -0.682807 0)
(-0.164124 -0.390605 0)
(-0.162309 -0.424862 0)
(-0.160329 -0.4572 0)
(-0.158208 -0.487537 0)
(-0.155968 -0.51574 0)
(-0.153638 -0.541719 0)
(-0.151244 -0.565406 0)
(-0.148804 -0.586766 0)
(-0.146335 -0.605792 0)
(-0.143855 -0.622511 0)
(-0.141376 -0.636983 0)
(-0.138911 -0.649292 0)
(-0.136471 -0.659552 0)
(-0.134065 -0.667897 0)
(-0.131699 -0.674478 0)
(-0.129381 -0.679457 0)
(-0.127115 -0.683006 0)
(-0.124906 -0.685298 0)
(-0.122756 -0.686504 0)
(-0.12067 -0.686787 0)
(-0.168807 -0.394118 0)
(-0.166894 -0.428771 0)
(-0.164806 -0.461437 0)
(-0.162566 -0.492042 0)
(-0.160199 -0.520458 0)
(-0.157735 -0.546599 0)
(-0.155201 -0.570404 0)
(-0.152616 -0.591842 0)
(-0.149998 -0.610911 0)
(-0.147365 -0.627643 0)
(-0.144732 -0.6421 0)
(-0.14211 -0.654372 0)
(-0.139513 -0.664574 0)
(-0.136949 -0.672845 0)
(-0.134425 -0.679337 0)
(-0.131951 -0.684215 0)
(-0.12953 -0.687652 0)
(-0.127168 -0.689824 0)
(-0.124867 -0.690901 0)
(-0.122634 -0.691049 0)
(-0.173532 -0.397822 0)
(-0.171513 -0.432896 0)
(-0.169307 -0.465912 0)
(-0.16694 -0.496802 0)
(-0.164437 -0.525447 0)
(-0.161829 -0.551764 0)
(-0.159145 -0.575698 0)
(-0.156405 -0.597224 0)
(-0.153628 -0.616343 0)
(-0.150832 -0.633094 0)
(-0.148033 -0.64754 0)
(-0.145245 -0.659777 0)
(-0.142479 -0.669923 0)
(-0.139747 -0.678119 0)
(-0.137055 -0.684521 0)
(-0.134414 -0.689295 0)
(-0.131828 -0.692617 0)
(-0.129302 -0.694663 0)
(-0.126842 -0.695606 0)
(-0.124452 -0.695611 0)
(-0.178287 -0.401731 0)
(-0.176156 -0.437252 0)
(-0.173827 -0.470639 0)
(-0.171325 -0.501836 0)
(-0.168678 -0.530725 0)
(-0.165917 -0.557232 0)
(-0.163074 -0.581308 0)
(-0.160169 -0.602931 0)
(-0.157222 -0.622109 0)
(-0.154253 -0.638884 0)
(-0.151277 -0.653324 0)
(-0.148311 -0.665529 0)
(-0.145365 -0.675621 0)
(-0.142453 -0.683742 0)
(-0.139582 -0.690052 0)
(-0.136762 -0.69472 0)
(-0.134 -0.697922 0)
(-0.131301 -0.699837 0)
(-0.128669 -0.700639 0)
(-0.126113 -0.700493 0)
(-0.18309 -0.405857 0)
(-0.180838 -0.441853 0)
(-0.178375 -0.475636 0)
(-0.175728 -0.507159 0)
(-0.172926 -0.536312 0)
(-0.170002 -0.563025 0)
(-0.166988 -0.587255 0)
(-0.163906 -0.608986 0)
(-0.160778 -0.628231 0)
(-0.157623 -0.645037 0)
(-0.154459 -0.659476 0)
(-0.151302 -0.671652 0)
(-0.148164 -0.68169 0)
(-0.14506 -0.689737 0)
(-0.141997 -0.695953 0)
(-0.138987 -0.700512 0)
(-0.136036 -0.70359 0)
(-0.133152 -0.705368 0)
(-0.130338 -0.706021 0)
(-0.127603 -0.705716 0)
(-0.187929 -0.410214 0)
(-0.18555 -0.446716 0)
(-0.182947 -0.480921 0)
(-0.180147 -0.512794 0)
(-0.177179 -0.542228 0)
(-0.174082 -0.569164 0)
(-0.170886 -0.593561 0)
(-0.167615 -0.615412 0)
(-0.164293 -0.634734 0)
(-0.160939 -0.651578 0)
(-0.157574 -0.666022 0)
(-0.154213 -0.678172 0)
(-0.15087 -0.688158 0)
(-0.14756 -0.69613 0)
(-0.144293 -0.702251 0)
(-0.141079 -0.706696 0)
(-0.137927 -0.709645 0)
(-0.134844 -0.71128 0)
(-0.131836 -0.711776 0)
(-0.128911 -0.711303 0)
(-0.192825 -0.414819 0)
(-0.190308 -0.451858 0)
(-0.187552 -0.486514 0)
(-0.184587 -0.518759 0)
(-0.181442 -0.548497 0)
(-0.178158 -0.575672 0)
(-0.174767 -0.600253 0)
(-0.171295 -0.622235 0)
(-0.167765 -0.641644 0)
(-0.164199 -0.658534 0)
(-0.160617 -0.672988 0)
(-0.157038 -0.685116 0)
(-0.153476 -0.695052 0)
(-0.149946 -0.702949 0)
(-0.146459 -0.708973 0)
(-0.143028 -0.713301 0)
(-0.13966 -0.716115 0)
(-0.136365 -0.717598 0)
(-0.133149 -0.71793 0)
(-0.130021 -0.717277 0)
(-0.197765 -0.419688 0)
(-0.195103 -0.457299 0)
(-0.192187 -0.492434 0)
(-0.189046 -0.525079 0)
(-0.185714 -0.555142 0)
(-0.18223 -0.582576 0)
(-0.178631 -0.607356 0)
(-0.174943 -0.629484 0)
(-0.17119 -0.64899 0)
(-0.167397 -0.665934 0)
(-0.163585 -0.680404 0)
(-0.159772 -0.692515 0)
(-0.155975 -0.702402 0)
(-0.152209 -0.710223 0)
(-0.148487 -0.716148 0)
(-0.144822 -0.720355 0)
(-0.141224 -0.723028 0)
(-0.137702 -0.724353 0)
(-0.134263 -0.72451 0)
(-0.130917 -0.723667 0)
(-0.202772 -0.424839 0)
(-0.199952 -0.463059 0)
(-0.196861 -0.498706 0)
(-0.193531 -0.531778 0)
(-0.189997 -0.56219 0)
(-0.1863 -0.589903 0)
(-0.182477 -0.6149 0)
(-0.178557 -0.637188 0)
(-0.174566 -0.656803 0)
(-0.17053 -0.67381 0)
(-0.166469 -0.688303 0)
(-0.162406 -0.7004 0)
(-0.158356 -0.710241 0)
(-0.154338 -0.717986 0)
(-0.150364 -0.723809 0)
(-0.146449 -0.72789 0)
(-0.142604 -0.730416 0)
(-0.138838 -0.731574 0)
(-0.135161 -0.731546 0)
(-0.131582 -0.730501 0)
(-0.207832 -0.430292 0)
(-0.204845 -0.46916 0)
(-0.20157 -0.505353 0)
(-0.19804 -0.538882 0)
(-0.19429 -0.569669 0)
(-0.190364 -0.597684 0)
(-0.186303 -0.622916 0)
(-0.182135 -0.645379 0)
(-0.177889 -0.665116 0)
(-0.173591 -0.682197 0)
(-0.169265 -0.696719 0)
(-0.164932 -0.708807 0)
(-0.160612 -0.718604 0)
(-0.156323 -0.726273 0)
(-0.152079 -0.731991 0)
(-0.147895 -0.735942 0)
(-0.143785 -0.738314 0)
(-0.139758 -0.739296 0)
(-0.135825 -0.739071 0)
(-0.131997 -0.737811 0)
(-0.212967 -0.436066 0)
(-0.209799 -0.475626 0)
(-0.206325 -0.512402 0)
(-0.202578 -0.546419 0)
(-0.198596 -0.57761 0)
(-0.194426 -0.605951 0)
(-0.190108 -0.631438 0)
(-0.185674 -0.654093 0)
(-0.181154 -0.673966 0)
(-0.176575 -0.691131 0)
(-0.171964 -0.705691 0)
(-0.167343 -0.717775 0)
(-0.162732 -0.72753 0)
(-0.158152 -0.735123 0)
(-0.153617 -0.740733 0)
(-0.149146 -0.744548 0)
(-0.14475 -0.746758 0)
(-0.140444 -0.747554 0)
(-0.136236 -0.74712 0)
(-0.13214 -0.74563 0)
(-0.218167 -0.442185 0)
(-0.214806 -0.482481 0)
(-0.211122 -0.51988 0)
(-0.207145 -0.554422 0)
(-0.202916 -0.586046 0)
(-0.198483 -0.614738 0)
(-0.19389 -0.640502 0)
(-0.189171 -0.663369 0)
(-0.184357 -0.683392 0)
(-0.179477 -0.700652 0)
(-0.174559 -0.715259 0)
(-0.169628 -0.727344 0)
(-0.164705 -0.73706 0)
(-0.159811 -0.744577 0)
(-0.154965 -0.750076 0)
(-0.150184 -0.753749 0)
(-0.145482 -0.755789 0)
(-0.140875 -0.756387 0)
(-0.136372 -0.755732 0)
(-0.131989 -0.753997 0)
(-0.223453 -0.448671 0)
(-0.219885 -0.489754 0)
(-0.215973 -0.527819 0)
(-0.211747 -0.562922 0)
(-0.207252 -0.595012 0)
(-0.202537 -0.624083 0)
(-0.197649 -0.650149 0)
(-0.192624 -0.673247 0)
(-0.187493 -0.693436 0)
(-0.182289 -0.710806 0)
(-0.177042 -0.725468 0)
(-0.171777 -0.737561 0)
(-0.166518 -0.74724 0)
(-0.161288 -0.75468 0)
(-0.156106 -0.760066 0)
(-0.150991 -0.763591 0)
(-0.145961 -0.765451 0)
(-0.14103 -0.76584 0)
(-0.13621 -0.764948 0)
(-0.131519 -0.76295 0)
(-0.228818 -0.455551 0)
(-0.225028 -0.497473 0)
(-0.220874 -0.536251 0)
(-0.216385 -0.571956 0)
(-0.211604 -0.604547 0)
(-0.206588 -0.634028 0)
(-0.201383 -0.660422 0)
(-0.196028 -0.683772 0)
(-0.190557 -0.704146 0)
(-0.185005 -0.721639 0)
(-0.179403 -0.736367 0)
(-0.173779 -0.748474 0)
(-0.168158 -0.75812 0)
(-0.162565 -0.765483 0)
(-0.157022 -0.770751 0)
(-0.151548 -0.774122 0)
(-0.146163 -0.775792 0)
(-0.140884 -0.775959 0)
(-0.135724 -0.774814 0)
(-0.1307 -0.772534 0)
(-0.234282 -0.462853 0)
(-0.230254 -0.505671 0)
(-0.225839 -0.545211 0)
(-0.221064 -0.581562 0)
(-0.215977 -0.614692 0)
(-0.210636 -0.644617 0)
(-0.20509 -0.671367 0)
(-0.199381 -0.694994 0)
(-0.193544 -0.715572 0)
(-0.187617 -0.733203 0)
(-0.181633 -0.748009 0)
(-0.175621 -0.760137 0)
(-0.169611 -0.769754 0)
(-0.163627 -0.77704 0)
(-0.157693 -0.782187 0)
(-0.151833 -0.785395 0)
(-0.146066 -0.786864 0)
(-0.140412 -0.786795 0)
(-0.134884 -0.785379 0)
(-0.129503 -0.782796 0)
(-0.239843 -0.470606 0)
(-0.23556 -0.514381 0)
(-0.230866 -0.554737 0)
(-0.225787 -0.591782 0)
(-0.220372 -0.625493 0)
(-0.214681 -0.655897 0)
(-0.208769 -0.683034 0)
(-0.202678 -0.706964 0)
(-0.196448 -0.727769 0)
(-0.190117 -0.745555 0)
(-0.18372 -0.760451 0)
(-0.177291 -0.77261 0)
(-0.17086 -0.782201 0)
(-0.164454 -0.789409 0)
(-0.158099 -0.794431 0)
(-0.151821 -0.797469 0)
(-0.145642 -0.798725 0)
(-0.139582 -0.798403 0)
(-0.133658 -0.796698 0)
(-0.127892 -0.793789 0)
(-0.245519 -0.478842 0)
(-0.240962 -0.523641 0)
(-0.235968 -0.564872 0)
(-0.23056 -0.602662 0)
(-0.224791 -0.636999 0)
(-0.218726 -0.667922 0)
(-0.212419 -0.69548 0)
(-0.205917 -0.719742 0)
(-0.199262 -0.740796 0)
(-0.192494 -0.758756 0)
(-0.185653 -0.773757 0)
(-0.178773 -0.785956 0)
(-0.171886 -0.795526 0)
(-0.165024 -0.802657 0)
(-0.158215 -0.80755 0)
(-0.151485 -0.810408 0)
(-0.14486 -0.811439 0)
(-0.138363 -0.810847 0)
(-0.132011 -0.80883 0)
(-0.125829 -0.805569 0)
(-0.25131 -0.487596 0)
(-0.24646 -0.53349 0)
(-0.241145 -0.575659 0)
(-0.235386 -0.61425 0)
(-0.229238 -0.649263 0)
(-0.222769 -0.680748 0)
(-0.216037 -0.708764 0)
(-0.209092 -0.73339 0)
(-0.201978 -0.75472 0)
(-0.19474 -0.772876 0)
(-0.187417 -0.787997 0)
(-0.18005 -0.800246 0)
(-0.172671 -0.809801 0)
(-0.165315 -0.816856 0)
(-0.158013 -0.821613 0)
(-0.150795 -0.824283 0)
(-0.143687 -0.825073 0)
(-0.136716 -0.824192 0)
(-0.129901 -0.82184 0)
(-0.123271 -0.8182 0)
(-0.257236 -0.496904 0)
(-0.25207 -0.54397 0)
(-0.246409 -0.587146 0)
(-0.240272 -0.626598 0)
(-0.233716 -0.662341 0)
(-0.226811 -0.694435 0)
(-0.219622 -0.722952 0)
(-0.212199 -0.747976 0)
(-0.204589 -0.769613 0)
(-0.196842 -0.787987 0)
(-0.188999 -0.803247 0)
(-0.181103 -0.815558 0)
(-0.17319 -0.825104 0)
(-0.1653 -0.832083 0)
(-0.157463 -0.836701 0)
(-0.149715 -0.839171 0)
(-0.142084 -0.839706 0)
(-0.1346 -0.838515 0)
(-0.127284 -0.835801 0)
(-0.120167 -0.831751 0)
(-0.263297 -0.506806 0)
(-0.257794 -0.555127 0)
(-0.251764 -0.599383 0)
(-0.245221 -0.639764 0)
(-0.238226 -0.676295 0)
(-0.230854 -0.709052 0)
(-0.223171 -0.738114 0)
(-0.215231 -0.763577 0)
(-0.207086 -0.785552 0)
(-0.198787 -0.804173 0)
(-0.19038 -0.819591 0)
(-0.18191 -0.831978 0)
(-0.17342 -0.841523 0)
(-0.164948 -0.848427 0)
(-0.156531 -0.852901 0)
(-0.148207 -0.85516 0)
(-0.140009 -0.855421 0)
(-0.131967 -0.853896 0)
(-0.124108 -0.850792 0)
(-0.116465 -0.846295 0)
(-0.269515 -0.517343 0)
(-0.263649 -0.567009 0)
(-0.257221 -0.612427 0)
(-0.250243 -0.653808 0)
(-0.242775 -0.691193 0)
(-0.234898 -0.72467 0)
(-0.226681 -0.754329 0)
(-0.218183 -0.780274 0)
(-0.209458 -0.802626 0)
(-0.20056 -0.821522 0)
(-0.191541 -0.837122 0)
(-0.182449 -0.849601 0)
(-0.173329 -0.859154 0)
(-0.164225 -0.865985 0)
(-0.155178 -0.870308 0)
(-0.146228 -0.872344 0)
(-0.137412 -0.872311 0)
(-0.128765 -0.870427 0)
(-0.120315 -0.866899 0)
(-0.112101 -0.861919 0)
(-0.275895 -0.52856 0)
(-0.269641 -0.579668 0)
(-0.262788 -0.626335 0)
(-0.255341 -0.668797 0)
(-0.247365 -0.707108 0)
(-0.238944 -0.741369 0)
(-0.23015 -0.771681 0)
(-0.221047 -0.798159 0)
(-0.211692 -0.820929 0)
(-0.202146 -0.840136 0)
(-0.192461 -0.855943 0)
(-0.182691 -0.868534 0)
(-0.172885 -0.878104 0)
(-0.163093 -0.884863 0)
(-0.153358 -0.889031 0)
(-0.143725 -0.890829 0)
(-0.134236 -0.890482 0)
(-0.12493 -0.888208 0)
(-0.115839 -0.884221 0)
(-0.107003 -0.878712 0)
(-0.282457 -0.540506 0)
(-0.275788 -0.593159 0)
(-0.268477 -0.641171 0)
(-0.260526 -0.684802 0)
(-0.252002 -0.724119 0)
(-0.242992 -0.759236 0)
(-0.233575 -0.790266 0)
(-0.223815 -0.817332 0)
(-0.213777 -0.840567 0)
(-0.203523 -0.860124 0)
(-0.193113 -0.87617 0)
(-0.182604 -0.888892 0)
(-0.17205 -0.898492 0)
(-0.161505 -0.905184 0)
(-0.151019 -0.909189 0)
(-0.140642 -0.910734 0)
(-0.130418 -0.910047 0)
(-0.120393 -0.907351 0)
(-0.110602 -0.902862 0)
(-0.101091 -0.896775 0)
(-0.28921 -0.553232 0)
(-0.282096 -0.607542 0)
(-0.274296 -0.657005 0)
(-0.265804 -0.701901 0)
(-0.256688 -0.742312 0)
(-0.247043 -0.778366 0)
(-0.236949 -0.810186 0)
(-0.226477 -0.837904 0)
(-0.215694 -0.86166 0)
(-0.20467 -0.881611 0)
(-0.193467 -0.89793 0)
(-0.18215 -0.910809 0)
(-0.170778 -0.920453 0)
(-0.15941 -0.92708 0)
(-0.148101 -0.930915 0)
(-0.136908 -0.93219 0)
(-0.125882 -0.931135 0)
(-0.115072 -0.927979 0)
(-0.104518 -0.922941 0)
(-0.0942715 -0.916221 0)
(-0.296176 -0.56679 0)
(-0.288585 -0.622881 0)
(-0.280258 -0.673909 0)
(-0.271183 -0.720179 0)
(-0.261429 -0.761783 0)
(-0.251095 -0.798865 0)
(-0.240266 -0.831557 0)
(-0.229019 -0.859999 0)
(-0.217424 -0.884337 0)
(-0.205557 -0.904734 0)
(-0.193488 -0.921367 0)
(-0.181285 -0.934432 0)
(-0.169015 -0.944136 0)
(-0.156744 -0.950702 0)
(-0.144533 -0.954359 0)
(-0.132447 -0.955343 0)
(-0.12054 -0.953889 0)
(-0.108871 -0.950229 0)
(-0.0974829 -0.944588 0)
(-0.0864349 -0.93717 0)
(-0.303367 -0.58124 0)
(-0.295266 -0.639243 0)
(-0.286373 -0.691965 0)
(-0.27667 -0.739727 0)
(-0.266226 -0.782637 0)
(-0.255145 -0.820848 0)
(-0.243517 -0.854505 0)
(-0.231424 -0.883754 0)
(-0.218942 -0.908746 0)
(-0.206153 -0.929648 0)
(-0.193132 -0.946642 0)
(-0.179957 -0.959925 0)