# vtk DataFile Version 2.0
track0
ASCII
DATASET POLYDATA
POINTS 12105 float
-0.0205 0.001 1e-05
-0.0204922 0.0011 1e-05
-0.0204842 0.00119999 1e-05
-0.0204761 0.00129997 1e-05
-0.0204678 0.00139994 1e-05
-0.0204594 0.0015 1e-05
-0.0204509 0.0016 1e-05
-0.0204422 0.00169999 1e-05
-0.0204334 0.00179995 1e-05
-0.0204243 0.00189991 1e-05
-0.0204151 0.002 1e-05
-0.0204057 0.0021 1e-05
-0.0203961 0.00219998 1e-05
-0.0203863 0.00229994 1e-05
-0.0203763 0.00239988 1e-05
-0.0203661 0.0025 1e-05
-0.0203556 0.0026 1e-05
-0.020345 0.00269998 1e-05
-0.0203341 0.00279993 1e-05
-0.020323 0.00289985 1e-05
-0.0203117 0.003 1e-05
-0.0203064 0.00304539 1e-05
-0.0203011 0.00309078 1e-05
-0.0202958 0.00313616 1e-05
-0.0202903 0.00318153 1e-05
-0.0202854 0.00322272 1e-05
-0.0202787 0.00327818 1e-05
-0.0202719 0.00333362 1e-05
-0.020265 0.00338906 1e-05
-0.0202581 0.00344449 1e-05
-0.020251 0.0035 1e-05
-0.0202382 0.0036 1e-05
-0.0202251 0.00369997 1e-05
-0.0202118 0.0037999 1e-05
-0.0201982 0.0038998 1e-05
-0.0201843 0.004 1e-05
-0.0201702 0.0041 1e-05
-0.0201558 0.00419996 1e-05
-0.0201412 0.00429988 1e-05
-0.0201262 0.00439977 1e-05
-0.020111 0.0045 1e-05
-0.0200955 0.0046 1e-05
-0.0200797 0.00469996 1e-05
-0.0200637 0.00479987 1e-05
-0.0200474 0.00489974 1e-05
-0.0200307 0.005 1e-05
-0.020029 0.00500994 1e-05
-0.0200274 0.00501987 1e-05
-0.0200257 0.00502981 1e-05
-0.020024 0.00503974 1e-05
-0.0200223 0.00504951 1e-05
-0.020007 0.00513961 1e-05
-0.0199914 0.00522967 1e-05
-0.0199756 0.00531969 1e-05
-0.0199595 0.00540967 1e-05
-0.0199432 0.0055 1e-05
-0.0199249 0.0056 1e-05
-0.0199062 0.00569995 1e-05
-0.0198873 0.00579984 1e-05
-0.0198681 0.00589968 1e-05
-0.0198485 0.006 1e-05
-0.0198311 0.00608797 1e-05
-0.0198135 0.0061759 1e-05
-0.0197956 0.00626379 1e-05
-0.0197775 0.00635163 1e-05
-0.0197614 0.00642871 1e-05
-0.0197584 0.00644297 1e-05
-0.0197553 0.00645723 1e-05
-0.0197523 0.00647148 1e-05
-0.0197493 0.00648574 1e-05
-0.0197463 0.0065 1e-05
-0.0197249 0.0066 1e-05
-0.0197033 0.00669994 1e-05
-0.0196814 0.00679981 1e-05
-0.0196592 0.00689962 1e-05
-0.0196365 0.007 1e-05
-0.0196137 0.0071 1e-05
-0.0195905 0.00719993 1e-05
-0.019567 0.00729979 1e-05
-0.0195433 0.00739959 1e-05
-0.0195191 0.0075 1e-05
-0.0195158 0.00751355 1e-05
-0.0195124 0.00752709 1e-05
-0.0195091 0.00754064 1e-05
-0.0195058 0.00755418 1e-05
-0.0195025 0.0075675 1e-05
-0.0194812 0.007654 1e-05
-0.0194596 0.00774044 1e-05
-0.0194379 0.00782683 1e-05
-0.0194159 0.00791316 1e-05
-0.0193935 0.008 1e-05
-0.0193674 0.0081 1e-05
-0.0193411 0.00819992 1e-05
-0.0193144 0.00829976 1e-05
-0.0192875 0.00839952 1e-05
-0.01926 0.0085 1e-05
-0.0192572 0.00851031 1e-05
-0.0192543 0.00852062 1e-05
-0.0192514 0.00853092 1e-05
-0.0192486 0.00854123 1e-05
-0.0192457 0.00855141 1e-05
-0.0192208 0.00864113 1e-05
-0.0191955 0.00873078 1e-05
-0.01917 0.00882036 1e-05
-0.0191443 0.00890986 1e-05
-0.0191181 0.009 1e-05
-0.0190927 0.00908658 1e-05
-0.019067 0.00917308 1e-05
-0.0190412 0.00925952 1e-05
-0.019015 0.00934589 1e-05
-0.018991 0.0094245 1e-05
-0.0189864 0.0094396 1e-05
-0.0189817 0.0094547 1e-05
-0.0189771 0.00946979 1e-05
-0.0189724 0.00948489 1e-05
-0.0189677 0.0095 1e-05
-0.0189366 0.0096 1e-05
-0.0189052 0.0096999 1e-05
-0.0188735 0.0097997 1e-05
-0.0188415 0.0098994 1e-05
-0.0188089 0.01 1e-05
-0.0187948 0.0100429 1e-05
-0.0187806 0.0100858 1e-05
-0.0187664 0.0101287 1e-05
-0.0187521 0.0101716 1e-05
-0.0187384 0.0102127 1e-05
-0.0187191 0.0102702 1e-05
-0.0186997 0.0103276 1e-05
-0.0186802 0.010385 1e-05
-0.0186606 0.0104423 1e-05
-0.0186407 0.0105 1e-05
-0.0186101 0.0105883 1e-05
-0.0185793 0.0106766 1e-05
-0.0185482 0.0107647 1e-05
-0.0185168 0.0108528 1e-05
-0.0184878 0.0109337 1e-05
-0.018483 0.0109469 1e-05
-0.0184782 0.0109602 1e-05
-0.0184733 0.0109735 1e-05
-0.0184685 0.0109867 1e-05
-0.0184637 0.011 1e-05
-0.0184272 0.0111 1e-05
-0.0183904 0.0111999 1e-05
-0.0183533 0.0112996 1e-05
-0.0183158 0.0113993 1e-05
-0.0182775 0.0115 1e-05
-0.0182699 0.01152 1e-05
-0.0182622 0.01154 1e-05
-0.0182545 0.01156 1e-05
-0.0182468 0.0115799 1e-05
-0.0182392 0.0115995 1e-05
-0.0182081 0.0116796 1e-05
-0.0181769 0.0117596 1e-05
-0.0181454 0.0118396 1e-05
-0.0181137 0.0119194 1e-05
-0.0180815 0.012 1e-05
-0.0180637 0.0120441 1e-05
-0.0180459 0.0120882 1e-05
-0.0180279 0.0121322 1e-05
-0.01801 0.0121762 1e-05
-0.0179926 0.0122186 1e-05
-0.0179694 0.0122749 1e-05
-0.0179461 0.0123311 1e-05
-0.0179227 0.0123873 1e-05
-0.0178992 0.0124434 1e-05
-0.0178754 0.0125 1e-05
-0.0178499 0.0125602 1e-05
-0.0178243 0.0126204 1e-05
-0.0177986 0.0126804 1e-05
-0.0177727 0.0127405 1e-05
-0.017748 0.0127976 1e-05
-0.0177304 0.0128381 1e-05
-0.0177127 0.0128785 1e-05
-0.0176949 0.012919 1e-05
-0.0176771 0.0129594 1e-05
-0.0176591 0.013 1e-05
-0.0176284 0.0130693 1e-05
-0.0175975 0.0131385 1e-05
-0.0175664 0.0132076 1e-05
-0.0175351 0.0132767 1e-05
-0.0175053 0.013342 1e-05
-0.0174909 0.0133736 1e-05
-0.0174763 0.0134052 1e-05
-0.0174618 0.0134367 1e-05
-0.0174472 0.0134683 1e-05
-0.0174325 0.0135 1e-05
-0.0173989 0.0135721 1e-05
-0.0173652 0.0136442 1e-05
-0.0173312 0.0137162 1e-05
-0.0172971 0.0137881 1e-05
-0.0172647 0.013856 1e-05
-0.0172508 0.0138848 1e-05
-0.0172369 0.0139136 1e-05
-0.017223 0.0139423 1e-05
-0.0172091 0.0139711 1e-05
-0.0171951 0.014 1e-05
-0.0171612 0.0140694 1e-05
-0.0171272 0.0141388 1e-05
-0.0170931 0.014208 1e-05
-0.0170587 0.0142772 1e-05
-0.0170259 0.0143428 1e-05
-0.0170101 0.0143743 1e-05
-0.0169943 0.0144057 1e-05
-0.0169784 0.0144371 1e-05
-0.0169625 0.0144685 1e-05
-0.0169465 0.0145 1e-05
-0.016915 0.0145617 1e-05
-0.0168834 0.0146234 1e-05
-0.0168516 0.014685 1e-05
-0.0168197 0.0147465 1e-05
-0.0167891 0.0148053 1e-05
-0.0167687 0.0148442 1e-05
-0.0167482 0.0148831 1e-05
-0.0167277 0.014922 1e-05
-0.0167071 0.0149609 1e-05
-0.0166864 0.015 1e-05
-0.0166599 0.0150496 1e-05
-0.0166334 0.0150991 1e-05
-0.0166068 0.0151486 1e-05
-0.0165801 0.015198 1e-05
-0.0165542 0.0152457 1e-05
-0.0165265 0.0152966 1e-05
-0.0164987 0.0153474 1e-05
-0.0164708 0.0153981 1e-05
-0.0164427 0.0154488 1e-05
-0.0164144 0.0155 1e-05
-0.0163957 0.0155334 1e-05
-0.016377 0.0155668 1e-05
-0.0163583 0.0156002 1e-05
-0.0163396 0.0156336 1e-05
-0.0163212 0.0156662 1e-05
-0.0162834 0.015733 1e-05
-0.0162455 0.0157996 1e-05
-0.0162074 0.0158662 1e-05
-0.0161691 0.0159327 1e-05
-0.0161302 0.016 1e-05
-0.0161221 0.0160138 1e-05
-0.0161141 0.0160276 1e-05
-0.0161061 0.0160413 1e-05
-0.016098 0.0160551 1e-05
-0.01609 0.0160687 1e-05
-0.0160442 0.016147 1e-05
-0.0159981 0.0162251 1e-05
-0.0159518 0.0163031 1e-05
-0.0159052 0.016381 1e-05
-0.0158607 0.0164549 1e-05
-0.0158553 0.0164639 1e-05
-0.0158498 0.0164729 1e-05
-0.0158443 0.0164819 1e-05
-0.0158389 0.016491 1e-05
-0.0158334 0.0165 1e-05
-0.0157934 0.0165658 1e-05
-0.0157532 0.0166315 1e-05
-0.0157128 0.0166971 1e-05
-0.0156723 0.0167625 1e-05
-0.0156333 0.0168253 1e-05
-0.0156115 0.0168602 1e-05
-0.0155895 0.0168951 1e-05
-0.0155676 0.01693 1e-05
-0.0155456 0.0169649 1e-05
-0.0155234 0.017 1e-05
-0.0155002 0.0170364 1e-05
-0.015477 0.0170728 1e-05
-0.0154538 0.0171092 1e-05
-0.0154305 0.0171455 1e-05
-0.0154077 0.017181 1e-05
-0.0153666 0.0172448 1e-05
-0.0153253 0.0173085 1e-05
-0.0152838 0.0173721 1e-05
-0.0152422 0.0174356 1e-05
-0.0151998 0.0175 1e-05
-0.0151966 0.0175048 1e-05
-0.0151934 0.0175096 1e-05
-0.0151903 0.0175144 1e-05
-0.0151871 0.0175191 1e-05
-0.0151839 0.0175239 1e-05
-0.0151395 0.0175908 1e-05
-0.015095 0.0176575 1e-05
-0.0150502 0.0177242 1e-05
-0.0150053 0.0177907 1e-05
-0.0149619 0.0178545 1e-05
-0.0149421 0.0178836 1e-05
-0.0149222 0.0179127 1e-05
-0.0149022 0.0179417 1e-05
-0.0148823 0.0179708 1e-05
-0.0148621 0.018 1e-05
-0.014838 0.0180348 1e-05
-0.0148139 0.0180696 1e-05
-0.0147898 0.0181044 1e-05
-0.0147655 0.0181391 1e-05
-0.0147417 0.0181731 1e-05
-0.0146981 0.0182354 1e-05
-0.0146542 0.0182976 1e-05
-0.0146102 0.0183596 1e-05
-0.0145661 0.0184216 1e-05
-0.0145233 0.0184813 1e-05
-0.0145206 0.0184851 1e-05
-0.0145179 0.0184888 1e-05
-0.0145153 0.0184925 1e-05
-0.0145126 0.0184963 1e-05
-0.0145099 0.0185 1e-05
-0.0144692 0.0185564 1e-05
-0.0144285 0.0186127 1e-05
-0.0143876 0.0186689 1e-05
-0.0143465 0.018725 1e-05
-0.0143067 0.0187792 1e-05
-0.0142741 0.0188234 1e-05
-0.0142414 0.0188675 1e-05
-0.0142087 0.0189115 1e-05
-0.0141759 0.0189555 1e-05
-0.0141425 0.019 1e-05
-0.0141324 0.0190135 1e-05
-0.0141222 0.019027 1e-05
-0.014112 0.0190405 1e-05
-0.0141019 0.019054 1e-05
-0.0140917 0.0190674 1e-05
-0.0140491 0.0191238 1e-05
-0.0140063 0.0191801 1e-05
-0.0139635 0.0192363 1e-05
-0.0139204 0.0192925 1e-05
-0.0138786 0.0193468 1e-05
-0.0138549 0.0193775 1e-05
-0.0138311 0.0194081 1e-05
-0.0138073 0.0194386 1e-05
-0.0137835 0.0194692 1e-05
-0.0137595 0.0195 1e-05
-0.013741 0.0195236 1e-05
-0.0137225 0.0195471 1e-05
-0.013704 0.0195707 1e-05
-0.0136854 0.0195942 1e-05
-0.0136671 0.0196174 1e-05
-0.0136251 0.0196704 1e-05
-0.0135831 0.0197234 1e-05
-0.0135409 0.0197762 1e-05
-0.0134986 0.019829 1e-05
-0.0134573 0.0198802 1e-05
-0.013438 0.0199042 1e-05
-0.0134186 0.0199281 1e-05
-0.0133992 0.019952 1e-05
-0.0133797 0.0199759 1e-05
-0.0133601 0.02 1e-05
-0.0133379 0.0200271 1e-05
-0.0133157 0.0200543 1e-05
-0.0132935 0.0200814 1e-05
-0.0132712 0.0201084 1e-05
-0.0132493 0.0201351 1e-05
-0.013208 0.0201851 1e-05
-0.0131666 0.020235 1e-05
-0.0131251 0.0202848 1e-05
-0.0130835 0.0203346 1e-05
-0.0130429 0.020383 1e-05
-0.0130231 0.0204064 1e-05
-0.0130034 0.0204298 1e-05
-0.0129837 0.0204532 1e-05
-0.0129639 0.0204765 1e-05
-0.0129439 0.0205 1e-05
-0.0129228 0.0205249 1e-05
-0.0129016 0.0205497 1e-05
-0.0128804 0.0205745 1e-05
-0.0128591 0.0205993 1e-05
-0.0128381 0.0206238 1e-05
-0.0127975 0.0206711 1e-05
-0.0127568 0.0207183 1e-05
-0.012716 0.0207654 1e-05
-0.0126751 0.0208124 1e-05
-0.012635 0.0208583 1e-05
-0.0126102 0.0208866 1e-05
-0.0125853 0.0209149 1e-05
-0.0125604 0.0209432 1e-05
-0.0125355 0.0209715 1e-05
-0.0125103 0.021 1e-05
-0.012495 0.0210173 1e-05
-0.0124796 0.0210346 1e-05
-0.0124642 0.0210519 1e-05
[...]
POINT_DATA 12105
 FIELD attributes 2
p 1 12105 float
-0.00441084 -0.00483391 -0.00525583 -0.00567749 -0.00609914 -0.00652179 -0.00693985 -0.007357 -0.00777262 -0.00818815 -0.0086034 -0.00900028 -0.00939696 -0.00979362 -0.0101889 -0.0105845 -0.0109772 -0.0113698 -0.0117624 -0.0121549 -0.0125473 -0.0127232 -0.0128988 -0.0130744 -0.0132501 -0.0134092 -0.0136242 -0.013839 -0.0140538 -0.0142686 -0.0144835 -0.0148646 -0.0152445 -0.0156244 -0.0160043 -0.0163853 -0.0167603 -0.017135 -0.0175094 -0.017883 -0.0182578 -0.0186272 -0.0189965 -0.0193658 -0.019735 -0.0201055 -0.0201418 -0.0201781 -0.0202143 -0.0202505 -0.0202861 -0.020615 -0.0209436 -0.0212722 -0.0216007 -0.0219303 -0.0222917 -0.0226528 -0.0230133 -0.0233734 -0.0237352 -0.0240498 -0.0243641 -0.0246783 -0.0249925 -0.0252681 -0.0253192 -0.0253702 -0.0254212 -0.0254722 -0.0255233 -0.0258774 -0.0262311 -0.0265847 -0.0269383 -0.027294 -0.0276456 -0.027997 -0.0283483 -0.0286996 -0.0290527 -0.0290999 -0.0291472 -0.0291944 -0.0292417 -0.0292882 -0.0295901 -0.0298917 -0.0301932 -0.0304947 -0.0307978 -0.0311452 -0.0314923 -0.0318393 -0.0321861 -0.032535 -0.0325708 -0.0326065 -0.0326421 -0.0326777 -0.0327127 -0.0330223 -0.0333319 -0.0336415 -0.0339509 -0.0342627 -0.0345609 -0.0348591 -0.0351571 -0.0354551 -0.0357264 -0.0357787 -0.0358308 -0.0358828 -0.0359348 -0.0359867 -0.0363303 -0.0366733 -0.0370161 -0.0373586 -0.0377042 -0.0378518 -0.0379992 -0.0381465 -0.0382937 -0.0384346 -0.0386316 -0.0388285 -0.0390254 -0.0392222 -0.0394203 -0.039723 -0.0400257 -0.0403281 -0.0406305 -0.0409084 -0.040954 -0.0409995 -0.0410449 -0.0410903 -0.0411356 -0.0414786 -0.0418211 -0.0421631 -0.0425049 -0.0428505 -0.0429194 -0.0429881 -0.0430568 -0.0431255 -0.0431927 -0.0434671 -0.0437414 -0.0440155 -0.0442894 -0.0445662 -0.044718 -0.0448698 -0.0450216 -0.0451733 -0.0453195 -0.0455129 -0.0457059 -0.0458989 -0.0460918 -0.0462859 -0.0464939 -0.0467014 -0.0469089 -0.0471162 -0.0473132 -0.0474522 -0.0475913 -0.0477303 -0.0478693 -0.0480092 -0.0482488 -0.0484884 -0.0487279 -0.0489671 -0.0491935 -0.0493025 -0.0494113 -0.0495201 -0.0496288 -0.0497379 -0.0499883 -0.0502382 -0.0504879 -0.0507373 -0.0509729 -0.0510721 -0.0511714 -0.0512706 -0.0513699 -0.0514696 -0.051711 -0.0519524 -0.0521935 -0.0524343 -0.052663 -0.0527717 -0.0528803 -0.0529888 -0.0530972 -0.0532061 -0.0534216 -0.0536366 -0.0538514 -0.054066 -0.0542708 -0.0544054 -0.05454 -0.0546746 -0.054809 -0.0549444 -0.0551177 -0.055291 -0.0554642 -0.0556372 -0.0558045 -0.0559807 -0.0561568 -0.0563327 -0.0565084 -0.0566857 -0.0568032 -0.0569203 -0.0570374 -0.0571543 -0.0572683 -0.0574998 -0.057731 -0.0579619 -0.0581924 -0.058426 -0.0584742 -0.0585226 -0.0585711 -0.0586195 -0.0586678 -0.0589396 -0.0592108 -0.0594815 -0.0597517 -0.0600079 -0.0600384 -0.0600693 -0.0601002 -0.060131 -0.0601623 -0.0603906 -0.0606186 -0.0608462 -0.0610734 -0.061291 -0.0614107 -0.0615298 -0.0616488 -0.0617677 -0.0618871 -0.0620134 -0.0621396 -0.0622657 -0.0623917 -0.0625148 -0.0627318 -0.0629489 -0.0631655 -0.0633817 -0.0636015 -0.063618 -0.0636346 -0.0636511 -0.0636677 -0.0636842 -0.0639115 -0.0641377 -0.0643634 -0.0645886 -0.0648042 -0.0649006 -0.0649969 -0.0650931 -0.0651892 -0.0652859 -0.0654029 -0.0655204 -0.0656377 -0.0657548 -0.0658701 -0.0660746 -0.0662787 -0.0664824 -0.0666855 -0.0668813 -0.0668926 -0.0669045 -0.0669165 -0.0669286 -0.066941 -0.0671247 -0.0673079 -0.0674907 -0.067673 -0.0678493 -0.0679887 -0.0681271 -0.0682653 -0.0684032 -0.0685419 -0.0685851 -0.0686284 -0.0686716 -0.0687149 -0.068758 -0.0689322 -0.0691068 -0.069281 -0.0694547 -0.0696236 -0.0697143 -0.069805 -0.0698956 -0.069986 -0.0700774 -0.0701496 -0.070221 -0.0702922 -0.0703633 -0.0704327 -0.0705866 -0.0707399 -0.070893 -0.0710458 -0.071194 -0.0712607 -0.0713263 -0.0713918 -0.0714572 -0.071522 -0.0715982 -0.0716744 -0.0717505 -0.0718265 -0.0719016 -0.0720335 -0.072166 -0.0722982 -0.0724305 -0.0725601 -0.0726178 -0.0726756 -0.0727334 -0.072791 -0.0728493 -0.0729137 -0.0729768 -0.0730398 -0.0731027 -0.0731636 -0.0732754 -0.0733865 -0.0734979 -0.0736091 -0.0737172 -0.0737795 -0.0738403 -0.073901 -0.0739614 -0.074021 -0.074059 -0.0740973 -0.0741356 -0.0741738 -0.074212 -0.0743004 -0.0743905 -0.0744808 -0.0745707 -0.0746598 -0.0747271 -0.0747944 -0.0748614 -0.0749281 -0.0749957 -0.0750063 -0.0750154 -0.0750245 -0.0750336 -0.0750412 -0.0751099 -0.0751786 -0.0752469 -0.0753147 -0.0753805 -0.0754366 -0.0754905 -0.075544 -0.075597 -0.075649 -0.0756616 -0.0756739 -0.075686 -0.0756982 -0.07571 -0.0757406 -0.0757728 -0.0758047 -0.0758364 -0.0758693 -0.0758995 -0.0759298 -0.0759613 -0.0759933 -0.0760249 -0.0760386 -0.076054 -0.0760691 -0.0760838 -0.0761004 -0.0761041 -0.0761073 -0.0761106 -0.0761138 -0.0761166 -0.0761265 -0.0761355 -0.0761441 -0.0761521 -0.0761576 -0.076152 -0.0761455 -0.0761386 -0.0761332 -0.0761284 -0.0761201 -0.0761094 -0.0760985 -0.0760875 -0.076074 -0.0760656 -0.0760578 -0.0760499 -0.076042 -0.0760346 -0.0759994 -0.0759695 -0.0759402 -0.0759103 -0.0758828 -0.0758358 -0.0757891 -0.0757419 -0.075695 -0.0756529 -0.0756243 -0.0755981 -0.0755718 -0.0755454 -0.0755213 -0.0754907 -0.0754594 -0.075428 -0.0753965 -0.0753645 -0.0752928 -0.0752216 -0.0751519 -0.0750818 -0.0750095 -0.0749232 -0.0748358 -0.0747479 -0.074661 -0.0745782 -0.0745282 -0.0744753 -0.0744222 -0.0743691 -0.0743126 -0.0742649 -0.0742177 -0.0741706 -0.0741233 -0.0740769 -0.0739559 -0.0738436 -0.0737314 -0.0736188 -0.0735098 -0.0733766 -0.0732439 -0.0731107 -0.0729824 -0.0728577 -0.072737 -0.072619 -0.0725007 -0.0723822 -0.072265 -0.0722388 -0.0722121 -0.0721853 -0.0721586 -0.0721313 -0.0719747 -0.0718179 -0.0716607 -0.071503 -0.0713435 -0.0711661 -0.0709877 -0.070814 -0.0706435 -0.0704735 -0.0702841 -0.0700911 -0.0698977 -0.069704 -0.069514 -0.0694476 -0.0693806 -0.0693135 -0.0692464 -0.0691783 -0.0690373 -0.0688992 -0.0687609 -0.0686225 -0.0684877 -0.0682574 -0.0680349 -0.0678147 -0.0675942 -0.0673755 -0.0671291 -0.0668855 -0.0666414 -0.0664071 -0.0661783 -0.0659194 -0.0656605 -0.0654012 -0.0651414 -0.0648853 -0.064859 -0.0648359 -0.0648131 -0.0647914 -0.0647697 -0.0645228 -0.0642754 -0.0640277 -0.0637798 -0.063533 -0.0632379 -0.0629447 -0.0626584 -0.0623717 -0.0620832 -0.0617711 -0.0614587 -0.0611459 -0.0608434 -0.0605455 -0.0602211 -0.0598927 -0.059564 -0.0592349 -0.0589064 -0.0588673 -0.0588281 -0.058789 -0.0587499 -0.0587107 -0.0584051 -0.0581025 -0.0577996 -0.0574965 -0.0571982 -0.0568252 -0.0564612 -0.056103 -0.0557443 -0.055387 -0.0549961 -0.0546081 -0.0542216 -0.0538496 -0.0534828 -0.0530798 -0.0526755 -0.0522709 -0.0518659 -0.051473 -0.0512852 -0.0511005 -0.0509157 -0.0507309 -0.0505482 -0.0503147 -0.050082 -0.0498492 -0.0496163 -0.0493851 -0.0489401 -0.0485064 -0.0480724 -0.047638 -0.0472022 -0.0467338 -0.0462662 -0.0458143 -0.0453658 -0.0449207 -0.0444403 -0.043956 -0.0434713 -0.0429957 -0.0425299 -0.04203 -0.0415313 -0.0410323 -0.040533 -0.0400399 -0.0399932 -0.0399429 -0.0398919 -0.0398401 -0.0397883 -0.0393243 -0.0388572 -0.0383899 -0.0379224 -0.037454 -0.0368962 -0.0363604 -0.0358282 -0.0352956 -0.034768 -0.0341979 -0.0336242 -0.0330643 -0.0325144 -0.0319635 -0.0313739 -0.0307865 -0.0301988 -0.0296193 -0.0290608 -0.0284591 -0.0278532 -0.0272471 -0.0266406 -0.0260362 -0.0259613 -0.0258888 -0.0258165 -0.025745 -0.0256734 -0.0251219 -0.0245734 -0.0240247 -0.0234758 -0.0229319 -0.0222665 -0.0216248 -0.020984 -0.0203428 -0.0197001 -0.0190143 -0.0183318 -0.0176732 -0.0170198 -0.0163723 -0.0156748 -0.0149728 -0.0142706 -0.0135891 -0.0129149 -0.0121966 -0.0114817 -0.0107666 -0.0100512 -0.0093599 -0.0089698 -0.00857496 -0.00818006 -0.0077851 -0.00738379 -0.00704916 -0.006709 -0.00636879 -0.00602855 -0.0056833 -0.00491154 -0.00415963 -0.00340753 -0.00265524 -0.00190823 -0.00111337 -0.000328319 0.000437526 0.00120355 0.00197316 0.00279492 0.0036139 0.00441862 0.00520249 0.00598157 0.00680883 0.00764171 0.00847474 0.00929391 0.0100948 0.0109514 0.0118055 0.0126598 0.0135141 0.0143504 0.0146786 0.0150118 0.015345 0.0156782 0.0160168 0.0165459 0.0170792 0.0176124 0.0181457 0.0186826 0.0196018 0.0204937 0.0213857 0.0222778 0.0231667 0.0241089 0.0250376 0.0259422 0.0268468 0.0277551 0.0287275 0.0296985 0.0306498 0.031578 0.0325053 0.0334867 0.0344719 0.0354571 0.03642 0.0373667 0.0383739 0.0393804 0.0403868 0.041393 0.0423757 0.0429895 0.0436074 0.0442251 0.0448428 0.0454614 0.0458671 0.0462764 0.0466857 0.0470949 0.0475083 0.0485797 0.0496319 0.0506838 0.0517353 0.052791 0.0539062 0.0549899 0.0560579 0.0571255 0.058203 0.0593411 0.0604781 0.0615769 0.0626627 0.0637564 0.0649088 0.0660637 0.067218 0.0683309 0.0694479 0.070623 0.0717968 0.0729697 0.0741418 0.0752841 0.0763287 0.0773758 0.0784221 0.0794677 0.0804874 0.0806399 0.0807924 0.0809462 0.0811006 0.0812601 0.0824903 0.0837136 0.0849357 0.0861567 0.0874001 0.0886961 0.0899466 0.0911887 0.0924295 0.0937011 0.0950209 0.0963405 0.0976108 0.0988708 0.100163 0.101499 0.102838 0.104175 0.105467 0.106787 0.108147 0.109506 0.110862 0.112217 0.113578 0.114373 0.115172 0.115971 0.116768 0.117546 0.118146 0.11875 0.119352 0.119954 0.120569 0.122028 0.123453 0.124875 0.126294 0.127771 0.129284 0.130784 0.132235 0.133682 0.1352 0.136744 0.138284 0.13982 0.141299 0.142847 0.144427 0.146008 0.147584 0.149156 0.150791 0.151312 0.151832 0.152352 0.152871 0.153382 0.154517 0.155651 0.156783 0.157913 0.15909 0.160845 0.162543 0.16423 0.165913 0.167711 0.169471 0.171225 0.172959 0.174642 0.17644 0.178157 0.179872 0.181581 0.183285 0.185095 0.185442 0.185793 0.186145 0.186496 0.186848 0.188312 0.189774 0.191232 0.192687 0.194234 0.196377 0.198502 0.200574 0.202639 0.204883 0.207252 0.209611 0.211958 0.214294 0.216755 0.217688 0.21861 0.219529 0.220446 0.221335 0.222592 0.223836 0.225076 0.226313 0.227623 0.230883 0.234145 0.2374 0.24065 0.243739 0.24427 0.244808 0.245346 0.245883 0.24644 0.250128 0.253812 0.257486 0.26115 0.264653 0.265468 0.266288 0.267107 0.267926 0.268781 0.272306 0.275827 0.27934 0.282844 0.286248 0.28801 0.289774 0.291536 0.293296 0.295186 0.297806 0.300421 0.303031 0.305637 0.308199 0.311621 0.315032 0.318438 0.321838 0.325691 0.326635 0.327578 0.32852 0.329461 0.330397 0.33486 0.339311 0.343701 0.348076 0.35236 0.353951 0.355535 0.357117 0.358699 0.360374 0.36309 0.365798 0.368502 0.371202 0.373869 0.378007 0.382125 0.386233 0.390323 0.394298 0.39515 0.395986 0.396821 0.397656 0.398511 0.401304 0.404074 0.406838 0.409596 0.412308 0.415257 0.418169 0.421071 0.423974 0.426816 0.427875 0.428899 0.429921 0.430939 0.432054 0.432946 0.433803 0.434659 0.435513 0.436328 0.436991 0.437679 0.438394 0.439102 0.43976 0.439161 0.438513 0.437857 0.437257 0.436707 0.435252 0.433753 0.432249 0.430742 0.428744 0.428438 0.428113 0.427778 0.427443 0.427069 0.42388 0.420701 0.41752 0.41434 0.411135 0.40675 0.402448 0.398244 0.394042 0.38982 0.384575 0.3793 0.374164 0.369098 0.364016 0.3581 0.35216 0.346229 0.340461 0.33468 0.328282 0.321866 0.315452 0.309096 0.302761 0.296078 0.289379 0.282684 0.275979 0.269232 0.26247 0.255697 0.248927 0.242132 0.235107 0.22852 0.221928 0.215338 0.208749 0.20163 0.195537 0.189445 0.183353 0.177261 0.170346 0.165092 0.159846 0.1546 0.149352 0.142967 0.138649 0.134327 0.130002 0.125675 0.11997 0.116221 0.112436 0.108646 0.104852 0.0996534 0.0954932 0.0912271 0.0869529 0.0826709 0.0774083 0.070447 0.063241 0.0560236 0.0488126 0.0417858 0.0262139 0.0101188 -0.00598627 -0.0216955 -0.0358743 -0.0684782 -0.101877 -0.135279 -0.167315 -0.197326 -0.249329 -0.302046 -0.354765 -0.405328 -0.454442 -0.516253 -0.578375 -0.640516 -0.701147 -0.761218 -0.828445 -0.896094 -0.963774 -1.03247 -1.10197 -1.18407 -1.26673 -1.34941 -1.43581 -1.52438 -1.59032 -1.65479 -1.71926 -1.78772 -1.85716 -1.88535 -1.91314 -1.94095 -1.97108 -2.0028 -2.01294 -2.02274 -2.03255 -2.04305 -2.05389