# vtk DataFile Version 2.0
track0
ASCII
DATASET POLYDATA
POINTS 12105 float
-0.0205 0.001 1e-05
-0.0204922 0.0011 1e-05
-0.0204842 0.00119999 1e-05
-0.0204761 0.00129997 1e-05
-0.0204678 0.00139994 1e-05
-0.0204594 0.0015 1e-05
-0.0204509 0.0016 1e-05
-0.0204422 0.00169999 1e-05
-0.0204334 0.00179995 1e-05
-0.0204243 0.00189991 1e-05
-0.0204151 0.002 1e-05
-0.0204057 0.0021 1e-05
-0.0203961 0.00219998 1e-05
-0.0203863 0.00229994 1e-05
-0.0203763 0.00239988 1e-05
-0.0203661 0.0025 1e-05
-0.0203556 0.0026 1e-05
-0.020345 0.00269998 1e-05
-0.0203341 0.00279993 1e-05
-0.020323 0.00289985 1e-05
-0.0203117 0.003 1e-05
-0.0203064 0.00304539 1e-05
-0.0203011 0.00309078 1e-05
-0.0202958 0.00313616 1e-05
-0.0202903 0.00318153 1e-05
-0.0202854 0.00322272 1e-05
-0.0202787 0.00327818 1e-05
-0.0202719 0.00333362 1e-05
-0.020265 0.00338906 1e-05
-0.0202581 0.00344449 1e-05
-0.020251 0.0035 1e-05
-0.0202382 0.0036 1e-05
-0.0202251 0.00369997 1e-05
-0.0202118 0.0037999 1e-05
-0.0201982 0.0038998 1e-05
-0.0201843 0.004 1e-05
-0.0201702 0.0041 1e-05
-0.0201558 0.00419996 1e-05
-0.0201412 0.00429988 1e-05
-0.0201262 0.00439977 1e-05
-0.020111 0.0045 1e-05
-0.0200955 0.0046 1e-05
-0.0200797 0.00469996 1e-05
-0.0200637 0.00479987 1e-05
-0.0200474 0.00489974 1e-05
-0.0200307 0.005 1e-05
-0.020029 0.00500994 1e-05
-0.0200274 0.00501987 1e-05
-0.0200257 0.00502981 1e-05
-0.020024 0.00503974 1e-05
-0.0200223 0.00504951 1e-05
-0.020007 0.00513961 1e-05
-0.0199914 0.00522967 1e-05
-0.0199756 0.00531969 1e-05
-0.0199595 0.00540967 1e-05
-0.0199432 0.0055 1e-05
-0.0199249 0.0056 1e-05
-0.0199062 0.00569995 1e-05
-0.0198873 0.00579984 1e-05
-0.0198681 0.00589968 1e-05
-0.0198485 0.006 1e-05
-0.0198311 0.00608797 1e-05
-0.0198135 0.0061759 1e-05
-0.0197956 0.00626379 1e-05
-0.0197775 0.00635163 1e-05
-0.0197614 0.00642871 1e-05
-0.0197584 0.00644297 1e-05
-0.0197553 0.00645723 1e-05
-0.0197523 0.00647148 1e-05
-0.0197493 0.00648574 1e-05
-0.0197463 0.0065 1e-05
-0.0197249 0.0066 1e-05
-0.0197033 0.00669994 1e-05
-0.0196814 0.00679981 1e-05
-0.0196592 0.00689962 1e-05
-0.0196365 0.007 1e-05
-0.0196137 0.0071 1e-05
-0.0195905 0.00719993 1e-05
-0.019567 0.00729979 1e-05
-0.0195433 0.00739959 1e-05
-0.0195191 0.0075 1e-05
-0.0195158 0.00751355 1e-05
-0.0195124 0.00752709 1e-05
-0.0195091 0.00754064 1e-05
-0.0195058 0.00755418 1e-05
-0.0195025 0.0075675 1e-05
-0.0194812 0.007654 1e-05
-0.0194596 0.00774044 1e-05
-0.0194379 0.00782683 1e-05
-0.0194159 0.00791316 1e-05
-0.0193935 0.008 1e-05
-0.0193674 0.0081 1e-05
-0.0193411 0.00819992 1e-05
-0.0193144 0.00829976 1e-05
-0.0192875 0.00839952 1e-05
-0.01926 0.0085 1e-05
-0.0192572 0.00851031 1e-05
-0.0192543 0.00852062 1e-05
-0.0192514 0.00853092 1e-05
-0.0192486 0.00854123 1e-05
-0.0192457 0.00855141 1e-05
-0.0192208 0.00864113 1e-05
-0.0191955 0.00873078 1e-05
-0.01917 0.00882036 1e-05
-0.0191443 0.00890986 1e-05
-0.0191181 0.009 1e-05
-0.0190927 0.00908658 1e-05
-0.019067 0.00917308 1e-05
-0.0190412 0.00925952 1e-05
-0.019015 0.00934589 1e-05
-0.018991 0.0094245 1e-05
-0.0189864 0.0094396 1e-05
-0.0189817 0.0094547 1e-05
-0.0189771 0.00946979 1e-05
-0.0189724 0.00948489 1e-05
-0.0189677 0.0095 1e-05
-0.0189366 0.0096 1e-05
-0.0189052 0.0096999 1e-05
-0.0188735 0.0097997 1e-05
-0.0188415 0.0098994 1e-05
-0.0188089 0.01 1e-05
-0.0187948 0.0100429 1e-05
-0.0187806 0.0100858 1e-05
-0.0187664 0.0101287 1e-05
-0.0187521 0.0101716 1e-05
-0.0187384 0.0102127 1e-05
-0.0187191 0.0102702 1e-05
-0.0186997 0.0103276 1e-05
-0.0186802 0.010385 1e-05
-0.0186606 0.0104423 1e-05
-0.0186407 0.0105 1e-05
-0.0186101 0.0105883 1e-05
-0.0185793 0.0106766 1e-05
-0.0185482 0.0107647 1e-05
-0.0185168 0.0108528 1e-05
-0.0184878 0.0109337 1e-05
-0.018483 0.0109469 1e-05
-0.0184782 0.0109602 1e-05
-0.0184733 0.0109735 1e-05
-0.0184685 0.0109867 1e-05
-0.0184637 0.011 1e-05
-0.0184272 0.0111 1e-05
-0.0183904 0.0111999 1e-05
-0.0183533 0.0112996 1e-05
-0.0183158 0.0113993 1e-05
-0.0182775 0.0115 1e-05
-0.0182699 0.01152 1e-05
-0.0182622 0.01154 1e-05
-0.0182545 0.01156 1e-05
-0.0182468 0.0115799 1e-05
-0.0182392 0.0115995 1e-05
-0.0182081 0.0116796 1e-05
-0.0181769 0.0117596 1e-05
-0.0181454 0.0118396 1e-05
-0.0181137 0.0119194 1e-05
-0.0180815 0.012 1e-05
-0.0180637 0.0120441 1e-05
-0.0180459 0.0120882 1e-05
-0.0180279 0.0121322 1e-05
-0.01801 0.0121762 1e-05
-0.0179926 0.0122186 1e-05
-0.0179694 0.0122749 1e-05
-0.0179461 0.0123311 1e-05
-0.0179227 0.0123873 1e-05
-0.0178992 0.0124434 1e-05
-0.0178754 0.0125 1e-05
-0.0178499 0.0125602 1e-05
-0.0178243 0.0126204 1e-05
-0.0177986 0.0126804 1e-05
-0.0177727 0.0127405 1e-05
-0.017748 0.0127976 1e-05
-0.0177304 0.0128381 1e-05
-0.0177127 0.0128785 1e-05
-0.0176949 0.012919 1e-05
-0.0176771 0.0129594 1e-05
-0.0176591 0.013 1e-05
-0.0176284 0.0130693 1e-05
-0.0175975 0.0131385 1e-05
-0.0175664 0.0132076 1e-05
-0.0175351 0.0132767 1e-05
-0.0175053 0.013342 1e-05
-0.0174909 0.0133736 1e-05
-0.0174763 0.0134052 1e-05
-0.0174618 0.0134367 1e-05
-0.0174472 0.0134683 1e-05
-0.0174325 0.0135 1e-05
-0.0173989 0.0135721 1e-05
-0.0173652 0.0136442 1e-05
-0.0173312 0.0137162 1e-05
-0.0172971 0.0137881 1e-05
-0.0172647 0.013856 1e-05
-0.0172508 0.0138848 1e-05
-0.0172369 0.0139136 1e-05
-0.017223 0.0139423 1e-05
-0.0172091 0.0139711 1e-05
-0.0171951 0.014 1e-05
-0.0171612 0.0140694 1e-05
-0.0171272 0.0141388 1e-05
-0.0170931 0.014208 1e-05
-0.0170587 0.0142772 1e-05
-0.0170259 0.0143428 1e-05
-0.0170101 0.0143743 1e-05
-0.0169943 0.0144057 1e-05
-0.0169784 0.0144371 1e-05
-0.0169625 0.0144685 1e-05
-0.0169465 0.0145 1e-05
-0.016915 0.0145617 1e-05
-0.0168834 0.0146234 1e-05
-0.0168516 0.014685 1e-05
-0.0168197 0.0147465 1e-05
-0.0167891 0.0148053 1e-05
-0.0167687 0.0148442 1e-05
-0.0167482 0.0148831 1e-05
-0.0167277 0.014922 1e-05
-0.0167071 0.0149609 1e-05
-0.0166864 0.015 1e-05
-0.0166599 0.0150496 1e-05
-0.0166334 0.0150991 1e-05
-0.0166068 0.0151486 1e-05
-0.0165801 0.015198 1e-05
-0.0165542 0.0152457 1e-05
-0.0165265 0.0152966 1e-05
-0.0164987 0.0153474 1e-05
-0.0164708 0.0153981 1e-05
-0.0164427 0.0154488 1e-05
-0.0164144 0.0155 1e-05
-0.0163957 0.0155334 1e-05
-0.016377 0.0155668 1e-05
-0.0163583 0.0156002 1e-05
-0.0163396 0.0156336 1e-05
-0.0163212 0.0156662 1e-05
-0.0162834 0.015733 1e-05
-0.0162455 0.0157996 1e-05
-0.0162074 0.0158662 1e-05
-0.0161691 0.0159327 1e-05
-0.0161302 0.016 1e-05
-0.0161221 0.0160138 1e-05
-0.0161141 0.0160276 1e-05
-0.0161061 0.0160413 1e-05
-0.016098 0.0160551 1e-05
-0.01609 0.0160687 1e-05
-0.0160442 0.016147 1e-05
-0.0159981 0.0162251 1e-05
-0.0159518 0.0163031 1e-05
-0.0159052 0.016381 1e-05
-0.0158607 0.0164549 1e-05
-0.0158553 0.0164639 1e-05
-0.0158498 0.0164729 1e-05
-0.0158443 0.0164819 1e-05
-0.0158389 0.016491 1e-05
-0.0158334 0.0165 1e-05
-0.0157934 0.0165658 1e-05
-0.0157532 0.0166315 1e-05
-0.0157128 0.0166971 1e-05
-0.0156723 0.0167625 1e-05
-0.0156333 0.0168253 1e-05
-0.0156115 0.0168602 1e-05
-0.0155895 0.0168951 1e-05
-0.0155676 0.01693 1e-05
-0.0155456 0.0169649 1e-05
-0.0155234 0.017 1e-05
-0.0155002 0.0170364 1e-05
-0.015477 0.0170728 1e-05
-0.0154538 0.0171092 1e-05
-0.0154305 0.0171455 1e-05
-0.0154077 0.017181 1e-05
-0.0153666 0.0172448 1e-05
-0.0153253 0.0173085 1e-05
-0.0152838 0.0173721 1e-05
-0.0152422 0.0174356 1e-05
-0.0151998 0.0175 1e-05
-0.0151966 0.0175048 1e-05
-0.0151934 0.0175096 1e-05
-0.0151903 0.0175144 1e-05
-0.0151871 0.0175191 1e-05
-0.0151839 0.0175239 1e-05
-0.0151395 0.0175908 1e-05
-0.015095 0.0176575 1e-05
-0.0150502 0.0177242 1e-05
-0.0150053 0.0177907 1e-05
-0.0149619 0.0178545 1e-05
-0.0149421 0.0178836 1e-05
-0.0149222 0.0179127 1e-05
-0.0149022 0.0179417 1e-05
-0.0148823 0.0179708 1e-05
-0.0148621 0.018 1e-05
-0.014838 0.0180348 1e-05
-0.0148139 0.0180696 1e-05
-0.0147898 0.0181044 1e-05
-0.0147655 0.0181391 1e-05
-0.0147417 0.0181731 1e-05
-0.0146981 0.0182354 1e-05
-0.0146542 0.0182976 1e-05
-0.0146102 0.0183596 1e-05
-0.0145661 0.0184216 1e-05
-0.0145233 0.0184813 1e-05
-0.0145206 0.0184851 1e-05
-0.0145179 0.0184888 1e-05
-0.0145153 0.0184925 1e-05
-0.0145126 0.0184963 1e-05
-0.0145099 0.0185 1e-05
-0.0144692 0.0185564 1e-05
-0.0144285 0.0186127 1e-05
-0.0143876 0.0186689 1e-05
-0.0143465 0.018725 1e-05
-0.0143067 0.0187792 1e-05
-0.0142741 0.0188234 1e-05
-0.0142414 0.0188675 1e-05
-0.0142087 0.0189115 1e-05
-0.0141759 0.0189555 1e-05
-0.0141425 0.019 1e-05
-0.0141324 0.0190135 1e-05
-0.0141222 0.019027 1e-05
-0.014112 0.0190405 1e-05
-0.0141019 0.019054 1e-05
-0.0140917 0.0190674 1e-05
-0.0140491 0.0191238 1e-05
-0.0140063 0.0191801 1e-05
-0.0139635 0.0192363 1e-05
-0.0139204 0.0192925 1e-05
-0.0138786 0.0193468 1e-05
-0.0138549 0.0193775 1e-05
-0.0138311 0.0194081 1e-05
-0.0138073 0.0194386 1e-05
-0.0137835 0.0194692 1e-05
-0.0137595 0.0195 1e-05
-0.013741 0.0195236 1e-05
-0.0137225 0.0195471 1e-05
-0.013704 0.0195707 1e-05
-0.0136854 0.0195942 1e-05
-0.0136671 0.0196174 1e-05
-0.0136251 0.0196704 1e-05
-0.0135831 0.0197234 1e-05
-0.0135409 0.0197762 1e-05
-0.0134986 0.019829 1e-05
-0.0134573 0.0198802 1e-05
-0.013438 0.0199042 1e-05
-0.0134186 0.0199281 1e-05
-0.0133992 0.019952 1e-05
-0.0133797 0.0199759 1e-05
-0.0133601 0.02 1e-05
-0.0133379 0.0200271 1e-05
-0.0133157 0.0200543 1e-05
-0.0132935 0.0200814 1e-05
-0.0132712 0.0201084 1e-05
-0.0132493 0.0201351 1e-05
-0.013208 0.0201851 1e-05
-0.0131666 0.020235 1e-05
-0.0131251 0.0202848 1e-05
-0.0130835 0.0203346 1e-05
-0.0130429 0.020383 1e-05
-0.0130231 0.0204064 1e-05
-0.0130034 0.0204298 1e-05
-0.0129837 0.0204532 1e-05
-0.0129639 0.0204765 1e-05
-0.0129439 0.0205 1e-05
-0.0129228 0.0205249 1e-05
-0.0129016 0.0205497 1e-05
-0.0128804 0.0205745 1e-05
-0.0128591 0.0205993 1e-05
-0.0128381 0.0206238 1e-05
-0.0127975 0.0206711 1e-05
-0.0127568 0.0207183 1e-05
-0.012716 0.0207654 1e-05
-0.0126751 0.0208124 1e-05
-0.012635 0.0208583 1e-05
-0.0126102 0.0208866 1e-05
-0.0125853 0.0209149 1e-05
-0.0125604 0.0209432 1e-05
-0.0125355 0.0209715 1e-05
-0.0125103 0.021 1e-05
-0.012495 0.0210173 1e-05
-0.0124796 0.0210346 1e-05
-0.0124642 0.0210519 1e-05
[...]
POINT_DATA 12105
 FIELD attributes 1
U 3 12105 float
-0.023218 	-0.296026 	0 -0.0236152 	-0.296006 	0 -0.0240132 	-0.295984 	0 -0.0244106 	-0.295962 	0 -0.0248081 	-0.295938 	0 -0.0252091 	-0.295913 	0 -0.0257227 	-0.295884 	0 -0.0262388 	-0.295853 	0 -0.0267515 	-0.295819 	0 -0.0272639 	-0.295785 	0 -0.0277796 	-0.29575 	0 -0.0283832 	-0.295707 	0 -0.0289887 	-0.295663 	0 -0.0295941 	-0.295617 	0 -0.0301959 	-0.29557 	0 -0.0308004 	-0.29552 	0 -0.0314719 	-0.295462 	0 -0.0321446 	-0.295403 	0 -0.0328172 	-0.295342 	0 -0.0334897 	-0.295279 	0 -0.0341626 	-0.295215 	0 -0.0344895 	-0.295182 	0 -0.0348174 	-0.295148 	0 -0.0351452 	-0.295114 	0 -0.0354731 	-0.295079 	0 -0.0357718 	-0.295048 	0 -0.0361718 	-0.295005 	0 -0.036573 	-0.294962 	0 -0.0369741 	-0.294919 	0 -0.0373751 	-0.294875 	0 -0.0377778 	-0.29483 	0 -0.0385394 	-0.294741 	0 -0.0392984 	-0.29465 	0 -0.0400572 	-0.294558 	0 -0.0408158 	-0.294463 	0 -0.0415776 	-0.294367 	0 -0.0423653 	-0.294263 	0 -0.0431535 	-0.294157 	0 -0.0439401 	-0.294048 	0 -0.0447243 	-0.293938 	0 -0.0455119 	-0.293825 	0 -0.0463181 	-0.293705 	0 -0.0471245 	-0.293582 	0 -0.0479306 	-0.293458 	0 -0.0487365 	-0.293333 	0 -0.0495453 	-0.293205 	0 -0.0496265 	-0.293191 	0 -0.049708 	-0.293178 	0 -0.0497894 	-0.293164 	0 -0.049871 	-0.29315 	0 -0.0499514 	-0.293137 	0 -0.0506911 	-0.293013 	0 -0.0514309 	-0.292887 	0 -0.0521705 	-0.292761 	0 -0.0529099 	-0.292633 	0 -0.0536526 	-0.292503 	0 -0.054487 	-0.292351 	0 -0.0553214 	-0.292198 	0 -0.0561536 	-0.292042 	0 -0.0569846 	-0.291884 	0 -0.0578199 	-0.291724 	0 -0.0585615 	-0.291577 	0 -0.0593031 	-0.291429 	0 -0.0600443 	-0.291279 	0 -0.0607854 	-0.291128 	0 -0.061436 	-0.290994 	0 -0.0615563 	-0.290969 	0 -0.0616768 	-0.290944 	0 -0.0617973 	-0.290919 	0 -0.0619177 	-0.290894 	0 -0.0620385 	-0.290869 	0 -0.0628916 	-0.290687 	0 -0.0637432 	-0.290502 	0 -0.0645945 	-0.290316 	0 -0.0654455 	-0.290128 	0 -0.0663018 	-0.289937 	0 -0.0671632 	-0.28974 	0 -0.0680243 	-0.289541 	0 -0.0688851 	-0.28934 	0 -0.0697455 	-0.289138 	0 -0.0706103 	-0.288932 	0 -0.0707278 	-0.288904 	0 -0.0708454 	-0.288875 	0 -0.0709631 	-0.288846 	0 -0.0710807 	-0.288817 	0 -0.0711965 	-0.288788 	0 -0.0719489 	-0.288604 	0 -0.0727012 	-0.288417 	0 -0.0734532 	-0.28823 	0 -0.0742048 	-0.288041 	0 -0.0749613 	-0.28785 	0 -0.0758402 	-0.287624 	0 -0.0767188 	-0.287395 	0 -0.0775969 	-0.287165 	0 -0.0784746 	-0.286934 	0 -0.079358 	-0.286698 	0 -0.0794492 	-0.286673 	0 -0.0795406 	-0.286648 	0 -0.0796319 	-0.286623 	0 -0.0797233 	-0.286598 	0 -0.0798137 	-0.286574 	0 -0.0806102 	-0.286356 	0 -0.0814064 	-0.286137 	0 -0.0822023 	-0.285917 	0 -0.0829978 	-0.285695 	0 -0.0837994 	-0.28547 	0 -0.084576 	-0.285249 	0 -0.0853525 	-0.285027 	0 -0.0861286 	-0.284803 	0 -0.0869042 	-0.284578 	0 -0.0876106 	-0.284372 	0 -0.0877464 	-0.284332 	0 -0.0878823 	-0.284292 	0 -0.0880182 	-0.284253 	0 -0.088154 	-0.284213 	0 -0.0882902 	-0.284173 	0 -0.0891984 	-0.283904 	0 -0.090105 	-0.283632 	0 -0.0910108 	-0.283358 	0 -0.091916 	-0.283083 	0 -0.09283 	-0.282803 	0 -0.0932235 	-0.282682 	0 -0.093617 	-0.282559 	0 -0.0940104 	-0.282437 	0 -0.0944038 	-0.282314 	0 -0.0947808 	-0.282196 	0 -0.0953089 	-0.28203 	0 -0.0958368 	-0.281865 	0 -0.0963646 	-0.281698 	0 -0.0968922 	-0.281531 	0 -0.0974231 	-0.281362 	0 -0.0982432 	-0.2811 	0 -0.099063 	-0.280836 	0 -0.0998822 	-0.280571 	0 -0.100701 	-0.280304 	0 -0.101453 	-0.280058 	0 -0.101577 	-0.280017 	0 -0.1017 	-0.279977 	0 -0.101824 	-0.279936 	0 -0.101948 	-0.279896 	0 -0.102072 	-0.279855 	0 -0.103012 	-0.279544 	0 -0.103952 	-0.279232 	0 -0.10489 	-0.278917 	0 -0.105828 	-0.278601 	0 -0.106776 	-0.278279 	0 -0.106966 	-0.278214 	0 -0.107156 	-0.278149 	0 -0.107346 	-0.278084 	0 -0.107536 	-0.278019 	0 -0.107723 	-0.277954 	0 -0.108485 	-0.277693 	0 -0.109248 	-0.277431 	0 -0.11001 	-0.277167 	0 -0.110771 	-0.276903 	0 -0.11154 	-0.276634 	0 -0.111965 	-0.276485 	0 -0.112389 	-0.276336 	0 -0.112814 	-0.276186 	0 -0.113238 	-0.276036 	0 -0.113647 	-0.275891 	0 -0.11419 	-0.275699 	0 -0.114734 	-0.275506 	0 -0.115277 	-0.275312 	0 -0.11582 	-0.275119 	0 -0.116367 	-0.274923 	0 -0.116955 	-0.274711 	0 -0.117542 	-0.2745 	0 -0.118129 	-0.274287 	0 -0.118716 	-0.274074 	0 -0.119274 	-0.273871 	0 -0.119671 	-0.273727 	0 -0.120067 	-0.273582 	0 -0.120463 	-0.273438 	0 -0.12086 	-0.273293 	0 -0.121258 	-0.273146 	0 -0.121944 	-0.272895 	0 -0.122629 	-0.272642 	0 -0.123314 	-0.272389 	0 -0.123999 	-0.272134 	0 -0.124646 	-0.271893 	0 -0.12496 	-0.271776 	0 -0.125274 	-0.271659 	0 -0.125587 	-0.271542 	0 -0.125901 	-0.271425 	0 -0.126216 	-0.271307 	0 -0.12694 	-0.271036 	0 -0.127664 	-0.270763 	0 -0.128387 	-0.27049 	0 -0.129109 	-0.270217 	0 -0.129793 	-0.269957 	0 -0.130083 	-0.269847 	0 -0.130373 	-0.269736 	0 -0.130663 	-0.269626 	0 -0.130953 	-0.269516 	0 -0.131244 	-0.269404 	0 -0.131951 	-0.269135 	0 -0.132657 	-0.268864 	0 -0.133363 	-0.268593 	0 -0.134068 	-0.268321 	0 -0.134737 	-0.268062 	0 -0.135058 	-0.267938 	0 -0.135379 	-0.267814 	0 -0.1357 	-0.26769 	0 -0.136021 	-0.267565 	0 -0.136344 	-0.26744 	0 -0.136981 	-0.267193 	0 -0.137618 	-0.266945 	0 -0.138255 	-0.266697 	0 -0.138891 	-0.266448 	0 -0.139499 	-0.266209 	0 -0.139903 	-0.266051 	0 -0.140306 	-0.265893 	0 -0.140709 	-0.265734 	0 -0.141112 	-0.265576 	0 -0.141518 	-0.265416 	0 -0.142037 	-0.265211 	0 -0.142557 	-0.265006 	0 -0.143076 	-0.264801 	0 -0.143594 	-0.264596 	0 -0.144095 	-0.264396 	0 -0.144629 	-0.264185 	0 -0.145163 	-0.263973 	0 -0.145697 	-0.263761 	0 -0.146231 	-0.263548 	0 -0.146769 	-0.263333 	0 -0.147125 	-0.263191 	0 -0.14748 	-0.263049 	0 -0.147836 	-0.262907 	0 -0.148191 	-0.262765 	0 -0.148538 	-0.262625 	0 -0.14925 	-0.262341 	0 -0.149961 	-0.262057 	0 -0.150671 	-0.261771 	0 -0.151381 	-0.261485 	0 -0.1521 	-0.261194 	0 -0.152249 	-0.261134 	0 -0.152398 	-0.261074 	0 -0.152546 	-0.261014 	0 -0.152695 	-0.260954 	0 -0.152843 	-0.260894 	0 -0.153689 	-0.260554 	0 -0.154535 	-0.260214 	0 -0.155379 	-0.259872 	0 -0.156222 	-0.259528 	0 -0.157022 	-0.2592 	0 -0.15712 	-0.25916 	0 -0.157218 	-0.25912 	0 -0.157316 	-0.25908 	0 -0.157414 	-0.25904 	0 -0.157512 	-0.259 	0 -0.158233 	-0.258707 	0 -0.158954 	-0.258414 	0 -0.159674 	-0.25812 	0 -0.160393 	-0.257825 	0 -0.161082 	-0.257541 	0 -0.161467 	-0.257384 	0 -0.161851 	-0.257226 	0 -0.162235 	-0.257069 	0 -0.162619 	-0.256911 	0 -0.163006 	-0.256751 	0 -0.163412 	-0.256585 	0 -0.163817 	-0.256419 	0 -0.164223 	-0.256252 	0 -0.164628 	-0.256085 	0 -0.165024 	-0.255922 	0 -0.165736 	-0.25563 	0 -0.166447 	-0.255338 	0 -0.167158 	-0.255045 	0 -0.167867 	-0.254752 	0 -0.168588 	-0.254453 	0 -0.168642 	-0.254431 	0 -0.168696 	-0.254408 	0 -0.16875 	-0.254386 	0 -0.168804 	-0.254364 	0 -0.168859 	-0.254341 	0 -0.169616 	-0.254031 	0 -0.170371 	-0.253719 	0 -0.171126 	-0.253405 	0 -0.171879 	-0.253092 	0 -0.172603 	-0.252789 	0 -0.172933 	-0.252653 	0 -0.173263 	-0.252515 	0 -0.173593 	-0.252378 	0 -0.173923 	-0.252241 	0 -0.174255 	-0.252102 	0 -0.174655 	-0.251937 	0 -0.175055 	-0.251771 	0 -0.175455 	-0.251605 	0 -0.175854 	-0.251438 	0 -0.176246 	-0.251275 	0 -0.176963 	-0.250979 	0 -0.177679 	-0.250682 	0 -0.178394 	-0.250385 	0 -0.179109 	-0.250087 	0 -0.179798 	-0.249797 	0 -0.179841 	-0.249779 	0 -0.179884 	-0.249761 	0 -0.179927 	-0.249743 	0 -0.17997 	-0.249725 	0 -0.180013 	-0.249707 	0 -0.180671 	-0.249434 	0 -0.181328 	-0.24916 	0 -0.181984 	-0.248886 	0 -0.182639 	-0.248612 	0 -0.183274 	-0.248345 	0 -0.183791 	-0.24813 	0 -0.184307 	-0.247915 	0 -0.184822 	-0.247699 	0 -0.185337 	-0.247484 	0 -0.185859 	-0.247265 	0 -0.186019 	-0.247198 	0 -0.186179 	-0.247131 	0 -0.18634 	-0.247064 	0 -0.1865 	-0.246997 	0 -0.186659 	-0.246931 	0 -0.187329 	-0.246655 	0 -0.187997 	-0.246377 	0 -0.188664 	-0.246097 	0 -0.18933 	-0.245816 	0 -0.189975 	-0.245544 	0 -0.190339 	-0.245391 	0 -0.190703 	-0.245239 	0 -0.191066 	-0.245087 	0 -0.191429 	-0.244934 	0 -0.191796 	-0.24478 	0 -0.19208 	-0.244662 	0 -0.192363 	-0.244543 	0 -0.192647 	-0.244425 	0 -0.192931 	-0.244306 	0 -0.193211 	-0.244189 	0 -0.19385 	-0.243925 	0 -0.194488 	-0.24366 	0 -0.195126 	-0.243393 	0 -0.195761 	-0.243125 	0 -0.196379 	-0.242863 	0 -0.196668 	-0.242742 	0 -0.196956 	-0.24262 	0 -0.197245 	-0.242499 	0 -0.197533 	-0.242378 	0 -0.197824 	-0.242256 	0 -0.198156 	-0.242117 	0 -0.198487 	-0.241979 	0 -0.198819 	-0.24184 	0 -0.19915 	-0.241702 	0 -0.199477 	-0.241565 	0 -0.200089 	-0.241312 	0 -0.2007 	-0.241059 	0 -0.20131 	-0.240804 	0 -0.201918 	-0.240547 	0 -0.202511 	-0.240295 	0 -0.202797 	-0.240176 	0 -0.203083 	-0.240056 	0 -0.203369 	-0.239936 	0 -0.203654 	-0.239815 	0 -0.203942 	-0.239694 	0 -0.204251 	-0.239566 	0 -0.204559 	-0.239437 	0 -0.204867 	-0.239309 	0 -0.205175 	-0.23918 	0 -0.20548 	-0.239053 	0 -0.206067 	-0.238811 	0 -0.206653 	-0.238569 	0 -0.207238 	-0.238324 	0 -0.207821 	-0.238078 	0 -0.208391 	-0.237836 	0 -0.208742 	-0.237689 	0 -0.209094 	-0.237542 	0 -0.209445 	-0.237395 	0 -0.209796 	-0.237248 	0 -0.21015 	-0.237099 	0 -0.210368 	-0.237009 	0 -0.210586 	-0.236918 	0 -0.210804 	-0.236827 	0 -0.211021 	-0.236737 	0 -0.211238 	-0.236647 	0 -0.211802 	-0.236416 	0 -0.212365 	-0.236183 	0 -0.212926 	-0.235947 	0 -0.213486 	-0.235711 	0 -0.214035 	-0.23548 	0 -0.214517 	-0.235279 	0 -0.214998 	-0.235079 	0 -0.215479 	-0.234879 	0 -0.215959 	-0.234678 	0 -0.216446 	-0.234474 	0 -0.216509 	-0.234447 	0 -0.216573 	-0.234421 	0 -0.216637 	-0.234394 	0 -0.216701 	-0.234368 	0 -0.216766 	-0.234341 	0 -0.217308 	-0.234119 	0 -0.217849 	-0.233893 	0 -0.218389 	-0.233668 	0 -0.218929 	-0.233442 	0 -0.219459 	-0.23322 	0 -0.219987 	-0.233003 	0 -0.220515 	-0.232785 	0 -0.221043 	-0.232566 	0 -0.221569 	-0.232348 	0 -0.222085 	-0.232128 	0 -0.222232 	-0.232067 	0 -0.22238 	-0.232005 	0 -0.222527 	-0.231943 	0 -0.222675 	-0.231881 	0 -0.222823 	-0.231819 	0 -0.223194 	-0.231666 	0 -0.223564 	-0.231513 	0 -0.223934 	-0.23136 	0 -0.224304 	-0.231206 	0 -0.22467 	-0.231054 	0 -0.22518 	-0.230847 	0 -0.22569 	-0.230639 	0 -0.226198 	-0.230427 	0 -0.226705 	-0.230214 	0 -0.227203 	-0.230004 	0 -0.227618 	-0.229832 	0 -0.228033 	-0.22966 	0 -0.228447 	-0.229488 	0 -0.228861 	-0.229315 	0 -0.22928 	-0.229141 	0 -0.22936 	-0.229108 	0 -0.22944 	-0.229075 	0 -0.229519 	-0.229043 	0 -0.229599 	-0.22901 	0 -0.229679 	-0.228977 	0 -0.230171 	-0.228777 	0 -0.230662 	-0.228573 	0 -0.231153 	-0.22837 	0 -0.231643 	-0.228166 	0 -0.232125 	-0.227966 	0 -0.232605 	-0.22777 	0 -0.233085 	-0.227573 	0 -0.233564 	-0.227377 	0 -0.234042 	-0.227177 	0 -0.234512 	-0.226978 	0 -0.234771 	-0.226871 	0 -0.23503 	-0.226763 	0 -0.235289 	-0.226656 	0 -0.235547 	-0.226548 	0 -0.235808 	-0.226439 	0 -0.236018 	-0.226353 	0 -0.236228 	-0.226267 	0 -0.236438 	-0.226181 	0 -0.236647 	-0.226095 	0 -0.236856 	-0.22601 	0 -0.237321 	-0.225823 	0 -0.237784 	-0.225633 	0 -0.238247 	-0.22544 	0 -0.238709 	-0.225248 	0 -0.239164 	-0.225058 	0 -0.239617 	-0.224873 	0 -0.24007 	-0.224688 	0 -0.240522 	-0.224503 	0 -0.240973 	-0.224317 	0 -0.241418 	-0.224128 	0 -0.241614 	-0.224047 	0 -0.24181 	-0.223965 	0 -0.242006 	-0.223883 	0 -0.242202 	-0.223802 	0 -0.2424 	-0.22372 	0 -0.242647 	-0.223618 	0 -0.242895 	-0.223517 	0 -0.243142 	-0.223416 	0 -0.243389 	-0.223315 	0 -0.243635 	-0.223214 	0 -0.244074 	-0.223039 	0 -0.244512 	-0.22286 	0 -0.244949 	-0.222678 	0 -0.245386 	-0.222496 	0 -0.245817 	-0.222317 	0 -0.246245 	-0.222143 	0 -0.246672 	-0.221968 	0 -0.247099 	-0.221794 	0 -0.247526 	-0.221618 	0 -0.247946 	-0.221439 	0 -0.248165 	-0.221348 	0 -0.248384 	-0.221257 	0 -0.248603 	-0.221166 	0 -0.248821 	-0.221075 	0 -0.249042 	-0.220983 	0 -0.249242 	-0.220902 	0 -0.249442 	-0.22082 	0 -0.249642 	-0.220739 	0 -0.249841 	-0.220657 	0 -0.25004 	-0.220576 	0 -0.250456 	-0.220411 	0 -0.25087 	-0.22024 	0 -0.251283 	-0.220069 	0 -0.251696 	-0.219897 	0 -0.252105 	-0.219728 	0 -0.25251 	-0.219563 	0 -0.252914 	-0.219399 	0 -0.253319 	-0.219235 	0 -0.253721 	-0.219066 	0 -0.25412 	-0.218897 	0 -0.254439 	-0.218764 	0 -0.254759 	-0.218632 	0 -0.255078 	-0.218499 	0 -0.255397 	-0.218367 	0 -0.25572 	-0.218233 	0 -0.255794 	-0.218202 	0 -0.255868 	-0.218172 	0 -0.255943 	-0.218142 	0 -0.256017 	-0.218112 	0 -0.256092 	-0.218081 	0 -0.256485 	-0.217922 	0 -0.256877 	-0.217761 	0 -0.257269 	-0.217599 	0 -0.25766 	-0.217438 	0 -0.258048 	-0.217277 	0 -0.258431 	-0.217123 	0 -0.258814 	-0.216968 	0 -0.259196 	-0.21681 	0 -0.259578 	-0.216649 	0 -0.259956 	-0.216489 	0 -0.260329 	-0.216335 	0 -0.260703 	-0.216181 	0 -0.261076 	-0.216027 	0 -0.261448 	-0.215873 	0 -0.261817 	-0.215716 	0 -0.261935 	-0.215666 	0 -0.262054 	-0.215616 	0 -0.262173 	-0.215566 	0 -0.262292 	-0.215516 	0 -0.262411 	-0.215466 	0 -0.262661 	-0.215363 	0 -0.262911 	-0.215261 	0 -0.26316 	-0.215158 	0 -0.26341 	-0.215056 	0 -0.263658 	-0.214954 	0 -0.264021 	-0.214809 	0 -0.264384 	-0.214659 	0 -0.264746 	-0.214507 	0 -0.265108 	-0.214355 	0 -0.265467 	-0.214205 	0 -0.265821 	-0.21406 	0 -0.266175 	-0.213915 	0 -0.266529 	-0.213771 	0 -0.266881 	-0.21362 	0 -0.267231 	-0.213469 	0 -0.267576 	-0.213325 	0 -0.267921 	-0.21318 	0 -0.268266 	-0.213036 	0 -0.26861 	-0.212891 	0 -0.268952 	-0.212746 	0 -0.268979 	-0.212734 	0 -0.269008 	-0.212722 	0 -0.269037 	-0.212709 	0 -0.269066 	-0.212697 	0 -0.269095 	-0.212685 	0 -0.269409 	-0.212554 	0 -0.269724 	-0.212424 	0 -0.270038 	-0.212293 	0 -0.270352 	-0.212162 	0 -0.270664 	-0.212032 	0 -0.271 	-0.211897 	0 -0.271336 	-0.211758 	0 -0.271671 	-0.211615 	0 -0.272005 	-0.211472 	0 -0.272338 	-0.21133 	0 -0.272665 	-0.211195 	0 -0.272992 	-0.211059 	0 -0.273319 	-0.210923 	0 -0.273645 	-0.210782 	0 -0.273969 	-0.21064 	0 -0.274288 	-0.210504 	0 -0.274606 	-0.210368 	0 -0.274925 	-0.210232 	0 -0.275243 	-0.210096 	0 -0.275559 	-0.20996 	0 -0.275594 	-0.209944 	0 -0.275629 	-0.209929 	0 -0.275665 	-0.209913 	0 -0.275701 	-0.209897 	0 -0.275737 	-0.209882 	0 -0.276018 	-0.209763 	0 -0.2763 	-0.209644 	0 -0.276582 	-0.209526 	0 -0.276863 	-0.209407 	0 -0.277143 	-0.209288 	0 -0.277453 	-0.209161 	0 -0.277764 	-0.20903 	0 -0.278074 	-0.208895 	0 -0.278383 	-0.208761 	0 -0.278691 	-0.208627 	0 -0.278993 	-0.208499 	0 -0.279296 	-0.208372 	0 -0.279598 	-0.208244 	0 -0.279899 	-0.208109 	0 -0.280199 	-0.207975 	0 -0.280493 	-0.207847 	0 -0.280788 	-0.20772 	0 -0.281082 	-0.207592 	0 -0.281376 	-0.207464 	0 -0.281668 	-0.207332 	0 -0.281794 	-0.207275 	0 -0.281921 	-0.207219 	0 -0.282047 	-0.207162 	0 -0.282174 	-0.207106 	0 -0.282302 	-0.207049 	0 -0.282465 	-0.206978 	0 -0.282629 	-0.206908 	0 -0.282793 	-0.206838 	0 -0.282956 	-0.206767 	0 -0.28312 	-0.206698 	0 -0.283407 	-0.206577 	0 -0.283694 	-0.206451 	0 -0.28398 	-0.206324 	0 -0.284267 	-0.206198 	0 -0.284552 	-0.206072 	0 -0.284831 	-0.205953 	0 -0.28511 	-0.205833 	0 -0.285389 	-0.205708 	0 -0.285668 	-0.205581 	0 -0.285946 	-0.205455 	0 -0.286217 	-0.205335 	0 -0.286489 	-0.205216 	0 -0.28676 	-0.205096 	0 -0.287031 	-0.204973 	0 -0.287302 	-0.204846 	0 -0.287566 	-0.204726 	0 -0.28783 	-0.204606 	0 -0.288094 	-0.204486 	0 -0.288358 	-0.204366 	0 -0.288621 	-0.204245 	0 -0.288645 	-0.204233 	0 -0.28867 	-0.204221 	0 -0.288696 	-0.20421 	0 -0.288721 	-0.204198 	0 -0.288747 	-0.204187 	0 -0.288985 	-0.20408 	0 -0.289225 	-0.203974 	0 -0.289464 	-0.203867 	0 -0.289702 	-0.203761 	0 -0.289941 	-0.203655 	0 -0.290198 	-0.203545 	0 -0.290456 	-0.203428 	0 -0.290714 	-0.20331 	0 -0.290972 	-0.203192 	0 -0.291229 	-0.203074 	0 -0.291478 	-0.202964 	0 -0.291729 	-0.202854 	0 -0.29198 	-0.202739 	0 -0.29223 	-0.202621 	0 -0.29248 	-0.202503 	0 -0.292723 	-0.202393 	0 -0.292967 	-0.202283 	0 -0.29321 	-0.202172 	0 -0.293453 	-0.20206 	0 -0.293696 	-0.201942 	0 -0.293932 	-0.201832 	0 -0.294169 	-0.201723 	0 -0.294405 	-0.201613 	0 -0.294641 	-0.201503 	0 -0.294877 	-0.201393 	0 -0.294903 	-0.20138 	0 -0.29493 	-0.201367 	0 -0.294957 	-0.201354 	0 -0.294985 	-0.201342 	0 -0.295012 	-0.201329 	0 -0.295221 	-0.201235 	0 -0.295431 	-0.201142 	0 -0.295641 	-0.201048 	0 -0.295851 	-0.200954 	0 -0.296061 	-0.200861 	0 -0.29629 	-0.200764 	0 -0.296522 	-0.20066 	0 -0.296753 	-0.200555 	0 -0.296984 	-0.20045 	0 -0.297215 	-0.200346 	0 -0.297438 	-0.200251 	0 -0.297662 	-0.200156 	0 -0.297886 	-0.200055 	0 -0.298111 	-0.199953 	0 -0.298335 	-0.199851 	0 -0.298551 	-0.199759 	0 -0.298769 	-0.199667 	0 -0.298986 	-0.199575 	0 -0.299203 	-0.199478 	0 -0.299421 	-0.199379 	0 -0.299631 	-0.199291 	0 -0.299842 	-0.199204 	0 -0.300052 	-0.199116 	0 -0.300263 	-0.199028 	0 -0.300474 	-0.198937 	0 -0.300583 	-0.198892 	0 -0.300693 	-0.198848 	0 -0.300803 	-0.198804 	0 -0.300913 	-0.19876 	0 -0.301025 	-0.198716 	0 -0.301121 	-0.198679 	0 -0.301219 	-0.198642 	0 -0.301317 	-0.198606 	0 -0.301414 	-0.198569 	0 -0.301513 	-0.198533 	0 -0.301718 	-0.198465 	0 -0.301924 	-0.198393 	0 -0.302131 	-0.198321 	0 -0.302337 	-0.198249 	0 -0.302543 	-0.198178 	0 -0.302741 	-0.198124 	0 -0.30294 	-0.198066 	0 -0.303141 	-0.198004 	0 -0.303341 	-0.197941 	0 -0.303541 	-0.197879 	0 -0.303733 	-0.197837 	0 -0.303926 	-0.197795 	0 -0.304119 	-0.19775 	0 -0.304314 	-0.1977 	0 -0.304509 	-0.19765 	0 -0.304695 	-0.197623 	0 -0.304882 	-0.197597 	0 -0.305069 	-0.197571 	0 -0.305257 	-0.197541 	0 -0.305446 	-0.197507 	0 -0.305627 	-0.197499 	0 -0.305808 	-0.197492 	0 -0.30599 	-0.197485 	0 -0.306171 	-0.197478 	0 -0.306354 	-0.197469 	0 -0.306421 	-0.197474 	0 -0.306489 	-0.197481 	0 -0.306557 	-0.197487 	0 -0.306625 	-0.197494 	0 -0.306694 	-0.197502 	0 -0.306806 	-0.197513 	0 -0.306919 	-0.197527 	0 -0.307032 	-0.19754 	0 -0.307145 	-0.197553 	0 -0.307259 	-0.197567 	0 -0.307436 	-0.197623 	0 -0.307615 	-0.197674 	0 -0.307794 	-0.197725 	0 -0.307973 	-0.197776 	0 -0.308153 	-0.197828 	0 -0.308323 	-0.197925 	0 -0.308496 	-0.198019 	0 -0.30867 	-0.198106 	0 -0.308844 	-0.198193 	0 -0.309019 	-0.198282 	0 -0.309183 	-0.198423 	0 -0.309349 	-0.198566 	0 -0.309516 	-0.198703 	0 -0.309685 	-0.198834 	0 -0.309855 	-0.198967 	0 -0.310014 	-0.19916 	0 -0.310174 	-0.199356 	0 -0.310334 	-0.199552 	0 -0.310496 	-0.199741 	0 -0.310662 	-0.199927 	0 -0.310815 	-0.200183 	0 -0.31097 	-0.200442 	0 -0.311125 	-0.200701 	0 -0.31128 	-0.20096 	0 -0.311439 	-0.201214 	0 -0.311528 	-0.201412 	0 -0.311618 	-0.201613 	0 -0.311708 	-0.201814 	0 -0.311799 	-0.202015 	0 -0.31189 	-0.202218 	0 -0.311952 	-0.20235 	0 -0.312015 	-0.202485 	0 -0.312078 	-0.202619 	0 -0.312141 	-0.202754 	0 -0.312205 	-0.202892 	0 -0.312355 	-0.203321 	0 -0.312507 	-0.203747 	0 -0.31266 	-0.204174 	0 -0.312813 	-0.204599 	0 -0.312969 	-0.205031 	0 -0.31311 	-0.205573 	0 -0.313256 	-0.206106 	0 -0.313404 	-0.206632 	0 -0.313552 	-0.207159 	0 -0.313703 	-0.207692 	0 -0.313839 	-0.208351 	0 -0.313976 	-0.209014 	0 -0.314118 	-0.209661 	0 -0.314262 	-0.210302 	0 -0.314408 	-0.210953 	0 -0.314539 	-0.211745 	0 -0.314671 	-0.212541 	0 -0.314804 	-0.213337 	0 -0.314942 	-0.214113 	0 -0.315085 	-0.214897 	0 -0.31521 	-0.215838 	0 -0.315337 	-0.216784 	0 -0.315466 	-0.217729 	0 -0.315595 	-0.218673 	0 -0.315732 	-0.219612 	0 -0.315838 	-0.220585 	0 -0.315945 	-0.221564 	0 -0.316054 	-0.222542 	0 -0.316163 	-0.223518 	0 -0.316271 	-0.224473 	0 -0.316288 	-0.224615 	0 -0.316305 	-0.224756 	0 -0.316322 	-0.224899 	0 -0.316339 	-0.225043 	0 -0.316358 	-0.225194 	0 -0.316481 	-0.226503 	0 -0.316608 	-0.227812 	0 -0.316735 	-0.22912 	0 -0.316864 	-0.230425 	0 -0.316998 	-0.23176 	0 -0.31711 	-0.233305 	0 -0.317231 	-0.234822 	0 -0.317354 	-0.236332 	0 -0.317479 	-0.237839 	0 -0.317609 	-0.239383 	0 -0.317716 	-0.241152 	0 -0.317826 	-0.242925 	0 -0.317944 	-0.244659 	0 -0.318064 	-0.246383 	0 -0.318191 	-0.248156 	0 -0.318293 	-0.250164 	0 -0.318397 	-0.252175 	0 -0.318504 	-0.254182 	0 -0.318619 	-0.256149 	0 -0.318743 	-0.258167 	0 -0.318839 	-0.260429 	0 -0.318939 	-0.262693 	0 -0.319041 	-0.26495 	0 -0.319145 	-0.267202 	0 -0.319262 	-0.269499 	0 -0.319315 	-0.270957 	0 -0.319369 	-0.272421 	0 -0.319425 	-0.273883 	0 -0.319481 	-0.275342 	0 -0.319537 	-0.276764 	0 -0.319583 	-0.277852 	0 -0.31963 	-0.2789