/*--------------------------------*- C++ -*----------------------------------*\
  =========                 |
  \\      /  F ield         | OpenFOAM: The Open Source CFD Toolbox
   \\    /   O peration     | Website:  https://openfoam.org
    \\  /    A nd           | Version:  6
     \\/     M anipulation  |
\*---------------------------------------------------------------------------*/
FoamFile
{
    version     2.0;
    format      ascii;
    class       volScalarField;
    location    "13";
    object      epsilon;
}
// * * * * * * * * * * * * * * * * * * * * * * * * * * * * * * * * * * * * * //

dimensions      [0 2 -3 0 0 0 0];

internalField   nonuniform List<scalar> 
130000
(
15.734
15.5831
15.3878
15.1559
14.8927
14.606
14.3048
13.999
13.6981
13.4104
13.1429
12.9008
12.6874
12.504
12.3509
12.2269
12.1303
12.0586
12.0095
11.9805
15.7597
15.6107
15.4163
15.1841
14.9198
14.6313
14.328
14.0201
13.717
13.4274
13.1583
12.9147
12.7
12.5158
12.3622
12.2381
12.1417
12.0704
12.0219
11.9935
15.7806
15.6333
15.4396
15.2072
14.9419
14.6517
14.3462
14.0358
13.7301
13.4381
13.1666
12.9209
12.7047
12.5195
12.3653
12.2409
12.1444
12.0734
12.0253
11.9974
15.7962
15.6498
15.4563
15.2233
14.9563
14.6638
14.3559
14.0428
13.7349
13.4411
13.1682
12.9212
12.7042
12.5184
12.3638
12.2392
12.1429
12.0723
12.0251
11.9979
15.8064
15.6598
15.4655
15.2309
14.9618
14.6673
14.3575
14.0428
13.7338
13.4391
13.1657
12.9188
12.7018
12.516
12.3616
12.2373
12.1413
12.0714
12.0252
11.9985
15.8123
15.6646
15.4684
15.2318
14.9609
14.6651
14.3544
14.0392
13.7298
13.4348
13.1613
12.9146
12.6978
12.5124
12.3584
12.2345
12.139
12.0694
12.0232
11.9968
15.8156
15.666
15.4677
15.2294
14.9574
14.6605
14.349
14.0333
13.7235
13.4284
13.1552
12.9088
12.6926
12.5078
12.3544
12.2311
12.1361
12.0668
12.0203
11.994
15.8179
15.6663
15.4661
15.226
14.9526
14.6544
14.342
14.0257
13.7157
13.4208
13.1479
12.9021
12.6865
12.5025
12.3499
12.2275
12.1332
12.0645
12.0187
11.9929
15.8201
15.6664
15.4641
15.2221
14.947
14.6475
14.3341
14.0173
13.7071
13.4123
13.1399
12.8948
12.68
12.4969
12.3453
12.2238
12.1305
12.0628
12.0181
11.9932
15.8225
15.6664
15.4622
15.2182
14.9413
14.6404
14.3259
14.0085
13.6982
13.4036
13.1316
12.8873
12.6734
12.4913
12.3407
12.2202
12.1278
12.061
12.0173
11.9931
15.8258
15.6674
15.461
15.2149
14.936
14.6335
14.3179
13.9998
13.6893
13.3949
13.1234
12.8798
12.6669
12.4857
12.3361
12.2166
12.1251
12.0591
12.0159
11.9924
15.8298
15.6693
15.4608
15.2122
14.9312
14.6271
14.3102
13.9914
13.6806
13.3864
13.1154
12.8725
12.6605
12.4804
12.3318
12.2132
12.1226
12.0572
12.0145
11.9907
15.8345
15.6717
15.461
15.2104
14.9272
14.6212
14.3031
13.9835
13.6724
13.3783
13.1078
12.8656
12.6544
12.4752
12.3275
12.2099
12.1199
12.0549
12.0119
11.9882
15.8398
15.6748
15.4616
15.2093
14.9238
14.6161
14.2966
13.9762
13.6647
13.3706
13.1005
12.859
12.6486
12.4703
12.3236
12.2068
12.1176
12.0532
12.0108
11.9876
15.8459
15.6787
15.4631
15.2084
14.921
14.6116
14.2908
13.9695
13.6575
13.3634
13.0937
12.8527
12.6432
12.4659
12.3201
12.2042
12.1159
12.0523
12.0106
11.9883
15.8528
15.6835
15.4655
15.2082
14.9192
14.608
14.2857
13.9634
13.651
13.3568
13.0873
12.8469
12.6382
12.4617
12.3169
12.2021
12.1148
12.0523
12.0111
11.9887
15.8607
15.6894
15.4691
15.2096
14.9187
14.6054
14.2815
13.9581
13.645
13.3506
13.0813
12.8414
12.6334
12.4578
12.3139
12.2
12.1137
12.0524
12.0115
11.9886
15.8699
15.6965
15.4737
15.2118
14.9187
14.6036
14.278
13.9534
13.6396
13.3449
13.0757
12.8363
12.6288
12.4539
12.3108
12.1977
12.1122
12.0517
12.0122
11.991
15.8804
15.7048
15.4795
15.2148
14.9191
14.6027
14.2753
13.9494
13.6348
13.3398
13.0706
12.8314
12.6244
12.4502
12.3077
12.1953
12.1102
12.0499
12.0116
11.9916
15.8922
15.7144
15.4865
15.2192
14.9209
14.6022
14.2733
13.9461
13.6307
13.3352
13.0659
12.827
12.6205
12.4468
12.3051
12.1932
12.1086
12.0485
12.01
11.9902
15.9051
15.7252
15.4947
15.2246
14.9236
14.6024
14.2723
13.9437
13.6272
13.3312
13.0619
12.8231
12.6171
12.4441
12.3032
12.1924
12.1086
12.049
12.0106
11.9906
15.9194
15.7374
15.5042
15.2313
14.9276
14.604
14.2721
13.9423
13.6246
13.3279
13.0583
12.8197
12.614
12.4417
12.3015
12.1914
12.1084
12.0491
12.0109
11.9915
15.935
15.7508
15.515
15.2391
14.9325
14.6064
14.2723
13.9415
13.6226
13.3252
13.0553
12.8167
12.6114
12.4394
12.2996
12.1897
12.107
12.0478
12.0101
11.9916
15.9518
15.7655
15.5269
15.248
14.9386
14.6097
14.2734
13.9408
13.621
13.3229
13.0527
12.8142
12.6092
12.4378
12.2986
12.1893
12.1064
12.0476
12.0101
11.9915
15.97
15.7815
15.5401
15.2582
14.9456
14.614
14.2752
13.9405
13.6199
13.3212
13.0506
12.8121
12.6073
12.4363
12.2979
12.1899
12.1077
12.0496
12.0126
11.9939
15.9896
15.7988
15.5546
15.2695
14.9538
14.6193
14.278
13.9415
13.6198
13.3202
13.049
12.8101
12.6054
12.4348
12.2968
12.1894
12.1086
12.0519
12.0159
11.9977
16.0106
15.8176
15.5704
15.282
14.963
14.6255
14.2817
13.9431
13.62
13.3194
13.0475
12.8084
12.6036
12.433
12.2951
12.1878
12.1078
12.0522
12.0168
11.9986
16.033
15.8378
15.5875
15.2957
14.9734
14.6327
14.2861
13.9453
13.6203
13.3192
13.0469
12.8074
12.6022
12.4316
12.2939
12.1868
12.1071
12.051
12.0156
11.9979
16.0568
15.8593
15.6059
15.3107
14.9849
14.6409
14.2914
13.9482
13.6215
13.3192
13.0464
12.8065
12.6013
12.4309
12.2937
12.1868
12.107
12.0501
12.0147
11.9978
16.082
15.8822
15.6257
15.327
14.9976
14.6502
14.2977
13.9519
13.6231
13.3192
13.0458
12.8059
12.6014
12.4314
12.2943
12.1871
12.1074
12.0511
12.016
11.9987
16.1086
15.9066
15.647
15.3447
15.0115
14.6606
14.305
13.9567
13.6258
13.3205
13.0466
12.8066
12.6019
12.4316
12.2942
12.1868
12.1072
12.0515
12.0166
11.9993
16.1367
15.9327
15.6699
15.3638
15.0269
14.6723
14.3134
13.9623
13.6292
13.3223
13.0473
12.8068
12.6011
12.4305
12.2931
12.1862
12.1065
12.0511
12.0161
11.9987
16.1666
15.9604
15.6945
15.3847
15.0437
14.6854
14.323
13.9689
13.6334
13.3245
13.0478
12.8067
12.6005
12.4297
12.292
12.1854
12.1069
12.0516
12.0166
11.9986
16.1984
15.9902
15.721
15.4073
15.0623
14.7
14.334
13.9768
13.6386
13.3276
13.0493
12.8068
12.6004
12.4298
12.2922
12.1856
12.1068
12.0514
12.0161
11.9975
16.2323
16.0221
15.7497
15.432
15.0828
14.7163
14.3466
13.986
13.6451
13.3319
13.0516
12.8074
12.6002
12.4293
12.2917
12.1849
12.1056
12.0503
12.0154
11.9977
16.2687
16.0564
15.7807
15.4589
15.1053
14.7346
14.3609
13.9969
13.6532
13.3376
13.0555
12.81
12.6016
12.4296
12.2915
12.1846
12.1053
12.0503
12.0162
11.9997
16.3073
16.0933
15.8142
15.4882
15.1301
14.7549
14.3771
14.0095
13.6628
13.3448
13.0609
12.814
12.6048
12.4322
12.2939
12.187
12.1079
12.0533
12.0199
12.004
16.3488
16.1329
15.8505
15.5202
15.1574
14.7775
14.3954
14.024
13.6741
13.3535
13.0677
12.8193
12.6091
12.4359
12.2973
12.1903
12.1115
12.0573
12.0247
12.0097
16.3932
16.1757
15.8899
15.5552
15.1875
14.8028
14.4161
14.0407
13.6873
13.3639
13.0759
12.8259
12.6145
12.4404
12.3013
12.194
12.115
12.0607
12.028
12.0131
16.441
16.222
15.9328
15.5935
15.2208
14.831
14.4395
14.0598
13.7028
13.3764
13.0861
12.8342
12.6214
12.4464
12.3065
12.1986
12.1189
12.0639
12.0302
12.0144
16.4925
16.2721
15.9795
15.6355
15.2575
14.8624
14.466
14.0818
13.7209
13.3914
13.0985
12.8447
12.6304
12.4542
12.3135
12.2048
12.1245
12.0687
12.0342
12.0173
16.548
16.3265
16.0304
15.6816
15.2982
14.8975
14.4958
14.1069
13.7419
13.4091
13.1134
12.8576
12.6417
12.4643
12.3227
12.2133
12.1323
12.076
12.0407
12.023
16.608
16.3854
16.0859
15.7322
15.3431
14.9366
14.5293
14.1354
13.7662
13.4297
13.1312
12.8731
12.6556
12.4769
12.3343
12.2242
12.1426
12.0857
12.0499
12.0318
16.6728
16.4494
16.1464
15.7876
15.3925
14.98
14.5669
14.1677
13.7939
13.4536
13.152
12.8915
12.6721
12.4921
12.3485
12.2375
12.1553
12.0978
12.0614
12.0426
16.7428
16.5188
16.2123
15.8483
15.4471
15.0281
14.6089
14.2041
13.8254
13.481
13.1761
12.913
12.6916
12.5101
12.3653
12.2534
12.1704
12.1122
12.0751
12.0556
16.8185
16.5943
16.2844
15.915
15.5073
15.0816
14.6558
14.245
13.8611
13.5123
13.2038
12.9379
12.7142
12.531
12.3849
12.272
12.1881
12.1291
12.0911
12.0708
16.9007
16.6765
16.3632
15.9882
15.5738
15.141
14.7083
14.2911
13.9015
13.548
13.2356
12.9665
12.7404
12.5553
12.4077
12.2936
12.2086
12.1486
12.1096
12.088
16.99
16.7662
16.4496
16.0689
15.6474
15.207
14.7669
14.3429
13.9473
13.5886
13.272
12.9994
12.7706
12.5834
12.4341
12.3186
12.2325
12.1713
12.1311
12.1082
17.0873
16.8644
16.5446
16.1578
15.7289
15.2806
14.8325
14.4012
13.9991
13.6348
13.3136
13.0373
12.8055
12.6158
12.4646
12.3476
12.2601
12.1976
12.1561
12.1318
17.1937
16.9722
16.6491
16.2561
15.8194
15.3625
14.9061
14.4669
14.0578
13.6875
13.3611
13.0807
12.8456
12.6533
12.4999
12.3811
12.292
12.228
12.1849
12.159
17.3103
17.0906
16.7643
16.3649
15.9198
15.454
14.9885
14.5409
14.1242
13.7474
13.4156
13.1307
12.8919
12.6966
12.5409
12.42
12.3291
12.2634
12.2186
12.1908
17.4379
17.2207
16.8914
16.4854
16.0316
15.5562
15.0812
14.6245
14.1997
13.8158
13.478
13.1881
12.9453
12.7468
12.5883
12.4652
12.3722
12.3046
12.2578
12.2279
17.5779
17.364
17.032
16.6191
16.1562
15.6706
15.1854
14.7191
14.2855
13.8939
13.5496
13.2544
13.0071
12.805
12.6435
12.5177
12.4225
12.3526
12.3036
12.2714
17.7319
17.5223
17.1877
16.7679
16.2955
15.7991
15.303
14.8262
14.3832
13.9834
13.632
13.3309
13.0788
12.8726
12.7077
12.5791
12.4812
12.4089
12.3573
12.3224
17.9013
17.6972
17.3607
16.9338
16.4514
15.9437
15.436
14.9481
14.4949
14.0862
13.7271
13.4195
13.1621
12.9514
12.7828
12.6509
12.55
12.4748
12.4203
12.3823
18.089
17.8914
17.5534
17.1195
16.6268
16.1071
15.5869
15.0872
14.6231
14.2046
13.8372
13.5226
13.2592
13.0436
12.8708
12.7352
12.6309
12.5524
12.4944
12.4528
18.2958
18.1072
17.7687
17.328
16.8246
16.2923
15.759
15.2465
14.7706
14.3416
13.9652
13.6428
13.373
13.1519
12.9744
12.8346
12.7263
12.6439
12.582
12.5361
18.5255
18.3481
18.0103
17.563
17.0487
16.5032
15.9559
15.4298
14.9412
14.5009
14.1146
13.7838
13.5068
13.2796
13.0968
12.9522
12.8395
12.7526
12.686
12.635
18.7819
18.6184
18.2826
17.8292
17.3037
16.7444
16.1824
15.6417
15.1395
14.687
14.29
13.95
13.665
13.431
13.2422
13.0922
12.9742
12.8821
12.8099
12.7529
19.0689
18.9227
18.5908
18.1321
17.5954
17.0219
16.4443
15.8882
15.3714
14.9058
14.4971
14.147
13.8533
13.6117
13.4161
13.2598
13.1357
13.0373
12.9585
12.8942
19.3918
19.2671
18.9416
18.4786
17.9311
17.3429
16.7492
16.1767
15.6445
15.1646
14.7433
14.3822
14.0788
13.8287
13.6254
13.4617
13.3304
13.2246
13.1377
13.0646
19.7565
19.6588
19.343
18.8776
18.3199
17.7171
17.1066
16.517
15.9684
15.4734
15.0385
14.6653
14.3513
14.0915
13.8793
13.7071
13.5672
13.4523
13.3556
13.2715
20.1707
20.107
19.8055
19.3402
18.7736
18.1565
17.5292
16.922
16.3562
15.8451
15.3956
15.0093
14.6834
14.4129
14.1903
14.008
13.8576
13.7316
13.6227
13.5249
20.644
20.6234
20.3422
19.8809
19.3076
18.6775
18.0337
17.4087
16.8252
16.2974
15.8324
15.4319
15.0929
14.81
14.5755
14.3809
14.2178
14.0778
13.9534
13.8382
21.1886
21.2227
20.9702
20.5187
19.9425
19.3016
18.6426
18.0005
17.3994
16.8545
16.3733
15.9575
15.6041
15.3071
15.0583
14.849
14.6698
14.5121
14.3678
14.2301
21.8227
21.9224
21.712
21.279
20.7058
20.0582
19.3868
18.7292
18.1115
17.5499
17.0523
16.6206
16.2513
15.9381
15.6724
15.4447
15.2451
15.0644
14.894
14.7265
22.5664
22.7528
22.5996
22.1967
21.6354
20.9877
20.3088
19.6395
19.0078
18.431
17.9178
17.4698
17.0834
16.7518
16.4657
16.2148
15.9888
15.7777
15.5723
15.3649
23.4467
23.7469
23.6737
23.3184
22.7826
22.1455
21.4677
20.7934
20.1529
19.5648
19.0381
18.5747
18.1705
17.8179
17.5071
17.2269
16.9661
16.7143
16.4613
16.1991
24.4999
24.951
24.989
24.7072
24.2177
23.6082
22.9454
22.2776
21.6376
21.0454
20.5105
20.0345
19.6128
19.2371
18.8963
18.5787
18.2719
17.9646
17.6462
17.3078
25.7747
26.429
26.6146
26.4482
26.0366
25.4807
24.8548
24.2121
23.5884
23.0048
22.4714
21.9891
21.5526
21.1524
20.7761
20.4107
20.0428
19.66
19.251
18.8062
27.3344
28.2797
28.667
28.6621
28.3704
27.9052
27.349
26.7601
26.1773
25.6233
25.1079
24.6314
24.187
23.7634
23.3465
22.9215
22.4733
21.9884
21.4543
20.8607
29.267
30.6067
31.2739
31.499
31.389
31.0685
30.6294
30.1363
29.6316
29.1391
28.6683
28.218
27.7793
27.3382
26.8781
26.3814
25.8308
25.2106
24.5067
23.7075
31.6798
33.5566
34.626
35.1446
35.311
35.2095
34.9522
34.6128
34.2376
33.8518
33.4643
33.0717
32.6618
32.2172
31.7171
31.1402
30.4651
29.6728
28.7457
27.6694
34.7249
37.3195
38.961
39.8922
40.4187
40.6228
40.627
40.514
40.3339
40.1132
39.8601
39.5686
39.2226
38.7995
38.2732
37.6163
36.8016
35.8033
34.5975
33.1638
38.5912
42.1291
44.5284
46.0622
47.0082
47.6407
48.0002
48.2008
48.2913
48.3021
48.2431
48.1062
47.87
47.5061
46.9816
46.2609
45.3072
44.084
42.5554
40.6882
43.5132
48.2839
51.6609
53.9745
55.5599
56.6459
57.4279
58.0513
58.4842
58.7873
58.9822
59.0584
58.9853
58.7287
58.249
57.5005
56.4334
54.9942
53.1271
50.7761
49.7717
56.1159
60.7292
64.012
66.3727
68.114
69.4385
70.4671
71.2668
71.8843
72.3868
72.7443
72.8861
72.7879
72.4068
71.6864
70.5595
68.9491
66.7702
63.9308
57.691
65.9901
72.1105
76.5522
79.8238
82.2904
84.2076
85.7476
87.006
88.0299
88.8383
89.4373
89.8252
89.9238
89.6984
89.078
87.9697
86.2673
83.8483
80.571
67.6339
78.2918
86.1896
91.9671
96.2669
99.5455
102.114
104.183
105.884
107.295
108.454
109.368
110.001
110.318
110.297
109.866
108.876
107.188
104.637
101.021
79.9838
93.4044
103.329
110.59
115.998
120.125
123.358
125.964
128.112
129.915
131.428
132.667
133.609
134.199
134.399
134.205
133.447
131.901
129.354
125.538
95.1286
111.693
123.863
132.723
139.29
144.273
148.155
151.269
153.837
156.01
157.869
159.451
160.741
161.688
162.196
162.238
161.789
160.542
158.17
154.333
113.434
133.484
148.079
158.612
166.346
172.15
176.618
180.168
183.086
185.57
187.739
189.655
191.317
192.678
193.634
194.045
193.892
193.104
191.138
187.522
135.23
159.051
176.197
188.423
197.269
203.785
208.698
212.529
215.645
218.308
220.688
222.885
224.918
226.745
228.241
229.212
229.57
229.34
228.046
225.006
160.778
188.581
208.324
222.168
231.958
238.954
244.039
247.86
250.887
253.472
255.855
258.193
260.541
262.877
265.079
266.948
268.191
268.638
268.23
266.236
190.263
222.142
244.396
259.618
269.994
277.027
281.793
285.096
287.542
289.598
291.604
293.797
296.29
299.099
302.12
305.149
307.849
309.783
310.57
310.012
223.762
259.636
284.09
300.187
310.491
316.799
320.429
322.392
323.464
324.261
325.261
326.809
329.097
332.204
336.063
340.481
345.097
349.416
352.73
354.292
261.232
300.74
326.736
342.788
351.908
356.26
357.482
356.884
355.414
353.849
352.914
353.068
354.582
357.629
362.219
368.18
375.122
382.535
389.715
395.565
302.494
344.851
371.197
385.681
391.852
392.524
389.637
384.724
379.026
373.546
369.032
366.32
366.017
368.378
373.462
381.18
391.229
402.978
415.337
427.171
347.247
391.048
415.78
426.29
427.249
421.716
411.963
399.962
387.86
377.696
369.628
364.352
362.311
363.741
368.791
377.482
389.638
404.853
422.201
442.036
395.114
438.031
457.918
461.389
453.57
437.878
418.339
398.953
380.152
363.005
349.346
339.76
334.651
334.271
338.603
348.125
362.992
383.308
408.956
437.249
445.792
483.799
494.645
486.319
464.44
436.691
406.077
374.838
346.494
322.334
303.151
289.367
281.218
278.91
282.11
291.663
308.273
332.639
365.25
405.596
498.922
526.151
521.973
494.07
455.151
409.533
364.028
322.252
286.238
256.851
234.219
218.132
208.305
204.644
206.921
215.698
232.579
259.311
298.003
350.138
554.874
563.514
532.542
479.792
415.127
350.767
292.746
244.007
205.193
175.616
154.118
139.494
130.794
127.578
129.567
137.435
153.421
180.6
224.077
289.066
615.515
589.746
519.675
428.737
338.522
260.273
198.145
152.124
119.599
97.1098
82.3261
73.2249
68.4668
67.5087
70.3193
78.228
93.7183
120.987
168.727
255.063
680.037
590.049
460.873
332.298
227.249
152.311
102.336
72.3349
55.0958
45.5212
40.3094
37.5529
36.622
37.5039
40.8106
47.9982
61.847
89.0617
147.935
268.347
714.702
528.525
339.084
196.993
109.958
64.8787
43.8617
33.4965
28.0527
25.0846
23.536
22.9669
23.3203
24.7311
27.8659
34.1631
47.5417
78.6187
157.024
378.085
664.094
361.853
167.327
79.9087
45.6955
31.1573
24.3689
20.9717
19.1964
18.2514
17.8082
17.7595
18.14
19.2003
21.5924
26.8937
39.6836
75.5959
197.551
597.713
442.53
174.395
72.7409
38.4677
25.9164
20.6143
18.0999
16.8278
16.1706
15.8368
15.7026
15.7243
15.9497
16.5427
18.0062
21.7752
32.1148
66.5023
210.754
735.381
345.792
97.7722
39.225
23.7549
18.6103
16.5707
15.688
15.2902
15.1035
15.0117
14.9777
14.9822
15.0575
15.2766
15.8825
17.5308
22.888
43.0543
141.016
644.211
238.014
44.861
19.668
15.8504
15.0729
14.9182
14.8907
14.8672
14.8495
14.8373
14.8335
14.8356
14.8378
14.8192
14.7641
14.6999
14.7106
15.9214
31.4006
203.178
12.1945
12.1592
12.1156
12.0716
12.0282
11.9865
11.9479
11.9138
11.8854
11.8634
11.8482
11.8401
11.8388
11.844
11.8553
11.8719
11.8932
11.9184
11.9472
11.9797
12.2132
12.1767
12.1322
12.0871
12.0423
12
11.9612
11.9271
11.8987
11.8768
11.8618
11.854
11.8529
11.8582
11.8694
11.8859
11.9072
11.9323
11.9609
11.9929
12.2235
12.1852
12.1395
12.0938
12.0491
12.007
11.9687
11.9351
11.907
11.8854
11.8709
11.8642
11.8636
11.8688
11.8795
11.8954
11.9162
11.9409
11.9689
12.0002
12.2282
12.1893
12.1435
12.0982
12.0545
12.0132
11.9756
11.9427
11.915
11.8934
11.8782
11.8699
11.8689
11.8733
11.8831
11.8985
11.9194
11.9439
11.9715
12.0017
12.2317
12.1938
12.1486
12.1039
12.0609
12.0206
11.9833
11.9499
11.9214
11.8984
11.8811
11.8708
11.87
11.874
11.8834
11.8983
11.9191
11.9432
11.9703
11.9996
12.2381
12.2007
12.1557
12.1108
12.0671
12.0257
11.9871
11.9519
11.9221
11.8986
11.8808
11.8721
11.8709
11.8748
11.8841
11.8979
11.9172
11.9409
11.9682
11.9985
12.2425
12.2039
12.1581
12.1124
12.0677
12.0251
11.9857
11.9497
11.9201
11.8973
11.8816
11.8726
11.8703
11.8744
11.8836
11.8971
11.9161
11.9397
11.9674
11.9989
12.2431
12.2038
12.1577
12.1113
12.0659
12.0235
11.9853
11.9508
11.9215
11.8985
11.8826
11.8719
11.8692
11.8735
11.8829
11.8975
11.9159
11.9391
11.9669
11.9986
12.2419
12.2044
12.1588
12.1127
12.0676
12.0251
11.986
11.9509
11.9213
11.8977
11.8806
11.8703
11.8674
11.8717
11.8806
11.8951
11.9138
11.9377
11.9658
11.998
12.2409
12.2038
12.1584
12.1125
12.0678
12.0258
11.9862
11.9512
11.9213
11.8973
11.8794
11.8682
11.865
11.8695
11.8786
11.8944
11.916
11.942
11.9713
12.0031
12.2436
12.2049
12.1588
12.1126
12.0678
12.0256
11.9873
11.952
11.9221
11.8983
11.8813
11.87
11.867
11.8705
11.8805
11.897
11.9196
11.9464
11.9757
12.0073
12.2447
12.2056
12.1598
12.1141
12.0691
12.0255
11.9861
11.9508
11.9211
11.8973
11.8814
11.8722
11.8705
11.8744
11.8845
11.9006
11.9216
11.9468
11.976
12.0072
12.2444
12.2056
12.1594
12.1128
12.0674
12.0242
11.9841
11.9507
11.9211
11.8962
11.8796
11.8719
11.8703
11.8751
11.8861
11.9022
11.9218
11.9465
11.9755
12.0059
12.2465
12.207
12.159
12.1113
12.0644
12.0209
11.9817
11.9479
11.9183
11.8939
11.8781
11.8705
11.8694
11.8745
11.8856
11.9012
11.9214
11.946
11.9739
12.0043
12.2461
12.207
12.1598
12.1118
12.0636
12.0197
11.9801
11.9454
11.9162
11.8935
11.8784
11.8717
11.8703
11.8753
11.886
11.9012
11.9221
11.9473
11.9758
12.0071
12.2465
12.2063
12.1583
12.1104
12.0635
12.021
11.9819
11.9472
11.9181
11.8955
11.8802
11.8724
11.8713
11.8783
11.8909
11.9082
11.9297
11.9547
11.9828
12.0136
12.2478
12.2059
12.1577
12.1102
12.0644
12.0213
11.9818
11.947
11.9179
11.8954
11.8802
11.872
11.8729
11.8816
11.8949
11.9123
11.9334
11.9575
11.985
12.0156
12.2467
12.2056
12.1575
12.1101
12.0639
12.0196
11.9801
11.9455
11.9166
11.8946
11.88
11.8729
11.8731
11.8811
11.8939
11.9113
11.9331
11.9575
11.9849
12.0153
12.2456
12.2048
12.1574
12.1105
12.0652
12.0223
11.9832
11.9488
11.9203
11.8986
11.8843
11.8772
11.8767
11.8828
11.8947
11.9118
11.9339
11.9584
11.9858
12.016
12.249
12.2097
12.1632
12.117
12.0721
12.0294
11.9901
11.9554
11.9267
11.9049
11.8909
11.8845
11.8848
11.891
11.9026
11.9189
11.9392
11.9627
11.9894
12.0192
12.2554
12.2174
12.1722
12.1272
12.0829
12.0401
12.0003
11.9644
11.9342
11.9115
11.8967
11.8897
11.8896
11.8962
11.908
11.9239
11.9435
11.9656
11.9914
12.0204
12.261
12.2238
12.1794
12.1343
12.0896
12.046
12.0069
11.9717
11.9419
11.9188
11.9024
11.8933
11.8918
11.8981
11.9086
11.9236
11.9424
11.9641
11.9898
12.0191
12.2645
12.2264
12.182
12.1359
12.0906
12.0468
12.0085
11.9744
11.9458
11.9236
11.9075
11.8983
11.8958
11.8996
11.908
11.9231
11.9429
11.9661
11.9922
12.0212
12.2672
12.2272
12.1813
12.1346
12.0886
12.0451
12.0061
11.9724
11.9452
11.9241
11.9091
11.9002
11.8979
11.9007
11.91
11.9251
11.9441
11.9669
11.9929
12.0217
12.2709
12.2293
12.181
12.1338
12.0864
12.0428
12.0037
11.97
11.9431
11.9221
11.908
11.8993
11.8969
11.9004
11.9101
11.925
11.9435
11.9668
11.9937
12.0236
12.2763
12.2336
12.1841
12.1353
12.0884
12.0445
12.0047
11.9703
11.942
11.9208
11.9073
11.8992
11.8963
11.9006
11.9113
11.9273
11.9477
11.9718
11.9991
12.0291
12.283
12.2398
12.1898
12.1405
12.0931
12.0488
12.0088
11.9741
11.9457
11.9241
11.9097
11.9023
11.9011
11.9063
11.9175
11.9339
11.9545
11.9787
12.0059
12.0357
12.2903
12.2469
12.1966
12.1472
12.0997
12.0555
12.0156
11.9812
11.9529
11.9314
11.9171
11.9097
11.9087
11.914
11.9253
11.9417
11.9623
11.9864
12.0133
12.0428
12.2975
12.2538
12.2034
12.1539
12.1065
12.0625
12.0232
11.9895
11.9618
11.9405
11.9259
11.9181
11.9169
11.9222
11.9335
11.9499
11.9706
11.9945
12.0212
12.0503
12.3045
12.2604
12.2096
12.1598
12.1123
12.0683
12.0291
11.996
11.9687
11.9475
11.933
11.9254
11.9245
11.9301
11.9417
11.9584
11.9791
12.0031
12.0298
12.0586
12.312
12.2673
12.2158
12.1654
12.1172
12.0726
12.0328
11.9989
11.9711
11.9501
11.9363
11.9298
11.9305
11.9374
11.95
11.9671
11.9883
12.0126
12.0395
12.0683
12.3206
12.2752
12.223
12.1718
12.1227
12.0772
12.0365
12.0013
11.9729
11.9518
11.9386
11.9328
11.9342
11.9417
11.9551
11.9734
11.9966
12.0229
12.0511
12.0801
12.3306
12.2846
12.2317
12.1797
12.1299
12.0837
12.0422
12.0066
11.9778
11.9564
11.9428
11.9367
11.9374
11.945
11.9585
11.9773
12.0011
12.0282
12.0575
12.0868
12.3422
12.2956
12.2422
12.1895
12.1391
12.0922
12.0501
12.0141
11.9849
11.9633
11.9495
11.9431
11.9435
11.9508
11.9639
11.9822
12.0047
12.0307
12.0594
12.0883
12.3554
12.3083
12.2544
12.2012
12.1502
12.1027
12.0602
12.0238
11.9944
11.9726
11.9587
11.9522
11.9524
11.9595
11.9726
11.9905
12.0124
12.0372
12.0642
12.0927
12.3704
12.3228
12.2683
12.2145
12.1629
12.115
12.0721
12.0354
12.0058
11.984
11.9701
11.9638
11.9642
11.9715
11.9846
12.0027
12.0245
12.0492
12.0759
12.104
12.3875
12.3393
12.2842
12.2297
12.1774
12.1289
12.0856
12.0487
12.019
11.9973
11.9836
11.9775
11.9783
11.9859
11.9995
12.0179
12.0399
12.0646
12.0911
12.1188
12.4074
12.3586
12.3028
12.2475
12.1945
12.1453
12.1015
12.0642
12.0345
12.0128
11.9994
11.9937
11.9949
12.0031
12.0172
12.036
12.0583
12.083
12.1093
12.1366
12.4307
12.3813
12.3249
12.2689
12.2152
12.1654
12.121
12.0833
12.0534
12.0317
12.0186
12.0132
12.015
12.0237
12.0383
12.0575
12.08
12.1047
12.1307
12.1573
12.4579
12.4081
12.3513
12.2947
12.2403
12.1898
12.1449
12.1069
12.0768
12.0552
12.0423
12.0372
12.0394
12.0485
12.0635
12.0829
12.1055
12.13
12.1556
12.1815
12.4894
12.4394
12.3822
12.3251
12.2702
12.2192
12.1738
12.1355
12.1052
12.0836
12.0708
12.066
12.0685
12.0779
12.0931
12.1127
12.1352
12.1595
12.1844
12.2094
12.5257
12.4755
12.4181
12.3606
12.3052
12.2537
12.208
12.1693
12.1389
12.1173
12.1046
12.0999
12.1026
12.1123
12.1277
12.1473
12.1697
12.1935
12.2177
12.2415
12.5672
12.517
12.4595
12.4017
12.3459
12.294
12.2478
12.2088
12.1782
12.1565
12.1439
12.1394
12.1423
12.1522
12.1677
12.1872
12.2094
12.2327
12.256
12.2786
12.6148
12.5647
12.5072
12.4492
12.3929
12.3406
12.294
12.2547
12.2239
12.2021
12.1895
12.1851
12.1882
12.1983
12.2138
12.2333
12.2551
12.2778
12.3001
12.3212
12.6693
12.6195
12.5621
12.5039
12.4473
12.3945
12.3476
12.308
12.2769
12.2551
12.2425
12.2382
12.2414
12.2516
12.2672
12.2865
12.3079
12.3298
12.351
12.3703
12.7319
12.6825
12.6255
12.5672
12.5103
12.4571
12.4098
12.3698
12.3386
12.3166
12.304
12.2998
12.3032
12.3135
12.3291
12.3481
12.369
12.39
12.4098
12.4272
12.804
12.7553
12.6988
12.6406
12.5835
12.53
12.4823
12.442
12.4105
12.3883
12.3757
12.3716
12.3751
12.3854
12.4009
12.4197
12.4399
12.4598
12.4779
12.493
12.8874
12.8398
12.784
12.7261
12.6689
12.6151
12.567
12.5264
12.4946
12.4723
12.4596
12.4555
12.4592
12.4695
12.4848
12.503
12.5224
12.5409
12.557
12.5695
12.9843
12.938
12.8834
12.826
12.769
12.715
12.6666
12.6257
12.5936
12.5711
12.5583
12.5542
12.5579
12.5681
12.583
12.6006
12.6188
12.6357
12.6493
12.6585
13.0972
13.0529
13
12.9435
12.8868
12.8328
12.7842
12.743
12.7107
12.688
12.675
12.6709
12.6744
12.6844
12.6988
12.7155
12.7322
12.7469
12.7576
12.7628
13.2296
13.1879
13.1374
13.0823
13.0263
12.9725
12.9239
12.8825
12.8499
12.8269
12.8138
12.8094
12.8128
12.8224
12.836
12.8513
12.8661
12.8781
12.8852
12.8855
13.3858
13.3478
13.3005
13.2475
13.1926
13.1394
13.0909
13.0495
13.0167
12.9934
12.9799
12.9753
12.9783
12.9871
12.9995
13.0131
13.0253
13.0338
13.0362
13.0308
13.5712
13.5382
13.4954
13.4454
13.3925
13.3403
13.2924
13.251
13.2181
13.1943
13.1804
13.1753
13.1777
13.1853
13.196
13.2071
13.2159
13.2198
13.2164
13.2036
13.793
13.7668
13.7304
13.6848
13.6347
13.5844
13.5374
13.4965
13.4635
13.4393
13.4246
13.4188
13.4201
13.426
13.4341
13.4417
13.4458
13.4438
13.4331
13.411
14.0605
14.0438
14.0163
13.9771
13.9315
13.8841
13.8388
13.7987
13.7658
13.7411
13.7254
13.7184
13.718
13.7212
13.7256
13.7283
13.7262
13.7165
13.696
13.6618
14.3863
14.3832
14.3683
14.3384
14.2994
14.2565
14.2142
14.1756
14.1431
14.1178
14.1006
14.0915
14.0884
14.0877
14.0867
14.0825
14.072
14.0518
14.0181
13.9681
14.7896
14.8046
14.8072
14.7908
14.7617
14.7259
14.6881
14.6521
14.6205
14.5945
14.5752
14.5629
14.5556
14.5488
14.5399
14.5262
14.504
14.469
14.4176
14.3465
15.2958
15.3335
15.3624
15.3657
15.3514
15.3262
15.2957
15.2641
15.2343
15.2077
15.1853
15.1676
15.1534
15.1381
15.1181
15.0908
15.0511
14.9953
14.9196
14.8199
15.9465
16.0177
16.0751
16.1078
16.1155
16.1064
16.0871
16.0625
16.0359
16.0095
15.9843
15.9604
15.9354
15.9059
15.8684
15.8194
15.7545
15.6695
15.5595
15.4205
16.7906
16.9113
17.0137
17.0796
17.1211
17.1362
17.1339
17.1198
17.0983
17.0718
17.0415
17.0072
16.9666
16.9167
16.8539
16.7744
16.6735
16.5464
16.3882
16.194
17.9052
18.0986
18.2726
18.3872
18.4628
18.5149
18.5374
18.5392
18.5258
18.4996
18.4619
18.4124
18.3493
18.2696
18.1697
18.0455
17.892
17.7046
17.4776
17.2058
19.3943
19.6926
19.9694
20.1655
20.295
20.3791
20.4388
20.4629
20.4627
20.4386
20.3912
20.3204
20.2246
20.1013
19.9471
19.758
19.5291
19.2551
18.9302
18.5483
21.4047
21.8542
22.2775
22.5885
22.8061
22.9452
23.0249
23.0761
23.1029
23.0843
23.0244
22.9241
22.7824
22.5976
22.3666
22.0855
21.7493
21.3528
20.8893
20.3519
24.1348
24.7965
25.424
25.8952
26.2337
26.4608
26.5944
26.6605
26.6957
26.6929
26.6171
26.4771
26.273
26.0039
25.6669
25.2585
24.7737
24.2066
23.5499
22.7957
27.8382
28.7888
29.6916
30.3774
30.8773
31.2207
31.4339
31.5371
31.5719
31.5718
31.4761
31.2858
31.0009
30.621
30.1441
29.5667
28.8831
28.0865
27.168
26.1175
32.8202
34.1483
35.4055
36.3635
37.0652
37.5491
37.8491
37.9933
38.032
38.0271
37.9344
37.6879
37.3055
36.7898
36.1392
35.3493
34.413
33.3209
32.0607
30.6188
39.4199
41.2176
42.9076
44.1931
45.134
45.7824
46.1807
46.3775
46.4557
46.4642
46.3488
46.0317
45.5365
44.8643
44.0118
42.9716
41.7327
40.2804
38.5963
36.6591
47.9796
50.3308
52.5219
54.1809
55.392
56.2257
56.7342
56.9863
57.132
57.1928
57.0191
56.6279
56.0164
55.1798
54.1105
52.7957
51.2177
49.3528
47.1712
44.638
58.8187
61.7925
64.5392
66.6082
68.1174
69.1622
69.8108
70.1368
70.3084
70.3859
70.2074
69.7643
69.049
68.0541
66.7682
65.171
63.2355
60.9239
58.1892
54.974
72.235
75.8909
79.2424
81.757
83.5939
84.8806
85.715
86.1669
86.3233
86.353
86.2473
85.7754
84.9727
83.8324
82.339
80.463
78.1648
75.3882
72.0621
68.0962
88.5488
92.9547
96.9746
99.9854
102.191
103.751
104.788
105.396
105.645
105.69
105.607
105.109
104.232
102.96
101.271
99.1218
96.4584
93.2021
89.2515
84.4736
108.174
113.429
118.216
121.807
124.451
126.34
127.617
128.392
128.748
128.868
128.852
128.367
127.446
126.064
124.189
121.767
118.727
114.966
110.346
104.681
131.697
137.95
143.656
147.954
151.148
153.46
155.048
156.044
156.565
156.779
156.861
156.439
155.507
154.033
151.977
149.273
145.83
141.518
136.156
129.498
159.941
167.403
174.238
179.423
183.322
186.197
188.235
189.57
190.319
190.628
190.76
190.522
189.619
188.072
185.836
182.833
178.949
174.018
167.811
160.007
194.03
202.977
211.213
217.512
222.308
225.913
228.544
230.333
231.428
232.046
232.315
232.212
231.357
229.757
227.351
224.037
219.67
214.039
206.853
197.702
235.446
246.226
256.202
263.895
269.825
274.365
277.781
280.244
281.881
282.831
283.329
283.429
282.685
281.088
278.55
274.938
270.061
263.652
255.339
244.6
286.124
299.15
311.264
320.678
328.012
333.718
338.12
341.432
343.792
345.278
346.135
346.551
346.045
344.567
341.993
338.147
332.777
325.543
315.967
303.379
348.538
364.278
378.979
390.472
399.507
406.633
412.249
416.617
419.906
422.208
423.653
424.438
424.424
423.254
420.83
416.902
411.144
403.115
392.193
377.52
425.831
444.772
462.522
476.453
487.478
496.276
503.338
508.999
513.47
516.867
519.249
520.755
521.397
520.792
518.831
515.12
509.233
500.588
488.372
471.47
521.921
544.508
565.711
582.369
595.606
606.263
614.963
622.131
628.042
632.841
636.581
639.309
640.967
641.329
640.286
637.339
631.837
623.017
609.81
590.755
641.593
668.096
692.972
712.459
727.949
740.502
750.91
759.725
767.306
773.85
779.424
784.014
787.463
789.444
789.832
788.496
784.309
776.185
762.723
742.005
790.468
820.774
849.144
871.171
888.6
902.774
914.711
925.133
934.521
943.146
951.097
958.33
964.63
969.624
972.692
973.572
972.057
966.174
953.891
932.708
974.764
1008.04
1038.98
1062.56
1080.98
1095.96
1108.79
1120.44
1131.55
1142.5
1153.44
1164.32
1174.85
1184.55
1192.64
1198.03
1200.03
1198.4
1189.86
1170.56
1200.63
1234.81
1266.17
1289.19
1306.65
1320.71
1333.07
1344.98
1357.3
1370.58
1385.05
1400.7
1417.19
1433.93
1449.89
1463.66
1473.22
1477.31
1475.32
1462.03
1472.76
1503.88
1531.62
1550.27
1563.3
1573.44
1582.86
1593.19
1605.54
1620.65
1638.89
1660.32
1684.62
1711.08
1738.51
1765.17
1788.58
1805.5
1813.12
1810.16
1792.01
1813.36
1830.67
1838.86
1842.04
1843.46
1846.04
1851.81
1862.04
1877.7
1899.34
1927.18