/*--------------------------------*- C++ -*----------------------------------*\
  =========                 |
  \\      /  F ield         | OpenFOAM: The Open Source CFD Toolbox
   \\    /   O peration     | Website:  https://openfoam.org
    \\  /    A nd           | Version:  6
     \\/     M anipulation  |
\*---------------------------------------------------------------------------*/
FoamFile
{
    version     2.0;
    format      ascii;
    class       volScalarField;
    location    "13";
    object      epsilon;
}
// * * * * * * * * * * * * * * * * * * * * * * * * * * * * * * * * * * * * * //

dimensions      [0 2 -3 0 0 0 0];

internalField   nonuniform List<scalar> 
10000
(
244.45
326.223
187.154
110.321
71.8338
52.0148
41.2291
35.0997
31.6899
30.154
30.1788
31.8076
35.3887
41.7913
53.0919
73.6797
112.86
187.389
320.224
244.346
240.636
324.962
185.372
109.007
71.6617
51.941
41.1715
35.0382
31.6213
30.0754
29.9696
31.5747
35.1481
41.431
52.5215
72.8804
112.758
187.257
320.051
243.536
240.465
324.669
187.858
109.922
71.3847
51.8569
41.0379
34.9024
31.4887
30.0158
30.1771
31.8227
35.4275
41.6373
52.8894
73.931
112.714
186.759
319.744
243.789
240.487
326.499
185.886
110.54
71.994
51.705
41.1999
35.0978
31.7175
30.1862
30.2319
31.8614
35.5059
41.8011
53.0296
73.9073
112.402
185.769
316.874
241.774
238.486
325.772
189.008
112.19
71.7076
51.8495
41.1182
34.9763
31.7041
30.1666
30.2031
31.8267
35.5499
42.1207
53.4459
73.8404
112.109
183.501
320.727
243.259
239.033
321.88
186.658
112.185
72.3987
52.2392
41.3707
35.1483
31.7234
30.1589
30.1293
31.6452
35.5344
42.1461
53.423
73.7866
111.245
186.801
320.999
243.876
238.749
324.207
190.103
112.36
71.883
51.9773
41.3476
35.1332
31.7094
30.122
30.1548
31.7046
35.4013
42.1147
53.2845
73.7342
113.035
184.72
320.382
245.346
239.977
326.388
190.311
112.343
72.9349
52.5254
41.4447
35.0138
31.6803
29.9293
29.9865
31.8729
35.6168
42.1289
52.7372
72.6971
113.295
187.574
320.22
247.646
239.102
323.04
189.806
111.924
72.8583
52.1998
41.4385
35.2292
31.7512
30.0463
30.0734
31.8514
35.6159
42.2311
53.4123
73.8264
113.236
186.96
317.984
248.62
240.213
327.599
189.716
110.343
72.6718
52.5118
41.4607
35.2551
31.7837
30.2111
30.2301
31.7118
35.5651
42.217
53.7661
74.4853
113.115
184.962
321.478
249.284
240.989
327.412
189.055
112.05
72.64
52.4203
41.2173
35.2033
31.7765
30.2362
30.295
31.9178
35.3733
42.0624
53.2129
74.0438
112.75
186.985
322.474
251.78
242.225
326.373
185.27
110.491
72.3648
52.3284
41.3372
35.1985
31.7578
30.2089
30.2771
31.9253
35.4583
41.8976
53.4269
73.17
111.503
183.585
322.243
253.079
239.767
323.108
186.47
112.249
71.8649
51.9898
41.0675
35.1516
31.726
30.1676
30.2403
31.915
35.6076
42.1881
53.2561
73.6136
111.796
186.143
319.651
252.699
241.132
326.514
187.331
112.371
72.4726
52.391
41.2781
35.1557
31.6938
29.9733
30.1328
31.6507
35.3258
42.1166
53.5942
74.1116
113.565
188.879
323.22
252.745
242.499
326.313
189.235
112.271
71.624
52.1154
41.2786
35.1236
31.7336
30.1172
30.0614
31.7341
35.3827
41.8333
52.9833
72.7234
112.835
187.594
319.738
253.029
242.074
322.92
188.525
112.053
72.4527
52.6203
41.562
35.149
31.7355
30.0155
30.1917
31.874
35.5219
42.0282
53.3125
73.3002
111.713
184.938
321.182
250.685
244.225
325.146
185.827
110.489
72.6073
52.6361
41.5727
35.2479
31.7888
30.2002
30.172
31.6838
35.4617
41.9458
53.1998
73.5742
111.802
186.281
322.804
249.33
243.052
326.703
188.407
112.24
72.2283
52.5932
41.5174
35.0502
31.7282
30.1633
30.0304
31.7939
35.4151
41.8112
52.619
72.6516
113.098
187.919
319.903
247.239
244.366
325.857
184.941
111.907
72.9381
52.6595
41.5273
35.0814
31.7185
30.1782
30.1863
31.809
35.3545
41.7838
52.8337
73.091
112.577
185.246
322.397
245.264
244.056
324.052
188.588
111.755
72.8406
52.6476
41.5284
35.1013
31.6657
30.0005
30.0677
31.7518
35.0857
41.506
52.973
73.6332
113.378
186.81
321.548
244.013
243.741
326.302
188.076
109.97
72.1631
52.5822
41.5206
35.2241
31.589
30.083
30.1803
31.8098
35.22
41.6583
52.4565
72.506
113.161
188.722
320.768
242.837
245.017
325.572
185.717
111.528
73.0057
52.6977
41.5297
35.2561
31.7579
30.1543
30.0235
31.7848
35.3339
41.6559
53.0324
73.4769
113.173
188.347
317.722
242.62
244.785
324.54
187.55
110.24
72.8967
52.6896
41.3611
35.0801
31.5921
30.0114
30.0122
31.7533
35.2362
42.0038
53.515
74.1547
111.867
187.778
320.875
242.346
244.222
320.716
184.447
110.837
72.9732
52.7345
41.58
35.2587
31.7458
30.1484
30.0601
31.6675
35.4661
42.029
53.4743
74.1655
113.116
185.068
319.737
241.284
244.036
323.695
185.622
111.809
72.9753
52.7125
41.5751
35.2497
31.7188
30.0356
30.1913
31.8565
35.4955
42.0252
53.3684
73.9464
113.065
186.105
318.392
243.129
243.855
321.271
186.508
111.653
72.8374
52.6218
41.3884
35.0794
31.5737
30.1113
30.1749
31.8505
35.4545
41.9653
53.1828
72.9629
111.586
185.984
319.398
243.099
244.321
324.003
183.976
109.886
72.0322
52.5067
41.6139
35.272
31.7024
30.0468
29.9647
31.7632
35.4112
41.8845
53.1232
73.2343
112.672
187.345
320.165
244.321
244.709
324.036
185.857
111.661
72.9482
52.3854
41.6161
35.2963
31.714
29.9226
29.9754
31.5783
35.3572
41.8279
52.7974
72.9526
110.691
184.358
319.661
245.681
245.159
321.526
188.827
110.442
72.4084
52.397
41.6298
35.3031
31.7389
30.0333
30.0907
31.6162
35.1908
41.6309
53.2098
73.4408
111.502
186.037
322
245.201
246.076
324.307
188.762
112.44
73.6449
52.8936
41.6617
35.2327
31.6736
30.215
30.0618
31.7367
35.354
41.7737
53.0033
74.0563
111.445
188.073
320.985
246.727
246.802
323.62
185.809
112.817
73.7803
53.3987
42.0515
35.5843
31.9708
30.3337
30.2391
31.6342
35.2348
42.0187
53.4354
74.2636
111.652
185.272
319.308
246.158
247.957
320.806
189.27
112.901
73.1822
53.3616
42.0353
35.4319
31.8228
30.3183
30.262
31.8364
35.4672
42.0459
53.0957
74.3931
112.95
187.541
323.463
244.532
249.375
323.574
187.598
111.358
73.8798
53.4477
41.9248
35.6263
32.022
30.346
30.2564
31.7843
35.4044
42.0889
53.6901
74.4583
111.322
183.791
323.378
245.963
248.848
326.16
190.645
112.816
73.9366
53.5203
42.1506
35.6488
32.0255
30.3394
30.2323
31.5832
35.2014
42.0348
53.6497
74.585
113.645
186.974
323.728
246.29
252.755
326.089
190.414
113.933
73.2619
53.4352
41.9643
35.4885
32.0132
30.3586
30.2896
31.8202
35.1936
41.9536
53.5405
74.4148
113.372
188.851
323.438
247.826
255.875
323.693
188.048
113.604
73.8379
53.517
42.2238
35.702
31.9101
30.3391
30.2777
31.8378
35.3029
41.6999
53.3493
74.167
112.677
185.719
322.507
246.42
256.737
327.001
190.81
112.502
72.8526
53.333
42.1714
35.7022
32.0633
30.3643
30.2674
31.8336
35.4194
41.9117
52.9266
73.9439
111.483
187.701
320.12
247.04
256.658
326.333
190.192
113.509
73.3487
53.1357
42.1102
35.5282
32.0158
30.3041
30.0119
31.5291
35.1218
41.8914
53.2943
73.9408
110.954
185.114
322.964
246.67
255.833
322.255
186.772
111.707
73.7782
53.3624
42.0876
35.6361
32.0041
30.2862
30.065
31.5876
35.1533
41.8218
52.7753
73.9393
111.753
188.608
323.343
247.205
254.617
322.734
188.005
112.575
73.1542
52.8842
41.9369
35.4
31.7811
30.1068
30.1029
31.6667
35.2205
41.8767
52.8733
73.8857
112.657
187.822
322.513
247.908
251.938
322.879
189.092
113.418
73.8432
53.0208
41.7825
35.44
31.9137
30.2653
30.3221
31.9066
35.4219
41.9285
52.9577
73.6832
111.114
185.521
321.361
246.296
249.406
325.561
189.281
112.894
73.4311
53.0694
41.8462
35.519
32.0804
30.4461
30.3701
31.9414
35.2883
41.9595
53.2819
73.6377
112.661
187.491
319.298
244.828
245.267
322.619
188.121
111.054
73.343
52.6618
41.9729
35.6857
32.1316
30.4764
30.3406
31.9875
35.5536
41.997
53.2105
72.7914
112.192
186.936
320.646
243.67
244.652
325.837
185.801
112.742
73.004
52.9393
41.9814
35.675
32.1072
30.4641
30.4045
31.9722
35.5338
41.9601
53.2398
73.866
110.673
184.159
319.978
243.465
244.084
325.418
186.297
112.842
73.9628
53.3423
41.8678
35.6323
32.0704
30.4273
30.3595
31.9205
35.4845
41.9137
52.8355
74.0286
113.087
187.969
318.56
243.299
244.159
324.975
185.787
112.566
73.874
53.3232
42.0321
35.635
32.0638
30.412
30.315
31.7136
35.3955
41.8995
53.3484
73.9391
112.74
187.561
321.18
245.03
244.39
324.479
185.551
112.341
73.8058
53.2379
41.9962
35.5907
32.0045
30.3524
30.1773
31.7996
35.2829
41.6116
53.2291
73.6152
110.733
184.252
317.987
244.592
243.397
324.011
185.066
111.008
73.6816
53.1504
41.9437
35.5051
31.7814
30.2562
30.2638
31.6907
35.4031
41.744
52.9593
73.2167
112.759
187.565
321.55
242.738
245.454
323.806
185.569
112.559
73.8688
52.8312
41.6943
35.2907
31.7304
30.1205
30.2635
31.8693
35.4234
41.853
53.5994
74.2597
111.444
184.38
318.876
243.687
246.173
322.978
186.598
112.473
73.8845
53.2714
41.9893
35.4176
31.7346
30.1029
30.218
31.8419
35.2808
41.8791
53.5616
74.3584
112.98
185.745
322.395
243.734
245.867
322.199
182.899
111.919
73.8157
53.2757
41.9417
35.5341
31.7837
30.0735
30.186
31.8471
35.4587
42.0158
53.4713
74.1672
112.836
186.692
323.027
244.933
245.958
319.907
186.025
110.928
73.6377
52.9309
41.976
35.5581
31.9235
30.1126
30.0444
31.773
35.2308
41.6745
52.8818
73.8553
112.26
188.713
323.04
246.207
247.415
324.513
188.273
112.41
73.6675
53.1922
41.9696
35.5507
31.9545
30.2828
30.2276
31.8157
35.4061
41.8559
52.9483
73.5501
109.83
188.163
322.611
246.679
248.168
324.33
186.01
110.561
72.7872
53.0019
41.6911
35.4457
31.9018
30.2859
30.2334
31.7869
35.3752
41.8149
52.9125
73.5768
111.218
187.551
321.547
246.1
248.588
323.951
188.492
111.454
73.1847
52.7758
41.6754
35.3783
31.6984
30.2344
30.1867
31.6197
35.1539
41.7203
53.0197
73.4492
112.012
186.798
320.506
246.002
247.768
322.801
187.86
112.115
72.424
52.7056
41.604
35.2118
31.7199
30.226
30.2125
31.6632
35.3138
41.5107
52.5869
73.1064
111.283
183.867
316.471
243.773
247.446
320.091
186.873
110.535
72.6773
52.8308
41.6095
35.2138
31.7896
30.202
30.2188
31.8079
35.3869
41.8062
52.9416
72.3259
109.801
185.598
317.161
243.705
247.063
321.738
184.317
111.541
72.9881
52.5203
41.6882
35.2053
31.7342
30.1579
30.1859
31.7892
35.3477
41.7675
52.9296
72.9444
110.939
184.949
316.815
243.16
245.223
320.269
185.835
110.217
72.1637
52.608
41.7052
35.2536
31.5649
29.9494
30.1117
31.7277
35.2883
41.6865
52.7907
72.0781
108.984
182.118
317.758
242.881
243.977
319.019
183.251
110.746
72.6641
52.4418
41.652
35.0989
31.551
29.9295
30.0675
31.6759
35.0564
41.5457
52.5511
72.4771
109.813
183.821
316.828
243.069
243.317
317.7
184.405
110.347
72.4282
52.5767
41.6826
35.2853
31.6693
29.9383
29.9063
31.5234
35.0865
41.3276
52.8155
72.8767
110.349
180.993
313.149
242.197
243.531
314.664
183.378
108.627
71.5172
52.5202
41.6282
35.1751
31.6216
29.88
30.0308
31.68
35.2385
41.456
52.734
72.6317
110.05
183.103
314.237
244.153
243.856
315.47
182.503
109.24
72.0069
52.491
41.5978
35.2251
31.478
29.8776
30.01
31.6535
35.2213
41.5506
52.3289
71.7104
108.129
180.138
312.755
244.491
244.366
312.687
181.29
108.511
71.6449
52.0898
41.338
35.0692
31.6439
29.9811
29.8459
31.4033
34.9376
41.3009
52.5352
72.1711
108.637
180.945
313.152
243.908
244.796
313.41
178
107.336
70.9279
52.0983
41.4364
35.1316
31.6832
29.8644
29.9517
31.4643
34.9403
41.2599
52.115
71.9511
109.081
181.943
314.753
243.18
243.779
309.369
177.697
106.517
70.926
52.203
41.5705
35.1656
31.6829
30.0265
29.95
31.382
34.8968
41.2927
52.1466
71.0412
108.335
180.951
314.175
244.293
243.956
309.913
178.236
106.867
71.0973
51.9212
41.5446
35.2551
31.525
29.8187
29.7321
31.3471
34.9688
41.0453
52.0371
71.0932
107.521
179.531
312.624
243.972
243.638
307.002
177.078
105.733
70.3873
51.9461
41.5297
35.2635
31.6485
29.9292
29.7706
31.3724
34.9557
41.0815
51.6874
70.4383
105.708
176.049
309.073
243.682
242.602
309.358
176.098
105.01
70.5353
52.0534
41.4914
35.2026
31.4615
29.7309
29.8152
31.4113
34.9029
41.1183
51.6099
70.2755
105.971
177.186
311.445
244.484
242.184
307.941
174.706
104.978
70.1839
51.8743
41.4163
35.1627
31.556
29.8379
29.6161
31.1582
34.7646
40.8363
51.3147
69.6505
104.062
173.392
306.545
243.314
241.259
306.12
170.995
103.203
69.7019
51.6462
41.1297
34.8755
31.271
29.5966
29.6787
31.2211
34.5238
40.7283
51.1418
69.3399
103.447
172.346
306.689
242.852
240.142
304.478
169.623
102.285
69.214
51.4194
41.1009
34.8943
31.2781
29.4811
29.3911
30.9268
34.3567
40.4575
50.7762
68.7418
102.347
170.881
304.579
241.934
239.048
302.433
167.372
101.291
68.7499
51.1994
40.9445
34.7547
31.1476
29.3686
29.2999
30.8168
34.2212
40.3264
50.584
68.3865
101.442
168.572
304.558
240.776
237.439
300.552
165.751
100.341
68.257
50.7786
40.5421
34.3289
30.7452
29.0507
28.9878
30.5696
34.0482
40.1487
50.3491
67.9626
100.617
167.091
302.536
238.417
235.791
295.604
163.79
99.3245
67.7495
50.5154
40.2706
34.1378
30.5693
28.9485
28.8767
30.4634
33.9086
39.9502
50.0843
67.4752
99.5079
164.764
297.351
237.279
234.621
293.911
161.959
98.2073
67.1136
50.104
39.9952
33.8532
30.3347
28.7501
28.6942
30.4267
33.8621
39.7575
49.7427
66.8467
98.2715
162.602
294.334
236.027
232.154
292.063
159.581
96.7841
66.3509
49.6571
39.7037
33.6283
30.1298
28.5098
28.4444
30.0557
33.5175
39.4635
49.3515
66.1541
96.8467
159.933
291.291
234.547
230.686
289.016
156.834
95.2227
65.528
49.1792
39.3573
33.3367
29.8354
28.183
28.1634
29.7721
33.1969
39.0907
48.8099
65.2346
95.1036
156.659
287.67
233.289
228.446
282.272
153.152
93.3354
64.5293
48.5958
38.9599
33.011
29.5329
27.8963
27.8898
29.4941
32.8971
38.6877
48.2157
64.1907
93.1562
153.278
283.792
230.873
225.588
278.597
149.555
91.4358
63.5083
47.9672
38.4971
32.6149
29.1678
27.5686
27.551
29.1146
32.4617
38.1732
47.5149
63.037
90.8901
148.771
277.872
226.687
221.492
271.346
145.115
89.1476
62.2969
47.2121
37.9401
32.1768
28.7984
27.2254
27.1946
28.6936
31.9603
37.5763
46.7294
61.7851
88.4599
143.84
270.196
221.401
216.926
263.726
140.086
86.6018
60.9645
46.3279
37.2764
31.6532
28.3641
26.8321
26.8022
28.2662
31.4437
36.89
45.7361
60.1959
85.4234
137.684
260.124
212.629
211.8
253.64
134.483
83.7344
59.4333
45.2765
36.4882
31.0417
27.8564
26.3663
26.324
27.7217
30.7919
36.0634
44.5824
58.3258
81.8714
130.842
248.012
201.156
206.797
242.242
128.525
80.5821
57.4991
43.9114
35.4988
30.2941
27.2492
25.8214
25.7746
27.103
30.0432
35.1066
43.2661
56.2606
78.1392
123.797
235.29
191.539
198.457
227.409
121.288
76.9877
55.305
42.3904
34.373
29.4138
26.5169
25.1587
25.1151
26.3819
29.1932
34.053
41.8948
54.2249
74.2982
116.711
222.451
187.562
187.296
211.385
114.001
73.6096
53.0716
40.7096
33.06
28.352
25.6182
24.341
24.3016
25.5004
28.1682
32.8046
40.3005
52.0225
70.5489
109.989
208.797
183.656
182.763
195.862
106.23
69.8164
50.3979
38.7056
31.4996
27.0938
24.5485
23.364
23.3323
24.458
26.9715
31.3812
38.597
49.9934
67.6243
103.617
195.092
186.9
188.433
181.068
99.0515
65.732
47.3973
36.4496
29.7505
25.6723
23.3279
22.2432
22.2217
23.2708
25.6082
29.7343
36.5776
47.629
64.73
96.5237
180.794
188.395
191.563
165.912
91.7167
61.1865
44.2086
34.0214
27.8482
24.1245
21.9933
21.016
21.0078
21.9756
24.1219
27.9269
34.3249
44.9764
62.0136
91.4206
167.841
196.414
204.327
155.503
86.3367
57.5237
41.1656
31.5844
25.9083
22.5288
20.6101
19.7379
19.7374
20.6134
22.5496
26.0001
31.8665
41.9777
59.7799
89.1676
158.968
211.831
220.753
145.594
81.8093
53.57
37.9698
29.1205
23.969
20.9397
19.2389
18.4743
18.4811
19.2639
20.9871
24.0608
29.3125
38.397
54.5191
85.3004
148.479
223.427
235.742
142.005
79.0037
50.1459
35.0307
26.8107
22.1585
19.4732
17.9853
17.3232
17.332
18.0165
19.5326
22.2645
26.9993
35.3774
50.7121
79.6164
142.9
241.562
261.179
140.065
76.364
46.7561
32.2639
24.7205
20.562
18.2111
16.929
16.3637
16.3702
16.9521
18.2552
20.639
24.8427
32.4369
46.8802
76.0401
139.786
261.901
287.133
138.548
71.9719
43.1001
29.6561
22.859
19.2023
17.1835
16.1044
15.6338
15.6375
16.118
17.2108
19.2529
22.9516
29.8302
43.4188
72.2901
138.792
286.787
313.307
138.46
68.7536
40.1871
27.4607
21.285
18.091
16.3927
15.5145
15.136
15.1369
15.5176
16.3989
18.1012
21.3035
27.4934
40.2714
69.0639
138.721
314.177
346.403
138.815
65.3518
36.9235
25.1488
19.7557
17.107
15.7696
15.1155
14.8516
14.852
15.1163
15.7717
17.1096
19.7603
25.1562
36.9373
65.3794
139.01
345.613
372.883
136.646
59.8634
32.8965
22.6375
18.2492
16.2326
15.2824
14.8645
14.7153
14.7154
14.8649
15.2831
16.2324
18.2515
22.648
32.9424
60.0458
137.14
374.227
403.325
129.192
51.6443
27.9497
19.8965
16.7706
15.4784
14.9587
14.7544
14.677
14.6772
14.7545
14.959
15.4772
16.7685
19.8841
27.9162
51.5405
128.887
402.76
431.913
107.897
38.7514
21.9521
17.0532
15.4857
14.9789
14.807
14.7279
14.698
14.6983
14.7291
14.81
14.9833
15.4914
17.0631
21.9741
38.8599
108.284
432.935
466.862
57.5906
21.7142
16.3
15.2456
14.954
14.8454
14.8042
14.7966
14.7963
14.7964
14.7966
14.8048
14.8463
14.9552
15.2486
16.3049
21.6902
57.5081
466.588
693.212
852.597
481.659
269.573
159.258
101.092
69.5406
51.87
42.3308
38.1312
37.9196
41.9245
51.2664
68.9325
101.295
158.468
265.443
475.209
854.504
673.445
699.716
835.236
479.086
268.98
159.095
100.279
68.6922
50.9717
41.4058
37.2525
36.8945
40.8651
50.1264
67.6299
101.065
158.001
259.475
461.062
849.213
676.129
697.931
842.871
476.766
267.692
158.703
101.345
69.5713
51.8029
42.1509
37.8051
37.1154
41.0879
50.4491
67.9544
100.965
158.113
264.799
466.076
835.741
684.327
694.202
846.142
465.956
263.311
156.771
101.175
69.4179
51.6594
41.971
37.5491
36.8469
40.9441
50.5586
67.9258
100.798
156.064
269.259
469.072
857.181
674.096
697.602
860.217
472.552
268.868
158.922
101.048
69.0232
50.7166
40.9679
36.6684
36.7892
41.2217
49.8172
68.5619
100.955
159.192
268.568
478.084
853.772
682.604
689.374
858.167
478.571
268.421
158.367
100.763
68.5289
51.0642
41.2447
36.8499
37.177
40.9067
50.5606
67.859
100.529
158.623
268.425
465.395
850.349
674.961
692.921
853.429
466.32
266.252
155.841
100.314
68.4233
51.4131
41.2544
36.7727
36.622
41.6133
51.3209
68.9843
100.231
155.802
264.172
477.989
844.375
667.091
699.977
837.072
476.718
265.035
157.203
99.5516
68.9764
51.3247
41.1444
37.351
37.3131
41.153
50.585
68.6844
99.0928
157.547
270.94
465.139
820.33
666.761
691.874
854.122
465.86
258.119
156.29
100.394
68.1448
50.5248
41.3706
36.8321
36.7875
41.7542
51.2272
68.5709
99.7682
156.887
271.433
475.146
842.071
668.934
695
834.6
471.153
261.279
154.392
99.5552
68.3372
50.9074
42.3122
38.0037
37.7539
41.7664
51.0923
67.5874
100.556
158.151
270.636
481.156
851.625
669.929
701.97
839.109
478.645
264.317
155.872
100.825
68.7806
51.3158
42.5015
37.9759
37.577
40.9805
50.4673
68.0319
100.349
156.097
269.086
477.018
831.203
675.361
689.746
839.903
476.824
258.409
152.639
100.832
67.7415
52.0888
42.5865
37.5775
36.9922
41.5691
51.3614
68.6922
100.095
157.712
267.525
465.106
836.509
668.705
692.037
849.163
473.687
265.299
156.176
101.412
68.8997
52.3355
42.7242
38.2813
37.9702
42.1285
51.3214
68.4372
99.5308
156.551
266.449
473.428
840.193
669.113
698.071
842.58
460.094
263.379
158.11
101.658
69.7824
52.3167
42.5413
38.0412
37.1292
41.8512
51.0071
67.3239
97.783
152.874
260.272
481.482
851.742
672.699
675.321
819.644
470.066
259.375
157.521
101.621
70.3752
52.296
42.3646
37.8104
37.1666
41.6216
50.8633
67.5299
98.0999
153.737
265.155
478.024
830.843
668.154
665.959
826.358
460.141
263.318
157.21
101.356
70.191
51.5315
41.4233
36.932
36.8335
40.8615
50.0762
67.3355
97.8677
152.925
263.156
474.591
852.83
662.444
666.67
834.066
462.587
259.055
154.875
100.778
69.6238
52.455
41.9727
37.3013
37.0833
41.3151
50.4383
67.8034
98.4952
153.395
256.205
460.811
847.287
662.998
665.938
811.773
465.626
262.748
156.46
101.779
70.5504
52.5815
42.3987
37.7332
36.2223
41.1166
50.2642
68.4793
99.7576
155.614
262.069
471.376
830.05
657.365
667.202
839.64
475.896
267.014
157.531
101.612
70.36
52.409
41.7694
37.7595
36.6086
40.8306
50.73
68.3922
99.6349
153.601
256.13
460.575
847.736
665.464
668.291
856.752
467.031
262.307
154.551
100.496
70.1239
52.2978
42.3905
37.768
37.1265
41.7011
50.1983
68.1591
99.5561
156.229
264.614
467.976
829.238
659.941
673.479
853.508
484.705
270.414
157.882
101.768
69.3848
51.3708
42.1171
37.2031
37.7892
41.7619
50.8557
67.5375
99.2517
153.532
263.316
476.939
837.347
661.746
676.038
847.007
482.151
269.075
159.191
100.961
69.7735
51.4274
41.5158
37.8365
37.7448
41.5944
50.2449
68.5295
99.0693
154.959
256.859
475.196
842.492
670.577
676.154
828.18
480.015
266.844
157.047
101.633
69.1128
51.3837
41.5319
37.262
37.0303
40.9449
50.5482
68.4786
97.7187
152.936
262.235
464.674
855.142
666.543
676.123
833.635
477.935
260.827
158.566
101.576
69.8424
51.8036
41.7106
38.0183
37.8911
41.778
49.785
68.6614
98.4506
153.753
258.497
477.93
852.328
661.408
670.758
826.85
474.902
264.454
158.228
100.236
68.8383
52.0098
42.1569
38.0717
37.8932
41.9732
50.6362
68.9249
99.2367
155.072
260.358
475.752
844.86
666.989
670.198
826.502
463.302
267.381
156.265
100.642
69.304
51.9649
41.3587
37.8427
37.6505
41.9342
51.4496
69.1129
100.813
157.694
264.062
471.565
820.86
658.234
672.783
835.056
468.547
267.01
156.723
101.059
69.8328
51.9778
42.1871
37.7207
36.8683
41.8099
51.3339
68.9113
100.759
157.398
262.302
463.06
850.025
662.271
676.892
850.943
471.864
262.817
156.721
100.755
69.6645
51.2129
41.8957
37.1388
37.6288
41.741
51.2113
68.698
100.612
156.972
257.071
477.39
866.163
664.961
677.991
832.714
480.451
267.121
158.094
99.7181
68.9907
52.0378
41.4744
37.7148
37.5071
41.5498
50.9251
67.5357
100.42
157.134
261.523
466.668
863.162
674.109
677.07
864.347
478.464
264.94
157.476
99.9676
69.4863
51.9535
42.1086
37.62
36.8219
41.1667
50.3041
67.9557
100.204
156.568
255.865
478.969
859.448
662.099
680.046
859.955
464.125
257.48
156.638
100.374
69.2575
51.0214
41.1478
36.8529
36.5679
40.5366
50.8983
68.4915
100.009
156.598
262.517
477.17
853.208
661.439
672.302
855.499
471.127
259.113
156.386
100.021
68.3983
51.0817
41.4533
37.2909
36.6777
41.2188
50.7382
68.2061
99.6095
155.821
259.668
466.147
832.624
663.769
677.019
834.682
456.034
257.714
154.978
99.0224
68.4577
51.0366
41.9624
36.8714
36.4812
40.5016
49.822
67.0128
99.1018
154.093
255.029
478.455
838.097
663.916
667.123
841.197
469.614
261.203
157.558
100.464
68.5682
51.0859
41.997
37.6947
36.6795
41.0224
50.3435
67.2496
98.1585
157.074
257.033
477.046
837.067
668.865
665.85
836.896
477.744
265.488
157.738
100.093
68.9227
51.3505
41.3861
37.6568
36.7587
40.4741
49.9767
67.4729
99.0134
157.242
261.347
473.446
841.045
675.599
666.213
838.83
469.618
260.639
157.196
100.926
69.791
52.0539
42.0379
37.8086
37.3477
41.3911
50.682
68.1652
100.029
157.105
265.889
459.801
855.722
670.85
665.886
847.429
484.318
268.486
157.191
100.774
69.7775
52.0258
41.3162
37.6418
36.6819
41.0814
50.3591
67.8379
99.9137
154.961
265.191
471.314
839.6
663.371
667.399
866.653
484.232
267.321
156.252
100.342
69.5478
51.9646
42.0592
37.7407
37.627
40.4307
49.3502
66.5582
99.9013
157.758
260.764
477.426
858.217
664.278
673.521
867.615
482.023
265.85
153.203
100.52
69.3868
51.7046
41.1669
36.895
37.7112
41.0885
50.1386
66.9827
99.8536
157.974
266.399
465.12
839.511
672.824
661.209
866.09
479.352
263.838
154.998
100.506
68.5451
51.3049
41.6068
37.5254
38.0007
41.9068
50.9082
67.1425
99.6459
157.525
265.644
468.102
850.51
662.869
662.522
864.43
467.083
257.522
155.834
100.438
69.0349
51.6152
42.2101
36.7632
38.0016
41.892
51.0194
67.9812
99.5203
157.222
264.767
467.515
860.613
663.203
667.274
863.386
479.19
261.811
154.567
100.094
69.5686
52.3212
42.3185
37.8379
38.2176
41.9246
50.8397
67.7309
99.2465
156.756
260.462
470.795
858.731
673.555
657.459
861.333
476.035
265.393
155.627
99.9307
68.9457
52.1573
42.3124
38.8065
38.6236
41.3941
50.0849
67.2532
98.9781
156.787
263.76
478.309
854.028
671.892
655.8
857.04
467.546
264.2
154.059
100.863
70.0087
52.0578
42.5342
38.8706
38.8197
42.6606
51.516
66.2472
98.3165
156.227
260.67
474.785
840.596
674.916
656.939
854.099
467.969
263.246
154.973
100.912
69.9506
52.4348
42.9082
38.927
38.8085
42.8427
52.033
67.9402
98.5022
155.968
263.751
470.717
857.767
672.931
655.082
848.384
475.032
262.308
155.988
100.693
69.0707
51.4989
42.1152
38.7394
38.6795
42.7824
52.1896
69.4106
99.8821
153.794
263.227
454.914
852.307
669.054
657.906
843.247
471.909
256.216
155.153
100.399
69.1778
51.6938
42.1021
38.6467
38.6091
42.6167
52.1677
69.4399
100.029
154.465
262.468
467.182
838.569
677.637
663.568
823.902
462.243
258.454
153.643
99.6011
69.0516
51.8219
41.9129
38.5029
38.4449
42.4797
52.1836
69.4609
99.8804
153.935
257.254
473.743
856.274
665.727
665.74
840.365
470.299
261.62
154.498
100.236
69.3834
51.2552
41.7596
38.3691
38.3507
41.7204
51.9844
69.4161
99.0709
154.783
258.956
462.885
838.944
675.658
667.781
825.343
465.847
260.08
154.5
99.5813
68.7739
51.8007
41.7457
38.2057
38.2883
42.3938
51.8686
69.2916
100.165
156.274
260.348
473.442
855.381
671.719
666.659
843.215
455.609
255.507
155.86
100.484
69.4083
51.3481
42.0957
38.0794
38.1443
42.2755
51.5853
68.9255
99.7832
155.883
255.529
460.677
838.322
678.438
662.664
837.662
460.605
261.365
155.743
99.6426
68.6863
51.7364
41.3874
37.1639
37.2289
41.8958
50.6936
67.8108
98.32
155.574
258.136
472.043
861.546
669.283
663.48
831.485
465.137
260.504
155.763
100.3
69.2071
51.7703
41.9836
37.3897
37.4231
41.7694
51.0073
68.3718
98.8883
155.165
259.732
458.112
856.679
677.302
673.55
814.358
461.579
258.837
154.975
100
68.3753
51.4632
41.1917
37.0558
37.4805
40.9658
51.1705
68.7031
99.285
152.952
257.268
460.785
851.535
667.123
665.675
830.151
455.097
253.773
152.804
99.1327
68.9312
51.4059
41.3737
36.9931
37.369
41.0853
50.9578
68.4408
99.0956
154.585
259.978
458.812
843.401
653.768
657.619
813.351
450.887
256.634
154.274
99.5888
68.1472
51.101
40.8623
36.8984
36.7587
40.6064
50.1304
67.3913
98.4934
153.832
258.575
461.388
821.642
650.694
656.532
837.603
452.536
255.704
152.394
99.2319
68.1388
50.9781
41.449
37.2223
37.1302
41.1546
50.4453
67.3524
97.6433
151.508
256.659
450.679
843.238
651.318
665.663
835.645
452.598
254.312
152.97
98.5031
67.8989
50.6365
41.1743
36.9389
36.8394
40.8423
50.1573
67.081
97.7037
151.901
255.491
459.611
858.519
652.545
669.084
832.611
447.139
250.15
152.135
98.4239
67.9926
49.7942
40.7281
36.4804
35.8427
40.3175
49.2105
66.8954
97.1234
150.746
250.188
463.51
854.587
653.168
679.548
828.489
448.376
252.534
150.651
98.0108
67.6929
50.1401
39.9095
36.1395
35.6053
40.0178
48.9968
66.5006
96.1709
149.452
251.956
451.684
849.143
654.567
678.259
822.774
450.908
248.565
150.219
97.5869
67.1321
49.2723
40.0616
35.7533
35.0749
39.0992
48.6099
65.5845
95.6545
148.515
249.645
454.45
829.33
661.486
674.298
804.905
446.98
248.18
149.546
97.0987
66.6301
48.639
39.0309
34.8103
34.6003
38.556
48.1287
64.96
94.8771
147.376
245.103
450.001
832.936
643.9
678.333
806.317
437.86
246.035
148.939
96.3524
65.7316
48.0833
38.6256
34.4814
34.2135
38.0476
47.0729
64.3857
94.3839
146.734
243.853
438.44
833.281
642.727
661.85
800.922
436.311
245.326
148.198
95.8413
65.1979
47.4384
37.8544
33.8681
33.7227
37.5342
46.6142
63.7401
93.6719
145.779
242.012
443.269
843.024
649.795
666.779
797.747
432.239
243.59
147.47
95.0944
64.4096
46.7654
37.5138
33.7375
33.3064
36.8641
45.9862
62.9868
93.0219
144.876
239.303
433.36
836.129
642.131
642.34
794.177
428.482
239.683
146.404
94.295
63.8959
46.3381
36.9072
33.29
32.6177
36.375
45.4108
62.3188
92.2461
143.887
237.093
434.443
827.469
630.284
639.975
793.18
424.379
238.162
145.523
93.5388
63.1082
45.7999
36.3183
32.3735
32.1236
35.7912
44.6261
61.3907
91.2645
142.628
234.451
428.889
818.394
608.956
635.771
797.771
420.285
235.783
144.418
92.7022
62.4975
45.2865
35.7885
31.6987
31.542
35.1702
43.8665
60.5867
90.317
141.276
231.367
416.775
794.231
602.829
634.842
790.401
417.71
233.188
143.018
91.6107
61.5981
44.5412
35.1821
31.1309
30.8991
34.469
43.0827
59.6788
89.1717
139.701
228.672
414.843
803.985
600.046
634.355
769.471
406.037
230.505
141.542
90.4469
60.6471
43.7527
34.5463
30.5176
30.2873
33.8317
42.3773
58.6816
87.9142
138.283
226.256
408.756
808.307
596.253
640.708
769.579
399.952
227.141
139.508
88.8482
59.4005
42.7826
33.8418
29.9217
29.7263
33.2295
41.5152
57.5901
86.6674
136.794
223.288
400.938
797.999
590.002
630.817
768.342
393.961
223.917
137.397
87.135
57.9581
41.67
33.1332
29.4546
29.3597
32.8074
40.7122
56.3675
85.0496
134.91
220.492
396.334
786.253
585.903
622.655
758.355
387.234
220.042
134.876
85.2738
56.5765
40.7558
32.4489
28.9167
28.9937
32.7741
40.0806
55.2427
83.4383
132.821
217.438
389.5
774.122
581.267
612.674
732.004
378.833
216.012
132.32
83.3973
55.2291
39.6931
31.6735
28.3419
28.5922
32.378
39.4952
54.1627
81.7525
130.475
213.547
381.577
755.164
581.961
600.384
723.255
370.844
210.923
129.016
81.1618
53.6927
38.606
30.9081
27.7885
27.9861
31.4628
38.9936
53.0723
79.9382
127.787
209.172
374.628
739.389
569.154
571.918
705.47
361.706
205.604
125.48
78.7563
52.1503
37.6587
30.255
27.2372
27.508
30.7414
38.1702
51.9502
78.1415
125.075
204.501
367.478
723.17
561.288
553.691
688.952
351.831
199.689
121.531
76.1956
50.5406
36.58
29.4445
26.5256
26.7553
29.9631
37.0391
50.5746
76.0225
121.629
198.611
358.564
709.824
545.486
544.368
670.131
339.045
193.005
117.072
73.342
48.7594
35.4129
28.6062
25.7956
25.9585
28.9957
35.9294
49.0829
73.8007
118.009
191.168
348.052
692.844
523.974
525.744
646.583
324.426
185.519
112.059
70.0891
46.7497
34.1529
27.7022
24.9852
25.0358
27.8772
34.5044
47.3543
71.2544
114.158
184.853
337.828
671.422
491.084
503.821
623.901
309.393
177.216
106.607
66.7043
44.7138
32.8864
26.8378
24.2936
24.3625
27.069
33.376
45.6178
68.5014
109.839
176.84
325.393
650.156
468.513
483.316
598.369
294.835
167.968
100.494
62.924
42.4981
31.5603
25.9512
23.5863
23.6511
26.1831
32.115
43.6921
65.4194
105.166
170.414
311.8
623.296
455.634
470.25
571.895
279.684
158.042
94.2405
59.2113
40.3405
30.2542
25.0807
22.8993
22.966
25.3165
30.8156
41.573
61.9865
100.125
166.306
297.491
595.077
441.939
452.722
541.478
264.665
149.065
88.0373
55.436
38.1121
28.8924
24.1566
22.1611
22.2271
24.3855
29.426
39.3011
58.1373
93.8863
161.434
282.736
565.478
432.91
432.588
503.99
246.546
137.463
81.0218
51.3548
35.7647
27.4854
23.2273
21.4278
21.485
23.4336
27.987
36.9236
53.9669
86.3884
146.43
263.656
528.26
425.341
402.347
462.376
226.262
125.463
73.9147
47.2626
33.361
26.0143
22.2398
20.643
20.6946
22.4245
26.4571
34.3495
49.44
78.5829
134.582
242.075
487.091
416.023
373.172
420.687
204.681
112.136
66.3966
43.0292
30.8946
24.4936
21.2068
19.8207
19.8704
21.38
24.8892
31.7593
44.9221
70.3493
119.547