/*--------------------------------*- C++ -*----------------------------------*\
  =========                 |
  \\      /  F ield         | OpenFOAM: The Open Source CFD Toolbox
   \\    /   O peration     | Website:  https://openfoam.org
    \\  /    A nd           | Version:  6
     \\/     M anipulation  |
\*---------------------------------------------------------------------------*/
FoamFile
{
    version     2.0;
    format      ascii;
    class       volScalarField;
    location    "13";
    object      k;
}
// * * * * * * * * * * * * * * * * * * * * * * * * * * * * * * * * * * * * * //

dimensions      [0 2 -2 0 0 0 0];

internalField   nonuniform List<scalar> 
130000
(
0.394889
0.393841
0.391994
0.389451
0.386299
0.382656
0.378668
0.374486
0.370259
0.366126
0.362202
0.358576
0.355313
0.35245
0.35
0.347957
0.346303
0.345008
0.344039
0.34336
0.395209
0.394188
0.392352
0.389805
0.386636
0.38297
0.378953
0.374741
0.370486
0.366327
0.362381
0.358739
0.355464
0.352592
0.350136
0.34809
0.346435
0.345142
0.344176
0.343504
0.39549
0.394492
0.392668
0.390118
0.386936
0.383249
0.379206
0.374966
0.370682
0.366496
0.362524
0.358859
0.355564
0.352675
0.350205
0.348147
0.346484
0.345187
0.344221
0.343551
0.395712
0.39473
0.392912
0.390358
0.387164
0.383456
0.379387
0.375118
0.370806
0.366592
0.362595
0.358909
0.355598
0.352697
0.350217
0.34815
0.346482
0.345182
0.344216
0.343548
0.395868
0.394892
0.393071
0.390508
0.387295
0.383564
0.379469
0.375177
0.370845
0.366614
0.362602
0.358905
0.355586
0.352679
0.350197
0.348132
0.346466
0.345167
0.344203
0.343537
0.39597
0.394985
0.393154
0.390571
0.387337
0.383586
0.379472
0.375165
0.370821
0.366582
0.362567
0.358868
0.355548
0.352642
0.350162
0.348101
0.346438
0.345144
0.344183
0.343521
0.396036
0.395034
0.393181
0.390575
0.387322
0.383555
0.37943
0.375113
0.370761
0.366518
0.362502
0.358804
0.355487
0.352586
0.350112
0.348057
0.346401
0.345112
0.344158
0.3435
0.396085
0.395062
0.393183
0.390557
0.387284
0.383499
0.379361
0.375034
0.370676
0.366431
0.362416
0.358722
0.355411
0.352517
0.350051
0.348005
0.346357
0.345076
0.344128
0.343476
0.396132
0.395085
0.393182
0.39053
0.387234
0.38343
0.379276
0.374938
0.370575
0.366328
0.362316
0.358628
0.355325
0.35244
0.349984
0.347947
0.346309
0.345037
0.344096
0.343451
0.396183
0.395111
0.393183
0.390503
0.387181
0.383355
0.379185
0.374836
0.370467
0.366219
0.36221
0.358528
0.355234
0.352359
0.349914
0.347888
0.34626
0.344997
0.344065
0.343426
0.396239
0.395142
0.393186
0.390478
0.38713
0.383281
0.379094
0.374733
0.370357
0.366108
0.362102
0.358427
0.355142
0.352277
0.349843
0.347829
0.346211
0.344958
0.344034
0.343403
0.396305
0.39518
0.393194
0.390463
0.387086
0.383214
0.379007
0.374634
0.370251
0.366
0.361996
0.358327
0.355051
0.352197
0.349774
0.347771
0.346164
0.344921
0.344006
0.343383
0.39638
0.39523
0.393216
0.390458
0.387052
0.383155
0.378928
0.37454
0.37015
0.365896
0.361895
0.358231
0.354963
0.35212
0.349708
0.347716
0.34612
0.344887
0.343981
0.343365
0.396463
0.395289
0.393247
0.390458
0.387027
0.383105
0.378859
0.374456
0.370056
0.365799
0.361799
0.35814
0.35488
0.352046
0.349645
0.347664
0.346078
0.344855
0.343959
0.343352
0.396561
0.395362
0.39329
0.39047
0.387017
0.383068
0.3788
0.374381
0.369971
0.36571
0.36171
0.358056
0.354802
0.351977
0.349586
0.347615
0.34604
0.344827
0.343939
0.34334
0.396673
0.395451
0.39335
0.390499
0.387016
0.383045
0.378754
0.374318
0.369897
0.36563
0.361629
0.357979
0.354732
0.351915
0.349534
0.347573
0.346008
0.344804
0.343923
0.343328
0.396802
0.395557
0.393426
0.390543
0.387028
0.383036
0.378722
0.374268
0.369834
0.36556
0.361558
0.35791
0.354669
0.351861
0.349489
0.347538
0.345984
0.344791
0.343919
0.343328
0.39695
0.39568
0.39352
0.390603
0.387057
0.383036
0.378702
0.374229
0.369782
0.365501
0.361497
0.357851
0.354615
0.351814
0.349451
0.347512
0.345968
0.344785
0.343918
0.343326
0.397116
0.395822
0.393631
0.39068
0.3871
0.383048
0.378695
0.374202
0.369742
0.365452
0.361445
0.357801
0.35457
0.351776
0.349421
0.347489
0.345953
0.344772
0.343912
0.343325
0.3973
0.395982
0.393759
0.390774
0.38716
0.383075
0.378695
0.374187
0.369712
0.365413
0.361403
0.357759
0.354532
0.351745
0.349397
0.347472
0.345941
0.344763
0.343902
0.343318
0.397501
0.39616
0.393905
0.390885
0.387234
0.383116
0.378706
0.37418
0.369691
0.365383
0.361369
0.357725
0.354502
0.351722
0.349383
0.347464
0.345935
0.344757
0.343894
0.343315
0.397719
0.396354
0.394068
0.391012
0.387324
0.383172
0.378732
0.374181
0.369681
0.365363
0.361342
0.357698
0.354478
0.351704
0.349373
0.347457
0.345928
0.344758
0.343906
0.343334
0.397955
0.396566
0.394248
0.391155
0.38743
0.383242
0.378772
0.374196
0.369678
0.36535
0.361322
0.357676
0.354458
0.351689
0.349366
0.347455
0.345936
0.344774
0.34393
0.343364
0.398208
0.396796
0.394445
0.391314
0.38755
0.383326
0.378823
0.37422
0.36968
0.365341
0.361305
0.357657
0.354441
0.351676
0.34936
0.347463
0.345953
0.344799
0.343961
0.3434
0.398479
0.397045
0.39466
0.39149
0.387686
0.383424
0.378886
0.374255
0.369692
0.365336
0.361294
0.357642
0.354425
0.351662
0.349349
0.347465
0.345971
0.344829
0.343999
0.343442
0.39877
0.397313
0.394893
0.391683
0.387838
0.383535
0.378962
0.374301
0.369715
0.365343
0.361292
0.357633
0.354413
0.351651
0.349341
0.347461
0.345979
0.34485
0.344028
0.343475
0.399082
0.3976
0.395146
0.391894
0.388005
0.383661
0.37905
0.374357
0.369746
0.365356
0.361296
0.35763
0.354408
0.351643
0.349334
0.347457
0.345977
0.344853
0.344034
0.343482
0.399413
0.397907
0.395417
0.392123
0.388189
0.383801
0.379151
0.374423
0.369785
0.365374
0.361299
0.357627
0.354402
0.351635
0.349326
0.34745
0.34597
0.344842
0.344025
0.343477
0.399764
0.398234
0.395707
0.39237
0.388389
0.383956
0.379265
0.374502
0.369834
0.365399
0.361305
0.357624
0.354397
0.351632
0.349324
0.347447
0.345963
0.344836
0.344024
0.343485
0.400134
0.398582
0.396018
0.392636
0.388608
0.384128
0.379394
0.374593
0.369894
0.365435
0.361322
0.357629
0.354395
0.351634
0.349327
0.34745
0.345969
0.344852
0.344048
0.343515
0.400524
0.39895
0.39635
0.392922
0.388846
0.384318
0.379539
0.374699
0.369966
0.365481
0.361349
0.357642
0.3544
0.351636
0.34933
0.347454
0.345981
0.344866
0.344065
0.343539
0.400937
0.399342
0.396705
0.393231
0.389105
0.384527
0.379701
0.37482
0.370053
0.365539
0.361385
0.357662
0.354409
0.35164
0.349331
0.347457
0.345983
0.344867
0.344067
0.343539
0.401374
0.399759
0.397085
0.393564
0.389386
0.384757
0.379883
0.374959
0.370155
0.365611
0.361432
0.35769
0.354422
0.351641
0.349327
0.347454
0.345984
0.344874
0.344075
0.343544
0.401837
0.400204
0.397493
0.393924
0.389693
0.385011
0.380087
0.375118
0.370275
0.365699
0.361495
0.357732
0.354448
0.351651
0.34933
0.347456
0.345984
0.344872
0.344076
0.343556
0.402329
0.400678
0.397931
0.394313
0.390028
0.385291
0.380315
0.375299
0.370417
0.365808
0.361577
0.357793
0.354492
0.351682
0.349349
0.347464
0.345985
0.34487
0.344072
0.343552
0.402853
0.401186
0.398402
0.394735
0.390394
0.3856
0.38057
0.375506
0.370581
0.365938
0.361679
0.357874
0.354557
0.351735
0.349393
0.3475
0.346014
0.344892
0.344087
0.343558
0.403411
0.401729
0.398909
0.395191
0.390793
0.385941
0.380855
0.37574
0.370772
0.366092
0.361805
0.357978
0.354644
0.35181
0.349459
0.347559
0.346068
0.34494
0.344129
0.343591
0.404008
0.402313
0.399455
0.395686
0.391229
0.386315
0.381171
0.376004
0.37099
0.366272
0.361955
0.358105
0.354754
0.351907
0.349547
0.347641
0.346145
0.345012
0.344196
0.343653
0.404646
0.402939
0.400045
0.396223
0.391705
0.386728
0.381523
0.3763
0.371238
0.36648
0.362131
0.358256
0.354887
0.352027
0.349658
0.347744
0.346243
0.345106
0.344285
0.343736
0.40533
0.403613
0.400682
0.396806
0.392224
0.387182
0.381913
0.376632
0.371519
0.366719
0.362335
0.358433
0.355044
0.35217
0.349789
0.347868
0.346361
0.345219
0.344393
0.343839
0.406069
0.404341
0.401372
0.39744
0.392792
0.387681
0.382345
0.377002
0.371836
0.36699
0.362569
0.358638
0.355227
0.352336
0.349944
0.348014
0.3465
0.345352
0.34452
0.343959
0.406855
0.405122
0.402117
0.398128
0.393413
0.388229
0.382824
0.377416
0.372192
0.367298
0.362837
0.358875
0.355439
0.35253
0.350124
0.348184
0.346661
0.345505
0.344666
0.344097
0.407698
0.405964
0.402923
0.398876
0.39409
0.388832
0.383353
0.377876
0.372592
0.367645
0.363142
0.359146
0.355683
0.352754
0.350332
0.348379
0.346846
0.345682
0.344834
0.344256
0.408605
0.406873
0.403796
0.39969
0.394831
0.389495
0.383938
0.378389
0.373039
0.368038
0.363488
0.359455
0.355963
0.353011
0.350572
0.348605
0.34706
0.345886
0.345028
0.34444
0.409582
0.407855
0.404744
0.400577
0.395642
0.390223
0.384585
0.378959
0.373541
0.36848
0.363881
0.359807
0.356284
0.353306
0.350847
0.348865
0.347307
0.346121
0.345251
0.344651
0.410636
0.408918
0.405773
0.401544
0.39653
0.391026
0.385301
0.379594
0.374103
0.368979
0.364326
0.360209
0.35665
0.353645
0.351165
0.349164
0.347592
0.346392
0.345509
0.344896
0.411774
0.41007
0.406893
0.4026
0.397504
0.391909
0.386094
0.380301
0.374732
0.36954
0.36483
0.360666
0.357069
0.354034
0.351529
0.349509
0.34792
0.346704
0.345807
0.345178
0.413005
0.41132
0.408113
0.403755
0.398574
0.392884
0.386973
0.381089
0.375437
0.370172
0.365401
0.361186
0.357548
0.354479
0.351947
0.349905
0.348297
0.347064
0.346149
0.345502
0.414339
0.41268
0.409444
0.40502
0.399751
0.393962
0.387949
0.381968
0.376228
0.370885
0.366048
0.361777
0.358094
0.354989
0.352427
0.35036
0.34873
0.347478
0.346544
0.345877
0.415788
0.414163
0.4109
0.406409
0.401047
0.395153
0.389033
0.38295
0.377115
0.37169
0.366781
0.36245
0.358718
0.355573
0.352978
0.350884
0.34923
0.347955
0.346999
0.346309
0.417366
0.415782
0.412495
0.407934
0.402476
0.396473
0.39024
0.384048
0.378113
0.372598
0.367612
0.363217
0.359432
0.356243
0.353612
0.351487
0.349806
0.348506
0.347525
0.346809
0.419086
0.417552
0.414244
0.409614
0.404056
0.397937
0.391585
0.385277
0.379235
0.373625
0.368557
0.364092
0.360249
0.357012
0.354341
0.352183
0.350471
0.349142
0.348133
0.347387
0.420962
0.41949
0.416166
0.411465
0.405803
0.399564
0.393086
0.386655
0.380499
0.374787
0.369631
0.365091
0.361185
0.357896
0.355182
0.352985
0.35124
0.349879
0.348837
0.348057
0.423012
0.421614
0.41828
0.413509
0.407741
0.401376
0.394765
0.388204
0.381927
0.376106
0.370855
0.366235
0.362261
0.358915
0.356152
0.353914
0.352131
0.350734
0.349655
0.348836
0.425256
0.423949
0.420611
0.415772
0.409894
0.403398
0.396647
0.389948
0.383542
0.377606
0.372253
0.367546
0.363499
0.360091
0.357276
0.354991
0.353165
0.351726
0.350606
0.349742
0.427718
0.42652
0.423188
0.418283
0.412293
0.40566
0.398762
0.391918
0.385376
0.379316
0.373854
0.369054
0.364927
0.361452
0.358578
0.356242
0.354369
0.352883
0.351715
0.350799
0.430425
0.429358
0.426044
0.421076
0.414973
0.408198
0.401147
0.39415
0.387462
0.381271
0.375693
0.370793
0.36658
0.363031
0.360094
0.357701
0.355773
0.354235
0.353011
0.352035
0.43341
0.4325
0.429217
0.424193
0.417977
0.411055
0.403844
0.396686
0.389845
0.383514
0.377813
0.372804
0.368499
0.36487
0.361863
0.359406
0.357418
0.355819
0.354532
0.353487
0.436709
0.435988
0.432756
0.427682
0.421353
0.414282
0.406905
0.399578
0.392576
0.386097
0.380264
0.37514
0.370734
0.367019
0.363934
0.361406
0.35935
0.357682
0.356321
0.355195
0.440367
0.439873
0.436713
0.431602
0.425163
0.417941
0.410393
0.40289
0.395719
0.389083
0.38311
0.377863
0.37335
0.369539
0.36637
0.363763
0.361629
0.359882
0.358435
0.357214
0.444436
0.444214
0.441155
0.436021
0.42948
0.422107
0.414384
0.406699
0.399352
0.392551
0.38643
0.381051
0.376422
0.372509
0.369246
0.36655
0.364328
0.362488
0.360941
0.359609
0.448976
0.449082
0.446159
0.441025
0.434392
0.426871
0.418971
0.411101
0.403571
0.396599
0.390321
0.384803
0.38005
0.376025
0.372658
0.369862
0.367539
0.365592
0.363928
0.362463
0.454072
0.454556
0.45182
0.446715
0.440007
0.432347
0.424273
0.416215
0.408497
0.401348
0.394907
0.389242
0.384356
0.380209
0.376727
0.373818
0.371379
0.369307
0.367502
0.36588
0.459807
0.460751
0.458259
0.45322
0.446461
0.438676
0.430434
0.42219
0.414284
0.406954
0.400344
0.394524
0.389497
0.385217
0.381608
0.37857
0.375995
0.373775
0.371804
0.36999
0.466288
0.467792
0.465618
0.460698
0.453923
0.446035
0.43764
0.429218
0.421126
0.413614
0.406833
0.400852
0.395674
0.39125
0.387498
0.384313
0.381579
0.379181
0.377009
0.374964
0.473647
0.475836
0.474079
0.469348
0.462605
0.454649
0.446125
0.437541
0.429273
0.421584
0.414631
0.408486
0.403149
0.398569
0.394656
0.3913
0.388377
0.385766
0.383348
0.381017
0.482046
0.485079
0.483866
0.479417
0.472778
0.464806
0.456192
0.447474
0.43905
0.431197
0.424078
0.417768
0.412266
0.407516
0.403421
0.399865
0.396715
0.393843
0.39112
0.388434
0.49169
0.495768
0.495263
0.491224
0.484788
0.476878
0.468234
0.459429
0.450885
0.442892
0.435623
0.429154
0.423482
0.418547
0.414246
0.410452
0.407026
0.403829
0.400725
0.397592
0.502832
0.508214
0.508631
0.505176
0.499083
0.491348
0.482766
0.473948
0.465341
0.457253
0.449864
0.443251
0.437411
0.432276
0.427737
0.423659
0.419891
0.416287
0.412698
0.408993
0.515792
0.522831
0.5244
0.521796
0.516247
0.508851
0.500466
0.491747
0.48317
0.475058
0.4676
0.460875
0.454876
0.44953
0.444717
0.440294
0.4361
0.431975
0.427762
0.42332
0.530976
0.540195
0.543266
0.541799
0.537051
0.530218
0.522225
0.513772
0.505365
0.497343
0.489901
0.48312
0.476987
0.471423
0.466297
0.461453
0.456721
0.451928
0.446905
0.441498
0.548921
0.560928
0.565967
0.56606
0.562478
0.556526
0.549203
0.541257
0.533225
0.525462
0.51817
0.511426
0.505211
0.499434
0.493954
0.488602
0.483191
0.477538
0.47146
0.46479
0.570271
0.585882
0.593521
0.595713
0.593785
0.589146
0.582873
0.57577
0.568403
0.561143
0.554194
0.547631
0.541422
0.535463
0.529597
0.523639
0.517387
0.51064
0.503198
0.494877
0.595885
0.616116
0.627292
0.632074
0.632515
0.629767
0.625048
0.619227
0.612908
0.606476
0.600137
0.593956
0.587889
0.581813
0.575554
0.568903
0.561639
0.553535
0.544369
0.533928
0.626875
0.652992
0.668866
0.67714
0.680611
0.680414
0.677848
0.673843
0.669035
0.663827
0.658423
0.652882
0.647142
0.641062
0.634442
0.627047
0.618625
0.608914
0.59765
0.584576
0.664607
0.698139
0.720047
0.733053
0.740064
0.743283
0.743575
0.741984
0.739196
0.73564
0.731528
0.726913
0.721722
0.715791
0.708895
0.700765
0.691107
0.679604
0.665926
0.649737
0.710725
0.753549
0.782927
0.802003
0.813757
0.820685
0.82458
0.825989
0.825703
0.824202
0.821713
0.818297
0.813876
0.808272
0.801233
0.792451
0.781574
0.768211
0.751933
0.732281
0.767147
0.821396
0.85988
0.886231
0.903953
0.915576
0.923069
0.927995
0.930568
0.931432
0.930821
0.928817
0.925352
0.920246
0.913223
0.903928
0.891945
0.876785
0.857893
0.834634
0.835988
0.90391
0.953143
0.987972
1.0125
1.02971
1.0417
1.04986
1.05534
1.05882
1.06022
1.05974
1.05735
1.05288
1.04602
1.03639
1.02347
1.00669
0.98532
0.958522
0.919462
1.00329
1.06481
1.10917
1.14124
1.16447
1.18127
1.19334
1.20179
1.20743
1.21082
1.21183
1.21052
1.20675
1.20019
1.19039
1.17676
1.15859
1.135
1.1049
1.01971
1.12146
1.19657
1.25128
1.29134
1.32082
1.34251
1.35841
1.36987
1.3778
1.38278
1.38511
1.38479
1.38179
1.37564
1.36585
1.35174
1.33247
1.30699
1.27395
1.1386
1.25994
1.3496
1.41514
1.46339
1.49908
1.52547
1.54493
1.55906
1.56898
1.57542
1.57875
1.57921
1.5769
1.57124
1.56162
1.5473
1.5273
1.50038
1.46492
1.27758
1.41961
1.52433
1.60082
1.65704
1.69851
1.72904
1.7514
1.76754
1.77885
1.7862
1.79014
1.79107
1.7893
1.78418
1.77487
1.76063
1.74039
1.71265
1.67555
1.43738
1.60052
1.72018
1.8071
1.8705
1.91673
1.95024
1.9743
1.99125
2.00281
2.01015
2.01398
2.01487
2.0133
2.00861
1.99981
1.98606
1.96622
1.93862
1.90106
1.61788
1.80152
1.93506
2.03099
2.09984
2.14888
2.1833
2.20695
2.22269
2.23267
2.2384
2.2409
2.24094
2.23904
2.23448
2.22634
2.21365
2.19517
2.16906
2.13284
1.81769
2.01979
2.16478
2.26691
2.33808
2.38659
2.41849
2.43838
2.44973
2.45521
2.45675
2.45589
2.45376
2.45049
2.44547
2.43813
2.42734
2.41163
2.38899
2.3567
2.0338
2.25031
2.4023
2.50579
2.57414
2.61683
2.64095
2.652
2.65429
2.65107
2.64489
2.63764
2.63063
2.62414
2.61795
2.61147
2.60347
2.59231
2.57593
2.55126
2.26115
2.48519
2.6369
2.73412
2.79181
2.82077
2.82949
2.8251
2.81194
2.794
2.77469
2.75595
2.73938
2.72642
2.71734
2.71171
2.70827
2.70508
2.69908
2.68689
2.49212
2.71304
2.8534
2.93312
2.96892
2.97382
2.95641
2.92376
2.88407
2.84356
2.80778
2.77584
2.74975
2.7305
2.71825
2.71259
2.71234
2.71552
2.71975
2.72068
2.7161
2.91842
3.03146
3.07754
3.075
3.03933
2.98669
2.92369
2.8574
2.7923
2.73043
2.67859
2.63752
2.60783
2.58962
2.58271
2.58564
2.59714
2.61709
2.64444
2.91918
3.08155
3.14411
3.13516
3.08199
2.99794
2.89437
2.78615
2.68057
2.58343
2.49823
2.42713
2.37101
2.33017
2.30452
2.29405
2.29706
2.31261
2.34262
2.3866
3.08314
3.17466
3.16484
3.08294
2.95181
2.79783
2.63724
2.48218
2.34038
2.21624
2.11143
2.02605
1.95921
1.90996
1.87752
1.86168
1.86092
1.87429
1.90662
1.96113
3.18278
3.17426
3.05457
2.86708
2.64638
2.41946
2.20509
2.01446
1.85234
1.71895
1.6118
1.52739
1.46217
1.41335
1.37909
1.35887
1.35195
1.35731
1.38171
1.43421
3.19323
3.03776
2.77591
2.46655
2.15487
1.87104
1.63065
1.4388
1.29172
1.18126
1.09873
1.0368
0.989887
0.954135
0.927377
0.908731
0.899594
0.904413
0.927561
0.985403
3.06203
2.71761
2.29516
1.87715
1.51666
1.23508
1.02859
0.89135
0.80268
0.74425
0.70419
0.675366
0.653666
0.637343
0.626965
0.626067
0.633716
0.653218
0.699307
0.818129
2.70583
2.15961
1.6208
1.18572
0.892063
0.717891
0.624484
0.573456
0.54191
0.521467
0.507951
0.499035
0.493618
0.491475
0.493508
0.500127
0.514803
0.547516
0.635209
0.83892
2.02239
1.37979
0.929112
0.685784
0.566654
0.504736
0.469993
0.44932
0.436761
0.429054
0.424451
0.42211
0.421972
0.423962
0.428736
0.437891
0.456145
0.501214
0.641649
1.0304
1.17009
0.773996
0.577743
0.490651
0.448515
0.425261
0.411224
0.402373
0.396841
0.393444
0.39161
0.390943
0.391486
0.393398
0.397547
0.405541
0.424135
0.475829
0.656807
1.18023
0.853193
0.554619
0.44967
0.414512
0.398862
0.39029
0.385186
0.381999
0.380052
0.378847
0.378249
0.378031
0.378327
0.379237
0.381582
0.387069
0.400815
0.442238
0.598319
1.13139
0.692468
0.437681
0.389957
0.38088
0.378365
0.377121
0.376254
0.375658
0.375301
0.375104
0.375052
0.375086
0.375225
0.375403
0.375632
0.375939
0.377682
0.384832
0.428197
0.70217
0.345891
0.345479
0.344956
0.344419
0.343879
0.343353
0.342857
0.342409
0.342025
0.341719
0.341497
0.341362
0.341311
0.341341
0.341445
0.341614
0.34184
0.342116
0.342435
0.342788
0.34613
0.345708
0.34518
0.344634
0.344086
0.34355
0.343043
0.342584
0.342191
0.341878
0.341654
0.341516
0.34146
0.341484
0.34158
0.34174
0.34196
0.34223
0.342543
0.342891
0.346299
0.34587
0.345333
0.344776
0.344217
0.343669
0.343152
0.342682
0.342278
0.341954
0.341721
0.341574
0.341513
0.341533
0.341626
0.341785
0.342005
0.34227
0.342574
0.342917
0.346422
0.345987
0.34544
0.344874
0.344307
0.343753
0.343229
0.342753
0.342341
0.342005
0.341758
0.341604
0.341541
0.341568
0.341666
0.34183
0.342051
0.34231
0.342612
0.342961
0.346479
0.346045
0.345502
0.34494
0.344374
0.343821
0.343299
0.342829
0.342416
0.342069
0.341809
0.341646
0.341578
0.341593
0.341683
0.341844
0.342065
0.342335
0.342644
0.342994
0.346509
0.346087
0.345557
0.345004
0.344444
0.343892
0.343369
0.342895
0.342476
0.342122
0.341855
0.34168
0.341595
0.341595
0.341674
0.341826
0.342047
0.342329
0.342643
0.342991
0.346573
0.346154
0.345626
0.345073
0.344509
0.343949
0.343412
0.342916
0.342486
0.342125
0.341854
0.341676
0.341586
0.341602
0.341676
0.341823
0.342041
0.342311
0.342625
0.342979
0.346604
0.346187
0.345657
0.345101
0.344532
0.343966
0.34342
0.342908
0.342469
0.3421
0.34183
0.341657
0.341581
0.341603
0.341685
0.341843
0.342062
0.342331
0.34264
0.342983
0.346598
0.346175
0.34564
0.345082
0.344511
0.343944
0.3434
0.342899
0.342461
0.342106
0.341841
0.34167
0.341591
0.341599
0.341685
0.341845
0.342066
0.342334
0.342641
0.34298
0.346597
0.346165
0.345638
0.345083
0.344512
0.343942
0.343394
0.342887
0.342457
0.342102
0.341842
0.341679
0.341602
0.341602
0.341691
0.341851
0.342071
0.342339
0.342645
0.342984
0.346595
0.346177
0.34566
0.345107
0.344534
0.34396
0.343404
0.342892
0.342444
0.342086
0.341829
0.341676
0.341598
0.341607
0.341698
0.34186
0.34208
0.342347
0.342653
0.342995
0.346614
0.346187
0.345659
0.3451
0.344531
0.343961
0.343408
0.342902
0.342451
0.342092
0.341828
0.341668
0.341592
0.341604
0.341695
0.341856
0.342076
0.342341
0.342646
0.342981
0.346661
0.346224
0.345679
0.345113
0.344544
0.343974
0.343425
0.342916
0.342477
0.34212
0.341853
0.341683
0.34161
0.341618
0.341704
0.341861
0.342078
0.342342
0.342647
0.342986
0.346707
0.346259
0.345705
0.345129
0.344546
0.34397
0.343427
0.342923
0.342485
0.342128
0.341862
0.341692
0.34162
0.341631
0.341718
0.341876
0.342089
0.342345
0.342643
0.342991
0.346716
0.346259
0.345696
0.345111
0.344526
0.343956
0.343421
0.342914
0.342477
0.342121
0.341856
0.341687
0.341626
0.341642
0.341736
0.341897
0.342111
0.342359
0.34265
0.342987
0.346719
0.346263
0.345698
0.345111
0.344525
0.34396
0.343411
0.342911
0.342477
0.342121
0.341857
0.341687
0.34161
0.34162
0.341715
0.34188
0.3421
0.342359
0.342667
0.343015
0.346717
0.346266
0.345704
0.345115
0.344525
0.343951
0.343408
0.342916
0.342487
0.342132
0.341866
0.341696
0.341608
0.341616
0.341715
0.341887
0.342113
0.342378
0.34269
0.343046
0.346713
0.346253
0.345688
0.345103
0.344518
0.34395
0.343422
0.342933
0.342506
0.342153
0.341882
0.34171
0.341631
0.341633
0.341731
0.341911
0.342137
0.342395
0.342705
0.343061
0.346732
0.34626
0.345686
0.345104
0.344514
0.34394
0.343401
0.342911
0.342492
0.342145
0.341879
0.341717
0.341637
0.341629
0.341723
0.341902
0.34213
0.342398
0.342714
0.343068
0.346791
0.346306
0.345717
0.345112
0.344509
0.343925
0.34338
0.342889
0.342472
0.342128
0.34187
0.341705
0.34163
0.341636
0.341735
0.341909
0.342143
0.342423
0.342741
0.343088
0.346868
0.346374
0.345774
0.345159
0.344546
0.343953
0.343398
0.342898
0.342468
0.342121
0.341868
0.341713
0.341651
0.341677
0.341787
0.341967
0.342205
0.342487
0.342803
0.343147
0.346957
0.346456
0.345849
0.345226
0.344605
0.344005
0.343444
0.342941
0.342511
0.342168
0.341921
0.341772
0.341717
0.341749
0.341863
0.342047
0.342287
0.34257
0.342886
0.343228
0.347054
0.346548
0.345937
0.345309
0.344685
0.344081
0.343517
0.343013
0.342583
0.342242
0.341998
0.341852
0.3418
0.341834
0.341951
0.342136
0.342376
0.342659
0.342975
0.343316
0.347156
0.346647
0.346032
0.345402
0.344775
0.34417
0.343606
0.343101
0.342673
0.342332
0.342089
0.341944
0.341892
0.341926
0.342042
0.342227
0.342466
0.342748
0.343062
0.343401
0.347259
0.346748
0.346131
0.345499
0.344871
0.344265
0.343702
0.343198
0.342771
0.342432
0.342189
0.342043
0.34199
0.342022
0.342136
0.342318
0.342555
0.342834
0.343146
0.343482
0.347365
0.34685
0.346231
0.345597
0.344968
0.344362
0.343801
0.3433
0.342876
0.342539
0.342295
0.342148
0.342091
0.342119
0.342229
0.342407
0.342641
0.342917
0.343227
0.34356
0.347472
0.346953
0.34633
0.345693
0.345062
0.344457
0.343899
0.343403
0.342984
0.34265
0.342405
0.342254
0.342191
0.342213
0.342318
0.342492
0.342724
0.342998
0.343305
0.343637
0.347583
0.347058
0.346429
0.345786
0.345151
0.344543
0.343986
0.343498
0.343088
0.34276
0.342513
0.342353
0.34228
0.342296
0.342399
0.342573
0.342804
0.343079
0.343385
0.343715
0.347701
0.347169
0.346531
0.34588
0.345235
0.344618
0.344053
0.343558
0.343145
0.342819
0.342567
0.342408
0.342339
0.342362
0.342472
0.342651
0.342887
0.343164
0.343471
0.343799
0.34783
0.347291
0.346644
0.345982
0.345326
0.344696
0.344116
0.343604
0.343176
0.342844
0.342593
0.342447
0.342396
0.342433
0.342553
0.34274
0.342981
0.343261
0.343568
0.343893
0.347976
0.347429
0.346775
0.346103
0.345436
0.344796
0.344204
0.34368
0.343242
0.3429
0.34266
0.342523
0.342482
0.342529
0.342657
0.342851
0.343096
0.343377
0.343682
0.344004
0.34814
0.347587
0.346925
0.346246
0.345571
0.344923
0.344324
0.343795
0.343353
0.343009
0.342772
0.34264
0.342604
0.342656
0.34279
0.342988
0.343235
0.343516
0.343819
0.344136
0.348323
0.347765
0.347097
0.346411
0.345729
0.345075
0.344471
0.343938
0.343494
0.343151
0.342915
0.342786
0.342754
0.342811
0.342949
0.34315
0.343399
0.34368
0.34398
0.344291
0.348529
0.347965
0.347292
0.3466
0.345911
0.345251
0.344642
0.344106
0.34366
0.343317
0.343083
0.342957
0.342929
0.34299
0.343131
0.343336
0.343586
0.343867
0.344165
0.344471
0.348759
0.348191
0.347512
0.346813
0.346118
0.345452
0.344838
0.344299
0.343851
0.343508
0.343276
0.343153
0.343127
0.343192
0.343337
0.343544
0.343797
0.344077
0.344372
0.344672
0.349018
0.348445
0.347761
0.347056
0.346354
0.345681
0.345062
0.344519
0.34407
0.343726
0.343495
0.343374
0.343352
0.34342
0.343569
0.343779
0.344032
0.344312
0.344603
0.344897
0.34931
0.348733
0.348044
0.347332
0.346623
0.345944
0.34532
0.344772
0.34432
0.343976
0.343746
0.343627
0.343607
0.343679
0.343831
0.344043
0.344297
0.344575
0.344863
0.345149
0.34964
0.349059
0.348365
0.347647
0.346931
0.346245
0.345615
0.345064
0.344609
0.344263
0.344033
0.343915
0.343897
0.343974
0.34413
0.344344
0.344598
0.344874
0.345157
0.345434
0.350013
0.349428
0.34873
0.348006
0.347283
0.34659
0.345954
0.345398
0.344941
0.344594
0.344364
0.344247
0.344232
0.344312
0.34447
0.344686
0.34494
0.345214
0.34549
0.345758
0.350434
0.349847
0.349145
0.348414
0.347684
0.346984
0.346342
0.345781
0.345321
0.344973
0.344744
0.344629
0.344616
0.344699
0.344859
0.345077
0.34533
0.3456
0.345869
0.346126
0.35091
0.350321
0.349615
0.348878
0.348141
0.347434
0.346786
0.34622
0.345756
0.345407
0.345178
0.345064
0.345054
0.34514
0.345303
0.345521
0.345774
0.346039
0.346301
0.346545
0.351449
0.350858
0.350149
0.349407
0.348663
0.347948
0.347293
0.346722
0.346254
0.345903
0.345675
0.345563
0.345556
0.345644
0.345809
0.346028
0.346279
0.34654
0.346793
0.347023
0.352059
0.351467
0.350757
0.350009
0.349257
0.348535
0.347873
0.347296
0.346825
0.346473
0.346244
0.346134
0.346129
0.34622
0.346387
0.346607
0.346855
0.34711
0.347353
0.347568
0.352751
0.35216
0.351448
0.350695
0.349937
0.349208
0.348538
0.347956
0.347481
0.347126
0.346897
0.346788
0.346786
0.34688
0.347048
0.347268
0.347513
0.347761
0.347992
0.348189
0.353537
0.352949
0.352237
0.351481
0.350716
0.349979
0.349302
0.348714
0.348234
0.347877
0.347648
0.34754
0.34754
0.347636
0.347806
0.348025
0.348266
0.348506
0.348722
0.348898
0.354432
0.353849
0.35314
0.35238
0.35161
0.350865
0.350181
0.349586
0.349103
0.348743
0.348513
0.348407
0.348409
0.348507
0.348678
0.348894
0.34913
0.34936
0.349559
0.349709
0.355455
0.354879
0.354174
0.353413
0.352638
0.351886
0.351195
0.350594
0.350106
0.349743
0.349513
0.349407
0.349411
0.349511
0.349681
0.349895
0.350125
0.350341
0.35052
0.350643
0.356625
0.35606
0.355364
0.354603
0.353824
0.353066
0.352368
0.35176
0.351267
0.350902
0.35067
0.350565
0.350571
0.350671
0.350841
0.351051
0.351272
0.351473
0.351629
0.351718
0.357969
0.35742
0.356735
0.355978
0.355196
0.354432
0.353728
0.353114
0.352616
0.352248
0.352014
0.351909
0.351916
0.352017
0.352185
0.352389
0.352598
0.352781
0.352909
0.352959
0.359518
0.35899
0.358322
0.357571
0.356789
0.356021
0.355311
0.354691
0.354188
0.353816
0.353581
0.353476
0.353483
0.353583
0.353747
0.353944
0.354138
0.354297
0.354392
0.354395
0.361308
0.360808
0.360163
0.359423
0.358644
0.357874
0.357159
0.356534
0.356027
0.355651
0.355413
0.355307
0.355314
0.355412
0.35557
0.355755
0.35593
0.356061
0.356115
0.356063
0.363384
0.362921
0.362307
0.361585
0.360812
0.360043
0.359326
0.358696
0.358184
0.357805
0.357564
0.357456
0.357462
0.357555
0.357705
0.357874
0.358026
0.358121
0.358126
0.358008
0.365802
0.365387
0.364815
0.364117
0.363357
0.362593
0.361875
0.361243
0.360727
0.360344
0.3601
0.359989
0.359991
0.360078
0.360215
0.360364
0.360484
0.360536
0.360481
0.360284
0.368627
0.368276
0.367759
0.367097
0.366357
0.365603
0.364889
0.364256
0.363738
0.363351
0.363102
0.362987
0.362984
0.36306
0.363179
0.363301
0.363382
0.363379
0.363252
0.362959
0.371945
0.371676
0.371233
0.37062
0.369911
0.369174
0.368469
0.36784
0.36732
0.366929
0.366675
0.366554
0.366543
0.366603
0.366698
0.366783
0.366813
0.366742
0.366524
0.366114
0.375856
0.375698
0.375353
0.374808
0.374144
0.373435
0.372746
0.372124
0.371607
0.371213
0.370952
0.370822
0.370797
0.370834
0.370895
0.370932
0.370897
0.370742
0.37041
0.369855
0.380503
0.380484
0.380268
0.379816
0.379216
0.37855
0.377887
0.377281
0.376769
0.376372
0.376102
0.375958
0.375914
0.375919
0.375932
0.375905
0.375787
0.375521
0.375046
0.374311
0.386053
0.386215
0.38617
0.385845
0.385337
0.384734
0.384113
0.383531
0.38303
0.382633
0.38235
0.382187
0.382112
0.382071
0.382019
0.381909
0.381682
0.381271
0.380614
0.379653
0.392732
0.393106
0.393305
0.393159
0.392782
0.392272
0.391713
0.39117
0.390689
0.390294
0.389996
0.389802
0.389683
0.389575
0.389438
0.389218
0.388838
0.388238
0.387346
0.386096
0.400882
0.401545
0.402006
0.402117
0.401923
0.401545
0.401079
0.400596
0.400147
0.399761
0.399447
0.399204
0.399016
0.398828
0.398567
0.39818
0.397597
0.396746
0.395548
0.393928
0.4109
0.411972
0.412788
0.413207
0.413259
0.413067
0.412736
0.412344
0.411946
0.411576
0.411248
0.410955
0.410666
0.41033
0.40989
0.409278
0.408419
0.407232
0.40563
0.403528
0.42332
0.424939
0.426262
0.427031
0.427452
0.427532
0.427399
0.427139
0.426816
0.426468
0.426109
0.425732
0.425305
0.424778
0.424088
0.423166
0.421927
0.420285
0.418144
0.415408
0.438895
0.441273
0.443324
0.444608
0.4454
0.445879
0.446027
0.445958
0.445747
0.445434
0.445034
0.444538
0.443917
0.443118
0.442079
0.440723
0.438962
0.436702
0.433836
0.430256
0.458617
0.462041
0.465102
0.467185
0.468501
0.469332
0.469877
0.470072
0.47003
0.469775
0.469321
0.468662
0.467769
0.466594
0.46507
0.463118
0.460644
0.457545
0.453704
0.448998
0.483787
0.488632
0.493058
0.49623
0.498382
0.499718
0.500497
0.501027
0.501289
0.501137
0.500621
0.499745
0.498487
0.4968
0.494619
0.491862
0.488428
0.484206
0.479063
0.472859
0.516055
0.52278
0.528997
0.5336
0.536872
0.539057
0.540369
0.541064
0.541458
0.541483
0.540886
0.539729
0.537996
0.535644
0.532608
0.528801
0.524114
0.518423
0.511577
0.50341
0.557363
0.566484
0.574961
0.581354
0.586013
0.589246
0.59131
0.592399
0.592856
0.592935
0.592221
0.590723
0.588413
0.585245
0.581152
0.576039