/*--------------------------------*- C++ -*----------------------------------*\
  =========                 |
  \\      /  F ield         | OpenFOAM: The Open Source CFD Toolbox
   \\    /   O peration     | Website:  https://openfoam.org
    \\  /    A nd           | Version:  6
     \\/     M anipulation  |
\*---------------------------------------------------------------------------*/
FoamFile
{
    version     2.0;
    format      ascii;
    class       volScalarField;
    location    "13";
    object      nut;
}
// * * * * * * * * * * * * * * * * * * * * * * * * * * * * * * * * * * * * * //

dimensions      [0 2 -1 0 0 0 0];

internalField   nonuniform List<scalar> 
10000
(
1.3791e-05
6.91397e-05
9.22751e-05
0.000123126
0.000164898
0.000215621
0.000268181
0.000315352
0.000351584
0.000372008
0.000373279
0.000354791
0.000319666
0.000272765
0.000219921
0.000168364
0.000125255
9.44365e-05
6.9859e-05
1.38679e-05
1.38462e-05
6.93731e-05
9.31683e-05
0.000124975
0.000166718
0.000218825
0.000271309
0.000317406
0.000353674
0.000374657
0.000380318
0.000362134
0.000326568
0.000279168
0.000225278
0.000171619
0.000125438
9.457e-05
6.94696e-05
1.38177e-05
1.38551e-05
6.93643e-05
9.12151e-05
0.000123641
0.000167013
0.00021878
0.000272917
0.000319571
0.000356193
0.000376608
0.000375938
0.000357109
0.000322592
0.000277137
0.00022367
0.00016945
0.000126323
9.42682e-05
7.02845e-05
1.37711e-05
1.38174e-05
6.88083e-05
9.3324e-05
0.000123608
0.000165897
0.000218956
0.000270968
0.000319349
0.000357315
0.000376445
0.00037528
0.000358396
0.000321066
0.00027563
0.000223078
0.000169797
0.000126824
9.598e-05
7.08897e-05
1.38057e-05
1.38994e-05
6.85811e-05
9.04747e-05
0.000121616
0.000167608
0.000219207
0.000272801
0.000323333
0.000357904
0.000375546
0.000375586
0.000357254
0.000321428
0.000276227
0.000223729
0.000171044
0.000126471
9.73317e-05
7.01181e-05
1.36657e-05
1.388e-05
7.02706e-05
9.26428e-05
0.000121389
0.000166667
0.000220104
0.000272587
0.00032263
0.000359269
0.000379624
0.000381112
0.000363641
0.000324673
0.000275255
0.000223222
0.000172097
0.000128571
9.56295e-05
7.0165e-05
1.37134e-05
1.39041e-05
6.97719e-05
9.19903e-05
0.000121934
0.000169093
0.000221668
0.000273459
0.000322917
0.000359457
0.000379696
0.000380268
0.000362658
0.000325396
0.000276429
0.000226164
0.000173359
0.000127168
9.69135e-05
7.01799e-05
1.37973e-05
1.38031e-05
6.93854e-05
9.19211e-05
0.000122548
0.000167128
0.000219613
0.00027559
0.000323358
0.000358773
0.000381086
0.000381407
0.000359985
0.000325131
0.000276761
0.000229274
0.000177056
0.000127462
9.53718e-05
6.99469e-05
1.37935e-05
1.37328e-05
6.91468e-05
9.19852e-05
0.000123657
0.000167623
0.000222618
0.000275806
0.00032153
0.000360398
0.0003823
0.000383004
0.000362158
0.000323372
0.000276007
0.00022553
0.000174971
0.000128246
9.55076e-05
6.99367e-05
1.3806e-05
1.34685e-05
6.9099e-05
9.15677e-05
0.000125869
0.000167434
0.000219979
0.00027484
0.000320653
0.000356406
0.000376626
0.000377899
0.000361171
0.000323622
0.000276362
0.000224489
0.000174357
0.000129773
9.63977e-05
7.04291e-05
1.39938e-05
1.37282e-05
6.93643e-05
9.32e-05
0.000124019
0.000167525
0.000221353
0.000274425
0.000320789
0.000356777
0.000377016
0.000380179
0.000361927
0.000328356
0.000279839
0.000228741
0.000175002
0.00013129
9.74418e-05
7.08592e-05
1.41751e-05
1.37118e-05
6.81657e-05
9.4713e-05
0.000125582
0.000167224
0.000218737
0.000272764
0.000321174
0.000359204
0.000379475
0.000379866
0.000359758
0.000325112
0.000278742
0.00022655
0.000176775
0.000132903
0.000100431
7.22119e-05
1.42545e-05
1.38144e-05
6.93078e-05
9.40592e-05
0.000123468
0.000168256
0.000219925
0.000274315
0.000322617
0.00035681
0.000377135
0.000378865
0.000361815
0.000323896
0.000276681
0.000225958
0.000175185
0.000132153
9.744e-05
7.24527e-05
1.41764e-05
1.36364e-05
6.90598e-05
9.27252e-05
0.000123293
0.000166682
0.000217663
0.000271894
0.00031987
0.000356644
0.000380263
0.000382631
0.00036487
0.000326711
0.000276963
0.000224765
0.000173779
0.000129914
9.69412e-05
7.12929e-05
1.39199e-05
1.38372e-05
6.90309e-05
9.29271e-05
0.00012352
0.000168619
0.000218783
0.000271951
0.00032241
0.000358433
0.000377033
0.000381662
0.000362916
0.000327915
0.000280736
0.000226601
0.000176599
0.000129856
9.72108e-05
7.11133e-05
1.38603e-05
1.38524e-05
6.9106e-05
9.33019e-05
0.000123584
0.000166491
0.00021629
0.000269574
0.000319358
0.000355679
0.000376838
0.00037747
0.000358689
0.000323115
0.000277287
0.000225444
0.000174529
0.000129854
9.65798e-05
7.04281e-05
1.37031e-05
1.37623e-05
6.91344e-05
9.46211e-05
0.00012481
0.000166049
0.000216332
0.000269929
0.000320566
0.000357926
0.000374397
0.00037432
0.000357967
0.000323384
0.000279203
0.000223986
0.00017213
0.000128735
9.51655e-05
6.91332e-05
1.36407e-05
1.37839e-05
6.90933e-05
9.3233e-05
0.000122719
0.000167159
0.000217066
0.000271319
0.000318967
0.000355792
0.000375539
0.000377894
0.00035641
0.000324869
0.000277838
0.000226515
0.000173604
0.000126333
9.35351e-05
6.94237e-05
1.35151e-05
1.36085e-05
6.87084e-05
9.4445e-05
0.000122744
0.000164009
0.000214205
0.000267532
0.000316864
0.000352378
0.000371937
0.000372449
0.00035389
0.000321218
0.000273708
0.000221605
0.000170649
0.000126042
9.4472e-05
6.85221e-05
1.3487e-05
1.35675e-05
6.85776e-05
9.20245e-05
0.000122747
0.000164823
0.000214705
0.000268073
0.000317041
0.000353245
0.000374498
0.000374011
0.000354124
0.000320897
0.000272603
0.000218616
0.000167931
0.000124867
9.38307e-05
6.89971e-05
1.35147e-05
1.3742e-05
6.90139e-05
9.3124e-05
0.000124961
0.000166106
0.000215311
0.000269108
0.000316002
0.000354116
0.000373933
0.000373376
0.000356143
0.000320731
0.000273388
0.000221995
0.000170557
0.000125056
9.35606e-05
6.87995e-05
1.35707e-05
1.36336e-05
6.88886e-05
9.39578e-05
0.000123581
0.000165142
0.000216967
0.000270678
0.000316244
0.000352874
0.000376619
0.000377584
0.000354589
0.000320673
0.000271385
0.000218038
0.000168022
0.000125229
9.33263e-05
7.03748e-05
1.35377e-05
1.35124e-05
6.86206e-05
9.22461e-05
0.000124855
0.000165662
0.000216603
0.000269605
0.00031749
0.00035429
0.000375972
0.00037478
0.000354101
0.000320943
0.000269192
0.000216326
0.000166672
0.000126961
9.5112e-05
6.98228e-05
1.37296e-05
1.35805e-05
6.9971e-05
9.57338e-05
0.000125281
0.000166199
0.000216838
0.00026911
0.000316922
0.000353112
0.000372328
0.000373558
0.000354487
0.000316877
0.000269041
0.000216807
0.000166902
0.000125599
9.66446e-05
7.00653e-05
1.39995e-05
1.3598e-05
6.87362e-05
9.52027e-05
0.000124226
0.000167245
0.000219798
0.000272185
0.000318073
0.000356399
0.000374739
0.0003728
0.000353392
0.000319053
0.000270368
0.000218087
0.00016772
0.000125055
9.63052e-05
7.0593e-05
1.40238e-05
1.37553e-05
7.05363e-05
9.52607e-05
0.000123877
0.000167467
0.000219546
0.000271931
0.000319589
0.000355717
0.000373854
0.000373579
0.000354195
0.000320548
0.000273189
0.000220335
0.000171022
0.00012766
9.5823e-05
7.08244e-05
1.4071e-05
1.35706e-05
6.99301e-05
9.67725e-05
0.000126618
0.000169974
0.000219453
0.000271199
0.000318745
0.000355857
0.000378441
0.000378113
0.000357782
0.000320762
0.000271847
0.000219477
0.000170284
0.000127225
9.62962e-05
7.11246e-05
1.39359e-05
1.36841e-05
7.00154e-05
9.60333e-05
0.000125221
0.000168616
0.000220779
0.000272523
0.000322281
0.000359834
0.000381246
0.000380192
0.000358253
0.000319873
0.0002736
0.000221273
0.00017096
0.000129343
9.6828e-05
7.20313e-05
1.42088e-05
1.36585e-05
7.03287e-05
9.44343e-05
0.000126951
0.000171061
0.000223298
0.00027547
0.000321408
0.000359477
0.000379913
0.000377244
0.000358037
0.000321629
0.00027383
0.000219692
0.000169939
0.000128066
9.71231e-05
7.15435e-05
1.42209e-05
1.3771e-05
6.96773e-05
9.45073e-05
0.000124965
0.000168316
0.000221018
0.000275425
0.000322254
0.000360433
0.000378783
0.000381346
0.000360961
0.000324263
0.000276185
0.000222823
0.00016961
0.00012928
9.60339e-05
7.15694e-05
1.40637e-05
1.38336e-05
6.96297e-05
9.57563e-05
0.00012489
0.000169047
0.000221402
0.000274028
0.000319676
0.000355714
0.000375516
0.000377895
0.000361011
0.000324368
0.000273832
0.000220681
0.000169262
0.000129066
9.7156e-05
7.16905e-05
1.38272e-05
1.40385e-05
7.08128e-05
9.39736e-05
0.000125575
0.000171068
0.000221533
0.000274663
0.000321919
0.000359931
0.000377899
0.000376291
0.000357127
0.000320981
0.000272817
0.000221799
0.000169303
0.000127699
9.5143e-05
7.04597e-05
1.40936e-05
1.41985e-05
7.088e-05
9.40128e-05
0.000128081
0.000169961
0.000220508
0.000275949
0.000322382
0.000355569
0.000374603
0.000376097
0.000360032
0.000322149
0.0002728
0.000219507
0.000169317
0.000129684
9.86062e-05
7.00112e-05
1.39315e-05
1.42737e-05
7.03687e-05
9.36983e-05
0.000127366
0.000170954
0.000220732
0.000274542
0.0003225
0.000357969
0.000375269
0.000376511
0.000360827
0.000324523
0.000273686
0.000220051
0.000168888
0.000126204
9.66234e-05
7.04201e-05
1.38706e-05
1.40568e-05
7.02995e-05
9.28721e-05
0.000126847
0.000172757
0.000222591
0.000274911
0.00032308
0.000356845
0.000374725
0.000375818
0.000358332
0.00032665
0.000274599
0.000220696
0.000169481
0.000126975
9.54752e-05
7.02864e-05
1.3932e-05
1.41186e-05
7.09502e-05
9.53151e-05
0.000127823
0.000171302
0.000220915
0.000274096
0.000318684
0.000355639
0.000375095
0.000378399
0.000360245
0.000323918
0.000276643
0.000222052
0.000170727
0.000127912
9.5979e-05
6.95659e-05
1.39038e-05
1.40811e-05
6.99406e-05
9.44451e-05
0.000129503
0.000173685
0.000221444
0.000272036
0.000317922
0.000353434
0.000375304
0.000376047
0.000358121
0.000324036
0.000277297
0.000225122
0.000171021
0.000129738
9.54944e-05
7.03578e-05
1.38625e-05
1.40461e-05
7.06858e-05
9.53438e-05
0.000128347
0.000172522
0.000223895
0.000274703
0.000320406
0.000354197
0.000374433
0.000379647
0.000362517
0.000324063
0.000274322
0.000221191
0.000170781
0.000130157
9.71633e-05
7.00813e-05
1.38482e-05
1.40065e-05
7.18707e-05
9.72515e-05
0.000130318
0.000171022
0.000221078
0.000272936
0.000321343
0.000356977
0.000376616
0.000377244
0.00035874
0.000322953
0.000274099
0.000223589
0.00017082
0.000128859
9.49783e-05
6.99218e-05
1.36886e-05
1.38324e-05
7.08427e-05
9.64342e-05
0.000128759
0.000172183
0.000222918
0.000273467
0.00032052
0.000356219
0.000376199
0.000377088
0.000358335
0.000324272
0.000274496
0.000224581
0.000170668
0.000126812
9.39459e-05
6.9223e-05
1.36465e-05
1.37446e-05
7.02566e-05
9.40487e-05
0.000126873
0.000170153
0.000222713
0.000274346
0.000319725
0.000354129
0.000373854
0.000373067
0.000356316
0.000320003
0.00027461
0.000222625
0.00017043
0.000128245
9.51162e-05
6.95784e-05
1.35172e-05
1.36548e-05
6.94038e-05
9.33508e-05
0.000126906
0.000170995
0.00022452
0.000276384
0.000319739
0.00035246
0.000371204
0.000371741
0.000352924
0.000319944
0.000272544
0.000221839
0.000169787
0.000126207
9.43733e-05
7.00487e-05
1.36165e-05
1.3775e-05
7.04707e-05
9.33939e-05
0.000128345
0.000170804
0.000223863
0.000273063
0.000319555
0.000352237
0.000373659
0.000375594
0.000353347
0.000317933
0.000272097
0.000220256
0.00017092
0.000127197
9.41286e-05
6.91938e-05
1.37535e-05
1.37054e-05
6.96896e-05
9.4819e-05
0.000125769
0.000171878
0.000220835
0.000273395
0.000317139
0.000351729
0.00037164
0.000373809
0.000355511
0.000320272
0.000270578
0.000218463
0.000168184
0.000129127
9.70771e-05
7.04102e-05
1.37769e-05
1.39012e-05
6.929e-05
9.52812e-05
0.000125297
0.000168282
0.000218047
0.000271766
0.000317159
0.000352468
0.000373127
0.000372395
0.000353429
0.000318964
0.000270729
0.00022031
0.000167809
0.000126184
9.48409e-05
7.08321e-05
1.40493e-05
1.37559e-05
7.01471e-05
9.49045e-05
0.000125685
0.000167831
0.000218476
0.00027366
0.000320548
0.000355355
0.000372024
0.000372586
0.0003553
0.000317914
0.000270517
0.000219342
0.000168029
0.000126543
9.45857e-05
7.06645e-05
1.39491e-05
1.39817e-05
7.0324e-05
9.63829e-05
0.000125934
0.000167542
0.00021866
0.000272911
0.000318743
0.000353751
0.000372506
0.000374586
0.000355026
0.000319202
0.000272348
0.000218922
0.000168652
0.000128297
9.6831e-05
7.03957e-05
1.36485e-05
1.39665e-05
7.01382e-05
9.64466e-05
0.000127869
0.000168202
0.000219421
0.000272549
0.000319727
0.000356483
0.000374124
0.000374052
0.000358967
0.000318616
0.00027152
0.000219701
0.000169719
0.000126367
9.43002e-05
6.96079e-05
1.39012e-05
1.38353e-05
7.02606e-05
9.61026e-05
0.000126034
0.000167822
0.000220857
0.000276696
0.000323188
0.000360275
0.000377029
0.000374314
0.000356134
0.000320693
0.000273087
0.000219
0.000168094
0.000128051
9.61944e-05
7.03429e-05
1.38179e-05
1.38351e-05
6.99619e-05
9.51306e-05
0.000125709
0.00016781
0.000218701
0.000272341
0.000323078
0.000358631
0.000378764
0.000376323
0.000355339
0.000320127
0.000270533
0.000218012
0.000167616
0.000126236
9.60799e-05
7.00849e-05
1.36468e-05
1.38217e-05
7.00116e-05
9.6184e-05
0.000126896
0.00016822
0.000218595
0.000273576
0.000319278
0.000358673
0.000376233
0.000373567
0.000353025
0.000316778
0.000269055
0.000217285
0.000167859
0.00012584
9.55175e-05
7.0026e-05
1.38035e-05
1.35833e-05
7.00852e-05
9.55773e-05
0.000128624
0.000169621
0.000220099
0.000270566
0.000317655
0.000356888
0.000377631
0.000378633
0.000357476
0.000322084
0.000271944
0.000219707
0.000167953
0.000126593
9.40519e-05
6.99306e-05
1.37893e-05
1.37332e-05
6.84642e-05
9.40943e-05
0.000126984
0.00016885
0.000218738
0.000270627
0.00031699
0.000353902
0.000372058
0.000373992
0.000355248
0.00031944
0.000270714
0.000219624
0.000168537
0.000128535
9.38266e-05
6.90767e-05
1.37262e-05
1.37867e-05
6.98241e-05
9.49611e-05
0.000129228
0.000170917
0.000219842
0.000273448
0.000317317
0.000351863
0.000370587
0.000371528
0.000353547
0.000318591
0.000272415
0.000220932
0.000168557
0.000126626
9.35249e-05
6.95182e-05
1.36925e-05
1.37536e-05
6.99443e-05
9.40456e-05
0.00012815
0.00017006
0.000222221
0.00027186
0.000317794
0.000354229
0.000371553
0.00037197
0.000355332
0.000322087
0.000271079
0.000218133
0.000167757
0.000125664
9.41174e-05
6.9252e-05
1.35198e-05
1.36352e-05
6.99209e-05
9.43851e-05
0.000127202
0.000171426
0.000221426
0.000272172
0.000319283
0.000354447
0.000374191
0.000372412
0.000354698
0.000318523
0.000272743
0.000220526
0.000169403
0.000126314
9.5417e-05
7.0314e-05
1.36025e-05
1.36414e-05
7.04385e-05
9.51412e-05
0.000128484
0.000170779
0.000219578
0.000272065
0.000319707
0.000353697
0.000372759
0.000374138
0.000353692
0.000318876
0.00027337
0.000220922
0.000171562
0.00012807
9.35145e-05
6.99886e-05
1.35091e-05
1.3526e-05
6.90655e-05
9.51635e-05
0.000126664
0.00016908
0.000220983
0.000272204
0.000320274
0.000354503
0.000373118
0.000372895
0.000354388
0.000321075
0.000272431
0.000220117
0.000170225
0.000126988
9.41905e-05
6.98963e-05
1.36054e-05
1.34835e-05
6.94015e-05
9.38347e-05
0.000127853
0.0001711
0.000221184
0.000273105
0.000322623
0.000358004
0.000377196
0.000377005
0.000357758
0.000320453
0.000273211
0.000221016
0.000172411
0.000129401
9.62569e-05
6.92458e-05
1.37458e-05
1.34987e-05
6.8925e-05
9.46591e-05
0.000126885
0.000170028
0.000222105
0.000273711
0.000324823
0.000361685
0.000380833
0.000376513
0.000357131
0.000323309
0.000275369
0.000223938
0.000171018
0.000128077
9.52983e-05
7.01882e-05
1.37579e-05
1.35818e-05
6.97248e-05
9.41193e-05
0.000127088
0.000171504
0.000222031
0.000274114
0.000322025
0.000360064
0.000381167
0.000381538
0.000359744
0.000323681
0.000278847
0.000222555
0.000169995
0.000127458
9.64539e-05
7.089e-05
1.37974e-05
1.35064e-05
7.0489e-05
9.4239e-05
0.000128902
0.000172823
0.000223322
0.000277197
0.000323763
0.000361433
0.000382659
0.00038036
0.000358548
0.000322413
0.000276047
0.000221785
0.000170451
0.000127594
9.49631e-05
7.06393e-05
1.3719e-05
1.35755e-05
7.01633e-05
9.51542e-05
0.000128085
0.000171613
0.000222718
0.00027588
0.00032402
0.000363911
0.0003836
0.000381499
0.00035975
0.000323425
0.000276176
0.000225355
0.000172702
0.00012973
9.64229e-05
7.00598e-05
1.36559e-05
1.35693e-05
7.07205e-05
9.55417e-05
0.00012898
0.000173947
0.000227238
0.000279802
0.000329605
0.000362986
0.00038263
0.000384173
0.000364018
0.000327453
0.000278727
0.00022379
0.000171596
0.000128695
9.5537e-05
7.00932e-05
1.35934e-05
1.35372e-05
6.96075e-05
9.68269e-05
0.000130275
0.000175947
0.000227682
0.000280463
0.000331175
0.000366758
0.000386479
0.000385855
0.000365147
0.000328833
0.000280026
0.000227175
0.000172274
0.000127616
9.42228e-05
7.01209e-05
1.37555e-05
1.35388e-05
7.06173e-05
9.66579e-05
0.000131315
0.000176392
0.00022818
0.000281765
0.00033287
0.000368911
0.000388624
0.000388888
0.000370583
0.000331734
0.000282904
0.000226729
0.000175408
0.000128386
9.50159e-05
7.0226e-05
1.36668e-05
1.34838e-05
6.95769e-05
9.5601e-05
0.00013083
0.000176786
0.000232652
0.000285555
0.000334124
0.000372983
0.000394087
0.000394185
0.000372787
0.000332347
0.000284227
0.00022758
0.000175148
0.000129136
9.49031e-05
7.03168e-05
1.35231e-05
1.33616e-05
7.00864e-05
9.57349e-05
0.000132418
0.000180311
0.000233794
0.000287003
0.000335677
0.000373152
0.000394711
0.000396232
0.000375646
0.000336848
0.000285985
0.0002318
0.000177666
0.000130996
9.64491e-05
7.09762e-05
1.35771e-05
1.33485e-05
6.91591e-05
9.58142e-05
0.000132991
0.000180641
0.000235157
0.000289325
0.000337867
0.000375838
0.000398063
0.000397252
0.00037734
0.000339369
0.000287769
0.000230719
0.000176901
0.00012994
9.4857e-05
6.93618e-05
1.34211e-05
1.32772e-05
6.9125e-05
9.60084e-05
0.000132587
0.00018275
0.00023772
0.000292131
0.000341401
0.000379299
0.000399988
0.000405027
0.00038548
0.000345119
0.000293239
0.000232681
0.000177161
0.000131667
9.62893e-05
7.0205e-05
1.33407e-05
1.32306e-05
6.92075e-05
9.72944e-05
0.000134848
0.000184339
0.000240813
0.000297894
0.000348558
0.000387331
0.000408813
0.000407414
0.000387139
0.000349404
0.000294857
0.000234175
0.000177901
0.000131853
9.61822e-05
6.97386e-05
1.33029e-05
1.31196e-05
6.89022e-05
9.69985e-05
0.000134519
0.000184925
0.000242763
0.000300036
0.000350748
0.000389788
0.000412956
0.000414058
0.000393504
0.000353766
0.000297977
0.00023878
0.000180296
0.00013236
9.61209e-05
6.92683e-05
1.31847e-05
1.3034e-05
6.87107e-05
9.70993e-05
0.000135298
0.000184786
0.000244816
0.000303456
0.000355396
0.000394932
0.000417822
0.000418309
0.000397555
0.00035772
0.000302703
0.0002402
0.000179897
0.000131726
9.64185e-05
6.89278e-05
1.31201e-05
1.29165e-05
6.83507e-05
9.65109e-05
0.000134094
0.000187393
0.000248066
0.00030851
0.000362352
0.00040289
0.000425256
0.000425615
0.000403401
0.000361888
0.000305957
0.000242419
0.000182463
0.000132439
9.62558e-05
6.86223e-05
1.29929e-05
1.28434e-05
6.88568e-05
9.60736e-05
0.000133484
0.000185702
0.000249209
0.000312534
0.000367346
0.000408649
0.000430275
0.000430581
0.000407721
0.000365674
0.000308917
0.000244034
0.000182813
0.000132034
9.63188e-05
6.91802e-05
1.29546e-05
1.2724e-05
6.84069e-05
9.57127e-05
0.000133499
0.000184319
0.000251694
0.000316713
0.000373529
0.000415432
0.000436989
0.000436887
0.000411328
0.000368592
0.000311775
0.000245537
0.000183433
0.000131405
9.61101e-05
6.91487e-05
1.28569e-05
1.25896e-05
6.76962e-05
9.52299e-05
0.000134166
0.000186066
0.000253903
0.000321073
0.000379286
0.000422214
0.000444885
0.000444805
0.00042
0.000375152
0.000315586
0.000246406
0.000183674
0.000131738
9.59063e-05
6.87713e-05
1.27157e-05
1.24422e-05
6.73637e-05
9.48307e-05
0.000135238
0.000188205
0.000254686
0.000325681
0.000386021
0.000430708
0.000454763
0.000453871
0.000428095
0.000381995
0.000320723
0.000250372
0.000188409
0.000133621
9.57984e-05
6.88331e-05
1.25573e-05
1.22312e-05
6.74624e-05
9.40958e-05
0.000136263
0.00019214
0.000259047
0.000331698
0.000393793
0.000439997
0.000464756
0.000463552
0.00043677
0.000389172
0.000326736
0.000255942
0.000188795
0.000136278
9.5087e-05
6.80932e-05
1.22366e-05
1.19417e-05
6.63178e-05
9.3144e-05
0.000136399
0.000191107
0.000265786
0.000338995
0.000402945
0.000450896
0.000476198
0.000475087
0.000447598
0.000398296
0.000333261
0.00025943
0.000189964
0.000136594
9.49439e-05
6.76092e-05
1.18636e-05
1.16227e-05
6.56347e-05
9.28925e-05
0.000136099
0.00019326
0.000267587
0.000345693
0.000412529
0.000462234
0.000488453
0.000487564
0.000459775
0.000409023
0.000341425
0.000263701
0.000195287
0.000137686
9.49218e-05
6.66172e-05
1.13486e-05
1.12323e-05
6.39309e-05
9.05392e-05
0.000134741
0.000196442
0.000277204
0.00035536
0.000423926
0.00047504
0.000502
0.000501055
0.00047231
0.000419998
0.000350257
0.000269864
0.000198408
0.000138013
9.39947e-05
6.52471e-05
1.07339e-05
1.08582e-05
6.31757e-05
8.97551e-05
0.000135653
0.000201161
0.000282019
0.000364347
0.000435739
0.000488711
0.000516744
0.000516131
0.000486929
0.000433043
0.000360946
0.000277705
0.000202764
0.000139367
9.38034e-05
6.38558e-05
1.02254e-05
1.03936e-05
6.26631e-05
9.08153e-05
0.000139952
0.000210389
0.000288964
0.000375228
0.000449007
0.000503471
0.000532327
0.000531953
0.000502323
0.000447074
0.000372755
0.000286931
0.00020763
0.000142092
9.3793e-05
6.23367e-05
9.98306e-06
9.81042e-06
6.16825e-05
9.32363e-05
0.000143388
0.000214943
0.000301451
0.000387681
0.000462918
0.00051871
0.000548406
0.000548228
0.000518104
0.000461716
0.000386225
0.000301296
0.000217484
0.00014959
9.40536e-05
6.08945e-05
9.77645e-06
9.53651e-06
6.00953e-05
9.49467e-05
0.000150308
0.00022804
0.000312215
0.000399546
0.00047684
0.00053411
0.000564588
0.000564458
0.000534015
0.000476086
0.000398431
0.000312082
0.000230463
0.000155067
9.52473e-05
5.96215e-05
9.73197e-06
9.66967e-06
5.88617e-05
9.67002e-05
0.000161016
0.000238822
0.000328662
0.000419208
0.000498655
0.000556841
0.00058774
0.000587772
0.000556754
0.000497668
0.000417502
0.000327201
0.000239271
0.000165687
0.000100451
5.94328e-05
1.0003e-05
1.0199e-05
5.88914e-05
0.000103849
0.000170049
0.000255591
0.0003504
0.0004446
0.000529499
0.000588642
0.00061686
0.000616001
0.000584881
0.000527372
0.000446257
0.000352757
0.000258301
0.000175571
0.000106085
5.88281e-05
1.01869e-05
1.05369e-05
6.09109e-05
0.000115304
0.000189807
0.00027716
0.000376224
0.000473963
0.000560186
0.000620547
0.000651152
0.00064874
0.00061653
0.000556058
0.000472452
0.000375717
0.000275853
0.000188813
0.000115346
6.04036e-05
1.09024e-05
1.14952e-05
6.40409e-05
0.000125139
0.000202703
0.000300132
0.00040883
0.000508161
0.00059367
0.000652558
0.000682748
0.000682843
0.000652444
0.000592933
0.000508017
0.000403753
0.000298665
0.000200262
0.000122262
6.28425e-05
1.15336e-05
1.2263e-05
6.80368e-05
0.000136018
0.000224504
0.000328612
0.000440153
0.000544999
0.000627515
0.000684473
0.000713504
0.000713507
0.000684297
0.00062663
0.000542889
0.00043864
0.000328654
0.000224347
0.000132967
6.71029e-05
1.23054e-05
1.33446e-05
7.03444e-05
0.000147119
0.000246172
0.000359022
0.000478001
0.000581067
0.000661651
0.000716209
0.000743599
0.000743626
0.000716183
0.000661249
0.000579849
0.000475623
0.000358668
0.000245273
0.000147086
7.08323e-05
1.34254e-05
1.4718e-05
7.49938e-05
0.000158785
0.000269233
0.000392321
0.000514944
0.000617891
0.000695509
0.000746434
0.000771465
0.000771474
0.00074638
0.000695174
0.000617099
0.00051378
0.000391391
0.000268968
0.000160092
7.44984e-05
1.45583e-05
1.5918e-05
7.99296e-05
0.000176813
0.000299252
0.000432362
0.000555351
0.00065557
0.000728105
0.000773842
0.000795737
0.000795729
0.000773738
0.000727652
0.000654395
0.000552879
0.000427923
0.00029679
0.000176631
8.02666e-05
1.59784e-05
1.74602e-05
8.75958e-05
0.00019588
0.000328652
0.000469785
0.000595714
0.000692681
0.000758561
0.00079777
0.000816003
0.000816036
0.000797853
0.00075858
0.000692585
0.000595257
0.000468003
0.000327711
0.000194485
8.70745e-05
1.74403e-05
1.89956e-05
9.79037e-05
0.000217223
0.000364601
0.000516223
0.000642307
0.000732051
0.000787896
0.000818181
0.00083101
0.000831029
0.000818306
0.000787846
0.000731956
0.000642231
0.000516299
0.000364978
0.000217655
9.8088e-05
1.90064e-05
2.04572e-05
0.000112676
0.000248054
0.000413711
0.000574951
0.000696495
0.00077234
0.000814096
0.000833724
0.000840714
0.000840654
0.000833459
0.000813983
0.000772256
0.000696303
0.000574505
0.000412872
0.000247265
0.000112258
2.04756e-05
2.21359e-05
0.000132627
0.000292887
0.000487579
0.000653341
0.000757468
0.000811193
0.000834376
0.000843488
0.000846954
0.000846967
0.000843521
0.000834441
0.000811266
0.000757589
0.000653671
0.000488134
0.000293516
0.000133016
2.21218e-05
2.37323e-05
0.000165725
0.0003854
0.000610054
0.000754163
0.000817224
0.000839101
0.000846286
0.000849758
0.000851109
0.000851107
0.000849745
0.000846224
0.000838944
0.000816981
0.000753715
0.000609315
0.00038422
0.000165194
2.37737e-05
2.56379e-05
0.000278655
0.000619588
0.000786977
0.000831778
0.00084458
0.000849532
0.000851578
0.000851944
0.000851949
0.000851948
0.000851939
0.000851548
0.000849485
0.000844524
0.000831628
0.000786761
0.000620277
0.000279106
2.56269e-05
3.70391e-05
0.000109217
0.000131394
0.000153813
0.000186055
0.000229708
0.000283198
0.000339349
0.00038758
0.000414489
0.000413707
0.000383084
0.000332565
0.000274974
0.000221656
0.000182462
0.000154592
0.000132087
0.000108175
3.65302e-05
3.67216e-05
0.00011004
0.00013201
0.000154731
0.000187195
0.000232321
0.000287554
0.000345609
0.000396133
0.000423823
0.000424652
0.000392562
0.000340281
0.00028124
0.00022322
0.000183344
0.000158082
0.000135565
0.000108505
3.6661e-05
3.72378e-05
0.000110679
0.000131548
0.000155632
0.000188074
0.000230022
0.000285397
0.000340522
0.000388957
0.000416747
0.000421101
0.000389989
0.000338126
0.000279025
0.000222827
0.000183313
0.000153914
0.000131236
0.000109764
3.57375e-05
3.64855e-05
0.00011013
0.00013691
0.000159124
0.000190864
0.000230347
0.000284823
0.000340467
0.000390387
0.000419985
0.000424277
0.000391039
0.000336952
0.000279121
0.000223361
0.000186356
0.000153138
0.000131986
0.000104855
3.61798e-05
3.63857e-05
0.00010781
0.000134901
0.000156254
0.000188625
0.00023083
0.000285002
0.000346505
0.000399786
0.000429874
0.000424564
0.000387782
0.0003419
0.000276769
0.000223284
0.000182684
0.000153567
0.000131014
0.000107345
3.59722e-05
3.68538e-05
0.000106352
0.000132795
0.0001566
0.000190432
0.000231881
0.000287081
0.000344005
0.000396651
0.000426942
0.000420112
0.000390681
0.000336613
0.000280229
0.000224932
0.000183381
0.000153476
0.000132425
0.000106805
3.66394e-05
3.74794e-05
0.000110444
0.000135222
0.000158169
0.000193276
0.000233922
0.000288411
0.0003417
0.000395897
0.000427452
0.000426228
0.000383888
0.000331109
0.000274797
0.000224926
0.000187225
0.000155949
0.000132151
0.000111884
3.67214e-05
3.64325e-05
0.000112075
0.000134015
0.00015857
0.000190823
0.000233621
0.000284156
0.000342234
0.000396442
0.00042031
0.000417439
0.000387927
0.000335773
0.000276847
0.000228206
0.000184892
0.000150535
0.000135432
0.000114743
3.6744e-05
3.68414e-05
0.000109375
0.000136459
0.00016237
0.000190409
0.000231155
0.000287322
0.000346361
0.000393726
0.00042606
0.000423429
0.000382106
0.000331399
0.000276773
0.000226009
0.000185688
0.000151042
0.000130734
0.000110667
3.6629e-05
3.70159e-05
0.000109523
0.000133954
0.000159266
0.000192146
0.000232616
0.000285952
0.000342854
0.0003846
0.000412571
0.000411758
0.000381732
0.000332331
0.000280081
0.000224223
0.000184363
0.00015173
0.00012813
0.000108501
3.63718e-05
3.5737e-05
0.000109849
0.000130757
0.000156648
0.000190183
0.000229856
0.000284433
0.000340205
0.0003826
0.000412278
0.000413867
0.000388593
0.000335804
0.000278275
0.000223422
0.000185526
0.000151286
0.000129351
0.000109352
3.58088e-05
3.6302e-05
0.000109022
0.000130007
0.000160392
0.000194159
0.000229928
0.000290054
0.000335634
0.000381716
0.000416523
0.000419678
0.000382689
0.000329375
0.000274268
0.000223845
0.000183635
0.000151905
0.000133799
0.000110991
3.62234e-05
3.65854e-05
0.000105025
0.000132528
0.000156298
0.00019052
0.000230201
0.000284463
0.000333671
0.000380433
0.000408737
0.000408789
0.000377535
0.00032966
0.000275702
0.000224924
0.00018418
0.000151377
0.00012889
0.000110198
3.64644e-05
3.50776e-05
0.000106992
0.000136924
0.000156663
0.000188914
0.00023012
0.000282298
0.000334269
0.000382273
0.000411031
0.000418203
0.000380292
0.00033198
0.000278786
0.000227562
0.000187609
0.000154484
0.000127334
0.000105995
3.5785e-05
3.62969e-05
0.000111544
0.000133764
0.000159503
0.000190535
0.000232147
0.000280646
0.000334794
0.000384053
0.000414151
0.000418396
0.000382199
0.000332333
0.000277541
0.000225281
0.00018475
0.000150111
0.000125531
0.000108437
3.58678e-05
3.63992e-05
0.000111903
0.000135108
0.000157183
0.000191428
0.000233364
0.000282393
0.000340481
0.000392923
0.000423816
0.000422348
0.000389535
0.000337337
0.000278462
0.000225627
0.000184746
0.000151006
0.000126131
0.000105095
3.52799e-05
3.6457e-05
0.000112032
0.000136586
0.000160831
0.000195407
0.000235673
0.000285716
0.000335271
0.000388574
0.000420881
0.000419819
0.000385085
0.000334266
0.000277073
0.000224138
0.00018402
0.000154853
0.000130253
0.000104747
3.52787e-05
3.64637e-05
0.000114306
0.000133793
0.000158938
0.000194119
0.00023428
0.00028332
0.000335639
0.000385581
0.000416607
0.00043047
0.000386913
0.000335039
0.000272755
0.000221276
0.000181132
0.000151331
0.000128982
0.000109418
3.56566e-05
3.6433e-05
0.00010929
0.000133969
0.000157387
0.000193998
0.000236051
0.000285189
0.000338074
0.000392713
0.00041719
0.000426007
0.000389841
0.000332392
0.000272833
0.000220657
0.000183404
0.000154091
0.000131484
0.00010669
3.53509e-05
3.66095e-05
0.000105321
0.00013636
0.00016082
0.000198341
0.000239887
0.000287161
0.000339275
0.000386813
0.000417094
0.000420031
0.000381453
0.000336106
0.000274968
0.000221805
0.000180534
0.00015003
0.000128516
0.000108697
3.5737e-05
3.66662e-05
0.000108747
0.000131471
0.000156756
0.000194016
0.000236443
0.000290634
0.000345973
0.000389938
0.000423537
0.000412575
0.000381283
0.000331821
0.000277351
0.000222689
0.000184113
0.000149996
0.000124148
0.000106465
3.62661e-05
3.61488e-05
0.000108471
0.000130347
0.000157275
0.000190425
0.000236302
0.000288356
0.000345834
0.00039596
0.000416239
0.000412535
0.000382863
0.000335848
0.000273223
0.000223296
0.000183013
0.000155631
0.000126954
0.000108725
3.56593e-05
3.63173e-05
0.000110005
0.0001331
0.000158664
0.0001925
0.000235428
0.000289861
0.00034579
0.000395632
0.000422086
0.000421084
0.000389101
0.000334001
0.00027376
0.000226818
0.000185917
0.000152349
0.000131956
0.000106373
3.59519e-05
3.68041e-05
0.000112509
0.000133847
0.000162197
0.000190179
0.000231973