/*--------------------------------*- C++ -*----------------------------------*\
  =========                 |
  \\      /  F ield         | OpenFOAM: The Open Source CFD Toolbox
   \\    /   O peration     | Website:  https://openfoam.org
    \\  /    A nd           | Version:  6
     \\/     M anipulation  |
\*---------------------------------------------------------------------------*/
FoamFile
{
    version     2.0;
    format      ascii;
    class       volScalarField;
    location    "13";
    object      nut;
}
// * * * * * * * * * * * * * * * * * * * * * * * * * * * * * * * * * * * * * //

dimensions      [0 2 -1 0 0 0 0];

internalField   nonuniform List<scalar> 
130000
(
0.000891976
0.000895843
0.000898725
0.000900674
0.000901808
0.000902256
0.000902146
0.000901602
0.000900732
0.000899629
0.000898365
0.000896991
0.000895559
0.000894103
0.000892648
0.000891206
0.000889786
0.00088839
0.000887018
0.000885665
0.000891966
0.000895831
0.000898701
0.000900633
0.000901748
0.000902175
0.000902043
0.000901475
0.000900586
0.00089947
0.000898201
0.000896839
0.000895424
0.00089398
0.000892524
0.00089107
0.000889627
0.000888207
0.000886811
0.000885438
0.000892049
0.000895921
0.000898789
0.000900711
0.000901813
0.000902233
0.000902102
0.000901549
0.000900682
0.000899587
0.000898341
0.000897007
0.000895596
0.000894137
0.000892653
0.000891155
0.000889676
0.00088822
0.000886791
0.000885396
0.00089217
0.000896057
0.000898932
0.000900869
0.000902002
0.000902456
0.000902356
0.000901833
0.000900967
0.000899857
0.000898585
0.000897239
0.000895809
0.00089433
0.000892822
0.000891293
0.00088978
0.000888278
0.000886778
0.000885343
0.000892302
0.000896215
0.000899125
0.000901109
0.000902287
0.000902753
0.000902643
0.000902113
0.000901231
0.000900099
0.00089879
0.000897385
0.000895916
0.000894409
0.000892881
0.000891347
0.000889811
0.000888272
0.000886708
0.000885246
0.000892426
0.000896366
0.000899335
0.000901345
0.000902534
0.000902991
0.000902857
0.000902285
0.00090138
0.000900232
0.000898917
0.000897495
0.000896005
0.000894478
0.000892933
0.000891383
0.000889836
0.000888294
0.000886748
0.000885287
0.000892536
0.000896506
0.000899504
0.000901507
0.000902671
0.000903123
0.000902996
0.000902418
0.000901502
0.000900342
0.000899014
0.000897576
0.00089607
0.000894527
0.000892967
0.000891407
0.000889857
0.000888327
0.00088683
0.000885383
0.00089263
0.000896614
0.000899605
0.000901622
0.000902788
0.000903238
0.000903107
0.000902523
0.000901598
0.000900427
0.000899086
0.000897634
0.000896113
0.000894554
0.00089298
0.000891406
0.000889844
0.000888303
0.000886797
0.000885341
0.000892717
0.000896715
0.000899717
0.000901731
0.000902893
0.000903337
0.0009032
0.000902608
0.000901674
0.000900492
0.000899138
0.000897672
0.000896136
0.000894561
0.000892971
0.00089138
0.000889798
0.000888229
0.000886675
0.00088519
0.000892806
0.000896833
0.000899831
0.000901834
0.000902987
0.000903425
0.000903281
0.00090268
0.000901736
0.000900542
0.000899176
0.000897695
0.000896144
0.000894554
0.000892948
0.000891341
0.000889743
0.000888154
0.000886577
0.000885074
0.000892879
0.000896913
0.000899914
0.000901919
0.000903071
0.000903504
0.000903353
0.000902744
0.000901789
0.000900584
0.000899204
0.000897708
0.000896142
0.000894536
0.000892915
0.000891295
0.000889687
0.000888096
0.000886521
0.000885006
0.000892946
0.000896981
0.000899966
0.000902005
0.000903155
0.000903582
0.000903423
0.000902804
0.000901838
0.00090062
0.000899226
0.000897716
0.000896134
0.000894514
0.000892879
0.000891248
0.000889633
0.000888045
0.000886482
0.000885023
0.000893021
0.000897066
0.000900052
0.000902094
0.00090324
0.000903662
0.000903495
0.000902865
0.000901887
0.000900655
0.000899246
0.00089772
0.000896123
0.000894489
0.000892845
0.00089121
0.000889602
0.000888041
0.000886546
0.000885119
0.000893096
0.00089716
0.000900159
0.000902156
0.000903329
0.000903749
0.000903572
0.000902931
0.000901939
0.000900692
0.000899267
0.000897725
0.000896112
0.000894464
0.000892808
0.000891167
0.000889559
0.000888001
0.000886513
0.000885094
0.000893193
0.000897268
0.000900268
0.000902264
0.00090345
0.000903854
0.000903662
0.000903007
0.000902
0.000900737
0.000899295
0.000897734
0.000896103
0.000894437
0.000892765
0.000891109
0.000889489
0.000887922
0.000886424
0.000884978
0.000893312
0.000897397
0.000900404
0.000902409
0.000903557
0.000903966
0.000903764
0.000903094
0.000902072
0.000900793
0.000899334
0.000897755
0.000896105
0.000894419
0.000892727
0.00089105
0.000889404
0.000887802
0.000886302
0.000884888
0.000893447
0.000897539
0.000900543
0.000902532
0.00090364
0.00090408
0.000903875
0.000903195
0.00090216
0.000900865
0.00089939
0.000897795
0.000896128
0.000894426
0.000892717
0.000891024
0.00088936
0.000887733
0.000886255
0.000884891
0.000893594
0.000897695
0.000900699
0.000902682
0.000903778
0.000904192
0.000904003
0.000903312
0.000902264
0.000900956
0.000899468
0.00089786
0.00089618
0.000894466
0.000892749
0.00089105
0.000889385
0.000887751
0.000886197
0.000884709
0.000893752
0.000897863
0.000900872
0.000902856
0.000903953
0.000904306
0.000904139
0.000903439
0.000902381
0.000901063
0.000899564
0.000897946
0.000896258
0.000894537
0.000892815
0.000891115
0.000889453
0.000887816
0.000886206
0.000884663
0.000893918
0.00089804
0.000901053
0.000903034
0.000904123
0.000904466
0.000904273
0.000903579
0.00090251
0.000901181
0.000899673
0.000898046
0.000896349
0.00089462
0.000892887
0.000891175
0.000889508
0.000887873
0.000886277
0.000884729
0.000894096
0.000898226
0.000901241
0.000903221
0.000904308
0.000904648
0.000904385
0.000903701
0.000902632
0.0009013
0.000899785
0.000898149
0.000896443
0.000894701
0.000892948
0.000891196
0.000889479
0.000887811
0.000886189
0.000884678
0.000894272
0.000898415
0.000901434
0.000903411
0.000904488
0.000904812
0.00090452
0.000903802
0.000902758
0.000901421
0.000899896
0.000898251
0.000896535
0.000894784
0.000893023
0.000891229
0.000889456
0.000887804
0.000886226
0.000884714
0.000894455
0.00089861
0.000901634
0.000903608
0.00090468
0.000904996
0.000904701
0.000903922
0.000902883
0.000901543
0.000900004
0.000898347
0.000896622
0.00089487
0.000893126
0.000891352
0.000889609
0.000887983
0.000886411
0.000884863
0.000894646
0.000898815
0.000901842
0.000903814
0.000904878
0.000905183
0.000904875
0.000904084
0.000902996
0.000901653
0.000900097
0.000898427
0.000896689
0.000894925
0.000893171
0.000891415
0.000889739
0.000888127
0.000886568
0.000885055
0.000894849
0.000899029
0.00090206
0.000904028
0.000905084
0.00090538
0.000905062
0.000904269
0.000903125
0.000901749
0.000900188
0.000898503
0.000896745
0.000894954
0.000893162
0.000891386
0.000889733
0.000888135
0.000886583
0.000885092
0.00089506
0.000899253
0.000902286
0.000904251
0.000905298
0.00090558
0.000905245
0.000904427
0.000903244
0.000901847
0.000900293
0.000898594
0.00089682
0.000895011
0.000893197
0.000891399
0.00088971
0.000888071
0.000886489
0.000884979
0.000895281
0.000899487
0.000902522
0.000904482
0.000905519
0.000905786
0.000905433
0.000904593
0.000903381
0.000901965
0.000900411
0.000898703
0.000896922
0.000895102
0.000893285
0.000891497
0.000889755
0.00088806
0.000886459
0.000884953
0.000895512
0.000899731
0.000902769
0.000904724
0.00090575
0.000906003
0.000905634
0.000904778
0.000903556
0.000902069
0.000900465
0.00089876
0.000896994
0.000895163
0.000893336
0.000891537
0.000889771
0.000888097
0.0008865
0.00088498
0.000895756
0.000899988
0.000903028
0.000904977
0.000905991
0.000906229
0.000905841
0.000904964
0.000903715
0.000902189
0.000900531
0.000898805
0.000897029
0.000895192
0.000893338
0.000891515
0.000889743
0.000888131
0.000886555
0.000885029
0.000896011
0.000900257
0.0009033
0.000905242
0.000906245
0.000906467
0.000906061
0.000905165
0.0009039
0.00090237
0.000900661
0.000898869
0.000897012
0.00089517
0.000893312
0.000891511
0.000889747
0.000888139
0.000886585
0.000885119
0.000896279
0.000900539
0.000903584
0.000905521
0.00090651
0.000906716
0.000906289
0.000905369
0.000904076
0.000902507
0.00090074
0.00089889
0.000897002
0.000895161
0.000893334
0.000891559
0.000889824
0.000888181
0.000886631
0.000885193
0.00089656
0.000900834
0.000903882
0.000905813
0.00090679
0.000906978
0.000906532
0.000905589
0.00090427
0.000902672
0.000900868
0.000898977
0.000897103
0.000895258
0.000893419
0.000891613
0.000889882
0.000888218
0.000886677
0.000885238
0.000896854
0.000901144
0.000904195
0.00090612
0.000907085
0.000907257
0.000906792
0.00090583
0.000904492
0.000902879
0.00090107
0.000899125
0.000897216
0.000895326
0.000893478
0.000891658
0.000889859
0.000888215
0.000886683
0.000885271
0.000897161
0.000901468
0.000904524
0.000906443
0.000907396
0.000907552
0.000907069
0.000906089
0.000904734
0.000903105
0.000901283
0.000899328
0.000897349
0.000895371
0.00089348
0.000891655
0.000889865
0.000888218
0.000886719
0.000885409
0.000897482
0.000901808
0.000904869
0.000906783
0.000907725
0.000907865
0.000907364
0.000906365
0.000904993
0.000903352
0.000901528
0.000899589
0.000897591
0.000895567
0.000893616
0.000891741
0.00088996
0.000888292
0.000886754
0.000885385
0.000897808
0.000902161
0.00090523
0.000907141
0.000908072
0.000908196
0.000907677
0.000906659
0.000905268
0.000903609
0.000901769
0.00089982
0.000897819
0.000895816
0.00089385
0.00089195
0.000890133
0.000888408
0.000886775
0.000885263
0.000898164
0.000902537
0.000905613
0.00090752
0.000908439
0.000908547
0.000908009
0.000906972
0.000905561
0.000903883
0.000902023
0.000900055
0.000898034
0.000896008
0.000894015
0.000892079
0.000890214
0.000888428
0.000886716
0.000885115
0.00089854
0.000902935
0.000906017
0.000907919
0.000908826
0.000908918
0.000908362
0.000907306
0.000905877
0.000904182
0.000902306
0.000900321
0.000898283
0.000896238
0.000894221
0.000892255
0.000890349
0.000888505
0.000886709
0.000885013
0.000898937
0.000903352
0.00090644
0.000908336
0.000909231
0.000909307
0.000908733
0.000907658
0.000906213
0.000904502
0.000902613
0.000900617
0.00089857
0.000896517
0.000894491
0.000892514
0.000890597
0.00088874
0.000886924
0.000885197
0.000899356
0.000903792
0.000906883
0.000908773
0.000909653
0.00090971
0.000909116
0.000908022
0.000906558
0.000904831
0.00090293
0.000900924
0.000898871
0.000896815
0.000894791
0.000892821
0.000890919
0.000889088
0.000887316
0.000885629
0.000899821
0.00090426
0.000907348
0.000909226
0.000910089
0.000910125
0.000909508
0.000908391
0.000906906
0.00090516
0.000903242
0.000901224
0.000899162
0.000897102
0.000895077
0.000893113
0.000891223
0.000889414
0.000887677
0.000886031
0.000900274
0.000904736
0.000907827
0.000909695
0.00091054
0.000910552
0.000909908
0.000908765
0.000907253
0.000905483
0.000903544
0.000901507
0.000899431
0.000897359
0.000895328
0.000893361
0.000891474
0.000889672
0.000887948
0.000886319
0.000900745
0.000905231
0.000908326
0.000910183
0.000911007
0.000910993
0.000910319
0.000909145
0.000907602
0.000905803
0.000903837
0.000901777
0.000899679
0.00089759
0.000895545
0.000893567
0.000891672
0.000889863
0.000888135
0.000886494
0.000901244
0.000905753
0.000908851
0.000910696
0.000911497
0.000911452
0.000910745
0.000909536
0.000907959
0.000906127
0.00090413
0.000902041
0.000899917
0.000897806
0.000895742
0.000893749
0.000891841
0.000890024
0.000888289
0.000886643
0.000901774
0.000906306
0.000909406
0.000911236
0.000912011
0.000911934
0.000911191
0.000909943
0.000908329
0.00090646
0.000904429
0.000902308
0.000900156
0.00089802
0.000895934
0.000893923
0.000892001
0.000890173
0.000888432
0.000886778
0.000902338
0.000906893
0.000909993
0.000911807
0.000912554
0.000912441
0.000911658
0.00091037
0.000908715
0.000906808
0.00090474
0.000902586
0.000900404
0.000898241
0.000896132
0.000894103
0.000892166
0.000890328
0.00088858
0.000886917
0.000902935
0.000907514
0.000910614
0.00091241
0.000913126
0.000912976
0.000912151
0.000910819
0.000909122
0.000907174
0.000905068
0.000902878
0.000900665
0.000898474
0.000896343
0.000894295
0.000892345
0.000890499
0.000888753
0.000887103
0.000903567
0.000908171
0.00091127
0.000913047
0.000913731
0.00091354
0.000912671
0.000911294
0.000909552
0.000907561
0.000905415
0.000903189
0.000900943
0.000898724
0.000896569
0.000894502
0.000892538
0.000890683
0.000888936
0.000887288
0.000904233
0.000908864
0.000911963
0.000913719
0.00091437
0.000914137
0.000913221
0.000911796
0.000910007
0.000907971
0.000905784
0.00090352
0.000901241
0.000898993
0.000896814
0.000894727
0.000892749
0.000890885
0.000889133
0.000887484
0.000904935
0.000909595
0.000912695
0.000914431
0.000915046
0.000914769
0.000913804
0.000912329
0.00091049
0.000908408
0.000906177
0.000903874
0.00090156
0.000899283
0.000897079
0.000894974
0.000892983
0.000891111
0.000889358
0.000887711
0.000905676
0.00091037
0.000913472
0.000915187
0.000915765
0.000915441
0.000914424
0.000912895
0.000911003
0.000908871
0.000906595
0.000904251
0.000901901
0.000899594
0.000897366
0.000895242
0.000893237
0.000891357
0.0008896
0.000887955
0.000906472
0.000911199
0.000914302
0.000915993
0.000916531
0.000916155
0.000915082
0.000913496
0.000911549
0.000909364
0.000907039
0.000904653
0.000902266
0.000899928
0.000897674
0.00089553
0.000893511
0.000891622
0.00088986
0.000888212
0.000907321
0.000912083
0.000915187
0.000916854
0.000917347
0.000916916
0.000915782
0.000914134
0.000912127
0.000909886
0.000907511
0.00090508
0.000902654
0.000900283
0.000898002
0.000895839
0.000893805
0.000891906
0.000890137
0.000888485
0.000908223
0.000913025
0.000916132
0.000917771
0.000918216
0.000917725
0.000916525
0.00091481
0.000912739
0.000910438
0.000908009
0.00090553
0.000903063
0.000900658
0.000898351
0.000896166
0.000894117
0.000892207
0.000890429
0.000888771
0.000909197
0.000914039
0.000917144
0.00091875
0.000919142
0.000918584
0.000917312
0.000915524
0.000913383
0.000911018
0.000908531
0.000906001
0.000903492
0.000901051
0.000898716
0.000896509
0.000894444
0.000892523
0.000890738
0.000889072
0.000910215
0.000915115
0.000918223
0.000919794
0.000920125
0.000919494
0.000918142
0.000916274
0.000914056
0.000911621
0.000909072
0.000906489
0.000903934
0.000901457
0.000899093
0.000896865
0.000894784
0.000892853
0.00089106
0.000889389
0.000911354
0.000916285
0.00091938
0.000920905
0.000921168
0.000920453
0.000919012
0.000917056
0.000914754
0.000912242
0.000909625
0.000906984
0.000904382
0.000901866
0.000899473
0.000897224
0.000895129
0.000893188
0.000891391
0.000889717
0.000912576
0.000917535
0.000920612
0.000922082
0.000922265
0.000921457
0.000919916
0.000917861
0.000915466
0.000912869
0.000910178
0.000907474
0.00090482
0.000902265
0.000899841
0.000897572
0.000895465
0.000893518
0.000891719
0.000890046
0.000913878
0.000918863
0.000921914
0.000923321
0.000923413
0.000922498
0.000920844
0.000918676
0.000916176
0.000913484
0.000910709
0.000907936
0.000905227
0.000902629
0.000900176
0.000897888
0.000895772
0.000893824
0.000892028
0.000890363
0.000915263
0.000920267
0.000923285
0.000924615
0.000924601
0.000923562
0.000921777
0.00091948
0.000916858
0.000914057
0.000911188
0.000908337
0.000905567
0.000902925
0.000900443
0.000898139
0.000896019
0.000894076
0.000892294
0.000890646
0.000916732
0.000921746
0.000924714
0.00092595
0.00092581
0.000924624
0.000922686
0.000920236
0.000917472
0.000914543
0.000911565
0.000908625
0.000905787
0.000903098
0.000900587
0.000898273
0.000896157
0.00089423
0.000892473
0.000890859
0.00091829
0.000923286
0.000926185
0.000927302
0.000927007
0.000925646
0.000923522
0.000920889
0.000917953
0.000914871
0.000911763
0.000908719
0.000905803
0.000903062
0.000900525
0.000898207
0.000896107
0.000894214
0.000892503
0.000890944
0.000919966
0.000924844
0.000927659
0.000928629
0.000928143
0.000926563
0.00092421
0.000921352
0.000918204
0.000914933
0.000911665
0.000908493
0.000905486
0.000902688
0.000900128
0.000897817
0.000895751
0.000893915
0.00089228
0.000890811
0.000921724
0.000926434
0.000929109
0.000929876
0.00092914
0.000927282
0.000924638
0.000921493
0.000918075
0.000914563
0.000911092
0.000907761
0.000904641
0.000901778
0.000899197
0.000896908
0.000894902
0.000893158
0.000891642
0.000890314
0.000923525
0.000927999
0.000930464
0.00093095
0.000929881
0.000927658
0.000924635
0.000921116
0.000917346
0.000913519
0.000909783
0.000906244
0.000902979
0.000900036
0.000897438
0.00089519
0.000893279
0.000891676
0.000890341
0.00088923
0.000925215
0.000929542
0.00093163
0.00093171
0.000930189
0.000927479
0.000923955
0.00091994
0.000915703
0.000911456
0.000907364
0.000903547
0.000900088
0.000897039
0.000894423
0.00089224
0.000890469
0.000889075
0.000888009
0.00088722
0.000926739
0.000930751
0.000932376
0.000931923
0.000929805
0.000926451
0.000922262
0.000917588
0.000912725
0.000907912
0.000903338
0.000899139
0.000895413
0.000892216
0.000889571
0.000887475
0.000885898
0.000884798
0.000884116
0.000883791
0.00092799
0.000931519
0.000932499
0.000931328
0.000928416
0.000924212
0.000919143
0.000913595
0.000907898
0.000902327
0.000897099
0.000892377
0.000888274
0.000884859
0.000882155
0.000880157
0.000878828
0.000878115
0.000877952
0.000878271
0.000928806
0.000931637
0.000931749
0.00092962
0.000925669
0.000920361
0.000914155
0.000907475
0.000900693
0.000894125
0.000888029
0.0008826
0.000877973
0.00087423
0.000871402
0.000869482
0.000868429
0.000868183
0.000868672
0.000869826
0.000928962
0.000930862
0.000929924
0.000926507
0.000921241
0.00091456
0.000906945
0.00089886
0.000890728
0.000882912
0.000875713
0.000869364
0.000864028
0.000859804
0.000856733
0.000854811
0.000853997
0.000854232
0.000855449
0.000857586
0.000928287
0.000928684
0.000926584
0.000921745
0.000914972
0.000906705
0.000897465
0.000887762
0.000878068
0.000868798
0.000860296
0.00085283
0.000846591
0.000841695
0.000838195
0.000836096
0.000835367
0.000835963
0.000837835
0.000840953
0.00092658
0.000925209
0.000921812
0.000915527
0.000907142
0.000897207
0.000886278
0.000874902
0.000863593
0.000852805
0.000842916
0.000834221
0.000826926
0.000821162
0.000816992
0.000814432
0.000813472
0.000814095
0.000816295
0.000820107
0.000923897
0.00092063
0.000915617
0.000908777
0.000898649
0.000887213
0.000874815
0.000861994
0.000849284
0.000837159
0.00082601
0.000816135
0.000807743
0.000800964
0.000795865
0.000792475
0.000790806
0.000790884
0.00079277
0.000796594
0.000920294
0.000915444
0.000908974
0.000901341
0.000890845
0.000878682
0.000865474
0.0008518
0.000838231
0.000825245
0.000813214
0.000802416
0.000793042
0.000785207
0.000778968
0.00077436
0.000771418
0.000770212
0.000770875
0.000773649
0.000916465
0.000910912
0.000904239
0.00089589
0.000886885
0.000874603
0.000861518
0.000847824
0.000834204
0.000821081
0.000808756
0.000797464
0.00078737
0.000778562
0.000771078
0.000764943
0.000760203
0.000756961
0.000755409
0.000755884
0.000913591
0.000908499
0.000903239
0.000896034
0.000887196
0.000877775
0.000866501
0.000853531
0.000840858
0.000828494
0.000816552
0.000805241
0.000794765
0.000785171
0.000776458
0.000768628
0.000761723
0.000755853
0.000751238
0.000748269
0.000913406
0.000910709
0.000908423
0.000904344
0.00089793
0.000889936
0.000881268
0.000871375
0.000860999
0.000850501
0.000839506
0.000828448
0.000817926
0.00080779
0.000797961
0.000788407
0.000779162
0.000770327
0.00076211
0.000754896
0.000918104
0.000920172
0.000922825
0.000923376
0.000921302
0.000916815
0.000910666
0.000903882
0.000895754
0.000886982
0.000877758
0.000868128
0.000857943
0.000847571
0.00083678
0.000825544
0.000813927
0.000802015
0.000789977
0.000778138
0.000929991
0.00093924
0.000948644
0.00095521
0.000958427
0.000958629
0.0009564
0.00095215
0.000946664
0.000940394
0.000932805
0.000924179
0.000914711
0.000904382
0.000892813
0.000879878
0.000865891
0.000850914
0.000835051
0.000818533
0.00095128
0.0009699
0.000987563
0.00100121
0.00101052
0.00101593
0.00101805
0.00101748
0.00101464
0.00100997
0.00100395
0.000996233
0.000987072
0.000976628
0.000964602
0.000950286
0.000933922
0.000915913
0.000896298
0.000875206
0.000983749
0.00101341
0.00104034
0.0010617
0.00107747
0.00108828
0.00109487
0.00109789
0.00109784
0.00109513
0.00109006
0.00108288
0.00107371
0.0010628
0.00105005
0.00103489
0.00101643
0.000995334
0.000971995
0.000946434
0.00102859
0.00107031
0.00110702
0.00113634
0.00115865
0.00117485
0.00118582
0.00119229
0.00119485
0.00119391
0.00118982
0.00118279
0.00117319
0.0011615
0.00114749
0.00113108
0.0011113
0.00108718
0.00105998
0.00102996
0.00108628
0.00114037
0.00118686
0.00122403
0.00125272
0.00127411
0.00128924
0.00129896
0.0013039
0.00130452
0.00130115
0.00129401
0.00128364
0.00127079
0.00125523
0.00123691
0.00121525
0.00118865
0.0011576
0.00112296
0.00115654
0.00122256
0.00127835
0.00132289
0.00135753
0.00138373
0.00140269
0.00141534
0.00142238
0.00142428
0.00142137
0.00141387
0.00140236
0.00138774
0.0013698
0.00134832
0.00132367
0.00129521
0.00126102
0.00122171
0.00123818
0.00131489
0.00137891
0.00142996
0.00146981
0.00150019
0.00152244
0.00153757
0.00154632
0.00154917
0.00154641
0.00153829
0.00152541
0.00150852
0.00148736
0.00146189
0.00143259
0.00139998
0.00136341
0.00132063
0.00132891
0.00141413
0.00148461
0.0015407
0.00158457
0.00161814
0.00164286
0.00165981
0.00166975
0.00167311
0.00167006
0.00166098
0.00164659
0.00162683
0.00160158
0.00157131
0.0015366
0.00149804
0.00145623
0.00141088
0.00142506
0.00151543
0.00158964
0.00164857
0.00169465
0.00172992
0.00175593
0.00177364
0.00178404
0.00178759
0.00178398
0.00177344
0.0017565
0.00173294
0.00170292
0.00166707
0.0016262
0.00158105
0.00153237
0.00148093
0.0015212
0.00161187
0.00168587
0.00174442
0.00179016
0.00182436
0.00184927
0.00186707
0.00187752
0.00188083
0.00187761
0.00186605
0.00184521
0.00181608
0.00177944
0.0017362
0.00168731
0.00163425
0.00157861
0.00152104
0.00160969
0.00169405
0.00176239
0.00181634
0.00185677
0.00188735
0.00190948
0.00192357
0.0019301
0.00192675
0.00191956
0.00190331
0.00187822
0.00184474
0.00180318
0.00175434
0.0016993
0.00163927
0.00157681
0.0015071
0.0016804
0.00174998
0.00180617
0.00184749
0.00187624
0.00189865
0.00191909
0.00192834
0.00193298
0.0019331
0.00192065
0.00190057
0.00187086
0.00183106
0.00178247
0.00172448
0.00165761
0.00158375
0.00150731
0.0014394
0.00172041
0.00176651
0.00179864
0.00181903
0.00184067
0.00185231
0.0018567
0.00186383
0.00186639
0.00186351
0.00185289
0.00183223
0.00179914
0.00175208
0.00169428
0.00162393
0.00154047
0.00144702
0.00135225
0.00126389
0.00171473
0.00172396
0.00172703
0.00173135
0.00172292
0.00172027
0.00171952
0.00172073
0.00172222
0.00172105
0.00171307
0.00169365
0.00165846
0.00160433
0.00153323
0.00144613
0.00134006
0.00121925
0.00109787
0.000988592
0.00164309
0.00160925
0.00157685
0.00154194
0.00151832
0.00150197
0.00149487
0.00149678
0.00150494
0.00151428
0.00151709
0.00150518
0.00147112
0.00140918
0.00132109
0.00120921
0.00107222
0.000918077
0.0007668
0.00064043
0.00149095
0.00140826
0.00133451
0.00127712
0.00123452
0.00121053
0.00120776
0.00122475
0.00125559
0.00129321
0.00131973
0.00132122
0.00128805
0.00121367
0.00110073
0.000950061
0.000777161
0.000608466
0.000458928
0.000342628
0.00124088
0.00112649
0.00102869
0.000954365
0.000910998
0.000901359
0.000930462
0.000988532
0.00105247
0.00109513
0.00110718
0.00109314
0.00105005
0.000974793
0.000866875
0.000734952
0.000584403
0.000431189
0.000297514
0.000224486
0.000921976
0.000794196
0.000697258
0.000642324
0.00065134
0.000714921
0.000800201
0.000883574
0.000942152
0.000975638
0.000986627
0.00097589
0.000940351
0.000879027
0.000786606
0.00065894
0.000501706
0.00034317
0.000231265
0.000167531
0.0005543
0.000473517
0.000464315
0.000529692
0.000632419
0.000735887
0.000815811
0.000866405
0.000894354
0.000907759
0.000910498
0.000902945
0.000883427
0.000842535
0.000766163
0.000641687
0.000471885
0.000299082
0.000187568
0.000159868
0.000278445
0.000309162
0.000412983
0.000563237
0.000698588
0.000789561
0.00084086
0.000865913
0.000876497
0.000879711
0.000878978
0.000874781
0.000864813
0.000841981
0.000789943
0.000679751
0.000504134
0.000306414
0.000184222
0.000170476
0.000189462
0.00028315
0.000463947
0.000650976
0.000769368
0.000827326
0.00085117
0.000858924
0.000860697
0.000860477
0.000859714
0.000858465
0.000855509
0.000847301
0.000825089
0.00076916
0.000631717
0.000408826
0.000228475
0.000178829
0.000181318
0.000384316
0.000695852
0.000823717
0.000854807
0.000857997
0.000855637
0.000854278
0.000853669
0.000853475
0.000853456
0.000853489
0.000853999
0.000855877
0.000860123
0.000865291
0.000872701
0.000837152
0.000525525
0.000218399
0.000882993
0.00088345
0.000883947
0.000884403
0.00088482
0.000885185
0.000885478
0.000885689
0.000885818
0.000885873
0.000885855
0.000885762
0.000885595
0.000885357
0.000885056
0.000884694
0.000884281
0.000883837
0.000883351
0.000882775
0.000882855
0.000883345
0.000883878
0.000884379
0.00088484
0.0008852
0.000885453
0.000885608
0.000885683
0.000885696
0.000885657
0.000885522
0.000885313
0.000885043
0.000884707
0.000884307
0.000883861
0.000883397
0.0008829
0.000882334
0.000882978
0.000883561
0.000884133
0.000884616
0.000885018
0.000885294
0.000885458
0.000885525
0.000885518
0.000885451
0.000885325
0.000885063
0.000884789
0.000884509
0.000884193
0.000883828
0.000883424
0.000882964
0.000882463
0.000881928
0.000883267
0.000883861
0.000884392
0.000884797
0.000885087
0.000885267
0.000885346
0.00088533
0.000885249
0.000885124
0.000884975
0.000884794
0.000884538
0.000884355
0.00088413
0.000883838
0.000883423
0.000882947
0.000882469
0.000882042
0.000883298
0.000883829
0.000884336
0.000884718
0.000884958
0.00088508
0.000885141
0.000885179
0.000885163
0.00088508
0.000885025
0.000884941
0.000884649
0.000884434
0.000884198
0.000883922
0.000883516
0.000883131
0.000882723
0.000882364
0.000882992
0.000883547
0.000884102
0.000884545
0.000884861
0.000885066
0.000885214
0.000885375
0.000885416
0.000885341
0.000885279
0.000885022
0.000884675
0.000884375
0.000884099
0.000883859
0.000883571
0.000883271
0.000882874
0.000882432
0.000883001
0.000883655
0.000884278
0.000884776
0.000885156
0.000885406
0.000885545
0.000885645
0.000885624
0.000885449
0.00088522
0.000884962
0.00088467
0.000884442
0.000884146
0.000883906
0.000883618
0.000883264
0.000882834
0.000882336
0.00088312
0.00088383
0.000884471
0.000885005
0.000885407
0.000885612
0.000885615
0.000885527
0.000885426
0.000885228
0.000885017
0.000884919
0.000884725
0.000884517
0.00088424
0.000883973
0.000883745
0.000883408
0.000882953
0.000882384
0.000883172
0.000883727
0.000884303
0.000884805
0.000885174
0.000885377
0.00088546
0.000885467
0.0008854
0.000885319
0.000885221
0.0008851
0.00088491
0.000884635
0.000884414
0.000884163
0.000883915
0.000883536
0.000883035
0.000882413
0.000883243
0.000883712
0.000884315
0.000884823
0.000885158
0.000885317
0.000885413
0.000885389
0.00088538
0.000885332
0.000885315
0.000885309
0.000885148
0.000884814
0.000884596
0.000884248
0.000883785
0.000883242
0.000882659
0.000882053
0.000883037
0.000883696
0.000884403
0.000884938
0.000885275
0.000885424
0.000885384
0.000885351
0.000885258
0.000885171
0.000885108
0.00088516
0.000884975
0.000884762
0.000884488
0.0008841
0.000883556
0.000882954
0.00088237
0.000881807
0.000883055
0.000883699
0.000884323
0.000884788
0.000885169
0.000885437
0.000885494
0.000885493
0.000885369
0.000885275
0.000885095
0.000884955
0.000884687
0.000884454
0.000884173
0.000883817
0.000883386
0.000882894
0.000882309
0.000881739
0.000883313
0.00088389
0.000884458
0.00088495
0.000885358
0.000885598
0.00088573
0.000885576
0.000885506
0.000885504
0.000885364
0.00088505
0.000884791
0.00088448
0.000884107
0.000883723
0.000883389
0.000882919
0.000882354
0.00088186
0.000883397
0.000883967
0.000884622
0.000885146
0.000885592
0.00088582
0.000885921
0.000885818
0.00088575
0.00088572
0.000885519
0.000885207
0.000884909
0.00088459
0.000884215
0.00088387
0.000883473
0.000882973
0.00088245
0.000882006
0.000883473
0.000883966
0.000884514
0.000885019
0.000885541
0.000885835
0.000886003
0.000885958
0.000885864
0.000885712
0.000885464
0.000885089
0.000884877
0.000884588
0.000884276
0.000883979
0.000883532
0.00088295
0.000882349
0.000881779
0.000883461
0.000884041
0.000884636
0.000885117
0.000885547
0.000885763
0.000885821
0.000885804
0.000885722
0.00088556
0.000885331
0.000885036
0.000884723
0.000884248
0.0008838
0.00088337
0.000882917
0.000882402
0.00088192
0.00088144
0.000883351
0.000884083
0.000884707
0.00088515
0.000885482
0.000885696
0.000885812
0.000885847
0.000885794
0.000885627
0.000885383
0.000885112
0.000884588
0.000883981
0.000883506
0.000883103
0.000882712
0.000882293
0.00088188
0.000881462
0.000883412
0.00088404
0.000884636
0.000885101
0.000885478
0.000885813
0.00088601
0.000886052
0.000885984
0.000885795
0.000885478
0.000885122
0.000884692
0.000884108
0.000883667
0.000883297
0.000882854
0.000882384
0.000881963
0.000881556
0.000883591
0.000884128
0.000884641
0.000885076
0.000885369
0.000885564
0.000885672
0.00088569
0.000885636
0.000885456
0.000885143
0.000884838
0.000884453
0.000883961
0.000883563
0.00088322
0.000882763
0.00088233
0.000881939
0.000881538
0.000883645
0.000884015
0.000884373
0.000884639
0.000884831
0.000884968
0.000885055
0.000885086
0.000885063
0.000884895
0.000884605
0.000884225
0.000883817
0.000883382
0.00088304
0.000882732
0.000882433
0.000882142
0.00088181
0.000881414
0.000883577
0.000883801
0.00088401
0.000884141
0.000884228
0.00088432
0.000884397
0.000884465
0.000884483
0.000884374
0.000884168
0.000883886
0.000883568
0.000883216
0.000882909
0.000882656
0.000882436
0.000882261
0.00088199
0.00088162
0.000883623
0.000883756
0.00088387
0.000883962
0.000884046
0.00088416
0.000884147
0.000884146
0.000884134
0.000884075
0.000884015
0.000883921
0.000883744
0.000883445
0.000883261
0.000883097
0.000882937
0.0008828
0.00088253
0.000882141
0.000883865
0.000884035
0.000884134
0.000884273
0.000884379
0.000884484
0.000884404
0.000884321
0.000884219
0.000884104
0.00088403
0.000883965
0.000883874
0.000883773
0.000883749
0.000883586
0.000883362
0.000883107
0.000882812
0.000882431
0.00088419
0.000884483
0.000884672
0.000884842
0.000884991
0.000885067
0.000885033
0.000884919
0.000884726
0.000884527
0.000884383
0.000884298
0.0008842
0.000884172
0.000884082
0.000883913
0.000883741
0.000883513
0.000883212
0.000882835
0.00088445
0.000884848
0.000885197
0.000885401
0.000885639
0.000885729
0.000885709
0.000885605