/*--------------------------------*- C++ -*----------------------------------*\
  =========                 |
  \\      /  F ield         | OpenFOAM: The Open Source CFD Toolbox
   \\    /   O peration     | Website:  https://openfoam.org
    \\  /    A nd           | Version:  6
     \\/     M anipulation  |
\*---------------------------------------------------------------------------*/
FoamFile
{
    version     2.0;
    format      ascii;
    class       volScalarField;
    location    "13";
    object      p;
}
// * * * * * * * * * * * * * * * * * * * * * * * * * * * * * * * * * * * * * //

dimensions      [0 2 -2 0 0 0 0];

internalField   nonuniform List<scalar> 
130000
(
0.00582058
0.00507721
0.00455101
0.00415852
0.00382774
0.00353157
0.00326198
0.0030051
0.00275984
0.00251843
0.00228029
0.00204214
0.00180256
0.00156031
0.00131821
0.00107369
0.000830455
0.000585901
0.000337167
9.27362e-05
0.00825496
0.00767793
0.00709058
0.00663106
0.00619993
0.00580465
0.00540832
0.00502005
0.00462637
0.00423151
0.00383378
0.0034318
0.00303176
0.00263136
0.00223356
0.00183988
0.00145368
0.00106654
0.000680579
0.000303171
0.00963619
0.0091126
0.00847019
0.00793488
0.0073981
0.00689301
0.00638056
0.00588331
0.00538194
0.00488423
0.00438642
0.00388777
0.00339458
0.00289692
0.00241477
0.00192764
0.00146135
0.000988847
0.000530856
6.79958e-05
0.0106999
0.0101752
0.00952008
0.00892964
0.00830433
0.00768475
0.00705003
0.00642396
0.00579526
0.00516796
0.00454715
0.0039238
0.00331666
0.00270878
0.00212128
0.00153549
0.000977873
0.000417257
-0.000115602
-0.000652972
0.0112992
0.010907
0.0103316
0.00976787
0.00913194
0.00846693
0.00777493
0.00707376
0.00636656
0.00564859
0.00493774
0.00421771
0.00351725
0.00280695
0.00213056
0.00144464
0.000801597
0.000149867
-0.000458369
-0.0010804
0.0115725
0.0112289
0.0107116
0.0101806
0.00955603
0.00887261
0.0081542
0.00740752
0.00665228
0.00587045
0.00509735
0.00430137
0.00353163
0.00274639
0.00199692
0.00123758
0.00052618
-0.000197023
-0.00086858
-0.00155754
0.0114025
0.011155
0.0107004
0.0102082
0.0096062
0.00891818
0.00819067
0.00741451
0.00662961
0.00580117
0.00498288
0.00412958
0.00330498
0.00245093
0.00164411
0.000812341
4.06435e-05
-0.000752181
-0.0014828
-0.00224769
0.0111159
0.010894
0.0104814
0.0100248
0.00945052
0.00876451
0.00803604
0.00724151
0.00643847
0.00557656
0.00472738
0.00382855
0.0029644
0.00206297
0.00120946
0.000328201
-0.000489168
-0.00133289
-0.0021076
-0.00292223
0.0106569
0.0104225
0.0100217
0.00959421
0.00904386
0.00836479
0.00763997
0.00683611
0.00602329
0.0051392
0.00426786
0.00333687
0.002441
0.00149448
0.000604822
-0.000327835
-0.0011869
-0.00208233
-0.00290073
-0.00377631
0.00988323
0.00969915
0.00935206
0.00897058
0.00846063
0.00779878
0.00708839
0.00628422
0.00547112
0.00457369
0.00369089
0.00273497
0.001819
0.000844527
-7.35867e-05
-0.00103832
-0.00192702
-0.00285875
-0.00370853
-0.00462237
0.00910955
0.00889361
0.00855047
0.00818655
0.00769832
0.00704431
0.0063451
0.00554121
0.00473132
0.00382571
0.00293602
0.00196366
0.00103173
2.82073e-05
-0.000911029
-0.0019121
-0.00282885
-0.00379917
-0.00468146
-0.00564511
0.00800671
0.00785362
0.00756751
0.00725276
0.00680709
0.00617293
0.00549313
0.00469621
0.00389525
0.00298671
0.00209676
0.00111146
0.000171572
-0.000847704
-0.00180321
-0.00282463
-0.00375976
-0.00475569
-0.00565947
-0.00665209
0.00697056
0.00677483
0.00649376
0.00620517
0.00578405
0.00516225
0.00449613
0.00370589
0.00291342
0.00200507
0.0011158
0.000123803
-0.000823305
-0.00186109
-0.00282859
-0.0038759
-0.00483035
-0.00585525
-0.00678355
-0.00781672
0.00565502
0.0055202
0.0052938
0.00505858
0.00467529
0.00407673
0.00343059
0.00265275
0.00187267
0.000968264
8.40851e-05
-0.000913104
-0.00186182
-0.00290748
-0.00388422
-0.00494425
-0.00591037
-0.00695345
-0.00789722
-0.00895259
0.00429293
0.00420573
0.00402391
0.00382462
0.00347042
0.00288833
0.00226026
0.00149352
0.000726143
-0.000172984
-0.00105254
-0.0020507
-0.00300207
-0.00405907
-0.0050434
-0.00612177
-0.00710221
-0.00816665
-0.00913068
-0.0102185
0.00290869
0.00285514
0.00271512
0.00255663
0.00223281
0.00167081
0.00106158
0.00030883
-0.000445178
-0.00133697
-0.00220964
-0.00320847
-0.00415922
-0.00521961
-0.0062102
-0.00729629
-0.00828545
-0.00936308
-0.0103401
-0.0114453
0.0013994
0.0014025
0.0013114
0.00120482
0.000915828
0.00037923
-0.000210567
-0.000946304
-0.00168733
-0.00256886
-0.00343652
-0.00443156
-0.00538468
-0.00645104
-0.00744857
-0.00854689
-0.00954937
-0.0106421
-0.0116383
-0.0127687
3.94065e-05
2.65627e-05
-4.96075e-05
-0.000113814
-0.000378886
-0.00089455
-0.00146964
-0.00218946
-0.00292
-0.00379174
-0.00465439
-0.00564717
-0.00660081
-0.00766808
-0.0086726
-0.00977645
-0.0107883
-0.0118915
-0.0129014
-0.0140462
-0.00148319
-0.00143199
-0.00145958
-0.00147621
-0.00171182
-0.00220532
-0.00276467
-0.00346774
-0.00418821
-0.00504883
-0.00590869
-0.00689551
-0.00785314
-0.0089228
-0.00993629
-0.0110483
-0.012075
-0.0131891
-0.0142195
-0.0153832
-0.00284495
-0.00278024
-0.00278509
-0.00277314
-0.00299088
-0.0034715
-0.00402154
-0.00471159
-0.00542436
-0.00627584
-0.0071333
-0.0081173
-0.00907762
-0.0101476
-0.0111697
-0.0122866
-0.0133247
-0.0144487
-0.0154958
-0.0166734
-0.00426925
-0.00416547
-0.00413407
-0.00408331
-0.00427793
-0.00474029
-0.00528093
-0.00595633
-0.00666298
-0.00750339
-0.0083616
-0.009339
-0.0103063
-0.0113762
-0.01241
-0.0135318
-0.0145876
-0.0157193
-0.0167899
-0.0179821
-0.00554615
-0.00545053
-0.00541434
-0.00532688
-0.00550634
-0.00594997
-0.00648557
-0.00714786
-0.00785204
-0.00868302
-0.00954277
-0.010517
-0.0114906
-0.0125614
-0.0136069
-0.0147346
-0.0158052
-0.0169479
-0.0180392
-0.0192471
-0.00686353
-0.00672951
-0.00666799
-0.0065409
-0.00670381
-0.00712757
-0.00765903
-0.00830707
-0.00901088
-0.00983062
-0.0106954
-0.0116625
-0.0126473
-0.0137169
-0.0147784
-0.0159091
-0.0170013
-0.0181494
-0.0192681
-0.0204873
-0.00806549
-0.0079078
-0.0078299
-0.00767045
-0.00782129
-0.00823009
-0.00875973
-0.00939695
-0.0101026
-0.0109152
-0.0117855
-0.0127513
-0.0137459
-0.0148184
-0.0158952
-0.0170341
-0.0181447
-0.0193062
-0.0204504
-0.0216887
-0.00918664
-0.00901843
-0.00892481
-0.00873478
-0.00887401
-0.0092674
-0.00979671
-0.0104226
-0.0111319
-0.0119359
-0.0128148
-0.0137753
-0.0147847
-0.0158571
-0.0169538
-0.0180958
-0.0192316
-0.0203979
-0.0215738
-0.022823
-0.0102436
-0.0100514
-0.00994785
-0.00971803
-0.00984464
-0.0102212
-0.0107499
-0.0113659
-0.012079
-0.0128785
-0.0137654
-0.0147274
-0.0157497
-0.0168287
-0.0179444
-0.0190983
-0.0202563
-0.0214397
-0.0226452
-0.023918
-0.0111573
-0.0109613
-0.0108471
-0.010594
-0.010712
-0.0110788
-0.0116084
-0.0122172
-0.0129349
-0.0137303
-0.0146276
-0.0155883
-0.0166275
-0.0177103
-0.0188485
-0.0200101
-0.0211969
-0.0223891
-0.0236294
-0.0249172
-0.0120406
-0.0118085
-0.0116673
-0.0113828
-0.0114842
-0.0118407
-0.0123675
-0.0129719
-0.0136929
-0.014489
-0.0153951
-0.0163622
-0.0174154
-0.0185089
-0.0196677
-0.0208453
-0.0220568
-0.0232705
-0.0245427
-0.025859
-0.0127156
-0.0124923
-0.0123391
-0.0120392
-0.0121309
-0.0124842
-0.0130109
-0.0136138
-0.0143389
-0.0151365
-0.0160535
-0.0170249
-0.0180954
-0.0191986
-0.0203803
-0.0215717
-0.0228126
-0.0240421
-0.0253505
-0.0266905
-0.0133651
-0.0131082
-0.0129255
-0.0125931
-0.0126668
-0.0130114
-0.0135348
-0.0141358
-0.0148639
-0.0156655
-0.0165918
-0.0175738
-0.0186588
-0.0197763
-0.0209791
-0.0221905
-0.0234569
-0.0247125
-0.0260541
-0.0274281
-0.0138076
-0.0135507
-0.0133547
-0.013002
-0.0130648
-0.0134051
-0.0139279
-0.0145286
-0.0152604
-0.016066
-0.0170035
-0.0179942
-0.0190971
-0.0202298
-0.021456
-0.0226878
-0.0239847
-0.0252637
-0.0266432
-0.0280506
-0.0141762
-0.0138888
-0.0136641
-0.0132775
-0.0133213
-0.0136525
-0.0141715
-0.014771
-0.0155054
-0.0163167
-0.0172637
-0.0182681
-0.0193866
-0.0205372
-0.0217861
-0.0230417
-0.0243656
-0.0256752
-0.0270892
-0.0285358
-0.0143394
-0.01405
-0.0138056
-0.0133961
-0.0134249
-0.013751
-0.0142671
-0.0148666
-0.0156035
-0.0164202
-0.0173781
-0.0183943
-0.0195319
-0.0207024
-0.0219761
-0.0232577
-0.0246142
-0.0259537
-0.027408
-0.0288963
-0.0143977
-0.0140766
-0.0137986
-0.0133529
-0.0133593
-0.0136756
-0.0141856
-0.0147839
-0.0155218
-0.0163447
-0.0173111
-0.0183426
-0.0194964
-0.0206876
-0.0219857
-0.0232947
-0.0246805
-0.0260546
-0.0275461
-0.0290787
-0.0142403
-0.0139087
-0.0136056
-0.0131334
-0.0131208
-0.01343
-0.0139342
-0.0145319
-0.0152707
-0.0160994
-0.0170753
-0.0181194
-0.0192923
-0.0205064
-0.0218308
-0.02317
-0.0245906
-0.0259998
-0.0275351
-0.0291166
-0.0139501
-0.0135804
-0.0132379
-0.012725
-0.0126851
-0.0129815
-0.013476
-0.0140712
-0.0148089
-0.015644
-0.0166275
-0.0176877
-0.0188766
-0.0201131
-0.0214631
-0.0228325
-0.0242851
-0.0257332
-0.0273092
-0.0289404
-0.0134173
-0.0130346
-0.012659
-0.012115
-0.0120501
-0.0123363
-0.0128209
-0.0134135
-0.0141495
-0.0149897
-0.0159818
-0.0170553
-0.0182633
-0.0195246
-0.0209028
-0.0223063
-0.0237972
-0.0252852
-0.0269091
-0.0285952
-0.0127351
-0.0123057
-0.0118815
-0.0112901
-0.0111915
-0.0114604
-0.0119307
-0.0125176
-0.0132492
-0.0140942
-0.0150922
-0.0161821
-0.0174063
-0.0186921
-0.0200981
-0.0215353
-0.0230614
-0.0245927
-0.0262617
-0.0280032
-0.0117842
-0.0113297
-0.0108648
-0.0102344
-0.0101048
-0.0103579
-0.0108136
-0.0113943
-0.0121209
-0.0129691
-0.0139741
-0.0150771
-0.0163204
-0.0176325
-0.019068
-0.0205424
-0.02211
-0.0236863
-0.0254077
-0.0272108
-0.0106527
-0.0101404
-0.00961825
-0.00893186
-0.00876183
-0.00899163
-0.00942798
-0.00999882
-0.0107176
-0.0115681
-0.0125769
-0.0136954
-0.0149542
-0.0162912
-0.0177554
-0.019266
-0.020872
-0.0224963
-0.0242678
-0.0261328
-0.009218
-0.00867258
-0.00809849
-0.0073645
-0.00715547
-0.00736328
-0.00777922
-0.00833927
-0.00904878
-0.00989957
-0.0109126
-0.0120427
-0.0133194
-0.0146829
-0.0161771
-0.0177271
-0.0193776
-0.0210516
-0.0228806
-0.0248145
-0.00757811
-0.00696055
-0.00631583
-0.00551536
-0.00525664
-0.00543348
-0.00582312
-0.00636767
-0.0070644
-0.00791369
-0.00892734
-0.0100708
-0.0113613
-0.0127494
-0.0142726
-0.0158606
-0.0175521
-0.0192785
-0.0211624
-0.0231655
-0.00559679
-0.00493113
-0.00422269
-0.00336332
-0.00305553
-0.00320158
-0.00356275
-0.00408989
-0.0047714
-0.00561659
-0.00663067
-0.00778353
-0.00909018
-0.0105048
-0.0120584
-0.0136881
-0.0154267
-0.0172074
-0.019154
-0.0212336
-0.00337332
-0.00262202
-0.00182865
-0.000889451
-0.000519904
-0.000624993
-0.000950712
-0.0014548
-0.00211687
-0.00295555
-0.00396616
-0.00512999
-0.00644889
-0.007888
-0.00947137
-0.0111413
-0.0129239
-0.0147616
-0.0167684
-0.0189245
-0.000768307
4.31546e-05
0.000918043
0.00193066
0.00236275
0.00229911
0.00201177
0.00153325
0.000893564
6.44995e-05
-0.000942224
-0.00211265
-0.00344616
-0.00491169
-0.00652644
-0.00824054
-0.0100737
-0.0119706
-0.0140461
-0.0162865
0.00211946
0.00303274
0.00401098
0.00511979
0.00562734
0.00561661
0.00537505
0.0049288
0.00431615
0.00349992
0.00250139
0.00132333
-2.05406e-05
-0.00151009
-0.00315549
-0.00491216
-0.00679299
-0.00875212
-0.0108941
-0.0132192
0.00542282
0.00642152
0.00750069
0.00870264
0.00928757
0.00933228
0.00914024
0.00873004
0.00814801
0.00734863
0.00635916
0.00517854
0.00382221
0.00230714
0.000629488
-0.00117362
-0.00310902
-0.00513279
-0.00735031
-0.00976881
0.0090743
0.0101932
0.0113929
0.0127103
0.0133855
0.0134975
0.0133627
0.012996
0.0124497
0.0116712
0.0106956
0.00951191
0.00814779
0.00660992
0.00490094
0.00305302
0.0010659
-0.00102583
-0.00331732
-0.00583021
0.0131775
0.0144063
0.0157306
0.0171637
0.0179335
0.0181172
0.0180449
0.0177268
0.0172209
0.0164683
0.0155081
0.0143274
0.0129537
0.0113922
0.00965029
0.00775407
0.00570791
0.00354586
0.00117058
-0.00144566
0.0176889
0.0190602
0.0205282
0.0220999
0.0229783
0.0232465
0.0232457
0.0229849
0.0225256
0.0218039
0.0208649
0.0196873
0.0183094
0.0167272
0.0149536
0.0130104
0.0109081
0.00867174
0.00621388
0.00349216
0.0226974
0.0242073
0.0258259
0.0275392
0.0285329
0.0288923
0.02897
0.0287734
0.0283669
0.0276826
0.0267673
0.0255999
0.0242164
0.0226136
0.0208067
0.0188138
0.0166475
0.0143347
0.0117836
0.00894719
0.0281758
0.0298559
0.0316449
0.0335236
0.0346482
0.0351133
0.0352803
0.0351579
0.0348119
0.0341711
0.0332864
0.0321301
0.0307473
0.0291268
0.0272884
0.0252466
0.0230194
0.020625
0.0179814
0.0150264
0.0342072
0.0360536
0.0380244
0.0400746
0.0413402
0.0419196
0.0421851
0.0421457
0.0418679
0.0412787
0.0404283
0.0392915
0.0379087
0.0362718
0.0344004
0.0323076
0.0300112
0.0275336
0.0247857
0.0217027
0.0407642
0.0428139
0.0449895
0.0472381
0.048662
0.0493723
0.0497489
0.0498043
0.0496041
0.0490739
0.0482662
0.0471506
0.0457751
0.044125
0.042223
0.0400796
0.0377169
0.0351496
0.0322974
0.0290802
0.0479379
0.0501915
0.0525842
0.0550395
0.0566333
0.0574857
0.0579843
0.0581455
0.0580323
0.0575713
0.0568112
0.0557269
0.0543589
0.0526981
0.0507642
0.0485689
0.046131
0.0434726
0.0405032
0.0371422
0.055698
0.0581949
0.0608305
0.0635225
0.0653067
0.0663202
0.066956
0.0672369
0.0672223
0.0668396
0.0661373
0.0650872
0.0637353
0.0620672
0.0601045
0.0578569
0.0553468
0.052589
0.0495015
0.0459876
0.0641392
0.06688
0.0697754
0.0727151
0.0747044
0.0758928
0.0766795
0.0770939
0.0771898
0.076898
0.0762605
0.0752567
0.0739223
0.0722513
0.0702588
0.0679588
0.0653672
0.0625089
0.059289
0.0556121
0.0732142
0.0762472
0.0794329
0.082655
0.0848739
0.08626
0.0872165
0.0877814
0.0880026
0.0878135
0.0872537
0.0863009
0.0849946
0.0833246
0.0813067
0.0789535
0.0762833
0.0733147
0.0699604
0.0661081
0.0830333
0.0863595
0.0898548
0.0933732
0.0958402
0.0974413
0.0985851
0.0993179
0.09968
0.0996095
0.0991372
0.0982504
0.0969756
0.0953133
0.0932698
0.0908645
0.0881062
0.0850264
0.0815219
0.0774833
0.0935274
0.0971998
0.101042
0.104897
0.107642
0.109486
0.110841
0.111763
0.112285
0.112349
0.111981
0.111167
0.109937
0.108288
0.106225
0.103766
0.100923
0.0977202
0.094062
0.0898207
0.104809
0.10883
0.113044
0.117256
0.120303
0.122413
0.124001
0.125136
0.125838
0.126057
0.125807
0.125086
0.123907
0.12228
0.120198
0.11769
0.114751
0.111425
0.107595
0.103138
0.116783
0.121216
0.125846
0.130464
0.13385
0.13626
0.138112
0.139488
0.140395
0.140791
0.14068
0.140063
0.138952
0.137356
0.135263
0.132703
0.129672
0.126208
0.122201
0.117509
0.129566
0.134417
0.139495
0.144545
0.148302
0.151042
0.153189
0.154835
0.155975
0.156574
0.156623
0.156135
0.155102
0.153549
0.151449
0.148841
0.145708
0.142105
0.137901
0.132957
0.143038
0.148376
0.153954
0.159494
0.163668
0.166783
0.169264
0.171217
0.172625
0.173456
0.173693
0.17335
0.172418
0.170918
0.16882
0.166165
0.162932
0.159173
0.154763
0.149542
0.157292
0.163134
0.169254
0.175323
0.179955
0.183487
0.186342
0.188643
0.190354
0.191455
0.191907
0.191742
0.190925
0.189497
0.187407
0.184709
0.181365
0.177447
0.172808
0.16729
0.172182
0.178609
0.185336
0.192004
0.197155
0.201159
0.204439
0.207137
0.209196
0.210603
0.211308
0.211344
0.210672
0.209329
0.20726
0.20452
0.201067
0.196971
0.192089
0.186241
0.187771
0.194815
0.202208
0.209529
0.215253
0.219784
0.223542
0.226688
0.229141
0.230903
0.231896
0.232173
0.231666
0.230433
0.228394
0.225619
0.222046
0.217767
0.212614
0.206409
0.203897
0.211644
0.219783
0.227842
0.234214
0.239337
0.243636
0.247286
0.250186
0.252347
0.253673
0.254223
0.253917
0.252814
0.250824
0.248017
0.244327
0.239843
0.234403
0.227801
0.220559
0.229061
0.238024
0.246892
0.253978
0.259757
0.264653
0.268863
0.272262
0.274872
0.276572
0.277438
0.277362
0.276421
0.274494
0.271671
0.267858
0.263169
0.257413
0.250387
0.23758
0.246929
0.256807
0.266575
0.274449
0.280948
0.286497
0.291315
0.295256
0.298354
0.300469
0.301685
0.301878
0.301127
0.299295
0.296472
0.292551
0.287647
0.281569
0.274085
0.254873
0.265141
0.276019
0.286755
0.295474
0.302733
0.308965
0.314418
0.318923
0.322534
0.325087
0.326687
0.327177
0.326654
0.324949
0.322162
0.318153
0.313058
0.306655
0.298707
0.272223
0.283489
0.295451
0.307221
0.316817
0.324844
0.331754
0.337827
0.34288
0.346991
0.349982
0.35197
0.352784
0.352524
0.350991
0.348286
0.344244
0.338995
0.332307
0.323909
0.289379
0.301716
0.31483
0.327654
0.338105
0.346845
0.354361
0.360975
0.366503
0.371053
0.374434
0.376794
0.377928
0.377957
0.376641
0.374084
0.370073
0.364754
0.357845
0.349058
0.306068
0.31949
0.333766
0.347609
0.358823
0.368145
0.376117
0.383114
0.388968
0.393825
0.397495
0.400151
0.401576
0.401895
0.40083
0.398486
0.394601
0.389309
0.382289
0.373206
0.321779
0.336304
0.351705
0.366452
0.37826
0.387941
0.396129
0.403268
0.409222
0.414186
0.417976
0.420807
0.422431
0.423
0.422186
0.420098
0.416404
0.411246
0.40422
0.394965
0.336154
0.351653
0.368033
0.383481
0.395632
0.405372
0.41346
0.420423
0.426186
0.430988
0.434673
0.437483
0.439165
0.439881
0.439259
0.437409
0.433931
0.428947
0.421999
0.412674
0.348384
0.364784
0.381956
0.397801
0.409954
0.419416
0.427069
0.433519
0.438773
0.443121
0.446433
0.448986
0.450513
0.451195
0.450618
0.448884
0.44552
0.44066
0.433762
0.424376
0.3581
0.37512
0.392807
0.408709
0.420473
0.429272
0.436161
0.441792
0.446237
0.44983
0.452486
0.454496
0.455604
0.455993
0.455204
0.453335
0.449853
0.444896
0.437867
0.428255
0.364152
0.381676
0.399671
0.415352
0.426426
0.434238
0.440056
0.444603
0.448011
0.450607
0.452339
0.453517
0.453885
0.453627
0.45225
0.449831
0.445807
0.440323
0.432728
0.422473
0.366184
0.383874
0.401946
0.417202
0.427391
0.434041
0.438624
0.441909
0.444095
0.445491
0.446072
0.446124
0.445414
0.444083
0.441618
0.438087
0.4329
0.426204
0.41737
0.405825
0.362727
0.380576
0.398693
0.413519
0.422852
0.428373
0.431757
0.433797
0.434725
0.434811
0.43405
0.432689
0.430498
0.427563
0.423386
0.417968
0.410746
0.401905
0.390917
0.377145
0.353443
0.371222
0.38942
0.403984
0.412702
0.417395
0.419859
0.420867
0.420665
0.419443
0.417223
0.414173
0.410079
0.404934
0.398249
0.389987
0.379662
0.367554
0.353195
0.335812
0.336211
0.354207
0.372907
0.387777
0.3965
0.400993
0.403149
0.403638
0.402668
0.400315
0.396612
0.391617
0.385125
0.377005
0.366854
0.35458
0.339879
0.322941
0.303409
0.280577
0.310104
0.328364
0.348142
0.364209
0.37396
0.379289
0.38207
0.382864
0.381779
0.378718
0.373688
0.366565
0.357183
0.345279
0.330582
0.312962
0.292133
0.268229
0.241345
0.210903
0.271207
0.290597
0.312682
0.331482
0.343878
0.351669
0.356585
0.358984
0.358829
0.355781
0.349772
0.340453
0.327689
0.311096
0.290597
0.265758
0.236485
0.203059
0.16609
0.125023
0.216624
0.237877
0.263985
0.287773
0.305194
0.317798
0.327034
0.332975
0.335303
0.333375
0.326986
0.315509
0.29893
0.276681
0.248679
0.214294
0.173909
0.127866
0.0772548
0.0217062
0.139555
0.164769
0.197884
0.2302
0.256216
0.277041
0.293672
0.305803
0.312731
0.313428
0.307514
0.294073
0.27323
0.243938
0.206307
0.159667
0.104874
0.0420854
-0.0268661
-0.10206
0.0349798
0.0667252
0.111093
0.156886
0.19639
0.230014
0.258052
0.279721
0.293817
0.298927
0.294529
0.279459
0.253677
0.215661
0.166111
0.104153
0.0308245
-0.0538764
-0.147108
-0.248381
-0.105102
-0.0615785
0.000729403
0.0670914
0.12664
0.178729
0.222841
0.257726
0.281637
0.292848
0.29083
0.273847
0.24172
0.192933
0.128779
0.0476156
-0.0491886
-0.161987
-0.286681
-0.422122
-0.282885
-0.220514
-0.131099
-0.0351297
0.052202
0.128785
0.193252
0.244068
0.279179
0.296841
0.29655
0.275968
0.235339
0.173372
0.0915384
-0.0127296
-0.138225
-0.285873
-0.450528
-0.630186
-0.498801
-0.406078
-0.277028
-0.140911
-0.0186151
0.0868289
0.173732
0.240633
0.28567
0.3076
0.306147
0.27897
0.226966
0.148527
0.0450029
-0.0874419
-0.2475
-0.437094
-0.650288
-0.884752
-0.740052
-0.603503
-0.421956
-0.237636
-0.0772257
0.0561282
0.161972
0.240007
0.289398
0.309638
0.300677
0.261072
0.192698
0.0933578
-0.0361828
-0.201287
-0.401171
-0.639166
-0.909911
-1.21127
-0.989149
-0.793739
-0.550645
-0.318042
-0.126324
0.0238688
0.135757
0.211875
0.253448
0.260915
0.235446
0.176496
0.0857955
-0.0398047
-0.200781
-0.404664
-0.651846
-0.947243
-1.28531
-1.66346
-1.21767
-0.954372
-0.652583
-0.386986
-0.185057
-0.0398522
0.0584522
0.116297
0.136618
0.120511
0.0698197
-0.0153821
-0.134528
-0.292479
-0.492109
-0.743631
-1.04878
-1.41244
-1.82798
-2.29193
-1.41522
-1.08248
-0.73753
-0.462992
-0.273122
-0.149487
-0.0761585
-0.0438781
-0.0497694
-0.0921811
-0.169831
-0.28265
-0.432258
-0.625806
-0.870048
-1.17699
-1.54918
-1.99045
-2.49342
-3.0508
-1.61289
-1.21981
-0.853645
-0.585415
-0.410081
-0.302938
-0.248065
-0.235724
-0.262051
-0.322844
-0.41785
-0.547154
-0.716318
-0.933423
-1.2102
-1.56001
-1.98946
-2.50273
-3.09243
-3.74136
-1.90644
-1.50067
-1.15096
-0.896053
-0.727514
-0.628788
-0.584317
-0.577341
-0.604148
-0.65905
-0.746918
-0.865703
-1.02487
-1.22928
-1.4964
-1.83975
-2.27834
-2.82088
-3.45361
-4.11198
-2.66354
-2.21699
-1.85274
-1.58217
-1.38902
-1.25899
-1.17993
-1.13813
-1.13482
-1.16149
-1.22377
-1.3139
-1.44285
-1.60385
-1.81631
-2.08811
-2.45567
-2.93635
-3.50137
-3.92305
-3.74487
-3.11664
-2.63223
-2.21734
-1.88079
-1.63604
-1.477
-1.37804
-1.33823
-1.33834
-1.3874
-1.46426
-1.58775
-1.7302
-1.93105
-2.16406
-2.4878
-2.8672
-3.2129
-3.09396
-3.57366
-3.41814
-3.02337
-2.52505
-2.11971
-1.83668
-1.6471
-1.52571
-1.46366
-1.44979
-1.48427
-1.55602
-1.6688
-1.80798
-1.98348
-2.1815
-2.43653
-2.70431
-2.62357
-1.7841
3.39559e-05
-4.05963e-05
-7.71527e-05
-0.000123102
-0.000184529
-0.000247343
-0.000303052
-0.000362004
-0.000420333
-0.000486075
-0.000555129
-0.000633277
-0.000717338
-0.000812868
-0.000912688
-0.00102391
-0.00113887
-0.0012681
-0.0014181
-0.00158585
0.00204824
0.0019177
0.00183886
0.00174939
0.00162333
0.00150115
0.00137295
0.00124546
0.0011074
0.000963567
0.000807865
0.000642688
0.000465912
0.000281366
8.30439e-05
-0.000119209
-0.000331983
-0.000558365
-0.000812719
-0.00105963
0.00402859
0.00393983
0.00376187
0.00360322
0.0033971
0.0032032
0.00298783
0.00278184
0.00255304
0.00232732
0.00208019
0.00183325
0.00156687
0.00129693
0.00101548
0.000731413
0.000439387
0.000140921
-0.000181334
-0.000501528
0.00485627
0.0047283
0.00449314
0.00429264
0.00402432
0.0037707
0.00347915
0.00320178
0.00289067
0.00258885
0.00225933
0.00193596
0.00159051
0.00125257
0.000894555
0.00054668
0.000184813
-0.000173392
-0.000552293
-0.000920981
0.00626424
0.0061054
0.0058312
0.00559985
0.00528042
0.00497669
0.00462029
0.00428364
0.00390251
0.00353663
0.00313415
0.00274496
0.00232657
0.00191698
0.00148916
0.00106856
0.000636224
0.000210407
-0.000233568
-0.000664849
0.00754086
0.00735169
0.00704184
0.0067871
0.00642543
0.00608059
0.00566974
0.00528219
0.00484152
0.00441931
0.00395432
0.00350455
0.00302222
0.00255548
0.0020609
0.00158345
0.00108788
0.00060477
9.94179e-05
-0.000389233
0.00869593
0.00848312
0.00814133
0.00786405
0.00746567
0.00708605
0.00662895
0.00619803
0.00570515
0.00523398
0.00471268
0.00421001
0.00366807
0.0031391
0.00258503
0.00204203
0.00148403
0.000937413
0.000368428
-0.000192258
0.00990264
0.00965165
0.00927379
0.00897688
0.00854617
0.00813657
0.00763954
0.00717043
0.006632
0.00611625
0.00554531
0.00499227
0.00439722
0.00381992
0.00320834
0.00261606
0.00200244
0.00140414
0.000779418
0.000166131
0.011063
0.0107867
0.0103812
0.0100677
0.00960842
0.00917074
0.00863669
0.00813245
0.00755191
0.00699521
0.00637732
0.00577864
0.00513262
0.00449949
0.00383604
0.00318312
0.00251305
0.00185351
0.00116787
0.000482272
0.0123007
0.0119897
0.0115557
0.01123
0.0107466
0.0102848
0.00971755
0.00918103
0.00856212
0.00796684
0.0073062
0.00666301
0.00597042
0.00529418
0.00457863
0.0038807
0.00315913
0.00245041
0.00171071
0.000972741
0.013505
0.0131748
0.0127198
0.0123846
0.0118807
0.0113984
0.0108013
0.0102354
0.00958006
0.00894848
0.00824604
0.00756165
0.00682282
0.00609389
0.00532951
0.00457214
0.00379622
0.00302702
0.00222849
0.00141853
0.0148262
0.0144646
0.0139864
0.0136432
0.0131205
0.0126197
0.0119955
0.0114028
0.0107141
0.0100486
0.00930784
0.00858292
0.00780132
0.00703208
0.00621823
0.00541733
0.00459143
0.00377456
0.00292446
0.0020633
0.0161485
0.0157766
0.015282
0.0149327
0.0143921
0.0138737
0.0132228
0.0126047
0.0118839
0.0111867
0.010408
0.00964537
0.00882023
0.0080014
0.00714127
0.00628349
0.00540486
0.00452812
0.00361942
0.00268494
0.0176365
0.0172403
0.0167257
0.0163681
0.0158108
0.0152758
0.0146004
0.0139577
0.0132063
0.0124781
0.0116642
0.0108634
0.00999796
0.00914027
0.00823275
0.0073315
0.00640287
0.00547639
0.00451419
0.00352571
0.0191481
0.0187523
0.018226
0.0178628
0.0172906
0.0167419
0.0160449
0.0153803
0.0145998
0.0138423
0.012993
0.0121573
0.0112504
0.0103454
0.00939122
0.00843302
0.00744941
0.00646124
0.00543731
0.0043743
0.0208485
0.0204407
0.0199033
0.0195333
0.0189487
0.0183861
0.01767
0.0169844
0.0161774
0.0153903
0.0145077
0.0136343
0.0126881
0.0117426
0.0107412
0.00973743
0.00870392
0.0076644
0.00658679
0.00546744
0.0226026
0.02221
0.0216741
0.0213011
0.0207069
0.0201315
0.0193975
0.0186915
0.0178594
0.017044
0.0161273
0.0152178
0.0142294
0.0132365
0.0121885
0.0111309
0.0100447
0.00894812
0.00781154
0.00662113
0.0245624
0.0241799
0.0236461
0.0232676
0.0226649
0.0220762
0.021326
0.0205983
0.0197419
0.0188974
0.0179499
0.0170019
0.0159748
0.0149396
0.0138458
0.0127414
0.0116063
0.0104568
0.00926652
0.00801632
0.0266236
0.0262749
0.025751
0.0253692
0.0247595
0.0241593
0.0233956
0.0226476
0.0217682
0.0208952
0.019916
0.0189325
0.0178648
0.0167829
0.0156414
0.0144821
0.0132913
0.0120831
0.0108308
0.00950939
0.0289179
0.028592
0.028077
0.0276872
0.0270705
0.0264563
0.0256811
0.0249129
0.0240123
0.0231082
0.022098
0.0210745
0.0199692
0.0188432
0.0176556
0.0164459
0.0152041
0.0139387
0.0126287
0.0112418
0.0313639
0.0310701
0.0305704
0.0301736
0.0295517
0.0289228
0.0281364
0.0273472
0.0264258
0.0254915
0.0244495
0.0233892
0.0222442
0.0210736
0.01984
0.0185786
0.0172808
0.0159568
0.0145821
0.0131236
0.0340365
0.0337717
0.0332882
0.0328832
0.0322572
0.0316121
0.030814
0.030002
0.029061
0.0280975
0.0270286
0.0259304
0.02475
0.0235354
0.022257
0.0209439
0.0195939
0.0182096
0.0167743
0.0152457
0.036898
0.0366698
0.0362063
0.0357946
0.0351657
0.0345059
0.0336987
0.0328661
0.0319072
0.030917
0.0298214
0.0286906
0.027473
0.0262157
0.0248898
0.0235252
0.0221162
0.0206731
0.0191691
0.017568
0.0399964
0.0398039
0.0393634
0.0389484
0.0383225
0.0376521
0.0368406
0.0359895
0.0350143
0.0339954
0.0328741
0.0317066
0.0304552
0.0291543
0.0277831
0.0263641
0.0248986
0.0233889
0.0218165
0.0201374
0.043326
0.0431677
0.0427567
0.0423443
0.0417284
0.0410517
0.0402391
0.0393719
0.038382
0.037337
0.0361888
0.0349883
0.033699
0.0323551
0.0309341
0.0294611
0.0279312
0.0263585
0.0247105
0.0229544
0.0469004
0.0467838
0.0464085
0.0460069
0.0454071
0.0447284
0.0439183
0.0430371
0.0420356
0.040965
0.0397931
0.0385554
0.0372305
0.0358392
0.034368
0.0328355
0.0312441
0.0296004
0.0278791
0.026039
0.0507573
0.0506781
0.05034
0.049951
0.0493703
0.0486926
0.0478886
0.0469973
0.0459873
0.0448946
0.0436984
0.0424268
0.0410614
0.0396221
0.0380969
0.0365059
0.0348469
0.0331367
0.0313362
0.0294132
0.0549008
0.054866
0.0545668
0.0541949
0.053636
0.0529638
0.0521703
0.051273
0.0502585
0.0491447
0.0479273
0.0466178
0.0452149
0.0437253
0.0421471
0.0404937
0.038771
0.0369866
0.0351095
0.0330966
0.0593737
0.0593776
0.0591178
0.0587638
0.0582292
0.0575636
0.0567818
0.05588
0.0548625
0.0537301
0.0524912
0.051148
0.0497055
0.0481654
0.0465327
0.0448157
0.0430234
0.0411665
0.0392068
0.0371016
0.0641768
0.06423
0.0640151
0.0636876
0.0631808
0.0625253
0.0617559
0.0608496
0.0598284
0.0586762
0.0574183
0.0560393
0.0545623
0.0529737
0.0512892
0.049509
0.0476516
0.0457166
0.0436762
0.0414744
0.0693397
0.069444
0.0692792
0.0689822
0.0685068
0.067863
0.0671058
0.0661939
0.0651675
0.0639955
0.062717
0.0613059
0.0597924
0.0581542
0.0564176
0.054572
0.0526443
0.0506298
0.0485013
0.0461959
0.0748885
0.0750533
0.0749444
0.0746876
0.0742492
0.0736233
0.0728817
0.0719677
0.0709381
0.0697472
0.0684499
0.0670033
0.0654553
0.0637682
0.0619788
0.0600679
0.0580719
0.0559736
0.0537589
0.0513489
0.0808398
0.0810703
0.0810236
0.0808126
0.0804163
0.0798132
0.0790914
0.0781794
0.0771495
0.0759427
0.0746258
0.0731463
0.0715589
0.0698175
0.0679708
0.0659865
0.0639126
0.0617256
0.0594157
0.056892
0.0872487
0.0875521
0.087573
0.0874173
0.0870698
0.0864974
0.0858014
0.0848978
0.0838712
0.0826507
0.0813169
0.0798026
0.0781788
0.0763853
0.0744798
0.0724227
0.0702712
0.0679916
0.065586
0.0629475
0.0941213
0.0945069
0.0946025
0.094507
0.0942131
0.0936766
0.0930111
0.0921205
0.0911003
0.0898696
0.0885188
0.0869741
0.0853114
0.083463
0.0814967
0.0793605
0.0771233
0.0747445
0.0722304
0.0694614
0.101527
0.102003
0.102179
0.102152
0.101917
0.101422
0.100791
0.0999183
0.0989087
0.0976715
0.096308
0.0947319
0.0930334
0.0911323
0.0891042
0.0868915
0.08457
0.082089
0.0794655
0.0765649
0.109458
0.110038
0.110306
0.110355
0.110183
0.109735
0.109142
0.108291
0.107295
0.106055
0.104678
0.103075
0.101336
0.0993781
0.097285
0.0949885
0.0925736
0.0899837
0.087239
0.0841933
0.117992
0.118684
0.119053
0.11919
0.119092
0.118697
0.118148
0.117323
0.116343
0.115101
0.113714
0.112081
0.110305
0.108293
0.106133
0.103753
0.101244
0.0985413
0.0956752
0.0924847
0.127124
0.127944
0.128427
0.128662
0.128647
0.128315
0.127816
0.127022
0.126061
0.12482
0.123422
0.121761
0.119944
0.117871
0.115639
0.113166
0.110553
0.10773
0.10473
0.101381
0.136941
0.137901
0.138507
0.138853
0.13893
0.138671
0.138229
0.137473
0.136537
0.1353
0.133894
0.132203
0.130345
0.128211
0.125904
0.123338
0.120619
0.117671
0.114535
0.111023
0.147443
0.14856
0.149304
0.14977
0.14995
0.149771
0.149395
0.148683
0.147776
0.146548
0.145133
0.143415
0.141512
0.139311
0.136924
0.134256
0.131421
0.128337
0.125051
0.12136
0.158716
0.160004
0.160898
0.161498
0.161791
0.161703
0.1614
0.160739
0.159866
0.158649
0.15723
0.155482
0.153536
0.15127
0.148801
0.146029
0.143076
0.139851
0.136411
0.132536
0.170763
0.172243
0.173303
0.174049
0.174466
0.174478
0.174256
0.173653
0.172818
0.171617
0.170194
0.168421
0.166428
0.164093
0.161536
0.158652
0.155569
0.152193
0.148583
0.144506
0.183673
0.18536
0.186602
0.18751
0.188063
0.188186
0.188054
0.187516
0.186726
0.185544
0.184122
0.182322
0.180286
0.177881
0.175234
0.172236
0.16902
0.165486
0.1617
0.157415
0.197452
0.199371
0.200813
0.201898
0.202602
0.202847
0.202814