/*--------------------------------*- C++ -*----------------------------------*\
  =========                 |
  \\      /  F ield         | OpenFOAM: The Open Source CFD Toolbox
   \\    /   O peration     | Website:  https://openfoam.org
    \\  /    A nd           | Version:  6
     \\/     M anipulation  |
\*---------------------------------------------------------------------------*/
FoamFile
{
    version     2.0;
    format      ascii;
    class       volScalarField;
    location    "13";
    object      p;
}
// * * * * * * * * * * * * * * * * * * * * * * * * * * * * * * * * * * * * * //

dimensions      [0 2 -2 0 0 0 0];

internalField   nonuniform List<scalar> 
10000
(
-0.0327418
-0.0356785
-0.032731
-0.0219922
-0.0138314
-0.00835969
-0.00449092
-0.00133214
0.0014296
0.0031008
0.00366623
0.00270979
0.000195093
-0.0038814
-0.00999579
-0.0181987
-0.0287486
-0.0406297
-0.0405734
-0.0311634
-0.0737577
-0.0702632
-0.0526506
-0.0221188
0.00457811
0.0230064
0.0340861
0.0413741
0.0466759
0.0502264
0.0525938
0.0532759
0.0540406
0.0536419
0.05088
0.041717
0.0230453
-0.00130274
-0.0180189
-0.0258563
0.0208114
0.0195748
0.0251095
0.0387488
0.0561055
0.0740236
0.0895344
0.101558
0.110068
0.115656
0.118955
0.120674
0.121302
0.122069
0.123457
0.124821
0.124672
0.121923
0.114313
0.103853
0.146596
0.153545
0.157144
0.160237
0.163976
0.16808
0.172546
0.177253
0.181605
0.185543
0.188871
0.192215
0.195996
0.200575
0.205543
0.210343
0.212974
0.211563
0.206325
0.19969
0.278039
0.289405
0.291397
0.284411
0.274717
0.265531
0.259427
0.256522
0.256228
0.257437
0.259629
0.262944
0.267049
0.272734
0.279147
0.285975
0.29265
0.29679
0.294929
0.288917
0.347168
0.35199
0.354164
0.350166
0.342672
0.33441
0.327753
0.32353
0.321657
0.32145
0.322113
0.323389
0.325388
0.328075
0.331322
0.335146
0.338922
0.341554
0.341535
0.340512
0.37865
0.372965
0.37249
0.373456
0.374427
0.375727
0.376705
0.377488
0.378199
0.37887
0.379582
0.380069
0.379768
0.378167
0.374832
0.370236
0.365783
0.362862
0.363826
0.37032
0.42478
0.419284
0.42032
0.424914
0.429604
0.434062
0.437165
0.438987
0.439662
0.439853
0.43926
0.437746
0.435241
0.430937
0.424933
0.417917
0.411658
0.408044
0.408362
0.413713
0.497241
0.497967
0.501276
0.505854
0.509339
0.510442
0.509818
0.508438
0.506903
0.505263
0.503452
0.501067
0.497389
0.492432
0.486475
0.479708
0.473473
0.469574
0.470051
0.47438
0.574459
0.577884
0.579248
0.579321
0.579386
0.578376
0.576805
0.575203
0.573767
0.572709
0.571978
0.57118
0.570539
0.569919
0.569592
0.569711
0.569627
0.569446
0.568965
0.567434
0.625287
0.623556
0.622658
0.623965
0.626854
0.630339
0.633281
0.635437
0.636815
0.637834
0.638842
0.640845
0.643873
0.649167
0.656289
0.664852
0.673548
0.679652
0.678034
0.668561
0.679185
0.677801
0.676664
0.677816
0.681386
0.686338
0.691063
0.695051
0.697924
0.70012
0.701725
0.703535
0.706039
0.709405
0.713648
0.718693
0.723788
0.727807
0.72861
0.726509
0.738325
0.737549
0.736665
0.737825
0.741444
0.746674
0.75205
0.756571
0.760011
0.76235
0.764109
0.765222
0.765545
0.765008
0.76361
0.761328
0.759096
0.757893
0.75938
0.765342
0.812383
0.816156
0.819068
0.82095
0.822097
0.82306
0.824105
0.825392
0.826716
0.827937
0.82884
0.828998
0.828838
0.827474
0.825179
0.822019
0.818818
0.816721
0.816222
0.818976
0.895454
0.903774
0.907557
0.904973
0.900114
0.895747
0.893206
0.892246
0.892308
0.892549
0.8928
0.892774
0.892275
0.891275
0.889534
0.88662
0.883249
0.880397
0.879452
0.881142
0.963305
0.960367
0.957834
0.956493
0.956159
0.956832
0.957696
0.958339
0.958716
0.959048
0.959117
0.958764
0.958556
0.958268
0.958331
0.958729
0.958962
0.958507
0.957603
0.956979
1.05108
1.04989
1.04644
1.04112
1.03688
1.0338
1.03145
1.02979
1.02865
1.02774
1.02687
1.02611
1.02495
1.0242
1.02423
1.02579
1.02908
1.03194
1.03192
1.0286
1.12094
1.11969
1.11899
1.11622
1.11218
1.10788
1.10424
1.10179
1.10026
1.09933
1.09876
1.09808
1.09729
1.09536
1.09209
1.08788
1.08335
1.07996
1.08135
1.08643
1.187
1.18542
1.18679
1.18708
1.18507
1.1815
1.17769
1.1746
1.17263
1.1717
1.17182
1.17299
1.17484
1.17742
1.18025
1.18235
1.18337
1.18358
1.18314
1.18136
1.25187
1.24984
1.2504
1.25121
1.25051
1.24826
1.24528
1.24264
1.2407
1.23992
1.23996
1.24123
1.24436
1.24981
1.25796
1.26793
1.27729
1.28303
1.28137
1.27235
1.29666
1.29467
1.29463
1.29659
1.29883
1.30023
1.30071
1.30037
1.29991
1.29958
1.2998
1.30065
1.30163
1.3034
1.30566
1.30825
1.31104
1.31277
1.31342
1.31373
1.32441
1.32132
1.32216
1.32762
1.33502
1.34223
1.34801
1.35169
1.35382
1.35504
1.35587
1.35588
1.35541
1.35297
1.34822
1.34127
1.33352
1.3278
1.32871
1.33759
1.37129
1.36911
1.3703
1.37611
1.38435
1.39266
1.39985
1.4051
1.40858
1.41045
1.41133
1.41125
1.4101
1.40758
1.40369
1.39819
1.39215
1.38757
1.38663
1.38966
1.45261
1.45486
1.45388
1.45312
1.45487
1.45846
1.46305
1.46745
1.47071
1.47264
1.47311
1.47203
1.46969
1.46607
1.46246
1.45992
1.45859
1.45904
1.45968
1.45791
1.53986
1.54113
1.53885
1.53762
1.53768
1.5385
1.54008
1.54166
1.54284
1.54328
1.54323
1.5425
1.54071
1.53811
1.5348
1.53097
1.52752
1.52626
1.52822
1.53025
1.63287
1.63824
1.64003
1.63726
1.63202
1.62672
1.62278
1.62038
1.61915
1.6185
1.61803
1.61758
1.61779
1.6186
1.62008
1.62179
1.62263
1.62238
1.6223
1.62182
1.71792
1.72235
1.72417
1.71869
1.71015
1.7022
1.69632
1.69281
1.69137
1.69105
1.6915
1.69286
1.69494
1.69857
1.70356
1.70971
1.71552
1.7185
1.71838
1.71521
1.78579
1.7862
1.78558
1.78152
1.77571
1.76958
1.76459
1.76136
1.75977
1.75964
1.76053
1.7625
1.76604
1.77104
1.77745
1.78476
1.79155
1.79623
1.79723
1.79386
1.83221
1.82458
1.82213
1.8232
1.82444
1.82498
1.82459
1.82353
1.82263
1.82224
1.8226
1.8237
1.82535
1.82793
1.83113
1.83477
1.83847
1.84151
1.84286
1.84119
1.8876
1.88181
1.88016
1.88103
1.8825
1.88409
1.88497
1.88497
1.88439
1.88362
1.8829
1.88186
1.88059
1.87797
1.87402
1.86918
1.86454
1.86139
1.86229
1.86699
1.94599
1.94225
1.94052
1.94168
1.94349
1.94513
1.94601
1.94609
1.94545
1.94402
1.9421
1.93956
1.936
1.93096
1.92447
1.91687
1.91027
1.90633
1.90644
1.91054
2.01238
2.0135
2.01402
2.0151
2.01546
2.01464
2.013
2.01108
2.00913
2.00715
2.00463
2.0014
1.99729
1.99185
1.98551
1.97858
1.97208
1.96801
1.96825
1.97061
2.06863
2.0732
2.0748
2.07338
2.07145
2.07032
2.07028
2.07073
2.07122
2.07152
2.07159
2.07146
2.07073
2.0701
2.06965
2.06937
2.06885
2.06804
2.06638
2.06233
2.11142
2.10439
2.10158
2.10427
2.1102
2.11808
2.12571
2.13176
2.1357
2.13862
2.14075
2.14317
2.14641
2.15131
2.15801
2.16619
2.1742
2.17943
2.17636
2.16543
2.20014
2.20073
2.20068
2.20097
2.20239
2.2039
2.20523
2.20635
2.2073
2.208
2.20877
2.21011
2.21209
2.21548
2.2199
2.22503
2.23004
2.23363
2.23374
2.23145
2.29639
2.30679
2.31146
2.30832
2.30169
2.29327
2.28609
2.28112
2.27838
2.27683
2.27602
2.27535
2.2752
2.27505
2.27481
2.27442
2.27393
2.27375
2.27561
2.28086
2.35038
2.35307
2.35498
2.35372
2.35088
2.34737
2.34423
2.34185
2.34045
2.33969
2.33952
2.33963
2.33982
2.33988
2.33966
2.33932
2.33936
2.3397
2.33992
2.34118
2.38757
2.38169
2.38017
2.38311
2.3879
2.39308
2.39673
2.39894
2.39996
2.40085
2.40132
2.40174
2.40189
2.40156
2.4008
2.3998
2.39887
2.39827
2.39792
2.39845
2.44528
2.44228
2.44115
2.44326
2.44749
2.45282
2.45742
2.46106
2.46332
2.46479
2.46562
2.46623
2.46609
2.4655
2.46413
2.46218
2.46007
2.45844
2.45783
2.4581
2.51947
2.51804
2.51573
2.51576
2.51751
2.5205
2.52377
2.52707
2.52952
2.53145
2.53254
2.53338
2.53377
2.53382
2.53327
2.53226
2.53066
2.52914
2.52838
2.52837
2.61382
2.61684
2.61648
2.61421
2.61044
2.60626
2.60282
2.60074
2.59986
2.59974
2.59989
2.60053
2.60132
2.60289
2.60501
2.60776
2.61024
2.6116
2.6108
2.60872
2.69743
2.70417
2.70563
2.69986
2.69067
2.68136
2.67408
2.6692
2.6661
2.6644
2.66295
2.66197
2.66113
2.66109
2.66245
2.66588
2.67061
2.67473
2.67475
2.67107
2.74095
2.73556
2.73392
2.73415
2.73401
2.73334
2.73198
2.73
2.72788
2.72588
2.72389
2.72143
2.71774
2.71252
2.70556
2.6981
2.69141
2.6872
2.68919
2.69773
2.78969
2.7849
2.78371
2.7853
2.78807
2.79062
2.79198
2.7923
2.79173
2.79081
2.78957
2.78798
2.78575
2.78225
2.77651
2.76857
2.75955
2.7525
2.75219
2.75914
2.84253
2.8381
2.83626
2.83878
2.84314
2.8479
2.85184
2.85497
2.85698
2.85839
2.85933
2.86045
2.86168
2.86416
2.86746
2.87085
2.87332
2.87444
2.87187
2.86566
2.91834
2.91794
2.91697
2.91847
2.92074
2.92278
2.92418
2.92553
2.92663
2.92822
2.92978
2.9323
2.93584
2.94138
2.94891
2.95832
2.96766
2.974
2.97187
2.96204
3.0063
3.01333
3.01422
3.01078
3.0061
3.00149
2.99787
2.99559
2.99441
2.99406
2.99435
2.99578
2.99806
3.00174
3.00635
3.01194
3.01702
3.01982
3.0193
3.01697
3.06798
3.0714
3.07339
3.07245
3.06911
3.06491
3.06119
3.05832
3.05634
3.05519
3.05459
3.05433
3.05384
3.05262
3.05036
3.04745
3.04437
3.04191
3.04312
3.04956
3.11142
3.11156
3.11251
3.11395
3.11475
3.11487
3.11466
3.11438
3.11394
3.11356
3.11305
3.11212
3.11005
3.10675
3.10205
3.0964
3.09135
3.08841
3.08884
3.09265
3.15569
3.14974
3.14607
3.14844
3.15456
3.16187
3.16798
3.17235
3.17459
3.17564
3.1753
3.17401
3.17123
3.16695
3.16097
3.15423
3.14794
3.144
3.14416
3.14659
3.22939
3.23071
3.23171
3.23341
3.23611
3.23916
3.24144
3.24313
3.24398
3.24445
3.24438
3.24426
3.24353
3.24263
3.24099
3.23905
3.23663
3.2345
3.23355
3.23206
3.30533
3.31545
3.32243
3.32388
3.32186
3.3182
3.31478
3.31267
3.3116
3.31184
3.31249
3.31426
3.3169
3.32144
3.32728
3.33386
3.33928
3.34203
3.33941
3.33061
3.35428
3.35819
3.36004
3.36063
3.3615
3.36303
3.36495
3.36697
3.36868
3.37044
3.37202
3.37422
3.37676
3.38082
3.38556
3.39097
3.39578
3.39845
3.39798
3.39471
3.41052
3.4062
3.40303
3.4035
3.40792
3.41471
3.42117
3.4262
3.42923
3.43105
3.43154
3.43125
3.42994
3.42831
3.42632
3.42517
3.42543
3.42679
3.42945
3.4338
3.50897
3.51106
3.5118
3.50966
3.5072
3.50487
3.50285
3.50147
3.50048
3.49944
3.49815
3.49623
3.49299
3.48802
3.48096
3.47257
3.4649
3.4607
3.46412
3.47366
3.59766
3.60423
3.60669
3.60168
3.59366
3.58524
3.57842
3.57378
3.57102
3.56935
3.56811
3.56697
3.56582
3.56443
3.56239
3.56012
3.55764
3.55645
3.55728
3.55767
3.64473
3.63859
3.63636
3.63627
3.63611
3.63634
3.63654
3.63675
3.63689
3.63757
3.63853
3.64051
3.64311
3.6476
3.6537
3.66111
3.66748
3.67077
3.66796
3.65784
3.70377
3.69807
3.69715
3.69934
3.70106
3.70209
3.70246
3.7029
3.7033
3.70449
3.7061
3.70887
3.7126
3.71806
3.72474
3.73248
3.73916
3.74263
3.74059
3.73363
3.77885
3.7806
3.78026
3.77766
3.77489
3.77267
3.77123
3.7704
3.76996
3.77017
3.7708
3.77219
3.77372
3.77608
3.7786
3.78146
3.78469
3.78748
3.78764
3.78695
3.84736
3.84453
3.84103
3.83851
3.83714
3.83669
3.83654
3.83643
3.83643
3.8366
3.83706
3.83767
3.83831
3.83821
3.83616
3.83216
3.82716
3.82318
3.82284
3.8285
3.92639
3.92809
3.9287
3.92722
3.92337
3.91764
3.91173
3.90695
3.90374
3.90174
3.9006
3.90011
3.89968
3.89927
3.8984
3.89674
3.89483
3.89289
3.89098
3.89059
3.98334
3.98925
3.99235
3.99009
3.98488
3.9786
3.97292
3.96822
3.96455
3.96184
3.9595
3.95714
3.95462
3.95211
3.95008
3.94951
3.95019
3.95079
3.94921
3.94559
4.00767
4.00188
4.00197
4.00665
4.01262
4.01834
4.02235
4.02399
4.0238
4.02264
4.02114
4.01941
4.01671
4.01261
4.00651
3.99856
3.99028
3.9838
3.98357
3.98893
4.06736
4.06701
4.06904
4.07313
4.07824
4.08295
4.08623
4.08812
4.08895
4.0891
4.08928
4.08929
4.08978
4.09016
4.08998
4.08906
4.08664
4.08397
4.08172
4.07863
4.15448
4.16106
4.16373
4.16277
4.16089
4.15887
4.15767
4.15752
4.15801
4.15895
4.16036
4.16283
4.1661
4.17144
4.17864
4.18668
4.19374
4.19721
4.19296
4.17991
4.24401
4.24889
4.25066
4.24999
4.24687
4.24224
4.23769
4.2341
4.23174
4.23047
4.2304
4.23125
4.23374
4.23749
4.24209
4.24692
4.25085
4.25269
4.25107
4.24539
4.32156
4.32947
4.3336
4.33228
4.32643
4.31802
4.30974
4.30289
4.29832
4.29547
4.29439
4.29459
4.29555
4.29687
4.29788
4.29755
4.29628
4.29428
4.29413
4.29675
4.35538
4.36163
4.36605
4.36783
4.3667
4.36367
4.36002
4.35667
4.35449
4.35346
4.35389
4.35495
4.35741
4.35992
4.36226
4.36396
4.36425
4.3632
4.3618
4.36091
4.36375
4.36061
4.36244
4.37087
4.38109
4.39041
4.39723
4.40142
4.4038
4.40562
4.40753
4.41023
4.41306
4.4162
4.41905
4.42047
4.42056
4.41925
4.41772
4.41537
4.41019
4.408
4.41111
4.42151
4.43377
4.445
4.45317
4.45835
4.46125
4.46307
4.46452
4.46543
4.46636
4.46628
4.46549
4.46407
4.46189
4.45951
4.45777
4.45491
4.50741
4.51901
4.52573
4.52936
4.53113
4.53053
4.52897
4.52719
4.52585
4.52463
4.52367
4.52263
4.5203
4.51622
4.51022
4.50219
4.49389
4.48716
4.48425
4.48173
4.59876
4.61483
4.62277
4.62248
4.61745
4.60946
4.60161
4.59517
4.59082
4.58748
4.58529
4.58276
4.58065
4.5766
4.56973
4.55936
4.54589
4.53303
4.52638
4.52298
4.6513
4.65854
4.66399
4.66642
4.66581
4.6624
4.65771
4.65294
4.64898
4.64609
4.64415
4.64317
4.64234
4.64198
4.64117
4.63851
4.63426
4.62869
4.6201
4.60618
4.68185
4.67937
4.68131
4.68904
4.69756
4.704
4.70625
4.70555
4.70342
4.70135
4.69966
4.69804
4.69728
4.6969
4.69728
4.69834
4.69939
4.69925
4.69317
4.67966
4.72243
4.72261
4.72496
4.73257
4.74279
4.75178
4.75695
4.75847
4.75758
4.75547
4.75299
4.75069
4.74768
4.7442
4.74013
4.73571
4.73235
4.73042
4.72863
4.72491
4.77248
4.77278
4.77225
4.7781
4.7886
4.79977
4.8083
4.81318
4.81515
4.81491
4.8139
4.81154
4.80861
4.8032
4.79553
4.78619
4.77731
4.77244
4.77386
4.77792
4.85566
4.8584
4.85538
4.85594
4.86135
4.86862
4.87513
4.87943
4.88179
4.88267
4.88309
4.88359
4.88394
4.88417
4.88415
4.88332
4.88259
4.88337
4.88424
4.88112
4.97103
4.97903
4.97377
4.96424
4.95834
4.95645
4.95688
4.95799
4.95885
4.95936
4.96001
4.96126
4.9643
4.96919
4.97663
4.98637
4.99686
5.0061
5.00774
4.9975
5.09053
5.0952
5.08721
5.07339
5.06164
5.05352
5.04847
5.04504
5.04262
5.04102
5.04048
5.04163
5.04411
5.04881
5.05559
5.06453
5.07513
5.08607
5.09238
5.08918
5.21108
5.21772
5.21013
5.19195
5.17222
5.15561
5.14339
5.13491
5.12955
5.1266
5.12609
5.12762
5.13121
5.13604
5.14206
5.14947
5.15829
5.16867
5.17764
5.17975
5.30761
5.31385
5.30574
5.28617
5.26367
5.24423
5.23003
5.22063
5.2149
5.21251
5.21299
5.21702
5.22391
5.2342
5.24741
5.26291
5.27931
5.29412
5.30017
5.29244
5.38909
5.39339
5.38756
5.37307
5.35487
5.33751
5.3231
5.31248
5.30514
5.30182
5.30175
5.30598
5.31402
5.32672
5.34386
5.36434
5.38559
5.40265
5.40527
5.38957
5.47175
5.48922
5.49368
5.48223
5.4622
5.4393
5.41836
5.40215
5.39143
5.38631
5.38613
5.39127
5.40053
5.41355
5.42839
5.44319
5.45536
5.46252
5.4603
5.44829
5.50721
5.53568
5.55184
5.54829
5.53254
5.51091
5.49024
5.47403
5.46353
5.45896
5.45967
5.46599
5.47693
5.4919
5.50908
5.52526
5.537
5.54083
5.52916
5.5059
5.47827
5.50333
5.52841
5.54401
5.54935
5.54592
5.53803
5.52941
5.52285
5.52019
5.52148
5.52734
5.53697
5.54977
5.56388
5.57692
5.58433
5.58104
5.55832
5.5254
5.45508
5.49083
5.5296
5.55792
5.57612
5.58271
5.58129
5.57685
5.57305
5.5721
5.57421
5.57976
5.58689
5.59357
5.59683
5.59272
5.57927
5.5557
5.52138
5.49143
5.43964
5.48367
5.53216
5.56802
5.59461
5.60954
5.61515
5.61587
5.61554
5.61596
5.61778
5.6205
5.62343
5.62347
5.61812
5.60409
5.5794
5.54506
5.49809
5.4591
5.43123
5.47044
5.52305
5.56677
5.60506
5.63252
5.64813
5.65475
5.65669
5.65673
5.65572
5.6536
5.6483
5.63736
5.61991
5.5931
5.55762
5.51442
5.45847
5.41689
5.45047
5.48245
5.53638
5.58047
5.62168
5.6555
5.67804
5.68975
5.69471
5.69494
5.69242
5.68514
5.67287
5.65047
5.61711
5.57208
5.5185
5.46398
5.40776
5.38429
5.51242
5.52298
5.56756
5.60191
5.63923
5.67589
5.70551
5.72458
5.73483
5.73754
5.73454
5.72529
5.70845
5.68147
5.64505
5.60072
5.55636
5.51787
5.4722
5.46221
5.67305
5.64914
5.6723
5.68192
5.70274
5.73315
5.7629
5.78477
5.79794
5.8027
5.80094
5.79173
5.77656
5.7543
5.72918
5.70793
5.6969
5.69395
5.66761
5.68055
5.9929
5.93534
5.93662
5.89852
5.87208
5.8679
5.87709
5.88794
5.89595
5.89974
5.90025
5.89864
5.89462
5.89235
5.89604
5.91283
5.94653
5.98369
5.97539
6.0261
6.41577
6.31527
6.30707
6.22335
6.13901
6.08368
6.0562
6.04337
6.03747
6.03524
6.03631
6.04151
6.05296
6.07566
6.11506
6.17963
6.26533
6.34435
6.34618
6.44387
6.79267
6.63002
6.64278
6.54685
6.42749
6.3314
6.26905
6.23135
6.20952
6.19987
6.19986
6.21242
6.23599
6.27873
6.34505
6.44097
6.55736
6.6518
6.64013
6.80351
6.96207
6.70352
6.77077
6.71506
6.61161
6.51594
6.44703
6.40314
6.37717
6.36524
6.36476
6.37715
6.40357
6.44887
6.51545
6.60657
6.70423
6.75828
6.69378
6.95382
6.85929
6.44072
6.58397
6.61857
6.58598
6.53835
6.50055
6.47577
6.46018
6.45346
6.4529
6.46142
6.47639
6.50144
6.53672
6.5774
6.60318
6.56387
6.42182
6.84532
6.69244
6.02663
6.24512
6.37204
6.41108
6.41238
6.40646
6.40286
6.40017
6.39977
6.40079
6.40328
6.40753
6.41233
6.41682
6.41061
6.36692
6.23797
6.02353
6.69827
6.95046
5.93861
6.19455
6.32078
6.34318
6.33259
6.322
6.31655
6.31328
6.31229
6.31317
6.31622
6.31973
6.32814
6.33604
6.34683
6.31958
6.19911
5.95091
6.97031
8.14145
6.33292
6.48198
6.55802
6.53323
6.49285
6.46839
6.45553
6.44936
6.44535
6.4463
6.44769
6.45228
6.4668
6.48869
6.53314
6.56264
6.49277
6.34361
8.13735
10.3012
5.88385
5.95714
6.32546
6.41467
6.41688
6.41595
6.41606
6.41559
6.41526
6.41527
6.4161
6.41598
6.41661
6.41747
6.41585
6.32833
5.96133
5.88755
10.3013
-0.175945
-0.143252
-0.147809
-0.0985105
-0.0760411
-0.0720705
-0.0704379
-0.0663455
-0.0614636
-0.0587355
-0.0586734
-0.0623828
-0.0691325
-0.0771689
-0.0852594
-0.0966881
-0.125757
-0.17929
-0.182425
-0.215509
-0.205147
-0.175619
-0.167019
-0.0978955
-0.0384696
-0.00532704
0.00917315
0.0162789
0.0199448
0.0195401
0.0154744
0.00500887
-0.00874579
-0.0275532
-0.0511699
-0.0888544
-0.149256
-0.216904
-0.23864
-0.291206
0.0586122
0.0153412
0.00955034
0.035429
0.068973
0.0988075
0.118659
0.129132
0.133054
0.13188
0.125711
0.113447
0.0939263
0.0661748
0.0302551
-0.0106742
-0.045285
-0.0662359
-0.0775836
-0.0797392
0.152446
0.125718
0.1172
0.135036
0.166531
0.19837
0.222715
0.238518
0.246987
0.2498
0.247936
0.241578
0.230991
0.214176
0.188015
0.148149
0.0926224
0.0342092
0.014138
0.0322027
0.167455
0.17824
0.187738
0.218136
0.265635
0.315727
0.353976
0.378234
0.392017
0.40069
0.405907
0.411557
0.418624
0.43096
0.448952
0.470061
0.486442
0.491647
0.476766
0.456807
0.315958
0.361477
0.394134
0.422803
0.451295
0.479058
0.503977
0.525211
0.540564
0.553746
0.564581
0.578667
0.597341
0.626706
0.669864
0.729985
0.79874
0.855398
0.866504
0.835592
0.593457
0.651962
0.676409
0.662563
0.64814
0.64465
0.654063
0.670834
0.687682
0.702934
0.717281
0.734254
0.752794
0.773827
0.79582
0.821514
0.849202
0.873938
0.904205
0.927292
0.771217
0.805248
0.826052
0.834388
0.833003
0.830688
0.832152
0.837609
0.84507
0.85347
0.862722
0.872657
0.883222
0.89023
0.889393
0.877079
0.859106
0.849665
0.874246
0.921126
0.970889
0.99919
1.03043
1.04204
1.036
1.02367
1.01293
1.00603
1.00345
1.00351
1.00482
1.00546
1.00404
0.999813
0.990467
0.973486
0.955308
0.947001
0.95775
0.983844
1.09829
1.08085
1.08551
1.09982
1.11655
1.13194
1.14201
1.14843
1.15258
1.15566
1.15719
1.15617
1.15124
1.14073
1.12322
1.10121
1.07686
1.0569
1.05604
1.06963
1.30256
1.24699
1.23086
1.25232
1.27913
1.29905
1.30859
1.31352
1.31574
1.31757
1.3183
1.31834
1.31554
1.31202
1.30872
1.3074
1.30684
1.30415
1.29552
1.27782
1.64311
1.62715
1.60657
1.57696
1.54335
1.51319
1.49218
1.48074
1.47435
1.47246
1.47188
1.47338
1.47633
1.48306
1.49576
1.51764
1.54846
1.58161
1.58253
1.54061
1.72762
1.74137
1.71395
1.67153
1.63217
1.60639
1.59418
1.59079
1.59142
1.59486
1.59976
1.60806
1.6197
1.63585
1.65382
1.67029
1.68206
1.69158
1.69821
1.68873
1.63723
1.6143
1.59774
1.62367
1.65226
1.67177
1.68242
1.68972
1.69565
1.70146
1.70581
1.70932
1.7126
1.71752
1.72669
1.74174
1.75967
1.77471
1.78254
1.78495
1.72269
1.71793
1.71488
1.7292
1.75347
1.77666
1.79478
1.80761
1.81636
1.82051
1.82067
1.81532
1.80218
1.77997
1.75071
1.72241
1.70389
1.69636
1.70753
1.73201
1.85043
1.85396
1.85605
1.87425
1.90505
1.93799
1.96256
1.9754
1.98098
1.98083
1.97719
1.96716
1.95134
1.92437
1.88426
1.82813
1.76021
1.69898
1.68405
1.70764
2.16948
2.19615
2.21131
2.21171
2.20609
2.19759
2.19063
2.18447
2.17943
2.17358
2.1677
2.15967
2.14951
2.13726
2.12499
2.10871
2.08631
2.05841
2.02127
1.98154
2.56984
2.6082
2.60941
2.56184
2.5033
2.45075
2.41346
2.38965
2.37497
2.36509
2.35846
2.35488
2.35659
2.36485
2.38003
2.40203
2.427
2.44433
2.4184
2.35265
2.79926
2.79316
2.77218
2.73173
2.6813
2.63396
2.59578
2.56638
2.54587
2.53182
2.52336
2.52064
2.52557
2.54107
2.56444
2.59193
2.61701
2.62952
2.62269
2.59989
2.85507
2.8297
2.80697
2.78635
2.76261
2.73817
2.71639
2.69751
2.68317
2.67318
2.66743
2.66464
2.66525
2.66934
2.67886
2.69478
2.71532
2.73096
2.7406
2.7488
2.74659
2.70383
2.69177
2.72052
2.75568
2.78021
2.79168
2.79499
2.79526
2.79491
2.79682
2.80048
2.80491
2.80678
2.80509
2.7968
2.78485
2.77266
2.78233
2.81602
2.70767
2.70119
2.71294
2.74655
2.79143
2.83522
2.8686
2.89053
2.90389
2.91283
2.91986
2.92636
2.93327
2.93884
2.94378
2.94697
2.95037
2.95588
2.96144
2.97375
2.72678
2.73836
2.76369
2.81278
2.87116
2.92796
2.97531
3.00822
3.02858
3.04122
3.04962
3.05556
3.0592
3.06202
3.06487
3.06696
3.06779
3.06982
3.07807
3.09495
2.94595
2.99218
3.02909
3.05971
3.08737
3.11272
3.13709
3.1588
3.17505
3.18614
3.19331
3.19846
3.20289
3.20521
3.20506
3.20265
3.19854
3.19555
3.20185
3.21689
3.29934
3.36709
3.38887
3.36485
3.33715
3.31992
3.31501
3.31933
3.32729
3.33429
3.33958
3.34364
3.34735
3.35078
3.35325
3.35467
3.35491
3.35429
3.35706
3.3616
3.55477
3.57661
3.57581
3.55378
3.52369
3.49997
3.48589
3.48072
3.48096
3.48338
3.48546
3.48623
3.48682
3.48779
3.49186
3.50249
3.52008
3.53811
3.54372
3.53265
3.71823
3.70855
3.6998
3.68907
3.6715
3.6546
3.64291
3.637
3.63525
3.6352
3.63439
3.63212
3.62637
3.61826
3.6087
3.60347
3.60995
3.62846
3.64015
3.62793
3.78616
3.74262
3.72995
3.7527
3.77524
3.79181
3.80149
3.80576
3.80691
3.8069
3.80614
3.80347
3.79874
3.78833
3.76736
3.72974
3.67539
3.62371
3.61737
3.64425
4.00855
3.98722
3.98941
4.00544
4.01287
4.01186
4.00615
4.00047
3.99601
3.99352
3.99257
3.99308
3.99384
3.99537
3.99828
3.99998
3.99569
3.98352
3.96073
3.94382
4.34826
4.35802
4.35315
4.31848
4.27856
4.23955
4.20808
4.18761
4.1756
4.16974
4.16681
4.16713
4.1704
4.17941
4.19769
4.22891
4.2691
4.304
4.2994
4.26156
4.5389
4.51948
4.48958
4.45567
4.42336
4.39286
4.36668
4.3465
4.33289
4.32461
4.32019
4.31955
4.32182
4.32934
4.34201
4.35938
4.37912
4.39659
4.40653
4.40082
4.62494
4.59937
4.56992
4.54566
4.52511
4.50816
4.4939
4.48052
4.46914
4.46127
4.45609
4.45214
4.44775
4.4397
4.42681
4.41295
4.40421
4.40401
4.41691
4.43732
4.57757
4.54284
4.52257
4.53019
4.5513
4.57238
4.58565
4.59032
4.59037
4.58816
4.58631
4.58344
4.57963
4.57076
4.55199
4.51787
4.47088
4.42856
4.42738
4.46397
4.56265
4.53738
4.54821
4.59905
4.65183
4.68914
4.7097
4.71908
4.7228
4.72397
4.72448
4.72448
4.72553
4.72831
4.73614
4.74613
4.75209
4.75017
4.73562
4.72381
4.77862
4.81366
4.83864
4.83813
4.83929
4.84405
4.85136
4.85671
4.8598
4.86058
4.86042
4.85998
4.85896
4.86117
4.87157
4.898
4.9407
4.97997
4.98039
4.94979
4.94912
4.97757
4.97257
4.95035
4.94647
4.9573
4.97367
4.98805
4.99811
5.00295
5.00441
5.00334
5.00078
4.99402
4.9799
4.95992
4.94343
4.93788
4.94841
4.96176
5.08249
5.0901
5.08827
5.09687
5.11028
5.12435
5.13752
5.14867
5.15769
5.1628
5.16605
5.16653
5.16564
5.16015
5.14561
5.11332
5.06614
5.02516
5.02054
5.04842
5.29868
5.32589
5.34391
5.35192
5.34656
5.33691
5.33083
5.32868
5.32954
5.33192
5.33546
5.33939
5.34563
5.35566
5.37349
5.39655
5.41348
5.41798
5.40281
5.38335
5.51208
5.53963
5.55916
5.56117
5.54741
5.52616
5.50742
5.49554
5.48969
5.48827
5.4899
5.49575
5.50526
5.52374
5.55564
5.60773
5.67149
5.72219
5.72373
5.68124
5.65927
5.67447
5.68253
5.67517
5.66317
5.65127
5.63965
5.63081
5.62498
5.62276
5.62275
5.6254
5.62969
5.63463
5.63955
5.64837
5.66216
5.67716
5.69486
5.70464
5.70084
5.69365
5.69283
5.69796
5.70872
5.72385
5.73572
5.7428
5.74563
5.74616
5.74565
5.744
5.74029
5.73033
5.70956
5.67551
5.63771
5.61384
5.62452
5.66537
5.76781
5.74647
5.7524
5.78807
5.82757
5.85886
5.87723
5.88716
5.89068
5.89049
5.88649
5.87874
5.86672
5.8492
5.82459
5.79041
5.75371
5.72891
5.72396
5.74101
6.03374
6.05097
6.06537
6.06521
6.05981
6.05524
6.05489
6.05678
6.05826
6.05814
6.05664
6.05237
6.04332
6.02879
6.00951
5.98544
5.95676
5.92985
5.91454
5.91156
6.24856
6.2653
6.26333
6.24154
6.2217
6.21288
6.21453
6.21987
6.22518
6.22959
6.23357
6.23802
6.24396
6.2529
6.26714
6.28643
6.30238
6.30598
6.28601
6.25286
6.37565
6.35349
6.35064
6.37377
6.39233
6.39915
6.39763
6.39438
6.39288
6.39414
6.39679
6.40363
6.41585
6.4403
6.47918
6.53449
6.59612
6.64254
6.63676
6.58697
6.67355
6.6844
6.68647
6.66141
6.62361
6.58715
6.56034
6.54451
6.53677
6.53556
6.53795
6.54424
6.55293
6.56533
6.58111
6.59964
6.61806
6.63222
6.64458
6.64746
6.78516
6.78212
6.75766
6.71177
6.67093
6.64787
6.63875
6.63777
6.64066
6.64571
6.65225
6.65942
6.66552
6.66701
6.65989
6.64342
6.62503
6.61264
6.62122
6.65066
6.67652
6.61351
6.58564
6.61271
6.65733
6.69979
6.72748
6.7433
6.75185
6.75754
6.75991
6.75981
6.75657
6.74977
6.73796
6.72292
6.71079
6.70609
6.70624
6.71532
6.80495
6.77277
6.78085
6.8215
6.86177
6.88754
6.89877
6.90072
6.89786
6.89274
6.88483
6.87278
6.85505
6.83232
6.80512
6.77566
6.74761
6.72861
6.72561
6.73444
7.15781
7.19332
7.21339
7.19269
7.15757
7.12251
7.09717
7.07843
7.06251
7.04764
7.03194
7.01347
6.99025
6.9606
6.92373
6.88111
6.83779
6.80438
6.79208
6.79702
7.36055
7.39444
7.38817
7.34916
7.31005
7.27812
7.25455
7.237
7.2231
7.21068
7.19906
7.18621
7.17068
7.15094
7.12688
7.09781
7.06357
7.03092
7.00872
6.99768
7.32333
7.30859
7.29623
7.30958
7.33364
7.35568
7.369
7.37646
7.37981
7.3811
7.38171
7.38345
7.38733
7.39585
7.41137
7.4336
7.4522
7.45684
7.43509
7.39794
7.35013
7.32547
7.33114
7.37978
7.44054
7.49419
7.52973
7.55107
7.56232
7.57021
7.57666
7.58763
7.60528
7.63686
7.68377
7.74862
7.82
7.87514
7.87374
7.82307
7.65956
7.6881
7.71233
7.72534
7.73268
7.7387
7.74492
7.75239
7.75863
7.76589
7.77457
7.78904
7.80957
7.83746
7.86879
7.90356
7.9388
7.96838
7.9921
8.00253
8.03446
8.08745
8.09176
8.04944
7.99965
7.96188
7.94174
7.93573
7.93688
7.94255
7.95241
7.96824
7.98894
8.01217
8.03229
8.04508
8.05349
8.06171
8.08623
8.12997
8.25533
8.26687
8.24948
8.21318
8.16982
8.13251
8.10651
8.09296
8.0885
8.09187
8.0997
8.11242
8.12824
8.14817
8.1703
8.19215
8.21385
8.23629
8.25799
8.28393
8.33243
8.31211
8.28945
8.27123
8.2516
8.23369
8.22014
8.21288
8.21114
8.21513
8.22185
8.2311
8.23975
8.2477
8.25275
8.25684
8.26194
8.27242
8.29468
8.31942
8.27064
8.2184
8.20091
8.23121
8.26866
8.29943
8.31752
8.32586
8.32863
8.33123
8.33274
8.33377
8.33186
8.32597
8.31275
8.29345
8.27257
8.26108
8.27214
8.29055
8.37531
8.363
8.3751
8.41059
8.44147
8.45986
8.466
8.46514
8.46075
8.45569
8.44974
8.44196
8.42896
8.40933
8.38188
8.34776
8.3099
8.27938
8.27085
8.27035
8.64904
8.7017
8.71968
8.69286
8.66024
8.63409
8.61706
8.60569
8.59642
8.5873
8.5771
8.56328
8.54426
8.51996
8.49357
8.46946
8.44622
8.42454
8.40244
8.37003
8.7641
8.79591
8.78902
8.76058
8.74325
8.73843
8.73844
8.73848
8.73599
8.73094
8.72276
8.7109
8.69382
8.67369
8.65398
8.64106
8.63945
8.64599
8.62762
8.56695
8.80341
8.79188
8.79841
8.8378
8.87411
8.89415
8.89936
8.89912
8.89738
8.8956
8.89439
8.89341
8.89342
8.89098
8.88103
8.86221
8.83757
8.8155
8.79389
8.75328
9.05585
9.08744
9.108
9.10775
9.09725
9.08357
9.07296
9.06691
9.06367
9.06272
9.06472
9.07126
9.08383
9.10381
9.12674
9.14384
9.14799
9.13498
9.10071
9.04855
9.23244
9.26631
9.27159
9.25216
9.23374
9.22471
9.22235
9.22194
9.222
9.22232
9.22426
9.22874
9.23868
9.25599
9.28146
9.31309
9.34183
9.35094
9.33126
9.29396
9.31206
9.30607
9.31653
9.35515
9.38663
9.40073
9.40048
9.39337
9.38643
9.38173
9.38023
9.38131
9.38369
9.38813
9.39518
9.40305
9.41193
9.41779
9.41857
9.41356
9.58668
9.62139
9.64315
9.63912
9.62036
9.59566
9.57276
9.55325
9.53909
9.52992
9.52694
9.52724
9.53055
9.53105
9.52642
9.51314
9.49226
9.46896
9.466
9.47926
9.72516
9.75768
9.75939
9.73337
9.70666
9.68727
9.67407
9.66441
9.65703
9.65264
9.65146
9.65382
9.65796
9.66256
9.66592
9.66499
9.66242
9.6586
9.65237
9.64025
9.66981
9.6523
9.65217
9.68964
9.72843
9.75291
9.76267
9.76556
9.76542
9.76518
9.76521
9.76551
9.76666
9.76843
9.77073
9.77213
9.77132
9.76911
9.76811
9.75645
9.75945
9.76435
9.77809
9.80419
9.83307
9.85586
9.86898
9.87459
9.87557
9.87509
9.87419
9.87398
9.87244
9.86977
9.86519
9.85801
9.85098
9.84634
9.84745
9.83949
9.86577
9.87751
9.89075
9.91587
9.94369
9.96919
9.98494
9.98971
9.98822
9.98442
9.98029
9.97481
9.96792
9.9554
9.9377
9.91675
9.89643
9.88333
9.88464
9.88261
10.0211
10.052
10.0636
10.0711
10.0786
10.0859
10.0923
10.095
10.0944
10.0906
10.0852
10.0778
10.0668
10.0493
10.0238
9.99057
9.95635
9.93119
9.92787
9.92425
10.1137
10.1469
10.1443
10.137
10.143
10.1592
10.1784
10.1937
10.2032
10.2061
10.205
10.1988
10.1897
10.1757
10.1559
10.1303
10.1
10.0724
10.0597
10.042
10.1473
10.1416
10.1401
10.1871
10.2417
10.2868
10.3159
10.3325
10.3402
10.3425
10.3416
10.3389
10.3341
10.3304
10.3308
10.3364
10.3445
10.346
10.3329
10.291
10.4841
10.5271
10.5391
10.5368
10.527
10.5174
10.5109
10.5066
10.5016
10.4957
10.4888
10.4809
10.4741
10.4703
10.4751
10.4978
10.5396
10.5831
10.589
10.5308
10.7823
10.8367
10.8261
10.7779
10.7299
10.6967
10.6787
10.668
10.6605
10.6531
10.6457
10.6378
10.6284
10.6162
10.5997
10.5811
10.569
10.5706
10.5901
10.584
10.8736
10.8729
10.8366
10.8168
10.8129
10.819
10.8271
10.8323
10.8358
10.8364
10.8372
10.8366
10.8373
10.8352
10.8272
10.8065
10.7732
10.746
10.7513
10.7605
11.0629
11.0443
11.0156
11.0157
11.0257
11.0377
11.0456
11.05
11.0524
11.0558
11.0617
11.0728
11.0894
11.1145
11.1502
11.1942
11.2347
11.2609
11.2586
11.2149
11.4901
11.5255
11.511
11.4671
11.4121
11.3625
11.3269
11.3052
11.2931
11.2902
11.2946
11.3089
11.3343
11.3758
11.4378
11.5226
11.6181
11.6979
11.7176
11.6496
11.8249
11.8879
11.8611
11.7781
11.6862
11.6089
11.5567
11.5251
11.5091
11.5052
11.5115
11.5287
11.5548
11.5926
11.641
11.6966
11.7535
11.804
11.841
11.8243
11.8762
11.8928
11.8563
11.8182
11.7845
11.7552
11.7315
11.7141
11.7057
11.7064
11.7171
11.7377
11.7678
11.8028
11.8366
11.8643
11.8868
11.9061
11.9311
11.9382
11.9455
11.9553
11.9477
11.9533
11.9555
11.9475
11.9317
11.9158
11.9053
11.9036
11.911
11.9292
11.9557
11.989
12.0232
12.0541
12.0805
12.1018
12.1096
12.0866
12.2102
12.2784
12.3021
12.2861
12.2483
12.2
12.1563
12.1239
12.1035
12.095
12.0964