/*--------------------------------*- C++ -*----------------------------------*\
  =========                 |
  \\      /  F ield         | OpenFOAM: The Open Source CFD Toolbox
   \\    /   O peration     | Website:  https://openfoam.org
    \\  /    A nd           | Version:  6
     \\/     M anipulation  |
\*---------------------------------------------------------------------------*/
FoamFile
{
    version     2.0;
    format      ascii;
    class       surfaceScalarField;
    location    "13";
    object      phi;
}
// * * * * * * * * * * * * * * * * * * * * * * * * * * * * * * * * * * * * * //

dimensions      [0 3 -1 0 0 0 0];

internalField   nonuniform List<scalar> 
258600
(
-6.16494e-09
-8.4799e-08
5.87317e-09
-6.44156e-09
-9.33749e-08
-6.68558e-09
-1.01699e-07
-6.90032e-09
-1.09686e-07
-7.08801e-09
-1.17252e-07
-7.25184e-09
-1.24324e-07
-7.39531e-09
-1.3084e-07
-7.52203e-09
-1.36754e-07
-7.63519e-09
-1.42036e-07
-7.73771e-09
-1.46671e-07
-7.83183e-09
-1.5066e-07
-7.91947e-09
-1.54019e-07
-8.00183e-09
-1.56776e-07
-8.07984e-09
-1.58971e-07
-8.15387e-09
-1.6065e-07
-8.2241e-09
-1.61867e-07
-8.29037e-09
-1.6268e-07
-8.35251e-09
-1.63146e-07
-8.41032e-09
-1.63327e-07
-1.63278e-07
-8.46341e-09
-6.9839e-09
-8.45932e-08
6.77921e-09
-7.18607e-09
-9.31721e-08
-7.37686e-09
-1.01508e-07
-7.55044e-09
-1.09512e-07
-7.70599e-09
-1.17096e-07
-7.84415e-09
-1.24185e-07
-7.96734e-09
-1.30716e-07
-8.07772e-09
-1.36643e-07
-8.17817e-09
-1.41935e-07
-8.27061e-09
-1.46578e-07
-8.35727e-09
-1.50573e-07
-8.43926e-09
-1.53937e-07
-8.51788e-09
-1.56698e-07
-8.59343e-09
-1.58896e-07
-8.66628e-09
-1.60578e-07
-8.73619e-09
-1.61798e-07
-8.80298e-09
-1.62613e-07
-8.86616e-09
-1.63084e-07
-8.92546e-09
-1.63268e-07
-1.63223e-07
-8.98056e-09
-8.28087e-09
-8.44611e-08
8.15088e-09
-8.4134e-09
-9.30381e-08
-8.5426e-09
-1.01378e-07
-8.66329e-09
-1.0939e-07
-8.77508e-09
-1.16984e-07
-8.87683e-09
-1.24082e-07
-8.97069e-09
-1.30622e-07
-9.05701e-09
-1.36556e-07
-9.13842e-09
-1.41854e-07
-9.21537e-09
-1.465e-07
-9.29002e-09
-1.50498e-07
-9.36242e-09
-1.53864e-07
-9.4339e-09
-1.56626e-07
-9.5039e-09
-1.58825e-07
-9.57303e-09
-1.60509e-07
-9.64033e-09
-1.61731e-07
-9.70582e-09
-1.62548e-07
-9.76848e-09
-1.63021e-07
-9.82808e-09
-1.63209e-07
-1.63168e-07
-9.88396e-09
-9.963e-09
-8.44053e-08
9.90934e-09
-1.00227e-08
-9.29765e-08
-1.00846e-08
-1.01315e-07
-1.01445e-08
-1.09328e-07
-1.0203e-08
-1.16924e-07
-1.02585e-08
-1.24025e-07
-1.03129e-08
-1.30567e-07
-1.03656e-08
-1.36502e-07
-1.0419e-08
-1.418e-07
-1.04725e-08
-1.46446e-07
-1.05279e-08
-1.50443e-07
-1.05845e-08
-1.53807e-07
-1.06433e-08
-1.56568e-07
-1.07032e-08
-1.58765e-07
-1.07645e-08
-1.60448e-07
-1.0826e-08
-1.61669e-07
-1.08874e-08
-1.62487e-07
-1.09475e-08
-1.62962e-07
-1.10059e-08
-1.63151e-07
-1.63113e-07
-1.10616e-08
-1.19049e-08
-8.44173e-08
1.19202e-08
-1.18958e-08
-9.29832e-08
-1.1892e-08
-1.01318e-07
-1.18907e-08
-1.09327e-07
-1.18936e-08
-1.1692e-07
-1.1899e-08
-1.24018e-07
-1.19091e-08
-1.30556e-07
-1.19227e-08
-1.36487e-07
-1.19422e-08
-1.4178e-07
-1.19662e-08
-1.46421e-07
-1.19965e-08
-1.50413e-07
-1.20316e-08
-1.53772e-07
-1.20724e-08
-1.56527e-07
-1.2117e-08
-1.58721e-07
-1.21659e-08
-1.604e-07
-1.2217e-08
-1.61618e-07
-1.22703e-08
-1.62435e-07
-1.23239e-08
-1.62908e-07
-1.23775e-08
-1.63098e-07
-1.63061e-07
-1.24293e-08
-1.3977e-08
-8.44789e-08
1.40418e-08
-1.39148e-08
-9.30423e-08
-1.38574e-08
-1.01373e-07
-1.38036e-08
-1.09378e-07
-1.37563e-08
-1.16966e-07
-1.37145e-08
-1.24058e-07
-1.3681e-08
-1.30589e-07
-1.36548e-08
-1.36512e-07
-1.36384e-08
-1.41796e-07
-1.36303e-08
-1.46428e-07
-1.36321e-08
-1.50411e-07
-1.3642e-08
-1.53761e-07
-1.36608e-08
-1.56509e-07
-1.36863e-08
-1.58695e-07
-1.37186e-08
-1.60368e-07
-1.37555e-08
-1.61582e-07
-1.37966e-08
-1.62395e-07
-1.38398e-08
-1.62866e-07
-1.38845e-08
-1.63055e-07
-1.63018e-07
-1.39287e-08
-1.61199e-08
-8.45749e-08
1.62214e-08
-1.6018e-08
-9.31405e-08
-1.5918e-08
-1.01471e-07
-1.58203e-08
-1.09473e-07
-1.5729e-08
-1.17056e-07
-1.56445e-08
-1.2414e-07
-1.55702e-08
-1.30662e-07
-1.55056e-08
-1.36575e-07
-1.54535e-08
-1.41848e-07
-1.54125e-08
-1.46469e-07
-1.53842e-08
-1.5044e-07
-1.53669e-08
-1.53778e-07
-1.53612e-08
-1.56516e-07
-1.53647e-08
-1.58692e-07
-1.53774e-08
-1.60356e-07
-1.53969e-08
-1.61563e-07
-1.54226e-08
-1.6237e-07
-1.54522e-08
-1.62837e-07
-1.54849e-08
-1.63023e-07
-1.62985e-07
-1.55186e-08
-1.83074e-08
-8.47016e-08
1.84383e-08
-1.81716e-08
-9.32733e-08
-1.80351e-08
-1.01605e-07
-1.78994e-08
-1.09606e-07
-1.77696e-08
-1.17184e-07
-1.76467e-08
-1.24261e-07
-1.75349e-08
-1.30773e-07
-1.74343e-08
-1.36675e-07
-1.73478e-08
-1.41935e-07
-1.72744e-08
-1.46542e-07
-1.72161e-08
-1.50498e-07
-1.71708e-08
-1.53824e-07
-1.71393e-08
-1.56548e-07
-1.71193e-08
-1.58712e-07
-1.71105e-08
-1.60366e-07
-1.71105e-08
-1.61564e-07
-1.71185e-08
-1.62363e-07
-1.71321e-08
-1.62825e-07
-1.71502e-08
-1.63007e-07
-1.62966e-07
-1.71707e-08
-2.05096e-08
-8.48525e-08
2.06632e-08
-2.03469e-08
-9.34338e-08
-2.01804e-08
-1.01771e-07
-2.00126e-08
-1.09772e-07
-1.98493e-08
-1.17347e-07
-1.96924e-08
-1.24417e-07
-1.95466e-08
-1.30919e-07
-1.94126e-08
-1.36808e-07
-1.92937e-08
-1.42054e-07
-1.91892e-08
-1.46646e-07
-1.91012e-08
-1.50587e-07
-1.9028e-08
-1.53897e-07
-1.89703e-08
-1.56607e-07
-1.89258e-08
-1.58757e-07
-1.88942e-08
-1.60399e-07
-1.8873e-08
-1.61586e-07
-1.88615e-08
-1.62376e-07
-1.8857e-08
-1.6283e-07
-1.88586e-08
-1.63006e-07
-1.62962e-07
-1.88639e-08
-2.27215e-08
-8.50237e-08
2.28946e-08
-2.25353e-08
-9.36186e-08
-2.23422e-08
-1.01963e-07
-2.21457e-08
-1.09968e-07
-2.19523e-08
-1.1754e-07
-2.17645e-08
-1.24603e-07
-2.15875e-08
-1.31096e-07
-2.14224e-08
-1.36972e-07
-2.12729e-08
-1.42204e-07
-2.11388e-08
-1.4678e-07
-2.10221e-08
-1.50705e-07
-2.09214e-08
-1.53998e-07
-2.08374e-08
-1.56692e-07
-2.07681e-08
-1.58828e-07
-2.07131e-08
-1.60455e-07
-2.06699e-08
-1.6163e-07
-2.06376e-08
-1.6241e-07
-2.06139e-08
-1.62855e-07
-2.05973e-08
-1.63025e-07
-1.62975e-07
-2.05858e-08
-2.49274e-08
-8.52121e-08
2.51168e-08
-2.47219e-08
-9.38232e-08
-2.45067e-08
-1.02179e-07
-2.42857e-08
-1.10188e-07
-2.4066e-08
-1.1776e-07
-2.38505e-08
-1.24818e-07
-2.3645e-08
-1.31302e-07
-2.34512e-08
-1.37166e-07
-2.3273e-08
-1.42383e-07
-2.31106e-08
-1.46943e-07
-2.2966e-08
-1.5085e-07
-2.28385e-08
-1.54127e-07
-2.27285e-08
-1.56803e-07
-2.26342e-08
-1.58923e-07
-2.25553e-08
-1.60536e-07
-2.24894e-08
-1.61697e-07
-2.24355e-08
-1.62466e-07
-2.23914e-08
-1.62901e-07
-2.23555e-08
-1.63063e-07
-1.63007e-07
-2.23259e-08
-2.71422e-08
-8.54178e-08
2.73476e-08
-2.69171e-08
-9.40489e-08
-2.66794e-08
-1.02417e-07
-2.64342e-08
-1.10433e-07
-2.61887e-08
-1.18006e-07
-2.59466e-08
-1.25061e-07
-2.57137e-08
-1.31536e-07
-2.54924e-08
-1.37388e-07
-2.52866e-08
-1.4259e-07
-2.50969e-08
-1.47133e-07
-2.49254e-08
-1.51024e-07
-2.47715e-08
-1.54282e-07
-2.46358e-08
-1.56941e-07
-2.45167e-08
-1.59044e-07
-2.44137e-08
-1.60641e-07
-2.43248e-08
-1.61788e-07
-2.42488e-08
-1.62544e-07
-2.41836e-08
-1.62969e-07
-2.41275e-08
-1.63121e-07
-1.63058e-07
-2.40789e-08
-2.93521e-08
-8.56413e-08
2.95725e-08
-2.91084e-08
-9.42942e-08
-2.88501e-08
-1.02678e-07
-2.85825e-08
-1.10702e-07
-2.83131e-08
-1.18277e-07
-2.80462e-08
-1.25329e-07
-2.77876e-08
-1.31796e-07
-2.75402e-08
-1.37636e-07
-2.73079e-08
-1.42824e-07
-2.70919e-08
-1.47351e-07
-2.68941e-08
-1.51223e-07
-2.67143e-08
-1.54463e-07
-2.65531e-08
-1.57104e-07
-2.64092e-08
-1.5919e-07
-2.6282e-08
-1.60771e-07
-2.61697e-08
-1.61903e-07
-2.6071e-08
-1.62645e-07
-2.5984e-08
-1.63058e-07
-2.59071e-08
-1.632e-07
-1.63129e-07
-2.58385e-08
-3.15643e-08
-8.5881e-08
3.18008e-08
-3.13018e-08
-9.45585e-08
-3.10227e-08
-1.02959e-07
-3.07329e-08
-1.10993e-07
-3.04399e-08
-1.18572e-07
-3.01487e-08
-1.25622e-07
-2.98651e-08
-1.32082e-07
-2.95922e-08
-1.37911e-07
-2.93341e-08
-1.43085e-07
-2.90922e-08
-1.47595e-07
-2.88686e-08
-1.51449e-07
-2.86633e-08
-1.54671e-07
-2.84767e-08
-1.57293e-07
-2.83081e-08
-1.59361e-07
-2.81565e-08
-1.60925e-07
-2.80206e-08
-1.62041e-07
-2.78988e-08
-1.6277e-07
-2.77897e-08
-1.6317e-07
-2.76912e-08
-1.63302e-07
-1.63221e-07
-2.76021e-08
-3.37698e-08
-8.6134e-08
3.40209e-08
-3.34907e-08
-9.48389e-08
-3.31922e-08
-1.03259e-07
-3.28816e-08
-1.11306e-07
-3.25661e-08
-1.1889e-07
-3.22514e-08
-1.25938e-07
-3.19434e-08
-1.32392e-07
-3.16458e-08
-1.38211e-07
-3.13623e-08
-1.43371e-07
-3.10949e-08
-1.47864e-07
-3.08456e-08
-1.51701e-07
-3.06149e-08
-1.54904e-07
-3.0403e-08
-1.57508e-07
-3.02094e-08
-1.59557e-07
-3.00332e-08
-1.61104e-07
-2.98733e-08
-1.62204e-07
-2.97281e-08
-1.62918e-07
-2.95962e-08
-1.63305e-07
-2.94757e-08
-1.63425e-07
-1.63335e-07
-2.93654e-08
-3.59796e-08
-8.64039e-08
3.62474e-08
-3.56819e-08
-9.51382e-08
-3.53631e-08
-1.0358e-07
-3.50311e-08
-1.1164e-07
-3.46929e-08
-1.19231e-07
-3.43547e-08
-1.26279e-07
-3.40223e-08
-1.32727e-07
-3.36999e-08
-1.38536e-07
-3.33911e-08
-1.43682e-07
-3.30984e-08
-1.4816e-07
-3.28235e-08
-1.5198e-07
-3.25673e-08
-1.55164e-07
-3.23299e-08
-1.57749e-07
-3.21112e-08
-1.5978e-07
-3.19102e-08
-1.61309e-07
-3.1726e-08
-1.62392e-07
-3.15569e-08
-1.63091e-07
-3.14019e-08
-1.63464e-07
-3.12586e-08
-1.63572e-07
-1.63471e-07
-3.11265e-08
-3.8189e-08
-8.66888e-08
3.84712e-08
-3.78737e-08
-9.5456e-08
-3.75345e-08
-1.03921e-07
-3.71807e-08
-1.11996e-07
-3.68195e-08
-1.19594e-07
-3.64576e-08
-1.26644e-07
-3.61007e-08
-1.33087e-07
-3.57534e-08
-1.38887e-07
-3.54191e-08
-1.4402e-07
-3.51008e-08
-1.48482e-07
-3.48001e-08
-1.52284e-07
-3.45181e-08
-1.5545e-07
-3.4255e-08
-1.58016e-07
-3.40108e-08
-1.60028e-07
-3.37845e-08
-1.61539e-07
-3.35755e-08
-1.62605e-07
-3.33819e-08
-1.63288e-07
-3.32031e-08
-1.63647e-07
-3.30367e-08
-1.63742e-07
-1.6363e-07
-3.28821e-08
-4.03984e-08
-8.69931e-08
4.06971e-08
-4.00634e-08
-9.57944e-08
-3.97033e-08
-1.04284e-07
-3.93277e-08
-1.12375e-07
-3.89436e-08
-1.19982e-07
-3.85581e-08
-1.27033e-07
-3.81767e-08
-1.33472e-07
-3.78044e-08
-1.39263e-07
-3.74447e-08
-1.44384e-07
-3.71007e-08
-1.4883e-07
-3.67739e-08
-1.52615e-07
-3.64659e-08
-1.55762e-07
-3.61767e-08
-1.58309e-07
-3.59067e-08
-1.60302e-07
-3.56546e-08
-1.61795e-07
-3.54203e-08
-1.62844e-07
-3.52018e-08
-1.63511e-07
-3.49986e-08
-1.63855e-07
-3.48082e-08
-1.63937e-07
-1.63812e-07
-3.46304e-08
-4.26017e-08
-8.73115e-08
4.2916e-08
-4.22492e-08
-9.61499e-08
-4.18692e-08
-1.04667e-07
-4.1472e-08
-1.12776e-07
-4.10651e-08
-1.20392e-07
-4.06559e-08
-1.27446e-07
-4.02498e-08
-1.33882e-07
-3.98523e-08
-1.39665e-07
-3.94667e-08
-1.44773e-07
-3.90966e-08
-1.49205e-07
-3.87433e-08
-1.52972e-07
-3.84089e-08
-1.56101e-07
-3.80931e-08
-1.58629e-07
-3.77967e-08
-1.60603e-07
-3.75183e-08
-1.62077e-07
-3.72581e-08
-1.63109e-07
-3.70138e-08
-1.63759e-07
-3.67856e-08
-1.64088e-07
-3.65705e-08
-1.64156e-07
-1.64018e-07
-3.63688e-08
-4.48009e-08
-8.76458e-08
4.51315e-08
-4.44307e-08
-9.65231e-08
-4.40311e-08
-1.05069e-07
-4.36128e-08
-1.13198e-07
-4.3183e-08
-1.20825e-07
-4.27501e-08
-1.27883e-07
-4.23191e-08
-1.34317e-07
-4.18961e-08
-1.40093e-07
-4.14843e-08
-1.4519e-07
-4.10877e-08
-1.49607e-07
-4.07074e-08
-1.53357e-07
-4.0346e-08
-1.56467e-07
-4.00029e-08
-1.58977e-07
-3.96795e-08
-1.60932e-07
-3.93741e-08
-1.62387e-07
-3.90873e-08
-1.63401e-07
-3.88166e-08
-1.64034e-07
-3.85625e-08
-1.64347e-07
-3.8322e-08
-1.64401e-07
-1.6425e-07
-3.80956e-08
-4.70034e-08
-8.79964e-08
4.73503e-08
-4.66148e-08
-9.69155e-08
-4.61942e-08
-1.05492e-07
-4.57535e-08
-1.13643e-07
-4.52999e-08
-1.21283e-07
-4.48422e-08
-1.28345e-07
-4.43855e-08
-1.34779e-07
-4.39362e-08
-1.40547e-07
-4.34974e-08
-1.45633e-07
-4.30733e-08
-1.50036e-07
-4.26653e-08
-1.5377e-07
-4.2276e-08
-1.56862e-07
-4.1905e-08
-1.59353e-07
-4.15536e-08
-1.61289e-07
-4.12204e-08
-1.62725e-07
-4.09061e-08
-1.63721e-07
-4.06082e-08
-1.64337e-07
-4.03274e-08
-1.64634e-07
-4.00605e-08
-1.64672e-07
-1.64507e-07
-3.98085e-08
-4.92087e-08
-8.83671e-08
4.95729e-08
-4.87995e-08
-9.73293e-08
-4.8357e-08
-1.05938e-07
-4.7893e-08
-1.14111e-07
-4.74148e-08
-1.21765e-07
-4.69316e-08
-1.28834e-07
-4.64484e-08
-1.35267e-07
-4.59719e-08
-1.41029e-07
-4.55052e-08
-1.46105e-07
-4.50529e-08
-1.50494e-07
-4.46162e-08
-1.54212e-07
-4.41982e-08
-1.57286e-07
-4.37981e-08
-1.59758e-07
-4.3418e-08
-1.61675e-07
-4.3056e-08
-1.63092e-07
-4.27132e-08
-1.64069e-07
-4.23871e-08
-1.64668e-07
-4.20786e-08
-1.64948e-07
-4.17844e-08
-1.6497e-07
-1.64791e-07
-4.15059e-08
-5.14136e-08
-8.87549e-08
5.17955e-08
-5.09845e-08
-9.77631e-08
-5.05197e-08
-1.06407e-07
-5.00318e-08
-1.14604e-07
-4.95283e-08
-1.22273e-07
-4.90185e-08
-1.29349e-07
-4.85078e-08
-1.35782e-07
-4.80031e-08
-1.4154e-07
-4.75075e-08
-1.46606e-07
-4.70259e-08
-1.50982e-07
-4.65595e-08
-1.54683e-07
-4.61115e-08
-1.5774e-07
-4.56815e-08
-1.60193e-07
-4.52714e-08
-1.62091e-07
-4.48795e-08
-1.63489e-07
-4.45071e-08
-1.64448e-07
-4.41517e-08
-1.65028e-07
-4.38144e-08
-1.65291e-07
-4.3492e-08
-1.65297e-07
-1.65103e-07
-4.31859e-08
-5.36195e-08
-8.91616e-08
5.40202e-08
-5.31695e-08
-9.82179e-08
-5.2682e-08
-1.06898e-07
-5.21696e-08
-1.15122e-07
-5.16399e-08
-1.22808e-07
-5.11027e-08
-1.29892e-07
-5.05635e-08
-1.36327e-07
-5.00295e-08
-1.4208e-07
-4.95038e-08
-1.47137e-07
-4.89917e-08
-1.515e-07
-4.84943e-08
-1.55186e-07
-4.80152e-08
-1.58225e-07
-4.75538e-08
-1.6066e-07
-4.71125e-08
-1.62538e-07
-4.66894e-08
-1.63917e-07
-4.62862e-08
-1.64857e-07
-4.59002e-08
-1.65419e-07
-4.55329e-08
-1.65665e-07
-4.51809e-08
-1.65654e-07
-1.65444e-07
-4.4846e-08
-5.58283e-08
-8.95869e-08
5.62477e-08
-5.53571e-08
-9.86944e-08
-5.48457e-08
-1.07414e-07
-5.43077e-08
-1.15665e-07
-5.37506e-08
-1.2337e-07
-5.31848e-08
-1.30464e-07
-5.26158e-08
-1.36901e-07
-5.20511e-08
-1.42651e-07
-5.14941e-08
-1.477e-07
-5.09501e-08
-1.5205e-07
-5.04203e-08
-1.55721e-07
-4.99086e-08
-1.58743e-07
-4.94144e-08
-1.61159e-07
-4.89404e-08
-1.63019e-07
-4.84847e-08
-1.64378e-07
-4.80492e-08
-1.65299e-07
-4.76313e-08
-1.65842e-07
-4.72326e-08
-1.66069e-07
-4.68497e-08
-1.66042e-07
-1.65815e-07
-4.64847e-08
-5.80442e-08
-9.0035e-08
5.84843e-08
-5.7549e-08
-9.91954e-08
-5.70121e-08
-1.07956e-07
-5.64466e-08
-1.16237e-07
-5.58607e-08
-1.23961e-07
-5.52647e-08
-1.31066e-07
-5.46643e-08
-1.37507e-07
-5.40675e-08
-1.43254e-07
-5.34775e-08
-1.48295e-07
-5.29001e-08
-1.52634e-07
-5.23363e-08
-1.56291e-07
-5.17905e-08
-1.59296e-07
-5.12619e-08
-1.61693e-07
-5.07537e-08
-1.63533e-07
-5.02637e-08
-1.64874e-07
-4.97944e-08
-1.65775e-07
-4.93429e-08
-1.66299e-07
-4.89113e-08
-1.66508e-07
-4.84958e-08
-1.66462e-07
-1.66219e-07
-4.80991e-08
-6.02599e-08
-9.0503e-08
6.07207e-08
-5.97414e-08
-9.97195e-08
-5.91785e-08
-1.08523e-07
-5.8585e-08
-1.16836e-07
-5.79691e-08
-1.24582e-07
-5.73418e-08
-1.317e-07
-5.67087e-08
-1.38146e-07
-5.60782e-08
-1.43891e-07
-5.54537e-08
-1.48925e-07
-5.48411e-08
-1.53254e-07
-5.42418e-08
-1.56896e-07
-5.366e-08
-1.59884e-07
-5.30955e-08
-1.62263e-07
-5.25512e-08
-1.64084e-07
-5.20254e-08
-1.65405e-07
-5.15205e-08
-1.66286e-07
-5.10338e-08
-1.66791e-07
-5.05675e-08
-1.66981e-07
-5.0118e-08
-1.66917e-07
-1.66655e-07
-4.9688e-08
-6.24834e-08
-9.09945e-08
6.29675e-08
-6.19391e-08
-1.0027e-07
-6.13483e-08
-1.09119e-07
-6.07248e-08
-1.17466e-07
-6.00773e-08
-1.25235e-07
-5.94167e-08
-1.32367e-07
-5.87491e-08
-1.38819e-07
-5.8083e-08
-1.44564e-07
-5.74221e-08
-1.49592e-07
-5.67725e-08
-1.5391e-07
-5.61356e-08
-1.57538e-07
-5.55161e-08
-1.60511e-07
-5.49135e-08
-1.62872e-07
-5.43314e-08
-1.64673e-07
-5.37677e-08
-1.65974e-07
-5.32254e-08
-1.66835e-07
-5.27016e-08
-1.6732e-07
-5.21989e-08
-1.6749e-07
-5.17136e-08
-1.67407e-07
-1.67127e-07
-5.12487e-08
-6.47085e-08
-9.15081e-08
6.52153e-08
-6.41386e-08
-1.00845e-07
-6.35192e-08
-1.09743e-07
-6.28648e-08
-1.18126e-07
-6.21842e-08
-1.25921e-07
-6.14889e-08
-1.33069e-07
-6.07851e-08
-1.39528e-07
-6.00816e-08
-1.45274e-07
-5.93822e-08
-1.50297e-07
-5.86936e-08
-1.54606e-07
-5.80172e-08
-1.58221e-07
-5.73578e-08
-1.61177e-07
-5.67152e-08
-1.6352e-07
-5.60931e-08
-1.65302e-07
-5.54897e-08
-1.66583e-07
-5.49079e-08
-1.67424e-07
-5.43451e-08
-1.67888e-07
-5.3804e-08
-1.68038e-07
-5.3281e-08
-1.67935e-07
-1.67635e-07
-5.27793e-08
-6.69451e-08
-9.20481e-08
6.74778e-08
-6.63463e-08
-1.0145e-07
-6.56957e-08
-1.10398e-07
-6.50078e-08
-1.1882e-07
-6.42919e-08
-1.26642e-07
-6.35594e-08
-1.33808e-07
-6.28171e-08
-1.40276e-07
-6.20739e-08
-1.46024e-07
-6.13339e-08
-1.51043e-07
-6.0604e-08
-1.55343e-07
-5.98857e-08
-1.58945e-07
-5.91842e-08
-1.61886e-07
-5.84993e-08
-1.64211e-07
-5.7835e-08
-1.65974e-07
-5.71895e-08
-1.67235e-07
-5.6566e-08
-1.68055e-07
-5.5962e-08
-1.68498e-07
-5.53804e-08
-1.68627e-07
-5.48175e-08
-1.68504e-07
-1.68183e-07
-5.42771e-08
-6.91842e-08
-9.26128e-08
6.97418e-08
-6.85568e-08
-1.02083e-07
-6.78744e-08
-1.11086e-07
-6.71519e-08
-1.19549e-07
-6.6399e-08
-1.274e-07
-6.56276e-08
-1.34586e-07
-6.48447e-08
-1.41065e-07
-6.40596e-08
-1.46816e-07
-6.32766e-08
-1.51833e-07
-6.25029e-08
-1.56124e-07
-6.17403e-08
-1.59714e-07
-6.09943e-08
-1.62639e-07
-6.02646e-08
-1.64947e-07
-5.95556e-08
-1.66691e-07
-5.88656e-08
-1.67931e-07
-5.81981e-08
-1.6873e-07
-5.75504e-08
-1.69152e-07
-5.69261e-08
-1.69259e-07
-5.63212e-08
-1.69114e-07
-1.68772e-07
-5.57398e-08
-7.14367e-08
-9.32067e-08
7.2023e-08
-7.07771e-08
-1.02749e-07
-7.00599e-08
-1.11808e-07
-6.92999e-08
-1.20315e-07
-6.85073e-08
-1.28199e-07
-6.76943e-08
-1.35406e-07
-6.68682e-08
-1.41898e-07
-6.60386e-08
-1.47653e-07
-6.521e-08
-1.52668e-07
-6.43899e-08
-1.56951e-07
-6.35803e-08
-1.6053e-07
-6.2787e-08
-1.6344e-07
-6.20099e-08
-1.6573e-07
-6.12535e-08
-1.67455e-07
-6.05163e-08
-1.68674e-07
-5.98021e-08
-1.69452e-07
-5.91083e-08
-1.69851e-07
-5.84387e-08
-1.69937e-07
-5.77893e-08
-1.69769e-07
-1.69405e-07
-5.71646e-08
-7.36934e-08
-9.38283e-08
7.43077e-08
-7.30019e-08
-1.03446e-07
-7.22488e-08
-1.12567e-07
-7.14499e-08
-1.21121e-07
-7.06157e-08
-1.29039e-07
-6.97589e-08
-1.3627e-07
-6.88871e-08
-1.42776e-07
-6.80103e-08
-1.48537e-07
-6.71334e-08
-1.53551e-07
-6.62641e-08
-1.57828e-07
-6.54046e-08
-1.61396e-07
-6.45611e-08
-1.64292e-07
-6.37336e-08
-1.66564e-07
-6.2927e-08
-1.68269e-07
-6.21398e-08
-1.69468e-07
-6.13761e-08
-1.70223e-07
-6.06334e-08
-1.706e-07
-5.99158e-08
-1.70663e-07
-5.92193e-08
-1.70471e-07
-1.70083e-07
-5.85488e-08
-7.59652e-08
-9.44825e-08
7.66115e-08
-7.52376e-08
-1.0418e-07
-7.44455e-08
-1.13364e-07
-7.36044e-08
-1.21968e-07
-7.27256e-08
-1.29924e-07
-7.18219e-08
-1.3718e-07
-7.09015e-08
-1.43703e-07
-6.99745e-08
-1.49472e-07
-6.90462e-08
-1.54486e-07
-6.81246e-08
-1.58758e-07
-6.72122e-08
-1.62315e-07
-6.63153e-08
-1.65196e-07
-6.54344e-08
-1.67452e-07
-6.45745e-08
-1.69137e-07
-6.37342e-08
-1.70315e-07
-6.2918e-08
-1.71048e-07
-6.21234e-08
-1.71401e-07
-6.13548e-08
-1.7144e-07
-6.06084e-08
-1.71224e-07
-1.70811e-07
-5.98892e-08
-7.82433e-08
-9.51681e-08
7.89214e-08
-7.74794e-08
-1.04951e-07
-7.66468e-08
-1.14203e-07
-7.57617e-08
-1.2286e-07
-7.48359e-08
-1.30856e-07
-7.38826e-08
-1.38141e-07
-7.29106e-08
-1.44681e-07
-7.19303e-08
-1.5046e-07
-7.09474e-08
-1.55476e-07
-6.99702e-08
-1.59743e-07
-6.90015e-08
-1.6329e-07
-6.8048e-08
-1.66158e-07
-6.71103e-08
-1.68396e-07
-6.61937e-08
-1.70062e-07
-6.5297e-08
-1.71218e-07
-6.44251e-08
-1.71928e-07
-6.35754e-08
-1.72258e-07
-6.27528e-08
-1.72271e-07
-6.19534e-08
-1.7203e-07
-1.71591e-07
-6.11826e-08
-8.0538e-08
-9.58902e-08
8.1252e-08
-7.97335e-08
-1.05762e-07
-7.88568e-08
-1.15086e-07
-7.7924e-08
-1.238e-07
-7.69478e-08
-1.31839e-07
-7.59416e-08
-1.39154e-07
-7.49146e-08
-1.45715e-07
-7.38775e-08
-1.51505e-07
-7.28365e-08
-1.56524e-07
-7.18001e-08
-1.60788e-07
-7.07716e-08
-1.64326e-07
-6.97578e-08
-1.6718e-07
-6.87596e-08
-1.69402e-07
-6.77828e-08
-1.71048e-07
-6.68262e-08
-1.72181e-07
-6.5895e-08
-1.72868e-07
-6.49868e-08
-1.73173e-07
-6.41068e-08
-1.7316e-07
-6.32511e-08
-1.72892e-07
-1.72425e-07
-6.24255e-08
-8.28405e-08
-9.6648e-08
8.35906e-08
-8.19949e-08
-1.06614e-07
-8.10723e-08
-1.16014e-07
-8.00897e-08
-1.24789e-07
-7.90602e-08
-1.32875e-07
-7.79979e-08
-1.40224e-07
-7.69124e-08
-1.46807e-07
-7.58151e-08
-1.5261e-07
-7.47123e-08
-1.57634e-07
-7.3613e-08
-1.61895e-07
-7.25207e-08
-1.65425e-07
-7.14428e-08
-1.68267e-07
-7.03803e-08
-1.70471e-07
-6.93392e-08
-1.72097e-07
-6.83188e-08
-1.73209e-07
-6.73246e-08
-1.73871e-07
-6.63542e-08
-1.7415e-07
-6.54132e-08
-1.7411e-07
-6.44976e-08
-1.73814e-07
-1.73318e-07
-6.36138e-08
-8.51615e-08
-9.74469e-08
8.59523e-08
-8.427e-08
-1.07512e-07
-8.32973e-08
-1.16993e-07
-8.22608e-08
-1.25833e-07
-8.11742e-08
-1.33968e-07
-8.00519e-08
-1.41354e-07
-7.89041e-08
-1.47962e-07
-7.77424e-08
-1.5378e-07
-7.65736e-08
-1.58809e-07
-7.54073e-08
-1.6307e-07
-7.42472e-08
-1.66593e-07
-7.3101e-08
-1.69421e-07
-7.19699e-08
-1.71609e-07
-7.08607e-08
-1.73215e-07
-6.97724e-08
-1.74304e-07
-6.8711e-08
-1.74941e-07
-6.76744e-08
-1.75193e-07
-6.66685e-08
-1.75125e-07
-6.56893e-08
-1.748e-07
-1.74273e-07
-6.47437e-08
-8.74923e-08
-9.82865e-08
8.83241e-08
-8.65538e-08
-1.08457e-07
-8.55289e-08
-1.18025e-07
-8.44357e-08
-1.26933e-07
-8.32886e-08
-1.35122e-07
-8.21025e-08
-1.42548e-07
-8.08883e-08
-1.49183e-07
-7.96581e-08
-1.55018e-07
-7.84192e-08
-1.60055e-07
-7.71814e-08
-1.64316e-07
-7.5949e-08
-1.67832e-07
-7.473e-08
-1.70649e-07
-7.3526e-08
-1.7282e-07
-7.23439e-08
-1.74406e-07
-7.11833e-08
-1.75472e-07
-7.00505e-08
-1.76083e-07
-6.89434e-08
-1.76307e-07
-6.78684e-08
-1.7621e-07
-6.68217e-08
-1.75853e-07
-1.75294e-07
-6.58104e-08
-8.98437e-08
-9.91728e-08
9.07218e-08
-8.88532e-08
-1.09454e-07
-8.77714e-08
-1.19113e-07
-8.66169e-08
-1.28095e-07
-8.54048e-08
-1.36341e-07
-8.41505e-08
-1.43809e-07
-8.28653e-08
-1.50476e-07
-8.1562e-08
-1.56329e-07
-8.02481e-08
-1.61377e-07
-7.89341e-08
-1.65638e-07
-7.76245e-08
-1.69149e-07
-7.63279e-08
-1.71955e-07
-7.50461e-08
-1.7411e-07
-7.37865e-08
-1.75675e-07
-7.25488e-08
-1.76717e-07
-7.13399e-08
-1.77301e-07
-7.01578e-08
-1.77497e-07
-6.90093e-08
-1.77368e-07
-6.78906e-08
-1.76978e-07
-1.76385e-07
-6.68095e-08
-9.22074e-08
-1.00105e-07
9.31321e-08
-9.11634e-08
-1.10505e-07
-9.00222e-08
-1.20261e-07
-8.8803e-08
-1.29321e-07
-8.7522e-08
-1.37629e-07
-8.61951e-08
-1.45144e-07
-8.48344e-08
-1.51844e-07
-8.3453e-08
-1.57719e-07
-8.20593e-08
-1.62778e-07
-8.06639e-08
-1.67042e-07
-7.92719e-08
-1.70549e-07
-7.78925e-08
-1.73343e-07
-7.65276e-08
-1.75482e-07
-7.51852e-08
-1.77027e-07
-7.38653e-08
-1.78044e-07
-7.25752e-08
-1.78601e-07
-7.1313e-08
-1.78766e-07
-7.00861e-08
-1.78605e-07
-6.88908e-08
-1.7818e-07
-1.7755e-07
-6.77354e-08
-9.45955e-08
-1.01091e-07
9.55728e-08
-9.34922e-08
-1.11616e-07
-9.22862e-08
-1.21474e-07
-9.09972e-08
-1.30617e-07
-8.96421e-08
-1.38991e-07
-8.82374e-08
-1.46557e-07
-8.67958e-08
-1.53293e-07
-8.5331e-08
-1.59192e-07
-8.38518e-08
-1.64265e-07
-8.23696e-08
-1.68534e-07
-8.08896e-08
-1.72036e-07
-7.94216e-08
-1.74821e-07
-7.79679e-08
-1.76943e-07
-7.65372e-08
-1.78467e-07
-7.51294e-08
-1.79459e-07
-7.37525e-08
-1.79988e-07
-7.24049e-08
-1.80121e-07
-7.10944e-08
-1.79926e-07
-6.98172e-08
-1.79464e-07
-1.78795e-07
-6.85824e-08
-9.69991e-08
-1.0213e-07
9.80297e-08
-9.58347e-08
-1.12787e-07
-9.45608e-08
-1.22755e-07
-9.3198e-08
-1.31988e-07
-9.17642e-08
-1.40432e-07
-9.02766e-08
-1.48052e-07
-8.87487e-08
-1.54828e-07
-8.71948e-08
-1.60755e-07
-8.56242e-08
-1.65843e-07
-8.40491e-08
-1.70118e-07
-8.24749e-08
-1.73618e-07
-8.09122e-08
-1.76393e-07
-7.93637e-08
-1.78499e-07
-7.78383e-08
-1.80002e-07
-7.63366e-08
-1.80968e-07
-7.4867e-08
-1.81467e-07
-7.34279e-08
-1.81567e-07
-7.20279e-08
-1.81336e-07
-7.06634e-08
-1.80836e-07
-1.80125e-07
-6.93438e-08
-9.94309e-08
-1.03229e-07
1.00521e-07
-9.81989e-08
-1.14026e-07
-9.6851e-08
-1.2411e-07
-9.54085e-08
-1.33438e-07
-9.38899e-08
-1.41958e-07
-9.23134e-08
-1.49637e-07
-9.06929e-08
-1.56456e-07
-8.90435e-08
-1.62413e-07
-8.73751e-08
-1.67519e-07
-8.57004e-08
-1.71802e-07
-8.40255e-08
-1.75301e-07
-8.23614e-08
-1.78066e-07
-8.07113e-08
-1.80157e-07
-7.90847e-08
-1.81639e-07
-7.74825e-08
-1.82578e-07
-7.59136e-08
-1.83046e-07
-7.43767e-08
-1.83112e-07
-7.28812e-08
-1.82842e-07
-7.14232e-08
-1.82301e-07
-1.81546e-07
-7.00131e-08
-1.01881e-07
-1.04388e-07
1.03033e-07
-1.00579e-07
-1.15335e-07
-9.91537e-08
-1.25543e-07
-9.76267e-08
-1.34972e-07
-9.60179e-08
-1.43574e-07
-9.43464e-08
-1.51316e-07
-9.26269e-08
-1.58183e-07
-9.08754e-08
-1.64173e-07
-8.91023e-08
-1.693e-07
-8.7321e-08
-1.73592e-07
-8.55381e-08
-1.77091e-07
-8.37655e-08
-1.79849e-07
-8.20064e-08
-1.81924e-07
-8.02715e-08
-1.83384e-07
-7.85615e-08
-1.84296e-07
-7.68864e-08
-1.84732e-07
-7.52449e-08
-1.84761e-07
-7.36471e-08
-1.84451e-07
-7.20891e-08
-1.83866e-07
-1.83064e-07
-7.05823e-08
-1.04363e-07
-1.05617e-07
1.05583e-07
-1.02984e-07
-1.16722e-07
-1.01474e-07
-1.27061e-07
-9.98557e-08
-1.36599e-07
-9.81497e-08
-1.45288e-07
-9.63761e-08
-1.53098e-07
-9.45504e-08
-1.60017e-07
-9.26893e-08
-1.66043e-07
-9.08038e-08
-1.71194e-07
-8.89083e-08
-1.75498e-07
-8.70097e-08
-1.78998e-07
-8.51207e-08
-1.81748e-07
-8.32449e-08
-1.83808e-07
-8.13938e-08
-1.85245e-07
-7.95685e-08
-1.86129e-07
-7.77796e-08
-1.86531e-07
-7.6026e-08
-1.86522e-07
-7.43187e-08
-1.86169e-07
-7.26539e-08
-1.85538e-07
-1.84686e-07
-7.10437e-08
-1.06869e-07
-1.06915e-07
1.08158e-07
-1.05409e-07
-1.18189e-07
-1.03809e-07
-1.28668e-07
-1.02094e-07
-1.38322e-07
-1.00284e-07
-1.47105e-07
-9.84013e-08
-1.5499e-07
-9.64618e-08
-1.61964e-07
-9.44833e-08
-1.68031e-07
-9.24774e-08
-1.73208e-07
-9.04593e-08
-1.77526e-07
-8.84365e-08
-1.81029e-07
-8.64226e-08
-1.83772e-07
-8.44218e-08
-1.85817e-07
-8.2446e-08
-1.87232e-07
-8.0497e-08
-1.88086e-07
-7.8586e-08
-1.88453e-07
-7.67124e-08
-1.88403e-07
-7.48879e-08
-1.88005e-07
-7.31086e-08
-1.87324e-07
-1.86418e-07
-7.13878e-08
-1.09409e-07
-1.08292e-07
1.10776e-07
-1.07861e-07
-1.19744e-07
-1.06164e-07
-1.30373e-07
-1.04344e-07
-1.40151e-07
-1.02422e-07
-1.49034e-07
-1.00422e-07
-1.56999e-07
-9.83606e-08
-1.64034e-07
-9.6256e-08
-1.70145e-07
-9.41207e-08
-1.75351e-07
-9.1971e-08
-1.79686e-07
-8.9815e-08
-1.83194e-07
-8.76671e-08
-1.85931e-07
-8.55319e-08
-1.87961e-07
-8.34225e-08
-1.89352e-07
-8.13406e-08
-1.90176e-07
-7.92988e-08
-1.90506e-07
-7.72965e-08
-1.90414e-07
-7.53462e-08
-1.89968e-07
-7.34444e-08
-1.89233e-07
-1.8827e-07
-7.1605e-08
-1.11977e-07
-1.09749e-07
1.13426e-07
-1.10337e-07
-1.21393e-07
-1.08537e-07
-1.32181e-07
-1.06605e-07
-1.42092e-07
-1.04564e-07
-1.51084e-07
-1.02438e-07
-1.59134e-07
-1.00245e-07
-1.66236e-07
-9.80053e-08
-1.72396e-07
-9.57311e-08
-1.77634e-07
-9.34401e-08
-1.81987e-07
-9.11409e-08
-1.85502e-07
-8.8849e-08
-1.88234e-07
-8.65694e-08
-1.90249e-07
-8.43163e-08
-1.91617e-07
-8.20918e-08
-1.92409e-07
-7.99095e-08
-1.927e-07
-7.77689e-08
-1.92563e-07
-7.56838e-08
-1.92065e-07
-7.36505e-08
-1.91274e-07
-1.90249e-07
-7.16842e-08
-1.14586e-07
-1.11296e-07
1.16123e-07
-1.12844e-07
-1.23143e-07
-1.10933e-07
-1.34102e-07
-1.0888e-07
-1.44154e-07
-1.0671e-07
-1.53262e-07
-1.04449e-07
-1.61405e-07
-1.02115e-07
-1.68579e-07
-9.97295e-08
-1.74792e-07
-9.73059e-08
-1.80067e-07
-9.48629e-08
-1.84442e-07
-9.24097e-08
-1.87964e-07
-8.99629e-08
-1.90692e-07
-8.75281e-08
-1.92693e-07
-8.51205e-08
-1.94036e-07
-8.27428e-08
-1.94796e-07
-8.04094e-08
-1.95046e-07
-7.81204e-08
-1.9486e-07
-7.58904e-08
-1.94308e-07
-7.3716e-08
-1.93456e-07
-1.92364e-07
-7.16136e-08
-1.17229e-07
-1.12936e-07
1.1886e-07
-1.15381e-07
-1.25e-07
-1.1335e-07
-1.36141e-07
-1.11168e-07
-1.46346e-07
-1.0886e-07
-1.55578e-07
-1.06454e-07
-1.63821e-07
-1.03968e-07
-1.71073e-07
-1.01426e-07
-1.77345e-07
-9.88419e-08
-1.82661e-07
-9.62353e-08
-1.8706e-07
-9.36162e-08
-1.90592e-07
-9.10028e-08
-1.93318e-07
-8.84008e-08
-1.95304e-07
-8.5827e-08
-1.96622e-07
-8.32843e-08
-1.97347e-07
-8.07884e-08
-1.97554e-07
-7.83397e-08
-1.97317e-07
-7.5954e-08
-1.96707e-07
-7.36282e-08
-1.95789e-07
-1.94626e-07
-7.13796e-08
-1.19918e-07
-1.1468e-07
1.21651e-07
-1.17953e-07
-1.26975e-07
-1.15794e-07
-1.3831e-07
-1.13472e-07
-1.48678e-07
-1.11016e-07
-1.58044e-07
-1.08453e-07
-1.66395e-07
-1.05804e-07
-1.73732e-07
-1.03093e-07
-1.80067e-07
-1.00335e-07
-1.85428e-07
-9.75527e-08
-1.89855e-07
-9.4755e-08
-1.93399e-07
-9.19619e-08
-1.96123e-07
-8.91799e-08
-1.98095e-07
-8.64271e-08
-1.99388e-07
-8.37066e-08
-2.00077e-07
-8.10359e-08
-2.00238e-07
-7.84152e-08
-1.99947e-07
-7.58622e-08
-1.99274e-07
-7.33733e-08
-1.98286e-07
-1.97046e-07
-7.09678e-08
-1.22648e-07
-1.1653e-07
1.24489e-07
-1.2056e-07
-1.29073e-07
-1.18262e-07
-1.40617e-07
-1.15791e-07
-1.51159e-07
-1.13175e-07
-1.60669e-07
-1.10444e-07
-1.69138e-07
-1.07619e-07
-1.76567e-07
-1.04727e-07
-1.82971e-07
-1.01783e-07
-1.88382e-07
-9.88098e-08
-1.9284e-07
-9.58195e-08
-1.964e-07
-9.28327e-08
-1.99123e-07
-8.98566e-08
-2.01081e-07
-8.69106e-08
-2.02347e-07
-8.39985e-08
-2.02998e-07
-8.11392e-08
-2.03111e-07
-7.83333e-08
-2.02762e-07
-7.55999e-08
-2.02021e-07
-7.29358e-08
-2.00958e-07
-1.99634e-07
-7.03615e-08
-1.25431e-07
-1.185e-07
1.27388e-07
-1.23207e-07
-1.31306e-07
-1.20761e-07
-1.43073e-07
-1.18128e-07
-1.53802e-07
-1.1534e-07
-1.63468e-07
-1.12427e-07
-1.72062e-07
-1.09412e-07
-1.79591e-07
-1.06324e-07
-1.86073e-07
-1.03179e-07
-1.91538e-07
-1.00001e-07
-1.96031e-07
-9.68027e-08
-1.99608e-07
-9.36069e-08
-2.02333e-07
-9.04211e-08
-2.04277e-07
-8.72667e-08
-2.05516e-07
-8.41479e-08
-2.06127e-07
-8.10851e-08
-2.06189e-07
-7.80795e-08
-2.05777e-07
-7.51516e-08
-2.04964e-07
-7.22986e-08
-2.0382e-07
-2.02406e-07
-6.95425e-08
-1.28261e-07
-1.20594e-07
1.30344e-07
-1.25895e-07
-1.33684e-07
-1.23289e-07
-1.45689e-07
-1.20483e-07
-1.5662e-07
-1.17509e-07
-1.66452e-07
-1.144e-07
-1.75184e-07
-1.11181e-07
-1.82821e-07
-1.07881e-07
-1.89386e-07
-1.04519e-07
-1.94912e-07
-1.01119e-07
-1.99444e-07
-9.76967e-08
-2.03042e-07
-9.42749e-08
-2.05769e-07
-9.08627e-08
-2.077e-07
-8.74829e-08
-2.0891e-07
-8.41407e-08
-2.09479e-07
-8.0858e-08
-2.09486e-07
-7.76367e-08
-2.09008e-07
-7.4499e-08
-2.08118e-07
-7.14422e-08
-2.06885e-07
-2.05373e-07
-6.84904e-08
-1.31151e-07
-1.22825e-07
1.3337e-07
-1.28629e-07
-1.36217e-07
-1.2585e-07
-1.48478e-07
-1.22857e-07
-1.59625e-07
-1.19683e-07
-1.69638e-07
-1.16363e-07
-1.78517e-07
-1.12923e-07
-1.86272e-07
-1.09394e-07
-1.92928e-07
-1.05797e-07
-1.98521e-07
-1.02158e-07
-2.03098e-07
-9.84926e-08