/*--------------------------------*- C++ -*----------------------------------*\
  =========                 |
  \\      /  F ield         | OpenFOAM: The Open Source CFD Toolbox
   \\    /   O peration     | Website:  https://openfoam.org
    \\  /    A nd           | Version:  6
     \\/     M anipulation  |
\*---------------------------------------------------------------------------*/
FoamFile
{
    version     2.0;
    format      ascii;
    class       surfaceScalarField;
    location    "13";
    object      phi;
}
// * * * * * * * * * * * * * * * * * * * * * * * * * * * * * * * * * * * * * //

dimensions      [0 3 -1 0 0 0 0];

internalField   nonuniform List<scalar> 
19400
(
-2.92324e-09
-8.27015e-07
-5.78415e-09
-1.10211e-06
-7.18014e-09
-1.22358e-06
-7.33379e-09
-1.29195e-06
-6.70956e-09
-1.32788e-06
-5.82035e-09
-1.34568e-06
-4.93564e-09
-1.35399e-06
-4.15096e-09
-1.35746e-06
-3.43779e-09
-1.35851e-06
-2.78482e-09
-1.3583e-06
-2.14844e-09
-1.35729e-06
-1.47327e-09
-1.35545e-06
-7.06934e-10
-1.35225e-06
2.72916e-10
-1.34646e-06
1.43501e-09
-1.33577e-06
2.66383e-09
-1.31579e-06
3.44344e-09
-1.27855e-06
3.21984e-09
-1.21073e-06
1.59518e-09
-1.09174e-06
-8.21761e-07
-1.81588e-10
-8.26962e-07
-1.88563e-09
-1.10053e-06
-2.97252e-09
-1.22262e-06
-3.54969e-09
-1.29148e-06
-3.71834e-09
-1.32782e-06
-3.60013e-09
-1.34589e-06
-3.30675e-09
-1.35436e-06
-2.94486e-09
-1.35791e-06
-2.52995e-09
-1.35898e-06
-2.15042e-09
-1.35878e-06
-1.73786e-09
-1.35777e-06
-1.37585e-09
-1.35593e-06
-9.86751e-10
-1.35272e-06
-6.32548e-10
-1.34692e-06
-3.0742e-10
-1.33619e-06
-7.2897e-12
-1.31617e-06
1.36329e-10
-1.27884e-06
9.28277e-12
-1.21078e-06
-5.46308e-10
-1.09137e-06
-8.2233e-07
-7.39492e-10
-8.26273e-07
-1.27333e-09
-1.10007e-06
-1.71635e-09
-1.22223e-06
-2.00654e-09
-1.29124e-06
-2.15296e-09
-1.32772e-06
-2.19146e-09
-1.34589e-06
-2.15429e-09
-1.35444e-06
-2.03685e-09
-1.35807e-06
-1.86541e-09
-1.35919e-06
-1.66152e-09
-1.35902e-06
-1.44341e-09
-1.35802e-06
-1.22003e-09
-1.35618e-06
-1.02437e-09
-1.35296e-06
-8.28583e-10
-1.34714e-06
-6.42577e-10
-1.33641e-06
-4.09499e-10
-1.31642e-06
-1.78443e-10
-1.27911e-06
2.10458e-11
-1.21107e-06
3.94106e-10
-1.09183e-06
-8.21939e-07
-4.86531e-10
-8.25815e-07
-5.47819e-10
-1.10003e-06
-6.68974e-10
-1.22212e-06
-7.96992e-10
-1.29111e-06
-9.51391e-10
-1.32757e-06
-1.0805e-09
-1.34576e-06
-1.18007e-09
-1.35435e-06
-1.22515e-09
-1.35802e-06
-1.22365e-09
-1.3592e-06
-1.17268e-09
-1.35907e-06
-1.09331e-09
-1.35811e-06
-9.88485e-10
-1.35629e-06
-9.07015e-10
-1.35306e-06
-8.08343e-10
-1.34723e-06
-7.49457e-10
-1.33649e-06
-6.37203e-10
-1.31652e-06
-4.67453e-10
-1.27928e-06
-3.0382e-10
-1.21123e-06
-1.00323e-10
-1.09204e-06
-8.22034e-07
-6.41108e-10
-8.25178e-07
-4.83947e-10
-1.10019e-06
-5.01061e-10
-1.22208e-06
-5.71606e-10
-1.29101e-06
-6.78005e-10
-1.32744e-06
-7.76105e-10
-1.34564e-06
-8.44725e-10
-1.35426e-06
-8.79202e-10
-1.35797e-06
-8.75163e-10
-1.35919e-06
-8.22976e-10
-1.35911e-06
-7.56872e-10
-1.35818e-06
-6.47217e-10
-1.35638e-06
-5.65596e-10
-1.35316e-06
-4.6072e-10
-1.34731e-06
-4.15204e-10
-1.33653e-06
-3.79861e-10
-1.31655e-06
-2.8912e-10
-1.27936e-06
-1.896e-10
-1.21131e-06
-5.25249e-11
-1.09215e-06
-8.22082e-07
-1.93308e-10
-8.25022e-07
-3.83934e-10
-1.10004e-06
-5.60768e-10
-1.22191e-06
-7.27111e-10
-1.29086e-06
-8.38389e-10
-1.32733e-06
-8.84797e-10
-1.3456e-06
-8.70179e-10
-1.35427e-06
-8.15703e-10
-1.35803e-06
-7.39787e-10
-1.35928e-06
-6.24743e-10
-1.35922e-06
-5.05144e-10
-1.35832e-06
-3.46402e-10
-1.35653e-06
-2.01883e-10
-1.35332e-06
-4.509e-11
-1.34745e-06
3.33125e-11
-1.33662e-06
1.87994e-11
-1.31653e-06
-7.09597e-11
-1.27927e-06
-1.44689e-10
-1.21122e-06
-1.87592e-10
-1.0921e-06
-8.22273e-07
1.90281e-10
-8.25298e-07
-3.52747e-10
-1.09959e-06
-6.00741e-10
-1.22173e-06
-7.43916e-10
-1.29078e-06
-8.24434e-10
-1.3273e-06
-8.33924e-10
-1.34563e-06
-7.90064e-10
-1.35436e-06
-6.99604e-10
-1.35815e-06
-5.96512e-10
-1.35942e-06
-4.59875e-10
-1.35938e-06
-3.25716e-10
-1.35848e-06
-1.56584e-10
-1.3567e-06
-5.65171e-12
-1.35349e-06
1.38995e-10
-1.3476e-06
2.06811e-10
-1.3367e-06
1.76181e-10
-1.31651e-06
1.70205e-11
-1.27913e-06
-1.75418e-10
-1.21104e-06
-4.20186e-10
-1.09187e-06
-8.22704e-07
1.23414e-10
-8.25463e-07
-2.85642e-10
-1.09924e-06
-4.60475e-10
-1.2216e-06
-5.37121e-10
-1.29074e-06
-5.80239e-10
-1.32729e-06
-5.7863e-10
-1.34565e-06
-5.5607e-10
-1.35442e-06
-4.89314e-10
-1.35823e-06
-4.15316e-10
-1.35952e-06
-3.0787e-10
-1.35949e-06
-2.04389e-10
-1.35861e-06
-7.82176e-11
-1.35684e-06
4.11789e-11
-1.35362e-06
1.47478e-10
-1.34772e-06
2.00298e-10
-1.33677e-06
1.42488e-10
-1.31648e-06
-2.98397e-11
-1.27898e-06
-2.43436e-10
-1.21088e-06
-4.92477e-10
-1.09168e-06
-8.23209e-07
-5.61871e-11
-8.25378e-07
-2.14637e-10
-1.09909e-06
-3.48235e-10
-1.22145e-06
-4.23481e-10
-1.29068e-06
-4.54258e-10
-1.32726e-06
-4.76735e-10
-1.34564e-06
-4.63087e-10
-1.35443e-06
-4.22507e-10
-1.35828e-06
-3.61572e-10
-1.35959e-06
-2.932e-10
-1.35957e-06
-2.20354e-10
-1.3587e-06
-1.44432e-10
-1.35693e-06
-6.97501e-11
-1.35372e-06
-5.4188e-12
-1.34781e-06
3.16861e-11
-1.33683e-06
-2.66797e-11
-1.31645e-06
-1.76052e-10
-1.27887e-06
-3.57393e-10
-1.21075e-06
-5.64647e-10
-1.09152e-06
-8.23778e-07
-1.95881e-10
-8.25141e-07
-3.32227e-10
-1.09895e-06
-4.96943e-10
-1.22125e-06
-6.03547e-10
-1.29057e-06
-6.19826e-10
-1.32722e-06
-6.26967e-10
-1.34563e-06
-5.77278e-10
-1.35446e-06
-5.14654e-10
-1.35834e-06
-4.26062e-10
-1.35967e-06
-3.55795e-10
-1.35965e-06
-2.79558e-10
-1.35877e-06
-2.31238e-10
-1.357e-06
-1.83411e-10
-1.35378e-06
-1.386e-10
-1.34787e-06
-1.05648e-10
-1.33689e-06
-9.57347e-11
-1.31647e-06
-1.64712e-10
-1.27883e-06
-2.43754e-10
-1.21069e-06
-2.66923e-10
-1.09151e-06
-8.2404e-07
-1.2563e-10
-8.25004e-07
-3.10993e-10
-1.09877e-06
-4.60089e-10
-1.22109e-06
-6.34639e-10
-1.29041e-06
-7.09979e-10
-1.32714e-06
-7.0424e-10
-1.34564e-06
-6.40556e-10
-1.35453e-06
-5.41575e-10
-1.35844e-06
-4.29918e-10
-1.35978e-06
-3.13733e-10
-1.35976e-06
-2.11009e-10
-1.35888e-06
-1.10913e-10
-1.35709e-06
-2.80016e-11
-1.35387e-06
6.37181e-11
-1.34796e-06
1.50145e-10
-1.33698e-06
2.0859e-10
-1.31653e-06
1.94568e-10
-1.2788e-06
1.38786e-10
-1.21061e-06
1.97234e-10
-1.09155e-06
-8.2384e-07
-1.89657e-10
-8.24828e-07
-2.33679e-10
-1.09874e-06
-3.80344e-10
-1.22095e-06
-5.8478e-10
-1.29022e-06
-6.7987e-10
-1.32706e-06
-6.66143e-10
-1.34567e-06
-5.88429e-10
-1.35462e-06
-4.67865e-10
-1.35856e-06
-3.43735e-10
-1.35992e-06
-2.05025e-10
-1.3599e-06
-7.15803e-11
-1.35902e-06
7.03712e-11
-1.35724e-06
2.11493e-10
-1.35402e-06
3.62919e-10
-1.34812e-06
4.95514e-10
-1.33712e-06
5.90438e-10
-1.31663e-06
5.92458e-10
-1.2788e-06
4.89329e-10
-1.21049e-06
3.3772e-10
-1.09139e-06
-8.23505e-07
-4.33819e-11
-8.24829e-07
-1.1375e-10
-1.09869e-06
-2.64666e-10
-1.22084e-06
-4.06875e-10
-1.2901e-06
-4.73761e-10
-1.32702e-06
-4.61969e-10
-1.3457e-06
-3.99597e-10
-1.35471e-06
-3.10728e-10
-1.35867e-06
-2.12197e-10
-1.36003e-06
-1.02243e-10
-1.36003e-06
1.66502e-11
-1.35915e-06
1.4843e-10
-1.35738e-06
2.921e-10
-1.35417e-06
4.52065e-10
-1.34829e-06
6.19244e-10
-1.3373e-06
7.6425e-10
-1.31679e-06
8.29962e-10
-1.27888e-06
7.67881e-10
-1.21044e-06
5.00326e-10
-1.09114e-06
-8.2301e-07
3.5388e-11
-8.24925e-07
6.56037e-11
-1.09874e-06
-3.51057e-11
-1.22079e-06
-1.45407e-10
-1.29001e-06
-2.24445e-10
-1.32698e-06
-2.37403e-10
-1.34571e-06
-2.17872e-10
-1.35475e-06
-1.68453e-10
-1.35874e-06
-1.04999e-10
-1.36012e-06
-2.42434e-11
-1.36012e-06
7.12251e-11
-1.35926e-06
1.69136e-10
-1.35749e-06
2.9008e-10
-1.35429e-06
4.18975e-10
-1.34844e-06
6.03167e-10
-1.3375e-06
7.94963e-10
-1.317e-06
9.25573e-10
-1.27903e-06
9.38241e-10
-1.21048e-06
7.54719e-10
-1.09098e-06
-8.22262e-07
7.34315e-11
-8.25059e-07
1.98122e-10
-1.0989e-06
2.63286e-11
-1.22066e-06
-1.35042e-10
-1.28987e-06
-2.05868e-10
-1.32694e-06
-1.99161e-10
-1.34574e-06
-1.66626e-10
-1.3548e-06
-1.17217e-10
-1.35881e-06
-5.32677e-11
-1.3602e-06
1.75386e-11
-1.36021e-06
1.00396e-10
-1.35935e-06
1.76721e-10
-1.35759e-06
2.65279e-10
-1.35439e-06
3.41504e-10
-1.34854e-06
4.73133e-10
-1.33763e-06
6.41163e-10
-1.31719e-06
8.217e-10
-1.27922e-06
9.16736e-10
-1.21059e-06
7.18614e-10
-1.09081e-06
-8.21552e-07
2.26555e-10
-8.25348e-07
2.62503e-10
-1.09895e-06
1.54826e-10
-1.2206e-06
4.24565e-11
-1.28977e-06
-3.62014e-11
-1.32689e-06
-4.41294e-11
-1.34574e-06
-3.89057e-11
-1.35483e-06
-1.51618e-11
-1.35885e-06
2.84774e-11
-1.36025e-06
8.13031e-11
-1.36028e-06
1.52968e-10
-1.35943e-06
2.13633e-10
-1.35767e-06
2.94949e-10
-1.35447e-06
3.53846e-10
-1.34862e-06
4.33736e-10
-1.33773e-06
5.56102e-10
-1.31733e-06
7.59355e-10
-1.27944e-06
8.89235e-10
-1.21076e-06
7.31262e-10
-1.0907e-06
-8.20833e-07
-1.69557e-10
-8.25208e-07
5.71025e-11
-1.09919e-06
8.24977e-11
-1.22065e-06
2.93432e-11
-1.28972e-06
1.15263e-11
-1.32689e-06
3.09496e-11
-1.34577e-06
4.17375e-11
-1.35485e-06
4.8229e-11
-1.35886e-06
6.94748e-11
-1.36028e-06
1.0398e-10
-1.36033e-06
1.56099e-10
-1.35949e-06
2.25427e-10
-1.35775e-06
3.24099e-10
-1.35458e-06
4.26463e-10
-1.34874e-06
5.32388e-10
-1.33785e-06
6.23346e-10
-1.31745e-06
7.32464e-10
-1.27958e-06
7.42497e-10
-1.21082e-06
6.62485e-10
-1.09068e-06
-8.20178e-07
-1.28743e-10
-8.25094e-07
4.44295e-11
-1.09938e-06
9.23221e-11
-1.22071e-06
4.63787e-11
-1.28969e-06
2.2313e-11
-1.32686e-06
1.48718e-11
-1.34577e-06
1.44627e-11
-1.35485e-06
1.16548e-12
-1.35886e-06
1.09186e-11
-1.36029e-06
1.21816e-11
-1.36034e-06
4.08046e-11
-1.35952e-06
6.67644e-11
-1.35779e-06
1.2224e-10
-1.35464e-06
1.84725e-10
-1.34882e-06
2.34157e-10
-1.33791e-06
2.76178e-10
-1.3175e-06
3.14727e-10
-1.27965e-06
3.26347e-10
-1.21086e-06
2.39994e-10
-1.09062e-06
-8.19936e-07
1.01255e-11
-8.251e-07
4.66614e-12
-1.09939e-06
-9.94427e-13
-1.2207e-06
-3.12792e-11
-1.28966e-06
-5.82515e-11
-1.32683e-06
-8.78065e-11
-1.34573e-06
-1.05523e-10
-1.35482e-06
-1.1127e-10
-1.35885e-06
-9.75532e-11
-1.36029e-06
-8.63861e-11
-1.36035e-06
-6.60904e-11
-1.35953e-06
-5.98592e-11
-1.3578e-06
-4.89978e-11
-1.35464e-06
-3.75853e-11
-1.34882e-06
-1.15882e-11
-1.33793e-06
3.99658e-11
-1.31754e-06
9.50312e-11
-1.2797e-06
1.60682e-10
-1.21091e-06
3.09144e-10
-1.09075e-06
-8.19621e-07
9.32286e-11
-8.25168e-07
-6.59209e-11
-1.09923e-06
-2.00315e-10
-1.22055e-06
-2.4118e-10
-1.28962e-06
-2.76202e-10
-1.32679e-06
-3.10992e-10
-1.34569e-06
-3.16029e-10
-1.35481e-06
-2.80453e-10
-1.35887e-06
-2.26012e-10
-1.36034e-06
-1.51214e-10
-1.36041e-06
-7.78678e-11
-1.35959e-06
-3.60196e-12
-1.35786e-06
5.79658e-11
-1.3547e-06
1.22866e-10
-1.34888e-06
1.83251e-10
-1.33799e-06
2.25109e-10
-1.31759e-06
2.08666e-10
-1.27966e-06
1.32563e-10
-1.21081e-06
2.61234e-10
-1.09086e-06
-8.19359e-07
2.26528e-10
-8.25353e-07
-4.62419e-11
-1.09896e-06
-2.48367e-10
-1.22032e-06
-3.67627e-10
-1.28951e-06
-4.6745e-10
-1.32667e-06
-5.42831e-10
-1.34562e-06
-5.28889e-10
-1.35482e-06
-4.65063e-10
-1.35894e-06
-3.68847e-10
-1.36044e-06
-2.47748e-10
-1.36053e-06
-1.30065e-10
-1.35973e-06
1.27334e-11
-1.358e-06
1.33518e-10
-1.35484e-06
2.68781e-10
-1.34901e-06
3.68885e-10
-1.3381e-06
3.9882e-10
-1.31763e-06
2.84837e-10
-1.27955e-06
5.34663e-11
-1.21059e-06
-1.54965e-10
-1.09065e-06
-8.19515e-07
3.9599e-10
-8.25716e-07
9.69351e-11
-1.09867e-06
-8.00142e-11
-1.22012e-06
-2.76872e-10
-1.28933e-06
-4.38204e-10
-1.3265e-06
-5.58355e-10
-1.34552e-06
-5.74428e-10
-1.3548e-06
-5.39491e-10
-1.35898e-06
-4.60688e-10
-1.36052e-06
-3.6238e-10
-1.36064e-06
-2.52687e-10
-1.35984e-06
-1.34455e-10
-1.35812e-06
-2.29756e-11
-1.35496e-06
8.13594e-11
-1.34912e-06
1.59187e-10
-1.33819e-06
1.83002e-10
-1.31765e-06
6.73058e-11
-1.27945e-06
-1.37747e-10
-1.21038e-06
-4.78676e-10
-1.09031e-06
-8.19991e-07
3.4299e-10
-8.26055e-07
3.35744e-10
-1.09868e-06
2.45264e-10
-1.22002e-06
2.22562e-11
-1.28913e-06
-1.78828e-10
-1.32631e-06
-3.50084e-10
-1.34536e-06
-4.42827e-10
-1.35472e-06
-4.74787e-10
-1.35896e-06
-4.6288e-10
-1.36055e-06
-4.15513e-10
-1.36069e-06
-3.54015e-10
-1.35991e-06
-2.7843e-10
-1.3582e-06
-2.09818e-10
-1.35502e-06
-1.59941e-10
-1.34917e-06
-1.17643e-10
-1.33822e-06
-1.20853e-10
-1.31764e-06
-2.08362e-10
-1.27935e-06
-3.64216e-10
-1.21021e-06
-4.89353e-10
-1.09017e-06
-8.2048e-07
1.72381e-10
-8.26246e-07
4.55016e-10
-1.09897e-06
4.26345e-10
-1.22e-06
2.3283e-10
-1.28895e-06
4.76953e-11
-1.32613e-06
-1.22541e-10
-1.34521e-06
-2.54226e-10
-1.35459e-06
-3.42293e-10
-1.35888e-06
-3.98434e-10
-1.3605e-06
-4.14081e-10
-1.36067e-06
-4.13961e-10
-1.35992e-06
-3.90548e-10
-1.35822e-06
-3.6386e-10
-1.35505e-06
-3.41e-10
-1.34919e-06
-3.0858e-10
-1.33825e-06
-2.86658e-10
-1.31766e-06
-3.4664e-10
-1.27928e-06
-5.40078e-10
-1.21002e-06
-5.6753e-10
-1.09015e-06
-8.21052e-07
2.76794e-10
-8.26567e-07
5.99932e-10
-1.09931e-06
5.74534e-10
-1.22001e-06
4.45332e-10
-1.28883e-06
2.85688e-10
-1.32598e-06
1.1027e-10
-1.34504e-06
-5.91411e-11
-1.35443e-06
-2.07963e-10
-1.35874e-06
-3.19302e-10
-1.36039e-06
-4.09368e-10
-1.3606e-06
-4.68979e-10
-1.35986e-06
-5.16949e-10
-1.35818e-06
-5.54545e-10
-1.35502e-06
-5.91463e-10
-1.34917e-06
-6.06445e-10
-1.33824e-06
-5.73353e-10
-1.3177e-06
-5.71734e-10
-1.2793e-06
-6.62959e-10
-1.20995e-06
-6.5142e-10
-1.09018e-06
-8.2171e-07
3.50447e-10
-8.26964e-07
6.82477e-10
-1.09965e-06
6.29915e-10
-1.21998e-06
5.06036e-10
-1.2887e-06
3.47874e-10
-1.32583e-06
1.74501e-10
-1.34487e-06
1.31919e-12
-1.35426e-06
-1.62626e-10
-1.35858e-06
-2.92958e-10
-1.36026e-06
-4.11388e-10
-1.36049e-06
-4.96974e-10
-1.35978e-06
-5.82335e-10
-1.35811e-06
-6.552e-10
-1.35496e-06
-7.18066e-10
-1.34911e-06
-7.68077e-10
-1.3382e-06
-7.50112e-10
-1.31772e-06
-6.95118e-10
-1.27937e-06
-6.37549e-10
-1.21004e-06
-4.30576e-10
-1.09042e-06
-8.22143e-07
3.21706e-10
-8.27314e-07
5.18677e-10
-1.09984e-06
4.76085e-10
-1.21995e-06
3.64185e-10
-1.28858e-06
2.07428e-10
-1.32568e-06
6.97578e-11
-1.34473e-06
-5.82862e-11
-1.35413e-06
-1.78726e-10
-1.35846e-06
-2.78676e-10
-1.36015e-06
-3.68877e-10
-1.3604e-06
-4.4083e-10
-1.3597e-06
-5.08546e-10
-1.35804e-06
-5.73928e-10
-1.3549e-06
-6.26253e-10
-1.34906e-06
-6.82481e-10
-1.33815e-06
-6.79132e-10
-1.31773e-06
-5.76871e-10
-1.27948e-06
-4.43947e-10
-1.21018e-06
-2.40395e-10
-1.09063e-06
-8.22382e-07
2.99796e-10
-8.27621e-07
3.44469e-10
-1.09989e-06
2.27817e-10
-1.21984e-06
1.17185e-10
-1.28846e-06
3.60974e-13
-1.32556e-06
-8.70723e-11
-1.34463e-06
-1.49593e-10
-1.35406e-06
-1.94268e-10
-1.35842e-06
-2.28754e-10
-1.36011e-06
-2.54983e-10
-1.36037e-06
-2.71571e-10
-1.35968e-06
-2.84679e-10
-1.35803e-06
-3.00811e-10
-1.35489e-06
-3.09534e-10
-1.34904e-06
-3.46397e-10
-1.33813e-06
-3.60428e-10
-1.31771e-06
-2.69419e-10
-1.27958e-06
-1.33533e-10
-1.21031e-06
-4.57403e-11
-1.09071e-06
-8.22427e-07
5.40853e-10
-8.28168e-07
2.71892e-10
-1.09963e-06
1.04502e-10
-1.21968e-06
3.82271e-11
-1.28841e-06
-3.65923e-11
-1.3255e-06
-1.16767e-10
-1.34456e-06
-1.61172e-10
-1.35403e-06
-1.57905e-10
-1.35842e-06
-1.43742e-10
-1.36014e-06
-1.0684e-10
-1.36041e-06
-7.4158e-11
-1.35973e-06
-1.5619e-11
-1.35808e-06
2.7914e-11
-1.35494e-06
8.26616e-11
-1.34909e-06
9.44001e-11
-1.33814e-06
6.50344e-11
-1.31768e-06
6.54665e-11
-1.27957e-06
9.99422e-11
-1.21034e-06
4.02299e-11
-1.09065e-06
-8.22386e-07
5.27619e-10
-8.28685e-07
1.87281e-10
-1.0993e-06
7.22214e-11
-1.21956e-06
2.65806e-11
-1.28837e-06
-4.49737e-11
-1.32543e-06
-1.09443e-10
-1.3445e-06
-1.31024e-10
-1.35401e-06
-1.09716e-10
-1.35845e-06
-7.01962e-11
-1.36018e-06
-1.3924e-11
-1.36047e-06
4.50981e-11
-1.35979e-06
1.12013e-10
-1.35815e-06
1.74196e-10
-1.355e-06
2.22503e-10
-1.34913e-06
2.30547e-10
-1.33815e-06
1.82429e-10
-1.31763e-06
1.09541e-10
-1.2795e-06
1.14957e-10
-1.21034e-06
-7.16896e-11
-1.09046e-06
-8.22458e-07
4.47328e-10
-8.29115e-07
1.67847e-10
-1.09903e-06
1.25459e-10
-1.21951e-06
6.72747e-11
-1.28832e-06
-2.97692e-11
-1.32533e-06
-9.24272e-11
-1.34444e-06
-1.12395e-10
-1.35399e-06
-9.77115e-11
-1.35846e-06
-6.50242e-11
-1.36022e-06
-1.93021e-11
-1.36051e-06
2.17639e-11
-1.35984e-06
6.79601e-11
-1.35819e-06
1.06247e-10
-1.35504e-06
1.32384e-10
-1.34916e-06
1.55668e-10
-1.33816e-06
1.25753e-10
-1.3176e-06
4.54841e-11
-1.27941e-06
6.21302e-11
-1.21036e-06
4.69107e-11
-1.09044e-06
-8.22409e-07
2.17362e-10
-8.29321e-07
1.06515e-10
-1.09892e-06
6.69872e-11
-1.21946e-06
-2.74556e-11
-1.28823e-06
-1.44678e-10
-1.3252e-06
-2.16627e-10
-1.34437e-06
-2.3176e-10
-1.35397e-06
-2.20125e-10
-1.35847e-06
-1.9066e-10
-1.36025e-06
-1.64311e-10
-1.36054e-06
-1.47212e-10
-1.35985e-06
-1.49252e-10
-1.35819e-06
-1.57466e-10
-1.35503e-06
-1.75452e-10
-1.34914e-06
-1.80253e-10
-1.33815e-06
-1.85155e-10
-1.31759e-06
-1.84963e-10
-1.27941e-06
-8.43515e-11
-1.21045e-06
6.32741e-11
-1.09058e-06
-8.22341e-07
2.32977e-10
-8.29546e-07
1.10652e-10
-1.09882e-06
-7.05795e-11
-1.21927e-06
-2.71124e-10
-1.28804e-06
-3.98096e-10
-1.32507e-06
-4.36878e-10
-1.34433e-06
-4.0807e-10
-1.354e-06
-3.67819e-10
-1.35851e-06
-3.2268e-10
-1.36029e-06
-3.02968e-10
-1.36056e-06
-2.9968e-10
-1.35985e-06
-3.33038e-10
-1.35816e-06
-3.78666e-10
-1.35498e-06
-4.37464e-10
-1.34908e-06
-4.76117e-10
-1.3381e-06
-4.60799e-10
-1.31759e-06
-3.49375e-10
-1.2795e-06
-1.11697e-10
-1.21067e-06
2.13616e-10
-1.09088e-06
-8.22126e-07
4.14392e-10
-8.29956e-07
1.80322e-10
-1.09858e-06
4.92541e-11
-1.21914e-06
-8.94155e-11
-1.2879e-06
-1.99416e-10
-1.32496e-06
-2.40303e-10
-1.34429e-06
-2.50765e-10
-1.35398e-06
-2.40813e-10
-1.35851e-06
-2.31366e-10
-1.36029e-06
-2.23304e-10
-1.36056e-06
-2.22853e-10
-1.35984e-06
-2.37547e-10
-1.35814e-06
-2.60172e-10
-1.35495e-06
-2.86427e-10
-1.34906e-06
-2.9849e-10
-1.33809e-06
-2.76053e-10
-1.31761e-06
-1.75142e-10
-1.27959e-06
3.86775e-11
-1.21087e-06
4.07218e-10
-1.09125e-06
-8.21724e-07
-1.90505e-11
-8.29893e-07
8.67401e-11
-1.09865e-06
9.78292e-11
-1.21911e-06
7.71788e-11
-1.28785e-06
4.54928e-11
-1.3249e-06
-4.54426e-12
-1.34422e-06
-4.46369e-11
-1.35393e-06
-8.6426e-11
-1.35846e-06
-1.05348e-10
-1.36026e-06
-1.12784e-10
-1.36055e-06
-1.00918e-10
-1.35985e-06
-7.66475e-11
-1.35817e-06
-5.41808e-11
-1.35498e-06
-3.82283e-11
-1.34908e-06
-3.11026e-11
-1.33811e-06
-1.57013e-11
-1.31764e-06
1.24784e-11
-1.27964e-06
9.84461e-11
-1.21099e-06
2.19539e-10
-1.0914e-06
-8.21511e-07
-2.88408e-10
-8.29569e-07
-1.16877e-10
-1.09881e-06
-1.58764e-10
-1.21904e-06
-2.11564e-10
-1.28779e-06
-2.0415e-10
-1.32488e-06
-2.28358e-10
-1.3442e-06
-2.27009e-10
-1.3539e-06
-2.4299e-10
-1.35845e-06
-2.21798e-10
-1.36026e-06
-2.07801e-10
-1.36057e-06
-1.60395e-10
-1.35988e-06
-1.17776e-10
-1.35821e-06
-5.90254e-11
-1.35503e-06
-1.43736e-11
-1.34912e-06
1.42535e-11
-1.33815e-06
4.77824e-11
-1.31768e-06
8.08205e-11
-1.2797e-06
1.28425e-10
-1.21106e-06
1.05065e-10
-1.0914e-06
-8.21409e-07
-2.65286e-10
-8.29316e-07
-3.82718e-10
-1.09871e-06
-4.76095e-10
-1.21895e-06
-5.49004e-10
-1.28773e-06
-5.49111e-10
-1.32488e-06
-5.36211e-10
-1.34422e-06
-4.99032e-10
-1.35394e-06
-4.61192e-10
-1.3585e-06
-4.01935e-10
-1.36032e-06
-3.43802e-10
-1.36063e-06
-2.75962e-10
-1.35995e-06
-2.1204e-10
-1.35828e-06
-1.38913e-10
-1.35509e-06
-6.72469e-11
-1.34919e-06
3.20036e-12
-1.3382e-06
4.63166e-11
-1.31772e-06
1.05441e-10
-1.27975e-06
1.71274e-10
-1.21113e-06
1.43241e-10
-1.09139e-06
-8.21266e-07
-3.96835e-10
-8.28944e-07
-5.84148e-10
-1.09854e-06
-5.84279e-10
-1.21898e-06
-5.67817e-10
-1.28777e-06
-5.49695e-10
-1.32492e-06
-5.30596e-10
-1.34425e-06
-5.14675e-10
-1.35397e-06
-4.78889e-10
-1.35854e-06
-4.32852e-10
-1.36038e-06
-3.7152e-10
-1.36069e-06
-3.0838e-10
-1.36002e-06
-2.40152e-10
-1.35835e-06
-1.67241e-10
-1.35517e-06
-9.27923e-11
-1.34926e-06
-1.66e-11
-1.33827e-06
3.8016e-11
-1.31777e-06
8.59955e-11
-1.2798e-06
1.4043e-10
-1.21119e-06
9.10618e-11
-1.09134e-06
-8.21174e-07
-6.39354e-10
-8.28321e-07
-6.13668e-10
-1.09857e-06
-5.053e-10
-1.21911e-06
-4.28999e-10
-1.28785e-06
-3.82584e-10
-1.32499e-06
-3.61925e-10
-1.34429e-06
-3.65951e-10
-1.35398e-06
-3.59072e-10
-1.35856e-06
-3.50528e-10
-1.3604e-06
-3.19723e-10
-1.36073e-06
-2.87328e-10
-1.36006e-06
-2.36717e-10
-1.3584e-06
-1.86491e-10
-1.35522e-06
-1.34282e-10
-1.34932e-06
-7.13016e-11
-1.33834e-06
-6.29042e-12
-1.31784e-06
4.50703e-11
-1.27985e-06
1.02886e-10
-1.21125e-06
1.43104e-10
-1.09136e-06
-8.21021e-07
-6.65997e-10
-8.27654e-07
-5.49488e-10
-1.09866e-06
-3.16506e-10
-1.21934e-06
-1.51558e-10
-1.288e-06
-9.71749e-11
-1.32504e-06
-9.15665e-11
-1.34428e-06
-1.27829e-10
-1.35395e-06
-1.60062e-10
-1.35851e-06
-1.94801e-10
-1.36036e-06
-2.05223e-10
-1.36071e-06
-2.09087e-10
-1.36005e-06
-1.98969e-10
-1.3584e-06
-1.93669e-10
-1.35522e-06
-1.88582e-10
-1.34931e-06
-1.96849e-10
-1.33833e-06
-1.69325e-10
-1.31786e-06
-1.10756e-10
-1.27989e-06
9.86982e-12
-1.21132e-06
1.74234e-10
-1.09148e-06
-8.20832e-07
-7.00259e-10
-8.26918e-07
-5.08532e-10
-1.09879e-06
-2.1705e-10
-1.2196e-06
-7.35738e-12
-1.28817e-06
3.18149e-11
-1.32505e-06
2.28096e-11
-1.34423e-06
-1.77709e-11
-1.35388e-06
-5.08969e-11
-1.35845e-06
-8.22144e-11
-1.36031e-06
-8.93951e-11
-1.36067e-06
-8.91669e-11
-1.36003e-06
-7.11066e-11
-1.35838e-06
-6.57738e-11
-1.3552e-06
-6.79006e-11
-1.34928e-06
-9.81453e-11
-1.33826e-06
-1.17537e-10
-1.3178e-06
-7.38164e-11
-1.27989e-06
2.14889e-11
-1.21135e-06
1.4808e-10
-1.09154e-06
-8.20677e-07
-5.11831e-10
-8.26369e-07
-4.05679e-10
-1.09886e-06
-3.17644e-10
-1.21965e-06
-2.49902e-10
-1.2882e-06
-2.31473e-10
-1.32504e-06
-1.8808e-10
-1.34425e-06
-1.54963e-10
-1.35389e-06
-1.21089e-10
-1.35845e-06
-9.97985e-11
-1.36032e-06
-5.62034e-11
-1.36068e-06
-1.22953e-11
-1.36006e-06
5.6563e-11
-1.35843e-06
1.29914e-10
-1.35526e-06
1.9923e-10
-1.34933e-06
2.55303e-10
-1.33829e-06
2.28573e-10
-1.31776e-06
1.36892e-10
-1.27976e-06
-2.83671e-11
-1.21116e-06
-6.5842e-11
-1.09148e-06
-8.20752e-07
3.04406e-11
-8.26402e-07
-2.11928e-10
-1.09861e-06
-3.08122e-10
-1.21956e-06
-3.42393e-10
-1.28816e-06
-3.40303e-10
-1.32505e-06
-3.0351e-10
-1.34428e-06
-2.57618e-10
-1.35394e-06
-2.21349e-10
-1.3585e-06
-1.84771e-10
-1.36035e-06
-1.58301e-10
-1.36072e-06
-1.25212e-10
-1.3601e-06
-8.98638e-11
-1.35847e-06
-4.32226e-11
-1.35531e-06
2.93635e-12
-1.34939e-06
4.46567e-11
-1.33835e-06
1.42642e-11
-1.31774e-06
-1.42866e-10
-1.27963e-06
-3.97749e-10
-1.21095e-06
-6.32435e-10
-1.09129e-06
-8.21392e-07
1.68772e-10
-8.26567e-07
-2.35659e-11
-1.09842e-06
-2.14085e-10
-1.21937e-06
-3.11378e-10
-1.28807e-06
-3.15358e-10
-1.32504e-06
-3.08414e-10
-1.3443e-06
-2.91629e-10
-1.35396e-06
-2.92696e-10
-1.35851e-06
-2.94494e-10
-1.36035e-06
-3.29151e-10
-1.3607e-06
-3.59225e-10
-1.36007e-06
-4.21423e-10
-1.35843e-06
-4.75348e-10
-1.35526e-06
-5.33278e-10
-1.34934e-06
-5.73219e-10
-1.33831e-06
-5.90403e-10
-1.31772e-06
-6.05452e-10
-1.27964e-06
-6.52195e-10
-1.21093e-06
-6.98616e-10
-1.09127e-06
-8.22084e-07
2.44076e-10
-8.26804e-07
1.9227e-10
-1.09837e-06
5.04865e-11
-1.21923e-06
-7.08957e-11
-1.28794e-06
-1.30143e-10
-1.32499e-06
-1.67419e-10
-1.34425e-06
-2.19484e-10
-1.3539e-06
-2.67401e-10
-1.35845e-06
-3.27504e-10
-1.36028e-06
-3.9768e-10
-1.36062e-06
-4.82229e-10
-1.35997e-06
-5.88971e-10
-1.35831e-06
-6.98406e-10
-1.35513e-06
-7.99478e-10
-1.34923e-06
-8.53804e-10
-1.33823e-06
-8.45582e-10
-1.3177e-06
-7.48871e-10
-1.27971e-06
-5.85561e-10
-1.21106e-06
-2.28319e-10
-1.09159e-06
-8.223e-07
1.22771e-10
-8.269e-07
2.69079e-10
-1.09848e-06
2.57493e-10
-1.2192e-06
1.83182e-10
-1.28783e-06
8.69746e-11
-1.32487e-06
-2.24129e-12
-1.34413e-06
-1.11998e-10
-1.35378e-06
-1.991e-10
-1.35832e-06
-2.90586e-10
-1.36017e-06
-3.66367e-10
-1.36051e-06
-4.51626e-10
-1.35986e-06
-5.39285e-10
-1.3582e-06
-6.25622e-10
-1.35502e-06
-6.96137e-10
-1.34913e-06
-7.48877e-10
-1.33816e-06
-7.35652e-10
-1.31769e-06
-6.1918e-10
-1.27977e-06
-3.87257e-10
-1.21124e-06
8.22598e-11
-1.092e-06
-8.22206e-07
-2.7628e-11
-8.26801e-07
2.03414e-10
-1.09866e-06
2.06681e-10
-1.21914e-06
1.08136e-10
-1.28769e-06
2.46476e-12
-1.32472e-06
-1.03839e-10
-1.34398e-06
-1.98966e-10
-1.35364e-06
-2.80117e-10
-1.35821e-06
-3.50496e-10
-1.36007e-06
-4.06051e-10
-1.36043e-06
-4.60317e-10
-1.35978e-06
-4.91122e-10
-1.35813e-06
-5.20587e-10
-1.35497e-06
-5.36968e-10
-1.34908e-06
-5.61096e-10
-1.33811e-06
-5.5302e-10
-1.31767e-06
-4.63651e-10
-1.27983e-06
-2.82325e-10
-1.21137e-06
-8.49998e-11
-1.09215e-06
-8.22284e-07
1.06162e-10
-8.26841e-07
1.27453e-10
-1.09865e-06
7.17042e-11
-1.21903e-06
-1.06931e-10
-1.28748e-06
-2.53499e-10
-1.32453e-06
-3.66014e-10
-1.34384e-06
-4.33889e-10
-1.35354e-06
-4.9516e-10
-1.35813e-06
-5.34999e-10
-1.36e-06
-5.74218e-10
-1.36037e-06
-5.9439e-10
-1.35973e-06
-6.09103e-10
-1.3581e-06
-6.08656e-10
-1.35494e-06
-6.05972e-10
-1.34906e-06
-5.88054e-10
-1.3381e-06
-5.50692e-10
-1.31768e-06
-4.66102e-10
-1.2799e-06
-2.8318e-10
-1.21153e-06
-2.86306e-10
-1.09211e-06
-8.22563e-07
2.05534e-10
-8.26991e-07
1.64817e-10
-1.09859e-06
2.1248e-11
-1.21884e-06
-2.61233e-10
-1.28719e-06
-4.64118e-10
-1.32429e-06
-5.92425e-10
-1.3437e-06
-6.50587e-10
-1.35346e-06
-6.98989e-10
-1.35807e-06
-7.36403e-10
-1.35995e-06
-7.75015e-10
-1.36031e-06
-8.04767e-10
-1.35968e-06
-8.26974e-10
-1.35805e-06
-8.31747e-10
-1.35491e-06
-8.3126e-10
-1.34904e-06
-7.82428e-10
-1.33811e-06
-7.32352e-10
-1.31771e-06
-6.28996e-10
-1.27997e-06
-4.22931e-10
-1.2117e-06
-3.23129e-10
-1.09217e-06
-8.22875e-07
2.15749e-10
-8.27135e-07
1.68934e-10
-1.09849e-06
1.03927e-10
-1.21872e-06
-1.28858e-10
-1.28692e-06
-3.44901e-10
-1.32404e-06
-5.11855e-10
-1.34352e-06
-6.31985e-10
-1.35331e-06
-7.40206e-10
-1.35794e-06
-8.39431e-10
-1.35982e-06
-9.39285e-10
-1.36019e-06
-1.03062e-09
-1.35956e-06
-1.12356e-09
-1.35794e-06
-1.1874e-09
-1.35481e-06
-1.23728e-09
-1.34897e-06
-1.22369e-09
-1.33809e-06
-1.14384e-09
-1.31776e-06
-9.64688e-10
-1.28011e-06
-7.08163e-10
-1.21191e-06
-4.71559e-10
-1.09235e-06
-8.23331e-07
2.99523e-12
-8.27024e-07
1.42586e-10
-1.09854e-06
1.69319e-10
-1.21866e-06
2.23989e-11
-1.28672e-06
-1.74589e-10
-1.32378e-06
-3.7983e-10
-1.34327e-06
-5.65902e-10
-1.35308e-06
-7.50851e-10
-1.35772e-06
-9.17528e-10
-1.35961e-06
-1.0914e-09
-1.35999e-06
-1.25021e-09
-1.35936e-06
-1.41667e-09
-1.35775e-06
-1.55174e-09
-1.35463e-06
-1.66038e-09
-1.34883e-06
-1.67273e-09
-1.33804e-06
-1.55271e-09
-1.31784e-06
-1.24793e-09
-1.28037e-06
-7.908e-10
-1.2123e-06
-2.45529e-10
-1.09282e-06
-8.23558e-07
2.4472e-11
-8.2697e-07
2.48736e-10
-1.0987e-06
1.75755e-10
-1.21852e-06
-4.42228e-11
-1.28645e-06
-3.00682e-10
-1.32347e-06
-5.46555e-10
-1.34298e-06
-7.4249e-10
-1.35284e-06
-9.2277e-10
-1.3575e-06
-1.07813e-09
-1.35942e-06
-1.23439e-09
-1.3598e-06
-1.37932e-09
-1.35918e-06
-1.53126e-09
-1.35757e-06
-1.65334e-09
-1.35448e-06
-1.74302e-09
-1.34872e-06
-1.75092e-09
-1.338e-06
-1.62251e-09
-1.31794e-06
-1.29869e-09
-1.28063e-06
-7.44346e-10
-1.21278e-06
8.38213e-11
-1.09356e-06
-8.23462e-07
3.93411e-10
-8.27364e-07
3.66839e-10
-1.09867e-06
1.55519e-10
-1.21831e-06
-1.16862e-10
-1.28618e-06
-3.92355e-10
-1.32319e-06
-6.44137e-10
-1.34273e-06
-8.44356e-10
-1.35263e-06
-1.0156e-09
-1.35733e-06
-1.15694e-09
-1.35926e-06
-1.27933e-09
-1.35966e-06
-1.38911e-09
-1.35906e-06
-1.48206e-09
-1.35746e-06
-1.5556e-09
-1.35438e-06
-1.59269e-09
-1.34866e-06
-1.5833e-09
-1.33798e-06
-1.46934e-09
-1.31802e-06
-1.19184e-09
-1.28087e-06
-7.26204e-10
-1.21319e-06
-7.0577e-11
-1.09417e-06
-8.23535e-07
3.78727e-10
-8.27736e-07
5.05715e-10
-1.09876e-06
4.24137e-10
-1.21823e-06
2.38392e-10
-1.28597e-06
-1.81658e-11
-1.32293e-06
-3.08209e-10
-1.34243e-06
-6.00958e-10
-1.35233e-06
-8.61198e-10
-1.35705e-06
-1.08676e-09
-1.35903e-06
-1.26582e-09
-1.35947e-06
-1.40757e-09
-1.3589e-06
-1.51058e-09
-1.35733e-06
-1.56565e-09
-1.3543e-06
-1.58054e-09
-1.34862e-06
-1.53399e-09
-1.33799e-06
-1.42912e-09
-1.3181e-06
-1.19557e-09
-1.28108e-06
-7.97677e-10
-1.2136e-06
-3.26443e-10
-1.09466e-06
-8.2387e-07
-5.5418e-11
-8.27606e-07
5.06542e-10
-1.09923e-06
6.86456e-10
-1.21835e-06
5.68603e-10
-1.2858e-06
3.08948e-10
-1.32262e-06
-5.42609e-11
-1.34203e-06
-4.3523e-10
-1.35191e-06
-8.04137e-10
-1.35667e-06
-1.10794e-09
-1.35869e-06
-1.38646e-09
-1.35919e-06
-1.59622e-09
-1.35866e-06
-1.786e-09
-1.35714e-06
-1.90909e-09
-1.35415e-06
-2.00043e-09
-1.34853e-06
-2.0072e-09
-1.33796e-06
-1.92747e-09
-1.31817e-06
-1.67854e-09
-1.28134e-06
-1.16453e-09
-1.21415e-06
-5.91606e-10
-1.09527e-06
-8.24466e-07
7.57798e-13
-8.27542e-07
4.96461e-10
-1.09966e-06
6.18818e-10
-1.21841e-06
4.7117e-10
-1.28561e-06
1.93953e-10
-1.32229e-06
-2.00184e-10
-1.34162e-06
-5.86458e-10
-1.35148e-06
-9.6973e-10
-1.35628e-06
-1.28679e-09
-1.35834e-06
-1.60024e-09
-1.35887e-06
-1.85513e-09
-1.35838e-06
-2.11193e-09
-1.35689e-06
-2.31678e-09
-1.35392e-06
-2.47974e-09
-1.34835e-06
-2.53185e-09
-1.33789e-06
-2.41208e-09
-1.31826e-06
-2.07712e-09
-1.28167e-06
-1.44369e-09
-1.21479e-06
-5.00325e-10
-1.09623e-06
-8.24963e-07
3.66466e-10
-8.27929e-07
6.10585e-10
-1.0999e-06
7.17019e-10
-1.21854e-06
6.21804e-10
-1.2855e-06
2.90318e-10
-1.32197e-06
-1.39296e-10
-1.34118e-06
-5.79206e-10
-1.35104e-06
-9.76057e-10
-1.35587e-06
-1.32714e-09
-1.35798e-06
-1.64371e-09
-1.35854e-06
-1.92979e-09
-1.35808e-06
-2.19165e-09
-1.35661e-06
-2.4303e-09
-1.35367e-06
-2.61531e-09
-1.34814e-06
-2.70079e-09
-1.33777e-06
-2.60243e-09
-1.31832e-06
-2.2691e-09
-1.28196e-06
-1.64398e-09
-1.21539e-06
-5.24634e-10
-1.09733e-06
-8.25483e-07
3.31852e-10
-8.28282e-07
8.52481e-10
-1.1004e-06
1.12108e-09
-1.21883e-06
1.04482e-09
-1.28541e-06
6.34864e-10
-1.32157e-06
1.49025e-10
-1.34067e-06
-3.54649e-10
-1.35054e-06
-7.8905e-10
-1.35542e-06
-1.18147e-09
-1.35758e-06
-1.51393e-09
-1.35819e-06
-1.81632e-09
-1.35776e-06
-2.0719e-09
-1.35633e-06
-2.30684e-09
-1.35343e-06
-2.48284e-09
-1.34793e-06
-2.59821e-09
-1.33764e-06
-2.56842e-09
-1.31831e-06
-2.29686e-09
-1.28221e-06
-1.71855e-09
-1.21595e-06
-7.59557e-10
-1.09827e-06
-8.2624e-07
4.05804e-10
-8.28674e-07
1.2074e-09
-1.10118e-06
1.49963e-09
-1.21911e-06
1.34981e-09
-1.28523e-06
9.07761e-10
-1.32112e-06
3.90942e-10
-1.34013e-06
-1.31857e-10
-1.35e-06
-5.99687e-10
-1.35493e-06
-1.02756e-09
-1.35714e-06
-1.38635e-09
-1.35781e-06
-1.71787e-09
-1.35743e-06
-1.98026e-09
-1.35604e-06
-2.22228e-09
-1.35318e-06
-2.38144e-09
-1.34774e-06
-2.48204e-09
-1.33752e-06
-2.46216e-09
-1.3183e-06
-2.25124e-09
-1.28241e-06
-1.75711e-09
-1.21644e-06
-9.1458e-10
-1.09909e-06