/*--------------------------------*- C++ -*----------------------------------*\
  =========                 |
  \\      /  F ield         | OpenFOAM: The Open Source CFD Toolbox
   \\    /   O peration     | Website:  https://openfoam.org
    \\  /    A nd           | Version:  6
     \\/     M anipulation  |
\*---------------------------------------------------------------------------*/
FoamFile
{
    version     2.0;
    format      ascii;
    class       volVectorField;
    location    "13";
    object      U;
}
// * * * * * * * * * * * * * * * * * * * * * * * * * * * * * * * * * * * * * //

dimensions      [0 1 -1 0 0 0 0];

internalField   nonuniform List<vector> 
130000
(
(-0.0120341 -0.340063 0)
(-0.01262 -0.374312 0)
(-0.0131376 -0.407515 0)
(-0.0135998 -0.439373 0)
(-0.0140011 -0.469553 0)
(-0.0143509 -0.497763 0)
(-0.0146563 -0.523763 0)
(-0.0149247 -0.547366 0)
(-0.015163 -0.56845 0)
(-0.0153774 -0.586956 0)
(-0.015573 -0.602886 0)
(-0.015754 -0.616303 0)
(-0.0159235 -0.627317 0)
(-0.0160836 -0.636083 0)
(-0.0162356 -0.64279 0)
(-0.0163799 -0.647648 0)
(-0.0165164 -0.650887 0)
(-0.016645 -0.652743 0)
(-0.0167659 -0.653453 0)
(-0.0168784 -0.653246 0)
(-0.0138005 -0.338678 0)
(-0.0141835 -0.373016 0)
(-0.0145686 -0.406361 0)
(-0.0149359 -0.438366 0)
(-0.0152654 -0.468685 0)
(-0.0155583 -0.497021 0)
(-0.0158184 -0.523129 0)
(-0.0160506 -0.546822 0)
(-0.0162602 -0.567977 0)
(-0.016452 -0.586538 0)
(-0.0166303 -0.602511 0)
(-0.0167984 -0.615959 0)
(-0.0169587 -0.626997 0)
(-0.0171127 -0.635782 0)
(-0.0172611 -0.642504 0)
(-0.017404 -0.647378 0)
(-0.0175408 -0.650632 0)
(-0.0176708 -0.652505 0)
(-0.0177943 -0.653232 0)
(-0.0179103 -0.653043 0)
(-0.0164493 -0.338016 0)
(-0.0167015 -0.372329 0)
(-0.0169575 -0.405684 0)
(-0.0172098 -0.437724 0)
(-0.0174431 -0.468087 0)
(-0.0176563 -0.496469 0)
(-0.0178513 -0.522619 0)
(-0.0180307 -0.546348 0)
(-0.0181977 -0.567533 0)
(-0.0183553 -0.586117 0)
(-0.0185064 -0.602109 0)
(-0.0186531 -0.615572 0)
(-0.0187969 -0.626622 0)
(-0.0189383 -0.635419 0)
(-0.0190776 -0.642154 0)
(-0.0192143 -0.64704 0)
(-0.0193472 -0.65031 0)
(-0.0194755 -0.652199 0)
(-0.0195988 -0.652944 0)
(-0.0197157 -0.652775 0)
(-0.019894 -0.337662 0)
(-0.0199907 -0.371958 0)
(-0.0201065 -0.405317 0)
(-0.0202298 -0.437372 0)
(-0.0203487 -0.467756 0)
(-0.0204623 -0.49616 0)
(-0.0205719 -0.522329 0)
(-0.0206786 -0.546072 0)
(-0.0207844 -0.567267 0)
(-0.0208909 -0.585858 0)
(-0.0209996 -0.601851 0)
(-0.0211115 -0.615314 0)
(-0.0212269 -0.626363 0)
(-0.0213458 -0.635159 0)
(-0.0214673 -0.641893 0)
(-0.0215905 -0.646781 0)
(-0.0217137 -0.650054 0)
(-0.0218355 -0.65195 0)
(-0.021955 -0.652706 0)
(-0.0220707 -0.652549 0)
(-0.0238479 -0.337592 0)
(-0.0238039 -0.371865 0)
(-0.0237859 -0.405212 0)
(-0.0237813 -0.437261 0)
(-0.0237828 -0.467642 0)
(-0.0237904 -0.496043 0)
(-0.0238057 -0.522208 0)
(-0.0238292 -0.545945 0)
(-0.0238623 -0.56713 0)
(-0.0239057 -0.585709 0)
(-0.0239601 -0.60169 0)
(-0.0240255 -0.615139 0)
(-0.0241017 -0.626176 0)
(-0.0241874 -0.63496 0)
(-0.0242814 -0.641685 0)
(-0.0243819 -0.646568 0)
(-0.0244868 -0.649839 0)
(-0.0245941 -0.651736 0)
(-0.0247023 -0.652497 0)
(-0.0248094 -0.652348 0)
(-0.0280437 -0.337751 0)
(-0.0278954 -0.372006 0)
(-0.0277706 -0.405334 0)
(-0.0276592 -0.437364 0)
(-0.0275572 -0.467726 0)
(-0.0274669 -0.496106 0)
(-0.0273912 -0.522247 0)
(-0.0273314 -0.545959 0)
(-0.0272888 -0.567117 0)
(-0.0272641 -0.585667 0)
(-0.027258 -0.601619 0)
(-0.0272699 -0.61504 0)
(-0.027299 -0.626051 0)
(-0.0273437 -0.634812 0)
(-0.0274022 -0.641518 0)
(-0.027472 -0.646385 0)
(-0.0275507 -0.649646 0)
(-0.0276355 -0.651537 0)
(-0.0277245 -0.652296 0)
(-0.027815 -0.65215 0)
(-0.0323678 -0.338073 0)
(-0.0321422 -0.372328 0)
(-0.0319359 -0.405647 0)
(-0.0317367 -0.437662 0)
(-0.0315463 -0.468002 0)
(-0.0313688 -0.496354 0)
(-0.0312093 -0.522462 0)
(-0.0310701 -0.546135 0)
(-0.0309532 -0.567253 0)
(-0.03086 -0.585761 0)
(-0.0307909 -0.60167 0)
(-0.0307455 -0.615051 0)
(-0.030723 -0.626023 0)
(-0.0307212 -0.63475 0)
(-0.0307382 -0.641427 0)
(-0.0307712 -0.64627 0)
(-0.0308172 -0.649511 0)
(-0.030873 -0.65139 0)
(-0.0309365 -0.652142 0)
(-0.0310045 -0.651994 0)
(-0.0367732 -0.338531 0)
(-0.036485 -0.3728 0)
(-0.0362074 -0.406121 0)
(-0.0359338 -0.438126 0)
(-0.0356663 -0.468445 0)
(-0.0354114 -0.496766 0)
(-0.0351756 -0.522835 0)
(-0.0349626 -0.546464 0)
(-0.0347753 -0.567532 0)
(-0.0346152 -0.585988 0)
(-0.0344836 -0.601846 0)
(-0.0343802 -0.615176 0)
(-0.0343039 -0.6261 0)
(-0.034253 -0.634784 0)
(-0.034225 -0.641422 0)
(-0.0342169 -0.646232 0)
(-0.0342258 -0.649447 0)
(-0.0342479 -0.651305 0)
(-0.0342809 -0.652043 0)
(-0.0343211 -0.651888 0)
(-0.0412053 -0.339085 0)
(-0.0408642 -0.373388 0)
(-0.0405289 -0.406724 0)
(-0.0401932 -0.438727 0)
(-0.0398598 -0.46903 0)
(-0.0395369 -0.497323 0)
(-0.0392329 -0.523352 0)
(-0.0389523 -0.546932 0)
(-0.0386989 -0.567946 0)
(-0.0384753 -0.586344 0)
(-0.0382828 -0.602142 0)
(-0.0381217 -0.615413 0)
(-0.0379913 -0.626283 0)
(-0.0378895 -0.634915 0)
(-0.0378142 -0.641506 0)
(-0.0377623 -0.646277 0)
(-0.0377306 -0.649459 0)
(-0.0377152 -0.65129 0)
(-0.0377135 -0.652008 0)
(-0.0377219 -0.65184 0)
(-0.0456458 -0.339734 0)
(-0.0452661 -0.374083 0)
(-0.0448798 -0.407444 0)
(-0.0444891 -0.439453 0)
(-0.0440967 -0.469745 0)
(-0.0437124 -0.49801 0)
(-0.0433459 -0.524 0)
(-0.0430028 -0.54753 0)
(-0.0426877 -0.568486 0)
(-0.0424036 -0.586822 0)
(-0.0421527 -0.602555 0)
(-0.0419354 -0.615763 0)
(-0.0417511 -0.626571 0)
(-0.0415983 -0.635145 0)
(-0.0414748 -0.641685 0)
(-0.0413774 -0.646409 0)
(-0.041303 -0.649551 0)
(-0.0412475 -0.651351 0)
(-0.0412084 -0.652044 0)
(-0.0411818 -0.651857 0)
(-0.0500798 -0.340454 0)
(-0.04966 -0.374863 0)
(-0.0492323 -0.408261 0)
(-0.0487949 -0.440286 0)
(-0.0483513 -0.470573 0)
(-0.0479125 -0.498816 0)
(-0.0474896 -0.524768 0)
(-0.0470891 -0.548248 0)
(-0.0467164 -0.569145 0)
(-0.0463752 -0.587417 0)
(-0.0460681 -0.603083 0)
(-0.045796 -0.616223 0)
(-0.0455588 -0.626964 0)
(-0.045355 -0.635476 0)
(-0.0451825 -0.641958 0)
(-0.0450386 -0.646632 0)
(-0.0449198 -0.64973 0)
(-0.0448224 -0.651492 0)
(-0.0447435 -0.652155 0)
(-0.0446795 -0.651945 0)
(-0.0545202 -0.341242 0)
(-0.0540714 -0.375724 0)
(-0.053601 -0.40917 0)
(-0.0531171 -0.441219 0)
(-0.0526232 -0.471507 0)
(-0.0521317 -0.499732 0)
(-0.0516546 -0.525649 0)
(-0.0511991 -0.549081 0)
(-0.0507712 -0.569919 0)
(-0.050375 -0.588125 0)
(-0.0500135 -0.603721 0)
(-0.0496881 -0.61679 0)
(-0.0493987 -0.627462 0)
(-0.0491444 -0.635909 0)
(-0.048923 -0.64233 0)
(-0.048732 -0.646948 0)
(-0.0485681 -0.649997 0)
(-0.0484273 -0.651718 0)
(-0.0483072 -0.652347 0)
(-0.0482038 -0.652109 0)
(-0.0589574 -0.342104 0)
(-0.058474 -0.376668 0)
(-0.0579637 -0.41017 0)
(-0.057437 -0.442248 0)
(-0.0568967 -0.472544 0)
(-0.0563562 -0.500754 0)
(-0.0558284 -0.526638 0)
(-0.055321 -0.550022 0)
(-0.0548405 -0.570802 0)
(-0.0543913 -0.588941 0)
(-0.0539771 -0.604467 0)
(-0.0535994 -0.617464 0)
(-0.0532586 -0.628064 0)
(-0.0529538 -0.636442 0)
(-0.0526834 -0.642799 0)
(-0.0524447 -0.647358 0)
(-0.0522347 -0.650356 0)
(-0.0520495 -0.652031 0)
(-0.0518866 -0.652622 0)
(-0.0517424 -0.652353 0)
(-0.0633943 -0.343026 0)
(-0.0628804 -0.377685 0)
(-0.0623306 -0.411252 0)
(-0.0617608 -0.443368 0)
(-0.0611746 -0.473676 0)
(-0.0605858 -0.501876 0)
(-0.0600085 -0.52773 0)
(-0.0594505 -0.551069 0)
(-0.0589187 -0.571792 0)
(-0.0584178 -0.589865 0)
(-0.0579519 -0.605319 0)
(-0.0575227 -0.618242 0)
(-0.0571309 -0.628769 0)
(-0.0567761 -0.637076 0)
(-0.0564565 -0.643366 0)
(-0.0561698 -0.647864 0)
(-0.0559131 -0.650807 0)
(-0.0556826 -0.652434 0)
(-0.055476 -0.652983 0)
(-0.0552895 -0.652679 0)
(-0.0678175 -0.344016 0)
(-0.0672749 -0.378777 0)
(-0.0666904 -0.412416 0)
(-0.06608 -0.444577 0)
(-0.06545 -0.474902 0)
(-0.0648151 -0.503095 0)
(-0.0641899 -0.528923 0)
(-0.0635827 -0.552218 0)
(-0.0630006 -0.572885 0)
(-0.0624488 -0.590892 0)
(-0.0619317 -0.606275 0)
(-0.0614513 -0.619124 0)
(-0.0610088 -0.629577 0)
(-0.0606035 -0.637811 0)
(-0.0602343 -0.644033 0)
(-0.059899 -0.648467 0)
(-0.0595948 -0.651352 0)
(-0.0593181 -0.652928 0)
(-0.0590665 -0.653432 0)
(-0.0588367 -0.65309 0)
(-0.0722524 -0.345058 0)
(-0.0716766 -0.379935 0)
(-0.0710536 -0.413656 0)
(-0.0704013 -0.445869 0)
(-0.0697268 -0.476218 0)
(-0.0690455 -0.504409 0)
(-0.0683723 -0.530214 0)
(-0.0677159 -0.553469 0)
(-0.0670837 -0.574081 0)
(-0.0664813 -0.592024 0)
(-0.065913 -0.607336 0)
(-0.0653815 -0.62011 0)
(-0.0648879 -0.630488 0)
(-0.0644321 -0.638649 0)
(-0.0640129 -0.6448 0)
(-0.0636284 -0.649169 0)
(-0.063276 -0.651994 0)
(-0.0629521 -0.653516 0)
(-0.0626547 -0.653972 0)
(-0.0623802 -0.653589 0)
(-0.0766816 -0.346171 0)
(-0.0760783 -0.381171 0)
(-0.0754175 -0.414981 0)
(-0.0747231 -0.44725 0)
(-0.0740036 -0.477627 0)
(-0.0732753 -0.505821 0)
(-0.0725538 -0.531605 0)
(-0.0718479 -0.554821 0)
(-0.0711653 -0.575379 0)
(-0.0705118 -0.593259 0)
(-0.0698921 -0.6085 0)
(-0.0693089 -0.6212 0)
(-0.0687638 -0.631503 0)
(-0.0682566 -0.639589 0)
(-0.0677867 -0.645668 0)
(-0.067352 -0.64997 0)
(-0.0669503 -0.652733 0)
(-0.0665782 -0.654199 0)
(-0.0662336 -0.654605 0)
(-0.0659133 -0.654178 0)
(-0.0811176 -0.347348 0)
(-0.0804785 -0.382482 0)
(-0.0797766 -0.41639 0)
(-0.0790397 -0.448721 0)
(-0.0782754 -0.47913 0)
(-0.0775002 -0.507329 0)
(-0.0767305 -0.533095 0)
(-0.0759752 -0.556274 0)
(-0.0752422 -0.576782 0)
(-0.0745373 -0.594599 0)
(-0.0738658 -0.60977 0)
(-0.0732305 -0.622396 0)
(-0.0726332 -0.632622 0)
(-0.072074 -0.640633 0)
(-0.0715525 -0.64664 0)
(-0.0710668 -0.650873 0)
(-0.0706148 -0.653572 0)
(-0.0701933 -0.654979 0)
(-0.0698003 -0.655333 0)
(-0.0694327 -0.654859 0)
(-0.085537 -0.348592 0)
(-0.0848682 -0.38387 0)
(-0.0841293 -0.41788 0)
(-0.0833508 -0.45028 0)
(-0.0825418 -0.480725 0)
(-0.0817198 -0.508932 0)
(-0.0809016 -0.534685 0)
(-0.0800965 -0.55783 0)
(-0.0793123 -0.578288 0)
(-0.0785555 -0.596044 0)
(-0.0778313 -0.611146 0)
(-0.077143 -0.623698 0)
(-0.0764926 -0.633849 0)
(-0.0758803 -0.641784 0)
(-0.075306 -0.647717 0)
(-0.0747681 -0.65188 0)
(-0.0742644 -0.654513 0)
(-0.073792 -0.65586 0)
(-0.0733492 -0.656159 0)
(-0.0729329 -0.655636 0)
(-0.0899527 -0.349898 0)
(-0.0892495 -0.385328 0)
(-0.0884739 -0.41945 0)
(-0.0876544 -0.451925 0)
(-0.0868012 -0.482412 0)
(-0.0859325 -0.510633 0)
(-0.0850655 -0.536374 0)
(-0.08421 -0.559489 0)
(-0.0833741 -0.579899 0)
(-0.0825644 -0.597596 0)
(-0.0817866 -0.612631 0)
(-0.0810442 -0.625109 0)
(-0.0803394 -0.635184 0)
(-0.0796729 -0.643043 0)
(-0.0790445 -0.648902 0)
(-0.0784529 -0.652993 0)
(-0.0778962 -0.65556 0)
(-0.0773716 -0.656845 0)
(-0.0768773 -0.657087 0)
(-0.0764107 -0.656511 0)
(-0.0943726 -0.351267 0)
(-0.0936368 -0.386858 0)
(-0.0928219 -0.421101 0)
(-0.0919591 -0.453657 0)
(-0.0910594 -0.484192 0)
(-0.0901419 -0.512431 0)
(-0.0892244 -0.538166 0)
(-0.0883167 -0.561252 0)
(-0.0874274 -0.581618 0)
(-0.0865633 -0.599257 0)
(-0.0857303 -0.614225 0)
(-0.0849322 -0.626631 0)
(-0.0841715 -0.63663 0)
(-0.0834491 -0.644412 0)
(-0.0827649 -0.650196 0)
(-0.0821179 -0.654216 0)
(-0.0815064 -0.656714 0)
(-0.0809277 -0.657935 0)
(-0.0803803 -0.658118 0)
(-0.0798617 -0.657488 0)
(-0.0988022 -0.35271 0)
(-0.0980278 -0.38847 0)
(-0.0971702 -0.422839 0)
(-0.0962623 -0.455484 0)
(-0.0953146 -0.486071 0)
(-0.0943466 -0.514332 0)
(-0.093377 -0.540063 0)
(-0.0924156 -0.563125 0)
(-0.0914712 -0.583448 0)
(-0.0905509 -0.601031 0)
(-0.0896609 -0.615933 0)
(-0.0888053 -0.628267 0)
(-0.0879869 -0.638191 0)
(-0.0872066 -0.645897 0)
(-0.0864648 -0.651605 0)
(-0.0857605 -0.655552 0)
(-0.0850922 -0.65798 0)
(-0.0844576 -0.659135 0)
(-0.083855 -0.659257 0)
(-0.0832825 -0.65857 0)
(-0.103229 -0.354224 0)
(-0.102418 -0.390163 0)
(-0.101519 -0.424668 0)
(-0.100565 -0.457406 0)
(-0.0995676 -0.488051 0)
(-0.0985475 -0.516339 0)
(-0.0975237 -0.542069 0)
(-0.0965065 -0.565109 0)
(-0.095505 -0.585392 0)
(-0.0945265 -0.602921 0)
(-0.0935773 -0.617759 0)
(-0.0926621 -0.630022 0)
(-0.0917836 -0.63987 0)
(-0.0909433 -0.6475 0)
(-0.0901415 -0.653132 0)
(-0.0893778 -0.657004 0)
(-0.0886505 -0.659361 0)
(-0.0879578 -0.660449 0)
(-0.087298 -0.660507 0)
(-0.0866695 -0.659761 0)
(-0.107662 -0.355815 0)
(-0.10681 -0.391941 0)
(-0.105867 -0.426587 0)
(-0.104866 -0.459427 0)
(-0.103818 -0.490136 0)
(-0.102744 -0.518455 0)
(-0.101664 -0.544189 0)
(-0.100589 -0.567209 0)
(-0.099528 -0.587455 0)
(-0.0984888 -0.604932 0)
(-0.0974782 -0.619707 0)
(-0.0965007 -0.631899 0)
(-0.0955597 -0.641673 0)
(-0.0946567 -0.649226 0)
(-0.0937925 -0.654781 0)
(-0.0929666 -0.658578 0)
(-0.092178 -0.660863 0)
(-0.0914246 -0.661881 0)
(-0.0907051 -0.661874 0)
(-0.0900181 -0.661066 0)
(-0.112099 -0.357476 0)
(-0.111207 -0.393802 0)
(-0.11022 -0.4286 0)
(-0.109169 -0.461548 0)
(-0.108067 -0.492327 0)
(-0.106937 -0.520683 0)
(-0.105799 -0.546425 0)
(-0.104663 -0.56943 0)
(-0.10354 -0.589641 0)
(-0.102438 -0.607068 0)
(-0.101363 -0.621782 0)
(-0.10032 -0.633905 0)
(-0.0993136 -0.643604 0)
(-0.0983451 -0.65108 0)
(-0.0974155 -0.656558 0)
(-0.0965248 -0.660279 0)
(-0.0956719 -0.662489 0)
(-0.0948551 -0.663436 0)
(-0.0940732 -0.663361 0)
(-0.093325 -0.662488 0)
(-0.116554 -0.359224 0)
(-0.115616 -0.395757 0)
(-0.114579 -0.430714 0)
(-0.113475 -0.463777 0)
(-0.112317 -0.494632 0)
(-0.111128 -0.52303 0)
(-0.109928 -0.548785 0)
(-0.108729 -0.571777 0)
(-0.10754 -0.591956 0)
(-0.106371 -0.609335 0)
(-0.105229 -0.623989 0)
(-0.104118 -0.636044 0)
(-0.103043 -0.64567 0)
(-0.102006 -0.653069 0)
(-0.101008 -0.658469 0)
(-0.100049 -0.662112 0)
(-0.0991285 -0.664247 0)
(-0.0982451 -0.665121 0)
(-0.0973975 -0.664975 0)
(-0.096585 -0.664035 0)
(-0.121008 -0.361054 0)
(-0.120025 -0.397805 0)
(-0.118939 -0.43293 0)
(-0.117781 -0.466117 0)
(-0.116565 -0.497055 0)
(-0.115314 -0.5255 0)
(-0.11405 -0.551272 0)
(-0.112784 -0.574256 0)
(-0.111528 -0.594406 0)
(-0.110289 -0.61174 0)
(-0.109075 -0.626336 0)
(-0.107893 -0.638324 0)
(-0.106746 -0.647876 0)
(-0.105637 -0.655198 0)
(-0.104567 -0.66052 0)
(-0.103537 -0.664085 0)
(-0.102545 -0.666142 0)
(-0.101592 -0.666941 0)
(-0.100675 -0.666723 0)
(-0.0997955 -0.665713 0)
(-0.12548 -0.362973 0)
(-0.124447 -0.399953 0)
(-0.123308 -0.435255 0)
(-0.122092 -0.468573 0)
(-0.120814 -0.499601 0)
(-0.119498 -0.5281 0)
(-0.118165 -0.553894 0)
(-0.11683 -0.576874 0)
(-0.115501 -0.596998 0)
(-0.114189 -0.614289 0)
(-0.112901 -0.628829 0)
(-0.111643 -0.640751 0)
(-0.11042 -0.650231 0)
(-0.109235 -0.657476 0)
(-0.108089 -0.662719 0)
(-0.106984 -0.666204 0)
(-0.105918 -0.668183 0)
(-0.104891 -0.668904 0)
(-0.103902 -0.66861 0)
(-0.102951 -0.667527 0)
(-0.129957 -0.364981 0)
(-0.128873 -0.402202 0)
(-0.12768 -0.437693 0)
(-0.126404 -0.471151 0)
(-0.125062 -0.502276 0)
(-0.123678 -0.530835 0)
(-0.122274 -0.556657 0)
(-0.120865 -0.579638 0)
(-0.11946 -0.59974 0)
(-0.118071 -0.616991 0)
(-0.116704 -0.631477 0)
(-0.115367 -0.643335 0)
(-0.114064 -0.652742 0)
(-0.112798 -0.659911 0)
(-0.111573 -0.665074 0)
(-0.110388 -0.668478 0)
(-0.109243 -0.670376 0)
(-0.108139 -0.671018 0)
(-0.107074 -0.670646 0)
(-0.106049 -0.669486 0)
(-0.134458 -0.367087 0)
(-0.133319 -0.404561 0)
(-0.132065 -0.44025 0)
(-0.130725 -0.473858 0)
(-0.129314 -0.505089 0)
(-0.127856 -0.533715 0)
(-0.126377 -0.55957 0)
(-0.12489 -0.582556 0)
(-0.123405 -0.60264 0)
(-0.121933 -0.619854 0)
(-0.120483 -0.634288 0)
(-0.119062 -0.646082 0)
(-0.117674 -0.655418 0)
(-0.116324 -0.66251 0)
(-0.115014 -0.667592 0)
(-0.113746 -0.670914 0)
(-0.112518 -0.67273 0)
(-0.111332 -0.67329 0)
(-0.110186 -0.672837 0)
(-0.109082 -0.671597 0)
(-0.138965 -0.369295 0)
(-0.137769 -0.407036 0)
(-0.136456 -0.442934 0)
(-0.135049 -0.476702 0)
(-0.133566 -0.508047 0)
(-0.132033 -0.536747 0)
(-0.130474 -0.562642 0)
(-0.128904 -0.585638 0)
(-0.127334 -0.605708 0)
(-0.125775 -0.622888 0)
(-0.124237 -0.637272 0)
(-0.122727 -0.649004 0)
(-0.12125 -0.658269 0)
(-0.11981 -0.665283 0)
(-0.118411 -0.670285 0)
(-0.117054 -0.673523 0)
(-0.115738 -0.675254 0)
(-0.114466 -0.67573 0)
(-0.113235 -0.675192 0)
(-0.112048 -0.673868 0)
(-0.143502 -0.371611 0)
(-0.142244 -0.409631 0)
(-0.140863 -0.445752 0)
(-0.139384 -0.47969 0)
(-0.137823 -0.511158 0)
(-0.136209 -0.53994 0)
(-0.134565 -0.565882 0)
(-0.132907 -0.588894 0)
(-0.131246 -0.608953 0)
(-0.129596 -0.626102 0)
(-0.127964 -0.640439 0)
(-0.126359 -0.65211 0)
(-0.124788 -0.661305 0)
(-0.123253 -0.668242 0)
(-0.121759 -0.673161 0)
(-0.120308 -0.676314 0)
(-0.1189 -0.677958 0)
(-0.117536 -0.678346 0)
(-0.116215 -0.67772 0)
(-0.11494 -0.676309 0)
(-0.148047 -0.37404 0)
(-0.146727 -0.412356 0)
(-0.145279 -0.448712 0)
(-0.143725 -0.482831 0)
(-0.142083 -0.514433 0)
(-0.140382 -0.543305 0)
(-0.138649 -0.5693 0)
(-0.136898 -0.592333 0)
(-0.135142 -0.612387 0)
(-0.133394 -0.629509 0)
(-0.131663 -0.6438 0)
(-0.129958 -0.655412 0)
(-0.128286 -0.664537 0)
(-0.12665 -0.671396 0)
(-0.125056 -0.676232 0)
(-0.123505 -0.679299 0)
(-0.121999 -0.680853 0)
(-0.120538 -0.68115 0)
(-0.119122 -0.680433 0)
(-0.117753 -0.678929 0)
(-0.152626 -0.37659 0)
(-0.151236 -0.415217 0)
(-0.149713 -0.451822 0)
(-0.148077 -0.486135 0)
(-0.146349 -0.51788 0)
(-0.144556 -0.546852 0)
(-0.142727 -0.572907 0)
(-0.140877 -0.595968 0)
(-0.13902 -0.616021 0)
(-0.137167 -0.633119 0)
(-0.135331 -0.647367 0)
(-0.13352 -0.658921 0)
(-0.13174 -0.667977 0)
(-0.129999 -0.674758 0)
(-0.128298 -0.67951 0)
(-0.126641 -0.682488 0)
(-0.12503 -0.68395 0)
(-0.123466 -0.684153 0)
(-0.121949 -0.68334 0)
(-0.120482 -0.681739 0)
(-0.157218 -0.379268 0)
(-0.155757 -0.418224 0)
(-0.154158 -0.455092 0)
(-0.152438 -0.489612 0)
(-0.150618 -0.521511 0)
(-0.148728 -0.550592 0)
(-0.146798 -0.576715 0)
(-0.144843 -0.599809 0)
(-0.142877 -0.619867 0)
(-0.140915 -0.636945 0)
(-0.138966 -0.651153 0)
(-0.137042 -0.662651 0)
(-0.135149 -0.671638 0)
(-0.133294 -0.678341 0)
(-0.13148 -0.683007 0)
(-0.129711 -0.685894 0)
(-0.127989 -0.687262 0)
(-0.126316 -0.687366 0)
(-0.124691 -0.686453 0)
(-0.123119 -0.68475 0)
(-0.161847 -0.382081 0)
(-0.160308 -0.421384 0)
(-0.158624 -0.458532 0)
(-0.156812 -0.493272 0)
(-0.154894 -0.525338 0)
(-0.1529 -0.554536 0)
(-0.150862 -0.580737 0)
(-0.148795 -0.603871 0)
(-0.146714 -0.623939 0)
(-0.144634 -0.641 0)
(-0.142567 -0.655171 0)
(-0.140522 -0.666615 0)
(-0.138508 -0.675534 0)
(-0.136532 -0.682158 0)
(-0.134598 -0.686737 0)
(-0.13271 -0.689531 0)
(-0.13087 -0.6908 0)
(-0.12908 -0.690803 0)
(-0.127342 -0.689785 0)
(-0.125659 -0.687975 0)
(-0.166493 -0.385038 0)
(-0.164874 -0.424708 0)
(-0.163103 -0.462152 0)
(-0.161195 -0.497127 0)
(-0.159173 -0.529371 0)
(-0.15707 -0.558699 0)
(-0.154917 -0.584985 0)
(-0.152731 -0.608168 0)
(-0.150528 -0.628251 0)
(-0.148323 -0.6453 0)
(-0.146129 -0.659437 0)
(-0.143956 -0.670828 0)
(-0.141814 -0.679679 0)
(-0.139709 -0.686224 0)
(-0.137646 -0.690715 0)
(-0.135632 -0.693412 0)
(-0.133666 -0.694581 0)
(-0.131754 -0.694477 0)
(-0.129894 -0.69335 0)
(-0.128093 -0.691426 0)
(-0.17118 -0.388149 0)
(-0.169472 -0.428205 0)
(-0.167606 -0.465965 0)
(-0.165593 -0.50119 0)
(-0.16346 -0.533626 0)
(-0.16124 -0.563095 0)
(-0.158963 -0.589475 0)
(-0.156651 -0.612713 0)
(-0.154317 -0.632818 0)
(-0.151979 -0.64986 0)
(-0.14965 -0.663966 0)
(-0.147341 -0.675306 0)
(-0.145062 -0.68409 0)
(-0.14282 -0.690555 0)
(-0.140621 -0.694956 0)
(-0.138471 -0.697555 0)
(-0.136373 -0.698618 0)
(-0.134328 -0.698404 0)
(-0.13234 -0.697161 0)
(-0.130413 -0.695119 0)
(-0.175888 -0.391423 0)
(-0.174089 -0.431889 0)
(-0.172124 -0.469982 0)
(-0.170002 -0.505473 0)
(-0.167751 -0.538116 0)
(-0.165406 -0.567737 0)
(-0.162999 -0.594223 0)
(-0.160552 -0.617525 0)
(-0.158079 -0.637658 0)
(-0.1556 -0.654698 0)
(-0.153126 -0.668775 0)
(-0.150672 -0.680066 0)
(-0.148247 -0.688784 0)
(-0.145859 -0.695169 0)
(-0.143515 -0.699477 0)
(-0.141221 -0.701975 0)
(-0.13898 -0.702929 0)
(-0.136797 -0.7026 0)
(-0.134672 -0.701236 0)
(-0.132611 -0.699066 0)
(-0.180642 -0.394873 0)
(-0.178743 -0.435771 0)
(-0.176668 -0.474217 0)
(-0.174428 -0.509994 0)
(-0.17205 -0.542858 0)
(-0.169572 -0.572644 0)
(-0.167026 -0.599245 0)
(-0.164434 -0.622619 0)
(-0.161813 -0.642787 0)
(-0.159182 -0.65983 0)
(-0.156555 -0.673884 0)
(-0.153946 -0.685128 0)
(-0.151365 -0.69378 0)
(-0.148821 -0.700083 0)
(-0.146323 -0.704298 0)
(-0.143875 -0.706691 0)
(-0.141484 -0.707531 0)
(-0.139151 -0.707081 0)
(-0.13688 -0.705589 0)
(-0.134677 -0.703286 0)
(-0.185422 -0.398507 0)
(-0.183419 -0.439863 0)
(-0.181232 -0.478686 0)
(-0.178867 -0.514765 0)
(-0.176356 -0.547867 0)
(-0.173735 -0.577832 0)
(-0.171041 -0.604561 0)
(-0.168295 -0.628016 0)
(-0.165516 -0.648227 0)
(-0.162723 -0.665278 0)
(-0.159932 -0.679311 0)
(-0.157158 -0.690511 0)
(-0.154411 -0.699098 0)
(-0.151701 -0.705319 0)
(-0.149038 -0.709436 0)
(-0.146427 -0.711721 0)
(-0.143873 -0.712443 0)
(-0.141382 -0.711865 0)
(-0.138956 -0.710238 0)
(-0.136602 -0.707793 0)
(-0.190256 -0.402341 0)
(-0.188139 -0.444182 0)
(-0.185827 -0.483403 0)
(-0.183328 -0.519806 0)
(-0.180672 -0.553163 0)
(-0.177899 -0.583321 0)
(-0.175046 -0.610189 0)
(-0.172135 -0.633736 0)
(-0.169188 -0.653997 0)
(-0.166222 -0.671062 0)
(-0.163256 -0.685079 0)
(-0.160305 -0.696236 0)
(-0.15738 -0.704759 0)
(-0.154493 -0.710897 0)
(-0.151653 -0.714915 0)
(-0.148868 -0.717088 0)
(-0.146142 -0.717686 0)
(-0.143481 -0.716975 0)
(-0.14089 -0.715205 0)
(-0.138374 -0.712609 0)
(-0.195123 -0.406386 0)
(-0.192888 -0.448741 0)
(-0.190448 -0.488386 0)
(-0.187806 -0.525134 0)
(-0.184997 -0.558764 0)
(-0.182062 -0.589131 0)
(-0.179039 -0.616152 0)
(-0.175953 -0.639801 0)
(-0.172825 -0.66012 0)
(-0.169675 -0.677207 0)
(-0.166521 -0.691211 0)
(-0.163381 -0.702328 0)
(-0.160267 -0.710787 0)
(-0.15719 -0.716841 0)
(-0.154161 -0.720758 0)
(-0.151189 -0.722814 0)
(-0.148278 -0.723283 0)
(-0.145437 -0.722431 0)
(-0.142668 -0.72051 0)
(-0.139979 -0.717754 0)
(-0.200052 -0.410657 0)
(-0.197688 -0.453558 0)
(-0.195105 -0.493653 0)
(-0.19231 -0.530769 0)
(-0.189336 -0.564692 0)
(-0.186227 -0.595286 0)
(-0.183022 -0.622472 0)
(-0.179747 -0.646236 0)
(-0.176425 -0.666622 0)
(-0.173078 -0.683736 0)
(-0.169724 -0.697733 0)
(-0.166381 -0.708813 0)
(-0.163063 -0.717208 0)
(-0.159784 -0.723177 0)
(-0.156553 -0.726989 0)
(-0.15338 -0.728924 0)
(-0.150273 -0.729258 0)
(-0.147238 -0.728257 0)
(-0.14428 -0.726177 0)
(-0.141406 -0.72325 0)
(-0.205021 -0.41517 0)
(-0.202523 -0.458649 0)
(-0.199792 -0.499224 0)
(-0.196834 -0.536733 0)
(-0.193685 -0.57097 0)
(-0.19039 -0.601808 0)
(-0.18699 -0.629176 0)
(-0.183515 -0.653066 0)
(-0.179985 -0.673529 0)
(-0.176426 -0.690678 0)
(-0.172857 -0.704673 0)
(-0.169298 -0.715718 0)
(-0.165762 -0.724051 0)
(-0.162265 -0.729932 0)
(-0.158818 -0.733637 0)
(-0.155431 -0.735446 0)
(-0.152113 -0.735637 0)
(-0.148871 -0.73448 0)
(-0.14571 -0.73223 0)
(-0.14264 -0.729121 0)
(-0.210059 -0.419942 0)
(-0.207414 -0.464035 0)
(-0.204521 -0.50512 0)
(-0.201387 -0.543048 0)
(-0.198048 -0.577623 0)
(-0.194553 -0.608724 0)
(-0.190946 -0.63629 0)
(-0.187254 -0.660319 0)
(-0.183502 -0.680871 0)
(-0.179716 -0.698062 0)
(-0.175917 -0.71206 0)
(-0.172125 -0.723073 0)
(-0.168356 -0.731344 0)
(-0.164626 -0.737137 0)
(-0.160947 -0.740731 0)
(-0.157331 -0.742409 0)
(-0.153786 -0.74245 0)
(-0.150322 -0.741127 0)
(-0.146945 -0.738696 0)
(-0.143663 -0.735393 0)
(-0.215147 -0.424991 0)
(-0.212348 -0.469737 0)
(-0.209286 -0.511365 0)
(-0.205964 -0.549742 0)
(-0.202424 -0.584678 0)
(-0.198715 -0.616064 0)
(-0.194884 -0.643844 0)
(-0.190961 -0.668027 0)
(-0.186971 -0.688678 0)
(-0.182942 -0.70592 0)
(-0.178895 -0.719926 0)
(-0.174854 -0.730911 0)
(-0.170835 -0.739121 0)
(-0.166855 -0.744824 0)
(-0.162927 -0.748303 0)
(-0.159065 -0.749843 0)
(-0.155278 -0.749727 0)
(-0.151576 -0.748228 0)
(-0.147967 -0.745605 0)
(-0.14446 -0.742094 0)
(-0.220312 -0.430335 0)
(-0.217345 -0.475776 0)
(-0.214097 -0.517983 0)
(-0.210573 -0.556839 0)
(-0.206815 -0.592164 0)
(-0.202877 -0.623856 0)
(-0.198806 -0.651871 0)
(-0.194634 -0.676223 0)
(-0.190388 -0.696985 0)
(-0.186098 -0.714287 0)
(-0.181786 -0.728308 0)
(-0.177477 -0.739267 0)
(-0.173189 -0.747417 0)
(-0.168941 -0.753029 0)
(-0.164746 -0.756388 0)
(-0.16062 -0.757784 0)
(-0.156574 -0.757502 0)
(-0.152617 -0.755816 0)
(-0.148759 -0.752988 0)
(-0.14501 -0.749254 0)
(-0.225538 -0.435997 0)
(-0.222395 -0.482177 0)
(-0.21895 -0.525002 0)
(-0.215211 -0.564371 0)
(-0.211222 -0.600112 0)
(-0.207038 -0.632136 0)
(-0.202709 -0.660405 0)
(-0.19827 -0.684942 0)
(-0.19375 -0.705828 0)
(-0.189178 -0.7232 0)
(-0.184582 -0.737242 0)
(-0.179985 -0.74818 0)
(-0.175409 -0.75627 0)
(-0.170872 -0.761788 0)
(-0.16639 -0.765024 0)
(-0.161981 -0.766268 0)
(-0.157655 -0.76581 0)
(-0.153426 -0.763926 0)
(-0.1493 -0.760878 0)
(-0.145292 -0.756906 0)
(-0.230851 -0.442 0)
(-0.227517 -0.488967 0)
(-0.223858 -0.532451 0)
(-0.219886 -0.572368 0)
(-0.215646 -0.608557 0)
(-0.211198 -0.640938 0)
(-0.206592 -0.669483 0)
(-0.201866 -0.694223 0)
(-0.19705 -0.715248 0)
(-0.192177 -0.7327 0)
(-0.187274 -0.746771 0)
(-0.182368 -0.757692 0)
(-0.177481 -0.765723 0)
(-0.172634 -0.771145 0)
(-0.167845 -0.774251 0)
(-0.163131 -0.775336 0)
(-0.158505 -0.774691 0)
(-0.153982 -0.772596 0)
(-0.14957 -0.769314 0)
(-0.145284 -0.765085 0)
(-0.23624 -0.448367 0)
(-0.232702 -0.496175 0)
(-0.228818 -0.540363 0)
(-0.224597 -0.580867 0)
(-0.220089 -0.617536 0)
(-0.215356 -0.650302 0)
(-0.210453 -0.679147 0)
(-0.205418 -0.70411 0)
(-0.200285 -0.725289 0)
(-0.195087 -0.742833 0)
(-0.189854 -0.75694 0)
(-0.184615 -0.767847 0)
(-0.179394 -0.77582 0)
(-0.174213 -0.781144 0)
(-0.169092 -0.784115 0)
(-0.16405 -0.785032 0)
(-0.159102 -0.784189 0)
(-0.154263 -0.781868 0)
(-0.149543 -0.778334 0)
(-0.144958 -0.773829 0)
(-0.241728 -0.455127 0)
(-0.237971 -0.50383 0)
(-0.233839 -0.54877 0)
(-0.22935 -0.589903 0)
(-0.224553 -0.627089 0)
(-0.219514 -0.660271 0)
(-0.21429 -0.689441 0)
(-0.208923 -0.714649 0)
(-0.203447 -0.735997 0)
(-0.197899 -0.753646 0)
(-0.192311 -0.767798 0)
(-0.186713 -0.778696 0)
(-0.181132 -0.786611 0)
(-0.175591 -0.791834 0)
(-0.170113 -0.794664 0)
(-0.164718 -0.795404 0)
(-0.159423 -0.79435 0)
(-0.154244 -0.791787 0)
(-0.149193 -0.787983 0)
(-0.144288 -0.783181 0)
(-0.247306 -0.462307 0)
(-0.243314 -0.511966 0)
(-0.238921 -0.557711 0)
(-0.234144 -0.599518 0)
(-0.229036 -0.63726 0)
(-0.223668 -0.670891 0)
(-0.2181 -0.700414 0)
(-0.212374 -0.725888 0)
(-0.20653 -0.747426 0)
(-0.200605 -0.765192 0)
(-0.194633 -0.779398 0)
(-0.188649 -0.790292 0)
(-0.182679 -0.798151 0)
(-0.176751 -0.803269 0)
(-0.170887 -0.805952 0)
(-0.165112 -0.806504 0)
(-0.159442 -0.805225 0)
(-0.153897 -0.802403 0)
(-0.14849 -0.798308 0)
(-0.14324 -0.793185 0)
(-0.252998 -0.469939 0)
(-0.248752 -0.52062 0)
(-0.244074 -0.567226 0)
(-0.238985 -0.609756 0)
(-0.233543 -0.648095 0)
(-0.22782 -0.682212 0)
(-0.22188 -0.712119 0)
(-0.215768 -0.737885 0)
(-0.209525 -0.759631 0)
(-0.203194 -0.777529 0)
(-0.196809 -0.7918 0)
(-0.190407 -0.802695 0)
(-0.184018 -0.810499 0)
(-0.177671 -0.815509 0)
(-0.171392 -0.818036 0)
(-0.165205 -0.818388 0)
(-0.159132 -0.816869 0)
(-0.153192 -0.813769 0)
(-0.147401 -0.809361 0)
(-0.141779 -0.803892 0)
(-0.258795 -0.478057 0)
(-0.254278 -0.52983 0)
(-0.249297 -0.577358 0)
(-0.243875 -0.620664 0)
(-0.238072 -0.659648 0)
(-0.231967 -0.694289 0)
(-0.225625 -0.724613 0)
(-0.219097 -0.750697 0)
(-0.212425 -0.772673 0)
(-0.205654 -0.790721 0)
(-0.198822 -0.805066 0)
(-0.191969 -0.815969 0)
(-0.185127 -0.823718 0)
(-0.178328 -0.828618 0)
(-0.171599 -0.830981 0)
(-0.164969 -0.831121 0)
(-0.15846 -0.829345 0)
(-0.152094 -0.825946 0)
(-0.145888 -0.821199 0)
(-0.139865 -0.815355 0)
(-0.264722 -0.486699 0)
(-0.259912 -0.53964 0)
(-0.254601 -0.588156 0)
(-0.248818 -0.632296 0)
(-0.242627 -0.671973 0)
(-0.236108 -0.707181 0)
(-0.229334 -0.737957 0)
(-0.222355 -0.764391 0)
(-0.215219 -0.78662 0)
(-0.207973 -0.804835 0)
(-0.200658 -0.819268 0)
(-0.193317 -0.830185 0)
(-0.185985 -0.837881 0)
(-0.178696 -0.842665 0)
(-0.171481 -0.844856 0)
(-0.164371 -0.84477 0)
(-0.157391 -0.842718 0)
(-0.150564 -0.838997 0)
(-0.14391 -0.833885 0)
(-0.137455 -0.827634 0)
(-0.270773 -0.495902 0)
(-0.26565 -0.550094 0)
(-0.259986 -0.59967 0)
(-0.253815 -0.644706 0)
(-0.247205 -0.685131 0)
(-0.240241 -0.720953 0)
(-0.232999 -0.752222 0)
(-0.225535 -0.779037 0)
(-0.217897 -0.801546 0)
(-0.210136 -0.819948 0)
(-0.202299 -0.834481 0)
(-0.194429 -0.84542 0)
(-0.186565 -0.853065 0)
(-0.178746 -0.85773 0)
(-0.171005 -0.859738 0)
(-0.163375 -0.85941 0)
(-0.155884 -0.857062 0)
(-0.148559 -0.852993 0)
(-0.141421 -0.847486 0)
(-0.134498 -0.840794 0)
(-0.276977 -0.505712 0)
(-0.271512 -0.561244 0)
(-0.265466 -0.611958 0)
(-0.258875 -0.657958 0)
(-0.251811 -0.69919 0)
(-0.244366 -0.735676 0)
(-0.236618 -0.767481 0)
(-0.228627 -0.794713 0)
(-0.220445 -0.817532 0)
(-0.212127 -0.836142 0)
(-0.203723 -0.850791 0)
(-0.19528 -0.861761 0)
(-0.186841 -0.869356 0)
(-0.178447 -0.873896 0)
(-0.170134 -0.875711 0)
(-0.16194 -0.875126 0)
(-0.153896 -0.872459 0)
(-0.14603 -0.868014 0)
(-0.138368 -0.862077 0)
(-0.13094 -0.854905 0)
(-0.283328 -0.516175 0)
(-0.277498 -0.573143 0)
(-0.27104 -0.625079 0)
(-0.263997 -0.672118 0)
(-0.256445 -0.714221 0)
(-0.248479 -0.751428 0)
(-0.240183 -0.783816 0)
(-0.231621 -0.811506 0)
(-0.22285 -0.834665 0)
(-0.213928 -0.853509 0)
(-0.204909 -0.868291 0)
(-0.195843 -0.8793 0)
(-0.186779 -0.886848 0)
(-0.17776 -0.89126 0)
(-0.168827 -0.892869 0)
(-0.16002 -0.892007 0)
(-0.151375 -0.888996 0)
(-0.142924 -0.884144 0)
(-0.134693 -0.877741 0)
(-0.126717 -0.870045 0)
(-0.289855 -0.527343 0)
(-0.283628 -0.585852 0)
(-0.276723 -0.639102 0)
(-0.26919 -0.68726 0)
(-0.261108 -0.730305 0)
(-0.252577 -0.768294 0)
(-0.243688 -0.801318 0)
(-0.234508 -0.829509 0)
(-0.225097 -0.853045 0)
(-0.215518 -0.872149 0)
(-0.20583 -0.887083 0)
(-0.196088 -0.898143 0)
(-0.186343 -0.905646 0)
(-0.176644 -0.909924 0)
(-0.167036 -0.911316 0)
(-0.157564 -0.910156 0)
(-0.148265 -0.906773 0)
(-0.139177 -0.901479 0)
(-0.130328 -0.894567 0)
(-0.121759 -0.8863 0)
(-0.296554 -0.539271 0)
(-0.289901 -0.599435 0)
(-0.282516 -0.654098 0)
(-0.274455 -0.703463 0)
(-0.265799 -0.747528 0)
(-0.256657 -0.786367 0)
(-0.247124 -0.820085 0)
(-0.237271 -0.848826 0)
(-0.227165 -0.872778 0)
(-0.216872 -0.892173 0)
(-0.206456 -0.907282 0)
(-0.195977 -0.918404 0)
(-0.185491 -0.925866 0)
(-0.175052 -0.930005 0)