/*--------------------------------*- C++ -*----------------------------------*\
  =========                 |
  \\      /  F ield         | OpenFOAM: The Open Source CFD Toolbox
   \\    /   O peration     | Website:  https://openfoam.org
    \\  /    A nd           | Version:  6
     \\/     M anipulation  |
\*---------------------------------------------------------------------------*/
FoamFile
{
    version     2.0;
    format      ascii;
    class       volVectorField;
    location    "13";
    object      U;
}
// * * * * * * * * * * * * * * * * * * * * * * * * * * * * * * * * * * * * * //

dimensions      [0 1 -1 0 0 0 0];

internalField   nonuniform List<vector> 
10000
(
(-0.00469098 -3.31164 0)
(-0.00908807 -4.4124 0)
(-0.0138627 -4.89504 0)
(-0.015242 -5.16585 0)
(-0.0142534 -5.30808 0)
(-0.0124497 -5.37895 0)
(-0.0106324 -5.41246 0)
(-0.00901261 -5.42674 0)
(-0.0075503 -5.43123 0)
(-0.00619807 -5.43058 0)
(-0.00490927 -5.42663 0)
(-0.00363273 -5.41922 0)
(-0.00227764 -5.40615 0)
(-0.000647707 -5.38258 0)
(0.00142634 -5.33936 0)
(0.00403384 -5.25943 0)
(0.00650364 -5.11146 0)
(0.00743038 -4.84251 0)
(0.00570841 -4.36973 0)
(0.00417248 -3.29016 0)
(-0.00233518 -3.31226 0)
(-0.00211113 -4.40818 0)
(-0.00495998 -4.89539 0)
(-0.00658029 -5.16966 0)
(-0.00740197 -5.31373 0)
(-0.00740205 -5.38504 0)
(-0.00694031 -5.41824 0)
(-0.00626189 -5.43204 0)
(-0.00547612 -5.4361 0)
(-0.00466523 -5.43517 0)
(-0.00386568 -5.43112 0)
(-0.00309617 -5.42382 0)
(-0.00238677 -5.41113 0)
(-0.00169928 -5.38816 0)
(-0.00103843 -5.34556 0)
(-0.000383785 -5.26576 0)
(3.28607e-06 -5.11671 0)
(0.000325623 -4.84488 0)
(-0.000356178 -4.36795 0)
(0.00180991 -3.29065 0)
(-0.00322831 -3.30794 0)
(-0.00265735 -4.40287 0)
(-0.0028655 -4.89108 0)
(-0.00346747 -5.16665 0)
(-0.00399879 -5.31211 0)
(-0.00430118 -5.38435 0)
(-0.00437343 -5.41819 0)
(-0.00424635 -5.43239 0)
(-0.00394826 -5.43668 0)
(-0.00354657 -5.43584 0)
(-0.0031033 -5.43178 0)
(-0.00266385 -5.42439 0)
(-0.00227476 -5.4115 0)
(-0.00192093 -5.3882 0)
(-0.00156091 -5.34519 0)
(-0.0011728 -5.26506 0)
(-0.000669548 -5.1157 0)
(-7.82093e-06 -4.84337 0)
(0.000529245 -4.366 0)
(0.00149602 -3.28788 0)
(-0.00178996 -3.30254 0)
(-0.00148683 -4.39902 0)
(-0.0012165 -4.88784 0)
(-0.00123248 -5.16423 0)
(-0.00151567 -5.31051 0)
(-0.00189538 -5.38337 0)
(-0.00223048 -5.4177 0)
(-0.00244133 -5.43229 0)
(-0.00250516 -5.43686 0)
(-0.00244088 -5.43622 0)
(-0.00230253 -5.43227 0)
(-0.00211414 -5.42489 0)
(-0.00193413 -5.41193 0)
(-0.00176489 -5.38852 0)
(-0.00157599 -5.3455 0)
(-0.00137488 -5.26543 0)
(-0.00111934 -5.1161 0)
(-0.000760722 -4.84399 0)
(-0.000386097 -4.36704 0)
(9.46555e-05 -3.28596 0)
(-0.000612301 -3.29907 0)
(-0.000973638 -4.39797 0)
(-0.00130464 -4.88627 0)
(-0.00110343 -5.16254 0)
(-0.00117837 -5.30874 0)
(-0.00133296 -5.38193 0)
(-0.00155312 -5.41664 0)
(-0.00171223 -5.4316 0)
(-0.00178263 -5.4365 0)
(-0.0017428 -5.43611 0)
(-0.00162314 -5.43235 0)
(-0.00144891 -5.42505 0)
(-0.00124997 -5.41208 0)
(-0.00104068 -5.38858 0)
(-0.000846074 -5.34541 0)
(-0.000667901 -5.26539 0)
(-0.000447804 -5.1163 0)
(-0.000402223 -4.84355 0)
(-0.00067807 -4.36665 0)
(-0.000565435 -3.28688 0)
(0.000613391 -3.29934 0)
(-0.000294734 -4.39989 0)
(-0.00124393 -4.88735 0)
(-0.00154398 -5.16313 0)
(-0.0016986 -5.30894 0)
(-0.0017261 -5.38196 0)
(-0.0017048 -5.41665 0)
(-0.00164658 -5.43169 0)
(-0.0015464 -5.43672 0)
(-0.00138339 -5.43648 0)
(-0.00116665 -5.43283 0)
(-0.00089422 -5.42564 0)
(-0.000573579 -5.41276 0)
(-0.000230846 -5.38929 0)
(8.69894e-05 -5.34602 0)
(0.000243928 -5.26582 0)
(0.00028533 -5.11702 0)
(-3.87983e-07 -4.84486 0)
(-0.00100412 -4.3681 0)
(-0.0011244 -3.28803 0)
(0.000630489 -3.30195 0)
(-0.000298702 -4.40038 0)
(-0.000951733 -4.88816 0)
(-0.00165643 -5.16387 0)
(-0.0017395 -5.30967 0)
(-0.00172316 -5.38274 0)
(-0.00160949 -5.41745 0)
(-0.00145528 -5.43246 0)
(-0.00127504 -5.43746 0)
(-0.00105892 -5.43723 0)
(-0.000801549 -5.43363 0)
(-0.000502879 -5.42649 0)
(-0.000157239 -5.41364 0)
(0.000181521 -5.39018 0)
(0.000458265 -5.34679 0)
(0.000535281 -5.26632 0)
(0.000344992 -5.11719 0)
(-1.42554e-05 -4.84514 0)
(-0.000955844 -4.36869 0)
(-0.000637182 -3.29084 0)
(-0.000287577 -3.30266 0)
(-0.000203628 -4.39819 0)
(-0.000625208 -4.88723 0)
(-0.00122058 -5.16361 0)
(-0.00125928 -5.30964 0)
(-0.00122314 -5.38288 0)
(-0.00114016 -5.41778 0)
(-0.00102431 -5.43291 0)
(-0.000883796 -5.43801 0)
(-0.000711903 -5.43785 0)
(-0.000512535 -5.43433 0)
(-0.000274739 -5.42726 0)
(-8.70187e-06 -5.41449 0)
(0.000231881 -5.39101 0)
(0.000388199 -5.34749 0)
(0.000364969 -5.26678 0)
(0.000150191 -5.11716 0)
(-0.000316027 -4.84496 0)
(-0.000724739 -4.36857 0)
(-0.000141504 -3.29329 0)
(-0.0007168 -3.30091 0)
(9.58212e-06 -4.39611 0)
(-0.000488146 -4.88577 0)
(-0.000804602 -5.16245 0)
(-0.00102226 -5.30873 0)
(-0.00103243 -5.38236 0)
(-0.000972706 -5.41756 0)
(-0.000876283 -5.43294 0)
(-0.000760537 -5.43822 0)
(-0.000631439 -5.43817 0)
(-0.000487077 -5.43471 0)
(-0.000334811 -5.42769 0)
(-0.000187774 -5.41493 0)
(-5.30761e-05 -5.39143 0)
(-1.81521e-05 -5.34776 0)
(-0.000104093 -5.26658 0)
(-0.000350991 -5.11672 0)
(-0.000641189 -4.84447 0)
(-0.000382744 -4.36741 0)
(5.23478e-05 -3.29513 0)
(-0.000489534 -3.30025 0)
(-0.000243129 -4.39559 0)
(-0.000742626 -4.88489 0)
(-0.00104781 -5.16211 0)
(-0.00136293 -5.30862 0)
(-0.00137982 -5.38222 0)
(-0.00127256 -5.41754 0)
(-0.00110461 -5.43306 0)
(-0.000920843 -5.43841 0)
(-0.000742644 -5.43838 0)
(-0.000594925 -5.4349 0)
(-0.000475266 -5.42783 0)
(-0.00039694 -5.41497 0)
(-0.000336266 -5.39129 0)
(-0.000309168 -5.34728 0)
(-0.000345528 -5.26551 0)
(-0.000473223 -5.1149 0)
(-0.000382072 -4.84222 0)
(-6.97586e-05 -4.36541 0)
(0.000349441 -3.29469 0)
(-0.00033314 -3.30116 0)
(-0.000363131 -4.3954 0)
(-0.000622761 -4.88456 0)
(-0.00103547 -5.16206 0)
(-0.0014091 -5.30879 0)
(-0.00153 -5.38255 0)
(-0.0014413 -5.41794 0)
(-0.00122423 -5.4335 0)
(-0.000972775 -5.43884 0)
(-0.0007238 -5.43876 0)
(-0.000496756 -5.4352 0)
(-0.000308426 -5.42803 0)
(-0.000144006 -5.41504 0)
(1.59129e-05 -5.39125 0)
(0.0001987 -5.3471 0)
(0.000337438 -5.26501 0)
(0.000442844 -5.11394 0)
(0.00049511 -4.84113 0)
(0.000228461 -4.36466 0)
(-0.000450192 -3.29463 0)
(-0.000478802 -3.29992 0)
(-0.000399738 -4.39554 0)
(-0.000579104 -4.88482 0)
(-0.000847483 -5.16185 0)
(-0.00123012 -5.30883 0)
(-0.00140805 -5.38294 0)
(-0.00132883 -5.41849 0)
(-0.00111186 -5.4341 0)
(-0.000839974 -5.43944 0)
(-0.00055907 -5.43934 0)
(-0.000283158 -5.43576 0)
(-1.1037e-05 -5.42858 0)
(0.000274136 -5.41565 0)
(0.000565439 -5.39197 0)
(0.000902603 -5.34797 0)
(0.00120391 -5.26605 0)
(0.00135504 -5.11489 0)
(0.00132491 -4.84186 0)
(0.000604207 -4.36563 0)
(-0.00115603 -3.295 0)
(-0.000722368 -3.29978 0)
(-0.000267065 -4.39567 0)
(-0.000392796 -4.88422 0)
(-0.000473274 -5.16111 0)
(-0.000765921 -5.30855 0)
(-0.000909082 -5.38302 0)
(-0.000891917 -5.41884 0)
(-0.000764887 -5.4346 0)
(-0.000570493 -5.43999 0)
(-0.000349733 -5.43992 0)
(-0.000106609 -5.43638 0)
(0.000147479 -5.42928 0)
(0.00043687 -5.41645 0)
(0.000761325 -5.39292 0)
(0.00110656 -5.34901 0)
(0.00150083 -5.2671 0)
(0.00169233 -5.1157 0)
(0.00180272 -4.84236 0)
(0.00127379 -4.36555 0)
(-0.000582059 -3.29377 0)
(-0.000523256 -3.2993 0)
(0.000287119 -4.39454 0)
(-2.16246e-05 -4.88289 0)
(-3.65003e-05 -5.15996 0)
(-0.000233699 -5.30781 0)
(-0.000411671 -5.38274 0)
(-0.000460796 -5.41893 0)
(-0.000425755 -5.43486 0)
(-0.000316514 -5.44034 0)
(-0.000162015 -5.44034 0)
(2.24847e-05 -5.43686 0)
(0.000229878 -5.4298 0)
(0.000463107 -5.41702 0)
(0.000730029 -5.3936 0)
(0.00104459 -5.34979 0)
(0.00140823 -5.26786 0)
(0.00173475 -5.11625 0)
(0.00198676 -4.84225 0)
(0.00189532 -4.36476 0)
(-0.000101301 -3.29135 0)
(0.00111369 -3.30018 0)
(0.000676701 -4.39534 0)
(5.47944e-05 -4.88295 0)
(-0.000134409 -5.15967 0)
(-0.000297654 -5.30776 0)
(-0.000365469 -5.38287 0)
(-0.000348391 -5.41912 0)
(-0.000289933 -5.43514 0)
(-0.000190112 -5.44068 0)
(-5.74935e-05 -5.44073 0)
(0.000107433 -5.43728 0)
(0.000276125 -5.43022 0)
(0.000448298 -5.41742 0)
(0.000637319 -5.39402 0)
(0.000844315 -5.35036 0)
(0.00105452 -5.26847 0)
(0.0014187 -5.11647 0)
(0.00158597 -4.84235 0)
(0.00215076 -4.36412 0)
(4.25577e-05 -3.28791 0)
(0.00167135 -3.30084 0)
(0.000312342 -4.39584 0)
(0.000290998 -4.88272 0)
(0.000198709 -5.15958 0)
(1.61975e-05 -5.30791 0)
(-3.90606e-05 -5.38314 0)
(-6.01771e-05 -5.41942 0)
(-4.88422e-05 -5.43544 0)
(7.93468e-06 -5.441 0)
(0.000101336 -5.44109 0)
(0.000223173 -5.43767 0)
(0.000366015 -5.43061 0)
(0.000514339 -5.41779 0)
(0.000655101 -5.39438 0)
(0.000804077 -5.35079 0)
(0.000956816 -5.26907 0)
(0.00127404 -5.11725 0)
(0.00139456 -4.84238 0)
(0.00207701 -4.36246 0)
(0.000358324 -3.28397 0)
(0.00115571 -3.30085 0)
(-0.000144113 -4.3958 0)
(-0.000158659 -4.88222 0)
(-7.66568e-06 -5.15892 0)
(7.2146e-05 -5.30759 0)
(0.00011165 -5.38307 0)
(0.000116243 -5.41941 0)
(0.00011481 -5.43549 0)
(0.000125916 -5.44116 0)
(0.000168542 -5.44133 0)
(0.000253139 -5.43798 0)
(0.000371921 -5.43099 0)
(0.000529917 -5.41829 0)
(0.000722212 -5.39497 0)
(0.000918727 -5.35149 0)
(0.00117023 -5.27003 0)
(0.00142328 -5.11855 0)
(0.00144826 -4.84368 0)
(0.00142081 -4.36329 0)
(0.000392838 -3.28293 0)
(0.00083331 -3.30071 0)
(0.000166919 -4.39719 0)
(-0.000132346 -4.88243 0)
(-9.67767e-05 -5.15844 0)
(1.60497e-05 -5.30726 0)
(6.64415e-05 -5.383 0)
(7.76455e-05 -5.41936 0)
(5.52001e-05 -5.43543 0)
(3.62608e-05 -5.44113 0)
(3.66889e-05 -5.44135 0)
(5.69927e-05 -5.43804 0)
(0.000107547 -5.43113 0)
(0.00018136 -5.41853 0)
(0.00027009 -5.39528 0)
(0.000353713 -5.3518 0)
(0.000491009 -5.2704 0)
(0.00053128 -5.11928 0)
(0.000583367 -4.84433 0)
(0.00100167 -4.36338 0)
(0.000372561 -3.28087 0)
(0.000490055 -3.29906 0)
(0.000341803 -4.39702 0)
(-6.6623e-05 -4.88247 0)
(-0.000287603 -5.1583 0)
(-0.000229559 -5.30703 0)
(-0.000205196 -5.3827 0)
(-0.000181735 -5.4191 0)
(-0.000179891 -5.43524 0)
(-0.000174789 -5.44099 0)
(-0.000159565 -5.44124 0)
(-0.000131586 -5.43793 0)
(-0.000112602 -5.431 0)
(-0.000106858 -5.41833 0)
(-0.000110473 -5.39498 0)
(-9.70823e-05 -5.35124 0)
(-4.07326e-05 -5.26944 0)
(6.47491e-05 -5.11785 0)
(0.00030281 -4.84255 0)
(0.000690403 -4.36147 0)
(0.000485337 -3.27709 0)
(0.000566851 -3.29928 0)
(0.000171768 -4.39633 0)
(-0.000223717 -4.88184 0)
(-0.000579496 -5.15788 0)
(-0.000725813 -5.30669 0)
(-0.000715646 -5.38242 0)
(-0.000675551 -5.41888 0)
(-0.000587056 -5.43512 0)
(-0.000480137 -5.44097 0)
(-0.000354271 -5.44128 0)
(-0.00022203 -5.43799 0)
(-8.23354e-05 -5.43104 0)
(4.70352e-05 -5.41834 0)
(0.000171794 -5.39492 0)
(0.000330948 -5.35113 0)
(0.00049302 -5.26926 0)
(0.000584728 -5.11735 0)
(0.000593288 -4.84182 0)
(-0.000189639 -4.36148 0)
(-0.000150241 -3.27586 0)
(0.000541389 -3.30118 0)
(0.000249359 -4.39642 0)
(-6.62761e-05 -4.88146 0)
(-0.000683014 -5.15806 0)
(-0.00105879 -5.30679 0)
(-0.00117074 -5.38246 0)
(-0.00116666 -5.41907 0)
(-0.00102367 -5.43544 0)
(-0.000829308 -5.4414 0)
(-0.000611971 -5.44175 0)
(-0.000378013 -5.43851 0)
(-0.000132611 -5.43157 0)
(0.000135675 -5.4189 0)
(0.000430073 -5.39561 0)
(0.000725099 -5.35199 0)
(0.000948793 -5.27031 0)
(0.000964641 -5.11841 0)
(0.000503591 -4.84283 0)
(-0.000704915 -4.36317 0)
(-0.000492321 -3.27787 0)
(0.000243335 -3.30355 0)
(0.000353155 -4.39612 0)
(0.000414088 -4.88174 0)
(-0.000316128 -5.15848 0)
(-0.00080686 -5.30684 0)
(-0.00112449 -5.38257 0)
(-0.00124648 -5.41942 0)
(-0.00118655 -5.43596 0)
(-0.00102913 -5.442 0)
(-0.000830532 -5.4424 0)
(-0.000620902 -5.43918 0)
(-0.000385445 -5.43228 0)
(-0.000135718 -5.41964 0)
(0.000113536 -5.39639 0)
(0.000336116 -5.35281 0)
(0.000430229 -5.27097 0)
(0.000346936 -5.11869 0)
(-0.000159367 -4.84283 0)
(-0.000743513 -4.36283 0)
(0.000350727 -3.27992 0)
(-0.00058098 -3.30493 0)
(0.000623454 -4.3955 0)
(0.000826624 -4.88109 0)
(0.000522526 -5.15773 0)
(-5.74486e-05 -5.30626 0)
(-0.000580972 -5.38229 0)
(-0.000893613 -5.41947 0)
(-0.00100998 -5.43624 0)
(-0.00099428 -5.44241 0)
(-0.000906465 -5.4429 0)
(-0.000773328 -5.43973 0)
(-0.000617131 -5.43285 0)
(-0.000454671 -5.42019 0)
(-0.000311186 -5.39684 0)
(-0.000235225 -5.35315 0)
(-0.000254986 -5.27095 0)
(-0.00041012 -5.11794 0)
(-0.000721078 -4.84156 0)
(-0.000898172 -4.36136 0)
(0.000780299 -3.28154 0)
(-0.000938686 -3.30487 0)
(0.000753642 -4.39596 0)
(0.000899179 -4.8807 0)
(0.000939588 -5.15674 0)
(0.000507721 -5.30546 0)
(-1.68713e-05 -5.38165 0)
(-0.000414656 -5.41905 0)
(-0.000669703 -5.43605 0)
(-0.000802273 -5.4424 0)
(-0.000847234 -5.44302 0)
(-0.000840053 -5.43995 0)
(-0.000792746 -5.43314 0)
(-0.000735777 -5.42049 0)
(-0.000703205 -5.39711 0)
(-0.000669348 -5.35338 0)
(-0.000669542 -5.27107 0)
(-0.000777656 -5.11786 0)
(-0.000962507 -4.84123 0)
(-0.00104413 -4.36134 0)
(0.000368435 -3.28349 0)
(-0.000272868 -3.30553 0)
(0.000690188 -4.39657 0)
(0.00103736 -4.88032 0)
(0.00136561 -5.15576 0)
(0.000993775 -5.30429 0)
(0.000516755 -5.38059 0)
(6.52844e-05 -5.41818 0)
(-0.000308669 -5.43539 0)
(-0.000579216 -5.44193 0)
(-0.000765035 -5.4427 0)
(-0.000886842 -5.43973 0)
(-0.000980948 -5.43301 0)
(-0.00107509 -5.4204 0)
(-0.00117535 -5.39701 0)
(-0.00126578 -5.35334 0)
(-0.00133195 -5.27121 0)
(-0.00134759 -5.11761 0)
(-0.00131078 -4.84034 0)
(-0.000980405 -4.36129 0)
(0.000422033 -3.28663 0)
(0.000733042 -3.3063 0)
(0.00103452 -4.39747 0)
(0.00114544 -4.87921 0)
(0.00129636 -5.15441 0)
(0.00102015 -5.30325 0)
(0.00063816 -5.37957 0)
(0.000226322 -5.4172 0)
(-0.000168653 -5.43452 0)
(-0.00048733 -5.44121 0)
(-0.000729431 -5.44212 0)
(-0.000920494 -5.43926 0)
(-0.00108075 -5.43259 0)
(-0.00124935 -5.41996 0)
(-0.00142597 -5.39654 0)
(-0.001576 -5.35287 0)
(-0.00164465 -5.2708 0)
(-0.00158437 -5.11721 0)
(-0.00139002 -4.83981 0)
(-0.000968071 -4.36099 0)
(0.000664103 -3.28751 0)
(0.00130467 -3.30749 0)
(0.00117852 -4.39789 0)
(0.000868366 -4.87889 0)
(0.000686258 -5.15381 0)
(0.000569077 -5.30247 0)
(0.00035378 -5.37878 0)
(6.93139e-05 -5.41645 0)
(-0.000212864 -5.43386 0)
(-0.000460826 -5.44061 0)
(-0.00066371 -5.44159 0)
(-0.000820791 -5.43877 0)
(-0.00096112 -5.43211 0)
(-0.00110331 -5.41948 0)
(-0.00124598 -5.39601 0)
(-0.00136333 -5.35228 0)
(-0.00136782 -5.27029 0)
(-0.00126789 -5.11684 0)
(-0.00111924 -4.83943 0)
(-0.000776416 -4.36114 0)
(0.000378481 -3.28784 0)
(0.00120743 -3.30957 0)
(0.00126951 -4.3993 0)
(0.00038386 -4.87932 0)
(0.000106332 -5.15367 0)
(-2.98015e-05 -5.30207 0)
(-0.000110916 -5.37843 0)
(-0.000201595 -5.41616 0)
(-0.000304398 -5.43357 0)
(-0.000402167 -5.44035 0)
(-0.00048358 -5.44136 0)
(-0.000545252 -5.43856 0)
(-0.000580147 -5.4319 0)
(-0.000607486 -5.41926 0)
(-0.000622044 -5.39575 0)
(-0.000636564 -5.35194 0)
(-0.000593826 -5.27011 0)
(-0.000476366 -5.11715 0)
(-0.000506362 -4.83975 0)
(-0.000348443 -4.3612 0)
(-0.000313102 -3.28811 0)
(0.000651351 -3.31147 0)
(0.00104116 -4.39953 0)
(0.000388378 -4.87945 0)
(8.30454e-06 -5.15396 0)
(-0.000161051 -5.30221 0)
(-0.000249949 -5.37839 0)
(-0.000285922 -5.41613 0)
(-0.000297692 -5.43358 0)
(-0.000283257 -5.4404 0)
(-0.000250131 -5.44145 0)
(-0.000197217 -5.4387 0)
(-0.000118816 -5.43208 0)
(-4.85518e-06 -5.41949 0)
(0.000139628 -5.39603 0)
(0.000252538 -5.35226 0)
(0.000331854 -5.27047 0)
(0.000370475 -5.11798 0)
(0.000193548 -4.84089 0)
(-0.000255164 -4.36233 0)
(-0.000522449 -3.28959 0)
(-7.32099e-05 -3.31438 0)
(0.000786606 -4.3983 0)
(0.000484624 -4.87861 0)
(-5.57558e-05 -5.15376 0)
(-0.000132754 -5.30215 0)
(-0.00023028 -5.37827 0)
(-0.00026331 -5.41615 0)
(-0.00024187 -5.43376 0)
(-0.000176778 -5.44065 0)
(-8.32776e-05 -5.44173 0)
(2.02337e-05 -5.43903 0)
(0.000147264 -5.43246 0)
(0.000299587 -5.41993 0)
(0.000442336 -5.39652 0)
(0.000550347 -5.35272 0)
(0.000509836 -5.27089 0)
(0.000422983 -5.11866 0)
(0.000189054 -4.842 0)
(-8.71845e-05 -4.36294 0)
(-0.000133539 -3.29054 0)
(-0.000418048 -3.31539 0)
(0.000586468 -4.39631 0)
(0.000547217 -4.87817 0)
(8.32822e-05 -5.15347 0)
(-2.38051e-05 -5.30151 0)
(-0.000168281 -5.37785 0)
(-0.000233032 -5.416 0)
(-0.000221221 -5.43381 0)
(-0.00016657 -5.44084 0)
(-8.29201e-05 -5.44201 0)
(1.19074e-05 -5.43937 0)
(0.000104135 -5.43284 0)
(0.000204401 -5.42034 0)
(0.00028182 -5.39696 0)
(0.000316661 -5.35316 0)
(0.000226444 -5.27124 0)
(0.000118758 -5.11887 0)
(9.36394e-05 -4.84258 0)
(0.000223214 -4.3629 0)
(0.000524246 -3.29141 0)
(-0.000409775 -3.31627 0)
(0.000438398 -4.39509 0)
(0.000265482 -4.87723 0)
(3.19782e-05 -5.15247 0)
(-0.000221508 -5.30062 0)
(-0.000412684 -5.37731 0)
(-0.000491988 -5.41575 0)
(-0.000467357 -5.4338 0)
(-0.000404984 -5.44096 0)
(-0.000335736 -5.44217 0)
(-0.000285845 -5.43952 0)
(-0.00025848 -5.43297 0)
(-0.00026916 -5.42042 0)
(-0.000320962 -5.39701 0)
(-0.000405993 -5.35318 0)
(-0.000519165 -5.27107 0)
(-0.000659802 -5.1185 0)
(-0.000286791 -4.84281 0)
(0.000289508 -4.36344 0)
(0.00125111 -3.29081 0)
(9.94144e-05 -3.31882 0)
(0.000755568 -4.39634 0)
(-6.50294e-06 -4.87812 0)
(-0.000418443 -5.15303 0)
(-0.000733851 -5.30087 0)
(-0.000872445 -5.37763 0)
(-0.000883606 -5.41611 0)
(-0.000785049 -5.4341 0)
(-0.00067535 -5.44118 0)
(-0.0005958 -5.44228 0)
(-0.000561463 -5.43947 0)
(-0.000593591 -5.43275 0)
(-0.000692695 -5.42005 0)
(-0.000841347 -5.39646 0)
(-0.000994055 -5.35246 0)
(-0.00109375 -5.27016 0)
(-0.00110242 -5.1174 0)
(-0.000469811 -4.84162 0)
(0.000299913 -4.36225 0)
(0.00108465 -3.28835 0)
(-0.000225998 -3.32073 0)
(0.000401128 -4.39627 0)
(0.000239386 -4.87819 0)
(2.80071e-05 -5.15306 0)
(-0.000258657 -5.301 0)
(-0.000415519 -5.37791 0)
(-0.000503554 -5.41641 0)
(-0.000510061 -5.43432 0)
(-0.000477945 -5.4413 0)
(-0.000444331 -5.44228 0)
(-0.000430708 -5.43935 0)
(-0.000449813 -5.4325 0)
(-0.000511195 -5.41965 0)
(-0.000591121 -5.39594 0)
(-0.000649597 -5.35186 0)
(-0.000631012 -5.2697 0)
(-0.000447084 -5.11723 0)
(1.45105e-05 -4.84187 0)
(0.000222867 -4.363 0)
(-0.000343812 -3.28603 0)
(-4.51153e-05 -3.3188 0)
(-0.000275291 -4.39348 0)
(5.90233e-05 -4.87599 0)
(0.000337212 -5.1511 0)
(0.000201527 -5.29945 0)
(0.000118023 -5.3769 0)
(-2.4982e-05 -5.41577 0)
(-0.000144529 -5.43391 0)
(-0.000217667 -5.44106 0)
(-0.000242376 -5.44215 0)
(-0.000229146 -5.43931 0)
(-0.000195618 -5.43252 0)
(-0.000164882 -5.41973 0)
(-0.000110542 -5.39612 0)
(-6.78441e-05 -5.3522 0)
(2.23287e-06 -5.27024 0)
(0.000114112 -5.11826 0)
(0.000291466 -4.8436 0)
(0.000204316 -4.36507 0)
(-0.00127275 -3.28649 0)
(0.00161705 -3.31719 0)
(-0.00056427 -4.39354 0)
(-0.000466303 -4.87481 0)
(-0.000383458 -5.15 0)
(-0.000436847 -5.29856 0)
(-0.000415047 -5.37612 0)
(-0.000430608 -5.41519 0)
(-0.000464228 -5.43353 0)
(-0.000476977 -5.44083 0)
(-0.000450008 -5.44207 0)
(-0.000392883 -5.43936 0)
(-0.000300996 -5.43269 0)
(-0.000195709 -5.41998 0)
(-7.09231e-05 -5.39635 0)
(3.00289e-05 -5.35254 0)
(0.00014382 -5.2708 0)
(0.000175998 -5.11889 0)
(0.000323477 -4.84435 0)
(0.000317984 -4.36584 0)
(-0.000704594 -3.2857 0)
(0.00192733 -3.31843 0)
(-0.000756402 -4.3951 0)
(-0.00086492 -4.87566 0)
(-0.00119134 -5.15067 0)
(-0.00120904 -5.29923 0)
(-0.00114261 -5.3766 0)
(-0.0010515 -5.41549 0)
(-0.000955065 -5.43378 0)
(-0.000859659 -5.44109 0)
(-0.000751585 -5.44235 0)
(-0.00063131 -5.43964 0)
(-0.000504117 -5.43297 0)
(-0.000351709 -5.42025 0)
(-0.000195161 -5.39661 0)
(-4.96963e-05 -5.35268 0)
(0.000104119 -5.27076 0)
(0.000255438 -5.11885 0)
(0.000288045 -4.84432 0)
(0.000324014 -4.3657 0)
(-0.000200169 -3.28538 0)
(0.000804117 -3.31759 0)
(-0.00137075 -4.39527 0)
(-0.00100107 -4.87667 0)
(-0.00118476 -5.15166 0)
(-0.00115973 -5.30002 0)
(-0.00114152 -5.37723 0)
(-0.00109368 -5.41601 0)
(-0.00101717 -5.43423 0)
(-0.000919117 -5.4415 0)
(-0.000806995 -5.44274 0)
(-0.000687962 -5.44002 0)
(-0.000555617 -5.43332 0)
(-0.000404384 -5.42061 0)
(-0.000247335 -5.39703 0)
(-8.33594e-05 -5.35307 0)
(3.60765e-05 -5.27111 0)
(0.000222665 -5.11935 0)
(0.000200974 -4.84493 0)
(0.000307994 -4.36564 0)
(-0.000259136 -3.28524 0)
(-0.000154189 -3.31608 0)
(-0.0016832 -4.39518 0)
(-0.000976658 -4.87702 0)
(-0.000851835 -5.15205 0)
(-0.000729184 -5.30053 0)
(-0.00073751 -5.3776 0)
(-0.000753567 -5.41623 0)
(-0.000760993 -5.43442 0)
(-0.000738674 -5.4417 0)
(-0.000687517 -5.44296 0)
(-0.000614093 -5.44025 0)
(-0.000525874 -5.43358 0)
(-0.000417457 -5.42087 0)
(-0.000304688 -5.3973 0)
(-0.000187016 -5.35343 0)
(-9.4999e-05 -5.27149 0)
(4.09745e-05 -5.11962 0)
(0.000166845 -4.84528 0)
(0.000418862 -4.36585 0)
(-0.000351142 -3.28532 0)
(-0.00055327 -3.3121 0)
(-0.00171962 -4.39502 0)
(-0.000749617 -4.87735 0)
(-0.000357294 -5.15209 0)
(-9.16943e-05 -5.3004 0)
(-0.000117158 -5.3774 0)
(-0.000199871 -5.41607 0)
(-0.000311583 -5.43427 0)
(-0.000392003 -5.44158 0)
(-0.000427917 -5.44288 0)
(-0.000429035 -5.4402 0)
(-0.000405652 -5.43354 0)
(-0.000371804 -5.42081 0)
(-0.000367408 -5.39718 0)
(-0.000359262 -5.35323 0)
(-0.000399264 -5.27127 0)
(-0.000343459 -5.11934 0)
(-0.000157636 -4.84501 0)
(0.000424345 -4.36559 0)
(-0.000391866 -3.28351 0)
(-0.000349545 -3.30757 0)
(-0.00146326 -4.39361 0)
(-0.0006896 -4.87683 0)
(-0.00018651 -5.15149 0)
(0.000102746 -5.29966 0)
(0.00012561 -5.37669 0)
(3.78474e-05 -5.41544 0)
(-6.14713e-05 -5.4338 0)
(-0.00015203 -5.44124 0)
(-0.000195839 -5.44266 0)
(-0.000192701 -5.44005 0)
(-0.000163096 -5.43341 0)
(-0.000118996 -5.42065 0)
(-0.000112094 -5.3969 0)
(-0.000134138 -5.35277 0)
(-0.000213509 -5.27072 0)
(-0.000205777 -5.11871 0)
(-0.000151976 -4.8443 0)
(0.000269537 -4.36472 0)
(-0.000327627 -3.28056 0)
(0.000380121 -3.30523 0)
(-0.000509416 -4.39441 0)
(-0.000829277 -4.87768 0)
(-0.000791948 -5.15204 0)
(-0.000583695 -5.29961 0)
(-0.000394628 -5.37651 0)
(-0.000309986 -5.41525 0)
(-0.000241609 -5.43363 0)
(-0.000203055 -5.44114 0)
(-0.00015737 -5.44266 0)
(-8.02658e-05 -5.44018 0)
(3.56132e-05 -5.43363 0)
(0.000181147 -5.42094 0)
(0.000341693 -5.39721 0)
(0.00047039 -5.35307 0)
(0.000531541 -5.27111 0)
(0.000501117 -5.11936 0)
(0.000215211 -4.84492 0)
(-0.00040278 -4.36577 0)
(-0.000571633 -3.28281 0)
(7.3991e-05 -3.30505 0)
(-6.8361e-05 -4.3951 0)
(-0.000464006 -4.87879 0)
(-0.000844693 -5.15287 0)
(-0.000811509 -5.30012 0)
(-0.000686909 -5.37699 0)
(-0.00055779 -5.41561 0)
(-0.000452939 -5.43389 0)
(-0.000372962 -5.44139 0)
(-0.000320974 -5.44291 0)
(-0.000269213 -5.44048 0)
(-0.000206531 -5.43403 0)
(-0.000133412 -5.42147 0)
(-3.66537e-05 -5.39793 0)
(3.20628e-05 -5.35398 0)
(5.46535e-05 -5.27196 0)
(-0.000152562 -5.12004 0)
(-0.000560787 -4.84599 0)
(-0.0008888 -4.36775 0)
(-0.000166366 -3.28672 0)
(-0.000715742 -3.30686 0)
(0.000199675 -4.39459 0)
(-0.000142593 -4.87843 0)
(-0.000581603 -5.15295 0)
(-0.000691819 -5.30057 0)
(-0.000678989 -5.37745 0)
(-0.000606614 -5.41601 0)
(-0.0005722 -5.43416 0)
(-0.000558768 -5.44154 0)
(-0.000588141 -5.44298 0)
(-0.000651326 -5.4405 0)
(-0.000743214 -5.43401 0)
(-0.000874269 -5.42141 0)
(-0.00101581 -5.39783 0)
(-0.00117726 -5.35382 0)
(-0.0012801 -5.27159 0)
(-0.00147497 -5.11931 0)
(-0.00155599 -4.84471 0)
(-0.000684389 -4.36614 0)
(0.000446753 -3.2878 0)
(-0.00133824 -3.30794 0)
(0.000439531 -4.39441 0)
(0.000318484 -4.87793 0)
(5.14159e-05 -5.15276 0)
(-0.000184492 -5.30067 0)
(-0.000311769 -5.37752 0)
(-0.000392177 -5.41601 0)
(-0.000482547 -5.43409 0)
(-0.000581994 -5.44135 0)
(-0.000700961 -5.44268 0)
(-0.0008449 -5.44006 0)
(-0.00103802 -5.43345 0)
(-0.00127039 -5.42068 0)
(-0.00151591 -5.39696 0)
(-0.00173494 -5.35279 0)
(-0.0018635 -5.27035 0)
(-0.00182154 -5.11797 0)
(-0.00143453 -4.84282 0)
(-0.000615242 -4.36422 0)
(0.000207276 -3.28768 0)
(-0.00172463 -3.30681 0)
(0.000478747 -4.39342 0)
(0.000499804 -4.87676 0)
(0.000610294 -5.15149 0)
(0.000341869 -5.29972 0)
(9.65974e-05 -5.37677 0)
(-0.000118753 -5.41537 0)
(-0.000316856 -5.43352 0)
(-0.000489094 -5.44084 0)
(-0.000650243 -5.44217 0)
(-0.000814051 -5.4395 0)
(-0.00098726 -5.4328 0)
(-0.00117095 -5.41998 0)
(-0.00134404 -5.39625 0)
(-0.00146333 -5.35211 0)
(-0.00150399 -5.26974 0)
(-0.00130409 -5.11745 0)
(-0.000867477 -4.8429 0)
(-0.000888145 -4.36564 0)
(-0.00063447 -3.28754 0)
(-0.000742352 -3.30634 0)
(0.000543147 -4.39308 0)
(0.000256407 -4.87551 0)
(0.000338192 -5.15019 0)
(0.00012206 -5.29863 0)
(-9.8092e-05 -5.37583 0)
(-0.000307655 -5.41457 0)
(-0.000477637 -5.43285 0)
(-0.000631537 -5.44029 0)
(-0.000764455 -5.44172 0)
(-0.000881188 -5.43911 0)
(-0.000972115 -5.43248 0)
(-0.00102721 -5.41977 0)
(-0.00105517 -5.39613 0)
(-0.00103676 -5.35215 0)
(-0.000980924 -5.2703 0)
(-0.000793721 -5.11883 0)
(-0.000711984 -4.84479 0)
(-0.000926849 -4.36781 0)
(-0.00152956 -3.28828 0)
(3.28348e-05 -3.30619 0)
(0.00052711 -4.39419 0)
(0.000211204 -4.87586 0)
(-0.000144314 -5.14984 0)
(-0.000441436 -5.29799 0)
(-0.000673951 -5.37523 0)
(-0.000831195 -5.41407 0)
(-0.000933819 -5.43251 0)
(-0.0010263 -5.44006 0)
(-0.00111152 -5.44154 0)
(-0.00117966 -5.43901 0)
(-0.00121725 -5.43247 0)
(-0.00121342 -5.41986 0)
(-0.00118366 -5.39634 0)
(-0.0011162 -5.35252 0)
(-0.00105053 -5.27094 0)
(-0.000863549 -5.11984 0)
(-0.000883556 -4.84619 0)
(-0.000723309 -4.3689 0)
(-0.000932622 -3.28995 0)
(-2.12221e-06 -3.3093 0)
(0.000723985 -4.39502 0)
(0.000242153 -4.87623 0)
(-0.000272021 -5.1498 0)
(-0.000839262 -5.29799 0)
(-0.00116094 -5.37536 0)
(-0.00130504 -5.41419 0)
(-0.00136858 -5.43254 0)
(-0.00143054 -5.44003 0)
(-0.00150133 -5.4415 0)
(-0.00157099 -5.43899 0)
(-0.00162604 -5.43249 0)
(-0.00164711 -5.41994 0)
(-0.00163495 -5.39655 0)
(-0.00158735 -5.35291 0)
(-0.00153942 -5.2714 0)
(-0.00131467 -5.12048 0)
(-0.00122275 -4.84735 0)
(-0.000885519 -4.36963 0)
(6.13464e-06 -3.29218 0)
(-0.000219734 -3.30871 0)
(0.000147183 -4.39525 0)
(0.000387911 -4.87621 0)
(0.000135143 -5.14922 0)
(-0.000455063 -5.29746 0)
(-0.000916398 -5.37499 0)
(-0.00120969 -5.41392 0)
(-0.00140871 -5.43228 0)
(-0.00158905 -5.43973 0)
(-0.00176821 -5.44118 0)
(-0.00195184 -5.43868 0)
(-0.00212992 -5.43221 0)
(-0.00229684 -5.41972 0)
(-0.00243255 -5.39641 0)
(-0.00251107 -5.35296 0)
(-0.00248381 -5.27162 0)
(-0.00228637 -5.12107 0)
(-0.00180789 -4.84842 0)
(-0.00105654 -4.37014 0)
(0.000133813 -3.29373 0)
(-0.000180619 -3.30791 0)
(-0.000132524 -4.39322 0)
(0.000427232 -4.87409 0)
(0.000407954 -5.14672 0)
(-5.21548e-05 -5.29528 0)
(-0.000555931 -5.37341 0)
(-0.000990507 -5.41269 0)
(-0.00135433 -5.43125 0)
(-0.00168999 -5.43881 0)
(-0.0020084 -5.44031 0)
(-0.00232389 -5.43782 0)
(-0.00264037 -5.43135 0)
(-0.00295864 -5.41886 0)
(-0.00324638 -5.39557 0)
(-0.00343675 -5.35217 0)
(-0.00339405 -5.27106 0)
(-0.00306301 -5.12064 0)
(-0.00214727 -4.84786 0)
(-0.000808064 -4.3698 0)
(2.09233e-05 -3.29344 0)
(0.000838882 -3.30696 0)
(0.00044927 -4.39403 0)
(0.00056454 -4.87368 0)
(0.000279165 -5.14557 0)
(-0.000342037 -5.29385 0)
(-0.000886651 -5.37203 0)
(-0.0013354 -5.41151 0)
(-0.00170261 -5.43024 0)
(-0.00202082 -5.43789 0)
(-0.002317 -5.43942 0)
(-0.00260749 -5.43691 0)
(-0.00290047 -5.43041 0)
(-0.00318893 -5.4179 0)
(-0.0034325 -5.39463 0)
(-0.00354958 -5.35137 0)
(-0.00347092 -5.27054 0)
(-0.00302362 -5.12072 0)
(-0.00204934 -4.84868 0)
(-0.000925907 -4.37107 0)
(-0.000706872 -3.29259 0)
(0.00194731 -3.31 0)
(0.000639732 -4.39586 0)
(0.000680942 -4.87478 0)
(0.000197549 -5.14622 0)
(-0.000483046 -5.29397 0)
(-0.00107514 -5.37186 0)
(-0.00154669 -5.41121 0)
(-0.00191103 -5.42984 0)
(-0.00220387 -5.43748 0)
(-0.00245882 -5.43899 0)
(-0.0026814 -5.43648 0)
(-0.00288351 -5.43001 0)
(-0.0030458 -5.41759 0)
(-0.00316102 -5.39451 0)
(-0.00317336 -5.3516 0)
(-0.00303325 -5.27147 0)
(-0.00268851 -5.12243 0)
(-0.0019103 -4.85129 0)
(-0.00111328 -4.37477 0)
(-0.00135923 -3.29277 0)
(0.00169866 -3.3117 0)
(0.000472518 -4.39555 0)
(0.000900276 -4.87383 0)
(0.000952449 -5.14518 0)
(0.000383762 -5.29302 0)
(-0.000273557 -5.37097 0)
(-0.000937422 -5.41042 0)
(-0.00152233 -5.42912 0)
(-0.00200189 -5.43686 0)
(-0.00239608 -5.43849 0)
(-0.00270928 -5.43611 0)
(-0.00294756 -5.42979 0)
(-0.00309923 -5.41763 0)
(-0.00315931 -5.39491 0)
(-0.00313519 -5.35241 0)
(-0.00296307 -5.2729 0)
(-0.00261636 -5.1247 0)
(-0.00208359 -4.85442 0)
(-0.00117847 -4.37876 0)
(-0.000998367 -3.29633 0)
(0.00139298 -3.30923 0)
(0.000365104 -4.39488 0)
(0.00109089 -4.87202 0)
(0.00144456 -5.14271 0)
(0.00109117 -5.2906 0)
(0.000333908 -5.36868 0)
(-0.000484025 -5.40843 0)
(-0.00127117 -5.42748 0)
(-0.0019597 -5.43552 0)
(-0.00253766 -5.43743 0)
(-0.00301547 -5.43529 0)
(-0.00340508 -5.42921 0)
(-0.00371871 -5.41726 0)
(-0.00393892 -5.39483 0)
(-0.00409518 -5.35269 0)
(-0.00409354 -5.27362 0)
(-0.00381108 -5.12625 0)
(-0.00303192 -4.85704 0)
(-0.00126421 -4.3813 0)
(2.89889e-07 -3.29828 0)
(0.00221172 -3.30913 0)
(0.000688235 -4.39712 0)
(0.00101352 -4.87294 0)
(0.00110354 -5.14215 0)
(0.000772804 -5.28934 0)
(2.53074e-05 -5.36699 0)
(-0.00076447 -5.40657 0)
(-0.00155744 -5.42578 0)
(-0.00227398 -5.43402 0)
(-0.00290526 -5.43612 0)
(-0.00347216 -5.43413 0)
(-0.00397899 -5.42814 0)
(-0.00445008 -5.41627 0)
(-0.00486254 -5.39392 0)
(-0.00515649 -5.35186 0)
(-0.00520158 -5.27294 0)
(-0.00486218 -5.12614 0)
(-0.00358085 -4.85806 0)
(-0.00147958 -4.38291 0)
(0.000620075 -3.29834 0)
(0.00198735 -3.31187 0)
(0.000678283 -4.39974 0)
(0.0014463 -4.87431 0)
(0.00142046 -5.1426 0)
(0.000960149 -5.28884 0)
(0.000176238 -5.36575 0)
(-0.000711482 -5.40513 0)
(-0.0015615 -5.42434 0)
(-0.00231572 -5.43263 0)
(-0.0029875 -5.4348 0)
(-0.00358978 -5.43287 0)
(-0.00414619 -5.4269 0)
(-0.00466945 -5.41503 0)
(-0.00512262 -5.39271 0)
(-0.00542159 -5.35087 0)
(-0.00546552 -5.27243 0)
(-0.00509307 -5.12621 0)
(-0.00388142 -4.8591 0)
(-0.00220875 -4.38595 0)
(-0.000333808 -3.29958 0)
(0.00104828 -3.31275 0)
(0.000838073 -4.40054 0)
(0.00227401 -4.87483 0)
(0.00229907 -5.14202 0)
(0.00175127 -5.28729 0)
(0.000811988 -5.36388 0)
(-0.000208396 -5.40328 0)
(-0.00115868 -5.42267 0)
(-0.00199545 -5.43117 0)
(-0.00272648 -5.4335 0)
(-0.00336841 -5.43167 0)
(-0.00393126 -5.4258 0)
(-0.00443567 -5.41404 0)
(-0.00484932 -5.39189 0)
(-0.00512301 -5.35046 0)
(-0.00517361 -5.27279 0)
(-0.00487851 -5.12769 0)
(-0.00400567 -4.86183 0)
(-0.00267542 -4.3902 0)
(-0.00164181 -3.30207 0)
(0.00105148 -3.31376 0)
(0.00160521 -4.40323 0)
(0.00285133 -4.87618 0)
(0.00292805 -5.14164 0)
(0.0023587 -5.28568 0)