# vtk DataFile Version 2.0
track0
ASCII
DATASET POLYDATA
POINTS 12145 float
-0.0205 0.001 1e-05
-0.020489 0.0011 1e-05
-0.020478 0.00119999 1e-05
-0.0204668 0.00129996 1e-05
-0.0204555 0.00139992 1e-05
-0.020444 0.0015 1e-05
-0.0204325 0.0016 1e-05
-0.0204208 0.00169998 1e-05
-0.0204089 0.00179994 1e-05
-0.0203968 0.00189989 1e-05
-0.0203846 0.002 1e-05
-0.0203723 0.0021 1e-05
-0.0203597 0.00219998 1e-05
-0.020347 0.00229993 1e-05
-0.0203341 0.00239986 1e-05
-0.0203209 0.0025 1e-05
-0.0203138 0.00255334 1e-05
-0.0203066 0.00260668 1e-05
-0.0202994 0.00266001 1e-05
-0.0202921 0.00271333 1e-05
-0.0202854 0.00276222 1e-05
-0.0202788 0.00280977 1e-05
-0.0202721 0.00285732 1e-05
-0.0202654 0.00290487 1e-05
-0.0202587 0.0029524 1e-05
-0.0202519 0.003 1e-05
-0.0202375 0.0031 1e-05
-0.0202228 0.00319997 1e-05
-0.0202079 0.0032999 1e-05
-0.0201928 0.00339979 1e-05
-0.0201774 0.0035 1e-05
-0.0201618 0.0036 1e-05
-0.0201459 0.00369996 1e-05
-0.0201298 0.00379988 1e-05
-0.0201134 0.00389976 1e-05
-0.0200967 0.004 1e-05
-0.0200818 0.00408794 1e-05
-0.0200667 0.00417585 1e-05
-0.0200515 0.00426373 1e-05
-0.020036 0.00435156 1e-05
-0.0200223 0.00442786 1e-05
-0.0200197 0.00444229 1e-05
-0.0200171 0.00445672 1e-05
-0.0200145 0.00447114 1e-05
-0.0200118 0.00448557 1e-05
-0.0200092 0.0045 1e-05
-0.0199909 0.0046 1e-05
-0.0199724 0.00469995 1e-05
-0.0199535 0.00479985 1e-05
-0.0199344 0.00489969 1e-05
-0.0199149 0.005 1e-05
-0.0198952 0.0051 1e-05
-0.0198752 0.00519994 1e-05
-0.0198549 0.00529983 1e-05
-0.0198343 0.00539965 1e-05
-0.0198133 0.0055 1e-05
-0.0198029 0.00554892 1e-05
-0.0197924 0.00559783 1e-05
-0.0197819 0.00564672 1e-05
-0.0197713 0.0056956 1e-05
-0.0197614 0.00574123 1e-05
-0.01975 0.00579299 1e-05
-0.0197386 0.00584472 1e-05
-0.019727 0.00589644 1e-05
-0.0197154 0.00594814 1e-05
-0.0197037 0.006 1e-05
-0.0196809 0.0061 1e-05
-0.0196579 0.00619993 1e-05
-0.0196345 0.00629979 1e-05
-0.0196108 0.00639958 1e-05
-0.0195867 0.0065 1e-05
-0.0195699 0.00656913 1e-05
-0.0195529 0.00663821 1e-05
-0.0195357 0.00670727 1e-05
-0.0195185 0.00677628 1e-05
-0.0195025 0.00683946 1e-05
-0.0194943 0.00687157 1e-05
-0.0194861 0.00690367 1e-05
-0.0194779 0.00693576 1e-05
-0.0194696 0.00696784 1e-05
-0.0194613 0.007 1e-05
-0.0194353 0.0071 1e-05
-0.019409 0.00719992 1e-05
-0.0193824 0.00729975 1e-05
-0.0193555 0.00739951 1e-05
-0.019328 0.0075 1e-05
-0.0193115 0.00755944 1e-05
-0.019295 0.00761886 1e-05
-0.0192783 0.00767824 1e-05
-0.0192615 0.00773759 1e-05
-0.0192457 0.00779297 1e-05
-0.0192339 0.00783438 1e-05
-0.0192219 0.00787577 1e-05
-0.01921 0.00791714 1e-05
-0.0191979 0.0079585 1e-05
-0.0191858 0.008 1e-05
-0.0191564 0.0081 1e-05
-0.0191267 0.0081999 1e-05
-0.0190966 0.00829971 1e-05
-0.0190663 0.00839942 1e-05
-0.0190353 0.0085 1e-05
-0.0190264 0.0085284 1e-05
-0.0190176 0.00855679 1e-05
-0.0190087 0.00858517 1e-05
-0.0189997 0.00861354 1e-05
-0.018991 0.00864107 1e-05
-0.0189683 0.00871286 1e-05
-0.0189454 0.00878459 1e-05
-0.0189223 0.00885627 1e-05
-0.0188991 0.00892789 1e-05
-0.0188755 0.009 1e-05
-0.0188481 0.00908315 1e-05
-0.0188204 0.00916623 1e-05
-0.0187925 0.00924923 1e-05
-0.0187644 0.00933215 1e-05
-0.0187384 0.00940826 1e-05
-0.0187321 0.00942661 1e-05
-0.0187257 0.00944495 1e-05
-0.0187194 0.00946329 1e-05
-0.018713 0.00948163 1e-05
-0.0187066 0.0095 1e-05
-0.0186718 0.0096 1e-05
-0.0186366 0.00969988 1e-05
-0.0186011 0.00979964 1e-05
-0.0185652 0.00989928 1e-05
-0.0185286 0.01 1e-05
-0.0185204 0.0100222 1e-05
-0.0185122 0.0100444 1e-05
-0.0185041 0.0100666 1e-05
-0.0184958 0.0100888 1e-05
-0.0184878 0.0101105 1e-05
-0.0184588 0.0101884 1e-05
-0.0184296 0.0102662 1e-05
-0.0184002 0.010344 1e-05
-0.0183706 0.0104216 1e-05
-0.0183405 0.0105 1e-05
-0.0183203 0.0105523 1e-05
-0.0182999 0.0106046 1e-05
-0.0182794 0.0106569 1e-05
-0.0182589 0.0107091 1e-05
-0.0182392 0.0107589 1e-05
-0.01822 0.0108071 1e-05
-0.0182007 0.0108553 1e-05
-0.0181814 0.0109034 1e-05
-0.018162 0.0109516 1e-05
-0.0181423 0.011 1e-05
-0.0181124 0.0110735 1e-05
-0.0180822 0.0111468 1e-05
-0.0180519 0.0112201 1e-05
-0.0180214 0.0112934 1e-05
-0.0179926 0.0113619 1e-05
-0.0179809 0.0113896 1e-05
-0.0179692 0.0114172 1e-05
-0.0179575 0.0114447 1e-05
-0.0179457 0.0114723 1e-05
-0.0179339 0.0115 1e-05
-0.0178967 0.0115868 1e-05
-0.0178593 0.0116734 1e-05
-0.0178215 0.0117599 1e-05
-0.0177835 0.0118463 1e-05
-0.017748 0.0119265 1e-05
-0.0177414 0.0119412 1e-05
-0.0177348 0.0119559 1e-05
-0.0177282 0.0119706 1e-05
-0.0177217 0.0119853 1e-05
-0.017715 0.012 1e-05
-0.0176731 0.0120932 1e-05
-0.0176308 0.0121862 1e-05
-0.0175883 0.012279 1e-05
-0.0175454 0.0123717 1e-05
-0.0175053 0.0124575 1e-05
-0.0175013 0.012466 1e-05
-0.0174973 0.0124745 1e-05
-0.0174933 0.012483 1e-05
-0.0174893 0.0124915 1e-05
-0.0174853 0.0125 1e-05
-0.0174412 0.0125934 1e-05
-0.0173967 0.0126866 1e-05
-0.0173519 0.0127797 1e-05
-0.0173068 0.0128726 1e-05
-0.0172647 0.0129588 1e-05
-0.0172606 0.012967 1e-05
-0.0172565 0.0129753 1e-05
-0.0172524 0.0129835 1e-05
-0.0172484 0.0129917 1e-05
-0.0172443 0.013 1e-05
-0.0172006 0.0130881 1e-05
-0.0171566 0.0131761 1e-05
-0.0171124 0.0132639 1e-05
-0.0170678 0.0133516 1e-05
-0.0170259 0.0134334 1e-05
-0.017019 0.0134467 1e-05
-0.0170122 0.01346 1e-05
-0.0170053 0.0134734 1e-05
-0.0169984 0.0134867 1e-05
-0.0169915 0.0135 1e-05
-0.016951 0.0135779 1e-05
-0.0169103 0.0136557 1e-05
-0.0168693 0.0137334 1e-05
-0.0168282 0.0138109 1e-05
-0.0167891 0.013884 1e-05
-0.0167766 0.0139072 1e-05
-0.0167641 0.0139304 1e-05
-0.0167516 0.0139536 1e-05
-0.016739 0.0139767 1e-05
-0.0167264 0.014 1e-05
-0.0166919 0.0140633 1e-05
-0.0166573 0.0141265 1e-05
-0.0166226 0.0141896 1e-05
-0.0165877 0.0142526 1e-05
-0.0165542 0.0143128 1e-05
-0.0165332 0.0143502 1e-05
-0.0165122 0.0143876 1e-05
-0.0164911 0.014425 1e-05
-0.01647 0.0144624 1e-05
-0.0164486 0.0145 1e-05
-0.0164231 0.0145447 1e-05
-0.0163976 0.0145894 1e-05
-0.0163719 0.0146341 1e-05
-0.0163462 0.0146787 1e-05
-0.0163212 0.0147218 1e-05
-0.0162888 0.0147775 1e-05
-0.0162564 0.014833 1e-05
-0.0162238 0.0148885 1e-05
-0.016191 0.0149439 1e-05
-0.0161578 0.015 1e-05
-0.0161442 0.0150227 1e-05
-0.0161307 0.0150454 1e-05
-0.0161171 0.0150681 1e-05
-0.0161035 0.0150908 1e-05
-0.01609 0.0151132 1e-05
-0.0160442 0.0151893 1e-05
-0.0159981 0.0152653 1e-05
-0.0159518 0.0153411 1e-05
-0.0159052 0.0154168 1e-05
-0.0158607 0.0154886 1e-05
-0.0158593 0.0154909 1e-05
-0.0158579 0.0154932 1e-05
-0.0158565 0.0154954 1e-05
-0.0158551 0.0154977 1e-05
-0.0158536 0.0155 1e-05
-0.0158096 0.0155706 1e-05
-0.0157653 0.0156411 1e-05
-0.0157208 0.0157115 1e-05
-0.0156762 0.0157818 1e-05
-0.0156333 0.0158487 1e-05
-0.0156138 0.015879 1e-05
-0.0155943 0.0159092 1e-05
-0.0155748 0.0159394 1e-05
-0.0155552 0.0159696 1e-05
-0.0155354 0.016 1e-05
-0.0155099 0.0160391 1e-05
-0.0154843 0.0160783 1e-05
-0.0154586 0.0161173 1e-05
-0.0154329 0.0161564 1e-05
-0.0154077 0.0161944 1e-05
-0.0153671 0.0162555 1e-05
-0.0153264 0.0163165 1e-05
-0.0152855 0.0163774 1e-05
-0.0152445 0.0164383 1e-05
-0.0152026 0.0165 1e-05
-0.0151989 0.0165055 1e-05
-0.0151951 0.0165109 1e-05
-0.0151914 0.0165164 1e-05
-0.0151877 0.0165219 1e-05
-0.0151839 0.0165273 1e-05
-0.0151395 0.0165923 1e-05
-0.015095 0.0166571 1e-05
-0.0150502 0.0167218 1e-05
-0.0150053 0.0167863 1e-05
-0.0149619 0.0168483 1e-05
-0.0149406 0.0168786 1e-05
-0.0149192 0.0169089 1e-05
-0.0148978 0.0169392 1e-05
-0.0148763 0.0169695 1e-05
-0.0148546 0.017 1e-05
-0.0148321 0.0170317 1e-05
-0.0148094 0.0170633 1e-05
-0.0147868 0.0170949 1e-05
-0.0147641 0.0171265 1e-05
-0.0147417 0.0171574 1e-05
-0.0146981 0.0172179 1e-05
-0.0146542 0.0172782 1e-05
-0.0146102 0.0173384 1e-05
-0.0145661 0.0173985 1e-05
-0.0145233 0.0174564 1e-05
-0.0145169 0.0174651 1e-05
-0.0145104 0.0174738 1e-05
-0.0145039 0.0174825 1e-05
-0.0144974 0.0174913 1e-05
-0.0144909 0.0175 1e-05
-0.014454 0.0175495 1e-05
-0.0144171 0.0175988 1e-05
-0.01438 0.0176481 1e-05
-0.0143429 0.0176973 1e-05
-0.0143067 0.0177451 1e-05
-0.0142679 0.0177961 1e-05
-0.0142289 0.017847 1e-05
-0.0141899 0.0178978 1e-05
-0.0141508 0.0179485 1e-05
-0.0141109 0.018 1e-05
-0.014107 0.0180049 1e-05
-0.0141032 0.0180098 1e-05
-0.0140994 0.0180147 1e-05
-0.0140956 0.0180196 1e-05
-0.0140917 0.0180245 1e-05
-0.0140491 0.0180792 1e-05
-0.0140063 0.0181337 1e-05
-0.0139635 0.0181882 1e-05
-0.0139204 0.0182425 1e-05
-0.0138786 0.0182952 1e-05
-0.0138458 0.0183362 1e-05
-0.0138131 0.0183771 1e-05
-0.0137802 0.0184179 1e-05
-0.0137473 0.0184587 1e-05
-0.0137138 0.0185 1e-05
-0.0137044 0.0185115 1e-05
-0.0136951 0.018523 1e-05
-0.0136858 0.0185344 1e-05
-0.0136764 0.0185459 1e-05
-0.0136671 0.0185573 1e-05
-0.0136251 0.0186086 1e-05
-0.0135831 0.0186599 1e-05
-0.0135409 0.018711 1e-05
-0.0134986 0.0187621 1e-05
-0.0134573 0.0188117 1e-05
-0.0134259 0.0188493 1e-05
-0.0133943 0.018887 1e-05
-0.0133627 0.0189245 1e-05
-0.0133311 0.018962 1e-05
-0.0132989 0.019 1e-05
-0.013289 0.0190117 1e-05
-0.013279 0.0190234 1e-05
-0.0132691 0.0190351 1e-05
-0.0132592 0.0190467 1e-05
-0.0132493 0.0190583 1e-05
-0.013208 0.0191067 1e-05
-0.0131666 0.019155 1e-05
-0.0131251 0.0192031 1e-05
-0.0130835 0.0192512 1e-05
-0.0130429 0.0192981 1e-05
-0.0130077 0.0193385 1e-05
-0.0129724 0.0193788 1e-05
-0.0129371 0.0194191 1e-05
-0.0129016 0.0194593 1e-05
-0.0128656 0.0195 1e-05
-0.0128601 0.0195062 1e-05
-0.0128546 0.0195124 1e-05
-0.0128491 0.0195186 1e-05
-0.0128436 0.0195248 1e-05
-0.0128381 0.019531 1e-05
-0.0127975 0.0195766 1e-05
-0.0127568 0.0196222 1e-05
-0.012716 0.0196677 1e-05
-0.0126751 0.0197132 1e-05
-0.012635 0.0197575 1e-05
-0.0125947 0.0198019 1e-05
-0.0125544 0.0198463 1e-05
-0.0125139 0.0198906 1e-05
-0.0124734 0.0199347 1e-05
-0.0124336 0.0199779 1e-05
-0.0124295 0.0199824 1e-05
-0.0124254 0.0199868 1e-05
-0.0124213 0.0199912 1e-05
-0.0124173 0.0199956 1e-05
-0.0124132 0.02 1e-05
-0.0123773 0.0200387 1e-05
-0.0123413 0.0200774 1e-05
-0.0123053 0.0201161 1e-05
-0.0122693 0.0201546 1e-05
-0.0122338 0.0201924 1e-05
-0.0121941 0.0202345 1e-05
[...]
POINT_DATA 12145
 FIELD attributes 2
p 1 12145 float
-0.00704799 -0.00774095 -0.00843272 -0.0091242 -0.00981561 -0.0105076 -0.0111884 -0.0118687 -0.0125485 -0.0132277 -0.0139076 -0.0145791 -0.0152503 -0.0159214 -0.0165924 -0.0172639 -0.0176196 -0.0179751 -0.0183305 -0.0186859 -0.0190117 -0.0193289 -0.019646 -0.019963 -0.02028 -0.0205972 -0.021258 -0.0219179 -0.0225776 -0.0232372 -0.0238987 -0.0245534 -0.0252078 -0.025862 -0.0265155 -0.0271713 -0.0277424 -0.0283132 -0.0288839 -0.0294544 -0.0299498 -0.0300437 -0.0301374 -0.0302311 -0.0303248 -0.0304184 -0.0310629 -0.0317068 -0.0323505 -0.032994 -0.0336403 -0.0342805 -0.0349202 -0.0355596 -0.0361985 -0.0368406 -0.0371519 -0.0374629 -0.0377738 -0.0380847 -0.0383748 -0.038704 -0.0390329 -0.0393618 -0.0396905 -0.0400202 -0.0406523 -0.041284 -0.0419152 -0.0425461 -0.0431809 -0.0436157 -0.0440501 -0.0444844 -0.0449186 -0.0453159 -0.0455178 -0.0457196 -0.0459213 -0.0461229 -0.0463249 -0.0469505 -0.0475755 -0.0482 -0.0488241 -0.0494528 -0.0498233 -0.0501935 -0.0505635 -0.0509334 -0.0512784 -0.0515362 -0.0517938 -0.0520513 -0.0523087 -0.0525669 -0.0531871 -0.0538066 -0.0544257 -0.0550442 -0.0556682 -0.0558439 -0.0560195 -0.0561951 -0.0563706 -0.0565408 -0.0569841 -0.0574269 -0.0578695 -0.0583117 -0.0587569 -0.0592693 -0.0597811 -0.0602926 -0.0608036 -0.0612725 -0.0613854 -0.0614981 -0.0616109 -0.0617236 -0.0618364 -0.0624501 -0.063063 -0.0636753 -0.064287 -0.0649052 -0.0650414 -0.0651776 -0.0653137 -0.0654498 -0.065583 -0.0660594 -0.0665351 -0.0670105 -0.0674853 -0.0679645 -0.0682845 -0.0686041 -0.0689236 -0.0692429 -0.069547 -0.0698407 -0.0701342 -0.0704274 -0.0707205 -0.0710153 -0.0714629 -0.07191 -0.0723566 -0.0728028 -0.0732206 -0.0733881 -0.0735555 -0.0737228 -0.07389 -0.0740578 -0.0745847 -0.0751107 -0.075636 -0.0761606 -0.0766472 -0.076736 -0.0768247 -0.0769134 -0.0770021 -0.0770909 -0.0776546 -0.0782173 -0.0787791 -0.07934 -0.0798587 -0.0799098 -0.0799609 -0.080012 -0.080063 -0.0801141 -0.0806772 -0.0812392 -0.0818001 -0.08236 -0.0828789 -0.0829283 -0.0829776 -0.0830269 -0.0830761 -0.0831254 -0.0836546 -0.0841828 -0.08471 -0.0852362 -0.0857271 -0.0858063 -0.0858855 -0.0859647 -0.0860438 -0.0861232 -0.0865891 -0.0870541 -0.0875183 -0.0879815 -0.0884179 -0.0885553 -0.0886924 -0.0888295 -0.0889665 -0.089104 -0.0894806 -0.0898567 -0.0902321 -0.090607 -0.0909646 -0.0911847 -0.0914047 -0.0916244 -0.091844 -0.0920652 -0.09233 -0.0925946 -0.0928587 -0.0931226 -0.093378 -0.0937031 -0.0940275 -0.0943515 -0.0946749 -0.0950018 -0.0951355 -0.0952692 -0.0954028 -0.0955363 -0.0956678 -0.0961094 -0.09655 -0.0969896 -0.097428 -0.0978441 -0.097857 -0.09787 -0.097883 -0.0978961 -0.0979092 -0.0983166 -0.0987228 -0.0991281 -0.0995324 -0.0999174 -0.100088 -0.100259 -0.10043 -0.1006 -0.100772 -0.100995 -0.101219 -0.101442 -0.101664 -0.101881 -0.102223 -0.102565 -0.102905 -0.103245 -0.103589 -0.10362 -0.103651 -0.103682 -0.103713 -0.103744 -0.104104 -0.104463 -0.104821 -0.105178 -0.105521 -0.105685 -0.105848 -0.106012 -0.106175 -0.106339 -0.106512 -0.106685 -0.106858 -0.10703 -0.1072 -0.107521 -0.107842 -0.108161 -0.10848 -0.108788 -0.108833 -0.108878 -0.108923 -0.108968 -0.109013 -0.109273 -0.109533 -0.109791 -0.110049 -0.110299 -0.110557 -0.110815 -0.111071 -0.111327 -0.111587 -0.111611 -0.111637 -0.111662 -0.111687 -0.111713 -0.111985 -0.112257 -0.112528 -0.112798 -0.113059 -0.113254 -0.113449 -0.113643 -0.113837 -0.114033 -0.114089 -0.114145 -0.1142 -0.114256 -0.114311 -0.11455 -0.114789 -0.115027 -0.115264 -0.115495 -0.115661 -0.115827 -0.115993 -0.116158 -0.116324 -0.116376 -0.116429 -0.116482 -0.116534 -0.116587 -0.116793 -0.117001 -0.117208 -0.117414 -0.117615 -0.117776 -0.117938 -0.118099 -0.118259 -0.118422 -0.118448 -0.118473 -0.118499 -0.118524 -0.118549 -0.118726 -0.118903 -0.119079 -0.119254 -0.119425 -0.119583 -0.11974 -0.119896 -0.120051 -0.120203 -0.120218 -0.120232 -0.120247 -0.120261 -0.120275 -0.120407 -0.120538 -0.120669 -0.120799 -0.120927 -0.121053 -0.12118 -0.121305 -0.121433 -0.121558 -0.121611 -0.121664 -0.121716 -0.121769 -0.121823 -0.121883 -0.121942 -0.122001 -0.12206 -0.122118 -0.122215 -0.122313 -0.122412 -0.12251 -0.122605 -0.122686 -0.122765 -0.122844 -0.122922 -0.122998 -0.122999 -0.123 -0.123001 -0.123002 -0.123003 -0.123071 -0.12314 -0.123208 -0.123275 -0.123341 -0.12339 -0.123439 -0.123487 -0.123539 -0.123591 -0.123613 -0.123636 -0.123659 -0.123682 -0.123705 -0.123716 -0.123727 -0.123737 -0.123747 -0.123757 -0.123777 -0.1238 -0.123822 -0.123844 -0.123864 -0.123866 -0.123867 -0.123867 -0.12387 -0.123873 -0.123865 -0.123856 -0.123847 -0.123838 -0.123827 -0.123822 -0.123818 -0.123814 -0.12381 -0.123807 -0.123775 -0.12375 -0.123724 -0.123698 -0.123673 -0.123624 -0.123576 -0.123528 -0.123483 -0.123442 -0.123397 -0.123354 -0.12331 -0.123265 -0.123222 -0.123204 -0.123185 -0.123167 -0.123148 -0.123129 -0.123051 -0.122978 -0.122904 -0.122829 -0.122754 -0.122658 -0.12256 -0.122463 -0.122372 -0.12228 -0.12217 -0.122059 -0.121947 -0.121835 -0.12172 -0.121717 -0.121715 -0.121712 -0.12171 -0.121708 -0.121583 -0.121459 -0.121334 -0.121208 -0.121085 -0.120933 -0.120783 -0.120641 -0.120499 -0.12036 -0.120192 -0.120024 -0.119857 -0.119688 -0.119532 -0.119437 -0.119343 -0.119248 -0.119154 -0.119061 -0.118975 -0.118889 -0.118802 -0.118716 -0.118629 -0.118427 -0.118233 -0.118039 -0.117844 -0.11765 -0.117429 -0.117207 -0.116988 -0.116777 -0.116566 -0.116329 -0.11609 -0.11585 -0.11561 -0.115377 -0.1153 -0.115221 -0.115143 -0.115065 -0.114986 -0.11481 -0.114637 -0.114463 -0.114289 -0.114117 -0.113835 -0.113565 -0.113297 -0.113029 -0.112764 -0.112464 -0.112165 -0.111869 -0.111584 -0.111303 -0.110986 -0.11067 -0.110353 -0.110036 -0.109731 -0.109602 -0.109474 -0.109347 -0.10922 -0.109093 -0.108893 -0.108691 -0.10849 -0.108288 -0.108086 -0.107728 -0.107384 -0.107039 -0.106694 -0.10635 -0.105973 -0.105594 -0.105225 -0.104863 -0.104502 -0.104108 -0.103711 -0.103314 -0.102919 -0.10254 -0.102223 -0.101904 -0.101586 -0.101267 -0.100944 -0.100848 -0.100755 -0.100661 -0.100568 -0.100476 -0.100042 -0.0996153 -0.0991879 -0.0987601 -0.0983356 -0.0978688 -0.0974099 -0.0969651 -0.0965199 -0.0960787 -0.0955939 -0.0951101 -0.0946258 -0.0941618 -0.0937019 -0.0931985 -0.0926968 -0.0921947 -0.0916922 -0.091208 -0.0909464 -0.0906859 -0.0904252 -0.0901645 -0.0899037 -0.0896486 -0.0893919 -0.0891352 -0.0888783 -0.0886206 -0.088073 -0.08754 -0.0870067 -0.086473 -0.0859408 -0.0853658 -0.084792 -0.08424 -0.0836877 -0.0831357 -0.0825413 -0.0819459 -0.0813501 -0.0807776 -0.080209 -0.0795964 -0.0789818 -0.0783668 -0.0777514 -0.0771552 -0.0767769 -0.0763978 -0.0760185 -0.0756392 -0.0752573 -0.0750036 -0.074752 -0.0745003 -0.0742487 -0.0739994 -0.0733359 -0.0726871 -0.072038 -0.0713887 -0.0707422 -0.070043 -0.0693577 -0.0686909 -0.0680238 -0.0673605 -0.0666422 -0.0659247 -0.0652154 -0.064529 -0.0638451 -0.0631077 -0.0623724 -0.0616369 -0.0609066 -0.0602069 -0.0594511 -0.0586961 -0.0579408 -0.0571855 -0.0564348 -0.0563738 -0.0563156 -0.0562577 -0.0561997 -0.0561418 -0.0554324 -0.054723 -0.0540134 -0.0533037 -0.0525947 -0.0517739 -0.0509862 -0.0501984 -0.0494106 -0.0486214 -0.0477786 -0.0469356 -0.046128 -0.0453217 -0.0445153 -0.0436546 -0.0427919 -0.0419292 -0.0411014 -0.0402739 -0.0393911 -0.038508 -0.0376249 -0.0367421 -0.0358925 -0.0350998 -0.0343051 -0.0335105 -0.0327161 -0.0319229 -0.031815 -0.0317071 -0.0315993 -0.0314915 -0.0313841 -0.0304554 -0.0295339 -0.0286127 -0.0276918 -0.0267706 -0.0257878 -0.0248428 -0.023904 -0.0229654 -0.022024 -0.0210181 -0.0200141 -0.0190482 -0.0180889 -0.0171269 -0.0161042 -0.0150824 -0.0140613 -0.0130783 -0.0120971 -0.0110525 -0.0100099 -0.0089679 -0.00792667 -0.00691757 -0.00603805 -0.00515927 -0.00428109 -0.00340349 -0.00254033 -0.00235472 -0.00216899 -0.00198298 -0.001797 -0.00160999 -0.000520625 0.000559266 0.00163816 0.00271605 0.00380435 0.00495358 0.00606307 0.00716124 0.00825827 0.00936821 0.0105397 0.0117102 0.0128416 0.0139592 0.0150917 0.0162839 0.0174752 0.0186648 0.019818 0.0209731 0.0221875 0.0234006 0.0246118 0.0258212 0.0270199 0.027707 0.0283942 0.0290809 0.0297668 0.0304397 0.0309931 0.0315456 0.0320977 0.0326494 0.0332053 0.0344923 0.0357485 0.0370023 0.0382539 0.0395316 0.0408691 0.0421841 0.0434604 0.044734 0.0460382 0.0474005 0.0487592 0.0501061 0.0514029 0.0527341 0.0541209 0.0555043 0.0568841 0.0582606 0.0596252 0.0606501 0.0616727 0.0626933 0.063712 0.0646972 0.0650972 0.0654969 0.0658963 0.0662953 0.066698 0.0681583 0.0695921 0.0710219 0.0724476 0.0739239 0.0754512 0.0769579 0.0784156 0.079869 0.0813788 0.0829358 0.0844879 0.0860348 0.087528 0.0890724 0.0906606 0.0922436 0.0938211 0.095393 0.0970171 0.0973265 0.0976365 0.0979462 0.0982558 0.0985634 0.0998768 0.101186 0.102491 0.103792 0.105142 0.106861 0.108529 0.11017 0.111805 0.113522 0.11528 0.11703 0.118773 0.120451 0.122213 0.124014 0.125807 0.127591 0.129369 0.131242 0.131303 0.131364 0.131426 0.131487 0.131549 0.133335 0.135114 0.136885 0.138649 0.140514 0.142479 0.144431 0.146309 0.148178 0.150165 0.15216 0.154144 0.156119 0.158085 0.160121 0.160867 0.161613 0.162358 0.163101 0.163836 0.165143 0.166445 0.167742 0.169036 0.170385 0.172657 0.174887 0.177064 0.179229 0.181553 0.183916 0.186261 0.188594 0.190915 0.193343 0.194008 0.194669 0.19533 0.195989 0.196639 0.198323 0.199996 0.20166 0.203315 0.205091 0.207755 0.210404 0.213037 0.215656 0.218174 0.219111 0.220044 0.220975 0.221904 0.222875 0.225427 0.227958 0.230472 0.232969 0.235372 0.23666 0.237935 0.239204 0.240468 0.241824 0.243641 0.245434 0.247216 0.248988 0.250704 0.252449 0.254158 0.255848 0.257522 0.259423 0.260025 0.260599 0.26117 0.26174 0.262276 0.263548 0.264752 0.265933 0.267106 0.268188 0.26826 0.268295 0.268326 0.268355 0.268349 0.268236 0.268075 0.267903 0.26772 0.267493 0.266242 0.264933 0.263598 0.262254 0.260953 0.260381 0.259781 0.259179 0.258575 0.257892 0.25624 0.254556 0.252865 0.251166 0.249453 0.246513 0.243541 0.24059 0.237645 0.234701 0.231413 0.228102 0.224779 0.221445 0.218123 0.217617 0.217104 0.21659 0.216075 0.215529 0.212524 0.209507 0.206485 0.203458 0.200434 0.19689 0.193329 0.189758 0.186182 0.182611 0.179161 0.175702 0.172228 0.168726 0.165228 0.161949 0.158664 0.155374 0.152059 0.148702 0.14566 0.142612 0.139561 0.136505 0.133384 0.130919 0.128451 0.12598 0.123506 0.120156 0.120045 0.119934 0.119823 0.119712 0.119601 0.117172 0.114737 0.1123 0.10986 0.10742 0.105551 0.103524 0.101496 0.0994643 0.0974337 0.09629 0.0947207 0.0931486 0.0915739 0.0899999 0.0896005 0.0886723 0.0875931 0.0865112 0.0854305 0.0856415 0.0854151 0.0847595 0.084101 0.0834352 0.0838927 0.0840791 0.0835602 0.0830383 0.0824904 0.0824379 0.082282 0.0813072 0.0803288 0.0792862 0.0772856 0.075148 0.0726244 0.0700327 0.0673076 0.0609064 0.0542556 0.0478492 0.0415433 0.0349925 0.0207908 0.00620242 -0.00751275 -0.0206052 -0.0340797 -0.0598396 -0.0861238 -0.111089 -0.134727 -0.158886 -0.199269 -0.240261 -0.279847 -0.317619 -0.355999 -0.4115 -0.467577 -0.522613 -0.575887 -0.629741 -0.696911 -0.764493 -0.831733 -0.898012 -0.964711 -1.03776 -1.11101 -1.18437 -1.25868 -1.33322 -1.40794 -1.48272 -1.55751 -1.63537 -1.71395 -1.78705 -1.86004 -1.93303 -2.00885 -2.08757 -2.15077 -2.21352 -2.27628 -2.33976 -2.40853 -2.45401 -2.49904 -2.54409 -2.58916 -2.63739 -2.6703 -2.70319 -2.73613 -2.76912 -2.80281 -2.82372 -2.8443 -2.86493 -2.88562 -2.90585 -2.91382 -2.92178 -2.92978 -2.93784 -2.94585 -2.94835 -2.95081 -2.95331 -2.95587 -2.9584