# vtk DataFile Version 2.0
track0
ASCII
DATASET POLYDATA
POINTS 12145 float
-0.0205 0.001 1e-05
-0.020489 0.0011 1e-05
-0.020478 0.00119999 1e-05
-0.0204668 0.00129996 1e-05
-0.0204555 0.00139992 1e-05
-0.020444 0.0015 1e-05
-0.0204325 0.0016 1e-05
-0.0204208 0.00169998 1e-05
-0.0204089 0.00179994 1e-05
-0.0203968 0.00189989 1e-05
-0.0203846 0.002 1e-05
-0.0203723 0.0021 1e-05
-0.0203597 0.00219998 1e-05
-0.020347 0.00229993 1e-05
-0.0203341 0.00239986 1e-05
-0.0203209 0.0025 1e-05
-0.0203138 0.00255334 1e-05
-0.0203066 0.00260668 1e-05
-0.0202994 0.00266001 1e-05
-0.0202921 0.00271333 1e-05
-0.0202854 0.00276222 1e-05
-0.0202788 0.00280977 1e-05
-0.0202721 0.00285732 1e-05
-0.0202654 0.00290487 1e-05
-0.0202587 0.0029524 1e-05
-0.0202519 0.003 1e-05
-0.0202375 0.0031 1e-05
-0.0202228 0.00319997 1e-05
-0.0202079 0.0032999 1e-05
-0.0201928 0.00339979 1e-05
-0.0201774 0.0035 1e-05
-0.0201618 0.0036 1e-05
-0.0201459 0.00369996 1e-05
-0.0201298 0.00379988 1e-05
-0.0201134 0.00389976 1e-05
-0.0200967 0.004 1e-05
-0.0200818 0.00408794 1e-05
-0.0200667 0.00417585 1e-05
-0.0200515 0.00426373 1e-05
-0.020036 0.00435156 1e-05
-0.0200223 0.00442786 1e-05
-0.0200197 0.00444229 1e-05
-0.0200171 0.00445672 1e-05
-0.0200145 0.00447114 1e-05
-0.0200118 0.00448557 1e-05
-0.0200092 0.0045 1e-05
-0.0199909 0.0046 1e-05
-0.0199724 0.00469995 1e-05
-0.0199535 0.00479985 1e-05
-0.0199344 0.00489969 1e-05
-0.0199149 0.005 1e-05
-0.0198952 0.0051 1e-05
-0.0198752 0.00519994 1e-05
-0.0198549 0.00529983 1e-05
-0.0198343 0.00539965 1e-05
-0.0198133 0.0055 1e-05
-0.0198029 0.00554892 1e-05
-0.0197924 0.00559783 1e-05
-0.0197819 0.00564672 1e-05
-0.0197713 0.0056956 1e-05
-0.0197614 0.00574123 1e-05
-0.01975 0.00579299 1e-05
-0.0197386 0.00584472 1e-05
-0.019727 0.00589644 1e-05
-0.0197154 0.00594814 1e-05
-0.0197037 0.006 1e-05
-0.0196809 0.0061 1e-05
-0.0196579 0.00619993 1e-05
-0.0196345 0.00629979 1e-05
-0.0196108 0.00639958 1e-05
-0.0195867 0.0065 1e-05
-0.0195699 0.00656913 1e-05
-0.0195529 0.00663821 1e-05
-0.0195357 0.00670727 1e-05
-0.0195185 0.00677628 1e-05
-0.0195025 0.00683946 1e-05
-0.0194943 0.00687157 1e-05
-0.0194861 0.00690367 1e-05
-0.0194779 0.00693576 1e-05
-0.0194696 0.00696784 1e-05
-0.0194613 0.007 1e-05
-0.0194353 0.0071 1e-05
-0.019409 0.00719992 1e-05
-0.0193824 0.00729975 1e-05
-0.0193555 0.00739951 1e-05
-0.019328 0.0075 1e-05
-0.0193115 0.00755944 1e-05
-0.019295 0.00761886 1e-05
-0.0192783 0.00767824 1e-05
-0.0192615 0.00773759 1e-05
-0.0192457 0.00779297 1e-05
-0.0192339 0.00783438 1e-05
-0.0192219 0.00787577 1e-05
-0.01921 0.00791714 1e-05
-0.0191979 0.0079585 1e-05
-0.0191858 0.008 1e-05
-0.0191564 0.0081 1e-05
-0.0191267 0.0081999 1e-05
-0.0190966 0.00829971 1e-05
-0.0190663 0.00839942 1e-05
-0.0190353 0.0085 1e-05
-0.0190264 0.0085284 1e-05
-0.0190176 0.00855679 1e-05
-0.0190087 0.00858517 1e-05
-0.0189997 0.00861354 1e-05
-0.018991 0.00864107 1e-05
-0.0189683 0.00871286 1e-05
-0.0189454 0.00878459 1e-05
-0.0189223 0.00885627 1e-05
-0.0188991 0.00892789 1e-05
-0.0188755 0.009 1e-05
-0.0188481 0.00908315 1e-05
-0.0188204 0.00916623 1e-05
-0.0187925 0.00924923 1e-05
-0.0187644 0.00933215 1e-05
-0.0187384 0.00940826 1e-05
-0.0187321 0.00942661 1e-05
-0.0187257 0.00944495 1e-05
-0.0187194 0.00946329 1e-05
-0.018713 0.00948163 1e-05
-0.0187066 0.0095 1e-05
-0.0186718 0.0096 1e-05
-0.0186366 0.00969988 1e-05
-0.0186011 0.00979964 1e-05
-0.0185652 0.00989928 1e-05
-0.0185286 0.01 1e-05
-0.0185204 0.0100222 1e-05
-0.0185122 0.0100444 1e-05
-0.0185041 0.0100666 1e-05
-0.0184958 0.0100888 1e-05
-0.0184878 0.0101105 1e-05
-0.0184588 0.0101884 1e-05
-0.0184296 0.0102662 1e-05
-0.0184002 0.010344 1e-05
-0.0183706 0.0104216 1e-05
-0.0183405 0.0105 1e-05
-0.0183203 0.0105523 1e-05
-0.0182999 0.0106046 1e-05
-0.0182794 0.0106569 1e-05
-0.0182589 0.0107091 1e-05
-0.0182392 0.0107589 1e-05
-0.01822 0.0108071 1e-05
-0.0182007 0.0108553 1e-05
-0.0181814 0.0109034 1e-05
-0.018162 0.0109516 1e-05
-0.0181423 0.011 1e-05
-0.0181124 0.0110735 1e-05
-0.0180822 0.0111468 1e-05
-0.0180519 0.0112201 1e-05
-0.0180214 0.0112934 1e-05
-0.0179926 0.0113619 1e-05
-0.0179809 0.0113896 1e-05
-0.0179692 0.0114172 1e-05
-0.0179575 0.0114447 1e-05
-0.0179457 0.0114723 1e-05
-0.0179339 0.0115 1e-05
-0.0178967 0.0115868 1e-05
-0.0178593 0.0116734 1e-05
-0.0178215 0.0117599 1e-05
-0.0177835 0.0118463 1e-05
-0.017748 0.0119265 1e-05
-0.0177414 0.0119412 1e-05
-0.0177348 0.0119559 1e-05
-0.0177282 0.0119706 1e-05
-0.0177217 0.0119853 1e-05
-0.017715 0.012 1e-05
-0.0176731 0.0120932 1e-05
-0.0176308 0.0121862 1e-05
-0.0175883 0.012279 1e-05
-0.0175454 0.0123717 1e-05
-0.0175053 0.0124575 1e-05
-0.0175013 0.012466 1e-05
-0.0174973 0.0124745 1e-05
-0.0174933 0.012483 1e-05
-0.0174893 0.0124915 1e-05
-0.0174853 0.0125 1e-05
-0.0174412 0.0125934 1e-05
-0.0173967 0.0126866 1e-05
-0.0173519 0.0127797 1e-05
-0.0173068 0.0128726 1e-05
-0.0172647 0.0129588 1e-05
-0.0172606 0.012967 1e-05
-0.0172565 0.0129753 1e-05
-0.0172524 0.0129835 1e-05
-0.0172484 0.0129917 1e-05
-0.0172443 0.013 1e-05
-0.0172006 0.0130881 1e-05
-0.0171566 0.0131761 1e-05
-0.0171124 0.0132639 1e-05
-0.0170678 0.0133516 1e-05
-0.0170259 0.0134334 1e-05
-0.017019 0.0134467 1e-05
-0.0170122 0.01346 1e-05
-0.0170053 0.0134734 1e-05
-0.0169984 0.0134867 1e-05
-0.0169915 0.0135 1e-05
-0.016951 0.0135779 1e-05
-0.0169103 0.0136557 1e-05
-0.0168693 0.0137334 1e-05
-0.0168282 0.0138109 1e-05
-0.0167891 0.013884 1e-05
-0.0167766 0.0139072 1e-05
-0.0167641 0.0139304 1e-05
-0.0167516 0.0139536 1e-05
-0.016739 0.0139767 1e-05
-0.0167264 0.014 1e-05
-0.0166919 0.0140633 1e-05
-0.0166573 0.0141265 1e-05
-0.0166226 0.0141896 1e-05
-0.0165877 0.0142526 1e-05
-0.0165542 0.0143128 1e-05
-0.0165332 0.0143502 1e-05
-0.0165122 0.0143876 1e-05
-0.0164911 0.014425 1e-05
-0.01647 0.0144624 1e-05
-0.0164486 0.0145 1e-05
-0.0164231 0.0145447 1e-05
-0.0163976 0.0145894 1e-05
-0.0163719 0.0146341 1e-05
-0.0163462 0.0146787 1e-05
-0.0163212 0.0147218 1e-05
-0.0162888 0.0147775 1e-05
-0.0162564 0.014833 1e-05
-0.0162238 0.0148885 1e-05
-0.016191 0.0149439 1e-05
-0.0161578 0.015 1e-05
-0.0161442 0.0150227 1e-05
-0.0161307 0.0150454 1e-05
-0.0161171 0.0150681 1e-05
-0.0161035 0.0150908 1e-05
-0.01609 0.0151132 1e-05
-0.0160442 0.0151893 1e-05
-0.0159981 0.0152653 1e-05
-0.0159518 0.0153411 1e-05
-0.0159052 0.0154168 1e-05
-0.0158607 0.0154886 1e-05
-0.0158593 0.0154909 1e-05
-0.0158579 0.0154932 1e-05
-0.0158565 0.0154954 1e-05
-0.0158551 0.0154977 1e-05
-0.0158536 0.0155 1e-05
-0.0158096 0.0155706 1e-05
-0.0157653 0.0156411 1e-05
-0.0157208 0.0157115 1e-05
-0.0156762 0.0157818 1e-05
-0.0156333 0.0158487 1e-05
-0.0156138 0.015879 1e-05
-0.0155943 0.0159092 1e-05
-0.0155748 0.0159394 1e-05
-0.0155552 0.0159696 1e-05
-0.0155354 0.016 1e-05
-0.0155099 0.0160391 1e-05
-0.0154843 0.0160783 1e-05
-0.0154586 0.0161173 1e-05
-0.0154329 0.0161564 1e-05
-0.0154077 0.0161944 1e-05
-0.0153671 0.0162555 1e-05
-0.0153264 0.0163165 1e-05
-0.0152855 0.0163774 1e-05
-0.0152445 0.0164383 1e-05
-0.0152026 0.0165 1e-05
-0.0151989 0.0165055 1e-05
-0.0151951 0.0165109 1e-05
-0.0151914 0.0165164 1e-05
-0.0151877 0.0165219 1e-05
-0.0151839 0.0165273 1e-05
-0.0151395 0.0165923 1e-05
-0.015095 0.0166571 1e-05
-0.0150502 0.0167218 1e-05
-0.0150053 0.0167863 1e-05
-0.0149619 0.0168483 1e-05
-0.0149406 0.0168786 1e-05
-0.0149192 0.0169089 1e-05
-0.0148978 0.0169392 1e-05
-0.0148763 0.0169695 1e-05
-0.0148546 0.017 1e-05
-0.0148321 0.0170317 1e-05
-0.0148094 0.0170633 1e-05
-0.0147868 0.0170949 1e-05
-0.0147641 0.0171265 1e-05
-0.0147417 0.0171574 1e-05
-0.0146981 0.0172179 1e-05
-0.0146542 0.0172782 1e-05
-0.0146102 0.0173384 1e-05
-0.0145661 0.0173985 1e-05
-0.0145233 0.0174564 1e-05
-0.0145169 0.0174651 1e-05
-0.0145104 0.0174738 1e-05
-0.0145039 0.0174825 1e-05
-0.0144974 0.0174913 1e-05
-0.0144909 0.0175 1e-05
-0.014454 0.0175495 1e-05
-0.0144171 0.0175988 1e-05
-0.01438 0.0176481 1e-05
-0.0143429 0.0176973 1e-05
-0.0143067 0.0177451 1e-05
-0.0142679 0.0177961 1e-05
-0.0142289 0.017847 1e-05
-0.0141899 0.0178978 1e-05
-0.0141508 0.0179485 1e-05
-0.0141109 0.018 1e-05
-0.014107 0.0180049 1e-05
-0.0141032 0.0180098 1e-05
-0.0140994 0.0180147 1e-05
-0.0140956 0.0180196 1e-05
-0.0140917 0.0180245 1e-05
-0.0140491 0.0180792 1e-05
-0.0140063 0.0181337 1e-05
-0.0139635 0.0181882 1e-05
-0.0139204 0.0182425 1e-05
-0.0138786 0.0182952 1e-05
-0.0138458 0.0183362 1e-05
-0.0138131 0.0183771 1e-05
-0.0137802 0.0184179 1e-05
-0.0137473 0.0184587 1e-05
-0.0137138 0.0185 1e-05
-0.0137044 0.0185115 1e-05
-0.0136951 0.018523 1e-05
-0.0136858 0.0185344 1e-05
-0.0136764 0.0185459 1e-05
-0.0136671 0.0185573 1e-05
-0.0136251 0.0186086 1e-05
-0.0135831 0.0186599 1e-05
-0.0135409 0.018711 1e-05
-0.0134986 0.0187621 1e-05
-0.0134573 0.0188117 1e-05
-0.0134259 0.0188493 1e-05
-0.0133943 0.018887 1e-05
-0.0133627 0.0189245 1e-05
-0.0133311 0.018962 1e-05
-0.0132989 0.019 1e-05
-0.013289 0.0190117 1e-05
-0.013279 0.0190234 1e-05
-0.0132691 0.0190351 1e-05
-0.0132592 0.0190467 1e-05
-0.0132493 0.0190583 1e-05
-0.013208 0.0191067 1e-05
-0.0131666 0.019155 1e-05
-0.0131251 0.0192031 1e-05
-0.0130835 0.0192512 1e-05
-0.0130429 0.0192981 1e-05
-0.0130077 0.0193385 1e-05
-0.0129724 0.0193788 1e-05
-0.0129371 0.0194191 1e-05
-0.0129016 0.0194593 1e-05
-0.0128656 0.0195 1e-05
-0.0128601 0.0195062 1e-05
-0.0128546 0.0195124 1e-05
-0.0128491 0.0195186 1e-05
-0.0128436 0.0195248 1e-05
-0.0128381 0.019531 1e-05
-0.0127975 0.0195766 1e-05
-0.0127568 0.0196222 1e-05
-0.012716 0.0196677 1e-05
-0.0126751 0.0197132 1e-05
-0.012635 0.0197575 1e-05
-0.0125947 0.0198019 1e-05
-0.0125544 0.0198463 1e-05
-0.0125139 0.0198906 1e-05
-0.0124734 0.0199347 1e-05
-0.0124336 0.0199779 1e-05
-0.0124295 0.0199824 1e-05
-0.0124254 0.0199868 1e-05
-0.0124213 0.0199912 1e-05
-0.0124173 0.0199956 1e-05
-0.0124132 0.02 1e-05
-0.0123773 0.0200387 1e-05
-0.0123413 0.0200774 1e-05
-0.0123053 0.0201161 1e-05
-0.0122693 0.0201546 1e-05
-0.0122338 0.0201924 1e-05
-0.0121941 0.0202345 1e-05
[...]
POINT_DATA 12145
 FIELD attributes 1
U 3 12145 float
-0.0305753 	-0.27918 	0 -0.0309105 	-0.279156 	0 -0.0312466 	-0.279129 	0 -0.031582 	-0.279102 	0 -0.0319174 	-0.279074 	0 -0.032256 	-0.279045 	0 -0.032697 	-0.279013 	0 -0.0331403 	-0.278979 	0 -0.0335821 	-0.278944 	0 -0.0340219 	-0.278908 	0 -0.0344649 	-0.27887 	0 -0.0349931 	-0.278825 	0 -0.035523 	-0.278779 	0 -0.0360528 	-0.278732 	0 -0.0365825 	-0.278684 	0 -0.037112 	-0.278633 	0 -0.0374307 	-0.278602 	0 -0.0377511 	-0.27857 	0 -0.0380713 	-0.278538 	0 -0.0383915 	-0.278506 	0 -0.0386867 	-0.278475 	0 -0.0389712 	-0.278446 	0 -0.0392572 	-0.278416 	0 -0.0395432 	-0.278387 	0 -0.0398292 	-0.278356 	0 -0.0401171 	-0.278326 	0 -0.0407775 	-0.278253 	0 -0.0414354 	-0.278178 	0 -0.0420932 	-0.278101 	0 -0.0427507 	-0.278024 	0 -0.0434116 	-0.277944 	0 -0.0441175 	-0.277856 	0 -0.0448242 	-0.277766 	0 -0.0455304 	-0.277675 	0 -0.0462326 	-0.277581 	0 -0.0469386 	-0.277485 	0 -0.0475904 	-0.277393 	0 -0.0482429 	-0.277299 	0 -0.0488951 	-0.277204 	0 -0.0495471 	-0.277108 	0 -0.0501143 	-0.277024 	0 -0.0502208 	-0.277008 	0 -0.0503281 	-0.276992 	0 -0.0504354 	-0.276976 	0 -0.0505427 	-0.27696 	0 -0.0506509 	-0.276944 	0 -0.051423 	-0.276822 	0 -0.052194 	-0.276699 	0 -0.0529648 	-0.276574 	0 -0.0537352 	-0.276448 	0 -0.05451 	-0.276319 	0 -0.0553062 	-0.276181 	0 -0.0561025 	-0.276042 	0 -0.0568985 	-0.275901 	0 -0.0576919 	-0.275759 	0 -0.058489 	-0.275613 	0 -0.0588868 	-0.275537 	0 -0.059285 	-0.275461 	0 -0.0596831 	-0.275384 	0 -0.0600811 	-0.275308 	0 -0.0604531 	-0.275235 	0 -0.0608751 	-0.275154 	0 -0.0612974 	-0.275071 	0 -0.0617197 	-0.274988 	0 -0.0621418 	-0.274905 	0 -0.0625656 	-0.274821 	0 -0.0633985 	-0.274651 	0 -0.0642312 	-0.274479 	0 -0.0650607 	-0.274304 	0 -0.0658897 	-0.274128 	0 -0.0667245 	-0.273949 	0 -0.0673085 	-0.27382 	0 -0.0678926 	-0.27369 	0 -0.0684764 	-0.273559 	0 -0.0690601 	-0.273427 	0 -0.0695947 	-0.273306 	0 -0.0698667 	-0.273244 	0 -0.0701389 	-0.273182 	0 -0.070411 	-0.27312 	0 -0.0706831 	-0.273058 	0 -0.0709561 	-0.272995 	0 -0.0718163 	-0.272793 	0 -0.0726753 	-0.272588 	0 -0.0735322 	-0.272382 	0 -0.0743888 	-0.272174 	0 -0.0752522 	-0.271962 	0 -0.0757693 	-0.271832 	0 -0.0762864 	-0.271701 	0 -0.0768033 	-0.27157 	0 -0.07732 	-0.271438 	0 -0.0778025 	-0.271314 	0 -0.0781638 	-0.271221 	0 -0.0785252 	-0.271129 	0 -0.0788865 	-0.271035 	0 -0.0792477 	-0.270942 	0 -0.0796105 	-0.270848 	0 -0.080494 	-0.270614 	0 -0.0813772 	-0.270378 	0 -0.0822595 	-0.270141 	0 -0.0831396 	-0.269901 	0 -0.0840279 	-0.269658 	0 -0.0842813 	-0.269587 	0 -0.0845349 	-0.269515 	0 -0.0847884 	-0.269444 	0 -0.0850419 	-0.269373 	0 -0.085288 	-0.269303 	0 -0.0859307 	-0.269122 	0 -0.0865733 	-0.26894 	0 -0.0872156 	-0.268757 	0 -0.0878577 	-0.268574 	0 -0.0885045 	-0.268388 	0 -0.0892579 	-0.268167 	0 -0.090011 	-0.267946 	0 -0.0907637 	-0.267723 	0 -0.091516 	-0.2675 	0 -0.0922069 	-0.267293 	0 -0.0923737 	-0.267244 	0 -0.0925406 	-0.267194 	0 -0.0927076 	-0.267144 	0 -0.0928745 	-0.267094 	0 -0.0930419 	-0.267044 	0 -0.0939612 	-0.266764 	0 -0.0948801 	-0.266483 	0 -0.0957971 	-0.2662 	0 -0.0967132 	-0.265915 	0 -0.0976399 	-0.265625 	0 -0.0978461 	-0.265559 	0 -0.0980525 	-0.265493 	0 -0.0982588 	-0.265427 	0 -0.0984651 	-0.265362 	0 -0.0986673 	-0.265297 	0 -0.0993934 	-0.265066 	0 -0.100119 	-0.264834 	0 -0.100845 	-0.264601 	0 -0.10157 	-0.264367 	0 -0.102302 	-0.264129 	0 -0.102795 	-0.263967 	0 -0.103289 	-0.263805 	0 -0.103782 	-0.263642 	0 -0.104275 	-0.263478 	0 -0.104745 	-0.263322 	0 -0.105202 	-0.263171 	0 -0.105658 	-0.263019 	0 -0.106115 	-0.262867 	0 -0.106571 	-0.262715 	0 -0.10703 	-0.262561 	0 -0.107734 	-0.262323 	0 -0.108437 	-0.262084 	0 -0.109139 	-0.261845 	0 -0.109842 	-0.261604 	0 -0.1105 	-0.261378 	0 -0.110765 	-0.261287 	0 -0.111031 	-0.261196 	0 -0.111296 	-0.261105 	0 -0.111562 	-0.261013 	0 -0.111828 	-0.260921 	0 -0.112672 	-0.260628 	0 -0.113515 	-0.260334 	0 -0.114357 	-0.260038 	0 -0.115198 	-0.259742 	0 -0.11598 	-0.259465 	0 -0.116123 	-0.259415 	0 -0.116267 	-0.259364 	0 -0.11641 	-0.259313 	0 -0.116554 	-0.259262 	0 -0.116698 	-0.259211 	0 -0.117618 	-0.258884 	0 -0.118537 	-0.258555 	0 -0.119455 	-0.258224 	0 -0.120372 	-0.257893 	0 -0.121221 	-0.257585 	0 -0.121305 	-0.257554 	0 -0.121389 	-0.257524 	0 -0.121474 	-0.257493 	0 -0.121558 	-0.257462 	0 -0.121643 	-0.257432 	0 -0.122579 	-0.257091 	0 -0.123515 	-0.256748 	0 -0.124449 	-0.256404 	0 -0.125383 	-0.256059 	0 -0.126249 	-0.255738 	0 -0.126332 	-0.255707 	0 -0.126416 	-0.255676 	0 -0.126499 	-0.255645 	0 -0.126582 	-0.255615 	0 -0.126665 	-0.255584 	0 -0.127563 	-0.25525 	0 -0.12846 	-0.254915 	0 -0.129356 	-0.254579 	0 -0.130251 	-0.254242 	0 -0.131087 	-0.253925 	0 -0.131223 	-0.253874 	0 -0.131359 	-0.253823 	0 -0.131496 	-0.253771 	0 -0.131632 	-0.25372 	0 -0.131769 	-0.253668 	0 -0.132576 	-0.253363 	0 -0.133382 	-0.253056 	0 -0.134187 	-0.252749 	0 -0.134991 	-0.252441 	0 -0.13575 	-0.252149 	0 -0.135991 	-0.252057 	0 -0.136232 	-0.251965 	0 -0.136474 	-0.251872 	0 -0.136715 	-0.251779 	0 -0.136958 	-0.251686 	0 -0.137624 	-0.25143 	0 -0.138289 	-0.251173 	0 -0.138954 	-0.250915 	0 -0.139619 	-0.250657 	0 -0.140253 	-0.25041 	0 -0.140649 	-0.250256 	0 -0.141045 	-0.250103 	0 -0.141441 	-0.249949 	0 -0.141836 	-0.249795 	0 -0.142235 	-0.24964 	0 -0.142714 	-0.249453 	0 -0.143192 	-0.249266 	0 -0.14367 	-0.249078 	0 -0.144148 	-0.24889 	0 -0.144611 	-0.248708 	0 -0.145209 	-0.248474 	0 -0.145807 	-0.24824 	0 -0.146404 	-0.248005 	0 -0.147 	-0.247771 	0 -0.147604 	-0.247532 	0 -0.147852 	-0.247434 	0 -0.148099 	-0.247336 	0 -0.148346 	-0.247238 	0 -0.148593 	-0.24714 	0 -0.148837 	-0.247043 	0 -0.149669 	-0.246716 	0 -0.150499 	-0.246388 	0 -0.151329 	-0.24606 	0 -0.152158 	-0.24573 	0 -0.152944 	-0.245416 	0 -0.152969 	-0.245406 	0 -0.152994 	-0.245396 	0 -0.153019 	-0.245386 	0 -0.153044 	-0.245376 	0 -0.153069 	-0.245366 	0 -0.153853 	-0.245054 	0 -0.154635 	-0.244742 	0 -0.155417 	-0.244429 	0 -0.156198 	-0.244115 	0 -0.156943 	-0.243815 	0 -0.15728 	-0.24368 	0 -0.157617 	-0.243546 	0 -0.157954 	-0.243411 	0 -0.158291 	-0.243275 	0 -0.158631 	-0.243139 	0 -0.159073 	-0.242962 	0 -0.159514 	-0.242784 	0 -0.159956 	-0.242606 	0 -0.160397 	-0.242428 	0 -0.160827 	-0.242254 	0 -0.16152 	-0.241977 	0 -0.162213 	-0.241699 	0 -0.162904 	-0.241421 	0 -0.163595 	-0.241142 	0 -0.164297 	-0.240859 	0 -0.16436 	-0.240833 	0 -0.164423 	-0.240808 	0 -0.164486 	-0.240782 	0 -0.164549 	-0.240757 	0 -0.164612 	-0.240731 	0 -0.16536 	-0.240432 	0 -0.166106 	-0.24013 	0 -0.166851 	-0.239828 	0 -0.167595 	-0.239525 	0 -0.16831 	-0.239234 	0 -0.168661 	-0.239092 	0 -0.169012 	-0.23895 	0 -0.169363 	-0.238809 	0 -0.169713 	-0.238667 	0 -0.170067 	-0.238523 	0 -0.170438 	-0.238373 	0 -0.170808 	-0.238223 	0 -0.171179 	-0.238072 	0 -0.171549 	-0.237921 	0 -0.171913 	-0.237773 	0 -0.172624 	-0.237488 	0 -0.173334 	-0.237202 	0 -0.174043 	-0.236915 	0 -0.174751 	-0.236628 	0 -0.175433 	-0.236348 	0 -0.175535 	-0.236307 	0 -0.175638 	-0.236265 	0 -0.175741 	-0.236223 	0 -0.175844 	-0.236181 	0 -0.175948 	-0.236139 	0 -0.176538 	-0.2359 	0 -0.177128 	-0.235661 	0 -0.177717 	-0.235421 	0 -0.178306 	-0.235181 	0 -0.178878 	-0.234948 	0 -0.17949 	-0.234701 	0 -0.180101 	-0.234455 	0 -0.180711 	-0.234208 	0 -0.181321 	-0.23396 	0 -0.18194 	-0.233709 	0 -0.182 	-0.233685 	0 -0.18206 	-0.23366 	0 -0.182119 	-0.233636 	0 -0.182179 	-0.233612 	0 -0.182239 	-0.233587 	0 -0.182905 	-0.23332 	0 -0.18357 	-0.23305 	0 -0.184234 	-0.23278 	0 -0.184896 	-0.23251 	0 -0.185539 	-0.232247 	0 -0.18604 	-0.232046 	0 -0.186541 	-0.231844 	0 -0.187041 	-0.231642 	0 -0.187541 	-0.231439 	0 -0.188047 	-0.231234 	0 -0.18819 	-0.231176 	0 -0.188332 	-0.231119 	0 -0.188475 	-0.231061 	0 -0.188617 	-0.231004 	0 -0.188759 	-0.230946 	0 -0.189398 	-0.230692 	0 -0.190035 	-0.230435 	0 -0.19067 	-0.230177 	0 -0.191305 	-0.229919 	0 -0.191922 	-0.229667 	0 -0.192392 	-0.229478 	0 -0.192861 	-0.22929 	0 -0.19333 	-0.229101 	0 -0.193798 	-0.228912 	0 -0.194273 	-0.228721 	0 -0.194421 	-0.228661 	0 -0.194569 	-0.228602 	0 -0.194717 	-0.228542 	0 -0.194865 	-0.228482 	0 -0.195012 	-0.228423 	0 -0.195626 	-0.228181 	0 -0.196237 	-0.227935 	0 -0.196847 	-0.227689 	0 -0.197456 	-0.227442 	0 -0.198051 	-0.2272 	0 -0.198564 	-0.226996 	0 -0.199077 	-0.226792 	0 -0.199589 	-0.226587 	0 -0.2001 	-0.226382 	0 -0.200619 	-0.226173 	0 -0.200699 	-0.226142 	0 -0.200779 	-0.22611 	0 -0.200859 	-0.226078 	0 -0.200939 	-0.226046 	0 -0.201019 	-0.226014 	0 -0.201609 	-0.225781 	0 -0.202197 	-0.225546 	0 -0.202785 	-0.22531 	0 -0.203371 	-0.225075 	0 -0.203944 	-0.224844 	0 -0.204519 	-0.224617 	0 -0.205094 	-0.22439 	0 -0.205668 	-0.224163 	0 -0.206241 	-0.223935 	0 -0.206801 	-0.223711 	0 -0.206858 	-0.223688 	0 -0.206915 	-0.223665 	0 -0.206972 	-0.223643 	0 -0.207029 	-0.22362 	0 -0.207087 	-0.223597 	0 -0.207596 	-0.223396 	0 -0.208104 	-0.223195 	0 -0.208612 	-0.222993 	0 -0.20912 	-0.222791 	0 -0.209618 	-0.222593 	0 -0.210173 	-0.222377 	0 -0.210728 	-0.222161 	0 -0.211282 	-0.221944 	0 -0.211834 	-0.221725 	0 -0.212374 	-0.221507 	0 -0.212634 	-0.221405 	0 -0.212894 	-0.221303 	0 -0.213154 	-0.221201 	0 -0.213413 	-0.221099 	0 -0.213675 	-0.220996 	0 -0.213957 	-0.220885 	0 -0.214239 	-0.220775 	0 -0.214521 	-0.220664 	0 -0.214802 	-0.220554 	0 -0.215082 	-0.220444 	0 -0.215619 	-0.220239 	0 -0.216155 	-0.220032 	0 -0.216689 	-0.219822 	0 -0.217222 	-0.219611 	0 -0.217745 	-0.219404 	0 -0.218269 	-0.219202 	0 -0.218792 	-0.218999 	0 -0.219315 	-0.218797 	0 -0.219836 	-0.218594 	0 -0.220349 	-0.218395 	0 -0.220357 	-0.218391 	0 -0.220365 	-0.218388 	0 -0.220373 	-0.218385 	0 -0.220381 	-0.218382 	0 -0.220388 	-0.218379 	0 -0.220899 	-0.218182 	0 -0.221408 	-0.217985 	0 -0.221918 	-0.217788 	0 -0.222426 	-0.217591 	0 -0.222927 	-0.217396 	0 -0.223434 	-0.217204 	0 -0.223942 	-0.217012 	0 -0.224448 	-0.21682 	0 -0.224952 	-0.216622 	0 -0.225448 	-0.216428 	0 -0.225801 	-0.216293 	0 -0.226155 	-0.216158 	0 -0.226508 	-0.216022 	0 -0.226861 	-0.215887 	0 -0.227218 	-0.21575 	0 -0.227358 	-0.215697 	0 -0.227499 	-0.215643 	0 -0.22764 	-0.21559 	0 -0.227781 	-0.215536 	0 -0.227921 	-0.215483 	0 -0.228414 	-0.2153 	0 -0.228905 	-0.215113 	0 -0.229394 	-0.214925 	0 -0.229883 	-0.214738 	0 -0.230366 	-0.214552 	0 -0.230847 	-0.214373 	0 -0.231328 	-0.214194 	0 -0.231808 	-0.214015 	0 -0.232286 	-0.213832 	0 -0.232757 	-0.21365 	0 -0.233038 	-0.213544 	0 -0.233319 	-0.213438 	0 -0.2336 	-0.213332 	0 -0.233881 	-0.213226 	0 -0.234164 	-0.213119 	0 -0.234353 	-0.213049 	0 -0.234542 	-0.212978 	0 -0.234731 	-0.212908 	0 -0.23492 	-0.212837 	0 -0.235108 	-0.212766 	0 -0.235576 	-0.212597 	0 -0.236042 	-0.212422 	0 -0.236507 	-0.212247 	0 -0.236971 	-0.212072 	0 -0.23743 	-0.211898 	0 -0.237887 	-0.211732 	0 -0.238344 	-0.211565 	0 -0.2388 	-0.211398 	0 -0.239254 	-0.211227 	0 -0.239702 	-0.211056 	0 -0.240005 	-0.210944 	0 -0.240308 	-0.210832 	0 -0.240611 	-0.21072 	0 -0.240914 	-0.210608 	0 -0.24122 	-0.210494 	0 -0.241363 	-0.210442 	0 -0.241506 	-0.21039 	0 -0.241649 	-0.210337 	0 -0.241791 	-0.210285 	0 -0.241934 	-0.210232 	0 -0.242379 	-0.210074 	0 -0.242822 	-0.20991 	0 -0.243265 	-0.209747 	0 -0.243706 	-0.209584 	0 -0.244143 	-0.209422 	0 -0.244578 	-0.209267 	0 -0.245013 	-0.209112 	0 -0.245447 	-0.208956 	0 -0.245878 	-0.208794 	0 -0.246305 	-0.208634 	0 -0.246719 	-0.208485 	0 -0.247132 	-0.208336 	0 -0.247545 	-0.208186 	0 -0.247958 	-0.208037 	0 -0.248376 	-0.207885 	0 -0.248385 	-0.207882 	0 -0.248394 	-0.207879 	0 -0.248403 	-0.207876 	0 -0.248412 	-0.207872 	0 -0.248421 	-0.207869 	0 -0.248843 	-0.207718 	0 -0.249265 	-0.207566 	0 -0.249687 	-0.207414 	0 -0.250108 	-0.207262 	0 -0.250526 	-0.207111 	0 -0.25094 	-0.206968 	0 -0.251355 	-0.206824 	0 -0.251767 	-0.206674 	0 -0.252178 	-0.206524 	0 -0.252585 	-0.206375 	0 -0.25299 	-0.206233 	0 -0.253395 	-0.206091 	0 -0.253799 	-0.205949 	0 -0.254203 	-0.205807 	0 -0.254601 	-0.205659 	0 -0.254803 	-0.205587 	0 -0.255005 	-0.205515 	0 -0.255208 	-0.205443 	0 -0.25541 	-0.205371 	0 -0.255615 	-0.205298 	0 -0.255809 	-0.20523 	0 -0.256004 	-0.205162 	0 -0.256199 	-0.205093 	0 -0.256394 	-0.205025 	0 -0.256589 	-0.204957 	0 -0.256985 	-0.204824 	0 -0.257378 	-0.204685 	0 -0.257772 	-0.204546 	0 -0.258164 	-0.204406 	0 -0.258554 	-0.204268 	0 -0.25894 	-0.204137 	0 -0.259327 	-0.204006 	0 -0.259713 	-0.203873 	0 -0.260096 	-0.203735 	0 -0.260476 	-0.203598 	0 -0.260854 	-0.203469 	0 -0.261231 	-0.203339 	0 -0.261608 	-0.20321 	0 -0.261984 	-0.20308 	0 -0.262357 	-0.202947 	0 -0.262469 	-0.202908 	0 -0.262582 	-0.202869 	0 -0.262695 	-0.20283 	0 -0.262807 	-0.20279 	0 -0.262921 	-0.202751 	0 -0.263181 	-0.202662 	0 -0.263442 	-0.202573 	0 -0.263702 	-0.202484 	0 -0.263962 	-0.202395 	0 -0.264222 	-0.202306 	0 -0.264591 	-0.202187 	0 -0.26496 	-0.202061 	0 -0.265327 	-0.201934 	0 -0.265693 	-0.201807 	0 -0.266058 	-0.20168 	0 -0.266419 	-0.201562 	0 -0.26678 	-0.201444 	0 -0.26714 	-0.201324 	0 -0.267498 	-0.201198 	0 -0.267854 	-0.201073 	0 -0.268206 	-0.200956 	0 -0.268558 	-0.200838 	0 -0.26891 	-0.200721 	0 -0.269262 	-0.200604 	0 -0.26961 	-0.200483 	0 -0.269741 	-0.200438 	0 -0.269872 	-0.200394 	0 -0.270004 	-0.20035 	0 -0.270135 	-0.200305 	0 -0.270268 	-0.200261 	0 -0.270484 	-0.200189 	0 -0.270701 	-0.200118 	0 -0.270917 	-0.200047 	0 -0.271134 	-0.199975 	0 -0.27135 	-0.199904 	0 -0.271695 	-0.199797 	0 -0.272039 	-0.199683 	0 -0.272382 	-0.199568 	0 -0.272725 	-0.199454 	0 -0.273067 	-0.19934 	0 -0.273404 	-0.199235 	0 -0.273741 	-0.19913 	0 -0.274077 	-0.19902 	0 -0.274412 	-0.198907 	0 -0.274745 	-0.198794 	0 -0.275074 	-0.198691 	0 -0.275403 	-0.198587 	0 -0.275732 	-0.198484 	0 -0.27606 	-0.198379 	0 -0.276385 	-0.198268 	0 -0.276632 	-0.19819 	0 -0.276879 	-0.198111 	0 -0.277126 	-0.198033 	0 -0.277373 	-0.197954 	0 -0.277622 	-0.197875 	0 -0.277696 	-0.197852 	0 -0.277771 	-0.197829 	0 -0.277846 	-0.197805 	0 -0.277921 	-0.197782 	0 -0.277997 	-0.197759 	0 -0.278319 	-0.197662 	0 -0.27864 	-0.197563 	0 -0.278962 	-0.197463 	0 -0.279283 	-0.197364 	0 -0.279603 	-0.197265 	0 -0.279918 	-0.197176 	0 -0.280233 	-0.197085 	0 -0.280547 	-0.196987 	0 -0.28086 	-0.19689 	0 -0.281172 	-0.196793 	0 -0.281479 	-0.196707 	0 -0.281787 	-0.196621 	0 -0.282095 	-0.196535 	0 -0.2824 	-0.19644 	0 -0.282705 	-0.196346 	0 -0.283004 	-0.196262 	0 -0.283304 	-0.196179 	0 -0.283604 	-0.196096 	0 -0.283904 	-0.196013 	0 -0.284201 	-0.195924 	0 -0.284347 	-0.195884 	0 -0.284494 	-0.195845 	0 -0.28464 	-0.195805 	0 -0.284787 	-0.195765 	0 -0.284935 	-0.195725 	0 -0.285084 	-0.195685 	0 -0.285233 	-0.195646 	0 -0.285383 	-0.195607 	0 -0.285532 	-0.195568 	0 -0.285683 	-0.195528 	0 -0.285977 	-0.19546 	0 -0.286271 	-0.195385 	0 -0.286564 	-0.195311 	0 -0.286858 	-0.195236 	0 -0.28715 	-0.195162 	0 -0.287438 	-0.195102 	0 -0.287726 	-0.195041 	0 -0.288012 	-0.194972 	0 -0.288298 	-0.194902 	0 -0.288583 	-0.194833 	0 -0.288863 	-0.194779 	0 -0.289144 	-0.194725 	0 -0.289424 	-0.194671 	0 -0.289703 	-0.194609 	0 -0.289981 	-0.194546 	0 -0.290254 	-0.194499 	0 -0.290527 	-0.194453 	0 -0.2908 	-0.194406 	0 -0.291073 	-0.194359 	0 -0.291345 	-0.194307 	0 -0.291503 	-0.194284 	0 -0.291663 	-0.194261 	0 -0.291823 	-0.194238 	0 -0.291982 	-0.194215 	0 -0.292143 	-0.194193 	0 -0.292252 	-0.194178 	0 -0.292362 	-0.194163 	0 -0.292471 	-0.194149 	0 -0.292581 	-0.194134 	0 -0.292691 	-0.194119 	0 -0.292959 	-0.194098 	0 -0.293227 	-0.194071 	0 -0.293495 	-0.194045 	0 -0.293763 	-0.194019 	0 -0.294031 	-0.193993 	0 -0.294292 	-0.193989 	0 -0.294554 	-0.193981 	0 -0.294815 	-0.193967 	0 -0.295076 	-0.193953 	0 -0.295337 	-0.193939 	0 -0.295592 	-0.19395 	0 -0.295847 	-0.193961 	0 -0.296102 	-0.193969 	0 -0.296356 	-0.193969 	0 -0.29661 	-0.19397 	0 -0.296858 	-0.193997 	0 -0.297106 	-0.194025 	0 -0.297355 	-0.194054 	0 -0.297603 	-0.19408 	0 -0.297851 	-0.194097 	0 -0.298092 	-0.194145 	0 -0.298333 	-0.194193 	0 -0.298575 	-0.194241 	0 -0.298817 	-0.194289 	0 -0.299059 	-0.194336 	0 -0.299076 	-0.194341 	0 -0.299094 	-0.194346 	0 -0.299112 	-0.194352 	0 -0.29913 	-0.194358 	0 -0.299148 	-0.194363 	0 -0.299373 	-0.19443 	0 -0.299599 	-0.194498 	0 -0.299825 	-0.194566 	0 -0.30005 	-0.194634 	0 -0.300277 	-0.194702 	0 -0.300514 	-0.194814 	0 -0.300752 	-0.194915 	0 -0.30099 	-0.195015 	0 -0.301228 	-0.195115 	0 -0.301466 	-0.195217 	0 -0.301697 	-0.19536 	0 -0.301929 	-0.195505 	0 -0.302161 	-0.195637 	0 -0.302392 	-0.195768 	0 -0.302625 	-0.1959 	0 -0.302849 	-0.196079 	0 -0.303074 	-0.19626 	0 -0.3033 	-0.196441 	0 -0.303525 	-0.196608 	0 -0.303752 	-0.196776 	0 -0.30397 	-0.196996 	0 -0.304189 	-0.197217 	0 -0.304408 	-0.197439 	0 -0.304627 	-0.19766 	0 -0.304848 	-0.19787 	0 -0.305034 	-0.198104 	0 -0.305221 	-0.19834 	0 -0.305409 	-0.198576 	0 -0.305596 	-0.198812 	0 -0.305784 	-0.199049 	0 -0.305811 	-0.199081 	0 -0.305837 	-0.199113 	0 -0.305863 	-0.199145 	0 -0.30589 	-0.199177 	0 -0.305918 	-0.199212 	0 -0.306132 	-0.199536 	0 -0.306348 	-0.19986 	0 -0.306564 	-0.200185 	0 -0.30678 	-0.200509 	0 -0.306999 	-0.200836 	0 -0.307206 	-0.201236 	0 -0.307416 	-0.201621 	0 -0.307626 	-0.202004 	0 -0.307836 	-0.202387 	0 -0.308049 	-0.202773 	0 -0.30825 	-0.203239 	0 -0.308452 	-0.203708 	0 -0.308656 	-0.204159 	0 -0.308861 	-0.204607 	0 -0.309068 	-0.205059 	0 -0.309263 	-0.205599 	0 -0.309459 	-0.206141 	0 -0.309656 	-0.206683 	0 -0.309855 	-0.207207 	0 -0.310057 	-0.207733 	0 -0.310245 	-0.208354 	0 -0.310436 	-0.208978 	0 -0.310627 	-0.209601 	0 -0.310819 	-0.210224 	0 -0.311015 	-0.210835 	0 -0.311167 	-0.211422 	0 -0.31132 	-0.212012 	0 -0.311473 	-0.212602 	0 -0.311627 	-0.213192 	0 -0.31178 	-0.213776 	0 -0.311814 	-0.2139 	0 -0.311848 	-0.214025 	0 -0.311883 	-0.214152 	0 -0.311917 	-0.214278 	0 -0.311954 	-0.214408 	0 -0.31214 	-0.215228 	0 -0.312329 	-0.216046 	0 -0.312519 	-0.216863 	0 -0.31271 	-0.217679 	0 -0.312905 	-0.218507 	0 -0.313083 	-0.219457 	0 -0.313266 	-0.220387 	0 -0.313451 	-0.22131 	0 -0.313637 	-0.222233 	0 -0.313827 	-0.223169 	0 -0.313999 	-0.224236 	0 -0.314174 	-0.225306 	0 -0.314353 	-0.226351 	0 -0.314534 	-0.227387 	0 -0.314719 	-0.228441 	0 -0.314886 	-0.229633 	0 -0.315056 	-0.230828 	0 -0.315226 	-0.232021 	0 -0.315401 	-0.23319 	0 -0.315582 	-0.234371 	0 -0.315744 	-0.235696 	0 -0.315908 	-0.237024 	0 -0.316073 	-0.23835 	0 -0.31624 	-0.239674 	0 -0.316415 	-0.241004 	0 -0.316502 	-0.241817 	0 -0.31659 	-0.242635 	0 -0.316678 	-0.243452 	0 -0.316767 	-0.244269 	0 -0.316856 	-0.245074 	0 -0.316932 	-0.245733 	0 -0.31701 	-0.246398 	0 -0.317088 	-0.247062 	0 -0.317166 	-0.247725 	0 -0.317247 	-0.2484 	0 -0.317405 	-0.250052 	0 -0.31757 	-0.251685 	0 -0.317736 	-0.253315 	0 -0.317903 	-0.254942 	0 -0.318078 	-0.25661 	0 -0.318227 	-0.258444 	0 -0.318383 	-0.260265 	0 -0.318544 	-0.262051 	0 -0.318707 	-0.263835 	0 -0.318877 	-0.265667 	0 -0.319021 	-0.267668 	0 -0.319169 	-0.269672 	0 -0.319319 	-0.271663 	0 -0.319477 	-0.273609 	0 -0.319643 	-0.275613 	0 -0.319782 	-0.277788 	0 -0.319924 	-0.279964 	0 -0.320067 	-0.282134 	0 -0.320214 	-0.284299 	0 -0.320375 	-0.286487 	0 -0.320471 	-0.288192 	0 -0.320569 	-0.289901 	0 -0.320669 	-0.291606 	0 -0.320769 	-0.293308 	0 -0.320869 	-0.294961 	0 -0.320912 	-0.29563 	0 -0.320956 	-0.296306 	0 -0.321001 	-0.296981 	0 -0.321046 	-0.297655 	0 -0.321092 	-0.298343 	0 -0.321227 	-0.30093 	0 -0.321369 	-0.303493 	0 -0.321514 	-0.306049 	0 -0.321661 	-0.308597 	0 -0.321818 	-0.311243 	0 -0.32194 	-0.314061 	0 -0.322069 	-0.31686 	0 -0.322208 	-0.319603 	0 -0.322351 	-0.322337 	0 -0.322502 	-0.325184 	0 -0.322618 	-0.328198 	0 -0.322738 	-0.331208 	0 -0.32286 	-0.334208 	0 -0.322995 	-0.337143 	0 -0.323142 	-0.340195 	0 -0.323251 	-0.343406 	0 -0.323364 	-0.346613 	0 -0.32348 	-0.349808 	0 -0.323599 	-0.35299 	0 -0.323732 	-0.3563 	0 -0.323751 	-0.356946 	0 -0.323771 	-0.357599 	0 -0.323791 	-0.358252 	0 -0.323811 	-0.358906 	0 -0.323832 	-0.35956 	0 -0.323927 	-0.362356 	0 -0.324026 	-0.365151 	0 -0.324126 	