/*--------------------------------*- C++ -*----------------------------------*\
  =========                 |
  \\      /  F ield         | OpenFOAM: The Open Source CFD Toolbox
   \\    /   O peration     | Website:  https://openfoam.org
    \\  /    A nd           | Version:  6
     \\/     M anipulation  |
\*---------------------------------------------------------------------------*/
FoamFile
{
    version     2.0;
    format      ascii;
    class       volScalarField;
    location    "15";
    object      epsilon;
}
// * * * * * * * * * * * * * * * * * * * * * * * * * * * * * * * * * * * * * //

dimensions      [0 2 -3 0 0 0 0];

internalField   nonuniform List<scalar> 
130000
(
15.4165
15.2378
15.0276
14.7925
14.5357
14.2622
13.9784
13.6912
13.4078
13.1347
12.8777
12.6414
12.429
12.2425
12.0827
11.9494
11.8416
11.7577
11.696
11.6547
15.442
15.2647
15.0552
14.8199
14.5621
14.2872
14.0016
13.7125
13.4273
13.1525
12.894
12.6562
12.4426
12.2552
12.0947
11.961
11.8532
11.7696
11.7082
11.667
15.4634
15.2874
15.0784
14.8429
14.5842
14.3079
14.0205
13.7294
13.4419
13.1647
12.904
12.6642
12.4487
12.2599
12.0986
11.9646
11.8567
11.7735
11.7131
11.6727
15.4799
15.3046
15.0958
14.8597
14.5998
14.3216
14.032
13.7384
13.4483
13.1692
12.9068
12.6657
12.449
12.2596
12.0978
11.9636
11.8558
11.7731
11.7136
11.6742
15.4908
15.3154
15.106
14.8686
14.6066
14.3264
14.035
13.7398
13.4482
13.168
12.9048
12.6633
12.4469
12.2574
12.0957
11.9616
11.854
11.7714
11.7119
11.6734
15.4972
15.3207
15.1097
14.8705
14.6068
14.3251
14.0325
13.7365
13.4447
13.1642
12.9008
12.6593
12.443
12.2538
12.0924
11.9586
11.8513
11.769
11.7098
11.6717
15.5008
15.3225
15.1096
14.8689
14.6041
14.3214
14.0279
13.7312
13.439
13.1583
12.895
12.6537
12.4378
12.249
12.0882
11.9549
11.8482
11.7664
11.7075
11.6694
15.5035
15.3235
15.1087
14.8662
14.6
14.3161
14.0216
13.7243
13.4318
13.151
12.8878
12.647
12.4315
12.2434
12.0833
11.9508
11.8447
11.7636
11.7052
11.6676
15.5058
15.3239
15.1071
14.8628
14.595
14.3098
14.0143
13.7163
13.4235
13.1427
12.8798
12.6395
12.4247
12.2374
12.078
11.9463
11.8411
11.7606
11.7029
11.6658
15.5082
15.3241
15.1055
14.8593
14.5898
14.3031
14.0066
13.7079
13.4147
13.134
12.8714
12.6316
12.4176
12.2311
12.0726
11.9418
11.8374
11.7577
11.7007
11.6645
15.5113
15.325
15.1043
14.8561
14.5847
14.2965
13.9988
13.6994
13.4059
13.1251
12.8629
12.6237
12.4104
12.2248
12.0672
11.9373
11.8338
11.7549
11.6987
11.6631
15.5151
15.3268
15.1041
14.8536
14.5802
14.2904
13.9914
13.6912
13.3973
13.1165
12.8546
12.6159
12.4033
12.2186
12.062
11.933
11.8304
11.7523
11.6968
11.6616
15.5196
15.3291
15.1043
14.8518
14.5763
14.2847
13.9845
13.6833
13.389
13.1081
12.8465
12.6083
12.3965
12.2126
12.057
11.929
11.8272
11.75
11.6952
11.6606
15.5247
15.332
15.1048
14.8507
14.5731
14.2797
13.9781
13.676
13.3811
13.1002
12.8387
12.6011
12.39
12.207
12.0522
11.9252
11.8244
11.7481
11.694
11.66
15.5305
15.3356
15.1062
14.8498
14.5703
14.2753
13.9723
13.6693
13.3738
13.0927
12.8314
12.5942
12.3838
12.2016
12.0478
11.9217
11.8218
11.7464
11.6931
11.6593
15.5372
15.3402
15.1084
14.8496
14.5685
14.2717
13.9673
13.6632
13.3671
13.0857
12.8246
12.5878
12.378
12.1966
12.0436
11.9184
11.8194
11.7448
11.6919
11.6577
15.5449
15.346
15.1119
14.8509
14.568
14.2693
13.9632
13.6579
13.361
13.0793
12.8182
12.5817
12.3725
12.1918
12.0398
11.9154
11.8174
11.7436
11.6915
11.6581
15.5539
15.3528
15.1165
14.8531
14.5681
14.2677
13.9598
13.6532
13.3555
13.0734
12.8122
12.5761
12.3674
12.1874
12.0361
11.9127
11.8156
11.7428
11.6918
11.6598
15.564
15.3608
15.122
14.8561
14.5686
14.2668
13.9571
13.6492
13.3506
13.068
12.8068
12.5708
12.3626
12.1833
12.0328
11.9102
11.8139
11.7417
11.6914
11.6608
15.5754
15.37
15.1288
14.8603
14.5703
14.2663
13.955
13.6459
13.3464
13.0633
12.8019
12.5661
12.3583
12.1796
12.0298
11.9081
11.8129
11.7417
11.6919
11.6614
15.5881
15.3806
15.1368
14.8657
14.5731
14.2666
13.9542
13.6436
13.343
13.0592
12.7976
12.5619
12.3544
12.1762
12.0271
11.9061
11.8117
11.7416
11.6923
11.6617
15.6021
15.3925
15.1461
14.8722
14.5771
14.2683
13.9542
13.6422
13.3403
13.0558
12.7938
12.5581
12.3509
12.1732
12.0247
11.9043
11.8101
11.7403
11.6912
11.6611
15.6173
15.4055
15.1566
14.8799
14.582
14.2707
13.9542
13.6411
13.3381
13.0529
12.7906
12.5549
12.348
12.1707
12.0227
11.9029
11.8093
11.7394
11.6906
11.6608
15.6338
15.4199
15.1683
14.8889
14.5882
14.2742
13.9555
13.6405
13.3367
13.0508
12.7881
12.5523
12.3455
12.1686
12.0213
11.9022
11.8094
11.7395
11.6906
11.6606
15.6517
15.4357
15.1814
14.899
14.5955
14.2789
13.958
13.6414
13.3366
13.0498
12.7863
12.5502
12.3436
12.1671
12.0204
11.902
11.8098
11.7401
11.6918
11.6625
15.6711
15.4528
15.1958
14.9104
14.6038
14.2845
13.9613
13.6429
13.3372
13.0495
12.7852
12.5489
12.3424
12.1664
12.0202
11.902
11.8101
11.7413
11.694
11.6655
15.6918
15.4713
15.2115
14.923
14.6133
14.2911
13.9653
13.6447
13.3373
13.0489
12.7845
12.548
12.3414
12.1654
12.0194
11.9011
11.8096
11.7412
11.6943
11.6659
15.714
15.4913
15.2286
14.9369
14.624
14.2987
13.9701
13.6472
13.3378
13.0484
12.784
12.5469
12.3397
12.1636
12.0178
11.8997
11.8086
11.7411
11.694
11.6657
15.7376
15.5127
15.2471
14.9521
14.6359
14.3074
13.9761
13.6508
13.3394
13.0487
12.7833
12.5457
12.3387
12.1624
12.0163
11.8988
11.8078
11.7408
11.6938
11.6657
15.7627
15.5357
15.2671
14.9688
14.6491
14.3174
13.9831
13.6553
13.3419
13.0497
12.7835
12.5459
12.3385
12.1622
12.0165
11.8993
11.8083
11.7409
11.694
11.6662
15.7894
15.5602
15.2887
14.987
14.6637
14.3286
13.9912
13.6607
13.3452
13.0514
12.7843
12.5464
12.3387
12.1625
12.0167
11.8996
11.8084
11.7406
11.6942
11.6669
15.8178
15.5865
15.312
15.0068
14.6799
14.3412
14.0005
13.6672
13.3493
13.0535
12.7847
12.5462
12.3386
12.1625
12.0163
11.8991
11.8074
11.7392
11.6928
11.6657
15.848
15.6147
15.3372
15.0284
14.6978
14.3554
14.0113
13.6749
13.3545
13.0566
12.7861
12.5462
12.3383
12.162
12.0159
11.8985
11.807
11.7395
11.6932
11.6655
15.8803
15.6451
15.3645
15.0521
14.7175
14.3713
14.0236
13.6841
13.361
13.0609
12.7886
12.5474
12.3387
12.1616
12.0154
11.8982
11.8073
11.74
11.6934
11.6659
15.9149
15.6778
15.3942
15.078
14.7394
14.3892
14.0378
13.695
13.369
13.0665
12.7922
12.5494
12.3392
12.1618
12.0152
11.8976
11.8065
11.7397
11.6929
11.666
15.952
15.7131
15.4264
15.1063
14.7636
14.4092
14.054
13.7077
13.3787
13.0737
12.7974
12.5529
12.3412
12.1624
12.0151
11.8972
11.8062
11.7396
11.6933
11.6663
15.9917
15.7511
15.4613
15.1374
14.7904
14.4317
14.0725
13.7226
13.3905
13.0829
12.8045
12.5583
12.3454
12.1657
12.0177
11.8994
11.8083
11.7414
11.696
11.6695
16.0345
15.7923
15.4994
15.1715
14.82
14.457
14.0935
13.7398
13.4044
13.0942
12.8136
12.5657
12.3516
12.1709
12.0223
11.9037
11.8124
11.7455
11.7002
11.6739
16.0805
15.8369
15.5409
15.2089
14.8529
14.4852
14.1173
13.7596
13.4208
13.1076
12.8248
12.5751
12.3595
12.1779
12.0285
11.9094
11.8176
11.7504
11.7049
11.6782
16.1302
15.8853
15.5863
15.25
14.8893
14.5167
14.1442
13.7824
13.4399
13.1237
12.8383
12.5866
12.3695
12.1867
12.0365
11.9166
11.8242
11.7564
11.7102
11.683
16.1839
15.9379
15.6358
15.2953
14.9296
14.552
14.1747
13.8084
13.4621
13.1425
12.8545
12.6006
12.3819
12.1977
12.0465
11.9258
11.8327
11.7642
11.7173
11.6893
16.2421
15.9952
15.69
15.3451
14.9743
14.5914
14.209
13.8381
13.4876
13.1646
12.8737
12.6175
12.397
12.2114
12.059
11.9374
11.8435
11.7743
11.7267
11.6978
16.3051
16.0575
15.7492
15.3998
15.0238
14.6354
14.2476
13.8718
13.517
13.1902
12.8962
12.6376
12.4151
12.228
12.0744
11.9517
11.857
11.787
11.7385
11.7088
16.3734
16.1253
15.8141
15.4601
15.0786
14.6844
14.291
13.9099
13.5505
13.2198
12.9225
12.6611
12.4365
12.2476
12.0927
11.969
11.8732
11.8023
11.753
11.7223
16.4475
16.1993
15.8852
15.5265
15.1393
14.7391
14.3397
13.953
13.5886
13.2537
12.9528
12.6885
12.4615
12.2708
12.1143
11.9894
11.8926
11.8207
11.7703
11.7386
16.5281
16.2802
15.9633
15.5997
15.2065
14.7999
14.3942
14.0017
13.632
13.2924
12.9877
12.7203
12.4906
12.2978
12.1397
12.0133
11.9152
11.8422
11.7907
11.7578
16.616
16.3687
16.049
15.6805
15.2811
14.8678
14.4554
14.0566
13.6812
13.3367
13.0278
12.7569
12.5244
12.3293
12.1692
12.0412
11.9417
11.8674
11.8146
11.7803
16.7119
16.4657
16.1435
15.7698
15.364
14.9436
14.5242
14.1186
13.7371
13.3873
13.0738
12.7991
12.5634
12.3657
12.2035
12.0737
11.9726
11.8968
11.8425
11.8067
16.8168
16.5723
16.2476
15.8689
15.4563
15.0284
14.6014
14.1887
13.8007
13.4451
13.1266
12.8477
12.6086
12.408
12.2434
12.1115
12.0086
11.9311
11.8751
11.8376
16.932
16.6898
16.3629
15.9788
15.5591
15.1234
14.6884
14.268
13.8729
13.5111
13.1873
12.9038
12.6609
12.4571
12.2898
12.1556
12.0507
11.9711
11.9132
11.8736
17.0585
16.8194
16.4905
16.1011
15.6741
15.23
14.7864
14.3578
13.9553
13.5867
13.257
12.9686
12.7215
12.5142
12.3439
12.2071
12.0997
12.0179
11.9578
11.9159
17.1976
16.9626
16.6321
16.2374
15.8027
15.3499
14.8973
14.4599
14.0493
13.6734
13.3374
13.0436
12.7919
12.5807
12.407
12.2673
12.1572
12.0728
12.0101
11.9656
17.3511
17.1212
16.7897
16.3897
15.9471
15.4851
15.0229
14.5762
14.1568
13.7732
13.4303
13.1306
12.8738
12.6583
12.4809
12.3378
12.2247
12.1374
12.0717
12.024
17.5207
17.2974
16.9655
16.5603
16.1097
15.6381
15.1657
14.7091
14.2804
13.8883
13.538
13.2318
12.9695
12.7492
12.5676
12.4207
12.3041
12.2134
12.1443
12.093
17.7087
17.4937
17.1623
16.7522
16.2934
15.8117
15.3287
14.8615
14.4228
14.0216
13.6633
13.35
13.0816
12.856
12.6697
12.5186
12.398
12.3033
12.2302
12.1747
17.9179
17.7132
17.3834
16.9688
16.5017
16.0097
15.5155
15.037
14.5877
14.1768
13.8097
13.4888
13.2137
12.9821
12.7906
12.6346
12.5094
12.4101
12.3322
12.2717
18.1512
17.9594
17.6328
17.2144
16.7391
16.2365
15.7306
15.2403
14.7796
14.3583
13.9818
13.6525
13.37
13.1319
12.9344
12.7729
12.6423
12.5376
12.4541
12.3876
18.4124
18.2368
17.9153
17.4942
17.0112
16.4978
15.9798
15.4771
15.0044
14.5719
14.1852
13.8469
13.5562
13.3108
13.1065
12.9387
12.8018
12.6907
12.6005
12.5267
18.7058
18.5508
18.2371
17.8148
17.3247
16.8008
16.2704
15.7548
15.2695
14.8252
14.4276
14.0793
13.7797
13.5261
13.3142
13.1389
12.9946
12.8759
12.7776
12.6949
19.0375
18.9084
18.6061
18.1848
17.6887
17.1547
16.612
16.0833
15.5849
15.128
14.7188
14.3599
14.0504
13.7876
13.5669
13.3829
13.2298
13.1018
12.9934
12.8998
19.4147
19.3184
19.0322
18.6148
18.1147
17.5717
17.0172
16.4754
15.9637
15.4938
15.0723
14.7019
14.3816
14.1084
13.8775
13.6832
13.5194
13.38
13.2591
13.1517
19.8463
19.7917
19.5281
19.1192
18.6181
18.068
17.5028
16.9486
16.4237
15.9408
15.5066
15.1239
14.7917
14.5068
14.264
14.0574
13.8803
13.7266
13.5898
13.4648
20.3439
20.3427
20.1106
19.7167
19.2193
18.6655
18.092
17.5269
16.9899
16.4943
16.0474
15.6518
15.3067
15.0086
14.7518
14.5301
14.3365
14.1643
14.007
13.8589
20.9236
20.9889
20.8019
20.4327
19.9462
19.3942
18.8167
18.2438
17.6969
17.1901
16.7311
16.3227
15.9638
15.6506
15.3771
15.1367
14.922
14.7258
14.5412
14.3623
21.6072
21.7585
21.6334
21.3023
20.8375
20.296
19.7213
19.1463
18.5939
18.0791
17.61
17.1896
16.8164
16.4863
16.1928
15.9289
15.6866
15.4584
15.237
15.0162
22.4203
22.6856
22.6464
22.3732
21.9464
21.4288
20.8684
20.3008
19.7506
19.2339
18.7591
18.3291
17.942
17.5933
17.276
16.9822
16.7034
16.4319
16.1599
15.8809
23.3987
23.8168
23.897
23.7104
23.346
22.8734
22.3453
21.8006
21.2658
20.7579
20.2856
19.8514
19.4529
19.0847
18.7389
18.407
18.0799
17.7491
17.4066
17.0458
24.5891
25.2207
25.4562
25.402
25.1365
24.7405
24.2726
23.7752
23.2771
22.7961
22.3406
21.9126
21.5086
21.1219
20.7434
20.3634
19.972
19.56
19.1191
18.6426
26.0567
26.9876
27.4412
27.5709
27.4546
27.1808
26.814
26.401
25.9723
25.5465
25.1314
24.7277
24.3301
23.93
23.5162
23.0774
22.602
22.0801
21.5026
20.8629
27.8848
29.2272
29.9949
30.3658
30.476
30.3905
30.1841
29.9085
29.597
29.2685
28.9298
28.5795
28.2093
27.8077
27.3605
26.8534
26.2725
25.6059
24.8434
23.9777
30.1894
32.0875
33.3137
34.0234
34.4241
34.6193
34.6523
34.585
34.4549
34.2812
34.0688
33.8138
33.504
33.1235
32.6532
32.0746
31.3695
30.5222
29.5192
28.3514
33.1193
35.7623
37.609
38.8399
39.6324
40.1653
40.539
40.7627
40.8929
40.9437
40.9193
40.8136
40.6092
40.2846
39.8146
39.1738
38.337
37.2815
35.9867
34.4373
36.8601
40.4923
43.1585
45.0669
46.4432
47.4536
48.2023
48.7822
49.2726
49.6189
49.8446
49.9481
49.9023
49.6797
49.2473
48.5717
47.617
46.3486
44.7323
42.7387
41.6378
46.5565
50.2788
53.0503
55.1434
56.7628
58.0523
59.1023
59.9548
60.6288
61.1387
61.5193
61.6832
61.6127
61.266
60.6011
59.5685
58.1165
56.1886
53.73
47.7237
54.2736
59.3128
63.1409
66.0991
68.4389
70.333
71.8957
73.1941
74.2688
75.1241
75.7483
76.1473
76.2771
76.0637
75.4659
74.4179
72.8456
70.6618
67.7743
55.4261
63.9825
70.6019
75.6652
79.6082
82.7498
85.3079
87.4297
89.2047
90.6863
91.8929
92.8239
93.4632
93.7876
93.7351
93.2641
92.2757
90.6679
88.3183
85.0872
65.0844
76.0306
84.476
90.9249
95.9409
99.9321
103.176
105.863
108.111
109.996
111.555
112.796
113.702
114.236
114.361
114.059
113.21
111.659
109.249
105.786
77.0458
90.745
101.227
109.174
115.318
120.176
124.103
127.341
130.047
132.323
134.222
135.768
136.951
137.737
138.066
137.934
137.292
135.898
133.535
129.96
91.6487
108.42
121.103
130.627
137.922
143.641
148.226
151.983
155.112
157.75
159.972
161.82
163.29
164.35
164.929
165.014
164.611
163.468
161.27
157.713
109.193
129.297
144.301
155.44
163.881
170.425
175.615
179.829
183.322
186.271
188.784
190.924
192.7
194.087
195.013
195.378
195.186
194.377
192.482
189.098
129.93
153.559
170.955
183.708
193.245
200.532
206.224
210.784
214.53
217.693
220.419
222.802
224.868
226.599
227.91
228.667
228.833
228.422
226.997
224.014
154.038
181.312
201.108
215.409
225.918
233.782
239.784
244.486
248.285
251.477
254.264
256.78
259.08
261.163
262.95
264.311
265.045
265.076
264.297
262.021
181.619
212.562
234.669
250.339
261.57
269.706
275.679
280.169
283.675
286.578
289.149
291.584
293.98
296.365
298.673
300.771
302.436
303.367
303.365
302.152
212.671
247.169
271.345
288.025
299.523
307.408
312.788
316.493
319.147
321.243
323.145
325.128
327.355
329.899
332.715
335.681
338.555
340.994
342.501
342.665
247.081
284.815
310.573
327.627
338.633
345.426
349.334
351.378
352.34
352.853
353.394
354.347
355.969
358.401
361.628
365.55
369.937
374.411
378.392
381.134
284.595
324.947
351.446
367.831
377.157
381.589
382.733
381.878
379.965
377.849
376.058
375.142
375.524
377.459
380.88
385.728
391.925
399.039
406.359
413.034
324.838
366.769
392.659
406.782
412.661
413.025
409.751
404.304
397.762
391.076
385.442
381.647
380.132
381.411
384.71
389.95
397.972
408.231
420.174
432.748
367.323
409.228
432.483
441.981
442.233
436.155
425.767
413.298
401.269
390.241
381.084
374.416
370.493
369.36
372.059
378.935
388.802
401.769
417.59
435.501
411.541
451.049
468.588
470.65
461.999
445.889
427.021
406.989
387.052
369.274
354.465
343.219
336.049
333.274
334.962
341.329
352.785
369.453
391.108
417.236
457.087
490.437
498.654
489.039
467.253
439.385
408.266
377.594
349.341
324.838
304.851
289.782
279.841
275.204
275.859
281.847
294.204
313.593
340.628
375.39
503.452
525.779
519.681
492.102
453.02
408.902
364.743
323.934
288.425
259.062
235.989
219.009
207.85
202.378
202.45
207.973
220.551
241.66
273.255
316.945
550.892
556.267
526.174
474.75
413.612
352.05
295.958
248.298
209.914
180.319
158.428
143.127
133.524
129.128
129.669
135.217
147.712
169.679
205.373
259.069
601.239
577.905
513.427
429.784
344.569
268.922
207.663
161.216
127.804
104.648
88.9831
79.0429
73.5902
72.0344
74.1937
80.9782
94.3678
117.804
159.295
231.411
654.793
581.747
468.695
349.458
246.805
170.036
117.536
83.5084
63.0756
51.2302
44.6547
41.4322
40.5043
41.5884
45.1375
52.5108
66.3102
92.4919
148.149
246.492
697.378
547.725
376.244
234.914
138.479
82.2833
53.3814
39.3236
32.128
28.3215
26.3653
25.6754
26.164
27.8915
31.5549
38.7679
53.4014
85.8954
161.821
342.003
697.354
439.186
231.344
111.454
59.2882
38.0442
28.4611
23.6987
21.1964
19.8828
19.2974
19.2844
19.8828
21.3905
24.5674
31.2194
46.3261
85.6223
206.876
540.712
578.418
243.595
98.6468
49.6742
31.4608
23.7106
20.0415
18.1761
17.1889
16.6685
16.4437
16.4744
16.8507
17.8725
20.2076
25.5816
39.4241
81.7751
235.037
731.36
406.326
135.321
54.5935
30.3511
21.8239
18.3669
16.7847
15.9937
15.581
15.365
15.2715
15.2796
15.4357
15.8946
17.1385
20.4137
29.9859
63.9394
209.061
767.639
411.924
97.5491
36.4741
22.3406
18.0039
16.3058
15.5329
15.1635
14.9908
14.9113
14.8805
14.8865
14.9529
15.159
15.7108
17.0674
20.9559
35.1605
108.85
544.98
291.864
57.2681
23.7154
17.0025
15.3638
14.9517
14.8645
14.8481
14.8346
14.819
14.8118
14.812
14.8174
14.8088
14.7805
14.8436
15.3198
17.8843
32.1272
106.532
11.796
11.7584
11.7142
11.671
11.6297
11.591
11.5558
11.5249
11.499
11.4787
11.4644
11.4564
11.4544
11.4584
11.468
11.4829
11.5025
11.5264
11.5544
11.5865
11.8132
11.7749
11.7304
11.687
11.6455
11.6066
11.5713
11.5402
11.5142
11.4937
11.4793
11.4712
11.4694
11.4738
11.484
11.4993
11.519
11.543
11.5709
11.6027
11.824
11.7856
11.741
11.6976
11.656
11.6172
11.582
11.551
11.525
11.5044
11.4897
11.4813
11.4789
11.483
11.4932
11.5085
11.528
11.5516
11.5791
11.6103
11.8324
11.7941
11.7497
11.7065
11.6652
11.6267
11.5918
11.5611
11.5351
11.5143
11.4988
11.4885
11.485
11.4879
11.4967
11.5115
11.5304
11.5536
11.5809
11.6119
11.8406
11.8025
11.7583
11.7155
11.6746
11.6362
11.6011
11.5696
11.5427
11.5209
11.5045
11.4935
11.4895
11.4912
11.4981
11.5108
11.5285
11.5515
11.5797
11.6112
11.85
11.8115
11.767
11.7236
11.6816
11.6419
11.6053
11.572
11.5439
11.5214
11.5047
11.4944
11.4906
11.4923
11.4989
11.5097
11.5265
11.55
11.5785
11.6101
11.8552
11.8163
11.7712
11.7266
11.6829
11.642
11.6045
11.5706
11.5428
11.5208
11.5042
11.4937
11.4898
11.4913
11.4975
11.5091
11.5258
11.549
11.5761
11.6072
11.8555
11.8158
11.7701
11.725
11.681
11.6414
11.6049
11.5723
11.5448
11.5224
11.5047
11.4935
11.4889
11.4901
11.4963
11.5089
11.5259
11.5477
11.574
11.6048
11.8539
11.8144
11.7688
11.7235
11.6807
11.6423
11.6059
11.5733
11.5454
11.5223
11.5039
11.4921
11.4873
11.4888
11.4963
11.5093
11.5267
11.5489
11.5757
11.6066
11.8533
11.8148
11.7694
11.7235
11.68
11.6406
11.6038
11.5711
11.5433
11.5208
11.5036
11.4918
11.4868
11.4882
11.4959
11.5094
11.5285
11.5529
11.5812
11.6125
11.856
11.8155
11.7695
11.7233
11.6798
11.6395
11.6021
11.5688
11.5412
11.5199
11.5038
11.4942
11.4899
11.4914
11.4992
11.5131
11.5327
11.557
11.5853
11.6164
11.8583
11.8166
11.7696
11.7249
11.6818
11.6413
11.6035
11.5701
11.5427
11.5218
11.5061
11.4973
11.4937
11.496
11.5043
11.5181
11.5366
11.5586
11.585
11.6154
11.8589
11.8177
11.7715
11.7268
11.6826
11.6408
11.603
11.5699
11.5424
11.521
11.5056
11.4964
11.4936
11.4968
11.5059
11.5199
11.5377
11.5583
11.5831
11.6134
11.8591
11.8183
11.7718
11.7262
11.6823
11.6408
11.6033
11.5704
11.5428
11.521
11.5046
11.4953
11.4934
11.4969
11.506
11.5198
11.537
11.5577
11.5836
11.6137
11.8578
11.8172
11.7709
11.7255
11.6823
11.6411
11.6035
11.5707
11.5434
11.5218
11.5064
11.4978
11.4956
11.4984
11.5072
11.5208
11.5382
11.5608
11.5874
11.6176
11.8574
11.8174
11.7715
11.7258
11.6807
11.6391
11.6014
11.5694
11.5428
11.522
11.5078
11.4996
11.4979
11.5019
11.5117
11.5265
11.5456
11.5688
11.5955
11.6254
11.8573
11.8161
11.7706
11.726
11.6814
11.6403
11.603
11.5707
11.5432
11.5219
11.5076
11.5003
11.5
11.5049
11.5154
11.5306
11.5499
11.573
11.5996
11.6294
11.8576
11.8162
11.77
11.7263
11.6825
11.6407
11.6029
11.5696
11.5412
11.5203
11.507
11.4996
11.4983
11.5032
11.5139
11.5302
11.55
11.5732
11.5995
11.6285
11.8588
11.8177
11.7711
11.7264
11.6825
11.6403
11.6026
11.5698
11.5426
11.5215
11.5071
11.4992
11.4976
11.5021
11.5129
11.5295
11.5496
11.5729
11.5991
11.6278
11.862
11.8214
11.7752
11.7301
11.6868
11.6461
11.6089
11.576
11.5486
11.5271
11.5124
11.5043
11.5024
11.5067
11.5171
11.5329
11.5534
11.577
11.6035
11.6331
11.8677
11.8279
11.7829
11.739
11.6967
11.6564
11.6189
11.5855
11.5572
11.5349
11.5194
11.5107
11.5084
11.5121
11.5221
11.5372
11.5571
11.5808
11.6062
11.635
11.8732
11.8334
11.7887
11.7454
11.7035
11.6633
11.6261
11.5933
11.5656
11.5437
11.5278
11.5182
11.5152
11.5183
11.5276
11.5408
11.5586
11.5813
11.6063
11.6342
11.8774
11.8366
11.7909
11.7468
11.705
11.6641
11.6272
11.5954
11.5693
11.5487
11.5338
11.5248
11.522
11.5248
11.5334
11.546
11.5629
11.5838
11.6083
11.6363
11.8815
11.8396
11.7924
11.7471
11.7051
11.6629
11.6255
11.594
11.5684
11.5491
11.5354
11.5273
11.5247
11.5274
11.5355
11.5485
11.5656
11.5859
11.6085
11.6369
11.8866
11.8436
11.7954
11.7492
11.7067
11.6648
11.6272
11.5945
11.5671
11.5475
11.5337
11.5263
11.5231
11.5254
11.5335
11.5467
11.5643
11.5853
11.609
11.6372
11.8928
11.8487
11.7993
11.7519
11.7078
11.6661
11.6283
11.5952
11.5672
11.5463
11.5322
11.525
11.5215
11.5241
11.5327
11.5465
11.5648
11.5871
11.6128
11.6418
11.9003
11.8555
11.8053
11.7567
11.7108
11.6683
11.6303
11.5973
11.5703
11.5495
11.5353
11.5275
11.5254
11.5289
11.5382
11.5524
11.5711
11.5936
11.6196
11.6487
11.9087
11.8635
11.8128
11.7638
11.7175
11.6747
11.6366
11.6036
11.5767
11.556
11.5419
11.5343
11.5325
11.5363
11.5459
11.5604
11.5793
11.6019
11.6278
11.6566
11.9178
11.8722
11.8211
11.7717
11.725
11.6821
11.6438
11.6109
11.584
11.5634
11.5494
11.542
11.5404
11.5445
11.5543
11.5691
11.5881
11.6108
11.6366
11.6652
11.9276
11.8815
11.83
11.7801
11.733
11.6897
11.6511
11.618
11.591
11.5704
11.5567
11.5495
11.5483
11.5527
11.563
11.5781
11.5974
11.6202
11.6461
11.6745
11.9385
11.8919
11.8398
11.7893
11.7417
11.6978
11.6588
11.6253
11.5981
11.5775
11.564
11.5571
11.5562
11.561
11.5717
11.5872
11.6069
11.6299
11.6559
11.6842
11.9508
11.9037
11.8511
11.8001
11.7519
11.7074
11.6679
11.634
11.6065
11.5858
11.5723
11.5655
11.5647
11.5698
11.5808
11.5966
11.6166
11.6399
11.666
11.6942
11.965
11.9174
11.8644
11.8128
11.764
11.719
11.679
11.6447
11.617
11.5961
11.5824
11.5756
11.5748
11.58
11.5909
11.6068
11.6267
11.65
11.6759
11.7038
11.9814
11.9333
11.8798
11.8277
11.7784
11.733
11.6926
11.6579
11.6299
11.6088
11.5951
11.5882
11.5874
11.5925
11.6034
11.6191
11.6388
11.6617
11.6873
11.7148
12.0001
11.9517
11.8977
11.8452
11.7954
11.7495
11.7087
11.6737
11.6455
11.6244
11.6106
11.6037
11.6029
11.6081
11.619
11.6346
11.6542
11.6768
11.7019
11.729
12.0216
11.9728
11.9185
11.8655
11.8153
11.7689
11.7277
11.6925
11.6641
11.6429
11.6291
11.6224
11.6217
11.6271
11.6381
11.6538
11.6732
11.6957
11.7204
11.7469
12.0464
11.9973
11.9427
11.8892
11.8385
11.7917
11.7502
11.7147
11.6862
11.6649
11.6511
11.6443
11.6438
11.6496
11.6609
11.6766
11.6961
11.7183
11.7426
11.7683
12.0751
12.0258
11.9709
11.917
11.8659
11.8186
11.7767
11.741
11.7123
11.691
11.6773
11.6707
11.6704
11.6764
11.6878
11.7037
11.723
11.7449
11.7687
11.7936
12.1084
12.0589
12.0038
11.9496
11.8981
11.8504
11.8082
11.7722
11.7434
11.722
11.7084
11.7019
11.7018
11.7079
11.7195
11.7353
11.7545
11.776
11.799
11.823
12.147
12.0975
12.0423
11.9878
11.9359
11.8879
11.8453
11.809
11.7801
11.7587
11.7451
11.7386
11.7387
11.7449
11.7565
11.7722
11.7911
11.8121
11.8343
11.8571
12.1914
12.142
12.0869
12.0323
11.9801
11.9318
11.8889
11.8523
11.8232
11.8017
11.7881
11.7817
11.7818
11.7881
11.7996
11.8151
11.8336
11.8539
11.8751
11.8965
12.2426
12.1936
12.1386
12.0839
12.0315
11.9829
11.9397
11.903
11.8736
11.852
11.8384
11.832
11.8321
11.8384
11.8497
11.8649
11.8829
11.9023
11.9223
11.942
12.3016
12.253
12.1985
12.1439
12.0913
12.0424
11.999
11.962
11.9324
11.9107
11.897
11.8906
11.8906
11.8968
11.9079
11.9227
11.94
11.9584
11.977
11.9948
12.3697
12.3218
12.2679
12.2134
12.1609
12.1118
12.0681
12.0309
12.0011
11.9793
11.9654
11.9589
11.9589
11.9649
11.9757
11.99
12.0064
12.0235
12.0404
12.056
12.4484
12.4015
12.3485
12.2945
12.242
12.1929
12.149
12.1115
12.0816
12.0595
12.0455
12.0389
12.0388
12.0445
12.0549
12.0684
12.0837
12.0994
12.1142
12.1272
12.5398
12.4943
12.4425
12.3893
12.3371
12.288
12.244
12.2064
12.1762
12.1539
12.1397
12.1329
12.1325
12.1379
12.1476
12.1603
12.1743
12.1881
12.2005
12.2103
12.6463
12.6028
12.5528
12.5006
12.449
12.4002
12.3562
12.3184
12.288
12.2655
12.251
12.2439
12.2432
12.248
12.2569
12.2683
12.2806
12.2922
12.3016
12.3076
12.7713
12.7305
12.6829
12.6323
12.5817
12.5333
12.4894
12.4516
12.421
12.3982
12.3833
12.3758
12.3746
12.3786
12.3864
12.3962
12.4064
12.4151
12.4209
12.4222
12.9188
12.8816
12.8374
12.7891
12.7399
12.6923
12.6489
12.6111
12.5804
12.5573
12.5419
12.5338
12.5318
12.5347
12.541
12.5486
12.556
12.5611
12.5622
12.5579
13.0942
13.062
13.0224
12.9773
12.9304
12.8842
12.8415
12.804
12.7733
12.7497
12.7336
12.7246
12.7215
12.7228
12.7269
12.7317
12.7353
12.7357
12.731
12.7196
13.3045
13.2791
13.2459
13.2056
13.1619
13.1179
13.0765
13.0397
13.009
12.9849
12.9678
12.9573
12.9526
12.9518
12.9528
12.9536
12.9522
12.9465
12.9343
12.9138
13.559
13.5431
13.519
13.4855
13.4467
13.4061
13.3669
13.3313
13.3008
13.2763
13.2579
13.2454
13.2381
13.2339
13.2305
13.2257
13.2176
13.2037
13.1816
13.1492
13.8702
13.8682
13.8572
13.8336
13.8022
13.7668
13.7311
13.6973
13.6675
13.6425
13.6224
13.6071
13.5959
13.5866
13.5766
13.5641
13.5466
13.5213
13.4858
13.4377
14.2586
14.2754
14.2828
14.2736
14.2531
14.2257
14.1953
14.1648
14.1362
14.1105
14.0883
14.0692
14.0521
14.035
14.0156
13.9917
13.9604
13.9192
13.8652
13.7958
14.7516
14.7927
14.8277
14.8398
14.8356
14.8203
14.7983
14.7728
14.7462
14.7197
14.6939
14.6686
14.6427
14.6143
14.581
14.5404
14.4896
14.4258
14.3459
14.2471
15.394
15.4729
15.5394
15.583
15.6027
15.606
15.5972
15.5797
15.5564
15.5288
15.4978
15.4632
15.424
15.3784
15.3242
15.2587
15.1792
15.0826
14.9657
14.8253
16.2418
16.3768
16.4986
16.5776
16.631
16.665
16.6766
16.6715
16.6535
16.6245
16.5856
16.5369
16.4775
16.4059
16.32
16.2174
16.0953
15.9506
15.78
15.58
17.3851
17.6046
17.8101
17.9567
18.054
18.118
18.1611
18.1749
18.1651
18.1342
18.0836
18.0136
17.9237
17.813
17.6795
17.5213
17.3357
17.1198
16.8704
16.5838
18.9488
19.2951
19.6249
19.8708
20.0446
20.157
20.2263
20.2705
20.2737
20.241
20.1737
20.0725
19.9376
19.7684
19.5641
19.323
19.0431
18.7219
18.3565
17.9431
21.1157
21.6483
22.1601
22.5506
22.8349
23.0271
23.1414
23.2027
23.2299
23.1969
23.1072
22.9618
22.7619
22.5081
22.2003
21.8382
21.4204
20.9453
20.4102
19.8119
24.1345
24.9344
25.705
26.3004
26.7402
27.0444
27.2324
27.322
27.3485
27.3279
27.2099
27.0049
26.7158
26.3443
25.8918
25.3588
24.7453
24.0503
23.272
22.4077
28.3257
29.4942
30.6164
31.4863
32.1313
32.579
32.8566
32.9895
33.0322
33.0164
32.863
32.5835
32.1804
31.6559
31.0123
30.2508
29.3721
28.3758
27.2606
26.0239
34.0663
35.7154
37.286
38.4988
39.3946
40.012
40.385
40.5584
40.6289
40.6248
40.4433
40.0852
39.5521
38.8467
37.9713
36.9266
35.7126
34.3275
32.769
31.0335
41.7461
43.9781
46.0771
47.6833
48.8609
49.6691
50.1575
50.3771
50.4326
50.4218
50.2592
49.8331
49.1708
48.2761
47.1492
45.7869
44.1849
42.3365
40.234
37.8689
51.7038
54.5877
57.258
59.2748
60.7365
61.732
62.3407
62.6295
62.693
62.6779
62.5124
62.0303
61.2598
60.1973
58.8335
57.156
55.1506
52.7996
50.083
46.9797
64.1794
67.7429
70.9905
73.4062
75.1292
76.2787
76.962
77.2895
77.3787
77.3875
77.2513
76.7559
75.9315
74.7601
73.2123
71.263
68.8821
66.0351
62.6816
58.7764
79.3326
83.5834
87.407
90.2125
92.1774
93.4499
94.1304
94.4235
94.5527
94.6278
94.5442
94.0879
93.292
92.1132
90.4607
88.3131
85.6131
82.3086
78.3346
73.61
97.3292
102.295
106.73
109.957
112.165
113.604
114.445
114.838
115.082
115.268
115.124
114.643
113.798
112.556
110.863
108.618
105.654
101.927
97.3546
91.8114
118.452
124.215
129.372
133.165
135.826
137.646
138.794
139.401
139.656
139.783
139.799
139.367
138.487
137.131
135.254
132.768
129.527
125.364
120.181
113.799
143.17
149.858
155.881
160.396
163.735
166.112
167.707
168.676
169.096
169.186
169.24
168.954
168.053
166.576
164.481
161.676
157.993
153.315
147.465
140.178
172.197
179.986
187.038
192.378
196.407
199.402
201.558
203.004
203.828
204.168
204.286
204.063
203.133
201.524
199.184
196.029
191.933
186.72
180.139
171.846
206.519
215.654
223.97
230.323
235.178
238.856
241.579
243.493
244.699
245.296
245.54
245.464
244.617
243.007
240.562
237.176
232.697
226.908
219.502
210.047
247.393
258.176
268.05
275.66
281.545
286.08
289.519
292.02
293.666
294.584
295.119
295.279
294.599
293.044
290.525
286.915
282.026
275.595
267.243
256.438
296.38
309.164
320.936
330.082
337.237
342.837
347.187
350.475
352.809
354.249
355.024
355.414
355.057
353.634
351.099
347.299
342.001
334.882
325.471
313.111
355.411
370.589
384.634
395.626
404.308
411.201
416.668
420.942
424.161
426.4
427.749
428.425
428.366
427.155
424.707
420.808
415.157
407.351
396.804
382.7
426.834
444.823
461.535
474.688
485.162
493.577
500.368
505.819
510.096
513.283
515.414
516.666
517.102
516.296
514.148
510.335
504.48
496.078
484.393
468.41
513.484
534.689
554.445
570.054
582.561
592.709
601.027
607.861
613.419
617.804
621.035
623.192
624.311
624.169
622.608
619.207
613.438
604.672
591.986
574.109
618.699
643.45
666.548
684.826
699.531
711.561
721.562
729.964
737.029
742.893
747.587
751.099
753.319
754.145
753.517
751.029
745.843
737.165
723.837
704.264
746.309
774.757
801.308
822.288
839.194
853.118
864.852
874.935
883.702
891.333
897.863
903.249
907.316
909.759
910.449
909.431
905.65
897.847
884.592
863.881
900.481
932.431
962.192
985.577
1004.39
1019.96
1033.26
1044.99
1055.56
1065.22
1074.03
1081.93
1088.69
1093.92
1097.03
1097.85
1096.38
1090.77
1078.83
1058.1
1085.41
1120.08
1152.2
1177.14
1197.07
1213.6
1227.96
1241
1253.29
1265.16
1276.7
1287.85
1298.33
1307.69
1315.17
1319.76
1321.06
1318.97
1310.42
1291.66
1304.67
1340.31
1373.02
1397.81
1417.28
1433.44
1447.77
1461.35
1474.93
1488.95
1503.57
1518.75
1534.18
1549.3
1563.22
1574.72
1582.07
1584.42
1581.25
1567.64
1560.07
1593.57
1623.7
1645.39
1661.76
1675.23
1687.63
1700.31
1714.21
1729.93
1747.73
1767.62
1789.27
1812.08
1835
1856.6
1874.83
1887.02
1891.2
1886.03
1849.93
1876.22
1898.75
1912.76
1921.92
1929.12
1936.62
1946.06
1958.57
1974.94
1995.54
2020.48
2049.47
2081.91
2116.68
2152.21
2186.13
2215.33
2235.38
2242.37
2166.3
2177.98
2185.67
2185.44
2181.49
2177.29
2175.7
2178.55
2187.12
2202.31
2224.62
2254.31
2291.21
2334.83
2384.12
2437.56
2492.66
2545.95
2592.3
2624.73
2493.26
2478.78
2462.01
2439.17
2414.22
2391.52
2375.74
2367.97
2369.28
2380.67
2402.71
2435.85
2480.17
2535.42
2600.8