/*--------------------------------*- C++ -*----------------------------------*\
  =========                 |
  \\      /  F ield         | OpenFOAM: The Open Source CFD Toolbox
   \\    /   O peration     | Website:  https://openfoam.org
    \\  /    A nd           | Version:  6
     \\/     M anipulation  |
\*---------------------------------------------------------------------------*/
FoamFile
{
    version     2.0;
    format      ascii;
    class       volScalarField;
    location    "15";
    object      epsilon;
}
// * * * * * * * * * * * * * * * * * * * * * * * * * * * * * * * * * * * * * //

dimensions      [0 2 -3 0 0 0 0];

internalField   nonuniform List<scalar> 
10000
(
250.678
337.647
199.769
118.961
76.6028
54.49
42.6765
36.1485
32.6343
31.1159
31.2021
32.8982
36.6532
43.4835
55.6222
77.7965
119.786
198.096
331.234
250.899
249.246
337.189
198.078
117.454
76.3835
54.429
42.6675
36.1493
32.6315
31.1073
31.1846
32.7781
36.4197
43.1132
54.9935
77.0637
119.078
197.317
330.831
249.128
247.851
337.345
199.96
119.378
76.1408
54.0925
42.5775
36.1308
32.6303
31.1206
31.2116
32.9393
36.6865
43.5133
55.5078
76.8724
117.803
193.905
329.249
249.4
248.956
336.296
201.07
118.101
76.619
54.7713
42.8163
36.2042
32.635
31.1095
31.2094
32.9408
36.5516
43.3572
55.2623
77.5247
117.56
197.061
332.232
249.338
250.148
338.774
199.475
119.653
76.9322
54.7478
42.5987
36.0307
32.5363
31.0805
31.2024
32.9853
36.887
43.9138
55.9994
77.2507
118.964
198.673
331.851
250.021
248.472
338.537
200.538
118.095
76.7244
54.6871
42.8256
36.206
32.5338
31.0854
31.2143
32.9907
36.8876
43.9607
56.0083
77.0768
119.922
196.492
330.131
248.818
249.592
337.665
198.049
118.566
75.9059
54.1394
42.554
36.1703
32.6345
31.0985
31.2073
32.968
36.8708
44.0018
55.91
78.1386
119.158
197.586
332.443
250.504
247.259
337.23
198.53
119.648
76.5925
54.4016
42.7299
36.1712
32.6328
31.0875
31.1868
32.9476
36.6755
44.0729
56.8581
79.637
120.435
198.746
332.638
251.253
248.365
335.105
198.556
118.369
77.2551
54.5175
42.5129
35.9664
32.5822
31.0543
31.1601
32.9474
36.8305
44.0639
56.8903
79.8528
122.243
201.28
332.421
252.62
249.783
336.146
200.824
120.563
77.3575
54.4602
42.6313
36.0328
32.5846
31.0415
31.1295
32.9122
36.5929
43.9431
56.8481
79.8153
122.002
201.376
332.599
254.825
249.431
337.203
198.083
119.791
77.0959
54.8124
42.8222
36.0582
32.5473
30.9082
31.1001
32.9013
36.7717
43.6025
56.7355
79.6374
120.013
200.912
335.464
257.254
249.107
335.079
201.1
118.179
76.1314
54.3482
42.5999
36.1709
32.5565
30.9746
31.0418
32.7347
36.741
43.8872
56.6533
79.7787
122.634
199.001
335.012
257.771
248.302
338.15
200.784
118.749
77.3152
55.1219
42.9192
36.2102
32.4496
30.8431
30.8881
32.8444
36.683
43.5124
56.4067
79.5225
122.615
201.328
334.076
255.121
250.252
338.288
198.546
118.95
76.6876
54.9998
42.6805
36.1702
32.6094
31.0465
31.0343
32.8664
36.5247
43.6496
56.1711
79.2363
122.46
201.012
331.302
254.056
250.188
338.177
201.844
120.273
77.4459
55.0231
42.9154
36.0586
32.4997
31.0689
31.1723
32.9051
36.6979
43.57
55.4057
78.0602
122.128
200.548
331.48
252.017
249.984
338.019
201.297
118.32
76.321
54.7909
42.8981
36.1996
32.5989
31.0539
31.1465
32.9012
36.7104
43.4483
55.8954
79.3704
122.152
200.358
332.213
249.833
249.42
337.569
200.689
120.151
77.1424
54.4387
42.805
36.1599
32.5636
31.0042
31.0902
32.865
36.7223
43.7632
56.3377
79.3914
122.009
199.863
331.31
248.533
247.999
337.245
198.041
118.416
76.1647
54.4242
42.6084
35.9442
32.3751
30.8268
31.026
32.8108
36.6884
43.7379
56.2852
79.1961
121.894
199.59
329.151
247.614
248.549
336.775
199.29
120.095
77.0437
54.7286
42.8328
36.102
32.4801
30.8475
30.8646
32.5888
36.6204
43.6569
56.1679
78.9982
121.613
197.906
330.287
247.921
249.94
336.465
198.961
118.857
77.8357
55.1286
42.7402
35.9573
32.3655
30.8519
30.8911
32.6235
36.5923
43.5873
56.0612
78.8519
120.68
200.716
331.765
248.307
249.921
334.049
200.928
121.346
78.0335
55.0915
42.962
36.1973
32.5542
30.9647
30.9026
32.6275
36.5494
43.282
55.4909
78.0903
122.322
200.727
329.473
248.121
248.509
335.715
200.302
120.909
77.8085
54.5144
42.8363
36.2019
32.5776
30.9607
30.9114
32.7131
36.5924
43.6327
56.1252
79.0732
122.145
200.356
332.065
250.097
250.254
333.858
197.638
119.421
77.1023
54.5618
42.6287
36.0309
32.4231
30.8199
30.9046
32.5605
36.5082
43.5426
56.0007
78.9051
121.696
197.917
330.257
248.697
250.139
336.997
200.167
122.029
78.3455
54.8332
42.8743
36.2129
32.5611
30.8968
31.0363
32.6874
36.287
43.1973
55.7289
77.8969
120.384
201.129
333.403
251.667
249.559
336.687
202.221
122.299
78.3106
55.1187
43.1438
36.4041
32.7031
30.9295
31.0622
32.6169
36.3891
43.4986
55.4441
78.8397
121.758
200.585
333.56
253.251
252.45
336.129
201.947
122.18
78.1386
54.4527
43.1114
36.429
32.7607
31.0034
31.0931
32.7312
36.5077
43.5944
56.1133
78.6619
121.284
197.966
333.869
254.887
251.951
333.082
199.718
122.147
77.9951
54.9984
43.1961
36.4875
32.8052
31.1456
31.1283
32.6086
36.245
43.5297
56.0695
77.5307
119.698
198.777
334.237
255.281
251.832
334.09
202.984
122.298
77.3051
55.4324
43.1903
36.4867
32.8051
31.1703
31.1736
32.8659
36.467
43.356
56.2015
78.3187
120.814
199.077
334.017
255.578
251.449
334.03
203.067
122.107
77.6634
55.4384
42.8851
36.325
32.7043
31.1458
31.0922
32.9007
36.6998
43.7412
56.2494
79.1202
122.013
200.664
331.82
253.083
250.024
335.402
203.01
121.829
77.9972
55.3103
43.2991
36.5992
32.8536
31.1205
31.184
32.8954
36.6438
43.6635
55.8683
78.9288
121.525
200.041
333.716
253.393
252.714
338.315
202.919
120.303
78.6058
55.9292
43.6494
36.7807
32.9957
31.2704
31.2182
32.7391
36.6646
43.6407
55.9744
78.6681
120.962
197.435
333.029
253.705
255.021
338.602
202.354
121.892
78.7454
55.5552
43.5642
36.7426
32.9613
31.1459
31.0904
32.7455
36.4697
43.506
55.2758
78.2386
120.673
198.318
330.917
253.081
256.827
338.754
200.973
120.394
77.975
55.8696
43.4927
36.6776
32.9309
31.2346
31.2107
32.878
36.6587
43.5587
55.5164
77.3641
118.852
198.538
331.573
251.715
256.58
338.615
200.805
122.255
78.832
55.879
43.4881
36.4823
32.7465
31.1631
31.1724
32.8356
36.6155
43.5132
55.8589
78.3502
119.53
200.126
332.049
252.899
255.919
338.345
202.792
122.225
78.5018
55.2924
43.1415
36.5259
32.7928
31.002
30.9774
32.5854
36.3305
43.1111
55.6783
78.126
119.981
199.771
333.114
252.332
257.255
337.961
202.118
121.654
77.412
55.426
43.2611
36.3845
32.7517
31.0106
31.0557
32.6736
36.5427
43.4302
55.1396
77.0401
117.596
198.832
330.556
251.68
256.62
335.412
199.919
121.166
77.9059
55.7834
43.4143
36.3856
32.638
30.9703
30.9587
32.7518
36.5304
43.4723
55.7134
78.3251
119.627
196.924
332.314
250.543
256.011
337.275
202.291
119.678
78.3817
55.777
43.3847
36.3565
32.6905
31.0358
31.1075
32.7561
36.3185
43.3457
55.0185
78.0477
121.352
197.768
330.459
250.748
255.245
336.58
201.945
120.626
78.3268
55.6802
43.3071
36.3626
32.8187
31.168
31.1178
32.7713
36.514
43.4177
55.2622
76.798
121.301
198.19
331.181
250.539
252.446
335.182
201.14
121.65
77.8648
55.2034
43.3398
36.4085
32.8451
31.1919
31.0304
32.6562
36.3496
43.3876
55.7441
77.9199
121.538
200.253
332.305
249.393
251.433
332.804
200.478
121.431
77.5454
55.6229
43.4009
36.53
32.8607
31.2231
31.2332
32.8934
36.5933
43.1121
55.3861
78.8313
121.162
199.662
330.073
249.966
250.582
335.032
198.244
121.122
78.3554
55.6166
43.3564
36.39
32.8269
31.1949
31.1943
32.8514
36.5837
43.344
56.0042
78.7684
119.6
197.806
332.422
249.114
251.475
332.651
200.299
121.036
78.12
55.0951
43.2935
36.5256
32.8071
31.0506
31.0132
32.7817
36.4327
43.4982
55.872
78.7589
121.487
200.284
330.721
250.772
252.745
333.474
199.616
120.459
77.9287
55.4296
43.2131
36.4645
32.7682
31.0922
31.0148
32.7366
36.4969
43.3852
55.143
78.3138
121.061
200.074
333.203
250.33
253.149
334.644
197.055
118.585
76.93
55.253
42.9416
36.3974
32.7284
31.064
31.053
32.5836
36.3449
43.4049
55.1797
77.244
119.117
197.397
332.829
252.13
253.131
334.074
199.409
120.189
77.7105
55.1865
42.9651
36.2641
32.6207
30.9507
30.9756
32.7243
36.4308
43.4508
55.3357
78.0062
120.488
199.261
331.489
250.856
252.914
332.485
196.264
118.168
76.6595
54.5182
43.0429
36.3778
32.6895
30.9748
31.103
32.8366
36.6423
43.4982
55.5969
76.9563
119.84
198.549
332.914
251.063
251.891
331.176
199.429
120.032
77.6243
55.0166
42.9377
36.2277
32.5858
31.0608
30.9912
32.6587
36.5941
43.4242
55.5618
77.5567
117.878
195.394
332.12
250.707
251.852
332.712
198.893
118.242
76.6189
55.1862
43.165
36.4246
32.7271
31.0946
31.1017
32.7266
36.5669
43.348
55.0638
76.7294
118.138
196.361
330.461
249.565
251.199
329.191
198.212
119.471
77.0889
54.8432
42.8812
36.3517
32.6793
31.0611
31.0783
32.7833
36.5299
43.311
55.3328
76.9893
118.166
197.637
332.232
250.759
249.935
331.21
196.33
117.822
77.4175
54.9652
42.95
36.3353
32.5588
31.0319
30.938
32.7094
36.4407
43.1893
54.8812
77.3502
118.796
195.157
331.665
250.176
250.815
332.661
198.167
119.38
77.2938
54.769
42.9203
36.2229
32.6593
31.0446
31.0517
32.5608
36.1906
42.9061
55.1173
76.3935
117.276
196.821
329.815
250.028
250.3
330.895
197.19
117.385
76.1475
54.7041
43.06
36.3179
32.5625
31.0027
31.0245
32.6041
36.264
42.9388
54.7865
77.1945
118.88
196.088
331.067
248.604
251.4
332.143
194.894
117.689
76.2977
54.9293
43.0746
36.2389
32.6209
30.8689
30.9058
32.6557
36.3469
43.0294
54.8017
76.2472
118.295
192.699
330.363
248.562
249.9
331.357
195.162
118.155
76.1424
54.5362
43.0194
36.3454
32.6545
30.9162
30.9197
32.6452
36.3164
42.8279
55.0291
76.7983
118.175
194.478
329.782
248.145
249.82
330.331
195.459
117.632
76.0113
54.8682
43.0358
36.3479
32.6569
30.9936
30.9822
32.6149
36.2959
43.0069
54.8415
75.7707
117.624
195.279
328.982
247.843
248.25
329.16
192.428
115.59
76.086
54.7411
42.9365
36.3034
32.6465
30.9782
30.9475
32.5769
36.2281
42.7104
54.4168
76.2701
117.04
192.85
325.965
248.525
247.529
326.706
193.436
115.696
75.8005
54.5255
42.836
36.1163
32.5902
30.9401
30.8776
32.4969
36.1768
42.825
54.4646
75.2684
115.353
193.908
326.581
247.903
247.808
327.456
190.812
114.687
74.8214
53.9254
42.696
36.1845
32.5719
30.9068
30.6935
32.2769
35.9797
42.7492
54.1182
75.3637
115.43
193.2
326.537
249.792
248.42
324.479
190.422
114.502
74.8505
53.8982
42.459
35.9755
32.3948
30.8203
30.8075
32.4355
36.1586
42.7387
54.4044
75.5243
115.382
190.489
327.332
249.95
248.504
326.267
189.746
114.518
74.9018
53.8085
42.4911
36.0598
32.4857
30.9482
30.9436
32.5576
36.1176
42.6136
53.9071
75.1187
114.796
190.246
326.209
249.611
248.215
325.102
189.73
113.829
74.5418
53.8497
42.5494
36.1366
32.5511
30.9219
30.8123
32.496
36.058
42.5096
53.9141
74.6598
113.907
188.74
322.79
248.881
247.252
321.513
186.261
111.676
73.5037
53.6161
42.3079
36.0703
32.5088
30.8061
30.8687
32.4466
35.9626
42.3761
53.6724
74.1997
113.133
188.177
323.339
247.598
247.405
321.489
187.114
111.869
73.6345
53.3265
42.4171
35.9419
32.3664
30.8563
30.8447
32.3892
35.8507
42.0127
53.0461
73.0747
112.124
187.981
324.051
248.235
245.626
319.951
185.799
110.91
73.2501
53.3592
42.3643
36.0144
32.3856
30.702
30.6548
32.1707
35.623
41.932
52.9029
72.7488
111.037
186.464
323.255
248.132
245.654
318.758
182.725
109.828
72.2752
53.0975
42.2367
35.8527
32.415
30.7263
30.7183
32.2199
35.5753
41.7611
52.5613
72.025
109.334
184.053
321.677
246.716
244.276
317.123
181.143
108.019
71.7929
52.6442
41.979
35.8895
32.3682
30.6443
30.6536
32.155
35.4848
41.5901
52.2461
71.5019
108.205
181.589
318.355
246.567
243.368
315.423
179.46
107.264
71.2817
52.4894
41.8565
35.6674
32.1465
30.5307
30.5479
32.049
35.4282
41.4778
51.9279
70.8525
107.33
180.687
319.172
245.914
242.397
313.574
177.134
106.234
70.7443
52.2384
41.7107
35.5705
32.0582
30.4321
30.4456
31.9209
35.1478
41.1657
51.555
70.1656
105.875
178.028
315.274
243.672
241.489
312.02
174.973
104.324
69.8464
51.7644
41.5049
35.404
31.9111
30.2523
30.1646
31.6397
34.9643
40.9439
51.2295
69.5138
104.456
175.696
313.942
243.141
240.309
309.143
172.772
103.247
69.3741
51.5062
41.3298
35.261
31.7373
30.041
30.0064
31.4981
34.7964
40.7507
50.9366
68.9806
103.372
173.716
311.614
241.756
238.581
307.505
170.687
101.959
68.6323
51.0695
40.9972
35.017
31.54
29.8655
29.7894
31.2722
34.6092
40.5207
50.5713
68.2956
102.066
171.641
309.071
240.034
237.124
305.222
168.415
100.654
67.929
50.6353
40.6816
34.703
31.2614
29.6669
29.6228
31.1275
34.4614
40.3365
50.2707
67.7093
100.816
169.197
305.704
238.583
235.224
302.672
166.222
99.2173
67.1494
50.1424
40.3236
34.4448
31.0535
29.4875
29.4491
30.9509
34.2582
40.058
49.8497
66.9742
99.394
166.89
303.353
236.718
233.776
299.871
163.613
97.6799
66.3102
49.6701
40.0111
34.1987
30.8292
29.2642
29.2361
30.7636
34.0532
39.7601
49.3762
66.1036
97.6661
163.926
299.564
235.755
231.368
296.58
160.729
95.9517
65.3184
49.0709
39.6216
33.8982
30.5759
29.0289
28.9925
30.4878
33.739
39.3783
48.8026
65.1117
95.8839
160.982
296.645
233.487
228.61
292.793
157.203
93.9152
64.266
48.4676
39.2119
33.58
30.293
28.75
28.7046
30.1635
33.3654
38.9149
48.139
64.0106
93.7744
157.147
292.294
230.835
225.871
287.591
153.13
91.6942
63.0636
47.7207
38.694
33.1819
29.9516
28.4344
28.3985
29.8398
32.982
38.4127
47.3932
62.7355
91.381
152.811
287.294
227.477
221.828
281.081
148.35
89.1178
61.684
46.9024
38.1295
32.7394
29.574
28.086
28.0441
29.4466
32.5131
37.8007
46.5142
61.3049
88.6936
147.681
280.252
221.74
216.58
273.987
143.248
86.3833
60.1793
45.939
37.4347
32.1979
29.1178
27.6691
27.6228
28.9789
31.9548
37.0879
45.4993
59.6385
85.6042
141.808
271.324
215.027
210.713
263.949
137.139
83.2108
58.4407
44.8293
36.6304
31.569
28.5909
27.1882
27.1412
28.4493
31.3249
36.2797
44.3716
57.8313
82.2128
135.189
260.371
206.268
203.822
252.995
130.65
79.8866
56.5439
43.5711
35.6936
30.8169
27.9518
26.604
26.5609
27.8218
30.5914
35.3509
43.0698
55.7408
78.4222
127.875
247.724
196.455
197.14
239.772
123.718
76.4014
54.47
42.123
34.5908
29.9263
27.1898
25.9048
25.8656
27.0734
29.7296
34.2913
41.654
53.6087
74.7123
120.655
234.236
187.988
189.124
224.812
116.306
72.7225
52.2017
40.4857
33.3145
28.8842
26.292
25.0796
25.0508
26.2085
28.7531
33.1242
40.1579
51.4526
71.0402
113.431
220.405
182.446
180.106
208.107
108.56
68.8921
49.7616
38.7112
31.9142
27.7144
25.264
24.1219
24.102
25.2073
27.6378
31.8285
38.59
49.351
67.5629
106.485
206.282
178.982
176.163
192.558
101.29
65.2096
47.2784
36.7907
30.3541
26.4007
24.1075
23.0455
23.0362
24.0841
26.387
30.3725
36.8389
47.1634
64.3948
100.142
192.183
177.979
177.914
178.434
94.5128
61.3834
44.537
34.6998
28.6818
24.9949
22.8658
21.8862
21.8868
22.8737
25.0422
28.817
34.997
44.9876
61.5484
94.2865
179.151
183.205
186.891
166.207
88.6607
57.8692
41.922
32.6256
26.9788
23.5516
21.5839
20.6818
20.6863
21.6034
23.6183
27.1482
32.9941
42.5783
58.5617
88.8556
167.222
186.715
193.448
155.92
83.5817
54.6388
39.4086
30.5868
25.3041
22.131
20.3191
19.4934
19.5009
20.3467
22.203
25.475
30.9606
40.1648
55.9616
85.2842
158.642
198.717
209.184
149.089
80.3633
52.0033
37.1289
28.6945
23.7367
20.7961
19.1312
18.3782
18.3875
19.1612
20.8565
23.8542
28.9254
37.6006
52.9823
81.9849
150.714
210.801
223.574
143.682
77.5227
49.4005
34.9413
26.929
22.3045
19.5964
18.0776
17.3956
17.4042
18.1058
19.6495
22.396
27.0691
35.1395
49.67
78.1567
144.28
224.968
242.301
141.007
75.5746
47.1946
32.9943
25.3645
21.0544
18.5696
17.1945
16.5817
16.5874
17.2138
18.6054
21.1161
25.4644
33.1539
47.3807
75.4941
141.176
244.145
266.201
139.428
73.2822
44.8237
31.0879
23.9096
19.9428
17.7001
16.4779
15.9381
15.9404
16.4865
17.7155
19.9699
23.9525
31.1546
44.9217
73.3904
139.711
264.723
289.167
138.868
70.8677
42.4666
29.2481
22.5492
18.9478
16.9641
15.9072
15.4471
15.4475
15.9095
16.9678
18.9552
22.5668
29.2976
42.5984
71.11
139.052
290.025
316.644
138.816
68.6127
40.0247
27.3339
21.1821
18.0058
16.321
15.4531
15.0827
15.0825
15.4527
16.3197
18.0025
21.1757
27.3226
40.012
68.6434
138.935
316.403
345.284
138.621
65.0595
36.8144
25.1004
19.7275
17.0871
15.7539
15.1019
14.8354
14.8354
15.1018
15.7542
17.0877
19.7309
25.1134
36.8577
65.1721
138.815
345.383
372.61
136.103
59.6953
32.8463
22.6171
18.2392
16.227
15.2783
14.8595
14.7112
14.7113
14.8598
15.2784
16.2254
18.2377
22.6175
32.8595
59.7647
136.319
373
403.016
128.591
51.4216
27.8811
19.8759
16.7651
15.4764
14.9585
14.7547
14.6769
14.677
14.7548
14.9588
15.4766
16.7668
19.8754
27.8804
51.4158
128.549
402.801
432.046
107.566
38.6892
21.9452
17.0578
15.4887
14.9809
14.8082
14.7291
14.6996
14.6999
14.7301
14.8105
14.9841
15.4916
17.0612
21.9535
38.7526
107.827
432.742
466.733
57.5092
21.699
16.2943
15.2407
14.9515
14.8453
14.8044
14.7967
14.7964
14.7964
14.7967
14.8049
14.8461
14.9534
15.2451
16.3007
21.6875
57.462
466.55
682.748
921.251
532.533
295.273
170.794
106.443
72.968
54.9283
45.3071
41.0748
41.0628
45.3873
55.0097
73.6611
107.978
173.433
297.365
529.526
922.361
669.201
680.867
903.012
528.565
293.324
169.998
105.327
71.8398
54.0214
44.4471
40.2202
40.2366
44.9946
54.0926
73.2515
107.275
170.333
290.032
514.994
918.178
668.471
678.709
920.857
518.596
286.31
166.999
105.607
72.3416
54.5858
44.9749
40.7924
40.7624
45.2569
54.862
72.3907
105.844
174.015
299.223
530.444
916.203
669.117
676.591
904.906
534.911
293.831
170.678
106.96
72.7181
55.0694
45.3878
41.2943
41.2634
44.758
54.7824
73.2993
107.503
172.899
296.904
517.566
900.305
669.047
677.975
927.55
532.819
285.884
167.563
106.668
71.5419
54.9684
45.2297
41.2255
41.2488
45.345
54.055
72.2296
105.455
169.04
290.763
532.662
913.371
671.189
677.684
922.872
529.62
290.419
170.679
106.714
72.4623
54.9519
44.4126
40.9539
41.1464
45.2765
54.835
73.3375
107.129
172.271
297.66
518.488
891.064
672.024
676.556
903.466
514.574
281.008
169.813
105.279
72.8592
55.0304
44.6123
40.3865
40.9051
44.9869
54.605
73.0241
105.518
170.899
295.921
526.511
915.497
672.067
674.139
917.362
520.712
290.19
168.589
106.975
72.0366
54.9498
44.8492
40.7853
40.7121
44.1398
53.5869
72.7425
107.024
166.789
287.552
529.155
930.357
668.4
673.026
899.465
521.656
296.763
172.236
106.863
72.5593
55.0302
45.5145
41.243
40.2514
44.3076
54.059
71.835
106.927
167.93
293.757
542.013
927.274
667.965
671.839
904.114
532.559
295.931
171.781
105.064
73.1679
54.9193
45.5096
41.2616
40.5887
44.3009
54.5662
73.1886
106.956
167.485
299.19
541.114
923.234
666.131
669.42
908.774
531.237
294.006
170.872
106.123
73.206
54.2284
45.312
41.1781
41.0137
44.4257
54.3998
72.9883
106.679
167.148
297.258
538.539
904.906
665.893
668.122
927.015
527.79
289.452
167.679
106.852
72.695
55.1792
44.9136
41.0531
41.0309
44.8277
53.5773
72.7354
106.561
167.829
294.642
537.458
923.124
663.81
668.015
926.932
513.295
288.354
171.652
106.289
73.7396
55.5936
45.5644
40.5427
40.8466
44.7579
53.9748
72.4113
106.23
169.646
285.72
532.934
903.849
661.431
668.308
925.769
526.795
294.372
171.866
108.153
73.4494
55.4213
45.4591
40.9118
40.6941
44.4891
52.9844
71.9984
105.557
168.983
294.055
531.069
921.07
659.373
670.94
926.012
511.36
291.895
170.824
107.859
74.4221
54.985
44.9039
40.3239
40.4307
44.0473
53.7223
71.0676
103.503
164.524
286.32
525.691
902.047
656.424
670.956
924.463
520.602
286.041
168.029
106.263
74.2965
55.9062
45.9379
41.199
39.9728
44.7337
54.5057
72.0033
105.15
167.551
293.405
515.002
913.33
653.176
670.599
922.898
531.054
291.732
173.128
108.266
74.2397
55.6795
45.8615
41.2326
39.9884
44.2052
54.3431
72.7879
106.454
169.364
292.314
528.542
922.889
654.196
669.118
907.585
516.463
296.439
172.797
106.613
73.0784
54.8764
45.7936
41.3454
40.2555
44.7569
53.594
72.5426
106.136
168.293
284.103
513.815
917.074
655.711
666.284
929.628
532.983
295.497
172.138
107.86
73.8269
55.3776
45.6668
41.348
40.7828
44.79
54.0274
72.2378
105.612
165.333
287.076
522.993
898.151
655.092
671.017
928.456
517.109
286.592
168.785
107.244
72.8365
54.5178
44.9655
41.2843
40.3147
44.9154
54.3289
71.2278
105.454
166.372
289.327
535.362
910.629
657.884
672.977
924.565
528.229
292.881
171.999
106.152
73.5343
55.2361
45.5721
41.3733
41.0748
44.4812
54.1359
72.1709
105.21
166.629
294.473
534.901
923.337
658.069
672.408
907.985
539.031
297.911
171.566
106.359
72.6243
54.3787
45.3898
41.2289
41.0092
44.94
53.4823
71.0268
103.637
164.968
291.907
530.749
905.637
656.736
674.139
932.551
538.239
290.187
167.431
106.601
72.8215
54.7774
45.218
41.0385
40.8563
44.9545
53.6031
71.8647
106.062
166.259
283.494
527.857
925.394
654.766
678.48
926.5
534.522
300.804
170.438
107.959
72.918
55.2526
44.6614
40.7527
40.1036
44.8264
53.7795
72.3893
105.97
169.289
289.266
514.505
920.921
654.51
676.812
905.813
517.667
299.179
171.96
108.005
73.1938
55.2894
45.3522
40.3292
40.2714
44.7955
54.332
71.792
104.643
166.918
296.467
527.531
905.564
655.096
673.324
921.378
537.775
298.971
170.77
107.7
73.7797
54.9681
45.1396
40.6848
40.5663
44.6197
54.2777
72.5638
106.296
171.184
295.688
517.179
928.22
654.92
673.967
931.129
533.781
296.552
166.545
107.32
73.6335
54.7299
44.6791
40.0521
40.3761
44.4004
53.996
72.1857
105.498
169.982
294.188
533.278
924.463
653.349
667.5
925.61
519.283
294.086
167.716
107.215
73.4316
55.2039
45.2209
40.6702
39.8338
43.6117
53.6191
71.486
104.643
168.682
291.513
528.726
921.258
656.614
665.155
908.954
533.631
288.936
168.164
107.196
73.1807
55.0255
45.0617
40.2272
40.297
44.3896
53.6022
72.3306
102.758
164.999
282.755
513.904
914.518
655.865
661.843
915.707
531.4
294.258
171.074
107.11
72.1825
54.7313
44.4975
40.6677
39.7859
43.8953
54.5413
72.5238
103.539
166.692
286.227
523.779
898.557
659.922
660.365
922.405
528.13
292.033
170.481
106.914
72.9508
54.6806
44.8175
40.7155
40.4927
44.677
54.5503
72.6042
104.412
168.119
288.348
531.926
915.759
660.721
658.183
903.789
512.603
283.762
169.602
106.515
72.652
53.8901
45.1973
40.103
39.6752
43.8648
54.3477
72.504
106.076
171.846
294.97
529.217
927.117
663.806
657.765
919.733
521.364
288.586
169.443
106.168
72.2797
54.2426
45.3665
40.4489
40.1542
44.3067
54.2876
72.268
104.176
171.402
293.795
515.655
906.639
661.942
656.862
898.96
527.326
291.902
168.417
105.617
71.1657
54.6012
45.3466
40.5441
40.6098
44.6296
54.0535
72.109
106.255
170.76
292.309
526.536
917.264
658.461
656.752
909.837
524.493
289.541
164.868
104.209
72.1823
54.2462
45.067
40.7638
40.1978
43.8698
53.1149
71.0044
105.776
169.672
286.395
515.128
926.631
656.149
657.777
920.918
512.554
282.206
165.679
105.025
72.8961
55.072
45.3802
41.2301
41.3433
44.8022
54.086
72.4218
105.496
169.124
294.36
530.725
922.917
654.767
658.001
905.289
518.14
286.103
167.054
105.589
72.6445
54.8741
44.9895
40.5563
41.3728
45.5107
54.8413
72.297
103.752
167.868
292.321
526.785
904.132
653.756
657.808
922.381
523.458
289.495
164.542
105.127
72.1471
54.6893
44.6626
40.9052
41.3777
45.595
54.9499
72.3552
105.3
164.132
290.105
524.401
911.957
654.409
656.856
905.459
516.425
287.018
167.621
104.152
72.1424
54.3555
44.9972
41.3395
41.3151
45.5633
54.9264
72.0808
105.373
165.531
283.16
510.638
914.117
654.854
657.046
914.791
511.949
281.827
166.773
104.966
73.2487
55.4406
45.5971
41.2764
41.1949
45.5721
54.9912
71.0673
105.263
167.161
288.228
515.951
929.175
657.868
655.217
907.568
522.816
289.531
166.318
103.647
73.0503
55.3724
45.3955
40.6132
40.8665
45.4012
55.0404
72.5185
105.054
164.109
282.821
519.673
927.557
658.748
653.044
884.448
512.129
287.612
164.163
104.304
72.9902
55.3003
45.5859
41.1881
40.2183
44.7737
54.8813
72.2636
104.879
167.1
289.456
530.503
922.887
658.543
652.575
892.723
524.596
286.502
163.921
105.026
72.2803
55.0358
44.9623
41.1678
40.7414
45.2424
54.8831
71.3776
103.345
163.722
280.852
528.358
909.814
661.494
652.871
894.068
523.236
283.433
164.503
103.978
72.5813
54.948
45.3065
41.005
40.7972
44.6081
54.8173
73.0319
105.693
166.245
282.957
525.519
929.276
660.789
652.852
905.294
521.386
275.019
166.539
104.612
72.9248
54.2825
45.0689
40.7337
40.3656
44.7298
54.199
72.8559
105.331
163.468
283.019
512.033
916.779
660.729
653.637
907.94
519.724
281.878
166.798
105.283
72.8211
54.4304
44.4121
40.3608
39.9865
44.9601
54.6446
72.7513
105.235
166.371
287.666
528.895
933.97
659.635
656.339
888.763
515.873
286.247
166.263
104.005
72.2509
54.7549
44.7592
39.7544
39.9193
44.8436
53.8965
72.3883
103.66
162.503
280.258
525.841
932.257
660.451
655.636
903.101
513.116
284.443
165.539
105.135
72.7145
54.666
44.2679
39.8804
40.0447
44.7985
54.0768
72.2999
104.713
164.499
287.047
522.591
927.013
660.332
656.145
886.323
502.156
282.707
162.622
103.716
71.7578
54.0223
44.7498
40.0158
39.7993
44.6734
54.277
71.962
104.347
165.233
284.739
509.467
907.412
661.041
655.474
888.823
511.304
281.461
164.093
104.187
71.8518
54.0249
44.2334
40.3043
39.9691
44.1278
54.0465
71.6267
102.714
163.966
283.087
511.482
910.053
658.737
655.624
889.983
509.006
279.27
163.044
103.032
71.4508
53.7537
44.1556
39.7761
40.3071
44.4474
53.8399
71.3706
103.144
162.499
276.731
505.95
904.088
654.966
655.063
897.725
505.18
272.342
159.918
102.733
71.2154
53.5087
43.9589
40.0708
40.1347
44.2195
53.5348
70.9657
102.542
161.07
279.386
504.942
907.787
651.117
655.785
880.523
500.931
274.957
160.541
102.599
70.9414
53.2051
43.6545
39.2931
39.7803
43.9074
53.1418
70.4671
101.792
159.289
277.32
502.361
916.12
650.347
655.444
894.782
496.639
268.601
160.475
102.624
70.602
52.7779
43.3842
39.1791
39.4979
43.5944
52.7723
70.0169
101.17
159.808
271.054
499.26
907.215
649.713
655.264
877.433
483.929
271.343
159.647
102.085
70.2989
52.5912
43.1783
39.2467
39.1242
42.7368
52.2603
69.4485
100.014
157.315
270.455
496.577
905.093
648.345
654.295
880.789
491.288
266.295
156.684
100.696
69.8563
52.1106
42.839
38.9246
38.781
42.5064
51.8347
68.4859
99.2866
157.273
270.075
494.452
925.818
647.749
654.499
879.287
479.337
266.363
156.225
100.558
69.7548
51.7921
42.3382
38.0087
37.8199
41.8285
50.9458
68.0352
98.8179
155.884
267.482
492.131
922.609
647.275
650.884
884.835
478.927
264.407
154.913
99.9485
69.3781
51.4898
41.8774
37.5971
37.3431
41.2567
50.3928
67.4179
97.797
152.721
264.514
494.066
917.323
645.249
651.341
879.645
475.5
259.042
153.668
98.9626
68.4516
51.0322
41.3416
36.9841
36.7211
40.6982
49.8799
66.911
96.7439
151.203
261.207
488.731
910.571
640.421
641.345
870.583
476.176
257.694
152.364
98.3126
67.7875
50.4276
40.9542
36.5548
36.1864
40.1529
49.2807
66.2821
96.0957
149.606
254.285
474.047
890.066
630.977
639.695
872.31
470.915
254.558
151.204
97.6464
67.1907
49.5924
40.2969
36.0145
35.7201
39.547
48.7362
65.5509
95.2966
148.296
252.071
474
904.226
622.734
637.849
865.381
463.389
253.168
150.364
96.9664
66.5488
49.0788
39.6085
35.4952
35.2697
39.081
48.1123
64.9589
94.5608
147.179
248.496
471.494
883.956
618.985
636.848
845.827
452.119
248.585
149.176
96.1311
65.8085
48.4909
39.183
35.0891
34.8306
38.5405
47.42
64.2155
93.8268
146.125
245.812
466.088
893.277
616.65
633.294
853.73
451.725
246.628
148.047
95.3788
65.1983
47.9085
38.6409
34.669
34.3338
38.0053
46.8687
63.5011
92.9072
144.655
242.342
451.492
885.696
615.632
627.942
830.917
440.045
243.616
146.838
94.4694
64.4716
47.3418
38.1189
34.0657
33.7827
37.405
46.186
62.7357
92.0483
143.288
239.227
447.62
876.238
603.757
622.443
843.29
438.25
240.874
145.364
93.4943
63.7956
46.7838
37.5297
33.5043
33.2096
36.8501
45.5124
61.877
90.9299
141.722
235.964
439.138
855.406
601.79
620.859
844.621
432.136
237.942
143.908
92.4613
62.9172
46.0961
36.9243
32.8525
32.6618
36.2332
44.7377
60.9178
89.7292
139.863
232.177
433.337
865.087
592.818
619.692
825.312
425.554
234.532
142.073
91.221
62.0301
45.3898
36.3387
32.3264
32.115
35.6491
44.0478
60.0643
88.5539
137.935
228.279
424.157
856.128
594.174
615.275
826.554
418.948
230.944
140.06
89.7811
60.8846
44.512
35.6714
31.7649
31.5806
35.0755
43.3077
59.0208
87.0951
135.949
224.961
416.364
844.231
585.539
608.278
816.781
409.547
226.789
137.711
88.1668
59.7119
43.6328
35.0058
31.2223
31.111
34.6154
42.6371
58.0382
85.7888
134.265
221.857
409.804
831.987
579.95
608.89
792.554
402.424
222.438
135.03
86.2757
58.3198
42.6349
34.3024
30.6955
30.6893
34.4268
41.934
56.982
84.3593
132.227
218.113
400.94
811.015
571.379
599.558
781.312
393.818
217.701
132.216
84.4032
56.9655
41.6635
33.6089
30.1597
30.1936
33.6896
41.2165
55.8708
82.6602
129.94
214.612
394.506
797.93
562.868
598.983
767.943
385.152
212.632
129.145
82.3218
55.5619
40.697
32.879
29.5565
29.6228
32.9859
40.4609
54.7829
81.0082
127.421
210.052
384.673
782.998
556.678
582.497
752.361
374.441
206.979
125.804
80.1266
54.0549
39.6181
32.0993
28.9378
29.0489
32.3713
39.6749
53.5829
79.1915
124.669
205.058
375.599
767.914
555.837
565.031
736.744
363.503
200.595
121.781
77.5103
52.3871
38.5362
31.3157
28.2709
28.3444
31.4972
38.7198
52.2655
77.1686
121.598
199.882
365.857
751.729
545.603
544.238
717.201
350.635
193.913
117.655
74.8321
50.6833
37.4128
30.4894
27.563
27.6551
30.6963
37.6301
50.7809
74.9635
118.147
193.858
355.205
732.831
525.6
531.079
696.208
336.276
186.208
112.892
71.8365
48.8062
36.1605
29.5589
26.7559
26.8199
29.7441
36.4169
49.1256
72.4661
114.077
186.616
342.605
712.469
504.68
510.775
670.035
319.47
177.479
107.508
68.4842
46.7554
34.8501
28.6262
25.9712
26.0178
28.7835
35.1891
47.4042
69.8701
109.971
179.305
329.395
687.346
479.866
487.605
642.146
302.743
168.158
101.59
64.8968
44.6021
33.4807
27.6593
25.1692
25.2093
27.8156
33.8605
45.4715
66.8885
105.375
172.119
315.505
659.884
457.373
467.352
612.796
285.841
158.308
95.456
61.1816
42.3689
32.085
26.6999
24.4024
24.4669
26.9284
32.6107
43.5039
63.69
100.319
164.217
300.032
630.244
443.808
448.638
579.407
269.181
148.314
88.9927
57.2414
40.0299
30.6258
25.6849
23.5694
23.6291
25.9036
31.1617
41.2806
60.124
94.804
157.022
284.103
596.117
429.185
430.122
543.365
251.225
137.765
82.5324
53.4395
37.7331
29.1536
24.6476
22.7237
22.7903
24.8818
29.6987
38.9434
56.1874
88.3785
148.279
266.72
560.391
414.356
405.773
500.841
232.241
127.164
75.8889
49.3953
35.2657
27.5798
23.5404
21.8146
21.8804
23.7705
28.1114
36.4351
51.961
81.0752
136.58
246.574
517.772
397.104
378.399
452.93
210.24
114.775
68.7453
45.2304
32.7591
25.9774
22.4115
20.8885
20.9523
22.6335
26.4822
33.8492
47.5968
73.366
122.074
222.925
469.098
372.658
349.194
404.088
187.909
102.556
61.702
41.1091
30.2388
24.3403
21.2429
19.9228
19.9846
21.4528
24.8
31.1745
43.1039
65.7336
109.514
198.285
419.647
357.589
324.262
353.128
163.827
89.4941
54.6544
37.0743
27.7661
22.728
20.0895
18.969
19.0267
20.2833
23.1453
28.5881