/*--------------------------------*- C++ -*----------------------------------*\
  =========                 |
  \\      /  F ield         | OpenFOAM: The Open Source CFD Toolbox
   \\    /   O peration     | Website:  https://openfoam.org
    \\  /    A nd           | Version:  6
     \\/     M anipulation  |
\*---------------------------------------------------------------------------*/
FoamFile
{
    version     2.0;
    format      ascii;
    class       volScalarField;
    location    "15";
    object      k;
}
// * * * * * * * * * * * * * * * * * * * * * * * * * * * * * * * * * * * * * //

dimensions      [0 2 -2 0 0 0 0];

internalField   nonuniform List<scalar> 
10000
(
0.19752
0.507607
0.449418
0.395559
0.363272
0.348574
0.34335
0.34246
0.343048
0.343891
0.344596
0.345409
0.346672
0.349814
0.357115
0.372915
0.404895
0.456279
0.509474
0.19921
0.19566
0.506728
0.448833
0.395648
0.364048
0.350245
0.344278
0.343467
0.344083
0.344918
0.345641
0.347147
0.348866
0.35192
0.358813
0.373375
0.405168
0.455848
0.50792
0.198639
0.196945
0.506035
0.449
0.396489
0.364402
0.349947
0.344691
0.344073
0.345792
0.3469
0.347617
0.347923
0.348008
0.351199
0.358962
0.374023
0.405283
0.456329
0.509645
0.198472
0.197119
0.509226
0.451205
0.395861
0.364859
0.350437
0.34621
0.345358
0.344505
0.345574
0.347131
0.347843
0.348081
0.351488
0.359471
0.374438
0.405019
0.452939
0.506953
0.197954
0.198983
0.512147
0.449962
0.397346
0.365705
0.350902
0.345165
0.343744
0.34446
0.346878
0.347658
0.348198
0.348454
0.352617
0.360142
0.375111
0.403933
0.454566
0.50858
0.197903
0.198434
0.512466
0.453026
0.397854
0.366196
0.352183
0.345368
0.343712
0.344159
0.346166
0.347109
0.347774
0.34827
0.352533
0.360263
0.375773
0.405297
0.456534
0.5089
0.19777
0.198054
0.511984
0.453327
0.397525
0.366099
0.351347
0.345488
0.345074
0.344258
0.345074
0.345897
0.346701
0.348028
0.351695
0.359846
0.376374
0.404667
0.456625
0.508006
0.197099
0.197453
0.511615
0.451079
0.39596
0.366194
0.352221
0.345502
0.343988
0.344394
0.345225
0.346036
0.346863
0.348281
0.351839
0.360016
0.376948
0.405473
0.456478
0.506767
0.198107
0.19626
0.510624
0.453927
0.397576
0.365815
0.351098
0.346668
0.34549
0.346396
0.346833
0.348194
0.349017
0.350046
0.353312
0.361151
0.377529
0.407213
0.456449
0.509653
0.199403
0.197754
0.51157
0.454197
0.398481
0.365864
0.351557
0.345172
0.343639
0.345161
0.346307
0.34751
0.34818
0.348731
0.351877
0.359976
0.377486
0.408668
0.459683
0.50892
0.20069
0.196021
0.510779
0.45327
0.396879
0.36512
0.35044
0.3453
0.343113
0.34391
0.345051
0.346916
0.347775
0.349939
0.351909
0.359729
0.377114
0.409061
0.459657
0.512179
0.201665
0.196634
0.50767
0.450302
0.397442
0.364741
0.349217
0.344131
0.342932
0.344603
0.345398
0.345697
0.346825
0.349149
0.351478
0.359543
0.376795
0.40719
0.458905
0.512312
0.20103
0.197468
0.509813
0.452586
0.396746
0.364526
0.34902
0.344785
0.342938
0.343562
0.344209
0.34544
0.347551
0.348452
0.351324
0.359744
0.375933
0.405647
0.455059
0.50822
0.198773
0.197533
0.510181
0.452183
0.397598
0.364446
0.348491
0.342646
0.341622
0.342692
0.344967
0.346275
0.346277
0.349142
0.35138
0.358998
0.375105
0.404431
0.453839
0.507362
0.198059
0.196168
0.509659
0.448776
0.395944
0.364272
0.348596
0.342677
0.341715
0.343419
0.343309
0.344553
0.345503
0.347456
0.35047
0.35822
0.37407
0.402785
0.451188
0.505153
0.196429
0.196676
0.510104
0.449867
0.396648
0.364455
0.348649
0.342865
0.341709
0.341995
0.342649
0.344972
0.345858
0.346022
0.348653
0.357194
0.372746
0.401488
0.450755
0.504893
0.195719
0.196647
0.510241
0.450221
0.395314
0.364251
0.348895
0.343287
0.34334
0.343459
0.342583
0.343044
0.343811
0.345138
0.348383
0.356449
0.37166
0.401198
0.452311
0.505639
0.195653
0.197381
0.510735
0.449274
0.396847
0.364592
0.349063
0.343176
0.341824
0.342054
0.342531
0.343163
0.344013
0.345289
0.348367
0.356147
0.371232
0.4014
0.450965
0.504625
0.196489
0.196618
0.511105
0.450724
0.396592
0.36503
0.350317
0.343753
0.342066
0.342201
0.342931
0.343584
0.34434
0.346473
0.348942
0.355299
0.370317
0.400763
0.454918
0.507721
0.196583
0.198322
0.511984
0.454316
0.398813
0.3656
0.350299
0.34454
0.343907
0.344075
0.34382
0.344308
0.345557
0.345012
0.347351
0.354333
0.370357
0.402148
0.455016
0.507107
0.198292
0.197296
0.511792
0.454118
0.39863
0.365827
0.351388
0.345657
0.342686
0.342852
0.344797
0.345466
0.345502
0.345257
0.347741
0.355323
0.370713
0.403483
0.455311
0.507374
0.198327
0.198663
0.511468
0.453787
0.398202
0.366396
0.350851
0.344557
0.342666
0.342631
0.343182
0.343748
0.344446
0.345299
0.348152
0.355442
0.370922
0.40362
0.45453
0.5081
0.198464
0.198727
0.51155
0.454111
0.399507
0.367309
0.352358
0.346399
0.344697
0.344541
0.343767
0.344101
0.345839
0.345986
0.349852
0.355835
0.371465
0.403945
0.456683
0.506586
0.19829
0.197473
0.511446
0.454609
0.400485
0.367743
0.352142
0.345729
0.343759
0.343629
0.343817
0.344128
0.344748
0.345781
0.349535
0.356423
0.371746
0.403754
0.456508
0.507383
0.198186
0.198962
0.511137
0.453875
0.400059
0.367974
0.35262
0.346182
0.344132
0.344119
0.345431
0.344897
0.345383
0.346036
0.348742
0.355878
0.372169
0.405241
0.456936
0.508463
0.199587
0.198926
0.510884
0.453106
0.398916
0.368394
0.353378
0.348038
0.346063
0.345592
0.344688
0.345035
0.346828
0.346398
0.349048
0.356089
0.37235
0.40525
0.45631
0.50841
0.200528
0.198105
0.509063
0.453368
0.40022
0.368957
0.353621
0.34728
0.345082
0.344507
0.344474
0.344798
0.345894
0.346633
0.350569
0.357341
0.372829
0.405542
0.457851
0.510837
0.200453
0.197859
0.509663
0.455843
0.400287
0.369556
0.354299
0.347931
0.345449
0.344679
0.344537
0.344643
0.34513
0.346498
0.350464
0.357314
0.372839
0.405065
0.455527
0.512052
0.200813
0.198507
0.509926
0.455481
0.399014
0.369924
0.35494
0.348747
0.347314
0.346207
0.345005
0.344835
0.345341
0.34674
0.350705
0.357045
0.373168
0.405017
0.455991
0.510704
0.200131
0.199612
0.512439
0.45569
0.400217
0.370997
0.356612
0.349465
0.346551
0.345099
0.344901
0.344869
0.345338
0.346727
0.350596
0.357169
0.373272
0.404042
0.456177
0.511362
0.199143
0.199484
0.51325
0.454186
0.400548
0.371264
0.356288
0.351203
0.348372
0.345464
0.346372
0.345171
0.345503
0.346857
0.350004
0.357335
0.373606
0.405034
0.454981
0.511075
0.199654
0.201425
0.513675
0.457092
0.401705
0.371382
0.355156
0.34951
0.346938
0.344969
0.345453
0.344853
0.345381
0.346992
0.350205
0.357487
0.373605
0.404428
0.457322
0.51122
0.198771
0.202249
0.514278
0.457623
0.402693
0.371655
0.354799
0.347839
0.345444
0.344724
0.344759
0.344932
0.345629
0.347615
0.350861
0.35787
0.37375
0.405559
0.457334
0.51117
0.199384
0.201032
0.513026
0.456906
0.403002
0.371328
0.354977
0.34818
0.346827
0.346275
0.346364
0.346328
0.34597
0.349262
0.352619
0.358248
0.373568
0.403904
0.456086
0.509377
0.199062
0.201629
0.511607
0.454688
0.403261
0.371496
0.355123
0.349064
0.345111
0.34423
0.344434
0.344725
0.34524
0.347799
0.351543
0.358744
0.373677
0.404713
0.45427
0.510872
0.19795
0.201403
0.512136
0.456361
0.404026
0.372023
0.355677
0.347924
0.344727
0.343871
0.34396
0.344871
0.344889
0.346587
0.350057
0.357448
0.373163
0.403727
0.456769
0.511043
0.198192
0.200542
0.512298
0.45511
0.404074
0.371308
0.354435
0.347089
0.344235
0.343512
0.34358
0.34381
0.34412
0.345178
0.348205
0.355972
0.372592
0.404199
0.456476
0.510498
0.198499
0.200308
0.513118
0.457004
0.403401
0.371221
0.354616
0.347457
0.344446
0.343682
0.343828
0.345309
0.345698
0.345397
0.3481
0.35567
0.371845
0.402085
0.456312
0.510837
0.198537
0.199274
0.512226
0.454297
0.402748
0.371231
0.354978
0.34917
0.344653
0.343712
0.343733
0.343964
0.344282
0.345183
0.348007
0.355716
0.37185
0.402351
0.455827
0.510394
0.197654
0.19817
0.511033
0.453727
0.401798
0.371584
0.355639
0.348707
0.344865
0.344127
0.345153
0.345403
0.344713
0.345853
0.348073
0.356125
0.371771
0.402558
0.456016
0.510814
0.199008
0.198274
0.50994
0.455178
0.401411
0.370759
0.354342
0.347833
0.345912
0.345157
0.343938
0.343939
0.344708
0.344747
0.347543
0.354811
0.371576
0.403482
0.455726
0.51051
0.198892
0.1993
0.5127
0.45629
0.401291
0.370527
0.354181
0.34835
0.344563
0.343766
0.343635
0.343695
0.343674
0.344352
0.347019
0.354275
0.371077
0.403433
0.455981
0.510123
0.198764
0.198383
0.513068
0.456683
0.401789
0.369987
0.354139
0.347641
0.344493
0.343949
0.34424
0.345271
0.344062
0.344516
0.34704
0.354106
0.370541
0.402963
0.45543
0.509605
0.198757
0.199933
0.512596
0.456344
0.402626
0.369967
0.354773
0.347294
0.345098
0.345737
0.345927
0.344427
0.343964
0.344448
0.346878
0.353893
0.370238
0.402496
0.454776
0.509074
0.198537
0.200256
0.512807
0.456454
0.402549
0.369888
0.354021
0.348718
0.34677
0.345108
0.345721
0.344524
0.34418
0.344736
0.347091
0.353934
0.370153
0.401816
0.454027
0.508288
0.198171
0.198502
0.511665
0.45325
0.400679
0.369585
0.354613
0.34832
0.346529
0.345192
0.346196
0.346134
0.34574
0.345058
0.347128
0.353759
0.370058
0.401881
0.453642
0.508156
0.197906
0.198762
0.509493
0.453569
0.400825
0.369225
0.353883
0.347292
0.346319
0.346063
0.346073
0.345305
0.344715
0.345243
0.34805
0.353726
0.369878
0.401313
0.450954
0.505548
0.197497
0.198682
0.508987
0.453733
0.400548
0.369199
0.353019
0.347136
0.34522
0.344778
0.345161
0.346416
0.344726
0.345874
0.346717
0.353267
0.369736
0.401052
0.451624
0.506367
0.196817
0.197223
0.507774
0.453555
0.401167
0.369076
0.352951
0.347797
0.346458
0.345467
0.345727
0.345609
0.344341
0.344124
0.346184
0.353099
0.369167
0.400652
0.452332
0.507304
0.197355
0.197379
0.506878
0.452956
0.400939
0.368912
0.352832
0.346278
0.344538
0.343932
0.34353
0.343966
0.344947
0.344169
0.346203
0.353108
0.368965
0.39947
0.451703
0.507179
0.197302
0.197699
0.507351
0.452788
0.400612
0.369137
0.353072
0.346518
0.345164
0.345497
0.343981
0.343577
0.343561
0.344024
0.346286
0.353086
0.369082
0.398914
0.449661
0.505498
0.196437
0.197585
0.504883
0.450572
0.400015
0.368445
0.354102
0.34683
0.346584
0.344753
0.345096
0.345139
0.345237
0.345752
0.347716
0.353913
0.368476
0.398477
0.448544
0.506295
0.196191
0.197655
0.507398
0.451438
0.399713
0.368226
0.35356
0.346571
0.345439
0.344947
0.343648
0.343556
0.343695
0.344297
0.346358
0.352862
0.368189
0.398542
0.449994
0.50601
0.196359
0.197392
0.507607
0.451105
0.399324
0.368004
0.352801
0.346384
0.34418
0.343575
0.343538
0.343601
0.343809
0.344521
0.346614
0.352889
0.367796
0.397427
0.449188
0.503331
0.19488
0.196492
0.504879
0.44826
0.398108
0.367806
0.352948
0.347964
0.346143
0.344389
0.344322
0.34535
0.344742
0.346561
0.348381
0.354156
0.368278
0.397508
0.446961
0.503086
0.195589
0.195305
0.50386
0.448259
0.397534
0.368066
0.353021
0.347244
0.346015
0.344796
0.344565
0.344642
0.344745
0.346109
0.34746
0.353329
0.367771
0.3973
0.447491
0.502923
0.196155
0.19505
0.503056
0.447324
0.396648
0.36717
0.353093
0.347504
0.345856
0.345739
0.346507
0.345462
0.345356
0.345859
0.347674
0.353449
0.367605
0.396855
0.447175
0.50337
0.196258
0.195496
0.502953
0.445896
0.396015
0.367129
0.353634
0.348257
0.346607
0.347455
0.347266
0.34748
0.347425
0.346742
0.349389
0.354758
0.367698
0.39646
0.446356
0.502269
0.196375
0.194778
0.502327
0.445577
0.395644
0.367385
0.354177
0.348988
0.34706
0.346852
0.347065
0.34764
0.346978
0.34801
0.348898
0.353808
0.36753
0.396012
0.445668
0.504046
0.196648
0.195437
0.501657
0.444809
0.395123
0.368032
0.354961
0.350731
0.349371
0.347951
0.34807
0.348797
0.348789
0.348094
0.350262
0.353883
0.366635
0.395028
0.444134
0.503212
0.196299
0.194959
0.500708
0.442672
0.394495
0.367518
0.355491
0.351734
0.35039
0.350341
0.350482
0.350206
0.349827
0.348688
0.349487
0.354074
0.36646
0.394445
0.442224
0.500656
0.194987
0.193796
0.499894
0.442112
0.394168
0.368428
0.356273
0.352638
0.351333
0.350716
0.350878
0.350629
0.35107
0.351231
0.351635
0.354669
0.366473
0.393822
0.44157
0.500654
0.194855
0.193416
0.498933
0.440796
0.393745
0.368998
0.358267
0.35419
0.353316
0.353116
0.35283
0.352569
0.352024
0.351727
0.351881
0.356141
0.367218
0.393243
0.440463
0.499961
0.194844
0.192869
0.496875
0.438893
0.393188
0.369678
0.35951
0.355599
0.354785
0.354258
0.353901
0.35354
0.353074
0.352784
0.353285
0.356189
0.366347
0.392255
0.439334
0.499116
0.194623
0.192228
0.496126
0.437789
0.392555
0.369858
0.360656
0.356997
0.355922
0.355587
0.355266
0.354929
0.354327
0.353686
0.353174
0.356216
0.365326
0.391326
0.438216
0.498448
0.193693
0.191685
0.494755
0.436224
0.391802
0.37039
0.361546
0.3582
0.357076
0.356673
0.356491
0.356184
0.355649
0.35501
0.354704
0.356565
0.364878
0.390622
0.436683
0.496329
0.193262
0.190453
0.492479
0.434234
0.390908
0.370185
0.362582
0.359412
0.358212
0.35774
0.357595
0.357412
0.357008
0.356304
0.355635
0.356287
0.364427
0.389328
0.434428
0.495287
0.192285
0.189865
0.490965
0.432902
0.389743
0.368985
0.363207
0.36056
0.359419
0.358857
0.358778
0.358782
0.358517
0.357925
0.35701
0.356831
0.364163
0.388086
0.432581
0.493184
0.191196
0.189088
0.489542
0.430885
0.387533
0.368036
0.363725
0.36175
0.360964
0.360665
0.360533
0.360362
0.359961
0.359229
0.358378
0.358593
0.364043
0.386508
0.430043
0.491092
0.190028
0.188415
0.488439
0.428848
0.384848
0.368018
0.364065
0.362905
0.362519
0.362363
0.362209
0.362051
0.361551
0.360561
0.35914
0.358253
0.363737
0.384984
0.428299
0.4895
0.189399
0.187169
0.486409
0.426226
0.383711
0.365018
0.36322
0.363749
0.363849
0.363819
0.36366
0.36334
0.362755
0.361781
0.360319
0.359027
0.363603
0.382835
0.425408
0.486924
0.187998
0.185814
0.483887
0.422938
0.383541
0.364043
0.361718
0.364215
0.364909
0.365088
0.365001
0.364674
0.364027
0.362859
0.360936
0.359063
0.362005
0.379913
0.422649
0.48483
0.186829
0.184557
0.481398
0.419285
0.380533
0.362973
0.363152
0.365299
0.366278
0.366596
0.366497
0.366095
0.365335
0.36398
0.361279
0.358066
0.360314
0.377344
0.41972
0.483093
0.18577
0.182987
0.478404
0.415088
0.377029
0.360551
0.361131
0.365603
0.367408
0.368013
0.368
0.367575
0.366714
0.365239
0.362859
0.359314
0.361192
0.377218
0.416446
0.480217
0.184279
0.181508
0.475462
0.411112
0.374578
0.359693
0.363113
0.367039
0.368998
0.369733
0.369753
0.369261
0.368227
0.36639
0.363188
0.357685
0.358248
0.372796
0.412179
0.477765
0.183149
0.179141
0.470931
0.406279
0.371579
0.358235
0.362133
0.367661
0.37036
0.371423
0.371564
0.371058
0.369901
0.367809
0.364197
0.357912
0.358368
0.370016
0.407645
0.473619
0.180669
0.176678
0.466035
0.400763
0.368847
0.357407
0.360944
0.368138
0.371853
0.373275
0.373544
0.373023
0.371727
0.369324
0.365102
0.357789
0.35541
0.366938
0.402411
0.469148
0.178007
0.173822
0.460507
0.394292
0.365355
0.356913
0.361048
0.369585
0.373499
0.37519
0.375594
0.375075
0.373666
0.371038
0.366471
0.358377
0.355993
0.365064
0.396354
0.463515
0.174244
0.169781
0.452699
0.386377
0.361392
0.357908
0.361465
0.370562
0.375045
0.377063
0.377627
0.377121
0.375578
0.372626
0.367426
0.358241
0.352569
0.361791
0.388724
0.454814
0.168827
0.164943
0.442867
0.377834
0.356117
0.355881
0.361051
0.371086
0.376159
0.378634
0.379435
0.378993
0.377374
0.37421
0.368625
0.358691
0.351087
0.356338
0.380304
0.445037
0.162908
0.159774
0.431909
0.368544
0.350301
0.353647
0.36096
0.37087
0.376606
0.379679
0.380745
0.380393
0.378721
0.375387
0.369515
0.359241
0.35057
0.352033
0.370742
0.431922
0.155672
0.153912
0.418853
0.358482
0.344337
0.351128
0.362261
0.370873
0.375808
0.379702
0.381108
0.380858
0.379124
0.375648
0.369551
0.359904
0.350277
0.346435
0.360037
0.417437
0.148774
0.148418
0.407061
0.351966
0.34111
0.349216
0.360313
0.368954
0.374919
0.378605
0.380164
0.379907
0.378096
0.374498
0.36864
0.360348
0.351597
0.341731
0.350818
0.402326
0.143294
0.141999
0.391821
0.345413
0.342266
0.352708
0.361426
0.369386
0.375189
0.379662
0.381286
0.380352
0.378437
0.374931
0.369402
0.361102
0.350357
0.339188
0.342368
0.387024
0.139576
0.137058
0.374818
0.338583
0.33976
0.353388
0.364799
0.372191
0.375792
0.378673
0.38029
0.380271
0.37864
0.375419
0.370537
0.364608
0.353199
0.342327
0.336515
0.372634
0.137799
0.136364
0.35927
0.3337
0.341358
0.355752
0.365892
0.372774
0.377154
0.379187
0.380632
0.381334
0.38012
0.377327
0.372884
0.366299
0.357368
0.344406
0.33451
0.35959
0.13818
0.140132
0.347827
0.332897
0.343685
0.358078
0.367239
0.373383
0.376782
0.379197
0.380498
0.380528
0.379178
0.376417
0.372453
0.366876
0.359909
0.348543
0.335285
0.348917
0.142836
0.146501
0.34076
0.337451
0.349783
0.361069
0.3688
0.373613
0.377154
0.379625
0.380687
0.380614
0.379378
0.376352
0.372898
0.3694
0.36312
0.351969
0.336829
0.341214
0.146622
0.153129
0.336414
0.340466
0.35321
0.363124
0.368278
0.372496
0.375503
0.377705
0.378474
0.378483
0.377841
0.376299
0.372869
0.369155
0.364744
0.356391
0.342286
0.336895
0.156283
0.164962
0.334063
0.344734
0.358036
0.365502
0.369099
0.372831
0.374565
0.375337
0.375685
0.375767
0.375537
0.374781
0.37306
0.369685
0.366546
0.359454
0.345976
0.334564
0.16505
0.175829
0.332812
0.350118
0.362278
0.367883
0.370573
0.372071
0.372676
0.37291
0.373015
0.373079
0.373098
0.372932
0.372244
0.37002
0.366949
0.362957
0.351368
0.333554
0.176847
0.190913
0.333666
0.356838
0.366762
0.370049
0.370761
0.371325
0.371266
0.371091
0.370999
0.371042
0.371225
0.371453
0.371538
0.370806
0.370104
0.366885
0.356954
0.334125
0.191302
0.208408
0.34073
0.364924
0.371509
0.372442
0.371578
0.371049
0.370478
0.36999
0.369743
0.369761
0.370064
0.370624
0.371442
0.372354
0.372755
0.371658
0.36505
0.339968
0.207505
0.226181
0.35005
0.374432
0.376883
0.375333
0.373302
0.371517
0.37033
0.369598
0.369255
0.36925
0.36959
0.370285
0.371373
0.372769
0.374954
0.376729
0.374585
0.350915
0.226942
0.247585
0.366678
0.385408
0.382076
0.377674
0.374299
0.371977
0.370569
0.369741
0.369359
0.369355
0.369732
0.370545
0.371937
0.374281
0.377607
0.382032
0.385253
0.36613
0.24716
0.2691
0.38716
0.396394
0.386423
0.379411
0.375232
0.372706
0.37118
0.370308
0.369915
0.369912
0.370301
0.371165
0.372682
0.375213
0.379444
0.386541
0.396718
0.387777
0.26939
0.291205
0.412476
0.40567
0.388605
0.380102
0.375672
0.373212
0.37181
0.371054
0.370725
0.370724
0.371049
0.371804
0.373196
0.37566
0.380072
0.388565
0.405672
0.4123
0.291226
0.314733
0.435612
0.409601
0.389005
0.380055
0.375738
0.373565
0.372453
0.37191
0.371692
0.371695
0.371917
0.372467
0.373565
0.375739
0.380039
0.389003
0.409615
0.43563
0.314717
0.337605
0.445297
0.407186
0.385713
0.378046
0.375015
0.373734
0.373171
0.372935
0.372852
0.372855
0.372944
0.373188
0.373749
0.375024
0.378043
0.385682
0.407143
0.445277
0.337984
0.364592
0.421914
0.386543
0.377512
0.375371
0.374616
0.374343
0.37427
0.374254
0.374251
0.374251
0.374253
0.37427
0.374343
0.374618
0.375373
0.377518
0.386552
0.421963
0.364495
0.534847
1.05871
0.876083
0.697133
0.577234
0.505264
0.463153
0.438868
0.425104
0.418201
0.416855
0.421345
0.433408
0.457061
0.500056
0.575983
0.701995
0.878126
1.05166
0.529218
0.531009
1.04801
0.874482
0.696244
0.577121
0.505741
0.463472
0.439054
0.425216
0.418403
0.417003
0.42141
0.433505
0.457219
0.49968
0.575443
0.701597
0.877582
1.04914
0.528881
0.531618
1.05265
0.87353
0.691569
0.577434
0.506006
0.46347
0.439039
0.425204
0.418137
0.41678
0.421489
0.433552
0.457421
0.499984
0.57323
0.70092
0.877252
1.04172
0.529125
0.5311
1.05456
0.864651
0.697499
0.578579
0.506802
0.463599
0.43917
0.425638
0.418225
0.416683
0.421345
0.433722
0.457318
0.500227
0.575089
0.698583
0.875405
1.05741
0.530029
0.530552
1.04762
0.87158
0.701839
0.57899
0.506481
0.463452
0.439447
0.425295
0.417892
0.416443
0.421145
0.43336
0.456945
0.499611
0.572361
0.695957
0.873001
1.06377
0.528624
0.530102
1.06154
0.865156
0.701404
0.579211
0.506925
0.463371
0.43868
0.425
0.41765
0.41624
0.420991
0.433471
0.456826
0.499449
0.572524
0.687647
0.860149
1.05952
0.52908
0.528338
1.05777
0.873474
0.701607
0.579344
0.506198
0.463323
0.438557
0.424793
0.417495
0.41607
0.420784
0.433026
0.45655
0.49897
0.57177
0.688538
0.862816
1.05386
0.526798
0.526013
1.05136
0.862961
0.699745
0.577397
0.506292
0.46403
0.438735
0.424731
0.417328
0.415898
0.420659
0.433007
0.456592
0.498442
0.569709
0.687605
0.863756
1.04692
0.524052
0.525849
1.04541
0.869926
0.700116
0.578228
0.506329
0.46361
0.438911
0.424444
0.417164
0.415753
0.420387
0.432332
0.455893
0.498023
0.569464
0.68963
0.85621
1.03742
0.522697
0.525729
1.05541
0.867532
0.700435
0.578654
0.506563
0.463926
0.438751
0.424276
0.417034
0.415627
0.420254
0.43198
0.45565
0.497665
0.568522
0.68772
0.866163
1.04751
0.523027
0.524708
1.04434
0.866686
0.700536
0.577316
0.507252
0.46459
0.439079
0.424563
0.417073
0.415596
0.420079
0.431861
0.455504
0.496683
0.566899
0.679181
0.863608
1.05547
0.521649
0.526261
1.05263
0.882313
0.701293
0.578805
0.508096
0.465197
0.439374
0.424528
0.417072
0.415541
0.419948
0.431729
0.455177
0.496464
0.56645
0.679628
0.860348
1.04309
0.519397
0.525834
1.05096
0.882448
0.700015
0.578622
0.509173
0.46642
0.440231
0.424987
0.417377
0.415741
0.420124
0.431716
0.454908
0.496125
0.565315
0.677765
0.849574
1.045
0.516705
0.524911
1.04812
0.882983
0.694326
0.579622
0.510249
0.467205
0.440613
0.42524
0.417589
0.415831
0.420135
0.431611
0.454357
0.494889
0.564777
0.679418
0.855122
1.04233
0.515412
0.52844
1.0415
0.88463
0.699651
0.581076
0.511417
0.467936
0.441075
0.425479
0.417766
0.415959
0.420063
0.431629
0.454012
0.49486
0.565656
0.681061
0.862579
1.0398
0.514405
0.528923
1.05443
0.886617
0.705048
0.582409
0.512036
0.468572
0.441571
0.425777
0.417919
0.416071
0.42008
0.431969
0.454067
0.494779
0.56415
0.686405
0.861552
1.03302
0.515656
0.525271
1.06126
0.887319
0.704368
0.583561
0.512337
0.468832
0.441911
0.426115
0.41812
0.416193
0.420071
0.431549
0.454023
0.494882
0.56595
0.685789
0.859855
1.04639
0.516213
0.527911
1.05788
0.884058
0.701858
0.583021
0.511528
0.468398
0.441975
0.42625
0.418206
0.416166
0.420169
0.43147
0.454017
0.494556
0.563847
0.684869
0.858387
1.03557
0.518531
0.531107
1.05112
0.875606
0.694986
0.583292
0.510273
0.467371
0.441405
0.426044
0.418142
0.416125
0.420011
0.431592
0.454458
0.494963
0.565699
0.683184
0.854815
1.04349
0.519031
0.530737
1.06937
0.88544
0.701865
0.583556
0.509879
0.46779
0.44127
0.426193
0.418293
0.416141
0.42004
0.431776
0.45442
0.494844
0.564723
0.676719
0.846854
1.03774
0.519561
0.53471
1.07101
0.87689
0.703843
0.582911
0.509392
0.465902
0.441201
0.425703
0.418105
0.416088
0.420127
0.431456
0.454218
0.495251
0.563891
0.679455
0.858594
1.04977
0.519628
0.532941
1.06813
0.883827
0.698583
0.581534
0.508863
0.465558
0.4402
0.425488
0.417901
0.415958
0.419939
0.431601
0.454172
0.495407
0.564406
0.679036
0.855521
1.03482
0.514762
0.530149
1.06703
0.880851
0.699023
0.580052
0.509059
0.465344
0.440141
0.425465
0.417761
0.415789
0.419992
0.431183
0.454066
0.495419
0.565157
0.681586
0.853616
1.03958
0.516936
0.533166
1.06572
0.869823
0.698875
0.579212
0.508439
0.465236
0.440508
0.425747
0.417502
0.415471
0.419716
0.431015
0.453928
0.49547
0.56568
0.6764
0.849249
1.03328
0.517572
0.528674
1.05597
0.86932
0.696731
0.578375
0.507665
0.465095
0.439569
0.425029
0.416995
0.415072
0.419415
0.430898
0.453765
0.495049
0.564548
0.68078
0.839886
1.04377
0.517686
0.528558
1.0577
0.865424
0.69323
0.576771
0.50642
0.463094
0.438631
0.424557
0.416471
0.414598
0.419042
0.430953
0.45373
0.494908
0.564656
0.676816
0.847318
1.03417
0.515571
0.526144
1.05506
0.8623
0.687457
0.575687
0.506087
0.462844
0.438653
0.424229
0.416134
0.41439
0.418799
0.430454
0.453395
0.494996
0.565549
0.680341
0.853497
1.0479
0.519376
0.52083
1.05647
0.858921
0.685897
0.573552
0.504828
0.462617
0.438983
0.423721
0.415861
0.414308
0.4188
0.430717
0.453366
0.494898
0.564093
0.683023
0.850904
1.05089
0.520292
0.520167
1.05697
0.860853
0.685305
0.57222
0.503872
0.462222
0.438794
0.423439
0.41583
0.414328
0.41871
0.430468
0.453255
0.494648
0.565461
0.680818
0.857028
1.05293
0.520552
0.518262
1.05525
0.853386
0.683026
0.570634
0.501832
0.460499
0.438013
0.423129
0.415731
0.414392
0.418966
0.43078
0.453315
0.494528
0.566051
0.685916
0.861978
1.05441
0.520092
0.518181
1.05546
0.862744
0.684933
0.569852
0.500078
0.460152
0.437641
0.42317
0.415789
0.414513
0.419037
0.430877
0.453244
0.494157
0.56401
0.679368
0.851123
1.04982
0.518381
0.518067
1.05295
0.854522
0.68647
0.56936
0.499748
0.459993
0.436918
0.422851
0.415834
0.414656
0.419262
0.43109
0.453356
0.494007
0.563657
0.682738
0.858697
1.04826
0.519411
0.51675
1.05044
0.861144
0.685159
0.568535
0.499356
0.459801
0.436172
0.42255
0.415983
0.414822
0.419466
0.431343
0.453762
0.493568
0.5622
0.680835
0.856952
1.0369
0.516181
0.519062
1.04045
0.859187
0.680068
0.567944
0.499421
0.460875
0.436749
0.422928
0.416106
0.414939
0.419609
0.43155
0.453483
0.492768
0.560388
0.674109
0.853097
1.04315
0.514697
0.519565
1.05255
0.856455
0.681983
0.567639
0.499294
0.459781
0.435882
0.4225
0.416161
0.415117
0.41982
0.431716
0.453126
0.491989
0.560076
0.675751
0.844829
1.04013
0.51355
0.518719
1.05382
0.849792
0.677999
0.56721
0.499616
0.460848
0.435952
0.422556
0.416278
0.415274
0.420027
0.431892
0.453096
0.492001
0.559439
0.672763
0.852871
1.02843
0.512088
0.518227
1.05053
0.858404
0.680379
0.567431
0.49907
0.459493
0.436131
0.42276
0.416427
0.415517
0.420267
0.43196
0.453226
0.492065
0.560005
0.676893
0.85252
1.03781
0.512994
0.516014
1.05039
0.850569
0.679327
0.567075
0.498634
0.458651
0.435515
0.422484
0.416257
0.415487
0.420087
0.431563
0.453411
0.492417
0.559145
0.672338
0.851652
1.03762
0.513115
0.517878
1.04942
0.857626
0.682608
0.566514
0.498188
0.459525
0.436124
0.422549
0.416278
0.415799
0.420475
0.43168
0.45353
0.492657
0.560147
0.677015
0.845434
1.03516
0.514784
0.516714
1.04608
0.855801
0.681219
0.565334
0.498449
0.4586
0.43535
0.422524
0.416261
0.415577
0.420203
0.431774
0.454137
0.493007
0.560669
0.675721
0.854626
1.0315
0.517764
0.512696
1.04087
0.851927
0.679137
0.565555
0.497444
0.459016
0.435803
0.422785
0.416467
0.415448
0.419976
0.432099
0.453643
0.493119
0.558995
0.67044
0.855437
1.04285
0.518843
0.51469
1.03137
0.849984
0.675546
0.565286
0.497151
0.457515
0.434808
0.422686
0.416072
0.415141
0.419662
0.431544
0.45359
0.492827
0.56076
0.675518
0.854062
1.03997
0.518651
0.515591
1.03925
0.841815
0.677653
0.565154
0.497213
0.457624
0.434812
0.422523
0.415807
0.414888
0.419671
0.43206
0.454145
0.492686
0.561116
0.677991
0.85264
1.0323
0.518387
0.514579
1.02695
0.841229
0.673738
0.56462
0.497168
0.45773
0.434771
0.422177
0.415517
0.414589
0.419775
0.431491
0.453218
0.492377
0.5611
0.672258
0.844753
1.04099
0.518408
0.514223
1.02796
0.839247
0.673922
0.5641
0.497256
0.458748
0.435465
0.422025
0.415384
0.414456
0.419293
0.430834
0.453226
0.492163
0.560222
0.672905
0.846143
1.03445
0.517019
0.512771
1.02629
0.837478
0.67252
0.563676
0.497069
0.457892
0.434539
0.421893
0.415438
0.414616
0.419084
0.430731
0.45292
0.491928
0.560378
0.672308
0.848532
1.0397
0.517602
0.515107
1.02852
0.837068
0.671611
0.563393
0.497889
0.457612
0.434468
0.421545
0.415314
0.414528
0.419403
0.430938
0.453179
0.491886
0.559776
0.673882
0.848085
1.03288
0.517024
0.514934
1.03514
0.837037
0.670764
0.562749
0.497002
0.458008
0.435177
0.422009
0.415294
0.414463
0.419142
0.431061
0.45337
0.491757
0.55946
0.669645
0.846465
1.04268
0.517133
0.515113
1.03649
0.839799
0.66989
0.562547
0.496916
0.458687
0.434625
0.421625
0.415144
0.414468
0.419232
0.4317
0.454477
0.491665
0.559404
0.671261
0.844715
1.04259
0.516191
0.514307
1.03233
0.832488
0.669235
0.562283
0.497397
0.4582
0.43458
0.421505
0.415264
0.414467
0.419248
0.431009
0.453812
0.491425
0.558104
0.666454
0.835383
1.03059
0.51326
0.513498
1.02301
0.836181
0.667459
0.560307
0.495513
0.457382
0.43469
0.421712
0.415254
0.414422
0.41959
0.43096
0.45293
0.491314
0.557416
0.665774
0.837524
1.03456
0.510843
0.513158
1.02482
0.829067
0.666239
0.559966
0.495829
0.457581
0.434815
0.421828
0.415225
0.41431
0.419385
0.431023
0.453342
0.491834
0.555911
0.662802
0.830268
1.02673
0.509785
0.511988
1.02069
0.828132
0.665177
0.560155
0.496725
0.458009
0.434973
0.421633
0.415152
0.414169
0.419197
0.431357
0.451643
0.489708
0.553769
0.661317
0.834133
1.03626
0.509625
0.510565
1.01892
0.828992
0.664422
0.558097
0.496947
0.458306
0.435154
0.421704
0.415035
0.413916
0.418792
0.430724
0.451421
0.4876
0.551181
0.658488
0.823319
1.02289
0.507861
0.508556
1.01741
0.825291
0.662471
0.557194
0.496186
0.459441
0.435356
0.422002
0.414994
0.413739
0.41844
0.430185
0.450792
0.485672
0.549295
0.656101
0.820983
1.02554
0.507323
0.505602
1.01378
0.823448
0.661307
0.55663
0.494863
0.458834
0.435388
0.421844
0.414899
0.413549
0.418102
0.429534
0.450132
0.485596
0.549231
0.653564
0.814554
1.02626
0.505876
0.50418
1.01134
0.819516
0.659669
0.556331
0.494737
0.457984
0.43541
0.421927
0.41489
0.413376
0.417592
0.428407
0.448231
0.483438
0.547214
0.649275
0.809461
1.02415
0.504948
0.502616
1.01031
0.814517
0.6582
0.556051
0.495141
0.458155
0.435634
0.422286
0.414982
0.413317
0.417137
0.427045
0.445724
0.480113
0.544533
0.644294
0.802067
1.01698
0.500481
0.501102
1.00115
0.813381
0.656292
0.556143
0.495804
0.459377
0.436008
0.422402
0.415052
0.413378
0.416759
0.425818
0.44307
0.475658
0.53951
0.639033
0.797972
1.01413
0.496181
0.499869
1.00426
0.81026
0.652995
0.556905
0.497067
0.458328
0.436401
0.422621
0.415378
0.413632
0.417133
0.425934
0.442588
0.474042
0.535959
0.634008
0.792355
1.00807
0.488663
0.498967
1.00787
0.806481
0.649458
0.55116
0.492973
0.458061
0.436001
0.4228
0.415781
0.413908
0.416888
0.426451
0.442056
0.472269
0.529532
0.627261
0.786201
1.00165
0.484335
0.497346
0.999336
0.803874
0.647514
0.546549
0.489386
0.455998
0.436384
0.423248
0.416119
0.414082
0.416726
0.425429
0.441734
0.471407
0.525995
0.624659
0.780108
0.986611
0.481031
0.496315
1.0055
0.800855
0.643788
0.545582
0.489029
0.455884
0.436535
0.423595
0.416506
0.41435
0.416846
0.424409
0.441893
0.471225
0.524061
0.62039
0.773287
0.97436
0.477529
0.491904
0.992371
0.795779
0.639364
0.544982
0.488693
0.455717
0.436542
0.423847
0.416864
0.414612
0.416719
0.423997
0.439211
0.465807
0.520328
0.61336
0.765997
0.967926
0.472741
0.486946
0.986742
0.790774
0.637431
0.546179
0.489137
0.456559
0.436412
0.424067
0.41722
0.414919
0.416867
0.423942
0.440621
0.464912
0.517014
0.60735
0.759176
0.964343
0.465586
0.483677
0.976378
0.78552
0.636354
0.544076
0.490201
0.45465
0.43579
0.424159
0.417377
0.41512
0.417247