/*--------------------------------*- C++ -*----------------------------------*\
  =========                 |
  \\      /  F ield         | OpenFOAM: The Open Source CFD Toolbox
   \\    /   O peration     | Website:  https://openfoam.org
    \\  /    A nd           | Version:  6
     \\/     M anipulation  |
\*---------------------------------------------------------------------------*/
FoamFile
{
    version     2.0;
    format      ascii;
    class       volScalarField;
    location    "15";
    object      nut;
}
// * * * * * * * * * * * * * * * * * * * * * * * * * * * * * * * * * * * * * //

dimensions      [0 2 -1 0 0 0 0];

internalField   nonuniform List<scalar> 
10000
(
1.40071e-05
6.86806e-05
9.09947e-05
0.000118375
0.000155046
0.000200685
0.000248616
0.000291992
0.000324547
0.000342059
0.000342516
0.000326391
0.0002951
0.000253275
0.000206353
0.00016088
0.000123174
9.45864e-05
7.05264e-05
1.42353e-05
1.38235e-05
6.85362e-05
9.15329e-05
0.000119948
0.000156157
0.000202841
0.000250013
0.000293705
0.000326536
0.000344202
0.000344789
0.000330891
0.000300762
0.000258535
0.000210701
0.000162811
0.000124074
9.47803e-05
7.01822e-05
1.42544e-05
1.40845e-05
6.83172e-05
9.07386e-05
0.000118516
0.000156959
0.000203755
0.000251144
0.000294895
0.0003298
0.00034802
0.000348441
0.000330746
0.000297109
0.000255109
0.000208922
0.000163783
0.000125488
9.66518e-05
7.09992e-05
1.42149e-05
1.40468e-05
6.93972e-05
9.11262e-05
0.000119419
0.000156371
0.000201794
0.000251948
0.000296498
0.000327303
0.000345487
0.000347492
0.00033058
0.00029833
0.00025645
0.000210446
0.000162765
0.000125584
9.3696e-05
6.96203e-05
1.41444e-05
1.42455e-05
6.96822e-05
9.13495e-05
0.000118756
0.000156458
0.000202418
0.00025171
0.000295148
0.000328211
0.000348424
0.000348626
0.000330806
0.000296251
0.000254828
0.000208452
0.00016393
0.000123437
9.36044e-05
7.01483e-05
1.40985e-05
1.42625e-05
6.9818e-05
9.21072e-05
0.00012063
0.000157303
0.000204124
0.000250671
0.000293664
0.000327661
0.00034694
0.000347393
0.000329948
0.000295932
0.000254436
0.000208559
0.00016488
0.000123279
9.5465e-05
7.06027e-05
1.41475e-05
1.41442e-05
6.98666e-05
9.33883e-05
0.000119953
0.000158915
0.000205211
0.000252446
0.000296289
0.000326838
0.000344609
0.000345048
0.00032814
0.000295657
0.00025299
0.000208443
0.00016316
0.000123684
9.49745e-05
6.98656e-05
1.39571e-05
1.41912e-05
6.9856e-05
9.22407e-05
0.000117934
0.000157572
0.000205239
0.000251427
0.00029442
0.000327114
0.000345032
0.000345553
0.000328651
0.000297664
0.00025279
0.00020516
0.00016058
0.000122861
9.43594e-05
6.94844e-05
1.40583e-05
1.39577e-05
7.00269e-05
9.33965e-05
0.000120184
0.000155897
0.0002035
0.000254419
0.000298688
0.000331442
0.000348628
0.000350176
0.000332746
0.000299423
0.000254963
0.00020634
0.00016064
0.000122085
9.31594e-05
7.03239e-05
1.41657e-05
1.40905e-05
7.00687e-05
9.24518e-05
0.000118534
0.000155732
0.000204247
0.000251527
0.000294951
0.000329058
0.000347713
0.000349144
0.000331507
0.000299108
0.000253591
0.000205151
0.000160678
0.000123202
9.44388e-05
7.00841e-05
1.42249e-05
1.38643e-05
6.96334e-05
9.3349e-05
0.000118341
0.000155626
0.000201647
0.000250591
0.000293841
0.000327052
0.000346686
0.000348281
0.000330845
0.000299718
0.000255619
0.000205277
0.00016072
0.000125485
9.46464e-05
7.03785e-05
1.42278e-05
1.39692e-05
6.92243e-05
9.07481e-05
0.000120296
0.00015727
0.000201952
0.000250197
0.000292617
0.000328279
0.00034664
0.000346486
0.000330717
0.000298616
0.000253338
0.000205362
0.000160164
0.000121682
9.52428e-05
7.05103e-05
1.41101e-05
1.41337e-05
6.91758e-05
9.18155e-05
0.0001193
0.00015468
0.000198892
0.000249281
0.00029231
0.000327374
0.000345725
0.000347693
0.000330992
0.000297895
0.000255297
0.00020649
0.000159946
0.00012078
9.25705e-05
6.95827e-05
1.39384e-05
1.40328e-05
6.92474e-05
9.2685e-05
0.00011961
0.000155878
0.00019873
0.000247574
0.000290392
0.000324121
0.000344973
0.00034773
0.000328349
0.000300373
0.000254575
0.000206497
0.000159817
0.000120209
9.22199e-05
6.99283e-05
1.38964e-05
1.38431e-05
6.91286e-05
8.9802e-05
0.000117312
0.000154204
0.000198766
0.000246263
0.000291448
0.000326596
0.000341418
0.000342757
0.000326501
0.000296074
0.000253721
0.000208443
0.000161331
0.000119556
9.13566e-05
6.92838e-05
1.37792e-05
1.39262e-05
6.92817e-05
9.04845e-05
0.000119673
0.000156634
0.000199669
0.000246632
0.000290304
0.000322909
0.000340272
0.000343874
0.00032721
0.000293535
0.0002518
0.000205435
0.000157547
0.000118764
9.12676e-05
6.90598e-05
1.37993e-05
1.39536e-05
6.94115e-05
9.09012e-05
0.000117057
0.000154793
0.000201245
0.000247778
0.000293403
0.000326032
0.000340685
0.000340659
0.000323704
0.000291943
0.000249602
0.000202973
0.000156589
0.000118732
9.21265e-05
6.94528e-05
1.38622e-05
1.41385e-05
6.96128e-05
9.17299e-05
0.000119696
0.000157073
0.000201493
0.00024876
0.000292563
0.000325253
0.000342543
0.0003416
0.000324621
0.00029247
0.000249724
0.000202819
0.000156614
0.000118963
9.17039e-05
6.9628e-05
1.40328e-05
1.39984e-05
6.98108e-05
9.17444e-05
0.000117871
0.000155654
0.000201813
0.000248289
0.000291697
0.00032448
0.000343112
0.00034423
0.000327453
0.000295024
0.000251014
0.000202275
0.000156233
0.000118861
9.41129e-05
7.02427e-05
1.40288e-05
1.41629e-05
7.01157e-05
9.33663e-05
0.000120436
0.000154552
0.000200329
0.000249969
0.000296031
0.000329205
0.000344844
0.000345385
0.000329421
0.000292767
0.000249126
0.000201559
0.000156556
0.000120609
9.28357e-05
6.97608e-05
1.42515e-05
1.40177e-05
7.05699e-05
9.23715e-05
0.000117857
0.000154352
0.000201712
0.000250293
0.000291984
0.000324974
0.000345544
0.000347582
0.000329276
0.000293527
0.000251447
0.00020477
0.000158388
0.000119781
9.29508e-05
7.03201e-05
1.42673e-05
1.42934e-05
7.01308e-05
9.25252e-05
0.000118029
0.00015528
0.000203225
0.000249433
0.000291912
0.000324322
0.000342359
0.000344036
0.00032641
0.000293254
0.000250015
0.000202592
0.000156595
0.000120036
9.28039e-05
6.99711e-05
1.41742e-05
1.42029e-05
7.05435e-05
9.39067e-05
0.000120284
0.000157484
0.000204796
0.000253334
0.000296785
0.00032951
0.000345095
0.00034482
0.000330598
0.000295101
0.000252986
0.000203492
0.000157388
0.000120673
9.48394e-05
6.99354e-05
1.42289e-05
1.40306e-05
6.9858e-05
9.29238e-05
0.000118291
0.000155352
0.000203533
0.000250909
0.000293689
0.00032638
0.000344336
0.00034341
0.000327239
0.000296548
0.000254546
0.000205161
0.000159667
0.000121873
9.32531e-05
6.94936e-05
1.40464e-05
1.42762e-05
6.98378e-05
9.16829e-05
0.000117779
0.000155617
0.000203029
0.000249996
0.00029278
0.00032589
0.000347211
0.000344658
0.000329155
0.000296151
0.000251638
0.000205584
0.000158116
0.000121387
9.3682e-05
6.97571e-05
1.41565e-05
1.41075e-05
6.98846e-05
9.14967e-05
0.000117221
0.000156316
0.000206397
0.000252873
0.000295873
0.000328108
0.000344893
0.000344592
0.000330757
0.000295808
0.000251525
0.000203373
0.000158628
0.000121867
9.46612e-05
6.96778e-05
1.41986e-05
1.4019e-05
7.00221e-05
9.2625e-05
0.00011802
0.000157082
0.00020463
0.00025128
0.000293727
0.000325608
0.000342893
0.00034373
0.000330215
0.000298355
0.0002541
0.000204966
0.000161357
0.000123659
9.49127e-05
7.02673e-05
1.41661e-05
1.39909e-05
6.99752e-05
9.21324e-05
0.000117915
0.000158999
0.000203807
0.000252257
0.000294357
0.000325935
0.000342747
0.00034292
0.000326183
0.000296308
0.000254965
0.000204453
0.000159742
0.000122229
9.381e-05
7.06482e-05
1.42005e-05
1.4104e-05
7.00601e-05
9.19481e-05
0.000117349
0.000158581
0.000204523
0.000255244
0.000298869
0.000329845
0.000343949
0.000344203
0.000326237
0.000294839
0.000253066
0.000203972
0.000158403
0.000120999
9.32581e-05
7.07421e-05
1.42432e-05
1.43428e-05
7.04629e-05
9.20588e-05
0.000118327
0.00015882
0.000206932
0.000253846
0.000295328
0.000326247
0.000344021
0.000343257
0.000326285
0.000295269
0.00025336
0.000205505
0.000158876
0.000120901
9.36248e-05
7.05215e-05
1.40856e-05
1.41719e-05
7.00775e-05
9.14929e-05
0.000120025
0.000157817
0.000204271
0.00025432
0.000296967
0.00032553
0.000345297
0.000343482
0.000328156
0.000295322
0.000252637
0.000205307
0.000159688
0.00012206
9.43636e-05
7.05878e-05
1.41406e-05
1.43183e-05
7.01341e-05
9.29263e-05
0.000119147
0.000157637
0.000204342
0.000252366
0.000294833
0.000324935
0.000344842
0.000344259
0.00032786
0.000297132
0.000253711
0.000208079
0.000160563
0.000121987
9.49129e-05
7.10788e-05
1.40504e-05
1.43343e-05
7.02675e-05
9.37824e-05
0.000121223
0.000159429
0.000202783
0.000250369
0.000292817
0.000324775
0.000342482
0.000343089
0.000327007
0.000296663
0.000254353
0.000207622
0.000162504
0.00012455
9.48125e-05
7.09241e-05
1.4214e-05
1.41759e-05
6.99546e-05
9.35669e-05
0.000119561
0.000157418
0.000202953
0.000250888
0.000296747
0.000329548
0.000346471
0.000346295
0.000328075
0.000299834
0.000257178
0.000206785
0.000160303
0.000122835
9.35476e-05
7.03264e-05
1.41017e-05
1.4297e-05
6.96235e-05
9.17529e-05
0.000119744
0.000158224
0.000205275
0.00025419
0.000293468
0.000325208
0.0003444
0.000345258
0.000329202
0.00029966
0.000257994
0.00020803
0.000160856
0.000122864
9.29687e-05
7.05137e-05
1.39759e-05
1.41909e-05
6.98467e-05
9.27371e-05
0.000120763
0.000160907
0.000205419
0.000251834
0.000293953
0.000324937
0.000343358
0.000344678
0.000327644
0.000295846
0.000253938
0.000208547
0.000162676
0.000124746
9.44384e-05
7.11071e-05
1.40465e-05
1.41047e-05
7.04223e-05
9.3244e-05
0.000121278
0.000159272
0.00020268
0.000249743
0.000293105
0.000325388
0.000343045
0.000343635
0.000325407
0.000293545
0.000251015
0.000204698
0.000159518
0.000122914
9.52317e-05
7.05799e-05
1.41539e-05
1.41053e-05
7.02575e-05
9.29192e-05
0.000122378
0.000158232
0.00020291
0.000250443
0.000293699
0.000325187
0.000342816
0.000344978
0.000328357
0.000295632
0.000251597
0.000206932
0.000159443
0.000119903
9.47571e-05
7.10704e-05
1.41477e-05
1.40019e-05
7.01581e-05
9.19792e-05
0.000121023
0.000158351
0.000203678
0.000253371
0.000294003
0.000323975
0.000341175
0.000342183
0.00032552
0.000293685
0.000251046
0.000206073
0.000162042
0.000120112
9.43542e-05
7.07929e-05
1.4034e-05
1.40008e-05
7.01228e-05
9.21155e-05
0.000119439
0.000159594
0.000206204
0.00025251
0.000293994
0.000324495
0.000343734
0.000346025
0.000327486
0.000296159
0.000251315
0.000204762
0.000159642
0.000120002
9.34596e-05
7.06694e-05
1.42922e-05
1.40719e-05
7.03222e-05
9.30119e-05
0.000119424
0.00015954
0.000203158
0.000250891
0.000294797
0.000326287
0.000340978
0.000340869
0.000325115
0.000292309
0.000252151
0.000204567
0.00015763
0.000120927
9.36171e-05
7.10625e-05
1.42429e-05
1.42661e-05
7.06127e-05
9.45201e-05
0.000119657
0.000157693
0.000202997
0.000251897
0.000293628
0.000323994
0.000340684
0.000340811
0.000323581
0.000291717
0.000250045
0.000201698
0.000157333
0.000122476
9.46011e-05
7.04536e-05
1.42732e-05
1.4085e-05
7.12203e-05
9.37114e-05
0.000120039
0.000157708
0.00020487
0.000251236
0.00029242
0.000324536
0.000343475
0.000345953
0.000325002
0.000293204
0.000249189
0.000201983
0.000156897
0.000120294
9.3205e-05
7.06721e-05
1.41778e-05
1.42341e-05
7.09138e-05
9.38925e-05
0.000121118
0.000158078
0.000204362
0.000251201
0.000293939
0.000328309
0.000346386
0.000344244
0.000325264
0.000292573
0.000249606
0.000204407
0.000157531
0.000120437
9.3035e-05
6.99996e-05
1.41714e-05
1.42573e-05
7.0724e-05
9.51587e-05
0.000122984
0.000160062
0.000204148
0.000254867
0.000297341
0.000327513
0.000346287
0.000344016
0.000327201
0.000294288
0.000249799
0.000204319
0.000159639
0.00012199
9.39868e-05
6.98619e-05
1.40185e-05
1.40097e-05
7.05296e-05
9.272e-05
0.000120218
0.000158194
0.000205078
0.000254146
0.00029802
0.000328754
0.00034851
0.000348105
0.000328755
0.000294144
0.000249588
0.000203541
0.000157999
0.00012064
9.29496e-05
7.0108e-05
1.40519e-05
1.40584e-05
7.02662e-05
9.43383e-05
0.000122364
0.000160051
0.000206739
0.000252192
0.000296727
0.000329719
0.000347992
0.000345022
0.00032569
0.000292758
0.000250643
0.000202546
0.000159998
0.000120951
9.21806e-05
6.90931e-05
1.39823e-05
1.41041e-05
7.04038e-05
9.29082e-05
0.000120297
0.00015804
0.000203866
0.000252582
0.000296069
0.000328317
0.000345202
0.000348497
0.000327485
0.000294216
0.00024915
0.00020215
0.000158638
0.000122804
9.39478e-05
6.9483e-05
1.3906e-05
1.39e-05
6.97453e-05
9.30856e-05
0.000122495
0.000160007
0.000203162
0.00025221
0.000296586
0.000328207
0.000345959
0.000345642
0.000326077
0.000291464
0.000248822
0.000203784
0.000159855
0.00012229
9.37782e-05
7.00905e-05
1.40461e-05
1.3958e-05
7.02427e-05
9.3159e-05
0.000121098
0.00015889
0.000204294
0.000251667
0.000293895
0.000325774
0.000341943
0.000342623
0.000326659
0.000291836
0.000249061
0.000202803
0.000159141
0.000121539
9.29141e-05
6.96825e-05
1.39717e-05
1.40741e-05
6.99448e-05
9.39819e-05
0.000122592
0.000158409
0.000204119
0.000251611
0.000295096
0.00032996
0.000343165
0.000343399
0.000324771
0.000292303
0.000249883
0.000204447
0.000158499
0.000120558
9.32455e-05
6.93397e-05
1.38818e-05
1.40086e-05
6.8964e-05
9.22019e-05
0.000120632
0.000158068
0.000206046
0.00025224
0.000298454
0.00032753
0.000345252
0.00034526
0.000329444
0.000297286
0.000253613
0.000204526
0.000159957
0.000121854
9.19984e-05
6.99486e-05
1.38552e-05
1.40475e-05
7.00246e-05
9.3015e-05
0.000122497
0.000160257
0.000205659
0.000251047
0.000295708
0.000328875
0.000342823
0.0003424
0.000326074
0.000294194
0.000251444
0.000204541
0.000158051
0.000120249
9.29406e-05
6.96057e-05
1.39584e-05
1.39488e-05
6.98189e-05
9.39722e-05
0.000121943
0.000159748
0.000203938
0.000250689
0.000294196
0.000325679
0.000344089
0.000343804
0.000325776
0.000293904
0.000251287
0.000204515
0.000159674
0.000120168
9.42363e-05
6.90174e-05
1.37512e-05
1.39048e-05
6.92341e-05
9.26633e-05
0.000120724
0.000159902
0.000205579
0.000253307
0.000296692
0.000326888
0.000345132
0.000347158
0.000327652
0.000297645
0.000255049
0.000205135
0.000158943
0.00012034
9.2451e-05
6.90717e-05
1.38748e-05
1.37418e-05
6.91691e-05
9.2522e-05
0.000120911
0.000160404
0.00020442
0.000252163
0.00029645
0.000327636
0.000344757
0.000345039
0.000327962
0.000297037
0.000252647
0.000204876
0.000160656
0.000120777
9.22901e-05
6.91949e-05
1.39722e-05
1.37925e-05
6.91941e-05
9.35873e-05
0.000122499
0.000159468
0.000204978
0.000253125
0.000296541
0.000329536
0.000348827
0.00034707
0.000329509
0.000297163
0.000254714
0.000206616
0.00015946
0.000121108
9.33211e-05
6.99596e-05
1.39486e-05
1.38961e-05
6.96852e-05
9.25065e-05
0.000121996
0.000160032
0.000206419
0.00025482
0.000299374
0.000333391
0.000350789
0.000351931
0.000334289
0.000299106
0.000256544
0.000207966
0.000161663
0.000122634
9.24717e-05
6.95224e-05
1.40002e-05
1.37786e-05
6.93525e-05
9.36445e-05
0.000122839
0.000162353
0.000209359
0.00025673
0.000299591
0.00033242
0.000350759
0.000354368
0.000335703
0.000302948
0.000256279
0.000208178
0.000161312
0.000122276
9.25249e-05
7.00247e-05
1.39329e-05
1.38379e-05
6.98022e-05
9.35131e-05
0.000122714
0.000162862
0.000210392
0.000260748
0.000305358
0.00033636
0.000353785
0.000355412
0.000337558
0.000301594
0.000258348
0.000207171
0.000160185
0.00012172
9.31967e-05
6.96236e-05
1.38748e-05
1.37656e-05
6.91575e-05
9.29467e-05
0.000122307
0.000162296
0.000211373
0.000262043
0.000306423
0.000340043
0.000357221
0.000356713
0.000338296
0.000302969
0.000257962
0.000209307
0.000160897
0.000121981
9.25148e-05
6.91551e-05
1.37085e-05
1.36177e-05
6.91798e-05
9.27194e-05
0.000122844
0.000163889
0.000212142
0.000263031
0.00030742
0.000340085
0.000358335
0.000359099
0.000341351
0.000307913
0.000261782
0.000209984
0.000161897
0.000122544
9.29777e-05
6.98874e-05
1.37302e-05
1.36173e-05
6.96835e-05
9.38848e-05
0.000124943
0.000166718
0.000215457
0.000266866
0.000311472
0.000345205
0.000363694
0.000362421
0.000343731
0.000309601
0.000262974
0.000212685
0.000163564
0.00012302
9.27887e-05
6.95756e-05
1.37997e-05
1.35318e-05
6.91148e-05
9.26515e-05
0.000124375
0.000167036
0.000218133
0.000268302
0.000315189
0.000348969
0.000365311
0.000364702
0.000346397
0.000312438
0.00026737
0.000215253
0.000165296
0.000123505
9.24098e-05
6.91882e-05
1.3733e-05
1.35395e-05
6.92379e-05
9.28387e-05
0.000125047
0.000168075
0.000219392
0.000270752
0.000316575
0.000351385
0.000369983
0.000369853
0.000351228
0.000316043
0.000267717
0.000215868
0.000165112
0.000124123
9.26885e-05
6.91731e-05
1.36078e-05
1.34615e-05
6.91134e-05
9.37264e-05
0.000125794
0.000170833
0.000221563
0.000273404
0.000320068
0.000353213
0.000372245
0.000371701
0.000353315
0.000318843
0.000271146
0.000217698
0.000166362
0.000125603
9.32463e-05
6.89227e-05
1.36251e-05
1.33641e-05
6.88322e-05
9.36845e-05
0.000127319
0.000171791
0.000224753
0.000276946
0.000321776
0.000355845
0.000375556
0.000375058
0.000356739
0.00032199
0.000273692
0.000218669
0.000167165
0.000126074
9.35379e-05
6.93495e-05
1.34958e-05
1.33312e-05
6.87782e-05
9.39839e-05
0.000127451
0.000171902
0.000226193
0.000279533
0.000325966
0.000360539
0.000379452
0.000379246
0.000360949
0.000325445
0.000276558
0.000220682
0.000168453
0.000126293
9.32072e-05
6.85861e-05
1.33787e-05
1.32753e-05
6.87834e-05
9.43328e-05
0.000127232
0.000172318
0.000227928
0.000282366
0.000329671
0.000365184
0.000384414
0.000383879
0.000365324
0.000330435
0.000280795
0.000224479
0.00016999
0.000126989
9.34929e-05
6.88463e-05
1.33374e-05
1.32305e-05
6.88145e-05
9.45971e-05
0.000127772
0.000174517
0.000230447
0.00028558
0.000334081
0.000370329
0.000390304
0.000391096
0.000371835
0.000334638
0.000283519
0.000225477
0.000171295
0.000127701
9.39669e-05
6.86908e-05
1.32783e-05
1.31202e-05
6.88788e-05
9.46344e-05
0.000128343
0.000172852
0.000230528
0.000288127
0.000337901
0.000375357
0.000396205
0.000395964
0.000375997
0.000338532
0.000286735
0.000227754
0.000172492
0.000127604
9.37593e-05
6.84774e-05
1.31575e-05
1.30246e-05
6.85297e-05
9.43183e-05
0.00012985
0.000173787
0.000230579
0.000291208
0.000342242
0.000380344
0.000401477
0.000401781
0.000381374
0.000342394
0.000289351
0.000229445
0.000172694
0.000127272
9.36655e-05
6.84484e-05
1.30876e-05
1.29279e-05
6.83336e-05
9.39465e-05
0.000129479
0.000174557
0.000234405
0.000295217
0.000347934
0.00038691
0.000407485
0.000407196
0.000385904
0.00034599
0.000291225
0.000229538
0.000172566
0.000127113
9.37064e-05
6.87073e-05
1.30184e-05
1.28115e-05
6.80551e-05
9.32898e-05
0.000128945
0.000174234
0.000234081
0.000298333
0.000352708
0.000392516
0.000413334
0.000412917
0.000391043
0.000350455
0.000295821
0.000233093
0.000175312
0.000128845
9.35256e-05
6.84178e-05
1.2911e-05
1.26834e-05
6.78485e-05
9.29706e-05
0.000129277
0.0001756
0.000238908
0.00030303
0.000358328
0.000399077
0.000420464
0.000419749
0.000396678
0.00035479
0.000298578
0.000233199
0.000174737
0.000128068
9.32755e-05
6.85773e-05
1.28053e-05
1.24832e-05
6.73e-05
9.24265e-05
0.000129506
0.000176825
0.000240522
0.000307048
0.000364178
0.00040607
0.000428036
0.000427406
0.000403914
0.000360874
0.00030315
0.00023624
0.000177518
0.00012851
9.29027e-05
6.80555e-05
1.25819e-05
1.22889e-05
6.67603e-05
9.19511e-05
0.000130377
0.00017889
0.000241919
0.000311061
0.000370599
0.000413961
0.000436807
0.000436275
0.000412295
0.000367928
0.000308287
0.000239331
0.000177603
0.000129224
9.27421e-05
6.77708e-05
1.23543e-05
1.2039e-05
6.6365e-05
9.13732e-05
0.000131018
0.000181798
0.000245848
0.000317707
0.000378373
0.000422984
0.000446513
0.000445845
0.000421128
0.000375667
0.000314663
0.000243897
0.000181808
0.000131258
9.25239e-05
6.73046e-05
1.20122e-05
1.16951e-05
6.5619e-05
9.05687e-05
0.000131897
0.000186902
0.000250715
0.000324117
0.000386668
0.000432673
0.00045696
0.000456417
0.00043113
0.000384352
0.000321427
0.000248318
0.000182488
0.000132821
9.20876e-05
6.64296e-05
1.15687e-05
1.13056e-05
6.44259e-05
8.96924e-05
0.000132129
0.000189411
0.000255386
0.000331067
0.00039551
0.000443123
0.000468298
0.00046799
0.000442287
0.000394401
0.000329746
0.000254494
0.000186014
0.000133497
9.17919e-05
6.56972e-05
1.11079e-05
1.09035e-05
6.36073e-05
8.91375e-05
0.000132723
0.000192605
0.000261576
0.000337943
0.000404348
0.000453783
0.000479878
0.000479819
0.000453741
0.000404867
0.000338722
0.000261764
0.000191262
0.000135666
9.15052e-05
6.44853e-05
1.05739e-05
1.04601e-05
6.24099e-05
8.85253e-05
0.000133578
0.00019624
0.000271073
0.000346819
0.000412462
0.000464215
0.00049135
0.000491501
0.000464964
0.00041515
0.000347688
0.000270672
0.000198104
0.000137736
9.12323e-05
6.33077e-05
1.01399e-05
1.00564e-05
6.21961e-05
9.01181e-05
0.000137066
0.0002015
0.000277385
0.000354182
0.000422731
0.000474471
0.000502116
0.000502199
0.000475229
0.000424573
0.000356668
0.000280562
0.000207537
0.000140675
9.18037e-05
6.21935e-05
9.83039e-06
9.59546e-06
6.1461e-05
9.23247e-05
0.000144977
0.000214481
0.000290388
0.000368612
0.000438613
0.000493415
0.000521703
0.000519747
0.000491798
0.000440007
0.000370762
0.000292234
0.000214713
0.000145753
9.30027e-05
6.11642e-05
9.61012e-06
9.38691e-06
6.0757e-05
9.50391e-05
0.000150805
0.000225866
0.000309395
0.000390652
0.000458598
0.00051082
0.000539585
0.000539976
0.00051188
0.000458956
0.000388229
0.000310041
0.000227502
0.000156105
9.57113e-05
6.05826e-05
9.54827e-06
9.50003e-06
6.03285e-05
9.89431e-05
0.000160824
0.000240921
0.000327499
0.000412018
0.000484914
0.000536782
0.000565804
0.000568123
0.000539951
0.000485611
0.000412012
0.000327798
0.000243708
0.000165781
0.000100565
6.0554e-05
9.65529e-06
9.93363e-06
6.10228e-05
0.000105529
0.000173186
0.000259105
0.000349795
0.000437467
0.000511178
0.000565961
0.000595355
0.000595436
0.000565709
0.000509223
0.000433247
0.000346139
0.000259141
0.000177639
0.000107306
6.116e-05
1.00227e-05
1.03356e-05
6.28769e-05
0.000115593
0.000190279
0.000279885
0.000375203
0.000465655
0.000543575
0.000600929
0.000630651
0.000630273
0.000599604
0.000539737
0.000460979
0.000372221
0.000278711
0.000190388
0.000114915
6.26617e-05
1.03624e-05
1.09091e-05
6.53262e-05
0.000124818
0.000205497
0.000301135
0.000399079
0.000493508
0.000573414
0.000631891
0.000661343
0.000661121
0.000631491
0.000573978
0.000491182
0.000396142
0.000298108
0.000204271
0.000123638
6.43892e-05
1.10619e-05
1.17081e-05
6.73679e-05
0.000133093
0.000221852
0.000323824
0.000427298
0.000527044
0.000607179
0.000662739
0.000691175
0.000691127
0.000662407
0.000606117
0.000525091
0.000425232
0.000321591
0.000219482
0.000131402
6.68417e-05
1.16306e-05
1.24452e-05
6.93808e-05
0.000142312
0.000239109
0.000348597
0.000458955
0.000558599
0.000637866
0.000692324
0.000719872
0.000719768
0.000691945
0.000637014
0.000556836
0.000455217
0.000344872
0.000238703
0.000142168
6.94011e-05
1.25118e-05
1.35381e-05
7.10601e-05
0.000151638
0.000256518
0.000373528
0.000487757
0.000589397
0.000668052
0.000720801
0.000747067
0.000746983
0.000720509
0.000667441
0.000588349
0.000485964
0.00037184
0.000255683
0.000151899
7.11706e-05
1.34907e-05
1.46846e-05
7.49399e-05
0.00016355
0.000277124
0.000401577
0.000519721
0.000621328
0.000697896
0.000747686
0.000771979
0.000771944
0.000747595
0.000697842
0.000621796
0.000520958
0.000401391
0.000276741
0.000163422
7.44542e-05
1.4639e-05
1.59223e-05
7.94149e-05
0.000178049
0.000301029
0.000433489
0.000556201
0.000655605
0.000727591
0.000772872
0.000794418
0.000794377
0.000772726
0.000727256
0.00065484
0.000554182
0.000431884
0.000299852
0.000177588
7.97024e-05
1.59823e-05
1.74229e-05
8.7171e-05
0.000194841
0.000328257
0.00046965
0.000595268
0.00069161
0.000757238
0.0007962
0.000814069
0.000814063
0.000796183
0.000757201
0.000691589
0.000595386
0.000469679
0.000328286
0.000194596
8.68365e-05
1.73763e-05
1.88753e-05
9.73181e-05
0.000217363
0.000365049
0.000516156
0.000642347
0.000731655
0.000787087
0.000817219
0.000830131
0.000830121
0.000817188
0.000787009
0.000731537
0.000642171
0.00051598
0.000364842
0.000217343
9.74923e-05
1.89107e-05
2.04826e-05
0.000112505
0.000248112
0.000413783
0.000574918
0.000696393
0.000772532
0.000814347
0.000833895
0.000840812
0.0008408
0.000833856
0.000814316
0.000772538
0.000696405
0.000574817
0.000413531
0.000247827
0.000112231
2.04642e-05
2.2121e-05
0.00013281
0.000293642
0.000488475
0.000654045
0.000757891
0.000811531
0.000834638
0.000843697
0.000847179
0.000847189
0.000843724
0.000834683
0.000811518
0.00075782
0.000654007
0.000488483
0.000293696
0.000132864
2.21306e-05
2.37427e-05
0.000165908
0.00038569
0.000610143
0.000754064
0.000817195
0.000839131
0.000846358
0.00084983
0.000851157
0.000851155
0.000849818
0.000846305
0.000839021
0.00081708
0.000753902
0.000609813
0.000384978
0.000165491
2.37579e-05
2.56323e-05
0.000278583
0.000619724
0.000787168
0.000832066
0.000844756
0.000849559
0.000851574
0.000851943
0.00085195
0.00085195
0.000851938
0.000851548
0.00084951
0.000844656
0.000831838
0.000786888
0.000620084
0.000278876
2.56287e-05
3.77087e-05
0.000109501
0.000129714
0.000148133
0.000175579
0.000215854
0.000264581
0.000315584
0.000358977
0.00038321
0.000380858
0.000352034
0.000307325
0.000255242
0.000208423
0.000172159
0.000149149
0.00013106
0.000107917
3.76665e-05
3.72721e-05
0.000109466
0.000130211
0.000148736
0.000176332
0.000218554
0.000269106
0.000321154
0.000366115
0.000391732
0.000388955
0.000355216
0.000312674
0.000256847
0.000209472
0.000174963
0.000152747
0.000134591
0.00010789
3.76596e-05
3.74764e-05
0.000108297
0.000132425
0.000150341
0.000179694
0.000218202
0.000267238
0.000317811
0.000361799
0.000385746
0.000383527
0.00035329
0.000308357
0.000260131
0.000212563
0.000169947
0.000147769
0.000130573
0.0001066
3.76579e-05
3.75205e-05
0.000110607
0.000125789
0.000149016
0.000176519
0.000216122
0.000266002
0.000315208
0.000359239
0.000381217
0.000378695
0.000356982
0.000309047
0.00025679
0.000209486
0.000172156
0.000147932
0.000133258
0.000111775
3.77908e-05
3.73666e-05
0.000106491
0.000128315
0.00015507
0.000180056
0.000216438
0.000270204
0.000316186
0.000359914
0.000381246
0.000378392
0.000352028
0.000312683
0.000260169
0.000213029
0.000174418
0.000149923
0.000128771
0.000111505
3.74706e-05
3.73194e-05
0.000109893
0.000127194
0.000152459
0.000176903
0.000216724
0.000266678
0.000315178
0.000366028
0.00038333
0.000378963
0.000352302
0.000308394
0.000256105
0.000209565
0.000171245
0.000142973
0.000128425
0.000113385
3.74888e-05
3.71332e-05
0.000111458
0.000133443
0.000157656
0.000177887
0.000219049
0.00026517
0.000314551
0.000364034
0.000388426
0.000380889
0.000354221
0.000309057
0.000256894
0.000212355
0.000172165
0.000144186
0.000127254
0.000109183
3.71636e-05
3.69391e-05
0.000108444
0.000128714
0.000151859
0.000177976
0.000215656
0.000269018
0.000315269
0.000362006
0.000384321
0.000382378
0.000360805
0.000314901
0.000257936
0.000208926
0.000175139
0.00014798
0.000126894
0.000106027
3.6979e-05
3.69771e-05
0.000109354
0.000130564
0.000148653
0.00017471
0.000215914
0.000266597
0.000315061
0.000356232
0.000379756
0.000386485
0.000358974
0.000311179
0.000260395
0.000208763
0.000173799
0.000145709
0.000121729
0.000104457
3.68119e-05
3.70255e-05
0.000110882
0.000127188
0.000149206
0.000175431
0.000219814
0.00026474
0.000315467
0.000355989
0.000379348
0.00038304
0.000358801
0.000307784
0.000255306
0.000208407
0.000173684
0.000142271
0.000124783
0.000106966
3.696e-05
3.70152e-05
0.000108011
0.000127256
0.000150227
0.000175549
0.000218213
0.00026536
0.000319964
0.000358025
0.000380189
0.000379014
0.000357494
0.000308555
0.000255843
0.000208125
0.000173042
0.000139662
0.00012464
0.000110798
3.67785e-05
3.73068e-05
0.000107574
0.000132748
0.00015292
0.000179816
0.000217447
0.000267924
0.000314873
0.000361142
0.000381345
0.000378756
0.000354068
0.0003131
0.000256364
0.000208171
0.000172068
0.000141088
0.00012395
0.000106078
3.65761e-05
3.72524e-05
0.000107242
0.000136538
0.000152943
0.000175543
0.000219526
0.000265519
0.000313747
0.000356753
0.000386711
0.000380832
0.000354918
0.000310776
0.000257208
0.000208533
0.000169544
0.000144697
0.000121891
0.000108737
3.63281e-05
3.71054e-05
0.000106798
0.0001332
0.000147392
0.00017593
0.000216655
0.000267466
0.000315269
0.000358005
0.000383612
0.000382424
0.000357082
0.000316431
0.000258056
0.000208819
0.000169884
0.000141282
0.000123922
0.00010616
3.62593e-05
3.74585e-05
0.000105425
0.000137733
0.000150931
0.000177893
0.000218241
0.000264797
0.000318437
0.00036284
0.000389535
0.000385153
0.000360539
0.000312111
0.000261039
0.000212939
0.000175032
0.000145802
0.000127383
0.000107873
3.62801e-05
3.75261e-05
0.000108241
0.000135897
0.000156405
0.000181683
0.000222055
0.000265966
0.000313894
0.000355169
0.00038154
0.000389773
0.000355035
0.000308109
0.000257709
0.000209535
0.000170956
0.000144522
0.000129717
0.000105156
3.66381e-05
3.70294e-05
0.000109833
0.000133433
0.000153059
0.00017703
0.000218204
0.000266465
0.000315658
0.000356325
0.000381595
0.00038985
0.000359265
0.000308431
0.000254882
0.000207054
0.000170207
0.000144802
0.000125897
0.000106778
3.66601e-05
3.74853e-05
0.000110976
0.000136196
0.000149557
0.000177041
0.000220888
0.000270199
0.000320371
0.000357081
0.000380711
0.000387213
0.000355002
0.000312627
0.000255737
0.0002074
0.00017002
0.000148587
0.000129063
0.000105245
3.69046e-05
3.81019e-05
0.000106965
0.000129463
0.00014711
0.000177884
0.000217265
0.000266288
0.000316652
0.000357726
0.00038057
0.000382132
0.000354473
0.000310295
0.000257315
0.000208774
0.000174202
0.000146326
0.000125745
0.000109111
3.70106e-05
3.77805e-05
0.00011085
0.000136452
0.000154698
0.000181582
0.000218175
0.000270393
0.000321449
0.000363561
0.000381433
0.000386598
0.000353532
0.000308837
0.00026092
0.000208985
0.000172518
0.000142452
0.000120563
0.000106434
3.69289e-05
3.82365e-05
0.000111659
0.000131012
0.000152231
0.000177796
0.000219999
0.000265669
0.00031717
0.000357896
0.000380271
0.000379349
0.000357131
0.000309479
0.000257282
0.000209814
0.000171744
0.000141097
0.000124035
0.000107416
3.6928e-05
3.80161e-05
0.000113088
0.000130426
0.000147432
0.000177403
0.000219113
0.000268602
0.000320711
0.00035897
0.000381231
0.000379718
0.000353168
0.000313471
0.000261373
0.000213133
0.000173791
0.000142162
0.000124112
0.00010642
3.63132e-05
3.75222e-05
0.000109881
0.00012974
0.000151547
0.000180859
0.000218784
0.000267627
0.000318291
0.000360295
0.000382743
0.000380829
0.000353143
0.000312159
0.000258205
0.00020827
0.000172901
0.000147482
0.000124237
0.000105107
3.67307e-05
3.77077e-05
0.000110327
0.000127391