/*--------------------------------*- C++ -*----------------------------------*\
  =========                 |
  \\      /  F ield         | OpenFOAM: The Open Source CFD Toolbox
   \\    /   O peration     | Website:  https://openfoam.org
    \\  /    A nd           | Version:  6
     \\/     M anipulation  |
\*---------------------------------------------------------------------------*/
FoamFile
{
    version     2.0;
    format      ascii;
    class       volScalarField;
    location    "15";
    object      p;
}
// * * * * * * * * * * * * * * * * * * * * * * * * * * * * * * * * * * * * * //

dimensions      [0 2 -2 0 0 0 0];

internalField   nonuniform List<scalar> 
130000
(
0.00660543
0.00583773
0.0053033
0.00490291
0.00456173
0.0042568
0.00398167
0.0037245
0.00348339
0.00325078
0.00302501
0.00280221
0.00258024
0.00235724
0.00213466
0.00191004
0.00168583
0.00145966
0.00122867
0.00100272
0.00987988
0.00935193
0.00880099
0.00836957
0.00796687
0.00759715
0.00723023
0.00687332
0.00651452
0.00615645
0.00579664
0.00543331
0.00507065
0.00470639
0.00434278
0.00398078
0.00362331
0.00326301
0.00290062
0.00254332
0.0127671
0.0122389
0.0116153
0.0110971
0.0105859
0.0101056
0.00962301
0.00915605
0.00868771
0.00822426
0.00776172
0.00729937
0.0068414
0.0063796
0.00592935
0.00547408
0.00503436
0.00458795
0.00415051
0.00370682
0.0152749
0.0147813
0.0141651
0.0136088
0.0130262
0.01245
0.0118619
0.0112812
0.0106973
0.0101141
0.00953512
0.00895365
0.00838422
0.00781299
0.00725678
0.00670006
0.00616466
0.00562484
0.0051057
0.0045816
0.0173174
0.0169605
0.0164285
0.0159037
0.0153176
0.0147069
0.0140721
0.0134276
0.0127743
0.0121093
0.0114467
0.0107742
0.0101149
0.00944537
0.00880061
0.00814547
0.00752269
0.00689036
0.00629121
0.00567955
0.0190765
0.0187809
0.0183073
0.0178135
0.0172376
0.0166115
0.015953
0.0152671
0.0145681
0.0138425
0.013119
0.0123728
0.0116439
0.0108988
0.0101795
0.00944829
0.00875338
0.00804561
0.00737762
0.0066931
0.0205002
0.0202866
0.0198691
0.0194078
0.0188504
0.018219
0.0175504
0.0168356
0.0161056
0.0153332
0.0145625
0.0137578
0.0129716
0.0121568
0.0113762
0.0105711
0.00981143
0.00903112
0.00829934
0.00753726
0.0217775
0.0216
0.0212288
0.0208046
0.0202736
0.0196447
0.0189739
0.0182404
0.0174899
0.0166824
0.015877
0.0150243
0.0141938
0.0133269
0.0124944
0.0116338
0.0108216
0.00998384
0.00920029
0.00838102
0.0229079
0.0227351
0.0223842
0.0219903
0.0214812
0.0208573
0.0201871
0.0194415
0.0186769
0.0178432
0.0170103
0.0161204
0.0152522
0.0143359
0.0134603
0.0125436
0.0116827
0.0107876
0.00995321
0.00906878
0.0238128
0.0236783
0.0233717
0.0230153
0.022537
0.0219235
0.0212603
0.0205083
0.019736
0.0188823
0.0180301
0.0171085
0.0162118
0.0152594
0.0143472
0.0133896
0.0124898
0.0115496
0.0106744
0.00974248
0.0247156
0.0245597
0.0242569
0.0239117
0.0234458
0.022832
0.0221707
0.0214107
0.0206321
0.0197614
0.0188926
0.0179454
0.0170233
0.0160341
0.015091
0.0140897
0.0131524
0.0121659
0.0112495
0.0102619
0.0253669
0.0252492
0.0249859
0.0246741
0.024236
0.0236307
0.0229775
0.0222144
0.0214334
0.0205496
0.0196691
0.018699
0.0177576
0.0167418
0.0157717
0.014739
0.0137722
0.0127495
0.0118005
0.0107733
0.0260535
0.0259029
0.0256405
0.025344
0.0249171
0.0243118
0.0236595
0.0228909
0.0221056
0.0212097
0.0203173
0.0193285
0.018368
0.0173234
0.0163295
0.0152614
0.0142643
0.0132033
0.0122198
0.0111446
0.0265511
0.0264356
0.026204
0.0259358
0.0255248
0.0249239
0.0242745
0.0235027
0.0227144
0.0218081
0.0209064
0.0198996
0.018924
0.0178586
0.016843
0.0157495
0.0147282
0.0136371
0.0126261
0.011517
0.0270343
0.0269326
0.0267164
0.0264558
0.0260493
0.0254444
0.0247943
0.0240164
0.0232242
0.0223076
0.0213956
0.0203735
0.0193818
0.0182928
0.0172568
0.0161339
0.0150864
0.0139631
0.0129211
0.0117708
0.02746
0.0273682
0.0271691
0.0269229
0.0265238
0.025919
0.0252695
0.0244883
0.0236929
0.0227679
0.0218475
0.0208106
0.0198054
0.0186992
0.0176439
0.0164998
0.0154306
0.0142815
0.0132143
0.0120341
0.0277599
0.0276909
0.0275155
0.0272955
0.0269095
0.0263106
0.0256637
0.0248828
0.0240847
0.0231542
0.0222245
0.0211768
0.0201562
0.0190313
0.0179566
0.0167884
0.0156942
0.0145182
0.0134213
0.012206
0.0281114
0.0280294
0.0278598
0.0276641
0.0272849
0.02669
0.026043
0.0252625
0.0244604
0.0235247
0.0225861
0.0215269
0.0204928
0.0193534
0.0182598
0.0170729
0.0159572
0.0147581
0.0136358
0.0123935
0.0283486
0.0282985
0.0281527
0.0279796
0.0276096
0.0270188
0.0263724
0.0255932
0.0247873
0.023848
0.0228993
0.0218321
0.0207823
0.0196281
0.0185144
0.0173077
0.0161667
0.014945
0.0137923
0.0125203
0.0286628
0.0286145
0.028477
0.0283143
0.0279468
0.0273544
0.0267047
0.0259253
0.025115
0.0241717
0.0232137
0.0221368
0.0210731
0.0199062
0.0187732
0.0175494
0.016386
0.0151425
0.0139628
0.0126645
0.0288769
0.028851
0.0287373
0.0285989
0.0282429
0.0276574
0.0270077
0.0262319
0.0254182
0.0244742
0.0235058
0.0224237
0.0213436
0.0201656
0.0190115
0.0177716
0.0165816
0.0153188
0.0141071
0.0127832
0.029135
0.0291145
0.0290091
0.0289002
0.0285532
0.027978
0.027327
0.0265553
0.0257368
0.0247927
0.0238147
0.0227258
0.0216311
0.0204416
0.0192674
0.0180107
0.0167967
0.0155119
0.0142705
0.0129195
0.0293659
0.0293732
0.0292862
0.0292056
0.0288676
0.0283038
0.0276516
0.0268861
0.0260622
0.0251205
0.0241311
0.0230396
0.0219272
0.0207292
0.019532
0.018262
0.0170191
0.0157177
0.0144417
0.0130684
0.0296508
0.0296807
0.029608
0.0295518
0.0292211
0.0286665
0.0280128
0.027252
0.0264221
0.0254804
0.0244804
0.0233827
0.0222544
0.0210449
0.019826
0.0185387
0.0172698
0.0159457
0.0146372
0.0132351
0.0299704
0.0300104
0.0299542
0.0299245
0.0296039
0.0290614
0.0284072
0.0276534
0.0268172
0.0258781
0.0248661
0.0237665
0.0226194
0.0214021
0.0201584
0.0188589
0.0175596
0.0162206
0.0148752
0.0134519
0.0302834
0.0303626
0.030326
0.0303357
0.0300292
0.0295024
0.0288498
0.0281034
0.0272623
0.0263235
0.0253012
0.0241951
0.0230317
0.0218017
0.0205349
0.0192164
0.0178894
0.0165257
0.0151453
0.0136901
0.0307266
0.0308134
0.0307913
0.0308237
0.0305269
0.0300099
0.0293579
0.0286175
0.0277717
0.0268336
0.0257996
0.0246901
0.023508
0.0222687
0.0209766
0.0196437
0.0182843
0.0169033
0.015484
0.0140047
0.0311593
0.0312897
0.0312993
0.0313636
0.0310851
0.0305801
0.0299333
0.029198
0.0283496
0.0274094
0.0263657
0.0252475
0.0240497
0.0227961
0.0214807
0.0201266
0.0187385
0.0173299
0.0158741
0.0143592
0.0317553
0.0318887
0.0319178
0.0320016
0.0317369
0.0312393
0.0305968
0.0298654
0.0290149
0.0280728
0.0270184
0.0258936
0.0246781
0.0234116
0.0220718
0.0206991
0.0192787
0.0178478
0.0163527
0.0148071
0.0323384
0.0325198
0.0325876
0.0327089
0.0324673
0.0319841
0.0313503
0.0306248
0.0297746
0.0288299
0.0277672
0.0266314
0.0254009
0.0241181
0.0227553
0.021359
0.0199098
0.0184481
0.0169161
0.0153309
0.0330987
0.0332945
0.0333866
0.033535
0.0333113
0.0328394
0.032213
0.0314931
0.0306435
0.0296974
0.0286256
0.0274811
0.0262331
0.0249338
0.0235467
0.0221273
0.0206456
0.019156
0.0175836
0.0159601
0.0338988
0.0341437
0.0342775
0.0344677
0.0342709
0.0338162
0.0332015
0.0324891
0.0316423
0.0306942
0.0296157
0.0284589
0.0271958
0.0258779
0.0244676
0.0230223
0.0215112
0.0199875
0.0183771
0.0167097
0.0348918
0.0351553
0.035321
0.035543
0.0353698
0.0349295
0.0343261
0.033621
0.0327776
0.0318285
0.0307426
0.0295757
0.028295
0.0269576
0.0255226
0.02405
0.022505
0.0209483
0.0192954
0.0175825
0.0359654
0.0362817
0.0364952
0.036763
0.0366215
0.036201
0.0356127
0.0349169
0.0340789
0.033129
0.0320386
0.0308595
0.0295641
0.0282062
0.0267465
0.025245
0.0236686
0.0220744
0.0203811
0.0186197
0.0372554
0.0375999
0.0378519
0.0381564
0.0380435
0.0376406
0.0370675
0.0363807
0.0355486
0.0345984
0.033503
0.0323145
0.0310027
0.0296231
0.028137
0.0266046
0.0249919
0.0233599
0.0216207
0.0198073
0.0386666
0.0390707
0.0393767
0.0397323
0.0396564
0.039277
0.0387231
0.0380477
0.0372235
0.0362731
0.0351745
0.0339741
0.0326487
0.0312481
0.0297367
0.0281728
0.0265259
0.0248521
0.0230686
0.021201
0.040333
0.0407686
0.041121
0.0415184
0.0414772
0.041119
0.0405846
0.0399206
0.039105
0.0381553
0.0370528
0.0358426
0.0345012
0.0330781
0.0315396
0.0299415
0.0282551
0.0265385
0.0247043
0.0227782
0.0421513
0.0426548
0.0430702
0.0435253
0.0435274
0.0431975
0.0426868
0.0420374
0.0412328
0.0402845
0.0391802
0.0379579
0.0366025
0.0351566
0.0335908
0.0319581
0.030234
0.0284708
0.0265872
0.0246003
0.0442629
0.0448095
0.0452786
0.0457831
0.0458258
0.0455225
0.0450357
0.0444013
0.0436083
0.0426624
0.0415555
0.0403231
0.0389511
0.0374805
0.0358853
0.0342149
0.0324472
0.0306356
0.0286957
0.0266428
0.046569
0.0471938
0.0477342
0.0483044
0.0483969
0.0481273
0.047669
0.0470528
0.0462739
0.0453312
0.0442238
0.0429792
0.0415928
0.0400977
0.0384731
0.0367644
0.0349549
0.0330911
0.031096
0.0289751
0.0492154
0.0498903
0.0504943
0.0511215
0.0512616
0.0510242
0.0505948
0.0499974
0.0492333
0.048295
0.0471864
0.0459321
0.0445288
0.0430074
0.0413515
0.0396014
0.0377444
0.0358266
0.0337695
0.0315744
0.0520918
0.052858
0.053545
0.0542471
0.0544449
0.0542477
0.0538525
0.0532778
0.0525314
0.0515987
0.0504916
0.0492257
0.047808
0.0462609
0.0445736
0.0427821
0.0408793
0.0389039
0.0367855
0.0345141
0.0553563
0.0561856
0.0569466
0.0577154
0.0579693
0.0578115
0.0574517
0.0569008
0.0561737
0.0552483
0.0541421
0.0528672
0.0514327
0.0498579
0.0481372
0.0463005
0.044346
0.0423105
0.0401233
0.0377687
0.0588967
0.0598287
0.0606849
0.0615399
0.0618617
0.0617523
0.0614341
0.0609117
0.0602071
0.0592908
0.0581884
0.0569027
0.055454
0.0538519
0.0520975
0.0502155
0.0482103
0.0461108
0.0438551
0.041415
0.0628732
0.0638783
0.0648235
0.0657573
0.0661464
0.0660851
0.0658104
0.0653181
0.0646382
0.0637329
0.0626342
0.0613407
0.0598751
0.0582436
0.0564532
0.0545219
0.0524597
0.0502932
0.0479609
0.0454275
0.0671716
0.0682932
0.0693493
0.0703831
0.0708516
0.0708487
0.0706239
0.0701676
0.0695162
0.0686244
0.0675326
0.0662299
0.0647503
0.0630904
0.0612636
0.0592828
0.0571644
0.0549267
0.0525175
0.0498881
0.071944
0.073161
0.0743233
0.0754529
0.0760015
0.0760585
0.0758867
0.0754691
0.074849
0.0739737
0.0728891
0.0715809
0.0700849
0.0683947
0.0665294
0.064495
0.0623137
0.0600016
0.0575067
0.0547727
0.0771029
0.078453
0.0797417
0.0809881
0.081629
0.0817568
0.0816451
0.0812728
0.0806884
0.079833
0.0787595
0.077445
0.075936
0.0742169
0.0723128
0.0702248
0.0679814
0.0655903
0.063009
0.060167
0.0827743
0.0842413
0.0856571
0.0870191
0.0877557
0.0879578
0.0879106
0.0875882
0.0870434
0.086212
0.0851509
0.0838348
0.0823109
0.0805618
0.0786168
0.0764716
0.074159
0.0716857
0.0690084
0.0660493
0.0888887
0.0905087
0.0920718
0.0935713
0.0944169
0.0947055
0.0947313
0.0944667
0.0939675
0.0931647
0.0921208
0.0908033
0.0892688
0.0874914
0.0855059
0.0833034
0.0809225
0.0783619
0.0755875
0.0725067
0.0955547
0.0973184
0.0990327
0.100672
0.101632
0.102013
0.102119
0.101918
0.101471
0.100702
0.0996782
0.0983653
0.0968191
0.0950135
0.0929858
0.0907229
0.0882664
0.0856154
0.0827337
0.0795218
0.102717
0.10466
0.106546
0.108348
0.109438
0.109926
0.110122
0.109996
0.109607
0.108879
0.107882
0.106575
0.105022
0.103191
0.101122
0.0987986
0.0962678
0.0935206
0.0905299
0.087181
0.110475
0.112587
0.114655
0.116624
0.117854
0.118457
0.118752
0.118709
0.118387
0.117708
0.116741
0.115448
0.11389
0.112034
0.109923
0.107537
0.104925
0.102079
0.0989682
0.0954726
0.118768
0.12109
0.123362
0.125525
0.126913
0.127648
0.128057
0.128109
0.127864
0.127243
0.126315
0.12504
0.123483
0.121605
0.119454
0.117006
0.114314
0.111362
0.10813
0.10448
0.127691
0.13022
0.132708
0.135074
0.136632
0.137511
0.138045
0.138205
0.138049
0.137496
0.136615
0.135367
0.133813
0.131919
0.129728
0.127216
0.124436
0.121378
0.118011
0.114197
0.137181
0.139959
0.14269
0.14529
0.147039
0.148083
0.14876
0.149044
0.14899
0.148517
0.147695
0.14648
0.14494
0.143033
0.140806
0.138232
0.135367
0.132193
0.128691
0.124701
0.147325
0.150351
0.153343
0.156188
0.158146
0.159372
0.160209
0.160634
0.160698
0.160321
0.159568
0.1584
0.156877
0.154964
0.152702
0.150067
0.147109
0.14382
0.140168
0.135994
0.15804
0.161364
0.164649
0.167777
0.169972
0.171406
0.172427
0.173014
0.173215
0.172949
0.172282
0.171171
0.169679
0.167767
0.165476
0.162781
0.159734
0.15632
0.152517
0.148145
0.169413
0.173039
0.176638
0.180067
0.182522
0.184187
0.185414
0.186187
0.186545
0.186413
0.185846
0.184811
0.183359
0.181458
0.179142
0.17639
0.173248
0.169709
0.16574
0.161159
0.181336
0.185318
0.189273
0.193047
0.195798
0.197728
0.199192
0.200179
0.200722
0.200745
0.200303
0.199357
0.197963
0.196083
0.193752
0.190945
0.187711
0.184038
0.1799
0.175095
0.19388
0.198226
0.202566
0.206712
0.209791
0.212018
0.21375
0.214984
0.215741
0.215949
0.215653
0.214823
0.2135
0.211656
0.209315
0.206459
0.203129
0.199321
0.194998
0.189956
0.206907
0.21168
0.216454
0.221027
0.224479
0.227049
0.229091
0.230611
0.231618
0.232044
0.231925
0.231232
0.230004
0.22821
0.225873
0.222973
0.21955
0.215598
0.211085
0.205785
0.220461
0.225678
0.230925
0.235964
0.239833
0.242789
0.245187
0.247037
0.248335
0.249017
0.249108
0.248585
0.247473
0.245749
0.243426
0.240489
0.236969
0.232872
0.228151
0.222579
0.234374
0.240103
0.245884
0.251457
0.255804
0.259206
0.262014
0.264246
0.265883
0.266866
0.267205
0.266883
0.265918
0.264285
0.261993
0.259025
0.255414
0.251161
0.246226
0.240358
0.248635
0.254915
0.261286
0.267448
0.272333
0.276239
0.279515
0.282186
0.284214
0.285546
0.286177
0.286097
0.285306
0.283791
0.281544
0.278559
0.274852
0.270443
0.265275
0.259092
0.263053
0.269963
0.277004
0.283838
0.289335
0.293818
0.297627
0.300798
0.303274
0.305005
0.305974
0.306173
0.305594
0.304224
0.302046
0.299055
0.295264
0.29069
0.285282
0.278761
0.277559
0.285158
0.292943
0.300523
0.306704
0.31183
0.316234
0.319962
0.322936
0.325117
0.326465
0.326987
0.326653
0.325461
0.323375
0.3204
0.31653
0.311802
0.306142
0.299268
0.291948
0.300316
0.308936
0.317351
0.324292
0.330124
0.335178
0.339509
0.343022
0.345686
0.34745
0.348326
0.348274
0.347294
0.345335
0.342404
0.338484
0.33361
0.327711
0.320478
0.306051
0.315269
0.324811
0.334133
0.341886
0.348462
0.354188
0.359137
0.363197
0.366357
0.368547
0.369801
0.370054
0.36932
0.367526
0.364682
0.360748
0.355773
0.349658
0.342087
0.319648
0.32978
0.340319
0.350605
0.359194
0.366508
0.372881
0.378411
0.382981
0.386598
0.389193
0.39081
0.391379
0.39092
0.389334
0.386636
0.382758
0.377743
0.371484
0.36363
0.332427
0.343538
0.355123
0.366377
0.375763
0.383737
0.39066
0.396661
0.401631
0.40561
0.408527
0.410461
0.411319
0.411142
0.409802
0.407313
0.403571
0.398624
0.39232
0.384285
0.34411
0.356184
0.368789
0.380943
0.391009
0.399482
0.406766
0.413041
0.418221
0.422388
0.425486
0.427623
0.428706
0.428788
0.427709
0.425488
0.421977
0.417212
0.411
0.402923
0.354129
0.367173
0.38072
0.393614
0.40415
0.412864
0.420231
0.426497
0.431622
0.435738
0.438809
0.440988
0.442171
0.442434
0.441588
0.439653
0.436427
0.431945
0.425939
0.41796
0.362161
0.376019
0.390313
0.403657
0.414329
0.422947
0.430069
0.435997
0.440756
0.444532
0.447327
0.449327
0.450436
0.450748
0.45004
0.448342
0.445391
0.441206
0.435469
0.427679
0.36734
0.381927
0.396761
0.410233
0.420652
0.428763
0.43527
0.440529
0.444624
0.447778
0.45003
0.451609
0.452418
0.452572
0.451825
0.450199
0.447379
0.44339
0.437844
0.430208
0.369283
0.38431
0.399395
0.412664
0.422475
0.429712
0.435251
0.439511
0.442653
0.444921
0.44639
0.44729
0.447545
0.447282
0.446222
0.44439
0.441423
0.43736
0.43177
0.424082
0.366924
0.382287
0.397413
0.410207
0.419139
0.425245
0.429581
0.43262
0.434601
0.435766
0.436218
0.43619
0.43561
0.434599
0.432863
0.430405
0.426854
0.422271
0.416195
0.408021
0.360134
0.375518
0.39046
0.402591
0.41049
0.415348
0.418396
0.420116
0.420803
0.420695
0.419941
0.418732
0.417018
0.414884
0.412017
0.408423
0.403724
0.398007
0.390818
0.381512
0.347799
0.36323
0.377981
0.389458
0.39637
0.400037
0.401847
0.402283
0.401687
0.400237
0.398113
0.395477
0.392294
0.388589
0.384076
0.378709
0.372154
0.364506
0.355352
0.344009
0.330041
0.34533
0.359923
0.370898
0.377031
0.379749
0.380556
0.379883
0.378095
0.3753
0.371716
0.367423
0.362424
0.356677
0.349924
0.342083
0.332841
0.322294
0.310141
0.295695
0.305484
0.320916
0.335673
0.346562
0.352378
0.354605
0.354834
0.353412
0.350689
0.346663
0.341575
0.335413
0.328225
0.319879
0.31021
0.299007
0.286049
0.271418
0.255034
0.236155
0.274052
0.289654
0.304965
0.316355
0.322524
0.324971
0.325272
0.323648
0.320402
0.31539
0.308867
0.300689
0.290962
0.279447
0.266046
0.25046
0.232577
0.212525
0.190423
0.165435
0.233305
0.249727
0.266416
0.279316
0.286891
0.290599
0.291955
0.29098
0.287871
0.282313
0.274556
0.264288
0.25167
0.236299
0.218224
0.197002
0.172769
0.145521
0.115644
0.0823628
0.182053
0.199697
0.218765
0.234527
0.244983
0.251423
0.255172
0.256045
0.254066
0.248693
0.240122
0.227823
0.212017
0.192118
0.16833
0.140101
0.10768
0.0709572
0.0308384
-0.0133079
0.115858
0.136074
0.159269
0.179964
0.195423
0.206684
0.214757
0.219171
0.219726
0.215592
0.206868
0.192747
0.173503
0.14834
0.117684
0.0806171
0.0376694
-0.0112554
-0.0646593
-0.123164
0.0317929
0.0558499
0.0854745
0.11392
0.137269
0.156152
0.171124
0.181366
0.186328
0.184858
0.176882
0.161296
0.138471
0.107347
0.0683717
0.0203669
-0.0356914
-0.0999772
-0.170445
-0.247555
-0.0765468
-0.0458579
-0.00616498
0.034116
0.0693453
0.099588
0.124777
0.143668
0.155298
0.158185
0.152063
0.135509
0.108988
0.0709286
0.0219479
-0.0393394
-0.111527
-0.195159
-0.287431
-0.388611
-0.212638
-0.172015
-0.117423
-0.0600255
-0.00788409
0.0382434
0.0774681
0.108113
0.128707
0.137452
0.133919
0.116472
0.0855041
0.0390886
-0.0216518
-0.0984748
-0.19
-0.297351
-0.416943
-0.548477
-0.381712
-0.325274
-0.248848
-0.167444
-0.0924617
-0.0258077
0.0308233
0.0754272
0.106085
0.120911
0.119762
0.100734
0.0639917
0.00757608
-0.0668858
-0.162063
-0.276736
-0.412905
-0.566134
-0.735685
-0.581858
-0.502275
-0.395422
-0.282595
-0.179479
-0.0889192
-0.0130997
0.0457472
0.0856749
0.105076
0.103888
0.0800733
0.0344002
-0.0348008
-0.125843
-0.242443
-0.38413
-0.554152
-0.747667
-0.963659
-0.808542
-0.694832
-0.547105
-0.395467
-0.260346
-0.145309
-0.0523094
0.0172334
0.0618906
0.0807929
0.0744195
0.0409496
-0.018314
-0.105158
-0.21804
-0.361945
-0.537027
-0.748042
-0.990076
-1.26221
-1.04461
-0.885022
-0.687268
-0.493698
-0.3288
-0.195126
-0.0926612
-0.021238
0.0193565
0.0293701
0.00967201
-0.0407645
-0.120095
-0.230876
-0.372428
-0.551415
-0.769031
-1.03157
-1.3347
-1.67697
-1.27338
-1.05785
-0.80821
-0.580304
-0.399279
-0.26326
-0.16744
-0.108345
-0.0837582
-0.0925011
-0.132883
-0.205444
-0.309227
-0.448434
-0.624479
-0.846641
-1.11752
-1.44426
-1.82151
-2.24554
-1.48416
-1.21226
-0.924791
-0.687592
-0.517128
-0.401592
-0.329412
-0.294045
-0.292714
-0.324292
-0.387244
-0.482039
-0.609906
-0.777535
-0.989799
-1.25842
-1.58622
-1.97853
-2.4282
-2.92921
-1.702
-1.3865
-1.08663
-0.865764
-0.722427
-0.634267
-0.586586
-0.572471
-0.590894
-0.640219
-0.719882
-0.830232
-0.975578
-1.16437
-1.40567
-1.71151
-2.08546
-2.53002
-3.03734
-3.59731
-2.00785
-1.66175
-1.36012
-1.14747
-1.01037
-0.927466
-0.886823
-0.880207
-0.904997
-0.957195
-1.03836
-1.14881
-1.29629
-1.48803
-1.73715
-2.05482
-2.44839
-2.91893
-3.46023
-4.04648
-2.53211
-2.16654
-1.84405
-1.60252
-1.43987
-1.34068
-1.28905
-1.26866
-1.27699
-1.3088
-1.37
-1.45768
-1.58172
-1.74382
-1.9607
-2.24096
-2.60384
-3.05482
-3.58285
-4.09842
-3.4288
-3.00749
-2.61599
-2.31361
-2.09688
-1.9482
-1.85054
-1.7872
-1.75864
-1.75615
-1.78571
-1.83849
-1.92469
-2.03412
-2.18377
-2.37527
-2.64492
-3.0085
-3.43678
-3.6538
-4.17031
-3.7565
-3.28627
-2.86482
-2.53083
-2.28968
-2.12632
-2.01382
-1.95203
-1.92297
-1.93661
-1.97172
-2.04607
-2.13032
-2.25917
-2.404
-2.6246
-2.89562
-3.12122
-2.7847
-3.45606
-3.84409
-3.51568
-3.05375
-2.69375
-2.44106
-2.2613
-2.13458
-2.05592
-2.01667
-2.01752
-2.04854
-2.11285
-2.19719
-2.30815
-2.43482
-2.61195
-2.80577
-2.69233
-1.81269
0.00202248
0.00195252
0.00190521
0.00185672
0.00179505
0.00173463
0.00168268
0.00162992
0.00157966
0.00152475
0.00146877
0.00140629
0.00134008
0.00126502
0.00118639
0.00109863
0.00100751
0.000904646
0.000783043
0.000645995
0.00804824
0.00795561
0.00789784
0.00783648
0.00774333
0.0076555
0.00756364
0.0074733
0.00737397
0.00727029
0.00715616
0.00703436
0.00690185
0.00676209
0.00660996
0.00645338
0.00628753
0.00610994
0.00590686
0.00571056
0.0141626
0.0141307
0.0140131
0.0139146
0.0137725
0.0136415
0.0134915
0.0133501
0.0131881
0.0130295
0.0128512
0.0126737
0.012478
0.0122799
0.0120693
0.0118569
0.0116349
0.0114075
0.0111556
0.0109056
0.0194243
0.0193872
0.0192472
0.019138
0.0189659
0.0188059
0.0186112
0.0184287
0.0182145
0.0180084
0.0177757
0.0175484
0.0172989
0.0170552
0.0167912
0.0165344
0.0162622
0.015992
0.0156995
0.0154159
0.0251282
0.0250933
0.0249462
0.0248354
0.0246421
0.0244615
0.0242321
0.0240195
0.0237646
0.0235226
0.0232449
0.0229786
0.0226826
0.0223941
0.0220839
0.0217795
0.0214588
0.021143
0.0208049
0.0204791
0.0306579
0.0306265
0.0304752
0.0303691
0.0301624
0.029969
0.0297145
0.02948
0.0291945
0.0289247
0.0286123
0.0283126
0.0279785
0.0276564
0.0273041
0.0269641
0.0266017
0.0262478
0.025867
0.0255003
0.0360975
0.0360731
0.0359205
0.0358209
0.0356065
0.0354074
0.0351358
0.0348869
0.0345779
0.0342869
0.0339451
0.0336185
0.0332502
0.0328927
0.0325044
0.0321246
0.0317223
0.0313284
0.0309056
0.0304916
0.041573
0.0415453
0.0413896
0.0413
0.0410829
0.0408826
0.0405997
0.0403404
0.0400129
0.039704
0.0393382
0.038987
0.0385901
0.0382068
0.0377845
0.037376
0.0369392
0.0365133
0.0360541
0.0356052
0.0470227
0.0470012
0.0468483
0.0467708
0.0465536
0.0463536
0.0460616
0.0457948
0.0454518
0.0451283
0.0447411
0.0443693
0.0439458
0.0435326
0.0430809
0.042637
0.0421656
0.0417019
0.0412033
0.040707
0.0525325
0.0525113
0.0523616
0.0522996
0.0520854
0.0518881
0.05159
0.0513179
0.050963
0.0506272
0.0502225
0.0498319
0.0493857
0.0489516
0.0484708
0.048002
0.0474992
0.0470051
0.0464711
0.0459399
0.0580305
0.0580223
0.0578829
0.0578406
0.057634
0.0574433
0.0571419
0.0568669
0.0565016
0.0561555
0.0557345
0.055328
0.05486
0.0543993
0.0538917
0.053388
0.0528516
0.0523197
0.0517476
0.0511688
0.0636332
0.0636294
0.0634996
0.063479
0.0632823
0.063101
0.0627997
0.0625245
0.0621518
0.0617977
0.0613631
0.0609408
0.0604534
0.0599741
0.0594394
0.0589116
0.058345
0.0577838
0.0571781
0.0565645
0.0692768
0.069294
0.069179
0.0691813
0.0689951
0.0688246
0.0685247
0.0682516
0.067873
0.0675127
0.0670645
0.0666281
0.06612
0.0656156
0.0650558
0.0644956
0.0638973
0.0632989
0.0626545
0.0619909
0.0750961
0.075124
0.0750206
0.0750436
0.074869
0.0747096
0.0744123
0.0741414
0.073758
0.0733919
0.0729322
0.0724814
0.0719548
0.0714321
0.0708465
0.070262
0.0696331
0.069003
0.0683223
0.0676197
0.0810042
0.0810616
0.0809756
0.081021
0.0808588
0.0807125
0.0804197
0.0801528
0.0797653
0.0793947
0.0789234
0.0784608
0.0779155
0.0773693
0.0767577
0.0761392
0.0754748
0.0748038
0.07408
0.0733243
0.0871256
0.0872049
0.0871382
0.087205
0.0870573
0.0869235
0.0866368
0.086374
0.0859841
0.0856082
0.0851266
0.0846499
0.0840869
0.0835206
0.0828819
0.0822353
0.0815381
0.0808317
0.0800694
0.0792714
0.0933695
0.0934932
0.0934572
0.0935501
0.0934197
0.0932999
0.0930208
0.0927629
0.0923718
0.0919913
0.0914984
0.0910079
0.090424
0.0898325
0.089166
0.0884863
0.087754
0.0870091
0.0862048
0.0853556
0.0998505
0.100016
0.100011
0.100128
0.100018
0.0999123
0.0996432
0.0993899
0.098999
0.0986136
0.0981118
0.0976053
0.0970027
0.0963876
0.0956938
0.0949836
0.0942182
0.0934355
0.0925916
0.0916961
0.106508
0.106732
0.106764
0.106908
0.106818
0.106731
0.106474
0.106228
0.105838
0.105448
0.104936
0.104416
0.103793
0.103152
0.102429
0.101683
0.100878
0.100055
0.0991646
0.098216
0.113439
0.113714
0.113782
0.113947
0.113879
0.113805
0.113563
0.113322
0.112934
0.112538
0.112017
0.111478
0.110837
0.11017
0.109418
0.108637
0.107797
0.10693
0.105996
0.104994
0.120593
0.120926
0.121035
0.121222
0.121175
0.121114
0.120885
0.120649
0.120264
0.119861
0.11933
0.118776
0.118114
0.117422
0.116641
0.115827
0.114946
0.114037
0.113053
0.111996
0.128009
0.128401
0.128553
0.128762
0.128737
0.128689
0.128473
0.128239
0.127858
0.12745
0.126913
0.126343
0.125665
0.124948
0.124139
0.123289
0.12237
0.121415
0.120382
0.119265
0.135679
0.136137
0.136336
0.136569
0.13657
0.136537
0.136337
0.136109
0.135732
0.135321
0.134779
0.134198
0.133502
0.132762
0.131923
0.13104
0.130078
0.129078
0.12799
0.126815
0.143635
0.14416
0.144411
0.144673
0.144705
0.144691
0.144512
0.144292
0.143922
0.143506
0.142959
0.142362
0.141651
0.140886
0.140019
0.139097
0.138093
0.13704
0.135896
0.134653
0.151896
0.152486
0.152795
0.153092
0.153163
0.153172
0.153019
0.152809
0.152448
0.15203
0.151477
0.150868
0.150138
0.149349
0.148449
0.147489
0.146436
0.145334
0.144126
0.142817
0.160455
0.161122
0.161497
0.161838
0.161954
0.161993
0.161868
0.161672
0.161322
0.160903
0.160346
0.159722
0.158974
0.158155
0.157219
0.156214
0.15511
0.153947
0.152674
0.151287
0.16937
0.17011
0.170554
0.170944
0.171109
0.17118
0.171088
0.170909
0.170574
0.170156
0.169595
0.168957
0.168186
0.167336
0.166361
0.16531
0.164149
0.162928
0.161583
0.16012
0.178632
0.179455
0.179972
0.180415
0.180633
0.18074
0.180684
0.180525
0.180208
0.179791
0.179229
0.178572
0.177779
0.176893
0.175877
0.174773
0.173556
0.172265
0.170847
0.169295
0.188303
0.189204
0.189795
0.190293
0.190565
0.190711
0.190692
0.190555
0.190255
0.189841
0.189275
0.188602
0.187784
0.186862
0.185802
0.184645
0.183364
0.182006
0.180507
0.178865
0.198371
0.199362
0.200034
0.200593
0.200925
0.201111
0.20113
0.201013
0.200731
0.200318
0.199749
0.199057
0.198217
0.197257
0.196153
0.194939
0.193596
0.19216
0.19058
0.188838
0.208888
0.20997
0.210726
0.211352
0.211746
0.211975
0.212032
0.211936
0.21167
0.211257
0.210684
0.209974
0.209109
0.208111
0.206961
0.205687
0.204276
0.202762
0.201092
0.199245
0.219866
0.22105
0.221898
0.222599
0.223059
0.223337
0.223435
0.223363
0.223115
0.222704
0.222127
0.221395
0.220505
0.219465
0.218266
0.216928
0.215448
0.213847
0.212086
0.210126
0.231349
0.232639
0.233584
0.234366
0.234899
0.235229
0.235373
0.235328
0.2351
0.234692
0.23411
0.233359
0.232438
0.231351
0.230098
0.22869
0.22713
0.225437
0.223576
0.221497
0.243369
0.244776
0.245826
0.246699
0.24731
0.2477
0.247895
0.247883
0.247678
0.247275
0.24669
0.245916
0.244966
0.243832
0.242522
0.241039
0.239397
0.237605
0.235638
0.233431
0.255961
0.257493
0.258656
0.259626
0.260322
0.260778
0.261028
0.261052
0.260873
0.260477
0.259889
0.259095
0.258113
0.25693
0.255559
0.253997
0.252265
0.250367
0.248282
0.245935
0.269169
0.270838
0.272123
0.273199
0.273986
0.274514
0.274824
0.27489
0.27474
0.274354
0.273765
0.27295
0.271937
0.270703
0.26927
0.267625
0.265801
0.26379
0.261582
0.259084
0.283017
0.284837
0.286254
0.287445
0.28833
0.288936
0.28931
0.289421
0.289303
0.28893
0.28834
0.287505
0.286457
0.285168
0.283667
0.281934
0.280007
0.277876
0.275532
0.272874
0.297556
0.299539
0.301101
0.302419
0.303411
0.304103
0.304548
0.304709
0.304625
0.304266
0.303676
0.302819
0.301735
0.30039
0.298817
0.296992
0.294958
0.292698
0.290213
0.287385
0.31281
0.314972
0.31669
0.318147
0.319257
0.320044
0.320565
0.320781
0.320736
0.320393
0.319802
0.318923
0.317801
0.316394
0.314743
0.312816
0.310664
0.308266
0.305627
0.302616
0.328836
0.331192
0.33308
0.334689
0.335928
0.336818
0.337425
0.337702
0.3377
0.337376
0.336786
0.335883
0.33472
0.333248
0.331513
0.329479
0.327205
0.324659
0.321858
0.318653
0.345658
0.348227
0.350301
0.352074
0.353452
0.354457
0.355156
0.355501
0.355546
0.355245
0.354655
0.35373
0.352521
0.350979
0.349155
0.347005
0.344595
0.341891
0.338912
0.335498
0.363333
0.366133
0.368409
0.370362
0.371892
0.373022
0.373822
0.374243
0.374339
0.374064
0.373478
0.372527
0.371273
0.369657
0.367738
0.365466
0.362914
0.36004
0.356874
0.353236
0.381888
0.384941
0.387437
0.389585
0.39128
0.392546
0.393458
0.393961
0.394115
0.393869
0.393286
0.392312
0.391008
0.389314
0.387293
0.384889
0.382182
0.379126
0.375755
0.371874
0.401378
0.404708
0.407443
0.409805
0.41168
0.413096
0.414129
0.414723
0.414942
0.414728
0.414153
0.413152
0.411799
0.410022
0.407893
0.405349
0.402479
0.399227
0.395638
0.391499
0.421833
0.425465
0.428462
0.431056
0.433128
0.434708
0.435874
0.436569
0.436858
0.436683
0.436115
0.435091
0.433682
0.431817
0.429572
0.426877
0.423827
0.420365
0.416539
0.412119
0.443305
0.447266
0.45055
0.453399
0.455687
0.457447
0.458759
0.459566
0.459934
0.459801
0.459245
0.458194
0.45673
0.454772
0.452402
0.449546
0.446307
0.442617
0.438539
0.433818
0.465823
0.470146
0.473742
0.47687
0.479394
0.481352
0.482826
0.483755
0.484211
0.484127
0.483584
0.482508
0.480982
0.478924
0.47642
0.473388
0.469942
0.466007
0.461652
0.456605
0.489432
0.494151
0.49809
0.501524
0.504308
0.506483
0.508135
0.509202
0.509755
0.509726
0.5092
0.508097
0.506508
0.504342
0.501694
0.498475
0.494808
0.490607
0.485957
0.480559
0.514156
0.519308
0.523624
0.527393
0.530462
0.532877
0.534725
0.535943
0.536604
0.536638
0.536131
0.535003
0.533344
0.531063
0.528259
0.524837
0.520926
0.51644
0.511466
0.505687
0.540026
0.545654
0.550381
0.554521
0.557903
0.560584
0.562648
0.564035
0.564816
0.564921
0.564438
0.563281
0.561552
0.559146
0.556174
0.552533
0.548363
0.543564
0.538244
0.532053
0.567053
0.573202
0.578381
0.582926
0.586654
0.589627
0.591931
0.593504
0.59442
0.594605
0.59415
0.592966
0.591157
0.588618
0.585463
0.581583
0.577127
0.571993
0.566292
0.559655
0.595242
0.601962
0.607639
0.612631
0.616739
0.620036
0.622606
0.624387
0.625453
0.625728
0.625306
0.624093
0.622202
0.619518
0.616166
0.612028
0.607266
0.601766
0.595656
0.588536
0.624575
0.631922
0.638143
0.643626
0.648154
0.651808
0.654671
0.656684
0.657917
0.658294
0.657909
0.656671
0.654688
0.651849
0.648281
0.643864
0.638765
0.63287
0.626312
0.61867
0.655012
0.663045
0.669865
0.675888
0.680878
0.684928
0.688117
0.690387
0.691806
0.692297
0.691959
0.690691
0.688615
0.685609
0.68181
0.677091
0.671633
0.665307
0.658271
0.650064
0.686482
0.695262
0.702735
0.709348
0.714846
0.71933
0.722878
0.725431
0.727057
0.727679
0.727393
0.726102
0.723924
0.720741
0.716694
0.711651
0.705801
0.699016
0.691459
0.682646
0.718857
0.72845
0.736635
0.743892
0.749943
0.754904