/*--------------------------------*- C++ -*----------------------------------*\
  =========                 |
  \\      /  F ield         | OpenFOAM: The Open Source CFD Toolbox
   \\    /   O peration     | Website:  https://openfoam.org
    \\  /    A nd           | Version:  6
     \\/     M anipulation  |
\*---------------------------------------------------------------------------*/
FoamFile
{
    version     2.0;
    format      ascii;
    class       volScalarField;
    location    "15";
    object      p;
}
// * * * * * * * * * * * * * * * * * * * * * * * * * * * * * * * * * * * * * //

dimensions      [0 2 -2 0 0 0 0];

internalField   nonuniform List<scalar> 
10000
(
-0.0152467
-0.0190351
-0.0180379
-0.0110954
-0.00607263
-0.00266366
-5.35025e-05
0.00223095
0.00428812
0.00547815
0.00576683
0.00473764
0.00222868
-0.0017334
-0.00738513
-0.0142707
-0.0222416
-0.0304266
-0.0283736
-0.0186381
-0.0424167
-0.0421274
-0.0291564
-0.00498902
0.0162465
0.0307456
0.0392877
0.0447701
0.0486834
0.0511422
0.0526285
0.0525219
0.0522329
0.0506546
0.0470516
0.0384998
0.0228487
0.0037045
-0.0079381
-0.0112505
0.0299394
0.0269887
0.0304856
0.0423402
0.0580588
0.0741738
0.0878915
0.0982405
0.105298
0.109666
0.111929
0.11261
0.112019
0.111171
0.110651
0.110324
0.109339
0.10713
0.101827
0.0945184
0.133604
0.137759
0.139976
0.143578
0.148849
0.154657
0.160454
0.165803
0.170178
0.173661
0.176241
0.178517
0.180876
0.18371
0.186851
0.190153
0.191983
0.190829
0.186795
0.181679
0.251064
0.260241
0.261551
0.255978
0.248988
0.243001
0.239715
0.238794
0.239554
0.241092
0.243114
0.245903
0.249287
0.25411
0.259769
0.266095
0.272376
0.276263
0.274601
0.269173
0.323062
0.32771
0.329317
0.325087
0.318208
0.311324
0.306292
0.303516
0.302676
0.303105
0.304163
0.305784
0.308186
0.311526
0.31574
0.320743
0.325592
0.32881
0.328714
0.3272
0.362595
0.358306
0.357421
0.356785
0.356099
0.356206
0.356621
0.357363
0.358339
0.359442
0.360675
0.361913
0.362753
0.3629
0.36191
0.360007
0.358038
0.356695
0.357681
0.362889
0.410486
0.405686
0.405751
0.408214
0.410708
0.41335
0.415327
0.416711
0.417472
0.41805
0.418087
0.417501
0.416215
0.413544
0.40943
0.404361
0.399889
0.397493
0.398195
0.403176
0.478904
0.479098
0.481255
0.484141
0.485953
0.485769
0.484405
0.482774
0.481344
0.480032
0.478668
0.476827
0.473825
0.469567
0.464186
0.457861
0.452103
0.448865
0.45002
0.454862
0.551343
0.554262
0.555355
0.55497
0.554164
0.552071
0.549516
0.547151
0.545256
0.54392
0.542993
0.54195
0.540867
0.539502
0.53807
0.536844
0.535636
0.535096
0.535339
0.535157
0.601412
0.600111
0.599527
0.60051
0.602357
0.604165
0.605282
0.605785
0.605883
0.605965
0.606236
0.607395
0.609341
0.613056
0.618207
0.624594
0.631246
0.636041
0.634646
0.62649
0.650852
0.649447
0.648581
0.649816
0.652914
0.656752
0.660005
0.662455
0.66401
0.665171
0.666022
0.667228
0.669176
0.672007
0.675728
0.680247
0.684776
0.688083
0.688115
0.684947
0.702313
0.700974
0.700165
0.70179
0.705716
0.710818
0.715624
0.719325
0.72191
0.723547
0.724789
0.725678
0.726127
0.726105
0.72556
0.724322
0.722886
0.721787
0.722345
0.725912
0.765207
0.768054
0.770727
0.77329
0.775649
0.777864
0.779803
0.781504
0.782892
0.784014
0.784819
0.785047
0.78509
0.784209
0.782594
0.780151
0.777404
0.775258
0.774277
0.775695
0.836375
0.844008
0.84801
0.847076
0.844521
0.842396
0.841585
0.841759
0.842464
0.843073
0.843538
0.843668
0.84333
0.842476
0.840868
0.838015
0.834534
0.831397
0.830074
0.831061
0.898239
0.896727
0.895318
0.895152
0.896053
0.897903
0.899852
0.901426
0.902517
0.903302
0.903644
0.903422
0.903169
0.902675
0.902267
0.901823
0.901034
0.899761
0.898452
0.897668
0.97883
0.978711
0.976159
0.97197
0.968955
0.967288
0.966416
0.966043
0.965862
0.965561
0.96499
0.964218
0.962869
0.961635
0.960865
0.961252
0.96306
0.964703
0.96432
0.961471
1.0487
1.04822
1.04742
1.04438
1.04047
1.03689
1.03427
1.0328
1.03202
1.0315
1.03102
1.03012
1.02883
1.02628
1.02242
1.01778
1.01306
1.00984
1.01136
1.01622
1.11796
1.11691
1.11756
1.1165
1.11332
1.10916
1.10532
1.10251
1.10085
1.10004
1.10001
1.10064
1.10162
1.10294
1.10431
1.10509
1.1053
1.10544
1.10557
1.10479
1.18684
1.18538
1.18534
1.18452
1.18183
1.17779
1.17355
1.17016
1.16784
1.16677
1.16654
1.16741
1.16987
1.17436
1.18127
1.18997
1.1984
1.20376
1.20239
1.19472
1.23656
1.23503
1.23463
1.23495
1.23471
1.23341
1.23149
1.22939
1.22777
1.22677
1.2266
1.22731
1.22849
1.23079
1.23395
1.23777
1.24176
1.2443
1.2448
1.24456
1.26632
1.26335
1.26383
1.26778
1.27278
1.27706
1.27997
1.2813
1.28179
1.28203
1.28241
1.28259
1.28284
1.28193
1.27945
1.27525
1.27019
1.26632
1.2673
1.2748
1.3054
1.30282
1.30372
1.30898
1.31624
1.323
1.32832
1.33181
1.33391
1.33495
1.33551
1.33564
1.33521
1.33389
1.3315
1.32764
1.32307
1.31942
1.31873
1.32184
1.36997
1.37124
1.37061
1.37121
1.37435
1.37867
1.38328
1.38723
1.38993
1.39145
1.3918
1.39096
1.38912
1.38617
1.38309
1.38076
1.37937
1.37942
1.3799
1.37905
1.44234
1.44285
1.4411
1.44149
1.44373
1.44662
1.44972
1.45221
1.45382
1.45442
1.4544
1.4536
1.45172
1.44887
1.44517
1.44093
1.4372
1.4357
1.43749
1.43989
1.52416
1.52865
1.53046
1.52927
1.52681
1.52458
1.52326
1.52269
1.52254
1.52237
1.52198
1.52126
1.52073
1.52034
1.52022
1.52028
1.51991
1.51922
1.51937
1.51961
1.60459
1.60921
1.61144
1.60747
1.60122
1.59577
1.59211
1.59026
1.58982
1.58994
1.59038
1.59127
1.59249
1.59481
1.59816
1.60257
1.60696
1.60928
1.60927
1.60681
1.67381
1.67538
1.67576
1.67246
1.66733
1.66214
1.65825
1.65607
1.65529
1.65562
1.65665
1.65847
1.66159
1.66603
1.67182
1.67855
1.6849
1.68921
1.68991
1.68662
1.72552
1.71983
1.71821
1.71877
1.71896
1.71869
1.71798
1.71713
1.71668
1.71683
1.71767
1.71928
1.72157
1.72499
1.72926
1.73406
1.73872
1.74208
1.74292
1.74075
1.7826
1.77749
1.77596
1.77618
1.77656
1.77715
1.7774
1.77725
1.77692
1.77669
1.77672
1.77674
1.77687
1.77623
1.77473
1.77248
1.77004
1.76819
1.76892
1.77248
1.84096
1.8369
1.83492
1.83528
1.83598
1.83664
1.83686
1.83662
1.83599
1.83495
1.83371
1.83215
1.8299
1.82652
1.82188
1.81613
1.81092
1.80781
1.8081
1.81169
1.90429
1.90455
1.90449
1.90474
1.90427
1.90283
1.90073
1.89851
1.89644
1.89452
1.89229
1.8895
1.88593
1.88105
1.87511
1.8684
1.86198
1.8581
1.85871
1.86146
1.95657
1.96032
1.96148
1.9598
1.95756
1.95593
1.95517
1.95485
1.95466
1.95441
1.95402
1.95335
1.95196
1.95029
1.94843
1.9465
1.94451
1.94294
1.94176
1.93916
1.99649
1.99024
1.98724
1.98917
1.99399
2.00046
2.00667
2.01147
2.01445
2.01655
2.01792
2.01937
2.02125
2.02424
2.02857
2.03415
2.03984
2.04341
2.0403
2.03092
2.07476
2.07462
2.07372
2.07368
2.07511
2.07686
2.07847
2.07973
2.08064
2.08116
2.08161
2.08242
2.08365
2.08599
2.08923
2.09319
2.0972
2.09991
2.09934
2.09644
2.16253
2.17147
2.17522
2.17227
2.16654
2.15948
2.1536
2.14957
2.14735
2.14599
2.14521
2.14451
2.1443
2.14416
2.14407
2.14394
2.1437
2.14358
2.14489
2.1486
2.21699
2.22021
2.2222
2.22099
2.21806
2.21435
2.21101
2.20848
2.20694
2.20605
2.20572
2.20571
2.20588
2.20607
2.20617
2.2062
2.20647
2.20685
2.20704
2.20782
2.25412
2.2501
2.24944
2.25224
2.25614
2.25996
2.2623
2.26348
2.26383
2.26424
2.26446
2.26475
2.26495
2.26487
2.26455
2.26405
2.26347
2.26303
2.26279
2.26309
2.30398
2.30213
2.30204
2.3048
2.30918
2.31418
2.31824
2.32129
2.32311
2.32429
2.32501
2.32561
2.32566
2.32537
2.32443
2.32293
2.32114
2.31972
2.3193
2.31947
2.36865
2.36765
2.36638
2.36768
2.37064
2.37458
2.3785
2.38211
2.38473
2.38675
2.38803
2.3891
2.3898
2.39015
2.38986
2.38897
2.38749
2.38615
2.3856
2.38563
2.45445
2.4571
2.4572
2.45612
2.45416
2.45208
2.4506
2.45005
2.45025
2.45089
2.45167
2.45285
2.45417
2.45611
2.45835
2.46093
2.4632
2.46447
2.46366
2.46166
2.53529
2.54148
2.5431
2.53834
2.53082
2.52345
2.51797
2.5146
2.51271
2.51194
2.51135
2.51117
2.51118
2.5119
2.51379
2.51733
2.52192
2.52575
2.52543
2.52172
2.58385
2.57986
2.57859
2.57834
2.57757
2.57639
2.57485
2.57306
2.57138
2.56994
2.56857
2.56682
2.56406
2.55998
2.55444
2.54844
2.54309
2.53982
2.54167
2.54887
2.63304
2.62909
2.62794
2.62877
2.63045
2.63193
2.63247
2.63228
2.63157
2.63068
2.6296
2.62811
2.62592
2.62239
2.61676
2.60919
2.60079
2.59452
2.59482
2.60159
2.68353
2.67924
2.67721
2.67898
2.68243
2.68626
2.68934
2.69172
2.69321
2.69423
2.69483
2.69543
2.69586
2.69699
2.69851
2.7
2.70093
2.70137
2.69948
2.69474
2.75347
2.75239
2.751
2.75207
2.75406
2.75595
2.75724
2.75844
2.75939
2.76072
2.76198
2.76396
2.7667
2.77101
2.77696
2.78451
2.79217
2.79743
2.79534
2.78638
2.83654
2.8422
2.8427
2.83948
2.83525
2.83116
2.82799
2.82601
2.825
2.82475
2.82512
2.82655
2.82887
2.83262
2.83741
2.84316
2.84838
2.85115
2.85009
2.84686
2.90024
2.90349
2.90518
2.90376
2.89988
2.8952
2.8911
2.88798
2.8859
2.88478
2.88439
2.88458
2.88494
2.88508
2.88467
2.88378
2.88245
2.88096
2.88163
2.88604
2.94674
2.94729
2.9482
2.94875
2.9481
2.9466
2.94493
2.94349
2.94232
2.94158
2.94109
2.94058
2.93942
2.93747
2.93449
2.93066
2.92704
2.92476
2.92495
2.92774
2.99112
2.98594
2.98247
2.98391
2.98819
2.99315
2.997
2.99951
3.0005
3.0008
3.00022
2.99905
2.99675
2.99318
2.98809
2.98224
2.97664
2.97291
2.97286
2.97498
3.05799
3.05857
3.05892
3.06014
3.06219
3.06423
3.06539
3.06597
3.06592
3.06568
3.06515
3.06466
3.06363
3.06227
3.06008
3.05743
3.0544
3.0518
3.05061
3.04929
3.12588
3.13453
3.14083
3.14251
3.14093
3.13752
3.134
3.13146
3.12985
3.12943
3.12952
3.13062
3.13249
3.13583
3.14013
3.14487
3.14853
3.14996
3.14687
3.13855
3.17009
3.1742
3.17679
3.17837
3.17974
3.18104
3.18223
3.1833
3.18413
3.18515
3.18621
3.188
3.19024
3.19386
3.19807
3.2027
3.20648
3.20798
3.20632
3.20198
3.21869
3.21604
3.21432
3.21612
3.22122
3.22785
3.23365
3.23784
3.24015
3.24144
3.24174
3.24157
3.24072
3.23971
3.23842
3.23767
3.23773
3.23815
3.23926
3.24162
3.30323
3.30643
3.3082
3.30789
3.30748
3.30693
3.30618
3.30544
3.30466
3.30363
3.30236
3.30052
3.29758
3.29306
3.28665
3.27891
3.27164
3.26738
3.26998
3.27795
3.38329
3.39094
3.39464
3.39176
3.38623
3.38017
3.37513
3.3715
3.36916
3.36746
3.366
3.36442
3.36264
3.3603
3.35712
3.35353
3.34995
3.34816
3.34907
3.35013
3.43071
3.42758
3.42724
3.42834
3.42911
3.42992
3.43038
3.43056
3.43047
3.43064
3.43092
3.43187
3.43315
3.43575
3.43951
3.44431
3.44851
3.4508
3.44855
3.44032
3.48688
3.48338
3.48373
3.48677
3.48928
3.49098
3.49176
3.49231
3.49259
3.49338
3.49444
3.4964
3.49917
3.5034
3.50876
3.51512
3.52073
3.52375
3.5219
3.5155
3.5566
3.55897
3.55949
3.55826
3.55701
3.55618
3.55575
3.55554
3.55542
3.55572
3.55636
3.5577
3.55932
3.56185
3.56475
3.56806
3.57161
3.57442
3.57433
3.5728
3.62414
3.62233
3.61954
3.6177
3.61718
3.6176
3.6182
3.61865
3.61903
3.6195
3.62027
3.62137
3.62273
3.62371
3.62321
3.62105
3.61778
3.61499
3.61475
3.61875
3.7025
3.70445
3.70472
3.70307
3.6997
3.69499
3.69021
3.6864
3.68392
3.68255
3.68205
3.68234
3.68289
3.6836
3.68393
3.68342
3.68248
3.68121
3.67949
3.67837
3.76211
3.76791
3.7704
3.76771
3.76249
3.75644
3.751
3.74657
3.74322
3.74091
3.73913
3.73754
3.73595
3.7344
3.73321
3.73312
3.734
3.73465
3.73305
3.72916
3.79196
3.78748
3.7871
3.79026
3.79442
3.79834
3.80083
3.80139
3.80058
3.79917
3.79766
3.79605
3.79366
3.79
3.78453
3.77742
3.77008
3.7645
3.76452
3.76893
3.84738
3.84696
3.84793
3.85079
3.85487
3.85876
3.86136
3.86256
3.86274
3.86233
3.86197
3.86146
3.86125
3.86073
3.85951
3.85761
3.85464
3.85196
3.8503
3.84785
3.92793
3.9334
3.93482
3.93327
3.9315
3.93004
3.92932
3.92922
3.92937
3.92971
3.93039
3.93193
3.93407
3.93784
3.94311
3.94921
3.95476
3.95756
3.95374
3.94186
4.0173
4.0218
4.02236
4.02036
4.01659
4.01207
4.00794
4.00467
4.00232
4.0008
4.0003
4.00069
4.00258
4.00575
4.00983
4.01437
4.01835
4.02039
4.01858
4.01201
4.1016
4.10937
4.11215
4.10888
4.10147
4.09224
4.08364
4.07663
4.07181
4.06864
4.06722
4.06723
4.06829
4.07012
4.07209
4.07325
4.07362
4.07293
4.07263
4.07306
4.1486
4.15542
4.15884
4.15797
4.1537
4.14777
4.14183
4.13677
4.1333
4.13138
4.13122
4.13226
4.13511
4.13869
4.14263
4.14629
4.14864
4.14921
4.14814
4.14572
4.16776
4.16641
4.16764
4.17291
4.17873
4.18348
4.1864
4.18767
4.18806
4.1887
4.19014
4.19312
4.19705
4.20215
4.20758
4.21201
4.21495
4.21578
4.21487
4.21143
4.21258
4.21163
4.21395
4.22181
4.23075
4.23856
4.24383
4.24687
4.24838
4.24959
4.25117
4.25326
4.25628
4.25943
4.26257
4.26524
4.26668
4.26675
4.26571
4.26198
4.29997
4.31141
4.31777
4.3208
4.32173
4.32037
4.31822
4.31608
4.31459
4.3137
4.31367
4.31443
4.31492
4.31474
4.31333
4.3101
4.30582
4.30164
4.29939
4.29604
4.38725
4.40426
4.41327
4.41368
4.40864
4.40036
4.39225
4.38579
4.38166
4.37903
4.37806
4.3776
4.37812
4.37748
4.37447
4.36796
4.35774
4.34701
4.34096
4.33681
4.44355
4.45463
4.46311
4.46675
4.46529
4.45993
4.4533
4.44728
4.44291
4.4404
4.43955
4.44027
4.44164
4.44356
4.44471
4.44328
4.4391
4.43262
4.42319
4.40887
4.47632
4.47972
4.48643
4.4962
4.50365
4.50691
4.50577
4.50262
4.49927
4.49713
4.49623
4.49617
4.49727
4.49868
4.50014
4.50087
4.49986
4.49626
4.48695
4.47105
4.50774
4.51348
4.52174
4.53377
4.54534
4.55286
4.55536
4.55449
4.55218
4.54976
4.54783
4.54664
4.5451
4.5429
4.53936
4.53395
4.52756
4.52081
4.51376
4.50495
4.53897
4.54466
4.55138
4.56446
4.57973
4.59239
4.60017
4.60355
4.60428
4.60347
4.60243
4.60039
4.59771
4.59213
4.58335
4.57128
4.55783
4.54697
4.54208
4.53981
4.59389
4.60122
4.60602
4.61659
4.6309
4.64401
4.6533
4.65847
4.66086
4.66152
4.66159
4.66122
4.66002
4.65725
4.65254
4.64506
4.63629
4.62885
4.62315
4.6149
4.67841
4.68978
4.69206
4.69466
4.70149
4.70989
4.71706
4.72196
4.7247
4.72584
4.72621
4.72601
4.7261
4.72591
4.72599
4.72605
4.72579
4.72513
4.71999
4.70548
4.77627
4.78406
4.78216
4.77976
4.78176
4.78628
4.79078
4.79371
4.79501
4.79507
4.79454
4.79384
4.79276
4.79158
4.79038
4.78939
4.78937
4.79097
4.79104
4.78317
4.88811
4.89601
4.8914
4.88217
4.87552
4.8725
4.87159
4.87122
4.87089
4.87024
4.86977
4.86905
4.86832
4.86667
4.86444
4.86235
4.86186
4.86514
4.87028
4.86913
4.99529
5.00032
4.99096
4.97564
4.96273
4.95505
4.95164
4.95051
4.95014
4.95017
4.95055
4.95177
4.95362
4.95653
4.96083
4.96697
4.9755
4.9862
4.99248
4.98573
5.1061
5.10615
5.09327
5.07589
5.06101
5.05114
5.04529
5.04214
5.04005
5.03923
5.03916
5.04077
5.044
5.05003
5.05963
5.07321
5.0903
5.10798
5.11554
5.10487
5.23179
5.24021
5.23115
5.20956
5.18631
5.16617
5.151
5.14083
5.13469
5.13182
5.1316
5.13446
5.1399
5.14844
5.15952
5.17308
5.18819
5.20345
5.21172
5.20726
5.32663
5.34291
5.34066
5.31978
5.29297
5.26705
5.24673
5.23291
5.2248
5.22145
5.22197
5.22683
5.23563
5.24909
5.26656
5.28687
5.30781
5.32606
5.33036
5.31866
5.36689
5.37942
5.38345
5.375
5.36035
5.34346
5.32831
5.31677
5.30942
5.30663
5.30777
5.3137
5.32408
5.33983
5.36006
5.38392
5.40732
5.42436
5.42158
5.40243
5.39927
5.42151
5.43864
5.44048
5.43399
5.42139
5.40741
5.39591
5.38864
5.3864
5.38862
5.39608
5.40742
5.42245
5.43874
5.45346
5.46345
5.46548
5.45274
5.43537
5.41919
5.45181
5.48198
5.4934
5.49465
5.48736
5.47651
5.46672
5.46059
5.45895
5.46152
5.46841
5.47896
5.4918
5.50419
5.51285
5.51371
5.5045
5.47687
5.44853
5.41936
5.45366
5.49554
5.52088
5.53674
5.54172
5.53881
5.53267
5.52732
5.52496
5.52552
5.52937
5.53446
5.53928
5.54172
5.53778
5.52497
5.50104
5.45733
5.42103
5.41039
5.44578
5.50003
5.53705
5.56496
5.58161
5.58762
5.58663
5.58375
5.58125
5.58032
5.57949
5.57788
5.57082
5.55549
5.52867
5.4901
5.44462
5.38958
5.36191
5.40541
5.42951
5.48769
5.53015
5.56836
5.59839
5.61755
5.62663
5.62986
5.62968
5.62768
5.62319
5.61424
5.59697
5.56957
5.53036
5.48467
5.43868
5.38112
5.35896
5.46615
5.46412
5.51238
5.54536
5.58379
5.62228
5.6522
5.67059
5.68007
5.68284
5.68109
5.67351
5.66032
5.63805
5.6081
5.57402
5.5426
5.51595
5.46661
5.46087
5.67489
5.64114
5.67188
5.66747
5.67425
5.69498
5.71845
5.73578
5.74601
5.75003
5.74968
5.7452
5.73557
5.7216
5.70583
5.69406
5.69379
5.69893
5.66336
5.69192
6.02302
5.94314
5.95924
5.90655
5.86002
5.83949
5.83713
5.83978
5.84214
5.84297
5.84309
5.84257
5.8428
5.84604
5.85734
5.886
5.93498
5.98489
5.96342
6.04092
6.40588
6.2574
6.28156
6.19881
6.10486
6.03904
6.00246
5.98277
5.97169
5.96648
5.96593
5.97204
5.98362
6.00694
6.04753
6.11484
6.20759
6.28945
6.26522
6.41346
6.66746
6.41619
6.48215
6.41384
6.31041
6.22622
6.17168
6.1394
6.12085
6.11205
6.1112
6.1194
6.13787
6.17165
6.22549
6.30756
6.40708
6.47374
6.40862
6.65968
6.69743
6.28022
6.41902
6.42032
6.36233
6.30392
6.2641
6.24019
6.22577
6.21925
6.21835
6.22553
6.23905
6.26355
6.30218
6.35594
6.40864
6.40273
6.26353
6.68363
6.62326
5.95009
6.17554
6.2655
6.26884
6.24838
6.23154
6.22228
6.21658
6.21441
6.21493
6.21827
6.22492
6.23541
6.25141
6.26812
6.26056
6.16792
5.94521
6.62577
6.88223
5.83708
6.12123
6.22794
6.22461
6.19751
6.17829
6.16803
6.16199
6.15947
6.16008
6.16418
6.17021
6.1832
6.19982
6.2269
6.22512
6.12246
5.84496
6.89744
8.01585
6.12422
6.31412
6.39667
6.36373
6.3175
6.29041
6.27611
6.26881
6.26438
6.26513
6.2673
6.27313
6.28879
6.31351
6.3626
6.39891
6.32125
6.1318
8.01183
10.0963
5.68526
5.76951
6.14767
6.2396
6.24103
6.23926
6.2389
6.23798
6.23722
6.23717
6.23811
6.23849
6.23931
6.24082
6.2397
6.14866
5.77125
5.68689
10.0962
-0.103709
-0.0783056
-0.0838636
-0.0500357
-0.0398449
-0.0425278
-0.0442902
-0.0421975
-0.0386386
-0.0365267
-0.0364872
-0.0394599
-0.0450051
-0.0515372
-0.0576557
-0.0648614
-0.0847308
-0.124822
-0.125261
-0.1491
-0.0809539
-0.0574795
-0.0532034
-0.00412442
0.0340211
0.0508068
0.0548282
0.0556348
0.0557983
0.0537468
0.0493135
0.0396379
0.027331
0.0108949
-0.0088488
-0.039015
-0.0870581
-0.141345
-0.159091
-0.201879
0.170557
0.131517
0.121134
0.133805
0.15009
0.162522
0.168475
0.169322
0.167325
0.162658
0.154563
0.141231
0.12119
0.0934587
0.0584122
0.0195507
-0.0131028
-0.0339986
-0.0463218
-0.0501987
0.271419
0.240045
0.223832
0.229861
0.246585
0.262699
0.273287
0.278199
0.278943
0.276104
0.269892
0.259245
0.243909
0.221581
0.189886
0.145778
0.0887623
0.0311699
0.00982555
0.0242751
0.287236
0.283491
0.280533
0.299162
0.333792
0.370106
0.395753
0.409316
0.414646
0.416137
0.414892
0.413217
0.411664
0.412985
0.417826
0.424113
0.426054
0.419514
0.39955
0.379312
0.40025
0.428403
0.446811
0.466767
0.489804
0.512313
0.530895
0.544702
0.55282
0.5588
0.562615
0.56866
0.578244
0.59679
0.627615
0.673316
0.72613
0.766872
0.76719
0.733504
0.622779
0.668971
0.684997
0.670784
0.658903
0.657055
0.665205
0.677876
0.689442
0.698852
0.707217
0.717797
0.730327
0.746362
0.765395
0.789482
0.815136
0.83495
0.853874
0.865055
0.774778
0.806006
0.823271
0.828418
0.826305
0.824401
0.825972
0.83026
0.835544
0.840908
0.846931
0.853913
0.862528
0.869743
0.872308
0.866631
0.855841
0.849566
0.867798
0.902863
0.945483
0.976577
1.00769
1.01844
1.01264
1.00162
0.992558
0.986746
0.98434
0.983765
0.984339
0.984855
0.984552
0.982784
0.977362
0.965534
0.952187
0.946064
0.955553
0.977963
1.05939
1.05331
1.06509
1.08164
1.0974
1.11102
1.12004
1.12564
1.12902
1.13122
1.13228
1.1316
1.12816
1.12015
1.10583
1.08673
1.0647
1.04686
1.04842
1.06379
1.25087
1.20899
1.20209
1.22634
1.25339
1.27304
1.28273
1.28749
1.28927
1.29046
1.29085
1.29091
1.28876
1.28571
1.28214
1.27921
1.27605
1.27196
1.26659
1.25575
1.57289
1.56094
1.54784
1.52728
1.50208
1.47859
1.4619
1.45258
1.44709
1.44537
1.44497
1.44673
1.44998
1.45659
1.46808
1.48711
1.51358
1.54181
1.54262
1.50802
1.68686
1.69704
1.67506
1.63941
1.60471
1.58129
1.56988
1.56647
1.56679
1.56996
1.575
1.58383
1.59651
1.61421
1.6343
1.65369
1.66922
1.68165
1.68824
1.67915
1.63246
1.60808
1.59202
1.61234
1.63403
1.64813
1.65578
1.66184
1.66746
1.67377
1.67952
1.68576
1.69309
1.70346
1.7188
1.74008
1.76408
1.78431
1.79499
1.79769
1.68988
1.67996
1.67499
1.6883
1.71116
1.73307
1.7507
1.76417
1.77427
1.78071
1.7839
1.78304
1.77607
1.76229
1.74332
1.72626
1.71849
1.72044
1.73733
1.76294
1.77579
1.77414
1.77473
1.79427
1.82776
1.86346
1.89106
1.9076
1.91699
1.9208
1.92099
1.91522
1.90368
1.88178
1.84785
1.80035
1.74412
1.69672
1.69275
1.72192
2.04098
2.06134
2.0756
2.082
2.08629
2.08886
2.0915
2.09318
2.09419
2.09318
2.09086
2.08522
2.07585
2.06239
2.04671
2.02636
2.00161
1.97636
1.94958
1.92338
2.41591
2.44959
2.45337
2.41615
2.37024
2.33022
2.30316
2.28721
2.2783
2.27246
2.26811
2.26469
2.26375
2.26619
2.2727
2.28408
2.29872
2.30929
2.28572
2.22983
2.68479
2.68169
2.66381
2.62471
2.5754
2.52976
2.49387
2.46733
2.44951
2.4374
2.42954
2.42553
2.42698
2.43648
2.45225
2.47165
2.48948
2.49654
2.48566
2.46073
2.80936
2.7869
2.76261
2.73399
2.69962
2.66535
2.63605
2.61243
2.59536
2.58355
2.57593
2.57084
2.56869
2.56974
2.57599
2.58845
2.60497
2.61551
2.61762
2.61716
2.76843
2.72672
2.70701
2.71809
2.73235
2.73732
2.73299
2.72473
2.7171
2.71127
2.7089
2.70882
2.71016
2.71007
2.70788
2.70099
2.69091
2.679
2.68231
2.70351
2.73993
2.72529
2.72507
2.74424
2.7728
2.79936
2.8169
2.82574
2.82934
2.8312
2.83314
2.83577
2.83968
2.84313
2.84668
2.84913
2.85149
2.85443
2.85509
2.85977
2.7276
2.7281
2.74239
2.78194
2.83122
2.87774
2.91413
2.93682
2.94883
2.95516
2.95915
2.96209
2.96392
2.96568
2.96789
2.96952
2.96985
2.97011
2.97415
2.98563
2.87214
2.90739
2.93786
2.96884
2.99988
3.02769
3.05157
3.07002
3.082
3.08913
3.09344
3.09675
3.10014
3.10222
3.10236
3.1001
3.09582
3.09203
3.09592
3.10827
3.14483
3.20684
3.2312
3.219
3.20505
3.19934
3.20175
3.20888
3.21671
3.22247
3.22663
3.23016
3.23401
3.23807
3.24146
3.2433
3.24317
3.24201
3.24409
3.24868
3.35731
3.38771
3.39673
3.38474
3.36562
3.35234
3.34666
3.34685
3.34983
3.35327
3.35583
3.35725
3.3589
3.36138
3.367
3.37837
3.39543
3.41214
3.41749
3.40869
3.49658
3.50312
3.5067
3.50335
3.49278
3.48382
3.47976
3.47999
3.48244
3.48494
3.48578
3.48487
3.48078
3.47481
3.468
3.4656
3.47404
3.49267
3.5046
3.49547
3.55821
3.53275
3.53141
3.55751
3.58244
3.60287
3.61771
3.62731
3.63297
3.63614
3.6375
3.63633
3.63279
3.62385
3.60539
3.57262
3.5262
3.48368
3.48232
3.50956
3.75739
3.74691
3.7567
3.77845
3.79256
3.79947
3.80197
3.80356
3.80472
3.80607
3.80747
3.80913
3.81015
3.81076
3.81122
3.80926
3.80181
3.78906
3.77155
3.7619
4.07845
4.09342
4.09672
4.07391
4.0451
4.0167
3.9946
3.98179
3.97552
3.97362
3.97324
3.97491
3.9785
3.98651
4.00186
4.02763
4.06053
4.08853
4.08313
4.05126
4.3007
4.28909
4.26812
4.24032
4.21087
4.18256
4.15908
4.14242
4.13233
4.12706
4.12478
4.12551
4.12868
4.1368
4.15003
4.16798
4.188
4.20462
4.21112
4.20269
4.43358
4.4129
4.38736
4.36205
4.33692
4.31484
4.29705
4.28275
4.27219
4.26582
4.26216
4.25983
4.25732
4.25225
4.24369
4.23482
4.23043
4.2324
4.24242
4.25601
4.43413
4.40017
4.37784
4.37765
4.3872
4.39663
4.40094
4.40023
4.39771
4.39488
4.39334
4.39154
4.38923
4.38259
4.36718
4.338
4.29724
4.26117
4.26059
4.29027
4.43788
4.40735
4.40952
4.44838
4.48861
4.51462
4.5263
4.52947
4.52931
4.5285
4.52826
4.52827
4.52952
4.53206
4.53821
4.54498
4.54697
4.54263
4.5296
4.51856
4.6206
4.64167
4.6573
4.65553
4.65559
4.65737
4.66022
4.66118
4.66077
4.65944
4.65812
4.65711
4.6558
4.65736
4.66601
4.68842
4.72425
4.75616
4.75417
4.72534
4.7676
4.786
4.77705
4.75601
4.75212
4.76091
4.77382
4.78427
4.79086
4.79329
4.7932
4.79114
4.78773
4.78065
4.76744
4.74986
4.73602
4.73142
4.73932
4.74911
4.88632
4.88805
4.88083
4.88467
4.89584
4.90924
4.92183
4.93171
4.93904
4.94259
4.94449
4.94378
4.94156
4.93459
4.91885
4.88708
4.84287
4.80598
4.80307
4.82875
5.0801
5.09953
5.10994
5.11396
5.10957
5.10312
5.09986
5.0993
5.10061
5.10264
5.10541
5.10813
5.11248
5.11927
5.13149
5.14668
5.156
5.15646
5.14406
5.12947
5.28183
5.30464
5.31902
5.31845
5.30522
5.28625
5.26991
5.25977
5.2549
5.25387
5.25542
5.26062
5.26909
5.28559
5.31404
5.35995
5.4155
5.45888
5.45912
5.42186
5.42784
5.44395
5.45092
5.44224
5.42865
5.41506
5.40235
5.39302
5.38717
5.38516
5.38562
5.38903
5.39468
5.40236
5.41196
5.4267
5.44598
5.464
5.47939
5.48524
5.47388
5.47207
5.47244
5.47533
5.48198
5.49195
5.4993
5.50305
5.50396
5.50384
5.50374
5.50368
5.50287
5.49797
5.48514
5.46229
5.43666
5.42221
5.43482
5.46915
5.53146
5.51584
5.52241
5.55407
5.58887
5.61579
5.63072
5.63778
5.63938
5.63835
5.63472
5.6286
5.61922
5.60507
5.58435
5.55513
5.52427
5.50529
5.50559
5.52329
5.75332
5.77136
5.78756
5.79177
5.79156
5.791
5.79242
5.79422
5.79491
5.79401
5.79209
5.78785
5.7792
5.76467
5.74431
5.71836
5.68878
5.66408
5.65457
5.65682
5.94342
5.96372
5.96836
5.95513
5.94308
5.93972
5.944
5.94987
5.95456
5.95776
5.96045
5.96328
5.96689
5.97181
5.97964
5.99043
5.99837
5.99807
5.98194
5.95594
6.07621
6.0637
6.06769
6.09244
6.11245
6.12155
6.12236
6.12064
6.1195
6.12025
6.12207
6.12763
6.13792
6.15872
6.19185
6.23904
6.29159
6.33013
6.3231
6.27767
6.35973
6.3764
6.38492
6.36781
6.33767
6.30735
6.28456
6.271
6.26431
6.2634
6.266
6.27277
6.28279
6.29758
6.31691
6.33979
6.36217
6.37768
6.38634
6.38325
6.48705
6.49244
6.4766
6.43795
6.40079
6.37833
6.3687
6.36726
6.37006
6.37557
6.38329
6.39293
6.40323
6.41143
6.4139
6.40919
6.40186
6.39641
6.40401
6.42505
6.41148
6.36062
6.33684
6.35844
6.39442
6.42888
6.45179
6.46577
6.47448
6.48173
6.48708
6.4916
6.49461
6.49556
6.49271
6.48694
6.48279
6.483
6.48484
6.49016
6.51735
6.48726
6.49152
6.52716
6.56416
6.58858
6.59996
6.60321
6.60252
6.60044
6.59651
6.58966
6.5782
6.56231
6.54195
6.51885
6.4966
6.48207
6.48101
6.48678
6.82055
6.84867
6.86501
6.84949
6.82208
6.79376
6.77268
6.75676
6.74332
6.731
6.71804
6.70227
6.68151
6.65345
6.61722
6.57441
6.5312
6.4989
6.48791
6.49106
7.00897
7.03891
7.03472
7.0011
6.96534
6.93474
6.91135
6.8934
6.87911
6.86618
6.85376
6.83895
6.81988
6.79399
6.76114
6.72144
6.67761
6.63947
6.61707
6.60668
6.98196
6.9704
6.9603
6.97045
6.98825
7.00348
7.01106
7.01338
7.01233
7.00919
7.005
6.99993
6.99441
6.98947
6.98755
6.98909
6.98756
6.97775
6.95182
6.91599
6.98747
6.96524
6.96974
7.01412
7.07008
7.11864
7.14936
7.16557
7.1717
7.17382
7.17376
7.17581
7.18182
7.1977
7.22564
7.26845
7.31708
7.35221
7.34004
7.28718
7.23435
7.2583
7.28095
7.2996
7.31608
7.32992
7.34017
7.34744
7.35082
7.35311
7.35552
7.36179
7.37277
7.38999
7.41121
7.43655
7.46254
7.48152
7.49134
7.4883
7.56891
7.61825
7.62723
7.59807
7.56375
7.53892
7.5266
7.52311
7.52319
7.52528
7.53031
7.54033
7.55535
7.57376
7.59137
7.60411
7.61283
7.61843
7.63308
7.66091
7.80267
7.82062
7.81045
7.78076
7.74443
7.71382
7.69292
7.68186
7.6776
7.67921
7.68474
7.69535
7.71034
7.73086
7.7553
7.78063
7.80521
7.82715
7.84417
7.86039
7.91416
7.90439
7.88581
7.86706
7.84631
7.8283
7.81555
7.809
7.80749
7.81117
7.81801
7.82869
7.84109
7.85544
7.86946
7.88376
7.89828
7.91449
7.93699
7.95579
7.89341
7.85116
7.8319
7.85361
7.88246
7.90661
7.92099
7.92785
7.9306
7.93413
7.93801
7.94355
7.94881
7.95289
7.95215
7.94671
7.93931
7.93859
7.95628
7.97435
7.99807
7.98478
7.98836
8.0165
8.04326
8.05976
8.06558
8.06526
8.06214
8.05933
8.05706
8.05516
8.05056
8.04166
8.0264
8.00498
7.97974
7.96173
7.96564
7.97143
8.24474
8.28694
8.29679
8.27214
8.24448
8.2231
8.20942
8.20024
8.19279
8.18597
8.17908
8.17029
8.15785
8.14121
8.12244
8.10507
8.0886
8.0761
8.0681
8.04767
8.3639
8.38989
8.37873
8.35004
8.33241
8.32737
8.32741
8.32759
8.32543
8.32118
8.31447
8.30485
8.2904
8.27277
8.25494
8.24322
8.24283
8.25286
8.2457
8.19973
8.41818
8.40644
8.40508
8.43277
8.46031
8.47606
8.4802
8.47988
8.47805
8.47605
8.47436
8.47255
8.47069
8.46576
8.45378
8.43502
8.41375
8.3986
8.38633
8.35338
8.64848
8.67399
8.68593
8.68098
8.66912
8.65619
8.64673
8.64148
8.63855
8.63745
8.63872
8.64364
8.65311
8.66815
8.68501
8.69722
8.69995
8.69042
8.66367
8.61506
8.82442
8.85497
8.85578
8.83362
8.81309
8.80239
8.79901
8.7983
8.7983
8.79865
8.80045
8.80476
8.81395
8.82974
8.85269
8.88125
8.9075
8.91643
8.89914
8.85874
8.93143
8.92901
8.93432
8.96084
8.98141
8.98841
8.98488
8.97709
8.97041
8.96635
8.96558
8.96795
8.97247
8.97998
8.99072
9.00284
9.01511
9.02215
9.02152
9.00789
9.20955
9.24353
9.26013
9.25131
9.22799
9.19942
9.17372
9.15292
9.13852
9.12999
9.12817
9.13083
9.13766
9.14373
9.14648
9.14206
9.12966
9.11211
9.10862
9.11221
9.3811
9.41673
9.41789
9.38914
9.35542
9.32704
9.30577
9.29046
9.27997
9.27476
9.27469
9.28012
9.28912
9.30018
9.31087
9.31732
9.31992
9.31778
9.31087
9.29322
9.38092
9.37408
9.37318
9.39841
9.41984
9.42721
9.42345
9.41705
9.4116
9.40963
9.41098
9.41569
9.42355
9.43387
9.44525
9.45486
9.45958
9.45895
9.4561
9.43678
9.47793
9.48942
9.50163
9.52183
9.53972
9.54875
9.54899
9.54493
9.54021
9.53803
9.53886
9.54361
9.54979
9.55689
9.56278
9.56502
9.56415
9.5613
9.56012
9.54292
9.57779
9.59593
9.61038
9.63446
9.65631
9.67119
9.67547
9.67116
9.66424
9.65902
9.65699
9.65703
9.65807
9.65547
9.64799
9.63547
9.62029
9.60817
9.60681
9.59575
9.70446
9.74126
9.75762
9.77111
9.78015
9.78362
9.78284
9.77839
9.77289
9.76768
9.76435
9.76196
9.75775
9.74777
9.7288
9.69954
9.6661
9.63907
9.63257
9.6212
9.75777
9.79946
9.80698
9.81248
9.8258
9.84261
9.85754
9.86717
9.87224
9.87353
9.87381
9.87123
9.86646
9.85554
9.83596
9.80615
9.76854
9.73349
9.71646
9.69286
9.74685
9.75678
9.76707
9.82392
9.88615
9.93502
9.96439
9.97918
9.98512
9.98694
9.98702
9.98572
9.98181
9.97586
9.96904
9.96116
9.95192
9.93749
9.91641
9.86888
9.9833
10.0378
10.0636
10.0843
10.0986
10.1076
10.1121
10.1128
10.1099
10.1051
10.0989
10.0906
10.0812
10.0705
10.0632
10.067
10.0853
10.1056
10.0977
10.0309
10.1977
10.2662
10.2761
10.2589
10.2421
10.2335
10.2312
10.229
10.2255
10.2192
10.2111
10.1996
10.1836
10.1604
10.1293
10.0933
10.0629
10.0473
10.0517
10.0274
10.2429
10.2641
10.2503
10.256
10.2779
10.3061
10.3299
10.3444
10.3522
10.3531
10.3508
10.3428
10.3315
10.3118
10.2817
10.2371
10.1827
10.1401
10.1344
10.1262
10.3777
10.3793
10.3661
10.3872
10.4235
10.4616
10.4903
10.5083
10.5177
10.5219
10.5235
10.5241
10.5243
10.5254
10.5307
10.5399
10.5479
10.5512
10.5401
10.489
10.7443
10.7881
10.7809
10.7592
10.7372
10.7225
10.7159
10.7141
10.7132
10.7131
10.7139
10.7173
10.7254
10.7426
10.7749
10.8266
10.8911
10.9481
10.9585
10.8871
11.0759
11.14
11.1155
11.0494
10.9849
10.9393
10.9152
10.9045
10.9009
10.901
10.9044
10.912
10.9236
10.9431
10.9724
11.0113
11.0564
11.1009
11.1337
11.1099
11.1949
11.2132
11.1698
11.1288
11.1023
11.0889
11.0844
11.0839
11.0869
11.0922
11.1014
11.115
11.1347
11.1586
11.1842
11.2098
11.2369
11.2666
11.2995
11.3033
11.3413
11.3455
11.3153
11.3009
11.2964
11.2946
11.2927
11.2916
11.2924
11.2969
11.3057
11.3213
11.3435
11.3731
11.4075
11.4452
11.4856
11.5272
11.5545
11.5392
11.6795
11.7289
11.7175
11.6738
11.6238
11.5779
11.545
11.5256
11.5161
11.5151