/*--------------------------------*- C++ -*----------------------------------*\
  =========                 |
  \\      /  F ield         | OpenFOAM: The Open Source CFD Toolbox
   \\    /   O peration     | Website:  https://openfoam.org
    \\  /    A nd           | Version:  6
     \\/     M anipulation  |
\*---------------------------------------------------------------------------*/
FoamFile
{
    version     2.0;
    format      ascii;
    class       surfaceScalarField;
    location    "15";
    object      phi;
}
// * * * * * * * * * * * * * * * * * * * * * * * * * * * * * * * * * * * * * //

dimensions      [0 3 -1 0 0 0 0];

internalField   nonuniform List<scalar> 
19400
(
-2.04689e-09
-8.13684e-07
-4.32476e-09
-1.08502e-06
-5.61885e-09
-1.2105e-06
-5.9362e-09
-1.28568e-06
-5.56113e-09
-1.32819e-06
-4.89745e-09
-1.35098e-06
-4.17522e-09
-1.36275e-06
-3.48976e-09
-1.36853e-06
-2.83906e-09
-1.37097e-06
-2.22357e-09
-1.37141e-06
-1.62372e-09
-1.37039e-06
-1.00367e-09
-1.36788e-06
-3.4898e-10
-1.3633e-06
4.28249e-10
-1.35534e-06
1.28402e-09
-1.34146e-06
2.12822e-09
-1.31697e-06
2.58026e-09
-1.27373e-06
2.27184e-09
-1.19963e-06
9.84088e-10
-1.07695e-06
-8.09458e-07
5.37332e-11
-8.1379e-07
-1.43265e-09
-1.0836e-06
-2.41753e-09
-1.20957e-06
-2.97616e-09
-1.28518e-06
-3.14799e-09
-1.32807e-06
-3.06301e-09
-1.35112e-06
-2.80636e-09
-1.36305e-06
-2.47773e-09
-1.36892e-06
-2.09284e-09
-1.37139e-06
-1.72786e-09
-1.37184e-06
-1.33172e-09
-1.37082e-06
-9.79371e-10
-1.36831e-06
-6.15767e-10
-1.36371e-06
-3.03246e-10
-1.35572e-06
-4.35035e-11
-1.34179e-06
1.67061e-10
-1.31722e-06
2.64008e-10
-1.27393e-06
1.4424e-10
-1.19963e-06
-4.20706e-10
-1.07651e-06
-8.09897e-07
-4.19086e-10
-8.1339e-07
-1.03586e-09
-1.08303e-06
-1.56491e-09
-1.20906e-06
-1.82767e-09
-1.28496e-06
-1.93037e-09
-1.328e-06
-1.94707e-09
-1.35113e-06
-1.88307e-09
-1.36315e-06
-1.74969e-09
-1.36908e-06
-1.56127e-09
-1.3716e-06
-1.35077e-09
-1.37208e-06
-1.12605e-09
-1.37108e-06
-9.01332e-10
-1.36856e-06
-6.85783e-10
-1.36396e-06
-4.88012e-10
-1.35594e-06
-3.25992e-10
-1.34197e-06
-1.4396e-10
-1.31742e-06
8.38862e-11
-1.27418e-06
2.41058e-10
-1.19985e-06
4.07142e-10
-1.07675e-06
-8.09494e-07
-2.88755e-10
-8.13125e-07
-4.88473e-10
-1.08285e-06
-7.90135e-10
-1.20877e-06
-9.02436e-10
-1.28485e-06
-9.96334e-10
-1.32791e-06
-1.0833e-09
-1.35105e-06
-1.12233e-09
-1.36311e-06
-1.10891e-09
-1.3691e-06
-1.05043e-09
-1.37166e-06
-9.66592e-10
-1.37217e-06
-8.62276e-10
-1.37118e-06
-7.48015e-10
-1.36868e-06
-6.33028e-10
-1.36409e-06
-5.23728e-10
-1.35605e-06
-4.72772e-10
-1.34203e-06
-3.79947e-10
-1.31751e-06
-1.97736e-10
-1.27437e-06
-4.56611e-11
-1.20001e-06
1.12808e-10
-1.07692e-06
-8.0938e-07
-5.54117e-10
-8.12583e-07
-4.52279e-10
-1.08295e-06
-5.59884e-10
-1.20865e-06
-6.74181e-10
-1.28472e-06
-7.66553e-10
-1.3278e-06
-8.29416e-10
-1.35097e-06
-8.43147e-10
-1.36308e-06
-8.22459e-10
-1.36911e-06
-7.66442e-10
-1.37171e-06
-6.87903e-10
-1.37224e-06
-5.97186e-10
-1.37127e-06
-4.82959e-10
-1.36879e-06
-3.83913e-10
-1.36419e-06
-2.88952e-10
-1.35613e-06
-2.39232e-10
-1.34208e-06
-1.67396e-10
-1.31758e-06
-5.51162e-11
-1.27448e-06
1.79143e-11
-1.20008e-06
1.45451e-10
-1.07704e-06
-8.09232e-07
-3.79689e-10
-8.12238e-07
-3.4798e-10
-1.08301e-06
-4.61114e-10
-1.20855e-06
-6.91242e-10
-1.2845e-06
-8.46473e-10
-1.32764e-06
-8.89005e-10
-1.35093e-06
-8.49738e-10
-1.36312e-06
-7.69862e-10
-1.36919e-06
-6.64286e-10
-1.37182e-06
-5.37739e-10
-1.37237e-06
-4.03237e-10
-1.37141e-06
-2.47195e-10
-1.36894e-06
-9.98423e-11
-1.36435e-06
4.11949e-11
-1.35627e-06
1.3228e-10
-1.34218e-06
1.63241e-10
-1.31761e-06
1.23457e-10
-1.27444e-06
4.76197e-11
-1.19999e-06
-9.8374e-12
-1.07698e-06
-8.09243e-07
-1.13484e-10
-8.12195e-07
-2.82624e-10
-1.08291e-06
-4.31613e-10
-1.20846e-06
-6.63312e-10
-1.28431e-06
-8.08758e-10
-1.32753e-06
-8.28789e-10
-1.35094e-06
-7.78021e-10
-1.3632e-06
-6.80807e-10
-1.36931e-06
-5.63061e-10
-1.37196e-06
-4.19531e-10
-1.37252e-06
-2.74191e-10
-1.37158e-06
-1.02735e-10
-1.36911e-06
5.32397e-11
-1.36452e-06
2.12486e-10
-1.35642e-06
3.16951e-10
-1.34229e-06
2.90213e-10
-1.31759e-06
1.62218e-10
-1.27432e-06
6.04142e-11
-1.19989e-06
-2.00085e-10
-1.07672e-06
-8.09449e-07
-5.76787e-11
-8.12178e-07
-1.95815e-10
-1.08282e-06
-3.41313e-10
-1.20835e-06
-5.06005e-10
-1.28417e-06
-6.0407e-10
-1.32747e-06
-6.09035e-10
-1.35095e-06
-5.80324e-10
-1.36325e-06
-5.12565e-10
-1.36939e-06
-4.31847e-10
-1.37206e-06
-3.17867e-10
-1.37265e-06
-1.99114e-10
-1.37172e-06
-5.9551e-11
-1.36926e-06
8.36804e-11
-1.36467e-06
2.3812e-10
-1.35659e-06
3.55732e-10
-1.34242e-06
3.36306e-10
-1.31758e-06
1.93103e-10
-1.27419e-06
5.41267e-11
-1.19978e-06
-2.23195e-10
-1.07648e-06
-8.09681e-07
-1.60636e-10
-8.1201e-07
-1.53755e-10
-1.08284e-06
-2.84407e-10
-1.20821e-06
-4.15834e-10
-1.28405e-06
-4.75439e-10
-1.32741e-06
-5.00155e-10
-1.35094e-06
-4.90587e-10
-1.36327e-06
-4.5848e-10
-1.36943e-06
-4.03299e-10
-1.37213e-06
-3.33597e-10
-1.37273e-06
-2.52711e-10
-1.37181e-06
-1.64208e-10
-1.36936e-06
-6.66821e-11
-1.36478e-06
3.9052e-11
-1.35671e-06
1.46278e-10
-1.34254e-06
1.79234e-10
-1.31763e-06
1.12169e-10
-1.27415e-06
4.52391e-12
-1.19972e-06
-2.21365e-10
-1.07629e-06
-8.09907e-07
-2.5249e-10
-8.11734e-07
-2.4454e-10
-1.08285e-06
-3.69524e-10
-1.20806e-06
-5.16525e-10
-1.28391e-06
-5.68318e-10
-1.32734e-06
-5.95688e-10
-1.35091e-06
-5.6365e-10
-1.36329e-06
-5.2049e-10
-1.36947e-06
-4.56536e-10
-1.37218e-06
-4.04453e-10
-1.37279e-06
-3.40624e-10
-1.37187e-06
-2.94933e-10
-1.36942e-06
-2.35619e-10
-1.36485e-06
-1.65371e-10
-1.35679e-06
-8.28182e-11
-1.34265e-06
1.73311e-11
-1.31774e-06
1.03412e-10
-1.27426e-06
1.34757e-10
-1.19976e-06
9.26386e-11
-1.07627e-06
-8.09812e-07
-7.41921e-11
-8.11644e-07
-2.2888e-10
-1.08271e-06
-3.38357e-10
-1.20794e-06
-4.95618e-10
-1.28376e-06
-5.89707e-10
-1.32724e-06
-6.20288e-10
-1.35088e-06
-5.85355e-10
-1.36332e-06
-5.21008e-10
-1.36953e-06
-4.44535e-10
-1.37225e-06
-3.65698e-10
-1.37286e-06
-2.93053e-10
-1.37194e-06
-2.16585e-10
-1.36949e-06
-1.34399e-10
-1.36493e-06
-3.06988e-11
-1.3569e-06
8.55286e-11
-1.34276e-06
2.23883e-10
-1.31788e-06
3.53874e-10
-1.27438e-06
4.13431e-10
-1.19981e-06
5.58718e-10
-1.0764e-06
-8.09251e-07
-2.2005e-11
-8.11618e-07
-1.805e-10
-1.08256e-06
-2.8753e-10
-1.20783e-06
-4.45453e-10
-1.28361e-06
-5.37062e-10
-1.32715e-06
-5.5004e-10
-1.35087e-06
-5.14281e-10
-1.36336e-06
-4.42186e-10
-1.3696e-06
-3.55608e-10
-1.37234e-06
-2.53236e-10
-1.37296e-06
-1.51936e-10
-1.37204e-06
-4.18974e-11
-1.3696e-06
7.75674e-11
-1.36505e-06
2.14055e-10
-1.35704e-06
3.53564e-10
-1.34291e-06
4.85201e-10
-1.31802e-06
5.70108e-10
-1.27446e-06
5.9333e-10
-1.19982e-06
6.14463e-10
-1.07641e-06
-8.08637e-07
8.144e-11
-8.11714e-07
-1.18709e-10
-1.08237e-06
-1.83124e-10
-1.20778e-06
-2.71564e-10
-1.28354e-06
-3.40002e-10
-1.3271e-06
-3.57443e-10
-1.35088e-06
-3.41279e-10
-1.36339e-06
-3.00894e-10
-1.36966e-06
-2.38429e-10
-1.37242e-06
-1.55682e-10
-1.37305e-06
-6.18745e-11
-1.37215e-06
4.83766e-11
-1.36972e-06
1.65049e-10
-1.36518e-06
2.90283e-10
-1.35717e-06
4.24848e-10
-1.34305e-06
5.56304e-10
-1.31816e-06
6.54642e-10
-1.27457e-06
6.70381e-10
-1.19984e-06
5.04864e-10
-1.07625e-06
-8.08134e-07
6.68702e-11
-8.1181e-07
-4.17668e-13
-1.08231e-06
-1.04035e-12
-1.20781e-06
-3.45642e-11
-1.28352e-06
-1.14814e-10
-1.32703e-06
-1.68976e-10
-1.35084e-06
-1.96666e-10
-1.36337e-06
-1.97311e-10
-1.36967e-06
-1.70326e-10
-1.37246e-06
-1.13858e-10
-1.37312e-06
-3.58562e-11
-1.37223e-06
5.47392e-11
-1.36982e-06
1.63229e-10
-1.36529e-06
2.68529e-10
-1.35728e-06
3.97837e-10
-1.34318e-06
5.38602e-10
-1.31831e-06
6.34336e-10
-1.27467e-06
5.9637e-10
-1.19981e-06
3.86016e-10
-1.07605e-06
-8.0775e-07
3.45525e-12
-8.11845e-07
1.09583e-10
-1.08244e-06
4.60746e-11
-1.20777e-06
-1.85346e-11
-1.28347e-06
-8.42158e-11
-1.32698e-06
-1.38835e-10
-1.3508e-06
-1.68145e-10
-1.36336e-06
-1.80023e-10
-1.36967e-06
-1.64087e-10
-1.37248e-06
-1.24871e-10
-1.37317e-06
-6.18664e-11
-1.37231e-06
9.3027e-12
-1.3699e-06
8.85039e-11
-1.36537e-06
1.61995e-10
-1.35737e-06
2.6214e-10
-1.34328e-06
3.64072e-10
-1.31842e-06
4.18002e-10
-1.27473e-06
3.35804e-10
-1.19973e-06
1.5638e-10
-1.07588e-06
-8.07598e-07
1.44867e-10
-8.12031e-07
1.8918e-10
-1.08249e-06
1.84502e-10
-1.20779e-06
1.67897e-10
-1.28347e-06
8.54841e-11
-1.32692e-06
-4.21099e-12
-1.35072e-06
-7.75919e-11
-1.3633e-06
-1.23108e-10
-1.36964e-06
-1.36148e-10
-1.37248e-06
-1.24057e-10
-1.37319e-06
-7.85097e-11
-1.37235e-06
-3.3538e-11
-1.36996e-06
2.35637e-11
-1.36543e-06
7.35236e-11
-1.35743e-06
1.46414e-10
-1.34336e-06
2.14397e-10
-1.31849e-06
1.97103e-10
-1.27471e-06
9.21779e-11
-1.19964e-06
6.31868e-11
-1.07587e-06
-8.07542e-07
-5.95494e-11
-8.12003e-07
1.27836e-10
-1.08269e-06
1.90561e-10
-1.20788e-06
1.86132e-10
-1.28347e-06
1.20011e-10
-1.32687e-06
3.70232e-11
-1.35065e-06
-4.10073e-11
-1.36323e-06
-1.06895e-10
-1.36958e-06
-1.47821e-10
-1.37244e-06
-1.63793e-10
-1.37319e-06
-1.49956e-10
-1.37238e-06
-1.13236e-10
-1.37001e-06
-5.39225e-11
-1.3655e-06
2.28214e-11
-1.35752e-06
1.1473e-10
-1.34346e-06
1.63907e-10
-1.31856e-06
7.04865e-11
-1.27464e-06
-1.57782e-10
-1.19945e-06
-1.55481e-10
-1.07591e-06
-8.07704e-07
6.57248e-11
-8.12096e-07
2.24055e-10
-1.08287e-06
2.4777e-10
-1.20792e-06
1.78085e-10
-1.28341e-06
9.20273e-11
-1.32679e-06
2.5269e-12
-1.35057e-06
-7.92031e-11
-1.36315e-06
-1.64019e-10
-1.36951e-06
-2.23102e-10
-1.37238e-06
-2.82276e-10
-1.37314e-06
-3.07132e-10
-1.37235e-06
-3.26084e-10
-1.37e-06
-3.08512e-10
-1.36552e-06
-2.72858e-10
-1.35757e-06
-2.39801e-10
-1.34351e-06
-2.17118e-10
-1.31858e-06
-2.93027e-10
-1.27458e-06
-4.67758e-10
-1.1993e-06
-5.34255e-10
-1.07587e-06
-8.08239e-07
1.86589e-10
-8.12299e-07
3.01167e-10
-1.083e-06
2.59596e-10
-1.20789e-06
1.5847e-10
-1.28331e-06
5.65122e-11
-1.32669e-06
-4.99504e-11
-1.35046e-06
-1.49653e-10
-1.36304e-06
-2.32696e-10
-1.36943e-06
-2.92737e-10
-1.37231e-06
-3.59446e-10
-1.37308e-06
-4.0883e-10
-1.37229e-06
-4.60805e-10
-1.36995e-06
-4.90171e-10
-1.36548e-06
-5.10079e-10
-1.35754e-06
-5.11169e-10
-1.3435e-06
-4.96291e-10
-1.31859e-06
-5.13429e-10
-1.27456e-06
-4.89451e-10
-1.19932e-06
-2.64027e-10
-1.0761e-06
-8.08501e-07
1.5734e-10
-8.12449e-07
2.602e-10
-1.08311e-06
1.70019e-10
-1.20779e-06
4.90708e-11
-1.28319e-06
-5.7351e-11
-1.32658e-06
-1.63541e-10
-1.35034e-06
-2.54083e-10
-1.36294e-06
-3.09873e-10
-1.36936e-06
-3.4469e-10
-1.37227e-06
-3.64918e-10
-1.37305e-06
-3.75559e-10
-1.37227e-06
-3.77408e-10
-1.36994e-06
-3.69346e-10
-1.36549e-06
-3.54662e-10
-1.35755e-06
-3.51871e-10
-1.3435e-06
-3.71568e-10
-1.31857e-06
-4.21088e-10
-1.2745e-06
-3.81685e-10
-1.19935e-06
-3.7397e-11
-1.07643e-06
-8.08537e-07
2.13966e-10
-8.12624e-07
1.5194e-10
-1.08305e-06
4.61336e-11
-1.20765e-06
-1.27493e-10
-1.28302e-06
-2.51333e-10
-1.32644e-06
-3.46827e-10
-1.35024e-06
-3.95294e-10
-1.36288e-06
-4.14367e-10
-1.36934e-06
-4.06468e-10
-1.37228e-06
-3.73924e-10
-1.37307e-06
-3.37192e-10
-1.37231e-06
-2.71702e-10
-1.37e-06
-2.11786e-10
-1.36556e-06
-1.45031e-10
-1.35761e-06
-1.15393e-10
-1.34354e-06
-1.34074e-10
-1.31856e-06
-2.23315e-10
-1.27442e-06
-2.83882e-10
-1.19929e-06
-2.17704e-10
-1.07649e-06
-8.08752e-07
3.72074e-10
-8.12952e-07
1.39203e-10
-1.08282e-06
-9.83027e-12
-1.20747e-06
-2.00347e-10
-1.28283e-06
-3.15991e-10
-1.3263e-06
-4.04408e-10
-1.35016e-06
-4.38247e-10
-1.36284e-06
-4.47319e-10
-1.36933e-06
-4.23792e-10
-1.3723e-06
-3.82755e-10
-1.37311e-06
-3.31397e-10
-1.37237e-06
-2.72314e-10
-1.37005e-06
-2.246e-10
-1.3656e-06
-1.89821e-10
-1.35764e-06
-1.76171e-10
-1.34355e-06
-1.82919e-10
-1.31855e-06
-2.29005e-10
-1.27438e-06
-2.68645e-10
-1.19924e-06
-4.68635e-10
-1.07627e-06
-8.09215e-07
3.87872e-10
-8.13309e-07
2.42048e-10
-1.08267e-06
9.61592e-11
-1.20731e-06
-6.38266e-11
-1.28268e-06
-1.58166e-10
-1.3262e-06
-2.59793e-10
-1.35007e-06
-3.25341e-10
-1.36277e-06
-3.56786e-10
-1.3693e-06
-3.56757e-10
-1.3723e-06
-3.29889e-10
-1.37314e-06
-2.97292e-10
-1.3724e-06
-2.54925e-10
-1.37009e-06
-2.34852e-10
-1.36562e-06
-2.38445e-10
-1.35763e-06
-2.49848e-10
-1.34352e-06
-2.76594e-10
-1.31851e-06
-2.62214e-10
-1.27437e-06
-2.40927e-10
-1.19923e-06
-4.0291e-10
-1.07609e-06
-8.09614e-07
2.58578e-10
-8.13556e-07
2.76558e-10
-1.08269e-06
1.52675e-10
-1.20717e-06
6.95642e-11
-1.28261e-06
2.50338e-11
-1.32615e-06
-6.34098e-11
-1.34998e-06
-1.41937e-10
-1.36269e-06
-1.96401e-10
-1.36924e-06
-2.33319e-10
-1.37226e-06
-2.43881e-10
-1.37312e-06
-2.5026e-10
-1.37239e-06
-2.42878e-10
-1.37009e-06
-2.3567e-10
-1.36562e-06
-2.33538e-10
-1.35763e-06
-2.32822e-10
-1.34352e-06
-2.53484e-10
-1.31848e-06
-2.34167e-10
-1.27437e-06
-2.29726e-10
-1.19922e-06
-2.7844e-10
-1.07602e-06
-8.09894e-07
2.13049e-10
-8.13785e-07
2.71422e-10
-1.08275e-06
2.33861e-10
-1.20714e-06
2.4184e-10
-1.28262e-06
2.22051e-10
-1.32613e-06
1.39571e-10
-1.34991e-06
4.61153e-11
-1.3626e-06
-4.66972e-11
-1.36916e-06
-1.21416e-10
-1.37219e-06
-1.90815e-10
-1.37306e-06
-2.45696e-10
-1.37234e-06
-2.97702e-10
-1.37004e-06
-3.39119e-10
-1.36558e-06
-3.75573e-10
-1.3576e-06
-4.00757e-10
-1.34349e-06
-4.01936e-10
-1.31849e-06
-3.54031e-10
-1.27442e-06
-3.13215e-10
-1.19928e-06
-3.20764e-10
-1.07603e-06
-8.1022e-07
8.54848e-11
-8.13895e-07
2.98787e-10
-1.08296e-06
3.0974e-10
-1.20716e-06
3.17897e-10
-1.28263e-06
2.90142e-10
-1.32611e-06
2.13095e-10
-1.34984e-06
1.11355e-10
-1.3625e-06
1.1236e-12
-1.36905e-06
-8.87035e-11
-1.37209e-06
-1.80938e-10
-1.37297e-06
-2.53402e-10
-1.37226e-06
-3.36854e-10
-1.36997e-06
-4.05924e-10
-1.36551e-06
-4.70236e-10
-1.35754e-06
-5.16452e-10
-1.34345e-06
-5.0298e-10
-1.3185e-06
-4.151e-10
-1.27453e-06
-2.91475e-10
-1.19942e-06
-1.51484e-10
-1.07619e-06
-8.10375e-07
3.23657e-13
-8.13913e-07
2.19094e-10
-1.08316e-06
2.28496e-10
-1.20718e-06
2.24517e-10
-1.28261e-06
1.93687e-10
-1.32608e-06
1.35312e-10
-1.34977e-06
5.33406e-11
-1.36241e-06
-2.92067e-11
-1.36897e-06
-9.29932e-11
-1.37202e-06
-1.60585e-10
-1.3729e-06
-2.19266e-10
-1.3722e-06
-2.88308e-10
-1.3699e-06
-3.54842e-10
-1.36544e-06
-4.14992e-10
-1.35748e-06
-4.58114e-10
-1.34341e-06
-4.52772e-10
-1.31851e-06
-3.33918e-10
-1.27465e-06
-1.34511e-10
-1.19964e-06
1.03388e-10
-1.07645e-06
-8.10273e-07
6.5111e-11
-8.13981e-07
1.03583e-10
-1.08319e-06
9.85266e-11
-1.20718e-06
7.22556e-11
-1.28257e-06
8.27444e-12
-1.32601e-06
-3.32783e-11
-1.34972e-06
-6.47287e-11
-1.36238e-06
-8.33143e-11
-1.36895e-06
-9.17555e-11
-1.37201e-06
-1.04296e-10
-1.37289e-06
-1.17067e-10
-1.37217e-06
-1.44317e-10
-1.36987e-06
-1.74182e-10
-1.36541e-06
-2.0018e-10
-1.35745e-06
-2.34445e-10
-1.34338e-06
-2.30245e-10
-1.31851e-06
-1.02216e-10
-1.27479e-06
1.16286e-10
-1.19986e-06
3.20662e-10
-1.07665e-06
-8.0995e-07
2.96857e-10
-8.1428e-07
1.18087e-10
-1.083e-06
8.60917e-11
-1.20716e-06
5.59839e-11
-1.28253e-06
-4.98711e-11
-1.32591e-06
-1.01896e-10
-1.34966e-06
-1.19281e-10
-1.36236e-06
-1.06844e-10
-1.36896e-06
-8.43608e-11
-1.37203e-06
-4.36591e-11
-1.37292e-06
-1.62681e-11
-1.37221e-06
2.28122e-11
-1.3699e-06
4.07212e-11
-1.36543e-06
6.71562e-11
-1.35746e-06
7.78689e-11
-1.34339e-06
8.14604e-11
-1.31851e-06
1.45383e-10
-1.27484e-06
2.96518e-10
-1.2e-06
3.03666e-10
-1.07665e-06
-8.09643e-07
3.22876e-10
-8.14593e-07
8.23794e-11
-1.08275e-06
3.70357e-11
-1.20711e-06
9.40973e-12
-1.2825e-06
-9.67912e-11
-1.3258e-06
-1.44098e-10
-1.34961e-06
-1.47022e-10
-1.36236e-06
-1.20863e-10
-1.36898e-06
-8.65973e-11
-1.37207e-06
-3.07801e-11
-1.37297e-06
2.00267e-11
-1.37226e-06
7.76177e-11
-1.36995e-06
1.235e-10
-1.36547e-06
1.67813e-10
-1.3575e-06
1.99154e-10
-1.34341e-06
2.14214e-10
-1.31851e-06
2.26661e-10
-1.27485e-06
2.91015e-10
-1.20005e-06
1.58141e-10
-1.0765e-06
-8.09481e-07
2.71933e-10
-8.1485e-07
6.29447e-11
-1.08254e-06
4.73651e-11
-1.20709e-06
5.13975e-12
-1.28245e-06
-9.68649e-11
-1.3257e-06
-1.53317e-10
-1.34955e-06
-1.67464e-10
-1.36235e-06
-1.47626e-10
-1.36899e-06
-1.26439e-10
-1.3721e-06
-8.26448e-11
-1.37301e-06
-4.38668e-11
-1.3723e-06
9.72315e-12
-1.36999e-06
5.31777e-11
-1.36551e-06
9.97767e-11
-1.35753e-06
1.5262e-10
-1.34345e-06
1.99767e-10
-1.31855e-06
2.05711e-10
-1.27484e-06
1.79576e-10
-1.2e-06
1.42249e-10
-1.07644e-06
-8.09334e-07
1.0248e-11
-8.14846e-07
-2.06643e-11
-1.08249e-06
-1.54651e-11
-1.20708e-06
-9.74316e-11
-1.28236e-06
-1.99703e-10
-1.32559e-06
-2.64143e-10
-1.34947e-06
-2.84362e-10
-1.36232e-06
-2.73987e-10
-1.36899e-06
-2.61484e-10
-1.37211e-06
-2.36543e-10
-1.37303e-06
-2.12875e-10
-1.37232e-06
-1.90108e-10
-1.37001e-06
-1.72604e-10
-1.36552e-06
-1.57282e-10
-1.35754e-06
-1.24097e-10
-1.34347e-06
-6.08139e-11
-1.3186e-06
-4.36077e-12
-1.27488e-06
2.21118e-11
-1.20001e-06
-2.2836e-11
-1.07638e-06
-8.09353e-07
-4.88356e-11
-8.14779e-07
-3.96103e-11
-1.0825e-06
-1.25137e-10
-1.20698e-06
-2.94342e-10
-1.28219e-06
-4.0881e-10
-1.32546e-06
-4.51014e-10
-1.34942e-06
-4.39527e-10
-1.36233e-06
-4.12748e-10
-1.36901e-06
-3.89203e-10
-1.37212e-06
-3.73826e-10
-1.37304e-06
-3.61984e-10
-1.37233e-06
-3.63836e-10
-1.37e-06
-3.73384e-10
-1.3655e-06
-3.95691e-10
-1.35752e-06
-3.91897e-10
-1.34346e-06
-3.3359e-10
-1.31865e-06
-1.91715e-10
-1.275e-06
1.12559e-11
-1.2002e-06
1.01423e-10
-1.07645e-06
-8.09249e-07
1.18465e-10
-8.14882e-07
1.94972e-11
-1.08239e-06
-3.4897e-11
-1.20691e-06
-1.20129e-10
-1.28209e-06
-2.11559e-10
-1.32537e-06
-2.59895e-10
-1.34936e-06
-2.90285e-10
-1.36229e-06
-3.00548e-10
-1.36898e-06
-3.12943e-10
-1.3721e-06
-3.17714e-10
-1.37302e-06
-3.18978e-10
-1.37231e-06
-3.19674e-10
-1.37e-06
-3.14845e-10
-1.3655e-06
-3.18207e-10
-1.35751e-06
-3.15469e-10
-1.34346e-06
-2.94856e-10
-1.31866e-06
-1.7613e-10
-1.27511e-06
4.67941e-11
-1.20041e-06
2.8421e-10
-1.07668e-06
-8.08967e-07
-2.14801e-10
-8.1463e-07
-1.03113e-10
-1.08247e-06
-2.97124e-12
-1.20699e-06
3.6256e-11
-1.28211e-06
1.62318e-11
-1.32533e-06
-3.60642e-11
-1.34929e-06
-9.96627e-11
-1.36221e-06
-1.59716e-10
-1.36891e-06
-2.01774e-10
-1.37205e-06
-2.31596e-10
-1.37298e-06
-2.4214e-10
-1.3723e-06
-2.32848e-10
-1.37e-06
-2.09181e-10
-1.36553e-06
-1.75979e-10
-1.35754e-06
-1.55999e-10
-1.34348e-06
-1.45251e-10
-1.31867e-06
-1.02272e-10
-1.27516e-06
-6.70726e-12
-1.20052e-06
9.0035e-11
-1.07678e-06
-8.0888e-07
-4.11596e-10
-8.14185e-07
-1.95048e-10
-1.08267e-06
-1.36996e-10
-1.20701e-06
-1.42921e-10
-1.28208e-06
-1.53309e-10
-1.32528e-06
-1.99367e-10
-1.34923e-06
-2.34145e-10
-1.36215e-06
-2.77379e-10
-1.36886e-06
-2.91393e-10
-1.37201e-06
-3.10673e-10
-1.37296e-06
-3.02926e-10
-1.37229e-06
-2.96765e-10
-1.37001e-06
-2.65211e-10
-1.36555e-06
-2.26604e-10
-1.35757e-06
-1.9235e-10
-1.34352e-06
-1.4601e-10
-1.31871e-06
-1.05257e-10
-1.27521e-06
-7.70475e-11
-1.20055e-06
-6.04979e-11
-1.07681e-06
-8.0894e-07
-2.0387e-10
-8.13969e-07
-2.41532e-10
-1.08263e-06
-3.41665e-10
-1.2069e-06
-4.12513e-10
-1.28201e-06
-4.2941e-10
-1.32525e-06
-4.46609e-10
-1.34921e-06
-4.43592e-10
-1.36214e-06
-4.45127e-10
-1.36886e-06
-4.30516e-10
-1.37201e-06
-4.16144e-10
-1.37297e-06
-3.91182e-10
-1.3723e-06
-3.66496e-10
-1.37002e-06
-3.29715e-10
-1.36557e-06
-2.90883e-10
-1.3576e-06
-2.36988e-10
-1.34355e-06
-1.65989e-10
-1.31877e-06
-9.50262e-11
-1.27526e-06
-1.08239e-10
-1.20053e-06
-3.72394e-11
-1.07688e-06
-8.08976e-07
-9.07743e-11
-8.13869e-07
-2.56604e-10
-1.08246e-06
-3.11413e-10
-1.20684e-06
-3.78485e-10
-1.28194e-06
-4.24195e-10
-1.32521e-06
-4.52851e-10
-1.34918e-06
-4.71487e-10
-1.36212e-06
-4.74512e-10
-1.36885e-06
-4.66971e-10
-1.37202e-06
-4.49831e-10
-1.37298e-06
-4.2703e-10
-1.37232e-06
-4.01608e-10
-1.37004e-06
-3.69259e-10
-1.36559e-06
-3.38907e-10
-1.35763e-06
-2.95587e-10
-1.34358e-06
-2.26337e-10
-1.31883e-06
-1.77139e-10
-1.2753e-06
-1.91627e-10
-1.20051e-06
-1.20277e-10
-1.07695e-06
-8.09094e-07
-1.02435e-10
-8.13751e-07
-1.60549e-10
-1.08239e-06
-1.60325e-10
-1.20683e-06
-2.07995e-10
-1.2819e-06
-2.6762e-10
-1.32515e-06
-3.31905e-10
-1.34912e-06
-3.8861e-10
-1.36207e-06
-4.22944e-10
-1.36882e-06
-4.48145e-10
-1.37199e-06
-4.60937e-10
-1.37296e-06
-4.7085e-10
-1.37231e-06
-4.67753e-10
-1.37004e-06
-4.61505e-10
-1.36559e-06
-4.48462e-10
-1.35763e-06
-4.13229e-10
-1.34361e-06
-3.61692e-10
-1.31887e-06
-3.42046e-10
-1.27532e-06
-3.41933e-10
-1.20051e-06
-2.13048e-10
-1.07706e-06
-8.09299e-07
3.26618e-11
-8.1376e-07
4.11478e-11
-1.08237e-06
3.20365e-11
-1.20681e-06
2.43959e-11
-1.28187e-06
-3.61551e-11
-1.32507e-06
-1.32489e-10
-1.34901e-06
-2.27695e-10
-1.36196e-06
-3.09278e-10
-1.36872e-06
-3.87885e-10
-1.37191e-06
-4.52679e-10
-1.37288e-06
-5.09413e-10
-1.37224e-06
-5.54719e-10
-1.36998e-06
-5.91383e-10
-1.36554e-06
-6.03273e-10
-1.35761e-06
-5.96019e-10
-1.34361e-06
-5.77102e-10
-1.31887e-06
-5.49137e-10
-1.27532e-06
-4.52946e-10
-1.20057e-06
-2.23969e-10
-1.07724e-06
-8.09508e-07
1.3882e-11
-8.13731e-07
1.93634e-10
-1.08249e-06
1.90974e-10
-1.20677e-06
1.49718e-10
-1.28178e-06
5.67032e-11
-1.32495e-06
-5.42272e-11
-1.34886e-06
-1.6461e-10
-1.36182e-06
-2.65794e-10
-1.36859e-06
-3.64828e-10
-1.37178e-06
-4.48211e-10
-1.37277e-06
-5.27078e-10
-1.37214e-06
-5.87291e-10
-1.36989e-06
-6.38194e-10
-1.36547e-06
-6.54853e-10
-1.35756e-06
-6.51602e-10
-1.34357e-06
-6.57772e-10
-1.31883e-06
-6.25483e-10
-1.27531e-06
-4.13937e-10
-1.20071e-06
-4.39142e-11
-1.07754e-06
-8.09542e-07
4.13969e-11
-8.13727e-07
2.86402e-10
-1.08269e-06
1.49409e-10
-1.20659e-06
-2.7477e-11
-1.28156e-06
-1.4052e-10
-1.3248e-06
-2.27098e-10
-1.34874e-06
-3.09843e-10
-1.36171e-06
-3.81847e-10
-1.36848e-06
-4.63563e-10
-1.37168e-06
-5.24461e-10
-1.37267e-06
-5.84223e-10
-1.37205e-06
-6.15212e-10
-1.36982e-06
-6.23525e-10
-1.36543e-06
-6.01113e-10
-1.35755e-06
-5.45699e-10
-1.3436e-06
-5.17534e-10
-1.31883e-06
-5.0864e-10
-1.27527e-06
-3.8439e-10
-1.2008e-06
-6.28788e-11
-1.07783e-06
-8.09607e-07
3.09308e-10
-8.14014e-07
3.44536e-10
-1.0827e-06
2.10242e-10
-1.20644e-06
-1.09738e-11
-1.28132e-06
-1.81948e-10
-1.32462e-06
-3.16531e-10
-1.34859e-06
-4.3255e-10
-1.36159e-06
-5.38377e-10
-1.36837e-06
-6.33167e-10
-1.37158e-06
-7.2196e-10
-1.37258e-06
-7.95818e-10
-1.37198e-06
-8.49999e-10
-1.36976e-06
-8.82379e-10
-1.36539e-06
-8.879e-10
-1.35754e-06
-8.58011e-10
-1.34362e-06
-7.94383e-10
-1.31889e-06
-7.01025e-10
-1.27537e-06
-5.75442e-10
-1.20093e-06
-5.58803e-10
-1.07786e-06
-8.10169e-07
2.91846e-10
-8.14279e-07
2.84336e-10
-1.08268e-06
2.06988e-10
-1.20634e-06
-4.35322e-12
-1.2811e-06
-2.03471e-10
-1.3244e-06
-3.59803e-10
-1.34843e-06
-5.06433e-10
-1.36143e-06
-6.63156e-10
-1.36821e-06
-8.02399e-10
-1.37143e-06
-9.47548e-10
-1.37244e-06
-1.06978e-09
-1.37184e-06
-1.19706e-09
-1.36964e-06
-1.29907e-09
-1.36528e-06
-1.38172e-09
-1.35745e-06
-1.41387e-09
-1.34358e-06
-1.32456e-09
-1.31897e-06
-1.07961e-09
-1.27562e-06
-7.44428e-10
-1.20128e-06
-5.00404e-10
-1.07811e-06
-8.10665e-07
2.71609e-10
-8.1453e-07
3.02239e-10
-1.08269e-06
2.86988e-10
-1.20632e-06
1.44389e-10
-1.28095e-06
-4.97813e-11
-1.3242e-06
-2.36912e-10
-1.34823e-06
-4.4198e-10
-1.36121e-06
-6.48005e-10
-1.36799e-06
-8.47064e-10
-1.37121e-06
-1.0391e-09
-1.37224e-06
-1.21717e-09
-1.37165e-06
-1.38741e-09
-1.36946e-06
-1.53057e-09
-1.36512e-06
-1.63999e-09
-1.35733e-06
-1.668e-09
-1.34352e-06
-1.55947e-09
-1.31905e-06
-1.25773e-09
-1.2759e-06
-7.55174e-10
-1.20176e-06
-6.33893e-11
-1.07878e-06
-8.10719e-07
8.43118e-11
-8.14585e-07
3.1587e-10
-1.08288e-06
4.57857e-10
-1.20644e-06
4.25461e-10
-1.28088e-06
2.33739e-10
-1.32399e-06
-8.9994e-12
-1.34796e-06
-2.83805e-10
-1.36092e-06
-5.4145e-10
-1.36771e-06
-7.86655e-10
-1.37095e-06
-1.00568e-09
-1.37199e-06
-1.20569e-09
-1.37142e-06
-1.38092e-09
-1.36926e-06
-1.52472e-09
-1.36495e-06
-1.62008e-09
-1.35721e-06
-1.63851e-09
-1.34348e-06
-1.52163e-09
-1.31913e-06
-1.23489e-09
-1.27615e-06
-7.36381e-10
-1.20222e-06
4.19619e-12
-1.07947e-06
-8.10706e-07
-1.2687e-10
-8.14402e-07
2.15758e-10
-1.08317e-06
4.30464e-10
-1.20661e-06
4.42417e-10
-1.28085e-06
2.68161e-10
-1.32378e-06
7.63582e-12
-1.34766e-06
-2.67416e-10
-1.36061e-06
-5.3731e-10
-1.3674e-06
-7.87851e-10
-1.37067e-06
-1.0044e-09
-1.37174e-06
-1.19354e-09
-1.37121e-06
-1.33633e-09
-1.36908e-06
-1.45346e-09
-1.36481e-06
-1.51615e-09
-1.35711e-06
-1.51234e-09
-1.34346e-06
-1.41566e-09
-1.3192e-06
-1.19414e-09
-1.27634e-06
-7.83183e-10
-1.20259e-06
-2.45931e-10
-1.07997e-06
-8.10944e-07
-1.073e-10
-8.14238e-07
1.86742e-10
-1.08342e-06
3.85578e-10
-1.20676e-06
3.4731e-10
-1.28078e-06
1.3422e-10
-1.32352e-06
-1.44517e-10
-1.34735e-06
-4.07495e-10
-1.36031e-06
-6.65143e-10
-1.36712e-06
-8.95507e-10
-1.37041e-06
-1.09984e-09
-1.37151e-06
-1.269e-09
-1.37101e-06
-1.40351e-09
-1.36892e-06
-1.49922e-09
-1.36469e-06
-1.54899e-09
-1.35703e-06
-1.54227e-09
-1.34344e-06
-1.44658e-09
-1.31926e-06
-1.23059e-09
-1.27652e-06
-8.39925e-10
-1.20295e-06
-4.52625e-10
-1.08031e-06
-8.11387e-07
8.93205e-11
-8.14273e-07
3.26553e-10
-1.08363e-06
4.71924e-10
-1.20686e-06
3.30808e-10
-1.28061e-06
5.46826e-11
-1.32321e-06
-2.52119e-10
-1.34703e-06
-5.28296e-10
-1.36001e-06
-7.85065e-10
-1.36685e-06
-1.01644e-09
-1.37015e-06
-1.22213e-09
-1.37129e-06
-1.40514e-09
-1.37081e-06
-1.55137e-09
-1.36874e-06
-1.66011e-09
-1.36455e-06
-1.72686e-09
-1.35693e-06
-1.73029e-09
-1.34339e-06
-1.62371e-09
-1.31934e-06
-1.35103e-09
-1.27676e-06
-9.24812e-10
-1.20333e-06
-4.81344e-10
-1.08071e-06
-8.11858e-07
2.94818e-10
-8.14496e-07
5.09415e-10
-1.0838e-06
6.66882e-10
-1.20696e-06
5.73006e-10
-1.28049e-06
3.16037e-10
-1.32292e-06
-3.30682e-11
-1.34665e-06
-3.88195e-10
-1.35962e-06
-7.23697e-10
-1.36648e-06
-1.0304e-09
-1.36982e-06
-1.30573e-09
-1.37098e-06
-1.55598e-09
-1.37053e-06
-1.7783e-09
-1.36849e-06
-1.95738e-09
-1.36434e-06
-2.08403e-09
-1.35678e-06
-2.12563e-09
-1.34332e-06
-2.03419e-09
-1.3194e-06
-1.69242e-09
-1.27707e-06
-1.1348e-09
-1.20385e-06
-6.24623e-10
-1.08117e-06
-8.12469e-07
2.36497e-10
-8.14627e-07
6.44412e-10
-1.08414e-06
8.60751e-10
-1.20709e-06
8.50012e-10
-1.28043e-06
6.44392e-10
-1.32265e-06
2.62504e-10
-1.34623e-06
-1.72177e-10
-1.35914e-06
-6.02859e-10
-1.36601e-06
-9.95436e-10
-1.36939e-06
-1.36017e-09
-1.37058e-06
-1.69261e-09
-1.37016e-06
-2.00239e-09
-1.36815e-06
-2.26579e-09
-1.36403e-06
-2.46218e-09
-1.35655e-06
-2.53096e-09
-1.34321e-06
-2.42395e-09
-1.31947e-06
-2.0176e-09
-1.27743e-06
-1.303e-09
-1.20451e-06
-4.95109e-10
-1.08191e-06
-8.12947e-07
3.83932e-10
-8.14924e-07
8.48619e-10
-1.08454e-06
1.06685e-09
-1.20724e-06
9.99142e-10
-1.28032e-06
7.24864e-10
-1.32232e-06
3.02428e-10
-1.34577e-06
-1.56135e-10
-1.35864e-06
-6.02841e-10
-1.36553e-06
-1.0099e-09
-1.36894e-06
-1.38776e-09
-1.37017e-06
-1.73402e-09
-1.36978e-06
-2.0598e-09
-1.3678e-06
-2.33595e-09
-1.36372e-06
-2.54275e-09
-1.35631e-06
-2.61349e-09
-1.34311e-06
-2.47362e-09
-1.31957e-06
-2.07275e-09
-1.27778e-06
-1.38486e-09
-1.20512e-06
-3.10095e-10
-1.0829e-06
-8.13242e-07
6.88558e-10
-8.15574e-07
1.08529e-09
-1.08492e-06
1.28652e-09
-1.20741e-06
1.18403e-09
-1.28021e-06
8.63247e-10
-1.32198e-06
4.11662e-10
-1.3453e-06
-6.14308e-11
-1.35815e-06
-5.15183e-10
-1.36506e-06
-9.37132e-10
-1.3685e-06
-1.32079e-09
-1.36976e-06
-1.67325e-09
-1.3694e-06
-1.98258e-09
-1.36745e-06
-2.25346e-09
-1.36343e-06
-2.45771e-09
-1.35608e-06
-2.55022e-09
-1.34298e-06
-2.46719e-09
-1.31962e-06
-2.11512e-09
-1.27808e-06
-1.46024e-09
-1.20571e-06
-4.8755e-10
-1.08381e-06
-8.13722e-07
7.13948e-10
-8.16243e-07
1.32459e-09
-1.08548e-06
1.7083e-09
-1.20777e-06
1.71901e-09
-1.28019e-06
1.41454e-09
-1.32165e-06
9.2326e-10
-1.34479e-06
3.58721e-10
-1.35756e-06
-1.98284e-10
-1.36448e-06
-7.27867e-10
-1.36795e-06
-1.20082e-09
-1.36925e-06
-1.62491e-09
-1.36895e-06
-1.98839e-09
-1.36706e-06
-2.28613e-09
-1.36309e-06
-2.51564e-09
-1.35582e-06
-2.62974e-09
-1.34283e-06
-2.58089e-09
-1.31964e-06
-2.23678e-09
-1.27838e-06
-1.59523e-09
-1.20632e-06
-7.46941e-10
-1.08463e-06
-8.14468e-07
4.3203e-10
-8.16585e-07
1.50248e-09
-1.08646e-06
2.10193e-09
-1.2083e-06
2.21018e-09
-1.28024e-06
1.90626e-09
-1.3213e-06
1.34971e-09
-1.3442e-06
7.0394e-10
-1.35688e-06
2.68098e-11
-1.36378e-06
-6.0507e-10
-1.36728e-06
-1.20392e-09
-1.36864e-06
-1.73457e-09
-1.36839e-06
-2.22159e-09
-1.36656e-06
-2.62441e-09
-1.36265e-06
-2.95966e-09
-1.35547e-06
-3.1387e-09
-1.34261e-06
-3.0937e-09
-1.31966e-06
-2.70555e-09
-1.27876e-06
-1.94973e-09
-1.20707e-06
-1.08533e-09
-1.08549e-06
-8.15551e-07
4.83504e-10
-8.16986e-07
1.69406e-09
-1.0876e-06
2.31179e-09
-1.20885e-06
2.3844e-09
-1.28027e-06
2.0518e-09
-1.32091e-06
1.45694e-09
-1.34358e-06
7.8857e-10
-1.35616e-06
6.49114e-11
-1.36304e-06
-6.22088e-10
-1.36656e-06
-1.30427e-09
-1.36795e-06
-1.92651e-09
-1.36773e-06
-2.53443e-09
-1.36594e-06
-3.05851e-09
-1.36209e-06
-3.49861e-09
-1.35501e-06
-3.73355e-09
-1.34234e-06
-3.66018e-09
-1.3197e-06
-3.19563e-09
-1.2792e-06
-2.26266e-09
-1.20799e-06
-1.0054e-09
-1.08673e-06
-8.1655e-07
9.40067e-10
-8.17901e-07
1.97988e-09
-1.0886e-06
2.65739e-09
-1.20951e-06
2.76527e-09
-1.28036e-06
2.40443e-09
-1.32053e-06
1.77262e-09
-1.34293e-06
1.02352e-09
-1.3554e-06
2.38981e-10
-1.36224e-06
-5.30452e-10
-1.36576e-06
-1.28319e-09
-1.36717e-06
-1.99322e-09
-1.36699e-06
-2.67173e-09
-1.36524e-06
-3.27541e-09
-1.36146e-06
-3.7724e-09
-1.35449e-06
-4.04778e-09
-1.34203e-06
-3.99433e-09
-1.31971e-06
-3.51575e-09
-1.27963e-06
-2.52848e-09
-1.20895e-06
-9.82046e-10
-1.08825e-06
-8.17526e-07
1.08571e-09
-8.18967e-07
2.33063e-09
-1.08979e-06
3.13249e-09
-1.21031e-06
3.30578e-09
-1.2805e-06
2.9271e-09
-1.32015e-06
2.25061e-09
-1.34223e-06
1.41623e-09
-1.35455e-06
5.50223e-10
-1.36135e-06
-3.1347e-10
-1.36488e-06
-1.14871e-09
-1.36632e-06
-1.93784e-09
-1.36618e-06
-2.67767e-09
-1.36448e-06
-3.33957e-09
-1.36077e-06
-3.88467e-09
-1.35392e-06
-4.21761e-09
-1.34167e-06
-4.22117e-09
-1.31967e-06
-3.74316e-09
-1.28008e-06
-2.69563e-09
-1.20997e-06
-1.19777e-09
-1.08972e-06
-8.18718e-07
1.12887e-09
-8.20059e-07
2.72862e-09
-1.09133e-06
3.62591e-09
-1.21118e-06
3.80491e-09
-1.28064e-06
3.41385e-09
-1.31974e-06
2.69376e-09
-1.34149e-06
1.79712e-09
-1.35364e-06
8.44406e-10
-1.36037e-06
-1.14944e-10
-1.3639e-06
-1.0433e-09
-1.36537e-06
-1.93309e-09
-1.36527e-06
-2.75146e-09
-1.36364e-06
-3.48734e-09
-1.36002e-06
-4.0717e-09
-1.35331e-06
-4.43355e-09
-1.34128e-06
-4.45047e-09
-1.31963e-06
-3.9391e-09
-1.28057e-06
-2.83229e-09
-1.21105e-06
-1.3575e-09