# vtk DataFile Version 2.0
track0
ASCII
DATASET POLYDATA
POINTS 12114 float
-0.0205 0.001 1e-05
-0.0204919 0.0011 1e-05
-0.0204836 0.00119999 1e-05
-0.0204752 0.00129997 1e-05
-0.0204667 0.00139993 1e-05
-0.020458 0.0015 1e-05
-0.0204492 0.0016 1e-05
-0.0204402 0.00169998 1e-05
-0.0204311 0.00179995 1e-05
-0.0204218 0.00189991 1e-05
-0.0204123 0.002 1e-05
-0.0204026 0.0021 1e-05
-0.0203928 0.00219998 1e-05
-0.0203827 0.00229994 1e-05
-0.0203725 0.00239988 1e-05
-0.020362 0.0025 1e-05
-0.0203513 0.0026 1e-05
-0.0203404 0.00269998 1e-05
-0.0203293 0.00279993 1e-05
-0.0203179 0.00289985 1e-05
-0.0203063 0.003 1e-05
-0.0203021 0.00303541 1e-05
-0.0202979 0.00307083 1e-05
-0.0202937 0.00310623 1e-05
-0.0202894 0.00314164 1e-05
-0.0202854 0.00317454 1e-05
-0.0202774 0.00323963 1e-05
-0.0202694 0.00330471 1e-05
-0.0202612 0.00336978 1e-05
-0.0202529 0.00343483 1e-05
-0.0202445 0.0035 1e-05
-0.0202315 0.0036 1e-05
-0.0202181 0.00369997 1e-05
-0.0202046 0.0037999 1e-05
-0.0201908 0.00389979 1e-05
-0.0201767 0.004 1e-05
-0.0201623 0.0041 1e-05
-0.0201477 0.00419996 1e-05
-0.0201328 0.00429988 1e-05
-0.0201176 0.00439977 1e-05
-0.0201022 0.0045 1e-05
-0.0200865 0.0046 1e-05
-0.0200705 0.00469996 1e-05
-0.0200542 0.00479987 1e-05
-0.0200377 0.00489974 1e-05
-0.0200223 0.00499087 1e-05
-0.020022 0.00499269 1e-05
-0.0200217 0.00499452 1e-05
-0.0200214 0.00499635 1e-05
-0.0200211 0.00499817 1e-05
-0.0200208 0.005 1e-05
-0.0200036 0.0051 1e-05
-0.0199862 0.00519995 1e-05
-0.0199686 0.00529985 1e-05
-0.0199506 0.00539971 1e-05
-0.0199323 0.0055 1e-05
-0.0199137 0.0056 1e-05
-0.0198948 0.00569995 1e-05
-0.0198757 0.00579984 1e-05
-0.0198563 0.00589968 1e-05
-0.0198365 0.006 1e-05
-0.0198214 0.00607492 1e-05
-0.0198063 0.00614981 1e-05
-0.0197909 0.00622467 1e-05
-0.0197754 0.00629949 1e-05
-0.0197614 0.00636653 1e-05
-0.0197557 0.00639323 1e-05
-0.01975 0.00641991 1e-05
-0.0197444 0.0064466 1e-05
-0.0197387 0.00647328 1e-05
-0.0197329 0.0065 1e-05
-0.0197114 0.0066 1e-05
-0.0196895 0.00669994 1e-05
-0.0196674 0.00679981 1e-05
-0.0196449 0.00689961 1e-05
-0.019622 0.007 1e-05
-0.0195989 0.0071 1e-05
-0.0195755 0.00719993 1e-05
-0.0195518 0.00729979 1e-05
-0.0195278 0.00739958 1e-05
-0.0195034 0.0075 1e-05
-0.0195032 0.00750069 1e-05
-0.019503 0.00750138 1e-05
-0.0195029 0.00750207 1e-05
-0.0195027 0.00750277 1e-05
-0.0195025 0.00750346 1e-05
-0.019478 0.00760276 1e-05
-0.0194532 0.007702 1e-05
-0.0194281 0.00780116 1e-05
-0.0194026 0.00790024 1e-05
-0.0193767 0.008 1e-05
-0.0193505 0.00809965 1e-05
-0.019324 0.00819923 1e-05
-0.0192972 0.00829872 1e-05
-0.0192701 0.00839813 1e-05
-0.0192457 0.00848645 1e-05
-0.019245 0.00848916 1e-05
-0.0192442 0.00849187 1e-05
-0.0192435 0.00849458 1e-05
-0.0192427 0.00849729 1e-05
-0.019242 0.0085 1e-05
-0.019214 0.0086 1e-05
-0.0191858 0.00869991 1e-05
-0.0191572 0.00879974 1e-05
-0.0191284 0.00889947 1e-05
-0.0190989 0.009 1e-05
-0.0190773 0.00907285 1e-05
-0.0190556 0.00914565 1e-05
-0.0190337 0.00921839 1e-05
-0.0190116 0.00929109 1e-05
-0.018991 0.00935829 1e-05
-0.0189823 0.00938663 1e-05
-0.0189735 0.00941497 1e-05
-0.0189647 0.00944329 1e-05
-0.0189559 0.00947161 1e-05
-0.018947 0.0095 1e-05
-0.0189157 0.0096 1e-05
-0.018884 0.0096999 1e-05
-0.0188521 0.0097997 1e-05
-0.0188198 0.00989939 1e-05
-0.0187868 0.01 1e-05
-0.0187771 0.0100293 1e-05
-0.0187674 0.0100585 1e-05
-0.0187577 0.0100877 1e-05
-0.0187479 0.010117 1e-05
-0.0187384 0.0101453 1e-05
-0.0187145 0.0102163 1e-05
-0.0186905 0.0102872 1e-05
-0.0186663 0.010358 1e-05
-0.018642 0.0104287 1e-05
-0.0186173 0.0105 1e-05
-0.0185914 0.0105742 1e-05
-0.0185653 0.0106483 1e-05
-0.018539 0.0107224 1e-05
-0.0185126 0.0107964 1e-05
-0.0184878 0.0108653 1e-05
-0.018478 0.0108922 1e-05
-0.0184682 0.0109192 1e-05
-0.0184584 0.0109461 1e-05
-0.0184485 0.010973 1e-05
-0.0184386 0.011 1e-05
-0.0184019 0.0111 1e-05
-0.0183648 0.0111999 1e-05
-0.0183273 0.0112996 1e-05
-0.0182895 0.0113993 1e-05
-0.018251 0.0115 1e-05
-0.0182486 0.0115061 1e-05
-0.0182462 0.0115122 1e-05
-0.0182439 0.0115182 1e-05
-0.0182415 0.0115243 1e-05
-0.0182392 0.0115304 1e-05
-0.0182027 0.0116243 1e-05
-0.018166 0.0117181 1e-05
-0.0181289 0.0118118 1e-05
-0.0180916 0.0119054 1e-05
-0.0180535 0.012 1e-05
-0.0180413 0.01203 1e-05
-0.0180291 0.0120599 1e-05
-0.0180169 0.0120899 1e-05
-0.0180046 0.0121198 1e-05
-0.0179926 0.012149 1e-05
-0.0179636 0.0122192 1e-05
-0.0179345 0.0122893 1e-05
-0.0179052 0.0123594 1e-05
-0.0178757 0.0124294 1e-05
-0.0178458 0.0125 1e-05
-0.0178262 0.0125459 1e-05
-0.0178066 0.0125917 1e-05
-0.0177869 0.0126375 1e-05
-0.0177671 0.0126832 1e-05
-0.017748 0.0127273 1e-05
-0.0177242 0.0127818 1e-05
-0.0177003 0.0128363 1e-05
-0.0176763 0.0128908 1e-05
-0.0176522 0.0129452 1e-05
-0.0176278 0.013 1e-05
-0.0176033 0.0130547 1e-05
-0.0175787 0.0131094 1e-05
-0.017554 0.013164 1e-05
-0.0175292 0.0132186 1e-05
-0.0175053 0.0132709 1e-05
-0.0174843 0.0133167 1e-05
-0.0174632 0.0133625 1e-05
-0.017442 0.0134082 1e-05
-0.0174207 0.013454 1e-05
-0.0173993 0.0135 1e-05
-0.0173723 0.0135574 1e-05
-0.0173453 0.0136147 1e-05
-0.0173181 0.013672 1e-05
-0.0172909 0.0137293 1e-05
-0.0172647 0.013784 1e-05
-0.0172439 0.0138272 1e-05
-0.017223 0.0138704 1e-05
-0.0172021 0.0139135 1e-05
-0.0171811 0.0139566 1e-05
-0.0171598 0.014 1e-05
-0.0171331 0.0140545 1e-05
-0.0171062 0.014109 1e-05
-0.0170792 0.0141635 1e-05
-0.0170521 0.0142178 1e-05
-0.0170259 0.01427 1e-05
-0.0170028 0.014316 1e-05
-0.0169795 0.014362 1e-05
-0.0169562 0.0144079 1e-05
-0.0169328 0.0144538 1e-05
-0.0169092 0.0145 1e-05
-0.0168852 0.0145467 1e-05
-0.0168611 0.0145934 1e-05
-0.0168369 0.0146401 1e-05
-0.0168126 0.0146867 1e-05
-0.0167891 0.0147317 1e-05
-0.0167609 0.0147854 1e-05
-0.0167327 0.014839 1e-05
-0.0167043 0.0148925 1e-05
-0.0166758 0.014946 1e-05
-0.016647 0.015 1e-05
-0.0166284 0.0150345 1e-05
-0.0166098 0.015069 1e-05
-0.0165912 0.0151035 1e-05
-0.0165725 0.0151379 1e-05
-0.0165542 0.0151715 1e-05
-0.0165183 0.0152372 1e-05
-0.0164823 0.0153028 1e-05
-0.0164461 0.0153684 1e-05
-0.0164098 0.0154338 1e-05
-0.0163728 0.0155 1e-05
-0.0163625 0.0155184 1e-05
-0.0163521 0.0155368 1e-05
-0.0163418 0.0155551 1e-05
-0.0163314 0.0155735 1e-05
-0.0163212 0.0155916 1e-05
-0.0162749 0.0156732 1e-05
-0.0162285 0.0157547 1e-05
-0.0161817 0.015836 1e-05
-0.0161347 0.0159172 1e-05
-0.01609 0.0159939 1e-05
-0.0160893 0.0159952 1e-05
-0.0160886 0.0159964 1e-05
-0.0160879 0.0159976 1e-05
-0.0160872 0.0159988 1e-05
-0.0160865 0.016 1e-05
-0.0160413 0.0160769 1e-05
-0.015996 0.0161537 1e-05
-0.0159504 0.0162303 1e-05
-0.0159045 0.0163068 1e-05
-0.0158607 0.0163794 1e-05
-0.0158461 0.0164035 1e-05
-0.0158315 0.0164276 1e-05
-0.0158168 0.0164517 1e-05
-0.0158021 0.0164758 1e-05
-0.0157873 0.0165 1e-05
-0.0157565 0.0165502 1e-05
-0.0157256 0.0166004 1e-05
-0.0156946 0.0166505 1e-05
-0.0156635 0.0167005 1e-05
-0.0156333 0.016749 1e-05
-0.0156019 0.0167992 1e-05
-0.0155703 0.0168493 1e-05
-0.0155387 0.0168994 1e-05
-0.0155069 0.0169494 1e-05
-0.0154747 0.017 1e-05
-0.0154613 0.0170209 1e-05
-0.0154479 0.0170418 1e-05
-0.0154344 0.0170627 1e-05
-0.015421 0.0170836 1e-05
-0.0154077 0.0171042 1e-05
-0.015363 0.0171735 1e-05
-0.015318 0.0172427 1e-05
-0.0152729 0.0173117 1e-05
-0.0152276 0.0173807 1e-05
-0.0151839 0.0174467 1e-05
-0.0151768 0.0174573 1e-05
-0.0151697 0.017468 1e-05
-0.0151626 0.0174787 1e-05
-0.0151555 0.0174893 1e-05
-0.0151484 0.0175 1e-05
-0.0151111 0.0175558 1e-05
-0.0150737 0.0176115 1e-05
-0.0150362 0.0176672 1e-05
-0.0149985 0.0177228 1e-05
-0.0149619 0.0177764 1e-05
-0.0149314 0.0178212 1e-05
-0.0149007 0.0178658 1e-05
-0.01487 0.0179104 1e-05
-0.0148391 0.017955 1e-05
-0.0148079 0.018 1e-05
-0.0147946 0.018019 1e-05
-0.0147814 0.0180379 1e-05
-0.0147682 0.0180569 1e-05
-0.0147549 0.0180758 1e-05
-0.0147417 0.0180946 1e-05
-0.0146981 0.0181567 1e-05
-0.0146542 0.0182188 1e-05
-0.0146102 0.0182807 1e-05
-0.0145661 0.0183426 1e-05
-0.0145233 0.0184022 1e-05
-0.0145092 0.0184217 1e-05
-0.0144951 0.0184413 1e-05
-0.014481 0.0184608 1e-05
-0.0144668 0.0184804 1e-05
-0.0144526 0.0185 1e-05
-0.0144234 0.0185401 1e-05
-0.0143941 0.0185802 1e-05
-0.0143648 0.0186203 1e-05
-0.0143355 0.0186602 1e-05
-0.0143067 0.0186993 1e-05
-0.0142637 0.0187574 1e-05
-0.0142206 0.0188155 1e-05
-0.0141773 0.0188734 1e-05
-0.0141339 0.0189312 1e-05
-0.0140917 0.0189872 1e-05
-0.0140898 0.0189898 1e-05
-0.0140879 0.0189923 1e-05
-0.0140859 0.0189949 1e-05
-0.014084 0.0189974 1e-05
-0.014082 0.019 1e-05
-0.0140413 0.0190537 1e-05
-0.0140005 0.0191073 1e-05
-0.0139596 0.0191608 1e-05
-0.0139186 0.0192142 1e-05
-0.0138786 0.019266 1e-05
-0.0138423 0.0193128 1e-05
-0.0138059 0.0193595 1e-05
-0.0137695 0.0194062 1e-05
-0.0137329 0.0194528 1e-05
-0.0136957 0.0195 1e-05
-0.01369 0.0195072 1e-05
-0.0136843 0.0195145 1e-05
-0.0136785 0.0195217 1e-05
-0.0136728 0.019529 1e-05
-0.0136671 0.0195362 1e-05
-0.0136251 0.0195891 1e-05
-0.0135831 0.0196419 1e-05
-0.0135409 0.0196947 1e-05
-0.0134986 0.0197473 1e-05
-0.0134573 0.0197985 1e-05
-0.0134247 0.0198388 1e-05
-0.0133919 0.019879 1e-05
-0.0133592 0.0199192 1e-05
-0.0133263 0.0199594 1e-05
-0.0132929 0.02 1e-05
-0.0132842 0.0200106 1e-05
-0.0132755 0.0200212 1e-05
-0.0132667 0.0200318 1e-05
-0.013258 0.0200424 1e-05
-0.0132493 0.0200529 1e-05
-0.013208 0.0201028 1e-05
-0.0131666 0.0201526 1e-05
-0.0131251 0.0202023 1e-05
-0.0130835 0.020252 1e-05
-0.0130429 0.0203003 1e-05
-0.0130091 0.0203403 1e-05
-0.0129753 0.0203801 1e-05
-0.0129415 0.02042 1e-05
-0.0129075 0.0204597 1e-05
-0.0128731 0.0205 1e-05
-0.0128661 0.0205081 1e-05
-0.0128591 0.0205163 1e-05
-0.0128521 0.0205244 1e-05
-0.0128451 0.0205326 1e-05
-0.0128381 0.0205407 1e-05
-0.0127975 0.0205878 1e-05
-0.0127568 0.0206349 1e-05
-0.012716 0.0206819 1e-05
-0.0126751 0.0207288 1e-05
-0.012635 0.0207746 1e-05
-0.0125954 0.0208197 1e-05
-0.0125558 0.0208647 1e-05
-0.012516 0.0209096 1e-05
-0.0124762 0.0209545 1e-05
-0.0124356 0.021 1e-05
-0.0124352 0.0210005 1e-05
-0.0124348 0.0210009 1e-05
-0.0124344 0.0210014 1e-05
[...]
POINT_DATA 12114
 FIELD attributes 1
U 3 12114 float
-0.024001 	-0.2951 	0 -0.0243901 	-0.295079 	0 -0.0247799 	-0.295057 	0 -0.0251693 	-0.295033 	0 -0.0255586 	-0.295009 	0 -0.0259516 	-0.294984 	0 -0.0264559 	-0.294954 	0 -0.0269626 	-0.294923 	0 -0.0274662 	-0.294889 	0 -0.0279693 	-0.294855 	0 -0.0284757 	-0.294819 	0 -0.0290699 	-0.294776 	0 -0.029666 	-0.294732 	0 -0.0302619 	-0.294686 	0 -0.0308548 	-0.294639 	0 -0.0314499 	-0.294589 	0 -0.0321126 	-0.294531 	0 -0.0327767 	-0.294472 	0 -0.0334407 	-0.294411 	0 -0.0341044 	-0.294349 	0 -0.0347692 	-0.294285 	0 -0.0350213 	-0.294259 	0 -0.0352744 	-0.294233 	0 -0.0355276 	-0.294206 	0 -0.0357807 	-0.29418 	0 -0.0360171 	-0.294155 	0 -0.036482 	-0.294105 	0 -0.0369479 	-0.294055 	0 -0.0374138 	-0.294004 	0 -0.0378795 	-0.293953 	0 -0.0383473 	-0.293901 	0 -0.0391032 	-0.293813 	0 -0.0398562 	-0.293721 	0 -0.0406088 	-0.293629 	0 -0.0413612 	-0.293535 	0 -0.0421169 	-0.293439 	0 -0.0428998 	-0.293334 	0 -0.0436831 	-0.293228 	0 -0.0444657 	-0.293121 	0 -0.045245 	-0.29301 	0 -0.0460278 	-0.292898 	0 -0.0468303 	-0.292777 	0 -0.0476331 	-0.292654 	0 -0.0484356 	-0.29253 	0 -0.0492378 	-0.292405 	0 -0.0499703 	-0.292289 	0 -0.049985 	-0.292286 	0 -0.0499996 	-0.292284 	0 -0.0500143 	-0.292282 	0 -0.050029 	-0.292279 	0 -0.0500438 	-0.292277 	0 -0.0508623 	-0.29214 	0 -0.0516807 	-0.292001 	0 -0.0524988 	-0.291861 	0 -0.0533167 	-0.291719 	0 -0.0541386 	-0.291575 	0 -0.0549712 	-0.291423 	0 -0.0558037 	-0.291269 	0 -0.0566351 	-0.291114 	0 -0.0574641 	-0.290956 	0 -0.0582976 	-0.290795 	0 -0.0589282 	-0.29067 	0 -0.0595588 	-0.290543 	0 -0.0601892 	-0.290415 	0 -0.0608194 	-0.290287 	0 -0.0613844 	-0.290171 	0 -0.0616094 	-0.290124 	0 -0.0618347 	-0.290078 	0 -0.0620599 	-0.290031 	0 -0.062285 	-0.289984 	0 -0.0625108 	-0.289937 	0 -0.0633642 	-0.289755 	0 -0.064215 	-0.28957 	0 -0.0650656 	-0.289383 	0 -0.0659158 	-0.289194 	0 -0.0667713 	-0.289003 	0 -0.0676322 	-0.288805 	0 -0.0684929 	-0.288605 	0 -0.0693532 	-0.288404 	0 -0.0702131 	-0.288201 	0 -0.0710788 	-0.287995 	0 -0.0710848 	-0.287994 	0 -0.0710908 	-0.287992 	0 -0.0710968 	-0.287991 	0 -0.0711028 	-0.287989 	0 -0.0711088 	-0.287988 	0 -0.0719723 	-0.287776 	0 -0.0728356 	-0.287562 	0 -0.0736985 	-0.287347 	0 -0.074561 	-0.28713 	0 -0.0754298 	-0.28691 	0 -0.0763057 	-0.286683 	0 -0.0771812 	-0.286455 	0 -0.0780564 	-0.286225 	0 -0.0789311 	-0.285993 	0 -0.0797087 	-0.285785 	0 -0.0797325 	-0.285779 	0 -0.0797563 	-0.285773 	0 -0.0797802 	-0.285766 	0 -0.0798041 	-0.28576 	0 -0.0798281 	-0.285753 	0 -0.0807163 	-0.285511 	0 -0.0816038 	-0.285266 	0 -0.0824909 	-0.28502 	0 -0.0833775 	-0.284773 	0 -0.0842717 	-0.284521 	0 -0.0849255 	-0.284334 	0 -0.0855791 	-0.284146 	0 -0.0862325 	-0.283957 	0 -0.0868856 	-0.283768 	0 -0.0874896 	-0.283591 	0 -0.0877446 	-0.283517 	0 -0.0879998 	-0.283442 	0 -0.0882549 	-0.283367 	0 -0.0885099 	-0.283292 	0 -0.0887658 	-0.283217 	0 -0.0896745 	-0.282947 	0 -0.0905829 	-0.282675 	0 -0.0914897 	-0.2824 	0 -0.0923955 	-0.282124 	0 -0.0933101 	-0.281842 	0 -0.0935784 	-0.281759 	0 -0.0938467 	-0.281675 	0 -0.094115 	-0.281592 	0 -0.0943833 	-0.281508 	0 -0.0946441 	-0.281426 	0 -0.0952963 	-0.281222 	0 -0.0959483 	-0.281017 	0 -0.0966001 	-0.280811 	0 -0.0972515 	-0.280604 	0 -0.0979079 	-0.280395 	0 -0.0985973 	-0.280173 	0 -0.0992865 	-0.27995 	0 -0.0999754 	-0.279727 	0 -0.100664 	-0.279502 	0 -0.101305 	-0.279292 	0 -0.101557 	-0.27921 	0 -0.101808 	-0.279127 	0 -0.102059 	-0.279045 	0 -0.10231 	-0.278962 	0 -0.102562 	-0.278879 	0 -0.103504 	-0.278567 	0 -0.104445 	-0.278253 	0 -0.105385 	-0.277937 	0 -0.106325 	-0.27762 	0 -0.107274 	-0.277297 	0 -0.107332 	-0.277277 	0 -0.10739 	-0.277257 	0 -0.107448 	-0.277237 	0 -0.107506 	-0.277217 	0 -0.107564 	-0.277197 	0 -0.108459 	-0.27689 	0 -0.109354 	-0.276582 	0 -0.110248 	-0.276272 	0 -0.111142 	-0.275961 	0 -0.112046 	-0.275644 	0 -0.112335 	-0.275542 	0 -0.112624 	-0.27544 	0 -0.112913 	-0.275338 	0 -0.113202 	-0.275236 	0 -0.113483 	-0.275136 	0 -0.114162 	-0.274896 	0 -0.114841 	-0.274655 	0 -0.115519 	-0.274413 	0 -0.116197 	-0.27417 	0 -0.116881 	-0.273924 	0 -0.117329 	-0.273763 	0 -0.117778 	-0.2736 	0 -0.118226 	-0.273438 	0 -0.118674 	-0.273275 	0 -0.119105 	-0.273118 	0 -0.11964 	-0.272923 	0 -0.120175 	-0.272728 	0 -0.120709 	-0.272533 	0 -0.121243 	-0.272337 	0 -0.121782 	-0.272139 	0 -0.122325 	-0.271939 	0 -0.122867 	-0.271738 	0 -0.123409 	-0.271537 	0 -0.123951 	-0.271336 	0 -0.12447 	-0.271142 	0 -0.124926 	-0.270972 	0 -0.125381 	-0.270802 	0 -0.125837 	-0.270632 	0 -0.126292 	-0.270462 	0 -0.126751 	-0.270289 	0 -0.127328 	-0.270072 	0 -0.127905 	-0.269855 	0 -0.128482 	-0.269636 	0 -0.129058 	-0.269418 	0 -0.129609 	-0.269208 	0 -0.130045 	-0.269042 	0 -0.130481 	-0.268877 	0 -0.130917 	-0.268711 	0 -0.131352 	-0.268544 	0 -0.131791 	-0.268377 	0 -0.132347 	-0.268164 	0 -0.132903 	-0.26795 	0 -0.133459 	-0.267736 	0 -0.134015 	-0.267521 	0 -0.134548 	-0.267315 	0 -0.135019 	-0.267133 	0 -0.135489 	-0.266951 	0 -0.13596 	-0.266769 	0 -0.13643 	-0.266587 	0 -0.136904 	-0.266402 	0 -0.137388 	-0.266214 	0 -0.137871 	-0.266025 	0 -0.138355 	-0.265836 	0 -0.138838 	-0.265647 	0 -0.139305 	-0.265463 	0 -0.139862 	-0.265245 	0 -0.140419 	-0.265027 	0 -0.140975 	-0.264808 	0 -0.141531 	-0.264589 	0 -0.142093 	-0.264367 	0 -0.142456 	-0.264224 	0 -0.142818 	-0.264081 	0 -0.143181 	-0.263937 	0 -0.143543 	-0.263793 	0 -0.143897 	-0.263653 	0 -0.144589 	-0.263379 	0 -0.14528 	-0.263105 	0 -0.145971 	-0.26283 	0 -0.146661 	-0.262554 	0 -0.147361 	-0.262274 	0 -0.147556 	-0.262196 	0 -0.147753 	-0.262117 	0 -0.147949 	-0.262039 	0 -0.148145 	-0.26196 	0 -0.148338 	-0.261883 	0 -0.149211 	-0.261535 	0 -0.150082 	-0.261186 	0 -0.150953 	-0.260836 	0 -0.151822 	-0.260486 	0 -0.152644 	-0.260152 	0 -0.152657 	-0.260147 	0 -0.15267 	-0.260142 	0 -0.152683 	-0.260137 	0 -0.152696 	-0.260131 	0 -0.152709 	-0.260126 	0 -0.153542 	-0.25979 	0 -0.154375 	-0.259454 	0 -0.155206 	-0.259116 	0 -0.156037 	-0.258778 	0 -0.156826 	-0.258455 	0 -0.157088 	-0.258348 	0 -0.15735 	-0.258241 	0 -0.157612 	-0.258134 	0 -0.157874 	-0.258027 	0 -0.158138 	-0.25792 	0 -0.158691 	-0.257695 	0 -0.159243 	-0.257469 	0 -0.159795 	-0.257244 	0 -0.160346 	-0.257018 	0 -0.16088 	-0.256798 	0 -0.161434 	-0.256572 	0 -0.161988 	-0.256345 	0 -0.162542 	-0.256118 	0 -0.163095 	-0.255891 	0 -0.163654 	-0.25566 	0 -0.163888 	-0.255564 	0 -0.164122 	-0.255468 	0 -0.164355 	-0.255372 	0 -0.164589 	-0.255276 	0 -0.16482 	-0.255181 	0 -0.165596 	-0.254864 	0 -0.166371 	-0.254546 	0 -0.167146 	-0.254228 	0 -0.167919 	-0.253907 	0 -0.168659 	-0.253599 	0 -0.168778 	-0.253549 	0 -0.168898 	-0.253499 	0 -0.169018 	-0.25345 	0 -0.169137 	-0.2534 	0 -0.169258 	-0.25335 	0 -0.169891 	-0.253089 	0 -0.170525 	-0.252827 	0 -0.171158 	-0.252565 	0 -0.17179 	-0.252302 	0 -0.172401 	-0.252048 	0 -0.17291 	-0.251837 	0 -0.173419 	-0.251627 	0 -0.173928 	-0.251415 	0 -0.174436 	-0.251204 	0 -0.17495 	-0.25099 	0 -0.175169 	-0.250899 	0 -0.175388 	-0.250808 	0 -0.175607 	-0.250717 	0 -0.175825 	-0.250626 	0 -0.176042 	-0.250536 	0 -0.176761 	-0.25024 	0 -0.177479 	-0.249944 	0 -0.178196 	-0.249646 	0 -0.178911 	-0.249346 	0 -0.1796 	-0.249056 	0 -0.179827 	-0.248961 	0 -0.180053 	-0.248867 	0 -0.18028 	-0.248772 	0 -0.180506 	-0.248677 	0 -0.180734 	-0.248582 	0 -0.181204 	-0.248387 	0 -0.181674 	-0.248191 	0 -0.182144 	-0.247995 	0 -0.182614 	-0.247799 	0 -0.183073 	-0.247607 	0 -0.183756 	-0.247324 	0 -0.184439 	-0.247041 	0 -0.18512 	-0.246757 	0 -0.185801 	-0.246472 	0 -0.18646 	-0.246195 	0 -0.18649 	-0.246183 	0 -0.18652 	-0.24617 	0 -0.18655 	-0.246157 	0 -0.18658 	-0.246145 	0 -0.186611 	-0.246132 	0 -0.18725 	-0.245866 	0 -0.187889 	-0.2456 	0 -0.188526 	-0.245334 	0 -0.189163 	-0.245067 	0 -0.189782 	-0.244807 	0 -0.190341 	-0.244574 	0 -0.190899 	-0.244342 	0 -0.191457 	-0.244109 	0 -0.192014 	-0.243876 	0 -0.192579 	-0.243639 	0 -0.192667 	-0.243602 	0 -0.192754 	-0.243565 	0 -0.192842 	-0.243529 	0 -0.19293 	-0.243492 	0 -0.193018 	-0.243456 	0 -0.193659 	-0.243192 	0 -0.194298 	-0.242925 	0 -0.194937 	-0.242657 	0 -0.195575 	-0.242389 	0 -0.196195 	-0.242128 	0 -0.196684 	-0.241925 	0 -0.197172 	-0.241721 	0 -0.19766 	-0.241517 	0 -0.198147 	-0.241313 	0 -0.198641 	-0.241106 	0 -0.198771 	-0.241052 	0 -0.198902 	-0.240998 	0 -0.199032 	-0.240943 	0 -0.199163 	-0.240889 	0 -0.199293 	-0.240835 	0 -0.199907 	-0.240583 	0 -0.200519 	-0.240328 	0 -0.20113 	-0.240071 	0 -0.201741 	-0.239815 	0 -0.202336 	-0.239564 	0 -0.202828 	-0.23936 	0 -0.203319 	-0.239156 	0 -0.20381 	-0.238951 	0 -0.2043 	-0.238746 	0 -0.204797 	-0.238538 	0 -0.204898 	-0.238496 	0 -0.205 	-0.238453 	0 -0.205102 	-0.238411 	0 -0.205203 	-0.238369 	0 -0.205305 	-0.238327 	0 -0.205894 	-0.238085 	0 -0.206482 	-0.237841 	0 -0.207068 	-0.237596 	0 -0.207654 	-0.23735 	0 -0.208227 	-0.23711 	0 -0.20879 	-0.236877 	0 -0.209352 	-0.236644 	0 -0.209914 	-0.23641 	0 -0.210475 	-0.236176 	0 -0.211045 	-0.235938 	0 -0.211051 	-0.235936 	0 -0.211057 	-0.235933 	0 -0.211063 	-0.235931 	0 -0.211068 	-0.235928 	0 -0.211074 	-0.235926 	0 -0.21164 	-0.235692 	0 -0.212204 	-0.235458 	0 -0.212769 	-0.235224 	0 -0.213332 	-0.234989 	0 -0.213883 	-0.234759 	0 -0.214435 	-0.234532 	0 -0.214986 	-0.234305 	0 -0.215536 	-0.234078 	0 -0.216086 	-0.233851 	0 -0.216623 	-0.233623 	0 -0.216774 	-0.23356 	0 -0.216926 	-0.233497 	0 -0.217077 	-0.233433 	0 -0.217229 	-0.23337 	0 -0.217381 	-0.233307 	0 -0.21777 	-0.233146 	0 -0.218158 	-0.232986 	0 -0.218546 	-0.232826 	0 -0.218934 	-0.232665 	0 -0.219317 	-0.232507 	0 -0.219848 	-0.232291 	0 -0.22038 	-0.232074 	0 -0.220909 	-0.231856 	0 -0.221438 	-0.231634 	0 -0.221956 	-0.231416 	0 -0.222326 	-0.231263 	0 -0.222695 	-0.231111 	0 -0.223064 	-0.230958 	0 -0.223433 	-0.230805 	0 -0.223806 	-0.23065 	0 -0.223952 	-0.23059 	0 -0.224099 	-0.23053 	0 -0.224246 	-0.23047 	0 -0.224393 	-0.230409 	0 -0.224539 	-0.23035 	0 -0.225053 	-0.230143 	0 -0.225564 	-0.229932 	0 -0.226075 	-0.229721 	0 -0.226585 	-0.229509 	0 -0.227086 	-0.229301 	0 -0.227586 	-0.229097 	0 -0.228085 	-0.228893 	0 -0.228584 	-0.228689 	0 -0.229083 	-0.228484 	0 -0.229571 	-0.228278 	0 -0.229719 	-0.228217 	0 -0.229867 	-0.228155 	0 -0.230016 	-0.228094 	0 -0.230164 	-0.228033 	0 -0.230313 	-0.227971 	0 -0.230655 	-0.227831 	0 -0.230997 	-0.227691 	0 -0.23134 	-0.227551 	0 -0.231681 	-0.227411 	0 -0.23202 	-0.227272 	0 -0.232503 	-0.227078 	0 -0.232987 	-0.226884 	0 -0.233468 	-0.226685 	0 -0.233948 	-0.226485 	0 -0.234422 	-0.226288 	0 -0.234893 	-0.226096 	0 -0.235364 	-0.225904 	0 -0.235834 	-0.225711 	0 -0.236304 	-0.225519 	0 -0.236767 	-0.225328 	0 -0.236792 	-0.225317 	0 -0.236818 	-0.225306 	0 -0.236844 	-0.225296 	0 -0.23687 	-0.225285 	0 -0.236896 	-0.225274 	0 -0.237336 	-0.225095 	0 -0.237776 	-0.224916 	0 -0.238216 	-0.224737 	0 -0.238655 	-0.224557 	0 -0.239088 	-0.22438 	0 -0.239545 	-0.224197 	0 -0.240001 	-0.224014 	0 -0.240456 	-0.223829 	0 -0.24091 	-0.22364 	0 -0.241358 	-0.223454 	0 -0.241794 	-0.223276 	0 -0.242231 	-0.223098 	0 -0.242667 	-0.22292 	0 -0.243102 	-0.222742 	0 -0.243544 	-0.222561 	0 -0.24355 	-0.222559 	0 -0.243555 	-0.222557 	0 -0.243561 	-0.222554 	0 -0.243567 	-0.222552 	0 -0.243573 	-0.222549 	0 -0.244015 	-0.222371 	0 -0.244456 	-0.222192 	0 -0.244897 	-0.222013 	0 -0.245337 	-0.221833 	0 -0.245772 	-0.221656 	0 -0.246204 	-0.221484 	0 -0.246635 	-0.221312 	0 -0.247065 	-0.221137 	0 -0.247494 	-0.220959 	0 -0.247918 	-0.220783 	0 -0.248339 	-0.220613 	0 -0.24876 	-0.220442 	0 -0.24918 	-0.220271 	0 -0.249599 	-0.2201 	0 -0.250014 	-0.21993 	0 -0.250059 	-0.219911 	0 -0.250105 	-0.219892 	0 -0.250152 	-0.219873 	0 -0.250198 	-0.219854 	0 -0.250244 	-0.219834 	0 -0.250615 	-0.219685 	0 -0.250985 	-0.219535 	0 -0.251356 	-0.219386 	0 -0.251725 	-0.219236 	0 -0.252092 	-0.219087 	0 -0.252501 	-0.218926 	0 -0.252909 	-0.218764 	0 -0.253316 	-0.218596 	0 -0.253723 	-0.218429 	0 -0.254125 	-0.218262 	0 -0.254523 	-0.218102 	0 -0.254922 	-0.217941 	0 -0.25532 	-0.217781 	0 -0.255717 	-0.21762 	0 -0.25611 	-0.217455 	0 -0.256283 	-0.217383 	0 -0.256458 	-0.217312 	0 -0.256632 	-0.21724 	0 -0.256807 	-0.217168 	0 -0.256982 	-0.217096 	0 -0.257199 	-0.217009 	0 -0.257416 	-0.216921 	0 -0.257633 	-0.216834 	0 -0.25785 	-0.216747 	0 -0.258066 	-0.21666 	0 -0.258454 	-0.216509 	0 -0.25884 	-0.216352 	0 -0.259226 	-0.216194 	0 -0.259612 	-0.216035 	0 -0.259994 	-0.215879 	0 -0.260371 	-0.215728 	0 -0.260749 	-0.215577 	0 -0.261127 	-0.215426 	0 -0.261502 	-0.215269 	0 -0.261875 	-0.215113 	0 -0.262243 	-0.214963 	0 -0.262611 	-0.214813 	0 -0.262979 	-0.214662 	0 -0.263346 	-0.214512 	0 -0.263711 	-0.214363 	0 -0.263716 	-0.21436 	0 -0.263723 	-0.214357 	0 -0.263729 	-0.214355 	0 -0.263735 	-0.214352 	0 -0.263741 	-0.21435 	0 -0.264101 	-0.214204 	0 -0.264462 	-0.214058 	0 -0.264823 	-0.213912 	0 -0.265182 	-0.213766 	0 -0.26554 	-0.213621 	0 -0.265898 	-0.21348 	0 -0.266257 	-0.213337 	0 -0.266614 	-0.213189 	0 -0.266971 	-0.213041 	0 -0.267325 	-0.212894 	0 -0.267674 	-0.212753 	0 -0.268024 	-0.212612 	0 -0.268373 	-0.212471 	0 -0.268721 	-0.212327 	0 -0.269066 	-0.21218 	0 -0.26935 	-0.212062 	0 -0.269635 	-0.211945 	0 -0.269919 	-0.211827 	0 -0.270203 	-0.21171 	0 -0.27049 	-0.211591 	0 -0.270545 	-0.211568 	0 -0.270601 	-0.211546 	0 -0.270658 	-0.211523 	0 -0.270714 	-0.2115 	0 -0.270771 	-0.211478 	0 -0.271111 	-0.211341 	0 -0.271451 	-0.211202 	0 -0.27179 	-0.211063 	0 -0.272129 	-0.210923 	0 -0.272467 	-0.210785 	0 -0.272798 	-0.210653 	0 -0.27313 	-0.210521 	0 -0.273461 	-0.210382 	0 -0.273792 	-0.210243 	0 -0.27412 	-0.210104 	0 -0.274443 	-0.209972 	0 -0.274767 	-0.209841 	0 -0.27509 	-0.209709 	0 -0.275412 	-0.209573 	0 -0.275732 	-0.209435 	0 -0.276025 	-0.209312 	0 -0.276319 	-0.209189 	0 -0.276612 	-0.209066 	0 -0.276905 	-0.208943 	0 -0.277201 	-0.208819 	0 -0.277222 	-0.20881 	0 -0.277243 	-0.208802 	0 -0.277263 	-0.208793 	0 -0.277284 	-0.208785 	0 -0.277306 	-0.208776 	0 -0.277621 	-0.208647 	0 -0.277936 	-0.208517 	0 -0.278251 	-0.208386 	0 -0.278565 	-0.208256 	0 -0.278878 	-0.208126 	0 -0.279185 	-0.208003 	0 -0.279492 	-0.207877 	0 -0.279799 	-0.207746 	0 -0.280105 	-0.207616 	0 -0.28041 	-0.207486 	0 -0.280709 	-0.207363 	0 -0.281008 	-0.207239 	0 -0.281307 	-0.207116 	0 -0.281605 	-0.206986 	0 -0.281902 	-0.206856 	0 -0.282193 	-0.206732 	0 -0.282485 	-0.206609 	0 -0.282776 	-0.206485 	0 -0.283066 	-0.206361 	0 -0.283356 	-0.206235 	0 -0.283451 	-0.206193 	0 -0.283547 	-0.206151 	0 -0.283642 	-0.20611 	0 -0.283738 	-0.206068 	0 -0.283835 	-0.206026 	0 -0.284027 	-0.205945 	0 -0.28422 	-0.205865 	0 -0.284413 	-0.205784 	0 -0.284605 	-0.205703 	0 -0.284798 	-0.205623 	0 -0.285082 	-0.205508 	0 -0.285366 	-0.205386 	0 -0.28565 	-0.205264 	0 -0.285934 	-0.205142 	0 -0.286216 	-0.205021 	0 -0.286493 	-0.204906 	0 -0.286769 	-0.204791 	0 -0.287046 	-0.204671 	0 -0.287322 	-0.204549 	0 -0.287597 	-0.204428 	0 -0.287866 	-0.204313 	0 -0.288135 	-0.204198 	0 -0.288404 	-0.204084 	0 -0.288673 	-0.203966 	0 -0.288941 	-0.203844 	0 -0.289202 	-0.203729 	0 -0.289464 	-0.203615 	0 -0.289726 	-0.2035 	0 -0.289987 	-0.203385 	0 -0.290248 	-0.20327 	0 -0.290267 	-0.203261 	0 -0.290287 	-0.203252 	0 -0.290307 	-0.203243 	0 -0.290327 	-0.203235 	0 -0.290347 	-0.203226 	0 -0.290589 	-0.203122 	0 -0.290831 	-0.203019 	0 -0.291074 	-0.202915 	0 -0.291316 	-0.202812 	0 -0.291558 	-0.202708 	0 -0.291813 	-0.202604 	0 -0.292069 	-0.202494 	0 -0.292325 	-0.202382 	0 -0.29258 	-0.20227 	0 -0.292835 	-0.202159 	0 -0.293083 	-0.202056 	0 -0.293331 	-0.201952 	0 -0.29358 	-0.201844 	0 -0.293829 	-0.201733 	0 -0.294077 	-0.201623 	0 -0.294318 	-0.20152 	0 -0.294559 	-0.201418 	0 -0.2948 	-0.201316 	0 -0.295042 	-0.20121 	0 -0.295283 	-0.201101 	0 -0.295517 	-0.201 	0 -0.295752 	-0.200899 	0 -0.295986 	-0.200799 	0 -0.29622 	-0.200698 	0 -0.296455 	-0.200596 	0 -0.296497 	-0.200577 	0 -0.29654 	-0.200558 	0 -0.296584 	-0.20054 	0 -0.296628 	-0.200521 	0 -0.296672 	-0.200503 	0 -0.296862 	-0.200425 	0 -0.297053 	-0.200347 	0 -0.297244 	-0.20027 	0 -0.297435 	-0.200192 	0 -0.297627 	-0.200115 	0 -0.297855 	-0.20003 	0 -0.298085 	-0.199937 	0 -0.298314 	-0.199845 	0 -0.298544 	-0.199752 	0 -0.298773 	-0.19966 	0 -0.298994 	-0.19958 	0 -0.299217 	-0.1995 	0 -0.29944 	-0.199412 	0 -0.299663 	-0.199323 	0 -0.299886 	-0.199236 	0 -0.300101 	-0.199161 	0 -0.300316 	-0.199086 	0 -0.300532 	-0.199012 	0 -0.300748 	-0.19893 	0 -0.300965 	-0.198848 	0 -0.301174 	-0.19878 	0 -0.301383 	-0.198713 	0 -0.301592 	-0.198646 	0 -0.301801 	-0.198579 	0 -0.302012 	-0.198506 	0 -0.302155 	-0.198464 	0 -0.302299 	-0.198423 	0 -0.302443 	-0.198382 	0 -0.302587 	-0.198341 	0 -0.302733 	-0.198301 	0 -0.302793 	-0.198284 	0 -0.302854 	-0.198268 	0 -0.302915 	-0.198252 	0 -0.302976 	-0.198237 	0 -0.303039 	-0.198221 	0 -0.303243 	-0.198181 	0 -0.303448 	-0.198138 	0 -0.303654 	-0.198095 	0 -0.303859 	-0.198052 	0 -0.304065 	-0.198011 	0 -0.304262 	-0.197991 	0 -0.304461 	-0.197967 	0 -0.304661 	-0.197939 	0 -0.30486 	-0.197911 	0 -0.30506 	-0.197884 	0 -0.305251 	-0.197884 	0 -0.305443 	-0.197884 	0 -0.305636 	-0.197879 	0 -0.30583 	-0.19787 	0 -0.306024 	-0.197861 	0 -0.306209 	-0.197884 	0 -0.306395 	-0.197908 	0 -0.306581 	-0.197931 	0 -0.306768 	-0.197949 	0 -0.306957 	-0.197963 	0 -0.307137 	-0.198014 	0 -0.307317 	-0.198066 	0 -0.307497 	-0.198118 	0 -0.307678 	-0.19817 	0 -0.30786 	-0.198217 	0 -0.307972 	-0.198271 	0 -0.308085 	-0.198326 	0 -0.308198 	-0.198382 	0 -0.30831 	-0.198437 	0 -0.308424 	-0.198495 	0 -0.308488 	-0.198525 	0 -0.308553 	-0.198557 	0 -0.308618 	-0.198589 	0 -0.308683 	-0.198622 	0 -0.30875 	-0.198655 	0 -0.308925 	-0.19879 	0 -0.309103 	-0.198922 	0 -0.309281 	-0.199054 	0 -0.309459 	-0.199186 	0 -0.309638 	-0.19932 	0 -0.309806 	-0.199512 	0 -0.309977 	-0.199697 	0 -0.31015 	-0.199879 	0 -0.310322 	-0.20006 	0 -0.310497 	-0.200243 	0 -0.310659 	-0.200495 	0 -0.310822 	-0.200748 	0 -0.310989 	-0.200992 	0 -0.311156 	-0.201231 	0 -0.311325 	-0.201473 	0 -0.311482 	-0.201793 	0 -0.31164 	-0.202116 	0 -0.311798 	-0.202439 	0 -0.31196 	-0.20275 	0 -0.312124 	-0.203061 	0 -0.312275 	-0.203461 	0 -0.312428 	-0.203865 	0 -0.312581 	-0.204268 	0 -0.312734 	-0.204671 	0 -0.312893 	-0.205065 	0 -0.313021 	-0.205499 	0 -0.313151 	-0.205936 	0 -0.313281 	-0.206373 	0 -0.313412 	-0.206809 	0 -0.313542 	-0.207244 	0 -0.313561 	-0.207304 	0 -0.31358 	-0.207365 	0 -0.313599 	-0.207425 	0 -0.313618 	-0.207487 	0 -0.313639 	-0.207552 	0 -0.313787 	-0.208161 	0 -0.313938 	-0.208771 	0 -0.314089 	-0.20938 	0 -0.314241 	-0.20999 	0 -0.314396 	-0.210607 	0 -0.314535 	-0.211358 	0 -0.31468 	-0.21209 	0 -0.314827 	-0.21282 	0 -0.314974 	-0.21355 	0 -0.315124 	-0.214291 	0 -0.315257 	-0.215179 	0 -0.315393 	-0.216072 	0 -0.315534 	-0.216938 	0 -0.315677 	-0.217803 	0 -0.315823 	-0.218683 	0 -0.315951 	-0.219724 	0 -0.316081 	-0.220771 	0 -0.316213 	-0.221816 	0 -0.316351 	-0.222832 	0 -0.316493 	-0.223866 	0 -0.316616 	-0.225078 	0 -0.316741 	-0.226294 	0 -0.316867 	-0.227508 	0 -0.316995 	-0.228721 	0 -0.317133 	-0.229927 	0 -0.317251 	-0.231324 	0 -0.317371 	-0.232725 	0 -0.317493 	-0.234125 	0 -0.317616 	-0.235522 	0 -0.317742 	-0.236932 	0 -0.317742 	-0.236936 	0 -0.317743 	-0.23694 	0 -0.317743 	-0.236944 	0 -0.317743 	-0.236947 	0 -0.317744 	-0.236951 	0 -0.317866 	-0.238565 	0 -0.31799 	-0.240182 	0 -0.318117 	-0.241797 	0 -0.318244 	-0.243408 	0 -0.318378 	-0.245062 	0 -0.318487 	-0.246937 	0 -0.318606 	-0.248774 	0 -0.318728 	-0.250605 	0 -0.318851 	-0.252432 	0 -0.318981 	-0.254312 	0 -0.319084 	-0.256423 	0 -0.319191 	-0.258536 	0 -0.319307 	-0.260603 	0 -0.319427 	-0.262659 	0 -0.319553 	-0.264781 	0 -0.319651 	-0.267139 	0 -0.319752 	-0.2695 	0 -0.319855 	-0.271853 	0 -0.319968 	-0.274164 	0 -0.320091 	-0.276542 	0 -0.320183 	-0.279159 	0 -0.320279 	-0.281776 	0 -0.320378 	-0.284385 	0 -0.320479 	-0.286985 	0 -0.320593 	-0.289659 	0 -0.32063 	-0.290879 	0 -0.320668 	-0.292106 	0 -0.3207