# vtk DataFile Version 2.0
track0
ASCII
DATASET POLYDATA
POINTS 12114 float
-0.0205 0.001 1e-05
-0.0204919 0.0011 1e-05
-0.0204836 0.00119999 1e-05
-0.0204752 0.00129997 1e-05
-0.0204667 0.00139993 1e-05
-0.020458 0.0015 1e-05
-0.0204492 0.0016 1e-05
-0.0204402 0.00169998 1e-05
-0.0204311 0.00179995 1e-05
-0.0204218 0.00189991 1e-05
-0.0204123 0.002 1e-05
-0.0204026 0.0021 1e-05
-0.0203928 0.00219998 1e-05
-0.0203827 0.00229994 1e-05
-0.0203725 0.00239988 1e-05
-0.020362 0.0025 1e-05
-0.0203513 0.0026 1e-05
-0.0203404 0.00269998 1e-05
-0.0203293 0.00279993 1e-05
-0.0203179 0.00289985 1e-05
-0.0203063 0.003 1e-05
-0.0203021 0.00303541 1e-05
-0.0202979 0.00307083 1e-05
-0.0202937 0.00310623 1e-05
-0.0202894 0.00314164 1e-05
-0.0202854 0.00317454 1e-05
-0.0202774 0.00323963 1e-05
-0.0202694 0.00330471 1e-05
-0.0202612 0.00336978 1e-05
-0.0202529 0.00343483 1e-05
-0.0202445 0.0035 1e-05
-0.0202315 0.0036 1e-05
-0.0202181 0.00369997 1e-05
-0.0202046 0.0037999 1e-05
-0.0201908 0.00389979 1e-05
-0.0201767 0.004 1e-05
-0.0201623 0.0041 1e-05
-0.0201477 0.00419996 1e-05
-0.0201328 0.00429988 1e-05
-0.0201176 0.00439977 1e-05
-0.0201022 0.0045 1e-05
-0.0200865 0.0046 1e-05
-0.0200705 0.00469996 1e-05
-0.0200542 0.00479987 1e-05
-0.0200377 0.00489974 1e-05
-0.0200223 0.00499087 1e-05
-0.020022 0.00499269 1e-05
-0.0200217 0.00499452 1e-05
-0.0200214 0.00499635 1e-05
-0.0200211 0.00499817 1e-05
-0.0200208 0.005 1e-05
-0.0200036 0.0051 1e-05
-0.0199862 0.00519995 1e-05
-0.0199686 0.00529985 1e-05
-0.0199506 0.00539971 1e-05
-0.0199323 0.0055 1e-05
-0.0199137 0.0056 1e-05
-0.0198948 0.00569995 1e-05
-0.0198757 0.00579984 1e-05
-0.0198563 0.00589968 1e-05
-0.0198365 0.006 1e-05
-0.0198214 0.00607492 1e-05
-0.0198063 0.00614981 1e-05
-0.0197909 0.00622467 1e-05
-0.0197754 0.00629949 1e-05
-0.0197614 0.00636653 1e-05
-0.0197557 0.00639323 1e-05
-0.01975 0.00641991 1e-05
-0.0197444 0.0064466 1e-05
-0.0197387 0.00647328 1e-05
-0.0197329 0.0065 1e-05
-0.0197114 0.0066 1e-05
-0.0196895 0.00669994 1e-05
-0.0196674 0.00679981 1e-05
-0.0196449 0.00689961 1e-05
-0.019622 0.007 1e-05
-0.0195989 0.0071 1e-05
-0.0195755 0.00719993 1e-05
-0.0195518 0.00729979 1e-05
-0.0195278 0.00739958 1e-05
-0.0195034 0.0075 1e-05
-0.0195032 0.00750069 1e-05
-0.019503 0.00750138 1e-05
-0.0195029 0.00750207 1e-05
-0.0195027 0.00750277 1e-05
-0.0195025 0.00750346 1e-05
-0.019478 0.00760276 1e-05
-0.0194532 0.007702 1e-05
-0.0194281 0.00780116 1e-05
-0.0194026 0.00790024 1e-05
-0.0193767 0.008 1e-05
-0.0193505 0.00809965 1e-05
-0.019324 0.00819923 1e-05
-0.0192972 0.00829872 1e-05
-0.0192701 0.00839813 1e-05
-0.0192457 0.00848645 1e-05
-0.019245 0.00848916 1e-05
-0.0192442 0.00849187 1e-05
-0.0192435 0.00849458 1e-05
-0.0192427 0.00849729 1e-05
-0.019242 0.0085 1e-05
-0.019214 0.0086 1e-05
-0.0191858 0.00869991 1e-05
-0.0191572 0.00879974 1e-05
-0.0191284 0.00889947 1e-05
-0.0190989 0.009 1e-05
-0.0190773 0.00907285 1e-05
-0.0190556 0.00914565 1e-05
-0.0190337 0.00921839 1e-05
-0.0190116 0.00929109 1e-05
-0.018991 0.00935829 1e-05
-0.0189823 0.00938663 1e-05
-0.0189735 0.00941497 1e-05
-0.0189647 0.00944329 1e-05
-0.0189559 0.00947161 1e-05
-0.018947 0.0095 1e-05
-0.0189157 0.0096 1e-05
-0.018884 0.0096999 1e-05
-0.0188521 0.0097997 1e-05
-0.0188198 0.00989939 1e-05
-0.0187868 0.01 1e-05
-0.0187771 0.0100293 1e-05
-0.0187674 0.0100585 1e-05
-0.0187577 0.0100877 1e-05
-0.0187479 0.010117 1e-05
-0.0187384 0.0101453 1e-05
-0.0187145 0.0102163 1e-05
-0.0186905 0.0102872 1e-05
-0.0186663 0.010358 1e-05
-0.018642 0.0104287 1e-05
-0.0186173 0.0105 1e-05
-0.0185914 0.0105742 1e-05
-0.0185653 0.0106483 1e-05
-0.018539 0.0107224 1e-05
-0.0185126 0.0107964 1e-05
-0.0184878 0.0108653 1e-05
-0.018478 0.0108922 1e-05
-0.0184682 0.0109192 1e-05
-0.0184584 0.0109461 1e-05
-0.0184485 0.010973 1e-05
-0.0184386 0.011 1e-05
-0.0184019 0.0111 1e-05
-0.0183648 0.0111999 1e-05
-0.0183273 0.0112996 1e-05
-0.0182895 0.0113993 1e-05
-0.018251 0.0115 1e-05
-0.0182486 0.0115061 1e-05
-0.0182462 0.0115122 1e-05
-0.0182439 0.0115182 1e-05
-0.0182415 0.0115243 1e-05
-0.0182392 0.0115304 1e-05
-0.0182027 0.0116243 1e-05
-0.018166 0.0117181 1e-05
-0.0181289 0.0118118 1e-05
-0.0180916 0.0119054 1e-05
-0.0180535 0.012 1e-05
-0.0180413 0.01203 1e-05
-0.0180291 0.0120599 1e-05
-0.0180169 0.0120899 1e-05
-0.0180046 0.0121198 1e-05
-0.0179926 0.012149 1e-05
-0.0179636 0.0122192 1e-05
-0.0179345 0.0122893 1e-05
-0.0179052 0.0123594 1e-05
-0.0178757 0.0124294 1e-05
-0.0178458 0.0125 1e-05
-0.0178262 0.0125459 1e-05
-0.0178066 0.0125917 1e-05
-0.0177869 0.0126375 1e-05
-0.0177671 0.0126832 1e-05
-0.017748 0.0127273 1e-05
-0.0177242 0.0127818 1e-05
-0.0177003 0.0128363 1e-05
-0.0176763 0.0128908 1e-05
-0.0176522 0.0129452 1e-05
-0.0176278 0.013 1e-05
-0.0176033 0.0130547 1e-05
-0.0175787 0.0131094 1e-05
-0.017554 0.013164 1e-05
-0.0175292 0.0132186 1e-05
-0.0175053 0.0132709 1e-05
-0.0174843 0.0133167 1e-05
-0.0174632 0.0133625 1e-05
-0.017442 0.0134082 1e-05
-0.0174207 0.013454 1e-05
-0.0173993 0.0135 1e-05
-0.0173723 0.0135574 1e-05
-0.0173453 0.0136147 1e-05
-0.0173181 0.013672 1e-05
-0.0172909 0.0137293 1e-05
-0.0172647 0.013784 1e-05
-0.0172439 0.0138272 1e-05
-0.017223 0.0138704 1e-05
-0.0172021 0.0139135 1e-05
-0.0171811 0.0139566 1e-05
-0.0171598 0.014 1e-05
-0.0171331 0.0140545 1e-05
-0.0171062 0.014109 1e-05
-0.0170792 0.0141635 1e-05
-0.0170521 0.0142178 1e-05
-0.0170259 0.01427 1e-05
-0.0170028 0.014316 1e-05
-0.0169795 0.014362 1e-05
-0.0169562 0.0144079 1e-05
-0.0169328 0.0144538 1e-05
-0.0169092 0.0145 1e-05
-0.0168852 0.0145467 1e-05
-0.0168611 0.0145934 1e-05
-0.0168369 0.0146401 1e-05
-0.0168126 0.0146867 1e-05
-0.0167891 0.0147317 1e-05
-0.0167609 0.0147854 1e-05
-0.0167327 0.014839 1e-05
-0.0167043 0.0148925 1e-05
-0.0166758 0.014946 1e-05
-0.016647 0.015 1e-05
-0.0166284 0.0150345 1e-05
-0.0166098 0.015069 1e-05
-0.0165912 0.0151035 1e-05
-0.0165725 0.0151379 1e-05
-0.0165542 0.0151715 1e-05
-0.0165183 0.0152372 1e-05
-0.0164823 0.0153028 1e-05
-0.0164461 0.0153684 1e-05
-0.0164098 0.0154338 1e-05
-0.0163728 0.0155 1e-05
-0.0163625 0.0155184 1e-05
-0.0163521 0.0155368 1e-05
-0.0163418 0.0155551 1e-05
-0.0163314 0.0155735 1e-05
-0.0163212 0.0155916 1e-05
-0.0162749 0.0156732 1e-05
-0.0162285 0.0157547 1e-05
-0.0161817 0.015836 1e-05
-0.0161347 0.0159172 1e-05
-0.01609 0.0159939 1e-05
-0.0160893 0.0159952 1e-05
-0.0160886 0.0159964 1e-05
-0.0160879 0.0159976 1e-05
-0.0160872 0.0159988 1e-05
-0.0160865 0.016 1e-05
-0.0160413 0.0160769 1e-05
-0.015996 0.0161537 1e-05
-0.0159504 0.0162303 1e-05
-0.0159045 0.0163068 1e-05
-0.0158607 0.0163794 1e-05
-0.0158461 0.0164035 1e-05
-0.0158315 0.0164276 1e-05
-0.0158168 0.0164517 1e-05
-0.0158021 0.0164758 1e-05
-0.0157873 0.0165 1e-05
-0.0157565 0.0165502 1e-05
-0.0157256 0.0166004 1e-05
-0.0156946 0.0166505 1e-05
-0.0156635 0.0167005 1e-05
-0.0156333 0.016749 1e-05
-0.0156019 0.0167992 1e-05
-0.0155703 0.0168493 1e-05
-0.0155387 0.0168994 1e-05
-0.0155069 0.0169494 1e-05
-0.0154747 0.017 1e-05
-0.0154613 0.0170209 1e-05
-0.0154479 0.0170418 1e-05
-0.0154344 0.0170627 1e-05
-0.015421 0.0170836 1e-05
-0.0154077 0.0171042 1e-05
-0.015363 0.0171735 1e-05
-0.015318 0.0172427 1e-05
-0.0152729 0.0173117 1e-05
-0.0152276 0.0173807 1e-05
-0.0151839 0.0174467 1e-05
-0.0151768 0.0174573 1e-05
-0.0151697 0.017468 1e-05
-0.0151626 0.0174787 1e-05
-0.0151555 0.0174893 1e-05
-0.0151484 0.0175 1e-05
-0.0151111 0.0175558 1e-05
-0.0150737 0.0176115 1e-05
-0.0150362 0.0176672 1e-05
-0.0149985 0.0177228 1e-05
-0.0149619 0.0177764 1e-05
-0.0149314 0.0178212 1e-05
-0.0149007 0.0178658 1e-05
-0.01487 0.0179104 1e-05
-0.0148391 0.017955 1e-05
-0.0148079 0.018 1e-05
-0.0147946 0.018019 1e-05
-0.0147814 0.0180379 1e-05
-0.0147682 0.0180569 1e-05
-0.0147549 0.0180758 1e-05
-0.0147417 0.0180946 1e-05
-0.0146981 0.0181567 1e-05
-0.0146542 0.0182188 1e-05
-0.0146102 0.0182807 1e-05
-0.0145661 0.0183426 1e-05
-0.0145233 0.0184022 1e-05
-0.0145092 0.0184217 1e-05
-0.0144951 0.0184413 1e-05
-0.014481 0.0184608 1e-05
-0.0144668 0.0184804 1e-05
-0.0144526 0.0185 1e-05
-0.0144234 0.0185401 1e-05
-0.0143941 0.0185802 1e-05
-0.0143648 0.0186203 1e-05
-0.0143355 0.0186602 1e-05
-0.0143067 0.0186993 1e-05
-0.0142637 0.0187574 1e-05
-0.0142206 0.0188155 1e-05
-0.0141773 0.0188734 1e-05
-0.0141339 0.0189312 1e-05
-0.0140917 0.0189872 1e-05
-0.0140898 0.0189898 1e-05
-0.0140879 0.0189923 1e-05
-0.0140859 0.0189949 1e-05
-0.014084 0.0189974 1e-05
-0.014082 0.019 1e-05
-0.0140413 0.0190537 1e-05
-0.0140005 0.0191073 1e-05
-0.0139596 0.0191608 1e-05
-0.0139186 0.0192142 1e-05
-0.0138786 0.019266 1e-05
-0.0138423 0.0193128 1e-05
-0.0138059 0.0193595 1e-05
-0.0137695 0.0194062 1e-05
-0.0137329 0.0194528 1e-05
-0.0136957 0.0195 1e-05
-0.01369 0.0195072 1e-05
-0.0136843 0.0195145 1e-05
-0.0136785 0.0195217 1e-05
-0.0136728 0.019529 1e-05
-0.0136671 0.0195362 1e-05
-0.0136251 0.0195891 1e-05
-0.0135831 0.0196419 1e-05
-0.0135409 0.0196947 1e-05
-0.0134986 0.0197473 1e-05
-0.0134573 0.0197985 1e-05
-0.0134247 0.0198388 1e-05
-0.0133919 0.019879 1e-05
-0.0133592 0.0199192 1e-05
-0.0133263 0.0199594 1e-05
-0.0132929 0.02 1e-05
-0.0132842 0.0200106 1e-05
-0.0132755 0.0200212 1e-05
-0.0132667 0.0200318 1e-05
-0.013258 0.0200424 1e-05
-0.0132493 0.0200529 1e-05
-0.013208 0.0201028 1e-05
-0.0131666 0.0201526 1e-05
-0.0131251 0.0202023 1e-05
-0.0130835 0.020252 1e-05
-0.0130429 0.0203003 1e-05
-0.0130091 0.0203403 1e-05
-0.0129753 0.0203801 1e-05
-0.0129415 0.02042 1e-05
-0.0129075 0.0204597 1e-05
-0.0128731 0.0205 1e-05
-0.0128661 0.0205081 1e-05
-0.0128591 0.0205163 1e-05
-0.0128521 0.0205244 1e-05
-0.0128451 0.0205326 1e-05
-0.0128381 0.0205407 1e-05
-0.0127975 0.0205878 1e-05
-0.0127568 0.0206349 1e-05
-0.012716 0.0206819 1e-05
-0.0126751 0.0207288 1e-05
-0.012635 0.0207746 1e-05
-0.0125954 0.0208197 1e-05
-0.0125558 0.0208647 1e-05
-0.012516 0.0209096 1e-05
-0.0124762 0.0209545 1e-05
-0.0124356 0.021 1e-05
-0.0124352 0.0210005 1e-05
-0.0124348 0.0210009 1e-05
-0.0124344 0.0210014 1e-05
[...]
POINT_DATA 12114
 FIELD attributes 2
p 1 12114 float
-0.00380735 -0.00416391 -0.00451931 -0.00487447 -0.00522961 -0.00558557 -0.0059362 -0.00628602 -0.00663447 -0.00698276 -0.00733078 -0.00766283 -0.00799471 -0.00832658 -0.00865726 -0.00898815 -0.00931644 -0.00964461 -0.00997276 -0.0103009 -0.010629 -0.0107434 -0.0108575 -0.0109717 -0.0110858 -0.0111916 -0.0114018 -0.0116118 -0.0118218 -0.0120318 -0.012242 -0.0125586 -0.012874 -0.0131894 -0.0135048 -0.0138212 -0.0141316 -0.014442 -0.0147522 -0.0150615 -0.0153719 -0.015677 -0.015982 -0.016287 -0.016592 -0.0168703 -0.016876 -0.0168816 -0.0168872 -0.0168927 -0.0168983 -0.017199 -0.0174994 -0.0177997 -0.0181 -0.0184015 -0.0186985 -0.0189953 -0.0192918 -0.0195877 -0.0198851 -0.0201048 -0.0203243 -0.0205438 -0.0207633 -0.0209597 -0.0210381 -0.0211164 -0.0211947 -0.021273 -0.0213514 -0.0216414 -0.0219308 -0.0222202 -0.0225095 -0.0228007 -0.0230878 -0.0233749 -0.0236619 -0.0239488 -0.0242376 -0.0242396 -0.0242416 -0.0242435 -0.0242455 -0.0242475 -0.0245299 -0.0248121 -0.0250943 -0.0253763 -0.0256603 -0.0259422 -0.0262239 -0.0265054 -0.0267869 -0.0270369 -0.0270445 -0.0270522 -0.0270599 -0.0270675 -0.0270752 -0.0273558 -0.0276363 -0.0279167 -0.028197 -0.0284797 -0.0286836 -0.0288874 -0.0290912 -0.0292949 -0.0294833 -0.0295628 -0.0296421 -0.0297214 -0.0298006 -0.0298799 -0.0301588 -0.0304373 -0.0307156 -0.0309936 -0.0312741 -0.0313558 -0.0314372 -0.0315187 -0.0316001 -0.031679 -0.0318761 -0.0320731 -0.0322701 -0.0324669 -0.0326653 -0.0328715 -0.0330776 -0.0332836 -0.0334896 -0.0336816 -0.0337565 -0.0338312 -0.0339059 -0.0339806 -0.0340553 -0.0343333 -0.0346109 -0.0348882 -0.0351654 -0.0354455 -0.0354626 -0.0354796 -0.0354965 -0.0355135 -0.0355302 -0.0357907 -0.0360511 -0.0363113 -0.0365713 -0.0368344 -0.036918 -0.0370017 -0.0370854 -0.037169 -0.0372506 -0.0374458 -0.0376407 -0.0378355 -0.0380301 -0.0382264 -0.0383548 -0.038483 -0.0386111 -0.0387392 -0.0388623 -0.0390138 -0.0391654 -0.0393169 -0.0394683 -0.0396209 -0.0397744 -0.0399278 -0.0400812 -0.0402344 -0.0403812 -0.040509 -0.0406366 -0.0407641 -0.0408915 -0.0410196 -0.0411812 -0.0413424 -0.0415035 -0.0416644 -0.0418181 -0.0419384 -0.0420588 -0.0421791 -0.0422993 -0.0424204 -0.042574 -0.0427277 -0.0428812 -0.0430347 -0.0431821 -0.0433106 -0.0434389 -0.0435671 -0.0436952 -0.0438242 -0.0439565 -0.0440884 -0.0442203 -0.044352 -0.044479 -0.0446288 -0.0447786 -0.0449282 -0.0450776 -0.0452286 -0.0453262 -0.045424 -0.0455218 -0.0456195 -0.0457151 -0.0458988 -0.0460823 -0.0462656 -0.0464486 -0.0466337 -0.0466862 -0.0467384 -0.0467905 -0.0468427 -0.0468939 -0.0471222 -0.0473501 -0.0475776 -0.0478047 -0.0480193 -0.0480227 -0.0480262 -0.0480294 -0.0480327 -0.0480359 -0.0482511 -0.0484659 -0.0486802 -0.0488942 -0.0490972 -0.049163 -0.0492292 -0.0492953 -0.0493613 -0.049428 -0.0495684 -0.0497087 -0.0498487 -0.0499886 -0.0501239 -0.0502614 -0.0503984 -0.0505351 -0.0506717 -0.0508093 -0.0508676 -0.0509259 -0.0509843 -0.0510425 -0.0511001 -0.0512886 -0.0514771 -0.0516651 -0.0518527 -0.0520326 -0.0520607 -0.0520889 -0.0521171 -0.0521453 -0.0521737 -0.0523252 -0.0524759 -0.0526264 -0.0527765 -0.052921 -0.0530383 -0.0531554 -0.0532723 -0.0533889 -0.0535068 -0.0535572 -0.0536082 -0.0536591 -0.05371 -0.0537608 -0.053922 -0.0540828 -0.0542433 -0.0544035 -0.0545578 -0.054606 -0.0546548 -0.0547035 -0.0547522 -0.0548017 -0.0549046 -0.0550072 -0.0551097 -0.0552119 -0.0553117 -0.0554544 -0.0555961 -0.0557373 -0.0558781 -0.0560136 -0.0560196 -0.0560256 -0.0560315 -0.0560374 -0.0560434 -0.0561719 -0.0563009 -0.0564293 -0.0565574 -0.0566822 -0.0567878 -0.0568934 -0.0569986 -0.0571035 -0.0572099 -0.0572274 -0.0572443 -0.0572611 -0.0572779 -0.057294 -0.0574105 -0.0575269 -0.0576429 -0.0577584 -0.0578703 -0.0579531 -0.0580348 -0.0581162 -0.0581973 -0.0582784 -0.0583004 -0.0583227 -0.058345 -0.0583672 -0.0583897 -0.058486 -0.0585837 -0.058681 -0.0587778 -0.0588729 -0.058943 -0.0590132 -0.059083 -0.0591525 -0.059223 -0.0592389 -0.0592538 -0.0592686 -0.0592835 -0.0592973 -0.0593756 -0.0594542 -0.0595324 -0.0596101 -0.0596854 -0.0597513 -0.0598157 -0.0598795 -0.0599429 -0.0600058 -0.0600065 -0.0600071 -0.0600078 -0.0600085 -0.0600093 -0.0600674 -0.0601264 -0.060185 -0.0602432 -0.060301 -0.0603464 -0.0603918 -0.0604367 -0.0604813 -0.0605268 -0.0605351 -0.060545 -0.0605548 -0.0605646 -0.0605759 -0.0606037 -0.060631 -0.0606581 -0.060685 -0.060711 -0.0607374 -0.0607618 -0.0607868 -0.0608127 -0.0608361 -0.0608463 -0.0608559 -0.0608653 -0.0608745 -0.0608831 -0.060886 -0.0608906 -0.0608951 -0.0608996 -0.0609058 -0.0609084 -0.0609137 -0.0609186 -0.0609231 -0.0609277 -0.0609174 -0.0609085 -0.0608991 -0.0608893 -0.060884 -0.060877 -0.0608707 -0.0608643 -0.0608579 -0.0608522 -0.0608421 -0.0608301 -0.0608178 -0.0608053 -0.0607909 -0.0607598 -0.0607278 -0.060699 -0.0606698 -0.0606402 -0.0605982 -0.0605538 -0.0605089 -0.0604636 -0.0604171 -0.0604146 -0.0604114 -0.0604082 -0.0604049 -0.0604015 -0.0603501 -0.0603005 -0.0602506 -0.0602002 -0.0601523 -0.0600821 -0.0600123 -0.0599445 -0.0598787 -0.059814 -0.0597319 -0.0596516 -0.059571 -0.05949 -0.0594097 -0.0594088 -0.0594078 -0.0594068 -0.0594057 -0.0594046 -0.0593167 -0.0592263 -0.0591355 -0.0590442 -0.0589514 -0.0588441 -0.0587358 -0.0586305 -0.0585273 -0.0584243 -0.0583059 -0.0581846 -0.0580629 -0.0579408 -0.0578187 -0.0578045 -0.0577896 -0.0577747 -0.0577595 -0.057744 -0.0576256 -0.0575096 -0.0573932 -0.0572765 -0.0571632 -0.0570114 -0.0568604 -0.0567162 -0.0565715 -0.0564288 -0.0562626 -0.0560988 -0.0559346 -0.05577 -0.0556166 -0.0555363 -0.0554568 -0.0553772 -0.0552975 -0.0552182 -0.0551253 -0.0550297 -0.0549339 -0.0548381 -0.05474 -0.0545459 -0.0543589 -0.0541725 -0.0539858 -0.0537998 -0.053594 -0.0533849 -0.0531755 -0.0529744 -0.0527726 -0.0525519 -0.0523303 -0.0521084 -0.051886 -0.0516649 -0.051662 -0.0516578 -0.0516536 -0.0516494 -0.0516452 -0.0514151 -0.0511852 -0.0509549 -0.0507242 -0.0504956 -0.0502352 -0.0499798 -0.0497329 -0.0494858 -0.0492432 -0.0489705 -0.0486979 -0.0484248 -0.0481567 -0.0478973 -0.0476563 -0.0474182 -0.0471798 -0.0469412 -0.046703 -0.046657 -0.0466111 -0.0465651 -0.0465191 -0.0464731 -0.0461751 -0.0458774 -0.0455793 -0.0452808 -0.044981 -0.0446569 -0.0443334 -0.0440225 -0.0437113 -0.0434019 -0.0430655 -0.0427255 -0.0423852 -0.0420512 -0.0417235 -0.0413949 -0.0410661 -0.0407369 -0.0404075 -0.0400745 -0.0400505 -0.0400265 -0.0400025 -0.0399793 -0.0399594 -0.0395907 -0.0392228 -0.0388546 -0.0384861 -0.0381191 -0.0377181 -0.0373264 -0.036945 -0.0365632 -0.0361866 -0.0357734 -0.0353591 -0.0349446 -0.0345458 -0.0341499 -0.0337193 -0.0332914 -0.0328631 -0.0324345 -0.0320198 -0.0318711 -0.0317213 -0.0315715 -0.0314217 -0.0312703 -0.0309809 -0.0306883 -0.0303955 -0.0301026 -0.0298075 -0.0293317 -0.0288756 -0.0284191 -0.0279623 -0.0275088 -0.0270194 -0.0265265 -0.0260484 -0.025576 -0.0251026 -0.0245944 -0.0240872 -0.0235797 -0.0230805 -0.0225977 -0.0220778 -0.0215543 -0.0210306 -0.0205066 -0.0199838 -0.0199408 -0.0198993 -0.0198581 -0.019817 -0.0197758 -0.0192764 -0.0187794 -0.0182822 -0.0177847 -0.0172918 -0.0167138 -0.016154 -0.015598 -0.0150417 -0.014485 -0.013888 -0.0132933 -0.0127138 -0.0121442 -0.0115794 -0.01097 -0.0103571 -0.00974403 -0.0091413 -0.00855343 -0.00792546 -0.00729967 -0.00667363 -0.00604736 -0.00543179 -0.00531301 -0.00519045 -0.00506789 -0.00494425 -0.00481877 -0.00429982 -0.00377721 -0.00325444 -0.00273152 -0.00220661 -0.00151727 -0.00085908 -0.000200672 0.000457959 0.0011111 0.00181478 0.00252254 0.00320123 0.00387835 0.00455712 0.00528137 0.00600247 0.00672378 0.00741867 0.00810301 0.00883853 0.00957842 0.0103185 0.0110588 0.0117766 0.0123147 0.0128494 0.0133843 0.0139192 0.0144533 0.0146754 0.0148947 0.0151139 0.0153332 0.0155493 0.0163267 0.0170983 0.01787 0.0186418 0.0194167 0.0202451 0.0210469 0.0218361 0.0226255 0.0234105 0.0242453 0.025085 0.0259013 0.0267039 0.02751 0.0283722 0.029232 0.0300918 0.0309281 0.0317466 0.0326112 0.0334803 0.0343495 0.0352187 0.0360672 0.0366427 0.0372164 0.0377902 0.0383639 0.0389363 0.0392562 0.039574 0.0398917 0.0402094 0.0405249 0.0414422 0.0423482 0.0432543 0.0441603 0.0450701 0.0460418 0.0469822 0.047909 0.0488356 0.049762 0.050741 0.0517233 0.0526735 0.0536116 0.0545551 0.0555564 0.0565569 0.0575571 0.0585224 0.05948 0.0604907 0.0615047 0.0625184 0.0635319 0.0645157 0.0654242 0.0663324 0.0672402 0.0681478 0.0690442 0.0691717 0.0692993 0.0694266 0.0695538 0.06968 0.0707361 0.0717889 0.0728412 0.073893 0.0749551 0.0760751 0.0771471 0.0782151 0.0792826 0.0803589 0.0814912 0.0826256 0.0837102 0.0847928 0.0858903 0.0870429 0.0881938 0.0893439 0.0904425 0.0915552 0.0927196 0.0938857 0.0950508 0.0962147 0.0973485 0.0985325 0.0997146 0.100896 0.102075 0.10326 0.103264 0.103267 0.10327 0.103273 0.103277 0.104487 0.1057 0.106911 0.108121 0.109363 0.11065 0.111884 0.113114 0.114342 0.115602 0.116905 0.11821 0.119465 0.120711 0.121998 0.123322 0.124646 0.125967 0.127246 0.128553 0.129894 0.131238 0.132579 0.133917 0.135281 0.13586 0.13644 0.137019 0.137598 0.138165 0.138971 0.139776 0.14058 0.141382 0.142204 0.143658 0.145067 0.146473 0.147876 0.149348 0.150844 0.152334 0.153769 0.155194 0.156693 0.15822 0.159747 0.16127 0.162765 0.164313 0.165787 0.167257 0.168722 0.170184 0.171575 0.171706 0.171836 0.171967 0.172098 0.172231 0.173873 0.175508 0.177137 0.178762 0.180497 0.182203 0.183893 0.185527 0.187157 0.188898 0.190564 0.192229 0.193888 0.195528 0.197247 0.198345 0.199445 0.200541 0.201636 0.202704 0.203357 0.204011 0.204664 0.205317 0.20599 0.208027 0.210016 0.211998 0.213973 0.216118 0.218385 0.220643 0.22289 0.225069 0.227422 0.229025 0.230614 0.232197 0.233774 0.235287 0.235827 0.23636 0.236892 0.237424 0.237964 0.241567 0.245168 0.248762 0.252348 0.256021 0.256145 0.256271 0.2564 0.256531 0.256664 0.260748 0.264824 0.268886 0.272936 0.276792 0.277223 0.277659 0.278094 0.27853 0.278979 0.282883 0.28678 0.290666 0.294541 0.298295 0.299719 0.301146 0.302571 0.303995 0.305505 0.308477 0.311442 0.314401 0.317355 0.320255 0.323433 0.326603 0.329767 0.332926 0.336475 0.337695 0.338914 0.340131 0.341348 0.342557 0.347044 0.351518 0.355951 0.360339 0.364636 0.366061 0.367476 0.36889 0.370302 0.371789 0.374628 0.377453 0.380273 0.383089 0.385865 0.389806 0.39372 0.397623 0.40151 0.405286 0.406079 0.406849 0.407618 0.408386 0.409168 0.411615 0.414031 0.416441 0.418845 0.421198 0.423484 0.425726 0.427957 0.430224 0.432428 0.433172 0.433875 0.434573 0.435267 0.436036 0.43642 0.436766 0.437111 0.437455 0.43776 0.437464 0.437245 0.43702 0.436788 0.436513 0.434978 0.433397 0.431809 0.430375 0.428915 0.426248 0.423541 0.420827 0.418109 0.41544 0.414303 0.413134 0.411964 0.410794 0.409438 0.406929 0.404389 0.401849 0.399309 0.396744 0.392076 0.38751 0.382945 0.378382 0.373806 0.368472 0.363185 0.357984 0.352785 0.347575 0.341799 0.336006 0.330301 0.324613 0.318914 0.312876 0.306823 0.300775 0.294734 0.288682 0.282579 0.276466 0.270337 0.264083 0.257822 0.251889 0.24595 0.240013 0.233736 0.227428 0.221958 0.216491 0.211023 0.205031 0.198902 0.194253 0.189613 0.184972 0.179615 0.173962 0.170349 0.166743 0.163135 0.158677 0.153757 0.15091 0.14804 0.145167 0.141436 0.137139 0.13416 0.131101 0.128036 0.124294 0.120038 0.115225 0.110235 0.105235 0.100104 0.094726 0.0849565 0.0748492 0.064731 0.0555662 0.0464833 0.0257139 0.00433783 -0.0170441 -0.0358635 -0.0546718 -0.0943764 -0.134924 -0.175472 -0.212066 -0.249282 -0.309516 -0.370473 -0.431128 -0.488669 -0.546921 -0.616447 -0.686201 -0.755815 -0.824737 -0.893871 -0.964893 -1.03613 -1.10799 -1.18216 -1.25653 -1.33645 -1.41674 -1.4979 -1.58432 -1.67112 -1.73376 -1.79504 -1.85652 -1.92428 -1.99067 -2.01734 -2.0436 -2.06988 -2.09993 -2.12987 -2.139 -2.14783 -2.15668 -2.16661 -2.1764