/*--------------------------------*- C++ -*----------------------------------*\
  =========                 |
  \\      /  F ield         | OpenFOAM: The Open Source CFD Toolbox
   \\    /   O peration     | Website:  https://openfoam.org
    \\  /    A nd           | Version:  6
     \\/     M anipulation  |
\*---------------------------------------------------------------------------*/
FoamFile
{
    version     2.0;
    format      ascii;
    class       volScalarField;
    location    "8";
    object      epsilon;
}
// * * * * * * * * * * * * * * * * * * * * * * * * * * * * * * * * * * * * * //

dimensions      [0 2 -3 0 0 0 0];

internalField   nonuniform List<scalar> 
130000
(
16.6269
16.5714
16.4065
16.1509
15.8255
15.4559
15.0682
14.6859
14.3279
14.0072
13.7314
13.5028
13.3203
13.1803
13.0776
13.0066
12.9618
12.9382
12.9313
12.9382
16.6498
16.5985
16.4351
16.1784
15.8504
15.4775
15.0864
14.7013
14.3411
14.019
13.7424
13.5137
13.3315
13.1919
13.0898
13.0193
12.9749
12.9516
12.945
12.9522
16.6663
16.6175
16.455
16.1975
15.8674
15.4917
15.0978
14.7102
14.348
14.0242
13.7465
13.5171
13.3344
13.1945
13.0921
13.0214
12.9768
12.9533
12.9467
12.954
16.6773
16.629
16.4657
16.2062
15.8741
15.4966
15.1011
14.712
14.3486
14.0238
13.7454
13.5154
13.3322
13.1919
13.0891
13.0181
12.9734
12.9498
12.9433
12.9507
16.684
16.6346
16.4691
16.2075
15.8738
15.4949
15.0985
14.7088
14.3451
14.0204
13.7421
13.5121
13.329
13.1888
13.0863
13.0155
12.9711
12.9479
12.9418
12.9495
16.6879
16.6361
16.4683
16.2052
15.87
15.49
15.0929
14.7029
14.3393
14.0149
13.737
13.5075
13.3251
13.1854
13.0835
13.0133
12.9695
12.9471
12.942
12.9501
16.6909
16.6361
16.466
16.2007
15.8639
15.4828
15.0851
14.695
14.3318
14.008
13.7309
13.5023
13.3207
13.1819
13.0808
13.0113
12.9682
12.9465
12.9423
12.9503
16.693
16.6358
16.4628
16.1952
15.8567
15.4744
15.0763
14.6862
14.3234
14.0004
13.7243
13.4968
13.3163
13.1785
13.0784
13.0097
12.9672
12.9458
12.9416
12.9501
16.6952
16.6353
16.4597
16.1898
15.8494
15.466
15.0672
14.6772
14.3149
13.9928
13.7177
13.4913
13.312
13.1756
13.077
13.0096
12.9679
12.9468
12.9423
12.9515
16.698
16.6353
16.4575
16.1851
15.8427
15.4579
15.0585
14.6685
14.3067
13.9853
13.7113
13.4861
13.308
13.1727
13.0753
13.0087
12.9678
12.9474
12.943
12.9513
16.7018
16.6366
16.4565
16.1812
15.8367
15.4505
15.0504
14.6603
14.2989
13.9783
13.7053
13.4812
13.3042
13.1699
13.0729
13.0074
12.9671
12.947
12.942
12.95
16.7066
16.6387
16.4556
16.1779
15.8313
15.4437
15.0429
14.6526
14.2915
13.9717
13.6997
13.4766
13.3007
13.1675
13.0713
13.0066
12.9667
12.9465
12.9413
12.9497
16.7119
16.6414
16.4552
16.1752
15.8267
15.4376
15.0359
14.6454
14.2847
13.9656
13.6944
13.4724
13.2974
13.1649
13.0691
13.0043
12.965
12.9451
12.941
12.9502
16.7184
16.6454
16.4563
16.1737
15.8229
15.4322
15.0295
14.6387
14.2783
13.9599
13.6897
13.4687
13.2947
13.1629
13.0677
13.0034
12.9642
12.9433
12.9393
12.9489
16.7253
16.65
16.4583
16.1733
15.8199
15.4274
15.0236
14.6325
14.2723
13.9546
13.6853
13.4655
13.2928
13.1622
13.0678
13.0035
12.9641
12.9429
12.9383
12.9474
16.7321
16.6548
16.4606
16.1735
15.8176
15.4232
15.0183
14.6268
14.2667
13.9496
13.6812
13.4624
13.2909
13.1611
13.0673
13.0035
12.9641
12.9436
12.9392
12.9482
16.7394
16.6601
16.4634
16.1736
15.816
15.4197
15.0137
14.6217
14.2617
13.945
13.6774
13.4595
13.2887
13.1598
13.0671
13.0043
12.9661
12.9471
12.9434
12.9527
16.7483
16.6669
16.4674
16.1746
15.8151
15.4172
15.01
14.6174
14.2573
13.9411
13.6742
13.4573
13.2877
13.1606
13.0695
13.008
12.9708
12.9526
12.9493
12.9587
16.7594
16.6757
16.4734
16.1775
15.8153
15.416
15.0074
14.6139
14.2536
13.9376
13.6712
13.4551
13.2863
13.1603
13.0698
13.0092
12.973
12.9551
12.9515
12.9612
16.7717
16.6859
16.4808
16.1819
15.817
15.4156
15.0055
14.6112
14.2505
13.9346
13.6685
13.4528
13.2844
13.1581
13.0679
13.0079
12.9725
12.9548
12.9506
12.9603
16.7853
16.6974
16.4895
16.1876
15.8198
15.4159
15.0047
14.6093
14.248
13.932
13.6662
13.4509
13.283
13.1571
13.0676
13.0077
12.9723
12.9547
12.9509
12.9603
16.8003
16.7104
16.4996
16.1947
15.8238
15.4175
15.0044
14.6078
14.2459
13.9297
13.6641
13.4492
13.2819
13.1567
13.0673
13.0067
12.9704
12.9529
12.95
12.9597
16.817
16.7249
16.5112
16.2029
15.8289
15.4199
15.0045
14.6067
14.2442
13.9277
13.6622
13.4476
13.2806
13.1556
13.0658
13.0049
12.9686
12.9513
12.9488
12.9591
16.8346
16.7404
16.5237
16.2122
15.835
15.4231
15.0057
14.6066
14.243
13.9261
13.6605
13.4461
13.2794
13.1552
13.0663
13.006
12.97
12.9529
12.9507
12.9613
16.8533
16.757
16.5373
16.2224
15.842
15.4272
15.0074
14.6068
14.2421
13.9247
13.6591
13.4451
13.2791
13.1558
13.0678
13.0079
12.9723
12.9558
12.9539
12.9647
16.8735
16.7751
16.5523
16.2339
15.8499
15.432
15.0097
14.6071
14.2418
13.9237
13.6579
13.4442
13.2787
13.1557
13.0684
13.0102
12.9759
12.9602
12.9586
12.9695
16.8959
16.7951
16.5689
16.2467
15.8589
15.4377
15.0127
14.6082
14.2418
13.9228
13.6568
13.4433
13.2784
13.1557
13.0686
13.0114
12.978
12.9622
12.9606
12.9713
16.9195
16.8162
16.5865
16.2604
15.8688
15.4441
15.0162
14.6096
14.2417
13.9218
13.6552
13.4414
13.2766
13.1542
13.0681
13.0107
12.9773
12.9615
12.96
12.9705
16.9442
16.8385
16.6052
16.2751
15.8794
15.4511
15.0202
14.6113
14.2417
13.9213
13.6541
13.4398
13.2743
13.1519
13.0662
13.0094
12.9758
12.9615
12.9598
12.9698
16.97
16.8618
16.6249
16.2906
15.8908
15.4588
15.0248
14.6134
14.2421
13.9213
13.6537
13.4391
13.2732
13.1505
13.0642
13.0077
12.9753
12.9618
12.9604
12.9711
16.997
16.8864
16.6458
16.3073
15.9032
15.4673
15.03
14.6162
14.2431
13.9211
13.6532
13.4386
13.2731
13.1508
13.0645
13.0078
12.9755
12.9622
12.9616
12.9723
17.0251
16.9122
16.668
16.3251
15.9167
15.4767
15.0361
14.6196
14.2445
13.921
13.6526
13.4384
13.2736
13.1516
13.0654
13.0088
12.9762
12.9622
12.9613
12.9717
17.0547
16.9395
16.6916
16.3443
15.9313
15.4872
15.0431
14.6239
14.2468
13.9219
13.6528
13.4384
13.2731
13.1511
13.0651
13.0086
12.9759
12.9612
12.9603
12.9714
17.0859
16.9684
16.7167
16.3648
15.9472
15.4988
15.0511
14.629
14.2498
13.9236
13.6536
13.4385
13.2735
13.1516
13.0657
13.0091
12.9757
12.9603
12.959
12.9702
17.1188
16.9991
16.7435
16.3869
15.9645
15.5116
15.0601
14.635
14.2537
13.9261
13.6554
13.4404
13.2755
13.1537
13.0674
13.0108
12.9774
12.9621
12.9608
12.9716
17.1535
17.0317
16.7721
16.4107
15.9831
15.5256
15.07
14.6417
14.258
13.9286
13.6568
13.4411
13.2758
13.1543
13.0683
13.0119
12.9798
12.9661
12.9656
12.977
17.1904
17.0665
16.8027
16.4362
16.0033
15.5408
15.0808
14.649
14.2626
13.9313
13.6582
13.4414
13.2762
13.1552
13.0701
13.0143
12.9826
12.9686
12.9681
12.9794
17.2295
17.1035
16.8355
16.4637
16.0252
15.5574
15.0929
14.6573
14.268
13.9346
13.6599
13.4423
13.2765
13.1552
13.0703
13.015
12.9834
12.9684
12.9682
12.9796
17.2711
17.143
16.8708
16.4934
16.0492
15.5758
15.1064
14.6668
14.2744
13.9386
13.6622
13.4431
13.2762
13.1546
13.0695
13.0145
12.9836
12.9692
12.9686
12.9799
17.3155
17.1854
16.9088
16.5257
16.0754
15.5962
15.1217
14.6778
14.2821
13.9438
13.6655
13.4451
13.277
13.1542
13.0688
13.0143
12.983
12.9688
12.9675
12.9788
17.3628
17.2309
16.9498
16.5608
16.1041
15.6188
15.1389
14.6906
14.2913
13.9503
13.6701
13.4483
13.2792
13.1556
13.0698
13.0145
12.9831
12.9693
12.9688
12.9801
17.4135
17.2798
16.994
16.5989
16.1356
15.6439
15.1584
14.7054
14.3024
13.9586
13.6765
13.4533
13.2834
13.1594
13.0734
13.0181
12.9868
12.973
12.9725
12.9836
17.4678
17.3324
17.0419
16.6404
16.1701
15.6717
15.1802
14.7223
14.3154
13.9688
13.6846
13.4601
13.2893
13.1649
13.0788
13.0235
12.9923
12.9784
12.9778
12.9885
17.526
17.3889
17.0936
16.6854
16.2078
15.7024
15.2046
14.7414
14.3304
13.9807
13.6943
13.4684
13.2968
13.172
13.0857
13.0303
12.999
12.9851
12.9843
12.9946
17.5883
17.4498
17.1494
16.7343
16.249
15.7361
15.2317
14.7629
14.3475
13.9944
13.7057
13.4782
13.3057
13.1803
13.0938
13.0383
13.0069
12.9929
12.9919
13.0019
17.6551
17.5152
17.2097
16.7873
16.294
15.7732
15.2617
14.7869
14.3667
14.0101
13.7188
13.4896
13.316
13.19
13.1031
13.0475
13.016
13.0019
13.0006
13.0102
17.7268
17.5857
17.2749
16.8449
16.3431
15.814
15.2949
14.8137
14.3884
14.0279
13.7338
13.5027
13.3278
13.2011
13.1138
13.058
13.0263
13.012
13.0104
13.0196
17.8037
17.6617
17.3456
16.9077
16.3969
15.8589
15.3317
14.8437
14.4129
14.0481
13.7509
13.5176
13.3414
13.2138
13.1261
13.0699
13.038
13.0235
13.0216
13.0302
17.8868
17.7441
17.4225
16.9762
16.4559
15.9084
15.3726
14.8771
14.4403
14.0709
13.7704
13.5347
13.357
13.2284
13.14
13.0835
13.0514
13.0365
13.0342
13.0423
17.9769
17.8337
17.5064
17.0512
16.5207
15.9631
15.4179
14.9145
14.4712
14.0968
13.7925
13.5542
13.3747
13.245
13.156
13.099
13.0665
13.0513
13.0486
13.056
18.075
17.9315
17.598
17.1334
16.5921
16.0235
15.4683
14.9562
14.5059
14.126
13.8176
13.5765
13.395
13.264
13.1742
13.1167
13.0838
13.0682
13.0649
13.0717
18.1816
18.0379
17.698
17.2234
16.6704
16.0902
15.5242
15.0028
14.5448
14.1589
13.8461
13.6018
13.4181
13.2857
13.195
13.1369
13.1035
13.0875
13.0835
13.0894
18.2971
18.1535
17.8071
17.3218
16.7565
16.1637
15.5862
15.0548
14.5885
14.1961
13.8785
13.6307
13.4446
13.3106
13.2189
13.1601
13.1261
13.1095
13.1049
13.1097
18.4222
18.2792
17.926
17.4296
16.8512
16.245
15.655
15.1127
14.6376
14.2382
13.9152
13.6635
13.4748
13.3391
13.2462
13.1866
13.152
13.1348
13.1294
13.1332
18.5581
18.4161
18.0561
17.5479
16.9554
16.3349
15.7315
15.1775
14.6927
14.2857
13.9569
13.7011
13.5095
13.3717
13.2776
13.217
13.1817
13.1638
13.1575
13.1602
18.706
18.5657
18.1986
17.6779
17.0705
16.4345
15.8168
15.2502
14.7548
14.3395
14.0045
13.744
13.5492
13.4093
13.3136
13.252
13.2158
13.1971
13.1898
13.1912
18.8674
18.7295
18.3551
17.8212
17.1978
16.5453
15.912
15.3317
14.825
14.4006
14.0587
13.7932
13.5948
13.4525
13.3552
13.2923
13.2552
13.2355
13.227
13.2269
19.0439
18.9092
18.5274
17.9795
17.3389
16.6686
16.0185
15.4235
14.9044
14.4702
14.1207
13.8497
13.6474
13.5023
13.4032
13.339
13.3006
13.2799
13.27
13.268
19.2375
19.1069
18.7175
18.1549
17.4959
16.8064
16.1382
15.5271
14.9946
14.5496
14.1919
13.9148
13.7082
13.5601
13.4588
13.3931
13.3534
13.3314
13.3203
13.3157
19.4502
19.325
18.928
18.3496
17.671
16.9608
16.2729
15.6444
15.0973
14.6405
14.2738
13.99
13.7786
13.6272
13.5236
13.4561
13.4147
13.391
13.3781
13.371
19.6847
19.5662
19.1615
18.5665
17.8668
17.1343
16.4251
15.7776
15.2146
14.745
14.3684
14.0773
13.8605
13.7054
13.5991
13.5296
13.4864
13.4606
13.4454
13.4355
19.9437
19.8336
19.4214
18.8089
18.0865
17.3299
16.5976
15.9295
15.3491
14.8655
14.4781
14.1788
13.9563
13.797
13.6877
13.6158
13.5705
13.5423
13.5243
13.5114
20.2309
20.1313
19.7118
19.0808
18.334
17.5514
16.794
16.1035
15.5041
15.0051
14.6058
14.2975
14.0685
13.9046
13.792
13.7175
13.6697
13.6389
13.6179
13.601
20.5501
20.4636
20.0374
19.3868
18.6141
17.8032
17.0186
16.3036
15.6834
15.1676
14.7551
14.437
14.2008
14.0317
13.9153
13.8378
13.7872
13.7533
13.7286
13.707
20.9064
20.8362
20.4039
19.7329
18.9322
18.0909
17.2766
16.5349
15.892
15.3577
14.9307
14.6017
14.3575
14.1826
14.0618
13.9808
13.927
13.8894
13.8602
13.8329
21.3056
21.2555
20.8183
20.1261
19.2956
18.4213
17.5748
16.8039
16.136
15.5813
15.1384
14.7973
14.5442
14.3627
14.237
14.1519
14.0941
14.0522
14.0176
13.9835
21.7547
21.7298
21.2891
20.5752
19.7129
18.803
17.9215
17.1187
16.4234
15.8463
15.3857
15.0312
14.7681
14.5792
14.4478
14.3578
14.2952
14.248
14.2068
14.1643
22.2621
22.2684
21.8269
21.0909
20.1949
19.2468
18.3272
17.4895
16.7642
16.1624
15.6823
15.3128
15.0385
14.8411
14.7031
14.6073
14.5389
14.485
14.4357
14.383
22.8389
22.8823
22.4443
21.6868
20.7556
19.7664
18.8057
17.93
17.1718
16.5427
16.041
15.6548
15.3677
15.1606
15.0148
14.912
14.8364
14.7742
14.7147
14.6492
23.499
23.5889
23.1588
22.3807
21.4128
20.38
19.3748
18.4578
17.6635
17.0044
16.4787
16.0737
15.7722
15.5538
15.3987
15.2872
15.2026
15.1299
15.0574
14.9756
24.2585
24.4073
23.9919
23.1953
22.1901
21.1111
20.0583
19.0965
18.2629
17.5709
17.0185
16.5925
16.2745
16.0428
15.8763
15.7541
15.6579
15.5716
15.4824
15.3797
25.1381
25.3622
24.9713
24.1603
23.1181
21.9913
20.8879
19.8781
19.0019
18.2738
17.692
17.2423
16.9054
16.6581
16.4776
16.3415
16.2303
16.1261
16.0149
15.885
26.1652
26.4862
26.1336
25.315
24.2381
23.0629
21.907
20.8463
19.9245
19.1573
18.5431
18.067
17.7082
17.4421
17.2441
17.0902
16.9589
16.8308
16.6904
16.5244
27.3744
27.8215
27.527
26.7117
25.6051
24.3832
23.1741
22.061
21.0912
20.2825
19.6332
19.1277
18.7438
18.455
18.235
18.0575
17.8993
17.7389
17.559
17.3443
28.8119
29.4243
29.2158
28.4204
27.294
26.0302
24.7702
23.6049
22.5866
21.7348
21.0485
20.5109
20.0984
19.7823
19.5342
19.3256
19.1309
18.9263
18.6923
18.4114
30.5375
31.3683
31.285
30.5351
29.405
28.1097
26.8051
25.5914
24.5267
23.6328
22.909
22.3376
21.8931
21.5445
21.261
21.0112
20.767
20.5018
20.1933
19.8212
32.6307
33.7512
33.8476
33.1806
32.0727
30.7639
29.4275
28.1748
27.0703
26.1387
25.3801
24.7752
24.2966
23.9103
23.5828
23.2791
22.9684
22.6203
22.2093
21.7113
35.1954
36.7017
37.0495
36.5202
35.4742
34.181
32.8345
31.5596
30.4286
29.4697
28.6836
28.0494
27.5373
27.1096
26.7292
26.3572
25.9588
25.4992
24.9483
24.2768
38.3693
40.3955
41.0629
40.7651
39.8398
38.6045
37.2808
36.0102
34.8748
33.9067
33.1077
32.4546
31.9146
31.4456
31.0059
30.5513
30.0416
29.4361
28.6983
27.7913
42.3302
45.0811
46.1945
46.2043
45.4652
44.3411
43.0841
41.8547
40.7467
39.7973
39.0093
38.357
37.8037
37.3013
36.8022
36.2551
35.6124
34.8244
33.8451
32.626
47.3068
51.0154
52.7263
53.1623
52.6993
51.7563
50.6221
49.4812
48.4423
47.5493
46.807
46.1869
45.6474
45.1328
44.5875
43.9499
43.1618
42.16
40.8842
39.2678
53.5855
58.5328
61.0263
62.0267
61.9513
61.2728
60.3259
59.3268
58.4045
57.6131
56.9613
56.4178
55.9353
55.4486
54.8913
54.1874
53.2629
52.0351
50.4209
48.3254
61.5131
68.0529
71.5762
73.2114
73.6866
73.3633
72.667
71.8599
71.1001
70.4574
69.947
69.5365
69.1724
68.7779
68.2725
67.5607
66.5461
65.1167
63.1555
60.5238
71.503
80.0548
84.9245
87.3781
88.4556
88.5417
88.1371
87.5554
86.9914
86.5373
86.22
86.0077
85.8406
85.6293
85.2772
84.6638
83.6608
82.1144
79.8573
76.6861
84.0412
95.059
101.558
104.995
106.754
107.302
107.21
106.86
106.499
106.255
106.174
106.229
106.351
106.438
106.385
106.041
105.232
103.742
101.334
97.7119
99.6793
113.64
122.052
126.658
129.034
130.114
130.308
130.138
129.936
129.884
130.063
130.454
130.961
131.46
131.904
132.099
131.784
130.657
128.386
124.544
119.004
136.44
147.069
152.977
156.019
157.436
157.734
157.569
157.374
157.417
157.833
158.664
159.887
161.261
162.547
163.417
163.682
163.315
161.698
158.096
142.608
164.048
177.116
184.321
187.89
189.365
189.424
188.909
188.405
188.298
188.836
190.149
192.222
194.746
197.424
199.839
201.5
202.116
201.629
199.049
171.112
197.044
212.642
220.93
224.634
225.577
224.723
223.181
221.761
221.018
221.342
222.977
225.949
229.95
234.634
239.486
243.863
246.984
248.265
247.537
205.155
235.948
253.885
262.645
265.638
264.929
261.946
258.176
254.749
252.461
251.868
253.358
257.127
262.865
270.202
278.543
287.092
294.824
300.478
302.864
245.446
281.187
300.733
308.689
309.343
304.997
297.85
289.907
282.773
277.457
274.763
275.331
279.466
287.035
297.6
310.492
324.859
339.527
352.785
362.539
292.875
333.02
352.52
357.549
352.728
341.421
327.056
312.04
298.333
287.884
281.762
280.572
284.424
293.393
307.212
325.606
347.616
371.672
395.897
417.814
348.826
391.37
407.372
405.085
389.82
366.907
340.922
316.991
296.746
281.568
272.133
268.914
271.871
281.228
296.863
318.817
346.657
379.092
417.204
456.001
415.942
456.234
462.637
444.595
411.025
371.891
332.908
297.129
267.576
245.318
230.811
224.106
225.09
233.785
250.75
276.321
311.227
356.326
407.721
463.298
499.929
527.52
510.184
462.451
404.45
343.957
288.723
242.475
206.487
180.51
163.733
155.28
154.502
161.047
176.015
200.621
236.933
287.353
353.465
435.541
611.832
600.988
529.6
441.449
349.382
268.706
204.73
157.477
124.47
102.43
88.8802
82.071
80.8696
84.8388
95.4719
114.205
145.312
193.551
265.057
365.066
758.704
635.812
483.144
338.132
227.089
147.914
97.8922
68.5095
51.8455
42.9657
38.4854
36.4641
36.2197
37.6444
42.3714
52.7229
72.5054
109.358
177.716
296.966
790.498
483.286
261.449
138.346
76.4982
48.4995
35.7887
28.6019
24.4695
22.212
21.1188
20.7787
21.05
22.0401
24.2192
28.5082
37.8003
59.7917
118.004
281.205
254.572
110.186
65.048
41.6412
28.5619
21.9951
18.8596
17.4207
16.7131
16.3362
16.1673
16.1727
16.4033
16.9649
18.1742
20.9128
27.8156
47.6242
115.364
373.723
76.5705
35.3646
20.3862
16.7622
15.9104
15.5153
15.2512
15.0811
14.9849
14.9429
14.9406
14.9586
14.9826
15.0137
15.1391
15.716
18.1691
28.4616
75.5846
302.027
13.2932
13.2649
13.222
13.1737
13.1225
13.0712
13.0228
12.9799
12.9447
12.9187
12.9029
12.8975
12.9024
12.9167
12.9385
12.966
12.9974
13.031
13.0652
13.0992
13.3115
13.2812
13.2363
13.1853
13.1322
13.0799
13.031
12.9881
12.9533
12.9285
12.9132
12.9078
12.9124
12.9259
12.9462
12.9729
13.0037
13.0371
13.0714
13.1057
13.3178
13.285
13.2385
13.186
13.1318
13.0786
13.0291
12.986
12.9513
12.9271
12.9121
12.907
12.9115
12.9246
12.944
12.9704
13.0008
13.034
13.0682
13.1027
13.3183
13.285
13.2386
13.1871
13.1329
13.079
13.0283
12.9841
12.9483
12.9225
12.9077
12.9037
12.9095
12.9237
12.9451
12.9722
13.0028
13.0355
13.0682
13.1015
13.3178
13.2844
13.2375
13.1863
13.1328
13.08
13.0297
12.9851
12.9488
12.9227
12.9076
12.9038
12.9089
12.9236
12.9461
12.9736
13.0044
13.0363
13.0692
13.1027
13.3167
13.283
13.2361
13.1847
13.1314
13.0796
13.0299
12.9864
12.9504
12.9243
12.9087
12.9035
12.9065
12.9212
12.9448
12.972
13.0029
13.036
13.0706
13.1042
13.3203
13.2872
13.2404
13.1888
13.1347
13.0807
13.0293
12.9858
12.9498
12.9234
12.9076
12.9021
12.9059
12.9202
12.9434
12.9712
13.0028
13.0367
13.0696
13.1032
13.3216
13.2883
13.2415
13.1901
13.136
13.0821
13.031
12.9866
12.95
12.9234
12.9075
12.9027
12.9082
12.9225
12.9445
12.973
13.0035
13.0356
13.0669
13.1006
13.3214
13.2881
13.2414
13.19
13.1361
13.0828
13.0333
12.9892
12.9529
12.9264
12.9104
12.9051
12.9093
12.9228
12.9443
12.9718
13.0029
13.035
13.0666
13.0995
13.3217
13.2884
13.2423
13.1909
13.136
13.0824
13.0311
12.9864
12.9503
12.9242
12.9085
12.9029
12.9059
12.9195
12.9417
12.9698
13.0027
13.0365
13.0708
13.1043
13.322
13.2883
13.242
13.1897
13.1336
13.079
13.0262
12.9811
12.945
12.9193
12.905
12.9014
12.907
12.9216
12.9441
12.9721
13.0044
13.0398
13.0745
13.1082
13.3242
13.2889
13.2397
13.1867
13.1315
13.0764
13.0251
12.9802
12.9441
12.9186
12.9048
12.9023
12.9081
12.9227
12.945
12.973
13.0049
13.0389
13.0736
13.1076
13.3226
13.2858
13.2355
13.1826
13.1282
13.0754
13.025
12.9814
12.946
12.9203
12.9054
12.9016
12.9059
12.9198
12.9417
12.9695
13.0015
13.0356
13.071
13.1067
13.3203
13.2843
13.2362
13.184
13.1299
13.0766
13.0267
12.9832
12.9464
12.9199
12.9044
12.8991
12.9025
12.9165
12.9387
12.967
12.9993
13.0337
13.0691
13.1052
13.3188
13.2846
13.2361
13.1839
13.1301
13.0772
13.0272
12.9829
12.9456
12.9193
12.904
12.8992
12.9045
12.9196
12.9426
12.9718
13.0045
13.0388
13.0732
13.1068
13.3183
13.283
13.2339
13.1826
13.1304
13.0792
13.0304
12.9868
12.9511
12.9255
12.9104
12.9058
12.9114
12.9272
12.9513
12.9808
13.0134
13.0472
13.0808
13.1132
13.3165
13.2823
13.2356
13.1861
13.1364
13.0863
13.038
12.9947
12.9586
12.9314
12.9148
12.9094
12.9148
12.9307
12.9555
12.9849
13.0171
13.0508
13.0841
13.1164
13.3187
13.2848
13.2382
13.1889
13.1397
13.0892
13.041
12.998
12.9619
12.9332
12.916
12.9104
12.9155
12.9307
12.9546
12.9834
13.0156
13.0499
13.0834
13.1155
13.3229
13.2883
13.2408
13.1902
13.1388
13.0872
13.0388
12.9965
12.9615
12.935
12.9199
12.9152
12.92
12.9341
12.9559
12.9838
13.0164
13.0503
13.082
13.1133
13.3285
13.2931
13.2445
13.1923
13.1386
13.0864
13.0382
12.997
12.9645
12.9419
12.9288
12.9248
12.9297
12.943
12.9633
12.9892
13.0198
13.051
13.0811
13.1119
13.3363
13.3
13.2504
13.1976
13.1438
13.092
13.0442
13.0026
12.9694
12.9473
12.9343
12.9303
12.935
12.9479
12.9669
12.9903
13.0182
13.0488
13.08
13.1112
13.3409
13.3062
13.2576
13.2051
13.1511
13.0985
13.0497
13.0067
12.9716
12.9479
12.934
12.9297
12.9342
12.9468
12.9655
12.9882
13.0161
13.0468
13.0784
13.11
13.3416
13.3087
13.26
13.2072
13.1528
13.0995
13.0501
13.0077
12.974
12.9499
12.9362
12.9321
12.9369
12.9496
12.968
12.9913
13.0195
13.0505
13.0825
13.1144
13.3424
13.308
13.2592
13.2066
13.152
13.0988
13.0496
13.0077
12.9755
12.952
12.9384
12.9349
12.9406
12.9536
12.9714
12.995
13.0238
13.0554
13.0876
13.1197
13.3444
13.3083
13.2599
13.2068
13.1518
13.0983
13.0487
13.0064
12.9732
12.9505
12.9375
12.9344
12.9399
12.9534
12.9728
12.999
13.0292
13.0614
13.0937
13.1257
13.3489
13.3118
13.2614
13.2073
13.1516
13.0974
13.0475
13.0049
12.9717
12.95
12.9377
12.9347
12.9403
12.9559
12.9785
13.0064
13.0374
13.0698
13.1019
13.1332
13.3556
13.3184
13.2678
13.2134
13.1573
13.1027
13.0523
13.0089
12.9747
12.9515
12.9395
12.9382
12.9474
12.9653
12.9892
13.0178
13.049
13.0814
13.1132
13.1438
13.3637
13.3265
13.2752
13.2208
13.1653
13.1112
13.0601
13.0152
12.9802
12.9567
12.9448
12.9444
12.9542
12.9708
12.9941
13.0225
13.0537
13.0861
13.1179
13.1482
13.3706
13.3336
13.2824
13.2277
13.1713
13.1169
13.0652
13.0208
12.9859
12.9621
12.9498
12.9488
12.9579
12.9738
12.997
13.0255
13.0567
13.089
13.1205
13.1507
13.3735
13.3365
13.2852
13.2298
13.172
13.1181
13.0682
13.0261
12.9921
12.9683
12.955
12.952
12.9601
12.9769
13.0005
13.0291
13.0603
13.0925
13.1239
13.1539
13.3737
13.3363
13.2844
13.2282
13.1704
13.1174
13.0701
13.0287
12.9952
12.9714
12.9575
12.9527
12.9593
12.9765
13.0003
13.029
13.0598
13.0931
13.1251
13.155
13.3739
13.3361
13.2837
13.2268
13.1701
13.1166
13.0688
13.0269
12.9933
12.9695
12.9557
12.9508
12.9571
12.9742
12.9976
13.0264
13.0583
13.0926
13.1246
13.1545
13.3778
13.3381
13.2854
13.2296
13.1734
13.1198
13.0709
13.0288
12.9952
12.9716
12.9582
12.9546
12.9604
12.9752
12.9973
13.0255
13.0579
13.0906
13.1222
13.1523
13.3839
13.344
13.2912
13.2352
13.1785
13.1243
13.0748
13.033
13.001
12.9785
12.966
12.9628
12.9684
12.982
13.0024
13.0289
13.0589
13.0906
13.1218
13.1519
13.3903
13.3502
13.2972
13.2408
13.1829
13.1271
13.0765
13.0344
13.0036
12.9817
12.9697
12.967
12.9728
12.9868
13.0072
13.0339
13.0639
13.0957
13.127
13.1572
13.3967
13.3565
13.3041
13.2484
13.1901
13.1333
13.0815
13.0377
13.0038
12.9805
12.9681
12.9658
12.9733
12.9904
13.0125
13.0397
13.0696
13.1015
13.133
13.1635
13.403
13.3619
13.3087
13.253
13.1941
13.1361
13.0838
13.0401
13.0048
12.9813
12.9691
12.9674
12.9757
12.9936
13.0159
13.0436
13.0745
13.1072
13.1393
13.1698
13.4096
13.3667
13.311
13.2532
13.1933
13.1353
13.0827
13.0397
13.0055
12.9825
12.9709
12.9697
12.9767
12.9935
13.0168
13.0466
13.0796
13.1135
13.1461
13.1767
13.4181
13.3735
13.3157
13.255
13.1943
13.1379
13.0848
13.04
13.0053
12.9822
12.9704
12.9686
12.9761
12.9946
13.0208
13.0525
13.0868
13.1216
13.1546
13.1851
13.4288
13.383
13.3238
13.2613
13.1987
13.1403
13.0866
13.0414
13.0065
12.9834
12.9716
12.97
12.9803
13.0006
13.0283
13.0612
13.0964
13.1317
13.1649
13.1953
13.4417
13.395
13.3345
13.2704
13.2059
13.1447
13.0897
13.0439
13.009
12.9864
12.9757
12.9763
12.9881
13.0097
13.0385
13.0723
13.1082
13.1439
13.1772
13.2072
13.4568
13.4093
13.3479
13.2827
13.2171
13.1548
13.0991
13.0528
13.0177
12.9953
12.985
12.9863
12.999
13.0214
13.0511
13.0857
13.122
13.158
13.1912
13.2209
13.4742
13.4261
13.3638
13.2978
13.2312
13.1681
13.1116
13.0649
13.0296
13.0073
12.9973
12.9992
13.0125
13.0357
13.0661
13.1013
13.1381
13.1743
13.2073
13.2365
13.4938
13.4451
13.3822
13.3153
13.2478
13.1839
13.1268
13.0797
13.0443
13.022
13.0123
13.0146
13.0285
13.0524
13.0833
13.1191
13.1563
13.1926
13.2256
13.2542
13.516
13.4667
13.4031
13.3353
13.267
13.2023
13.1446
13.0971
13.0614
13.0393
13.0298
13.0325
13.0469
13.0714
13.1031
13.1394
13.177
13.2135
13.2462
13.2743
13.5408
13.491
13.4267
13.3581
13.2889
13.2234
13.165
13.117
13.0812
13.059
13.0498
13.053
13.068
13.0931
13.1254
13.1623
13.2003
13.237
13.2695
13.297
13.5688
13.5185
13.4535
13.384
13.3138
13.2475
13.1884
13.1399
13.1038
13.0817
13.0727
13.0763
13.0919
13.1178
13.1508
13.1883
13.2268
13.2636
13.296
13.3228
13.6003
13.5495
13.4839
13.4135
13.3423
13.275
13.2152
13.1662
13.1298
13.1077
13.0989
13.103
13.1193
13.1458
13.1796
13.2178
13.2567
13.2938
13.3258
13.3518
13.6359
13.5847
13.5184
13.447
13.3748
13.3066
13.2459
13.1963
13.1596
13.1375
13.129
13.1336
13.1505
13.1779
13.2125
13.2514
13.2908
13.328
13.3598
13.385
13.6763
13.6247
13.5577
13.4854
13.4121
13.3428
13.2812
13.231
13.194
13.1718
13.1635
13.1687
13.1863
13.2146
13.25
13.2897
13.3296
13.367
13.3984
13.4226
13.7222
13.6703
13.6026
13.5293
13.4549
13.3844
13.3219
13.271
13.2336
13.2114
13.2034
13.2091
13.2276
13.2567
13.293
13.3335
13.374
13.4115
13.4425
13.4656
13.7744
13.7223
13.6541
13.5798
13.5041
13.4325
13.3689
13.3173
13.2795
13.2572
13.2495
13.2558
13.2751
13.3051
13.3424
13.3837
13.4247
13.4623
13.4929
13.5146
13.8342
13.782
13.7133
13.6379
13.561
13.4882
13.4235
13.371
13.3327
13.3104
13.3029
13.31
13.3301
13.3612
13.3994
13.4416
13.4832
13.5208
13.5507
13.5709
13.9028
13.8506
13.7815
13.7052
13.627
13.5528
13.4869
13.4336
13.3948
13.3724
13.3652
13.3729
13.394
13.4261
13.4654
13.5085
13.5505
13.5881
13.6172
13.6356
13.9819
13.9298
13.8605
13.7832
13.7037
13.6281
13.5611
13.5067
13.4674
13.4448
13.438
13.4465
13.4685
13.5018
13.5422
13.5861
13.6286
13.6661
13.6941
13.7104
14.0733
14.0217
13.9523
13.8741
13.7933
13.7163
13.6479
13.5926
13.5526
13.5299
13.5234
13.5327
13.5558
13.5902
13.6317
13.6765
13.7195
13.7566
13.7833
13.7969
14.1792
14.1285
14.0593
13.9805
13.8984
13.8199
13.7502
13.6938
13.6531
13.6303
13.6242
13.6343
13.6585
13.6942
13.7368
13.7825
13.8257
13.8622
13.8872
13.8976
14.3026
14.2533
14.1848
14.1055
14.0222
13.9423
13.8711
13.8136
13.7722
13.7492
13.7435
13.7546
13.78
13.8168
13.8606
13.907
13.9503
13.986
14.0088
14.0155
14.4472
14.4
14.3328
14.2533
14.1689
14.0876
14.015
13.9563
13.9141
13.8909
13.8856
13.8978
13.9243
13.9625
14.0074
14.0545
14.0976
14.132
14.152
14.1542
14.6176
14.5734
14.5081
14.4289
14.3437
14.2611
14.1871
14.1272
14.0841
14.0607
14.056
14.0692
14.097
14.1364
14.1823
14.2298
14.2725
14.3051
14.3215
14.3181
14.8196
14.7795
14.7173
14.639
14.5534
14.4697
14.3944
14.3333
14.2893
14.2656
14.2615
14.2758
14.3049
14.3454
14.3921
14.4398
14.4815
14.5116
14.5234
14.513
15.0605
15.0261
14.9685
14.892
14.8067
14.7222
14.6458
14.5836
14.5387
14.5148
14.5113
14.5268
14.557
14.5984
14.6456
14.6929
14.7329
14.7594
14.7654
14.7461
15.3491
15.3234
15.2725
15.1994
15.1153
15.0306
14.9534
14.8902
14.8446
14.8206
14.8178
14.8343
14.8652
14.9072
14.9544
15.0005
15.0378
15.0593
15.0576
15.027
15.7001
15.6855
15.644
15.5762
15.4945
15.4105
15.3331
15.2692
15.2231
15.1996
15.1979
15.2142
15.2454
15.2874
15.3336
15.3775
15.4106
15.4252
15.4133
15.3682
16.1296
16.1305
16.1023
16.0426
15.9654
15.8834
15.8064
15.7422
15.6954
15.6719
15.6711
15.6878
15.719
15.7601
15.8043
15.8443
15.8709
15.876
15.8505
15.7863
16.66
16.6823
16.673
16.6258
16.556
16.478
16.4028
16.339
16.2918
16.2683
16.2683
16.285
16.3151
16.354
16.3943
16.4281
16.4453
16.4372
16.3932
16.3036
17.3219
17.3728
17.3909
17.3626
17.305
17.2344
17.163
17.1006
17.0533
17.0299
17.0307
17.0465
17.0742
17.1089
17.1424
17.1664
17.1698
17.143
17.0737
16.9507
18.1588
18.2411
18.3023
18.3034
18.2653
18.207
18.1426
18.0832
18.0364
18.0131
18.0146
18.0282
18.0514
18.0786
18.1014
18.1102
18.0937
18.0409
17.9368
17.7687
19.2381
19.3677
19.4706
19.5185
19.5096
19.4704
19.4175
19.3638
19.3183
19.2952
19.2969
19.3066
19.322
19.3373
19.3436
19.3303
19.2858
19.1962
19.0439
18.8149
20.6402
20.8449
21.0039
21.1038
21.1354
21.1247
21.0899
21.0455
21.0026
20.9799
20.9812
20.9842
20.9872
20.9843
20.9657
20.9209
20.8368
20.6955
20.4778
20.1665
22.4706
22.7721
23.014
23.1665
23.2668
23.3015
23.295
23.2656
23.227
23.2044
23.2044
23.1966
23.181
23.1518
23.0984
23.0105
22.8708
22.6579
22.3512
21.929
24.8828
25.3233
25.6926
25.9076
26.0642
26.1738
26.2078
26.2002
26.1682
26.1448
26.1414
26.1173
26.0746
26.008
25.9092
25.764
25.5464
25.2374
24.8114
24.2412
28.0613
28.6875
29.2314
29.5713
29.7904
29.9629
30.0455
30.0682
30.0461
30.0197
30.0101
29.962
29.8806
29.773
29.6167
29.387
29.067
28.6318
28.0496
27.2852
32.2362
33.1037
33.8724
34.3771
34.6837
34.8855
35.0554
35.1271
35.1241
35.0897
35.072
35.0207
34.9007
34.7207
34.4703
34.1325
33.6816
33.0854
32.3033
31.2892
37.6912
38.8648
39.9146
40.6221
41.0733
41.3381
41.5249
41.687
41.7349
41.7266
41.6954
41.5796
41.3908
41.1249
40.7686
40.3005
39.689
38.8938
37.863
36.5353
44.7463
46.3022
47.7025
48.6638
49.2961
49.682
49.8965
50.0663
50.212
50.225
50.1549
49.9851
49.7195
49.3536
48.8719
48.2473
47.4423
46.4066
45.0734
43.3611
53.7725
55.7979
57.6249
58.8937
59.7418
60.2798
60.584
60.7835
60.9717
61.0034
60.9046
60.6785
60.3268
59.8438
59.2119
58.4014
57.3669
56.0455
54.3512
52.1746
65.2211
67.8181
70.1658
71.813
72.9325
73.6617
74.0968
74.3222
74.4851
74.6038
74.4947
74.2108
73.7611
73.1421
72.3351
71.306
70.0003
68.3394
66.2132
63.4771
79.6482
82.9492
85.9443
88.0687
89.5372
90.5168
91.1325
91.463
91.6531
91.811
91.6862
91.3382
90.7773
90.0002
88.9864
87.6961
86.0635
83.9914
81.3401
77.9213
97.7961
101.985
105.805
108.549
110.479
111.796
112.645
113.118
113.39
113.608
113.496
113.096
112.419
111.463
110.204
108.597
106.562
103.978
100.672
96.3999
120.689
126.022
130.921
134.486
137.04
138.829
140.023
140.728
141.095
141.35
141.375
140.957
140.17
139.016
137.471
135.477
132.938
129.706
125.562
120.198
149.775
156.609
162.936
167.607
171.019
173.474
175.188
176.32
176.964
177.29
177.412
176.999
176.117
174.76
172.891
170.436
167.273
163.216
157.99
151.197
187.131
195.945
204.17
210.324
214.897
218.261
220.686
222.36
223.396
224.001
224.329
224.027
223.13
221.617
219.428
216.464
212.562
207.48
200.864
192.199
235.758
247.159
257.873
265.973
272.072
276.645
280.037
282.487
284.145
285.166
285.747
285.82
285.091
283.571
281.171
277.742
273.054
266.779
258.443
247.361
299.994
314.678
328.543
339.07
347.053
353.116
357.724
361.205
363.768
365.534
366.69
367.33
367.079
365.902
363.626
360.009
354.706
347.242
336.951
322.889
386.138
404.756
422.35
435.637
445.679
453.332
459.245
463.885
467.556
470.447
472.705
474.384
475.288
475.205
473.871
470.851
465.613