/*--------------------------------*- C++ -*----------------------------------*\
  =========                 |
  \\      /  F ield         | OpenFOAM: The Open Source CFD Toolbox
   \\    /   O peration     | Website:  https://openfoam.org
    \\  /    A nd           | Version:  6
     \\/     M anipulation  |
\*---------------------------------------------------------------------------*/
FoamFile
{
    version     2.0;
    format      ascii;
    class       volScalarField;
    location    "8";
    object      epsilon;
}
// * * * * * * * * * * * * * * * * * * * * * * * * * * * * * * * * * * * * * //

dimensions      [0 2 -3 0 0 0 0];

internalField   nonuniform List<scalar> 
10000
(
318.737
295.086
164.876
102.207
69.7941
51.0174
39.4717
32.3268
28.1424
26.1579
26.0983
27.8863
31.7842
38.5424
49.6465
68.1182
100.335
161.426
285.533
302.509
330.076
298.182
166.041
102.767
70.0453
51.0335
39.3959
32.215
28.0002
25.9399
25.6211
27.3801
31.3407
38.4385
49.6628
68.533
101.383
162.383
287.086
321.943
358.975
298.711
165.677
102.681
69.9942
50.9308
39.3783
32.2038
27.9736
25.6959
25.8866
27.7366
31.6878
38.4954
49.5253
68.15
100.367
161.462
283.078
295.531
315.588
296.238
164.953
102.617
70.0326
50.9365
39.0739
31.8198
27.9009
25.9579
25.6649
27.4684
31.4733
38.3675
49.7356
68.2078
100.259
160.269
281.101
306.487
285.879
294.083
164.318
102.72
70.6568
51.0071
39.2782
32.0331
27.8058
25.7005
25.9654
27.8915
31.9211
38.7605
49.8823
68.2133
100.37
160.073
279.699
267.971
289.166
292.396
164.232
103.927
70.195
50.9546
39.2338
31.9593
27.4827
25.6383
25.5756
27.4543
31.565
38.502
49.8218
68.2151
100.201
160.659
282.271
273.943
309.406
292.674
165.284
104.4
70.389
50.8695
38.8885
31.8514
27.7362
25.8726
25.7216
27.6043
31.8503
38.7053
49.8732
68.2556
100.201
160.761
282.988
297.488
275.664
291.504
165.75
105.062
70.5235
50.8184
38.9331
31.3852
27.1802
25.4239
25.773
27.7026
31.7687
38.6686
49.8316
68.3108
100.344
160.94
282.698
296.061
273.558
294.023
166.957
104.508
70.7986
50.7559
38.9245
31.599
27.2893
25.5155
25.711
27.289
31.331
38.5346
49.8654
68.4467
100.686
161.309
284.76
300.198
277.158
295.358
165.965
102.982
70.1843
50.7074
38.8861
31.3266
27.4967
25.7489
25.7346
27.335
31.33
38.3
49.723
68.4799
101.219
161.593
284.364
289.151
273.994
293.011
162.614
103.679
69.5082
50.5992
38.8944
31.6988
27.3143
25.7249
25.7441
27.4993
31.4572
38.3949
49.668
68.3422
100.463
160.975
285.12
307.771
273.639
292.397
161.656
101.182
69.1981
50.5196
38.8471
31.7017
27.5895
25.6445
25.3696
27.3148
31.328
38.3367
49.7183
68.5222
100.817
161.252
284.821
285.728
268.521
294.584
161.438
101.277
69.1714
50.2895
38.4803
31.5852
27.4701
25.3319
25.4454
26.9906
30.8223
37.9833
49.8135
68.7807
101.195
162.108
285.044
312.196
272.771
287.668
160.372
102.488
69.9812
50.2833
38.5212
31.4677
27.4013
25.5108
25.3759
27.0229
31.0264
38.0722
49.8138
69.0662
102.041
163.087
286.08
310.361
276.158
284.8
159.66
100.487
68.7682
49.9107
38.1132
31.3519
27.3159
25.2216
25.5323
27.4092
31.4004
38.243
50.0216
69.272
102.379
163.973
287.467
309.493
280.648
282.365
159.417
101.298
68.8569
49.9473
38.3383
31.0734
27.2891
25.325
25.5685
27.4503
31.4711
38.4647
50.0649
69.3785
102.901
164.705
288.877
300.827
297.543
282.981
159.374
100.108
69.1684
49.8714
38.0773
31.2847
27.3577
25.595
25.6022
27.4433
31.457
38.4651
50.1047
69.6274
103.451
165.374
290.552
306.027
265.223
280.11
160.127
100.251
68.6153
49.8432
38.2642
31.2336
27.0674
25.5598
25.6321
27.5014
31.5145
38.483
49.9935
69.7875
104.008
167.38
293.193
312.51
269.764
283.636
160.952
100.603
69.0173
49.9441
38.0533
30.9741
27.3467
25.5875
25.6082
27.4869
31.4932
38.4464
50.2386
69.82
104.513
168.311
294.223
334.722
269.729
284.053
161.673
100.869
68.9066
50.1036
38.5526
31.4769
27.4843
25.6032
25.5968
27.5098
31.5138
38.1356
50.2722
69.906
104.727
168.533
293.128
293.8
275.396
287.008
162.476
102.141
69.2352
50.1818
38.5149
31.1656
27.3282
25.1621
25.4065
27.1823
31.5235
38.4398
50.3191
69.8835
104.486
169.355
295.352
297.899
276.256
287.564
163.111
102.174
69.4741
50.2016
38.5541
31.478
27.4208
25.3007
25.2858
27.4557
31.6262
38.6989
50.3393
69.8082
103.91
168.838
295.415
297.409
283.393
288.549
164.379
102.513
69.3429
50.1186
38.4676
31.4674
27.4456
25.5311
25.2362
27.2209
31.3004
38.3608
50.0433
69.417
103.631
167.434
294.807
301.516
284.762
288.873
163.916
102.038
69.0755
50.0673
38.105
31.3324
27.3677
25.3973
25.4685
27.6933
31.7553
38.6689
49.9578
69.0238
102.722
166.157
293.449
320.06
292.602
288.809
162.872
101.256
69.0275
50.0927
38.536
31.1709
27.2129
25.8022
25.9248
27.9012
31.8817
38.6998
50.0041
68.9617
102.461
163.781
289.495
294.436
298.751
288.43
162.665
101.292
69.199
50.022
38.6424
31.7566
27.7799
26.0016
26.0529
27.919
31.8627
38.4561
49.9574
68.9859
102.046
163.132
288.811
273.522
314.449
286.719
162.682
101.306
69.5652
50.2783
38.469
31.7578
27.7983
25.9986
26.033
27.9025
31.8977
38.7311
49.9389
68.6996
101.577
162.628
287.462
274.084
282.713
287.105
162.553
101.211
69.0279
50.3544
38.865
31.8266
27.8209
25.9995
26.0208
27.867
31.859
38.7193
49.8968
68.4476
100.592
161.869
286.234
274.748
289.984
288.761
163.782
102.201
69.4388
50.3718
38.7818
31.4295
27.4
25.8195
25.7677
27.4441
31.7035
38.6236
49.751
68.5261
100.909
162.023
285.778
277.225
294.29
289.543
162.81
100.715
68.7806
50.3125
38.6943
31.8029
27.7469
25.7128
25.6082
27.6089
31.7079
38.6462
49.9206
68.6526
101.107
161.771
285.001
274.638
303.786
289.707
162.215
100.236
68.6061
50.2099
38.8397
31.819
27.7592
25.9091
25.8074
27.33
31.3808
38.5429
49.9143
68.9018
101.75
162.041
284.245
292.684
326.023
289.751
162.336
100.24
68.671
50.127
38.5056
31.3559
27.2156
25.5018
25.7486
27.6151
31.5973
38.4462
49.8165
68.7002
101.366
162.701
285.383
272.271
296.192
288.583
161.807
100.063
69.1752
50.1843
38.7243
31.6708
27.4039
25.7134
25.455
27.2188
31.2061
38.1938
49.7265
68.8723
101.779
162.983
285.585
271.685
320.517
288.343
161.193
100.103
68.597
50.0253
38.4049
31.6826
27.6427
25.8226
25.7943
27.5401
31.4467
38.2757
49.5507
68.3841
101.074
162.324
285.354
289.898
303.447
286.441
160.802
100.288
68.4746
49.9349
38.3834
31.6367
27.507
25.7913
25.7852
27.56
31.4568
38.2465
49.4663
68.2891
101.508
162.885
284.512
270.855
280.868
283.966
160.406
100.607
68.6608
50.0029
38.4166
31.6527
27.3383
25.7233
25.733
27.5128
31.386
37.9634
49.3608
68.3123
100.874
162.092
284.207
270.348
277.903
281.946
160.129
102.018
69.2802
50.1543
38.5378
31.692
27.5821
25.7612
25.7374
27.5304
31.4612
38.2158
49.3138
67.8217
99.8884
160.813
283.08
272.266
283.284
282.574
160.622
101.337
69.2116
50.414
38.8415
31.6703
27.157
25.3472
25.5748
27.4313
31.419
38.2209
49.3669
67.7878
99.809
160.38
280.431
268.467
284.65
283.366
162.405
102.012
69.4394
50.5001
38.9018
31.7185
27.294
25.6412
25.3976
27.1438
31.374
38.1471
49.236
67.8261
100.353
160.811
280.57
272.196
291.24
284.473
163.429
102.497
69.6641
50.566
38.9109
31.7616
27.4131
25.7894
25.7978
27.5781
31.4234
37.9644
49.2681
67.8529
99.9465
160.929
281.584
273.343
294.371
285.651
164.355
103.045
69.8569
50.6489
38.9841
31.8272
27.6893
25.8323
25.7955
27.551
31.4061
38.1686
49.2636
67.84
100.006
160.939
281.327
295.803
313.856
286.727
165.113
103.427
70.0324
50.7116
38.9823
31.8107
27.6496
25.8209
25.7207
27.1472
31.3243
37.9862
49.4433
68.1196
100.444
161.359
285.035
299.441
320.4
289.885
166.231
104.164
70.4076
50.775
39.0088
31.7782
27.3416
25.4708
25.6703
27.2868
31.4006
38.2926
49.4966
68.1725
100.802
162.613
287.043
299.023
322.458
292.56
166.446
104.076
70.3474
50.6095
38.9401
31.6617
27.6311
25.788
25.586
27.5435
31.3092
38.3256
49.5187
68.1711
100.745
163.023
289.256
306.216
330.921
293.493
166.77
104.57
70.4615
50.8367
38.9439
31.6585
27.2484
25.5438
25.8523
27.6807
31.5889
38.3226
49.4466
68.1069
100.602
162.707
291.268
323.668
328.825
292.709
166.127
103.734
70.2464
50.4643
38.7832
31.3479
27.3642
25.8638
25.921
27.4388
31.5365
38.2454
49.1233
67.8302
100.045
161.299
287.108
311.015
323.519
290.347
165.714
103.97
70.4316
50.5394
38.5542
31.6736
27.6564
25.8671
26.0051
27.8015
31.5511
38.2063
49.1584
67.8279
100.286
161.047
286.317
336.043
308.983
290.68
165.285
103.483
70.2057
50.7366
38.8177
31.5301
27.7493
25.7002
25.9309
27.7414
31.2422
37.9031
49.1877
67.7071
100.024
160.582
283.071
304.254
320.523
288.662
164.182
103.804
70.3976
50.6913
39.1056
31.9776
27.917
26.0339
25.7791
27.81
31.6688
38.323
49.1456
67.6683
100.369
160.365
283.925
288.461
280.609
284.798
161.613
101.887
69.5848
50.6161
39.0075
31.8736
27.8279
25.7858
26.0576
27.8374
31.7374
38.4652
49.4094
67.8331
100.171
160.256
283.217
317.397
286.667
285.468
161.395
100.768
68.9768
50.4446
38.9618
31.4836
27.4873
26.0125
26.1475
27.9205
31.5102
38.4222
49.483
67.8337
99.8836
160.301
282.89
305.096
308.071
285.843
161.466
100.963
69.0915
50.5205
39.0323
31.9778
27.7256
25.8391
25.8626
27.9383
31.804
38.4137
49.4834
67.9859
100.254
160.405
283.239
291.57
281.912
282.505
161.278
101.306
69.2758
50.5662
38.7744
32.0066
28.0122
26.198
26.2054
27.9997
31.8073
38.1739
49.289
68.2135
100.701
160.272
282.713
306.217
281.938
283.8
161.603
101.772
69.5157
50.6871
39.0934
31.6953
27.5978
25.8178
26.092
27.9572
31.8548
38.6276
49.6168
68.723
101.618
161.47
283.509
275.471
307.206
284.885
162.188
102.173
69.7518
50.7254
39.083
32.0033
27.9424
26.0961
25.8448
27.6194
31.6453
38.6744
49.8232
69.1493
102.359
162.732
284.416
279.627
293.173
284.259
162.917
103.055
70.0434
50.6356
38.6371
31.8399
27.8555
26.0731
26.1136
27.9822
31.9321
38.8007
50.0534
69.3431
102.733
163.575
284.073
278.394
297.712
284.834
164.099
103.06
69.8964
50.5841
38.6514
31.4017
27.284
25.5147
25.6057
27.5553
31.5746
38.7397
50.1911
69.4279
102.744
164.239
285.924
281.048
305.94
286.646
165.476
103.52
70.0553
50.5033
38.8122
31.6728
27.5006
25.7292
25.8244
27.8783
31.9136
38.6615
50.3095
69.1742
102.046
164.238
285.641
279.194
330.671
288.951
166.693
103.979
70.2456
50.5822
38.4732
31.3673
27.7245
25.9919
26.0231
27.673
31.9236
38.9081
50.3641
69.3853
102.411
163.383
285.114
282.812
304.701
288.663
166.973
104.184
70.4641
50.6593
38.6873
31.802
27.791
26.0064
26.0678
27.8782
31.8572
38.6728
50.1564
68.8556
100.771
162.825
284.554
283.618
327.475
291.053
167.367
104.704
70.4377
50.4971
38.8181
31.715
27.6201
25.5931
25.8698
27.7971
31.799
38.5764
50.1148
69.0999
100.746
161.77
284.01
302.728
306.767
291.023
167.872
104.316
70.1956
50.586
38.7299
31.2355
27.1536
25.6676
25.5118
27.3756
31.4293
38.5435
50.0097
68.9128
100.766
161.792
284.151
286.65
307.655
293.171
168.171
104.39
70.3829
50.5199
38.664
31.4096
27.3001
25.7335
25.8139
27.7031
31.7234
38.6357
49.9182
69.0114
100.861
161.973
283.991
289.016
309.238
292.891
168.023
104.868
70.197
50.3398
38.3534
31.4973
27.4774
25.7559
25.8284
27.731
31.7516
38.64
49.8735
68.633
100.823
161.754
284.5
317.333
313.003
292.812
167.501
104.389
70.3552
50.5684
38.6314
31.1006
27.0657
25.6411
25.7448
27.6681
31.6813
38.6
49.9302
68.5971
100.643
161.391
285.187
304.122
340.781
293.958
166.719
103.662
70.0544
50.5595
38.472
31.2885
27.4302
25.673
25.7105
27.5961
31.6076
38.5454
49.9128
68.6242
100.569
161.439
285.293
291.375
327.751
292.879
166.674
104.493
69.9488
50.5563
38.7224
31.5326
27.405
25.6216
25.5915
27.3577
31.1535
38.1368
49.7252
68.6416
100.436
161.298
285.121
294.304
312.867
291.477
166.496
102.786
69.7497
50.4439
38.6747
31.5318
27.1372
25.6008
25.4217
27.4353
31.3373
38.2705
49.6731
68.1907
100.357
161.42
284.964
319.102
315.558
291.263
164.785
102.554
69.7751
50.2386
38.3078
31.5487
27.5538
25.7023
25.4834
27.6262
31.6493
38.4992
49.6884
68.1502
100.214
160.156
283.386
307.638
328.345
291.514
163.793
102.026
70.0824
50.2275
38.4241
31.5881
27.5796
25.774
25.8207
27.7023
31.7055
38.5383
49.6594
68.126
100.151
159.128
279.651
296.495
354.217
290.047
162.744
101.554
69.4342
50.1117
38.5476
31.5766
27.5954
25.7754
25.8029
27.6584
31.668
38.5086
49.5812
68.2161
100.746
158.115
275.89
308.253
312.635
284.612
161.018
100.94
68.8144
49.9995
38.4783
31.5019
27.4942
25.6686
25.7459
27.5942
31.5791
38.4475
49.6691
68.2564
100.597
157.675
273.069
270.114
300.626
283.56
160.707
101.721
69.0976
49.8025
38.0207
31.3069
27.3338
25.2336
25.2608
27.0292
31.0607
38.0682
49.6273
68.1362
100.034
157.696
273.759
273.971
328.12
283.182
160.325
100.995
68.7879
49.7964
37.9802
30.9183
27.272
25.546
25.5409
27.1718
31.2119
38.1692
49.6326
68.3638
100.968
157.956
275.095
276.155
313.531
280.624
160.251
101.904
69.0023
49.8518
38.0159
30.9526
26.8494
25.1114
25.4189
27.1543
31.3615
38.2999
49.6351
68.161
100.061
158.281
274.558
296.022
292.423
276.961
160.071
101.591
68.9717
49.8128
38.2635
31.2318
26.9836
25.1295
25.1016
27.0716
31.3159
38.2771
49.6759
68.199
99.809
158.718
275.237
279.163
291.715
276.632
159.073
100.983
68.9694
49.6218
38.1948
31.2406
27.1895
25.3187
25.2079
27.2676
31.2778
37.9573
49.6221
68.4453
100.408
158.791
275.984
283.101
306.185
277.93
158.676
101.433
68.9559
49.8455
38.1909
30.9015
27.0789
25.0524
25.353
27.2597
31.2536
38.1725
49.4819
68.5017
100.704
159.398
277.759
301.925
312.136
275.529
157.7
100.398
68.7524
49.7425
38.0766
31.0543
27.0539
25.2985
25.3319
27.091
30.7616
37.6952
49.3209
68.403
100.756
159.412
277.644
289.271
299.924
274.241
157.668
101.017
68.8693
49.6062
37.8223
30.5198
26.5221
24.8086
25.11
26.893
30.6296
37.626
49.3136
68.225
100.378
158.946
277.604
293.459
305.211
274.5
157.612
100.219
68.5506
49.0867
37.2263
30.5488
26.7867
24.8823
25.0143
26.5129
30.5018
37.4308
49.2281
68.3684
99.5723
157.796
277.184
320.324
332.962
274.407
157.603
100.69
68.8411
49.0655
37.2068
30.5619
26.6756
24.9014
24.9602
26.6996
30.5373
37.1438
48.7458
68.0035
99.7354
158.018
274.7
317.13
331.971
270.628
153.484
98.3697
68.0784
48.7179
36.9487
30.3438
26.4422
24.4579
24.4236
26.4596
30.3189
36.7996
48.2899
67.4069
97.1629
154.482
271.031
322.722
337.931
268.39
152.459
98.0632
67.7669
48.4745
36.5865
29.6368
25.822
24.3301
24.1916
25.8881
29.6751
36.3345
47.8151
66.8717
96.2659
154.298
266.606
319.775
341.589
265.535
151.857
98.1051
67.1658
47.8888
36.0823
29.2181
25.4631
23.8132
24.0567
25.8387
29.616
36.0144
47.3101
66.0665
94.9194
149.524
261.616
307.979
337.79
259.444
150.263
98.637
66.4617
47.0188
35.5017
28.7717
25.0925
23.451
23.7547
25.5012
28.9656
35.484
46.6149
65.2397
94.0237
150.014
256.9
328.367
321.826
247.912
146.278
96.8581
65.1104
46.0185
34.7687
28.2342
24.7427
23.1278
23.0505
24.7595
28.3694
34.7
45.6024
64.0692
93.2664
142.19
242.577
293.064
328.975
234.636
142.172
94.4632
63.4176
44.7774
33.8675
27.6462
24.3158
22.7909
22.8055
24.5278
27.7892
33.7617
44.2658
62.757
95.0282
142.323
238.797
321.328
372.174
230.511
136.028
91.0636
60.9369
43.1739
32.9301
27.123
24.18
22.7193
22.4797
23.8629
27.0248
32.7058
42.7048
60.3974
91.8643
146.657
233.24
298.759
342.323
223.005
127.868
86.9022
57.942
41.203
31.7045
26.3238
23.3986
22.0533
21.9851
23.2053
26.1034
31.4717
40.9214
57.7277
87.8271
137.549
210.863
333.075
315.152
220.441
126.534
82.7507
54.6653
39.0284
30.3002
25.3844
22.7275
21.4913
21.3889
22.49
25.1022
29.9616
38.6278
54.2841
83.1643
134.784
201.721
312.334
315.349
200.138
127.067
76.943
50.3036
36.184
28.4295
24.0609
21.6702
20.6145
20.6052
21.6213
23.9476
28.2524
35.989
50.1529
76.6294
124.372
194.8
323.661
351.587
197.902
116.192
69.407
45.4381
33.0243
26.3164
22.5876
20.5679
19.6666
19.6551
20.5301
22.5354
26.2626
33.0038
45.4925
69.7817
117.406
190.807
298.926
311.911
197.375
104.805
61.0248
39.9681
29.4371
23.872
20.8314
19.2132
18.5069
18.5134
19.2301
20.8726
23.9581
29.632
40.3312
61.6271
105.694
195.585
299.282
318.712
174.747
91.4951
52.0174
34.2388
25.7237
21.3411
18.992
17.7612
17.2315
17.2408
17.7882
19.0516
21.4617
25.9911
34.8203
53.2056
93.6506
176.763
309.101
319.212
162.821
78.9176
43.464
28.8689
22.2273
18.9371
17.2389
16.3836
16.0256
16.0317
16.4022
17.2826
19.0246
22.4045
29.2299
44.1595
80.0831
163.207
319.016
359.759
149.465
65.9383
35.5395
24.1004
19.2106
16.9206
15.8074
15.2939
15.0962
15.1004
15.3063
15.8325
16.9662
19.3035
24.2853
35.898
66.5988
150.454
359.684
401.204
136.594
53.8611
28.6991
20.2707
16.9738
15.6296
15.0809
14.8567
14.7768
14.7781
14.8602
15.0885
15.64
16.9886
20.2961
28.7557
53.946
136.798
403.116
435.165
112.972
39.5836
22.2367
17.2703
15.6626
15.0646
14.8495
14.7619
14.7265
14.7266
14.7629
14.8496
15.0635
15.662
17.266
22.2153
39.4984
112.734
436.207
467.473
58.614
21.8798
16.2202
15.0797
14.8574
14.8284
14.8024
14.7911
14.7892
14.7894
14.7911
14.8026
14.8283
14.8599
15.0831
16.2243
21.881
58.6255
467.201
917.877
697.327
398.912
242.736
149.582
91.9868
58.4714
40.2703
31.1636
27.591
28.003
32.2015
41.4685
58.8592
89.5018
141.913
232.318
393.411
697.118
883.098
978.761
701.036
403.553
246.819
150.155
91.3672
57.7321
39.6886
30.7193
27.2231
27.7075
31.9041
41.12
58.5259
89.2991
141.607
233.469
395.128
699.698
934.694
956.879
702.4
404.298
246.178
149.932
89.7121
55.9969
38.2968
29.6463
26.8279
27.5138
31.7502
40.9371
58.2016
89.2205
142.411
233.093
394.818
699.551
904.828
948.298
705.786
405.874
246.42
149.64
91.9139
58.5199
40.3949
31.1379
26.4218
26.7088
30.7431
40.4148
56.5886
88.5369
142.163
233.19
393.103
702.814
878.581
906.225
710.469
406.146
245.179
149.21
91.3357
58.0332
40.1213
31.2235
27.5089
27.6937
31.5468
39.7392
57.491
87.9787
141.072
233.25
394.34
701.127
887.468
916.32
713.147
406.435
247.053
148.945
90.8718
57.474
39.63
30.8712
27.3167
27.5527
31.5048
40.4141
57.1912
86.2915
140.366
232.205
395.009
707.348
944.345
975.597
713.541
405.536
244.818
147.107
88.1114
54.8954
37.6536
30.3655
27.063
27.2863
30.3811
39.0112
55.704
87.0805
139.616
231.112
391.048
699.415
941.282
952.207
711.744
403.536
242.437
146.802
88.479
55.4995
38.1864
30.1984
26.1337
26.5865
30.7823
39.7158
56.4802
86.0405
138.983
229.661
391.048
705.741
936.474
936.352
706.455
401.182
240.978
146.579
88.3615
55.6431
38.3395
29.5462
26.5817
27.2739
31.4677
40.491
57.4125
87.5998
138.259
227.631
388.614
701.869
879.394
879.333
700.859
399.762
239.213
146.858
89.8719
57.2787
39.7478
30.8359
25.9038
27.113
31.344
40.3038
57.1971
87.3761
137.656
227.066
387.277
699.221
885.778
881.487
704.318
398.965
239.162
146.919
88.614
55.8923
38.6369
31.0054
26.4984
26.5063
30.3918
38.9645
55.561
87.1902
137.644
226.073
385.94
701.789
897.714
900.667
707.045
399.533
240.113
147.594
91.1586
58.3251
40.471
31.3141
27.4742
27.3686
31.385
39.9862
56.3001
86.5681
137.981
226.397
385.628
696.679
942.635
913.143
707.991
398.471
239.095
146.617
89.1646
56.451
40.0868
31.0989
27.3599
26.6521
31.0504
39.1212
54.8236
88.4817
139.13
227.492
386.029
696.789
863.863
974.54
709.084
398.172
238.073
146.282
89.6796
57.7246
39.9684
31.0253
27.4411
27.7131
32.0355
41.086
56.5491
89.1168
138.311
227.396
386.586
696.885
914.868
962.339
705.117
397.437
237.954
145.15
90.0605
57.3936
38.414
30.5062
27.1171
27.4297
31.9005
41.215
57.8416
89.7655
140.777
230.516
385.537
702.651
854.216
953.064
701.535
396.013
237.61
144.667
89.4632
56.7828
39.111
30.3157
26.7535
26.466
31.5618
41.1531
58.7617
90.2239
140.18
231.415
389.232
705.162
856.289
917.069
691.892
395.034
236.448
143.952
88.891
56.1018
38.6001
29.0832
25.7694
26.9
30.7134
39.8488
57.0482
90.354
142.86
232.143
392.727
707.76
869.154
950.075
693.803
394.045
234.842
142.69
87.2841
53.9701
38.1126
29.9925
26.0334
26.3228
31.3666
40.9432
57.911
90.5984
144.511
235.018
396.686
710.541
874.619
872.753
694.958
393.38
234.714
142.018
88.961
55.9808
36.9258
29.7623
26.3453
26.5291
31.1966
40.9126
58.6275
90.1999
143.223
234.674
400.241
713.197
891.628
917.304
694.964
390.996
232.814
141.669
89.2346
55.0835
38.1226
29.2602
25.4176
26.831
30.1177
40.3921
58.2398
89.6777
143.269
235.007
399.497
712.295
899.199
866.101
691.36
388.795
230.911
142.146
89.5512
57.8349
39.7052
30.8269
26.4083
27.1118
30.4148
39.3495
56.7096
87.9946
141.752
234.012
396.337
706.058
912.562
877.193
684.461
386.915
230.749
142.04
89.56
57.9109
38.3173
30.6829
27.1437
27.2008
31.1422
40.3485
57.6041
88.5183
141.317
233.588
397.154
705.95
948.132
922.195
691.566
388.258
231.06
142.002
89.1613
57.8639
38.9786
29.9982
26.9053
26.4612
30.3423
40.123
57.2447
88.0976
140.355
232.01
392.327
705.544
889.949
856.935
688.532
388.235
231.421
144.012
88.1133
57.6046
40.1866
31.0796
26.635
27.4051
31.4684
39.2433
56.511
86.6454
140.097
231.017
390.947
703.827
944.373
858.002
688.16
388.115
232.44
144.399
90.5003
58.12
40.0688
31.021
27.1923
26.7098
31.4573
39.8923
55.18
87.3677
140.165
228.336
384.445
690.032
910.371
872.344
685.608
387.619
232.411
143.547
90.0644
56.4742
38.2556
29.6227
26.2521
26.9529
31.5223
39.4274
56.3894
86.5827
139.971
227.208
381.364
684.005
957.183
879.499
689.329
386.69
231.766
143.872
89.9004
58.2113
39.2406
30.3304
26.7199
27.6045
31.6443
40.5763
57.4757
88.1562
139.644
226.223
379.879
677.789
880.198
892.778
684.691
385.535
231.561
143.433
88.2947
58.3619
40.2353
31.0278
27.0393
27.551
31.5242
39.6265
55.8193
87.8564
139.612
226.011
379.82
680.606
838.777
930.527
679.649
383.571
231.281
143.073
90.229
58.4728
40.0103
30.8922
26.6103
26.7383
31.3015
40.5501
56.4705
87.7458
139.456
226.293
378.436
678.201
891.186
845.988
675.668
382.758
230.915
141.712
90.2779
58.5005
39.3975
30.6653
27.2847
27.4208
30.5633
40.4591
57.3341
86.8995
139.74
226.652
380.24
682.362
852.163
857.96
673.715
381.704
230.114
142.414
90.029
58.5226
37.6128
29.497
27.0249
27.4051
31.3279
39.5465
56.4337
88.5152
139.641
227.338
381.295
679.118
895.004
890.095
666.354
381.913
230.56
143.589
89.1318
59.1241
39.3912
30.9447
26.9312
26.5971
30.5423
40.5535
58.1781
88.8232
140.678
227.848
382.027
686.63
845.546
802.251
666.048
381.845
231.116
144.015
92.2724
59.6742
40.901
31.0232
26.3006
27.146
31.0198
40.1815
57.8156
88.4909
140.714
228.942
384.025
687.917
898.08
808.292
666.332
382.483
231.64
145.667
92.4043
59.5957
40.6035
30.9943
27.1004
26.562
29.7589
38.6293
56.5823
87.325
140.306
229.607
384.613
685.175
864.705
818.546
661.384
385.21
232.039
145.361
92.1016
59.2937
40.0554
29.7675
26.3295
27.1594
30.8565
40.0813
58.6024
89.7445
142.186
230.339
383.29
680.18
878.45
830.204
672.009
385.64
232.36
144.717
92.1324
59.317
38.8674
30.4621
26.8778
26.6056
31.3801
40.7079
58.2289
89.2967
142.444
230.982
386.782
694.061
897.985
843.798
681.565
385.321
232.863
145.739
92.0839
59.3309
40.6113
29.806
26.247
26.6898
30.5337
39.291
56.3582
87.4009
142.05
230.834
388.126
701.177
920.159
888.425
682.948
381.885
232.176
145.111
91.5442
58.896
40.6323
30.874
27.3066
27.3752
31.1479
39.5086
56.671
87.7541
141.923
231.151
389.633
699.209
990.107
887.478
676.209
386.271
233.796
144.83
90.9808
58.5586
40.3946
30.9558
27.0712
27.2178
31.0432
39.2155
56.2827
87.8951
141.383
231.506
391.493
706.979
958.785
899.063
687.26
387.768
234.171
143.487
90.2318
56.7918
38.7744
29.5398
25.9375
26.8421
30.8057
39.0436
56.2901
89.1706
142.213
231.716
391.056
699.179
907.238
887.733
689.829
388.439
234.224
143.45
89.9552
58.0836
39.6925
30.0194
26.7499
26.3381
30.664
38.9241
56.2752
89.1466
141.591
232.055
390.895
703.736
949.865
857.143
684.561
388.834
234.527
144.005
88.3948
57.7609
38.9658
29.8968
26.2265
26.9641
30.0919
38.7367
56.985
89.0578
142.751
232.966
392.228
700.878
863.469
866.07
690.369
390.595
234.784
143.497
88.8708
57.5105
39.8561
30.5057
26.6854
27.0198
30.5493
38.8135
55.7541
89.0412
143.111
233.832
393.293
702.557
874.805
877.891
685.16
390.478
234.02
144.192
89.6675
57.3313
39.863
30.3182
25.8379
26.9259
29.8901
39.5115
57.3572
88.8346
143.041
234.134
393.106
703.506
884.934
917.441
689.657
389.714
233.671
143.415
89.3496
56.0439
39.7568
29.6117
26.5665
27.1705
30.9216
39.598
57.0898
88.5373
142.8
234.62
395.771
702.074
872.728
857.402
677.781
389.177
233.005
143.322
89.1864
57.999
40.1365
30.8953
27.0326
27.2443
30.8672
38.3089
56.7875
88.1522
142.571
234.812
397.501
712.208
888.303
903.903
687.551
389.741
233.049
142.606
87.4217
57.8994
39.8238
30.7534
26.2526
27.0532
30.8509
39.5159
56.5424
87.7945
141.87
235.04
399.439
712.809
898.693
858.576
689.194
389.053
233.082
143.765
90.1573
58.0213
38.6248
30.7482
27.2365
27.0333
30.5532
39.1066
56.1089
86.4278
141.578
234.188
397.914
707.779
913.385
866.569
688.94
389.454
233.427
142.772
90.0913
58.0868
39.8688
30.2257
27.2914
27.0906
30.486
37.8314
54.7179
86.1359
141.115
233.869
397.427
711.146
953.441
918.991
686.43
389.379
232.891
144.162
90.0897
58.5786
39.0858
31.3416
27.3421
26.3566
29.7919
38.9931
55.4475
85.4927
140.462
233.879
396.97
702.192
879.53
871.454
691.773
387.956
233.024
144.268
88.1157
58.5281
41.1308
31.7063
27.5488
27.2565
30.6346
38.702
54.0279
85.022
140.335
234.269
397.292
707.665
897.808
882.682
691.639
389.202
233.755
144.494
89.1628
57.4991
41.2565
31.6993
27.4368
27.1855
30.5671
37.8442
55.1881
84.6489
139.664
233.346
397.306
704.945
939.963
943.274
687.253
389.253
234.85
144.407
90.7517
59.5463
41.379
31.4847
27.1558
26.9647
30.4723
38.7094
54.1095
84.4605
138.209
232.963
396.066
706.882
870.759
893.716
689.53
390.865
236.431
146.713
89.7932
59.416
40.9892
31.1066
26.3059
26.1971
29.6992
37.711
55.0188
85.6283
137.688
231.037
394.918
703.633
916.532
846.709
691.032
391.103
236.294
147.216
92.6261
59.4844
40.584
30.1964
27.4772
27.6696
31.3542
38.8243
53.5566
84.8951
138.616
230.815
395.17
707.12
874.761
848.199
691.419
391.539
235.876
147.269
92.3621
59.2321
39.32
30.5212
27.5201
27.7246
31.6476
40.387
56.121
88.5114
140.35
229.95
392.534
703.89
892.435
862.87
691.972
391.111
236.162
147.271
90.965
58.1097
40.0443
31.3464
27.554
27.6885
31.7205
40.7002
58.0532
89.045
140.504
228.706
390.231
706.065
936.739
871.463
690.341
391.793
236.827
147.693
93.0874
59.9394
41.096
31.3028
26.6627
27.3382
31.5091
41.1761
58.5251
89.2805
140.632
229.472
387.426
698.722
932.492
927.341
688.508
390.258
237.094
147.842
93.2737
59.7032
40.7844
30.4711
27.0869
26.6933
30.6119
41.1246
58.2577
88.6745
139.739
230.493
388.79
702.22
932.88
882.211
675.05
388.513
237.865
147.544
92.9382
59.1386
40.4181
31.1718
26.6772
27.828
32.132
41.4445
57.6177
90.8221
142.114
231.341
387.505
695.862
917.119
841.95
674.356
388.069
236.822
147.705
92.7432
58.7874
39.1067
31.1075
26.871
27.7599
32.0314
41.5081
59.5028
91.2422
144.033
232.034
391.553
702.236
878.541
847.548
677.337
388.83
237.969
147.914
92.405
58.381
40.4457
31.2711
27.4152
27.5951
31.7862
41.2805
59.2477
91.1335
145.739
235.351
393.872
702.038
887.504
900.141
674.257
387.801
235.715
147.101
92.2389
56.0849
39.9171
31.0741
27.1615
26.5081
30.4522
39.6988
58.7635
89.6308
145.257
236.292
395.181
701.118
909.648
867.823
676.996
387.688
235.736
147.229
92.4834
57.801
38.9724
29.9849
26.3602
26.9747
31.356
40.6614
57.9953
91.1266
144.222
235.716
394.652
701.425
961.504
844.895
680.412
386.887
235.423
146.972
92.4688
59.2548
40.5887
31.0979
27.1849
27.6803
32.2808
41.9028
59.7107
91.4092
144.437
236.263
396.864
704.651
916.254
852.888
680.631
386.862
235.324
146.59
91.0338
57.6516
40.1612
30.8097
26.2676
27.2921
32.2777
41.9706
59.8607
91.4579
144.682
236.743
396.975
712.015
980.57
900.869
679.308
386.328
234.254
145.962
92.1445
59.1576
39.212
30.8786
27.1837
26.9383
32.1132
41.7516
59.6292
91.5506
145.476
237.362
398.627
713.661
955.072
859.503
680.59
386.346
233.168
145.87
91.993
59.1869
40.6993
30.0253
26.9548
27.2464
32.0344
41.5947
59.5302
91.3836
145.399
237.271
398.058
706.945
1015.78
867.108
678.449
385.761
233.339
145.739
91.3888
57.4809
40.4321
30.6999
26.333
27.2427
31.7013
41.0954
58.9678
91.0246
145.262
237.337
395.684
702.794
920.316
918.15
675.942
385.14
233.491
145.259
89.9655
58.2555
40.1848
29.8187
26.9178
27.1974
31.2459
40.5887
58.4173
90.562
145.088
237.073
392.269
700.171
864.579
874.417
676.315
384.776
233.602
144.851
89.7966
57.7645
39.7616
30.4127
26.1181
26.6555
29.8881
38.9226
57.5283
89.8193
144.241
235.621
391.676
701.331
883.783
882.577
673.726
383.772
233.005
144.495
88.7661
55.7504
38.0276
29.2345
26.2965
26.5076
30.1753
39.1538
56.846
89.2989
143.872
233.768
391.342
702.804
920.45
897.844
671.226
382.421
232.349
143.971
88.571
56.1352
38.5709
29.6371
26.064
26.0465
29.5927
38.3995
55.8995
87.5028
143.389
234.138
390.901
699.054
920.666
938.915
673.124
380.736
231.06
142.728
87.6515
55.2977
37.9983
29.1225
24.9343
24.7929
28.7597
37.4738
53.9392
86.4678
142.913
232.382
390.584
699.629
886.473
882.713
671.714
378.916
228.788
141.044
85.2184
54.0227
36.1785
28.3373
25.0472
24.6558
28.0601
35.7366
52.6323
84.7343
140.801
230.037
389.644
701.836
896.882
903.625
670.847
377.448
228.416
139.942
84.2928
53.1353
36.1191
28.1716
24.7118
23.8232
27.0187
34.5287
50.3405
82.127
139.15
228.906
385.108
701.772
960.838
950.732
667.749
371.962
223.525
137.587
82.1513
50.612
34.4144
27.4942
23.7849
23.4939
26.3712
33.6513
49.2348
80.0461
137.228
230.651
384.181
698.695
947.301
902.768
662.869
370.059
222.088
135.071
79.3994
49.2374
33.7012
26.4394
23.5119
23.3851
26.1628
33.0728
47.903
78.2448
135.243
227.976
382.91
692.988
953.016
963.154
657.53
368.56
221.352
132.711
77.6721
47.7976
32.9373
26.0736
23.2413
23.2464
26.1051
32.8236
46.7498
75.7809
132.017
228.918
381.068
687.726
925.092
910.125
642.473
367.863
222.358
128.912
75.0713
46.4114
32.0508
25.691
23.0167
23.3853
26.393
33.0451
45.6859
73.792
128.501
223.912
377.931
680.659
867.84
859.71
626.936
356.137
214.23
123.749
72.683
45.1103
31.1851
24.6592
22.3579
22.929
25.909
32.4987
44.8934
71.7639
125.356
220.941
377.051
667.482
869.744
888.319
609.833
343.759
205.503
119.085
68.8925
42.9648
30.0484
24.1562
21.7066
21.7945
24.5178
30.9618
44.4831
69.3472
120.732
214.113
371.172
667.761
909.265
821.878
595.702
330.075
198.092
114.264
65.6616
40.416
28.7939
23.336
21.161
21.26
23.7006
29.9559
42.2207
66.7919
116.826
207.43
360.116
650.106
870.617
879.593
587.1
318.88
191.04
108.146
61.518
38.6728
27.6953
22.4801
20.4568
20.5928
22.9814
28.5069
40.1957
64.1714
112.698
201.198
348.164
626.929
794.18
825.841
572.185
307.504
182.792
102.081
58.121
36.6153
26.5408
21.8637
20.0005
20.1202
22.3149
27.4648
38.428
61.0058
107.808
193.57
335.521
596.541
783.369
780.562
559.087
297.818
173.907
95.0682
53.9093
34.6326
25.5735
21.2491
19.5485
19.6679
21.6447
26.3055
36.1116
57.1935
101.15
184.845