/*--------------------------------*- C++ -*----------------------------------*\
  =========                 |
  \\      /  F ield         | OpenFOAM: The Open Source CFD Toolbox
   \\    /   O peration     | Website:  https://openfoam.org
    \\  /    A nd           | Version:  6
     \\/     M anipulation  |
\*---------------------------------------------------------------------------*/
FoamFile
{
    version     2.0;
    format      ascii;
    class       volScalarField;
    location    "8";
    object      k;
}
// * * * * * * * * * * * * * * * * * * * * * * * * * * * * * * * * * * * * * //

dimensions      [0 2 -2 0 0 0 0];

internalField   nonuniform List<scalar> 
10000
(
0.22296
0.473125
0.435603
0.409145
0.394587
0.386969
0.382686
0.379316
0.377112
0.375939
0.375807
0.376601
0.378318
0.38105
0.384997
0.39121
0.403071
0.428813
0.465238
0.202312
0.234827
0.476075
0.438578
0.412152
0.396097
0.387564
0.384611
0.380687
0.377562
0.37616
0.376106
0.377549
0.379769
0.38204
0.388075
0.394503
0.403927
0.429706
0.466486
0.201149
0.218092
0.473964
0.442111
0.417926
0.398873
0.387298
0.383293
0.379741
0.377639
0.376358
0.376227
0.376861
0.378731
0.381401
0.385416
0.390944
0.401985
0.427283
0.465083
0.198084
0.220022
0.471966
0.431241
0.40789
0.391331
0.386111
0.384588
0.380427
0.377384
0.375927
0.375915
0.377248
0.379676
0.381876
0.387263
0.392785
0.401749
0.425924
0.461861
0.19769
0.201105
0.467439
0.428152
0.403078
0.390221
0.385332
0.383464
0.379464
0.376732
0.375389
0.375302
0.376446
0.378837
0.38221
0.383795
0.389274
0.400263
0.423606
0.457481
0.195878
0.206018
0.459136
0.420946
0.39964
0.389843
0.385351
0.382955
0.378651
0.376074
0.374839
0.37473
0.375703
0.377758
0.380901
0.383842
0.390118
0.401184
0.424234
0.45775
0.204052
0.191758
0.457769
0.421451
0.404806
0.394889
0.387871
0.382743
0.377642
0.375332
0.374269
0.374164
0.375037
0.376799
0.37966
0.384238
0.393878
0.401626
0.423884
0.454759
0.197943
0.189135
0.458533
0.421507
0.397574
0.389603
0.3838
0.38149
0.377364
0.375383
0.374757
0.374424
0.37549
0.378334
0.382054
0.38689
0.391224
0.402872
0.428355
0.456865
0.198843
0.190769
0.460785
0.423279
0.396586
0.386081
0.383504
0.381327
0.377355
0.375487
0.374859
0.374617
0.37566
0.378375
0.382033
0.387042
0.392641
0.40472
0.428561
0.457919
0.200352
0.192027
0.460324
0.426778
0.401197
0.38665
0.382698
0.380865
0.378124
0.3763
0.375317
0.375418
0.376505
0.378742
0.382323
0.386674
0.396122
0.408667
0.426955
0.45817
0.202177
0.194307
0.458637
0.418792
0.395259
0.38669
0.384908
0.379974
0.377321
0.375973
0.375242
0.375454
0.376321
0.378439
0.381882
0.388196
0.393012
0.404461
0.426734
0.459207
0.206913
0.201962
0.457175
0.41821
0.396485
0.387549
0.383767
0.38029
0.377552
0.375786
0.375157
0.375679
0.377345
0.37979
0.382279
0.387163
0.396915
0.410026
0.432089
0.466268
0.210412
0.195419
0.457563
0.419651
0.397063
0.38818
0.386407
0.382619
0.379308
0.377077
0.376123
0.376255
0.377459
0.379983
0.384117
0.38874
0.396019
0.409524
0.433925
0.467385
0.216867
0.207127
0.459173
0.424479
0.402969
0.389539
0.38449
0.381194
0.379007
0.377114
0.376209
0.376295
0.377166
0.379381
0.383179
0.389989
0.397176
0.41115
0.435345
0.466367
0.22953
0.201972
0.451328
0.421038
0.399751
0.390174
0.387444
0.383587
0.380023
0.377766
0.376652
0.37665
0.377496
0.379769
0.383587
0.389431
0.398687
0.41431
0.438095
0.467921
0.220198
0.199166
0.451539
0.423181
0.400913
0.391411
0.386444
0.383603
0.380249
0.378075
0.376966
0.377113
0.378601
0.381609
0.386394
0.393183
0.400961
0.419493
0.445082
0.470266
0.214372
0.189647
0.450317
0.421702
0.407121
0.393011
0.387717
0.383806
0.380774
0.378343
0.377155
0.377284
0.378744
0.38178
0.386673
0.394011
0.404703
0.421431
0.448469
0.476021
0.229253
0.188809
0.448749
0.423324
0.407043
0.396451
0.38799
0.384297
0.380745
0.378284
0.377121
0.377275
0.378791
0.382053
0.387024
0.394441
0.403934
0.422554
0.452532
0.479121
0.220436
0.192082
0.454084
0.423859
0.40351
0.393412
0.389523
0.383732
0.380072
0.377766
0.376723
0.376858
0.378194
0.381258
0.386336
0.394117
0.406359
0.424585
0.452358
0.479904
0.210775
0.195739
0.457722
0.429109
0.404548
0.393375
0.387811
0.384558
0.380837
0.378215
0.377065
0.377152
0.378189
0.380872
0.385255
0.391481
0.401031
0.417687
0.448307
0.480655
0.208589
0.200794
0.4587
0.429015
0.406762
0.394826
0.38954
0.383298
0.379748
0.377464
0.376501
0.376671
0.378021
0.380821
0.385682
0.391771
0.400625
0.416628
0.4504
0.48116
0.210507
0.209229
0.462561
0.431488
0.411443
0.397282
0.387333
0.38265
0.379778
0.377459
0.376447
0.376608
0.377968
0.380817
0.386611
0.394186
0.400929
0.415294
0.43932
0.478082
0.212144
0.207293
0.465673
0.428133
0.403769
0.390552
0.3846
0.381059
0.37871
0.37757
0.376737
0.37697
0.378304
0.380628
0.384769
0.391284
0.401367
0.41644
0.436727
0.475878
0.220101
0.216128
0.465124
0.427493
0.406792
0.390451
0.384305
0.380753
0.378431
0.377114
0.376242
0.376421
0.377577
0.379124
0.382154
0.386948
0.394123
0.40671
0.43243
0.47145
0.208581
0.215453
0.463463
0.426971
0.401752
0.389232
0.383697
0.380486
0.378726
0.376769
0.375831
0.376071
0.377444
0.379651
0.382398
0.389245
0.397775
0.410584
0.434845
0.470711
0.211776
0.212868
0.462299
0.431386
0.403234
0.389739
0.384161
0.381703
0.37831
0.376153
0.37526
0.375537
0.376854
0.378585
0.381663
0.386393
0.393253
0.403978
0.428585
0.46724
0.198843
0.203836
0.45898
0.425765
0.405966
0.38994
0.386061
0.381104
0.377234
0.37538
0.374514
0.374899
0.376453
0.379161
0.382166
0.38885
0.397091
0.404215
0.428465
0.466052
0.205927
0.205207
0.460506
0.425143
0.401321
0.389643
0.383723
0.379848
0.377164
0.375692
0.374268
0.37414
0.375391
0.377824
0.382257
0.385478
0.3921
0.402397
0.427138
0.463185
0.197465
0.219326
0.460852
0.430058
0.406733
0.394307
0.386872
0.381747
0.378153
0.375391
0.374136
0.373901
0.374501
0.37616
0.380205
0.385796
0.393972
0.402853
0.427901
0.461902
0.190449
0.216855
0.4643
0.424904
0.400303
0.390171
0.384322
0.380061
0.377146
0.375142
0.374137
0.373998
0.374636
0.376186
0.378775
0.382745
0.389385
0.40294
0.429447
0.459458
0.190689
0.215623
0.463407
0.423205
0.39977
0.393029
0.386761
0.380676
0.377452
0.375398
0.374426
0.37469
0.375718
0.377943
0.381229
0.385936
0.390581
0.403454
0.426438
0.460039
0.191262
0.205824
0.464002
0.423573
0.398982
0.389065
0.38419
0.381727
0.37884
0.376311
0.374634
0.374312
0.37513
0.377433
0.380292
0.38502
0.393948
0.40928
0.427785
0.459717
0.189784
0.204939
0.46309
0.427183
0.402492
0.391066
0.385124
0.380961
0.378418
0.375852
0.374647
0.37438
0.375128
0.377287
0.379149
0.382987
0.390532
0.40528
0.427544
0.461823
0.191131
0.208081
0.462777
0.427091
0.404102
0.395146
0.388203
0.382719
0.378253
0.375993
0.375195
0.375041
0.375347
0.377338
0.379363
0.383495
0.391289
0.408562
0.428937
0.461725
0.192098
0.215411
0.462927
0.426802
0.402345
0.390962
0.385149
0.381254
0.378094
0.375961
0.374929
0.374957
0.375307
0.376906
0.379842
0.384415
0.39383
0.403703
0.430177
0.461429
0.191124
0.197896
0.460636
0.430358
0.407599
0.39265
0.386094
0.381882
0.379358
0.37694
0.37521
0.374845
0.375436
0.37717
0.381203
0.385397
0.39177
0.40402
0.433817
0.464132
0.193062
0.201929
0.458438
0.427555
0.40731
0.39341
0.386885
0.383632
0.379794
0.377234
0.375845
0.375116
0.375579
0.377077
0.379698
0.384172
0.392786
0.403663
0.427948
0.460924
0.194644
0.20989
0.458411
0.433122
0.408307
0.395443
0.388138
0.383558
0.379646
0.37714
0.375873
0.375694
0.376612
0.378618
0.381454
0.385021
0.395502
0.408189
0.429158
0.461564
0.197592
0.21637
0.463108
0.436239
0.410531
0.397142
0.389387
0.385101
0.380408
0.378108
0.376532
0.375831
0.376269
0.378249
0.380539
0.384727
0.392407
0.406045
0.430513
0.459966
0.20435
0.220115
0.466853
0.439711
0.413677
0.402923
0.393471
0.38639
0.381835
0.37859
0.376793
0.376213
0.376374
0.377999
0.381106
0.387719
0.39712
0.410998
0.431643
0.46206
0.207347
0.226208
0.475443
0.444258
0.415365
0.402819
0.393429
0.386256
0.381885
0.378679
0.376947
0.376505
0.377141
0.378425
0.381495
0.386898
0.397358
0.411392
0.436024
0.464619
0.20775
0.232272
0.481686
0.447365
0.420177
0.403584
0.393803
0.387063
0.381949
0.378624
0.376907
0.376587
0.377364
0.379528
0.382102
0.38738
0.397755
0.411735
0.440061
0.47011
0.208757
0.233398
0.482986
0.447987
0.417783
0.401287
0.391954
0.385774
0.381107
0.378069
0.376469
0.376346
0.376945
0.379479
0.382764
0.389514
0.398947
0.414333
0.439112
0.47414
0.211786
0.235135
0.484126
0.452429
0.418081
0.400951
0.391261
0.386368
0.381651
0.378131
0.376463
0.376054
0.376796
0.378869
0.383375
0.387864
0.396622
0.408887
0.439944
0.473912
0.222035
0.2282
0.481603
0.447618
0.418011
0.400949
0.390245
0.384353
0.380462
0.377918
0.376697
0.376403
0.377155
0.378583
0.38218
0.389722
0.400702
0.408043
0.432663
0.471341
0.209556
0.239756
0.479832
0.447846
0.419105
0.402361
0.389785
0.38403
0.38036
0.378131
0.376329
0.375878
0.376533
0.378576
0.381859
0.387101
0.396405
0.40642
0.429126
0.469126
0.209115
0.220299
0.476616
0.43815
0.408306
0.394821
0.388068
0.383434
0.380133
0.377685
0.376325
0.376224
0.377014
0.378386
0.382678
0.387786
0.392338
0.408522
0.428136
0.465197
0.210991
0.20586
0.476104
0.438419
0.407187
0.394049
0.388234
0.383546
0.380938
0.378492
0.376785
0.375881
0.376351
0.37768
0.380227
0.384349
0.390928
0.402782
0.426227
0.460295
0.21617
0.205264
0.472851
0.439766
0.405108
0.392721
0.387328
0.383069
0.380082
0.378046
0.3766
0.376159
0.376354
0.378114
0.381744
0.384667
0.390951
0.402102
0.425061
0.460583
0.202719
0.202565
0.466433
0.428979
0.40368
0.392638
0.389229
0.383597
0.380943
0.378138
0.376505
0.376022
0.376546
0.378817
0.380806
0.384944
0.395028
0.403858
0.42635
0.461004
0.206584
0.210789
0.464474
0.427399
0.403296
0.392167
0.38687
0.383732
0.380581
0.377806
0.376221
0.375684
0.376892
0.378812
0.382025
0.385051
0.393546
0.404136
0.427603
0.461094
0.214042
0.201986
0.464205
0.431299
0.408599
0.396776
0.390099
0.384761
0.380566
0.377574
0.376056
0.375722
0.376498
0.377755
0.380396
0.38442
0.391501
0.407697
0.432371
0.461798
0.196566
0.201809
0.463134
0.42879
0.405086
0.393695
0.3883
0.384647
0.380187
0.377042
0.375566
0.375128
0.375879
0.377457
0.380161
0.384267
0.390937
0.404509
0.432393
0.464968
0.197592
0.211641
0.463041
0.430674
0.410716
0.398331
0.391665
0.384753
0.379836
0.376423
0.375072
0.375009
0.376277
0.377595
0.38042
0.384867
0.391728
0.405163
0.435779
0.465564
0.196024
0.207575
0.463949
0.432915
0.409212
0.395988
0.389428
0.383395
0.379173
0.376232
0.375006
0.37492
0.375723
0.377513
0.380604
0.385546
0.394927
0.405883
0.432571
0.469278
0.197583
0.210376
0.465288
0.434625
0.413522
0.399173
0.388006
0.382163
0.378411
0.376126
0.375116
0.375549
0.376441
0.377936
0.3814
0.388154
0.39376
0.4091
0.436285
0.470826
0.199025
0.224923
0.46704
0.436539
0.41011
0.396218
0.390255
0.384306
0.379751
0.376972
0.375662
0.375478
0.375981
0.378019
0.382763
0.388409
0.396737
0.405447
0.43434
0.470976
0.200609
0.220934
0.473919
0.444352
0.416026
0.399822
0.389912
0.383561
0.378945
0.376242
0.374981
0.37512
0.376174
0.377902
0.381917
0.387488
0.396057
0.405196
0.433163
0.46973
0.202513
0.215344
0.479274
0.445976
0.41321
0.396816
0.388099
0.382584
0.379299
0.376284
0.374871
0.374588
0.375463
0.37799
0.380539
0.385455
0.395328
0.405394
0.42947
0.465794
0.206424
0.215284
0.480587
0.448258
0.413377
0.397111
0.389304
0.384118
0.379616
0.376478
0.375315
0.374748
0.375423
0.377258
0.380324
0.384922
0.392379
0.40818
0.428739
0.462513
0.208534
0.218477
0.480052
0.449892
0.414177
0.400893
0.390602
0.383858
0.379249
0.376823
0.375204
0.375273
0.375988
0.377658
0.380923
0.385501
0.391727
0.404145
0.427983
0.462724
0.202798
0.219804
0.47989
0.446003
0.413296
0.398509
0.389354
0.383492
0.379453
0.376713
0.375131
0.375083
0.376478
0.378667
0.382825
0.388419
0.392741
0.405391
0.429479
0.463786
0.204277
0.232588
0.480186
0.450833
0.416749
0.397367
0.388423
0.382996
0.378967
0.376305
0.375086
0.375041
0.376293
0.37786
0.380933
0.385507
0.392381
0.406954
0.43408
0.465089
0.216346
0.227279
0.474799
0.440403
0.41267
0.396275
0.387683
0.382265
0.378272
0.376553
0.375229
0.37513
0.37644
0.378605
0.38286
0.388502
0.393374
0.409844
0.434123
0.465267
0.211106
0.227725
0.470472
0.432693
0.409203
0.393139
0.385518
0.380975
0.377984
0.376156
0.375465
0.375388
0.375979
0.378091
0.381617
0.387469
0.393274
0.410443
0.433129
0.469121
0.219935
0.222943
0.47127
0.432315
0.404967
0.395886
0.38809
0.382571
0.378221
0.376069
0.375002
0.374919
0.3759
0.378886
0.382801
0.388437
0.393319
0.407437
0.432913
0.468981
0.207831
0.234786
0.47342
0.434259
0.405318
0.392462
0.385256
0.380847
0.377947
0.376092
0.375123
0.375353
0.376211
0.378081
0.38073
0.387334
0.393611
0.407957
0.436799
0.469471
0.218324
0.220336
0.471671
0.437646
0.406343
0.39249
0.385042
0.380682
0.377887
0.376126
0.375406
0.375171
0.375656
0.377957
0.380222
0.385822
0.396159
0.411607
0.435816
0.468878
0.211154
0.235858
0.471769
0.43363
0.407117
0.393858
0.386071
0.381311
0.378229
0.376212
0.375046
0.374777
0.375423
0.377517
0.37994
0.386418
0.39165
0.407973
0.437147
0.468071
0.217296
0.227475
0.47168
0.432747
0.407258
0.398399
0.389586
0.382332
0.379482
0.377223
0.375706
0.375282
0.37541
0.376757
0.379163
0.383176
0.390077
0.403739
0.430527
0.464735
0.199848
0.214837
0.466141
0.432268
0.407422
0.396956
0.388545
0.382141
0.378811
0.376892
0.375346
0.375071
0.376131
0.377268
0.379903
0.384052
0.391225
0.404363
0.430524
0.462703
0.200008
0.215277
0.463397
0.431116
0.407377
0.394971
0.387583
0.382551
0.3791
0.376924
0.375939
0.375418
0.376092
0.377792
0.380712
0.385196
0.39222
0.404827
0.42982
0.459527
0.198437
0.209382
0.463955
0.436802
0.413917
0.396725
0.38873
0.38486
0.380975
0.378311
0.376839
0.376637
0.377618
0.379827
0.382597
0.387031
0.394307
0.406842
0.429299
0.459252
0.208095
0.213974
0.465742
0.437401
0.414357
0.401003
0.391885
0.385451
0.381259
0.378491
0.377053
0.376907
0.378024
0.380564
0.384493
0.38842
0.395829
0.408581
0.431338
0.462889
0.204348
0.222663
0.466258
0.440108
0.414484
0.400215
0.391161
0.385035
0.380918
0.37848
0.377384
0.377392
0.378552
0.381279
0.386187
0.392135
0.401119
0.414661
0.432293
0.461631
0.201316
0.206183
0.464602
0.437823
0.41953
0.40479
0.394411
0.387139
0.382242
0.379305
0.377863
0.3779
0.379403
0.382403
0.386829
0.391389
0.39954
0.413245
0.433247
0.463551
0.202195
0.210982
0.467116
0.438835
0.41652
0.402511
0.393082
0.386427
0.381974
0.379495
0.378237
0.378349
0.379904
0.38302
0.387585
0.392355
0.400621
0.415548
0.433525
0.464329
0.211095
0.220866
0.46772
0.440719
0.423726
0.408997
0.397764
0.389516
0.383922
0.38054
0.378968
0.379009
0.380629
0.38386
0.38861
0.39386
0.401895
0.414132
0.43477
0.463888
0.204653
0.211482
0.466467
0.442055
0.424886
0.410687
0.399411
0.390832
0.384989
0.381411
0.379715
0.379779
0.381566
0.385134
0.390264
0.395444
0.403575
0.415765
0.435961
0.464471
0.205966
0.214015
0.466661
0.447949
0.430146
0.415217
0.40283
0.3931
0.386424
0.382422
0.380606
0.380688
0.382606
0.386449
0.392355
0.400124
0.410104
0.423352
0.442445
0.465656
0.216578
0.227171
0.466716
0.444201
0.427017
0.414901
0.404263
0.394605
0.387751
0.383571
0.381675
0.381769
0.383799
0.387859
0.39408
0.401227
0.410289
0.422733
0.442766
0.464932
0.208274
0.220529
0.464954
0.437297
0.423251
0.41408
0.405515
0.396346
0.389303
0.384972
0.382997
0.383066
0.385134
0.389323
0.395965
0.405146
0.416256
0.429764
0.443494
0.464133
0.208363
0.223597
0.458396
0.435029
0.423521
0.41582
0.408189
0.398466
0.391185
0.386682
0.384631
0.384676
0.386773
0.39101
0.397516
0.405754
0.41406
0.425053
0.437745
0.461681
0.209436
0.238001
0.447799
0.436811
0.429127
0.421537
0.411428
0.401104
0.393554
0.388862
0.386679
0.38667
0.388761
0.392974
0.399327
0.406739
0.41067
0.419493
0.440482
0.452375
0.215875
0.220307
0.442867
0.42377
0.421087
0.418214
0.412784
0.403477
0.396138
0.391446
0.38921
0.38914
0.391171
0.395304
0.401493
0.408494
0.411363
0.42075
0.427112
0.43882
0.190082
0.234054
0.440916
0.419919
0.420805
0.419316
0.415334
0.406464
0.399232
0.394529
0.392235
0.392059
0.393976
0.397955
0.403897
0.410344
0.41147
0.410994
0.413941
0.426938
0.188744
0.212922
0.426624
0.413613
0.4265
0.422217
0.418126
0.409591
0.402641
0.398057
0.395745
0.395457
0.397168
0.400869
0.406525
0.413227
0.418047
0.4134
0.40932
0.411965
0.185489
0.231386
0.414776
0.410204
0.417539
0.420316
0.419087
0.41217
0.406055
0.401825
0.399584
0.3992
0.400643
0.403882
0.408775
0.414406
0.418608
0.421883
0.41875
0.407932
0.187877
0.214646
0.407672
0.409977
0.417603
0.420689
0.420084
0.414587
0.409316
0.40557
0.40352
0.403092
0.404259
0.406915
0.410757
0.414529
0.416117
0.414584
0.406664
0.39317
0.188221
0.229471
0.391405
0.402965
0.423998
0.422244
0.419359
0.415795
0.411819
0.408771
0.407062
0.406667
0.40755
0.409582
0.412237
0.41321
0.4119
0.406706
0.395371
0.388602
0.192638
0.203813
0.388608
0.405182
0.415544
0.4244
0.420767
0.415773
0.412885
0.410678
0.40945
0.409179
0.409821
0.411292
0.413338
0.415072
0.4119
0.406049
0.393137
0.37292
0.193935
0.223575
0.369558
0.418735
0.414903
0.419715
0.417677
0.414414
0.412178
0.410463
0.409789
0.409679
0.410069
0.410894
0.412177
0.412873
0.414583
0.407066
0.396396
0.385295
0.200313
0.21022
0.368601
0.414256
0.413333
0.417316
0.414386
0.411678
0.409744
0.408597
0.408111
0.408113
0.408495
0.40934
0.410659
0.410803
0.409443
0.405693
0.39556
0.365172
0.204856
0.215765
0.368646
0.406086
0.410641
0.412072
0.408581
0.405899
0.404288
0.403483
0.403201
0.403348
0.403865
0.404928
0.406564
0.408802
0.408292
0.407227
0.411163
0.368269
0.228996
0.229623
0.379293
0.418575
0.411908
0.404647
0.400445
0.397939
0.396478
0.395745
0.395507
0.395693
0.396258
0.397384
0.399215
0.402093
0.40587
0.405805
0.40549
0.378032
0.235644
0.257171
0.393437
0.411923
0.402776
0.396164
0.391948
0.3893
0.387704
0.386848
0.386516
0.386657
0.38724
0.388403
0.390325
0.393395
0.398169
0.4057
0.412737
0.39111
0.254701
0.286434
0.409479
0.411533
0.397264
0.388731
0.383892
0.381019
0.379378
0.378525
0.378179
0.378269
0.378782
0.379828
0.381671
0.384758
0.389889
0.398914
0.415264
0.410457
0.287413
0.315512
0.439708
0.416043
0.392938
0.382842
0.378029
0.375749
0.374678
0.374221
0.374056
0.374093
0.374329
0.374847
0.375991
0.378343
0.383121
0.393208
0.415889
0.439888
0.316341
0.338924
0.449729
0.408153
0.38628
0.378468
0.375519
0.37435
0.373828
0.373532
0.37343
0.373454
0.373642
0.373908
0.374429
0.375606
0.378546
0.386287
0.408148
0.450204
0.339412
0.364958
0.427336
0.388067
0.377954
0.375417
0.374675
0.374341
0.374201
0.374187
0.374178
0.37417
0.374141
0.374204
0.374353
0.374689
0.375424
0.377931
0.387982
0.427297
0.364838
0.667292
0.955246
0.840597
0.721523
0.622019
0.536686
0.475118
0.437262
0.416096
0.406522
0.406147
0.414467
0.433105
0.466097
0.518821
0.594079
0.689582
0.812343
0.942728
0.632092
0.683073
0.96202
0.848728
0.725755
0.62783
0.538599
0.473398
0.436076
0.415097
0.404285
0.404066
0.412684
0.431683
0.465843
0.520283
0.602645
0.694091
0.818556
0.949926
0.643981
0.711249
0.970959
0.862584
0.725034
0.621703
0.536549
0.472125
0.433005
0.413106
0.405919
0.40616
0.414644
0.43326
0.466526
0.521213
0.597079
0.694533
0.8202
0.950932
0.670978
0.682184
0.956692
0.839461
0.724959
0.623727
0.536258
0.471909
0.433449
0.414511
0.406316
0.40662
0.41508
0.433495
0.465985
0.52034
0.602136
0.698914
0.833255
0.950768
0.642003
0.658091
0.966035
0.844692
0.725793
0.620324
0.53539
0.471884
0.433204
0.412573
0.405557
0.406253
0.414784
0.432646
0.466575
0.521336
0.59534
0.703076
0.829408
0.950965
0.677553
0.694567
0.963893
0.859168
0.739417
0.622923
0.535981
0.472796
0.434012
0.41324
0.404098
0.405826
0.414711
0.433864
0.467247
0.521761
0.595332
0.708376
0.840808
0.951267
0.668051
0.677898
0.961641
0.838371
0.721999
0.62514
0.535989
0.475561
0.436904
0.415299
0.405316
0.405853
0.413452
0.433524
0.466496
0.520458
0.593892
0.698438
0.824814
0.95156
0.705852
0.713224
0.966148
0.837727
0.721966
0.619529
0.536497
0.476514
0.437056
0.414639
0.406697
0.405346
0.414366
0.433599
0.466587
0.519518
0.594046
0.686111
0.80866
0.946705
0.663382
0.668047
0.966741
0.850508
0.736412
0.62843
0.539063
0.478169
0.439836
0.417671
0.407555
0.406505
0.414596
0.432496
0.466076
0.520825
0.599
0.685304
0.803071
0.949365
0.635196
0.644016
0.950807
0.835993
0.733358
0.627016
0.538781
0.477962
0.439717
0.417527
0.407069
0.404455
0.412777
0.432775
0.465971
0.517807
0.591788
0.692983
0.804295
0.940477
0.668672
0.681326
0.955402
0.836408
0.73585
0.629388
0.539914
0.477993
0.439292
0.417049
0.406701
0.404673
0.412548
0.431564
0.465467
0.518513
0.596326
0.684655
0.805897
0.94404
0.638765
0.68103
0.959543
0.840598
0.734934
0.628216
0.538754
0.476809
0.438001
0.415529
0.405589
0.405009
0.412304
0.43159
0.465139
0.519607
0.592171
0.686686
0.80882
0.932128
0.608275
0.685857
0.959579
0.842719
0.727341
0.62427
0.53679
0.475244
0.437023
0.413645
0.404092
0.404515
0.412096
0.431938
0.465218
0.518215
0.593723
0.689976
0.815588
0.930391
0.608069
0.67895
0.959955
0.849911
0.738876
0.631455
0.536739
0.474966
0.434853
0.413706
0.404731
0.403368
0.412399
0.431757
0.465854
0.521121
0.599699
0.694471
0.811178
0.939757
0.61855
0.714473
0.960185
0.837842
0.721167
0.621834
0.53591
0.474746
0.435305
0.41482
0.404387
0.404325
0.411267
0.430364
0.46542
0.520592
0.601228
0.698752
0.825322
0.948711
0.625415
0.656884
0.961097
0.828217
0.726388
0.624002
0.537198
0.474318
0.436032
0.414841
0.404932
0.404457
0.412667
0.431726
0.465531
0.519806
0.603512
0.709704
0.826781
0.952922
0.660278
0.611986
0.949487
0.828333
0.719499
0.617558
0.533944
0.471412
0.433186
0.413799
0.402614
0.402204
0.410858
0.431231
0.465066
0.519168
0.602843
0.708471
0.827525
0.957735
0.656069
0.613042
0.948341
0.83106
0.711684
0.611258
0.530973
0.470184
0.434558
0.414086
0.403321
0.403077
0.411701
0.431302
0.464501
0.518252
0.602555
0.719857
0.837536
0.963907
0.666993
0.61179
0.94727
0.846388
0.725202
0.617821
0.52929
0.469769
0.433731
0.413886
0.40475
0.404261
0.412496
0.431181
0.464125
0.517498
0.595754
0.706568
0.822794
0.963565
0.670267
0.619014
0.953991
0.837094
0.713422
0.608467
0.528377
0.469129
0.431461
0.413749
0.404902
0.404347
0.412226
0.430795
0.464058
0.517749
0.594713
0.695923
0.822358
0.966138
0.668165
0.622492
0.942618
0.826528
0.706329
0.608183
0.528982
0.471034
0.43367
0.414082
0.404926
0.404207
0.410884
0.429417
0.464019
0.518467
0.599783
0.703402
0.830009
0.944642
0.646464
0.65047
0.939608
0.837405
0.71875
0.616491
0.529865
0.471116
0.432682
0.414398
0.405281
0.404722
0.41222
0.429675
0.463665
0.519222
0.590856
0.687522
0.812313
0.939434
0.608593
0.620446
0.934187
0.822169
0.710637
0.611845
0.529881
0.471409
0.434017
0.414695
0.405221
0.404539
0.412198
0.429324
0.462282
0.51627
0.590603
0.686538
0.80921
0.935143
0.605554
0.626025
0.937617
0.834094
0.726104
0.621299
0.532522
0.472689
0.435648
0.415177
0.405249
0.404139
0.411995
0.42999
0.462163
0.513736
0.59437
0.686486
0.809206
0.934792
0.61007
0.661066
0.939513
0.831589
0.724131
0.620707
0.532482
0.472087
0.433796
0.414679
0.40475
0.402291
0.41142
0.429741
0.461847
0.512922
0.585046
0.683047
0.807163
0.933049
0.609815
0.655564
0.939726
0.827432
0.72957
0.625626
0.534109
0.474182
0.436414
0.414319
0.404105
0.40235
0.410133
0.42862
0.462237
0.514908
0.585189
0.683745
0.813057
0.929165
0.614445
0.655226
0.936338
0.828574
0.729634
0.630579
0.537823
0.478124
0.440238
0.417691
0.406972
0.403904
0.411756
0.430076
0.462958
0.512963
0.584575
0.683829
0.801477
0.913844
0.631573
0.638799
0.934883
0.841126
0.726391
0.632412
0.541014
0.47926
0.4411
0.418041
0.407724
0.405312
0.411405
0.429963
0.463667
0.514074
0.586094
0.678302
0.788229
0.908647
0.584475
0.606091
0.934198
0.832753
0.735456
0.633751
0.542207
0.478973
0.441209
0.417236
0.407886
0.40501
0.41396
0.432432
0.464419
0.515126
0.588526
0.690952
0.800665
0.917132
0.592372
0.606743
0.937069
0.840825
0.723607
0.631638
0.545274
0.480827
0.440251
0.418981
0.408744
0.407112
0.414805
0.432909
0.46509
0.516336
0.590367
0.686494
0.798773
0.91826
0.596193
0.634272
0.944958
0.833619
0.73448
0.627678
0.544507
0.482144
0.442672
0.419311
0.407545
0.406533
0.414426
0.432644
0.465164
0.517235
0.595861
0.682471
0.796401
0.922225
0.605956
0.60137
0.952132
0.84792
0.735573
0.63271
0.546672
0.481086
0.441159
0.418044
0.407434
0.405891
0.413825
0.43238
0.465018
0.517718
0.588843
0.683552
0.79836
0.926674
0.612737
0.602979
0.959977
0.847426
0.733569
0.623344
0.543622
0.479297
0.438586
0.416612
0.40486
0.404323
0.411566
0.430725
0.46456
0.516594
0.590644
0.692523
0.802376
0.929832
0.626527
0.626877
0.960515
0.841878
0.72649
0.622076
0.542718
0.476598
0.437739
0.415376
0.404582
0.402446
0.411359
0.430449
0.46434
0.517243
0.591479
0.694017
0.80521
0.939278
0.638061
0.626152
0.956437
0.849004
0.734157
0.620527
0.539248
0.474378
0.436485
0.414341
0.402652
0.401583
0.409096
0.428438
0.463969
0.52004
0.593622
0.696224
0.815053
0.948422
0.67821
0.632771
0.956124
0.826601
0.713203
0.618425
0.537107
0.471784
0.433053
0.412991
0.40329
0.401305
0.408759
0.428177
0.463149
0.517905
0.594368
0.692242
0.812929
0.954283
0.675088
0.62912
0.944077
0.826286
0.713426
0.623983
0.535068
0.470418
0.432397
0.410733
0.401244
0.400679
0.408678
0.427384
0.462954
0.519765
0.600076
0.700272
0.82002
0.957396
0.675461
0.617089
0.94575
0.826309
0.711758
0.612727
0.531498
0.468691
0.431288
0.411338
0.401787
0.400936
0.40824
0.427032
0.462256
0.516769
0.592257
0.688706
0.811239
0.95652
0.653748
0.623293
0.95063
0.839147
0.7246
0.612612
0.530086
0.469447
0.433182
0.412885
0.402929
0.401857
0.408708
0.427195
0.46205
0.519324
0.598611
0.697183
0.813975
0.947456
0.6772
0.630964
0.953437
0.831525
0.713676
0.612098
0.531471
0.470866
0.432489
0.413269
0.402154
0.401436
0.407026
0.425227
0.460827
0.516386
0.592164
0.686484
0.81589
0.942731
0.611762
0.656065
0.941093
0.840834
0.715465
0.613008
0.530964
0.470726
0.433795
0.414025
0.404802
0.403563
0.409047
0.427307
0.461519
0.518477
0.597344
0.686523
0.8251
0.928321
0.615992
0.624354
0.938626
0.830624
0.727838
0.620743
0.532835
0.472668
0.435728
0.414155
0.405271
0.404229
0.410549
0.428272
0.460457
0.51487
0.587927
0.686185
0.815198
0.93044
0.619459
0.656928
0.940982
0.842756
0.725609
0.615924
0.532672
0.472496
0.435739
0.41372
0.4056
0.404728
0.411978
0.429278
0.461212
0.514567
0.589233
0.688826
0.809372
0.941201
0.654051
0.629563
0.93528
0.831481
0.721724
0.616457
0.533655
0.471831
0.435909
0.4151
0.405536
0.4035
0.410771
0.428307
0.460705
0.513424
0.589932
0.69179
0.823198
0.945321
0.6293
0.602799
0.931967
0.815115
0.709809
0.621676
0.533768
0.473999
0.435632
0.41371
0.40458
0.405228
0.412763
0.429969
0.4616
0.51614
0.59696
0.702442
0.824558
0.953353
0.641879
0.602668
0.929406
0.811307
0.708656
0.615558
0.53353
0.473913
0.434373
0.415906
0.406628
0.405714
0.412917
0.429
0.462436
0.515489
0.593794
0.698827
0.823166
0.955105
0.679838
0.610719
0.930699
0.811872
0.720288
0.624072
0.533647
0.474421
0.437151
0.41678
0.407033
0.405864
0.413092
0.430282
0.463188
0.51569
0.592413
0.696145
0.817801
0.952589
0.666198
0.615205
0.929866
0.808381
0.700384
0.613001
0.532641
0.473765
0.435306
0.41615
0.406745
0.405861
0.413792
0.431878
0.463482
0.51469
0.588287
0.688026
0.823287
0.953899
0.655397
0.646135
0.934637
0.807059
0.698629
0.610173
0.534455
0.473851
0.436497
0.415805
0.406077
0.403793
0.41224
0.430943
0.463685
0.515685
0.590069
0.688005
0.807722
0.93856
0.621486
0.618807
0.929839
0.808953
0.701681
0.618362
0.533823
0.471693
0.435551
0.415173
0.405651
0.404073
0.412666
0.432432
0.464926
0.517632
0.597316
0.700231
0.819394
0.942032
0.624073
0.62498
0.929843
0.808586
0.704435
0.612451
0.53213
0.470848
0.432836
0.412285
0.403381
0.403825
0.413473
0.432697
0.465182
0.51724
0.593641
0.69583
0.811005
0.949422
0.654976
0.659512
0.938795
0.812221
0.719263
0.620236
0.531218
0.469314
0.432691
0.41248
0.403942
0.404877
0.413008
0.432639
0.465345
0.517997
0.595286
0.704482
0.810643
0.946717
0.612677
0.632369
0.936429
0.819986
0.711803
0.611942
0.528994
0.469544
0.432594
0.412182
0.403508
0.405003
0.413778
0.432871
0.465574
0.520148
0.600424
0.702772
0.811464
0.940542
0.612799
0.655318
0.938495
0.807662
0.704771
0.604946
0.527895
0.469894
0.433465
0.41309
0.403711
0.404656
0.413392
0.432789
0.466181
0.518898
0.596186
0.698191
0.810409
0.939992
0.62118
0.619177
0.931873
0.809103
0.715763
0.606066
0.527443
0.469803
0.433541
0.413211
0.40307
0.404054
0.412916
0.431257
0.465772
0.520527
0.601626
0.711377
0.814393
0.943803
0.627736
0.653787
0.942501
0.811114
0.701627
0.606242
0.526954
0.469584
0.433491
0.413261
0.403758
0.402602
0.411348
0.431747
0.465001
0.517845
0.592861
0.695311
0.817919
0.948067
0.659543
0.646911
0.942854
0.812167
0.704941
0.608242
0.529164
0.469878
0.433469
0.413152
0.403736
0.403373
0.411655
0.431722
0.465484
0.518735
0.594051
0.685889
0.79992
0.928395
0.625766
0.643047
0.94186
0.815567
0.719297
0.617412
0.530697
0.470052
0.431945
0.412633
0.403189
0.402111
0.411732
0.431203
0.465201
0.519879
0.597192
0.691715
0.804685
0.93021
0.632759
0.625341
0.937845
0.814273
0.712379
0.614859
0.531023
0.470155
0.433521
0.412466
0.403096
0.402927
0.410797
0.430361
0.464835
0.520518
0.601265
0.707546
0.821326
0.942085
0.642808
0.646627
0.942007
0.81369
0.705076
0.612647
0.53189
0.471443
0.433631
0.410567
0.402133
0.401419
0.411635
0.431677
0.466153
0.523039
0.604383
0.709525
0.825168
0.944909
0.674839
0.609257
0.928224
0.812703
0.705751
0.618191
0.532057
0.470527
0.433446
0.411383
0.40078
0.401956
0.410368
0.43061
0.466638
0.52456
0.609903
0.715782
0.831826
0.946
0.639218
0.6387
0.931145
0.814785
0.707574
0.610332
0.532669
0.471979
0.432837
0.413511
0.402519
0.40124
0.411149
0.431823
0.466437
0.524698
0.610932
0.712786
0.830292
0.950041
0.675005
0.619156
0.93359
0.813976
0.708766
0.611614
0.532773
0.473182
0.43612
0.414396
0.404285
0.402713
0.412889
0.431786
0.467417
0.52453
0.606583
0.724103
0.82414
0.939341
0.65223
0.641901
0.939752
0.815891
0.713236
0.613594
0.532569
0.473971
0.436639
0.415279
0.404436
0.403594
0.413427
0.433043
0.467666
0.523478
0.604496
0.709092
0.8318
0.942009
0.625468
0.611009
0.932967
0.814537
0.72452
0.615096
0.532709
0.47318
0.435539
0.413384
0.405202
0.404973
0.413291
0.432658
0.46676
0.524888
0.608896
0.697069
0.820052