/*--------------------------------*- C++ -*----------------------------------*\
  =========                 |
  \\      /  F ield         | OpenFOAM: The Open Source CFD Toolbox
   \\    /   O peration     | Website:  https://openfoam.org
    \\  /    A nd           | Version:  6
     \\/     M anipulation  |
\*---------------------------------------------------------------------------*/
FoamFile
{
    version     2.0;
    format      ascii;
    class       volScalarField;
    location    "8";
    object      k;
}
// * * * * * * * * * * * * * * * * * * * * * * * * * * * * * * * * * * * * * //

dimensions      [0 2 -2 0 0 0 0];

internalField   nonuniform List<scalar> 
130000
(
0.404747
0.404808
0.403243
0.400272
0.396187
0.391342
0.386101
0.380804
0.375731
0.371088
0.367004
0.363541
0.360703
0.358457
0.356741
0.355485
0.354612
0.354054
0.353747
0.35364
0.405027
0.405137
0.403585
0.400596
0.396476
0.391585
0.386298
0.380962
0.375859
0.371196
0.367103
0.363636
0.360801
0.358559
0.356851
0.355602
0.354737
0.354186
0.353886
0.353785
0.405241
0.405383
0.403842
0.400845
0.3967
0.391775
0.386453
0.381083
0.375953
0.371269
0.36716
0.363681
0.360837
0.35859
0.356878
0.355627
0.354761
0.35421
0.353914
0.353817
0.405393
0.405546
0.404002
0.40099
0.396821
0.391869
0.386523
0.381133
0.375987
0.371289
0.367169
0.363682
0.360831
0.358577
0.35686
0.355604
0.354736
0.354184
0.353888
0.353791
0.405494
0.405638
0.404076
0.401041
0.396853
0.391883
0.386524
0.381122
0.375968
0.371264
0.367142
0.363654
0.360803
0.35855
0.356834
0.355579
0.354713
0.354162
0.353865
0.353768
0.40556
0.405683
0.404091
0.401032
0.396825
0.391842
0.386472
0.381065
0.375908
0.371205
0.367086
0.363603
0.360758
0.358511
0.3568
0.355551
0.35469
0.354143
0.353851
0.353759
0.405609
0.405701
0.404078
0.400993
0.396764
0.391766
0.386387
0.380976
0.37582
0.371123
0.367011
0.363537
0.360702
0.358464
0.356762
0.355521
0.354668
0.354128
0.353843
0.353756
0.405642
0.4057
0.404047
0.400934
0.396683
0.39167
0.386283
0.380869
0.375717
0.371027
0.366925
0.363463
0.360639
0.358413
0.356723
0.355494
0.354652
0.354124
0.353844
0.353759
0.405677
0.405701
0.404018
0.400875
0.3966
0.39157
0.386173
0.380758
0.375609
0.370927
0.366837
0.363387
0.360576
0.358363
0.356686
0.355469
0.354641
0.35412
0.353839
0.353752
0.405722
0.405715
0.403999
0.400824
0.396522
0.391473
0.386066
0.380648
0.375502
0.370829
0.366749
0.363312
0.360515
0.358315
0.35665
0.355444
0.354624
0.35411
0.353832
0.353747
0.405776
0.40574
0.403993
0.400783
0.396454
0.391385
0.385966
0.380544
0.375401
0.370735
0.366667
0.363242
0.360459
0.358272
0.356618
0.35542
0.354604
0.354099
0.353827
0.353743
0.40584
0.405774
0.403992
0.400752
0.396394
0.391305
0.385874
0.380447
0.375306
0.370647
0.366589
0.363176
0.360406
0.358231
0.356589
0.355399
0.354588
0.354085
0.353807
0.353722
0.405912
0.405818
0.404
0.400733
0.396347
0.391236
0.385791
0.380358
0.375218
0.370565
0.366516
0.363116
0.360358
0.358195
0.356563
0.355385
0.354582
0.35408
0.353806
0.353722
0.406002
0.40588
0.404029
0.400729
0.396312
0.391177
0.385717
0.380277
0.375136
0.370488
0.366448
0.363059
0.360312
0.35816
0.356539
0.355368
0.354569
0.354067
0.353802
0.353722
0.406101
0.405952
0.404067
0.400732
0.396286
0.391128
0.385651
0.380203
0.375061
0.370417
0.366384
0.363005
0.360269
0.358127
0.356514
0.355349
0.354557
0.35406
0.353799
0.353722
0.406207
0.406034
0.404115
0.400744
0.396273
0.391089
0.385595
0.380136
0.374992
0.37035
0.366325
0.362953
0.360227
0.358095
0.35649
0.355333
0.354548
0.354055
0.353795
0.353717
0.406326
0.406129
0.404179
0.400774
0.396272
0.391065
0.385551
0.380081
0.374932
0.370292
0.366271
0.362907
0.360189
0.358065
0.356467
0.355314
0.354528
0.354038
0.353785
0.353709
0.406464
0.406244
0.404263
0.400823
0.396286
0.391055
0.385522
0.38004
0.374884
0.370243
0.366226
0.362869
0.360157
0.358041
0.356451
0.355303
0.354525
0.354039
0.353785
0.35371
0.406632
0.406387
0.404373
0.400896
0.396322
0.39106
0.385509
0.380012
0.374849
0.370206
0.366191
0.362839
0.360135
0.358026
0.356444
0.355302
0.354525
0.354038
0.353782
0.353713
0.406816
0.406548
0.404501
0.400986
0.396377
0.391084
0.385508
0.379998
0.374825
0.37018
0.366166
0.362818
0.36012
0.358018
0.356438
0.355298
0.35452
0.354041
0.353797
0.353736
0.407015
0.406725
0.404645
0.401093
0.396448
0.391123
0.385521
0.379994
0.374812
0.370162
0.366149
0.362807
0.360113
0.358014
0.356434
0.355302
0.354536
0.354067
0.353829
0.353774
0.40723
0.406918
0.404805
0.401216
0.396533
0.391174
0.385545
0.379998
0.374807
0.370153
0.36614
0.362801
0.360111
0.358016
0.356448
0.355326
0.35457
0.354107
0.353875
0.353823
0.407467
0.407132
0.404984
0.401355
0.396632
0.391237
0.385579
0.380011
0.374806
0.370147
0.366136
0.3628
0.360117
0.358035
0.356479
0.355368
0.35462
0.354164
0.353935
0.353885
0.407717
0.40736
0.405177
0.401507
0.396742
0.39131
0.385621
0.38003
0.37481
0.370144
0.366131
0.362801
0.360128
0.358058
0.356514
0.355413
0.354674
0.354225
0.353999
0.35395
0.407985
0.407605
0.405386
0.401674
0.396867
0.391395
0.385673
0.380057
0.374818
0.370143
0.366122
0.362792
0.360123
0.358059
0.356523
0.355433
0.354701
0.354255
0.354028
0.35398
0.408272
0.40787
0.405614
0.401858
0.397005
0.391491
0.385734
0.380089
0.37483
0.37014
0.366111
0.362775
0.360105
0.358042
0.356512
0.355428
0.3547
0.354258
0.354037
0.353993
0.408588
0.40816
0.405864
0.402061
0.397159
0.3916
0.385804
0.380129
0.374847
0.370142
0.366107
0.362768
0.360098
0.358038
0.356507
0.355422
0.354697
0.354259
0.354041
0.353997
0.408921
0.408466
0.406129
0.402277
0.397325
0.39172
0.385883
0.380175
0.37487
0.370149
0.366105
0.362762
0.360091
0.358035
0.356504
0.355412
0.35469
0.354253
0.354035
0.35399
0.40927
0.408789
0.40641
0.402508
0.397504
0.39185
0.385971
0.380229
0.374899
0.370159
0.366103
0.362753
0.36008
0.358024
0.356495
0.355411
0.354688
0.354252
0.354038
0.353996
0.409635
0.409127
0.406705
0.402752
0.397695
0.39199
0.386068
0.380291
0.374933
0.370175
0.366107
0.362752
0.360074
0.358013
0.356487
0.355412
0.354688
0.354253
0.354039
0.354
0.410016
0.409483
0.407018
0.403012
0.3979
0.392144
0.386175
0.380362
0.374976
0.370197
0.366117
0.362755
0.360075
0.358014
0.356486
0.355413
0.35469
0.354258
0.354048
0.354002
0.410415
0.409857
0.407349
0.40329
0.398121
0.392311
0.386295
0.380442
0.375026
0.370226
0.36613
0.362758
0.360076
0.358016
0.356488
0.35541
0.354691
0.354258
0.354043
0.353997
0.410834
0.410252
0.4077
0.403586
0.398359
0.392493
0.386428
0.380535
0.375088
0.370264
0.366152
0.362768
0.360076
0.358013
0.356484
0.355405
0.354686
0.354255
0.354043
0.354003
0.411274
0.41067
0.408073
0.403902
0.398615
0.392691
0.386575
0.38064
0.37516
0.370313
0.366183
0.362787
0.360087
0.358014
0.356482
0.355404
0.354685
0.354254
0.354042
0.354
0.411738
0.411112
0.40847
0.404241
0.398891
0.392907
0.386738
0.380759
0.375245
0.370372
0.366225
0.362818
0.36011
0.358032
0.356495
0.355409
0.354686
0.354253
0.35404
0.353997
0.412228
0.411581
0.408893
0.404604
0.399189
0.393142
0.386917
0.380891
0.37534
0.370441
0.366275
0.362856
0.360141
0.358059
0.356521
0.355434
0.354711
0.354277
0.354064
0.35402
0.412747
0.412079
0.409344
0.404993
0.399511
0.393398
0.387114
0.381038
0.375448
0.370519
0.366333
0.3629
0.360177
0.358092
0.356552
0.355466
0.354744
0.354312
0.354099
0.354055
0.413297
0.41261
0.409827
0.405411
0.399858
0.393677
0.387331
0.381202
0.37557
0.37061
0.3664
0.362953
0.360221
0.358131
0.35659
0.355505
0.354785
0.354355
0.354143
0.354099
0.413882
0.413177
0.410345
0.405862
0.400236
0.393982
0.38757
0.381387
0.37571
0.370716
0.366482
0.363018
0.360276
0.358181
0.356638
0.355554
0.354835
0.354406
0.354195
0.354148
0.414504
0.413781
0.4109
0.406348
0.400645
0.394316
0.387836
0.381594
0.37587
0.37084
0.366581
0.363099
0.360347
0.358246
0.3567
0.355615
0.354897
0.354467
0.354254
0.354205
0.415166
0.414428
0.411495
0.406872
0.401089
0.394681
0.388129
0.381826
0.376052
0.370984
0.366697
0.363197
0.360433
0.358325
0.356776
0.355689
0.35497
0.354539
0.354324
0.354271
0.415872
0.415119
0.412134
0.407438
0.401572
0.395081
0.388453
0.382084
0.376258
0.371149
0.366833
0.363312
0.360534
0.358418
0.356865
0.355775
0.355054
0.354622
0.354404
0.354347
0.416625
0.415859
0.412822
0.408048
0.402095
0.395517
0.388809
0.382372
0.376489
0.371336
0.366988
0.363444
0.360651
0.358526
0.356967
0.355875
0.355152
0.354717
0.354496
0.354435
0.417429
0.416653
0.413561
0.408708
0.402664
0.395994
0.389202
0.38269
0.376748
0.371548
0.367164
0.363596
0.360786
0.35865
0.357085
0.355989
0.355263
0.354825
0.354601
0.354534
0.418291
0.417505
0.414358
0.409421
0.403281
0.396515
0.389633
0.383043
0.377036
0.371786
0.367364
0.363768
0.36094
0.358792
0.35722
0.356118
0.355389
0.354948
0.354719
0.354646
0.419214
0.418421
0.415216
0.410193
0.403952
0.397084
0.390106
0.383434
0.377358
0.372052
0.36759
0.363964
0.361116
0.358954
0.357373
0.356266
0.355533
0.355088
0.354854
0.354775
0.420203
0.419404
0.416142
0.411028
0.404682
0.397705
0.390627
0.383866
0.377716
0.372351
0.367844
0.364186
0.361315
0.359139
0.357548
0.356435
0.355697
0.355247
0.355008
0.354922
0.421262
0.420462
0.417142
0.411933
0.405476
0.398385
0.391199
0.384343
0.378114
0.372686
0.368131
0.364437
0.361541
0.359348
0.357747
0.356626
0.355883
0.355427
0.355184
0.355089
0.4224
0.421604
0.418223
0.412916
0.406342
0.39913
0.39183
0.384872
0.378558
0.373062
0.368453
0.364721
0.361798
0.359586
0.357973
0.356844
0.356094
0.355633
0.355383
0.355281
0.423629
0.422839
0.419397
0.413986
0.407288
0.399947
0.392525
0.385459
0.379053
0.373483
0.368817
0.365042
0.362089
0.359856
0.358229
0.35709
0.356334
0.355866
0.355611
0.355501
0.424961
0.424179
0.420673
0.415153
0.408323
0.400845
0.393292
0.386109
0.379604
0.373954
0.369227
0.365406
0.362419
0.360164
0.35852
0.357371
0.356606
0.356129
0.355864
0.355743
0.426403
0.425632
0.42206
0.416425
0.409455
0.401831
0.394139
0.38683
0.380219
0.374483
0.369688
0.365817
0.362794
0.360513
0.358852
0.35769
0.356915
0.356428
0.356152
0.356018
0.427962
0.427208
0.423568
0.417812
0.410695
0.402915
0.395073
0.387631
0.380905
0.375076
0.370209
0.366282
0.36322
0.360911
0.359231
0.358054
0.357267
0.356769
0.35648
0.356331
0.429646
0.428915
0.425208
0.419326
0.412051
0.404106
0.396104
0.388519
0.381671
0.375741
0.370796
0.36681
0.363705
0.361364
0.359662
0.35847
0.35767
0.357158
0.356852
0.356685
0.431471
0.43077
0.426993
0.420979
0.413538
0.405417
0.397245
0.389506
0.382527
0.376489
0.371458
0.367408
0.364256
0.361882
0.360156
0.358945
0.35813
0.357603
0.35728
0.357094
0.433449
0.432788
0.428941
0.422788
0.415172
0.406863
0.398509
0.390605
0.383484
0.37733
0.372208
0.368088
0.364884
0.362474
0.360721
0.359491
0.358659
0.358115
0.357773
0.357564
0.435601
0.434987
0.431071
0.424772
0.41697
0.408461
0.399913
0.391832
0.384559
0.378279
0.373058
0.368862
0.365603
0.363152
0.36137
0.360118
0.359267
0.358705
0.358342
0.358108
0.437943
0.437389
0.433404
0.426953
0.418953
0.410231
0.401475
0.393204
0.385767
0.379352
0.374024
0.369746
0.366426
0.36393
0.362116
0.360839
0.359967
0.359384
0.358998
0.358736
0.440501
0.440019
0.435965
0.429355
0.421146
0.412196
0.403217
0.394742
0.387129
0.380568
0.375123
0.370757
0.36737
0.364826
0.362978
0.361673
0.360777
0.36017
0.359757
0.359463
0.443297
0.442903
0.438783
0.432006
0.423576
0.414383
0.405165
0.396471
0.388668
0.38195
0.37638
0.371917
0.368458
0.365861
0.363973
0.362638
0.361716
0.361082
0.360638
0.360306
0.446364
0.446075
0.441892
0.434942
0.426277
0.416825
0.407351
0.398422
0.390414
0.383526
0.37782
0.373252
0.369715
0.36706
0.365129
0.36376
0.362808
0.362143
0.361663
0.361288
0.449733
0.449571
0.44533
0.4382
0.429286
0.419558
0.40981
0.400628
0.3924
0.385328
0.379475
0.374793
0.37117
0.368452
0.366474
0.365067
0.364081
0.36338
0.36286
0.362433
0.453446
0.453436
0.449144
0.441827
0.432651
0.422629
0.412587
0.403133
0.394667
0.387397
0.381385
0.376579
0.372864
0.370076
0.368045
0.366596
0.365571
0.364829
0.36426
0.363775
0.457552
0.457721
0.453386
0.445878
0.436426
0.42609
0.415735
0.405989
0.397267
0.389782
0.383597
0.378658
0.37484
0.371976
0.369887
0.36839
0.36732
0.366531
0.365906
0.365352
0.4621
0.462481
0.458119
0.450417
0.440675
0.430007
0.419316
0.409257
0.400259
0.392543
0.386172
0.381086
0.377158
0.37421
0.372056
0.370505
0.369384
0.368539
0.367849
0.367212
0.467153
0.46779
0.46342
0.455524
0.445479
0.43446
0.42341
0.413015
0.403722
0.395755
0.389182
0.383938
0.379889
0.376848
0.374622
0.373008
0.371828
0.370918
0.370149
0.369416
0.472791
0.473737
0.469383
0.461295
0.450936
0.439545
0.428115
0.41736
0.407748
0.399512
0.39272
0.387304
0.383122
0.379979
0.377671
0.375987
0.374737
0.37375
0.372888
0.372039
0.479105
0.480424
0.476119
0.467846
0.457164
0.445383
0.433548
0.422409
0.412455
0.40393
0.396902
0.391299
0.386971
0.383715
0.381315
0.379549
0.378218
0.377138
0.376164
0.375175
0.486205
0.487978
0.483765
0.475321
0.464311
0.452123
0.439861
0.428314
0.417995
0.409158
0.401875
0.396068
0.391582
0.388199
0.385695
0.383833
0.382404
0.381212
0.380103
0.378944
0.494223
0.49655
0.492489
0.483897
0.472559
0.459951
0.447242
0.435264
0.424555
0.415385
0.407827
0.4018
0.397138
0.393615
0.39099
0.389016
0.387469
0.386141
0.384864
0.383496
0.503324
0.506331
0.502498
0.493796
0.482141
0.469107
0.455933
0.443502
0.432383
0.422857
0.415004
0.408737
0.403882
0.4002
0.397436
0.395328
0.393636
0.392139
0.390654
0.389029
0.513708
0.517556
0.514055
0.5053
0.493351
0.479893
0.466246
0.453345
0.441795
0.431893
0.423725
0.417198
0.412131
0.408267
0.40534
0.403069
0.401198
0.399489
0.397745
0.395796
0.525627
0.53052
0.527491
0.518764
0.506566
0.492703
0.478584
0.465206
0.453211
0.442917
0.434414
0.427607
0.422303
0.418232
0.415111
0.412639
0.410543
0.408566
0.406493
0.404136
0.539394
0.545596
0.543229
0.53465
0.522276
0.508048
0.493478
0.479627
0.467183
0.456485
0.447632
0.440525
0.434959
0.430649
0.427294
0.424572
0.422191
0.41987
0.417376
0.414499
0.555414
0.563267
0.561812
0.553553
0.541117
0.5266
0.511624
0.497328
0.484447
0.473346
0.464135
0.456708
0.450853
0.446266
0.442626
0.439589
0.436841
0.434077
0.431039
0.427493
0.574194
0.584143
0.583943
0.576245
0.563919
0.549235
0.533939
0.519257
0.505977
0.494493
0.484926
0.477169
0.470996
0.466086
0.462097
0.458661
0.455439
0.452098
0.448352
0.443937
0.596392
0.609018
0.610527
0.603725
0.591762
0.577101
0.561628
0.546664
0.53306
0.521242
0.511343
0.503254
0.496739
0.491454
0.487038
0.483095
0.479259
0.475164
0.470493
0.464945
0.622846
0.638912
0.642712
0.637274
0.626036
0.611678
0.596247
0.58117
0.567368
0.555305
0.545129
0.536728
0.529853
0.524141
0.519205
0.514622
0.509993
0.504917
0.499038
0.492004
0.654624
0.675227
0.681851
0.678511
0.668511
0.654851
0.639774
0.624831
0.611024
0.598858
0.588501
0.579836
0.572604
0.566416
0.560861
0.555481
0.549844
0.543504
0.536055
0.527086
0.693118
0.719682
0.730172
0.729603
0.721432
0.708962
0.694643
0.680165
0.666619
0.654556
0.644166
0.635328
0.62777
0.621076
0.614807
0.608465
0.601577
0.593639
0.584185
0.572723
0.740068
0.774276
0.789818
0.79299
0.787424
0.776773
0.763724
0.750126
0.737176
0.725481
0.715259
0.706387
0.698578
0.691386
0.684336
0.676881
0.668495
0.658604
0.646659
0.63206
0.797595
0.841476
0.863499
0.871541
0.869522
0.861432
0.85024
0.83799
0.826012
0.814989
0.805176
0.796453
0.788519
0.78089
0.773048
0.764383
0.754297
0.742125
0.727204
0.708788
0.868225
0.924244
0.954647
0.968313
0.971079
0.966362
0.957619
0.947169
0.936519
0.926459
0.9173
0.908936
0.90105
0.893117
0.884558
0.874682
0.862798
0.848115
0.82982
0.806962
0.95502
1.02593
1.06691
1.08764
1.09585
1.09509
1.08924
1.08092
1.07185
1.06296
1.05465
1.04684
1.0392
1.03117
1.02207
1.01113
0.99751
0.980269
0.958387
0.930643
1.06135
1.14995
1.20351
1.2326
1.24697
1.25067
1.248
1.24193
1.23449
1.2268
1.21941
1.21228
1.20509
1.19721
1.18789
1.17619
1.16113
1.14156
1.11617
1.08341
1.19073
1.29983
1.36771
1.40654
1.42683
1.43544
1.43589
1.43182
1.42569
1.41893
1.41228
1.40581
1.3992
1.39178
1.38265
1.37074
1.35484
1.33352
1.30516
1.26773
1.34663
1.47881
1.56246
1.61164
1.63812
1.65065
1.65329
1.65024
1.64449
1.63787
1.63138
1.62526
1.61922
1.61252
1.60417
1.59288
1.57716
1.55523
1.52502
1.48398
1.53183
1.68892
1.78879
1.84784
1.87944
1.89395
1.89723
1.89332
1.88609
1.87799
1.87047
1.86399
1.85835
1.85274
1.84594
1.83637
1.82228
1.80152
1.7715
1.72895
1.74804
1.93049
2.04571
2.11263
2.1469
2.16043
2.16027
2.15171
2.1396
2.12716
2.11637
2.10806
2.10218
2.09786
2.09363
2.08753
2.07735
2.06053
2.03394
1.99351
1.9949
2.20082
2.328
2.39819
2.42995
2.43673
2.42652
2.40722
2.38482
2.36343
2.34573
2.33301
2.32546
2.32225
2.32166
2.32128
2.31849
2.30995
2.29184
2.25932
2.26883
2.49239
2.62381
2.68848
2.70845
2.69817
2.66854
2.6296
2.58929
2.55233
2.52239
2.50138
2.48971
2.48716
2.49203
2.5009
2.50929
2.51361
2.51113
2.49528
2.56133
2.79058
2.91232
2.9573
2.9505
2.9085
2.84538
2.77265
2.70082
2.63838
2.58969
2.55667
2.53947
2.53736
2.54807
2.56868
2.5956
2.62392
2.64657
2.65575
2.85747
3.07076
3.16033
3.16411
3.1056
3.0087
2.89836
2.78659
2.68402
2.5979
2.53175
2.48707
2.46382
2.46078
2.47517
2.50449
2.54599
2.59463
2.64323
2.68085
3.1328
3.29562
3.31938
3.24517
3.11671
2.95531
2.78139
2.61621
2.47052
2.35054
2.25966
2.1983
2.16553
2.15931
2.17643
2.21628
2.27567
2.35148
2.43945
2.5356
3.34876
3.40898
3.32592
3.1465
2.91068
2.66083
2.42131
2.2085
2.03106
1.8916
1.78908
1.72044
1.68254
1.672
1.68519
1.72388
1.78842
1.87846
1.99212
2.12298
3.44177
3.33717
3.07743
2.74861
2.40635
2.08671
1.81201
1.59037
1.42066
1.29635
1.20932
1.15192
1.11864
1.10548
1.10967
1.13543
1.18777
1.27173
1.39161
1.54472
3.30918
2.91735
2.44617
1.99323
1.60686
1.29642
1.07205
0.920131
0.819943
0.754243
0.711129
0.682738
0.66442
0.653374
0.650034
0.661781
0.696163
0.764563
0.881943
1.05279
2.55951
1.89465
1.35165
0.984182
0.764977
0.648149
0.581087
0.536822
0.507849
0.48969
0.479006
0.473219
0.471174
0.472234
0.47737
0.489081
0.512746
0.560963
0.671052
0.920809
0.977257
0.792076
0.641197
0.543725
0.481338
0.444554
0.423899
0.412579
0.406245
0.40264
0.400982
0.40084
0.402334
0.405336
0.409915
0.41747
0.434244
0.47794
0.606871
0.989211
0.681146
0.497703
0.421409
0.398502
0.388876
0.383626
0.380502
0.378683
0.377726
0.377326
0.377314
0.377521
0.377868
0.37837
0.379656
0.382325
0.389202
0.412443
0.506613
0.857552
0.358418
0.358092
0.357601
0.357024
0.356388
0.355729
0.355087
0.354501
0.354007
0.353631
0.353392
0.353294
0.353333
0.353498
0.353767
0.354113
0.354506
0.354916
0.355319
0.355699
0.358641
0.358303
0.357801
0.35721
0.356559
0.355883
0.355224
0.354615
0.354105
0.353719
0.353471
0.353367
0.353403
0.353566
0.353836
0.354183
0.354576
0.354985
0.355386
0.355763
0.35872
0.358369
0.357854
0.35725
0.356585
0.355898
0.355227
0.354607
0.35409
0.353697
0.353444
0.353336
0.35337
0.353535
0.353812
0.354166
0.354561
0.354968
0.355361
0.355728
0.358739
0.358381
0.357858
0.357239
0.35656
0.355863
0.355188
0.354576
0.354061
0.35367
0.353418
0.353313
0.35335
0.353522
0.35381
0.35416
0.354554
0.354968
0.355362
0.355727
0.358741
0.358384
0.357861
0.357249
0.35657
0.355868
0.35518
0.354561
0.354044
0.353654
0.353404
0.3533
0.353339
0.353514
0.353807
0.354152
0.354544
0.354955
0.355348
0.355715
0.358733
0.358373
0.35785
0.357247
0.356576
0.355876
0.355178
0.354557
0.354044
0.353659
0.353414
0.353309
0.353341
0.353508
0.353795
0.354151
0.354552
0.354956
0.355348
0.355715
0.358755
0.358391
0.357871
0.357255
0.356578
0.355872
0.355185
0.35457
0.354059
0.353674
0.353429
0.353323
0.353353
0.353513
0.353779
0.354131
0.354538
0.354951
0.355351
0.355723
0.358778
0.358413
0.357881
0.357256
0.356571
0.355868
0.355191
0.35457
0.354051
0.35366
0.353411
0.353307
0.353343
0.353508
0.35378
0.354131
0.354528
0.354939
0.355337
0.35572
0.358782
0.358409
0.35786
0.357232
0.356552
0.355868
0.355186
0.354563
0.354043
0.353649
0.353398
0.353292
0.353326
0.353493
0.353773
0.354123
0.35452
0.354938
0.35535
0.355736
0.358766
0.358398
0.357864
0.357238
0.356552
0.355868
0.355191
0.354582
0.354068
0.353678
0.353429
0.353319
0.353345
0.353502
0.353766
0.354109
0.354505
0.354927
0.355356
0.355735
0.358764
0.358398
0.35787
0.357235
0.356542
0.355853
0.35518
0.354569
0.354059
0.353677
0.353437
0.353342
0.353377
0.353539
0.353804
0.354142
0.354538
0.354949
0.355354
0.355731
0.358766
0.358392
0.357862
0.357235
0.35655
0.355847
0.355164
0.35454
0.354025
0.353645
0.353411
0.353329
0.353374
0.353541
0.353811
0.354159
0.354553
0.354948
0.355332
0.355715
0.358779
0.358407
0.357872
0.357253
0.356567
0.355862
0.355174
0.354537
0.354018
0.353634
0.353395
0.3533
0.353341
0.353508
0.35378
0.354136
0.354523
0.354916
0.355313
0.355695
0.358781
0.358406
0.357874
0.357242
0.356555
0.355856
0.355173
0.354548
0.354033
0.353649
0.353408
0.353311
0.353342
0.353502
0.353769
0.354109
0.354493
0.354898
0.355301
0.355685
0.358764
0.358387
0.357862
0.357229
0.356541
0.355836
0.355155
0.354542
0.354031
0.353649
0.353407
0.353311
0.35335
0.353515
0.353781
0.354112
0.354494
0.354899
0.355298
0.355678
0.35876
0.358383
0.357851
0.357225
0.356538
0.355828
0.355154
0.354549
0.354043
0.353657
0.353408
0.353305
0.353348
0.353512
0.353781
0.354125
0.354517
0.354926
0.355325
0.355698
0.358777
0.358399
0.357857
0.357237
0.356571
0.355881
0.355213
0.35461
0.354104
0.353715
0.353456
0.353336
0.353354
0.353507
0.353773
0.354128
0.354522
0.354931
0.35533
0.355701
0.358819
0.358436
0.35789
0.357268
0.356605
0.355906
0.355233
0.354629
0.354127
0.35374
0.353477
0.353358
0.353377
0.353531
0.353794
0.354136
0.354526
0.354932
0.35533
0.355705
0.358872
0.35848
0.357922
0.357285
0.356605
0.355903
0.355227
0.35462
0.354111
0.353726
0.353472
0.353369
0.353405
0.35357
0.353839
0.354185
0.354575
0.354981
0.355374
0.355743
0.358931
0.35853
0.357961
0.357309
0.356608
0.355907
0.355227
0.354615
0.354099
0.353722
0.353489
0.3534
0.353448
0.353623
0.3539
0.354252
0.354645
0.355051
0.355442
0.355804
0.358998
0.35859
0.358013
0.357352
0.356639
0.355919
0.355234
0.354625
0.354123
0.353754
0.35353
0.35345
0.353506
0.35369
0.353974
0.354332
0.354729
0.355137
0.355527
0.355887
0.35907
0.358657
0.358075
0.357408
0.35669
0.355966
0.355279
0.35467
0.35417
0.353805
0.353585
0.35351
0.353571
0.353761
0.354051
0.354414
0.354817
0.355228
0.355619
0.355978
0.359144
0.358728
0.358141
0.35747
0.356749
0.356022
0.355333
0.354723
0.354223
0.353859
0.353641
0.353568
0.353632
0.353826
0.354121
0.354492
0.354902
0.355321
0.355715
0.356072
0.359217
0.358796
0.358206
0.357532
0.356807
0.356079
0.355388
0.354778
0.354278
0.353914
0.353696
0.353623
0.353688
0.353883
0.354179
0.354552
0.354967
0.355395
0.35579
0.35615
0.359286
0.358861
0.358267
0.35759
0.356864
0.356135
0.355445
0.354836
0.354337
0.353974
0.353757
0.353684
0.353748
0.353939
0.354232
0.3546
0.35501
0.355436
0.355834
0.356204
0.359351
0.358922
0.358324
0.357645
0.356919
0.356192
0.355505
0.3549
0.354405
0.354046
0.353829
0.353757
0.353817
0.354003
0.354288
0.354647
0.355048
0.355463
0.355864
0.356241
0.359416
0.358983
0.358383
0.357703
0.356979
0.356257
0.35558
0.354984
0.354496
0.35414
0.353925
0.353852
0.353909
0.354087
0.354359
0.354706
0.355095
0.355502
0.355899
0.356275
0.359479
0.359042
0.35844
0.357759
0.35704
0.356328
0.355658
0.355064
0.354576
0.354221
0.354009
0.353938
0.353996
0.354173
0.35444
0.35477
0.355145
0.355542
0.355931
0.356299
0.359544
0.359101
0.358492
0.357806
0.357081
0.356365
0.355692
0.355093
0.354602
0.354248
0.35404
0.353972
0.354032
0.354209
0.354483
0.354809
0.355182
0.355577
0.355962
0.356321
0.35961
0.359159
0.358541
0.357843
0.357102
0.356367
0.355681
0.355074
0.354581
0.354229
0.354026
0.353965
0.354023
0.354208
0.354487
0.354826
0.355212
0.355614
0.355998
0.356352
0.359683
0.359224
0.358596
0.357886
0.357133
0.356384
0.355679
0.355063
0.354565
0.354211
0.354008
0.353948
0.354011
0.354212
0.354495
0.354858
0.355257
0.355665
0.356049
0.356398
0.359764
0.359298
0.358661
0.357942
0.357179
0.356421
0.355709
0.355087
0.354583
0.354224
0.354016
0.353955
0.354031
0.354237
0.354541
0.354915
0.355322
0.355733
0.356117
0.356462
0.359854
0.359382
0.358738
0.358012
0.357241
0.356475
0.355758
0.355133
0.354628
0.35427
0.354065
0.354009
0.354091
0.354304
0.354613
0.354993
0.355403
0.355816
0.3562
0.356542
0.359951
0.359474
0.358824
0.358091
0.357315
0.356546
0.355825
0.355199
0.354695
0.354338
0.354135
0.354082
0.354168
0.354384
0.354697
0.355079
0.355492
0.355906
0.35629
0.356631
0.360056
0.359572
0.358915
0.358175
0.357392
0.356619
0.355897
0.35527
0.354767
0.354413
0.354213
0.354163
0.354251
0.354469
0.354784
0.35517
0.355586
0.356003
0.356387
0.356728
0.360171
0.359679
0.359012
0.358263
0.357472
0.356693
0.35597
0.355343
0.354841
0.35449
0.354294
0.354248
0.354335
0.354554
0.354873
0.355264
0.355685
0.356105
0.356491
0.356831
0.360299
0.359799
0.359122
0.35836
0.357558
0.35677
0.356039
0.355408
0.354903
0.354552
0.354359
0.354316
0.35441
0.354637
0.354965
0.355365
0.355792
0.356218
0.356606
0.356944
0.360444
0.359935
0.359247
0.358473
0.357657
0.356854
0.356111
0.355472
0.354963
0.354611
0.354418
0.35438
0.354486
0.354727
0.355068
0.355478
0.355914
0.356345
0.356734
0.357069
0.360609
0.360092
0.359393
0.358606
0.357776
0.356959
0.356203
0.355554
0.35504
0.354687
0.354497
0.354466
0.354584
0.354838
0.355192
0.355613
0.356057
0.356492
0.356882
0.357214
0.360796
0.360271
0.359563
0.358764
0.357921
0.357092
0.356323
0.355665
0.355146
0.354791
0.354605
0.354581
0.354711
0.354977
0.355341
0.355771
0.356221
0.35666
0.35705
0.357379
0.361008
0.360477
0.359758
0.358949
0.358094
0.357254
0.356477
0.355812
0.355288
0.354934
0.35475
0.354732
0.35487
0.355145
0.355517
0.355955
0.356411
0.356853
0.357243
0.357567
0.361246
0.360708
0.359981
0.359161
0.358295
0.357445
0.356659
0.355988
0.355462
0.355107
0.354926
0.354913
0.355057
0.35534
0.35572
0.356165
0.356626
0.35707
0.357459
0.357778
0.361514
0.360969
0.360233
0.359402
0.358525
0.357664
0.35687
0.356193
0.355663
0.355308
0.355129
0.355121
0.355272
0.355562
0.35595
0.356402
0.356869
0.357316
0.357703
0.358015
0.361812
0.361261
0.360516
0.359674
0.358785
0.357914
0.35711
0.356427
0.355894
0.355538
0.355362
0.355358
0.355516
0.355814
0.35621
0.356669
0.357141
0.357591
0.357977
0.358283
0.362146
0.361589
0.360835
0.359981
0.35908
0.358197
0.357384
0.356693
0.356156
0.3558
0.355626
0.355628
0.355793
0.356099
0.356504
0.356971
0.357449
0.357901
0.358286
0.358585
0.36252
0.361957
0.361193
0.360328
0.359414
0.358518
0.357695
0.356997
0.356455
0.356099
0.355927
0.355934
0.356106
0.356421
0.356835
0.357311
0.357795
0.35825
0.358632
0.358924
0.36294
0.362371
0.361598
0.36072
0.359792
0.358884
0.358049
0.357343
0.356797
0.35644
0.35627
0.356282
0.356462
0.356787
0.357211
0.357695
0.358186
0.358644
0.359024
0.359307
0.363411
0.362838
0.362056
0.361165
0.360222
0.3593
0.358453
0.357739
0.357187
0.356829
0.356661
0.356679
0.356868
0.357202
0.357636
0.35813
0.358627
0.359088
0.359465
0.359738
0.363943
0.363366
0.362574
0.36167
0.360712
0.359775
0.358916
0.358191
0.357635
0.357274
0.357109
0.357134
0.357331
0.357675
0.35812
0.358623
0.359128
0.359592
0.359966
0.360227
0.364544
0.363962
0.363162
0.362244
0.36127
0.360318
0.359445
0.35871
0.358147
0.357785
0.357623
0.357653
0.357859
0.358215
0.358671
0.359184
0.359696
0.360162
0.360532
0.36078
0.365224
0.36464
0.363831
0.362899
0.361909
0.36094
0.360052
0.359307
0.358737
0.358373
0.358213
0.35825
0.358466
0.358833
0.359301
0.359825
0.360344
0.360812
0.361176
0.361409
0.365996
0.365411
0.364594
0.363648
0.36264
0.361654
0.360751
0.359993
0.359416
0.35905
0.358892
0.358936
0.359162
0.359541
0.360022
0.360557
0.361083
0.361552
0.361909
0.362125
0.366875
0.36629
0.365467
0.364506
0.363481
0.362476
0.361557
0.360787
0.360201
0.359832
0.359677
0.359729
0.359965
0.360357
0.360851
0.361397
0.36193
0.3624
0.362748
0.362943
0.367878
0.367296
0.366467
0.365492
0.364449
0.363425
0.362488
0.361704
0.36111
0.360738
0.360586
0.360645
0.360893
0.361299
0.361805
0.362363
0.362903
0.363372
0.363709
0.363879
0.369028
0.368451
0.367618
0.36663
0.365568
0.364523
0.363569
0.36277
0.362167
0.361792
0.361642
0.36171
0.36197
0.362389
0.36291
0.363479
0.364025
0.364491
0.364814
0.364955
0.370348
0.36978
0.368946
0.367945
0.366864
0.365799
0.364825
0.364012
0.363398
0.363019
0.362872
0.362949
0.363222
0.363656
0.364192
0.364772
0.365323
0.365785
0.366091
0.366198
0.37187
0.371316
0.370484
0.369472
0.368373
0.367287
0.366293
0.365463
0.364839
0.364456
0.364312
0.364399
0.364685
0.365135
0.365685
0.366277
0.366832
0.367288
0.367571
0.367639
0.373632
0.373097
0.372271
0.371251
0.370133
0.369026
0.368012
0.367166
0.36653
0.366143
0.366002
0.366099
0.366399
0.366865
0.36743
0.368032
0.36859
0.369036
0.369292
0.369313
0.375678
0.37517
0.374357
0.373331
0.372198
0.37107
0.370035
0.369171
0.368524
0.368132
0.367995
0.368103
0.368417
0.368899
0.369479
0.370091
0.370649
0.37108
0.371301
0.371265
0.378063
0.377593
0.376801
0.375774
0.374628
0.37348
0.372425
0.371543
0.370883
0.370487
0.370353
0.370473
0.370803
0.3713
0.371894
0.372514
0.373068
0.373478
0.373657
0.373551
0.380851
0.380437
0.379678
0.378658
0.377502
0.376337
0.375262
0.374363
0.37369
0.373288
0.37316
0.373292
0.373637
0.37415
0.374756
0.37538
0.375925
0.376307
0.376433
0.376242
0.384143
0.383796
0.383083
0.382079
0.38092
0.37974
0.378647
0.377731
0.377045
0.376638
0.376515
0.376659
0.377019
0.377546
0.378162
0.378786
0.379315
0.379658
0.379717
0.379419
0.388043
0.387786
0.387136
0.386161
0.385006
0.383818
0.382709
0.381777
0.381079
0.380667
0.380548
0.380706
0.38108
0.381619
0.38224
0.382857
0.38336
0.383651
0.383623
0.383195
0.392685
0.392547
0.391987
0.391058
0.38992
0.388731
0.387612
0.386668
0.385957
0.38554
0.385428
0.385598
0.385984
0.38653
0.38715
0.38775
0.388213
0.388433
0.388296
0.387704
0.398242
0.398263
0.397829
0.396973
0.39587
0.394693
0.393572
0.392619
0.391898
0.391477
0.39137
0.391553
0.391947
0.392494
0.393102
0.393672
0.394076
0.394201
0.393921
0.393123
0.404936
0.405166
0.404909
0.404164
0.403125
0.401978
0.400868
0.399915
0.399186
0.398761
0.398661
0.398854
0.39925
0.399788
0.400369
0.400888
0.401209
0.401207
0.40074
0.399678
0.413051
0.413533
0.413553
0.412978
0.412042
0.410954
0.409874
0.408931
0.408201