/*--------------------------------*- C++ -*----------------------------------*\
  =========                 |
  \\      /  F ield         | OpenFOAM: The Open Source CFD Toolbox
   \\    /   O peration     | Website:  https://openfoam.org
    \\  /    A nd           | Version:  6
     \\/     M anipulation  |
\*---------------------------------------------------------------------------*/
FoamFile
{
    version     2.0;
    format      ascii;
    class       volScalarField;
    location    "8";
    object      nut;
}
// * * * * * * * * * * * * * * * * * * * * * * * * * * * * * * * * * * * * * //

dimensions      [0 2 -1 0 0 0 0];

internalField   nonuniform List<scalar> 
130000
(
0.000886749
0.000889986
0.000891987
0.000892804
0.00089266
0.000891786
0.000890398
0.000888681
0.000886778
0.000884797
0.000882817
0.000880898
0.00087908
0.000877387
0.000875832
0.000874418
0.000873139
0.000871983
0.000870933
0.000869944
0.000886749
0.000889976
0.000891947
0.000892731
0.000892554
0.000891648
0.00089023
0.000888486
0.000886562
0.00088457
0.000882582
0.00088065
0.000878818
0.000877114
0.000875554
0.000874143
0.000872872
0.00087173
0.000870696
0.000869721
0.00088681
0.000890037
0.000892004
0.000892786
0.00089261
0.000891699
0.00089027
0.000888515
0.000886582
0.000884589
0.000882593
0.000880647
0.000878804
0.000877094
0.000875533
0.000874124
0.00087286
0.000871731
0.000870717
0.000869753
0.000886888
0.000890134
0.000892134
0.000892951
0.000892777
0.000891844
0.000890401
0.000888637
0.0008867
0.000884708
0.000882708
0.000880759
0.000878916
0.000877205
0.000875642
0.000874232
0.000872968
0.000871836
0.000870821
0.000869846
0.000886974
0.000890243
0.000892272
0.000893109
0.000892938
0.000892004
0.000890556
0.000888781
0.000886828
0.000884805
0.000882791
0.000880839
0.000878991
0.000877274
0.000875704
0.000874286
0.000873008
0.000871857
0.00087081
0.000869813
0.000887052
0.000890356
0.000892384
0.000893198
0.000893024
0.000892099
0.00089065
0.00088887
0.000886907
0.000884874
0.000882849
0.000880889
0.000879032
0.000877307
0.000875729
0.0008743
0.000873005
0.000871824
0.000870729
0.000869728
0.000887112
0.000890436
0.000892454
0.000893267
0.000893092
0.000892166
0.000890714
0.000888928
0.000886958
0.000884916
0.000882882
0.000880911
0.000879045
0.000877311
0.000875724
0.000874287
0.000872985
0.00087179
0.000870667
0.000869705
0.000887145
0.000890447
0.000892489
0.00089331
0.000893138
0.000892211
0.000890757
0.000888965
0.000886988
0.000884938
0.000882894
0.000880912
0.000879035
0.000877289
0.000875692
0.000874256
0.000872973
0.000871815
0.00087072
0.00086973
0.000887182
0.000890481
0.000892529
0.000893348
0.000893173
0.000892244
0.000890785
0.000888988
0.000887005
0.000884945
0.000882891
0.000880899
0.000879007
0.000877239
0.000875602
0.000874147
0.000872873
0.000871728
0.000870643
0.000869603
0.000887226
0.000890542
0.000892562
0.000893377
0.000893201
0.000892268
0.000890805
0.000889003
0.000887012
0.000884945
0.000882882
0.00088088
0.000878978
0.000877197
0.00087554
0.000874079
0.000872798
0.000871641
0.000870567
0.000869593
0.000887258
0.000890577
0.000892588
0.000893408
0.000893229
0.000892292
0.000890824
0.000889015
0.000887018
0.000884942
0.00088287
0.00088086
0.000878952
0.000877174
0.000875541
0.000874049
0.000872742
0.000871612
0.000870606
0.000869657
0.000887287
0.000890616
0.000892634
0.000893454
0.000893265
0.000892321
0.000890846
0.00088903
0.000887024
0.000884939
0.000882858
0.000880838
0.000878922
0.000877136
0.000875505
0.000874003
0.000872693
0.000871572
0.000870561
0.000869576
0.000887321
0.000890663
0.000892695
0.000893514
0.000893313
0.000892359
0.000890875
0.00088905
0.000887033
0.000884937
0.000882846
0.000880821
0.000878905
0.00087713
0.00087553
0.000874081
0.000872775
0.000871644
0.000870573
0.000869539
0.000887368
0.000890723
0.000892759
0.000893579
0.000893369
0.000892406
0.000890912
0.000889074
0.000887044
0.000884933
0.000882827
0.000880788
0.000878865
0.000877096
0.000875499
0.000874062
0.000872767
0.000871701
0.000870663
0.000869629
0.000887437
0.000890796
0.000892822
0.000893618
0.000893422
0.000892458
0.000890956
0.000889105
0.000887058
0.000884927
0.000882799
0.000880734
0.000878775
0.000876978
0.000875376
0.000873962
0.000872711
0.000871693
0.000870719
0.000869727
0.000887539
0.000890898
0.000892907
0.000893664
0.000893493
0.000892526
0.000891012
0.000889145
0.000887079
0.000884927
0.000882776
0.000880686
0.000878701
0.000876891
0.000875289
0.000873886
0.000872671
0.000871623
0.000870638
0.000869651
0.000887668
0.000891033
0.000893039
0.00089379
0.000893579
0.000892613
0.000891084
0.000889197
0.000887109
0.000884934
0.00088276
0.000880651
0.00087866
0.000876834
0.000875191
0.000873732
0.000872434
0.0008713
0.000870306
0.000869312
0.000887804
0.000891174
0.000893194
0.000893954
0.000893693
0.000892715
0.000891172
0.000889264
0.000887154
0.000884955
0.000882754
0.000880612
0.000878573
0.000876664
0.000874952
0.000873433
0.000872106
0.000870941
0.000869915
0.000868913
0.000887948
0.00089133
0.000893355
0.000894114
0.000893848
0.000892808
0.000891263
0.000889344
0.000887217
0.000884998
0.000882777
0.000880613
0.000878552
0.000876612
0.000874896
0.000873348
0.000871958
0.000870766
0.000869744
0.000868761
0.000888097
0.00089149
0.000893518
0.000894274
0.000893999
0.000892936
0.000891369
0.000889444
0.000887298
0.000885063
0.000882828
0.000880659
0.00087861
0.000876716
0.000874996
0.000873418
0.000871966
0.000870801
0.000869881
0.000868933
0.000888247
0.000891649
0.000893682
0.000894437
0.000894159
0.000893097
0.000891481
0.000889543
0.000887391
0.000885144
0.000882899
0.000880727
0.00087867
0.000876759
0.000874996
0.000873448
0.000872063
0.000870936
0.00087002
0.000869118
0.000888392
0.000891806
0.000893842
0.000894596
0.000894312
0.000893241
0.000891608
0.000889655
0.000887499
0.000885243
0.000882991
0.000880811
0.000878727
0.000876798
0.000875083
0.000873632
0.00087235
0.000871253
0.000870306
0.000869399
0.000888541
0.000891968
0.000894007
0.000894758
0.000894469
0.000893392
0.000891761
0.000889777
0.000887601
0.000885342
0.000883092
0.000880914
0.000878845
0.000876964
0.000875335
0.000873959
0.000872719
0.00087164
0.000870682
0.000869746
0.000888704
0.000892141
0.000894182
0.000894927
0.000894627
0.000893536
0.000891887
0.000889876
0.000887692
0.000885432
0.000883182
0.000881015
0.000878976
0.000877102
0.000875476
0.00087411
0.000872897
0.000871832
0.000870869
0.000869918
0.000888884
0.000892329
0.000894367
0.000895105
0.000894793
0.000893688
0.000892022
0.00088999
0.000887788
0.000885512
0.00088323
0.000881038
0.000878972
0.000877066
0.000875418
0.000874082
0.000872868
0.000871791
0.000870799
0.000869834
0.000889073
0.000892526
0.000894563
0.000895292
0.000894969
0.000893849
0.000892167
0.000890121
0.000887864
0.000885562
0.000883249
0.000881011
0.000878906
0.000876997
0.000875324
0.000873905
0.000872622
0.000871508
0.000870521
0.000869578
0.00088927
0.000892732
0.000894768
0.00089549
0.000895152
0.000894015
0.000892312
0.000890238
0.000887945
0.000885626
0.000883302
0.000881039
0.000878898
0.000876973
0.000875289
0.000873789
0.00087247
0.000871374
0.00087041
0.000869473
0.000889477
0.000892949
0.000894985
0.000895698
0.000895347
0.000894192
0.000892469
0.000890374
0.00088806
0.000885725
0.000883396
0.000881132
0.000878986
0.000877056
0.000875307
0.000873791
0.000872483
0.000871392
0.000870423
0.0008695
0.000889696
0.000893178
0.000895213
0.000895918
0.000895553
0.000894381
0.000892638
0.000890524
0.000888193
0.000885809
0.000883455
0.000881194
0.000879082
0.000877157
0.000875388
0.000873867
0.00087257
0.000871388
0.000870449
0.00086957
0.000889926
0.000893416
0.000895452
0.000896148
0.000895769
0.000894578
0.000892816
0.000890682
0.000888334
0.000885888
0.000883506
0.000881237
0.000879126
0.000877199
0.000875481
0.000873988
0.000872611
0.000871378
0.000870415
0.000869506
0.000890171
0.000893671
0.000895704
0.000896391
0.000895995
0.000894785
0.000893
0.000890843
0.000888472
0.000886004
0.000883582
0.000881281
0.000879139
0.000877185
0.00087546
0.000873984
0.000872604
0.000871368
0.000870376
0.000869439
0.000890428
0.000893938
0.00089597
0.000896645
0.000896232
0.000895
0.000893193
0.000891014
0.000888624
0.000886149
0.000883687
0.00088131
0.000879111
0.00087714
0.000875403
0.00087391
0.000872556
0.000871369
0.000870374
0.000869449
0.000890697
0.000894218
0.000896247
0.00089691
0.000896478
0.000895224
0.000893393
0.000891189
0.000888774
0.000886272
0.000883777
0.000881361
0.00087914
0.000877159
0.000875409
0.00087389
0.000872555
0.000871425
0.000870439
0.000869497
0.000890979
0.000894511
0.000896538
0.000897188
0.000896736
0.000895458
0.0008936
0.000891369
0.000888927
0.000886399
0.00088388
0.000881446
0.00087917
0.000877129
0.000875358
0.000873855
0.000872564
0.00087148
0.000870519
0.000869562
0.000891275
0.000894819
0.000896844
0.000897481
0.000897009
0.000895705
0.000893819
0.000891558
0.000889085
0.000886522
0.000883961
0.000881471
0.000879146
0.000877077
0.000875306
0.000873767
0.000872455
0.000871355
0.000870394
0.000869455
0.000891586
0.000895145
0.000897168
0.000897792
0.0008973
0.000895972
0.00089406
0.000891773
0.000889273
0.000886688
0.00088411
0.00088161
0.000879279
0.000877172
0.00087537
0.000873811
0.000872412
0.000871206
0.000870184
0.000869209
0.000891916
0.00089549
0.000897512
0.000898124
0.000897612
0.000896261
0.000894324
0.000892013
0.000889493
0.000886892
0.000884304
0.000881802
0.000879434
0.000877273
0.000875408
0.000873812
0.000872388
0.00087121
0.000870197
0.000869217
0.000892265
0.000895856
0.000897877
0.000898477
0.000897946
0.000896572
0.000894611
0.000892276
0.000889736
0.000887117
0.000884516
0.000882003
0.000879622
0.000877462
0.000875577
0.000873953
0.000872536
0.000871432
0.000870406
0.000869421
0.000892637
0.000896244
0.000898265
0.000898852
0.0008983
0.000896902
0.000894916
0.00089256
0.000890001
0.000887371
0.000884767
0.000882265
0.000879918
0.000877752
0.000875869
0.000874226
0.000872773
0.000871633
0.00087063
0.000869648
0.000893028
0.000896653
0.000898673
0.000899246
0.000898673
0.000897249
0.000895238
0.000892858
0.000890281
0.000887637
0.000885028
0.000882532
0.000880206
0.000878091
0.000876223
0.000874541
0.000873115
0.000871956
0.000870997
0.000869994
0.000893439
0.000897082
0.0008991
0.000899658
0.000899061
0.00089761
0.000895571
0.000893166
0.000890567
0.000887908
0.000885291
0.000882795
0.00088048
0.000878384
0.000876524
0.000874891
0.000873464
0.000872277
0.000871249
0.000870233
0.00089387
0.000897531
0.000899547
0.000900088
0.000899465
0.000897984
0.000895914
0.000893479
0.000890852
0.00088817
0.000885534
0.000883024
0.000880698
0.000878592
0.00087672
0.000875075
0.000873634
0.000872433
0.000871395
0.000870375
0.000894323
0.000898003
0.000900015
0.000900538
0.000899888
0.000898373
0.000896267
0.000893796
0.000891136
0.000888422
0.000885758
0.000883224
0.000880876
0.00087875
0.000876861
0.0008752
0.000873746
0.000872536
0.000871494
0.000870475
0.000894801
0.000898501
0.000900511
0.000901014
0.000900333
0.000898782
0.000896636
0.000894125
0.000891426
0.000888676
0.000885978
0.000883413
0.000881038
0.00087889
0.000876981
0.000875305
0.000873838
0.000872619
0.000871574
0.000870553
0.000895315
0.000899035
0.00090104
0.000901522
0.000900807
0.000899215
0.000897027
0.000894472
0.00089173
0.000888939
0.000886205
0.000883606
0.000881203
0.000879029
0.0008771
0.000875408
0.000873928
0.000872698
0.000871645
0.000870616
0.000895867
0.000899608
0.000901607
0.000902065
0.000901313
0.000899677
0.000897442
0.000894841
0.000892053
0.000889219
0.000886445
0.000883812
0.000881377
0.000879178
0.000877228
0.000875519
0.000874026
0.000872786
0.000871726
0.000870688
0.000896459
0.000900221
0.000902213
0.000902643
0.000901852
0.00090017
0.000897885
0.000895234
0.000892398
0.000889519
0.000886703
0.000884033
0.000881566
0.00087934
0.000877369
0.000875643
0.000874139
0.000872888
0.000871823
0.00087078
0.00089709
0.000900873
0.000902857
0.000903259
0.000902426
0.000900694
0.000898357
0.000895653
0.000892767
0.000889841
0.000886982
0.000884272
0.000881773
0.000879519
0.000877526
0.000875783
0.000874267
0.000873007
0.000871939
0.000870895
0.000897758
0.000901564
0.00090354
0.000903912
0.000903035
0.000901251
0.000898859
0.000896101
0.000893163
0.000890187
0.000887282
0.000884533
0.000881998
0.000879716
0.000877699
0.00087594
0.000874411
0.000873142
0.000872071
0.000871026
0.000898465
0.000902297
0.000904266
0.000904607
0.000903684
0.000901846
0.000899397
0.000896581
0.000893588
0.00089056
0.000887609
0.000884817
0.000882245
0.000879932
0.000877891
0.000876114
0.000874573
0.000873295
0.000872228
0.00087119
0.000899214
0.000903076
0.000905039
0.000905349
0.000904378
0.000902484
0.000899975
0.000897099
0.000894048
0.000890966
0.000887964
0.000885127
0.000882517
0.000880171
0.000878104
0.000876307
0.00087475
0.000873457
0.000872379
0.000871335
0.000900017
0.000903913
0.00090587
0.000906147
0.000905126
0.000903171
0.000900598
0.000897659
0.000894546
0.000891407
0.000888353
0.000885469
0.000882818
0.000880437
0.000878342
0.000876522
0.000874949
0.000873637
0.000872546
0.000871499
0.000900886
0.000904816
0.000906767
0.000907008
0.000905933
0.000903914
0.000901273
0.000898266
0.000895089
0.000891889
0.000888779
0.000885845
0.000883151
0.000880733
0.000878607
0.000876764
0.000875171
0.000873838
0.00087273
0.000871677
0.000901827
0.000905794
0.000907736
0.000907939
0.000906805
0.000904717
0.000902004
0.000898925
0.000895679
0.000892415
0.000889247
0.000886261
0.00088352
0.000881063
0.000878904
0.000877033
0.000875417
0.000874058
0.000872924
0.000871852
0.000902843
0.000906849
0.000908784
0.000908945
0.000907748
0.000905587
0.000902795
0.00089964
0.000896322
0.00089299
0.00088976
0.000886718
0.000883929
0.000881431
0.000879237
0.000877337
0.000875696
0.000874309
0.000873148
0.000872055
0.00090394
0.000907988
0.000909914
0.000910031
0.000908768
0.000906528
0.000903654
0.000900417
0.000897022
0.000893619
0.000890324
0.000887224
0.000884384
0.000881841
0.000879611
0.000877682
0.000876015
0.000874601
0.000873412
0.000872299
0.000905124
0.000909219
0.000911137
0.000911207
0.000909872
0.000907548
0.000904586
0.000901263
0.000897786
0.000894307
0.000890944
0.000887783
0.000884889
0.0008823
0.000880031
0.000878071
0.000876379
0.000874937
0.000873726
0.000872594
0.000906405
0.000910552
0.000912461
0.000912481
0.00091107
0.000908655
0.000905599
0.000902185
0.000898621
0.000895063
0.000891627
0.000888401
0.000885451
0.000882814
0.000880504
0.00087851
0.000876792
0.000875321
0.000874088
0.000872948
0.000907794
0.000911996
0.000913897
0.000913864
0.000912371
0.00090986
0.000906704
0.000903191
0.000899535
0.000895892
0.00089238
0.000889087
0.000886077
0.00088339
0.000881037
0.000879007
0.000877259
0.000875752
0.000874477
0.000873347
0.000909302
0.000913566
0.000915458
0.000915369
0.000913788
0.000911173
0.00090791
0.000904292
0.000900538
0.000896806
0.000893213
0.000889848
0.000886776
0.000884035
0.000881639
0.000879574
0.000877802
0.000876275
0.000874968
0.000873817
0.000910944
0.000915276
0.000917161
0.00091701
0.000915335
0.000912609
0.000909229
0.000905499
0.00090164
0.000897812
0.000894133
0.000890692
0.000887555
0.000884758
0.000882316
0.000880214
0.000878418
0.000876875
0.00087554
0.00087437
0.000912736
0.000917143
0.000919021
0.000918805
0.000917027
0.000914181
0.000910675
0.000906824
0.000902853
0.000898923
0.000895153
0.000891631
0.000888423
0.000885568
0.000883076
0.000880935
0.000879112
0.000877551
0.000876201
0.000874982
0.0009147
0.000919188
0.000921058
0.000920771
0.000918883
0.000915905
0.000912264
0.000908282
0.00090419
0.00090015
0.000896283
0.000892675
0.000889394
0.000886474
0.00088393
0.000881744
0.000879885
0.000878299
0.000876915
0.000875667
0.000916873
0.000921427
0.00092329
0.000922928
0.00092092
0.000917801
0.000914012
0.000909888
0.000905665
0.000901507
0.000897536
0.000893837
0.000890476
0.00088749
0.00088489
0.000882657
0.000880757
0.000879136
0.00087772
0.000876442
0.000919249
0.000923871
0.000925735
0.000925296
0.000923161
0.000919887
0.000915939
0.00091166
0.000907295
0.00090301
0.000898926
0.000895129
0.000891684
0.000888627
0.000885967
0.000883686
0.000881744
0.000880085
0.000878638
0.000877329
0.000921866
0.000926557
0.000928428
0.000927907
0.000925633
0.000922192
0.000918068
0.000913619
0.000909097
0.000904673
0.000900467
0.000896565
0.00089303
0.000889897
0.000887175
0.000884842
0.000882856
0.000881159
0.000879679
0.000878335
0.000924761
0.000929527
0.000931407
0.000930799
0.000928372
0.000924745
0.000920425
0.000915787
0.000911092
0.000906514
0.000902175
0.000898158
0.000894527
0.000891313
0.000888524
0.000886137
0.000884108
0.000882374
0.000880856
0.000879476
0.000927978
0.000932832
0.000934723
0.000934015
0.000931418
0.000927581
0.00092304
0.000918189
0.000913299
0.000908549
0.000904061
0.000899919
0.000896183
0.000892884
0.000890026
0.000887583
0.000885511
0.000883737
0.000882184
0.000880768
0.000931549
0.000936576
0.000938439
0.000937609
0.000934813
0.000930737
0.000925943
0.000920846
0.000915733
0.000910788
0.000906133
0.000901853
0.000898005
0.000894614
0.000891685
0.000889187
0.000887071
0.000885261
0.000883674
0.000882225
0.00093549
0.000940722
0.000942582
0.00094162
0.000938601
0.000934248
0.000929161
0.000923779
0.000918406
0.000913233
0.000908388
0.000903952
0.00089998
0.000896495
0.000893494
0.000890943
0.000888787
0.000886944
0.000885329
0.000883851
0.000939883
0.000945349
0.000947212
0.000946103
0.000942828
0.000938154
0.000932721
0.000927001
0.000921317
0.000915874
0.000910805
0.00090619
0.00090208
0.000898493
0.000895421
0.000892822
0.000890633
0.000888767
0.000887133
0.00088564
0.000944803
0.000950538
0.000952404
0.000951126
0.00094755
0.000942496
0.000936649
0.000930519
0.000924456
0.000918684
0.000913343
0.000908514
0.000904246
0.000900549
0.000897404
0.000894764
0.000892554
0.000890681
0.000889049
0.000887562
0.000950329
0.000956369
0.000958238
0.000956763
0.000952834
0.000947324
0.000940974
0.000934338
0.000927805
0.000921621
0.00091594
0.000910849
0.000906391
0.000902567
0.000899351
0.000896678
0.000894465
0.000892609
0.000891005
0.000889556
0.000956556
0.000962951
0.000964824
0.00096312
0.000958771
0.000952712
0.000945745
0.000938481
0.000931354
0.000924646
0.000918531
0.000913105
0.000908409
0.000904433
0.000901135
0.000898437
0.000896241
0.000894428
0.00089289
0.000891523
0.000963617
0.000970431
0.000972317
0.000970354
0.000965512
0.000958795
0.000951075
0.000943031
0.000935157
0.00092778
0.000921106
0.000915242
0.000910231
0.000906054
0.00090265
0.00089992
0.000897748
0.000896004
0.000894566
0.000893331
0.000971687
0.000979019
0.000980954
0.000978717
0.000973318
0.000965833
0.000957216
0.000948225
0.000939429
0.000931212
0.00092382
0.000917383
0.000911947
0.000907482
0.000903909
0.000901107
0.000898938
0.000897254
0.000895929
0.000894858
0.000981025
0.000989039
0.000991117
0.000988638
0.000982656
0.000974325
0.00096469
0.000954603
0.000944716
0.000935484
0.000927202
0.000920028
0.000914015
0.000909125
0.000905262
0.00090228
0.000900021
0.000898322
0.000897048
0.000896107
0.000992014
0.00100101
0.00100344
0.00100083
0.000994324
0.000985153
0.000974463
0.000963203
0.000952117
0.000941736
0.000932411
0.00092433
0.000917556
0.000912045
0.000907685
0.000904312
0.00090175
0.000899823
0.000898398
0.000897404
0.00100518
0.0010158
0.00101899
0.00101641
0.00100959
0.000999748
0.000988121
0.000975756
0.000963489
0.000951928
0.000941474
0.000932346
0.000924615
0.000918235
0.000913081
0.000908975
0.000905729
0.000903166
0.000901166
0.000899698
0.00102143
0.00103402
0.00103873
0.00103689
0.00103028
0.00102019
0.00100797
0.00099478
0.000981533
0.000968907
0.000957348
0.000947096
0.00093823
0.000930698
0.000924371
0.000919062
0.000914582
0.00091076
0.000907503
0.000904832
0.00104199
0.00105763
0.0010648
0.00106457
0.0010589
0.00104922
0.00103699
0.00102346
0.00100963
0.00099621
0.000983691
0.000972321
0.000962181
0.000953217
0.000945296
0.00093823
0.000931836
0.000925957
0.000920529
0.000915634
0.00106846
0.00108875
0.00109964
0.00110215
0.00109838
0.00108998
0.0010785
0.00106529
0.0010514
0.00103759
0.00102434
0.00101192
0.00100042
0.000989765
0.000979832
0.000970434
0.000961397
0.000952578
0.000943941
0.00093562
0.00110291
0.00112972
0.00114593
0.00115265
0.00115176
0.00114563
0.00113577
0.0011236
0.00111021
0.0010964
0.00108267
0.00106929
0.00105635
0.00104378
0.00103145
0.00101918
0.00100679
0.000994167
0.000981293
0.000968328
0.001148
0.00118328
0.00120634
0.00121847
0.00122185
0.00121896
0.00121151
0.001201
0.00118858
0.00117509
0.00116104
0.00114673
0.00113227
0.00111758
0.00110249
0.00108682
0.00107042
0.00105321
0.00103517
0.00101646
0.00120632
0.00125201
0.0012836
0.00130232
0.0013109
0.00131197
0.00130748
0.00129904
0.00128786
0.0012748
0.00126043
0.0012451
0.00122897
0.00121196
0.00119375
0.00117415
0.00115308
0.00113053
0.0011065
0.00108115
0.00128016
0.0013381
0.00137939
0.00140578
0.00141998
0.00142525
0.00142401
0.0014178
0.00140787
0.00139512
0.00138016
0.00136344
0.00134543
0.00132613
0.0013044
0.00128013
0.00125359
0.00122492
0.00119413
0.00116137
0.00137143
0.00144252
0.00149397
0.00152809
0.00154796
0.00155757
0.00155959
0.00155549
0.00154658
0.00153373
0.00151758
0.00149833
0.00147585
0.00145119
0.00142483
0.00139736
0.00136771
0.00133293
0.00129446
0.00125365
0.00148087
0.00156492
0.00162594
0.00166724
0.00169198
0.00170483
0.0017102
0.0017078
0.00169931
0.00168572
0.00166747
0.0016445
0.00161695
0.00158636
0.00155338
0.00151874
0.00148319
0.00144517
0.00140078
0.0013516
0.00160718
0.00170222
0.00177125
0.00181818
0.00184667
0.0018622
0.001869
0.00186703
0.0018579
0.00184253
0.00182121
0.0017937
0.00176024
0.00172251
0.00168133
0.00163768
0.00159264
0.00154714
0.00149969
0.00144491
0.00174584
0.00184755
0.0019212
0.00197079
0.00200054
0.0020171
0.00202302
0.00202004
0.00200929
0.00199128
0.00196619
0.00193349
0.00189283
0.00184641
0.00179535
0.00174103
0.00168512
0.00162886
0.00157325
0.00151688
0.00188751
0.00198829
0.00206027
0.00210735
0.00213424
0.00214826
0.00215175
0.00214666
0.00213386
0.00211311
0.00208405
0.00204525
0.00199623
0.00193962
0.00187808
0.00181294
0.00174441
0.0016748
0.00160869
0.00154571
0.002016
0.00210456
0.00216539
0.0022014
0.00222124
0.00222993
0.00222793
0.0022173
0.00220055
0.0021762
0.00214218
0.00209675
0.00204062
0.00197495
0.00190208
0.00182376
0.00174428
0.00166718
0.00159231
0.00151927
0.00210668
0.00216843
0.00220656
0.00222433
0.00222674
0.00222046
0.00221765
0.00220467
0.00218489
0.00215727
0.00211983
0.00207017
0.00200955
0.0019379
0.00185736
0.00177069
0.00168289
0.00159826
0.00150717
0.00141848
0.00212361
0.00214254
0.00214346
0.00213184
0.002127
0.00211364
0.00209142
0.00207321
0.00205293
0.00202698
0.001991
0.00194072
0.00187506
0.00179496
0.00170016
0.00159984
0.00149756
0.00139662
0.0013136
0.00124895
0.00201884
0.00198267
0.00195136
0.00192679
0.00188524
0.00185255
0.00182752
0.00181039
0.00179802
0.00178401
0.0017594
0.00171555
0.00164907
0.00156229
0.00145208
0.00133316
0.00121494
0.00110518
0.00101048
0.000931331
0.00174251
0.00166776
0.00160943
0.00154024
0.00149162
0.00145844
0.00144338
0.00144552
0.00145935
0.00147659
0.00148088
0.00145511
0.00139263
0.00129643
0.00116078
0.00101597
0.000873792
0.000752033
0.000657566
0.000588266
0.00129901
0.00120473
0.00111465
0.00105747
0.0010233
0.00102264
0.00105663
0.00111222
0.00116707
0.00119164
0.00118261
0.0011505
0.00109694
0.00102062
0.000897516
0.000747604
0.00060158
0.000481081
0.00039391
0.000335905
0.000745856
0.000668493
0.000628906
0.000630127
0.000688474
0.000779568
0.000849139
0.000906792
0.000948606
0.000971619
0.000977811
0.000969949
0.000949191
0.000910635
0.000846822
0.000755152
0.000625969
0.000473665
0.000343446
0.000271368
0.000337637
0.000512447
0.000568843
0.000638965
0.000730054
0.000808661
0.000857502
0.000879414
0.000888712
0.00089315
0.000895062
0.000894133
0.00088815
0.000871606
0.000832098
0.000750035
0.00061013
0.000431679
0.000287319
0.000235652
0.000545333
0.000630397
0.000783998
0.000852656
0.000855432
0.00085369
0.000854384
0.000855777
0.000856927
0.000857515
0.000857593
0.000857496
0.000857699
0.0008582
0.000856885
0.000837078
0.000750343
0.000537913
0.000305605
0.000219138
0.000869749
0.000870014
0.000870445
0.00087082
0.000871111
0.000871297
0.00087138
0.000871375
0.000871313
0.000871216
0.000871103
0.000870984
0.000870844
0.000870689
0.000870546
0.0008704
0.000870226
0.000869997
0.000869689
0.000869289
0.00086963
0.000869974
0.00087048
0.000870964
0.000871297
0.000871472
0.000871501
0.000871385
0.000871218
0.000870984
0.000870797
0.000870649
0.000870517
0.000870408
0.000870368
0.000870285
0.000870148
0.000869929
0.000869604
0.000869166
0.000869608
0.000870048
0.000870593
0.000871108
0.000871457
0.000871633
0.000871648
0.000871494
0.000871282
0.00087097
0.000870738
0.000870549
0.00087041
0.000870345
0.000870402
0.00087037
0.000870268
0.000870049
0.000869692
0.000869199
0.000869664
0.000870103
0.000870606
0.000870983
0.000871255
0.000871434
0.000871509
0.000871467
0.000871337
0.000871146
0.00087091
0.000870653
0.000870447
0.000870341
0.000870317
0.000870219
0.000870101
0.000869946
0.000869698
0.00086927
0.000869703
0.000870158
0.000870691
0.000871089
0.000871313
0.000871394
0.000871378
0.00087132
0.000871217
0.000871056
0.000870839
0.000870588
0.000870431
0.000870311
0.000870229
0.000870083
0.000869947
0.000869829
0.00086956
0.00086913
0.000869737
0.000870193
0.000870736
0.000871185
0.000871437
0.000871457
0.000871353
0.000871217
0.000871106
0.000870979
0.000870822
0.000870654
0.000870606
0.000870442
0.00087026
0.000870187
0.000870081
0.000869854
0.00086947
0.000869032
0.000869609
0.000870012
0.000870548
0.000870952
0.000871229
0.000871365
0.000871423
0.000871321
0.000871225
0.000871107
0.000870963
0.000870813
0.000870709
0.000870534
0.000870275
0.000870143
0.000870026
0.000869787
0.000869552
0.000869141
0.000869634
0.000870045
0.000870528
0.000870872
0.000871108
0.000871251
0.000871342
0.000871266
0.00087117
0.000871041
0.000870884
0.000870696
0.000870498
0.00087035
0.000870206
0.000870024
0.000869926
0.000869801
0.000869663
0.000869298
0.000869669
0.000870038
0.000870435
0.000870759
0.000871005
0.000871202
0.000871162
0.000871055
0.000870943
0.000870783
0.000870621
0.000870458
0.000870346
0.000870254
0.000870183
0.000870064
0.000869931
0.000869833
0.000869743
0.000869447
0.00086957
0.000869965
0.000870393
0.000870729
0.000871012
0.000871231
0.000871336
0.000871339
0.000871234
0.000871072
0.000870904
0.000870743
0.000870666
0.000870523
0.000870329
0.000870129
0.000869865
0.000869682
0.000869497
0.000869123
0.00086954
0.000869969
0.000870443
0.000870797
0.000871125
0.000871381
0.000871606
0.00087163
0.000871547
0.000871398
0.000871183
0.000870952
0.000870752
0.000870567
0.000870356
0.000870137
0.000869914
0.000869568
0.00086924
0.000868848
0.000869411
0.000869903
0.000870552
0.000870991
0.0008713
0.000871524
0.000871602
0.000871548
0.000871439
0.000871284
0.000871062
0.000870828
0.000870659
0.0008705
0.000870332
0.000870159
0.000869955
0.000869618
0.000869195
0.000868803
0.000869579
0.000870175
0.000870879
0.000871352
0.000871604
0.000871665
0.000871655
0.000871453
0.000871279
0.000871122
0.000870945
0.000870735
0.00087065
0.000870532
0.000870398
0.000870279
0.00087004
0.000869686
0.000869267
0.000868771
0.000869739
0.000870267
0.00087084
0.000871203
0.000871437
0.000871556
0.00087154
0.000871384
0.000871323
0.000871219
0.000871082
0.00087096
0.000870885
0.000870726
0.000870547
0.000870315
0.00087004
0.000869724
0.000869342
0.000868821
0.000869751
0.000870159
0.000870792
0.000871149
0.000871355
0.000871421
0.000871416
0.000871377
0.000871371
0.000871257
0.000871105
0.000870953
0.000870787
0.000870582
0.000870341
0.000870011
0.000869694
0.000869385
0.000869057
0.000868676
0.000869766
0.000870247
0.000870884
0.000871211
0.000871313
0.000871248
0.000871198
0.000871151
0.000871055
0.000870881
0.00087067
0.000870478
0.000870309
0.000870055
0.000869754
0.00086947
0.000869216
0.000868961
0.000868682
0.000868354
0.000869961
0.000870365
0.000870802
0.000871042
0.000871079
0.000871032
0.00087098
0.000870925
0.000870855
0.000870775
0.000870614
0.000870389
0.000870112
0.000869794
0.000869438
0.000869215
0.00086899
0.000868752
0.000868486
0.000868157
0.000870027
0.000870386
0.000870789
0.000871009
0.000871024
0.000870965
0.000870881
0.000870788
0.000870748
0.000870774
0.000870637
0.000870426
0.000870179
0.000869916
0.000869595
0.00086935
0.000869105
0.000868812
0.000868536
0.000868233
0.000870006
0.000870362
0.000870769
0.000871008
0.000871084
0.000871081
0.000870998
0.000870849
0.000870695
0.000870579
0.000870348
0.000870162
0.000870008
0.000869872
0.000869736
0.000869564
0.000869296
0.000869022
0.00086884
0.000868566
0.000869926
0.000870295
0.000870719
0.000870984
0.000871116
0.000871153
0.000871034
0.000870792
0.000870435
0.000870095
0.000869835
0.000869665
0.000869572
0.000869536
0.000869537
0.000869532
0.000869416
0.000869323
0.00086923
0.000868954
0.000869746
0.000870138
0.000870587
0.000870841
0.000870919
0.000870845
0.000870669
0.000870467
0.000870223
0.000869895
0.000869665
0.000869539
0.000869502
0.000869541
0.000869658
0.000869853
0.000869929
0.000869888
0.00086972
0.000869411
0.000869788
0.000870056
0.000870413
0.000870618
0.000870686
0.000870638
0.000870522
0.00087041
0.000870305
0.000870106
0.000869954
0.000869873
0.000869875
0.000869959
0.000870133
0.000870397
0.000870502
0.000870465
0.000870276
0.000869933
0.000870105
0.000870237
0.000870579
0.000870783
0.000870863
0.000870849
0.000870762
0.000870608
0.000870405
0.000870233
0.000870081
0.000869997
0.000869995
0.000870095
0.000870308
0.000870563
0.000870695
0.000870676
0.000870474
0.000870101
0.000870401
0.000870609
0.000870943
0.000871125
0.000871198
0.000871173
0.000871067
0.000870872
0.000870576
0.000870365
0.000870204
0.000870082
0.000870019
0.000870104
0.000870366
0.000870618
0.000870726
0.000870717
0.000870503
0.00087013
0.000870611
0.000870911
0.000871193
0.000871395
0.000871487
0.000871481
0.000871401
0.000871243
0.00087102
0.000870762
0.000870567