/*--------------------------------*- C++ -*----------------------------------*\
  =========                 |
  \\      /  F ield         | OpenFOAM: The Open Source CFD Toolbox
   \\    /   O peration     | Website:  https://openfoam.org
    \\  /    A nd           | Version:  6
     \\/     M anipulation  |
\*---------------------------------------------------------------------------*/
FoamFile
{
    version     2.0;
    format      ascii;
    class       volScalarField;
    location    "8";
    object      nut;
}
// * * * * * * * * * * * * * * * * * * * * * * * * * * * * * * * * * * * * * //

dimensions      [0 2 -1 0 0 0 0];

internalField   nonuniform List<scalar> 
10000
(
1.40366e-05
6.82725e-05
0.000103578
0.000147407
0.000200775
0.000264165
0.00033392
0.000400574
0.0004548
0.000486266
0.000487034
0.000457735
0.000405271
0.000339054
0.0002687
0.000202208
0.000145732
0.000102519
6.82239e-05
1.21772e-05
1.50357e-05
6.84087e-05
0.00010426
0.000148766
0.000201588
0.000264896
0.000337937
0.000404874
0.000458203
0.00049093
0.000496895
0.000468549
0.000414164
0.000341739
0.000272924
0.000204383
0.000144838
0.00010234
6.82193e-05
1.13109e-05
1.1925e-05
6.76833e-05
0.000106181
0.000153092
0.000204574
0.000265066
0.000335774
0.000403005
0.000458827
0.000496113
0.000492117
0.000460843
0.000407391
0.000340092
0.000269945
0.00020184
0.0001449
0.000101766
6.87696e-05
1.19492e-05
1.38056e-05
6.76742e-05
0.000101467
0.000145919
0.000196803
0.000263414
0.000340681
0.000409342
0.0004594
0.000489981
0.000495544
0.000466298
0.000412217
0.000342077
0.000271386
0.000203572
0.000144886
0.000101872
6.82973e-05
1.14763e-05
1.27323e-05
6.68686e-05
0.000100405
0.000142352
0.000193959
0.000261989
0.00033693
0.000404561
0.00045938
0.000493474
0.000488212
0.000457273
0.00040464
0.0003392
0.000265763
0.000199933
0.000143658
0.00010089
6.73438e-05
1.28862e-05
1.32101e-05
6.48864e-05
9.7104e-05
0.00013831
0.000194857
0.000262284
0.000336417
0.000403759
0.00046316
0.000493222
0.000494144
0.000462722
0.000406877
0.000339143
0.000266151
0.000200795
0.000144564
0.000100821
6.68087e-05
1.36793e-05
1.0696e-05
6.44392e-05
9.67179e-05
0.000141266
0.000199383
0.000266171
0.000339027
0.000402972
0.000457117
0.00048727
0.000489856
0.00045858
0.000401188
0.000335167
0.000266426
0.000204563
0.000144882
0.00010059
6.57716e-05
1.18537e-05
1.1679e-05
6.49141e-05
9.64713e-05
0.000135404
0.00019371
0.000260874
0.000336426
0.000408355
0.000466593
0.000497164
0.000489559
0.000458057
0.000405502
0.000339729
0.000270342
0.000201653
0.000145575
0.000102609
6.645e-05
1.20193e-05
1.19732e-05
6.49918e-05
9.6581e-05
0.000135447
0.000189485
0.000260794
0.000336214
0.000405573
0.000464985
0.00049565
0.000491244
0.00046542
0.000411255
0.000340873
0.00027037
0.000202713
0.000146414
0.000102473
6.62738e-05
1.20344e-05
1.1974e-05
6.45686e-05
9.87712e-05
0.000140669
0.000191707
0.000259947
0.000335731
0.000410769
0.00046348
0.000492357
0.000492896
0.000466729
0.000412069
0.000343483
0.000270629
0.000206223
0.000148499
0.000101528
6.64387e-05
1.27227e-05
1.24017e-05
6.46096e-05
9.70691e-05
0.000135617
0.000193612
0.000263519
0.00033409
0.000404225
0.000465764
0.00049262
0.000492808
0.000463486
0.000409746
0.000341843
0.000273066
0.000203406
0.000146552
0.000101811
6.65628e-05
1.25196e-05
1.34154e-05
6.43331e-05
9.73729e-05
0.000139828
0.000195345
0.000262373
0.000335053
0.000404682
0.000460659
0.000493941
0.000500681
0.000469161
0.000414378
0.000343076
0.00027134
0.000206922
0.000150084
0.000104204
6.86976e-05
1.39454e-05
1.27996e-05
6.39638e-05
9.81778e-05
0.000140104
0.000196057
0.000267211
0.000342403
0.000409961
0.000465846
0.000502612
0.000500724
0.000475083
0.000421605
0.000349604
0.000273033
0.000205214
0.000149157
0.000104536
6.89732e-05
1.35582e-05
1.41552e-05
6.59633e-05
0.000101118
0.000142597
0.000195147
0.000264599
0.000339497
0.000410839
0.000467106
0.000499317
0.0005022
0.000473778
0.000417507
0.000347086
0.000274788
0.000205562
0.000149097
0.00010459
6.84243e-05
1.52776e-05
1.32943e-05
6.43704e-05
9.99284e-05
0.000143124
0.000199238
0.000270686
0.000347452
0.00041457
0.000470188
0.000506232
0.000500069
0.00046792
0.000413376
0.000346272
0.000272864
0.000206513
0.000150898
0.000105343
6.85489e-05
1.41e-05
1.27207e-05
6.49862e-05
0.000101102
0.000142804
0.000200245
0.000269094
0.000345441
0.000418783
0.00047142
0.000505007
0.000500588
0.000469957
0.000416455
0.000349334
0.000277906
0.000208555
0.000153912
0.000108247
6.88995e-05
1.37488e-05
1.08789e-05
6.44945e-05
0.000100423
0.000149011
0.000200976
0.000271282
0.000348178
0.000417105
0.000470908
0.00050018
0.000500382
0.000470434
0.000417016
0.000349836
0.000278857
0.000211707
0.000154511
0.000109456
7.01894e-05
1.54565e-05
1.2097e-05
6.47025e-05
0.000100722
0.000148742
0.000206159
0.000271817
0.000347363
0.000417724
0.000475807
0.000500781
0.000499777
0.000469555
0.00041685
0.000350307
0.000280087
0.00021042
0.000154505
0.000110113
7.04658e-05
1.3994e-05
1.23093e-05
6.54264e-05
0.000100459
0.00014566
0.000201827
0.000273417
0.000348262
0.000419736
0.000469659
0.000499181
0.000499136
0.000468324
0.000415396
0.000349395
0.000278262
0.000212855
0.000155239
0.000109419
7.04491e-05
1.19453e-05
1.27841e-05
6.63814e-05
0.000102504
0.000146024
0.000202114
0.000270156
0.000345234
0.000414694
0.000468419
0.000499781
0.000500138
0.00046792
0.000414287
0.000350274
0.000274369
0.000207054
0.00014993
0.000107327
7.09335e-05
1.33282e-05
1.3176e-05
6.59789e-05
0.000101952
0.000145788
0.000202641
0.000272146
0.000343309
0.000416447
0.000469227
0.000507022
0.000502599
0.000473139
0.000414047
0.000348274
0.000274521
0.000206701
0.000149514
0.000107806
7.05475e-05
1.33878e-05
1.42619e-05
6.69647e-05
0.00010273
0.000149115
0.000204464
0.000268964
0.000341803
0.000412378
0.000467629
0.000504101
0.00050483
0.000468296
0.000412694
0.00034761
0.000277803
0.000207239
0.000149381
0.000102881
6.96328e-05
1.36191e-05
1.36465e-05
6.76372e-05
0.000100359
0.00014313
0.000197969
0.000265621
0.000339729
0.000410201
0.000467482
0.000500324
0.000506794
0.000473174
0.000416576
0.000347341
0.000275347
0.000208862
0.000150611
0.000102522
6.91347e-05
1.44603e-05
1.47633e-05
6.74019e-05
0.000100341
0.000145958
0.000198633
0.000265485
0.000342411
0.000411361
0.000467679
0.000501637
0.00050071
0.000463318
0.000407369
0.000339905
0.00026974
0.000202538
0.000144927
0.000101288
6.81681e-05
1.22338e-05
1.42781e-05
6.69366e-05
0.000100738
0.000143463
0.000197532
0.000264511
0.000338107
0.000414135
0.000469479
0.000492688
0.000490983
0.00045954
0.000406883
0.000340068
0.000272699
0.000206495
0.000148076
0.000103908
6.88828e-05
1.3709e-05
1.36507e-05
6.6688e-05
0.000102963
0.000144472
0.000197556
0.000265527
0.000339336
0.000405605
0.000458396
0.000487425
0.000487184
0.000457815
0.000404844
0.000340908
0.000268968
0.000201755
0.000143933
0.000101339
6.80313e-05
1.30097e-05
1.18919e-05
6.61261e-05
0.000100287
0.000146415
0.000196719
0.000266792
0.000339797
0.000403287
0.000456212
0.000485544
0.000485899
0.00045711
0.000405629
0.000339381
0.000272501
0.000206571
0.000144769
0.000101596
6.80035e-05
1.39248e-05
1.34054e-05
6.64771e-05
0.000100073
0.000143218
0.000197949
0.000263172
0.000334121
0.000402265
0.000456598
0.000484889
0.000484162
0.000455114
0.000403264
0.000339646
0.000268021
0.000202153
0.000144873
0.000101442
6.74576e-05
1.27729e-05
1.49296e-05
6.61954e-05
0.000101632
0.000145682
0.000201516
0.000267418
0.000338194
0.000409487
0.000462869
0.000487925
0.000488293
0.000459938
0.000401679
0.000336841
0.00026925
0.000203853
0.000144746
0.000101707
6.71915e-05
1.17752e-05
1.43816e-05
6.70081e-05
9.98029e-05
0.000143194
0.000199198
0.000264215
0.000335972
0.000402526
0.000456479
0.000489954
0.000491589
0.000457524
0.00040168
0.000334116
0.000264108
0.000198767
0.000144524
0.000102603
6.66634e-05
1.19161e-05
1.37742e-05
6.67129e-05
9.93696e-05
0.000143496
0.000202642
0.000268125
0.000335797
0.000402976
0.0004569
0.000486991
0.0004896
0.000464864
0.000409667
0.000339367
0.000268564
0.000199267
0.000143978
0.000101002
6.70097e-05
1.12487e-05
1.16946e-05
6.68738e-05
9.94681e-05
0.000142925
0.000198387
0.000265011
0.000340584
0.000411942
0.000468292
0.000495321
0.00048973
0.000458626
0.000405764
0.00033855
0.000267815
0.000203312
0.000148727
0.000101229
6.66492e-05
1.19058e-05
1.2762e-05
6.68811e-05
0.000101501
0.000145709
0.000198972
0.000265996
0.000337302
0.000406936
0.000463941
0.00049128
0.000495558
0.0004653
0.000410531
0.000338742
0.000265474
0.000199302
0.000145243
0.00010094
6.72138e-05
1.21015e-05
1.21578e-05
6.6846e-05
0.000101844
0.000146818
0.000204858
0.000271125
0.000343254
0.00040643
0.000460279
0.000490633
0.000490769
0.000460408
0.000407501
0.000338399
0.000267123
0.000201504
0.000148634
0.000102011
6.72397e-05
1.14563e-05
1.37624e-05
6.73336e-05
0.000101954
0.000145276
0.000200901
0.000267359
0.000340822
0.000406679
0.000462471
0.000490533
0.000490722
0.000459978
0.000406438
0.000339513
0.000268865
0.000204413
0.000144499
0.000102248
6.73521e-05
1.21377e-05
1.25492e-05
6.72499e-05
0.000103916
0.000148621
0.00020209
0.000268308
0.000341651
0.000409196
0.000467751
0.000492565
0.000491424
0.000461084
0.000407925
0.000344501
0.000270818
0.000202211
0.000145636
0.000104494
6.82167e-05
1.24082e-05
1.32052e-05
6.7087e-05
0.000102744
0.000146358
0.00020106
0.000268595
0.000343704
0.000409627
0.00046434
0.000493507
0.000492049
0.000461141
0.00040675
0.000339527
0.000269355
0.000204732
0.000146813
0.000102495
6.75448e-05
1.25237e-05
1.39961e-05
6.69299e-05
0.000105113
0.000148064
0.000203344
0.000268945
0.000340886
0.000409587
0.000471373
0.000501643
0.000496707
0.000465353
0.000410631
0.000342631
0.000270257
0.000207677
0.000150244
0.000103354
6.83724e-05
1.30886e-05
1.48021e-05
6.81177e-05
0.000105461
0.00014869
0.000204422
0.000270217
0.000343102
0.000410609
0.000471418
0.000497633
0.000500535
0.000469426
0.000410419
0.000341648
0.00027056
0.000204324
0.000147863
0.000103729
6.78663e-05
1.38073e-05
1.49723e-05
6.89543e-05
0.000106475
0.000150263
0.000209738
0.000275556
0.000345321
0.000413134
0.000470567
0.000495458
0.000493773
0.000462292
0.000409232
0.000344316
0.000274606
0.000209179
0.000152109
0.000104198
6.82389e-05
1.41557e-05
1.56445e-05
7.12202e-05
0.000108076
0.000150687
0.000209051
0.000275046
0.000344434
0.00041239
0.000466093
0.000495039
0.000494583
0.000464635
0.000410381
0.000343174
0.00027347
0.000209469
0.000152309
0.000106317
6.90597e-05
1.31318e-05
1.54706e-05
7.28286e-05
0.00010909
0.000153629
0.00020932
0.000275228
0.00034589
0.000412744
0.000466626
0.000495153
0.000496239
0.000472105
0.000413856
0.00034592
0.000273156
0.000209027
0.000151898
0.000108013
6.97819e-05
1.30983e-05
1.53018e-05
7.24243e-05
0.000108657
0.000150809
0.000205841
0.00027231
0.000343357
0.000411347
0.000470503
0.000500793
0.000496577
0.000468646
0.000412743
0.000344343
0.000275876
0.000210118
0.000153274
0.000106718
7.04869e-05
1.35e-05
1.54314e-05
7.21017e-05
0.00011068
0.000151151
0.000205673
0.000272234
0.000345023
0.000414038
0.000465723
0.000494617
0.000497439
0.000463912
0.000412618
0.000345144
0.000273421
0.00020768
0.000149357
0.000106854
6.98806e-05
1.44896e-05
1.41628e-05
7.1125e-05
0.000108129
0.000150388
0.000205338
0.000269613
0.0003414
0.000411506
0.000471734
0.000499968
0.00049323
0.000462493
0.000408347
0.000343024
0.00027645
0.000212175
0.000148953
0.000103547
6.86469e-05
1.22107e-05
1.57332e-05
7.0792e-05
0.000108657
0.000152394
0.000207419
0.000270962
0.000342238
0.000415358
0.000470267
0.000492818
0.00049055
0.000465033
0.000409011
0.000343138
0.000274538
0.000208496
0.000148592
0.00010275
6.89884e-05
1.26541e-05
1.3501e-05
7.04145e-05
0.000104262
0.000144313
0.000199193
0.000268182
0.000343204
0.000410597
0.0004642
0.000492744
0.000489865
0.00046014
0.000408411
0.000344965
0.000275314
0.000204247
0.000149773
0.000102436
6.8025e-05
1.19228e-05
1.23439e-05
7.01828e-05
0.000104662
0.000144199
0.000199054
0.000267367
0.000341073
0.000414216
0.000464626
0.000497155
0.000490372
0.000459514
0.000410912
0.000343283
0.000270295
0.000203143
0.000145975
0.000101818
6.73628e-05
1.38229e-05
1.18307e-05
6.97108e-05
0.000106013
0.000142288
0.000197176
0.000266359
0.000337721
0.000406584
0.000460747
0.0004903
0.000493989
0.000458388
0.00040631
0.000342237
0.000270975
0.000203284
0.000144982
0.000101399
6.72443e-05
1.28217e-05
1.31604e-05
6.87517e-05
0.00010248
0.000143946
0.000199394
0.00026938
0.000339503
0.000409762
0.000462446
0.00049477
0.000488354
0.000458404
0.000406939
0.000339299
0.000269916
0.000207041
0.000146541
0.000102085
6.75356e-05
1.21014e-05
1.39495e-05
6.80153e-05
0.000101864
0.000145267
0.00020067
0.000267029
0.000340142
0.00041405
0.000467356
0.000489719
0.0004858
0.000457881
0.000409862
0.000341857
0.000269664
0.000205489
0.000147165
0.000102657
6.764e-05
1.35146e-05
1.19189e-05
6.78476e-05
0.000103686
0.000148825
0.000205073
0.000271097
0.000341351
0.000407618
0.000462771
0.000492572
0.000491249
0.000456633
0.000403814
0.000339022
0.000268778
0.000202904
0.000149216
0.000104891
6.77632e-05
1.19266e-05
1.3002e-05
6.83327e-05
0.000102603
0.000145781
0.000201363
0.00026836
0.000343418
0.000406441
0.000456747
0.000484558
0.000483294
0.000454136
0.000403135
0.000340732
0.000269624
0.000201645
0.000146239
0.000104988
6.88246e-05
1.1475e-05
1.42984e-05
6.79935e-05
0.000103297
0.000149176
0.000205422
0.00027238
0.000340802
0.000409676
0.000462083
0.000490402
0.000485088
0.00045579
0.00040283
0.000337188
0.000268681
0.00020096
0.00014539
0.000105848
6.88072e-05
1.25541e-05
1.26229e-05
6.80007e-05
0.000103999
0.000147503
0.000202326
0.000269073
0.000338491
0.000404319
0.000455922
0.000485001
0.000489493
0.000460005
0.000405319
0.000337105
0.000268511
0.000202996
0.00014485
0.000103487
6.96867e-05
1.25649e-05
1.35867e-05
6.85446e-05
0.000104354
0.000149339
0.000204737
0.000267586
0.0003402
0.000404761
0.000457086
0.000485713
0.000486082
0.000455778
0.000402579
0.000337415
0.000270905
0.000201234
0.000146619
0.000104729
7.02319e-05
1.28055e-05
1.52937e-05
6.8922e-05
0.000104516
0.000146877
0.000202141
0.000270972
0.000343899
0.000413322
0.000468762
0.000497791
0.000495535
0.000461709
0.000407316
0.000340367
0.000270517
0.000204039
0.000143997
0.000103378
6.98214e-05
1.28873e-05
1.43593e-05
7.05189e-05
0.000107389
0.000150473
0.00020537
0.000270929
0.000341149
0.000408045
0.00046327
0.000491853
0.000490403
0.000456828
0.000402741
0.000339548
0.000268602
0.000204086
0.000144803
0.000102819
6.95214e-05
1.32204e-05
1.26216e-05
7.15461e-05
0.000107386
0.000147787
0.000201745
0.000267997
0.000342402
0.000412789
0.000459632
0.000486596
0.000485279
0.00045848
0.000402802
0.000334967
0.000265503
0.000202717
0.000144428
0.000101602
6.84874e-05
1.35602e-05
1.36897e-05
7.20103e-05
0.000108306
0.000147616
0.000201418
0.000269253
0.000343245
0.000407827
0.000459005
0.000487478
0.00048486
0.000455008
0.00040208
0.000336623
0.000265865
0.000201241
0.000148803
0.000101603
6.7659e-05
1.37995e-05
1.31182e-05
7.12602e-05
0.00010884
0.000147452
0.00020535
0.000271923
0.000341624
0.000408156
0.000462693
0.000495057
0.000489941
0.00045771
0.000403669
0.000338529
0.000266887
0.000199863
0.000145911
0.000101905
6.78505e-05
1.22269e-05
1.41744e-05
7.12195e-05
0.000106645
0.000147371
0.000203615
0.000269713
0.00034175
0.000414869
0.000470366
0.000493428
0.000496314
0.000465971
0.000410603
0.00034221
0.000271511
0.000201445
0.000146783
0.000102605
6.81285e-05
1.31017e-05
1.58253e-05
7.07848e-05
0.000108773
0.000149738
0.000201911
0.000268776
0.000341448
0.000411513
0.000466828
0.000492046
0.000490395
0.000460008
0.000405065
0.000338026
0.000267946
0.000200788
0.000147778
0.000104698
6.85504e-05
1.45753e-05
1.50338e-05
6.92718e-05
0.00010389
0.000146152
0.000201334
0.000268711
0.000342901
0.000408864
0.000464428
0.000491993
0.000490353
0.000459905
0.000406301
0.000341417
0.00027237
0.000202918
0.000149941
0.00010486
6.84804e-05
1.26395e-05
1.49112e-05
6.80334e-05
0.000100597
0.000144367
0.000197714
0.000264516
0.000338139
0.000413447
0.0004705
0.000494818
0.000492624
0.000459821
0.000406099
0.000339555
0.000270617
0.000202922
0.000150649
0.000104616
6.94516e-05
1.43147e-05
1.31267e-05
6.79982e-05
0.000100892
0.000142384
0.000201348
0.000268104
0.000342391
0.00041148
0.000464033
0.000492984
0.000492048
0.000460828
0.000408759
0.00034215
0.000272064
0.000202887
0.00014856
0.000104481
6.93844e-05
1.33417e-05
1.51371e-05
6.88727e-05
0.000101829
0.000141497
0.000198179
0.00026422
0.000337119
0.000407704
0.000464517
0.000494293
0.000495481
0.000465614
0.000412956
0.000342084
0.000271542
0.000203137
0.000149136
0.000106458
6.95715e-05
1.45764e-05
1.39653e-05
6.86935e-05
0.000103534
0.000144575
0.000198773
0.000264515
0.000337242
0.000407585
0.000469186
0.000495439
0.000498306
0.000462928
0.000410266
0.000339979
0.000269709
0.000207137
0.000151936
0.000105898
6.9434e-05
1.25751e-05
1.58658e-05
6.87729e-05
0.000102698
0.000145455
0.000200088
0.000267017
0.000341598
0.000408104
0.000462303
0.000492538
0.000496056
0.000459159
0.000405276
0.000337459
0.000270459
0.000202568
0.000149478
0.000107387
6.95805e-05
1.38135e-05
1.41834e-05
6.86876e-05
0.0001029
0.000146309
0.000203831
0.000271961
0.000342389
0.0004103
0.000464357
0.000492898
0.000490896
0.000457867
0.000402931
0.000335738
0.000266095
0.000201016
0.000146483
0.000104833
6.95086e-05
1.21235e-05
1.17271e-05
6.74229e-05
0.000103334
0.000147107
0.000204245
0.000271136
0.000340952
0.000408999
0.000463277
0.000491928
0.000490685
0.000460356
0.000404504
0.000337311
0.000267735
0.000201934
0.00014607
0.000105503
6.9841e-05
1.16796e-05
1.33413e-05
6.79039e-05
0.000103886
0.000147969
0.00020403
0.000270399
0.0003423
0.000410594
0.00046506
0.000495534
0.00049268
0.000461331
0.000406768
0.000339287
0.000268855
0.000202842
0.000146621
0.000105452
6.95973e-05
1.31202e-05
1.31248e-05
6.83202e-05
0.000106851
0.000151585
0.000205003
0.000273078
0.000350612
0.00041725
0.000471239
0.000506494
0.000505407
0.000474803
0.000418025
0.00034607
0.000271653
0.000205368
0.000148918
0.000105182
6.93389e-05
1.42252e-05
1.25584e-05
6.89394e-05
0.000107399
0.000153001
0.000210391
0.000277564
0.000352065
0.000423122
0.000472756
0.00050087
0.00050058
0.000473328
0.000417616
0.000348583
0.000273577
0.000206268
0.000148804
0.000106009
7.00991e-05
1.36092e-05
1.42317e-05
6.97221e-05
0.000108783
0.000151727
0.000208913
0.000276231
0.000350976
0.000421898
0.00048017
0.000510434
0.000504281
0.000474959
0.000417187
0.00035046
0.000278821
0.000212449
0.000154656
0.00010626
6.98552e-05
1.23218e-05
1.30839e-05
7.01434e-05
0.000107778
0.000155924
0.000213811
0.000281061
0.000352526
0.000421039
0.000479866
0.000511362
0.000512029
0.000478553
0.000420263
0.000351836
0.000277532
0.000210661
0.000153988
0.000106435
7.02637e-05
1.31804e-05
1.37333e-05
7.09887e-05
0.000108955
0.000154621
0.000211418
0.000280244
0.000351862
0.000420329
0.000476708
0.000508546
0.000511082
0.000476369
0.000422132
0.000356189
0.000279206
0.000211041
0.000154781
0.000106523
7.03088e-05
1.41662e-05
1.43389e-05
7.08402e-05
0.000110168
0.000159306
0.000218329
0.000285672
0.000357548
0.000429287
0.000481296
0.000515939
0.000509931
0.000478329
0.000424315
0.000356056
0.00028215
0.00021221
0.000153275
0.000106728
6.97271e-05
1.24848e-05
1.28957e-05
7.1075e-05
0.000111523
0.000161832
0.000220788
0.000288639
0.000361048
0.000429555
0.000483949
0.000512936
0.000512433
0.000483679
0.000433967
0.000363643
0.000285352
0.000214297
0.000154407
0.000107304
6.99313e-05
1.31986e-05
1.37442e-05
7.14683e-05
0.00011454
0.000164847
0.000225303
0.000294408
0.000367706
0.000440342
0.000496272
0.000525523
0.000519439
0.000489899
0.00043882
0.000368225
0.000292189
0.000221864
0.000160697
0.000110843
7.02986e-05
1.43855e-05
1.52177e-05
7.14178e-05
0.000112671
0.000163752
0.000226006
0.000299644
0.000376459
0.000442948
0.000494326
0.000526915
0.000524392
0.000500027
0.00044388
0.000373406
0.000294314
0.000221599
0.000161523
0.000111814
7.01866e-05
1.21877e-05
1.31455e-05
7.09036e-05
0.000109202
0.000160123
0.000224163
0.000301634
0.000379988
0.000446311
0.000500018
0.000530162
0.000529105
0.00049999
0.000446717
0.000379901
0.000303059
0.000229315
0.000166668
0.000112024
7.0578e-05
1.2321e-05
1.35542e-05
6.988e-05
0.000110972
0.000164109
0.000228583
0.000307806
0.000386746
0.000453877
0.000508925
0.000544391
0.000545285
0.00050883
0.000453843
0.000386465
0.00030684
0.00022891
0.000167351
0.000111637
7.07795e-05
1.22326e-05
1.50859e-05
6.72423e-05
0.000112636
0.000169008
0.000235992
0.00031428
0.000395763
0.000470348
0.000527041
0.000553096
0.000556237
0.000525421
0.000468359
0.000394985
0.000311393
0.00022698
0.00016452
0.000113172
6.90827e-05
1.3116e-05
1.27878e-05
6.64765e-05
0.000106431
0.000162665
0.000234365
0.000320224
0.000406057
0.000483374
0.000541595
0.000572525
0.000566523
0.000532972
0.000474873
0.000402831
0.000317439
0.000230521
0.000167855
0.000109803
6.62448e-05
1.05585e-05
1.45958e-05
6.74389e-05
0.000105615
0.000161572
0.000238097
0.000330192
0.000418829
0.000498571
0.000558285
0.000590438
0.000582366
0.000547798
0.000492071
0.000413763
0.000325097
0.000233565
0.000161687
0.000102799
6.38569e-05
9.76404e-06
1.26784e-05
6.6075e-05
0.000105257
0.000169023
0.000246413
0.00034192
0.000434265
0.000516777
0.000576349
0.00060945
0.000610604
0.000573387
0.000509797
0.000428635
0.000337002
0.000245495
0.000164914
0.000106047
6.29671e-05
1.05662e-05
1.46471e-05
6.59895e-05
0.000106519
0.000166102
0.000250718
0.000353014
0.000451452
0.000536757
0.000597625
0.000630516
0.000628904
0.000588978
0.000528292
0.000445439
0.000349162
0.000251301
0.000168567
0.000110886
6.27174e-05
9.88645e-06
1.11415e-05
6.4889e-05
0.000111207
0.000172356
0.000261387
0.000367869
0.000469766
0.000555934
0.000612236
0.000645029
0.000650521
0.000616365
0.000551426
0.000464289
0.000362139
0.000258021
0.000168392
0.000101487
5.96486e-05
1.06723e-05
1.3844e-05
6.18272e-05
0.000114292
0.000186182
0.000276934
0.000384138
0.000490773
0.000579837
0.000642706
0.000676223
0.000677005
0.000644195
0.000578401
0.000485978
0.00037552
0.000264509
0.000169502
0.000102281
6.44542e-05
1.00273e-05
1.18628e-05
6.16555e-05
0.000116771
0.000187804
0.000296538
0.000408268
0.000513464
0.000604412
0.000667873
0.000702073
0.0007045
0.00067211
0.000606499
0.000513201
0.000401411
0.000281289
0.000178427
0.000103203
6.20474e-05
1.08377e-05
1.42658e-05
6.14156e-05
0.000124191
0.000201357
0.000315175
0.000433918
0.000543679
0.00063548
0.000699727
0.000733144
0.000733082
0.00069996
0.000634512
0.000541197
0.00042629
0.000308439
0.000194615
0.000113705
6.85869e-05
1.11576e-05
1.13125e-05
6.17882e-05
0.000132924
0.000221534
0.000344947
0.000467971
0.000579604
0.000668957
0.000730538
0.000762199
0.000762655
0.000731517
0.000669185
0.00057792
0.000460199
0.000331657
0.000212274
0.000119944
6.28988e-05
1.26351e-05
1.3433e-05
6.19684e-05
0.00014161
0.000248691
0.000382361
0.000510392
0.00062114
0.000706164
0.000762594
0.000790594
0.000790893
0.000763368
0.000707005
0.000620937
0.000507584
0.000372001
0.000242183
0.000143952
6.24078e-05
1.57695e-05
1.48893e-05
7.40936e-05
0.000172342
0.000293559
0.000430404
0.000561041
0.000667817
0.000744921
0.0007936
0.000817012
0.000817338
0.000794451
0.000745987
0.000668332
0.000559849
0.000425779
0.00027856
0.000158013
7.27629e-05
1.6168e-05
1.86469e-05
8.55625e-05
0.000193508
0.000335924
0.000489284
0.000622033
0.000720272
0.000784756
0.000822079
0.000839005
0.000839295
0.000822811
0.000785592
0.000720744
0.000621676
0.000488147
0.000335451
0.000191447
8.43534e-05
1.83017e-05
2.05248e-05
0.000100964
0.000231161
0.000399659
0.000564309
0.000690432
0.000772184
0.000819457
0.000843165
0.000852646
0.000852818
0.000843627
0.000820099
0.000772744
0.000690211
0.000563352
0.000398961
0.000233036
0.00010078
2.06697e-05
2.2331e-05
0.000127391
0.000289231
0.000484196
0.000650748
0.000757731
0.000813002
0.000837783
0.000848356
0.000852187
0.000852285
0.000848642
0.000838115
0.000813507
0.000758329
0.00065088
0.000483909
0.000288561
0.000127305
2.2342e-05
2.37572e-05
0.000161129
0.000378767
0.000603917
0.000746451
0.000810294
0.000837222
0.000846979
0.000850663
0.000852236
0.000852342
0.000851101
0.000847341
0.000837637
0.0008107
0.000746943
0.000604519
0.000379575
0.00016181
2.37686e-05
2.56431e-05
0.000280402
0.000619459
0.00079262
0.000841158
0.000850374
0.000850515
0.000851377
0.000851958
0.000852027
0.000851982
0.000851754
0.000851379
0.00085058
0.00085029
0.000841003
0.000792322
0.000619152
0.000280295
2.56412e-05
4.36606e-05
0.000117771
0.000159419
0.000193022
0.000232794
0.000281811
0.000347458
0.000427308
0.000500015
0.000539067
0.000530157
0.000480117
0.00040711
0.000332186
0.000270673
0.000223825
0.000184218
0.000150964
0.000114739
4.07187e-05
4.29042e-05
0.000118815
0.000160649
0.000192063
0.000236258
0.000285748
0.000349364
0.000431222
0.000504811
0.000540356
0.000530335
0.00048043
0.000407867
0.000333714
0.000272819
0.000230824
0.000185715
0.000152617
0.000116068
3.99319e-05
4.75805e-05
0.000120798
0.000165632
0.000192181
0.000232014
0.000288809
0.000358255
0.000440622
0.000518079
0.000552758
0.000539617
0.000487356
0.00041269
0.000336558
0.000274036
0.000225302
0.000186252
0.00015335
0.000116338
4.47809e-05
4.41674e-05
0.000116712
0.000156262
0.000191952
0.000233982
0.000281585
0.000342496
0.000418593
0.00049662
0.000562351
0.000557142
0.000504382
0.000418477
0.000345349
0.000275228
0.000229533
0.00018853
0.000158961
0.000115758
4.22216e-05
4.30109e-05
0.000118218
0.000158109
0.000193368
0.000232103
0.00028245
0.000345332
0.00042097
0.000490641
0.000538111
0.000536358
0.000490828
0.000423924
0.000340789
0.000278036
0.000226115
0.000190732
0.000157003
0.000116085
4.6556e-05
4.73832e-05
0.000117252
0.000163459
0.000199174
0.000234469
0.00028452
0.00035004
0.000427782
0.000497844
0.000538006
0.000537972
0.000491313
0.000419196
0.000343563
0.000283934
0.000227248
0.000194491
0.000161075
0.000115137
4.25335e-05
4.23936e-05
0.000116641
0.000155986
0.000191633
0.000239091
0.000293441
0.000370782
0.000456255
0.000511193
0.00054633
0.000543294
0.000506393
0.00043359
0.000351602
0.000279958
0.000227364
0.000189966
0.000156576
0.000116515
4.76377e-05
4.80799e-05
0.000118034
0.000156518
0.000193498
0.000235306
0.000292777
0.000368218
0.000450202
0.000512387
0.000569619
0.000556205
0.000502007
0.000426046
0.000346905
0.00028232
0.000228518
0.000184478
0.000150503
0.000114295
4.22936e-05
4.2896e-05
0.000119063
0.000162277
0.000202538
0.000242485
0.000295978
0.000369823
0.000454127
0.000531385
0.000562383
0.000545291
0.000491619
0.000415766
0.000340525
0.000278691
0.000233563
0.000185685
0.000149359
0.000115572
4.12929e-05
4.24505e-05
0.00011609
0.000157343
0.000202343
0.000240936
0.000290699
0.000358952
0.0004378
0.00050881
0.000575724
0.000543008
0.000489237
0.000418237
0.000341654
0.000276176
0.000228972
0.000190342
0.000150332
0.000113848
4.54302e-05
4.73954e-05
0.00011664
0.000157813
0.000203765
0.000242663
0.000296067
0.000367903
0.000449517
0.00050487
0.000561787
0.000556036
0.000504005
0.000430194
0.000350954
0.00027752
0.000232516
0.000186611
0.000151454
0.000114292
4.0906e-05
4.63459e-05
0.000117199
0.000159172
0.000202452
0.000240654
0.000286566
0.000350813
0.000426628
0.000496256
0.000538877
0.00053941
0.000487479
0.000419252
0.000345859
0.000280695
0.000228728
0.000187451
0.000152678
0.000112244
3.53264e-05
4.6363e-05
0.000117051
0.000160403
0.000199135
0.000239223
0.000290843
0.000360084
0.000428795
0.000495167
0.000537142
0.000552562
0.000492234
0.000429214
0.000355294
0.000273155
0.000228029
0.00018834
0.000155083
0.000111808
3.85216e-05
4.25715e-05
0.000116963
0.000163274
0.000206384
0.000245322
0.000289118
0.000351727
0.000425805
0.00049649
0.000537247
0.000528398
0.000477799
0.000408345
0.000345395
0.000274258
0.000234019
0.000190884
0.00015319
0.000114055
3.76387e-05
4.77404e-05
0.000117677
0.000158964
0.000196708
0.00023976
0.000287007
0.000353428
0.000443957
0.00050766
0.000542744
0.000536394
0.000477192
0.000404445
0.000337048
0.000271724
0.000231094
0.000190629
0.00015901
0.000115284
4.12108e-05
4.07471e-05
0.000118502
0.000155891
0.000199855
0.000242239
0.000290313
0.000356587
0.000437503
0.000510901
0.000551603
0.000556288
0.000485601
0.000407622
0.00033193
0.000269528
0.000233846
0.000195887
0.000158058
0.000115896
4.58222e-05
3.67556e-05
0.000117269
0.000156321
0.000197046
0.000238441
0.000288653
0.000356506
0.000437525
0.000529882
0.00056613
0.000541233
0.00049465
0.000419998
0.000341217
0.000268479
0.000228949
0.000194595
0.000156933
0.00011664
4.45703e-05
3.56012e-05
0.000116664
0.000157747
0.000194107
0.000235668
0.000290705
0.000368659
0.000445932
0.00051453
0.00056236
0.000555503
0.00048634
0.000408905
0.000335317
0.000266811
0.000226118
0.000198442
0.000159149
0.000117686
4.57789e-05
3.85973e-05
0.000116207
0.000163896
0.000201661
0.000241893
0.00028342
0.00035479
0.000458514
0.000518009
0.000559646
0.000554427
0.000490879
0.000408983
0.000330682
0.000267211
0.00022303
0.000191463
0.000152231
0.000117164
4.53476e-05
3.7595e-05
0.000117861
0.000161294
0.000196756
0.000235202
0.000281577
0.000359588
0.000439485
0.000526551
0.000580507
0.000548421
0.0005078
0.000413511
0.000332788
0.000269027
0.000222179
0.000185474
0.000152353
0.00011794
4.46842e-05
4.02662e-05
0.000115667
0.000158138
0.000194451
0.000234194
0.000281225
0.000345269
0.000426299
0.000500593
0.000558796
0.000542365
0.000499569
0.000421757
0.00034171
0.000274934
0.000228402
0.000190288
0.000156439
0.000113746
4.12163e-05
4.34112e-05
0.000116088
0.000163116
0.000201492
0.000240817
0.000282137
0.000344936
0.00043973
0.000503711
0.000544611
0.000541969
0.000491079
0.000411808
0.000335891
0.000274105
0.000222338
0.000182123
0.000149531
0.000112513
3.51583e-05
3.75688e-05
0.000113573
0.000156691
0.000196704
0.000237264
0.000283415
0.000345645
0.000434941
0.000515947
0.000549275
0.000556614
0.000503971
0.000413446
0.000335987
0.00027229
0.00022367
0.000182838
0.000150216
0.000111551
3.70837e-05
4.11603e-05
0.000114913
0.000161279
0.000205039
0.000241238