/*--------------------------------*- C++ -*----------------------------------*\
  =========                 |
  \\      /  F ield         | OpenFOAM: The Open Source CFD Toolbox
   \\    /   O peration     | Website:  https://openfoam.org
    \\  /    A nd           | Version:  6
     \\/     M anipulation  |
\*---------------------------------------------------------------------------*/
FoamFile
{
    version     2.0;
    format      ascii;
    class       volScalarField;
    location    "8";
    object      p;
}
// * * * * * * * * * * * * * * * * * * * * * * * * * * * * * * * * * * * * * //

dimensions      [0 2 -2 0 0 0 0];

internalField   nonuniform List<scalar> 
130000
(
0.00540271
0.00486834
0.00445476
0.00413399
0.00386246
0.00360609
0.00335817
0.00310008
0.00283779
0.00256556
0.00229042
0.00201284
0.00173547
0.0014593
0.00119054
0.000925247
0.000667853
0.000412165
0.00015115
-0.00011317
0.0101587
0.00964841
0.0091144
0.00870387
0.00829561
0.00791776
0.00751368
0.00710378
0.00667112
0.00622984
0.00578341
0.00533499
0.00489773
0.00446979
0.00405634
0.00365815
0.00327773
0.00289987
0.00252884
0.00217202
0.0120871
0.0119182
0.0115221
0.0112269
0.0108811
0.0105513
0.0101735
0.00979068
0.00937439
0.0089444
0.00849872
0.00804217
0.00758794
0.00712444
0.00668471
0.00623802
0.00582382
0.00540093
0.00500554
0.00461069
0.0134246
0.0133175
0.0129846
0.0127194
0.0123629
0.0119855
0.0115483
0.0110995
0.0106231
0.0101327
0.00963691
0.00912598
0.00863066
0.00812788
0.00765175
0.00717459
0.0067369
0.00629044
0.00588444
0.00546871
0.0149495
0.014974
0.0147431
0.0145475
0.014223
0.0138339
0.0133718
0.0128793
0.0123621
0.011821
0.0112813
0.0107207
0.0101825
0.00962375
0.00911208
0.00858135
0.00811154
0.00762212
0.00719379
0.00673699
0.0163458
0.0164326
0.0163013
0.0161947
0.0159379
0.0155749
0.0151279
0.0146244
0.0140968
0.0135261
0.0129638
0.0123628
0.0117967
0.0112025
0.0106589
0.0100958
0.00960136
0.00908152
0.00863449
0.00815402
0.0172405
0.0175131
0.0175087
0.017503
0.0173261
0.0170007
0.0165847
0.0160819
0.0155579
0.0149679
0.0143918
0.0137609
0.0131707
0.012532
0.0119627
0.0113512
0.0108273
0.0102624
0.00978467
0.00924631
0.0184302
0.0187066
0.0187411
0.0187811
0.0186533
0.0183452
0.0179466
0.0174378
0.016913
0.0163026
0.0157146
0.0150522
0.0144433
0.0137757
0.0131809
0.0125408
0.0119956
0.0114008
0.0109031
0.0103352
0.0196489
0.0198621
0.0198762
0.0199356
0.0198324
0.0195309
0.0191377
0.0186178
0.0180856
0.0174532
0.016848
0.0161568
0.0155233
0.0148132
0.0141928
0.0135055
0.0129304
0.0122903
0.0117599
0.0111325
0.0206068
0.0208728
0.0209354
0.0210325
0.0209677
0.0206735
0.0202863
0.0197519
0.0192098
0.0185511
0.017928
0.0172017
0.0165454
0.0158032
0.0151542
0.014435
0.0138349
0.0131603
0.0126046
0.011942
0.0217468
0.021935
0.0219711
0.0220657
0.0220088
0.0216993
0.0213018
0.0207398
0.0201786
0.0194867
0.0188378
0.0180745
0.0173868
0.016596
0.015915
0.0151431
0.0145068
0.0137808
0.013185
0.0124563
0.0227176
0.0229413
0.0229999
0.0231058
0.0230575
0.0227229
0.0223031
0.0217021
0.0211118
0.0203774
0.0196973
0.0188874
0.0181669
0.0173345
0.0166165
0.015804
0.0151348
0.0143659
0.0137368
0.0129645
0.0240135
0.0240582
0.0240278
0.0240914
0.0240105
0.0236284
0.0231666
0.0225153
0.0218841
0.0211011
0.0203803
0.0195226
0.0187592
0.0178695
0.0171096
0.0162366
0.0155216
0.0146934
0.0140148
0.0131692
0.0250078
0.0250102
0.0249533
0.0250078
0.0249055
0.0244823
0.0239777
0.0232745
0.0225985
0.0217627
0.0209985
0.0200853
0.0192783
0.0183384
0.0175319
0.0166094
0.0158515
0.0149717
0.0142495
0.0133512
0.0259529
0.025889
0.0257898
0.0258089
0.0256701
0.025189
0.024632
0.0238673
0.0231401
0.0222464
0.0214309
0.0204618
0.0196021
0.0185991
0.0177405
0.016752
0.0159388
0.014994
0.0142113
0.0132349
0.0269565
0.0267648
0.0265929
0.0265654
0.0263779
0.0258334
0.0252164
0.0243875
0.0236036
0.0226492
0.0217803
0.02075
0.0198375
0.0187784
0.0178644
0.0168207
0.0159549
0.0149516
0.0141141
0.013077
0.0277086
0.0274344
0.0271984
0.0271341
0.0268989
0.0262957
0.0256161
0.024725
0.0238812
0.0228686
0.0219406
0.0208536
0.0198801
0.0187574
0.0177826
0.0166724
0.0157419
0.0146722
0.0137642
0.0126486
0.0285562
0.0280804
0.027728
0.0276184
0.027327
0.0266674
0.0259238
0.0249735
0.0240685
0.0229986
0.0220122
0.020866
0.0198336
0.0186538
0.0176168
0.0164486
0.0154578
0.0143272
0.0133558
0.0121769
0.0288213
0.0283391
0.0279707
0.0278558
0.0275366
0.0268348
0.0260379
0.0250358
0.0240738
0.0229527
0.0219071
0.0207098
0.0196143
0.0183762
0.0172735
0.0160435
0.0149831
0.013791
0.0127444
0.0114942
0.0290625
0.028531
0.0281335
0.028005
0.0276557
0.0269099
0.0260602
0.0250084
0.0239919
0.0228215
0.0217206
0.0204708
0.0193174
0.0180267
0.0168614
0.0155765
0.0144539
0.0132031
0.0120891
0.0107766
0.0290655
0.0285173
0.0281054
0.027974
0.0276016
0.0268226
0.0259245
0.0248317
0.0237633
0.022552
0.0213948
0.0201031
0.0188883
0.0175498
0.01632
0.0149843
0.0137925
0.0124902
0.0112996
0.0099267
0.029123
0.0284672
0.0279844
0.0278498
0.0274486
0.0266477
0.0257044
0.0245785
0.0234604
0.0222123
0.0210034
0.0196695
0.0183998
0.0170167
0.015728
0.0143449
0.0130937
0.0117388
0.0104809
0.00904949
0.0288263
0.0281729
0.0276772
0.027563
0.0271492
0.0263393
0.0253587
0.0242104
0.0230473
0.0217734
0.0205145
0.0191522
0.0178262
0.0164096
0.0150611
0.0136423
0.0123264
0.0109345
0.00960333
0.0081267
0.0284227
0.0277772
0.0272761
0.0271886
0.0267695
0.025955
0.0249437
0.0237778
0.0225768
0.0212804
0.0199797
0.0185889
0.0172175
0.0157684
0.0143694
0.0129133
0.0115448
0.010109
0.00871462
0.00718608
0.0279478
0.0272865
0.0267776
0.026715
0.0262941
0.0254831
0.0244476
0.023275
0.022043
0.020737
0.0193995
0.0179968
0.0165818
0.0151156
0.0136673
0.0121915
0.0107671
0.00931013
0.0078499
0.00629202
0.0273732
0.0267064
0.026178
0.0261596
0.0257459
0.0249509
0.0239019
0.0227306
0.0214777
0.0201662
0.0188036
0.0173882
0.0159428
0.0144583
0.0129726
0.0114721
0.0100064
0.00851656
0.00700223
0.0054015
0.026729
0.026059
0.0255378
0.0255564
0.0251599
0.0243829
0.0233307
0.0221683
0.0209049
0.0195991
0.0182185
0.0168059
0.0153336
0.0138454
0.0123257
0.0108181
0.00931027
0.00781185
0.00624472
0.00462631
0.0258833
0.0252758
0.0248033
0.0248866
0.0245332
0.0237874
0.0227495
0.0216027
0.0203419
0.0190444
0.0176588
0.0162462
0.0147611
0.0132669
0.0117254
0.0102051
0.00867123
0.0071522
0.00554614
0.0038961
0.025154
0.0245463
0.0241067
0.0242382
0.0239273
0.0232112
0.0221933
0.0210673
0.0198173
0.0185366
0.0171519
0.0157517
0.0142572
0.0127676
0.0112092
0.00968924
0.00812969
0.00660907
0.00496612
0.00330293
0.0243174
0.0237648
0.0233808
0.0235878
0.0233342
0.0226611
0.0216733
0.0205746
0.0193433
0.0180817
0.016708
0.0153179
0.0138268
0.0123424
0.0107781
0.00925631
0.00768601
0.00615447
0.00448796
0.00280248
0.0235835
0.0230526
0.0227112
0.0229841
0.0227854
0.0221559
0.0212005
0.0201332
0.0189253
0.0176898
0.0163306
0.0149616
0.0134754
0.0120023
0.0104357
0.00891911
0.00733717
0.0058073
0.00411741
0.00241967
0.0228254
0.0223487
0.0220674
0.0224253
0.0222939
0.0217169
0.0208021
0.019771
0.0185932
0.0173854
0.016049
0.0146982
0.0132272
0.0117673
0.0102064
0.00869597
0.00711501
0.0055816
0.00388091
0.00216844
0.0221457
0.021705
0.0214841
0.0219189
0.0218557
0.0213308
0.0204598
0.019468
0.0183248
0.0171504
0.0158389
0.0145153
0.013059
0.0116153
0.0100621
0.00856042
0.00697717
0.00544809
0.00373318
0.00200895
0.0214913
0.021109
0.0209595
0.0214868
0.0215015
0.0210362
0.0202157
0.0192673
0.0181638
0.017024
0.0157448
0.0144456
0.0130133
0.0115887
0.010049
0.00855887
0.00698453
0.0054573
0.00373953
0.002005
0.0209332
0.0205957
0.0205137
0.0211252
0.0212171
0.0208107
0.0200431
0.0191398
0.0180788
0.0169772
0.0157307
0.0144634
0.013053
0.0116477
0.0101219
0.00864331
0.00707269
0.00555181
0.00382482
0.00207835
0.0204322
0.0201617
0.0201593
0.0208705
0.0210487
0.0207079
0.0199983
0.0191428
0.0181275
0.0170635
0.0158541
0.0146139
0.0132324
0.0118492
0.0103417
0.0088774
0.00731909
0.00580165
0.00407497
0.00231943
0.020063
0.0198402
0.0199161
0.0207163
0.0209792
0.0207006
0.0200495
0.0192417
0.0182736
0.0172498
0.0160767
0.0148696
0.013513
0.01215
0.0106587
0.00920517
0.00765117
0.00613906
0.00440394
0.00263483
0.019788
0.0196347
0.0197967
0.0207009
0.0210552
0.0208452
0.0202559
0.0194984
0.0185796
0.0175953
0.0164618
0.0152825
0.0139561
0.0126151
0.011142
0.0097018
0.00815998
0.00664996
0.00491423
0.00313362
0.0196872
0.0195855
0.0198261
0.020823
0.0212641
0.0211188
0.0205901
0.0198819
0.019012
0.0180684
0.0169722
0.0158253
0.0145236
0.013201
0.0117436
0.0103123
0.00877366
0.00726537
0.00551834
0.00371875
0.019723
0.0196951
0.0200236
0.0211275
0.021661
0.021585
0.0211186
0.0204603
0.0196398
0.0187349
0.017678
0.016557
0.015284
0.0139805
0.0125392
0.0111178
0.00958782
0.00807655
0.00632435
0.0045071
0.0199751
0.0200002
0.0204136
0.0216115
0.0222329
0.02222
0.021813
0.021202
0.020429
0.0195626
0.0185412
0.0174498
0.0161988
0.0149094
0.0134798
0.0120614
0.0105291
0.00901246
0.00724293
0.00539843
0.0204129
0.0205111
0.0210146
0.0223194
0.0230326
0.0230867
0.0227398
0.0221759
0.0214497
0.0206189
0.0196342
0.0185652
0.0173397
0.0160645
0.0146459
0.0132306
0.0117004
0.0101731
0.00839126
0.00652044
0.0211174
0.0212657
0.0218509
0.0232483
0.0240476
0.0241621
0.0238723
0.0233521
0.0226707
0.0218742
0.0209214
0.0198771
0.0186692
0.0174018
0.0159888
0.0145684
0.0130283
0.0114866
0.00967916
0.00777035
0.0220492
0.022267
0.0229425
0.0244462
0.0253366
0.025515
0.0252825
0.0248054
0.0241671
0.0234011
0.0224801
0.0214519
0.0202635
0.0190033
0.0175941
0.0161687
0.0146225
0.0130607
0.0112318
0.00928574
0.0232905
0.0235512
0.0243126
0.0259091
0.0268858
0.027121
0.0269424
0.0265041
0.0259059
0.0251684
0.0242735
0.023263
0.022085
0.0208244
0.0194128
0.0179729
0.0164077
0.0148208
0.0129557
0.0109592
0.0248119
0.025133
0.0259851
0.0276886
0.028755
0.0290509
0.0289254
0.0285254
0.027965
0.0272521
0.0263825
0.0253809
0.0242147
0.0229529
0.0215363
0.0200817
0.0185002
0.016882
0.0149838
0.012937
0.0266801
0.0270446
0.0279808
0.0297798
0.0309303
0.0312807
0.0312039
0.0308382
0.0303119
0.0296217
0.0287711
0.0277799
0.0266159
0.0253449
0.0239162
0.0224369
0.020825
0.0191698
0.0172224
0.0151108
0.0288925
0.0293113
0.0303342
0.0322415
0.0334781
0.0338859
0.0338561
0.0335237
0.0330284
0.0323568
0.0315241
0.0305345
0.0293737
0.0280927
0.0266489
0.0251442
0.0235043
0.0218052
0.0198113
0.0176344
0.0314704
0.0319355
0.0330479
0.0350562
0.036376
0.0368366
0.0368503
0.0365479
0.0360804
0.0354261
0.0346051
0.0336192
0.0324517
0.0311531
0.0296867
0.0281469
0.026464
0.0247155
0.0226578
0.0204011
0.0344462
0.0349597
0.036161
0.0382834
0.0396897
0.0402074
0.0402641
0.039992
0.0395504
0.0389102
0.0381007
0.0371099
0.0359376
0.0346204
0.0331289
0.0315529
0.0298297
0.0280238
0.0259049
0.0235666
0.0378206
0.0383808
0.0396745
0.0419053
0.0433962
0.0439678
0.0440657
0.0438223
0.0434047
0.0427789
0.0419753
0.0409834
0.0397966
0.0384545
0.0369301
0.035309
0.03353
0.031662
0.0294638
0.0270297
0.0416305
0.0422425
0.0436307
0.0459832
0.0475637
0.0481946
0.0483351
0.048122
0.0477279
0.0471142
0.0463178
0.0453165
0.0441182
0.0427501
0.0411912
0.0395235
0.0376918
0.0357531
0.033478
0.030945
0.0458696
0.0465291
0.0480214
0.0504941
0.0521673
0.0528574
0.0530411
0.0528588
0.0524881
0.0518885
0.0510949
0.0500896
0.0488707
0.047472
0.045871
0.0441493
0.042249
0.0402359
0.0378652
0.0352202
0.0505793
0.051295
0.0528952
0.0555055
0.057278
0.0580351
0.058265
0.0581168
0.0577706
0.0571842
0.0563961
0.0553795
0.0541443
0.0527142
0.0510704
0.0492926
0.0473275
0.0452299
0.0427662
0.0400039
0.0557643
0.0565367
0.0582537
0.061001
0.0628761
0.0637018
0.0639798
0.0638682
0.0635478
0.0629787
0.062193
0.0611724
0.0599127
0.0584484
0.0567545
0.054915
0.0528688
0.0506846
0.0481084
0.045217
0.0614476
0.0622913
0.0641339
0.0670399
0.0690281
0.0699329
0.0702647
0.0701951
0.0699039
0.069353
0.0685743
0.0675435
0.0662654
0.0647663
0.0630231
0.0611191
0.0589963
0.0567141
0.054028
0.0509997
0.0676396
0.0685551
0.070539
0.0736066
0.0757154
0.0767041
0.0770948
0.0770729
0.076815
0.0762892
0.0755166
0.0744856
0.0731821
0.0716481
0.0698488
0.067877
0.0656614
0.0632808
0.0604647
0.057289
0.0743478
0.0753598
0.0774985
0.0807549
0.0829994
0.0840868
0.0845465
0.0845811
0.0843633
0.083866
0.0831072
0.0820715
0.0807512
0.0791821
0.0773294
0.0752863
0.0729836
0.0704913
0.0675477
0.0642138
0.0816108
0.0827182
0.0850286
0.0884792
0.0908704
0.0920645
0.0926017
0.0927018
0.0925317
0.092073
0.0913297
0.0903021
0.0889601
0.0873586
0.0854466
0.0833313
0.080925
0.0783225
0.0752307
0.0717292
0.0894067
0.0906417
0.0931468
0.0968258
0.0993854
0.100706
0.101334
0.101512
0.1014
0.100987
0.10027
0.0992481
0.0978953
0.0962622
0.0942956
0.0921043
0.0896008
0.0868731
0.0836353
0.0799519
0.0977938
0.0991545
0.101878
0.105796
0.10854
0.109999
0.110732
0.111001
0.110958
0.110604
0.109918
0.108919
0.107553
0.105894
0.103868
0.101602
0.0989851
0.0961354
0.0927296
0.0888558
0.10674
0.108268
0.111237
0.115436
0.118389
0.120011
0.120867
0.121244
0.121284
0.121
0.120359
0.119383
0.118017
0.116334
0.114255
0.111911
0.109188
0.106199
0.102627
0.0985445
0.11633
0.118023
0.12126
0.125754
0.128937
0.130738
0.131733
0.132235
0.132374
0.132177
0.13159
0.130657
0.129292
0.127595
0.125459
0.12304
0.120194
0.117071
0.113309
0.10901
0.126496
0.128403
0.131946
0.136782
0.140228
0.142239
0.143396
0.144045
0.144302
0.144207
0.143692
0.142806
0.141458
0.139751
0.137567
0.13507
0.132109
0.128832
0.124881
0.120342
0.13732
0.139445
0.143327
0.148531
0.152265
0.154508
0.155851
0.15667
0.157065
0.157096
0.156666
0.155852
0.154526
0.15282
0.150588
0.148018
0.144927
0.141501
0.137335
0.132547
0.148736
0.151133
0.155397
0.161022
0.165085
0.167598
0.169155
0.170172
0.170731
0.170908
0.170588
0.169854
0.16857
0.166874
0.164604
0.161958
0.158743
0.155148
0.150766
0.145701
0.160822
0.163501
0.168186
0.174264
0.178689
0.1815
0.183301
0.184547
0.185296
0.185649
0.185457
0.184834
0.183601
0.181931
0.179624
0.17691
0.173557
0.169796
0.165171
0.159816
0.173494
0.176508
0.181669
0.188264
0.193101
0.196254
0.198338
0.199845
0.200817
0.201373
0.20134
0.200842
0.199686
0.198051
0.195721
0.192937
0.189452
0.185503
0.180629
0.174949
0.186797
0.19017
0.195861
0.203018
0.20831
0.211843
0.214244
0.216052
0.217281
0.218077
0.218229
0.217892
0.216825
0.215247
0.212898
0.210053
0.206421
0.202286
0.197131
0.191109
0.200677
0.204463
0.210741
0.21853
0.224333
0.228296
0.231058
0.233205
0.234732
0.2358
0.236173
0.236016
0.235071
0.233563
0.231211
0.228303
0.22453
0.220182
0.214735
0.208328
0.215141
0.219375
0.226303
0.234778
0.24114
0.245575
0.24874
0.25127
0.253133
0.254518
0.255143
0.255209
0.254403
0.25299
0.250641
0.24768
0.243747
0.239186
0.233409
0.226591
0.230118
0.234851
0.242497
0.251736
0.258721
0.263682
0.267296
0.270254
0.272497
0.274237
0.275157
0.275469
0.274838
0.273539
0.271211
0.268194
0.264107
0.259299
0.253176
0.245894
0.245537
0.250827
0.259274
0.269344
0.277006
0.28254
0.286646
0.290077
0.292742
0.294884
0.296135
0.296743
0.296309
0.29515
0.292852
0.28979
0.285526
0.280468
0.273953
0.26617
0.261378
0.267262
0.276579
0.287559
0.295958
0.302112
0.306754
0.310696
0.313827
0.316409
0.318035
0.318963
0.318767
0.31777
0.315521
0.312414
0.307978
0.302632
0.295701
0.287354
0.277477
0.284031
0.294308
0.306265
0.315453
0.322261
0.327467
0.331954
0.335583
0.338646
0.34068
0.341978
0.342043
0.341238
0.339052
0.33591
0.33128
0.32564
0.318243
0.309286
0.293851
0.301076
0.312374
0.325373
0.335389
0.342873
0.348661
0.353707
0.357856
0.361422
0.3639
0.365589
0.365955
0.365369
0.363269
0.360099
0.355284
0.349316
0.34143
0.331798
0.310165
0.318165
0.330579
0.344675
0.355536
0.36369
0.370042
0.375639
0.380304
0.384387
0.38732
0.389438
0.390127
0.38979
0.387797
0.384617
0.379606
0.37331
0.364887
0.354518
0.326578
0.335291
0.348835
0.364035
0.375711
0.384476
0.39133
0.397419
0.402559
0.407129
0.410516
0.413062
0.414101
0.414042
0.412186
0.409018
0.403833
0.397184
0.388188
0.376985
0.342571
0.352077
0.366798
0.383077
0.395489
0.404747
0.411977
0.418443
0.423961
0.428955
0.432751
0.435721
0.437107
0.437344
0.435648
0.432514
0.427145
0.420123
0.41047
0.398346
0.358286
0.368406
0.384221
0.401467
0.414449
0.423998
0.431396
0.438043
0.443778
0.449064
0.453183
0.456513
0.458229
0.458763
0.457235
0.454139
0.448571
0.441115
0.430776
0.417718
0.372834
0.38359
0.400444
0.418505
0.431818
0.44137
0.448644
0.455201
0.460915
0.466306
0.470596
0.47419
0.476155
0.47693
0.475523
0.472402
0.466558
0.458653
0.447679
0.433716
0.386304
0.397317
0.414967
0.433555
0.446853
0.456023
0.462793
0.468906
0.474292
0.479519
0.483766
0.487431
0.489499
0.490382
0.488953
0.485682
0.479507
0.471206
0.459568
0.444415
0.397166
0.408319
0.426578
0.445405
0.458318
0.466691
0.472551
0.477839
0.482552
0.487307
0.491221
0.494697
0.496598
0.497316
0.495615
0.492026
0.485449
0.476504
0.463691
0.446937
0.405084
0.415722
0.434196
0.452902
0.465064
0.472262
0.476851
0.480967
0.484679
0.488625
0.491865
0.494768
0.496106
0.496254
0.493946
0.489758
0.482231
0.471851
0.457286
0.438568
0.407183
0.41715
0.435702
0.454158
0.465413
0.471276
0.474433
0.477206
0.479711
0.482575
0.484779
0.486656
0.486892
0.485941
0.482467
0.476729
0.467042
0.454269
0.43717
0.415613
0.402063
0.410547
0.429018
0.44734
0.4579
0.462671
0.464634
0.466237
0.467601
0.469273
0.470156
0.470509
0.469058
0.466242
0.460295
0.45137
0.438083
0.42153
0.400372
0.374431
0.384312
0.391297
0.410172
0.429258
0.440164
0.4449
0.446648
0.447895
0.448698
0.449454
0.448977
0.447504
0.443744
0.437616
0.427134
0.412894
0.393791
0.370963
0.343164
0.310312
0.34922
0.354278
0.37461
0.39637
0.409854
0.416821
0.420441
0.423108
0.424709
0.425434
0.424044
0.4207
0.413538
0.401974
0.384639
0.362392
0.334063
0.301032
0.262624
0.219101
0.285407
0.289958
0.314629
0.343
0.363272
0.376561
0.385727
0.392897
0.397663
0.399989
0.398652
0.39308
0.380782
0.361547
0.334591
0.300444
0.258156
0.209521
0.154868
0.0951552
0.180862
0.187095
0.22146
0.263225
0.297192
0.323215
0.34345
0.359614
0.370887
0.377022
0.376486
0.367617
0.348216
0.318704
0.278392
0.227528
0.165334
0.0941548
0.0157811
-0.0676111
0.0144898
0.0294344
0.0841365
0.151089
0.209559
0.257485
0.296087
0.326745
0.348256
0.36017
0.360027
0.345741
0.316321
0.272344
0.213181
0.138778
0.0493497
-0.0521478
-0.162933
-0.279537
-0.229202
-0.193696
-0.101494
0.00817121
0.106058
0.187449
0.252735
0.303391
0.338093
0.356092
0.354421
0.331412
0.287168
0.222072
0.135985
0.0292
-0.0972116
-0.239706
-0.394304
-0.556025
-0.560072
-0.479059
-0.32137
-0.144315
0.0114891
0.138656
0.237706
0.311461
0.359486
0.380634
0.372541
0.334572
0.267349
0.171293
0.047149
-0.104465
-0.281376
-0.47964
-0.693954
-0.917163
-0.944306
-0.779138
-0.517993
-0.245896
-0.0159969
0.16449
0.29907
0.393727
0.449572
0.466165
0.442525
0.379106
0.277126
0.13722
-0.0385544
-0.249644
-0.493764
-0.767945
-1.06574
-1.37635
-1.30146
-1.00017
-0.599469
-0.216032
0.0908696
0.318425
0.476378
0.57737
0.626662
0.626351
0.57675
0.478394
0.332937
0.139953
-0.0981523
-0.382268
-0.710591
-1.08349
-1.49456
-1.9304
-1.49808
-1.02447
-0.486004
-0.0213895
0.32263
0.557128
0.702206
0.778422
0.797175
0.764824
0.682687
0.550549
0.366982
0.128979
-0.164851
-0.520207
-0.939148
-1.42736
-1.97997
-2.58546
-1.39317
-0.810574
-0.254169
0.163281
0.439105
0.601793
0.680876
0.703749
0.679393
0.614405
0.505957
0.355142
0.15544
-0.0996973
-0.422143
-0.824889
-1.3216
-1.92574
-2.62493
-3.40277
-1.34985
-0.744723
-0.328834
-0.0769837
0.0872401
0.189517
0.239496
0.244238
0.200738
0.117407
-0.00805694
-0.170355
-0.380705
-0.641459
-0.971821
-1.38892
-1.91992
-2.59146
-3.39037
-4.24646
-2.4886
-1.42203
-0.856183
-0.474205
-0.169166
0.0475914
0.165394
0.207055
0.173185
0.0863946
-0.060788
-0.248859
-0.503312
-0.806714
-1.21237
-1.69974
-2.31445
-3.01241
-3.76419
-4.47379
-3.86529
-2.44943
-1.55366
-0.926892
-0.429748
-0.114864
0.0544168
0.124102
0.112173
0.0377075
-0.100661
-0.291201
-0.54508
-0.853144
-1.24976
-1.7017
-2.22036
-2.74059
-3.07751
-3.06068
0.000138105
8.57729e-05
0.000126848
0.000125935
9.97206e-05
5.87828e-05
1.94377e-05
-3.18722e-05
-8.59804e-05
-0.000153756
-0.000226522
-0.00031211
-0.000404031
-0.000510485
-0.000619946
-0.000745071
-0.000876457
-0.00103262
-0.00122096
-0.00143821
0.00445333
0.00430993
0.00428219
0.00422067
0.00410231
0.00398032
0.00384165
0.00370341
0.00355046
0.003394
0.00322528
0.00305049
0.00286627
0.00268009
0.00248063
0.00228153
0.00206656
0.00183059
0.00155526
0.00129562
0.00963801
0.00957085
0.00940648
0.00927262
0.00907056
0.00888634
0.00866383
0.00845916
0.00822071
0.00799398
0.00773753
0.0074897
0.00721688
0.00694854
0.00666859
0.00639406
0.00611001
0.00582445
0.00551281
0.00522613
0.0119527
0.0118363
0.0115896
0.0114028
0.0111218
0.0108704
0.0105584
0.0102777
0.00994968
0.00964862
0.009311
0.00899611
0.00865423
0.00833831
0.00799982
0.00769239
0.00737041
0.00706868
0.00674451
0.00645383
0.0151086
0.0149398
0.0146277
0.0143993
0.0140533
0.0137476
0.0133617
0.0130209
0.0126185
0.0122583
0.0118508
0.0114827
0.011079
0.0107084
0.0103207
0.0099651
0.0096012
0.00926713
0.00891494
0.00860325
0.0183
0.0180773
0.0177075
0.01745
0.0170534
0.0167072
0.0162639
0.015876
0.0154149
0.0150054
0.0145414
0.0141244
0.0136692
0.013263
0.0128274
0.0124446
0.0120457
0.0116899
0.0113113
0.0109867
0.0212113
0.0209572
0.0205443
0.0202652
0.0198289
0.0194514
0.0189615
0.0185362
0.018026
0.0175769
0.0170639
0.016608
0.0161058
0.0156532
0.0151777
0.0147502
0.0143132
0.0139207
0.0135044
0.0131334
0.0240416
0.0237398
0.0232809
0.0229859
0.0225181
0.0221174
0.02159
0.0211336
0.020583
0.0200989
0.0195458
0.0190533
0.0185128
0.0180339
0.0175201
0.0170715
0.016605
0.0161922
0.0157497
0.0153612
0.0266421
0.0263114
0.0258177
0.0255109
0.0250183
0.0245989
0.02404
0.0235576
0.0229715
0.0224579
0.0218682
0.0213456
0.0207691
0.0202504
0.0197055
0.019216
0.0187172
0.0182675
0.0177885
0.0173501
0.0291986
0.0288245
0.0282943
0.0279813
0.0274701
0.0270383
0.0264543
0.0259507
0.0253351
0.0247951
0.0241749
0.0236229
0.0230161
0.0224768
0.0218996
0.021393
0.0208684
0.0203995
0.0198943
0.0194367
0.031503
0.0311107
0.0305556
0.0302398
0.0297136
0.0292723
0.0286666
0.028146
0.0275043
0.0269424
0.0262935
0.0257173
0.0250804
0.0245046
0.0238998
0.0233525
0.0227968
0.0222888
0.0217469
0.0212357
0.0337486
0.0333215
0.032739
0.0324219
0.031883
0.0314356
0.0308129
0.0302796
0.0296171
0.0290369
0.0283648
0.0277649
0.0271029
0.0265096
0.025875
0.0253113
0.0247305
0.0242032
0.0236361
0.0231049
0.0357002
0.0352709
0.0346723
0.0343592
0.0338113
0.033362
0.0327258
0.0321841
0.0315037
0.0309095
0.030215
0.0295963
0.0289077
0.0282811
0.02762
0.0270161
0.0264036
0.0258355
0.0252299
0.024641
0.0375746
0.037123
0.0365068
0.0361982
0.0356468
0.0351997
0.0345552
0.0340082
0.0333141
0.0327075
0.0319951
0.0313567
0.0306463
0.0300032
0.0293139
0.0286915
0.028052
0.0274599
0.0268252
0.0262105
0.0391071
0.038677
0.0380625
0.0377689
0.0372197
0.0367799
0.0361314
0.0355833
0.0348781
0.0342625
0.0335322
0.0328786
0.0321443
0.0314709
0.0307552
0.0300935
0.02942
0.028785
0.0281072
0.0274317
0.0405704
0.0401425
0.0395318
0.03925
0.038706
0.0382715
0.037622
0.0370727
0.0363597
0.0357341
0.0349894
0.0343169
0.033563
0.0328715
0.032129
0.0314465
0.0307467
0.0300846
0.0293761
0.0286683
0.0417395
0.0413555
0.0407668
0.040502
0.0399653
0.0395369
0.0388885
0.0383395
0.037621
0.0369884
0.0362296
0.0355428
0.0347665
0.0340464
0.0332777
0.0325594
0.0318265
0.0311255
0.0303746
0.0296077
0.0428565
0.0425084
0.0419447
0.0416941
0.0411682
0.0407462
0.0401038
0.0395553
0.0388355
0.0381952
0.0374281
0.0367234
0.0359308
0.0351904
0.034397
0.0336536
0.0328932
0.0321591
0.0313739
0.0305658
0.0437676
0.0434936
0.0429714
0.0427449
0.0422363
0.0418256
0.0411943
0.0406499
0.0399324
0.0392875
0.0385117
0.0377939
0.0369812
0.0362128
0.0353906
0.0346092
0.0338098
0.0330326
0.0321982
0.0313281
0.0447381
0.0445209
0.0440415
0.0438339
0.043345
0.0429423
0.0423249
0.0417831
0.0410704
0.0404173
0.0396355
0.038898
0.0380702
0.0372769
0.0364281
0.035614
0.0347825
0.0339635
0.033087
0.0321639
0.0456796
0.0455349
0.0451095
0.044924
0.04446
0.044066
0.0434642
0.0429236
0.0422151
0.041554
0.0407639
0.040011
0.0391631
0.0383422
0.0374641
0.0366131
0.0357386
0.0348736
0.0339402
0.0329507
0.0467611
0.046683
0.0463137
0.0461489
0.0457118
0.0453248
0.0447395
0.0441978
0.0434942
0.0428223
0.0420269
0.0412518
0.0403875
0.039537
0.0386292
0.0377388
0.0368255
0.0359086
0.0349225
0.0338675
0.0479648
0.0479627
0.0476534
0.0475083
0.0470958
0.0467134
0.0461444
0.0456028
0.0449053
0.044225
0.0434211
0.0426284
0.0417402
0.0408582
0.0399132
0.0389804
0.0380142
0.037046
0.0359932
0.0348692
0.0494149
0.049481
0.0492287
0.0490998
0.0487131
0.0483341
0.0477828
0.0472394
0.0465476
0.0458534
0.0450409
0.0442211
0.0433115
0.0423937
0.0414122
0.0404312
0.039416
0.0383847
0.0372679
0.0360688
0.0511245
0.0512483
0.0510531
0.0509397
0.0505824
0.0502077
0.049674
0.049127
0.048438
0.0477297
0.0469033
0.0460603
0.0451212
0.0441675
0.0431428
0.0421154
0.0410399
0.0399539
0.0387632
0.0374926
0.053141
0.0533258
0.0531876
0.0530922
0.0527648
0.0523935
0.0518761
0.0513224
0.050635
0.049908
0.0490693
0.0481942
0.0472292
0.0462345
0.0451682
0.0440884
0.042961
0.0418102
0.0405525
0.0392014
0.0555372
0.0557677
0.0556798
0.055595
0.0552925
0.0549195
0.0544157
0.0538536
0.0531666
0.0524219
0.0515672
0.050665
0.0496669
0.0486312
0.0475192
0.0463908
0.0452041
0.0439992
0.0426684
0.0412429
0.058321
0.0585991
0.0585558
0.058482
0.0582024
0.0578286
0.0573385
0.0567681
0.0560817
0.0553161
0.0544471
0.0535089
0.0524821
0.0514018
0.0502464
0.0490647
0.0478274
0.0465588
0.0451632
0.0436569
0.0615487
0.0618561
0.0618503
0.0617823
0.0615253
0.0611491
0.0606712
0.0600903
0.0594027
0.0586161
0.0577293
0.0567598
0.0556982
0.0545714
0.0533686
0.0521308
0.0508329
0.0495041
0.0480357
0.0464488
0.0652097
0.0655535
0.065585
0.0655288
0.0652951
0.0649189
0.0644521
0.0638594
0.0631683
0.062357
0.0614536
0.0604457
0.0593548
0.0581818
0.0569343
0.0556397
0.0542886
0.0528911
0.0513554
0.0496837
0.0693255
0.069698
0.0697653
0.0697182
0.0695054
0.069126
0.0686672
0.0680597
0.0673619
0.0665247
0.0656002
0.0645574
0.063431
0.0622074
0.0609126
0.0595558
0.0581423
0.0566746
0.0550606
0.0532949
0.0739062
0.074312
0.0744154
0.0743848
0.0741939
0.073814
0.0733619
0.07274
0.0720342
0.071169
0.0702242
0.0691399
0.0679815
0.066709
0.0653665
0.0639495
0.0624789
0.0609366
0.0592502
0.0573925
0.0789291
0.0793644
0.0795025
0.0794865
0.0793165
0.0789344
0.0784871
0.0778495
0.0771339
0.0762411
0.0752716
0.0741491
0.0729509
0.0716224
0.0702282
0.068742
0.0672029
0.0655806
0.0638081
0.0618439
0.084436
0.0849001
0.0850686
0.0850701
0.0849201
0.0845385
0.0840959
0.0834445
0.0827188
0.0817971
0.080804
0.079637
0.0784021
0.0770217
0.0755753
0.0740248
0.0724222
0.0707186
0.0688661
0.0668018
0.0903709
0.0908663
0.0910653
0.091081
0.0909485
0.0905661
0.0901276
0.0894624
0.0887256
0.087776
0.0867548
0.0855472
0.0842682
0.0828279
0.0813243
0.0796977
0.078019
0.0762274
0.07428
0.0720984
0.0967928
0.0973196
0.0975485
0.0975831
0.0974691
0.0970901
0.0966569
0.09598
0.0952321
0.0942536
0.0932057
0.0919512
0.0906301
0.0891319
0.087567
0.0858684
0.0841174
0.0822365
0.080199
0.0779068
0.103631
0.104198
0.104463
0.104519
0.104426
0.10405
0.103622
0.102934
0.102174
0.101168
0.100089
0.0987897
0.0974167
0.0958506
0.094219
0.0924367
0.0906003
0.0886214
0.0864764
0.0840539
0.110965
0.111575
0.11188
0.111966
0.111897
0.111527
0.111104
0.110405
0.109632
0.108596
0.107486
0.106137
0.104716
0.103087
0.101387
0.0995254
0.0976054
0.0955253
0.0932766
0.0907301
0.118721
0.119386
0.119741
0.119863
0.119821
0.11946
0.119041
0.11833
0.117544
0.116479
0.115335
0.113939
0.112464
0.110764
0.10899
0.107035
0.105016
0.102826
0.100456
0.0977655
0.126987
0.127711
0.128119
0.128285
0.128278
0.127932
0.127522
0.126802
0.126003
0.124908
0.123731
0.122283
0.120755
0.118987
0.117137
0.11509
0.112976
0.110671
0.108184
0.105354
0.135697
0.136493
0.136964
0.137178
0.137212
0.136885
0.136488
0.135763
0.134952
0.133828
0.132616
0.131119
0.129531
0.127684
0.12575
0.1236
0.121375
0.118947
0.116324
0.113333
0.144944
0.145819
0.146357
0.14663
0.14671
0.146411
0.146032
0.145306
0.144486
0.143334
0.142088
0.140536
0.138889
0.136967
0.134946
0.132695
0.130362
0.127807
0.12505
0.121901
0.154671
0.155639
0.156258
0.156595
0.156728
0.15646
0.156104
0.155381
0.154555
0.153378
0.152096
0.150493
0.148779
0.146771
0.144658
0.142293
0.139838
0.137144
0.134235
0.130905
0.164978
0.166048
0.166755
0.167166
0.167359
0.167131
0.166803
0.166088
0.165258
0.164057
0.162742
0.161081
0.159306
0.157215
0.155007
0.15253
0.149953
0.147116
0.144056
0.140547
0.17581
0.177
0.177809
0.178304
0.178565
0.178381
0.178086
0.177383
0.176553
0.175332
0.173982
0.172269
0.170423
0.168242
0.165933
0.163332
0.160618
0.157626
0.154394
0.150683
0.187272
0.188593
0.189513
0.190106
0.190445
0.190315
0.19006
0.189374
0.188548
0.187307
0.185926
0.184156
0.182245
0.179976
0.177562
0.174838
0.171988
0.168836
0.165432
0.161518
0.199319
0.200792
0.201841
0.202543
0.202969
0.202902
0.202692
0.20203
0.201211
0.199956
0.198542
0.196721
0.194736
0.192371
0.189847
0.186986
0.183984
0.18066
0.177062
0.17292
0.212059
0.213699
0.21489
0.215716
0.216242
0.216249
0.216094
0.215463
0.214656
0.213389
0.211947
0.210069
0.208015
0.205556
0.202918
0.199921
0.196767
0.193261
0.189469
0.185097
0.225457
0.227288
0.22864
0.229606
0.230244
0.230336
0.230245
0.229651
0.228863
0.227589
0.226118
0.22419
0.22206
0.219498
0.216739
0.213593
0.210268
0.20657
0.202559
0.197932
0.239623
0.241664
0.243195
0.244319
0.245085
0.245275
0.245259
0.244713
0.243949
0.242672
0.241177
0.239194
0.236992
0.23433
0.231447
0.228149
0.224653
0.220751
0.216519
0.21163
0.254532
0.25681
0.258543
0.259844
0.260753
0.261056
0.261125
0.260637
0.259905
0.258632
0.257114
0.255083
0.252802
0.250033
0.247016
0.243555
0.239868
0.23575
0.23127
0.226094
0.270292
0.272834
0.27479
0.276291
0.277362
0.277795
0.277964
0.277545
0.276852
0.275589
0.274054
0.271971
0.269616
0.266739
0.263587
0.259957
0.256078
0.251731
0.246999
0.241523
0.286889