/*--------------------------------*- C++ -*----------------------------------*\
  =========                 |
  \\      /  F ield         | OpenFOAM: The Open Source CFD Toolbox
   \\    /   O peration     | Website:  https://openfoam.org
    \\  /    A nd           | Version:  6
     \\/     M anipulation  |
\*---------------------------------------------------------------------------*/
FoamFile
{
    version     2.0;
    format      ascii;
    class       volScalarField;
    location    "8";
    object      p;
}
// * * * * * * * * * * * * * * * * * * * * * * * * * * * * * * * * * * * * * //

dimensions      [0 2 -2 0 0 0 0];

internalField   nonuniform List<scalar> 
10000
(
-0.100966
-0.0941276
-0.0784552
-0.0503709
-0.0296267
-0.0175433
-0.0111523
-0.00691715
-0.00308153
-0.000137566
0.00194231
0.0028024
0.00268388
0.00100218
-0.00453806
-0.0171452
-0.0393654
-0.0697567
-0.0842029
-0.0855041
-0.16851
-0.148509
-0.10986
-0.0549058
-0.00938409
0.0203454
0.0368238
0.0470413
0.0548149
0.0613414
0.0673551
0.0727873
0.0799295
0.0863654
0.0880317
0.0759008
0.0433695
-0.00482817
-0.0460266
-0.078019
0.0246553
0.0322347
0.0475674
0.068354
0.0901273
0.11069
0.127805
0.141079
0.151189
0.158994
0.165308
0.170971
0.176581
0.182987
0.189842
0.194376
0.193116
0.183861
0.16465
0.140046
0.222624
0.240785
0.250694
0.254153
0.253409
0.250182
0.247043
0.245784
0.246613
0.249386
0.253392
0.2588
0.265648
0.273199
0.28028
0.285241
0.285622
0.279264
0.268379
0.255285
0.382678
0.401672
0.407044
0.398474
0.383304
0.366001
0.351276
0.340864
0.335195
0.332961
0.333274
0.33542
0.33842
0.342318
0.345915
0.348979
0.352239
0.354046
0.351062
0.343339
0.424167
0.430144
0.435308
0.435168
0.430681
0.423438
0.415757
0.40909
0.404288
0.400982
0.398415
0.395701
0.392786
0.389
0.384655
0.380665
0.377845
0.376729
0.376818
0.37837
0.42664
0.418146
0.419854
0.427631
0.437776
0.448357
0.456372
0.461118
0.463111
0.46292
0.461398
0.458071
0.452258
0.443042
0.430436
0.416128
0.403449
0.395188
0.395449
0.405741
0.481112
0.475138
0.478817
0.489571
0.502436
0.515669
0.525967
0.532416
0.535226
0.535668
0.533986
0.530195
0.524677
0.5165
0.506246
0.495104
0.485439
0.479263
0.477816
0.482943
0.586749
0.589502
0.594477
0.601717
0.60908
0.614242
0.617061
0.618196
0.618228
0.617422
0.616141
0.614313
0.611386
0.607787
0.603885
0.599149
0.594086
0.589461
0.587409
0.588782
0.697706
0.702781
0.702115
0.699318
0.698369
0.698078
0.69835
0.699227
0.700179
0.701536
0.703405
0.705898
0.709767
0.715007
0.721664
0.728744
0.733773
0.734955
0.731799
0.725101
0.765953
0.763299
0.759048
0.757048
0.758214
0.76225
0.767454
0.772757
0.777415
0.781511
0.785635
0.791486
0.799412
0.811057
0.825454
0.841384
0.856381
0.866275
0.864298
0.850703
0.848838
0.847174
0.843667
0.841201
0.840944
0.843208
0.846825
0.851065
0.854985
0.858485
0.861309
0.86417
0.86762
0.871536
0.876021
0.881238
0.886816
0.892255
0.895942
0.898467
0.938683
0.938657
0.936987
0.934843
0.933165
0.932741
0.933409
0.93452
0.935871
0.936841
0.937571
0.937214
0.935121
0.930999
0.925133
0.918179
0.912507
0.91017
0.914512
0.929162
1.04195
1.04737
1.05102
1.05055
1.04585
1.03886
1.03191
1.02637
1.02257
1.02011
1.01825
1.01582
1.01317
1.00895
1.00374
0.998232
0.993851
0.991941
0.992811
1.00016
1.14448
1.15389
1.15712
1.1506
1.13934
1.12721
1.1171
1.10941
1.10409
1.10014
1.09726
1.0949
1.0926
1.09048
1.08817
1.08533
1.08282
1.08124
1.0814
1.08578
1.20216
1.19519
1.19046
1.18866
1.18825
1.18823
1.18734
1.18523
1.18253
1.18018
1.17814
1.17632
1.17551
1.17548
1.17681
1.17949
1.18251
1.18479
1.18531
1.18566
1.28701
1.28434
1.27997
1.2752
1.27217
1.2697
1.26692
1.26406
1.26139
1.25902
1.25715
1.25606
1.25502
1.25511
1.25663
1.26044
1.26672
1.27274
1.27438
1.27133
1.33676
1.33508
1.3361
1.33771
1.33853
1.33836
1.33756
1.33695
1.33634
1.33596
1.33582
1.33574
1.33572
1.33419
1.33054
1.32488
1.31822
1.31289
1.31425
1.32253
1.38559
1.38331
1.38722
1.39344
1.39888
1.40271
1.40507
1.40653
1.40757
1.40853
1.40992
1.41231
1.41549
1.41975
1.42431
1.4275
1.4287
1.42831
1.42669
1.42299
1.44566
1.44233
1.44375
1.44873
1.45512
1.46128
1.46629
1.47016
1.47276
1.47469
1.47593
1.47735
1.48032
1.48568
1.4943
1.50528
1.51568
1.52245
1.5209
1.50878
1.49539
1.49316
1.49254
1.49639
1.50376
1.51257
1.52095
1.52754
1.53218
1.53473
1.5359
1.53567
1.53354
1.5305
1.52679
1.52322
1.5213
1.52114
1.5233
1.52711
1.54523
1.54257
1.54308
1.54919
1.55897
1.57045
1.58155
1.59039
1.59651
1.60005
1.60132
1.59953
1.59529
1.58672
1.57417
1.5589
1.54407
1.53421
1.53505
1.54877
1.64264
1.64116
1.64226
1.64654
1.65231
1.65852
1.66489
1.67043
1.67462
1.67675
1.67715
1.67567
1.67235
1.66734
1.66127
1.65419
1.64717
1.64187
1.63954
1.64148
1.78654
1.79081
1.78894
1.78281
1.77644
1.77131
1.76875
1.7683
1.76858
1.76875
1.76808
1.76614
1.76353
1.76056
1.75921
1.76053
1.7633
1.76681
1.76702
1.76029
1.9089
1.91118
1.90865
1.90414
1.89718
1.8887
1.88115
1.87524
1.87115
1.86847
1.86723
1.86708
1.86733
1.86831
1.86949
1.86998
1.86958
1.86967
1.87092
1.8694
2.01143
2.01896
2.02257
2.01837
2.00769
1.99444
1.98217
1.97272
1.96649
1.96311
1.96183
1.96258
1.96615
1.97224
1.98017
1.98807
1.99307
1.99381
1.99186
1.98737
2.08138
2.08577
2.08827
2.08249
2.07272
2.06252
2.05371
2.04742
2.04396
2.04263
2.04309
2.04578
2.05024
2.0574
2.0665
2.07676
2.08588
2.09012
2.08885
2.08205
2.12591
2.12277
2.12094
2.11934
2.11814
2.11641
2.11455
2.11301
2.11199
2.11199
2.11279
2.11472
2.11831
2.12309
2.12895
2.1355
2.14181
2.14679
2.14827
2.14358
2.15108
2.13722
2.13421
2.14069
2.15075
2.16085
2.16834
2.17245
2.17427
2.17472
2.17464
2.1741
2.17281
2.17112
2.16904
2.16733
2.16703
2.16865
2.17113
2.16942
2.2122
2.204
2.20336
2.20811
2.21595
2.22515
2.23302
2.23844
2.24126
2.24199
2.24114
2.23823
2.23339
2.22514
2.21401
2.20167
2.19078
2.18402
2.18504
2.19157
2.28782
2.285
2.28465
2.28864
2.29429
2.30053
2.30616
2.31065
2.31354
2.31441
2.3137
2.31132
2.30695
2.3003
2.29169
2.28186
2.27344
2.26815
2.26728
2.27065
2.38271
2.38765
2.38953
2.39183
2.39307
2.39339
2.39353
2.39412
2.39501
2.39603
2.3963
2.39584
2.39471
2.39263
2.39013
2.38694
2.38299
2.37929
2.37794
2.3766
2.47016
2.47856
2.4801
2.47666
2.47238
2.4701
2.47074
2.47339
2.47702
2.4811
2.48553
2.49066
2.49603
2.50284
2.51066
2.51834
2.52379
2.52528
2.5219
2.51288
2.53513
2.52654
2.5224
2.52441
2.53009
2.53861
2.5477
2.55579
2.56209
2.56798
2.57365
2.58073
2.58992
2.60212
2.61694
2.63308
2.64775
2.65735
2.65459
2.63965
2.66615
2.66942
2.6692
2.6672
2.6645
2.66085
2.65725
2.65476
2.65375
2.65386
2.655
2.65745
2.66077
2.6656
2.67105
2.67667
2.68216
2.68726
2.69054
2.69137
2.79056
2.8042
2.80801
2.8006
2.78735
2.77098
2.75631
2.7456
2.73903
2.73521
2.7328
2.73047
2.72813
2.72473
2.72017
2.71492
2.71028
2.70824
2.7129
2.72454
2.84036
2.83817
2.83546
2.83037
2.82492
2.81965
2.81512
2.81147
2.80888
2.80702
2.80569
2.80426
2.8021
2.79887
2.79459
2.79016
2.78692
2.78566
2.78681
2.79083
2.87685
2.86235
2.85494
2.85521
2.86021
2.86752
2.87337
2.877
2.87841
2.87907
2.87861
2.87753
2.87547
2.87226
2.86831
2.86427
2.86081
2.85865
2.85843
2.86073
2.95892
2.95112
2.94585
2.94421
2.94571
2.94956
2.95322
2.95616
2.95754
2.95786
2.95723
2.95611
2.95389
2.95124
2.94788
2.94433
2.94096
2.93831
2.93771
2.9397
3.05702
3.0529
3.0478
3.04428
3.04192
3.04067
3.04
3.04011
3.03996
3.03978
3.03881
3.0378
3.03652
3.0354
3.03433
3.03351
3.03234
3.03097
3.03046
3.03296
3.16734
3.16899
3.16761
3.16342
3.15624
3.14713
3.13819
3.13102
3.12601
3.12272
3.12036
3.11917
3.11862
3.1198
3.12253
3.12702
3.13159
3.13486
3.13504
3.13567
3.24769
3.25295
3.25392
3.24747
3.23724
3.22625
3.21687
3.2097
3.20429
3.20065
3.19747
3.1952
3.19335
3.19289
3.19454
3.19939
3.20611
3.21287
3.21493
3.21369
3.266
3.25501
3.2534
3.25812
3.26466
3.27099
3.27524
3.27687
3.27655
3.27543
3.27388
3.2718
3.26807
3.2623
3.2537
3.24386
3.23444
3.22807
3.23073
3.2452
3.31663
3.31105
3.31225
3.31832
3.32737
3.33694
3.34466
3.35024
3.35342
3.35545
3.35662
3.35781
3.35877
3.35897
3.35641
3.35032
3.34134
3.33237
3.32959
3.33764
3.38582
3.38424
3.38607
3.39238
3.40072
3.40988
3.4183
3.42586
3.43179
3.43676
3.44103
3.44606
3.45206
3.46111
3.47226
3.48377
3.49273
3.49702
3.49227
3.48051
3.48967
3.49475
3.49829
3.50238
3.50579
3.50833
3.51028
3.51271
3.51526
3.51877
3.5223
3.52725
3.53361
3.54281
3.55481
3.56949
3.58396
3.59433
3.59312
3.5804
3.60261
3.61675
3.62092
3.61755
3.61127
3.60458
3.59932
3.59622
3.59479
3.59444
3.59456
3.59551
3.59651
3.59816
3.60002
3.60304
3.60641
3.60944
3.61162
3.6125
3.66957
3.67614
3.67963
3.68002
3.67763
3.67428
3.67142
3.66944
3.66793
3.66684
3.6654
3.66317
3.65883
3.65187
3.64228
3.63188
3.62289
3.61776
3.62094
3.6326
3.72328
3.72433
3.72511
3.72789
3.73098
3.73401
3.73684
3.73931
3.74073
3.74127
3.74056
3.73829
3.73345
3.72634
3.71707
3.70706
3.6987
3.69428
3.69472
3.69958
3.79085
3.78371
3.77904
3.78243
3.79077
3.80122
3.81061
3.81802
3.8223
3.82464
3.82465
3.82335
3.82015
3.8156
3.80936
3.80262
3.79612
3.79149
3.79015
3.79057
3.90758
3.91141
3.91419
3.91573
3.91629
3.91659
3.91638
3.91656
3.91662
3.91704
3.91728
3.91838
3.91969
3.92222
3.92475
3.92725
3.92815
3.92704
3.92442
3.91873
4.02173
4.03587
4.04434
4.04368
4.03636
4.02607
4.01662
4.01017
4.00634
4.00543
4.00584
4.00869
4.01366
4.02239
4.03363
4.04614
4.05672
4.06282
4.06044
4.04719
4.08886
4.09081
4.08945
4.0863
4.0832
4.08123
4.08044
4.08047
4.0806
4.08121
4.08173
4.08316
4.08497
4.08882
4.09348
4.09922
4.10499
4.10942
4.11158
4.10975
4.16307
4.15242
4.14572
4.14365
4.14606
4.15145
4.15653
4.16005
4.16133
4.16133
4.15965
4.15675
4.15199
4.14633
4.13977
4.13453
4.13222
4.13342
4.13852
4.14687
4.29057
4.28987
4.29022
4.28659
4.28087
4.27384
4.2665
4.26028
4.25533
4.25137
4.24781
4.24401
4.23855
4.23077
4.21975
4.20645
4.19365
4.18542
4.18777
4.19949
4.38511
4.38992
4.39199
4.38619
4.37647
4.3652
4.35478
4.34672
4.34112
4.33767
4.33552
4.33455
4.33438
4.33469
4.33432
4.33299
4.32971
4.32591
4.32316
4.3197
4.41004
4.39589
4.39212
4.39537
4.40069
4.40647
4.41076
4.41328
4.41439
4.41571
4.41743
4.42095
4.42576
4.43348
4.4433
4.45419
4.46221
4.4646
4.45845
4.4426
4.46754
4.45586
4.4552
4.46215
4.47038
4.47756
4.48258
4.48592
4.48778
4.48966
4.49144
4.4942
4.49754
4.50224
4.5075
4.51343
4.51799
4.51968
4.51703
4.51034
4.55479
4.55562
4.55583
4.55574
4.55698
4.55896
4.56093
4.56223
4.56261
4.56248
4.56172
4.56056
4.55814
4.55519
4.55113
4.5473
4.54548
4.54624
4.54784
4.55235
4.62462
4.61951
4.61635
4.61756
4.62193
4.62754
4.63239
4.63573
4.63755
4.63796
4.63717
4.63494
4.63117
4.62488
4.61491
4.6025
4.59047
4.58236
4.58249
4.59482
4.71495
4.71641
4.7191
4.72211
4.72362
4.72276
4.72068
4.71875
4.71733
4.71593
4.71415
4.7119
4.70863
4.70483
4.7005
4.69606
4.69285
4.69096
4.68969
4.69112
4.78511
4.7912
4.79485
4.79481
4.79373
4.79297
4.79323
4.79385
4.79418
4.79403
4.79298
4.79083
4.78789
4.78496
4.78306
4.78419
4.78785
4.79213
4.7931
4.79004
4.82493
4.81308
4.81118
4.81852
4.83096
4.84581
4.85956
4.86989
4.87649
4.88049
4.88291
4.88459
4.88472
4.88317
4.87888
4.87209
4.86492
4.85987
4.8624
4.87247
4.93965
4.93665
4.93658
4.93925
4.94486
4.95207
4.95926
4.96613
4.97221
4.97757
4.98279
4.98799
4.99431
5.00138
5.00833
5.01466
5.01882
5.02154
5.02229
5.01969
5.08714
5.0927
5.09202
5.08534
5.07804
5.07204
5.06906
5.06963
5.07268
5.07738
5.0831
5.09062
5.0995
5.11193
5.12751
5.14491
5.16156
5.17388
5.17528
5.16199
5.21531
5.21598
5.21233
5.20605
5.19804
5.18962
5.18261
5.17812
5.17621
5.17636
5.17821
5.18104
5.18563
5.19161
5.19854
5.2065
5.21506
5.22399
5.23122
5.23314
5.31912
5.32173
5.31845
5.31022
5.29943
5.28815
5.27852
5.27148
5.26748
5.26557
5.26524
5.26575
5.26592
5.26577
5.26486
5.26325
5.26315
5.26595
5.27458
5.28878
5.37288
5.37096
5.36548
5.35958
5.35495
5.35222
5.35081
5.35022
5.35051
5.35132
5.35281
5.35373
5.35516
5.35592
5.35654
5.35818
5.36105
5.36584
5.37209
5.37905
5.41856
5.40411
5.39532
5.39594
5.40293
5.41317
5.42302
5.4304
5.43519
5.43845
5.44072
5.44286
5.44387
5.44488
5.44604
5.44747
5.4505
5.45514
5.46099
5.46429
5.53893
5.52946
5.52429
5.52463
5.52756
5.53207
5.53598
5.53859
5.5399
5.54046
5.5406
5.53954
5.53808
5.53545
5.53302
5.53241
5.53387
5.53763
5.54275
5.54382
5.71791
5.73005
5.72933
5.71828
5.70288
5.68605
5.67157
5.66063
5.65334
5.64834
5.64487
5.64228
5.63862
5.63413
5.62898
5.6238
5.62063
5.62012
5.62284
5.62207
5.85195
5.86725
5.86634
5.85074
5.82854
5.80483
5.78468
5.7696
5.7597
5.75312
5.74948
5.74711
5.74735
5.74786
5.74743
5.74516
5.74
5.73366
5.73092
5.72833
5.90948
5.9095
5.90517
5.8954
5.88378
5.87241
5.86282
5.85519
5.84974
5.84663
5.84563
5.84772
5.85217
5.86092
5.87284
5.88568
5.8976
5.90493
5.90191
5.8872
5.94004
5.92954
5.92331
5.92263
5.92495
5.9291
5.93178
5.93279
5.93276
5.93314
5.93443
5.93682
5.94215
5.95072
5.96335
5.97988
5.99731
6.0112
6.01269
6.00207
6.00164
6.00152
6.00055
6.00074
6.00293
6.00676
6.01048
6.01332
6.01514
6.01638
6.01762
6.02007
6.02246
6.02592
6.03026
6.03554
6.04243
6.04911
6.05299
6.05462
6.07367
6.07907
6.08003
6.08095
6.08236
6.08527
6.08927
6.09359
6.09773
6.10115
6.10468
6.10721
6.10999
6.11048
6.10885
6.10518
6.1005
6.09693
6.09778
6.10481
6.17196
6.1845
6.18952
6.1896
6.18671
6.18303
6.18093
6.18071
6.18243
6.18527
6.1892
6.19449
6.20053
6.2076
6.21509
6.22054
6.22268
6.22044
6.21327
6.20567
6.27351
6.29578
6.3056
6.30187
6.29189
6.28038
6.2713
6.26597
6.26404
6.26424
6.26599
6.26878
6.27435
6.28204
6.29268
6.30438
6.31274
6.3137
6.30198
6.28242
6.3262
6.34457
6.35873
6.36319
6.36018
6.35234
6.3438
6.33648
6.33156
6.32845
6.32658
6.3255
6.32428
6.3232
6.32206
6.3199
6.31556
6.30777
6.29596
6.2854
6.3468
6.36745
6.38862
6.40065
6.40298
6.39877
6.39226
6.38598
6.38147
6.37804
6.37535
6.37146
6.36647
6.3578
6.34607
6.33088
6.3128
6.29367
6.27778
6.27285
6.31991
6.33775
6.36205
6.38308
6.39697
6.40503
6.40966
6.41208
6.41312
6.41287
6.41124
6.40815
6.40319
6.39595
6.38676
6.37436
6.35808
6.33757
6.31331
6.29383
6.28509
6.29763
6.32587
6.36021
6.39106
6.41515
6.43151
6.44126
6.44565
6.4464
6.44371
6.43803
6.42996
6.41933
6.40766
6.39377
6.37685
6.35535
6.32727
6.30054
6.2975
6.32313
6.35916
6.395
6.4256
6.44829
6.46295
6.47146
6.47567
6.47616
6.47338
6.46703
6.45683
6.44125
6.42002
6.39246
6.35944
6.32412
6.29368
6.27828
6.31156
6.34058
6.37722
6.41089
6.44059
6.46475
6.48324
6.4961
6.50391
6.50681
6.50524
6.49931
6.48939
6.47478
6.45659
6.43338
6.4057
6.37513
6.34306
6.31867
6.32596
6.33586
6.36323
6.40113
6.44268
6.48194
6.51379
6.53573
6.54852
6.55353
6.5522
6.54502
6.53353
6.51774
6.49978
6.48089
6.46011
6.43666
6.40771
6.38103
6.46404
6.47562
6.4957
6.51928
6.54777
6.57573
6.59868
6.61487
6.62459
6.62839
6.62706
6.62117
6.61007
6.59341
6.57192
6.54562
6.51731
6.48937
6.46609
6.45681
6.69516
6.70496
6.71096
6.70972
6.71261
6.71928
6.72677
6.7326
6.73601
6.73608
6.73332
6.72735
6.7197
6.70973
6.69904
6.68877
6.67834
6.66812
6.65358
6.6452
6.97982
6.97087
6.95897
6.93652
6.91868
6.90742
6.90015
6.89342
6.88686
6.88047
6.87454
6.87019
6.86611
6.86442
6.86753
6.87611
6.88905
6.90097
6.90031
6.90011
7.30866
7.28732
7.26155
7.21446
7.16711
7.12914
7.10106
7.07947
7.06392
7.05359
7.04902
7.0497
7.05615
7.0671
7.08282
7.1043
7.12808
7.15155
7.16757
7.19566
7.64087
7.59939
7.55956
7.49064
7.4177
7.35628
7.3118
7.28047
7.26024
7.24973
7.24869
7.25967
7.28068
7.31429
7.35952
7.41545
7.4776
7.53516
7.56799
7.60522
7.97547
7.90963
7.86055
7.77739
7.68698
7.60819
7.54902
7.50723
7.48128
7.47004
7.47348
7.4936
7.53144
7.58939
7.66722
7.76452
7.86832
7.95623
7.99746
8.04467
8.29739
8.2256
8.18961
8.09611
7.98151
7.87545
7.79358
7.73504
7.69862
7.68404
7.69056
7.72244
7.77661
7.85813
7.96265
8.08317
8.20231
8.2904
8.31892
8.38521
8.45729
8.37564
8.37861
8.30844
8.19618
8.0804
7.98586
7.91567
7.87031
7.85022
7.85472
7.88552
7.94213
8.02532
8.13007
8.24807
8.3557
8.42053
8.41803
8.5078
8.2981
8.17807
8.24527
8.24645
8.18821
8.10647
8.03083
7.97109
7.92995
7.91062
7.91051
7.93328
7.97232
8.02864
8.09636
8.16423
8.21393
8.21632
8.1643
8.30215
7.79541
7.58611
7.71843
7.82431
7.86717
7.86924
7.85434
7.83754
7.82377
7.81644
7.8148
7.81871
7.82684
7.83325
7.83166
7.8123
7.75962
7.6594
7.54385
7.77099
7.14101
6.76746
6.93826
7.14608
7.30001
7.40075
7.46418
7.50351
7.52473
7.53498
7.53336
7.5223
7.49563
7.4481
7.37303
7.25682
7.09414
6.88711
6.72621
7.1152
6.79608
6.18648
6.3552
6.60467
6.80122
6.93747
7.02871
7.09051
7.12765
7.14602
7.1468
7.12835
7.09108
7.02647
6.93041
6.78655
6.58691
6.34072
6.17919
6.80041
7.28419
6.40742
6.52711
6.68143
6.77906
6.83889
6.88063
6.91191
6.93212
6.94195
6.94221
6.93187
6.91051
6.88066
6.83631
6.77863
6.6796
6.53696
6.42541
7.30654
8.8819
7.37089
7.33426
7.33899
7.30449
7.27044
7.25411
7.24987
7.25091
7.2495
7.25002
7.24501
7.24071
7.24637
7.25955
7.30225
7.34565
7.35097
7.38412
8.86897
11.6658
7.14041
7.09024
7.32105
7.3409
7.32473
7.31932
7.31824
7.31801
7.3178
7.31766
7.31672
7.31557
7.31691
7.32327
7.3414
7.32685
7.10078
7.14703
11.6589
-0.526912
-0.447673
-0.43715
-0.317268
-0.233061
-0.189553
-0.164522
-0.146348
-0.132973
-0.125628
-0.123141
-0.126197
-0.133116
-0.142599
-0.156054
-0.185326
-0.253503
-0.360549
-0.373905
-0.447481
-0.762325
-0.69243
-0.654207
-0.499118
-0.34727
-0.237952
-0.168892
-0.124608
-0.0967411
-0.0813834
-0.0752504
-0.0791798
-0.089229
-0.108769
-0.141732
-0.20534
-0.310602
-0.426949
-0.460184
-0.547489
-0.392328
-0.4327
-0.407172
-0.326039
-0.225136
-0.126005
-0.0462659
0.0108381
0.0486963
0.0722884
0.0845181
0.0865039
0.0779224
0.0566309
0.021046
-0.0264334
-0.0692164
-0.093266
-0.10146
-0.0942944
-0.214247
-0.213047
-0.185565
-0.12784
-0.0530669
0.0260508
0.0957376
0.152368
0.194655
0.225803
0.247537
0.262541
0.271834
0.27307
0.261112
0.22818
0.169681
0.100224
0.0800209
0.110352
-0.0756889
-0.0160097
0.0326038
0.0909399
0.16194
0.238593
0.304735
0.356914
0.397144
0.430732
0.459042
0.487417
0.517081
0.552955
0.596189
0.644904
0.688577
0.716517
0.708298
0.688194
0.295626
0.385406
0.449447
0.485337
0.506246
0.524964
0.548116
0.57649
0.604502
0.632976
0.659188
0.687838
0.718827
0.757474
0.808276
0.878999
0.964743
1.04598
1.07311
1.04475
0.811666
0.88821
0.914902
0.876387
0.829391
0.795259
0.784347
0.792589
0.80878
0.826842
0.844314
0.861238
0.873043
0.87635
0.868597
0.85706
0.850552
0.856796
0.895271
0.938269
1.08339
1.10021
1.10344
1.09935
1.0821
1.05951
1.04028
1.02834
1.02253
1.02016
1.01829
1.01263
1.0006
0.974143
0.928014
0.859728
0.786049
0.734878
0.746515
0.800598
1.37177
1.36681
1.37048
1.36538
1.3442
1.31348
1.28163
1.25321
1.23102
1.21233
1.1942
1.17108
1.14094
1.10338
1.05815
1.00402
0.951205
0.912648
0.896379
0.900432
1.52018
1.45191
1.41509
1.40818
1.41739
1.42826
1.43054
1.42583
1.41705
1.40535
1.39009
1.36861
1.34028
1.30467
1.2633
1.22118
1.17842
1.13514
1.10267
1.08475
1.74393
1.63875
1.59052
1.59756
1.61876
1.63368
1.63563
1.63109
1.62275
1.61269
1.60048
1.58636
1.56927
1.554
1.54442
1.54263
1.54326
1.5337
1.49838
1.44173
2.13693
2.10944
2.07385
2.01946
1.96228
1.9114
1.87429
1.84983
1.83186
1.81873
1.80722
1.79825
1.7929
1.7946
1.80773
1.83526
1.87509
1.91664
1.90654
1.82739
2.13957
2.1669
2.13642
2.08646
2.04472
2.01976
2.00867
2.00377
2.00048
1.9978
1.99573
1.99682
2.00215
2.01213
2.02331
2.02952
2.0267
2.02301
2.02405
2.00564
1.97868
1.96046
1.96095
2.02309
2.08865
2.13579
2.1622
2.175
2.18045
2.18165
2.17927
2.17392
2.16719
2.16062
2.15798
2.16066
2.16476
2.16786
2.17136
2.17627
2.21198
2.23035
2.25217
2.28314
2.32147
2.35558
2.38052
2.39497
2.40164
2.40048
2.39425
2.38134
2.35967
2.32634
2.2828
2.23746
2.20154
2.17841
2.18554
2.21856
2.48526
2.52055
2.54525
2.57204
2.60408
2.63703
2.66037
2.66973
2.67091
2.66649
2.6604
2.65083
2.64014
2.62139
2.5892
2.53388
2.45578
2.37422
2.34556
2.37085
2.9516
3.0147
3.04955
3.04756
3.02555
2.99737
2.97547
2.96006
2.95048
2.94401
2.94223
2.94509
2.95423
2.97156
2.998
3.02386
3.03851
3.03252
2.9909
2.93495
3.40028
3.46456
3.47112
3.41097
3.33585
3.26892
3.22412
3.19922
3.18764
3.18461
3.18927
3.20402
3.23295
3.27828
3.33853
3.41194
3.48991
3.55492
3.55159
3.48486
3.51015
3.50014
3.48023
3.45545
3.42777
3.40478
3.38848
3.37743
3.37248
3.37332
3.38073
3.39698
3.42427
3.46616
3.51716
3.57265
3.62655
3.67009
3.69971
3.71404
3.44642
3.41623
3.40398
3.41894
3.44303
3.46781
3.48945
3.5061
3.51958
3.53214
3.54532
3.55839
3.57092
3.58239
3.59567
3.61513
3.64498
3.68032
3.72669
3.78502
3.30505
3.26255
3.2719
3.35033
3.44422
3.52586
3.5867
3.63081
3.66298
3.687
3.7073
3.72371
3.7341
3.7339
3.72225
3.69787
3.6717
3.65583
3.68778
3.76398
3.4604
3.47701
3.51283
3.56604
3.63036
3.69742
3.75635
3.80368
3.83891
3.86465
3.8827
3.89446
3.90145
3.90216
3.89907
3.89333
3.89138
3.90017
3.91658
3.94021
3.76091
3.79897
3.83589
3.8781
3.91974
3.96206
4.00319
4.03661
4.0606
4.07628
4.08498
4.08716
4.08314
4.07565
4.06746
4.05926
4.05186
4.05069
4.06166
4.08139
4.30959
4.37714
4.40691
4.39842
4.37133
4.34184
4.3236
4.31755
4.31712
4.31708
4.31458
4.30929
4.30244
4.29188
4.27849
4.26423
4.25053
4.24047
4.24121
4.24785
4.91207
4.9784
4.9657
4.87641
4.77735
4.69188
4.63027
4.59255
4.57156
4.55797
4.54706
4.5364
4.52595
4.51544
4.50511
4.49613
4.48829
4.47942
4.47136
4.45529
5.21128
5.19122
5.14388
5.07961
5.00849
4.94183
4.88555
4.84265
4.81237
4.79139
4.77507
4.76001
4.74631
4.73398
4.72685
4.72961
4.7423
4.75552
4.751
4.71238
5.3352
5.27361
5.22477
5.19459
5.16332
5.12794
5.09236
5.05998
5.03364
5.01287
4.99552
4.9797
4.96211
4.94308
4.9232
4.90809
4.9061
4.91888
4.92303
4.88545
5.31081
5.21989
5.18056
5.20757
5.24109
5.2639
5.27068
5.26395
5.2507
5.23702
5.22485
5.21345
5.20242
5.18691
5.16001
5.11013
5.03291
4.94957
4.92466
4.94457
5.50976
5.47524
5.46865
5.48631
5.49721
5.49791
5.48947
5.47712
5.46461
5.45462
5.44814
5.44584
5.44676
5.4531
5.4677
5.48721
5.50014
5.49389
5.45605
5.418
5.83267
5.85097
5.84033
5.79276
5.7488
5.71063
5.68093
5.66137
5.64911
5.64227
5.63854
5.63921
5.64477
5.65922
5.68878
5.73977
5.80646
5.86725
5.86833
5.81617
5.88709
5.86589
5.83359
5.81234
5.80659
5.80722
5.80819
5.80718
5.8055
5.80391
5.80364
5.80604
5.81054
5.81916
5.83109
5.84595
5.8636
5.88377
5.9047
5.90853
5.87161
5.85716
5.8425
5.85054
5.8729
5.90228
5.9289
5.94578
5.95427
5.95878
5.96122
5.96127
5.95781
5.94586
5.92341
5.89628
5.87513
5.86859
5.88647
5.92418
5.80076
5.78564
5.79444
5.84482
5.91551
5.98726
6.04502
6.08461
6.10998
6.12477
6.13386
6.13735
6.13711
6.12937
6.10786
6.0651
6.00324
5.94273
5.93353
5.98077
5.89642
5.89829
5.95142
6.04529
6.13327
6.20152
6.25027
6.28508
6.31033
6.32812
6.34074
6.34977
6.35877
6.37115
6.39323
6.42187
6.44632
6.45396
6.43084
6.40764
6.38616
6.46548
6.52203
6.51671
6.50371
6.4999
6.50881
6.52306
6.53797
6.54983
6.55936
6.56729
6.57418
6.58518
6.60683
6.65005
6.71565
6.77669
6.78299
6.74862
6.7509
6.80217
6.80223
6.7624
6.73878
6.73452
6.74358
6.75846
6.77362
6.78503
6.79308
6.79856
6.80278
6.80111
6.78682
6.75926
6.73113
6.71763
6.73441
6.7668
7.01531
7.02639
7.02927
7.0381
7.03993
7.03498
7.03014
7.02978
7.03393
7.03864
7.04397
7.04802
7.05189
7.05218
7.04242
7.00828
6.94897
6.89078
6.87846
6.91929
7.36712
7.39861
7.42155
7.42385
7.39753
7.35963
7.32745
7.30565
7.29411
7.29036
7.29188
7.29687
7.30664
7.32424
7.35684
7.40165
7.43859
7.45284
7.42907
7.39507
7.66029
7.67714
7.68888
7.67876
7.64819
7.6068
7.56856
7.54052
7.52279
7.51326
7.51022
7.51399
7.52273
7.54157
7.57651
7.63888
7.71918
7.78698
7.79328
7.73683
7.84596
7.83533
7.82173
7.79781
7.7773
7.76045
7.74333
7.72815
7.71574
7.7074
7.70172
7.69828
7.69441
7.68558
7.66867
7.64938
7.63563
7.63348
7.65625
7.6788
7.90862
7.86998
7.84402
7.83727
7.84695
7.86649
7.88273
7.89218
7.89507
7.89349
7.88896
7.88063
7.86714
7.84175
7.79713
7.72843
7.6514
7.59628
7.59847
7.64968
8.03545
7.9851
7.97477
8.00854
8.04971
8.08162
8.09914
8.10846
8.11145
8.11024
8.10389
8.09215
8.07537
8.05396
8.02702
7.98877
7.94379
7.90653
7.88506
7.89025
8.45142
8.45863
8.46032
8.4371
8.40565
8.37771
8.36105
8.3535
8.3504
8.34903
8.3484
8.34669
8.34177
8.33547
8.33048
8.32487
8.31056
8.28452
8.25524
8.23492
8.71933
8.72467
8.702
8.65357
8.60943
8.58143
8.5698
8.56672
8.56769
8.57198
8.57895
8.59037
8.60747
8.63397
8.67356
8.72467
8.77109
8.79254
8.76874
8.72064
8.78946
8.74685
8.73242
8.76326
8.789
8.79644
8.78991
8.77957
8.77275
8.77167
8.77471
8.78484
8.80352
8.83892
8.8933
8.9699
9.05707
9.13016
9.13807
9.0889
9.12127
9.13254
9.13211
9.10086
9.05645
9.01412
8.98254
8.96176
8.94911
8.94393
8.94296
8.94562
8.94825
8.95009
8.94923
8.94635
8.94548
8.95373
8.98482
9.02261
9.18846
9.18424
9.15557
9.11121
9.08142
9.07424
9.07831
9.0844
9.08872
9.0913
9.09275
9.0916
9.08511
9.06711
9.03132
8.9785
8.92556
8.89217
8.90754
8.97555
9.0041
8.93202
8.91891
8.99014
9.08371
9.16731
9.22096
9.2493
9.26104
9.26398
9.2593
9.24889
9.23316
9.21271
9.18558
9.15433
9.12756
9.11411
9.11352
9.13705
9.25073
9.24039
9.28747
9.3646
9.42912
9.4691
9.48795
9.49315
9.48992
9.48182
9.46899
9.45107
9.42754
9.40119
9.37256
9.34276
9.31215
9.28878
9.28356
9.29323
9.77927
9.86233
9.91436
9.89174
9.84303
9.796
9.76591
9.7476
9.73321
9.72071
9.70792
9.69512
9.68091
9.66524
9.6461
9.62248
9.5936
9.56547
9.5502
9.55067
10.017
10.0796
10.0809
10.0382
10.0005
9.97537
9.96101
9.95448
9.95148
9.95107
9.9529
9.95804
9.96537
9.97552
9.98745
9.99776
9.9975
9.9835
9.96138
9.94303
9.94188
9.92519
9.91748
9.95143
10.0031
10.0532
10.0901
10.1191
10.1419
10.1627
10.1831
10.2089
10.2413
10.2853
10.3431
10.4137
10.4793
10.5178
10.5063
10.4615
10.0316
10.0079
10.0253
10.0911
10.1679
10.2365
10.2855
10.3208
10.3462
10.369
10.3905
10.4186
10.4552
10.5087
10.5789
10.6719
10.7768
10.8681
10.8908
10.8463
10.5143
10.5631
10.5952
10.5917
10.571
10.5505
10.5396
10.5408
10.5471
10.5579
10.5701
10.5865
10.6042
10.6216
10.6319
10.6391
10.651
10.674
10.7197
10.7691
10.9635
11.0244
11.0146
10.9379
10.8506
10.7803
10.7372
10.7177
10.7106
10.7097
10.7111
10.7129
10.7108
10.6996
10.6728
10.6299
10.5864
10.5612
10.587
10.6657
11.0998
11.0844
11.0468
11.0051
10.9616
10.9221
10.8898
10.8671
10.8512
10.8407
10.8297
10.8156
10.7949
10.7691
10.7395
10.708
10.6823
10.6722
10.6784
10.7098
11.0887
11.0347
11.0024
11.0013
11.0064
11.0084
11.0045
10.9964
10.9858
10.9738
10.9574
10.9345
10.9019
10.8599
10.8095
10.7581
10.7127
10.6835
10.6797
10.6928
10.9812
10.9034
10.8918
10.9572
11.034
11.0987
11.1381
11.1536
11.1518
11.1403
11.1196
11.0904
11.0516
11.0042
10.9468
10.8838
10.8213
10.772
10.7495
10.7439
11.2135
11.2116
11.2433
11.2985
11.3429
11.3716
11.3839
11.384
11.3748
11.3589
11.3369
11.3084
11.2716
11.2278
11.1785
11.1258
11.0696
11.0153
10.9734
10.9414
11.7105
11.7922
11.8171
11.771
11.7172
11.6767
11.6526
11.6382
11.6261
11.6128
11.597
11.5778
11.5552
11.5325
11.5141
11.5047
11.496
11.4772
11.434
11.3696
11.9389
11.9676
11.9467
11.9025
11.8793
11.8757
11.8796
11.8848
11.8872
11.8875
11.886
11.8851
11.8852
11.8907
11.9036
11.9283
11.9647
12.0019
11.9859
11.9074
12.0521
12.0107
12.0115
12.0664
12.1185
12.1487
12.1593
12.1648
12.1704
12.1791
12.1928
12.2142
12.246
12.2841
12.317
12.337
12.3427
12.3434
12.339
12.3169
12.5046
12.5207
12.5329
12.5165
12.4889
12.4628
12.447
12.4425
12.4449
12.4538
12.4703
12.4989
12.5423
12.6042
12.6764
12.7439
12.7927
12.8155
12.8106
12.7901
12.7986
12.8086
12.7883
12.7403
12.7016
12.6836
12.6801
12.6832
12.6893
12.6983
12.7113
12.7304
12.7585
12.8001
12.8558
12.9253
12.9973
13.0515
13.0799
13.0948
12.91
12.8591
12.8462
12.8832
12.9178
12.935
12.9369
12.9322
12.9293
12.931
12.9373
12.9473
12.9572
12.969
12.9841
13.0035
13.0331
13.0743
13.1282
13.1918
13.325
13.3284
13.3248
13.2908
13.2473
13.2073
13.1786
13.1597
13.1492
13.1457
13.1492
13.1559
13.1638
13.1664
13.161
13.147
13.1307
13.1235
13.1586
13.2347
13.5179
13.5121
13.4741
13.411
13.363
13.3375
13.328
13.3271
13.3292
13.3337
13.3394
13.3472
13.3547
13.3628
13.371
13.379
13.3931
13.4158
13.4396
13.4634
13.4616
13.3908
13.3581
13.3916
13.4376
13.4725
13.4932
13.5077
13.5185
13.5274
13.5337
13.5373
13.5395
13.5426
13.5483
13.5581
13.5712
13.5901
13.6151
13.6294
13.7192
13.6916
13.6841
13.6864
13.6956
13.7071
13.7173
13.726
13.7326
13.7384
13.7426
13.7464
13.7467
13.7457
13.7436
13.7418
13.7441
13.7529
13.771
13.7803
13.9889
13.9782
13.9717
13.9661
13.9616
13.9633
13.9654
13.9647
13.9632
13.9624
13.9623
13.9608
13.9581
13.9498
13.9371
13.9237
13.9112
13.9043
13.9097
13.9196
14.3154
14.3331
14.3261
14.2965
14.2607
14.2287
14.2078
14.1964
14.1911
14.1884
14.1866
14.1852
14.1819
14.1756
14.1638
14.1459
14.1241
14.1022
14.0916
14.0918
14.531
14.549
14.5279
14.4836
14.4477
14.4245
14.4143
14.4131
14.4165
14.42
14.4239
14.4253
14.4281
14.4316
14.4348
14.4355
14.4266
14.405
14.3781
14.3512
14.5958
14.5656
14.5621
14.6079
14.6463
14.664
14.6647
14.6603
14.6569
14.657
14.6602
14.6672
14.6767
14.6937
14.721
14.7575
14.7938
14.8082
14.782
14.7224
15.043
15.0914
15.1157
15.0951
15.0466
14.9907
14.9441
14.9117
14.891
14.8797
14.875
14.8745
14.8806
14.8927
14.915
14.9564
15.0161
15.0723
15.0711
14.9995
15.2968
15.3551
15.3544
15.2924
15.2211
15.1597
15.1161
15.0862
15.0686
15.0584
15.054
15.0528
15.0518
15.0455
15.0269
14.9929
14.954
14.9264
14.9278
14.9331
15.16
15.1443
15.1285
15.1408
15.1655
15.1874
15.1999
15.2046
15.2091
15.2125
15.2179
15.2213
15.2265
15.2252
15.2112
15.1698
15.0975
15.0207
14.9847
14.9984
15.132
15.1142
15.1353
15.1977
15.2589
15.3026
15.3257
15.3365
15.343
15.3491
15.3562
15.366
15.3786
15.3968
15.4245
15.4566
15.4756
15.4678
15.4185
15.3534
15.385
15.4531
15.5068
15.5247
15.5164
15.4949
15.4744
15.4603
15.452
15.448
15.4463
15.446
15.4503
15.4616
15.4878
15.5333
15.589
15.6321
15.6155
15.5283
15.425
15.5243
15.5621
15.5499
15.5283
15.5076
15.4954
15.4881
15.4847
15.4808
15.4752
15.4648
15.4475
15.4222
15.3905
15.3507
15.3106
15.2814
15.2802
15.2693
15.0831
15.1156
15.1444
15.2147
15.3015
15.378
15.4315
15.4627
15.4801
15.4843
15.4795
15.4617
15.4338
15.3858
15.3157
15.2225
15.1247
15.0438
15.0162
15.0305
14.9134
14.944
15.013
15.136
15.2637
15.3679
15.4373
15.4773
15.4968
15.4986
15.4857
15.4581
15.4185
15.3652
15.2995
15.2232
15.1474
15.0845
15.038
15.0077
15.1455
15.2513
15.3422
15.4076
15.4573
15.4939
15.5222
15.5419
15.5515
15.547
15.5277
15.4923
15.4435
15.3815
15.3114
15.2344
15.1553
15.086
15.0374
14.993
15.3949
15.5137