/*--------------------------------*- C++ -*----------------------------------*\
  =========                 |
  \\      /  F ield         | OpenFOAM: The Open Source CFD Toolbox
   \\    /   O peration     | Website:  https://openfoam.org
    \\  /    A nd           | Version:  6
     \\/     M anipulation  |
\*---------------------------------------------------------------------------*/
FoamFile
{
    version     2.0;
    format      ascii;
    class       surfaceScalarField;
    location    "8";
    object      phi;
}
// * * * * * * * * * * * * * * * * * * * * * * * * * * * * * * * * * * * * * //

dimensions      [0 3 -1 0 0 0 0];

internalField   nonuniform List<scalar> 
258600
(
-4.41606e-09
-8.46266e-08
4.16435e-09
-4.64851e-09
-9.57627e-08
-4.851e-09
-1.0653e-07
-5.0295e-09
-1.16675e-07
-5.1862e-09
-1.2604e-07
-5.32749e-09
-1.34508e-07
-5.45605e-09
-1.41996e-07
-5.57748e-09
-1.48466e-07
-5.69271e-09
-1.53917e-07
-5.80492e-09
-1.58383e-07
-5.9128e-09
-1.61922e-07
-6.01741e-09
-1.6461e-07
-6.11608e-09
-1.66533e-07
-6.2094e-09
-1.6778e-07
-6.29425e-09
-1.68443e-07
-6.37182e-09
-1.6861e-07
-6.4397e-09
-1.68369e-07
-6.49968e-09
-1.67801e-07
-6.55076e-09
-1.66986e-07
-1.66002e-07
-6.59425e-09
-5.34871e-09
-8.44734e-08
5.18728e-09
-5.5088e-09
-9.56129e-08
-5.66412e-09
-1.06386e-07
-5.80382e-09
-1.16542e-07
-5.93218e-09
-1.2592e-07
-6.04707e-09
-1.34397e-07
-6.15623e-09
-1.41891e-07
-6.25855e-09
-1.48365e-07
-6.36034e-09
-1.53818e-07
-6.45882e-09
-1.58285e-07
-6.55785e-09
-1.61825e-07
-6.65303e-09
-1.64516e-07
-6.7469e-09
-1.66441e-07
-6.83411e-09
-1.67693e-07
-6.91758e-09
-1.68361e-07
-6.99224e-09
-1.68535e-07
-7.06137e-09
-1.68301e-07
-7.12086e-09
-1.67741e-07
-7.17502e-09
-1.66933e-07
-1.65957e-07
-7.21888e-09
-6.84623e-09
-8.4423e-08
6.7742e-09
-6.91894e-09
-9.55526e-08
-7.00773e-09
-1.06316e-07
-7.09003e-09
-1.16469e-07
-7.17699e-09
-1.25846e-07
-7.25521e-09
-1.34323e-07
-7.33809e-09
-1.41818e-07
-7.41496e-09
-1.48291e-07
-7.4982e-09
-1.53742e-07
-7.57709e-09
-1.58208e-07
-7.66206e-09
-1.61746e-07
-7.74187e-09
-1.64436e-07
-7.8254e-09
-1.66363e-07
-7.90192e-09
-1.67617e-07
-7.97917e-09
-1.68289e-07
-8.04732e-09
-1.68467e-07
-8.11422e-09
-1.68238e-07
-8.17002e-09
-1.67685e-07
-8.22405e-09
-1.66884e-07
-1.65915e-07
-8.26534e-09
-8.65191e-09
-8.44261e-08
8.64074e-09
-8.66726e-09
-9.55489e-08
-8.69994e-09
-1.06303e-07
-8.72747e-09
-1.16449e-07
-8.76849e-09
-1.2582e-07
-8.80382e-09
-1.34291e-07
-8.8525e-09
-1.41779e-07
-8.89699e-09
-1.48246e-07
-8.95493e-09
-1.53692e-07
-9.0091e-09
-1.58152e-07
-9.0753e-09
-1.61687e-07
-9.13635e-09
-1.64373e-07
-9.20685e-09
-1.66298e-07
-9.2695e-09
-1.67552e-07
-9.33884e-09
-1.68225e-07
-9.39798e-09
-1.68406e-07
-9.46123e-09
-1.6818e-07
-9.51225e-09
-1.67631e-07
-9.56695e-09
-1.66835e-07
-1.65871e-07
-9.60696e-09
-1.0693e-08
-8.44954e-08
1.07348e-08
-1.06484e-08
-9.56083e-08
-1.06285e-08
-1.06351e-07
-1.0603e-08
-1.16485e-07
-1.0598e-08
-1.25845e-07
-1.05886e-08
-1.34305e-07
-1.05996e-08
-1.41783e-07
-1.06077e-08
-1.4824e-07
-1.06359e-08
-1.53675e-07
-1.0661e-08
-1.58127e-07
-1.07042e-08
-1.61653e-07
-1.07426e-08
-1.64334e-07
-1.07957e-08
-1.66254e-07
-1.08419e-08
-1.67504e-07
-1.08992e-08
-1.68175e-07
-1.09471e-08
-1.68356e-07
-1.10035e-08
-1.68132e-07
-1.10476e-08
-1.67584e-07
-1.10998e-08
-1.66792e-07
-1.65831e-07
-1.11362e-08
-1.28287e-08
-8.45986e-08
1.29043e-08
-1.27465e-08
-9.57118e-08
-1.26859e-08
-1.06445e-07
-1.26169e-08
-1.16568e-07
-1.25709e-08
-1.25915e-07
-1.25198e-08
-1.34362e-07
-1.24938e-08
-1.41826e-07
-1.24654e-08
-1.48269e-07
-1.24622e-08
-1.53691e-07
-1.24569e-08
-1.5813e-07
-1.24747e-08
-1.61646e-07
-1.24885e-08
-1.64317e-07
-1.25222e-08
-1.66229e-07
-1.25488e-08
-1.67474e-07
-1.25921e-08
-1.68141e-07
-1.26253e-08
-1.68319e-07
-1.26718e-08
-1.68093e-07
-1.27055e-08
-1.67546e-07
-1.27517e-08
-1.66754e-07
-1.65797e-07
-1.27804e-08
-1.50167e-08
-8.47398e-08
1.5102e-08
-1.49022e-08
-9.58549e-08
-1.48102e-08
-1.0658e-07
-1.47032e-08
-1.16693e-07
-1.46217e-08
-1.26027e-07
-1.45327e-08
-1.34459e-07
-1.44727e-08
-1.41907e-07
-1.44098e-08
-1.48334e-07
-1.43764e-08
-1.53741e-07
-1.4341e-08
-1.58165e-07
-1.43332e-08
-1.61667e-07
-1.43217e-08
-1.64326e-07
-1.43341e-08
-1.66229e-07
-1.43404e-08
-1.67465e-07
-1.43665e-08
-1.68126e-07
-1.43836e-08
-1.68299e-07
-1.44171e-08
-1.6807e-07
-1.4438e-08
-1.67522e-07
-1.44744e-08
-1.6673e-07
-1.65774e-07
-1.44931e-08
-1.72158e-08
-8.48902e-08
1.73239e-08
-1.70771e-08
-9.60139e-08
-1.69572e-08
-1.06738e-07
-1.68194e-08
-1.16843e-07
-1.67069e-08
-1.26166e-07
-1.65858e-08
-1.34585e-07
-1.64953e-08
-1.42018e-07
-1.64017e-08
-1.48428e-07
-1.63403e-08
-1.53818e-07
-1.62772e-08
-1.58226e-07
-1.62445e-08
-1.61713e-07
-1.62087e-08
-1.64359e-07
-1.62002e-08
-1.66249e-07
-1.61854e-08
-1.67476e-07
-1.61942e-08
-1.68128e-07
-1.61935e-08
-1.68295e-07
-1.62129e-08
-1.68061e-07
-1.62191e-08
-1.67509e-07
-1.62446e-08
-1.66716e-07
-1.65759e-07
-1.62513e-08
-1.94063e-08
-8.50407e-08
1.95273e-08
-1.92531e-08
-9.61828e-08
-1.91111e-08
-1.06913e-07
-1.89481e-08
-1.17016e-07
-1.88085e-08
-1.26332e-07
-1.86595e-08
-1.34738e-07
-1.85415e-08
-1.42156e-07
-1.84205e-08
-1.48549e-07
-1.8333e-08
-1.53922e-07
-1.82442e-08
-1.58313e-07
-1.81877e-08
-1.61784e-07
-1.81286e-08
-1.64415e-07
-1.80985e-08
-1.66292e-07
-1.80633e-08
-1.67508e-07
-1.80532e-08
-1.68151e-07
-1.80347e-08
-1.6831e-07
-1.8038e-08
-1.68071e-07
-1.8029e-08
-1.67514e-07
-1.80409e-08
-1.66718e-07
-1.65761e-07
-1.80346e-08
-2.16215e-08
-8.52117e-08
2.1766e-08
-2.14437e-08
-9.63716e-08
-2.12758e-08
-1.07109e-07
-2.1087e-08
-1.17212e-07
-2.09208e-08
-1.26521e-07
-2.07457e-08
-1.34915e-07
-2.06018e-08
-1.42318e-07
-2.04554e-08
-1.48694e-07
-2.03433e-08
-1.54049e-07
-2.02304e-08
-1.58423e-07
-2.0151e-08
-1.61877e-07
-2.00696e-08
-1.64492e-07
-2.00189e-08
-1.66356e-07
-1.99629e-08
-1.67558e-07
-1.99346e-08
-1.68191e-07
-1.98975e-08
-1.68341e-07
-1.98846e-08
-1.68095e-07
-1.98593e-08
-1.67533e-07
-1.98574e-08
-1.66732e-07
-1.65772e-07
-1.9837e-08
-2.38028e-08
-8.53864e-08
2.39556e-08
-2.36143e-08
-9.65711e-08
-2.34291e-08
-1.07321e-07
-2.32207e-08
-1.17427e-07
-2.30325e-08
-1.26731e-07
-2.2835e-08
-1.35115e-07
-2.26678e-08
-1.42504e-07
-2.24984e-08
-1.48863e-07
-2.23632e-08
-1.54201e-07
-2.22279e-08
-1.58556e-07
-2.21264e-08
-1.61993e-07
-2.20234e-08
-1.64592e-07
-2.19517e-08
-1.66441e-07
-2.18761e-08
-1.6763e-07
-2.18281e-08
-1.68251e-07
-2.1773e-08
-1.68392e-07
-2.17425e-08
-1.68137e-07
-2.17008e-08
-1.67569e-07
-2.16832e-08
-1.66764e-07
-1.65801e-07
-2.16481e-08
-2.60108e-08
-8.55799e-08
2.61868e-08
-2.57978e-08
-9.67862e-08
-2.55891e-08
-1.07549e-07
-2.53584e-08
-1.17658e-07
-2.51473e-08
-1.26958e-07
-2.49278e-08
-1.35333e-07
-2.4738e-08
-1.42708e-07
-2.45469e-08
-1.49051e-07
-2.43895e-08
-1.54371e-07
-2.42327e-08
-1.58709e-07
-2.41097e-08
-1.62128e-07
-2.3986e-08
-1.64711e-07
-2.38941e-08
-1.66544e-07
-2.37984e-08
-1.6772e-07
-2.37317e-08
-1.68329e-07
-2.36579e-08
-1.68459e-07
-2.361e-08
-1.68195e-07
-2.35513e-08
-1.67619e-07
-2.35181e-08
-1.66808e-07
-1.6584e-07
-2.34678e-08
-2.8181e-08
-8.57675e-08
2.8371e-08
-2.79597e-08
-9.70038e-08
-2.77355e-08
-1.07785e-07
-2.74894e-08
-1.17902e-07
-2.7259e-08
-1.27201e-07
-2.70208e-08
-1.35568e-07
-2.681e-08
-1.42931e-07
-2.65986e-08
-1.49259e-07
-2.64197e-08
-1.54562e-07
-2.62422e-08
-1.58882e-07
-2.60978e-08
-1.62284e-07
-2.59537e-08
-1.6485e-07
-2.58408e-08
-1.66668e-07
-2.57258e-08
-1.6783e-07
-2.56389e-08
-1.68426e-07
-2.55471e-08
-1.68545e-07
-2.54806e-08
-1.68271e-07
-2.5405e-08
-1.67688e-07
-2.53543e-08
-1.6687e-07
-1.65898e-07
-2.52887e-08
-3.03603e-08
-8.59679e-08
3.05628e-08
-3.01266e-08
-9.72348e-08
-2.98864e-08
-1.08036e-07
-2.96241e-08
-1.18162e-07
-2.93745e-08
-1.27461e-07
-2.91175e-08
-1.35821e-07
-2.88856e-08
-1.43172e-07
-2.8654e-08
-1.49485e-07
-2.84534e-08
-1.54772e-07
-2.82553e-08
-1.59074e-07
-2.80894e-08
-1.62458e-07
-2.7925e-08
-1.65007e-07
-2.77915e-08
-1.66809e-07
-2.76566e-08
-1.67956e-07
-2.75504e-08
-1.68539e-07
-2.74396e-08
-1.68646e-07
-2.73547e-08
-1.68363e-07
-2.72616e-08
-1.6777e-07
-2.7194e-08
-1.66944e-07
-1.65967e-07
-2.71123e-08
-3.25312e-08
-8.61863e-08
3.27374e-08
-3.22865e-08
-9.74826e-08
-3.20332e-08
-1.08303e-07
-3.17563e-08
-1.18439e-07
-3.14892e-08
-1.27739e-07
-3.12141e-08
-1.36093e-07
-3.09619e-08
-1.43434e-07
-3.07104e-08
-1.49733e-07
-3.04882e-08
-1.55002e-07
-3.02696e-08
-1.59287e-07
-3.00819e-08
-1.62654e-07
-2.98972e-08
-1.65185e-07
-2.97421e-08
-1.66971e-07
-2.95879e-08
-1.68103e-07
-2.94606e-08
-1.68673e-07
-2.93315e-08
-1.68768e-07
-2.92268e-08
-1.68474e-07
-2.91164e-08
-1.67871e-07
-2.90299e-08
-1.67038e-07
-1.66055e-07
-2.8932e-08
-3.47015e-08
-8.64132e-08
3.49178e-08
-3.44464e-08
-9.77404e-08
-3.41793e-08
-1.08582e-07
-3.38877e-08
-1.18729e-07
-3.36031e-08
-1.28031e-07
-3.33102e-08
-1.36382e-07
-3.30378e-08
-1.43712e-07
-3.27666e-08
-1.49997e-07
-3.25228e-08
-1.55251e-07
-3.22838e-08
-1.59518e-07
-3.20742e-08
-1.62868e-07
-3.18691e-08
-1.65382e-07
-3.16928e-08
-1.67152e-07
-3.15184e-08
-1.68268e-07
-3.1371e-08
-1.68824e-07
-3.12224e-08
-1.68906e-07
-3.10983e-08
-1.686e-07
-3.09698e-08
-1.67988e-07
-3.08649e-08
-1.67146e-07
-1.66156e-07
-3.07502e-08
-3.68782e-08
-8.66519e-08
3.7107e-08
-3.6608e-08
-9.80081e-08
-3.63253e-08
-1.08873e-07
-3.60182e-08
-1.19032e-07
-3.57156e-08
-1.2834e-07
-3.54049e-08
-1.36687e-07
-3.51121e-08
-1.4401e-07
-3.48213e-08
-1.50282e-07
-3.45558e-08
-1.55521e-07
-3.42964e-08
-1.59771e-07
-3.40646e-08
-1.63104e-07
-3.3839e-08
-1.65601e-07
-3.36403e-08
-1.67354e-07
-3.34463e-08
-1.68455e-07
-3.32768e-08
-1.68996e-07
-3.31094e-08
-1.69066e-07
-3.29643e-08
-1.68749e-07
-3.28178e-08
-1.68126e-07
-3.26925e-08
-1.67276e-07
-1.66279e-07
-3.25608e-08
-3.90398e-08
-8.68847e-08
3.92857e-08
-3.87632e-08
-9.82776e-08
-3.84666e-08
-1.0917e-07
-3.81459e-08
-1.19346e-07
-3.78257e-08
-1.28661e-07
-3.74977e-08
-1.37008e-07
-3.71846e-08
-1.44324e-07
-3.68742e-08
-1.50585e-07
-3.65869e-08
-1.55809e-07
-3.63069e-08
-1.60043e-07
-3.60526e-08
-1.63359e-07
-3.58063e-08
-1.65839e-07
-3.55856e-08
-1.67576e-07
-3.53707e-08
-1.68661e-07
-3.518e-08
-1.69188e-07
-3.49925e-08
-1.69244e-07
-3.48267e-08
-1.68915e-07
-3.46611e-08
-1.68281e-07
-3.45159e-08
-1.67421e-07
-1.66416e-07
-3.43664e-08
-4.1224e-08
-8.71441e-08
4.14815e-08
-4.093e-08
-9.85708e-08
-4.06153e-08
-1.09489e-07
-4.02773e-08
-1.19682e-07
-3.99373e-08
-1.29004e-07
-3.95905e-08
-1.37351e-07
-3.9256e-08
-1.4466e-07
-3.89255e-08
-1.5091e-07
-3.86156e-08
-1.5612e-07
-3.83146e-08
-1.60339e-07
-3.80374e-08
-1.63637e-07
-3.77699e-08
-1.661e-07
-3.75258e-08
-1.67821e-07
-3.72906e-08
-1.6889e-07
-3.70766e-08
-1.69403e-07
-3.68694e-08
-1.69445e-07
-3.66813e-08
-1.69104e-07
-3.64967e-08
-1.6846e-07
-3.63295e-08
-1.67591e-07
-1.66578e-07
-3.61619e-08
-4.34045e-08
-8.74209e-08
4.36751e-08
-4.30943e-08
-9.8883e-08
-4.27619e-08
-1.09827e-07
-4.24062e-08
-1.20036e-07
-4.20466e-08
-1.29365e-07
-4.16805e-08
-1.37712e-07
-4.13248e-08
-1.45015e-07
-4.09737e-08
-1.51255e-07
-4.06412e-08
-1.56452e-07
-4.03189e-08
-1.60654e-07
-4.00183e-08
-1.63936e-07
-3.97293e-08
-1.66383e-07
-3.94621e-08
-1.68086e-07
-3.92051e-08
-1.6914e-07
-3.89688e-08
-1.69637e-07
-3.87404e-08
-1.69666e-07
-3.85303e-08
-1.69312e-07
-3.83257e-08
-1.68657e-07
-3.81372e-08
-1.67777e-07
-1.66756e-07
-3.79505e-08
-4.55924e-08
-8.77194e-08
4.58811e-08
-4.52605e-08
-9.9214e-08
-4.49083e-08
-1.10182e-07
-4.45338e-08
-1.20408e-07
-4.4154e-08
-1.29746e-07
-4.37683e-08
-1.38094e-07
-4.33908e-08
-1.45393e-07
-4.3019e-08
-1.51623e-07
-4.26633e-08
-1.56807e-07
-4.23193e-08
-1.60994e-07
-4.19948e-08
-1.6426e-07
-4.16837e-08
-1.66689e-07
-4.13921e-08
-1.68377e-07
-4.11138e-08
-1.69415e-07
-4.08529e-08
-1.69897e-07
-4.06038e-08
-1.69912e-07
-4.03701e-08
-1.69546e-07
-4.01452e-08
-1.68879e-07
-3.99332e-08
-1.6799e-07
-1.6696e-07
-3.97272e-08
-4.77592e-08
-8.80125e-08
4.80665e-08
-4.74182e-08
-9.95483e-08
-4.70499e-08
-1.10547e-07
-4.66593e-08
-1.20793e-07
-4.62598e-08
-1.30142e-07
-4.58547e-08
-1.38493e-07
-4.54549e-08
-1.45789e-07
-4.50617e-08
-1.52011e-07
-4.46823e-08
-1.57182e-07
-4.43159e-08
-1.61355e-07
-4.39668e-08
-1.64605e-07
-4.3633e-08
-1.67019e-07
-4.3317e-08
-1.68689e-07
-4.30156e-08
-1.69712e-07
-4.2731e-08
-1.70179e-07
-4.24593e-08
-1.70179e-07
-4.2202e-08
-1.698e-07
-4.19555e-08
-1.69121e-07
-4.17206e-08
-1.68221e-07
-1.67182e-07
-4.14941e-08
-4.99496e-08
-8.833e-08
5.02716e-08
-4.95896e-08
-9.99052e-08
-4.92011e-08
-1.10933e-07
-4.87908e-08
-1.21199e-07
-4.83691e-08
-1.30561e-07
-4.79428e-08
-1.38916e-07
-4.75192e-08
-1.46209e-07
-4.71034e-08
-1.52423e-07
-4.6699e-08
-1.57584e-07
-4.63092e-08
-1.61743e-07
-4.59345e-08
-1.64977e-07
-4.5577e-08
-1.67374e-07
-4.52348e-08
-1.69029e-07
-4.49104e-08
-1.70035e-07
-4.45997e-08
-1.70487e-07
-4.43054e-08
-1.70473e-07
-4.40228e-08
-1.70081e-07
-4.37544e-08
-1.6939e-07
-4.34943e-08
-1.6848e-07
-1.67431e-07
-4.32467e-08
-5.21445e-08
-8.86646e-08
5.24825e-08
-5.17661e-08
-1.00282e-07
-5.13565e-08
-1.1134e-07
-5.09252e-08
-1.21627e-07
-5.04804e-08
-1.31001e-07
-5.00315e-08
-1.39361e-07
-4.95833e-08
-1.46652e-07
-4.91436e-08
-1.5286e-07
-4.87134e-08
-1.58009e-07
-4.82989e-08
-1.62155e-07
-4.78976e-08
-1.65374e-07
-4.75152e-08
-1.67755e-07
-4.71467e-08
-1.69394e-07
-4.67971e-08
-1.70384e-07
-4.64605e-08
-1.7082e-07
-4.61416e-08
-1.70791e-07
-4.58334e-08
-1.70385e-07
-4.55413e-08
-1.69682e-07
-4.52565e-08
-1.68761e-07
-1.67701e-07
-4.49863e-08
-5.43471e-08
-8.90222e-08
5.47042e-08
-5.39456e-08
-1.0068e-07
-5.35139e-08
-1.11768e-07
-5.30608e-08
-1.22078e-07
-5.25925e-08
-1.31465e-07
-5.21204e-08
-1.39832e-07
-5.16467e-08
-1.47122e-07
-5.11824e-08
-1.53324e-07
-5.07252e-08
-1.58463e-07
-5.0285e-08
-1.62596e-07
-4.98561e-08
-1.658e-07
-4.94475e-08
-1.68166e-07
-4.90508e-08
-1.69788e-07
-4.86756e-08
-1.70762e-07
-4.83108e-08
-1.71183e-07
-4.79668e-08
-1.71139e-07
-4.76312e-08
-1.70719e-07
-4.73148e-08
-1.70004e-07
-4.70028e-08
-1.69071e-07
-1.68001e-07
-4.67093e-08
-5.65425e-08
-8.93828e-08
5.69217e-08
-5.61265e-08
-1.01089e-07
-5.56738e-08
-1.12213e-07
-5.51997e-08
-1.22548e-07
-5.47071e-08
-1.31952e-07
-5.42108e-08
-1.40326e-07
-5.37105e-08
-1.47617e-07
-5.322e-08
-1.53814e-07
-5.27347e-08
-1.58944e-07
-5.22674e-08
-1.63064e-07
-5.18094e-08
-1.66254e-07
-5.13732e-08
-1.68604e-07
-5.09476e-08
-1.7021e-07
-5.05443e-08
-1.71168e-07
-5.0151e-08
-1.71573e-07
-4.97797e-08
-1.71514e-07
-4.9416e-08
-1.71079e-07
-4.90733e-08
-1.7035e-07
-4.87342e-08
-1.69405e-07
-1.68324e-07
-4.84156e-08
-5.87574e-08
-8.97713e-08
5.91526e-08
-5.83189e-08
-1.01525e-07
-5.7843e-08
-1.12684e-07
-5.73449e-08
-1.23045e-07
-5.68263e-08
-1.32466e-07
-5.63038e-08
-1.4085e-07
-5.57752e-08
-1.48142e-07
-5.52568e-08
-1.54334e-07
-5.47418e-08
-1.59456e-07
-5.42455e-08
-1.63564e-07
-5.37571e-08
-1.6674e-07
-5.32916e-08
-1.69074e-07
-5.28348e-08
-1.70664e-07
-5.24028e-08
-1.71606e-07
-5.19786e-08
-1.71994e-07
-5.15791e-08
-1.7192e-07
-5.11854e-08
-1.71471e-07
-5.08154e-08
-1.70728e-07
-5.04469e-08
-1.69771e-07
-1.68678e-07
-5.01022e-08
-6.09824e-08
-9.01789e-08
6.13977e-08
-6.05222e-08
-1.01984e-07
-6.00211e-08
-1.13181e-07
-5.94971e-08
-1.2357e-07
-5.89502e-08
-1.33009e-07
-5.83993e-08
-1.41402e-07
-5.78406e-08
-1.48697e-07
-5.72923e-08
-1.54885e-07
-5.67458e-08
-1.59998e-07
-5.62187e-08
-1.64095e-07
-5.5698e-08
-1.67256e-07
-5.52014e-08
-1.69575e-07
-5.47126e-08
-1.71149e-07
-5.42493e-08
-1.72074e-07
-5.37936e-08
-1.72446e-07
-5.33635e-08
-1.72356e-07
-5.2939e-08
-1.71891e-07
-5.25397e-08
-1.71134e-07
-5.21415e-08
-1.70163e-07
-1.69057e-07
-5.17692e-08
-6.32094e-08
-9.06098e-08
6.36406e-08
-6.27266e-08
-1.02468e-07
-6.22008e-08
-1.13704e-07
-6.16502e-08
-1.24122e-07
-6.10747e-08
-1.33581e-07
-6.04944e-08
-1.41985e-07
-5.99043e-08
-1.49283e-07
-5.93246e-08
-1.55469e-07
-5.87452e-08
-1.60574e-07
-5.81856e-08
-1.64659e-07
-5.76312e-08
-1.67807e-07
-5.71016e-08
-1.70111e-07
-5.65787e-08
-1.71668e-07
-5.6083e-08
-1.72576e-07
-5.55934e-08
-1.72932e-07
-5.51317e-08
-1.72825e-07
-5.46744e-08
-1.72344e-07
-5.42446e-08
-1.71572e-07
-5.38146e-08
-1.70588e-07
-1.69469e-07
-5.34132e-08
-6.54456e-08
-9.10586e-08
6.59002e-08
-6.49393e-08
-1.02974e-07
-6.43863e-08
-1.14253e-07
-6.38073e-08
-1.24703e-07
-6.32012e-08
-1.34183e-07
-6.25895e-08
-1.42599e-07
-6.19664e-08
-1.49901e-07
-6.13533e-08
-1.56085e-07
-6.07392e-08
-1.61182e-07
-6.01452e-08
-1.65257e-07
-5.95554e-08
-1.68391e-07
-5.8991e-08
-1.70679e-07
-5.84327e-08
-1.7222e-07
-5.79022e-08
-1.73111e-07
-5.73778e-08
-1.7345e-07
-5.6882e-08
-1.73326e-07
-5.63907e-08
-1.72828e-07
-5.59282e-08
-1.72041e-07
-5.54658e-08
-1.71041e-07
-1.69907e-07
-5.50334e-08
-6.76828e-08
-9.15287e-08
6.81549e-08
-6.7153e-08
-1.03505e-07
-6.65736e-08
-1.14828e-07
-6.59656e-08
-1.25312e-07
-6.5328e-08
-1.34816e-07
-6.46835e-08
-1.43246e-07
-6.40258e-08
-1.50554e-07
-6.33776e-08
-1.56736e-07
-6.27272e-08
-1.61827e-07
-6.20967e-08
-1.65891e-07
-6.14696e-08
-1.69012e-07
-6.08684e-08
-1.71285e-07
-6.02724e-08
-1.7281e-07
-5.97055e-08
-1.73684e-07
-5.91438e-08
-1.74004e-07
-5.86125e-08
-1.73863e-07
-5.8085e-08
-1.73349e-07
-5.75882e-08
-1.72545e-07
-5.70909e-08
-1.7153e-07
-1.70381e-07
-5.66259e-08
-6.99344e-08
-9.20186e-08
7.0432e-08
-6.93787e-08
-1.04059e-07
-6.87693e-08
-1.15431e-07
-6.81295e-08
-1.25952e-07
-6.74578e-08
-1.35481e-07
-6.6778e-08
-1.43926e-07
-6.60834e-08
-1.51241e-07
-6.53978e-08
-1.57423e-07
-6.47088e-08
-1.62509e-07
-6.40397e-08
-1.66563e-07
-6.33731e-08
-1.69671e-07
-6.27328e-08
-1.71929e-07
-6.20975e-08
-1.73436e-07
-6.14915e-08
-1.74293e-07
-6.08911e-08
-1.74596e-07
-6.03215e-08
-1.74436e-07
-5.97563e-08
-1.73904e-07
-5.92228e-08
-1.73082e-07
-5.86896e-08
-1.72051e-07
-1.70885e-07
-5.81899e-08
-7.21931e-08
-9.25331e-08
7.27118e-08
-7.16099e-08
-1.04641e-07
-7.09698e-08
-1.16065e-07
-7.02966e-08
-1.26625e-07
-6.95891e-08
-1.36182e-07
-6.8872e-08
-1.44644e-07
-6.81386e-08
-1.51967e-07
-6.74132e-08
-1.5815e-07
-6.66834e-08
-1.63231e-07
-6.59732e-08
-1.67276e-07
-6.5265e-08
-1.70371e-07
-6.4583e-08
-1.72614e-07
-6.39057e-08
-1.74105e-07
-6.32586e-08
-1.74944e-07
-6.26167e-08
-1.75228e-07
-6.20069e-08
-1.7505e-07
-6.14015e-08
-1.74499e-07
-6.08292e-08
-1.7366e-07
-6.02575e-08
-1.72611e-07
-1.71428e-07
-5.97211e-08
-7.44632e-08
-9.30707e-08
7.50094e-08
-7.38509e-08
-1.05252e-07
-7.31775e-08
-1.16731e-07
-7.24686e-08
-1.27333e-07
-7.17229e-08
-1.36919e-07
-7.0966e-08
-1.45401e-07
-7.01912e-08
-1.52734e-07
-6.94236e-08
-1.58919e-07
-6.86505e-08
-1.63995e-07
-6.78966e-08
-1.68031e-07
-6.71442e-08
-1.71114e-07
-6.64181e-08
-1.73342e-07
-6.56967e-08
-1.74816e-07
-6.50054e-08
-1.75637e-07
-6.43202e-08
-1.75903e-07
-6.36671e-08
-1.75706e-07
-6.30196e-08
-1.75135e-07
-6.24059e-08
-1.74276e-07
-6.17942e-08
-1.73209e-07
-1.72007e-07
-6.12188e-08
-7.67386e-08
-9.36346e-08
7.73077e-08
-7.60967e-08
-1.05892e-07
-7.53899e-08
-1.17431e-07
-7.46438e-08
-1.28078e-07
-7.38583e-08
-1.37698e-07
-7.30594e-08
-1.462e-07
-7.2241e-08
-1.53544e-07
-7.14284e-08
-1.59732e-07
-7.06095e-08
-1.64805e-07
-6.98091e-08
-1.68833e-07
-6.90098e-08
-1.71904e-07
-6.82366e-08
-1.74117e-07
-6.74681e-08
-1.75575e-07
-6.67302e-08
-1.76378e-07
-6.59985e-08
-1.76624e-07
-6.52999e-08
-1.76407e-07
-6.46075e-08
-1.75817e-07
-6.395e-08
-1.74938e-07
-6.32956e-08
-1.7385e-07
-1.72628e-07
-6.26787e-08
-7.90313e-08
-9.42258e-08
7.96306e-08
-7.83563e-08
-1.06565e-07
-7.76121e-08
-1.18168e-07
-7.68256e-08
-1.28864e-07
-7.59971e-08
-1.38518e-07
-7.51531e-08
-1.47044e-07
-7.42881e-08
-1.54401e-07
-7.34275e-08
-1.60593e-07
-7.25598e-08
-1.65664e-07
-7.17097e-08
-1.69684e-07
-7.08607e-08
-1.72743e-07
-7.00373e-08
-1.74942e-07
-6.92192e-08
-1.76382e-07
-6.84314e-08
-1.77167e-07
-6.76509e-08
-1.77393e-07
-6.69036e-08
-1.77156e-07
-6.6164e-08
-1.76544e-07
-6.54597e-08
-1.75644e-07
-6.47604e-08
-1.74535e-07
-1.73292e-07
-6.40993e-08
-8.13318e-08
-9.48475e-08
8.19579e-08
-8.06225e-08
-1.07274e-07
-7.98398e-08
-1.18944e-07
-7.90108e-08
-1.29693e-07
-7.81372e-08
-1.39385e-07
-7.72454e-08
-1.47936e-07
-7.63311e-08
-1.55307e-07
-7.54195e-08
-1.61506e-07
-7.45001e-08
-1.66575e-07
-7.35972e-08
-1.70588e-07
-7.26954e-08
-1.73636e-07
-7.18186e-08
-1.7582e-07
-7.09475e-08
-1.77244e-07
-7.01068e-08
-1.78009e-07
-6.92742e-08
-1.78215e-07
-6.84752e-08
-1.77957e-07
-6.76852e-08
-1.77323e-07
-6.69312e-08
-1.76401e-07
-6.6184e-08
-1.75269e-07
-1.74004e-07
-6.54761e-08
-8.36462e-08
-9.55007e-08
8.4306e-08
-8.28996e-08
-1.08019e-07
-8.20753e-08
-1.19762e-07
-8.12008e-08
-1.30567e-07
-8.0279e-08
-1.403e-07
-7.93364e-08
-1.48878e-07
-7.83697e-08
-1.56266e-07
-7.74038e-08
-1.62472e-07
-7.64295e-08
-1.67541e-07
-7.54705e-08
-1.71548e-07
-7.45125e-08
-1.74585e-07
-7.3579e-08
-1.76755e-07
-7.26519e-08
-1.78161e-07
-7.17547e-08
-1.78907e-07
-7.08671e-08
-1.79093e-07
-7.0013e-08
-1.78812e-07
-6.91697e-08
-1.78155e-07
-6.83629e-08
-1.77209e-07
-6.75654e-08
-1.76054e-07
-1.74764e-07
-6.68077e-08
-8.59666e-08
-9.6187e-08
8.66561e-08
-8.51821e-08
-1.08803e-07
-8.43153e-08
-1.20624e-07
-8.33934e-08
-1.31489e-07
-8.24213e-08
-1.41266e-07
-8.14249e-08
-1.49875e-07
-8.04029e-08
-1.57282e-07
-7.93794e-08
-1.63496e-07
-7.83469e-08
-1.68566e-07
-7.73282e-08
-1.72568e-07
-7.63107e-08
-1.75595e-07
-7.53167e-08
-1.7775e-07
-7.43299e-08
-1.79139e-07
-7.33728e-08
-1.79866e-07
-7.24264e-08
-1.8003e-07
-7.1514e-08
-1.79726e-07
-7.0614e-08
-1.79045e-07
-6.97512e-08
-1.78074e-07
-6.89001e-08
-1.76893e-07
-1.75577e-07
-6.80895e-08
-8.8307e-08
-9.69098e-08
8.90346e-08
-8.74798e-08
-1.0963e-07
-8.65658e-08
-1.21533e-07
-8.55923e-08
-1.32462e-07
-8.45659e-08
-1.42287e-07
-8.3512e-08
-1.50929e-07
-8.24309e-08
-1.58357e-07
-8.1346e-08
-1.64582e-07
-8.02515e-08
-1.69654e-07
-7.91692e-08
-1.73651e-07
-7.80884e-08
-1.76668e-07
-7.70301e-08
-1.78809e-07
-7.598e-08
-1.80181e-07
-7.49591e-08
-1.80888e-07
-7.39506e-08
-1.81029e-07
-7.29759e-08
-1.80701e-07
-7.2016e-08
-1.79995e-07
-7.10935e-08
-1.78998e-07
-7.01855e-08
-1.7779e-07
-1.76446e-07
-6.93187e-08
-9.06569e-08
-9.76713e-08
9.14197e-08
-8.97856e-08
-1.10502e-07
-8.88228e-08
-1.22493e-07
-8.7795e-08
-1.33491e-07
-8.67113e-08
-1.43367e-07
-8.55963e-08
-1.52045e-07
-8.44526e-08
-1.59496e-07
-8.33023e-08
-1.65733e-07
-8.2142e-08
-1.70808e-07
-8.0992e-08
-1.74802e-07
-7.98438e-08
-1.7781e-07
-7.8717e-08
-1.79937e-07
-7.75995e-08
-1.81291e-07
-7.65107e-08
-1.81978e-07
-7.5436e-08
-1.82096e-07
-7.43951e-08
-1.81743e-07
-7.33712e-08
-1.81011e-07
-7.23851e-08
-1.79985e-07
-7.14166e-08
-1.78748e-07
-1.77375e-07
-7.04897e-08
-9.30251e-08
-9.84745e-08
9.38311e-08
-9.21056e-08
-1.11422e-07
-9.10896e-08
-1.23507e-07
-9.00036e-08
-1.34577e-07
-8.88587e-08
-1.44508e-07
-8.76786e-08
-1.53226e-07
-8.6468e-08
-1.60702e-07
-8.52481e-08
-1.66953e-07
-8.40175e-08
-1.72034e-07
-8.27953e-08
-1.76025e-07
-8.15754e-08
-1.79024e-07
-8.03756e-08
-1.81138e-07
-7.91864e-08
-1.82474e-07
-7.80252e-08
-1.83139e-07
-7.68801e-08
-1.83234e-07
-7.57686e-08
-1.82855e-07
-7.46767e-08
-1.82094e-07
-7.3623e-08
-1.8104e-07
-7.259e-08
-1.79772e-07
-1.78367e-07
-7.15993e-08
-9.54029e-08
-9.93205e-08
9.62484e-08
-9.44344e-08
-1.12392e-07
-9.33639e-08
-1.24577e-07
-9.22169e-08
-1.35726e-07
-9.10074e-08
-1.45716e-07
-8.97581e-08
-1.54476e-07
-8.84766e-08
-1.6198e-07
-8.71824e-08
-1.68248e-07
-8.5877e-08
-1.73335e-07
-8.45778e-08
-1.77324e-07
-8.32813e-08
-1.80315e-07
-8.20036e-08
-1.82416e-07
-8.07377e-08
-1.83734e-07
-7.94993e-08
-1.84378e-07
-7.82789e-08
-1.84448e-07
-7.70922e-08
-1.84042e-07
-7.59277e-08
-1.83252e-07
-7.48019e-08
-1.82166e-07
-7.37004e-08
-1.80866e-07
-1.79427e-07
-7.26418e-08
-9.78072e-08
-1.00215e-07
9.8702e-08
-9.67834e-08
-1.13417e-07
-9.56523e-08
-1.25708e-07
-9.44389e-08
-1.3694e-07
-9.31596e-08
-1.46994e-07
-9.18361e-08
-1.558e-07
-9.04783e-08
-1.63335e-07
-8.91047e-08
-1.69622e-07
-8.77193e-08
-1.74717e-07
-8.63378e-08
-1.78706e-07
-8.49595e-08
-1.81689e-07
-8.35986e-08
-1.83777e-07
-8.2251e-08
-1.85077e-07
-8.09301e-08
-1.85699e-07
-7.96295e-08
-1.85743e-07
-7.83626e-08
-1.85309e-07
-7.71208e-08
-1.84488e-07
-7.59183e-08
-1.83369e-07
-7.47437e-08
-1.82033e-07
-1.80558e-07
-7.36128e-08
-1.00225e-07
-1.01159e-07
1.01166e-07
-9.91439e-08
-1.145e-07
-9.795e-08
-1.26904e-07
-9.66665e-08
-1.38226e-07
-9.53133e-08
-1.48347e-07
-9.39107e-08
-1.57203e-07
-9.24718e-08
-1.64773e-07
-9.10134e-08
-1.7108e-07
-8.95425e-08
-1.76185e-07
-8.80731e-08
-1.80175e-07
-8.66073e-08
-1.83152e-07
-8.51576e-08
-1.85226e-07
-8.37225e-08
-1.86509e-07
-8.23137e-08
-1.87107e-07
-8.09273e-08
-1.87125e-07
-7.95748e-08
-1.86661e-07
-7.82505e-08
-1.85807e-07
-7.69661e-08
-1.84653e-07
-7.57137e-08
-1.8328e-07
-1.81765e-07
-7.45058e-08
-1.02666e-07
-1.02157e-07
1.03662e-07
-1.01523e-07
-1.15646e-07
-1.0026e-07
-1.28169e-07
-9.89014e-08
-1.39586e-07
-9.74688e-08
-1.49781e-07
-9.59817e-08
-1.58691e-07
-9.4456e-08
-1.66298e-07
-9.2907e-08
-1.72629e-07
-9.13447e-08
-1.77746e-07
-8.97814e-08
-1.81738e-07
-8.82222e-08
-1.84709e-07
-8.66776e-08
-1.8677e-07
-8.51492e-08
-1.88034e-07
-8.36464e-08
-1.88609e-07
-8.21685e-08
-1.88599e-07
-8.07248e-08
-1.88104e-07
-7.93124e-08
-1.87215e-07
-7.79408e-08
-1.86023e-07
-7.66052e-08
-1.84611e-07
-1.83054e-07
-7.53153e-08
-1.05121e-07
-1.03211e-07
1.0617e-07
-1.03913e-07
-1.16857e-07
-1.0258e-07
-1.29507e-07
-1.01141e-07
-1.41026e-07
-9.96249e-08
-1.513e-07
-9.80478e-08
-1.60268e-07
-9.64295e-08
-1.67917e-07
-9.47839e-08
-1.74274e-07
-9.31239e-08
-1.79405e-07
-9.14603e-08
-1.83401e-07
-8.98012e-08
-1.86366e-07
-8.81552e-08
-1.88415e-07
-8.65268e-08
-1.8966e-07
-8.49237e-08
-1.90211e-07
-8.3348e-08
-1.90172e-07
-8.18066e-08
-1.89643e-07
-8.03002e-08
-1.88718e-07
-7.88354e-08
-1.87487e-07
-7.7411e-08
-1.86032e-07
-1.8443e-07
-7.60336e-08
-1.07605e-07
-1.04326e-07
1.08717e-07
-1.06326e-07
-1.18138e-07
-1.04914e-07
-1.30924e-07
-1.0339e-07
-1.42552e-07
-1.01783e-07
-1.5291e-07
-1.0011e-07
-1.61942e-07
-9.8392e-08
-1.69635e-07
-9.66429e-08
-1.76022e-07
-9.48783e-08
-1.8117e-07
-9.31074e-08
-1.8517e-07
-9.13414e-08
-1.88131e-07
-8.95869e-08
-1.90168e-07
-8.78518e-08
-1.91394e-07
-8.61414e-08
-1.9192e-07
-8.44611e-08
-1.91851e-07
-8.28156e-08
-1.91287e-07
-8.12085e-08
-1.90323e-07
-7.96443e-08
-1.89049e-07
-7.8125e-08
-1.87548e-07
-1.85899e-07
-7.66544e-08
-1.1011e-07
-1.05507e-07
1.11285e-07
-1.08757e-07
-1.19495e-07
-1.07262e-07
-1.32425e-07
-1.05647e-07
-1.44169e-07
-1.03943e-07
-1.54618e-07
-1.02166e-07
-1.63718e-07
-1.00342e-07
-1.71461e-07
-9.84824e-08
-1.77881e-07
-9.66059e-08
-1.83047e-07
-9.47201e-08
-1.87054e-07
-9.28395e-08
-1.90012e-07
-9.09689e-08
-1.92036e-07
-8.91193e-08
-1.93243e-07
-8.7294e-08
-1.93743e-07
-8.55016e-08
-1.93642e-07
-8.37447e-08
-1.93041e-07
-8.203e-08
-1.92036e-07
-8.03594e-08
-1.90717e-07
-7.87387e-08
-1.89168e-07
-1.87466e-07
-7.71685e-08
-1.12644e-07
-1.06757e-07
1.1389e-07
-1.1121e-07
-1.20932e-07
-1.09626e-07
-1.34016e-07
-1.07913e-07
-1.45884e-07
-1.06105e-07
-1.5643e-07
-1.04218e-07
-1.65605e-07
-1.0228e-07
-1.73401e-07
-1.00301e-07
-1.79858e-07
-9.83045e-08
-1.85045e-07
-9.62956e-08
-1.89061e-07
-9.42921e-08
-1.92016e-07
-9.22972e-08
-1.94029e-07
-9.03249e-08
-1.95215e-07
-8.83767e-08
-1.95688e-07
-8.64642e-08
-1.95554e-07
-8.4588e-08
-1.94915e-07
-8.27581e-08
-1.93866e-07
-8.09738e-08
-1.92498e-07
-7.92446e-08
-1.90896e-07
-1.89139e-07
-7.7568e-08
-1.15204e-07
-1.08082e-07
1.16521e-07
-1.13684e-07
-1.22455e-07
-1.12006e-07
-1.35703e-07
-1.10188e-07
-1.47703e-07
-1.08269e-07
-1.58355e-07
-1.06263e-07
-1.6761e-07
-1.04203e-07
-1.75465e-07
-1.02097e-07
-1.81961e-07
-9.99717e-08
-1.87173e-07
-9.78307e-08
-1.91199e-07
-9.56953e-08
-1.94153e-07
-9.3567e-08
-1.96154e-07
-9.14629e-08
-1.9732e-07
-8.93828e-08
-1.97765e-07
-8.73415e-08
-1.97596e-07
-8.53375e-08
-1.96915e-07
-8.33839e-08
-1.95819e-07
-8.1478e-08
-1.944e-07
-7.96325e-08
-1.92742e-07
-1.90926e-07
-7.78421e-08
-1.17801e-07
-1.09486e-07
1.192e-07
-1.16188e-07
-1.24071e-07
-1.14407e-07
-1.37493e-07
-1.12476e-07
-1.49636e-07
-1.10437e-07
-1.604e-07
-1.08304e-07
-1.69741e-07
-1.06112e-07
-1.77661e-07
-1.03869e-07
-1.84201e-07
-1.01605e-07
-1.8944e-07
-9.93221e-08
-1.93478e-07
-9.70449e-08
-1.96432e-07
-9.47733e-08
-1.98422e-07
-9.25279e-08
-1.99567e-07
-9.03062e-08
-1.99982e-07
-8.81267e-08
-1.99776e-07
-8.59856e-08
-1.99052e-07
-8.38995e-08
-1.97906e-07
-8.18632e-08
-1.96432e-07
-7.98931e-08
-1.94714e-07
-1.92833e-07
-7.79811e-08
-1.2043e-07
-1.10978e-07
1.21912e-07
-1.18718e-07
-1.25787e-07
-1.16827e-07
-1.39395e-07
-1.14775e-07
-1.51689e-07
-1.12607e-07
-1.62574e-07
-1.10337e-07
-1.7201e-07
-1.08004e-07
-1.79999e-07
-1.05614e-07
-1.86588e-07
-1.03201e-07
-1.91856e-07
-1.00765e-07
-1.9591e-07
-9.83359e-08
-1.98864e-07
-9.59103e-08
-2.00843e-07
-9.35127e-08
-2.01967e-07
-9.11391e-08
-2.02351e-07
-8.88109e-08
-2.02106e-07
-8.65227e-08
-2.01335e-07
-8.42942e-08
-2.00137e-07
-8.21182e-08
-1.98603e-07
-8.00145e-08
-1.9682e-07
-1.94869e-07
-7.79722e-08
-1.23097e-07
-1.12561e-07
1.24673e-07
-1.21278e-07
-1.27609e-07
-1.19269e-07
-1.41416e-07
-1.17086e-07
-1.53873e-07
-1.1478e-07
-1.64888e-07
-1.12363e-07
-1.74424e-07
-1.09878e-07
-1.82489e-07
-1.0733e-07
-1.89131e-07
-1.04756e-07
-1.94434e-07
-1.02156e-07
-1.98504e-07
-9.95628e-08
-2.01461e-07
-9.69717e-08
-2.03429e-07
-9.44105e-08
-2.04531e-07
-9.18735e-08
-2.04883e-07
-8.93856e-08
-2.04597e-07
-8.69393e-08
-2.03776e-07
-8.45578e-08
-2.0252e-07
-8.22319e-08
-2.00923e-07
-7.99847e-08
-1.9907e-07
-1.97044e-07
-7.7803e-08
-1.25799e-07
-1.14243e-07
1.27472e-07
-1.23867e-07
-1.29545e-07
-1.21731e-07
-1.43564e-07
-1.19409e-07
-1.56195e-07
-1.16955e-07
-1.67351e-07
-1.14379e-07
-1.76997e-07
-1.1173e-07
-1.85144e-07
-1.09012e-07
-1.91845e-07
-1.06266e-07
-1.97185e-07
-1.0349e-07
-2.01275e-07
-1.0072e-07
-2.04235e-07
-9.79502e-08
-2.06193e-07
-9.52128e-08
-2.07271e-07
-9.24999e-08
-2.0759e-07
-8.98399e-08
-2.0726e-07
-8.72236e-08
-2.06386e-07
-8.46776e-08
-2.0507e-07
-8.21906e-08
-2.03403e-07
-7.97894e-08
-2.01476e-07
-1.99369e-07
-7.7458e-08
-1.28549e-07
-1.16031e-07
1.3033e-07
-1.26492e-07
-1.31604e-07
-1.2422e-07
-1.4585e-07
-1.21746e-07
-1.58668e-07
-1.19132e-07
-1.69975e-07
-1.16386e-07
-1.79739e-07
-1.1356e-07
-1.87976e-07
-1.10659e-07
-1.94741e-07
-1.07726e-07
-2.00123e-07
-1.0476e-07
-2.04235e-07
-1.01799e-07
-2.072e-07
-9.88381e-08