/*--------------------------------*- C++ -*----------------------------------*\
  =========                 |
  \\      /  F ield         | OpenFOAM: The Open Source CFD Toolbox
   \\    /   O peration     | Website:  https://openfoam.org
    \\  /    A nd           | Version:  6
     \\/     M anipulation  |
\*---------------------------------------------------------------------------*/
FoamFile
{
    version     2.0;
    format      ascii;
    class       surfaceScalarField;
    location    "8";
    object      phi;
}
// * * * * * * * * * * * * * * * * * * * * * * * * * * * * * * * * * * * * * //

dimensions      [0 3 -1 0 0 0 0];

internalField   nonuniform List<scalar> 
19400
(
-6.48736e-09
-9.09083e-07
-1.16037e-08
-1.16913e-06
-1.32733e-08
-1.26277e-06
-1.2571e-08
-1.30248e-06
-1.07109e-08
-1.31737e-06
-8.66605e-09
-1.3213e-06
-6.90089e-09
-1.32085e-06
-5.5218e-09
-1.31904e-06
-4.39604e-09
-1.31721e-06
-3.43538e-09
-1.31588e-06
-2.46906e-09
-1.31522e-06
-1.37443e-09
-1.31512e-06
4.62716e-11
-1.31525e-06
1.99951e-09
-1.3149e-06
4.49399e-09
-1.31263e-06
7.24005e-09
-1.3054e-06
9.17199e-09
-1.28701e-06
8.99552e-09
-1.24501e-06
5.39454e-09
-1.15124e-06
-8.90745e-07
-2.33198e-09
-9.07119e-07
-4.89335e-09
-1.16685e-06
-6.08174e-09
-1.26191e-06
-6.36947e-09
-1.3024e-06
-6.2134e-09
-1.31776e-06
-5.70631e-09
-1.32197e-06
-5.04039e-09
-1.32166e-06
-4.30873e-09
-1.31991e-06
-3.5259e-09
-1.31809e-06
-2.80687e-09
-1.31677e-06
-2.02588e-09
-1.3161e-06
-1.31858e-09
-1.31602e-06
-5.36601e-10
-1.31617e-06
2.23712e-10
-1.31585e-06
9.83475e-10
-1.31357e-06
1.72862e-09
-1.30627e-06
2.15895e-09
-1.28771e-06
2.04499e-09
-1.24519e-06
9.65241e-10
-1.15046e-06
-8.89801e-07
-3.16289e-09
-9.04008e-07
-3.33094e-09
-1.16674e-06
-3.46284e-09
-1.26185e-06
-3.47168e-09
-1.30242e-06
-3.48904e-09
-1.31781e-06
-3.41864e-09
-1.32206e-06
-3.28231e-09
-1.32185e-06
-3.00774e-09
-1.32021e-06
-2.64069e-09
-1.31849e-06
-2.1975e-09
-1.31724e-06
-1.73185e-09
-1.31661e-06
-1.24226e-09
-1.31653e-06
-7.95073e-10
-1.31667e-06
-3.15623e-10
-1.31633e-06
1.40841e-10
-1.31404e-06
6.61739e-10
-1.30678e-06
1.21799e-09
-1.28826e-06
1.73539e-09
-1.24577e-06
2.21884e-09
-1.15101e-06
-8.87567e-07
-2.89742e-09
-9.01047e-07
-2.15962e-09
-1.16743e-06
-1.70573e-09
-1.26224e-06
-1.52638e-09
-1.30253e-06
-1.548e-09
-1.31774e-06
-1.63601e-09
-1.32191e-06
-1.72602e-09
-1.32172e-06
-1.73883e-09
-1.32016e-06
-1.66849e-09
-1.31854e-06
-1.49846e-09
-1.31738e-06
-1.2791e-09
-1.31682e-06
-9.86924e-10
-1.31679e-06
-7.14215e-10
-1.31695e-06
-3.8045e-10
-1.31661e-06
-8.80631e-11
-1.31432e-06
2.41384e-10
-1.30706e-06
6.32938e-10
-1.28859e-06
1.02738e-09
-1.24608e-06
1.064e-09
-1.15097e-06
-8.86489e-07
-3.07224e-09
-8.97893e-07
-2.49333e-09
-1.16797e-06
-1.98478e-09
-1.26266e-06
-1.76679e-09
-1.3027e-06
-1.60204e-09
-1.31782e-06
-1.52656e-09
-1.32194e-06
-1.45935e-09
-1.32173e-06
-1.38342e-09
-1.3202e-06
-1.26194e-09
-1.31863e-06
-1.07464e-09
-1.31754e-06
-8.57628e-10
-1.31703e-06
-5.6698e-10
-1.31704e-06
-2.95502e-10
-1.31723e-06
3.12041e-11
-1.31689e-06
2.89314e-10
-1.31457e-06
5.32982e-10
-1.30727e-06
7.57273e-10
-1.28877e-06
8.68837e-10
-1.24613e-06
7.18365e-10
-1.15077e-06
-8.85776e-07
-1.77405e-09
-8.96137e-07
-2.31974e-09
-1.1675e-06
-2.43287e-09
-1.26255e-06
-2.50362e-09
-1.30267e-06
-2.34926e-09
-1.31797e-06
-2.13155e-09
-1.32218e-06
-1.86163e-09
-1.32201e-06
-1.58091e-09
-1.32049e-06
-1.29317e-09
-1.31893e-06
-9.85779e-10
-1.31784e-06
-6.80336e-10
-1.31735e-06
-3.36975e-10
-1.31737e-06
-2.26939e-13
-1.31757e-06
3.35449e-10
-1.31722e-06
6.02512e-10
-1.31485e-06
7.54843e-10
-1.30743e-06
7.92538e-10
-1.28882e-06
6.78167e-10
-1.24604e-06
2.30883e-10
-1.15036e-06
-8.85568e-07
-5.1972e-10
-8.95749e-07
-1.59807e-09
-1.16657e-06
-2.19823e-09
-1.26207e-06
-2.41712e-09
-1.30257e-06
-2.37556e-09
-1.31811e-06
-2.18898e-09
-1.32245e-06
-1.93465e-09
-1.32233e-06
-1.63815e-09
-1.32084e-06
-1.33672e-09
-1.31929e-06
-1.03224e-09
-1.31819e-06
-7.39904e-10
-1.31768e-06
-4.55292e-10
-1.31769e-06
-1.81684e-10
-1.31786e-06
4.07268e-11
-1.31747e-06
1.85702e-10
-1.31502e-06
2.20018e-10
-1.3075e-06
1.10982e-10
-1.28878e-06
-1.04918e-10
-1.24592e-06
-5.00872e-10
-1.15008e-06
-8.86096e-07
-3.18679e-10
-8.95483e-07
-9.46222e-10
-1.16602e-06
-1.39072e-09
-1.26169e-06
-1.47511e-09
-1.30256e-06
-1.49496e-09
-1.31815e-06
-1.4752e-09
-1.32252e-06
-1.41641e-09
-1.32244e-06
-1.30814e-09
-1.32098e-06
-1.18323e-09
-1.31945e-06
-1.03552e-09
-1.31835e-06
-9.05293e-10
-1.31784e-06
-7.82955e-10
-1.31783e-06
-6.8509e-10
-1.31798e-06
-6.29206e-10
-1.31755e-06
-6.03178e-10
-1.31506e-06
-6.45706e-10
-1.30749e-06
-7.71379e-10
-1.28872e-06
-8.96228e-10
-1.24592e-06
-6.46758e-10
-1.15046e-06
-8.86764e-07
-4.86819e-10
-8.94932e-07
-5.33888e-10
-1.16593e-06
-5.4127e-10
-1.26163e-06
-5.33938e-10
-1.30255e-06
-6.40964e-10
-1.31801e-06
-8.13657e-10
-1.32234e-06
-9.4887e-10
-1.32228e-06
-1.05314e-09
-1.32087e-06
-1.11392e-09
-1.31938e-06
-1.15897e-09
-1.31831e-06
-1.20164e-09
-1.31781e-06
-1.27224e-09
-1.31777e-06
-1.36365e-09
-1.3179e-06
-1.47898e-09
-1.31746e-06
-1.58381e-09
-1.31498e-06
-1.64407e-09
-1.30747e-06
-1.66364e-09
-1.28876e-06
-1.61953e-09
-1.24605e-06
-1.1046e-09
-1.15106e-06
-8.87872e-07
-6.73689e-10
-8.94205e-07
-4.10472e-10
-1.16617e-06
-2.54758e-10
-1.26173e-06
-3.72954e-10
-1.30242e-06
-5.66472e-10
-1.31778e-06
-8.05541e-10
-1.3221e-06
-9.87161e-10
-1.32208e-06
-1.15707e-09
-1.32071e-06
-1.28123e-09
-1.31924e-06
-1.415e-09
-1.31819e-06
-1.548e-09
-1.31767e-06
-1.71224e-09
-1.31762e-06
-1.90767e-09
-1.31773e-06
-2.08572e-09
-1.31729e-06
-2.22467e-09
-1.31487e-06
-2.20396e-09
-1.30749e-06
-2.01503e-09
-1.28897e-06
-1.71051e-09
-1.24636e-06
-1.20391e-09
-1.15157e-06
-8.89071e-07
-4.33557e-10
-8.93828e-07
-2.00279e-10
-1.16643e-06
-1.19155e-10
-1.26185e-06
-3.11345e-10
-1.30225e-06
-5.7226e-10
-1.31754e-06
-8.11202e-10
-1.32187e-06
-1.01598e-09
-1.32189e-06
-1.17423e-09
-1.32055e-06
-1.31772e-09
-1.31911e-06
-1.42534e-09
-1.31807e-06
-1.54521e-09
-1.31757e-06
-1.63158e-09
-1.31753e-06
-1.73206e-09
-1.31765e-06
-1.76254e-09
-1.31726e-06
-1.76331e-09
-1.31489e-06
-1.67577e-09
-1.30758e-06
-1.47034e-09
-1.28915e-06
-1.27091e-09
-1.24653e-06
-9.916e-10
-1.15183e-06
-8.90067e-07
-1.26685e-10
-8.93802e-07
1.28265e-10
-1.16674e-06
1.39589e-10
-1.26193e-06
2.92148e-11
-1.30217e-06
-1.76098e-10
-1.31738e-06
-3.87851e-10
-1.32168e-06
-6.06652e-10
-1.32171e-06
-7.82443e-10
-1.32039e-06
-9.43101e-10
-1.31899e-06
-1.04048e-09
-1.31798e-06
-1.10911e-09
-1.31753e-06
-1.09272e-09
-1.31754e-06
-1.04208e-09
-1.31773e-06
-9.24297e-10
-1.31738e-06
-8.19357e-10
-1.31502e-06
-7.76888e-10
-1.30765e-06
-7.93969e-10
-1.28915e-06
-8.34579e-10
-1.24652e-06
-9.4516e-10
-1.15176e-06
-8.91029e-07
1.48481e-10
-8.94067e-07
3.42322e-10
-1.16701e-06
4.86934e-10
-1.26217e-06
5.45664e-10
-1.30228e-06
4.60133e-10
-1.31736e-06
3.0418e-10
-1.32157e-06
8.18906e-11
-1.32153e-06
-1.38952e-10
-1.32021e-06
-3.37153e-10
-1.31883e-06
-4.77241e-10
-1.31788e-06
-5.55733e-10
-1.31748e-06
-5.64769e-10
-1.31756e-06
-5.1028e-10
-1.3178e-06
-4.34484e-10
-1.31748e-06
-3.94403e-10
-1.3151e-06
-4.49158e-10
-1.30763e-06
-6.29896e-10
-1.28905e-06
-6.9552e-10
-1.24653e-06
-6.99265e-10
-1.15184e-06
-8.91744e-07
-1.12148e-10
-8.94068e-07
4.95182e-10
-1.16769e-06
9.03625e-10
-1.26266e-06
1.01181e-09
-1.30242e-06
9.56539e-10
-1.31736e-06
8.30983e-10
-1.32147e-06
6.26195e-10
-1.32137e-06
4.10141e-10
-1.32002e-06
1.97946e-10
-1.31865e-06
2.93206e-11
-1.31773e-06
-1.02771e-10
-1.31738e-06
-1.76577e-10
-1.3175e-06
-2.17163e-10
-1.31777e-06
-2.55659e-10
-1.31746e-06
-3.11182e-10
-1.31506e-06
-4.42459e-10
-1.30754e-06
-6.70109e-10
-1.28886e-06
-8.20132e-10
-1.24644e-06
-4.57901e-10
-1.15227e-06
-8.92213e-07
-1.32775e-10
-8.94012e-07
5.17813e-10
-1.16843e-06
7.82202e-10
-1.26298e-06
8.2548e-10
-1.30251e-06
8.13704e-10
-1.31739e-06
7.73698e-10
-1.32146e-06
6.97536e-10
-1.32132e-06
5.94092e-10
-1.31993e-06
4.64573e-10
-1.31854e-06
3.38261e-10
-1.31762e-06
2.09092e-10
-1.31727e-06
9.3359e-11
-1.3174e-06
-2.01608e-11
-1.31768e-06
-1.44374e-10
-1.31736e-06
-2.73505e-10
-1.31495e-06
-4.34367e-10
-1.30742e-06
-6.7802e-10
-1.28866e-06
-9.31451e-10
-1.24623e-06
-6.38219e-10
-1.15262e-06
-8.92863e-07
5.3069e-10
-8.94616e-07
5.02885e-10
-1.16847e-06
4.87211e-10
-1.26302e-06
5.02524e-10
-1.30257e-06
5.25486e-10
-1.31746e-06
5.76654e-10
-1.32153e-06
6.07765e-10
-1.32138e-06
6.14375e-10
-1.31996e-06
5.8283e-10
-1.31854e-06
5.23261e-10
-1.31758e-06
4.30277e-10
-1.31721e-06
3.26049e-10
-1.31732e-06
1.95614e-10
-1.31757e-06
5.86392e-11
-1.31725e-06
-9.39763e-11
-1.31484e-06
-2.54304e-10
-1.30731e-06
-4.59585e-10
-1.2885e-06
-7.00254e-10
-1.24604e-06
-6.04986e-10
-1.15278e-06
-8.93482e-07
3.61873e-10
-8.94974e-07
1.78328e-10
-1.16833e-06
-3.10537e-11
-1.26281e-06
-1.02587e-10
-1.30253e-06
2.39996e-11
-1.31759e-06
2.00489e-10
-1.32173e-06
3.57535e-10
-1.32155e-06
4.65913e-10
-1.32008e-06
5.17145e-10
-1.31861e-06
5.34897e-10
-1.31761e-06
5.07577e-10
-1.31721e-06
4.84214e-10
-1.31731e-06
4.40528e-10
-1.31758e-06
4.20788e-10
-1.31727e-06
3.89518e-10
-1.31487e-06
3.16027e-10
-1.3073e-06
1.65339e-10
-1.28841e-06
-9.03493e-11
-1.24586e-06
-2.78578e-10
-1.15265e-06
-8.93764e-07
6.09232e-10
-8.95577e-07
-8.45297e-11
-1.16769e-06
-4.07043e-10
-1.26248e-06
-5.28126e-10
-1.30246e-06
-4.41159e-10
-1.31768e-06
-2.70722e-10
-1.32193e-06
-5.98792e-11
-1.32176e-06
1.00238e-10
-1.32026e-06
2.19565e-10
-1.31874e-06
2.75858e-10
-1.31769e-06
3.11984e-10
-1.31727e-06
3.30496e-10
-1.31736e-06
3.48882e-10
-1.31763e-06
3.8396e-10
-1.31734e-06
4.13109e-10
-1.31495e-06
4.41583e-10
-1.30737e-06
3.75233e-10
-1.2884e-06
1.71028e-10
-1.24567e-06
-3.18826e-10
-1.15215e-06
-8.94068e-07
4.66263e-10
-8.96054e-07
-2.75113e-10
-1.16701e-06
-6.41295e-10
-1.26213e-06
-8.03645e-10
-1.30234e-06
-7.87939e-10
-1.31771e-06
-6.57962e-10
-1.32208e-06
-4.61729e-10
-1.32197e-06
-2.65473e-10
-1.32047e-06
-1.11235e-10
-1.3189e-06
6.39382e-12
-1.31781e-06
8.46752e-11
-1.31735e-06
1.505e-10
-1.31743e-06
2.08934e-10
-1.3177e-06
2.80389e-10
-1.31741e-06
3.65765e-10
-1.31504e-06
4.86768e-10
-1.3075e-06
6.14739e-10
-1.28851e-06
5.9726e-10
-1.24559e-06
3.63821e-10
-1.15185e-06
-8.93697e-07
3.46265e-10
-8.96436e-07
-2.07469e-10
-1.16652e-06
-7.1572e-10
-1.26165e-06
-1.01176e-09
-1.3021e-06
-1.06046e-09
-1.31769e-06
-9.45177e-10
-1.32223e-06
-7.50954e-10
-1.3222e-06
-5.08704e-10
-1.32072e-06
-2.95272e-10
-1.31914e-06
-6.82517e-11
-1.31804e-06
1.21619e-10
-1.31757e-06
3.34806e-10
-1.31765e-06
5.4653e-10
-1.31793e-06
7.78186e-10
-1.31766e-06
1.01753e-09
-1.3153e-06
1.23757e-09
-1.30776e-06
1.48801e-09
-1.28874e-06
1.50542e-09
-1.24558e-06
1.02685e-09
-1.15136e-06
-8.92688e-07
5.23829e-10
-8.9704e-07
-1.89536e-10
-1.1659e-06
-8.07854e-10
-1.26109e-06
-1.10512e-09
-1.30188e-06
-1.12167e-09
-1.31773e-06
-1.00928e-09
-1.32241e-06
-8.04669e-10
-1.32246e-06
-5.58673e-10
-1.32101e-06
-2.92612e-10
-1.31946e-06
-8.79272e-13
-1.31837e-06
3.00621e-10
-1.31792e-06
6.37097e-10
-1.31803e-06
9.96862e-10
-1.31835e-06
1.37352e-09
-1.31811e-06
1.7384e-09
-1.31574e-06
2.04608e-09
-1.30815e-06
2.29795e-09
-1.28907e-06
2.27137e-09
-1.24564e-06
1.30598e-09
-1.15049e-06
-8.91407e-07
8.74147e-10
-8.98031e-07
1.61836e-10
-1.16529e-06
-4.04443e-10
-1.26061e-06
-6.00712e-10
-1.30177e-06
-5.97011e-10
-1.3178e-06
-5.53373e-10
-1.32253e-06
-4.36621e-10
-1.32263e-06
-2.84051e-10
-1.32124e-06
-7.13969e-11
-1.31972e-06
1.64672e-10
-1.31867e-06
4.48966e-10
-1.31825e-06
7.33372e-10
-1.31837e-06
1.05039e-09
-1.3187e-06
1.3347e-09
-1.31846e-06
1.61315e-09
-1.31609e-06
1.86646e-09
-1.30848e-06
2.06786e-09
-1.28938e-06
2.08984e-09
-1.24577e-06
1.2704e-09
-1.14978e-06
-8.90149e-07
7.11128e-10
-8.98871e-07
6.2668e-10
-1.16529e-06
5.2935e-10
-1.26061e-06
4.61356e-10
-1.30176e-06
3.62119e-10
-1.31777e-06
2.74236e-10
-1.3225e-06
2.35095e-10
-1.32264e-06
2.57842e-10
-1.3213e-06
3.48553e-10
-1.31985e-06
4.80176e-10
-1.31884e-06
6.55689e-10
-1.31844e-06
8.10524e-10
-1.31857e-06
9.74187e-10
-1.31888e-06
1.05432e-09
-1.31859e-06
1.1321e-09
-1.31619e-06
1.20284e-09
-1.3086e-06
1.37086e-09
-1.28958e-06
1.59772e-09
-1.24604e-06
1.54044e-09
-1.14977e-06
-8.88613e-07
1.42879e-10
-8.99128e-07
6.22835e-10
-1.16584e-06
8.49656e-10
-1.2609e-06
9.06913e-10
-1.30186e-06
8.79124e-10
-1.31778e-06
8.36212e-10
-1.32248e-06
7.94369e-10
-1.32263e-06
7.79141e-10
-1.32131e-06
8.01743e-10
-1.3199e-06
8.58551e-10
-1.31892e-06
9.34326e-10
-1.31854e-06
1.00024e-09
-1.31866e-06
1.04788e-09
-1.31894e-06
1.04042e-09
-1.31862e-06
1.01826e-09
-1.31618e-06
9.78142e-10
-1.3086e-06
1.03154e-09
-1.28965e-06
1.18429e-09
-1.24621e-06
1.47489e-09
-1.15009e-06
-8.87143e-07
-4.7696e-11
-8.99178e-07
3.67137e-10
-1.16631e-06
6.43656e-10
-1.26124e-06
8.46676e-10
-1.30209e-06
9.89848e-10
-1.31796e-06
1.07789e-09
-1.32259e-06
1.11086e-09
-1.32268e-06
1.1099e-09
-1.32133e-06
1.12095e-09
-1.31991e-06
1.11223e-09
-1.31894e-06
1.12078e-09
-1.31856e-06
1.0954e-09
-1.31867e-06
1.0544e-09
-1.31892e-06
9.79317e-10
-1.31857e-06
8.88855e-10
-1.31613e-06
8.19399e-10
-1.30857e-06
8.15695e-10
-1.28968e-06
9.12577e-10
-1.24634e-06
1.23259e-09
-1.15043e-06
-8.85913e-07
-1.4436e-10
-8.99109e-07
1.64797e-10
-1.16667e-06
4.03723e-10
-1.26153e-06
6.30918e-10
-1.30234e-06
8.23528e-10
-1.31818e-06
9.67388e-10
-1.32275e-06
1.06764e-09
-1.32278e-06
1.11478e-09
-1.3214e-06
1.15587e-09
-1.31995e-06
1.14472e-09
-1.31895e-06
1.13486e-09
-1.31855e-06
1.07276e-09
-1.31864e-06
9.96124e-10
-1.31887e-06
9.07168e-10
-1.31851e-06
8.14497e-10
-1.31608e-06
7.71935e-10
-1.30856e-06
7.87367e-10
-1.28974e-06
9.61277e-10
-1.24653e-06
1.36443e-09
-1.15085e-06
-8.84551e-07
1.88046e-10
-8.99347e-07
1.66205e-10
-1.16669e-06
6.94794e-11
-1.26148e-06
9.05047e-11
-1.30239e-06
2.10567e-10
-1.31832e-06
3.82093e-10
-1.32295e-06
5.79486e-10
-1.32299e-06
7.4777e-10
-1.32159e-06
8.95184e-10
-1.32011e-06
9.86421e-10
-1.31907e-06
1.05041e-09
-1.31863e-06
1.06558e-09
-1.31868e-06
1.05112e-09
-1.31889e-06
1.02811e-09
-1.31851e-06
9.90897e-10
-1.31607e-06
9.69341e-10
-1.30856e-06
9.66712e-10
-1.28975e-06
1.00999e-09
-1.24658e-06
9.61078e-10
-1.15081e-06
-8.836e-07
3.96669e-10
-8.99771e-07
-1.30296e-10
-1.16623e-06
-5.9385e-10
-1.26104e-06
-7.36766e-10
-1.30231e-06
-6.09477e-10
-1.31848e-06
-3.54839e-10
-1.32324e-06
-3.30884e-11
-1.32334e-06
2.77615e-10
-1.32194e-06
5.61226e-10
-1.32041e-06
7.89292e-10
-1.31933e-06
9.83383e-10
-1.31884e-06
1.12484e-09
-1.31886e-06
1.24265e-09
-1.31903e-06
1.33485e-09
-1.31864e-06
1.39702e-09
-1.31617e-06
1.39771e-09
-1.30859e-06
1.29244e-09
-1.28967e-06
1.06836e-09
-1.24639e-06
5.6865e-10
-1.15037e-06
-8.83054e-07
7.18319e-10
-9.00542e-07
-3.4216e-10
-1.16525e-06
-8.72906e-10
-1.26057e-06
-9.82769e-10
-1.30228e-06
-8.81356e-10
-1.31864e-06
-6.75041e-10
-1.32352e-06
-3.7019e-10
-1.3237e-06
-4.15952e-11
-1.32232e-06
2.89257e-10
-1.32079e-06
5.91732e-10
-1.31968e-06
8.66649e-10
-1.31916e-06
1.11071e-09
-1.31914e-06
1.33812e-09
-1.3193e-06
1.53657e-09
-1.31888e-06
1.6838e-09
-1.31637e-06
1.70521e-09
-1.30866e-06
1.49488e-09
-1.28952e-06
1.10316e-09
-1.2461e-06
3.91957e-10
-1.14977e-06
-8.82688e-07
7.78027e-10
-9.01352e-07
-1.11913e-10
-1.16443e-06
-5.77283e-10
-1.26014e-06
-7.55127e-10
-1.30217e-06
-7.87268e-10
-1.31864e-06
-7.26183e-10
-1.32364e-06
-5.27681e-10
-1.32393e-06
-2.86976e-10
-1.32261e-06
-1.53435e-12
-1.3211e-06
2.59618e-10
-1.31999e-06
5.24335e-10
-1.31945e-06
7.41989e-10
-1.31941e-06
9.61058e-10
-1.31955e-06
1.10748e-09
-1.31909e-06
1.20293e-09
-1.31649e-06
1.16425e-09
-1.30866e-06
9.60196e-10
-1.28939e-06
6.37995e-10
-1.24588e-06
1.70495e-11
-1.14927e-06
-8.8269e-07
5.04502e-10
-9.01893e-07
5.0915e-11
-1.16402e-06
-1.8969e-10
-1.25993e-06
-4.05942e-10
-1.302e-06
-5.83795e-10
-1.31849e-06
-6.83532e-10
-1.32358e-06
-6.57383e-10
-1.32398e-06
-5.60322e-10
-1.32274e-06
-4.0721e-10
-1.32128e-06
-2.53753e-10
-1.32018e-06
-9.45345e-11
-1.31963e-06
2.52455e-11
-1.31957e-06
1.34359e-10
-1.31967e-06
1.83246e-10
-1.31918e-06
2.0697e-10
-1.31654e-06
1.36778e-10
-1.30863e-06
-3.26938e-11
-1.28926e-06
-2.74995e-10
-1.24571e-06
-3.76355e-10
-1.14925e-06
-8.8307e-07
-1.69904e-10
-9.01792e-07
3.05948e-11
-1.16427e-06
1.85892e-11
-1.25997e-06
-2.39591e-10
-1.30179e-06
-5.53633e-10
-1.31821e-06
-8.00606e-10
-1.32338e-06
-9.26159e-10
-1.32388e-06
-9.69848e-10
-1.32273e-06
-9.44922e-10
-1.32132e-06
-9.04e-10
-1.32024e-06
-8.59813e-10
-1.31969e-06
-8.45489e-10
-1.31961e-06
-8.67265e-10
-1.31968e-06
-9.04342e-10
-1.31916e-06
-9.49939e-10
-1.31652e-06
-9.73439e-10
-1.30863e-06
-9.70757e-10
-1.28929e-06
-8.63801e-10
-1.24584e-06
-6.0051e-10
-1.14952e-06
-8.8366e-07
-4.87192e-10
-9.01404e-07
1.08733e-10
-1.16495e-06
-5.37626e-12
-1.25993e-06
-4.18515e-10
-1.30143e-06
-8.19964e-10
-1.31786e-06
-1.10281e-09
-1.32313e-06
-1.27826e-09
-1.32374e-06
-1.3713e-09
-1.32266e-06
-1.41157e-09
-1.3213e-06
-1.42847e-09
-1.32025e-06
-1.44441e-09
-1.31969e-06
-1.48472e-09
-1.31959e-06
-1.55909e-09
-1.31963e-06
-1.63173e-09
-1.3191e-06
-1.67411e-09
-1.31649e-06
-1.59977e-09
-1.3087e-06
-1.35799e-09
-1.28952e-06
-9.67718e-10
-1.24618e-06
-2.87375e-10
-1.15015e-06
-8.83947e-07
8.17208e-11
-9.01589e-07
5.95694e-10
-1.1655e-06
4.29372e-10
-1.25984e-06
3.17776e-11
-1.30105e-06
-4.00713e-10
-1.31749e-06
-7.27725e-10
-1.32282e-06
-1.01111e-09
-1.32349e-06
-1.18571e-09
-1.32249e-06
-1.31508e-09
-1.3212e-06
-1.3695e-09
-1.32019e-06
-1.4081e-09
-1.31968e-06
-1.40068e-09
-1.3196e-06
-1.40439e-09
-1.31966e-06
-1.36783e-09
-1.31914e-06
-1.32269e-09
-1.31657e-06
-1.20755e-09
-1.30884e-06
-1.05171e-09
-1.28967e-06
-1.01944e-09
-1.24622e-06
-3.60604e-10
-1.15083e-06
-8.84329e-07
-1.74729e-11
-9.01572e-07
9.19916e-10
-1.16641e-06
9.36249e-10
-1.25985e-06
6.54736e-10
-1.30075e-06
3.02988e-10
-1.31713e-06
-5.35366e-11
-1.32246e-06
-3.76382e-10
-1.32317e-06
-6.38042e-10
-1.32224e-06
-8.1842e-10
-1.32103e-06
-9.12964e-10
-1.32012e-06
-9.34163e-10
-1.31969e-06
-8.65647e-10
-1.31969e-06
-7.6087e-10
-1.31981e-06
-6.00303e-10
-1.31933e-06
-4.75752e-10
-1.31676e-06
-3.7566e-10
-1.309e-06
-3.79783e-10
-1.28975e-06
-5.73025e-10
-1.24613e-06
-6.80349e-10
-1.15083e-06
-8.85037e-07
-2.34651e-10
-9.01358e-07
6.11906e-10
-1.16729e-06
6.52064e-10
-1.25989e-06
3.84826e-10
-1.30051e-06
1.44402e-10
-1.31688e-06
-1.07635e-10
-1.32223e-06
-2.95464e-10
-1.32298e-06
-4.72688e-10
-1.3221e-06
-5.62508e-10
-1.32095e-06
-6.15809e-10
-1.3201e-06
-5.818e-10
-1.31974e-06
-5.01383e-10
-1.3198e-06
-3.63875e-10
-1.31997e-06
-2.1602e-10
-1.31952e-06
-1.05481e-10
-1.31692e-06
-5.33245e-11
-1.3091e-06
-9.26855e-11
-1.28981e-06
-1.84561e-10
-1.24615e-06
-5.07788e-10
-1.15064e-06
-8.85564e-07
7.13043e-10
-9.02239e-07
5.65453e-10
-1.16729e-06
1.40469e-10
-1.25959e-06
-2.53142e-10
-1.30021e-06
-4.49328e-10
-1.31676e-06
-5.26156e-10
-1.32223e-06
-5.49967e-10
-1.32301e-06
-5.48175e-10
-1.32216e-06
-5.23032e-10
-1.32102e-06
-4.7745e-10
-1.32019e-06
-4.07433e-10
-1.31984e-06
-3.17067e-10
-1.31993e-06
-2.043e-10
-1.32011e-06
-1.03701e-10
-1.31965e-06
-2.94975e-11
-1.31702e-06
-2.68311e-11
-1.30914e-06
-1.05453e-10
-1.28978e-06
-1.83177e-10
-1.24614e-06
-2.43097e-10
-1.15066e-06
-8.8582e-07
1.55937e-09
-9.03988e-07
8.70258e-10
-1.16675e-06
1.93399e-10
-1.25906e-06
-2.19066e-10
-1.2999e-06
-4.22812e-10
-1.31667e-06
-4.57262e-10
-1.32226e-06
-4.50773e-10
-1.3231e-06
-3.90954e-10
-1.32226e-06
-3.40916e-10
-1.32113e-06
-2.61652e-10
-1.3203e-06
-1.91946e-10
-1.31996e-06
-1.04887e-10
-1.32005e-06
-3.14814e-11
-1.32023e-06
3.46407e-11
-1.31975e-06
7.06738e-11
-1.31709e-06
3.43719e-11
-1.30914e-06
-1.2023e-10
-1.28965e-06
-3.8044e-10
-1.24594e-06
-6.99288e-10
-1.1504e-06
-8.86529e-07
1.60545e-09
-9.05719e-07
1.02104e-09
-1.16628e-06
4.4961e-10
-1.25858e-06
1.0155e-10
-1.29963e-06
-5.47249e-11
-1.31659e-06
-8.36023e-11
-1.32228e-06
-8.60866e-11
-1.32316e-06
-5.2193e-11
-1.32233e-06
-2.98126e-11
-1.3212e-06
1.94163e-11
-1.32038e-06
5.77932e-11
-1.32005e-06
1.06399e-10
-1.32013e-06
1.21851e-10
-1.32029e-06
1.2358e-10
-1.3198e-06
7.02134e-11
-1.31709e-06
-4.17798e-11
-1.30908e-06
-2.45622e-10
-1.2895e-06
-5.78781e-10
-1.24565e-06
-1.08199e-09
-1.14994e-06
-8.87611e-07
1.583e-09
-9.07364e-07
8.95351e-10
-1.16566e-06
4.80953e-10
-1.25821e-06
3.04793e-10
-1.29949e-06
2.48744e-10
-1.31657e-06
2.43148e-10
-1.3223e-06
2.44912e-10
-1.32318e-06
2.5622e-10
-1.32236e-06
2.60875e-10
-1.32123e-06
2.71555e-10
-1.32041e-06
2.67331e-10
-1.32007e-06
2.50325e-10
-1.32014e-06
1.88936e-10
-1.32028e-06
1.04035e-10
-1.31974e-06
-4.79032e-11
-1.31699e-06
-2.3955e-10
-1.30892e-06
-4.5584e-10
-1.28932e-06
-6.17773e-10
-1.24549e-06
-9.06635e-10
-1.14964e-06
-8.88514e-07
1.02478e-09
-9.08373e-07
3.67182e-10
-1.16503e-06
1.4101e-10
-1.25795e-06
7.69353e-11
-1.29943e-06
8.56412e-11
-1.31655e-06
1.02606e-10
-1.32231e-06
1.53778e-10
-1.32322e-06
2.05693e-10
-1.32241e-06
2.6475e-10
-1.32128e-06
3.07249e-10
-1.32045e-06
3.23903e-10
-1.32009e-06
3.03971e-10
-1.32012e-06
2.33232e-10
-1.32022e-06
1.26095e-10
-1.31964e-06
-3.85891e-11
-1.31684e-06
-2.4303e-10
-1.30871e-06
-4.64348e-10
-1.28908e-06
-6.10152e-10
-1.24531e-06
-6.50077e-10
-1.1496e-06
-8.89183e-07
2.96442e-10
-9.08669e-07
-3.52872e-10
-1.16447e-06
-7.06886e-10
-1.25759e-06
-9.29472e-10
-1.29926e-06
-9.05732e-10
-1.31657e-06
-7.90483e-10
-1.32246e-06
-5.92975e-10
-1.32342e-06
-3.96444e-10
-1.32262e-06
-2.08046e-10
-1.32149e-06
-4.11699e-11
-1.32063e-06
8.22922e-11
-1.32023e-06
1.85434e-10
-1.32023e-06
2.4685e-10
-1.3203e-06
2.74252e-10
-1.31969e-06
2.643e-10
-1.31685e-06
1.73759e-10
-1.30868e-06
2.58171e-11
-1.28897e-06
-2.77233e-10
-1.24511e-06
-5.03301e-10
-1.1495e-06
-8.89729e-07
-7.34357e-12
-9.08766e-07
-9.22387e-10
-1.16371e-06
-1.3764e-09
-1.25722e-06
-1.65738e-09
-1.2991e-06
-1.68529e-09
-1.31661e-06
-1.58653e-09
-1.32265e-06
-1.37016e-09
-1.32369e-06
-1.15119e-09
-1.32291e-06
-9.13766e-10
-1.32177e-06
-7.2631e-10
-1.32089e-06
-5.47187e-10
-1.32046e-06
-4.15469e-10
-1.32044e-06
-2.863e-10
-1.32049e-06
-1.94746e-10
-1.31986e-06
-1.28352e-10
-1.31702e-06
-5.57256e-11
-1.30886e-06
1.75668e-11
-1.28921e-06
-5.6571e-11
-1.24523e-06
-5.83877e-10
-1.14917e-06
-8.90342e-07
-7.4965e-10
-9.08122e-07
-1.4241e-09
-1.16318e-06
-1.73906e-09
-1.257e-06
-1.95339e-09
-1.29901e-06
-1.9854e-09
-1.31666e-06
-1.9454e-09
-1.32279e-06
-1.81091e-09
-1.32388e-06
-1.68593e-09
-1.32312e-06
-1.52962e-09
-1.32197e-06
-1.42705e-09
-1.32107e-06
-1.32029e-09
-1.32061e-06
-1.27322e-09
-1.32056e-06
-1.23097e-09
-1.32058e-06
-1.21557e-09
-1.31995e-06
-1.18025e-09
-1.31713e-06
-1.01847e-09
-1.30909e-06
-6.61869e-10
-1.28969e-06
-1.13929e-10
-1.24589e-06
1.19636e-10
-1.14951e-06
-8.90221e-07
-1.18723e-09
-9.07024e-07
-1.51922e-09
-1.16295e-06
-1.60739e-09
-1.25699e-06
-1.67032e-09
-1.29904e-06
-1.71509e-09
-1.31668e-06
-1.75702e-09
-1.32281e-06
-1.77321e-09
-1.32392e-06
-1.76139e-09
-1.32317e-06
-1.73236e-09
-1.32204e-06
-1.68534e-09
-1.32114e-06
-1.64825e-09
-1.32068e-06
-1.6149e-09
-1.32061e-06
-1.60545e-09
-1.32062e-06
-1.58957e-09
-1.31998e-06
-1.52951e-09
-1.31722e-06
-1.325e-09
-1.30932e-06
-8.63446e-10
-1.29014e-06
-8.46043e-11
-1.24665e-06
8.71976e-10
-1.15045e-06
-8.89346e-07
-1.50494e-09
-9.05589e-07
-1.38207e-09
-1.16312e-06
-1.22517e-09
-1.25721e-06
-1.12547e-09
-1.29918e-06
-1.16766e-09
-1.31668e-06
-1.27671e-09
-1.32273e-06
-1.39398e-09
-1.32383e-06
-1.4569e-09
-1.32312e-06
-1.4859e-09
-1.32204e-06
-1.44359e-09
-1.32118e-06
-1.37868e-09
-1.32077e-06
-1.25569e-09
-1.32074e-06
-1.12198e-09
-1.32078e-06
-9.44991e-10
-1.32018e-06
-7.26399e-10
-1.31746e-06
-4.39919e-10
-1.30965e-06
-3.90332e-11
-1.29054e-06
5.18957e-10
-1.2472e-06
1.16524e-09
-1.1511e-06
-8.88198e-07
-1.60189e-09
-9.04016e-07
-1.33834e-09
-1.16342e-06
-1.15049e-09
-1.25741e-06
-1.05377e-09
-1.29932e-06
-1.0526e-09
-1.3167e-06
-1.13353e-09
-1.32268e-06
-1.19186e-09
-1.3238e-06
-1.22409e-09
-1.32312e-06
-1.19447e-09
-1.3221e-06
-1.09561e-09
-1.32131e-06
-9.36163e-10
-1.32097e-06
-6.95771e-10
-1.32101e-06
-4.04951e-10
-1.32111e-06
-7.30821e-11
-1.32055e-06
2.51225e-10
-1.31785e-06
5.08084e-10
-1.30999e-06
6.56454e-10
-1.29077e-06
7.25962e-10
-1.24735e-06
6.38348e-10
-1.15111e-06
-8.87589e-07
-1.36371e-09
-9.0273e-07
-1.35402e-09
-1.1635e-06
-1.13389e-09
-1.25769e-06
-1.06081e-09
-1.29946e-06
-1.08921e-09
-1.31671e-06
-1.16299e-09
-1.32268e-06
-1.17181e-09
-1.32383e-06
-1.14354e-09
-1.32322e-06
-1.03077e-09
-1.32225e-06
-8.74962e-10
-1.32152e-06
-6.48292e-10
-1.32123e-06
-3.78236e-10
-1.32133e-06
-5.55121e-11
-1.32147e-06
2.52774e-10
-1.32092e-06
5.03681e-10
-1.31818e-06
6.27119e-10
-1.3102e-06
5.7248e-10
-1.29084e-06
3.83301e-10
-1.24729e-06
3.49477e-11
-1.1509e-06
-8.87577e-07
-9.54972e-10
-9.01908e-07
-9.45389e-10
-1.16361e-06
-8.69388e-10
-1.25788e-06
-9.0289e-10
-1.29952e-06
-9.91978e-10
-1.31671e-06
-1.04121e-09
-1.32271e-06
-1.03436e-09
-1.3239e-06
-9.66323e-10
-1.32335e-06
-8.43684e-10
-1.32243e-06
-6.79682e-10
-1.32174e-06
-4.78007e-10
-1.32148e-06
-2.58106e-10
-1.3216e-06
-1.21263e-11
-1.32175e-06
1.77783e-10
-1.32118e-06
3.21938e-10
-1.31837e-06
3.09468e-10
-1.31028e-06
1.64794e-10
-1.29078e-06
-6.24478e-12
-1.24722e-06
1.87165e-11
-1.15102e-06
-8.87562e-07
-3.74353e-10
-9.01641e-07
-2.44385e-10
-1.16379e-06
-1.81194e-10
-1.25803e-06
-1.77371e-10
-1.29957e-06
-2.71493e-10
-1.3167e-06
-3.47641e-10
-1.32268e-06
-4.23654e-10
-1.32389e-06
-4.38257e-10
-1.32337e-06
-4.23613e-10
-1.32249e-06
-3.60839e-10
-1.32184e-06
-2.8442e-10
-1.3216e-06
-2.00184e-10
-1.32172e-06
-1.31365e-10
-1.32186e-06
-1.12212e-10
-1.32125e-06
-1.58573e-10
-1.31838e-06
-3.17087e-10
-1.31019e-06
-5.9789e-10
-1.29055e-06
-9.29256e-10
-1.24691e-06
-7.03928e-10
-1.15125e-06
-8.88254e-07
-3.37665e-10
-9.01319e-07
2.19168e-10
-1.16432e-06
5.75626e-10
-1.25841e-06
7.36274e-10
-1.29971e-06
6.96315e-10
-1.31668e-06
5.77399e-10
-1.32255e-06
3.99976e-10
-1.32373e-06
2.6024e-10
-1.32323e-06
1.33813e-10
-1.32238e-06
5.32861e-11
-1.32176e-06
-2.27754e-11
-1.32155e-06
-9.07878e-11
-1.32167e-06
-1.97901e-10
-1.32178e-06
-3.29478e-10
-1.32114e-06
-5.04372e-10
-1.31824e-06
-7.16574e-10
-1.31001e-06
-9.82093e-10
-1.29028e-06
-1.313e-09
-1.24653e-06
-9.64947e-10
-1.15154e-06
-8.89208e-07
-8.17439e-11
-9.01306e-07
7.40302e-10
-1.16517e-06
1.00811e-09
-1.25874e-06
1.07102e-09
-1.29979e-06
1.01975e-09
-1.31667e-06
9.3092e-10
-1.32247e-06
7.93475e-10
-1.32363e-06
6.81795e-10
-1.32313e-06
5.55125e-10
-1.32229e-06
4.65542e-10
-1.32168e-06
3.63464e-10
-1.32148e-06
2.70633e-10
-1.32159e-06
1.48181e-10
-1.3217e-06
2.78574e-11
-1.32106e-06
-1.019e-10
-1.31816e-06
-2.43598e-10
-1.30993e-06
-4.22725e-10
-1.29011e-06
-5.9352e-10
-1.24632e-06
-2.97443e-10
-1.1518e-06
-8.89512e-07
3.46622e-10
-9.01854e-07
9.79163e-10
-1.16596e-06
1.01101e-09
-1.25893e-06
9.66032e-10
-1.29986e-06
9.40096e-10
-1.31677e-06
9.62804e-10
-1.32257e-06
9.56812e-10
-1.32372e-06
9.58955e-10
-1.32318e-06
9.25781e-10
-1.32233e-06
9.12256e-10
-1.32171e-06
8.77949e-10
-1.32151e-06
8.62776e-10
-1.32162e-06
8.14257e-10
-1.32172e-06
7.58195e-10
-1.32105e-06
6.56142e-10
-1.31813e-06
5.08039e-10
-1.30985e-06
2.76118e-10
-1.28993e-06
-4.64517e-11
-1.24604e-06
-2.99893e-10
-1.1516e-06
-8.89838e-07
8.71362e-10
-9.0288e-07
1.27127e-09
-1.16646e-06
1.31585e-09
-1.2591e-06
1.32918e-09
-1.29994e-06
1.33034e-09
-1.31687e-06
1.38806e-09
-1.32268e-06
1.38867e-09
-1.32379e-06
1.38535e-09
-1.32322e-06
1.34564e-09
-1.32235e-06
1.3272e-09
-1.32173e-06
1.3007e-09
-1.32153e-06
1.28687e-09
-1.32164e-06
1.26571e-09
-1.32174e-06
1.21968e-09
-1.32106e-06
1.11732e-09
-1.31809e-06
9.32582e-10
-1.30975e-06
6.37483e-10
-1.28973e-06
8.35028e-11
-1.24561e-06
-5.6066e-10
-1.15108e-06
-8.90422e-07
1.22122e-09
-9.04066e-07
1.62718e-09
-1.16682e-06
1.59191e-09
-1.25904e-06
1.58241e-09
-1.29991e-06
1.59517e-09
-1.31687e-06
1.60376e-09
-1.32269e-06
1.58563e-09
-1.32377e-06
1.52571e-09
-1.32318e-06
1.46447e-09
-1.32229e-06
1.3665e-09
-1.32167e-06
1.27944e-09
-1.32145e-06
1.14601e-09
-1.32155e-06
1.01783e-09
-1.32163e-06
8.2078e-10
-1.32092e-06
6.15378e-10
-1.31793e-06
3.7984e-10
-1.30958e-06
1.68945e-10
-1.28962e-06
-1.12156e-10
-1.24543e-06
-6.91032e-10
-1.15059e-06
-8.91111e-07
1.26694e-09
-9.05301e-07
1.20334e-09
-1.16678e-06
8.33918e-10
-1.25865e-06
7.19017e-10
-1.29981e-06
8.13358e-10
-1.31694e-06
9.18903e-10
-1.32281e-06
1.03321e-09
-1.32387e-06
1.07495e-09
-1.32324e-06
1.0885e-09
-1.3223e-06
1.01055e-09
-1.32162e-06
9.03202e-10
-1.32134e-06
6.91112e-10
-1.32139e-06
4.55635e-10
-1.32141e-06
1.5923e-10
-1.32067e-06
-1.13798e-10
-1.31769e-06
-2.80405e-10
-1.30944e-06
-2.50256e-10
-1.28967e-06
-1.03647e-10
-1.24556e-06
-1.49832e-10
-1.15052e-06
-8.91242e-07
1.64293e-09
-9.07062e-07
6.91015e-10
-1.16595e-06
9.39689e-11
-1.25816e-06
2.35436e-12
-1.29981e-06
1.52361e-10
-1.31718e-06
3.79731e-10
-1.32309e-06
5.65067e-10
-1.32411e-06
7.03307e-10
-1.32341e-06
7.59955e-10
-1.32239e-06
7.49984e-10
-1.32163e-06
6.60851e-10
-1.32128e-06
5.11629e-10
-1.32125e-06
3.00453e-10
-1.32122e-06
6.71039e-11
-1.32045e-06
-1.43054e-10
-1.31748e-06
-2.59105e-10
-1.30933e-06
-1.15487e-10
-1.28975e-06
2.21262e-10
-1.2458e-06
5.3026e-10
-1.15073e-06
-8.907e-07
1.50753e-09
-9.08678e-07
6.00549e-10
-1.16512e-06
1.00368e-10
-1.25776e-06
4.65556e-11
-1.29981e-06
1.68754e-10
-1.31739e-06
3.78562e-10
-1.32333e-06
5.36675e-10
-1.32433e-06
6.71932e-10
-1.32356e-06
7.30825e-10
-1.32248e-06
7.50276e-10
-1.32166e-06
7.26813e-10
-1.32126e-06
6.55173e-10
-1.3212e-06
5.71147e-10
-1.32114e-06
4.44089e-10
-1.32035e-06
2.98819e-10
-1.31736e-06
1.65232e-10
-1.30922e-06
1.86907e-10
-1.28975e-06
4.3974e-10
-1.24601e-06
6.03612e-10
-1.15086e-06
-8.90098e-07
9.6829e-10
-9.09649e-07
3.82014e-10
-1.16456e-06
-2.53167e-11
-1.25737e-06
-1.24821e-10
-1.29975e-06
6.99086e-12
-1.31754e-06
1.86358e-10
-1.32355e-06
3.68224e-10
-1.32453e-06
5.04674e-10
-1.32372e-06
6.03855e-10
-1.32259e-06
6.50961e-10
-1.32173e-06
6.77534e-10
-1.3213e-06
6.77337e-10
-1.32122e-06
6.83298e-10
-1.32115e-06
6.5402e-10
-1.32035e-06
6.07055e-10
-1.31733e-06
4.90891e-10
-1.30913e-06
3.77506e-10
-1.28967e-06
4.56746e-10
-1.24611e-06
3.97774e-10
-1.1508e-06
-8.89695e-07
2.8896e-10
-9.09875e-07
-2.43185e-10
-1.16398e-06
-4.13819e-10
-1.25715e-06
-3.93468e-10
-1.29976e-06
-2.3245e-10
-1.31766e-06
-7.7849e-11