/*--------------------------------*- C++ -*----------------------------------*\
  =========                 |
  \\      /  F ield         | OpenFOAM: The Open Source CFD Toolbox
   \\    /   O peration     | Website:  https://openfoam.org
    \\  /    A nd           | Version:  6
     \\/     M anipulation  |
\*---------------------------------------------------------------------------*/
FoamFile
{
    version     2.0;
    format      ascii;
    class       volVectorField;
    location    "8";
    object      U;
}
// * * * * * * * * * * * * * * * * * * * * * * * * * * * * * * * * * * * * * //

dimensions      [0 1 -1 0 0 0 0];

internalField   nonuniform List<vector> 
130000
(
(-0.00862724 -0.339164 0)
(-0.00908298 -0.383645 0)
(-0.00950779 -0.426625 0)
(-0.00989048 -0.467123 0)
(-0.0102241 -0.504514 0)
(-0.0105202 -0.538326 0)
(-0.010788 -0.568236 0)
(-0.0110364 -0.594088 0)
(-0.0112721 -0.615876 0)
(-0.0114993 -0.633729 0)
(-0.0117195 -0.647878 0)
(-0.0119326 -0.658622 0)
(-0.0121366 -0.666302 0)
(-0.0123293 -0.671278 0)
(-0.0125081 -0.673911 0)
(-0.0126709 -0.674561 0)
(-0.0128163 -0.673573 0)
(-0.0129439 -0.671281 0)
(-0.0130553 -0.668002 0)
(-0.0131529 -0.664046 0)
(-0.0107097 -0.338185 0)
(-0.0108752 -0.382778 0)
(-0.0111777 -0.42589 0)
(-0.0114732 -0.466522 0)
(-0.0117413 -0.504032 0)
(-0.0119833 -0.537939 0)
(-0.0122061 -0.567915 0)
(-0.0124163 -0.59381 0)
(-0.0126198 -0.61562 0)
(-0.0128198 -0.633487 0)
(-0.0130177 -0.647642 0)
(-0.0132125 -0.658395 0)
(-0.0134023 -0.666086 0)
(-0.0135841 -0.67108 0)
(-0.0137555 -0.673735 0)
(-0.0139139 -0.674413 0)
(-0.0140578 -0.673454 0)
(-0.0141861 -0.671193 0)
(-0.0143009 -0.667943 0)
(-0.0144042 -0.664017 0)
(-0.0138337 -0.337667 0)
(-0.0137781 -0.382213 0)
(-0.0139264 -0.425295 0)
(-0.0140972 -0.465929 0)
(-0.0142678 -0.503451 0)
(-0.0144326 -0.537374 0)
(-0.0145934 -0.567363 0)
(-0.0147526 -0.593266 0)
(-0.0149126 -0.615083 0)
(-0.0150748 -0.632955 0)
(-0.0152391 -0.647119 0)
(-0.0154044 -0.657885 0)
(-0.0155685 -0.665594 0)
(-0.0157292 -0.670611 0)
(-0.0158836 -0.673294 0)
(-0.0160295 -0.674004 0)
(-0.0161647 -0.673079 0)
(-0.0162873 -0.670855 0)
(-0.0163991 -0.667642 0)
(-0.0165018 -0.663752 0)
(-0.0175353 -0.337623 0)
(-0.0173326 -0.382122 0)
(-0.0173657 -0.425155 0)
(-0.0174244 -0.465754 0)
(-0.0174938 -0.503252 0)
(-0.0175697 -0.537154 0)
(-0.0176536 -0.567124 0)
(-0.0177467 -0.593007 0)
(-0.0178495 -0.614804 0)
(-0.0179619 -0.632658 0)
(-0.0180829 -0.646808 0)
(-0.0182108 -0.657564 0)
(-0.0183431 -0.665269 0)
(-0.0184769 -0.670288 0)
(-0.0186096 -0.67298 0)
(-0.0187386 -0.673703 0)
(-0.0188614 -0.672796 0)
(-0.0189757 -0.670592 0)
(-0.0190838 -0.667402 0)
(-0.0191884 -0.663536 0)
(-0.0217179 -0.337813 0)
(-0.0213556 -0.382278 0)
(-0.021276 -0.425268 0)
(-0.0212275 -0.465827 0)
(-0.0211973 -0.503288 0)
(-0.0211818 -0.537154 0)
(-0.0211833 -0.567089 0)
(-0.0212025 -0.592938 0)
(-0.0212394 -0.614704 0)
(-0.0212932 -0.63253 0)
(-0.0213623 -0.646655 0)
(-0.0214445 -0.657391 0)
(-0.0215369 -0.665083 0)
(-0.0216369 -0.670095 0)
(-0.0217412 -0.672785 0)
(-0.021847 -0.673511 0)
(-0.0219517 -0.672612 0)
(-0.0220524 -0.670421 0)
(-0.0221515 -0.667246 0)
(-0.0222522 -0.663399 0)
(-0.0260446 -0.338159 0)
(-0.0255909 -0.382607 0)
(-0.0254327 -0.425555 0)
(-0.0252992 -0.466069 0)
(-0.0251837 -0.503483 0)
(-0.0250848 -0.5373 0)
(-0.0250072 -0.567186 0)
(-0.0249528 -0.592986 0)
(-0.0249219 -0.614706 0)
(-0.024914 -0.632489 0)
(-0.0249272 -0.646576 0)
(-0.0249595 -0.657281 0)
(-0.0250079 -0.664948 0)
(-0.025069 -0.669941 0)
(-0.0251397 -0.672619 0)
(-0.0252168 -0.673339 0)
(-0.0252973 -0.672439 0)
(-0.0253777 -0.670252 0)
(-0.0254608 -0.667085 0)
(-0.0255495 -0.66325 0)
(-0.0304341 -0.338647 0)
(-0.0299373 -0.383101 0)
(-0.0297147 -0.426015 0)
(-0.0295107 -0.466484 0)
(-0.029321 -0.503846 0)
(-0.029148 -0.537606 0)
(-0.0289981 -0.567432 0)
(-0.028875 -0.593172 0)
(-0.0287793 -0.614833 0)
(-0.0287111 -0.632561 0)
(-0.0286687 -0.6466 0)
(-0.02865 -0.657262 0)
(-0.0286518 -0.664893 0)
(-0.0286714 -0.669857 0)
(-0.0287047 -0.672514 0)
(-0.0287487 -0.673219 0)
(-0.0288001 -0.672311 0)
(-0.0288547 -0.67012 0)
(-0.0289154 -0.666955 0)
(-0.0289857 -0.663128 0)
(-0.0348445 -0.339248 0)
(-0.0343125 -0.383716 0)
(-0.0340368 -0.426609 0)
(-0.0337747 -0.46704 0)
(-0.0335229 -0.504353 0)
(-0.0332862 -0.538054 0)
(-0.0330733 -0.567816 0)
(-0.0328888 -0.59349 0)
(-0.0327342 -0.615085 0)
(-0.0326102 -0.632751 0)
(-0.0325152 -0.646732 0)
(-0.0324475 -0.657343 0)
(-0.032404 -0.66493 0)
(-0.0323815 -0.669858 0)
(-0.0323765 -0.672485 0)
(-0.0323855 -0.673167 0)
(-0.032405 -0.672244 0)
(-0.0324308 -0.670044 0)
(-0.0324662 -0.666875 0)
(-0.0325146 -0.66305 0)
(-0.0392199 -0.33984 0)
(-0.0386797 -0.384367 0)
(-0.0383674 -0.427272 0)
(-0.0380583 -0.467687 0)
(-0.0377541 -0.504964 0)
(-0.0374619 -0.538614 0)
(-0.0371931 -0.568315 0)
(-0.0369535 -0.593922 0)
(-0.0367453 -0.615449 0)
(-0.0365694 -0.633048 0)
(-0.0364248 -0.646966 0)
(-0.0363099 -0.65752 0)
(-0.0362215 -0.665058 0)
(-0.0361571 -0.669943 0)
(-0.0361127 -0.672535 0)
(-0.036085 -0.673189 0)
(-0.0360708 -0.672244 0)
(-0.0360651 -0.670029 0)
(-0.0360716 -0.666851 0)
(-0.0360943 -0.663023 0)
(-0.0436589 -0.340487 0)
(-0.0430863 -0.385087 0)
(-0.0427223 -0.428018 0)
(-0.0423626 -0.468429 0)
(-0.042006 -0.505676 0)
(-0.0416607 -0.539278 0)
(-0.0413395 -0.568919 0)
(-0.0410483 -0.594458 0)
(-0.04079 -0.615915 0)
(-0.0405654 -0.633444 0)
(-0.0403738 -0.647297 0)
(-0.0402136 -0.657789 0)
(-0.0400823 -0.665273 0)
(-0.0399765 -0.67011 0)
(-0.0398932 -0.672661 0)
(-0.0398287 -0.673282 0)
(-0.0397796 -0.672311 0)
(-0.0397414 -0.670075 0)
(-0.0397179 -0.666884 0)
(-0.0397131 -0.663049 0)
(-0.0480165 -0.341181 0)
(-0.0474388 -0.385867 0)
(-0.0470478 -0.428839 0)
(-0.0466511 -0.469254 0)
(-0.0462526 -0.506478 0)
(-0.0458622 -0.540036 0)
(-0.0454949 -0.569618 0)
(-0.0451573 -0.595089 0)
(-0.0448528 -0.616475 0)
(-0.0445826 -0.633933 0)
(-0.0443464 -0.647717 0)
(-0.0441425 -0.658145 0)
(-0.0439686 -0.66557 0)
(-0.043822 -0.670356 0)
(-0.0436994 -0.672864 0)
(-0.0435972 -0.673447 0)
(-0.0435125 -0.672445 0)
(-0.0434403 -0.670185 0)
(-0.0433845 -0.666976 0)
(-0.0433493 -0.66313 0)
(-0.0524412 -0.34192 0)
(-0.0518301 -0.386699 0)
(-0.0513909 -0.429723 0)
(-0.0509495 -0.470151 0)
(-0.0505057 -0.507358 0)
(-0.0500702 -0.540875 0)
(-0.0496581 -0.570401 0)
(-0.0492759 -0.595806 0)
(-0.0489274 -0.617121 0)
(-0.0486135 -0.634507 0)
(-0.0483343 -0.648221 0)
(-0.0480882 -0.658583 0)
(-0.0478733 -0.665948 0)
(-0.0476864 -0.67068 0)
(-0.0475249 -0.67314 0)
(-0.0473853 -0.673683 0)
(-0.0472645 -0.672647 0)
(-0.0471578 -0.670359 0)
(-0.0470694 -0.667127 0)
(-0.0470031 -0.663267 0)
(-0.0567684 -0.342688 0)
(-0.0561604 -0.387569 0)
(-0.0556996 -0.430655 0)
(-0.0552281 -0.471105 0)
(-0.0547495 -0.508301 0)
(-0.0542754 -0.541784 0)
(-0.0538233 -0.571258 0)
(-0.0533997 -0.5966 0)
(-0.0530093 -0.617846 0)
(-0.0526531 -0.63516 0)
(-0.0523318 -0.648804 0)
(-0.0520438 -0.6591 0)
(-0.0517875 -0.666404 0)
(-0.0515602 -0.671079 0)
(-0.0513594 -0.67349 0)
(-0.0511815 -0.673988 0)
(-0.0510239 -0.672916 0)
(-0.0508815 -0.670597 0)
(-0.0507586 -0.667339 0)
(-0.0506589 -0.663462 0)
(-0.0611116 -0.343456 0)
(-0.0605048 -0.388463 0)
(-0.0600181 -0.431628 0)
(-0.0595151 -0.472112 0)
(-0.0590009 -0.509307 0)
(-0.0584881 -0.542761 0)
(-0.0579958 -0.572188 0)
(-0.0575308 -0.59747 0)
(-0.0570984 -0.618649 0)
(-0.0566999 -0.635892 0)
(-0.0563364 -0.649466 0)
(-0.0560065 -0.659695 0)
(-0.0557093 -0.666935 0)
(-0.0554416 -0.671553 0)
(-0.0552014 -0.673912 0)
(-0.0549851 -0.674364 0)
(-0.0547902 -0.673252 0)
(-0.0546119 -0.670898 0)
(-0.0544543 -0.667613 0)
(-0.0543207 -0.663715 0)
(-0.0654353 -0.344301 0)
(-0.0648339 -0.389426 0)
(-0.0643264 -0.432668 0)
(-0.063796 -0.473188 0)
(-0.0632492 -0.510384 0)
(-0.0627002 -0.543813 0)
(-0.0621691 -0.573194 0)
(-0.0616637 -0.598418 0)
(-0.0611898 -0.619529 0)
(-0.0607491 -0.636702 0)
(-0.0603433 -0.650206 0)
(-0.0599713 -0.660366 0)
(-0.059632 -0.667543 0)
(-0.0593233 -0.672101 0)
(-0.0590428 -0.674406 0)
(-0.0587871 -0.674811 0)
(-0.058554 -0.673656 0)
(-0.0583384 -0.671267 0)
(-0.0581442 -0.66795 0)
(-0.0579743 -0.664028 0)
(-0.0697607 -0.345185 0)
(-0.069162 -0.390433 0)
(-0.0686334 -0.433758 0)
(-0.0680754 -0.47432 0)
(-0.0674958 -0.511525 0)
(-0.0669109 -0.544933 0)
(-0.0663413 -0.574274 0)
(-0.0657958 -0.599441 0)
(-0.0652806 -0.620488 0)
(-0.0647978 -0.637592 0)
(-0.0643497 -0.651025 0)
(-0.0639354 -0.661117 0)
(-0.0635546 -0.668228 0)
(-0.0632044 -0.672726 0)
(-0.0628835 -0.674976 0)
(-0.0625882 -0.675331 0)
(-0.0623163 -0.674132 0)
(-0.0620631 -0.671704 0)
(-0.0618321 -0.668354 0)
(-0.0616255 -0.664407 0)
(-0.0741021 -0.346121 0)
(-0.0734984 -0.391487 0)
(-0.0729414 -0.434897 0)
(-0.0723536 -0.475508 0)
(-0.0717399 -0.512727 0)
(-0.0711187 -0.546121 0)
(-0.0705106 -0.575426 0)
(-0.0699251 -0.600541 0)
(-0.0693685 -0.621526 0)
(-0.0688436 -0.638561 0)
(-0.0683528 -0.651925 0)
(-0.0678956 -0.661948 0)
(-0.0674718 -0.668993 0)
(-0.0670796 -0.67343 0)
(-0.066717 -0.675623 0)
(-0.0663809 -0.675927 0)
(-0.0660691 -0.674682 0)
(-0.0657768 -0.672213 0)
(-0.0655069 -0.668829 0)
(-0.0652611 -0.664854 0)
(-0.0784181 -0.347064 0)
(-0.0778129 -0.392561 0)
(-0.077238 -0.436073 0)
(-0.0766242 -0.476744 0)
(-0.0759792 -0.513987 0)
(-0.0753223 -0.547376 0)
(-0.0746762 -0.57665 0)
(-0.0740506 -0.601718 0)
(-0.0734526 -0.622643 0)
(-0.0728852 -0.639612 0)
(-0.0723513 -0.652907 0)
(-0.071851 -0.662861 0)
(-0.0713844 -0.669841 0)
(-0.0709492 -0.674215 0)
(-0.0705445 -0.676351 0)
(-0.070167 -0.676602 0)
(-0.0698144 -0.675311 0)
(-0.0694823 -0.6728 0)
(-0.0691731 -0.66938 0)
(-0.0688877 -0.665376 0)
(-0.0827951 -0.348046 0)
(-0.0821632 -0.393685 0)
(-0.0815544 -0.437306 0)
(-0.0809057 -0.478044 0)
(-0.0802234 -0.515317 0)
(-0.0795274 -0.548703 0)
(-0.0788408 -0.577952 0)
(-0.0781736 -0.602974 0)
(-0.0775328 -0.623842 0)
(-0.0769219 -0.640747 0)
(-0.076344 -0.653974 0)
(-0.0757994 -0.66386 0)
(-0.0752882 -0.670774 0)
(-0.0748092 -0.675085 0)
(-0.0743609 -0.677163 0)
(-0.0739405 -0.677361 0)
(-0.0735457 -0.676021 0)
(-0.0731722 -0.673467 0)
(-0.0728216 -0.670009 0)
(-0.0724939 -0.665974 0)
(-0.0871711 -0.349121 0)
(-0.086507 -0.394898 0)
(-0.0858664 -0.43862 0)
(-0.0851825 -0.479423 0)
(-0.0844626 -0.516725 0)
(-0.0837275 -0.550111 0)
(-0.083 -0.579335 0)
(-0.0822908 -0.604315 0)
(-0.0816068 -0.625127 0)
(-0.080952 -0.641969 0)
(-0.0803293 -0.655129 0)
(-0.0797398 -0.664948 0)
(-0.0791839 -0.671795 0)
(-0.0786601 -0.676044 0)
(-0.0781676 -0.678062 0)
(-0.0777036 -0.678205 0)
(-0.0772657 -0.676816 0)
(-0.07685 -0.674218 0)
(-0.0764575 -0.670721 0)
(-0.0760874 -0.666654 0)
(-0.0915679 -0.350271 0)
(-0.0908603 -0.396183 0)
(-0.0901795 -0.440005 0)
(-0.0894577 -0.480873 0)
(-0.0886985 -0.518207 0)
(-0.0879233 -0.551597 0)
(-0.0871542 -0.580799 0)
(-0.0864024 -0.605739 0)
(-0.0856744 -0.626498 0)
(-0.0849747 -0.643278 0)
(-0.0843064 -0.656373 0)
(-0.0836708 -0.666125 0)
(-0.0830683 -0.672907 0)
(-0.0824986 -0.677091 0)
(-0.0819603 -0.679051 0)
(-0.0814511 -0.679138 0)
(-0.0809687 -0.677698 0)
(-0.0805091 -0.675054 0)
(-0.0800725 -0.671518 0)
(-0.0796572 -0.667416 0)
(-0.0959036 -0.351453 0)
(-0.0951833 -0.397512 0)
(-0.0944791 -0.441444 0)
(-0.0937261 -0.482385 0)
(-0.092931 -0.51976 0)
(-0.0921161 -0.553158 0)
(-0.0913051 -0.582345 0)
(-0.0905096 -0.607249 0)
(-0.0897365 -0.627958 0)
(-0.0889906 -0.644679 0)
(-0.0882752 -0.65771 0)
(-0.0875923 -0.667396 0)
(-0.0869426 -0.674113 0)
(-0.0863254 -0.678234 0)
(-0.0857401 -0.680132 0)
(-0.0851845 -0.680163 0)
(-0.084656 -0.678672 0)
(-0.0841512 -0.675982 0)
(-0.0836695 -0.672404 0)
(-0.0832087 -0.668267 0)
(-0.100292 -0.352669 0)
(-0.0995447 -0.398891 0)
(-0.098802 -0.442944 0)
(-0.0980099 -0.483967 0)
(-0.0971728 -0.521388 0)
(-0.0963141 -0.554801 0)
(-0.0954578 -0.583976 0)
(-0.0946158 -0.608848 0)
(-0.0937951 -0.629511 0)
(-0.0930008 -0.646175 0)
(-0.0922363 -0.659144 0)
(-0.091504 -0.668765 0)
(-0.0908044 -0.675416 0)
(-0.0901379 -0.679473 0)
(-0.0895035 -0.681311 0)
(-0.0888993 -0.681285 0)
(-0.0883228 -0.679741 0)
(-0.0877706 -0.677003 0)
(-0.0872414 -0.673383 0)
(-0.086732 -0.669208 0)
(-0.10469 -0.353977 0)
(-0.103915 -0.40036 0)
(-0.103134 -0.444531 0)
(-0.102301 -0.485637 0)
(-0.10142 -0.523105 0)
(-0.100515 -0.556536 0)
(-0.099611 -0.585702 0)
(-0.0987204 -0.610545 0)
(-0.0978498 -0.631163 0)
(-0.097005 -0.647773 0)
(-0.0961893 -0.66068 0)
(-0.0954054 -0.670237 0)
(-0.0946545 -0.676823 0)
(-0.0939365 -0.680816 0)
(-0.093251 -0.682593 0)
(-0.0925962 -0.682509 0)
(-0.0919695 -0.680911 0)
(-0.0913681 -0.678124 0)
(-0.0907899 -0.674461 0)
(-0.0902313 -0.670247 0)
(-0.109114 -0.355359 0)
(-0.108297 -0.401907 0)
(-0.107472 -0.446199 0)
(-0.106595 -0.487391 0)
(-0.105668 -0.524912 0)
(-0.104716 -0.558365 0)
(-0.103764 -0.587526 0)
(-0.102823 -0.612343 0)
(-0.101901 -0.63292 0)
(-0.101003 -0.649477 0)
(-0.100134 -0.662324 0)
(-0.0992963 -0.671817 0)
(-0.0984909 -0.678339 0)
(-0.097719 -0.682268 0)
(-0.0969796 -0.683982 0)
(-0.0962716 -0.683839 0)
(-0.0955923 -0.682186 0)
(-0.0949391 -0.679349 0)
(-0.094309 -0.675641 0)
(-0.093698 -0.671385 0)
(-0.113511 -0.356796 0)
(-0.112672 -0.403521 0)
(-0.111813 -0.447943 0)
(-0.110895 -0.489231 0)
(-0.109923 -0.526812 0)
(-0.108922 -0.560292 0)
(-0.107918 -0.589454 0)
(-0.106925 -0.614249 0)
(-0.105948 -0.634787 0)
(-0.104995 -0.651293 0)
(-0.10407 -0.664082 0)
(-0.103175 -0.673513 0)
(-0.102313 -0.679969 0)
(-0.101485 -0.683834 0)
(-0.100689 -0.685485 0)
(-0.0999246 -0.685282 0)
(-0.0991898 -0.683572 0)
(-0.0984822 -0.680683 0)
(-0.0977982 -0.676928 0)
(-0.0971334 -0.672628 0)
(-0.117956 -0.358288 0)
(-0.11708 -0.405206 0)
(-0.116175 -0.449772 0)
(-0.115211 -0.491163 0)
(-0.114188 -0.528811 0)
(-0.113135 -0.562325 0)
(-0.112076 -0.591492 0)
(-0.111026 -0.616269 0)
(-0.109992 -0.63677 0)
(-0.108981 -0.653228 0)
(-0.107996 -0.66596 0)
(-0.107041 -0.675328 0)
(-0.106119 -0.68172 0)
(-0.10523 -0.685519 0)
(-0.104375 -0.687106 0)
(-0.103552 -0.686841 0)
(-0.102758 -0.685074 0)
(-0.101993 -0.682131 0)
(-0.101252 -0.678327 0)
(-0.10053 -0.67398 0)
(-0.122415 -0.359882 0)
(-0.121508 -0.406996 0)
(-0.120557 -0.451706 0)
(-0.119542 -0.493205 0)
(-0.118465 -0.530924 0)
(-0.117355 -0.564474 0)
(-0.116238 -0.593649 0)
(-0.115128 -0.61841 0)
(-0.114032 -0.638877 0)
(-0.112958 -0.655287 0)
(-0.11191 -0.667962 0)
(-0.110892 -0.677268 0)
(-0.109906 -0.683595 0)
(-0.108954 -0.687329 0)
(-0.108036 -0.688851 0)
(-0.107151 -0.688523 0)
(-0.106296 -0.686695 0)
(-0.105471 -0.683696 0)
(-0.10467 -0.67984 0)
(-0.10389 -0.675444 0)
(-0.126884 -0.361559 0)
(-0.12594 -0.408882 0)
(-0.124943 -0.453745 0)
(-0.123876 -0.495358 0)
(-0.122744 -0.533152 0)
(-0.121575 -0.566744 0)
(-0.120397 -0.595929 0)
(-0.119224 -0.620676 0)
(-0.118064 -0.641111 0)
(-0.116924 -0.657475 0)
(-0.11581 -0.670094 0)
(-0.114726 -0.679339 0)
(-0.113673 -0.685601 0)
(-0.112654 -0.689268 0)
(-0.111669 -0.690723 0)
(-0.110719 -0.69033 0)
(-0.109799 -0.688439 0)
(-0.108911 -0.685382 0)
(-0.108048 -0.681472 0)
(-0.107206 -0.677023 0)
(-0.131372 -0.363315 0)
(-0.130389 -0.410861 0)
(-0.129342 -0.455887 0)
(-0.12822 -0.497621 0)
(-0.127029 -0.535497 0)
(-0.125798 -0.569135 0)
(-0.124554 -0.598336 0)
(-0.123315 -0.623073 0)
(-0.122087 -0.643477 0)
(-0.120878 -0.659797 0)
(-0.119694 -0.672361 0)
(-0.118539 -0.681545 0)
(-0.117416 -0.68774 0)
(-0.116327 -0.69134 0)
(-0.115273 -0.692727 0)
(-0.114253 -0.692267 0)
(-0.113266 -0.690311 0)
(-0.11231 -0.687192 0)
(-0.111382 -0.683225 0)
(-0.110476 -0.67872 0)
(-0.135863 -0.365153 0)
(-0.134841 -0.412933 0)
(-0.133744 -0.458134 0)
(-0.132567 -0.499998 0)
(-0.131315 -0.537964 0)
(-0.130019 -0.571654 0)
(-0.128708 -0.600874 0)
(-0.127399 -0.625605 0)
(-0.126099 -0.645982 0)
(-0.124818 -0.662259 0)
(-0.12356 -0.674769 0)
(-0.122331 -0.683891 0)
(-0.121133 -0.690021 0)
(-0.11997 -0.693553 0)
(-0.118842 -0.69487 0)
(-0.117749 -0.694341 0)
(-0.11669 -0.692318 0)
(-0.115664 -0.689135 0)
(-0.114666 -0.685107 0)
(-0.113692 -0.680542 0)
(-0.140387 -0.36707 0)
(-0.139319 -0.4151 0)
(-0.138167 -0.460488 0)
(-0.136928 -0.502494 0)
(-0.13561 -0.540557 0)
(-0.134244 -0.574306 0)
(-0.132861 -0.603551 0)
(-0.131477 -0.628279 0)
(-0.130101 -0.648632 0)
(-0.128743 -0.664868 0)
(-0.127406 -0.677326 0)
(-0.126099 -0.686387 0)
(-0.124822 -0.692451 0)
(-0.123581 -0.695913 0)
(-0.122375 -0.697159 0)
(-0.121205 -0.696559 0)
(-0.12007 -0.694466 0)
(-0.11897 -0.691215 0)
(-0.117899 -0.687123 0)
(-0.116854 -0.682495 0)
(-0.144926 -0.369078 0)
(-0.14381 -0.417372 0)
(-0.1426 -0.46296 0)
(-0.141297 -0.505117 0)
(-0.13991 -0.543287 0)
(-0.138471 -0.577101 0)
(-0.137011 -0.606376 0)
(-0.135548 -0.631105 0)
(-0.134092 -0.651436 0)
(-0.132651 -0.667633 0)
(-0.131232 -0.68004 0)
(-0.129841 -0.689041 0)
(-0.128481 -0.695038 0)
(-0.127156 -0.69843 0)
(-0.125867 -0.699604 0)
(-0.124616 -0.69893 0)
(-0.123401 -0.696764 0)
(-0.122221 -0.693443 0)
(-0.121073 -0.689282 0)
(-0.119952 -0.684587 0)
(-0.149494 -0.371181 0)
(-0.148322 -0.419755 0)
(-0.14705 -0.465557 0)
(-0.145679 -0.507877 0)
(-0.144217 -0.546161 0)
(-0.142699 -0.580047 0)
(-0.141158 -0.609358 0)
(-0.139612 -0.634093 0)
(-0.138069 -0.654406 0)
(-0.136542 -0.670566 0)
(-0.135035 -0.682923 0)
(-0.133555 -0.691864 0)
(-0.132107 -0.697794 0)
(-0.130694 -0.701115 0)
(-0.129317 -0.702214 0)
(-0.12798 -0.701465 0)
(-0.126678 -0.699223 0)
(-0.125415 -0.695828 0)
(-0.124185 -0.691595 0)
(-0.122986 -0.686827 0)
(-0.154074 -0.373382 0)
(-0.152845 -0.422254 0)
(-0.151511 -0.468286 0)
(-0.150068 -0.510781 0)
(-0.14853 -0.54919 0)
(-0.146929 -0.583156 0)
(-0.145302 -0.612508 0)
(-0.143667 -0.637254 0)
(-0.142034 -0.657551 0)
(-0.140414 -0.673678 0)
(-0.138813 -0.685985 0)
(-0.137239 -0.694867 0)
(-0.135697 -0.700731 0)
(-0.13419 -0.703979 0)
(-0.13272 -0.705003 0)
(-0.13129 -0.704175 0)
(-0.129899 -0.701855 0)
(-0.128546 -0.69838 0)
(-0.12723 -0.69407 0)
(-0.125947 -0.689225 0)
(-0.158693 -0.37569 0)
(-0.157399 -0.424879 0)
(-0.155994 -0.471157 0)
(-0.154474 -0.513841 0)
(-0.152852 -0.552385 0)
(-0.151163 -0.586439 0)
(-0.149443 -0.615839 0)
(-0.147713 -0.640599 0)
(-0.145983 -0.660886 0)
(-0.144265 -0.676981 0)
(-0.142565 -0.689241 0)
(-0.140891 -0.698064 0)
(-0.139248 -0.70386 0)
(-0.137642 -0.707035 0)
(-0.136074 -0.70798 0)
(-0.134546 -0.707072 0)
(-0.133058 -0.704669 0)
(-0.131612 -0.701112 0)
(-0.130204 -0.69672 0)
(-0.128832 -0.691793 0)
(-0.163327 -0.378114 0)
(-0.161968 -0.427639 0)
(-0.16049 -0.474181 0)
(-0.158889 -0.517066 0)
(-0.157179 -0.555756 0)
(-0.155396 -0.589908 0)
(-0.153579 -0.619362 0)
(-0.151749 -0.644143 0)
(-0.149916 -0.664422 0)
(-0.148093 -0.680487 0)
(-0.146287 -0.692702 0)
(-0.144507 -0.701467 0)
(-0.142758 -0.707195 0)
(-0.141045 -0.710295 0)
(-0.139372 -0.71116 0)
(-0.137741 -0.710168 0)
(-0.136151 -0.707679 0)
(-0.134604 -0.704035 0)
(-0.133098 -0.699556 0)
(-0.131633 -0.694541 0)
(-0.167997 -0.380663 0)
(-0.166561 -0.430545 0)
(-0.165005 -0.477367 0)
(-0.163317 -0.520469 0)
(-0.161512 -0.559317 0)
(-0.15963 -0.593574 0)
(-0.15771 -0.623091 0)
(-0.155772 -0.647897 0)
(-0.15383 -0.668172 0)
(-0.151896 -0.684212 0)
(-0.149977 -0.696382 0)
(-0.148085 -0.705089 0)
(-0.146223 -0.710749 0)
(-0.144398 -0.713773 0)
(-0.142613 -0.714556 0)
(-0.140871 -0.713477 0)
(-0.139172 -0.710898 0)
(-0.13752 -0.707162 0)
(-0.13591 -0.70259 0)
(-0.134346 -0.697481 0)
(-0.172679 -0.383339 0)
(-0.171166 -0.433602 0)
(-0.16953 -0.480724 0)
(-0.167752 -0.524059 0)
(-0.165849 -0.563076 0)
(-0.163862 -0.59745 0)
(-0.161832 -0.627037 0)
(-0.159782 -0.651875 0)
(-0.157724 -0.672152 0)
(-0.155671 -0.688168 0)
(-0.153633 -0.700296 0)
(-0.15162 -0.708946 0)
(-0.149638 -0.714537 0)
(-0.147693 -0.717483 0)
(-0.14579 -0.718181 0)
(-0.143931 -0.717012 0)
(-0.142117 -0.714339 0)
(-0.140351 -0.710506 0)
(-0.138633 -0.705835 0)
(-0.136962 -0.700625 0)
(-0.177406 -0.386155 0)
(-0.175806 -0.436821 0)
(-0.17408 -0.484264 0)
(-0.172203 -0.527847 0)
(-0.170194 -0.567048 0)
(-0.168095 -0.601548 0)
(-0.165948 -0.631214 0)
(-0.163777 -0.656091 0)
(-0.161595 -0.676374 0)
(-0.159417 -0.69237 0)
(-0.157252 -0.704457 0)
(-0.155112 -0.713051 0)
(-0.153001 -0.718573 0)
(-0.15093 -0.72144 0)
(-0.1489 -0.72205 0)
(-0.146917 -0.720788 0)
(-0.14498 -0.718015 0)
(-0.143095 -0.714079 0)
(-0.141259 -0.709304 0)
(-0.139477 -0.703986 0)
(-0.182153 -0.389121 0)
(-0.180465 -0.440216 0)
(-0.178645 -0.488 0)
(-0.176665 -0.531848 0)
(-0.174545 -0.571247 0)
(-0.172326 -0.605885 0)
(-0.170055 -0.635638 0)
(-0.167756 -0.66056 0)
(-0.165443 -0.680854 0)
(-0.163131 -0.696834 0)
(-0.160831 -0.708883 0)
(-0.158554 -0.717421 0)
(-0.156308 -0.722873 0)
(-0.1541 -0.725659 0)
(-0.151936 -0.726179 0)
(-0.149821 -0.724819 0)
(-0.147754 -0.721942 0)
(-0.145741 -0.717898 0)
(-0.143781 -0.713011 0)
(-0.141879 -0.707578 0)
(-0.186945 -0.392249 0)
(-0.185155 -0.443797 0)
(-0.183235 -0.491944 0)
(-0.181143 -0.536075 0)
(-0.178903 -0.575685 0)
(-0.176557 -0.610473 0)
(-0.174154 -0.640323 0)
(-0.171718 -0.665299 0)
(-0.169264 -0.685609 0)
(-0.16681 -0.701577 0)
(-0.164366 -0.71359 0)
(-0.161944 -0.722073 0)
(-0.159553 -0.727454 0)
(-0.157201 -0.730157 0)
(-0.154894 -0.730584 0)
(-0.152638 -0.729122 0)
(-0.150433 -0.726137 0)
(-0.148283 -0.721978 0)
(-0.146191 -0.716971 0)
(-0.144162 -0.711416 0)
(-0.191757 -0.395544 0)
(-0.189865 -0.447574 0)
(-0.187841 -0.496107 0)
(-0.185634 -0.540542 0)
(-0.183267 -0.580379 0)
(-0.180787 -0.61533 0)
(-0.178243 -0.645288 0)
(-0.175661 -0.670324 0)
(-0.173059 -0.690658 0)
(-0.170452 -0.706617 0)
(-0.167854 -0.718596 0)
(-0.165278 -0.727025 0)
(-0.162732 -0.732335 0)
(-0.160226 -0.734953 0)
(-0.157767 -0.735284 0)
(-0.155359 -0.733715 0)
(-0.153006 -0.730616 0)
(-0.150712 -0.726336 0)
(-0.14848 -0.721202 0)
(-0.146314 -0.715515 0)
(-0.196628 -0.399021 0)
(-0.194621 -0.451561 0)
(-0.192481 -0.500506 0)
(-0.190147 -0.545263 0)
(-0.187644 -0.585346 0)
(-0.185019 -0.620474 0)
(-0.182324 -0.65055 0)
(-0.179586 -0.675656 0)
(-0.176824 -0.696019 0)
(-0.174055 -0.711975 0)
(-0.171293 -0.723923 0)
(-0.168551 -0.732298 0)
(-0.16584 -0.737537 0)
(-0.16317 -0.740067 0)
(-0.160548 -0.740297 0)
(-0.15798 -0.738618 0)
(-0.155469 -0.735398 0)
(-0.153021 -0.730989 0)
(-0.150638 -0.72572 0)
(-0.148328 -0.719893 0)
(-0.201525 -0.402695 0)
(-0.199402 -0.455775 0)
(-0.197143 -0.505156 0)
(-0.194675 -0.550259 0)
(-0.192028 -0.590604 0)
(-0.189249 -0.625924 0)
(-0.186393 -0.65613 0)
(-0.183489 -0.681316 0)
(-0.180557 -0.701715 0)
(-0.177614 -0.717671 0)
(-0.174676 -0.729591 0)
(-0.171758 -0.737913 0)
(-0.168871 -0.743079 0)
(-0.166025 -0.74552 0)
(-0.163228 -0.745646 0)
(-0.160489 -0.74385 0)
(-0.15781 -0.740502 0)
(-0.155197 -0.735958 0)
(-0.152655 -0.730544 0)
(-0.150191 -0.724566 0)
(-0.206477 -0.406575 0)
(-0.204225 -0.460229 0)
(-0.201835 -0.510075 0)
(-0.199224 -0.555545 0)
(-0.196421 -0.596173 0)
(-0.193478 -0.6317 0)
(-0.19045 -0.66205 0)
(-0.187368 -0.687324 0)
(-0.184253 -0.707767 0)
(-0.181125 -0.723729 0)
(-0.178 -0.735623 0)
(-0.174893 -0.743894 0)
(-0.171817 -0.748987 0)
(-0.168784 -0.751335 0)
(-0.165802 -0.751353 0)
(-0.162879 -0.749434 0)
(-0.160021 -0.745952 0)
(-0.157232 -0.741262 0)
(-0.154519 -0.735694 0)
(-0.151891 -0.729555 0)
(-0.211458 -0.410676 0)
(-0.209075 -0.464938 0)
(-0.206549 -0.515277 0)
(-0.203787 -0.561141 0)
(-0.20082 -0.602073 0)
(-0.197702 -0.637824 0)
(-0.194491 -0.668332 0)
(-0.19122 -0.693706 0)
(-0.18791 -0.7142 0)
(-0.184584 -0.730174 0)
(-0.181258 -0.742045 0)
(-0.177949 -0.750266 0)
(-0.174672 -0.755283 0)
(-0.171438 -0.757536 0)
(-0.168258 -0.757441 0)
(-0.16514 -0.755393 0)
(-0.16209 -0.751769 0)
(-0.159114 -0.746924 0)
(-0.156218 -0.741192 0)
(-0.153414 -0.734879 0)
(-0.216504 -0.41501 0)
(-0.213975 -0.469916 0)
(-0.2113 -0.520782 0)
(-0.208375 -0.567067 0)
(-0.20523 -0.608324 0)
(-0.201924 -0.64432 0)
(-0.198517 -0.675 0)
(-0.195042 -0.700486 0)
(-0.191524 -0.721041 0)
(-0.187986 -0.737031 0)
(-0.184445 -0.748884 0)
(-0.180921 -0.757054 0)
(-0.177428 -0.761996 0)
(-0.17398 -0.76415 0)
(-0.170588 -0.763936 0)
(-0.167261 -0.761753 0)
(-0.164006 -0.757978 0)
(-0.160829 -0.752969 0)
(-0.15774 -0.747061 0)
(-0.154748 -0.740562 0)
(-0.221594 -0.419598 0)
(-0.218915 -0.475188 0)
(-0.216083 -0.526612 0)
(-0.212983 -0.573346 0)
(-0.20965 -0.614954 0)
(-0.206143 -0.651213 0)
(-0.202525 -0.682082 0)
(-0.198833 -0.707692 0)
(-0.195092 -0.728316 0)
(-0.191327 -0.74433 0)
(-0.187556 -0.756168 0)
(-0.183801 -0.764289 0)
(-0.180077 -0.769153 0)
(-0.1764 -0.771206 0)
(-0.17278 -0.770868 0)
(-0.16923 -0.768542 0)
(-0.165755 -0.764606 0)
(-0.162364 -0.759423 0)
(-0.159067 -0.753326 0)
(-0.155874 -0.746628 0)
(-0.226749 -0.424456 0)
(-0.223906 -0.48077 0)
(-0.220904 -0.53279 0)
(-0.217618 -0.580004 0)
(-0.214082 -0.621987 0)
(-0.210359 -0.658532 0)
(-0.206516 -0.689606 0)
(-0.202591 -0.715354 0)
(-0.198611 -0.736058 0)
(-0.194601 -0.752103 0)
(-0.190585 -0.763928 0)
(-0.186582 -0.772002 0)
(-0.182611 -0.776788 0)
(-0.178687 -0.778734 0)
(-0.174824 -0.778266 0)
(-0.171034 -0.775789 0)
(-0.167325 -0.771684 0)
(-0.163705 -0.766313 0)
(-0.160185 -0.760015 0)
(-0.156778 -0.753102 0)
(-0.231958 -0.4296 0)
(-0.228945 -0.486685 0)
(-0.225764 -0.539339 0)
(-0.222278 -0.587065 0)
(-0.218525 -0.629453 0)
(-0.214572 -0.666306 0)
(-0.210487 -0.697605 0)
(-0.206312 -0.723506 0)
(-0.202075 -0.744301 0)
(-0.197804 -0.760383 0)
(-0.193523 -0.772201 0)
(-0.189255 -0.780228 0)
(-0.185018 -0.784933 0)
(-0.180831 -0.786769 0)
(-0.176707 -0.786165 0)
(-0.17266 -0.783528 0)
(-0.168699 -0.779241 0)
(-0.164833 -0.773671 0)
(-0.161075 -0.767157 0)
(-0.157438 -0.760013 0)
(-0.237249 -0.435053 0)
(-0.234051 -0.492956 0)
(-0.230673 -0.546285 0)
(-0.226972 -0.594561 0)
(-0.222985 -0.637384 0)
(-0.218783 -0.67457 0)
(-0.214439 -0.706114 0)
(-0.209995 -0.732184 0)
(-0.205481 -0.75308 0)
(-0.20093 -0.769208 0)
(-0.196365 -0.781022 0)
(-0.191811 -0.789004 0)
(-0.187289 -0.793627 0)
(-0.182818 -0.795348 0)
(-0.178414 -0.7946 0)
(-0.174092 -0.791793 0)
(-0.169861 -0.787314 0)
(-0.165732 -0.78153 0)
(-0.161718 -0.774783 0)
(-0.157836 -0.767392 0)
(-0.242609 -0.440839 0)
(-0.239215 -0.499612 0)
(-0.235629 -0.553661 0)
(-0.231696 -0.602524 0)
(-0.227459 -0.645814 0)
(-0.22299 -0.68336 0)
(-0.218367 -0.715171 0)
(-0.213633 -0.741426 0)
(-0.208824 -0.762437 0)
(-0.20397 -0.778618 0)
(-0.199099 -0.790434 0)
(-0.194239 -0.798371 0)
(-0.189411 -0.802909 0)
(-0.184635 -0.80451 0)
(-0.17993 -0.80361 0)
(-0.175311 -0.800623 0)
(-0.170791 -0.795938 0)
(-0.16638 -0.789925 0)
(-0.162092 -0.782929 0)
(-0.157946 -0.77527 0)
(-0.248052 -0.446981 0)
(-0.244447 -0.50668 0)
(-0.240637 -0.561497 0)
(-0.236455 -0.610989 0)
(-0.231948 -0.65478 0)
(-0.227192 -0.692716 0)
(-0.222268 -0.724817 0)
(-0.217224 -0.751275 0)
(-0.212095 -0.772415 0)
(-0.206916 -0.788658 0)
(-0.201718 -0.80048 0)
(-0.196527 -0.808374 0)
(-0.191369 -0.812825 0)
(-0.186267 -0.8143 0)
(-0.181238 -0.81324 0)
(-0.176301 -0.810061 0)
(-0.171469 -0.805155 0)
(-0.166754 -0.798897 0)
(-0.162173 -0.791632 0)
(-0.157744 -0.783684 0)
(-0.253572 -0.453504 0)
(-0.249745 -0.514187 0)
(-0.245695 -0.569826 0)
(-0.241247 -0.619991 0)
(-0.23645 -0.664323 0)
(-0.231387 -0.702679 0)
(-0.22614 -0.735096 0)
(-0.220761 -0.761777 0)
(-0.215289 -0.783059 0)
(-0.209761 -0.799376 0)
(-0.204208 -0.811209 0)
(-0.198662 -0.81906 0)
(-0.193149 -0.823421 0)
(-0.187694 -0.824765 0)
(-0.182317 -0.823534 0)
(-0.177038 -0.82015 0)
(-0.171871 -0.815009 0)
(-0.16683 -0.808486 0)
(-0.161933 -0.800932 0)
(-0.157201 -0.792673 0)
(-0.259195 -0.460436 0)
(-0.255127 -0.522169 0)
(-0.250816 -0.578684 0)
(-0.24608 -0.629572 0)
(-0.24097 -0.674484 0)
(-0.235574 -0.713296 0)
(-0.229979 -0.746057 0)
(-0.22424 -0.772983 0)
(-0.218398 -0.794423 0)
(-0.212493 -0.810822 0)
(-0.206559 -0.822672 0)
(-0.20063 -0.830483 0)
(-0.194735 -0.834751 0)
(-0.1889 -0.835956 0)
(-0.183147 -0.834545 0)
(-0.1775 -0.830942 0)
(-0.171972 -0.825548 0)
(-0.166581 -0.818741 0)
(-0.161344 -0.810875 0)
(-0.156286 -0.802278 0)
(-0.264915 -0.46781 0)
(-0.260589 -0.530662 0)
(-0.255998 -0.588115 0)
(-0.250953 -0.639776 0)
(-0.245507 -0.685314 0)
(-0.239752 -0.724618 0)
(-0.233782 -0.757752 0)
(-0.227655 -0.784945 0)
(-0.221413 -0.806562 0)
(-0.215101 -0.823056 0)
(-0.208756 -0.834929 0)
(-0.202414 -0.8427 0)
(-0.196106 -0.846872 0)
(-0.189861 -0.84793 0)
(-0.183704 -0.846327 0)
(-0.177658 -0.842491 0)
(-0.171742 -0.836824 0)
(-0.165973 -0.829711 0)
(-0.160371 -0.821507 0)
(-0.154962 -0.812546 0)
(-0.27075 -0.475661 0)
(-0.266145 -0.539707 0)
(-0.261251 -0.598161 0)
(-0.255872 -0.650653 0)
(-0.250062 -0.696864 0)
(-0.243921 -0.7367 0)
(-0.237546 -0.770239 0)
(-0.230998 -0.797726 0)
(-0.224325 -0.819537 0)
(-0.217574 -0.836138 0)
(-0.210784 -0.848041 0)
(-0.203996 -0.855774 0)
(-0.197242 -0.859847 0)
(-0.190555 -0.86075 0)
(-0.183961 -0.858941 0)
(-0.177486 -0.854855 0)
(-0.171151 -0.848896 0)
(-0.164975 -0.841452 0)
(-0.158979 -0.832883 0)
(-0.153192 -0.823525 0)
(-0.276699 -0.484023 0)
(-0.271795 -0.549344 0)
(-0.266577 -0.608872 0)
(-0.260836 -0.662255 0)
(-0.254634 -0.709191 0)
(-0.248076 -0.749602 0)
(-0.241264 -0.783582 0)
(-0.234262 -0.81139 0)
(-0.227123 -0.833415 0)
(-0.219897 -0.850137 0)
(-0.212627 -0.862078 0)
(-0.205356 -0.869774 0)
(-0.19812 -0.873743 0)
(-0.190954 -0.874483 0)
(-0.183888 -0.872455 0)
(-0.176949 -0.868099 0)
(-0.170161 -0.861825 0)
(-0.163545 -0.854024 0)
(-0.157125 -0.845059 0)
(-0.15093 -0.835271 0)
(-0.282788 -0.492941 0)
(-0.27756 -0.559625 0)
(-0.271987 -0.620301 0)
(-0.265856 -0.674642 0)
(-0.259229 -0.722359 0)
(-0.252218 -0.763391 0)
(-0.244932 -0.79785 0)
(-0.237439 -0.826009 0)
(-0.229796 -0.848272 0)
(-0.222055 -0.86513 0)
(-0.214265 -0.877116 0)
(-0.206471 -0.884776 0)
(-0.198713 -0.888638 0)
(-0.191029 -0.889204 0)
(-0.183451 -0.886942 0)
(-0.176011 -0.882296 0)
(-0.168734 -0.875681 0)
(-0.161642 -0.867493 0)
(-0.154763 -0.858098 0)
(-0.148129 -0.847842 0)
(-0.289015 -0.50246 0)
(-0.283437 -0.5706 0)
(-0.277482 -0.632508 0)
(-0.270928 -0.687877 0)
(-0.263841 -0.736436 0)
(-0.256342 -0.778142 0)
(-0.248543 -0.813121 0)
(-0.240518 -0.841664 0)
(-0.232328 -0.864187 0)
(-0.22403 -0.881197 0)
(-0.215675 -0.893238 0)
(-0.207315 -0.900865 0)