/*--------------------------------*- C++ -*----------------------------------*\
  =========                 |
  \\      /  F ield         | OpenFOAM: The Open Source CFD Toolbox
   \\    /   O peration     | Website:  https://openfoam.org
    \\  /    A nd           | Version:  6
     \\/     M anipulation  |
\*---------------------------------------------------------------------------*/
FoamFile
{
    version     2.0;
    format      ascii;
    class       volVectorField;
    location    "8";
    object      U;
}
// * * * * * * * * * * * * * * * * * * * * * * * * * * * * * * * * * * * * * //

dimensions      [0 1 -1 0 0 0 0];

internalField   nonuniform List<vector> 
10000
(
(-0.00961744 -3.6502 0)
(-0.0196245 -4.68559 0)
(-0.0268108 -5.05151 0)
(-0.0269915 -5.2049 0)
(-0.0234685 -5.26215 0)
(-0.0190311 -5.27787 0)
(-0.0151619 -5.27705 0)
(-0.0121538 -5.2709 0)
(-0.0097804 -5.26438 0)
(-0.00778348 -5.25955 0)
(-0.00592409 -5.25703 0)
(-0.00397909 -5.2564 0)
(-0.00165387 -5.2563 0)
(0.00150961 -5.25389 0)
(0.00589935 -5.24369 0)
(0.0116141 -5.21451 0)
(0.0171986 -5.14284 0)
(0.0198081 -4.97986 0)
(0.0165095 -4.61328 0)
(0.0114372 -3.5778 0)
(-0.00168425 -3.63779 0)
(-0.0089481 -4.67635 0)
(-0.0113223 -5.05462 0)
(-0.0127215 -5.21486 0)
(-0.0127498 -5.27464 0)
(-0.011904 -5.29011 0)
(-0.0106517 -5.28782 0)
(-0.00926488 -5.28013 0)
(-0.00779019 -5.27241 0)
(-0.00632029 -5.2669 0)
(-0.00485279 -5.26416 0)
(-0.00340947 -5.26383 0)
(-0.00200034 -5.26453 0)
(-0.000522307 -5.26343 0)
(0.0010499 -5.25465 0)
(0.0027225 -5.22581 0)
(0.00401349 -5.15179 0)
(0.00447232 -4.98216 0)
(0.00490138 -4.60385 0)
(0.000749557 -3.56246 0)
(0.00212765 -3.62361 0)
(-0.0102249 -4.66711 0)
(-0.00679174 -5.04798 0)
(-0.00680255 -5.21042 0)
(-0.00680016 -5.27205 0)
(-0.00676541 -5.2889 0)
(-0.00663574 -5.28774 0)
(-0.00628849 -5.28084 0)
(-0.00568229 -5.27363 0)
(-0.00488284 -5.26837 0)
(-0.00397478 -5.26566 0)
(-0.00303997 -5.26517 0)
(-0.00213664 -5.26555 0)
(-0.00122574 -5.26396 0)
(-0.000241395 -5.25449 0)
(0.000794168 -5.2251 0)
(0.00206298 -5.15069 0)
(0.00283228 -4.98049 0)
(0.00506274 -4.60205 0)
(0.00199587 -3.55139 0)
(0.00282179 -3.60519 0)
(-0.00756287 -4.6652 0)
(-0.0042569 -5.04561 0)
(-0.00310858 -5.20824 0)
(-0.00290328 -5.27007 0)
(-0.00301931 -5.28738 0)
(-0.00325427 -5.28685 0)
(-0.0034389 -5.28058 0)
(-0.00344362 -5.27393 0)
(-0.00323547 -5.26908 0)
(-0.00285955 -5.26666 0)
(-0.002348 -5.26633 0)
(-0.00176933 -5.2668 0)
(-0.00112045 -5.26523 0)
(-0.000387474 -5.25587 0)
(0.000342332 -5.22655 0)
(0.00112786 -5.15221 0)
(0.00147302 -4.98209 0)
(0.00116922 -4.60186 0)
(0.00303103 -3.54555 0)
(-0.00256586 -3.59315 0)
(-0.00480479 -4.66771 0)
(-0.00530784 -5.04652 0)
(-0.00402278 -5.20752 0)
(-0.00345369 -5.26866 0)
(-0.0030938 -5.2859 0)
(-0.00289151 -5.28562 0)
(-0.00277634 -5.27983 0)
(-0.00263458 -5.27373 0)
(-0.00237503 -5.26937 0)
(-0.00199 -5.26732 0)
(-0.00148555 -5.26725 0)
(-0.000888719 -5.2679 0)
(-0.000210442 -5.26643 0)
(0.000485918 -5.25712 0)
(0.00111868 -5.2279 0)
(0.00160243 -5.15388 0)
(0.00195002 -4.98322 0)
(-0.00139422 -4.60205 0)
(0.00457464 -3.54212 0)
(-0.000288899 -3.58746 0)
(-0.00324983 -4.67137 0)
(-0.0053231 -5.05068 0)
(-0.00545377 -5.21048 0)
(-0.00520845 -5.27105 0)
(-0.00466612 -5.28763 0)
(-0.0040073 -5.28693 0)
(-0.00338925 -5.28096 0)
(-0.00282541 -5.27483 0)
(-0.002262 -5.27056 0)
(-0.00167972 -5.26866 0)
(-0.0010373 -5.26878 0)
(-0.000322088 -5.26963 0)
(0.000426098 -5.26833 0)
(0.00112939 -5.25905 0)
(0.00165727 -5.22975 0)
(0.001828 -5.15564 0)
(0.00183545 -4.98504 0)
(-0.00220954 -4.60313 0)
(0.00447855 -3.54364 0)
(0.00478094 -3.58649 0)
(-0.00347093 -4.67001 0)
(-0.003887 -5.05145 0)
(-0.00491528 -5.21223 0)
(-0.0051064 -5.27355 0)
(-0.00480841 -5.29023 0)
(-0.00423765 -5.2893 0)
(-0.00357608 -5.28308 0)
(-0.00294078 -5.27675 0)
(-0.00233497 -5.27232 0)
(-0.00174733 -5.27036 0)
(-0.00117368 -5.27049 0)
(-0.000587623 -5.27136 0)
(-4.59077e-05 -5.27006 0)
(0.000341236 -5.26067 0)
(0.000530029 -5.23112 0)
(0.000405501 -5.15685 0)
(6.52973e-05 -4.98563 0)
(-0.00098292 -4.60195 0)
(-0.00126865 -3.54544 0)
(0.00164091 -3.58261 0)
(-0.00228318 -4.66679 0)
(-0.00216229 -5.0487 0)
(-0.00270913 -5.21123 0)
(-0.00311145 -5.27343 0)
(-0.00312589 -5.29077 0)
(-0.0030191 -5.29022 0)
(-0.00277696 -5.2842 0)
(-0.00249125 -5.27793 0)
(-0.00219204 -5.27349 0)
(-0.00191107 -5.27147 0)
(-0.00164788 -5.27153 0)
(-0.00142151 -5.27233 0)
(-0.00129142 -5.27089 0)
(-0.00126309 -5.26122 0)
(-0.00134952 -5.23127 0)
(-0.00151014 -5.15643 0)
(-0.00160116 -4.98526 0)
(-0.000824478 -4.60293 0)
(-0.00334474 -3.54724 0)
(-0.000983578 -3.58093 0)
(-0.00158477 -4.66259 0)
(-0.000574667 -5.04551 0)
(-0.000697771 -5.20968 0)
(-0.00116731 -5.27206 0)
(-0.00154099 -5.2896 0)
(-0.00187283 -5.28945 0)
(-0.00207404 -5.2838 0)
(-0.00219048 -5.27782 0)
(-0.00226522 -5.27354 0)
(-0.00233007 -5.27154 0)
(-0.00243742 -5.27151 0)
(-0.00262424 -5.27212 0)
(-0.00288031 -5.27047 0)
(-0.00317892 -5.26057 0)
(-0.00343582 -5.23041 0)
(-0.00354551 -5.15554 0)
(-0.00332188 -4.98476 0)
(-0.00155909 -4.60376 0)
(-0.00391781 -3.54969 0)
(0.000627836 -3.57767 0)
(-0.00239409 -4.66357 0)
(6.67275e-05 -5.04626 0)
(-0.000415634 -5.20971 0)
(-0.000821674 -5.27138 0)
(-0.00139895 -5.28868 0)
(-0.00187315 -5.28857 0)
(-0.00222098 -5.28305 0)
(-0.00247792 -5.27718 0)
(-0.0026972 -5.27295 0)
(-0.00294876 -5.27089 0)
(-0.00324733 -5.27067 0)
(-0.0036353 -5.27102 0)
(-0.00406425 -5.26909 0)
(-0.00441409 -5.25898 0)
(-0.00457251 -5.2288 0)
(-0.00436614 -5.15382 0)
(-0.00388924 -4.98289 0)
(-0.00266213 -4.60383 0)
(-0.00187085 -3.55032 0)
(-0.00186995 -3.57633 0)
(-0.00138704 -4.66552 0)
(0.000258317 -5.04771 0)
(-0.000228796 -5.20986 0)
(-0.000680075 -5.27102 0)
(-0.00133121 -5.2882 0)
(-0.00187332 -5.28809 0)
(-0.00226149 -5.28261 0)
(-0.0025543 -5.27674 0)
(-0.00278153 -5.27248 0)
(-0.00299387 -5.27032 0)
(-0.00321388 -5.26997 0)
(-0.00341636 -5.2702 0)
(-0.00354569 -5.26825 0)
(-0.00355072 -5.25835 0)
(-0.0033668 -5.22862 0)
(-0.0028955 -5.15436 0)
(-0.00244238 -4.98353 0)
(-0.00396157 -4.6041 0)
(-0.000620855 -3.55627 0)
(-0.00454267 -3.57522 0)
(0.000393436 -4.66747 0)
(0.000359818 -5.04855 0)
(0.000417812 -5.20943 0)
(0.00011177 -5.27033 0)
(-0.00042248 -5.28755 0)
(-0.000967629 -5.28754 0)
(-0.00143275 -5.28213 0)
(-0.00179812 -5.27636 0)
(-0.00206037 -5.27218 0)
(-0.00222671 -5.27018 0)
(-0.00227003 -5.27004 0)
(-0.00218063 -5.27059 0)
(-0.00196771 -5.26906 0)
(-0.00166613 -5.25966 0)
(-0.00138681 -5.2305 0)
(-0.00118579 -5.15686 0)
(-0.000951018 -4.98622 0)
(-0.00391824 -4.60769 0)
(-0.000853712 -3.56322 0)
(-0.00539333 -3.57597 0)
(0.00158586 -4.66775 0)
(0.000525871 -5.04828 0)
(0.0012165 -5.2092 0)
(0.0012768 -5.2698 0)
(0.000977109 -5.28671 0)
(0.00048609 -5.28666 0)
(-5.41304e-05 -5.28134 0)
(-0.000530341 -5.27574 0)
(-0.000897157 -5.27181 0)
(-0.00110973 -5.2701 0)
(-0.00118034 -5.27032 0)
(-0.00109823 -5.27126 0)
(-0.000902829 -5.27007 0)
(-0.000724351 -5.26078 0)
(-0.000693714 -5.23131 0)
(-0.000897991 -5.15745 0)
(-0.000800071 -4.98739 0)
(-0.00199103 -4.60775 0)
(-0.00264046 -3.56791 0)
(-0.00366429 -3.5764 0)
(0.00198006 -4.66765 0)
(0.000724498 -5.04807 0)
(0.00193805 -5.20827 0)
(0.00211387 -5.26862 0)
(0.00194022 -5.28554 0)
(0.00157038 -5.28548 0)
(0.00108613 -5.28025 0)
(0.000602315 -5.27485 0)
(0.000189182 -5.27119 0)
(-0.000120499 -5.26976 0)
(-0.000308036 -5.27023 0)
(-0.000394081 -5.27134 0)
(-0.000448589 -5.2702 0)
(-0.000514471 -5.26076 0)
(-0.000722452 -5.23092 0)
(-0.00113143 -5.15646 0)
(-0.000944905 -4.98674 0)
(-0.000660939 -4.60931 0)
(-0.00493687 -3.56838 0)
(0.00103763 -3.57509 0)
(0.00129485 -4.67229 0)
(0.000715868 -5.05122 0)
(0.00138642 -5.20922 0)
(0.00149422 -5.26893 0)
(0.0016139 -5.28538 0)
(0.00156404 -5.28501 0)
(0.00137522 -5.27965 0)
(0.00110441 -5.27423 0)
(0.000814809 -5.27063 0)
(0.000551692 -5.2693 0)
(0.000306681 -5.26985 0)
(8.23181e-05 -5.27097 0)
(-0.000148787 -5.26974 0)
(-0.00041897 -5.2601 0)
(-0.000770336 -5.23003 0)
(-0.00126508 -5.15529 0)
(-0.00118596 -4.98573 0)
(-0.00013512 -4.60969 0)
(-0.00557187 -3.56971 0)
(0.00352252 -3.57593 0)
(4.38434e-05 -4.67384 0)
(0.00104449 -5.05242 0)
(0.00077829 -5.21056 0)
(0.000773592 -5.26975 0)
(0.00103671 -5.28584 0)
(0.00121941 -5.28523 0)
(0.00129229 -5.27961 0)
(0.00125865 -5.27402 0)
(0.00115502 -5.27032 0)
(0.000980172 -5.26892 0)
(0.000774172 -5.26943 0)
(0.000533782 -5.27048 0)
(0.000249011 -5.26914 0)
(-5.19379e-05 -5.2594 0)
(-0.000391618 -5.22905 0)
(-0.00081529 -5.15348 0)
(-0.00108661 -4.98347 0)
(0.000388499 -4.61026 0)
(-0.00444322 -3.57114 0)
(0.00368941 -3.57861 0)
(-0.00050954 -4.6728 0)
(0.000135982 -5.05099 0)
(-0.000523029 -5.20978 0)
(-0.000281915 -5.2698 0)
(0.000149392 -5.2863 0)
(0.000574319 -5.28565 0)
(0.000878834 -5.27988 0)
(0.00104398 -5.27412 0)
(0.00110264 -5.27024 0)
(0.00107719 -5.26871 0)
(0.00100061 -5.26914 0)
(0.000909871 -5.27021 0)
(0.000831937 -5.26897 0)
(0.000769279 -5.2594 0)
(0.000734896 -5.2293 0)
(0.000662755 -5.15398 0)
(2.83708e-05 -4.98407 0)
(0.000205402 -4.6115 0)
(-0.000971587 -3.57549 0)
(0.00161106 -3.58099 0)
(0.000504916 -4.67282 0)
(-0.000461362 -5.05035 0)
(-0.00139212 -5.20947 0)
(-0.00119829 -5.27016 0)
(-0.000829626 -5.28701 0)
(-0.000354839 -5.28635 0)
(6.5851e-05 -5.28044 0)
(0.000373069 -5.27447 0)
(0.000551827 -5.27041 0)
(0.000625581 -5.26876 0)
(0.00066337 -5.26914 0)
(0.000682617 -5.2702 0)
(0.000714958 -5.26902 0)
(0.000784826 -5.25952 0)
(0.000883723 -5.22937 0)
(0.000857561 -5.154 0)
(0.000272264 -4.98391 0)
(0.00102203 -4.61042 0)
(-0.000514588 -3.57703 0)
(-0.00365635 -3.5828 0)
(0.00188886 -4.66876 0)
(-0.000810288 -5.04918 0)
(-0.0016757 -5.20957 0)
(-0.00183262 -5.27054 0)
(-0.00162647 -5.28775 0)
(-0.00121116 -5.28721 0)
(-0.000744021 -5.28117 0)
(-0.000347448 -5.27497 0)
(-5.93469e-05 -5.27069 0)
(0.000139956 -5.26887 0)
(0.000271811 -5.26914 0)
(0.000380033 -5.27012 0)
(0.000499384 -5.26883 0)
(0.000662395 -5.25916 0)
(0.000874285 -5.22859 0)
(0.00110807 -5.15218 0)
(0.00103298 -4.98039 0)
(0.00238883 -4.60562 0)
(-0.00214586 -3.57384 0)
(-0.00223775 -3.58552 0)
(0.00111541 -4.66657 0)
(-0.00078726 -5.04737 0)
(-0.00170895 -5.20878 0)
(-0.00223691 -5.27074 0)
(-0.00219698 -5.2885 0)
(-0.00183339 -5.28822 0)
(-0.00132251 -5.28222 0)
(-0.000814751 -5.27592 0)
(-0.000347135 -5.27151 0)
(7.1179e-05 -5.26961 0)
(0.000474768 -5.26987 0)
(0.000900579 -5.27087 0)
(0.00135128 -5.26957 0)
(0.00187545 -5.25985 0)
(0.00240365 -5.22931 0)
(0.00295673 -5.15289 0)
(0.00311544 -4.9806 0)
(0.00244123 -4.60544 0)
(-0.000429914 -3.57083 0)
(-0.000236128 -3.58751 0)
(0.000121952 -4.66652 0)
(-0.000587743 -5.04673 0)
(-0.0018037 -5.20863 0)
(-0.00224794 -5.27128 0)
(-0.00224432 -5.28963 0)
(-0.00194339 -5.2896 0)
(-0.00144987 -5.28365 0)
(-0.0008987 -5.27734 0)
(-0.000320352 -5.2729 0)
(0.000288002 -5.27104 0)
(0.000929505 -5.27142 0)
(0.00164937 -5.27268 0)
(0.00244026 -5.27175 0)
(0.00322783 -5.26245 0)
(0.00398232 -5.23248 0)
(0.0045892 -5.15661 0)
(0.00452725 -4.98364 0)
(0.00288179 -4.60509 0)
(0.00311656 -3.57135 0)
(-0.00228262 -3.59267 0)
(0.00140762 -4.66419 0)
(0.000121914 -5.04496 0)
(-0.000768557 -5.20871 0)
(-0.00104172 -5.27226 0)
(-0.00113223 -5.29084 0)
(-0.00106128 -5.29093 0)
(-0.000813065 -5.28508 0)
(-0.000426925 -5.27884 0)
(5.0283e-05 -5.27448 0)
(0.000588854 -5.27272 0)
(0.0011863 -5.27324 0)
(0.00183122 -5.27466 0)
(0.00246226 -5.2739 0)
(0.00302526 -5.26472 0)
(0.00352043 -5.23465 0)
(0.00384147 -5.15879 0)
(0.00369795 -4.98512 0)
(0.00407419 -4.60256 0)
(0.00286827 -3.56547 0)
(-0.00466265 -3.59522 0)
(0.00281397 -4.66199 0)
(0.00122268 -5.04279 0)
(0.00128926 -5.20784 0)
(0.0010885 -5.27212 0)
(0.000778599 -5.29095 0)
(0.000516309 -5.29131 0)
(0.000431734 -5.28571 0)
(0.00053975 -5.27968 0)
(0.000779783 -5.2755 0)
(0.00112247 -5.27386 0)
(0.00148488 -5.27442 0)
(0.00182871 -5.27577 0)
(0.00207348 -5.27486 0)
(0.00216534 -5.26544 0)
(0.00219255 -5.23508 0)
(0.00232126 -5.15867 0)
(0.00249351 -4.98404 0)
(0.00398899 -4.59959 0)
(0.00293416 -3.55826 0)
(-0.00246883 -3.59573 0)
(0.00188889 -4.6612 0)
(0.0010674 -5.04283 0)
(0.00190942 -5.20732 0)
(0.00205855 -5.27119 0)
(0.00194124 -5.29012 0)
(0.00173607 -5.29077 0)
(0.00158752 -5.28548 0)
(0.00155468 -5.27976 0)
(0.00163482 -5.2758 0)
(0.00178269 -5.27427 0)
(0.00194655 -5.27481 0)
(0.00205257 -5.27602 0)
(0.00203666 -5.27487 0)
(0.00193222 -5.26522 0)
(0.00179673 -5.23489 0)
(0.00189488 -5.15899 0)
(0.00212881 -4.98498 0)
(0.00412538 -4.59943 0)
(-0.00085582 -3.55173 0)
(0.0012833 -3.59501 0)
(-6.27653e-05 -4.66339 0)
(0.000502904 -5.04336 0)
(0.00155707 -5.20693 0)
(0.00200543 -5.27065 0)
(0.00227117 -5.2895 0)
(0.00233963 -5.29017 0)
(0.00229225 -5.28501 0)
(0.00225316 -5.27944 0)
(0.00223882 -5.27562 0)
(0.00224311 -5.27415 0)
(0.00222137 -5.27464 0)
(0.00212174 -5.2757 0)
(0.00194918 -5.27432 0)
(0.00170754 -5.26452 0)
(0.00149437 -5.23422 0)
(0.00151604 -5.15854 0)
(0.00178802 -4.98496 0)
(0.00404475 -4.60098 0)
(-0.00187563 -3.54562 0)
(0.0020372 -3.59491 0)
(-0.000127919 -4.66445 0)
(0.00028775 -5.04394 0)
(0.000861126 -5.20725 0)
(0.00138492 -5.27097 0)
(0.00185313 -5.28968 0)
(0.00214855 -5.29014 0)
(0.00227172 -5.28488 0)
(0.00232659 -5.27926 0)
(0.00233926 -5.27541 0)
(0.00230323 -5.27387 0)
(0.00221678 -5.27426 0)
(0.00204491 -5.27517 0)
(0.00183088 -5.27365 0)
(0.00161267 -5.26374 0)
(0.00144622 -5.23342 0)
(0.00142808 -5.15792 0)
(0.00184617 -4.98471 0)
(0.00236854 -4.60144 0)
(0.00327563 -3.53858 0)
(0.00457234 -3.5955 0)
(0.000196033 -4.66513 0)
(0.000123947 -5.04493 0)
(-0.000304598 -5.20857 0)
(-1.84065e-05 -5.27223 0)
(0.000480361 -5.2907 0)
(0.000987081 -5.29095 0)
(0.00140508 -5.28546 0)
(0.00171817 -5.27963 0)
(0.00193494 -5.2756 0)
(0.00207526 -5.2739 0)
(0.00213136 -5.27413 0)
(0.00211099 -5.2749 0)
(0.0020666 -5.27327 0)
(0.00201471 -5.26332 0)
(0.00198124 -5.23299 0)
(0.00189596 -5.15742 0)
(0.00202941 -4.98465 0)
(0.000886718 -4.60211 0)
(0.00481727 -3.53397 0)
(0.0029724 -3.59781 0)
(0.000667192 -4.66678 0)
(-0.00074916 -5.04556 0)
(-0.00183995 -5.20952 0)
(-0.00175916 -5.2735 0)
(-0.00119854 -5.29222 0)
(-0.000443094 -5.2925 0)
(0.00028563 -5.28688 0)
(0.000909486 -5.28085 0)
(0.00141171 -5.27659 0)
(0.00180579 -5.27469 0)
(0.00212585 -5.27477 0)
(0.00238739 -5.27544 0)
(0.00262946 -5.27376 0)
(0.00284671 -5.26377 0)
(0.00293231 -5.23348 0)
(0.00276747 -5.15806 0)
(0.00234737 -4.98499 0)
(0.000976348 -4.60081 0)
(0.00221624 -3.5322 0)
(-0.00234875 -3.60135 0)
(0.00156152 -4.66473 0)
(-0.000998273 -5.04439 0)
(-0.00205039 -5.21004 0)
(-0.00214235 -5.27494 0)
(-0.0017995 -5.29397 0)
(-0.00118438 -5.29433 0)
(-0.000440164 -5.28864 0)
(0.000278932 -5.28246 0)
(0.000919072 -5.27805 0)
(0.00148777 -5.27603 0)
(0.00199304 -5.27604 0)
(0.00248076 -5.27674 0)
(0.00296247 -5.27518 0)
(0.00336169 -5.26534 0)
(0.00353625 -5.23492 0)
(0.00335133 -5.15887 0)
(0.00250561 -4.98564 0)
(0.000811984 -4.60155 0)
(0.00226605 -3.53249 0)
(-0.00176237 -3.60584 0)
(0.00127039 -4.65975 0)
(-0.000376555 -5.04213 0)
(-0.00128142 -5.20984 0)
(-0.00164601 -5.27544 0)
(-0.00167812 -5.29501 0)
(-0.0013948 -5.29575 0)
(-0.000891871 -5.29021 0)
(-0.000308441 -5.28406 0)
(0.00027363 -5.27958 0)
(0.000807114 -5.27748 0)
(0.00129421 -5.27745 0)
(0.00174926 -5.27816 0)
(0.0021353 -5.27661 0)
(0.00238333 -5.26665 0)
(0.00242563 -5.23585 0)
(0.002134 -5.15934 0)
(0.00136436 -4.98581 0)
(-0.000139212 -4.59996 0)
(0.00392922 -3.53274 0)
(-0.000260151 -3.6063 0)
(2.39902e-05 -4.65693 0)
(0.000377048 -5.04036 0)
(-0.000349317 -5.20873 0)
(-0.000950174 -5.27465 0)
(-0.00134198 -5.29481 0)
(-0.00144928 -5.29617 0)
(-0.00130429 -5.29104 0)
(-0.00101305 -5.28506 0)
(-0.000665049 -5.28063 0)
(-0.000326246 -5.27851 0)
(-3.68895e-05 -5.27842 0)
(0.000189905 -5.27902 0)
(0.000323917 -5.27732 0)
(0.000333576 -5.26708 0)
(0.000225241 -5.23588 0)
(-4.33372e-06 -5.1588 0)
(-0.000499275 -4.98469 0)
(0.000367359 -4.59809 0)
(-0.00124139 -3.5339 0)
(0.000130135 -3.60821 0)
(-0.000525191 -4.65488 0)
(0.000355417 -5.03855 0)
(4.50904e-05 -5.2069 0)
(-0.000680669 -5.27309 0)
(-0.001371 -5.29382 0)
(-0.00180792 -5.29577 0)
(-0.00197328 -5.2911 0)
(-0.00195982 -5.2854 0)
(-0.00185672 -5.28107 0)
(-0.00175171 -5.27891 0)
(-0.0016784 -5.27868 0)
(-0.00170608 -5.27907 0)
(-0.00182914 -5.27711 0)
(-0.00199123 -5.26661 0)
(-0.00215514 -5.23504 0)
(-0.00212609 -5.15758 0)
(-0.00205364 -4.98372 0)
(-0.00066896 -4.59891 0)
(-0.000269428 -3.53276 0)
(0.000172065 -3.6072 0)
(0.000223562 -4.6601 0)
(-8.64229e-05 -5.0411 0)
(-0.000317732 -5.20735 0)
(-0.00113871 -5.27275 0)
(-0.00188723 -5.29344 0)
(-0.00241895 -5.29554 0)
(-0.00270408 -5.29103 0)
(-0.00282131 -5.28542 0)
(-0.0028584 -5.28108 0)
(-0.00286943 -5.2788 0)
(-0.00292838 -5.27833 0)
(-0.00307176 -5.2784 0)
(-0.00326756 -5.2761 0)
(-0.00342209 -5.26531 0)
(-0.00341819 -5.23348 0)
(-0.0031991 -5.15608 0)
(-0.00205344 -4.98222 0)
(-0.00276056 -4.5968 0)
(0.00396303 -3.53311 0)
(0.00363963 -3.60789 0)
(-0.000822038 -4.66174 0)
(0.000993439 -5.04124 0)
(0.000712869 -5.20654 0)
(-0.000183858 -5.27187 0)
(-0.0010198 -5.29271 0)
(-0.00173266 -5.29499 0)
(-0.00225018 -5.29063 0)
(-0.00256321 -5.28514 0)
(-0.00273547 -5.28088 0)
(-0.00282178 -5.27858 0)
(-0.00285541 -5.27803 0)
(-0.00286508 -5.27799 0)
(-0.00283594 -5.27563 0)
(-0.00269724 -5.26495 0)
(-0.0024226 -5.23356 0)
(-0.00226458 -5.15652 0)
(-0.00147992 -4.98268 0)
(-0.00133338 -4.59913 0)
(-0.00467049 -3.53491 0)
(0.00606446 -3.60387 0)
(-0.00136688 -4.66203 0)
(0.00181996 -5.03759 0)
(0.00180826 -5.20214 0)
(0.00113902 -5.26832 0)
(0.000391236 -5.29001 0)
(-0.000372615 -5.293 0)
(-0.00103779 -5.28926 0)
(-0.0015307 -5.2843 0)
(-0.00182012 -5.28046 0)
(-0.00193009 -5.27856 0)
(-0.00187659 -5.27837 0)
(-0.00168166 -5.27868 0)
(-0.00135548 -5.27664 0)
(-0.000977368 -5.26637 0)
(-0.00060497 -5.2356 0)
(-0.000509833 -5.15889 0)
(-0.00110443 -4.98491 0)
(0.000165067 -4.60463 0)
(-0.00633596 -3.53771 0)
(-0.000214128 -3.60246 0)
(0.00118414 -4.66586 0)
(0.00109332 -5.03745 0)
(0.000966931 -5.2006 0)
(0.000506299 -5.26633 0)
(7.11257e-05 -5.28807 0)
(-0.000348312 -5.29139 0)
(-0.00075678 -5.28809 0)
(-0.00106805 -5.28357 0)
(-0.00123885 -5.28018 0)
(-0.00126666 -5.27871 0)
(-0.00113636 -5.27894 0)
(-0.000874996 -5.27964 0)
(-0.0005227 -5.27792 0)
(-0.000185961 -5.26773 0)
(3.70948e-05 -5.23671 0)
(7.53152e-06 -5.15979 0)
(-0.000779319 -4.98514 0)
(-0.000623075 -4.60323 0)
(0.000698965 -3.5432 0)
(-0.00126272 -3.60764 0)
(0.00239478 -4.67 0)
(0.000734513 -5.03974 0)
(-0.000323568 -5.20174 0)
(-0.000857682 -5.26731 0)
(-0.00105156 -5.28874 0)
(-0.00108017 -5.29175 0)
(-0.00107764 -5.28833 0)
(-0.0010631 -5.28381 0)
(-0.00101419 -5.28053 0)
(-0.00090538 -5.27918 0)
(-0.000739053 -5.27954 0)
(-0.000501043 -5.28031 0)
(-0.000242614 -5.27855 0)
(-3.55306e-05 -5.26818 0)
(1.39693e-05 -5.23689 0)
(-6.6363e-05 -5.15965 0)
(-0.000448709 -4.98498 0)
(-0.00168029 -4.60309 0)
(0.00385387 -3.54253 0)
(-0.000613729 -3.61338 0)
(0.00214308 -4.66984 0)
(0.0016011 -5.03891 0)
(-0.000104822 -5.20141 0)
(-0.000751696 -5.26772 0)
(-0.000955516 -5.28956 0)
(-0.000945656 -5.29261 0)
(-0.000844211 -5.2891 0)
(-0.000721533 -5.28448 0)
(-0.000592441 -5.2811 0)
(-0.000450214 -5.27971 0)
(-0.000282725 -5.28005 0)
(-0.000104317 -5.2808 0)
(4.70364e-05 -5.27898 0)
(0.000151585 -5.26842 0)
(0.000103896 -5.23684 0)
(-3.23331e-05 -5.15931 0)
(-0.000539579 -4.98499 0)
(-0.00259971 -4.60295 0)
(0.00381649 -3.54504 0)
(-0.00410676 -3.6203 0)
(0.00334845 -4.66704 0)
(0.00186857 -5.03592 0)
(0.000476964 -5.19987 0)
(5.15217e-05 -5.26735 0)
(-0.000128299 -5.28971 0)
(-0.000162853 -5.29296 0)
(-0.000129829 -5.28947 0)
(-7.85898e-05 -5.28485 0)
(-3.77514e-06 -5.28149 0)
(9.19199e-05 -5.28013 0)
(0.000187516 -5.28046 0)
(0.000261029 -5.28118 0)
(0.000275514 -5.27929 0)
(0.000198879 -5.26864 0)
(1.50322e-05 -5.2368 0)
(-0.000214483 -5.15862 0)
(-0.000928143 -4.98359 0)
(-0.00372401 -4.60176 0)
(0.00465907 -3.54858 0)
(-0.00666273 -3.62542 0)
(0.00443507 -4.6639 0)
(0.00126591 -5.03357 0)
(0.000705989 -5.19803 0)
(0.000580493 -5.26619 0)
(0.000556839 -5.28915 0)
(0.000549442 -5.29271 0)
(0.000537065 -5.28939 0)
(0.000532904 -5.28487 0)
(0.000545541 -5.28156 0)
(0.000556414 -5.28021 0)
(0.000547946 -5.28051 0)
(0.000472412 -5.28111 0)
(0.000311538 -5.27902 0)
(3.98206e-05 -5.26807 0)
(-0.000337105 -5.2359 0)
(-0.00066606 -5.15755 0)
(-0.0008737 -4.98186 0)
(-0.00456751 -4.59827 0)
(0.00631853 -3.55184 0)
(-0.00613471 -3.62984 0)
(0.00386271 -4.65898 0)
(2.53146e-05 -5.02995 0)
(3.5174e-05 -5.1961 0)
(6.71499e-05 -5.26504 0)
(0.000183837 -5.28839 0)
(0.000301904 -5.29227 0)
(0.000416423 -5.28917 0)
(0.000513105 -5.28477 0)
(0.000602565 -5.28151 0)
(0.000660061 -5.28015 0)
(0.000653919 -5.28035 0)
(0.000560115 -5.28078 0)
(0.000370694 -5.27844 0)
(7.44531e-05 -5.26713 0)
(-0.000310638 -5.23442 0)
(-0.000682492 -5.15562 0)
(-0.000446212 -4.9801 0)
(-0.00291262 -4.59635 0)
(0.000627489 -3.55415 0)
(-0.00107268 -3.63452 0)
(0.00168154 -4.65757 0)
(-0.00179445 -5.03011 0)
(-0.00208466 -5.1965 0)
(-0.00211256 -5.26539 0)
(-0.00182094 -5.28883 0)
(-0.00139149 -5.29274 0)
(-0.000941885 -5.28969 0)
(-0.000540049 -5.28533 0)
(-0.000195436 -5.28202 0)
(7.49124e-05 -5.28057 0)
(0.000282696 -5.28067 0)
(0.000425291 -5.28103 0)
(0.000499705 -5.27867 0)
(0.00053436 -5.2674 0)
(0.000518718 -5.23476 0)
(0.000413041 -5.15604 0)
(0.000245736 -4.98106 0)
(-0.000304369 -4.59894 0)
(-0.00539168 -3.55866 0)
(0.00237633 -3.63642 0)
(-0.00134453 -4.65759 0)
(-0.002557 -5.03053 0)
(-0.00332073 -5.19726 0)
(-0.00363431 -5.26663 0)
(-0.00347614 -5.29032 0)
(-0.00305431 -5.29428 0)
(-0.00252958 -5.29111 0)
(-0.00201704 -5.28657 0)
(-0.00158171 -5.28311 0)
(-0.00122586 -5.28152 0)
(-0.000940422 -5.28153 0)
(-0.000709012 -5.28188 0)
(-0.000516075 -5.2796 0)
(-0.000360195 -5.26857 0)
(-0.000139288 -5.23636 0)
(1.85501e-05 -5.15805 0)
(-0.000128935 -4.98281 0)
(0.000504425 -4.60024 0)
(-0.0025212 -3.56326 0)
(0.00100188 -3.63568 0)
(-0.00281449 -4.65493 0)
(-0.00314846 -5.02945 0)
(-0.00382107 -5.1972 0)
(-0.00406373 -5.26739 0)
(-0.00407785 -5.29149 0)
(-0.00387493 -5.29556 0)
(-0.00355066 -5.29235 0)
(-0.00321205 -5.28767 0)
(-0.00291871 -5.28404 0)
(-0.00270029 -5.28226 0)
(-0.00255366 -5.28211 0)
(-0.00249002 -5.28229 0)
(-0.00247807 -5.27982 0)
(-0.00247709 -5.26855 0)
(-0.00232252 -5.23623 0)
(-0.00188199 -5.15817 0)
(-0.00104029 -4.98231 0)
(0.000446629 -4.59705 0)
(0.00196248 -3.5621 0)
(0.000209809 -3.63234 0)
(-0.00343814 -4.65329 0)
(-0.00309469 -5.02885 0)
(-0.00319462 -5.19676 0)
(-0.00335136 -5.26727 0)
(-0.00351411 -5.29172 0)
(-0.00361725 -5.296 0)
(-0.00361142 -5.29284 0)
(-0.00354337 -5.28813 0)
(-0.00343144 -5.28441 0)
(-0.00332004 -5.28247 0)
(-0.0032467 -5.28211 0)
(-0.0032167 -5.28201 0)
(-0.00321287 -5.27923 0)
(-0.00315831 -5.26774 0)
(-0.00295246 -5.23542 0)
(-0.00232945 -5.15781 0)
(-0.000835306 -4.98281 0)
(0.00107937 -4.59683 0)
(-0.000583964 -3.55677 0)
(0.00187998 -3.62406 0)
(-0.00426673 -4.65104 0)
(-0.00260253 -5.02776 0)
(-0.002098 -5.1961 0)
(-0.00217696 -5.26657 0)
(-0.00244026 -5.29099 0)
(-0.00273203 -5.29546 0)
(-0.00293556 -5.29254 0)
(-0.00302284 -5.28806 0)
(-0.00299279 -5.28448 0)
(-0.00287326 -5.28264 0)
(-0.0026708 -5.2823 0)
(-0.00239683 -5.28221 0)
(-0.00205626 -5.27945 0)
(-0.00160542 -5.26819 0)
(-0.00104901 -5.23648 0)
(-0.000276714 -5.15965 0)
(0.000802456 -4.98583 0)
(0.00157351 -4.60165 0)
(-0.00215122 -3.55211 0)
(0.00540345 -3.61752 0)
(-0.0051315 -4.65124 0)
(-0.00244807 -5.02778 0)
(-0.00207385 -5.19591 0)
(-0.00203729 -5.26596 0)
(-0.00218271 -5.29024 0)
(-0.0023738 -5.29484 0)
(-0.00249075 -5.29219 0)
(-0.00250117 -5.28805 0)
(-0.0023772 -5.28482 0)
(-0.00211352 -5.28333 0)
(-0.0016963 -5.28335 0)
(-0.00111681 -5.28363 0)
(-0.000412654 -5.28131 0)
(0.000348852 -5.27055 0)
(0.00104033 -5.23934 0)
(0.00157626 -5.16288 0)
(0.00150287 -4.98963 0)
(0.00196614 -4.60461 0)
(-0.00459808 -3.55288 0)
(0.0036697 -3.61271 0)
(-0.0045583 -4.65424 0)
(-0.00190585 -5.02982 0)
(-0.00220589 -5.19695 0)
(-0.00219404 -5.26629 0)
(-0.00231226 -5.29036 0)
(-0.00240542 -5.29502 0)
(-0.00239191 -5.29256 0)
(-0.00224523 -5.28865 0)
(-0.00197594 -5.2857 0)
(-0.00158724 -5.28451 0)
(-0.00106192 -5.28487 0)
(-0.000413299 -5.2855 0)
(0.00029673 -5.28348 0)
(0.000942545 -5.27286 0)
(0.00136505 -5.24152 0)
(0.00143055 -5.16472 0)
(0.000783129 -4.99107 0)
(0.00121598 -4.60616 0)
(-0.0030906 -3.55083 0)
(-2.03173e-05 -3.61155 0)
(-0.00191221 -4.65528 0)
(-0.00136619 -5.03245 0)
(-0.00184356 -5.19922 0)
(-0.00194183 -5.2678 0)
(-0.00209381 -5.2914 0)
(-0.00215021 -5.29588 0)
(-0.00206697 -5.29345 0)
(-0.00186639 -5.28963 0)
(-0.00156395 -5.2868 0)
(-0.00118073 -5.28573 0)
(-0.000735984 -5.28624 0)
(-0.000234674 -5.28696 0)
(0.000238452 -5.28494 0)
(0.000588999 -5.27411 0)
(0.000679462 -5.24228 0)
(0.000487014 -5.1648 0)
(0.000172001 -4.9906 0)
(-0.000957466 -4.60531 0)
(0.00277416 -3.55152 0)
(-0.00213682 -3.60683 0)
(3.47263e-05 -4.65633 0)
(-0.000424018 -5.03355 0)
(-0.000192166 -5.19971 0)
(-0.00031298 -5.268 0)
(-0.000570336 -5.29168 0)
(-0.000800724 -5.29621 0)
(-0.000916427 -5.29387 0)
(-0.000912235 -5.29016 0)
(-0.00081157 -5.28741 0)
(-0.000648079 -5.28642 0)
(-0.000464712 -5.28695 0)
(-0.000302234 -5.28761 0)
(-0.000227932 -5.28537 0)
(-0.00028346 -5.27412 0)
(-0.000545413 -5.24161 0)
(-0.00107452 -5.16346 0)
(-0.00138216 -4.98938 0)
(-0.000792284 -4.60509 0)
(-0.00314537 -3.55312 0)
(-0.00279719 -3.60436 0)
(0.000748177 -4.65449 0)
(0.000747388 -5.03139 0)
(0.00152506 -5.19749 0)
(0.00164524 -5.26611 0)
(0.00140517 -5.29012 0)
(0.00101768 -5.29508 0)
(0.00064401 -5.29312 0)
(0.000357783 -5.2897 0)
(0.000161076 -5.28715 0)
(3.05717e-05 -5.28624 0)
(-9.65788e-05 -5.28669 0)
(-0.000275895 -5.28713 0)
(-0.000543939 -5.28451 0)
(-0.000877029 -5.27275 0)
(-0.00128998 -5.23966 0)
(-0.00189914 -5.16063 0)
(-0.00233683 -4.98555 0)
(0.000389917 -4.60411 0)
(-0.00850177 -3.55213 0)
(0.0024337 -3.60494 0)
(0.00108936 -4.6573 0)
(0.00153185 -5.03301 0)
(0.00207121 -5.19771 0)
(0.00213526 -5.26552 0)
(0.00201943 -5.28915 0)
(0.00178579 -5.29409 0)
(0.00149535 -5.2923 0)
(0.00123148 -5.28907 0)
(0.00100947 -5.28666 0)
(0.000824889 -5.2858 0)
(0.000639403 -5.28618 0)
(0.000419704 -5.28643 0)
(0.000175599 -5.28357 0)
(-4.75608e-05 -5.27158 0)
(-0.000318249 -5.23822 0)
(-0.000652233 -5.15874 0)
(-0.00109127 -4.9833 0)
(-0.000364627 -4.60484 0)
(-0.00327795 -3.55494 0)
(0.00049646 -3.60683 0)
(0.00295391 -4.66453 0)
(0.00154616 -5.03698 0)
(0.00187753 -5.20055 0)
(0.00182961 -5.26767 0)
(0.00191633 -5.2905 0)
(0.00196175 -5.29488 0)
(0.0019481 -5.29272 0)
(0.00189812 -5.28929 0)
(0.00183478 -5.28681 0)
(0.00178432 -5.28595 0)
(0.00173889 -5.28636 0)
(0.00169283 -5.2867 0)
(0.00162596 -5.28401 0)
(0.00153539 -5.27228 0)
(0.0013241 -5.23915 0)
(0.000929355 -5.1595 0)
(0.000187995 -4.98426 0)
(-0.000891407 -4.6063 0)
(-0.00108022 -3.55921 0)
(-0.00244436 -3.60914 0)
(0.0042669 -4.6655 0)
(0.00216176 -5.03693 0)
(0.00255105 -5.20054 0)
(0.00263042 -5.26815 0)
(0.00277229 -5.29117 0)
(0.00283252 -5.29548 0)
(0.00281281 -5.29313 0)
(0.00275131 -5.28957 0)
(0.00267498 -5.28706 0)
(0.00262198 -5.28627 0)
(0.00258744 -5.2868 0)
(0.00257412 -5.28732 0)
(0.00254276 -5.28484 0)
(0.00243104 -5.27336 0)
(0.00220681 -5.24051 0)
(0.00171203 -5.16097 0)
(0.000477054 -4.9852 0)
(-5.81159e-07 -4.60754 0)
(-0.00260498 -3.5628 0)
(0.00468915 -3.61164 0)
(0.00286965 -4.66386 0)
(0.00290839 -5.03422 0)
(0.00295819 -5.19781 0)
(0.00306866 -5.2661 0)
(0.00321398 -5.28991 0)
(0.00326258 -5.29465 0)
(0.00318909 -5.29252 0)
(0.00304608 -5.28913 0)
(0.00286453 -5.28674 0)
(0.00267069 -5.28602 0)
(0.00245134 -5.28661 0)
(0.00219503 -5.28712 0)
(0.0018772 -5.28459 0)
(0.00144204 -5.27298 0)
(0.000957168 -5.23991 0)
(0.00044618 -5.16027 0)
(-0.000688106 -4.98378 0)
(0.000156003 -4.60522 0)
(0.00017912 -3.56448 0)
(0.00552236 -3.61685 0)
(0.0025824 -4.66718 0)
(0.00189771 -5.03464 0)
(0.00110444 -5.19844 0)
(0.00122067 -5.26661 0)
(0.00162983 -5.29012 0)
(0.00200312 -5.29461 0)
(0.00221706 -5.29236 0)
(0.00226908 -5.28886 0)
(0.00218653 -5.28634 0)
(0.00198256 -5.28543 0)
(0.00165208 -5.28576 0)
(0.00118637 -5.28594 0)
(0.000612322 -5.28302 0)
(-2.39661e-05 -5.27095 0)
(-0.000563478 -5.23751 0)
(-0.000771566 -5.15767 0)
(-0.000750889 -4.98071 0)
(-0.000678385 -4.60082 0)
(0.00326664 -3.56378 0)
(0.000333286 -3.62593 0)
(0.00317098 -4.66704 0)
(0.000993589 -5.03481 0)
(-0.000268631 -5.20009 0)
(-0.000148928 -5.26873 0)
(0.000387713 -5.29197 0)
(0.000935727 -5.29598 0)
(0.00134381 -5.29323 0)
(0.00156385 -5.28926 0)
(0.00160284 -5.28632 0)
(0.00148721 -5.285 0)
(0.00122581 -5.28493 0)
(0.000836286 -5.28471 0)
(0.000362203 -5.28144 0)
(-0.00010045 -5.26921 0)
(-0.000443897 -5.23599 0)
(-0.000519757 -5.15689 0)
(0.0002888 -4.98044 0)
(-0.00143479 -4.60018 0)
(0.00406042 -3.56224 0)
(-0.000977933 -3.63216 0)
(0.00282095 -4.66217 0)
(0.00109866 -5.03194 0)
(1.32932e-05 -5.19947 0)
(1.71298e-05 -5.26939 0)
(0.000401649 -5.29308 0)
(0.000867663 -5.29705 0)
(0.00123516 -5.29402 0)
(0.00146436 -5.28976 0)
(0.00154392 -5.28651 0)
(0.00152391 -5.28495 0)
(0.00141524 -5.28469 0)
(0.00125016 -5.28439 0)
(0.00105197 -5.28115 0)
(0.00082763 -5.26914 0)
(0.000579978 -5.2365 0)
(0.000308031 -5.15841 0)
(0.000711757 -4.98283 0)
(-0.000582837 -4.60199 0)
(0.00126321 -3.56134 0)
(0.000560624 -3.6383 0)
(0.00201545 -4.65949 0)
(0.000470357 -5.03043 0)
(-0.000214206 -5.19937 0)
(-0.00023924 -5.27004 0)
(6.80262e-05 -5.29391 0)
(0.000501116 -5.29781 0)
(0.000873333 -5.29462 0)
(0.00114489 -5.29018 0)
(0.00129924 -5.2868 0)
(0.00136821 -5.28517 0)
(0.00138321 -5.28491 0)
(0.00138812 -5.28471 0)
(0.00139786 -5.2816 0)
(0.00135473 -5.26975 0)
(0.00119968 -5.23735 0)
(0.000920223 -5.1598 0)
(0.000444556 -4.98558 0)
(4.21216e-05 -4.60514 0)
(0.000498411 -3.56054 0)
(-0.00136345 -3.63916 0)
(0.000995237 -4.65738 0)
(-0.000777982 -5.02889 0)
(-0.000686757 -5.19905 0)
(-0.000652563 -5.27055 0)
(-0.000397605 -5.29463 0)
(-5.31748e-05 -5.2985 0)
(0.000251282 -5.2952 0)