# vtk DataFile Version 2.0
track0
ASCII
DATASET POLYDATA
POINTS 12123 float
-0.0205 0.001 1e-05
-0.0204928 0.0011 1e-05
-0.0204854 0.00119999 1e-05
-0.0204779 0.00129997 1e-05
-0.0204702 0.00139994 1e-05
-0.0204624 0.0015 1e-05
-0.0204545 0.0016 1e-05
-0.0204464 0.00169999 1e-05
-0.0204381 0.00179996 1e-05
-0.0204296 0.00189991 1e-05
-0.020421 0.002 1e-05
-0.0204122 0.0021 1e-05
-0.0204031 0.00219998 1e-05
-0.0203939 0.00229994 1e-05
-0.0203844 0.00239989 1e-05
-0.0203747 0.0025 1e-05
-0.0203648 0.0026 1e-05
-0.0203547 0.00269998 1e-05
-0.0203444 0.00279993 1e-05
-0.0203338 0.00289986 1e-05
-0.0203229 0.003 1e-05
-0.0203154 0.00306788 1e-05
-0.0203078 0.00313575 1e-05
-0.0203001 0.00320361 1e-05
-0.0202922 0.00327145 1e-05
-0.0202854 0.00332957 1e-05
-0.0202813 0.00336366 1e-05
-0.0202773 0.00339774 1e-05
-0.0202732 0.00343182 1e-05
-0.020269 0.00346589 1e-05
-0.0202648 0.0035 1e-05
-0.0202525 0.0036 1e-05
-0.02024 0.00369997 1e-05
-0.0202271 0.0037999 1e-05
-0.020214 0.0038998 1e-05
-0.0202006 0.004 1e-05
-0.020187 0.0041 1e-05
-0.0201731 0.00419996 1e-05
-0.0201589 0.00429989 1e-05
-0.0201445 0.00439978 1e-05
-0.0201297 0.0045 1e-05
-0.0201147 0.0046 1e-05
-0.0200994 0.00469996 1e-05
-0.0200839 0.00479987 1e-05
-0.0200681 0.00489975 1e-05
-0.0200519 0.005 1e-05
-0.020046 0.00503603 1e-05
-0.02004 0.00507206 1e-05
-0.020034 0.00510808 1e-05
-0.020028 0.00514409 1e-05
-0.0200223 0.00517795 1e-05
-0.0200114 0.00524236 1e-05
-0.0200004 0.00530675 1e-05
-0.0199893 0.00537112 1e-05
-0.019978 0.00543547 1e-05
-0.0199666 0.0055 1e-05
-0.0199488 0.0056 1e-05
-0.0199306 0.00569995 1e-05
-0.0199122 0.00579985 1e-05
-0.0198935 0.00589969 1e-05
-0.0198744 0.006 1e-05
-0.0198551 0.0061 1e-05
-0.0198355 0.00619994 1e-05
-0.0198156 0.00629983 1e-05
-0.0197954 0.00639966 1e-05
-0.0197749 0.0065 1e-05
-0.0197722 0.00651296 1e-05
-0.0197695 0.00652592 1e-05
-0.0197667 0.00653888 1e-05
-0.019764 0.00655184 1e-05
-0.0197614 0.00656457 1e-05
-0.0197431 0.00665165 1e-05
-0.0197245 0.00673869 1e-05
-0.0197058 0.00682569 1e-05
-0.0196868 0.00691263 1e-05
-0.0196676 0.007 1e-05
-0.0196452 0.0071 1e-05
-0.0196226 0.00719993 1e-05
-0.0195996 0.0072998 1e-05
-0.0195764 0.0073996 1e-05
-0.0195527 0.0075 1e-05
-0.0195427 0.00754204 1e-05
-0.0195326 0.00758406 1e-05
-0.0195224 0.00762607 1e-05
-0.0195122 0.00766807 1e-05
-0.0195025 0.00770789 1e-05
-0.0194882 0.00776631 1e-05
-0.0194737 0.00782471 1e-05
-0.0194592 0.00788308 1e-05
-0.0194445 0.00794143 1e-05
-0.0194297 0.008 1e-05
-0.0194042 0.0081 1e-05
-0.0193784 0.00819992 1e-05
-0.0193523 0.00829977 1e-05
-0.0193259 0.00839953 1e-05
-0.019299 0.0085 1e-05
-0.0192884 0.00853933 1e-05
-0.0192777 0.00857864 1e-05
-0.0192669 0.00861794 1e-05
-0.0192561 0.00865723 1e-05
-0.0192457 0.00869479 1e-05
-0.0192288 0.00875583 1e-05
-0.0192118 0.00881684 1e-05
-0.0191946 0.00887782 1e-05
-0.0191773 0.00893877 1e-05
-0.0191598 0.009 1e-05
-0.0191311 0.0091 1e-05
-0.019102 0.00919991 1e-05
-0.0190726 0.00929973 1e-05
-0.0190429 0.00939946 1e-05
-0.0190126 0.0095 1e-05
-0.0190083 0.00951418 1e-05
-0.019004 0.00952837 1e-05
-0.0189997 0.00954255 1e-05
-0.0189953 0.00955673 1e-05
-0.018991 0.0095707 1e-05
-0.0189647 0.00965656 1e-05
-0.0189381 0.00974235 1e-05
-0.0189113 0.00982806 1e-05
-0.0188842 0.00991371 1e-05
-0.0188567 0.01 1e-05
-0.018833 0.0100735 1e-05
-0.0188092 0.010147 1e-05
-0.0187852 0.0102204 1e-05
-0.018761 0.0102937 1e-05
-0.0187384 0.0103618 1e-05
-0.0187291 0.0103895 1e-05
-0.0187199 0.0104171 1e-05
-0.0187106 0.0104447 1e-05
-0.0187012 0.0104723 1e-05
-0.0186919 0.0105 1e-05
-0.0186579 0.0106 1e-05
-0.0186236 0.0106999 1e-05
-0.018589 0.0107997 1e-05
-0.0185541 0.0108993 1e-05
-0.0185184 0.011 1e-05
-0.0185123 0.0110171 1e-05
-0.0185062 0.0110342 1e-05
-0.0185 0.0110514 1e-05
-0.0184938 0.0110685 1e-05
-0.0184878 0.0110853 1e-05
-0.0184578 0.0111683 1e-05
-0.0184277 0.0112511 1e-05
-0.0183973 0.0113339 1e-05
-0.0183667 0.0114166 1e-05
-0.0183355 0.0115 1e-05
-0.0183162 0.0115512 1e-05
-0.0182969 0.0116023 1e-05
-0.0182775 0.0116534 1e-05
-0.0182579 0.0117044 1e-05
-0.0182392 0.0117532 1e-05
-0.0182201 0.0118026 1e-05
-0.018201 0.0118519 1e-05
-0.0181817 0.0119012 1e-05
-0.0181624 0.0119505 1e-05
-0.0181429 0.012 1e-05
-0.0181129 0.012076 1e-05
-0.0180826 0.0121519 1e-05
-0.0180521 0.0122277 1e-05
-0.0180215 0.0123034 1e-05
-0.0179926 0.0123743 1e-05
-0.0179823 0.0123994 1e-05
-0.0179719 0.0124246 1e-05
-0.0179616 0.0124497 1e-05
-0.0179512 0.0124748 1e-05
-0.0179407 0.0125 1e-05
-0.0179022 0.0125928 1e-05
-0.0178633 0.0126854 1e-05
-0.0178242 0.012778 1e-05
-0.0177848 0.0128704 1e-05
-0.017748 0.0129558 1e-05
-0.0177441 0.0129646 1e-05
-0.0177403 0.0129735 1e-05
-0.0177365 0.0129823 1e-05
-0.0177326 0.0129912 1e-05
-0.0177288 0.013 1e-05
-0.0176852 0.0131 1e-05
-0.0176413 0.0131998 1e-05
-0.017597 0.0132995 1e-05
-0.0175524 0.0133991 1e-05
-0.0175067 0.0135 1e-05
-0.0175064 0.0135006 1e-05
-0.0175062 0.0135012 1e-05
-0.0175059 0.0135018 1e-05
-0.0175056 0.0135024 1e-05
-0.0175053 0.0135029 1e-05
-0.0174599 0.0136024 1e-05
-0.0174142 0.0137016 1e-05
-0.017368 0.0138007 1e-05
-0.0173216 0.0138996 1e-05
-0.017274 0.014 1e-05
-0.0172721 0.0140039 1e-05
-0.0172703 0.0140078 1e-05
-0.0172684 0.0140117 1e-05
-0.0172665 0.0140156 1e-05
-0.0172647 0.0140195 1e-05
-0.0172186 0.0141156 1e-05
-0.0171722 0.0142116 1e-05
-0.0171255 0.0143073 1e-05
-0.0170785 0.0144029 1e-05
-0.0170304 0.0145 1e-05
-0.0170295 0.0145018 1e-05
-0.0170286 0.0145035 1e-05
-0.0170277 0.0145053 1e-05
-0.0170268 0.0145071 1e-05
-0.0170259 0.0145088 1e-05
-0.0169786 0.0146034 1e-05
-0.0169309 0.0146978 1e-05
-0.0168829 0.014792 1e-05
-0.0168345 0.0148861 1e-05
-0.0167891 0.0149737 1e-05
-0.0167864 0.014979 1e-05
-0.0167836 0.0149842 1e-05
-0.0167809 0.0149895 1e-05
-0.0167781 0.0149947 1e-05
-0.0167754 0.015 1e-05
-0.0167311 0.0150845 1e-05
-0.0166866 0.0151689 1e-05
-0.0166419 0.0152531 1e-05
-0.0165969 0.0153372 1e-05
-0.0165542 0.0154163 1e-05
-0.0165451 0.015433 1e-05
-0.016536 0.0154498 1e-05
-0.0165269 0.0154665 1e-05
-0.0165178 0.0154832 1e-05
-0.0165086 0.0155 1e-05
-0.0164711 0.0155685 1e-05
-0.0164335 0.0156369 1e-05
-0.0163956 0.0157053 1e-05
-0.0163576 0.0157735 1e-05
-0.0163212 0.0158385 1e-05
-0.016303 0.0158708 1e-05
-0.0162847 0.0159031 1e-05
-0.0162664 0.0159353 1e-05
-0.0162481 0.0159676 1e-05
-0.0162296 0.016 1e-05
-0.0162017 0.0160488 1e-05
-0.0161737 0.0160976 1e-05
-0.0161456 0.0161464 1e-05
-0.0161174 0.0161951 1e-05
-0.01609 0.0162422 1e-05
-0.0160599 0.0162937 1e-05
-0.0160297 0.0163452 1e-05
-0.0159994 0.0163967 1e-05
-0.015969 0.0164481 1e-05
-0.0159382 0.0165 1e-05
-0.0159227 0.0165259 1e-05
-0.0159072 0.0165519 1e-05
-0.0158916 0.0165778 1e-05
-0.0158761 0.0166037 1e-05
-0.0158607 0.0166291 1e-05
-0.015816 0.0167033 1e-05
-0.015771 0.0167773 1e-05
-0.0157258 0.0168513 1e-05
-0.0156804 0.0169251 1e-05
-0.015634 0.017 1e-05
-0.0156339 0.0170002 1e-05
-0.0156337 0.0170005 1e-05
-0.0156336 0.0170007 1e-05
-0.0156335 0.0170009 1e-05
-0.0156333 0.0170011 1e-05
-0.0155882 0.0170735 1e-05
-0.0155429 0.0171458 1e-05
-0.0154973 0.017218 1e-05
-0.0154516 0.01729 1e-05
-0.0154077 0.0173588 1e-05
-0.0153896 0.017387 1e-05
-0.0153714 0.0174153 1e-05
-0.0153532 0.0174435 1e-05
-0.015335 0.0174716 1e-05
-0.0153166 0.0175 1e-05
-0.01529 0.0175408 1e-05
-0.0152634 0.0175816 1e-05
-0.0152368 0.0176223 1e-05
-0.0152101 0.017663 1e-05
-0.0151839 0.0177026 1e-05
-0.0151446 0.0177621 1e-05
-0.0151051 0.0178215 1e-05
-0.0150655 0.0178808 1e-05
-0.0150258 0.01794 1e-05
-0.0149853 0.018 1e-05
-0.0149806 0.0180069 1e-05
-0.0149759 0.0180138 1e-05
-0.0149713 0.0180206 1e-05
-0.0149666 0.0180275 1e-05
-0.0149619 0.0180344 1e-05
-0.0149179 0.0180991 1e-05
-0.0148737 0.0181638 1e-05
-0.0148293 0.0182283 1e-05
-0.0147848 0.0182927 1e-05
-0.0147417 0.0183547 1e-05
-0.0147214 0.0183838 1e-05
-0.0147011 0.0184128 1e-05
-0.0146807 0.0184418 1e-05
-0.0146604 0.0184708 1e-05
-0.0146398 0.0185 1e-05
-0.0146165 0.0185329 1e-05
-0.0145931 0.0185658 1e-05
-0.0145698 0.0185987 1e-05
-0.0145464 0.0186316 1e-05
-0.0145233 0.0186638 1e-05
-0.01448 0.0187242 1e-05
-0.0144365 0.0187846 1e-05
-0.0143929 0.0188448 1e-05
-0.0143491 0.018905 1e-05
-0.0143067 0.018963 1e-05
-0.0143012 0.0189704 1e-05
-0.0142958 0.0189778 1e-05
-0.0142904 0.0189852 1e-05
-0.0142849 0.0189926 1e-05
-0.0142795 0.019 1e-05
-0.0142419 0.0190509 1e-05
-0.0142043 0.0191018 1e-05
-0.0141665 0.0191526 1e-05
-0.0141287 0.0192033 1e-05
-0.0140917 0.0192526 1e-05
-0.0140545 0.019302 1e-05
-0.0140172 0.0193515 1e-05
-0.0139797 0.0194008 1e-05
-0.0139422 0.0194501 1e-05
-0.013904 0.0195 1e-05
-0.0138989 0.0195066 1e-05
-0.0138938 0.0195132 1e-05
-0.0138887 0.0195198 1e-05
-0.0138836 0.0195265 1e-05
-0.0138786 0.0195331 1e-05
-0.0138363 0.019588 1e-05
-0.0137939 0.0196428 1e-05
-0.0137513 0.0196975 1e-05
-0.0137087 0.0197521 1e-05
-0.0136671 0.0198051 1e-05
-0.0136364 0.0198441 1e-05
-0.0136056 0.019883 1e-05
-0.0135748 0.0199219 1e-05
-0.0135439 0.0199607 1e-05
-0.0135126 0.02 1e-05
-0.0135016 0.0200138 1e-05
-0.0134905 0.0200276 1e-05
-0.0134794 0.0200414 1e-05
-0.0134683 0.0200552 1e-05
-0.0134573 0.0200689 1e-05
-0.0134157 0.0201206 1e-05
-0.013374 0.0201723 1e-05
-0.0133322 0.0202238 1e-05
-0.0132902 0.0202752 1e-05
-0.0132493 0.0203253 1e-05
-0.0132205 0.0203602 1e-05
-0.0131918 0.0203951 1e-05
-0.013163 0.02043 1e-05
-0.0131341 0.0204648 1e-05
-0.0131048 0.0205 1e-05
-0.0130924 0.0205149 1e-05
-0.01308 0.0205297 1e-05
-0.0130676 0.0205446 1e-05
-0.0130552 0.0205594 1e-05
-0.0130429 0.0205742 1e-05
-0.0130019 0.020623 1e-05
-0.0129609 0.0206717 1e-05
-0.0129197 0.0207204 1e-05
-0.0128785 0.020769 1e-05
-0.0128381 0.0208164 1e-05
-0.0128067 0.0208531 1e-05
-0.0127752 0.0208898 1e-05
-0.0127437 0.0209264 1e-05
-0.0127121 0.020963 1e-05
-0.0126801 0.021 1e-05
-0.0126711 0.0210104 1e-05
-0.0126621 0.0210208 1e-05
-0.012653 0.0210311 1e-05
-0.012644 0.0210415 1e-05
-0.012635 0.0210518 1e-05
-0.0125947 0.021098 1e-05
-0.0125544 0.0211442 1e-05
-0.0125139 0.0211902 1e-05
[...]
POINT_DATA 12123
 FIELD attributes 2
p 1 12123 float
-0.00704451 -0.0077489 -0.00845254 -0.00915594 -0.00985929 -0.0105643 -0.0112693 -0.0119731 -0.0126754 -0.0133777 -0.0140799 -0.0147588 -0.0154372 -0.0161155 -0.0167925 -0.0174703 -0.0181444 -0.0188183 -0.0194922 -0.0201659 -0.0208398 -0.0212949 -0.0217495 -0.0222042 -0.0226588 -0.0230479 -0.0232766 -0.0235051 -0.0237335 -0.023962 -0.0241906 -0.0248549 -0.0255186 -0.0261822 -0.0268456 -0.0275111 -0.0281702 -0.0288291 -0.029487 -0.0301446 -0.0308044 -0.0314585 -0.0321124 -0.0327662 -0.0334199 -0.0340754 -0.0343096 -0.0345439 -0.0347781 -0.0350122 -0.0352323 -0.0356516 -0.0360704 -0.0364892 -0.0369079 -0.0373275 -0.037975 -0.0386218 -0.0392679 -0.0399138 -0.0405627 -0.0412071 -0.0418511 -0.0424948 -0.0431383 -0.0437846 -0.0438679 -0.043951 -0.0440342 -0.0441173 -0.0441987 -0.0447573 -0.0453158 -0.0458742 -0.0464323 -0.0469934 -0.0476333 -0.0482729 -0.0489122 -0.0495508 -0.0501932 -0.0504612 -0.0507293 -0.0509974 -0.0512654 -0.0515198 -0.0518929 -0.0522656 -0.0526383 -0.0530109 -0.0533847 -0.0540223 -0.0546593 -0.0552958 -0.0559315 -0.0565716 -0.0568221 -0.0570723 -0.0573225 -0.0575726 -0.0578115 -0.0582 -0.0585885 -0.0589768 -0.059365 -0.0597552 -0.0603917 -0.0610278 -0.0616635 -0.0622988 -0.0629391 -0.0630292 -0.0631195 -0.0632097 -0.0633 -0.0633891 -0.0639356 -0.0644815 -0.0650272 -0.0655725 -0.0661219 -0.0665905 -0.0670585 -0.0675264 -0.0679939 -0.0684279 -0.0686039 -0.06878 -0.0689561 -0.0691321 -0.0693087 -0.0699462 -0.0705835 -0.0712202 -0.0718561 -0.0724988 -0.0726081 -0.0727176 -0.0728271 -0.0729365 -0.0730444 -0.0735744 -0.0741038 -0.0746329 -0.0751615 -0.0756947 -0.0760227 -0.0763503 -0.0766778 -0.0770051 -0.0773175 -0.0776334 -0.0779493 -0.0782651 -0.0785807 -0.0788984 -0.0793865 -0.0798744 -0.0803619 -0.080849 -0.0813052 -0.0814668 -0.0816283 -0.0817896 -0.081951 -0.0821126 -0.0827107 -0.083308 -0.0839046 -0.0845006 -0.0850515 -0.0851082 -0.0851651 -0.085222 -0.0852789 -0.0853361 -0.0859827 -0.0866287 -0.0872739 -0.0879183 -0.0885719 -0.0885757 -0.0885795 -0.0885833 -0.0885872 -0.088591 -0.089236 -0.0898799 -0.0905229 -0.091165 -0.0918165 -0.0918421 -0.0918677 -0.0918932 -0.0919187 -0.091944 -0.0925694 -0.0931941 -0.093818 -0.0944409 -0.0950736 -0.0950852 -0.0950967 -0.0951083 -0.09512 -0.0951317 -0.0957493 -0.0963657 -0.0969811 -0.0975955 -0.098168 -0.098202 -0.0982362 -0.0982704 -0.0983045 -0.0983389 -0.0988926 -0.0994457 -0.099998 -0.10055 -0.101069 -0.101178 -0.101287 -0.101396 -0.101505 -0.101615 -0.102065 -0.102515 -0.102964 -0.103413 -0.10384 -0.104051 -0.104262 -0.104473 -0.104684 -0.104896 -0.105218 -0.10554 -0.105861 -0.106183 -0.106494 -0.106832 -0.107169 -0.107506 -0.107843 -0.108183 -0.108355 -0.108527 -0.108698 -0.108869 -0.109037 -0.109524 -0.11001 -0.110495 -0.11098 -0.111472 -0.111473 -0.111475 -0.111476 -0.111478 -0.111479 -0.111955 -0.112431 -0.112906 -0.113379 -0.113831 -0.114015 -0.114199 -0.114382 -0.114566 -0.114751 -0.11502 -0.115288 -0.115556 -0.115824 -0.116086 -0.116473 -0.116859 -0.117245 -0.11763 -0.118019 -0.118065 -0.11811 -0.118155 -0.118201 -0.118246 -0.118667 -0.119088 -0.119508 -0.119928 -0.120331 -0.120518 -0.120704 -0.12089 -0.121075 -0.121263 -0.121477 -0.121691 -0.121905 -0.122118 -0.122327 -0.122713 -0.123099 -0.123484 -0.123868 -0.12424 -0.124287 -0.124333 -0.12438 -0.124426 -0.124472 -0.124797 -0.125121 -0.125445 -0.125769 -0.126083 -0.126392 -0.126701 -0.127009 -0.127317 -0.12763 -0.127672 -0.127714 -0.127756 -0.127798 -0.12784 -0.128182 -0.128523 -0.128863 -0.129203 -0.129531 -0.129768 -0.130004 -0.13024 -0.130475 -0.130713 -0.130798 -0.130883 -0.130969 -0.131054 -0.13114 -0.13145 -0.131761 -0.132072 -0.132381 -0.132683 -0.132886 -0.13309 -0.133294 -0.133497 -0.133704 -0.133793 -0.133882 -0.13397 -0.134059 -0.134147 -0.134429 -0.134711 -0.134992 -0.135273 -0.135546 -0.13575 -0.135955 -0.136159 -0.136363 -0.136568 -0.136626 -0.136685 -0.136745 -0.136804 -0.136864 -0.137117 -0.137371 -0.137624 -0.137876 -0.138123 -0.138351 -0.138581 -0.13881 -0.139038 -0.13927 -0.139275 -0.13928 -0.139285 -0.13929 -0.139295 -0.139523 -0.139749 -0.139974 -0.140198 -0.140416 -0.140625 -0.140832 -0.141039 -0.141246 -0.14145 -0.141512 -0.141572 -0.141632 -0.141692 -0.141751 -0.141885 -0.14202 -0.142154 -0.142288 -0.142421 -0.142598 -0.142778 -0.142958 -0.143139 -0.143318 -0.143447 -0.143575 -0.143703 -0.14383 -0.14396 -0.143996 -0.14403 -0.144065 -0.144099 -0.144131 -0.144284 -0.144439 -0.144593 -0.144746 -0.144896 -0.145033 -0.145167 -0.1453 -0.145434 -0.145565 -0.145616 -0.145667 -0.145718 -0.145768 -0.145818 -0.145887 -0.145958 -0.146029 -0.1461 -0.146172 -0.146277 -0.146383 -0.146491 -0.146598 -0.146704 -0.146791 -0.14688 -0.146968 -0.147055 -0.147146 -0.147162 -0.147178 -0.147194 -0.147211 -0.147228 -0.147292 -0.147353 -0.147414 -0.147475 -0.147532 -0.147592 -0.147651 -0.147714 -0.147777 -0.147838 -0.147883 -0.147926 -0.147967 -0.148008 -0.148048 -0.148054 -0.148059 -0.148065 -0.148071 -0.148076 -0.148099 -0.148125 -0.14815 -0.148175 -0.148202 -0.148211 -0.148222 -0.148237 -0.148252 -0.148267 -0.148258 -0.148251 -0.148244 -0.148237 -0.148238 -0.148228 -0.148219 -0.14821 -0.148201 -0.148192 -0.148185 -0.148175 -0.148165 -0.148154 -0.148141 -0.148103 -0.148069 -0.148037 -0.148004 -0.147971 -0.147918 -0.147862 -0.147805 -0.147751 -0.147699 -0.147643 -0.147587 -0.147531 -0.147474 -0.147416 -0.147398 -0.147383 -0.147368 -0.147352 -0.147341 -0.147253 -0.147168 -0.147084 -0.146998 -0.146914 -0.146801 -0.146692 -0.146587 -0.146486 -0.146389 -0.146262 -0.146134 -0.146006 -0.145877 -0.145756 -0.145695 -0.145637 -0.14558 -0.145522 -0.145467 -0.145385 -0.145303 -0.145221 -0.145139 -0.145058 -0.144895 -0.14474 -0.144584 -0.144428 -0.14427 -0.144088 -0.143906 -0.143725 -0.143554 -0.143384 -0.143187 -0.142986 -0.142784 -0.142582 -0.142384 -0.142321 -0.14226 -0.142198 -0.142137 -0.142076 -0.141921 -0.141769 -0.141617 -0.141464 -0.141316 -0.141072 -0.140839 -0.140608 -0.140376 -0.140144 -0.139879 -0.139618 -0.13936 -0.139112 -0.138869 -0.13859 -0.13831 -0.138029 -0.137747 -0.137476 -0.137341 -0.137208 -0.137076 -0.136943 -0.136814 -0.13665 -0.136489 -0.136328 -0.136167 -0.136008 -0.135687 -0.135377 -0.135067 -0.134756 -0.134443 -0.134097 -0.133754 -0.133422 -0.133095 -0.132772 -0.132412 -0.132049 -0.131685 -0.131326 -0.130979 -0.130629 -0.130282 -0.129934 -0.129586 -0.129237 -0.129205 -0.129173 -0.129141 -0.12911 -0.129082 -0.128686 -0.128289 -0.127892 -0.127494 -0.127094 -0.126657 -0.126234 -0.12582 -0.125405 -0.124995 -0.124544 -0.124089 -0.123639 -0.123205 -0.122769 -0.122295 -0.121824 -0.121352 -0.12088 -0.120432 -0.120078 -0.119718 -0.119359 -0.118999 -0.118631 -0.118502 -0.118371 -0.118239 -0.118108 -0.117974 -0.117454 -0.116948 -0.116441 -0.115934 -0.115434 -0.114882 -0.114339 -0.113811 -0.113282 -0.112753 -0.112177 -0.111607 -0.111042 -0.110499 -0.109963 -0.109373 -0.10878 -0.108186 -0.107594 -0.107028 -0.106461 -0.105899 -0.105337 -0.104775 -0.104214 -0.104169 -0.104123 -0.104078 -0.104033 -0.10399 -0.103363 -0.102731 -0.102098 -0.101466 -0.100828 -0.100146 -0.0994916 -0.0988437 -0.0981955 -0.0975514 -0.096856 -0.096152 -0.0954713 -0.0948008 -0.094124 -0.0934012 -0.09268 -0.0919585 -0.0912582 -0.090575 -0.0898455 -0.0891072 -0.0883686 -0.0876297 -0.0869047 -0.0864911 -0.0860792 -0.0856671 -0.085255 -0.0848429 -0.0844871 -0.0841379 -0.0837887 -0.0834395 -0.0830973 -0.0823024 -0.0815225 -0.0807424 -0.0799621 -0.0791804 -0.0783289 -0.077504 -0.0766988 -0.0758934 -0.0750956 -0.0742419 -0.0733848 -0.0725492 -0.0717335 -0.0709163 -0.0700277 -0.0691431 -0.0682584 -0.0673969 -0.066561 -0.065667 -0.0647696 -0.0638721 -0.0629745 -0.0620998 -0.0615428 -0.0609884 -0.0604339 -0.0598794 -0.0593269 -0.0589537 -0.0585806 -0.0582076 -0.0578346 -0.0574619 -0.0565012 -0.0555539 -0.0546066 -0.0536593 -0.0527066 -0.0516851 -0.0506985 -0.0497282 -0.048758 -0.0477872 -0.0467532 -0.0457144 -0.0447149 -0.0437285 -0.0427356 -0.0416737 -0.0406121 -0.0395508 -0.0385337 -0.0375231 -0.0364482 -0.0353692 -0.0342906 -0.0332124 -0.032175 -0.0310792 -0.029984 -0.0288892 -0.027795 -0.026716 -0.0267077 -0.0266995 -0.0266913 -0.026683 -0.0266747 -0.0255457 -0.0244124 -0.0232797 -0.0221477 -0.0210024 -0.0197929 -0.0186386 -0.0174852 -0.0163326 -0.0151679 -0.0139387 -0.0127136 -0.0115419 -0.0103712 -0.00918132 -0.00792763 -0.00667318 -0.00543225 -0.00424227 -0.00303323 -0.00176226 -0.000486696 0.000787223 0.0020454 0.00328262 0.00457795 0.0058738 0.00716771 0.00845967 0.00976513 0.0100784 0.0103981 0.0107177 0.0110384 0.0113595 0.0123714 0.0133861 0.0143996 0.0154118 0.0164468 0.0178611 0.0192188 0.0205741 0.0219268 0.0233187 0.024768 0.0262086 0.0275871 0.0289627 0.0303888 0.0318663 0.0333405 0.0348108 0.0362094 0.0376624 0.0391676 0.0406735 0.0421751 0.0436726 0.0451842 0.0461803 0.0471748 0.0481673 0.0491579 0.0501101 0.0506784 0.0512491 0.0518193 0.0523888 0.0529715 0.0546173 0.0562308 0.0578392 0.0594425 0.0611413 0.0628727 0.0645909 0.0662396 0.0678827 0.069627 0.0713823 0.0731387 0.0748882 0.0765886 0.0783775 0.0801202 0.0818564 0.0835857 0.0853083 0.0870392 0.0870623 0.0870853 0.0871084 0.0871315 0.0871541 0.0888956 0.090634 0.0923661 0.0940918 0.0959506 0.0978498 0.0997352 0.101553 0.103365 0.105324 0.107561 0.109805 0.112038 0.114253 0.116592 0.117905 0.119216 0.120523 0.121826 0.123101 0.12434 0.125577 0.126812 0.128044 0.129327 0.131592 0.133768 0.135924 0.138069 0.140463 0.142515 0.144573 0.146628 0.148682 0.150668 0.152281 0.153901 0.15552 0.157138 0.158894 0.161437 0.163983 0.166526 0.169064 0.171524 0.173426 0.175335 0.177242 0.179147 0.181234 0.183727 0.186224 0.188717 0.191206 0.193648 0.196526 0.199405 0.202281 0.205153 0.208364 0.210057 0.211748 0.213438 0.215127 0.216798 0.221376 0.225945 0.230507 0.235061 0.240381 0.240466 0.240551 0.240637 0.240723 0.240809 0.245703 0.250581 0.25545 0.260312 0.265077 0.267695 0.270311 0.272924 0.275536 0.278377 0.280743 0.28311 0.285475 0.287839 0.290188 0.295379 0.300565 0.305743 0.310863 0.315892 0.31755 0.319204 0.320857 0.32251 0.324254 0.327764 0.331269 0.33477 0.338268 0.341734 0.34687 0.351992 0.357106 0.362166 0.367149 0.369459 0.371755 0.374048 0.37634 0.378853 0.381301 0.383732 0.386162 0.388589 0.39099 0.395238 0.399458 0.403672 0.407878 0.412019 0.415479 0.418901 0.422313 0.425716 0.429094 0.429972 0.430817 0.43166 0.432502 0.433399 0.434929 0.436423 0.437915 0.439403 0.440851 0.441949 0.443114 0.444298 0.445476 0.446606 0.446469 0.446288 0.446175 0.446163 0.44611 0.444776 0.4434 0.44202 0.440717 0.43951 0.437101 0.434656 0.432209 0.42976 0.427423 0.424124 0.420793 0.417463 0.414132 0.410802 0.409494 0.408162 0.40683 0.405487 0.403788 0.401196 0.398589 0.395979 0.39337 0.390739 0.386272 0.381816 0.377363 0.372913 0.368448 0.363842 0.35923 0.354621 0.350014 0.345398 0.341067 0.336638 0.332211 0.327785 0.323354 0.31979 0.315993 0.312197 0.308402 0.304611 0.302379 0.299791 0.297203 0.294614 0.292035 0.291562 0.290707 0.289851 0.288993 0.288138 0.289305 0.290208 0.29111 0.29201 0.292865 0.294061 0.295173 0.296283 0.297391 0.298329 0.294533 0.290598 0.286664 0.282548 0.279127 0.278972 0.278818 0.278663 0.278508 0.278305 0.261581 0.244304 0.226962 0.20961 0.192299 0.160008 0.127067 0.0941252 0.0611824 0.0297937 -0.0117755 -0.0537734 -0.0957766 -0.137785 -0.177107 -0.232037 -0.287854 -0.3437 -0.399574 -0.454906 -0.539276 -0.624697 -0.710152 -0.79564 -0.885076 -0.957354 -1.02801 -1.09869 -1.16937 -1.24397 -1.27513 -1.30599 -1.33684 -1.36769 -1.4026 -1.41486 -1.42668 -1.43851 -1.45034 -1.46329