# vtk DataFile Version 2.0
track0
ASCII
DATASET POLYDATA
POINTS 12123 float
-0.0205 0.001 1e-05
-0.0204928 0.0011 1e-05
-0.0204854 0.00119999 1e-05
-0.0204779 0.00129997 1e-05
-0.0204702 0.00139994 1e-05
-0.0204624 0.0015 1e-05
-0.0204545 0.0016 1e-05
-0.0204464 0.00169999 1e-05
-0.0204381 0.00179996 1e-05
-0.0204296 0.00189991 1e-05
-0.020421 0.002 1e-05
-0.0204122 0.0021 1e-05
-0.0204031 0.00219998 1e-05
-0.0203939 0.00229994 1e-05
-0.0203844 0.00239989 1e-05
-0.0203747 0.0025 1e-05
-0.0203648 0.0026 1e-05
-0.0203547 0.00269998 1e-05
-0.0203444 0.00279993 1e-05
-0.0203338 0.00289986 1e-05
-0.0203229 0.003 1e-05
-0.0203154 0.00306788 1e-05
-0.0203078 0.00313575 1e-05
-0.0203001 0.00320361 1e-05
-0.0202922 0.00327145 1e-05
-0.0202854 0.00332957 1e-05
-0.0202813 0.00336366 1e-05
-0.0202773 0.00339774 1e-05
-0.0202732 0.00343182 1e-05
-0.020269 0.00346589 1e-05
-0.0202648 0.0035 1e-05
-0.0202525 0.0036 1e-05
-0.02024 0.00369997 1e-05
-0.0202271 0.0037999 1e-05
-0.020214 0.0038998 1e-05
-0.0202006 0.004 1e-05
-0.020187 0.0041 1e-05
-0.0201731 0.00419996 1e-05
-0.0201589 0.00429989 1e-05
-0.0201445 0.00439978 1e-05
-0.0201297 0.0045 1e-05
-0.0201147 0.0046 1e-05
-0.0200994 0.00469996 1e-05
-0.0200839 0.00479987 1e-05
-0.0200681 0.00489975 1e-05
-0.0200519 0.005 1e-05
-0.020046 0.00503603 1e-05
-0.02004 0.00507206 1e-05
-0.020034 0.00510808 1e-05
-0.020028 0.00514409 1e-05
-0.0200223 0.00517795 1e-05
-0.0200114 0.00524236 1e-05
-0.0200004 0.00530675 1e-05
-0.0199893 0.00537112 1e-05
-0.019978 0.00543547 1e-05
-0.0199666 0.0055 1e-05
-0.0199488 0.0056 1e-05
-0.0199306 0.00569995 1e-05
-0.0199122 0.00579985 1e-05
-0.0198935 0.00589969 1e-05
-0.0198744 0.006 1e-05
-0.0198551 0.0061 1e-05
-0.0198355 0.00619994 1e-05
-0.0198156 0.00629983 1e-05
-0.0197954 0.00639966 1e-05
-0.0197749 0.0065 1e-05
-0.0197722 0.00651296 1e-05
-0.0197695 0.00652592 1e-05
-0.0197667 0.00653888 1e-05
-0.019764 0.00655184 1e-05
-0.0197614 0.00656457 1e-05
-0.0197431 0.00665165 1e-05
-0.0197245 0.00673869 1e-05
-0.0197058 0.00682569 1e-05
-0.0196868 0.00691263 1e-05
-0.0196676 0.007 1e-05
-0.0196452 0.0071 1e-05
-0.0196226 0.00719993 1e-05
-0.0195996 0.0072998 1e-05
-0.0195764 0.0073996 1e-05
-0.0195527 0.0075 1e-05
-0.0195427 0.00754204 1e-05
-0.0195326 0.00758406 1e-05
-0.0195224 0.00762607 1e-05
-0.0195122 0.00766807 1e-05
-0.0195025 0.00770789 1e-05
-0.0194882 0.00776631 1e-05
-0.0194737 0.00782471 1e-05
-0.0194592 0.00788308 1e-05
-0.0194445 0.00794143 1e-05
-0.0194297 0.008 1e-05
-0.0194042 0.0081 1e-05
-0.0193784 0.00819992 1e-05
-0.0193523 0.00829977 1e-05
-0.0193259 0.00839953 1e-05
-0.019299 0.0085 1e-05
-0.0192884 0.00853933 1e-05
-0.0192777 0.00857864 1e-05
-0.0192669 0.00861794 1e-05
-0.0192561 0.00865723 1e-05
-0.0192457 0.00869479 1e-05
-0.0192288 0.00875583 1e-05
-0.0192118 0.00881684 1e-05
-0.0191946 0.00887782 1e-05
-0.0191773 0.00893877 1e-05
-0.0191598 0.009 1e-05
-0.0191311 0.0091 1e-05
-0.019102 0.00919991 1e-05
-0.0190726 0.00929973 1e-05
-0.0190429 0.00939946 1e-05
-0.0190126 0.0095 1e-05
-0.0190083 0.00951418 1e-05
-0.019004 0.00952837 1e-05
-0.0189997 0.00954255 1e-05
-0.0189953 0.00955673 1e-05
-0.018991 0.0095707 1e-05
-0.0189647 0.00965656 1e-05
-0.0189381 0.00974235 1e-05
-0.0189113 0.00982806 1e-05
-0.0188842 0.00991371 1e-05
-0.0188567 0.01 1e-05
-0.018833 0.0100735 1e-05
-0.0188092 0.010147 1e-05
-0.0187852 0.0102204 1e-05
-0.018761 0.0102937 1e-05
-0.0187384 0.0103618 1e-05
-0.0187291 0.0103895 1e-05
-0.0187199 0.0104171 1e-05
-0.0187106 0.0104447 1e-05
-0.0187012 0.0104723 1e-05
-0.0186919 0.0105 1e-05
-0.0186579 0.0106 1e-05
-0.0186236 0.0106999 1e-05
-0.018589 0.0107997 1e-05
-0.0185541 0.0108993 1e-05
-0.0185184 0.011 1e-05
-0.0185123 0.0110171 1e-05
-0.0185062 0.0110342 1e-05
-0.0185 0.0110514 1e-05
-0.0184938 0.0110685 1e-05
-0.0184878 0.0110853 1e-05
-0.0184578 0.0111683 1e-05
-0.0184277 0.0112511 1e-05
-0.0183973 0.0113339 1e-05
-0.0183667 0.0114166 1e-05
-0.0183355 0.0115 1e-05
-0.0183162 0.0115512 1e-05
-0.0182969 0.0116023 1e-05
-0.0182775 0.0116534 1e-05
-0.0182579 0.0117044 1e-05
-0.0182392 0.0117532 1e-05
-0.0182201 0.0118026 1e-05
-0.018201 0.0118519 1e-05
-0.0181817 0.0119012 1e-05
-0.0181624 0.0119505 1e-05
-0.0181429 0.012 1e-05
-0.0181129 0.012076 1e-05
-0.0180826 0.0121519 1e-05
-0.0180521 0.0122277 1e-05
-0.0180215 0.0123034 1e-05
-0.0179926 0.0123743 1e-05
-0.0179823 0.0123994 1e-05
-0.0179719 0.0124246 1e-05
-0.0179616 0.0124497 1e-05
-0.0179512 0.0124748 1e-05
-0.0179407 0.0125 1e-05
-0.0179022 0.0125928 1e-05
-0.0178633 0.0126854 1e-05
-0.0178242 0.012778 1e-05
-0.0177848 0.0128704 1e-05
-0.017748 0.0129558 1e-05
-0.0177441 0.0129646 1e-05
-0.0177403 0.0129735 1e-05
-0.0177365 0.0129823 1e-05
-0.0177326 0.0129912 1e-05
-0.0177288 0.013 1e-05
-0.0176852 0.0131 1e-05
-0.0176413 0.0131998 1e-05
-0.017597 0.0132995 1e-05
-0.0175524 0.0133991 1e-05
-0.0175067 0.0135 1e-05
-0.0175064 0.0135006 1e-05
-0.0175062 0.0135012 1e-05
-0.0175059 0.0135018 1e-05
-0.0175056 0.0135024 1e-05
-0.0175053 0.0135029 1e-05
-0.0174599 0.0136024 1e-05
-0.0174142 0.0137016 1e-05
-0.017368 0.0138007 1e-05
-0.0173216 0.0138996 1e-05
-0.017274 0.014 1e-05
-0.0172721 0.0140039 1e-05
-0.0172703 0.0140078 1e-05
-0.0172684 0.0140117 1e-05
-0.0172665 0.0140156 1e-05
-0.0172647 0.0140195 1e-05
-0.0172186 0.0141156 1e-05
-0.0171722 0.0142116 1e-05
-0.0171255 0.0143073 1e-05
-0.0170785 0.0144029 1e-05
-0.0170304 0.0145 1e-05
-0.0170295 0.0145018 1e-05
-0.0170286 0.0145035 1e-05
-0.0170277 0.0145053 1e-05
-0.0170268 0.0145071 1e-05
-0.0170259 0.0145088 1e-05
-0.0169786 0.0146034 1e-05
-0.0169309 0.0146978 1e-05
-0.0168829 0.014792 1e-05
-0.0168345 0.0148861 1e-05
-0.0167891 0.0149737 1e-05
-0.0167864 0.014979 1e-05
-0.0167836 0.0149842 1e-05
-0.0167809 0.0149895 1e-05
-0.0167781 0.0149947 1e-05
-0.0167754 0.015 1e-05
-0.0167311 0.0150845 1e-05
-0.0166866 0.0151689 1e-05
-0.0166419 0.0152531 1e-05
-0.0165969 0.0153372 1e-05
-0.0165542 0.0154163 1e-05
-0.0165451 0.015433 1e-05
-0.016536 0.0154498 1e-05
-0.0165269 0.0154665 1e-05
-0.0165178 0.0154832 1e-05
-0.0165086 0.0155 1e-05
-0.0164711 0.0155685 1e-05
-0.0164335 0.0156369 1e-05
-0.0163956 0.0157053 1e-05
-0.0163576 0.0157735 1e-05
-0.0163212 0.0158385 1e-05
-0.016303 0.0158708 1e-05
-0.0162847 0.0159031 1e-05
-0.0162664 0.0159353 1e-05
-0.0162481 0.0159676 1e-05
-0.0162296 0.016 1e-05
-0.0162017 0.0160488 1e-05
-0.0161737 0.0160976 1e-05
-0.0161456 0.0161464 1e-05
-0.0161174 0.0161951 1e-05
-0.01609 0.0162422 1e-05
-0.0160599 0.0162937 1e-05
-0.0160297 0.0163452 1e-05
-0.0159994 0.0163967 1e-05
-0.015969 0.0164481 1e-05
-0.0159382 0.0165 1e-05
-0.0159227 0.0165259 1e-05
-0.0159072 0.0165519 1e-05
-0.0158916 0.0165778 1e-05
-0.0158761 0.0166037 1e-05
-0.0158607 0.0166291 1e-05
-0.015816 0.0167033 1e-05
-0.015771 0.0167773 1e-05
-0.0157258 0.0168513 1e-05
-0.0156804 0.0169251 1e-05
-0.015634 0.017 1e-05
-0.0156339 0.0170002 1e-05
-0.0156337 0.0170005 1e-05
-0.0156336 0.0170007 1e-05
-0.0156335 0.0170009 1e-05
-0.0156333 0.0170011 1e-05
-0.0155882 0.0170735 1e-05
-0.0155429 0.0171458 1e-05
-0.0154973 0.017218 1e-05
-0.0154516 0.01729 1e-05
-0.0154077 0.0173588 1e-05
-0.0153896 0.017387 1e-05
-0.0153714 0.0174153 1e-05
-0.0153532 0.0174435 1e-05
-0.015335 0.0174716 1e-05
-0.0153166 0.0175 1e-05
-0.01529 0.0175408 1e-05
-0.0152634 0.0175816 1e-05
-0.0152368 0.0176223 1e-05
-0.0152101 0.017663 1e-05
-0.0151839 0.0177026 1e-05
-0.0151446 0.0177621 1e-05
-0.0151051 0.0178215 1e-05
-0.0150655 0.0178808 1e-05
-0.0150258 0.01794 1e-05
-0.0149853 0.018 1e-05
-0.0149806 0.0180069 1e-05
-0.0149759 0.0180138 1e-05
-0.0149713 0.0180206 1e-05
-0.0149666 0.0180275 1e-05
-0.0149619 0.0180344 1e-05
-0.0149179 0.0180991 1e-05
-0.0148737 0.0181638 1e-05
-0.0148293 0.0182283 1e-05
-0.0147848 0.0182927 1e-05
-0.0147417 0.0183547 1e-05
-0.0147214 0.0183838 1e-05
-0.0147011 0.0184128 1e-05
-0.0146807 0.0184418 1e-05
-0.0146604 0.0184708 1e-05
-0.0146398 0.0185 1e-05
-0.0146165 0.0185329 1e-05
-0.0145931 0.0185658 1e-05
-0.0145698 0.0185987 1e-05
-0.0145464 0.0186316 1e-05
-0.0145233 0.0186638 1e-05
-0.01448 0.0187242 1e-05
-0.0144365 0.0187846 1e-05
-0.0143929 0.0188448 1e-05
-0.0143491 0.018905 1e-05
-0.0143067 0.018963 1e-05
-0.0143012 0.0189704 1e-05
-0.0142958 0.0189778 1e-05
-0.0142904 0.0189852 1e-05
-0.0142849 0.0189926 1e-05
-0.0142795 0.019 1e-05
-0.0142419 0.0190509 1e-05
-0.0142043 0.0191018 1e-05
-0.0141665 0.0191526 1e-05
-0.0141287 0.0192033 1e-05
-0.0140917 0.0192526 1e-05
-0.0140545 0.019302 1e-05
-0.0140172 0.0193515 1e-05
-0.0139797 0.0194008 1e-05
-0.0139422 0.0194501 1e-05
-0.013904 0.0195 1e-05
-0.0138989 0.0195066 1e-05
-0.0138938 0.0195132 1e-05
-0.0138887 0.0195198 1e-05
-0.0138836 0.0195265 1e-05
-0.0138786 0.0195331 1e-05
-0.0138363 0.019588 1e-05
-0.0137939 0.0196428 1e-05
-0.0137513 0.0196975 1e-05
-0.0137087 0.0197521 1e-05
-0.0136671 0.0198051 1e-05
-0.0136364 0.0198441 1e-05
-0.0136056 0.019883 1e-05
-0.0135748 0.0199219 1e-05
-0.0135439 0.0199607 1e-05
-0.0135126 0.02 1e-05
-0.0135016 0.0200138 1e-05
-0.0134905 0.0200276 1e-05
-0.0134794 0.0200414 1e-05
-0.0134683 0.0200552 1e-05
-0.0134573 0.0200689 1e-05
-0.0134157 0.0201206 1e-05
-0.013374 0.0201723 1e-05
-0.0133322 0.0202238 1e-05
-0.0132902 0.0202752 1e-05
-0.0132493 0.0203253 1e-05
-0.0132205 0.0203602 1e-05
-0.0131918 0.0203951 1e-05
-0.013163 0.02043 1e-05
-0.0131341 0.0204648 1e-05
-0.0131048 0.0205 1e-05
-0.0130924 0.0205149 1e-05
-0.01308 0.0205297 1e-05
-0.0130676 0.0205446 1e-05
-0.0130552 0.0205594 1e-05
-0.0130429 0.0205742 1e-05
-0.0130019 0.020623 1e-05
-0.0129609 0.0206717 1e-05
-0.0129197 0.0207204 1e-05
-0.0128785 0.020769 1e-05
-0.0128381 0.0208164 1e-05
-0.0128067 0.0208531 1e-05
-0.0127752 0.0208898 1e-05
-0.0127437 0.0209264 1e-05
-0.0127121 0.020963 1e-05
-0.0126801 0.021 1e-05
-0.0126711 0.0210104 1e-05
-0.0126621 0.0210208 1e-05
-0.012653 0.0210311 1e-05
-0.012644 0.0210415 1e-05
-0.012635 0.0210518 1e-05
-0.0125947 0.021098 1e-05
-0.0125544 0.0211442 1e-05
-0.0125139 0.0211902 1e-05
[...]
POINT_DATA 12123
 FIELD attributes 1
U 3 12123 float
-0.0215981 	-0.2987 	0 -0.0220141 	-0.298678 	0 -0.0224307 	-0.298655 	0 -0.022847 	-0.298631 	0 -0.0232632 	-0.298606 	0 -0.0236832 	-0.29858 	0 -0.024218 	-0.29855 	0 -0.0247552 	-0.298519 	0 -0.0252889 	-0.298486 	0 -0.0258225 	-0.298451 	0 -0.0263594 	-0.298416 	0 -0.026984 	-0.298373 	0 -0.0276106 	-0.298328 	0 -0.0282367 	-0.298283 	0 -0.0288592 	-0.298235 	0 -0.0294846 	-0.298185 	0 -0.0301752 	-0.298126 	0 -0.030867 	-0.298066 	0 -0.0315587 	-0.298004 	0 -0.0322502 	-0.297942 	0 -0.0329412 	-0.297876 	0 -0.0334416 	-0.297826 	0 -0.033943 	-0.297774 	0 -0.0344443 	-0.297723 	0 -0.0349454 	-0.29767 	0 -0.0353758 	-0.297624 	0 -0.0356269 	-0.297598 	0 -0.035879 	-0.29757 	0 -0.036131 	-0.297543 	0 -0.0363831 	-0.297515 	0 -0.0366364 	-0.297487 	0 -0.0374098 	-0.297398 	0 -0.0381818 	-0.297306 	0 -0.0389537 	-0.297213 	0 -0.0397253 	-0.297118 	0 -0.0405001 	-0.297021 	0 -0.0412979 	-0.296916 	0 -0.0420961 	-0.29681 	0 -0.0428912 	-0.2967 	0 -0.0436856 	-0.296589 	0 -0.0444832 	-0.296476 	0 -0.045297 	-0.296355 	0 -0.0461109 	-0.296233 	0 -0.0469246 	-0.296109 	0 -0.047738 	-0.295983 	0 -0.0485525 	-0.295854 	0 -0.0488497 	-0.295805 	0 -0.0491472 	-0.295755 	0 -0.0494447 	-0.295706 	0 -0.0497421 	-0.295656 	0 -0.050022 	-0.295608 	0 -0.0505544 	-0.295518 	0 -0.0510869 	-0.295428 	0 -0.0516194 	-0.295336 	0 -0.0521517 	-0.295244 	0 -0.0526859 	-0.295151 	0 -0.0535242 	-0.295 	0 -0.0543614 	-0.294846 	0 -0.0551966 	-0.294691 	0 -0.0560315 	-0.294533 	0 -0.0568708 	-0.294373 	0 -0.0577165 	-0.294206 	0 -0.0585622 	-0.294038 	0 -0.0594075 	-0.293868 	0 -0.0602525 	-0.293697 	0 -0.0611011 	-0.293522 	0 -0.0612115 	-0.293498 	0 -0.061322 	-0.293475 	0 -0.0614325 	-0.293451 	0 -0.061543 	-0.293427 	0 -0.0616517 	-0.293404 	0 -0.0623953 	-0.293244 	0 -0.0631388 	-0.293083 	0 -0.063882 	-0.292921 	0 -0.064625 	-0.292758 	0 -0.065372 	-0.292592 	0 -0.0662346 	-0.292396 	0 -0.0670971 	-0.292198 	0 -0.0679591 	-0.291999 	0 -0.0688191 	-0.291797 	0 -0.0696842 	-0.291591 	0 -0.0700495 	-0.291503 	0 -0.0704149 	-0.291413 	0 -0.0707802 	-0.291324 	0 -0.0711455 	-0.291234 	0 -0.071492 	-0.291149 	0 -0.0720008 	-0.291023 	0 -0.0725096 	-0.290897 	0 -0.0730182 	-0.29077 	0 -0.0735267 	-0.290643 	0 -0.0740375 	-0.290514 	0 -0.0749168 	-0.29029 	0 -0.0757958 	-0.290063 	0 -0.076674 	-0.289834 	0 -0.0775503 	-0.289603 	0 -0.0784331 	-0.289368 	0 -0.0787816 	-0.289274 	0 -0.0791302 	-0.289179 	0 -0.0794787 	-0.289084 	0 -0.0798272 	-0.288989 	0 -0.0801605 	-0.288897 	0 -0.0807026 	-0.288749 	0 -0.0812447 	-0.2886 	0 -0.0817866 	-0.28845 	0 -0.0823284 	-0.288299 	0 -0.082873 	-0.288147 	0 -0.0837699 	-0.287894 	0 -0.0846664 	-0.287639 	0 -0.0855625 	-0.287382 	0 -0.0864579 	-0.287123 	0 -0.0873597 	-0.286859 	0 -0.0874879 	-0.286821 	0 -0.0876162 	-0.286783 	0 -0.0877446 	-0.286745 	0 -0.0878729 	-0.286707 	0 -0.0879995 	-0.286669 	0 -0.0887777 	-0.286438 	0 -0.0895556 	-0.286205 	0 -0.0903332 	-0.285971 	0 -0.0911104 	-0.285736 	0 -0.0918938 	-0.285498 	0 -0.0925672 	-0.285291 	0 -0.0932403 	-0.285083 	0 -0.0939131 	-0.284874 	0 -0.0945856 	-0.284664 	0 -0.0952104 	-0.284468 	0 -0.0954641 	-0.284388 	0 -0.095718 	-0.284309 	0 -0.0959718 	-0.284229 	0 -0.0962256 	-0.284149 	0 -0.0964802 	-0.284068 	0 -0.0974075 	-0.283773 	0 -0.0983343 	-0.283477 	0 -0.0992604 	-0.283179 	0 -0.100185 	-0.282878 	0 -0.101119 	-0.282572 	0 -0.101279 	-0.282519 	0 -0.10144 	-0.282466 	0 -0.1016 	-0.282413 	0 -0.10176 	-0.28236 	0 -0.101918 	-0.282307 	0 -0.102697 	-0.28205 	0 -0.103474 	-0.281791 	0 -0.104252 	-0.281531 	0 -0.105028 	-0.28127 	0 -0.105813 	-0.281005 	0 -0.106298 	-0.280841 	0 -0.106783 	-0.280675 	0 -0.107268 	-0.280509 	0 -0.107753 	-0.280343 	0 -0.108216 	-0.280184 	0 -0.108685 	-0.280023 	0 -0.109155 	-0.279861 	0 -0.109624 	-0.279699 	0 -0.110093 	-0.279536 	0 -0.110565 	-0.279372 	0 -0.111295 	-0.279118 	0 -0.112024 	-0.278862 	0 -0.112753 	-0.278606 	0 -0.113482 	-0.278349 	0 -0.114164 	-0.278106 	0 -0.114407 	-0.278021 	0 -0.114649 	-0.277935 	0 -0.114891 	-0.277848 	0 -0.115134 	-0.277762 	0 -0.115377 	-0.277675 	0 -0.11628 	-0.277353 	0 -0.117183 	-0.277029 	0 -0.118085 	-0.276703 	0 -0.118986 	-0.276377 	0 -0.119819 	-0.276073 	0 -0.119905 	-0.276041 	0 -0.119992 	-0.27601 	0 -0.120078 	-0.275978 	0 -0.120165 	-0.275947 	0 -0.120251 	-0.275915 	0 -0.121238 	-0.275555 	0 -0.122224 	-0.275193 	0 -0.123208 	-0.27483 	0 -0.124192 	-0.274465 	0 -0.12519 	-0.274092 	0 -0.125196 	-0.27409 	0 -0.125202 	-0.274088 	0 -0.125208 	-0.274085 	0 -0.125214 	-0.274083 	0 -0.12522 	-0.274081 	0 -0.126213 	-0.273711 	0 -0.127207 	-0.273338 	0 -0.128199 	-0.272965 	0 -0.12919 	-0.272589 	0 -0.130196 	-0.272206 	0 -0.130235 	-0.272191 	0 -0.130275 	-0.272176 	0 -0.130314 	-0.272161 	0 -0.130354 	-0.272146 	0 -0.130394 	-0.272131 	0 -0.131368 	-0.271761 	0 -0.132341 	-0.271389 	0 -0.133314 	-0.271016 	0 -0.134285 	-0.270641 	0 -0.135272 	-0.270259 	0 -0.13529 	-0.270252 	0 -0.135308 	-0.270245 	0 -0.135326 	-0.270238 	0 -0.135344 	-0.270231 	0 -0.135363 	-0.270224 	0 -0.136335 	-0.269849 	0 -0.137306 	-0.269472 	0 -0.138276 	-0.269094 	0 -0.139244 	-0.268714 	0 -0.140148 	-0.268359 	0 -0.140202 	-0.268337 	0 -0.140256 	-0.268316 	0 -0.14031 	-0.268295 	0 -0.140365 	-0.268273 	0 -0.140419 	-0.268252 	0 -0.1413 	-0.267907 	0 -0.14218 	-0.26756 	0 -0.143059 	-0.267213 	0 -0.143937 	-0.266864 	0 -0.144764 	-0.266534 	0 -0.144939 	-0.266465 	0 -0.145114 	-0.266395 	0 -0.145289 	-0.266325 	0 -0.145464 	-0.266255 	0 -0.14564 	-0.266185 	0 -0.146365 	-0.265897 	0 -0.147089 	-0.265609 	0 -0.147812 	-0.265319 	0 -0.148534 	-0.265029 	0 -0.149223 	-0.264751 	0 -0.149566 	-0.264614 	0 -0.149908 	-0.264476 	0 -0.150251 	-0.264338 	0 -0.150593 	-0.2642 	0 -0.150938 	-0.264061 	0 -0.151462 	-0.26385 	0 -0.151985 	-0.263639 	0 -0.152509 	-0.263427 	0 -0.153032 	-0.263215 	0 -0.153538 	-0.263009 	0 -0.154093 	-0.262785 	0 -0.154647 	-0.262561 	0 -0.155201 	-0.262336 	0 -0.155755 	-0.26211 	0 -0.156314 	-0.261882 	0 -0.156596 	-0.261767 	0 -0.156879 	-0.261652 	0 -0.157161 	-0.261537 	0 -0.157443 	-0.261421 	0 -0.157721 	-0.261308 	0 -0.15853 	-0.26098 	0 -0.159338 	-0.26065 	0 -0.160146 	-0.26032 	0 -0.160952 	-0.259989 	0 -0.161772 	-0.259651 	0 -0.161774 	-0.25965 	0 -0.161777 	-0.259649 	0 -0.161779 	-0.259648 	0 -0.161782 	-0.259647 	0 -0.161784 	-0.259646 	0 -0.162584 	-0.259319 	0 -0.163384 	-0.25899 	0 -0.164182 	-0.258661 	0 -0.16498 	-0.258331 	0 -0.165741 	-0.258014 	0 -0.166054 	-0.257885 	0 -0.166367 	-0.257755 	0 -0.16668 	-0.257626 	0 -0.166993 	-0.257496 	0 -0.167308 	-0.257365 	0 -0.167765 	-0.257176 	0 -0.168223 	-0.256987 	0 -0.16868 	-0.256798 	0 -0.169137 	-0.256608 	0 -0.169583 	-0.256422 	0 -0.170252 	-0.256146 	0 -0.17092 	-0.255869 	0 -0.171587 	-0.255592 	0 -0.172254 	-0.255314 	0 -0.17293 	-0.255032 	0 -0.173008 	-0.254999 	0 -0.173087 	-0.254966 	0 -0.173165 	-0.254934 	0 -0.173243 	-0.254901 	0 -0.173322 	-0.254869 	0 -0.17406 	-0.254564 	0 -0.174797 	-0.254257 	0 -0.175533 	-0.25395 	0 -0.176267 	-0.253641 	0 -0.176975 	-0.253344 	0 -0.177306 	-0.253205 	0 -0.177638 	-0.253066 	0 -0.177969 	-0.252927 	0 -0.178301 	-0.252788 	0 -0.178635 	-0.252647 	0 -0.179015 	-0.252489 	0 -0.179396 	-0.25233 	0 -0.179776 	-0.25217 	0 -0.180156 	-0.252011 	0 -0.18053 	-0.251854 	0 -0.18123 	-0.251563 	0 -0.181929 	-0.251272 	0 -0.182627 	-0.250979 	0 -0.183325 	-0.250686 	0 -0.183998 	-0.2504 	0 -0.184083 	-0.250364 	0 -0.184169 	-0.250328 	0 -0.184255 	-0.250292 	0 -0.18434 	-0.250256 	0 -0.184427 	-0.250219 	0 -0.185024 	-0.249969 	0 -0.185621 	-0.249719 	0 -0.186217 	-0.249468 	0 -0.186813 	-0.249217 	0 -0.187392 	-0.248972 	0 -0.187973 	-0.248728 	0 -0.188554 	-0.248484 	0 -0.189135 	-0.24824 	0 -0.189715 	-0.247995 	0 -0.190303 	-0.247747 	0 -0.190381 	-0.247713 	0 -0.19046 	-0.24768 	0 -0.190539 	-0.247647 	0 -0.190618 	-0.247614 	0 -0.190697 	-0.247581 	0 -0.191351 	-0.247309 	0 -0.192004 	-0.247034 	0 -0.192655 	-0.246758 	0 -0.193306 	-0.246482 	0 -0.193939 	-0.246214 	0 -0.194403 	-0.246018 	0 -0.194867 	-0.245822 	0 -0.195331 	-0.245626 	0 -0.195794 	-0.24543 	0 -0.196263 	-0.245231 	0 -0.19643 	-0.245161 	0 -0.196597 	-0.245091 	0 -0.196764 	-0.245021 	0 -0.196931 	-0.24495 	0 -0.197097 	-0.244881 	0 -0.197722 	-0.244621 	0 -0.198346 	-0.244359 	0 -0.198969 	-0.244094 	0 -0.19959 	-0.24383 	0 -0.200196 	-0.243572 	0 -0.200618 	-0.243394 	0 -0.20104 	-0.243215 	0 -0.201462 	-0.243037 	0 -0.201883 	-0.242858 	0 -0.202309 	-0.242677 	0 -0.202491 	-0.242601 	0 -0.202673 	-0.242524 	0 -0.202856 	-0.242447 	0 -0.203038 	-0.242371 	0 -0.203219 	-0.242294 	0 -0.203817 	-0.242046 	0 -0.204415 	-0.241795 	0 -0.205011 	-0.241541 	0 -0.205606 	-0.241288 	0 -0.206187 	-0.24104 	0 -0.206636 	-0.24085 	0 -0.207086 	-0.24066 	0 -0.207535 	-0.24047 	0 -0.207984 	-0.24028 	0 -0.208438 	-0.240087 	0 -0.208567 	-0.240033 	0 -0.208696 	-0.239979 	0 -0.208825 	-0.239924 	0 -0.208954 	-0.23987 	0 -0.209082 	-0.239816 	0 -0.209657 	-0.239578 	0 -0.210229 	-0.239336 	0 -0.210801 	-0.239093 	0 -0.211372 	-0.23885 	0 -0.21193 	-0.238612 	0 -0.212473 	-0.238384 	0 -0.213016 	-0.238155 	0 -0.213558 	-0.237926 	0 -0.214099 	-0.237697 	0 -0.214648 	-0.237464 	0 -0.21466 	-0.237459 	0 -0.214671 	-0.237454 	0 -0.214682 	-0.237449 	0 -0.214694 	-0.237445 	0 -0.214705 	-0.23744 	0 -0.215256 	-0.237208 	0 -0.215806 	-0.236977 	0 -0.216356 	-0.236744 	0 -0.216904 	-0.236512 	0 -0.217442 	-0.236283 	0 -0.217979 	-0.236059 	0 -0.218516 	-0.235834 	0 -0.219051 	-0.235608 	0 -0.219586 	-0.235382 	0 -0.22011 	-0.235156 	0 -0.220274 	-0.235086 	0 -0.220439 	-0.235016 	0 -0.220603 	-0.234946 	0 -0.220767 	-0.234876 	0 -0.220933 	-0.234806 	0 -0.221294 	-0.234654 	0 -0.221655 	-0.234503 	0 -0.222015 	-0.234351 	0 -0.222376 	-0.234199 	0 -0.222732 	-0.234049 	0 -0.223249 	-0.233834 	0 -0.223766 	-0.233619 	0 -0.224281 	-0.233401 	0 -0.224796 	-0.233181 	0 -0.225301 	-0.232964 	0 -0.225698 	-0.232796 	0 -0.226096 	-0.232628 	0 -0.226493 	-0.23246 	0 -0.226889 	-0.232291 	0 -0.227291 	-0.232121 	0 -0.227394 	-0.232077 	0 -0.227499 	-0.232034 	0 -0.227603 	-0.23199 	0 -0.227707 	-0.231946 	0 -0.227811 	-0.231903 	0 -0.22831 	-0.231696 	0 -0.228807 	-0.231486 	0 -0.229304 	-0.231276 	0 -0.2298 	-0.231066 	0 -0.230288 	-0.230858 	0 -0.230774 	-0.230655 	0 -0.231259 	-0.230452 	0 -0.231744 	-0.230248 	0 -0.232228 	-0.230043 	0 -0.232703 	-0.229838 	0 -0.232905 	-0.229752 	0 -0.233106 	-0.229666 	0 -0.233308 	-0.22958 	0 -0.233509 	-0.229494 	0 -0.233712 	-0.229408 	0 -0.233986 	-0.229293 	0 -0.23426 	-0.229179 	0 -0.234533 	-0.229064 	0 -0.234806 	-0.228949 	0 -0.235078 	-0.228835 	0 -0.235547 	-0.228641 	0 -0.236016 	-0.228446 	0 -0.236483 	-0.228247 	0 -0.23695 	-0.228048 	0 -0.23741 	-0.227851 	0 -0.237867 	-0.227659 	0 -0.238324 	-0.227467 	0 -0.23878 	-0.227274 	0 -0.239236 	-0.227082 	0 -0.239685 	-0.226888 	0 -0.239786 	-0.226845 	0 -0.239887 	-0.226802 	0 -0.239988 	-0.226758 	0 -0.240089 	-0.226715 	0 -0.240191 	-0.226672 	0 -0.24054 	-0.226525 	0 -0.240889 	-0.226379 	0 -0.241237 	-0.226232 	0 -0.241585 	-0.226086 	0 -0.24193 	-0.22594 	0 -0.242373 	-0.225757 	0 -0.242815 	-0.225574 	0 -0.243255 	-0.225386 	0 -0.243695 	-0.225197 	0 -0.24413 	-0.225011 	0 -0.244561 	-0.224829 	0 -0.244991 	-0.224647 	0 -0.245422 	-0.224465 	0 -0.245851 	-0.224283 	0 -0.246275 	-0.224101 	0 -0.246362 	-0.224063 	0 -0.24645 	-0.224025 	0 -0.246537 	-0.223988 	0 -0.246625 	-0.22395 	0 -0.246713 	-0.223912 	0 -0.24705 	-0.22377 	0 -0.247388 	-0.223628 	0 -0.247725 	-0.223486 	0 -0.248062 	-0.223344 	0 -0.248396 	-0.223203 	0 -0.248813 	-0.223031 	0 -0.24923 	-0.222857 	0 -0.249646 	-0.222679 	0 -0.250062 	-0.2225 	0 -0.250472 	-0.222323 	0 -0.250879 	-0.222151 	0 -0.251286 	-0.22198 	0 -0.251692 	-0.221808 	0 -0.252097 	-0.221636 	0 -0.252498 	-0.22146 	0 -0.25265 	-0.221394 	0 -0.252804 	-0.221328 	0 -0.252957 	-0.221262 	0 -0.25311 	-0.221196 	0 -0.253264 	-0.22113 	0 -0.25351 	-0.221026 	0 -0.253757 	-0.220922 	0 -0.254003 	-0.220818 	0 -0.25425 	-0.220714 	0 -0.254495 	-0.22061 	0 -0.254889 	-0.220448 	0 -0.255283 	-0.220281 	0 -0.255676 	-0.220112 	0 -0.256069 	-0.219942 	0 -0.256457 	-0.219775 	0 -0.256842 	-0.219612 	0 -0.257226 	-0.21945 	0 -0.25761 	-0.219288 	0 -0.257993 	-0.219122 	0 -0.258371 	-0.218955 	0 -0.258662 	-0.218829 	0 -0.258952 	-0.218704 	0 -0.259242 	-0.218578 	0 -0.259532 	-0.218452 	0 -0.259826 	-0.218325 	0 -0.259909 	-0.21829 	0 -0.259993 	-0.218254 	0 -0.260077 	-0.218219 	0 -0.260161 	-0.218183 	0 -0.260245 	-0.218148 	0 -0.260618 	-0.217991 	0 -0.26099 	-0.217832 	0 -0.261362 	-0.217672 	0 -0.261734 	-0.217512 	0 -0.262102 	-0.217353 	0 -0.262466 	-0.2172 	0 -0.262829 	-0.217047 	0 -0.263192 	-0.21689 	0 -0.263554 	-0.21673 	0 -0.263913 	-0.216572 	0 -0.264266 	-0.216419 	0 -0.26462 	-0.216266 	0 -0.264974 	-0.216113 	0 -0.265327 	-0.21596 	0 -0.265677 	-0.215803 	0 -0.265816 	-0.215742 	0 -0.265955 	-0.21568 	0 -0.266094 	-0.215619 	0 -0.266233 	-0.215557 	0 -0.266374 	-0.215495 	0 -0.266583 	-0.215405 	0 -0.266792 	-0.215315 	0 -0.267001 	-0.215225 	0 -0.26721 	-0.215135 	0 -0.267419 	-0.215046 	0 -0.267763 	-0.214902 	0 -0.268106 	-0.214751 	0 -0.268449 	-0.2146 	0 -0.268792 	-0.214449 	0 -0.269132 	-0.214299 	0 -0.269467 	-0.214155 	0 -0.269802 	-0.214011 	0 -0.270137 	-0.213866 	0 -0.27047 	-0.213715 	0 -0.270802 	-0.213565 	0 -0.271128 	-0.21342 	0 -0.271454 	-0.213276 	0 -0.27178 	-0.213132 	0 -0.272105 	-0.212987 	0 -0.272428 	-0.212841 	0 -0.272518 	-0.212799 	0 -0.272609 	-0.212758 	0 -0.272699 	-0.212717 	0 -0.27279 	-0.212676 	0 -0.272881 	-0.212635 	0 -0.273113 	-0.212533 	0 -0.273345 	-0.212431 	0 -0.273577 	-0.212329 	0 -0.273808 	-0.212227 	0 -0.27404 	-0.212126 	0 -0.274356 	-0.21199 	0 -0.274673 	-0.211849 	0 -0.27499 	-0.211706 	0 -0.275306 	-0.211563 	0 -0.275621 	-0.211421 	0 -0.275929 	-0.211285 	0 -0.276238 	-0.211149 	0 -0.276546 	-0.211011 	0 -0.276854 	-0.210868 	0 -0.27716 	-0.210726 	0 -0.27746 	-0.21059 	0 -0.27776 	-0.210453 	0 -0.278061 	-0.210317 	0 -0.27836 	-0.21018 	0 -0.278658 	-0.21004 	0 -0.278788 	-0.209979 	0 -0.278919 	-0.209918 	0 -0.27905 	-0.209856 	0 -0.27918 	-0.209795 	0 -0.279312 	-0.209734 	0 -0.279477 	-0.209659 	0 -0.279642 	-0.209585 	0 -0.279807 	-0.209511 	0 -0.279973 	-0.209436 	0 -0.280138 	-0.209362 	0 -0.28043 	-0.209233 	0 -0.280722 	-0.209098 	0 -0.281014 	-0.208962 	0 -0.281306 	-0.208827 	0 -0.281596 	-0.208693 	0 -0.28188 	-0.208564 	0 -0.282164 	-0.208436 	0 -0.282448 	-0.208302 	0 -0.282732 	-0.208166 	0 -0.283014 	-0.208032 	0 -0.28329 	-0.207902 	0 -0.283567 	-0.207773 	0 -0.283843 	-0.207644 	0 -0.284119 	-0.207513 	0 -0.284394 	-0.207377 	0 -0.284639 	-0.207258 	0 -0.284885 	-0.20714 	0 -0.285131 	-0.207021 	0 -0.285377 	-0.206902 	0 -0.285625 	-0.206782 	0 -0.285647 	-0.206772 	0 -0.285669 	-0.206761 	0 -0.285692 	-0.206751 	0 -0.285714 	-0.20674 	0 -0.285738 	-0.20673 	0 -0.286007 	-0.206603 	0 -0.286276 	-0.206475 	0 -0.286545 	-0.206347 	0 -0.286814 	-0.206219 	0 -0.287082 	-0.206092 	0 -0.287343 	-0.205971 	0 -0.287604 	-0.205846 	0 -0.287866 	-0.205717 	0 -0.288128 	-0.205589 	0 -0.288388 	-0.205461 	0 -0.288642 	-0.205339 	0 -0.288896 	-0.205217 	0 -0.28915 	-0.205094 	0 -0.289404 	-0.204964 	0 -0.289657 	-0.204836 	0 -0.289904 	-0.204713 	0 -0.29015 	-0.204591 	0 -0.290397 	-0.204468 	0 -0.290643 	-0.204345 	0 -0.29089 	-0.204217 	0 -0.291064 	-0.204127 	0 -0.29124 	-0.204037 	0 -0.291415 	-0.203947 	0 -0.29159 	-0.203857 	0 -0.291767 	-0.203766 	0 -0.291832 	-0.203734 	0 -0.291898 	-0.203702 	0 -0.291964 	-0.203669 	0 -0.29203 	-0.203637 	0 -0.292097 	-0.203605 	0 -0.292337 	-0.203487 	0 -0.292578 	-0.203366 	0 -0.292819 	-0.203245 	0 -0.293059 	-0.203124 	0 -0.293299 	-0.203004 	0 -0.293531 	-0.20289 	0 -0.293765 	-0.202773 	0 -0.293999 	-0.202651 	0 -0.294233 	-0.20253 	0 -0.294466 	-0.20241 	0 -0.294692 	-0.202295 	0 -0.294918 	-0.202181 	0 -0.295144 	-0.202065 	0 -0.295371 	-0.201944 	0 -0.295598 	-0.201823 	0 -0.295817 	-0.201709 	0 -0.296036 	-0.201595 	0 -0.296256 	-0.201481 	0 -0.296475 	-0.201366 	0 -0.296695 	-0.201246 	0 -0.296892 	-0.201141 	0 -0.297089 	-0.201036 	0 -0.297285 	-0.200931 	0 -0.297482 	-0.200826 	0 -0.297681 	-0.20072 	0 -0.297697 	-0.200712 	0 -0.297713 	-0.200704 	0 -0.297728 	-0.200695 	0 -0.297744 	-0.200687 	0 -0.297762 	-0.200679 	0 -0.297976 	-0.20057 	0 -0.29819 	-0.200461 	0 -0.298405 	-0.200352 	0 -0.298619 	-0.200242 	0 -0.298834 	-0.200133 	0 -0.29904 	-0.200033 	0 -0.299248 	-0.199926 	0 -0.299456 	-0.199819 	0 -0.299664 	-0.199711 	0 -0.299872 	-0.199604 	0 -0.300072 	-0.199506 	0 -0.300272 	-0.199408 	0 -0.300474 	-0.199305 	0 -0.300676 	-0.199199 	0 -0.300878 	-0.199095 	0 -0.301071 	-0.199 	0 -0.301265 	-0.198906 	0 -0.301459 	-0.198812 	0 -0.301654 	-0.198713 	0 -0.301851 	-0.198612 	0 -0.302038 	-0.198523 	0 -0.302226 	-0.198434 	0 -0.302414 	-0.198344 	0 -0.302602 	-0.198255 	0 -0.302792 	-0.198163 	0 -0.30289 	-0.198118 	0 -0.302989 	-0.198073 	0 -0.303088 	-0.198029 	0 -0.303187 	-0.197984 	0 -0.303287 	-0.19794 	0 -0.303372 	-0.197904 	0 -0.303459 	-0.197868 	0 -0.303546 	-0.197832 	0 -0.303633 	-0.197796 	0 -0.303721 	-0.197761 	0 -0.303903 	-0.197695 	0 -0.304088 	-0.197626 	0 -0.304273 	-0.197557 	0 -0.304457 	-0.197488 	0 -0.304642 	-0.19742 	0 -0.304817 	-0.19737 	0 -0.304995 	-0.197318 	0 -0.305174 	-0.197261 	0 -0.305353 	-0.197204 	0 -0.305532 	-0.197148 	0 -0.305702 	-0.197115 	0 -0.305873 	-0.197083 	0 -0.306045 	-0.197046 	0 -0.306219 	-0.197005 	0 -0.306393 	-0.196965 	0 -0.306557 	-0.196952 	0 -0.306722 	-0.196941 	0 -0.306888 	-0.196929 	0 -0.307055 	-0.196912 	0 -0.307224 	-0.196893 	0 -0.307383 	-0.196906 	0 -0.307543 	-0.19692 	0 -0.307703 	-0.196934 	0 -0.307863 	-0.196948 	0 -0.308025 	-0.196958 	0 -0.308117 	-0.196985 	0 -0.30821 	-0.197012 	0 -0.308303 	-0.19704 	0 -0.308396 	-0.197068 	0 -0.30849 	-0.197098 	0 -0.308554 	-0.197117 	0 -0.308619 	-0.197137 	0 -0.308684 	-0.197158 	0 -0.308749 	-0.197178 	0 -0.308815 	-0.1972 	0 -0.30897 	-0.197294 	0 -0.309127 	-0.197386 	0 -0.309285 	-0.197477 	0 -0.309443 	-0.197569 	0 -0.309601 	-0.197662 	0 -0.309749 	-0.197812 	0 -0.3099 	-0.197957 	0 -0.310052 	-0.198098 	0 -0.310205 	-0.198239 	0 -0.310358 	-0.198382 	0 -0.310501 	-0.198593 	0 -0.310644 	-0.198806 	0 -0.310791 	-0.19901 	0 -0.310938 	-0.19921 	0 -0.311087 	-0.199413 	0 -0.311224 	-0.199697 	0 -0.311363 	-0.199983 	0 -0.311501 	-0.200269 	0 -0.311643 	-0.200544 	0 -0.311788 	-0.20082 	0 -0.31192 	-0.201189 	0 -0.312053 	-0.201562 	0 -0.312187 	-0.201935 	0 -0.31232 	-0.202308 	0 -0.31246 	-0.202672 	0 -0.312587 	-0.203141 	0 -0.312715 	-0.203615 	0 -0.312843 	-0.204088 	0 -0.312972 	-0.204561 	0 -0.313101 	-0.205032 	0 -0.313102 	-0.205035 	0 -0.313103 	-0.205039 	0 -0.313104 	-0.205042 	0 -0.313105 	-0.205046 	0 -0.313106 	-0.20505 	0 -0.313236 	-0.205648 	0 -0.313367 	-0.20625 	0 -0.313499 	-0.206852 	0 -0.313632 	-0.207454 	0 -0.313768 	-0.208064 	0 -0.313888 	-0.208821 	0 -0.314015 	-0.209562 	0 -0.314142 	-0.210302 	0 -0.314271 	-0.211042 	0 -0.314403 	-0.211793 	0 -0.314517 	-0.212713 	0 -0.314635 	-0.213633 	0 -0.314758 	-0.214531 	0 -0.314882 	-0.215429 	0 -0.31501 	-0.216342 	0 -0.31512 	-0.217443 	0 -0.315232 	-0.218549 	0 -0.315346 	-0.219648 	0 -0.315467 	-0.220723 	0 -0.315591 	-0.22182 	0 -0.315697 	-0.223124 	0 -0.315804 	-0.224434 	0 -0.315913 	-0.225741 	0 -0.316024 	-0.227039 	0 -0.316146 	-0.228342 	0 -0.316246 	-0.229871 	0 -0.316349 	-0.231404 	0 -0.316454 	-0.232935 	0 -0.31656 	-0.234464 	0 -0.316672 	-0.236022 	0 -0.316695 	-0.236447 	0 -0.316719 	-0.236879 	0 -0.316742 	-0.237312 	0 -0.316766 	-0.237746 	0 -0.316791 	-0.238179 	0 -0.316872 	-0.239535 	0 -0.316954 	-0.240897 	0 -0.317038 	-0.242256 	0 -0.317123 	-0.243614 	0 -0.317211 	-0.245005 	0 -0.317304 	-0.247099 	0 -0.317407 	-0.249159 	0 -0.317512 	-0.251215 	0 -0.317619 	-0.253266 	0 -0.317733 	-0.255384 	0 -0.317819 	-0.257777 	0 -0.31791 	-0.260165 	0 -0.318011 	-0.262503 	0 -0.31