# vtk DataFile Version 2.0
track0
ASCII
DATASET POLYDATA
POINTS 12105 float
-0.0205 0.001 1e-05
-0.0204938 0.0011 1e-05
-0.0204874 0.00119999 1e-05
-0.0204809 0.00129997 1e-05
-0.0204742 0.00139994 1e-05
-0.0204674 0.0015 1e-05
-0.0204604 0.0016 1e-05
-0.0204532 0.00169999 1e-05
-0.0204459 0.00179996 1e-05
-0.0204384 0.00189992 1e-05
-0.0204306 0.002 1e-05
-0.0204227 0.0021 1e-05
-0.0204146 0.00219998 1e-05
-0.0204062 0.00229995 1e-05
-0.0203977 0.00239989 1e-05
-0.0203889 0.0025 1e-05
-0.0203799 0.0026 1e-05
-0.0203706 0.00269998 1e-05
-0.0203611 0.00279993 1e-05
-0.0203514 0.00289987 1e-05
-0.0203414 0.003 1e-05
-0.0203312 0.0031 1e-05
-0.0203208 0.00319997 1e-05
-0.0203101 0.00329992 1e-05
-0.0202991 0.00339984 1e-05
-0.0202879 0.0035 1e-05
-0.0202874 0.0035043 1e-05
-0.0202869 0.00350859 1e-05
-0.0202864 0.00351289 1e-05
-0.0202859 0.00351718 1e-05
-0.0202854 0.00352144 1e-05
-0.0202744 0.00361715 1e-05
-0.0202631 0.00371283 1e-05
-0.0202516 0.00380849 1e-05
-0.0202398 0.00390412 1e-05
-0.0202278 0.004 1e-05
-0.020215 0.0041 1e-05
-0.0202019 0.00419997 1e-05
-0.0201886 0.0042999 1e-05
-0.020175 0.00439979 1e-05
-0.020161 0.0045 1e-05
-0.0201469 0.0046 1e-05
-0.0201325 0.00469996 1e-05
-0.0201177 0.00479988 1e-05
-0.0201028 0.00489976 1e-05
-0.0200875 0.005 1e-05
-0.0200744 0.00508375 1e-05
-0.0200612 0.00516747 1e-05
-0.0200478 0.00525115 1e-05
-0.0200342 0.00533481 1e-05
-0.0200223 0.00540671 1e-05
-0.0200192 0.00542537 1e-05
-0.0200161 0.00544402 1e-05
-0.0200129 0.00546268 1e-05
-0.0200098 0.00548133 1e-05
-0.0200066 0.0055 1e-05
-0.0199897 0.0056 1e-05
-0.0199724 0.00569995 1e-05
-0.0199549 0.00579986 1e-05
-0.0199371 0.00589971 1e-05
-0.0199189 0.006 1e-05
-0.0199005 0.0061 1e-05
-0.0198818 0.00619995 1e-05
-0.0198628 0.00629984 1e-05
-0.0198435 0.00639968 1e-05
-0.0198239 0.0065 1e-05
-0.0198114 0.00656288 1e-05
-0.0197988 0.00662573 1e-05
-0.019786 0.00668856 1e-05
-0.0197732 0.00675137 1e-05
-0.0197614 0.00680867 1e-05
-0.0197534 0.00684694 1e-05
-0.0197454 0.0068852 1e-05
-0.0197374 0.00692344 1e-05
-0.0197293 0.00696168 1e-05
-0.0197211 0.007 1e-05
-0.0196997 0.0071 1e-05
-0.0196781 0.00719994 1e-05
-0.0196561 0.00729981 1e-05
-0.0196339 0.00739962 1e-05
-0.0196112 0.0075 1e-05
-0.0195895 0.00759493 1e-05
-0.0195675 0.0076898 1e-05
-0.0195452 0.0077846 1e-05
-0.0195227 0.00787935 1e-05
-0.0195025 0.00796307 1e-05
-0.0195007 0.00797046 1e-05
-0.0194989 0.00797784 1e-05
-0.0194971 0.00798523 1e-05
-0.0194953 0.00799261 1e-05
-0.0194935 0.008 1e-05
-0.0194691 0.0081 1e-05
-0.0194443 0.00819993 1e-05
-0.0194193 0.00829978 1e-05
-0.0193939 0.00839956 1e-05
-0.0193681 0.0085 1e-05
-0.0193436 0.00859402 1e-05
-0.0193189 0.00868798 1e-05
-0.0192939 0.00878186 1e-05
-0.0192686 0.00887568 1e-05
-0.0192457 0.00895967 1e-05
-0.0192435 0.00896774 1e-05
-0.0192413 0.0089758 1e-05
-0.0192391 0.00898387 1e-05
-0.0192369 0.00899193 1e-05
-0.0192346 0.009 1e-05
-0.019207 0.0091 1e-05
-0.019179 0.00919992 1e-05
-0.0191508 0.00929975 1e-05
-0.0191222 0.00939949 1e-05
-0.0190931 0.0095 1e-05
-0.0190727 0.00956969 1e-05
-0.0190521 0.00963934 1e-05
-0.0190314 0.00970895 1e-05
-0.0190106 0.00977851 1e-05
-0.018991 0.00984307 1e-05
-0.0189815 0.00987446 1e-05
-0.0189719 0.00990583 1e-05
-0.0189623 0.0099372 1e-05
-0.0189526 0.00996856 1e-05
-0.0189429 0.01 1e-05
-0.0189119 0.0101 1e-05
-0.0188807 0.0101999 1e-05
-0.018849 0.0102997 1e-05
-0.0188171 0.0103994 1e-05
-0.0187846 0.0105 1e-05
-0.0187753 0.0105282 1e-05
-0.0187661 0.0105565 1e-05
-0.0187568 0.0105847 1e-05
-0.0187475 0.0106129 1e-05
-0.0187384 0.0106404 1e-05
-0.0187145 0.0107123 1e-05
-0.0186905 0.0107842 1e-05
-0.0186663 0.010856 1e-05
-0.0186419 0.0109277 1e-05
-0.0186172 0.011 1e-05
-0.0185913 0.011075 1e-05
-0.0185652 0.01115 1e-05
-0.018539 0.011225 1e-05
-0.0185126 0.0112998 1e-05
-0.0184878 0.0113695 1e-05
-0.0184784 0.0113956 1e-05
-0.0184691 0.0114217 1e-05
-0.0184597 0.0114478 1e-05
-0.0184503 0.0114739 1e-05
-0.0184408 0.0115 1e-05
-0.0184045 0.0116 1e-05
-0.0183679 0.0116999 1e-05
-0.0183309 0.0117996 1e-05
-0.0182937 0.0118993 1e-05
-0.0182556 0.012 1e-05
-0.0182523 0.0120086 1e-05
-0.018249 0.0120172 1e-05
-0.0182457 0.0120258 1e-05
-0.0182425 0.0120345 1e-05
-0.0182392 0.012043 1e-05
-0.0182042 0.0121344 1e-05
-0.0181689 0.0122257 1e-05
-0.0181333 0.0123169 1e-05
-0.0180974 0.012408 1e-05
-0.0180609 0.0125 1e-05
-0.0180472 0.0125341 1e-05
-0.0180335 0.0125682 1e-05
-0.0180198 0.0126022 1e-05
-0.018006 0.0126362 1e-05
-0.0179926 0.0126693 1e-05
-0.0179657 0.0127354 1e-05
-0.0179386 0.0128015 1e-05
-0.0179113 0.0128675 1e-05
-0.017884 0.0129335 1e-05
-0.0178562 0.013 1e-05
-0.0178345 0.0130515 1e-05
-0.0178128 0.0131029 1e-05
-0.017791 0.0131543 1e-05
-0.0177691 0.0132057 1e-05
-0.017748 0.0132549 1e-05
-0.0177269 0.0133039 1e-05
-0.0177057 0.0133529 1e-05
-0.0176844 0.0134018 1e-05
-0.017663 0.0134508 1e-05
-0.0176415 0.0135 1e-05
-0.0176142 0.0135618 1e-05
-0.0175869 0.0136235 1e-05
-0.0175594 0.0136852 1e-05
-0.0175318 0.0137468 1e-05
-0.0175053 0.0138054 1e-05
-0.0174877 0.0138443 1e-05
-0.01747 0.0138832 1e-05
-0.0174523 0.0139221 1e-05
-0.0174345 0.0139609 1e-05
-0.0174165 0.014 1e-05
-0.0173861 0.0140658 1e-05
-0.0173556 0.0141316 1e-05
-0.0173249 0.0141972 1e-05
-0.0172941 0.0142628 1e-05
-0.0172647 0.0143252 1e-05
-0.017248 0.0143601 1e-05
-0.0172314 0.0143951 1e-05
-0.0172147 0.01443 1e-05
-0.0171979 0.0144649 1e-05
-0.017181 0.0145 1e-05
-0.01715 0.0145642 1e-05
-0.0171188 0.0146284 1e-05
-0.0170875 0.0146925 1e-05
-0.0170561 0.0147566 1e-05
-0.0170259 0.0148176 1e-05
-0.0170078 0.014854 1e-05
-0.0169896 0.0148905 1e-05
-0.0169714 0.014927 1e-05
-0.0169531 0.0149634 1e-05
-0.0169347 0.015 1e-05
-0.0169056 0.0150577 1e-05
-0.0168763 0.0151152 1e-05
-0.016847 0.0151728 1e-05
-0.0168175 0.0152303 1e-05
-0.0167891 0.0152854 1e-05
-0.0167669 0.0153283 1e-05
-0.0167446 0.0153712 1e-05
-0.0167222 0.015414 1e-05
-0.0166998 0.0154569 1e-05
-0.0166771 0.0155 1e-05
-0.0166525 0.0155466 1e-05
-0.0166278 0.0155931 1e-05
-0.0166031 0.0156396 1e-05
-0.0165783 0.015686 1e-05
-0.0165542 0.015731 1e-05
-0.0165252 0.0157848 1e-05
-0.0164961 0.0158385 1e-05
-0.0164669 0.0158922 1e-05
-0.0164376 0.0159458 1e-05
-0.0164079 0.016 1e-05
-0.0163906 0.0160315 1e-05
-0.0163732 0.0160629 1e-05
-0.0163558 0.0160943 1e-05
-0.0163383 0.0161257 1e-05
-0.0163212 0.0161565 1e-05
-0.0162828 0.0162252 1e-05
-0.0162442 0.0162938 1e-05
-0.0162055 0.0163623 1e-05
-0.0161665 0.0164307 1e-05
-0.0161269 0.0165 1e-05
-0.0161195 0.0165128 1e-05
-0.0161121 0.0165256 1e-05
-0.0161048 0.0165384 1e-05
-0.0160974 0.0165512 1e-05
-0.01609 0.0165639 1e-05
-0.0160442 0.0166431 1e-05
-0.0159981 0.0167222 1e-05
-0.0159518 0.0168012 1e-05
-0.0159052 0.01688 1e-05
-0.0158607 0.0169548 1e-05
-0.0158553 0.0169638 1e-05
-0.0158499 0.0169729 1e-05
-0.0158445 0.0169819 1e-05
-0.0158391 0.0169909 1e-05
-0.0158336 0.017 1e-05
-0.0157936 0.0170667 1e-05
-0.0157533 0.0171333 1e-05
-0.0157129 0.0171998 1e-05
-0.0156724 0.0172662 1e-05
-0.0156333 0.0173298 1e-05
-0.0156123 0.0173638 1e-05
-0.0155912 0.0173978 1e-05
-0.0155701 0.0174318 1e-05
-0.0155489 0.0174658 1e-05
-0.0155276 0.0175 1e-05
-0.0155036 0.0175383 1e-05
-0.0154796 0.0175765 1e-05
-0.0154555 0.0176146 1e-05
-0.0154313 0.0176528 1e-05
-0.0154077 0.01769 1e-05
-0.0153682 0.017752 1e-05
-0.0153286 0.0178139 1e-05
-0.0152889 0.0178757 1e-05
-0.0152489 0.0179374 1e-05
-0.0152083 0.018 1e-05
-0.0152034 0.0180075 1e-05
-0.0151985 0.0180149 1e-05
-0.0151937 0.0180224 1e-05
-0.0151888 0.0180298 1e-05
-0.0151839 0.0180372 1e-05
-0.0151395 0.018105 1e-05
-0.015095 0.0181726 1e-05
-0.0150502 0.0182401 1e-05
-0.0150053 0.0183075 1e-05
-0.0149619 0.0183721 1e-05
-0.0149447 0.0183977 1e-05
-0.0149275 0.0184233 1e-05
-0.0149102 0.0184488 1e-05
-0.0148929 0.0184743 1e-05
-0.0148754 0.0185 1e-05
-0.0148487 0.0185393 1e-05
-0.0148219 0.0185785 1e-05
-0.014795 0.0186176 1e-05
-0.0147681 0.0186568 1e-05
-0.0147417 0.018695 1e-05
-0.0146995 0.018756 1e-05
-0.0146572 0.0188169 1e-05
-0.0146146 0.0188777 1e-05
-0.014572 0.0189384 1e-05
-0.0145285 0.019 1e-05
-0.0145275 0.0190015 1e-05
-0.0145264 0.0190029 1e-05
-0.0145254 0.0190044 1e-05
-0.0145244 0.0190058 1e-05
-0.0145233 0.0190073 1e-05
-0.01448 0.0190683 1e-05
-0.0144365 0.0191292 1e-05
-0.0143929 0.01919 1e-05
-0.0143491 0.0192507 1e-05
-0.0143067 0.0193094 1e-05
-0.0142789 0.0193475 1e-05
-0.0142511 0.0193856 1e-05
-0.0142232 0.0194236 1e-05
-0.0141953 0.0194616 1e-05
-0.014167 0.0195 1e-05
-0.014152 0.0195204 1e-05
-0.0141369 0.0195407 1e-05
-0.0141218 0.0195611 1e-05
-0.0141067 0.0195814 1e-05
-0.0140917 0.0196015 1e-05
-0.0140491 0.0196587 1e-05
-0.0140063 0.0197158 1e-05
-0.0139635 0.0197728 1e-05
-0.0139204 0.0198297 1e-05
-0.0138786 0.0198848 1e-05
-0.013861 0.0199079 1e-05
-0.0138434 0.0199309 1e-05
-0.0138258 0.0199539 1e-05
-0.0138081 0.0199769 1e-05
-0.0137904 0.02 1e-05
-0.0137657 0.020032 1e-05
-0.013741 0.020064 1e-05
-0.0137163 0.020096 1e-05
-0.0136915 0.0201279 1e-05
-0.0136671 0.0201593 1e-05
-0.0136251 0.0202131 1e-05
-0.0135831 0.0202668 1e-05
-0.0135409 0.0203204 1e-05
-0.0134986 0.0203739 1e-05
-0.0134573 0.0204259 1e-05
-0.0134455 0.0204407 1e-05
-0.0134337 0.0204555 1e-05
-0.0134219 0.0204703 1e-05
-0.0134101 0.0204851 1e-05
-0.0133982 0.0205 1e-05
-0.0133684 0.0205371 1e-05
-0.0133385 0.0205743 1e-05
-0.0133087 0.0206113 1e-05
-0.0132787 0.0206483 1e-05
-0.0132493 0.0206846 1e-05
-0.013208 0.0207354 1e-05
-0.0131666 0.020786 1e-05
-0.0131251 0.0208366 1e-05
-0.0130835 0.0208871 1e-05
-0.0130429 0.0209363 1e-05
-0.0130323 0.020949 1e-05
-0.0130217 0.0209618 1e-05
-0.0130111 0.0209745 1e-05
-0.0130005 0.0209872 1e-05
-0.0129899 0.021 1e-05
-0.0129595 0.0210364 1e-05
-0.0129291 0.0210727 1e-05
-0.0128987 0.021109 1e-05
-0.0128682 0.0211452 1e-05
-0.0128381 0.0211808 1e-05
-0.0127975 0.0212288 1e-05
-0.0127568 0.0212767 1e-05
-0.012716 0.0213245 1e-05
-0.0126751 0.0213723 1e-05
-0.012635 0.0214189 1e-05
-0.012621 0.0214351 1e-05
-0.012607 0.0214513 1e-05
-0.012593 0.0214675 1e-05
[...]
POINT_DATA 12105
 FIELD attributes 2
p 1 12105 float
-0.0102689 -0.0113091 -0.0123496 -0.0133899 -0.0144301 -0.0154733 -0.0165317 -0.0175885 -0.0186443 -0.0196999 -0.0207556 -0.0217763 -0.0227962 -0.0238156 -0.0248343 -0.025854 -0.0268625 -0.0278707 -0.0288787 -0.0298862 -0.030895 -0.0318982 -0.0329009 -0.0339034 -0.0349056 -0.0359099 -0.0359528 -0.0359955 -0.0360382 -0.0360809 -0.0361232 -0.0370756 -0.0380279 -0.0389799 -0.0399318 -0.0408862 -0.0418735 -0.0428599 -0.0438457 -0.0448313 -0.0458198 -0.0467984 -0.0477766 -0.0487545 -0.0497317 -0.0507123 -0.0515254 -0.0523382 -0.0531507 -0.053963 -0.0546611 -0.0548428 -0.0550239 -0.0552051 -0.0553862 -0.055567 -0.0565304 -0.057493 -0.0584551 -0.0594169 -0.0603827 -0.0613393 -0.062295 -0.0632502 -0.0642046 -0.0651631 -0.0657599 -0.0663562 -0.0669524 -0.0675483 -0.0680918 -0.0684547 -0.0688176 -0.0691804 -0.0695432 -0.0699068 -0.0708484 -0.0717892 -0.0727294 -0.0736691 -0.0746141 -0.0755011 -0.0763876 -0.0772736 -0.0781591 -0.0789418 -0.079011 -0.0790801 -0.0791491 -0.0792181 -0.0792867 -0.0802142 -0.0811404 -0.0820661 -0.0829912 -0.083922 -0.0847875 -0.0856521 -0.0865161 -0.0873796 -0.0881524 -0.0882265 -0.0883006 -0.0883748 -0.0884489 -0.0885232 -0.0894357 -0.0903475 -0.0912586 -0.092169 -0.0930864 -0.0937176 -0.0943484 -0.0949789 -0.0956091 -0.096194 -0.0964783 -0.096762 -0.0970457 -0.0973293 -0.0976133 -0.0985114 -0.0994082 -0.100304 -0.1012 -0.102102 -0.102354 -0.102606 -0.102858 -0.103109 -0.103353 -0.103993 -0.104632 -0.105271 -0.105909 -0.106552 -0.107215 -0.107877 -0.108539 -0.1092 -0.109816 -0.110046 -0.110276 -0.110506 -0.110736 -0.110965 -0.111841 -0.112714 -0.113587 -0.114458 -0.115339 -0.115414 -0.115489 -0.115564 -0.115639 -0.115713 -0.116505 -0.117296 -0.118086 -0.118875 -0.119672 -0.119966 -0.120259 -0.120552 -0.120845 -0.12113 -0.121697 -0.122263 -0.122829 -0.123394 -0.123963 -0.124403 -0.124841 -0.125279 -0.125716 -0.126135 -0.126551 -0.126966 -0.127381 -0.127796 -0.128213 -0.128734 -0.129255 -0.129774 -0.130294 -0.130788 -0.131114 -0.13144 -0.131766 -0.132091 -0.132418 -0.132967 -0.133515 -0.134063 -0.13461 -0.135129 -0.135418 -0.135708 -0.135997 -0.136286 -0.136577 -0.137106 -0.137635 -0.138164 -0.138692 -0.139194 -0.139493 -0.139791 -0.140089 -0.140387 -0.140686 -0.141156 -0.141626 -0.142095 -0.142563 -0.143012 -0.143358 -0.143705 -0.144051 -0.144397 -0.144745 -0.145121 -0.145496 -0.14587 -0.146244 -0.146606 -0.147036 -0.147464 -0.147892 -0.148319 -0.14875 -0.149001 -0.149252 -0.149502 -0.149752 -0.149997 -0.150538 -0.151078 -0.151617 -0.152156 -0.152701 -0.152802 -0.152903 -0.153003 -0.153104 -0.153204 -0.153821 -0.154435 -0.155048 -0.155661 -0.156241 -0.15631 -0.156379 -0.156448 -0.156518 -0.156587 -0.1571 -0.157611 -0.158122 -0.158632 -0.15912 -0.159377 -0.159635 -0.159891 -0.160148 -0.160406 -0.160696 -0.160986 -0.161275 -0.161564 -0.161845 -0.162308 -0.162769 -0.163229 -0.163688 -0.164153 -0.164208 -0.164264 -0.16432 -0.164375 -0.164432 -0.16493 -0.165427 -0.165923 -0.166418 -0.166893 -0.167077 -0.167261 -0.167445 -0.167628 -0.167814 -0.168099 -0.168383 -0.168667 -0.168951 -0.169228 -0.169661 -0.170092 -0.170522 -0.170951 -0.171386 -0.171396 -0.171406 -0.171417 -0.171427 -0.171438 -0.171865 -0.172292 -0.172718 -0.173142 -0.173553 -0.173812 -0.174071 -0.17433 -0.174588 -0.174848 -0.174989 -0.175129 -0.175269 -0.175409 -0.175546 -0.17593 -0.176312 -0.176695 -0.177076 -0.177445 -0.177595 -0.177745 -0.177894 -0.178043 -0.178191 -0.178402 -0.178613 -0.178824 -0.179034 -0.179241 -0.179584 -0.179926 -0.180268 -0.180609 -0.180942 -0.181033 -0.181124 -0.181214 -0.181305 -0.181397 -0.181631 -0.181864 -0.182096 -0.182328 -0.182554 -0.18286 -0.183165 -0.183469 -0.183772 -0.184069 -0.184143 -0.184217 -0.18429 -0.184363 -0.184436 -0.18465 -0.184865 -0.18508 -0.185293 -0.185503 -0.185772 -0.186042 -0.186311 -0.18658 -0.186844 -0.18693 -0.187017 -0.187104 -0.18719 -0.187277 -0.187446 -0.187612 -0.187778 -0.187944 -0.188105 -0.188342 -0.188578 -0.188814 -0.18905 -0.189281 -0.189403 -0.189524 -0.189644 -0.189764 -0.189882 -0.189979 -0.190077 -0.190174 -0.190271 -0.190368 -0.190569 -0.190773 -0.190979 -0.191183 -0.191385 -0.191549 -0.191713 -0.191877 -0.19204 -0.192205 -0.192225 -0.192243 -0.192261 -0.192279 -0.192296 -0.192471 -0.192646 -0.19282 -0.192993 -0.193162 -0.193317 -0.193469 -0.193619 -0.19377 -0.193918 -0.19397 -0.194023 -0.194075 -0.194126 -0.194178 -0.194262 -0.194349 -0.194435 -0.194521 -0.194609 -0.194729 -0.194849 -0.194973 -0.195095 -0.195216 -0.195315 -0.195417 -0.195518 -0.195618 -0.19572 -0.195721 -0.195723 -0.195726 -0.195728 -0.195731 -0.195826 -0.195917 -0.196008 -0.196098 -0.196183 -0.196256 -0.196327 -0.196399 -0.196473 -0.196546 -0.196593 -0.196636 -0.196679 -0.196721 -0.19676 -0.196769 -0.196779 -0.196789 -0.196799 -0.19681 -0.196849 -0.196894 -0.196938 -0.196981 -0.197027 -0.197046 -0.197065 -0.197083 -0.197108 -0.197132 -0.19713 -0.197131 -0.197132 -0.197132 -0.197136 -0.197138 -0.19714 -0.197142 -0.197144 -0.197147 -0.197142 -0.197137 -0.197131 -0.197124 -0.197114 -0.197084 -0.197054 -0.197025 -0.197001 -0.196977 -0.196932 -0.196884 -0.196835 -0.196785 -0.196731 -0.19673 -0.196729 -0.196729 -0.196728 -0.196728 -0.196667 -0.196611 -0.196553 -0.196495 -0.196441 -0.196356 -0.196271 -0.196193 -0.196116 -0.196039 -0.195933 -0.195831 -0.195727 -0.195624 -0.195532 -0.195486 -0.195441 -0.195396 -0.195351 -0.195306 -0.19524 -0.19517 -0.1951 -0.19503 -0.194957 -0.194819 -0.19469 -0.194562 -0.194434 -0.194308 -0.194154 -0.193996 -0.193838 -0.193689 -0.193538 -0.193367 -0.193196 -0.193024 -0.192852 -0.192678 -0.192676 -0.192673 -0.19267 -0.192667 -0.192666 -0.192481 -0.192296 -0.19211 -0.191923 -0.191737 -0.191518 -0.191305 -0.191103 -0.1909 -0.190702 -0.190467 -0.190232 -0.189995 -0.189764 -0.189541 -0.189324 -0.18911 -0.188896 -0.188681 -0.188468 -0.18843 -0.188393 -0.188357 -0.18832 -0.188287 -0.188024 -0.187762 -0.187499 -0.187236 -0.18697 -0.186673 -0.18638 -0.186102 -0.185822 -0.185547 -0.185235 -0.18492 -0.184604 -0.184296 -0.183995 -0.183665 -0.183338 -0.18301 -0.182682 -0.182353 -0.18235 -0.182346 -0.182343 -0.18234 -0.182337 -0.181995 -0.18165 -0.181304 -0.180957 -0.180609 -0.180224 -0.179851 -0.179489 -0.179126 -0.178769 -0.17837 -0.177967 -0.177564 -0.177182 -0.176796 -0.176374 -0.175955 -0.175535 -0.175114 -0.174712 -0.174526 -0.174335 -0.174144 -0.173952 -0.173755 -0.173513 -0.173269 -0.173025 -0.17278 -0.172534 -0.172061 -0.171613 -0.171164 -0.170715 -0.170275 -0.169783 -0.16929 -0.168817 -0.168347 -0.167878 -0.16736 -0.16685 -0.16634 -0.165843 -0.165368 -0.164838 -0.164306 -0.163774 -0.163242 -0.162717 -0.162591 -0.162473 -0.162356 -0.162239 -0.162129 -0.161702 -0.161276 -0.160849 -0.160423 -0.159999 -0.159414 -0.158849 -0.158284 -0.157718 -0.157145 -0.156536 -0.155927 -0.155342 -0.154763 -0.154188 -0.153566 -0.152934 -0.152302 -0.151687 -0.151078 -0.150434 -0.14979 -0.149146 -0.148502 -0.147875 -0.147639 -0.147392 -0.147145 -0.146898 -0.146639 -0.14622 -0.145799 -0.145379 -0.144957 -0.144535 -0.143816 -0.143134 -0.142452 -0.141769 -0.1411 -0.140359 -0.139622 -0.138917 -0.138212 -0.137506 -0.136736 -0.135978 -0.135221 -0.134502 -0.133796 -0.133026 -0.132254 -0.131481 -0.130707 -0.129973 -0.129214 -0.128465 -0.127715 -0.126966 -0.126221 -0.126177 -0.126132 -0.126088 -0.126044 -0.126002 -0.125202 -0.124393 -0.123584 -0.122775 -0.121956 -0.121074 -0.120235 -0.1194 -0.118564 -0.117733 -0.116857 -0.115971 -0.115126 -0.114286 -0.113437 -0.112522 -0.111607 -0.110692 -0.10982 -0.108955 -0.10804 -0.107117 -0.106194 -0.10527 -0.104386 -0.103452 -0.10252 -0.101587 -0.100654 -0.0997178 -0.0997004 -0.099683 -0.0996657 -0.0996483 -0.0996324 -0.0986695 -0.0977045 -0.0967393 -0.0957738 -0.0948072 -0.0937644 -0.0927768 -0.0917891 -0.0908012 -0.0898176 -0.0887647 -0.0877144 -0.0867132 -0.0857118 -0.0847072 -0.0836273 -0.0825488 -0.0814818 -0.0804597 -0.0794389 -0.0783506 -0.0772575 -0.0761646 -0.0750889 -0.0740475 -0.0729356 -0.0718239 -0.0707124 -0.0696011 -0.0685115 -0.0680003 -0.0674835 -0.0669667 -0.06645 -0.0659296 -0.0653154 -0.0646974 -0.0640794 -0.0634615 -0.0628387 -0.0616469 -0.0604885 -0.0593306 -0.0581732 -0.0570125 -0.0557772 -0.0545797 -0.0534068 -0.0522346 -0.0510512 -0.0497921 -0.048536 -0.0473289 -0.0461399 -0.0449425 -0.0436708 -0.0423968 -0.041124 -0.0399071 -0.0386836 -0.0373892 -0.0360981 -0.0348086 -0.0335207 -0.032277 -0.0309833 -0.0296879 -0.0283944 -0.0271028 -0.0258598 -0.025834 -0.0258081 -0.0257823 -0.0257565 -0.0257282 -0.0243842 -0.0230412 -0.0217005 -0.020362 -0.0189909 -0.0175577 -0.0161914 -0.0148278 -0.0134669 -0.0120601 -0.0105958 -0.00913233 -0.0077445 -0.00636024 -0.00492723 -0.00343228 -0.00193258 -0.000437133 0.000988027 0.00247153 0.00399832 0.00552268 0.00704215 0.00855675 0.010085 0.0111107 0.0121435 0.0131738 0.0142017 0.0151925 0.0157511 0.0163154 0.0168791 0.0174421 0.0180218 0.019679 0.0212938 0.0229026 0.0245055 0.0262012 0.0278856 0.0295522 0.0311535 0.0327487 0.0344545 0.0360839 0.0377023 0.0393135 0.0408672 0.0425088 0.0440631 0.0456164 0.0471629 0.0487027 0.0503589 0.0504839 0.050616 0.0507495 0.0508844 0.0510186 0.0526483 0.054282 0.0559089 0.0575291 0.0592835 0.0616216 0.0639425 0.0661896 0.0684247 0.0708793 0.0735263 0.0761562 0.0787698 0.0813468 0.0840836 0.0852629 0.086416 0.0875647 0.0887091 0.0897919 0.0907198 0.0916217 0.0925212 0.0934185 0.09434 0.0973007 0.100267 0.103231 0.106192 0.109332 0.109424 0.109516 0.109612 0.109713 0.109815 0.113563 0.117314 0.121055 0.124787 0.128661 0.128813 0.128972 0.129133 0.129298 0.12947 0.133604 0.137735 0.141855 0.145963 0.14992 0.150811 0.151712 0.152612 0.153513 0.154456 0.158013 0.161561 0.165103 0.168638 0.172091 0.174516 0.176936 0.179354 0.181769 0.184396 0.186508 0.188618 0.190727 0.192835 0.194922 0.199655 0.204381 0.209102 0.213816 0.218486 0.218663 0.218839 0.219015 0.21919 0.219367 0.224028 0.228686 0.233339 0.237987 0.242567 0.246365 0.250161 0.253955 0.257745 0.26202 0.263165 0.264313 0.265461 0.266609 0.267757 0.273005 0.278204 0.283382 0.288554 0.293666 0.297926 0.302183 0.306437 0.310686 0.315582 0.316532 0.31748 0.318429 0.319377 0.320323 0.325727 0.331079 0.336425 0.341764 0.347046 0.352373 0.357686 0.362992 0.368287 0.373473 0.375471 0.377457 0.379441 0.381424 0.383589 0.386589 0.389575 0.392558 0.395539 0.398494 0.403057 0.407589 0.412111 0.416626 0.421087 0.424926 0.428733 0.432531 0.436349 0.440124 0.443016 0.44587 0.448714 0.45155 0.454372 0.455029 0.455649 0.456269 0.456888 0.457574 0.458652 0.45969 0.460726 0.46176 0.462751 0.463108 0.463531 0.46395 0.464364 0.464733 0.4637 0.462799 0.461967 0.461132 0.460256 0.458013 0.455801 0.453796 0.451792 0.44975 0.446528 0.443271 0.440283 0.4373 0.434286 0.430463 0.426615 0.422937 0.419286 0.415611 0.411767 0.407914 0.404079 0.400248 0.396406 0.393376 0.390355 0.387086 0.383797 0.380516 0.379338 0.378165 0.376397 0.374628 0.37289 0.37439 0.375747 0.376417 0.377087 0.377787 0.381514 0.384942 0.387948 0.390952 0.393921 0.397543 0.401139 0.404836 0.408532 0.412061 0.413149 0.415696 0.418663 0.421631 0.424326 0.423579 0.426958 0.430346 0.433741 0.436842 0.43512 0.437235 0.439358 0.441488 0.44313 0.41978 0.396991 0.374174 0.351329 0.327026 0.2974 0.266199 0.234872 0.202967 0.159063 0.116866 0.0746093 0.0315056 -0.0116454 -0.0564125 -0.127211 -0.196266 -0.265366 -0.334511 -0.402603 -0.431145 -0.459709 -0.488286 -0.516878 -0.546934 -0.560693 -0.573953 -0.587215 -0.600477 -0.614022