# vtk DataFile Version 2.0
track0
ASCII
DATASET POLYDATA
POINTS 12105 float
-0.0205 0.001 1e-05
-0.0204938 0.0011 1e-05
-0.0204874 0.00119999 1e-05
-0.0204809 0.00129997 1e-05
-0.0204742 0.00139994 1e-05
-0.0204674 0.0015 1e-05
-0.0204604 0.0016 1e-05
-0.0204532 0.00169999 1e-05
-0.0204459 0.00179996 1e-05
-0.0204384 0.00189992 1e-05
-0.0204306 0.002 1e-05
-0.0204227 0.0021 1e-05
-0.0204146 0.00219998 1e-05
-0.0204062 0.00229995 1e-05
-0.0203977 0.00239989 1e-05
-0.0203889 0.0025 1e-05
-0.0203799 0.0026 1e-05
-0.0203706 0.00269998 1e-05
-0.0203611 0.00279993 1e-05
-0.0203514 0.00289987 1e-05
-0.0203414 0.003 1e-05
-0.0203312 0.0031 1e-05
-0.0203208 0.00319997 1e-05
-0.0203101 0.00329992 1e-05
-0.0202991 0.00339984 1e-05
-0.0202879 0.0035 1e-05
-0.0202874 0.0035043 1e-05
-0.0202869 0.00350859 1e-05
-0.0202864 0.00351289 1e-05
-0.0202859 0.00351718 1e-05
-0.0202854 0.00352144 1e-05
-0.0202744 0.00361715 1e-05
-0.0202631 0.00371283 1e-05
-0.0202516 0.00380849 1e-05
-0.0202398 0.00390412 1e-05
-0.0202278 0.004 1e-05
-0.020215 0.0041 1e-05
-0.0202019 0.00419997 1e-05
-0.0201886 0.0042999 1e-05
-0.020175 0.00439979 1e-05
-0.020161 0.0045 1e-05
-0.0201469 0.0046 1e-05
-0.0201325 0.00469996 1e-05
-0.0201177 0.00479988 1e-05
-0.0201028 0.00489976 1e-05
-0.0200875 0.005 1e-05
-0.0200744 0.00508375 1e-05
-0.0200612 0.00516747 1e-05
-0.0200478 0.00525115 1e-05
-0.0200342 0.00533481 1e-05
-0.0200223 0.00540671 1e-05
-0.0200192 0.00542537 1e-05
-0.0200161 0.00544402 1e-05
-0.0200129 0.00546268 1e-05
-0.0200098 0.00548133 1e-05
-0.0200066 0.0055 1e-05
-0.0199897 0.0056 1e-05
-0.0199724 0.00569995 1e-05
-0.0199549 0.00579986 1e-05
-0.0199371 0.00589971 1e-05
-0.0199189 0.006 1e-05
-0.0199005 0.0061 1e-05
-0.0198818 0.00619995 1e-05
-0.0198628 0.00629984 1e-05
-0.0198435 0.00639968 1e-05
-0.0198239 0.0065 1e-05
-0.0198114 0.00656288 1e-05
-0.0197988 0.00662573 1e-05
-0.019786 0.00668856 1e-05
-0.0197732 0.00675137 1e-05
-0.0197614 0.00680867 1e-05
-0.0197534 0.00684694 1e-05
-0.0197454 0.0068852 1e-05
-0.0197374 0.00692344 1e-05
-0.0197293 0.00696168 1e-05
-0.0197211 0.007 1e-05
-0.0196997 0.0071 1e-05
-0.0196781 0.00719994 1e-05
-0.0196561 0.00729981 1e-05
-0.0196339 0.00739962 1e-05
-0.0196112 0.0075 1e-05
-0.0195895 0.00759493 1e-05
-0.0195675 0.0076898 1e-05
-0.0195452 0.0077846 1e-05
-0.0195227 0.00787935 1e-05
-0.0195025 0.00796307 1e-05
-0.0195007 0.00797046 1e-05
-0.0194989 0.00797784 1e-05
-0.0194971 0.00798523 1e-05
-0.0194953 0.00799261 1e-05
-0.0194935 0.008 1e-05
-0.0194691 0.0081 1e-05
-0.0194443 0.00819993 1e-05
-0.0194193 0.00829978 1e-05
-0.0193939 0.00839956 1e-05
-0.0193681 0.0085 1e-05
-0.0193436 0.00859402 1e-05
-0.0193189 0.00868798 1e-05
-0.0192939 0.00878186 1e-05
-0.0192686 0.00887568 1e-05
-0.0192457 0.00895967 1e-05
-0.0192435 0.00896774 1e-05
-0.0192413 0.0089758 1e-05
-0.0192391 0.00898387 1e-05
-0.0192369 0.00899193 1e-05
-0.0192346 0.009 1e-05
-0.019207 0.0091 1e-05
-0.019179 0.00919992 1e-05
-0.0191508 0.00929975 1e-05
-0.0191222 0.00939949 1e-05
-0.0190931 0.0095 1e-05
-0.0190727 0.00956969 1e-05
-0.0190521 0.00963934 1e-05
-0.0190314 0.00970895 1e-05
-0.0190106 0.00977851 1e-05
-0.018991 0.00984307 1e-05
-0.0189815 0.00987446 1e-05
-0.0189719 0.00990583 1e-05
-0.0189623 0.0099372 1e-05
-0.0189526 0.00996856 1e-05
-0.0189429 0.01 1e-05
-0.0189119 0.0101 1e-05
-0.0188807 0.0101999 1e-05
-0.018849 0.0102997 1e-05
-0.0188171 0.0103994 1e-05
-0.0187846 0.0105 1e-05
-0.0187753 0.0105282 1e-05
-0.0187661 0.0105565 1e-05
-0.0187568 0.0105847 1e-05
-0.0187475 0.0106129 1e-05
-0.0187384 0.0106404 1e-05
-0.0187145 0.0107123 1e-05
-0.0186905 0.0107842 1e-05
-0.0186663 0.010856 1e-05
-0.0186419 0.0109277 1e-05
-0.0186172 0.011 1e-05
-0.0185913 0.011075 1e-05
-0.0185652 0.01115 1e-05
-0.018539 0.011225 1e-05
-0.0185126 0.0112998 1e-05
-0.0184878 0.0113695 1e-05
-0.0184784 0.0113956 1e-05
-0.0184691 0.0114217 1e-05
-0.0184597 0.0114478 1e-05
-0.0184503 0.0114739 1e-05
-0.0184408 0.0115 1e-05
-0.0184045 0.0116 1e-05
-0.0183679 0.0116999 1e-05
-0.0183309 0.0117996 1e-05
-0.0182937 0.0118993 1e-05
-0.0182556 0.012 1e-05
-0.0182523 0.0120086 1e-05
-0.018249 0.0120172 1e-05
-0.0182457 0.0120258 1e-05
-0.0182425 0.0120345 1e-05
-0.0182392 0.012043 1e-05
-0.0182042 0.0121344 1e-05
-0.0181689 0.0122257 1e-05
-0.0181333 0.0123169 1e-05
-0.0180974 0.012408 1e-05
-0.0180609 0.0125 1e-05
-0.0180472 0.0125341 1e-05
-0.0180335 0.0125682 1e-05
-0.0180198 0.0126022 1e-05
-0.018006 0.0126362 1e-05
-0.0179926 0.0126693 1e-05
-0.0179657 0.0127354 1e-05
-0.0179386 0.0128015 1e-05
-0.0179113 0.0128675 1e-05
-0.017884 0.0129335 1e-05
-0.0178562 0.013 1e-05
-0.0178345 0.0130515 1e-05
-0.0178128 0.0131029 1e-05
-0.017791 0.0131543 1e-05
-0.0177691 0.0132057 1e-05
-0.017748 0.0132549 1e-05
-0.0177269 0.0133039 1e-05
-0.0177057 0.0133529 1e-05
-0.0176844 0.0134018 1e-05
-0.017663 0.0134508 1e-05
-0.0176415 0.0135 1e-05
-0.0176142 0.0135618 1e-05
-0.0175869 0.0136235 1e-05
-0.0175594 0.0136852 1e-05
-0.0175318 0.0137468 1e-05
-0.0175053 0.0138054 1e-05
-0.0174877 0.0138443 1e-05
-0.01747 0.0138832 1e-05
-0.0174523 0.0139221 1e-05
-0.0174345 0.0139609 1e-05
-0.0174165 0.014 1e-05
-0.0173861 0.0140658 1e-05
-0.0173556 0.0141316 1e-05
-0.0173249 0.0141972 1e-05
-0.0172941 0.0142628 1e-05
-0.0172647 0.0143252 1e-05
-0.017248 0.0143601 1e-05
-0.0172314 0.0143951 1e-05
-0.0172147 0.01443 1e-05
-0.0171979 0.0144649 1e-05
-0.017181 0.0145 1e-05
-0.01715 0.0145642 1e-05
-0.0171188 0.0146284 1e-05
-0.0170875 0.0146925 1e-05
-0.0170561 0.0147566 1e-05
-0.0170259 0.0148176 1e-05
-0.0170078 0.014854 1e-05
-0.0169896 0.0148905 1e-05
-0.0169714 0.014927 1e-05
-0.0169531 0.0149634 1e-05
-0.0169347 0.015 1e-05
-0.0169056 0.0150577 1e-05
-0.0168763 0.0151152 1e-05
-0.016847 0.0151728 1e-05
-0.0168175 0.0152303 1e-05
-0.0167891 0.0152854 1e-05
-0.0167669 0.0153283 1e-05
-0.0167446 0.0153712 1e-05
-0.0167222 0.015414 1e-05
-0.0166998 0.0154569 1e-05
-0.0166771 0.0155 1e-05
-0.0166525 0.0155466 1e-05
-0.0166278 0.0155931 1e-05
-0.0166031 0.0156396 1e-05
-0.0165783 0.015686 1e-05
-0.0165542 0.015731 1e-05
-0.0165252 0.0157848 1e-05
-0.0164961 0.0158385 1e-05
-0.0164669 0.0158922 1e-05
-0.0164376 0.0159458 1e-05
-0.0164079 0.016 1e-05
-0.0163906 0.0160315 1e-05
-0.0163732 0.0160629 1e-05
-0.0163558 0.0160943 1e-05
-0.0163383 0.0161257 1e-05
-0.0163212 0.0161565 1e-05
-0.0162828 0.0162252 1e-05
-0.0162442 0.0162938 1e-05
-0.0162055 0.0163623 1e-05
-0.0161665 0.0164307 1e-05
-0.0161269 0.0165 1e-05
-0.0161195 0.0165128 1e-05
-0.0161121 0.0165256 1e-05
-0.0161048 0.0165384 1e-05
-0.0160974 0.0165512 1e-05
-0.01609 0.0165639 1e-05
-0.0160442 0.0166431 1e-05
-0.0159981 0.0167222 1e-05
-0.0159518 0.0168012 1e-05
-0.0159052 0.01688 1e-05
-0.0158607 0.0169548 1e-05
-0.0158553 0.0169638 1e-05
-0.0158499 0.0169729 1e-05
-0.0158445 0.0169819 1e-05
-0.0158391 0.0169909 1e-05
-0.0158336 0.017 1e-05
-0.0157936 0.0170667 1e-05
-0.0157533 0.0171333 1e-05
-0.0157129 0.0171998 1e-05
-0.0156724 0.0172662 1e-05
-0.0156333 0.0173298 1e-05
-0.0156123 0.0173638 1e-05
-0.0155912 0.0173978 1e-05
-0.0155701 0.0174318 1e-05
-0.0155489 0.0174658 1e-05
-0.0155276 0.0175 1e-05
-0.0155036 0.0175383 1e-05
-0.0154796 0.0175765 1e-05
-0.0154555 0.0176146 1e-05
-0.0154313 0.0176528 1e-05
-0.0154077 0.01769 1e-05
-0.0153682 0.017752 1e-05
-0.0153286 0.0178139 1e-05
-0.0152889 0.0178757 1e-05
-0.0152489 0.0179374 1e-05
-0.0152083 0.018 1e-05
-0.0152034 0.0180075 1e-05
-0.0151985 0.0180149 1e-05
-0.0151937 0.0180224 1e-05
-0.0151888 0.0180298 1e-05
-0.0151839 0.0180372 1e-05
-0.0151395 0.018105 1e-05
-0.015095 0.0181726 1e-05
-0.0150502 0.0182401 1e-05
-0.0150053 0.0183075 1e-05
-0.0149619 0.0183721 1e-05
-0.0149447 0.0183977 1e-05
-0.0149275 0.0184233 1e-05
-0.0149102 0.0184488 1e-05
-0.0148929 0.0184743 1e-05
-0.0148754 0.0185 1e-05
-0.0148487 0.0185393 1e-05
-0.0148219 0.0185785 1e-05
-0.014795 0.0186176 1e-05
-0.0147681 0.0186568 1e-05
-0.0147417 0.018695 1e-05
-0.0146995 0.018756 1e-05
-0.0146572 0.0188169 1e-05
-0.0146146 0.0188777 1e-05
-0.014572 0.0189384 1e-05
-0.0145285 0.019 1e-05
-0.0145275 0.0190015 1e-05
-0.0145264 0.0190029 1e-05
-0.0145254 0.0190044 1e-05
-0.0145244 0.0190058 1e-05
-0.0145233 0.0190073 1e-05
-0.01448 0.0190683 1e-05
-0.0144365 0.0191292 1e-05
-0.0143929 0.01919 1e-05
-0.0143491 0.0192507 1e-05
-0.0143067 0.0193094 1e-05
-0.0142789 0.0193475 1e-05
-0.0142511 0.0193856 1e-05
-0.0142232 0.0194236 1e-05
-0.0141953 0.0194616 1e-05
-0.014167 0.0195 1e-05
-0.014152 0.0195204 1e-05
-0.0141369 0.0195407 1e-05
-0.0141218 0.0195611 1e-05
-0.0141067 0.0195814 1e-05
-0.0140917 0.0196015 1e-05
-0.0140491 0.0196587 1e-05
-0.0140063 0.0197158 1e-05
-0.0139635 0.0197728 1e-05
-0.0139204 0.0198297 1e-05
-0.0138786 0.0198848 1e-05
-0.013861 0.0199079 1e-05
-0.0138434 0.0199309 1e-05
-0.0138258 0.0199539 1e-05
-0.0138081 0.0199769 1e-05
-0.0137904 0.02 1e-05
-0.0137657 0.020032 1e-05
-0.013741 0.020064 1e-05
-0.0137163 0.020096 1e-05
-0.0136915 0.0201279 1e-05
-0.0136671 0.0201593 1e-05
-0.0136251 0.0202131 1e-05
-0.0135831 0.0202668 1e-05
-0.0135409 0.0203204 1e-05
-0.0134986 0.0203739 1e-05
-0.0134573 0.0204259 1e-05
-0.0134455 0.0204407 1e-05
-0.0134337 0.0204555 1e-05
-0.0134219 0.0204703 1e-05
-0.0134101 0.0204851 1e-05
-0.0133982 0.0205 1e-05
-0.0133684 0.0205371 1e-05
-0.0133385 0.0205743 1e-05
-0.0133087 0.0206113 1e-05
-0.0132787 0.0206483 1e-05
-0.0132493 0.0206846 1e-05
-0.013208 0.0207354 1e-05
-0.0131666 0.020786 1e-05
-0.0131251 0.0208366 1e-05
-0.0130835 0.0208871 1e-05
-0.0130429 0.0209363 1e-05
-0.0130323 0.020949 1e-05
-0.0130217 0.0209618 1e-05
-0.0130111 0.0209745 1e-05
-0.0130005 0.0209872 1e-05
-0.0129899 0.021 1e-05
-0.0129595 0.0210364 1e-05
-0.0129291 0.0210727 1e-05
-0.0128987 0.021109 1e-05
-0.0128682 0.0211452 1e-05
-0.0128381 0.0211808 1e-05
-0.0127975 0.0212288 1e-05
-0.0127568 0.0212767 1e-05
-0.012716 0.0213245 1e-05
-0.0126751 0.0213723 1e-05
-0.012635 0.0214189 1e-05
-0.012621 0.0214351 1e-05
-0.012607 0.0214513 1e-05
-0.012593 0.0214675 1e-05
[...]
POINT_DATA 12105
 FIELD attributes 1
U 3 12105 float
-0.0189938 	-0.305021 	0 -0.0194449 	-0.304997 	0 -0.0198964 	-0.304971 	0 -0.0203476 	-0.304944 	0 -0.0207987 	-0.304916 	0 -0.0212538 	-0.304887 	0 -0.0218272 	-0.304855 	0 -0.0224023 	-0.304822 	0 -0.0229743 	-0.304787 	0 -0.0235463 	-0.304751 	0 -0.0241216 	-0.304714 	0 -0.024783 	-0.30467 	0 -0.0254463 	-0.304624 	0 -0.0261081 	-0.304577 	0 -0.0267672 	-0.304527 	0 -0.0274292 	-0.304476 	0 -0.0281516 	-0.304416 	0 -0.0288752 	-0.304353 	0 -0.0295986 	-0.30429 	0 -0.0303207 	-0.304224 	0 -0.0310429 	-0.304156 	0 -0.0318062 	-0.30408 	0 -0.0325702 	-0.304001 	0 -0.033334 	-0.303922 	0 -0.0340977 	-0.30384 	0 -0.0348639 	-0.303757 	0 -0.0348974 	-0.303753 	0 -0.0349315 	-0.303749 	0 -0.0349656 	-0.303745 	0 -0.0349996 	-0.303741 	0 -0.0350334 	-0.303737 	0 -0.0357904 	-0.303649 	0 -0.0365479 	-0.303558 	0 -0.0373052 	-0.303466 	0 -0.0380624 	-0.303373 	0 -0.0388222 	-0.303278 	0 -0.0396341 	-0.303171 	0 -0.0404444 	-0.303062 	0 -0.0412531 	-0.30295 	0 -0.0420615 	-0.302837 	0 -0.0428731 	-0.302722 	0 -0.0436968 	-0.3026 	0 -0.0445205 	-0.302476 	0 -0.0453441 	-0.30235 	0 -0.0461652 	-0.302221 	0 -0.0469888 	-0.30209 	0 -0.0476858 	-0.301975 	0 -0.0483828 	-0.301858 	0 -0.0490797 	-0.30174 	0 -0.0497764 	-0.301621 	0 -0.0503755 	-0.301518 	0 -0.0505309 	-0.301491 	0 -0.0506865 	-0.301463 	0 -0.0508421 	-0.301436 	0 -0.0509977 	-0.301409 	0 -0.0511536 	-0.301382 	0 -0.0519949 	-0.301229 	0 -0.052835 	-0.301073 	0 -0.0536748 	-0.300916 	0 -0.0545143 	-0.300758 	0 -0.0553579 	-0.300597 	0 -0.0562067 	-0.300429 	0 -0.0570554 	-0.30026 	0 -0.0579038 	-0.300089 	0 -0.0587497 	-0.299916 	0 -0.0595997 	-0.299739 	0 -0.0601371 	-0.299624 	0 -0.0606744 	-0.299509 	0 -0.0612116 	-0.299393 	0 -0.0617487 	-0.299276 	0 -0.062239 	-0.299169 	0 -0.0625665 	-0.299097 	0 -0.0628942 	-0.299024 	0 -0.0632218 	-0.298952 	0 -0.0635494 	-0.298879 	0 -0.0638778 	-0.298806 	0 -0.0647416 	-0.298609 	0 -0.0656038 	-0.29841 	0 -0.0664649 	-0.298209 	0 -0.0673257 	-0.298006 	0 -0.0681917 	-0.2978 	0 -0.0690175 	-0.2976 	0 -0.0698431 	-0.297397 	0 -0.0706683 	-0.297194 	0 -0.0714933 	-0.296988 	0 -0.0722225 	-0.296806 	0 -0.0722869 	-0.296789 	0 -0.0723513 	-0.296773 	0 -0.0724157 	-0.296757 	0 -0.0724801 	-0.296741 	0 -0.0725447 	-0.296724 	0 -0.0734227 	-0.296498 	0 -0.0742998 	-0.29627 	0 -0.0751766 	-0.29604 	0 -0.076053 	-0.295809 	0 -0.0769357 	-0.295574 	0 -0.0777688 	-0.295348 	0 -0.0786016 	-0.295121 	0 -0.0794341 	-0.294893 	0 -0.0802662 	-0.294663 	0 -0.0810116 	-0.294455 	0 -0.0810832 	-0.294435 	0 -0.0811549 	-0.294415 	0 -0.0812265 	-0.294395 	0 -0.0812982 	-0.294375 	0 -0.08137 	-0.294355 	0 -0.0822652 	-0.294101 	0 -0.0831592 	-0.293844 	0 -0.0840528 	-0.293586 	0 -0.084946 	-0.293327 	0 -0.0858465 	-0.293063 	0 -0.0864762 	-0.292876 	0 -0.0871057 	-0.292689 	0 -0.0877351 	-0.2925 	0 -0.0883642 	-0.292311 	0 -0.0889483 	-0.292134 	0 -0.0892325 	-0.292048 	0 -0.0895169 	-0.291962 	0 -0.0898011 	-0.291875 	0 -0.0900853 	-0.291789 	0 -0.0903704 	-0.291701 	0 -0.0912845 	-0.29142 	0 -0.0921981 	-0.291137 	0 -0.0931106 	-0.290852 	0 -0.0940218 	-0.290564 	0 -0.0949417 	-0.290272 	0 -0.0952021 	-0.290189 	0 -0.0954626 	-0.290105 	0 -0.0957231 	-0.290021 	0 -0.0959835 	-0.289937 	0 -0.0962369 	-0.289855 	0 -0.0969015 	-0.289641 	0 -0.097566 	-0.289426 	0 -0.0982302 	-0.289209 	0 -0.0988941 	-0.288992 	0 -0.0995629 	-0.288772 	0 -0.100263 	-0.288541 	0 -0.100964 	-0.288308 	0 -0.101664 	-0.288075 	0 -0.102363 	-0.28784 	0 -0.103015 	-0.28762 	0 -0.103259 	-0.287538 	0 -0.103504 	-0.287456 	0 -0.103748 	-0.287373 	0 -0.103992 	-0.28729 	0 -0.104237 	-0.287207 	0 -0.105182 	-0.286886 	0 -0.106126 	-0.286562 	0 -0.10707 	-0.286238 	0 -0.108012 	-0.285911 	0 -0.108965 	-0.285577 	0 -0.109047 	-0.285549 	0 -0.109129 	-0.28552 	0 -0.109212 	-0.285491 	0 -0.109294 	-0.285462 	0 -0.109376 	-0.285433 	0 -0.110249 	-0.285126 	0 -0.111122 	-0.284817 	0 -0.111995 	-0.284508 	0 -0.112867 	-0.284196 	0 -0.113749 	-0.28388 	0 -0.114078 	-0.283761 	0 -0.114407 	-0.283642 	0 -0.114737 	-0.283523 	0 -0.115066 	-0.283404 	0 -0.115386 	-0.283288 	0 -0.116027 	-0.283056 	0 -0.116667 	-0.282823 	0 -0.117307 	-0.282589 	0 -0.117947 	-0.282355 	0 -0.118592 	-0.282118 	0 -0.119096 	-0.281932 	0 -0.1196 	-0.281746 	0 -0.120103 	-0.281559 	0 -0.120606 	-0.281372 	0 -0.121089 	-0.281193 	0 -0.12157 	-0.281014 	0 -0.122051 	-0.280834 	0 -0.122532 	-0.280654 	0 -0.123012 	-0.280474 	0 -0.123496 	-0.280292 	0 -0.124109 	-0.280062 	0 -0.124721 	-0.279831 	0 -0.125334 	-0.279599 	0 -0.125945 	-0.279367 	0 -0.126528 	-0.279145 	0 -0.126915 	-0.278998 	0 -0.127302 	-0.27885 	0 -0.127688 	-0.278702 	0 -0.128075 	-0.278554 	0 -0.128464 	-0.278405 	0 -0.129125 	-0.278152 	0 -0.129786 	-0.277898 	0 -0.130447 	-0.277643 	0 -0.131107 	-0.277387 	0 -0.131734 	-0.277144 	0 -0.132086 	-0.277007 	0 -0.132439 	-0.27687 	0 -0.132791 	-0.276733 	0 -0.133143 	-0.276596 	0 -0.133497 	-0.276457 	0 -0.134151 	-0.276202 	0 -0.134804 	-0.275947 	0 -0.135458 	-0.275691 	0 -0.13611 	-0.275434 	0 -0.136733 	-0.275188 	0 -0.137105 	-0.275041 	0 -0.137478 	-0.274894 	0 -0.13785 	-0.274747 	0 -0.138222 	-0.274599 	0 -0.138596 	-0.27445 	0 -0.139191 	-0.274215 	0 -0.139786 	-0.273979 	0 -0.14038 	-0.273742 	0 -0.140974 	-0.273505 	0 -0.141543 	-0.273277 	0 -0.141987 	-0.2731 	0 -0.142431 	-0.272922 	0 -0.142875 	-0.272744 	0 -0.143318 	-0.272566 	0 -0.143765 	-0.272386 	0 -0.144252 	-0.27219 	0 -0.144739 	-0.271994 	0 -0.145225 	-0.271798 	0 -0.145712 	-0.271601 	0 -0.146182 	-0.271411 	0 -0.146746 	-0.271183 	0 -0.14731 	-0.270955 	0 -0.147873 	-0.270726 	0 -0.148436 	-0.270497 	0 -0.149005 	-0.270265 	0 -0.149338 	-0.270129 	0 -0.149672 	-0.269994 	0 -0.150005 	-0.269858 	0 -0.150339 	-0.269721 	0 -0.150665 	-0.269588 	0 -0.151395 	-0.269291 	0 -0.152124 	-0.268993 	0 -0.152852 	-0.268695 	0 -0.15358 	-0.268395 	0 -0.154317 	-0.268091 	0 -0.154455 	-0.268034 	0 -0.154593 	-0.267978 	0 -0.154731 	-0.267921 	0 -0.154868 	-0.267864 	0 -0.155005 	-0.267808 	0 -0.155858 	-0.267459 	0 -0.15671 	-0.267109 	0 -0.15756 	-0.266758 	0 -0.15841 	-0.266404 	0 -0.159216 	-0.266068 	0 -0.159313 	-0.266027 	0 -0.159411 	-0.265986 	0 -0.159508 	-0.265946 	0 -0.159606 	-0.265905 	0 -0.159704 	-0.265864 	0 -0.160431 	-0.265563 	0 -0.161158 	-0.265262 	0 -0.161883 	-0.264959 	0 -0.162608 	-0.264656 	0 -0.163303 	-0.264365 	0 -0.163675 	-0.26421 	0 -0.164047 	-0.264054 	0 -0.164419 	-0.263898 	0 -0.16479 	-0.263742 	0 -0.165165 	-0.263585 	0 -0.165588 	-0.263408 	0 -0.166011 	-0.263231 	0 -0.166433 	-0.263054 	0 -0.166856 	-0.262877 	0 -0.167268 	-0.262704 	0 -0.167955 	-0.262417 	0 -0.168641 	-0.262129 	0 -0.169326 	-0.261841 	0 -0.170011 	-0.261552 	0 -0.170705 	-0.261258 	0 -0.170788 	-0.261223 	0 -0.170872 	-0.261188 	0 -0.170956 	-0.261153 	0 -0.171039 	-0.261118 	0 -0.171123 	-0.261083 	0 -0.171883 	-0.260765 	0 -0.172642 	-0.260446 	0 -0.1734 	-0.260125 	0 -0.174157 	-0.259804 	0 -0.174883 	-0.259494 	0 -0.175171 	-0.259372 	0 -0.175458 	-0.25925 	0 -0.175745 	-0.259128 	0 -0.176032 	-0.259006 	0 -0.176321 	-0.258883 	0 -0.176767 	-0.258694 	0 -0.177213 	-0.258506 	0 -0.177659 	-0.258317 	0 -0.178105 	-0.258128 	0 -0.17854 	-0.257942 	0 -0.179235 	-0.257649 	0 -0.179929 	-0.257355 	0 -0.180622 	-0.257061 	0 -0.181314 	-0.256766 	0 -0.182017 	-0.256465 	0 -0.182034 	-0.256458 	0 -0.182051 	-0.256451 	0 -0.182068 	-0.256444 	0 -0.182085 	-0.256437 	0 -0.182101 	-0.256429 	0 -0.182805 	-0.256132 	0 -0.183507 	-0.255833 	0 -0.184209 	-0.255534 	0 -0.18491 	-0.255234 	0 -0.185587 	-0.254944 	0 -0.186027 	-0.254756 	0 -0.186467 	-0.254568 	0 -0.186906 	-0.25438 	0 -0.187346 	-0.254192 	0 -0.187789 	-0.254002 	0 -0.188027 	-0.2539 	0 -0.188266 	-0.253799 	0 -0.188504 	-0.253698 	0 -0.188742 	-0.253596 	0 -0.188977 	-0.253496 	0 -0.189646 	-0.253213 	0 -0.190315 	-0.25293 	0 -0.190982 	-0.252645 	0 -0.191648 	-0.252358 	0 -0.192293 	-0.252078 	0 -0.192562 	-0.251963 	0 -0.192832 	-0.251847 	0 -0.193101 	-0.251731 	0 -0.19337 	-0.251615 	0 -0.193641 	-0.251499 	0 -0.19402 	-0.251337 	0 -0.1944 	-0.251175 	0 -0.194779 	-0.251013 	0 -0.195157 	-0.250851 	0 -0.19553 	-0.250692 	0 -0.196168 	-0.250421 	0 -0.196805 	-0.25015 	0 -0.197441 	-0.249879 	0 -0.198075 	-0.249605 	0 -0.198692 	-0.249337 	0 -0.198868 	-0.249261 	0 -0.199043 	-0.249186 	0 -0.199218 	-0.24911 	0 -0.199394 	-0.249034 	0 -0.19957 	-0.248958 	0 -0.200016 	-0.248768 	0 -0.200462 	-0.248578 	0 -0.200907 	-0.248387 	0 -0.201352 	-0.248196 	0 -0.201788 	-0.248009 	0 -0.202397 	-0.24775 	0 -0.203006 	-0.247491 	0 -0.203613 	-0.247231 	0 -0.20422 	-0.24697 	0 -0.204811 	-0.246712 	0 -0.204963 	-0.246646 	0 -0.205116 	-0.24658 	0 -0.205269 	-0.246514 	0 -0.205421 	-0.246448 	0 -0.205575 	-0.246382 	0 -0.206017 	-0.246193 	0 -0.206458 	-0.246004 	0 -0.2069 	-0.245815 	0 -0.207341 	-0.245626 	0 -0.207774 	-0.24544 	0 -0.208357 	-0.245192 	0 -0.208939 	-0.244944 	0 -0.209521 	-0.244696 	0 -0.210101 	-0.244445 	0 -0.210668 	-0.244197 	0 -0.210865 	-0.244112 	0 -0.211061 	-0.244027 	0 -0.211258 	-0.243942 	0 -0.211454 	-0.243857 	0 -0.211652 	-0.243771 	0 -0.212024 	-0.243613 	0 -0.212396 	-0.243454 	0 -0.212768 	-0.243295 	0 -0.213139 	-0.243136 	0 -0.213505 	-0.242979 	0 -0.214064 	-0.242742 	0 -0.214623 	-0.242504 	0 -0.215181 	-0.242266 	0 -0.215737 	-0.242024 	0 -0.216281 	-0.241786 	0 -0.216585 	-0.241655 	0 -0.216888 	-0.241524 	0 -0.217191 	-0.241393 	0 -0.217494 	-0.241262 	0 -0.217799 	-0.24113 	0 -0.218039 	-0.241028 	0 -0.21828 	-0.240925 	0 -0.21852 	-0.240823 	0 -0.21876 	-0.24072 	0 -0.218998 	-0.240618 	0 -0.219535 	-0.240392 	0 -0.220071 	-0.240164 	0 -0.220606 	-0.239932 	0 -0.221141 	-0.239701 	0 -0.221665 	-0.239473 	0 -0.222134 	-0.239271 	0 -0.222603 	-0.23907 	0 -0.223071 	-0.238868 	0 -0.223539 	-0.238666 	0 -0.224013 	-0.238461 	0 -0.224063 	-0.238439 	0 -0.224113 	-0.238418 	0 -0.224164 	-0.238396 	0 -0.224214 	-0.238375 	0 -0.224265 	-0.238353 	0 -0.224781 	-0.238134 	0 -0.225297 	-0.237913 	0 -0.225812 	-0.237692 	0 -0.226326 	-0.23747 	0 -0.226831 	-0.237252 	0 -0.227334 	-0.237037 	0 -0.227836 	-0.236823 	0 -0.228338 	-0.236608 	0 -0.228839 	-0.236392 	0 -0.229331 	-0.236175 	0 -0.22952 	-0.236093 	0 -0.229711 	-0.23601 	0 -0.229901 	-0.235927 	0 -0.23009 	-0.235845 	0 -0.230282 	-0.235762 	0 -0.230583 	-0.235633 	0 -0.230885 	-0.235504 	0 -0.231187 	-0.235375 	0 -0.231488 	-0.235246 	0 -0.231787 	-0.235118 	0 -0.232271 	-0.234913 	0 -0.232756 	-0.234708 	0 -0.233239 	-0.234498 	0 -0.233721 	-0.234288 	0 -0.234195 	-0.234081 	0 -0.234667 	-0.233878 	0 -0.235138 	-0.233674 	0 -0.235609 	-0.233471 	0 -0.236079 	-0.233267 	0 -0.236543 	-0.233066 	0 -0.236555 	-0.23306 	0 -0.236567 	-0.233055 	0 -0.236579 	-0.23305 	0 -0.236592 	-0.233044 	0 -0.236604 	-0.233039 	0 -0.237058 	-0.232844 	0 -0.237512 	-0.232649 	0 -0.237966 	-0.232454 	0 -0.238418 	-0.232259 	0 -0.238865 	-0.232066 	0 -0.23932 	-0.231872 	0 -0.239775 	-0.231678 	0 -0.24023 	-0.231483 	0 -0.240683 	-0.231283 	0 -0.24113 	-0.231086 	0 -0.241496 	-0.230927 	0 -0.241862 	-0.230768 	0 -0.242228 	-0.230609 	0 -0.242593 	-0.230449 	0 -0.242962 	-0.230288 	0 -0.243038 	-0.230255 	0 -0.243114 	-0.230223 	0 -0.24319 	-0.230191 	0 -0.243266 	-0.230158 	0 -0.243342 	-0.230126 	0 -0.243781 	-0.229938 	0 -0.24422 	-0.229748 	0 -0.244659 	-0.229558 	0 -0.245097 	-0.229368 	0 -0.245529 	-0.229179 	0 -0.245958 	-0.228996 	0 -0.246386 	-0.228812 	0 -0.246814 	-0.228629 	0 -0.24724 	-0.228439 	0 -0.247661 	-0.228252 	0 -0.247998 	-0.228104 	0 -0.248335 	-0.227957 	0 -0.248672 	-0.227809 	0 -0.249008 	-0.227661 	0 -0.249348 	-0.227511 	0 -0.249427 	-0.227477 	0 -0.249506 	-0.227443 	0 -0.249586 	-0.227409 	0 -0.249665 	-0.227375 	0 -0.249745 	-0.227341 	0 -0.250159 	-0.227163 	0 -0.250572 	-0.226983 	0 -0.250985 	-0.226802 	0 -0.251398 	-0.226622 	0 -0.251806 	-0.226443 	0 -0.252209 	-0.226269 	0 -0.252613 	-0.226095 	0 -0.253016 	-0.22592 	0 -0.253417 	-0.225739 	0 -0.253815 	-0.225561 	0 -0.2542 	-0.225391 	0 -0.254585 	-0.225221 	0 -0.25497 	-0.225051 	0 -0.255354 	-0.22488 	0 -0.255744 	-0.224707 	0 -0.255749 	-0.224705 	0 -0.255755 	-0.224702 	0 -0.255761 	-0.2247 	0 -0.255766 	-0.224698 	0 -0.255772 	-0.224695 	0 -0.256162 	-0.224524 	0 -0.256552 	-0.224353 	0 -0.256942 	-0.224182 	0 -0.257331 	-0.22401 	0 -0.257717 	-0.22384 	0 -0.258097 	-0.223676 	0 -0.258477 	-0.223511 	0 -0.258857 	-0.223341 	0 -0.259236 	-0.22317 	0 -0.259611 	-0.223 	0 -0.259982 	-0.222836 	0 -0.260352 	-0.222671 	0 -0.260722 	-0.222506 	0 -0.261091 	-0.222341 	0 -0.261457 	-0.222173 	0 -0.26159 	-0.222112 	0 -0.261724 	-0.222051 	0 -0.261857 	-0.22199 	0 -0.261991 	-0.221929 	0 -0.262126 	-0.221868 	0 -0.262356 	-0.221766 	0 -0.262587 	-0.221664 	0 -0.262817 	-0.221562 	0 -0.263048 	-0.221459 	0 -0.263277 	-0.221358 	0 -0.263636 	-0.221202 	0 -0.263994 	-0.221041 	0 -0.264353 	-0.220879 	0 -0.26471 	-0.220716 	0 -0.265065 	-0.220555 	0 -0.265414 	-0.220398 	0 -0.265763 	-0.220242 	0 -0.266112 	-0.220086 	0 -0.26646 	-0.219924 	0 -0.266806 	-0.219763 	0 -0.267139 	-0.21961 	0 -0.267473 	-0.219456 	0 -0.267806 	-0.219303 	0 -0.268138 	-0.219149 	0 -0.268475 	-0.218994 	0 -0.26848 	-0.218992 	0 -0.268485 	-0.218989 	0 -0.26849 	-0.218987 	0 -0.268495 	-0.218985 	0 -0.268501 	-0.218982 	0 -0.268839 	-0.218829 	0 -0.269178 	-0.218674 	0 -0.269516 	-0.21852 	0 -0.269854 	-0.218366 	0 -0.27019 	-0.218212 	0 -0.270519 	-0.218064 	0 -0.270849 	-0.217915 	0 -0.271178 	-0.217761 	0 -0.271507 	-0.217606 	0 -0.271833 	-0.217452 	0 -0.272154 	-0.217304 	0 -0.272474 	-0.217156 	0 -0.272795 	-0.217007 	0 -0.273115 	-0.216856 	0 -0.273433 	-0.216702 	0 -0.273697 	-0.216576 	0 -0.273961 	-0.21645 	0 -0.274226 	-0.216324 	0 -0.27449 	-0.216197 	0 -0.274757 	-0.21607 	0 -0.274804 	-0.216048 	0 -0.274851 	-0.216026 	0 -0.274898 	-0.216004 	0 -0.274946 	-0.215982 	0 -0.274994 	-0.21596 	0 -0.275305 	-0.215815 	0 -0.275616 	-0.215668 	0 -0.275927 	-0.215521 	0 -0.276238 	-0.215374 	0 -0.276546 	-0.215228 	0 -0.276849 	-0.215087 	0 -0.277151 	-0.214946 	0 -0.277454 	-0.214798 	0 -0.277756 	-0.21465 	0 -0.278056 	-0.214504 	0 -0.27835 	-0.214362 	0 -0.278644 	-0.214221 	0 -0.278938 	-0.214079 	0 -0.279232 	-0.213934 	0 -0.279524 	-0.213787 	0 -0.279806 	-0.213647 	0 -0.280088 	-0.213506 	0 -0.28037 	-0.213366 	0 -0.280652 	-0.213225 	0 -0.280937 	-0.213083 	0 -0.28094 	-0.213082 	0 -0.280942 	-0.213081 	0 -0.280945 	-0.213079 	0 -0.280948 	-0.213078 	0 -0.280951 	-0.213077 	0 -0.281236 	-0.212937 	0 -0.281522 	-0.212796 	0 -0.281808 	-0.212656 	0 -0.282093 	-0.212515 	0 -0.282377 	-0.212375 	0 -0.282654 	-0.212241 	0 -0.282932 	-0.212103 	0 -0.28321 	-0.211962 	0 -0.283487 	-0.21182 	0 -0.283764 	-0.21168 	0 -0.284032 	-0.211545 	0 -0.284302 	-0.211409 	0 -0.284571 	-0.211274 	0 -0.284841 	-0.211131 	0 -0.28511 	-0.21099 	0 -0.285371 	-0.210854 	0 -0.285633 	-0.210717 	0 -0.285894 	-0.210581 	0 -0.286155 	-0.210444 	0 -0.286417 	-0.210305 	0 -0.286526 	-0.210245 	0 -0.286637 	-0.210185 	0 -0.286748 	-0.210125 	0 -0.286858 	-0.210066 	0 -0.28697 	-0.210006 	0 -0.287117 	-0.20993 	0 -0.287265 	-0.209854 	0 -0.287412 	-0.209777 	0 -0.287559 	-0.209701 	0 -0.287707 	-0.209626 	0 -0.28796 	-0.209495 	0 -0.288215 	-0.209359 	0 -0.28847 	-0.209224 	0 -0.288724 	-0.209088 	0 -0.288977 	-0.208953 	0 -0.289223 	-0.208822 	0 -0.289469 	-0.208692 	0 -0.289716 	-0.208556 	0 -0.289963 	-0.208419 	0 -0.290209 	-0.208283 	0 -0.290448 	-0.208152 	0 -0.290687 	-0.20802 	0 -0.290925 	-0.207889 	0 -0.291164 	-0.207754 	0 -0.291403 	-0.207617 	0 -0.291635 	-0.207484 	0 -0.291867 	-0.207352 	0 -0.292098 	-0.207219 	0 -0.29233 	-0.207086 	0 -0.292561 	-0.206953 	0 -0.292608 	-0.206923 	0 -0.292657 	-0.206895 	0 -0.292705 	-0.206866 	0 -0.292754 	-0.206837 	0 -0.292803 	-0.206809 	0 -0.292985 	-0.206706 	0 -0.293167 	-0.206604 	0 -0.293349 	-0.206502 	0 -0.293531 	-0.206399 	0 -0.293713 	-0.206297 	0 -0.293936 	-0.206172 	0 -0.294162 	-0.206041 	0 -0.294388 	-0.20591 	0 -0.294613 	-0.205778 	0 -0.294838 	-0.205647 	0 -0.295055 	-0.205521 	0 -0.295272 	-0.205395 	0 -0.29549 	-0.205264 	0 -0.295709 	-0.205131 	0 -0.295928 	-0.205 	0 -0.296137 	-0.204872 	0 -0.296348 	-0.204745 	0 -0.296558 	-0.204618 	0 -0.296769 	-0.204487 	0 -0.296981 	-0.204354 	0 -0.297184 	-0.204226 	0 -0.297388 	-0.204098 	0 -0.297592 	-0.20397 	0 -0.297795 	-0.203842 	0 -0.298 	-0.203712 	0 -0.298072 	-0.203664 	0 -0.298145 	-0.203616 	0 -0.298219 	-0.203568 	0 -0.298292 	-0.203521 	0 -0.298367 	-0.203473 	0 -0.298495 	-0.203394 	0 -0.298624 	-0.203315 	0 -0.298752 	-0.203236 	0 -0.298881 	-0.203156 	0 -0.29901 	-0.203078 	0 -0.299207 	-0.202956 	0 -0.299406 	-0.20283 	0 -0.299605 	-0.202704 	0 -0.299804 	-0.202577 	0 -0.300003 	-0.202451 	0 -0.300192 	-0.202331 	0 -0.300383 	-0.20221 	0 -0.300576 	-0.202083 	0 -0.300768 	-0.201956 	0 -0.300961 	-0.20183 	0 -0.301144 	-0.20171 	0 -0.301328 	-0.20159 	0 -0.301512 	-0.201469 	0 -0.301699 	-0.201342 	0 -0.301886 	-0.201216 	0 -0.302063 	-0.201097 	0 -0.302241 	-0.200977 	0 -0.302419 	-0.200857 	0 -0.302597 	-0.200738 	0 -0.302778 	-0.200612 	0 -0.30294 	-0.2005 	0 -0.303102 	-0.200389 	0 -0.303265 	-0.200277 	0 -0.303427 	-0.200166 	0 -0.303591 	-0.200053 	0 -0.303601 	-0.200047 	0 -0.303611 	-0.20004 	0 -0.30362 	-0.200034 	0 -0.30363 	-0.200027 	0 -0.303641 	-0.200022 	0 -0.303814 	-0.199909 	0 -0.303989 	-0.199796 	0 -0.304163 	-0.199683 	0 -0.304337 	-0.19957 	0 -0.304511 	-0.199458 	0 -0.304675 	-0.199355 	0 -0.304844 	-0.199246 	0 -0.305013 	-0.199137 	0 -0.305181 	-0.199028 	0 -0.30535 	-0.198919 	0 -0.305509 	-0.198822 	0 -0.305668 	-0.198725 	0 -0.305831 	-0.198623 	0 -0.305995 	-0.198519 	0 -0.306158 	-0.198416 	0 -0.306312 	-0.198327 	0 -0.306466 	-0.198238 	0 -0.30662 	-0.19815 	0 -0.306778 	-0.198055 	0 -0.306936 	-0.19796 	0 -0.307084 	-0.197882 	0 -0.307233 	-0.197805 	0 -0.307382 	-0.197728 	0 -0.307531 	-0.19765 	0 -0.307684 	-0.197568 	0 -0.307824 	-0.197506 	0 -0.307966 	-0.197445 	0 -0.308107 	-0.197384 	0 -0.308247 	-0.197324 	0 -0.30839 	-0.197263 	0 -0.308392 	-0.197262 	0 -0.308395 	-0.197261 	0 -0.308397 	-0.19726 	0 -0.3084 	-0.197259 	0 -0.308403 	-0.197258 	0 -0.308548 	-0.19722 	0 -0.308694 	-0.197184 	0 -0.30884 	-0.197147 	0 -0.308986 	-0.19711 	0 -0.309133 	-0.197075 	0 -0.309269 	-0.197072 	0 -0.30941 	-0.197062 	0 -0.309551 	-0.197053 	0 -0.309692 	-0.197043 	0 -0.309834 	-0.197035 	0 -0.309964 	-0.197068 	0 -0.310096 	-0.197101 	0 -0.310232 	-0.197126 	0 -0.310368 	-0.197152 	0 -0.310505 	-0.197179 	0 -0.31063 	-0.197257 	0 -0.310757 	-0.197337 	0 -0.310884 	-0.197415 	0 -0.311015 	-0.197486 	0 -0.311148 	-0.197558 	0 -0.311268 	-0.197693 	0 -0.31139 	-0.197831 	0 -0.311511 	-0.197969 	0 -0.311635 	-0.198103 	0 -0.311763 	-0.198233 	0 -0.311878 	-0.19844 	0 -0.311995 	-0.19865 	0 -0.312112 	-0.198859 	0 -0.312229 	-0.199069 	0 -0.31235 	-0.199278 	0 -0.3124 	-0.199411 	0 -0.312452 	-0.199548 	0 -0.312503 	-0.199685 	0 -0.312555 	-0.199822 	0 -0.312607 	-0.199961 	0 -0.312671 	-0.200124 	0 -0.312736 	-0.20029 	0 -0.312801 	-0.200455 	0 -0.312866 	-0.200621 	0 -0.312933 	-0.200791 	0 -0.313043 	-0.201209 	0 -0.313158 	-0.201624 	0 -0.313274 	-0.202039 	0 -0.313389 	-0.202453 	0 -0.313507 	-0.202874 	0 -0.313609 	-0.203434 	0 -0.313717 	-0.203987 	0 -0.313829 	-0.204534 	0 -0.31394 	-0.20508 	0 -0.314054 	-0.205634 	0 -0.314152 	-0.206353 	0 -0.314251 	-0.207078 	0 -0.314357 	-0.207786 	0 -0.314464 	-0.208489 	0 -0.314575 	-0.209203 	0 -0.314668 	-0.210109 	0 -0.314763 	-0.211021 	0 -0.314859 	-0.211932 	0 -0.314962 	-0.212822 	0 -0.315069 	-0.213725 	0 -0.315158 	-0.214849 	0 -0.31525 	-0.215978 	0 -0.315342 	-0.217106 	0 -0.315435 	-0.218233 	0 -0.315538 	-0.219358 	0 -0.315623 	-0.220718 	0 -0.315709 	-0.222085 	0 -0.315797 	-0.223449 	0 -0.315885 	-0.224812 	0 -0.315973 	-0.226127 	0 -0.315975 	-0.226155 	0 -0.315977 	-0.226182 	0 -0.315979 	-0.226209 	0 -0.315981 	-0.226236 	0 -0.315983 	-0.226266 	0 -0.31607 	-0.227932 	0 -0.316161 	-0.229605 	0 -0.3