# vtk DataFile Version 2.0
track0
ASCII
DATASET POLYDATA
POINTS 12125 float
-0.0205 0.001 1e-05
-0.0204931 0.0011 1e-05
-0.020486 0.00119999 1e-05
-0.0204789 0.00129997 1e-05
-0.0204715 0.00139994 1e-05
-0.020464 0.0015 1e-05
-0.0204564 0.0016 1e-05
-0.0204486 0.00169999 1e-05
-0.0204406 0.00179996 1e-05
-0.0204325 0.00189991 1e-05
-0.0204241 0.002 1e-05
-0.0204156 0.0021 1e-05
-0.0204068 0.00219998 1e-05
-0.0203979 0.00229994 1e-05
-0.0203887 0.00239989 1e-05
-0.0203793 0.0025 1e-05
-0.0203697 0.0026 1e-05
-0.0203598 0.00269998 1e-05
-0.0203498 0.00279993 1e-05
-0.0203395 0.00289986 1e-05
-0.0203289 0.003 1e-05
-0.0203202 0.00308069 1e-05
-0.0203113 0.00316135 1e-05
-0.0203023 0.003242 1e-05
-0.0202931 0.00332264 1e-05
-0.0202854 0.00338928 1e-05
-0.0202828 0.00341143 1e-05
-0.0202802 0.00343357 1e-05
-0.0202775 0.00345571 1e-05
-0.0202749 0.00347785 1e-05
-0.0202722 0.0035 1e-05
-0.0202602 0.0036 1e-05
-0.0202479 0.00369997 1e-05
-0.0202353 0.0037999 1e-05
-0.0202225 0.00389981 1e-05
-0.0202094 0.004 1e-05
-0.020196 0.0041 1e-05
-0.0201824 0.00419996 1e-05
-0.0201685 0.00429989 1e-05
-0.0201543 0.00439978 1e-05
-0.0201398 0.0045 1e-05
-0.020125 0.0046 1e-05
-0.02011 0.00469996 1e-05
-0.0200947 0.00479988 1e-05
-0.0200792 0.00489975 1e-05
-0.0200633 0.005 1e-05
-0.0200551 0.00505076 1e-05
-0.0200468 0.00510151 1e-05
-0.0200385 0.00515225 1e-05
-0.0200301 0.00520297 1e-05
-0.0200223 0.0052494 1e-05
-0.0200139 0.00529952 1e-05
-0.0200054 0.00534963 1e-05
-0.0199968 0.00539972 1e-05
-0.0199881 0.00544981 1e-05
-0.0199794 0.0055 1e-05
-0.0199618 0.0056 1e-05
-0.0199439 0.00569995 1e-05
-0.0199258 0.00579985 1e-05
-0.0199074 0.0058997 1e-05
-0.0198886 0.006 1e-05
-0.0198695 0.0061 1e-05
-0.0198502 0.00619995 1e-05
-0.0198306 0.00629983 1e-05
-0.0198107 0.00639967 1e-05
-0.0197904 0.0065 1e-05
-0.0197846 0.00652829 1e-05
-0.0197788 0.00655658 1e-05
-0.0197729 0.00658486 1e-05
-0.019767 0.00661313 1e-05
-0.0197614 0.0066403 1e-05
-0.0197463 0.00671224 1e-05
-0.0197311 0.00678415 1e-05
-0.0197157 0.00685602 1e-05
-0.0197002 0.00692787 1e-05
-0.0196844 0.007 1e-05
-0.0196624 0.0071 1e-05
-0.0196401 0.00719993 1e-05
-0.0196174 0.0072998 1e-05
-0.0195945 0.00739961 1e-05
-0.0195711 0.0075 1e-05
-0.0195574 0.00755818 1e-05
-0.0195436 0.00761634 1e-05
-0.0195297 0.00767447 1e-05
-0.0195156 0.00773258 1e-05
-0.0195025 0.00778654 1e-05
-0.0194921 0.00782923 1e-05
-0.0194815 0.00787191 1e-05
-0.019471 0.00791457 1e-05
-0.0194604 0.00795723 1e-05
-0.0194497 0.008 1e-05
-0.0194245 0.0081 1e-05
-0.019399 0.00819992 1e-05
-0.0193733 0.00829977 1e-05
-0.0193472 0.00839954 1e-05
-0.0193206 0.0085 1e-05
-0.0193056 0.00855594 1e-05
-0.0192906 0.00861185 1e-05
-0.0192754 0.00866773 1e-05
-0.0192601 0.00872359 1e-05
-0.0192457 0.00877596 1e-05
-0.0192333 0.00882077 1e-05
-0.0192209 0.00886556 1e-05
-0.0192084 0.00891033 1e-05
-0.0191958 0.00895509 1e-05
-0.0191831 0.009 1e-05
-0.0191547 0.0091 1e-05
-0.0191259 0.00919991 1e-05
-0.0190969 0.00929973 1e-05
-0.0190675 0.00939947 1e-05
-0.0190376 0.0095 1e-05
-0.0190283 0.00953096 1e-05
-0.019019 0.00956191 1e-05
-0.0190096 0.00959286 1e-05
-0.0190002 0.00962379 1e-05
-0.018991 0.00965373 1e-05
-0.0189698 0.00972299 1e-05
-0.0189485 0.00979219 1e-05
-0.018927 0.00986135 1e-05
-0.0189053 0.00993047 1e-05
-0.0188834 0.01 1e-05
-0.0188544 0.0100911 1e-05
-0.0188251 0.0101822 1e-05
-0.0187956 0.0102731 1e-05
-0.0187658 0.010364 1e-05
-0.0187384 0.0104468 1e-05
-0.0187348 0.0104574 1e-05
-0.0187313 0.0104681 1e-05
-0.0187277 0.0104787 1e-05
-0.0187242 0.0104894 1e-05
-0.0187206 0.0105 1e-05
-0.018687 0.0106 1e-05
-0.0186531 0.0106999 1e-05
-0.0186189 0.0107997 1e-05
-0.0185843 0.0108993 1e-05
-0.0185491 0.011 1e-05
-0.0185368 0.0110347 1e-05
-0.0185245 0.0110693 1e-05
-0.0185122 0.0111039 1e-05
-0.0184998 0.0111385 1e-05
-0.0184878 0.0111721 1e-05
-0.0184642 0.0112376 1e-05
-0.0184404 0.0113032 1e-05
-0.0184165 0.0113687 1e-05
-0.0183924 0.0114341 1e-05
-0.0183681 0.0115 1e-05
-0.0183423 0.0115692 1e-05
-0.0183164 0.0116384 1e-05
-0.0182903 0.0117075 1e-05
-0.018264 0.0117765 1e-05
-0.0182392 0.0118414 1e-05
-0.018227 0.0118731 1e-05
-0.0182147 0.0119048 1e-05
-0.0182024 0.0119365 1e-05
-0.0181901 0.0119682 1e-05
-0.0181777 0.012 1e-05
-0.0181407 0.0120946 1e-05
-0.0181033 0.012189 1e-05
-0.0180657 0.0122833 1e-05
-0.0180278 0.0123776 1e-05
-0.0179926 0.0124643 1e-05
-0.0179897 0.0124714 1e-05
-0.0179867 0.0124786 1e-05
-0.0179838 0.0124857 1e-05
-0.0179809 0.0124928 1e-05
-0.0179779 0.0125 1e-05
-0.0179368 0.0126 1e-05
-0.0178954 0.0126999 1e-05
-0.0178536 0.0127996 1e-05
-0.0178115 0.0128992 1e-05
-0.0177684 0.013 1e-05
-0.0177643 0.0130095 1e-05
-0.0177603 0.013019 1e-05
-0.0177562 0.0130285 1e-05
-0.0177521 0.0130379 1e-05
-0.017748 0.0130474 1e-05
-0.0177088 0.0131379 1e-05
-0.0176693 0.0132283 1e-05
-0.0176295 0.0133186 1e-05
-0.0175895 0.0134087 1e-05
-0.0175486 0.0135 1e-05
-0.0175399 0.0135191 1e-05
-0.0175313 0.0135383 1e-05
-0.0175226 0.0135574 1e-05
-0.0175139 0.0135765 1e-05
-0.0175053 0.0135954 1e-05
-0.0174685 0.0136763 1e-05
-0.0174313 0.0137571 1e-05
-0.017394 0.0138378 1e-05
-0.0173564 0.0139184 1e-05
-0.0173181 0.014 1e-05
-0.0173074 0.0140226 1e-05
-0.0172967 0.0140452 1e-05
-0.017286 0.0140678 1e-05
-0.0172752 0.0140903 1e-05
-0.0172647 0.0141125 1e-05
-0.0172276 0.01419 1e-05
-0.0171904 0.0142674 1e-05
-0.0171529 0.0143447 1e-05
-0.0171152 0.0144219 1e-05
-0.0170768 0.0145 1e-05
-0.0170666 0.0145205 1e-05
-0.0170564 0.0145411 1e-05
-0.0170462 0.0145616 1e-05
-0.017036 0.0145821 1e-05
-0.0170259 0.0146024 1e-05
-0.0169862 0.0146819 1e-05
-0.0169462 0.0147613 1e-05
-0.016906 0.0148406 1e-05
-0.0168656 0.0149198 1e-05
-0.0168243 0.015 1e-05
-0.0168173 0.0150136 1e-05
-0.0168102 0.0150272 1e-05
-0.0168032 0.0150408 1e-05
-0.0167961 0.0150544 1e-05
-0.0167891 0.0150679 1e-05
-0.0167441 0.0151543 1e-05
-0.0166988 0.0152406 1e-05
-0.0166532 0.0153267 1e-05
-0.0166074 0.0154127 1e-05
-0.0165605 0.0155 1e-05
-0.0165592 0.0155023 1e-05
-0.016558 0.0155047 1e-05
-0.0165567 0.015507 1e-05
-0.0165555 0.0155093 1e-05
-0.0165542 0.0155117 1e-05
-0.0165076 0.0155977 1e-05
-0.0164607 0.0156836 1e-05
-0.0164136 0.0157693 1e-05
-0.0163661 0.0158549 1e-05
-0.0163212 0.0159354 1e-05
-0.0163139 0.0159483 1e-05
-0.0163066 0.0159612 1e-05
-0.0162994 0.0159742 1e-05
-0.0162921 0.0159871 1e-05
-0.0162848 0.016 1e-05
-0.0162458 0.0160689 1e-05
-0.0162067 0.0161377 1e-05
-0.0161674 0.0162064 1e-05
-0.0161279 0.016275 1e-05
-0.01609 0.0163404 1e-05
-0.0160714 0.0163723 1e-05
-0.0160528 0.0164042 1e-05
-0.0160341 0.0164361 1e-05
-0.0160154 0.0164679 1e-05
-0.0159966 0.0165 1e-05
-0.0159694 0.016546 1e-05
-0.0159422 0.016592 1e-05
-0.0159148 0.0166379 1e-05
-0.0158874 0.0166838 1e-05
-0.0158607 0.0167283 1e-05
-0.015828 0.0167826 1e-05
-0.0157952 0.0168369 1e-05
-0.0157622 0.0168911 1e-05
-0.0157292 0.0169452 1e-05
-0.0156956 0.017 1e-05
-0.0156832 0.0170202 1e-05
-0.0156707 0.0170404 1e-05
-0.0156582 0.0170606 1e-05
-0.0156457 0.0170808 1e-05
-0.0156333 0.0171008 1e-05
-0.0155882 0.0171734 1e-05
-0.0155429 0.0172458 1e-05
-0.0154973 0.0173182 1e-05
-0.0154516 0.0173904 1e-05
-0.0154077 0.0174594 1e-05
-0.0154025 0.0174675 1e-05
-0.0153973 0.0174756 1e-05
-0.0153921 0.0174837 1e-05
-0.0153869 0.0174919 1e-05
-0.0153816 0.0175 1e-05
-0.0153421 0.0175615 1e-05
-0.0153024 0.0176229 1e-05
-0.0152626 0.0176842 1e-05
-0.0152226 0.0177455 1e-05
-0.0151839 0.0178044 1e-05
-0.0151581 0.0178435 1e-05
-0.0151323 0.0178826 1e-05
-0.0151063 0.0179216 1e-05
-0.0150804 0.0179606 1e-05
-0.0150541 0.018 1e-05
-0.0150356 0.0180275 1e-05
-0.0150172 0.0180549 1e-05
-0.0149987 0.0180824 1e-05
-0.0149802 0.0181098 1e-05
-0.0149619 0.0181367 1e-05
-0.0149179 0.0182017 1e-05
-0.0148737 0.0182665 1e-05
-0.0148293 0.0183312 1e-05
-0.0147848 0.0183958 1e-05
-0.0147417 0.0184579 1e-05
-0.0147359 0.0184663 1e-05
-0.01473 0.0184748 1e-05
-0.0147242 0.0184832 1e-05
-0.0147183 0.0184916 1e-05
-0.0147124 0.0185 1e-05
-0.0146746 0.0185541 1e-05
-0.0146367 0.0186081 1e-05
-0.0145986 0.018662 1e-05
-0.0145605 0.0187159 1e-05
-0.0145233 0.0187681 1e-05
-0.0144902 0.0188145 1e-05
-0.0144569 0.0188608 1e-05
-0.0144236 0.018907 1e-05
-0.0143902 0.0189533 1e-05
-0.0143563 0.019 1e-05
-0.0143463 0.0190136 1e-05
-0.0143364 0.0190272 1e-05
-0.0143265 0.0190408 1e-05
-0.0143165 0.0190544 1e-05
-0.0143067 0.0190679 1e-05
-0.0142637 0.0191266 1e-05
-0.0142206 0.0191851 1e-05
-0.0141773 0.0192436 1e-05
-0.0141339 0.019302 1e-05
-0.0140917 0.0193584 1e-05
-0.0140705 0.0193867 1e-05
-0.0140492 0.019415 1e-05
-0.0140279 0.0194433 1e-05
-0.0140066 0.0194715 1e-05
-0.013985 0.0195 1e-05
-0.0139637 0.019528 1e-05
-0.0139424 0.019556 1e-05
-0.013921 0.019584 1e-05
-0.0138997 0.019612 1e-05
-0.0138786 0.0196395 1e-05
-0.0138363 0.0196946 1e-05
-0.0137939 0.0197496 1e-05
-0.0137513 0.0198045 1e-05
-0.0137087 0.0198593 1e-05
-0.0136671 0.0199124 1e-05
-0.0136533 0.0199299 1e-05
-0.0136396 0.0199474 1e-05
-0.0136258 0.0199649 1e-05
-0.013612 0.0199824 1e-05
-0.0135981 0.02 1e-05
-0.01357 0.0200356 1e-05
-0.0135418 0.0200712 1e-05
-0.0135135 0.0201067 1e-05
-0.0134852 0.0201422 1e-05
-0.0134573 0.020177 1e-05
-0.0134157 0.0202288 1e-05
-0.013374 0.0202806 1e-05
-0.0133322 0.0203323 1e-05
-0.0132902 0.0203839 1e-05
-0.0132493 0.0204341 1e-05
-0.0132385 0.0204473 1e-05
-0.0132277 0.0204605 1e-05
-0.0132168 0.0204736 1e-05
-0.013206 0.0204868 1e-05
-0.0131952 0.0205 1e-05
-0.0131647 0.020537 1e-05
-0.0131342 0.0205739 1e-05
-0.0131036 0.0206108 1e-05
-0.013073 0.0206476 1e-05
-0.0130429 0.0206838 1e-05
-0.0130019 0.0207328 1e-05
-0.0129609 0.0207816 1e-05
-0.0129197 0.0208305 1e-05
-0.0128785 0.0208792 1e-05
-0.0128381 0.0209267 1e-05
-0.0128256 0.0209414 1e-05
-0.0128131 0.020956 1e-05
-0.0128006 0.0209707 1e-05
-0.0127881 0.0209853 1e-05
-0.0127755 0.021 1e-05
-0.0127474 0.0210328 1e-05
-0.0127193 0.0210655 1e-05
-0.0126911 0.0210981 1e-05
-0.0126629 0.0211308 1e-05
-0.012635 0.0211629 1e-05
-0.0125947 0.0212093 1e-05
-0.0125544 0.0212555 1e-05
[...]
POINT_DATA 12125
 FIELD attributes 1
U 3 12125 float
-0.0207557 	-0.300509 	0 -0.0211823 	-0.300487 	0 -0.0216096 	-0.300464 	0 -0.0220365 	-0.30044 	0 -0.0224634 	-0.300415 	0 -0.0228941 	-0.300389 	0 -0.0234408 	-0.300359 	0 -0.0239897 	-0.300328 	0 -0.0245352 	-0.300294 	0 -0.0250806 	-0.30026 	0 -0.0256294 	-0.300224 	0 -0.0262656 	-0.300181 	0 -0.0269037 	-0.300137 	0 -0.027541 	-0.300091 	0 -0.028175 	-0.300043 	0 -0.0288119 	-0.299993 	0 -0.0295128 	-0.299934 	0 -0.0302148 	-0.299873 	0 -0.0309167 	-0.299811 	0 -0.0316183 	-0.299748 	0 -0.0323191 	-0.299682 	0 -0.0329209 	-0.299622 	0 -0.0335236 	-0.299561 	0 -0.0341262 	-0.299498 	0 -0.0347286 	-0.299435 	0 -0.0352276 	-0.299382 	0 -0.0353923 	-0.299364 	0 -0.0355579 	-0.299346 	0 -0.0357236 	-0.299328 	0 -0.0358892 	-0.29931 	0 -0.0360559 	-0.299292 	0 -0.0368352 	-0.299202 	0 -0.0376139 	-0.29911 	0 -0.0383923 	-0.299016 	0 -0.0391706 	-0.298921 	0 -0.0399519 	-0.298823 	0 -0.0407547 	-0.298718 	0 -0.0415576 	-0.298611 	0 -0.0423571 	-0.298502 	0 -0.0431564 	-0.29839 	0 -0.043959 	-0.298277 	0 -0.0447764 	-0.298156 	0 -0.045594 	-0.298034 	0 -0.0464113 	-0.297909 	0 -0.047228 	-0.297783 	0 -0.0480454 	-0.297654 	0 -0.0484656 	-0.297585 	0 -0.048886 	-0.297515 	0 -0.0493063 	-0.297445 	0 -0.0497266 	-0.297374 	0 -0.0501115 	-0.297309 	0 -0.0505271 	-0.297238 	0 -0.0509428 	-0.297167 	0 -0.0513585 	-0.297095 	0 -0.0517741 	-0.297024 	0 -0.0521909 	-0.296951 	0 -0.0530311 	-0.2968 	0 -0.053869 	-0.296646 	0 -0.0547061 	-0.296491 	0 -0.0555429 	-0.296333 	0 -0.0563839 	-0.296173 	0 -0.057231 	-0.296007 	0 -0.0580779 	-0.295839 	0 -0.0589246 	-0.295669 	0 -0.0597709 	-0.295498 	0 -0.0606196 	-0.295323 	0 -0.0608609 	-0.295271 	0 -0.0611024 	-0.29522 	0 -0.0613439 	-0.295168 	0 -0.0615853 	-0.295116 	0 -0.0618174 	-0.295066 	0 -0.0624324 	-0.294934 	0 -0.0630474 	-0.294801 	0 -0.0636623 	-0.294666 	0 -0.0642769 	-0.294531 	0 -0.0648943 	-0.294394 	0 -0.0657576 	-0.294199 	0 -0.0666207 	-0.294002 	0 -0.0674826 	-0.293802 	0 -0.0683428 	-0.2936 	0 -0.0692085 	-0.293395 	0 -0.0697144 	-0.293273 	0 -0.0702204 	-0.29315 	0 -0.0707262 	-0.293026 	0 -0.0712319 	-0.292902 	0 -0.0717017 	-0.292786 	0 -0.0720738 	-0.292694 	0 -0.0724459 	-0.292601 	0 -0.0728179 	-0.292508 	0 -0.0731899 	-0.292415 	0 -0.0735631 	-0.292322 	0 -0.0744426 	-0.292097 	0 -0.0753219 	-0.291871 	0 -0.0761989 	-0.291642 	0 -0.0770755 	-0.291412 	0 -0.0779586 	-0.291177 	0 -0.0784544 	-0.291044 	0 -0.0789503 	-0.290909 	0 -0.079446 	-0.290774 	0 -0.0799416 	-0.290639 	0 -0.0804064 	-0.290511 	0 -0.0808045 	-0.290402 	0 -0.0812027 	-0.290292 	0 -0.0816007 	-0.290182 	0 -0.0819987 	-0.290072 	0 -0.0823982 	-0.28996 	0 -0.0832951 	-0.289708 	0 -0.0841917 	-0.289453 	0 -0.0850874 	-0.289197 	0 -0.0859814 	-0.288938 	0 -0.0868831 	-0.288675 	0 -0.0871631 	-0.288592 	0 -0.0874432 	-0.288509 	0 -0.0877233 	-0.288426 	0 -0.0880033 	-0.288343 	0 -0.0882745 	-0.288262 	0 -0.0889022 	-0.288075 	0 -0.0895299 	-0.287887 	0 -0.0901573 	-0.287698 	0 -0.0907844 	-0.287509 	0 -0.0914157 	-0.287317 	0 -0.0922501 	-0.287061 	0 -0.0930841 	-0.286804 	0 -0.0939177 	-0.286546 	0 -0.0947508 	-0.286286 	0 -0.0955105 	-0.286047 	0 -0.0956082 	-0.286017 	0 -0.0957059 	-0.285986 	0 -0.0958036 	-0.285955 	0 -0.0959014 	-0.285924 	0 -0.0959994 	-0.285893 	0 -0.0969262 	-0.2856 	0 -0.0978515 	-0.285303 	0 -0.0987761 	-0.285005 	0 -0.0997001 	-0.284705 	0 -0.100634 	-0.2844 	0 -0.100958 	-0.284293 	0 -0.101282 	-0.284186 	0 -0.101607 	-0.284079 	0 -0.101931 	-0.283971 	0 -0.102245 	-0.283867 	0 -0.10286 	-0.283663 	0 -0.103475 	-0.283458 	0 -0.10409 	-0.283253 	0 -0.104704 	-0.283046 	0 -0.105323 	-0.282838 	0 -0.105979 	-0.282616 	0 -0.106635 	-0.282392 	0 -0.10729 	-0.282169 	0 -0.107946 	-0.281944 	0 -0.108561 	-0.281732 	0 -0.108863 	-0.281628 	0 -0.109164 	-0.281524 	0 -0.109466 	-0.28142 	0 -0.109767 	-0.281315 	0 -0.11007 	-0.28121 	0 -0.110978 	-0.280895 	0 -0.111885 	-0.280578 	0 -0.112791 	-0.280259 	0 -0.113697 	-0.279939 	0 -0.114531 	-0.279642 	0 -0.1146 	-0.279618 	0 -0.114669 	-0.279593 	0 -0.114737 	-0.279569 	0 -0.114806 	-0.279544 	0 -0.114875 	-0.27952 	0 -0.115848 	-0.279173 	0 -0.116819 	-0.278825 	0 -0.11779 	-0.278475 	0 -0.118759 	-0.278123 	0 -0.119741 	-0.277764 	0 -0.119835 	-0.27773 	0 -0.119928 	-0.277696 	0 -0.120021 	-0.277662 	0 -0.120115 	-0.277628 	0 -0.120207 	-0.277593 	0 -0.121099 	-0.277267 	0 -0.12199 	-0.27694 	0 -0.12288 	-0.276611 	0 -0.12377 	-0.276281 	0 -0.124671 	-0.275945 	0 -0.124862 	-0.275873 	0 -0.125053 	-0.275802 	0 -0.125243 	-0.27573 	0 -0.125434 	-0.275659 	0 -0.125622 	-0.275588 	0 -0.12643 	-0.275286 	0 -0.127238 	-0.274983 	0 -0.128045 	-0.274678 	0 -0.128851 	-0.274373 	0 -0.129667 	-0.274062 	0 -0.129896 	-0.273975 	0 -0.130124 	-0.273888 	0 -0.130352 	-0.273801 	0 -0.13058 	-0.273714 	0 -0.130805 	-0.273628 	0 -0.131589 	-0.273329 	0 -0.132373 	-0.273029 	0 -0.133157 	-0.272728 	0 -0.133939 	-0.272426 	0 -0.134732 	-0.272119 	0 -0.134943 	-0.272037 	0 -0.135153 	-0.271956 	0 -0.135364 	-0.271874 	0 -0.135574 	-0.271792 	0 -0.135781 	-0.271711 	0 -0.136598 	-0.271395 	0 -0.137413 	-0.271078 	0 -0.138228 	-0.27076 	0 -0.139042 	-0.270441 	0 -0.139867 	-0.270116 	0 -0.140009 	-0.270061 	0 -0.14015 	-0.270005 	0 -0.140292 	-0.269949 	0 -0.140433 	-0.269893 	0 -0.140573 	-0.269838 	0 -0.141472 	-0.269485 	0 -0.142371 	-0.269131 	0 -0.143268 	-0.268776 	0 -0.144165 	-0.26842 	0 -0.145075 	-0.268056 	0 -0.1451 	-0.268047 	0 -0.145124 	-0.268037 	0 -0.145149 	-0.268027 	0 -0.145174 	-0.268017 	0 -0.145198 	-0.268007 	0 -0.146106 	-0.267648 	0 -0.147012 	-0.267286 	0 -0.147917 	-0.266923 	0 -0.148821 	-0.266559 	0 -0.149672 	-0.266215 	0 -0.149809 	-0.266159 	0 -0.149946 	-0.266104 	0 -0.150082 	-0.266049 	0 -0.150219 	-0.265994 	0 -0.150356 	-0.265938 	0 -0.151093 	-0.265642 	0 -0.151829 	-0.265345 	0 -0.152565 	-0.265047 	0 -0.153299 	-0.264748 	0 -0.154001 	-0.264462 	0 -0.154343 	-0.264323 	0 -0.154685 	-0.264184 	0 -0.155027 	-0.264044 	0 -0.155369 	-0.263905 	0 -0.155714 	-0.263764 	0 -0.156213 	-0.263561 	0 -0.156712 	-0.263357 	0 -0.157211 	-0.263153 	0 -0.157709 	-0.262949 	0 -0.158193 	-0.262751 	0 -0.158784 	-0.262509 	0 -0.159374 	-0.262268 	0 -0.159964 	-0.262025 	0 -0.160554 	-0.261783 	0 -0.161151 	-0.261536 	0 -0.161373 	-0.261445 	0 -0.161596 	-0.261353 	0 -0.161818 	-0.261262 	0 -0.162041 	-0.26117 	0 -0.162261 	-0.261079 	0 -0.163061 	-0.260752 	0 -0.163861 	-0.260423 	0 -0.16466 	-0.260094 	0 -0.165457 	-0.259763 	0 -0.166218 	-0.259445 	0 -0.166308 	-0.259408 	0 -0.166398 	-0.25937 	0 -0.166487 	-0.259333 	0 -0.166577 	-0.259295 	0 -0.166667 	-0.259258 	0 -0.167354 	-0.258974 	0 -0.168041 	-0.258689 	0 -0.168726 	-0.258404 	0 -0.169411 	-0.258119 	0 -0.170071 	-0.257843 	0 -0.170509 	-0.25766 	0 -0.170947 	-0.257478 	0 -0.171385 	-0.257295 	0 -0.171822 	-0.257112 	0 -0.172263 	-0.256927 	0 -0.172575 	-0.256797 	0 -0.172886 	-0.256668 	0 -0.173198 	-0.256538 	0 -0.173509 	-0.256408 	0 -0.173815 	-0.256279 	0 -0.174552 	-0.255973 	0 -0.175289 	-0.255667 	0 -0.176025 	-0.25536 	0 -0.176759 	-0.255051 	0 -0.177465 	-0.254752 	0 -0.177561 	-0.254711 	0 -0.177656 	-0.254671 	0 -0.177752 	-0.254631 	0 -0.177847 	-0.25459 	0 -0.177943 	-0.25455 	0 -0.178566 	-0.25429 	0 -0.179187 	-0.254029 	0 -0.179808 	-0.253768 	0 -0.180428 	-0.253507 	0 -0.18103 	-0.253253 	0 -0.181564 	-0.253028 	0 -0.182098 	-0.252804 	0 -0.182632 	-0.252579 	0 -0.183165 	-0.252354 	0 -0.183705 	-0.252125 	0 -0.183864 	-0.252058 	0 -0.184023 	-0.251991 	0 -0.184182 	-0.251925 	0 -0.184341 	-0.251858 	0 -0.184499 	-0.251791 	0 -0.185184 	-0.251506 	0 -0.185868 	-0.251219 	0 -0.186551 	-0.250929 	0 -0.187233 	-0.250639 	0 -0.187893 	-0.250358 	0 -0.188224 	-0.250218 	0 -0.188555 	-0.250078 	0 -0.188885 	-0.249938 	0 -0.189216 	-0.249797 	0 -0.189549 	-0.249656 	0 -0.189881 	-0.249516 	0 -0.190213 	-0.249376 	0 -0.190544 	-0.249236 	0 -0.190876 	-0.249096 	0 -0.191203 	-0.248957 	0 -0.191855 	-0.248684 	0 -0.192507 	-0.24841 	0 -0.193159 	-0.248136 	0 -0.193808 	-0.247858 	0 -0.194438 	-0.247587 	0 -0.194645 	-0.247499 	0 -0.194853 	-0.247411 	0 -0.19506 	-0.247322 	0 -0.195268 	-0.247234 	0 -0.195476 	-0.247145 	0 -0.195904 	-0.246965 	0 -0.196331 	-0.246784 	0 -0.196757 	-0.246603 	0 -0.197184 	-0.246422 	0 -0.197603 	-0.246244 	0 -0.198226 	-0.245983 	0 -0.198848 	-0.24572 	0 -0.19947 	-0.245457 	0 -0.20009 	-0.245193 	0 -0.200694 	-0.244933 	0 -0.200851 	-0.244865 	0 -0.20101 	-0.244798 	0 -0.201168 	-0.24473 	0 -0.201326 	-0.244663 	0 -0.201485 	-0.244595 	0 -0.201935 	-0.244405 	0 -0.202384 	-0.244214 	0 -0.202833 	-0.244024 	0 -0.203282 	-0.243833 	0 -0.203723 	-0.243646 	0 -0.204319 	-0.243395 	0 -0.204915 	-0.243144 	0 -0.20551 	-0.242892 	0 -0.206103 	-0.242639 	0 -0.206682 	-0.242389 	0 -0.20686 	-0.242312 	0 -0.207038 	-0.242236 	0 -0.207216 	-0.24216 	0 -0.207394 	-0.242084 	0 -0.207573 	-0.242007 	0 -0.207977 	-0.241836 	0 -0.20838 	-0.241666 	0 -0.208784 	-0.241495 	0 -0.209186 	-0.241323 	0 -0.209583 	-0.241155 	0 -0.210155 	-0.240914 	0 -0.210726 	-0.240674 	0 -0.211296 	-0.240433 	0 -0.211865 	-0.240188 	0 -0.212421 	-0.239948 	0 -0.212684 	-0.239836 	0 -0.212947 	-0.239723 	0 -0.213211 	-0.239611 	0 -0.213474 	-0.239498 	0 -0.213739 	-0.239384 	0 -0.214032 	-0.239261 	0 -0.214325 	-0.239137 	0 -0.214618 	-0.239013 	0 -0.21491 	-0.238888 	0 -0.2152 	-0.238766 	0 -0.215749 	-0.238536 	0 -0.216298 	-0.238306 	0 -0.216845 	-0.238072 	0 -0.21739 	-0.237837 	0 -0.217926 	-0.237606 	0 -0.218336 	-0.237432 	0 -0.218746 	-0.237257 	0 -0.219155 	-0.237082 	0 -0.219565 	-0.236907 	0 -0.219979 	-0.23673 	0 -0.2201 	-0.236679 	0 -0.220222 	-0.236627 	0 -0.220344 	-0.236576 	0 -0.220466 	-0.236524 	0 -0.220588 	-0.236473 	0 -0.221116 	-0.236253 	0 -0.221643 	-0.236029 	0 -0.222169 	-0.235804 	0 -0.222694 	-0.235579 	0 -0.22321 	-0.235358 	0 -0.223724 	-0.235141 	0 -0.224237 	-0.234923 	0 -0.224751 	-0.234706 	0 -0.225263 	-0.234488 	0 -0.225765 	-0.23427 	0 -0.225869 	-0.234225 	0 -0.225974 	-0.23418 	0 -0.226078 	-0.234135 	0 -0.226182 	-0.23409 	0 -0.226287 	-0.234045 	0 -0.226688 	-0.233876 	0 -0.227088 	-0.233706 	0 -0.227488 	-0.233536 	0 -0.227888 	-0.233366 	0 -0.228283 	-0.233198 	0 -0.228778 	-0.232991 	0 -0.229274 	-0.232783 	0 -0.229768 	-0.232573 	0 -0.23026 	-0.23236 	0 -0.230745 	-0.23215 	0 -0.231127 	-0.231987 	0 -0.231509 	-0.231824 	0 -0.23189 	-0.231661 	0 -0.232271 	-0.231498 	0 -0.232657 	-0.231332 	0 -0.232756 	-0.231291 	0 -0.232855 	-0.231249 	0 -0.232954 	-0.231207 	0 -0.233053 	-0.231165 	0 -0.233152 	-0.231123 	0 -0.23363 	-0.230924 	0 -0.234107 	-0.23072 	0 -0.234584 	-0.230517 	0 -0.235059 	-0.230313 	0 -0.235528 	-0.230112 	0 -0.235994 	-0.229916 	0 -0.236459 	-0.22972 	0 -0.236924 	-0.229523 	0 -0.237388 	-0.229323 	0 -0.237845 	-0.229124 	0 -0.238091 	-0.229018 	0 -0.238338 	-0.228912 	0 -0.238584 	-0.228806 	0 -0.238831 	-0.2287 	0 -0.239079 	-0.228593 	0 -0.239287 	-0.228505 	0 -0.239495 	-0.228416 	0 -0.239703 	-0.228328 	0 -0.239911 	-0.22824 	0 -0.240119 	-0.228153 	0 -0.240569 	-0.227966 	0 -0.241018 	-0.227774 	0 -0.241467 	-0.227581 	0 -0.241914 	-0.227389 	0 -0.242357 	-0.227198 	0 -0.242795 	-0.227012 	0 -0.243233 	-0.226826 	0 -0.243671 	-0.22664 	0 -0.244108 	-0.226453 	0 -0.244539 	-0.226263 	0 -0.244739 	-0.226176 	0 -0.24494 	-0.22609 	0 -0.245141 	-0.226003 	0 -0.245341 	-0.225916 	0 -0.245543 	-0.225828 	0 -0.245772 	-0.225731 	0 -0.246 	-0.225634 	0 -0.246229 	-0.225537 	0 -0.246457 	-0.22544 	0 -0.246685 	-0.225344 	0 -0.247109 	-0.225167 	0 -0.247533 	-0.224986 	0 -0.247956 	-0.224803 	0 -0.248378 	-0.22462 	0 -0.248796 	-0.22444 	0 -0.249209 	-0.224264 	0 -0.249622 	-0.224088 	0 -0.250035 	-0.223912 	0 -0.250447 	-0.223734 	0 -0.250854 	-0.223553 	0 -0.25109 	-0.223451 	0 -0.251326 	-0.223348 	0 -0.251561 	-0.223246 	0 -0.251797 	-0.223143 	0 -0.252035 	-0.22304 	0 -0.252202 	-0.222968 	0 -0.252371 	-0.222896 	0 -0.252539 	-0.222825 	0 -0.252707 	-0.222753 	0 -0.252875 	-0.222682 	0 -0.253275 	-0.222514 	0 -0.253675 	-0.222341 	0 -0.254074 	-0.222168 	0 -0.254473 	-0.221995 	0 -0.254868 	-0.221823 	0 -0.255258 	-0.221657 	0 -0.255648 	-0.221491 	0 -0.256038 	-0.221324 	0 -0.256426 	-0.221152 	0 -0.256811 	-0.220981 	0 -0.257155 	-0.220831 	0 -0.2575 	-0.22068 	0 -0.257844 	-0.22053 	0 -0.258188 	-0.220379 	0 -0.258536 	-0.220227 	0 -0.25857 	-0.220212 	0 -0.258604 	-0.220197 	0 -0.258638 	-0.220182 	0 -0.258673 	-0.220168 	0 -0.258708 	-0.220153 	0 -0.259086 	-0.21999 	0 -0.259464 	-0.219827 	0 -0.259841 	-0.219663 	0 -0.260218 	-0.219499 	0 -0.260591 	-0.219336 	0 -0.26096 	-0.219179 	0 -0.261329 	-0.219022 	0 -0.261696 	-0.218859 	0 -0.262063 	-0.218696 	0 -0.262427 	-0.218533 	0 -0.262786 	-0.218376 	0 -0.263145 	-0.218219 	0 -0.263504 	-0.218062 	0 -0.263862 	-0.217905 	0 -0.264216 	-0.217744 	0 -0.264377 	-0.217672 	0 -0.264538 	-0.217599 	0 -0.264698 	-0.217527 	0 -0.264859 	-0.217455 	0 -0.265021 	-0.217383 	0 -0.265212 	-0.217299 	0 -0.265404 	-0.217216 	0 -0.265596 	-0.217132 	0 -0.265788 	-0.217048 	0 -0.265979 	-0.216965 	0 -0.266328 	-0.216817 	0 -0.266676 	-0.216662 	0 -0.267023 	-0.216507 	0 -0.267371 	-0.216352 	0 -0.267715 	-0.216198 	0 -0.268054 	-0.216049 	0 -0.268394 	-0.215901 	0 -0.268732 	-0.215751 	0 -0.26907 	-0.215596 	0 -0.269406 	-0.215442 	0 -0.269736 	-0.215294 	0 -0.270066 	-0.215145 	0 -0.270396 	-0.214997 	0 -0.270726 	-0.214848 	0 -0.271053 	-0.214698 	0 -0.271135 	-0.214659 	0 -0.271218 	-0.214621 	0 -0.271301 	-0.214583 	0 -0.271383 	-0.214545 	0 -0.271467 	-0.214506 	0 -0.27171 	-0.214398 	0 -0.271954 	-0.214289 	0 -0.272198 	-0.21418 	0 -0.272442 	-0.214071 	0 -0.272685 	-0.213963 	0 -0.273005 	-0.213823 	0 -0.273326 	-0.213678 	0 -0.273646 	-0.213531 	0 -0.273966 	-0.213384 	0 -0.274284 	-0.213238 	0 -0.274596 	-0.213097 	0 -0.274908 	-0.212957 	0 -0.27522 	-0.212816 	0 -0.275531 	-0.212669 	0 -0.275841 	-0.212522 	0 -0.276144 	-0.212382 	0 -0.276448 	-0.212241 	0 -0.276752 	-0.2121 	0 -0.277055 	-0.211959 	0 -0.277356 	-0.211816 	0 -0.277452 	-0.21177 	0 -0.277548 	-0.211724 	0 -0.277644 	-0.211678 	0 -0.277741 	-0.211632 	0 -0.277838 	-0.211586 	0 -0.278041 	-0.211492 	0 -0.278245 	-0.211398 	0 -0.278449 	-0.211305 	0 -0.278653 	-0.211211 	0 -0.278856 	-0.211118 	0 -0.279151 	-0.210985 	0 -0.279446 	-0.210846 	0 -0.279741 	-0.210707 	0 -0.280036 	-0.210567 	0 -0.280329 	-0.210428 	0 -0.280616 	-0.210295 	0 -0.280903 	-0.210162 	0 -0.28119 	-0.210026 	0 -0.281476 	-0.209886 	0 -0.281762 	-0.209747 	0 -0.28204 	-0.209613 	0 -0.282319 	-0.209479 	0 -0.282598 	-0.209346 	0 -0.282877 	-0.209212 	0 -0.283154 	-0.209072 	0 -0.283341 	-0.208979 	0 -0.283529 	-0.208886 	0 -0.283717 	-0.208793 	0 -0.283904 	-0.2087 	0 -0.284093 	-0.208607 	0 -0.284178 	-0.208566 	0 -0.284263 	-0.208526 	0 -0.284348 	-0.208485 	0 -0.284434 	-0.208445 	0 -0.28452 	-0.208404 	0 -0.284791 	-0.208275 	0 -0.285062 	-0.208143 	0 -0.285334 	-0.20801 	0 -0.285605 	-0.207877 	0 -0.285875 	-0.207746 	0 -0.286138 	-0.207619 	0 -0.286402 	-0.207492 	0 -0.286666 	-0.207359 	0 -0.28693 	-0.207225 	0 -0.287192 	-0.207093 	0 -0.287448 	-0.206966 	0 -0.287704 	-0.206839 	0 -0.28796 	-0.206712 	0 -0.288216 	-0.206579 	0 -0.288472 	-0.206445 	0 -0.28872 	-0.206318 	0 -0.288969 	-0.20619 	0 -0.289217 	-0.206062 	0 -0.289465 	-0.205934 	0 -0.289714 	-0.205803 	0 -0.289807 	-0.205753 	0 -0.289901 	-0.205703 	0 -0.289996 	-0.205653 	0 -0.29009 	-0.205602 	0 -0.290185 	-0.205552 	0 -0.290336 	-0.205475 	0 -0.290488 	-0.205399 	0 -0.29064 	-0.205322 	0 -0.290792 	-0.205245 	0 -0.290943 	-0.205168 	0 -0.291185 	-0.205047 	0 -0.291427 	-0.204921 	0 -0.29167 	-0.204794 	0 -0.291912 	-0.204667 	0 -0.292153 	-0.204541 	0 -0.292387 	-0.20442 	0 -0.292622 	-0.2043 	0 -0.292857 	-0.204173 	0 -0.293092 	-0.204045 	0 -0.293327 	-0.203919 	0 -0.293554 	-0.203797 	0 -0.293782 	-0.203676 	0 -0.294009 	-0.203555 	0 -0.294237 	-0.203429 	0 -0.294465 	-0.203302 	0 -0.294686 	-0.20318 	0 -0.294907 	-0.203058 	0 -0.295127 	-0.202936 	0 -0.295347 	-0.202814 	0 -0.295568 	-0.20269 	0 -0.295665 	-0.202634 	0 -0.295762 	-0.202579 	0 -0.29586 	-0.202523 	0 -0.295957 	-0.202468 	0 -0.296055 	-0.202413 	0 -0.296175 	-0.202347 	0 -0.296296 	-0.202282 	0 -0.296417 	-0.202218 	0 -0.296538 	-0.202153 	0 -0.296659 	-0.202088 	0 -0.296873 	-0.201974 	0 -0.297089 	-0.201855 	0 -0.297304 	-0.201736 	0 -0.29752 	-0.201617 	0 -0.297735 	-0.201498 	0 -0.297941 	-0.201387 	0 -0.298149 	-0.201273 	0 -0.298359 	-0.201155 	0 -0.298567 	-0.201036 	0 -0.298776 	-0.200918 	0 -0.298977 	-0.200807 	0 -0.299178 	-0.200696 	0 -0.299379 	-0.200584 	0 -0.299581 	-0.200466 	0 -0.299784 	-0.200349 	0 -0.299978 	-0.200239 	0 -0.300173 	-0.200129 	0 -0.300368 	-0.200019 	0 -0.300562 	-0.199909 	0 -0.300759 	-0.199793 	0 -0.300932 	-0.199694 	0 -0.301107 	-0.199594 	0 -0.301281 	-0.199495 	0 -0.301455 	-0.199395 	0 -0.301631 	-0.199296 	0 -0.301645 	-0.199288 	0 -0.30166 	-0.19928 	0 -0.301674 	-0.199272 	0 -0.301688 	-0.199264 	0 -0.301703 	-0.199257 	0 -0.301893 	-0.199157 	0 -0.302084 	-0.199056 	0 -0.302274 	-0.198956 	0 -0.302464 	-0.198855 	0 -0.302655 	-0.198755 	0 -0.302836 	-0.198666 	0 -0.303021 	-0.198571 	0 -0.303206 	-0.198475 	0 -0.30339 	-0.198379 	0 -0.303575 	-0.198284 	0 -0.303751 	-0.198202 	0 -0.303927 	-0.19812 	0 -0.304106 	-0.198032 	0 -0.304285 	-0.197943 	0 -0.304464 	-0.197855 	0 -0.304634 	-0.197781 	0 -0.304805 	-0.197709 	0 -0.304975 	-0.197636 	0 -0.305148 	-0.197558 	0 -0.305322 	-0.197478 	0 -0.305487 	-0.197417 	0 -0.305652 	-0.197357 	0 -0.305817 	-0.197297 	0 -0.305982 	-0.197236 	0 -0.306151 	-0.19717 	0 -0.306285 	-0.197132 	0 -0.30642 	-0.197095 	0 -0.306555 	-0.197057 	0 -0.30669 	-0.19702 	0 -0.306827 	-0.196983 	0 -0.306852 	-0.196976 	0 -0.306878 	-0.196969 	0 -0.306903 	-0.196963 	0 -0.306929 	-0.196957 	0 -0.306956 	-0.196952 	0 -0.307118 	-0.196932 	0 -0.30728 	-0.196913 	0 -0.307443 	-0.196894 	0 -0.307605 	-0.196874 	0 -0.307768 	-0.196856 	0 -0.307921 	-0.196871 	0 -0.308078 	-0.196879 	0 -0.308236 	-0.196886 	0 -0.308393 	-0.196893 	0 -0.308551 	-0.196902 	0 -0.308698 	-0.19695 	0 -0.308847 	-0.197 	0 -0.308999 	-0.197041 	0 -0.309151 	-0.197082 	0 -0.309304 	-0.197124 	0 -0.309446 	-0.197215 	0 -0.30959 	-0.197307 	0 -0.309733 	-0.1974 	0 -0.30988 	-0.197482 	0 -0.310028 	-0.197566 	0 -0.310165 	-0.197709 	0 -0.310304 	-0.197854 	0 -0.310442 	-0.197999 	0 -0.31058 	-0.198143 	0 -0.310724 	-0.198279 	0 -0.310856 	-0.198486 	0 -0.310989 	-0.198695 	0 -0.311123 	-0.198904 	0 -0.311256 	-0.199113 	0 -0.311392 	-0.199323 	0 -0.311414 	-0.199372 	0 -0.311438 	-0.199425 	0 -0.311461 	-0.199478 	0 -0.311485 	-0.199532 	0 -0.311509 	-0.199586 	0 -0.311619 	-0.199822 	0 -0.31173 	-0.200061 	0 -0.311842 	-0.2003 	0 -0.311953 	-0.200539 	0 -0.312067 	-0.200782 	0 -0.312192 	-0.201176 	0 -0.312324 	-0.201562 	0 -0.312455 	-0.201948 	0 -0.312587 	-0.202334 	0 -0.312721 	-0.202726 	0 -0.312841 	-0.203236 	0 -0.312964 	-0.203745 	0 -0.313091 	-0.204242 	0 -0.313219 	-0.204738 	0 -0.313349 	-0.205242 	0 -0.313464 	-0.205884 	0 -0.31358 	-0.206531 	0 -0.3137 	-0.207169 	0 -0.313824 	-0.207795 	0 -0.31395 	-0.208431 	0 -0.31406 	-0.209226 	0 -0.314172 	-0.210026 	0 -0.314285 	-0.210826 	0 -0.314401 	-0.211613 	0 -0.314524 	-0.212403 	0 -0.31463 	-0.213374 	0 -0.314737 	-0.214349 	0 -0.314846 	-0.215324 	0 -0.314955 	-0.216299 	0 -0.315072 	-0.217276 	0 -0.315135 	-0.218014 	0 -0.315201 	-0.218758 	0 -0.315266 	-0.219502 	0 -0.315332 	-0.220246 	0 -0.315398 	-0.220979 	0 -0.31544 	-0.221413 	0 -0.315482 	-0.221854 	0 -0.315525 	-0.222295 	0 -0.315568 	-0.222735 	0 -0.315612 	-0.223185 	0 -0.315714 	-0.224603 	0 -0.315821 	-0.226014 	0 -0.315929 	-0.227423 	0 -0.316039 	-0.22883 	0 -0.316153 	-0.230271 	0 -0.316246 	-0.231964 	0 -0.316346 	-0.233636 	0 -0.316451 	-0.235292 	0 -0.316557 	-0.236945 	0 -0.316668 	-0.238644 	0 -0.316756 	-0.240613 	0 -0.316846 	-0.242587 	0 -0.316945 	-0.244527 	0 -0.317047 	-0.246449 	0 -0.317156 	-0.24843 	0 -0.317239 	-0.250697 	0 -0.31732