# vtk DataFile Version 2.0
track0
ASCII
DATASET POLYDATA
POINTS 12125 float
-0.0205 0.001 1e-05
-0.0204931 0.0011 1e-05
-0.020486 0.00119999 1e-05
-0.0204789 0.00129997 1e-05
-0.0204715 0.00139994 1e-05
-0.020464 0.0015 1e-05
-0.0204564 0.0016 1e-05
-0.0204486 0.00169999 1e-05
-0.0204406 0.00179996 1e-05
-0.0204325 0.00189991 1e-05
-0.0204241 0.002 1e-05
-0.0204156 0.0021 1e-05
-0.0204068 0.00219998 1e-05
-0.0203979 0.00229994 1e-05
-0.0203887 0.00239989 1e-05
-0.0203793 0.0025 1e-05
-0.0203697 0.0026 1e-05
-0.0203598 0.00269998 1e-05
-0.0203498 0.00279993 1e-05
-0.0203395 0.00289986 1e-05
-0.0203289 0.003 1e-05
-0.0203202 0.00308069 1e-05
-0.0203113 0.00316135 1e-05
-0.0203023 0.003242 1e-05
-0.0202931 0.00332264 1e-05
-0.0202854 0.00338928 1e-05
-0.0202828 0.00341143 1e-05
-0.0202802 0.00343357 1e-05
-0.0202775 0.00345571 1e-05
-0.0202749 0.00347785 1e-05
-0.0202722 0.0035 1e-05
-0.0202602 0.0036 1e-05
-0.0202479 0.00369997 1e-05
-0.0202353 0.0037999 1e-05
-0.0202225 0.00389981 1e-05
-0.0202094 0.004 1e-05
-0.020196 0.0041 1e-05
-0.0201824 0.00419996 1e-05
-0.0201685 0.00429989 1e-05
-0.0201543 0.00439978 1e-05
-0.0201398 0.0045 1e-05
-0.020125 0.0046 1e-05
-0.02011 0.00469996 1e-05
-0.0200947 0.00479988 1e-05
-0.0200792 0.00489975 1e-05
-0.0200633 0.005 1e-05
-0.0200551 0.00505076 1e-05
-0.0200468 0.00510151 1e-05
-0.0200385 0.00515225 1e-05
-0.0200301 0.00520297 1e-05
-0.0200223 0.0052494 1e-05
-0.0200139 0.00529952 1e-05
-0.0200054 0.00534963 1e-05
-0.0199968 0.00539972 1e-05
-0.0199881 0.00544981 1e-05
-0.0199794 0.0055 1e-05
-0.0199618 0.0056 1e-05
-0.0199439 0.00569995 1e-05
-0.0199258 0.00579985 1e-05
-0.0199074 0.0058997 1e-05
-0.0198886 0.006 1e-05
-0.0198695 0.0061 1e-05
-0.0198502 0.00619995 1e-05
-0.0198306 0.00629983 1e-05
-0.0198107 0.00639967 1e-05
-0.0197904 0.0065 1e-05
-0.0197846 0.00652829 1e-05
-0.0197788 0.00655658 1e-05
-0.0197729 0.00658486 1e-05
-0.019767 0.00661313 1e-05
-0.0197614 0.0066403 1e-05
-0.0197463 0.00671224 1e-05
-0.0197311 0.00678415 1e-05
-0.0197157 0.00685602 1e-05
-0.0197002 0.00692787 1e-05
-0.0196844 0.007 1e-05
-0.0196624 0.0071 1e-05
-0.0196401 0.00719993 1e-05
-0.0196174 0.0072998 1e-05
-0.0195945 0.00739961 1e-05
-0.0195711 0.0075 1e-05
-0.0195574 0.00755818 1e-05
-0.0195436 0.00761634 1e-05
-0.0195297 0.00767447 1e-05
-0.0195156 0.00773258 1e-05
-0.0195025 0.00778654 1e-05
-0.0194921 0.00782923 1e-05
-0.0194815 0.00787191 1e-05
-0.019471 0.00791457 1e-05
-0.0194604 0.00795723 1e-05
-0.0194497 0.008 1e-05
-0.0194245 0.0081 1e-05
-0.019399 0.00819992 1e-05
-0.0193733 0.00829977 1e-05
-0.0193472 0.00839954 1e-05
-0.0193206 0.0085 1e-05
-0.0193056 0.00855594 1e-05
-0.0192906 0.00861185 1e-05
-0.0192754 0.00866773 1e-05
-0.0192601 0.00872359 1e-05
-0.0192457 0.00877596 1e-05
-0.0192333 0.00882077 1e-05
-0.0192209 0.00886556 1e-05
-0.0192084 0.00891033 1e-05
-0.0191958 0.00895509 1e-05
-0.0191831 0.009 1e-05
-0.0191547 0.0091 1e-05
-0.0191259 0.00919991 1e-05
-0.0190969 0.00929973 1e-05
-0.0190675 0.00939947 1e-05
-0.0190376 0.0095 1e-05
-0.0190283 0.00953096 1e-05
-0.019019 0.00956191 1e-05
-0.0190096 0.00959286 1e-05
-0.0190002 0.00962379 1e-05
-0.018991 0.00965373 1e-05
-0.0189698 0.00972299 1e-05
-0.0189485 0.00979219 1e-05
-0.018927 0.00986135 1e-05
-0.0189053 0.00993047 1e-05
-0.0188834 0.01 1e-05
-0.0188544 0.0100911 1e-05
-0.0188251 0.0101822 1e-05
-0.0187956 0.0102731 1e-05
-0.0187658 0.010364 1e-05
-0.0187384 0.0104468 1e-05
-0.0187348 0.0104574 1e-05
-0.0187313 0.0104681 1e-05
-0.0187277 0.0104787 1e-05
-0.0187242 0.0104894 1e-05
-0.0187206 0.0105 1e-05
-0.018687 0.0106 1e-05
-0.0186531 0.0106999 1e-05
-0.0186189 0.0107997 1e-05
-0.0185843 0.0108993 1e-05
-0.0185491 0.011 1e-05
-0.0185368 0.0110347 1e-05
-0.0185245 0.0110693 1e-05
-0.0185122 0.0111039 1e-05
-0.0184998 0.0111385 1e-05
-0.0184878 0.0111721 1e-05
-0.0184642 0.0112376 1e-05
-0.0184404 0.0113032 1e-05
-0.0184165 0.0113687 1e-05
-0.0183924 0.0114341 1e-05
-0.0183681 0.0115 1e-05
-0.0183423 0.0115692 1e-05
-0.0183164 0.0116384 1e-05
-0.0182903 0.0117075 1e-05
-0.018264 0.0117765 1e-05
-0.0182392 0.0118414 1e-05
-0.018227 0.0118731 1e-05
-0.0182147 0.0119048 1e-05
-0.0182024 0.0119365 1e-05
-0.0181901 0.0119682 1e-05
-0.0181777 0.012 1e-05
-0.0181407 0.0120946 1e-05
-0.0181033 0.012189 1e-05
-0.0180657 0.0122833 1e-05
-0.0180278 0.0123776 1e-05
-0.0179926 0.0124643 1e-05
-0.0179897 0.0124714 1e-05
-0.0179867 0.0124786 1e-05
-0.0179838 0.0124857 1e-05
-0.0179809 0.0124928 1e-05
-0.0179779 0.0125 1e-05
-0.0179368 0.0126 1e-05
-0.0178954 0.0126999 1e-05
-0.0178536 0.0127996 1e-05
-0.0178115 0.0128992 1e-05
-0.0177684 0.013 1e-05
-0.0177643 0.0130095 1e-05
-0.0177603 0.013019 1e-05
-0.0177562 0.0130285 1e-05
-0.0177521 0.0130379 1e-05
-0.017748 0.0130474 1e-05
-0.0177088 0.0131379 1e-05
-0.0176693 0.0132283 1e-05
-0.0176295 0.0133186 1e-05
-0.0175895 0.0134087 1e-05
-0.0175486 0.0135 1e-05
-0.0175399 0.0135191 1e-05
-0.0175313 0.0135383 1e-05
-0.0175226 0.0135574 1e-05
-0.0175139 0.0135765 1e-05
-0.0175053 0.0135954 1e-05
-0.0174685 0.0136763 1e-05
-0.0174313 0.0137571 1e-05
-0.017394 0.0138378 1e-05
-0.0173564 0.0139184 1e-05
-0.0173181 0.014 1e-05
-0.0173074 0.0140226 1e-05
-0.0172967 0.0140452 1e-05
-0.017286 0.0140678 1e-05
-0.0172752 0.0140903 1e-05
-0.0172647 0.0141125 1e-05
-0.0172276 0.01419 1e-05
-0.0171904 0.0142674 1e-05
-0.0171529 0.0143447 1e-05
-0.0171152 0.0144219 1e-05
-0.0170768 0.0145 1e-05
-0.0170666 0.0145205 1e-05
-0.0170564 0.0145411 1e-05
-0.0170462 0.0145616 1e-05
-0.017036 0.0145821 1e-05
-0.0170259 0.0146024 1e-05
-0.0169862 0.0146819 1e-05
-0.0169462 0.0147613 1e-05
-0.016906 0.0148406 1e-05
-0.0168656 0.0149198 1e-05
-0.0168243 0.015 1e-05
-0.0168173 0.0150136 1e-05
-0.0168102 0.0150272 1e-05
-0.0168032 0.0150408 1e-05
-0.0167961 0.0150544 1e-05
-0.0167891 0.0150679 1e-05
-0.0167441 0.0151543 1e-05
-0.0166988 0.0152406 1e-05
-0.0166532 0.0153267 1e-05
-0.0166074 0.0154127 1e-05
-0.0165605 0.0155 1e-05
-0.0165592 0.0155023 1e-05
-0.016558 0.0155047 1e-05
-0.0165567 0.015507 1e-05
-0.0165555 0.0155093 1e-05
-0.0165542 0.0155117 1e-05
-0.0165076 0.0155977 1e-05
-0.0164607 0.0156836 1e-05
-0.0164136 0.0157693 1e-05
-0.0163661 0.0158549 1e-05
-0.0163212 0.0159354 1e-05
-0.0163139 0.0159483 1e-05
-0.0163066 0.0159612 1e-05
-0.0162994 0.0159742 1e-05
-0.0162921 0.0159871 1e-05
-0.0162848 0.016 1e-05
-0.0162458 0.0160689 1e-05
-0.0162067 0.0161377 1e-05
-0.0161674 0.0162064 1e-05
-0.0161279 0.016275 1e-05
-0.01609 0.0163404 1e-05
-0.0160714 0.0163723 1e-05
-0.0160528 0.0164042 1e-05
-0.0160341 0.0164361 1e-05
-0.0160154 0.0164679 1e-05
-0.0159966 0.0165 1e-05
-0.0159694 0.016546 1e-05
-0.0159422 0.016592 1e-05
-0.0159148 0.0166379 1e-05
-0.0158874 0.0166838 1e-05
-0.0158607 0.0167283 1e-05
-0.015828 0.0167826 1e-05
-0.0157952 0.0168369 1e-05
-0.0157622 0.0168911 1e-05
-0.0157292 0.0169452 1e-05
-0.0156956 0.017 1e-05
-0.0156832 0.0170202 1e-05
-0.0156707 0.0170404 1e-05
-0.0156582 0.0170606 1e-05
-0.0156457 0.0170808 1e-05
-0.0156333 0.0171008 1e-05
-0.0155882 0.0171734 1e-05
-0.0155429 0.0172458 1e-05
-0.0154973 0.0173182 1e-05
-0.0154516 0.0173904 1e-05
-0.0154077 0.0174594 1e-05
-0.0154025 0.0174675 1e-05
-0.0153973 0.0174756 1e-05
-0.0153921 0.0174837 1e-05
-0.0153869 0.0174919 1e-05
-0.0153816 0.0175 1e-05
-0.0153421 0.0175615 1e-05
-0.0153024 0.0176229 1e-05
-0.0152626 0.0176842 1e-05
-0.0152226 0.0177455 1e-05
-0.0151839 0.0178044 1e-05
-0.0151581 0.0178435 1e-05
-0.0151323 0.0178826 1e-05
-0.0151063 0.0179216 1e-05
-0.0150804 0.0179606 1e-05
-0.0150541 0.018 1e-05
-0.0150356 0.0180275 1e-05
-0.0150172 0.0180549 1e-05
-0.0149987 0.0180824 1e-05
-0.0149802 0.0181098 1e-05
-0.0149619 0.0181367 1e-05
-0.0149179 0.0182017 1e-05
-0.0148737 0.0182665 1e-05
-0.0148293 0.0183312 1e-05
-0.0147848 0.0183958 1e-05
-0.0147417 0.0184579 1e-05
-0.0147359 0.0184663 1e-05
-0.01473 0.0184748 1e-05
-0.0147242 0.0184832 1e-05
-0.0147183 0.0184916 1e-05
-0.0147124 0.0185 1e-05
-0.0146746 0.0185541 1e-05
-0.0146367 0.0186081 1e-05
-0.0145986 0.018662 1e-05
-0.0145605 0.0187159 1e-05
-0.0145233 0.0187681 1e-05
-0.0144902 0.0188145 1e-05
-0.0144569 0.0188608 1e-05
-0.0144236 0.018907 1e-05
-0.0143902 0.0189533 1e-05
-0.0143563 0.019 1e-05
-0.0143463 0.0190136 1e-05
-0.0143364 0.0190272 1e-05
-0.0143265 0.0190408 1e-05
-0.0143165 0.0190544 1e-05
-0.0143067 0.0190679 1e-05
-0.0142637 0.0191266 1e-05
-0.0142206 0.0191851 1e-05
-0.0141773 0.0192436 1e-05
-0.0141339 0.019302 1e-05
-0.0140917 0.0193584 1e-05
-0.0140705 0.0193867 1e-05
-0.0140492 0.019415 1e-05
-0.0140279 0.0194433 1e-05
-0.0140066 0.0194715 1e-05
-0.013985 0.0195 1e-05
-0.0139637 0.019528 1e-05
-0.0139424 0.019556 1e-05
-0.013921 0.019584 1e-05
-0.0138997 0.019612 1e-05
-0.0138786 0.0196395 1e-05
-0.0138363 0.0196946 1e-05
-0.0137939 0.0197496 1e-05
-0.0137513 0.0198045 1e-05
-0.0137087 0.0198593 1e-05
-0.0136671 0.0199124 1e-05
-0.0136533 0.0199299 1e-05
-0.0136396 0.0199474 1e-05
-0.0136258 0.0199649 1e-05
-0.013612 0.0199824 1e-05
-0.0135981 0.02 1e-05
-0.01357 0.0200356 1e-05
-0.0135418 0.0200712 1e-05
-0.0135135 0.0201067 1e-05
-0.0134852 0.0201422 1e-05
-0.0134573 0.020177 1e-05
-0.0134157 0.0202288 1e-05
-0.013374 0.0202806 1e-05
-0.0133322 0.0203323 1e-05
-0.0132902 0.0203839 1e-05
-0.0132493 0.0204341 1e-05
-0.0132385 0.0204473 1e-05
-0.0132277 0.0204605 1e-05
-0.0132168 0.0204736 1e-05
-0.013206 0.0204868 1e-05
-0.0131952 0.0205 1e-05
-0.0131647 0.020537 1e-05
-0.0131342 0.0205739 1e-05
-0.0131036 0.0206108 1e-05
-0.013073 0.0206476 1e-05
-0.0130429 0.0206838 1e-05
-0.0130019 0.0207328 1e-05
-0.0129609 0.0207816 1e-05
-0.0129197 0.0208305 1e-05
-0.0128785 0.0208792 1e-05
-0.0128381 0.0209267 1e-05
-0.0128256 0.0209414 1e-05
-0.0128131 0.020956 1e-05
-0.0128006 0.0209707 1e-05
-0.0127881 0.0209853 1e-05
-0.0127755 0.021 1e-05
-0.0127474 0.0210328 1e-05
-0.0127193 0.0210655 1e-05
-0.0126911 0.0210981 1e-05
-0.0126629 0.0211308 1e-05
-0.012635 0.0211629 1e-05
-0.0125947 0.0212093 1e-05
-0.0125544 0.0212555 1e-05
[...]
POINT_DATA 12125
 FIELD attributes 2
p 1 12125 float
-0.00776069 -0.00854143 -0.00932177 -0.0101019 -0.0108819 -0.011664 -0.0124494 -0.0132334 -0.0140162 -0.014799 -0.0155816 -0.0163373 -0.0170926 -0.0178476 -0.0186014 -0.0193562 -0.0201057 -0.0208551 -0.0216043 -0.0223534 -0.0231028 -0.0237046 -0.0243061 -0.0249075 -0.0255087 -0.0260054 -0.0261708 -0.0263359 -0.0265011 -0.0266663 -0.0268315 -0.0275712 -0.0283105 -0.0290496 -0.0297885 -0.0305298 -0.0312641 -0.0319981 -0.032731 -0.0334638 -0.034199 -0.0349279 -0.0356566 -0.0363851 -0.0371133 -0.0378436 -0.0382115 -0.0385792 -0.0389469 -0.0393145 -0.0396509 -0.0400146 -0.0403778 -0.040741 -0.0411041 -0.0414677 -0.0421892 -0.0429097 -0.0436297 -0.0443495 -0.0450725 -0.0457906 -0.0465081 -0.0472253 -0.0479422 -0.0486619 -0.0488642 -0.0490664 -0.0492685 -0.0494705 -0.0496644 -0.0501785 -0.0506925 -0.0512064 -0.0517201 -0.052236 -0.0529485 -0.0536607 -0.0543722 -0.0550831 -0.0557984 -0.0562114 -0.0566244 -0.0570373 -0.0574501 -0.0578336 -0.0581371 -0.0584403 -0.0587434 -0.0590465 -0.0593502 -0.0600593 -0.0607677 -0.0614752 -0.0621823 -0.0628941 -0.06329 -0.0636855 -0.0640809 -0.0644761 -0.0648465 -0.0651634 -0.0654803 -0.0657972 -0.066114 -0.066432 -0.0671387 -0.0678449 -0.0685505 -0.0692554 -0.0699661 -0.0701845 -0.070403 -0.0706215 -0.0708399 -0.0710516 -0.0715405 -0.072029 -0.0725172 -0.0730051 -0.0734959 -0.0741391 -0.0747816 -0.0754236 -0.0760652 -0.0766497 -0.0767247 -0.0767998 -0.0768749 -0.07695 -0.0770252 -0.0777303 -0.0784347 -0.0791386 -0.0798418 -0.0805523 -0.0807969 -0.0810415 -0.0812861 -0.0815306 -0.0817674 -0.0822304 -0.0826928 -0.083155 -0.0836168 -0.0840816 -0.0845708 -0.0850594 -0.0855476 -0.0860355 -0.0864935 -0.0867172 -0.0869411 -0.0871649 -0.0873886 -0.0876134 -0.088282 -0.0889501 -0.0896174 -0.0902841 -0.0908979 -0.0909486 -0.0909991 -0.0910496 -0.0911001 -0.0911503 -0.0918581 -0.0925648 -0.0932705 -0.0939754 -0.0946893 -0.0947569 -0.0948243 -0.0948916 -0.094959 -0.0950256 -0.0956668 -0.0963075 -0.0969474 -0.0975865 -0.0982338 -0.0983697 -0.0985058 -0.0986418 -0.0987778 -0.098912 -0.0994859 -0.100059 -0.100631 -0.101203 -0.101781 -0.101942 -0.102103 -0.102264 -0.102424 -0.102582 -0.103132 -0.103681 -0.10423 -0.104778 -0.105333 -0.105479 -0.105625 -0.105772 -0.105918 -0.106063 -0.106627 -0.107191 -0.107754 -0.108316 -0.108886 -0.108983 -0.10908 -0.109177 -0.109274 -0.10937 -0.109984 -0.110598 -0.11121 -0.111821 -0.112442 -0.112458 -0.112475 -0.112492 -0.112508 -0.112525 -0.113137 -0.113747 -0.114356 -0.114964 -0.115536 -0.115628 -0.115719 -0.11581 -0.115901 -0.115993 -0.116482 -0.116972 -0.11746 -0.117948 -0.118414 -0.118639 -0.118865 -0.119089 -0.119314 -0.11954 -0.119868 -0.120195 -0.120521 -0.120848 -0.121163 -0.121546 -0.121929 -0.122311 -0.122693 -0.123079 -0.123222 -0.123366 -0.12351 -0.123654 -0.123796 -0.124307 -0.124818 -0.125327 -0.125835 -0.126321 -0.126377 -0.126434 -0.12649 -0.126547 -0.126604 -0.127037 -0.127469 -0.127901 -0.128332 -0.128746 -0.129018 -0.129289 -0.12956 -0.129831 -0.130103 -0.130296 -0.130489 -0.130682 -0.130874 -0.131064 -0.131513 -0.131962 -0.13241 -0.132857 -0.133288 -0.133345 -0.133403 -0.13346 -0.133517 -0.133575 -0.133949 -0.134322 -0.134694 -0.135066 -0.135425 -0.13574 -0.136054 -0.136368 -0.136681 -0.136998 -0.137091 -0.137184 -0.137278 -0.137371 -0.137465 -0.137861 -0.138256 -0.138651 -0.139045 -0.139427 -0.139613 -0.1398 -0.139987 -0.140174 -0.140363 -0.140551 -0.14074 -0.140928 -0.141116 -0.141301 -0.141663 -0.142024 -0.142383 -0.142743 -0.143091 -0.143203 -0.143315 -0.143427 -0.143539 -0.143651 -0.143883 -0.144116 -0.144348 -0.144579 -0.144808 -0.145136 -0.145464 -0.145791 -0.146117 -0.146436 -0.146516 -0.146597 -0.146678 -0.146759 -0.146842 -0.147075 -0.147308 -0.147541 -0.147773 -0.148 -0.148298 -0.148595 -0.14889 -0.149186 -0.149474 -0.14956 -0.149646 -0.149731 -0.149817 -0.149903 -0.150099 -0.150297 -0.150493 -0.15069 -0.150885 -0.151151 -0.151417 -0.151683 -0.151949 -0.15221 -0.152327 -0.152445 -0.152563 -0.152681 -0.152801 -0.152935 -0.153069 -0.153202 -0.153335 -0.153467 -0.153706 -0.153942 -0.15418 -0.154418 -0.154648 -0.154818 -0.154986 -0.155155 -0.155323 -0.155492 -0.155541 -0.155592 -0.155643 -0.155694 -0.155747 -0.155955 -0.156165 -0.156375 -0.156583 -0.156788 -0.156977 -0.157167 -0.157357 -0.157546 -0.157735 -0.15777 -0.157806 -0.157842 -0.157878 -0.157915 -0.158061 -0.158204 -0.158347 -0.158489 -0.158627 -0.158789 -0.158951 -0.159113 -0.159277 -0.159438 -0.159554 -0.159668 -0.159781 -0.159894 -0.160006 -0.160036 -0.160066 -0.160097 -0.160128 -0.160159 -0.16029 -0.160426 -0.160562 -0.160696 -0.160831 -0.160945 -0.161059 -0.161172 -0.161287 -0.161403 -0.161453 -0.161506 -0.161559 -0.161611 -0.161667 -0.161715 -0.161763 -0.161811 -0.161859 -0.161906 -0.161994 -0.162082 -0.162171 -0.16226 -0.162344 -0.162412 -0.16248 -0.162548 -0.162615 -0.162685 -0.162712 -0.162736 -0.162759 -0.162783 -0.162804 -0.162833 -0.162864 -0.162894 -0.162924 -0.162955 -0.162988 -0.163029 -0.16307 -0.163111 -0.163155 -0.163172 -0.16319 -0.163208 -0.163227 -0.16325 -0.163248 -0.163249 -0.16325 -0.16325 -0.163254 -0.163258 -0.163262 -0.163266 -0.16327 -0.163275 -0.163265 -0.163259 -0.163252 -0.163244 -0.163234 -0.163204 -0.163173 -0.163142 -0.163118 -0.163094 -0.163053 -0.163009 -0.162964 -0.162919 -0.162871 -0.162866 -0.162862 -0.162858 -0.162855 -0.162851 -0.16279 -0.162733 -0.162675 -0.162617 -0.162562 -0.162478 -0.162393 -0.162315 -0.162238 -0.162162 -0.162058 -0.161956 -0.161854 -0.161752 -0.161662 -0.161607 -0.161552 -0.161496 -0.161441 -0.161386 -0.161329 -0.161268 -0.161208 -0.161148 -0.161085 -0.160946 -0.160819 -0.160692 -0.160564 -0.160437 -0.160284 -0.160126 -0.159971 -0.159824 -0.159674 -0.1595 -0.159327 -0.159153 -0.158978 -0.15881 -0.158764 -0.158715 -0.158665 -0.158615 -0.158563 -0.158425 -0.158287 -0.158148 -0.158009 -0.15787 -0.157651 -0.157445 -0.157242 -0.157039 -0.15684 -0.156606 -0.15637 -0.156135 -0.155912 -0.155689 -0.155434 -0.155182 -0.154929 -0.154675 -0.154435 -0.154347 -0.154259 -0.154171 -0.154082 -0.153992 -0.153817 -0.153639 -0.15346 -0.153282 -0.153101 -0.152802 -0.152521 -0.15224 -0.151959 -0.151682 -0.151369 -0.151052 -0.150742 -0.150442 -0.15014 -0.149803 -0.14947 -0.149136 -0.148802 -0.148489 -0.148248 -0.148004 -0.14776 -0.147515 -0.147266 -0.147162 -0.147055 -0.146947 -0.14684 -0.146729 -0.146352 -0.145986 -0.14562 -0.145253 -0.144891 -0.144488 -0.144086 -0.143699 -0.143313 -0.142924 -0.142498 -0.142074 -0.14165 -0.141243 -0.140844 -0.140405 -0.139961 -0.139516 -0.139071 -0.138634 -0.138453 -0.138273 -0.138094 -0.137914 -0.137736 -0.137452 -0.137173 -0.136895 -0.136616 -0.136344 -0.135849 -0.135371 -0.134893 -0.134414 -0.133935 -0.133409 -0.13289 -0.132395 -0.1319 -0.131414 -0.130874 -0.130332 -0.129789 -0.129265 -0.128749 -0.128184 -0.127626 -0.127068 -0.12651 -0.125975 -0.125714 -0.12545 -0.125186 -0.124922 -0.124655 -0.124347 -0.12403 -0.123713 -0.123396 -0.123072 -0.122457 -0.121862 -0.121266 -0.120671 -0.120079 -0.119437 -0.118794 -0.118175 -0.117556 -0.11693 -0.116263 -0.115597 -0.114934 -0.1143 -0.113669 -0.112989 -0.112299 -0.111609 -0.110918 -0.110254 -0.1096 -0.108947 -0.108293 -0.10764 -0.106982 -0.106927 -0.106873 -0.106818 -0.106764 -0.106721 -0.105995 -0.105269 -0.104543 -0.103816 -0.103089 -0.102293 -0.101539 -0.100791 -0.100042 -0.0993029 -0.0985019 -0.0976978 -0.0969268 -0.0961622 -0.0953967 -0.0945587 -0.0937275 -0.092896 -0.0920985 -0.0913174 -0.0904792 -0.0896381 -0.0887968 -0.0879552 -0.0871477 -0.0864088 -0.0856753 -0.0849415 -0.0842077 -0.0834758 -0.0833399 -0.0832039 -0.0830681 -0.0829324 -0.0827969 -0.0819086 -0.0810199 -0.080131 -0.079242 -0.078347 -0.0773803 -0.0764577 -0.0755404 -0.0746231 -0.073707 -0.0727316 -0.0717501 -0.0708161 -0.069885 -0.0689484 -0.0679419 -0.0669356 -0.0659297 -0.0649752 -0.064021 -0.0630025 -0.061979 -0.0609555 -0.0599364 -0.0589601 -0.0579128 -0.056866 -0.0558194 -0.0547729 -0.053734 -0.0535432 -0.0533478 -0.0531524 -0.0529551 -0.0527574 -0.0518827 -0.0510034 -0.0501242 -0.0492452 -0.0483595 -0.0472169 -0.0461187 -0.045021 -0.0439236 -0.042821 -0.0416469 -0.0404893 -0.039372 -0.0382553 -0.0371267 -0.0359262 -0.034725 -0.0335518 -0.0324144 -0.0312667 -0.0300515 -0.0288313 -0.0276121 -0.0264265 -0.0252539 -0.0240139 -0.0227731 -0.0215335 -0.0202953 -0.0190777 -0.0182842 -0.0174848 -0.0166861 -0.015888 -0.0151011 -0.0146293 -0.0141538 -0.0136785 -0.0132035 -0.0127218 -0.0113933 -0.0100922 -0.00879294 -0.00749544 -0.00617415 -0.00478365 -0.00343921 -0.00212024 -0.000803373 0.000547387 0.00196396 0.00337756 0.00474142 0.00607852 0.0074517 0.00888853 0.0103264 0.011761 0.01315 0.014558 0.0160243 0.0174871 0.0189461 0.0204013 0.0218742 0.0225214 0.023173 0.0238237 0.0244736 0.0251112 0.025978 0.0268516 0.0277238 0.0285947 0.0294946 0.0311081 0.0326665 0.0342202 0.0357692 0.0373957 0.0390771 0.0407579 0.0423591 0.0439551 0.0456461 0.0473719 0.0490935 0.0508086 0.0524673 0.0542002 0.0559416 0.0576841 0.0594196 0.061148 0.0629816 0.063192 0.0634024 0.0636127 0.0638229 0.0640316 0.0655881 0.0671373 0.0686813 0.07022 0.0718514 0.0736366 0.0753784 0.0770802 0.0787756 0.0806045 0.082496 0.0843851 0.0862657 0.0880861 0.0900354 0.0920573 0.0940896 0.0961126 0.0981266 0.100074 0.100366 0.100668 0.100976 0.101283 0.101616 0.104253 0.106853 0.109439 0.112012 0.114808 0.117052 0.119267 0.121438 0.123556 0.125921 0.127181 0.128447 0.129712 0.130977 0.132219 0.134483 0.136753 0.139021 0.141287 0.143839 0.145577 0.147321 0.149063 0.150803 0.152509 0.155075 0.157647 0.160216 0.162782 0.165689 0.167391 0.169098 0.170804 0.172508 0.174193 0.177732 0.181273 0.184808 0.188336 0.192391 0.193335 0.194277 0.19522 0.196161 0.197096 0.20188 0.206654 0.211419 0.216151 0.220744 0.221386 0.222026 0.222666 0.223306 0.223957 0.228121 0.23228 0.236433 0.24058 0.244654 0.247868 0.251078 0.254285 0.257489 0.261041 0.262703 0.264366 0.266028 0.267689 0.269344 0.274448 0.279547 0.284606 0.289633 0.294584 0.296777 0.298968 0.301157 0.303345 0.305695 0.308619 0.311541 0.314461 0.317378 0.320275 0.325479 0.330674 0.335849 0.340968 0.346021 0.348734 0.351438 0.35414 0.356839 0.359827 0.362091 0.364345 0.366597 0.368848 0.37108 0.375806 0.380499 0.385168 0.38983 0.39443 0.398602 0.402743 0.406876 0.410999 0.415067 0.416051 0.417008 0.417964 0.41892 0.419924 0.422272 0.424589 0.426902 0.429211 0.43148 0.433707 0.435948 0.438221 0.440488 0.442702 0.44375 0.444753 0.445755 0.446893 0.447984 0.447784 0.447538 0.447286 0.447028 0.446906 0.44548 0.444012 0.44254 0.441064 0.439574 0.4392 0.438791 0.438372 0.43795 0.437487 0.435329 0.433134 0.43094 0.428746 0.426519 0.422906 0.419374 0.415844 0.412317 0.408763 0.40438 0.400137 0.395897 0.39166 0.387399 0.382599 0.377883 0.373173 0.368465 0.363739 0.358931 0.354053 0.349169 0.344287 0.339392 0.335058 0.330453 0.325806 0.321161 0.316511 0.313293 0.309527 0.305702 0.301877 0.298058 0.296668 0.294448 0.292212 0.289976 0.287755 0.288344 0.288169 0.287993 0.287815 0.287624 0.288756 0.289598 0.290437 0.291274 0.291992 0.289178 0.286799 0.28442 0.282039 0.2793 0.266513 0.25473 0.242951 0.231177 0.218813 0.19529 0.172545 0.14981 0.127083 0.103792 0.103431 0.103061 0.10269 0.10232 0.101948 0.0726118 0.0428399 0.0130672 -0.0167063 -0.045512 -0.0916873 -0.13896 -0.186255 -0.233571 -0.280397 -0.363611 -0.448145 -0.53272 -0.617334 -0.704166 -0.777953 -0.850067 -0.922204 -0.994362 -1.06821 -1.10019 -1.13194 -1.16368 -1.19542 -1.23023 -1.24366 -1.2566 -1.26953 -1.28247 -1.29627