/*--------------------------------*- C++ -*----------------------------------*\
  =========                 |
  \\      /  F ield         | OpenFOAM: The Open Source CFD Toolbox
   \\    /   O peration     | Website:  https://openfoam.org
    \\  /    A nd           | Version:  6
     \\/     M anipulation  |
\*---------------------------------------------------------------------------*/
FoamFile
{
    version     2.0;
    format      ascii;
    class       volScalarField;
    location    "14";
    object      epsilon;
}
// * * * * * * * * * * * * * * * * * * * * * * * * * * * * * * * * * * * * * //

dimensions      [0 2 -3 0 0 0 0];

internalField   nonuniform List<scalar> 
10000
(
247.732
332.831
195.617
115.014
73.9708
52.9483
41.7929
35.5332
32.1134
30.6282
30.729
32.4154
36.063
42.6625
54.3667
75.6689
115.524
191.696
324.808
248.368
246.283
331.907
195.916
114.645
73.411
52.5143
41.6208
35.3894
31.9571
30.4581
30.6737
32.3769
35.9948
42.5392
54.18
75.4225
114.055
189.23
322.455
247.508
246.275
333.12
196.297
112.871
74.5042
52.9906
41.9561
35.6287
32.1604
30.6297
30.6725
32.3614
35.8824
42.1713
53.7391
75.3635
114.6
190.595
325.149
247.218
245.95
332.532
196.639
115.131
74.9348
53.3866
42.0685
35.6807
32.1931
30.6334
30.7063
32.3751
35.9688
42.5614
54.0062
74.7119
114.717
191.804
327.086
246.503
245.65
330.193
196.642
116.792
75.0728
53.0941
42.0755
35.6818
32.1703
30.4863
30.532
32.2127
36.1271
42.9153
54.4583
75.1192
115.735
194.681
327.151
246.002
245.761
332.917
196.67
116.563
75.0932
53.7339
42.1986
35.6967
32.1643
30.5042
30.674
32.3371
35.9859
42.8394
54.0541
75.2205
117.165
194.61
326.593
246.744
245.828
329.952
196.095
115.984
74.9015
53.7065
42.1988
35.5555
32.0391
30.5002
30.6585
32.2263
36.1392
42.8887
54.378
75.5025
116.763
194.195
324.918
248.242
245.563
333.518
195.433
114.151
74.6507
53.6458
42.217
35.7492
32.1955
30.6073
30.6665
32.4046
36.1379
42.7086
54.7788
76.1336
116.599
193.82
324.899
249.369
244.489
332.67
194.019
115.12
74.0508
53.5262
42.1874
35.7384
32.0861
30.4539
30.4673
32.225
35.9328
42.8573
54.3958
75.3055
114.672
191.697
327.141
249.971
242.687
332.3
192.293
116.436
74.6145
53.4905
42.1341
35.7205
32.2032
30.6773
30.6923
32.4314
36.0305
42.7104
55.0086
76.3842
115.889
195.053
327.616
252.001
245.411
329.608
193.006
116.552
73.872
52.9959
42.0415
35.6442
32.0251
30.6228
30.7357
32.4552
36.1587
42.8007
54.9237
75.5721
115.971
195.091
329.042
254.896
245.892
330.413
193.884
116.54
74.4733
53.3721
42.0837
35.5486
32.0163
30.4464
30.5196
32.3584
35.9772
42.9948
54.9899
76.3992
117.156
194.441
327.297
256.267
245.555
332.08
190.516
116.193
75.2732
53.8144
42.1455
35.7178
32.1083
30.5259
30.5383
32.2504
36.1226
42.9603
54.8305
75.2485
114.848
191.232
329.93
255.372
244.662
332.12
193.299
115.966
75.2447
53.8508
42.141
35.729
32.2337
30.648
30.5746
32.318
36.0415
42.6563
54.8381
76.3634
117.187
194.62
329.491
253.074
247.154
329.84
195.155
114.313
75.0352
53.8388
41.9318
35.6717
32.2236
30.6764
30.6852
32.1897
35.8677
42.8118
54.6723
75.9243
115.167
191.347
328.177
252.674
247.073
331.633
193.235
115.314
75.044
53.9248
42.2587
35.5675
32.0779
30.6458
30.7023
32.3655
36.0329
42.7567
54.5161
75.2496
116.697
193.473
325.489
250.071
247.359
329.743
196.052
116.591
75.3756
53.9241
42.2788
35.7317
32.2206
30.6594
30.5627
32.2939
35.7514
42.361
54.0759
76.1212
115.248
190.983
327.683
248.826
246.958
332.333
195.856
116.056
75.1697
53.8487
42.2437
35.6578
32.1543
30.6512
30.6911
32.329
35.824
42.5827
54.4674
76.1776
117.765
194.152
327.123
246.636
246.045
329.355
195.036
114.168
74.9051
53.7404
42.1889
35.4163
31.9742
30.6039
30.6867
32.3264
35.8173
42.3806
53.9197
75.2233
117.706
193.427
326.165
245.394
245.518
331.544
194.784
115.173
74.4759
53.4485
42.2175
35.5709
32.0641
30.5834
30.665
32.321
35.9805
42.7348
54.6583
76.5264
117.78
190.928
323.632
245.019
246.932
330.907
192.491
116.475
75.4998
53.9641
42.3221
35.7589
32.1979
30.5003
30.6391
32.2678
35.7969
42.7113
54.5524
76.3477
117.91
193.607
325.055
244.933
246.599
327.876
195.052
116.525
75.5202
53.9571
42.3249
35.8154
32.2451
30.642
30.6202
32.1369
36.0083
42.6862
54.0485
75.5021
117.822
191.316
326.475
244.526
245.384
329.285
194.803
116.027
75.4329
53.8802
42.2786
35.788
32.2242
30.6221
30.6043
32.1909
36.0088
42.7363
54.6799
76.7881
118.12
193.406
326.121
246.114
245.719
331.111
194.403
114.334
75.2235
53.7405
42.2436
35.7752
32.2141
30.6039
30.485
32.2769
35.9724
42.5913
54.0502
76.4766
118.022
195.718
324.091
247.976
245.783
331.091
191.744
116.228
75.2267
53.2602
41.9895
35.6049
32.0698
30.5822
30.6159
32.2718
35.9053
42.3313
54.0816
75.5545
116.266
195.81
326.732
249.138
247.11
331.652
195.662
115.333
74.6663
53.3528
42.2357
35.825
32.2278
30.57
30.4653
32.0592
35.6937
42.3698
54.3273
76.6971
118.354
195.722
325.195
249.541
245.679
331.352
195.069
117.464
75.9803
53.6192
42.2649
35.8627
32.2327
30.4568
30.5496
32.136
35.7523
42.3584
54.2224
76.5321
118.229
195.663
328.964
248.964
246.901
331.023
191.965
117.36
76.1304
53.9273
42.0998
35.8405
32.1694
30.5723
30.5033
32.2363
35.8565
42.5221
54.6478
76.2413
117.794
194.803
329.099
252.089
246.896
330.793
195.828
117.434
76.2068
53.4898
42.2029
36.0261
32.3932
30.5454
30.7173
32.206
36.0367
42.7219
54.5977
74.9644
117.407
191.985
328.469
251.949
248.373
330.183
193.687
116.933
76.3772
54.2118
42.4904
36.131
32.4887
30.7414
30.8156
32.4349
36.0727
42.5049
54.6557
75.7835
117.414
195.843
326.402
251.331
249.305
328.21
196.862
117.518
76.6068
54.7371
42.8438
36.2352
32.5622
30.891
30.8466
32.4286
36.0829
42.8201
54.6721
75.3252
115.45
195.663
329.425
248.922
251.731
331.317
197.046
117.973
76.6473
54.7011
42.6452
36.2124
32.5569
30.8829
30.8078
32.3948
36.0198
42.5396
54.6357
75.7988
117.858
195.455
329.358
250.477
253.885
329.108
196.462
117.554
76.6025
54.3683
42.864
36.2598
32.5659
30.8593
30.6464
32.1882
35.8122
42.6664
54.5846
75.8412
117.462
194.823
328.722
249.76
254.287
332.423
196.317
115.875
76.4625
54.7936
42.916
36.2361
32.5401
30.869
30.8096
32.3888
35.9727
42.3638
54.0553
76.0519
116.77
192.068
328.295
249.379
254.321
330.174
194.228
117.562
76.4823
54.7405
42.867
36.1889
32.3796
30.8145
30.7712
32.3768
35.9696
42.4808
54.0541
75.0234
114.867
195.228
326.209
250.708
256.448
332.916
196.758
116.543
76.2902
54.5961
42.8137
36.1841
32.483
30.7787
30.5741
32.2798
35.7895
42.6562
54.1881
75.4647
115.254
195.089
327.163
249.743
256.538
332.308
196.248
117.927
76.1248
54.1264
42.463
36.098
32.4492
30.7496
30.5786
32.1476
35.9265
42.6841
54.4773
75.8689
115.531
195.088
329.061
249.686
256.179
329.437
193.572
117.549
75.2288
54.4412
42.5705
36.0605
32.3561
30.6484
30.6048
32.1873
35.8119
42.3422
54.283
74.959
116.822
194.645
328.409
249.37
255.406
330.984
195.376
117.337
76.2124
54.4754
42.4595
36.0148
32.2955
30.6001
30.4151
31.9607
35.5869
42.4865
54.1766
75.081
115.038
193.924
327.705
248.197
253.211
328.05
191.957
115.194
75.833
54.3255
42.4385
35.9699
32.3854
30.749
30.6311
32.2283
35.8187
42.2569
53.6726
75.3325
117.162
191.673
324.454
248.168
251.074
328.992
194.938
116.982
75.7516
54.0461
42.5413
35.8136
32.2618
30.6891
30.8202
32.4646
36.0903
42.5152
54.2249
75.7841
117.21
194.251
325.872
246.185
248.992
331.499
194.553
115.376
75.1493
54.2659
42.4564
35.9847
32.4785
30.8925
30.8517
32.3297
36.0803
42.6287
54.7037
75.4228
116.828
193.95
327.237
246.35
248.001
330.72
191.883
116.732
75.0997
54.2114
42.7208
36.1411
32.5112
30.8689
30.8289
32.4287
36.079
42.7952
54.7699
76.2449
115.327
191.418
326.55
246.999
247.064
329.834
193.927
116.749
75.7872
53.8771
42.6217
35.9557
32.3118
30.6627
30.7319
32.2025
35.7552
42.3836
54.6239
76.2624
117.59
194.763
325.319
247.106
248.533
326.732
192.712
116.101
75.6156
54.2282
42.6081
36.0561
32.3965
30.6826
30.6123
32.2537
35.8306
42.5289
54.5005
76.0723
117.22
194.571
328.646
249.451
247.269
327.431
189.279
114.011
74.5737
53.6744
42.4851
35.9793
32.2568
30.6254
30.6595
32.3652
35.8574
42.4211
54.3429
74.8851
115.297
191.609
328.521
249.443
249.408
327.097
191.53
115.538
75.3853
53.8966
42.3055
35.7876
32.2177
30.6079
30.7374
32.414
36.0357
42.5873
54.146
75.6361
117.277
194.274
328.082
246.52
248.766
327.036
193.468
116.582
75.9964
54.0728
42.4413
35.8523
32.2501
30.5891
30.7142
32.4006
36.0012
42.3751
54.6082
76.3221
117.018
193.671
328.116
247.848
248.639
326.387
190.564
115.96
75.8217
54.3828
42.6304
35.9493
32.277
30.6428
30.567
32.3925
36.0536
42.5885
54.5302
76.0716
116.444
192.607
327.74
247.586
249
326.437
193.683
114.46
75.6037
54.3689
42.611
35.7781
32.0522
30.4766
30.5489
32.3773
36.0202
42.4056
53.9769
75.6766
115.715
189.075
327.285
246.072
248.725
326.835
193.177
115.287
75.1807
54.2731
42.5989
35.9651
32.2191
30.6513
30.6157
32.3802
36.0529
42.6721
54.1115
74.7191
114.079
191.392
327.799
248.089
246.617
328.528
190.938
116.511
75.893
54.238
42.5345
35.9522
32.3089
30.5734
30.7106
32.3665
36.0062
42.6414
54.3342
75.0785
114.619
192.431
327.13
248.606
248.707
328.247
193.807
116.415
75.6929
54.078
42.2572
35.7301
32.2951
30.7195
30.7216
32.3213
35.9496
42.5666
54.3005
75.4179
115.036
189.495
323.776
248.273
249.569
326.199
193.028
115.797
75.3922
53.6048
42.2995
35.7068
32.1433
30.6625
30.6631
32.1155
35.6878
42.1941
54.1371
75.0318
113.591
190.063
324.294
247.677
249.481
326.418
192.27
113.972
75.1055
53.8
42.1458
35.6992
32.1852
30.6099
30.6399
32.2349
35.8438
42.3031
54.0561
74.3267
114.989
190.356
323.98
246.061
247.995
325.557
189.709
115.307
74.9769
53.9578
42.3341
35.8049
32.0586
30.4442
30.5314
32.0443
35.7122
42.4545
54.0632
74.5507
113.682
191.575
325.338
245.692
247.89
326.228
190.225
114.959
74.111
53.8034
42.0948
35.7992
32.1818
30.4813
30.5589
32.1913
35.8219
42.4013
54.0243
75.132
114.871
190.822
324.789
244.813
246.647
324.807
190.749
114.648
74.76
53.8167
42.3241
35.8189
32.079
30.4376
30.3674
31.9579
35.5206
41.9556
53.369
74.8292
114.432
188.257
323.883
245.409
245.341
321.567
189.677
113.92
74.4546
53.7049
42.3253
35.8355
32.2208
30.5546
30.4068
31.9981
35.5917
42.0381
53.48
74.4976
113.98
190.068
323.064
246.531
244.855
321.263
188.657
113.273
74.115
53.5144
42.247
35.7949
32.2013
30.5549
30.4307
32.0195
35.6511
42.0335
53.5818
73.4831
112.004
189.409
320.579
246.734
245.275
321.047
187.599
111.394
73.0985
53.2864
42.1624
35.7647
32.1774
30.5594
30.5317
32.1078
35.5241
42.1263
53.5589
74.1492
113.297
188.803
322.28
246.645
244.7
321.828
184.784
111.689
73.3946
52.9052
41.8758
35.6876
32.0174
30.5192
30.5125
32.1135
35.6454
41.8657
53.0507
73.123
111.284
187.67
321.393
246.935
245.49
320.88
184.607
111.095
73.1107
52.926
41.9398
35.7005
32.1531
30.5214
30.3608
31.932
35.5
42.0323
53.2349
73.391
111.795
186.488
319.968
246.536
245.69
319.716
183.546
109.183
72.1923
52.9115
41.9951
35.6693
32.1289
30.5334
30.4796
32.0377
35.5649
41.8942
53.0244
72.9557
109.802
183.298
316.962
245.678
245.615
318.508
183.733
109.052
72.4326
52.6387
41.7812
35.4555
32.1173
30.4974
30.4466
31.9909
35.51
41.8281
52.7826
72.1777
110.393
184.758
319.439
246.769
245.119
317.329
182.59
109.198
72.2142
52.837
41.9792
35.5827
32.0195
30.4468
30.2589
31.7874
35.4141
41.6988
52.6049
71.9636
108.452
181.439
315.864
246.535
244.709
315.889
181.06
108.317
71.7531
52.641
41.7965
35.6767
32.1048
30.4254
30.3314
31.8682
35.3501
41.5278
52.1254
71.532
107.9
180.834
316.14
245.073
243.439
314.329
177.614
106.196
71.2283
52.2474
41.7247
35.605
32.0457
30.3539
30.1239
31.6343
35.0825
41.226
51.9548
70.8974
107.257
180.145
316.545
245.417
242.802
312.818
176.854
106.287
70.9507
52.3001
41.6425
35.387
31.9286
30.2828
30.2103
31.7092
35.0685
41.1998
51.6086
70.2631
106.139
178.22
314.897
244.404
241.944
308.727
174.463
104.569
70.0459
51.8572
41.4896
35.3196
31.8294
30.1789
30.0878
31.5745
34.8791
40.9218
51.2947
69.6356
104.464
175.269
312.941
243.087
241.057
307.776
172.242
103.248
69.5942
51.6455
41.3985
35.239
31.6681
29.8696
29.9229
31.4315
34.6932
40.7502
51.0681
69.209
103.466
173.234
311.143
242.512
239.488
305.779
170.214
102.219
69.0003
51.3145
41.1003
35.0737
31.5258
29.7232
29.6576
31.1446
34.509
40.5224
50.7244
68.5856
102.308
171.468
309.072
240.975
238.161
303.677
168.053
101.06
68.4202
50.9798
40.8435
34.7182
31.1822
29.5224
29.4622
30.9843
34.3748
40.3735
50.4876
68.1326
101.259
169.077
304.818
239.808
236.285
301.168
166.202
99.8759
67.7838
50.5412
40.4776
34.4259
30.9428
29.3564
29.3038
30.822
34.2005
40.1588
50.1754
67.5624
100.134
167.217
302.683
237.471
234.797
298.439
163.961
98.6218
67.092
50.1565
40.2047
34.2063
30.7318
29.1295
29.0979
30.703
34.0802
39.9276
49.8035
66.8716
98.7139
164.54
298.365
236.554
233.123
295.501
161.623
97.2082
66.2797
49.6525
39.8741
33.929
30.4971
28.9165
28.8839
30.472
33.8358
39.6374
49.3554
66.0762
97.2027
162.058
295.777
235.038
230.666
292.703
158.678
95.4852
65.3887
49.1341
39.526
33.6632
30.2528
28.6573
28.6104
30.1408
33.4811
39.251
48.8247
65.1774
95.4344
158.802
292.156
233.01
228.585
288.366
155.231
93.5943
64.4017
48.5386
39.1036
33.3237
29.9418
28.3543
28.3278
29.8531
33.1463
38.8194
48.1895
64.0932
93.3658
155.059
288.091
230.932
225.535
282.208
151.01
91.3738
63.2292
47.8464
38.6286
32.9473
29.6132
28.0498
28.0215
29.5206
32.7622
38.3216
47.4541
62.8502
91.084
150.774
282.683
226.78
221.452
276.977
146.707
89.0846
61.9436
47.0496
38.0653
32.4938
29.2206
27.6899
27.6523
29.1047
32.2679
37.7045
46.5996
61.4587
88.4013
145.564
275.188
221.264
216.482
268.289
141.378
86.3179
60.4744
46.1135
37.3844
31.9701
28.7867
27.2926
27.2484
28.6483
31.7184
37.0044
45.6343
59.9073
85.432
139.714
265.752
213.87
210.61
258.97
135.527
83.3084
58.8253
45.0432
36.5959
31.3449
28.2628
26.8166
26.7734
28.1277
31.0947
36.1862
44.4546
58.003
81.9126
132.796
254.126
203.835
204.612
247.232
129.168
80.0735
56.9865
43.7654
35.6329
30.5929
27.6351
26.2439
26.1966
27.4903
30.3419
35.2398
43.154
55.9554
78.2022
125.655
241.171
193.506
197.808
233.816
122.336
76.5992
54.8485
42.2507
34.4928
29.6958
26.8829
25.5609
25.5182
26.7537
29.4829
34.1748
41.7308
53.8151
74.4597
118.45
227.847
186.573
188.263
217.539
114.68
72.8691
52.4945
40.5779
33.2119
28.6513
25.9858
24.7371
24.7026
25.8824
28.4917
32.9943
40.2439
51.7092
70.7882
111.345
214.181
182.705
180.321
201.338
107.204
69.2312
50.0942
38.7434
31.7355
27.4289
24.9281
23.7626
23.737
24.8539
27.3264
31.6147
38.5603
49.5156
67.357
104.726
199.97
180.381
179.365
186.185
99.7425
65.2872
47.3035
36.6222
30.0671
26.0571
23.7381
22.6624
22.6472
23.6986
26.0269
30.0922
36.7454
47.3825
64.5036
98.4828
186.258
184.484
187.046
172.25
93.1812
61.3466
44.4058
34.3963
28.2922
24.5838
22.4514
21.4664
21.4597
22.4401
24.6062
28.407
34.6967
44.9291
61.4785
92.2391
172.781
186.916
191.691
159.547
86.9571
57.4836
41.5355
32.1314
26.4681
23.06
21.1127
20.2223
20.2236
21.1243
23.1103
26.6186
32.5065
42.359
58.8238
88.2213
162.336
197.441
206.781
151.079
82.818
54.3067
38.8272
29.9397
24.6909
21.5677
19.7979
18.9956
19.0021
19.8212
21.6212
24.8112
30.2217
39.515
55.9131
85.344
154.129
210.895
221.993
144.538
79.2984
51.0795
36.1663
27.823
22.9946
20.1614
18.5707
17.8564
17.8652
18.6008
20.218
23.097
28.0031
36.4742
51.6166
80.9389
145.62
223.72
239.31
141.333
76.9951
48.3523
33.7779
25.9204
21.4839
18.9249
17.508
16.8774
16.8852
17.5352
18.9761
21.5741
26.0735
34.0241
48.6517
76.9896
141.723
242.977
264.534
139.608
74.3801
45.5048
31.4962
24.1929
20.1635
17.8847
16.6423
16.094
16.0983
16.6579
17.9136
20.2131
24.27
31.6067
45.6152
74.3176
139.598
263.459
288.453
138.756
71.1304
42.6297
29.364
22.6436
19.0283
17.0349
15.9714
15.5083
15.51
15.9782
17.0478
19.052
22.6882
29.4614
42.8516
71.4719
139.047
288.825
315.572
138.712
68.6502
40.0748
27.3718
21.2122
18.0306
16.3417
15.4703
15.0981
15.0983
15.471
16.3425
18.0307
21.2106
27.3684
40.0862
68.7628
138.89
315.83
346.103
138.748
65.1838
36.857
25.117
19.7344
17.0911
15.758
15.1033
14.8379
14.8381
15.1038
15.7591
17.093
19.7396
25.1294
36.8888
65.2614
138.937
345.807
372.648
136.325
59.7685
32.8726
22.6294
18.2408
16.2264
15.2848
14.8659
14.7143
14.7144
14.866
15.2849
16.2263
18.2412
22.6322
32.8967
59.8853
136.663
373.486
403.148
128.832
51.5129
27.9248
19.9019
16.7578
15.4633
14.9455
14.7494
14.6752
14.6755
14.7503
14.9473
15.4637
16.7584
19.8969
27.9131
51.4691
128.68
402.737
431.973
107.691
38.7149
22.0145
17.1445
15.5692
15.0174
14.8213
14.7322
14.7002
14.7002
14.7323
14.8207
15.0151
15.5687
17.1534
22.0396
38.806
108.033
432.861
466.793
57.5436
21.6751
16.1851
15.1184
14.8807
14.8315
14.8019
14.7958
14.796
14.796
14.7957
14.8018
14.8309
14.8794
15.1147
16.1772
21.6534
57.4769
466.556
683.678
886.259
500.447
278.162
163.051
103.74
71.549
53.7912
44.2012
39.9176
39.77
43.8245
53.2108
71.3482
104.164
167.102
282.572
501.94
886.423
669.215
683.928
879.477
487.835
272.61
160.737
103.382
71.2615
53.535
43.958
39.682
39.5437
43.6234
52.9053
71.0863
102.56
166.62
280.591
496.205
869.922
671.746
687.84
863.671
496.181
277.192
162.781
103.268
71.0181
53.3457
43.7997
39.5351
39.4362
43.5859
52.4163
71.139
103.397
166.215
273.967
480.76
884.939
667.241
679.034
876.883
504.516
280.878
164.343
102.041
69.8906
52.4561
43.0365
38.8401
39.1455
43.6197
53.0283
71.165
104.264
166.325
283.242
499.272
881.233
666.319
679.764
887.785
493.901
278.612
163.708
102.286
70.267
53.0033
43.7777
39.6604
39.6234
43.6771
52.8396
70.9475
103.588
165.548
280.276
512.285
865.416
668.585
680.076
870.986
509.728
272.762
161.254
102.092
70.6866
52.4131
43.7142
39.6958
39.6762
43.6515
52.1367
70.6284
101.54
162.626
278.902
511.158
870.407
670.968
687.586
884.416
508.922
273.825
163.483
102.784
71.1207
53.1206
43.6531
39.6879
39.658
43.7821
53.1167
70.6463
102.825
166.33
284.873
510.551
874.998
667.792
681.357
895.323
507.001
274.842
163.146
103.823
71.0041
52.3087
43.4092
39.6749
39.6604
43.702
52.9274
69.7785
103.378
165.626
282.428
506.648
886.988
667.832
681.193
890.381
501.935
278.381
160.827
103.601
70.7592
52.7179
42.7539
39.5579
39.5465
43.6138
52.8266
69.837
101.705
164.757
279.689
490.439
870.301
667.871
684.346
882.77
487.291
271.448
163.494
103.595
69.9716
51.9757
43.5293
39.6126
39.4595
43.4164
52.1608
70.303
102.988
164.078
273.375
503.844
886.842
666.017
675.782
873.559
499.363
280.233
163.608
103.492
71.1877
52.8689
43.3296
39.004
38.7342
43.2038
52.6988
69.4018
101.192
163.404
274.025
490.92
878.448
663.516
675.148
865.632
485.641
278.594
162.693
102.119
70.9369
53.4261
43.6685
39.6751
39.427
42.6831
52.6252
70.4175
101.742
162.873
273.976
501.232
858.323
664.05
678.902
880.303
494.658
278.229
160.127
103.185
70.2251
53.5718
43.9327
39.5742
39.4499
43.1716
51.8928
69.6369
101.726
160.47
275.198
490.239
880.753
666.458
667.657
863.223
501.937
273.646
162.619
103.868
71.4064
53.027
43.0987
38.6945
39.1911
42.5309
52.0371
70.4929
103.037
163.59
279.865
502.543
896.403
661.988
668.003
878.507
500.103
280.493
160.456
102.704
71.91
53.5533
43.5389
39.033
39.2452
42.8787
52.2221
70.3216
102.652
162.836
277.979
487.417
891.73
660.51
664.292
859.832
494.085
279.658
162.279
103.792
71.5144
54.0002
43.9149
39.3611
39.2133
43.3401
52.8097
70.0815
102.173
161.992
273.627
496.793
888.023
652.269
665.173
886.897
479.545
277.987
164.2
104.92
72.2987
53.9601
43.3028
38.6642
38.9867
43.2191
52.7884
69.1218
100.591
159.713
282.147
506.435
871.707
652.531
664.869
883.422
495.422
274.392
161.541
104.569
72.0821
53.9573
44.1601
39.5364
38.7847
42.5762
52.8173
70.1288
102.543
164.535
281.445
505.319
890.458
653.224
665.219
865.336
507.944
283.304
165.701
103.888
71.0715
53.0544
43.9512
39.1661
38.0025
43.418
52.8893
69.0709
100.547
163.8
279.312
500.068
885.763
654.412
667.373
884.297
505.535
281.521
165.018
105.183
71.7365
53.5068
43.9361
39.6994
38.9317
43.6021
52.9676
69.7383
101.079
163.225
277.37
485.467
877.929
655.24
670.476
867.65
501.786
279.427
162.833
104.915
72.2574
53.83
43.2334
39.6466
39.4695
43.4991
52.9732
70.4129
100.806
162.471
272.214
499.206
856.854
660.975
666.992
879.544
489.326
272.586
165.104
104.722
72.1379
53.7518
43.6566
39.6594
38.8681
42.7233
52.7435
70.3872
101.06
162.253
279.327
491.386
876.843
659.781
668.603
895.14
493.582
276.133
164.976
104.383
71.9072
53.5531
42.7247
39.5845
39.5158
43.3861
52.6597
70.1966
101.585
160.845
278.662
502.51
886.488
660.486
673.054
895.444
491.868
279.375
164.62
102.924
71.6685
53.1548
43.3869
39.6036
39.4539
43.1102
52.3798
69.2262
99.6786
156.705
275.959
497.9
864.963
654.164
669.273
892.485
493.671
273.973
161.854
103.502
71.5481
53.9698
44.024
39.4187
39.2479
43.1323
51.844
70.1112
102.065
160.984
269.93
485.359
874.998
654.745
671.232
890.071
500.419
281.246
164.849
102.604
70.623
53.7925
43.8156
38.5592
38.4338
42.4025
52.4887
70.4414
103.049
163.822
278.737
496.742
887.88
655.045
672.396
871.563
482.082
274.794
164.213
103.672
71.5249
53.7565
43.7914
38.9709
38.9599
42.491
51.7326
69.2686
101.277
161.145
273.017
507.188
872.287
659.929
670.932
902.258
499.714
281.779
163.888
102.19
70.588
53.5181
43.1692
39.2861
38.9127
42.4264
51.9354
69.687
102.02
164.893
281.414
507.814
887.693
657.581
666.032
898.365
508.198
280.573
162.885
102.998
71.1802
53.5549
43.8358
39.2555
38.267
42.3168
51.9637
69.8422
101.495
164.13
280.089
505.514
872.963
655.478
663.993
893.158
494.34
273.565
159.52
101.586
70.8026
52.8213
43.7144
38.8353
38.5654
42.566
52.3901
69.11
101.266
163.165
277.644
503.786
879.585
656.839
662.07
872.633
506.53
280.886
161.594
102.892
70.1548
53.2001
43.6585
39.5228
39.1725
43.1904
52.4215
69.8448
101.052
162.025
275.008
492.817
883.377
658.5
659.181
883.214
505.435
279.898
161.294
102.049
70.4105
53.102
43.0778
39.5263
39.0809
43.1833
51.758
68.9432
100.692
159.28
267.913
505.385
899
660.9
657.884
891.559
502.481
278.478
164
103.563
69.5071
52.9376
44.0811
39.6106
38.8869
43.1689
52.4033
69.4174
101.275
162.859
273.445
501.585
895.894
664.337
657.143
887.349
490.408
271.586
163.341
103.593
69.9675
52.1727
44.0167
39.6622
38.1893
43.1017
52.3452
68.3712
101.987
162.382
263.966
485.309
890.576
665.998
656.648
881.505
507.052
280.577
163.305
103.48
70.5241
52.9192
44.0731
39.792
38.6625
43.0975
52.3417
69.1224
100.854
162.539
274.613
494.812
873.261
662.762
657.588
858.725
503.697
278.596
162.139
103.197
71.1372
53.4483
44.0916
39.8765
39.4514
43.0932
52.2655
69.7593
102.211
160.426
279.017
503.729
899.493
663.934
659.075
884.202
502.068
276.356
158.622
101.809
70.1263
52.5609
43.8837
39.7983
39.3629
42.3552
51.3585
68.6107
101.733
162.814
272.684
491.317
896.157
656.325
662.577
897.246
490.276
269.578
159.62
102.753
70.4331
52.8344
43.8479
39.7409
39.4271
43.1887
52.1254
69.0377
100.586
162.517
279.652
507.598
894.141
659.705
658.583
891.214
492.865
271.345
160.894
102.548
70.4984
52.8539
43.6526
39.6211
38.9088
42.6889
51.5253
68.2617
100.703
161.577
277.494
504.706
888.866
655.811
658.749
875.119
493.229
271.475
159.125
101.291
70.9351
53.3555
43.1156
39.6554
39.6363
43.9666
52.7976
68.9146
100.408
158.579
269.482
501.034
873.105
656.331
657.658
878.513
499.9
275.054
162.013
102.013
70.5568
52.9751
44.0296
39.5896
38.9418
43.9434
52.8268
69.6146
100.688
160.879
274.588
498.455
889.636
662.145
654.453
874.471
496.85
268.298
161.221
102.309
71.6802
53.8646
44.2367
39.2719
39.3403
43.9896
52.1265
68.579
100.568
162.244
278.275
485.93
870.74
659.837
651.613
870.881
485.782
272.588
160.964
103.264
71.6566
53.2553
44.1452
40.1308
39.7399
44.1062
53.062
69.3672
100.915
161.26
277.779
498.34
883.814
660.634
651.776
868.323
492.739
267.285
159.958
102.99
71.6104
53.8362
43.5302
39.51
39.9233
44.0213
52.8775
70.3425
101.685
158.298
275.556
484.256
895.344
661.08
651.564
865.706
482.205
267.896
158.04
102.517
70.9114
53.7164
44.0233
39.7937
39.3047
43.9513
53.2957
69.7297
100.799
159.896
274.411
492.305
894.968
666.67
652.831
865.107
493.403
268.999
160.191
101.762
71.4552
53.4949
43.662
39.1496
39.1855
43.2867
53.5423
71.1421
102.917
161.533
267.918
499.983
880.573
658.824
656.946
869.16
484.595
270.683
158.448
102.284
71.5118
52.89
42.8315
39.1148
39.1335
43.3348
53.33
70.2322
102.581
161.411
271.801
490.571
902.716
659.505
659.897
881.638
493.529
266.446
160.447
103.229
71.6387
53.7445
43.3424
39.0709
39.027
43.2931
53.1373
70.6467
101.186
160.693
275.602
508.118
902.732
658.361
659.98
878.665
490.181
271.438
160.222
103.09
71.5269
53.7188
43.8806
39.0308
38.9956
43.4892
52.3617
69.8192
102.009
157.617
268.379
506.309
900.723
660.472
656.052
872.263
476.705
265.375
157.573
102.728
71.3466
53.6334
43.8346
38.9377
38.9035
43.3781
52.4724
69.9281
101.875
160.315
275.761
504.837
897.513
660.342
660.67
868.095
484.32
269.811
160.162
102.676
71.1746
53.4429
43.7447
38.9644
38.8277
42.7355
52.2697
69.6536
100.44
156.908
273.255
501.262
891.574
659.268
655.327
847.628
471.971
267.738
159.234
102.209
70.8888
53.1972
43.5504
39.1504
38.9823
42.8214
52.4858
69.9361
101.038
157.476
266.08
498.072
885.823
657.497
659.692
860.652
480.701
263.318
158.313
101.844
70.6214
52.9511
43.3557
38.9065
38.5883
42.519
51.7351
69.0595
99.9508
157.574
272.363
494.693
864.823
657.367
657.725
871.969
469.523
263.956
156.549
100.706
70.2294
52.4371
43.0242
38.4705
38.7369
42.7913
52.1852
69.5925
100.717
158.11
270.164
493.012
870.097
658.129
661.214
870.981
473.57
265.755
157.439
101.147
70.0047
51.9157
42.7875
38.0045
38.0328
42.4812
51.3579
68.5656
99.205
156.87
267.473
490.253
871.082
647.502
655.626
866.101
480.451
264.284
156.541
100.662
69.6122
51.7714
42.5903
38.409
38.2852
42.2758
51.4587
68.5627
98.9085
154.014
259.853
486.733
884.427
647.737
658.636
862.064
476.06
257.752
155.274
99.5143
68.6754
51.3752
42.2787
38.0733
37.932
41.9268
51.0692
67.6315
98.7357
154.239
260.225
481.559
867.745
650.76
663.709
842.548
471.551
258.388
154.635
99.5826
68.9637
51.0756
41.3564
37.0474
36.8507
40.8861
50.131
67.3772
98.139
153.208
258.089
471.443
884.772
649.148
661.774
844.765
467.517
258.312
152.53
98.557
68.5788
50.9526
41.0961
36.8053
36.561
40.5727
49.8023
66.9345
96.8399
150.733
258.432
477.487
865.318
647.638
658.253
839.169
456.167
255.857
152.004
98.2581
67.7174
50.4907
40.8273
36.3509
35.8977
40.0355
49.172
66.3835
96.196
149.758
255.816
473.243
871.252
640.774
659.09
838.11
460.624
253.371
150.768
97.6467
67.1791
49.3936
40.2822
35.829
35.4201
39.3138
48.6887
65.5982
95.5243
148.303
249.079
468.235
876.622
630.881
641.927
840.277
449.727
248.924
150.014
97.0977
66.5941
48.8875
39.3527
35.2314
34.9583
38.8376
48.0677
65.0035
94.7955
147.399
247.442
454.545
868.736
628.363
639.622
832.509
448.555
248.349
149.227
96.2835
65.7737
48.2918
38.8876
34.7771
34.5418
38.3129
47.3015
64.3415
94.2097
146.564
244.928
456.943
852.505
628.33
636.898
811.522
439.153
245.598
148.256
95.6689
65.2166
47.6863
38.3315
34.4963
34.0647
37.7828
46.7762
63.6503
93.3709
145.383
242.556
451.868
863.289
628.331
635.375
819.525
437.648
243.559
147.319
94.829
64.4703
47.1003
37.8453
33.8843
33.5491
37.1683
46.1222
62.9085
92.6243
144.232
239.463
445.345
841.17
630.319
632.317
823.666
433.011
240.545
145.958
93.9326
63.8906
46.6192
37.2557
33.3411
32.9349
36.6361
45.4811
62.1445
91.6629
142.921
236.859
440.074
839.986
610.92
633.55
826.831
428.846
238.304
144.845
93.0568
63.0868
46.0078
36.6595
32.583
32.3952
36.0214
44.6935
61.1885
90.5649
141.399
233.404
427.707
834.736
598.68
626.712
819.32
423.482
235.368
143.351
92.0399
62.3458
45.383
36.0996
32.0171
31.8153
35.4037
43.9759
60.3667
89.4957
139.736
230.137
424.641
839.138
597.719
624.901
799.096
417.55
232.344
141.661
90.7839
61.3226
44.5626
35.4561
31.4496
31.2264
34.7611
43.2107
59.3834
88.1863
137.901
226.831
414.193
819.319
593.1
618.034
802.757
407.999
228.893
139.74
89.3845
60.2475
43.7185
34.7973
30.8737
30.6944
34.2149
42.5096
58.3751
86.8836
136.378
224.246
409.596
825.024
587.743
618.523
793.941
401.955
225.05
137.396
87.6177
58.8783
42.7106
34.0903
30.3334
30.234
33.762
41.7309
57.2996
85.5481
134.623
220.892
400.865
799.554
580.205
622.424
770.164
394.042
221.029
134.938
85.8446
57.4984
41.696
33.4001
29.847
29.8818
33.6984
41.0713
56.1759
83.9275
132.553
217.828
395.803
792.361
571.858
607.99
761.166
386.597
216.522
132.148
83.9186
56.1487
40.7662
32.6948
29.2758
29.3631
32.8701
40.3662
55.0765
82.2769
130.268
214.078
387.134
777.033
562.387
597.929
744.806
377.053
211.676
129.22
81.8933
54.7297
39.7096
31.929
28.6916
28.8701
32.3778
39.7106
53.9801
80.5562
127.677
209.49
378.793
760.657
561.035
581.023
729.719
367.574
205.934
125.614
79.5243
53.1659
38.665
31.1811
28.0856
28.2144
31.504
38.9352
52.8026
78.7025
124.887
204.74
370.54
745.803
560.042
556.587
711.678
356.615
200.109
121.821
76.9674
51.5427
37.6298
30.4402
27.451
27.6119
30.7633
37.9441
51.4846
76.6565
121.679
199.383
361.807
728.984
543.799
543.535
693.578
344.515
193.397
117.499
74.2032
49.805
36.4581
29.5603
26.6793
26.8016
29.8672
36.771
49.9524
74.3534
117.935
192.74
350.898
712.447
524.79
528.848
671.03
329.651
185.577
112.45
71.0168
47.8456
35.2052
28.6694
25.9147
25.9932
28.8908
35.5832
48.3392
71.9425
114.054
185.42
339.018
691.051
499.888
506.417
645.323
313.76
177.117
107.004
67.6078
45.7727
33.8949
27.7384
25.1201
25.1568
27.8827
34.2386
46.4988
69.1748
109.884
178.72
326.887
666.564
471.89
485.191
619.623
297.821
167.841
101.117
64.0432
43.6428
32.5714
26.8368
24.4072
24.4721
27.0613
33.0701
44.658
66.2138
105.189
170.936
312.754
641.012
455.568
466.464
590.294
282.284
158.193
94.7833
60.15
41.3593
31.1828
25.8946
23.6448
23.7047
26.113
31.7179
42.581
62.902
100.182
164.646
298.046
610.408
442.496
451.117
559.387
265.768
148
88.4136
56.3977
39.1415
29.8007
24.9457
22.8839
22.9485
25.1728
30.339
40.3557
59.2181
94.4738
158.366
282.548
579.118
429.013
430.058
522.864
248.756
138.126
81.9613
52.4737
36.7872
28.3316
23.9325
22.0637
22.1275
24.1557
28.8586
37.9802
55.1643
87.5818
149.133
265.136
543.291
416.41
405.237
479.572
228.446
125.998
74.8214
48.3219
34.3413
26.8155
22.8972
21.2305
21.2898
23.1078
27.3162
35.466
50.8426
79.8966
134.101
243.326
499.667
395.266
374.643
434.071
207.081
113.707
67.6019
44.1568
31.8507
25.2418
21.8041
20.3432
20.4001
22.0017
25.6924
32.8168
46.276
72.0614
121.871
219.784
453.173
372.899
347.643
386.361
183.667
100.32
60.2284
39.9643
29.339
23.6458
20.6903
19.4391
19.4942
20.8786
24.0636