/*--------------------------------*- C++ -*----------------------------------*\
  =========                 |
  \\      /  F ield         | OpenFOAM: The Open Source CFD Toolbox
   \\    /   O peration     | Website:  https://openfoam.org
    \\  /    A nd           | Version:  6
     \\/     M anipulation  |
\*---------------------------------------------------------------------------*/
FoamFile
{
    version     2.0;
    format      ascii;
    class       volScalarField;
    location    "14";
    object      epsilon;
}
// * * * * * * * * * * * * * * * * * * * * * * * * * * * * * * * * * * * * * //

dimensions      [0 2 -3 0 0 0 0];

internalField   nonuniform List<scalar> 
130000
(
15.5727
15.4073
15.2045
14.9714
14.7121
14.4328
14.1411
13.8453
13.5536
13.2734
13.0112
12.7717
12.5584
12.3729
12.2158
12.0866
11.9838
11.9057
11.85
11.8145
15.5983
15.4346
15.2326
14.9992
14.7389
14.458
14.1644
13.8666
13.573
13.291
13.0271
12.7862
12.5715
12.3851
12.2274
12.098
11.9953
11.9175
11.8622
11.8271
15.6195
15.4572
15.2559
15.0223
14.761
14.4786
14.1831
13.8831
13.5869
13.3025
13.0364
12.7935
12.577
12.3894
12.231
12.1011
11.9984
11.9209
11.8664
11.8316
15.6356
15.4741
15.273
15.0388
14.7761
14.4917
14.1938
13.8913
13.5926
13.3063
13.0386
12.7944
12.5769
12.3886
12.2298
12.0998
11.9973
11.9203
11.8669
11.8329
15.6462
15.4847
15.2828
15.0472
14.7824
14.4959
14.1962
13.892
13.592
13.3046
13.0363
12.7918
12.5745
12.3863
12.2276
12.0978
11.9955
11.9189
11.8658
11.8327
15.6523
15.4898
15.2862
15.0487
14.782
14.4941
14.1933
13.8884
13.5882
13.3006
13.0321
12.7876
12.5706
12.3827
12.2243
12.0949
11.9929
11.9164
11.8631
11.8305
15.6559
15.4915
15.2858
15.0467
14.779
14.49
14.1883
13.8827
13.5822
13.2945
13.0261
12.7819
12.5653
12.378
12.2202
12.0914
11.99
11.9141
11.8615
11.8298
15.6584
15.4922
15.2846
15.0437
14.7745
14.4843
14.1816
13.8755
13.5747
13.2869
13.0188
12.7752
12.5592
12.3725
12.2155
12.0875
11.9869
11.9118
11.86
11.8291
15.6608
15.4927
15.283
15.0401
14.7693
14.4777
14.1741
13.8673
13.5662
13.2786
13.0108
12.7677
12.5525
12.3667
12.2106
12.0834
11.9836
11.9091
11.8578
11.8272
15.6632
15.4929
15.2813
15.0365
14.7639
14.4709
14.1661
13.8587
13.5574
13.2698
13.0025
12.76
12.5456
12.3607
12.2055
12.0793
11.9803
11.9065
11.8554
11.8248
15.6662
15.4935
15.2804
15.0332
14.7587
14.4641
14.1582
13.8501
13.5485
13.261
12.9941
12.7523
12.5387
12.3547
12.2005
12.0752
11.9771
11.904
11.8536
11.8232
15.67
15.4951
15.2796
15.0303
14.7539
14.4578
14.1507
13.8418
13.5398
13.2524
12.9859
12.7447
12.532
12.3489
12.1957
12.0713
11.9741
11.9019
11.8523
11.8227
15.6745
15.4973
15.2792
15.0281
14.7498
14.452
14.1436
13.8339
13.5316
13.2442
12.978
12.7374
12.5255
12.3433
12.191
12.0676
11.9713
11.9
11.8513
11.8225
15.6798
15.5004
15.2801
15.0271
14.7466
14.447
14.1372
13.8266
13.5238
13.2364
12.9704
12.7305
12.5193
12.338
12.1867
12.0643
11.969
11.8988
11.8507
11.8216
15.6858
15.5043
15.2819
15.027
14.7443
14.4427
14.1315
13.8199
13.5165
13.229
12.9633
12.7239
12.5135
12.3331
12.1827
12.0612
11.9668
11.8974
11.8494
11.8206
15.6926
15.5091
15.2844
15.0272
14.7428
14.4392
14.1265
13.8138
13.5099
13.2222
12.9567
12.7178
12.508
12.3284
12.179
12.0584
11.9648
11.896
11.8485
11.8209
15.7004
15.5148
15.2877
15.028
14.742
14.4365
14.1222
13.8084
13.5038
13.2158
12.9505
12.7119
12.5028
12.3241
12.1755
12.0558
11.9632
11.8955
11.8488
11.8214
15.7095
15.5218
15.2922
15.03
14.7416
14.4343
14.1186
13.8037
13.4983
13.21
12.9447
12.7065
12.4979
12.3199
12.1721
12.0533
11.9615
11.8942
11.8491
11.8228
15.7198
15.5299
15.2979
15.033
14.742
14.4335
14.116
13.7997
13.4935
13.2048
12.9394
12.7014
12.4933
12.316
12.169
12.0511
11.9604
11.8939
11.8491
11.8237
15.7314
15.5393
15.3048
15.0373
14.744
14.4334
14.1143
13.7966
13.4893
13.2001
12.9346
12.6968
12.4892
12.3124
12.1662
12.0491
11.9591
11.8932
11.8484
11.8228
15.7442
15.55
15.3129
15.0427
14.7467
14.4337
14.1134
13.7941
13.4859
13.196
12.9303
12.6927
12.4855
12.3093
12.1637
12.0471
11.9574
11.8924
11.848
11.8226
15.7584
15.562
15.3223
15.0494
14.7506
14.4352
14.1129
13.7922
13.483
13.1926
12.9267
12.6892
12.4823
12.3066
12.1617
12.0461
11.9569
11.8924
11.8487
11.8235
15.7738
15.5753
15.3329
15.0571
14.7556
14.4376
14.1129
13.7913
13.481
13.1898
12.9235
12.686
12.4794
12.3043
12.1601
12.0453
11.9565
11.8917
11.848
11.8235
15.7904
15.5898
15.3448
15.0661
14.7617
14.4411
14.1145
13.7915
13.48
13.1878
12.921
12.6834
12.477
12.3023
12.1587
12.0445
11.9559
11.891
11.8472
11.8231
15.8085
15.6057
15.3579
15.0762
14.7689
14.4456
14.1166
13.7919
13.4794
13.1862
12.9188
12.6811
12.4748
12.3005
12.1573
12.0435
11.9557
11.8917
11.8489
11.8251
15.8279
15.6229
15.3723
15.0875
14.7771
14.4509
14.1194
13.7924
13.4788
13.185
12.9172
12.6792
12.473
12.2989
12.156
12.0426
11.9562
11.8935
11.8517
11.8285
15.8488
15.6415
15.3881
15.1001
14.7864
14.4573
14.1231
13.794
13.4788
13.1847
12.9161
12.6778
12.4716
12.2978
12.1555
12.0423
11.9558
11.8935
11.8521
11.8294
15.8711
15.6616
15.4052
15.1139
14.7969
14.4647
14.1279
13.7966
13.4798
13.1849
12.9156
12.6772
12.4713
12.2977
12.1556
12.0423
11.9559
11.8931
11.8517
11.8292
15.8948
15.6831
15.4236
15.129
14.8087
14.4732
14.1336
13.7999
13.4814
13.1855
12.9159
12.6771
12.4709
12.2972
12.1551
12.0418
11.9558
11.8931
11.8516
11.8287
15.9199
15.706
15.4435
15.1455
14.8216
14.4828
14.1401
13.804
13.4834
13.1858
12.9157
12.6768
12.4701
12.2964
12.1542
12.0412
11.9552
11.893
11.8519
11.8293
15.9465
15.7305
15.465
15.1634
14.8359
14.4936
14.1478
13.8089
13.486
13.1865
12.9155
12.6765
12.4698
12.2957
12.1529
12.0402
11.955
11.8939
11.8531
11.8305
15.9748
15.7566
15.488
15.1829
14.8516
14.5058
14.1567
13.815
13.4898
13.1885
12.9164
12.6768
12.4694
12.2954
12.1532
12.0407
11.9554
11.8937
11.8526
11.8295
16.0048
15.7846
15.5129
15.2041
14.869
14.5194
14.1669
13.8222
13.4945
13.1912
12.9175
12.6768
12.4694
12.2956
12.1534
12.0407
11.9546
11.8926
11.8517
11.829
16.0368
15.8147
15.5399
15.2272
14.8881
14.5346
14.1785
13.8306
13.5003
13.1948
12.9193
12.6771
12.4693
12.2953
12.1527
12.0397
11.9536
11.892
11.8512
11.8289
16.071
15.8469
15.569
15.2525
14.9093
14.5517
14.1918
13.8407
13.5075
13.1997
12.9223
12.6786
12.4698
12.2948
12.1522
12.0395
11.9541
11.8926
11.8513
11.8282
16.1077
15.8817
15.6006
15.2801
14.9326
14.5708
14.2071
13.8525
13.5164
13.2061
12.9267
12.6813
12.471
12.2952
12.1525
12.0398
11.9541
11.8926
11.8517
11.8298
16.1469
15.9191
15.6348
15.3103
14.9584
14.5922
14.2244
13.8662
13.527
13.2142
12.9329
12.686
12.4744
12.2977
12.1541
12.041
11.9555
11.8944
11.8547
11.8336
16.189
15.9595
15.6719
15.3433
14.9868
14.6161
14.244
13.882
13.5396
13.2242
12.9408
12.6922
12.4795
12.302
12.1579
12.0446
11.9591
11.8983
11.8591
11.8386
16.2342
16.0032
15.7124
15.3795
15.0183
14.6428
14.2663
13.9002
13.5544
13.2361
12.9505
12.7002
12.4862
12.3078
12.163
12.0493
11.9635
11.9024
11.863
11.8423
16.2829
16.0505
15.7564
15.4191
15.0531
14.6727
14.2914
13.9211
13.5716
13.2504
12.9623
12.7101
12.4947
12.3151
12.1695
12.0551
11.9687
11.907
11.8669
11.8454
16.3354
16.1018
15.8045
15.4627
15.0916
14.706
14.3198
13.9451
13.5917
13.2672
12.9765
12.7223
12.5053
12.3245
12.178
12.0628
11.9757
11.9133
11.8725
11.8501
16.3922
16.1575
15.857
15.5106
15.1342
14.7432
14.3519
13.9724
13.615
13.287
12.9935
12.7371
12.5184
12.3364
12.1888
12.0728
11.985
11.9219
11.8803
11.8572
16.4536
16.2181
15.9143
15.5632
15.1814
14.7847
14.3879
14.0035
13.6417
13.3101
13.0136
12.7549
12.5343
12.3509
12.2022
12.0853
11.9968
11.933
11.8907
11.8668
16.5201
16.2839
15.9769
15.621
15.2334
14.8308
14.4283
14.0386
13.6722
13.3367
13.0371
12.7757
12.5532
12.3682
12.2184
12.1005
12.0112
11.9466
11.9035
11.8786
16.5921
16.3555
16.0453
15.6844
15.291
14.8822
14.4735
14.0783
13.707
13.3673
13.0642
12.8001
12.5753
12.3886
12.2375
12.1186
12.0282
11.9629
11.9188
11.893
16.6702
16.4336
16.1203
15.7543
15.3546
14.9392
14.5242
14.123
13.7464
13.4022
13.0954
12.8282
12.6011
12.4125
12.2598
12.1397
12.0483
11.9819
11.9369
11.9101
16.7553
16.5189
16.2025
15.8312
15.425
15.0027
14.5809
14.1733
13.7911
13.4421
13.1311
12.8607
12.6309
12.4402
12.2858
12.1642
12.0716
12.0041
11.9579
11.9298
16.8477
16.6121
16.2927
15.916
15.5031
15.0735
14.6444
14.2301
13.8418
13.4875
13.1721
12.8981
12.6653
12.4722
12.3159
12.1928
12.0988
12.0299
11.9824
11.9529
16.9486
16.7143
16.3921
16.0098
15.5898
15.1525
14.7157
14.2941
13.8993
13.5393
13.2191
12.9411
12.7051
12.5094
12.3509
12.2259
12.1303
12.0599
12.0109
11.9798
17.0592
16.8267
16.5017
16.1137
15.6863
15.2407
14.7957
14.3663
13.9645
13.5983
13.273
12.9906
12.751
12.5524
12.3915
12.2644
12.167
12.0949
12.0441
12.0112
17.1805
16.9504
16.6229
16.229
15.7937
15.3395
14.8857
14.448
14.0386
13.6658
13.3347
13.0476
12.8041
12.6022
12.4386
12.3092
12.2097
12.1356
12.0829
12.048
17.3136
17.0868
16.7569
16.357
15.9136
15.4502
14.987
14.5405
14.1229
13.7429
13.4057
13.1134
12.8655
12.6601
12.4934
12.3614
12.2595
12.1832
12.1283
12.091
17.4601
17.2374
16.9056
16.4996
16.0476
15.5746
15.1015
14.6454
14.2191
13.8314
13.4874
13.1894
12.9368
12.7274
12.5574
12.4224
12.3178
12.239
12.1814
12.1415
17.6215
17.4042
17.0709
16.6588
16.198
15.7147
15.2311
14.7648
14.3291
13.933
13.5818
13.2776
13.0198
12.8059
12.6321
12.4939
12.3862
12.3044
12.2439
12.2008
17.7998
17.5893
17.2552
16.8371
16.3671
15.8731
15.3783
14.9011
14.4553
14.0502
13.6911
13.3802
13.1166
12.8978
12.7198
12.5778
12.4667
12.3815
12.3175
12.2708
17.9976
17.7955
17.4614
17.0374
16.5581
16.0529
15.5462
15.0574
14.6008
14.1859
13.8183
13.4999
13.23
13.0058
12.8231
12.6768
12.5617
12.4726
12.4046
12.3536
18.2175
18.0259
17.6928
17.2634
16.7745
16.2576
15.7385
15.2373
14.7691
14.3437
13.9668
13.6403
13.3635
13.1333
12.9452
12.7941
12.6744
12.5807
12.508
12.4519
18.462
18.284
17.9536
17.5194
17.0211
16.4921
15.9598
15.4455
14.9649
14.5282
14.1412
13.806
13.5215
13.2845
13.0904
12.9338
12.8087
12.7096
12.6313
12.5692
18.7358
18.5747
18.249
17.8109
17.3033
16.762
16.216
15.6879
15.194
14.7452
14.3473
14.0025
13.7095
13.4651
13.2642
13.1011
12.9698
12.8644
12.7793
12.7099
19.0439
18.9039
18.5855
18.1448
17.6284
17.0746
16.5145
15.9719
15.4641
15.0022
14.5926
14.2373
13.935
13.6822
13.4735
13.303
13.1644
13.0513
12.9581
12.8798
19.3922
19.2787
18.9709
18.5297
18.0054
17.4394
16.865
16.3074
15.7849
15.3093
14.8871
14.5204
14.2078
13.9454
13.7279
13.5487
13.4013
13.279
13.1758
13.0864
19.788
19.7079
19.4155
18.9766
18.446
17.8686
17.2801
16.7073
16.1696
15.6795
15.2439
14.8649
14.5409
14.2679
14.0401
13.8506
13.6925
13.5589
13.4432
13.34
20.2406
20.2031
19.9323
19.4998
18.9657
18.3785
17.7766
17.1889
16.6359
16.131
15.6813
15.2891
14.9526
14.6675
14.4276
14.2258
14.0546
13.9067
13.7753
13.6545
20.7621
20.7787
20.5383
20.1185
19.585
18.9909
18.3775
17.776
17.2083
16.6886
16.2245
15.8182
15.468
15.1692
14.9151
14.6982
14.5106
14.3445
14.1927
14.049
21.3695
21.4523
21.2558
20.8579
20.3318
19.7356
19.1143
18.5014
17.9207
17.3872
16.9089
16.4882
16.1231
15.8086
15.5376
15.302
15.0935
14.9037
14.7251
14.5509
22.0837
22.253
22.1164
21.7531
21.2444
20.6538
20.0306
19.4112
18.8209
18.276
17.785
17.3501
16.9693
16.637
16.3456
16.0866
15.8509
15.6297
15.415
15.1996
22.9313
23.2148
23.1616
22.8517
22.3752
21.8025
21.1875
20.5697
19.9765
19.4251
18.9246
18.4773
18.0805
17.7284
17.4125
17.1237
16.8521
16.5887
16.3246
16.0525
23.9483
24.3842
24.4469
24.2177
23.7963
23.2606
22.6699
22.0672
21.4824
20.9337
20.4304
19.9748
19.5635
19.1898
18.8446
18.5177
18.1986
17.8775
17.5451
17.1937
25.1826
25.8279
26.0424
25.9382
25.6063
25.1365
24.5949
24.0291
23.4711
22.9405
22.4465
21.9909
21.5694
21.1741
20.7945
20.4194
20.0372
19.6373
19.2099
18.7469
26.6989
27.6403
28.0656
28.1365
27.94
27.5771
27.1215
26.6253
26.123
25.6351
25.1707
24.7302
24.3079
23.8939
23.4761
23.0412
22.5765
22.07
21.5112
20.8916
28.5833
29.9309
30.6514
30.9686
30.9723
30.7749
30.458
30.0788
29.6748
29.2668
28.8632
28.4626
28.0569
27.6333
27.1767
26.6714
26.1021
25.4549
24.7179
23.8817
30.9448
32.842
33.9987
34.6226
34.923
34.9721
34.8659
34.6689
34.4213
34.145
33.8471
33.5235
33.1626
32.7476
32.2592
31.6774
30.983
30.1585
29.1886
28.0616
33.9379
36.5642
38.32
39.4097
40.0623
40.4635
40.6561
40.7236
40.7052
40.6253
40.4907
40.2937
40.0181
39.6419
39.1403
38.4869
37.6559
36.6231
35.3667
33.8685
37.7496
41.3461
43.8916
45.628
46.7968
47.5826
48.1637
48.603
48.8895
49.0763
49.1715
49.1589
49.019
48.7239
48.2421
47.5388
46.5785
45.3254
43.745
41.8057
42.6097
47.4699
51.0379
53.6007
55.461
56.8447
57.8937
58.6961
59.3153
59.8299
60.2337
60.4608
60.5095
60.3449
59.9287
59.2168
58.1604
56.7063
54.799
52.3823
48.7935
55.2594
60.106
63.6837
66.3659
68.425
70.0509
71.3688
72.4426
73.3089
73.9773
74.4607
74.7504
74.7628
74.4634
73.7997
72.7062
71.1059
68.9137
66.0358
56.6204
65.0714
71.4657
76.2448
79.8801
82.7122
84.9747
86.8234
88.3512
89.614
90.637
91.4155
91.9324
92.1512
92.0124
91.4647
90.4119
88.7492
86.3547
83.0851
66.4395
77.2698
85.4702
91.6144
96.3041
99.9696
102.904
105.308
107.307
108.976
110.351
111.438
112.217
112.646
112.693
112.328
111.409
109.786
107.298
103.744
78.6177
92.211
102.448
110.091
115.906
120.438
124.054
127.008
129.464
131.526
133.248
134.652
135.717
136.395
136.653
136.505
135.816
134.346
131.887
128.18
93.5142
110.221
122.687
131.923
138.901
144.299
148.576
152.051
154.933
157.365
159.426
161.155
162.543
163.551
164.096
164.159
163.731
162.532
160.24
156.533
111.464
131.583
146.427
157.315
165.457
171.686
176.566
180.494
183.737
186.485
188.847
190.89
192.616
193.992
194.93
195.312
195.133
194.326
192.388
188.88
132.749
156.519
173.84
186.389
195.644
202.61
207.972
212.222
215.697
218.645
221.222
223.525
225.578
227.351
228.741
229.591
229.839
229.506
228.129
225.103
157.593
185.175
204.998
219.138
229.363
236.869
242.486
246.813
250.28
253.211
255.823
258.263
260.585
262.778
264.744
266.324
267.276
267.49
266.875
264.711
186.128
217.58
239.819
255.345
266.241
273.922
279.384
283.364
286.409
288.941
291.262
293.59
296.027
298.597
301.209
303.705
305.81
307.171
307.514
306.595
218.39
253.612
277.993
294.48
305.501
312.726
317.357
320.302
322.256
323.77
325.261
327.045
329.3
332.092
335.358
338.946
342.564
345.808
348.087
348.859
254.287
292.938
318.897
335.582
345.811
351.568
354.321
355.189
355.053
354.621
354.458
355.026
356.632
359.353
363.164
367.945
373.43
379.21
384.58
388.632
293.596
334.98
361.515
377.136
385.125
387.874
387.261
384.593
381.015
377.349
374.347
372.716
372.714
374.736
378.88
385.086
392.98
402.017
411.573
420.53
335.959
378.873
404.366
416.958
420.652
418.488
412.446
404.044
394.65
385.931
379.051
375.117
373.485
374.607
378.669
385.682
395.398
407.26
421.878
437.827
380.933
423.467
445.359
452.212
449.076
438.807
424.087
408.496
393.324
379.731
368.418
359.602
354.769
354.055
357.407
365.188
377.518
394.609
414.519
436.954
428.062
467.165
481.838
479.588
465.032
443.609
419.164
393.75
369.895
348.933
331.829
319.16
311.321
308.594
310.94
318.736
332.563
352.782
379.45
411.975
477.004
507.975
510.977
493.378
463.891
427.804
390.008
353.753
321.348
294.019
272.297
256.347
246.168
241.818
243.163
250.46
265.008
287.905
320.313
362.856
527.39
544.412
528.012
489.427
438.785
384.812
333.334
287.777
249.681
219.345
196.342
180.002
169.709
165.155
166.091
172.745
187.059
211.166
248.062
301.075
580.154
574.556
527.35
458.387
382.975
311.933
251.053
202.273
165.105
138.006
119.034
106.476
99.1243
96.4161
98.0547
104.637
118.667
143.517
184.336
251.1
637.101
587.805
496.941
391.476
293.69
214.144
155.305
114.451
87.1619
70.0351
59.635
53.662
50.9495
51.2558
54.4935
61.8541
75.795
101.013
149.015
238.939
694.657
575.309
422.323
283.865
181.37
113.411
73.7823
52.2823
41.0078
34.9666
31.6138
30.031
29.9897
31.5127
35.1284
42.2552
56.1521
84.8756
147.903
293.826
712.009
489.065
287.203
150.648
79.6631
48.453
34.3891
27.5127
23.9262
21.9943
21.0452
20.8241
21.3325
22.8121
25.9317
32.3936
46.6218
81.9873
179.482
444.356
627.744
303.661
127.526
61.836
37.1383
26.6951
21.801
19.3157
17.998
17.3053
17.0065
17.0263
17.4325
18.4888
20.8806
26.2696
39.6789
78.8803
215.988
686.565
407.474
141.367
58.7718
32.7273
23.1919
19.1108
17.2094
16.2726
15.7948
15.5463
15.4401
15.4491
15.6347
16.1722
17.5795
21.0995
31.0743
65.4188
211.596
766.544
327.275
86.882
34.0052
21.1089
17.3119
15.9783
15.4291
15.1624
15.0259
14.9522
14.9231
14.9222
14.9678
15.0935
15.4803
16.6598
20.5139
35.8762
120.416
608.494
190.073
36.624
18.7029
16.1066
15.3838
15.0923
14.9527
14.8835
14.8483
14.8284
14.8225
14.8258
14.8431
14.8823
14.9933
15.3131
16.242
18.9006
28.7044
112.406
11.9922
11.9556
11.9115
11.8678
11.8253
11.7852
11.7485
11.7162
11.6892
11.6681
11.6534
11.6452
11.6435
11.6479
11.6581
11.6735
11.6937
11.7181
11.7466
11.7789
12.0098
11.9721
11.9274
11.8831
11.8403
11.7999
11.7631
11.7307
11.7037
11.6826
11.668
11.6599
11.6583
11.6629
11.6733
11.6888
11.7088
11.733
11.7613
11.7936
12.0198
11.9816
11.9365
11.8921
11.8493
11.8091
11.7726
11.7405
11.7137
11.6928
11.6784
11.6707
11.6688
11.6731
11.6831
11.6982
11.7178
11.7416
11.7693
11.8008
12.0265
11.9884
11.9435
11.8995
11.8572
11.8174
11.7813
11.75
11.7236
11.7024
11.6868
11.6768
11.6735
11.6767
11.6857
11.7
11.7192
11.7426
11.77
11.8011
12.0332
11.9955
11.9515
11.9081
11.8663
11.8267
11.7903
11.7583
11.7308
11.7083
11.691
11.6792
11.6757
11.6782
11.6861
11.6987
11.7169
11.7401
11.7679
11.8001
12.0414
12.0039
11.9597
11.9157
11.8727
11.8314
11.7941
11.7612
11.7328
11.7095
11.6913
11.6804
11.6765
11.6786
11.6866
11.6997
11.7176
11.74
11.7679
11.8009
12.0464
12.0085
11.9636
11.9187
11.8746
11.8321
11.7942
11.7608
11.7322
11.7087
11.6904
11.6794
11.6739
11.676
11.6849
11.7004
11.7179
11.74
11.7674
11.7999
12.0465
12.009
11.9641
11.9189
11.8744
11.8319
11.7934
11.7591
11.7308
11.7073
11.6897
11.6777
11.6734
11.6759
11.685
11.7004
11.7189
11.7421
11.7695
11.8009
12.0457
12.0087
11.9638
11.9186
11.8741
11.8313
11.792
11.7577
11.7303
11.7072
11.6902
11.6795
11.6755
11.678
11.6866
11.701
11.7197
11.743
11.7705
11.8018
12.0464
12.0074
11.9619
11.9169
11.8736
11.8314
11.7927
11.7594
11.7318
11.7089
11.6917
11.6803
11.676
11.6783
11.6868
11.701
11.7199
11.7448
11.7731
11.8045
12.0476
12.0077
11.9616
11.9162
11.8726
11.8296
11.7922
11.7593
11.731
11.7077
11.6913
11.6806
11.6769
11.6794
11.6879
11.7027
11.7237
11.7491
11.7768
11.807
12.0495
12.0087
11.9621
11.9159
11.8709
11.8274
11.7889
11.7561
11.7278
11.7047
11.69
11.6812
11.6789
11.6829
11.6922
11.707
11.727
11.7498
11.7763
11.8056
12.0494
12.0089
11.9623
11.9158
11.8702
11.8273
11.7882
11.7544
11.7262
11.7046
11.6896
11.6812
11.6793
11.6843
11.6941
11.7089
11.7278
11.75
11.7769
11.8073
12.0499
12.0106
11.9641
11.9176
11.8717
11.8292
11.7905
11.7568
11.7285
11.7065
11.6904
11.6813
11.6788
11.6825
11.6922
11.707
11.7265
11.7501
11.7773
11.8079
12.0491
12.0092
11.9628
11.917
11.8722
11.8302
11.792
11.7583
11.7299
11.7073
11.6907
11.6816
11.6782
11.6817
11.6915
11.7067
11.7268
11.7511
11.779
11.8097
12.0492
12.0075
11.9608
11.9152
11.8718
11.8297
11.7909
11.7569
11.7286
11.7067
11.6916
11.684
11.6816
11.6868
11.6979
11.7139
11.7344
11.7587
11.7862
11.8166
12.0502
12.0076
11.9606
11.915
11.8717
11.8296
11.7901
11.7561
11.728
11.7062
11.6914
11.6837
11.6827
11.6897
11.7016
11.7179
11.7383
11.7622
11.7894
11.8197
12.0507
12.0094
11.9619
11.9153
11.8703
11.828
11.7895
11.7559
11.728
11.7063
11.6913
11.6825
11.6816
11.6885
11.7001
11.7164
11.7368
11.7607
11.788
11.8184
12.0516
12.0104
11.9627
11.915
11.87
11.828
11.7898
11.7564
11.7286
11.7073
11.6928
11.6852
11.6841
11.6893
11.7004
11.7164
11.7366
11.7605
11.7878
11.8187
12.0527
12.0127
11.9662
11.9204
11.8763
11.8346
11.7963
11.7626
11.7346
11.713
11.6985
11.691
11.6902
11.696
11.7079
11.7241
11.7442
11.7676
11.7943
11.8243
12.0586
12.0197
11.9744
11.9298
11.8864
11.8447
11.8059
11.7713
11.7423
11.72
11.7048
11.6969
11.6957
11.7013
11.7136
11.7289
11.7489
11.7719
11.7981
11.8274
12.0643
12.0261
11.9816
11.9371
11.8934
11.8516
11.8131
11.7789
11.7502
11.7277
11.7116
11.7025
11.7001
11.7047
11.7164
11.7305
11.7492
11.7715
11.7974
11.8266
12.0682
12.0291
11.9839
11.9383
11.894
11.8521
11.8141
11.7808
11.7531
11.7322
11.717
11.7083
11.7055
11.7091
11.7189
11.7329
11.7504
11.7721
11.7966
11.8255
12.0715
12.0308
11.9848
11.9385
11.8936
11.8515
11.8133
11.7801
11.7523
11.7322
11.718
11.7102
11.7074
11.7109
11.7192
11.7339
11.7523
11.7736
11.7967
11.825
12.0757
12.0337
11.9864
11.9392
11.8937
11.8512
11.813
11.7799
11.7527
11.7321
11.718
11.7103
11.7071
11.7098
11.7177
11.7327
11.7513
11.7734
11.798
11.8268
12.0812
12.0377
11.9881
11.9397
11.8935
11.8507
11.8123
11.7794
11.7533
11.7327
11.7184
11.7103
11.7076
11.7098
11.719
11.7336
11.7529
11.7759
11.8023
11.8319
12.0882
12.0442
11.994
11.945
11.8984
11.8552
11.8164
11.7828
11.7553
11.7342
11.7199
11.7122
11.7105
11.7146
11.7246
11.7398
11.7593
11.7826
11.8091
11.8385
12.0959
12.0516
12.0011
11.9519
11.9051
11.8618
11.8229
11.7894
11.762
11.7409
11.7267
11.7191
11.7176
11.722
11.7323
11.7476
11.7673
11.7905
11.8169
11.8461
12.1039
12.0592
12.0084
11.959
11.912
11.8687
11.83
11.7969
11.7698
11.7489
11.7345
11.7268
11.7254
11.73
11.7405
11.756
11.7758
11.7991
11.8253
11.8542
12.1123
12.0671
12.0159
11.966
11.9187
11.875
11.8361
11.8029
11.7758
11.7549
11.7408
11.7335
11.7326
11.7376
11.7486
11.7645
11.7846
11.8081
11.8344
11.863
12.1214
12.0756
12.0238
11.9733
11.9254
11.8811
11.8416
11.8077
11.7801
11.7594
11.7458
11.739
11.7386
11.7446
11.7563
11.7728
11.7935
11.8174
11.844
11.8727
12.1317
12.0854
12.0329
11.9818
11.9331
11.8881
11.848
11.8135
11.7856
11.7647
11.7512
11.7447
11.7446
11.751
11.7632
11.7804
11.8019
11.8267
11.8543
11.8832
12.1437
12.0968
12.0438
11.9919
11.9426
11.897
11.8563
11.8214
11.7931
11.772
11.7583
11.7517
11.7515
11.7579
11.7702
11.7875
11.809
11.8339
11.8614
11.8901
12.1574
12.11
12.0565
12.0041
11.9542
11.9081
11.8669
11.8315
11.803
11.7816
11.7678
11.761
11.7608
11.767
11.7791
11.7961
11.8171
11.8413
11.8679
11.8962
12.1732
12.1253
12.0713
12.0183
11.9679
11.9213
11.8797
11.844
11.8152
11.7937
11.7799
11.7731
11.7728
11.7791
11.7911
11.8079
11.8286
11.8523
11.8783
11.9062
12.1911
12.1428
12.0883
12.0348
11.9839
11.9368
11.8948
11.8588
11.8299
11.8084
11.7946
11.7879
11.7878
11.7942
11.8064
11.8233
11.8439
11.8675
11.8932
11.9206
12.2118
12.163
12.1081
12.054
12.0025
11.9549
11.9125
11.8763
11.8472
11.8257
11.812
11.8056
11.8058
11.8125
11.8249
11.842
11.8628
11.8862
11.9116
11.9385
12.2358
12.1866
12.1312
12.0766
12.0245
11.9763
11.9335
11.897
11.8678
11.8463
11.8328
11.8267
11.8272
11.8342
11.847
11.8643
11.8851
11.9084
11.9335
11.9597
12.2638
12.2142
12.1584
12.1033
12.0506
12.0019
11.9587
11.9219
11.8925
11.8711
11.8577
11.8518
11.8526
11.86
11.873
11.8905
11.9113
11.9344
11.959
11.9844
12.2962
12.2464
12.1903
12.1348
12.0817
12.0325
11.9888
11.9517
11.9222
11.9008
11.8875
11.8818
11.8828
11.8905
11.9037
11.9212
11.942
11.9647
11.9887
12.0131
12.3336
12.2838
12.2276
12.1717
12.1181
12.0685
12.0245
11.9871
11.9575
11.9359
11.9228
11.9171
11.9184
11.9262
11.9395
11.957
11.9775
11.9998
12.023
12.0462
12.3767
12.327
12.2707
12.2146
12.1607
12.1107
12.0663
12.0286
11.9988
11.9772
11.964
11.9585
11.9599
11.9678
11.9812
11.9986
12.0187
12.0404
12.0626
12.0845
12.4262
12.3766
12.3205
12.2642
12.21
12.1597
12.1149
12.077
12.0469
12.0253
12.0121
12.0066
12.0081
12.0161
12.0294
12.0466
12.0663
12.0872
12.1083
12.1287
12.4831
12.4339
12.378
12.3217
12.2672
12.2165
12.1714
12.1332
12.103
12.0812
12.068
12.0626
12.0641
12.0721
12.0853
12.1022
12.1214
12.1414
12.1611
12.1797
12.5485
12.4999
12.4444
12.3882
12.3336
12.2827
12.2373
12.1988
12.1683
12.1464
12.1331
12.1277
12.1293
12.1372
12.1502
12.1667
12.1852
12.2041
12.2223
12.2388
12.624
12.5763
12.5215
12.4656
12.4109
12.3598
12.3141
12.2753
12.2446
12.2225
12.2092
12.2037
12.2053
12.2132
12.2259
12.2418
12.2594
12.2771
12.2934
12.3074
12.7115
12.665
12.6113
12.5558
12.5013
12.45
12.4041
12.3651
12.3341
12.3119
12.2984
12.2928
12.2943
12.302
12.3143
12.3296
12.346
12.3621
12.3762
12.3873
12.8133
12.7685
12.7163
12.6616
12.6074
12.5562
12.5101
12.4709
12.4397
12.4172
12.4035
12.3978
12.3992
12.4065
12.4182
12.4325
12.4476
12.4617
12.4731
12.4806
12.9324
12.8898
12.8397
12.7863
12.7327
12.6817
12.6356
12.5962
12.5649
12.5421
12.5281
12.5222
12.5233
12.5301
12.541
12.554
12.5673
12.5788
12.587
12.5902
13.0725
13.033
12.9857
12.9342
12.8817
12.8312
12.7853
12.7458
12.7143
12.6912
12.6768
12.6706
12.6712
12.6772
12.6869
12.6983
12.7091
12.7175
12.7215
12.7195
13.2383
13.2031
13.1598
13.1108
13.06
13.0105
12.965
12.9257
12.894
12.8706
12.8557
12.8489
12.8487
12.8536
12.8617
12.8707
12.8784
12.8827
12.8815
12.873
13.4361
13.4068
13.3688
13.3237
13.2755
13.2276
13.183
13.144
13.1122
13.0884
13.0728
13.0651
13.0639
13.0671
13.0727
13.0785
13.082
13.081
13.0732
13.0566
13.674
13.6528
13.6224
13.5828
13.5384
13.4931
13.4501
13.4118
13.3801
13.3558
13.3392
13.3301
13.3272
13.3279
13.3301
13.3314
13.3293
13.3214
13.305
13.2778
13.963
13.9531
13.9334
13.9018
13.8632
13.8219
13.7814
13.7445
13.7132
13.6882
13.6702
13.6591
13.6535
13.6505
13.6478
13.6429
13.6332
13.6159
13.588
13.5471
14.3181
14.3243
14.3199
14.3
14.27
14.2348
14.1984
14.1639
14.1333
14.1078
14.0877
14.0731
14.0634
14.0553
14.0453
14.0317
14.0115
13.9811
13.9377
13.8784
14.763
14.7907
14.8074
14.8045
14.7875
14.7617
14.7318
14.701
14.672
14.6462
14.6238
14.6049
14.5885
14.5719
14.5516
14.525
14.489
14.4403
14.3755
14.2915
15.3306
15.3852
15.4307
15.4544
15.4571
15.4457
15.4256
15.4009
15.3745
15.3481
15.3224
15.2972
15.2709
15.2412
15.2051
15.1597
15.1015
15.0268
14.9321
14.8138
16.0705
16.1692
16.2527
16.3068
16.3395
16.3496
16.3446
16.3292
16.3069
16.2798
16.2486
16.2133
16.1726
16.1241
16.0648
15.9917
15.9009
15.7889
15.6516
15.4851
17.0479
17.2115
17.3593
17.4564
17.5212
17.5644
17.5817
17.5805
17.565
17.5374
17.4987
17.4487
17.3863
17.3095
17.2154
17.1009
16.9624
16.7961
16.5975
16.3625
18.3587
18.6172
18.8584
19.0303
19.1443
19.2184
19.2699
19.2892
19.2853
19.2577
19.208
19.1363
19.042
18.9235
18.7781
18.603
18.3946
18.1491
17.8619
17.5285
20.14
20.5378
20.9149
21.1943
21.3909
21.5169
21.59
21.6378
21.6586
21.6325
21.5674
21.4646
21.3241
21.1449
20.9249
20.6617
20.3518
19.9916
19.5765
19.1017
22.5831
23.181
23.7521
24.1849
24.4985
24.7105
24.8374
24.9075
24.9445
24.9182
24.8317
24.6856
24.4804
24.2155
23.8898
23.5012
23.0469
22.5233
21.9258
21.2492
25.9402
26.8173
27.6567
28.3001
28.7727
29.0991
29.3027
29.4025
29.4355
29.4269
29.3161
29.1141
28.8227
28.4426
27.9734
27.4136
26.7604
26.0105
25.1587
24.1994
30.5246
31.7761
32.9696
33.8872
34.5635
35.0311
35.3214
35.4641
35.5194
35.5228
35.3819
35.1109
34.7121
34.1863
33.5333
32.7514
31.8376
30.7874
29.5943
28.2511
36.6922
38.4194
40.0544
41.3081
42.2302
42.8648
43.2503
43.4389
43.5331
43.5541
43.3835
43.0373
42.5166
41.8212
40.9503
39.9006
38.6666
37.2405
35.6122
33.77
44.8032
47.0979
49.2477
50.8865
52.0872
52.912
53.4091
53.6484
53.7723
53.8092
53.6234
53.2093
52.5653
51.6907
50.5835
49.2361
47.638
45.7737
43.6248
41.1695
55.1774
58.1074
60.8213
62.8754
64.3774
65.4165
66.0606
66.3727
66.4746
66.4934
66.3524
65.8858
65.1284
64.0813
62.7396
61.0882
59.1077
56.7691
54.0386
50.8756
68.0741
71.6824
74.9897
77.4761
79.2914
80.5581
81.374
81.8175
81.9643
81.9621
81.8214
81.3054
80.4503
79.2499
77.6924
75.7514
73.3944
70.5735
67.2316
63.2973
83.7267
88.051
91.9841
94.9272
97.0748
98.5775
99.5513
100.095
100.314
100.371
100.281
99.7548
98.8339
97.5088
95.761
93.5528
90.8363
87.5402
83.577
78.8328
102.423
107.524
112.147
115.605
118.137
119.917
121.06
121.684
122.017
122.223
122.225
121.717
120.755
119.328
117.409
114.949
111.883
108.113
103.517
97.9258
124.593
130.579
136.007
140.081
143.096
145.261
146.712
147.556
148.002
148.298
148.378
147.899
146.914
145.402
143.324
140.616
137.194
132.931
127.664
121.165
150.88
157.917
164.316
169.151
172.772
175.428
177.288
178.465
179.108
179.477
179.641
179.237
178.269
176.695
174.467
171.504
167.701
162.901
156.893
149.381
182.183
190.5
198.098
203.883
208.271
211.553
213.936
215.551
216.527
217.017
217.173
216.995
216.097
214.492
212.123
208.895
204.676
199.273
192.421
183.743
219.695
229.583
238.666
245.641
250.995
255.073
258.113
260.263
261.659
262.448
262.81
262.825
262.031
260.426
257.934
254.437
249.769
243.69
235.868
225.829
264.953
276.765
287.675
296.122
302.685
307.769
311.66
314.543
316.534
317.725
318.392
318.66
318.048
316.512
313.949
310.211
305.082
298.268
289.346
277.724
319.903
334.045
347.172
357.411
365.449
371.771
376.722
380.525
383.317
385.169
386.234
386.77
386.541
385.201
382.676
378.777
373.23
365.659
355.532
342.102
386.979
403.895
419.661
432.033
441.826
449.63
455.861
460.796
464.604
467.38
469.187
470.196
470.414
469.426
467.128
463.239
457.402
449.14
437.772
422.353
469.183
489.322
508.149
522.979
534.795
544.311
552.039
558.32
563.363
567.276
570.091
571.948
572.885
572.523
570.783
567.222
561.378
552.638
540.13
522.651
570.164
593.911
616.148
633.688
647.719
659.119
668.521
676.356
682.893
688.273
692.537
695.702
697.678
698.316
697.517
694.818
689.477
680.718
667.414
648.027
694.226
721.789
747.599
767.913
784.183
797.49
808.626
818.139
826.378
833.533
839.652
844.708
848.533
850.808
851.402
850.272
846.32
838.379
825.016
804.26
846.245
877.466
906.634
929.43
947.634
962.588
975.291
986.446
996.509
1005.74
1014.21
1021.87
1028.5
1033.7
1036.85
1037.77
1036.33
1030.65
1018.57
997.625
1031.36
1065.43
1097.07
1121.44
1140.71
1156.57
1170.27
1182.72
1194.53
1206.04
1217.39
1228.52
1239.14
1248.78
1256.65
1261.7
1263.4
1261.6
1253.12
1234.16
1254.32
1289.35
1321.52
1345.55
1364.16
1379.41
1392.89
1405.78
1418.86
1432.64
1447.3
1462.82
1478.88
1494.89
1509.89
1522.58
1531.07
1534.33
1531.8
1518.46
1518.22
1550.7
1579.83
1600.2
1615.12
1627.14
1638.26
1649.94
1663.23
1678.8
1696.94
1717.7
1740.74
1765.41
1790.58
1814.68
1835.44
1849.95
1855.81
1851.78
1822.4
1846.56
1866.89
1878.31
1884.83
1889.53
1894.87
1902.69
1914.27
1930.46
1951.7
1978.16
2009.54
2045.22
2083.95
2124.03
2162.8
2196.8
2221.05
2230.95
2159.03
2166.57
2169.49
2164.24
2155.73
2147.27
2141.94
2142.07
2149.05
2163.8
2186.92
2218.77
2259.22
2307.77
2363.28