/*--------------------------------*- C++ -*----------------------------------*\
  =========                 |
  \\      /  F ield         | OpenFOAM: The Open Source CFD Toolbox
   \\    /   O peration     | Website:  https://openfoam.org
    \\  /    A nd           | Version:  6
     \\/     M anipulation  |
\*---------------------------------------------------------------------------*/
FoamFile
{
    version     2.0;
    format      ascii;
    class       volScalarField;
    location    "14";
    object      k;
}
// * * * * * * * * * * * * * * * * * * * * * * * * * * * * * * * * * * * * * //

dimensions      [0 2 -2 0 0 0 0];

internalField   nonuniform List<scalar> 
10000
(
0.195842
0.504542
0.444847
0.392328
0.362948
0.350689
0.346974
0.346638
0.347393
0.348266
0.348987
0.349611
0.350575
0.352793
0.358504
0.371806
0.399961
0.450482
0.504762
0.196015
0.194723
0.502339
0.445064
0.392834
0.363681
0.351705
0.348692
0.349344
0.350143
0.350799
0.350047
0.350468
0.351481
0.353702
0.359391
0.372499
0.399431
0.450896
0.50484
0.194631
0.193633
0.503341
0.445117
0.392982
0.364067
0.353044
0.348571
0.349136
0.349701
0.350433
0.350113
0.350744
0.352942
0.355348
0.360108
0.373336
0.401614
0.450991
0.505422
0.194843
0.194497
0.504198
0.445465
0.392955
0.364583
0.352588
0.348973
0.349609
0.349283
0.34983
0.350245
0.350891
0.351874
0.354374
0.360477
0.373824
0.401905
0.450753
0.504897
0.194795
0.195428
0.506843
0.444784
0.391646
0.365497
0.354483
0.350998
0.349864
0.35084
0.350351
0.350727
0.351398
0.35332
0.355112
0.361277
0.374763
0.401605
0.450298
0.502424
0.195329
0.194119
0.507273
0.443793
0.393024
0.366141
0.354519
0.350877
0.3491
0.349677
0.350662
0.351287
0.351811
0.352754
0.355383
0.361873
0.375493
0.400416
0.448551
0.503968
0.194389
0.194994
0.505248
0.4471
0.392466
0.366744
0.355592
0.350886
0.349026
0.349721
0.351885
0.352752
0.353243
0.35313
0.356665
0.363278
0.376757
0.402068
0.450617
0.501976
0.195706
0.193171
0.507195
0.447012
0.393707
0.366698
0.35475
0.349867
0.348821
0.34931
0.350185
0.350921
0.351587
0.352734
0.355698
0.362772
0.377479
0.402704
0.448723
0.502992
0.196292
0.194035
0.50661
0.445113
0.39431
0.366047
0.353772
0.350107
0.349016
0.349478
0.350265
0.35099
0.351635
0.352757
0.355925
0.363015
0.378194
0.404611
0.451602
0.505176
0.197359
0.195143
0.506418
0.44818
0.39549
0.365976
0.353655
0.351837
0.350435
0.349693
0.350292
0.351032
0.351684
0.35308
0.357148
0.364177
0.378415
0.406566
0.45463
0.505476
0.199082
0.194868
0.506611
0.448294
0.395323
0.3658
0.353177
0.350066
0.349003
0.350584
0.351684
0.351641
0.35197
0.353125
0.355975
0.363214
0.378659
0.407668
0.454459
0.509057
0.20098
0.194615
0.504702
0.447147
0.394097
0.365572
0.352792
0.349427
0.349445
0.349109
0.350293
0.35238
0.352075
0.353183
0.355768
0.363455
0.37817
0.407458
0.45683
0.511557
0.201384
0.193986
0.503015
0.445551
0.394691
0.365927
0.353608
0.349322
0.347704
0.348461
0.349703
0.350963
0.352057
0.354444
0.356438
0.361754
0.377224
0.405563
0.45485
0.508067
0.199313
0.195509
0.505846
0.447629
0.395087
0.365421
0.352018
0.347512
0.34712
0.348213
0.349734
0.351083
0.351874
0.35322
0.354622
0.360973
0.376687
0.404719
0.453514
0.506605
0.198481
0.195459
0.503397
0.447189
0.394754
0.365671
0.353097
0.347612
0.347145
0.348204
0.350568
0.352528
0.353005
0.351889
0.354081
0.360294
0.375795
0.402943
0.450012
0.504173
0.196888
0.1953
0.504965
0.44654
0.39309
0.364817
0.35185
0.347558
0.346956
0.347591
0.348355
0.350217
0.350927
0.350907
0.353561
0.359584
0.374577
0.401111
0.447483
0.50233
0.195182
0.194859
0.502945
0.443743
0.392989
0.364498
0.352884
0.349065
0.347369
0.347732
0.348018
0.348552
0.34922
0.350624
0.353505
0.358809
0.372965
0.399789
0.446006
0.500559
0.194167
0.193749
0.504861
0.444544
0.39257
0.364313
0.351377
0.347362
0.348002
0.348894
0.348189
0.348637
0.350293
0.350843
0.354606
0.358476
0.372298
0.398786
0.44607
0.501205
0.193449
0.194179
0.502755
0.444811
0.393267
0.364515
0.351473
0.347141
0.346405
0.347094
0.347914
0.3483
0.348663
0.350549
0.352136
0.357574
0.370774
0.398812
0.448297
0.503439
0.193688
0.195265
0.505527
0.446907
0.394414
0.365142
0.353245
0.349315
0.347333
0.347754
0.349872
0.350173
0.348937
0.34908
0.350508
0.356014
0.370049
0.399075
0.44673
0.503954
0.19399
0.195251
0.505582
0.446979
0.393859
0.365267
0.352876
0.348895
0.34817
0.348808
0.349486
0.349769
0.34938
0.350473
0.350896
0.356228
0.370199
0.39964
0.450374
0.504152
0.193844
0.194148
0.503274
0.445073
0.395866
0.366008
0.352688
0.347878
0.34685
0.347456
0.348392
0.348819
0.349977
0.349561
0.350894
0.35636
0.370307
0.399166
0.450757
0.504611
0.195388
0.195511
0.506454
0.448438
0.396691
0.366674
0.353283
0.348323
0.347327
0.34794
0.349626
0.349067
0.349911
0.35086
0.351888
0.35768
0.370963
0.400954
0.45119
0.504559
0.194294
0.195421
0.506936
0.449122
0.397149
0.367586
0.355132
0.350426
0.349369
0.349475
0.348822
0.348918
0.349077
0.34977
0.352472
0.357852
0.371244
0.401249
0.450108
0.504258
0.196615
0.194968
0.506599
0.446399
0.396668
0.36786
0.354809
0.349659
0.348254
0.348673
0.349337
0.35088
0.351195
0.351491
0.352894
0.358208
0.371724
0.40148
0.452884
0.502897
0.197852
0.197227
0.508059
0.448615
0.396651
0.36832
0.35634
0.350313
0.348813
0.349201
0.350796
0.351032
0.350747
0.350475
0.352034
0.357785
0.372009
0.400645
0.453229
0.505695
0.19913
0.196837
0.507623
0.449048
0.395392
0.368758
0.355999
0.352249
0.350881
0.350911
0.350856
0.351048
0.350299
0.351486
0.352252
0.357991
0.372277
0.402325
0.45387
0.507543
0.199438
0.196743
0.507235
0.451171
0.396747
0.369665
0.357316
0.352431
0.350129
0.34998
0.35021
0.350268
0.350109
0.350464
0.352513
0.358717
0.372439
0.40131
0.453544
0.509816
0.19967
0.196444
0.505792
0.450579
0.396915
0.369968
0.357309
0.352325
0.350433
0.350255
0.351558
0.350786
0.35164
0.352045
0.353049
0.359193
0.372937
0.402612
0.453214
0.508829
0.197721
0.195331
0.505072
0.450597
0.397502
0.370947
0.358065
0.354594
0.352365
0.350379
0.350432
0.350786
0.350959
0.351496
0.35342
0.359174
0.373264
0.40238
0.449802
0.50633
0.197963
0.197433
0.507684
0.450197
0.398113
0.371775
0.358572
0.354358
0.352088
0.350291
0.350397
0.351919
0.352295
0.352994
0.354891
0.360298
0.373624
0.401642
0.451295
0.50636
0.198207
0.199235
0.507346
0.449026
0.399101
0.372441
0.359642
0.354154
0.351908
0.350309
0.350086
0.350158
0.350582
0.351523
0.353651
0.359499
0.37373
0.402328
0.452784
0.505807
0.19772
0.200646
0.511181
0.452068
0.400468
0.372657
0.358254
0.352406
0.35069
0.350095
0.349947
0.350128
0.350888
0.353191
0.355466
0.360853
0.373886
0.403017
0.453096
0.506872
0.196652
0.200453
0.510493
0.452228
0.401355
0.372843
0.359362
0.352627
0.351022
0.350401
0.350167
0.350371
0.350826
0.352553
0.355161
0.360666
0.373732
0.402206
0.450002
0.506695
0.197577
0.199936
0.510429
0.451729
0.40192
0.372629
0.358154
0.352469
0.35243
0.351758
0.350614
0.351452
0.351752
0.35164
0.354951
0.360651
0.373906
0.401688
0.450356
0.504715
0.197134
0.200981
0.510245
0.45024
0.402654
0.37278
0.35811
0.35205
0.350384
0.349766
0.350725
0.350014
0.35015
0.350932
0.354249
0.360197
0.373745
0.401862
0.451132
0.505312
0.196625
0.200484
0.5099
0.45156
0.403055
0.372986
0.35789
0.351898
0.349938
0.349352
0.349345
0.349458
0.349761
0.350612
0.352939
0.359062
0.373663
0.40233
0.449256
0.503633
0.195737
0.200009
0.50924
0.453209
0.402739
0.372827
0.357924
0.352212
0.351339
0.350672
0.349387
0.349397
0.349717
0.350831
0.352951
0.358825
0.373001
0.401126
0.451008
0.50571
0.195897
0.199411
0.510186
0.453202
0.402485
0.373189
0.357798
0.352174
0.349671
0.349169
0.349106
0.349279
0.349546
0.350228
0.352667
0.359503
0.37296
0.400465
0.448165
0.50351
0.195733
0.197223
0.505458
0.44931
0.401032
0.372493
0.357921
0.352137
0.349535
0.349157
0.349137
0.349565
0.350758
0.350643
0.353488
0.358425
0.372968
0.399868
0.449252
0.504735
0.194839
0.196432
0.506234
0.447825
0.399822
0.371914
0.358938
0.351648
0.349664
0.349343
0.350404
0.350461
0.349623
0.350791
0.351893
0.357719
0.372175
0.399616
0.447344
0.504211
0.195286
0.195767
0.507914
0.4476
0.399384
0.371626
0.357705
0.35154
0.350838
0.350265
0.349197
0.349207
0.349152
0.349572
0.351546
0.357565
0.371668
0.400554
0.450525
0.505179
0.19462
0.196465
0.508293
0.449723
0.39889
0.37067
0.358458
0.350994
0.349086
0.34881
0.349123
0.349625
0.350509
0.351056
0.352952
0.358224
0.371108
0.39999
0.450476
0.50482
0.195916
0.197457
0.505893
0.447876
0.398701
0.370348
0.356908
0.350754
0.349045
0.348941
0.349184
0.350433
0.349258
0.349572
0.350996
0.356698
0.370796
0.400528
0.450648
0.505322
0.195571
0.197773
0.508889
0.451859
0.399979
0.370728
0.35592
0.350756
0.349448
0.3503
0.349278
0.349017
0.349041
0.350666
0.352345
0.357718
0.370819
0.399752
0.448121
0.503726
0.196976
0.197759
0.509111
0.451528
0.399861
0.370104
0.356071
0.351289
0.349759
0.349459
0.349509
0.349365
0.349097
0.349292
0.350878
0.356769
0.370746
0.399574
0.450265
0.505638
0.195981
0.197589
0.508396
0.450842
0.399483
0.369759
0.356311
0.352793
0.350276
0.349733
0.35006
0.351287
0.351115
0.351125
0.351382
0.357287
0.370835
0.399958
0.449807
0.504577
0.196143
0.19679
0.507171
0.447651
0.399037
0.369908
0.356515
0.351428
0.351771
0.351304
0.351555
0.351112
0.350175
0.350492
0.351976
0.356689
0.370781
0.398833
0.448743
0.503754
0.195865
0.196759
0.506283
0.448029
0.398297
0.370224
0.356009
0.351161
0.350995
0.349839
0.350508
0.350601
0.351016
0.349697
0.350894
0.356668
0.370678
0.399436
0.447341
0.502326
0.194973
0.19625
0.504071
0.447591
0.398943
0.37029
0.356317
0.350864
0.349766
0.349234
0.349035
0.349007
0.349799
0.350118
0.350989
0.357396
0.37108
0.398623
0.449323
0.504694
0.195906
0.195262
0.503033
0.44914
0.398671
0.370196
0.355843
0.351009
0.351142
0.349621
0.348871
0.348559
0.348379
0.348525
0.350062
0.355811
0.370199
0.39834
0.446287
0.504078
0.19545
0.195949
0.50316
0.448875
0.39933
0.369875
0.355911
0.350813
0.350616
0.351009
0.349236
0.348904
0.348751
0.348884
0.350242
0.355838
0.369377
0.397772
0.445758
0.502472
0.195334
0.195547
0.504612
0.44648
0.398646
0.369848
0.356189
0.351686
0.3499
0.349583
0.349431
0.349995
0.350136
0.350327
0.350602
0.356837
0.369194
0.39683
0.445392
0.502776
0.194222
0.196406
0.505683
0.448404
0.399183
0.370586
0.357172
0.350311
0.348404
0.348081
0.348106
0.348196
0.348249
0.348642
0.35033
0.355711
0.369001
0.396817
0.446134
0.502457
0.194189
0.195235
0.504779
0.447569
0.398324
0.369621
0.356181
0.350316
0.34867
0.349581
0.349726
0.348967
0.349724
0.349144
0.350564
0.355777
0.369083
0.396207
0.445497
0.501547
0.193863
0.195172
0.502896
0.445254
0.397625
0.369702
0.357449
0.351936
0.349204
0.348659
0.348865
0.349863
0.34917
0.34945
0.35214
0.357314
0.370054
0.396538
0.443335
0.50096
0.193628
0.193946
0.501886
0.445458
0.396958
0.369767
0.356261
0.351365
0.351086
0.350615
0.34922
0.349401
0.350617
0.350946
0.35155
0.356563
0.369805
0.395785
0.443788
0.498599
0.19416
0.193382
0.501279
0.442717
0.395815
0.368972
0.357614
0.352951
0.351286
0.35072
0.349653
0.349592
0.35036
0.350162
0.351692
0.356738
0.369915
0.396119
0.442749
0.499619
0.193674
0.1936
0.501039
0.442397
0.39562
0.369581
0.35752
0.352513
0.35119
0.351342
0.351272
0.350277
0.350115
0.350571
0.353452
0.358094
0.369451
0.396162
0.444286
0.500995
0.19515
0.194078
0.500218
0.442995
0.395117
0.369261
0.35807
0.353609
0.351212
0.351023
0.350896
0.350738
0.350693
0.35198
0.353418
0.357385
0.36925
0.395566
0.442079
0.50112
0.195274
0.194143
0.499824
0.442341
0.394703
0.368899
0.358104
0.353889
0.351851
0.351969
0.353149
0.352138
0.35246
0.351622
0.352738
0.358214
0.36933
0.395205
0.441808
0.50029
0.195009
0.193918
0.499563
0.441603
0.394265
0.368948
0.357868
0.354003
0.353917
0.354186
0.354045
0.353912
0.353225
0.353101
0.353056
0.35696
0.368327
0.394532
0.440968
0.497752
0.194438
0.193165
0.496771
0.440806
0.393976
0.369461
0.358707
0.354761
0.354551
0.354572
0.354318
0.354284
0.35383
0.353849
0.354986
0.357582
0.368332
0.394128
0.440037
0.497825
0.193436
0.193285
0.496556
0.438989
0.393686
0.370496
0.360443
0.357397
0.356598
0.355883
0.355507
0.355221
0.354761
0.354645
0.355348
0.357888
0.368361
0.393238
0.438883
0.496324
0.193934
0.191895
0.495377
0.437984
0.39329
0.371551
0.362042
0.35828
0.357653
0.357404
0.356861
0.356623
0.355974
0.355595
0.356049
0.358432
0.369082
0.392539
0.438287
0.497688
0.193853
0.191917
0.494477
0.43672
0.39277
0.371862
0.362964
0.359695
0.358808
0.358477
0.358294
0.357947
0.357309
0.356707
0.356203
0.358675
0.368112
0.392146
0.437279
0.495835
0.192747
0.190841
0.492029
0.434786
0.392294
0.372687
0.364479
0.36103
0.359904
0.359454
0.359331
0.359084
0.358666
0.357933
0.357262
0.360463
0.36814
0.391342
0.435116
0.494983
0.192631
0.190132
0.490122
0.433712
0.392019
0.373419
0.365714
0.36239
0.360923
0.359966
0.359993
0.360271
0.36018
0.35983
0.359577
0.36015
0.368011
0.390449
0.433827
0.493531
0.192121
0.189373
0.488571
0.43223
0.391628
0.373583
0.366747
0.363707
0.362351
0.361739
0.361643
0.361652
0.361534
0.36111
0.360493
0.360547
0.368332
0.389089
0.431259
0.490975
0.190369
0.188663
0.487469
0.430607
0.389879
0.372622
0.367602
0.365175
0.364141
0.363711
0.36346
0.363613
0.363397
0.362632
0.361363
0.362057
0.366347
0.387798
0.429885
0.489598
0.189954
0.187741
0.485842
0.428529
0.390105
0.371826
0.368216
0.366775
0.365926
0.365459
0.365155
0.36496
0.364636
0.364031
0.363035
0.36234
0.3659
0.386257
0.427602
0.487233
0.188872
0.186391
0.483358
0.42543
0.387216
0.371961
0.368708
0.367698
0.367097
0.366705
0.366462
0.366236
0.365918
0.365257
0.363848
0.362426
0.365498
0.384047
0.425164
0.484851
0.187526
0.185253
0.481002
0.422353
0.385653
0.368654
0.367854
0.368585
0.368539
0.368253
0.367927
0.3676
0.367207
0.366591
0.365562
0.364224
0.365242
0.381599
0.422567
0.483063
0.186393
0.183769
0.478187
0.418503
0.382026
0.367729
0.366304
0.369269
0.369747
0.369612
0.369313
0.368954
0.36847
0.367645
0.366109
0.363474
0.365245
0.38117
0.419805
0.480372
0.184936
0.182638
0.475863
0.414912
0.379692
0.368215
0.366636
0.370392
0.371244
0.371255
0.370967
0.370532
0.369907
0.368846
0.366882
0.363165
0.366055
0.377809
0.416279
0.47827
0.184184
0.180757
0.472075
0.410924
0.377012
0.36486
0.366801
0.371477
0.372771
0.372958
0.372709
0.372223
0.371472
0.370173
0.367864
0.364297
0.363442
0.374281
0.412296
0.474962
0.182412
0.178602
0.467695
0.406103
0.374869
0.365649
0.369191
0.372971
0.374457
0.374822
0.374638
0.374114
0.373225
0.371627
0.368603
0.362765
0.360803
0.371414
0.407723
0.470984
0.18034
0.176461
0.463283
0.400614
0.371943
0.362535
0.366973
0.373541
0.376043
0.37678
0.376718
0.376178
0.375168
0.373373
0.370204
0.365065
0.361066
0.370003
0.402524
0.466945
0.177717
0.173303
0.45696
0.393476
0.368536
0.362122
0.369131
0.375359
0.378008
0.378926
0.378953
0.378389
0.377229
0.375111
0.371272
0.364198
0.361503
0.369316
0.39591
0.459675
0.173234
0.169203
0.448474
0.385835
0.364006
0.361653
0.367533
0.376211
0.379706
0.381028
0.381224
0.380669
0.379375
0.376969
0.372634
0.365057
0.35812
0.363807
0.388477
0.451462
0.16799
0.164619
0.438645
0.377414
0.358282
0.359749
0.367417
0.377013
0.381235
0.382981
0.383382
0.382868
0.381475
0.378834
0.374003
0.36498
0.35782
0.359805
0.380003
0.439783
0.161147
0.159236
0.425908
0.366249
0.351632
0.357058
0.367778
0.37734
0.382412
0.384602
0.385227
0.384766
0.383277
0.380454
0.375532
0.367665
0.359482
0.353971
0.369118
0.425718
0.15348
0.154016
0.414739
0.358758
0.347706
0.355561
0.369554
0.378055
0.382749
0.38541
0.386363
0.386027
0.38449
0.381479
0.376161
0.367239
0.356366
0.347703
0.359234
0.410575
0.146865
0.147753
0.401164
0.35245
0.347066
0.355574
0.366877
0.375714
0.381071
0.38469
0.386245
0.386162
0.384614
0.381536
0.376214
0.367482
0.35478
0.343461
0.349525
0.394804
0.142536
0.140708
0.383833
0.345458
0.343754
0.356062
0.367514
0.375739
0.381047
0.384153
0.385484
0.385329
0.383688
0.38041
0.375106
0.367483
0.358451
0.343837
0.341049
0.379387
0.13983
0.137627
0.365869
0.338108
0.346823
0.358139
0.368508
0.376072
0.381061
0.38408
0.385449
0.385348
0.38379
0.380648
0.375648
0.368393
0.358763
0.344966
0.336403
0.364703
0.139046
0.138996
0.351069
0.333919
0.346583
0.359916
0.371747
0.377096
0.381492
0.384425
0.386478
0.386522
0.385219
0.382468
0.378344
0.372139
0.361851
0.351095
0.337684
0.352844
0.143129
0.146009
0.340834
0.337481
0.349914
0.364308
0.37278
0.377625
0.381615
0.38408
0.385538
0.385431
0.384199
0.381365
0.377568
0.372441
0.36552
0.353483
0.336769
0.340247
0.145871
0.151132
0.33595
0.341369
0.353846
0.365924
0.373293
0.378639
0.381948
0.383573
0.3841
0.383837
0.382948
0.381112
0.377644
0.374671
0.368664
0.358681
0.342578
0.336418
0.155248
0.163425
0.333063
0.345367
0.359282
0.367917
0.372737
0.377159
0.379381
0.380388
0.380822
0.380911
0.380603
0.379573
0.376952
0.373827
0.369892
0.362018
0.34715
0.334038
0.164688
0.174667
0.332361
0.350894
0.363886
0.369931
0.372855
0.375684
0.376669
0.377032
0.377196
0.377278
0.377285
0.377068
0.376392
0.374574
0.371324
0.365742
0.353089
0.333316
0.175756
0.189297
0.333503
0.357982
0.368352
0.371974
0.373884
0.374271
0.374196
0.374051
0.373995
0.374067
0.374273
0.374499
0.374559
0.373917
0.371413
0.368709
0.358527
0.334647
0.190738
0.207969
0.341117
0.365816
0.372545
0.37368
0.373481
0.372954
0.372305
0.371817
0.371589
0.371629
0.371949
0.372491
0.373202
0.373868
0.374012
0.372743
0.366103
0.339959
0.206815
0.225912
0.350302
0.375116
0.377559
0.376065
0.374092
0.372476
0.371296
0.370542
0.37019
0.370201
0.370578
0.371308
0.372379
0.373741
0.375657
0.37742
0.375395
0.351289
0.226582
0.247378
0.36696
0.385978
0.382412
0.377928
0.374467
0.372376
0.37101
0.370191
0.369814
0.369815
0.370197
0.371006
0.37235
0.374409
0.377868
0.382433
0.385673
0.366302
0.24719
0.269753
0.387883
0.396773
0.38665
0.379564
0.37535
0.372721
0.3712
0.370342
0.369957
0.369956
0.370339
0.371186
0.372685
0.375292
0.379383
0.386557
0.397066
0.388532
0.26983
0.291102
0.412968
0.405851
0.388616
0.380127
0.375663
0.3732
0.371794
0.371043
0.370715
0.37071
0.371027
0.371782
0.373177
0.375633
0.380096
0.388677
0.405969
0.412881
0.291406
0.314856
0.43594
0.40975
0.389043
0.380051
0.375726
0.373544
0.37243
0.371888
0.371671
0.371676
0.371897
0.372447
0.373546
0.375733
0.380037
0.389052
0.409781
0.435981
0.314688
0.337536
0.445478
0.407258
0.385728
0.378041
0.375005
0.373722
0.373159
0.372923
0.372841
0.372844
0.372934
0.373179
0.37374
0.375016
0.378037
0.385692
0.407209
0.445492
0.338079
0.364635
0.422066
0.386583
0.377515
0.375364
0.374612
0.374341
0.374269
0.374254
0.374251
0.374251
0.374253
0.37427
0.374341
0.374614
0.375366
0.37752
0.386591
0.422116
0.364492
0.533397
1.0421
0.854623
0.685293
0.574098
0.50588
0.46532
0.440728
0.426291
0.418831
0.417353
0.422006
0.434228
0.45754
0.499032
0.569518
0.68486
0.851464
1.03016
0.522814
0.531927
1.04072
0.849103
0.684296
0.575509
0.506971
0.466846
0.441516
0.426619
0.41876
0.417194
0.422026
0.434355
0.457717
0.499317
0.569133
0.682024
0.844182
1.02049
0.522243
0.530241
1.03898
0.856418
0.684881
0.576083
0.506887
0.465814
0.440825
0.426305
0.418573
0.417022
0.421782
0.434267
0.457743
0.499516
0.570156
0.687832
0.852396
1.02929
0.522748
0.528587
1.02429
0.854885
0.687077
0.576969
0.507395
0.466682
0.441053
0.426281
0.418527
0.416918
0.421658
0.434335
0.457908
0.500032
0.571567
0.687746
0.845072
1.03719
0.522693
0.529668
1.03137
0.847926
0.687954
0.577332
0.508181
0.465375
0.440638
0.426048
0.418324
0.416751
0.421516
0.434524
0.458235
0.499862
0.571167
0.68791
0.857069
1.04119
0.524366
0.529441
1.03926
0.851996
0.687708
0.57757
0.507762
0.465839
0.440174
0.425739
0.417985
0.416504
0.421297
0.434116
0.457617
0.499432
0.569513
0.686208
0.85507
1.04059
0.525019
0.52856
1.03934
0.856365
0.689534
0.577738
0.506806
0.464833
0.440085
0.425489
0.417801
0.416317
0.421129
0.433762
0.457478
0.499308
0.570058
0.684148
0.852826
1.04132
0.525053
0.526671
1.02713
0.853076
0.684934
0.575879
0.506668
0.464923
0.44068
0.42538
0.417618
0.416111
0.420998
0.433672
0.457511
0.499107
0.569209
0.681685
0.84156
1.02768
0.522187
0.525802
1.03083
0.844998
0.684963
0.574943
0.506478
0.465079
0.439845
0.425044
0.417462
0.415973
0.420787
0.433218
0.457609
0.498911
0.568304
0.679276
0.843202
1.02813
0.521848
0.524874
1.03485
0.84599
0.684228
0.574697
0.506009
0.464537
0.439512
0.424887
0.417277
0.415828
0.420663
0.433045
0.456436
0.498881
0.567775
0.680178
0.847637
1.02871
0.520415
0.522984
1.03196
0.846149
0.686109
0.575302
0.507268
0.465696
0.440036
0.424866
0.417187
0.415773
0.420499
0.433094
0.456096
0.497752
0.566734
0.676578
0.840143
1.03653
0.520229
0.521971
1.01752
0.852155
0.684877
0.575969
0.507654
0.465642
0.439888
0.424832
0.417135
0.415687
0.420353
0.432628
0.455799
0.497952
0.56607
0.674559
0.847866
1.03515
0.518602
0.521887
1.02209
0.850598
0.687989
0.576213
0.508819
0.466205
0.440122
0.42492
0.417278
0.415719
0.420401
0.432932
0.455617
0.49704
0.564909
0.672511
0.842802
1.01929
0.516743
0.522116
1.0136
0.85518
0.68763
0.577342
0.510031
0.46765
0.440856
0.42525
0.417544
0.41575
0.420417
0.432569
0.455299
0.495461
0.563166
0.670791
0.839362
1.01993
0.515135
0.524172
1.02722
0.851192
0.685394
0.578395
0.511307
0.468157
0.441093
0.425388
0.417732
0.416007
0.420474
0.432729
0.454935
0.494446
0.561247
0.670231
0.835367
1.00998
0.512831
0.524184
1.03329
0.86352
0.684552
0.579179
0.512269
0.46906
0.441683
0.42568
0.417886
0.416059
0.420482
0.432616
0.455355
0.494685
0.561129
0.668237
0.835439
1.01579
0.510294
0.523906
1.03989
0.864969
0.687838
0.580933
0.513275
0.469891
0.442288
0.426142
0.418079
0.416273
0.420458
0.432211
0.454644
0.494688
0.560986
0.670301
0.828726
1.02435
0.511091
0.522748
1.02568
0.863322
0.686801
0.581453
0.513899
0.470656
0.442951
0.426627
0.418372
0.416509
0.420499
0.432065
0.45456
0.494572
0.561343
0.670275
0.836937
1.02424
0.512274
0.520534
1.03166
0.865
0.689583
0.582379
0.514121
0.470974
0.443327
0.426925
0.418594
0.416527
0.420527
0.432421
0.454654
0.494473
0.562179
0.674003
0.826623
1.0103
0.511791
0.524232
1.0413
0.865866
0.691984
0.581958
0.512895
0.470513
0.443389
0.426943
0.418539
0.416333
0.420481
0.432361
0.454912
0.494728
0.560727
0.673975
0.832345
1.02157
0.513972
0.525763
1.04282
0.865706
0.695059
0.582023
0.513294
0.469662
0.443145
0.426984
0.418507
0.416289
0.4205
0.432306
0.455513
0.495388
0.562065
0.673519
0.837031
1.029
0.514116
0.525318
1.03162
0.865034
0.694456
0.579557
0.510304
0.470117
0.442712
0.426839
0.418286
0.416226
0.420541
0.43232
0.45515
0.495543
0.562564
0.672661
0.829599
1.02595
0.513075
0.526671
1.05036
0.865994
0.693454
0.579395
0.509949
0.468673
0.442716
0.4269
0.418173
0.416108
0.420448
0.432602
0.455759
0.495938
0.563118
0.669028
0.836585
1.0114
0.511536
0.530063
1.05256
0.865078
0.689423
0.578408
0.509765
0.469376
0.441758
0.426513
0.417944
0.41582
0.420301
0.432272
0.455376
0.495806
0.563893
0.670935
0.827488
1.0168
0.511336
0.528759
1.05076
0.862258
0.690561
0.577965
0.509195
0.467732
0.44132
0.426119
0.417569
0.415506
0.420016
0.432313
0.455759
0.495659
0.563585
0.673793
0.830839
1.02053
0.511794
0.526035
1.04966
0.860059
0.685764
0.577066
0.508148
0.465906
0.441036
0.425633
0.416935
0.414881
0.419548
0.431797
0.454887
0.49561
0.563208
0.673439
0.832551
1.0182
0.511656
0.526537
1.04575
0.855979
0.685604
0.576425
0.507744
0.466397
0.441902
0.425264
0.416531
0.414571
0.419181
0.431269
0.45465
0.49629
0.562547
0.672746
0.839471
1.00296
0.510429
0.521484
1.02803
0.850181
0.683152
0.574513
0.506678
0.46469
0.440771
0.424421
0.416039
0.414352
0.419053
0.431233
0.454907
0.495656
0.562965
0.668608
0.840962
1.01492
0.51298
0.519653
1.02932
0.839498
0.680189
0.57278
0.506088
0.46443
0.440412
0.42402
0.416026
0.414427
0.418999
0.431136
0.454354
0.495024
0.563443
0.673113
0.842166
1.01288
0.512394
0.517065
1.02404
0.840093
0.679399
0.571025
0.50486
0.463965
0.4397
0.423761
0.415882
0.41438
0.419044
0.431181
0.454827
0.49555
0.564189
0.676599
0.842906
1.02919
0.515564
0.51591
1.02408
0.843351
0.678902
0.569829
0.50366
0.463939
0.439262
0.423709
0.416063
0.414531
0.419122
0.431197
0.454098
0.494712
0.563288
0.675115
0.840804
1.02275
0.516188
0.514206
1.02316
0.843281
0.678223
0.569191
0.503844
0.464911
0.438731
0.423603
0.416044
0.414626
0.419271
0.431269
0.454086
0.494527
0.563015
0.671503
0.835616
1.03307
0.518599
0.513879
1.0275
0.836734
0.678355
0.568325
0.502011
0.462529
0.437897
0.423418
0.416152
0.414823
0.419545
0.431735
0.454222
0.494384
0.562277
0.674086
0.841516
1.02688
0.517142
0.513174
1.02468
0.841584
0.675771
0.567778
0.502578
0.462672
0.437931
0.423558
0.416243
0.414918
0.419689
0.431894
0.454361
0.494267
0.560175
0.670537
0.8317
1.02071
0.514423
0.513087
1.01318
0.831341
0.674492
0.567086
0.500488
0.463379
0.438178
0.423733
0.416409
0.415103
0.419858
0.432169
0.454815
0.492983
0.559006
0.667279
0.832995
1.02154
0.512616
0.513888
1.02579
0.836565
0.674382
0.566673
0.500191
0.462477
0.437382
0.42366
0.416515
0.415285
0.420093
0.432512
0.45486
0.493443
0.558676
0.666883
0.833796
1.01671
0.511537
0.514063
1.01461
0.840118
0.673347
0.566157
0.499993
0.461702
0.437304
0.423837
0.416794
0.415654
0.420644
0.43297
0.454716
0.492707
0.558337
0.665475
0.825694
1.00639
0.510747
0.513913
1.02791
0.839644
0.673046
0.566333
0.499733
0.460685
0.437226
0.423882
0.417237
0.416193
0.421022
0.433261
0.455487
0.492755
0.558251
0.666418
0.833948
1.0132
0.511257
0.513169
1.02635
0.831291
0.671488
0.564466
0.499508
0.461102
0.437332
0.423843
0.417186
0.41616
0.420938
0.433194
0.454822
0.492928
0.558181
0.667136
0.83319
1.00509
0.511605
0.513318
1.02653
0.836796
0.671908
0.564434
0.499915
0.462537
0.437572
0.424105
0.41719
0.416106
0.420875
0.433274
0.454972
0.493169
0.558063
0.662828
0.826475
1.01419
0.513959
0.511888
1.01734
0.830518
0.669723
0.564119
0.500646
0.461296
0.437165
0.423708
0.416928
0.415927
0.420748
0.433203
0.455783
0.494407
0.558396
0.665695
0.834698
1.02125
0.514647
0.510191
1.01928
0.838984
0.671381
0.564414
0.49933
0.460218
0.43695
0.423613
0.416641
0.41568
0.420699
0.432797
0.455322
0.49486
0.559347
0.667685
0.830413
1.0115
0.514487
0.509824
1.02306
0.837872
0.672407
0.564441
0.500596
0.461231
0.437575
0.423508
0.416315
0.415439
0.420792
0.432839
0.455429
0.494918
0.56004
0.671769
0.841455
1.01943
0.516792
0.510055
1.02217
0.836937
0.672086
0.564339
0.499656
0.459896
0.436712
0.423129
0.415944
0.415047
0.420448
0.432929
0.456083
0.494412
0.560395
0.670768
0.840278
1.02557
0.516241
0.510041
1.01965
0.834493
0.671312
0.564362
0.500849
0.459831
0.436753
0.422889
0.415759
0.414915
0.420139
0.433046
0.455367
0.495015
0.560037
0.669459
0.837011
1.0251
0.516194
0.510654
1.01748
0.832724
0.670826
0.564466
0.498899
0.459655
0.437107
0.422812
0.415698
0.414899
0.419986
0.432381
0.455224
0.49409
0.559552
0.667838
0.826925
1.01533
0.51534
0.512765
1.01385
0.831173
0.670097
0.564309
0.499254
0.459582
0.436151
0.422518
0.415614
0.414799
0.420001
0.432501
0.456222
0.495062
0.559916
0.66474
0.82923
1.0226
0.515978
0.512215
1.00581
0.82945
0.669226
0.564261
0.500419
0.459896
0.436235
0.422514
0.415552
0.414744
0.420081
0.432464
0.455385
0.494255
0.560277
0.667401
0.829067
1.02761
0.515884
0.512613
1.01952
0.823682
0.668231
0.564882
0.500559
0.459936
0.436738
0.422333
0.415479
0.414719
0.420012
0.432641
0.455538
0.494199
0.559968
0.668728
0.8346
1.02886
0.516438
0.512089
1.01821
0.825969
0.666698
0.563734
0.499691
0.460124
0.436234
0.422244
0.415472
0.414705
0.420241
0.433043
0.455987
0.494982
0.559479
0.667001
0.832318
1.02459
0.514639
0.512206
1.01815
0.828748
0.666351
0.562103
0.498322
0.461181
0.437038
0.422381
0.415448
0.414592
0.420085
0.432953
0.456898
0.493706
0.558806
0.665524
0.823837
1.01263
0.511692
0.511768
1.01612
0.826418
0.665284
0.561725
0.498212
0.460486
0.436943
0.422414
0.415429
0.414509
0.419989
0.433141
0.455131
0.49359
0.557704
0.662483
0.825003
1.01466
0.508685
0.512332
1.01537
0.823051
0.664459
0.562304
0.498644
0.461429
0.437271
0.422575
0.41541
0.414404
0.419723
0.432466
0.453259
0.492639
0.556273
0.661195
0.826502
1.01924
0.508083
0.512065
1.01361
0.816437
0.66298
0.562601
0.498747
0.460529
0.436852
0.42241
0.415247
0.414148
0.419385
0.432107
0.452737
0.490679
0.554087
0.659504
0.823872
1.0175
0.507588
0.511925
1.01282
0.819779
0.662656
0.561147
0.498961
0.460759
0.436815
0.422413
0.415124
0.413924
0.418964
0.4315
0.452484
0.487893
0.551426
0.657285
0.815476
1.01441
0.50652
0.511168
1.00923
0.82052
0.66161
0.561044
0.500505
0.461243
0.437401
0.422626
0.415041
0.413734
0.418745
0.431077
0.452355
0.487317
0.550931
0.65591
0.813717
1.00459
0.506054
0.511328
1.00621
0.813513
0.660477
0.561815
0.499017
0.462114
0.436938
0.422418
0.414882
0.413484
0.418311
0.430246
0.451173
0.486678
0.550583
0.652856
0.809192
1.01202
0.505683
0.508503
0.996945
0.812901
0.65967
0.560515
0.499004
0.460674
0.436929
0.422463
0.414777
0.413255
0.417979
0.429422
0.449987
0.485962
0.5497
0.648624
0.800777
0.997105
0.5041
0.50886
0.996198
0.811909
0.658385
0.562428
0.501193
0.461231
0.437639
0.422571
0.414781
0.413185
0.417692
0.428661
0.448881
0.484229
0.545128
0.643738
0.797164
0.998525
0.500329
0.501051
0.992617
0.809409
0.655534
0.560878
0.500405
0.462158
0.437409
0.422623
0.414971
0.413235
0.417652
0.429308
0.449862
0.485231
0.542393
0.639856
0.792369
0.993042
0.492951
0.499762
0.990872
0.805579
0.652049
0.558959
0.499382
0.461366
0.437135
0.422698
0.41543
0.413442
0.417335
0.428133
0.447973
0.48171
0.535584
0.631635
0.787234
0.99367
0.486511
0.49832
0.991007
0.803188
0.650577
0.555806
0.497365
0.460424
0.437217
0.423123
0.415718
0.413438
0.417238
0.427583
0.448678
0.483142
0.530008
0.628316
0.782026
0.988293
0.483582
0.497537
0.994518
0.80044
0.64913
0.556263
0.498499
0.461232
0.437496
0.423555
0.416107
0.414057
0.417288
0.426863
0.445426
0.477553
0.52775
0.626383
0.77693
0.972345
0.481758
0.494761
0.992052
0.797199
0.646148
0.54984
0.494682
0.459135
0.43773
0.423816
0.416345
0.414264
0.417453
0.427093
0.443496
0.474454
0.525477
0.621007
0.769969
0.962416
0.480962
0.49058
0.977734
0.792838
0.64573
0.549086
0.495608
0.4594
0.437894
0.424091
0.416581
0.414431
0.417396
0.426173
0.443346
0.476348
0.524382
0.614702
0.764273
0.958055
0.471685
0.486284
0.97503
0.788467
0.646865
0.548117
0.493698