/*--------------------------------*- C++ -*----------------------------------*\
  =========                 |
  \\      /  F ield         | OpenFOAM: The Open Source CFD Toolbox
   \\    /   O peration     | Website:  https://openfoam.org
    \\  /    A nd           | Version:  6
     \\/     M anipulation  |
\*---------------------------------------------------------------------------*/
FoamFile
{
    version     2.0;
    format      ascii;
    class       volScalarField;
    location    "14";
    object      k;
}
// * * * * * * * * * * * * * * * * * * * * * * * * * * * * * * * * * * * * * //

dimensions      [0 2 -2 0 0 0 0];

internalField   nonuniform List<scalar> 
130000
(
0.393154
0.391931
0.389999
0.387454
0.384365
0.380835
0.376985
0.372948
0.368855
0.36483
0.360981
0.357393
0.35413
0.351233
0.348723
0.346601
0.344854
0.34346
0.342391
0.341617
0.393475
0.392275
0.390354
0.387805
0.384703
0.381152
0.377276
0.37321
0.36909
0.36504
0.361169
0.357564
0.354289
0.351383
0.348866
0.34674
0.344991
0.343597
0.342532
0.341762
0.393761
0.392583
0.390673
0.388122
0.385008
0.381436
0.377536
0.373444
0.369297
0.36522
0.361325
0.357697
0.354401
0.351478
0.348947
0.346808
0.345048
0.343649
0.342582
0.341817
0.393991
0.392829
0.390924
0.38837
0.385244
0.381654
0.37773
0.373611
0.369435
0.365331
0.36141
0.357759
0.354445
0.351508
0.348966
0.346819
0.345052
0.34365
0.342582
0.341818
0.394156
0.392999
0.391093
0.388531
0.385389
0.381778
0.377829
0.373684
0.369486
0.365363
0.361426
0.357762
0.354438
0.351494
0.348948
0.346799
0.345036
0.343635
0.342568
0.341803
0.394264
0.393102
0.391187
0.388609
0.385444
0.381812
0.377844
0.373681
0.36947
0.365338
0.361394
0.357728
0.354403
0.351458
0.348913
0.346767
0.345007
0.343609
0.342546
0.341784
0.394336
0.393159
0.391227
0.388624
0.385438
0.381788
0.377806
0.373636
0.369417
0.365279
0.361333
0.357667
0.354344
0.351403
0.348862
0.346722
0.344968
0.343576
0.342517
0.34176
0.39439
0.393192
0.391237
0.38861
0.385406
0.381739
0.377744
0.373562
0.369337
0.365196
0.36125
0.357586
0.354267
0.351333
0.3488
0.346667
0.344921
0.343536
0.342485
0.341734
0.394438
0.393216
0.391235
0.388586
0.385361
0.381675
0.377664
0.373472
0.36924
0.365096
0.361151
0.357492
0.35418
0.351253
0.348729
0.346606
0.344869
0.343493
0.34245
0.341706
0.394488
0.393241
0.391232
0.388559
0.385311
0.381605
0.377577
0.373373
0.369134
0.364988
0.361045
0.35739
0.354086
0.351169
0.348655
0.346542
0.344815
0.343449
0.342414
0.341678
0.394546
0.393273
0.391237
0.388538
0.385264
0.381535
0.37749
0.373273
0.369026
0.364878
0.360936
0.357287
0.353991
0.351083
0.34858
0.346478
0.344761
0.343406
0.34238
0.341652
0.394612
0.393315
0.391252
0.388528
0.385225
0.381471
0.377407
0.373176
0.368921
0.364769
0.360829
0.357185
0.353896
0.350998
0.348506
0.346415
0.344709
0.343364
0.342347
0.341628
0.394688
0.393366
0.391276
0.388525
0.385194
0.381415
0.37733
0.373085
0.36882
0.364664
0.360725
0.357086
0.353804
0.350916
0.348434
0.346354
0.34466
0.343325
0.342318
0.341607
0.394774
0.393427
0.391308
0.388528
0.385173
0.381369
0.377263
0.373002
0.368727
0.364567
0.360627
0.356992
0.353717
0.350838
0.348367
0.346298
0.344614
0.34329
0.342293
0.341591
0.394871
0.3935
0.391352
0.388541
0.385164
0.381334
0.377206
0.372929
0.368643
0.364477
0.360537
0.356904
0.353636
0.350766
0.348304
0.346246
0.344573
0.34326
0.342274
0.341582
0.394984
0.393589
0.391413
0.388571
0.385165
0.381313
0.377163
0.372867
0.368569
0.364397
0.360455
0.356825
0.353563
0.3507
0.348247
0.346199
0.344537
0.343233
0.342257
0.34157
0.395113
0.393695
0.391489
0.388616
0.385178
0.381305
0.377131
0.372817
0.368506
0.364326
0.360382
0.356754
0.353497
0.350641
0.348198
0.346159
0.344505
0.343209
0.342237
0.341553
0.395261
0.393819
0.391583
0.388677
0.385207
0.381306
0.377112
0.372779
0.368454
0.364266
0.360319
0.356692
0.353439
0.35059
0.348155
0.346125
0.34448
0.343191
0.342223
0.341544
0.395426
0.39396
0.391694
0.388755
0.385251
0.381317
0.377102
0.37275
0.368413
0.364216
0.360265
0.356638
0.353389
0.350547
0.348119
0.346098
0.34446
0.343177
0.342215
0.34154
0.39561
0.394119
0.391823
0.388849
0.385311
0.381346
0.377103
0.372736
0.368383
0.364176
0.36022
0.356594
0.353348
0.350512
0.348091
0.346077
0.344448
0.343173
0.342216
0.341542
0.395811
0.394297
0.391969
0.388961
0.385388
0.38139
0.37712
0.372732
0.368364
0.364146
0.360184
0.356557
0.353314
0.350483
0.348071
0.346065
0.344442
0.34317
0.342214
0.341542
0.396029
0.394492
0.392133
0.389089
0.38548
0.381448
0.377148
0.372735
0.368354
0.364124
0.360156
0.356527
0.353286
0.350461
0.348055
0.346057
0.344435
0.343162
0.342212
0.341548
0.396264
0.394704
0.392313
0.389234
0.385588
0.381521
0.37719
0.372751
0.368351
0.364109
0.360134
0.356502
0.353263
0.350441
0.348041
0.346049
0.344432
0.34317
0.342228
0.34157
0.396517
0.394934
0.392511
0.389395
0.385711
0.381607
0.377243
0.372777
0.368355
0.364104
0.360121
0.356484
0.353244
0.350426
0.348031
0.346048
0.344441
0.343188
0.342253
0.341601
0.396789
0.395183
0.392728
0.389573
0.385849
0.381708
0.37731
0.372815
0.368371
0.364105
0.360114
0.356471
0.353228
0.350412
0.348023
0.346049
0.344456
0.343214
0.342286
0.341639
0.397081
0.395452
0.392963
0.389769
0.386004
0.381823
0.377389
0.372863
0.368394
0.364108
0.360107
0.356459
0.353215
0.350399
0.348013
0.346042
0.344462
0.343233
0.342314
0.341671
0.397393
0.395741
0.393217
0.389983
0.386175
0.381952
0.377481
0.372923
0.368427
0.364121
0.360105
0.356452
0.353206
0.350391
0.348007
0.346037
0.344456
0.343233
0.342321
0.341683
0.397725
0.396049
0.393491
0.390215
0.386363
0.382097
0.377587
0.372995
0.368471
0.364144
0.360114
0.356454
0.353205
0.35039
0.348008
0.346038
0.344457
0.343231
0.34232
0.341682
0.398077
0.396378
0.393785
0.390466
0.386569
0.382259
0.377707
0.373079
0.368526
0.364175
0.360128
0.356458
0.353205
0.350386
0.348001
0.346034
0.344455
0.343231
0.342321
0.341686
0.39845
0.396729
0.394099
0.390737
0.386793
0.382437
0.377842
0.373177
0.368592
0.364215
0.360148
0.356463
0.353202
0.350378
0.347993
0.346029
0.344456
0.34324
0.342339
0.341717
0.398844
0.397101
0.394436
0.39103
0.387038
0.382634
0.377995
0.37329
0.368671
0.364268
0.36018
0.356479
0.353207
0.350384
0.348002
0.34604
0.34447
0.343254
0.342357
0.341742
0.39926
0.397498
0.394797
0.391346
0.387305
0.382852
0.378167
0.37342
0.368766
0.364333
0.360223
0.356505
0.353222
0.350393
0.348012
0.34605
0.344477
0.343261
0.342363
0.341746
0.399702
0.39792
0.395184
0.391687
0.387596
0.383092
0.378359
0.373569
0.368878
0.364414
0.360278
0.35654
0.353243
0.350401
0.348012
0.346049
0.344482
0.343269
0.342375
0.341755
0.400172
0.398372
0.3956
0.392057
0.387914
0.383358
0.378575
0.37374
0.369009
0.364513
0.36035
0.356591
0.353276
0.35042
0.348018
0.346049
0.344481
0.343271
0.342383
0.341769
0.400671
0.398855
0.396048
0.392457
0.388262
0.383652
0.378817
0.373935
0.369164
0.364633
0.360443
0.356662
0.353329
0.350459
0.348046
0.346067
0.344489
0.343277
0.342382
0.341765
0.401204
0.399372
0.39653
0.392891
0.388642
0.383976
0.379088
0.374157
0.369344
0.364777
0.360558
0.356755
0.353404
0.350521
0.348097
0.346108
0.344522
0.343298
0.342394
0.341772
0.401772
0.399927
0.39705
0.393363
0.389057
0.384334
0.37939
0.374409
0.369551
0.364948
0.360699
0.356872
0.353504
0.350607
0.348172
0.346176
0.344582
0.343351
0.342442
0.341813
0.402381
0.400523
0.397611
0.393874
0.389511
0.384728
0.379727
0.374693
0.369789
0.365147
0.360867
0.357015
0.353628
0.350717
0.348272
0.346268
0.344668
0.343432
0.342516
0.341882
0.403032
0.401165
0.398218
0.39443
0.390008
0.385163
0.380101
0.375012
0.37006
0.365377
0.361063
0.357184
0.353777
0.350852
0.348396
0.346383
0.344777
0.343535
0.342615
0.341974
0.403731
0.401856
0.398875
0.395035
0.390551
0.385642
0.380517
0.37537
0.370366
0.365639
0.361289
0.357383
0.353954
0.351012
0.348544
0.346522
0.344909
0.343661
0.342735
0.342088
0.404483
0.402602
0.399586
0.395693
0.391145
0.386169
0.380978
0.37577
0.370711
0.365938
0.36155
0.357613
0.35416
0.3512
0.348718
0.346686
0.345064
0.343809
0.342875
0.342221
0.405288
0.403405
0.400356
0.396408
0.391795
0.386748
0.381489
0.376216
0.3711
0.366277
0.361848
0.357877
0.354398
0.351418
0.34892
0.346876
0.345244
0.343981
0.343039
0.342376
0.406155
0.404272
0.40119
0.397187
0.392506
0.387386
0.382054
0.376713
0.371535
0.36666
0.362186
0.35818
0.354672
0.351669
0.349155
0.347096
0.345453
0.344179
0.343228
0.342555
0.407088
0.405209
0.402095
0.398036
0.393285
0.388089
0.38268
0.377267
0.372024
0.367092
0.362571
0.358525
0.354987
0.351959
0.349425
0.347351
0.345694
0.344409
0.343446
0.342762
0.408095
0.406224
0.403079
0.398963
0.394138
0.388862
0.383373
0.377884
0.372572
0.36758
0.363008
0.35892
0.355347
0.352292
0.349736
0.347644
0.345973
0.344674
0.343698
0.343
0.409184
0.407325
0.40415
0.399975
0.395075
0.389715
0.384141
0.378572
0.373187
0.36813
0.363503
0.35937
0.35576
0.352675
0.350094
0.347982
0.346294
0.344979
0.343989
0.343276
0.410366
0.408523
0.405317
0.401082
0.396104
0.390656
0.384994
0.379339
0.373876
0.36875
0.364064
0.359882
0.356231
0.353113
0.350506
0.348372
0.346664
0.345332
0.344325
0.343595
0.411641
0.409822
0.406591
0.402295
0.397235
0.391696
0.38594
0.380195
0.37465
0.36945
0.364701
0.360465
0.356771
0.353617
0.35098
0.348821
0.347092
0.34574
0.344713
0.343963
0.413024
0.411236
0.407982
0.403626
0.398482
0.392847
0.386992
0.381152
0.375518
0.37024
0.365423
0.36113
0.357387
0.354194
0.351524
0.349338
0.347584
0.34621
0.345161
0.344388
0.414528
0.412781
0.409507
0.405089
0.399858
0.394123
0.388164
0.382222
0.376495
0.371133
0.366243
0.361887
0.358093
0.354857
0.352151
0.349934
0.348153
0.346753
0.345679
0.344881
0.416169
0.41447
0.41118
0.4067
0.401379
0.395539
0.38947
0.383421
0.377594
0.372143
0.367174
0.362752
0.358902
0.355618
0.352873
0.350621
0.34881
0.347381
0.346279
0.345451
0.41796
0.416321
0.413018
0.408477
0.403063
0.397113
0.390929
0.384767
0.378833
0.373286
0.368234
0.36374
0.359829
0.356494
0.353705
0.351415
0.34957
0.348109
0.346974
0.346112
0.419917
0.418351
0.415043
0.41044
0.404931
0.398867
0.392562
0.386279
0.380233
0.374584
0.369442
0.364871
0.360893
0.357503
0.354666
0.352334
0.35045
0.348953
0.347781
0.346881
0.422061
0.420582
0.417276
0.412614
0.407007
0.400825
0.394393
0.387984
0.381818
0.376061
0.370822
0.366167
0.362119
0.358667
0.355778
0.3534
0.351473
0.349934
0.348721
0.347775
0.424412
0.42304
0.419744
0.415027
0.409321
0.403016
0.396451
0.389909
0.383617
0.377743
0.372402
0.367658
0.363533
0.360015
0.357068
0.354639
0.352664
0.351078
0.349816
0.34882
0.426999
0.425753
0.42248
0.417712
0.411907
0.405475
0.398771
0.392089
0.385664
0.379668
0.374217
0.369377
0.365169
0.361579
0.358569
0.356082
0.354053
0.352414
0.351097
0.350042
0.42985
0.428757
0.425522
0.420708
0.414805
0.408244
0.401395
0.394567
0.388001
0.381875
0.376308
0.371365
0.367067
0.363399
0.360319
0.357769
0.355679
0.353979
0.352599
0.351475
0.433001
0.432092
0.428912
0.424063
0.418063
0.411371
0.404374
0.397393
0.390678
0.384415
0.378724
0.373672
0.369278
0.365525
0.362369
0.359747
0.357589
0.35582
0.354367
0.353163
0.436494
0.435806
0.432704
0.427831
0.42174
0.414916
0.407766
0.400627
0.393759
0.387351
0.381529
0.37636
0.371862
0.368017
0.364777
0.362077
0.359841
0.357992
0.356454
0.355157
0.440379
0.439956
0.436961
0.432079
0.425905
0.418951
0.411648
0.404346
0.397318
0.390759
0.384799
0.379506
0.374897
0.370951
0.367619
0.36483
0.362506
0.360566
0.358929
0.357523
0.444713
0.444608
0.441756
0.436889
0.430644
0.423566
0.416109
0.408642
0.401449
0.394734
0.388629
0.383204
0.378477
0.374422
0.370987
0.3681
0.365675
0.363629
0.361875
0.360339
0.44957
0.449841
0.44718
0.442358
0.43606
0.428868
0.421262
0.41363
0.40627
0.399394
0.393139
0.387576
0.382721
0.378549
0.375002
0.372002
0.369462
0.367291
0.365401
0.36371
0.45504
0.455758
0.453346
0.448608
0.442284
0.434993
0.427247
0.419455
0.411929
0.40489
0.39848
0.392773
0.387784
0.383484
0.379812
0.376685
0.374011
0.371694
0.36964
0.367763
0.46122
0.462482
0.460393
0.455791
0.449476
0.442112
0.434243
0.426301
0.418613
0.411413
0.404847
0.398992
0.393861
0.389423
0.385611
0.38234
0.379509
0.377018
0.374766
0.372663
0.468234
0.470161
0.46849
0.464095
0.457841
0.450441
0.442475
0.434401
0.426565
0.419211
0.412492
0.406486
0.401206
0.396618
0.392651
0.389213
0.386197
0.383496
0.381003
0.378623
0.476236
0.478981
0.477853
0.473758
0.467637
0.460255
0.452234
0.444061
0.436099
0.428607
0.421743
0.415589
0.410156
0.405407
0.401264
0.397631
0.394393
0.391436
0.388647
0.385922
0.485416
0.489173
0.488749
0.485083
0.479194
0.471911
0.4639
0.455677
0.447629
0.440027
0.433038
0.426744
0.421156
0.416233
0.411893
0.408029
0.404522
0.401249
0.398088
0.394927
0.496013
0.501034
0.501523
0.498456
0.492942
0.485874
0.477968
0.469774
0.461703
0.45404
0.44696
0.440546
0.434809
0.429701
0.425135
0.420996
0.417157
0.413485
0.409852
0.406136
0.508325
0.514962
0.516581
0.514377
0.50944
0.502755
0.495094
0.487049
0.479054
0.471408
0.464295
0.457799
0.451928
0.446628
0.441804
0.437334
0.433079
0.4289
0.424657
0.420222
0.522741
0.531484
0.534581
0.533528
0.52943
0.523359
0.516147
0.508424
0.500654
0.493149
0.486098
0.479586
0.473614
0.468124
0.463008
0.458136
0.453358
0.448526
0.443489
0.438111
0.539759
0.551209
0.556245
0.55675
0.55386
0.548729
0.542254
0.535109
0.527783
0.520603
0.513762
0.50734
0.501332
0.495667
0.490229
0.484872
0.479437
0.473763
0.467689
0.461067
0.559989
0.574932
0.582528
0.585055
0.583932
0.580197
0.574858
0.568644
0.562071
0.555479
0.549062
0.542893
0.536955
0.531162
0.525383
0.519457
0.513209
0.506462
0.499044
0.490792
0.584257
0.603689
0.614847
0.620021
0.621212
0.619431
0.615738
0.610912
0.605497
0.599842
0.594137
0.588447
0.582737
0.576904
0.570796
0.564229
0.557011
0.548941
0.539825
0.529478
0.613624
0.638751
0.654563
0.66327
0.667383
0.668354
0.666947
0.664067
0.660297
0.655998
0.651356
0.646424
0.641153
0.635414
0.629034
0.6218
0.613489
0.603867
0.592699
0.579759
0.64939
0.681746
0.70352
0.717102
0.724922
0.729231
0.730725
0.730384
0.728781
0.72628
0.723071
0.719201
0.714605
0.709136
0.702592
0.694728
0.685279
0.673956
0.660461
0.644488
0.693122
0.734554
0.763705
0.783333
0.796137
0.804117
0.809108
0.812019
0.81309
0.81279
0.811344
0.808808
0.805114
0.800101
0.793543
0.785155
0.774622
0.761576
0.745626
0.726341
0.746648
0.799228
0.837368
0.864257
0.883056
0.8961
0.904995
0.911014
0.915108
0.917241
0.917777
0.916771
0.914152
0.909758
0.903344
0.894585
0.883103
0.868441
0.850081
0.827422
0.811971
0.877878
0.926588
0.961883
0.987496
1.00613
1.01967
1.02945
1.03626
1.04082
1.04351
1.04412
1.04266
1.03899
1.03286
1.02389
1.01164
0.995547
0.974958
0.949059
0.891172
0.972525
1.03325
1.07793
1.111
1.13564
1.15404
1.16774
1.17777
1.1848
1.18928
1.19144
1.1911
1.18821
1.18246
1.17344
1.16061
1.14332
1.12076
1.09188
0.986234
1.08493
1.15888
1.21368
1.25466
1.28552
1.30886
1.32647
1.33959
1.34904
1.35535
1.35879
1.35942
1.3573
1.35203
1.34309
1.32989
1.31165
1.2874
1.25589
1.09888
1.21645
1.30448
1.36988
1.41893
1.45601
1.48412
1.50542
1.52136
1.53296
1.54087
1.54545
1.54688
1.54543
1.5407
1.53196
1.51858
1.49968
1.47411
1.44039
1.2304
1.36784
1.47043
1.54652
1.60351
1.64648
1.67893
1.7034
1.72162
1.73488
1.74398
1.74946
1.75149
1.75042
1.74615
1.73772
1.72437
1.70517
1.67877
1.64347
1.38146
1.53916
1.65623
1.74263
1.80693
1.85498
1.89086
1.91752
1.93706
1.95107
1.96056
1.96625
1.96844
1.96758
1.96366
1.95564
1.94261
1.92361
1.89712
1.86117
1.55194
1.7294
1.86011
1.9557
2.02594
2.07753
2.11517
2.14234
2.16158
2.17481
2.18338
2.18821
2.18979
2.18868
2.18489
2.17735
2.16505
2.14697
2.12145
2.08628
1.7407
1.93624
2.07862
2.18113
2.25481
2.30725
2.3439
2.36884
2.38516
2.39523
2.40076
2.40302
2.40271
2.40052
2.39638
2.3893
2.37832
2.36223
2.33925
2.30696
1.94519
2.15547
2.30589
2.41142
2.48439
2.5334
2.56476
2.58331
2.59279
2.59612
2.5954
2.59244
2.58836
2.58357
2.57802
2.57128
2.56233
2.54979
2.5316
2.50514
2.16119
2.38054
2.53308
2.63544
2.70131
2.74047
2.76024
2.76636
2.76363
2.75551
2.74432
2.73225
2.72081
2.71091
2.70276
2.6961
2.68992
2.68274
2.67229
2.65567
2.38234
2.60202
2.74765
2.83761
2.88713
2.90751
2.90747
2.89294
2.86855
2.83968
2.81074
2.78429
2.76191
2.74454
2.73238
2.72517
2.72194
2.7213
2.72123
2.71924
2.59987
2.8072
2.93298
2.99757
3.01755
3.00545
2.97208
2.92896
2.88061
2.83178
2.78617
2.74606
2.71299
2.68792
2.67114
2.66257
2.6614
2.66596
2.67483
2.68637
2.80236
2.97987
3.06766
3.0875
3.06169
3.00984
2.93877
2.8562
2.77287
2.69361
2.62181
2.5602
2.51017
2.47249
2.44741
2.43514
2.43464
2.44397
2.46429
2.49505
2.97571
3.09967
3.12486
3.08669
3.00303
2.88824
2.762
2.63472
2.51412
2.40505
2.31016
2.23068
2.16682
2.11842
2.08521
2.06733
2.06386
2.07266
2.09686
2.13907
3.10087
3.1413
3.0844
2.95623
2.78928
2.6061
2.42403
2.25457
2.10412
1.97528
1.86799
1.78081
1.71166
1.65869
1.62052
1.59657
1.58694
1.59043
1.60835
1.64925
3.15263
3.08019
2.90241
2.66568
2.40791
2.15741
1.93195
1.74015
1.58342
1.45875
1.36105
1.28492
1.22562
1.17966
1.14483
1.12047
1.10691
1.10364
1.11111
1.14154
3.11487
2.88164
2.55556
2.20074
1.86484
1.57635
1.34763
1.1767
1.0535
0.96602
0.90316
0.856508
0.820629
0.792202
0.769879
0.75462
0.750497
0.75757
0.77988
0.84606
2.91653
2.49561
2.02294
1.58684
1.23664
0.981035
0.8167
0.717961
0.658817
0.621962
0.597881
0.581778
0.57089
0.564101
0.561431
0.564732
0.574158
0.596385
0.652227
0.790334
2.49059
1.89174
1.35398
0.962421
0.730706
0.610675
0.547584
0.512228
0.490919
0.477341
0.468559
0.463197
0.460944
0.461742
0.46553
0.473466
0.489804
0.527703
0.629736
0.89436
1.75616
1.13661
0.760353
0.589328
0.510164
0.469122
0.445631
0.43122
0.422091
0.416133
0.41248
0.410654
0.410695
0.412561
0.417087
0.425925
0.445279
0.495403
0.656918
1.12765
1.04546
0.669305
0.516117
0.456059
0.427803
0.41183
0.401849
0.395279
0.390968
0.388153
0.38652
0.385774
0.386053
0.38749
0.391191
0.399123
0.417744
0.471499
0.660919
1.22159
0.811627
0.518609
0.429661
0.40356
0.392962
0.387045
0.383189
0.380563
0.378873
0.377795
0.377278
0.377087
0.377354
0.37797
0.379618
0.383639
0.395412
0.432553
0.579991
1.11313
0.717868
0.442629
0.392973
0.382827
0.379103
0.377215
0.376145
0.375521
0.375168
0.374967
0.374892
0.374887
0.374989
0.375209
0.375785
0.37714
0.380821
0.392052
0.439185
0.696229
0.34362
0.343192
0.342661
0.342122
0.341587
0.341071
0.340586
0.34015
0.339774
0.339472
0.33925
0.33911
0.33905
0.339067
0.339156
0.339311
0.339523
0.339787
0.340097
0.340445
0.343858
0.343421
0.342885
0.342339
0.341797
0.341272
0.340778
0.340332
0.339948
0.339636
0.339406
0.339259
0.339194
0.339206
0.339291
0.339442
0.33965
0.33991
0.340215
0.340559
0.344025
0.343581
0.343039
0.342486
0.341935
0.341401
0.340899
0.340444
0.34005
0.339729
0.339489
0.339334
0.339264
0.339274
0.339361
0.339512
0.339718
0.339969
0.340266
0.340606
0.344138
0.343692
0.343146
0.342589
0.342034
0.341496
0.340989
0.340529
0.34013
0.339802
0.339555
0.339394
0.339323
0.33934
0.339429
0.33958
0.339784
0.340033
0.340329
0.340667
0.344207
0.343765
0.343223
0.342668
0.342114
0.341577
0.341071
0.340615
0.340217
0.339887
0.339632
0.339462
0.33938
0.339381
0.339464
0.339609
0.339807
0.340057
0.340354
0.340691
0.344266
0.34383
0.343295
0.342746
0.342195
0.341658
0.341152
0.340691
0.340285
0.339943
0.339673
0.339491
0.339398
0.339388
0.339463
0.339608
0.339808
0.340061
0.340361
0.340698
0.344345
0.34391
0.343377
0.342826
0.342271
0.341724
0.341202
0.340717
0.340298
0.339954
0.33968
0.339498
0.339405
0.339402
0.339466
0.339611
0.339813
0.340069
0.340372
0.340713
0.344385
0.343945
0.343413
0.342862
0.342301
0.341745
0.341207
0.340705
0.340282
0.339948
0.339684
0.339499
0.339407
0.339403
0.339463
0.339597
0.339796
0.340052
0.340359
0.340709
0.344381
0.343943
0.343412
0.342853
0.342289
0.341737
0.341202
0.340708
0.340279
0.33994
0.339681
0.339498
0.339405
0.339394
0.339449
0.339585
0.339787
0.340042
0.340345
0.340694
0.344382
0.343948
0.343417
0.342854
0.34229
0.341738
0.3412
0.340708
0.340282
0.33994
0.339686
0.339506
0.339415
0.339406
0.339479
0.339621
0.339824
0.340078
0.340376
0.34071
0.344384
0.343944
0.343426
0.342874
0.342307
0.341735
0.341188
0.340696
0.34028
0.339937
0.339681
0.339505
0.33942
0.339425
0.339502
0.339646
0.339851
0.340106
0.340404
0.340737
0.344393
0.343956
0.343426
0.342871
0.342309
0.341742
0.341204
0.340708
0.340283
0.339938
0.339682
0.339506
0.339416
0.33941
0.339483
0.339626
0.339831
0.34009
0.340396
0.340728
0.344444
0.344
0.343454
0.342891
0.342327
0.341763
0.341232
0.340741
0.340319
0.33997
0.339702
0.339516
0.339414
0.339401
0.33947
0.339611
0.339816
0.340077
0.340394
0.340729
0.344489
0.344033
0.343484
0.342915
0.342337
0.341766
0.341234
0.34075
0.340334
0.339987
0.339722
0.339543
0.339447
0.33944
0.339512
0.339653
0.339853
0.340103
0.3404
0.340741
0.344506
0.344033
0.343479
0.342907
0.342324
0.341763
0.341221
0.34074
0.340324
0.33997
0.339705
0.339535
0.33946
0.339463
0.339543
0.339684
0.33988
0.34012
0.340394
0.340729
0.344519
0.344048
0.343483
0.342906
0.342312
0.341757
0.341223
0.340735
0.340307
0.339947
0.339684
0.339518
0.339454
0.339461
0.339541
0.339675
0.33987
0.340112
0.340394
0.340729
0.344521
0.344063
0.343495
0.342905
0.342305
0.341745
0.341223
0.340735
0.340314
0.339968
0.339706
0.339533
0.339464
0.339471
0.339548
0.339683
0.33988
0.340125
0.340418
0.340763
0.344524
0.344053
0.343483
0.342889
0.342293
0.341731
0.341214
0.340737
0.340321
0.339978
0.33972
0.339552
0.339478
0.339482
0.33956
0.339705
0.339904
0.340143
0.340436
0.340786
0.344536
0.344053
0.343479
0.342882
0.342302
0.341739
0.341209
0.340729
0.340311
0.339969
0.339719
0.339563
0.339482
0.33947
0.339542
0.339689
0.339893
0.34014
0.340443
0.340791
0.344594
0.344095
0.343501
0.342901
0.342315
0.341744
0.34121
0.340729
0.340319
0.33998
0.339727
0.339554
0.339466
0.339453
0.339531
0.339684
0.339898
0.340162
0.340469
0.340811
0.344673
0.344163
0.343557
0.342942
0.342336
0.341752
0.341211
0.340727
0.34032
0.339983
0.339728
0.339555
0.339478
0.339486
0.339576
0.339736
0.339956
0.340223
0.34053
0.340869
0.344766
0.34425
0.343636
0.343014
0.342399
0.341808
0.34126
0.340768
0.340349
0.340011
0.339763
0.339607
0.33954
0.339556
0.339652
0.339816
0.340038
0.340307
0.340613
0.340951
0.344869
0.344349
0.34373
0.343103
0.342484
0.34189
0.341338
0.340845
0.340424
0.340087
0.339842
0.339689
0.339625
0.339644
0.339742
0.339908
0.340131
0.340399
0.340705
0.34104
0.344979
0.344455
0.343833
0.343203
0.342582
0.341986
0.341433
0.340939
0.340519
0.340182
0.339937
0.339785
0.339722
0.339741
0.339839
0.340004
0.340226
0.340494
0.340798
0.341131
0.345092
0.344564
0.34394
0.343308
0.342685
0.342087
0.341534
0.341041
0.340621
0.340285
0.34004
0.339888
0.339824
0.339841
0.339938
0.340101
0.340322
0.340587
0.340889
0.34122
0.345208
0.344677
0.34405
0.343414
0.342789
0.342191
0.341638
0.341145
0.340726
0.340391
0.340146
0.339992
0.339927
0.339942
0.340036
0.340198
0.340416
0.340679
0.340978
0.341307
0.345327
0.344791
0.34416
0.34352
0.342892
0.342292
0.341739
0.341247
0.340829
0.340495
0.340249
0.340094
0.340026
0.340039
0.340131
0.340291
0.340508
0.34077
0.341068
0.341394
0.345452
0.34491
0.344273
0.343627
0.342993
0.342389
0.341833
0.34134
0.340924
0.340591
0.340344
0.340187
0.340118
0.34013
0.340223
0.340384
0.340602
0.340864
0.341161
0.341485
0.345586
0.345038
0.344393
0.343739
0.343096
0.342483
0.34192
0.341422
0.341001
0.340667
0.34042
0.340265
0.3402
0.340217
0.340315
0.34048
0.340701
0.340965
0.341261
0.341583
0.345735
0.34518
0.344527
0.343863
0.343211
0.342588
0.342015
0.341507
0.34108
0.340741
0.340497
0.340349
0.340291
0.340316
0.340421
0.340591
0.340816
0.341081
0.341377
0.341696
0.345902
0.34534
0.34468
0.344008
0.343347
0.342715
0.342134
0.341619
0.341187
0.340846
0.340604
0.340461
0.340409
0.34044
0.34055
0.340725
0.340952
0.341218
0.341512
0.341827
0.346091
0.345523
0.344857
0.344178
0.343509
0.342871
0.342283
0.341764
0.341329
0.340987
0.340747
0.340607
0.340559
0.340595
0.340709
0.340887
0.341116
0.341381
0.341672
0.341981
0.346303
0.34573
0.345058
0.344373
0.343698
0.343053
0.342461
0.341938
0.341501
0.34116
0.340921
0.340784
0.340739
0.340778
0.340896
0.341076
0.341306
0.34157
0.341858
0.342161
0.346541
0.345964
0.345286
0.344595
0.343914
0.343264
0.342667
0.342141
0.341702
0.341361
0.341123
0.340989
0.340947
0.340989
0.34111
0.341293
0.341523
0.341787
0.342071
0.342368
0.346808
0.346227
0.345545
0.344848
0.344161
0.343505
0.342903
0.342373
0.341933
0.341591
0.341355
0.341222
0.341183
0.341228
0.341352
0.341537
0.341768
0.34203
0.342311
0.342601
0.347109
0.346524
0.345837
0.345135
0.344441
0.343779
0.343173
0.342639
0.342197
0.341854
0.341619
0.341488
0.341451
0.341499
0.341625
0.341812
0.342043
0.342303
0.342579
0.342862
0.347449
0.34686
0.34617
0.345461
0.344761
0.344093
0.343481
0.342944
0.342499
0.342155
0.34192
0.341791
0.341756
0.341807
0.341935
0.342123
0.342354
0.342611
0.342882
0.343155
0.347833
0.347241
0.346547
0.345833
0.345127
0.344453
0.343835
0.343294
0.342845
0.342501
0.342266
0.342137
0.342104
0.342158
0.342288
0.342477
0.342706
0.34296
0.343225
0.343488
0.348266
0.347673
0.346975
0.346256
0.345544
0.344863
0.34424
0.343694
0.343243
0.342897
0.342661
0.342534
0.342503
0.342559
0.34269
0.342879
0.343107
0.343357
0.343614
0.343866
0.348757
0.348162
0.347462
0.346737
0.346019
0.345332
0.344703
0.344152
0.343698
0.34335
0.343115
0.342989
0.342959
0.343017
0.34315
0.343339
0.343565
0.343809
0.344057
0.344296
0.349312
0.348716
0.348014
0.347285
0.34656
0.345867
0.345232
0.344676
0.344219
0.343869
0.343634
0.343509
0.343481
0.34354
0.343674
0.343863
0.344086
0.344325
0.344563
0.344787
0.349942
0.349347
0.348643
0.34791
0.347179
0.346479
0.345838
0.345277
0.344816
0.344465
0.344229
0.344104
0.344078
0.344139
0.344274
0.344461
0.344681
0.344913
0.34514
0.345347
0.350656
0.350063
0.34936
0.348623
0.347887
0.34718
0.346532
0.345966
0.345501
0.345148
0.344911
0.344787
0.344762
0.344824
0.34496
0.345146
0.345362
0.345585
0.345799
0.345987
0.351469
0.35088
0.350178
0.349439
0.348697
0.347984
0.34733
0.346759
0.34629
0.345934
0.345696
0.345572
0.345548
0.345612
0.345747
0.345931
0.346141
0.346355
0.346553
0.346719
0.352395
0.351812
0.351115
0.350374
0.349628
0.348909
0.348248
0.347672
0.347198
0.346839
0.3466
0.346476
0.346452
0.346517
0.346652
0.346833
0.347036
0.347238
0.347418
0.347558
0.353454
0.35288
0.352189
0.351449
0.350699
0.349975
0.349308
0.348726
0.348248
0.347886
0.347646
0.347521
0.347498
0.347563
0.347697
0.347873
0.348067
0.348255
0.348413
0.348522
0.354667
0.354105
0.353425
0.352687
0.351936
0.351206
0.350534
0.349947
0.349465
0.3491
0.348857
0.348732
0.348709
0.348774
0.348904
0.349074
0.349257
0.349427
0.34956
0.349634
0.356061
0.355517
0.35485
0.354119
0.353367
0.352634
0.351958
0.351365
0.350878
0.35051
0.350265
0.350139
0.350115
0.350178
0.350305
0.350466
0.350635
0.350784
0.350887
0.350919
0.357667
0.357147
0.3565
0.355778
0.355029
0.354295
0.353614
0.353017
0.352526
0.352154
0.351907
0.351779
0.351754
0.351814
0.351933
0.352084
0.352236
0.352359
0.352424
0.352408
0.359525
0.359036
0.358416
0.357709
0.356966
0.356232
0.355549
0.354948
0.354453
0.354078
0.353827
0.353697
0.353669
0.353724
0.353835
0.353971
0.354101
0.354192
0.354213
0.35414
0.361682
0.361234
0.360649
0.359963
0.359232
0.358502
0.357818
0.357215
0.356717
0.356338
0.356083
0.355949
0.355917
0.355965
0.356063
0.356181
0.356282
0.356333
0.356302
0.356159
0.364194
0.3638
0.363262
0.362607
0.361892
0.361171
0.360491
0.359886
0.359386
0.359003
0.358743
0.358604
0.358567
0.358604
0.358685
0.358778
0.358843
0.358846
0.358751
0.358525
0.367131
0.366807
0.366332
0.365719
0.365031
0.364324
0.363651
0.363049
0.362547
0.362161
0.361895
0.361749
0.361702
0.361724
0.361784
0.361844
0.361864
0.361808
0.361634
0.361305
0.370579
0.370349
0.369958
0.369402
0.368752
0.368069
0.367409
0.366814
0.366312
0.365922
0.365648
0.36549
0.365429
0.365434
0.365464
0.365481
0.365445
0.365315
0.365043
0.364589
0.374664
0.374549
0.374265
0.373786
0.373189
0.372542
0.371904
0.37132
0.370823
0.37043
0.370148
0.369974
0.369894
0.369871
0.369859
0.369821
0.369712
0.369487
0.369092
0.368485
0.379515
0.379552
0.37941
0.379036
0.378514
0.377919
0.377315
0.376751
0.376263
0.37587
0.375578
0.375384
0.375275
0.375212
0.375144
0.375033
0.374831
0.374481
0.373931
0.373131
0.385319
0.385552
0.385599
0.385367
0.384952
0.384432
0.38388
0.383348
0.382876
0.382485
0.382182
0.381962
0.381811
0.381689
0.381546
0.38134
0.381008
0.380497
0.379748
0.378706
0.392328
0.39279
0.3931
0.393068
0.392802
0.392391
0.391916
0.391434
0.390988
0.390604
0.390289
0.39004
0.389832
0.389626
0.389375
0.389027
0.388523
0.3878
0.386795
0.385442
0.400903
0.401697
0.402278
0.402525
0.402471
0.402219
0.401856
0.401448
0.401042
0.400666
0.400331
0.400031
0.399741
0.39942
0.39902
0.398485
0.397748
0.396744
0.395401
0.393647
0.411474
0.412714
0.413704
0.414258
0.414515
0.414492
0.414295
0.413997
0.413651
0.41329
0.412925
0.41255
0.412142
0.41166
0.411049
0.41025
0.409194
0.40781
0.406017
0.403736
0.424676
0.426546
0.42814
0.429104
0.429692
0.430007
0.43005
0.429912
0.429656
0.429317
0.428911
0.428431
0.427852
0.427135
0.426224
0.425057
0.42356
0.421656
0.419255
0.416271
0.441338
0.444087
0.446537
0.448177
0.449189
0.449834
0.450229
0.450321
0.450192
0.449887
0.449421
0.448791
0.447972
0.446923
0.44559
0.443908
0.441798
0.43918
0.435954
0.432024
0.462593
0.466559
0.470184
0.472771
0.474514
0.475592
0.476272
0.476697
0.47675
0.476494
0.47595
0.475113
0.47396
0.472452
0.470533
0.468139
0.465188
0.461592
0.457245
0.452037
0.489935
0.495548
0.500754
0.504607
0.507335
0.509139
0.510213
0.510827
0.511146
0.510966
0.51033
0.509225
0.50763
0.505506
0.502802
0.499452
0.495371
0.490463
0.484613
0.477694
0.525187
0.53296
0.540215
0.545697
0.549684
0.552428
0.554152
0.555028
0.555353
0.555341
0.554623
0.553199
0.551052
0.548148
0.544443
0.539864
0.534326
0.527718
0.519909
0.51075
0.570411
0.580881
0.590657
0.598119
0.603617
0.60746
0.609905
0.611143
0.611548
0.611576
0.610903
0.609132
0.606342
0.602514
0.597608
0.591546
0.58423
0.575525
0.565274
0.553287
0.627687
0.641347
0.654054
0.663787
0.671
0.676082
0.679344
0.681069
0.681755
0.681864
0.681111
0.67893
0.675424
0.67057