/*--------------------------------*- C++ -*----------------------------------*\
  =========                 |
  \\      /  F ield         | OpenFOAM: The Open Source CFD Toolbox
   \\    /   O peration     | Website:  https://openfoam.org
    \\  /    A nd           | Version:  6
     \\/     M anipulation  |
\*---------------------------------------------------------------------------*/
FoamFile
{
    version     2.0;
    format      ascii;
    class       volScalarField;
    location    "14";
    object      nut;
}
// * * * * * * * * * * * * * * * * * * * * * * * * * * * * * * * * * * * * * //

dimensions      [0 2 -1 0 0 0 0];

internalField   nonuniform List<scalar> 
130000
(
0.000893317
0.000897294
0.00090032
0.000902441
0.000903765
0.000904411
0.000904498
0.000904139
0.000903439
0.000902486
0.000901351
0.000900087
0.000898741
0.000897352
0.000895943
0.000894535
0.000893134
0.000891743
0.000890367
0.000889003
0.000893305
0.000897281
0.000900298
0.000902404
0.000903711
0.000904337
0.000904404
0.000904023
0.000903303
0.000902334
0.000901191
0.000899932
0.000898603
0.00089723
0.000895828
0.000894412
0.00089299
0.000891574
0.000890178
0.000888814
0.00089339
0.000897374
0.000900391
0.00090249
0.000903783
0.000904397
0.000904459
0.000904084
0.000903386
0.000902443
0.000901324
0.000900086
0.000898782
0.000897407
0.000895984
0.000894531
0.000893054
0.000891585
0.000890128
0.000888765
0.000893516
0.000897516
0.000900539
0.000902648
0.000903967
0.000904615
0.000904707
0.000904355
0.000903679
0.000902734
0.000901598
0.000900336
0.000899016
0.000897617
0.000896167
0.000894681
0.000893159
0.000891634
0.000890088
0.00088867
0.000893656
0.000897682
0.000900738
0.000902897
0.000904269
0.000904937
0.000905028
0.00090466
0.000903972
0.000903004
0.000901839
0.000900532
0.000899149
0.00089771
0.000896232
0.000894728
0.000893204
0.000891664
0.000890102
0.000888613
0.000893796
0.000897858
0.000900975
0.00090317
0.000904549
0.000905209
0.000905284
0.000904887
0.00090415
0.000903154
0.00090197
0.000900655
0.000899252
0.000897792
0.000896296
0.000894778
0.000893249
0.000891716
0.000890186
0.000888676
0.000893921
0.00089802
0.00090118
0.000903364
0.000904706
0.000905354
0.000905424
0.000905033
0.000904287
0.000903278
0.00090208
0.000900749
0.000899329
0.000897851
0.000896339
0.000894806
0.000893264
0.000891716
0.000890161
0.000888606
0.000894018
0.000898128
0.000901297
0.000903476
0.00090483
0.000905479
0.000905546
0.00090515
0.000904396
0.000903376
0.000902164
0.000900818
0.000899382
0.000897888
0.000896359
0.000894811
0.000893252
0.000891686
0.000890105
0.000888516
0.0008941
0.000898208
0.000901385
0.000903577
0.000904936
0.000905586
0.000905649
0.000905246
0.000904483
0.000903452
0.000902227
0.000900866
0.000899415
0.000897905
0.000896361
0.000894799
0.000893229
0.000891659
0.000890089
0.000888512
0.000894191
0.000898315
0.000901465
0.000903671
0.000905034
0.000905682
0.00090574
0.000905329
0.000904556
0.000903513
0.000902275
0.0009009
0.000899434
0.000897909
0.00089635
0.000894776
0.000893199
0.00089163
0.000890079
0.000888556
0.000894278
0.000898423
0.000901548
0.00090377
0.000905132
0.000905774
0.000905824
0.000905404
0.000904621
0.000903565
0.000902313
0.000900924
0.000899443
0.000897903
0.000896331
0.000894745
0.00089316
0.000891589
0.000890042
0.000888536
0.000894361
0.000898523
0.000901664
0.000903895
0.000905241
0.000905869
0.000905908
0.000905477
0.000904681
0.000903612
0.000902346
0.000900942
0.000899446
0.000897891
0.000896306
0.000894708
0.000893112
0.00089153
0.000889969
0.000888446
0.00089445
0.000898632
0.000901798
0.000904018
0.000905348
0.000905964
0.000905992
0.000905549
0.000904741
0.000903659
0.000902378
0.000900959
0.000899447
0.000897878
0.000896279
0.000894669
0.000893063
0.000891468
0.000889886
0.000888355
0.000894538
0.000898728
0.000901891
0.00090409
0.000905444
0.000906059
0.000906079
0.000905625
0.000904804
0.000903708
0.000902412
0.000900976
0.000899448
0.000897863
0.000896249
0.000894625
0.000893001
0.000891378
0.000889809
0.000888341
0.000894638
0.000898834
0.000901987
0.000904157
0.000905542
0.00090616
0.000906174
0.00090571
0.000904876
0.000903765
0.000902452
0.000901
0.000899454
0.000897853
0.000896223
0.000894585
0.000892951
0.000891327
0.000889807
0.000888367
0.000894761
0.000898965
0.00090212
0.000904286
0.000905639
0.00090628
0.000906285
0.000905808
0.00090496
0.000903833
0.000902505
0.000901035
0.000899472
0.000897853
0.000896206
0.000894553
0.00089291
0.00089129
0.000889779
0.00088828
0.0008949
0.000899115
0.000902276
0.000904447
0.000905752
0.000906415
0.000906411
0.000905921
0.000905059
0.000903918
0.000902574
0.000901088
0.000899509
0.000897873
0.000896207
0.000894534
0.000892865
0.000891206
0.000889654
0.000888155
0.000895052
0.000899277
0.000902442
0.000904612
0.000905914
0.000906549
0.000906551
0.000906046
0.000905171
0.000904017
0.00090266
0.000901161
0.000899568
0.000897917
0.000896237
0.000894548
0.000892866
0.000891202
0.000889559
0.000888006
0.000895213
0.000899451
0.00090262
0.00090479
0.000906091
0.000906657
0.00090667
0.000906168
0.00090529
0.000904128
0.000902761
0.000901251
0.000899645
0.00089798
0.000896281
0.000894566
0.000892843
0.00089116
0.000889521
0.000887917
0.000895384
0.000899633
0.000902805
0.00090497
0.000906258
0.000906798
0.000906784
0.000906307
0.000905423
0.000904251
0.000902873
0.000901352
0.000899734
0.000898057
0.000896345
0.000894613
0.000892873
0.000891192
0.000889576
0.000887995
0.000895564
0.000899824
0.000903
0.000905165
0.00090645
0.000906991
0.000906918
0.000906446
0.00090556
0.000904377
0.000902989
0.000901456
0.000899828
0.000898141
0.000896423
0.000894698
0.00089297
0.000891235
0.000889595
0.000888009
0.000895747
0.00090002
0.000903201
0.000905364
0.000906643
0.000907174
0.00090709
0.000906585
0.000905705
0.000904506
0.000903104
0.000901559
0.000899918
0.000898217
0.000896482
0.000894732
0.000892974
0.000891194
0.000889533
0.000887975
0.000895935
0.000900222
0.000903408
0.00090557
0.000906844
0.000907371
0.000907287
0.000906727
0.000905827
0.000904622
0.000903213
0.000901657
0.000900003
0.000898287
0.000896532
0.000894745
0.000892988
0.000891283
0.000889664
0.000888089
0.000896133
0.000900433
0.000903622
0.000905781
0.000907046
0.000907556
0.000907446
0.000906837
0.000905912
0.000904735
0.000903326
0.000901753
0.000900083
0.000898355
0.00089659
0.000894799
0.000893081
0.000891432
0.000889859
0.000888274
0.00089634
0.000900653
0.000903847
0.000906002
0.000907258
0.000907756
0.000907628
0.000906996
0.000906028
0.000904852
0.000903439
0.000901848
0.00090016
0.000898417
0.00089665
0.000894879
0.00089317
0.000891511
0.000889902
0.000888324
0.000896558
0.000900884
0.000904081
0.000906233
0.000907481
0.000907968
0.000907833
0.000907201
0.000906185
0.000904948
0.00090352
0.000901924
0.000900224
0.00089847
0.000896692
0.000894917
0.000893168
0.000891475
0.000889839
0.000888235
0.000896784
0.000901124
0.000904324
0.000906472
0.00090771
0.000908184
0.000908033
0.000907384
0.000906351
0.000905035
0.000903584
0.000901986
0.000900277
0.000898504
0.000896699
0.000894905
0.000893165
0.00089148
0.00088985
0.000888233
0.000897021
0.000901374
0.000904578
0.00090672
0.000907948
0.000908407
0.000908236
0.000907563
0.000906497
0.00090513
0.000903663
0.000902045
0.000900298
0.000898507
0.000896692
0.000894911
0.000893163
0.000891499
0.000889873
0.000888241
0.00089727
0.000901637
0.000904843
0.000906981
0.000908197
0.00090864
0.000908449
0.000907751
0.000906655
0.000905247
0.000903719
0.000902069
0.00090032
0.000898524
0.000896698
0.000894927
0.000893158
0.000891498
0.000889884
0.000888299
0.000897531
0.000901913
0.000905122
0.000907254
0.000908459
0.000908886
0.000908678
0.000907962
0.000906849
0.000905427
0.000903831
0.000902117
0.000900363
0.000898542
0.000896724
0.000894946
0.000893214
0.00089155
0.000889949
0.000888414
0.000897805
0.000902201
0.000905414
0.00090754
0.000908734
0.000909146
0.00090892
0.000908187
0.000907061
0.000905638
0.000904001
0.000902215
0.000900411
0.000898619
0.000896864
0.000895083
0.000893297
0.000891561
0.000889954
0.000888459
0.000898092
0.000902503
0.00090572
0.000907841
0.000909023
0.000909419
0.000909175
0.000908421
0.000907273
0.000905825
0.000904156
0.000902328
0.000900519
0.000898693
0.000896894
0.000895096
0.000893304
0.000891609
0.000890025
0.000888554
0.000898391
0.00090282
0.00090604
0.000908157
0.000909327
0.000909708
0.000909446
0.000908674
0.000907508
0.000906042
0.000904355
0.000902508
0.000900624
0.000898717
0.000896877
0.000895089
0.000893388
0.000891729
0.000890157
0.000888633
0.000898705
0.000903151
0.000906377
0.000908489
0.000909648
0.000910015
0.000909736
0.000908947
0.000907765
0.000906286
0.000904591
0.000902745
0.000900799
0.000898837
0.000896964
0.000895166
0.000893461
0.000891789
0.000890232
0.000888717
0.000899032
0.000903497
0.000906729
0.000908837
0.000909987
0.000910338
0.000910043
0.000909238
0.00090804
0.000906549
0.000904845
0.000902992
0.000901034
0.000899072
0.000897141
0.000895271
0.000893466
0.000891778
0.000890223
0.000888745
0.00089937
0.000903859
0.000907099
0.000909204
0.000910343
0.00091068
0.000910368
0.000909545
0.000908331
0.000906827
0.000905116
0.000903268
0.000901336
0.000899364
0.000897378
0.000895464
0.000893628
0.000891885
0.000890255
0.000888661
0.000899732
0.000904242
0.000907489
0.00090959
0.000910718
0.00091104
0.00091071
0.000909869
0.000908637
0.000907117
0.000905392
0.000903532
0.000901594
0.000899622
0.000897655
0.000895722
0.000893842
0.000892026
0.000890274
0.00088859
0.000900114
0.000904646
0.000907899
0.000909996
0.000911113
0.000911419
0.000911071
0.000910211
0.00090896
0.000907423
0.000905682
0.000903807
0.000901855
0.000899869
0.000897885
0.000895927
0.000894013
0.000892149
0.000890335
0.000888577
0.000900517
0.00090507
0.000908329
0.000910421
0.000911525
0.000911814
0.000911447
0.000910568
0.000909299
0.000907744
0.000905988
0.0009041
0.000902136
0.00090014
0.000898146
0.000896179
0.000894254
0.000892379
0.00089055
0.000888775
0.00090094
0.000905515
0.000908779
0.000910864
0.000911953
0.000912223
0.000911835
0.000910935
0.000909646
0.000908073
0.000906301
0.000904401
0.000902427
0.000900425
0.000898429
0.000896464
0.000894547
0.000892686
0.000890881
0.000889134
0.000901388
0.000905982
0.000909248
0.000911324
0.000912396
0.000912643
0.000912232
0.000911307
0.000909995
0.000908402
0.000906612
0.000904696
0.000902711
0.000900701
0.000898702
0.000896739
0.00089483
0.000892983
0.000891199
0.000889475
0.000901848
0.000906464
0.000909733
0.000911799
0.000912852
0.000913075
0.000912637
0.000911685
0.000910346
0.000908727
0.000906914
0.000904978
0.000902977
0.000900954
0.000898947
0.00089698
0.000895072
0.00089323
0.000891458
0.000889747
0.000902327
0.000906965
0.000910238
0.000912292
0.000913324
0.000913521
0.000913052
0.000912068
0.000910698
0.00090905
0.00090721
0.000905249
0.000903226
0.000901186
0.000899164
0.000897188
0.000895273
0.000893431
0.000891663
0.000889962
0.000902832
0.000907493
0.000910768
0.000912809
0.000913817
0.000913983
0.000913481
0.000912462
0.000911058
0.000909376
0.000907505
0.000905516
0.000903468
0.000901406
0.000899366
0.000897375
0.000895451
0.000893604
0.000891837
0.000890146
0.000903368
0.000908051
0.000911326
0.000913352
0.000914334
0.000914467
0.000913927
0.000912871
0.000911428
0.00090971
0.000907805
0.000905785
0.000903709
0.000901623
0.000899563
0.000897556
0.00089562
0.000893765
0.000891995
0.000890305
0.000903938
0.000908642
0.000911916
0.000913924
0.000914877
0.000914974
0.000914395
0.000913297
0.000911814
0.000910057
0.000908116
0.000906063
0.000903958
0.000901846
0.000899764
0.00089774
0.000895792
0.000893929
0.000892154
0.000890462
0.000904554
0.000909272
0.00091254
0.000914527
0.000915448
0.000915507
0.000914885
0.000913744
0.000912218
0.00091042
0.000908441
0.000906354
0.000904218
0.000902079
0.000899976
0.000897935
0.000895975
0.000894105
0.000892329
0.000890641
0.000905187
0.000909929
0.000913195
0.000915161
0.000916049
0.000916066
0.0009154
0.000914213
0.000912642
0.000910801
0.000908783
0.000906659
0.000904492
0.000902327
0.000900201
0.000898143
0.00089617
0.000894292
0.000892513
0.000890827
0.000905852
0.000910619
0.000913883
0.000915828
0.000916682
0.000916656
0.000915942
0.000914706
0.000913088
0.000911202
0.000909142
0.000906982
0.000904781
0.000902588
0.00090044
0.000898365
0.000896379
0.000894494
0.00089271
0.000891023
0.000906551
0.000911346
0.000914609
0.000916532
0.000917349
0.000917277
0.000916512
0.000915225
0.000913557
0.000911624
0.00090952
0.000907321
0.000905087
0.000902866
0.000900695
0.000898602
0.000896604
0.000894711
0.000892923
0.000891236
0.00090729
0.000912115
0.000915377
0.000917276
0.000918053
0.000917932
0.000917114
0.000915772
0.00091405
0.000912067
0.000909918
0.000907678
0.000905409
0.000903158
0.000900964
0.000898853
0.000896842
0.000894941
0.000893149
0.000891459
0.000908078
0.000912932
0.000916193
0.000918065
0.000918799
0.000918624
0.000917748
0.000916346
0.000914567
0.000912531
0.000910333
0.00090805
0.000905744
0.000903464
0.000901245
0.000899115
0.000897092
0.000895182
0.000893384
0.000891691
0.000908916
0.000913801
0.000917058
0.000918901
0.000919587
0.000919355
0.000918414
0.000916948
0.000915107
0.000913013
0.000910763
0.000908436
0.000906091
0.000903779
0.000901535
0.000899387
0.00089735
0.000895431
0.000893628
0.000891931
0.000909808
0.000914724
0.000917976
0.000919786
0.00092042
0.000920122
0.000919112
0.000917576
0.000915667
0.000913511
0.000911205
0.000908829
0.000906444
0.000904098
0.000901829
0.000899661
0.000897611
0.000895684
0.000893876
0.000892177
0.000910759
0.000915706
0.000918949
0.000920721
0.000921295
0.000920926
0.000919839
0.000918224
0.000916241
0.000914016
0.00091165
0.000909222
0.000906794
0.000904414
0.000902118
0.000899932
0.000897869
0.000895935
0.000894124
0.000892423
0.000911763
0.000916744
0.000919977
0.000921705
0.000922212
0.000921762
0.000920587
0.000918886
0.00091682
0.00091452
0.000912088
0.000909604
0.000907129
0.000904713
0.000902391
0.000900187
0.000898113
0.000896174
0.000894363
0.000892665
0.000912823
0.000917843
0.000921061
0.000922736
0.000923165
0.000922622
0.000921348
0.000919549
0.00091739
0.000915006
0.0009125
0.000909954
0.00090743
0.000904976
0.000902627
0.000900406
0.000898325
0.000896385
0.000894578
0.000892888
0.00091399
0.000919021
0.000922205
0.00092381
0.000924144
0.000923493
0.000922105
0.000920192
0.000917927
0.000915447
0.000912858
0.000910244
0.000907665
0.000905172
0.000902796
0.000900561
0.000898476
0.000896542
0.000894746
0.000893073
0.000915224
0.000920255
0.00092339
0.000924909
0.000925132
0.000924352
0.00092283
0.000920786
0.000918397
0.000915806
0.000913122
0.000910428
0.00090779
0.000905254
0.000902853
0.000900608
0.000898526
0.000896605
0.000894832
0.000893187
0.000916516
0.000921531
0.000924599
0.000926011
0.000926097
0.000925164
0.000923482
0.000921281
0.000918745
0.000916022
0.000913225
0.000910441
0.000907735
0.000905153
0.000902728
0.000900478
0.000898408
0.000896515
0.000894781
0.000893184
0.000917857
0.000922828
0.000925803
0.000927078
0.000926995
0.000925874
0.000923997
0.000921603
0.000918888
0.000916004
0.000913071
0.000910178
0.000907393
0.000904761
0.000902313
0.000900067
0.000898025
0.000896177
0.000894507
0.000892985
0.000919252
0.000924099
0.000926954
0.000928053
0.000927756
0.000926398
0.000924276
0.000921641
0.0009187
0.000915615
0.000912512
0.000909485
0.000906602
0.000903913
0.000901447
0.000899216
0.000897222
0.00089545
0.000893877
0.000892473
0.000920697
0.000925323
0.000927992
0.000928852
0.000928274
0.00092661
0.000924171
0.000921226
0.000917994
0.000914648
0.000911325
0.000908126
0.000905122
0.000902365
0.000899882
0.000897684
0.000895766
0.000894111
0.000892688
0.000891463
0.00092212
0.000926434
0.000928827
0.000929351
0.000928394
0.000926323
0.000923467
0.000920112
0.000916494
0.000912804
0.000909188
0.00090576
0.000902597
0.000899753
0.000897254
0.00089511
0.00089331
0.000891828
0.00089063
0.000889671
0.000923367
0.000927389
0.000929322
0.000929366
0.00092789
0.00092527
0.000921854
0.00091795
0.000913813
0.000909657
0.000905645
0.000901904
0.000898524
0.000895561
0.000893044
0.000890978
0.000889346
0.000888116
0.000887244
0.000886678
0.000924303
0.000927876
0.000929215
0.000928612
0.000926437
0.000923081
0.000918916
0.000914272
0.000909436
0.000904645
0.000900091
0.000895919
0.000892232
0.000889098
0.000886547
0.000884581
0.000883177
0.000882296
0.000881882
0.000881876
0.000924786
0.000927688
0.000928209
0.000926736
0.00092363
0.000919298
0.000914136
0.000908508
0.000902736
0.000897092
0.000891799
0.000887032
0.000882913
0.000879523
0.000876897
0.000875039
0.000873919
0.000873491
0.000873691
0.000874451
0.000924601
0.000926547
0.000925976
0.000923344
0.000919018
0.000913417
0.000906965
0.000900062
0.000893072
0.000886309
0.000880039
0.000874467
0.000869746
0.000865973
0.000863193
0.000861412
0.000860601
0.000860709
0.000861668
0.00086341
0.000923475
0.000924067
0.000922227
0.000918049
0.000912183
0.000905006
0.00089696
0.000888485
0.000879988
0.000871835
0.000864333
0.000857727
0.000852201
0.000847871
0.000844798
0.000842996
0.000842443
0.00084309
0.00084488
0.000847756
0.000921134
0.000919773
0.000916423
0.000910513
0.000902887
0.000893908
0.000884045
0.000873778
0.000863564
0.000853815
0.000844881
0.000837043
0.000830511
0.000825422
0.000821854
0.000819832
0.00081935
0.000820381
0.000822894
0.000826874
0.000917341
0.000913598
0.000908498
0.000900827
0.000891392
0.000880567
0.000868854
0.000856773
0.000844824
0.000833453
0.000823041
0.000813888
0.00080622
0.000800185
0.000795872
0.000793325
0.000792558
0.000793584
0.000796423
0.000801137
0.00091204
0.000905827
0.000898285
0.000889766
0.000878728
0.000866307
0.000853028
0.000839427
0.000826033
0.000813302
0.000801612
0.000791263
0.000782473
0.000775386
0.00077009
0.00076664
0.00076508
0.000765469
0.000767902
0.000772547
0.000905242
0.000897044
0.000887874
0.000877916
0.000866935
0.000853423
0.000839284
0.000824808
0.00081062
0.000797113
0.000784623
0.000773428
0.000763716
0.000755606
0.000749169
0.00074446
0.000741544
0.000740524
0.000741574
0.000744977
0.000897708
0.000888119
0.000878546
0.000867745
0.000856596
0.000844905
0.0008312
0.000816588
0.000802612
0.000789179
0.000776544
0.000765025
0.000754748
0.000745787
0.000738183
0.000731973
0.000727227
0.000724074
0.000722741
0.000723606
0.000890728
0.000881191
0.000872777
0.000863445
0.00085278
0.000841942
0.000830078
0.000817968
0.000805879
0.000793475
0.000781206
0.000769961
0.00075954
0.000749999
0.000741333
0.000733545
0.000726691
0.000720899
0.000716415
0.000713654
0.000886135
0.000878787
0.000873327
0.000867176
0.000859554
0.000850484
0.000841088
0.000831508
0.000821345
0.000811041
0.000800855
0.000790689
0.000780447
0.000770631
0.000761097
0.000751794
0.000742763
0.000734115
0.000726072
0.000719025
0.000886138
0.000883475
0.000883034
0.000881694
0.000878579
0.000873748
0.000867452
0.000860311
0.00085305
0.000844954
0.000836395
0.000827454
0.000818108
0.000808339
0.000798183
0.000787468
0.000776318
0.000764819
0.000753144
0.000741607
0.000893095
0.000897636
0.000904069
0.000908915
0.000911314
0.000911338
0.000909346
0.000905719
0.000900642
0.000894673
0.000888104
0.000880462
0.000871896
0.000862479
0.000851971
0.00083996
0.000826741
0.000812492
0.000797304
0.000781383
0.000909171
0.000923126
0.000937884
0.000949889
0.000958444
0.000963748
0.000966221
0.000966284
0.000964307
0.000960559
0.000955324
0.000948806
0.000940826
0.000931602
0.000920864
0.000907846
0.000892616
0.000875701
0.000857165
0.000837086
0.000936105
0.000961138
0.000985188
0.00100492
0.00101997
0.00103072
0.00103772
0.00104148
0.00104242
0.00104084
0.00103701
0.00103111
0.00102325
0.00101378
0.00100257
0.000988986
0.000972167
0.000952669
0.0009309
0.000906854
0.000975018
0.00101212
0.00104592
0.00107358
0.00109516
0.00111131
0.00112273
0.00113005
0.00113373
0.00113413
0.00113153
0.00112608
0.00111806
0.00110805
0.00109597
0.00108146
0.00106362
0.00104162
0.00101655
0.000988594
0.00102636
0.00107584
0.0011194
0.00115488
0.00118283
0.00120419
0.00121984
0.00123051
0.00123673
0.00123891
0.00123737
0.00123232
0.00122395
0.00121292
0.00119966
0.00118371
0.00116434
0.00114021
0.00111185
0.0010799
0.00108988
0.0011514
0.00120429
0.00124719
0.00128116
0.00130741
0.00132701
0.00134077
0.00134929
0.00135302
0.00135227
0.00134728
0.00133825
0.00132592
0.00131084
0.00129244
0.00127074
0.001245
0.00121374
0.00117772
0.00116461
0.00123713
0.00129849
0.00134809
0.00138747
0.00141811
0.00144123
0.00145772
0.00146825
0.00147325
0.00147304
0.00146785
0.00145786
0.00144385
0.00142638
0.0014049
0.00137952
0.00135056
0.00131717
0.00127769
0.00124869
0.00133043
0.00139881
0.00145395
0.00149778
0.00153203
0.00155802
0.00157673
0.00158883
0.00159478
0.0015948
0.00158909
0.0015778
0.00156169
0.00154115
0.00151583
0.00148607
0.00145229
0.00141484
0.00137301
0.00133919
0.00142741
0.00150062
0.00155952
0.00160636
0.00164302
0.00167086
0.00169097
0.00170406
0.00171052
0.00171036
0.00170373
0.00169072
0.00167172
0.00164708
0.00161719
0.00158236
0.00154302
0.00149984
0.00145334
0.00143179
0.00152256
0.0015974
0.00165749
0.00170526
0.00174262
0.00177065
0.00179085
0.00180409
0.00181093
0.00181066
0.00180263
0.00178757
0.00176501
0.00173523
0.00169886
0.0016571
0.00161122
0.00156158
0.00150936
0.00152042
0.00160831
0.00168031
0.00173802
0.00178342
0.00181804
0.00184461
0.0018642
0.00187652
0.0018805
0.0018758
0.00185996
0.00183818
0.0018097
0.00177446
0.001733
0.00168641
0.00163653
0.00157974
0.00151997
0.00159697
0.00167483
0.0017384
0.00178829
0.00182487
0.00185262
0.0018746
0.00189009
0.00189873
0.00190058
0.00189634
0.0018873
0.00186721
0.00183655
0.00179669
0.00174714
0.0016886
0.00162099
0.00155342
0.0014864
0.00165114
0.00171068
0.00175774
0.00178891
0.00181418
0.00183793
0.00185434
0.00186466
0.00187079
0.00187141
0.00186437
0.00184834
0.00182156
0.00178289
0.00173372
0.0016744
0.00160412
0.00152379
0.00144037
0.00135997
0.00167071
0.00170228
0.0017199
0.001738
0.00174963
0.00175494
0.00176042
0.00176609
0.00177027
0.00177059
0.00176394
0.00174699
0.00171655
0.00167024
0.00160933
0.00153576
0.00144659
0.00134292
0.00123539
0.0011349
0.00164088
0.0016313
0.00162159
0.00160706
0.00159579
0.00158845
0.00158649
0.0015897
0.00159588
0.00160093
0.00159948
0.00158562
0.00155372
0.00149928
0.001423
0.00132805
0.00121168
0.00107807
0.000938521
0.000813097
0.00154186
0.00148616
0.00143768
0.00139516
0.00136256
0.00134291
0.00133804
0.00134735
0.00136671
0.00138775
0.00140061
0.00139554
0.00136388
0.00129898
0.00120297
0.00107984
0.000929265
0.000763824
0.000602757
0.000467066
0.00137061
0.00127142
0.0011828
0.00111346
0.0010657
0.00104434
0.00105244
0.00108881
0.001146
0.00119922
0.00123104
0.00123038
0.00118959
0.00110198
0.00097891
0.000828574
0.000668805
0.000511342
0.00036734
0.000269623
0.00110206
0.000974305
0.000872095
0.000798353
0.000758859
0.000763756
0.000813608
0.000887339
0.000952589
0.000995672
0.00101764
0.00101435
0.000978083
0.000908803
0.000807564
0.000679277
0.000528372
0.00037715
0.000258858
0.000191326
0.000784081
0.000658564
0.000574483
0.000553361
0.000603212
0.000692695
0.000784736
0.000858293
0.000906541
0.000932375
0.000938899
0.000927274
0.000896389
0.000841154
0.000752152
0.000622817
0.000463125
0.000305685
0.000198856
0.000162008
0.000442167
0.000382893
0.000408014
0.000505493
0.000630724
0.000741964
0.000819817
0.000866424
0.000890901
0.000900588
0.000900397
0.000891402
0.000870808
0.000828533
0.000749815
0.000621519
0.000449725
0.000280021
0.000179819
0.00016669
0.000241411
0.000285195
0.000407914
0.000571971
0.000710223
0.000798728
0.000844505
0.00086416
0.000870985
0.000872211
0.000870836
0.000866971
0.00085792
0.000835595
0.000783451
0.000679491
0.000505431
0.000305845
0.000185794
0.000175209
0.000181152
0.000278607
0.000488595
0.000694373
0.000802782
0.000843792
0.000856504
0.000859663
0.000859786
0.000859111
0.000858433
0.000857616
0.000856212
0.000851861
0.000837833
0.000795094
0.000685955
0.000469369
0.000251421
0.000183265
0.000244012
0.000481457
0.000743121
0.000818923
0.000840804
0.000848526
0.000851598
0.000852716
0.000853133
0.000853361
0.000853366
0.00085315
0.000852619
0.000851372
0.000847663
0.000835963
0.000803611
0.000731902
0.000604767
0.000388113
0.000886138
0.000886638
0.000887165
0.000887632
0.000888041
0.000888374
0.00088862
0.000888785
0.000888873
0.000888895
0.000888853
0.000888741
0.000888564
0.000888318
0.000888006
0.000887635
0.000887213
0.000886744
0.000886211
0.000885588
0.000886067
0.000886594
0.000887144
0.000887616
0.000888009
0.00088831
0.000888517
0.000888636
0.000888677
0.000888651
0.000888559
0.000888401
0.000888186
0.000887899
0.000887555
0.000887164
0.000886737
0.000886258
0.000885711
0.000885076
0.000886187
0.00088672
0.000887263
0.000887706
0.000888049
0.000888289
0.000888429
0.000888477
0.000888452
0.000888361
0.000888198
0.000887975
0.00088775
0.000887482
0.000887172
0.000886818
0.000886409
0.000885917
0.000885376
0.000884777
0.000886272
0.000886789
0.000887296
0.00088769
0.000887976
0.000888159
0.000888239
0.000888203
0.000888116
0.000888012
0.000887905
0.000887829
0.000887704
0.000887549
0.000887328
0.000887034
0.000886649
0.000886176
0.000885654
0.000885075
0.000886137
0.000886637
0.000887102
0.000887455
0.000887705
0.000887882
0.00088799
0.000888031
0.000888033
0.00088801
0.000887988
0.000888002
0.000887834
0.00088765
0.000887483
0.000887282
0.000886939
0.000886494
0.000885941
0.000885276
0.000885842
0.000886356
0.000886866
0.000887295
0.000887646
0.000887958
0.000888125
0.0008882
0.000888227
0.000888217
0.000888177
0.000888061
0.000887873
0.000887657
0.000887443
0.000887204
0.000886893
0.000886517
0.000885974
0.000885247
0.000885875
0.000886428
0.000886997
0.000887486
0.000887896
0.000888242
0.000888373
0.000888371
0.000888346
0.000888332
0.000888287
0.000888172
0.000888107
0.000887924
0.000887585
0.000887171
0.000886895
0.00088656
0.000886072
0.000885407
0.000886069
0.000886572
0.00088715
0.000887658
0.000888071
0.000888362
0.000888465
0.00088844
0.000888371
0.000888406
0.000888358
0.000888305
0.000888153
0.000887938
0.000887566
0.00088709
0.00088673
0.000886314
0.000885848
0.000885313
0.000886118
0.000886586
0.00088717
0.000887633
0.00088803
0.000888371
0.000888545
0.000888557
0.000888387
0.000888371
0.000888308
0.000888162
0.00088798
0.000887732
0.00088737
0.00088699
0.000886625
0.000886197
0.000885702
0.000885166
0.000886068
0.000886706
0.000887332
0.000887768
0.000888075
0.00088837
0.000888481
0.00088843
0.000888291
0.00088824
0.00088822
0.000888146
0.000887994
0.000887769
0.000887505
0.000887175
0.000886804
0.000886246
0.000885662
0.000885042
0.000885989
0.000886666
0.0008874
0.000887921
0.000888231
0.000888488
0.000888457
0.000888372
0.000888344
0.000888319
0.000888223
0.000888116
0.000887953
0.000887794
0.000887547
0.000887177
0.000886652
0.000886069
0.00088553
0.000884997
0.000885897
0.000886649
0.000887367
0.000887922
0.000888372
0.000888692
0.000888784
0.000888679
0.000888605
0.000888547
0.000888328
0.000888072
0.000887782
0.000887442
0.000887117
0.000886744
0.000886305
0.000885932
0.00088553
0.000885056
0.000886164
0.000886865
0.000887498
0.00088804
0.000888516
0.000888809
0.000888985
0.000888978
0.00088891
0.000888724
0.00088846
0.000888128
0.000887737
0.000887292
0.000886904
0.000886525
0.000886162
0.000885845
0.000885472
0.000884933
0.000886362
0.000886906
0.000887513
0.000888027
0.000888455
0.000888676
0.000888821
0.000888846
0.000888812
0.000888667
0.000888506
0.000888261
0.000887951
0.000887629
0.000887273
0.000886884
0.000886453
0.000885977
0.000885473
0.00088495
0.000886502
0.000887007
0.000887582
0.000888036
0.000888358
0.000888589
0.000888641
0.00088868
0.000888658
0.000888518
0.000888394
0.000888197
0.000888064
0.000887815
0.000887485
0.000887074
0.000886579
0.000885988
0.000885316
0.00088475
0.000886561
0.000887212
0.000887759
0.000888158
0.00088832
0.000888593
0.000888731
0.00088876
0.000888665
0.000888449
0.000888211
0.000887928
0.000887775
0.000887416
0.00088699
0.000886478
0.000885948
0.000885379
0.000884775
0.000884234
0.000886499
0.000887279
0.000887829
0.00088817
0.000888294
0.00088854
0.000888796
0.000888818
0.000888751
0.00088859
0.000888346
0.000888023
0.00088774
0.000887245
0.000886746
0.000886212
0.000885706
0.000885178
0.000884655
0.000884182
0.000886482
0.000887098
0.000887676
0.000888066
0.000888339
0.000888586
0.000888789
0.000888841
0.000888782
0.000888634
0.000888425
0.000888217
0.000887896
0.000887393
0.000886918
0.000886446
0.000885946
0.000885387
0.000884859
0.000884398
0.000886476
0.000887027
0.000887596
0.000888052
0.000888405
0.000888627
0.000888744
0.000888763
0.000888683
0.000888519
0.000888308
0.00088807
0.000887726
0.000887272
0.00088681
0.000886363
0.000885896
0.000885383
0.000884905
0.000884403
0.000886693
0.000887075
0.000887449
0.000887744
0.000888003
0.000888161
0.000888256
0.000888295
0.000888276
0.00088814
0.000887917
0.000887581
0.000887183
0.000886672
0.000886181
0.000885751
0.000885356
0.000884969
0.000884557
0.000884084
0.000886665
0.00088691
0.000887127
0.000887259
0.000887356
0.000887447
0.000887541
0.000887627
0.0008877
0.000887627
0.000887441
0.000887139
0.000886828
0.000886446
0.000885987
0.000885665
0.000885301
0.000884959
0.000884589
0.000884156
0.000886724
0.000886881
0.000887002
0.000887089
0.000887161
0.000887221
0.000887257
0.000887268
0.000887247
0.000887188
0.000887111
0.000886984
0.000886818
0.000886553
0.000886171
0.000885959
0.000885706
0.000885422
0.000885076
0.000884634
0.000886972
0.000887169
0.000887317
0.000887461
0.000887558
0.000887607
0.000887592
0.00088753
0.000887421
0.000887247
0.000887112
0.000886976
0.000886851
0.000886681
0.000886453
0.000886252
0.0008861
0.000885857
0.000885605
0.000885186
0.000887293
0.00088759
0.000887782
0.000887965
0.000888091
0.00088815
0.00088814
0.000888073
0.000887976
0.000887737
0.000887535
0.000887328
0.000887212
0.000887053
0.000886933
0.000886682
0.000886454
0.000886242
0.000886083
0.000885696
0.00088756
0.000887938
0.00088822
0.000888454
0.000888619
0.000888698
0.000888693