/*--------------------------------*- C++ -*----------------------------------*\
  =========                 |
  \\      /  F ield         | OpenFOAM: The Open Source CFD Toolbox
   \\    /   O peration     | Website:  https://openfoam.org
    \\  /    A nd           | Version:  6
     \\/     M anipulation  |
\*---------------------------------------------------------------------------*/
FoamFile
{
    version     2.0;
    format      ascii;
    class       volScalarField;
    location    "14";
    object      nut;
}
// * * * * * * * * * * * * * * * * * * * * * * * * * * * * * * * * * * * * * //

dimensions      [0 2 -1 0 0 0 0];

internalField   nonuniform List<scalar> 
10000
(
1.39339e-05
6.88358e-05
9.10449e-05
0.000120445
0.000160277
0.000209043
0.000259259
0.000304341
0.00033822
0.000356404
0.000356708
0.00033936
0.00030672
0.000262564
0.000212764
0.000164421
0.000124625
9.52761e-05
7.05975e-05
1.39228e-05
1.38562e-05
6.84258e-05
9.09954e-05
0.000121145
0.000162152
0.000211993
0.000262915
0.000310368
0.000345277
0.000363628
0.000359525
0.000341432
0.000308892
0.000264685
0.000214554
0.000165574
0.000125896
9.66951e-05
7.11345e-05
1.37746e-05
1.37019e-05
6.84489e-05
9.08403e-05
0.000123141
0.000160112
0.000211691
0.000260634
0.000307917
0.000342227
0.000360836
0.000359674
0.000342135
0.00031244
0.000269484
0.000217179
0.000166449
0.00012667
9.6043e-05
7.07079e-05
1.38209e-05
1.38427e-05
6.88037e-05
9.08235e-05
0.000120708
0.000159643
0.000209578
0.000260537
0.0003083
0.000341064
0.000359552
0.000359551
0.000342276
0.000309807
0.000265553
0.000216547
0.00016834
0.000126725
9.5337e-05
7.01433e-05
1.38541e-05
1.39927e-05
7.00199e-05
9.05448e-05
0.0001182
0.000160151
0.000213004
0.000263526
0.000308741
0.000344354
0.000362362
0.000362598
0.000344996
0.00031099
0.00026446
0.000215704
0.000168269
0.000125423
9.37387e-05
6.94441e-05
1.39584e-05
1.37995e-05
6.95649e-05
9.01292e-05
0.000119267
0.000160671
0.00021051
0.000262575
0.000307266
0.00034214
0.000362793
0.000362073
0.000344478
0.00031121
0.000265334
0.000218035
0.000168698
0.000123159
9.30467e-05
6.99909e-05
1.37829e-05
1.39204e-05
6.96309e-05
9.17456e-05
0.000119523
0.000161614
0.000211895
0.000262587
0.000308356
0.000343562
0.000365377
0.000365283
0.000348481
0.000310552
0.000266945
0.000218423
0.000169201
0.000124605
9.41066e-05
6.97966e-05
1.38859e-05
1.36761e-05
6.94182e-05
9.20199e-05
0.000122211
0.000162116
0.000211131
0.000260952
0.000306325
0.00034109
0.00036059
0.000361408
0.000343321
0.000309866
0.000266619
0.000216221
0.000168443
0.000125175
9.34974e-05
7.00835e-05
1.39061e-05
1.38594e-05
6.94348e-05
9.1905e-05
0.000121554
0.00016285
0.000210438
0.000261493
0.00030676
0.000342582
0.00036257
0.000363912
0.000345329
0.000311676
0.000266033
0.000218036
0.000170941
0.000128487
9.57502e-05
7.0209e-05
1.40239e-05
1.41222e-05
6.94594e-05
9.40122e-05
0.0001209
0.000161557
0.000210438
0.000264418
0.000309414
0.000341757
0.000359986
0.000361331
0.000343227
0.0003114
0.000268784
0.000216989
0.000168724
0.00012837
9.53688e-05
7.01905e-05
1.41548e-05
1.39261e-05
7.008e-05
9.37123e-05
0.000120677
0.000163024
0.000211829
0.000262339
0.000307548
0.00034541
0.000363499
0.000362074
0.000343534
0.000310375
0.000266459
0.000216176
0.000170757
0.000128975
9.52785e-05
7.088e-05
1.42622e-05
1.38628e-05
6.93834e-05
9.2811e-05
0.000119942
0.000161505
0.000209878
0.000261121
0.000309156
0.000342604
0.000362718
0.000366172
0.000344768
0.000312043
0.000264948
0.000216202
0.000168472
0.000127539
9.6597e-05
7.19596e-05
1.42429e-05
1.37922e-05
6.85743e-05
9.37789e-05
0.000120664
0.0001601
0.000209116
0.000260582
0.000304634
0.000340357
0.000360555
0.00036301
0.000345887
0.000313011
0.00026616
0.000214806
0.000170193
0.000128895
9.73684e-05
7.04145e-05
1.40004e-05
1.40608e-05
6.93401e-05
9.3293e-05
0.000121143
0.000159718
0.0002071
0.000257915
0.000303514
0.00033855
0.000359182
0.000362829
0.000344804
0.000311552
0.000265332
0.00021385
0.000167232
0.000125797
9.51121e-05
7.01033e-05
1.40099e-05
1.39119e-05
6.91448e-05
9.22243e-05
0.000122688
0.000160383
0.000208418
0.000259351
0.000304047
0.000338637
0.000360565
0.000364503
0.000348408
0.000310707
0.000263563
0.000213692
0.000167403
0.000126882
9.52508e-05
6.97097e-05
1.38077e-05
1.38938e-05
6.92e-05
9.28706e-05
0.0001206
0.000159616
0.000206619
0.000257265
0.000304606
0.00033898
0.000356381
0.00035954
0.000342448
0.000307559
0.000263129
0.000213461
0.000167811
0.000124084
9.31484e-05
6.97725e-05
1.37107e-05
1.38151e-05
6.90413e-05
9.03927e-05
0.000119217
0.000158636
0.000207838
0.000259377
0.000303928
0.000337753
0.000355536
0.000357755
0.000339876
0.00030948
0.000265502
0.000214272
0.000164464
0.000124816
9.37412e-05
6.88175e-05
1.36363e-05
1.36804e-05
6.9026e-05
9.08107e-05
0.000119511
0.000158909
0.000206354
0.000257066
0.000305669
0.000340715
0.000355979
0.000356432
0.000341597
0.000309239
0.000265768
0.000212338
0.000163756
0.000121536
9.22371e-05
6.91135e-05
1.36558e-05
1.37921e-05
6.90703e-05
9.13017e-05
0.00012192
0.000159647
0.000206883
0.000257073
0.000304936
0.000339107
0.000355967
0.000355794
0.000338452
0.000308779
0.000263328
0.000213416
0.000164479
0.000121613
9.35099e-05
6.99357e-05
1.3759e-05
1.39769e-05
6.9373e-05
9.22834e-05
0.000121562
0.00016112
0.000210116
0.000260127
0.000305239
0.000339445
0.000360226
0.000359886
0.000339041
0.000304808
0.000258736
0.000208699
0.000161046
0.000121697
9.40726e-05
7.06273e-05
1.3823e-05
1.38948e-05
6.95217e-05
9.34129e-05
0.000119864
0.000159044
0.000207674
0.000258861
0.0003051
0.000340086
0.000360412
0.00035936
0.000340463
0.000308821
0.000259452
0.000209356
0.000161554
0.000121907
9.42903e-05
7.03734e-05
1.38071e-05
1.37567e-05
6.9525e-05
9.14022e-05
0.000121037
0.000159647
0.00020748
0.000257336
0.000302312
0.000336961
0.000356502
0.000357631
0.000343018
0.000305412
0.000259602
0.000211464
0.000163458
0.000121709
9.55819e-05
7.01949e-05
1.40512e-05
1.40196e-05
7.01052e-05
9.29077e-05
0.000122065
0.000160414
0.000208477
0.000258277
0.000303377
0.000338119
0.000359264
0.000358324
0.000342313
0.000307682
0.000260769
0.000210573
0.000161291
0.000122492
9.47311e-05
7.02567e-05
1.38047e-05
1.39878e-05
6.98514e-05
9.33831e-05
0.000124157
0.000161662
0.000211214
0.000261623
0.000307065
0.000341215
0.000357826
0.00035942
0.000339776
0.000306082
0.000262525
0.000213232
0.000162193
0.000122774
9.31633e-05
7.06125e-05
1.40302e-05
1.39193e-05
6.9763e-05
9.35336e-05
0.000121838
0.000161896
0.00021273
0.000262055
0.000306567
0.000341179
0.000359139
0.00036192
0.000343966
0.000309679
0.00026477
0.000213533
0.000164598
0.000124772
9.42715e-05
6.96642e-05
1.41412e-05
1.41672e-05
7.00467e-05
9.2573e-05
0.000122774
0.000163519
0.000214198
0.000261502
0.000305663
0.000340535
0.00036229
0.000364023
0.000345365
0.000309718
0.000263243
0.000212065
0.000162394
0.000122061
9.44581e-05
7.07744e-05
1.43013e-05
1.41934e-05
6.999e-05
9.30334e-05
0.000119783
0.000161073
0.000212725
0.000264218
0.000308971
0.000343827
0.000363761
0.000363053
0.00034366
0.000310995
0.00026364
0.000212719
0.000162978
0.000123218
9.47537e-05
7.04758e-05
1.43787e-05
1.41098e-05
6.99527e-05
9.5434e-05
0.000120712
0.000161548
0.000213078
0.000265528
0.000307839
0.000342678
0.000361053
0.000361991
0.00034222
0.000308291
0.000263013
0.00021192
0.000163743
0.000123049
9.50354e-05
7.10793e-05
1.42336e-05
1.40672e-05
6.96033e-05
9.3306e-05
0.000120737
0.000161651
0.000214813
0.00026472
0.000306786
0.000340846
0.000364159
0.000360532
0.000345543
0.000309524
0.00026258
0.000212678
0.000166977
0.000124257
9.62901e-05
7.09402e-05
1.39648e-05
1.38255e-05
6.95336e-05
9.43449e-05
0.000121614
0.000162145
0.000212849
0.000266327
0.000309277
0.000340084
0.000359524
0.000359382
0.000341776
0.00030825
0.000264476
0.000212431
0.000165463
0.000124107
9.29777e-05
7.06898e-05
1.40335e-05
1.40718e-05
7.06769e-05
9.26589e-05
0.000121381
0.000162381
0.000211404
0.000263779
0.000307903
0.000339145
0.000357709
0.000361344
0.000344451
0.000310796
0.000264719
0.000213698
0.000166791
0.000125755
9.36821e-05
7.00495e-05
1.42043e-05
1.41918e-05
6.99211e-05
9.20914e-05
0.000121513
0.000162878
0.000212807
0.000264701
0.000307783
0.000339236
0.000357169
0.000358186
0.000341464
0.00030875
0.000264606
0.000212892
0.000165843
0.000123608
9.44013e-05
6.99106e-05
1.40467e-05
1.42714e-05
7.14585e-05
9.36208e-05
0.000122783
0.000163162
0.000212461
0.000260758
0.000305256
0.000338727
0.000357158
0.000360011
0.000344257
0.000313495
0.000266535
0.0002147
0.000165888
0.000124449
9.48381e-05
7.03412e-05
1.39354e-05
1.42215e-05
7.05556e-05
9.37564e-05
0.000125116
0.000163624
0.000212118
0.000260768
0.000306035
0.00033959
0.000357496
0.000358603
0.000342004
0.00031097
0.000267978
0.000216578
0.000165292
0.000124683
9.48889e-05
7.03836e-05
1.40882e-05
1.41463e-05
7.10183e-05
9.45555e-05
0.000123668
0.000163394
0.000210898
0.000260832
0.000308896
0.000343921
0.000359042
0.000361268
0.000343939
0.000309389
0.000266923
0.000216565
0.000167715
0.000126422
9.35e-05
7.02811e-05
1.39508e-05
1.41759e-05
7.03826e-05
9.27255e-05
0.000125204
0.000163938
0.000211404
0.000260536
0.000305361
0.000338955
0.000359688
0.000360627
0.000341837
0.000309694
0.000264775
0.000215485
0.00016659
0.000126107
9.38895e-05
7.0242e-05
1.39324e-05
1.41011e-05
7.0416e-05
9.35125e-05
0.000123981
0.000164476
0.000212977
0.000262462
0.00030531
0.000338505
0.0003572
0.00035943
0.000342482
0.000307951
0.000262649
0.000212993
0.00016563
0.000126098
9.31105e-05
6.93736e-05
1.381e-05
1.40539e-05
7.0846e-05
9.54985e-05
0.000124186
0.000166293
0.000211785
0.000262266
0.00030808
0.00034205
0.000358466
0.000358997
0.000341974
0.000309323
0.000264788
0.000213473
0.000167047
0.000123959
9.40524e-05
7.00861e-05
1.38502e-05
1.40122e-05
7.0777e-05
9.46141e-05
0.000124253
0.000164465
0.000211504
0.000262895
0.000305549
0.000339759
0.000358455
0.000360992
0.000344061
0.000310208
0.000263464
0.000214702
0.000166739
0.000125467
9.3215e-05
6.96266e-05
1.38923e-05
1.38254e-05
7.00927e-05
9.46521e-05
0.000125652
0.000164672
0.000212233
0.00026297
0.000305693
0.000338794
0.000356782
0.000359035
0.000343574
0.000308932
0.000266131
0.00021542
0.000166189
0.000122826
9.47678e-05
7.06671e-05
1.37672e-05
1.38314e-05
7.01067e-05
9.25894e-05
0.000122986
0.000164337
0.000214544
0.000261606
0.000307254
0.000340454
0.000360077
0.000358663
0.000338868
0.000306865
0.000262132
0.000212387
0.000164497
0.00012262
9.27175e-05
7.02134e-05
1.39419e-05
1.38528e-05
7.0039e-05
9.26798e-05
0.000124426
0.000165398
0.00021221
0.000261968
0.000307849
0.000339969
0.000355247
0.000355739
0.000339368
0.000304822
0.000260918
0.000210347
0.000164836
0.000123599
9.4187e-05
7.01891e-05
1.38378e-05
1.40074e-05
7.03088e-05
9.48627e-05
0.000122676
0.000164656
0.000213319
0.000259539
0.000303464
0.000336812
0.000355368
0.000356853
0.000340966
0.000307426
0.000261987
0.000210867
0.000162567
0.000124855
9.54121e-05
7.02369e-05
1.39857e-05
1.42029e-05
6.98335e-05
9.30936e-05
0.000122541
0.00016288
0.00021279
0.000259787
0.000304956
0.000339145
0.000357883
0.000359635
0.000340915
0.000307592
0.000261606
0.000209634
0.000162256
0.000122783
9.38452e-05
7.06432e-05
1.39305e-05
1.41641e-05
7.13339e-05
9.53543e-05
0.000124017
0.000163584
0.000210243
0.000259873
0.00030481
0.000340898
0.000357842
0.000358128
0.000339951
0.000308869
0.00026272
0.000211311
0.000162682
0.000122693
9.28866e-05
6.94867e-05
1.39986e-05
1.42346e-05
7.1244e-05
9.69413e-05
0.000126215
0.000165312
0.000212593
0.000261418
0.000306003
0.000340734
0.000358985
0.00035829
0.000338887
0.000306225
0.0002612
0.000210802
0.000165196
0.000124629
9.52279e-05
7.0042e-05
1.3858e-05
1.40882e-05
7.11166e-05
9.55114e-05
0.000124312
0.000163227
0.000212002
0.00026478
0.000308553
0.000341681
0.000360325
0.000361327
0.000342302
0.000307917
0.000260929
0.000212183
0.000163635
0.00012276
9.37305e-05
6.98419e-05
1.40455e-05
1.40107e-05
7.07875e-05
9.32209e-05
0.000122924
0.000162045
0.000211553
0.000261894
0.000310631
0.000344412
0.000363632
0.000361239
0.000340612
0.000307102
0.000263123
0.000209683
0.000162116
0.000122341
9.3578e-05
6.96068e-05
1.39306e-05
1.40134e-05
7.068e-05
9.48014e-05
0.000123125
0.000162697
0.00020975
0.000260337
0.000308427
0.00034126
0.000360836
0.000361924
0.000342336
0.000305265
0.000260197
0.000209959
0.00016256
0.000123316
9.35078e-05
6.92924e-05
1.38186e-05
1.39207e-05
7.00528e-05
9.30926e-05
0.000125144
0.000163224
0.000210167
0.000260015
0.000307738
0.000342465
0.00035976
0.000358851
0.000340126
0.000306285
0.00026146
0.000212977
0.000163763
0.000123588
9.61002e-05
7.00442e-05
1.4037e-05
1.37962e-05
6.96798e-05
9.39835e-05
0.000124078
0.000164059
0.000209978
0.000260305
0.000308551
0.000341447
0.000357374
0.000357149
0.000337339
0.000303228
0.000258457
0.000210568
0.000165075
0.000125182
9.36585e-05
6.97638e-05
1.38582e-05
1.40122e-05
6.93557e-05
9.49732e-05
0.00012318
0.000162238
0.000210195
0.000260407
0.000307737
0.000343207
0.000359035
0.000356752
0.000338202
0.000304247
0.00025891
0.000209737
0.000163556
0.000124238
9.29318e-05
6.94618e-05
1.3813e-05
1.38375e-05
6.98165e-05
9.25717e-05
0.000122859
0.000162643
0.000211146
0.000263422
0.000308387
0.00034057
0.000357727
0.000358858
0.000341372
0.000307253
0.000259898
0.000211047
0.000162658
0.000123202
9.42172e-05
7.02662e-05
1.36744e-05
1.39111e-05
7.05531e-05
9.37476e-05
0.000123849
0.000163944
0.000214187
0.000261104
0.000305955
0.000339244
0.00035568
0.000355856
0.000339866
0.000306537
0.000261786
0.00021035
0.000163325
0.000124761
9.42487e-05
7.0065e-05
1.37027e-05
1.37505e-05
7.02539e-05
9.37673e-05
0.00012529
0.000163714
0.000212227
0.000262064
0.000306487
0.000341729
0.000359614
0.000357704
0.000341481
0.000306083
0.00026146
0.000210743
0.000164947
0.000122866
9.3835e-05
6.98792e-05
1.37465e-05
1.3824e-05
6.99151e-05
9.40524e-05
0.000123405
0.000164066
0.000213117
0.000263318
0.000306519
0.000341272
0.000359793
0.000360822
0.000342425
0.000307749
0.000262876
0.00021254
0.000165318
0.000124486
9.23355e-05
6.94247e-05
1.37337e-05
1.36566e-05
6.94914e-05
9.38837e-05
0.000123364
0.000166041
0.00021231
0.000263956
0.000309881
0.000343789
0.000360087
0.000359545
0.000343692
0.000309438
0.000262323
0.0002118
0.000163819
0.00012273
9.28893e-05
6.88881e-05
1.38589e-05
1.36458e-05
6.96268e-05
9.24768e-05
0.000122988
0.000163893
0.000213872
0.000264901
0.000310064
0.000345097
0.000361498
0.000362208
0.000345696
0.00031067
0.000265324
0.000214611
0.00016458
0.000123409
9.37143e-05
6.93637e-05
1.37561e-05
1.37494e-05
7.02611e-05
9.28649e-05
0.000123651
0.000165109
0.000214205
0.000264237
0.000309751
0.0003448
0.000363457
0.000363157
0.000344778
0.000310775
0.00026746
0.000215797
0.000164897
0.000123925
9.34673e-05
6.99232e-05
1.3903e-05
1.38448e-05
7.0097e-05
9.36194e-05
0.000124041
0.000165578
0.00021563
0.000266374
0.000310142
0.000344381
0.000362676
0.000363829
0.000345687
0.000312756
0.000267438
0.000214535
0.000166992
0.000125732
9.2863e-05
7.05004e-05
1.39091e-05
1.38304e-05
7.0034e-05
9.38702e-05
0.00012587
0.000167552
0.000216593
0.000267333
0.000311533
0.000346497
0.000367294
0.000365526
0.000348219
0.000313236
0.000265825
0.000215623
0.000165563
0.00012407
9.30465e-05
6.98961e-05
1.38764e-05
1.38306e-05
6.97909e-05
9.49825e-05
0.000125259
0.00016692
0.000217867
0.000269336
0.000315885
0.000352631
0.000369646
0.000369451
0.00034967
0.000314801
0.00026796
0.000216168
0.000166977
0.000125885
9.32527e-05
6.93797e-05
1.37792e-05
1.36794e-05
6.92169e-05
9.47304e-05
0.000125744
0.000168035
0.000218802
0.000270077
0.000316902
0.000351908
0.00037019
0.000372076
0.000352862
0.000317431
0.000269825
0.000216171
0.000166371
0.000125054
9.34477e-05
6.97091e-05
1.36596e-05
1.36852e-05
6.94088e-05
9.44938e-05
0.000127759
0.000171127
0.000220987
0.000273744
0.000320853
0.000354782
0.000372532
0.00037259
0.000353551
0.000318279
0.000271267
0.000217401
0.00016739
0.000126748
9.45764e-05
6.99463e-05
1.37779e-05
1.34932e-05
6.93414e-05
9.39663e-05
0.000127654
0.000171533
0.000224107
0.000276507
0.0003247
0.000357949
0.000375818
0.000375944
0.000356495
0.000320481
0.000272769
0.000219061
0.000169857
0.000125622
9.35744e-05
6.97862e-05
1.37056e-05
1.35236e-05
6.93467e-05
9.40097e-05
0.000127147
0.000172339
0.000224404
0.000277381
0.000325632
0.000361202
0.000379472
0.00038109
0.000361474
0.000323363
0.00027385
0.000220099
0.000169469
0.000127615
9.48486e-05
7.00512e-05
1.35624e-05
1.33947e-05
6.89746e-05
9.39658e-05
0.00012787
0.000174217
0.000227124
0.000280666
0.000326762
0.000362209
0.000381941
0.000382597
0.0003633
0.000326179
0.000276616
0.000224344
0.000170517
0.000127742
9.42266e-05
6.975e-05
1.36269e-05
1.33647e-05
6.87807e-05
9.53169e-05
0.000130242
0.00017619
0.000230388
0.000283271
0.000329277
0.000363911
0.000384253
0.000387784
0.000369083
0.00033216
0.000282263
0.00022469
0.000171923
0.000127922
9.40271e-05
6.92527e-05
1.35359e-05
1.32931e-05
6.86762e-05
9.50733e-05
0.00012987
0.000177035
0.000231459
0.000285896
0.000333932
0.000368854
0.000388694
0.000389644
0.000370983
0.00033466
0.000283884
0.000226697
0.000173777
0.000128371
9.3921e-05
6.88957e-05
1.33453e-05
1.32405e-05
6.92728e-05
9.56535e-05
0.000130828
0.0001784
0.000234524
0.000289271
0.000337882
0.000374047
0.00039396
0.000395485
0.000376415
0.00033932
0.000287194
0.000229998
0.000173459
0.000129564
9.48948e-05
6.89381e-05
1.33591e-05
1.31596e-05
6.90237e-05
9.59545e-05
0.000132655
0.000178793
0.000236274
0.000292454
0.000341984
0.000379575
0.000401761
0.000400616
0.000380713
0.000343776
0.000291079
0.00023138
0.000174102
0.000129777
9.49921e-05
6.86682e-05
1.32387e-05
1.3056e-05
6.87658e-05
9.56982e-05
0.000132013
0.000180462
0.000238434
0.00029606
0.000345798
0.000383892
0.000406635
0.000407031
0.000386926
0.000347943
0.000294028
0.000233059
0.000175299
0.000129748
9.48794e-05
6.84541e-05
1.31339e-05
1.29689e-05
6.85684e-05
9.55317e-05
0.000132451
0.000178771
0.000238889
0.000299362
0.000352089
0.000391407
0.00041268
0.00041279
0.000391672
0.000351857
0.000297898
0.00023648
0.000176218
0.000129427
9.50493e-05
6.88985e-05
1.30388e-05
1.28633e-05
6.83329e-05
9.48422e-05
0.000131513
0.000179544
0.000238935
0.000303189
0.00035741
0.000397351
0.000418148
0.000418084
0.000396448
0.000355686
0.000300387
0.000236973
0.000177707
0.000130587
9.4854e-05
6.86138e-05
1.29621e-05
1.27859e-05
6.82889e-05
9.44963e-05
0.000131562
0.000181876
0.000241204
0.000307107
0.000362622
0.000403644
0.000425186
0.000424652
0.000401094
0.000359277
0.000303404
0.000238337
0.00018034
0.00013014
9.47848e-05
6.89987e-05
1.29067e-05
1.26138e-05
6.78743e-05
9.40291e-05
0.000131598
0.000180765
0.000243872
0.000311469
0.0003686
0.000410491
0.000432351
0.000431712
0.000407561
0.000364482
0.000307265
0.000242002
0.000179915
0.000129706
9.44041e-05
6.8643e-05
1.27412e-05
1.24461e-05
6.72576e-05
9.35401e-05
0.000132454
0.000184021
0.000249667
0.000316744
0.000374879
0.000417951
0.000440788
0.000440278
0.000415939
0.000371243
0.000311538
0.000242579
0.000179757
0.000130093
9.42143e-05
6.83344e-05
1.25618e-05
1.22601e-05
6.69869e-05
9.30499e-05
0.000133029
0.000183673
0.000249702
0.000321145
0.000381912
0.000426718
0.000450461
0.000449591
0.000424331
0.000378524
0.000317742
0.000248903
0.000183064
0.000131967
9.40435e-05
6.8115e-05
1.23088e-05
1.19851e-05
6.65932e-05
9.22726e-05
0.000133777
0.000186653
0.000256304
0.000328268
0.000390324
0.000436381
0.00046077
0.000459862
0.000433837
0.000386535
0.00032373
0.000251561
0.000187137
0.000134771
9.35642e-05
6.72735e-05
1.19098e-05
1.16354e-05
6.53542e-05
9.13261e-05
0.000133862
0.000190034
0.000258391
0.000334638
0.000399335
0.000447163
0.000472369
0.000471634
0.000445058
0.000396353
0.000331448
0.000257384
0.000187809
0.000134749
9.33081e-05
6.66585e-05
1.14789e-05
1.12663e-05
6.45454e-05
9.06766e-05
0.000133842
0.000192607
0.000263472
0.000342187
0.000409151
0.00045857
0.000484686
0.000484171
0.000457169
0.000407219
0.000340204
0.000262717
0.00019235
0.000136381
9.30202e-05
6.55004e-05
1.09279e-05
1.08354e-05
6.30412e-05
8.90777e-05
0.000133577
0.000195054
0.000270262
0.000350167
0.000419893
0.000471031
0.000498049
0.00049766
0.000470037
0.000418948
0.000350746
0.000273673
0.000200515
0.000137666
9.23396e-05
6.41856e-05
1.04009e-05
1.04338e-05
6.26161e-05
8.96792e-05
0.000135887
0.000199664
0.000280845
0.000360994
0.000430974
0.000483757
0.000511923
0.000511955
0.000483986
0.00043166
0.000361374
0.000281268
0.000204264
0.000139136
9.24306e-05
6.29074e-05
1.0032e-05
9.93279e-06
6.19457e-05
9.13869e-05
0.000141528
0.000207461
0.000286715
0.000368322
0.000440107
0.000495437
0.000525281
0.000525934
0.000497633
0.000444368
0.000372742
0.000291245
0.000210503
0.000142586
9.28244e-05
6.15691e-05
9.8003e-06
9.4648e-06
6.09521e-05
9.36579e-05
0.000145947
0.00021736
0.000299573
0.000382579
0.000456095
0.000511109
0.000540639
0.000540957
0.000511911
0.000457117
0.000383805
0.000302006
0.000223632
0.000150309
9.40166e-05
6.04823e-05
9.63146e-06
9.45373e-06
5.9837e-05
9.59714e-05
0.000156371
0.00023044
0.000315455
0.000401088
0.000476456
0.000532594
0.000562707
0.00056302
0.000533378
0.000477209
0.000401713
0.000316756
0.000233946
0.000159006
9.72536e-05
5.98625e-05
9.64644e-06
9.69407e-06
5.95776e-05
0.000100611
0.000165588
0.000246462
0.00033962
0.000425653
0.000502673
0.000560297
0.000593177
0.000593713
0.000563553
0.000505837
0.000428116
0.000339196
0.000248705
0.000171992
0.000104209
6.01582e-05
9.99395e-06
1.02578e-05
6.06973e-05
0.000110005
0.000179628
0.000268992
0.000363609
0.000453625
0.000533146
0.000591346
0.000623186
0.000623035
0.000592011
0.000531961
0.000451657
0.000359808
0.000267631
0.000182918
0.00011066
6.03024e-05
1.02456e-05
1.07239e-05
6.36651e-05
0.000120611
0.000196032
0.000290139
0.000390312
0.000487495
0.000569365
0.000627184
0.000656601
0.000655659
0.0006248
0.000565641
0.000482197
0.000388661
0.000288775
0.000196837
0.000119726
6.27459e-05
1.09864e-05
1.16243e-05
6.60831e-05
0.000129622
0.000213925
0.000313766
0.000417638
0.000518507
0.000600607
0.000657773
0.000687123
0.00068721
0.000657742
0.000599727
0.000515426
0.000416163
0.000311623
0.000210954
0.000127088
6.51553e-05
1.15745e-05
1.23687e-05
6.87829e-05
0.000139743
0.000233307
0.00034055
0.000449696
0.000552409
0.000633346
0.000688925
0.000717106
0.000717061
0.000688731
0.000632914
0.000552037
0.000450933
0.000340223
0.00023324
0.000138629
6.86647e-05
1.24268e-05
1.34763e-05
7.08269e-05
0.000149796
0.000252552
0.000368667
0.000485372
0.000586817
0.000665896
0.000719228
0.000745883
0.000745825
0.000718968
0.000665175
0.000585264
0.000482608
0.000364898
0.000251485
0.000150264
7.11173e-05
1.34757e-05
1.47149e-05
7.50135e-05
0.000161924
0.0002745
0.00039901
0.000518909
0.00062085
0.000697523
0.000747634
0.000772154
0.000772112
0.000747461
0.000697095
0.000620149
0.000518332
0.000398322
0.000274127
0.000162315
7.45102e-05
1.46114e-05
1.59238e-05
7.9593e-05
0.000178041
0.000300953
0.000433465
0.00055623
0.000656205
0.000728355
0.000773701
0.000795296
0.000795255
0.000773524
0.000727851
0.000655044
0.000554094
0.000431093
0.000299174
0.000177453
7.98745e-05
1.59977e-05
1.74529e-05
8.73709e-05
0.000195311
0.000328423
0.000469632
0.000594957
0.000692143
0.000758083
0.000797252
0.00081524
0.000815238
0.000797244
0.000758027
0.000692044
0.000594816
0.000469541
0.000328367
0.000194683
8.69459e-05
1.74121e-05
1.89221e-05
9.75929e-05
0.000217363
0.000365056
0.000516232
0.000642527
0.000731542
0.000786965
0.00081729
0.000830178
0.000830166
0.000817251
0.000786854
0.00073132
0.000642161
0.000515484
0.000364564
0.000217426
9.77861e-05
1.89491e-05
2.04661e-05
0.00011259
0.00024803
0.000413475
0.000574683
0.000696299
0.000772512
0.000813931
0.000833485
0.000840591
0.000840557
0.000833408
0.000813873
0.00077242
0.00069617
0.000574516
0.000413302
0.00024769
0.000112264
2.04628e-05
2.21311e-05
0.000132761
0.000293336
0.000487806
0.000653177
0.000758174
0.000812129
0.00083526
0.000843904
0.000847182
0.000847182
0.000843892
0.000835235
0.000812116
0.000758172
0.000653297
0.000488036
0.000293629
0.000132944
2.213e-05
2.3737e-05
0.000165851
0.000385571
0.000608271
0.00075023
0.000812926
0.000837041
0.000845557
0.000849597
0.000851074
0.000851086
0.000849646
0.000845687
0.000837244
0.000812997
0.000749827
0.000607463
0.000384573
0.000165336
2.37647e-05
2.56351e-05
0.000278616
0.000620536
0.000792491
0.000838771
0.000848755
0.000850342
0.000851713
0.000851993
0.000851969
0.000851969
0.000851992
0.000851723
0.000850373
0.000848839
0.000838983
0.000792905
0.000621186
0.000279005
2.56281e-05
3.74534e-05
0.000110281
0.000131351
0.000151949
0.000181924
0.000222021
0.00027236
0.000324993
0.000370016
0.000395508
0.000394181
0.000365732
0.000318918
0.000264069
0.000215171
0.000174693
0.000149388
0.000129994
0.000107747
3.67596e-05
3.72337e-05
0.000110838
0.000133012
0.000154592
0.000185452
0.000223751
0.000275255
0.000327715
0.000372637
0.000397722
0.000396134
0.000367453
0.000320947
0.000265247
0.000218786
0.000174961
0.0001492
0.000129257
0.00010774
3.65412e-05
3.67877e-05
0.000112489
0.000133037
0.000152298
0.000183488
0.000223923
0.000274978
0.000327851
0.000373433
0.000398842
0.000396885
0.000367344
0.00032381
0.000265081
0.000217187
0.000176019
0.000155421
0.000136018
0.000107747
3.68591e-05
3.70325e-05
0.000107683
0.000130372
0.000151264
0.000182304
0.000227069
0.000280457
0.000333755
0.000380011
0.000405891
0.000399633
0.000366843
0.000320172
0.000265175
0.000215826
0.000176774
0.000150294
0.000128734
0.000109866
3.69023e-05
3.71443e-05
0.000107837
0.000131014
0.000152884
0.000183241
0.000227228
0.000277394
0.000329689
0.00037317
0.000397109
0.000394497
0.000366114
0.000321596
0.000266368
0.000217088
0.000177355
0.000151956
0.000129051
0.00011274
3.70131e-05
3.70954e-05
0.000111604
0.000128168
0.000156051
0.000186183
0.000227284
0.000276298
0.000332699
0.00037317
0.000396114
0.000393506
0.000365948
0.00032532
0.000266851
0.000221084
0.000179498
0.000151951
0.000128733
0.000111963
3.69735e-05
3.65682e-05
0.000109926
0.000129691
0.000156272
0.000183751
0.000224905
0.000273427
0.000328134
0.000373253
0.000395844
0.000393333
0.000364565
0.000318798
0.00026662
0.000218213
0.000175837
0.000147874
0.00012821
0.000111533
3.71541e-05
3.66392e-05
0.00010605
0.000129184
0.000153623
0.000182948
0.000222534
0.000273981
0.00033413
0.000375158
0.000395627
0.00039292
0.000365006
0.000319804
0.000269976
0.000216871
0.000176059
0.000148082
0.000125808
0.000107162
3.67475e-05
3.65272e-05
0.000107409
0.000128028
0.000151683
0.000184983
0.000222843
0.000275114
0.000330282
0.000380307
0.0003965
0.00039379
0.000365379
0.000319744
0.000269864
0.000220264
0.000176425
0.000148477
0.000130473
0.000109311
3.66976e-05
3.62308e-05
0.000109182
0.000132186
0.000155224
0.00018181
0.000222443
0.000277562
0.000334491
0.000373257
0.000395601
0.000394384
0.000366824
0.000323568
0.000266703
0.000217496
0.000176825
0.00015231
0.000128341
0.000107395
3.65979e-05
3.64261e-05
0.000109717
0.000129039
0.000151185
0.000182067
0.000223773
0.000274185
0.000329624
0.000374941
0.000401601
0.000401661
0.000368342
0.000320337
0.000269764
0.000220355
0.000176904
0.000150344
0.000129401
0.000110076
3.67096e-05
3.63192e-05
0.000107646
0.000134575
0.000151529
0.000183515
0.000227128
0.00027509
0.000325967
0.00037197
0.00039471
0.000394442
0.000372576
0.000320094
0.000265527
0.000219339
0.000177065
0.000149475
0.00012908
0.000112356
3.6451e-05
3.61067e-05
0.000106805
0.000131639
0.00015311
0.000186615
0.000225815
0.00027855
0.000325426
0.000369887
0.000395986
0.000394272
0.000368444
0.000325068
0.000268289
0.000218571
0.00017898
0.000147909
0.000130402
0.000106165
3.60594e-05
3.6747e-05
0.000107116
0.000131132
0.000155512
0.000184475
0.000225401
0.000275643
0.000329866
0.000377631
0.000405505
0.000396935
0.000374023
0.000323623
0.000264661
0.000214421
0.000174485
0.0001447
0.000126173
0.000104444
3.60774e-05
3.70178e-05
0.0001081
0.000130388
0.00015073
0.000187644
0.000229096
0.000274306
0.000326976
0.000374056
0.000402353
0.000396878
0.000371091
0.000322717
0.000264882
0.000214345
0.000174101
0.000145438
0.000128854
0.000102952
3.58353e-05
3.72265e-05
0.000111757
0.000135827
0.000150809
0.00018604
0.000227549
0.000276889
0.000325138
0.000371362
0.000399292
0.000397301
0.000367152
0.000318959
0.000266281
0.000215557
0.000174934
0.000146874
0.000126443
0.000104574
3.59299e-05
3.71376e-05
0.000109736
0.000140415
0.000153176
0.000184979
0.000225988
0.000274856
0.000326272
0.00037743
0.000406866
0.000400021
0.000368139
0.00031849
0.000269135
0.000218951
0.000177339
0.00014332
0.000122051
0.000108335
3.60277e-05
3.69906e-05
0.000107176
0.000135398
0.000154715
0.00018836
0.000227298
0.000276581
0.000327267
0.000370945
0.000398446
0.00040256
0.000373772
0.000318101
0.000265172
0.000214682
0.000172362
0.000143666
0.000124756
0.00010603
3.61564e-05
3.66586e-05
0.000110696
0.000132574
0.000151065
0.000184217
0.000228986
0.000280892
0.000333403
0.000373229
0.000402641
0.000410881
0.000366573
0.000318191
0.000269346
0.000218856
0.000173652
0.000146379
0.000122978
0.000103711
3.60227e-05
3.70613e-05
0.000110355
0.000133473
0.000153082
0.000184712
0.000225089
0.000277745
0.000330676
0.000373388
0.000397128
0.000400702
0.000364945
0.000317633
0.000267071
0.00021793
0.000173364
0.000147391
0.000128437
0.000106984
3.62844e-05
3.71056e-05
0.000112802
0.00013442
0.000155603
0.000187232
0.000226015
0.000274745
0.000328329
0.000379529
0.000397596
0.000395158
0.000365843
0.000317518
0.000265211
0.000219103
0.000175
0.000149979
0.000126312
0.000111217
3.59898e-05
3.72363e-05
0.000108898
0.000137629
0.000159231
0.000183096
0.000223801
0.000275735
0.000328164
0.000375596
0.000397048
0.000401151
0.000372558
0.000318922
0.000264885
0.000218689
0.000175547
0.000145788
0.000126054
0.000108038
3.59091e-05
3.73382e-05
0.000110924
0.000136745
0.000156733
0.000183135
0.000224217
0.000274922
0.000329388
0.000383899
0.000397584
0.000394352
0.000366704
0.000319846
0.000266316
0.000217905
0.000177433
0.000144562
0.000125348
0.000103852
3.56559e-05
3.75705e-05
0.000111352
0.000136932
0.000153118
0.000182906
0.000227229