/*--------------------------------*- C++ -*----------------------------------*\
  =========                 |
  \\      /  F ield         | OpenFOAM: The Open Source CFD Toolbox
   \\    /   O peration     | Website:  https://openfoam.org
    \\  /    A nd           | Version:  6
     \\/     M anipulation  |
\*---------------------------------------------------------------------------*/
FoamFile
{
    version     2.0;
    format      ascii;
    class       volScalarField;
    location    "14";
    object      p;
}
// * * * * * * * * * * * * * * * * * * * * * * * * * * * * * * * * * * * * * //

dimensions      [0 2 -2 0 0 0 0];

internalField   nonuniform List<scalar> 
130000
(
0.00607052
0.00531595
0.0047867
0.00439142
0.00405652
0.00375705
0.00348582
0.00323001
0.00298817
0.00275255
0.00252205
0.00229297
0.00206357
0.0018322
0.00160106
0.00136752
0.00113476
0.000900211
0.000661138
0.00042668
0.00861304
0.0080644
0.0074988
0.00705694
0.00664358
0.00626462
0.00588643
0.0055173
0.00514439
0.00477131
0.00439575
0.0040163
0.00363791
0.00325854
0.00288056
0.00250542
0.00213609
0.00176485
0.00139301
0.00102798
0.0104372
0.0099142
0.00928419
0.00876103
0.0082406
0.00775201
0.00725835
0.00678047
0.00629956
0.0058233
0.00534718
0.00487104
0.00439951
0.00392412
0.00346196
0.00299502
0.00254602
0.00209078
0.00164704
0.00119796
0.0119231
0.0114163
0.0107835
0.010214
0.00961411
0.00902126
0.0084147
0.00781676
0.00721543
0.00661567
0.00602079
0.00542388
0.00484063
0.00425656
0.00368976
0.003124
0.00258264
0.00203806
0.00151743
0.000992666
0.0129339
0.0125637
0.0120142
0.0114751
0.0108692
0.0102378
0.00958071
0.00891493
0.00824114
0.0075566
0.00687614
0.00618669
0.0055131
0.00482998
0.0041757
0.00351205
0.00288561
0.0022507
0.0016538
0.00104459
0.0136399
0.0133253
0.0128348
0.0123285
0.0117344
0.0110873
0.0104063
0.00969852
0.00897924
0.00823395
0.0074932
0.00673034
0.0059886
0.00523168
0.00450494
0.0037681
0.00307285
0.00236607
0.00170457
0.00102712
0.013956
0.0137318
0.0133017
0.0128321
0.0122594
0.0116086
0.0109192
0.0101835
0.0094351
0.00864447
0.00785886
0.00703955
0.00624303
0.00541836
0.00463374
0.00382522
0.00306895
0.00229272
0.00157139
0.000818997
0.0141417
0.0139497
0.0135647
0.0131324
0.0125878
0.0119404
0.0112505
0.0104977
0.00973119
0.00890763
0.00809053
0.00722581
0.00638869
0.00551578
0.00468325
0.0038238
0.00301991
0.00219114
0.00142351
0.000619498
0.0141682
0.0139733
0.0136057
0.0132041
0.0126834
0.0120432
0.0113567
0.0105944
0.00981714
0.00897071
0.00813006
0.00723207
0.00636161
0.0054429
0.00457221
0.00366059
0.002813
0.00193138
0.00111814
0.000252912
0.013922
0.0137739
0.013457
0.0130989
0.0126152
0.0119901
0.0113154
0.010551
0.00977101
0.00890929
0.00805449
0.00712964
0.0062363
0.00528712
0.00438534
0.0034389
0.0025586
0.00163799
0.000790235
-0.000116072
0.0136757
0.013503
0.0131917
0.0128496
0.0123843
0.0117641
0.0110972
0.0103303
0.00954992
0.00867698
0.00781176
0.00686742
0.00595483
0.00497431
0.00404808
0.00306326
0.00215184
0.00119049
0.000307525
-0.00064972
0.0131386
0.0130187
0.0127574
0.0124582
0.0120294
0.0114249
0.010773
0.0100093
0.00923366
0.00835412
0.0074844
0.00652367
0.00559898
0.00459891
0.00365263
0.00264364
0.00170985
0.000719339
-0.000188984
-0.00117871
0.0126553
0.0124987
0.0122415
0.011964
0.0115542
0.0109572
0.010314
0.00955244
0.00878032
0.00789637
0.00702254
0.00605071
0.00511441
0.00409233
0.00312979
0.00209185
0.00113493
0.000112512
-0.000823604
-0.00185569
0.011937
0.0118298
0.0116166
0.0113811
0.0109994
0.0104175
0.00978732
0.00903198
0.00826617
0.00738068
0.00650636
0.00552453
0.00458149
0.00354673
0.00257038
0.00151513
0.000541966
-0.000502762
-0.00145856
-0.00251678
0.0111872
0.0111124
0.0109306
0.0107183
0.0103549
0.00978088
0.00916098
0.00840989
0.0076501
0.00676378
0.00588825
0.00490001
0.00394923
0.00289878
0.00191011
0.000832767
-0.000158898
-0.00122851
-0.00220806
-0.00330116
0.010396
0.010345
0.0101946
0.0100118
0.00966909
0.00910704
0.00849865
0.00775463
0.00700161
0.00611646
0.00524187
0.00424765
0.00329219
0.00223321
0.00123358
0.000143593
-0.000861475
-0.00194874
-0.00294558
-0.00406029
0.00947932
0.00947017
0.00935795
0.00921601
0.00889918
0.00835469
0.00775912
0.00702556
0.00627945
0.00539847
0.00452347
0.00352755
0.00256502
0.00149559
0.00048461
-0.000621649
-0.00164404
-0.0027504
-0.00376979
-0.00491265
0.00866397
0.00864199
0.00854196
0.00843505
0.00813534
0.00760508
0.00701863
0.00629507
0.00555409
0.00467729
0.00380224
0.00280357
0.0018359
0.000760705
-0.000261354
-0.00137778
-0.00241371
-0.00353486
-0.00457188
-0.00573336
0.00770898
0.00773721
0.00767535
0.00760535
0.00732677
0.0068115
0.00623511
0.00552257
0.00478668
0.0039156
0.00303879
0.002041
0.00106535
-1.64939e-05
-0.00105117
-0.00217961
-0.00323366
-0.00436953
-0.00542989
-0.00661359
0.00687415
0.00691208
0.00686745
0.00681865
0.00655192
0.00604413
0.00547274
0.0047686
0.0040363
0.00316966
0.00229123
0.00129192
0.000309832
-0.000776673
-0.00182334
-0.00296077
-0.00402961
-0.00517925
-0.00625939
-0.00746101
0.00595911
0.00602996
0.00601699
0.00600125
0.00575337
0.00525985
0.00469499
0.00400186
0.00327271
0.00241312
0.00153091
0.000534111
-0.000457772
-0.00154787
-0.002609
-0.003755
-0.00484401
-0.00600505
-0.00711089
-0.00833049
0.00514362
0.00521366
0.00520827
0.00522679
0.0049923
0.00451478
0.00395332
0.00327044
0.00254184
0.00168856
0.000802585
-0.000194179
-0.00119456
-0.00228885
-0.00336394
-0.00451931
-0.00562579
-0.00680132
-0.00793029
-0.00916903
0.00429183
0.00439664
0.00441468
0.00446861
0.00424845
0.00378812
0.00322967
0.00255849
0.00182896
0.000984205
9.18775e-05
-0.000900784
-0.00191374
-0.00300972
-0.00410233
-0.00526387
-0.0063936
-0.00757806
-0.00873594
-0.00998934
0.00352507
0.00365463
0.00368948
0.00377318
0.00356409
0.00311729
0.00256059
0.00189878
0.00116689
0.000327479
-0.000571202
-0.00156445
-0.00258847
-0.00368983
-0.004799
-0.00597121
-0.00712106
-0.00832147
-0.00950616
-0.0107813
0.00281621
0.00295811
0.0030104
0.0031238
0.00292669
0.00249498
0.00193964
0.00128868
0.0005536
-0.00027851
-0.00118587
-0.0021758
-0.00321491
-0.00431833
-0.00544802
-0.00662593
-0.00780159
-0.00900984
-0.0102267
-0.0115157
0.00214018
0.00231351
0.00238115
0.0025348
0.00235197
0.00193769
0.0013848
0.000744055
6.33725e-06
-0.000821741
-0.00173669
-0.00272892
-0.00378094
-0.00489216
-0.0060411
-0.0072326
-0.0084313
-0.00965833
-0.0109054
-0.0122199
0.00159718
0.0017778
0.00185922
0.002037
0.00186452
0.00146128
0.000909658
0.000276938
-0.000464075
-0.00128813
-0.00221245
-0.00320395
-0.00427196
-0.00538798
-0.00655904
-0.00775971
-0.00898706
-0.0102253
-0.0115072
-0.0128391
0.00106634
0.00128749
0.001399
0.00160939
0.00145532
0.00106449
0.000518104
-0.000108514
-0.00085107
-0.00167505
-0.00260699
-0.00360432
-0.00468545
-0.00581212
-0.00700324
-0.00822064
-0.0094728
-0.0107336
-0.0120478
-0.0134098
0.00072102
0.000940649
0.00106891
0.0012977
0.00115623
0.0007718
0.000228734
-0.000393895
-0.00113822
-0.00196239
-0.00290367
-0.00390493
-0.00500191
-0.0061381
-0.00735114
-0.00858297
-0.00986428
-0.0111423
-0.0124926
-0.0138798
0.000385946
0.000646617
0.000809378
0.00107375
0.000953385
0.000581316
4.51968e-05
-0.000572349
-0.00131675
-0.0021429
-0.00309159
-0.0041021
-0.00521237
-0.0063623
-0.00759588
-0.00884785
-0.0101548
-0.0114596
-0.0128431
-0.0142653
0.000243618
0.000512248
0.000694358
0.00098288
0.000877453
0.000514032
-1.73388e-05
-0.000630896
-0.00137594
-0.00220357
-0.00316118
-0.00417908
-0.0053058
-0.00647032
-0.00772644
-0.0089988
-0.0103357
-0.0116646
-0.0130856
-0.0145419
0.000161332
0.000469731
0.000687073
0.00101377
0.000931564
0.00058183
5.88832e-05
-0.000549452
-0.00129353
-0.00212407
-0.00308895
-0.00411884
-0.00525985
-0.00644138
-0.00771928
-0.00901517
-0.010379
-0.0117385
-0.0131942
-0.0146902
0.000278318
0.000597571
0.000840865
0.0011951
0.00113237
0.000792834
0.000277406
-0.00032657
-0.00106964
-0.00190257
-0.00287592
-0.00391583
-0.00507429
-0.00627434
-0.00757583
-0.00889706
-0.0102928
-0.0116824
-0.0131781
-0.0147161
0.000490343
0.000851448
0.00113537
0.0015304
0.00149468
0.00117014
0.000665712
6.74563e-05
-0.000672859
-0.00150873
-0.00248785
-0.00354073
-0.00471377
-0.00593342
-0.00725833
-0.00860641
-0.0100313
-0.0114557
-0.0129887
-0.0145715
0.000917396
0.00129805
0.00161363
0.00204027
0.00202826
0.00171623
0.00122245
0.000629449
-0.000107976
-0.000946229
-0.00193209
-0.00299512
-0.00418512
-0.00542606
-0.00677634
-0.00815384
-0.00961315
-0.0110726
-0.0126492
-0.0142809
0.00147204
0.00190114
0.00226316
0.00273547
0.00275546
0.00246163
0.00198247
0.00139679
0.000664195
-0.000176883
-0.00116753
-0.00224388
-0.00344785
-0.00470956
-0.00608429
-0.00749145
-0.00898264
-0.0104811
-0.0120989
-0.013781
0.00227344
0.00272508
0.00312672
0.00363546
0.00368512
0.00340715
0.00294277
0.0023644
0.00163741
0.000794627
-0.000201747
-0.00128894
-0.00250981
-0.00379433
-0.00519574
-0.00663587
-0.00816484
-0.00970334
-0.011369
-0.0131064
0.00322558
0.00373405
0.00419126
0.00475231
0.00484027
0.00458514
0.00413996
0.00357208
0.00285308
0.00200917
0.00100942
-9.13911e-05
-0.00132666
-0.00263387
-0.00406195
-0.00553517
-0.00709943
-0.00868156
-0.0103931
-0.012187
0.00445613
0.00499887
0.00550316
0.00610829
0.00623191
0.00599813
0.00557236
0.00501541
0.0043051
0.00346125
0.00245722
0.00134554
9.30772e-05
-0.00123882
-0.00269542
-0.00420509
-0.00581077
-0.00743829
-0.00920288
-0.0110589
0.00587338
0.00648386
0.00705218
0.007718
0.00788661
0.00768153
0.00727985
0.00673734
0.00603827
0.00519542
0.00418973
0.00306491
0.0017982
0.000442492
-0.00104233
-0.00258814
-0.00423284
-0.00590913
-0.00772484
-0.00964419
0.00760934
0.00826186
0.00888804
0.00960617
0.00981805
0.00964023
0.00926346
0.00873615
0.00804955
0.00720931
0.00620147
0.00506667
0.0037833
0.00240207
0.000887536
-0.000697564
-0.00238701
-0.00411376
-0.00598784
-0.00797701
0.00956174
0.0102961
0.0109991
0.011788
0.0120535
0.0119116
0.0115653
0.0110576
0.0103867
0.00955067
0.00854381
0.00739728
0.00610063
0.00469528
0.0031516
0.00152803
-0.000203551
-0.00198383
-0.00391449
-0.00597455
0.011876
0.0126667
0.0134389
0.0142908
0.0146091
0.0145027
0.0141888
0.0137022
0.0130491
0.0122194
0.0112135
0.0100587
0.0087464
0.00731496
0.0057405
0.00407483
0.00229519
0.00045929
-0.00153544
-0.00367355
0.0144481
0.0153335
0.0161961
0.0171314
0.0175149
0.0174536
0.0171787
0.0167186
0.0160872
0.0152661
0.0142646
0.0130999
0.0117753
0.0103192
0.00871416
0.00700712
0.00518162
0.0032869
0.00122952
-0.000987567
0.0174272
0.0183803
0.0193288
0.0203408
0.0207897
0.0207738
0.0205405
0.0201091
0.019502
0.0186921
0.0176953
0.0165244
0.0151851
0.0137024
0.012065
0.0103127
0.00843491
0.00647881
0.0043507
0.00204684
0.0207087
0.021772
0.0228284
0.0239392
0.024466
0.0245066
0.024322
0.0239257
0.0233472
0.0225515
0.0215633
0.0203851
0.0190348
0.0175272
0.0158577
0.0140609
0.0121329
0.0101119
0.00791401
0.00552196
0.0244355
0.0255906
0.0267514
0.0279575
0.0285639
0.0286631
0.0285307
0.0281729
0.0276263
0.0268485
0.0258695
0.0246886
0.0233252
0.0217912
0.0200877
0.0182427
0.0162576
0.0141691
0.0118927
0.00940401
0.0285321
0.0298152
0.0311005
0.0324237
0.0331223
0.0332917
0.0332191
0.0329069
0.0323973
0.0316411
0.0306759
0.0294917
0.0281193
0.0265609
0.0248241
0.0229316
0.0208915
0.0187316
0.0163772
0.0137898
0.0331146
0.0345128
0.0359253
0.0373653
0.0381601
0.0384038
0.038396
0.0381344
0.0376662
0.0369364
0.0359864
0.0348044
0.0334213
0.0318378
0.0300658
0.0281225
0.0260203
0.0237864
0.0213444
0.0186494
0.0381283
0.0396765
0.041236
0.0428155
0.0437204
0.0440512
0.0441171
0.0439147
0.043494
0.0427955
0.0418663
0.0406867
0.0392978
0.0376916
0.0358854
0.033892
0.0317297
0.0294172
0.0268879
0.0240819
0.0436754
0.0453671
0.0470792
0.0488011
0.0498226
0.050247
0.0503936
0.0502572
0.0498902
0.0492293
0.0483235
0.0471531
0.0457573
0.0441286
0.0422865
0.0402402
0.0380104
0.035617
0.0329899
0.030064
0.0497171
0.0515862
0.0534719
0.0553597
0.0565137
0.0570461
0.0572845
0.0572241
0.0569186
0.0563017
0.0554261
0.0542661
0.0528694
0.0512208
0.0493445
0.0472457
0.0449505
0.0424707
0.0397456
0.0366947
0.0563494
0.0583898
0.0604593
0.0625189
0.0638152
0.0644645
0.064804
0.0648287
0.0645927
0.0640279
0.0631866
0.0620452
0.0606474
0.0589806
0.0570687
0.0549156
0.0525473
0.0499792
0.0471447
0.0439596
0.0635314
0.0657827
0.06806
0.0703187
0.0717752
0.0725585
0.0730124
0.0731345
0.0729779
0.0724733
0.071675
0.0705548
0.0691632
0.0674813
0.0655363
0.0633289
0.0608898
0.0582268
0.055282
0.0519555
0.0713655
0.0738261
0.076323
0.0787892
0.0804182
0.0813473
0.0819274
0.0821586
0.0820919
0.0816581
0.0809088
0.07982
0.0784358
0.076742
0.074763
0.0725006
0.0699827
0.067223
0.0641557
0.0606781
0.0798075
0.0825196
0.0852634
0.087968
0.089791
0.0908861
0.0916087
0.0919644
0.0920002
0.0916478
0.0909586
0.0899054
0.0885377
0.0868358
0.0848265
0.0825087
0.0799145
0.0770504
0.0738587
0.0702204
0.0889621
0.0919245
0.0949317
0.0978867
0.0999197
0.101196
0.102077
0.102572
0.102724
0.102467
0.101846
0.100842
0.0994936
0.0977891
0.0957495
0.0933771
0.0906983
0.0877284
0.0843989
0.0805898
0.0987662
0.102031
0.105335
0.108576
0.110846
0.112328
0.113388
0.114042
0.114327
0.114179
0.113642
0.112693
0.111376
0.109674
0.107609
0.105182
0.102421
0.0993364
0.0958663
0.0918735
0.109337
0.112904
0.116525
0.120069
0.122595
0.124304
0.125563
0.126397
0.126833
0.126812
0.126371
0.125494
0.124214
0.122523
0.120434
0.117954
0.115104
0.111903
0.108278
0.104091
0.120589
0.124517
0.128494
0.132383
0.135201
0.137167
0.138652
0.13969
0.1403
0.140426
0.140099
0.139305
0.138077
0.136404
0.1343
0.131767
0.128831
0.125503
0.121719
0.11732
0.132637
0.136928
0.141289
0.145548
0.148684
0.150934
0.152673
0.153942
0.154751
0.155048
0.154855
0.154166
0.153
0.151357
0.14924
0.146659
0.143628
0.140173
0.136212
0.131589
0.145368
0.15009
0.154884
0.159564
0.16306
0.165636
0.167664
0.169199
0.170237
0.170732
0.170698
0.17013
0.169046
0.167445
0.165324
0.162696
0.159573
0.155979
0.151836
0.146967
0.158894
0.164055
0.169315
0.174451
0.178344
0.181282
0.183638
0.185475
0.186776
0.187503
0.187654
0.187236
0.18625
0.184706
0.182588
0.179919
0.176697
0.172961
0.168617
0.163488
0.173071
0.178746
0.184532
0.190186
0.194532
0.197885
0.200615
0.202801
0.204406
0.205401
0.205772
0.205528
0.204666
0.203194
0.201094
0.198385
0.195067
0.191175
0.18662
0.181203
0.187979
0.194191
0.20055
0.20677
0.211619
0.215438
0.218594
0.221177
0.223134
0.224441
0.225066
0.225034
0.224318
0.222941
0.220867
0.218128
0.214707
0.210655
0.205867
0.200142
0.203443
0.210281
0.217288
0.224154
0.229576
0.233927
0.23757
0.240609
0.242969
0.244636
0.245561
0.245772
0.245236
0.243975
0.241945
0.23918
0.235659
0.231432
0.226399
0.220334
0.219504
0.227008
0.23473
0.242307
0.248368
0.253316
0.257508
0.261062
0.26388
0.265959
0.267227
0.267727
0.2674
0.266286
0.264316
0.261538
0.257912
0.253509
0.248207
0.241778
0.235966
0.244229
0.252758
0.261138
0.26792
0.273538
0.278345
0.282475
0.285807
0.288347
0.290005
0.290832
0.290755
0.289814
0.287931
0.285154
0.281436
0.276846
0.271265
0.264441
0.252789
0.261873
0.271292
0.280552
0.288124
0.294475
0.29995
0.304706
0.308595
0.31164
0.313726
0.314922
0.315127
0.314399
0.312631
0.309883
0.306083
0.301321
0.295454
0.288223
0.269749
0.279748
0.290153
0.30038
0.308805
0.315934
0.322112
0.327517
0.331984
0.335552
0.33809
0.339678
0.340202
0.339722
0.33811
0.335428
0.331588
0.326675
0.320543
0.312904
0.286686
0.297673
0.309143
0.320389
0.329693
0.337601
0.344468
0.350501
0.355521
0.359594
0.362571
0.36456
0.365415
0.365219
0.363807
0.361251
0.357422
0.352424
0.346072
0.338071
0.303324
0.315352
0.327942
0.340227
0.350386
0.359013
0.366489
0.373058
0.378542
0.383038
0.386396
0.388745
0.389928
0.390035
0.388871
0.386506
0.382778
0.377782
0.37131
0.363028
0.319283
0.332396
0.346118
0.359397
0.370312
0.379506
0.387419
0.394344
0.400122
0.404894
0.408508
0.411137
0.412593
0.412996
0.412105
0.410001
0.40646
0.401591
0.395118
0.386685
0.334225
0.348366
0.363134
0.377259
0.388732
0.398252
0.406344
0.413361
0.419189
0.424012
0.4277
0.430455
0.432088
0.432733
0.432106
0.430298
0.427024
0.422384
0.416041
0.407596
0.347472
0.362598
0.378275
0.393
0.404743
0.414272
0.422217
0.429004
0.434583
0.439186
0.442708
0.445395
0.447041
0.447808
0.447372
0.44583
0.442824
0.438462
0.432316
0.423967
0.358615
0.374513
0.390862
0.40587
0.417519
0.426687
0.434135
0.440346
0.445353
0.449432
0.452521
0.454887
0.456334
0.457037
0.456633
0.455224
0.452383
0.448218
0.442237
0.433982
0.366703
0.38326
0.40005
0.415015
0.426196
0.434622
0.441235
0.446565
0.450724
0.454008
0.456396
0.458175
0.459157
0.459526
0.458893
0.457344
0.454403
0.450199
0.444172
0.435831
0.371409
0.388301
0.405248
0.419868
0.430275
0.43766
0.443168
0.44737
0.450442
0.452686
0.45413
0.455048
0.455273
0.454978
0.453744
0.451654
0.448201
0.443529
0.437046
0.428214
0.371553
0.388708
0.405671
0.419778
0.429258
0.435454
0.439711
0.44264
0.444491
0.445526
0.445807
0.445589
0.444729
0.443356
0.441056
0.437874
0.433319
0.427536
0.419931
0.409922
0.366995
0.384131
0.400991
0.414547
0.423099
0.428141
0.431188
0.432846
0.43342
0.433129
0.432078
0.430461
0.428165
0.425255
0.421326
0.416394
0.409979
0.402224
0.392607
0.380524
0.356356
0.3736
0.390494
0.403705
0.41158
0.415725
0.417806
0.418394
0.41781
0.416191
0.41368
0.4104
0.406269
0.401259
0.395035
0.387496
0.378242
0.367417
0.354677
0.339342
0.339491
0.356744
0.373889
0.387144
0.394812
0.398582
0.400173
0.400081
0.398613
0.395789
0.391785
0.386609
0.380236
0.372519
0.363175
0.352019
0.338767
0.323613
0.306365
0.286213
0.314217
0.331944
0.349967
0.364065
0.372373
0.376612
0.378515
0.378425
0.37658
0.37285
0.367427
0.360171
0.351109
0.339934
0.326496
0.310485
0.291851
0.270659
0.246946
0.219934
0.279519
0.297952
0.317648
0.33372
0.343922
0.349888
0.353239
0.354158
0.352746
0.34867
0.342097
0.332678
0.320506
0.3051
0.286471
0.264213
0.238368
0.208895
0.176353
0.140081
0.231264
0.251509
0.274367
0.294222
0.308191
0.317743
0.324257
0.32767
0.327899
0.324347
0.317104
0.305557
0.289865
0.269353
0.244275
0.213855
0.178417
0.137962
0.0936489
0.0448039
0.166481
0.189546
0.217583
0.243768
0.264145
0.279866
0.29192
0.299936
0.30351
0.301731
0.294546
0.281038
0.261487
0.234967
0.201775
0.160886
0.113137
0.0584882
-0.00133037
-0.0668692
0.0784693
0.106803
0.143342
0.179695
0.210282
0.235762
0.256571
0.271939
0.28105
0.282629
0.27645
0.261266
0.2375
0.2037
0.160407
0.106425
0.0431036
-0.0299234
-0.110083
-0.197737
-0.0372398
-0.000676728
0.048943
0.100625
0.14644
0.186292
0.219834
0.24585
0.263023
0.269748
0.26565
0.24919
0.220605
0.177972
0.122432
0.0524753
-0.0303721
-0.126801
-0.233206
-0.349515
-0.187417
-0.137015
-0.0674436
0.00662313
0.0740263
0.133605
0.184133
0.223959
0.251239
0.264125
0.262351
0.243948
0.209051
0.155715
0.0856286
-0.00362042
-0.110321
-0.235891
-0.375659
-0.528935
-0.372232
-0.300671
-0.202114
-0.0972069
-0.00153526
0.0824648
0.153004
0.208129
0.245778
0.264189
0.263124
0.240302
0.196454
0.129882
0.0424046
-0.0694744
-0.204529
-0.365174
-0.545813
-0.74524
-0.589379
-0.485201
-0.345949
-0.201204
-0.0716303
0.0394353
0.130029
0.198662
0.243692
0.263906
0.259551
0.228427
0.171915
0.0881159
-0.0212392
-0.161004
-0.330207
-0.532601
-0.762212
-1.01806
-0.823646
-0.674051
-0.482859
-0.292369
-0.128316
0.00636013
0.11142
0.186545
0.23156
0.246184
0.231097
0.184913
0.109884
0.00340094
-0.133423
-0.307113
-0.517452
-0.769754
-1.05869
-1.38341
-1.05741
-0.849598
-0.60103
-0.368789
-0.1806
-0.036192
0.0684343
0.135991
0.168487
0.166577
0.132107
0.0643264
-0.0348516
-0.169438
-0.339824
-0.55507
-0.816176
-1.12986
-1.49024
-1.89539
-1.27114
-1.00116
-0.704295
-0.451069
-0.263411
-0.132322
-0.0469999
-0.00123464
0.00817336
-0.0178069
-0.0770851
-0.17012
-0.296631
-0.462789
-0.671984
-0.936103
-1.25692
-1.64014
-2.07843
-2.56808
-1.4754
-1.14904
-0.825355
-0.577241
-0.41049
-0.304806
-0.244778
-0.222545
-0.236221
-0.284485
-0.366264
-0.48165
-0.633233
-0.829098
-1.07697
-1.38937
-1.76912
-2.21991
-2.73388
-3.30304
-1.72965
-1.35861
-1.02543
-0.786309
-0.630627
-0.535356
-0.48731
-0.478143
-0.504903
-0.563392
-0.654268
-0.777593
-0.940161
-1.14956
-1.41844
-1.75906
-2.17855
-2.67934
-3.25515
-3.88575
-2.15046
-1.76633
-1.43221
-1.18355
-1.01611
-0.914941
-0.865131
-0.850321
-0.867726
-0.911682
-0.987873
-1.09345
-1.23849
-1.42577
-1.67308
-1.99077
-2.39865
-2.90283
-3.49182
-4.0896
-3.00144
-2.57107
-2.19259
-1.90074
-1.68955
-1.5443
-1.45138
-1.39544
-1.37761
-1.38884
-1.43518
-1.50774
-1.6176
-1.75531
-1.94017
-2.17565
-2.4993
-2.92553
-3.42513
-3.74579
-3.92745
-3.42239
-2.94244
-2.51245
-2.16502
-1.91205
-1.74376
-1.63299
-1.57922
-1.56286
-1.59392
-1.65006
-1.75048
-1.86507
-2.03271
-2.22375
-2.49966
-2.82653
-3.10828
-2.86542
-3.44187
-3.71589
-3.3014
-2.78107
-2.37419
-2.09186
-1.89829
-1.76826
-1.69453
-1.66572
-1.68303
-1.73439
-1.82474
-1.93817
-2.0859
-2.25372
-2.48193
-2.73109
-2.65244
-1.67043
0.000556381
0.0004815
0.000436166
0.00038563
0.000320695
0.000255815
0.00019875
0.000139806
8.24613e-05
1.92156e-05
-4.61947e-05
-0.000119303
-0.000197234
-0.000285308
-0.000377268
-0.000479551
-0.000585322
-0.000704129
-0.000842664
-0.000998058
0.00355929
0.00343868
0.00336055
0.00327517
0.00315574
0.00304095
0.00292144
0.00280311
0.00267528
0.00254243
0.00239868
0.00224639
0.00208316
0.00191247
0.00172877
0.00154094
0.00134334
0.00113309
0.000896268
0.000666112
0.00653494
0.00645732
0.00629251
0.00614638
0.00595527
0.00577569
0.00557651
0.00538631
0.00517504
0.00496693
0.004739
0.00451146
0.00426573
0.00401686
0.00375653
0.00349379
0.0032229
0.00294595
0.00264556
0.0023466
0.00853212
0.0084244
0.0082126
0.00803285
0.00778854
0.00755742
0.00729098
0.00703748
0.00675225
0.00647553
0.00617258
0.00587529
0.00555678
0.00524485
0.00491349
0.00459078
0.0042542
0.00392046
0.00356631
0.00322158
0.0110409
0.0109117
0.01067
0.0104667
0.0101793
0.00990557
0.00958243
0.0092771
0.0089296
0.00859587
0.00822732
0.0078708
0.00748612
0.00710931
0.00671388
0.00632473
0.00592297
0.00552686
0.00511207
0.0047093
0.0133987
0.0132488
0.0129803
0.0127605
0.0124383
0.0121304
0.0117605
0.0114117
0.0110123
0.0106296
0.0102058
0.00979565
0.00935354
0.00892508
0.00846909
0.0080279
0.00756814
0.00711904
0.0066471
0.00618996
0.0156517
0.0154865
0.0151946
0.0149597
0.0146086
0.0142732
0.0138649
0.0134803
0.0130366
0.012612
0.0121389
0.0116822
0.0111868
0.010703
0.0101933
0.00969335
0.00917685
0.00867024
0.00814016
0.00761769
0.0179519
0.0177588
0.0174408
0.0171944
0.0168192
0.0164616
0.0160212
0.0156056
0.0151234
0.0146608
0.0141444
0.0136436
0.0131012
0.0125743
0.0120132
0.0114687
0.0109016
0.0103477
0.00976648
0.00919532
0.0202159
0.0200064
0.0196697
0.0194144
0.0190185
0.0186403
0.0181705
0.0177268
0.0172093
0.0167124
0.0161556
0.0156155
0.0150286
0.0144529
0.0138457
0.0132475
0.0126295
0.0120204
0.0113836
0.0107471
0.0225509
0.0223172
0.0219611
0.0217006
0.0212876
0.0208921
0.020396
0.019927
0.0193782
0.0188498
0.0182571
0.0176795
0.0170524
0.0164393
0.0157861
0.0151476
0.0144831
0.0138292
0.013143
0.0124583
0.0248611
0.0246175
0.0242494
0.0239872
0.0235613
0.0231521
0.0226332
0.0221416
0.0215634
0.0210056
0.0203782
0.0197662
0.0190997
0.0184412
0.017745
0.0170539
0.0163406
0.0156328
0.0148938
0.0141447
0.0272809
0.0270169
0.0266355
0.0263733
0.0259364
0.0255159
0.0249772
0.0244658
0.0238612
0.0232765
0.0226174
0.0219718
0.0212689
0.0205759
0.0198364
0.0191068
0.0183489
0.0175983
0.0168127
0.0160169
0.0297156
0.0294502
0.0290615
0.028801
0.0283537
0.027923
0.0273653
0.0268359
0.0262064
0.0255969
0.0249068
0.02423
0.02349
0.0227546
0.0219749
0.0211958
0.0203912
0.0195875
0.0187494
0.0178879
0.0323136
0.0320344
0.0316351
0.0313742
0.0309182
0.0304784
0.0299036
0.0293569
0.028704
0.0280705
0.0273518
0.0266436
0.0258695
0.0251008
0.0242799
0.0234626
0.0226137
0.0217654
0.0208788
0.0199675
0.0349565
0.0346851
0.0342821
0.034023
0.0335596
0.0331135
0.0325245
0.0319632
0.0312884
0.0306325
0.0298852
0.0291483
0.0283391
0.0275302
0.0266686
0.0258014
0.0249033
0.0239999
0.0230573
0.0220785
0.03779
0.0375161
0.0371103
0.0368518
0.0363833
0.0359306
0.0353297
0.0347546
0.0340602
0.0333815
0.0326074
0.0318396
0.0309974
0.0301536
0.0292507
0.0283428
0.0273996
0.0264494
0.0254575
0.0244265
0.0406978
0.0404463
0.0400498
0.0397963
0.0393258
0.0388679
0.0382563
0.0376678
0.036955
0.0362549
0.0354533
0.0346559
0.0337777
0.0328931
0.0319491
0.0309937
0.0300031
0.0290014
0.0279556
0.0268599
0.0438167
0.0435835
0.0431969
0.0429462
0.042475
0.0420119
0.0413918
0.0407894
0.0400595
0.0393373
0.0385111
0.0376817
0.0367704
0.0358489
0.0348644
0.0338668
0.0328317
0.0317814
0.030686
0.0295343
0.0470634
0.0468694
0.0464995
0.0462533
0.0457831
0.0453167
0.0446905
0.0440756
0.0433296
0.0425858
0.0417341
0.0408752
0.039929
0.0389671
0.0379399
0.0368933
0.0358074
0.0347037
0.0335513
0.0323343
0.0505559
0.0503916
0.0500372
0.0497912
0.0493214
0.0488488
0.0482177
0.0475895
0.0468286
0.0460606
0.0451839
0.0442914
0.043313
0.0423122
0.041244
0.0401514
0.0390187
0.037862
0.0366558
0.0353771
0.0542278
0.0541012
0.0537678
0.053522
0.0530536
0.0525735
0.0519371
0.0512946
0.0505188
0.0497274
0.048825
0.0479018
0.0468891
0.0458494
0.0447399
0.043601
0.042417
0.0412065
0.03994
0.0385946
0.0581399
0.0580493
0.057738
0.0574917
0.0570255
0.0565363
0.0558943
0.0552357
0.0544462
0.0536319
0.0527082
0.0517534
0.0507106
0.0496321
0.0484825
0.0472965
0.0460642
0.0447973
0.0434732
0.0420606
0.0622655
0.0622178
0.0619325
0.0616874
0.0612253
0.0607293
0.0600844
0.0594119
0.0586099
0.0577751
0.0568301
0.0558484
0.0547737
0.0536582
0.0524661
0.0512334
0.0499465
0.0486246
0.0472359
0.0457546
0.0666464
0.0666417
0.0663859
0.0661459
0.0656938
0.0651952
0.064552
0.0638678
0.063055
0.0621977
0.0612321
0.0602195
0.0591157
0.0579615
0.0567284
0.0554454
0.0541056
0.052721
0.0512672
0.0497109
0.0712869
0.0713239
0.0711041
0.0708752
0.07044
0.0699431
0.069305
0.0686117
0.0677898
0.0669124
0.0659249
0.0648844
0.0637475
0.0625551
0.0612766
0.059944
0.0585438
0.0570995
0.0555735
0.0539431
0.0761964
0.0762831
0.0761059
0.0758964
0.0754841
0.0749932
0.0743638
0.0736635
0.0728355
0.0719386
0.0709321
0.0698598
0.0686913
0.0674558
0.0661307
0.0647418
0.0632827
0.0617697
0.060172
0.0584589
0.0814181
0.0815513
0.0814187
0.0812309
0.0808449
0.0803629
0.0797458
0.0790421
0.078211
0.0772977
0.0762716
0.07517
0.0739652
0.0726859
0.0713099
0.0698654
0.0683409
0.0667628
0.0650875
0.0632927
0.0869537
0.0871409
0.0870554
0.0868941
0.0865373
0.0860685
0.0854674
0.084764
0.0839331
0.0830042
0.0819611
0.0808263
0.0795872
0.0782606
0.0768341
0.0753289
0.0737417
0.0720898
0.0703379
0.0684526
0.092851
0.0930876
0.0930504
0.092917
0.0925918
0.0921374
0.0915536
0.0908516
0.0900221
0.0890794
0.0880185
0.0868539
0.0855782
0.0842044
0.0827253
0.0811585
0.0795024
0.0777781
0.0759434
0.0739656
0.0991089
0.0994054
0.0994221
0.0993247
0.0990348
0.0985982
0.0980323
0.0973316
0.0965025
0.0955447
0.0944679
0.0932713
0.0919634
0.0905431
0.0890134
0.0873837
0.0856621
0.0838588
0.0819418
0.0798652
0.105764
0.106123
0.106198
0.106141
0.105889
0.105472
0.104925
0.104224
0.103395
0.102421
0.101327
0.100101
0.0987587
0.0972909
0.0957097
0.0940155
0.0922232
0.0903396
0.0883331
0.0861517
0.11284
0.11327
0.11341
0.113401
0.113194
0.112802
0.112276
0.11158
0.110751
0.109764
0.108653
0.107394
0.106018
0.104502
0.102868
0.101108
0.0992452
0.0972761
0.0951809
0.092892
0.120362
0.120868
0.121079
0.121125
0.120966
0.120605
0.120104
0.119416
0.118592
0.117592
0.116465
0.115175
0.113761
0.112191
0.110499
0.108665
0.106723
0.104663
0.102471
0.100067
0.128378
0.128969
0.129256
0.129366
0.129264
0.128939
0.12847
0.127796
0.126979
0.12597
0.124828
0.123506
0.122056
0.120434
0.118682
0.116772
0.11475
0.112595
0.110303
0.10778
0.136905
0.137589
0.137961
0.138141
0.138099
0.137818
0.137385
0.136729
0.135923
0.134907
0.133751
0.1324
0.130911
0.129235
0.127421
0.125431
0.123321
0.121064
0.11866
0.116002
0.146002
0.14679
0.147254
0.147512
0.147537
0.147305
0.146912
0.14628
0.145488
0.144469
0.143302
0.141922
0.140397
0.138667
0.13679
0.134721
0.132523
0.130159
0.127641
0.124845
0.155677
0.156581
0.157148
0.157493
0.15759
0.157413
0.157064
0.156459
0.155684
0.154666
0.153488
0.152081
0.150517
0.14873
0.146785
0.144631
0.142335
0.139859
0.137214
0.134268
0.165995
0.167027
0.167707
0.16815
0.16833
0.168215
0.167916
0.167344
0.166589
0.165573
0.164386
0.16295
0.161348
0.159505
0.157491
0.155249
0.152855
0.15026
0.147487
0.144389
0.176966
0.178141
0.178946
0.179499
0.179771
0.179727
0.179485
0.17895
0.178219
0.177207
0.176012
0.174549
0.172906
0.171
0.168912
0.166575
0.164072
0.161351
0.158438
0.155173
0.188666
0.189997
0.190939
0.191614
0.191988
0.192025
0.191848
0.191357
0.190655
0.189652
0.188449
0.186958
0.185273
0.183305
0.181139
0.178704
0.176089
0.173236
0.170179
0.166742
0.201106
0.202611
0.203705
0.204513
0.205
0.205127
0.205023
0.204582
0.203915
0.202923
0.201715
0.200198
0.198467
0.196433
0.194183
0.191641
0.188905
0.18591
0.182695
0.17907
0.214363
0.216057
0.217317
0.218273
0.218884
0.219113
0.21909
0.218707
0.218079
0.217103
0.215893
0.214348
0.212574
0.210471
0.208136
0.205485
0.202624
0.199479
0.1961
0.192279
0.228452
0.230357
0.231801
0.232918
0.233667
0.234006
0.234073
0.233756
0.233173
0.232217
0.231006
0.229437
0.227616
0.225442
0.223016
0.220248
0.21725
0.213945
0.210386
0.206353
0.243452
0.245588
0.247232
0.248528
0.249428
0.249891
0.250059
0.249816
0.249284
0.248353
0.247146
0.245552
0.243686
0.24144
0.238919
0.23603
0.232891
0.229417
0.225671
0.221414
0.259386
0.261778
0.263643
0.265135
0.2662
0.266801
0.26708
0.266922
0.266448
0.265548
0.264346
0.262731
0.260817
0.258494
0.255873
0.252854
0.249561
0.245906
0.241956
0.237455
0.276332
0.279003
0.281111
0.282821
0.28407
0.284823
0.285227
0.285163
0.284757
0.283894
0.282702
0.281064
0.279105
0.276703
0.273978
0.270823
0.26737
0.263522
0.259356
0.254599
0.294319
0.2973
0.299676
0.301625
0.303076
0.303999
0.304541
0.304584
0.304254
0.303435
0.302256
0.3006
0.298591
0.296107
0.29327
0.289967
0.286339
0.282284
0.277884
0.272847
0.313426
0.316747
0.319418
0.321631
0.323306
0.324418