/*--------------------------------*- C++ -*----------------------------------*\
  =========                 |
  \\      /  F ield         | OpenFOAM: The Open Source CFD Toolbox
   \\    /   O peration     | Website:  https://openfoam.org
    \\  /    A nd           | Version:  6
     \\/     M anipulation  |
\*---------------------------------------------------------------------------*/
FoamFile
{
    version     2.0;
    format      ascii;
    class       volScalarField;
    location    "14";
    object      p;
}
// * * * * * * * * * * * * * * * * * * * * * * * * * * * * * * * * * * * * * //

dimensions      [0 2 -2 0 0 0 0];

internalField   nonuniform List<scalar> 
10000
(
-0.0233252
-0.0268474
-0.0249905
-0.0162788
-0.00977722
-0.0053822
-0.00215287
0.000569332
0.0029762
0.00439751
0.00480889
0.00379105
0.00123816
-0.00283272
-0.0087544
-0.0162832
-0.0254405
-0.0352603
-0.0339747
-0.0242084
-0.0572919
-0.0555779
-0.0403968
-0.0131653
0.0107001
0.0271012
0.036896
0.0432776
0.0478797
0.0508691
0.052768
0.0530034
0.0531584
0.0520697
0.0488047
0.0399369
0.0229056
0.00148507
-0.0122819
-0.0175193
0.0253503
0.0232836
0.0278058
0.0405365
0.0570832
0.0741344
0.0887955
0.100019
0.107821
0.112801
0.115565
0.116723
0.11668
0.116571
0.116943
0.117428
0.116933
0.114711
0.108603
0.0999307
0.139872
0.145448
0.148375
0.15172
0.156265
0.16132
0.166565
0.171686
0.176112
0.179857
0.18282
0.185622
0.188677
0.192386
0.19647
0.200591
0.202965
0.201919
0.197481
0.191656
0.264816
0.275008
0.276626
0.270363
0.262047
0.254503
0.249871
0.248032
0.248332
0.249761
0.251912
0.25501
0.258816
0.264157
0.270306
0.277041
0.283713
0.287878
0.28613
0.280375
0.336164
0.340887
0.342754
0.338597
0.331323
0.32366
0.317763
0.314263
0.312937
0.313097
0.314018
0.31555
0.31786
0.321018
0.324927
0.329552
0.334033
0.337013
0.33692
0.335623
0.372244
0.367365
0.366723
0.366796
0.36676
0.36729
0.367847
0.368533
0.369357
0.370266
0.371287
0.372226
0.372598
0.372004
0.370017
0.366971
0.363873
0.361744
0.362703
0.368529
0.419533
0.414497
0.415045
0.41844
0.421859
0.425251
0.427657
0.429179
0.42986
0.430243
0.429988
0.428985
0.427148
0.423732
0.418751
0.412781
0.407461
0.404455
0.404983
0.41018
0.489989
0.490511
0.493222
0.496839
0.499345
0.499701
0.498625
0.497058
0.495533
0.49403
0.492428
0.490308
0.486965
0.482351
0.476663
0.470088
0.464091
0.460569
0.461474
0.466167
0.564755
0.567872
0.569063
0.568861
0.568456
0.566868
0.56475
0.562698
0.560972
0.559725
0.55885
0.55788
0.556966
0.55592
0.554992
0.55439
0.553733
0.55343
0.553382
0.552643
0.615032
0.613447
0.612652
0.613787
0.616198
0.618851
0.62085
0.622125
0.622805
0.623308
0.623907
0.625444
0.627882
0.632341
0.638443
0.645895
0.65357
0.659021
0.657503
0.648747
0.66624
0.664775
0.663745
0.665025
0.668455
0.672904
0.676927
0.68015
0.682349
0.68401
0.685226
0.68673
0.688955
0.692064
0.696072
0.700894
0.705735
0.70934
0.709673
0.707006
0.720994
0.719937
0.719108
0.72061
0.72451
0.729785
0.734975
0.739155
0.742206
0.744214
0.745726
0.746742
0.747155
0.746916
0.745998
0.744294
0.742483
0.741286
0.742194
0.746765
0.789131
0.792488
0.795299
0.797555
0.799423
0.801166
0.802815
0.804438
0.805881
0.807106
0.80799
0.808197
0.808147
0.807037
0.80509
0.802291
0.799305
0.79714
0.796278
0.798126
0.866199
0.874215
0.878118
0.876351
0.872722
0.869621
0.868098
0.867839
0.868324
0.868817
0.869213
0.869277
0.868849
0.867892
0.866173
0.863236
0.859765
0.856703
0.855428
0.856579
0.931266
0.929183
0.927222
0.926404
0.926688
0.928007
0.929487
0.930676
0.931482
0.932091
0.932324
0.93204
0.931786
0.931336
0.931084
0.930983
0.930647
0.929692
0.928434
0.927568
1.01567
1.01516
1.01221
1.00744
1.00379
1.00138
0.999769
0.998772
0.998141
0.997555
0.996839
0.996056
0.994766
0.993708
0.993259
0.994176
0.996674
0.998835
0.998519
0.995316
1.08598
1.08528
1.08459
1.08167
1.07762
1.07356
1.07035
1.06833
1.06715
1.06641
1.06586
1.06505
1.06396
1.06168
1.05807
1.05361
1.04897
1.04567
1.0471
1.05197
1.15419
1.15301
1.15406
1.15361
1.15085
1.14684
1.14288
1.13983
1.13794
1.13703
1.13704
1.13792
1.1393
1.14123
1.14329
1.1447
1.14532
1.14552
1.14542
1.14421
1.22146
1.21974
1.22002
1.21994
1.21809
1.21479
1.21103
1.20789
1.20568
1.2047
1.20458
1.20564
1.20843
1.21339
1.22092
1.23026
1.23919
1.2448
1.24341
1.23527
1.26872
1.26697
1.26671
1.26779
1.26875
1.2687
1.26785
1.26653
1.2654
1.26468
1.26468
1.26547
1.26658
1.26866
1.2714
1.27463
1.27809
1.28035
1.28112
1.28136
1.29704
1.29405
1.29467
1.29939
1.30563
1.31137
1.31568
1.31812
1.31938
1.32006
1.32065
1.32075
1.32067
1.31902
1.31543
1.30987
1.30352
1.29889
1.30004
1.30841
1.33945
1.33701
1.338
1.34359
1.35146
1.35911
1.36545
1.36985
1.37265
1.37409
1.37479
1.37482
1.37402
1.37209
1.36892
1.36422
1.35889
1.35487
1.35423
1.35744
1.41178
1.41346
1.41263
1.41262
1.41522
1.41936
1.42412
1.42841
1.43144
1.4332
1.43361
1.43264
1.43052
1.4272
1.42381
1.42133
1.41991
1.42014
1.4208
1.41962
1.49135
1.49221
1.4902
1.48984
1.49109
1.49311
1.49561
1.49778
1.49926
1.49983
1.49981
1.49903
1.49714
1.49436
1.4908
1.48674
1.48315
1.48177
1.48364
1.48591
1.57898
1.58389
1.58572
1.58377
1.57995
1.57627
1.57377
1.57241
1.5718
1.57143
1.57102
1.57043
1.57025
1.57041
1.57103
1.57186
1.57208
1.57162
1.57166
1.57159
1.66227
1.66675
1.66886
1.66419
1.65677
1.65006
1.64531
1.64268
1.64178
1.64171
1.64218
1.64332
1.64499
1.64796
1.65213
1.65736
1.66241
1.66505
1.665
1.6623
1.73152
1.73244
1.73237
1.72873
1.72321
1.71747
1.71296
1.71022
1.70904
1.70916
1.71015
1.71209
1.71546
1.72024
1.7264
1.73342
1.73997
1.74444
1.74526
1.74197
1.78117
1.77448
1.77246
1.77324
1.77388
1.77389
1.77322
1.77219
1.77149
1.77138
1.77201
1.77341
1.77545
1.77854
1.78234
1.7866
1.79077
1.79397
1.79503
1.79299
1.83767
1.83221
1.83061
1.83109
1.83195
1.83292
1.83338
1.83322
1.83272
1.83221
1.83189
1.83142
1.8309
1.82932
1.82664
1.82311
1.81956
1.81703
1.8178
1.82176
1.89619
1.89222
1.89034
1.89107
1.89225
1.89331
1.89377
1.89361
1.89292
1.89165
1.89006
1.88801
1.8851
1.88087
1.87526
1.86854
1.86257
1.85895
1.85902
1.86278
1.96096
1.96154
1.96181
1.96249
1.96238
1.96119
1.95924
1.95708
1.95501
1.953
1.95058
1.94751
1.94361
1.93837
1.93212
1.92518
1.91862
1.91455
1.91486
1.91735
2.01503
2.01915
2.02057
2.01905
2.01695
2.01553
2.01507
2.01506
2.01515
2.0151
2.01486
2.01436
2.01321
2.01196
2.01068
2.00946
2.00807
2.00677
2.00531
2.00193
2.05632
2.04968
2.04676
2.04905
2.05441
2.06156
2.06845
2.07384
2.07726
2.0797
2.08136
2.0832
2.08567
2.08953
2.09498
2.1018
2.10858
2.11288
2.10974
2.09957
2.1396
2.13982
2.13926
2.13934
2.14079
2.14248
2.144
2.14522
2.14614
2.14672
2.14727
2.14829
2.14983
2.15266
2.15651
2.1611
2.16565
2.16881
2.16852
2.16586
2.2314
2.24111
2.2453
2.24226
2.23612
2.22847
2.22202
2.21756
2.21508
2.21361
2.2128
2.21209
2.21189
2.21176
2.21165
2.21148
2.21122
2.21113
2.21268
2.21709
2.28557
2.28862
2.29067
2.28952
2.28669
2.28313
2.27991
2.27747
2.27601
2.27517
2.27492
2.27497
2.27516
2.27532
2.27531
2.27523
2.27547
2.27587
2.27603
2.27697
2.32266
2.31782
2.3168
2.31978
2.32424
2.32881
2.33183
2.33355
2.33425
2.33491
2.33527
2.33565
2.33586
2.33569
2.33521
2.33453
2.33384
2.33332
2.33296
2.33326
2.37607
2.37381
2.37331
2.37589
2.38034
2.38562
2.39005
2.39346
2.39555
2.39692
2.39774
2.39838
2.39837
2.39798
2.39688
2.39523
2.39333
2.39178
2.39122
2.39137
2.44531
2.44428
2.44266
2.44348
2.44597
2.44956
2.45326
2.45682
2.45945
2.4615
2.46274
2.46374
2.46433
2.46457
2.46419
2.46328
2.46177
2.46036
2.45976
2.45978
2.53561
2.53858
2.53858
2.53699
2.5342
2.53118
2.52882
2.52762
2.52739
2.52774
2.52828
2.52926
2.53036
2.53215
2.53436
2.53704
2.53942
2.54073
2.54003
2.53814
2.61841
2.6249
2.62649
2.62124
2.61289
2.60459
2.59828
2.59422
2.59181
2.59065
2.5897
2.58919
2.58881
2.58918
2.59082
2.59432
2.59899
2.60298
2.6029
2.59935
2.66512
2.66044
2.65893
2.65885
2.65833
2.65737
2.6559
2.65402
2.65215
2.65046
2.64883
2.64677
2.64357
2.63894
2.63269
2.62595
2.61994
2.61629
2.61834
2.62632
2.71444
2.71002
2.70877
2.70988
2.71205
2.714
2.71489
2.71492
2.71428
2.71338
2.71224
2.71072
2.70852
2.705
2.6993
2.6915
2.68274
2.67611
2.67622
2.68324
2.76649
2.76194
2.75985
2.76188
2.7657
2.76993
2.77338
2.7761
2.77784
2.77907
2.77985
2.78073
2.78156
2.78336
2.78576
2.78816
2.78981
2.79053
2.78828
2.78285
2.83968
2.83868
2.83728
2.83837
2.84038
2.84228
2.84359
2.84486
2.8459
2.84737
2.84881
2.85109
2.85426
2.85922
2.86598
2.87447
2.88298
2.88878
2.8866
2.87706
2.9253
2.93145
2.93196
2.92845
2.92387
2.91945
2.91601
2.91385
2.91276
2.91248
2.91284
2.91432
2.91669
2.92048
2.92525
2.931
2.9362
2.93897
2.9381
2.93521
2.98801
2.99126
2.99301
2.99175
2.98804
2.98349
2.97947
2.9764
2.97433
2.97319
2.97272
2.97273
2.97274
2.9723
2.97106
2.96922
2.96702
2.96499
2.96585
2.97124
3.03284
3.03314
3.03405
3.03503
3.03506
3.03427
3.03323
3.03228
3.03142
3.03082
3.03031
3.02961
3.02803
3.02545
3.02163
3.01688
3.01249
3.0098
3.01004
3.01328
3.07682
3.07125
3.06771
3.06962
3.07478
3.08088
3.08582
3.08922
3.09079
3.09141
3.09092
3.08966
3.08708
3.08311
3.07753
3.07118
3.06515
3.06124
3.06122
3.06349
3.14647
3.14747
3.14821
3.14973
3.15211
3.15471
3.15648
3.15764
3.15803
3.15811
3.15776
3.15739
3.15642
3.15518
3.15316
3.15078
3.14799
3.14556
3.14444
3.14306
3.21779
3.22723
3.23398
3.23565
3.23396
3.23055
3.22719
3.22493
3.22361
3.22351
3.22384
3.22519
3.22734
3.23115
3.23609
3.24165
3.24617
3.24823
3.2453
3.23672
3.26404
3.26806
3.27037
3.27161
3.2729
3.27447
3.27614
3.27776
3.27906
3.28045
3.28174
3.28368
3.28598
3.28972
3.29411
3.29906
3.30332
3.30541
3.30438
3.30057
3.31616
3.31266
3.31026
3.31155
3.31648
3.32336
3.32962
3.33432
3.33706
3.33864
3.33901
3.33873
3.33758
3.33618
3.33446
3.33344
3.33357
3.33453
3.33657
3.33997
3.40732
3.40998
3.41124
3.41011
3.40884
3.40758
3.40638
3.40546
3.40466
3.40366
3.40237
3.40042
3.39724
3.39239
3.38555
3.37742
3.36996
3.36585
3.36908
3.37795
3.49172
3.49886
3.50192
3.498
3.49133
3.48426
3.47849
3.47449
3.47202
3.47036
3.46899
3.46757
3.46599
3.464
3.46128
3.45829
3.45529
3.45389
3.45491
3.45579
3.53926
3.53472
3.53342
3.53389
3.53422
3.5348
3.53521
3.53548
3.53556
3.53601
3.53661
3.53804
3.53991
3.54338
3.54823
3.5543
3.55963
3.56251
3.56005
3.55099
3.59718
3.59262
3.59228
3.59483
3.59691
3.59828
3.59891
3.59946
3.59985
3.60087
3.60223
3.6046
3.60785
3.6127
3.61875
3.62584
3.63206
3.63544
3.63359
3.62697
3.6701
3.67201
3.67195
3.66993
3.66785
3.6663
3.66539
3.66492
3.66469
3.665
3.66568
3.6671
3.66873
3.67126
3.6741
3.6773
3.68078
3.68369
3.68384
3.68281
3.73887
3.73628
3.73288
3.73052
3.72942
3.72931
3.72949
3.72968
3.7299
3.73028
3.73095
3.73187
3.73295
3.7335
3.73238
3.72945
3.72542
3.72211
3.72194
3.7269
3.81819
3.81972
3.81987
3.81804
3.81418
3.80879
3.80336
3.79904
3.79621
3.79457
3.79379
3.79375
3.79388
3.79412
3.79396
3.793
3.79168
3.79012
3.78835
3.78769
3.87696
3.8826
3.88512
3.88234
3.87684
3.87045
3.86472
3.86004
3.85649
3.85397
3.85193
3.85
3.84799
3.84602
3.84449
3.84427
3.84515
3.84582
3.84421
3.84045
3.90443
3.89922
3.89886
3.90247
3.90722
3.91172
3.91472
3.91564
3.91502
3.91368
3.91215
3.91049
3.90797
3.90415
3.89846
3.89104
3.88334
3.87737
3.87726
3.88211
3.96207
3.96168
3.96306
3.96626
3.97055
3.97454
3.97723
3.97857
3.97894
3.97873
3.97859
3.97833
3.97849
3.97848
3.97786
3.97655
3.97394
3.97129
3.96936
3.96665
4.04605
4.0521
4.05413
4.0527
4.05059
4.04855
4.04732
4.04698
4.04713
4.04767
4.04867
4.05067
4.05342
4.05806
4.0644
4.07161
4.07805
4.08123
4.0772
4.06476
4.13578
4.14058
4.14185
4.14044
4.13673
4.1318
4.12713
4.12344
4.12089
4.11938
4.11905
4.11971
4.122
4.12562
4.13015
4.13505
4.13919
4.14123
4.1395
4.13326
4.21691
4.22497
4.22863
4.22635
4.21949
4.21031
4.2015
4.19425
4.18933
4.18619
4.1849
4.18508
4.18624
4.18803
4.18978
4.19044
4.19017
4.1889
4.18862
4.18998
4.25725
4.26408
4.2683
4.26884
4.26599
4.26119
4.25603
4.25149
4.24842
4.2468
4.2469
4.24804
4.25087
4.25416
4.25757
4.26047
4.2619
4.26164
4.26021
4.25833
4.27035
4.26847
4.27037
4.27743
4.28545
4.29227
4.29685
4.29929
4.30045
4.30155
4.3032
4.30614
4.3097
4.31407
4.31844
4.32151
4.32304
4.32266
4.32117
4.31796
4.31473
4.3135
4.31664
4.32615
4.33696
4.34647
4.35306
4.35698
4.35902
4.36045
4.36196
4.36355
4.36568
4.3674
4.3687
4.36935
4.36886
4.36743
4.36569
4.36207
4.40545
4.41731
4.42437
4.42826
4.43004
4.42927
4.42744
4.42541
4.42391
4.42279
4.42229
4.42219
4.42135
4.41928
4.41556
4.40977
4.40317
4.39728
4.39423
4.39091
4.49322
4.51015
4.51926
4.52005
4.51561
4.50783
4.49999
4.49353
4.48923
4.48618
4.48456
4.48304
4.48221
4.47975
4.47459
4.46575
4.45337
4.44099
4.43408
4.42989
4.54611
4.55568
4.56332
4.5672
4.56692
4.56303
4.55759
4.55224
4.54803
4.54525
4.54377
4.54353
4.54364
4.54412
4.54384
4.54116
4.53617
4.52939
4.51977
4.50525
4.57602
4.57682
4.58178
4.59144
4.60034
4.60586
4.6068
4.60502
4.60228
4.6001
4.59867
4.59764
4.59753
4.5976
4.5979
4.598
4.59712
4.59441
4.58611
4.57104
4.61005
4.61319
4.61902
4.62974
4.64168
4.65085
4.6553
4.65595
4.65445
4.65213
4.64978
4.64776
4.6451
4.64169
4.63714
4.63135
4.62556
4.62042
4.61548
4.60893
4.64902
4.65205
4.65547
4.66571
4.67965
4.69263
4.70162
4.70626
4.70784
4.70732
4.70615
4.70363
4.70034
4.69417
4.68513
4.67352
4.66151
4.653
4.65091
4.65166
4.71722
4.72207
4.72299
4.72906
4.73985
4.75114
4.76001
4.76542
4.76816
4.76902
4.76914
4.76887
4.76792
4.76593
4.76273
4.75772
4.75226
4.74852
4.74601
4.74038
4.81761
4.82688
4.82505
4.82168
4.82277
4.82697
4.83174
4.83549
4.83774
4.83874
4.83917
4.83939
4.84047
4.84218
4.84523
4.84947
4.85417
4.85839
4.85685
4.84474
4.92835
4.934
4.92832
4.91975
4.91498
4.91377
4.91425
4.91467
4.91458
4.91401
4.91346
4.91345
4.91379
4.91509
4.91744
4.92114
4.92647
4.93313
4.9369
4.93177
5.04805
5.05461
5.0474
5.03265
5.01894
5.00916
5.003
4.99905
4.99658
4.99498
4.99451
4.9948
4.99602
4.99742
4.99924
5.00209
5.0068
5.01453
5.02255
5.0236
5.15456
5.15942
5.14928
5.13025
5.11134
5.09719
5.08828
5.08317
5.08033
5.07931
5.07979
5.08242
5.08679
5.09351
5.1026
5.1141
5.12763
5.14174
5.14918
5.14265
5.25586
5.25726
5.24635
5.22841
5.21006
5.1952
5.18442
5.17732
5.17259
5.1706
5.17063
5.1737
5.1796
5.18946
5.20364
5.22187
5.2426
5.26169
5.26821
5.25577
5.36481
5.37708
5.37325
5.35457
5.33075
5.30749
5.28829
5.27449
5.26581
5.26181
5.26174
5.26606
5.27393
5.2856
5.29981
5.31566
5.33125
5.34439
5.34884
5.34128
5.43356
5.45559
5.46132
5.4471
5.42355
5.39772
5.37569
5.3597
5.34991
5.34584
5.34661
5.35267
5.36332
5.37873
5.39763
5.41779
5.43619
5.44908
5.44658
5.42957
5.44091
5.45981
5.47373
5.47579
5.46911
5.45686
5.44359
5.43232
5.42469
5.42178
5.42317
5.42966
5.44062
5.45628
5.47517
5.49555
5.51282
5.52115
5.50911
5.48315
5.44451
5.47401
5.5021
5.51649
5.52099
5.51628
5.50699
5.49783
5.49157
5.48977
5.49213
5.49928
5.50954
5.52178
5.53316
5.54008
5.5397
5.52971
5.50621
5.48215
5.44319
5.48243
5.52272
5.54669
5.56023
5.56311
5.55935
5.55385
5.55
5.5492
5.55161
5.55701
5.56465
5.57221
5.57685
5.57506
5.56356
5.54159
5.50354
5.46902
5.43341
5.47144
5.52033
5.55626
5.58411
5.60037
5.60631
5.60601
5.60392
5.60266
5.60261
5.6039
5.60437
5.60188
5.59473
5.57924
5.55437
5.51955
5.4682
5.42803
5.43162
5.46669
5.52291
5.56576
5.6022
5.6286
5.64336
5.64881
5.64981
5.64867
5.64704
5.64313
5.63627
5.62135
5.59639
5.55921
5.5113
5.45915
5.4015
5.37454
5.4532
5.47184
5.52547
5.56665
5.6071
5.64257
5.66834
5.68317
5.69027
5.69168
5.68917
5.68209
5.66869
5.64555
5.61203
5.56798
5.52028
5.47539
5.42164
5.4043
5.55869
5.54676
5.58437
5.60825
5.64077
5.67788
5.70974
5.7312
5.74327
5.74731
5.74548
5.73656
5.72138
5.69745
5.66764
5.63717
5.61306
5.59578
5.55615
5.55886
5.82137
5.77615
5.79321
5.77365
5.76616
5.77698
5.79552
5.81123
5.82134
5.82564
5.8256
5.82187
5.8138
5.80378
5.79538
5.79533
5.8098
5.82937
5.80643
5.84568
6.20994
6.11951
6.12344
6.05551
5.99111
5.95482
5.94164
5.93798
5.93716
5.93687
5.93736
5.93906
5.94379
5.95521
5.97883
6.02391
6.09034
6.15457
6.14471
6.23249
6.59694
6.44062
6.45822
6.36769
6.26042
6.17966
6.13088
6.10296
6.0871
6.07993
6.07959
6.08851
6.10544
6.13771
6.1906
6.27219
6.37746
6.46674
6.44952
6.60596
6.82087
6.56502
6.63052
6.56646
6.46109
6.36996
6.30775
6.26959
6.24739
6.23705
6.23633
6.24652
6.26888
6.30857
6.36939
6.45733
6.55788
6.62022
6.55635
6.81271
6.79064
6.37184
6.51222
6.52815
6.48053
6.42561
6.38559
6.36057
6.34522
6.33843
6.33766
6.3456
6.36017
6.38566
6.4239
6.4731
6.51468
6.49401
6.35393
6.77656
6.67168
6.00122
6.22335
6.33056
6.34994
6.33868
6.3261
6.31891
6.31428
6.31278
6.31352
6.31659
6.32244
6.33085
6.3423
6.34923
6.32537
6.21574
5.99698
6.67561
6.92765
5.89774
6.16865
6.28484
6.29354
6.27376
6.25814
6.24981
6.24486
6.24297
6.24369
6.24738
6.2524
6.26357
6.27651
6.29632
6.28259
6.17124
5.90754
6.94498
8.08613
6.2337
6.40444
6.48416
6.45525
6.41169
6.38568
6.37192
6.36505
6.36077
6.3616
6.36344
6.36875
6.38399
6.4075
6.45445
6.48735
6.41314
6.24263
8.08197
10.2008
5.78759
5.86734
6.24143
6.33243
6.33436
6.33304
6.33291
6.33219
6.33162
6.33158
6.33246
6.33258
6.33328
6.3344
6.33288
6.2431
5.87003
5.79003
10.2008
-0.135503
-0.107087
-0.112544
-0.0718204
-0.0562209
-0.0560592
-0.0564066
-0.0534673
-0.0493212
-0.0469301
-0.0468943
-0.0502568
-0.0564498
-0.0637941
-0.0709393
-0.0801973
-0.104463
-0.150984
-0.152846
-0.181284
-0.135375
-0.109611
-0.103979
-0.0460452
0.00165733
0.0257737
0.034418
0.037937
0.0395633
0.038137
0.0337359
0.0235034
0.0102798
-0.00755564
-0.0293912
-0.0633459
-0.11754
-0.178545
-0.198579
-0.246594
0.122276
0.080699
0.0715425
0.0898227
0.113881
0.134232
0.14646
0.151551
0.152072
0.148797
0.141359
0.128233
0.108078
0.0799198
0.044039
0.00380252
-0.0301824
-0.0513881
-0.0636249
-0.0672741
0.218633
0.189062
0.175838
0.187124
0.210744
0.234162
0.251078
0.260909
0.265051
0.264611
0.260168
0.251215
0.237757
0.217647
0.188182
0.145697
0.0890258
0.0309336
0.0101482
0.026405
0.232444
0.235134
0.237969
0.262228
0.303129
0.34607
0.377715
0.396287
0.405476
0.410159
0.411729
0.413262
0.415545
0.421897
0.432874
0.446146
0.454894
0.453885
0.436664
0.417272
0.361285
0.397107
0.422385
0.446801
0.472731
0.498031
0.519876
0.537361
0.548933
0.558249
0.565263
0.575011
0.588864
0.612628
0.649541
0.702464
0.76322
0.811696
0.817661
0.786274
0.608764
0.66095
0.681383
0.667783
0.655001
0.652735
0.661836
0.676729
0.690965
0.703219
0.714454
0.728147
0.743719
0.762467
0.783404
0.80887
0.835971
0.858331
0.883098
0.900839
0.77195
0.805668
0.82552
0.832661
0.831201
0.82944
0.831279
0.836405
0.84295
0.849937
0.857668
0.866288
0.876167
0.883756
0.88528
0.877065
0.863364
0.855799
0.877089
0.918026
0.956478
0.987505
1.01982
1.03168
1.02611
1.01474
1.00516
0.999094
0.996851
0.996816
0.997986
0.998865
0.998396
0.995907
0.989097
0.975289
0.960121
0.953286
0.963382
0.987565
1.0778
1.06734
1.07649
1.09268
1.10929
1.12406
1.13387
1.14013
1.14413
1.14701
1.14856
1.14803
1.14423
1.13541
1.11993
1.09978
1.07705
1.05868
1.05951
1.07431
1.27701
1.22905
1.21801
1.24138
1.26866
1.28879
1.2987
1.30382
1.30607
1.30785
1.3087
1.30907
1.30694
1.304
1.30088
1.29907
1.2976
1.29473
1.28845
1.27489
1.60931
1.59549
1.57873
1.55395
1.525
1.49856
1.48003
1.46996
1.46433
1.46284
1.46267
1.46465
1.46807
1.47507
1.4875
1.50832
1.53741
1.56849
1.56989
1.53263
1.70976
1.72184
1.69686
1.65784
1.62102
1.59658
1.58494
1.58179
1.58256
1.58618
1.59149
1.60041
1.61291
1.63019
1.64959
1.668
1.68232
1.69391
1.70081
1.69169
1.63823
1.61423
1.59764
1.62066
1.64563
1.66239
1.67162
1.67849
1.68455
1.69096
1.69636
1.7016
1.70725
1.71522
1.72775
1.74622
1.76762
1.78579
1.79528
1.79751
1.70871
1.70066
1.69667
1.71067
1.73419
1.75675
1.77474
1.7881
1.79781
1.80343
1.80541
1.80258
1.79275
1.7749
1.75081
1.72813
1.71509
1.71273
1.72698
1.75163
1.81525
1.81567
1.81701
1.83606
1.86822
1.90253
1.92869
1.94355
1.95124
1.9533
1.95174
1.94393
1.93021
1.90556
1.86817
1.81593
1.75365
1.69963
1.69032
1.71638
2.10825
2.13139
2.14598
2.14935
2.14869
2.14569
2.14351
2.1413
2.13933
2.13594
2.13183
2.12487
2.11483
2.10151
2.08689
2.06783
2.04353
2.01642
1.98437
1.9517
2.49766
2.53385
2.53648
2.49377
2.44121
2.39455
2.36203
2.34187
2.32986
2.32184
2.31616
2.31238
2.31238
2.31722
2.32747
2.3435
2.3625
2.3755
2.35017
2.28929
2.74986
2.74559
2.72622
2.68582
2.63516
2.58781
2.55001
2.52143
2.5018
2.48835
2.47987
2.47616
2.47898
2.4911
2.51034
2.53345
2.55446
2.56352
2.55366
2.52909
2.84233
2.81813
2.7942
2.76901
2.73916
2.70887
2.68241
2.66037
2.64404
2.63263
2.62554
2.62125
2.62017
2.62252
2.63029
2.64439
2.66277
2.67542
2.68036
2.68372
2.76742
2.72461
2.70798
2.7274
2.75153
2.76562
2.7685
2.76533
2.76105
2.75747
2.75684
2.7583
2.76095
2.7617
2.7597
2.75209
2.74111
2.72911
2.73537
2.76247
2.73042
2.71924
2.7243
2.75043
2.78711
2.82231
2.84766
2.86277
2.8709
2.87596
2.88017
2.88454
2.88981
2.89425
2.89848
2.90127
2.90408
2.90835
2.91162
2.91986
2.72937
2.73485
2.75438
2.79879
2.85311
2.90543
2.94774
2.97571
2.99189
3.00129
3.00738
3.01177
3.01451
3.01685
3.01949
3.02145
3.02205
3.02317
3.02927
3.04314
2.90668
2.94712
2.98102
3.01243
3.04273
3.07033
3.09529
3.11592
3.13034
3.13961
3.14542
3.14972
3.15372
3.15604
3.15619
3.15404
3.14996
3.14654
3.15159
3.16535
3.21683
3.28173
3.30542
3.28815
3.26834
3.25792
3.25763
3.2641
3.2725
3.27919
3.28412
3.28807
3.29199
3.29588
3.29896
3.30073
3.30093
3.30017
3.30289
3.30805
3.44996
3.47674
3.48172
3.46531
3.44135
3.42359
3.4145
3.4127
3.41485
3.41817
3.42076
3.42207
3.42336
3.42525
3.43022
3.44134
3.4589
3.47658
3.48234
3.4728
3.6016
3.60122
3.5994
3.59269
3.579
3.56655
3.55921
3.55692
3.55775
3.55935
3.55965
3.55827
3.55351
3.54663
3.53858
3.53491
3.54267
3.56161
3.57357
3.56285
3.66775
3.63465
3.62825
3.6528
3.67668
3.69536
3.70786
3.71513
3.71889
3.72078
3.72131
3.71956
3.71557
3.70602
3.68641
3.65132
3.60111
3.55435
3.55107
3.57829
3.88023
3.86548
3.8721
3.89113
3.90188
3.9048
3.90325
3.90137
3.89992
3.89955
3.89995
3.90117
3.90217
3.90331
3.90499
3.90476
3.89865
3.88605
3.86664
3.85428
4.21356
4.22655
4.22612
4.19733
4.16276
4.12883
4.10191
4.08524
4.07614
4.07236
4.07081
4.07191
4.07542
4.08398
4.10082
4.12927
4.16562
4.19685
4.19231
4.15865
4.42395
4.40847
4.38296
4.35181
4.32043
4.29044
4.26513
4.24642
4.23442
4.22763
4.2243
4.22439
4.22715
4.23504
4.24809
4.26585
4.28576
4.30293
4.31151
4.30522
4.53602
4.51246
4.48457
4.45947
4.43608
4.41582
4.39915
4.38485
4.3736
4.36634
4.36186
4.35871
4.35529
4.3488
4.33818
4.32697
4.32057
4.3216
4.33303
4.35034
4.51354
4.47853
4.45682
4.46027
4.47512
4.48971
4.49787
4.49935
4.49776
4.49503
4.49322
4.49083
4.48776
4.48002
4.46297
4.43139
4.38763
4.34851
4.34736
4.38041
4.50741
4.47867
4.48482
4.52947
4.57572
4.60703
4.62275
4.62864
4.63011
4.63007
4.63007
4.63
4.63108
4.63368
4.64055
4.64873
4.65255
4.64945
4.63551
4.62351
4.70475
4.73209
4.75228
4.75125
4.75198
4.75526
4.76022
4.76318
4.76433
4.7639
4.76304
4.76223
4.76099
4.76279
4.7722
4.79646
4.83556
4.87111
4.87026
4.84006
4.86239
4.8852
4.8783
4.85701
4.85328
4.86313
4.87777
4.89013
4.89837
4.90192
4.90253
4.90091
4.89786
4.89089
4.87721
4.85848
4.84339
4.83831
4.8475
4.8588
4.98787
4.99219
4.98768
4.99404
5.00639
5.02019
5.03319
5.04379
5.05202
5.05637
5.05895
5.05882
5.05726
5.05103
5.03589
5.00386
4.95827
4.91947
4.91561
4.94202
5.1921
5.21559
5.22979
5.23574
5.2309
5.22301
5.21854
5.21734
5.21857
5.22087
5.2241
5.22748
5.23282
5.24129
5.25634
5.27541
5.28843
5.29095
5.27724
5.25989
5.39957
5.42489
5.44194
5.44266
5.42922
5.40925
5.39183
5.38094
5.37572
5.37462
5.37631
5.38194
5.39104
5.40868
5.43905
5.48825
5.548
5.59505
5.59594
5.55587
5.54586
5.5617
5.56947
5.5616
5.54893
5.53626
5.52413
5.51511
5.50936
5.50735
5.50768
5.51083
5.51596
5.52251
5.5301
5.54234
5.55941
5.57622
5.5926
5.60058
5.58867
5.58474
5.58493
5.58929
5.59818
5.61077
5.62039
5.62584
5.62777
5.62805
5.62784
5.62709
5.62496
5.61769
5.60113
5.57302
5.54178
5.52305
5.53489
5.57257
5.65006
5.632
5.63872
5.6728
5.71021
5.73947
5.75623
5.76484
5.7675
5.76698
5.76324
5.75637
5.74572
5.72989
5.7072
5.67547
5.64171
5.62009
5.61829
5.63566
5.8934
5.91087
5.92633
5.9287
5.92638
5.92424
5.92512
5.9272
5.92848
5.92809
5.92646
5.92222
5.91332
5.89868
5.87868
5.85343
5.82407
5.79838
5.78647
5.78641
6.09588
6.11405
6.11539
6.09811
6.08254
6.07684
6.08014
6.08601
6.09123
6.0952
6.09862
6.10228
6.10697
6.11374
6.12452
6.13929
6.15099
6.15272
6.13508
6.10577
6.22638
6.20861
6.20906
6.23293
6.25225
6.2604
6.26028
6.25803
6.25694
6.25814
6.2605
6.26677
6.27803
6.30058
6.33646
6.38761
6.44461
6.48713
6.48093
6.43309
6.5167
6.52981
6.53486
6.5137
6.47978
6.44654
6.42192
6.40742
6.40043
6.39957
6.40222
6.40887
6.41832
6.43201
6.44967
6.47055
6.49119
6.50614
6.51642
6.51576
6.63555
6.63629
6.61581
6.57338
6.53433
6.51152
6.50216
6.50104
6.50403
6.50947
6.51674
6.52526
6.53353
6.53842
6.53614
6.52561
6.51289
6.504
6.51163
6.53647
6.54216
6.48527
6.45914
6.48309
6.52313
6.56139
6.58661
6.60152
6.61022
6.61678
6.6207
6.6229
6.6227
6.61956
6.61196
6.6012
6.59268
6.59016
6.59089
6.59796
6.65698
6.62581
6.63172
6.66961
6.70814
6.73322
6.74455
6.74717
6.74541
6.74178
6.73578
6.72611
6.71117
6.69136
6.66696
6.63998
6.61417
6.5969
6.59458
6.60181
6.98353
7.01473
7.03255
7.01439
6.98325
6.9517
6.92855
6.9112
6.89643
6.88266
6.86805
6.85048
6.82788
6.79824
6.76081
6.71715
6.67306
6.63958
6.62741
6.63123
7.17871
7.20992
7.20428
7.16786
7.13042
7.09913
7.07558
7.05769
7.04338
7.03038
7.01792
7.00348
6.98543
6.96172
6.93232
6.897
6.8571
6.82095
6.79792
6.78689
7.1468
7.13274
7.12093
7.13245
7.15326
7.1718
7.18215
7.18684
7.18771
7.18639
7.18411
7.18183
7.1803
7.18131
7.18736
7.19857
7.20649
7.20333
7.17887
7.14198
7.16254
7.13813
7.1425
7.18874
7.24706
7.29825
7.33144
7.35014
7.35863
7.36331
7.36611
7.37216
7.38354
7.40688
7.44404
7.49774
7.55756
7.60245
7.59563
7.54386
7.43988
7.46548
7.48843
7.50408
7.5161
7.52628
7.53474
7.54219
7.54695
7.55155
7.55689
7.56709
7.58279
7.60552
7.63224
7.66293
7.69407
7.71865
7.73585
7.73987
7.79552
7.84628
7.8528
7.81686
7.77478
7.74354
7.72741
7.72272
7.72333
7.7272
7.73466
7.74771
7.76591
7.78737
7.80716
7.82104
7.83061
7.8382
7.85837
7.89479
8.02526
8.03987
8.02611
7.99259
7.95224
7.91789
7.89423
7.88187
7.87753
7.88012
7.887
7.89905
7.91508
7.93619
7.9606
7.98546
8.00983
8.03295
8.05281
8.07458
8.12169
8.10669
8.08597
8.06669
8.04565
8.02702
8.01346
8.00637
8.00476
8.00875
8.01584
8.02633
8.0376
8.04974
8.06045
8.07093
8.08207
8.09651
8.11947
8.14178
8.08173
8.03492
8.01608
8.04111
8.07327
8.09995
8.11564
8.12296
8.12566
8.12887
8.13189
8.13569
8.13807
8.13806
8.13208
8.12078
8.10776
8.10269
8.11783
8.13662
8.18657
8.17418
8.18129
8.21228
8.24028
8.25703
8.26251
8.26162
8.25776
8.2539
8.25003
8.24559
8.23733
8.22371
8.20304
8.17599
8.14517
8.12172
8.12027
8.12334
8.44657
8.49432
8.50758
8.48127
8.45049
8.4261
8.41024
8.3996
8.39104
8.38305
8.3746
8.36352
8.34807
8.32795
8.30571
8.28534
8.26583
8.24913
8.23479
8.20857
8.56428
8.5938
8.58419
8.55503
8.53679
8.53108
8.53043
8.53003
8.52738
8.52257
8.51508
8.50438
8.48871
8.46992
8.45124
8.43902
8.43813
8.44645
8.43385
8.38074
8.61213
8.60092
8.60291
8.63577
8.6669
8.68396
8.68789
8.687
8.6848
8.68265
8.68106
8.67963
8.6787
8.67503
8.66406
8.64529
8.62238
8.60377
8.58658
8.54977
8.854
8.88199
8.89789
8.89505
8.88343
8.86949
8.85873
8.85242
8.84885
8.84753
8.84902
8.85474
8.86582
8.88342
8.90335
8.91794
8.92124
8.90975
8.87865
8.82738
9.03078
9.06214
9.06513
9.04444
9.0247
9.01421
9.01056
9.00927
9.00874
9.00874
9.01049
9.01494
9.02471
9.04152
9.06594
9.09606
9.12332
9.13186
9.11247
9.07215
9.12396
9.11946
9.12768
9.16039
9.1862
9.19614
9.19345
9.18521
9.17779
9.17303
9.17176
9.17357
9.17729
9.18361
9.19281
9.20288
9.2132
9.21903
9.2182
9.20703
9.39839
9.43298
9.45305
9.44722
9.42636
9.3994
9.37442
9.35349
9.33857
9.32931
9.32673
9.32828
9.33358
9.33714
9.33639
9.32746
9.31043
9.28924
9.28508
9.29192
9.55081
9.586
9.58877
9.56228
9.53252
9.50853
9.49076
9.47757
9.46798
9.46273
9.4619
9.46579
9.47248
9.4804
9.48732
9.48963
9.48886
9.48476
9.47697
9.46134
9.51973
9.50904
9.51003
9.54245
9.5733
9.58947
9.59225
9.59
9.58667
9.58513
9.58559
9.58799
9.59247
9.59837
9.60482
9.60956
9.61046
9.60776
9.60438
9.58793
9.60766
9.61692
9.63144
9.65623
9.68109
9.69798
9.70504
9.70571
9.70353
9.70185
9.70155
9.70359
9.70565
9.70738
9.70727
9.70365
9.69836
9.6932
9.69173
9.67797
9.70414
9.72023
9.73572
9.76229
9.78915
9.81094
9.82191
9.82248
9.81824
9.81349
9.81012
9.80699
9.80352
9.79508
9.78124
9.7629
9.74345
9.72934
9.72803
9.72056
9.83804
9.87297
9.88869
9.90133
9.91203
9.91962
9.92395
9.9239
9.92111
9.91645
9.91177
9.90631
9.89781
9.8828
9.85883
9.82554
9.78971
9.76202
9.75594
9.74781
9.90433
9.94286
9.94678
9.94807
9.96031
9.97938
9.99842
10.0121
10.02
10.0221
10.0214
10.0162
10.0081
9.99396
9.9722
9.94216
9.90604
9.8731
9.8573
9.83629
9.91055
9.91347
9.91883
9.97253
10.0334
10.083
10.1146
10.1319
10.1396
10.1418
10.1411
10.1381
10.1324
10.1257
10.1202
10.1167
10.1141
10.1062
10.0884
10.0437
10.193
10.2419
10.2613
10.272
10.2765
10.279
10.2805
10.2806
10.2777
10.2727
10.2658
10.2568
10.2471
10.238
10.2346
10.2458
10.2742
10.305
10.3037
10.2416
10.4481
10.5094
10.5091
10.4771
10.4463
10.4278
10.42
10.4154
10.4111
10.4046
10.3966
10.3859
10.3718
10.3524
10.3268
10.2981
10.276
10.269
10.2811
10.2663
10.5188
10.5284
10.5028
10.4953
10.5048
10.5235
10.5414
10.5529
10.5597
10.5609
10.56
10.5549
10.5484
10.5362
10.5158
10.4825
10.4387
10.4046
10.4053
10.4061
10.6857
10.6762
10.6538
10.6628
10.6853
10.711
10.7307
10.7433
10.7503
10.7547
10.7584
10.7638
10.7715
10.7839
10.804
10.8308
10.8559
10.8722
10.867
10.8202
11.0898
11.1284
11.1153
11.0799
11.0396
11.007
10.9865
10.9758
10.9702
10.9693
10.9722
10.981
10.9978
11.0274
11.0752
11.145
11.2272
11.2979
11.3149
11.2461
11.4338
11.4962
11.4678
11.3898
11.3084
11.245
11.2064
11.1854
11.1762
11.1749
11.1803
11.1932
11.2128
11.2428
11.2837
11.3339
11.3883
11.4392
11.4764
11.4574
11.532
11.5482
11.5053
11.4613
11.4266
11.4019
11.3859
11.3763
11.3737
11.3771
11.3878
11.406
11.4325
11.4641
11.497
11.5275
11.5566
11.5849
11.6164
11.6235
11.6523
11.658
11.6361
11.6268
11.6204
11.6111
11.5993
11.5893
11.584
11.5857
11.5947
11.6131
11.6396
11.674
11.712
11.7507
11.7886
11.8239
11.8438
11.8264
11.9643
12.0222
12.0258
11.9914
11.9421
11.8899
11.8479
11.8196
11.8037