/*--------------------------------*- C++ -*----------------------------------*\
  =========                 |
  \\      /  F ield         | OpenFOAM: The Open Source CFD Toolbox
   \\    /   O peration     | Website:  https://openfoam.org
    \\  /    A nd           | Version:  6
     \\/     M anipulation  |
\*---------------------------------------------------------------------------*/
FoamFile
{
    version     2.0;
    format      ascii;
    class       volVectorField;
    location    "14";
    object      U;
}
// * * * * * * * * * * * * * * * * * * * * * * * * * * * * * * * * * * * * * //

dimensions      [0 1 -1 0 0 0 0];

internalField   nonuniform List<vector> 
130000
(
(-0.0126422 -0.340372 0)
(-0.013232 -0.373306 0)
(-0.0137567 -0.405232 0)
(-0.0142265 -0.435906 0)
(-0.0146365 -0.465032 0)
(-0.0149953 -0.492351 0)
(-0.0153094 -0.517643 0)
(-0.015586 -0.540734 0)
(-0.0158313 -0.561503 0)
(-0.0160513 -0.579885 0)
(-0.0162509 -0.595869 0)
(-0.0164346 -0.609498 0)
(-0.0166055 -0.620859 0)
(-0.0167659 -0.630082 0)
(-0.0169176 -0.637328 0)
(-0.0170614 -0.642785 0)
(-0.0171974 -0.646656 0)
(-0.0173257 -0.649157 0)
(-0.0174468 -0.650503 0)
(-0.01756 -0.650907 0)
(-0.014384 -0.338959 0)
(-0.0147747 -0.37198 0)
(-0.0151674 -0.404044 0)
(-0.0155426 -0.434861 0)
(-0.0158807 -0.464124 0)
(-0.0161822 -0.491568 0)
(-0.0164505 -0.516968 0)
(-0.01669 -0.54015 0)
(-0.0169057 -0.560993 0)
(-0.0171021 -0.579435 0)
(-0.0172835 -0.595465 0)
(-0.0174533 -0.609129 0)
(-0.0176141 -0.620518 0)
(-0.0177677 -0.629762 0)
(-0.0179152 -0.637026 0)
(-0.018057 -0.642499 0)
(-0.0181928 -0.646386 0)
(-0.0183222 -0.648903 0)
(-0.0184455 -0.650266 0)
(-0.018562 -0.650686 0)
(-0.0169814 -0.338287 0)
(-0.0172455 -0.371284 0)
(-0.0175139 -0.40336 0)
(-0.0177768 -0.434213 0)
(-0.01802 -0.463521 0)
(-0.018242 -0.491012 0)
(-0.0184447 -0.516456 0)
(-0.0186304 -0.539677 0)
(-0.0188024 -0.560553 0)
(-0.0189634 -0.57902 0)
(-0.0191165 -0.595072 0)
(-0.019264 -0.608753 0)
(-0.0194075 -0.620155 0)
(-0.0195479 -0.629412 0)
(-0.0196859 -0.636688 0)
(-0.0198212 -0.642174 0)
(-0.019953 -0.646075 0)
(-0.0200806 -0.648606 0)
(-0.0202038 -0.649986 0)
(-0.0203216 -0.650424 0)
(-0.0203929 -0.337899 0)
(-0.0204973 -0.370884 0)
(-0.0206239 -0.402967 0)
(-0.0207571 -0.433838 0)
(-0.0208851 -0.463171 0)
(-0.0210068 -0.490687 0)
(-0.021123 -0.516153 0)
(-0.0212348 -0.539392 0)
(-0.0213442 -0.560281 0)
(-0.0214527 -0.578758 0)
(-0.0215621 -0.594814 0)
(-0.0216736 -0.608497 0)
(-0.0217877 -0.6199 0)
(-0.0219047 -0.629157 0)
(-0.0220241 -0.636433 0)
(-0.0221452 -0.64192 0)
(-0.0222668 -0.645824 0)
(-0.0223874 -0.648362 0)
(-0.0225065 -0.64975 0)
(-0.0226225 -0.650198 0)
(-0.0243103 -0.337802 0)
(-0.0242733 -0.370766 0)
(-0.0242656 -0.402839 0)
(-0.0242702 -0.433706 0)
(-0.0242802 -0.463038 0)
(-0.0242949 -0.490553 0)
(-0.0243156 -0.516018 0)
(-0.0243431 -0.539254 0)
(-0.0243784 -0.560137 0)
(-0.0244225 -0.578605 0)
(-0.0244764 -0.594651 0)
(-0.0245402 -0.608323 0)
(-0.0246139 -0.619714 0)
(-0.0246968 -0.62896 0)
(-0.0247878 -0.636228 0)
(-0.0248854 -0.641709 0)
(-0.0249879 -0.64561 0)
(-0.0250933 -0.648147 0)
(-0.0252004 -0.649539 0)
(-0.0253071 -0.649993 0)
(-0.0284846 -0.337938 0)
(-0.0283387 -0.370886 0)
(-0.0282216 -0.402942 0)
(-0.0281172 -0.433792 0)
(-0.0280218 -0.463107 0)
(-0.027937 -0.490604 0)
(-0.0278653 -0.516049 0)
(-0.0278079 -0.539262 0)
(-0.0277661 -0.560121 0)
(-0.0277409 -0.578563 0)
(-0.0277329 -0.594583 0)
(-0.0277419 -0.608228 0)
(-0.0277674 -0.619595 0)
(-0.0278082 -0.628819 0)
(-0.0278626 -0.636067 0)
(-0.0279285 -0.641532 0)
(-0.0280039 -0.645422 0)
(-0.028086 -0.647952 0)
(-0.0281731 -0.64934 0)
(-0.0282625 -0.649796 0)
(-0.0327979 -0.338244 0)
(-0.0325689 -0.371193 0)
(-0.0323672 -0.403241 0)
(-0.0321724 -0.434077 0)
(-0.0319863 -0.463372 0)
(-0.0318124 -0.490844 0)
(-0.0316551 -0.516258 0)
(-0.0315166 -0.539437 0)
(-0.031399 -0.560258 0)
(-0.0313036 -0.578661 0)
(-0.0312311 -0.594641 0)
(-0.0311814 -0.608247 0)
(-0.0311539 -0.619577 0)
(-0.031147 -0.628767 0)
(-0.0311587 -0.635986 0)
(-0.0311867 -0.641426 0)
(-0.0312283 -0.645296 0)
(-0.0312805 -0.647811 0)
(-0.0313411 -0.64919 0)
(-0.0314072 -0.649642 0)
(-0.0371965 -0.33869 0)
(-0.0369024 -0.371655 0)
(-0.0366272 -0.403705 0)
(-0.0363554 -0.434532 0)
(-0.0360901 -0.463808 0)
(-0.0358367 -0.491251 0)
(-0.0356012 -0.51663 0)
(-0.0353869 -0.539767 0)
(-0.0351969 -0.560542 0)
(-0.0350329 -0.578895 0)
(-0.0348961 -0.594825 0)
(-0.0347867 -0.608383 0)
(-0.0347039 -0.619666 0)
(-0.0346462 -0.628813 0)
(-0.0346115 -0.635993 0)
(-0.0345972 -0.641399 0)
(-0.0346003 -0.645241 0)
(-0.0346177 -0.647735 0)
(-0.0346467 -0.649098 0)
(-0.034684 -0.64954 0)
(-0.0416295 -0.339244 0)
(-0.0412801 -0.372242 0)
(-0.0409442 -0.404306 0)
(-0.0406078 -0.435131 0)
(-0.0402742 -0.464392 0)
(-0.0399506 -0.491808 0)
(-0.0396445 -0.51715 0)
(-0.0393606 -0.54024 0)
(-0.0391026 -0.560964 0)
(-0.038873 -0.579262 0)
(-0.0386736 -0.595135 0)
(-0.0385047 -0.608635 0)
(-0.038366 -0.619864 0)
(-0.0382559 -0.628959 0)
(-0.0381723 -0.636093 0)
(-0.0381127 -0.641458 0)
(-0.0380738 -0.645265 0)
(-0.0380523 -0.64773 0)
(-0.0380455 -0.649072 0)
(-0.0380498 -0.649498 0)
(-0.0460684 -0.339897 0)
(-0.0456802 -0.37294 0)
(-0.0452927 -0.405028 0)
(-0.0448997 -0.43586 0)
(-0.0445053 -0.46511 0)
(-0.0441185 -0.492501 0)
(-0.0437481 -0.517805 0)
(-0.0433998 -0.540848 0)
(-0.043078 -0.561516 0)
(-0.0427861 -0.579755 0)
(-0.0425263 -0.595565 0)
(-0.0422994 -0.609003 0)
(-0.042105 -0.62017 0)
(-0.0419422 -0.629208 0)
(-0.0418087 -0.636289 0)
(-0.041702 -0.641607 0)
(-0.0416189 -0.645373 0)
(-0.041556 -0.647804 0)
(-0.0415103 -0.649118 0)
(-0.0414782 -0.649523 0)
(-0.0505105 -0.340625 0)
(-0.0500799 -0.373727 0)
(-0.0496479 -0.405852 0)
(-0.049206 -0.436699 0)
(-0.0487582 -0.465946 0)
(-0.0483149 -0.493316 0)
(-0.0478861 -0.518585 0)
(-0.0474784 -0.541581 0)
(-0.047097 -0.562193 0)
(-0.046746 -0.580369 0)
(-0.046428 -0.596113 0)
(-0.0461444 -0.609485 0)
(-0.0458954 -0.620587 0)
(-0.0456797 -0.629562 0)
(-0.0454956 -0.636585 0)
(-0.0453407 -0.641851 0)
(-0.0452117 -0.64557 0)
(-0.0451052 -0.647962 0)
(-0.0450184 -0.649243 0)
(-0.0449475 -0.649623 0)
(-0.0549515 -0.341425 0)
(-0.0544928 -0.3746 0)
(-0.0540182 -0.406772 0)
(-0.0535289 -0.437643 0)
(-0.0530297 -0.466892 0)
(-0.0525321 -0.494246 0)
(-0.0520475 -0.519482 0)
(-0.051583 -0.542432 0)
(-0.0511445 -0.562988 0)
(-0.0507365 -0.5811 0)
(-0.0503622 -0.596777 0)
(-0.0500234 -0.610078 0)
(-0.0497202 -0.621112 0)
(-0.0494522 -0.630021 0)
(-0.0492174 -0.636981 0)
(-0.0490136 -0.642191 0)
(-0.0488378 -0.64586 0)
(-0.0486864 -0.648208 0)
(-0.0485568 -0.649452 0)
(-0.0484449 -0.649802 0)
(-0.0593973 -0.342301 0)
(-0.0589037 -0.37556 0)
(-0.0583871 -0.407787 0)
(-0.0578531 -0.438689 0)
(-0.0573056 -0.467945 0)
(-0.056757 -0.495287 0)
(-0.0562196 -0.520492 0)
(-0.0557012 -0.543397 0)
(-0.0552081 -0.563897 0)
(-0.0547452 -0.581945 0)
(-0.0543162 -0.597552 0)
(-0.0539231 -0.610783 0)
(-0.0535667 -0.621744 0)
(-0.0532463 -0.630584 0)
(-0.0529607 -0.63748 0)
(-0.0527075 -0.642629 0)
(-0.0524838 -0.646244 0)
(-0.0522863 -0.648544 0)
(-0.0521123 -0.649748 0)
(-0.0519582 -0.650063 0)
(-0.0638404 -0.343245 0)
(-0.0633164 -0.376597 0)
(-0.0627592 -0.408889 0)
(-0.0621808 -0.439829 0)
(-0.0615857 -0.469099 0)
(-0.0609874 -0.496431 0)
(-0.0603987 -0.521609 0)
(-0.0598278 -0.544472 0)
(-0.0592814 -0.564916 0)
(-0.0587649 -0.5829 0)
(-0.0582822 -0.598438 0)
(-0.0578357 -0.611596 0)
(-0.0574263 -0.622484 0)
(-0.057054 -0.631253 0)
(-0.0567173 -0.638081 0)
(-0.0564143 -0.643167 0)
(-0.0561422 -0.646725 0)
(-0.0558978 -0.648974 0)
(-0.0556784 -0.650133 0)
(-0.0554803 -0.650411 0)
(-0.0682726 -0.344256 0)
(-0.0677191 -0.377711 0)
(-0.0671251 -0.410075 0)
(-0.0665046 -0.441059 0)
(-0.0658641 -0.470349 0)
(-0.0652178 -0.497677 0)
(-0.0645794 -0.522831 0)
(-0.0639574 -0.545653 0)
(-0.0633589 -0.566044 0)
(-0.0627895 -0.583965 0)
(-0.0622537 -0.599433 0)
(-0.0617541 -0.612517 0)
(-0.061292 -0.623332 0)
(-0.0608674 -0.632028 0)
(-0.0604793 -0.638785 0)
(-0.0601259 -0.643806 0)
(-0.0598046 -0.647304 0)
(-0.0595121 -0.649499 0)
(-0.0592461 -0.650611 0)
(-0.059003 -0.650847 0)
(-0.0727147 -0.345324 0)
(-0.0721288 -0.378892 0)
(-0.0714947 -0.411339 0)
(-0.0708307 -0.442376 0)
(-0.070144 -0.471691 0)
(-0.0694496 -0.499021 0)
(-0.0687614 -0.524156 0)
(-0.0680883 -0.54694 0)
(-0.0674377 -0.567279 0)
(-0.0668157 -0.585137 0)
(-0.0662269 -0.600536 0)
(-0.0656742 -0.613547 0)
(-0.0651592 -0.624286 0)
(-0.0646821 -0.632908 0)
(-0.0642421 -0.639594 0)
(-0.0638376 -0.644547 0)
(-0.0634662 -0.647983 0)
(-0.0631248 -0.650122 0)
(-0.0628111 -0.651183 0)
(-0.0625216 -0.651374 0)
(-0.0771487 -0.346463 0)
(-0.0765371 -0.380154 0)
(-0.0758643 -0.41269 0)
(-0.075157 -0.443787 0)
(-0.0744239 -0.473132 0)
(-0.0736807 -0.500467 0)
(-0.0729423 -0.525584 0)
(-0.0722178 -0.548332 0)
(-0.0715149 -0.568621 0)
(-0.0708399 -0.586418 0)
(-0.0701976 -0.601748 0)
(-0.0695913 -0.614685 0)
(-0.0690229 -0.625349 0)
(-0.0684926 -0.633895 0)
(-0.0679999 -0.640509 0)
(-0.0675434 -0.645393 0)
(-0.0671209 -0.648764 0)
(-0.0667293 -0.650844 0)
(-0.0663666 -0.651851 0)
(-0.0660295 -0.651996 0)
(-0.0815921 -0.347673 0)
(-0.080946 -0.381496 0)
(-0.0802301 -0.41413 0)
(-0.0794786 -0.445291 0)
(-0.0786987 -0.474671 0)
(-0.0779067 -0.502014 0)
(-0.0771182 -0.527117 0)
(-0.0763422 -0.549831 0)
(-0.0755869 -0.570072 0)
(-0.0748585 -0.587808 0)
(-0.0741624 -0.60307 0)
(-0.0735021 -0.615933 0)
(-0.0728795 -0.626521 0)
(-0.0722953 -0.634992 0)
(-0.0717491 -0.641531 0)
(-0.0712396 -0.646344 0)
(-0.0707649 -0.649649 0)
(-0.070322 -0.651667 0)
(-0.069909 -0.652619 0)
(-0.0695227 -0.652713 0)
(-0.0860159 -0.348954 0)
(-0.0853402 -0.382918 0)
(-0.0845865 -0.415656 0)
(-0.0837922 -0.446886 0)
(-0.0829663 -0.476306 0)
(-0.0821259 -0.503661 0)
(-0.0812873 -0.528753 0)
(-0.0804596 -0.551437 0)
(-0.0796512 -0.57163 0)
(-0.078869 -0.589308 0)
(-0.0781183 -0.604502 0)
(-0.077403 -0.617292 0)
(-0.0767253 -0.627804 0)
(-0.076086 -0.636198 0)
(-0.0754851 -0.642662 0)
(-0.0749214 -0.647403 0)
(-0.0743931 -0.65064 0)
(-0.0738975 -0.652595 0)
(-0.0734327 -0.653489 0)
(-0.0729958 -0.65353 0)
(-0.0904392 -0.350297 0)
(-0.0897278 -0.38441 0)
(-0.0889353 -0.417262 0)
(-0.0880983 -0.44857 0)
(-0.0872264 -0.478035 0)
(-0.0863376 -0.505408 0)
(-0.0854483 -0.530493 0)
(-0.0845685 -0.553149 0)
(-0.0837065 -0.573298 0)
(-0.0828693 -0.590919 0)
(-0.0820631 -0.606046 0)
(-0.0812917 -0.618764 0)
(-0.0805577 -0.6292 0)
(-0.0798621 -0.637517 0)
(-0.079205 -0.643905 0)
(-0.0785856 -0.648573 0)
(-0.0780022 -0.65174 0)
(-0.0774523 -0.65363 0)
(-0.0769341 -0.654464 0)
(-0.0764449 -0.65445 0)
(-0.0948631 -0.351704 0)
(-0.0941189 -0.385978 0)
(-0.0932864 -0.418951 0)
(-0.0924046 -0.450345 0)
(-0.0914847 -0.479862 0)
(-0.0905454 -0.507257 0)
(-0.0896038 -0.532338 0)
(-0.0886699 -0.55497 0)
(-0.0877525 -0.575078 0)
(-0.086859 -0.592643 0)
(-0.0859955 -0.607705 0)
(-0.0851664 -0.620351 0)
(-0.0843744 -0.630711 0)
(-0.0836207 -0.638951 0)
(-0.0829058 -0.645263 0)
(-0.0822289 -0.649856 0)
(-0.0815886 -0.652952 0)
(-0.0809826 -0.654775 0)
(-0.0804091 -0.655547 0)
(-0.0798658 -0.655474 0)
(-0.099299 -0.353189 0)
(-0.0985156 -0.387632 0)
(-0.0976383 -0.420734 0)
(-0.0967097 -0.452218 0)
(-0.0957399 -0.481791 0)
(-0.0947482 -0.509212 0)
(-0.0937525 -0.534294 0)
(-0.0927628 -0.556905 0)
(-0.0917883 -0.576973 0)
(-0.0908365 -0.594484 0)
(-0.089914 -0.609482 0)
(-0.0890252 -0.622057 0)
(-0.0881732 -0.632341 0)
(-0.0873595 -0.640504 0)
(-0.0865847 -0.646739 0)
(-0.0858483 -0.651257 0)
(-0.085149 -0.654281 0)
(-0.0844848 -0.656035 0)
(-0.083854 -0.656742 0)
(-0.0832545 -0.656609 0)
(-0.10373 -0.354752 0)
(-0.102909 -0.389372 0)
(-0.101989 -0.42261 0)
(-0.101012 -0.454192 0)
(-0.0999915 -0.483826 0)
(-0.0989459 -0.511278 0)
(-0.0978942 -0.536363 0)
(-0.0968468 -0.558955 0)
(-0.095813 -0.578986 0)
(-0.0948009 -0.596446 0)
(-0.093817 -0.611381 0)
(-0.0928663 -0.623885 0)
(-0.091952 -0.634095 0)
(-0.0910759 -0.64218 0)
(-0.0902389 -0.648337 0)
(-0.0894407 -0.652779 0)
(-0.0886801 -0.655729 0)
(-0.0879554 -0.657413 0)
(-0.0872651 -0.658052 0)
(-0.0866073 -0.657856 0)
(-0.108168 -0.356391 0)
(-0.107304 -0.391198 0)
(-0.106339 -0.42458 0)
(-0.105313 -0.456266 0)
(-0.104239 -0.485969 0)
(-0.103138 -0.513456 0)
(-0.102028 -0.53855 0)
(-0.100921 -0.561126 0)
(-0.0998257 -0.581123 0)
(-0.0987507 -0.598533 0)
(-0.097703 -0.613407 0)
(-0.0966877 -0.625842 0)
(-0.0957085 -0.635977 0)
(-0.0947674 -0.643984 0)
(-0.0938655 -0.650063 0)
(-0.0930027 -0.654428 0)
(-0.0921782 -0.657303 0)
(-0.0913905 -0.658914 0)
(-0.090638 -0.659484 0)
(-0.0899194 -0.659222 0)
(-0.112608 -0.358105 0)
(-0.111703 -0.39311 0)
(-0.110691 -0.426647 0)
(-0.109615 -0.458445 0)
(-0.108486 -0.488223 0)
(-0.107326 -0.515751 0)
(-0.106156 -0.540857 0)
(-0.104986 -0.563422 0)
(-0.103826 -0.583387 0)
(-0.102685 -0.60075 0)
(-0.101571 -0.615564 0)
(-0.100488 -0.62793 0)
(-0.0994413 -0.637991 0)
(-0.0984322 -0.645921 0)
(-0.0974624 -0.651921 0)
(-0.0965322 -0.656208 0)
(-0.0956409 -0.659005 0)
(-0.0947872 -0.660542 0)
(-0.0939698 -0.661041 0)
(-0.0931874 -0.660711 0)
(-0.117067 -0.359908 0)
(-0.116115 -0.395121 0)
(-0.115051 -0.428819 0)
(-0.113919 -0.460737 0)
(-0.112732 -0.490595 0)
(-0.111511 -0.51817 0)
(-0.110277 -0.543292 0)
(-0.109041 -0.565848 0)
(-0.107813 -0.585785 0)
(-0.106604 -0.603103 0)
(-0.105419 -0.617859 0)
(-0.104266 -0.630158 0)
(-0.103148 -0.640145 0)
(-0.102067 -0.647998 0)
(-0.101026 -0.653919 0)
(-0.100025 -0.658125 0)
(-0.099064 -0.660845 0)
(-0.098141 -0.662305 0)
(-0.0972553 -0.66273 0)
(-0.0964059 -0.662329 0)
(-0.121525 -0.361798 0)
(-0.120525 -0.39723 0)
(-0.119411 -0.431098 0)
(-0.118223 -0.463143 0)
(-0.116975 -0.493088 0)
(-0.11569 -0.520715 0)
(-0.114389 -0.545859 0)
(-0.113084 -0.568412 0)
(-0.111786 -0.588322 0)
(-0.110504 -0.605598 0)
(-0.109246 -0.620298 0)
(-0.108019 -0.632531 0)
(-0.106826 -0.642445 0)
(-0.105671 -0.65022 0)
(-0.104555 -0.656061 0)
(-0.10348 -0.660187 0)
(-0.102445 -0.662827 0)
(-0.101449 -0.664209 0)
(-0.100492 -0.664557 0)
(-0.0995721 -0.664082 0)
(-0.126001 -0.36378 0)
(-0.124948 -0.399441 0)
(-0.123778 -0.43349 0)
(-0.12253 -0.46567 0)
(-0.121218 -0.49571 0)
(-0.119866 -0.523395 0)
(-0.118494 -0.548566 0)
(-0.117117 -0.571119 0)
(-0.115744 -0.591007 0)
(-0.114386 -0.608243 0)
(-0.113051 -0.622889 0)
(-0.111745 -0.635058 0)
(-0.110473 -0.644899 0)
(-0.109239 -0.652597 0)
(-0.108045 -0.658357 0)
(-0.106891 -0.662402 0)
(-0.105779 -0.66496 0)
(-0.104706 -0.666261 0)
(-0.103673 -0.666531 0)
(-0.10268 -0.665978 0)
(-0.130481 -0.365854 0)
(-0.129375 -0.401757 0)
(-0.128149 -0.435998 0)
(-0.126838 -0.468323 0)
(-0.12546 -0.498465 0)
(-0.124037 -0.526216 0)
(-0.122592 -0.55142 0)
(-0.121138 -0.573977 0)
(-0.119686 -0.593847 0)
(-0.118248 -0.611046 0)
(-0.116831 -0.62564 0)
(-0.115443 -0.637745 0)
(-0.114088 -0.647515 0)
(-0.112771 -0.655136 0)
(-0.111493 -0.660815 0)
(-0.110257 -0.664777 0)
(-0.109063 -0.667252 0)
(-0.10791 -0.66847 0)
(-0.106798 -0.668658 0)
(-0.105727 -0.668025 0)
(-0.134987 -0.36803 0)
(-0.133821 -0.404188 0)
(-0.132533 -0.438631 0)
(-0.131155 -0.47111 0)
(-0.129704 -0.501363 0)
(-0.128206 -0.529186 0)
(-0.126682 -0.554429 0)
(-0.125147 -0.576996 0)
(-0.123613 -0.596851 0)
(-0.122089 -0.614016 0)
(-0.120586 -0.62856 0)
(-0.11911 -0.640604 0)
(-0.117668 -0.650303 0)
(-0.116262 -0.657846 0)
(-0.114897 -0.663444 0)
(-0.113574 -0.667321 0)
(-0.112293 -0.669711 0)
(-0.111055 -0.670844 0)
(-0.109859 -0.670947 0)
(-0.108706 -0.67023 0)
(-0.139498 -0.370313 0)
(-0.138273 -0.406739 0)
(-0.136922 -0.441396 0)
(-0.135475 -0.47404 0)
(-0.13395 -0.504412 0)
(-0.132372 -0.532315 0)
(-0.130766 -0.557602 0)
(-0.129145 -0.580184 0)
(-0.127522 -0.60003 0)
(-0.125908 -0.617163 0)
(-0.124314 -0.63166 0)
(-0.122746 -0.643643 0)
(-0.12121 -0.653272 0)
(-0.119712 -0.660738 0)
(-0.118254 -0.666254 0)
(-0.116838 -0.670046 0)
(-0.115466 -0.672348 0)
(-0.114138 -0.673393 0)
(-0.112854 -0.673408 0)
(-0.111614 -0.672603 0)
(-0.144039 -0.372708 0)
(-0.142749 -0.409417 0)
(-0.141327 -0.4443 0)
(-0.139805 -0.47712 0)
(-0.138199 -0.507621 0)
(-0.136537 -0.535612 0)
(-0.134843 -0.56095 0)
(-0.133131 -0.583553 0)
(-0.131415 -0.603393 0)
(-0.129705 -0.620498 0)
(-0.128013 -0.634951 0)
(-0.126347 -0.646875 0)
(-0.124713 -0.656434 0)
(-0.123116 -0.663822 0)
(-0.12156 -0.669255 0)
(-0.120046 -0.67296 0)
(-0.118578 -0.675173 0)
(-0.117154 -0.676127 0)
(-0.115776 -0.67605 0)
(-0.114444 -0.675153 0)
(-0.14859 -0.375223 0)
(-0.147233 -0.41223 0)
(-0.145741 -0.447353 0)
(-0.144141 -0.480359 0)
(-0.142451 -0.510999 0)
(-0.1407 -0.539086 0)
(-0.138912 -0.564483 0)
(-0.137104 -0.587113 0)
(-0.135288 -0.606951 0)
(-0.133477 -0.624033 0)
(-0.131682 -0.638443 0)
(-0.129912 -0.65031 0)
(-0.128173 -0.6598 0)
(-0.126472 -0.667111 0)
(-0.124811 -0.672459 0)
(-0.123194 -0.676075 0)
(-0.121623 -0.678196 0)
(-0.120098 -0.679057 0)
(-0.11862 -0.678884 0)
(-0.117191 -0.67789 0)
(-0.153174 -0.377864 0)
(-0.151743 -0.415186 0)
(-0.150173 -0.450562 0)
(-0.148488 -0.483768 0)
(-0.146708 -0.514558 0)
(-0.144862 -0.542749 0)
(-0.142975 -0.568213 0)
(-0.141064 -0.590875 0)
(-0.139142 -0.610718 0)
(-0.137224 -0.62778 0)
(-0.135319 -0.642149 0)
(-0.133439 -0.65396 0)
(-0.131589 -0.663383 0)
(-0.129776 -0.670615 0)
(-0.128004 -0.675879 0)
(-0.126277 -0.679404 0)
(-0.124596 -0.681431 0)
(-0.122964 -0.682194 0)
(-0.121381 -0.681921 0)
(-0.119849 -0.680826 0)
(-0.157772 -0.380638 0)
(-0.156266 -0.418293 0)
(-0.154616 -0.453938 0)
(-0.152843 -0.487356 0)
(-0.150968 -0.518307 0)
(-0.149021 -0.546613 0)
(-0.147029 -0.572151 0)
(-0.145009 -0.594853 0)
(-0.142975 -0.614705 0)
(-0.140942 -0.631751 0)
(-0.138921 -0.646084 0)
(-0.136923 -0.657841 0)
(-0.134955 -0.667195 0)
(-0.133024 -0.67435 0)
(-0.131134 -0.679527 0)
(-0.12929 -0.68296 0)
(-0.127494 -0.684889 0)
(-0.125748 -0.685551 0)
(-0.124052 -0.685174 0)
(-0.122411 -0.683972 0)
(-0.162408 -0.383555 0)
(-0.160819 -0.421561 0)
(-0.15908 -0.457492 0)
(-0.157212 -0.491136 0)
(-0.155234 -0.522259 0)
(-0.15318 -0.55069 0)
(-0.151075 -0.576311 0)
(-0.148939 -0.599059 0)
(-0.146785 -0.618926 0)
(-0.14463 -0.635961 0)
(-0.142485 -0.650259 0)
(-0.140362 -0.661964 0)
(-0.138268 -0.671252 0)
(-0.136211 -0.678329 0)
(-0.134197 -0.683418 0)
(-0.132228 -0.686756 0)
(-0.130309 -0.688585 0)
(-0.128442 -0.689141 0)
(-0.126628 -0.688655 0)
(-0.12487 -0.687342 0)
(-0.167061 -0.386622 0)
(-0.165388 -0.424999 0)
(-0.163558 -0.461233 0)
(-0.16159 -0.495118 0)
(-0.159505 -0.526427 0)
(-0.157336 -0.554995 0)
(-0.155112 -0.580708 0)
(-0.152852 -0.603509 0)
(-0.150571 -0.623397 0)
(-0.148286 -0.640424 0)
(-0.14601 -0.654693 0)
(-0.143753 -0.666347 0)
(-0.141525 -0.675569 0)
(-0.139335 -0.682567 0)
(-0.137186 -0.687567 0)
(-0.135086 -0.690808 0)
(-0.133036 -0.692532 0)
(-0.13104 -0.692979 0)
(-0.129099 -0.69238 0)
(-0.127218 -0.690949 0)
(-0.171756 -0.38985 0)
(-0.169989 -0.42862 0)
(-0.16806 -0.465174 0)
(-0.165983 -0.499317 0)
(-0.163782 -0.530825 0)
(-0.16149 -0.55954 0)
(-0.159139 -0.585355 0)
(-0.156747 -0.608219 0)
(-0.154331 -0.628134 0)
(-0.151908 -0.645159 0)
(-0.14949 -0.6594 0)
(-0.147092 -0.671007 0)
(-0.144722 -0.680163 0)
(-0.142388 -0.687081 0)
(-0.140098 -0.69199 0)
(-0.137856 -0.695132 0)
(-0.135667 -0.696748 0)
(-0.133534 -0.697082 0)
(-0.131459 -0.696363 0)
(-0.129446 -0.694808 0)
(-0.176474 -0.393248 0)
(-0.174611 -0.432435 0)
(-0.172578 -0.46933 0)
(-0.170387 -0.503747 0)
(-0.168063 -0.535469 0)
(-0.165642 -0.564344 0)
(-0.163155 -0.590271 0)
(-0.160623 -0.613205 0)
(-0.158062 -0.633154 0)
(-0.155491 -0.650182 0)
(-0.152924 -0.664399 0)
(-0.150374 -0.67596 0)
(-0.147852 -0.685052 0)
(-0.145366 -0.69189 0)
(-0.142924 -0.696707 0)
(-0.140533 -0.699745 0)
(-0.138195 -0.701251 0)
(-0.135916 -0.701465 0)
(-0.133698 -0.700621 0)
(-0.131545 -0.698934 0)
(-0.181239 -0.39683 0)
(-0.17927 -0.436457 0)
(-0.177123 -0.473713 0)
(-0.174809 -0.508423 0)
(-0.172353 -0.540374 0)
(-0.169793 -0.569422 0)
(-0.167161 -0.595472 0)
(-0.164478 -0.618486 0)
(-0.161763 -0.638476 0)
(-0.159035 -0.655512 0)
(-0.156307 -0.66971 0)
(-0.153596 -0.681227 0)
(-0.150911 -0.690255 0)
(-0.148264 -0.697013 0)
(-0.14566 -0.701736 0)
(-0.143108 -0.704668 0)
(-0.140613 -0.706057 0)
(-0.138178 -0.706147 0)
(-0.135807 -0.705171 0)
(-0.133506 -0.703345 0)
(-0.186031 -0.400606 0)
(-0.183954 -0.440699 0)
(-0.181689 -0.47834 0)
(-0.179244 -0.513361 0)
(-0.176649 -0.545558 0)
(-0.173941 -0.574794 0)
(-0.171155 -0.600979 0)
(-0.168312 -0.624082 0)
(-0.165432 -0.644121 0)
(-0.162535 -0.661171 0)
(-0.159637 -0.675353 0)
(-0.156753 -0.686829 0)
(-0.153895 -0.695795 0)
(-0.151074 -0.702471 0)
(-0.148298 -0.707097 0)
(-0.145575 -0.70992 0)
(-0.142911 -0.711188 0)
(-0.140311 -0.711147 0)
(-0.137777 -0.710031 0)
(-0.135317 -0.708058 0)
(-0.190879 -0.40459 0)
(-0.188682 -0.445178 0)
(-0.186287 -0.483226 0)
(-0.183702 -0.51858 0)
(-0.180957 -0.551041 0)
(-0.17809 -0.580479 0)
(-0.175138 -0.606812 0)
(-0.172123 -0.630014 0)
(-0.169067 -0.650111 0)
(-0.165991 -0.667182 0)
(-0.16291 -0.681352 0)
(-0.159842 -0.692789 0)
(-0.156799 -0.701693 0)
(-0.153792 -0.708288 0)
(-0.150832 -0.712814 0)
(-0.147926 -0.715523 0)
(-0.145082 -0.716665 0)
(-0.142304 -0.716487 0)
(-0.139597 -0.715224 0)
(-0.136967 -0.713094 0)
(-0.195762 -0.408796 0)
(-0.193441 -0.449908 0)
(-0.190912 -0.48839 0)
(-0.188178 -0.524099 0)
(-0.185273 -0.556843 0)
(-0.182237 -0.586499 0)
(-0.179108 -0.612994 0)
(-0.175911 -0.636306 0)
(-0.172667 -0.656469 0)
(-0.169397 -0.673567 0)
(-0.166121 -0.687731 0)
(-0.162856 -0.699132 0)
(-0.159614 -0.707975 0)
(-0.15641 -0.714487 0)
(-0.153252 -0.718912 0)
(-0.150151 -0.721503 0)
(-0.147113 -0.722513 0)
(-0.144146 -0.72219 0)
(-0.141253 -0.720771 0)
(-0.138443 -0.718475 0)
(-0.200709 -0.413239 0)
(-0.198252 -0.454908 0)
(-0.195574 -0.493851 0)
(-0.19268 -0.529939 0)
(-0.189603 -0.562986 0)
(-0.186386 -0.592879 0)
(-0.183067 -0.619549 0)
(-0.179673 -0.642984 0)
(-0.176227 -0.663223 0)
(-0.172752 -0.680355 0)
(-0.169266 -0.694517 0)
(-0.16579 -0.705885 0)
(-0.162336 -0.714668 0)
(-0.158919 -0.721096 0)
(-0.15555 -0.725417 0)
(-0.15224 -0.727885 0)
(-0.148996 -0.728757 0)
(-0.145826 -0.728282 0)
(-0.142734 -0.726698 0)
(-0.13973 -0.724225 0)
(-0.205698 -0.417935 0)
(-0.203101 -0.460195 0)
(-0.200268 -0.49963 0)
(-0.197204 -0.536122 0)
(-0.193944 -0.569495 0)
(-0.190533 -0.599642 0)
(-0.187011 -0.626504 0)
(-0.183408 -0.650075 0)
(-0.179745 -0.670399 0)
(-0.176049 -0.687573 0)
(-0.172339 -0.701739 0)
(-0.168636 -0.713078 0)
(-0.164955 -0.721801 0)
(-0.16131 -0.728144 0)
(-0.157715 -0.732357 0)
(-0.154181 -0.734699 0)
(-0.150716 -0.735426 0)
(-0.147328 -0.73479 0)
(-0.144024 -0.733031 0)
(-0.140814 -0.730369 0)
(-0.210759 -0.422902 0)
(-0.208008 -0.465791 0)
(-0.205006 -0.505748 0)
(-0.201757 -0.542673 0)
(-0.1983 -0.576395 0)
(-0.19468 -0.606817 0)
(-0.190941 -0.633888 0)
(-0.187112 -0.657608 0)
(-0.183218 -0.678029 0)
(-0.179284 -0.695254 0)
(-0.175334 -0.709429 0)
(-0.171388 -0.720741 0)
(-0.167463 -0.729406 0)
(-0.163574 -0.735663 0)
(-0.159736 -0.739765 0)
(-0.155962 -0.741974 0)
(-0.15226 -0.742549 0)
(-0.14864 -0.741743 0)
(-0.145109 -0.739798 0)
(-0.141676 -0.736935 0)
(-0.215871 -0.428159 0)
(-0.21296 -0.471717 0)
(-0.20978 -0.512232 0)
(-0.206336 -0.549618 0)
(-0.202668 -0.583715 0)
(-0.198826 -0.614434 0)
(-0.194854 -0.641732 0)
(-0.190783 -0.665616 0)
(-0.18664 -0.686146 0)
(-0.182452 -0.70343 0)
(-0.178244 -0.717621 0)
(-0.174037 -0.72891 0)
(-0.16985 -0.737517 0)
(-0.1657 -0.743687 0)
(-0.161602 -0.747675 0)
(-0.157569 -0.749745 0)
(-0.153613 -0.75016 0)
(-0.149744 -0.749173 0)
(-0.145969 -0.74703 0)
(-0.1423 -0.743951 0)
(-0.221065 -0.433726 0)
(-0.217977 -0.477996 0)
(-0.214603 -0.519106 0)
(-0.210948 -0.556986 0)
(-0.207053 -0.591486 0)
(-0.202972 -0.622525 0)
(-0.198749 -0.650069 0)
(-0.194418 -0.674134 0)
(-0.190008 -0.694785 0)
(-0.185547 -0.712139 0)
(-0.181062 -0.726352 0)
(-0.176575 -0.737622 0)
(-0.172106 -0.746173 0)
(-0.167675 -0.752253 0)
(-0.163297 -0.756123 0)
(-0.158988 -0.758048 0)
(-0.154759 -0.758293 0)
(-0.150623 -0.757115 0)
(-0.146586 -0.75476 0)
(-0.142663 -0.751451 0)
(-0.226321 -0.439627 0)
(-0.22305 -0.484655 0)
(-0.219471 -0.5264 0)
(-0.215591 -0.564809 0)
(-0.211454 -0.59974 0)
(-0.207115 -0.631125 0)
(-0.202624 -0.658936 0)
(-0.198014 -0.683199 0)
(-0.193317 -0.703986 0)
(-0.188563 -0.721419 0)
(-0.183779 -0.735662 0)
(-0.178992 -0.746917 0)
(-0.174221 -0.755413 0)
(-0.169488 -0.761402 0)
(-0.164809 -0.765149 0)
(-0.160203 -0.766921 0)
(-0.155681 -0.766987 0)
(-0.151257 -0.765606 0)
(-0.14694 -0.763025 0)
(-0.142744 -0.759468 0)
(-0.23167 -0.445884 0)
(-0.228198 -0.491721 0)
(-0.224395 -0.534143 0)
(-0.220272 -0.573118 0)
(-0.215874 -0.608514 0)
(-0.211259 -0.640271 0)
(-0.206478 -0.668374 0)
(-0.201569 -0.692853 0)
(-0.196563 -0.713791 0)
(-0.191493 -0.731315 0)
(-0.186389 -0.745595 0)
(-0.181277 -0.756839 0)
(-0.176181 -0.765281 0)
(-0.171123 -0.771178 0)
(-0.166121 -0.774796 0)
(-0.161194 -0.776408 0)
(-0.156358 -0.776284 0)
(-0.151625 -0.774687 0)
(-0.147007 -0.771863 0)
(-0.142519 -0.768041 0)
(-0.237097 -0.452524 0)
(-0.233413 -0.499223 0)
(-0.229373 -0.54237 0)
(-0.22499 -0.581951 0)
(-0.220312 -0.617846 0)
(-0.215401 -0.650006 0)
(-0.210309 -0.678424 0)
(-0.205077 -0.703141 0)
(-0.199739 -0.724245 0)
(-0.194329 -0.741872 0)
(-0.18888 -0.756199 0)
(-0.183419 -0.767437 0)
(-0.177973 -0.775827 0)
(-0.172564 -0.781628 0)
(-0.167215 -0.785113 0)
(-0.161944 -0.786556 0)
(-0.156768 -0.78623 0)
(-0.151703 -0.784401 0)
(-0.146761 -0.781319 0)
(-0.141958 -0.77721 0)
(-0.242628 -0.459575 0)
(-0.238714 -0.507195 0)
(-0.234417 -0.551117 0)
(-0.229753 -0.591348 0)
(-0.224773 -0.627779 0)
(-0.219542 -0.660373 0)
(-0.214115 -0.689133 0)
(-0.208536 -0.71411 0)
(-0.202839 -0.735399 0)
(-0.197064 -0.753143 0)
(-0.191242 -0.767525 0)
(-0.185406 -0.778763 0)
(-0.179581 -0.787102 0)
(-0.173796 -0.792806 0)
(-0.16807 -0.79615 0)
(-0.162428 -0.797415 0)
(-0.156887 -0.796875 0)
(-0.151465 -0.794798 0)
(-0.146174 -0.791437 0)
(-0.141033 -0.787021 0)
(-0.248252 -0.467067 0)
(-0.244094 -0.515671 0)
(-0.239523 -0.560421 0)
(-0.234559 -0.601349 0)
(-0.229255 -0.638358 0)
(-0.22368 -0.671421 0)
(-0.217893 -0.700554 0)
(-0.211939 -0.725814 0)
(-0.205857 -0.747308 0)
(-0.199686 -0.765183 0)
(-0.193463 -0.779631 0)
(-0.187221 -0.790874 0)
(-0.180989 -0.799163 0)
(-0.174796 -0.804767 0)
(-0.168666 -0.807965 0)
(-0.162624 -0.809041 0)
(-0.156689 -0.808273 0)
(-0.150881 -0.80593 0)
(-0.145214 -0.802269 0)
(-0.139709 -0.797521 0)
(-0.253996 -0.475032 0)
(-0.249572 -0.524688 0)
(-0.244703 -0.570327 0)
(-0.239415 -0.612003 0)
(-0.233761 -0.649633 0)
(-0.227815 -0.683203 0)
(-0.221639 -0.71274 0)
(-0.215281 -0.738311 0)
(-0.208783 -0.76003 0)
(-0.202186 -0.778053 0)
(-0.195529 -0.792577 0)
(-0.188849 -0.803832 0)
(-0.182177 -0.812074 0)
(-0.175544 -0.817575 0)
(-0.168977 -0.82062 0)
(-0.162502 -0.821495 0)
(-0.156142 -0.820483 0)
(-0.149918 -0.817855 0)
(-0.143846 -0.813871 0)
(-0.137949 -0.808764 0)
(-0.259849 -0.483507 0)
(-0.255143 -0.534288 0)
(-0.249957 -0.580879 0)
(-0.24432 -0.623359 0)
(-0.238291 -0.661658 0)
(-0.231945 -0.695777 0)
(-0.225351 -0.725753 0)
(-0.218557 -0.751664 0)
(-0.211608 -0.773631 0)
(-0.204551 -0.79182 0)
(-0.197426 -0.806433 0)
(-0.190272 -0.817707 0)
(-0.183124 -0.825903 0)
(-0.176015 -0.831298 0)
(-0.168975 -0.834182 0)
(-0.162033 -0.834844 0)
(-0.155213 -0.83357 0)
(-0.148539 -0.830636 0)
(-0.142029 -0.826304 0)
(-0.135709 -0.820807 0)
(-0.26584 -0.49253 0)
(-0.260827 -0.544515 0)
(-0.255297 -0.592126 0)
(-0.249283 -0.63547 0)
(-0.242847 -0.674491 0)
(-0.236071 -0.709204 0)
(-0.229023 -0.739658 0)
(-0.221758 -0.76594 0)
(-0.214324 -0.788182 0)
(-0.206769 -0.806556 0)
(-0.199136 -0.821273 0)
(-0.19147 -0.832573 0)
(-0.183806 -0.840725 0)
(-0.176182 -0.846012 0)
(-0.16863 -0.848726 0)
(-0.161181 -0.849161 0)
(-0.153863 -0.847607 0)
(-0.146703 -0.844343 0)
(-0.13972 -0.839633 0)
(-0.132943 -0.833715 0)
(-0.27196 -0.502142 0)
(-0.26662 -0.555417 0)
(-0.260721 -0.604124 0)
(-0.254303 -0.648397 0)
(-0.24743 -0.688197 0)
(-0.240188 -0.723553 0)
(-0.232652 -0.754527 0)
(-0.224878 -0.781216 0)
(-0.216917 -0.803761 0)
(-0.208823 -0.822342 0)
(-0.200641 -0.837177 0)
(-0.192419 -0.848513 0)
(-0.184197 -0.856625 0)
(-0.176014 -0.861799 0)
(-0.167906 -0.864333 0)
(-0.159909 -0.864526 0)
(-0.152052 -0.862672 0)
(-0.144365 -0.859051 0)
(-0.136869 -0.853933 0)
(-0.129597 -0.847556 0)
(-0.27824 -0.512388 0)
(-0.272544 -0.567046 0)
(-0.266245 -0.616929 0)
(-0.259389 -0.662204 0)
(-0.252043 -0.702845 0)
(-0.244298 -0.738899 0)
(-0.236232 -0.770438 0)
(-0.227906 -0.797573 0)
(-0.219376 -0.820452 0)
(-0.210696 -0.839265 0)
(-0.201919 -0.854236 0)
(-0.193094 -0.865618 0)
(-0.184265 -0.873692 0)
(-0.175476 -0.878751 0)
(-0.166765 -0.881096 0)
(-0.158172 -0.88103 0)
(-0.14973 -0.878851 0)
(-0.141471 -0.874845 0)
(-0.13342 -0.869284 0)
(-0.125612 -0.862408 0)
(-0.284673 -0.523318 0)
(-0.278596 -0.579458 0)
(-0.271869 -0.630606 0)
(-0.264541 -0.676961 0)
(-0.256684 -0.718512 0)
(-0.248395 -0.755322 0)
(-0.239757 -0.787479 0)
(-0.230834 -0.815102 0)
(-0.221685 -0.838351 0)
(-0.212371 -0.857423 0)
(-0.202947 -0.872548 0)
(-0.193466 -0.883989 0)
(-0.183978 -0.892029 0)
(-0.174529 -0.896968 0)
(-0.165163 -0.899112 0)
(-0.155922 -0.898769 0)
(-0.146843 -0.896241 0)
(-0.137963 -0.891817 0)
(-0.12931 -0.885773 0)
(-0.120921 -0.878353 0)
(-0.29129 -0.534984 0)
(-0.284799 -0.592715 0)
(-0.277606 -0.645225 0)
(-0.269768 -0.692744 0)
(-0.261358 -0.735279 0)
(-0.25248 -0.772912 0)
(-0.24322 -0.805743 0)
(-0.233648 -0.833903 0)
(-0.223828 -0.857561 0)
(-0.213824 -0.876922 0)
(-0.203696 -0.892225 0)
(-0.193502 -0.903736 0)
(-0.183295 -0.911748 0)
(-0.173128 -0.916563 0)
(-0.163047 -0.918495 0)
(-0.153101 -0.917854 0)
(-0.14333 -0.914948 0)
(-0.133775 -0.91007 0)
(-0.124466 -0.9035 0)
(-0.115447 -0.895485 0)
(-0.298087 -0.547443 0)
(-0.291152 -0.606884 0)
(-0.28346 -0.66086 0)
(-0.275071 -0.709636 0)
(-0.266063 -0.75324 0)
(-0.256546 -0.791768 0)
(-0.246612 -0.825335 0)
(-0.236336 -0.854086 0)
(-0.225785 -0.878197 0)
(-0.21503 -0.897881 0)
(-0.204134 -0.913386 0)
(-0.193163 -0.924984 0)