/*--------------------------------*- C++ -*----------------------------------*\
  =========                 |
  \\      /  F ield         | OpenFOAM: The Open Source CFD Toolbox
   \\    /   O peration     | Website:  https://openfoam.org
    \\  /    A nd           | Version:  6
     \\/     M anipulation  |
\*---------------------------------------------------------------------------*/
FoamFile
{
    version     2.0;
    format      ascii;
    class       volVectorField;
    location    "14";
    object      U;
}
// * * * * * * * * * * * * * * * * * * * * * * * * * * * * * * * * * * * * * //

dimensions      [0 1 -1 0 0 0 0];

internalField   nonuniform List<vector> 
10000
(
(-0.0040138 -3.28438 0)
(-0.00754992 -4.37539 0)
(-0.0120576 -4.86749 0)
(-0.0135869 -5.15357 0)
(-0.0129019 -5.30977 0)
(-0.0113982 -5.39086 0)
(-0.00979615 -5.43131 0)
(-0.00830886 -5.45017 0)
(-0.00692348 -5.4574 0)
(-0.00561664 -5.45798 0)
(-0.00435981 -5.45393 0)
(-0.00312081 -5.44514 0)
(-0.00183451 -5.42934 0)
(-0.000351597 -5.4015 0)
(0.00145581 -5.35206 0)
(0.00365626 -5.26321 0)
(0.00567698 -5.10266 0)
(0.0063257 -4.81942 0)
(0.00475038 -4.33799 0)
(0.00304108 -3.26383 0)
(-0.00188173 -3.28624 0)
(-0.00172068 -4.3716 0)
(-0.00431966 -4.86738 0)
(-0.00595831 -5.15647 0)
(-0.00676739 -5.31445 0)
(-0.00679161 -5.39607 0)
(-0.00638785 -5.43642 0)
(-0.00575707 -5.45499 0)
(-0.00501363 -5.46192 0)
(-0.00423217 -5.46229 0)
(-0.00345269 -5.45816 0)
(-0.00269144 -5.44947 0)
(-0.00198563 -5.43394 0)
(-0.00132255 -5.40653 0)
(-0.000717003 -5.35757 0)
(-0.00021527 -5.26881 0)
(7.90526e-05 -5.10728 0)
(0.000234268 -4.82142 0)
(-0.000264605 -4.33662 0)
(0.00122468 -3.26529 0)
(-0.00256394 -3.28237 0)
(-0.00250661 -4.36643 0)
(-0.00271851 -4.8636 0)
(-0.00324262 -5.15427 0)
(-0.00377926 -5.31322 0)
(-0.00402054 -5.39556 0)
(-0.0040693 -5.43643 0)
(-0.00392597 -5.45534 0)
(-0.00362023 -5.46248 0)
(-0.00321908 -5.46298 0)
(-0.00277287 -5.45889 0)
(-0.00231764 -5.45013 0)
(-0.00190888 -5.43442 0)
(-0.00153822 -5.40671 0)
(-0.00118887 -5.35736 0)
(-0.00086843 -5.26805 0)
(-0.000478338 -5.10589 0)
(7.0135e-05 -4.81977 0)
(0.0005067 -4.3346 0)
(0.0011935 -3.26348 0)
(-0.00169414 -3.27721 0)
(-0.00153258 -4.36323 0)
(-0.0013942 -4.86043 0)
(-0.00128587 -5.152 0)
(-0.00161664 -5.31185 0)
(-0.00190022 -5.39473 0)
(-0.00216069 -5.4361 0)
(-0.00230219 -5.45536 0)
(-0.0023038 -5.46273 0)
(-0.00219803 -5.4634 0)
(-0.00202787 -5.45941 0)
(-0.00181612 -5.45068 0)
(-0.00160932 -5.43496 0)
(-0.00141178 -5.40712 0)
(-0.00123463 -5.35761 0)
(-0.00108055 -5.26823 0)
(-0.000988906 -5.10598 0)
(-0.00050318 -4.81979 0)
(-0.000432254 -4.33545 0)
(6.59967e-05 -3.26227 0)
(-0.00033216 -3.27375 0)
(-0.00120904 -4.36147 0)
(-0.00146149 -4.85859 0)
(-0.0012729 -5.15077 0)
(-0.00131218 -5.31046 0)
(-0.0014026 -5.39351 0)
(-0.00154352 -5.43524 0)
(-0.00163279 -5.45482 0)
(-0.00163736 -5.46249 0)
(-0.00155046 -5.46337 0)
(-0.00140211 -5.45952 0)
(-0.00121745 -5.45086 0)
(-0.00101233 -5.43514 0)
(-0.000808518 -5.40721 0)
(-0.000630699 -5.35747 0)
(-0.000508244 -5.26799 0)
(-0.000359062 -5.10587 0)
(-0.000189171 -4.81975 0)
(-0.000451337 -4.33595 0)
(-0.000377558 -3.26111 0)
(0.000964636 -3.27449 0)
(-0.00047808 -4.36297 0)
(-0.00137633 -4.85902 0)
(-0.00163196 -5.1509 0)
(-0.00168111 -5.31064 0)
(-0.00171377 -5.39361 0)
(-0.00166736 -5.43536 0)
(-0.00157164 -5.45503 0)
(-0.00143033 -5.46279 0)
(-0.00123337 -5.46376 0)
(-0.000998298 -5.45998 0)
(-0.000722715 -5.4514 0)
(-0.000413215 -5.43575 0)
(-0.000108432 -5.40781 0)
(0.000180982 -5.3579 0)
(0.000353783 -5.2683 0)
(0.000356113 -5.10656 0)
(0.00019133 -4.82092 0)
(-0.000616434 -4.33705 0)
(-0.000733682 -3.26212 0)
(0.000762129 -3.27528 0)
(-0.000351962 -4.36371 0)
(-0.00107943 -4.86025 0)
(-0.00158307 -5.15175 0)
(-0.00162011 -5.3113 0)
(-0.0016621 -5.39432 0)
(-0.00157893 -5.4361 0)
(-0.00141118 -5.45578 0)
(-0.00121394 -5.46355 0)
(-0.000972915 -5.46452 0)
(-0.000695253 -5.46078 0)
(-0.000385382 -5.45223 0)
(-3.81326e-05 -5.43658 0)
(0.000287977 -5.40857 0)
(0.000553479 -5.35853 0)
(0.000685212 -5.26896 0)
(0.000528481 -5.107 0)
(0.000163184 -4.821 0)
(-0.000523997 -4.33751 0)
(-0.000525368 -3.2641 0)
(-8.00147e-05 -3.2749 0)
(-0.000413398 -4.3629 0)
(-0.000770316 -4.85988 0)
(-0.00115836 -5.15103 0)
(-0.00122897 -5.311 0)
(-0.00126536 -5.39452 0)
(-0.00118823 -5.43645 0)
(-0.00106053 -5.45627 0)
(-0.000901799 -5.46415 0)
(-0.000703996 -5.46518 0)
(-0.000479217 -5.46151 0)
(-0.00021823 -5.45302 0)
(6.75614e-05 -5.43741 0)
(0.000348283 -5.40939 0)
(0.000551144 -5.35918 0)
(0.000597516 -5.26937 0)
(0.000485842 -5.10743 0)
(-3.5501e-05 -4.82125 0)
(-0.0003491 -4.33678 0)
(4.4202e-05 -3.26621 0)
(-0.00041453 -3.27295 0)
(-0.000264741 -4.36155 0)
(-0.000472637 -4.85861 0)
(-0.000810036 -5.14967 0)
(-0.00105867 -5.31006 0)
(-0.00112915 -5.394 0)
(-0.00107333 -5.43627 0)
(-0.000966156 -5.45637 0)
(-0.000835095 -5.46441 0)
(-0.000685585 -5.46555 0)
(-0.000517992 -5.46195 0)
(-0.000339509 -5.45351 0)
(-0.000166967 -5.43795 0)
(1.68583e-05 -5.40997 0)
(0.000141391 -5.35971 0)
(0.0001338 -5.26933 0)
(4.0358e-05 -5.10687 0)
(-0.000232861 -4.82078 0)
(-0.00020071 -4.33588 0)
(0.000679327 -3.26772 0)
(-0.000626152 -3.27196 0)
(-0.000173829 -4.36145 0)
(-0.000705173 -4.85807 0)
(-0.000963014 -5.14896 0)
(-0.00136952 -5.30956 0)
(-0.00143539 -5.39386 0)
(-0.001343 -5.43631 0)
(-0.00118087 -5.45651 0)
(-0.00100058 -5.46463 0)
(-0.000824141 -5.46581 0)
(-0.000668332 -5.46218 0)
(-0.000536304 -5.45369 0)
(-0.000433664 -5.43804 0)
(-0.000348275 -5.40995 0)
(-0.000241997 -5.3595 0)
(-0.000205207 -5.26862 0)
(-0.000152587 -5.10543 0)
(-1.8867e-05 -4.81896 0)
(0.000275838 -4.33355 0)
(0.000793219 -3.26699 0)
(-0.000623656 -3.2719 0)
(-0.000105843 -4.362 0)
(-0.00062528 -4.85772 0)
(-0.000902565 -5.14865 0)
(-0.00143615 -5.30964 0)
(-0.00155619 -5.39406 0)
(-0.00147137 -5.43665 0)
(-0.00127256 -5.4569 0)
(-0.00104268 -5.465 0)
(-0.00082099 -5.46614 0)
(-0.00061667 -5.46246 0)
(-0.000442892 -5.45388 0)
(-0.000281556 -5.43813 0)
(-0.000112189 -5.40997 0)
(8.61266e-05 -5.35947 0)
(0.000324848 -5.26849 0)
(0.000568234 -5.10497 0)
(0.000851553 -4.81825 0)
(0.000801287 -4.33273 0)
(-0.000325238 -3.2655 0)
(-0.000396315 -3.27145 0)
(-0.000235599 -4.36223 0)
(-0.000386136 -4.85763 0)
(-0.000761931 -5.14825 0)
(-0.00122487 -5.30952 0)
(-0.00135985 -5.39433 0)
(-0.0013135 -5.43714 0)
(-0.00112507 -5.45743 0)
(-0.000886918 -5.46553 0)
(-0.000642172 -5.46665 0)
(-0.000399985 -5.46297 0)
(-0.000153656 -5.45441 0)
(9.84081e-05 -5.43872 0)
(0.000378011 -5.41067 0)
(0.000677355 -5.36028 0)
(0.00102607 -5.2694 0)
(0.00132159 -5.10604 0)
(0.00139807 -4.81924 0)
(0.00132355 -4.33388 0)
(-0.00129357 -3.26505 0)
(-0.000281749 -3.27284 0)
(-0.000228326 -4.36109 0)
(-0.000116302 -4.85656 0)
(-0.000367845 -5.14795 0)
(-0.000653415 -5.30937 0)
(-0.000806477 -5.39435 0)
(-0.000837201 -5.4374 0)
(-0.000744937 -5.45781 0)
(-0.000585378 -5.46599 0)
(-0.000391204 -5.46717 0)
(-0.000170743 -5.46351 0)
(6.26731e-05 -5.455 0)
(0.000318123 -5.43941 0)
(0.000603033 -5.41148 0)
(0.000910348 -5.36124 0)
(0.00126258 -5.27054 0)
(0.00154481 -5.10736 0)
(0.00166861 -4.82011 0)
(0.00179964 -4.33336 0)
(-0.000885845 -3.2633 0)
(-6.95009e-05 -3.27223 0)
(4.18126e-05 -4.36003 0)
(0.00010341 -4.85558 0)
(8.85249e-05 -5.14693 0)
(-0.000124385 -5.30861 0)
(-0.000322596 -5.39403 0)
(-0.000415798 -5.43739 0)
(-0.000416795 -5.45798 0)
(-0.000338425 -5.46628 0)
(-0.000203428 -5.46753 0)
(-2.73105e-05 -5.46394 0)
(0.000175608 -5.45548 0)
(0.000402755 -5.43992 0)
(0.000649287 -5.41206 0)
(0.000921608 -5.36192 0)
(0.00127311 -5.27129 0)
(0.001552 -5.10795 0)
(0.00182111 -4.82032 0)
(0.00191395 -4.33316 0)
(-8.17486e-05 -3.26029 0)
(0.000936272 -3.27295 0)
(0.000342542 -4.36099 0)
(0.000109827 -4.85573 0)
(9.93194e-06 -5.14681 0)
(-0.000171201 -5.30852 0)
(-0.000283981 -5.39402 0)
(-0.000319727 -5.43749 0)
(-0.000309027 -5.45816 0)
(-0.000248682 -5.46653 0)
(-0.00014314 -5.46788 0)
(8.00074e-06 -5.46436 0)
(0.000175493 -5.45591 0)
(0.000353913 -5.4403 0)
(0.000538621 -5.41243 0)
(0.000720775 -5.36233 0)
(0.000906538 -5.27176 0)
(0.00119655 -5.10843 0)
(0.0013504 -4.82042 0)
(0.0016541 -4.33233 0)
(0.000323325 -3.25733 0)
(0.00147954 -3.2731 0)
(4.88557e-05 -4.36178 0)
(0.000323869 -4.85595 0)
(0.000314738 -5.14668 0)
(0.000176036 -5.30857 0)
(3.57103e-05 -5.39419 0)
(-5.63449e-05 -5.43765 0)
(-0.000113148 -5.45835 0)
(-0.000112013 -5.46678 0)
(-5.6058e-05 -5.46819 0)
(3.96372e-05 -5.46473 0)
(0.000168448 -5.45632 0)
(0.00031173 -5.44072 0)
(0.000452866 -5.41282 0)
(0.00058027 -5.36271 0)
(0.000657129 -5.27208 0)
(0.000852826 -5.10854 0)
(0.000951713 -4.82026 0)
(0.00112825 -4.33137 0)
(0.000572053 -3.25441 0)
(0.000960247 -3.27273 0)
(-0.000188827 -4.36219 0)
(1.3492e-05 -4.85577 0)
(0.000227392 -5.1461 0)
(0.00027144 -5.30818 0)
(0.000219658 -5.39397 0)
(0.000108211 -5.43752 0)
(3.32811e-06 -5.4583 0)
(-6.186e-05 -5.46682 0)
(-7.43891e-05 -5.46834 0)
(-3.03971e-05 -5.46498 0)
(5.31459e-05 -5.45666 0)
(0.000192654 -5.44116 0)
(0.000362156 -5.41338 0)
(0.000542923 -5.36341 0)
(0.000724954 -5.27288 0)
(0.000791406 -5.10944 0)
(0.000689523 -4.82126 0)
(0.00046628 -4.33253 0)
(0.000186917 -3.25398 0)
(0.00100809 -3.27235 0)
(0.000122982 -4.36304 0)
(3.85661e-05 -4.85609 0)
(0.000124126 -5.14622 0)
(0.000236368 -5.30798 0)
(0.000183801 -5.39365 0)
(6.46178e-05 -5.4372 0)
(-8.25976e-05 -5.45806 0)
(-0.00019943 -5.46667 0)
(-0.000276306 -5.46826 0)
(-0.000318812 -5.46497 0)
(-0.000322928 -5.45674 0)
(-0.000292331 -5.44133 0)
(-0.000242083 -5.41364 0)
(-0.000163829 -5.36364 0)
(-7.5953e-05 -5.27325 0)
(-0.000129558 -5.10984 0)
(-0.000212095 -4.8212 0)
(1.34429e-05 -4.33261 0)
(0.000229674 -3.25422 0)
(0.000979142 -3.27173 0)
(0.000389137 -4.36327 0)
(0.000203773 -4.85595 0)
(-5.6098e-05 -5.1456 0)
(-4.13152e-06 -5.30742 0)
(-9.52554e-05 -5.39314 0)
(-0.000203464 -5.43674 0)
(-0.000323052 -5.45767 0)
(-0.000422504 -5.46635 0)
(-0.000500025 -5.46799 0)
(-0.000555065 -5.46473 0)
(-0.000604726 -5.45649 0)
(-0.000661745 -5.44107 0)
(-0.000701149 -5.41333 0)
(-0.000728004 -5.36317 0)
(-0.000710443 -5.27227 0)
(-0.00064711 -5.10808 0)
(-0.000538581 -4.81924 0)
(-0.000403935 -4.33117 0)
(0.000642933 -3.25218 0)
(0.000601038 -3.27188 0)
(0.000425131 -4.36262 0)
(0.000175747 -4.85555 0)
(-0.000284963 -5.14523 0)
(-0.000438413 -5.30678 0)
(-0.00057167 -5.39256 0)
(-0.00065508 -5.43627 0)
(-0.000682584 -5.45735 0)
(-0.000689723 -5.46613 0)
(-0.000671668 -5.46783 0)
(-0.000638273 -5.4646 0)
(-0.000579111 -5.45638 0)
(-0.000515235 -5.44095 0)
(-0.000435031 -5.4132 0)
(-0.000321999 -5.363 0)
(-0.000227247 -5.27194 0)
(-0.000176855 -5.10747 0)
(-0.000335482 -4.81838 0)
(-0.00101052 -4.33108 0)
(-0.00019027 -3.25246 0)
(0.000567124 -3.27355 0)
(0.000540108 -4.36328 0)
(9.98603e-05 -4.85558 0)
(-0.00040437 -5.14493 0)
(-0.000789768 -5.30645 0)
(-0.00102036 -5.39232 0)
(-0.00108457 -5.43617 0)
(-0.00104342 -5.4574 0)
(-0.000966065 -5.46629 0)
(-0.000859951 -5.46805 0)
(-0.000726067 -5.46488 0)
(-0.000561708 -5.45672 0)
(-0.000354096 -5.44139 0)
(-0.000107806 -5.4137 0)
(0.000139577 -5.36354 0)
(0.00028362 -5.27258 0)
(0.000250671 -5.10823 0)
(-0.000334132 -4.81944 0)
(-0.00129513 -4.33296 0)
(-0.000833643 -3.25517 0)
(0.000347241 -3.27587 0)
(0.000728345 -4.36399 0)
(0.000504172 -4.8556 0)
(-0.00011663 -5.14477 0)
(-0.000673588 -5.30643 0)
(-0.00102604 -5.39232 0)
(-0.00115916 -5.43628 0)
(-0.00115809 -5.45765 0)
(-0.00108255 -5.46664 0)
(-0.000966685 -5.46847 0)
(-0.000829433 -5.46536 0)
(-0.000655388 -5.45727 0)
(-0.000448945 -5.442 0)
(-0.000243289 -5.4144 0)
(-6.4791e-05 -5.36424 0)
(-2.5245e-05 -5.27289 0)
(-0.000185946 -5.10802 0)
(-0.00068972 -4.81917 0)
(-0.00137771 -4.33288 0)
(2.05675e-05 -3.25874 0)
(-0.000459513 -3.27738 0)
(0.000792651 -4.36334 0)
(0.000804482 -4.85499 0)
(0.00048044 -5.14406 0)
(-0.000156584 -5.3059 0)
(-0.000584869 -5.39207 0)
(-0.000846818 -5.43629 0)
(-0.000954479 -5.45782 0)
(-0.000960414 -5.46693 0)
(-0.000904111 -5.46886 0)
(-0.000805731 -5.46581 0)
(-0.000677501 -5.45774 0)
(-0.00054459 -5.44246 0)
(-0.000438525 -5.41479 0)
(-0.000404325 -5.36445 0)
(-0.000443393 -5.27271 0)
(-0.000701548 -5.10715 0)
(-0.000887094 -4.81823 0)
(-0.00145035 -4.33223 0)
(0.000748425 -3.26027 0)
(-0.000594008 -3.27885 0)
(0.000776358 -4.36344 0)
(0.000791472 -4.85391 0)
(0.000802705 -5.14309 0)
(0.000303793 -5.30532 0)
(-6.16725e-05 -5.39159 0)
(-0.000368654 -5.43597 0)
(-0.000568912 -5.45768 0)
(-0.000678084 -5.46693 0)
(-0.000715454 -5.46898 0)
(-0.000713077 -5.46601 0)
(-0.000675925 -5.45799 0)
(-0.000636046 -5.44271 0)
(-0.000630901 -5.41495 0)
(-0.000661125 -5.36458 0)
(-0.000675661 -5.2729 0)
(-0.000797389 -5.10712 0)
(-0.000969137 -4.81765 0)
(-0.00120426 -4.33227 0)
(0.000178769 -3.26293 0)
(-6.65955e-05 -3.279 0)
(0.000471403 -4.36368 0)
(0.00096408 -4.85337 0)
(0.00110285 -5.14251 0)
(0.000835697 -5.30463 0)
(0.000511366 -5.39081 0)
(0.000153583 -5.43526 0)
(-0.00014983 -5.45713 0)
(-0.000371037 -5.46653 0)
(-0.00053076 -5.46869 0)
(-0.000646246 -5.46582 0)
(-0.000744276 -5.45786 0)
(-0.000840828 -5.44259 0)
(-0.000949461 -5.41482 0)
(-0.00109483 -5.36442 0)
(-0.00118944 -5.27283 0)
(-0.00112187 -5.10722 0)
(-0.00117541 -4.81762 0)
(-0.000774841 -4.33213 0)
(6.44948e-05 -3.26517 0)
(0.000534077 -3.28036 0)
(0.000589215 -4.36335 0)
(0.000825433 -4.85241 0)
(0.0010068 -5.14172 0)
(0.00095164 -5.3038 0)
(0.000695989 -5.38997 0)
(0.000364424 -5.4345 0)
(4.68239e-05 -5.45643 0)
(-0.000214348 -5.46591 0)
(-0.000430438 -5.46816 0)
(-0.000618865 -5.46535 0)
(-0.000790878 -5.45743 0)
(-0.000972977 -5.44216 0)
(-0.00115132 -5.41436 0)
(-0.0013293 -5.36391 0)
(-0.00145132 -5.27225 0)
(-0.00132798 -5.10698 0)
(-0.00112947 -4.81765 0)
(-0.000529211 -4.33169 0)
(0.000298197 -3.26584 0)
(0.00079173 -3.28002 0)
(0.00082926 -4.36406 0)
(0.000505016 -4.85268 0)
(0.000566471 -5.1414 0)
(0.000657525 -5.30312 0)
(0.000504495 -5.3893 0)
(0.000276995 -5.4339 0)
(3.83689e-05 -5.45587 0)
(-0.000172009 -5.46538 0)
(-0.00035525 -5.46764 0)
(-0.000513638 -5.46483 0)
(-0.000672628 -5.45692 0)
(-0.000843239 -5.44165 0)
(-0.00099016 -5.41383 0)
(-0.00111105 -5.36338 0)
(-0.00117608 -5.2718 0)
(-0.001002 -5.10665 0)
(-0.000776204 -4.81744 0)
(-0.000308524 -4.33162 0)
(0.000236093 -3.2655 0)
(0.000890367 -3.28137 0)
(0.000831559 -4.36459 0)
(0.000176184 -4.85318 0)
(-4.79647e-05 -5.14183 0)
(9.1396e-05 -5.30321 0)
(7.37037e-05 -5.38912 0)
(1.46681e-05 -5.43362 0)
(-6.85173e-05 -5.45559 0)
(-0.000148454 -5.46511 0)
(-0.000215255 -5.46739 0)
(-0.000276831 -5.46457 0)
(-0.000333097 -5.45664 0)
(-0.000397496 -5.44132 0)
(-0.000437864 -5.41346 0)
(-0.000444746 -5.36307 0)
(-0.000443585 -5.27154 0)
(-0.000296448 -5.10665 0)
(-0.000113576 -4.81787 0)
(-1.23024e-05 -4.33178 0)
(-0.000107932 -3.26518 0)
(0.00046325 -3.28313 0)
(0.000803235 -4.36444 0)
(0.000192768 -4.85364 0)
(-9.15201e-05 -5.14236 0)
(-7.82233e-05 -5.30334 0)
(-0.000107216 -5.38909 0)
(-0.000137461 -5.43356 0)
(-0.000128916 -5.45561 0)
(-0.000104403 -5.46518 0)
(-6.31851e-05 -5.46748 0)
(-1.07363e-05 -5.46466 0)
(4.63602e-05 -5.4567 0)
(0.000125787 -5.44141 0)
(0.000226908 -5.41365 0)
(0.000361414 -5.36337 0)
(0.000410475 -5.27197 0)
(0.000486503 -5.10729 0)
(0.000456161 -4.81905 0)
(0.000196967 -4.33331 0)
(-0.000710998 -3.26494 0)
(-0.000339654 -3.28448 0)
(0.0007029 -4.36362 0)
(0.000183382 -4.85328 0)
(-5.79052e-05 -5.14227 0)
(-0.000140858 -5.30334 0)
(-0.000201537 -5.38915 0)
(-0.00021746 -5.43368 0)
(-0.000176695 -5.45577 0)
(-0.000102268 -5.46541 0)
(-5.63053e-06 -5.46774 0)
(9.94289e-05 -5.46493 0)
(0.000217045 -5.457 0)
(0.000358224 -5.44176 0)
(0.000494284 -5.41403 0)
(0.000641055 -5.36383 0)
(0.000676205 -5.27253 0)
(0.000621795 -5.10793 0)
(0.000517753 -4.82017 0)
(0.000452648 -4.33387 0)
(-0.00031718 -3.26523 0)
(-0.000615153 -3.28528 0)
(0.000328519 -4.36233 0)
(0.000293729 -4.85277 0)
(-5.33929e-05 -5.14181 0)
(-0.000151239 -5.30273 0)
(-0.000244308 -5.38875 0)
(-0.000283028 -5.43355 0)
(-0.000250872 -5.45583 0)
(-0.000191063 -5.46559 0)
(-0.000107326 -5.46801 0)
(-9.28309e-06 -5.46526 0)
(9.46356e-05 -5.45737 0)
(0.000210682 -5.44219 0)
(0.0003101 -5.41454 0)
(0.000387177 -5.36434 0)
(0.000431286 -5.27298 0)
(0.000311852 -5.10828 0)
(0.000418447 -4.82071 0)
(0.000466726 -4.33447 0)
(0.00107446 -3.26523 0)
(-0.000630054 -3.28618 0)
(0.000153929 -4.3604 0)
(0.000111994 -4.85195 0)
(-0.000173564 -5.14117 0)
(-0.000294524 -5.3019 0)
(-0.000476691 -5.38828 0)
(-0.00054682 -5.43337 0)
(-0.000522579 -5.45581 0)
(-0.00046907 -5.46568 0)
(-0.000404534 -5.46816 0)
(-0.000343559 -5.46544 0)
(-0.000291187 -5.45755 0)
(-0.000262139 -5.44236 0)
(-0.000261129 -5.41469 0)
(-0.000283808 -5.3645 0)
(-0.000273819 -5.27322 0)
(-0.000335486 -5.10858 0)
(8.92995e-05 -4.82107 0)
(0.000558984 -4.33445 0)
(0.0013844 -3.26393 0)
(6.06061e-05 -3.28779 0)
(0.000367953 -4.36163 0)
(-0.000226349 -4.85311 0)
(-0.000517803 -5.14163 0)
(-0.0007613 -5.30217 0)
(-0.000902341 -5.38865 0)
(-0.000910326 -5.43369 0)
(-0.00083554 -5.45606 0)
(-0.000742163 -5.46588 0)
(-0.00066704 -5.46828 0)
(-0.00061867 -5.46544 0)
(-0.00062301 -5.4574 0)
(-0.000676617 -5.44209 0)
(-0.00077324 -5.4143 0)
(-0.000881428 -5.36395 0)
(-0.000876932 -5.27246 0)
(-0.000799119 -5.10761 0)
(-0.000194829 -4.82008 0)
(0.000756206 -4.33378 0)
(0.000668858 -3.26124 0)
(0.000357221 -3.28856 0)
(-0.000273653 -4.36185 0)
(4.33307e-05 -4.85343 0)
(-4.19613e-05 -5.142 0)
(-0.000338819 -5.30241 0)
(-0.000460461 -5.38883 0)
(-0.000549211 -5.43392 0)
(-0.000575761 -5.45625 0)
(-0.000550507 -5.46599 0)
(-0.000516856 -5.4683 0)
(-0.000494082 -5.46537 0)
(-0.000497251 -5.45722 0)
(-0.00052905 -5.44177 0)
(-0.000587784 -5.41388 0)
(-0.000628547 -5.36351 0)
(-0.000586659 -5.27228 0)
(-0.000345651 -5.10786 0)
(-1.25846e-05 -4.81997 0)
(0.00047098 -4.33335 0)
(-0.000190889 -3.25957 0)
(3.32853e-05 -3.28639 0)
(-0.000807472 -4.35947 0)
(-0.000134669 -4.8513 0)
(0.0001559 -5.14033 0)
(0.00011456 -5.30113 0)
(3.7773e-05 -5.38788 0)
(-9.14864e-05 -5.4333 0)
(-0.000204618 -5.45586 0)
(-0.000279759 -5.46574 0)
(-0.000309696 -5.46816 0)
(-0.000303592 -5.46532 0)
(-0.000275923 -5.45724 0)
(-0.000242283 -5.44183 0)
(-0.000182044 -5.41401 0)
(-0.00012809 -5.36378 0)
(-5.75026e-05 -5.2728 0)
(0.000145696 -5.10895 0)
(0.000235714 -4.8218 0)
(0.000239166 -4.33503 0)
(-0.000895397 -3.25946 0)
(0.000521726 -3.2846 0)
(-0.000555686 -4.35964 0)
(-0.000519019 -4.85032 0)
(-0.000436147 -5.13904 0)
(-0.000393473 -5.30024 0)
(-0.000408118 -5.38722 0)
(-0.00042058 -5.43275 0)
(-0.00045971 -5.45548 0)
(-0.00048525 -5.46551 0)
(-0.000480028 -5.46804 0)
(-0.000449416 -5.46531 0)
(-0.000385216 -5.45737 0)
(-0.000302535 -5.44204 0)
(-0.000193076 -5.41423 0)
(-7.96801e-05 -5.36408 0)
(-1.4852e-05 -5.27317 0)
(0.000140399 -5.10942 0)
(0.000133985 -4.82255 0)
(0.000396798 -4.33554 0)
(-0.000765729 -3.25906 0)
(0.00114383 -3.28403 0)
(-0.000640601 -4.36107 0)
(-0.000810288 -4.85179 0)
(-0.00105621 -5.13994 0)
(-0.00107453 -5.30074 0)
(-0.00105011 -5.3875 0)
(-0.000951017 -5.43295 0)
(-0.00087998 -5.45563 0)
(-0.000810069 -5.46565 0)
(-0.000737715 -5.4682 0)
(-0.000654039 -5.46549 0)
(-0.000561183 -5.45756 0)
(-0.000446311 -5.44224 0)
(-0.00032469 -5.41441 0)
(-0.000184764 -5.36422 0)
(-7.0196e-05 -5.27324 0)
(9.69673e-05 -5.10949 0)
(0.000158189 -4.82261 0)
(0.000337495 -4.33487 0)
(-0.000460435 -3.25917 0)
(0.000696539 -3.28438 0)
(-0.00111691 -4.36132 0)
(-0.000854488 -4.85211 0)
(-0.0010472 -5.14047 0)
(-0.00107294 -5.30156 0)
(-0.00107067 -5.38811 0)
(-0.000998839 -5.43335 0)
(-0.000930381 -5.45595 0)
(-0.000853612 -5.46594 0)
(-0.000773431 -5.46848 0)
(-0.000687357 -5.46575 0)
(-0.000586195 -5.45782 0)
(-0.000473573 -5.44254 0)
(-0.000372979 -5.41474 0)
(-0.000259518 -5.36451 0)
(-0.000148541 -5.27354 0)
(-5.96068e-05 -5.10984 0)
(1.79424e-05 -4.82304 0)
(0.000245435 -4.33548 0)
(-0.000489558 -3.25905 0)
(-1.53652e-05 -3.28363 0)
(-0.00108325 -4.3612 0)
(-0.000611907 -4.85233 0)
(-0.000635934 -5.1406 0)
(-0.000641915 -5.30184 0)
(-0.000679022 -5.38843 0)
(-0.000706824 -5.43361 0)
(-0.00071725 -5.45613 0)
(-0.000706274 -5.46609 0)
(-0.000672914 -5.46864 0)
(-0.000623529 -5.46594 0)
(-0.000564587 -5.45801 0)
(-0.000491643 -5.44269 0)
(-0.00044167 -5.41484 0)
(-0.000388182 -5.36465 0)
(-0.000342356 -5.27396 0)
(-0.000310249 -5.11044 0)
(-0.000246193 -4.82339 0)
(0.000132372 -4.33565 0)
(-0.000364363 -3.25921 0)
(-0.00034332 -3.2806 0)
(-0.000938443 -4.36061 0)
(-0.000293155 -4.85232 0)
(-8.1275e-05 -5.14075 0)
(2.10477e-06 -5.30176 0)
(-7.83688e-05 -5.38816 0)
(-0.000209865 -5.43334 0)
(-0.000337717 -5.45594 0)
(-0.000432225 -5.46595 0)
(-0.000484272 -5.46853 0)
(-0.000511952 -5.46585 0)
(-0.000521366 -5.45791 0)
(-0.000529136 -5.44255 0)
(-0.000538153 -5.41464 0)
(-0.000576812 -5.36438 0)
(-0.000601249 -5.27371 0)
(-0.000602323 -5.11016 0)
(-0.000467131 -4.82292 0)
(-0.000131753 -4.33538 0)
(-0.000171033 -3.25796 0)
(-0.000312444 -3.27757 0)
(-0.00054025 -4.35909 0)
(-0.000213141 -4.85124 0)
(7.61491e-05 -5.13986 0)
(0.000190118 -5.30088 0)
(0.000113234 -5.3874 0)
(-2.56752e-05 -5.43268 0)
(-0.000160469 -5.45543 0)
(-0.000279577 -5.46557 0)
(-0.000360717 -5.46824 0)
(-0.000408062 -5.46561 0)
(-0.000436323 -5.45769 0)
(-0.000448098 -5.4423 0)
(-0.000458949 -5.4143 0)
(-0.000503388 -5.36391 0)
(-0.000551111 -5.27291 0)
(-0.000584413 -5.10912 0)
(-0.000511299 -4.82175 0)
(-0.000519882 -4.33452 0)
(-6.92344e-05 -3.25721 0)
(0.000288892 -3.27641 0)
(0.000351217 -4.35994 0)
(-0.000348865 -4.85149 0)
(-0.00045544 -5.13973 0)
(-0.000446941 -5.30053 0)
(-0.000408399 -5.38704 0)
(-0.000390005 -5.43235 0)
(-0.000402384 -5.45514 0)
(-0.000431974 -5.46536 0)
(-0.000460978 -5.46809 0)
(-0.000468024 -5.46555 0)
(-0.000445352 -5.45772 0)
(-0.000382172 -5.44243 0)
(-0.000289876 -5.41455 0)
(-0.000194686 -5.36423 0)
(-0.000137581 -5.2733 0)
(-0.000178581 -5.10956 0)
(-0.000347127 -4.82223 0)
(-0.00116197 -4.3359 0)
(-0.000312797 -3.25956 0)
(0.00031157 -3.27812 0)
(0.00071566 -4.3607 0)
(-4.74453e-05 -4.85163 0)
(-0.000331073 -5.13972 0)
(-0.000639517 -5.30061 0)
(-0.00064924 -5.38718 0)
(-0.000675806 -5.43249 0)
(-0.000688024 -5.45521 0)
(-0.000724401 -5.46538 0)
(-0.000776567 -5.46811 0)
(-0.000827872 -5.46562 0)
(-0.000862579 -5.4579 0)
(-0.000871463 -5.44277 0)
(-0.000843813 -5.41511 0)
(-0.000781133 -5.36501 0)
(-0.000742357 -5.27414 0)
(-0.000754817 -5.11057 0)
(-0.000955696 -4.82394 0)
(-0.00108143 -4.33826 0)
(-0.000457512 -3.26282 0)
(-0.000459505 -3.27914 0)
(0.00082307 -4.36154 0)
(0.000196514 -4.85113 0)
(-0.000115075 -5.1394 0)
(-0.00051311 -5.30062 0)
(-0.000668888 -5.38729 0)
(-0.000797874 -5.43254 0)
(-0.00090419 -5.45517 0)
(-0.00103162 -5.46527 0)
(-0.00117543 -5.46796 0)
(-0.00133591 -5.46543 0)
(-0.00150725 -5.45769 0)
(-0.00169558 -5.44258 0)
(-0.0018853 -5.41498 0)
(-0.0020185 -5.36493 0)
(-0.00209181 -5.27398 0)
(-0.00203611 -5.11004 0)
(-0.00176863 -4.82321 0)
(-0.000741644 -4.33725 0)
(0.00031344 -3.26524 0)
(-0.000719171 -3.28031 0)
(0.000549883 -4.36188 0)
(0.000621836 -4.85102 0)
(0.000260603 -5.13874 0)
(-8.31996e-05 -5.30026 0)
(-0.000401009 -5.38706 0)
(-0.00064674 -5.43223 0)
(-0.000890073 -5.45478 0)
(-0.00112992 -5.46482 0)
(-0.00136998 -5.46745 0)
(-0.00161481 -5.46485 0)
(-0.00188367 -5.45701 0)
(-0.00217202 -5.44179 0)
(-0.00244378 -5.41408 0)
(-0.0026654 -5.36401 0)
(-0.00273076 -5.27325 0)
(-0.00252324 -5.10952 0)
(-0.00173539 -4.82228 0)
(-0.000643831 -4.3359 0)
(0.000229188 -3.26465 0)
(-0.000885508 -3.28026 0)
(0.00034123 -4.36072 0)
(0.000728133 -4.84979 0)
(0.000709381 -5.13738 0)
(0.00036286 -5.29906 0)
(-3.3325e-05 -5.38605 0)
(-0.000395193 -5.43132 0)
(-0.000741576 -5.45394 0)
(-0.00105644 -5.46403 0)
(-0.00134909 -5.4667 0)
(-0.00162849 -5.46408 0)
(-0.00189389 -5.45623 0)
(-0.00214319 -5.44101 0)
(-0.00233633 -5.41333 0)
(-0.00246683 -5.36337 0)
(-0.00241228 -5.27282 0)
(-0.00203847 -5.10966 0)
(-0.00117348 -4.82334 0)
(-0.000666712 -4.33799 0)
(-0.00103312 -3.26346 0)
(-0.000334093 -3.27921 0)
(0.000356021 -4.36073 0)
(0.000420841 -4.84898 0)
(0.000442692 -5.13602 0)
(0.000215906 -5.29772 0)
(-0.000147707 -5.38478 0)
(-0.000499996 -5.4302 0)
(-0.000839871 -5.45298 0)
(-0.00115545 -5.4632 0)
(-0.00143839 -5.46597 0)
(-0.00168639 -5.46346 0)
(-0.00188284 -5.45571 0)
(-0.00201945 -5.44062 0)
(-0.00208233 -5.41314 0)
(-0.00206013 -5.36348 0)
(-0.00191152 -5.27336 0)
(-0.0016042 -5.11087 0)
(-0.0011542 -4.82558 0)
(-0.000962763 -4.34124 0)
(-0.00134671 -3.26407 0)
(0.000542295 -3.27935 0)
(0.000325962 -4.36175 0)
(0.000389056 -4.84941 0)
(0.000134776 -5.13553 0)
(-0.000216783 -5.2968 0)
(-0.000578135 -5.38386 0)
(-0.000912325 -5.42938 0)
(-0.00121251 -5.45228 0)
(-0.00148716 -5.4626 0)
(-0.00173181 -5.46548 0)
(-0.00193671 -5.46308 0)
(-0.00208296 -5.45546 0)
(-0.0021651 -5.44054 0)
(-0.00218149 -5.41326 0)
(-0.00210063 -5.36387 0)
(-0.00195213 -5.27421 0)
(-0.0016811 -5.11234 0)
(-0.00141282 -4.82738 0)
(-0.000938792 -4.34262 0)
(-0.000944181 -3.2658 0)
(0.000581957 -3.28087 0)
(0.000434029 -4.36307 0)
(0.000493883 -4.85025 0)
(5.4364e-05 -5.13588 0)
(-0.000525989 -5.29669 0)
(-0.000963602 -5.38352 0)
(-0.00131164 -5.42898 0)
(-0.00158539 -5.45187 0)
(-0.00183174 -5.46221 0)
(-0.00206049 -5.46512 0)
(-0.00226506 -5.46281 0)
(-0.0024342 -5.45528 0)
(-0.00253587 -5.44046 0)
(-0.00258782 -5.41341 0)
(-0.00254425 -5.36432 0)
(-0.00241029 -5.27487 0)
(-0.00213835 -5.11317 0)
(-0.00169903 -4.82884 0)
(-0.00100899 -4.3442 0)
(-0.000675024 -3.26847 0)
(0.000145743 -3.28108 0)
(-5.22589e-06 -4.36311 0)
(0.000675216 -4.85062 0)
(0.000441571 -5.13554 0)
(-9.10228e-05 -5.29583 0)
(-0.000665857 -5.38267 0)
(-0.00116467 -5.4283 0)
(-0.00157089 -5.45124 0)
(-0.00193228 -5.46159 0)
(-0.0022615 -5.46452 0)
(-0.00257331 -5.46225 0)
(-0.00285966 -5.45481 0)
(-0.00310552 -5.44011 0)
(-0.00330673 -5.41323 0)
(-0.00341567 -5.36438 0)
(-0.0033399 -5.27545 0)
(-0.00302601 -5.11438 0)
(-0.00237159 -4.83024 0)
(-0.00112285 -4.34551 0)
(-0.000126844 -3.26996 0)
(-2.01767e-05 -3.27993 0)
(-5.01147e-05 -4.36177 0)
(0.000843233 -4.84916 0)
(0.000838872 -5.13346 0)
(0.00044132 -5.2936 0)
(-0.000205212 -5.3807 0)
(-0.000844254 -5.4266 0)
(-0.00142174 -5.44984 0)
(-0.00194344 -5.46036 0)
(-0.00241172 -5.46339 0)
(-0.00284951 -5.46118 0)
(-0.00326764 -5.45377 0)
(-0.00366161 -5.43912 0)
(-0.00401052 -5.41229 0)
(-0.00422946 -5.36357 0)
(-0.00423091 -5.27497 0)
(-0.00371438 -5.11454 0)
(-0.00279603 -4.83086 0)
(-0.000912411 -4.34566 0)
(2.80045e-05 -3.26991 0)
(0.000605643 -3.27978 0)
(0.000789414 -4.3624 0)
(0.00116506 -4.84923 0)
(0.000955629 -5.13263 0)
(0.000395379 -5.292 0)
(-0.000307122 -5.3789 0)
(-0.000980466 -5.42496 0)
(-0.00158817 -5.4484 0)
(-0.00212107 -5.45908 0)
(-0.00259619 -5.4622 0)
(-0.00302905 -5.46002 0)
(-0.0034363 -5.45262 0)
(-0.00381949 -5.43799 0)
(-0.00413915 -5.41122 0)
(-0.0043148 -5.36272 0)
(-0.00429662 -5.27455 0)
(-0.00374983 -5.11496 0)
(-0.00275245 -4.83237 0)
(-0.0012211 -4.34734 0)
(-0.000836726 -3.26908 0)
(0.00161141 -3.28245 0)
(0.00113219 -4.36478 0)
(0.00147975 -4.85085 0)
(0.00115161 -5.13338 0)
(0.000461944 -5.29187 0)
(-0.000279243 -5.37827 0)
(-0.000989518 -5.4241 0)
(-0.00159894 -5.44747 0)
(-0.00213215 -5.4582 0)
(-0.00259322 -5.46141 0)
(-0.00299171 -5.45929 0)
(-0.00333745 -5.45196 0)
(-0.0036342 -5.43744 0)
(-0.00385907 -5.41086 0)
(-0.00398993 -5.36269 0)
(-0.00393734 -5.27511 0)
(-0.00362266 -5.11645 0)
(-0.00280375 -4.83516 0)
(-0.0016372 -4.35135 0)
(-0.00165155 -3.27031 0)
(0.00183365 -3.28479 0)
(0.000826228 -4.36513 0)
(0.00202401 -4.85079 0)
(0.00210801 -5.13271 0)
(0.00154571 -5.29069 0)
(0.00070238 -5.37689 0)
(-0.000183419 -5.4227 0)
(-0.00102554 -5.44617 0)
(-0.00175453 -5.45707 0)
(-0.00237497 -5.46045 0)
(-0.00289327 -5.45852 0)
(-0.0033143 -5.4514 0)
(-0.00363582 -5.43712 0)
(-0.00386005 -5.41087 0)
(-0.0039908 -5.36321 0)
(-0.00392732 -5.27642 0)
(-0.00373999 -5.11871 0)
(-0.00310916 -4.8382 0)
(-0.00188527 -4.35559 0)
(-0.00149911 -3.27463 0)
(0.00169623 -3.28359 0)
(0.000968693 -4.36472 0)
(0.00233045 -4.84964 0)
(0.00286181 -5.13081 0)
(0.00241685 -5.28835 0)
(0.0015235 -5.37429 0)
(0.000474577 -5.42027 0)
(-0.00057751 -5.44403 0)
(-0.00151945 -5.45522 0)
(-0.00234832 -5.4589 0)
(-0.0030643 -5.45726 0)
(-0.00367473 -5.45039 0)
(-0.00419179 -5.43639 0)
(-0.00460403 -5.41049 0)
(-0.00492633 -5.36318 0)
(-0.00501247 -5.27691 0)
(-0.00484927 -5.12013 0)
(-0.00405025 -4.84077 0)
(-0.00207062 -4.35899 0)
(-0.000407587 -3.27793 0)
(0.0022633 -3.28468 0)
(0.00160818 -4.36803 0)
(0.00243671 -4.85083 0)
(0.00280819 -5.13049 0)
(0.00239772 -5.28683 0)
(0.00151191 -5.37214 0)
(0.000446293 -5.41795 0)
(-0.000615355 -5.44178 0)
(-0.00161699 -5.45315 0)
(-0.0025445 -5.45703 0)
(-0.00339505 -5.45557 0)
(-0.00417582 -5.44887 0)
(-0.00490308 -5.43498 0)
(-0.005549 -5.40917 0)
(-0.00606403 -5.3621 0)
(-0.00625414 -5.27627 0)
(-0.00590652 -5.12022 0)
(-0.00473139 -4.84173 0)
(-0.00232637 -4.36076 0)
(0.000291967 -3.28045 0)
(0.00209221 -3.28762 0)
(0.00187397 -4.37224 0)
(0.00315113 -4.85326 0)
(0.00346379 -5.13089 0)
(0.00298536 -5.28587 0)
(0.00196669 -5.37045 0)
(0.000800788 -5.41592 0)
(-0.000365498 -5.43966 0)
(-0.00146144 -5.45108 0)
(-0.00249032 -5.45504 0)
(-0.00344632 -5.45365 0)
(-0.00434725 -5.44701 0)
(-0.00519336 -5.43317 0)
(-0.00595083 -5.4075 0)
(-0.00651867 -5.36073 0)
(-0.00674781 -5.27551 0)
(-0.00636241 -5.12077 0)
(-0.0049548 -4.84387 0)
(-0.00302338 -4.36417 0)
(-0.000434314 -3.28187 0)
(0.00136453 -3.28919 0)
(0.00217641 -4.37511 0)
(0.00413039 -4.85471 0)
(0.00453959 -5.13048 0)
(0.0039823 -5.28426 0)
(0.00285149 -5.36813 0)
(0.00155024 -5.41343 0)
(0.000239588 -5.43724 0)
(-0.000993499 -5.44878 0)
(-0.00214572 -5.45289 0)
(-0.00321287 -5.45163 0)
(-0.00419547 -5.44512 0)
(-0.00509939 -5.43148 0)
(-0.00587424 -5.40613 0)
(-0.00642869 -5.35989 0)
(-0.00667152 -5.27558 0)
(-0.00639493 -5.12204 0)
(-0.00502835 -4.84694 0)
(-0.00356309 -4.36967 0)
(-0.00148349 -3.2853 0)
(0.00132369 -3.29266 0)
(0.00304127 -4.37889 0)
(0.00485169 -4.8568 0)
(0.00538246 -5.13047 0)
(0.00483781 -5.2825 0)
(0.00367053 -5.36563 0)