# vtk DataFile Version 2.0
track0
ASCII
DATASET POLYDATA
POINTS 12150 float
-0.0205 0.001 1e-05
-0.0204878 0.0011 1e-05
-0.0204754 0.00119999 1e-05
-0.0204629 0.00129996 1e-05
-0.0204503 0.00139991 1e-05
-0.0204376 0.0015 1e-05
-0.0204248 0.0016 1e-05
-0.0204118 0.00169998 1e-05
-0.0203987 0.00179994 1e-05
-0.0203854 0.00189988 1e-05
-0.0203719 0.002 1e-05
-0.0203583 0.0021 1e-05
-0.0203445 0.00219997 1e-05
-0.0203305 0.00229992 1e-05
-0.0203163 0.00239985 1e-05
-0.0203019 0.0025 1e-05
-0.0202986 0.00252268 1e-05
-0.0202953 0.00254535 1e-05
-0.020292 0.00256802 1e-05
-0.0202886 0.00259069 1e-05
-0.0202854 0.00261263 1e-05
-0.0202739 0.0026901 1e-05
-0.0202623 0.00276756 1e-05
-0.0202506 0.00284499 1e-05
-0.0202387 0.00292241 1e-05
-0.0202267 0.003 1e-05
-0.0202111 0.0031 1e-05
-0.0201952 0.00319996 1e-05
-0.020179 0.00329989 1e-05
-0.0201627 0.00339978 1e-05
-0.020146 0.0035 1e-05
-0.0201292 0.0036 1e-05
-0.0201121 0.00369996 1e-05
-0.0200947 0.00379987 1e-05
-0.0200771 0.00389974 1e-05
-0.0200591 0.004 1e-05
-0.0200518 0.00404052 1e-05
-0.0200444 0.00408103 1e-05
-0.0200369 0.00412153 1e-05
-0.0200294 0.00416203 1e-05
-0.0200223 0.00420016 1e-05
-0.0200111 0.00426013 1e-05
-0.0199998 0.00432008 1e-05
-0.0199884 0.00438001 1e-05
-0.0199768 0.00443992 1e-05
-0.0199652 0.0045 1e-05
-0.0199456 0.0046 1e-05
-0.0199258 0.00469994 1e-05
-0.0199057 0.00479983 1e-05
-0.0198853 0.00489967 1e-05
-0.0198645 0.005 1e-05
-0.0198439 0.00509819 1e-05
-0.019823 0.00519631 1e-05
-0.0198018 0.00529438 1e-05
-0.0197803 0.00539238 1e-05
-0.0197614 0.00547772 1e-05
-0.0197604 0.00548218 1e-05
-0.0197594 0.00548663 1e-05
-0.0197584 0.00549109 1e-05
-0.0197574 0.00549554 1e-05
-0.0197564 0.0055 1e-05
-0.0197338 0.0056 1e-05
-0.019711 0.00569993 1e-05
-0.0196878 0.0057998 1e-05
-0.0196644 0.00589959 1e-05
-0.0196405 0.006 1e-05
-0.0196164 0.0061 1e-05
-0.019592 0.00619993 1e-05
-0.0195672 0.00629978 1e-05
-0.0195422 0.00639955 1e-05
-0.0195167 0.0065 1e-05
-0.0195138 0.006511 1e-05
-0.019511 0.00652199 1e-05
-0.0195082 0.00653299 1e-05
-0.0195053 0.00654399 1e-05
-0.0195025 0.00655483 1e-05
-0.0194794 0.00664387 1e-05
-0.0194561 0.00673283 1e-05
-0.0194325 0.00682174 1e-05
-0.0194087 0.00691057 1e-05
-0.0193844 0.007 1e-05
-0.019357 0.0071 1e-05
-0.0193292 0.00719991 1e-05
-0.0193011 0.00729973 1e-05
-0.0192727 0.00739946 1e-05
-0.0192457 0.0074931 1e-05
-0.0192453 0.00749448 1e-05
-0.0192449 0.00749586 1e-05
-0.0192445 0.00749724 1e-05
-0.0192441 0.00749862 1e-05
-0.0192437 0.0075 1e-05
-0.0192146 0.0076 1e-05
-0.0191851 0.0076999 1e-05
-0.0191552 0.00779971 1e-05
-0.0191251 0.00789942 1e-05
-0.0190943 0.008 1e-05
-0.0190737 0.00806673 1e-05
-0.0190529 0.00813341 1e-05
-0.0190319 0.00820005 1e-05
-0.0190108 0.00826664 1e-05
-0.018991 0.00832856 1e-05
-0.01898 0.00836285 1e-05
-0.018969 0.00839712 1e-05
-0.0189578 0.00843139 1e-05
-0.0189467 0.00846564 1e-05
-0.0189355 0.0085 1e-05
-0.0189027 0.0086 1e-05
-0.0188696 0.00869989 1e-05
-0.0188361 0.00879966 1e-05
-0.0188023 0.00889933 1e-05
-0.0187678 0.009 1e-05
-0.0187619 0.00901694 1e-05
-0.018756 0.00903388 1e-05
-0.0187501 0.00905081 1e-05
-0.0187442 0.00906774 1e-05
-0.0187384 0.00908439 1e-05
-0.0187093 0.00916751 1e-05
-0.01868 0.00925055 1e-05
-0.0186504 0.0093335 1e-05
-0.0186206 0.00941637 1e-05
-0.0185902 0.0095 1e-05
-0.0185697 0.00955596 1e-05
-0.0185491 0.00961187 1e-05
-0.0185284 0.00966775 1e-05
-0.0185076 0.00972358 1e-05
-0.0184878 0.00977646 1e-05
-0.0184709 0.00982117 1e-05
-0.018454 0.00986585 1e-05
-0.018437 0.0099105 1e-05
-0.0184199 0.00995513 1e-05
-0.0184027 0.01 1e-05
-0.01837 0.0100846 1e-05
-0.018337 0.0101692 1e-05
-0.0183038 0.0102536 1e-05
-0.0182703 0.010338 1e-05
-0.0182392 0.0104159 1e-05
-0.0182324 0.0104327 1e-05
-0.0182256 0.0104495 1e-05
-0.0182188 0.0104663 1e-05
-0.018212 0.0104832 1e-05
-0.0182051 0.0105 1e-05
-0.0181645 0.0106 1e-05
-0.0181234 0.0106999 1e-05
-0.018082 0.0107996 1e-05
-0.0180402 0.0108991 1e-05
-0.0179975 0.011 1e-05
-0.0179965 0.0110023 1e-05
-0.0179955 0.0110046 1e-05
-0.0179945 0.0110068 1e-05
-0.0179936 0.0110091 1e-05
-0.0179926 0.0110114 1e-05
-0.0179507 0.0111091 1e-05
-0.0179085 0.0112067 1e-05
-0.0178659 0.0113041 1e-05
-0.0178229 0.0114014 1e-05
-0.017779 0.0115 1e-05
-0.0177728 0.0115138 1e-05
-0.0177666 0.0115275 1e-05
-0.0177604 0.0115413 1e-05
-0.0177541 0.0115551 1e-05
-0.017748 0.0115687 1e-05
-0.0177089 0.0116549 1e-05
-0.0176695 0.0117411 1e-05
-0.0176299 0.0118271 1e-05
-0.0175899 0.011913 1e-05
-0.0175491 0.012 1e-05
-0.0175404 0.0120185 1e-05
-0.0175316 0.012037 1e-05
-0.0175228 0.0120555 1e-05
-0.017514 0.012074 1e-05
-0.0175053 0.0120923 1e-05
-0.0174664 0.0121738 1e-05
-0.0174273 0.0122552 1e-05
-0.0173879 0.0123365 1e-05
-0.0173482 0.0124177 1e-05
-0.0173077 0.0125 1e-05
-0.0172991 0.0125173 1e-05
-0.0172905 0.0125347 1e-05
-0.0172818 0.012552 1e-05
-0.0172732 0.0125693 1e-05
-0.0172647 0.0125864 1e-05
-0.0172233 0.0126691 1e-05
-0.0171816 0.0127517 1e-05
-0.0171397 0.0128342 1e-05
-0.0170975 0.0129165 1e-05
-0.0170543 0.013 1e-05
-0.0170487 0.0130109 1e-05
-0.017043 0.0130218 1e-05
-0.0170373 0.0130328 1e-05
-0.0170316 0.0130437 1e-05
-0.0170259 0.0130545 1e-05
-0.0169793 0.0131436 1e-05
-0.0169323 0.0132325 1e-05
-0.0168851 0.0133213 1e-05
-0.0168375 0.0134099 1e-05
-0.0167891 0.0134994 1e-05
-0.016789 0.0134995 1e-05
-0.016789 0.0134996 1e-05
-0.0167889 0.0134998 1e-05
-0.0167888 0.0134999 1e-05
-0.0167888 0.0135 1e-05
-0.0167418 0.0135859 1e-05
-0.0166946 0.0136717 1e-05
-0.0166471 0.0137574 1e-05
-0.0165993 0.0138428 1e-05
-0.0165542 0.0139229 1e-05
-0.0165454 0.0139383 1e-05
-0.0165367 0.0139538 1e-05
-0.0165279 0.0139692 1e-05
-0.0165191 0.0139846 1e-05
-0.0165103 0.014 1e-05
-0.0164725 0.0140661 1e-05
-0.0164345 0.0141322 1e-05
-0.0163963 0.0141981 1e-05
-0.0163579 0.0142639 1e-05
-0.0163212 0.0143266 1e-05
-0.0163007 0.0143613 1e-05
-0.0162802 0.014396 1e-05
-0.0162597 0.0144306 1e-05
-0.0162391 0.0144652 1e-05
-0.0162183 0.0145 1e-05
-0.0161926 0.0145428 1e-05
-0.0161669 0.0145856 1e-05
-0.0161411 0.0146283 1e-05
-0.0161152 0.014671 1e-05
-0.01609 0.0147124 1e-05
-0.0160549 0.0147699 1e-05
-0.0160196 0.0148274 1e-05
-0.0159842 0.0148847 1e-05
-0.0159486 0.014942 1e-05
-0.0159124 0.015 1e-05
-0.0159021 0.0150165 1e-05
-0.0158917 0.015033 1e-05
-0.0158814 0.0150494 1e-05
-0.015871 0.0150659 1e-05
-0.0158607 0.0150821 1e-05
-0.0158153 0.0151541 1e-05
-0.0157696 0.0152259 1e-05
-0.0157236 0.0152976 1e-05
-0.0156775 0.0153692 1e-05
-0.0156333 0.0154373 1e-05
-0.0156251 0.0154499 1e-05
-0.0156169 0.0154624 1e-05
-0.0156087 0.0154749 1e-05
-0.0156005 0.0154874 1e-05
-0.0155923 0.0155 1e-05
-0.0155554 0.0155562 1e-05
-0.0155183 0.0156124 1e-05
-0.0154811 0.0156684 1e-05
-0.0154438 0.0157244 1e-05
-0.0154077 0.0157783 1e-05
-0.0153778 0.0158226 1e-05
-0.0153479 0.0158669 1e-05
-0.0153179 0.0159111 1e-05
-0.0152878 0.0159553 1e-05
-0.0152572 0.016 1e-05
-0.0152425 0.0160213 1e-05
-0.0152279 0.0160426 1e-05
-0.0152132 0.0160639 1e-05
-0.0151985 0.0160852 1e-05
-0.0151839 0.0161062 1e-05
-0.0151395 0.0161702 1e-05
-0.015095 0.0162341 1e-05
-0.0150502 0.0162978 1e-05
-0.0150053 0.0163615 1e-05
-0.0149619 0.0164225 1e-05
-0.0149509 0.016438 1e-05
-0.0149398 0.0164535 1e-05
-0.0149287 0.016469 1e-05
-0.0149176 0.0164845 1e-05
-0.0149065 0.0165 1e-05
-0.0148735 0.0165458 1e-05
-0.0148405 0.0165916 1e-05
-0.0148074 0.0166373 1e-05
-0.0147742 0.016683 1e-05
-0.0147417 0.0167273 1e-05
-0.0147017 0.0167819 1e-05
-0.0146616 0.0168363 1e-05
-0.0146213 0.0168906 1e-05
-0.0145809 0.0169449 1e-05
-0.0145397 0.017 1e-05
-0.0145364 0.0170044 1e-05
-0.0145332 0.0170087 1e-05
-0.0145299 0.0170131 1e-05
-0.0145266 0.0170174 1e-05
-0.0145233 0.0170218 1e-05
-0.01448 0.0170793 1e-05
-0.0144365 0.0171367 1e-05
-0.0143929 0.017194 1e-05
-0.0143491 0.0172512 1e-05
-0.0143067 0.0173065 1e-05
-0.0142768 0.0173452 1e-05
-0.0142468 0.0173838 1e-05
-0.0142167 0.0174224 1e-05
-0.0141866 0.017461 1e-05
-0.0141561 0.0175 1e-05
-0.0141432 0.0175164 1e-05
-0.0141303 0.0175327 1e-05
-0.0141174 0.0175491 1e-05
-0.0141045 0.0175654 1e-05
-0.0140917 0.0175816 1e-05
-0.0140491 0.0176354 1e-05
-0.0140063 0.0176891 1e-05
-0.0139635 0.0177428 1e-05
-0.0139204 0.0177963 1e-05
-0.0138786 0.0178482 1e-05
-0.0138539 0.0178786 1e-05
-0.0138293 0.0179089 1e-05
-0.0138046 0.0179392 1e-05
-0.0137798 0.0179694 1e-05
-0.0137548 0.018 1e-05
-0.0137372 0.0180213 1e-05
-0.0137197 0.0180426 1e-05
-0.0137021 0.0180639 1e-05
-0.0136845 0.0180852 1e-05
-0.0136671 0.0181063 1e-05
-0.0136251 0.0181568 1e-05
-0.0135831 0.0182073 1e-05
-0.0135409 0.0182576 1e-05
-0.0134986 0.0183079 1e-05
-0.0134573 0.0183568 1e-05
-0.013433 0.0183854 1e-05
-0.0134087 0.018414 1e-05
-0.0133843 0.0184426 1e-05
-0.0133599 0.0184712 1e-05
-0.0133352 0.0185 1e-05
-0.013318 0.01852 1e-05
-0.0133008 0.01854 1e-05
-0.0132836 0.0185599 1e-05
-0.0132663 0.0185799 1e-05
-0.0132493 0.0185996 1e-05
-0.013208 0.0186472 1e-05
-0.0131666 0.0186947 1e-05
-0.0131251 0.0187422 1e-05
-0.0130835 0.0187895 1e-05
-0.0130429 0.0188357 1e-05
-0.0130138 0.0188685 1e-05
-0.0129846 0.0189014 1e-05
-0.0129554 0.0189341 1e-05
-0.0129262 0.0189669 1e-05
-0.0128965 0.019 1e-05
-0.0128848 0.019013 1e-05
-0.0128732 0.019026 1e-05
-0.0128615 0.019039 1e-05
-0.0128498 0.019052 1e-05
-0.0128381 0.0190649 1e-05
-0.0127975 0.0191098 1e-05
-0.0127568 0.0191547 1e-05
-0.012716 0.0191995 1e-05
-0.0126751 0.0192442 1e-05
-0.012635 0.0192879 1e-05
-0.0125959 0.0193303 1e-05
-0.0125568 0.0193726 1e-05
-0.0125175 0.0194149 1e-05
-0.0124782 0.0194571 1e-05
-0.0124381 0.0195 1e-05
-0.0124372 0.019501 1e-05
-0.0124363 0.0195019 1e-05
-0.0124354 0.0195029 1e-05
-0.0124345 0.0195038 1e-05
-0.0124336 0.0195048 1e-05
-0.0123936 0.0195473 1e-05
-0.0123536 0.0195898 1e-05
-0.0123134 0.0196322 1e-05
-0.0122732 0.0196745 1e-05
-0.0122338 0.0197159 1e-05
-0.0121941 0.0197574 1e-05
-0.0121544 0.0197987 1e-05
-0.0121146 0.01984 1e-05
-0.0120747 0.0198812 1e-05
-0.0120355 0.0199216 1e-05
-0.0120203 0.0199373 1e-05
[...]
POINT_DATA 12150
 FIELD attributes 2
p 1 12150 float
-0.0112482 -0.0123866 -0.0135221 -0.0146568 -0.0157913 -0.0169271 -0.0180547 -0.0191821 -0.0203087 -0.0214326 -0.0225584 -0.0236799 -0.0248012 -0.0259222 -0.0270431 -0.0281653 -0.0284188 -0.0286722 -0.0289256 -0.029179 -0.0294241 -0.0302909 -0.0311576 -0.0320241 -0.0328905 -0.0337588 -0.0348755 -0.0359908 -0.0371043 -0.0382176 -0.0393347 -0.0404474 -0.0415598 -0.042672 -0.0437836 -0.0448976 -0.0453472 -0.0457968 -0.0462463 -0.0466957 -0.0471189 -0.0477853 -0.0484515 -0.0491175 -0.0497834 -0.0504511 -0.0515613 -0.0526705 -0.0537779 -0.0548848 -0.0559975 -0.0570857 -0.0581733 -0.0592605 -0.0603473 -0.0612937 -0.0613432 -0.0613927 -0.0614422 -0.0614917 -0.0615411 -0.0626493 -0.0637567 -0.0648637 -0.0659702 -0.0670839 -0.0681929 -0.0693014 -0.0704094 -0.0715168 -0.0726312 -0.0727532 -0.0728751 -0.0729971 -0.0731191 -0.0732395 -0.0742281 -0.0752162 -0.0762038 -0.077191 -0.0781849 -0.0792975 -0.0804093 -0.0815205 -0.082631 -0.0836739 -0.0836893 -0.0837047 -0.0837201 -0.0837355 -0.0837509 -0.084866 -0.0859804 -0.0870941 -0.0882072 -0.0893305 -0.090077 -0.0908233 -0.0915692 -0.0923148 -0.0930082 -0.0933927 -0.093777 -0.0941612 -0.0945453 -0.0949307 -0.0960547 -0.0971779 -0.0983003 -0.0994211 -0.100554 -0.100745 -0.100936 -0.101127 -0.101318 -0.101506 -0.102445 -0.103383 -0.104321 -0.105258 -0.106204 -0.106839 -0.107474 -0.108108 -0.108742 -0.109343 -0.109852 -0.11036 -0.110868 -0.111376 -0.111886 -0.112854 -0.11382 -0.114786 -0.115751 -0.116642 -0.116834 -0.117027 -0.11722 -0.117412 -0.117605 -0.118756 -0.119906 -0.121054 -0.122201 -0.123364 -0.123391 -0.123417 -0.123443 -0.12347 -0.123496 -0.124629 -0.125761 -0.126892 -0.128021 -0.129167 -0.129328 -0.129489 -0.129649 -0.12981 -0.129969 -0.130978 -0.131986 -0.132992 -0.133998 -0.135018 -0.135236 -0.135455 -0.135673 -0.135891 -0.136106 -0.137069 -0.13803 -0.13899 -0.139949 -0.140922 -0.141128 -0.141335 -0.141541 -0.141747 -0.141951 -0.142936 -0.14392 -0.144903 -0.145885 -0.146882 -0.147013 -0.147144 -0.147275 -0.147406 -0.147537 -0.148609 -0.149679 -0.150748 -0.151815 -0.152893 -0.152894 -0.152896 -0.152897 -0.152899 -0.1529 -0.153944 -0.154986 -0.156027 -0.157067 -0.158042 -0.158229 -0.158417 -0.158604 -0.158791 -0.158979 -0.159791 -0.160602 -0.161412 -0.162221 -0.162992 -0.163417 -0.163843 -0.164269 -0.164694 -0.165123 -0.165654 -0.166185 -0.166715 -0.167245 -0.16776 -0.168474 -0.169187 -0.169899 -0.17061 -0.171331 -0.171538 -0.171745 -0.171952 -0.172159 -0.172363 -0.173265 -0.174166 -0.175066 -0.175964 -0.176819 -0.176976 -0.177134 -0.177291 -0.177448 -0.177605 -0.178317 -0.179029 -0.179739 -0.180449 -0.181132 -0.181693 -0.182254 -0.182814 -0.183374 -0.183941 -0.184214 -0.184487 -0.18476 -0.185033 -0.185302 -0.186121 -0.186938 -0.187754 -0.188567 -0.189349 -0.189546 -0.189744 -0.189941 -0.190139 -0.190337 -0.190929 -0.19152 -0.192111 -0.1927 -0.193274 -0.193976 -0.194678 -0.195378 -0.196078 -0.196788 -0.196845 -0.196902 -0.196959 -0.197016 -0.197072 -0.19782 -0.198566 -0.199311 -0.200055 -0.200774 -0.201275 -0.201776 -0.202276 -0.202775 -0.203281 -0.203495 -0.20371 -0.203925 -0.204139 -0.204352 -0.205055 -0.205757 -0.206457 -0.207157 -0.207835 -0.208229 -0.208623 -0.209016 -0.20941 -0.209807 -0.210088 -0.210368 -0.210649 -0.21093 -0.211207 -0.211868 -0.212529 -0.213188 -0.213846 -0.214486 -0.214858 -0.21523 -0.215601 -0.215972 -0.216347 -0.216611 -0.216874 -0.217137 -0.2174 -0.217661 -0.218283 -0.218905 -0.219525 -0.220144 -0.220748 -0.221174 -0.221599 -0.222024 -0.222448 -0.222877 -0.223048 -0.223219 -0.22339 -0.223561 -0.223731 -0.224316 -0.224901 -0.225485 -0.226068 -0.226637 -0.227184 -0.227729 -0.228274 -0.228817 -0.229369 -0.229382 -0.229394 -0.229407 -0.229419 -0.229432 -0.229982 -0.230532 -0.231081 -0.231628 -0.232165 -0.232693 -0.233221 -0.233748 -0.234273 -0.234788 -0.234985 -0.235182 -0.235379 -0.235575 -0.235774 -0.236087 -0.2364 -0.236712 -0.237024 -0.237333 -0.237829 -0.238323 -0.238816 -0.239309 -0.239793 -0.240244 -0.240696 -0.241146 -0.241596 -0.242053 -0.242072 -0.242091 -0.24211 -0.242129 -0.242149 -0.242612 -0.243074 -0.243535 -0.243995 -0.244448 -0.244889 -0.245329 -0.245769 -0.24621 -0.246643 -0.246939 -0.247234 -0.247529 -0.247824 -0.248121 -0.248247 -0.248372 -0.248498 -0.248623 -0.248748 -0.249158 -0.249568 -0.249978 -0.250387 -0.25079 -0.25118 -0.251568 -0.251956 -0.252345 -0.252728 -0.252962 -0.253198 -0.253433 -0.253667 -0.253905 -0.25404 -0.254176 -0.254311 -0.254447 -0.254583 -0.254941 -0.255301 -0.25566 -0.256018 -0.256371 -0.256709 -0.257048 -0.257385 -0.257724 -0.258059 -0.258307 -0.258554 -0.258801 -0.259047 -0.259296 -0.259368 -0.25944 -0.259512 -0.259584 -0.259656 -0.259964 -0.260273 -0.260582 -0.26089 -0.261194 -0.261482 -0.261769 -0.262056 -0.262345 -0.26263 -0.262898 -0.263167 -0.263434 -0.263701 -0.263966 -0.264002 -0.264037 -0.264073 -0.264108 -0.264143 -0.264365 -0.264586 -0.264806 -0.265026 -0.265243 -0.265477 -0.265713 -0.265952 -0.266191 -0.266427 -0.266643 -0.266859 -0.267074 -0.26729 -0.267507 -0.267655 -0.267803 -0.267951 -0.268098 -0.268248 -0.268298 -0.268348 -0.268398 -0.268448 -0.268499 -0.268684 -0.268871 -0.269057 -0.269242 -0.269425 -0.269587 -0.269749 -0.269915 -0.270083 -0.270249 -0.270393 -0.270536 -0.270678 -0.27082 -0.270967 -0.271046 -0.271125 -0.271204 -0.271282 -0.271362 -0.271408 -0.271457 -0.271505 -0.271553 -0.271603 -0.271713 -0.271828 -0.271943 -0.272056 -0.272169 -0.272256 -0.272344 -0.272439 -0.272535 -0.272632 -0.272701 -0.27277 -0.272838 -0.272909 -0.272986 -0.273026 -0.273068 -0.273109 -0.27315 -0.273192 -0.273203 -0.273213 -0.273224 -0.273235 -0.273246 -0.273285 -0.273325 -0.273364 -0.273403 -0.27344 -0.27345 -0.273463 -0.273485 -0.273506 -0.273527 -0.27352 -0.273511 -0.273501 -0.273502 -0.273503 -0.273476 -0.273449 -0.273422 -0.273394 -0.273372 -0.273359 -0.273345 -0.273332 -0.273318 -0.273302 -0.273274 -0.273248 -0.273221 -0.273193 -0.273167 -0.273094 -0.273038 -0.272982 -0.272925 -0.27287 -0.272779 -0.272688 -0.272609 -0.272534 -0.272459 -0.272348 -0.272239 -0.272129 -0.272027 -0.271937 -0.271809 -0.271681 -0.271553 -0.271424 -0.2713 -0.271274 -0.271251 -0.271228 -0.271206 -0.271185 -0.271069 -0.270952 -0.270835 -0.270717 -0.2706 -0.270426 -0.270268 -0.27011 -0.269952 -0.269792 -0.269596 -0.269401 -0.26922 -0.269044 -0.268869 -0.268656 -0.268441 -0.268225 -0.268022 -0.267825 -0.267592 -0.267359 -0.267126 -0.266892 -0.266668 -0.266576 -0.266481 -0.266387 -0.266292 -0.266195 -0.266042 -0.265891 -0.26574 -0.265589 -0.265441 -0.265164 -0.264906 -0.264649 -0.264391 -0.264139 -0.263839 -0.263546 -0.26327 -0.262995 -0.262722 -0.262404 -0.262092 -0.261781 -0.261491 -0.261207 -0.260875 -0.260545 -0.260216 -0.259887 -0.259584 -0.259257 -0.258937 -0.258617 -0.258297 -0.257984 -0.257963 -0.257942 -0.257922 -0.257901 -0.257878 -0.257532 -0.257182 -0.256831 -0.256481 -0.256125 -0.25574 -0.255376 -0.255016 -0.254655 -0.254292 -0.253899 -0.253499 -0.253123 -0.252752 -0.252373 -0.251964 -0.251552 -0.251141 -0.250753 -0.250366 -0.249947 -0.249522 -0.249098 -0.248674 -0.248264 -0.24794 -0.247614 -0.247288 -0.246962 -0.246636 -0.246516 -0.2464 -0.246284 -0.246169 -0.246059 -0.24559 -0.245133 -0.244676 -0.244219 -0.243762 -0.243248 -0.242762 -0.242286 -0.24181 -0.241337 -0.240808 -0.240281 -0.239776 -0.239283 -0.238788 -0.238234 -0.237685 -0.237137 -0.23661 -0.236096 -0.235526 -0.234958 -0.234391 -0.233826 -0.233275 -0.232957 -0.232643 -0.232329 -0.232016 -0.23171 -0.231438 -0.231167 -0.230896 -0.230626 -0.230355 -0.229739 -0.229141 -0.228545 -0.22795 -0.227347 -0.226692 -0.226055 -0.225441 -0.224829 -0.22421 -0.22354 -0.222872 -0.222217 -0.22159 -0.220952 -0.220265 -0.219582 -0.218901 -0.218228 -0.217577 -0.216883 -0.21619 -0.2155 -0.214812 -0.21415 -0.214137 -0.214124 -0.214112 -0.214099 -0.214087 -0.213382 -0.212686 -0.211992 -0.211301 -0.2106 -0.209843 -0.209124 -0.208418 -0.207714 -0.206995 -0.206224 -0.205461 -0.204722 -0.204007 -0.203278 -0.202497 -0.20172 -0.200948 -0.200185 -0.199439 -0.198746 -0.198061 -0.197379 -0.196699 -0.19605 -0.195938 -0.195827 -0.195716 -0.195606 -0.195496 -0.194695 -0.193906 -0.193121 -0.19234 -0.191532 -0.190679 -0.189848 -0.189051 -0.188259 -0.187439 -0.186575 -0.185714 -0.184859 -0.184044 -0.183205 -0.182322 -0.181447 -0.180577 -0.179712 -0.178821 -0.178724 -0.178624 -0.178525 -0.178425 -0.178326 -0.177541 -0.176762 -0.175987 -0.175217 -0.174417 -0.173466 -0.172549 -0.171665 -0.170786 -0.16987 -0.168903 -0.167945 -0.166992 -0.166076 -0.165136 -0.164312 -0.163497 -0.162687 -0.161882 -0.161108 -0.160926 -0.160746 -0.160566 -0.160387 -0.160208 -0.159182 -0.158182 -0.157191 -0.156206 -0.155165 -0.154066 -0.152978 -0.151924 -0.150907 -0.149834 -0.148719 -0.14761 -0.14651 -0.145418 -0.144269 -0.144194 -0.14412 -0.144046 -0.143973 -0.1439 -0.142851 -0.141816 -0.140788 -0.139768 -0.138695 -0.137446 -0.136208 -0.135016 -0.133855 -0.13262 -0.131348 -0.130093 -0.128849 -0.127614 -0.126424 -0.126357 -0.126289 -0.126223 -0.126159 -0.126102 -0.124819 -0.123564 -0.122324 -0.121099 -0.11976 -0.118945 -0.118144 -0.117355 -0.116578 -0.115835 -0.115472 -0.11512 -0.114774 -0.114435 -0.114079 -0.113515 -0.112977 -0.112453 -0.111943 -0.11147 -0.111298 -0.111159 -0.111036 -0.110929 -0.110839 -0.1108 -0.11079 -0.110787 -0.110788 -0.110819 -0.111574 -0.112398 -0.113262 -0.114164 -0.115244 -0.11528 -0.115321 -0.115378 -0.115439 -0.115501 -0.117416 -0.119389 -0.121391 -0.123422 -0.125454 -0.127582 -0.129753 -0.13194 -0.134144 -0.136939 -0.137473 -0.13803 -0.138588 -0.139146 -0.139725 -0.1432 -0.146688 -0.150194 -0.153716 -0.157215 -0.16093 -0.164672 -0.168429 -0.172199 -0.175949 -0.177141 -0.17834 -0.179541 -0.180743 -0.182077 -0.184711 -0.187352 -0.189998 -0.192647 -0.19529 -0.199071 -0.20288 -0.20671 -0.210548 -0.214371 -0.217989 -0.221615 -0.225247 -0.228928 -0.232605 -0.236006 -0.239412 -0.242825 -0.246242 -0.249699 -0.251589 -0.253481 -0.255374 -0.25727 -0.25957 -0.260767 -0.261966 -0.263166 -0.264367 -0.265569 -0.268456 -0.271378 -0.274303 -0.277231 -0.28016 -0.28263 -0.285238 -0.287864 -0.290492 -0.293124 -0.295199 -0.297346 -0.299671 -0.301998 -0.30433 -0.305985 -0.307645 -0.309593 -0.311629 -0.313669 -0.314892 -0.316121 -0.317537 -0.319307 -0.321083 -0.321903 -0.322731 -0.323562 -0.325108 -0.326675 -0.327272 -0.327886 -0.328504 -0.32972 -0.331259 -0.332045 -0.332867 -0.333692 -0.334894 -0.336766 -0.338509 -0.340325 -0.342145 -0.344073 -0.346933 -0.351034 -0.355269 -0.35951 -0.363758 -0.368695 -0.377346 -0.386228 -0.395119 -0.404017 -0.413093 -0.429241 -0.445747 -0.462261 -0.478783 -0.495102 -0.522013 -0.549407 -0.576808 -0.604213 -0.631329 -0.671275 -0.711768 -0.752262 -0.792757 -0.833173 -0.88599 -0.939318 -0.992647 -1.04598 -1.09961 -1.12935 -1.15957 -1.18982 -1.22008 -1.24039 -1.27583 -1.31127 -1.34676 -1.38235 -1.41829 -1.48862 -1.5592 -1.62981 -1.70046 -1.77134 -1.84408 -1.91778 -1.9915 -2.06524 -2.13905 -2.20882 -2.2817 -2.35458 -2.42746 -2.50025 -2.56294 -2.63075 -2.69922 -2.76769 -2.83596 -2.89035 -2.94707 -3.00723 -3.0674 -3.12729 -3.16781 -3.20789 -3.25244 -3.29706 -3.34125 -3.36336 -3.38511 -3.40775 -3.43096 -3.45382 -3.46389 -3.474 -3.48348 -3.4918 -3.50015 -3.50412 -3.50806 -3.5115 -3.51263 -3.51372 -3.51434 -3.5151 -3.51578 -3.51545 -3.51525 -3.51596 -3.51665 -3.51737 -3.51821 -3.51903