# vtk DataFile Version 2.0
track0
ASCII
DATASET POLYDATA
POINTS 12150 float
-0.0205 0.001 1e-05
-0.0204878 0.0011 1e-05
-0.0204754 0.00119999 1e-05
-0.0204629 0.00129996 1e-05
-0.0204503 0.00139991 1e-05
-0.0204376 0.0015 1e-05
-0.0204248 0.0016 1e-05
-0.0204118 0.00169998 1e-05
-0.0203987 0.00179994 1e-05
-0.0203854 0.00189988 1e-05
-0.0203719 0.002 1e-05
-0.0203583 0.0021 1e-05
-0.0203445 0.00219997 1e-05
-0.0203305 0.00229992 1e-05
-0.0203163 0.00239985 1e-05
-0.0203019 0.0025 1e-05
-0.0202986 0.00252268 1e-05
-0.0202953 0.00254535 1e-05
-0.020292 0.00256802 1e-05
-0.0202886 0.00259069 1e-05
-0.0202854 0.00261263 1e-05
-0.0202739 0.0026901 1e-05
-0.0202623 0.00276756 1e-05
-0.0202506 0.00284499 1e-05
-0.0202387 0.00292241 1e-05
-0.0202267 0.003 1e-05
-0.0202111 0.0031 1e-05
-0.0201952 0.00319996 1e-05
-0.020179 0.00329989 1e-05
-0.0201627 0.00339978 1e-05
-0.020146 0.0035 1e-05
-0.0201292 0.0036 1e-05
-0.0201121 0.00369996 1e-05
-0.0200947 0.00379987 1e-05
-0.0200771 0.00389974 1e-05
-0.0200591 0.004 1e-05
-0.0200518 0.00404052 1e-05
-0.0200444 0.00408103 1e-05
-0.0200369 0.00412153 1e-05
-0.0200294 0.00416203 1e-05
-0.0200223 0.00420016 1e-05
-0.0200111 0.00426013 1e-05
-0.0199998 0.00432008 1e-05
-0.0199884 0.00438001 1e-05
-0.0199768 0.00443992 1e-05
-0.0199652 0.0045 1e-05
-0.0199456 0.0046 1e-05
-0.0199258 0.00469994 1e-05
-0.0199057 0.00479983 1e-05
-0.0198853 0.00489967 1e-05
-0.0198645 0.005 1e-05
-0.0198439 0.00509819 1e-05
-0.019823 0.00519631 1e-05
-0.0198018 0.00529438 1e-05
-0.0197803 0.00539238 1e-05
-0.0197614 0.00547772 1e-05
-0.0197604 0.00548218 1e-05
-0.0197594 0.00548663 1e-05
-0.0197584 0.00549109 1e-05
-0.0197574 0.00549554 1e-05
-0.0197564 0.0055 1e-05
-0.0197338 0.0056 1e-05
-0.019711 0.00569993 1e-05
-0.0196878 0.0057998 1e-05
-0.0196644 0.00589959 1e-05
-0.0196405 0.006 1e-05
-0.0196164 0.0061 1e-05
-0.019592 0.00619993 1e-05
-0.0195672 0.00629978 1e-05
-0.0195422 0.00639955 1e-05
-0.0195167 0.0065 1e-05
-0.0195138 0.006511 1e-05
-0.019511 0.00652199 1e-05
-0.0195082 0.00653299 1e-05
-0.0195053 0.00654399 1e-05
-0.0195025 0.00655483 1e-05
-0.0194794 0.00664387 1e-05
-0.0194561 0.00673283 1e-05
-0.0194325 0.00682174 1e-05
-0.0194087 0.00691057 1e-05
-0.0193844 0.007 1e-05
-0.019357 0.0071 1e-05
-0.0193292 0.00719991 1e-05
-0.0193011 0.00729973 1e-05
-0.0192727 0.00739946 1e-05
-0.0192457 0.0074931 1e-05
-0.0192453 0.00749448 1e-05
-0.0192449 0.00749586 1e-05
-0.0192445 0.00749724 1e-05
-0.0192441 0.00749862 1e-05
-0.0192437 0.0075 1e-05
-0.0192146 0.0076 1e-05
-0.0191851 0.0076999 1e-05
-0.0191552 0.00779971 1e-05
-0.0191251 0.00789942 1e-05
-0.0190943 0.008 1e-05
-0.0190737 0.00806673 1e-05
-0.0190529 0.00813341 1e-05
-0.0190319 0.00820005 1e-05
-0.0190108 0.00826664 1e-05
-0.018991 0.00832856 1e-05
-0.01898 0.00836285 1e-05
-0.018969 0.00839712 1e-05
-0.0189578 0.00843139 1e-05
-0.0189467 0.00846564 1e-05
-0.0189355 0.0085 1e-05
-0.0189027 0.0086 1e-05
-0.0188696 0.00869989 1e-05
-0.0188361 0.00879966 1e-05
-0.0188023 0.00889933 1e-05
-0.0187678 0.009 1e-05
-0.0187619 0.00901694 1e-05
-0.018756 0.00903388 1e-05
-0.0187501 0.00905081 1e-05
-0.0187442 0.00906774 1e-05
-0.0187384 0.00908439 1e-05
-0.0187093 0.00916751 1e-05
-0.01868 0.00925055 1e-05
-0.0186504 0.0093335 1e-05
-0.0186206 0.00941637 1e-05
-0.0185902 0.0095 1e-05
-0.0185697 0.00955596 1e-05
-0.0185491 0.00961187 1e-05
-0.0185284 0.00966775 1e-05
-0.0185076 0.00972358 1e-05
-0.0184878 0.00977646 1e-05
-0.0184709 0.00982117 1e-05
-0.018454 0.00986585 1e-05
-0.018437 0.0099105 1e-05
-0.0184199 0.00995513 1e-05
-0.0184027 0.01 1e-05
-0.01837 0.0100846 1e-05
-0.018337 0.0101692 1e-05
-0.0183038 0.0102536 1e-05
-0.0182703 0.010338 1e-05
-0.0182392 0.0104159 1e-05
-0.0182324 0.0104327 1e-05
-0.0182256 0.0104495 1e-05
-0.0182188 0.0104663 1e-05
-0.018212 0.0104832 1e-05
-0.0182051 0.0105 1e-05
-0.0181645 0.0106 1e-05
-0.0181234 0.0106999 1e-05
-0.018082 0.0107996 1e-05
-0.0180402 0.0108991 1e-05
-0.0179975 0.011 1e-05
-0.0179965 0.0110023 1e-05
-0.0179955 0.0110046 1e-05
-0.0179945 0.0110068 1e-05
-0.0179936 0.0110091 1e-05
-0.0179926 0.0110114 1e-05
-0.0179507 0.0111091 1e-05
-0.0179085 0.0112067 1e-05
-0.0178659 0.0113041 1e-05
-0.0178229 0.0114014 1e-05
-0.017779 0.0115 1e-05
-0.0177728 0.0115138 1e-05
-0.0177666 0.0115275 1e-05
-0.0177604 0.0115413 1e-05
-0.0177541 0.0115551 1e-05
-0.017748 0.0115687 1e-05
-0.0177089 0.0116549 1e-05
-0.0176695 0.0117411 1e-05
-0.0176299 0.0118271 1e-05
-0.0175899 0.011913 1e-05
-0.0175491 0.012 1e-05
-0.0175404 0.0120185 1e-05
-0.0175316 0.012037 1e-05
-0.0175228 0.0120555 1e-05
-0.017514 0.012074 1e-05
-0.0175053 0.0120923 1e-05
-0.0174664 0.0121738 1e-05
-0.0174273 0.0122552 1e-05
-0.0173879 0.0123365 1e-05
-0.0173482 0.0124177 1e-05
-0.0173077 0.0125 1e-05
-0.0172991 0.0125173 1e-05
-0.0172905 0.0125347 1e-05
-0.0172818 0.012552 1e-05
-0.0172732 0.0125693 1e-05
-0.0172647 0.0125864 1e-05
-0.0172233 0.0126691 1e-05
-0.0171816 0.0127517 1e-05
-0.0171397 0.0128342 1e-05
-0.0170975 0.0129165 1e-05
-0.0170543 0.013 1e-05
-0.0170487 0.0130109 1e-05
-0.017043 0.0130218 1e-05
-0.0170373 0.0130328 1e-05
-0.0170316 0.0130437 1e-05
-0.0170259 0.0130545 1e-05
-0.0169793 0.0131436 1e-05
-0.0169323 0.0132325 1e-05
-0.0168851 0.0133213 1e-05
-0.0168375 0.0134099 1e-05
-0.0167891 0.0134994 1e-05
-0.016789 0.0134995 1e-05
-0.016789 0.0134996 1e-05
-0.0167889 0.0134998 1e-05
-0.0167888 0.0134999 1e-05
-0.0167888 0.0135 1e-05
-0.0167418 0.0135859 1e-05
-0.0166946 0.0136717 1e-05
-0.0166471 0.0137574 1e-05
-0.0165993 0.0138428 1e-05
-0.0165542 0.0139229 1e-05
-0.0165454 0.0139383 1e-05
-0.0165367 0.0139538 1e-05
-0.0165279 0.0139692 1e-05
-0.0165191 0.0139846 1e-05
-0.0165103 0.014 1e-05
-0.0164725 0.0140661 1e-05
-0.0164345 0.0141322 1e-05
-0.0163963 0.0141981 1e-05
-0.0163579 0.0142639 1e-05
-0.0163212 0.0143266 1e-05
-0.0163007 0.0143613 1e-05
-0.0162802 0.014396 1e-05
-0.0162597 0.0144306 1e-05
-0.0162391 0.0144652 1e-05
-0.0162183 0.0145 1e-05
-0.0161926 0.0145428 1e-05
-0.0161669 0.0145856 1e-05
-0.0161411 0.0146283 1e-05
-0.0161152 0.014671 1e-05
-0.01609 0.0147124 1e-05
-0.0160549 0.0147699 1e-05
-0.0160196 0.0148274 1e-05
-0.0159842 0.0148847 1e-05
-0.0159486 0.014942 1e-05
-0.0159124 0.015 1e-05
-0.0159021 0.0150165 1e-05
-0.0158917 0.015033 1e-05
-0.0158814 0.0150494 1e-05
-0.015871 0.0150659 1e-05
-0.0158607 0.0150821 1e-05
-0.0158153 0.0151541 1e-05
-0.0157696 0.0152259 1e-05
-0.0157236 0.0152976 1e-05
-0.0156775 0.0153692 1e-05
-0.0156333 0.0154373 1e-05
-0.0156251 0.0154499 1e-05
-0.0156169 0.0154624 1e-05
-0.0156087 0.0154749 1e-05
-0.0156005 0.0154874 1e-05
-0.0155923 0.0155 1e-05
-0.0155554 0.0155562 1e-05
-0.0155183 0.0156124 1e-05
-0.0154811 0.0156684 1e-05
-0.0154438 0.0157244 1e-05
-0.0154077 0.0157783 1e-05
-0.0153778 0.0158226 1e-05
-0.0153479 0.0158669 1e-05
-0.0153179 0.0159111 1e-05
-0.0152878 0.0159553 1e-05
-0.0152572 0.016 1e-05
-0.0152425 0.0160213 1e-05
-0.0152279 0.0160426 1e-05
-0.0152132 0.0160639 1e-05
-0.0151985 0.0160852 1e-05
-0.0151839 0.0161062 1e-05
-0.0151395 0.0161702 1e-05
-0.015095 0.0162341 1e-05
-0.0150502 0.0162978 1e-05
-0.0150053 0.0163615 1e-05
-0.0149619 0.0164225 1e-05
-0.0149509 0.016438 1e-05
-0.0149398 0.0164535 1e-05
-0.0149287 0.016469 1e-05
-0.0149176 0.0164845 1e-05
-0.0149065 0.0165 1e-05
-0.0148735 0.0165458 1e-05
-0.0148405 0.0165916 1e-05
-0.0148074 0.0166373 1e-05
-0.0147742 0.016683 1e-05
-0.0147417 0.0167273 1e-05
-0.0147017 0.0167819 1e-05
-0.0146616 0.0168363 1e-05
-0.0146213 0.0168906 1e-05
-0.0145809 0.0169449 1e-05
-0.0145397 0.017 1e-05
-0.0145364 0.0170044 1e-05
-0.0145332 0.0170087 1e-05
-0.0145299 0.0170131 1e-05
-0.0145266 0.0170174 1e-05
-0.0145233 0.0170218 1e-05
-0.01448 0.0170793 1e-05
-0.0144365 0.0171367 1e-05
-0.0143929 0.017194 1e-05
-0.0143491 0.0172512 1e-05
-0.0143067 0.0173065 1e-05
-0.0142768 0.0173452 1e-05
-0.0142468 0.0173838 1e-05
-0.0142167 0.0174224 1e-05
-0.0141866 0.017461 1e-05
-0.0141561 0.0175 1e-05
-0.0141432 0.0175164 1e-05
-0.0141303 0.0175327 1e-05
-0.0141174 0.0175491 1e-05
-0.0141045 0.0175654 1e-05
-0.0140917 0.0175816 1e-05
-0.0140491 0.0176354 1e-05
-0.0140063 0.0176891 1e-05
-0.0139635 0.0177428 1e-05
-0.0139204 0.0177963 1e-05
-0.0138786 0.0178482 1e-05
-0.0138539 0.0178786 1e-05
-0.0138293 0.0179089 1e-05
-0.0138046 0.0179392 1e-05
-0.0137798 0.0179694 1e-05
-0.0137548 0.018 1e-05
-0.0137372 0.0180213 1e-05
-0.0137197 0.0180426 1e-05
-0.0137021 0.0180639 1e-05
-0.0136845 0.0180852 1e-05
-0.0136671 0.0181063 1e-05
-0.0136251 0.0181568 1e-05
-0.0135831 0.0182073 1e-05
-0.0135409 0.0182576 1e-05
-0.0134986 0.0183079 1e-05
-0.0134573 0.0183568 1e-05
-0.013433 0.0183854 1e-05
-0.0134087 0.018414 1e-05
-0.0133843 0.0184426 1e-05
-0.0133599 0.0184712 1e-05
-0.0133352 0.0185 1e-05
-0.013318 0.01852 1e-05
-0.0133008 0.01854 1e-05
-0.0132836 0.0185599 1e-05
-0.0132663 0.0185799 1e-05
-0.0132493 0.0185996 1e-05
-0.013208 0.0186472 1e-05
-0.0131666 0.0186947 1e-05
-0.0131251 0.0187422 1e-05
-0.0130835 0.0187895 1e-05
-0.0130429 0.0188357 1e-05
-0.0130138 0.0188685 1e-05
-0.0129846 0.0189014 1e-05
-0.0129554 0.0189341 1e-05
-0.0129262 0.0189669 1e-05
-0.0128965 0.019 1e-05
-0.0128848 0.019013 1e-05
-0.0128732 0.019026 1e-05
-0.0128615 0.019039 1e-05
-0.0128498 0.019052 1e-05
-0.0128381 0.0190649 1e-05
-0.0127975 0.0191098 1e-05
-0.0127568 0.0191547 1e-05
-0.012716 0.0191995 1e-05
-0.0126751 0.0192442 1e-05
-0.012635 0.0192879 1e-05
-0.0125959 0.0193303 1e-05
-0.0125568 0.0193726 1e-05
-0.0125175 0.0194149 1e-05
-0.0124782 0.0194571 1e-05
-0.0124381 0.0195 1e-05
-0.0124372 0.019501 1e-05
-0.0124363 0.0195019 1e-05
-0.0124354 0.0195029 1e-05
-0.0124345 0.0195038 1e-05
-0.0124336 0.0195048 1e-05
-0.0123936 0.0195473 1e-05
-0.0123536 0.0195898 1e-05
-0.0123134 0.0196322 1e-05
-0.0122732 0.0196745 1e-05
-0.0122338 0.0197159 1e-05
-0.0121941 0.0197574 1e-05
-0.0121544 0.0197987 1e-05
-0.0121146 0.01984 1e-05
-0.0120747 0.0198812 1e-05
-0.0120355 0.0199216 1e-05
-0.0120203 0.0199373 1e-05
[...]
POINT_DATA 12150
 FIELD attributes 1
U 3 12150 float
-0.0331981 	-0.271275 	0 -0.0335154 	-0.271245 	0 -0.0338336 	-0.271213 	0 -0.0341511 	-0.271181 	0 -0.0344685 	-0.271148 	0 -0.0347891 	-0.271114 	0 -0.0352092 	-0.27108 	0 -0.0356315 	-0.271045 	0 -0.0360532 	-0.271009 	0 -0.0364722 	-0.27097 	0 -0.0368943 	-0.270931 	0 -0.0374002 	-0.270885 	0 -0.037908 	-0.270837 	0 -0.0384156 	-0.270789 	0 -0.038923 	-0.27074 	0 -0.039432 	-0.270689 	0 -0.0395615 	-0.270675 	0 -0.0396927 	-0.270662 	0 -0.0398239 	-0.270648 	0 -0.039955 	-0.270634 	0 -0.0400835 	-0.270621 	0 -0.0405309 	-0.270574 	0 -0.0409799 	-0.270526 	0 -0.0414287 	-0.270477 	0 -0.0418774 	-0.270428 	0 -0.0423287 	-0.270378 	0 -0.0429687 	-0.270305 	0 -0.0436082 	-0.27023 	0 -0.0442452 	-0.270153 	0 -0.0448819 	-0.270075 	0 -0.0455222 	-0.269996 	0 -0.0462092 	-0.269907 	0 -0.0468971 	-0.269816 	0 -0.0475847 	-0.269725 	0 -0.0482718 	-0.269632 	0 -0.048959 	-0.269536 	0 -0.0492522 	-0.269493 	0 -0.0495463 	-0.26945 	0 -0.0498403 	-0.269407 	0 -0.0501342 	-0.269364 	0 -0.0504119 	-0.269322 	0 -0.0508473 	-0.269258 	0 -0.0512835 	-0.269192 	0 -0.0517196 	-0.269126 	0 -0.0521556 	-0.26906 	0 -0.0525937 	-0.268993 	0 -0.0533544 	-0.268872 	0 -0.0541146 	-0.26875 	0 -0.0548718 	-0.268624 	0 -0.0556286 	-0.268498 	0 -0.0563901 	-0.268369 	0 -0.057161 	-0.268234 	0 -0.0579322 	-0.268096 	0 -0.058703 	-0.267958 	0 -0.0594735 	-0.267818 	0 -0.060145 	-0.267695 	0 -0.0601799 	-0.267689 	0 -0.0602148 	-0.267682 	0 -0.0602498 	-0.267676 	0 -0.060285 	-0.26767 	0 -0.0603206 	-0.267663 	0 -0.0611283 	-0.267508 	0 -0.0619355 	-0.267351 	0 -0.0627424 	-0.267193 	0 -0.0635488 	-0.267033 	0 -0.0643609 	-0.266871 	0 -0.0651877 	-0.2667 	0 -0.0660145 	-0.266527 	0 -0.0668409 	-0.266353 	0 -0.0676668 	-0.266177 	0 -0.0684973 	-0.265998 	0 -0.0685895 	-0.265978 	0 -0.068682 	-0.265957 	0 -0.0687745 	-0.265936 	0 -0.068867 	-0.265915 	0 -0.0689586 	-0.265894 	0 -0.0697092 	-0.265726 	0 -0.0704599 	-0.265557 	0 -0.0712101 	-0.265386 	0 -0.0719601 	-0.265214 	0 -0.0727155 	-0.26504 	0 -0.0735736 	-0.264836 	0 -0.0744314 	-0.26463 	0 -0.0752888 	-0.264423 	0 -0.0761456 	-0.264215 	0 -0.0769506 	-0.264017 	0 -0.0769624 	-0.264014 	0 -0.0769743 	-0.264011 	0 -0.0769861 	-0.264009 	0 -0.0769981 	-0.264006 	0 -0.07701 	-0.264003 	0 -0.0778819 	-0.263782 	0 -0.0787532 	-0.26356 	0 -0.079624 	-0.263336 	0 -0.0804943 	-0.263111 	0 -0.0813728 	-0.262882 	0 -0.0819629 	-0.262725 	0 -0.082553 	-0.262566 	0 -0.0831429 	-0.262407 	0 -0.0837325 	-0.262247 	0 -0.084281 	-0.262098 	0 -0.0845853 	-0.262015 	0 -0.0848898 	-0.261932 	0 -0.0851942 	-0.261849 	0 -0.0854986 	-0.261766 	0 -0.0858042 	-0.261682 	0 -0.0867033 	-0.26143 	0 -0.087602 	-0.261177 	0 -0.0885 	-0.260923 	0 -0.089396 	-0.260666 	0 -0.0903013 	-0.260404 	0 -0.0904552 	-0.260359 	0 -0.0906093 	-0.260314 	0 -0.0907633 	-0.260268 	0 -0.0909174 	-0.260222 	0 -0.091069 	-0.260177 	0 -0.0918272 	-0.259954 	0 -0.0925852 	-0.259729 	0 -0.0933428 	-0.259504 	0 -0.0940998 	-0.259277 	0 -0.0948643 	-0.259047 	0 -0.0953812 	-0.258889 	0 -0.095898 	-0.25873 	0 -0.0964147 	-0.25857 	0 -0.096931 	-0.25841 	0 -0.0974204 	-0.258258 	0 -0.0978351 	-0.25813 	0 -0.0982499 	-0.258001 	0 -0.0986645 	-0.257872 	0 -0.0990789 	-0.257743 	0 -0.0994958 	-0.257613 	0 -0.10029 	-0.257361 	0 -0.101084 	-0.257107 	0 -0.101878 	-0.256853 	0 -0.102671 	-0.256598 	0 -0.103403 	-0.256361 	0 -0.103562 	-0.25631 	0 -0.103721 	-0.256259 	0 -0.103879 	-0.256207 	0 -0.104038 	-0.256156 	0 -0.104197 	-0.256104 	0 -0.105151 	-0.255792 	0 -0.106103 	-0.255478 	0 -0.107055 	-0.255163 	0 -0.108006 	-0.254846 	0 -0.10897 	-0.254523 	0 -0.108992 	-0.254515 	0 -0.109014 	-0.254508 	0 -0.109036 	-0.2545 	0 -0.109058 	-0.254493 	0 -0.10908 	-0.254485 	0 -0.110026 	-0.254165 	0 -0.110972 	-0.253844 	0 -0.111916 	-0.253521 	0 -0.11286 	-0.253197 	0 -0.113818 	-0.252867 	0 -0.113953 	-0.25282 	0 -0.114088 	-0.252772 	0 -0.114223 	-0.252725 	0 -0.114358 	-0.252678 	0 -0.114492 	-0.252631 	0 -0.115341 	-0.252335 	0 -0.116189 	-0.252039 	0 -0.117037 	-0.251741 	0 -0.117884 	-0.251442 	0 -0.118743 	-0.251138 	0 -0.118928 	-0.251072 	0 -0.119113 	-0.251006 	0 -0.119297 	-0.25094 	0 -0.119482 	-0.250873 	0 -0.119664 	-0.250808 	0 -0.12048 	-0.250517 	0 -0.121296 	-0.250225 	0 -0.122111 	-0.249932 	0 -0.122925 	-0.249638 	0 -0.123751 	-0.249339 	0 -0.123927 	-0.249275 	0 -0.124103 	-0.24921 	0 -0.124279 	-0.249146 	0 -0.124454 	-0.249082 	0 -0.124628 	-0.249018 	0 -0.12547 	-0.248711 	0 -0.126311 	-0.248404 	0 -0.127152 	-0.248095 	0 -0.127992 	-0.247786 	0 -0.128844 	-0.247471 	0 -0.128957 	-0.247429 	0 -0.129069 	-0.247387 	0 -0.129182 	-0.247345 	0 -0.129295 	-0.247303 	0 -0.129407 	-0.247261 	0 -0.130329 	-0.24692 	0 -0.13125 	-0.246577 	0 -0.132171 	-0.246233 	0 -0.13309 	-0.245889 	0 -0.13402 	-0.245539 	0 -0.134021 	-0.245538 	0 -0.134022 	-0.245538 	0 -0.134024 	-0.245537 	0 -0.134025 	-0.245537 	0 -0.134026 	-0.245536 	0 -0.13493 	-0.245196 	0 -0.135834 	-0.244854 	0 -0.136736 	-0.244512 	0 -0.137637 	-0.244169 	0 -0.138483 	-0.243845 	0 -0.138646 	-0.243783 	0 -0.138809 	-0.243721 	0 -0.138972 	-0.243659 	0 -0.139135 	-0.243597 	0 -0.139299 	-0.243534 	0 -0.140007 	-0.243264 	0 -0.140715 	-0.242992 	0 -0.141421 	-0.242721 	0 -0.142127 	-0.242448 	0 -0.142801 	-0.242187 	0 -0.143174 	-0.242044 	0 -0.143547 	-0.241901 	0 -0.143921 	-0.241757 	0 -0.144293 	-0.241613 	0 -0.144669 	-0.241468 	0 -0.145136 	-0.241287 	0 -0.145603 	-0.241106 	0 -0.146069 	-0.240925 	0 -0.146535 	-0.240743 	0 -0.146987 	-0.240566 	0 -0.147617 	-0.240323 	0 -0.148246 	-0.240079 	0 -0.148876 	-0.239835 	0 -0.149504 	-0.23959 	0 -0.150141 	-0.239341 	0 -0.150324 	-0.239269 	0 -0.150507 	-0.239198 	0 -0.15069 	-0.239126 	0 -0.150873 	-0.239054 	0 -0.151054 	-0.238983 	0 -0.151856 	-0.238671 	0 -0.152657 	-0.238359 	0 -0.153457 	-0.238046 	0 -0.154255 	-0.237731 	0 -0.155015 	-0.23743 	0 -0.155155 	-0.237375 	0 -0.155296 	-0.23732 	0 -0.155436 	-0.237265 	0 -0.155577 	-0.23721 	0 -0.155718 	-0.237154 	0 -0.156354 	-0.236904 	0 -0.15699 	-0.236653 	0 -0.157626 	-0.236402 	0 -0.158261 	-0.23615 	0 -0.158873 	-0.235907 	0 -0.159378 	-0.235709 	0 -0.159883 	-0.23551 	0 -0.160388 	-0.235312 	0 -0.160892 	-0.235113 	0 -0.161402 	-0.234911 	0 -0.161648 	-0.234813 	0 -0.161894 	-0.234716 	0 -0.16214 	-0.234618 	0 -0.162386 	-0.23452 	0 -0.162629 	-0.234423 	0 -0.163371 	-0.234133 	0 -0.164112 	-0.233841 	0 -0.164852 	-0.233549 	0 -0.16559 	-0.233254 	0 -0.166298 	-0.232971 	0 -0.166479 	-0.2329 	0 -0.166659 	-0.232828 	0 -0.166839 	-0.232757 	0 -0.167019 	-0.232686 	0 -0.167201 	-0.232614 	0 -0.167741 	-0.2324 	0 -0.16828 	-0.232185 	0 -0.168819 	-0.231971 	0 -0.169358 	-0.231756 	0 -0.169882 	-0.231547 	0 -0.170528 	-0.231292 	0 -0.171173 	-0.231037 	0 -0.171818 	-0.230782 	0 -0.172462 	-0.230527 	0 -0.173117 	-0.230267 	0 -0.173169 	-0.230246 	0 -0.173222 	-0.230225 	0 -0.173274 	-0.230204 	0 -0.173326 	-0.230184 	0 -0.173379 	-0.230163 	0 -0.174072 	-0.22989 	0 -0.174763 	-0.229615 	0 -0.175453 	-0.22934 	0 -0.176142 	-0.229065 	0 -0.176809 	-0.228799 	0 -0.177277 	-0.228614 	0 -0.177745 	-0.228429 	0 -0.178213 	-0.228244 	0 -0.17868 	-0.228059 	0 -0.179153 	-0.227872 	0 -0.179354 	-0.227792 	0 -0.179555 	-0.227712 	0 -0.179755 	-0.227633 	0 -0.179956 	-0.227553 	0 -0.180155 	-0.227474 	0 -0.180818 	-0.227215 	0 -0.181481 	-0.226955 	0 -0.18214 	-0.226692 	0 -0.182799 	-0.226429 	0 -0.183438 	-0.226174 	0 -0.183813 	-0.226026 	0 -0.184188 	-0.225879 	0 -0.184563 	-0.225731 	0 -0.184938 	-0.225583 	0 -0.185316 	-0.225434 	0 -0.185583 	-0.225328 	0 -0.18585 	-0.225223 	0 -0.186118 	-0.225117 	0 -0.186385 	-0.225012 	0 -0.186649 	-0.224907 	0 -0.187285 	-0.22466 	0 -0.187921 	-0.224413 	0 -0.188554 	-0.224163 	0 -0.189185 	-0.223911 	0 -0.1898 	-0.223667 	0 -0.190161 	-0.223525 	0 -0.190522 	-0.223384 	0 -0.190883 	-0.223243 	0 -0.191244 	-0.223101 	0 -0.191608 	-0.222958 	0 -0.191864 	-0.222858 	0 -0.19212 	-0.222758 	0 -0.192376 	-0.222657 	0 -0.192631 	-0.222557 	0 -0.192884 	-0.222457 	0 -0.193496 	-0.222222 	0 -0.194107 	-0.221986 	0 -0.194716 	-0.221746 	0 -0.195323 	-0.221507 	0 -0.195915 	-0.221272 	0 -0.196338 	-0.221109 	0 -0.196761 	-0.220945 	0 -0.197184 	-0.22078 	0 -0.197606 	-0.220616 	0 -0.198034 	-0.22045 	0 -0.198203 	-0.220384 	0 -0.198373 	-0.220318 	0 -0.198543 	-0.220252 	0 -0.198713 	-0.220186 	0 -0.198882 	-0.22012 	0 -0.199472 	-0.219896 	0 -0.200059 	-0.219668 	0 -0.200645 	-0.219439 	0 -0.201231 	-0.219211 	0 -0.201803 	-0.218986 	0 -0.20236 	-0.218773 	0 -0.202917 	-0.21856 	0 -0.203474 	-0.218346 	0 -0.20403 	-0.218132 	0 -0.204595 	-0.217915 	0 -0.204607 	-0.21791 	0 -0.20462 	-0.217905 	0 -0.204633 	-0.2179 	0 -0.204646 	-0.217895 	0 -0.204658 	-0.21789 	0 -0.205226 	-0.217673 	0 -0.205793 	-0.217455 	0 -0.206359 	-0.217238 	0 -0.206925 	-0.21702 	0 -0.207479 	-0.216806 	0 -0.208034 	-0.216597 	0 -0.208589 	-0.216387 	0 -0.209143 	-0.216178 	0 -0.209696 	-0.215967 	0 -0.210236 	-0.215757 	0 -0.210447 	-0.215677 	0 -0.210657 	-0.215597 	0 -0.210867 	-0.215517 	0 -0.211077 	-0.215437 	0 -0.211289 	-0.215357 	0 -0.211622 	-0.215231 	0 -0.211955 	-0.215105 	0 -0.212288 	-0.214979 	0 -0.212621 	-0.214853 	0 -0.21295 	-0.214727 	0 -0.213488 	-0.214529 	0 -0.214026 	-0.21433 	0 -0.21456 	-0.214127 	0 -0.215094 	-0.213923 	0 -0.215618 	-0.213723 	0 -0.216118 	-0.213537 	0 -0.216619 	-0.213351 	0 -0.217118 	-0.213164 	0 -0.217617 	-0.212978 	0 -0.218124 	-0.212789 	0 -0.218145 	-0.212781 	0 -0.218166 	-0.212773 	0 -0.218187 	-0.212765 	0 -0.218208 	-0.212757 	0 -0.21823 	-0.212749 	0 -0.21875 	-0.212557 	0 -0.219269 	-0.212363 	0 -0.219787 	-0.21217 	0 -0.220305 	-0.211976 	0 -0.220815 	-0.211786 	0 -0.221324 	-0.211601 	0 -0.221834 	-0.211416 	0 -0.222343 	-0.211231 	0 -0.222848 	-0.211041 	0 -0.223345 	-0.210853 	0 -0.223694 	-0.210726 	0 -0.224043 	-0.210598 	0 -0.224392 	-0.210471 	0 -0.22474 	-0.210343 	0 -0.225092 	-0.210214 	0 -0.22524 	-0.21016 	0 -0.225387 	-0.210106 	0 -0.225535 	-0.210052 	0 -0.225682 	-0.209998 	0 -0.22583 	-0.209944 	0 -0.226325 	-0.209769 	0 -0.226818 	-0.209588 	0 -0.22731 	-0.209408 	0 -0.227801 	-0.209227 	0 -0.228286 	-0.209049 	0 -0.228769 	-0.208877 	0 -0.229253 	-0.208706 	0 -0.229736 	-0.208534 	0 -0.230217 	-0.208358 	0 -0.23069 	-0.208183 	0 -0.23099 	-0.208075 	0 -0.231291 	-0.207967 	0 -0.231591 	-0.20786 	0 -0.231891 	-0.207752 	0 -0.232194 	-0.207643 	0 -0.232366 	-0.207582 	0 -0.232538 	-0.207521 	0 -0.23271 	-0.207459 	0 -0.232882 	-0.207398 	0 -0.233054 	-0.207336 	0 -0.233526 	-0.207174 	0 -0.233994 	-0.207006 	0 -0.234462 	-0.206838 	0 -0.23493 	-0.20667 	0 -0.235391 	-0.206504 	0 -0.235852 	-0.206345 	0 -0.236312 	-0.206186 	0 -0.236772 	-0.206027 	0 -0.237229 	-0.205863 	0 -0.23768 	-0.205699 	0 -0.238028 	-0.205578 	0 -0.238376 	-0.205456 	0 -0.238724 	-0.205335 	0 -0.239071 	-0.205213 	0 -0.239423 	-0.20509 	0 -0.239523 	-0.205055 	0 -0.239624 	-0.20502 	0 -0.239725 	-0.204985 	0 -0.239826 	-0.20495 	0 -0.239927 	-0.204915 	0 -0.240375 	-0.204763 	0 -0.240822 	-0.204607 	0 -0.241268 	-0.204452 	0 -0.241714 	-0.204296 	0 -0.242154 	-0.204142 	0 -0.242594 	-0.203995 	0 -0.243033 	-0.203849 	0 -0.24347 	-0.203699 	0 -0.243905 	-0.203546 	0 -0.244336 	-0.203394 	0 -0.244765 	-0.203249 	0 -0.245193 	-0.203105 	0 -0.245622 	-0.20296 	0 -0.246049 	-0.202815 	0 -0.246472 	-0.20267 	0 -0.246531 	-0.20265 	0 -0.24659 	-0.202629 	0 -0.24665 	-0.202609 	0 -0.246709 	-0.202589 	0 -0.246769 	-0.202569 	0 -0.247135 	-0.202446 	0 -0.247501 	-0.202323 	0 -0.247866 	-0.202199 	0 -0.248231 	-0.202076 	0 -0.248593 	-0.201954 	0 -0.249013 	-0.201819 	0 -0.249432 	-0.201683 	0 -0.249849 	-0.201541 	0 -0.250264 	-0.201399 	0 -0.250676 	-0.201259 	0 -0.251086 	-0.201126 	0 -0.251496 	-0.200994 	0 -0.251906 	-0.200861 	0 -0.252314 	-0.200725 	0 -0.252716 	-0.200587 	0 -0.253016 	-0.200489 	0 -0.253316 	-0.200391 	0 -0.253616 	-0.200292 	0 -0.253916 	-0.200194 	0 -0.254219 	-0.200095 	0 -0.254319 	-0.200063 	0 -0.25442 	-0.20003 	0 -0.25452 	-0.199997 	0 -0.254621 	-0.199965 	0 -0.254721 	-0.199932 	0 -0.255122 	-0.199806 	0 -0.255521 	-0.199676 	0 -0.25592 	-0.199546 	0 -0.256318 	-0.199416 	0 -0.256713 	-0.199287 	0 -0.257106 	-0.199166 	0 -0.257498 	-0.199046 	0 -0.257888 	-0.198919 	0 -0.258277 	-0.198791 	0 -0.258663 	-0.198664 	0 -0.259046 	-0.198545 	0 -0.25943 	-0.198426 	0 -0.259813 	-0.198307 	0 -0.260195 	-0.198188 	0 -0.260572 	-0.198062 	0 -0.260808 	-0.197988 	0 -0.261045 	-0.197914 	0 -0.261281 	-0.19784 	0 -0.261517 	-0.197766 	0 -0.261756 	-0.197691 	0 -0.261895 	-0.197648 	0 -0.262035 	-0.197605 	0 -0.262174 	-0.197562 	0 -0.262314 	-0.197519 	0 -0.262454 	-0.197475 	0 -0.26283 	-0.197364 	0 -0.263204 	-0.197248 	0 -0.263577 	-0.197132 	0 -0.26395 	-0.197016 	0 -0.264321 	-0.196901 	0 -0.264689 	-0.196795 	0 -0.265057 	-0.196689 	0 -0.265422 	-0.196576 	0 -0.265786 	-0.196462 	0 -0.266148 	-0.196348 	0 -0.266507 	-0.196244 	0 -0.266867 	-0.19614 	0 -0.267226 	-0.196036 	0 -0.267583 	-0.19593 	0 -0.267937 	-0.195818 	0 -0.268219 	-0.195736 	0 -0.268502 	-0.195653 	0 -0.268785 	-0.195571 	0 -0.269067 	-0.195488 	0 -0.269352 	-0.195405 	0 -0.26942 	-0.195386 	0 -0.269488 	-0.195366 	0 -0.269557 	-0.195346 	0 -0.269625 	-0.195327 	0 -0.269694 	-0.195307 	0 -0.270045 	-0.195209 	0 -0.270396 	-0.195109 	0 -0.270747 	-0.195009 	0 -0.271097 	-0.194908 	0 -0.271445 	-0.194809 	0 -0.27179 	-0.194719 	0 -0.272135 	-0.194628 	0 -0.272477 	-0.19453 	0 -0.272819 	-0.194432 	0 -0.273159 	-0.194335 	0 -0.273496 	-0.194248 	0 -0.273833 	-0.194162 	0 -0.27417 	-0.194075 	0 -0.274504 	-0.193982 	0 -0.274836 	-0.193887 	0 -0.275165 	-0.193804 	0 -0.275494 	-0.19372 	0 -0.275822 	-0.193637 	0 -0.276151 	-0.193553 	0 -0.276477 	-0.193466 	0 -0.276575 	-0.193442 	0 -0.276674 	-0.193417 	0 -0.276773 	-0.193393 	0 -0.276871 	-0.193368 	0 -0.276972 	-0.193343 	0 -0.277198 	-0.193288 	0 -0.277426 	-0.193232 	0 -0.277654 	-0.193177 	0 -0.277881 	-0.193121 	0 -0.278108 	-0.193066 	0 -0.278432 	-0.192999 	0 -0.278754 	-0.192923 	0 -0.279076 	-0.192847 	0 -0.279397 	-0.19277 	0 -0.279717 	-0.192695 	0 -0.280033 	-0.192632 	0 -0.28035 	-0.19257 	0 -0.280664 	-0.192501 	0 -0.280978 	-0.19243 	0 -0.28129 	-0.192359 	0 -0.281599 	-0.192302 	0 -0.281908 	-0.192245 	0 -0.282216 	-0.192189 	0 -0.282524 	-0.192128 	0 -0.282829 	-0.192062 	0 -0.283129 	-0.192011 	0 -0.283431 	-0.191961 	0 -0.283732 	-0.191911 	0 -0.284033 	-0.19186 	0 -0.284332 	-0.191809 	0 -0.284378 	-0.191802 	0 -0.284424 	-0.191795 	0 -0.28447 	-0.191788 	0 -0.284517 	-0.191781 	0 -0.284564 	-0.191775 	0 -0.284818 	-0.191738 	0 -0.285073 	-0.191702 	0 -0.285328 	-0.191666 	0 -0.285582 	-0.19163 	0 -0.285837 	-0.191594 	0 -0.286134 	-0.191569 	0 -0.286429 	-0.191535 	0 -0.286724 	-0.191501 	0 -0.287019 	-0.191467 	0 -0.287314 	-0.191433 	0 -0.287603 	-0.191418 	0 -0.287894 	-0.191404 	0 -0.288182 	-0.191382 	0 -0.28847 	-0.191358 	0 -0.288757 	-0.191334 	0 -0.289039 	-0.191331 	0 -0.289322 	-0.191329 	0 -0.289605 	-0.191326 	0 -0.289887 	-0.191318 	0 -0.290167 	-0.191305 	0 -0.290442 	-0.191316 	0 -0.290718 	-0.191327 	0 -0.290994 	-0.191338 	0 -0.291269 	-0.191349 	0 -0.291544 	-0.191356 	0 -0.291644 	-0.191365 	0 -0.291744 	-0.191375 	0 -0.291845 	-0.191385 	0 -0.291945 	-0.191395 	0 -0.292047 	-0.191405 	0 -0.292219 	-0.191422 	0 -0.292392 	-0.191439 	0 -0.292566 	-0.191457 	0 -0.292739 	-0.191474 	0 -0.292913 	-0.191492 	0 -0.293183 	-0.191546 	0 -0.293453 	-0.191591 	0 -0.293723 	-0.191637 	0 -0.293993 	-0.191683 	0 -0.294263 	-0.191729 	0 -0.294526 	-0.191807 	0 -0.29479 	-0.191883 	0 -0.295053 	-0.19195 	0 -0.295315 	-0.192016 	0 -0.295578 	-0.192083 	0 -0.295834 	-0.192185 	0 -0.296091 	-0.192287 	0 -0.296348 	-0.192388 	0 -0.296603 	-0.192478 	0 -0.29686 	-0.192569 	0 -0.297108 	-0.192697 	0 -0.297358 	-0.192827 	0 -0.297607 	-0.192956 	0 -0.297856 	-0.193086 	0 -0.298106 	-0.193203 	0 -0.298332 	-0.193352 	0 -0.298559 	-0.193502 	0 -0.298786 	-0.193653 	0 -0.299013 	-0.193803 	0 -0.299241 	-0.193954 	0 -0.299257 	-0.193964 	0 -0.299272 	-0.193974 	0 -0.299288 	-0.193984 	0 -0.299303 	-0.193994 	0 -0.29932 	-0.194006 	0 -0.299563 	-0.194204 	0 -0.299808 	-0.194403 	0 -0.300052 	-0.194602 	0 -0.300297 	-0.194801 	0 -0.300543 	-0.195002 	0 -0.30078 	-0.195255 	0 -0.301017 	-0.195495 	0 -0.301255 	-0.195733 	0 -0.301493 	-0.195971 	0 -0.301732 	-0.196211 	0 -0.301963 	-0.196509 	0 -0.302195 	-0.196808 	0 -0.302427 	-0.197093 	0 -0.302659 	-0.197374 	0 -0.302893 	-0.197659 	0 -0.303117 	-0.198005 	0 -0.303344 	-0.198354 	0 -0.303571 	-0.198702 	0 -0.303797 	-0.199037 	0 -0.304026 	-0.19937 	0 -0.304246 	-0.199771 	0 -0.304467 	-0.200175 	0 -0.304688 	-0.200578 	0 -0.30491 	-0.200981 	0 -0.305134 	-0.201373 	0 -0.305293 	-0.201715 	0 -0.305453 	-0.202058 	0 -0.305613 	-0.202402 	0 -0.305773 	-0.202745 	0 -0.305934 	-0.203088 	0 -0.305992 	-0.203209 	0 -0.30605 	-0.20333 	0 -0.30611 	-0.203452 	0 -0.306169 	-0.203574 	0 -0.306229 	-0.203698 	0 -0.306448 	-0.204237 	0 -0.306669 	-0.204771 	0 -0.30689 	-0.205305 	0 -0.307111 	-0.205839 	0 -0.307336 	-0.206379 	0 -0.307549 	-0.207007 	0 -0.307765 	-0.207621 	0 -0.307982 	-0.208228 	0 -0.308199 	-0.208835 	0 -0.308419 	-0.209448 	0 -0.308627 	-0.210157 	0 -0.308837 	-0.210868 	0 -0.309049 	-0.211562 	0 -0.309262 	-0.212247 	0 -0.309478 	-0.212941 	0 -0.30968 	-0.213737 	0 -0.309885 	-0.214535 	0 -0.31009 	-0.215332 	0 -0.310297 	-0.216113 	0 -0.310509 	-0.216893 	0 -0.310705 	-0.217783 	0 -0.310904 	-0.218674 	0 -0.311103 	-0.219565 	0 -0.311304 	-0.220455 	0 -0.31151 	-0.221342 	0 -0.311611 	-0.221869 	0 -0.311713 	-0.222398 	0 -0.311816 	-0.222928 	0 -0.311919 	-0.223457 	0 -0.312023 	-0.223982 	0 -0.312118 	-0.224447 	0 -0.312214 	-0.224916 	0 -0.312311 	-0.225385 	0 -0.312408 	-0.225854 	0 -0.312507 	-0.226329 	0 -0.3127 	-0.227451 	0 -0.312897 	-0.228558 	0 -0.313095 	-0.229664 	0 -0.313295 	-0.23077 	0 -0.313499 	-0.231894 	0 -0.313685 	-0.233149 	0 -0.313874 	-0.234393 	0 -0.314066 	-0.235613 	0 -0.31426 	-0.236832 	0 -0.314459 	-0.238075 	0 -0.314638 	-0.239454 	0 -0.31482 	-0.240835 	0 -0.315004 	-0.242203 	0 -0.315192 	-0.243542 	0 -0.315386 	-0.24491 	0 -0.315559 	-0.246418 	0 -0.315735 	-0.247929 	0 -0.315912 	-0.249437 	0 -0.316091 	-0.250937 	0 -0.316281 	-0.252436 	0 -0.316447 	-0.254069 	0 -0.316616 	-0.255704 	0 -0.316786 	-0.257335 	0 -0.316958 	-0.258964 	0 -0.317127 	-0.260537 	0 -0.31713 	-0.260568 	0 -0.317133 	-0.260598 	0 -0.317137 	-0.260628 	0 -0.31714 	-0.260659 	0 -0.317144 	-0.260691 	0 -0.317316 	-0.262494 	0 -0.317492 	-0.264298 	0 -0.317669 	-0.266098 	0 -0.317849 	-0.267895 	0 -0.318035 	-0.26974 	0 -0.318196 	-0.271741 	0 -0.318364 	-0.273704 	0 -0.318536 	-0.275651 	0 -0.31871 	-0.277594 	0 -0.318892 	-0.279594 	0 -0.319047 	-0.28175 	0 -0.319205 	-0.283906 	0 -0.319368 	-0.286031 	0 -0.319537 	-0.288125 	0 -0.319715 	-0.290285 	0 -0.319864 	-0.292601 	0 -0.320016 	-0.294916 	0 -0.32017 	-0.297225 	0 -0.320328 	-0.299519 	0 -0.320502 	-0.301844 	0 -0.320626 	-0.303996 	0 -0.320753 	-0.30615 	0 -0.320881 	-0.308298 	0 -0.321012 	-0.31044 	0 -0.321141 	-0.312509 	0 -0.321165 	-0.312865 	0 -0.321188 	-0.313222 	0 -0.321213 	-0.313582 	0 -0.321237 	-0.313941 	0 -0.321262 	-0.314309 	0 -0.32141 	-0.316996 	0 -0.321562 	-0.319669 	0 -0.321718 	-0.322334 	0 -0.321876 	-0.32499 	0 -0.322044 	-0.327751 	0 -0.322178 	-0.330663 	0 -0.322319 	-0.33355 	0 -0.322469 	-0.336384 	0 -0.322622 	-0.339209 	0 -0.322786 	-0.342153 	0 -0.322914 	-0.345242 	0 -0.323045 	-0.348327 	0 -0.32318 	-0.3514 	0 -0.323326 	-0.354409 	0 -0.323485 	-0.357539 	0 -0.323606 	-0.360806 	0 -0.323732 	-0.364068 	0 -0.323861 	-0.367318 	0 -0.323993 	-0.370555 	0 -0.324138 	-0.373931 	0 -0.324149 	-0.374306 	0 -0.324162 	-0.374688 	0 -0.324175 	-0.37507 	0 -0.324189 	-0.375455 	0 -0.324202 	-0.37584 	0 -0.324318 	-0.378945 	0 -0.324438 	-0.382047 	0 -0.32456 	-0.385139 	0 -0.324685 	-0.388219 	0 -0.32482 	-0.391436 	0 -0.32493 	-0.39519 	0 -0.32505 	-0.3989 	0 -0.32518 	-0.4