/*--------------------------------*- C++ -*----------------------------------*\
  =========                 |
  \\      /  F ield         | OpenFOAM: The Open Source CFD Toolbox
   \\    /   O peration     | Website:  https://openfoam.org
    \\  /    A nd           | Version:  6
     \\/     M anipulation  |
\*---------------------------------------------------------------------------*/
FoamFile
{
    version     2.0;
    format      ascii;
    class       volScalarField;
    location    "5";
    object      epsilon;
}
// * * * * * * * * * * * * * * * * * * * * * * * * * * * * * * * * * * * * * //

dimensions      [0 2 -3 0 0 0 0];

internalField   nonuniform List<scalar> 
130000
(
17.3008
17.3193
17.1295
16.7712
16.3044
15.7959
15.3032
14.8647
14.4991
14.2105
13.9932
13.8369
13.7302
13.6625
13.6245
13.6083
13.6076
13.6174
13.6344
13.6566
17.3079
17.3374
17.1507
16.7893
16.3166
15.8032
15.3077
14.8684
14.5037
14.2165
14.0009
13.8462
13.7405
13.6738
13.6369
13.6216
13.6215
13.6316
13.6483
13.6697
17.3163
17.3493
17.1629
16.7991
16.3238
15.8084
15.3115
14.8714
14.5061
14.2189
14.0035
13.8494
13.7444
13.6782
13.6414
13.6261
13.6256
13.6353
13.6514
13.6723
17.3232
17.3555
17.167
16.8013
16.3245
15.8081
15.3107
14.8703
14.505
14.2178
14.0025
13.8489
13.7446
13.6788
13.6424
13.6267
13.6258
13.635
13.6504
13.6715
17.3255
17.3557
17.1651
16.798
16.3201
15.803
15.3055
14.8656
14.5008
14.2142
13.9993
13.8457
13.7415
13.676
13.6406
13.6254
13.6247
13.6336
13.6495
13.6713
17.3282
17.3558
17.1625
16.7929
16.3132
15.7954
15.2979
14.8586
14.4948
14.2093
13.9953
13.8423
13.7386
13.6733
13.6377
13.6226
13.6226
13.6325
13.65
13.6719
17.3314
17.3555
17.1587
16.7863
16.3048
15.7862
15.289
14.8505
14.4879
14.2035
13.9906
13.8385
13.7352
13.6701
13.6338
13.6188
13.6197
13.6316
13.6491
13.6708
17.3315
17.3524
17.1532
16.7785
16.2954
15.7764
15.2794
14.8419
14.4805
14.1974
13.9857
13.8345
13.732
13.6675
13.6315
13.6166
13.6172
13.6288
13.6462
13.6682
17.3316
17.3503
17.1484
16.7713
16.2866
15.7669
15.2702
14.8336
14.4734
14.1916
13.9811
13.831
13.7294
13.6659
13.631
13.6165
13.6167
13.627
13.6435
13.6651
17.3335
17.3498
17.1449
16.7651
16.2787
15.7583
15.2618
14.8259
14.4668
14.1862
13.9769
13.828
13.7276
13.6652
13.6305
13.6165
13.6167
13.6265
13.6422
13.6636
17.3365
17.3503
17.1429
16.7606
16.2723
15.751
15.2545
14.8192
14.461
14.1815
13.9731
13.8252
13.7257
13.6638
13.6282
13.6141
13.6141
13.6238
13.6396
13.6616
17.3406
17.3514
17.1424
16.7577
16.2675
15.7451
15.2483
14.8133
14.4558
14.1773
13.9698
13.8226
13.7234
13.6618
13.6266
13.6123
13.6124
13.6227
13.6398
13.6621
17.3459
17.3543
17.1424
16.7559
16.2636
15.74
15.2428
14.8081
14.4513
14.1736
13.9672
13.8209
13.7226
13.6608
13.6263
13.6116
13.6115
13.6218
13.6391
13.6619
17.3536
17.3594
17.1441
16.7544
16.26
15.7351
15.2375
14.803
14.447
14.1704
13.9653
13.82
13.7219
13.6603
13.6256
13.6102
13.6099
13.6204
13.6378
13.6609
17.3606
17.364
17.1451
16.752
16.2557
15.7297
15.2318
14.7978
14.4427
14.1673
13.9635
13.8191
13.7212
13.6604
13.6267
13.6125
13.6127
13.6231
13.6403
13.6628
17.3658
17.3665
17.1447
16.7493
16.251
15.7238
15.2257
14.7924
14.4384
14.1643
13.9618
13.8193
13.7237
13.6644
13.6317
13.6179
13.618
13.6279
13.6445
13.6668
17.3708
17.3686
17.1447
16.7472
16.2468
15.7184
15.22
14.7873
14.4344
14.1616
13.9604
13.8192
13.7246
13.6662
13.6343
13.6213
13.6217
13.6318
13.6486
13.6709
17.3791
17.374
17.1466
16.7468
16.2448
15.7155
15.2167
14.7839
14.4315
14.1594
13.9589
13.818
13.724
13.6662
13.6348
13.6236
13.6253
13.6364
13.6537
13.6759
17.3916
17.3835
17.1525
16.7494
16.2454
15.7147
15.2151
14.782
14.4297
14.1582
13.9583
13.8179
13.7238
13.6665
13.6362
13.6256
13.6279
13.6393
13.6568
13.6787
17.4047
17.3945
17.1605
16.7543
16.2476
15.7151
15.2145
14.7808
14.4287
14.1574
13.9577
13.8172
13.723
13.6658
13.636
13.6245
13.6263
13.6375
13.655
13.6771
17.4189
17.407
17.17
16.7605
16.251
15.7164
15.2145
14.7802
14.4278
14.1566
13.9574
13.8178
13.725
13.6681
13.6375
13.625
13.6261
13.6366
13.6539
13.6761
17.4353
17.4216
17.1814
16.7682
16.2555
15.7184
15.2149
14.7798
14.427
14.1557
13.9568
13.8181
13.7265
13.6705
13.6403
13.6277
13.6289
13.6398
13.6573
13.6798
17.4539
17.4379
17.194
16.777
16.2607
15.721
15.2157
14.7797
14.4265
14.1551
13.9563
13.8174
13.726
13.6706
13.6408
13.6297
13.6325
13.6445
13.6623
13.6844
17.4726
17.4546
17.2072
16.7862
16.2664
15.7239
15.2169
14.7797
14.4259
14.1543
13.9557
13.8172
13.7261
13.6716
13.6423
13.6322
13.6348
13.6469
13.665
13.6874
17.4916
17.4721
17.2213
16.7963
16.2728
15.7274
15.2184
14.7801
14.4257
14.1538
13.9551
13.817
13.7272
13.6727
13.644
13.6332
13.6355
13.6478
13.6663
13.6893
17.5128
17.4917
17.2372
16.8078
16.2803
15.7317
15.2205
14.7808
14.4259
14.154
13.9556
13.8176
13.7275
13.6729
13.644
13.6331
13.6361
13.6486
13.6672
13.6898
17.5373
17.5139
17.2552
16.8208
16.2888
15.7366
15.2229
14.7817
14.426
14.1538
13.9553
13.8173
13.727
13.673
13.6447
13.6341
13.6373
13.65
13.6688
13.6914
17.563
17.5374
17.2742
16.8347
16.2979
15.7419
15.2255
14.7824
14.4255
14.1525
13.9536
13.8156
13.7257
13.6725
13.6447
13.6346
13.6381
13.6514
13.6704
13.6928
17.5895
17.5618
17.294
16.8491
16.3074
15.7474
15.2281
14.7831
14.4249
14.1511
13.9519
13.8138
13.7237
13.6702
13.6422
13.6314
13.6346
13.6484
13.6684
13.6913
17.617
17.587
17.3147
16.8643
16.3175
15.7533
15.231
14.784
14.4246
14.1501
13.9503
13.8117
13.7212
13.6677
13.6395
13.6286
13.6324
13.6457
13.6656
13.6885
17.6452
17.6131
17.3361
16.8801
16.3281
15.7597
15.2344
14.7854
14.4249
14.1498
13.9499
13.8114
13.7207
13.6662
13.6385
13.6289
13.6329
13.6457
13.6643
13.6867
17.6743
17.64
17.3584
16.8968
16.3395
15.7668
15.2383
14.7872
14.4256
14.1502
13.9504
13.8121
13.7216
13.6671
13.6392
13.6288
13.6323
13.6448
13.6631
13.6854
17.7047
17.6683
17.3818
16.9145
16.3518
15.7746
15.2428
14.7896
14.4266
14.1505
13.9503
13.8118
13.7214
13.6672
13.639
13.628
13.6313
13.6434
13.6613
13.6832
17.7366
17.698
17.4066
16.9334
16.3651
15.7833
15.2482
14.7926
14.4282
14.1512
13.9505
13.812
13.7222
13.6691
13.642
13.6323
13.6357
13.6471
13.6635
13.6846
17.7698
17.729
17.4327
16.9535
16.3794
15.7929
15.2542
14.7965
14.4309
14.1536
13.9532
13.8151
13.7258
13.673
13.6459
13.6355
13.6389
13.6494
13.6655
13.6867
17.8046
17.7616
17.4602
16.9748
16.3947
15.8032
15.2607
14.8004
14.4334
14.1555
13.9546
13.8162
13.7267
13.6738
13.6461
13.6349
13.639
13.6495
13.6667
13.6888
17.8416
17.7962
17.4895
16.9976
16.4111
15.8142
15.2676
14.8044
14.4354
14.1562
13.9545
13.8158
13.726
13.6731
13.6453
13.6342
13.6382
13.6497
13.6674
13.6901
17.8806
17.8328
17.5206
17.022
16.4288
15.8262
15.2751
14.8086
14.4373
14.1568
13.9548
13.8159
13.7259
13.6724
13.6442
13.6336
13.6377
13.6496
13.6678
13.6903
17.9215
17.8713
17.5536
17.0481
16.448
15.8394
15.2835
14.8135
14.4398
14.1574
13.9543
13.8147
13.7244
13.671
13.6436
13.6343
13.6383
13.6502
13.6686
13.691
17.9645
17.911
17.5884
17.076
16.4688
15.8539
15.2931
14.8194
14.443
14.1589
13.9545
13.8143
13.7236
13.6702
13.6433
13.634
13.6379
13.6512
13.6701
13.6925
18.0106
17.9547
17.6262
17.1064
16.4917
15.8701
15.304
14.8264
14.4472
14.1611
13.9555
13.8145
13.7235
13.67
13.6425
13.6339
13.6392
13.6533
13.6725
13.6949
18.0597
18.0015
17.667
17.1393
16.5167
15.8881
15.3164
14.8346
14.4524
14.1642
13.9569
13.8149
13.7236
13.6704
13.644
13.6361
13.642
13.6564
13.6757
13.6981
18.1119
18.0514
17.7107
17.1748
16.5438
15.9079
15.3303
14.8441
14.4589
14.1688
13.9603
13.8177
13.7262
13.6732
13.6471
13.6395
13.6457
13.6603
13.6797
13.7019
18.1675
18.1048
17.7577
17.2132
16.5734
15.9297
15.3458
14.8549
14.4665
14.1743
13.9646
13.8214
13.7298
13.6768
13.6509
13.6436
13.65
13.6648
13.6841
13.7062
18.227
18.1622
17.8082
17.2547
16.6056
15.9535
15.3629
14.8671
14.4752
14.1807
13.9697
13.8258
13.734
13.6811
13.6554
13.6483
13.6549
13.6698
13.6892
13.7111
18.2905
18.2234
17.8624
17.2994
16.6404
15.9795
15.3818
14.8806
14.485
14.1881
13.9756
13.8309
13.7388
13.6859
13.6604
13.6536
13.6605
13.6755
13.6949
13.7166
18.3578
18.2887
17.9204
17.3475
16.6781
16.0079
15.4025
14.8956
14.4959
14.1964
13.9822
13.8367
13.7442
13.6914
13.6661
13.6595
13.6667
13.6819
13.7012
13.7228
18.4292
18.3583
17.9826
17.3993
16.719
16.0389
15.4254
14.9123
14.5083
14.2058
13.9899
13.8434
13.7505
13.6977
13.6725
13.6661
13.6736
13.689
13.7083
13.7296
18.5058
18.4334
18.05
17.4557
16.7637
16.073
15.4507
14.931
14.5221
14.2165
13.9985
13.851
13.7576
13.7047
13.6797
13.6736
13.6813
13.6969
13.7162
13.7372
18.5887
18.5149
18.1233
17.5173
16.8128
16.1106
15.4788
14.9518
14.5378
14.2286
14.0084
13.8596
13.7657
13.7127
13.6878
13.682
13.69
13.7057
13.7249
13.7457
18.6797
18.6041
18.2036
17.5849
16.8668
16.1521
15.51
14.9751
14.5553
14.2423
14.0197
13.8694
13.7749
13.7218
13.697
13.6915
13.6997
13.7155
13.7347
13.7551
18.7787
18.7012
18.291
17.6586
16.9259
16.1977
15.5445
15.001
14.575
14.2577
14.0324
13.8806
13.7853
13.7321
13.7074
13.7021
13.7106
13.7267
13.7458
13.7658
18.885
18.8058
18.3855
17.7385
16.9902
16.2477
15.5825
15.0297
14.597
14.2751
14.0468
13.8933
13.7972
13.7438
13.7191
13.7142
13.723
13.7392
13.7583
13.778
18.9991
18.9185
18.4876
17.8252
17.0601
16.3023
15.6242
15.0615
14.6215
14.2946
14.0631
13.9077
13.8107
13.757
13.7325
13.7278
13.737
13.7534
13.7724
13.7917
19.1221
19.0401
18.5981
17.9192
17.1364
16.3621
15.6702
15.0967
14.6489
14.3165
14.0815
13.9241
13.826
13.7721
13.7476
13.7433
13.7528
13.7694
13.7883
13.807
19.2548
19.1719
18.718
18.0216
17.2197
16.4277
15.7209
15.1359
14.6795
14.3413
14.1024
13.9427
13.8435
13.7892
13.7648
13.7609
13.7707
13.7875
13.8061
13.8242
19.3989
19.315
18.8486
18.1334
17.311
16.4999
15.7771
15.1795
14.7139
14.3692
14.1262
13.9639
13.8635
13.8088
13.7845
13.7809
13.7911
13.8081
13.8265
13.8439
19.5551
19.4706
18.9909
18.2555
17.4112
16.5795
15.8393
15.2281
14.7524
14.4007
14.1531
13.9881
13.8863
13.8312
13.8069
13.8037
13.8144
13.8315
13.8497
13.8663
19.725
19.6402
19.1463
18.3894
17.5212
16.6673
15.9084
15.2824
14.7958
14.4365
14.1839
14.0158
13.9124
13.8567
13.8324
13.8297
13.8409
13.8583
13.8762
13.892
19.9101
19.8253
19.3164
18.5362
17.6425
16.7646
15.9852
15.3432
14.8448
14.4771
14.219
14.0475
13.9423
13.886
13.8611
13.8594
13.8712
13.8889
13.9066
13.9214
20.1123
20.028
19.5031
18.6978
17.7764
16.8724
16.071
15.4116
14.9001
14.5234
14.2592
14.0841
13.977
13.9199
13.8952
13.8939
13.9062
13.9241
13.9414
13.9551
20.3336
20.2503
19.7082
18.876
17.9246
16.9924
16.1669
15.4885
14.9629
14.5762
14.3054
14.1262
14.0171
13.9592
13.9345
13.9338
13.9466
13.9647
13.9816
13.9939
20.576
20.4945
19.9342
19.0728
18.089
17.1261
16.2744
15.5753
15.0343
14.6367
14.3586
14.175
14.0635
14.0048
13.9802
13.98
13.9934
14.0116
14.0279
14.0387
20.8425
20.7635
20.1838
19.291
18.2719
17.2756
16.3954
15.6736
15.1157
14.7061
14.4201
14.2315
14.1175
14.0578
14.0333
14.0336
14.0476
14.0659
14.0816
14.0905
21.1362
21.0608
20.4604
19.5335
18.4762
17.4435
16.532
15.7854
15.2089
14.7862
14.4914
14.2974
14.1804
14.1196
14.0952
14.0961
14.1107
14.1291
14.1439
14.1504
21.4609
21.3902
20.7678
19.804
18.705
17.6325
16.6869
15.9131
15.3161
14.8789
14.5743
14.3743
14.2541
14.1921
14.1677
14.1693
14.1844
14.2028
14.2165
14.2206
21.8207
21.7564
21.1106
20.1069
18.9622
17.8462
16.8631
16.0594
15.4399
14.9867
14.6714
14.4647
14.341
14.2775
14.2532
14.2554
14.271
14.2894
14.3017
14.303
22.2209
22.1651
21.4944
20.4472
19.2528
18.089
17.0647
16.2279
15.5836
15.1126
14.7854
14.5713
14.4436
14.3785
14.3542
14.357
14.3732
14.3913
14.402
14.4001
22.6679
22.6228
21.9257
20.8312
19.5824
18.3661
17.2963
16.4231
15.7512
15.2606
14.9201
14.6976
14.5654
14.4986
14.4742
14.4776
14.4943
14.512
14.5206
14.5148
23.1687
23.1374
22.4124
21.2666
19.958
18.6839
17.5639
16.6503
15.9478
15.4353
15.0799
14.8482
14.7109
14.642
14.6174
14.6214
14.6385
14.6555
14.6617
14.6511
23.732
23.7184
22.9641
21.7624
20.3883
19.0505
17.8748
16.9164
16.1799
15.6429
15.2709
15.0287
14.8856
14.8142
14.7894
14.7938
14.8112
14.8272
14.8304
14.8139
24.3683
24.3773
23.5926
22.3303
20.8842
19.4759
18.2386
17.2303
16.4558
15.8913
15.5006
15.2465
15.0967
15.0224
14.9971
15.0018
15.0192
15.0338
15.0332
15.0095
25.0907
25.1266
24.3122
22.9845
21.4594
19.9731
18.6673
17.6033
16.7862
16.1909
15.7789
15.5112
15.3537
15.2759
15.2497
15.2545
15.2715
15.284
15.2784
15.2458
25.9161
25.9872
25.142
23.7433
22.1313
20.5587
19.1765
18.0502
17.1853
16.5551
16.1191
15.8357
15.6691
15.5868
15.5592
15.5635
15.5795
15.5889
15.5769
15.5329
26.8637
26.9803
26.1052
24.63
22.9225
21.2541
19.7868
18.5906
17.6718
17.0022
16.5386
16.2371
16.0596
15.9718
15.9419
15.9449
15.9588
15.9637
15.9432
15.8847
27.9589
28.1342
27.2316
25.6745
23.8623
22.0878
20.5254
19.2508
18.2712
17.5567
17.0615
16.7389
16.5482
16.4531
16.4195
16.4198
16.4302
16.4286
16.3966
16.3194
29.2334
29.4852
28.5597
26.9159
24.9894
23.0975
21.429
20.0664
19.0181
18.2525
17.721
17.3735
17.1666
17.0619
17.0226
17.0182
17.0226
17.0117
16.964
16.8623
30.7276
31.08
30.1397
28.4057
26.3554
24.3341
22.5477
21.0864
19.9605
19.1369
18.5635
18.1866
17.9598
17.8422
17.7941
17.7818
17.7766
17.7516
17.6819
17.5482
32.4949
32.9803
32.0384
30.2132
28.03
25.8672
23.9501
22.3787
21.1656
20.2761
19.6547
19.2432
18.9918
18.8568
18.7953
18.7703
18.75
18.7036
18.6034
18.4273
34.6046
35.2671
34.3444
32.4306
30.1074
27.7913
25.7308
24.0374
22.7271
21.7637
21.0875
20.6358
20.3542
20.1959
20.1147
20.0697
20.0259
19.9479
19.8054
19.5712
37.1478
38.0476
37.1755
35.1817
32.7145
30.2349
28.0191
26.1925
24.7756
23.7305
22.9932
22.4959
22.1781
21.9891
21.8794
21.8048
21.7261
21.6017
21.3995
21.0843
40.2444
41.4636
40.6881
38.6317
36.0213
33.3711
30.99
29.0207
27.4894
26.3568
25.5539
25.0068
24.648
24.4204
24.2704
24.1533
24.0246
23.8338
23.5477
23.1178
44.0538
45.7029
45.0889
42.9982
40.2522
37.4283
34.875
32.7565
31.1064
29.8844
29.0156
28.4185
28.0172
27.746
27.5456
27.3708
27.1676
26.8879
26.488
25.8931
48.7834
51.0091
50.6454
48.5621
45.6954
42.6992
39.9704
37.7
35.9317
34.6247
33.6967
33.0565
32.6178
32.3072
32.0608
31.8214
31.5264
31.1244
30.5518
29.7255
54.7014
57.6948
57.6973
55.6773
52.7111
49.5467
46.6409
44.2194
42.3396
40.961
39.9926
39.3304
38.8739
38.5375
38.2478
37.9405
37.5454
36.9907
36.1944
35.0622
62.147
66.1516
66.6651
64.7757
61.7329
58.4012
55.3136
52.741
50.7606
49.3345
48.3613
47.7213
47.2943
46.9758
46.6751
46.3178
45.825
45.102
44.0449
42.5273
71.5437
76.8598
78.0562
76.369
73.2633
69.7502
66.4606
63.7263
61.6537
60.2114
59.2877
58.7439
58.4337
58.2243
57.9945
57.6534
57.1134
56.2554
54.9337
52.9653
83.3996
90.3882
92.46
91.0379
87.8563
84.112
80.5642
77.6274
75.4523
74.0222
73.2173
72.8782
72.8323
72.9109
72.9301
72.7594
72.3121
71.4457
69.9363
67.5005
98.3118
107.394
110.54
109.416
106.089
101.992
98.0559
94.8102
92.4734
91.0579
90.4397
90.4308
90.8577
91.5512
92.1169
92.3795
92.4056
91.8717
90.3897
87.5907
116.963
128.615
133.001
132.147
128.499
123.794
119.196
115.403
112.741
111.278
110.905
111.481
112.85
114.652
116.43
117.801
118.536
118.727
117.83
115.082
140.133
154.919
160.452
159.82
155.471
149.643
143.839
139.005
135.64
133.919
133.802
135.19
137.917
141.431
145.34
149.183
152.367
154.159
154.237
152.311
168.801
187.298
194.096
193.005
187.057
179.07
171.013
164.185
159.338
156.806
156.724
159.063
163.563
169.658
176.893
184.676
192.175
198.306
201.738
201.706
204.18
226.819
234.455
231.682
222.445
210.417
198.251
187.762
180.097
175.774
175.195
178.42
185.206
194.938
207.163
221.177
235.95
250.041
261.4
267.495
248.27
275.117
282.24
275.164
259.446
240.087
220.776
203.857
191.006
183.463
181.662
185.534
195.089
209.677
228.654
251.61
277.455
304.565
330.153
349.986
305.325
335.542
338.561
321.526
293.54
261.552
230.64
206.117
188.335
177.767
174.533
178.352
189.349
207.166
231.266
264.307
304.566
350.361
398.833
444.704
386.018
414.756
403.322
365.471
315.355
265.226
221.523
186.377
161.393
146.541
141.26
144.828
157.158
178.502
210.002
250.666
302.259
365.697
444.006
529.202
521.637
525.947
471.844
389.051
307.827
234.939
176.691
134.621
107.281
92.0688
86.8858
89.878
100.846
120.479
150.487
193.255
252.11
333.136
435.324
562.135
786.582
658.378
497.401
352.56
234.682
150.122
94.7943
63.073
46.352
38.6188
36.2634
38.0403
44.0584
55.5206
75.0408
105.619
152.473
223.52
333.882
508.79
962.001
594.198
308.318
157.512
82.0135
46.8363
32.4469
24.8347
21.0362
19.5792
19.5743
20.4534
21.9544
24.2263
29.1025
38.4547
54.2734
81.9207
159.226
304.031
525.931
21.7821
40.8262
30.2083
20.5668
16.6668
15.8028
15.6932
15.5734
15.4578
15.388
15.3733
15.5633
16.1345
17.2914
19.0314
20.9874
24.029
29.2301
63.1139
14.0435
14.0187
13.97
13.9093
13.8425
13.7762
13.7158
13.665
13.6265
13.6014
13.5898
13.591
13.6045
13.629
13.6633
13.7064
13.7544
13.8027
13.8459
13.8816
14.057
14.0315
13.9825
13.9211
13.8537
13.787
13.7263
13.6745
13.6358
13.6107
13.5987
13.5995
13.6126
13.6373
13.6726
13.7159
13.7633
13.812
13.8552
13.8906
14.0571
14.0329
13.9841
13.9226
13.8549
13.7875
13.7277
13.677
13.6393
13.6145
13.6019
13.6016
13.6137
13.6379
13.6738
13.7176
13.7641
13.8113
13.8538
13.8899
14.0558
14.0323
13.9835
13.9217
13.8532
13.7848
13.7256
13.6764
13.6397
13.6162
13.6037
13.603
13.6147
13.6382
13.6729
13.7166
13.7635
13.8096
13.8522
13.8884
14.058
14.0323
13.9827
13.9205
13.8517
13.7834
13.7216
13.6717
13.6353
13.6134
13.6029
13.6038
13.6166
13.6407
13.6747
13.7165
13.7626
13.8089
13.8504
13.8848
14.0562
14.0291
13.9787
13.9164
13.8482
13.7804
13.7183
13.6686
13.6321
13.609
13.6
13.6018
13.6151
13.6394
13.6735
13.7151
13.7607
13.8044
13.8455
13.8802
14.0496
14.0221
13.9712
13.9087
13.8407
13.7738
13.7139
13.665
13.6285
13.6047
13.5938
13.5952
13.6084
13.633
13.6675
13.7102
13.7581
13.8037
13.8454
13.8806
14.0473
14.019
13.9675
13.9045
13.8363
13.7694
13.71
13.6613
13.6251
13.6017
13.5909
13.5923
13.6057
13.6303
13.665
13.7078
13.7559
13.8019
13.8444
13.8806
14.0461
14.0164
13.9641
13.9007
13.8323
13.7656
13.7063
13.6579
13.622
13.5988
13.5883
13.5898
13.6033
13.6279
13.6625
13.7048
13.7515
13.7987
13.8425
13.8785
14.0463
14.0157
13.963
13.8993
13.8307
13.7637
13.704
13.6555
13.6197
13.5969
13.5868
13.5889
13.6029
13.6278
13.6621
13.7037
13.75
13.7974
13.8417
13.8753
14.0485
14.0172
13.9653
13.9017
13.8323
13.7636
13.7025
13.653
13.6167
13.5938
13.5839
13.5865
13.6014
13.6282
13.6633
13.7049
13.7506
13.7965
13.8395
13.8729
14.0506
14.0196
13.9669
13.9031
13.833
13.7624
13.7
13.6498
13.6128
13.5895
13.5793
13.582
13.5978
13.627
13.6633
13.7056
13.7503
13.7961
13.8389
13.8741
14.0509
14.0208
13.9665
13.9016
13.8309
13.7608
13.6996
13.6498
13.613
13.5897
13.5795
13.5819
13.5971
13.6249
13.6607
13.7032
13.7486
13.7961
13.8399
13.8744
14.0496
14.0203
13.967
13.9007
13.8305
13.7624
13.7019
13.6525
13.6161
13.5929
13.5827
13.5849
13.5994
13.6252
13.6609
13.704
13.7511
13.7979
13.8401
13.8745
14.0472
14.0176
13.9644
13.8997
13.8302
13.7626
13.7026
13.6535
13.6173
13.5944
13.5844
13.5867
13.6012
13.6272
13.6629
13.7062
13.7533
13.7996
13.8401
13.8756
14.047
14.016
13.9635
13.8999
13.8315
13.7645
13.705
13.6565
13.6209
13.5985
13.5887
13.5913
13.6061
13.6322
13.668
13.7116
13.7589
13.8053
13.8463
13.8798
14.0493
14.0207
13.9704
13.9078
13.8398
13.7733
13.7141
13.6657
13.63
13.6071
13.5969
13.5991
13.6138
13.6393
13.6739
13.7161
13.7635
13.8097
13.8506
13.8837
14.0542
14.0261
13.9747
13.9111
13.8427
13.7763
13.7182
13.6701
13.6341
13.6107
13.5992
13.6009
13.6161
13.6411
13.6739
13.7142
13.7612
13.807
13.8479
13.8807
14.0581
14.0287
13.9755
13.9113
13.8425
13.7759
13.7173
13.6692
13.634
13.6114
13.6002
13.6021
13.617
13.6411
13.6734
13.7143
13.7599
13.8061
13.8474
13.8788
14.0606
14.0292
13.9762
13.9115
13.8424
13.7756
13.7163
13.6704
13.637
13.6157
13.6063
13.6084
13.6221
13.6461
13.6793
13.7191
13.7632
13.8086
13.8497
13.8799
14.0654
14.0315
13.9763
13.9111
13.842
13.7758
13.7184
13.6739
13.6403
13.6189
13.6098
13.6122
13.6262
13.6507
13.684
13.7229
13.7663
13.8096
13.8502
13.8817
14.0687
14.0344
13.9803
13.9169
13.8482
13.7812
13.7223
13.6755
13.6409
13.6193
13.6101
13.6125
13.6265
13.6509
13.6839
13.7235
13.7681
13.8117
13.8523
13.8866
14.0682
14.0363
13.9833
13.921
13.8519
13.7834
13.7232
13.6749
13.6402
13.6198
13.6112
13.6138
13.628
13.6524
13.6854
13.7253
13.7695
13.8149
13.8574
13.8938
14.0696
14.0377
13.9839
13.9202
13.8507
13.7829
13.7233
13.6752
13.6406
13.6204
13.6118
13.6147
13.6293
13.6544
13.6883
13.7276
13.7719
13.8177
13.8607
13.8975
14.0726
14.04
13.9851
13.9197
13.8504
13.7842
13.7248
13.6766
13.6416
13.62
13.611
13.6138
13.6285
13.6537
13.6881
13.7285
13.7743
13.8203
13.8626
13.899
14.0769
14.0443
13.9894
13.9242
13.8556
13.7886
13.7291
13.681
13.646
13.6244
13.6155
13.6184
13.6331
13.6581
13.6921
13.7339
13.7797
13.825
13.866
13.9009
14.0818
14.0501
13.9961
13.9312
13.8617
13.7928
13.7324
13.684
13.649
13.6276
13.619
13.6224
13.6382
13.6652
13.7006
13.743
13.7884
13.8326
13.8714
13.9025
14.0866
14.056
14.0017
13.9355
13.8639
13.7936
13.7328
13.6841
13.6493
13.628
13.6198
13.6235
13.64
13.6681
13.7037
13.7468
13.7941
13.8391
13.8774
13.9069
14.0889
14.0581
14.0016
13.9348
13.8632
13.7941
13.7332
13.6843
13.6504
13.6295
13.6211
13.6238
13.6402
13.6668
13.701
13.7447
13.7937
13.8401
13.879
13.9081
14.0892
14.0564
13.9987
13.9322
13.8607
13.7921
13.7325
13.6842
13.6509
13.63
13.6212
13.6233
13.6388
13.6649
13.7
13.7439
13.7919
13.8375
13.8762
13.9058
14.0904
14.0559
13.9997
13.9319
13.8601
13.7917
13.7332
13.6855
13.651
13.6299
13.6214
13.6245
13.6388
13.6656
13.7024
13.7461
13.792
13.835
13.874
13.9054
14.0932
14.058
14.0011
13.9325
13.8602
13.7912
13.7313
13.6834
13.6496
13.6279
13.6192
13.6228
13.6388
13.6663
13.7034
13.7468
13.792
13.8368
13.8762
13.9074
14.0969
14.0611
14.0028
13.9343
13.8619
13.7927
13.7323
13.6842
13.6504
13.6283
13.62
13.6241
13.6408
13.6688
13.7066
13.7504
13.7966
13.8411
13.8802
13.911
14.1016
14.0664
14.0097
13.9415
13.8687
13.7989
13.738
13.6893
13.6546
13.6338
13.6262
13.631
13.6484
13.6771
13.7151
13.7584
13.8027
13.8461
13.8846
13.9151
14.1054
14.0701
14.014
13.9448
13.8701
13.7992
13.7378
13.6889
13.654
13.6332
13.6257
13.631
13.6492
13.6789
13.7185
13.7624
13.8061
13.8497
13.8885
13.9192
14.1082
14.0717
14.0138
13.9446
13.8693
13.7979
13.7358
13.6863
13.6501
13.6289
13.6215
13.6275
13.6459
13.6763
13.7181
13.7634
13.808
13.8526
13.8921
13.9232
14.1115
14.0737
14.0136
13.9451
13.8707
13.7992
13.7361
13.6863
13.6514
13.6314
13.6245
13.6301
13.6473
13.6764
13.7175
13.764
13.8099
13.8557
13.8959
13.9274
14.1158
14.0768
14.0152
13.9449
13.8709
13.7996
13.7363
13.6869
13.6534
13.6334
13.6264
13.6314
13.6479
13.6766
13.7173
13.764
13.8119
13.8591
13.9001
13.9317
14.121
14.0808
14.0176
13.945
13.8714
13.7996
13.7361
13.6861
13.6512
13.631
13.6241
13.6298
13.648
13.6784
13.7187
13.7647
13.8151
13.8637
13.9053
13.937
14.1272
14.086
14.0212
13.9464
13.8701
13.7971
13.7338
13.6842
13.6493
13.6292
13.6225
13.6287
13.6481
13.6789
13.7192
13.768
13.8201
13.8696
13.9117
13.9433
14.1347
14.0925
14.0263
13.9495
13.8702
13.7961
13.7335
13.6835
13.6485
13.6284
13.6219
13.6283
13.6471
13.6795
13.7228
13.7733
13.8265
13.8768
13.9191
13.9506
14.1434
14.1004
14.0332
13.9552
13.8745
13.7987
13.7336
13.6826
13.6472
13.6272
13.6213
13.6288
13.6503
13.6843
13.7287
13.7803
13.8343
13.885
13.9276
13.9588
14.1533
14.1097
14.0416
13.9626
13.8809
13.8042
13.7384
13.687
13.6513
13.6315
13.6258
13.6339
13.6561
13.6908
13.7361
13.7885
13.8431
13.8944
13.9371
13.9681
14.1644
14.12
14.0511
13.9712
13.8885
13.811
13.7447
13.6928
13.657
13.6372
13.6318
13.6403
13.663
13.6985
13.7446
13.7977
13.853
13.9048
13.9477
13.9785
14.1766
14.1316
14.0618
13.9809
13.8972
13.8189
13.7519
13.6997
13.6638
13.644
13.6388
13.6477
13.671
13.7072
13.754
13.808
13.8641
13.9164
13.9595
13.9901
14.1902
14.1445
14.0738
13.9918
13.9071
13.8279
13.7602
13.7076
13.6715
13.6518
13.6467
13.6561
13.68
13.7169
13.7647
13.8195
13.8764
13.9293
13.9727
14.0031
14.2053
14.1589
14.0872
14.0041
13.9183
13.8381
13.7698
13.7167
13.6803
13.6607
13.6558
13.6656
13.6902
13.7279
13.7766
13.8324
13.8901
13.9437
13.9873
14.0176
14.2221
14.1749
14.1022
14.0179
13.931
13.8498
13.7806
13.727
13.6904
13.6708
13.6662
13.6764
13.7017
13.7403
13.79
13.8468
13.9055
13.9597
14.0037
14.0338
14.2408
14.1929
14.1191
14.0336
13.9454
13.8631
13.793
13.7389
13.702
13.6824
13.678
13.6888
13.7148
13.7543
13.805
13.8629
13.9226
13.9776
14.0219
14.0518
14.2617
14.213
14.1381
14.0512
13.9617
13.8782
13.8072
13.7524
13.7153
13.6957
13.6915
13.7028
13.7296
13.7701
13.8219
13.881
13.9418
13.9976
14.0423
14.0719
14.2851
14.2356
14.1596
14.0712
13.9802
13.8954
13.8235
13.768
13.7305
13.7109
13.707
13.7188
13.7464
13.788
13.8411
13.9014
13.9634
14.02
14.0651
14.0944
14.3113
14.261
14.1838
14.0939
14.0013
13.9151
13.842
13.7858
13.7479
13.7283
13.7247
13.7371
13.7656
13.8084
13.8627
13.9244
13.9876
14.0452
14.0906
14.1197
14.3408
14.2896
14.2111
14.1196
14.0253
13.9376
13.8634
13.8063
13.7679
13.7482
13.7449
13.758
13.7875
13.8315
13.8873
13.9505
14.015
14.0735
14.1194
14.1481
14.374
14.322
14.2421
14.1489
14.0528
13.9634
13.8878
13.8298
13.791
13.7711
13.7681
13.782
13.8125
13.8579
13.9152
13.98
14.0459
14.1055
14.1518
14.1801
14.4115
14.3586
14.2774
14.1823
14.0842
13.9931
13.916
13.857
13.8175
13.7975
13.7948
13.8095
13.8412
13.8881
13.947
14.0136
14.081
14.1418
14.1885
14.2163
14.454
14.4002
14.3176
14.2205
14.1203
14.0273
13.9486
13.8885
13.8484
13.8283
13.8259
13.8415
13.8744
13.9228
13.9835
14.0519
14.121
14.183
14.2301
14.2573
14.5022
14.4477
14.3635
14.2644
14.1619
14.0668
13.9864
13.9251
13.8842
13.864
13.862
13.8785
13.9127
13.9628
14.0255
14.0958
14.1667
14.2299
14.2775
14.3039
14.5572
14.5018
14.4162
14.3148
14.2099
14.1125
14.0303
13.9676
13.926
13.9057
13.904
13.9215
13.9572
14.0091
14.0738
14.1463
14.2191
14.2837
14.3316
14.357
14.62
14.564
14.4767
14.373
14.2655
14.1657
14.0815
14.0174
13.9749
13.9541
13.9529
13.9717
14.009
14.0628
14.1298
14.2045
14.2794
14.3454
14.3936
14.4179
14.6922
14.6355
14.5467
14.4405
14.3302
14.2278
14.1414
14.0757
14.0323
14.0113
14.0106
14.0306
14.0695
14.1255
14.1948
14.272
14.3491
14.4166
14.4651
14.4883
14.7753
14.7181
14.6278
14.519
14.4057
14.3004
14.2117
14.1442
14.0998
14.0787
14.0786
14.0997
14.1404
14.1987
14.2706
14.3505
14.43
14.4991
14.5478
14.5695
14.8715
14.8139
14.7221
14.6106
14.4941
14.3858
14.2944
14.2252
14.1796
14.1583
14.1589
14.1813
14.2239
14.2846
14.3594
14.4422
14.5242
14.595
14.6438
14.6638
14.9833
14.9256
14.8324
14.718
14.5981
14.4865
14.3924
14.3211
14.2743
14.2528
14.2541
14.2779
14.3226
14.3861
14.4639
14.5498
14.6345
14.707
14.7558
14.7736
15.1138
15.0564
14.962
14.8447
14.7211
14.606
14.5088
14.4353
14.3872
14.3654
14.3675
14.3929
14.4399
14.5063
14.5874
14.6767
14.7642
14.8384
14.887
14.9021
15.2667
15.2102
15.115
14.9948
14.8674
14.7484
14.648
14.572
14.5225
14.5004
14.5034
14.5306
14.58
14.6495
14.7342
14.8271
14.9176
14.9935
15.0416
15.0532
15.4467
15.3922
15.2966
15.1736
15.0423
14.9193
14.8153
14.7366
14.6855
14.6631
14.6671
14.6962
14.7483
14.8212
14.9097
15.0064
15.1001
15.1776
15.2246
15.2319
15.6611
15.6092
15.514
15.3883
15.2529
15.1256
15.0178
14.9361
14.8832
14.8605
14.8657
14.8967
14.9518
15.0283
15.1208
15.2216
15.3184
15.3973
15.4427
15.4445
15.9179
15.8698
15.7758
15.6478
15.5083
15.3764
15.2645
15.1796
15.1246
15.1016
15.1081
15.1413
15.1994
15.2798
15.3765
15.4814
15.5815
15.6614
15.7044
15.6991
16.2274
16.1849
16.0937
15.964
15.8204
15.6839
15.5676
15.4792
15.4219
15.3984
15.4064
15.4419
15.5033
15.5876
15.6887
15.7978
15.9008
15.9812
16.0207
16.0063
16.6031
16.5693
16.483
16.3526
16.2055
16.0642
15.9433
15.8511
15.7912
15.7672
15.7767
15.8146
15.8792
15.9675
16.073
16.1861
16.2917
16.3717
16.406
16.3797
17.0638
17.0425
16.9643
16.835
16.6851
16.5393
16.4138
16.3173
16.2544
16.2297
16.2409
16.2812
16.3489
16.441
16.5506
16.6673
16.7746
16.8529
16.8798
16.8377
17.6342
17.6309
17.5655
17.4402
17.2889
17.1393
17.0091
16.9081
16.8418
16.8161
16.829
16.8713
16.9418
17.0372
17.1502
17.2696
17.3773
17.4517
17.4677
17.4047
18.3477
18.3704
18.3247
18.2076
18.0576
17.9055
17.771
17.6653
17.5948
17.5678
17.5822
17.626
17.6983
17.7961
17.9111
18.0316
18.1375
18.2047
18.2047
18.1139
19.249
19.3086
19.293
19.1912
19.0468
18.8947
18.757
18.6464
18.5709
18.5417
18.5572
18.6014
18.6741
18.7723
18.8873
19.0061
19.1066
19.1617
19.1389
19.0111
20.3979
20.5079
20.5393
20.4643
20.3328
20.1847
20.0457
19.9305
19.8488
19.816
19.8315
19.8742
19.9449
20.0406
20.1522
20.2651
20.355
20.3911
20.3358
20.1585
21.8752
22.0388
22.1563
22.1264
22.0186
21.8809
21.7436
21.6243
21.5346
21.4958
21.5092
21.5474
21.6125
21.7014
21.8045
21.9056
21.9775
21.9849
21.8841
21.6408
23.8259
24.0708
24.2796
24.3127
24.2419
24.1228
23.9916
23.8693
23.7689
23.7193
23.7273
23.7567
23.8111
23.8873
23.9749
24.056
24.0995
24.0649
23.902
23.5721
26.3928
26.7401
27.039
27.1905
27.1786
27.0903
26.9715
26.8481
26.733
26.6638
26.6598
26.6762
26.7138
26.7695
26.8326
26.8827
26.8839
26.7867
26.5419
26.104
29.7989
30.3269
30.7315
30.9961
31.0562
31.0108
30.9123
30.7902
30.6559
30.5495
30.5176
30.5268
30.5397
30.5648
30.5918
30.5986
30.5437
30.3687
30.0214
29.4384
34.2347
34.9728
35.5516
35.9675
36.1376
36.1597
36.0972
35.9892
35.8542
35.7165
35.6268
35.594
35.5645
35.5432
35.5183
35.4652
35.3358
35.0606
34.5855
33.8198
40.0693
41.0722
41.8559
42.3804
42.7573
42.878
42.8669
42.7798
42.6447
42.4747
42.3087
42.2023
42.1262
42.0415
41.945
41.8103
41.5817
41.1818
40.5537
39.5631
47.698
49.0676
50.1632
50.8419
51.3707
51.6076
51.6633
51.604
51.4706
51.2873
51.0675
50.8512
50.6756
50.503
50.3037
50.057
49.683
49.1355
48.3425
47.0673
57.5911
59.4347
60.9438
61.7845
62.4108
62.9083
63.0745
63.0628
62.9337
62.7256
62.4631
62.1718
61.8662
61.5403
61.1908
60.8064
60.2793
59.5439
58.5033
56.8507
70.3946
72.8548
74.9226
76.1289
76.9556
77.6384
77.949
78.0206
77.9194
77.6902
77.3629
76.9666
76.5234
76.0488
75.5345
74.9468
74.1929
73.1835
71.7606
69.6069
86.9531
90.2455
93.1011
94.8755
95.971
96.7663
97.4367
97.7117
97.7171
97.508
97.1285
96.6161
95.9966
95.2934
94.5106
93.6282
92.5564
91.1539
89.2033
86.3739
108.585
113.025
117.003
119.667
121.336
122.387
123.27
123.985
124.233
124.142
123.769
123.159
122.343
121.35