/*--------------------------------*- C++ -*----------------------------------*\
  =========                 |
  \\      /  F ield         | OpenFOAM: The Open Source CFD Toolbox
   \\    /   O peration     | Website:  https://openfoam.org
    \\  /    A nd           | Version:  6
     \\/     M anipulation  |
\*---------------------------------------------------------------------------*/
FoamFile
{
    version     2.0;
    format      ascii;
    class       volScalarField;
    location    "5";
    object      epsilon;
}
// * * * * * * * * * * * * * * * * * * * * * * * * * * * * * * * * * * * * * //

dimensions      [0 2 -3 0 0 0 0];

internalField   nonuniform List<scalar> 
10000
(
525.46
290.77
172.626
108.845
70.2184
47.2823
33.9738
26.4748
22.5133
20.8593
20.9783
22.8427
26.8747
34.1255
46.7193
68.1106
105.124
170.918
297.168
534.047
605.677
313.547
184.083
113.103
70.777
46.6702
33.178
25.7465
21.8713
20.2548
20.3427
22.1325
26.025
33.1665
46.3274
68.1983
106.508
178.571
319.991
618.651
590.116
315.073
185.45
114.546
72.5634
48.4612
34.5387
26.6896
22.5369
20.7679
20.7757
22.6238
26.6013
33.5655
46.01
67.9594
107.091
174.716
308.793
597.733
600.321
320.109
187.806
116.082
72.9292
48.9412
34.936
26.9874
22.7585
20.9294
20.6042
22.4737
26.5756
34.4577
47.2954
68.9859
108.068
177.392
310.944
609.563
574.87
321.144
188.872
116.665
73.263
49.1128
35.0097
27.0186
22.8022
21.015
20.8943
23.1002
27.3886
34.8479
47.5581
70.1648
109.935
184.642
317.539
598.036
520.646
319.002
187.763
116.584
74.1907
49.2556
34.9378
26.7755
22.3364
20.9631
20.9775
22.8736
27.011
34.7935
46.9775
70.3538
109.494
181.268
302.833
546.95
523.97
316.325
183.763
115.738
74.3725
48.799
34.3471
26.4995
22.4762
20.9297
21.3716
23.3595
27.5452
35.131
48.3324
71.1267
110.188
179.403
308.38
588.319
538.357
305.446
189.46
115.907
74.6611
49.4838
35.0348
27.0586
22.9584
21.3227
21.4628
23.3476
27.4388
34.9014
47.726
71.2053
111.14
175.608
301.371
510.33
570.052
309.856
183.133
115.525
74.2677
48.3022
34.5744
26.3249
22.3452
21.1147
21.4031
23.3065
27.0371
34.4172
47.9844
71.1036
110.25
177.323
318.795
587.458
490.272
316.003
190.163
116.19
74.1296
48.4152
34.565
26.689
22.4739
20.786
21.3007
23.3694
27.6774
35.2648
47.9071
70.7346
110.666
176.445
309.038
556.068
512.6
310.538
184.077
115.812
73.8977
48.6025
34.4172
26.6018
22.2442
20.6563
20.9342
22.9434
27.5977
35.336
48.5482
71.2015
110.033
178.328
312.601
584.952
535.118
321.619
187.806
117.153
74.1158
47.6888
33.4974
26.3424
22.2711
20.698
21.1965
23.2806
27.6103
35.2962
48.6656
71.7682
112.879
184.299
314.854
536.097
627.842
336.451
191.366
117.812
74.3735
48.9594
34.4747
26.1993
22.4648
20.6623
20.8361
22.7458
26.9203
34.8674
47.7357
71.3699
111.314
180.303
308.618
486.074
586.436
350.426
196.931
119.087
74.4485
48.8416
34.4801
26.7003
22.3763
20.7468
21.1187
23.0672
27.2279
34.8227
47.6201
70.8411
109.628
174.68
298.43
489.04
547.887
322.572
188.69
120.73
74.6347
48.0541
33.3806
26.5338
22.6904
21.0297
21.1681
23.0937
27.2622
34.7458
47.4343
70.6637
112.527
177.33
306.566
561.573
596.792
303.33
194.712
119.994
75.0902
49.1693
34.1105
26.2898
22.5546
20.9809
21.1259
23.0418
27.2169
34.7824
47.8631
70.4868
110.341
177.645
307.375
522.478
493.272
303.686
190.064
119.476
74.4886
48.227
34.4568
26.6869
22.5292
20.5741
20.9232
22.8694
27.0292
34.5809
47.826
70.4677
109.553
183.058
324.928
596.163
510.023
327.07
183.911
116.452
73.0952
47.6198
33.4281
25.831
21.8998
20.329
20.4912
22.3513
26.4108
33.8898
47.6144
70.047
108.804
177.317
310.005
569.611
522.585
300.356
183.578
119.754
72.7262
47.552
33.634
26.0897
22.1057
20.4416
20.79
22.7442
26.9142
34.4678
47.6254
70.0084
109.048
184.26
323.502
592.093
591.274
303.799
196.438
116.107
71.2256
46.8644
32.4809
25.7192
21.7052
20.3589
20.607
22.4274
26.1183
33.329
46.4431
69.4595
107.777
178.366
312.23
588.275
505.322
303.408
181.976
111.765
70.0474
45.6467
32.4393
25.2747
21.5345
20.1083
20.4276
22.0257
26.1944
33.0945
45.989
69.1166
107.785
173.717
297.487
562.256
506.356
311.852
187.118
112.599
69.8144
46.2873
33.0501
25.7377
21.724
20.2566
20.2518
21.9765
25.8683
32.9487
45.7455
68.5653
110.222
175.245
298.505
512.182
530.336
341.563
203.93
115.474
70.9819
45.4484
32.214
25.2217
21.9494
20.4463
20.592
22.3373
26.5927
33.8105
45.7721
68.4482
109.803
183.734
305.159
516.048
605.228
319.709
191.719
113.14
70.6874
46.7649
33.3704
25.9201
21.9564
20.2077
20.4337
22.6474
26.8025
34.1688
46.8889
69.1682
109.278
179.409
313.042
541.461
527.19
337.59
187.143
114.847
72.5309
47.3832
33.3809
25.8056
21.9515
20.4898
20.8332
22.8088
26.8881
34.2398
46.8256
68.8842
109.624
182.44
322.391
560.047
549.578
304.83
180.391
113.925
72.4817
47.6766
33.756
26.0918
22.1565
20.6005
20.7236
22.6917
26.7529
34.1139
47.1401
70.3387
111.417
185.811
332.546
654.568
500.492
297.244
190.163
116.62
73.37
48.1227
34.0164
26.3543
22.4143
20.9477
20.978
22.412
26.1648
33.2098
45.9318
69.7986
111.038
187.573
331.99
626.435
513.293
298.967
187.879
116.533
73.4469
48.5494
34.5172
26.8029
22.7893
21.1021
21.1848
22.9341
26.9323
34.2429
47.0019
69.253
110.363
184.785
340.039
607.105
526.434
306.642
183.483
114.539
72.872
47.283
33.3859
26.4515
22.677
21.1087
21.2502
22.78
26.7328
34.041
46.948
70.4407
110.497
186.115
328.589
684.552
614.824
332.718
180.478
117.134
73.1219
47.656
33.5783
26.3001
22.1909
20.9549
21.2543
23.2402
27.453
35.0618
48.2781
70.7863
109.834
178.18
302.52
563.869
563.306
320.38
178.555
115.007
72.6453
48.1329
33.9308
25.9604
22.1133
20.6247
20.8713
22.8348
27.2907
34.9359
48.2421
70.961
111.475
183.621
300.954
521.021
620.192
310.217
178.999
114.457
72.7026
48.276
33.4979
26.403
22.5092
21.0535
21.3238
23.2377
27.0075
34.4174
48.0898
70.6094
108.811
175.065
305.062
602.431
578.111
321.984
183.937
113.646
72.8412
48.6432
34.5831
26.6694
22.3106
20.9607
21.3771
23.456
27.7244
35.3046
47.997
70.8482
109.041
174.651
299.505
541.094
505.898
301.639
179.477
115.596
73.4046
48.8744
34.6976
26.8103
22.7367
21.1421
21.4042
23.4533
27.7308
35.4221
48.7411
71.5742
110.49
177.579
299.541
476.692
519.498
305.536
180.441
115.179
73.2886
48.9081
34.8125
26.8298
22.7013
21.1024
21.3393
23.3549
27.5614
35.3486
48.8748
72.3642
114.131
187.987
303.15
464.658
528.926
309.188
182.558
115.797
73.4646
48.6354
34.6618
26.6974
22.2358
20.9515
21.2016
23.1865
27.3874
35.0116
48.0103
71.8685
113.679
186.702
333.078
477.016
596.315
320.35
187.286
114.406
73.4051
48.7183
34.584
26.557
22.2898
20.8292
20.7327
22.5381
26.6436
34.7481
47.8729
71.2883
112.139
183.279
310.686
482.848
520.037
300.086
179.847
114.012
72.7252
47.5778
34.2374
26.5826
22.5489
20.9068
21.0253
22.8443
26.6214
34.6646
47.89
70.5208
109.7
178.663
309.613
562.401
529.276
306.887
190.099
118.372
73.0592
47.7826
34.0632
25.914
21.8944
20.3943
20.9119
22.8787
26.7332
34.6914
47.9023
70.3066
109.426
178.896
311.255
529.921
561.446
328.952
178.518
115.394
72.597
48.0439
33.9544
26.2653
22.276
20.5077
20.675
22.859
27.1494
34.7596
47.8254
70.2502
109.439
181.161
320.11
523.685
617.259
311.527
176.957
114.128
72.3028
47.9192
33.1989
25.6456
21.9031
20.6764
20.9103
22.6359
27.0157
34.7355
47.8601
70.2921
110.146
186.827
321.389
487.662
570.256
315.549
179.172
112.58
71.9962
47.9373
34.0472
26.3289
22.3767
20.8185
21.0586
23.0448
27.1957
34.261
47.688
69.8384
107.531
174.534
300.38
541.525
492.747
287.9
173.478
113.983
72.0645
47.7475
33.8235
26.1683
22.2787
20.74
21.0009
23.0197
27.241
34.739
47.8325
70.13
108.804
170.462
287.781
485.923
506.089
289.957
173.502
111.052
70.4069
47.3416
33.6626
25.6224
21.7837
20.3175
20.6293
22.8965
27.1505
34.63
47.6005
69.8478
107.425
174.506
303.251
558.789
518.95
295.55
174.748
112.471
70.7848
47.2507
33.5436
26.1236
22.2587
20.71
20.8802
22.5605
26.8356
33.7218
46.6137
69.2864
108.262
172.926
301.397
521.804
547.398
303.039
176.74
111.688
70.3691
47.2519
33.6047
26.0529
22.163
20.6419
20.8734
22.6101
26.8526
33.8562
46.5267
68.5845
106.157
179.209
309.34
576.716
617.726
321.771
183.168
111.295
71.1756
47.4642
33.6777
25.9831
21.7755
20.2458
20.8605
22.8503
26.8885
34.109
46.6353
68.2108
105.695
173.152
309.521
566.071
543.929
305.438
179.548
112.661
71.9407
47.7555
33.5798
25.6385
22.081
20.4685
20.9014
22.8664
26.8759
34.1016
46.6436
68.292
106.03
177.949
310.254
568.932
614.793
313.837
182.986
112.808
72.0946
47.9419
33.1278
25.9409
22.0073
20.7091
20.9534
22.8618
26.8243
34.0284
46.5436
68.1323
105.693
171.25
300.983
547.863
559.81
300.194
179.609
112.672
72.4911
48.4661
34.2698
25.8799
22.3756
20.8063
20.7884
22.8164
26.4114
33.4075
45.8376
68.1268
107.875
171.532
297.77
489.38
506.223
287.637
175.847
113.68
72.5716
48.5503
34.5209
26.2255
22.5485
20.9619
21.1316
23.0386
27.0932
34.3992
46.7543
67.5307
106.401
173.163
302.103
489.8
513.292
291.567
185.172
114.451
72.8214
48.5364
34.5161
26.3492
22.5232
20.9241
21.118
23.0115
26.7535
34.3232
46.3453
68.1078
105.861
179.137
325.92
502.641
534.498
295.726
183.048
113.208
72.8769
48.7163
34.7485
26.8201
22.2879
20.5836
20.7602
22.7264
27.128
34.5363
46.9525
67.7737
103.385
170.203
300.749
509.078
584.109
300.139
180.298
113.34
72.5385
48.4297
34.5193
26.8005
22.7366
21.082
21.2191
23.108
27.2013
34.527
46.4892
67.8184
103.112
164.583
290.601
579.966
513.069
303.057
187.049
113.804
72.3216
47.2765
33.351
25.953
22.1828
20.9288
21.1553
22.9428
26.66
34.4459
47.1718
68.3191
103.346
163.304
283.191
503.319
583.811
316.385
181.386
113.76
72.5514
47.7868
33.8436
26.4463
22.5382
20.959
21.1118
22.5965
26.5549
33.8986
47.1339
68.6823
105.865
164.4
284.344
504.178
570.309
315.02
189.031
116.245
72.5163
48.3142
34.3153
26.1274
22.176
20.6586
21.1051
22.8258
26.8699
34.4446
47.2694
68.9708
104.807
165.685
286.629
522.695
586.528
307.995
183.734
113.988
72.2897
48.1214
34.2918
26.6557
22.6909
21.0849
21.2943
23.2413
27.3577
34.1905
47.0927
69.5841
106.03
167.446
287.376
566.934
587.429
308.333
194.048
117.048
71.9838
46.9662
33.0753
25.8095
22.4615
21.0161
21.2742
23.2036
27.6256
35.1862
47.9513
70.461
108.961
170.015
285.533
467.202
577.021
322.653
183.165
113.444
71.6532
47.4103
33.3839
25.9601
22.4354
21.0013
21.2931
23.3375
27.6389
35.298
48.4222
70.5148
109.779
173.639
291.38
481.675
535.188
294.408
173.274
111.516
71.4364
46.6217
33.7382
26.1776
22.1022
20.5739
20.8358
22.8293
27.0224
34.5993
47.9104
71.2802
111.056
177.647
308.851
547.401
597.683
298.103
174.698
113.868
71.8051
47.6865
33.8845
25.8252
22.4217
20.9682
21.2537
23.3041
27.5926
35.2764
48.539
71.3512
111.227
181.324
301.783
493.77
501.509
295.77
175.672
112.743
71.5548
46.7544
33.8187
26.3138
22.5877
21.059
21.312
23.3331
27.607
35.3094
48.6141
71.3706
111.456
182.277
314.287
514.89
509.979
297.569
175.259
110.525
71.0476
47.5296
34.0075
26.511
22.6145
21.0174
21.2137
23.1497
27.038
34.5604
48.3827
71.134
110.449
181.213
320.634
597.09
511.014
298.794
175.177
110.262
70.9555
47.4944
33.8926
26.4996
22.6175
20.978
21.1229
22.8805
27.3776
35.068
48.3002
71.0252
110.254
183.167
308.851
562.582
525.059
302.337
176.193
110.532
70.8776
47.4368
33.2955
26.2927
22.6
20.9528
20.9734
23.0487
27.3209
34.9617
48.2221
71.0055
109.781
175.344
294.046
545.409
537.869
309.063
179.244
111.667
71.0727
47.5028
33.9177
26.4387
22.5407
20.9313
21.1021
22.9825
26.7421
34.0016
47.31
70.9765
110.96
178.219
295.438
487.135
559.626
328.46
182.701
112.943
71.6089
47.5239
33.7494
25.7914
22.3161
20.8165
21.0528
23.0049
27.0588
34.1179
47.4283
71.0829
113.293
187.954
303.856
489.073
605.942
317.898
184.199
113.918
71.0941
46.4357
32.8637
25.6634
22.2174
20.787
21.075
23.0609
27.1807
34.2968
47.4158
70.5785
111.877
185.613
313.028
559.88
530.695
319.086
188.116
115.808
71.5586
47.0981
33.4119
25.9708
22.1564
20.5424
20.9964
23.052
27.2553
34.933
48.1689
71.061
112.126
180.985
314.72
519.474
614.356
318.947
184.749
116.24
72.2867
46.2137
32.4798
25.226
21.65
20.5978
20.9044
22.9385
26.9819
34.9907
48.2454
70.8138
110.447
184.132
333.404
577.989
585.738
315.972
185.051
116.123
72.5774
47.5958
33.5946
25.9156
21.9503
20.4982
20.8493
22.7743
26.8081
34.912
48.0707
70.4135
109.617
172.587
301.997
538.007
579.909
316.597
187.268
115.13
73.1351
48.433
34.3929
26.5486
22.3131
20.8954
21.2963
23.2529
27.0773
34.9187
48.0491
70.3735
109.117
169.842
288.374
513.2
528.395
323.749
198.243
116.077
72.5839
47.3428
34.086
26.5038
22.5527
21.0248
21.315
23.3145
27.3951
34.3791
47.1948
69.6894
108.503
170.88
291.233
472.197
541.076
316.913
190.56
117.097
72.2439
47.3041
33.9338
26.3014
22.0472
20.8465
21.2728
23.3113
27.4559
34.8042
47.5848
69.6069
108.196
177.131
307.104
531.785
576.139
340.247
184.709
114.811
71.5212
47.2656
33.6565
26.187
22.2821
20.6636
21.2822
23.3082
27.4507
34.4784
47.1673
69.4261
105.995
166.848
290.081
460.297
663.377
331.262
184.42
112.399
70.2345
46.8501
32.8564
25.523
21.7969
20.8278
21.2635
23.2713
27.4906
35.0469
48.0169
69.897
106.399
168.015
282.478
470.016
573.628
331.75
189.69
110.89
70.3305
46.2998
33.7423
26.2844
22.0357
20.5713
21.1231
23.1659
27.4049
34.9266
47.9505
70.3427
109.255
176.375
286.051
532.114
526.658
303.799
177.585
110.124
70.3855
47.0608
33.8762
26.409
22.167
20.6214
20.9624
22.7776
26.7727
34.6242
47.7586
70.0674
107.777
171.702
280.892
458.607
583.163
289.343
171.255
110.141
70.1405
46.5965
33.582
26.2927
22.261
20.763
20.7693
22.9144
27.0072
34.3227
46.9365
69.7126
107.024
169.808
284.742
465.896
544.524
286.698
175.188
109.687
69.798
47.0382
33.8194
26.4084
22.4076
20.5416
20.691
22.8778
26.9268
33.7413
46.7925
69.8014
108.934
172.229
298.612
482.075
497.737
287.504
171.201
110.126
69.8914
46.0584
32.7988
26.062
22.3102
20.7087
20.7197
22.8412
26.9974
34.2913
46.6638
69.0754
107.177
171.911
291.756
494.081
500.267
291.026
171.704
108.964
69.4063
46.2914
33.166
26.0268
22.2907
20.7314
20.8768
22.8079
26.9301
34.2602
46.8469
68.8439
107.476
173.278
298.21
517.484
522.885
306.181
174.202
108.367
69.0626
45.9163
32.23
25.2808
22.0579
20.5953
20.7384
22.306
26.246
33.8558
46.5229
68.4109
108.065
178.916
315.039
602.188
541.561
309.077
178.539
108.68
67.6557
44.7679
32.637
25.7149
22.0205
20.2775
20.6477
22.485
26.4037
33.5205
45.9765
67.9655
108.304
173.935
307.213
585.183
610.859
304.159
172.831
106.731
66.6343
44.8046
31.8699
25.0545
21.5852
20.3509
20.5534
22.3471
26.1856
33.1532
45.4039
66.8855
106.872
173.363
303.644
595.66
556.285
301.567
172.152
104.822
65.5067
44.3961
32.2493
25.4385
21.8281
20.2636
20.133
21.6873
25.2486
31.8542
43.7596
65.2866
106.052
175.021
306.225
589.161
568.096
306.097
173.297
104.198
64.9679
43.7817
31.9045
25.2658
21.7327
20.1963
20.072
21.8086
25.3816
31.877
43.5722
64.3097
104.291
178.786
307.289
558.23
589.029
324.079
177.519
103.132
63.6763
42.881
31.1425
24.3119
20.9735
19.6681
19.9608
21.6064
25.0447
31.226
41.8703
62.5487
101.474
171.863
322.527
574.65
600.069
309.824
170.777
99.5771
60.8288
40.4702
29.5282
23.7383
20.7408
19.5013
19.7068
20.94
24.019
29.8176
40.4256
60.0502
98.6617
170.704
317.258
662.177
624.484
314.089
168.695
96.9377
58.716
38.8864
28.6913
23.342
20.574
19.3028
19.3728
20.8338
23.8845
29.3891
39.0578
57.2303
93.8125
170.461
326.212
630.45
704.643
313.244
163.434
91.1217
55.3208
37.2511
27.8763
23.1535
20.5413
19.3967
19.4087
20.5425
22.9613
27.8724
37.123
54.5886
89.1956
161.056
312.182
611.998
627.017
295.211
154.256
84.8812
51.7194
35.454
27.0924
22.8368
20.4048
19.3453
19.3355
20.3193
22.5155
26.8942
34.9886
51.0386
83.7305
152.598
299.36
651.891
585.012
283.944
142.639
78.493
48.3871
33.6298
26.1015
22.086
20.1321
19.2311
19.2399
20.1173
22.0177
25.9218
33.3575
47.8613
77.7719
142.503
278.776
573.612
510.504
262.078
131.235
71.5096
44.2223
31.3056
24.9087
21.5156
19.6665
18.9037
18.949
19.8505
21.5942
24.8505
31.3085
44.0051
70.9181
131.476
264.423
511.52
437.579
248.192
116.974
62.347
38.9981
28.4416
23.3465
20.7013
19.3829
18.6883
18.7187
19.4767
20.896
23.4362
28.4729
39.1886
63.2325
119.804
250.911
441.429
392.231
227.857
99.391
51.1353
32.5449
24.7463
21.1131
19.2436
18.2813
17.8923
17.9027
18.3165
19.2972
21.2202
24.9845
33.1778
52.3743
101.123
231.061
394.444
386.85
192.803
74.9247
38.2664
25.3738
20.2023
17.9192
16.8413
16.3223
16.114
16.1285
16.3682
16.9069
17.9937
20.3202
25.5996
38.6865
75.6684
195.424
389.358
438.147
144.308
44.0502
23.4054
17.781
15.9791
15.3288
15.0614
14.9417
14.8989
14.9008
14.9573
15.0868
15.3651
16.0495
17.904
23.5973
44.1893
143.44
442.808
465.775
56.7377
23.5672
17.4856
15.6991
15.1239
14.9255
14.85
14.8182
14.8066
14.8075
14.8221
14.8569
14.9354
15.1354
15.704
17.4493
23.4366
56.8694
466.114
1214.25
689.302
414.837
257.11
147.643
79.3569
45.2608
29.6037
22.6741
20.097
20.3228
23.1714
30.1065
44.8615
75.0661
136.019
238.263
400.747
700.587
1275.93
1227.08
700.599
419.468
257.637
145.966
73.7548
41.5776
27.4641
21.3026
18.9897
19.2738
21.6864
27.8568
41.6977
70.8239
134.773
238.844
404.876
711.778
1303.96
1246.17
719.773
422.504
258.711
144.849
76.7912
43.9142
28.8945
22.2043
19.6812
19.9386
22.5217
29.0797
43.7745
72.0824
133.87
239.401
410.308
717.823
1404.25
1255.21
707.01
422.243
257.523
139.378
75.0829
43.1936
28.7044
22.1186
19.765
19.6796
23.2999
30.2471
42.6358
75.3153
129.226
236.936
407.937
715.211
1300.65
1286.99
710.486
428.365
254.19
139.777
72.9048
42.0048
28.133
21.1575
19.6452
20.2196
23.4029
30.642
45.6803
76.6436
132.175
237.356
405.29
722.845
1325.68
1378.59
718.41
422.354
250.589
134.184
67.6413
40.1978
26.8718
21.2645
19.3511
20.0361
23.1586
30.2485
45.1446
76.4728
135.304
237.816
408.727
736.045
1434.56
1323.47
707.423
417.581
253.364
142.611
71.9336
40.5414
28.3409
22.0637
19.2353
19.4764
22.2769
28.7605
42.7921
76.0005
135.225
238.164
404.115
720.772
1336.7
1269.49
704.896
419.44
254.588
142.8
76.5156
43.7098
28.9368
22.356
19.8407
20.2369
23.3331
30.4393
45.2679
75.4653
129.708
233.381
402.116
725.948
1414.1
1283.81
713.21
421.555
253.95
140.395
75.1754
43.21
28.8288
22.328
19.3176
19.4368
22.1839
28.6057
42.3575
75.1034
129.357
230.873
399.404
718.726
1311.25
1320.59
721.315
425.606
255.186
139.015
73.9867
42.5685
28.7567
22.5284
20.1599
20.1053
22.9437
29.7609
43.8073
75.3412
130.311
225.021
399.047
724.54
1423.57
1379.49
730.866
428.401
252.474
135.591
71.6745
41.2735
28.3908
22.4199
20.2151
20.594
23.5819
30.7931
45.0976
75.0516
129.795
225.533
391.682
709.161
1358.77
1282.45
712.473
419.717
249.116
127.335
64.9541
37.2623
27.7128
22.1743
20.1476
20.5442
22.9498
30.5211
42.5978
74.277
128.339
219.643
390.191
707.192
1445.81
1309.72
716.721
415.933
248.212
136.666
72.3374
40.0712
28.2992
21.5273
19.9264
20.5536
23.195
30.6309
44.7968
74.1493
128.408
224.43
387.205
689.903
1316.14
1412.39
711.096
415.952
246.911
140.696
75.6007
40.9027
28.3541
21.9953
19.4196
20.5492
23.7517
30.3757
42.2109
70.2155
123.001
220.691
385.764
684.486
1232.64
1324.77
690.046
406.18
241.12
134.977
72.0275
42.6336
28.4138
21.4354
19.5239
20.4321
23.5872
30.2122
43.0584
72.2671
122.946
220.103
387.172
687.19
1245.78
1264.11
682.752
399.999
239.277
138.373
75.818
40.6297
27.0791
22.1149
20.0349
20.3579
22.8275
29.2035
44.4573
71.9672
121.912
218.058
382.687
684.308
1248.17
1338.48
682.757
396.039
239.881
138.147
75.1268
42.3171
28.1676
22.1324
19.9741
19.928
23.4108
30.4681
43.8824
71.0555
122.8
216.975
382.848
687.719
1274.02
1285.69
683.146
399.184
238.283
131.994
70.6698
39.3538
26.3719
21.1669
19.8232
20.1762
22.5888
29.2955
45.0309
67.0013
118.239
214.16
383.106
687.987
1336.79
1357.07
688.931
400.559
241.856
137.274
74.5569
42.1404
27.9792
22.0406
19.9095
19.9708
23.1662
30.1669
45.9687
73.0081
128.631
224.723
390.683
680.394
1194.2
1374.79
693.581
398.665
241.02
135.972
72.4602
38.7524
26.0812
21.7195
19.7498
20.6279
23.9826
31.2268
46.2332
76.9664
136.025
233.182
397.809
694.871
1223.43
1332.42
683.552
395.857
237.547
128.673
70.1845
39.5149
26.7639
21.7772
19.9139
20.5959
23.8779
30.9508
43.754
73.1813
135.296
231.829
402.043
700.289
1258.73
1250.8
677.932
393.05
233.465
127.998
66.4096
41.027
27.7949
21.8893
19.856
20.4924
23.6622
30.859
45.6249
75.8014
134.916
235.894
403.552
714.529
1291.16
1258.27
679.461
390.717
227.711
129.364
70.978
41.2294
27.6096
21.7145
19.2905
20.2339
23.226
29.2733
43.2124
72.3389
134.13
232.227
399.836
719.677
1413.27
1271.88
664.246
383.245
225.781
127.686
66.6964
40.0636
27.1789
21.6462
19.7504
20.1337
22.5408
30.6444
45.9455
76.1193
133.059
231.252
397.362
712.075
1386.7
1298.13
662.979
381.788
223.787
122.442
71.3866
38.9352
25.9395
20.8211
19.6641
20.1442
22.4605
29.2538
43.6949
72.6348
127.337
230.43
393.142
705.828
1394.18
1163.26
653.529
384.877
228.037
127.672
73.2677
42.7671
28.2091
22.0152
19.883
20.1727
22.5724
30.3211
46.0274
76.3973
129.212
229.306
387.56
694.824
1347.77
1179.86
669.45
389.982
233.5
133.438
73.6733
42.8158
28.2018
22.1203
19.9346
19.7979
22.609
29.3084
44.0091
76.547
130.331
228.359
384.362
689.859
1441.19
1210.53
676.015
395.57
236.67
134.104
73.4248
42.6206
27.3449
21.2026
19.9421
20.4603
23.5124
30.8278
46.6741
76.9741
133.799
226.756
382.933
679.238
1295.58
1239.51
684.07
395.235
235.937
129.215
72.1462
42.3355
28.6569
22.3233
20.1276
20.1612
22.6526
29.2861
46.6708
77.2927
134.381
229.276
383.541
676.593
1225.56
1339.79
693.688
398.05
234.815
134.536
71.412
39.6958
28.1508
21.5044
19.9512
20.5921
23.8704
30.9031
46.5775
76.5744
133.873
229.082
384.686
678.277
1312.28
1324.53
688.692
394.824
230.251
134.235
73.3411
42.6192
28.3542
22.0685
19.4153
19.8895
23.6907
31.4228
46.1835
76.0114
134.235
227.623
380.817
668.604
1198.09
1337.16
690.028
393.317
231.671
132.493
68.5435
41.2016
26.4008
21.6578
19.8078
20.3744
23.0511
31.1474
43.6834
71.7651
133.834
229.087
381.178
670.65
1202.92
1306.11
682.045
390.013
228.145
126.731
69.7371
39.113
26.2992
21.4344
19.0667
20.3355
23.8945
31.4442
45.683
74.2137
133.34
228.455
382.281
675.591
1283.88
1243.13
668.575
385.574
223.436
130.931
72.6362
39.9574
26.2324
21.1668
19.1375
19.7399
23.0584
31.0812
42.9566
69.0431
132.467
227.042
384.044
675.184
1202.37
1251.94
659.963
380.266
225.622
131.442
72.5476
38.2994
26.6971
21.6399
19.634
20.3046
23.7224
31.4566
45.4365
73.2328
131.8
232.531
385.895
675.52
1286.59
1343.61
654.935
372.548
219.162
130.152
72.6809
39.5226
25.5615
21.5913
19.1494
19.7077
23.2549
31.4091
47.0601
77.1042
135.714
232.518
384.247
662.995
1165.11
1257.52
641.127
367.406
222.382
131.844
73.1842
41.7369
26.8318
21.9619
19.9844
20.5588
22.9411
29.9954
46.8417
78.9233
135.738
232.884
386.284
667.34
1169.1
1319.81
653.364
370.33
218.454
131.732
72.7229
40.0942
27.7424
22.0274
19.5035
20.6045
23.8124
30.7087
44.296
78.1083
134.176
231.663
386.212
669.955
1177.55
1226.73
640.686
367.342
227.54
134.81
71.3672
42.1625
28.3162
22.1801
20.0124
20.5962
23.662
29.9397
45.5289
77.5718
131.732
232.208
388.476
674.306
1189.68
1294.38
668.394
383.949
235.793
135.865
73.407
40.3077
27.8539
21.9986
19.4522
20.3794
23.5868
31.3799
47.4377
77.2614
134.34
232.934
388.64
677.258
1200.42
1217.35
672.347
382.535
237.052
135.157
73.1697
42.696
27.2854
21.4195
19.8669
20.2149
22.6716
29.6573
46.8737
76.5592
130.458
231.099
392.157
682.887
1213.49
1237.06
684.068
397.974
238.966
134.315
68.735
42.5388
28.9115
22.4999
20.0779
20.0009
23.474
30.084
46.4446
75.9481
131.655
230.573
390.152
688.588
1239.86
1226.2
685.689
396.757
233.973
132.172
72.3774
42.6891
29.0323
22.5263
20.0909
20.5731
23.0969
30.08
45.7331
72.9711
135.041
231.804
389.498
688.99
1256.17
1307.09
687.466
398.652
237.702
128.682
68.5217
39.9815
28.6562
22.362
19.4114
20.566
23.8561
30.9342
44.4034
77.4675
135.938
232.162
389.122
689.943
1297.25
1208.45
676.281
397.922
241.431
136.983
74.933
44.0926
29.0448
22.4573
19.6447
20.467
23.7795
30.8838
46.2631
77.0238
135.332
232.612
390.137
693.059
1306.6
1218.39
680.112
400.337
242.868
132.27
70.4469
43.4701
28.8314
22.4047
20.0164
19.9046
22.9743
30.9872
45.6597
76.3509
135.316
234.049
393.055
687.538
1216.13
1295.97
689.193
405.225
243.819
136.936
74.4588
43.4522
27.433
21.99
19.9854
20.4069
23.5957
30.7383
44.5526
72.4444
131.101
233.271
394.923
693.586
1224.88
1193.09
673.9
398.195
240.12
135.395
73.1339
42.5545
28.055
21.1536
19.6641
20.1859
23.3744
30.4498
43.5374
74.3842
132.961
232.671
396.737
700.606
1256.48
1195.3
676.187
401.75
239.481
133.58
71.293
39.2705
26.2754
21.2675
19.4981
19.3268
22.1777
29.9385
43.417
76.761
135.367
229.92
400.496
713.956
1284.09
1212.46
677.789
395.811
234.621
126.606
65.5347
40.3099
27.2087
20.7196
19.5338
19.6319
22.1811
28.83
44.7771
76.1353
134.922
233.805
398.682
714.246
1394.59
1210.98
676.361
391.703
232.996
128.448
66.6349
40.172
27.0281
20.9292
19.6362
20.0907
22.345
29.0602
41.9302
71.6062
133.999
229.753
394.823
708.362
1346.3
1219.97
671.539
389.873
231.061
130.25
66.304
37.843
25.462
21.2445
19.6443
20.2252
22.8517
28.114
43.1133
73.4133
131.462
236.744
399.858
707.411
1381.84
1223.46
672.968
390.865
233.763
129.71
68.0406
39.3575
25.9834
20.7888
19.1184
20.1438
22.8329
29.1555
44.5865
75.7541
135.67
237.372
398.802
698.706
1311.75
1229.82
668.3
389.715
231.894
128.827
63.1017
36.1749
26.4682
21.5207
19.6908
20.2842
23.294
29.9449
42.6257
74.9169
135.838
239.758
402.812
700.91
1249.62
1259.12
673.213
390.733
236.067
127.377
68.8278
39.5043
26.2764
21.4738
19.6006
20.1348
23.0469
29.633
43.3775
70.9678
131.132
239.64
408.532
707.946
1269.04
1295.66
677.677
393.553
239.1
137.478
75.3254
42.9568
28.1061
21.5918
19.3657
19.899
22.7366
29.0303
40.8534
69.2211
128.458
236.649
405.622
715.765
1336.39
1229.72
676.438
395.863
239.597
137.519
74.7266
42.4527
27.9143
20.7629
18.9251
19.148
21.7087
27.8395
40.9669
67.9317
125.45
234.712
408.167
714.974
1376.59
1290.83
685.808
404.418
242.768
137.76
73.9487
39.9801
26.4963
21.1006
19.5389
19.6509
22.2523
28.5735
41.873
66.6934
120.889
226.569
398.31
710.921
1385.43
1303.65
695.147
403.454
241.112
131.554
69.8992
42.1891
28.3345
22.0949
19.6624
19.0561
21.153
27.0784
40.3699
69.3486
120.114
220.261
392.056
697.861
1392.1
1296.33
690.416
406.155
240.4
135.739
74.0519
40.8444
27.0826
21.4621
19.6673
19.8082
22.0726
28.2672
43.4959
71.2134
124.15
216.639
383.509
690.871
1383.58
1265.9
682.592
405.276
240.898
133.094
70.7615
43.4238
28.6857
22.4087
19.5644
20.4872
22.9407
29.4876
42.1609
68.3641
122.174
220.577
383.824
687.954
1338.79
1197.75
674.507
404.236
245.236
142.033
76.9506
43.7719
27.3097
22.27
20.1304
20.7213
24.0644
31.6743
46.41
75.6792
132.819
221.25
387.04
688.648
1261.25
1212.31
679.254
405.354
245.508
141.194
72.6143
41.2506
28.2662
22.2302
20.0923
20.5694
23.759
31.2031
45.8559
73.0992
134.051
231.997
394.35
702.62
1288.56
1298.92
684.711
401.953
245.877
137.627
76.5906
44.0768
27.5132
21.2915
19.3175
20.214
22.5712
29.6739
44.0914
76.6465
135.269
234.887
397.515
702.137
1255.11
1202.66
683.883
403.983
246.645
141.455
76.5736
43.9517
28.8442
22.1441
19.8911
20.3231
23.0001
31.0439
46.141
76.2939
134.168
235.697
397.236
700.485
1280.73
1220.42
679.945
406.477
246.436
140.221
72.1303
41.1461
28.4429
21.8512
19.1683
20.1
22.8848
30.7058
45.5763
75.8867
130.925
236.165
400.237
706.84
1370.9
1288.66
680.663
411.046
245.157
135.712
75.957
43.9179
28.508
21.091
19.2194
20.0275
23.2315
30.297
44.5007
72.5265
133.746
237.416
405.036
708.389
1270.73
1187.21
676.566
406.993
244.463
139.655
75.7573
43.2553
28.1536
21.3527
19.5269
19.3724
22.1754
28.9376
42.5692
74.6942
132.528
236.711
404.062
718.442
1384.4
1200.58
672.82
403.72
243.792
137.706
71.0996
40.0829
26.1586
21.7074
19.7205
19.9207
23.1254
31.0039
45.3501
74.2012
130.046
234.276
405.327
719.327
1367.22
1253.21
676.469
399.245
238.852
131.311
74.8343
43.0505
27.3871
21.9798
19.7952
20.5234
23.9378
31.189
45.1247
70.0028
122.482
234.957
404.572
720.46
1394.15
1180.8
668.827
393.72
239.72
133.765
75.1411
42.7082
28.2224
22.076
19.3209
20.4953
24.0632
31.426
45.5613
74.6508
128.425
241.434
407.915
720.098
1404.91
1186.77
664.577
394.125
238.237
135.049
72.899
40.1009
26.6518
22.0082
19.9567
20.4947
24.0359
31.3226
43.4856
72.884
134.954
243.678
409.117
712.126
1401.32
1191.25
664.283
394.828
240.412
141.739
78.5634
43.7976
28.6728
22.3134
20.0034
19.9598
24.033
31.9023
47.6224
79.5382
141.964
246.616
411.22
722.22
1360.45
1205.7
665.773
396.686
243.638
142.671
77.7677
41.1535
28.1426
22.3489
20.1723
20.6458
23.9582
31.6077
47.2204
78.889
141.596
247.097
412.842
725.463
1457.3
1262
662.197
394.395
242.56
141.817
77.3249
43.7894
27.3773
22.2135
20.0938
20.5026
22.9899
29.9763
44.7086
75.6798
141.933
248.492
413.264
715.46
1321.64
1154.16
648.182
389.709
241.117
140.49
76.5378
43.6327
28.827
22.3779
20.07
20.5418
23.8928
31.7762
48.2152
81.0122
139.27
247.831
413.691
715.498
1253.8
1154.16
648.546
393.318
241.759
138.913
70.9084
40.3514
28.2196
22.1373
19.8096
19.6632
22.5273
30.1504
47.119
80.1659
140.44
245.343
411.639
714.184
1267.26
1171.12
648.707
386.039
240.124
136.836
74.0675
42.6931
28.374
22.0265
19.7621
20.0365
22.5485
29.6343
46.0305
78.5415
137.911
245.375
412.622
720.192
1277.11
1179.72
648.178
385.663
240.23
133.383
71.2105
39.4755
27.5135
20.9564
18.8659
19.8102
22.3352
29.3414
42.864
74.249
138.364
243.393
416.451
720.765
1301.13
1197.51
648.781
385.647
240.406
135.879
71.8296
41.3754
27.5808
21.5418
19.0695
19.687
22.3834
28.5005
42.1934
72.8725
133.846
239.802
410.247
719.909
1321.1
1208.88
647.773
384.273
238.733
128.513
68.657
40.0854
26.0377
21.2841
19.2591
19.5042
21.9968
27.4372
41.0852
69.8518
130.391
237.825
407.452
725.723
1444.62
1235.66
645.455
382.482
232.781
123.488
62.9882
39.0244
26.6172
21.1831
19.0269
18.7947
21.0108
26.7952
39.0046
68.5055
125.406
235.602
409.703
717.62
1402.63
1274.49
631.353
378.009
222.718
120.644
65.2944
38.5188
25.1913
20.2385
18.8187
19.0455
21.0071
26.3934
38.0114
63.5778
119.71
225.577
395.923
704.418
1383.12
1214.58
620.895
364.283
214.902
116.272
62.7745
37.4666
25.9174
20.7047
18.4691
18.9566
21.2188
26.4824
36.9752
61.4406
114.791
219.291
387.174
694.912
1487.68
1173.18
617.828
361.441
208.837
111.062
59.4031
35.7441
25.1684
20.4204
18.6389
18.7708
20.4792
26.0678
37.0166
60.3285
108.609
212.162
375.331
663.216
1364.59
1245.84
621.041
362.272
206.098
106.426
55.996
33.9583
24.3763
20.0694
18.4882
18.6749
20.689
25.435
35.6235
56.0884
107.628
207.345
367.641
638.526
1281.95