/*--------------------------------*- C++ -*----------------------------------*\
  =========                 |
  \\      /  F ield         | OpenFOAM: The Open Source CFD Toolbox
   \\    /   O peration     | Website:  https://openfoam.org
    \\  /    A nd           | Version:  6
     \\/     M anipulation  |
\*---------------------------------------------------------------------------*/
FoamFile
{
    version     2.0;
    format      ascii;
    class       volScalarField;
    location    "5";
    object      k;
}
// * * * * * * * * * * * * * * * * * * * * * * * * * * * * * * * * * * * * * //

dimensions      [0 2 -2 0 0 0 0];

internalField   nonuniform List<scalar> 
10000
(
0.326041
0.497592
0.491243
0.462717
0.434827
0.413256
0.398245
0.388647
0.383187
0.380868
0.381185
0.384067
0.389759
0.398889
0.412509
0.43163
0.456279
0.4836
0.489767
0.320047
0.339205
0.531889
0.517551
0.475798
0.44022
0.414125
0.398233
0.388167
0.382546
0.38019
0.380552
0.383609
0.389633
0.399178
0.413277
0.437228
0.468848
0.507455
0.501488
0.331001
0.343843
0.518723
0.505079
0.466034
0.43534
0.413062
0.397406
0.387559
0.382049
0.3797
0.380124
0.383111
0.389156
0.398904
0.412291
0.431295
0.458663
0.502171
0.502484
0.333801
0.352222
0.524051
0.511925
0.464519
0.43397
0.413068
0.396761
0.386912
0.381572
0.379482
0.379933
0.382888
0.388761
0.398693
0.413678
0.43096
0.456507
0.497853
0.524502
0.343374
0.386976
0.533854
0.520896
0.464293
0.433362
0.412097
0.395808
0.386293
0.381198
0.379234
0.379683
0.382492
0.38831
0.398097
0.413048
0.431326
0.455767
0.478585
0.49512
0.372566
0.341671
0.55551
0.497423
0.460419
0.43278
0.411346
0.395103
0.385638
0.380723
0.378773
0.379251
0.382106
0.387726
0.397139
0.412119
0.435198
0.46457
0.474937
0.484416
0.303057
0.375437
0.521037
0.494927
0.461408
0.433663
0.41076
0.394517
0.385211
0.380398
0.378501
0.378974
0.381761
0.387122
0.395871
0.409048
0.428088
0.457213
0.474016
0.485008
0.305965
0.344251
0.485533
0.480821
0.463231
0.438112
0.410802
0.394225
0.3851
0.380321
0.378459
0.378931
0.381779
0.387345
0.39605
0.409293
0.427561
0.448039
0.470887
0.480346
0.30306
0.317275
0.486467
0.487794
0.475222
0.435726
0.409668
0.393959
0.385008
0.380251
0.378436
0.378895
0.381697
0.387288
0.397017
0.411684
0.43294
0.449874
0.474691
0.48583
0.312307
0.323905
0.484104
0.478787
0.463777
0.431408
0.408535
0.394005
0.385194
0.380399
0.378506
0.37891
0.38162
0.387054
0.396317
0.409224
0.427103
0.448882
0.475973
0.483926
0.31319
0.376969
0.519763
0.482293
0.455813
0.433839
0.410185
0.394765
0.385552
0.380551
0.37856
0.378941
0.381636
0.387067
0.396319
0.411939
0.433019
0.4532
0.486737
0.487925
0.321805
0.358713
0.517893
0.487671
0.457689
0.429975
0.408647
0.394379
0.385504
0.380597
0.378576
0.378947
0.381635
0.387032
0.395998
0.410511
0.431021
0.461352
0.475578
0.484314
0.349432
0.342464
0.515315
0.487898
0.457952
0.429635
0.408396
0.394251
0.385266
0.380378
0.378447
0.378912
0.381724
0.387173
0.396346
0.409968
0.433865
0.456613
0.486957
0.509144
0.304281
0.373775
0.549098
0.491321
0.467257
0.43121
0.408475
0.394038
0.385193
0.38041
0.378554
0.379049
0.38188
0.387301
0.395809
0.408969
0.428593
0.462174
0.488179
0.497995
0.337763
0.306062
0.510708
0.487841
0.454138
0.431487
0.409027
0.393796
0.385026
0.380401
0.378597
0.379164
0.382023
0.387526
0.396235
0.409475
0.427608
0.449542
0.47398
0.487184
0.312371
0.309859
0.476798
0.499834
0.452293
0.426619
0.407401
0.393551
0.385087
0.380432
0.37857
0.379228
0.382175
0.387875
0.397406
0.410604
0.429487
0.452531
0.473551
0.485691
0.31626
0.314638
0.463471
0.470999
0.449812
0.426914
0.409078
0.39407
0.385286
0.380578
0.378746
0.379367
0.382323
0.388047
0.397643
0.413795
0.437137
0.465928
0.478427
0.491561
0.330851
0.364049
0.466953
0.495957
0.452962
0.427721
0.409594
0.3948
0.385721
0.380813
0.378944
0.379389
0.382343
0.388074
0.397811
0.412806
0.43381
0.45793
0.477309
0.490124
0.338772
0.329642
0.454816
0.479364
0.454505
0.429011
0.410267
0.395489
0.386255
0.381175
0.379025
0.379483
0.382347
0.38804
0.397339
0.412008
0.436385
0.468805
0.482803
0.498168
0.356007
0.304562
0.45582
0.468074
0.465214
0.430896
0.410168
0.395977
0.386795
0.3816
0.379336
0.379803
0.38266
0.38835
0.397628
0.411662
0.431863
0.458082
0.484168
0.50329
0.407212
0.311879
0.461805
0.473937
0.455413
0.430616
0.410695
0.39645
0.387019
0.381816
0.379537
0.379973
0.383064
0.389144
0.39917
0.414428
0.433848
0.462342
0.505378
0.502608
0.355217
0.362269
0.468061
0.499938
0.471722
0.433662
0.411563
0.396798
0.387402
0.382042
0.37975
0.380223
0.38334
0.389514
0.399697
0.415254
0.435979
0.464786
0.506653
0.522607
0.335039
0.331291
0.468957
0.494241
0.466719
0.433666
0.411585
0.396645
0.387237
0.38193
0.379858
0.380425
0.383603
0.389859
0.400297
0.416495
0.438836
0.476215
0.512876
0.531018
0.383872
0.299159
0.473737
0.498181
0.462706
0.434708
0.411717
0.39621
0.38667
0.38162
0.379672
0.380318
0.383523
0.389871
0.40042
0.417202
0.442872
0.477912
0.519293
0.542455
0.381542
0.300585
0.485947
0.500558
0.471624
0.440666
0.413422
0.396273
0.386421
0.381385
0.379468
0.380147
0.383421
0.389688
0.399818
0.415471
0.440471
0.476973
0.518666
0.54373
0.383681
0.311409
0.498923
0.499282
0.459798
0.435386
0.410565
0.394921
0.385728
0.380794
0.378902
0.379622
0.382937
0.3893
0.399693
0.414805
0.437664
0.471268
0.512167
0.539433
0.368567
0.320876
0.477383
0.492461
0.464851
0.434228
0.409145
0.394378
0.385532
0.380742
0.378763
0.379297
0.38235
0.388504
0.398945
0.415404
0.43754
0.475836
0.524887
0.56074
0.40174
0.366992
0.47254
0.473751
0.453234
0.429945
0.408856
0.394589
0.385632
0.380788
0.378748
0.379055
0.381832
0.387471
0.397264
0.413043
0.43651
0.456553
0.491518
0.513817
0.336808
0.339818
0.467965
0.475747
0.454855
0.434833
0.411387
0.395272
0.386015
0.380946
0.378778
0.379013
0.381573
0.3867
0.395429
0.409292
0.429911
0.452695
0.491382
0.516193
0.341463
0.319024
0.474394
0.484609
0.458395
0.431424
0.41047
0.395272
0.386058
0.381019
0.378803
0.378949
0.381476
0.386514
0.394457
0.406274
0.42301
0.44851
0.496812
0.52072
0.347658
0.325691
0.486012
0.504513
0.470669
0.43644
0.411471
0.395757
0.386388
0.381161
0.378876
0.379038
0.38155
0.38663
0.394885
0.407099
0.423665
0.443077
0.466867
0.478701
0.311124
0.341723
0.514221
0.482984
0.45586
0.429991
0.409445
0.395366
0.386358
0.381152
0.378848
0.378953
0.381545
0.386831
0.395808
0.410978
0.430842
0.445561
0.470423
0.483794
0.323883
0.381847
0.511682
0.498582
0.466124
0.434647
0.410019
0.395355
0.386235
0.381004
0.378726
0.378936
0.381491
0.386883
0.396084
0.410087
0.429293
0.446947
0.471144
0.478929
0.350633
0.331171
0.499825
0.482301
0.454858
0.429297
0.408927
0.39497
0.386163
0.381064
0.378787
0.378907
0.381484
0.386803
0.395512
0.409116
0.428091
0.450099
0.483135
0.478264
0.293194
0.373673
0.501654
0.481456
0.454458
0.429581
0.408991
0.394798
0.385848
0.380795
0.378655
0.378923
0.381502
0.38681
0.396127
0.411991
0.433839
0.460454
0.473158
0.473923
0.299854
0.346842
0.503977
0.496686
0.46519
0.432081
0.409198
0.394788
0.385766
0.380771
0.378699
0.379045
0.381641
0.386945
0.395637
0.409904
0.428498
0.456829
0.493652
0.497787
0.344067
0.324982
0.514051
0.473032
0.452207
0.434232
0.410157
0.394483
0.385614
0.380743
0.378788
0.379189
0.381871
0.387269
0.396203
0.409065
0.429049
0.464568
0.490804
0.490973
0.324395
0.329089
0.471701
0.467239
0.450548
0.428909
0.408029
0.394303
0.385719
0.380886
0.37885
0.379301
0.382007
0.38741
0.396621
0.410809
0.428269
0.455311
0.487096
0.48234
0.313271
0.383796
0.478902
0.472284
0.461563
0.429036
0.408419
0.39474
0.38594
0.381093
0.379041
0.379352
0.382013
0.387373
0.395948
0.409345
0.429292
0.458536
0.508677
0.4791
0.323912
0.361627
0.497146
0.478229
0.454387
0.429217
0.408851
0.395004
0.386113
0.38116
0.379063
0.379364
0.382
0.387267
0.396404
0.410488
0.431783
0.460697
0.485528
0.473471
0.329799
0.334487
0.480074
0.479174
0.455483
0.430194
0.409638
0.395254
0.386293
0.381243
0.379108
0.379325
0.381913
0.386913
0.395125
0.406773
0.423175
0.443687
0.459798
0.466766
0.281598
0.37406
0.48281
0.500151
0.468627
0.436531
0.411298
0.395698
0.386424
0.381352
0.379212
0.379436
0.382037
0.387086
0.395274
0.407387
0.425116
0.451274
0.462451
0.471809
0.288216
0.324489
0.488143
0.485816
0.459604
0.432774
0.411829
0.39599
0.386532
0.381356
0.379198
0.379471
0.382106
0.38732
0.395905
0.410079
0.427514
0.442808
0.462745
0.469578
0.288619
0.371499
0.491802
0.487722
0.460188
0.433342
0.412331
0.396537
0.38691
0.381578
0.379344
0.379572
0.382179
0.38748
0.396561
0.409692
0.428111
0.445313
0.469085
0.481872
0.299457
0.361979
0.518074
0.494197
0.463757
0.435058
0.412436
0.396989
0.387271
0.381764
0.37932
0.379542
0.38225
0.387722
0.396494
0.408591
0.426334
0.448352
0.473309
0.500162
0.304223
0.362409
0.522296
0.499225
0.466371
0.436471
0.413185
0.397439
0.387506
0.381921
0.379532
0.379735
0.382367
0.387788
0.39712
0.411733
0.433943
0.462332
0.492422
0.502281
0.313465
0.334239
0.534661
0.522467
0.479021
0.442076
0.41567
0.398236
0.387768
0.382048
0.379648
0.37991
0.382589
0.388024
0.396662
0.410146
0.431967
0.458672
0.488585
0.507697
0.319006
0.337527
0.531062
0.51357
0.46966
0.437148
0.413897
0.397573
0.387605
0.381988
0.379558
0.379893
0.382746
0.388339
0.397362
0.410166
0.431277
0.456426
0.48491
0.508661
0.327322
0.347977
0.555211
0.530717
0.468316
0.435979
0.414129
0.397385
0.387416
0.382009
0.379724
0.380095
0.382953
0.388585
0.397644
0.410308
0.42855
0.450174
0.472955
0.499354
0.361486
0.369007
0.517145
0.508945
0.464059
0.434624
0.413776
0.3971
0.3872
0.381719
0.379626
0.379998
0.38289
0.388547
0.397377
0.410965
0.433554
0.461101
0.475914
0.507639
0.315618
0.322012
0.485078
0.484671
0.460912
0.433654
0.413131
0.396858
0.387004
0.38174
0.379627
0.380059
0.382915
0.388473
0.397266
0.409991
0.42719
0.453842
0.48361
0.472821
0.353489
0.36703
0.49185
0.490393
0.462582
0.433729
0.41262
0.396379
0.386706
0.381607
0.379564
0.380017
0.382906
0.388641
0.398423
0.412506
0.426764
0.443879
0.464332
0.471365
0.341612
0.336392
0.498405
0.513358
0.474699
0.434384
0.411654
0.395786
0.386441
0.381457
0.379452
0.37985
0.382735
0.388383
0.397856
0.412214
0.430757
0.444544
0.463706
0.474289
0.333337
0.302711
0.504116
0.494793
0.462307
0.432304
0.410929
0.395302
0.386075
0.381115
0.37916
0.379696
0.382561
0.388115
0.397082
0.410297
0.425728
0.445665
0.467117
0.477533
0.309089
0.300305
0.480888
0.503398
0.467294
0.434443
0.410206
0.394884
0.385912
0.381007
0.379078
0.37958
0.382424
0.387744
0.396298
0.408822
0.42659
0.448246
0.467558
0.47444
0.312902
0.307687
0.475828
0.476889
0.451632
0.427511
0.407887
0.394439
0.385745
0.380979
0.379
0.379475
0.382379
0.38801
0.39656
0.409378
0.428614
0.461111
0.474903
0.479485
0.359251
0.312611
0.502249
0.485491
0.45461
0.429787
0.408403
0.394451
0.38578
0.380925
0.378888
0.379329
0.382263
0.388008
0.397201
0.409711
0.428746
0.460455
0.493759
0.48312
0.329091
0.31939
0.479894
0.500552
0.465685
0.434365
0.409407
0.394616
0.385688
0.380795
0.378805
0.379263
0.382119
0.387775
0.397071
0.410614
0.428302
0.453958
0.49055
0.486593
0.299124
0.329479
0.481776
0.481234
0.456842
0.430973
0.409571
0.395057
0.38588
0.380847
0.378781
0.379121
0.381908
0.387459
0.3968
0.411177
0.429106
0.454581
0.494741
0.511231
0.302366
0.373113
0.51603
0.510361
0.473788
0.434461
0.410752
0.395653
0.386125
0.380842
0.378687
0.37904
0.381841
0.38737
0.396182
0.409944
0.430211
0.461311
0.48996
0.500918
0.33743
0.312963
0.517529
0.509899
0.472974
0.439033
0.412353
0.396002
0.386385
0.381039
0.378801
0.37909
0.38182
0.387364
0.397012
0.412117
0.434105
0.454548
0.480393
0.491322
0.314134
0.322571
0.531468
0.515366
0.473162
0.437716
0.412513
0.39606
0.386401
0.380987
0.378793
0.379073
0.381777
0.38721
0.396188
0.410084
0.430721
0.457086
0.48273
0.492518
0.320906
0.326801
0.530849
0.510951
0.468019
0.434623
0.411289
0.39599
0.386496
0.381101
0.378777
0.378968
0.381728
0.38743
0.396917
0.410781
0.432867
0.471564
0.504854
0.516463
0.366753
0.343961
0.557396
0.532729
0.469449
0.434847
0.411329
0.396029
0.386489
0.381096
0.378759
0.378957
0.381641
0.387227
0.396726
0.412662
0.434783
0.465537
0.491642
0.499429
0.346413
0.37626
0.532232
0.507937
0.471128
0.43815
0.411809
0.396155
0.386576
0.381183
0.378849
0.379061
0.381742
0.38743
0.397001
0.411359
0.429898
0.457541
0.503318
0.502048
0.387015
0.369211
0.508778
0.486618
0.457957
0.433247
0.411145
0.39596
0.386474
0.381148
0.378856
0.37908
0.381797
0.387432
0.396925
0.410847
0.430564
0.455653
0.479421
0.491196
0.335945
0.377313
0.537751
0.492759
0.458331
0.43797
0.412291
0.396068
0.386511
0.381209
0.378893
0.379138
0.381936
0.387662
0.397108
0.412335
0.437527
0.463407
0.484197
0.506894
0.306481
0.36351
0.527239
0.507107
0.459103
0.434956
0.411652
0.395999
0.386452
0.381155
0.379004
0.37932
0.382136
0.387985
0.398018
0.413916
0.437362
0.468688
0.483594
0.512095
0.341482
0.331365
0.508195
0.490972
0.45729
0.43155
0.410272
0.395652
0.386457
0.381231
0.379014
0.379361
0.382175
0.387939
0.397582
0.412123
0.436905
0.466465
0.485384
0.503593
0.3181
0.335149
0.509209
0.49233
0.457895
0.435296
0.411951
0.395918
0.386314
0.381042
0.378924
0.379309
0.382166
0.387781
0.396972
0.410902
0.431206
0.456909
0.48156
0.503845
0.322131
0.353596
0.524637
0.502147
0.459279
0.432367
0.410439
0.395379
0.386034
0.380901
0.37877
0.379095
0.381995
0.387737
0.397358
0.411908
0.433917
0.463298
0.479782
0.510491
0.336866
0.373589
0.551374
0.524414
0.460987
0.435126
0.411357
0.395045
0.385678
0.380642
0.378673
0.379035
0.381807
0.38724
0.396212
0.408073
0.424843
0.446196
0.472498
0.517281
0.369242
0.378517
0.518788
0.498478
0.457613
0.434845
0.410954
0.39506
0.385769
0.380725
0.378613
0.378989
0.381724
0.387225
0.396058
0.40804
0.424814
0.445539
0.468886
0.480583
0.313345
0.339313
0.493986
0.480543
0.456065
0.431206
0.409945
0.395153
0.386023
0.380924
0.378762
0.379015
0.381671
0.387023
0.395744
0.40848
0.425746
0.446073
0.468176
0.494752
0.283585
0.394457
0.525257
0.502779
0.469419
0.438299
0.413076
0.396231
0.386401
0.381085
0.378862
0.379097
0.381797
0.387232
0.396282
0.41131
0.431818
0.449226
0.470355
0.477864
0.289574
0.371687
0.516147
0.487888
0.459456
0.432819
0.411663
0.396251
0.386726
0.381333
0.379073
0.379282
0.381953
0.387269
0.396042
0.409381
0.428193
0.45044
0.471382
0.475547
0.290684
0.344194
0.513027
0.487871
0.459621
0.433123
0.411682
0.396627
0.387078
0.38157
0.379284
0.379484
0.382205
0.387754
0.396907
0.410088
0.430056
0.461991
0.48918
0.483196
0.325899
0.372716
0.532583
0.50472
0.470679
0.438502
0.41274
0.397001
0.387198
0.381762
0.379415
0.379549
0.382275
0.387884
0.396935
0.41087
0.430771
0.45632
0.479492
0.488211
0.300862
0.318204
0.513142
0.483163
0.458376
0.433255
0.411982
0.396822
0.38716
0.381846
0.37953
0.379784
0.382528
0.388044
0.397278
0.411718
0.432384
0.459185
0.482019
0.488107
0.304953
0.328015
0.485264
0.478725
0.457093
0.433238
0.413182
0.397188
0.387449
0.382028
0.379655
0.379931
0.382827
0.388503
0.397904
0.413134
0.438525
0.469854
0.502784
0.509664
0.347605
0.365946
0.489062
0.483818
0.460133
0.434493
0.412689
0.397171
0.387489
0.382017
0.379729
0.380096
0.383004
0.388928
0.398683
0.413168
0.43482
0.463418
0.492733
0.498464
0.343741
0.327611
0.497215
0.49106
0.464066
0.436738
0.413676
0.397676
0.387755
0.382472
0.380168
0.380552
0.383507
0.389484
0.399481
0.414549
0.438438
0.471977
0.506674
0.497559
0.350999
0.371848
0.50191
0.494462
0.467756
0.43907
0.414939
0.398478
0.388277
0.38269
0.380631
0.381088
0.384088
0.390216
0.400607
0.416431
0.435913
0.46193
0.489973
0.511112
0.351277
0.370532
0.528229
0.516094
0.481173
0.446415
0.418176
0.399869
0.389048
0.383245
0.381061
0.381522
0.384561
0.390988
0.401778
0.41862
0.442645
0.473076
0.506113
0.500984
0.333833
0.373778
0.522736
0.507942
0.476609
0.444478
0.41886
0.40098
0.390026
0.384065
0.381697
0.382199
0.385452
0.391958
0.402849
0.41957
0.442161
0.468262
0.496491
0.502622
0.340352
0.358187
0.529037
0.511268
0.478707
0.446379
0.420686
0.402094
0.391039
0.385119
0.382804
0.383392
0.386737
0.393431
0.40463
0.422133
0.447099
0.471936
0.502613
0.530848
0.354781
0.371447
0.564297
0.533541
0.491859
0.453232
0.42368
0.40419
0.392649
0.386629
0.384313
0.384954
0.38843
0.395342
0.406889
0.42501
0.451012
0.485034
0.523938
0.525184
0.397613
0.420419
0.535778
0.520292
0.487656
0.45266
0.425118
0.406164
0.394516
0.388461
0.386144
0.386788
0.390278
0.39728
0.408852
0.426805
0.452525
0.485525
0.523822
0.528747
0.356423
0.416741
0.54302
0.52576
0.491549
0.457587
0.427822
0.408148
0.396719
0.390739
0.388402
0.388965
0.392369
0.399323
0.410823
0.428515
0.453657
0.48689
0.529316
0.565804
0.405981
0.42837
0.584306
0.552993
0.505157
0.462081
0.431309
0.41165
0.400054
0.393847
0.391284
0.391607
0.394777
0.401515
0.412781
0.429927
0.452223
0.481957
0.520959
0.562708
0.379625
0.424066
0.57702
0.543062
0.498105
0.461274
0.434199
0.415243
0.403757
0.397479
0.394757
0.394899
0.397861
0.404368
0.415072
0.431511
0.455424
0.483438
0.52227
0.571473
0.415949
0.402343
0.567359
0.559713
0.503633
0.461672
0.436118
0.418624
0.40778
0.401803
0.399148
0.39908
0.401505
0.407052
0.416922
0.43197
0.45368
0.484909
0.526093
0.554187
0.36278
0.436695
0.592558
0.543387
0.492212
0.458637
0.435969
0.421142
0.412157
0.407277
0.405119
0.405036
0.40696
0.411432
0.4196
0.43258
0.453611
0.487972
0.541583
0.58674
0.370135
0.374289
0.554499
0.52219
0.479893
0.451716
0.433741
0.423143
0.417111
0.413942
0.41253
0.412477
0.413788
0.416789
0.422557
0.432224
0.447833
0.472717
0.511345
0.542148
0.388278
0.333926
0.520108
0.495135
0.46271
0.442702
0.431461
0.425213
0.422015
0.420393
0.41967
0.419698
0.420537
0.422232
0.425468
0.431524
0.442431
0.460609
0.489245
0.508781
0.326149
0.294369
0.482917
0.46827
0.447648
0.43484
0.42732
0.424047
0.422414
0.421599
0.421226
0.421374
0.422127
0.42347
0.425637
0.429049
0.436861
0.448421
0.466643
0.477662
0.29697
0.284022
0.459284
0.449153
0.435256
0.425938
0.420646
0.418313
0.417042
0.416218
0.415847
0.416074
0.416952
0.418191
0.419897
0.422557
0.428376
0.437959
0.450917
0.458422
0.284828
0.299725
0.450254
0.436943
0.421633
0.411558
0.405755
0.401563
0.398949
0.397332
0.396622
0.396854
0.398102
0.400206
0.403217
0.407714
0.413684
0.424481
0.439422
0.453894
0.302713
0.344451
0.458052
0.418781
0.397858
0.387346
0.382035
0.379569
0.378604
0.378107
0.377942
0.377984
0.37835
0.378965
0.380051
0.382703
0.387863
0.398305
0.41957
0.461691
0.344924
0.365783
0.438162
0.390337
0.380263
0.377236
0.37605
0.375479
0.375188
0.375039
0.374984
0.374993
0.375082
0.37526
0.375571
0.376151
0.377294
0.380187
0.389929
0.437813
0.365601
0.876681
1.05847
0.974213
0.830385
0.670513
0.535585
0.45501
0.41444
0.396372
0.390002
0.391575
0.400815
0.420651
0.458008
0.524992
0.63477
0.780617
0.934526
1.0324
0.872711
0.943995
1.11657
1.02145
0.83671
0.670285
0.531543
0.450918
0.409519
0.393639
0.388412
0.390334
0.399557
0.419236
0.456333
0.522935
0.634107
0.784911
0.981408
1.08547
0.939574
0.930137
1.08887
0.989901
0.837595
0.666513
0.52723
0.443368
0.406485
0.390771
0.387175
0.389546
0.398744
0.418199
0.454912
0.521267
0.632985
0.781921
0.958505
1.05389
0.870527
0.944709
1.13077
0.998549
0.843042
0.662167
0.519509
0.443919
0.407107
0.390504
0.38538
0.387632
0.396126
0.413526
0.449151
0.516776
0.632048
0.778024
0.93607
1.09925
0.879666
0.937477
1.08723
1.03498
0.869406
0.665182
0.527055
0.448365
0.40964
0.391246
0.386165
0.389234
0.398385
0.415487
0.450524
0.516818
0.631037
0.778325
0.934592
1.07285
0.93312
0.912417
1.11816
1.02625
0.859017
0.666386
0.526412
0.447362
0.409007
0.390924
0.385903
0.389308
0.399013
0.41843
0.454069
0.517147
0.631173
0.780834
0.965598
1.0349
0.848877
0.961993
1.08215
1.01012
0.85082
0.659093
0.523424
0.444558
0.407837
0.392096
0.386742
0.389124
0.398322
0.418853
0.455091
0.518695
0.632566
0.781065
0.929948
1.02791
0.844433
0.904273
1.08025
0.971746
0.83427
0.656633
0.521432
0.43835
0.404021
0.391292
0.385312
0.387594
0.396856
0.418561
0.455837
0.516717
0.63377
0.783312
0.936867
1.03626
0.854357
0.972252
1.13634
0.971646
0.840838
0.655374
0.521667
0.445876
0.408597
0.392208
0.387033
0.389529
0.398235
0.417357
0.456287
0.525728
0.636075
0.788862
0.977402
1.04016
0.856391
0.926672
1.09909
0.967779
0.847358
0.652961
0.513702
0.440009
0.405051
0.389851
0.38537
0.389276
0.400152
0.421771
0.460167
0.528316
0.63687
0.788892
0.962816
1.04977
0.871485
0.877719
1.05113
0.956449
0.833788
0.65543
0.526943
0.449939
0.410735
0.392966
0.386811
0.388064
0.397994
0.420699
0.458092
0.525306
0.636056
0.801544
0.942053
1.05167
0.876582
0.888832
1.05038
0.95571
0.821188
0.657595
0.528934
0.451514
0.411206
0.393188
0.386468
0.389122
0.398889
0.418757
0.45972
0.527176
0.631987
0.784236
0.963024
1.05956
0.891614
0.95778
1.09716
0.95759
0.840723
0.664612
0.532001
0.452476
0.411807
0.393407
0.387265
0.389035
0.397278
0.419124
0.457575
0.52548
0.629516
0.765208
0.90941
1.08536
0.936386
0.897055
1.05463
0.959319
0.824611
0.664368
0.531104
0.451314
0.410885
0.391302
0.385246
0.387786
0.398295
0.417092
0.456608
0.524572
0.630118
0.761748
0.897596
1.01248
0.859386
0.945549
1.05977
0.971227
0.830409
0.668202
0.533085
0.451946
0.409706
0.393078
0.386358
0.388907
0.398387
0.418033
0.45489
0.523175
0.634515
0.766559
0.905166
1.01634
0.894694
0.871529
1.10177
1.01805
0.856149
0.671432
0.534086
0.451562
0.411477
0.393546
0.387273
0.388809
0.398119
0.417574
0.452372
0.518686
0.630973
0.772712
0.935009
1.01109
0.921467
0.890514
1.09934
1.00157
0.843733
0.669918
0.530606
0.443641
0.40727
0.391331
0.386789
0.387233
0.39578
0.416485
0.452709
0.525445
0.635448
0.77048
0.905429
1.01315
0.893026
0.907666
1.11543
0.988348
0.833256
0.667598
0.532299
0.45197
0.412434
0.394187
0.387625
0.388627
0.396908
0.414379
0.455653
0.525679
0.636639
0.7939
0.938335
1.01799
0.845518
0.945375
1.12657
0.995044
0.835941
0.665982
0.530014
0.452323
0.412987
0.394554
0.387827
0.388939
0.397354
0.415029
0.454438
0.523729
0.634897
0.787689
0.915803
1.01731
0.858954
0.913583
1.11499
1.02919
0.855938
0.665387
0.519417
0.451055
0.412496
0.394228
0.387619
0.388908
0.39773
0.417042
0.453951
0.522179
0.635168
0.795546
0.924946
1.06423
0.935304
0.961506
1.16145
0.998993
0.833198
0.660911
0.529571
0.45229
0.412367
0.393971
0.387104
0.388599
0.397669
0.417205
0.450944
0.517655
0.634292
0.799544
0.956215
1.06418
0.919384
0.886076
1.10373
1.0088
0.831516
0.659382
0.525827
0.44331
0.406187
0.390275
0.386187
0.387057
0.397317
0.418151
0.455625
0.521832
0.634273
0.795943
0.934609
1.06282
0.903723
0.939546
1.05334
0.945222
0.810982
0.652739
0.517274
0.443337
0.407191
0.390989
0.386256
0.387933
0.395627
0.418252
0.455802
0.522049
0.63451
0.788753
0.93853
1.03872
0.846705
0.886395
1.05712
0.943852
0.812558
0.650043
0.517275
0.445654
0.40903
0.390997
0.385201
0.387337
0.396949
0.418393
0.455298
0.520655
0.634633
0.807572
0.956169
1.0474
0.846214
0.83444
1.07489
0.939424
0.825077
0.644742
0.514462
0.440225
0.405715
0.392179
0.386461
0.389061
0.398936
0.419004
0.455543
0.516392
0.630874
0.795429
0.996826
1.0601
0.849414
0.83853
1.01597
0.938799
0.80649
0.640601
0.516223
0.445105
0.408993
0.3925
0.386693
0.387754
0.398183
0.418267
0.455375
0.52046
0.628053
0.786692
0.968089
1.09016
0.852736
0.905461
1.03507
0.947766
0.801207
0.638901
0.510091
0.438515
0.40423
0.389048
0.384528
0.387053
0.39759
0.417396
0.453852
0.519455
0.626414
0.772004
0.935333
1.02805
0.85926
0.897773
1.08109
0.999903
0.828744
0.641664
0.51136
0.440417
0.405404
0.389742
0.385474
0.387451
0.396869
0.415829
0.449016
0.516381
0.628174
0.76738
0.910053
1.02182
0.895792
0.890945
1.06929
0.996407
0.82212
0.644355
0.519166
0.446167
0.408753
0.391149
0.38546
0.386207
0.394975
0.415383
0.448796
0.516988
0.628159
0.773997
0.941236
1.05879
0.805993
0.852685
1.04558
0.997553
0.8281
0.657217
0.528826
0.443429
0.40669
0.389059
0.384852
0.387906
0.397224
0.41637
0.450201
0.518578
0.630726
0.783398
0.91039
1.02391
0.81305
0.860995
1.04413
0.979551
0.843264
0.660653
0.53392
0.45517
0.414305
0.392355
0.386315
0.38756
0.397385
0.416823
0.453938
0.518034
0.628241
0.767764
0.9093
1.04817
0.816448
0.874998
1.04791
1.00977
0.833288
0.673099
0.530521
0.452567
0.415352
0.393833
0.388138
0.389114
0.397902
0.417473
0.455469
0.518633
0.630646
0.772671
0.931248
0.992666
0.860022
0.926375
1.04673
0.968264
0.829961
0.675349
0.544825
0.463351
0.417946
0.395892
0.388402
0.388018
0.396114
0.415081
0.456108
0.524528
0.634758
0.77383
0.89615
0.994851
0.79816
0.844445
1.05065
1.00107
0.84811
0.676389
0.538152
0.462461
0.414271
0.394865
0.387524
0.389832
0.39888
0.418601
0.455363
0.523127
0.639142
0.795812
0.901242
1.03267
0.804284
0.888535
1.04881
0.962332
0.830297
0.676992
0.545063
0.463123
0.416816
0.397656
0.389765
0.390568
0.399384
0.41918
0.458174
0.527676
0.637167
0.788159
0.902728
1.00059
0.817683
0.81173
1.08633
0.967039
0.832868
0.67581
0.545882
0.463088
0.418536
0.395487
0.389059
0.390186
0.398955
0.416321
0.453712
0.527329
0.637314
0.791379
0.901468
1.00181
0.827353
0.803055
1.06414
0.974709
0.839977
0.676306
0.540839
0.45288
0.412125
0.395441
0.388543
0.389886
0.399138
0.418951
0.457167
0.527491
0.636191
0.774305
0.905067
1.01419
0.89186
0.804379
1.0387
0.999194
0.859923
0.672068
0.53851
0.453735
0.412035
0.392922
0.385917
0.38771
0.398288
0.418097
0.454476
0.52715
0.637175
0.776745
0.904264
1.01517
0.876249
0.798986
1.03784
0.945475
0.833983
0.660609
0.530522
0.452563
0.413018
0.394335
0.386918
0.388596
0.397755
0.417251
0.453564
0.526581
0.639232
0.796596
0.912027
1.02706
0.894688
0.804627
1.08718
0.947595
0.826978
0.655633
0.526965
0.450911
0.41254
0.394299
0.387228
0.387961
0.395051
0.414585
0.455762
0.525983
0.637477
0.779932
0.909369
1.03204
0.898514
0.79945
1.05591
0.939652
0.805406
0.648331
0.513711
0.442984
0.410301
0.393199
0.38662
0.386612
0.394602
0.413506
0.454161
0.525216
0.642396
0.787776
0.914993
1.07311
0.912233
0.804339
1.01907
0.939626
0.803645
0.644713
0.516801
0.446815
0.410057
0.390967
0.385953
0.38718
0.394518
0.412205
0.450166
0.522543
0.638181
0.791922
0.908607
1.04706
0.917343
0.812171
1.01679
0.93783
0.801145
0.645969
0.50839
0.44219
0.407472
0.391253
0.384767
0.386948
0.393723
0.411244
0.447213
0.520076
0.635682
0.773113
0.908018
1.07201
0.906257
0.826675
1.02937
0.947151
0.805935
0.651346
0.518236
0.449738
0.411727
0.393645
0.386126
0.387084
0.394174
0.411255
0.444846
0.513069
0.632261
0.777833
0.904817
1.01506
0.867555
0.834095
1.03617
0.951776
0.809014
0.65285
0.527637
0.451453
0.411975
0.393664
0.387253
0.387796
0.395395
0.4133
0.44537
0.512811
0.632234
0.801505
0.919101
1.02072
0.847759
0.889438
1.0823
0.992228
0.815856
0.652633
0.527262
0.451009
0.408036
0.39173
0.386884
0.38653
0.393864
0.413578
0.446456
0.512843
0.630406
0.788224
0.956628
1.07108
0.866449
0.830971
1.04648
0.958518
0.81644
0.651729
0.526032
0.450902
0.409609
0.392533
0.387306
0.387837
0.395669
0.413697
0.451826
0.519342
0.632979
0.783049
0.948561
1.06346
0.934376
0.83759
1.05548
0.962059
0.821722
0.655837
0.521355
0.449063
0.410996
0.393601
0.387514
0.38897
0.397749
0.416902
0.454054
0.521629
0.634909
0.796112
0.956847
1.07535
0.92246
0.891948
1.10646
0.998425
0.847316
0.661851
0.529593
0.444079
0.406448
0.390512
0.385354
0.387347
0.397212
0.416269
0.453676
0.521494
0.633388
0.779339
0.93654
1.05541
0.910109
0.853691
1.07359
0.963349
0.831703
0.659441
0.52982
0.448099
0.409243
0.392189
0.386591
0.388522
0.396616
0.413927
0.452993
0.521144
0.634973
0.770106
0.907537
1.02339
0.86507
0.87359
1.10963
0.969311
0.819997
0.657776
0.529755
0.443137
0.405548
0.389917
0.385096
0.388386
0.397982
0.416725
0.450108
0.519142
0.630769
0.772096
0.907311
1.02409
0.873463
0.916769
1.05191
0.992525
0.82445
0.654242
0.530882
0.452171
0.410995
0.392962
0.386601
0.387381
0.397614
0.416953
0.453031
0.51947
0.630732
0.785318
0.915788
1.03398
0.89287
0.911422
1.05296
0.956943
0.835995
0.656552
0.529887
0.451556
0.407917
0.390874
0.385264
0.387127
0.397267
0.41687
0.450451
0.516085
0.629576
0.773885
0.919678
1.03724
0.953543
0.91196
1.05143
0.959837
0.820006
0.656966
0.52942
0.451329
0.411827
0.393687
0.387013
0.387878
0.396771
0.41673
0.453511
0.519944
0.632141
0.796967
0.96217
1.0794
0.901065
0.900675
1.08633
0.994149
0.841021
0.656793
0.526447
0.443866
0.41093
0.393743
0.386938
0.387808
0.39521
0.417004
0.454742
0.521889
0.632462
0.794056
0.95654
1.07776
0.977166
0.855414
1.03555
0.936936
0.815707
0.65199
0.525803
0.449603
0.411391
0.393765
0.387124
0.387366
0.396385
0.417675
0.45524
0.521979
0.632165
0.797919
0.967914
1.09411
0.983336
0.87025
1.04085
0.927417
0.797934
0.648257
0.522946
0.448751
0.41112
0.393356
0.387035
0.389046
0.398664
0.418246
0.455982
0.521343
0.630938
0.789412
0.954861
1.086
0.967924
0.909432
1.06981
0.933129
0.801771
0.646143
0.513727
0.440202
0.405096
0.389671
0.385976
0.388726
0.39841
0.416495
0.455471
0.518689
0.629764
0.771155
0.929592
1.06736
0.987996
0.896658
1.06593
0.928788
0.808148
0.644774
0.521133
0.44616
0.407954
0.390916
0.384883
0.38835
0.398453
0.418965
0.456627
0.521386
0.626079
0.770849
0.944623
1.09118
0.934374
0.960043
1.11627
0.932574
0.791647
0.644183
0.524657
0.448367
0.405939
0.389142
0.385317
0.387999
0.39788
0.417686
0.45249
0.517238
0.620937
0.752023
0.883052
1.02474
0.999807
0.869446
1.0471
0.932683
0.795917
0.648977
0.525396
0.448176
0.409534
0.39135
0.384336
0.387431
0.396955
0.414831
0.454578
0.519688
0.626932
0.754502
0.88824
1.01801
0.893549
0.822387
1.01058
0.940948
0.801191
0.649381
0.523729
0.440478
0.404388
0.389236
0.384261
0.386408
0.396835
0.416508
0.454439
0.521367
0.625285
0.75985
0.896462
1.06162
0.831572
0.878768
1.0479
0.988103
0.809213
0.651403
0.523551
0.442855
0.406866
0.391697
0.385834
0.387539
0.396501
0.415781
0.452949
0.521367
0.62659
0.764458
0.901362
1.03799
0.844319
0.816611
1.00921
0.974483
0.810507
0.650112
0.525612
0.449191
0.410297
0.39215
0.3848
0.386127
0.394358
0.412276
0.447572
0.520741
0.631791
0.774233
0.911192
1.02064
0.860991
0.825351
1.01577
0.971851
0.810004
0.651612
0.525356
0.449092
0.410302
0.392486
0.386366
0.387851
0.396544
0.415008
0.449441
0.522199
0.63542
0.781749
0.920263
1.02842
0.926375
0.882283
1.02586
0.951357
0.813008
0.653616
0.524708
0.448413
0.40958
0.390851
0.386051
0.388041
0.397079