/*--------------------------------*- C++ -*----------------------------------*\
  =========                 |
  \\      /  F ield         | OpenFOAM: The Open Source CFD Toolbox
   \\    /   O peration     | Website:  https://openfoam.org
    \\  /    A nd           | Version:  6
     \\/     M anipulation  |
\*---------------------------------------------------------------------------*/
FoamFile
{
    version     2.0;
    format      ascii;
    class       volScalarField;
    location    "5";
    object      k;
}
// * * * * * * * * * * * * * * * * * * * * * * * * * * * * * * * * * * * * * //

dimensions      [0 2 -2 0 0 0 0];

internalField   nonuniform List<scalar> 
130000
(
0.412463
0.413335
0.411335
0.406931
0.400892
0.394098
0.387331
0.381136
0.37582
0.371485
0.368106
0.365579
0.363769
0.362539
0.361763
0.361331
0.361149
0.361142
0.361249
0.361434
0.412559
0.413565
0.411596
0.407145
0.401025
0.394163
0.387351
0.381139
0.375824
0.371505
0.368147
0.365642
0.363853
0.362641
0.361878
0.361454
0.361279
0.361277
0.361387
0.361572
0.412667
0.413715
0.411749
0.407269
0.401115
0.394222
0.387388
0.381162
0.375841
0.371521
0.368163
0.365661
0.363874
0.362665
0.361909
0.361488
0.361311
0.361302
0.361407
0.36159
0.412752
0.41379
0.411805
0.407304
0.401128
0.394218
0.387371
0.381141
0.37582
0.371502
0.368147
0.365646
0.36386
0.362651
0.361897
0.361478
0.361303
0.361293
0.361397
0.361573
0.412793
0.413806
0.411796
0.407273
0.401079
0.394157
0.387307
0.381079
0.375765
0.371457
0.368111
0.365618
0.363836
0.362629
0.36187
0.361451
0.36128
0.361285
0.361391
0.361563
0.412833
0.413819
0.411772
0.407216
0.400998
0.394064
0.387212
0.380991
0.375688
0.371392
0.368059
0.365577
0.363804
0.362603
0.361846
0.361427
0.361252
0.361257
0.361365
0.361543
0.41287
0.413818
0.411731
0.407141
0.400898
0.393952
0.3871
0.380887
0.375596
0.371315
0.367995
0.365525
0.363762
0.362567
0.361815
0.361398
0.361224
0.361222
0.361332
0.361519
0.412878
0.413789
0.411672
0.407051
0.400787
0.393831
0.386979
0.380775
0.375498
0.371232
0.367926
0.365468
0.363714
0.362528
0.361782
0.361371
0.361201
0.361204
0.361316
0.361506
0.412893
0.413772
0.41162
0.406967
0.40068
0.393713
0.386861
0.380665
0.375401
0.371149
0.367858
0.365414
0.363671
0.362496
0.361761
0.361361
0.361201
0.361209
0.361323
0.361512
0.412921
0.413769
0.411579
0.406894
0.400583
0.393604
0.386751
0.380562
0.375309
0.371072
0.367795
0.365363
0.363632
0.362466
0.361741
0.36135
0.3612
0.361212
0.361327
0.361514
0.412958
0.413774
0.411554
0.406836
0.400502
0.393511
0.386656
0.380472
0.375228
0.371003
0.367738
0.365319
0.363598
0.362442
0.36172
0.361331
0.36118
0.361191
0.361306
0.361493
0.413007
0.413787
0.41154
0.406796
0.400439
0.393435
0.386574
0.380393
0.375157
0.370942
0.367689
0.365282
0.363573
0.362428
0.361714
0.361326
0.361169
0.361178
0.361292
0.361481
0.413069
0.41382
0.411538
0.40677
0.400391
0.393371
0.386504
0.380323
0.375094
0.370889
0.367647
0.365252
0.363556
0.362418
0.361705
0.361318
0.361162
0.361172
0.361288
0.361479
0.413161
0.413879
0.411562
0.406757
0.400352
0.393315
0.386439
0.380258
0.375035
0.37084
0.36761
0.365228
0.363539
0.362404
0.361693
0.36131
0.361157
0.361171
0.361291
0.361485
0.413251
0.413937
0.411585
0.406745
0.400313
0.393257
0.386374
0.380194
0.374978
0.370794
0.367578
0.36521
0.363531
0.362407
0.36171
0.361337
0.361192
0.361209
0.361329
0.361521
0.413337
0.413994
0.411605
0.406734
0.400272
0.393196
0.386306
0.380129
0.374922
0.37075
0.367549
0.365195
0.363535
0.362425
0.36174
0.361373
0.361227
0.361234
0.361349
0.361538
0.413438
0.414067
0.411643
0.406737
0.400245
0.393148
0.386247
0.380071
0.374871
0.37071
0.367518
0.365173
0.363523
0.362423
0.361746
0.361386
0.361237
0.361236
0.361348
0.361539
0.413579
0.414178
0.411715
0.406771
0.400251
0.393133
0.386217
0.380031
0.374832
0.370677
0.367494
0.365156
0.363509
0.362413
0.361738
0.361377
0.361231
0.361241
0.361358
0.361549
0.413761
0.414327
0.411825
0.406842
0.400289
0.393148
0.386217
0.38002
0.374816
0.370661
0.367482
0.365146
0.363502
0.362407
0.361734
0.36137
0.361232
0.361255
0.361379
0.361575
0.413953
0.414494
0.411955
0.406932
0.400346
0.393178
0.38623
0.380025
0.374815
0.370656
0.367476
0.365142
0.3635
0.362408
0.361739
0.361385
0.361254
0.361281
0.361409
0.361606
0.414158
0.41468
0.412104
0.407041
0.400417
0.393221
0.386252
0.380034
0.374818
0.370657
0.367477
0.365146
0.363508
0.36242
0.361757
0.361409
0.361281
0.361312
0.361442
0.36164
0.414385
0.414887
0.412274
0.407166
0.400501
0.393271
0.38628
0.380047
0.374822
0.370658
0.367477
0.365147
0.363515
0.362433
0.361778
0.361436
0.361314
0.361348
0.361481
0.361679
0.414636
0.415114
0.412458
0.407303
0.400593
0.393327
0.38631
0.380061
0.374828
0.370661
0.367481
0.365156
0.363529
0.362456
0.361809
0.361473
0.361356
0.361393
0.361527
0.361723
0.414896
0.415351
0.412653
0.407448
0.400691
0.393388
0.386343
0.380077
0.374837
0.370667
0.367491
0.365172
0.363554
0.36249
0.361854
0.361526
0.361414
0.361452
0.361586
0.361782
0.415167
0.415603
0.412863
0.407606
0.4008
0.393456
0.386383
0.380097
0.374847
0.370674
0.367502
0.365187
0.363576
0.362518
0.361885
0.361557
0.361439
0.361474
0.361608
0.361803
0.415467
0.415883
0.413097
0.407783
0.400924
0.393535
0.38643
0.380123
0.374859
0.370679
0.367504
0.365189
0.363577
0.362516
0.36188
0.361548
0.361426
0.361462
0.361598
0.361799
0.415804
0.416195
0.413357
0.407982
0.401064
0.393626
0.386484
0.380152
0.374872
0.370682
0.3675
0.36518
0.363565
0.362503
0.361867
0.361536
0.361422
0.361461
0.361599
0.361804
0.416159
0.416525
0.413635
0.408195
0.401215
0.393726
0.386544
0.380185
0.374888
0.370687
0.367499
0.365178
0.363566
0.362508
0.361875
0.361548
0.361435
0.361468
0.361604
0.36181
0.416528
0.41687
0.413925
0.40842
0.401376
0.393832
0.386609
0.380221
0.374904
0.370692
0.367498
0.365175
0.363566
0.36251
0.361881
0.361557
0.361445
0.361473
0.361606
0.361807
0.416912
0.417229
0.41423
0.408656
0.401545
0.393945
0.38668
0.38026
0.374923
0.370697
0.367495
0.365167
0.363555
0.362498
0.361869
0.361546
0.361438
0.361476
0.361611
0.361803
0.417306
0.4176
0.414545
0.408902
0.401724
0.394066
0.386755
0.380304
0.374945
0.370706
0.367496
0.365164
0.363547
0.362488
0.361859
0.361537
0.36143
0.361471
0.361605
0.361798
0.417714
0.417985
0.414874
0.40916
0.401913
0.394195
0.386838
0.380353
0.374972
0.370718
0.3675
0.365162
0.363542
0.362482
0.361853
0.361531
0.361422
0.361455
0.361589
0.361781
0.41814
0.418387
0.415219
0.409434
0.402115
0.394336
0.386931
0.380411
0.375006
0.370738
0.367509
0.365164
0.36354
0.362479
0.36185
0.361528
0.361421
0.361462
0.361597
0.361788
0.418586
0.418808
0.415581
0.409723
0.402331
0.394488
0.387033
0.380478
0.37505
0.370767
0.367531
0.365185
0.363562
0.362503
0.361877
0.361556
0.361447
0.361484
0.361617
0.361805
0.41905
0.419248
0.415962
0.410029
0.402561
0.394653
0.387146
0.380553
0.3751
0.370803
0.367562
0.365217
0.363598
0.362543
0.361917
0.36159
0.361475
0.361509
0.36164
0.361828
0.419536
0.419711
0.416364
0.410353
0.402808
0.39483
0.387268
0.380634
0.375153
0.370839
0.36759
0.365242
0.363621
0.362567
0.361939
0.361607
0.361492
0.361529
0.361662
0.361851
0.420051
0.420201
0.416792
0.4107
0.403073
0.395022
0.3874
0.380721
0.375209
0.370874
0.36761
0.365255
0.363628
0.362571
0.361941
0.361614
0.361506
0.361549
0.361684
0.361875
0.420595
0.42072
0.417246
0.411071
0.403357
0.395229
0.387545
0.380818
0.37527
0.37091
0.367629
0.365262
0.36363
0.362569
0.361941
0.361624
0.361523
0.36157
0.361709
0.3619
0.421168
0.421269
0.417729
0.411468
0.403665
0.395456
0.387705
0.380926
0.375341
0.370954
0.367654
0.365273
0.363634
0.362572
0.361951
0.361641
0.361546
0.361598
0.361739
0.361931
0.421772
0.42185
0.418243
0.411893
0.403997
0.395704
0.387882
0.38105
0.375425
0.371011
0.367693
0.3653
0.363655
0.362593
0.361975
0.361669
0.361579
0.361634
0.361776
0.361966
0.422414
0.422469
0.418793
0.41235
0.404357
0.395975
0.38808
0.381191
0.375524
0.371082
0.367745
0.365342
0.363692
0.362629
0.362014
0.36171
0.361622
0.361679
0.361821
0.362009
0.423096
0.423128
0.41938
0.412841
0.404746
0.396271
0.388298
0.381348
0.375638
0.371165
0.367809
0.365394
0.363739
0.362676
0.362061
0.36176
0.361673
0.361732
0.361873
0.362059
0.423818
0.423829
0.420009
0.413369
0.405167
0.396593
0.388537
0.381523
0.375766
0.371261
0.367884
0.365457
0.363796
0.36273
0.362117
0.361817
0.361733
0.361793
0.361933
0.362117
0.424585
0.424577
0.420682
0.413937
0.405622
0.396944
0.3888
0.381718
0.375909
0.371369
0.367969
0.365529
0.363861
0.362793
0.36218
0.361883
0.3618
0.361861
0.362001
0.362182
0.425407
0.425379
0.421405
0.414549
0.406116
0.397327
0.389089
0.381933
0.37607
0.371492
0.368067
0.365611
0.363935
0.362865
0.362253
0.361957
0.361876
0.361938
0.362077
0.362255
0.426285
0.426238
0.422181
0.415209
0.40665
0.397743
0.389406
0.38217
0.376249
0.371629
0.368177
0.365705
0.36402
0.362947
0.362335
0.36204
0.361961
0.362024
0.362162
0.362337
0.427219
0.427153
0.423011
0.415918
0.407226
0.398195
0.389751
0.382432
0.376447
0.371783
0.368301
0.365811
0.364116
0.363039
0.362427
0.362134
0.362058
0.362122
0.362259
0.362431
0.428209
0.428129
0.4239
0.41668
0.407849
0.398686
0.390129
0.38272
0.376667
0.371955
0.368441
0.36593
0.364224
0.363143
0.362531
0.36224
0.362165
0.36223
0.362367
0.362536
0.429266
0.429175
0.424857
0.417504
0.408526
0.399222
0.390544
0.383038
0.376912
0.372147
0.368598
0.366065
0.364347
0.36326
0.362648
0.362358
0.362286
0.362352
0.362488
0.362653
0.430405
0.430304
0.425893
0.418398
0.409262
0.399809
0.391001
0.38339
0.377185
0.372363
0.368774
0.366217
0.364484
0.363392
0.362778
0.36249
0.36242
0.362488
0.362623
0.362784
0.431644
0.431531
0.427019
0.419372
0.410067
0.400451
0.391503
0.383779
0.377488
0.372604
0.368973
0.366388
0.36464
0.36354
0.362925
0.362637
0.36257
0.36264
0.362773
0.362928
0.432986
0.432861
0.42824
0.420431
0.410944
0.401155
0.392056
0.38421
0.377826
0.372874
0.369197
0.366582
0.364816
0.363707
0.363089
0.362798
0.362738
0.362811
0.362943
0.363092
0.43443
0.434295
0.429561
0.421578
0.411898
0.401923
0.392662
0.384685
0.378201
0.373176
0.369448
0.366802
0.365017
0.363899
0.363278
0.362988
0.36293
0.363005
0.363135
0.363278
0.435981
0.43584
0.430986
0.42282
0.412934
0.402761
0.393327
0.385209
0.378617
0.373514
0.369732
0.36705
0.365244
0.364117
0.363493
0.363204
0.363149
0.363224
0.363352
0.363488
0.437649
0.437504
0.432526
0.424166
0.414061
0.403677
0.394057
0.385788
0.379079
0.373891
0.37005
0.36733
0.365502
0.364364
0.363737
0.36345
0.363396
0.363472
0.363597
0.363725
0.439447
0.439303
0.434194
0.425628
0.415289
0.404678
0.394859
0.386428
0.379593
0.374314
0.370409
0.367647
0.365795
0.364645
0.364015
0.363728
0.363677
0.363753
0.363874
0.363993
0.441393
0.441251
0.436004
0.427218
0.416629
0.405775
0.395743
0.387136
0.380167
0.374788
0.370813
0.368007
0.366127
0.364964
0.36433
0.364044
0.363996
0.364073
0.36419
0.364298
0.443499
0.443363
0.437971
0.42895
0.418094
0.406979
0.396717
0.387922
0.380807
0.37532
0.371271
0.368415
0.366506
0.365329
0.36469
0.364405
0.364358
0.364436
0.364548
0.364644
0.445781
0.445658
0.440112
0.430842
0.419698
0.408304
0.397795
0.388797
0.381523
0.37592
0.371789
0.368879
0.366938
0.365745
0.365101
0.364817
0.364773
0.36485
0.364957
0.365039
0.448261
0.448155
0.442447
0.43291
0.42146
0.409764
0.398989
0.389771
0.382326
0.376597
0.372377
0.369409
0.367433
0.366223
0.365572
0.365289
0.365247
0.365324
0.365425
0.365491
0.450962
0.450879
0.445
0.435178
0.423397
0.411378
0.400315
0.39086
0.38323
0.377364
0.373048
0.370016
0.368002
0.366772
0.366115
0.365832
0.365792
0.365868
0.365961
0.366008
0.453908
0.453856
0.447796
0.437669
0.425533
0.413165
0.401791
0.392079
0.384249
0.378234
0.373814
0.370713
0.368656
0.367405
0.36674
0.366457
0.366419
0.366493
0.366574
0.366599
0.457125
0.457113
0.450864
0.44041
0.427893
0.415148
0.403439
0.393449
0.385402
0.379225
0.37469
0.371514
0.369411
0.368137
0.367463
0.36718
0.367143
0.367214
0.367283
0.367285
0.460646
0.460687
0.454238
0.443435
0.430508
0.417356
0.405284
0.394993
0.386709
0.380356
0.375697
0.372438
0.370285
0.368985
0.368301
0.368017
0.367981
0.368049
0.368104
0.368078
0.464513
0.464619
0.457961
0.446782
0.433413
0.419822
0.407356
0.396737
0.388196
0.381652
0.376857
0.373508
0.371299
0.369971
0.369277
0.368992
0.368956
0.369019
0.369057
0.369
0.468768
0.468955
0.462077
0.450498
0.436651
0.422585
0.409692
0.398717
0.389896
0.383143
0.3782
0.374751
0.372482
0.371122
0.370415
0.370128
0.370092
0.370148
0.370166
0.370073
0.473461
0.473751
0.466644
0.454634
0.440274
0.425692
0.412335
0.400973
0.391846
0.384865
0.379759
0.376201
0.373865
0.372471
0.371749
0.37146
0.371422
0.371469
0.371464
0.371325
0.478656
0.479072
0.471727
0.459257
0.444341
0.429201
0.415339
0.403554
0.394094
0.386862
0.381578
0.3779
0.37549
0.374057
0.373319
0.373026
0.372986
0.37302
0.372987
0.372797
0.484426
0.484998
0.477406
0.464443
0.448927
0.43318
0.418769
0.406523
0.396697
0.389191
0.38371
0.3799
0.377409
0.375931
0.375175
0.374877
0.374832
0.374851
0.374784
0.374533
0.490855
0.491618
0.483773
0.470283
0.454118
0.437713
0.422703
0.409953
0.399727
0.391919
0.386223
0.382267
0.379684
0.378157
0.377378
0.377073
0.37702
0.37702
0.376911
0.376588
0.498042
0.499042
0.490941
0.476889
0.460024
0.442904
0.42724
0.413939
0.403275
0.395135
0.3892
0.385082
0.382397
0.380813
0.380008
0.379693
0.379629
0.379603
0.379443
0.37903
0.506107
0.507401
0.499046
0.484396
0.466776
0.448879
0.432503
0.418598
0.407452
0.398947
0.392748
0.388449
0.38565
0.384
0.383164
0.382833
0.382752
0.382692
0.382468
0.381947
0.515198
0.516858
0.508256
0.492973
0.47454
0.4558
0.438647
0.42408
0.412404
0.403496
0.397004
0.392504
0.389574
0.387849
0.386973
0.386621
0.386513
0.386408
0.386103
0.385449
0.52549
0.527607
0.518778
0.502829
0.483522
0.463868
0.445867
0.430575
0.418317
0.408963
0.402146
0.397419
0.394341
0.392526
0.391599
0.391215
0.39107
0.390905
0.390496
0.389675
0.537203
0.539893
0.530868
0.514227
0.493986
0.473343
0.454418
0.438333
0.425433
0.415586
0.408406
0.403424
0.400175
0.398251
0.397259
0.396829
0.396631
0.396387
0.395842
0.394809
0.550608
0.554021
0.544851
0.527499
0.506267
0.484557
0.464629
0.447676
0.434069
0.423676
0.416091
0.41082
0.407372
0.405316
0.404238
0.40374
0.403464
0.403107
0.402386
0.401088
0.566043
0.570374
0.56114
0.543074
0.520797
0.497947
0.476932
0.459032
0.444651
0.433654
0.425616
0.420016
0.416334
0.414115
0.41292
0.412324
0.411937
0.411424
0.410471
0.408836
0.583933
0.589437
0.580261
0.561502
0.538143
0.514082
0.4919
0.472974
0.457747
0.446083
0.437538
0.431563
0.427607
0.425182
0.423829
0.423091
0.422543
0.421815
0.420554
0.41849
0.604827
0.611842
0.602903
0.583509
0.559053
0.533724
0.510301
0.490272
0.474127
0.461732
0.452624
0.446222
0.44194
0.439259
0.43769
0.436746
0.435967
0.434936
0.433272
0.430652
0.629428
0.638405
0.629961
0.610045
0.584511
0.557884
0.533162
0.511965
0.494835
0.481648
0.471918
0.465033
0.460369
0.457367
0.455507
0.454267
0.45315
0.451705
0.449508
0.446156
0.658647
0.670184
0.662607
0.642358
0.615824
0.587906
0.561858
0.539447
0.521283
0.507253
0.496848
0.489423
0.484314
0.48092
0.478672
0.477019
0.475435
0.473433
0.470505
0.466157
0.693666
0.708563
0.70237
0.682085
0.654704
0.625562
0.598202
0.574568
0.555349
0.540447
0.529331
0.521316
0.515697
0.511827
0.509092
0.506912
0.5047
0.501903
0.497945
0.49224
0.736032
0.755345
0.751244
0.731352
0.703376
0.673151
0.644555
0.619737
0.599483
0.583717
0.571883
0.563251
0.557063
0.552622
0.549273
0.546398
0.543354
0.539482
0.534111
0.52658
0.787734
0.812841
0.811774
0.792865
0.764661
0.733577
0.703886
0.67798
0.656764
0.640194
0.627685
0.618455
0.611679
0.6066
0.602508
0.598737
0.594578
0.589279
0.582062
0.572121
0.851318
0.883983
0.887156
0.869993
0.842037
0.810392
0.779798
0.752947
0.730892
0.713636
0.700563
0.690826
0.683516
0.677796
0.672881
0.668039
0.662485
0.655374
0.645797
0.632737
0.929971
0.972394
0.981287
0.966782
0.93962
0.907733
0.87643
0.848776
0.826021
0.808239
0.794786
0.784739
0.777074
0.77084
0.765143
0.759166
0.752019
0.742758
0.730286
0.713304
1.02762
1.08244
1.09875
1.08788
1.06204
1.03014
0.998205
0.969785
0.946399
0.928234
0.91463
0.904572
0.896893
0.890483
0.884291
0.877368
0.868681
0.857098
0.841278
0.81959
1.14888
1.21912
1.24456
1.23828
1.21408
1.18212
1.14932
1.11988
1.0957
1.07715
1.06358
1.05389
1.04672
1.04075
1.03467
1.02733
1.01751
1.00384
0.984619
0.957761
1.29896
1.38817
1.42333
1.42279
1.40015
1.36745
1.33291
1.30159
1.27595
1.25665
1.24312
1.23416
1.22823
1.22372
1.21899
1.21247
1.20262
1.18775
1.16573
1.13382
1.48345
1.59516
1.64175
1.64593
1.62328
1.58787
1.54948
1.51432
1.48564
1.46454
1.45059
1.44253
1.43872
1.43726
1.43576
1.43209
1.42442
1.41057
1.38765
1.35203
1.70749
1.84388
1.90173
1.90849
1.8825
1.84045
1.79417
1.75147
1.7167
1.69162
1.67603
1.66852
1.66771
1.67194
1.67729
1.67936
1.67698
1.66839
1.6485
1.61251
1.97438
2.1352
2.20146
2.20559
2.16968
2.11378
2.0525
1.99586
1.94972
1.91688
1.89778
1.89136
1.89602
1.90898
1.92492
1.93983
1.9487
1.94862
1.9374
1.90744
2.28353
2.46378
2.53077
2.5218
2.46416
2.38225
2.29436
2.21376
2.14789
2.10101
2.07449
2.06832
2.07992
2.10496
2.13753
2.17289
2.2046
2.2256
2.23021
2.21513
2.62687
2.81337
2.86537
2.82466
2.72616
2.59969
2.46734
2.34542
2.24687
2.17819
2.14086
2.13414
2.1547
2.19755
2.25526
2.32001
2.3847
2.44201
2.48102
2.49258
2.98393
3.1516
3.1606
3.05745
2.88671
2.68963
2.50271
2.33841
2.20972
2.12162
2.0745
2.06635
2.09278
2.14857
2.2258
2.31652
2.40994
2.5106
2.60232
2.66649
3.3141
3.41967
3.33378
3.13117
2.86916
2.5925
2.33003
2.10885
1.94027
1.82871
1.77237
1.76594
1.80101
1.87135
1.9703
2.09268
2.23656
2.38091
2.51892
2.63486
3.54915
3.51309
3.27549
2.92674
2.54322
2.17432
1.85362
1.60114
1.42247
1.31297
1.26307
1.26221
1.30086
1.37304
1.47375
1.60027
1.748
1.90903
2.08119
2.25785
3.52899
3.20431
2.74313
2.24974
1.79346
1.40953
1.11927
0.925933
0.809391
0.747706
0.724731
0.729521
0.756205
0.801387
0.863817
0.94675
1.05372
1.18019
1.33559
1.50752
2.40955
1.95052
1.4509
1.06023
0.792447
0.636368
0.552592
0.502625
0.475371
0.464005
0.463535
0.469321
0.478222
0.488251
0.500598
0.519969
0.5414
0.574536
0.674423
0.71556
0.529091
0.563087
0.527876
0.466444
0.420816
0.400659
0.393699
0.39028
0.388007
0.386578
0.385919
0.386108
0.387984
0.392566
0.401583
0.41427
0.428499
0.436807
0.441937
0.423511
0.366784
0.366518
0.365959
0.365212
0.364353
0.363476
0.362663
0.361973
0.361442
0.361087
0.360914
0.360917
0.36109
0.361425
0.361899
0.362475
0.363101
0.36371
0.364242
0.364656
0.366923
0.366651
0.366087
0.365331
0.364462
0.363577
0.362758
0.362064
0.361532
0.361181
0.361011
0.361012
0.361178
0.361502
0.361967
0.362536
0.363158
0.363764
0.364293
0.364705
0.366958
0.366686
0.366114
0.365349
0.364477
0.363593
0.362775
0.36208
0.361546
0.361193
0.361017
0.361006
0.361161
0.36148
0.36195
0.362518
0.363135
0.363735
0.364258
0.364661
0.366965
0.366692
0.366109
0.365337
0.364464
0.363582
0.362773
0.362081
0.361545
0.361185
0.361
0.36098
0.361126
0.361451
0.361936
0.362508
0.363124
0.363723
0.364243
0.364641
0.366947
0.366664
0.366073
0.365301
0.364425
0.363538
0.362729
0.362035
0.361499
0.361137
0.360952
0.360937
0.361085
0.36141
0.361886
0.362455
0.363069
0.363668
0.364192
0.364601
0.366923
0.366621
0.366037
0.365263
0.364384
0.363491
0.362666
0.361967
0.361427
0.361064
0.360878
0.360868
0.361029
0.361353
0.361816
0.362381
0.362995
0.363598
0.364127
0.364547
0.366869
0.366579
0.365995
0.36522
0.364337
0.363441
0.362613
0.361912
0.361371
0.361007
0.360823
0.360815
0.360979
0.361304
0.361767
0.362334
0.362952
0.363561
0.364094
0.364508
0.366843
0.36655
0.365964
0.365183
0.364295
0.363393
0.362561
0.361857
0.361316
0.360953
0.360771
0.360766
0.360933
0.361261
0.361727
0.362295
0.362914
0.363525
0.364059
0.364473
0.366833
0.366534
0.36594
0.365154
0.364261
0.363355
0.362521
0.361816
0.361276
0.360915
0.360736
0.360736
0.360909
0.361245
0.361718
0.36229
0.362903
0.363503
0.364029
0.36444
0.366836
0.366531
0.365927
0.365135
0.364238
0.363329
0.362493
0.361787
0.361247
0.360889
0.360716
0.360721
0.3609
0.361241
0.361723
0.362306
0.362924
0.363527
0.36405
0.364452
0.366843
0.366543
0.36594
0.365145
0.364241
0.363326
0.362485
0.361774
0.36123
0.360871
0.360699
0.360705
0.360885
0.361225
0.36171
0.362304
0.362933
0.36354
0.364061
0.364451
0.366849
0.366549
0.365948
0.365148
0.364232
0.363312
0.36247
0.361759
0.361216
0.360858
0.360684
0.360689
0.360867
0.361207
0.361687
0.362278
0.362905
0.363512
0.364035
0.364433
0.366843
0.366528
0.365922
0.36512
0.364204
0.363289
0.362453
0.361749
0.361214
0.36086
0.36069
0.3607
0.360882
0.361219
0.361691
0.362265
0.362888
0.363497
0.364026
0.364445
0.36683
0.366514
0.36591
0.365114
0.364213
0.363304
0.36247
0.361769
0.361236
0.360882
0.360712
0.360718
0.360894
0.361217
0.361682
0.362253
0.362876
0.363488
0.364028
0.364443
0.366827
0.36651
0.365906
0.365111
0.364214
0.363307
0.362476
0.361777
0.361244
0.36089
0.360718
0.36072
0.360888
0.361205
0.361669
0.362238
0.362858
0.363469
0.364011
0.36442
0.366823
0.366507
0.365905
0.365116
0.364225
0.363323
0.362496
0.3618
0.361269
0.360917
0.360747
0.36075
0.36092
0.361247
0.36171
0.362276
0.362891
0.363492
0.36402
0.364437
0.366869
0.366552
0.365952
0.365174
0.364295
0.363399
0.362575
0.36188
0.361352
0.361001
0.360828
0.360824
0.360981
0.361296
0.361754
0.362317
0.362928
0.363526
0.364049
0.364463
0.366923
0.366599
0.365994
0.365213
0.364339
0.36344
0.362611
0.361915
0.361389
0.361044
0.360871
0.360862
0.361009
0.361323
0.361785
0.36235
0.362962
0.363558
0.364074
0.364476
0.366978
0.366643
0.366024
0.365226
0.364341
0.363444
0.362614
0.361917
0.361389
0.361036
0.360862
0.36086
0.361022
0.361354
0.361825
0.362397
0.363012
0.363607
0.36412
0.364515
0.367033
0.366692
0.366063
0.365251
0.364346
0.363445
0.362616
0.361919
0.361388
0.36103
0.360864
0.360876
0.361062
0.361407
0.361887
0.362462
0.36308
0.363674
0.364185
0.364576
0.367093
0.366747
0.366113
0.365295
0.36438
0.363464
0.362632
0.361937
0.361415
0.361076
0.36092
0.36094
0.361133
0.361483
0.361967
0.362545
0.363163
0.363756
0.364263
0.364649
0.367155
0.366808
0.366173
0.365353
0.364437
0.36352
0.362689
0.362
0.361488
0.361157
0.361007
0.36103
0.361226
0.361579
0.362065
0.362645
0.363264
0.363853
0.364353
0.364732
0.367219
0.366872
0.366238
0.36542
0.364503
0.363585
0.362752
0.36206
0.361546
0.361213
0.361063
0.361087
0.361286
0.361644
0.362143
0.362739
0.363366
0.363957
0.364449
0.364819
0.367282
0.366934
0.366303
0.365496
0.364585
0.363661
0.362816
0.362109
0.361581
0.361241
0.361088
0.361111
0.36131
0.361671
0.362175
0.362778
0.363414
0.364015
0.364513
0.364903
0.367335
0.366982
0.366347
0.365539
0.364632
0.363702
0.362855
0.362147
0.36162
0.361279
0.361125
0.361145
0.361341
0.361696
0.362193
0.362793
0.363427
0.364022
0.364529
0.364938
0.367384
0.367021
0.366374
0.365551
0.364643
0.363725
0.362891
0.362196
0.361675
0.361338
0.361185
0.361203
0.361386
0.361733
0.36222
0.362809
0.363431
0.364018
0.364536
0.364947
0.367431
0.367061
0.366406
0.365575
0.364663
0.363745
0.36291
0.362215
0.361696
0.361362
0.361213
0.361238
0.361437
0.361786
0.362261
0.36283
0.363444
0.364036
0.364551
0.364951
0.367476
0.367101
0.366439
0.365604
0.364692
0.363761
0.36292
0.362223
0.361704
0.361373
0.361228
0.361262
0.361474
0.361826
0.362315
0.362886
0.363488
0.364071
0.364574
0.364954
0.367519
0.367138
0.366469
0.365625
0.364708
0.363778
0.362934
0.362234
0.361714
0.361384
0.361241
0.361274
0.36148
0.361832
0.362344
0.362922
0.363522
0.364105
0.364607
0.364982
0.367564
0.367176
0.366497
0.365642
0.364712
0.363768
0.362917
0.362215
0.361694
0.361364
0.361222
0.361258
0.361469
0.361833
0.36235
0.362928
0.363543
0.364136
0.364641
0.365014
0.36761
0.367215
0.366525
0.365656
0.364708
0.363762
0.362911
0.362208
0.361686
0.361357
0.361218
0.361257
0.361474
0.361848
0.362353
0.362937
0.363569
0.364171
0.364679
0.365051
0.367662
0.367261
0.366562
0.365681
0.364717
0.363773
0.362919
0.362214
0.361694
0.361365
0.361227
0.361268
0.361488
0.361863
0.362366
0.362968
0.36361
0.364217
0.364727
0.365096
0.367719
0.367314
0.36661
0.365724
0.364753
0.363798
0.362943
0.362241
0.361723
0.361397
0.361259
0.361301
0.36152
0.361901
0.362417
0.363024
0.363667
0.364275
0.364783
0.365149
0.367779
0.36737
0.366664
0.365779
0.364818
0.363868
0.363015
0.362314
0.361797
0.361474
0.36134
0.361385
0.361608
0.36199
0.362502
0.363097
0.363732
0.364337
0.364843
0.365207
0.36784
0.367425
0.366711
0.365819
0.364854
0.363907
0.363047
0.362346
0.36183
0.361509
0.361377
0.361425
0.361652
0.362042
0.36255
0.363145
0.363785
0.364394
0.364903
0.365267
0.367903
0.36748
0.366754
0.365847
0.364861
0.363906
0.363048
0.362348
0.361832
0.361512
0.361384
0.361435
0.361665
0.36206
0.362566
0.363176
0.36383
0.364449
0.364964
0.365329
0.367975
0.367543
0.366805
0.365882
0.36488
0.363906
0.363051
0.362351
0.361835
0.361516
0.36139
0.361443
0.36167
0.362062
0.362584
0.363213
0.363881
0.36451
0.36503
0.365397
0.368056
0.367615
0.366866
0.365929
0.364911
0.36392
0.363047
0.362342
0.361823
0.361505
0.361381
0.361443
0.361666
0.362067
0.362615
0.363262
0.363944
0.364582
0.365106
0.365472
0.368149
0.3677
0.366939
0.365988
0.364954
0.363948
0.363061
0.362349
0.361828
0.361509
0.361389
0.361457
0.361689
0.362103
0.362666
0.363328
0.364021
0.364667
0.365195
0.36556
0.368256
0.367798
0.367026
0.366061
0.365014
0.363993
0.363092
0.36237
0.361842
0.36152
0.3614
0.361469
0.361721
0.362154
0.362734
0.363408
0.364112
0.364765
0.365296
0.36566
0.368376
0.367911
0.367128
0.366151
0.365091
0.364056
0.363141
0.362399
0.361863
0.36154
0.361423
0.361503
0.361778
0.362226
0.362819
0.363505
0.364218
0.364877
0.365411
0.365773
0.368512
0.36804
0.367246
0.366257
0.365184
0.364139
0.363214
0.362466
0.361926
0.361603
0.361489
0.361575
0.361858
0.362316
0.362919
0.363615
0.364337
0.365003
0.36554
0.365899
0.368664
0.368184
0.36738
0.366378
0.365292
0.364236
0.363303
0.362549
0.362006
0.361684
0.361572
0.361663
0.361953
0.362421
0.363034
0.36374
0.364471
0.365144
0.365684
0.366041
0.368834
0.368346
0.36753
0.366515
0.365416
0.364348
0.363405
0.362646
0.3621
0.361777
0.361668
0.361764
0.362062
0.362539
0.363162
0.36388
0.364621
0.3653
0.365843
0.366199
0.369022
0.368525
0.367698
0.366669
0.365556
0.364476
0.363523
0.362757
0.362208
0.361885
0.361779
0.36188
0.362185
0.362672
0.363307
0.364036
0.364787
0.365475
0.366021
0.366375
0.369229
0.368725
0.367885
0.366841
0.365713
0.36462
0.363657
0.362883
0.362331
0.362008
0.361904
0.362011
0.362324
0.362822
0.363468
0.36421
0.364972
0.365668
0.366218
0.36657
0.369461
0.368948
0.368095
0.367036
0.365891
0.364784
0.36381
0.363028
0.362471
0.362148
0.362047
0.36216
0.362482
0.36299
0.36365
0.364404
0.365179
0.365884
0.366438
0.366787
0.369718
0.369196
0.36833
0.367254
0.366092
0.36497
0.363983
0.363194
0.362632
0.362308
0.362209
0.362328
0.36266
0.36318
0.363853
0.364622
0.365409
0.366123
0.366682
0.367028
0.370004
0.369474
0.368593
0.3675
0.36632
0.365181
0.364181
0.363382
0.362816
0.362491
0.362395
0.36252
0.362862
0.363395
0.364082
0.364866
0.365667
0.366391
0.366954
0.367298
0.370324
0.369784
0.368889
0.367777
0.366578
0.365421
0.364407
0.363598
0.363026
0.3627
0.362607
0.362739
0.363091
0.363637
0.36434
0.36514
0.365955
0.366691
0.367258
0.367599
0.370681
0.370132
0.369222
0.368089
0.36687
0.365694
0.364665
0.363845
0.363266
0.362939
0.362849
0.362988
0.363351
0.363912
0.364631
0.365448
0.366279
0.367026
0.367599
0.367935
0.371081
0.370523
0.369597
0.368443
0.367201
0.366005
0.364959
0.364127
0.363542
0.363213
0.363125
0.363273
0.363648
0.364224
0.364961
0.365796
0.366644
0.367403
0.36798
0.368313
0.371531
0.370964
0.37002
0.368844
0.367578
0.36636
0.365296
0.364451
0.363858
0.363527
0.363443
0.363599
0.363986
0.364579
0.365335
0.36619
0.367055
0.367827
0.36841
0.368736
0.372036
0.37146
0.370499
0.369299
0.368007
0.366766
0.365682
0.364823
0.364221
0.363889
0.363807
0.363972
0.364373
0.364984
0.365759
0.366636
0.36752
0.368306
0.368893
0.369213
0.372607
0.372021
0.371042
0.369817
0.368497
0.36723
0.366125
0.365251
0.36464
0.364305
0.364227
0.364402
0.364817
0.365446
0.366244
0.367143
0.368047
0.368848
0.36944
0.369753
0.373252
0.372658
0.371659
0.370407
0.369058
0.367764
0.366636
0.365745
0.365124
0.364786
0.364711
0.364896
0.365327
0.365977
0.366798
0.367721
0.368648
0.369464
0.37006
0.370363
0.373983
0.373381
0.372363
0.371082
0.369702
0.368378
0.367225
0.366316
0.365683
0.365342
0.365271
0.365467
0.365915
0.366587
0.367433
0.368383
0.369333
0.370166
0.370767
0.37106
0.374816
0.374206
0.373168
0.371857
0.370443
0.369086
0.367907
0.366978
0.366333
0.365987
0.365921
0.366129
0.366595
0.367291
0.368164
0.369142
0.370117
0.370968
0.371573
0.371855
0.375766
0.37515
0.374091
0.372748
0.371297
0.369907
0.368698
0.367747
0.367088
0.366739
0.366676
0.366897
0.367383
0.368105
0.369008
0.370017
0.371019
0.371888
0.372497
0.372765
0.376853
0.376232
0.375153
0.373776
0.372287
0.370859
0.369618
0.368644
0.367971
0.367616
0.367559
0.367794
0.368301
0.369051
0.369986
0.371027
0.372058
0.372946
0.373559
0.373809
0.378101
0.377478
0.376378
0.374967
0.373436
0.371969
0.370694
0.369694
0.369005
0.368645
0.368593
0.368844
0.369374
0.370153
0.371123
0.372199
0.37326
0.374169
0.374783
0.375012
0.379539
0.378917
0.377798
0.376351
0.374777
0.373267
0.371956
0.370928
0.370221
0.369855
0.369809
0.370077
0.370632
0.371444
0.372449
0.373563
0.374657
0.375586
0.3762
0.376404
0.381203
0.380586
0.379451
0.377966
0.376346
0.374791
0.373441
0.372384
0.371657
0.371285
0.371245
0.371531
0.372113
0.372959
0.374005
0.375158
0.376286
0.377235
0.377847
0.378019
0.383137
0.382532
0.381382
0.37986
0.378192
0.376589
0.375196
0.374107
0.37336
0.372981
0.372949
0.373254
0.373865
0.374748
0.375835
0.377031
0.378195
0.379164
0.379769
0.379902
0.385399
0.384811
0.383651
0.382091
0.380373
0.378718
0.377281
0.376157
0.375388
0.375003
0.374979
0.375305
0.375946
0.376868
0.378
0.379241
0.38044
0.381428
0.382023
0.382107
0.388055
0.387495
0.38633
0.384733
0.382963
0.381254
0.379769
0.378609
0.377818
0.377429
0.377414
0.377758
0.37843
0.379394
0.380572
0.381859
0.383096
0.384101
0.384678
0.384702
0.391193
0.390671
0.389509