/*--------------------------------*- C++ -*----------------------------------*\
  =========                 |
  \\      /  F ield         | OpenFOAM: The Open Source CFD Toolbox
   \\    /   O peration     | Website:  https://openfoam.org
    \\  /    A nd           | Version:  6
     \\/     M anipulation  |
\*---------------------------------------------------------------------------*/
FoamFile
{
    version     2.0;
    format      ascii;
    class       volScalarField;
    location    "5";
    object      nut;
}
// * * * * * * * * * * * * * * * * * * * * * * * * * * * * * * * * * * * * * //

dimensions      [0 2 -1 0 0 0 0];

internalField   nonuniform List<scalar> 
10000
(
1.82074e-05
7.66372e-05
0.000125814
0.000177037
0.00024234
0.000325074
0.000420145
0.000513475
0.000586985
0.000625878
0.000623368
0.000581176
0.000508736
0.000419632
0.000327803
0.000246179
0.000178238
0.000123148
7.26475e-05
1.7262e-05
1.70973e-05
8.1205e-05
0.000130958
0.000180142
0.000246428
0.000330723
0.000430196
0.000526697
0.000602192
0.000642266
0.000640711
0.000598397
0.000525003
0.000432389
0.000331807
0.000252282
0.000185748
0.000129785
7.07336e-05
1.59388e-05
1.80312e-05
7.68605e-05
0.000123804
0.000170647
0.000235061
0.000316868
0.000411532
0.000506494
0.00058289
0.000624785
0.000625948
0.000583884
0.000512376
0.000426664
0.000332505
0.000246344
0.000176798
0.000129901
7.359e-05
1.67769e-05
1.85991e-05
7.72131e-05
0.000125588
0.000167296
0.000232413
0.000313769
0.000405535
0.000499237
0.000575774
0.000619255
0.000630525
0.000587098
0.000511829
0.000415178
0.000325648
0.000242301
0.000173557
0.000125751
7.96259e-05
1.74084e-05
2.34445e-05
7.98708e-05
0.000129294
0.000166298
0.000230707
0.000311205
0.000402738
0.000497065
0.000573544
0.000615924
0.000620949
0.000569997
0.000495484
0.000409301
0.000322864
0.000238635
0.000170056
0.000111643
6.94811e-05
2.08892e-05
2.01798e-05
8.7063e-05
0.000118599
0.000163648
0.00022721
0.000309173
0.00040213
0.000499878
0.000584047
0.000615948
0.000617079
0.00057448
0.0005009
0.000407972
0.000325385
0.000242286
0.000177401
0.000111993
6.97391e-05
1.51127e-05
2.42109e-05
7.72408e-05
0.000119969
0.000165553
0.00022758
0.000311178
0.000407834
0.000503969
0.000579423
0.000616047
0.000604817
0.000561515
0.000489658
0.000401475
0.000311569
0.000231887
0.000170743
0.000112719
6.8652e-05
1.4321e-05
1.98117e-05
6.94616e-05
0.000109822
0.00016662
0.000231376
0.000306934
0.000399238
0.00049327
0.000567026
0.000604556
0.00060211
0.000561855
0.000492123
0.000404483
0.000315905
0.000231061
0.000162557
0.00011364
6.89048e-05
1.61975e-05
1.58928e-05
6.87368e-05
0.000116937
0.000175938
0.000230075
0.000312708
0.000404007
0.000506776
0.000582372
0.000610438
0.000603676
0.000562603
0.000499288
0.000412178
0.000317885
0.00023725
0.000165214
0.000114366
6.66345e-05
1.49427e-05
1.92593e-05
6.67464e-05
0.000108492
0.000166607
0.000225958
0.000310255
0.000404211
0.000500343
0.000579486
0.000620324
0.000606625
0.000560862
0.000487147
0.000400854
0.000314605
0.0002321
0.000163868
0.000115558
6.82007e-05
1.58757e-05
2.49502e-05
7.82959e-05
0.000113727
0.000161459
0.000229229
0.000311562
0.000407516
0.000502919
0.000585936
0.000624395
0.000617347
0.000571325
0.000488585
0.000400051
0.000314583
0.00023701
0.000167997
0.000119567
6.85421e-05
1.59333e-05
2.16415e-05
7.50552e-05
0.000113969
0.000160927
0.0002245
0.000315155
0.000417886
0.000507745
0.000585371
0.00062319
0.000609727
0.000563047
0.000488275
0.000399854
0.000311652
0.000232974
0.000169704
0.000110449
6.70482e-05
2.04987e-05
1.68121e-05
7.10341e-05
0.000111953
0.000160212
0.000223369
0.000306598
0.000405777
0.000509888
0.000579656
0.000623841
0.00062016
0.000576552
0.000501156
0.000405482
0.000316884
0.000237376
0.000168574
0.000118364
7.55966e-05
1.71431e-05
2.14409e-05
7.74367e-05
0.000110321
0.000165002
0.000224784
0.000307456
0.000405275
0.000500132
0.000582045
0.000621653
0.000612302
0.000568985
0.00049582
0.000404904
0.000316106
0.000233371
0.00017536
0.000122789
7.47911e-05
2.09953e-05
1.53876e-05
7.27714e-05
0.000113514
0.000153746
0.000224511
0.000313339
0.00041811
0.000502832
0.000573962
0.000613428
0.000611244
0.000568758
0.000495772
0.000406675
0.00031813
0.000232883
0.000161632
0.00011402
6.96793e-05
1.56379e-05
1.44793e-05
6.74522e-05
0.000115478
0.000153435
0.000218142
0.000303803
0.000408654
0.000507661
0.000577513
0.000614768
0.000612672
0.000570494
0.000497493
0.00040865
0.000317021
0.000235523
0.000167032
0.000113612
6.90708e-05
1.72292e-05
1.80625e-05
6.36595e-05
0.000105047
0.000152413
0.000220209
0.000312295
0.000405615
0.000500623
0.000578606
0.000627505
0.000619064
0.000575241
0.000501394
0.000411521
0.000322217
0.000244055
0.000178342
0.000112534
6.69284e-05
1.65251e-05
2.33868e-05
5.99995e-05
0.000120371
0.00015857
0.000225255
0.000317075
0.000419647
0.000518379
0.000595973
0.000635735
0.000632186
0.000588635
0.000513203
0.000420269
0.000322103
0.000241798
0.000173458
0.000115636
6.97406e-05
1.81334e-05
1.87142e-05
6.19836e-05
0.000112655
0.000155249
0.000227765
0.000318571
0.000418537
0.000514663
0.000591546
0.000632504
0.000623407
0.000578479
0.000503517
0.000412241
0.000320786
0.000244812
0.000181388
0.000113855
6.90427e-05
1.9265e-05
1.4119e-05
6.15522e-05
0.00010038
0.000167761
0.000234612
0.000323089
0.000434465
0.000523537
0.000603804
0.000636116
0.000630006
0.000587612
0.00051969
0.000426948
0.0003284
0.000241659
0.000175228
0.000118283
7.30137e-05
2.53689e-05
1.73239e-05
6.32606e-05
0.000111089
0.000167011
0.000238249
0.000332562
0.000436062
0.000533359
0.000609277
0.000644727
0.000636107
0.000599593
0.0005203
0.000433314
0.000336114
0.000245096
0.000178489
0.000132322
7.64248e-05
2.01974e-05
2.33264e-05
6.32265e-05
0.000120215
0.00017786
0.000242438
0.000329346
0.000428755
0.000524803
0.000604678
0.000640723
0.000642476
0.0006018
0.000527863
0.000436381
0.000339251
0.000249499
0.000176392
0.000131831
8.23459e-05
1.97246e-05
1.86257e-05
5.79479e-05
0.000107805
0.000169773
0.000238454
0.000335462
0.000439542
0.000535084
0.000598119
0.000635142
0.000632531
0.000592894
0.000514392
0.000426536
0.000341084
0.000253213
0.000185881
0.000128848
8.3164e-05
2.56996e-05
1.33085e-05
6.31774e-05
0.000116507
0.000170308
0.0002406
0.000326227
0.000423382
0.000519141
0.000596956
0.000642013
0.000637072
0.000584528
0.0005104
0.000422324
0.000334092
0.000255207
0.000188108
0.000135277
8.45994e-05
2.4197e-05
1.54245e-05
6.2955e-05
0.000120497
0.000174306
0.000240957
0.000324643
0.000423383
0.000520773
0.000596355
0.000632491
0.000624296
0.000580085
0.000508294
0.000420181
0.000331773
0.000253488
0.000186778
0.000132708
8.25328e-05
2.3657e-05
1.58809e-05
7.3494e-05
0.000124371
0.000167016
0.000235377
0.000318201
0.000415826
0.000513217
0.000589009
0.000627219
0.000625866
0.000581609
0.000509846
0.000421467
0.000328503
0.000245093
0.000179403
0.000127055
7.87529e-05
1.86776e-05
1.85148e-05
6.90022e-05
0.000114778
0.000166761
0.000231292
0.000313074
0.00041151
0.000507588
0.000582077
0.000616371
0.000617216
0.000587063
0.000519176
0.000431322
0.000338119
0.000246849
0.000183521
0.000132192
8.52396e-05
2.31876e-05
2.36151e-05
6.72197e-05
0.000107514
0.00015865
0.000226514
0.000309885
0.000405973
0.000499351
0.000572636
0.000611814
0.000610409
0.000572145
0.000501704
0.000414793
0.000326676
0.000247624
0.000169982
0.000117668
6.98765e-05
1.68168e-05
1.9742e-05
6.42741e-05
0.00011102
0.000162568
0.000233521
0.000322135
0.000421183
0.00050699
0.000575948
0.000611717
0.0006084
0.000575232
0.000503438
0.000413407
0.000321138
0.000236143
0.000166919
0.000116761
7.29818e-05
1.53293e-05
1.48984e-05
6.08757e-05
0.000117112
0.00016145
0.000229089
0.00031819
0.000418771
0.000510024
0.000588792
0.000616288
0.000608074
0.000563558
0.00048976
0.000399399
0.000307703
0.000227507
0.000164836
0.000124671
8.0667e-05
1.92916e-05
1.69476e-05
6.63546e-05
0.000128297
0.00017336
0.000235985
0.000316576
0.000415439
0.000517581
0.000591298
0.000626397
0.000619524
0.000573786
0.000492969
0.000401708
0.000309183
0.00022765
0.000158498
0.000106833
6.85285e-05
1.67207e-05
1.69459e-05
7.67145e-05
0.000117289
0.000163404
0.000228882
0.000312537
0.000419975
0.000508827
0.00058087
0.000613549
0.000606105
0.00056382
0.000498654
0.00040967
0.000316102
0.000236601
0.000164204
0.000113768
6.90521e-05
1.56715e-05
2.26992e-05
7.31827e-05
0.000121632
0.000172064
0.00023342
0.000311048
0.000406773
0.000503422
0.000585585
0.000615869
0.000604542
0.000558416
0.000485892
0.000399932
0.000315341
0.000234111
0.000164878
0.000114387
6.89256e-05
2.04492e-05
1.95112e-05
7.45405e-05
0.000116646
0.000161083
0.000225961
0.000307929
0.000404643
0.00050059
0.000574792
0.000610781
0.000603683
0.000558459
0.000485579
0.000397455
0.000309058
0.00023044
0.00016502
0.000118301
6.8726e-05
1.62298e-05
2.41903e-05
7.41292e-05
0.000115617
0.000161383
0.000226619
0.000307815
0.000402955
0.000499409
0.000574877
0.000611501
0.000605569
0.000560867
0.000488582
0.000399521
0.000312559
0.000234086
0.00016719
0.000107184
6.66808e-05
1.74152e-05
2.04696e-05
7.39334e-05
0.00012162
0.000168192
0.000228715
0.000309854
0.000404687
0.000501673
0.000586836
0.00061605
0.000609895
0.00056535
0.000492027
0.000402368
0.000314972
0.000229933
0.000165222
0.000117472
6.69551e-05
2.23354e-05
1.59399e-05
7.42386e-05
0.000107527
0.000160868
0.000231185
0.000310778
0.000404971
0.000503929
0.00058533
0.000619958
0.000624163
0.000582315
0.000506611
0.000406582
0.000314584
0.000232401
0.000173215
0.000118289
6.9829e-05
1.96146e-05
1.87428e-05
6.67317e-05
0.000109249
0.000160242
0.00022766
0.000314935
0.000408697
0.000503718
0.000579039
0.000617858
0.000615841
0.000574919
0.000507403
0.00040842
0.00031716
0.000234077
0.000170079
0.000119519
6.76286e-05
1.5705e-05
2.50473e-05
6.72602e-05
0.000105601
0.000161978
0.000226754
0.000314184
0.000411699
0.000517306
0.000596995
0.000634026
0.000619344
0.000574074
0.000505186
0.000406721
0.000314823
0.000235913
0.000172929
0.000130174
6.6371e-05
1.78191e-05
2.09632e-05
6.76204e-05
0.000115301
0.000161031
0.00022839
0.000313136
0.000413571
0.000510845
0.000586977
0.000630592
0.000626481
0.000574529
0.000497168
0.00040686
0.000317092
0.00023885
0.000174543
0.000117114
6.30276e-05
1.86927e-05
1.6313e-05
6.65831e-05
0.000116778
0.000163604
0.000230364
0.000315162
0.000423516
0.000523677
0.00059723
0.000625594
0.000619308
0.000579927
0.000498716
0.000404517
0.000311153
0.000229286
0.000160853
0.000101844
6.10113e-05
1.46347e-05
2.20829e-05
6.64856e-05
0.000125653
0.000175564
0.000238211
0.000317601
0.000413895
0.000510432
0.000584923
0.000621668
0.000615305
0.000570005
0.000495858
0.00041043
0.000313219
0.000232897
0.000170446
0.000110279
6.66965e-05
1.38058e-05
1.92317e-05
7.44894e-05
0.000122445
0.000166789
0.000233907
0.000319688
0.000417247
0.000513853
0.000587507
0.000623975
0.000617109
0.000570835
0.000495632
0.000406076
0.000316413
0.000234552
0.000162192
0.000113057
6.89599e-05
1.54285e-05
2.45432e-05
7.50741e-05
0.000123391
0.000171627
0.000240043
0.000323215
0.000420399
0.000525828
0.000601558
0.000637437
0.000628558
0.000574124
0.000497695
0.000408705
0.000317355
0.000236158
0.000166137
0.000113484
6.89133e-05
1.44432e-05
2.27239e-05
8.17326e-05
0.000125785
0.000172101
0.000240656
0.000324002
0.000422854
0.000516701
0.000589293
0.00062528
0.000620908
0.000582895
0.000504166
0.000419571
0.000322335
0.000236099
0.000167111
0.000116593
7.47007e-05
1.59631e-05
2.15942e-05
8.10174e-05
0.000126911
0.000175267
0.000243653
0.000325172
0.000423042
0.000518731
0.000592325
0.000628044
0.000621743
0.000581971
0.000504018
0.000419226
0.000327922
0.000247105
0.000181218
0.000121775
7.34007e-05
1.53341e-05
1.62765e-05
7.99564e-05
0.000134126
0.000185556
0.000247119
0.000327622
0.000423819
0.00052083
0.000603268
0.000640723
0.000622701
0.000576522
0.000503957
0.00041516
0.000324642
0.000246202
0.00017914
0.000124078
7.49483e-05
1.61797e-05
1.88503e-05
8.31018e-05
0.000132209
0.000176212
0.000239069
0.000322852
0.000423641
0.000527385
0.000594734
0.000633448
0.000621427
0.000576589
0.000505011
0.000416716
0.000324615
0.000245124
0.00017683
0.000118924
7.50555e-05
1.69486e-05
1.77261e-05
8.84006e-05
0.000138532
0.000174977
0.000237285
0.000321958
0.000429014
0.00052073
0.000596792
0.000626641
0.000620543
0.000577328
0.000506625
0.000418205
0.000325538
0.000242601
0.000172567
0.000117558
7.4562e-05
2.14662e-05
2.18913e-05
8.01798e-05
0.000129795
0.000172018
0.000234523
0.000317933
0.000414125
0.000521376
0.000586078
0.000623388
0.00062515
0.000578289
0.000514444
0.000425406
0.000331612
0.00024832
0.000177384
0.000118838
7.78882e-05
1.83198e-05
1.84351e-05
7.36241e-05
0.000120227
0.000168188
0.000233218
0.000316393
0.000410612
0.000513984
0.000581649
0.000618767
0.000615195
0.000572785
0.000501308
0.000412913
0.000323571
0.000243211
0.000174223
0.000121556
6.66011e-05
2.29602e-05
2.362e-05
7.4674e-05
0.000116884
0.000168268
0.000232499
0.000315701
0.000409677
0.000510784
0.000581897
0.000619678
0.000615454
0.000573432
0.000508111
0.00041624
0.000330444
0.000240669
0.000167509
0.000108322
6.13544e-05
2.08954e-05
1.90541e-05
7.55994e-05
0.000129574
0.000179144
0.000233023
0.000313064
0.000405721
0.000501128
0.000587577
0.000629557
0.00062551
0.000580109
0.000500434
0.000412495
0.000325708
0.000246403
0.000172034
0.0001137
6.73171e-05
1.96437e-05
1.4119e-05
7.62046e-05
0.000122208
0.000169715
0.000231875
0.000313808
0.000407416
0.000500545
0.000574951
0.00061373
0.000611489
0.000570009
0.000498396
0.000411001
0.000325901
0.000240525
0.000173361
0.000119319
7.06239e-05
1.48254e-05
1.58195e-05
6.86763e-05
0.00012193
0.00017269
0.000234877
0.000320332
0.000420796
0.000516455
0.000588969
0.000617951
0.000612956
0.000573702
0.000507542
0.000410344
0.000318881
0.00023973
0.000174978
0.000120481
7.1536e-05
1.75072e-05
1.45945e-05
6.4406e-05
0.000112842
0.00016137
0.000226721
0.000313338
0.000413738
0.000506382
0.000579597
0.000616809
0.000613879
0.000582359
0.000510251
0.000417521
0.000320007
0.00024073
0.000180759
0.000123467
7.27694e-05
2.30385e-05
1.5422e-05
7.2068e-05
0.00011222
0.00016001
0.000229252
0.000310703
0.000408076
0.000512655
0.000588893
0.000625408
0.000613603
0.000576158
0.000504264
0.000412231
0.000319608
0.00023987
0.000182064
0.00013243
7.32879e-05
1.86477e-05
1.5653e-05
6.7296e-05
0.00012273
0.000171225
0.000234896
0.000313483
0.000408698
0.000502256
0.00057514
0.000612494
0.000607938
0.000565429
0.000494677
0.000415024
0.000322223
0.000237264
0.000174922
0.00012934
7.41522e-05
1.42041e-05
1.66319e-05
6.77505e-05
0.000107411
0.000160476
0.000232225
0.000321452
0.000424676
0.00051924
0.000581172
0.000614421
0.000608059
0.000565723
0.000489082
0.00040273
0.000317321
0.000235192
0.000170684
0.000129572
8.23796e-05
1.76118e-05
2.17136e-05
7.42773e-05
0.000127984
0.000178087
0.000237088
0.000320279
0.00042202
0.000516881
0.000581832
0.000614548
0.000607259
0.000562279
0.000488624
0.000400205
0.000312353
0.000236224
0.000174466
0.000124428
7.75025e-05
2.12743e-05
1.64711e-05
8.18772e-05
0.000135045
0.000180543
0.000242838
0.000328241
0.000418326
0.000513278
0.000591217
0.000627696
0.000620752
0.000574735
0.000499755
0.00041
0.000319047
0.000237938
0.000167441
0.000116917
7.0344e-05
1.62243e-05
1.56683e-05
8.52765e-05
0.000136832
0.000176954
0.000240144
0.000321161
0.000416642
0.000520326
0.000582632
0.000615867
0.00060849
0.000562899
0.000489039
0.000400461
0.000311814
0.000234009
0.000169055
0.000115663
7.23422e-05
1.87704e-05
1.91659e-05
8.57492e-05
0.000133751
0.000174855
0.00023759
0.000325623
0.000417305
0.000510915
0.000578697
0.000613158
0.000606489
0.000562056
0.00048934
0.00040156
0.000312393
0.000236283
0.000179564
0.000125847
7.63828e-05
2.35113e-05
2.0879e-05
9.39686e-05
0.000145739
0.000179457
0.000239533
0.000320374
0.000415071
0.000507096
0.000577995
0.000614315
0.000609263
0.00056625
0.000499112
0.000409868
0.000316768
0.000239172
0.0001766
0.000120047
7.00133e-05
1.8088e-05
2.49337e-05
8.53242e-05
0.000132552
0.000181173
0.000243501
0.00032136
0.000416743
0.000507543
0.000578182
0.000615759
0.00061222
0.000573212
0.000493441
0.000404498
0.000315309
0.000234186
0.000170886
0.000124475
7.34486e-05
2.39614e-05
2.3366e-05
7.70563e-05
0.000120957
0.000170767
0.000238345
0.000320714
0.0004238
0.000511265
0.000578524
0.000616522
0.000616645
0.000569195
0.000494466
0.000405572
0.000315033
0.000234977
0.000170209
0.000117974
7.38475e-05
1.86233e-05
2.38216e-05
8.42088e-05
0.000121918
0.000169307
0.0002429
0.000322056
0.00041625
0.000508542
0.000580232
0.000617276
0.000613072
0.000571251
0.000505771
0.000417408
0.000323438
0.000242738
0.000174181
0.000118395
7.82725e-05
1.7354e-05
2.12509e-05
7.61683e-05
0.000126678
0.00016796
0.000237775
0.000320916
0.000418183
0.000521146
0.000585906
0.000621044
0.000615096
0.000571291
0.000500684
0.000417894
0.00032511
0.000242192
0.000174506
0.000111983
7.76739e-05
2.14588e-05
1.63089e-05
7.31164e-05
0.000117779
0.00016521
0.00023576
0.000326237
0.000428699
0.000523756
0.000588743
0.000621956
0.000614582
0.000570023
0.000498319
0.000414804
0.000322384
0.000243414
0.000175041
0.000114237
7.29152e-05
1.62658e-05
1.9049e-05
7.31352e-05
0.000115966
0.000162943
0.000238315
0.000324288
0.000422232
0.000517175
0.000589781
0.000629067
0.000616712
0.000570214
0.000496553
0.000406
0.000315467
0.000235495
0.000167569
0.000115319
7.25959e-05
1.79781e-05
1.83163e-05
7.7668e-05
0.000122835
0.00016332
0.00023275
0.000328072
0.000433168
0.000531674
0.000603126
0.000626864
0.000618729
0.000572525
0.000501469
0.00040612
0.000316509
0.000239298
0.000174908
0.000112513
7.03473e-05
1.767e-05
2.1445e-05
8.65939e-05
0.000133752
0.000164704
0.000234785
0.000319971
0.000418086
0.000516573
0.000594067
0.000629587
0.000620169
0.000576082
0.000503428
0.00040469
0.000311772
0.000230698
0.000163461
0.000116422
7.9743e-05
2.28075e-05
2.22358e-05
7.65095e-05
0.000119418
0.000163701
0.000232694
0.000313826
0.000408413
0.000504492
0.000584663
0.000617422
0.000607006
0.00056398
0.000498382
0.000404299
0.000311863
0.000230798
0.000163727
0.000116501
7.20813e-05
1.72187e-05
1.96104e-05
6.78364e-05
0.000104836
0.000161268
0.000230553
0.000319478
0.000412286
0.000506011
0.000579057
0.000614104
0.000606554
0.000562335
0.00049209
0.000409993
0.000318192
0.000234087
0.000165049
0.000115443
7.56445e-05
1.5328e-05
2.58811e-05
7.83513e-05
0.000119389
0.000169362
0.000239322
0.000324641
0.000416396
0.000510906
0.000592831
0.000619687
0.000608018
0.000562781
0.000491528
0.000406089
0.000319972
0.000241097
0.000167865
0.000112408
6.69216e-05
1.41914e-05
2.15809e-05
7.04684e-05
0.000115983
0.000165481
0.000235733
0.000322686
0.000419869
0.000514
0.000587348
0.000625866
0.000608347
0.00056332
0.000491716
0.000409428
0.000319784
0.000237683
0.000172279
0.000119858
7.01632e-05
1.65214e-05
1.60727e-05
7.15074e-05
0.000116157
0.000169153
0.000240389
0.000325578
0.00043091
0.000528333
0.000601168
0.000621623
0.000609531
0.000564954
0.000492233
0.000404548
0.000315212
0.000238141
0.00018054
0.000128184
7.43884e-05
2.03375e-05
2.17956e-05
7.69497e-05
0.000120865
0.000179804
0.00024606
0.000331143
0.000420389
0.000513346
0.000595251
0.00062981
0.000613792
0.000567736
0.000494104
0.000405998
0.000316854
0.000237419
0.000171529
0.000117319
7.49918e-05
1.53099e-05
1.73032e-05
7.80066e-05
0.00011831
0.000171713
0.000240019
0.000324593
0.00041835
0.000510824
0.000591988
0.000628662
0.000619261
0.000578177
0.000506187
0.000410254
0.000319441
0.00024014
0.000176073
0.000121786
7.63367e-05
1.82502e-05
1.66051e-05
7.32463e-05
0.00012044
0.000170727
0.000240839
0.000329741
0.000422793
0.000513848
0.000590049
0.000624786
0.000625503
0.000575623
0.000502981
0.000415163
0.000327275
0.000248268
0.000185646
0.000133982
8.2103e-05
2.33414e-05
2.21339e-05
7.50838e-05
0.000120255
0.000173721
0.000243425
0.000325866
0.000419789
0.000511704
0.000586156
0.000631765
0.000628419
0.000577079
0.000505588
0.000423971
0.000328337
0.00024378
0.000177428
0.00012687
7.48865e-05
2.20592e-05
1.9407e-05
7.73903e-05
0.000126767
0.000175999
0.000245618
0.000334391
0.000433953
0.000519216
0.000590117
0.000628115
0.000629052
0.000579522
0.000505709
0.000418842
0.000331447
0.000250458
0.000187061
0.000134399
7.6368e-05
2.24416e-05
2.48755e-05
7.79044e-05
0.000128153
0.000180717
0.000249984
0.000334742
0.000430881
0.000521322
0.000591309
0.000628959
0.000626077
0.00058213
0.000508879
0.00042159
0.000333156
0.000248414
0.000178683
0.000124693
7.88412e-05
2.14607e-05
2.36314e-05
8.20181e-05
0.000137609
0.000192286
0.000259703
0.000342764
0.000446495
0.000538838
0.00059928
0.000634545
0.000631692
0.000596695
0.00052421
0.000429123
0.000339012
0.000257768
0.000186389
0.000128851
7.17012e-05
1.66559e-05
2.32179e-05
7.95683e-05
0.000130059
0.000188113
0.000262808
0.000352707
0.000443383
0.000532408
0.000602872
0.000646643
0.000636722
0.000594691
0.000523668
0.000435729
0.0003446
0.00025889
0.000182211
0.00012755
7.40093e-05
1.78158e-05
1.89026e-05
8.28159e-05
0.000136119
0.000193237
0.000269124
0.000355497
0.00045658
0.000549284
0.000618408
0.000648054
0.000643643
0.000602357
0.000532007
0.000444461
0.000353221
0.000268979
0.000187562
0.000131146
8.35254e-05
1.9018e-05
2.23223e-05
9.50329e-05
0.000148822
0.000207716
0.000282227
0.000363892
0.000455926
0.000545456
0.000616333
0.000655988
0.000662447
0.000626128
0.000557124
0.000467766
0.000371508
0.00028041
0.000199649
0.00014116
8.10633e-05
2.41507e-05
2.80018e-05
8.44019e-05
0.000140587
0.000205405
0.000283849
0.000371508
0.000465365
0.000554419
0.000624917
0.000664462
0.000670808
0.000628584
0.000559649
0.000471952
0.000376264
0.000286584
0.000203431
0.000138126
8.18823e-05
2.04815e-05
2.65362e-05
8.18886e-05
0.000140144
0.000210855
0.000295946
0.000384152
0.00048142
0.000582624
0.000655157
0.000690306
0.000682159
0.000641282
0.000573027
0.000486446
0.000394701
0.000296127
0.000210257
0.00014672
8.93323e-05
2.58137e-05
2.7522e-05
9.91762e-05
0.000161158
0.000230641
0.000315915
0.000413698
0.000516489
0.000606778
0.00067309
0.000706581
0.000700373
0.000669836
0.000604074
0.000514291
0.000411506
0.000306502
0.00021189
0.000143089
8.98247e-05
1.95874e-05
2.59173e-05
9.54053e-05
0.00015734
0.000230352
0.00032614
0.000436339
0.000540876
0.000628559
0.000691118
0.000726575
0.00072447
0.00068381
0.00061614
0.000527598
0.00042906
0.000326174
0.000224214
0.000144015
9.01016e-05
2.46986e-05
2.0676e-05
9.24859e-05
0.000172516
0.000250524
0.000346755
0.000459529
0.000565791
0.000646365
0.000707359
0.000739238
0.000738525
0.000706272
0.00064945
0.000561279
0.000452384
0.000339344
0.000237257
0.000154665
8.85418e-05
1.93544e-05
2.73728e-05
0.000107046
0.000172273
0.000256884
0.000366039
0.000482491
0.000589184
0.000669471
0.000731629
0.000763539
0.000763613
0.000733563
0.000676641
0.000589189
0.000481336
0.000362836
0.000255946
0.000172991
0.0001035
1.89142e-05
2.15522e-05
9.74567e-05
0.000172052
0.000264058
0.000379527
0.000503478
0.000617376
0.000708971
0.000766004
0.000796431
0.000795866
0.000765997
0.000710074
0.000619936
0.000504041
0.00037713
0.000258596
0.000165137
9.48906e-05
2.36543e-05
1.96582e-05
9.28965e-05
0.000168128
0.000269461
0.000398863
0.000535185
0.000653287
0.000744979
0.000808775
0.000838515
0.000836624
0.000801825
0.000743034
0.000655606
0.000535292
0.00040034
0.000269246
0.000163851
8.81061e-05
1.87159e-05
1.78226e-05
8.45669e-05
0.000168712
0.000289268
0.000436372
0.000577823
0.000693185
0.000775751
0.000825319
0.000854481
0.000853697
0.000823406
0.00077237
0.00069572
0.000581868
0.000438297
0.000286203
0.000163585
8.18397e-05
1.79806e-05
1.85099e-05
8.33186e-05
0.000182677
0.000333435
0.000501708
0.000643526
0.00074592
0.000813422
0.000852856
0.000869845
0.000870289
0.000854227
0.00081564
0.000747787
0.000643192
0.00049779
0.000329603
0.000180961
8.18554e-05
1.85107e-05
2.09e-05
9.46331e-05
0.000229333
0.000418113
0.000600786
0.000733449
0.0008099
0.000850552
0.000870494
0.000878602
0.00087884
0.000871425
0.000852601
0.000813204
0.000736251
0.000601654
0.00041918
0.000229664
9.488e-05
2.11814e-05
2.43712e-05
0.000130852
0.000358319
0.000608669
0.000759425
0.000822049
0.000845894
0.000856538
0.000861137
0.000862857
0.000862936
0.000861347
0.000856729
0.000846038
0.000821308
0.000756223
0.00060508
0.000358538
0.000133744
2.4181e-05
2.58531e-05
0.000304537
0.000581853
0.00074427
0.000815816
0.000841532
0.000850125
0.000853132
0.000854282
0.000854699
0.000854688
0.00085425
0.000853054
0.000849983
0.000841343
0.000815818
0.000745517
0.000583875
0.000303349
2.58086e-05
5.69662e-05
0.000146281
0.000205908
0.000241369
0.000274059
0.000325323
0.000411682
0.000522181
0.000623619
0.000681154
0.000679028
0.000623991
0.000528965
0.000420839
0.000330449
0.000266609
0.000230177
0.000196135
0.000136924
5.37226e-05
6.53595e-05
0.000160155
0.000223859
0.00024456
0.000277019
0.000344769
0.000440128
0.000549572
0.000654648
0.000715007
0.000711457
0.000662541
0.000567844
0.000449463
0.000347503
0.000268513
0.00023215
0.000214102
0.000148981
6.09312e-05
6.24826e-05
0.000148251
0.000208735
0.000244059
0.000276022
0.000325786
0.00040287
0.000514657
0.000618941
0.000685496
0.000684961
0.000635374
0.000541277
0.000425477
0.000339261
0.000269369
0.000229849
0.000201521
0.000139256
4.85695e-05
6.39913e-05
0.000162767
0.000212529
0.000248385
0.000283128
0.00032351
0.000410611
0.000519649
0.000620494
0.000676277
0.000687173
0.000606117
0.000508819
0.000425845
0.000319127
0.000278223
0.000229931
0.000193315
0.000152056
5.35446e-05
6.14593e-05
0.000149736
0.000225056
0.000267626
0.000284896
0.000342924
0.000430732
0.000536822
0.000651143
0.000683175
0.000674361
0.000610349
0.000507036
0.000399897
0.000313648
0.000271147
0.000229702
0.000193964
0.00014331
5.91123e-05
5.43494e-05
0.00015663
0.000224424
0.000265023
0.000297847
0.000368708
0.000448082
0.000560283
0.000646804
0.000692618
0.000680793
0.000618736
0.000520935
0.000411036
0.000314749
0.000264989
0.000230738
0.000205306
0.000130959
4.52078e-05
6.29321e-05
0.000148984
0.000219912
0.000257141
0.000274145
0.000342782
0.000438733
0.000528207
0.000627116
0.000699821
0.000699697
0.000640998
0.000548995
0.000435587
0.000318603
0.000266317
0.000230537
0.000192599
0.000131934
4.80106e-05
5.79713e-05
0.000148993
0.000202618
0.000246046
0.000271744
0.000319807
0.000395646
0.000507692
0.000616384
0.000673461
0.000668118
0.000607483
0.000517995
0.000413116
0.00031842
0.000278702
0.000236618
0.000196447
0.000133131
4.64558e-05
6.62675e-05
0.000162945
0.00020156
0.000250565
0.00027534
0.000325802
0.000414082
0.000521202
0.000620049
0.000697888
0.000702582
0.000643405
0.000548033
0.000442373
0.000331211
0.000281494
0.000242589
0.000215267
0.000135481
5.03385e-05
5.85232e-05
0.000150725
0.000198055
0.000253233
0.000276029
0.000321005
0.000409334
0.000513479
0.000607168
0.000662996
0.00067834
0.0006281
0.00053796
0.000435038
0.000333425
0.000280132
0.000248917
0.000209076
0.000136889
4.80159e-05
5.02614e-05
0.000136056
0.000192183
0.00024782
0.000285144
0.000348663
0.000441447
0.000534796
0.000619895
0.000666138
0.000658122
0.000604527
0.000517288
0.000418787
0.000330908
0.000280526
0.000256382
0.00020392
0.000140364
5.0896e-05
5.54424e-05
0.000139369
0.000195857
0.000243627
0.000305642
0.000387649
0.000492397
0.000549136
0.00062747
0.000667185
0.000663324
0.000623974
0.00051709
0.000446521
0.000336743
0.000280091
0.00025201
0.000213914
0.000142874
4.94863e-05
6.30372e-05
0.000151158
0.000198417
0.000256286
0.000290882
0.000352131
0.000459833
0.000539332
0.000647047
0.000677377
0.000662724
0.000612402
0.00051614
0.000420649
0.000335157
0.000277756
0.000234812
0.00019223
0.000153674
5.99584e-05
5.12775e-05
0.000140772
0.000199125
0.000247856
0.000282344
0.000335797
0.000448176
0.00053588
0.00062652
0.000687827
0.000658615
0.000601115
0.000515443
0.000444534
0.000352711
0.000290522
0.000236635
0.000187968
0.000134787
5.39241e-05
6.07395e-05
0.000146482
0.000209009
0.000257391
0.000297714
0.000355089
0.000431184
0.000531689
0.000648736
0.00068811
0.000666226
0.000605587
0.000520573
0.000432511
0.000340875
0.00029472
0.000240275
0.000190457
0.000135284
5.78295e-05
5.40781e-05
0.000160016
0.000233196
0.000275703
0.00029322
0.000338605
0.000451682
0.000562728
0.000630301
0.000673735
0.000668316
0.000624899
0.000537371
0.000414277
0.000336448
0.000293911
0.000246437
0.000205603
0.000134453
6.12248e-05
5.33227e-05
0.00015931
0.000227964
0.000267089
0.000292377
0.000337281
0.00041859
0.000529979
0.000622735
0.000674101
0.00067721
0.000602192
0.000512383
0.00042033
0.000349703
0.00029594
0.000246239
0.000192719
0.000134333
5.63373e-05
5.7671e-05
0.000163913
0.000220236
0.000262245
0.00030389
0.000360844
0.000467169
0.00058051
0.000660677
0.000682168
0.000673707
0.000627668
0.000527517
0.000414953
0.000371193
0.000308508
0.000264872
0.000206842
0.000135566
4.81311e-05
5.92719e-05
0.0001658
0.000222464
0.000260038
0.000290789
0.000339102
0.00043696
0.000548631
0.000635668
0.000679922
0.000681726
0.0006134
0.000513888
0.000404323
0.000338131
0.000282035
0.000248488
0.000193207
0.000136896
5.56037e-05
5.46389e-05
0.00016132
0.000239124
0.000273573
0.00029305
0.000335101
0.000472502
0.000587158
0.000644002
0.000684684
0.000659905
0.00059364
0.000501272
0.00040115
0.000318845
0.000266932
0.000244274
0.000193553
0.000146694
6.43531e-05
6.24464e-05
0.000177612
0.000226897
0.00026302
0.000305521
0.000359624
0.000465926
0.000571822
0.000641461
0.000677238
0.000659878
0.00059606
0.000506139
0.000418282
0.000329552
0.00026763
0.000248176
0.000204683
0.000145543
6.04371e-05
5.64933e-05
0.000161726
0.000233025
0.00026654
0.000305712
0.000374711
0.000431109
0.000534231
0.000626257
0.000675997
0.000657961
0.000600427
0.00050995
0.000409503
0.000323316
0.000268369
0.000241707
0.000194806
0.000142279
5.69291e-05
6.31401e-05
0.000146964
0.000205801
0.000259945
0.000296421
0.000339281
0.000429045
0.000540479
0.000633609
0.000696064
0.000669386
0.000606514
0.000537832
0.000432699
0.000339073
0.000270144
0.000241107
0.00019827
0.000134928
4.56543e-05
5.55968e-05
0.000151414
0.000209206
0.000263186
0.000297839
0.000361064