/*--------------------------------*- C++ -*----------------------------------*\
  =========                 |
  \\      /  F ield         | OpenFOAM: The Open Source CFD Toolbox
   \\    /   O peration     | Website:  https://openfoam.org
    \\  /    A nd           | Version:  6
     \\/     M anipulation  |
\*---------------------------------------------------------------------------*/
FoamFile
{
    version     2.0;
    format      ascii;
    class       volScalarField;
    location    "5";
    object      nut;
}
// * * * * * * * * * * * * * * * * * * * * * * * * * * * * * * * * * * * * * //

dimensions      [0 2 -1 0 0 0 0];

internalField   nonuniform List<scalar> 
130000
(
0.000885003
0.000887803
0.000888972
0.000888624
0.000887139
0.000884928
0.000882315
0.000879524
0.000876717
0.00087401
0.00087151
0.000869291
0.000867392
0.000865804
0.000864505
0.000863471
0.000862649
0.000861991
0.000861433
0.00086091
0.000885057
0.000887864
0.000889002
0.000888603
0.000887067
0.000884808
0.000882151
0.000879316
0.000876465
0.000873732
0.000871222
0.000869011
0.000867147
0.000865578
0.000864276
0.000863215
0.000862388
0.000861741
0.000861209
0.000860741
0.000885086
0.000887895
0.000889033
0.000888627
0.000887072
0.000884786
0.000882099
0.000879247
0.000876393
0.00087366
0.000871139
0.000868894
0.000867
0.000865418
0.000864134
0.000863094
0.000862284
0.000861625
0.00086111
0.000860669
0.000885105
0.000887903
0.000889062
0.000888663
0.000887092
0.000884777
0.000882068
0.00087921
0.000876363
0.000873643
0.000871126
0.000868858
0.00086692
0.000865315
0.000864015
0.000863007
0.000862231
0.0008616
0.000861124
0.000860632
0.000885162
0.000887958
0.000889118
0.000888701
0.000887116
0.000884791
0.000882073
0.000879208
0.000876362
0.000873648
0.000871149
0.000868924
0.000867002
0.000865382
0.000863997
0.000862962
0.000862194
0.000861652
0.000861155
0.000860595
0.000885191
0.00088801
0.000889151
0.000888725
0.000887133
0.000884802
0.000882079
0.00087921
0.00087636
0.000873647
0.000871154
0.00086894
0.000867035
0.000865432
0.000864072
0.000863026
0.000862193
0.000861589
0.000861002
0.000860467
0.000885185
0.000888021
0.000889172
0.000888744
0.000887148
0.000884812
0.000882083
0.000879209
0.000876354
0.000873638
0.000871146
0.000868938
0.000867043
0.000865461
0.000864168
0.000863131
0.000862236
0.00086148
0.000860897
0.000860421
0.000885216
0.000888058
0.000889199
0.000888765
0.000887163
0.000884821
0.000882085
0.000879203
0.000876341
0.00087362
0.000871125
0.000868916
0.00086702
0.000865438
0.000864156
0.000863137
0.000862291
0.000861566
0.000861006
0.000860523
0.000885274
0.000888091
0.000889222
0.000888781
0.000887173
0.000884824
0.00088208
0.00087919
0.000876321
0.000873592
0.000871092
0.000868879
0.000866979
0.000865386
0.000864087
0.000863097
0.000862319
0.00086171
0.000861207
0.000860744
0.0008853
0.000888104
0.00088923
0.000888785
0.000887173
0.000884818
0.000882068
0.00087917
0.000876293
0.000873557
0.000871049
0.000868826
0.000866903
0.000865292
0.000864021
0.000863043
0.000862318
0.000861752
0.000861309
0.000860853
0.000885305
0.000888103
0.000889223
0.000888777
0.000887164
0.000884806
0.000882051
0.000879149
0.000876267
0.000873527
0.000871017
0.000868792
0.000866866
0.000865261
0.000864074
0.000863102
0.000862387
0.000861822
0.000861375
0.000860873
0.000885305
0.000888099
0.000889188
0.00088875
0.000887147
0.000884794
0.000882038
0.000879131
0.000876244
0.0008735
0.00087099
0.000868778
0.000866892
0.000865327
0.000864144
0.000863192
0.000862435
0.000861827
0.000861297
0.000860793
0.000885303
0.000888094
0.000889181
0.000888733
0.000887144
0.000884794
0.000882036
0.000879122
0.000876225
0.000873472
0.000870955
0.000868741
0.000866858
0.000865337
0.000864117
0.000863199
0.000862464
0.000861857
0.000861316
0.000860789
0.000885301
0.000888087
0.000889201
0.000888757
0.00088717
0.000884815
0.000882048
0.000879122
0.00087621
0.000873439
0.000870902
0.000868686
0.000866822
0.000865306
0.000864105
0.000863257
0.000862539
0.000861944
0.000861413
0.000860884
0.000885327
0.0008881
0.000889246
0.000888835
0.000887229
0.000884859
0.000882077
0.000879134
0.000876204
0.000873414
0.00087086
0.00086866
0.00086683
0.000865312
0.000864122
0.000863236
0.000862528
0.000861951
0.000861441
0.000860936
0.000885434
0.000888218
0.000889355
0.000888928
0.000887305
0.000884917
0.000882121
0.000879158
0.000876205
0.000873395
0.000870825
0.00086857
0.000866687
0.00086514
0.000863941
0.000863064
0.00086236
0.000861769
0.000861265
0.000860765
0.000885609
0.000888419
0.000889516
0.000889051
0.000887412
0.000885004
0.00088218
0.000879189
0.000876208
0.000873369
0.00087077
0.000868474
0.000866574
0.00086502
0.000863808
0.000862909
0.000862174
0.000861531
0.000861007
0.000860509
0.00088579
0.00088862
0.000889731
0.000889223
0.000887546
0.000885102
0.000882237
0.000879208
0.000876202
0.000873352
0.000870748
0.000868466
0.00086655
0.000864972
0.000863735
0.000862723
0.000861922
0.000861264
0.00086073
0.000860242
0.000885936
0.000888778
0.000889896
0.000889393
0.000887689
0.000885215
0.000882325
0.000879272
0.000876236
0.000873353
0.000870724
0.000868432
0.000866529
0.000864928
0.000863632
0.000862565
0.000861761
0.000861147
0.000860639
0.000860186
0.00088609
0.000888932
0.000890046
0.000889533
0.000887815
0.000885327
0.000882425
0.000879362
0.000876295
0.000873379
0.000870735
0.000868455
0.000866567
0.000864971
0.000863663
0.000862709
0.000861962
0.000861385
0.000860893
0.000860441
0.000886246
0.000889088
0.000890197
0.000889676
0.000887947
0.000885446
0.000882528
0.000879446
0.00087636
0.000873428
0.000870762
0.000868434
0.000866478
0.000864886
0.000863659
0.000862783
0.000862109
0.000861588
0.000861121
0.000860661
0.000886385
0.000889232
0.00089034
0.000889813
0.000888075
0.000885561
0.000882628
0.000879526
0.000876432
0.000873486
0.000870797
0.00086842
0.000866413
0.0008648
0.000863581
0.000862747
0.000862087
0.000861564
0.000861091
0.000860612
0.000886515
0.000889371
0.000890481
0.000889947
0.000888197
0.000885669
0.000882717
0.000879597
0.00087649
0.000873538
0.00087085
0.000868504
0.000866519
0.000864899
0.000863694
0.000862798
0.00086206
0.000861477
0.00086099
0.000860537
0.000886674
0.000889534
0.000890638
0.00089009
0.000888321
0.000885772
0.000882802
0.00087967
0.000876563
0.00087362
0.000870932
0.000868592
0.000866626
0.000864999
0.000863816
0.00086289
0.000862189
0.000861608
0.000861106
0.000860632
0.000886867
0.000889723
0.000890813
0.000890246
0.000888454
0.000885883
0.000882892
0.000879742
0.000876624
0.000873682
0.000871019
0.000868681
0.000866665
0.000865062
0.00086386
0.000862975
0.000862263
0.000861655
0.000861126
0.000860612
0.000887075
0.000889925
0.000891003
0.000890414
0.000888599
0.000886003
0.000882988
0.000879815
0.000876669
0.000873692
0.000871002
0.000868653
0.00086665
0.000865045
0.000863836
0.000862937
0.000862168
0.00086155
0.000861022
0.000860558
0.000887273
0.000890128
0.000891198
0.000890592
0.000888754
0.000886134
0.000883095
0.000879898
0.000876726
0.00087372
0.000871
0.000868628
0.000866627
0.000864971
0.00086373
0.000862817
0.000862068
0.000861453
0.000860926
0.000860484
0.000887486
0.000890346
0.00089141
0.000890787
0.000888927
0.000886283
0.000883222
0.000880008
0.000876825
0.000873825
0.000871102
0.000868723
0.00086671
0.000865024
0.000863765
0.000862841
0.000862083
0.000861404
0.000860853
0.00086042
0.00088772
0.000890585
0.000891641
0.000891001
0.000889119
0.000886451
0.000883368
0.000880135
0.000876942
0.00087393
0.000871201
0.000868826
0.000866835
0.000865181
0.000863951
0.000863089
0.000862353
0.000861612
0.000860988
0.000860502
0.000887971
0.00089084
0.000891888
0.000891229
0.000889323
0.000886628
0.000883519
0.000880261
0.000877045
0.000874019
0.000871288
0.000868918
0.000866942
0.000865287
0.000864066
0.000863214
0.000862457
0.0008618
0.000861182
0.000860658
0.000888232
0.000891106
0.000892146
0.000891468
0.000889534
0.000886811
0.00088367
0.00088038
0.000877131
0.000874077
0.000871318
0.000868919
0.000866935
0.00086533
0.000864082
0.000863151
0.000862388
0.000861772
0.000861238
0.000860744
0.000888502
0.000891382
0.000892414
0.000891714
0.000889753
0.000886998
0.000883824
0.0008805
0.000877215
0.000874113
0.000871306
0.000868864
0.000866856
0.000865248
0.000864009
0.000863128
0.000862388
0.000861758
0.000861236
0.000860753
0.000888784
0.000891669
0.00089269
0.000891968
0.000889977
0.000887189
0.000883983
0.000880628
0.000877317
0.000874184
0.000871353
0.000868897
0.000866859
0.000865222
0.000864005
0.000863168
0.00086245
0.000861877
0.00086139
0.000860918
0.000889079
0.000891968
0.000892978
0.000892231
0.000890208
0.000887384
0.000884142
0.000880755
0.000877419
0.000874279
0.000871446
0.000868986
0.000866915
0.000865218
0.000863941
0.000863025
0.00086229
0.000861751
0.000861343
0.000860912
0.000889388
0.000892281
0.000893279
0.000892506
0.000890449
0.000887587
0.000884304
0.000880874
0.000877492
0.000874301
0.000871425
0.000868943
0.000866861
0.000865162
0.000863889
0.000862989
0.000862222
0.000861723
0.000861334
0.000860888
0.000889709
0.000892608
0.000893595
0.000892797
0.000890707
0.000887807
0.000884484
0.000881014
0.000877591
0.000874359
0.00087147
0.00086899
0.000866913
0.00086523
0.000863982
0.000863106
0.000862299
0.00086181
0.00086136
0.000860866
0.000890048
0.000892954
0.000893931
0.000893109
0.000890985
0.000888049
0.00088469
0.000881185
0.000877731
0.000874473
0.000871571
0.000869079
0.000866989
0.000865294
0.00086404
0.000863184
0.000862416
0.000861894
0.000861422
0.000860901
0.00089041
0.000893324
0.00089429
0.000893441
0.000891283
0.000888311
0.000884917
0.000881379
0.000877896
0.00087461
0.000871645
0.000869105
0.000867005
0.000865327
0.000864108
0.000863271
0.000862524
0.000862001
0.000861516
0.000861006
0.000890798
0.000893726
0.000894677
0.000893798
0.000891602
0.000888591
0.000885159
0.000881589
0.000878081
0.00087478
0.000871792
0.000869229
0.000867114
0.00086543
0.000864199
0.000863308
0.000862597
0.000862096
0.000861607
0.000861106
0.000891215
0.000894211
0.000895106
0.00089418
0.00089194
0.000888886
0.000885416
0.000881813
0.000878278
0.000874958
0.00087196
0.000869387
0.000867267
0.000865578
0.000864333
0.000863458
0.000862784
0.000862208
0.00086169
0.000861181
0.000891641
0.000894654
0.000895532
0.000894573
0.000892292
0.000889195
0.000885685
0.000882048
0.000878488
0.000875154
0.000872148
0.000869571
0.000867449
0.000865765
0.000864569
0.000863665
0.000862904
0.000862288
0.00086175
0.000861233
0.000892088
0.000895114
0.000895976
0.000894984
0.000892659
0.000889517
0.000885963
0.000882288
0.0008787
0.000875354
0.000872363
0.000869795
0.00086767
0.00086596
0.000864695
0.000863758
0.000862973
0.000862342
0.000861795
0.000861274
0.000892558
0.000895598
0.000896443
0.000895416
0.000893046
0.000889855
0.000886252
0.000882532
0.000878904
0.000875525
0.000872507
0.000869919
0.000867773
0.000866046
0.000864767
0.000863817
0.000863023
0.000862386
0.000861836
0.000861314
0.000893055
0.00089611
0.00089694
0.000895876
0.000893458
0.000890213
0.000886558
0.000882787
0.000879113
0.000875694
0.000872644
0.000870028
0.00086786
0.000866116
0.000864828
0.000863871
0.000863071
0.000862429
0.000861876
0.000861352
0.000893588
0.000896661
0.000897472
0.000896369
0.000893899
0.000890598
0.000886886
0.000883061
0.000879337
0.000875875
0.000872788
0.000870143
0.000867951
0.00086619
0.000864894
0.000863929
0.000863122
0.000862475
0.000861918
0.000861389
0.000894167
0.000897255
0.000898047
0.000896901
0.000894375
0.000891012
0.000887239
0.000883356
0.00087958
0.000876071
0.000872945
0.000870268
0.000868051
0.000866272
0.000864967
0.000863994
0.000863181
0.000862529
0.000861968
0.000861436
0.000894792
0.000897897
0.000898666
0.000897472
0.000894885
0.000891457
0.000887618
0.000883673
0.000879841
0.000876283
0.000873116
0.000870405
0.000868162
0.000866364
0.000865049
0.000864067
0.000863248
0.000862593
0.000862028
0.000861493
0.000895465
0.000898583
0.000899326
0.000898081
0.000895429
0.000891931
0.000888023
0.000884014
0.000880123
0.000876513
0.000873302
0.000870556
0.000868285
0.000866466
0.00086514
0.00086415
0.000863325
0.000862665
0.000862098
0.000861561
0.000896163
0.0008993
0.000900019
0.000898723
0.000896004
0.000892434
0.000888454
0.000884378
0.000880425
0.000876761
0.000873504
0.000870721
0.000868419
0.000866578
0.000865241
0.000864242
0.00086341
0.000862748
0.000862178
0.00086164
0.000896908
0.00090006
0.000900752
0.000899402
0.000896613
0.000892968
0.000888914
0.000884767
0.000880751
0.00087703
0.000873723
0.0008709
0.000868565
0.000866699
0.000865351
0.000864341
0.000863505
0.00086284
0.000862269
0.00086173
0.000897684
0.00090086
0.000901528
0.000900122
0.000897262
0.000893538
0.000889408
0.000885187
0.000881103
0.000877322
0.000873964
0.000871098
0.000868726
0.00086683
0.000865467
0.000864445
0.000863607
0.000862941
0.000862369
0.000861826
0.000898514
0.000901717
0.000902361
0.000900897
0.000897961
0.000894154
0.000889942
0.000885644
0.000881488
0.000877643
0.00087423
0.000871318
0.000868908
0.000866981
0.000865597
0.000864539
0.000863715
0.000863053
0.00086248
0.000861934
0.000899423
0.000902652
0.000903267
0.00090174
0.00089872
0.000894824
0.000890522
0.000886141
0.000881909
0.000877997
0.000874525
0.000871565
0.000869115
0.000867158
0.000865755
0.000864684
0.000863852
0.000863185
0.000862608
0.000862056
0.000900415
0.000903669
0.000904251
0.000902653
0.000899543
0.00089555
0.000891154
0.000886683
0.000882369
0.000878385
0.000874852
0.000871841
0.000869348
0.00086736
0.000865938
0.000864853
0.000864012
0.000863338
0.000862755
0.000862195
0.000901486
0.000904767
0.000905315
0.000903641
0.000900434
0.000896337
0.000891839
0.000887273
0.000882872
0.000878811
0.000875212
0.000872147
0.00086961
0.000867588
0.000866146
0.000865046
0.000864195
0.000863515
0.000862926
0.00086236
0.000902642
0.000905952
0.000906463
0.000904709
0.000901397
0.000897189
0.000892582
0.000887915
0.000883422
0.000879279
0.00087561
0.000872487
0.000869903
0.000867845
0.000866381
0.000865265
0.000864404
0.000863717
0.000863125
0.000862561
0.000903892
0.000907233
0.000907704
0.000905863
0.00090244
0.000898113
0.000893391
0.000888615
0.000884024
0.000879794
0.00087605
0.000872866
0.000870231
0.000868134
0.000866646
0.000865513
0.000864639
0.000863944
0.000863346
0.000862776
0.000905245
0.00090862
0.000909049
0.000907114
0.000903571
0.000899117
0.000894271
0.00088938
0.000884684
0.000880361
0.000876539
0.000873289
0.0008706
0.000868462
0.000866948
0.000865794
0.000864907
0.000864202
0.000863597
0.000863017
0.000906712
0.000910123
0.000910507
0.000908472
0.0009048
0.00090021
0.000895231
0.000890218
0.000885411
0.000880989
0.000877083
0.000873764
0.000871018
0.000868838
0.0008673
0.00086612
0.000865214
0.000864496
0.000863883
0.00086329
0.000908304
0.000911755
0.000912091
0.000909949
0.000906139
0.000901402
0.000896282
0.000891138
0.000886212
0.000881686
0.000877689
0.000874298
0.000871493
0.000869274
0.000867741
0.000866503
0.000865568
0.000864834
0.000864209
0.000863604
0.000910039
0.000913534
0.000913819
0.00091156
0.000907601
0.000902707
0.000897435
0.000892151
0.000887099
0.000882461
0.000878368
0.000874896
0.000872024
0.000869758
0.000868188
0.000866922
0.000865966
0.000865215
0.000864578
0.000863958
0.000911936
0.000915477
0.000915707
0.000913323
0.000909202
0.000904139
0.000898704
0.000893269
0.000888082
0.000883324
0.000879128
0.000875571
0.000872626
0.000870306
0.000868693
0.000867398
0.000866419
0.000865649
0.000864988
0.000864345
0.000914009
0.000917601
0.000917774
0.000915255
0.00091096
0.000905713
0.000900103
0.000894508
0.000889176
0.00088429
0.000879983
0.000876334
0.00087331
0.000870932
0.000869273
0.000867946
0.000866942
0.000866151
0.000865468
0.000864813
0.00091628
0.00091993
0.000920042
0.000917377
0.000912894
0.000907449
0.00090165
0.000895882
0.000890395
0.000885372
0.000880948
0.0008772
0.000874092
0.000871651
0.000869941
0.000868579
0.000867547
0.000866734
0.000866027
0.000865361
0.000918778
0.000922491
0.000922539
0.000919716
0.000915029
0.00090937
0.000903367
0.000897412
0.000891759
0.000886589
0.000882039
0.000878185
0.000874987
0.000872479
0.000870712
0.000869311
0.000868249
0.00086741
0.000866684
0.000866015
0.000921532
0.000925317
0.000925296
0.000922302
0.000917394
0.000911502
0.000905277
0.000899122
0.000893289
0.000887961
0.000883274
0.000879306
0.000876015
0.000873435
0.000871604
0.000870159
0.000869064
0.000868197
0.000867451
0.000866759
0.000924578
0.000928443
0.000928351
0.000925173
0.000920022
0.000913877
0.000907412
0.00090104
0.000895013
0.000889515
0.00088468
0.000880588
0.000877191
0.000874529
0.00087263
0.00087114
0.000870008
0.000869109
0.000868337
0.000867607
0.000927957
0.000931914
0.000931749
0.000928371
0.000922958
0.000916535
0.000909809
0.0009032
0.000896963
0.000891281
0.000886286
0.00088206
0.000878548
0.000875795
0.000873822
0.000872283
0.000871111
0.000870176
0.000869377
0.000868608
0.000931724
0.000935785
0.000935545
0.00093195
0.000926249
0.000919524
0.000912511
0.000905645
0.000899181
0.000893299
0.000888132
0.00088376
0.000880122
0.00087727
0.000875216
0.000873622
0.000872405
0.000871432
0.0008706
0.000869784
0.000935939
0.00094012
0.000939805
0.000935975
0.000929959
0.000922901
0.000915574
0.000908426
0.000901714
0.000895616
0.000890264
0.000885731
0.000881957
0.000878996
0.000876851
0.000875196
0.00087393
0.000872914
0.000872043
0.000871171
0.000940674
0.000944997
0.000944607
0.000940522
0.00093416
0.000926735
0.000919062
0.000911605
0.000904623
0.000898289
0.000892735
0.00088803
0.000884107
0.000881024
0.000878778
0.000877055
0.000875732
0.000874664
0.000873739
0.00087281
0.000946021
0.000950519
0.000950054
0.000945689
0.000938946
0.000931115
0.000923058
0.000915259
0.000907979
0.000901389
0.000895616
0.000890722
0.000886637
0.000883418
0.00088106
0.000879261
0.000877869
0.000876741
0.000875753
0.000874747
0.000952087
0.000956865
0.000956277
0.0009516
0.000944432
0.000936148
0.000927663
0.000919484
0.000911875
0.000905003
0.00089899
0.000893892
0.00088963
0.000886262
0.000883778
0.000881891
0.00088042
0.000879222
0.000878154
0.000877053
0.000958966
0.000964063
0.000963396
0.00095839
0.000950756
0.000941968
0.000933004
0.0009244
0.000916424
0.000909239
0.000902963
0.000897643
0.000893189
0.000889654
0.000887031
0.000885045
0.000883484
0.000882203
0.000881036
0.000879818
0.000966836
0.000972327
0.000971601
0.000966245
0.000958099
0.000948748
0.000939244
0.000930159
0.00092177
0.000914236
0.000907668
0.000902105
0.000897443
0.000893724
0.000890947
0.00088885
0.000887189
0.000885822
0.000884525
0.000883153
0.000975903
0.000981884
0.000981127
0.000975403
0.000966693
0.00095671
0.000946594
0.00093696
0.0009281
0.00092017
0.000913274
0.000907445
0.000902558
0.000898634
0.000895687
0.000893463
0.000891684
0.000890189
0.000888737
0.00088719
0.000986421
0.000993017
0.000992274
0.000986169
0.000976841
0.000966147
0.000955328
0.00094506
0.000935654
0.000927269
0.000920001
0.000913875
0.000908744
0.000904598
0.00090146
0.000899092
0.000897175
0.000895519
0.000893882
0.000892123
0.00099871
0.00100609
0.00100543
0.000998939
0.000988938
0.000977441
0.000965815
0.000954806
0.00094476
0.000935842
0.000928141
0.000921679
0.000916282
0.000911894
0.000908547
0.000906011
0.000903931
0.000902084
0.000900239
0.000898213
0.00101319
0.00102157
0.00102109
0.00101424
0.00100352
0.00099112
0.000978561
0.000966681
0.000955874
0.000946319
0.000938105
0.000931251
0.000925558
0.00092091
0.00091733
0.000914595
0.000912322
0.000910266
0.00090818
0.000905806
0.00103039
0.00104008
0.00103995
0.00103279
0.00102131
0.00100791
0.000994281
0.000981377
0.000969658
0.000959335
0.000950499
0.000943167
0.000937131
0.000932203
0.000928365
0.000925386
0.000922855
0.000920568
0.000918194
0.000915371
0.00105103
0.00106244
0.00106291
0.00105555
0.00104332
0.00102884
0.00101401
0.000999913
0.00098711
0.000975855
0.000966253
0.000958316
0.000951858
0.000946629
0.000942507
0.000939207
0.000936362
0.000933838
0.000931037
0.000927574
0.00107606
0.00108977
0.00109121
0.00108387
0.00107096
0.00105539
0.00103924
0.00102381
0.00100974
0.00099737
0.000986822
0.000978106
0.000971067
0.000965461
0.000961077
0.000957485
0.000954229
0.000951237
0.00094767
0.0009433
0.00110676
0.00112354
0.00112651
0.00111955
0.00110619
0.0010896
0.00107213
0.00105526
0.00103979
0.00102613
0.00101444
0.00100472
0.000996843
0.000990602
0.000985752
0.000981685
0.000978043
0.000974182
0.000969296
0.000963801
0.0011448
0.00116575
0.00117104
0.00116505
0.00115162
0.00113426
0.0011156
0.00109732
0.0010804
0.00106532
0.0010523
0.00104136
0.00103237
0.00102506
0.00101905
0.0010139
0.00100922
0.00100412
0.000998032
0.000991036
0.00119242
0.00121897
0.00122769
0.00122348
0.00121061
0.00119294
0.00117338
0.00115388
0.00113554
0.00111899
0.00110448
0.00109207
0.00108164
0.00107289
0.0010654
0.00105863
0.00105205
0.00104503
0.00103703
0.00102766
0.00125245
0.00128643
0.00129998
0.00129863
0.00128715
0.0012698
0.00124981
0.00122936
0.00120976
0.00119171
0.00117556
0.0011614
0.0011491
0.0011384
0.00112887
0.00111987
0.0011107
0.00110088
0.00108977
0.00107677
0.00132841
0.00137198
0.00139197
0.00139473
0.00138559
0.00136926
0.00134933
0.00132823
0.00130747
0.00128789
0.0012699
0.00125362
0.00123897
0.00122572
0.00121352
0.00120166
0.00118912
0.00117528
0.00115953
0.00114142
0.00142438
0.00147987
0.00150771
0.00151586
0.00150996
0.00149522
0.00147566
0.00145402
0.00143204
0.0014107
0.0013905
0.00137163
0.00135388
0.00133703
0.00132112
0.00130549
0.00128857
0.00126939
0.0012476
0.00122307
0.00154464
0.0016149
0.00164944
0.00166511
0.0016631
0.00165006
0.00163069
0.00160818
0.0015845
0.00156083
0.00153783
0.00151589
0.0014943
0.00147213
0.00145178
0.00143221
0.00140863
0.00138201
0.00135306
0.00132091
0.00169332
0.00178057
0.0018239
0.00184504
0.00184557
0.00183305
0.00181281
0.00178839
0.00176194
0.00173475
0.00170757
0.00167994
0.00165078
0.00162155
0.00159347
0.00156687
0.00154053
0.00150827
0.00147077
0.00142956
0.00187249
0.00197516
0.0020286
0.00205113
0.00205146
0.0020372
0.00201415
0.00198617
0.00195544
0.00192311
0.00188948
0.00185338
0.00181497
0.00177885
0.00174211
0.00170143
0.00166114
0.00162505
0.00158574
0.00153645
0.00207841
0.00219072
0.00224724
0.00226843
0.00226496
0.00224562
0.00221706
0.00218358
0.00214716
0.00210896
0.00206823
0.00202405
0.00197809
0.00193317
0.00188521
0.00183383
0.00177842
0.00172331
0.00167453
0.00162339
0.00229849
0.00240861
0.00245859
0.00247041
0.00245672
0.00242737
0.00238974
0.00234906
0.00230546
0.00226019
0.00221077
0.0021579
0.00210223
0.00204566
0.00198497
0.00192123
0.00185389
0.00178289
0.00171249
0.00165092
0.00250147
0.00258927
0.0026181
0.00260965
0.00257809
0.00253348
0.0024817
0.00242861
0.00237877
0.00232747
0.00227069
0.00220935
0.00214183
0.00207287
0.00200197
0.00192529
0.00184467
0.00176221
0.00167798
0.00159768
0.00262457
0.00266414
0.00265549
0.00261665
0.00255493
0.00248925
0.00244415
0.00238764
0.00233339
0.00227891
0.00221916
0.00215464
0.00208174
0.00200549
0.00192798
0.00182728
0.00171622
0.00161913
0.00152817
0.00143896
0.00256075
0.00253757
0.00248007
0.00241437
0.00234938
0.00228067
0.00220571
0.00214754
0.00209934
0.00205387
0.0020014
0.00193795
0.00185754
0.00176567
0.00166373
0.00157236
0.00148944
0.00139511
0.00128613
0.00118069
0.00217331
0.00211193
0.00204643
0.00198155
0.00189106
0.00181107
0.00175012
0.00171392
0.00169749
0.00168514
0.00165253
0.00159533
0.00151025
0.00140831
0.00129894
0.00119261
0.00109078
0.000984574
0.000895479
0.000816195
0.00142495
0.00140357
0.00136153
0.00129204
0.00123351
0.00119109
0.0011894
0.00122337
0.00127201
0.00130289
0.00130355
0.00125914
0.00116813
0.00104105
0.000894929
0.000763788
0.000655389
0.000560832
0.000480837
0.000402003
0.000543172
0.000576249
0.000614496
0.000642292
0.000689124
0.000778174
0.00084699
0.000915529
0.00096681
0.000989678
0.000987922
0.000969206
0.000937519
0.000885607
0.000774979
0.000632774
0.000486062
0.000362647
0.000257095
0.000151571
4.79044e-05
0.00131007
0.000614281
0.00064821
0.000774928
0.000866841
0.000882751
0.000873541
0.00087004
0.0008701
0.000871072
0.000872756
0.000870498
0.000859631
0.000839386
0.000811592
0.00078738
0.00071464
0.000601356
0.000255768
0.000862162
0.000862433
0.000862806
0.000863034
0.000863123
0.000863107
0.000863034
0.00086295
0.000862849
0.000862745
0.000862654
0.000862589
0.000862566
0.000862606
0.0008627
0.000862735
0.000862688
0.000862559
0.000862381
0.000862123
0.000861986
0.000862268
0.000862637
0.00086286
0.000862941
0.000862908
0.000862825
0.000862781
0.000862691
0.000862608
0.000862551
0.000862502
0.000862467
0.000862453
0.000862443
0.000862423
0.000862403
0.000862238
0.000862049
0.000861794
0.000862143
0.000862352
0.000862662
0.000862851
0.000862939
0.000862953
0.000862817
0.000862703
0.000862537
0.000862419
0.000862375
0.000862341
0.000862322
0.000862313
0.000862286
0.000862232
0.000862242
0.000862144
0.000861968
0.000861633
0.000862255
0.000862419
0.000862672
0.000862852
0.000862983
0.000863076
0.000862939
0.000862744
0.000862511
0.000862274
0.000862181
0.000862131
0.00086209
0.000862151
0.000862278
0.000862249
0.000862234
0.000862187
0.000861995
0.000861626
0.000862036
0.000862285
0.000862555
0.000862762
0.000862891
0.000862949
0.000862984
0.000862825
0.000862563
0.000862222
0.000862007
0.00086188
0.000861772
0.000861801
0.000861927
0.000862001
0.000862026
0.000861977
0.000861871
0.000861666
0.000862033
0.000862279
0.000862628
0.000862833
0.000862914
0.000862913
0.000862891
0.00086269
0.000862427
0.00086215
0.000861837
0.000861673
0.000861598
0.000861611
0.000861667
0.000861734
0.000861794
0.000861918
0.000861871
0.000861696
0.000862188
0.000862513
0.0008629
0.000863109
0.000863162
0.000863092
0.000862919
0.000862659
0.000862388
0.000862158
0.000861967
0.000861842
0.000861781
0.000861783
0.000861809
0.000861818
0.000861751
0.000861791
0.000861715
0.000861487
0.000862206
0.000862565
0.000862978
0.000863196
0.000863238
0.000863136
0.000862914
0.000862627
0.000862338
0.000862086
0.0008619
0.000861788
0.000861741
0.000861748
0.000861776
0.000861783
0.000861711
0.000861729
0.000861612
0.000861319
0.000862228
0.000862646
0.000863076
0.000863293
0.00086332
0.000863195
0.000862957
0.000862649
0.000862345
0.000862086
0.000861902
0.000861799
0.000861773
0.000861819
0.000861895
0.000861947
0.000861933
0.000861827
0.000861589
0.000861295
0.000862231
0.000862679
0.000863085
0.00086329
0.000863315
0.000863193
0.000862964
0.00086266
0.000862352
0.000862086
0.000861895
0.000861788
0.000861757
0.000861808
0.000861945
0.000862095
0.000862128
0.000862022
0.000861737
0.000861549
0.000862128
0.000862643
0.000863003
0.000863192
0.000863233
0.000863183
0.000863026
0.00086276
0.00086246
0.000862195
0.000861998
0.000861867
0.000861778
0.000861706
0.000861802
0.000862015
0.000862131
0.00086214
0.000861927
0.000861693
0.000862028
0.000862525
0.00086294
0.000863112
0.000863143
0.000863192
0.000863109
0.000862893
0.000862639
0.000862407
0.000862221
0.000862073
0.000861922
0.000861697
0.000861692
0.000861841
0.000862013
0.000862028
0.000861842
0.000861533
0.000861979
0.000862351
0.000862842
0.000863076
0.000863142
0.000863181
0.000863053
0.000862847
0.000862616
0.000862402
0.000862239
0.000862129
0.000862036
0.00086189
0.000861873
0.000861932
0.000862043
0.000861959
0.000861734
0.000861572
0.000862
0.000862318
0.000862754
0.000863103
0.000863209
0.000863155
0.000862991
0.000862766
0.000862525
0.000862304
0.000862136
0.000862027
0.000861951
0.000861858
0.000861822
0.000861823
0.000861829
0.000861808
0.000861734
0.000861557
0.00086214
0.000862463
0.000862895
0.000863155
0.00086323
0.000863156
0.000862977
0.000862741
0.000862487
0.000862252
0.000862065
0.000861924
0.000861805
0.000861678
0.000861629
0.000861612
0.000861607
0.000861608
0.000861649
0.000861382
0.000862125
0.000862549
0.000862949
0.000863163
0.000863205
0.000863113
0.00086292
0.000862662
0.000862377
0.000862122
0.000861924
0.000861775
0.000861649
0.000861557
0.000861508
0.000861456
0.00086141
0.000861364
0.00086131
0.000861201
0.000862203
0.000862468
0.000862743
0.000862947
0.000863017
0.000862927
0.000862718
0.000862459
0.000862196
0.00086197
0.000861794
0.000861636
0.000861455
0.000861344
0.000861342
0.000861369
0.000861301
0.000861247
0.000861181
0.00086108
0.000862155
0.000862358
0.000862676
0.000862929
0.000863046
0.000862929
0.000862632
0.000862349
0.000862116
0.000861947
0.000861851
0.000861698
0.000861438
0.000861363
0.000861492
0.000861646
0.000861605
0.000861571
0.00086147
0.000861325
0.000862179
0.00086241
0.00086277
0.000862975
0.000863067
0.000862972
0.000862708
0.000862419
0.00086212
0.000861867
0.00086175
0.000861611
0.000861444
0.000861509
0.000861716
0.000861859
0.000861925
0.000861858
0.000861718
0.000861632
0.000862285
0.000862608
0.000862908
0.000863082
0.000863097
0.000862997
0.000862776
0.00086235
0.000861929
0.000861569
0.000861369
0.00086129
0.000861314
0.000861443
0.000861635
0.000861873
0.000862038
0.000862019
0.000861878
0.000861854
0.000862265
0.000862727
0.000863143
0.000863315
0.000863281
0.000863077
0.000862719
0.000862218
0.000861851
0.00086158
0.000861417
0.00086136
0.000861394
0.000861515
0.000861721
0.000862026
0.000862241
0.000862344
0.000862218
0.000862086
0.000862355
0.000862828
0.000863176
0.00086323
0.000863163
0.000863002
0.000862752
0.000862418
0.00086216
0.000861943
0.00086181
0.00086177
0.000861818
0.00086196
0.000862196
0.000862464
0.000862608
0.000862676
0.000862509
0.000862173
0.000862687
0.000863017
0.000863292
0.000863288
0.000863248
0.000863172
0.00086299
0.000862743
0.000862477
0.000862182
0.000862011
0.000861959
0.00086201
0.000862177
0.000862474
0.000862797
0.000863003
0.000862968
0.000862651
0.000862134
0.000862898
0.000863222
0.000863564
0.000863702
0.000863712
0.000863569
0.000863288
0.000862955
0.000862623
0.000862277
0.000862089
0.000862017
0.000862044
0.000862178
0.000862441
0.000862839
0.000863083
0.000863067
0.00086275
0.000862307
0.000862964
0.000863306
0.000863697
0.00086393
0.000863949
0.000863682
0.000863379
0.000863045
0.000862743
0.000862488
0.000862319
0.000862241
0.000862244
0.000862342